/*--------------------------------*- C++ -*----------------------------------*\
| =========                 |                                                 |
| \\      /  F ield         | foam-extend: Open Source CFD                    |
|  \\    /   O peration     | Version:     4.1                                |
|   \\  /    A nd           | Web:         http://www.foam-extend.org         |
|    \\/     M anipulation  |                                                 |
\*---------------------------------------------------------------------------*/
FoamFile
{
    version     2.0;
    format      ascii;
    class       regIOobject;
    location    "0.2/uniform";
    object      profilingInfo;
}
// * * * * * * * * * * * * * * * * * * * * * * * * * * * * * * * * * * * * * //

profilingInfo
(

    {
        id              11;
        parentId        9;
        description     "Foam::Time::writeObject - outputTime";
        calls           4;
        totalTime       0.050579;
        childTime       0;
        onStack         1;
    }

    {
        id              9;
        parentId        1;
        description     "Foam::Time::writeObject";
        calls           140;
        totalTime       0.050741;
        childTime       0.050579;
        onStack         1;
    }

    {
        id              1;
        description     "application::main";
        calls           1;
        totalTime       9.90758;
        childTime       9.33339;
        onStack         1;
    }

    {
        id              10;
        parentId        1;
        description     "FO::DataSummary::execute";
        calls           139;
        totalTime       0.007419;
        childTime       0;
        onStack         0;
    }

    {
        id              5;
        parentId        1;
        description     "MULES::explicitSolve";
        calls           280;
        totalTime       0.042006;
        childTime       0;
        onStack         0;
    }

    {
        id              4;
        parentId        1;
        description     "functionObjectList::read";
        calls           1;
        totalTime       8.69895;
        childTime       0;
        onStack         0;
    }

    {
        id              2;
        parentId        1;
        description     "fvMatrix::solve_pcorr";
        calls           1;
        totalTime       0.000119;
        childTime       5.7e-05;
        onStack         0;
    }

    {
        id              6;
        parentId        1;
        description     "fvMatrix::solve_pd";
        calls           560;
        totalTime       0.534161;
        childTime       0.514041;
        onStack         0;
    }

    {
        id              8;
        parentId        7;
        description     "lduMatrix::solver_coarsestLevelCorr";
        calls           2145;
        totalTime       0.014394;
        childTime       0;
        onStack         0;
    }

    {
        id              3;
        parentId        2;
        description     "lduMatrix::solver_pcorr";
        calls           1;
        totalTime       5.7e-05;
        childTime       0;
        onStack         0;
    }

    {
        id              7;
        parentId        6;
        description     "lduMatrix::solver_pd";
        calls           560;
        totalTime       0.514041;
        childTime       0.014394;
        onStack         0;
    }
);


// ************************************************************************* //
