/*--------------------------------*- C++ -*----------------------------------*\
| =========                 |                                                 |
| \\      /  F ield         | foam-extend: Open Source CFD                    |
|  \\    /   O peration     | Version:     4.1                                |
|   \\  /    A nd           | Web:         http://www.foam-extend.org         |
|    \\/     M anipulation  |                                                 |
\*---------------------------------------------------------------------------*/
FoamFile
{
    version     2.0;
    format      ascii;
    class       volScalarField;
    location    "0.5";
    object      alpha1;
}
// * * * * * * * * * * * * * * * * * * * * * * * * * * * * * * * * * * * * * //

dimensions      [0 0 0 0 0 0 0];

internalField   nonuniform List<scalar> 
2268
(
1
1
1
1
0.999999
0.999996
0.999999
0.999986
0.999993
0.999875
0.999922
0.999945
0.999966
0.999979
0.999988
0.999994
0.999998
0.999999
0.999997
0.999944
0.999656
0.985331
0.553989
1
1
1
0.999999
0.999987
0.999933
0.999978
0.999816
0.999905
0.99933
0.999654
0.999688
0.999731
0.999787
0.999899
0.99995
0.999987
0.99999
0.99999
0.999976
0.9999
0.997288
0.989131
1
0.999999
0.999998
0.999986
0.999852
0.999424
0.999774
0.99887
0.999435
0.998289
0.997462
0.997356
0.997634
0.99855
0.999592
0.999882
0.999967
0.999962
0.999951
0.999899
0.999172
0.994838
0.987204
1
0.999983
0.999975
0.999842
0.998819
0.996996
0.998591
0.995336
0.99771
0.994509
0.991081
0.982254
0.989518
0.994351
0.997207
0.99888
0.999441
0.999683
0.999801
0.999817
0.999432
0.995478
0.985188
0.999993
0.999817
0.999709
0.998687
0.993179
0.98946
0.993172
0.985505
0.992139
0.983599
0.962074
0.966998
0.980175
0.981697
0.987576
0.994392
0.99704
0.998564
0.999043
0.999603
0.999323
0.995638
0.983464
0.999909
0.998595
0.997492
0.992008
0.972261
0.967608
0.966753
0.965797
0.961143
0.948647
0.921521
0.937938
0.948935
0.9607
0.970245
0.984007
0.99024
0.994593
0.995569
0.997887
0.998651
0.99558
0.980036
0.999257
0.991421
0.983847
0.964331
0.91746
0.910774
0.899993
0.90311
0.87405
0.8432
0.865369
0.876607
0.900434
0.93776
0.94465
0.967272
0.976112
0.984146
0.984646
0.990138
0.996508
0.994933
0.980622
0.995627
0.956747
0.926113
0.886082
0.811692
0.795985
0.748501
0.762042
0.721614
0.738131
0.771104
0.800984
0.864074
0.896504
0.914627
0.94867
0.951935
0.955053
0.952438
0.963349
0.984864
0.992466
0.981387
0.202572
0.259522
0.269823
0.273812
0.27622
0.292727
0.32343
0.344055
0.40577
0.469193
0.510396
0.53487
0.558839
0.500767
0.416491
0.36345
0.194844
0.16349
0.195767
0.170482
0.155375
0.0952635
0.0705925
0.0780488
0.172052
0.273589
0.347292
0.423103
0.50685
0.558283
0.586292
0.65916
0.671571
0.667931
0.623425
0.363166
0.172202
0.258142
0.122636
0.0597165
0.0162346
0.00502146
0.0347741
0.177954
0.295451
0.350325
0.417397
0.455581
0.420768
0.519027
0.628996
0.675461
0.700514
0.693325
0.573268
0.299139
0.285864
0.0831587
0.0297097
0.0051911
0.00254607
0.00291517
0.0461016
0.135306
0.165008
0.325353
0.379008
0.440507
0.430673
0.586157
0.667986
0.702995
0.704878
0.655962
0.395456
0.316084
0.0584032
0.0175369
0.00685004
0.00599519
0.00355257
0.00645212
0.0227423
0.0773717
0.22749
0.285127
0.310149
0.387016
0.561519
0.703364
0.712786
0.710427
0.690964
0.514078
0.34827
0.0388332
0.0137166
0.00861761
0.0166535
0.0100576
0.00684576
0.0213913
0.036732
0.178081
0.221795
0.275925
0.329372
0.595533
0.732475
0.729238
0.718153
0.704248
0.611801
0.403932
0.0243641
0.0114413
0.0136577
0.0410137
0.0280234
0.0118587
0.0483552
0.174296
0.565592
0.28089
0.329303
0.445411
0.703456
0.76482
0.741473
0.723024
0.711534
0.650991
0.444919
0.0112395
0.016273
0.0355203
0.115161
0.0776052
0.0183935
0.0488067
0.139922
0.528106
0.491941
0.56671
0.659875
0.762693
0.777382
0.748463
0.714805
0.708181
0.67012
0.465893
0.973038
0.738026
0.676126
0.661433
0.590894
0.544041
0.471731
0.474459
0.437299
0.464365
0.525565
0.622788
0.740906
0.823427
0.854197
0.859418
0.851616
0.833023
0.810814
0.796015
0.837011
0.93713
0.973582
0.80842
0.303421
0.242896
0.259788
0.271056
0.25253
0.184992
0.179664
0.152065
0.170241
0.284066
0.511815
0.640165
0.708232
0.713177
0.686602
0.655236
0.604788
0.567556
0.560468
0.612374
0.824485
0.938657
0.654261
0.190051
0.0776995
0.0751113
0.127002
0.12737
0.0855676
0.085989
0.0643607
0.057864
0.0890487
0.200485
0.318673
0.436996
0.547275
0.575156
0.568538
0.556956
0.519188
0.483564
0.529699
0.686697
0.86389
0.588008
0.210442
0.0532902
0.032126
0.0693951
0.0676608
0.0537232
0.0515233
0.0345957
0.024723
0.0227984
0.0694814
0.153832
0.23077
0.369238
0.412984
0.471207
0.496836
0.480951
0.443126
0.46732
0.569924
0.747514
0.628233
0.261303
0.0470259
0.0226074
0.0347451
0.039744
0.0379022
0.0315996
0.0205849
0.0135341
0.0147675
0.0204525
0.0651775
0.0777118
0.124713
0.157705
0.241838
0.368216
0.434915
0.41596
0.415741
0.446017
0.50127
0.581039
0.215273
0.0310005
0.0149819
0.022029
0.0250902
0.0255438
0.0187107
0.0125927
0.00776744
0.0144087
0.0106914
0.0236934
0.04528
0.0992207
0.226509
0.340281
0.272388
0.344325
0.325754
0.283045
0.280382
0.280068
0.201354
0.0276168
0.0102923
0.00965195
0.0149733
0.0136318
0.0134573
0.00844513
0.00626404
0.0051482
0.0170015
0.00642578
0.0131019
0.0230335
0.07407
0.224939
0.210098
0.0810542
0.114655
0.119584
0.0819549
0.0706982
0.0735174
0.0194485
0.0150962
0.00657048
0.00518703
0.00869288
0.00550085
0.00645661
0.00364844
0.00244
0.00514818
0.0199566
0.00520807
0.00599435
0.00975627
0.0411296
0.129814
0.133486
0.0531004
0.0191241
0.0235486
0.0145764
0.0133688
0.0155098
0.00506497
0.00399761
0.00197029
0.00233509
0.0042994
0.00232989
0.00219523
0.00176003
0.00192433
0.00646816
0.0210391
0.00588354
0.0027715
0.00386106
0.0212091
0.046676
0.0344891
0.0142505
0.00548793
0.00519287
0.00478394
0.0043636
0.00449013
0.00261124
0.0017703
0.000876516
0.000952163
0.00147025
0.00099616
0.000729627
0.000768911
0.00168845
0.005947
0.0210922
0.0102871
0.00122843
0.00213341
0.0102835
0.0105561
0.0014877
0.00185941
0.00253224
0.00223761
0.0021621
0.00191692
0.00182331
0.00127292
0.000637873
0.000333392
0.000262595
0.000245079
0.000285789
0.00019273
0.000191353
0.000621309
0.00225669
0.0205539
0.017871
0.000759205
0.00187404
0.00406593
0.00239505
0.0014807
0.00145594
0.000944383
0.000927059
0.000729272
0.000504225
0.000488109
0.000621253
0.000250335
0.00012147
5.22716e-05
5.8104e-05
4.7343e-05
3.10422e-05
2.24414e-05
0.000124219
0.000762883
0.0161713
0.0298559
0.00293262
0.000649338
0.00129885
0.000867306
0.000543466
0.000669409
0.000599204
0.000472792
0.000163494
7.63212e-05
8.64159e-05
0.000283288
8.38604e-05
5.32235e-05
5.25556e-06
6.51674e-06
5.0123e-06
2.59229e-06
2.17913e-06
3.18589e-05
0.000502472
0.00988082
0.040126
0.00865389
0.0011219
0.000242582
0.000211074
0.000302928
0.000437074
0.000359245
0.000189683
2.92318e-05
3.97247e-06
4.72451e-06
0.000107492
2.42527e-05
2.11772e-05
4.20923e-07
1.06494e-07
3.14351e-07
2.74101e-07
2.09454e-07
1.39969e-05
0.000419987
0.00630988
0.0497139
0.0104542
0.00349499
0.000606183
9.64046e-05
0.000141365
0.000188747
0.000171326
8.35012e-05
1.0637e-05
1.19636e-06
8.1176e-07
2.37827e-05
3.66654e-06
5.56053e-06
4.0976e-08
8.36904e-10
4.05774e-08
4.28634e-08
4.3716e-08
7.13573e-06
0.000276029
0.00300099
0.0428554
0.00307432
0.000634341
0.00017025
2.89288e-05
4.79829e-05
3.52342e-05
4.07388e-05
3.60189e-05
2.06547e-06
5.72005e-07
2.87207e-07
6.5916e-06
1.13709e-06
1.43146e-06
7.65912e-09
8.34673e-10
9.91613e-09
9.00362e-09
1.90516e-08
1.24191e-05
0.000177277
0.00118034
0.0165485
0.000857156
0.000298854
4.6752e-05
3.73754e-06
3.05243e-06
2.35105e-06
2.56768e-06
2.44937e-06
1.67793e-07
8.88096e-08
2.73868e-07
9.16074e-07
2.29803e-07
3.31157e-07
3.24664e-09
2.83555e-10
1.43218e-09
9.41915e-10
1.06721e-08
4.28762e-07
7.80035e-06
7.28283e-05
0.00138549
4.42968e-05
2.36202e-05
8.41777e-06
1.63472e-07
8.73173e-08
5.921e-08
5.06099e-08
4.50359e-08
2.40231e-08
9.09236e-09
4.48702e-08
1.02392e-07
4.76222e-08
7.66223e-08
2.0803e-09
3.75293e-11
1.72873e-10
1.98714e-10
5.9552e-09
1.50149e-08
2.00824e-07
2.06352e-05
0.000120725
9.6088e-07
2.29008e-07
5.79686e-07
2.71837e-08
1.06674e-08
5.64849e-09
4.1947e-09
4.02909e-09
2.26661e-09
1.55257e-09
5.28815e-09
5.86409e-10
1.71224e-09
1.65741e-08
1.25818e-09
8.59623e-12
1.44756e-11
2.06913e-11
1.24895e-10
1.18948e-09
4.51877e-09
1.05964e-08
3.5664e-08
3.29169e-09
4.52509e-09
7.97554e-09
1.09002e-08
3.70517e-09
1.28719e-09
5.29411e-10
3.5206e-10
1.54474e-10
2.00742e-10
5.65104e-10
6.03506e-11
2.10254e-10
3.76096e-09
4.05316e-10
1.4207e-12
1.7133e-12
2.37838e-12
1.14265e-11
2.60695e-11
2.27974e-11
4.74559e-11
1.26569e-10
1.51647e-10
3.25163e-10
4.78385e-10
5.54666e-10
5.63561e-10
2.30526e-10
6.55565e-11
2.85545e-11
1.22324e-11
1.72771e-11
3.13219e-11
5.59597e-12
7.36583e-12
9.36701e-12
1.61759e-13
1.06526e-13
6.02851e-14
5.42344e-13
2.6566e-12
8.84953e-12
4.0587e-12
1.70453e-12
5.76078e-12
7.92644e-12
1.43911e-11
1.99857e-11
1.82013e-11
1.59447e-11
7.10954e-12
3.87879e-12
7.5695e-13
5.96523e-13
1.03606e-12
3.40211e-12
7.18592e-13
8.83182e-14
2.06668e-13
1.83187e-14
1.93179e-14
1.62093e-14
4.64073e-14
2.88103e-13
9.98035e-13
1.12604e-12
3.56382e-14
3.2474e-14
1.2268e-13
1.99951e-13
3.88078e-13
8.46601e-13
1.46466e-12
4.76785e-13
4.10061e-13
4.17444e-14
4.10227e-14
1.90681e-13
3.81639e-13
1.16296e-13
0
9.9365e-15
9.99201e-15
1.16573e-14
1.10467e-14
1.14908e-14
8.71525e-15
8.04912e-15
9.88098e-15
8.27116e-15
1.00475e-14
1.52656e-14
1.77636e-14
1.92624e-14
6.2339e-14
8.4821e-14
3.66929e-14
2.04836e-14
5.16254e-15
2.38698e-15
8.88178e-15
3.65818e-14
1.51545e-14
0
9.99201e-15
8.82627e-15
1.18794e-14
9.54792e-15
8.88178e-15
1.05471e-14
9.49241e-15
9.10383e-15
9.9365e-15
9.27036e-15
1.00475e-14
8.82627e-15
7.66054e-15
8.9373e-15
9.76996e-15
7.49401e-15
5.44009e-15
2.22045e-15
1.33227e-15
4.44089e-15
1.51545e-14
7.71605e-15
0
1.00475e-14
8.38218e-15
1.09912e-14
1.09357e-14
8.27116e-15
9.54792e-15
9.49241e-15
1.08802e-14
1.06581e-14
1.06581e-14
1.17684e-14
1.04916e-14
8.71525e-15
8.65974e-15
6.55032e-15
5.27356e-15
3.71925e-15
3.33067e-15
2.05391e-15
2.44249e-15
1.51545e-14
7.10543e-15
0
9.99201e-15
9.82547e-15
1.18794e-14
1.25455e-14
1.00475e-14
6.93889e-15
7.77156e-15
9.38138e-15
9.54792e-15
9.65894e-15
1.09912e-14
1.12133e-14
9.4369e-15
1.03251e-14
8.43769e-15
4.77396e-15
5.44009e-15
4.77396e-15
5.77316e-15
2.10942e-15
1.24345e-14
8.32667e-15
0
8.60423e-15
1.07137e-14
1.09912e-14
1.38223e-14
1.19349e-14
7.71605e-15
6.88338e-15
1.09357e-14
1.02141e-14
1.08802e-14
1.249e-14
9.99201e-15
7.82707e-15
9.9365e-15
7.71605e-15
4.38538e-15
3.88578e-15
5.21805e-15
5.71765e-15
1.72085e-15
1.17684e-14
6.71685e-15
0
9.88098e-15
9.04832e-15
1.03251e-14
1.20459e-14
1.04916e-14
5.66214e-15
8.38218e-15
9.65894e-15
9.10383e-15
1.14908e-14
1.17129e-14
1.03251e-14
9.15934e-15
9.9365e-15
9.60343e-15
5.77316e-15
5.93969e-15
4.4964e-15
3.10862e-15
1.60982e-15
1.16018e-14
8.71525e-15
0
1.08247e-14
8.77076e-15
1.16018e-14
1.12133e-14
1.16573e-14
9.04832e-15
6.93889e-15
1.07137e-14
8.38218e-15
9.65894e-15
1.16018e-14
1.15463e-14
1.14908e-14
1.10467e-14
1.28786e-14
6.38378e-15
6.38378e-15
2.22045e-15
2.498e-15
7.21645e-16
1.25455e-14
6.66134e-15
0
1.18794e-14
8.88178e-15
8.38218e-15
9.38138e-15
1.10467e-14
9.71445e-15
6.77236e-15
9.9365e-15
1.07692e-14
1.06026e-14
1.27676e-14
1.17684e-14
1.20459e-14
1.10467e-14
1.15463e-14
9.65894e-15
7.93809e-15
6.10623e-15
2.66454e-15
8.88178e-16
1.08802e-14
6.55032e-15
0
1.04361e-14
8.43769e-15
7.88258e-15
8.10463e-15
1.12688e-14
1.03806e-14
6.16174e-15
1.18239e-14
1.05471e-14
1.08247e-14
1.07692e-14
9.76996e-15
1.249e-14
1.00475e-14
1.19904e-14
9.4369e-15
7.49401e-15
4.88498e-15
4.88498e-15
1.38778e-15
1.07692e-14
2.66454e-15
0
8.82627e-15
8.99281e-15
8.71525e-15
7.60503e-15
1.01585e-14
1.19349e-14
7.32747e-15
1.22125e-14
9.71445e-15
1.22125e-14
7.71605e-15
1.15463e-14
1.05471e-14
1.13243e-14
1.11022e-14
9.88098e-15
5.10703e-15
4.44089e-15
1.88738e-15
8.88178e-16
1.04361e-14
1.44329e-15
0
6.16174e-15
6.88338e-15
9.04832e-15
5.05151e-15
1.13243e-14
1.03251e-14
6.43929e-15
1.19904e-14
9.65894e-15
1.10467e-14
8.32667e-15
8.54872e-15
7.88258e-15
1.15463e-14
9.27036e-15
1.09912e-14
9.21485e-15
5.93969e-15
2.60902e-15
8.88178e-16
1.54876e-14
4.996e-16
0
4.32987e-15
5.82867e-15
6.27276e-15
6.77236e-15
1.04916e-14
7.71605e-15
6.77236e-15
1.05471e-14
8.49321e-15
1.03251e-14
9.27036e-15
6.99441e-15
4.60743e-15
1.06026e-14
9.38138e-15
1.06026e-14
9.10383e-15
6.43929e-15
2.10942e-15
6.10623e-16
1.52101e-14
0
0
4.94049e-15
5.21805e-15
6.27276e-15
9.49241e-15
9.27036e-15
5.21805e-15
6.05072e-15
6.10623e-15
1.0103e-14
1.00475e-14
4.88498e-15
2.05391e-15
4.77396e-15
8.38218e-15
5.32907e-15
1.11022e-14
8.21565e-15
6.82787e-15
3.44169e-15
7.77156e-16
1.04361e-14
0
0
6.88338e-15
2.94209e-15
6.88338e-15
9.60343e-15
5.4956e-15
3.38618e-15
5.44009e-15
5.4956e-15
6.4948e-15
5.88418e-15
3.21965e-15
6.66134e-16
2.55351e-15
5.38458e-15
4.44089e-15
6.43929e-15
5.10703e-15
7.49401e-15
3.4972e-15
8.32667e-16
1.09912e-14
0
0
8.43769e-15
7.32747e-15
5.55112e-15
7.38298e-15
5.9952e-15
1.16573e-15
3.4972e-15
3.21965e-15
5.05151e-15
5.38458e-15
4.44089e-15
4.16334e-15
3.05311e-15
3.77476e-15
4.82947e-15
4.10783e-15
4.05231e-15
5.77316e-15
3.38618e-15
1.11022e-15
1.32672e-14
0
0
1.2601e-14
8.27116e-15
4.27436e-15
7.93809e-15
5.05151e-15
1.33227e-15
2.27596e-15
1.88738e-15
3.66374e-15
3.71925e-15
3.77476e-15
6.55032e-15
3.88578e-15
5.60663e-15
3.60822e-15
4.82947e-15
3.4972e-15
4.66294e-15
3.38618e-15
2.27596e-15
1.11022e-14
0
0
1.43774e-14
8.88178e-15
6.38378e-15
1.00475e-14
4.4964e-15
2.94209e-15
5.27356e-15
3.77476e-15
6.16174e-15
3.38618e-15
5.4956e-15
9.38138e-15
6.43929e-15
7.27196e-15
4.44089e-15
8.16014e-15
6.93889e-15
4.94049e-15
5.27356e-15
2.83107e-15
8.99281e-15
0
4.996e-16
1.82077e-14
1.36557e-14
1.15463e-14
1.46549e-14
6.10623e-15
3.55271e-15
7.88258e-15
4.88498e-15
7.82707e-15
3.4972e-15
3.66374e-15
1.09357e-14
8.77076e-15
7.66054e-15
8.77076e-15
1.01585e-14
8.60423e-15
5.9952e-15
8.71525e-15
7.99361e-15
6.4948e-15
0
5.21805e-15
2.09277e-14
1.65423e-14
1.39888e-14
1.67644e-14
7.43849e-15
7.43849e-15
8.77076e-15
9.04832e-15
1.04916e-14
9.27036e-15
7.77156e-15
1.33227e-14
1.07137e-14
1.04361e-14
1.33227e-14
1.45439e-14
1.20459e-14
1.37113e-14
8.71525e-15
1.32117e-14
0
0
8.54872e-15
2.38698e-14
1.79301e-14
1.62648e-14
1.64313e-14
9.71445e-15
1.06581e-14
1.03806e-14
1.13243e-14
1.26565e-14
9.65894e-15
1.06581e-14
1.2601e-14
1.2379e-14
1.18239e-14
1.37668e-14
1.50435e-14
1.58762e-14
1.44329e-14
1.23235e-14
1.4988e-14
0
0.970367
0.967197
0.845681
0.112587
0.959606
0.962122
0.928294
0.86234
0.912361
0.939215
0.940611
0.93978
0.809767
0.830447
0.853815
0.87978
0.550158
0.568352
0.601176
0.669041
0.28728
0.301253
0.332447
0.389691
0.0845862
0.0997283
0.125234
0.157142
0.0208471
0.0275935
0.04033
0.0630598
0.00707986
0.0117359
0.0188112
0.033328
0.00397335
0.0101594
0.0229939
0.0549854
0.00231803
0.00549538
0.0104787
0.0362947
0.000235392
0.000446415
0.00227484
0.0098545
3.57112e-05
0.000170208
0.000562077
0.00149097
3.06659e-06
1.09392e-05
3.04357e-05
6.76233e-05
2.15481e-07
4.19708e-07
5.60298e-07
1.01675e-06
3.27848e-08
5.20437e-08
1.05138e-07
1.5442e-07
9.84961e-09
1.18393e-08
2.06682e-08
4.05666e-08
2.06011e-09
2.23215e-09
3.30164e-09
6.94973e-09
2.8392e-10
4.8563e-10
6.19287e-10
9.84895e-10
3.56493e-11
4.51164e-11
5.62725e-11
4.37451e-11
4.33664e-12
2.81891e-12
5.36249e-12
5.86808e-12
3.76865e-13
4.53859e-13
8.42659e-13
1.05171e-12
4.59632e-14
7.74381e-14
1.38334e-13
1.73805e-13
7.32747e-15
4.05231e-15
1.21014e-14
1.69864e-14
5.82867e-15
2.38698e-15
4.27436e-15
5.9952e-15
5.4956e-15
1.27676e-15
4.77396e-15
6.77236e-15
5.44009e-15
8.32667e-16
6.38378e-15
7.16094e-15
3.71925e-15
1.83187e-15
5.82867e-15
7.16094e-15
3.77476e-15
0
5.71765e-15
2.16493e-15
4.27436e-15
0
4.05231e-15
2.16493e-15
3.38618e-15
0
2.88658e-15
4.05231e-15
3.71925e-15
0
2.94209e-15
5.21805e-15
1.05471e-15
0
4.996e-15
4.32987e-15
5.10703e-15
0
5.16254e-15
5.55112e-15
3.60822e-15
0
8.21565e-15
4.32987e-15
2.72005e-15
0
3.60822e-15
2.9976e-15
5.82867e-15
0
3.33067e-16
3.77476e-15
5.9952e-15
0
1.05471e-15
4.38538e-15
5.27356e-15
0
3.33067e-16
8.10463e-15
5.77316e-15
3.16414e-15
5.93969e-15
8.71525e-15
6.66134e-16
0
7.43849e-15
3.77476e-15
7.77156e-16
0
0
0
0.118492
0.158151
0.182208
0.519548
0.31737
0.15206
0.27432
0.265771
0.326907
0.362435
0.498639
0.685156
0.782106
0.78989
0.739577
0.686787
0.693978
0.68464
0.515004
0.849334
0.839562
0.817327
0.856019
0.771621
0.790814
0.804704
0.797942
0.789775
0.760339
0.790533
0.811154
0.811155
0.804078
0.728834
0.611367
0.649218
0.666607
0.55142
0.93438
0.923227
0.926448
0.930793
0.927653
0.92415
0.915486
0.909889
0.907579
0.889145
0.841991
0.721144
0.688782
0.697785
0.715734
0.669428
0.60357
0.629341
0.54702
0.907864
0.927937
0.937167
0.934731
0.922037
0.862676
0.747748
0.712701
0.601972
0.576926
0.508226
0.408973
0.394507
0.388824
0.458271
0.516829
0.499034
0.576604
0.52965
0.812364
0.889133
0.909664
0.893751
0.825978
0.631858
0.401766
0.365706
0.283761
0.283428
0.239179
0.215107
0.190739
0.182041
0.212918
0.321893
0.369394
0.526279
0.506151
0.576361
0.7111
0.807094
0.804262
0.758182
0.535971
0.221768
0.196816
0.17786
0.181809
0.168258
0.135875
0.0995863
0.0918742
0.108628
0.194708
0.27105
0.483591
0.488854
0.248728
0.39335
0.548542
0.610277
0.540135
0.273665
0.128936
0.123871
0.124659
0.122217
0.103995
0.0750314
0.0538601
0.0435427
0.0651451
0.116685
0.209895
0.437005
0.475167
0.166848
0.325863
0.360879
0.350472
0.268555
0.132869
0.0759111
0.0806605
0.0889709
0.0811502
0.0437036
0.0274866
0.0233431
0.0253221
0.0328653
0.0533724
0.130963
0.382838
0.46332
0.120505
0.232676
0.202012
0.11111
0.0832129
0.0651595
0.0369861
0.0374626
0.0530918
0.0554319
0.0231063
0.0092573
0.00872447
0.0135568
0.0151725
0.0252963
0.127808
0.384559
0.457246
0.103706
0.128431
0.114346
0.0736829
0.0445131
0.020295
0.00830472
0.00725703
0.0215313
0.0438354
0.0348696
0.0107943
0.00430798
0.00656086
0.00743113
0.0276365
0.142255
0.392364
0.453679
0.0543879
0.0502566
0.0394719
0.0311625
0.015597
0.00349982
0.00126276
0.00154354
0.00863956
0.0166269
0.0161764
0.00596062
0.00258716
0.00455353
0.0121712
0.0516725
0.174449
0.397308
0.450052
0.0178629
0.0149774
0.00580977
0.00573725
0.00254754
0.000564624
0.000276637
0.000486117
0.00275593
0.00359472
0.00323017
0.00208051
0.00161044
0.00725833
0.027967
0.0909526
0.23307
0.399116
0.445959
0.00268074
0.00275303
0.000636631
0.00038055
0.000147658
6.2632e-05
9.41484e-05
0.000258078
0.000779283
0.00110155
0.00088213
0.000731012
0.00110598
0.00577786
0.0269378
0.10022
0.260519
0.400113
0.440984
0.000123694
0.000275199
4.4353e-05
1.7054e-05
1.48017e-05
2.00798e-05
5.01345e-05
0.000152061
0.000368162
0.000522983
0.000551915
0.000750932
0.000905495
0.00259071
0.0139953
0.0770705
0.232829
0.395041
0.434654
2.61861e-06
1.31805e-05
1.70065e-06
2.48354e-06
5.47065e-06
9.43125e-06
2.65347e-05
8.37421e-05
0.00023412
0.000437056
0.000637997
0.00107746
0.00148043
0.00154246
0.00381589
0.0331513
0.130114
0.33972
0.424193
2.05115e-07
3.43313e-07
7.36478e-07
1.19126e-06
2.80532e-06
3.91822e-06
1.06176e-05
3.78517e-05
0.000140384
0.0003559
0.000564911
0.00100262
0.00255411
0.00167491
0.00242264
0.0130759
0.05037
0.199619
0.407928
7.28489e-08
1.39062e-07
2.89182e-07
4.14252e-07
8.18015e-07
7.15379e-07
2.36733e-06
8.48492e-06
3.72548e-05
0.000154359
0.00026721
0.000496993
0.00213786
0.0020624
0.00238015
0.00817292
0.0301168
0.141697
0.400183
1.44696e-08
2.55928e-08
5.66971e-08
7.08238e-08
1.82781e-07
2.99974e-07
8.98325e-07
3.3493e-06
9.23857e-06
3.36507e-05
6.66071e-05
0.000198707
0.00120011
0.0026011
0.0025714
0.00752015
0.027688
0.123359
0.391399
2.69719e-09
4.65184e-09
4.88663e-09
1.70649e-08
6.89438e-08
1.99636e-07
7.74211e-07
2.40156e-06
4.70973e-06
1.21294e-05
2.50382e-05
7.41581e-05
0.000872656
0.00261359
0.00291981
0.0083373
0.0288815
0.101427
0.378317
7.30883e-11
3.33867e-10
8.7159e-10
5.24271e-09
2.52524e-08
9.33678e-08
3.17071e-07
9.0319e-07
1.86368e-06
5.14579e-06
1.25842e-05
5.52031e-05
0.000344402
0.00216697
0.00323542
0.00909336
0.0288793
0.0913409
0.361178
1.62054e-11
5.16405e-11
2.08607e-10
7.84463e-10
4.45072e-09
3.39481e-08
1.23118e-07
3.10245e-07
7.93568e-07
2.21476e-06
7.94747e-06
3.33514e-05
0.000322394
0.00147158
0.00324258
0.00839543
0.0249615
0.0805812
0.344348
1.88516e-12
7.32892e-12
4.63939e-11
2.25852e-10
9.43266e-10
3.63048e-09
1.30711e-08
5.71573e-08
2.33964e-07
5.30063e-07
1.73945e-06
7.66778e-06
8.6981e-05
0.000994338
0.00321544
0.00630316
0.0174808
0.0674353
0.328476
2.47413e-13
1.32694e-12
8.31857e-12
4.04978e-11
2.15497e-10
7.16488e-10
1.72322e-09
9.77518e-09
4.4856e-08
8.35271e-08
4.42293e-07
5.20154e-06
7.45715e-05
0.000630866
0.00305428
0.0053354
0.0156638
0.0733702
0.312123
3.67484e-14
2.6551e-13
1.21447e-12
3.53995e-12
1.98382e-11
7.52633e-11
2.93398e-10
1.73719e-09
8.65599e-09
6.95863e-08
1.23049e-06
1.81148e-05
0.000124158
0.00067711
0.00284032
0.00493798
0.015441
0.0795677
0.293081
5.55112e-15
2.88103e-14
1.18849e-13
8.748e-13
5.53563e-12
1.99074e-11
7.0856e-11
3.48378e-10
2.00597e-09
1.53947e-08
2.50221e-07
4.54232e-06
6.04243e-05
0.00052259
0.00233521
0.00456425
0.0155591
0.0773377
0.268396
4.44089e-16
1.23235e-14
2.04281e-14
1.12965e-13
7.56784e-13
4.28546e-12
2.72524e-11
2.08103e-10
1.88228e-09
3.50412e-08
3.62298e-07
1.68634e-06
1.12393e-05
0.00019178
0.00131375
0.00328749
0.0108681
0.0596105
0.234994
3.10862e-15
8.65974e-15
7.27196e-15
2.29261e-14
1.42886e-13
8.58758e-13
7.20007e-12
1.03955e-10
1.85494e-09
4.85888e-08
1.02658e-06
5.2914e-06
2.50788e-05
4.29804e-05
0.00050936
0.00198518
0.0060307
0.0319556
0.191747
3.16414e-15
7.88258e-15
6.77236e-15
7.82707e-15
1.90958e-14
1.73472e-13
2.713e-12
9.16631e-11
1.83039e-09
3.13404e-08
9.46334e-07
6.85494e-06
3.5526e-05
4.44658e-05
0.000141509
0.000841052
0.00337315
0.00934157
0.14249
3.4972e-15
8.54872e-15
6.4948e-15
6.4948e-15
8.38218e-15
1.07192e-13
2.37327e-12
1.10569e-10
2.91073e-09
2.91734e-08
4.91254e-07
4.84935e-06
2.33309e-05
0.000168586
6.85726e-05
0.000244762
0.00234832
0.00109638
0.0990175
1.9984e-15
8.49321e-15
7.38298e-15
5.16254e-15
2.77556e-15
4.54081e-14
2.10104e-12
9.98532e-11
1.62371e-09
3.33845e-08
3.31096e-07
2.07292e-06
6.78312e-06
0.000118565
9.7456e-05
0.000120493
0.00156912
0.000707386
0.0733075
2.66454e-15
8.10463e-15
7.49401e-15
6.27276e-15
3.94129e-15
8.29892e-14
2.95308e-12
6.04765e-11
2.45531e-09
1.77934e-08
1.95301e-07
3.45203e-06
1.19091e-05
5.49304e-05
0.000149695
0.000141507
0.00120158
0.000595563
0.0609218
9.99201e-16
6.21725e-15
2.10942e-15
6.21725e-15
1.78746e-14
3.63154e-13
9.98729e-12
1.96972e-10
7.84527e-09
4.17376e-08
3.41102e-07
7.78267e-06
4.91549e-05
8.92667e-05
0.000165216
0.000176723
0.000856322
0.000610346
0.0551995
0
6.38378e-15
2.05391e-15
7.10543e-15
5.56777e-14
1.38251e-12
3.07603e-11
4.12168e-10
1.73664e-08
1.13138e-07
1.00147e-06
2.28221e-05
0.00030953
0.000484599
0.000310636
0.000251939
0.000606687
0.00231614
0.0532433
0
5.82867e-15
2.27596e-15
1.2379e-14
9.05942e-14
2.18714e-12
4.31741e-11
8.11982e-10
2.45156e-08
2.86324e-07
1.85468e-06
3.01493e-05
0.000450885
0.000920322
0.000619346
0.000332696
0.000512332
0.00413714
0.0509131
1.66533e-16
7.32747e-15
6.55032e-15
1.02141e-14
2.32037e-14
7.22977e-13
4.14506e-11
1.10013e-09
2.95722e-08
4.09414e-07
4.07257e-06
3.14267e-05
0.00033109
0.00118088
0.000697386
0.000473235
0.00128906
0.019708
0.0478404
1.11022e-16
7.38298e-15
7.04992e-15
1.09912e-14
5.70655e-14
1.51085e-12
7.22781e-11
1.43076e-09
2.99204e-08
4.40061e-07
5.70122e-06
3.86173e-05
0.000281975
0.00115508
0.000715154
0.000501847
0.00118398
0.0166444
0.0439526
0
8.43769e-15
6.88338e-15
7.82707e-15
7.54952e-15
3.24463e-12
5.203e-11
1.93392e-09
6.82218e-08
5.69993e-07
5.04309e-06
3.88007e-05
0.000418159
0.00129738
0.000732642
0.00051507
0.00104915
0.0127837
0.0393935
2.22045e-16
8.27116e-15
7.10543e-15
7.32747e-15
7.71605e-15
2.25375e-14
9.29312e-13
6.38134e-11
1.45888e-09
3.69408e-08
1.17208e-06
2.12286e-05
0.000246623
0.001223
0.000790027
0.00052609
0.000837955
0.00894271
0.0348848
1.94289e-15
6.21725e-15
3.9968e-15
4.32987e-15
8.21565e-15
7.84928e-14
2.01766e-12
5.08412e-11
7.73424e-10
2.38552e-08
7.75281e-07
1.22983e-05
0.000102839
0.000673452
0.000984165
0.000603054
0.000724198
0.00649676
0.0304746
7.16094e-15
9.21485e-15
6.66134e-16
4.4964e-15
4.77396e-15
9.4369e-15
4.62352e-13
1.34196e-11
3.61996e-10
1.81855e-08
4.89145e-07
3.40046e-06
2.33114e-05
0.000185627
0.00151599
0.000810424
0.000747162
0.00459543
0.0253434
1.34337e-14
6.55032e-15
0
9.99201e-16
2.10942e-15
2.22045e-16
3.16414e-15
1.4182e-12
1.63506e-11
4.18112e-10
2.60796e-08
1.46288e-07
1.74787e-06
1.52365e-05
0.00097427
0.00107182
0.000989648
0.00330857
0.0208408
6.77236e-15
8.27116e-15
0
5.32907e-15
6.05072e-15
2.44249e-15
2.33147e-15
3.33067e-15
2.16438e-13
7.91545e-12
5.68125e-11
1.65697e-09
1.50517e-08
3.0471e-07
3.41437e-05
0.000712342
0.000941706
0.00165261
0.0121566
)
;

boundaryField
{
    leftWall
    {
        type            zeroGradient;
    }
    rightWall
    {
        type            zeroGradient;
    }
    lowerWall
    {
        type            zeroGradient;
    }
    atmosphere
    {
        type            inletOutlet;
        inletValue      uniform 0;
        value           nonuniform List<scalar> 
46
(
0
8.54872e-15
2.38698e-14
1.79301e-14
1.62648e-14
1.64313e-14
9.71445e-15
1.06581e-14
1.03806e-14
1.13243e-14
1.26565e-14
9.65894e-15
1.06581e-14
1.2601e-14
1.2379e-14
1.18239e-14
1.37668e-14
1.50435e-14
1.58762e-14
1.44329e-14
1.23235e-14
1.4988e-14
0
7.77156e-16
0
0
0
6.77236e-15
8.27116e-15
0
5.32907e-15
6.05072e-15
2.44249e-15
2.33147e-15
3.33067e-15
2.16438e-13
7.91545e-12
5.68125e-11
1.65697e-09
1.50517e-08
3.0471e-07
3.41437e-05
0.000712342
0.000941706
0.00165261
0.0121566
)
;
    }
    defaultFaces
    {
        type            empty;
    }
}


// ************************************************************************* //
