/*--------------------------------*- C++ -*----------------------------------*\
| =========                 |                                                 |
| \\      /  F ield         | foam-extend: Open Source CFD                    |
|  \\    /   O peration     | Version:     4.1                                |
|   \\  /    A nd           | Web:         http://www.foam-extend.org         |
|    \\/     M anipulation  |                                                 |
\*---------------------------------------------------------------------------*/
FoamFile
{
    version     2.0;
    format      ascii;
    class       volScalarField;
    location    "0.5";
    object      C;
}
// * * * * * * * * * * * * * * * * * * * * * * * * * * * * * * * * * * * * * //

dimensions      [0 0 0 0 0 0 0];

internalField   nonuniform List<scalar> 
2268
(
1
1
1
1
0.999999
0.999993
0.999998
0.999973
0.999985
0.99975
0.999843
0.99989
0.999932
0.999958
0.999977
0.999989
0.999996
0.999998
0.999994
0.999888
0.999313
0.970661
0.107977
1
1
1
0.999998
0.999975
0.999866
0.999956
0.999631
0.99981
0.99866
0.999309
0.999377
0.999461
0.999573
0.999797
0.9999
0.999973
0.99998
0.99998
0.999952
0.9998
0.994577
0.978263
1
0.999998
0.999997
0.999973
0.999703
0.998848
0.999547
0.99774
0.99887
0.996578
0.994924
0.994711
0.995268
0.997099
0.999184
0.999763
0.999934
0.999924
0.999902
0.999799
0.998345
0.989675
0.974408
0.999999
0.999966
0.99995
0.999684
0.997638
0.993992
0.997183
0.990673
0.99542
0.989019
0.982163
0.964509
0.979036
0.988703
0.994414
0.99776
0.998882
0.999365
0.999603
0.999634
0.998864
0.990957
0.970376
0.999985
0.999634
0.999418
0.997374
0.986358
0.97892
0.986345
0.97101
0.984277
0.967199
0.924147
0.933995
0.96035
0.963395
0.975152
0.988785
0.994081
0.997127
0.998086
0.999206
0.998646
0.991276
0.966929
0.999818
0.99719
0.994984
0.984016
0.944521
0.935216
0.933505
0.931594
0.922286
0.897295
0.843043
0.875876
0.89787
0.921399
0.940491
0.968014
0.98048
0.989185
0.991139
0.995774
0.997301
0.991161
0.960073
0.998514
0.982843
0.967695
0.928662
0.834921
0.821547
0.799986
0.806221
0.7481
0.686401
0.730737
0.753214
0.800868
0.87552
0.8893
0.934544
0.952223
0.968293
0.969292
0.980276
0.993016
0.989866
0.961245
0.991254
0.913493
0.852227
0.772165
0.623383
0.59197
0.497002
0.524084
0.443228
0.476262
0.542207
0.601968
0.728148
0.793008
0.829254
0.89734
0.903871
0.910107
0.904875
0.926698
0.969728
0.984932
0.962774
-0.594857
-0.480955
-0.460354
-0.452375
-0.447559
-0.414545
-0.35314
-0.311891
-0.188461
-0.0616132
0.0207928
0.0697394
0.117679
0.00153315
-0.167018
-0.2731
-0.610311
-0.67302
-0.608465
-0.659035
-0.68925
-0.809473
-0.858815
-0.843902
-0.655896
-0.452821
-0.305417
-0.153794
0.0136991
0.116565
0.172584
0.31832
0.343143
0.335863
0.24685
-0.273667
-0.655597
-0.483716
-0.754727
-0.880567
-0.967531
-0.989957
-0.930452
-0.644093
-0.409098
-0.29935
-0.165206
-0.088837
-0.158464
0.0380547
0.257992
0.350922
0.401028
0.386649
0.146537
-0.401722
-0.428272
-0.833683
-0.940581
-0.989618
-0.994908
-0.99417
-0.907797
-0.729387
-0.669984
-0.349294
-0.241984
-0.118985
-0.138654
0.172315
0.335972
0.405989
0.409756
0.311923
-0.209088
-0.367832
-0.883194
-0.964926
-0.9863
-0.98801
-0.992895
-0.987096
-0.954515
-0.845257
-0.54502
-0.429747
-0.379701
-0.225968
0.123037
0.406727
0.425572
0.420853
0.381927
0.0281551
-0.303459
-0.922334
-0.972567
-0.982765
-0.966693
-0.979885
-0.986308
-0.957217
-0.926536
-0.643838
-0.55641
-0.44815
-0.341256
0.191066
0.464949
0.458477
0.436306
0.408497
0.223602
-0.192136
-0.951272
-0.977117
-0.972685
-0.917973
-0.943953
-0.976283
-0.90329
-0.651407
0.131184
-0.438221
-0.341394
-0.109179
0.406913
0.529639
0.482946
0.446048
0.423069
0.301983
-0.110163
-0.977521
-0.967454
-0.928959
-0.769678
-0.84479
-0.963213
-0.902387
-0.720155
0.0562117
-0.016118
0.13342
0.31975
0.525386
0.554763
0.496927
0.42961
0.416363
0.34024
-0.0682137
0.946076
0.476051
0.352252
0.322866
0.181789
0.0880818
-0.0565378
-0.0510827
-0.125401
-0.0712693
0.0511307
0.245575
0.481812
0.646854
0.708393
0.718836
0.703232
0.666046
0.621627
0.592029
0.674023
0.87426
0.947163
0.616841
-0.393158
-0.514208
-0.480425
-0.457889
-0.49494
-0.630016
-0.640672
-0.695871
-0.659518
-0.431869
0.0236305
0.28033
0.416465
0.426354
0.373204
0.310472
0.209577
0.135112
0.120937
0.224748
0.648969
0.877314
0.308521
-0.619898
-0.844601
-0.849777
-0.745996
-0.74526
-0.828865
-0.828022
-0.871279
-0.884272
-0.821903
-0.59903
-0.362653
-0.126008
0.0945503
0.150311
0.137075
0.113912
0.0383758
-0.0328724
0.0593988
0.373394
0.727779
0.176016
-0.579116
-0.89342
-0.935748
-0.86121
-0.864678
-0.892554
-0.896953
-0.930809
-0.950554
-0.954403
-0.861037
-0.692336
-0.53846
-0.261525
-0.174032
-0.0575861
-0.00632772
-0.0380982
-0.113748
-0.0653607
0.139849
0.495029
0.256467
-0.477395
-0.905948
-0.954785
-0.93051
-0.920512
-0.924196
-0.936801
-0.95883
-0.972932
-0.970465
-0.959095
-0.869645
-0.844576
-0.750574
-0.68459
-0.516324
-0.263567
-0.13017
-0.16808
-0.168518
-0.107967
0.00253975
0.162078
-0.569454
-0.937999
-0.970036
-0.955942
-0.94982
-0.948912
-0.962579
-0.974815
-0.984465
-0.971183
-0.978617
-0.952613
-0.90944
-0.801559
-0.546982
-0.319437
-0.455225
-0.311351
-0.348492
-0.433911
-0.439236
-0.439864
-0.597292
-0.944766
-0.979415
-0.980696
-0.970053
-0.972736
-0.973085
-0.98311
-0.987472
-0.989704
-0.965997
-0.987148
-0.973796
-0.953933
-0.85186
-0.550122
-0.579804
-0.837892
-0.77069
-0.760832
-0.83609
-0.858604
-0.852965
-0.961103
-0.969808
-0.986859
-0.989626
-0.982614
-0.988998
-0.987087
-0.992703
-0.99512
-0.989704
-0.960087
-0.989584
-0.988011
-0.980487
-0.917741
-0.740373
-0.733029
-0.893799
-0.961752
-0.952903
-0.970847
-0.973262
-0.96898
-0.98987
-0.992005
-0.996059
-0.99533
-0.991401
-0.99534
-0.99561
-0.99648
-0.996151
-0.987064
-0.957922
-0.988233
-0.994457
-0.992278
-0.957582
-0.906648
-0.931022
-0.971499
-0.989024
-0.989614
-0.990432
-0.991273
-0.99102
-0.994778
-0.996459
-0.998247
-0.998096
-0.997059
-0.998008
-0.998541
-0.998462
-0.996623
-0.988106
-0.957816
-0.979426
-0.997543
-0.995733
-0.979433
-0.978888
-0.997025
-0.996281
-0.994936
-0.995525
-0.995676
-0.996166
-0.996353
-0.997454
-0.998724
-0.999333
-0.999475
-0.99951
-0.999428
-0.999615
-0.999617
-0.998757
-0.995487
-0.958892
-0.964258
-0.998482
-0.996252
-0.991868
-0.99521
-0.997039
-0.997088
-0.998111
-0.998146
-0.998541
-0.998992
-0.999024
-0.998757
-0.999499
-0.999757
-0.999895
-0.999884
-0.999905
-0.999938
-0.999955
-0.999752
-0.998474
-0.967657
-0.940288
-0.994135
-0.998701
-0.997402
-0.998265
-0.998913
-0.998661
-0.998802
-0.999054
-0.999673
-0.999847
-0.999827
-0.999433
-0.999832
-0.999894
-0.999989
-0.999987
-0.99999
-0.999995
-0.999996
-0.999936
-0.998995
-0.980238
-0.919748
-0.982692
-0.997756
-0.999515
-0.999578
-0.999394
-0.999126
-0.999282
-0.999621
-0.999942
-0.999992
-0.999991
-0.999785
-0.999951
-0.999958
-0.999999
-1
-0.999999
-0.999999
-1
-0.999972
-0.99916
-0.98738
-0.900572
-0.979092
-0.99301
-0.998788
-0.999807
-0.999717
-0.999623
-0.999657
-0.999833
-0.999979
-0.999998
-0.999998
-0.999952
-0.999993
-0.999989
-1
-1
-1
-1
-1
-0.999986
-0.999448
-0.993998
-0.914289
-0.993851
-0.998731
-0.999659
-0.999942
-0.999904
-0.99993
-0.999919
-0.999928
-0.999996
-0.999999
-0.999999
-0.999987
-0.999998
-0.999997
-1
-1
-1
-1
-1
-0.999975
-0.999645
-0.997639
-0.966903
-0.998286
-0.999402
-0.999906
-0.999993
-0.999994
-0.999995
-0.999995
-0.999995
-1
-1
-0.999999
-0.999998
-1
-0.999999
-1
-1
-1
-1
-1
-0.999999
-0.999984
-0.999854
-0.997229
-0.999911
-0.999953
-0.999983
-1
-1
-1
-1
-1
-1
-1
-1
-1
-1
-1
-1
-1
-1
-1
-1
-1
-1
-0.999959
-0.999759
-0.999998
-1
-0.999999
-1
-1
-1
-1
-1
-1
-1
-1
-1
-1
-1
-1
-1
-1
-1
-1
-1
-1
-1
-1
-1
-1
-1
-1
-1
-1
-1
-1
-1
-1
-1
-1
-1
-1
-1
-1
-1
-1
-1
-1
-1
-1
-1
-1
-1
-1
-1
-1
-1
-1
-1
-1
-1
-1
-1
-1
-1
-1
-1
-1
-1
-1
-1
-1
-1
-1
-1
-1
-1
-1
-1
-1
-1
-1
-1
-1
-1
-1
-1
-1
-1
-1
-1
-1
-1
-1
-1
-1
-1
-1
-1
-1
-1
-1
-1
-1
-1
-1
-1
-1
-1
-1
-1
-1
-1
-1
-1
-1
-1
-1
-1
-1
-1
-1
-1
-1
-1
-1
-1
-1
-1
-1
-1
-1
-1
-1
-1
-1
-1
-1
-1
-1
-1
-1
-1
-1
-1
-1
-1
-1
-1
-1
-1
-1
-1
-1
-1
-1
-1
-1
-1
-1
-1
-1
-1
-1
-1
-1
-1
-1
-1
-1
-1
-1
-1
-1
-1
-1
-1
-1
-1
-1
-1
-1
-1
-1
-1
-1
-1
-1
-1
-1
-1
-1
-1
-1
-1
-1
-1
-1
-1
-1
-1
-1
-1
-1
-1
-1
-1
-1
-1
-1
-1
-1
-1
-1
-1
-1
-1
-1
-1
-1
-1
-1
-1
-1
-1
-1
-1
-1
-1
-1
-1
-1
-1
-1
-1
-1
-1
-1
-1
-1
-1
-1
-1
-1
-1
-1
-1
-1
-1
-1
-1
-1
-1
-1
-1
-1
-1
-1
-1
-1
-1
-1
-1
-1
-1
-1
-1
-1
-1
-1
-1
-1
-1
-1
-1
-1
-1
-1
-1
-1
-1
-1
-1
-1
-1
-1
-1
-1
-1
-1
-1
-1
-1
-1
-1
-1
-1
-1
-1
-1
-1
-1
-1
-1
-1
-1
-1
-1
-1
-1
-1
-1
-1
-1
-1
-1
-1
-1
-1
-1
-1
-1
-1
-1
-1
-1
-1
-1
-1
-1
-1
-1
-1
-1
-1
-1
-1
-1
-1
-1
-1
-1
-1
-1
-1
-1
-1
-1
-1
-1
-1
-1
-1
-1
-1
-1
-1
-1
-1
-1
-1
-1
-1
-1
-1
-1
-1
-1
-1
-1
-1
-1
-1
-1
-1
-1
-1
-1
-1
-1
-1
-1
-1
-1
-1
-1
-1
-1
-1
-1
-1
-1
-1
-1
-1
-1
-1
-1
-1
-1
-1
-1
-1
-1
-1
-1
-1
-1
-1
-1
-1
-1
-1
-1
-1
-1
-1
-1
-1
-1
-1
-1
-1
-1
-1
-1
-1
-1
-1
-1
-1
-1
-1
-1
-1
-1
-1
-1
-1
-1
-1
-1
-1
-1
-1
-1
-1
-1
-1
-1
-1
-1
-1
-1
-1
-1
-1
-1
-1
-1
-1
-1
-1
-1
-1
-1
-1
-1
-1
-1
-1
-1
-1
-1
-1
-1
-1
-1
-1
-1
-1
-1
-1
-1
-1
-1
-1
-1
-1
-1
-1
-1
-1
-1
-1
-1
-1
-1
-1
-1
-1
-1
-1
-1
-1
-1
-1
-1
-1
-1
-1
-1
-1
-1
-1
-1
-1
-1
-1
-1
-1
-1
-1
-1
-1
-1
-1
-1
-1
-1
-1
-1
-1
-1
-1
-1
-1
-1
-1
-1
-1
-1
-1
-1
-1
-1
-1
-1
-1
-1
-1
-1
-1
-1
-1
-1
-1
-1
-1
-1
-1
-1
-1
-1
-1
-1
-1
-1
0.940735
0.934393
0.691363
-0.774826
0.919212
0.924243
0.856588
0.72468
0.824722
0.87843
0.881222
0.879559
0.619534
0.660894
0.70763
0.759561
0.100316
0.136704
0.202353
0.338082
-0.42544
-0.397494
-0.335106
-0.220619
-0.830828
-0.800543
-0.749531
-0.685715
-0.958306
-0.944813
-0.91934
-0.87388
-0.98584
-0.976528
-0.962378
-0.933344
-0.992053
-0.979681
-0.954012
-0.890029
-0.995364
-0.989009
-0.979043
-0.927411
-0.999529
-0.999107
-0.99545
-0.980291
-0.999929
-0.99966
-0.998876
-0.997018
-0.999994
-0.999978
-0.999939
-0.999865
-1
-0.999999
-0.999999
-0.999998
-1
-1
-1
-1
-1
-1
-1
-1
-1
-1
-1
-1
-1
-1
-1
-1
-1
-1
-1
-1
-1
-1
-1
-1
-1
-1
-1
-1
-1
-1
-1
-1
-1
-1
-1
-1
-1
-1
-1
-1
-1
-1
-1
-1
-1
-1
-1
-1
-1
-1
-1
-1
-1
-1
-1
-1
-1
-1
-1
-1
-1
-1
-1
-1
-1
-1
-1
-1
-1
-1
-1
-1
-1
-1
-1
-1
-1
-1
-1
-1
-1
-1
-1
-1
-1
-1
-1
-1
-1
-1
-1
-1
-1
-1
-1
-1
-1
-1
-1
-1
-1
-1
-1
-1
-1
-1
-1
-1
-0.763017
-0.683698
-0.635585
0.039096
-0.365259
-0.69588
-0.451359
-0.468459
-0.346187
-0.275131
-0.00272167
0.370311
0.564212
0.57978
0.479154
0.373575
0.387955
0.369279
0.0300075
0.698668
0.679125
0.634655
0.712039
0.543242
0.581627
0.609409
0.595883
0.579549
0.520679
0.581066
0.622308
0.622309
0.608155
0.457669
0.222733
0.298436
0.333214
0.102839
0.868759
0.846454
0.852896
0.861585
0.855306
0.848299
0.830973
0.819779
0.815159
0.77829
0.683982
0.442287
0.377563
0.39557
0.431468
0.338857
0.20714
0.258681
0.0940396
0.815728
0.855875
0.874333
0.869462
0.844074
0.725352
0.495497
0.425401
0.203944
0.153851
0.0164523
-0.182055
-0.210987
-0.222352
-0.0834579
0.0336572
-0.0019314
0.153208
0.0592999
0.624728
0.778266
0.819327
0.787502
0.651956
0.263716
-0.196469
-0.268589
-0.432477
-0.433143
-0.521643
-0.569786
-0.618523
-0.635919
-0.574164
-0.356215
-0.261212
0.0525571
0.0123027
0.152722
0.4222
0.614188
0.608524
0.516364
0.071943
-0.556464
-0.606367
-0.644279
-0.636381
-0.663485
-0.72825
-0.800827
-0.816252
-0.782743
-0.610583
-0.457899
-0.032817
-0.0222917
-0.502544
-0.213301
0.0970847
0.220555
0.080269
-0.45267
-0.742128
-0.752257
-0.750681
-0.755565
-0.792009
-0.849937
-0.89228
-0.912915
-0.86971
-0.76663
-0.58021
-0.12599
-0.0496651
-0.666304
-0.348274
-0.278243
-0.299057
-0.462889
-0.734262
-0.848178
-0.838679
-0.822058
-0.8377
-0.912593
-0.945027
-0.953314
-0.949356
-0.934269
-0.893255
-0.738074
-0.234324
-0.0733604
-0.75899
-0.534648
-0.595977
-0.777781
-0.833574
-0.869681
-0.926028
-0.925075
-0.893816
-0.889136
-0.953787
-0.981485
-0.982551
-0.972886
-0.969655
-0.949407
-0.744384
-0.230882
-0.0855086
-0.792589
-0.743138
-0.771309
-0.852634
-0.910974
-0.95941
-0.983391
-0.985486
-0.956937
-0.912329
-0.930261
-0.978411
-0.991384
-0.986878
-0.985138
-0.944727
-0.715491
-0.215273
-0.0926421
-0.891224
-0.899487
-0.921056
-0.937675
-0.968806
-0.993
-0.997474
-0.996913
-0.982721
-0.966746
-0.967647
-0.988079
-0.994826
-0.990893
-0.975658
-0.896655
-0.651103
-0.205384
-0.0998966
-0.964274
-0.970045
-0.98838
-0.988526
-0.994905
-0.998871
-0.999447
-0.999028
-0.994488
-0.992811
-0.99354
-0.995839
-0.996779
-0.985483
-0.944066
-0.818095
-0.53386
-0.201768
-0.108082
-0.994639
-0.994494
-0.998727
-0.999239
-0.999705
-0.999875
-0.999812
-0.999484
-0.998441
-0.997797
-0.998236
-0.998538
-0.997788
-0.988444
-0.946124
-0.799561
-0.478962
-0.199775
-0.118031
-0.999753
-0.99945
-0.999911
-0.999966
-0.99997
-0.99996
-0.9999
-0.999696
-0.999264
-0.998954
-0.998896
-0.998498
-0.998189
-0.994819
-0.972009
-0.845859
-0.534342
-0.209918
-0.130692
-0.999995
-0.999974
-0.999997
-0.999995
-0.999989
-0.999981
-0.999947
-0.999833
-0.999532
-0.999126
-0.998724
-0.997845
-0.997039
-0.996915
-0.992368
-0.933697
-0.739772
-0.32056
-0.151613
-1
-0.999999
-0.999999
-0.999998
-0.999994
-0.999992
-0.999979
-0.999924
-0.999719
-0.999288
-0.99887
-0.997995
-0.994892
-0.99665
-0.995155
-0.973848
-0.89926
-0.600763
-0.184143
-1
-1
-0.999999
-0.999999
-0.999998
-0.999999
-0.999995
-0.999983
-0.999925
-0.999691
-0.999466
-0.999006
-0.995724
-0.995875
-0.99524
-0.983654
-0.939766
-0.716605
-0.199633
-1
-1
-1
-1
-1
-0.999999
-0.999998
-0.999993
-0.999982
-0.999933
-0.999867
-0.999603
-0.9976
-0.994798
-0.994857
-0.98496
-0.944624
-0.753281
-0.217202
-1
-1
-1
-1
-1
-1
-0.999998
-0.999995
-0.999991
-0.999976
-0.99995
-0.999852
-0.998255
-0.994773
-0.99416
-0.983325
-0.942237
-0.797146
-0.243366
-1
-1
-1
-1
-1
-1
-0.999999
-0.999998
-0.999996
-0.99999
-0.999975
-0.99989
-0.999311
-0.995666
-0.993529
-0.981813
-0.942241
-0.817318
-0.277645
-1
-1
-1
-1
-1
-1
-1
-0.999999
-0.999998
-0.999996
-0.999984
-0.999933
-0.999355
-0.997057
-0.993515
-0.983209
-0.950077
-0.838838
-0.311304
-1
-1
-1
-1
-1
-1
-1
-1
-1
-0.999999
-0.999997
-0.999985
-0.999826
-0.998011
-0.993569
-0.987394
-0.965038
-0.865129
-0.343048
-1
-1
-1
-1
-1
-1
-1
-1
-1
-1
-0.999999
-0.99999
-0.999851
-0.998738
-0.993891
-0.989329
-0.968672
-0.85326
-0.375754
-1
-1
-1
-1
-1
-1
-1
-1
-1
-1
-0.999998
-0.999964
-0.999752
-0.998646
-0.994319
-0.990124
-0.969118
-0.840865
-0.413838
-1
-1
-1
-1
-1
-1
-1
-1
-1
-1
-0.999999
-0.999991
-0.999879
-0.998955
-0.99533
-0.990872
-0.968882
-0.845325
-0.463207
-1
-1
-1
-1
-1
-1
-1
-1
-1
-1
-0.999999
-0.999997
-0.999978
-0.999616
-0.997372
-0.993425
-0.978264
-0.880779
-0.530012
-1
-1
-1
-1
-1
-1
-1
-1
-1
-1
-0.999998
-0.999989
-0.99995
-0.999914
-0.998981
-0.99603
-0.987939
-0.936089
-0.616506
-1
-1
-1
-1
-1
-1
-1
-1
-1
-1
-0.999998
-0.999986
-0.999929
-0.999911
-0.999717
-0.998318
-0.993254
-0.981317
-0.71502
-1
-1
-1
-1
-1
-1
-1
-1
-1
-1
-0.999999
-0.99999
-0.999953
-0.999663
-0.999863
-0.99951
-0.995303
-0.997807
-0.801965
-1
-1
-1
-1
-1
-1
-1
-1
-1
-1
-0.999999
-0.999996
-0.999986
-0.999763
-0.999805
-0.999759
-0.996862
-0.998585
-0.853385
-1
-1
-1
-1
-1
-1
-1
-1
-1
-1
-1
-0.999993
-0.999976
-0.99989
-0.999701
-0.999717
-0.997597
-0.998809
-0.878156
-1
-1
-1
-1
-1
-1
-1
-1
-1
-1
-0.999999
-0.999984
-0.999902
-0.999821
-0.99967
-0.999647
-0.998287
-0.998779
-0.889601
-1
-1
-1
-1
-1
-1
-1
-1
-1
-1
-0.999998
-0.999954
-0.999381
-0.999031
-0.999379
-0.999496
-0.998787
-0.995368
-0.893513
-1
-1
-1
-1
-1
-1
-1
-1
-1
-0.999999
-0.999996
-0.99994
-0.999098
-0.998159
-0.998761
-0.999335
-0.998975
-0.991726
-0.898174
-1
-1
-1
-1
-1
-1
-1
-1
-1
-0.999999
-0.999992
-0.999937
-0.999338
-0.997638
-0.998605
-0.999054
-0.997422
-0.960584
-0.904319
-1
-1
-1
-1
-1
-1
-1
-1
-1
-0.999999
-0.999989
-0.999923
-0.999436
-0.99769
-0.99857
-0.998996
-0.997632
-0.966711
-0.912095
-1
-1
-1
-1
-1
-1
-1
-1
-1
-0.999999
-0.99999
-0.999922
-0.999164
-0.997405
-0.998535
-0.99897
-0.997902
-0.974433
-0.921213
-1
-1
-1
-1
-1
-1
-1
-1
-1
-1
-0.999998
-0.999958
-0.999507
-0.997554
-0.99842
-0.998948
-0.998324
-0.982115
-0.93023
-1
-1
-1
-1
-1
-1
-1
-1
-1
-1
-0.999998
-0.999975
-0.999794
-0.998653
-0.998032
-0.998794
-0.998552
-0.987006
-0.939051
-1
-1
-1
-1
-1
-1
-1
-1
-1
-1
-0.999999
-0.999993
-0.999953
-0.999629
-0.996968
-0.998379
-0.998506
-0.990809
-0.949313
-1
-1
-1
-1
-1
-1
-1
-1
-1
-1
-1
-1
-0.999997
-0.99997
-0.998051
-0.997856
-0.998021
-0.993383
-0.958318
-1
-1
-1
-1
-1
-1
-1
-1
-1
-1
-1
-1
-1
-0.999999
-0.999932
-0.998575
-0.998117
-0.996695
-0.975687
)
;

boundaryField
{
    leftWall
    {
        type            zeroGradient;
    }
    rightWall
    {
        type            zeroGradient;
    }
    lowerWall
    {
        type            zeroGradient;
    }
    atmosphere
    {
        type            zeroGradient;
    }
    defaultFaces
    {
        type            empty;
    }
}


// ************************************************************************* //
