/*--------------------------------*- C++ -*----------------------------------*\
| =========                 |                                                 |
| \\      /  F ield         | foam-extend: Open Source CFD                    |
|  \\    /   O peration     | Version:     4.1                                |
|   \\  /    A nd           | Web:         http://www.foam-extend.org         |
|    \\/     M anipulation  |                                                 |
\*---------------------------------------------------------------------------*/
FoamFile
{
    version     2.0;
    format      ascii;
    class       volScalarField;
    location    "0.5";
    object      C_0;
}
// * * * * * * * * * * * * * * * * * * * * * * * * * * * * * * * * * * * * * //

dimensions      [0 0 0 0 0 0 0];

internalField   nonuniform List<scalar> 
2268
(
1
1
1
1
0.999999
0.999993
0.999998
0.999973
0.999986
0.999754
0.999846
0.999892
0.999933
0.999958
0.999977
0.999989
0.999996
0.999998
0.999994
0.999886
0.999306
0.970591
0.107899
1
1
1
0.999998
0.999975
0.99987
0.999958
0.999638
0.999813
0.998677
0.99932
0.999384
0.999467
0.999578
0.9998
0.999902
0.999974
0.99998
0.99998
0.99995
0.999796
0.994511
0.978009
1
0.999998
0.999997
0.999974
0.999707
0.998875
0.999557
0.99778
0.998889
0.996612
0.99495
0.994738
0.995302
0.997133
0.999198
0.999768
0.999936
0.999924
0.999901
0.999793
0.998291
0.989509
0.974249
0.999999
0.999968
0.999954
0.999695
0.997672
0.99413
0.997238
0.990825
0.995484
0.989071
0.982256
0.964808
0.979242
0.988842
0.994491
0.997792
0.998899
0.999374
0.999605
0.999632
0.998836
0.990791
0.970131
0.999986
0.999659
0.999464
0.99746
0.9866
0.979377
0.986601
0.971435
0.984409
0.967227
0.924728
0.934609
0.960674
0.963686
0.975366
0.988899
0.994145
0.997152
0.998096
0.999203
0.998624
0.991092
0.966595
0.999828
0.997366
0.99535
0.98449
0.945551
0.936769
0.934744
0.932398
0.922755
0.89738
0.843935
0.876962
0.898775
0.921984
0.940917
0.968248
0.980609
0.989207
0.99113
0.995768
0.997274
0.990972
0.959652
0.998582
0.983915
0.969755
0.930501
0.837631
0.825397
0.803756
0.808435
0.750381
0.688008
0.732729
0.754998
0.802085
0.876204
0.889789
0.934671
0.952279
0.968187
0.969121
0.980168
0.992993
0.989663
0.960782
0.991567
0.919168
0.85992
0.777021
0.628244
0.599701
0.507108
0.530558
0.449489
0.479799
0.544328
0.60459
0.730515
0.794378
0.829823
0.897161
0.90332
0.909168
0.903996
0.926226
0.969839
0.98473
0.962295
-0.60083
-0.483277
-0.461271
-0.452845
-0.448109
-0.416947
-0.356499
-0.316393
-0.19522
-0.0681331
0.0161864
0.0660475
0.114854
0.00380604
-0.168946
-0.275547
-0.610169
-0.673274
-0.609149
-0.665785
-0.693256
-0.808945
-0.858137
-0.844591
-0.660765
-0.457542
-0.311102
-0.162087
0.00691234
0.111849
0.168926
0.317153
0.342874
0.33314
0.241726
-0.278753
-0.656203
-0.483832
-0.761873
-0.883189
-0.967212
-0.989968
-0.934635
-0.654005
-0.414639
-0.304522
-0.172582
-0.0957063
-0.161029
0.0349932
0.258016
0.350752
0.400768
0.385612
0.139264
-0.406432
-0.428405
-0.839392
-0.942573
-0.989773
-0.994931
-0.994466
-0.914237
-0.733504
-0.667146
-0.352631
-0.247707
-0.115532
-0.137072
0.175262
0.33545
0.405893
0.4095
0.308419
-0.211952
-0.367991
-0.887601
-0.966012
-0.986601
-0.988235
-0.992975
-0.987631
-0.953469
-0.840303
-0.539922
-0.430361
-0.37705
-0.220778
0.128907
0.405542
0.424387
0.420417
0.380571
0.0257294
-0.303873
-0.925507
-0.973316
-0.983085
-0.967251
-0.979963
-0.986373
-0.956557
-0.925144
-0.656121
-0.550437
-0.444606
-0.337043
0.196571
0.463587
0.456765
0.435233
0.407651
0.221233
-0.193539
-0.953358
-0.977711
-0.973362
-0.918822
-0.944281
-0.976155
-0.900238
-0.642916
0.13912
-0.434472
-0.335619
-0.100897
0.411403
0.528755
0.480342
0.444989
0.422223
0.299754
-0.112752
-0.978343
-0.967976
-0.929875
-0.76776
-0.843466
-0.962227
-0.904754
-0.716422
0.0625828
-0.0069247
0.14295
0.326588
0.528666
0.554097
0.493336
0.428207
0.415658
0.338665
-0.0709102
0.947829
0.503709
0.375686
0.333622
0.189234
0.0985786
-0.0441257
-0.0418351
-0.11851
-0.0661395
0.0572348
0.252986
0.488443
0.649009
0.707901
0.717017
0.700751
0.662745
0.618019
0.589546
0.67398
0.875506
0.946993
0.634202
-0.372526
-0.497248
-0.473349
-0.449846
-0.486804
-0.623199
-0.636048
-0.691147
-0.654282
-0.421131
0.035151
0.284448
0.416597
0.424464
0.369767
0.306484
0.204984
0.132031
0.119217
0.226812
0.654677
0.878781
0.30636
-0.619399
-0.841234
-0.847269
-0.742129
-0.741433
-0.826467
-0.826176
-0.869312
-0.881884
-0.816424
-0.594601
-0.361485
-0.12072
0.0964134
0.149508
0.136734
0.11289
0.0348747
-0.0350218
0.0607805
0.381106
0.731894
0.175806
-0.580659
-0.892255
-0.934912
-0.859615
-0.863004
-0.891336
-0.895966
-0.929744
-0.949664
-0.953355
-0.860199
-0.690591
-0.535165
-0.258944
-0.172598
-0.0535667
-0.0058343
-0.0400744
-0.115287
-0.0653007
0.144684
0.500559
0.25675
-0.479653
-0.905685
-0.954365
-0.930059
-0.919782
-0.923346
-0.936044
-0.958122
-0.972565
-0.97043
-0.958504
-0.869126
-0.843988
-0.751041
-0.681575
-0.504489
-0.251104
-0.129723
-0.169969
-0.170483
-0.107809
0.00253437
0.163556
-0.568702
-0.936913
-0.969773
-0.95578
-0.949304
-0.948253
-0.961982
-0.974521
-0.984355
-0.97135
-0.978324
-0.952283
-0.908791
-0.79883
-0.539504
-0.318112
-0.454973
-0.312184
-0.354707
-0.441026
-0.44491
-0.443884
-0.595273
-0.944041
-0.979101
-0.980555
-0.969858
-0.972336
-0.972608
-0.98276
-0.987378
-0.989819
-0.966571
-0.987056
-0.97365
-0.953402
-0.848934
-0.547073
-0.579452
-0.837372
-0.77515
-0.769038
-0.842012
-0.861449
-0.852759
-0.960443
-0.969664
-0.986882
-0.989548
-0.98247
-0.988834
-0.986849
-0.992589
-0.995133
-0.98994
-0.960459
-0.989639
-0.987913
-0.98019
-0.915674
-0.739428
-0.732263
-0.893246
-0.962417
-0.95525
-0.971972
-0.973184
-0.967994
-0.989669
-0.991912
-0.996012
-0.995299
-0.991382
-0.995285
-0.995536
-0.996477
-0.996236
-0.987212
-0.957942
-0.988503
-0.994461
-0.992202
-0.956692
-0.907199
-0.930338
-0.971265
-0.989082
-0.989847
-0.990548
-0.991191
-0.990793
-0.994665
-0.99641
-0.998221
-0.998078
-0.99706
-0.997998
-0.998527
-0.99848
-0.996643
-0.987927
-0.957695
-0.980061
-0.997562
-0.995714
-0.979202
-0.979039
-0.997025
-0.996277
-0.99494
-0.99555
-0.995672
-0.996122
-0.996251
-0.997396
-0.998702
-0.999321
-0.999468
-0.999509
-0.999426
-0.999613
-0.999622
-0.998714
-0.995236
-0.958479
-0.965429
-0.99851
-0.996244
-0.991838
-0.99521
-0.997026
-0.997069
-0.998108
-0.998146
-0.998531
-0.998968
-0.998987
-0.99873
-0.999489
-0.999752
-0.999893
-0.999882
-0.999905
-0.999938
-0.999955
-0.999735
-0.998404
-0.966587
-0.941726
-0.994356
-0.998707
-0.997403
-0.99827
-0.998908
-0.998655
-0.998797
-0.99905
-0.999669
-0.999842
-0.999818
-0.999421
-0.999828
-0.999892
-0.999989
-0.999987
-0.99999
-0.999995
-0.999996
-0.999933
-0.998963
-0.979346
-0.920089
-0.982654
-0.997826
-0.999527
-0.99958
-0.999391
-0.999122
-0.999278
-0.999618
-0.999941
-0.999992
-0.99999
-0.99978
-0.99995
-0.999957
-0.999999
-1
-0.999999
-0.999999
-1
-0.999971
-0.999137
-0.986806
-0.900084
-0.978583
-0.993013
-0.998801
-0.99981
-0.999717
-0.99962
-0.999654
-0.999831
-0.999978
-0.999998
-0.999998
-0.999951
-0.999993
-0.999989
-1
-1
-1
-1
-1
-0.999985
-0.99943
-0.993666
-0.912427
-0.993462
-0.998703
-0.999662
-0.999943
-0.999904
-0.999929
-0.999918
-0.999927
-0.999996
-0.999999
-0.999999
-0.999986
-0.999998
-0.999997
-1
-1
-1
-1
-1
-0.999974
-0.999631
-0.997475
-0.965265
-0.998173
-0.999382
-0.999905
-0.999993
-0.999994
-0.999995
-0.999995
-0.999995
-1
-1
-0.999999
-0.999998
-1
-0.999999
-1
-1
-1
-1
-1
-0.999999
-0.999984
-0.999846
-0.997064
-0.999907
-0.999951
-0.999983
-1
-1
-1
-1
-1
-1
-1
-1
-1
-1
-1
-1
-1
-1
-1
-1
-1
-1
-0.999958
-0.999747
-0.999998
-1
-0.999999
-1
-1
-1
-1
-1
-1
-1
-1
-1
-1
-1
-1
-1
-1
-1
-1
-1
-1
-1
-1
-1
-1
-1
-1
-1
-1
-1
-1
-1
-1
-1
-1
-1
-1
-1
-1
-1
-1
-1
-1
-1
-1
-1
-1
-1
-1
-1
-1
-1
-1
-1
-1
-1
-1
-1
-1
-1
-1
-1
-1
-1
-1
-1
-1
-1
-1
-1
-1
-1
-1
-1
-1
-1
-1
-1
-1
-1
-1
-1
-1
-1
-1
-1
-1
-1
-1
-1
-1
-1
-1
-1
-1
-1
-1
-1
-1
-1
-1
-1
-1
-1
-1
-1
-1
-1
-1
-1
-1
-1
-1
-1
-1
-1
-1
-1
-1
-1
-1
-1
-1
-1
-1
-1
-1
-1
-1
-1
-1
-1
-1
-1
-1
-1
-1
-1
-1
-1
-1
-1
-1
-1
-1
-1
-1
-1
-1
-1
-1
-1
-1
-1
-1
-1
-1
-1
-1
-1
-1
-1
-1
-1
-1
-1
-1
-1
-1
-1
-1
-1
-1
-1
-1
-1
-1
-1
-1
-1
-1
-1
-1
-1
-1
-1
-1
-1
-1
-1
-1
-1
-1
-1
-1
-1
-1
-1
-1
-1
-1
-1
-1
-1
-1
-1
-1
-1
-1
-1
-1
-1
-1
-1
-1
-1
-1
-1
-1
-1
-1
-1
-1
-1
-1
-1
-1
-1
-1
-1
-1
-1
-1
-1
-1
-1
-1
-1
-1
-1
-1
-1
-1
-1
-1
-1
-1
-1
-1
-1
-1
-1
-1
-1
-1
-1
-1
-1
-1
-1
-1
-1
-1
-1
-1
-1
-1
-1
-1
-1
-1
-1
-1
-1
-1
-1
-1
-1
-1
-1
-1
-1
-1
-1
-1
-1
-1
-1
-1
-1
-1
-1
-1
-1
-1
-1
-1
-1
-1
-1
-1
-1
-1
-1
-1
-1
-1
-1
-1
-1
-1
-1
-1
-1
-1
-1
-1
-1
-1
-1
-1
-1
-1
-1
-1
-1
-1
-1
-1
-1
-1
-1
-1
-1
-1
-1
-1
-1
-1
-1
-1
-1
-1
-1
-1
-1
-1
-1
-1
-1
-1
-1
-1
-1
-1
-1
-1
-1
-1
-1
-1
-1
-1
-1
-1
-1
-1
-1
-1
-1
-1
-1
-1
-1
-1
-1
-1
-1
-1
-1
-1
-1
-1
-1
-1
-1
-1
-1
-1
-1
-1
-1
-1
-1
-1
-1
-1
-1
-1
-1
-1
-1
-1
-1
-1
-1
-1
-1
-1
-1
-1
-1
-1
-1
-1
-1
-1
-1
-1
-1
-1
-1
-1
-1
-1
-1
-1
-1
-1
-1
-1
-1
-1
-1
-1
-1
-1
-1
-1
-1
-1
-1
-1
-1
-1
-1
-1
-1
-1
-1
-1
-1
-1
-1
-1
-1
-1
-1
-1
-1
-1
-1
-1
-1
-1
-1
-1
-1
-1
-1
-1
-1
-1
-1
-1
-1
-1
-1
-1
-1
-1
-1
-1
-1
-1
-1
-1
-1
-1
-1
-1
-1
-1
-1
-1
-1
-1
-1
-1
-1
-1
-1
-1
-1
-1
-1
-1
-1
-1
-1
-1
-1
-1
-1
-1
-1
-1
-1
-1
-1
-1
-1
-1
-1
-1
-1
-1
-1
-1
-1
-1
-1
-1
-1
-1
-1
-1
-1
-1
-1
-1
-1
-1
-1
-1
-1
-1
-1
-1
-1
-1
-1
-1
-1
-1
-1
-1
-1
-1
-1
-1
-1
-1
0.940321
0.933825
0.689198
-0.774857
0.919288
0.923808
0.855538
0.721998
0.826778
0.879174
0.881497
0.879674
0.622625
0.663987
0.711476
0.763858
0.0986078
0.137848
0.208779
0.349651
-0.426611
-0.394989
-0.326681
-0.204712
-0.827243
-0.794347
-0.740902
-0.675046
-0.956409
-0.94199
-0.914639
-0.865839
-0.985346
-0.975699
-0.961046
-0.929585
-0.991596
-0.978468
-0.951635
-0.885488
-0.994968
-0.988341
-0.977811
-0.92588
-0.999499
-0.999065
-0.995242
-0.97989
-0.999928
-0.99966
-0.998876
-0.997014
-0.999994
-0.999979
-0.99994
-0.999865
-1
-0.999999
-0.999999
-0.999998
-1
-1
-1
-1
-1
-1
-1
-1
-1
-1
-1
-1
-1
-1
-1
-1
-1
-1
-1
-1
-1
-1
-1
-1
-1
-1
-1
-1
-1
-1
-1
-1
-1
-1
-1
-1
-1
-1
-1
-1
-1
-1
-1
-1
-1
-1
-1
-1
-1
-1
-1
-1
-1
-1
-1
-1
-1
-1
-1
-1
-1
-1
-1
-1
-1
-1
-1
-1
-1
-1
-1
-1
-1
-1
-1
-1
-1
-1
-1
-1
-1
-1
-1
-1
-1
-1
-1
-1
-1
-1
-1
-1
-1
-1
-1
-1
-1
-1
-1
-1
-1
-1
-1
-1
-1
-1
-1
-1
-0.763816
-0.686424
-0.638444
0.039485
-0.359934
-0.6927
-0.452974
-0.464525
-0.349891
-0.274423
0.00941449
0.383617
0.568658
0.579331
0.472376
0.371605
0.38738
0.368295
0.0283218
0.697839
0.678535
0.632376
0.711579
0.546248
0.580015
0.608625
0.595239
0.574933
0.520893
0.583681
0.624757
0.624379
0.607795
0.445641
0.21825
0.297676
0.332051
0.10004
0.86829
0.846307
0.853029
0.861653
0.855669
0.848395
0.831383
0.82083
0.816285
0.780178
0.686087
0.447452
0.385945
0.404947
0.433703
0.325162
0.19804
0.25468
0.0899565
0.818524
0.857574
0.874643
0.869198
0.842367
0.721732
0.497664
0.431637
0.214952
0.164561
0.0231208
-0.175119
-0.202155
-0.21938
-0.0895227
0.0122399
-0.015344
0.148227
0.054561
0.63408
0.781681
0.818539
0.78514
0.64409
0.24879
-0.197771
-0.262432
-0.423222
-0.42588
-0.520349
-0.568091
-0.61738
-0.636885
-0.578928
-0.371356
-0.26997
0.0479638
0.00784399
0.17199
0.434615
0.615381
0.606472
0.504946
0.04148
-0.565021
-0.603263
-0.638992
-0.631839
-0.66194
-0.72882
-0.801858
-0.817406
-0.785079
-0.616721
-0.462175
-0.0370289
-0.0254892
-0.485536
-0.193029
0.108524
0.218302
0.0586122
-0.477389
-0.745302
-0.749542
-0.747206
-0.752842
-0.791329
-0.850443
-0.893366
-0.913901
-0.872162
-0.770463
-0.584566
-0.130542
-0.0522136
-0.649352
-0.339989
-0.280045
-0.308836
-0.485197
-0.744164
-0.847839
-0.83537
-0.818885
-0.836511
-0.9134
-0.944745
-0.953839
-0.950145
-0.935941
-0.8962
-0.741682
-0.235884
-0.0750018
-0.749291
-0.536067
-0.60116
-0.783539
-0.8399
-0.87226
-0.925386
-0.922596
-0.890167
-0.888536
-0.955187
-0.981699
-0.982862
-0.973488
-0.970753
-0.950714
-0.745543
-0.230308
-0.0864863
-0.790518
-0.747368
-0.776065
-0.855968
-0.912993
-0.96073
-0.983519
-0.985006
-0.954707
-0.911138
-0.930769
-0.979132
-0.991651
-0.987228
-0.98535
-0.94529
-0.716963
-0.2144
-0.0935331
-0.89171
-0.901925
-0.923383
-0.939496
-0.970048
-0.993323
-0.99747
-0.996802
-0.981671
-0.965889
-0.96763
-0.988403
-0.994996
-0.991083
-0.975595
-0.895429
-0.649396
-0.205308
-0.100832
-0.964425
-0.970922
-0.988845
-0.989032
-0.995226
-0.998936
-0.999443
-0.999
-0.994258
-0.992726
-0.993563
-0.995972
-0.996946
-0.98605
-0.94493
-0.818622
-0.530933
-0.201671
-0.10918
-0.994593
-0.994724
-0.998787
-0.999292
-0.999731
-0.999877
-0.99981
-0.999486
-0.998443
-0.997791
-0.998259
-0.998577
-0.997933
-0.989084
-0.948135
-0.803389
-0.481072
-0.199947
-0.119399
-0.999755
-0.999478
-0.999917
-0.999969
-0.999972
-0.99996
-0.999901
-0.999702
-0.999273
-0.998963
-0.998907
-0.998505
-0.998226
-0.995222
-0.973997
-0.851521
-0.543143
-0.212327
-0.132466
-0.999995
-0.999975
-0.999997
-0.999995
-0.999989
-0.999981
-0.999948
-0.999835
-0.999537
-0.999136
-0.998736
-0.997844
-0.996998
-0.996943
-0.992729
-0.937078
-0.751369
-0.333581
-0.154405
-1
-0.999999
-0.999999
-0.999998
-0.999994
-0.999992
-0.999979
-0.999926
-0.999725
-0.999298
-0.99888
-0.998008
-0.994878
-0.996634
-0.995167
-0.974556
-0.902479
-0.612416
-0.186241
-1
-1
-0.999999
-0.999999
-0.999998
-0.999999
-0.999995
-0.999983
-0.999928
-0.999698
-0.999471
-0.999018
-0.995725
-0.995854
-0.995223
-0.983711
-0.939987
-0.718573
-0.201477
-1
-1
-1
-1
-1
-0.999999
-0.999998
-0.999993
-0.999982
-0.999934
-0.999869
-0.999606
-0.997599
-0.994788
-0.994831
-0.984846
-0.944415
-0.757025
-0.220025
-1
-1
-1
-1
-1
-1
-0.999998
-0.999995
-0.999991
-0.999976
-0.99995
-0.999852
-0.998246
-0.99477
-0.994127
-0.983157
-0.942052
-0.799615
-0.247554
-1
-1
-1
-1
-1
-1
-0.999999
-0.999998
-0.999996
-0.99999
-0.999975
-0.99989
-0.999313
-0.995678
-0.993526
-0.981812
-0.942223
-0.81826
-0.282318
-1
-1
-1
-1
-1
-1
-1
-0.999999
-0.999998
-0.999996
-0.999984
-0.999934
-0.999359
-0.997074
-0.993529
-0.983328
-0.950653
-0.840826
-0.315647
-1
-1
-1
-1
-1
-1
-1
-1
-1
-0.999999
-0.999997
-0.999985
-0.999828
-0.998029
-0.99359
-0.987555
-0.965467
-0.866783
-0.347248
-1
-1
-1
-1
-1
-1
-1
-1
-1
-1
-0.999999
-0.99999
-0.999854
-0.998759
-0.993933
-0.989398
-0.968854
-0.854143
-0.380186
-1
-1
-1
-1
-1
-1
-1
-1
-1
-1
-0.999998
-0.999965
-0.99976
-0.998675
-0.994391
-0.990231
-0.969596
-0.843346
-0.419141
-1
-1
-1
-1
-1
-1
-1
-1
-1
-1
-1
-0.999991
-0.999885
-0.998987
-0.99542
-0.991068
-0.969903
-0.849158
-0.469971
-1
-1
-1
-1
-1
-1
-1
-1
-1
-1
-0.999999
-0.999997
-0.999979
-0.999633
-0.997455
-0.993627
-0.979519
-0.8871
-0.538506
-1
-1
-1
-1
-1
-1
-1
-1
-1
-1
-0.999998
-0.99999
-0.99995
-0.99992
-0.999034
-0.996181
-0.988651
-0.942027
-0.626074
-1
-1
-1
-1
-1
-1
-1
-1
-1
-1
-0.999998
-0.999986
-0.999929
-0.999912
-0.999736
-0.998412
-0.99356
-0.984317
-0.723749
-1
-1
-1
-1
-1
-1
-1
-1
-1
-1
-0.999999
-0.99999
-0.999954
-0.99966
-0.999864
-0.999538
-0.995396
-0.99799
-0.807794
-1
-1
-1
-1
-1
-1
-1
-1
-1
-1
-0.999999
-0.999996
-0.999986
-0.999763
-0.999803
-0.999762
-0.996911
-0.998594
-0.855701
-1
-1
-1
-1
-1
-1
-1
-1
-1
-1
-1
-0.999993
-0.999976
-0.999889
-0.999695
-0.999716
-0.997632
-0.998814
-0.879044
-1
-1
-1
-1
-1
-1
-1
-1
-1
-1
-0.999999
-0.999984
-0.999897
-0.999817
-0.999663
-0.999642
-0.998317
-0.998783
-0.889956
-1
-1
-1
-1
-1
-1
-1
-1
-1
-1
-0.999998
-0.999953
-0.999367
-0.999012
-0.999367
-0.999488
-0.9988
-0.995283
-0.893957
-1
-1
-1
-1
-1
-1
-1
-1
-1
-0.999999
-0.999996
-0.999938
-0.999077
-0.998147
-0.998755
-0.999327
-0.998979
-0.99162
-0.89873
-1
-1
-1
-1
-1
-1
-1
-1
-1
-0.999999
-0.999992
-0.999936
-0.999322
-0.997625
-0.99861
-0.999047
-0.997432
-0.96088
-0.904979
-1
-1
-1
-1
-1
-1
-1
-1
-1
-0.999999
-0.999988
-0.999922
-0.999427
-0.997675
-0.998574
-0.998994
-0.997642
-0.966938
-0.91277
-1
-1
-1
-1
-1
-1
-1
-1
-1
-0.999999
-0.99999
-0.999921
-0.999157
-0.997401
-0.998536
-0.998968
-0.997916
-0.974682
-0.921887
-1
-1
-1
-1
-1
-1
-1
-1
-1
-1
-0.999998
-0.999957
-0.999503
-0.997558
-0.998412
-0.998946
-0.998339
-0.982318
-0.930902
-1
-1
-1
-1
-1
-1
-1
-1
-1
-1
-0.999998
-0.999975
-0.99979
-0.99865
-0.997993
-0.998781
-0.998552
-0.987106
-0.939664
-1
-1
-1
-1
-1
-1
-1
-1
-1
-1
-0.999999
-0.999993
-0.999952
-0.999618
-0.996922
-0.998359
-0.998502
-0.990845
-0.949827
-1
-1
-1
-1
-1
-1
-1
-1
-1
-1
-1
-1
-0.999996
-0.999967
-0.998006
-0.997827
-0.997992
-0.993339
-0.958658
-1
-1
-1
-1
-1
-1
-1
-1
-1
-1
-1
-1
-1
-0.999999
-0.999925
-0.998536
-0.998083
-0.996636
-0.975762
)
;

boundaryField
{
    leftWall
    {
        type            zeroGradient;
    }
    rightWall
    {
        type            zeroGradient;
    }
    lowerWall
    {
        type            zeroGradient;
    }
    atmosphere
    {
        type            zeroGradient;
    }
    defaultFaces
    {
        type            empty;
    }
}


// ************************************************************************* //
