/*--------------------------------*- C++ -*----------------------------------*\
| =========                 |                                                 |
| \\      /  F ield         | foam-extend: Open Source CFD                    |
|  \\    /   O peration     | Version:     4.1                                |
|   \\  /    A nd           | Web:         http://www.foam-extend.org         |
|    \\/     M anipulation  |                                                 |
\*---------------------------------------------------------------------------*/
FoamFile
{
    version     2.0;
    format      ascii;
    class       volScalarField;
    location    "0.5";
    object      p;
}
// * * * * * * * * * * * * * * * * * * * * * * * * * * * * * * * * * * * * * //

dimensions      [1 -1 -2 0 0 0 0];

internalField   nonuniform List<scalar> 
2268
(
709.35
709.212
643.587
566.027
472.473
432.531
314.504
356.434
265.421
288.075
528.398
502.588
569.82
620.676
719.364
690.315
767.34
857.86
980.7
1010.28
1075.38
1091.35
1607.92
653.07
653.179
586.157
506.603
411.641
371.075
250.664
294.525
199.561
199.892
441.568
441.954
508.567
540.913
626.216
681.359
690.269
785.807
933.12
955.767
1017.1
1026.27
1079.12
596.346
599.204
528.731
445.813
349.998
305.775
183.008
230.806
129.014
197.963
286.941
430.773
424.612
531.919
551.81
604.552
649.903
737.213
845.03
889.774
955.004
985.874
1017.95
548.988
549.594
474.464
385.22
285.15
240.492
103.385
173.372
42.9613
142.753
257.949
312.995
415.29
378.818
489.498
529.047
626.636
686.921
808.332
828.463
907.25
921.785
954.137
485.192
498.97
417.7
321.508
222.92
177.659
63.2356
104.954
-53.3666
89.7236
168.997
312.924
252.299
419.986
409.638
514.811
596.079
643.456
739.828
755.3
837.276
851.648
893.437
464.083
458.491
364.789
261.535
173.286
138.069
-80.4138
113.775
-149.053
127.487
234.54
285.647
308.47
400.192
305.514
413.676
580.731
587.521
664.472
696.936
783.143
789.824
826.548
394.029
420.066
318.153
224.701
252.999
235.638
114.958
218.851
85.7712
482.586
432.52
354.155
449.112
356.42
362.092
384.36
531.434
537.531
632.477
643.853
721.202
688.547
761.427
363.244
449.595
381.517
417.535
691.059
730.822
744.827
832.93
857.041
919.495
853.581
812.291
458.099
495.667
430.256
302.593
556.039
503.188
645.703
588.77
686.114
629.257
620.506
1565.87
1769.05
1712.4
1672.69
1701.54
1874.99
2039.79
2029.08
2232.13
2579.6
2034.25
2406.6
2582.33
2906.52
3046.35
2985.45
2271.46
2090.38
2268.44
1330.74
1167.86
863.529
772.606
803.428
1228.01
1732.43
2042.68
2259.35
2446.81
2125.84
2062.95
2238.49
2501.18
2741.84
3000.39
3055.65
2131.21
2601.66
1003.77
741.704
659.021
651.868
685.899
1240.06
1840.58
2075.61
2317.13
2257.03
2064.45
2143.51
2260.01
2349.82
2557.18
2654.93
3199.52
2793.54
2731.55
841.136
670.148
651.319
650.896
651.621
705.111
1010.93
1179.39
2000.19
2010.33
2032.37
2114.29
2331.53
2345.94
2488.11
2575.14
2912.46
3152.23
2857.81
752.355
657.471
652.438
650.467
651.142
648.324
655.282
778.913
1474.65
1628.24
1665.82
1965.4
2301.38
2118.63
2389.6
2470.69
2723.18
3279.79
2979.34
704.63
655.328
653.099
653.924
652.322
648.559
651.545
666.263
1191.39
1245.54
1453.74
1710.34
2191.04
1925.98
2245.47
2404.64
2591.89
3072.5
3140.56
684.355
657.633
656.752
688.687
666.763
649.398
698.172
1173.1
1923.39
1497.84
1693.86
2076.49
1739.11
1701.79
2109.3
2310.48
2494.36
2890.42
3197.56
671.59
663.773
687.651
931.657
784.43
654.429
706.553
946.984
1953.66
2080.28
1977.64
1693.14
1389.43
1600.15
2013.61
2300.96
2450.23
2760.9
3180.95
238.681
1085.73
1245.75
1351.45
1659.59
1744.17
1681.61
1687.22
1614.27
1684.48
1737.05
1522.36
1172.3
804.761
548.524
559.316
815.596
876.075
1042.15
1098.36
941.35
484.015
369.878
828.568
1169.43
938.617
1015.11
1121.56
1064.45
690.303
675.336
518.991
605.575
1164.79
1673.96
1582.46
1245.97
1228.5
1405.03
1610.75
1766.49
1881.44
1895.39
1782.31
671.966
176.388
1125.52
611.464
189.477
161.747
390.389
392.443
208.449
211.282
136.315
108.992
201.298
737.11
1366.91
1714.38
1759.52
1704.47
1789.29
1810.74
1863.47
1905.72
1794.48
1384.9
323.859
1375.38
735.477
91.2973
50.3925
135.21
138.31
96.2903
89.4552
48.0995
33.4004
31.3444
137.471
514.819
880.273
1461.61
1586.45
1855.55
1809.96
1869.18
1746.88
1723.25
1684.72
1069.81
1269.58
920.094
70.4326
21.0811
41.9875
52.4169
47.9554
35.6889
23.5954
15.9273
20.7745
22.4869
120.663
165.651
384.054
542.532
977.779
1534.68
1675.26
1644.58
1592.63
1662.63
1731.22
1327.78
706.968
30.3662
10.8765
19.5876
22.0928
24.4902
15.1331
11.3845
8.40352
16.2706
12.747
25.8141
66.5656
251.961
885.115
1453.78
1049.88
1290.97
1313.8
1103.59
1078.73
1088.5
644.823
19.7917
3.56828
4.6268
8.70613
7.06056
7.71361
3.90986
4.44692
5.5128
13.2562
6.19416
10.6138
20.5
147.464
847.56
780.154
158.52
290.294
326.332
168.955
134.842
143.68
13.273
8.06802
2.22046
2.24432
3.08306
2.08586
2.66227
2.56095
2.08533
3.83986
14.5042
3.59376
3.79044
5.64831
48.5558
363.906
373.89
72.4719
9.50801
18.2604
9.30908
9.15755
9.46672
0.886683
0.376919
-0.281098
0.0470189
0.331007
0.157631
0.0909904
-0.16612
0.768987
1.64606
14.3893
4.27342
1.76673
1.49069
14.2018
58.111
32.6712
5.09887
0.684794
1.53172
2.07801
2.48693
2.75862
-0.269478
-0.482185
-0.567516
-0.567354
-0.588625
-0.484792
-0.517564
-0.720711
-0.66177
-0.297875
13.01
3.52309
-0.0494842
0.287468
2.90121
3.01453
-1.09807
-0.882661
-0.457593
-0.077997
0.25353
0.554677
0.078023
-0.844598
-0.918906
-0.913557
-0.894972
-0.919161
-0.930215
-0.942037
-1.10227
-1.41936
-1.84631
11.5436
8.91719
0.0272243
-0.174724
-0.157442
-0.846677
-0.83786
-0.87067
-0.88466
-0.654878
-0.524001
-0.662494
-0.609749
-1.12657
-1.14
-1.12786
-1.09221
-1.09706
-1.05404
-1.10039
-1.13361
-1.23338
-1.54733
6.20391
27.4068
-0.686664
-0.646798
-1.04777
-1.19983
-1.24321
-1.20874
-1.11468
-1.03676
-1.01195
-0.984829
-1.00983
-1.34371
-1.22916
-1.32886
-1.22821
-1.2922
-1.28894
-1.26485
-1.22972
-1.33627
-1.22909
0.622825
36.2109
1.74677
-1.17372
-1.4012
-1.38812
-1.35125
-1.35531
-1.32871
-1.27546
-1.2794
-1.24221
-1.4467
-1.31722
-1.38352
-1.3335
-1.38757
-1.35285
-1.39684
-1.41221
-1.43572
-1.5077
-1.33234
-0.504881
62.4682
0.18275
-1.79628
-1.69044
-1.66014
-1.59098
-1.56907
-1.5279
-1.53119
-1.48032
-1.53173
-1.5713
-1.57721
-1.54825
-1.5695
-1.55762
-1.57669
-1.57091
-1.59437
-1.59033
-1.64805
-1.54657
-1.65914
45.9122
-1.92256
-1.93557
-1.8565
-1.79261
-1.715
-1.74426
-1.70544
-1.70278
-1.67222
-1.6883
-1.7921
-1.64821
-1.68573
-1.66881
-1.70261
-1.68754
-1.70397
-1.77077
-1.66206
-1.78707
-1.70661
-1.81593
6.0879
-1.773
-2.00238
-1.93564
-1.9067
-1.85905
-1.87397
-1.85606
-1.86006
-1.87683
-1.89827
-1.9032
-1.8753
-1.82388
-1.87932
-1.87151
-1.87571
-1.94198
-1.81646
-2.02753
-1.89207
-1.98234
-1.97604
-2.01518
-1.85225
-2.14459
-2.07182
-2.0153
-2.01763
-1.99809
-1.9989
-2.03851
-1.99622
-2.04685
-1.99463
-2.00655
-2.03431
-1.94905
-2.02049
-1.97482
-2.03409
-2.06431
-2.16587
-2.17795
-2.14673
-2.26164
-2.2393
-2.18116
-2.24103
-2.23868
-2.14566
-2.15629
-2.17653
-2.14876
-2.18092
-2.15567
-2.17395
-2.23286
-2.20964
-2.2028
-2.2422
-2.11266
-2.24619
-2.21815
-2.2145
-2.1868
-2.19153
-2.24403
-2.26709
-2.34117
-2.26648
-2.37726
-2.30956
-2.27649
-2.30786
-2.28409
-2.30574
-2.30905
-2.31155
-2.33801
-2.29112
-2.36477
-2.37426
-2.36628
-2.41676
-2.38053
-2.40015
-2.31214
-2.3616
-2.39339
-2.3758
-2.37675
-2.36856
-2.47652
-2.44582
-2.4138
-2.41326
-2.43309
-2.44589
-2.43164
-2.43213
-2.46062
-2.42549
-2.50072
-2.54812
-2.54556
-2.55776
-2.53251
-2.56905
-2.48856
-2.58926
-2.48782
-2.4981
-2.51845
-2.57234
-2.63227
-2.5692
-2.58415
-2.55189
-2.56935
-2.57971
-2.57352
-2.59213
-2.59669
-2.57588
-2.57434
-2.61813
-2.69232
-2.70187
-2.6903
-2.742
-2.694
-2.63489
-2.67932
-2.72444
-2.70097
-2.69845
-2.6998
-2.70554
-2.72702
-2.69548
-2.72239
-2.68767
-2.70554
-2.7369
-2.73349
-2.72582
-2.72941
-2.71825
-2.71728
-2.89364
-2.90536
-2.92078
-2.85138
-2.90944
-2.89455
-2.86176
-2.86662
-2.87424
-2.8772
-2.87523
-2.90856
-2.84956
-2.87716
-2.84175
-2.91792
-2.85652
-2.9074
-2.84048
-2.86956
-2.85761
-2.86726
-2.86821
-3.01043
-2.99012
-2.96059
-3.00694
-2.96931
-3.05881
-3.02846
-3.01055
-3.00503
-2.99998
-2.9943
-2.9885
-3.00465
-2.97151
-3.02345
-2.96773
-3.03005
-2.99522
-2.99656
-3.00687
-3.00152
-3.01016
-2.98534
-3.13372
-3.14525
-3.15459
-3.1415
-3.14878
-3.13499
-3.13834
-3.19225
-3.16039
-3.18297
-3.19838
-3.20949
-3.19965
-3.19477
-3.15318
-3.23195
-3.14377
-3.15736
-3.12164
-3.17467
-3.14116
-3.14713
-3.14432
-3.29204
-3.28978
-3.28138
-3.29177
-3.28302
-3.29386
-3.2933
-3.27046
-3.28518
-3.28753
-3.27562
-3.28279
-3.2801
-3.30143
-3.31801
-3.3062
-3.28192
-3.31847
-3.31231
-3.30002
-3.28282
-3.30152
-3.24506
-3.4358
-3.4382
-3.43974
-3.4389
-3.44078
-3.44053
-3.44183
-3.4534
-3.45095
-3.45917
-3.46072
-3.46164
-3.46328
-3.45695
-3.44566
-3.45102
-3.45573
-3.44827
-3.43768
-3.45244
-3.43413
-3.39948
-3.43806
-3.58432
-3.58401
-3.58034
-3.58131
-3.5763
-3.5761
-3.57388
-3.57515
-3.5692
-3.57895
-3.55763
-3.57833
-3.58317
-3.6024
-3.60871
-3.58732
-3.58878
-3.57501
-3.5943
-3.56616
-3.56927
-3.5789
-3.5497
-3.73324
-3.73415
-3.73452
-3.73614
-3.73693
-3.74118
-3.74101
-3.74224
-3.74501
-3.74317
-3.75125
-3.75101
-3.7443
-3.74903
-3.7225
-3.76751
-3.72754
-3.75101
-3.73661
-3.73289
-3.71818
-3.70872
-3.70137
-3.88002
-3.87961
-3.8754
-3.87169
-3.86336
-3.84383
-3.84665
-3.87186
-3.87104
-3.88211
-3.86982
-3.89002
-3.88419
-3.89512
-3.89872
-3.90073
-3.88988
-3.88277
-3.878
-3.8708
-3.85174
-3.8509
-3.84736
-4.03376
-4.03171
-4.03126
-4.03504
-4.0375
-4.05193
-4.04932
-4.04015
-4.03469
-4.03064
-4.03984
-4.03084
-4.03066
-4.0349
-4.02142
-4.02634
-4.01336
-4.03163
-4.01105
-4.01563
-4.02319
-4.0157
-3.98376
-4.17817
-4.17606
-4.17408
-4.17177
-4.1667
-4.17048
-4.16436
-4.18335
-4.19861
-4.20084
-4.18686
-4.19139
-4.18281
-4.1889
-4.18345
-4.19338
-4.20082
-4.17718
-4.17734
-4.16597
-4.15916
-4.137
-4.13971
-4.32279
-4.32475
-4.3261
-4.32919
-4.33046
-4.35306
-4.33548
-4.33357
-4.32017
-4.31351
-4.32057
-4.30391
-4.31557
-4.32104
-4.31677
-4.31836
-4.3061
-4.3202
-4.31768
-4.29671
-4.30333
-4.29807
-4.3004
-4.46847
-4.47114
-4.47068
-4.47028
-4.47193
-4.45797
-4.46994
-4.45166
-4.47326
-4.48424
-4.47899
-4.48532
-4.48093
-4.47936
-4.47817
-4.48007
-4.48511
-4.47079
-4.47118
-4.47107
-4.46674
-4.44506
-4.45309
-4.61769
-4.61867
-4.61628
-4.61949
-4.59546
-4.62491
-4.61735
-4.62883
-4.62253
-4.6085
-4.61749
-4.61307
-4.61294
-4.61699
-4.61301
-4.61481
-4.60582
-4.61138
-4.61032
-4.59774
-4.59882
-4.5925
-4.58224
-4.76944
-4.768
-4.77133
-4.76658
-4.782
-4.76752
-4.7725
-4.76691
-4.77716
-4.78398
-4.78684
-4.77908
-4.76639
-4.7704
-4.7716
-4.77235
-4.7743
-4.76911
-4.77094
-4.77198
-4.76466
-4.74745
-4.75843
-4.91386
-4.91543
-4.91782
-4.9183
-4.91749
-4.92137
-4.91768
-4.91899
-4.91351
-4.88658
-4.90655
-4.90971
-4.91439
-4.91326
-4.90994
-4.9085
-4.90618
-4.90283
-4.90673
-4.90227
-4.90245
-4.89211
-4.89791
-5.07053
-5.06821
-5.06903
-5.06428
-5.0726
-5.0664
-5.07123
-5.07137
-5.07294
-5.08811
-5.07619
-5.07641
-5.07227
-5.07196
-5.07086
-5.07018
-5.07134
-5.06486
-5.06966
-5.06209
-5.05592
-5.05317
-5.05764
-5.20405
-5.2086
-5.21532
-5.2205
-5.223
-5.22333
-5.23253
-5.22305
-5.21531
-5.2096
-5.20956
-5.20895
-5.21009
-5.20589
-5.2009
-5.19802
-5.19742
-5.19332
-5.20064
-5.19334
-5.19847
-5.20345
-5.19691
-5.38088
-5.37307
-5.37475
-5.34675
-5.36887
-5.36951
-5.3711
-5.37336
-5.37824
-5.37789
-5.38058
-5.3773
-5.37892
-5.37707
-5.37815
-5.37674
-5.37678
-5.37547
-5.3657
-5.3698
-5.3581
-5.35589
-5.35502
-5.47398
-5.48016
-5.49452
-5.53482
-5.52436
-5.50622
-5.49675
-5.52239
-5.49038
-5.51979
-5.49242
-5.50919
-5.50462
-5.49204
-5.47889
-5.4783
-5.47662
-5.475
-5.48912
-5.48669
-5.49679
-5.48906
-5.49536
-5.71811
-5.71504
-5.7089
-5.68336
-5.68337
-5.68916
-5.69961
-5.6712
-5.70768
-5.66768
-5.70647
-5.67699
-5.6954
-5.69019
-5.70115
-5.69107
-5.69463
-5.68989
-5.67527
-5.68466
-5.6721
-5.67374
-5.66813
77.8379
-157.422
517.713
820.64
30.0031
-59.8135
160.417
575.869
354.667
137.143
448.934
429.107
891.602
780.869
681.548
540.38
1716.03
1674.33
1613.13
1376.04
1123.4
1186.96
1318.43
1515.76
188.294
247.586
362.067
523.405
19.4752
30.0566
55.9985
114.323
6.10732
10.7199
18.0025
35.6406
0.351264
2.86248
14.4916
76.5276
-0.670645
0.0739661
1.48233
33.6153
-1.23963
-1.39994
-1.58685
0.906478
-1.68919
-1.79663
-1.89754
-2.09365
-1.64858
-1.79534
-1.84739
-1.96555
-1.87772
-1.86962
-1.93755
-1.9591
-1.91396
-1.94824
-1.99217
-2.01425
-2.14701
-2.12636
-2.14188
-2.1098
-2.17591
-2.16151
-2.22274
-2.21252
-2.31562
-2.32652
-2.33575
-2.31288
-2.41838
-2.44342
-2.44563
-2.44987
-2.59384
-2.62363
-2.56306
-2.58033
-2.71616
-2.68598
-2.69724
-2.70375
-2.86697
-2.86004
-2.85049
-2.84786
-2.99627
-2.97486
-2.98145
-2.98939
-3.13703
-3.12701
-3.13309
-3.10044
-3.28732
-3.26868
-3.27439
-3.26202
-3.40124
-3.40446
-3.39323
-3.40763
-3.55986
-3.55242
-3.56595
-3.54188
-3.69041
-3.69067
-3.68116
-3.68692
-3.85173
-3.83961
-3.8388
-3.82168
-3.97958
-3.9875
-3.98956
-3.97325
-4.12876
-4.12456
-4.13035
-4.12349
-4.27986
-4.2866
-4.28621
-4.27878
-4.44301
-4.43166
-4.43057
-4.42458
-4.57917
-4.57903
-4.576
-4.56524
-4.74592
-4.75135
-4.73667
-4.73726
-4.88048
-4.87934
-4.87929
-4.87396
-5.04973
-5.05229
-5.04252
-5.04112
-5.19128
-5.18823
-5.18765
-5.18364
-5.36046
-5.35623
-5.35901
-5.34874
-5.48765
-5.49235
-5.49002
-5.49659
-5.66705
-5.66674
-5.67331
-5.66828
867.495
993.648
1137.56
2083.84
1700.65
957.737
1489.54
1521.4
1744.19
1855.18
2036.46
1601.28
1142.96
1401.43
1911.45
2340.19
2429.6
2611.38
3122.97
681.026
925.89
1032.6
944.48
1370.7
918.806
1202.16
1331.35
1514.28
1253.48
1162.44
994.013
1188.23
1339.85
1889.02
2512.15
2485.8
2550.42
2916.05
397.982
528.736
529.881
624.596
338.387
322.781
637.261
669.642
806.122
810.218
809.49
787.129
1495.67
1502.27
1524.59
2103.31
2532.94
2608.36
2714.87
422.599
412.747
613.491
147.301
346.733
608.437
1157.62
1440.47
1494.34
1790.56
1864.58
1707.18
1618.29
1538.38
1717.37
1862.08
2266.25
2197.57
2434.55
756.832
499.341
586.324
239.048
771.723
1589.95
1599.66
1592.28
1237.53
1351.62
991.203
884.534
712.665
676.547
862.511
1475.89
1696.35
2083.74
2226.7
1718.83
1304.03
853.389
639.578
1088.02
1854.94
868.332
786.531
625.298
689.446
572.299
431.602
251.948
220.556
319.553
819.082
1184.56
1971
2054.52
1012.67
1642.37
1732.31
1571.84
1856.89
1129.62
354.947
375.892
357.506
361.927
258.206
157.032
82.6737
61.6906
140.184
342.782
870.239
1747.26
1921.42
511.074
1402.08
1415.53
1324.19
1072.9
382.97
146.078
162.681
192.88
175.734
54.7851
22.8958
18.9057
25.5734
33.5554
80.9678
400.272
1454.83
1800.87
281.471
883.498
742.049
293.131
189.004
112.295
36.3143
37.0099
73.3185
76.5125
19.0935
3.45398
4.3584
9.04803
11.2155
33.711
361.849
1447.65
1741.17
234.038
356.683
297.517
139.742
61.7263
10.6922
4.07092
1.64946
12.7632
51.7498
33.6566
4.74116
1.7767
5.55791
8.20477
29.1665
415.303
1504.86
1705.89
66.9608
65.2358
37.2167
25.9177
6.84662
0.220077
-0.89578
-0.562524
1.20862
5.74232
5.20061
0.402443
0.899352
1.37434
6.91978
76.1536
575.547
1542.97
1682.58
5.32681
3.3483
-0.565025
-0.349078
-0.651348
-0.782758
-0.728618
-0.659645
-1.40905
-1.76757
-1.94282
-1.37897
-0.401481
2.26164
21.8343
197.829
900.055
1518.06
1620.74
-2.2956
-1.70095
-1.78404
-1.61978
-1.31169
-1.15341
-1.06978
-1.07761
-1.30525
-1.65371
-1.77569
-1.30651
-1.38437
0.496656
22.6916
228.715
1017.03
1539.13
1619.99
-2.15876
-1.98592
-2.04155
-1.81421
-1.55153
-1.41064
-1.4355
-1.3513
-1.47421
-1.56022
-1.85481
-1.05777
-0.962247
-1.03504
3.46051
143.417
885.759
1581.29
1671.67
-2.06014
-1.94326
-1.87401
-1.8231
-1.64683
-1.57686
-1.54497
-1.64427
-1.64252
-1.43552
-1.84793
-1.40223
-1.13003
-1.37319
-0.985634
27.5628
360.293
1417.31
1629.5
-2.04631
-2.04769
-1.93743
-1.89587
-1.85548
-1.81651
-1.74597
-1.74034
-1.77321
-1.81844
-1.91081
-1.62507
-1.42641
-1.71468
-2.20286
2.04659
62.4852
698.939
1502.99
-2.1622
-2.08566
-2.10826
-1.98847
-1.97143
-1.98193
-1.92891
-1.91551
-2.00032
-1.95509
-1.97983
-1.99033
-1.89141
-2.09265
-2.95091
-1.23727
16.7195
383.919
1367.77
-2.22928
-2.17983
-2.19749
-2.09869
-2.15385
-2.0592
-2.09855
-2.11123
-2.07489
-2.22583
-2.17634
-2.19784
-2.22959
-2.27587
-2.61419
-1.40638
15.4758
308.452
1345.48
-2.38321
-2.26538
-2.35482
-2.23706
-2.25234
-2.26673
-2.19967
-2.22978
-2.28904
-2.26478
-2.34181
-2.35693
-2.4112
-2.49899
-2.89972
-1.4071
19.0661
231.078
1335.15
-2.47283
-2.41295
-2.4471
-2.39092
-2.37732
-2.35804
-2.36931
-2.34937
-2.35984
-2.36607
-2.39912
-2.48421
-2.46239
-2.77717
-2.48226
-1.11451
20.28
186.814
1216.18
-2.57812
-2.6105
-2.51571
-2.54804
-2.51753
-2.48197
-2.48821
-2.47381
-2.49432
-2.47089
-2.53958
-2.55231
-2.60339
-2.70486
-2.33875
-0.84397
15.9833
148.135
1167.45
-2.68608
-2.68058
-2.69315
-2.6416
-2.64437
-2.61584
-2.61658
-2.59378
-2.60029
-2.61097
-2.62548
-2.7089
-2.63851
-2.79229
-2.13842
-1.43372
8.66912
115.076
1168.75
-2.8341
-2.84355
-2.78682
-2.79735
-2.76257
-2.74801
-2.7594
-2.71295
-2.73493
-2.68833
-2.70433
-2.70282
-2.7216
-2.73402
-2.25525
-1.66316
6.5339
137.624
1162.71
-2.95458
-2.94155
-2.93932
-2.92462
-2.87425
-2.89296
-2.85268
-2.83642
-2.83393
-2.80568
-2.80964
-2.76568
-2.82135
-2.80878
-2.43129
-1.34109
5.36537
153.053
1116.98
-3.1226
-3.11667
-3.06836
-3.04525
-3.02
-2.98884
-3.00737
-2.95226
-2.96477
-2.90949
-2.89122
-2.84975
-2.7708
-2.72911
-2.61085
-2.15308
5.17185
139.102
1016.27
-3.26076
-3.21303
-3.23519
-3.1968
-3.16665
-3.14095
-3.13553
-3.07732
-3.08868
-2.99264
-3.0167
-2.89667
-2.91717
-2.77116
-2.55769
-3.41122
1.55065
90.2105
864.35
-3.39402
-3.387
-3.36064
-3.32428
-3.31445
-3.271
-3.25458
-3.21695
-3.17666
-3.11442
-3.08327
-2.98546
-2.87475
-2.80909
-2.44765
-2.16499
-1.3456
26.4589
647.374
-3.53908
-3.51575
-3.51431
-3.46135
-3.44619
-3.42405
-3.38992
-3.34041
-3.30203
-3.29837
-3.17962
-3.0967
-2.95276
-2.874
-2.68615
-2.54301
-2.14248
0.792881
399.726
-3.67269
-3.65297
-3.64614
-3.60008
-3.60364
-3.56654
-3.53441
-3.51722
-3.42093
-3.35085
-3.32383
-3.17602
-3.03837
-2.89429
-2.63358
-2.4982
-2.51056
-1.9601
211.182
-3.81851
-3.81561
-3.79844
-3.77099
-3.75014
-3.71658
-3.69604
-3.64305
-3.56878
-3.52814
-3.42289
-3.24845
-3.15672
-2.90184
-3.14068
-2.52596
-3.08933
-2.46567
123.306
-3.97066
-3.93519
-3.93959
-3.90309
-3.90704
-3.87719
-3.81235
-3.8127
-3.73518
-3.68312
-3.5844
-3.51016
-3.26263
-3.10307
-3.03162
-2.9266
-3.21259
-3.40843
87.3516
-4.12847
-4.09362
-4.09745
-4.08184
-4.05348
-4.00738
-3.98558
-3.94608
-3.88808
-3.87292
-3.75889
-3.72639
-3.57275
-3.3284
-3.52399
-3.07632
-3.16032
-3.80096
73.8458
-4.2742
-4.24555
-4.23626
-4.20955
-4.20462
-4.18296
-4.15043
-4.12963
-4.0585
-4.02982
-4.0305
-3.88288
-3.96153
-3.53746
-3.68965
-3.36271
-2.7031
-3.32092
70.9854
-4.42532
-4.39131
-4.39386
-4.36405
-4.36542
-4.3308
-4.31419
-4.31289
-4.26234
-4.26167
-4.25506
-4.23856
-4.35925
-4.16109
-3.92578
-4.14929
-3.17544
-3.73445
67.9879
-4.57629
-4.55142
-4.53467
-4.54522
-4.5238
-4.51276
-4.48766
-4.47652
-4.47772
-4.46249
-4.46187
-4.37664
-4.65546
-4.512
-4.76702
-5.22083
-2.7891
3.54581
85.22
-4.72267
-4.71727
-4.69727
-4.69126
-4.67345
-4.65114
-4.65223
-4.64499
-4.6469
-4.62416
-4.66865
-4.65811
-4.88219
-4.82552
-5.17374
-5.86472
-5.91371
0.511292
26.5984
-4.87458
-4.8642
-4.85129
-4.84941
-4.83602
-4.8554
-4.82422
-4.82988
-4.82543
-4.83522
-4.81693
-4.86688
-5.02859
-5.26548
-5.20244
-5.46425
-5.44495
-1.50558
36.4339
-5.02536
-5.03538
-5.01226
-5.01604
-5.00142
-5.00299
-4.99087
-4.98023
-4.98483
-4.97947
-5.01113
-5.03394
-5.07372
-5.12952
-5.09905
-5.33339
-5.88714
-4.25906
27.4962
-5.16772
-5.17478
-5.16531
-5.15567
-5.15089
-5.17045
-5.15607
-5.17932
-5.15373
-5.17962
-5.2041
-5.22167
-5.25976
-5.24997
-5.20822
-5.29502
-6.69241
-5.56071
16.6156
-5.356
-5.35695
-5.33274
-5.34318
-5.32818
-5.33401
-5.32839
-5.30145
-5.32163
-5.34792
-5.25552
-5.37968
-5.22729
-5.42392
-4.70573
-5.22099
-7.40905
-8.47858
6.24172
-5.49041
-5.49283
-5.48776
-5.47371
-5.48141
-5.47889
-5.46389
-5.53088
-5.4699
-5.4868
-5.59361
-5.55987
-5.71985
-5.74592
-6.0327
-6.16743
-10.4499
-9.96185
-9.56333
-5.66943
-5.66884
-5.66601
-5.67539
-5.67351
-5.68128
-5.69521
-5.68569
-5.7161
-5.78732
-5.65372
-5.8878
-5.69841
-6.05668
-7.25692
-7.71772
-8.92702
-14.7652
-30.5675
)
;

boundaryField
{
    leftWall
    {
        type            calculated;
        value           nonuniform List<scalar> 
50
(
709.35
653.07
596.346
548.988
485.192
464.083
394.029
363.244
238.681
828.568
1125.52
1375.38
1269.58
1327.78
644.823
13.273
0.886683
-0.269478
-0.844598
-1.12657
-1.34371
-1.31722
-1.57721
-1.64821
-1.8753
-2.00655
-2.20964
-2.36477
-2.54812
-2.69232
-2.89364
-3.01043
-3.13372
-3.29204
-3.4358
-3.58432
-3.73324
-3.88002
-4.03376
-4.17817
-4.32279
-4.46847
-4.61769
-4.76944
-4.91386
-5.07053
-5.20405
-5.38088
-5.47398
-5.71811
)
;
    }
    rightWall
    {
        type            calculated;
        value           nonuniform List<scalar> 
50
(
2268.44
2601.66
2731.55
2857.81
2979.34
3140.56
3197.56
3180.95
3122.97
2916.05
2714.87
2434.55
2226.7
2054.52
1921.42
1800.87
1741.17
1705.89
1682.58
1620.74
1619.99
1671.67
1629.5
1502.99
1367.77
1345.48
1335.15
1216.18
1167.45
1168.75
1162.71
1116.98
1016.27
864.35
647.374
399.726
211.182
123.306
87.3516
73.8458
70.9854
67.9879
85.22
26.5984
36.4339
27.4962
16.6156
6.24172
-9.56333
-30.5675
)
;
    }
    lowerWall
    {
        type            calculated;
        value           nonuniform List<scalar> 
62
(
738.78
738.641
673.017
595.457
501.903
461.961
343.934
385.863
294.85
317.501
557.825
532.016
599.248
650.104
748.793
719.745
796.77
887.289
1010.13
1039.71
1104.8
1120.35
1624.24
1607.92
1079.12
1017.95
954.137
893.437
826.548
761.427
620.506
138.582
-96.8761
570.66
827.743
1565.87
1330.74
1003.77
841.136
752.355
704.63
684.355
671.59
1571.86
1776.71
1720.37
1680.77
1709.69
1883.63
2049.33
2039.22
2244.09
2593.42
2049.29
2422.36
2598.79
2921.27
3058.63
2996.16
2277.22
2095.22
2274.22
)
;
    }
    atmosphere
    {
        type            calculated;
        value           nonuniform List<scalar> 
46
(
-5.7538
-5.756
-5.75918
-5.76786
-5.75668
-5.75204
-5.75035
-5.74587
-5.75222
-5.742
-5.75169
-5.74297
-5.75193
-5.7469
-5.74723
-5.74349
-5.74366
-5.74094
-5.7398
-5.74082
-5.73935
-5.73937
-5.73787
-5.73552
-5.73605
-5.7377
-5.73482
-5.73675
-5.73315
-5.73405
-5.74005
-5.73958
-5.74651
-5.75238
-5.77188
-5.77394
-5.79641
-5.80523
-5.85321
-5.89625
-6.04077
-6.29854
-9.806
-11.1187
-15.1874
-75.3053
)
;
    }
    defaultFaces
    {
        type            empty;
    }
}


// ************************************************************************* //
