/*--------------------------------*- C++ -*----------------------------------*\
| =========                 |                                                 |
| \\      /  F ield         | foam-extend: Open Source CFD                    |
|  \\    /   O peration     | Version:     4.1                                |
|   \\  /    A nd           | Web:         http://www.foam-extend.org         |
|    \\/     M anipulation  |                                                 |
\*---------------------------------------------------------------------------*/
FoamFile
{
    version     2.0;
    format      ascii;
    class       volScalarField;
    location    "0.5";
    object      pd;
}
// * * * * * * * * * * * * * * * * * * * * * * * * * * * * * * * * * * * * * //

dimensions      [1 -1 -2 0 0 0 0];

internalField   nonuniform List<scalar> 
2268
(
738.78
738.641
673.017
595.457
501.903
461.961
343.934
385.863
294.85
317.501
557.825
532.016
599.248
650.104
748.793
719.745
796.77
887.289
1010.13
1039.71
1104.8
1120.35
1624.24
741.358
741.467
674.445
594.891
499.928
459.357
338.95
382.796
287.84
288.121
529.826
530.214
596.831
629.182
714.495
769.643
778.556
874.095
1021.41
1044.05
1105.37
1114.31
1166.45
743.493
746.35
675.878
592.957
497.123
452.837
330.122
377.786
276.078
344.859
433.715
577.531
571.411
678.853
698.896
751.681
797.045
884.354
992.169
1036.91
1102.03
1132.26
1163.22
754.994
755.596
680.464
591.193
490.912
445.879
309.1
378.417
248.496
347.628
462.119
515.349
619.138
583.661
694.929
734.822
832.527
892.862
1014.3
1034.43
1113.14
1126.86
1157.09
750.055
763.786
682.487
586.025
485.98
439.734
326.293
365.983
209.418
350.248
423.826
569.056
511.917
680.008
671.215
778.192
860.16
907.941
1004.44
1020.06
1101.96
1115.36
1153.93
787.777
781.76
687.701
582.674
488.038
451.316
232.557
426.437
162.104
434.603
532.883
589.299
615.678
711.206
619.614
732.226
901.298
909.495
986.762
1019.98
1106.43
1112.12
1143.81
776.327
799.369
694.561
593.65
604.034
584.118
459.317
564.401
420.215
805.239
763.646
689.576
793.64
715.214
723.519
754.433
904.886
914.053
1009.19
1022.66
1102.45
1069.19
1136.6
802.756
871.96
790.374
808.738
1049.46
1082.29
1075.36
1169.43
1175.71
1245.45
1194.08
1165.97
839.596
891.465
834.047
721.397
976.283
924.807
1066.17
1014.05
1120.88
1067.37
1053.74
1571.86
1776.71
1720.37
1680.77
1709.69
1883.63
2049.33
2039.22
2244.09
2593.42
2049.29
2422.36
2598.79
2921.27
3058.63
2996.16
2277.22
2095.22
2274.22
1345.87
1181.65
872.02
778.92
810.4
1243.28
1756.65
2073.4
2296.75
2491.6
2175.17
2114.75
2296.71
2560.5
2800.84
3055.46
3087.77
2146.49
2624.51
1021.94
750.629
661.554
652.753
691.158
1266.36
1884.15
2127.25
2378.63
2324.14
2126.45
2219.95
2352.62
2449.26
2660.3
2757
3283.94
2837.66
2773.72
858.456
676.468
652.593
651.626
652.427
714.805
1038.98
1213.55
2067.36
2088.54
2123.24
2203.13
2452.37
2483.61
2632.99
2720.41
3047.66
3233.83
2923.07
768.074
662.376
654.516
652.318
652.347
650.296
661.565
799.65
1535.11
1703.94
1748.15
2068.07
2450.22
2305.01
2578.47
2658.93
2906.27
3416.08
3071.76
717.512
660.087
656.209
659.633
655.898
651.097
658.787
678.465
1249.3
1317.59
1543.3
1817.18
2383.96
2163.18
2481.63
2637.21
2819.97
3270.68
3271.52
694.049
662.388
662.354
704.745
677.856
654.313
717.036
1240.09
2139.94
1605.58
1820.11
2247.11
2008.36
1994.49
2393.07
2587.2
2766.69
3139.61
3367.99
676.988
671.391
703.757
982.884
819.095
662.982
728.518
1009.13
2186.99
2297.67
2228
1984.59
1726.22
1943.41
2344.12
2616.63
2762.98
3056.86
3386.85
757.779
1479.58
1606.62
1704.48
1975.03
2034.64
1933.54
1940.61
1847.85
1932.49
2017.67
1854.8
1567.69
1244.13
1004.29
1017.86
1269.98
1320.55
1474.79
1523.12
1387.96
983.976
889.266
1361.17
1369.74
1099.1
1186.71
1300.58
1231.28
812.687
794.214
619.708
718.253
1352.36
2011.4
2004.34
1712.65
1698.43
1857.47
2042.56
2165.11
2255.56
2264.84
2185.91
1215.14
794.686
1638.63
761.071
251.105
221.348
490.625
492.967
276.238
279.401
187.498
155.088
271.814
894.888
1617.24
2057.37
2188.86
2155.64
2235.28
2247.66
2270.82
2285.17
2210.05
1923.41
1001.13
1910.28
927.497
140.601
80.4765
199.14
200.664
145.988
137.155
80.4264
56.7615
52.9576
201.479
655.429
1090.75
1797.84
1962.41
2284.39
2262.06
2306.86
2150.21
2148.56
2203.21
1749.57
1919.71
1191.11
120.054
45.4736
78.9208
94.515
88.1506
69.3722
45.8982
30.9451
37.0667
44.6528
189.039
246.978
513.943
706.509
1228.68
1916.16
2125.65
2075.39
2023.21
2124.49
2250.17
2001.94
957.474
67.4329
29.3892
46.2628
52.3137
55.2366
37.9648
27.1297
18.5598
34.1193
26.2901
54.4171
120.172
368.046
1148.64
1849.08
1366.54
1690.95
1692.28
1432.59
1404.65
1414.06
904.515
56.5183
18.0615
18.2983
29.2067
25.8395
26.2687
16.0325
13.7705
13.4044
36.3597
15.7253
28.7127
51.3447
243.806
1137.52
1051.07
263.826
438.721
481.084
275.416
226.857
239.313
42.0745
30.7396
12.8843
10.9597
16.7361
11.2432
13.1657
9.10931
6.9317
12.5005
44.0213
12.3387
13.6428
20.7991
107.893
548.148
563.303
148.669
37.8526
52.8365
31.2486
29.3962
32.7209
10.1888
8.04224
4.27534
5.16288
8.45911
5.26551
4.99237
4.06789
5.25494
13.0999
48.1876
14.8308
7.55183
8.9466
48.2606
131.223
87.0948
28.4868
10.6355
11.0299
10.9491
10.7135
11.1792
5.72163
4.11417
2.54645
2.67208
3.51009
2.82761
2.35278
2.21479
3.79884
11.2258
49.6529
22.2451
3.64815
5.48607
21.6173
22.1826
3.02958
3.86149
5.40249
5.29343
5.49971
5.39421
4.7623
3.21123
2.00423
1.4665
1.35881
1.30338
1.36494
1.18713
1.02445
1.47423
3.9642
49.9895
42.5778
3.16678
4.95327
8.88008
5.21062
3.58858
3.5116
2.58518
2.78406
2.56216
2.02227
2.04627
1.96982
1.24842
1.0146
0.918171
0.924448
0.946934
0.869472
0.819829
0.914325
1.81939
38.9806
86.3032
6.82142
2.5032
3.34194
2.3662
1.70471
1.97957
1.93963
1.77626
1.21072
1.07145
1.06572
1.26823
0.977189
0.815185
0.818279
0.756859
0.757053
0.776226
0.810518
0.764321
1.82862
22.7539
119.854
21.3826
3.14377
1.12795
1.07695
1.30064
1.5694
1.43771
1.14612
0.815847
0.801669
0.598714
1.07583
0.829834
0.873215
0.77433
0.808378
0.764833
0.749381
0.725725
0.683517
1.73534
15.2781
171.953
24.9126
7.90982
1.77921
0.708982
0.8752
0.9994
1.00296
0.810071
0.703637
0.63185
0.591449
0.763297
0.746313
0.729388
0.728663
0.709498
0.715372
0.691923
0.695961
0.654439
1.37005
7.48102
146.076
7.38509
1.7994
0.818524
0.559653
0.680776
0.622401
0.673797
0.665671
0.618693
0.599195
0.494749
0.779057
0.728397
0.746026
0.708795
0.723847
0.707437
0.640636
0.749369
0.65423
1.13183
3.43886
48.3643
2.70325
1.12894
0.588366
0.513687
0.559686
0.543083
0.561507
0.557221
0.534956
0.513325
0.508843
0.663597
0.713279
0.658099
0.66508
0.66087
0.594601
0.720126
0.509075
0.645596
0.574006
0.74509
4.03228
0.796575
0.451843
0.486091
0.521691
0.519174
0.538635
0.537806
0.498184
0.540422
0.48975
0.542067
0.655496
0.627586
0.712925
0.641293
0.686951
0.627688
0.597465
0.49592
0.48386
0.515582
0.455005
0.743491
0.483174
0.421354
0.424636
0.516183
0.505507
0.485261
0.513024
0.480866
0.506106
0.487831
0.428927
0.577329
0.584171
0.544814
0.674309
0.540782
0.568823
0.572473
0.600166
0.595444
0.542952
0.519904
0.445897
0.520501
0.409721
0.477427
0.510505
0.479121
0.502881
0.481226
0.477924
0.475422
0.44896
0.495849
0.547396
0.537907
0.545896
0.495403
0.531631
0.512016
0.600025
0.550562
0.518768
0.536362
0.53541
0.543606
0.435639
0.466343
0.498362
0.4989
0.479072
0.466274
0.480524
0.48003
0.451543
0.486677
0.411446
0.489239
0.491794
0.479597
0.504851
0.468311
0.548801
0.448093
0.549536
0.539261
0.518908
0.465015
0.405085
0.468157
0.453208
0.485472
0.46801
0.457648
0.46384
0.44523
0.440664
0.461483
0.463013
0.41923
0.470234
0.460679
0.472251
0.420557
0.468547
0.527664
0.483229
0.43811
0.461578
0.464099
0.462757
0.457012
0.435531
0.467068
0.440163
0.474885
0.457012
0.425653
0.429059
0.436734
0.433147
0.444303
0.445272
0.394104
0.382388
0.366968
0.436365
0.378308
0.393199
0.425991
0.421126
0.413511
0.410547
0.412512
0.379187
0.438188
0.410586
0.446
0.369822
0.431223
0.380345
0.447264
0.418189
0.430134
0.420486
0.419534
0.402506
0.42282
0.452354
0.406
0.443627
0.354131
0.38448
0.402392
0.407912
0.412964
0.418645
0.424438
0.408293
0.44143
0.389493
0.445213
0.382896
0.417724
0.416378
0.406066
0.411423
0.40278
0.427605
0.404415
0.392889
0.383542
0.396636
0.389357
0.403142
0.399793
0.345887
0.377748
0.355162
0.339756
0.328642
0.338489
0.343368
0.384952
0.306185
0.394371
0.380774
0.4165
0.363465
0.396976
0.391008
0.393819
0.371293
0.373546
0.381951
0.371564
0.380306
0.369472
0.37003
0.392871
0.378147
0.375805
0.387708
0.380537
0.383229
0.361896
0.345318
0.357134
0.381408
0.344861
0.35102
0.363309
0.38051
0.361812
0.418268
0.352726
0.350321
0.348782
0.349622
0.34774
0.347997
0.346698
0.335121
0.337573
0.329356
0.327809
0.326889
0.325244
0.331573
0.342865
0.337502
0.332791
0.340257
0.350845
0.336085
0.354395
0.389045
0.350467
0.329404
0.329707
0.333375
0.332408
0.337424
0.337619
0.339838
0.338571
0.344518
0.334765
0.356089
0.335392
0.330545
0.311318
0.305005
0.326403
0.324941
0.338705
0.319421
0.347561
0.344446
0.334818
0.364019
0.305671
0.304767
0.30439
0.302773
0.301985
0.297738
0.2979
0.296672
0.293908
0.295746
0.287663
0.287904
0.294617
0.289885
0.316413
0.2714
0.31137
0.2879
0.302307
0.30602
0.320732
0.330195
0.337539
0.284086
0.284502
0.288706
0.292415
0.300753
0.320279
0.317456
0.292245
0.293066
0.282
0.294288
0.274086
0.279915
0.268986
0.265384
0.26338
0.274226
0.281336
0.286106
0.293311
0.31237
0.313206
0.316751
0.25554
0.257588
0.258046
0.254259
0.251798
0.237371
0.239986
0.249155
0.254615
0.258663
0.249465
0.258463
0.258645
0.2544
0.267879
0.26296
0.275943
0.257672
0.278256
0.273675
0.266116
0.2736
0.305539
0.236324
0.238442
0.240413
0.24273
0.247795
0.24402
0.250137
0.231145
0.215884
0.213656
0.227642
0.223111
0.231691
0.225602
0.231049
0.221116
0.213674
0.237313
0.237154
0.248528
0.25534
0.277501
0.274791
0.216901
0.214945
0.213593
0.210502
0.209228
0.186627
0.204211
0.206127
0.219519
0.226178
0.219124
0.235777
0.224127
0.218648
0.22292
0.221337
0.233595
0.219488
0.222011
0.242982
0.236362
0.241622
0.239294
0.196419
0.193748
0.194206
0.19461
0.192959
0.206916
0.194951
0.213229
0.191631
0.180651
0.185895
0.179564
0.183952
0.185531
0.186716
0.184819
0.179776
0.1941
0.193708
0.193817
0.198149
0.219828
0.211793
0.172391
0.171409
0.1738
0.170589
0.194619
0.165173
0.172731
0.161248
0.167556
0.181584
0.172589
0.177012
0.177142
0.173095
0.177067
0.175269
0.184263
0.178696
0.179759
0.192343
0.191264
0.197581
0.207841
0.145834
0.14728
0.14395
0.1487
0.133273
0.147757
0.142776
0.148365
0.138117
0.131298
0.128431
0.136196
0.148889
0.144874
0.143675
0.142928
0.140976
0.146166
0.144332
0.143294
0.150621
0.167824
0.156842
0.126609
0.125037
0.122648
0.122172
0.122985
0.119104
0.122792
0.121485
0.126961
0.153891
0.133924
0.130763
0.126081
0.127205
0.130531
0.131965
0.134288
0.137638
0.133741
0.138199
0.138015
0.148357
0.142555
0.0951382
0.0974553
0.0966344
0.101388
0.0930662
0.0992645
0.0944358
0.094297
0.0927199
0.0775575
0.0894783
0.0892592
0.0933941
0.0937038
0.0948019
0.0954836
0.0943242
0.100803
0.0960017
0.103578
0.109746
0.112498
0.108024
0.0868046
0.0822623
0.0755379
0.0703578
0.0678567
0.0675263
0.0583303
0.0678116
0.0755529
0.0812592
0.0813016
0.0819078
0.0807737
0.0849714
0.0899589
0.092838
0.0934359
0.0975357
0.0902206
0.0975179
0.0923889
0.0874137
0.0939511
0.0351757
0.0429819
0.0413066
0.0693041
0.0471846
0.0465477
0.0449563
0.0426928
0.0378132
0.0381639
0.0354726
0.0387568
0.0371378
0.0389881
0.0379006
0.0393094
0.0392692
0.0405808
0.0503508
0.0462569
0.0579554
0.0601595
0.0610304
0.0672708
0.0610925
0.0467233
0.00642999
0.0168918
0.0350275
0.0445028
0.0188556
0.0508703
0.0214564
0.0488268
0.0320623
0.0366239
0.0492057
0.0623617
0.062952
0.064625
0.0662492
0.0521288
0.0545631
0.0444574
0.0521916
0.0458866
-0.0516689
-0.0485992
-0.0424611
-0.0169199
-0.0169274
-0.0227155
-0.0331677
-0.00475501
-0.041237
-0.00124063
-0.0400296
-0.010552
-0.028953
-0.0237446
-0.0347041
-0.024623
-0.0281834
-0.0234461
-0.0088302
-0.0182218
-0.00566095
-0.00729625
-0.00168995
595.513
358.563
968.938
881.175
662.085
573.924
771.895
1143.95
1069.9
873.4
1186.28
1165.81
1627.89
1535.94
1457.84
1340.25
2285.49
2262.6
2235.31
2068.34
1457.31
1537.05
1704.66
1968.29
298.132
376.857
524.071
726.358
50.2465
70.3296
114.21
204.547
18.4992
30.2518
48.3843
88.2837
8.60151
21.3727
54.2885
169.384
5.24927
11.6611
21.9578
100.137
1.12027
1.36274
4.66574
21.6263
0.419242
0.585335
1.28139
2.97443
0.519032
0.389267
0.379309
0.341437
0.40896
0.417532
0.349918
0.329411
0.497504
0.463271
0.419467
0.397511
0.38959
0.41025
0.394752
0.426879
0.485869
0.50027
0.439047
0.449274
0.47135
0.46045
0.451218
0.474088
0.493786
0.468741
0.466532
0.46229
0.443521
0.413726
0.474299
0.457028
0.446396
0.476573
0.465316
0.458801
0.42078
0.427702
0.437253
0.439886
0.41667
0.438085
0.431495
0.423549
0.401103
0.411125
0.405051
0.437696
0.376013
0.394653
0.388936
0.401314
0.387284
0.384066
0.395295
0.380897
0.353859
0.361298
0.34777
0.37184
0.348503
0.348248
0.357757
0.351993
0.312379
0.324501
0.325312
0.342433
0.309727
0.301804
0.299739
0.316055
0.285738
0.289933
0.284149
0.291004
0.259829
0.25309
0.253479
0.260911
0.221875
0.233225
0.234317
0.240302
0.210912
0.211055
0.21408
0.224837
0.169359
0.163923
0.178601
0.178016
0.159991
0.161131
0.161184
0.166507
0.115931
0.113379
0.12314
0.124548
0.0995803
0.102628
0.103208
0.107215
0.0555916
0.0598253
0.0570387
0.0673097
0.0535983
0.0488977
0.0512328
0.0446612
-0.000606825
-0.000296289
-0.00686839
-0.00183248
931.177
1078.47
1235.19
2361.26
1870.32
1039.31
1636.27
1663.58
1918.95
2048.87
2302.73
1966.96
1560.3
1822.92
2306.12
2706.74
2799.98
2976.78
3397.96
1240.55
1478.98
1571.06
1508.4
1879.09
1439.82
1732.32
1857.05
2034.62
1754.44
1683.27
1528.41
1722.63
1869.59
2369.25
2915.09
2913.65
2989.7
3279.55
1130.45
1252.47
1256.14
1354.26
1065.59
1047.24
1354.94
1382.94
1517.61
1507.27
1469.61
1352.62
2035.82
2049.47
2085.85
2628.31
3006.36
3101.96
3144.01
1247.98
1256.35
1465.48
997.078
1184.98
1392.78
1837.59
2088.62
2041.93
2315.4
2327.03
2079.5
1977.47
1892.4
2134.45
2332.34
2720.36
2722.11
2916.46
1597.21
1419.04
1527.23
1163.52
1626.17
2243.82
2015.8
1971.17
1531.75
1645.49
1239.36
1107.82
910.772
865.668
1083.53
1809.51
2079.05
2628.53
2750.7
2387.57
2128.84
1789.39
1572.3
1967.37
2476.9
1126.36
1015.66
832.47
901.192
768.348
590.143
368.457
328.131
446.535
1045.77
1499.67
2532.29
2621.91
1333.16
2148.46
2437.56
2356.32
2551.35
1482.12
521.702
536.147
518.772
520.06
392.953
254.609
153.08
118.856
225.072
493.814
1140.89
2309.37
2532.51
747.475
1862.44
1925.21
1819.21
1452.55
571.516
254.403
277.695
319.598
291.437
117.748
63.0183
53.1924
62.6474
81.2534
157.548
586.133
1995.44
2454.83
467.8
1241.84
1053.37
465.051
318.144
213.751
94.567
95.9934
156.269
163.052
56.0618
19.185
19.2723
31.3723
36.0173
74.0376
559.376
2038.9
2443.89
407.7
571.353
488.826
263.61
137.214
46.0128
19.505
15.3459
50.1343
126.113
93.15
24.3044
10.582
18.0997
22.1899
76.6635
652.901
2157.28
2460.01
165.754
156.66
109.405
83.2854
36.4513
8.24787
3.14192
3.97599
18.4038
37.184
35.8387
12.8194
7.2993
11.2815
30.4141
170.103
888.484
2253.4
2487.09
41.3323
33.8461
12.4347
12.5122
6.12173
2.20555
1.71001
2.17881
5.7618
7.00427
6.13321
4.50269
4.58297
18.0262
77.1253
373.34
1346.83
2281.76
2473.85
5.19221
5.93387
1.54652
1.18997
1.02441
1.00977
1.1575
1.48306
2.31543
2.62239
2.05415
2.216
2.90073
14.2833
79.5126
434.574
1548.9
2354.9
2518.88
0.269271
0.769185
0.215199
0.383599
0.641421
0.793701
0.833724
1.13797
1.48159
1.72981
1.49768
2.72436
3.15356
6.71887
35.835
311.961
1390.56
2436.28
2612.18
0.232027
0.373034
0.416063
0.468762
0.651857
0.730871
0.80182
0.833176
1.17838
1.84887
1.89538
3.34477
4.53733
4.43583
10.0157
105.563
659.748
2195.49
2600.6
0.365573
0.364524
0.475729
0.518382
0.562665
0.604317
0.690988
0.762225
0.976352
1.4503
1.86143
3.20161
7.13777
4.73151
6.04461
35.9574
186.237
1182.23
2488.09
0.374566
0.451272
0.429049
0.549157
0.567221
0.556459
0.613665
0.642567
0.63067
0.972641
1.23387
1.80565
6.06261
5.67015
5.61706
22.0098
95.5734
745.523
2384.39
0.432533
0.482009
0.464437
0.563275
0.508411
0.603372
0.565613
0.559451
0.611455
0.525426
0.662546
0.992316
3.6234
7.30253
6.88522
21.2523
91.763
639.14
2388.91
0.403768
0.521599
0.432161
0.549952
0.534825
0.520792
0.589453
0.563878
0.511044
0.555957
0.514871
0.636509
2.8054
7.56469
8.01653
24.5924
102.264
516.256
2391.24
0.439332
0.499215
0.465067
0.521263
0.534918
0.554394
0.543776
0.56542
0.557746
0.56106
0.549653
0.58855
1.45172
6.43926
9.84254
28.2525
107.209
455.46
2269.85
0.459242
0.42686
0.521645
0.489316
0.519845
0.555491
0.549526
0.564489
0.545446
0.573187
0.521895
0.586242
1.41222
4.79774
10.5376
27.6678
94.7619
395.682
2215.35
0.476477
0.481968
0.469401
0.520951
0.518182
0.546725
0.546016
0.568949
0.563004
0.553261
0.542569
0.477881
0.798851
3.51177
11.183
21.643
67.0605
331.293
2209.7
0.453645
0.444195
0.500932
0.490394
0.525177
0.539734
0.528351
0.574831
0.552963
0.599692
0.584872
0.602014
0.811069
2.62578
11.0641
19.1485
61.2687
381.893
2191.15
0.45836
0.471388
0.473626
0.48832
0.538692
0.519986
0.560259
0.576528
0.579045
0.607502
0.607497
0.709027
1.01491
2.91278
10.6658
18.908
61.425
427.754
2119.66
0.415537
0.421466
0.469775
0.492887
0.518131
0.549295
0.530765
0.585875
0.57337
0.628697
0.647803
0.704441
0.980908
2.65617
9.18129
17.5178
63.7051
415.998
1968.48
0.402566
0.4503
0.428144
0.466533
0.496678
0.522377
0.527805
0.586015
0.574655
0.670814
0.647955
0.772829
0.787296
1.59402
5.91353
12.2832
44.9877
312.028
1728.01
0.3945
0.401523
0.427881
0.464244
0.474072
0.517526
0.533944
0.571575
0.611873
0.674285
0.709137
0.823094
1.00869
1.14211
3.26867
9.13691
25.2675
151.191
1376.87
0.374642
0.397965
0.399405
0.452372
0.46753
0.489666
0.523797
0.573307
0.611692
0.615475
0.737795
0.843823
1.09986
1.21357
1.78084
4.65906
14.9596
41.2303
960.748
0.366221
0.385946
0.392774
0.438835
0.43527
0.472375
0.504507
0.52169
0.617997
0.688181
0.717063
0.88246
1.09468
1.82485
1.68201
2.5283
11.0035
6.50257
614.744
0.3456
0.348498
0.365668
0.393114
0.413968
0.447533
0.468068
0.521061
0.595335
0.636109
0.7426
0.924283
1.03561
1.7555
1.42884
2.13939
7.60225
4.64112
432.425
0.318641
0.354117
0.349718
0.386218
0.382258
0.412115
0.476954
0.476607
0.554132
0.606257
0.705739
0.793935
1.0777
1.42161
1.89913
1.96906
6.2255
3.43287
352.692
0.286024
0.320873
0.317044
0.332659
0.361018
0.407116
0.428918
0.468416
0.526448
0.541758
0.657113
0.722428
1.05852
1.47977
1.61912
2.11754
5.03063
3.30521
321.695
0.265495
0.29414
0.303434
0.330137
0.335074
0.356734
0.389266
0.41006
0.481269
0.510382
0.513733
0.760317
1.98193
3.19996
2.25882
2.31957
4.58801
11.7228
316.991
0.239567
0.273581
0.271026
0.300841
0.299469
0.334086
0.350696
0.351998
0.402662
0.404547
0.418467
0.566829
2.40686
4.7927
3.62539
2.06603
3.87703
20.2104
309.919
0.213789
0.23866
0.255411
0.244863
0.266284
0.277317
0.302421
0.313566
0.312503
0.329546
0.3477
0.563831
1.71898
5.92893
3.36026
1.83381
8.16952
102.644
318.94
0.192603
0.19801
0.218002
0.224018
0.241827
0.264137
0.263049
0.270292
0.268525
0.29328
0.274625
0.446792
1.41769
5.76163
3.2532
1.5148
4.81535
87.1567
247.337
0.16589
0.176267
0.189179
0.191057
0.204455
0.185072
0.216251
0.210601
0.215385
0.208118
0.248938
0.36897
2.11749
6.30784
3.5272
2.16982
4.87844
67.9063
239.837
0.140305
0.130289
0.153407
0.149627
0.164243
0.162675
0.174793
0.185436
0.180839
0.186387
0.160579
0.241272
1.36464
6.34741
4.14355
2.54716
3.60279
47.0554
212.685
0.123141
0.116075
0.125544
0.135185
0.139967
0.120407
0.134788
0.111538
0.13713
0.111366
0.0908577
0.134191
0.574659
3.60047
5.28451
3.18332
2.42625
34.0692
182.982
0.0600574
0.0590995
0.0833161
0.0728705
0.0878694
0.0820472
0.087659
0.114608
0.0944304
0.0682319
0.163182
0.0547757
0.314892
0.996492
8.9128
4.57997
2.04963
21.8017
148.782
0.0508338
0.0484181
0.0534878
0.0675344
0.0598377
0.0623549
0.0773578
0.0103705
0.0713473
0.0544535
-0.052222
-0.017817
-0.168929
-0.120326
4.90182
5.30713
0.56976
13.8947
111.347
-0.00298302
-0.00240069
0.000433972
-0.00895187
-0.00706397
-0.0148344
-0.0287652
-0.0192462
-0.0496593
-0.120882
0.0127192
-0.221344
-0.0318834
-0.388517
-1.3972
1.98114
2.07021
0.256251
43.915
)
;

boundaryField
{
    leftWall
    {
        type            zeroGradient;
    }
    rightWall
    {
        type            zeroGradient;
    }
    lowerWall
    {
        type            zeroGradient;
    }
    atmosphere
    {
        type            totalPressure;
        rho             rho;
        psi             none;
        gamma           1;
        p0              uniform 0;
        value           nonuniform List<scalar> 
46
(
-0.0247586
-0.0269611
-0.0301373
-0.0388198
-0.027644
-0.0229955
-0.021313
-0.0168328
-0.0231846
-0.0129591
-0.0226466
-0.0139328
-0.0228911
-0.0178554
-0.018192
-0.0144463
-0.0146243
-0.0119042
-0.0107615
-0.0117781
-0.010306
-0.0103256
-0.00882895
-0.0064786
-0.00700603
-0.00865784
-0.00578463
-0.00771219
-0.00410714
-0.0050105
-0.0110102
-0.0105417
-0.0174682
-0.023336
-0.0428402
-0.0449033
-0.0673653
-0.0761872
-0.124164
-0.167126
-0.309986
-0.374083
0
0
0
0
)
;
    }
    defaultFaces
    {
        type            empty;
    }
}


// ************************************************************************* //
