/*--------------------------------*- C++ -*----------------------------------*\
| =========                 |                                                 |
| \\      /  F ield         | foam-extend: Open Source CFD                    |
|  \\    /   O peration     | Version:     4.1                                |
|   \\  /    A nd           | Web:         http://www.foam-extend.org         |
|    \\/     M anipulation  |                                                 |
\*---------------------------------------------------------------------------*/
FoamFile
{
    version     2.0;
    format      ascii;
    class       surfaceScalarField;
    location    "0.5";
    object      phi;
}
// * * * * * * * * * * * * * * * * * * * * * * * * * * * * * * * * * * * * * //

dimensions      [0 3 -1 0 0 0 0];

internalField   nonuniform List<scalar> 
4432
(
3.15596e-06
-3.15596e-06
9.25481e-06
-6.09886e-06
1.58124e-05
-6.55758e-06
2.09591e-05
-5.14667e-06
2.55162e-05
-4.55711e-06
3.13089e-05
-5.79274e-06
3.20641e-05
-7.55212e-07
4.02087e-05
-8.14459e-06
4.25917e-05
-2.38303e-06
6.48848e-05
-2.2293e-05
6.12239e-05
3.66083e-06
6.28132e-05
-1.5893e-06
6.20068e-05
8.06405e-07
6.1683e-05
3.23865e-07
3.76477e-05
2.40352e-05
3.9293e-05
-1.64524e-06
3.48907e-05
4.40229e-06
2.49265e-05
9.9642e-06
1.65325e-05
8.39399e-06
1.33472e-05
3.18531e-06
7.95645e-06
5.39075e-06
-1.72316e-07
8.12876e-06
-1.72316e-07
3.37389e-06
-6.52985e-06
9.54223e-06
-1.22672e-05
1.61284e-05
-1.31438e-05
2.13117e-05
-1.03299e-05
2.59804e-05
-9.22582e-06
3.16322e-05
-1.14445e-05
3.23283e-05
-1.45138e-06
4.13897e-05
-1.72059e-05
4.26529e-05
-3.64624e-06
6.15585e-05
-4.11987e-05
6.01327e-05
5.08664e-06
6.14077e-05
-2.86428e-06
6.36027e-05
-1.38863e-06
6.23695e-05
1.55707e-06
6.42482e-05
2.21565e-05
3.62165e-05
2.63865e-05
3.36679e-05
6.95084e-06
5.08662e-05
-7.23408e-06
4.21204e-05
1.71398e-05
3.63648e-05
8.94093e-06
3.12325e-05
1.0523e-05
2.7572e-05
1.17893e-05
2.73997e-05
3.4084e-06
-9.93825e-06
9.83449e-06
-1.86933e-05
1.65305e-05
-1.98398e-05
2.17898e-05
-1.55892e-05
2.6458e-05
-1.3894e-05
3.26985e-05
-1.7685e-05
3.49526e-05
-3.70553e-06
4.16123e-05
-2.38656e-05
4.02407e-05
-2.27473e-06
3.27648e-05
-3.37227e-05
5.18916e-05
-1.40401e-05
5.15268e-05
-2.49955e-06
4.9758e-05
3.80197e-07
2.8945e-05
2.237e-05
3.35294e-05
1.75721e-05
3.6331e-05
2.35849e-05
3.24751e-05
1.08068e-05
2.42003e-05
1.04073e-06
3.90831e-05
2.25702e-06
3.09469e-05
1.70771e-05
2.37943e-05
1.76756e-05
1.20806e-05
2.35029e-05
3.94803e-05
4.14213e-06
-1.40804e-05
1.06983e-05
-2.52495e-05
1.71909e-05
-2.63323e-05
2.27848e-05
-2.1183e-05
2.97712e-05
-2.08804e-05
3.64262e-05
-2.43401e-05
3.68855e-05
-4.16477e-06
4.21418e-05
-2.91219e-05
3.79617e-05
1.9054e-06
3.09332e-05
-2.66942e-05
2.6666e-05
-9.77292e-06
5.01482e-05
-2.59817e-05
2.94822e-05
2.10462e-05
5.65596e-05
-4.70738e-06
5.76805e-05
1.64512e-05
5.96233e-05
2.16422e-05
5.85981e-05
1.1832e-05
4.75466e-05
1.20922e-05
4.0424e-05
9.37966e-06
3.37922e-05
2.3709e-05
2.74632e-05
2.40046e-05
1.365e-05
3.73161e-05
5.31303e-05
3.84495e-06
-1.79253e-05
1.07708e-05
-3.21753e-05
1.81349e-05
-3.36964e-05
2.48618e-05
-2.791e-05
3.29516e-05
-2.89702e-05
3.84853e-05
-2.98738e-05
3.74933e-05
-3.17275e-06
4.16473e-05
-3.32759e-05
3.72305e-05
6.3222e-06
3.18125e-05
-2.12763e-05
5.39965e-05
-3.19569e-05
3.01558e-05
-2.14101e-06
5.29482e-05
-1.74615e-06
5.68211e-05
-8.58028e-06
5.17251e-05
2.15472e-05
4.68755e-05
2.64917e-05
4.55786e-05
1.31289e-05
4.09288e-05
1.6742e-05
4.00867e-05
1.02218e-05
3.55742e-05
2.82214e-05
2.9792e-05
2.97867e-05
1.43256e-05
5.27826e-05
6.74559e-05
5.08941e-06
-2.30147e-05
1.20628e-05
-3.91487e-05
2.06126e-05
-4.22462e-05
2.84999e-05
-3.57973e-05
3.65784e-05
-3.70488e-05
4.17002e-05
-3.49956e-05
6.75349e-05
-2.90074e-05
4.47375e-05
-1.04786e-05
7.18791e-05
-2.08194e-05
6.67751e-05
-1.61722e-05
6.1127e-05
-2.63088e-05
5.78415e-05
1.14449e-06
5.72696e-05
-1.17421e-06
3.53404e-05
1.33489e-05
6.16879e-05
-4.8003e-06
4.60599e-05
4.21197e-05
4.3586e-05
1.56028e-05
4.38551e-05
1.64729e-05
4.31495e-05
1.09275e-05
3.81845e-05
3.31864e-05
3.27654e-05
3.52058e-05
1.50681e-05
7.04799e-05
8.2524e-05
3.17362e-06
-2.61884e-05
1.17705e-05
-4.77456e-05
2.37488e-05
-5.42245e-05
3.20645e-05
-4.4113e-05
3.76574e-05
-4.26416e-05
4.30804e-05
-4.04186e-05
4.29038e-05
-2.88308e-05
4.96348e-05
-1.72096e-05
7.23361e-05
-4.35206e-05
6.87778e-05
-1.2614e-05
3.65309e-05
5.9381e-06
5.73621e-05
-1.96867e-05
3.10065e-05
2.51814e-05
3.54029e-05
8.9524e-06
3.27175e-05
-2.11489e-06
4.73102e-05
2.75271e-05
4.21429e-05
2.077e-05
4.07983e-05
1.78175e-05
4.28714e-05
8.85437e-06
4.09792e-05
3.50786e-05
3.65189e-05
3.96661e-05
3.2594e-05
7.44048e-05
0.000115118
2.11385e-06
-2.83022e-05
1.48241e-05
-6.04559e-05
2.75473e-05
-6.69477e-05
3.33584e-05
-4.99241e-05
3.87248e-05
-4.8008e-05
4.66027e-05
-4.82966e-05
7.76289e-05
-5.98569e-05
8.64431e-05
-2.60237e-05
7.82893e-05
-3.53669e-05
6.95085e-05
-3.8332e-06
6.46865e-05
1.07601e-05
3.4922e-05
1.00778e-05
5.57853e-05
4.3181e-06
5.93891e-05
5.34863e-06
2.98121e-05
2.74621e-05
1.75035e-05
3.98357e-05
2.80868e-05
1.01867e-05
2.92559e-05
1.66483e-05
2.00269e-05
1.80834e-05
4.59922e-05
9.1133e-06
4.99015e-05
3.57568e-05
3.78862e-05
8.64201e-05
0.000153004
-0.000105963
0.000105963
-0.000137559
3.15956e-05
-0.000149263
1.17041e-05
-0.000152425
3.16229e-06
-0.000146816
-5.60898e-06
-0.000134327
-1.24894e-05
-0.000133373
-9.53739e-07
-8.15304e-05
-5.18425e-05
-8.86064e-05
7.07595e-06
-0.000131604
4.29972e-05
-0.000103026
-2.85778e-05
-0.000160873
5.78474e-05
-0.000121908
-3.89652e-05
-8.67844e-05
-3.51236e-05
-5.93535e-05
-2.7431e-05
-2.45376e-05
-3.48159e-05
-1.50106e-05
-9.52701e-06
-1.32909e-05
-1.71969e-06
-1.32909e-05
-3.24097e-05
0.000138373
-6.98407e-05
6.90266e-05
-7.11578e-05
1.30211e-05
-4.70569e-05
-2.09387e-05
-2.75669e-05
-2.5099e-05
-5.12911e-05
1.12348e-05
-5.45761e-05
2.33126e-06
-7.58945e-05
-3.05241e-05
-8.57131e-05
1.68946e-05
-0.000141742
9.90259e-05
-0.000159577
-1.07428e-05
-7.6005e-05
-2.57246e-05
-6.9809e-05
-4.5161e-05
-2.79722e-05
-7.69604e-05
-1.26588e-06
-5.41373e-05
3.48775e-06
-3.95695e-05
8.7297e-06
-1.4769e-05
6.52686e-06
4.83148e-07
-6.76405e-06
-2.75642e-05
0.000165937
-5.16987e-05
9.3161e-05
-1.40319e-05
-2.46456e-05
-1.30278e-05
-2.19428e-05
-5.18798e-05
1.3753e-05
-6.89173e-05
2.82724e-05
-8.36956e-05
1.71096e-05
-9.81534e-05
-1.60663e-05
-0.000101446
2.0187e-05
-7.07822e-05
6.83623e-05
-6.65716e-05
-1.49534e-05
-4.11601e-05
-5.11361e-05
-3.03005e-05
-5.60207e-05
3.835e-06
-0.000111096
1.88446e-05
-6.91469e-05
1.78465e-05
-3.85713e-05
2.57437e-05
-2.26662e-05
1.15806e-05
1.46463e-05
4.8165e-06
-1.28785e-05
0.000178816
4.90436e-06
7.53782e-05
2.62998e-05
-4.60412e-05
1.02113e-05
-5.85427e-06
-5.77011e-06
2.97343e-05
-1.43939e-05
3.68962e-05
-2.74364e-06
5.45934e-06
5.85842e-06
-2.46684e-05
-8.34564e-06
3.43911e-05
1.23144e-05
4.77024e-05
2.58129e-05
-2.8452e-05
-4.28383e-06
-2.10393e-05
2.07951e-05
-8.10997e-05
1.92516e-05
-0.000109552
2.9591e-05
-7.94863e-05
2.99763e-05
-3.89566e-05
1.78419e-05
-1.05319e-05
1.09404e-05
2.15478e-05
1.57569e-05
5.63674e-06
0.000173179
3.04649e-05
5.05499e-05
3.85837e-05
-5.416e-05
5.38332e-05
-2.11038e-05
5.77223e-05
2.58452e-05
4.47787e-05
4.98398e-05
4.85123e-05
1.72571e-06
3.43181e-05
-1.04742e-05
7.97223e-05
-1.10131e-05
8.22698e-05
4.51549e-05
3.88633e-05
1.49544e-05
2.72133e-05
-9.38926e-06
3.13188e-05
-8.52052e-05
3.85863e-05
-0.00011682
4.45383e-05
-8.54383e-05
3.84053e-05
-3.28236e-05
2.39712e-05
3.90223e-06
1.45151e-05
3.1004e-05
3.0272e-05
1.69107e-05
0.000156268
3.68747e-05
3.05857e-05
4.10382e-05
-5.83235e-05
5.74422e-05
-3.75077e-05
6.44508e-05
1.88366e-05
4.64046e-05
6.78859e-05
6.83983e-05
-2.0268e-05
5.99574e-05
-2.03322e-06
0.000104519
-5.55744e-05
6.6798e-05
8.28755e-05
5.3904e-05
2.78485e-05
4.20754e-05
2.43939e-06
4.99623e-05
-9.30921e-05
5.31431e-05
-0.000120001
5.57683e-05
-8.80635e-05
4.95768e-05
-2.66321e-05
3.68059e-05
1.66731e-05
2.31634e-05
4.46465e-05
5.34354e-05
4.17797e-05
0.000114488
5.90889e-05
1.32765e-05
6.13718e-05
-6.06065e-05
5.74374e-05
-3.35733e-05
5.49277e-05
2.13462e-05
3.57809e-05
8.70328e-05
4.95898e-05
-3.40768e-05
3.15459e-05
1.60107e-05
2.44839e-05
-4.85125e-05
4.24256e-05
6.49338e-05
4.89254e-05
2.13487e-05
5.89356e-05
-7.57071e-06
6.82861e-05
-0.000102443
6.77734e-05
-0.000119488
6.57858e-05
-8.6076e-05
5.78906e-05
-1.8737e-05
4.25758e-05
3.19879e-05
2.60569e-05
6.11654e-05
7.94923e-05
3.02668e-05
8.42218e-05
6.90496e-05
-2.55064e-05
5.58076e-05
-4.73645e-05
2.01345e-05
2.09987e-06
1.05445e-05
3.09362e-05
3.03741e-05
6.72031e-05
4.89042e-05
-5.26068e-05
2.70579e-06
6.22091e-05
2.47224e-05
-7.05291e-05
3.09664e-05
5.86898e-05
5.15278e-05
7.87265e-07
7.5465e-05
-3.15079e-05
8.13135e-05
-0.000108291
7.53585e-05
-0.000113533
6.74615e-05
-7.8179e-05
5.90213e-05
-1.02967e-05
4.57434e-05
4.52659e-05
2.60736e-05
8.08352e-05
0.000105566
1.76558e-06
-3.00678e-05
6.04092e-05
-0.0001191
9.12758e-05
-9.78143e-05
8.56245e-05
-4.42728e-05
9.40284e-05
-5.64118e-05
0.000121424
-7.56921e-05
0.000136511
-7.49444e-05
0.000156595
-4.61079e-05
0.000162112
-4.08839e-05
0.000166206
-7.92719e-06
0.000164324
1.26424e-05
0.000121557
5.2845e-05
0.000108421
1.74545e-05
8.0879e-05
3.28901e-05
8.86973e-05
1.96438e-05
0.000125231
3.30184e-06
0.00011518
2.02381e-05
0.000121369
1.04587e-05
0.000126344
1.31088e-05
0.000119615
1.58422e-05
0.000122146
3.32262e-05
0.000116804
9.17623e-05
0.000103208
0.000166599
-6.76493e-05
3.75815e-05
-3.29148e-05
-0.000153834
-1.72249e-05
-0.000113504
-2.04993e-05
-4.09984e-05
-7.29838e-08
-7.68382e-05
5.43053e-06
-8.11956e-05
1.06885e-05
-8.02024e-05
2.79041e-05
-6.33235e-05
6.24532e-05
-7.5433e-05
0.000115309
-6.07835e-05
0.000118841
9.11083e-06
0.000127462
4.42238e-05
9.80669e-05
4.68499e-05
0.000116158
1.47994e-05
0.000115259
2.0542e-05
0.000104577
1.39847e-05
0.000120854
3.9602e-06
0.000130876
4.37412e-07
0.000126638
1.7347e-05
0.000129904
1.25761e-05
8.84925e-05
7.46373e-05
9.91325e-05
8.11223e-05
8.69268e-05
0.000115414
1.30316e-05
2.455e-05
-5.48468e-05
-8.59557e-05
-1.87983e-05
-0.000149553
1.55724e-05
-7.53691e-05
6.59473e-06
-6.78605e-05
-1.11067e-05
-6.34942e-05
3.17587e-06
-9.44849e-05
2.91667e-06
-6.30643e-05
5.27918e-06
-7.77955e-05
3.77602e-05
-9.32644e-05
0.000140624
-9.37525e-05
0.0001424
4.2447e-05
0.000140243
4.90071e-05
0.000122659
3.23834e-05
0.000106504
3.66969e-05
9.27714e-05
2.77173e-05
0.000102985
-6.25351e-06
0.000106489
-3.06668e-06
0.000114014
9.82255e-06
7.5686e-05
5.09038e-05
9.7536e-05
5.27873e-05
0.00012367
5.49886e-05
9.18723e-05
0.000118724
2.49625e-06
2.20537e-05
-1.64799e-05
-6.69796e-05
-3.95025e-05
-0.00012653
-5.8467e-06
-0.000109025
-2.79626e-05
-4.57447e-05
-2.01441e-05
-7.13127e-05
-5.91411e-06
-0.000108715
-2.0521e-05
-4.84574e-05
-2.43657e-05
-7.39509e-05
-3.87993e-05
-7.88308e-05
1.06645e-06
-0.000133618
8.31377e-05
-3.96242e-05
9.79275e-05
3.42173e-05
0.000120577
9.734e-06
0.000105673
5.1601e-05
0.000125948
7.44197e-06
0.000121167
-1.47235e-06
0.000122239
-4.13851e-06
7.94069e-05
5.26545e-05
9.06254e-05
3.96853e-05
9.59104e-05
4.75023e-05
9.79993e-05
5.28996e-05
2.84205e-05
0.000161451
1.12704e-05
1.07833e-05
9.44953e-06
-6.51587e-05
6.03406e-06
-0.000123115
-1.4197e-05
-8.87938e-05
-9.21859e-06
-5.07231e-05
-1.82512e-05
-6.228e-05
-5.15664e-05
-7.53997e-05
-3.41558e-05
-6.5868e-05
-5.79944e-05
-5.01123e-05
-5.48815e-05
-8.19437e-05
3.8171e-07
-0.000188882
3.18427e-05
-7.10851e-05
8.39821e-05
-1.7922e-05
0.000105219
-1.15033e-05
0.000154213
2.60765e-06
0.000174629
-1.29741e-05
0.000197134
-2.3978e-05
0.000191069
1.92724e-06
0.000171802
7.19209e-05
0.000168463
4.30241e-05
0.000162337
5.36286e-05
0.000154711
6.05254e-05
4.61441e-05
0.000136988
2.28195e-05
-1.20361e-05
1.17587e-05
-5.40979e-05
-9.97923e-06
-0.000101377
-1.83995e-05
-8.03736e-05
-2.76499e-05
-4.14727e-05
-1.96427e-05
-7.02872e-05
-2.30477e-05
-7.19948e-05
-2.89718e-05
-5.99438e-05
-6.61667e-05
-1.29175e-05
-5.59144e-05
-9.21961e-05
5.43655e-06
-0.000250232
1.7403e-05
-8.30516e-05
1.00935e-05
-1.06125e-05
2.44769e-05
-2.58867e-05
7.49207e-05
-4.78362e-05
9.82862e-05
-3.63396e-05
8.30588e-05
-8.75059e-06
0.000106702
-2.17164e-05
0.000135581
4.30425e-05
0.000107154
7.14506e-05
0.000116408
4.43751e-05
0.00013679
4.01431e-05
2.00406e-05
0.000162894
-5.49852e-06
-6.53763e-06
-7.81102e-06
-5.17854e-05
-1.60028e-05
-9.31849e-05
-2.90632e-05
-6.73132e-05
-2.8666e-05
-4.18699e-05
-4.45803e-05
-5.4373e-05
-4.96104e-05
-6.69646e-05
-4.29747e-05
-6.65795e-05
-4.08489e-05
-1.50433e-05
-1.87606e-05
-0.000114284
9.17875e-06
-0.000278172
6.64626e-06
-8.05192e-05
1.52869e-05
-1.92531e-05
2.47544e-05
-3.53542e-05
4.33297e-05
-6.64115e-05
8.49438e-06
-1.50425e-06
1.41535e-05
-1.44097e-05
5.98974e-05
-6.74603e-05
8.64601e-05
1.64798e-05
8.06263e-05
7.72844e-05
8.69447e-05
3.80568e-05
0.000122457
4.63054e-06
-2.65375e-05
0.000169035
7.63286e-05
-8.28662e-05
7.84647e-05
-5.39216e-05
5.33487e-05
-6.80689e-05
9.64087e-06
-2.36053e-05
-2.40038e-05
-8.22519e-06
-1.19823e-05
-6.63945e-05
-2.88866e-05
-5.00603e-05
-8.08119e-05
-1.46542e-05
-6.93089e-05
-2.65463e-05
-5.287e-06
-0.000178306
8.87579e-06
-0.000292334
2.11027e-05
-9.27462e-05
3.73941e-05
-3.55445e-05
2.87643e-05
-2.67243e-05
3.62747e-05
-7.39219e-05
2.0459e-05
1.43114e-05
1.84137e-05
-1.23644e-05
1.18429e-05
-6.08895e-05
1.97277e-05
8.59509e-06
5.70697e-05
3.99424e-05
5.7292e-05
3.78344e-05
8.79497e-05
-2.60272e-05
-9.23109e-05
0.000153723
1.69417e-05
-9.98079e-05
2.26662e-05
-5.9646e-05
1.55212e-05
-6.09239e-05
1.37425e-05
-2.18266e-05
1.84237e-06
3.67498e-06
-3.37529e-05
-3.07993e-05
-4.79344e-05
-3.58788e-05
-6.76629e-05
5.07422e-06
-6.31433e-05
-3.10658e-05
-2.18617e-05
-0.000219588
-1.42887e-05
-0.000299908
6.16835e-05
-0.000168719
4.48628e-05
-1.87239e-05
3.50355e-05
-1.6897e-05
6.95172e-06
-4.58381e-05
1.01143e-05
1.11488e-05
3.58887e-05
-3.81387e-05
1.4526e-06
-2.64534e-05
7.69847e-07
9.27786e-06
1.53255e-05
2.53867e-05
3.68264e-05
1.63336e-05
5.71701e-05
-4.63709e-05
-7.94468e-05
4.43059e-05
9.38685e-06
-0.000109195
7.13572e-06
-5.73949e-05
7.21337e-06
-6.10015e-05
1.77127e-05
-3.2326e-05
2.19987e-05
-6.1101e-07
3.09158e-06
-1.18922e-05
-1.40195e-05
-1.87677e-05
-3.91122e-05
3.01669e-05
-2.24188e-05
-4.77593e-05
-1.87803e-05
-0.000223226
-2.43227e-05
-0.000294365
1.27355e-05
-0.000205777
2.54881e-05
-3.14765e-05
1.83153e-05
-9.72427e-06
-1.02739e-05
-1.72489e-05
-1.48588e-06
2.36072e-06
-5.94064e-06
-3.36839e-05
-9.6173e-06
-2.27767e-05
7.4069e-06
-7.74634e-06
2.66197e-05
6.17393e-06
6.56631e-05
-2.27098e-05
5.30053e-05
-3.37131e-05
-8.35472e-05
5.71057e-05
-8.90188e-06
-0.000100293
-3.15928e-06
-6.31375e-05
-4.74288e-06
-5.94179e-05
1.22859e-06
-3.82974e-05
1.37792e-05
-1.31617e-05
8.54195e-06
-6.6549e-06
3.0403e-07
-1.05297e-05
2.879e-05
1.68099e-06
4.86871e-05
-6.76565e-05
-5.28166e-06
-0.000169258
-2.19547e-05
-0.000277692
-8.16791e-06
-0.000219563
2.36419e-05
-6.32862e-05
3.68282e-06
1.02348e-05
-1.33434e-05
-2.22651e-07
-1.77856e-05
6.8029e-06
-2.49089e-05
-2.65606e-05
-1.21204e-05
-3.55653e-05
-6.6745e-07
-1.91993e-05
1.83092e-05
-1.28027e-05
2.00075e-05
-2.44082e-05
6.14202e-05
-7.51258e-05
-9.26564e-05
7.05294e-05
-1.54507e-05
-8.48422e-05
-2.0737e-05
-5.78512e-05
-1.31753e-05
-6.69796e-05
-9.20006e-06
-4.22727e-05
1.5416e-05
-3.77778e-05
3.19693e-05
-2.32082e-05
4.63297e-05
-2.48901e-05
9.02758e-05
-4.22652e-05
8.209e-05
-5.94706e-05
1.67177e-05
-0.000103885
-6.50791e-06
-0.000254466
-1.31314e-06
-0.000224758
5.3367e-06
-6.9936e-05
9.89417e-06
5.67732e-06
1.41288e-06
8.25864e-06
1.2318e-06
6.98399e-06
-2.64243e-06
-2.26864e-05
-1.28481e-05
-2.53596e-05
-3.39373e-06
-2.86536e-05
5.50679e-06
-2.17032e-05
2.55053e-05
-4.44066e-05
2.2116e-05
-7.17365e-05
-9.18534e-05
2.13129e-05
-2.05952e-05
-6.42469e-05
-2.70648e-06
-7.574e-05
-1.35294e-05
-5.61567e-05
1.37012e-05
-6.95033e-05
2.00978e-05
-4.41743e-05
3.28726e-05
-3.5983e-05
4.12004e-05
-3.3218e-05
6.83833e-05
-6.9448e-05
6.04687e-05
-5.1556e-05
3.58591e-05
-7.92756e-05
1.96854e-05
-0.000238293
-6.07488e-05
-0.000144324
1.67845e-05
-0.000147469
4.88083e-05
-2.63464e-05
2.86622e-05
2.84048e-05
1.63002e-05
1.9346e-05
2.95704e-06
-9.34322e-06
-1.3321e-06
-2.10705e-05
-3.81927e-06
-2.61664e-05
3.56794e-06
-2.90904e-05
-6.07605e-06
-3.47626e-05
2.8499e-07
-7.80976e-05
-8.92912e-05
-2.27722e-06
3.75755e-06
-6.80045e-05
-6.79319e-06
-6.51892e-05
-1.37101e-06
-6.15789e-05
2.29676e-06
-7.31711e-05
2.92058e-05
-7.10834e-05
2.81631e-05
-3.49402e-05
3.5533e-05
-4.05879e-05
5.81941e-05
-9.21091e-05
3.88014e-05
-3.21633e-05
3.43568e-05
-7.4831e-05
-1.60821e-06
-0.000202328
-1.11915e-05
-0.00013474
7.19717e-06
-0.000165858
1.51965e-05
-3.43458e-05
1.32179e-05
3.03834e-05
5.5098e-06
2.7054e-05
-3.95208e-06
1.18654e-07
-1.35791e-05
-1.14435e-05
-1.96857e-05
-2.00598e-05
-2.24307e-05
-2.63455e-05
-9.63902e-06
-4.75543e-05
-4.96455e-05
-3.80911e-05
-6.89508e-05
-6.99858e-05
-1.02591e-05
-5.77454e-05
-9.20572e-06
-6.62426e-05
-3.84144e-06
-6.69432e-05
1.93275e-06
-7.89453e-05
1.09761e-05
-8.01268e-05
1.93231e-05
-4.32871e-05
3.46725e-05
-5.59374e-05
4.9989e-05
-0.000107426
6.09693e-05
-4.31436e-05
2.9492e-05
-4.33537e-05
9.63992e-06
-0.000182476
-1.26999e-05
-0.000112401
-3.986e-05
-0.000138698
-4.58097e-05
-2.8396e-05
-3.66619e-05
2.12356e-05
-1.57254e-05
6.11757e-06
-1.7017e-05
1.4102e-06
-9.05489e-06
-1.94056e-05
-9.00487e-06
-2.01098e-05
-1.62014e-05
-1.9149e-05
-2.84749e-05
-3.52807e-05
-3.85022e-05
-2.80639e-05
-3.25997e-05
-7.48533e-05
-3.58599e-06
-5.41594e-05
-7.32797e-06
-6.25006e-05
-2.69911e-06
-7.1572e-05
-1.9037e-06
-7.97407e-05
-2.15203e-07
-8.18153e-05
1.0722e-05
-5.42243e-05
1.36666e-05
-5.8882e-05
3.16697e-05
-0.000125429
4.90368e-05
-6.05107e-05
4.84872e-05
-4.28041e-05
-4.71698e-06
-0.000129272
-5.38267e-06
-0.000111735
-5.31084e-05
-9.09722e-05
-4.76469e-05
-3.38576e-05
-3.6786e-05
1.03747e-05
-2.37562e-05
-6.91224e-06
-2.24211e-05
7.51625e-08
-2.77807e-05
-1.4046e-05
-2.6528e-05
-2.13625e-05
-3.39938e-05
-1.16833e-05
-4.62089e-05
-2.30656e-05
-2.82226e-05
-4.60502e-05
-2.73368e-05
-3.34855e-05
-1.6943e-05
-3.72164e-05
-6.43406e-06
-7.30096e-05
-6.66388e-06
-7.13422e-05
-5.21659e-06
-8.1188e-05
-7.63957e-06
-7.93923e-05
-1.12104e-06
-6.07429e-05
3.39513e-05
-9.39543e-05
-8.34392e-07
-9.0643e-05
1.50501e-05
-7.63952e-05
3.59667e-05
-6.37206e-05
8.45719e-06
-0.000101762
-3.44431e-05
-6.88346e-05
-7.10216e-05
-5.43937e-05
-6.15003e-05
-4.33788e-05
-4.65308e-05
-4.59483e-06
-4.78652e-05
-5.57785e-06
-4.21238e-05
-5.66621e-06
-3.96211e-05
-1.65487e-05
-4.76679e-05
-1.33157e-05
-3.11699e-05
-2.81813e-05
-2.33797e-05
-3.08558e-05
-2.66209e-05
-4.2809e-05
-1.9948e-05
-3.40098e-05
9.47947e-06
-4.66959e-05
-1.39358e-05
-4.95943e-05
-6.9362e-06
-7.83418e-05
-1.46038e-05
-7.35204e-05
-6.74262e-06
-8.72535e-05
-1.24848e-05
-5.50007e-05
-4.37806e-06
-0.000102061
-1.41175e-05
-8.09036e-05
-1.08613e-05
-7.96514e-05
2.60311e-06
-7.7185e-05
-3.03324e-05
-6.88267e-05
-4.30671e-05
-5.60999e-05
-5.87665e-05
-3.86943e-05
-6.57766e-05
-3.63687e-05
-4.99596e-05
-2.04118e-05
-4.59032e-05
-9.63423e-06
-4.02598e-05
-1.13096e-05
-4.16011e-05
-1.52075e-05
-1.94985e-05
-3.54183e-05
-2.5783e-05
-2.18968e-05
-2.71433e-05
-2.94955e-05
-3.13009e-05
-3.86514e-05
-2.08546e-05
-3.03943e-05
5.82331e-06
-5.25192e-05
9.87692e-06
-5.36479e-05
-1.16121e-05
-5.68528e-05
-8.60917e-06
-7.65233e-05
-3.76127e-05
-5.825e-05
-3.8424e-05
-5.41894e-05
-4.01011e-05
-0.000100384
-1.95346e-05
-0.00010147
-4.04966e-05
-5.86894e-05
-5.97627e-05
-5.79189e-05
-3.48656e-05
-9.37238e-05
-4.62154e-05
-4.475e-05
-5.18836e-05
-3.30261e-05
-5.27542e-05
-3.54981e-05
-3.80062e-05
-3.51598e-05
-2.70063e-05
-2.06341e-05
-2.70406e-05
-1.12752e-05
-2.19237e-05
-2.03244e-05
-3.91693e-05
-1.81727e-05
-4.04238e-05
-2.06423e-05
-2.53058e-05
-4.46135e-05
-2.92642e-05
-3.4693e-05
-1.56233e-05
-3.44955e-05
3.63097e-06
-5.61502e-05
5.04704e-06
-5.5064e-05
5.32337e-06
-5.71291e-05
-1.60775e-05
-5.51224e-05
-1.8342e-05
-5.59854e-05
-2.12303e-05
-5.13011e-05
-2.44576e-05
-9.71566e-05
-3.76335e-05
-8.82942e-05
-4.67469e-05
-4.9576e-05
-5.84396e-05
-4.62262e-05
-7.10641e-05
-8.10994e-05
-8.0801e-05
-3.50131e-05
-4.93383e-05
-6.44888e-05
-4.07971e-05
-4.40393e-05
-5.20748e-05
-2.38821e-05
-4.69246e-05
-2.57843e-05
-2.95356e-05
-2.86643e-05
-3.23366e-05
-1.75233e-05
-2.44146e-05
-2.60948e-05
-1.95412e-05
-2.55157e-05
-4.05633e-05
-2.35914e-05
-4.75099e-05
-2.77464e-05
-3.24604e-05
-3.06728e-05
3.18647e-07
-5.64688e-05
-2.89557e-07
-5.44558e-05
-4.46604e-06
-5.29527e-05
-6.96055e-06
-5.26279e-05
-9.21209e-06
-5.37339e-05
1.12623e-05
-7.17755e-05
-2.3513e-05
-6.23812e-05
-2.1101e-05
-9.07063e-05
-2.54909e-05
-4.51861e-05
-2.77264e-05
-4.39907e-05
-5.75239e-05
-5.13019e-05
-4.21677e-05
-5.03693e-05
-7.0002e-05
-3.66545e-05
-5.9934e-05
-5.41074e-05
-5.14553e-05
-3.23608e-05
-4.45499e-05
-3.26897e-05
-4.88386e-05
-2.43755e-05
-2.87547e-05
-3.76073e-05
-3.31707e-05
-2.16788e-05
-3.06624e-05
-2.8024e-05
-1.90931e-05
-3.51606e-05
-1.78236e-05
-2.9016e-05
-2.29821e-05
-2.73019e-05
-4.24869e-07
-5.6044e-05
4.21814e-08
-5.49229e-05
-2.71973e-07
-5.26385e-05
-5.82571e-06
-4.70742e-05
-4.84204e-06
-5.47176e-05
4.87737e-06
-8.14949e-05
1.06309e-06
-5.8567e-05
-3.13458e-05
-5.82974e-05
-2.45194e-05
-5.20124e-05
-2.18261e-05
-4.6684e-05
-2.37668e-05
-4.93611e-05
-2.7259e-05
-4.68771e-05
-2.56007e-05
-3.83128e-05
-4.48187e-05
-3.48894e-05
-2.79122e-05
-4.92673e-05
-2.18406e-05
-3.87613e-05
-1.99579e-05
-2.62582e-05
-2.83298e-05
-2.92353e-05
-2.59937e-05
-2.40149e-05
-2.39801e-05
-3.00376e-05
-2.54107e-05
-3.37301e-05
-2.57084e-05
-2.87183e-05
-2.02531e-05
-2.84374e-05
-2.71063e-06
-5.33333e-05
-8.44891e-06
-4.91846e-05
-1.19487e-05
-4.91388e-05
1.69032e-05
-7.59261e-05
9.70176e-06
-4.75161e-05
-1.32324e-05
-5.85608e-05
-1.89814e-05
-5.28179e-05
-1.92984e-05
-5.79804e-05
-1.60999e-05
-5.52109e-05
-1.50483e-05
-4.77357e-05
-1.84951e-05
-4.59142e-05
-2.28424e-05
-4.25298e-05
-2.96218e-05
-3.15334e-05
-2.96267e-05
-3.48845e-05
-2.17783e-05
-5.71157e-05
-3.07469e-05
-2.97928e-05
-2.9533e-05
-2.74721e-05
-2.66846e-05
-3.20838e-05
-1.83809e-05
-3.23186e-05
-1.96316e-05
-2.87869e-05
-1.86717e-05
-3.469e-05
-1.47826e-05
-3.26075e-05
-1.93513e-05
-1.56844e-05
-1.55236e-05
-3.78097e-05
5.73021e-07
-6.52812e-05
1.0165e-05
-5.87307e-05
-8.64487e-07
-6.48966e-05
1.193e-05
-6.03106e-05
4.02932e-06
-5.06602e-05
-5.35225e-06
-4.34363e-05
-1.22988e-05
-5.10338e-05
-2.12372e-05
-4.62725e-05
-2.53556e-05
-4.36173e-05
-2.68823e-05
-4.43874e-05
-2.74198e-05
-4.19923e-05
-2.41261e-05
-3.48271e-05
-2.52078e-05
-3.38027e-05
-4.59351e-05
-3.63884e-05
-2.04752e-05
-5.52526e-05
-1.69625e-05
-3.09848e-05
-2.4888e-05
-2.41584e-05
-1.57953e-05
-4.14113e-05
-2.4283e-05
-2.02992e-05
-2.42587e-05
-3.47143e-05
-2.26125e-05
-3.42537e-05
-2.69179e-05
-1.50459e-05
1.12974e-05
-4.91071e-05
2.74441e-06
-5.67282e-05
-3.29737e-06
-5.2689e-05
-9.26531e-06
-5.89286e-05
-1.49686e-05
-5.46073e-05
-4.07347e-06
-6.15553e-05
9.33002e-06
-5.68398e-05
-1.28342e-07
-4.15754e-05
-9.26277e-06
-3.71381e-05
-1.37092e-05
-3.91709e-05
-1.96597e-05
-3.84369e-05
-2.28856e-05
-3.87664e-05
-2.04133e-05
-3.72994e-05
-1.31017e-05
-4.11143e-05
-1.24604e-05
-3.70298e-05
-2.76884e-05
-4.00245e-05
-3.44204e-05
-2.42528e-05
-1.10291e-05
-4.75496e-05
-2.77447e-05
-2.46957e-05
-2.00697e-05
-2.79742e-05
-1.90983e-05
-3.56857e-05
-1.69294e-05
-3.64226e-05
-2.48396e-05
-1.90076e-05
-1.14713e-06
-4.796e-05
-1.48623e-06
-5.63891e-05
-5.56853e-08
-5.41195e-05
-3.5993e-06
-5.5385e-05
-4.9613e-06
-5.32453e-05
-1.24213e-05
-5.40953e-05
-1.77132e-05
-5.1548e-05
-9.43842e-06
-4.98502e-05
-1.81575e-05
-2.84191e-05
-2.87579e-05
-2.85705e-05
-2.12125e-05
-4.59823e-05
-1.13932e-05
-4.85857e-05
-3.1574e-07
-4.83768e-05
-8.30492e-06
-3.31251e-05
-1.42464e-05
-3.10884e-05
-2.17665e-05
-3.25044e-05
-3.95594e-06
-4.20634e-05
-2.17992e-05
-2.97063e-05
-1.74344e-05
-2.90606e-05
-1.55668e-05
-2.98418e-05
-1.66386e-05
-3.46139e-05
-1.72723e-05
-3.57889e-05
-2.31794e-05
-1.89325e-05
1.70972e-06
-4.96697e-05
4.78183e-07
-5.51576e-05
-1.27731e-06
-5.2364e-05
-3.63014e-06
-5.30322e-05
-5.12762e-06
-5.17478e-05
-4.82141e-06
-5.44015e-05
-5.38141e-06
-5.0988e-05
-8.18313e-06
-4.70485e-05
-1.06349e-05
-2.59673e-05
-1.3226e-05
-2.59794e-05
-1.76042e-05
-4.16041e-05
-2.18365e-05
-4.43533e-05
-2.38466e-05
-4.63667e-05
-1.07397e-05
-4.6232e-05
-1.41892e-05
-2.76389e-05
-8.90392e-06
-3.77897e-05
-2.29483e-05
-2.8019e-05
-8.56357e-06
-4.40911e-05
-1.28747e-05
-2.47495e-05
-1.74758e-05
-2.52407e-05
-1.21653e-05
-3.99244e-05
-2.40653e-05
-2.38888e-05
-3.14086e-05
-1.58361e-05
-3.32184e-07
-4.93375e-05
-9.93659e-07
-5.44961e-05
-1.1943e-06
-5.21634e-05
-3.56931e-06
-5.06572e-05
-4.85681e-06
-5.04603e-05
-6.93098e-06
-5.23273e-05
-9.48771e-06
-4.84312e-05
-9.94033e-06
-4.65959e-05
-1.20006e-05
-2.3907e-05
-1.31288e-05
-2.48512e-05
-1.21416e-05
-4.25914e-05
-1.43025e-05
-4.21923e-05
-1.48291e-05
-4.58402e-05
-1.60806e-05
-4.49805e-05
-1.91974e-05
-2.45221e-05
-1.00127e-05
-4.69744e-05
-1.55748e-05
-2.24569e-05
-2.16437e-05
-3.80222e-05
-1.03101e-05
-3.6083e-05
-1.80614e-06
-3.37447e-05
-1.65815e-05
-2.5149e-05
-1.60689e-05
-2.44015e-05
-2.96864e-05
-1.77911e-05
5.82158e-07
-4.99197e-05
4.74638e-07
-5.43886e-05
2.03962e-07
-5.18927e-05
-1.22345e-06
-4.92298e-05
-2.46782e-06
-4.9216e-05
-4.58191e-06
-5.02133e-05
-6.30756e-06
-4.67056e-05
-5.90597e-06
-4.69974e-05
-3.324e-06
-2.6489e-05
-1.48204e-06
-2.66932e-05
-1.60998e-05
-2.79736e-05
-1.26045e-05
-4.56876e-05
-1.31671e-05
-4.52775e-05
-1.26088e-05
-4.55387e-05
1.03672e-08
-3.71413e-05
-1.21516e-05
-3.48124e-05
-3.39147e-06
-3.12171e-05
-1.28493e-05
-2.85643e-05
-1.14048e-05
-3.75276e-05
-8.6555e-06
-3.6494e-05
-1.49922e-05
-1.88123e-05
-1.01641e-05
-2.92296e-05
-2.447e-05
-1.53806e-05
-1.55476e-08
-4.99042e-05
-3.44561e-07
-5.40596e-05
-9.57491e-07
-5.12798e-05
-3.36909e-06
-4.68182e-05
-5.12027e-06
-4.74648e-05
-5.15128e-06
-5.01823e-05
-7.22187e-06
-4.4635e-05
-7.63923e-06
-4.65801e-05
-8.554e-06
-2.55742e-05
-8.43934e-06
-2.68078e-05
-8.99015e-06
-2.74228e-05
-8.04396e-06
-4.66338e-05
-8.72802e-06
-4.45935e-05
-8.93094e-06
-4.53358e-05
-7.41618e-06
-3.8656e-05
-1.32468e-05
-2.89817e-05
-1.36642e-05
-3.07997e-05
-1.4508e-05
-2.77205e-05
-1.74986e-05
-3.4537e-05
-1.27782e-05
-4.12145e-05
-3.2838e-06
-2.83067e-05
-1.18046e-05
-2.07088e-05
-2.46536e-05
-1.1621e-05
6.16704e-07
-5.05209e-05
8.90087e-07
-5.4333e-05
1.94982e-06
-5.23395e-05
3.47013e-06
-4.83385e-05
8.46531e-06
-5.24599e-05
-6.40478e-06
-3.53122e-05
-1.97795e-05
-3.12603e-05
-1.5051e-05
-5.13086e-05
-1.10364e-05
-2.95889e-05
-8.9085e-06
-2.89357e-05
-6.96758e-06
-2.93637e-05
-8.84974e-06
-4.47517e-05
-1.01233e-05
-4.33199e-05
-1.13811e-05
-4.4078e-05
-1.26229e-05
-3.74143e-05
-4.03743e-06
-3.75672e-05
-8.2115e-07
-3.4016e-05
-7.5175e-06
-2.10242e-05
-4.05085e-06
-3.80036e-05
-5.57139e-06
-3.96939e-05
-1.27893e-05
-2.10888e-05
-1.35729e-05
-1.99253e-05
-2.5286e-05
-1.29404e-05
1.87967e-08
-5.05397e-05
-2.91063e-07
-5.40231e-05
-2.65807e-07
-5.23648e-05
-1.75578e-06
-4.68485e-05
-4.08526e-06
-5.01305e-05
-4.49694e-06
-3.49005e-05
-5.0965e-06
-3.06607e-05
-3.91026e-06
-5.24948e-05
-3.28351e-06
-3.02156e-05
-4.35609e-06
-2.78631e-05
-3.97769e-06
-2.97421e-05
-6.50039e-06
-4.2229e-05
-7.29787e-06
-4.25224e-05
-7.34946e-06
-4.40264e-05
-6.43964e-06
-3.83241e-05
-4.96594e-06
-3.90409e-05
-1.53734e-05
-2.36085e-05
-3.66881e-06
-3.27288e-05
-1.5357e-05
-2.63155e-05
-2.25095e-05
-3.25414e-05
-1.05716e-05
-3.30267e-05
-4.08543e-07
-3.00883e-05
-1.71897e-05
-8.50488e-06
1.77908e-07
-5.07176e-05
3.95428e-07
-5.42406e-05
8.00417e-07
-5.27698e-05
2.61633e-07
-4.63097e-05
-2.69708e-07
-4.95991e-05
-6.75428e-06
-2.84159e-05
-8.77687e-06
-2.86381e-05
-1.73743e-05
-4.38974e-05
-5.78865e-06
-4.18013e-05
4.12221e-06
-3.7774e-05
-9.04872e-07
-2.4715e-05
-4.23374e-06
-3.89001e-05
-6.46988e-06
-4.02863e-05
-8.04292e-06
-4.24534e-05
-8.17779e-06
-3.81892e-05
-1.07665e-05
-3.64522e-05
1.30947e-06
-3.56845e-05
4.34807e-07
-3.18541e-05
-4.07645e-06
-2.18042e-05
-4.38175e-06
-3.22361e-05
-4.79043e-06
-3.2618e-05
-1.65374e-05
-1.83413e-05
-2.50204e-05
-8.70672e-06
-3.78849e-07
-5.03387e-05
-6.11968e-07
-5.40075e-05
-1.41852e-06
-5.19632e-05
-3.34491e-06
-4.43834e-05
-9.66263e-06
-4.32814e-05
3.65051e-06
-4.1729e-05
1.41215e-06
-2.63998e-05
-6.59394e-07
-4.18258e-05
-1.14619e-06
-4.13145e-05
7.24853e-07
-3.9645e-05
1.92204e-06
-2.59122e-05
-1.16788e-05
-2.52992e-05
-8.16622e-06
-4.37989e-05
-6.39647e-06
-4.42231e-05
-4.52085e-06
-4.00648e-05
-4.14462e-06
-3.68284e-05
-5.89977e-06
-3.39293e-05
-3.42738e-06
-3.43265e-05
5.01846e-06
-3.025e-05
-5.24454e-06
-2.19731e-05
-1.88152e-05
-1.90474e-05
-3.88312e-06
-3.32734e-05
-2.20405e-05
-6.86299e-06
-2.27725e-07
-5.0111e-05
-7.07889e-07
-5.35274e-05
-4.20264e-07
-5.22508e-05
-1.25786e-06
-4.35458e-05
-6.21288e-07
-4.3918e-05
2.34577e-06
-4.46961e-05
1.1566e-06
-2.52106e-05
-1.33561e-05
-2.73131e-05
-7.0058e-06
-4.76647e-05
-3.92815e-06
-4.27227e-05
-1.9538e-06
-2.78866e-05
-2.86646e-06
-2.43865e-05
-5.47176e-06
-4.11936e-05
-5.99573e-06
-4.36991e-05
-5.52414e-06
-4.05364e-05
-4.57801e-06
-3.77745e-05
-3.90154e-06
-3.46058e-05
-3.69551e-06
-3.45325e-05
-5.16119e-06
-2.87844e-05
-3.92939e-06
-2.32049e-05
1.70662e-06
-2.46834e-05
-1.11603e-05
-2.04065e-05
-2.977e-05
-3.43075e-06
-1.41937e-08
-5.00968e-05
-5.64577e-08
-5.34851e-05
2.22002e-06
-5.45273e-05
3.36477e-06
-4.46905e-05
-1.00281e-05
-3.05251e-05
-4.12494e-06
-5.05993e-05
-1.90575e-06
-2.74298e-05
-3.36823e-06
-2.58507e-05
-2.20164e-06
-4.88313e-05
-3.3754e-06
-4.15489e-05
-4.61831e-06
-2.66437e-05
-5.83406e-06
-2.31708e-05
-5.17469e-06
-4.1853e-05
-5.29796e-06
-4.35759e-05
-3.89237e-06
-4.1942e-05
-3.49781e-06
-3.81691e-05
-3.13963e-06
-3.4964e-05
-2.57021e-06
-3.51019e-05
7.32763e-07
-3.20873e-05
-2.58417e-06
-1.9888e-05
-6.88367e-07
-2.65792e-05
5.11105e-07
-2.1606e-05
-2.11209e-05
-8.13794e-06
-5.17309e-07
-4.95795e-05
-5.97528e-07
-5.34049e-05
-7.42654e-07
-5.43822e-05
-2.6026e-07
-4.51729e-05
-2.84884e-06
-2.79365e-05
-2.02801e-06