/*--------------------------------*- C++ -*----------------------------------*\
| =========                 |                                                 |
| \\      /  F ield         | foam-extend: Open Source CFD                    |
|  \\    /   O peration     | Version:     4.1                                |
|   \\  /    A nd           | Web:         http://www.foam-extend.org         |
|    \\/     M anipulation  |                                                 |
\*---------------------------------------------------------------------------*/
FoamFile
{
    version     2.0;
    format      ascii;
    class       surfaceScalarField;
    location    "0.5";
    object      phi_0;
}
// * * * * * * * * * * * * * * * * * * * * * * * * * * * * * * * * * * * * * //

dimensions      [0 3 -1 0 0 0 0];

internalField   nonuniform List<scalar> 
4432
(
3.1129e-06
-3.1129e-06
9.10046e-06
-5.98756e-06
1.55844e-05
-6.4839e-06
2.07269e-05
-5.14254e-06
2.5328e-05
-4.60113e-06
3.11709e-05
-5.84282e-06
3.19948e-05
-8.23963e-07
4.02737e-05
-8.27886e-06
4.27269e-05
-2.45322e-06
6.51936e-05
-2.24667e-05
6.1594e-05
3.59957e-06
6.32236e-05
-1.62962e-06
6.2433e-05
7.90617e-07
6.20912e-05
3.41767e-07
3.78989e-05
2.41923e-05
3.95351e-05
-1.63617e-06
3.50977e-05
4.4374e-06
2.50939e-05
1.00038e-05
1.66654e-05
8.42843e-06
1.35164e-05
3.14904e-06
8.10152e-06
5.41487e-06
-1.51667e-07
8.25318e-06
-1.51667e-07
3.33102e-06
-6.44391e-06
9.38269e-06
-1.20392e-05
1.58938e-05
-1.29951e-05
2.10744e-05
-1.03231e-05
2.57855e-05
-9.31224e-06
3.14776e-05
-1.15349e-05
3.22486e-05
-1.59504e-06
4.14545e-05
-1.74848e-05
4.28045e-05
-3.80315e-06
6.18677e-05
-4.15299e-05
6.04819e-05
4.98541e-06
6.18102e-05
-2.958e-06
6.40305e-05
-1.42962e-06
6.27783e-05
1.59392e-06
6.4646e-05
2.23247e-05
3.64513e-05
2.65585e-05
3.38815e-05
7.00725e-06
5.11725e-05
-7.28721e-06
4.23612e-05
1.72398e-05
3.65909e-05
8.91928e-06
3.14426e-05
1.05632e-05
2.77426e-05
1.19531e-05
2.7591e-05
3.3649e-06
-9.80882e-06
9.66275e-06
-1.83371e-05
1.62859e-05
-1.96182e-05
2.15448e-05
-1.5582e-05
2.62437e-05
-1.40112e-05
3.2536e-05
-1.78271e-05
3.48827e-05
-3.94176e-06
4.16533e-05
-2.42554e-05
4.03674e-05
-2.51725e-06
3.29542e-05
-3.41166e-05
5.22766e-05
-1.4337e-05
5.19395e-05
-2.62089e-06
5.01714e-05
3.38481e-07
2.91785e-05
2.25868e-05
3.37632e-05
1.77399e-05
3.6568e-05
2.37537e-05
3.26854e-05
1.08898e-05
2.43749e-05
1.02328e-06
3.93503e-05
2.2644e-06
3.11367e-05
1.71329e-05
2.39298e-05
1.77701e-05
1.21599e-05
2.3723e-05
3.97509e-05
4.09978e-06
-1.39086e-05
1.05088e-05
-2.47461e-05
1.69286e-05
-2.6038e-05
2.25319e-05
-2.11853e-05
2.9548e-05
-2.10274e-05
3.62476e-05
-2.45267e-05
3.67976e-05
-4.4917e-06
4.21521e-05
-2.961e-05
3.80425e-05
1.59237e-06
3.11221e-05
-2.71962e-05
2.6867e-05
-1.00819e-05
5.05744e-05
-2.63283e-05
2.97493e-05
2.11636e-05
5.69723e-05
-4.63622e-06
5.80635e-05
1.66487e-05
6.00024e-05
2.18148e-05
5.89415e-05
1.19507e-05
4.78372e-05
1.21276e-05
4.07143e-05
9.38732e-06
3.40223e-05
2.38249e-05
2.76363e-05
2.41561e-05
1.37475e-05
3.76118e-05
5.34984e-05
3.8099e-06
-1.77185e-05
1.05651e-05
-3.15013e-05
1.78552e-05
-3.33281e-05
2.46032e-05
-2.79333e-05
3.27316e-05
-2.91557e-05
3.82747e-05
-3.00698e-05
3.73077e-05
-3.52464e-06
4.15894e-05
-3.38916e-05
3.72982e-05
5.88348e-06
3.20042e-05
-2.19021e-05
5.44e-05
-3.24778e-05
3.04298e-05
-2.35807e-06
5.33777e-05
-1.78437e-06
5.72808e-05
-8.53931e-06
5.21059e-05
2.18237e-05
4.72377e-05
2.6683e-05
4.59343e-05
1.32541e-05
4.12564e-05
1.68055e-05
4.03992e-05
1.02445e-05
3.58442e-05
2.83799e-05
2.99925e-05
3.00077e-05
1.44183e-05
5.31859e-05
6.79168e-05
5.04683e-06
-2.27653e-05
1.18253e-05
-3.82797e-05
2.02948e-05
-4.17976e-05
2.82099e-05
-3.58484e-05
3.63063e-05
-3.72522e-05
4.14091e-05
-3.51726e-05
6.71808e-05
-2.92964e-05
4.47493e-05
-1.14601e-05
7.19764e-05
-2.13436e-05
6.70363e-05
-1.69619e-05
6.1481e-05
-2.69225e-05
5.83039e-05
8.19031e-07
5.77085e-05
-1.18897e-06
3.55899e-05
1.35793e-05
6.20651e-05
-4.65146e-06
4.64102e-05
4.23379e-05
4.39793e-05
1.5685e-05
4.42494e-05
1.65354e-05
4.35328e-05
1.09611e-05
3.84922e-05
3.34206e-05
3.29656e-05
3.55343e-05
1.51545e-05
7.09971e-05
8.30713e-05
3.15486e-06
-2.59202e-05
1.1482e-05
-4.66069e-05
2.33708e-05
-5.36863e-05
3.17326e-05
-4.42102e-05
3.73707e-05
-4.28903e-05
4.27889e-05
-4.05908e-05
4.27573e-05
-2.92648e-05
4.94932e-05
-1.81961e-05
7.23452e-05
-4.41956e-05
6.90204e-05
-1.36371e-05
3.67613e-05
5.33657e-06
5.78905e-05
-2.03102e-05
3.12817e-05
2.54198e-05
3.56831e-05
9.17792e-06
3.29879e-05
-1.9562e-06
4.77061e-05
2.76196e-05
4.24799e-05
2.09112e-05
4.1164e-05
1.78514e-05
4.32698e-05
8.85528e-06
4.13214e-05
3.5369e-05
3.67318e-05
4.01239e-05
3.27738e-05
7.49551e-05
0.000115845
2.12708e-06
-2.80473e-05
1.43982e-05
-5.88781e-05
2.71409e-05
-6.6429e-05
3.30377e-05
-5.0107e-05
3.84361e-05
-4.82887e-05
4.63248e-05
-4.84795e-05
7.74553e-05
-6.03953e-05
8.6381e-05
-2.71218e-05
7.84903e-05
-3.63049e-05
7.01611e-05
-5.3079e-06
6.53838e-05
1.01138e-05
3.5364e-05
9.70972e-06
5.62892e-05
4.49454e-06
5.97767e-05
5.6904e-06
3.00345e-05
2.77861e-05
1.76887e-05
3.99654e-05
2.83989e-05
1.02009e-05
2.95935e-05
1.66568e-05
2.02978e-05
1.8151e-05
4.65227e-05
9.14412e-06
5.02366e-05
3.64099e-05
3.80617e-05
8.713e-05
0.000153907
-0.000106205
0.000106205
-0.000137933
3.17285e-05
-0.000149496
1.15624e-05
-0.000152475
2.9796e-06
-0.00014698
-5.49542e-06
-0.000134347
-1.2633e-05
-0.000133138
-1.20846e-06
-8.14326e-05
-5.17058e-05
-8.86382e-05
7.20559e-06
-0.000131596
4.29579e-05
-0.000103136
-2.84601e-05
-0.000161431
5.82948e-05
-0.000122128
-3.9303e-05
-8.63094e-05
-3.58184e-05
-5.89534e-05
-2.73561e-05
-2.41479e-05
-3.48055e-05
-1.49533e-05
-9.19458e-06
-1.3582e-05
-1.37129e-06
-1.3582e-05
-3.22391e-05
0.000138444
-7.00452e-05
6.95346e-05
-7.19246e-05
1.34418e-05
-4.77499e-05
-2.11952e-05
-2.77303e-05
-2.55151e-05
-5.06807e-05
1.03174e-05
-5.42581e-05
2.36891e-06
-7.57021e-05
-3.02618e-05
-8.56901e-05
1.71936e-05
-0.000141758
9.90255e-05
-0.00015969
-1.05277e-05
-7.61065e-05
-2.52889e-05
-6.96638e-05
-4.57456e-05
-2.7588e-05
-7.78942e-05
-1.19039e-06
-5.37536e-05
3.58136e-06
-3.95773e-05
8.5211e-06
-1.41343e-05
6.32443e-06
8.25381e-07
-7.25758e-06
-2.72692e-05
0.000165713
-5.20148e-05
9.42803e-05
-1.43057e-05
-2.42674e-05
-1.22444e-05
-2.32564e-05
-4.98261e-05
1.20666e-05
-6.83201e-05
2.88114e-05
-8.36357e-05
1.76846e-05
-9.79323e-05
-1.59652e-05
-0.00010148
2.07414e-05
-7.07739e-05
6.83193e-05
-6.66659e-05
-1.46357e-05
-4.10663e-05
-5.08886e-05
-2.95288e-05
-5.72831e-05
4.28538e-06
-0.000111708
1.91508e-05
-6.8619e-05
1.79666e-05
-3.83931e-05
2.57902e-05
-2.1958e-05
1.15852e-05
1.50304e-05
4.32766e-06
-1.25548e-05
0.000178268
5.14285e-06
7.65827e-05
2.64403e-05
-4.55649e-05
1.18724e-05
-8.68849e-06
-4.90535e-06
2.88443e-05
-1.44686e-05
3.83747e-05
-2.54936e-06
5.76541e-06
5.75316e-06
-2.42677e-05
-8.29495e-06
3.47895e-05
1.22897e-05
4.77346e-05
2.55408e-05
-2.78868e-05
-4.06002e-06
-2.12877e-05
2.16276e-05
-8.29707e-05
1.96705e-05
-0.000109751
2.99542e-05
-7.89027e-05
3.02339e-05
-3.86728e-05
1.80662e-05
-9.79023e-06
1.11066e-05
2.19899e-05
1.54343e-05
5.63296e-06
0.000172635
3.07859e-05
5.14296e-05
3.86033e-05
-5.33824e-05
5.33335e-05
-2.34186e-05
5.7535e-05
2.46429e-05
4.39116e-05
5.19979e-05
4.83592e-05
1.31784e-06
3.39375e-05
-9.846e-06
7.89972e-05
-1.02702e-05
8.18489e-05
4.48829e-05
3.90469e-05
1.49152e-05
2.76223e-05
-9.86307e-06
3.17067e-05
-8.70551e-05
3.89867e-05
-0.000117031
4.48438e-05
-8.47598e-05
3.86738e-05
-3.25027e-05
2.42613e-05
4.6222e-06
1.47164e-05
3.15349e-05
3.01506e-05
1.72407e-05
0.000155394
3.69501e-05
3.17201e-05
4.09178e-05
-5.73501e-05
5.71203e-05
-3.96212e-05
6.45051e-05
1.72581e-05
4.552e-05
7.0983e-05
6.81829e-05
-2.13451e-05
6.09729e-05
-2.63598e-06
0.000105513
-5.48104e-05
6.63213e-05
8.40747e-05
5.40549e-05
2.71816e-05
4.26345e-05
1.55738e-06
5.03367e-05
-9.47573e-05
5.35124e-05
-0.000120207
5.60573e-05
-8.73047e-05
4.9778e-05
-2.62234e-05
3.70423e-05
1.73579e-05
2.33599e-05
4.52173e-05
5.35105e-05
4.29219e-05
0.000112472
5.88047e-05
1.58374e-05
6.07451e-05
-5.92906e-05
5.71582e-05
-3.60342e-05
5.45763e-05
1.984e-05
3.55802e-05
8.9979e-05
4.737e-05
-3.31349e-05
3.18959e-05
1.28381e-05
2.37319e-05
-4.66463e-05
4.2155e-05
6.56515e-05
4.93243e-05
2.00123e-05
5.94657e-05
-8.58391e-06
6.85291e-05
-0.000103821
6.81531e-05
-0.000119831
6.61492e-05
-8.53008e-05
5.81194e-05
-1.81936e-05
4.27546e-05
3.27226e-05
2.61898e-05
6.17822e-05
7.97003e-05
3.11027e-05
8.13698e-05
6.98505e-05
-2.29106e-05
5.63631e-05
-4.58032e-05
2.0019e-05
3.09949e-07
1.06511e-05
2.92079e-05
3.02139e-05
7.04163e-05
4.7574e-05
-5.0495e-05
2.1765e-06
5.82356e-05
2.4967e-05
-6.94369e-05
3.11693e-05
5.94493e-05
5.21355e-05
-9.53938e-07
7.60411e-05
-3.24895e-05
8.14067e-05
-0.000109186
7.55565e-05
-0.000113981
6.77285e-05
-7.74728e-05
5.92401e-05
-9.70519e-06
4.59385e-05
4.60241e-05
2.6177e-05
8.15437e-05
0.000105877
2.28139e-06
-3.03286e-05
6.12606e-05
-0.000117857
9.28991e-05
-9.80676e-05
8.74994e-05
-4.47073e-05
9.56358e-05
-5.6425e-05
0.000123193
-7.60365e-05
0.000137939
-7.51416e-05
0.000157787
-4.69701e-05
0.000163256
-4.17739e-05
0.000167646
-9.69751e-06
0.000165347
1.24131e-05
0.00012251
5.25467e-05
0.000109317
1.76874e-05
8.14767e-05
3.35305e-05
8.93064e-05
1.99564e-05
0.000126058
3.2138e-06
0.000116098
2.01613e-05
0.000122195
1.05595e-05
0.000126977
1.33686e-05
0.00012005
1.60712e-05
0.000122535
3.39256e-05
0.000117237
9.24274e-05
0.00010366
0.000167484
-6.6095e-05
3.57664e-05
-3.01496e-05
-0.000153803
-1.55775e-05
-0.00011264
-1.90248e-05
-4.12601e-05
8.16119e-07
-7.62659e-05
6.12555e-06
-8.13459e-05
1.1378e-05
-8.0394e-05
2.88555e-05
-6.44477e-05
6.36983e-05
-7.66167e-05
0.000115828
-6.18267e-05
0.000117637
1.06038e-05
0.000126135
4.40488e-05
9.82009e-05
4.56211e-05
0.000116701
1.50301e-05
0.000115654
2.10039e-05
0.000105168
1.36996e-05
0.000121617
3.71269e-06
0.000131525
6.51406e-07
0.000126729
1.81642e-05
0.00012985
1.29499e-05
8.85669e-05
7.52092e-05
9.93491e-05
8.16452e-05
8.7149e-05
0.00011586
1.113e-05
2.46364e-05
-5.5974e-05
-8.66987e-05
-1.82103e-05
-0.000150403
1.59986e-05
-7.5469e-05
7.09851e-06
-6.73658e-05
-1.0866e-05
-6.33814e-05
3.31535e-06
-9.45754e-05
3.07637e-06
-6.42087e-05
5.79376e-06
-7.93341e-05
3.85884e-05
-9.46214e-05
0.000141447
-9.22551e-05
0.000142645
4.28511e-05
0.00014017
4.80959e-05
0.00012225
3.29506e-05
0.000106545
3.67084e-05
9.34043e-05
2.68405e-05
0.000103766
-6.64919e-06
0.000106987
-2.56941e-06
0.000114566
1.05853e-05
7.57339e-05
5.17818e-05
9.7667e-05
5.32761e-05
0.000123988
5.53244e-05
9.17946e-05
0.000119342
1.77063e-06
2.28657e-05
-1.71151e-05
-6.78129e-05
-4.01692e-05
-0.000127349
-5.90208e-06
-0.000109736
-2.75837e-05
-4.56842e-05
-1.98793e-05
-7.10858e-05
-5.27858e-06
-0.000109176
-2.00874e-05
-4.93998e-05
-2.39858e-05
-7.54357e-05
-3.84981e-05
-8.0109e-05
1.32581e-06
-0.000132079
8.38947e-05
-3.97178e-05
9.7666e-05
3.43246e-05
0.000120351
1.02658e-05
0.00010565
5.1409e-05
0.000126347
6.14402e-06
0.000121916
-2.21873e-06
0.000123049
-3.70234e-06
7.91734e-05
5.44612e-05
9.06093e-05
4.03459e-05
9.60939e-05
4.77916e-05
9.83777e-05
5.30405e-05
2.77986e-05
0.000162374
1.15439e-05
1.13219e-05
8.67958e-06
-6.49486e-05
5.40824e-06
-0.000124078
-1.39287e-05
-9.03991e-05
-8.97575e-06
-5.06371e-05
-1.77036e-05
-6.2358e-05
-5.11402e-05
-7.57395e-05
-3.36627e-05
-6.68773e-05
-5.70608e-05
-5.20377e-05
-5.45667e-05
-8.26031e-05
1.49284e-07
-0.000186795
3.21132e-05
-7.16817e-05
8.43068e-05
-1.7869e-05
0.00010568
-1.11071e-05
0.000154686
2.4029e-06
0.000174605
-1.37755e-05
0.000196273
-2.38862e-05
0.000189907
2.66368e-06
0.000170601
7.37673e-05
0.000167419
4.35272e-05
0.000161628
5.35832e-05
0.00015417
6.04983e-05
4.50614e-05
0.000136907
2.31736e-05
-1.18517e-05
1.21614e-05
-5.39365e-05
-9.02486e-06
-0.000102892
-1.82351e-05
-8.11889e-05
-2.74798e-05
-4.13924e-05
-1.94306e-05
-7.04072e-05
-2.2857e-05
-7.23131e-05
-2.8451e-05
-6.12833e-05
-6.51308e-05
-1.53579e-05
-5.59813e-05
-9.17527e-05
5.38831e-06
-0.000248165
1.76871e-05
-8.39805e-05
1.10958e-05
-1.12777e-05
2.60543e-05
-2.60656e-05
7.60966e-05
-4.76394e-05
9.81568e-05
-3.58357e-05
8.24443e-05
-8.17375e-06
0.000105716
-2.06084e-05
0.000134071
4.54129e-05
0.000106053
7.15446e-05
0.000116057
4.35796e-05
0.000137736
3.88194e-05
1.84529e-05
0.000164344
-5.70836e-06
-6.14333e-06
-7.38866e-06
-5.22562e-05
-1.5907e-05
-9.43735e-05
-2.91843e-05
-6.79115e-05
-2.87341e-05
-4.18426e-05
-4.43501e-05
-5.47912e-05
-4.91166e-05
-6.75466e-05
-4.18617e-05
-6.85383e-05
-4.01214e-05
-1.70981e-05
-1.87258e-05
-0.000113148
9.83048e-06
-0.000276721
6.79264e-06
-8.09427e-05
1.62202e-05
-2.07052e-05
2.63891e-05
-3.62345e-05
4.48161e-05
-6.60664e-05
8.64332e-06
3.37115e-07
1.32289e-05
-1.27594e-05
5.87875e-05
-6.6167e-05
8.63892e-05
1.78111e-05
8.13492e-05
7.65846e-05
8.83665e-05
3.65623e-05
0.000124135
3.0512e-06
-2.86435e-05
0.000171231
7.6458e-05
-8.26014e-05
7.83334e-05
-5.41315e-05
5.28731e-05
-6.89132e-05
9.16155e-06
-2.41999e-05
-2.43677e-05
-8.31341e-06
-1.15829e-05
-6.7576e-05
-2.79126e-05
-5.12168e-05
-7.97675e-05
-1.66834e-05
-6.87738e-05
-2.80917e-05
-4.89509e-06
-0.000177027
9.55436e-06
-0.00029117
2.11733e-05
-9.25617e-05
3.71979e-05
-3.67299e-05
2.88075e-05
-2.78441e-05
3.61381e-05
-7.33971e-05
2.02965e-05
1.61787e-05
1.87305e-05
-1.11934e-05
1.20469e-05
-5.94835e-05
1.99279e-05
9.93025e-06
5.7089e-05
3.94235e-05
5.77652e-05
3.58861e-05
8.99108e-05
-2.90944e-05
-9.44829e-05
0.00015575
1.74496e-05
-0.000100051
2.32116e-05
-5.98935e-05
1.56774e-05
-6.13791e-05
1.40447e-05
-2.25673e-05
2.01712e-06
3.71421e-06
-3.36839e-05
-3.18749e-05
-4.73406e-05
-3.75601e-05
-6.77326e-05
3.70858e-06
-6.34793e-05
-3.2345e-05
-2.11764e-05
-0.00021933
-1.30607e-05
-0.000299286
6.16198e-05
-0.000167242
4.45092e-05
-1.96193e-05
3.47168e-05
-1.80517e-05
6.76279e-06
-4.5443e-05
1.00368e-05
1.29048e-05
3.57707e-05
-3.69273e-05
1.94398e-06
-2.56568e-05
1.8058e-06
1.00684e-05
1.64428e-05
2.47865e-05
3.83304e-05
1.39985e-05
5.9441e-05
-5.0205e-05
-8.38037e-05
4.87616e-05
9.57133e-06
-0.000109622
7.21566e-06
-5.75378e-05
7.31267e-06
-6.14761e-05
1.76997e-05
-3.29543e-05
2.22264e-05
-8.12452e-07
3.05184e-06
-1.27004e-05
-1.46764e-05
-1.98319e-05
-4.08164e-05
2.98485e-05
-2.39408e-05
-4.92206e-05
-1.85102e-05
-0.000224761
-2.38992e-05
-0.000293897
1.30359e-05
-0.000204177
2.55692e-05
-3.21526e-05
1.81171e-05
-1.05996e-05
-1.06499e-05
-1.6676e-05
-1.5004e-06
3.75522e-06
-5.04356e-06
-3.33841e-05
-8.88821e-06
-2.18121e-05
8.43903e-06
-7.2588e-06
2.78475e-05
5.37802e-06
6.67148e-05
-2.48688e-05
5.30195e-05
-3.65097e-05
-8.84603e-05
5.76762e-05
-8.70354e-06
-0.000100919
-2.90501e-06
-6.33363e-05
-4.56741e-06
-5.98137e-05
1.12091e-06
-3.86426e-05
1.35681e-05
-1.32597e-05
8.15912e-06
-7.29141e-06
-8.80028e-07
-1.07927e-05
2.70466e-05
1.92192e-06
4.53594e-05
-6.75333e-05
-5.94676e-06
-0.000173454
-2.24583e-05
-0.000277385
-8.55652e-06
-0.000218079
2.24984e-05
-6.32074e-05
2.47114e-06
9.42764e-06
-1.4161e-05
-4.37805e-08
-1.79289e-05
7.52304e-06
-2.50097e-05
-2.63033e-05
-1.16822e-05
-3.51396e-05
9.24597e-08
-1.90335e-05
1.9185e-05
-1.37145e-05
2.01147e-05
-2.57986e-05
6.21274e-05
-7.85224e-05
-9.6536e-05
7.02031e-05
-1.55268e-05
-8.53919e-05
-2.07015e-05
-5.81617e-05
-1.31679e-05
-6.73473e-05
-9.21622e-06
-4.25943e-05
1.54591e-05
-3.7935e-05
3.16125e-05
-2.34448e-05
4.59383e-05
-2.51186e-05
8.95587e-05
-4.16984e-05
8.14647e-05
-5.94393e-05
1.54423e-05
-0.000107432
-7.08229e-06
-0.000254861
-2.51676e-06
-0.000222645
4.24094e-06
-6.99651e-05
8.57694e-06
5.09166e-06
5.57158e-07
7.97601e-06
9.94935e-07
7.08527e-06
-2.50137e-06
-2.28069e-05
-1.22861e-05
-2.53549e-05
-2.66333e-06
-2.86563e-05
5.84937e-06
-2.22272e-05
2.61493e-05
-4.60985e-05
2.15589e-05
-7.39319e-05
-9.52909e-05
2.03138e-05
-2.07324e-05
-6.46596e-05
-2.6944e-06
-7.61997e-05
-1.35677e-05
-5.6474e-05
1.37385e-05
-6.99005e-05
2.01574e-05
-4.43539e-05
3.28424e-05
-3.61298e-05
4.11367e-05
-3.34128e-05
6.88534e-05
-6.94152e-05
6.09254e-05
-5.15113e-05
3.45975e-05
-8.11041e-05
1.86985e-05
-0.000238962
-6.08306e-05
-0.000143115
1.70348e-05
-0.000147831
4.84452e-05
-2.63188e-05
2.82035e-05
2.82177e-05
1.63625e-05
1.89263e-05
3.12913e-06
-9.5736e-06
-1.03266e-06
-2.11931e-05
-3.2908e-06
-2.63981e-05
4.15577e-06
-2.96738e-05
-6.2335e-06
-3.57092e-05
-3.17993e-07
-7.98474e-05
-9.07948e-05
-4.81411e-06
3.82911e-06
-6.84887e-05
-6.79326e-06
-6.55773e-05
-1.37962e-06
-6.18876e-05
2.29193e-06
-7.3572e-05
2.9296e-05
-7.1358e-05
2.82074e-05
-3.50413e-05
3.5578e-05
-4.07834e-05
5.83487e-05
-9.21858e-05
3.891e-05
-3.20727e-05
3.38659e-05
-7.60599e-05
-1.99432e-06
-0.000203102
-1.13369e-05
-0.000133773
8.97712e-06
-0.000168145
1.63199e-05
-3.36615e-05
1.36355e-05
3.09021e-05
5.87272e-06
2.66891e-05
-3.67838e-06
-2.24888e-08
-1.32277e-05
-1.16437e-05
-1.93012e-05
-2.03246e-05
-2.22125e-05
-2.67625e-05
-9.48125e-06
-4.84405e-05
-5.05296e-05
-3.87991e-05
-6.9628e-05
-7.16964e-05
-1.032e-05
-5.81686e-05
-9.2846e-06
-6.66128e-05
-3.86401e-06
-6.73082e-05
1.94117e-06
-7.93772e-05
1.10943e-05
-8.05111e-05
1.95268e-05
-4.34738e-05
3.48645e-05
-5.61211e-05
5.03241e-05
-0.000107645
6.11056e-05
-4.28541e-05
2.88409e-05
-4.37953e-05
9.21634e-06
-0.000183477
-1.26925e-05
-0.000111864
-3.92528e-05
-0.000141584
-4.50639e-05
-2.78504e-05
-3.5958e-05
2.17962e-05
-1.54654e-05
6.19648e-06
-1.68513e-05
1.36334e-06
-8.9387e-06
-1.95563e-05
-8.8286e-06
-2.04347e-05
-1.61296e-05
-1.94615e-05
-2.87406e-05
-3.58295e-05
-3.90546e-05
-2.84851e-05
-3.28668e-05
-7.58159e-05
-3.62673e-06
-5.45419e-05
-7.37932e-06
-6.28602e-05
-2.72088e-06
-7.19667e-05
-1.92277e-06
-8.01753e-05
-2.17493e-07
-8.22164e-05
1.07939e-05
-5.44852e-05
1.37396e-05
-5.90668e-05
3.18844e-05
-0.00012579
4.93763e-05
-6.0346e-05
4.85408e-05
-4.29598e-05
-5.15733e-06
-0.000129779
-5.03996e-06
-0.000111981
-5.41872e-05
-9.2437e-05
-4.78956e-05
-3.4142e-05
-3.6646e-05
1.05466e-05
-2.36497e-05
-6.7998e-06
-2.22128e-05
-7.35356e-08
-2.76146e-05
-1.41545e-05
-2.63845e-05
-2.16648e-05
-3.39452e-05
-1.19008e-05
-4.64446e-05
-2.33301e-05
-2.84075e-05
-4.65222e-05
-2.74819e-05
-3.37924e-05
-1.70646e-05
-3.74774e-05
-6.49576e-06
-7.3429e-05
-6.70037e-06
-7.17621e-05
-5.23325e-06
-8.16425e-05
-7.63057e-06
-7.98191e-05
-1.05741e-06
-6.10583e-05
3.42872e-05
-9.44115e-05
-4.85886e-07
-9.10171e-05
1.57865e-05
-7.66183e-05
3.66193e-05
-6.37926e-05
8.65518e-06
-0.000101815
-3.4014e-05
-6.93122e-05
-7.10632e-05
-5.53878e-05
-6.16857e-05
-4.35195e-05
-4.65171e-05
-4.62202e-06
-4.77445e-05
-5.57238e-06
-4.20213e-05
-5.79671e-06
-3.9505e-05
-1.66708e-05
-4.76932e-05
-1.34767e-05
-3.12351e-05
-2.83589e-05
-2.34649e-05
-3.11003e-05
-2.6933e-05
-4.30542e-05
-2.0155e-05
-3.42599e-05
9.52076e-06
-4.69981e-05
-1.40124e-05
-4.98958e-05
-6.96989e-06
-7.88046e-05
-1.46506e-05
-7.39617e-05
-6.75521e-06
-8.77145e-05
-1.25183e-05
-5.52953e-05
-4.34801e-06
-0.000102582
-1.40436e-05
-8.13215e-05
-1.06245e-05
-8.00374e-05
3.13777e-06
-7.75549e-05
-2.95011e-05
-6.9176e-05
-4.25874e-05
-5.62258e-05
-5.88008e-05
-3.91745e-05
-6.5889e-05
-3.64313e-05
-5.00301e-05
-2.0481e-05
-4.59e-05
-9.70249e-06
-4.02852e-05
-1.14115e-05
-4.16326e-05
-1.53234e-05
-1.94848e-05
-3.56245e-05
-2.58307e-05
-2.20129e-05
-2.72086e-05
-2.97224e-05
-3.1385e-05
-3.88779e-05
-2.09943e-05
-3.05457e-05
5.849e-06
-5.28471e-05
9.9355e-06
-5.39823e-05
-1.16517e-05
-5.72174e-05
-8.62705e-06
-7.69864e-05
-3.77412e-05
-5.86003e-05
-3.8541e-05
-5.44954e-05
-4.02117e-05
-0.000100911
-1.95497e-05
-0.000101983
-4.05554e-05
-5.90317e-05
-5.98345e-05
-5.82758e-05
-3.48455e-05
-9.4165e-05
-4.61572e-05
-4.49141e-05
-5.21062e-05
-3.32254e-05
-5.29453e-05
-3.55921e-05
-3.81083e-05
-3.5318e-05
-2.70296e-05
-2.07811e-05
-2.70805e-05
-1.13606e-05
-2.19171e-05
-2.04868e-05
-3.92407e-05
-1.83008e-05
-4.04823e-05
-2.07713e-05
-2.53413e-05
-4.48634e-05
-2.93303e-05
-3.48889e-05
-1.57551e-05
-3.45695e-05
3.6402e-06
-5.64873e-05
5.06798e-06
-5.54101e-05
5.34392e-06
-5.74933e-05
-1.61572e-05
-5.54853e-05
-1.84249e-05
-5.63326e-05
-2.13123e-05
-5.16081e-05
-2.45315e-05
-9.76919e-05
-3.77373e-05
-8.87776e-05
-4.68933e-05
-4.98758e-05
-5.86459e-05
-4.65232e-05
-7.13842e-05
-8.14267e-05
-8.11518e-05
-3.51465e-05
-4.95425e-05
-6.48347e-05
-4.09224e-05
-4.42123e-05
-5.2194e-05
-2.40464e-05
-4.7011e-05
-2.59641e-05
-2.95758e-05
-2.87958e-05
-3.23787e-05
-1.76839e-05
-2.44217e-05
-2.62579e-05
-1.95083e-05
-2.56847e-05
-4.06142e-05
-2.37574e-05
-4.75249e-05
-2.79782e-05
-3.25169e-05
-3.07631e-05
3.18768e-07
-5.68061e-05
-2.91133e-07
-5.48002e-05
-4.48844e-06
-5.3296e-05
-6.99445e-06
-5.29793e-05
-9.26735e-06
-5.40597e-05
1.13424e-05
-7.22178e-05
-2.36119e-05
-6.27375e-05
-2.11945e-05
-9.11951e-05
-2.56316e-05
-4.54387e-05
-2.78893e-05
-4.42654e-05
-5.77437e-05
-5.15723e-05
-4.22696e-05
-5.06206e-05
-7.02535e-05
-3.68508e-05
-6.01209e-05
-5.43449e-05
-5.15667e-05
-3.26006e-05
-4.46235e-05
-3.29073e-05
-4.8923e-05
-2.44963e-05
-2.87971e-05
-3.78098e-05
-3.32379e-05
-2.18171e-05
-3.07117e-05
-2.82109e-05
-1.90896e-05
-3.53795e-05
-1.78245e-05
-2.92433e-05
-2.30185e-05
-2.73229e-05
-4.23918e-07
-5.63822e-05
4.60002e-08
-5.52701e-05
-2.72138e-07
-5.29779e-05
-5.84758e-06
-4.74039e-05
-4.85206e-06
-5.50552e-05
4.91275e-06
-8.19826e-05
1.07968e-06
-5.89045e-05
-3.14789e-05
-5.86364e-05
-2.46141e-05
-5.23035e-05
-2.19193e-05
-4.69602e-05
-2.38675e-05
-4.96241e-05
-2.73617e-05
-4.71264e-05
-2.57023e-05
-3.85102e-05
-4.49735e-05
-3.50737e-05
-2.79742e-05
-4.95998e-05
-2.18747e-05
-3.90069e-05
-1.99669e-05
-2.64041e-05
-2.83884e-05
-2.93883e-05
-2.60377e-05
-2.41678e-05
-2.40109e-05
-3.02377e-05
-2.54337e-05
-3.39567e-05
-2.57433e-05
-2.89337e-05
-2.03483e-05
-2.84135e-05
-2.71596e-06
-5.36662e-05
-8.48174e-06
-4.95044e-05
-1.20001e-05
-4.94595e-05
1.69992e-05
-7.64032e-05
9.76667e-06
-4.78226e-05
-1.32946e-05
-5.89213e-05
-1.90664e-05
-5.31328e-05
-1.93873e-05
-5.83155e-05
-1.61636e-05
-5.55272e-05
-1.511e-05
-4.80139e-05
-1.85625e-05
-4.61716e-05
-2.29112e-05
-4.27777e-05
-2.96805e-05
-3.17409e-05
-2.96748e-05
-3.50794e-05
-2.18131e-05
-5.74615e-05
-3.08277e-05
-2.99923e-05
-2.96014e-05
-2.76304e-05
-2.674e-05
-3.22497e-05
-1.83882e-05
-3.25196e-05
-1.9622e-05
-2.90039e-05
-1.8655e-05
-3.49237e-05
-1.47446e-05
-3.28442e-05
-1.94811e-05
-1.56118e-05
-1.55969e-05
-3.80694e-05
5.81042e-07
-6.56823e-05
1.02269e-05
-5.91054e-05
-8.59885e-07
-6.53164e-05
1.20103e-05
-6.06928e-05
4.05854e-06
-5.09695e-05
-5.35615e-06
-4.37181e-05
-1.23276e-05
-5.1344e-05
-2.13026e-05
-4.65522e-05
-2.54329e-05
-4.38837e-05
-2.6957e-05
-4.46475e-05
-2.7485e-05
-4.22496e-05
-2.41747e-05
-3.50512e-05
-2.52383e-05
-3.40158e-05
-4.60788e-05
-3.66209e-05
-2.05208e-05
-5.55504e-05
-1.69876e-05
-3.11635e-05
-2.49137e-05
-2.43236e-05
-1.57818e-05
-4.16515e-05
-2.43191e-05
-2.04667e-05
-2.42922e-05
-3.49506e-05
-2.26254e-05
-3.4511e-05
-2.71285e-05
-1.49781e-05
1.13718e-05
-4.94412e-05
2.76697e-06
-5.70774e-05
-3.30104e-06
-5.30374e-05
-9.30499e-06
-5.93124e-05
-1.50352e-05
-5.49626e-05
-4.08842e-06
-6.19163e-05
9.38709e-06
-5.71936e-05
-1.18078e-07
-4.18389e-05
-9.29892e-06
-3.73713e-05
-1.37619e-05
-3.94207e-05
-1.97188e-05
-3.86905e-05
-2.29397e-05
-3.90287e-05
-2.04392e-05
-3.75517e-05
-1.30967e-05
-4.13582e-05
-1.24626e-05
-3.7255e-05
-2.77541e-05
-4.02589e-05
-3.44765e-05
-2.44411e-05
-1.09855e-05
-4.78146e-05
-2.7755e-05
-2.48821e-05
-2.00892e-05
-2.81324e-05
-1.90818e-05
-3.5958e-05
-1.69204e-05
-3.66725e-05
-2.50837e-05
-1.89651e-05
-1.14601e-06
-4.82952e-05
-1.48557e-06
-5.67379e-05
-5.41735e-08
-5.44688e-05
-3.61251e-06
-5.57541e-05
-4.97844e-06
-5.35967e-05
-1.24655e-05
-5.44292e-05
-1.77828e-05
-5.18763e-05
-9.44009e-06
-5.01815e-05
-1.82104e-05
-2.8601e-05
-2.88719e-05
-2.87592e-05
-2.12863e-05
-4.62762e-05
-1.14029e-05
-4.89121e-05
-2.8069e-07
-4.86739e-05
-8.28202e-06
-3.33569e-05
-1.4264e-05
-3.1273e-05
-2.17939e-05
-3.2729e-05
-3.91086e-06
-4.23241e-05
-2.18153e-05
-2.99102e-05
-1.74351e-05
-2.92623e-05
-1.55648e-05
-3.00027e-05
-1.66436e-05
-3.48793e-05
-1.72602e-05
-3.60558e-05
-2.35015e-05
-1.88424e-05
1.71892e-06
-5.00141e-05
4.83355e-07
-5.55023e-05
-1.27658e-06
-5.27089e-05
-3.63775e-06
-5.33929e-05
-5.14241e-06
-5.20921e-05
-4.83834e-06
-5.47333e-05
-5.39886e-06
-5.13158e-05
-8.19899e-06
-4.73814e-05
-1.06632e-05
-2.61368e-05
-1.32681e-05
-2.61543e-05
-1.76625e-05
-4.18818e-05
-2.19071e-05
-4.46676e-05
-2.39021e-05
-4.66789e-05
-1.07296e-05
-4.65293e-05
-1.41616e-05
-2.7841e-05
-8.88357e-06
-3.8007e-05
-2.29757e-05
-2.8232e-05
-8.52933e-06
-4.43566e-05
-1.28338e-05
-2.49578e-05
-1.7414e-05
-2.54225e-05
-1.21264e-05
-4.01669e-05
-2.3966e-05
-2.42163e-05
-3.16806e-05
-1.57868e-05
-3.30875e-07
-4.96832e-05
-9.91298e-07
-5.48419e-05
-1.19099e-06
-5.25092e-05
-3.56799e-06
-5.10159e-05
-4.85906e-06
-5.0801e-05
-6.94687e-06
-5.26454e-05
-9.51409e-06
-4.87486e-05
-9.96513e-06
-4.69304e-05
-1.20324e-05
-2.40695e-05
-1.317e-05
-2.50167e-05
-1.2183e-05
-4.28688e-05
-1.43441e-05
-4.25065e-05
-1.48565e-05
-4.61664e-05
-1.61025e-05
-4.52834e-05
-1.92141e-05
-2.47294e-05
-1.00076e-05
-4.72136e-05
-1.55682e-05
-2.26713e-05
-2.16736e-05
-3.82513e-05
-1.02579e-05
-3.63734e-05
-1.68253e-06
-3.39979e-05
-1.64804e-05
-2.5369e-05
-1.60488e-05
-2.46478e-05
-3.0021e-05
-1.77084e-05
5.83655e-07
-5.02669e-05
4.78203e-07
-5.47365e-05
2.07457e-07
-5.22384e-05
-1.21869e-06
-4.95898e-05
-2.46363e-06
-4.95561e-05
-4.58919e-06
-5.05199e-05
-6.32067e-06
-4.70171e-05
-5.91543e-06
-4.73356e-05
-3.31656e-06
-2.66684e-05
-1.46873e-06
-2.68645e-05
-1.61638e-05
-2.81737e-05
-1.26506e-05
-4.60197e-05
-1.32106e-05
-4.56063e-05
-1.26352e-05
-4.58588e-05
4.89667e-08
-3.74136e-05
-1.21244e-05
-3.50402e-05
-3.32372e-06
-3.1472e-05
-1.28023e-05
-2.87727e-05
-1.13802e-05
-3.77955e-05
-8.58674e-06
-3.67914e-05
-1.49205e-05
-1.90353e-05
-1.01192e-05
-2.94491e-05
-2.48017e-05
-1.53386e-05
-1.14802e-08
-5.02554e-05
-3.35209e-07
-5.44127e-05
-9.47705e-07
-5.16259e-05
-3.36267e-06
-4.71748e-05
-5.11992e-06
-4.77988e-05
-5.1596e-06
-5.04802e-05
-7.24396e-06
-4.49327e-05
-7.66448e-06
-4.69151e-05
-8.57554e-06
-2.57573e-05
-8.45317e-06
-2.69869e-05
-9.01161e-06
-2.76152e-05
-8.06571e-06
-4.69656e-05
-8.74668e-06
-4.49254e-05
-8.93891e-06
-4.56666e-05
-7.40393e-06
-3.89485e-05
-1.32293e-05
-2.92149e-05
-1.36332e-05
-3.10681e-05
-1.44597e-05
-2.79462e-05
-1.74696e-05
-3.47855e-05
-1.26931e-05
-4.15679e-05
-3.1605e-06
-2.85679e-05
-1.16877e-05
-2.09219e-05
-2.49193e-05
-1.15701e-05
6.47125e-07
-5.09025e-05
9.05601e-07
-5.46712e-05
1.96499e-06
-5.26853e-05
3.49393e-06
-4.87038e-05
8.53032e-06
-5.28352e-05
-6.41445e-06
-3.55354e-05
-1.98704e-05
-3.14767e-05
-1.51115e-05
-5.1674e-05
-1.10719e-05
-2.97969e-05
-8.92175e-06
-2.91371e-05
-6.98245e-06
-2.95545e-05
-8.86889e-06
-4.50792e-05
-1.0147e-05
-4.36472e-05
-1.14166e-05
-4.4397e-05
-1.26531e-05
-3.7712e-05
-3.98188e-06
-3.78861e-05
-7.63547e-07
-3.42864e-05
-7.46938e-06
-2.12404e-05
-3.98896e-06
-3.8266e-05
-5.50131e-06
-4.00556e-05
-1.27556e-05
-2.13136e-05
-1.35356e-05
-2.01418e-05
-2.56019e-05
-1.2853e-05
4.58023e-08
-5.09483e-05
-2.75493e-07
-5.43499e-05
-2.58156e-07
-5.27027e-05
-1.7555e-06
-4.72064e-05
-4.09792e-06
-5.04928e-05
-4.50694e-06
-3.51264e-05
-5.11538e-06
-3.08683e-05
-3.93557e-06
-5.28538e-05
-3.29844e-06
-3.04341e-05
-4.36552e-06
-2.807e-05
-3.9838e-06
-2.99362e-05
-6.5126e-06
-4.25504e-05
-7.30667e-06
-4.28531e-05
-7.35943e-06
-4.43442e-05
-6.40741e-06
-3.86641e-05
-4.94655e-06
-3.9347e-05
-1.53997e-05
-2.38333e-05
-3.61726e-06
-3.30228e-05
-1.5336e-05
-2.65472e-05
-2.25412e-05
-3.28503e-05
-1.0483e-05
-3.33719e-05
-3.09708e-07
-3.03152e-05
-1.74133e-05
-8.49835e-06
1.6581e-07
-5.11142e-05
3.96402e-07
-5.45805e-05
8.05384e-07
-5.31117e-05
2.61459e-07
-4.66625e-05
-2.77466e-07
-4.99539e-05
-6.78082e-06
-2.86231e-05
-8.81668e-06
-2.88324e-05
-1.74718e-05
-4.41987e-05
-5.79512e-06
-4.21107e-05
4.19041e-06
-3.80555e-05
-8.6116e-07
-2.48847e-05
-4.22997e-06
-3.91816e-05
-6.48083e-06
-4.06023e-05
-8.05627e-06
-4.27688e-05
-8.20139e-06
-3.85189e-05
-1.07855e-05
-3.67628e-05
1.3953e-06
-3.60141e-05
5.31597e-07
-3.21591e-05
-3.98949e-06
-2.20261e-05
-4.28703e-06
-3.25528e-05
-4.71612e-06
-3.29428e-05
-1.648e-05
-1.85512e-05
-2.52219e-05
-8.67137e-06
-4.0108e-07
-5.07131e-05
-6.18684e-07
-5.43629e-05
-1.41945e-06
-5.23109e-05
-3.36059e-06
-4.47214e-05
-9.71665e-06
-4.35978e-05
3.68308e-06
-4.20228e-05
1.42557e-06
-2.65749e-05
-6.62036e-07
-4.21111e-05
-1.13947e-06
-4.16333e-05
7.49198e-07
-3.99442e-05
1.96116e-06
-2.60966e-05
-1.17272e-05
-2.54932e-05
-8.19312e-06
-4.41363e-05
-6.4059e-06
-4.4556e-05
-4.52563e-06
-4.03992e-05
-4.13503e-06
-3.71534e-05
-5.89763e-06
-3.42515e-05
-3.39239e-06
-3.46644e-05
5.17934e-06
-3.05979e-05
-5.20619e-06
-2.21673e-05
-1.88607e-05
-1.92883e-05
-3.82893e-06
-3.3583e-05
-2.22603e-05
-6.79051e-06
-2.3269e-07
-5.04804e-05
-7.10628e-07
-5.3885e-05
-4.18372e-07
-5.26032e-05
-1.257e-06
-4.38827e-05
-6.22066e-07
-4.42327e-05
2.36713e-06
-4.5012e-05
1.18569e-06
-2.53935e-05
-1.34113e-05
-2.75141e-05
-7.02758e-06
-4.8017e-05
-3.93392e-06
-4.30379e-05
-1.94488e-06
-2.80856e-05
-2.8622e-06
-2.45759e-05
-5.48324e-06
-4.15153e-05
-6.00109e-06
-4.40382e-05
-5.52725e-06
-4.0873e-05
-4.57496e-06
-3.81057e-05
-3.87662e-06
-3.49499e-05
-3.66309e-06
-3.48779e-05
-5.15373e-06
-2.91072e-05
-3.8951e-06
-2.34259e-05
1.8546e-06
-2.5038e-05
-1.11277e-05
-2.06007e-05
-3.0131e-05
-3.25701e-06
-1.3188e-08
-5.04672e-05
-5.14723e-08
-5.38467e-05
2.23897e-06
-5.48936e-05
3.40093e-06
-4.50447e-05
-1.00814e-05
-3.07504e-05
-4.14057e-06
-5.09528e-05
-1.91008e-06
-2.7624e-05
-3.37556e-06
-2.60487e-05
-2.20516e-06
-4.91874e-05
-3.3799e-06
-4.18631e-05
-4.61846e-06
-2.68471e-05
-5.84496e-06
-2.33494e-05
-5.18554e-06
-4.21747e-05
-5.3021e-06
-4.39216e-05
-3.88902e-06
-4.22861e-05
-3.48343e-06
-3.85113e-05
-3.11851e-06
-3.53148e-05
-2.52867e-06
-3.54677e-05
8.06222e-07
-3.24421e-05
-2.48359e-06
-2.01361e-05
-5.89854e-07
-2.69317e-05
6.44231e-07
-2.18348e-05
-2.1342e-05
-8.14483e-06
-5.19675e-07
-4.99475e-05
-5.98405e-07
-5.3768e-05
-7.41393e-07
-5.47506e-05
-2.61842e-07
-4.55242e-05
-2.86186e-06
-2.81504e-05