/*--------------------------------*- C++ -*----------------------------------*\
| =========                 |                                                 |
| \\      /  F ield         | foam-extend: Open Source CFD                    |
|  \\    /   O peration     | Version:     4.1                                |
|   \\  /    A nd           | Web:         http://www.foam-extend.org         |
|    \\/     M anipulation  |                                                 |
\*---------------------------------------------------------------------------*/
FoamFile
{
    version     2.0;
    format      ascii;
    class       volScalarField;
    location    "0.5";
    object      psi;
}
// * * * * * * * * * * * * * * * * * * * * * * * * * * * * * * * * * * * * * //

dimensions      [1 -1 -2 0 0 0 0];

internalField   nonuniform List<scalar> 
2268
(
-1.22633e-07
-2.22475e-05
-3.77769e-05
-0.000669436
-0.0161535
-0.109609
-0.0321682
-0.401959
-0.217022
-3.70681
-2.32534
-1.63044
-1.01514
-0.629563
-0.348365
-0.16377
-0.0561195
-0.0326352
-0.0879286
-1.65965
-10.191
-416.673
-792.366
-1.13184e-05
-0.00125362
-0.00188997
-0.0233403
-0.378401
-1.98638
-0.647143
-5.47553
-2.82773
-19.8587
-10.2503
-9.24507
-7.99597
-6.33236
-3.01163
-1.48485
-0.39554
-0.29891
-0.295911
-0.718096
-2.96962
-79.8779
-312.317
-0.000485482
-0.0325791
-0.0467294
-0.406892
-4.40196
-17.0791
-6.72108
-33.4423
-16.7527
-50.5477
-74.8001
-77.9107
-69.7704
-42.8832
-12.1029
-3.5139
-0.979667
-1.12882
-1.45445
-2.98868
-24.5151
-150.946
-365.557
-0.0129042
-0.509662
-0.746137
-4.68268
-34.9539
-88.4132
-41.6584
-136.574
-67.5413
-160.386
-257.822
-499.293
-301.583
-164.926
-82.2541
-33.1568
-16.5759
-9.41518
-5.89663
-5.43389
-16.8381
-132.469
-420.545
-0.222683
-5.42807
-8.64163
-38.8347
-198.446
-303.194
-198.632
-411.943
-227.994
-463.367
-1001.44
-885.217
-554.221
-514.078
-355.335
-163.747
-87.1153
-42.4762
-28.3467
-11.7811
-20.0598
-127.862
-466.989
-2.69908
-41.5497
-73.9202
-231.684
-756.526
-870.527
-891.09
-913.922
-1022.95
-1298.18
-1810.68
-1514.17
-1292.14
-1033.16
-806.355
-452.426
-281.428
-157.992
-129.836
-62.3572
-39.9142
-129.522
-557.85
-22.0216
-248.249
-456.714
-948.658
-1877.71
-1982.76
-2138.38
-2095.1
-2445.84
-2695.18
-2528.38
-2419.62
-2132.35
-1517.61
-1380.93
-878.623
-659.418
-448.672
-435.199
-284.283
-102.621
-148.198
-542.467
-128.167
-1122.68
-1731.88
-2314.77
-2829.76
-2854.96
-2778.57
-2822.37
-2644.32
-2733.99
-2842.18
-2849.83
-2539.84
-2185.18
-1923.03
-1297.71
-1228.21
-1160.25
-1217.37
-971.715
-429.3
-218.711
-522.299
2853.76
2744.9
2693.61
2671.39
2657.35
2548.93
2294.96
2090.41
1349.55
455.717
-154.314
-515.272
-861.624
-11.3899
1205.44
1876.42
2843.49
2733.53
2845.06
2767.89
2686.31
2071.98
1673.39
1803.43
2774.8
2672.65
2056.08
1114.85
-101.688
-853.687
-1243.2
-2123.92
-2247.71
-2212.35
-1721.08
1879.7
2775.44
2751.09
2411.7
1468.42
458.911
146.888
927.496
2798.25
2529.06
2023.4
1193.12
654.377
1146.99
-282.132
-1788
-2284.61
-2498.63
-2441.55
-1064.61
2501.29
2596.54
1887.72
805.248
151.775
75.0376
85.8189
1185.6
2534.39
2741.48
2276.97
1691.44
870.919
1009.66
-1241.39
-2212.9
-2517.48
-2531.48
-2090.58
1484.53
2361.5
1442.42
493.74
199.274
174.858
104.384
187.923
630.024
1791.97
2844.55
2601.44
2412.69
1592.06
-899.677
-2520.24
-2587.45
-2571.24
-2422.03
-208.874
2045.59
1022.41
390.752
249.351
470.147
289.742
199.152
595.101
973.609
2798.69
2852.16
2659.08
2238.63
-1366.81
-2705.81
-2688.49
-2622.74
-2526.83
-1577.15
1373.87
671.548
328.215
389.143
1072.27
763.592
339.754
1234.47
2784.2
-957.21
2628.8
2239.29
800.945
-2520.93
-2829.27
-2749.38
-2652.84
-2578.9
-2037.64
807.989
322.622
459.943
945.147
2329.23
1795.93
516.482
1244.15
2573.86
-416.025
119.65
-972.949
-2131.29
-2824.05
-2851.26
-2778.42
-2600.99
-2555.43
-2233.72
504.102
-737.127
-2733.49
-2290.82
-2147.27
-1305.11
-648.9
418.429
378.28
916.414
526.459
-378.635
-1713.35
-2746.83
-2793.12
-2620.2
-2579.28
-2639.15
-2751.39
-2831.88
-2854.94
-2730.85
-1529.74
-723.495
-2837.22
2467.83
2808.33
2743.68
2686.87
2774.56
2820.98
2804.29
2664.73
2766.79
2608.42
-175.347
-1917.78
-2555.79
-2590.1
-2384.96
-2082.94
-1487.69
-984.844
-884.778
-1584.38
-2789.05
-1500.24
-2072.61
2833.88
1797.53
1753.21
2456.37
2460.03
1926.1
1932.73
1558.19
1431.67
1980.05
2851.62
2338.44
920.705
-695.723
-1090.79
-998.61
-834.779
-284.506
243.801
-439.458
-2385.79
-2541.46
-1266.36
2857.7
1338.61
864.108
1651.72
1619.94
1347.56
1301.77
923.264
680.676
631.471
1653.29
2676.42
2838.72
1808.92
1252.99
426.139
46.98
282.455
833.608
483.204
-1018.02
-2774.73
-1778.92
2736.67
1205.74
626.556
926.811
1043.33
1000.88
851.37
574.106
385.768
419.334
570.646
1573.63
1797.74
2433.27
2700.69
2811.53
1820.95
950.085
1212.67
1215.65
792.268
-18.8569
-1171.75
2856.94
836.812
425.14
611.627
689.992
701.469
524.877
359.973
225.333
409.597
307.406
654.43
1167.59
2127.6
2846.09
2129.7
2679.46
2087.57
2273.19
2615.06
2631.99
2633.95
2852.56
753.474
296.291
278.401
424.908
388.438
383.671
244.489
182.551
150.54
479.457
187.173
373.945
637.516
1735.09
2848.36
2857.66
1853.48
2323.37
2378.94
1868.21
1675.3
1725.41
544.328
428.234
191.304
151.658
251.472
160.681
188.053
107.17
71.9346
150.54
557.67
152.263
174.835
281.321
1074.9
2483.8
2518.06
1334.68
535.787
650.726
414.15
381.251
439.407
148.144
117.303
58.1691
68.8637
126.043
68.7111
64.7661
51.9945
56.82
188.383
585.945
171.66
81.6263
113.343
590.366
1198.14
920.731
405.296
160.31
151.826
140.043
127.901
131.559
76.9433
52.2963
25.9628
28.1971
43.4718
29.4961
21.6214
22.7828
49.8907
173.478
587.328
296.148
36.3479
62.9541
296.048
303.641
43.985
54.9138
74.6334
66.0082
63.795
56.6026
53.8536
37.6595
18.9076
9.89134
7.79252
7.27311
8.48021
5.72046
5.67963
18.4175
66.5671
573.295
502.626
22.4957
55.3436
119.283
70.6191
43.7795
43.0506
27.9673
27.4557
21.6109
14.9521
14.4748
18.4159
7.42899
3.60616
1.55214
1.7253
1.40581
0.92182
0.666429
3.68773
22.6045
457.215
808.838
86.3294
19.2467
38.4237
25.6907
16.1138
19.8405
17.7635
14.0213
4.85312
2.2661
2.56575
8.40609
2.4899
1.5804
0.156079
0.193533
0.148855
0.0769863
0.064716
0.946067
14.9001
284.804
1052.07
250.373
33.2067
7.19904
6.26459
8.98832
12.9634
10.6575
5.6301
0.868062
0.117974
0.140308
3.19133
0.720215
0.628892
0.0125005
0.00316264
0.00933572
0.00814036
0.00622032
0.415665
12.4572
183.861
1263.53
300.804
102.71
17.97
2.86224
4.19656
5.60233
5.0855
2.47924
0.315893
0.03553
0.0241079
0.70626
0.108889
0.165137
0.00121687
2.48531e-05
0.00120508
0.00127298
0.00129823
0.211913
8.19082
88.3237
1113.78
90.462
18.8031
5.05359
0.859064
1.42481
1.04629
1.20973
1.06959
0.0613407
0.0169876
0.00852961
0.195757
0.0337697
0.0425121
0.000227451
2.47884e-05
0.000294494
0.000267394
0.000565689
0.368813
5.26206
34.93
467.337
25.3907
8.86755
1.38827
0.110997
0.0906513
0.0698218
0.0762553
0.0727418
0.00498316
0.0026375
0.00813345
0.0272059
0.00682479
0.00983484
9.64172e-05
8.42113e-06
4.25336e-05
2.79733e-05
0.000316943
0.0127334
0.231651
2.1624
40.9759
1.31536
0.701432
0.249988
0.00485476
0.00259316
0.00175843
0.00150301
0.00133748
0.000713449
0.000270028
0.00133257
0.00304089
0.0014143
0.00227557
6.17811e-05
1.11454e-06
5.13405e-06
5.90146e-06
0.00017686
0.000445914
0.00596392
0.612794
3.58403
0.0285351
0.00680097
0.0172157
0.000807309
0.000316806
0.000167751
0.000124576
0.000119658
6.73148e-05
4.61089e-05
0.00015705
1.74145e-05
5.08505e-05
0.000492224
3.7366e-05
2.55283e-07
4.29903e-07
6.14498e-07
3.70914e-06
3.53256e-05
0.000134199
0.00031451
0.00105807
9.7749e-05
0.000134386
0.000236856
0.000323719
0.000110038
3.82274e-05
1.57227e-05
1.04556e-05
4.58762e-06
5.96173e-06
1.67827e-05
1.79231e-06
6.24417e-06
0.000111695
1.20372e-05
4.21886e-08
5.08825e-08
7.06339e-08
3.3935e-07
7.74215e-07
6.77007e-07
1.40927e-06
3.75859e-06
4.50365e-06
9.65681e-06
1.42072e-05
1.64727e-05
1.67369e-05
6.84626e-06
1.94692e-06
8.48023e-07
3.63284e-07
5.13101e-07
9.30208e-07
1.66191e-07
2.18753e-07
2.78152e-07
4.80017e-09
3.16321e-09
1.79078e-09
1.61071e-08
7.88968e-08
2.62818e-07
1.20537e-07
5.06211e-08
1.71086e-07
2.35402e-07
4.27392e-07
5.9354e-07
5.40547e-07
4.73528e-07
2.11141e-07
1.15193e-07
2.24797e-08
1.77159e-08
3.0769e-08
1.01037e-07
2.13413e-08
2.62291e-09
6.1381e-09
5.43875e-10
5.7389e-10
4.81122e-10
1.37788e-09
8.5565e-09
2.96404e-08
3.34421e-08
1.05863e-09
9.64012e-10
3.64337e-09
5.93796e-09
1.15249e-08
2.51428e-08
4.34983e-08
1.41599e-08
1.21781e-08
1.23963e-09
1.21872e-09
5.66251e-09
1.13341e-08
3.45426e-09
-1.89936e-15
2.94675e-10
2.96495e-10
3.46517e-10
3.28328e-10
3.4106e-10
2.59203e-10
2.39188e-10
2.93757e-10
2.45563e-10
2.98314e-10
4.52927e-10
5.27505e-10
5.72069e-10
1.85172e-09
2.51929e-09
1.08957e-09
6.08449e-10
1.53704e-10
7.09402e-11
2.63752e-10
1.08684e-09
4.50199e-10
-2.24646e-10
2.96495e-10
2.61934e-10
3.52884e-10
2.83762e-10
2.63753e-10
3.12866e-10
2.81943e-10
2.7012e-10
2.94676e-10
2.75577e-10
2.98314e-10
2.61934e-10
2.27374e-10
2.65572e-10
2.90128e-10
2.22826e-10
1.6189e-10
6.63931e-11
4.00177e-11
1.31877e-10
4.502e-10
2.29193e-10
-2.57387e-10
2.98314e-10
2.49201e-10
3.26509e-10
3.2469e-10
2.45564e-10
2.83762e-10
2.81943e-10
3.22871e-10
3.16504e-10
3.16504e-10
3.49246e-10
3.11957e-10
2.59206e-10
2.57387e-10
1.94632e-10
1.56433e-10
1.10049e-10
9.91349e-11
6.09361e-11
7.27594e-11
4.502e-10
2.11003e-10
-3.49246e-10
2.96495e-10
2.91948e-10
3.52884e-10
3.72893e-10
2.98314e-10
2.06455e-10
2.31012e-10
2.78305e-10
2.83762e-10
2.86491e-10
3.26509e-10
3.32875e-10
2.80124e-10
3.065e-10
2.51021e-10
1.41881e-10
1.6189e-10
1.41881e-10
1.71895e-10
6.2755e-11
3.69255e-10
2.47383e-10
-3.49246e-10
2.55568e-10
3.18323e-10
3.26509e-10
4.10182e-10
3.54703e-10
2.29193e-10
2.04636e-10
3.2469e-10
3.03771e-10
3.22871e-10
3.71074e-10
2.96495e-10
2.32831e-10
2.94676e-10
2.29193e-10
1.30058e-10
1.15506e-10
1.54614e-10
1.70076e-10
5.09316e-11
3.49246e-10
1.99179e-10
-4.18368e-10
2.93767e-10
2.68301e-10
3.065e-10
3.57431e-10
3.11957e-10
1.68256e-10
2.49202e-10
2.86491e-10
2.7012e-10
3.41061e-10
3.47427e-10
3.065e-10
2.71939e-10
2.94676e-10
2.85581e-10
1.71894e-10
1.76442e-10
1.33696e-10
9.27684e-11
4.82031e-11
3.44699e-10
2.59206e-10
-3.56522e-10
3.21052e-10
2.60115e-10
3.44699e-10
3.32875e-10
3.46518e-10
2.68301e-10
2.06455e-10
3.18323e-10
2.49201e-10
2.86491e-10
3.44698e-10
3.4288e-10
3.41061e-10
3.28328e-10
3.82897e-10
1.89175e-10
1.89175e-10
6.6393e-11
7.45786e-11
2.18277e-11
3.72893e-10
1.9827e-10
-3.59251e-10
3.52884e-10
2.63753e-10
2.49202e-10
2.78305e-10
3.28328e-10
2.8831e-10
2.00998e-10
2.94676e-10
3.20142e-10
3.14685e-10
3.79259e-10
3.49246e-10
3.57431e-10
3.28328e-10
3.4288e-10
2.86491e-10
2.35559e-10
1.8099e-10
7.9126e-11
2.63752e-11
3.22871e-10
1.94632e-10
-3.10138e-10
3.10138e-10
2.51021e-10
2.3374e-10
2.41016e-10
3.34694e-10
3.08319e-10
1.82808e-10
3.51065e-10
3.12866e-10
3.21052e-10
3.20142e-10
2.90129e-10
3.71074e-10
2.98314e-10
3.56522e-10
2.80124e-10
2.22826e-10
1.45519e-10
1.45519e-10
4.09272e-11
3.20142e-10
7.91261e-11
-2.93767e-10
2.61935e-10
2.67391e-10
2.59206e-10
2.25555e-10
3.01952e-10
3.54703e-10
2.17369e-10
3.62888e-10
2.8831e-10
3.62888e-10
2.29193e-10
3.4288e-10
3.12866e-10
3.36513e-10
3.30147e-10
2.93767e-10
1.51886e-10
1.31877e-10
5.63886e-11
2.63752e-11
3.10138e-10
4.27464e-11
-2.86491e-10
1.82809e-10
2.04636e-10
2.68301e-10
1.50066e-10
3.36513e-10
3.065e-10
1.90994e-10
3.56522e-10
2.86491e-10
3.28328e-10
2.47383e-10
2.53749e-10
2.3374e-10
3.4288e-10
2.75577e-10
3.26509e-10
2.73758e-10
1.76442e-10
7.7307e-11
2.63752e-11
4.60205e-10
1.4552e-11
-2.77396e-10
1.28239e-10
1.72804e-10
1.86446e-10
2.00998e-10
3.11957e-10
2.29193e-10
2.00998e-10
3.12866e-10
2.5193e-10
3.065e-10
2.75577e-10
2.07365e-10
1.36424e-10
3.14685e-10
2.78305e-10
3.14685e-10
2.7012e-10
1.90994e-10
6.27551e-11
1.81897e-11
4.52019e-10
-4.00177e-11
-2.83763e-10
1.46429e-10
1.54614e-10
1.86446e-10
2.81943e-10
2.75577e-10
1.54614e-10
1.8008e-10
1.80989e-10
3.00133e-10
2.98314e-10
1.45519e-10
6.09361e-11
1.41881e-10
2.49202e-10
1.58252e-10
3.30147e-10
2.43745e-10
2.02817e-10
1.01863e-10
2.27373e-11
3.10138e-10
-4.00177e-11
-2.63754e-10
2.04636e-10
8.73114e-11
2.04636e-10
2.85581e-10
1.62799e-10
1.00954e-10
1.6189e-10
1.628e-10
1.92813e-10
1.74623e-10
9.54969e-11
2.00088e-11
7.5488e-11
1.60071e-10
1.31877e-10
1.90994e-10
1.51886e-10
2.22826e-10
1.03682e-10
2.45562e-11
3.26509e-10
-3.27418e-11
-1.58252e-10
2.51021e-10
2.17369e-10
1.64619e-10
2.19188e-10
1.78261e-10
3.45607e-11
1.03682e-10
9.54969e-11
1.50067e-10
1.60071e-10
1.31877e-10
1.23691e-10
9.09495e-11
1.11868e-10
1.437e-10
1.21872e-10
1.20053e-10
1.71895e-10
1.00954e-10
3.27417e-11
3.93811e-10
-6.27551e-11
-9.54971e-11
3.73803e-10
2.45564e-10
1.27329e-10
2.35559e-10
1.50067e-10
4.00177e-11
6.73026e-11
5.63886e-11
1.09139e-10
1.10049e-10
1.11868e-10
1.94632e-10
1.15506e-10
1.66438e-10
1.0732e-10
1.437e-10
1.03682e-10
1.38243e-10
1.00954e-10
6.73025e-11
3.30147e-10
-9.9135e-11
-6.63933e-11
4.26553e-10
2.63753e-10
1.89175e-10
2.98314e-10
1.33696e-10
8.73115e-11
1.56433e-10
1.11868e-10
1.82808e-10
1.00954e-10
1.628e-10
2.78305e-10
1.90994e-10
2.1555e-10
1.31877e-10
2.41926e-10
2.06455e-10
1.46429e-10
1.56433e-10
8.36734e-11
2.67392e-10
-5.63887e-11
1.45518e-11
5.4115e-10
4.05635e-10
3.42879e-10
4.35648e-10
1.80989e-10
1.05501e-10
2.3374e-10
1.45519e-10
2.32831e-10
1.03682e-10
1.09139e-10
3.2469e-10
2.60115e-10
2.27374e-10
2.60115e-10
3.01952e-10
2.55568e-10
1.78261e-10
2.59206e-10
2.37378e-10
1.92813e-10
-5.91172e-11
1.54614e-10
6.21185e-10
4.91127e-10
4.15639e-10
4.97494e-10
2.21007e-10
2.21007e-10
2.60115e-10
2.68301e-10
3.11957e-10
2.75577e-10
2.31012e-10
3.9563e-10
3.18323e-10
3.10138e-10
3.9563e-10
4.3201e-10
3.57431e-10
4.07454e-10
2.59206e-10
3.91992e-10
-4.27465e-11
-1.11868e-10
2.53749e-10
7.08497e-10
5.32054e-10
4.82942e-10
4.88399e-10
2.8831e-10
3.16504e-10
3.08319e-10
3.36513e-10
3.75621e-10
2.86491e-10
3.16504e-10
3.73802e-10
3.67436e-10
3.51065e-10
4.09273e-10
4.46562e-10
4.71118e-10
4.28372e-10
3.65617e-10
4.44743e-10
-5.27509e-11
-803.356
-880.432
-2679.55
2299.03
-1058.19
-1000.33
-1693.35
-2554.85
-1958.42
-1489.37
-1461.96
-1478.32
-2834.29
-2763.65
-2623.05
-2385.87
-737.312
-996.011
-1440.87
-2223.23
2587
2484.94
2208.64
1558.28
1910.57
2134.57
2438.59
2697.28
580.944
752.894
1056.72
1533.38
205.816
336.362
527.533
893.024
116.599
292.586
636.499
1373.49
68.3639
160.524
301.485
963.372
6.98583
13.24
67.0987
284.068
1.06045
5.05232
16.6647
44.0816
0.0910718
0.324864
0.903807
2.00789
0.00639941
0.0124646
0.0166397
0.0301953
0.000973649
0.00154561
0.00312243
0.00458602
0.000292517
0.00035161
0.000613812
0.00120477
6.11819e-05
6.62915e-05
9.80536e-05
0.000206396
8.43195e-06
1.44225e-05
1.83918e-05
2.92498e-05
1.05873e-06
1.33988e-06
1.67121e-06
1.29915e-06
1.28792e-07
8.37166e-08
1.59258e-07
1.74272e-07
1.11922e-08
1.34787e-08
2.50256e-08
3.12338e-08
1.36515e-09
2.30011e-09
4.10818e-09
5.16138e-09
2.17369e-10
1.20052e-10
3.59249e-10
5.04768e-10
1.72804e-10
7.09404e-11
1.27329e-10
1.78261e-10
1.628e-10
3.81985e-11
1.41881e-10
2.00999e-10
1.6189e-10
2.45559e-11
1.89175e-10
2.12822e-10
1.10049e-10
5.45695e-11
1.72804e-10
2.12822e-10
1.11868e-10
-4.00183e-11
1.70076e-10
6.45739e-11
1.27329e-10
-5.91177e-11
1.20054e-10
6.4574e-11
1.00954e-10
-3.63801e-11
8.54926e-11
1.20053e-10
1.10049e-10
-3.27422e-11
8.73115e-11
1.54614e-10
3.09225e-11
-5.27511e-11
1.48248e-10
1.28239e-10
1.51886e-10
-4.00183e-11
1.53705e-10
1.64619e-10
1.0732e-10
-8.91312e-11
2.43745e-10
1.28239e-10
8.09452e-11
-1.90995e-10
1.07321e-10
8.91305e-11
1.72804e-10
-1.54615e-10
1.00045e-11
1.11868e-10
1.78261e-10
-1.01864e-10
3.09229e-11
1.30058e-10
1.56433e-10
-1.63712e-11
1.00041e-11
2.41017e-10
1.71895e-10
9.36778e-11
1.76442e-10
2.59206e-10
2.0009e-11
-2.63758e-11
2.21008e-10
1.11867e-10
2.27376e-11
-1.01864e-10
-4.91128e-11
-2.63755e-11
2366.91
2703.36
2812.65
-289.823
2350.1
2664.7
2668.45
2714.84
2262.26
1888.11
20.2033
-2372.39
-2855.53
-2857.66
-2740.77
-2386.56
-2446.89
-2367.87
-222.595
-2655.2
-2716.7
-2814.11
-2606.3
-2843.07
-2857.5
-2844.27
-2853.27
-2857.67
-2817.79
-2857.56
-2831.07
-2831.07
-2845.32
-2686.27
-1571.67
-2018.43
-2199.3
-755.467
-1581.96
-1781.78
-1726.02
-1648.3
-1704.75
-1765.97
-1909.41
-1996.16
-2030.62
-2278.26
-2702.51
-2641.44
-2403.65
-2477.39
-2607.11
-2227
-1471.94
-1792.09
-692.034
-2026.42
-1699.7
-1529.04
-1575.36
-1801.99
-2551.98
-2775.65
-2586.87
-1451.23
-1115.25
-122.119
1306.89
1496.76
1569.26
615.328
-249.608
14.3394
-1110.81
-438.731
-2828.08
-2278.4
-1999.56
-2220.89
-2783.08
-1821.82
1402.4
1850.31
2610.41
2612.57
2819.11
2857
2835.42
2812.13
2857.61
2309.17
1807.07
-389.138
-91.3294
-1107.45
-2575.91
-2839.91
-2845.01
-2811.59
-531.382
2852.19
2846.73
2797.91
2811.4
2757.58
2539.4
2132.63
2022.54
2250.9
2843.26
2686.9
243.393
165.425
2788.88
1511.62
-714.023
-1557.88
-592.125
2672.22
2475.35
2424.6
2432.72
2407.28
2191.74
1751.83
1350.39
1129.13
1573.02
2346.66
2857.63
920.58
367.835
2750.75
2272.16
1905.91
2021.8
2700.39
2512.43
1767.01
1847
1978.87
1855.05
1132.71
750.23
645.461
695.863
881.923
1340.31
2494.71
1644.24
541.742
2388.96
2834.87
2853.23
2281.35
1888.59
1573.29
979.555
990.665
1334.5
1382.6
639.386
267.339
252.361
386.391
430.296
695.211
2464.34
1622.83
630.228
2187.94
2470.44
2319.78
1728.32
1150.67
566.529
240.526
210.853
598.735
1135.65
929.762
310.269
126.292
191.029
215.797
753.967
2592.76
1524.25
681.929
1361.25
1275.05
1037.09
840.757
441.759
102.851
37.3599
45.6287
249.97
469.437
457.352
173.868
76.2394
133.391
348.375
1304.9
2784.81
1460.58
734.293
502.411
425.018
169.545
167.466
75.0806
16.7401
8.20888
14.4159
81.1716
105.609
95.0035
61.4027
47.5967
210.89
762.189
2008.81
2834.03
1437.07
793.094
78.9748
81.0868
18.8708
11.2888
4.38326
1.85972
2.79527
7.65858
23.0894
32.6065
26.1286
21.6623
32.7369
168.631
736.521
2141.29
2740.32
1424.06
864.129
3.67213
8.16623
1.31703
0.506448
0.439566
0.596304
1.48869
4.51393
10.9218
15.5074
16.3639
22.2513
26.8188
76.3431
398.35
1786.85
2834.54
1489.88
953.768
0.0777671
0.391425
0.0505059
0.0737566
0.162467
0.280086
0.787976
2.48639
6.94812
12.9629
18.9113
31.8955
43.7716
45.597
112.032
888.79
2486.67
2135.47
1099.8
0.00609158
0.0101958
0.0218722
0.0353786
0.0833132
0.116364
0.315317
1.12401
4.16743
10.5584
16.7486
29.6869
75.2731
49.4925
71.4266
373.233
1277.46
2850.59
1320.84
0.0021635
0.00412993
0.00858827
0.0123026
0.0242937
0.0212456
0.0703054
0.251983
1.10629
4.5821
7.92937
14.7379
63.0847
60.8718
70.1828
236.804
815.234
2588.31
1423.13
0.000429725
0.000760066
0.00168382
0.00210336
0.0054283
0.00890876
0.0266788
0.0994682
0.274363
0.999273
1.97773
5.89776
35.5131
76.6471
75.7785
218.324
755.248
2419.27
1536.57
8.01024e-05
0.000138152
0.000145125
0.000506801
0.00204753
0.00592888
0.0229928
0.0713221
0.13987
0.360211
0.743539
2.20189
25.8488
77.0122
85.9558
241.446
784.849
2157.64
1699.88
2.17059e-06
9.9153e-06
2.58848e-05
0.0001557
0.000749956
0.00277288
0.00941652
0.0268233
0.0553482
0.15282
0.373717
1.63917
10.2176
63.9381
95.1563
262.736
784.794
2014.61
1902.5
4.81274e-07
1.53364e-06
6.19529e-06
2.32973e-05
0.000132179
0.00100821
0.00365643
0.00921381
0.0235677
0.0657746
0.236022
0.990384
9.56535
43.5109
95.3649
243.087
686.729
1845.69
2087.33
5.59865e-08
2.17657e-07
1.37783e-06
6.70746e-06
2.80135e-05
0.000107819
0.00038819
0.00169748
0.00694838
0.015742
0.0516585
0.227716
2.58252
29.4423
94.5745
183.669
492.246
1615.78
2247.27
7.34779e-09
3.94083e-08
2.47048e-07
1.20272e-06
6.39994e-06
2.12786e-05
5.1177e-05
0.000290307
0.00133215
0.00248062
0.0131354
0.154475
2.21416
18.7003
89.878
155.926
443.559
1722.83
2395.93
1.09139e-09
7.88531e-09
3.60678e-08
1.05131e-07
5.89164e-07
2.2352e-06
8.71344e-06
5.15917e-05
0.000257069
0.0020666
0.0365435
0.537952
3.68592
20.0683
83.6359
144.485
437.551
1828.89
2546.38
1.64618e-10
8.55832e-10
3.52973e-09
2.59806e-08
1.64399e-07
5.91217e-07
2.10431e-06
1.03463e-05
5.95741e-05
0.000457197
0.00743113
0.134898
1.79418
15.4958
68.867
133.701
440.736
1791.4
2701.23
1.36422e-11
3.65617e-10
6.06632e-10
3.35512e-09
2.24754e-08
1.27272e-07
8.09352e-07
6.18032e-06
5.59008e-05
0.00104067
0.0107597
0.0500813
0.333776
5.6923
38.8628
96.6727
312.319
1466.33
2829.71
9.27684e-11
2.57387e-10
2.1555e-10
6.8121e-10
4.24369e-09
2.5504e-08
2.1383e-07
3.0873e-06
5.50886e-05
0.00144301
0.0304878
0.157144
0.744746
1.27628
15.1041
58.6061
175.875
859.99
2837.58
9.36779e-11
2.3374e-10
2.00998e-10
2.3283e-10
5.67523e-10
5.15226e-09
8.05715e-08
2.72224e-06
5.43596e-05
0.000930755
0.0281046
0.203577
1.05496
1.32039
4.20082
24.915
99.166
269.703
2594.64
1.03682e-10
2.53749e-10
1.92813e-10
1.92813e-10
2.49201e-10
3.18322e-09
7.04814e-08
3.2837e-06
8.64441e-05
0.000866402
0.0145894
0.144016
0.692843
5.00421
2.03608
7.26371
69.251
32.453
2124.8
5.91171e-11
2.5193e-10
2.19188e-10
1.53705e-10
8.27636e-11
1.34876e-09
6.2397e-08
2.96548e-06
4.82215e-05
0.000991467
0.00983303
0.061562
0.201443
3.51996
2.89345
3.57716
46.3815
20.9632
1721.72
7.9126e-11
2.41016e-10
2.22826e-10
1.86446e-10
1.17324e-10
2.46471e-09
8.77012e-08
1.79604e-06
7.29188e-05
0.000528435
0.00580012
0.102519
0.35367
1.63108
4.44373
4.20076
35.5566
17.6553
1492.04
3.00132e-11
1.84627e-10
6.2755e-11
1.84627e-10
5.31142e-10
1.07847e-08
2.96606e-07
5.8497e-06
0.000232992
0.00123954
0.0101302
0.231128
1.45961
2.65037
4.90423
5.24562
25.3662
18.0928
1377.86
-1.6371e-11
1.89175e-10
6.09361e-11
2.11002e-10
1.65345e-09
4.1058e-08
9.13533e-07
1.22406e-05
0.000515754
0.00336002
0.029742
0.677735
9.18403
14.3709
9.21682
7.47655
17.9849
68.3081
1337.64
-6.36657e-12
1.72804e-10
6.73025e-11
3.67435e-10
2.69027e-09
6.4954e-08
1.2822e-06
2.41145e-05
0.000728075
0.00850338
0.0550807
0.895305
13.3725
27.2568
18.3595
9.87071
15.1921
121.346
1288.93
4.54738e-12
2.17369e-10
1.94632e-10
3.03771e-10
6.89391e-10
2.1471e-08
1.23101e-06
3.2672e-05
0.000878246
0.0121589
0.120947
0.933237
9.8231
34.9462
20.668
14.0344
38.1352
551.147
1223.38
3.6379e-12
2.19188e-10
2.09184e-10
3.26508e-10
1.69438e-09
4.48694e-08
2.14654e-06
4.24913e-05
0.000888586
0.0130691
0.169314
1.14674
8.36715
34.1854
21.1935
14.8816
35.0376
469.905
1138.25
-2.0009e-11
2.51021e-10
2.04636e-10
2.32831e-10
2.24621e-10
9.63598e-08
1.5452e-06
5.74341e-05
0.00202608
0.0169279
0.14977
1.15218
12.4031
38.3803
21.7106
15.2732
31.0601
365.22
1035.3
6.36635e-12
2.45564e-10
2.11003e-10
2.17369e-10
2.29193e-10
6.69352e-10
2.75986e-08
1.89513e-06
4.33258e-05
0.00109707
0.0348086
0.630414
7.31889
36.188
23.407
15.5994
24.8234
258.502
930.122
5.7298e-11
1.84627e-10
1.19144e-10
1.28239e-10
2.43744e-10
2.33102e-09
5.99208e-08
1.5099e-06
2.29694e-05
0.000708457
0.0230245
0.365226
3.05321
19.9601
29.142
17.8774
21.4608
189.2
823.987
2.12822e-10
2.73758e-10
2.00088e-11
1.33696e-10
1.41881e-10
2.8012e-10
1.37314e-08
3.98539e-07
1.07506e-05
0.000540078
0.0145268
0.100987
0.692265
5.50977
44.818
24.0099
22.1398
134.601
696.403
3.99268e-10
1.94632e-10
-9.91351e-11
3.00133e-11
6.27551e-11
6.36632e-12
9.36632e-11
4.21185e-08
4.85582e-07
1.24169e-05
0.000774519
0.00434448
0.0519085
0.452472
28.8498
31.7293
29.3038
97.2863
580.781
2.00998e-10
2.45564e-10
-3.63799e-11
1.58252e-10
1.8008e-10
7.27596e-11
6.91216e-11
9.91204e-11
6.42811e-09
2.35073e-07
1.687e-06
4.92082e-05
0.000446996
0.00904904
1.0139
21.1103
27.8883
48.8368
347.974
)
;

boundaryField
{
    leftWall
    {
        type            zeroGradient;
    }
    rightWall
    {
        type            zeroGradient;
    }
    lowerWall
    {
        type            zeroGradient;
    }
    atmosphere
    {
        type            zeroGradient;
    }
    defaultFaces
    {
        type            empty;
    }
}


// ************************************************************************* //
