/*--------------------------------*- C++ -*----------------------------------*\
| =========                 |                                                 |
| \\      /  F ield         | foam-extend: Open Source CFD                    |
|  \\    /   O peration     | Version:     4.1                                |
|   \\  /    A nd           | Web:         http://www.foam-extend.org         |
|    \\/     M anipulation  |                                                 |
\*---------------------------------------------------------------------------*/
FoamFile
{
    version     2.0;
    format      ascii;
    class       volVectorField;
    location    "0.5";
    object      U;
}
// * * * * * * * * * * * * * * * * * * * * * * * * * * * * * * * * * * * * * //

dimensions      [0 1 -1 0 0 0 0];

internalField   nonuniform List<vector> 
2268
(
(-0.00557368 -0.0197854 0)
(0.104468 -0.0146634 0)
(0.1725 -0.0145359 0)
(0.306697 -0.0114493 0)
(0.323675 -0.0106293 0)
(0.456177 -0.011422 0)
(0.4789 0.0057929 0)
(0.508187 -0.0119098 0)
(0.688312 -0.00574432 0)
(0.589515 -0.0406475 0)
(0.444041 0.0207913 0)
(0.483087 0.00688493 0)
(0.494395 0.00890798 0)
(0.467973 0.0347465 0)
(0.510845 0.107871 0)
(0.607223 -0.0197514 0)
(0.583175 0.00247234 0)
(0.471032 0.0762235 0)
(0.29305 0.0420142 0)
(0.204008 -0.0356669 0)
(0.00417588 -0.0376897 0)
(0.114015 0.0178204 0)
(-0.120122 -0.0812532 0)
(-0.00227962 -0.0249725 0)
(0.108035 -0.0297016 0)
(0.177603 -0.0328279 0)
(0.311092 -0.0255043 0)
(0.329953 -0.022272 0)
(0.464094 -0.0301125 0)
(0.478826 -0.0169525 0)
(0.514073 -0.0468299 0)
(0.717685 -0.0117798 0)
(0.554414 -0.137364 0)
(0.452808 0.0344739 0)
(0.478356 -0.0330174 0)
(0.496245 0.00411646 0)
(0.501862 -0.0364621 0)
(0.49437 0.066512 0)
(0.522942 0.0142204 0)
(0.561943 0.0246289 0)
(0.458449 -0.00705441 0)
(0.331999 0.0836488 0)
(0.301608 0.0606361 0)
(0.258678 0.0766492 0)
(0.215473 0.0382766 0)
(0.212816 0.0782404 0)
(-0.00306025 -0.0693538 0)
(0.110454 -0.0600312 0)
(0.1836 -0.0628354 0)
(0.317076 -0.0490215 0)
(0.338784 -0.0437835 0)
(0.469472 -0.0526711 0)
(0.504305 -0.00338416 0)
(0.566827 -0.0788179 0)
(0.665718 -0.0131894 0)
(0.550457 -0.155885 0)
(0.426843 -0.0104089 0)
(0.384342 0.0224546 0)
(0.400763 -0.0293911 0)
(0.388177 0.0682174 0)
(0.480721 0.0998803 0)
(0.534482 0.172764 0)
(0.558752 0.0767501 0)
(0.42437 -0.0430102 0)
(0.315035 0.030702 0)
(0.277454 0.0654062 0)
(0.198974 0.071901 0)
(0.164618 0.0527544 0)
(0.204067 0.119592 0)
(0.00536818 -0.0689622 0)
(0.124343 -0.0757858 0)
(0.195856 -0.0802784 0)
(0.324485 -0.0627556 0)
(0.361339 -0.0566821 0)
(0.543808 -0.0750162 0)
(0.532338 -0.0338759 0)
(0.594626 -0.093069 0)
(0.641173 -0.0110644 0)
(0.51162 -0.0997787 0)
(0.426285 -0.071749 0)
(0.375804 -0.0699459 0)
(0.411354 0.046956 0)
(0.460974 0.0664976 0)
(0.437152 0.152999 0)
(0.465738 0.153874 0)
(0.475208 0.0801462 0)
(0.422136 0.0563838 0)
(0.317929 0.00745179 0)
(0.300268 0.0617334 0)
(0.230485 0.0613521 0)
(0.186995 0.11577 0)
(0.230596 0.163409 0)
(-0.000184338 -0.138378 0)
(0.121267 -0.110852 0)
(0.199962 -0.111356 0)
(0.348389 -0.0902029 0)
(0.401256 -0.0926959 0)
(0.594562 -0.102755 0)
(0.545791 0.015782 0)
(0.595379 -0.131311 0)
(0.619294 0.0393944 0)
(0.520547 -0.100419 0)
(0.424236 -0.0834897 0)
(0.43903 -0.1019 0)
(0.438856 0.0779473 0)
(0.41372 -0.0845162 0)
(0.457452 0.082125 0)
(0.353703 0.169115 0)
(0.37049 0.0863944 0)
(0.328254 0.0347284 0)
(0.310961 0.0583134 0)
(0.299826 0.110158 0)
(0.255987 0.109005 0)
(0.194915 0.152087 0)
(0.243941 0.219778 0)
(0.0189069 -0.102696 0)
(0.138834 -0.125599 0)
(0.2214 -0.132284 0)
(0.401621 -0.109318 0)
(0.455855 -0.117326 0)
(0.652586 -0.117259 0)
(0.548634 -0.0771451 0)
(0.584799 -0.0993514 0)
(0.660667 0.000270169 0)
(0.527119 -0.0458413 0)
(0.501182 -0.141778 0)
(0.467364 0.0706912 0)
(0.434786 -0.0811511 0)
(0.475712 -0.0401189 0)
(0.563005 0.0587206 0)
(0.410449 0.181218 0)
(0.318683 0.107346 0)
(0.342178 0.0864984 0)
(0.340215 0.0807245 0)
(0.325205 0.0998547 0)
(0.274381 0.110057 0)
(0.222133 0.234555 0)
(0.238817 0.263434 0)
(-0.00515145 -0.0780725 0)
(0.108447 -0.165667 0)
(0.239798 -0.172814 0)
(0.470859 -0.150888 0)
(0.488563 -0.152121 0)
(0.645348 -0.142837 0)
(0.609551 -0.10866 0)
(0.712959 -0.0259416 0)
(0.691062 -0.153291 0)
(0.521602 -0.0674995 0)
(0.563535 -0.0450458 0)
(0.509676 -0.078037 0)
(0.415376 0.0786236 0)
(0.508337 0.123296 0)
(0.554804 -0.0828152 0)
(0.428892 0.148967 0)
(0.326902 0.0996731 0)
(0.320084 0.15003 0)
(0.327203 0.0792297 0)
(0.339046 0.152218 0)
(0.315883 0.143171 0)
(0.240838 0.268465 0)
(0.271941 0.34054 0)
(-0.0192355 -0.1024 0)
(0.0931776 -0.175152 0)
(0.326409 -0.223512 0)
(0.500517 -0.170381 0)
(0.496038 -0.163092 0)
(0.678867 -0.158349 0)
(0.651943 -0.157267 0)
(0.65244 -0.0902885 0)
(0.673095 -0.152853 0)
(0.594965 -0.0375954 0)
(0.480299 0.0880001 0)
(0.536693 -0.0275405 0)
(0.484199 0.0737378 0)
(0.422602 0.0153983 0)
(0.503251 0.0683143 0)
(0.368298 0.208148 0)
(0.186467 0.0638221 0)
(0.222572 0.0887031 0)
(0.254216 0.0490565 0)
(0.329273 0.0934763 0)
(0.397244 0.151247 0)
(0.363064 0.29494 0)
(0.229601 0.490277 0)
(-0.710692 0.220339 0)
(-0.990361 -0.055742 0)
(-1.14954 -0.0760089 0)
(-1.22992 -0.0786514 0)
(-1.24495 -0.0869672 0)
(-1.10123 -0.0944613 0)
(-1.05989 -0.0669769 0)
(-1.11562 -0.16155 0)
(-1.32047 -0.0765128 0)
(-1.10646 -0.0694251 0)
(-1.36432 -0.197544 0)
(-1.48867 0.0993513 0)
(-1.09314 -0.225343 0)
(-0.779046 -0.00700227 0)
(-0.547826 -0.0590704 0)
(-0.385343 -0.112253 0)
(-0.331398 -0.0551159 0)
(-0.144442 -0.00470097 0)
(-0.0550064 -0.0568931 0)
(-0.529182 0.490161 0)
(-0.476384 0.248736 0)
(-0.6116 0.14573 0)
(-0.47954 0.105579 0)
(-0.240484 0.00843365 0)
(-0.18124 0.0272625 0)
(-0.637512 0.0389865 0)
(-1.00218 -0.186324 0)
(-1.27504 0.110344 0)
(-1.18255 0.336508 0)
(-1.24979 0.0489124 0)
(-1.38458 0.225691 0)
(-0.768131 -0.26891 0)
(-0.300219 -0.20009 0)
(-0.126105 -0.133545 0)
(0.0810936 -0.110086 0)
(0.0387192 -0.00361305 0)
(0.0753221 -0.0135366 0)
(0.128594 -0.0296834 0)
(-0.456491 1.09695 0)
(-0.386443 0.589598 0)
(-0.393641 -0.061799 0)
(-0.055305 -0.212995 0)
(-0.337425 -0.151587 0)
(-0.46079 0.0359418 0)
(-0.642955 0.00282722 0)
(-0.656863 0.00225383 0)
(-0.856349 0.134862 0)
(-0.807858 0.329949 0)
(-0.336725 -0.201436 0)
(-0.745899 -0.39083 0)
(-0.431884 -0.044048 0)
(-0.0469139 -0.338181 0)
(0.181926 -0.209781 0)
(0.364824 -0.157232 0)
(0.193112 -0.100422 0)
(0.18742 0.0233031 0)
(0.167726 -0.0109855 0)
(-0.414675 1.09097 0)
(-0.00597065 0.634737 0)
(0.1964 -0.267646 0)
(0.173129 -0.0509756 0)
(0.0717315 0.228423 0)
(-0.166637 0.149536 0)
(-0.300975 0.0942427 0)
(0.267948 -0.221557 0)
(-0.0676366 0.112011 0)
(-0.212211 0.548236 0)
(0.54652 -0.0180261 0)
(-0.138067 -0.169695 0)
(0.0825002 -0.307855 0)
(0.229219 -0.361094 0)
(0.374682 -0.246066 0)
(0.509556 -0.0814817 0)
(0.404902 -0.0483643 0)
(0.144943 0.0651607 0)
(0.180792 0.0411123 0)
(-0.354605 1.12858 0)
(0.414663 0.370828 0)
(0.564203 -0.216403 0)
(0.513519 -0.033156 0)
(0.481779 0.173618 0)
(0.389936 0.309422 0)
(0.301306 -0.00446749 0)
(0.437705 -0.0931702 0)
(0.626944 0.0954273 0)
(0.590699 0.113877 0)
(0.72205 -0.121624 0)
(0.41878 -0.118011 0)
(0.427255 -0.227641 0)
(0.532705 -0.358934 0)
(0.657704 -0.270868 0)
(0.670159 -0.195644 0)
(0.508183 -0.0183458 0)
(0.226188 0.0773254 0)
(0.208016 0.0674046 0)
(-0.323757 1.04448 0)
(0.586371 0.240514 0)
(0.59013 -0.180638 0)
(0.541729 -0.273201 0)
(0.429679 0.0186924 0)
(0.608649 0.366019 0)
(0.707895 0.00633679 0)
(0.416595 0.029341 0)
(0.666023 -0.220955 0)
(0.966166 0.186366 0)
(1.03375 0.192577 0)
(0.560316 -0.016817 0)
(0.748478 -0.310651 0)
(0.770706 -0.401905 0)
(0.848687 -0.293531 0)
(0.821834 -0.206597 0)
(0.685256 0.0368622 0)
(0.440156 0.122673 0)
(0.263147 0.127378 0)
(-0.0525861 0.932315 0)
(0.646422 0.18367 0)
(0.47106 -0.233066 0)
(0.492452 -0.190154 0)
(0.427504 0.100794 0)
(0.490123 0.406753 0)
(0.511745 -0.181601 0)
(0.25083 -0.0600399 0)
(0.246929 -0.127004 0)
(0.492053 0.324174 0)
(0.751161 0.163719 0)
(0.731455 0.0622425 0)
(1.05507 -0.289592 0)
(1.02662 -0.390903 0)
(1.02435 -0.300382 0)
(0.94613 -0.143859 0)
(0.817128 0.0696345 0)
(0.485238 0.164711 0)
(0.310398 0.22154 0)
(0.0566893 0.533874 0)
(0.714238 -0.111372 0)
(0.46687 -0.189745 0)
(0.370143 -0.0184044 0)
(0.251692 0.0337102 0)
(0.0874935 0.301015 0)
(0.880827 -0.23792 0)
(-0.265905 0.235676 0)
(0.377498 -0.205045 0)
(0.383499 0.19199 0)
(0.534424 -0.0149019 0)
(1.02605 -0.187054 0)
(1.26338 -0.369805 0)
(1.189 -0.38862 0)
(1.09131 -0.262939 0)
(0.947945 -0.0890462 0)
(0.849387 0.134124 0)
(0.547268 0.229513 0)
(0.247678 0.296172 0)
(-0.0247293 -0.14077 0)
(0.058808 -0.330391 0)
(0.345979 -0.299308 0)
(0.326688 -0.205948 0)
(0.296512 -0.20095 0)
(0.380639 -0.221917 0)
(0.477328 -0.329783 0)
(0.525039 -0.15848 0)
(0.593253 -0.110628 0)
(0.592054 0.0413921 0)
(0.6498 0.0231263 0)
(0.552324 0.13447 0)
(0.372358 -0.0291711 0)
(0.430062 0.035033 0)
(0.692116 0.149349 0)
(0.561412 0.0375368 0)
(0.379905 0.0843297 0)
(0.440472 0.0348464 0)
(0.470171 0.0948196 0)
(0.455814 0.0231238 0)
(0.446361 0.0812129 0)
(0.441615 0.346433 0)
(0.432712 0.707278 0)
(-0.215429 -0.0435617 0)
(-0.267832 -0.550611 0)
(-0.151941 -0.431564 0)
(-0.115022 -0.126043 0)
(-0.0285316 -0.234709 0)
(0.0319857 -0.330648 0)
(0.0273973 -0.236433 0)
(0.135373 -0.167551 0)
(0.263439 -0.19135 0)
(0.642257 -0.109747 0)
(0.976645 0.174713 0)
(0.675168 0.296223 0)
(0.314318 0.151409 0)
(0.38122 0.184728 0)
(0.465671 0.137382 0)
(0.383073 0.0158142 0)
(0.397604 0.0605499 0)
(0.480411 0.0401213 0)
(0.495943 0.0930601 0)
(0.444853 0.0868119 0)
(0.541936 0.164877 0)
(0.68284 0.299361 0)
(0.740839 0.756656 0)
(-0.0388597 0.268916 0)
(0.0920938 -0.598636 0)
(-0.395867 -0.380083 0)
(0.0827909 -0.172274 0)
(0.158731 -0.301102 0)
(-0.0716944 -0.252746 0)
(-0.0121394 -0.3397 0)
(0.0592823 -0.28194 0)
(-0.0127163 -0.330216 0)
(0.0473205 -0.31718 0)
(0.482329 -0.139079 0)
(0.546454 0.29286 0)
(0.521376 0.191526 0)
(0.481638 0.0471147 0)
(0.414585 0.0237878 0)
(0.349636 0.08447 0)
(0.344168 -0.0354649 0)
(0.403091 -0.0386348 0)
(0.378819 0.0240262 0)
(0.479104 0.103301 0)
(0.557591 0.370764 0)
(0.846387 0.326467 0)
(0.823743 0.463614 0)
(-0.12847 0.117195 0)
(0.138664 -0.599831 0)
(-0.236558 -0.827283 0)
(-0.0332039 -0.342979 0)
(-0.0697081 -0.229049 0)
(-0.116906 -0.209987 0)
(-0.0374662 -0.344763 0)
(-0.018257 -0.164859 0)
(-0.145433 -0.24996 0)
(-0.185865 -0.348034 0)
(-0.104588 -0.499791 0)
(0.106866 0.0371994 0)
(0.534404 0.178765 0)
(0.833981 0.16582 0)
(0.865655 0.227087 0)
(0.609227 0.116854 0)
(0.368705 0.00759706 0)
(0.477751 0.0129252 0)
(0.454725 0.135563 0)
(0.650756 0.249661 0)
(0.631815 0.391302 0)
(0.728788 0.438022 0)
(0.649945 0.236046 0)
(-0.0798961 0.0526525 0)
(0.158005 -0.404749 0)
(-0.0275824 -0.951384 0)
(0.0632653 -0.529934 0)
(-0.153825 -0.411246 0)
(0.023522 -0.328044 0)
(-0.161818 -0.46058 0)
(-0.225189 -0.20009 0)
(-0.228841 -0.267143 0)
(-0.248415 -0.244684 0)
(-0.115769 -0.517219 0)
(0.0985706 -0.33 0)
(0.367831 0.0636867 0)
(0.240488 -0.0116658 0)
(0.569336 0.163584 0)
(0.569965 -0.00682385 0)
(0.696631 -0.0462182 0)
(0.737048 -0.0412849 0)
(0.659623 0.227327 0)
(0.626232 0.321936 0)
(0.621835 0.282983 0)
(0.619141 0.310941 0)
(0.528579 0.162819 0)
(0.0361871 0.0150943 0)
(0.123331 -0.451562 0)
(0.0517805 -0.818092 0)
(-0.133662 -0.696091 0)
(-0.0936502 -0.308851 0)
(-0.125711 -0.556945 0)
(-0.13405 -0.59616 0)
(-0.20341 -0.265952 0)
(-0.185652 -0.0955328 0)
(-0.340247 -0.376855 0)
(-0.0330463 -0.886232 0)
(0.0593506 -0.168332 0)
(0.0710919 -0.182101 0)
(-0.00676071 -0.152405 0)
(0.190554 -0.150474 0)
(0.337662 -0.191729 0)
(0.388207 -0.103523 0)
(0.770005 0.0491799 0)
(0.682707 0.280212 0)
(0.385725 0.298649 0)
(0.395324 0.145308 0)
(0.457928 0.145514 0)
(0.535331 0.171711 0)
(-0.0279004 -0.100869 0)
(-0.0132728 -0.333482 0)
(-0.057289 -0.641565 0)
(-0.166562 -0.458782 0)
(-0.249253 -0.29159 0)
(-0.166705 -0.451426 0)
(-0.14716 -0.44084 0)
(-0.23925 -0.192547 0)
(-0.351607 0.00311596 0)
(-0.214579 -0.301528 0)
(0.0519277 -1.00193 0)
(0.00694445 -0.476855 0)
(0.0952021 0.0935418 0)
(-0.000830975 -0.0483499 0)
(0.187019 -0.193458 0)
(0.117404 -0.0813664 0)
(0.0129546 -0.0246116 0)
(0.0821701 -0.230315 0)
(0.358789 0.0714778 0)
(0.293736 0.226253 0)
(0.287537 0.167517 0)
(0.346409 0.132267 0)
(0.522815 0.0917879 0)
(0.207627 0.010158 0)
(0.340629 -0.368987 0)
(0.230066 -0.64348 0)
(0.188756 -0.473088 0)
(-0.132016 -0.301094 0)
(-0.0349935 -0.314131 0)
(-0.136918 -0.500419 0)
(-0.244207 -0.244784 0)
(-0.400959 -0.0936727 0)
(-0.0823888 -0.541371 0)
(0.00208449 -1.10961 0)
(0.0588115 -0.675056 0)
(0.245526 -0.231761 0)
(0.0322131 -0.202382 0)
(0.181348 -0.300831 0)
(0.0841447 0.0780434 0)
(0.192827 -0.0759232 0)
(0.0840174 -0.256574 0)
(0.0532687 0.128374 0)
(0.233089 0.330053 0)
(0.181847 0.138294 0)
(0.645571 -0.0705231 0)
(0.576039 -0.269081 0)
(-0.0664703 -0.615282 0)
(0.194445 -0.425516 0)
(0.115766 -0.353643 0)
(0.118502 0.117793 0)
(0.0549489 0.179075 0)
(-0.023124 -0.187671 0)
(-0.223997 -0.236665 0)
(-0.479893 -0.0103498 0)
(-0.402588 -0.0915262 0)
(-0.136796 -0.812404 0)
(-0.0169018 -1.11975 0)
(-0.0741243 -0.571855 0)
(0.490769 -0.256351 0)
(0.14856 -0.189071 0)
(0.126487 -0.229407 0)
(-0.0411015 0.129811 0)
(0.189373 -0.0779279 0)
(0.0657273 -0.188116 0)
(-0.0469338 0.014384 0)
(0.0538506 0.249701 0)
(0.0506735 0.149159 0)
(0.20938 -0.101694 0)
(0.173271 -0.369458 0)
(-0.0508305 -0.797437 0)
(0.117354 -0.42586 0)
(-0.0120632 -0.490377 0)
(0.117927 -0.261988 0)
(0.129113 -0.122444 0)
(0.0393149 -0.24892 0)
(-0.0159599 -0.267924 0)
(-0.197307 0.0974059 0)
(-0.0623678 -0.145885 0)
(-0.141045 -0.841275 0)
(0.0248463 -1.08656 0)
(-0.196292 -0.739323 0)
(0.283423 -0.047297 0)
(0.103641 -0.0568116 0)
(0.0185618 -0.108811 0)
(-0.0852828 -0.0530776 0)
(0.0537888 -0.223318 0)
(-0.0871254 -0.188688 0)
(-0.0399604 0.0343085 0)
(0.151131 0.0975184 0)
(0.23327 -0.0308182 0)
(0.251719 -0.222276 0)
(0.465626 -0.270208 0)
(-0.13892 -0.769732 0)
(0.00882408 -0.4011 0)
(-0.0484413 -0.389955 0)
(-0.0150563 -0.203456 0)
(0.0223245 0.117964 0)
(0.0782182 0.0673158 0)
(-0.00556216 -0.0140597 0)
(0.00629863 0.107906 0)
(0.379679 -0.209705 0)
(-0.0565995 -0.8015 0)
(0.0411916 -1.03036 0)
(-0.189847 -0.838787 0)
(0.147689 -0.130117 0)
(0.016503 -0.00394191 0)
(0.0168807 -0.0125719 0)
(-0.116771 0.0590281 0)
(-0.123767 -0.226461 0)
(-0.0600473 -0.131027 0)
(-0.035625 -0.0952946 0)
(0.0327462 -0.008044 0)
(0.100591 -0.297468 0)
(0.159466 -0.290186 0)
(0.310639 -0.309833 0)
(-0.15929 -0.673997 0)
(-0.0634825 -0.50436 0)
(-0.0878046 -0.456817 0)
(-0.0957263 -0.346831 0)
(0.0243892 -0.209874 0)
(0.0944566 -0.101648 0)
(0.132813 -0.124182 0)
(0.21008 -0.0749852 0)
(0.46213 -0.253125 0)
(0.122938 -0.427081 0)
(0.117003 -0.990115 0)
(-0.146661 -0.790507 0)
(0.0954306 -0.425671 0)
(0.0071906 0.0919005 0)
(0.0469623 0.00831788 0)
(-0.0281473 -0.00996067 0)
(0.038313 -0.170841 0)
(-0.0746728 -0.143093 0)
(-0.0176747 -0.0451344 0)
(-0.0091212 -0.0842069 0)
(0.0858978 -0.063896 0)
(0.0988706 -0.221335 0)
(0.0839435 -0.350053 0)
(-0.115212 -0.556735 0)
(-0.0201771 -0.314475 0)
(-0.0287246 -0.510535 0)
(-0.0542502 -0.255508 0)
(0.14315 -0.338382 0)
(0.145138 -0.243158 0)
(0.0946953 -0.233385 0)
(0.214645 -0.234528 0)
(0.264097 -0.199391 0)
(0.258175 -0.333204 0)
(0.202319 -0.936637 0)
(-0.0840543 -0.936356 0)
(-0.315076 -0.471938 0)
(0.411245 -0.0127654 0)
(0.284463 0.107361 0)
(0.128253 0.113193 0)
(-0.00924649 -0.139529 0)
(0.0272196 -0.213343 0)
(-0.040041 -0.162575 0)
(0.0136111 -0.223217 0)
(0.00635855 -0.248035 0)
(-0.039159 -0.289226 0)
(0.0390301 -0.323944 0)
(0.032107 -0.33893 0)
(-0.0114148 -0.243006 0)
(-0.0291637 -0.264367 0)
(0.00443274 -0.253311 0)
(0.0337293 -0.273111 0)
(0.173379 -0.260815 0)
(0.230405 -0.239977 0)
(0.274303 -0.287475 0)
(0.138049 -0.187968 0)
(0.205287 -0.268993 0)
(0.0336891 -0.864024 0)
(-0.0419802 -1.07888 0)
(-0.0509158 -0.670633 0)
(0.11287 -0.385127 0)
(0.116944 0.0933573 0)
(0.0410003 0.142688 0)
(0.00165146 -0.00477795 0)
(-0.0596919 -0.0935688 0)
(-0.0369431 -0.213692 0)
(-0.113771 -0.201547 0)
(-0.0414098 -0.25105 0)
(-0.0997979 -0.286052 0)
(-0.255965 -0.307638 0)
(-0.093142 -0.187837 0)
(-0.0471409 -0.237247 0)
(-0.0255278 -0.208912 0)
(-0.0218019 -0.284855 0)
(0.0335449 -0.265271 0)
(0.0491439 -0.246148 0)
(0.086125 -0.343818 0)
(0.170163 -0.399931 0)
(0.185193 -0.266807 0)
(0.297341 -0.289937 0)
(0.0935036 -0.684906 0)
(-0.0269352 -0.843072 0)
(-0.0659739 -0.525148 0)
(-0.226305 -0.0726793 0)
(-0.114019 0.126821 0)
(-0.157744 0.0620826 0)
(-0.0562595 0.00921374 0)
(-0.0788246 -0.0727803 0)
(-0.0421401 -0.0750777 0)
(-0.0889361 -0.174614 0)
(-0.135652 -0.0927177 0)
(-0.0675891 -0.24793 0)
(-0.213608 -0.212859 0)
(-0.0336179 -0.216056 0)
(-0.0213955 -0.246198 0)
(-0.0265999 -0.265375 0)
(-0.0158708 -0.29164 0)
(0.00531152 -0.309474 0)
(-0.00624148 -0.366055 0)
(0.0731732 -0.461271 0)
(0.137847 -0.373704 0)
(0.070873 -0.348995 0)
(0.310459 -0.318926 0)
(0.0374989 -0.691085 0)
(-0.066771 -0.755863 0)
(-0.00904632 -0.490854 0)
(-0.396939 -0.151728 0)
(-0.261163 0.0313986 0)
(-0.264729 -0.0173759 0)
(-0.0673022 0.0101485 0)
(-0.101324 -0.0652593 0)
(-0.0960603 -0.0680563 0)
(-0.0956949 -0.100035 0)
(-0.150164 -0.168813 0)
(-0.185716 -0.160848 0)
(-0.213862 -0.246864 0)
(-0.0764243 -0.193937 0)
(-0.0379785 -0.20467 0)
(-0.0611025 -0.268052 0)
(-0.0287546 -0.296729 0)
(-0.00648549 -0.294717 0)
(-0.112164 -0.422675 0)
(0.114631 -0.356931 0)
(0.100437 -0.579665 0)
(-0.0936867 -0.500215 0)
(0.185982 -0.302227 0)
(0.0946294 -0.285916 0)
(-0.0360906 -0.185841 0)
(-0.20631 -0.178382 0)
(-0.396442 -0.10133 0)
(-0.45397 0.0418633 0)
(-0.204394 -0.0320332 0)
(-0.14694 -0.0103654 0)
(-0.155063 -0.0330635 0)
(-0.131758 -0.0847122 0)
(-0.221568 -0.0715257 0)
(-0.211475 -0.154454 0)
(-0.131894 -0.171024 0)
(-0.0424079 -0.132753 0)
(0.0626409 -0.32865 0)
(-0.000937782 -0.331636 0)
(-0.0872995 -0.230759 0)
(-0.0223331 -0.302544 0)
(-0.0739119 -0.268682 0)
(-0.0280534 -0.429397 0)
(-0.0577881 -0.34867 0)
(-0.0106234 -0.704917 0)
(-0.0908485 -0.614999 0)
(0.01972 -0.605059 0)
(-0.0105445 -0.522047 0)
(-0.208328 -0.387928 0)
(-0.394024 -0.262551 0)
(-0.451115 -0.211568 0)
(-0.485545 -0.113133 0)
(-0.212525 -0.0488835 0)
(-0.126553 -0.0685888 0)
(-0.169337 -0.0945372 0)
(-0.126663 -0.106159 0)
(-0.156847 -0.131554 0)
(-0.203553 -0.0720239 0)
(-0.182554 -0.136868 0)
(-0.272246 -0.168454 0)
(-0.00255568 -0.346143 0)
(0.0879458 -0.3755 0)
(-0.0264127 -0.362672 0)
(-0.0404067 -0.220722 0)
(-0.0978134 -0.385315 0)
(-0.165554 -0.360099 0)
(-0.121811 -0.402847 0)
(-0.172489 -0.430341 0)
(-0.10167 -0.49549 0)
(-0.195601 -0.492359 0)
(-0.233776 -0.436717 0)
(-0.270364 -0.415752 0)
(-0.361692 -0.267147 0)
(-0.394736 -0.314225 0)
(-0.343463 -0.170921 0)
(-0.196099 -0.0889689 0)
(-0.195551 -0.0961972 0)
(-0.184314 -0.11515 0)
(-0.131349 -0.153769 0)
(-0.152441 -0.180685 0)
(-0.140581 -0.142415 0)
(-0.224809 -0.150567 0)
(-0.182132 -0.0940841 0)
(0.0137614 -0.400344 0)
(0.0112285 -0.391564 0)
(0.0640077 -0.435521 0)
(-0.0317672 -0.36242 0)
(-0.187645 -0.436905 0)
(-0.0817296 -0.419751 0)
(-0.0605381 -0.325543 0)
(-0.128517 -0.333643 0)
(-0.149646 -0.360132 0)
(-0.185884 -0.338616 0)
(-0.241302 -0.25619 0)
(-0.271878 -0.200395 0)
(-0.330611 -0.216921 0)
(-0.362905 -0.185164 0)
(-0.215583 -0.0849825 0)
(-0.162816 -0.0600769 0)
(-0.177878 -0.0632887 0)
(-0.244568 -0.0367274 0)
(-0.214031 -0.102106 0)
(-0.132959 -0.111385 0)
(-0.149769 -0.184058 0)
(-0.134764 -0.0942125 0)
(-0.229834 -0.0457522 0)
(-0.00356429 -0.405877 0)
(0.00872246 -0.396374 0)
(-0.0141392 -0.387497 0)
(-0.013747 -0.410037 0)
(-0.09362 -0.372529 0)
(0.0384353 -0.305685 0)
(0.0276068 -0.408103 0)
(-0.182743 -0.308323 0)
(-0.121608 -0.335919 0)
(-0.0620555 -0.321309 0)
(-0.14083 -0.352295 0)
(-0.287015 -0.321048 0)
(-0.301773 -0.240949 0)
(-0.213062 -0.142228 0)
(-0.217125 -0.0887624 0)
(-0.161194 -0.130766 0)
(-0.163884 -0.146182 0)
(-0.186819 -0.0858244 0)
(-0.224996 -0.0901329 0)
(-0.247747 -0.0783026 0)
(-0.186094 -0.149996 0)
(-0.0845662 -0.111058 0)
(-0.174945 -0.187186 0)
(-0.00100672 -0.395466 0)
(-0.00605933 -0.378527 0)
(0.00883302 -0.360102 0)
(-0.0162756 -0.356424 0)
(-0.0213519 -0.390285 0)
(-0.00871116 -0.214262 0)
(0.0393542 -0.465171 0)
(-0.0340099 -0.369328 0)
(-0.189392 -0.315729 0)
(-0.159025 -0.309032 0)
(-0.150585 -0.37209 0)
(-0.186778 -0.379328 0)
(-0.206219 -0.291723 0)
(-0.153496 -0.24675 0)
(-0.17596 -0.151222 0)
(-0.213366 -0.0999882 0)
(-0.0984622 -0.200021 0)
(-0.188412 -0.187026 0)
(-0.213061 -0.221212 0)
(-0.155847 -0.122275 0)
(-0.186074 -0.109483 0)
(-0.173072 -0.0992783 0)
(-0.192789 -0.136864 0)
(-0.0178814 -0.414967 0)
(-0.00228885 -0.416378 0)
(-0.0651602 -0.407861 0)
(-0.0113806 -0.312063 0)
(0.123535 -0.406663 0)
(0.0176189 -0.39161 0)
(-0.110639 -0.377415 0)
(-0.0298057 -0.456617 0)
(-0.111293 -0.429997 0)
(-0.118159 -0.361928 0)
(-0.0936453 -0.338324 0)
(-0.176484 -0.305109 0)
(-0.136952 -0.255144 0)
(-0.0866011 -0.262192 0)
(-0.119034 -0.200442 0)
(-0.202472 -0.202354 0)
(-0.21682 -0.17588 0)
(-0.214999 -0.236809 0)
(-0.150616 -0.11775 0)
(-0.117972 -0.0971895 0)
(-0.156843 -0.133972 0)
(-0.109877 -0.110152 0)
(-0.0998295 -0.157814 0)
(-0.0605787 -0.345458 0)
(-0.0507889 -0.276401 0)
(0.0612151 -0.272374 0)
(0.00509392 -0.244847 0)
(-0.00668591 -0.256125 0)
(0.0816484 -0.445285 0)
(-0.0192599 -0.382246 0)
(-0.0194579 -0.369073 0)
(-0.0706575 -0.358989 0)
(-0.0821682 -0.314962 0)
(-0.101677 -0.309082 0)
(-0.0924304 -0.286892 0)
(-0.111217 -0.196403 0)
(-0.0565547 -0.223817 0)
(-0.13901 -0.223626 0)
(-0.183059 -0.190654 0)
(-0.118828 -0.221874 0)
(-0.113928 -0.213761 0)
(-0.0672924 -0.120887 0)
(-0.158898 -0.109509 0)
(-0.1851 -0.119001 0)
(-0.162783 -0.1265 0)
(-0.155054 -0.115473 0)
(0.0421011 -0.196382 0)
(0.0389335 -0.204264 0)
(-0.00131583 -0.16919 0)
(-0.0205865 -0.227102 0)
(-0.0494755 -0.193731 0)
(-0.0572997 -0.268739 0)
(0.0295606 -0.235966 0)
(0.0314262 -0.368968 0)
(-0.0289197 -0.310222 0)
(-0.0414949 -0.31707 0)
(-0.0574689 -0.337225 0)
(-0.0856074 -0.329395 0)
(-0.0783109 -0.310745 0)
(-0.0721623 -0.272462 0)
(-0.0150748 -0.29211 0)
(-0.174997 -0.237341 0)
(-0.198971 -0.216479 0)
(-0.0604141 -0.137143 0)
(-0.0859394 -0.173249 0)
(-0.125058 -0.186164 0)
(-0.153583 -0.131252 0)
(-0.121509 -0.120367 0)
(-0.119548 -0.0841784 0)
(0.000947655 -0.163209 0)
(-0.00950422 -0.208815 0)
(-0.000134214 -0.209292 0)
(-0.0015101 -0.201894 0)
(-0.0224971 -0.200322 0)
(-0.0156076 -0.186531 0)
(-0.0755667 -0.181377 0)
(-0.0494436 -0.213604 0)
(-0.0217228 -0.22024 0)
(-0.108688 -0.23499 0)
(-0.097656 -0.198475 0)
(-0.0568764 -0.210572 0)
(-0.0236278 -0.210119 0)
(0.0183268 -0.306133 0)
(-0.0800766 -0.242365 0)
(-0.121393 -0.318383 0)
(-0.0321137 -0.129505 0)
(-0.0284435 -0.210943 0)
(-0.127881 -0.187794 0)
(-0.120199 -0.211624 0)
(-0.0994656 -0.124887 0)
(-0.142817 -0.148175 0)
(-0.0877667 -0.0870997 0)
(0.0043794 -0.184288 0)
(0.00781914 -0.20257 0)
(-0.00445185 -0.187631 0)
(-0.00452793 -0.198108 0)
(-0.0218637 -0.188516 0)
(-0.0151304 -0.208319 0)
(-0.0193955 -0.194927 0)
(-0.0211907 -0.158984 0)
(-0.0367686 -0.192917 0)
(-0.0407849 -0.180061 0)
(-0.0541996 -0.145581 0)
(-0.0727612 -0.152595 0)
(-0.0864553 -0.152008 0)
(-0.0864237 -0.171713 0)
(-0.0649999 -0.199104 0)
(-0.0389175 -0.150756 0)
(-0.0885057 -0.179821 0)
(-0.0769307 -0.212706 0)
(-0.0429523 -0.223248 0)
(-0.0538027 -0.220594 0)
(-0.0715136 -0.125987 0)
(-0.0951369 -0.104407 0)
(-0.0905142 -0.0906629 0)
(-0.00247174 -0.177029 0)
(-0.000180412 -0.198911 0)
(-0.0066489 -0.191819 0)
(-0.00280616 -0.185098 0)
(-0.0225239 -0.184949 0)
(-0.0132496 -0.1861 0)
(-0.036862 -0.173699 0)
(-0.0326599 -0.177574 0)
(-0.0379638 -0.174055 0)
(-0.0513568 -0.186682 0)
(-0.0391385 -0.144102 0)
(-0.0516995 -0.163799 0)
(-0.0505116 -0.180315 0)
(-0.0590956 -0.164265 0)
(-0.0583413 -0.202236 0)
(-0.0776855 -0.120875 0)
(-0.0667157 -0.219333 0)
(-0.0438229 -0.105422 0)
(-0.118618 -0.134552 0)
(-0.0227806 -0.136786 0)
(-0.0036922 -0.161351 0)
(-0.11999 -0.0756381 0)
(-0.103552 -0.130236 0)
(-0.00215596 -0.181804 0)
(0.00629418 -0.198551 0)
(-0.00276065 -0.189351 0)
(0.00552826 -0.184974 0)
(-0.0142019 -0.185777 0)
(-0.00426298 -0.200761 0)
(-0.028719 -0.18477 0)
(-0.0168271 -0.164881 0)
(-0.0261198 -0.175025 0)
(0.00286068 -0.173537 0)
(-0.0248588 -0.172417 0)
(-0.0906303 -0.148542 0)
(-0.0873304 -0.157458 0)
(-0.101995 -0.163808 0)
(0.0166255 -0.143116 0)
(-0.0208439 -0.225713 0)
(-0.0599069 -0.101814 0)
(0.00758518 -0.176836 0)
(-0.0982438 -0.1252 0)
(-0.0652608 -0.112538 0)
(-0.056524 -0.201152 0)
(-0.0521775 -0.0968811 0)
(-0.0929236 -0.0865694 0)
(-0.00387549 -0.180045 0)
(0.00358688 -0.196914 0)
(-0.00755923 -0.186666 0)
(0.000214059 -0.170282 0)
(-0.0251121 -0.167755 0)
(-0.0102599 -0.1551 0)
(-0.0270444 -0.146321 0)
(-0.0282857 -0.170324 0)
(-0.0247654 -0.200031 0)
(-0.0391235 -0.207366 0)
(-0.018937 -0.221375 0)
(-0.0497117 -0.182045 0)
(-0.0619363 -0.170415 0)
(-0.0634606 -0.168005 0)
(-0.0631553 -0.132704 0)
(-0.0429044 -0.27099 0)
(-0.0522455 -0.127824 0)
(-0.046994 -0.229154 0)
(-0.0587032 -0.147157 0)
(-0.0692683 -0.150438 0)
(-0.021615 -0.0658794 0)
(-0.0257687 -0.113384 0)
(-0.0592679 -0.0897366 0)
(-0.00410428 -0.182497 0)
(0.008545 -0.197547 0)
(0.00431075 -0.188088 0)
(0.0231395 -0.173106 0)
(0.0269559 -0.183067 0)
(0.0325989 -0.22067 0)
(-0.0781215 -0.189113 0)
(-0.0644063 -0.170689 0)
(-0.0443922 -0.168966 0)
(-0.0345891 -0.176371 0)
(-0.0317424 -0.175994 0)
(-0.0654521 -0.156181 0)
(-0.0605116 -0.153826 0)
(-0.0845975 -0.160355 0)
(-0.0750639 -0.14246 0)
(-0.0183383 -0.141637 0)
(-0.00867189 -0.089539 0)
(-0.00509174 -0.169759 0)
(-0.0460213 -0.100767 0)
(-0.0126245 -0.14881 0)
(-0.0676155 -0.142502 0)
(-0.114807 -0.187574 0)
(-0.0751264 -0.0865086 0)
(-0.00447961 -0.183294 0)
(0.00458307 -0.197508 0)
(-0.00679816 -0.191595 0)
(0.00294465 -0.175453 0)
(-0.0150713 -0.194276 0)
(-0.0155951 -0.277298 0)
(-0.015025 -0.250445 0)
(-0.0236192 -0.200776 0)
(-0.00502173 -0.258042 0)
(-0.041993 -0.243123 0)
(-0.0177838 -0.244755 0)
(-0.0403707 -0.173085 0)
(-0.0503034 -0.162537 0)
(-0.0548272 -0.162079 0)
(-0.0479866 -0.13272 0)
(1.76788e-05 -0.135328 0)
(-0.072169 -0.165452 0)
(-0.035979 -0.132404 0)
(-0.0178087 -0.177564 0)
(-0.0923024 -0.140326 0)
(-0.0717987 -0.15787 0)
(-0.00242019 -0.0932314 0)
(-0.00435406 -0.0966817 0)
(-0.00372457 -0.183393 0)
(0.00494443 -0.196396 0)
(-0.00195199 -0.190525 0)
(0.0131588 -0.166858 0)
(-0.00870193 -0.173584 0)
(0.00344404 -0.232144 0)
(-0.0487784 -0.194334 0)
(-0.0775131 -0.183646 0)
(-0.0468614 -0.171291 0)
(0.00543564 -0.149875 0)
(0.0222117 -0.179889 0)
(-0.0270286 -0.125722 0)
(-0.034963 -0.143229 0)
(-0.0574621 -0.15423 0)
(-0.0561241 -0.141971 0)
(-0.0612959 -0.143582 0)
(-0.0142613 -0.163382 0)
(0.0217008 -0.103592 0)
(-0.0190918 -0.198213 0)
(-0.00846229 -0.0917042 0)
(-0.0266016 -0.0800552 0)
(-0.0400641 -0.127255 0)
(-0.0818802 -0.151021 0)
(-0.00397008 -0.184769 0)
(0.00100302 -0.198259 0)
(-0.00953179 -0.193134 0)
(-0.000645601 -0.168062 0)
(-0.0478833 -0.186643 0)
(-0.0194163 -0.168716 0)
(0.0429594 -0.213731 0)
(-0.0202288 -0.128954 0)
(0.00911872 -0.133646 0)
(-0.0178533 -0.129775 0)
(0.0294586 -0.177587 0)
(-0.0168689 -0.161786 0)
(-0.066179 -0.153004 0)
(-0.050191 -0.154762 0)
(-0.0408535 -0.137979 0)
(-0.0234596 -0.124254 0)
(-0.0366455 -0.10269 0)
(-0.0450877 -0.127535 0)
(0.0193588 -0.116767 0)
(0.0159518 -0.146524 0)
(-0.0909857 -0.158515 0)
(-0.0423711 -0.135346 0)
(-0.0151547 -0.209241 0)
(-0.00411359 -0.181202 0)
(0.000656954 -0.194529 0)
(-0.00535789 -0.183656 0)
(-0.0017007 -0.154677 0)
(-0.00459349 -0.122095 0)
(-0.0066822 -0.138521 0)
(0.0427384 -0.165504 0)
(-0.0360694 -0.178404 0)
(-0.0595508 -0.165807 0)
(-0.0380608 -0.152358 0)
(-0.0196221 -0.191851 0)
(-0.00694974 -0.196247 0)
(-0.0336675 -0.161987 0)
(-0.0448097 -0.163078 0)
(-0.0396087 -0.149522 0)
(-0.0398811 -0.139626 0)
(-0.0235709 -0.13705 0)
(-0.0062226 -0.119152 0)
(-0.0209684 -0.099408 0)
(-0.0510263 -0.163371 0)
(0.0212659 -0.111255 0)
(-0.00938865 -0.104732 0)
(-0.0708747 -0.103447 0)
(-0.0041866 -0.183641 0)
(0.00420613 -0.194013 0)
(-0.00528456 -0.195965 0)
(0.0382237 -0.160976 0)
(-0.0165734 -0.201826 0)
(-0.0529871 -0.184087 0)
(-0.0070619 -0.197441 0)
(-0.0177922 -0.210845 0)
(-0.00789485 -0.182243 0)
(-0.023455 -0.165102 0)
(-0.0249766 -0.212901 0)
(-0.00804035 -0.15794 0)
(-0.032846 -0.138564 0)
(-0.0417963 -0.155623 0)
(-0.0333856 -0.146709 0)
(-0.0218539 -0.136335 0)
(-0.0282998 -0.117986 0)
(-0.0153692 -0.132695 0)
(-0.00389028 -0.110879 0)
(0.008559 -0.175197 0)
(-0.0276811 -0.0696379 0)
(0.0238383 -0.189786 0)
(-0.0221553 -0.115942 0)
(-0.00124599 -0.1794 0)
(-0.00254238 -0.192651 0)
(-0.00607869 -0.19945 0)
(0.000733254 -0.163953 0)
(-0.00235223 -0.232236 0)
(-0.018933 -0.183498 0)
(-0.00919652 -0.195288 0)
(-0.0257512 -0.161149 0)
(-0.0393927 -0.170565 0)
(-0.0412897 -0.126499 0)
(-0.00735148 -0.163589 0)
(0.0755837 -0.170592 0)
(-0.00510823 -0.164275 0)
(-0.0488928 -0.15922 0)
(-0.0396101 -0.154953 0)
(-0.0319566 -0.137489 0)
(-0.0380349 -0.131083 0)
(-0.0179254 -0.117241 0)
(-0.0342227 -0.117843 0)
(-0.0119404 -0.106917 0)
(0.00978982 -0.119197 0)
(0.00187219 -0.119566 0)
(-0.056113 -0.18458 0)
(-0.004248 -0.18296 0)
(-0.00576292 -0.195964 0)
(-0.0116608 -0.197152 0)
(0.00123683 -0.163008 0)
(-0.00798401 -0.170159 0)
(-0.0161257 -0.186481 0)
(-0.00633578 -0.193053 0)
(0.00571989 -0.179819 0)
(0.0256009 -0.176007 0)
(0.00603705 -0.183877 0)
(-0.053733 -0.146404 0)
(-0.0154792 -0.172798 0)
(-0.0422523 -0.189559 0)
(-0.0259346 -0.16856 0)
(-0.0312075 -0.161052 0)
(-0.0243277 -0.14302 0)
(-0.0333647 -0.132863 0)
(-0.0204188 -0.11596 0)
(-0.0158457 -0.12138 0)
(-0.0136752 -0.0855348 0)
(-0.0158938 -0.0794029 0)
(-0.0282263 -0.13 0)
(-0.0108587 -0.105026 0)
(-0.00130315 -0.168295 0)
(-0.0025873 -0.187326 0)
(-0.00720389 -0.195213 0)
(-0.0057211 -0.175666 0)
(-0.0107957 -0.186259 0)
(-0.00920037 -0.191529 0)
(-0.0231257 -0.238658 0)