/*--------------------------------*- C++ -*----------------------------------*\
| =========                 |                                                 |
| \\      /  F ield         | foam-extend: Open Source CFD                    |
|  \\    /   O peration     | Version:     4.1                                |
|   \\  /    A nd           | Web:         http://www.foam-extend.org         |
|    \\/     M anipulation  |                                                 |
\*---------------------------------------------------------------------------*/
FoamFile
{
    version     2.0;
    format      ascii;
    class       volVectorField;
    location    "0.5";
    object      U_0;
}
// * * * * * * * * * * * * * * * * * * * * * * * * * * * * * * * * * * * * * //

dimensions      [0 1 -1 0 0 0 0];

internalField   nonuniform List<vector> 
2268
(
(-0.00558165 -0.0196287 0)
(0.103044 -0.0144572 0)
(0.169355 -0.0143982 0)
(0.302703 -0.0114391 0)
(0.320341 -0.0107254 0)
(0.45385 -0.011381 0)
(0.477216 0.00556263 0)
(0.507984 -0.012214 0)
(0.690246 -0.00601681 0)
(0.591637 -0.040952 0)
(0.446982 0.0204543 0)
(0.486032 0.00631576 0)
(0.497944 0.00880564 0)
(0.471301 0.0348408 0)
(0.514331 0.108439 0)
(0.610965 -0.0199065 0)
(0.586671 0.00235288 0)
(0.473683 0.0764286 0)
(0.295526 0.0421073 0)
(0.205504 -0.0357378 0)
(0.00532302 -0.0376683 0)
(0.115022 0.0181251 0)
(-0.12044 -0.0815741 0)
(-0.00227707 -0.0245055 0)
(0.106592 -0.0291195 0)
(0.174355 -0.0324684 0)
(0.306991 -0.0254925 0)
(0.326572 -0.0224693 0)
(0.4616 -0.0305095 0)
(0.476876 -0.0176946 0)
(0.513809 -0.0474583 0)
(0.719679 -0.0120967 0)
(0.556923 -0.13843 0)
(0.455575 0.0339372 0)
(0.481394 -0.0330315 0)
(0.499807 0.00397021 0)
(0.505387 -0.0364258 0)
(0.49774 0.0670486 0)
(0.526301 0.0144891 0)
(0.565391 0.0249725 0)
(0.461338 -0.0070305 0)
(0.334055 0.0841039 0)
(0.303199 0.0604244 0)
(0.260645 0.0768077 0)
(0.216828 0.0388426 0)
(0.214105 0.0788996 0)
(-0.00303384 -0.0685513 0)
(0.108943 -0.0589756 0)
(0.18013 -0.0621827 0)
(0.312867 -0.0489852 0)
(0.335257 -0.044175 0)
(0.466544 -0.0528581 0)
(0.502484 -0.00455551 0)
(0.566462 -0.0802942 0)
(0.667241 -0.0139308 0)
(0.552755 -0.157266 0)
(0.429976 -0.0105598 0)
(0.387502 0.0218811 0)
(0.404144 -0.0298786 0)
(0.391567 0.0688713 0)
(0.484256 0.100763 0)
(0.537963 0.173715 0)
(0.562268 0.0771998 0)
(0.427167 -0.0433793 0)
(0.31751 0.0308827 0)
(0.279136 0.0653657 0)
(0.200191 0.0722482 0)
(0.165604 0.0534515 0)
(0.205433 0.120336 0)
(0.00548279 -0.0679599 0)
(0.122713 -0.0743365 0)
(0.192085 -0.0794365 0)
(0.319951 -0.0627584 0)
(0.357873 -0.0570599 0)
(0.540644 -0.0757863 0)
(0.530125 -0.0332862 0)
(0.594185 -0.0945184 0)
(0.641549 -0.0128139 0)
(0.513482 -0.10159 0)
(0.42957 -0.0737302 0)
(0.378782 -0.0712893 0)
(0.415242 0.04713 0)
(0.464758 0.0670351 0)
(0.440321 0.154493 0)
(0.468828 0.155202 0)
(0.478289 0.0809051 0)
(0.42437 0.0565525 0)
(0.320297 0.00742255 0)
(0.302445 0.0621074 0)
(0.231953 0.0617772 0)
(0.18825 0.116712 0)
(0.232245 0.164583 0)
(3.96218e-05 -0.13674 0)
(0.119628 -0.108741 0)
(0.195846 -0.110298 0)
(0.343517 -0.0902263 0)
(0.397908 -0.0933021 0)
(0.591489 -0.103314 0)
(0.542397 0.0130028 0)
(0.593413 -0.133706 0)
(0.619345 0.03701 0)
(0.522367 -0.10245 0)
(0.427561 -0.0858533 0)
(0.44275 -0.103095 0)
(0.442661 0.078321 0)
(0.417393 -0.0844162 0)
(0.460912 0.0832533 0)
(0.356549 0.170316 0)
(0.373385 0.0873254 0)
(0.330933 0.0348213 0)
(0.313544 0.0583861 0)
(0.302169 0.110728 0)
(0.257861 0.109648 0)
(0.196141 0.153276 0)
(0.245499 0.221299 0)
(0.0192361 -0.101627 0)
(0.137016 -0.122854 0)
(0.216674 -0.13082 0)
(0.396098 -0.10944 0)
(0.452315 -0.117866 0)
(0.648385 -0.117868 0)
(0.544541 -0.0798122 0)
(0.583367 -0.100282 0)
(0.661723 -0.000759093 0)
(0.528363 -0.0485332 0)
(0.504101 -0.14381 0)
(0.47079 0.0688561 0)
(0.438684 -0.0816429 0)
(0.479223 -0.0398407 0)
(0.566574 0.0595834 0)
(0.41311 0.182424 0)
(0.321796 0.108168 0)
(0.345254 0.0869493 0)
(0.343376 0.0808894 0)
(0.328124 0.100461 0)
(0.276359 0.111079 0)
(0.223207 0.236369 0)
(0.240346 0.265229 0)
(-0.00425293 -0.0770028 0)
(0.107178 -0.161886 0)
(0.233609 -0.171307 0)
(0.464652 -0.150967 0)
(0.484412 -0.152774 0)
(0.641456 -0.143369 0)
(0.605972 -0.107997 0)
(0.711153 -0.0271986 0)
(0.690076 -0.155497 0)
(0.523226 -0.0706884 0)
(0.56607 -0.0468381 0)
(0.514121 -0.079913 0)
(0.419565 0.0790795 0)
(0.51235 0.124742 0)
(0.558924 -0.0826369 0)
(0.432877 0.14947 0)
(0.329299 0.100161 0)
(0.322902 0.150389 0)
(0.330392 0.079566 0)
(0.342297 0.153623 0)
(0.318207 0.144452 0)
(0.241872 0.270399 0)
(0.273751 0.342844 0)
(-0.0178882 -0.101797 0)
(0.0915004 -0.171387 0)
(0.31846 -0.220915 0)
(0.496202 -0.170704 0)
(0.492415 -0.163511 0)
(0.674771 -0.158825 0)
(0.648979 -0.159415 0)
(0.650894 -0.0947935 0)
(0.673692 -0.155924 0)
(0.598638 -0.0419152 0)
(0.486286 0.0847818 0)
(0.542945 -0.0296313 0)
(0.48974 0.0746837 0)
(0.426158 0.0170159 0)
(0.506237 0.0694065 0)
(0.371511 0.20884 0)
(0.189022 0.0642141 0)
(0.224771 0.088703 0)
(0.257496 0.048684 0)
(0.333804 0.0939402 0)
(0.401131 0.15357 0)
(0.36441 0.297263 0)
(0.231036 0.493289 0)
(-0.712842 0.22094 0)
(-0.993802 -0.0549618 0)
(-1.15102 -0.0762053 0)
(-1.23049 -0.0793195 0)
(-1.24574 -0.0874042 0)
(-1.10342 -0.0953047 0)
(-1.06268 -0.0691769 0)
(-1.11379 -0.160142 0)
(-1.31958 -0.0756674 0)
(-1.10583 -0.0689741 0)
(-1.36515 -0.197698 0)
(-1.49278 0.0995657 0)
(-1.09749 -0.228531 0)
(-0.775964 -0.00849642 0)
(-0.544491 -0.0585693 0)
(-0.381147 -0.111827 0)
(-0.326241 -0.0546938 0)
(-0.147086 -0.00360184 0)
(-0.05678 -0.0576772 0)
(-0.529159 0.493309 0)
(-0.475942 0.249078 0)
(-0.614671 0.145138 0)
(-0.487151 0.106736 0)
(-0.242797 0.0104688 0)
(-0.18124 0.026693 0)
(-0.628919 0.0386493 0)
(-0.999623 -0.186591 0)
(-1.27315 0.110615 0)
(-1.18201 0.335577 0)
(-1.25066 0.0499127 0)
(-1.38703 0.228106 0)
(-0.767399 -0.269923 0)
(-0.297569 -0.203214 0)
(-0.123387 -0.133101 0)
(0.080825 -0.110444 0)
(0.0415372 -0.00192304 0)
(0.0698554 -0.0104862 0)
(0.127827 -0.0308657 0)
(-0.458012 1.10563 0)
(-0.383691 0.59318 0)
(-0.401296 -0.0587208 0)
(-0.0549952 -0.215695 0)
(-0.314293 -0.157331 0)
(-0.452002 0.0316793 0)
(-0.642021 0.00389433 0)
(-0.655728 0.00338339 0)
(-0.855125 0.138153 0)
(-0.807557 0.331553 0)
(-0.337231 -0.199428 0)
(-0.748297 -0.39062 0)
(-0.425915 -0.046826 0)
(-0.0398183 -0.341203 0)
(0.188625 -0.207865 0)
(0.367616 -0.156815 0)
(0.193919 -0.0979741 0)
(0.187293 0.0250506 0)
(0.168033 -0.0128641 0)
(-0.415791 1.09986 0)
(0.000546886 0.644118 0)
(0.20151 -0.267144 0)
(0.173837 -0.0658158 0)
(0.0871214 0.224023 0)
(-0.168288 0.155747 0)
(-0.299891 0.0962895 0)
(0.26953 -0.220329 0)
(-0.0709394 0.11336 0)
(-0.213007 0.548098 0)
(0.546343 -0.016293 0)
(-0.142571 -0.168847 0)
(0.0906686 -0.31305 0)
(0.234887 -0.361744 0)
(0.380952 -0.244516 0)
(0.514416 -0.0808766 0)
(0.407644 -0.046074 0)
(0.148719 0.066339 0)
(0.182059 0.0399046 0)
(-0.357066 1.13039 0)
(0.418656 0.375546 0)
(0.567114 -0.216343 0)
(0.509008 -0.0518455 0)
(0.480359 0.167421 0)
(0.385207 0.32121 0)
(0.294855 -0.00168209 0)
(0.438734 -0.0895204 0)
(0.618045 0.0986098 0)
(0.58575 0.111746 0)
(0.721161 -0.119497 0)
(0.423837 -0.122093 0)
(0.434514 -0.235099 0)
(0.538411 -0.359907 0)
(0.663125 -0.268772 0)
(0.674202 -0.19402 0)
(0.511848 -0.0159264 0)
(0.231427 0.0790885 0)
(0.208883 0.0667029 0)
(-0.323241 1.0425 0)
(0.589454 0.249548 0)
(0.589613 -0.177891 0)
(0.537399 -0.287149 0)
(0.430234 0.0124092 0)
(0.602315 0.381871 0)
(0.693578 0.000283701 0)
(0.419261 0.0307838 0)
(0.686054 -0.221542 0)
(0.957602 0.188761 0)
(1.03013 0.190205 0)
(0.56869 -0.0190096 0)
(0.756696 -0.314959 0)
(0.775091 -0.402304 0)
(0.854154 -0.291344 0)
(0.824839 -0.20446 0)
(0.688103 0.0390605 0)
(0.444543 0.124481 0)
(0.264779 0.127495 0)
(-0.038405 0.924012 0)
(0.646401 0.187065 0)
(0.463113 -0.230731 0)
(0.487909 -0.199209 0)
(0.428917 0.096584 0)
(0.47725 0.420338 0)
(0.489361 -0.178161 0)
(0.247635 -0.0699091 0)
(0.24555 -0.119707 0)
(0.478614 0.331788 0)
(0.75268 0.158313 0)
(0.742374 0.0559222 0)
(1.06022 -0.296181 0)
(1.03001 -0.392002 0)
(1.03071 -0.29813 0)
(0.949872 -0.140564 0)
(0.819928 0.0718901 0)
(0.487886 0.166806 0)
(0.311863 0.222078 0)
(0.0700678 0.519943 0)
(0.718186 -0.0923401 0)
(0.477599 -0.182408 0)
(0.365058 -0.0250022 0)
(0.254475 0.0271752 0)
(0.0869487 0.308489 0)
(0.877882 -0.227107 0)
(-0.281061 0.217237 0)
(0.386257 -0.201462 0)
(0.384636 0.197473 0)
(0.539549 -0.0192489 0)
(1.03956 -0.194767 0)
(1.2668 -0.372588 0)
(1.18983 -0.389863 0)
(1.09553 -0.261218 0)
(0.951102 -0.0852014 0)
(0.852331 0.136893 0)
(0.550118 0.231717 0)
(0.248198 0.297359 0)
(-0.0222134 -0.1403 0)
(0.0638167 -0.319967 0)
(0.349323 -0.29852 0)
(0.335704 -0.205558 0)
(0.305025 -0.202129 0)
(0.387682 -0.222918 0)
(0.483594 -0.329748 0)
(0.529264 -0.161221 0)
(0.597846 -0.113827 0)
(0.596839 0.0335129 0)
(0.655261 0.0181114 0)
(0.555876 0.134729 0)
(0.376044 -0.0265132 0)
(0.433573 0.0371764 0)
(0.696506 0.150728 0)
(0.565246 0.0374577 0)
(0.382903 0.0841604 0)
(0.444019 0.0353322 0)
(0.473189 0.0965061 0)
(0.457614 0.0231415 0)
(0.447963 0.083442 0)
(0.442908 0.349528 0)
(0.434492 0.711109 0)
(-0.20846 -0.0452038 0)
(-0.26235 -0.549294 0)
(-0.127381 -0.432168 0)
(-0.113973 -0.129776 0)
(-0.0228483 -0.234312 0)
(0.0410875 -0.331808 0)
(0.0318501 -0.238077 0)
(0.141192 -0.171824 0)
(0.271271 -0.195299 0)
(0.65246 -0.114218 0)
(0.97228 0.176235 0)
(0.664658 0.294127 0)
(0.313639 0.150005 0)
(0.382916 0.18697 0)
(0.467489 0.140215 0)
(0.384621 0.0146921 0)
(0.400017 0.0597406 0)
(0.483645 0.0403754 0)
(0.497822 0.094439 0)
(0.444482 0.0884973 0)
(0.542042 0.167492 0)
(0.683713 0.301363 0)
(0.742963 0.759373 0)
(-0.0435642 0.261219 0)
(0.0864072 -0.598692 0)
(-0.387055 -0.376578 0)
(0.0813824 -0.170255 0)
(0.164717 -0.297161 0)
(-0.0702039 -0.252907 0)
(-0.0115151 -0.338498 0)
(0.0607059 -0.285403 0)
(-0.0117551 -0.334341 0)
(0.0497704 -0.321221 0)
(0.491624 -0.130419 0)
(0.544959 0.291537 0)
(0.523634 0.184397 0)
(0.479589 0.0483884 0)
(0.413299 0.0248719 0)
(0.351401 0.0839288 0)
(0.347401 -0.0358701 0)
(0.405253 -0.0375636 0)
(0.380933 0.0292584 0)
(0.480243 0.106751 0)
(0.557776 0.372992 0)
(0.847763 0.328437 0)
(0.826985 0.464174 0)
(-0.130834 0.125185 0)
(0.136742 -0.610028 0)
(-0.240519 -0.833065 0)
(-0.036575 -0.343937 0)
(-0.0676972 -0.228939 0)
(-0.116147 -0.209021 0)
(-0.0359953 -0.346221 0)
(-0.0169851 -0.169591 0)
(-0.143794 -0.256752 0)
(-0.183073 -0.353871 0)
(-0.105953 -0.498629 0)
(0.111694 0.0409568 0)
(0.534359 0.179424 0)
(0.830805 0.168781 0)
(0.864648 0.226305 0)
(0.610395 0.109784 0)
(0.37075 0.00477195 0)
(0.481767 0.0152163 0)
(0.455431 0.141014 0)
(0.648329 0.253302 0)
(0.632347 0.395097 0)
(0.731462 0.440313 0)
(0.652359 0.2346 0)
(-0.0793691 0.0561913 0)
(0.159636 -0.406877 0)
(-0.0355251 -0.955865 0)
(0.0650438 -0.537079 0)
(-0.153363 -0.410849 0)
(0.0260298 -0.327537 0)
(-0.160432 -0.462652 0)
(-0.222968 -0.202796 0)
(-0.225303 -0.271889 0)
(-0.244464 -0.249229 0)
(-0.119609 -0.511582 0)
(0.101158 -0.332737 0)
(0.367754 0.0635278 0)
(0.243777 -0.00736725 0)
(0.569918 0.163456 0)
(0.570924 -0.0171279 0)
(0.695429 -0.053944 0)
(0.731398 -0.040457 0)
(0.654295 0.235937 0)
(0.621778 0.327115 0)
(0.618222 0.284114 0)
(0.617261 0.31098 0)
(0.526671 0.156077 0)
(0.0362455 0.0152212 0)
(0.125595 -0.448661 0)
(0.0556917 -0.823823 0)
(-0.129522 -0.706321 0)
(-0.0919843 -0.307926 0)
(-0.124921 -0.55791 0)
(-0.132616 -0.598376 0)
(-0.201581 -0.270511 0)
(-0.181085 -0.104348 0)
(-0.338949 -0.376366 0)
(-0.0337006 -0.879504 0)
(0.0595731 -0.169984 0)
(0.0734 -0.181592 0)
(-0.00156069 -0.151126 0)
(0.197249 -0.151256 0)
(0.340064 -0.192908 0)
(0.386312 -0.0982537 0)
(0.765068 0.0524451 0)
(0.673854 0.284992 0)
(0.381631 0.300163 0)
(0.391454 0.143544 0)
(0.45938 0.145103 0)
(0.540313 0.16887 0)
(-0.0279433 -0.100234 0)
(-0.0148804 -0.337084 0)
(-0.0566415 -0.652664 0)
(-0.166765 -0.462221 0)
(-0.250404 -0.291213 0)
(-0.16651 -0.452368 0)
(-0.146655 -0.443014 0)
(-0.23522 -0.197367 0)
(-0.340965 -0.00594113 0)
(-0.215216 -0.299483 0)
(0.0539236 -0.995675 0)
(0.00903075 -0.481949 0)
(0.0958183 0.0881164 0)
(0.00526763 -0.0503926 0)
(0.19398 -0.191173 0)
(0.120646 -0.0750635 0)
(0.0127137 -0.0194321 0)
(0.0757031 -0.229865 0)
(0.356202 0.083322 0)
(0.295646 0.225547 0)
(0.291306 0.163506 0)
(0.350578 0.122748 0)
(0.532467 0.0801418 0)
(0.210021 0.0151117 0)
(0.339694 -0.367954 0)
(0.229457 -0.649275 0)
(0.188044 -0.475699 0)
(-0.135006 -0.301052 0)
(-0.0342864 -0.317485 0)
(-0.131942 -0.505664 0)
(-0.237881 -0.255791 0)
(-0.398876 -0.1001 0)
(-0.079149 -0.533855 0)
(0.00405764 -1.10391 0)
(0.0615869 -0.675684 0)
(0.244353 -0.238055 0)
(0.0311259 -0.207343 0)
(0.183201 -0.300372 0)
(0.0812815 0.0928973 0)
(0.192882 -0.0693273 0)
(0.0881474 -0.250036 0)
(0.05657 0.136598 0)
(0.233075 0.326892 0)
(0.182057 0.133354 0)
(0.654606 -0.0824384 0)
(0.593445 -0.275214 0)
(-0.0657123 -0.617946 0)
(0.197918 -0.429829 0)
(0.117831 -0.359333 0)
(0.120037 0.112642 0)
(0.0554068 0.178553 0)
(-0.0214015 -0.194205 0)
(-0.224184 -0.248324 0)
(-0.474205 -0.0312675 0)
(-0.403624 -0.0948572 0)
(-0.134017 -0.807142 0)
(-0.015065 -1.1158 0)
(-0.0676566 -0.568404 0)
(0.485297 -0.26514 0)
(0.147092 -0.199695 0)
(0.12625 -0.226853 0)
(-0.0426781 0.139032 0)
(0.189682 -0.069973 0)
(0.0649579 -0.183674 0)
(-0.0409241 0.0251188 0)
(0.0562607 0.245313 0)
(0.0556155 0.142022 0)
(0.214577 -0.114869 0)
(0.187946 -0.383993 0)
(-0.0504859 -0.798548 0)
(0.118599 -0.425988 0)
(-0.0121436 -0.492673 0)
(0.118366 -0.265171 0)
(0.130144 -0.122524 0)
(0.0401896 -0.256452 0)
(-0.0188543 -0.277695 0)
(-0.200561 0.09355 0)
(-0.0743112 -0.152896 0)
(-0.140019 -0.841151 0)
(0.0251512 -1.08532 0)
(-0.194655 -0.730705 0)
(0.285164 -0.0518797 0)
(0.102341 -0.0621348 0)
(0.0188899 -0.107987 0)
(-0.0882479 -0.0476476 0)
(0.0567157 -0.222453 0)
(-0.0836984 -0.180397 0)
(-0.033723 0.0364713 0)
(0.159261 0.0911743 0)
(0.241358 -0.042345 0)
(0.252024 -0.240238 0)
(0.467321 -0.291992 0)
(-0.137847 -0.774354 0)
(0.0108345 -0.402336 0)
(-0.047284 -0.393363 0)
(-0.0141509 -0.205591 0)
(0.0215198 0.117275 0)
(0.0779672 0.0632468 0)
(-0.0101239 -0.0197425 0)
(-0.00399152 0.10643 0)
(0.364107 -0.212992 0)
(-0.0613293 -0.818603 0)
(0.0408693 -1.03011 0)
(-0.192665 -0.83359 0)
(0.147145 -0.130208 0)
(0.00990884 -0.00505717 0)
(0.0133139 -0.00993638 0)
(-0.118935 0.0626992 0)
(-0.12419 -0.221987 0)
(-0.0601535 -0.12709 0)
(-0.032164 -0.0944929 0)
(0.0379736 -0.0121513 0)
(0.10149 -0.31122 0)
(0.160065 -0.309476 0)
(0.321265 -0.325146 0)
(-0.159955 -0.678659 0)
(-0.0637653 -0.506364 0)
(-0.0875383 -0.45918 0)
(-0.0955108 -0.349845 0)
(0.0240669 -0.210395 0)
(0.0942683 -0.102575 0)
(0.131384 -0.124867 0)
(0.208307 -0.0699879 0)
(0.461826 -0.249363 0)
(0.111583 -0.439954 0)
(0.115147 -0.987694 0)
(-0.149173 -0.784199 0)
(0.0844416 -0.421216 0)
(0.00438369 0.0857442 0)
(0.0402536 0.00722039 0)
(-0.0301605 -0.00793898 0)
(0.0386429 -0.171634 0)
(-0.0735909 -0.142725 0)
(-0.0144573 -0.0448161 0)
(-0.00702821 -0.087257 0)
(0.0884623 -0.0717966 0)
(0.101795 -0.230451 0)
(0.0775587 -0.365552 0)
(-0.115996 -0.559798 0)
(-0.0202256 -0.316449 0)
(-0.0285832 -0.513191 0)
(-0.0546258 -0.257039 0)
(0.143737 -0.339672 0)
(0.145406 -0.24467 0)
(0.0946324 -0.234918 0)
(0.213475 -0.233874 0)
(0.269186 -0.200744 0)
(0.250097 -0.340699 0)
(0.197101 -0.941409 0)
(-0.085514 -0.926746 0)
(-0.314167 -0.472805 0)
(0.4124 -0.0132757 0)
(0.277971 0.105476 0)
(0.128947 0.110915 0)
(-0.00897808 -0.141116 0)
(0.028086 -0.213727 0)
(-0.0382873 -0.162902 0)
(0.0159409 -0.227646 0)
(0.00776178 -0.253287 0)
(-0.0413864 -0.297071 0)
(0.0330317 -0.33327 0)
(0.0322923 -0.341591 0)
(-0.0111757 -0.24466 0)
(-0.0293499 -0.265897 0)
(0.0044621 -0.254838 0)
(0.0337544 -0.274236 0)
(0.173843 -0.261619 0)
(0.230733 -0.241572 0)
(0.274809 -0.287837 0)
(0.138227 -0.187474 0)
(0.204204 -0.275025 0)
(0.031004 -0.86291 0)
(-0.0425227 -1.07118 0)
(-0.0502175 -0.671763 0)
(0.122984 -0.384269 0)
(0.123178 0.0938391 0)
(0.0425852 0.139608 0)
(0.00383194 -0.00674408 0)
(-0.0581275 -0.0951054 0)
(-0.0355548 -0.216304 0)
(-0.113102 -0.205207 0)
(-0.0397101 -0.257154 0)
(-0.100305 -0.291559 0)
(-0.261062 -0.310732 0)
(-0.0935893 -0.189194 0)
(-0.0475106 -0.238572 0)
(-0.025772 -0.210038 0)
(-0.0221313 -0.286478 0)
(0.0339181 -0.266501 0)
(0.0494624 -0.246947 0)
(0.0872396 -0.345144 0)
(0.170208 -0.400389 0)
(0.187705 -0.265555 0)
(0.294149 -0.292517 0)
(0.0901012 -0.690559 0)
(-0.0267767 -0.836752 0)
(-0.0656955 -0.534467 0)
(-0.221139 -0.0668782 0)
(-0.111884 0.129571 0)
(-0.155618 0.0621967 0)
(-0.0549227 0.00961108 0)
(-0.0785769 -0.073844 0)
(-0.0407344 -0.0765178 0)
(-0.0878858 -0.177155 0)
(-0.135704 -0.0945704 0)
(-0.0690499 -0.252119 0)
(-0.21656 -0.215408 0)
(-0.0339676 -0.217689 0)
(-0.0216551 -0.24764 0)
(-0.0266955 -0.26689 0)
(-0.0160945 -0.293268 0)
(0.00541424 -0.311002 0)
(-0.00640342 -0.367791 0)
(0.0737906 -0.462579 0)
(0.138381 -0.374654 0)
(0.0716659 -0.34655 0)
(0.313655 -0.322771 0)
(0.0338334 -0.694794 0)
(-0.065706 -0.753966 0)
(-0.00586646 -0.494259 0)
(-0.401282 -0.151821 0)
(-0.259559 0.0330549 0)
(-0.264302 -0.0167978 0)
(-0.0661465 0.00930244 0)
(-0.100974 -0.0654386 0)
(-0.0953311 -0.0689604 0)
(-0.0953518 -0.101959 0)
(-0.150419 -0.1709 0)
(-0.186842 -0.162997 0)
(-0.215506 -0.247576 0)
(-0.0767746 -0.195372 0)
(-0.038464 -0.205891 0)
(-0.0615324 -0.269591 0)
(-0.0288694 -0.298448 0)
(-0.00644126 -0.296248 0)
(-0.112155 -0.424806 0)
(0.115409 -0.358256 0)
(0.101961 -0.581732 0)
(-0.0914747 -0.500544 0)
(0.189198 -0.300936 0)
(0.0958345 -0.286041 0)
(-0.0351127 -0.187912 0)
(-0.204358 -0.183678 0)
(-0.399376 -0.10319 0)
(-0.453486 0.0415714 0)
(-0.204362 -0.0318141 0)
(-0.146443 -0.011419 0)
(-0.154725 -0.0335535 0)
(-0.131583 -0.0860219 0)
(-0.221901 -0.0726316 0)
(-0.21202 -0.155744 0)
(-0.132482 -0.17223 0)
(-0.0442242 -0.134296 0)
(0.0628098 -0.330787 0)
(-0.000889752 -0.333599 0)
(-0.0877842 -0.232155 0)
(-0.0224165 -0.304264 0)
(-0.0740797 -0.270139 0)
(-0.0281426 -0.431587 0)
(-0.0578304 -0.350695 0)
(-0.0102588 -0.708231 0)
(-0.0905479 -0.617842 0)
(0.0211759 -0.607285 0)
(-0.00880499 -0.524452 0)
(-0.203355 -0.388451 0)
(-0.393304 -0.26833 0)
(-0.451871 -0.211615 0)
(-0.486285 -0.113247 0)
(-0.21259 -0.0490458 0)
(-0.12665 -0.0692837 0)
(-0.169569 -0.0951767 0)
(-0.126564 -0.107025 0)
(-0.15693 -0.132046 0)
(-0.20394 -0.0728477 0)
(-0.183086 -0.137715 0)
(-0.272891 -0.169835 0)
(-0.00255405 -0.348352 0)
(0.0883264 -0.377772 0)
(-0.0264657 -0.364971 0)
(-0.0404996 -0.222166 0)
(-0.0980959 -0.387494 0)
(-0.166146 -0.362132 0)
(-0.122181 -0.404794 0)
(-0.172863 -0.43265 0)
(-0.101706 -0.498148 0)
(-0.195757 -0.495216 0)
(-0.234415 -0.439258 0)
(-0.269145 -0.417677 0)
(-0.36269 -0.268126 0)
(-0.396522 -0.314812 0)
(-0.344537 -0.171641 0)
(-0.196252 -0.0895969 0)
(-0.195878 -0.0969405 0)
(-0.184279 -0.115834 0)
(-0.131408 -0.1546 0)
(-0.152872 -0.181617 0)
(-0.140767 -0.14314 0)
(-0.22509 -0.151267 0)
(-0.182523 -0.0947311 0)
(0.0137927 -0.402751 0)
(0.011272 -0.394029 0)
(0.0642685 -0.438244 0)
(-0.0319285 -0.364737 0)
(-0.188495 -0.439611 0)
(-0.082106 -0.422119 0)
(-0.0606983 -0.327479 0)
(-0.128973 -0.335466 0)
(-0.150092 -0.362385 0)
(-0.186438 -0.34083 0)
(-0.24243 -0.257146 0)
(-0.273503 -0.200681 0)
(-0.332076 -0.218473 0)
(-0.364194 -0.185942 0)
(-0.216062 -0.0855201 0)
(-0.163255 -0.0606761 0)
(-0.178149 -0.063735 0)
(-0.244843 -0.0373509 0)
(-0.214237 -0.102863 0)
(-0.132771 -0.112244 0)
(-0.149569 -0.185275 0)
(-0.13531 -0.0949557 0)
(-0.229602 -0.0460622 0)
(-0.00353899 -0.408254 0)
(0.00870225 -0.398816 0)
(-0.0141502 -0.389949 0)
(-0.0138682 -0.412633 0)
(-0.0940486 -0.374795 0)
(0.0385887 -0.307525 0)
(0.0278605 -0.410394 0)
(-0.183552 -0.310063 0)
(-0.122187 -0.337812 0)
(-0.06249 -0.323349 0)
(-0.141637 -0.354202 0)
(-0.28778 -0.322719 0)
(-0.302592 -0.242394 0)
(-0.213972 -0.142802 0)
(-0.217693 -0.0894662 0)
(-0.161499 -0.131475 0)
(-0.164256 -0.146806 0)
(-0.187091 -0.0863441 0)
(-0.225333 -0.0907971 0)
(-0.248261 -0.0788025 0)
(-0.186145 -0.151036 0)
(-0.0844659 -0.111927 0)
(-0.174972 -0.187226 0)
(-0.000986561 -0.397833 0)
(-0.00606757 -0.380939 0)
(0.00889866 -0.362469 0)
(-0.0163866 -0.359007 0)
(-0.0213617 -0.392643 0)
(-0.00872976 -0.215702 0)
(0.0395911 -0.467738 0)
(-0.0341679 -0.371449 0)
(-0.190137 -0.31747 0)
(-0.159629 -0.310892 0)
(-0.151285 -0.373934 0)
(-0.187507 -0.381152 0)
(-0.206922 -0.292972 0)
(-0.154283 -0.247988 0)
(-0.176324 -0.152355 0)
(-0.213791 -0.100845 0)
(-0.0984533 -0.20102 0)
(-0.188626 -0.188068 0)
(-0.213507 -0.222449 0)
(-0.156027 -0.123133 0)
(-0.186264 -0.110179 0)
(-0.173137 -0.100072 0)
(-0.19315 -0.137327 0)
(-0.0178796 -0.417469 0)
(-0.00234785 -0.418997 0)
(-0.065408 -0.41043 0)
(-0.0114213 -0.314064 0)
(0.124213 -0.4092 0)
(0.0177943 -0.393986 0)
(-0.111158 -0.379653 0)
(-0.0299919 -0.459158 0)
(-0.111754 -0.432373 0)
(-0.118606 -0.363976 0)
(-0.0940411 -0.340202 0)
(-0.177076 -0.306867 0)
(-0.137276 -0.256747 0)
(-0.0867579 -0.263542 0)
(-0.119222 -0.201713 0)
(-0.202841 -0.203537 0)
(-0.217369 -0.177008 0)
(-0.215439 -0.237872 0)
(-0.150834 -0.118665 0)
(-0.117856 -0.0977124 0)
(-0.156747 -0.134872 0)
(-0.109687 -0.11093 0)
(-0.0994114 -0.158794 0)
(-0.0608645 -0.347682 0)
(-0.0510007 -0.278159 0)
(0.0615615 -0.274098 0)
(0.00512151 -0.246456 0)
(-0.00665326 -0.257768 0)
(0.0820882 -0.447937 0)
(-0.0192496 -0.384566 0)
(-0.0194813 -0.371302 0)
(-0.0708663 -0.361146 0)
(-0.0824387 -0.316842 0)
(-0.101991 -0.310815 0)
(-0.0926819 -0.288595 0)
(-0.11149 -0.197755 0)
(-0.0566114 -0.225231 0)
(-0.139357 -0.225027 0)
(-0.183708 -0.191836 0)
(-0.118849 -0.222973 0)
(-0.114232 -0.215143 0)
(-0.0671705 -0.121443 0)
(-0.15888 -0.110642 0)
(-0.185502 -0.119811 0)
(-0.162815 -0.127414 0)
(-0.155175 -0.116367 0)
(0.0423727 -0.197811 0)
(0.0391855 -0.205568 0)
(-0.00124971 -0.170408 0)
(-0.0206719 -0.22859 0)
(-0.0497091 -0.195033 0)
(-0.0575393 -0.270348 0)
(0.029702 -0.237521 0)
(0.0316397 -0.371187 0)
(-0.0289925 -0.312097 0)
(-0.0417004 -0.319022 0)
(-0.0576673 -0.339286 0)
(-0.085863 -0.331482 0)
(-0.0784668 -0.312683 0)
(-0.0722065 -0.274131 0)
(-0.0149968 -0.293977 0)
(-0.175156 -0.238628 0)
(-0.199569 -0.217988 0)
(-0.0602001 -0.138034 0)
(-0.0856982 -0.174494 0)
(-0.12544 -0.187418 0)
(-0.153385 -0.132117 0)
(-0.121436 -0.121316 0)
(-0.119451 -0.0847745 0)
(0.000962407 -0.16434 0)
(-0.00951094 -0.210108 0)
(-0.00011799 -0.210617 0)
(-0.00151849 -0.20325 0)
(-0.0225731 -0.201635 0)
(-0.0156714 -0.187721 0)
(-0.0758726 -0.18255 0)
(-0.0495921 -0.215011 0)
(-0.0216745 -0.221681 0)
(-0.109117 -0.236498 0)
(-0.098045 -0.199813 0)
(-0.0570974 -0.212031 0)
(-0.0233974 -0.211527 0)
(0.0185817 -0.307986 0)
(-0.0800548 -0.243705 0)
(-0.121744 -0.320337 0)
(-0.0318227 -0.130544 0)
(-0.028195 -0.212217 0)
(-0.128167 -0.189179 0)
(-0.119913 -0.212635 0)
(-0.0997233 -0.125975 0)
(-0.142557 -0.149013 0)
(-0.0878746 -0.0882206 0)
(0.00441688 -0.185591 0)
(0.00784566 -0.203857 0)
(-0.00443933 -0.188906 0)
(-0.0045371 -0.19943 0)
(-0.0219137 -0.189788 0)
(-0.0151867 -0.209584 0)
(-0.0194759 -0.196166 0)
(-0.0212409 -0.160137 0)
(-0.036851 -0.19414 0)
(-0.0409095 -0.181305 0)
(-0.0544063 -0.14656 0)
(-0.0729787 -0.153681 0)
(-0.0868351 -0.152998 0)
(-0.0863917 -0.173056 0)
(-0.0649725 -0.20042 0)
(-0.0386715 -0.151958 0)
(-0.0885491 -0.180848 0)
(-0.0770003 -0.214173 0)
(-0.0424682 -0.224804 0)
(-0.0540094 -0.221977 0)
(-0.070903 -0.126746 0)
(-0.0950914 -0.105484 0)
(-0.089939 -0.0917255 0)
(-0.00246914 -0.178285 0)
(-0.000174874 -0.200187 0)
(-0.00663664 -0.193096 0)
(-0.00280089 -0.186421 0)
(-0.022521 -0.186207 0)
(-0.0132732 -0.18729 0)
(-0.0369699 -0.174879 0)
(-0.0327452 -0.178829 0)
(-0.0380744 -0.175222 0)
(-0.0514945 -0.187888 0)
(-0.0392828 -0.145004 0)
(-0.0518962 -0.164972 0)
(-0.0506309 -0.18156 0)
(-0.0592264 -0.165243 0)
(-0.0583952 -0.203877 0)
(-0.0777744 -0.121281 0)
(-0.066525 -0.221284 0)
(-0.0440065 -0.105944 0)
(-0.118735 -0.135944 0)
(-0.0217256 -0.137903 0)
(-0.0030546 -0.162415 0)
(-0.119819 -0.0769108 0)
(-0.103496 -0.131127 0)
(-0.00215526 -0.183116 0)
(0.00630531 -0.199838 0)
(-0.00274305 -0.190634 0)
(0.00555054 -0.186305 0)
(-0.0141885 -0.187054 0)
(-0.00425034 -0.201962 0)
(-0.028796 -0.185977 0)
(-0.0168377 -0.166109 0)
(-0.0262124 -0.176254 0)
(0.00304052 -0.174729 0)
(-0.0248918 -0.173656 0)
(-0.0910224 -0.149747 0)
(-0.087568 -0.158659 0)
(-0.102379 -0.165007 0)
(0.0169047 -0.144309 0)
(-0.0208064 -0.22709 0)
(-0.0595923 -0.102882 0)
(0.00815853 -0.178092 0)
(-0.0984198 -0.125967 0)
(-0.064725 -0.113389 0)
(-0.0560711 -0.203273 0)
(-0.0520941 -0.0973116 0)
(-0.0923984 -0.0880196 0)
(-0.00386238 -0.181433 0)
(0.00363653 -0.198218 0)
(-0.00752602 -0.187938 0)
(0.000252173 -0.171592 0)
(-0.0251095 -0.168949 0)
(-0.010243 -0.156058 0)
(-0.0271356 -0.147322 0)
(-0.0283816 -0.17152 0)
(-0.0248621 -0.201337 0)
(-0.0391825 -0.208617 0)
(-0.018992 -0.222893 0)
(-0.0498367 -0.183289 0)
(-0.0620904 -0.171648 0)
(-0.0635723 -0.169198 0)
(-0.0631036 -0.133636 0)
(-0.0428202 -0.27287 0)
(-0.0521745 -0.12874 0)
(-0.0469059 -0.23078 0)
(-0.0584438 -0.148292 0)
(-0.0694298 -0.151688 0)
(-0.0207219 -0.0667903 0)
(-0.0250106 -0.114541 0)
(-0.0590515 -0.0905955 0)
(-0.00404057 -0.183828 0)
(0.00868295 -0.198832 0)
(0.00439328 -0.189372 0)
(0.0232737 -0.174444 0)
(0.027164 -0.184397 0)
(0.0328453 -0.222055 0)
(-0.0784444 -0.190459 0)
(-0.0647255 -0.171978 0)
(-0.04455 -0.170291 0)
(-0.0346801 -0.177679 0)
(-0.0318005 -0.177273 0)
(-0.065553 -0.157372 0)
(-0.0606842 -0.15503 0)
(-0.0847578 -0.16157 0)
(-0.0753278 -0.143558 0)
(-0.0183865 -0.143029 0)
(-0.00816003 -0.0904074 0)
(-0.00479267 -0.171472 0)
(-0.0458679 -0.10138 0)
(-0.0119463 -0.150166 0)
(-0.0672982 -0.143706 0)
(-0.114564 -0.189567 0)
(-0.0747595 -0.0874392 0)
(-0.00443303 -0.184391 0)
(0.00469354 -0.198714 0)
(-0.00675808 -0.192851 0)
(0.00301091 -0.176785 0)
(-0.0151306 -0.195664 0)
(-0.0156347 -0.278979 0)
(-0.0150526 -0.252063 0)
(-0.0237396 -0.202173 0)
(-0.00512148 -0.259761 0)
(-0.0420746 -0.244763 0)
(-0.0178276 -0.246221 0)
(-0.0404083 -0.174351 0)
(-0.0504172 -0.163752 0)
(-0.0548196 -0.163227 0)
(-0.0481145 -0.133873 0)
(0.000375952 -0.13634 0)
(-0.0723125 -0.166806 0)
(-0.0359185 -0.133696 0)
(-0.01721 -0.178937 0)
(-0.0927244 -0.141583 0)
(-0.0717174 -0.159648 0)
(-0.00156923 -0.093843 0)
(-0.00338597 -0.0982149 0)
(-0.00377638 -0.184505 0)
(0.004918 -0.197609 0)
(-0.00195669 -0.191768 0)
(0.0132375 -0.168171 0)
(-0.00878402 -0.174903 0)
(0.00339368 -0.233812 0)
(-0.0489115 -0.195758 0)
(-0.0779362 -0.184904 0)
(-0.0471421 -0.172585 0)
(0.00566276 -0.151077 0)
(0.0224344 -0.181157 0)
(-0.0269459 -0.126699 0)
(-0.0350088 -0.144403 0)
(-0.0575479 -0.155372 0)
(-0.0562138 -0.143246 0)
(-0.0615487 -0.144753 0)
(-0.0140919 -0.164975 0)
(0.0220481 -0.104526 0)
(-0.0187132 -0.20011 0)
(-0.00827178 -0.0927041 0)
(-0.0259869 -0.0808227 0)
(-0.0397039 -0.128621 0)
(-0.0817445 -0.152362 0)
(-0.00404401 -0.186083 0)
(0.000948717 -0.199529 0)
(-0.00957853 -0.194403 0)
(-0.000615849 -0.16933 0)
(-0.0481573 -0.187927 0)
(-0.0194856 -0.169916 0)
(0.0432093 -0.215046 0)
(-0.0202532 -0.129832 0)
(0.00908683 -0.134686 0)
(-0.0177727 -0.130742 0)
(0.02975 -0.178807 0)
(-0.0169124 -0.162966 0)
(-0.0664724 -0.154189 0)
(-0.0502588 -0.155929 0)
(-0.0409173 -0.139145 0)
(-0.0234521 -0.125391 0)
(-0.0365081 -0.103656 0)
(-0.0451797 -0.128772 0)
(0.0197306 -0.118094 0)
(0.0166958 -0.147851 0)
(-0.0912049 -0.160184 0)
(-0.0423542 -0.136791 0)
(-0.014528 -0.210933 0)
(-0.00414112 -0.182593 0)
(0.000640397 -0.195836 0)
(-0.00538158 -0.184917 0)
(-0.00164578 -0.155884 0)
(-0.0046375 -0.123051 0)
(-0.00666421 -0.139546 0)
(0.043047 -0.166727 0)
(-0.0362067 -0.179693 0)
(-0.0597826 -0.167087 0)
(-0.0381278 -0.153527 0)
(-0.0196364 -0.193237 0)
(-0.00679138 -0.197768 0)
(-0.0337647 -0.163256 0)
(-0.0448572 -0.164321 0)
(-0.0396286 -0.15078 0)
(-0.0399005 -0.140834 0)
(-0.0234523 -0.138352 0)
(-0.00623486 -0.120367 0)
(-0.0206924 -0.100575 0)
(-0.0512228 -0.164762 0)
(0.0217971 -0.112885 0)
(-0.00894043 -0.105646 0)
(-0.0710136 -0.104846 0)
(-0.00419204 -0.185002 0)
(0.00422481 -0.195317 0)
(-0.00523553 -0.197278 0)
(0.0384726 -0.162254 0)
(-0.0166243 -0.203272 0)
(-0.0532682 -0.18536 0)
(-0.00701648 -0.198839 0)
(-0.0178663 -0.212366 0)
(-0.00789342 -0.183567 0)
(-0.0234991 -0.166307 0)
(-0.0250014 -0.21444 0)
(-0.00801821 -0.159181 0)
(-0.0329432 -0.139626 0)
(-0.0418557 -0.156859 0)
(-0.033374 -0.147911 0)
(-0.0218094 -0.137551 0)
(-0.0281192 -0.119219 0)
(-0.0152602 -0.134004 0)
(-0.00367233 -0.112085 0)
(0.00886039 -0.177104 0)
(-0.0273186 -0.0706763 0)
(0.024166 -0.191638 0)
(-0.02165 -0.117221 0)
(-0.00124456 -0.180778 0)
(-0.00256086 -0.193989 0)
(-0.00606895 -0.200815 0)
(0.000734231 -0.16527 0)
(-0.00237404 -0.233934 0)
(-0.0190074 -0.184812 0)
(-0.00913998 -0.196678 0)
(-0.0258447 -0.162498 0)
(-0.0394201 -0.171832 0)
(-0.041522 -0.127476 0)
(-0.00733597 -0.16487 0)
(0.076168 -0.171894 0)
(-0.00507099 -0.165623 0)
(-0.04909 -0.160522 0)
(-0.0396057 -0.156259 0)
(-0.0319333 -0.138757 0)
(-0.0379537 -0.132379 0)
(-0.0178884 -0.118524 0)
(-0.0344165 -0.119164 0)
(-0.0117942 -0.10832 0)
(0.0102939 -0.120672 0)
(0.00217858 -0.120985 0)
(-0.0559657 -0.186507 0)
(-0.00422727 -0.184305 0)
(-0.00576985 -0.197292 0)
(-0.0116315 -0.198512 0)
(0.00123702 -0.164267 0)
(-0.00801398 -0.171549 0)
(-0.0162255 -0.187808 0)
(-0.00632389 -0.19443 0)
(0.0057776 -0.181202 0)
(0.025845 -0.177306 0)
(0.00606358 -0.185265 0)
(-0.0539818 -0.147533 0)
(-0.015459 -0.174133 0)
(-0.0423091 -0.191137 0)
(-0.0259543 -0.169874 0)
(-0.0311983 -0.162366 0)
(-0.024294 -0.144292 0)
(-0.033225 -0.134132 0)
(-0.0203349 -0.117196 0)
(-0.0156845 -0.122528 0)
(-0.0134459 -0.0866728 0)
(-0.0155432 -0.0803753 0)
(-0.0281545 -0.131868 0)
(-0.0103832 -0.106411 0)
(-0.00129009 -0.169658 0)
(-0.00260931 -0.188686 0)
(-0.00716743 -0.196605 0)
(-0.00574846 -0.176974 0)
(-0.0108407 -0.187716 0)
(-0.00927845 -0.192958 0)
(-0.0231385 -0.240428 0)