/*--------------------------------*- C++ -*----------------------------------*\
| =========                 |                                                 |
| \\      /  F ield         | foam-extend: Open Source CFD                    |
|  \\    /   O peration     | Version:     4.1                                |
|   \\  /    A nd           | Web:         http://www.foam-extend.org         |
|    \\/     M anipulation  |                                                 |
\*---------------------------------------------------------------------------*/
FoamFile
{
    version     2.0;
    format      ascii;
    class       volScalarField;
    location    "0.25";
    object      alpha1;
}
// * * * * * * * * * * * * * * * * * * * * * * * * * * * * * * * * * * * * * //

dimensions      [0 0 0 0 0 0 0];

internalField   nonuniform List<scalar> 
2268
(
1
1
1
1
1
1
1
1
1
1
1
0.99995
0.999765
0.999359
0.99856
0.996363
0.989005
0.977931
0.983884
0.988443
0.989854
0.866823
0.24509
1
1
1
1
1
1
1
1
1
1
1
0.999605
0.99624
0.986108
0.988672
0.98573
0.952214
0.756625
0.768873
0.826055
0.953239
0.930198
0.873559
1
1
1
1
1
1
1
1
1
1
1
0.998421
0.954752
0.925723
0.936079
0.918222
0.760555
0.581022
0.635572
0.694192
0.848575
0.926808
0.874802
1
1
1
1
1
1
1
1
1
1
1
0.996263
0.700152
0.753058
0.717646
0.533224
0.513451
0.555127
0.668905
0.821825
0.876203
0.929597
0.871332
1
1
1
1
1
1
1
1
1
1
0.999999
0.999987
0.99574
0.990634
0.937744
0.852647
0.794916
0.709871
0.712706
0.747609
0.782312
0.908359
0.852184
1
1
1
1
1
1
1
1
1
0.999999
0.999996
0.999991
0.999616
0.996633
0.97712
0.957518
0.890146
0.75789
0.770381
0.75489
0.530928
0.856745
0.82133
1
1
1
1
1
1
1
1
0.999999
0.999992
0.99998
0.99996
0.999377
0.993747
0.948519
0.898933
0.843876
0.715655
0.708943
0.75843
0.59587
0.638411
0.773039
1
1
1
1
1
1
1
0.999999
0.999992
0.999959
0.999891
0.999869
0.999601
0.998398
0.954264
0.758342
0.737157
0.68885
0.600065
0.701416
0.638163
0.530216
0.663869
2.18288e-10
3.11415e-09
1.26009e-08
2.43985e-08
2.83251e-10
2.61457e-09
5.34138e-11
1.03659e-11
6.45817e-13
3.33622e-14
6.10623e-16
0
0
0
0
0
5.55112e-16
1.88738e-15
0
1.07838e-08
1.50622e-07
6.11548e-07
1.0331e-06
2.66137e-08
1.73628e-07
5.07788e-09
9.80945e-10
6.39417e-11
3.80884e-12
2.42473e-13
8.16014e-15
0
1.33227e-15
1.83187e-15
1.4988e-15
2.44249e-15
0
3.33067e-16
2.85889e-07
3.6391e-06
1.29847e-05
1.87061e-05
1.15123e-06
5.31888e-06
2.19228e-07
4.07757e-08
2.89824e-09
1.91629e-10
1.08946e-11
3.47611e-13
6.60583e-15
8.32667e-16
8.32667e-16
0
0
0
0
3.37317e-06
4.21515e-05
0.000139571
0.000182834
2.61488e-05
8.72113e-05
5.91954e-06
9.92542e-07
8.31062e-08
6.01066e-09
2.56098e-10
5.1803e-12
1.18405e-13
7.21645e-16
0
0
0
0
0
1.46423e-05
0.000246645
0.000874467
0.00112274
0.000343685
0.000953723
9.44567e-05
1.60848e-05
1.65558e-06
1.21738e-07
4.59644e-09
1.01663e-10
2.52715e-12
5.76206e-14
0
0
0
0
0
3.65698e-05
0.000532317
0.00347915
0.00543592
0.00325382
0.00678267
0.000992747
0.000185326
2.37417e-05
1.58144e-06
4.42258e-08
1.15951e-09
2.99915e-11
7.2381e-13
1.16018e-14
0
0
0
0
0.000193658
0.000816506
0.00930887
0.0219962
0.0237582
0.0336117
0.00811717
0.00146185
0.000222571
1.48774e-05
5.2053e-07
1.47934e-08
3.97751e-10
9.52372e-12
1.88349e-13
1.11022e-16
0
0
0
0.013855
0.00284656
0.0243299
0.0733779
0.110058
0.11583
0.0364698
0.0083555
0.00180718
0.000167244
7.73563e-06
2.59381e-07
7.72152e-09
1.97638e-10
4.14735e-12
6.85008e-14
0
6.66134e-16
2.72005e-15
1
1
1
1
1
1
1
0.999994
0.999938
0.999721
0.999209
0.999238
0.998814
0.998088
0.982972
0.879733
0.750434
0.686146
0.667608
0.713113
0.735
0.690054
0.609758
1
1
1
1
1
1
1
0.999931
0.99945
0.997837
0.993741
0.992847
0.99093
0.984766
0.983544
0.978271
0.935796
0.841848
0.864569
0.880818
0.895138
0.870624
0.761742
0.999999
0.999999
1
1
1
0.999999
0.999996
0.999539
0.996796
0.988636
0.960543
0.963612
0.957133
0.934581
0.929813
0.916554
0.896856
0.869428
0.846432
0.779966
0.764835
0.770658
0.75767
0.999982
0.999992
0.999998
0.999999
0.999999
0.999992
0.999964
0.997415
0.984018
0.9478
0.862642
0.843371
0.850292
0.786372
0.787014
0.733315
0.705625
0.701417
0.68435
0.640834
0.576646
0.518906
0.548908
0.999833
0.999933
0.999986
0.999995
0.999988
0.999946
0.999759
0.986982
0.925937
0.823986
0.483751
0.647213
0.578217
0.523168
0.45062
0.460201
0.473437
0.506587
0.572476
0.592645
0.586958
0.562805
0.50538
0.998867
0.999605
0.999933
0.999973
0.999919
0.999593
0.998567
0.943731
0.667628
0.479982
0.250909
0.549807
0.283114
0.209535
0.136133
0.152912
0.189586
0.286026
0.427731
0.422115
0.34823
0.283084
0.189718
0.993826
0.997986
0.999702
0.999851
0.999575
0.997653
0.993167
0.811354
0.305102
0.186042
0.201108
0.481268
0.199508
0.0899326
0.0466748
0.0599041
0.112555
0.138138
0.178393
0.165994
0.0875641
0.0434107
0.0143425
0.971683
0.991014
0.998745
0.99919
0.998133
0.989518
0.973575
0.772977
0.254621
0.0901518
0.146241
0.369107
0.160486
0.0536536
0.0185063
0.0296626
0.0307577
0.0357565
0.0416728
0.0364928
0.0160294
0.00515474
0.00204476
0.88796
0.963565
0.994423
0.995929
0.992782
0.969704
0.885012
0.60598
0.285649
0.0627406
0.0753906
0.208497
0.0810844
0.018844
0.00443145
0.00713722
0.00614742
0.008278
0.00737576
0.00423191
0.00331606
0.00209692
0.00133067
0.63628
0.870347
0.975105
0.980943
0.978367
0.917413
0.709309
0.421899
0.187675
0.0385671
0.0508946
0.131743
0.0522664
0.00224469
0.000824625
0.000998705
0.000828746
0.00158202
0.00172135
0.00174766
0.00117352
0.000686459
0.00101184
0.292522
0.633517
0.905293
0.915662
0.947932
0.877779
0.615166
0.536142
0.448324
0.228973
0.0706728
0.108772
0.0572725
0.00199733
0.000592278
0.000400841
0.00037958
0.000474867
0.000783352
0.00176274
0.000974189
0.000608493
0.00116598
0.138042
0.329988
0.738735
0.717036
0.852449
0.901524
0.838465
0.795811
0.698471
0.434749
0.161794
0.112981
0.0580635
0.001365
0.000694912
0.000560015
0.00056755
0.000406355
0.000796067
0.00217093
0.000692454
0.000401748
0.00118208
0.0993646
0.255477
0.662059
0.377733
0.633825
0.651279
0.794661
0.759778
0.618952
0.335493
0.168212
0.103597
0.022825
0.00427993
0.000738225
0.000692456
0.000897674
0.000699358
0.00139837
0.00200569
0.000189608
0.00022139
0.000476626
0.0913049
0.27917
0.653491
0.268681
0.462329
0.284308
0.430319
0.405583
0.212999
0.0578829
0.115908
0.108462
0.0346912
0.00492947
0.000713746
0.000702508
0.000986328
0.00103135
0.00107049
0.000496587
7.41195e-05
9.93538e-05
0.000192457
0.0835673
0.273
0.573477
0.24735
0.198295
0.0783076
0.0598512
0.159664
0.0466086
0.0135163
0.197133
0.273858
0.181115
0.0246609
0.00125809
0.000485542
0.000645875
0.000407152
0.000192013
4.16678e-05
1.62123e-05
2.86645e-05
6.06906e-05
0.0656046
0.202687
0.371802
0.161015
0.0593492
0.012174
0.00253964
0.0693212
0.00307406
0.00265127
0.0491844
0.27223
0.0505522
0.00387089
6.61538e-05
0.000133559
0.000201689
0.000115394
6.37894e-05
1.14022e-05
6.06857e-06
8.06042e-06
1.44906e-05
0.0130913
0.0806707
0.272991
0.0776646
0.0119328
0.00220438
0.000708219
0.00182506
0.000149049
0.000305573
0.00570187
0.0651146
0.00115542
2.59176e-06
5.47815e-06
2.64049e-05
3.95667e-05
2.89409e-05
2.4445e-05
7.52933e-06
1.81374e-06
7.69811e-07
2.69046e-06
0.00479629
0.0707536
0.248085
0.0545636
0.00521943
0.000548865
8.56053e-05
5.76746e-05
1.28055e-05
3.12537e-06
1.34158e-05
2.77753e-05
3.53035e-06
5.60013e-07
9.95771e-07
4.38789e-06
6.57291e-06
5.36529e-06
4.09068e-06
3.32983e-06
5.30896e-07
1.31395e-07
4.20618e-07
0.00294688
0.0828355
0.253559
0.139485
0.00402752
0.000108816
2.32903e-05
1.4788e-05
7.21147e-06
2.68313e-07
1.07411e-07
1.09018e-07
2.4472e-07
5.67422e-08
6.75312e-08
2.77583e-07
6.15403e-07
5.94676e-07
2.10277e-07
5.54323e-08
1.78603e-08
2.04597e-08
6.82867e-08
3.10825e-05
0.00160833
0.043907
0.00521269
0.000190368
2.59532e-05
8.42859e-06
6.49216e-06
8.55638e-06
2.21311e-07
2.51489e-08
4.58057e-09
2.82676e-09
2.27882e-09
1.99888e-09
4.82729e-09
1.37427e-08
3.02476e-08
4.02116e-08
2.74689e-08
9.5446e-09
5.5097e-09
1.55176e-08
1.60845e-05
0.000227766
0.00154893
7.3148e-05
2.24864e-05
4.96947e-06
3.76992e-06
1.41111e-06
5.65935e-06
2.23212e-07
2.35045e-08
6.07542e-10
9.20147e-11
8.93914e-11
2.57604e-10
7.50642e-10
2.93455e-09
7.11997e-09
1.15619e-08
1.09864e-08
8.60569e-09
6.18998e-10
3.43589e-10
1.06969e-06
4.17828e-06
1.26701e-05
6.61916e-07
2.28487e-07
1.75307e-07
1.11255e-06
2.65471e-07
6.19215e-07
4.44685e-08
3.32655e-08
3.22902e-10
3.16219e-12
1.72684e-12
3.14954e-12
1.86137e-11
1.26347e-10
5.16873e-10
1.0297e-09
9.55536e-10
6.3613e-10
7.68571e-11
1.3745e-11
1.99373e-07
1.97817e-08
4.6358e-09
2.87322e-10
2.54012e-09
3.08795e-08
9.09669e-08
1.36658e-08
2.20857e-08
1.45649e-09
2.97759e-10
4.92e-11
3.44169e-14
1.52656e-14
1.15186e-13
1.08702e-12
5.85143e-12
2.11516e-11
5.55457e-11
6.83487e-11
6.0082e-11
9.82164e-12
5.28688e-13
4.82609e-08
4.38017e-09
6.31008e-10
8.73056e-10
8.51599e-11
2.2751e-09
6.68206e-09
4.78675e-10
9.3913e-11
5.001e-13
4.77951e-14
9.27036e-15
2.88658e-15
3.27516e-15
8.43769e-15
2.9754e-14
1.84019e-13
8.67528e-13
3.05284e-12
4.78917e-12
3.94518e-12
8.41827e-13
1.91513e-14
2.79438e-09
8.18803e-10
1.48702e-11
1.80006e-12
1.15847e-11
4.36386e-11
9.83863e-11
1.0646e-11
1.92402e-13
5.77316e-15
4.44089e-15
3.16414e-15
3.16414e-15
4.4964e-15
2.72005e-15
3.66374e-15
9.65894e-15
3.15303e-14
1.38001e-13
2.51021e-13
2.26541e-13
8.74856e-14
1.05471e-15
1.53588e-11
1.12893e-12
1.66978e-13
1.82632e-14
7.60503e-15
1.23235e-14
1.4766e-14
4.21885e-15
3.9968e-15
2.9976e-15
3.60822e-15
2.66454e-15
4.21885e-15
3.10862e-15
3.16414e-15
2.72005e-15
2.9976e-15
4.71845e-15
5.9952e-15
9.21485e-15
8.77076e-15
2.38698e-15
0
1.84297e-13
3.34177e-14
7.54952e-15
3.55271e-15
2.22045e-15
1.4988e-15
4.38538e-15
3.83027e-15
4.60743e-15
3.94129e-15
4.66294e-15
3.4972e-15
2.72005e-15
3.9968e-15
4.94049e-15
3.88578e-15
3.60822e-15
3.66374e-15
3.10862e-15
1.16573e-15
0
0
0
4.82947e-15
2.88658e-15
5.16254e-15
3.94129e-15
4.16334e-15
4.44089e-15
5.21805e-15
4.71845e-15
4.05231e-15
3.9968e-15
4.05231e-15
4.21885e-15
3.77476e-15
3.16414e-15
3.60822e-15
4.16334e-15
4.71845e-15
4.16334e-15
3.21965e-15
2.498e-15
6.66134e-16
0
4.996e-16
3.9968e-15
2.9976e-15
6.16174e-15
5.27356e-15
4.77396e-15
4.05231e-15
4.66294e-15
4.10783e-15
3.44169e-15
4.16334e-15
2.72005e-15
2.9976e-15
2.498e-15
3.66374e-15
1.33227e-15
3.71925e-15
4.38538e-15
3.33067e-15
2.498e-15
3.55271e-15
1.05471e-15
5.55112e-17
6.66134e-16
4.71845e-15
2.72005e-15
5.21805e-15
5.60663e-15
3.38618e-15
4.05231e-15
5.71765e-15
5.38458e-15
3.05311e-15
3.16414e-15
3.16414e-15
4.10783e-15
2.9976e-15
3.94129e-15
3.71925e-15
4.66294e-15
5.38458e-15
2.60902e-15
3.16414e-15
2.498e-15
1.05471e-15
0
5.55112e-16
4.16334e-15
2.10942e-15
3.27516e-15
4.66294e-15
3.9968e-15
3.66374e-15
5.60663e-15
3.44169e-15
2.77556e-15
4.21885e-15
5.10703e-15
4.05231e-15
3.60822e-15
5.55112e-15
3.38618e-15
5.44009e-15
4.55191e-15
3.05311e-15
2.55351e-15
3.16414e-15
5.55112e-16
0
5.55112e-16
5.4956e-15
2.27596e-15
4.27436e-15
3.27516e-15
4.44089e-15
3.4972e-15
3.60822e-15
3.9968e-15
3.60822e-15
4.4964e-15
5.21805e-15
3.94129e-15
3.38618e-15
4.21885e-15
3.38618e-15
3.55271e-15
5.16254e-15
4.10783e-15
3.60822e-15
2.88658e-15
5.55112e-16
0
0
6.55032e-15
7.77156e-16
3.21965e-15
4.71845e-15
6.71685e-15
3.9968e-15
2.9976e-15
5.38458e-15
2.9976e-15
2.88658e-15
4.71845e-15
3.21965e-15
6.10623e-15
6.16174e-15
4.27436e-15
4.77396e-15
4.16334e-15
4.10783e-15
3.4972e-15
3.60822e-15
1.4988e-15
1.11022e-16
8.88178e-16
9.27036e-15
1.66533e-15
4.21885e-15
4.996e-15
6.27276e-15
3.94129e-15
3.66374e-15
5.66214e-15
3.05311e-15
5.32907e-15
4.66294e-15
4.27436e-15
5.10703e-15
3.71925e-15
3.94129e-15
4.66294e-15
3.94129e-15
5.4956e-15
3.55271e-15
3.60822e-15
1.16573e-15
0
0
9.21485e-15
1.22125e-15
3.55271e-15
3.55271e-15
4.44089e-15
2.94209e-15
5.05151e-15
5.21805e-15
3.83027e-15
6.27276e-15
4.32987e-15
3.55271e-15
4.16334e-15
2.38698e-15
4.77396e-15
4.55191e-15
4.55191e-15
4.10783e-15
4.55191e-15
3.55271e-15
2.16493e-15
5.55112e-16
9.4369e-16
7.77156e-15
2.05391e-15
3.60822e-15
2.72005e-15
3.44169e-15
1.88738e-15
4.32987e-15
5.88418e-15
5.32907e-15
5.27356e-15
4.10783e-15
5.27356e-15
3.60822e-15
3.16414e-15
4.4964e-15
4.32987e-15
4.94049e-15
4.16334e-15
3.4972e-15
3.60822e-15
3.10862e-15
0
0
7.10543e-15
9.99201e-16
4.77396e-15
3.9968e-15
2.9976e-15
1.55431e-15
5.10703e-15
5.38458e-15
4.4964e-15
3.9968e-15
4.66294e-15
2.77556e-15
4.4964e-15
4.60743e-15
5.4956e-15
5.82867e-15
5.66214e-15
4.16334e-15
4.60743e-15
3.55271e-15
2.22045e-15
6.10623e-16
1.60982e-15
4.60743e-15
1.44329e-15
3.9968e-15
1.9984e-15
3.55271e-15
1.16573e-15
2.9976e-15
3.88578e-15
2.88658e-15
5.4956e-15
2.77556e-15
4.05231e-15
4.4964e-15
4.05231e-15
3.4972e-15
5.05151e-15
5.16254e-15
4.60743e-15
4.10783e-15
4.94049e-15
1.60982e-15
0
1.16573e-15
2.9976e-15
0
9.99201e-16
1.11022e-16
1.94289e-15
5.55112e-16
2.10942e-15
2.10942e-15
1.83187e-15
3.60822e-15
2.94209e-15
3.60822e-15
2.9976e-15
0
1.60982e-15
2.27596e-15
4.55191e-15
3.38618e-15
3.10862e-15
4.16334e-15
2.498e-15
0
1.22125e-15
9.4369e-16
0
0
0
0
1.11022e-16
0
0
0
0
0
0
0
0
0
3.33067e-16
0
8.88178e-16
3.83027e-15
1.88738e-15
3.55271e-15
0
0
1.11022e-16
0
0
0
0
0
0
0
0
0
0
0
0
0
0
0
0
0
0
0
0
4.38538e-15
4.05231e-15
9.4369e-16
0
1.55431e-15
0
1.38778e-15
3.33067e-15
1.9984e-15
0
1.94289e-15
0
0
0
0
0
0
0
0
0
0
0
1.83187e-15
7.27196e-15
4.71845e-15
0.521227
0.448104
0.396669
0.383496
0.663151
0.601281
0.542227
0.506165
0.73603
0.720874
0.703354
0.691902
0.537188
0.518578
0.526775
0.527671
0.443713
0.38779
0.29959
0.249405
0.149465
0.117584
0.0671247
0.0369752
0.0109934
0.00918231
0.00600053
0.00361073
0.00144036
0.00118013
0.00105037
0.000970304
0.00121447
0.00126062
0.00132122
0.00144972
0.0013185
0.0018592
0.00210306
0.00252583
0.00196315
0.00251037
0.00276727
0.00298779
0.00212659
0.00258743
0.00283364
0.00293605
0.000939572
0.00137282
0.00166244
0.00216683
0.000337595
0.000452159
0.000483485
0.000606884
8.87122e-05
0.000120372
0.000130692
0.000138013
1.35347e-05
2.19212e-05
3.55436e-05
4.55493e-05
3.12457e-06
4.55507e-06
6.72e-06
8.11404e-06
5.77494e-07
7.54018e-07
1.10132e-06
1.29289e-06
1.25561e-07
1.7977e-07
2.14063e-07
2.26642e-07
2.29353e-08
2.50671e-08
2.57527e-08
2.51385e-08
5.30984e-10
4.96912e-10
4.92883e-10
5.39006e-10
2.11899e-11
2.35137e-11
2.99938e-11
5.20503e-11
7.368e-13
1.14903e-12
1.72834e-12
3.22914e-12
2.77001e-14
5.64548e-14
8.39884e-14
1.48215e-13
7.21645e-16
2.22045e-15
3.38618e-15
8.49321e-15
3.88578e-16
1.4988e-15
0
1.77636e-15
0
0
0
7.77156e-16
0
0
0
0
4.44089e-16
2.77556e-16
0
1.66533e-16
0
0
0
0
0
4.996e-16
0
9.99201e-16
0
0
0
1.11022e-16
0
0
0
0
0
3.88578e-16
0
0
0
0
0
0
0
0
0
0
0
0
0
0
0
0
0
0
0
0
0
0
0
0
0
0
3.88578e-16
6.10623e-16
0
4.10783e-15
4.27436e-15
0
0
0
0.170624
0.0554194
0.144904
0.221349
0.267062
0.257646
0.148089
0.052326
0.0166
0.00226616
0.000153746
6.68386e-06
2.40874e-07
6.92212e-09
1.60141e-10
2.97445e-12
4.03566e-14
0
3.88578e-16
0.415077
0.30483
0.319426
0.371665
0.38365
0.362465
0.307958
0.203073
0.082164
0.0192441
0.00284301
0.000250458
1.13116e-05
3.40711e-07
7.85321e-09
1.43866e-10
2.02383e-12
1.7486e-14
0
0.665994
0.619619
0.597952
0.558638
0.467492
0.279462
0.122142
0.0474103
0.016099
0.00472915
0.00107655
0.000167026
1.7064e-05
1.16031e-06
5.35795e-08
1.69106e-09
3.52957e-11
4.42812e-13
2.60902e-15
0.526876
0.51815
0.482312
0.410629
0.292528
0.162441
0.0862153
0.0428462
0.0188182
0.00678841
0.00182615
0.000340909
4.1372e-05
3.16409e-06
1.58035e-07
5.25822e-09
1.13729e-10
1.46633e-12
9.60343e-15
0.255097
0.30524
0.308163
0.266393
0.192516
0.118304
0.0770203
0.0434698
0.0198831
0.00698614
0.00175629
0.000295228
3.27542e-05
2.42649e-06
1.20976e-07
4.05268e-09
8.8362e-11
1.14947e-12
8.32667e-15
0.0351884
0.054196
0.115181
0.109365
0.0929668
0.0723067
0.0557584
0.0420481
0.0246525
0.00918958
0.00224545
0.000358449
3.76236e-05
2.66811e-06
1.28517e-07
4.1841e-09
8.9069e-11
1.12893e-12
8.10463e-15
0.00296672
0.003508
0.0114852
0.0198598
0.0169792
0.0197481
0.0234121
0.0243632
0.0208108
0.0102475
0.00280432
0.000479453
5.03807e-05
3.41669e-06
1.51119e-07
4.50468e-09
8.78992e-11
1.03678e-12
6.21725e-15
0.000856416
0.000591152
0.000458927
0.00103694
0.00242167
0.00437052
0.0104587
0.0150522
0.0143656
0.00881962
0.00253141
0.000440846
4.51472e-05
2.87248e-06
1.2237e-07
3.47509e-09
6.4197e-11
7.04381e-13
5.66214e-15
0.00152464
0.00144906
0.00123685
0.00083705
0.00104929
0.00294612
0.00869228
0.0104017
0.00908475
0.00535722
0.00165805
0.000282745
2.64907e-05
1.53548e-06
5.93462e-08
1.53791e-09
2.59564e-11
2.59459e-13
3.10862e-15
0.00250181
0.00219592
0.00136652
0.000812346
0.00081074
0.0013765
0.00450553
0.00761562
0.0063904
0.00293412
0.000748001
0.000101733
7.9952e-06
4.17271e-07
1.47286e-08
3.52708e-10
5.55894e-12
5.34572e-14
1.72085e-15
0.00284606
0.00168095
0.00103194
0.000960783
0.00129922
0.00274447
0.00580171
0.00676624
0.00493693
0.0015143
0.000260742
2.61672e-05
1.74489e-06
8.11289e-08
2.61382e-09
5.80518e-11
8.59202e-13
7.21645e-15
1.4988e-15
0.00296506
0.00233331
0.00262471
0.00365534
0.00474207
0.00513002
0.0056599
0.00462177
0.00197876
0.000431041
6.35978e-05
5.17148e-06
2.89725e-07
1.20811e-08
3.52723e-10
7.21823e-12
1.02085e-13
0
2.94209e-15
0.00265477
0.00287672
0.00293356
0.00297843
0.00336379
0.0035786
0.00305506
0.00155047
0.000523539
0.000106141
1.28055e-05
8.70924e-07
4.12829e-08
1.45597e-09
3.80808e-11
7.30471e-13
1.05471e-14
0
2.55351e-15
0.000763309
0.000901267
0.000697829
0.000769749
0.00100611
0.00120459
0.000856186
0.000382002
0.000119156
2.21037e-05
2.14203e-06
1.27867e-07
5.1817e-09
1.5922e-10
3.66929e-12
6.56697e-14
2.77556e-15
1.05471e-15
1.11022e-15
0.000134445
0.0001218
0.000116183
0.00017101
0.000218504
0.000263496
0.0001599
6.63299e-05
1.96338e-05
3.51409e-06
2.90897e-07
1.63276e-08
5.75604e-10
1.58911e-11
3.26683e-13
7.66054e-15
2.498e-15
8.32667e-16
9.99201e-16
4.87317e-05
4.16024e-05
2.3965e-05
3.19973e-05
4.27292e-05
4.80712e-05
2.80031e-05
1.04314e-05
2.82688e-06
4.04284e-07
3.1543e-08
1.73129e-09
5.47477e-11
1.40771e-12
2.94764e-14
3.55271e-15
1.66533e-15
1.66533e-16
2.77556e-16
9.13413e-06
7.68274e-06
4.41993e-06
6.07039e-06
7.82977e-06
7.08766e-06
4.06653e-06
1.32095e-06
3.29231e-07
4.46555e-08
2.9906e-09
1.60641e-10
4.60981e-12
1.16573e-13
5.77316e-15
2.38698e-15
2.22045e-15
0
6.66134e-16
1.47712e-06
1.21093e-06
7.01109e-07
8.3117e-07
1.12895e-06
8.9127e-07
5.04638e-07
1.36821e-07
3.72359e-08
4.44745e-09
2.5244e-10
1.16911e-11
3.37785e-13
1.07692e-14
5.05151e-15
4.44089e-15
1.4988e-15
0
9.99201e-16
2.43459e-07
1.81962e-07
1.21594e-07
5.56653e-08
4.46568e-08
1.0057e-07
4.7032e-08
1.44594e-08
3.5426e-09
3.34791e-10
1.88491e-11
8.54927e-13
2.53686e-14
4.60743e-15
4.32987e-15
3.77476e-15
2.33147e-15
0
9.4369e-16
2.3402e-08
1.56608e-08
6.6463e-09
5.59387e-09
6.66561e-09
1.02341e-08
4.09873e-09
1.32008e-09
2.28283e-10
2.23251e-11
1.20021e-12
5.701e-14
3.55271e-15
4.32987e-15
5.05151e-15
2.77556e-15
9.99201e-16
0
1.9984e-15
9.67688e-10
1.66498e-09
9.62398e-10
1.46435e-09
6.07728e-10
2.74266e-10
3.0705e-10
9.86699e-11
1.25789e-11
1.41548e-12
8.37663e-14
6.88338e-15
3.71925e-15
3.66374e-15
5.21805e-15
3.77476e-15
7.21645e-16
0
3.77476e-15
9.51715e-11
1.29417e-10
1.10548e-10
2.292e-10
5.14817e-11
2.40204e-11
2.03423e-11
4.30206e-12
5.97966e-13
7.64944e-14
7.38298e-15
3.88578e-15
3.66374e-15
2.498e-15
4.16334e-15
1.83187e-15
2.05391e-15
1.05471e-15
6.27276e-15
6.20792e-12
9.34181e-12
1.09397e-11
2.48662e-11
3.98298e-12
1.89132e-12
1.20359e-12
1.70253e-13
3.66374e-14
5.77316e-15
1.27676e-15
2.66454e-15
4.71845e-15
4.996e-15
1.05471e-15
3.21965e-15
2.88658e-15
2.05391e-15
4.32987e-15
3.16136e-13
5.64548e-13
8.84126e-13
2.09377e-12
2.83995e-13
1.39277e-13
6.85563e-14
1.2379e-14
3.44169e-15
2.9976e-15
1.94289e-15
1.16573e-15
3.88578e-15
3.60822e-15
3.38618e-15
3.94129e-15
2.33147e-15
0
3.10862e-15
1.70974e-14
3.53606e-14
6.17284e-14
1.3739e-13
1.88738e-14
1.04361e-14
6.16174e-15
4.66294e-15
3.27516e-15
3.83027e-15
3.88578e-15
4.77396e-15
4.66294e-15
4.996e-15
1.83187e-15
2.38698e-15
3.55271e-15
0
1.4988e-15
4.27436e-15
5.82867e-15
5.10703e-15
9.04832e-15
5.16254e-15
4.16334e-15
3.27516e-15
1.44329e-15
1.05471e-15
4.10783e-15
3.21965e-15
1.72085e-15
2.44249e-15
1.88738e-15
2.44249e-15
2.10942e-15
1.66533e-15
0
1.9984e-15
3.66374e-15
4.44089e-15
2.38698e-15
2.16493e-15
2.77556e-15
1.94289e-15
2.83107e-15
7.21645e-16
8.88178e-16
1.55431e-15
2.05391e-15
3.66374e-15
3.4972e-15
3.05311e-15
2.55351e-15
3.55271e-15
3.33067e-15
2.22045e-16
2.9976e-15
2.38698e-15
4.66294e-15
4.32987e-15
3.27516e-15
2.60902e-15
3.10862e-15
3.55271e-15
2.05391e-15
7.77156e-16
2.16493e-15
3.66374e-15
4.10783e-15
3.60822e-15
3.44169e-15
2.60902e-15
3.66374e-15
3.27516e-15
0
2.05391e-15
2.10942e-15
3.9968e-15
2.55351e-15
2.83107e-15
3.4972e-15
3.33067e-15
2.33147e-15
3.44169e-15
2.55351e-15
3.33067e-15
3.16414e-15
3.9968e-15
3.94129e-15
4.05231e-15
1.77636e-15
2.05391e-15
2.16493e-15
0
2.16493e-15
1.60982e-15
3.71925e-15
4.4964e-15
4.60743e-15
4.21885e-15
3.27516e-15
7.21645e-16
3.16414e-15
2.22045e-15
2.33147e-15
2.27596e-15
1.72085e-15
2.72005e-15
3.66374e-15
1.4988e-15
1.38778e-15
3.21965e-15
0
3.94129e-15
1.9984e-15
2.16493e-15
2.9976e-15
4.16334e-15
2.27596e-15
1.44329e-15
5.55112e-16
2.22045e-15
1.83187e-15
1.72085e-15
1.83187e-15
1.27676e-15
1.22125e-15
2.9976e-15
2.33147e-15
8.88178e-16
3.66374e-15
0
2.38698e-15
1.33227e-15
3.88578e-15
4.10783e-15
2.16493e-15
1.4988e-15
1.27676e-15
1.27676e-15
1.22125e-15
1.33227e-15
2.10942e-15
2.27596e-15
2.94209e-15
1.83187e-15
3.9968e-15
4.88498e-15
2.94209e-15
2.55351e-15
0
1.55431e-15
1.22125e-15
4.16334e-15
4.10783e-15
3.71925e-15
3.33067e-15
2.88658e-15
3.94129e-15
2.9976e-15
1.44329e-15
3.33067e-15
1.05471e-15
2.9976e-15
1.66533e-15
3.88578e-15
3.44169e-15
3.55271e-15
1.38778e-15
1.72085e-15
3.94129e-15
5.55112e-16
3.33067e-15
1.77636e-15
1.55431e-15
1.44329e-15
2.27596e-15
1.60982e-15
1.44329e-15
3.44169e-15
2.88658e-15
7.21645e-16
2.88658e-15
4.44089e-16
2.66454e-15
4.38538e-15
3.27516e-15
1.44329e-15
4.996e-16
1.83187e-15
2.94209e-15
4.4964e-15
4.16334e-15
3.05311e-15
0
2.9976e-15
3.10862e-15
1.66533e-15
1.72085e-15
3.16414e-15
2.9976e-15
1.83187e-15
1.22125e-15
2.83107e-15
4.94049e-15
4.10783e-15
1.55431e-15
0
2.66454e-15
2.498e-15
3.21965e-15
8.88178e-16
2.66454e-15
2.72005e-15
3.66374e-15
4.66294e-15
4.71845e-15
1.72085e-15
1.94289e-15
3.9968e-15
1.77636e-15
1.05471e-15
1.83187e-15
3.94129e-15
3.9968e-15
1.60982e-15
0
3.55271e-15
8.32667e-16
1.38778e-15
3.71925e-15
5.55112e-15
4.94049e-15
5.32907e-15
4.16334e-15
5.9952e-15
1.60982e-15
1.38778e-15
3.71925e-15
2.38698e-15
1.38778e-15
4.16334e-15
1.66533e-15
4.27436e-15
4.996e-15
0
3.9968e-15
1.83187e-15
2.94209e-15
1.05471e-15
4.44089e-15
4.71845e-15
2.38698e-15
1.55431e-15
4.32987e-15
1.4988e-15
9.4369e-16
2.10942e-15
3.21965e-15
2.72005e-15
1.22125e-15
2.16493e-15
1.66533e-15
3.9968e-15
0
2.38698e-15
8.88178e-16
1.77636e-15
1.11022e-15
1.16573e-15
1.38778e-15
3.83027e-15
6.10623e-16
2.27596e-15
1.88738e-15
2.33147e-15
1.05471e-15
2.55351e-15
3.16414e-15
2.44249e-15
3.27516e-15
3.05311e-15
1.72085e-15
0
2.22045e-16
1.55431e-15
1.66533e-15
1.16573e-15
3.4972e-15
2.72005e-15
3.4972e-15
1.44329e-15
2.33147e-15
1.16573e-15
3.33067e-15
3.33067e-15
3.71925e-15
2.94209e-15
3.88578e-15
4.05231e-15
2.88658e-15
4.38538e-15
0
1.27676e-15
3.9968e-15
1.05471e-15
0
0
0
0
0
2.22045e-16
0
7.77156e-16
0
0
0
0
0
0
2.77556e-16
0
6.66134e-16
0
5.66214e-15
7.77156e-16
2.77556e-15
2.60902e-15
1.33227e-15
0
1.72085e-15
7.77156e-16
1.77636e-15
1.33227e-15
1.9984e-15
2.44249e-15
2.05391e-15
1.38778e-15
0
1.44329e-15
8.88178e-16
0
)
;

boundaryField
{
    leftWall
    {
        type            zeroGradient;
    }
    rightWall
    {
        type            zeroGradient;
    }
    lowerWall
    {
        type            zeroGradient;
    }
    atmosphere
    {
        type            inletOutlet;
        inletValue      uniform 0;
        value           nonuniform List<scalar> 
46
(
9.4369e-16
0
1.55431e-15
0
1.38778e-15
3.33067e-15
1.9984e-15
0
1.94289e-15
0
0
0
0
0
0
0
0
0
0
0
1.83187e-15
7.27196e-15
4.71845e-15
4.27436e-15
0
0
0
0
5.66214e-15
7.77156e-16
2.77556e-15
2.60902e-15
1.33227e-15
0
1.72085e-15
7.77156e-16
1.77636e-15
1.33227e-15
1.9984e-15
2.44249e-15
2.05391e-15
1.38778e-15
0
1.44329e-15
8.88178e-16
0
)
;
    }
    defaultFaces
    {
        type            empty;
    }
}


// ************************************************************************* //
