/*--------------------------------*- C++ -*----------------------------------*\
| =========                 |                                                 |
| \\      /  F ield         | foam-extend: Open Source CFD                    |
|  \\    /   O peration     | Version:     4.1                                |
|   \\  /    A nd           | Web:         http://www.foam-extend.org         |
|    \\/     M anipulation  |                                                 |
\*---------------------------------------------------------------------------*/
FoamFile
{
    version     2.0;
    format      ascii;
    class       volScalarField;
    location    "0.25";
    object      C;
}
// * * * * * * * * * * * * * * * * * * * * * * * * * * * * * * * * * * * * * //

dimensions      [0 0 0 0 0 0 0];

internalField   nonuniform List<scalar> 
2268
(
1
1
1
1
1
1
1
1
1
1
1
0.999899
0.99953
0.998718
0.99712
0.992725
0.97801
0.955863
0.967769
0.976887
0.979707
0.733646
-0.50982
1
1
1
1
1
1
1
1
1
1
1
0.99921
0.99248
0.972216
0.977343
0.97146
0.904428
0.51325
0.537747
0.652111
0.906478
0.860396
0.747117
1
1
1
1
1
1
1
1
1
1
1
0.996841
0.909504
0.851446
0.872158
0.836444
0.52111
0.162045
0.271143
0.388383
0.69715
0.853617
0.749603
1
1
1
1
1
1
1
1
1
1
0.999999
0.992526
0.400303
0.506117
0.435292
0.0664489
0.0269014
0.110254
0.33781
0.643649
0.752407
0.859195
0.742664
1
1
1
1
1
1
1
1
1
1
0.999999
0.999974
0.99148
0.981268
0.875489
0.705295
0.589831
0.419743
0.425412
0.495218
0.564624
0.816718
0.704367
1
1
1
1
1
1
1
1
1
0.999998
0.999992
0.999983
0.999233
0.993267
0.95424
0.915037
0.780292
0.51578
0.540763
0.509781
0.0618566
0.71349
0.64266
1
1
1
1
1
1
1
1
0.999997
0.999985
0.99996
0.999919
0.998754
0.987494
0.897039
0.797865
0.687753
0.43131
0.417886
0.516861
0.191741
0.276822
0.546078
1
1
1
1
1
1
1
0.999999
0.999985
0.999918
0.999782
0.999738
0.999202
0.996795
0.908528
0.516683
0.474313
0.377701
0.200129
0.402833
0.276327
0.060431
0.327737
-1
-1
-1
-1
-1
-1
-1
-1
-1
-1
-1
-1
-1
-1
-1
-1
-1
-1
-1
-1
-1
-0.999999
-0.999998
-1
-1
-1
-1
-1
-1
-1
-1
-1
-1
-1
-1
-1
-1
-1
-0.999999
-0.999993
-0.999974
-0.999963
-0.999998
-0.999989
-1
-1
-1
-1
-1
-1
-1
-1
-1
-1
-1
-1
-1
-0.999993
-0.999916
-0.999721
-0.999634
-0.999948
-0.999826
-0.999988
-0.999998
-1
-1
-1
-1
-1
-1
-1
-1
-1
-1
-1
-0.999971
-0.999507
-0.998251
-0.997755
-0.999313
-0.998093
-0.999811
-0.999968
-0.999997
-1
-1
-1
-1
-1
-1
-1
-1
-1
-1
-0.999927
-0.998935
-0.993042
-0.989128
-0.993492
-0.986435
-0.998015
-0.999629
-0.999953
-0.999997
-1
-1
-1
-1
-1
-1
-1
-1
-1
-0.999613
-0.998367
-0.981382
-0.956008
-0.952484
-0.932777
-0.983766
-0.997076
-0.999555
-0.99997
-0.999999
-1
-1
-1
-1
-1
-1
-1
-1
-0.97229
-0.994307
-0.95134
-0.853244
-0.779885
-0.768339
-0.92706
-0.983289
-0.996386
-0.999666
-0.999985
-0.999999
-1
-1
-1
-1
-1
-1
-1
1
1
1
1
1
1
1
0.999987
0.999875
0.999442
0.998418
0.998476
0.997629
0.996177
0.965944
0.759466
0.500869
0.372291
0.335217
0.426226
0.47
0.380108
0.219516
1
1
1
1
1
1
0.999999
0.999862
0.998899
0.995675
0.987482
0.985695
0.98186
0.969532
0.967088
0.956542
0.871592
0.683696
0.729138
0.761636
0.790277
0.741249
0.523484
0.999998
0.999999
1
1
1
0.999998
0.999991
0.999077
0.993592
0.977273
0.921086
0.927225
0.914266
0.869163
0.859626
0.833109
0.793712
0.738856
0.692864
0.559931
0.52967
0.541315
0.515341
0.999965
0.999984
0.999996
0.999998
0.999998
0.999983
0.999927
0.994829
0.968035
0.895601
0.725285
0.686743
0.700584
0.572744
0.574027
0.46663
0.41125
0.402834
0.368699
0.281668
0.153292
0.0378126
0.0978165
0.999666
0.999867
0.999971
0.99999
0.999975
0.999892
0.999519
0.973963
0.851874
0.647972
-0.0324983
0.294426
0.156433
0.0463353
-0.0987597
-0.0795984
-0.0531251
0.0131737
0.144953
0.18529
0.173916
0.125609
0.0107606
0.997735
0.999211
0.999865
0.999947
0.999837
0.999187
0.997133
0.887461
0.335257
-0.0400359
-0.498182
0.099614
-0.433771
-0.580931
-0.727735
-0.694176
-0.620827
-0.427948
-0.144537
-0.15577
-0.303541
-0.433831
-0.620564
0.987651
0.995973
0.999404
0.999703
0.999151
0.995307
0.986334
0.622708
-0.389795
-0.627916
-0.597785
-0.0374649
-0.600984
-0.820135
-0.90665
-0.880192
-0.774891
-0.723723
-0.643213
-0.668012
-0.824872
-0.913179
-0.971315
0.943367
0.982028
0.997489
0.998379
0.996265
0.979037
0.94715
0.545954
-0.490758
-0.819696
-0.707518
-0.261786
-0.679028
-0.892693
-0.962987
-0.940675
-0.938485
-0.928487
-0.916654
-0.927014
-0.967941
-0.989691
-0.99591
0.775921
0.927129
0.988845
0.991858
0.985563
0.939408
0.770025
0.211959
-0.428703
-0.874519
-0.849219
-0.583005
-0.837831
-0.962312
-0.991137
-0.985726
-0.987705
-0.983444
-0.985248
-0.991536
-0.993368
-0.995806
-0.997339
0.272561
0.740694
0.95021
0.961886
0.956735
0.834826
0.418619
-0.156203
-0.62465
-0.922866
-0.898211
-0.736514
-0.895467
-0.995511
-0.998351
-0.998003
-0.998343
-0.996836
-0.996557
-0.996505
-0.997653
-0.998627
-0.997976
-0.414956
0.267034
0.810586
0.831325
0.895863
0.755558
0.230331
0.0722846
-0.103353
-0.542054
-0.858654
-0.782457
-0.885455
-0.996005
-0.998815
-0.999198
-0.999241
-0.99905
-0.998433
-0.996475
-0.998052
-0.998783
-0.997668
-0.723915
-0.340023
0.477469
0.434073
0.704898
0.803048
0.67693
0.591621
0.396943
-0.130501
-0.676412
-0.774039
-0.883873
-0.99727
-0.99861
-0.99888
-0.998865
-0.999187
-0.998408
-0.995658
-0.998615
-0.999197
-0.997636
-0.801271
-0.489046
0.324118
-0.244535
0.267651
0.302559
0.589322
0.519556
0.237904
-0.329013
-0.663576
-0.792806
-0.95435
-0.99144
-0.998524
-0.998615
-0.998205
-0.998601
-0.997203
-0.995989
-0.999621
-0.999557
-0.999047
-0.81739
-0.441661
0.306982
-0.462639
-0.0753424
-0.431385
-0.139363
-0.188834
-0.574002
-0.884234
-0.768185
-0.783076
-0.930618
-0.990141
-0.998573
-0.998595
-0.998027
-0.997937
-0.997859
-0.999007
-0.999852
-0.999801
-0.999615
-0.832865
-0.454
0.146954
-0.505299
-0.603409
-0.843385
-0.880298
-0.680672
-0.906783
-0.972967
-0.605733
-0.452284
-0.637769
-0.950678
-0.997484
-0.999029
-0.998708
-0.999186
-0.999616
-0.999917
-0.999968
-0.999943
-0.999879
-0.868791
-0.594625
-0.256396
-0.677969
-0.881302
-0.975652
-0.994921
-0.861358
-0.993852
-0.994697
-0.901631
-0.45554
-0.898896
-0.992258
-0.999868
-0.999733
-0.999597
-0.999769
-0.999872
-0.999977
-0.999988
-0.999984
-0.999971
-0.973817
-0.838659
-0.454017
-0.844671
-0.976134
-0.995591
-0.998584
-0.99635
-0.999702
-0.999389
-0.988596
-0.869771
-0.997689
-0.999995
-0.999989
-0.999947
-0.999921
-0.999942
-0.999951
-0.999985
-0.999996
-0.999998
-0.999995
-0.990407
-0.858493
-0.503829
-0.890873
-0.989561
-0.998902
-0.999829
-0.999885
-0.999974
-0.999994
-0.999973
-0.999944
-0.999993
-0.999999
-0.999998
-0.999991
-0.999987
-0.999989
-0.999992
-0.999993
-0.999999
-1
-0.999999
-0.994106
-0.834329
-0.492881
-0.721029
-0.991945
-0.999782
-0.999953
-0.99997
-0.999986
-0.999999
-1
-1
-1
-1
-1
-0.999999
-0.999999
-0.999999
-1
-1
-1
-1
-1
-0.999938
-0.996783
-0.912186
-0.989575
-0.999619
-0.999948
-0.999983
-0.999987
-0.999983
-1
-1
-1
-1
-1
-1
-1
-1
-1
-1
-1
-1
-1
-1
-0.999968
-0.999544
-0.996902
-0.999854
-0.999955
-0.99999
-0.999992
-0.999997
-0.999989
-1
-1
-1
-1
-1
-1
-1
-1
-1
-1
-1
-1
-1
-1
-0.999998
-0.999992
-0.999975
-0.999999
-1
-1
-0.999998
-0.999999
-0.999999
-1
-1
-1
-1
-1
-1
-1
-1
-1
-1
-1
-1
-1
-1
-1
-1
-1
-1
-1
-1
-1
-1
-1
-1
-1
-1
-1
-1
-1
-1
-1
-1
-1
-1
-1
-1
-1
-1
-1
-1
-1
-1
-1
-1
-1
-1
-1
-1
-1
-1
-1
-1
-1
-1
-1
-1
-1
-1
-1
-1
-1
-1
-1
-1
-1
-1
-1
-1
-1
-1
-1
-1
-1
-1
-1
-1
-1
-1
-1
-1
-1
-1
-1
-1
-1
-1
-1
-1
-1
-1
-1
-1
-1
-1
-1
-1
-1
-1
-1
-1
-1
-1
-1
-1
-1
-1
-1
-1
-1
-1
-1
-1
-1
-1
-1
-1
-1
-1
-1
-1
-1
-1
-1
-1
-1
-1
-1
-1
-1
-1
-1
-1
-1
-1
-1
-1
-1
-1
-1
-1
-1
-1
-1
-1
-1
-1
-1
-1
-1
-1
-1
-1
-1
-1
-1
-1
-1
-1
-1
-1
-1
-1
-1
-1
-1
-1
-1
-1
-1
-1
-1
-1
-1
-1
-1
-1
-1
-1
-1
-1
-1
-1
-1
-1
-1
-1
-1
-1
-1
-1
-1
-1
-1
-1
-1
-1
-1
-1
-1
-1
-1
-1
-1
-1
-1
-1
-1
-1
-1
-1
-1
-1
-1
-1
-1
-1
-1
-1
-1
-1
-1
-1
-1
-1
-1
-1
-1
-1
-1
-1
-1
-1
-1
-1
-1
-1
-1
-1
-1
-1
-1
-1
-1
-1
-1
-1
-1
-1
-1
-1
-1
-1
-1
-1
-1
-1
-1
-1
-1
-1
-1
-1
-1
-1
-1
-1
-1
-1
-1
-1
-1
-1
-1
-1
-1
-1
-1
-1
-1
-1
-1
-1
-1
-1
-1
-1
-1
-1
-1
-1
-1
-1
-1
-1
-1
-1
-1
-1
-1
-1
-1
-1
-1
-1
-1
-1
-1
-1
-1
-1
-1
-1
-1
-1
-1
-1
-1
-1
-1
-1
-1
-1
-1
-1
-1
-1
-1
-1
-1
-1
-1
-1
-1
-1
-1
-1
-1
-1
-1
-1
-1
-1
-1
-1
-1
-1
-1
-1
-1
-1
-1
-1
-1
-1
-1
-1
-1
-1
-1
-1
-1
-1
-1
-1
-1
-1
-1
-1
-1
-1
-1
-1
-1
-1
-1
-1
-1
-1
-1
-1
-1
-1
-1
-1
-1
-1
-1
-1
-1
-1
-1
-1
-1
-1
-1
-1
-1
-1
-1
-1
-1
-1
-1
-1
-1
-1
-1
-1
-1
-1
-1
-1
-1
-1
-1
-1
-1
-1
-1
-1
-1
-1
-1
-1
-1
-1
-1
-1
-1
-1
-1
-1
-1
-1
-1
-1
-1
-1
-1
-1
-1
-1
-1
-1
-1
-1
-1
-1
-1
-1
-1
-1
-1
-1
-1
-1
-1
-1
-1
-1
-1
-1
-1
-1
-1
-1
-1
-1
-1
-1
-1
-1
-1
-1
0.0424534
-0.103793
-0.206662
-0.233007
0.326302
0.202562
0.084454
0.0123309
0.472061
0.441748
0.406707
0.383804
0.0743762
0.0371551
0.0535508
0.0553422
-0.112573
-0.22442
-0.40082
-0.501191
-0.701071
-0.764832
-0.865751
-0.92605
-0.978013
-0.981635
-0.987999
-0.992779
-0.997119
-0.99764
-0.997899
-0.998059
-0.997571
-0.997479
-0.997358
-0.997101
-0.997363
-0.996282
-0.995794
-0.994948
-0.996074
-0.994979
-0.994465
-0.994024
-0.995747
-0.994825
-0.994333
-0.994128
-0.998121
-0.997254
-0.996675
-0.995666
-0.999325
-0.999096
-0.999033
-0.998786
-0.999823
-0.999759
-0.999739
-0.999724
-0.999973
-0.999956
-0.999929
-0.999909
-0.999994
-0.999991
-0.999987
-0.999984
-0.999999
-0.999998
-0.999998
-0.999997
-1
-1
-1
-1
-1
-1
-1
-1
-1
-1
-1
-1
-1
-1
-1
-1
-1
-1
-1
-1
-1
-1
-1
-1
-1
-1
-1
-1
-1
-1
-1
-1
-1
-1
-1
-1
-1
-1
-1
-1
-1
-1
-1
-1
-1
-1
-1
-1
-1
-1
-1
-1
-1
-1
-1
-1
-1
-1
-1
-1
-1
-1
-1
-1
-1
-1
-1
-1
-1
-1
-1
-1
-1
-1
-1
-1
-1
-1
-1
-1
-1
-1
-1
-1
-1
-1
-1
-1
-1
-1
-1
-1
-1
-1
-1
-1
-0.658753
-0.889161
-0.710193
-0.557302
-0.465876
-0.484708
-0.703822
-0.895348
-0.9668
-0.995468
-0.999693
-0.999987
-1
-1
-1
-1
-1
-1
-1
-0.169845
-0.39034
-0.361147
-0.25667
-0.232699
-0.27507
-0.384083
-0.593854
-0.835672
-0.961512
-0.994314
-0.999499
-0.999977
-0.999999
-1
-1
-1
-1
-1
0.331987
0.239238
0.195904
0.117275
-0.0650157
-0.441077
-0.755715
-0.905179
-0.967802
-0.990542
-0.997847
-0.999666
-0.999966
-0.999998
-1
-1
-1
-1
-1
0.0537512
0.0363009
-0.0353752
-0.178742
-0.414944
-0.675118
-0.827569
-0.914308
-0.962364
-0.986423
-0.996348
-0.999318
-0.999917
-0.999994
-1
-1
-1
-1
-1
-0.489807
-0.389519
-0.383673
-0.467213
-0.614968
-0.763391
-0.845959
-0.91306
-0.960234
-0.986028
-0.996487
-0.99941
-0.999934
-0.999995
-1
-1
-1
-1
-1
-0.929623
-0.891608
-0.769638
-0.78127
-0.814066
-0.855387
-0.888483
-0.915904
-0.950695
-0.981621
-0.995509
-0.999283
-0.999925
-0.999995
-1
-1
-1
-1
-1
-0.994067
-0.992984
-0.97703
-0.96028
-0.966042
-0.960504
-0.953176
-0.951274
-0.958378
-0.979505
-0.994391
-0.999041
-0.999899
-0.999993
-1
-1
-1
-1
-1
-0.998287
-0.998818
-0.999082
-0.997926
-0.995157
-0.991259
-0.979083
-0.969896
-0.971269
-0.982361
-0.994937
-0.999118
-0.99991
-0.999994
-1
-1
-1
-1
-1
-0.996951
-0.997102
-0.997526
-0.998326
-0.997901
-0.994108
-0.982615
-0.979197
-0.98183
-0.989286
-0.996684
-0.999435
-0.999947
-0.999997
-1
-1
-1
-1
-1
-0.994996
-0.995608
-0.997267
-0.998375
-0.998379
-0.997247
-0.990989
-0.984769
-0.987219
-0.994132
-0.998504
-0.999797
-0.999984
-0.999999
-1
-1
-1
-1
-1
-0.994308
-0.996638
-0.997936
-0.998078
-0.997402
-0.994511
-0.988397
-0.986468
-0.990126
-0.996971
-0.999479
-0.999948
-0.999997
-1
-1
-1
-1
-1
-1
-0.99407
-0.995333
-0.994751
-0.992689
-0.990516
-0.98974
-0.98868
-0.990756
-0.996042
-0.999138
-0.999873
-0.99999
-0.999999
-1
-1
-1
-1
-1
-1
-0.99469
-0.994247
-0.994133
-0.994043
-0.993272
-0.992843
-0.99389
-0.996899
-0.998953
-0.999788
-0.999974
-0.999998
-1
-1
-1
-1
-1
-1
-1
-0.998473
-0.998197
-0.998604
-0.998461
-0.997988
-0.997591
-0.998288
-0.999236
-0.999762
-0.999956
-0.999996
-1
-1
-1
-1
-1
-1
-1
-1
-0.999731
-0.999756
-0.999768
-0.999658
-0.999563
-0.999473
-0.99968
-0.999867
-0.999961
-0.999993
-0.999999
-1
-1
-1
-1
-1
-1
-1
-1
-0.999903
-0.999917
-0.999952
-0.999936
-0.999915
-0.999904
-0.999944
-0.999979
-0.999994
-0.999999
-1
-1
-1
-1
-1
-1
-1
-1
-1
-0.999982
-0.999985
-0.999991
-0.999988
-0.999984
-0.999986
-0.999992
-0.999997
-0.999999
-1
-1
-1
-1
-1
-1
-1
-1
-1
-1
-0.999997
-0.999998
-0.999999
-0.999998
-0.999998
-0.999998
-0.999999
-1
-1
-1
-1
-1
-1
-1
-1
-1
-1
-1
-1
-1
-1
-1
-1
-1
-1
-1
-1
-1
-1
-1
-1
-1
-1
-1
-1
-1
-1
-1
-1
-1
-1
-1
-1
-1
-1
-1
-1
-1
-1
-1
-1
-1
-1
-1
-1
-1
-1
-1
-1
-1
-1
-1
-1
-1
-1
-1
-1
-1
-1
-1
-1
-1
-1
-1
-1
-1
-1
-1
-1
-1
-1
-1
-1
-1
-1
-1
-1
-1
-1
-1
-1
-1
-1
-1
-1
-1
-1
-1
-1
-1
-1
-1
-1
-1
-1
-1
-1
-1
-1
-1
-1
-1
-1
-1
-1
-1
-1
-1
-1
-1
-1
-1
-1
-1
-1
-1
-1
-1
-1
-1
-1
-1
-1
-1
-1
-1
-1
-1
-1
-1
-1
-1
-1
-1
-1
-1
-1
-1
-1
-1
-1
-1
-1
-1
-1
-1
-1
-1
-1
-1
-1
-1
-1
-1
-1
-1
-1
-1
-1
-1
-1
-1
-1
-1
-1
-1
-1
-1
-1
-1
-1
-1
-1
-1
-1
-1
-1
-1
-1
-1
-1
-1
-1
-1
-1
-1
-1
-1
-1
-1
-1
-1
-1
-1
-1
-1
-1
-1
-1
-1
-1
-1
-1
-1
-1
-1
-1
-1
-1
-1
-1
-1
-1
-1
-1
-1
-1
-1
-1
-1
-1
-1
-1
-1
-1
-1
-1
-1
-1
-1
-1
-1
-1
-1
-1
-1
-1
-1
-1
-1
-1
-1
-1
-1
-1
-1
-1
-1
-1
-1
-1
-1
-1
-1
-1
-1
-1
-1
-1
-1
-1
-1
-1
-1
-1
-1
-1
-1
-1
-1
-1
-1
-1
-1
-1
-1
-1
-1
-1
-1
-1
-1
-1
-1
-1
-1
-1
-1
-1
-1
-1
-1
-1
-1
-1
-1
-1
-1
-1
-1
-1
-1
-1
-1
-1
-1
-1
-1
-1
-1
-1
-1
-1
-1
-1
-1
-1
-1
-1
-1
-1
-1
-1
-1
-1
-1
-1
-1
-1
-1
-1
-1
-1
-1
-1
-1
-1
-1
-1
-1
-1
-1
-1
-1
-1
-1
-1
-1
-1
-1
-1
-1
-1
-1
-1
-1
-1
-1
-1
-1
-1
-1
-1
-1
-1
-1
-1
-1
-1
-1
-1
-1
-1
-1
-1
-1
-1
-1
-1
-1
-1
-1
-1
-1
-1
-1
-1
-1
-1
-1
-1
-1
-1
-1
-1
-1
-1
-1
-1
-1
-1
-1
-1
-1
-1
-1
-1
-1
-1
-1
-1
-1
-1
-1
-1
-1
-1
-1
-1
-1
-1
-1
-1
-1
-1
-1
-1
-1
-1
-1
-1
-1
-1
-1
-1
-1
-1
-1
-1
-1
-1
-1
-1
-1
-1
-1
-1
-1
-1
-1
-1
-1
-1
-1
-1
-1
-1
-1
-1
-1
-1
-1
-1
-1
-1
)
;

boundaryField
{
    leftWall
    {
        type            zeroGradient;
    }
    rightWall
    {
        type            zeroGradient;
    }
    lowerWall
    {
        type            zeroGradient;
    }
    atmosphere
    {
        type            zeroGradient;
    }
    defaultFaces
    {
        type            empty;
    }
}


// ************************************************************************* //
