/*--------------------------------*- C++ -*----------------------------------*\
| =========                 |                                                 |
| \\      /  F ield         | foam-extend: Open Source CFD                    |
|  \\    /   O peration     | Version:     4.1                                |
|   \\  /    A nd           | Web:         http://www.foam-extend.org         |
|    \\/     M anipulation  |                                                 |
\*---------------------------------------------------------------------------*/
FoamFile
{
    version     2.0;
    format      ascii;
    class       volScalarField;
    location    "0.25";
    object      C_0;
}
// * * * * * * * * * * * * * * * * * * * * * * * * * * * * * * * * * * * * * //

dimensions      [0 0 0 0 0 0 0];

internalField   nonuniform List<scalar> 
2268
(
1
1
1
1
1
1
1
1
1
1
1
0.99989
0.999508
0.998645
0.99692
0.99231
0.976839
0.958639
0.971356
0.980148
0.979759
0.716896
-0.516149
1
1
1
1
1
1
1
1
1
1
1
0.999135
0.992264
0.971441
0.976196
0.969955
0.897782
0.512967
0.553177
0.680063
0.918239
0.861326
0.747944
1
1
1
1
1
1
1
1
1
1
1
0.996542
0.907658
0.848714
0.866518
0.827972
0.496449
0.159486
0.276962
0.403559
0.720276
0.859642
0.746556
1
1
1
1
1
1
1
1
1
1
0.999999
0.991788
0.38754
0.491572
0.419022
0.0521996
0.0240037
0.103332
0.342434
0.657299
0.759752
0.862033
0.734313
1
1
1
1
1
1
1
1
1
1
0.999999
0.999971
0.990679
0.979197
0.86843
0.702048
0.575269
0.402886
0.419493
0.496969
0.542628
0.811574
0.6897
1
1
1
1
1
1
1
1
1
0.999998
0.999993
0.999982
0.999148
0.992575
0.952884
0.90898
0.758244
0.501459
0.540178
0.510233
0.0468719
0.690723
0.621822
1
1
1
1
1
1
1
1
0.999998
0.999986
0.999964
0.999921
0.998617
0.986009
0.888196
0.786816
0.668495
0.413096
0.417345
0.5187
0.194931
0.218177
0.516102
1
1
1
1
1
1
1
0.999999
0.999986
0.999923
0.9998
0.999753
0.999166
0.996408
0.894643
0.50026
0.464092
0.369585
0.195405
0.401137
0.279575
0.0553717
0.27985
-1
-1
-1
-1
-1
-1
-1
-1
-1
-1
-1
-1
-1
-1
-1
-1
-1
-1
-1
-1
-1
-0.999999
-0.999998
-1
-1
-1
-1
-1
-1
-1
-1
-1
-1
-1
-1
-1
-1
-1
-0.999999
-0.999993
-0.999973
-0.99996
-0.999998
-0.999994
-1
-1
-1
-1
-1
-1
-1
-1
-1
-1
-1
-1
-1
-0.999993
-0.999913
-0.999706
-0.999606
-0.999951
-0.999886
-0.999994
-0.999999
-1
-1
-1
-1
-1
-1
-1
-1
-1
-1
-1
-0.999969
-0.999482
-0.998125
-0.997583
-0.999335
-0.99864
-0.999894
-0.999983
-0.999998
-1
-1
-1
-1
-1
-1
-1
-1
-1
-1
-0.999923
-0.998852
-0.992474
-0.988512
-0.993524
-0.989616
-0.998775
-0.999784
-0.999974
-0.999998
-1
-1
-1
-1
-1
-1
-1
-1
-1
-0.999673
-0.998139
-0.979077
-0.953529
-0.953984
-0.945079
-0.988995
-0.99816
-0.999733
-0.999983
-0.999999
-1
-1
-1
-1
-1
-1
-1
-1
-0.975434
-0.993649
-0.944289
-0.844868
-0.787298
-0.797939
-0.945684
-0.988262
-0.997586
-0.999793
-0.999991
-1
-1
-1
-1
-1
-1
-1
-1
1
1
1
1
1
1
1
0.999988
0.999885
0.999472
0.998534
0.998575
0.997758
0.996204
0.962324
0.736204
0.486348
0.366558
0.339387
0.434581
0.475536
0.386739
0.187332
1
1
1
1
1
1
0.999999
0.999872
0.998981
0.995889
0.988358
0.986601
0.982732
0.970431
0.967524
0.955489
0.865104
0.687679
0.739299
0.768102
0.787466
0.73904
0.51579
0.999998
0.999999
1
1
1
0.999998
0.999992
0.999143
0.994045
0.978264
0.926062
0.931475
0.918495
0.874157
0.861104
0.831369
0.788847
0.733836
0.684634
0.539257
0.518807
0.536055
0.50986
0.999969
0.999986
0.999997
0.999998
0.999998
0.999985
0.999936
0.995208
0.970319
0.899781
0.740496
0.702148
0.713651
0.587888
0.581553
0.466133
0.408439
0.396248
0.357588
0.263699
0.133858
0.0281752
0.0843361
0.999699
0.999881
0.999974
0.999991
0.999978
0.999904
0.999568
0.976188
0.863087
0.662062
-0.00551692
0.310886
0.183047
0.0744028
-0.073892
-0.0625752
-0.041607
0.0243646
0.152934
0.185307
0.171619
0.114241
-0.0135185
0.997938
0.999286
0.999879
0.999952
0.999852
0.999266
0.997378
0.90003
0.382308
-0.0150569
-0.491672
0.104338
-0.422579
-0.567849
-0.717023
-0.685209
-0.610642
-0.404853
-0.136233
-0.165187
-0.327729
-0.460365
-0.64445
0.988648
0.996322
0.99946
0.999734
0.999222
0.995689
0.98726
0.649584
-0.363708
-0.617261
-0.600618
-0.0310309
-0.604546
-0.820946
-0.904616
-0.87642
-0.766103
-0.715445
-0.645093
-0.681442
-0.839069
-0.924083
-0.974771
0.947431
0.983458
0.997721
0.998546
0.996548
0.980346
0.949711
0.539417
-0.498451
-0.817135
-0.700831
-0.232115
-0.675928
-0.894684
-0.962923
-0.938801
-0.935988
-0.926025
-0.917166
-0.930972
-0.971283
-0.990938
-0.9962
0.789847
0.932451
0.989882
0.992669
0.986612
0.94214
0.778488
0.221333
-0.439847
-0.878517
-0.844328
-0.552843
-0.83188
-0.961172
-0.990868
-0.985107
-0.986982
-0.982821
-0.985092
-0.991783
-0.993569
-0.995942
-0.997376
0.307436
0.757748
0.954737
0.965515
0.959894
0.837822
0.422284
-0.163345
-0.636439
-0.932095
-0.897943
-0.72223
-0.895655
-0.99539
-0.998314
-0.997916
-0.998271
-0.99669
-0.996481
-0.996505
-0.997676
-0.998619
-0.997963
-0.388764
0.307682
0.827221
0.84604
0.90417
0.756511
0.219352
0.0339528
-0.166012
-0.600189
-0.873834
-0.779588
-0.889916
-0.996689
-0.99883
-0.99921
-0.999251
-0.999036
-0.998415
-0.996493
-0.998053
-0.998771
-0.997639
-0.715351
-0.310846
0.504153
0.473717
0.729872
0.815068
0.671003
0.587725
0.381842
-0.179312
-0.705789
-0.779329
-0.886557
-0.997333
-0.998613
-0.998909
-0.998899
-0.999194
-0.998417
-0.995613
-0.998619
-0.999183
-0.997601
-0.799557
-0.489084
0.32782
-0.210928
0.296301
0.359577
0.618431
0.550336
0.267047
-0.330385
-0.675997
-0.795381
-0.954045
-0.991318
-0.99852
-0.998626
-0.998212
-0.998612
-0.997212
-0.995868
-0.999617
-0.999552
-0.99902
-0.817962
-0.447771
0.307033
-0.464648
-0.0405451
-0.369602
-0.107983
-0.143808
-0.537646
-0.874422
-0.764404
-0.776369
-0.923836
-0.989665
-0.998601
-0.998592
-0.998024
-0.997924
-0.997799
-0.998927
-0.999849
-0.999799
-0.999606
-0.832265
-0.450424
0.170626
-0.506888
-0.567132
-0.818373
-0.872117
-0.661471
-0.897427
-0.97466
-0.606741
-0.435571
-0.634635
-0.951364
-0.997574
-0.998993
-0.998667
-0.99913
-0.999587
-0.999911
-0.999967
-0.999942
-0.999876
-0.863222
-0.570482
-0.234293
-0.66148
-0.865612
-0.97105
-0.994115
-0.852043
-0.993198
-0.995296
-0.905803
-0.459483
-0.904236
-0.993016
-0.999879
-0.999723
-0.999579
-0.999753
-0.999862
-0.999976
-0.999988
-0.999984
-0.99997
-0.971946
-0.834134
-0.443672
-0.835136
-0.973012
-0.994756
-0.998372
-0.995977
-0.999675
-0.999448
-0.989616
-0.8791
-0.998544
-0.999995
-0.999989
-0.999946
-0.999918
-0.999939
-0.999948
-0.999984
-0.999996
-0.999998
-0.999994
-0.99003
-0.858019
-0.497296
-0.884546
-0.988619
-0.998726
-0.9998
-0.999871
-0.999972
-0.999994
-0.999974
-0.999942
-0.999995
-0.999999
-0.999998
-0.999991
-0.999986
-0.999989
-0.999991
-0.999993
-0.999999
-1
-0.999999
-0.99359
-0.829577
-0.483276
-0.714487
-0.991109
-0.999752
-0.999948
-0.999968
-0.999985
-0.999999
-1
-1
-0.999999
-1
-1
-0.999999
-0.999999
-0.999999
-1
-1
-1
-1
-1
-0.999937
-0.996652
-0.908017
-0.989143
-0.999572
-0.999942
-0.999982
-0.999986
-0.999982
-1
-1
-1
-1
-1
-1
-1
-1
-1
-1
-1
-1
-1
-1
-0.999967
-0.999511
-0.99672
-0.999845
-0.99995
-0.999989
-0.999992
-0.999997
-0.999988
-1
-1
-1
-1
-1
-1
-1
-1
-1
-1
-1
-1
-1
-1
-0.999998
-0.999991
-0.999973
-0.999999
-0.999999
-1
-0.999998
-0.999999
-0.999999
-1
-1
-1
-1
-1
-1
-1
-1
-1
-1
-1
-1
-1
-1
-1
-1
-1
-1
-1
-1
-1
-1
-1
-1
-1
-1
-1
-1
-1
-1
-1
-1
-1
-1
-1
-1
-1
-1
-1
-1
-1
-1
-1
-1
-1
-1
-1
-1
-1
-1
-1
-1
-1
-1
-1
-1
-1
-1
-1
-1
-1
-1
-1
-1
-1
-1
-1
-1
-1
-1
-1
-1
-1
-1
-1
-1
-1
-1
-1
-1
-1
-1
-1
-1
-1
-1
-1
-1
-1
-1
-1
-1
-1
-1
-1
-1
-1
-1
-1
-1
-1
-1
-1
-1
-1
-1
-1
-1
-1
-1
-1
-1
-1
-1
-1
-1
-1
-1
-1
-1
-1
-1
-1
-1
-1
-1
-1
-1
-1
-1
-1
-1
-1
-1
-1
-1
-1
-1
-1
-1
-1
-1
-1
-1
-1
-1
-1
-1
-1
-1
-1
-1
-1
-1
-1
-1
-1
-1
-1
-1
-1
-1
-1
-1
-1
-1
-1
-1
-1
-1
-1
-1
-1
-1
-1
-1
-1
-1
-1
-1
-1
-1
-1
-1
-1
-1
-1
-1
-1
-1
-1
-1
-1
-1
-1
-1
-1
-1
-1
-1
-1
-1
-1
-1
-1
-1
-1
-1
-1
-1
-1
-1
-1
-1
-1
-1
-1
-1
-1
-1
-1
-1
-1
-1
-1
-1
-1
-1
-1
-1
-1
-1
-1
-1
-1
-1
-1
-1
-1
-1
-1
-1
-1
-1
-1
-1
-1
-1
-1
-1
-1
-1
-1
-1
-1
-1
-1
-1
-1
-1
-1
-1
-1
-1
-1
-1
-1
-1
-1
-1
-1
-1
-1
-1
-1
-1
-1
-1
-1
-1
-1
-1
-1
-1
-1
-1
-1
-1
-1
-1
-1
-1
-1
-1
-1
-1
-1
-1
-1
-1
-1
-1
-1
-1
-1
-1
-1
-1
-1
-1
-1
-1
-1
-1
-1
-1
-1
-1
-1
-1
-1
-1
-1
-1
-1
-1
-1
-1
-1
-1
-1
-1
-1
-1
-1
-1
-1
-1
-1
-1
-1
-1
-1
-1
-1
-1
-1
-1
-1
-1
-1
-1
-1
-1
-1
-1
-1
-1
-1
-1
-1
-1
-1
-1
-1
-1
-1
-1
-1
-1
-1
-1
-1
-1
-1
-1
-1
-1
-1
-1
-1
-1
-1
-1
-1
-1
-1
-1
-1
-1
-1
-1
-1
-1
-1
-1
-1
-1
-1
-1
-1
-1
-1
-1
-1
-1
-1
-1
-1
-1
-1
-1
-1
-1
-1
-1
-1
-1
-1
-1
-1
-1
-1
-1
-1
-1
-1
-1
-1
-1
-1
-1
-1
-1
-1
-1
-1
-1
-1
-1
-1
-1
-1
-1
-1
-1
-1
-1
-1
-1
-1
-1
-1
-1
-1
-1
-1
-1
-1
-1
-1
-1
-1
-1
-1
-1
-1
-1
-1
-1
-1
-1
-1
-1
0.0085176
-0.125645
-0.214088
-0.235174
0.317548
0.196583
0.0772012
0.00531293
0.467463
0.43847
0.402286
0.377871
0.0601809
0.0267138
0.0458231
0.0478765
-0.144891
-0.261213
-0.435367
-0.513079
-0.725595
-0.790395
-0.883124
-0.929913
-0.980353
-0.983805
-0.989245
-0.993145
-0.997292
-0.997761
-0.997987
-0.998132
-0.997584
-0.997481
-0.997366
-0.997117
-0.997348
-0.996266
-0.995792
-0.994968
-0.996045
-0.994948
-0.994446
-0.994009
-0.99569
-0.994758
-0.99426
-0.994053
-0.998058
-0.997169
-0.996571
-0.995556
-0.999307
-0.999061
-0.998982
-0.998711
-0.999817
-0.999748
-0.999723
-0.999707
-0.999972
-0.999955
-0.999927
-0.999905
-0.999994
-0.999991
-0.999986
-0.999983
-0.999999
-0.999998
-0.999998
-0.999997
-1
-1
-1
-1
-1
-1
-1
-1
-1
-1
-1
-1
-1
-1
-1
-1
-1
-1
-1
-1
-1
-1
-1
-1
-1
-1
-1
-1
-1
-1
-1
-1
-1
-1
-1
-1
-1
-1
-1
-1
-1
-1
-1
-1
-1
-1
-1
-1
-1
-1
-1
-1
-1
-1
-1
-1
-1
-1
-1
-1
-1
-1
-1
-1
-1
-1
-1
-1
-1
-1
-1
-1
-1
-1
-1
-1
-1
-1
-1
-1
-1
-1
-1
-1
-1
-1
-1
-1
-1
-1
-1
-1
-1
-1
-1
-1
-0.644741
-0.879862
-0.691937
-0.547085
-0.472003
-0.509615
-0.741415
-0.913858
-0.973883
-0.996868
-0.999811
-0.999992
-1
-1
-1
-1
-1
-1
-1
-0.178
-0.393256
-0.35165
-0.250005
-0.237015
-0.286
-0.410274
-0.635529
-0.86438
-0.970674
-0.996184
-0.999713
-0.999988
-1
-1
-1
-1
-1
-1
0.322892
0.228966
0.183111
0.100992
-0.0947397
-0.474433
-0.771984
-0.912399
-0.970376
-0.991327
-0.998063
-0.999711
-0.999972
-0.999998
-1
-1
-1
-1
-1
0.0456275
0.022748
-0.0547558
-0.201108
-0.437962
-0.690564
-0.836436
-0.919326
-0.965034
-0.987649
-0.996754
-0.999409
-0.999932
-0.999995
-1
-1
-1
-1
-1
-0.496539
-0.404004
-0.40118
-0.48225
-0.627313
-0.771028
-0.852285
-0.917927
-0.963155
-0.98737
-0.996929
-0.999506
-0.999947
-0.999996
-1
-1
-1
-1
-1
-0.93
-0.893762
-0.775796
-0.786473
-0.81994
-0.859822
-0.890854
-0.91869
-0.953992
-0.983411
-0.996093
-0.999398
-0.999939
-0.999996
-1
-1
-1
-1
-1
-0.994068
-0.993017
-0.976469
-0.960881
-0.966606
-0.960837
-0.952333
-0.951139
-0.959774
-0.98146
-0.995097
-0.99919
-0.999918
-0.999995
-1
-1
-1
-1
-1
-0.998359
-0.998899
-0.9991
-0.99789
-0.995189
-0.990795
-0.977644
-0.969597
-0.971752
-0.983848
-0.995595
-0.999264
-0.999928
-0.999996
-1
-1
-1
-1
-1
-0.997015
-0.997167
-0.997631
-0.998383
-0.997889
-0.993486
-0.981688
-0.979221
-0.982325
-0.990223
-0.997144
-0.999541
-0.999959
-0.999998
-1
-1
-1
-1
-1
-0.995059
-0.995734
-0.997462
-0.998455
-0.99838
-0.996934
-0.989923
-0.984608
-0.987624
-0.994753
-0.99875
-0.999841
-0.999988
-0.999999
-1
-1
-1
-1
-1
-0.994352
-0.996773
-0.997994
-0.998044
-0.99718
-0.993794
-0.98775
-0.986562
-0.990905
-0.997471
-0.999587
-0.99996
-0.999997
-1
-1
-1
-1
-1
-1
-0.994017
-0.99535
-0.994635
-0.992429
-0.990427
-0.989667
-0.988728
-0.991394
-0.996643
-0.999293
-0.999902
-0.999992
-1
-1
-1
-1
-1
-1
-1
-0.994582
-0.994138
-0.994034
-0.994021
-0.993326
-0.992996
-0.994361
-0.997281
-0.999123
-0.999829
-0.999981
-0.999999
-1
-1
-1
-1
-1
-1
-1
-0.998364
-0.998048
-0.998543
-0.998453
-0.998042
-0.997738
-0.998447
-0.999341
-0.999803
-0.999965
-0.999997
-1
-1
-1
-1
-1
-1
-1
-1
-0.999712
-0.999743
-0.999764
-0.999665
-0.999582
-0.999512
-0.999713
-0.999887
-0.999968
-0.999995
-1
-1
-1
-1
-1
-1
-1
-1
-1
-0.999898
-0.999911
-0.999951
-0.999937
-0.999918
-0.999912
-0.99995
-0.999983
-0.999995
-0.999999
-1
-1
-1
-1
-1
-1
-1
-1
-1
-0.999981
-0.999984
-0.999991
-0.999988
-0.999985
-0.999987
-0.999993
-0.999998
-0.999999
-1
-1
-1
-1
-1
-1
-1
-1
-1
-1
-0.999997
-0.999997
-0.999999
-0.999998
-0.999998
-0.999998
-0.999999
-1
-1
-1
-1
-1
-1
-1
-1
-1
-1
-1
-1
-0.999999
-1
-1
-1
-1
-1
-1
-1
-1
-1
-1
-1
-1
-1
-1
-1
-1
-1
-1
-1
-1
-1
-1
-1
-1
-1
-1
-1
-1
-1
-1
-1
-1
-1
-1
-1
-1
-1
-1
-1
-1
-1
-1
-1
-1
-1
-1
-1
-1
-1
-1
-1
-1
-1
-1
-1
-1
-1
-1
-1
-1
-1
-1
-1
-1
-1
-1
-1
-1
-1
-1
-1
-1
-1
-1
-1
-1
-1
-1
-1
-1
-1
-1
-1
-1
-1
-1
-1
-1
-1
-1
-1
-1
-1
-1
-1
-1
-1
-1
-1
-1
-1
-1
-1
-1
-1
-1
-1
-1
-1
-1
-1
-1
-1
-1
-1
-1
-1
-1
-1
-1
-1
-1
-1
-1
-1
-1
-1
-1
-1
-1
-1
-1
-1
-1
-1
-1
-1
-1
-1
-1
-1
-1
-1
-1
-1
-1
-1
-1
-1
-1
-1
-1
-1
-1
-1
-1
-1
-1
-1
-1
-1
-1
-1
-1
-1
-1
-1
-1
-1
-1
-1
-1
-1
-1
-1
-1
-1
-1
-1
-1
-1
-1
-1
-1
-1
-1
-1
-1
-1
-1
-1
-1
-1
-1
-1
-1
-1
-1
-1
-1
-1
-1
-1
-1
-1
-1
-1
-1
-1
-1
-1
-1
-1
-1
-1
-1
-1
-1
-1
-1
-1
-1
-1
-1
-1
-1
-1
-1
-1
-1
-1
-1
-1
-1
-1
-1
-1
-1
-1
-1
-1
-1
-1
-1
-1
-1
-1
-1
-1
-1
-1
-1
-1
-1
-1
-1
-1
-1
-1
-1
-1
-1
-1
-1
-1
-1
-1
-1
-1
-1
-1
-1
-1
-1
-1
-1
-1
-1
-1
-1
-1
-1
-1
-1
-1
-1
-1
-1
-1
-1
-1
-1
-1
-1
-1
-1
-1
-1
-1
-1
-1
-1
-1
-1
-1
-1
-1
-1
-1
-1
-1
-1
-1
-1
-1
-1
-1
-1
-1
-1
-1
-1
-1
-1
-1
-1
-1
-1
-1
-1
-1
-1
-1
-1
-1
-1
-1
-1
-1
-1
-1
-1
-1
-1
-1
-1
-1
-1
-1
-1
-1
-1
-1
-1
-1
-1
-1
-1
-1
-1
-1
-1
-1
-1
-1
-1
-1
-1
-1
-1
-1
-1
-1
-1
-1
-1
-1
-1
-1
-1
-1
-1
-1
-1
-1
-1
-1
-1
-1
-1
-1
-1
-1
-1
-1
-1
-1
-1
-1
-1
-1
-1
-1
-1
-1
-1
-1
-1
-1
-1
-1
-1
-1
-1
-1
-1
-1
-1
-1
-1
-1
-1
-1
-1
-1
-1
-1
-1
-1
-1
-1
-1
-1
-1
-1
-1
-1
-1
-1
-1
-1
-1
-1
-1
-1
-1
-1
-1
-1
-1
-1
-1
-1
-1
-1
)
;

boundaryField
{
    leftWall
    {
        type            zeroGradient;
    }
    rightWall
    {
        type            zeroGradient;
    }
    lowerWall
    {
        type            zeroGradient;
    }
    atmosphere
    {
        type            zeroGradient;
    }
    defaultFaces
    {
        type            empty;
    }
}


// ************************************************************************* //
