/*--------------------------------*- C++ -*----------------------------------*\
| =========                 |                                                 |
| \\      /  F ield         | foam-extend: Open Source CFD                    |
|  \\    /   O peration     | Version:     4.1                                |
|   \\  /    A nd           | Web:         http://www.foam-extend.org         |
|    \\/     M anipulation  |                                                 |
\*---------------------------------------------------------------------------*/
FoamFile
{
    version     2.0;
    format      ascii;
    class       volScalarField;
    location    "0.25";
    object      p;
}
// * * * * * * * * * * * * * * * * * * * * * * * * * * * * * * * * * * * * * //

dimensions      [1 -1 -2 0 0 0 0];

internalField   nonuniform List<scalar> 
2268
(
1901.63
1904.29
1893.25
1893.47
1857.52
1844.15
1781.24
1784.7
1702.75
1594.16
1774.59
1689.77
1502.39
1539.97
1606.08
1394.03
1304.14
1396.32
1486.82
1122.72
1941.69
2344.79
2156.89
1842.99
1845.27
1834.48
1834.58
1798.89
1783.05
1721.04
1725.15
1638.89
1517.19
1674.74
1637.33
1412.29
1444.32
1408.54
1530.01
1219.12
2069.24
2130.08
1707.39
1633.8
1903.28
2335.34
1782.32
1785.87
1775.08
1775.53
1739.82
1727.22
1668.05
1659.58
1576.63
1520.86
1518.49
1580.59
1380.38
1454.12
1402.53
1604.02
2021.69
2753.19
2673.16
2205.62
1828.31
1745.95
2172.87
1725.65
1726.52
1716.5
1716.66
1681.68
1659.9
1611.08
1606.92
1504.6
1483.2
1492.76
1501.33
2311.59
2043.45
2239.39
2615.63
2628.1
2739.74
2435.99
1437.52
1422.4
1387.26
1996.58
1659.93
1665.7
1656.75
1657.16
1622.49
1598.86
1540.35
1557.48
1450.66
1445.91
1359.23
1455.27
1330.72
1328
1346.76
1546.41
1732.8
2271.43
2257.35
1840.67
1762.79
1417.93
1886.91
1610.39
1607.16
1598.2
1599.22
1562.63
1539.34
1467.49
1490.03
1342.76
1413.43
1306.85
1336.67
1298
1297.68
817.058
990.787
1321.15
2056.82
1915.5
1834.75
2573.26
1592.98
1797.63
1545.93
1545.2
1538.11
1538.63
1504.41
1479.83
1433
1464.34
1251.49
1358.48
1315.02
1199.96
1251.24
1199.82
900.399
906.518
1507.36
2240.03
2194.86
1847.17
2485.51
2501.6
1823.51
1487.68
1491.24
1479.55
1485.95
1443.84
1418.36
1329.35
1376.86
1240.33
1269.67
1217.47
1232.82
1041.6
1088.49
896.017
1745.91
1998.33
2319.71
2571.68
2092.7
2325.84
2722.69
2165.13
0.0190063
-0.0167343
-0.0971973
-0.122906
0.178062
0.956555
1.73433
2.53073
2.92815
3.21518
3.31152
3.29478
3.1551
2.98482
2.92012
2.82455
2.75638
2.70698
2.6838
-0.0384689
-0.0992107
-0.209865
-0.246704
0.0181244
0.834273
1.67474
2.5381
2.90457
3.19322
3.27943
3.22846
3.05737
2.94068
2.8601
2.76242
2.69415
2.6446
2.62139
-0.118361
-0.206947
-0.354616
-0.442879
-0.269665
0.709313
1.6232
2.60471
2.96062
3.21953
3.29293
3.1683
3.00975
2.89224
2.79706
2.69742
2.62817
2.57825
2.5549
-0.172766
-0.312516
-0.584098
-0.792169
-0.792212
0.293115
1.48959
2.70385
3.05617
3.25086
3.25438
3.12565
2.96904
2.83567
2.73151
2.62826
2.55824
2.50799
2.48454
-0.225922
-0.495278
-0.907959
-1.3843
-1.80732
-0.215968
1.52321
2.87709
3.22459
3.39726
3.23538
3.10747
2.93097
2.77716
2.66331
2.55601
2.48439
2.43368
2.41009
-0.232107
-0.637583
-1.17335
-1.7419
-3.24721
-0.281046
1.51558
3.27921
3.57595
3.42826
3.23594
3.08839
2.88294
2.71286
2.59012
2.47947
2.40635
2.35537
2.33171
-0.377538
-0.716065
1.13897
7.76921
10.4771
27.2781
2.52014
3.39317
3.72773
3.45228
3.23715
3.06559
2.83865
2.64911
2.51335
2.39867
2.32396
2.27282
2.24917
4.3626
-4.16784
13.8783
119.284
228.301
274.074
38.7626
5.33396
3.89044
3.43922
3.28302
3.03474
2.78472
2.57821
2.43009
2.31264
2.2369
2.18599
2.16251
1397.39
1389.82
1384.41
1381.97
1313.59
1304.76
1255.65
1252.6
1160.34
1129.34
1098.53
1076.8
1049.72
1052
696.798
827.401
1918.67
2228.71
2248.14
1908.67
1840.48
2134.92
1855.86
1259.17
1273.78
1254.35
1237.44
1255.85
1192.73
1140.14
1115.1
1020.45
942.415
988.405
760.348
981.517
838.549
560.788
686.823
937.231
1255.7
987.696
966.04
895.509
579.578
849.214
1121.79
1117.04
1137.17
1148.47
1063.91
1034.32
969.057
937.747
833.94
813.258
682.733
656.004
756.489
644.417
523.459
608.911
793.745
930.088
962.213
1317.98
899.686
661.832
824.728
985.951
978.016
964.824
1019.32
1031.17
1024.46
1030.05
908.322
719.364
506.051
971.715
826.456
906.5
1006.27
929.535
1137.66
1589.22
1478.58
1609.9
1475.31
1436.43
1472.66
1309.44
818.943
808.114
772.568
681.343
667.289
683.46
549.186
585.379
665.419
1030.53
1885.34
1590.31
1811.71
1745.74
1467.69
1603.24
1753.49
1765
1632.02
1422.62
1424.38
1533.3
1589.5
683.004
677.857
648.387
664.996
608.757
576.564
520.547
451.35
1424.04
1714.86
1132.85
1790.97
1276.24
847.787
428.637
527.934
736.594
1135.6
1535.37
1640.76
1292.25
994.287
594.154
549.377
543.331
528.424
525.844
465.113
387.559
446.841
1005.48
1263.95
729.735
831.12
1774.11
815.923
244.412
81.2714
113.95
288.727
379.453
590.685
544.324
188.681
54.1608
9.01677
448.398
417.516
435.809
394.188
326.257
488.744
291.732
917.245
1007.82
274.325
472.554
1495.04
526.302
84.7751
18.2484
33.1946
29.6852
33.4341
50.5876
41.5082
11.2205
1.25572
0.00935208
600.068
347.523
329.006
267.938
409.717
119.126
434.098
1572.17
1128.31
143
162.334
761.609
153.286
9.61781
2.14946
2.55261
1.43275
1.85397
2.63829
2.67588
2.47427
1.80111
0.774751
1529.21
552.043
239.978
312.25
325.482
331.578
1192.89
1573.51
631.67
62.2127
80.0835
356.257
69.1902
0.837754
1.07373
0.572211
0.102196
0.174613
0.286912
0.877858
1.07886
1.1906
0.359448
1210.68
1493.66
318.098
196.039
73.6596
446.191
1473.06
1611.57
1541.04
793.391
119.255
257.754
84.0725
0.85547
0.472684
0.131687
-0.216564
0.0536243
-0.0960672
0.140396
0.182851
0.361498
0.0121048
405.133
1278.7
1008.19
1144.47
297.693
74.579
463.201
651.819
1098.69
1516.51
503.396
276.083
82.9526
-0.136963
-0.172526
-0.221541
-1.10537
-0.836944
-0.397495
-0.380504
-0.662224
-0.457036
-0.861093
253.077
1024.49
1215.38
1519.58
1312.14
1267.59
614.859
844.126
1328.25
1107.63
458.897
221.434
6.78091
-1.12101
-1.21817
-1.1138
-1.34644
-1.04256
-0.958198
-1.19197
-1.25194
-1.20482
-1.51341
210.802
1112.99
1399.67
1061.48
1637.57
916.859
1169.62
1346.27
702.025
28.285
189.9
236.982
17.2404
-3.52717
-2.03463
-1.56225
-1.48593
-1.6847
-1.65649
-1.85941
-1.59238
-1.76591
-1.98832
205.718
1092.8
1584.37
1002.92
687.246
101.159
77.028
483.39
47.1979
-5.666
586.251
1011.38
545.951
14.5659
-1.75025
-1.85942
-1.90167
-1.87298
-1.87088
-1.92151
-1.85249
-2.18
-2.35864
96.9089
694.556
1476.84
505.669
68.6826
-9.3726
-6.47403
106.823
-4.44031
-4.51794
58.396
956.575
64.1691
-1.49005
-2.00209
-2.00147
-1.98076
-2.03444
-2.02459
-2.20826
-2.20934
-2.48182
-2.58644
-5.98741
143.912
1001.24
128.672
-4.56766
-5.70672
-4.40995
-3.92005
-3.27029
-3.7686
-2.46603
103.243
-1.98089
-2.03487
-2.11836
-2.11982
-2.15147
-2.14681
-2.29359
-2.34512
-2.40945
-2.6406
-2.75241
-8.01953
104.556
887.257
58.3605
-3.4486
-3.05786
-3.40077
-2.87949
-3.03814
-3.21732
-3.2298
-2.88515
-2.41632
-2.40159
-2.44493
-2.34628
-2.38708
-2.52945
-2.42581
-2.6426
-2.71106
-2.86376
-3.01463
-5.1283
148.292
892.279
362.461
-3.43043
-2.94539
-3.16588
-2.91327
-2.87568
-2.96721
-2.98631
-2.78364
-2.65576
-2.62743
-2.66136
-2.5507
-2.6423
-2.59657
-2.72086
-2.81185
-2.8725
-3.03763
-3.07682
-4.09392
-4.2157
47.2848
-2.85034
-3.64254
-3.31354
-3.10889
-2.97888
-3.0081
-2.92762
-3.06897
-2.85222
-2.99417
-2.81281
-2.69681
-2.72595
-2.77148
-2.79771
-2.8264
-2.92329
-2.93471
-3.03868
-3.14629
-3.19274
-3.09945
-3.11265
-2.96627
-3.33739
-2.9422
-3.29692
-3.10328
-2.94876
-3.13899
-3.0498
-3.22449
-2.95297
-2.97334
-2.89426
-2.9123
-2.91833
-2.9941
-3.0525
-3.12461
-3.08734
-3.1782
-3.3239
-3.37111
-3.39292
-3.27744
-3.34443
-3.33743
-3.17584
-3.22927
-3.31383
-3.29696
-3.23227
-3.20622
-3.19702
-3.16007
-3.02842
-3.09083
-3.0621
-3.04106
-3.19946
-3.18427
-3.23675
-3.24529
-3.31885
-3.3989
-3.43588
-3.46334
-3.49054
-3.3046
-3.47113
-3.47212
-3.39585
-3.36127
-3.4251
-3.3734
-3.33174
-3.36994
-3.1929
-3.22803
-3.22874
-3.30361
-3.25049
-3.3306
-3.26767
-3.3377
-3.36793
-3.45547
-3.51301
-3.48316
-3.37807
-3.29828
-3.41328
-3.3391
-3.57822
-3.4979
-3.47775
-3.45623
-3.43073
-3.40979
-3.40088
-3.37857
-3.32885
-3.39637
-3.38199
-3.39692
-3.45463
-3.38682
-3.52802
-3.50646
-3.585
-3.59601
-3.41102
-3.48299
-3.48646
-3.5067
-3.51884
-3.47833
-3.49631
-3.57266
-3.56388
-3.56949
-3.59729
-3.59782
-3.58771
-3.55511
-3.56295
-3.6148
-3.57928
-3.49079
-3.59859
-3.59805
-3.6306
-3.67999
-3.72097
-3.62481
-3.62087
-3.61977
-3.61849
-3.62239
-3.62767
-3.64303
-3.57153
-3.62239
-3.63913
-3.60016
-3.60309
-3.59146
-3.65038
-3.66081
-3.69442
-3.64188
-3.72246
-3.70653
-3.73558
-3.75727
-3.80261
-3.81924
-3.73239
-3.74126
-3.74318
-3.74323
-3.75303
-3.74545
-3.75612
-3.75796
-3.76597
-3.77274
-3.77735
-3.77249
-3.80308
-3.72914
-3.81242
-3.72961
-3.84414
-3.81387
-3.84619
-3.85203
-3.8654
-3.89844
-3.9179
-3.8668
-3.86724
-3.87284
-3.8683
-3.86952
-3.86345
-3.87152
-3.86372
-3.8644
-3.86611
-3.84751
-3.86116
-3.89889
-3.91776
-3.92839
-3.90962
-3.9394
-3.91596
-3.96631
-3.92551
-4.01085
-4.01873
-4.05225
-3.99905
-4.00066
-4.00175
-4.00222
-4.00676
-4.00612
-4.01243
-4.00986
-4.01983
-4.01232
-4.0466
-4.04564
-4.04924
-4.00336
-4.02471
-4.07923
-4.01894
-4.07487
-4.10506
-4.08267
-4.11839
-4.12521
-4.14416
-4.12866
-4.12923
-4.12342
-4.12167
-4.11662
-4.08448
-4.0963
-4.12474
-4.13152
-4.13973
-4.12239
-4.16765
-4.16172
-4.16376
-4.20247
-4.14594
-4.18656
-4.17685
-4.17931
-4.2211
-4.19441
-4.25795
-4.25917
-4.26145
-4.26249
-4.26154
-4.27114
-4.2713
-4.31485
-4.32227
-4.28049
-4.27159
-4.26658
-4.29712
-4.28104
-4.29015
-4.28979
-4.26319
-4.29708
-4.27171
-4.31672
-4.29685
-4.34403
-4.35322
-4.36328
-4.37941
-4.38878
-4.38979
-4.38786
-4.38801
-4.38584
-4.37734
-4.39235
-4.41058
-4.45464
-4.42884
-4.42848
-4.42116
-4.4048
-4.4151
-4.42673
-4.43107
-4.45518
-4.40231
-4.45641
-4.42937
-4.46468
-4.45672
-4.49178
-4.5186
-4.51853
-4.52077
-4.5238
-4.53531
-4.57098
-4.54389
-4.52562
-4.49854
-4.48917
-4.5148
-4.49561
-4.5378
-4.53158
-4.54172
-4.52887
-4.52435
-4.55546
-4.56392
-4.55215
-4.58061
-4.59384
-4.60384
-4.65021
-4.65102
-4.64789
-4.64981
-4.64525
-4.61324
-4.63889
-4.62157
-4.64475
-4.66899
-4.66382
-4.6777
-4.68574
-4.66773
-4.67585
-4.67051
-4.69375
-4.66487
-4.66465
-4.68723
-4.70076
-4.71179
-4.71886
-4.77922
-4.77817
-4.77867
-4.77574
-4.75029
-4.77712
-4.78283
-4.80829
-4.78773
-4.77285
-4.77776
-4.77482
-4.79015
-4.78834
-4.78816
-4.79393
-4.77987
-4.79696
-4.80402
-4.80802
-4.80094
-4.80876
-4.8427
-4.91194
-4.90892
-4.9165
-4.90545
-4.95119
-4.90987
-4.91698
-4.90451
-4.92322
-4.93057
-4.93727
-4.92275
-4.9137
-4.90921
-4.92132
-4.92024
-4.92579
-4.92938
-4.92041
-4.92886
-4.93993
-4.91654
-4.96131
-5.03834
-5.0391
-5.04242
-5.04019
-5.04323
-5.04618
-5.04038
-5.04771
-5.03611
-5.00705
-5.01225
-5.03058
-5.05115
-5.05059
-5.04286
-5.0416
-5.04433
-5.04027
-5.05161
-5.03872
-5.05771
-5.0443
-5.07512
-5.17144
-5.16924
-5.17256
-5.16936
-5.17826
-5.1717
-5.17402
-5.17085
-5.17562
-5.21032
-5.18272
-5.1793
-5.17647
-5.17416
-5.17308
-5.17139
-5.17631
-5.16699
-5.176
-5.17341
-5.17683
-5.17819
-5.18163
-5.29529
-5.29971
-5.30569
-5.30837
-5.31073
-5.31348
-5.32782
-5.31523
-5.30103
-5.29025
-5.29516
-5.29359
-5.29858
-5.29525
-5.29206
-5.28854
-5.28983
-5.28781
-5.29421
-5.28946
-5.30077
-5.29922
-5.2933
-5.43918
-5.43463
-5.43358
-5.40409
-5.42581
-5.42948
-5.40751
-5.43413
-5.43226
-5.44218
-5.43719
-5.43429
-5.43575
-5.43301
-5.42944
-5.42981
-5.42928
-5.42793
-5.42195
-5.42483
-5.42005
-5.42595
-5.41452
-5.51881
-5.52608
-5.54408
-5.6109
-5.58414
-5.54726
-5.54145
-5.56409
-5.53853
-5.55666
-5.5382
-5.54947
-5.55292
-5.5328
-5.53046
-5.52591
-5.5266
-5.52793
-5.53756
-5.53738
-5.54224
-5.54457
-5.54374
-5.78282
-5.77748
-5.75535
-5.71036
-5.70189
-5.73087
-5.73235
-5.68778
-5.74263
-5.68446
-5.72752
-5.69007
-5.69731
-5.70914
-5.71143
-5.70388
-5.70517
-5.69355
-5.67895
-5.68204
-5.67043
-5.67305
-5.66509
1066.71
815.901
937.111
1118.46
856.002
1165.14
1410.08
1448.76
902.81
733.777
916.58
1071.58
1683.07
1784
1782.8
1749.71
1621.7
1509.83
1132.29
850.438
429.744
298.041
106.467
33.8226
5.13413
3.06959
1.12706
-0.219343
0.338804
0.161266
-0.00127947
-0.821008
-0.360956
-0.878194
-1.58539
-2.16766
-0.668955
-1.03542
-2.60416
-3.41896
-0.619422
-1.82061
-2.77811
-4.53968
-1.21759
-1.87606
-2.83679
-3.94513
-2.04659
-2.72473
-2.84536
-3.20944
-2.59863
-2.86161
-2.98191
-3.1289
-2.76008
-2.851
-3.08128
-3.40182
-2.80705
-2.93104
-3.17975
-3.3495
-3.04955
-3.19692
-3.35747
-3.31706
-3.20372
-3.19454
-3.2206
-3.38031
-3.20137
-3.12455
-3.24822
-3.30225
-3.27932
-3.27267
-3.29459
-3.31867
-3.36079
-3.40409
-3.4138
-3.42676
-3.42458
-3.4788
-3.4938
-3.5476
-3.5775
-3.61648
-3.63984
-3.68085
-3.62616
-3.66403
-3.69569
-3.72233
-3.76287
-3.77497
-3.7936
-3.82151
-3.84473
-3.87948
-3.89513
-3.90466
-3.97118
-3.96091
-3.99005
-3.99874
-4.04845
-4.07679
-4.08192
-4.09467
-4.16793
-4.17066
-4.18493
-4.19249
-4.28413
-4.28939
-4.29355
-4.3044
-4.37558
-4.39386
-4.39948
-4.40836
-4.50145
-4.50577
-4.50907
-4.51783
-4.60711
-4.61371
-4.61735
-4.62346
-4.72226
-4.72622
-4.7296
-4.73198
-4.83146
-4.84016
-4.84211
-4.84237
-4.95318
-4.95423
-4.95588
-4.95977
-5.06436
-5.07278
-5.07245
-5.07511
-5.18467
-5.18727
-5.1886
-5.19014
-5.31512
-5.30797
-5.31145
-5.31069
-5.4315
-5.42604
-5.42872
-5.42629
-5.54753
-5.54546
-5.54827
-5.54766
-5.6711
-5.6653
-5.67253
-5.6633
373.703
27.1598
311.173
705.429
898.1
920.72
386.374
56.7211
9.02516
3.18848
3.17573
3.00341
2.69355
2.45848
2.29028
2.16895
2.0927
2.04275
2.01984
1308.5
1059.9
1151.59
1250.08
1305.26
1411.36
1267.98
695.458
162.985
7.57453
1.78664
3.04948
2.61717
2.25428
2.06762
1.94867
1.87651
1.83067
1.80966
1282.8
1666.54
1772.8
1701.18
1588
1127.89
340.435
53.4399
-2.16949
-3.56421
-0.288851
1.49082
1.83637
1.84802
1.77049
1.69043
1.63598
1.59914
1.58186
1693.98
2007.58
1678.5
1539.64
1141.32
496.914
159.375
43.0864
11.0106
1.09839
0.473581
1.27774
1.44527
1.49059
1.46207
1.41672
1.37984
1.35299
1.34
855.772
1111.28
1192.52
983.099
648.276
293.027
117.85
42.4134
9.62128
0.891689
0.5732
0.95863
1.08859
1.14872
1.15115
1.13164
1.11141
1.09446
1.08602
36.7254
74.2093
277.826
250.732
193.783
144.047
50.6357
41.1394
14.6196
1.0606
0.345787
0.691524
0.782682
0.829738
0.844679
0.842917
0.83583
0.827903
0.823717
-0.802769
-2.55663
-1.04713
10.0615
12.4794
0.520401
-1.02627
11.8374
11.2702
1.47865
-0.430867
0.236281
0.430972
0.498377
0.533486
0.549059
0.554684
0.555038
0.554964
-1.82781
-1.21061
-2.75954
-4.44508
-3.54302
-5.87405
-7.13328
2.95389
3.74639
-0.025094
-0.943097
-0.185805
0.0764893
0.17018
0.223157
0.254024
0.270907
0.279273
0.2831
-3.44806
-3.31654
-3.24296
-6.23007
-5.75158
-6.17492
-4.88021
0.0251797
-0.57406
-1.80466
-1.5564
-0.668969
-0.321476
-0.177101
-0.0924149
-0.0427642
-0.0135466
0.00249199
0.0101792
-6.2627
-5.7577
-8.20351
-6.5539
-6.07068
-6.03717
-4.84455
0.514271
-1.77677
-2.25197
-1.84048
-1.09285
-0.710498
-0.514037
-0.40424
-0.33708
-0.296696
-0.273016
-0.261438
-6.2701
-9.05681
-7.45374
-6.33709
-6.87053
-6.34797
-5.45442
-3.84893
-2.83094
-2.35285
-1.88642
-1.3812
-1.03741
-0.830595
-0.701457
-0.622423
-0.573394
-0.543801
-0.528647
-5.93842
-6.72057
-6.91929
-5.90563
-4.79132
-6.66609
-6.34161
-5.35959
-3.97038
-3.11764
-2.23118
-1.70216
-1.34513
-1.12976
-0.989441
-0.900492
-0.845664
-0.810457
-0.790804
-4.94807
-5.50274
-5.30255
-5.52665
-5.68912
-6.42422
-5.97002
-5.03561
-3.93104
-3.16126
-2.42063
-1.97179
-1.61588
-1.40737
-1.25406
-1.16539
-1.10561
-1.06816
-1.04535
-3.88254
-4.75709
-5.09844
-5.14005
-5.49061
-5.92705
-5.52125
-4.72788
-3.85594
-3.29212
-2.5851
-2.19694
-1.85738
-1.66236
-1.5123
-1.41737
-1.35904
-1.31978
-1.29057
-3.92849
-4.47685
-4.54667
-4.73285
-5.02609
-5.08109
-4.83464
-4.36024
-3.73258
-3.44225
-2.77492
-2.41617
-2.08581
-1.90769
-1.75125
-1.67705
-1.60803
-1.56918
-1.54572
-3.60992
-3.96589
-4.34101
-4.4197
-4.57058
-4.50465
-4.26772
-3.81685
-3.44388
-2.90476
-2.82517
-2.58613
-2.32292
-2.14993
-2.04304
-1.90555
-1.84816
-1.83458
-1.82748
-3.65507
-3.94464
-4.00817
-4.15474
-4.2252
-4.26927
-4.18121
-3.84401
-3.34955
-3.29061
-2.88254
-2.76201
-2.46186
-2.30556
-2.15676
-2.12702
-2.06814
-2.05156
-2.04979
-3.43272
-3.70691
-3.65294
-3.66851
-4.32754
-4.12784
-4.09031
-3.53915
-3.51943
-3.43422
-2.99644
-2.67453
-2.6351
-2.48867
-2.40068
-2.32366
-2.24001
-2.20594
-2.19078
-3.48739
-3.54477
-4.16089
-4.1295
-3.66411
-3.8578
-3.88203
-3.69049
-3.61079
-3.23994
-3.1084
-2.96453
-2.79089
-2.5881
-2.54861
-2.47201
-2.39941
-2.35555
-2.3348
-3.55637
-3.58569
-3.95344
-3.62765
-3.85168
-4.067
-3.74412
-3.60677
-3.35085
-3.38011
-3.06688
-3.04832
-2.9041
-2.83946
-2.71825
-2.61807
-2.58829
-2.55647
-2.53962
-3.66744
-3.62227
-3.87196
-3.80936
-3.85042
-3.53764
-3.6347
-3.75318
-3.51508
-3.42747
-3.32016
-3.13921
-3.00535
-2.94115
-2.86279
-2.77438
-2.73965
-2.72389
-2.71472
-3.62191
-3.69381
-3.80518
-3.79786
-3.86792
-3.8356
-3.71868
-3.64244
-3.43174
-3.42805
-3.43444
-3.29029
-3.13125
-3.10332
-3.05778
-2.99055
-2.8948
-2.90066
-2.88475
-3.73958
-3.75688
-3.87093
-3.85961
-3.87232
-3.80966
-3.83732
-3.63163
-3.64639
-3.52249
-3.38995
-3.38438
-3.34349
-3.27066
-3.13732
-3.12955
-3.07252
-3.05717
-3.04224
-3.80205
-3.81525
-3.90258
-3.90751
-3.92891
-3.86773
-3.86816
-3.79831
-3.69121
-3.64059
-3.48041
-3.44909
-3.45285
-3.31406
-3.26524
-3.26401
-3.24945
-3.20571
-3.19766
-3.86319
-3.93201
-3.96382
-3.96945
-3.99105
-3.93088
-3.91808
-3.81153
-3.80292
-3.72426
-3.68992
-3.57909
-3.51702
-3.44682
-3.45446
-3.39007
-3.38656
-3.34733
-3.33897
-3.94519
-3.96029
-4.04303
-4.05291
-4.03177
-4.00388
-4.02378
-3.89485
-3.89079
-3.79605
-3.77928
-3.69061
-3.67187
-3.62318
-3.5593
-3.53403
-3.49133
-3.50046
-3.49132
-4.01248
-4.04917
-4.0869
-4.11977
-4.16519
-4.08203
-4.06829
-3.91569
-4.07144
-3.90134
-3.89802
-3.80741
-3.79718
-3.73759
-3.69633
-3.67701
-3.64957
-3.63268
-3.63117
-4.12396
-4.11142
-4.16424
-4.17204
-4.20547
-4.2006
-4.26206
-4.07654
-4.04333
-3.94692
-4.06948
-3.92526
-3.90642
-3.85795
-3.8116
-3.84189
-3.79242
-3.7765
-3.77852
-4.21382
-4.23287
-4.21228
-4.26929
-4.28157
-4.25085
-4.30024
-4.28755
-4.31108
-4.10985
-4.05713
-4.01578
-4.08253
-4.00344
-3.9777
-3.93172
-3.90128
-3.91492
-3.90856
-4.31157
-4.31884
-4.34349
-4.29252
-4.37412
-4.34117
-4.36767
-4.3378
-4.35649
-4.36003
-4.35034
-4.15699
-4.07056
-4.0785
-4.08961
-4.11625
-4.07215
-4.076
-4.0559
-4.4202
-4.42511
-4.43395
-4.44266
-4.42112
-4.38898
-4.51679
-4.45922
-4.46606
-4.41676
-4.42708
-4.44423
-4.42808
-4.30014
-4.23203
-4.15167
-4.13148
-4.11943
-4.17724
-4.52481
-4.52601
-4.53271
-4.53426
-4.488
-4.54402
-4.45568
-4.5921
-4.55533
-4.54341
-4.52485
-4.4919
-4.47878
-4.50404
-4.50512
-4.50195
-4.48827
-4.43177
-4.31535
-4.64303
-4.63568
-4.64305
-4.64254
-4.6541
-4.56612
-4.64531
-4.57586
-4.70131
-4.64497
-4.6529
-4.6225
-4.60955
-4.58173
-4.55774
-4.54199
-4.53916
-4.57366
-4.61369
-4.73942
-4.74005
-4.75654
-4.71456
-4.74194
-4.74953
-4.6789
-4.74312
-4.68569
-4.78988
-4.74195
-4.7336
-4.72107
-4.71208
-4.70222
-4.69605
-4.68457
-4.68031
-4.6672
-4.85606
-4.85436
-4.86514
-4.8693
-4.85379
-4.84685
-4.8606
-4.8022
-4.84595
-4.81259
-4.89542
-4.8531
-4.8427
-4.83057
-4.81949
-4.81365
-4.80859
-4.8097
-4.80992
-4.95801
-4.9738
-4.95561
-4.96131
-4.95563
-4.96148
-4.93042
-4.97543
-4.93502
-4.93695
-4.92446
-4.9504
-4.94758
-4.94662
-4.94169
-4.93857
-4.93489
-4.9344
-4.93284
-5.07868
-5.08532
-5.08713
-5.09086
-5.06536
-5.07884
-5.09106
-5.05965
-5.06156
-5.07677
-5.10524
-5.11505
-5.07851
-5.07232
-5.06482
-5.062
-5.05934
-5.0585
-5.05652
-5.19044
-5.19591
-5.18678
-5.19563
-5.19848
-5.19073
-5.17556
-5.18383
-5.18682
-5.15471
-5.14507
-5.17564
-5.182
-5.18983
-5.18874
-5.18886
-5.18862
-5.18919
-5.18918
-5.31329
-5.31554
-5.31445
-5.31299
-5.31433
-5.29836
-5.304
-5.2917
-5.31525
-5.31412
-5.31066
-5.30689
-5.3094
-5.30677
-5.30484
-5.30437
-5.30331
-5.30278
-5.30239
-5.42767
-5.4325
-5.41866
-5.42696
-5.42752
-5.44188
-5.42602
-5.42195
-5.41621
-5.40846
-5.41443
-5.42448
-5.43746
-5.44171
-5.44709
-5.44996
-5.4519
-5.4531
-5.45358
-5.5482
-5.55354
-5.55295
-5.5547
-5.56026
-5.54839
-5.5583
-5.5446
-5.55991
-5.55527
-5.54743
-5.54555
-5.54382
-5.5369
-5.53541
-5.53341
-5.53294
-5.53242
-5.53227
-5.67057
-5.66312
-5.67545
-5.66443
-5.65452
-5.66538
-5.66645
-5.64684
-5.6117
-5.62115
-5.63949
-5.68239
-5.70086
-5.71868
-5.72959
-5.73653
-5.74129
-5.74429
-5.74514
)
;

boundaryField
{
    leftWall
    {
        type            calculated;
        value           nonuniform List<scalar> 
50
(
1901.63
1842.99
1782.32
1725.65
1659.93
1610.39
1545.93
1487.68
1397.39
1259.17
1121.79
985.951
818.943
683.004
549.377
448.398
600.068
1529.21
1210.68
405.133
253.077
210.802
205.718
96.9089
-5.98741
-8.01953
-5.1283
-4.09392
-3.19274
-3.37111
-3.43588
-3.48316
-3.41102
-3.62481
-3.73239
-3.8668
-3.99905
-4.12866
-4.26145
-4.38878
-4.5186
-4.65021
-4.77922
-4.91194
-5.03834
-5.17144
-5.29529
-5.43918
-5.51881
-5.78282
)
;
    }
    rightWall
    {
        type            calculated;
        value           nonuniform List<scalar> 
50
(
2.6838
2.62139
2.5549
2.48454
2.41009
2.33171
2.24917
2.16251
2.01984
1.80966
1.58186
1.34
1.08602
0.823717
0.554964
0.2831
0.0101792
-0.261438
-0.528647
-0.790804
-1.04535
-1.29057
-1.54572
-1.82748
-2.04979
-2.19078
-2.3348
-2.53962
-2.71472
-2.88475
-3.04224
-3.19766
-3.33897
-3.49132
-3.63117
-3.77852
-3.90856
-4.0559
-4.17724
-4.31535
-4.61369
-4.6672
-4.80992
-4.93284
-5.05652
-5.18918
-5.30239
-5.45358
-5.53227
-5.74514
)
;
    }
    lowerWall
    {
        type            calculated;
        value           nonuniform List<scalar> 
62
(
1931.06
1933.72
1922.68
1922.9
1886.94
1873.58
1810.67
1814.13
1732.18
1623.59
1804.02
1719.19
1531.81
1569.38
1635.47
1423.36
1333.25
1425.1
1515.78
1151.81
1970.82
2370.31
2164.12
2156.89
2335.34
2172.87
1996.58
1886.91
1797.63
1823.51
2165.13
1099.37
843.985
961.979
1142.5
0.0190063
-0.0384689
-0.118361
-0.172766
-0.225922
-0.232107
-0.377538
4.3626
0.0484357
0.0126952
-0.0677676
-0.093476
0.207491
0.985985
1.76376
2.56016
2.95758
3.24461
3.34095
3.32421
3.18453
3.01425
2.94955
2.85398
2.78581
2.73641
2.71323
)
;
    }
    atmosphere
    {
        type            calculated;
        value           nonuniform List<scalar> 
46
(
-5.78246
-5.78337
-5.78128
-5.78995
-5.77206
-5.76937
-5.76535
-5.75497
-5.76719
-5.74817
-5.76075
-5.74825
-5.75169
-5.74962
-5.74958
-5.7437
-5.74134
-5.7362
-5.73337
-5.73247
-5.73034
-5.7303
-5.72911
-5.72911
-5.72904
-5.72904
-5.72904
-5.72904
-5.72904
-5.72904
-5.72904
-5.72904
-5.72904
-5.72904
-5.72904
-5.72904
-5.72904
-5.72904
-5.72904
-5.72904
-5.72904
-5.72904
-5.72904
-5.72904
-5.72904
-5.72904
)
;
    }
    defaultFaces
    {
        type            empty;
    }
}


// ************************************************************************* //
