/*--------------------------------*- C++ -*----------------------------------*\
| =========                 |                                                 |
| \\      /  F ield         | foam-extend: Open Source CFD                    |
|  \\    /   O peration     | Version:     4.1                                |
|   \\  /    A nd           | Web:         http://www.foam-extend.org         |
|    \\/     M anipulation  |                                                 |
\*---------------------------------------------------------------------------*/
FoamFile
{
    version     2.0;
    format      ascii;
    class       volScalarField;
    location    "0.25";
    object      pd;
}
// * * * * * * * * * * * * * * * * * * * * * * * * * * * * * * * * * * * * * //

dimensions      [1 -1 -2 0 0 0 0];

internalField   nonuniform List<scalar> 
2268
(
1931.06
1933.72
1922.68
1922.9
1886.94
1873.58
1810.67
1814.13
1732.18
1623.59
1804.02
1719.19
1531.81
1569.38
1635.47
1423.36
1333.25
1425.1
1515.78
1151.81
1970.82
2370.31
2164.12
1931.28
1933.56
1922.77
1922.86
1887.18
1871.34
1809.33
1813.43
1727.18
1605.47
1763.03
1725.58
1500.24
1531.38
1495.83
1617.03
1303.2
2136.06
2197.99
1780.34
1717.96
1985.41
2412.47
1929.46
1933.02
1922.23
1922.68
1886.97
1874.37
1815.19
1806.73
1723.77
1668.01
1665.64
1727.5
1520.87
1590.34
1540.28
1739.15
2133.64
2838.75
2766.74
2307.81
1953.2
1882.34
2301.62
1931.66
1932.52
1922.51
1922.67
1887.68
1865.9
1817.08
1812.93
1710.6
1689.21
1698.77
1706.57
2455.89
2198.64
2387.28
2725.58
2733.97
2854.19
2573.86
1606.85
1602.93
1578.78
2176.11
1924.79
1930.57
1921.61
1922.02
1887.36
1863.73
1805.22
1822.34
1715.52
1710.77
1624.1
1720.13
1594.45
1590.38
1595.15
1772.28
1943.4
2459.52
2446.2
2038.75
1970.05
1658.55
2112.66
1934.11
1930.89
1921.93
1922.94
1886.35
1863.07
1791.21
1813.76
1666.48
1737.15
1630.57
1660.39
1621.6
1620.31
1133.38
1300.77
1609.35
2302.24
2164.96
2079.21
2745.28
1870.37
2063.57
1928.52
1927.78
1920.69
1921.21
1886.99
1862.41
1815.58
1846.92
1634.08
1741.05
1697.6
1582.52
1633.58
1580.01
1263.31
1250.47
1830.27
2513.94
2466.2
2137.43
2713.64
2745.98
2119.35
1929.12
1932.68
1920.99
1927.39
1885.28
1859.8
1770.79
1818.3
1681.76
1711.09
1658.86
1674.2
1482.87
1529.23
1317.29
2080.78
2323.85
2623.94
2836.75
2402.46
2607.71
2956.96
2458.33
0.0484357
0.0126952
-0.0677676
-0.093476
0.207491
0.985985
1.76376
2.56016
2.95758
3.24461
3.34095
3.32421
3.18453
3.01425
2.94955
2.85398
2.78581
2.73641
2.71323
0.0498202
-0.0109093
-0.121523
-0.158325
0.106415
0.922576
1.76303
2.62639
2.99286
3.28151
3.36772
3.31675
3.14566
3.02897
2.94839
2.85071
2.78244
2.73289
2.70968
0.0288277
-0.0592657
-0.20556
-0.292982
-0.122349
0.857242
1.77038
2.75186
3.10777
3.36668
3.44008
3.31544
3.1569
3.03938
2.94421
2.84457
2.77532
2.72539
2.70205
0.033934
-0.0978357
-0.349369
-0.548536
-0.580825
0.517068
1.69682
2.91006
3.26219
3.45686
3.46039
3.33165
3.17505
3.04168
2.93751
2.83426
2.76424
2.71399
2.69054
0.042817
-0.165152
-0.411711
-0.822364
-1.45151
0.301251
1.81307
3.14621
3.48989
3.66215
3.50025
3.37234
3.19583
3.04203
2.92818
2.82088
2.74926
2.69854
2.67496
0.103442
-0.141709
0.275526
0.33979
-1.8712
2.23619
2.16036
3.66287
3.90735
3.75249
3.55968
3.41212
3.20667
3.03659
2.91385
2.80319
2.73008
2.67909
2.65544
0.0790602
-0.021416
5.0794
16.5587
19.9401
40.507
6.0051
4.33447
4.19537
3.84055
3.61993
3.44817
3.22123
3.03169
2.89593
2.78126
2.70654
2.6554
2.63175
10.9141
-2.47108
25.0492
152.085
277.278
325.597
55.2872
9.46017
5.12885
3.95441
3.72787
3.47629
3.22616
3.01965
2.87153
2.75408
2.67834
2.62744
2.60395
1930.86
1923.29
1917.88
1915.43
1847.06
1838.22
1789.12
1786.07
1693.77
1662.65
1631.58
1609.86
1582.56
1584.45
1221.19
1296.77
2319.13
2594.91
2604.46
2289.24
2232.72
2503.2
2181.36
1917.83
1932.44
1913.01
1896.1
1914.51
1851.4
1798.8
1773.72
1678.75
1599.65
1642.95
1414.3
1634.21
1487.19
1208.62
1331.19
1553.65
1810.29
1557.24
1546.28
1485.17
1153.11
1351.1
1905.64
1900.9
1921.02
1932.33
1847.76
1818.18
1752.91
1721.24
1615.29
1588.22
1435.69
1411.37
1506.78
1377.05
1252.35
1327.42
1496.83
1611.7
1625.81
1929.53
1499.39
1266.1
1418.82
1894.99
1887.06
1873.87
1928.37
1940.22
1933.51
1939.07
1815.02
1613.9
1367.7
1756.03
1593.27
1679.59
1721.31
1645.16
1804.52
2230.94
2116.47
2232.3
2058.19
1961.01
1944.81
1808.83
1853.02
1842.29
1806.8
1715.58
1701.52
1717.65
1583.18
1606.17
1623.14
1882.91
2386.19
2260.05
2410.17
2287.32
1934.31
2079.75
2243.68
2289.44
2224.54
2035.98
2031.86
2115.83
2112.7
1841.13
1836.84
1807.75
1824.4
1768.1
1735.53
1678.33
1545.61
2198.5
2271.98
1424.63
2428.96
1605.33
1091.65
587.477
706.208
957.348
1468.06
2031.96
2130.85
1696.76
1323.34
815.06
1826.09
1825.38
1812.68
1810.29
1749.2
1669.18
1722.71
2048.02
1656.78
969.776
1090.5
2393.03
1073.25
361.112
142.456
192.112
434.458
558.017
820.911
758.638
302.341
111.156
28.7078
1818.35
1814.69
1843.87
1802.87
1733.46
1883.81
1664.34
2007.33
1367.84
402.706
679.932
2016.31
753.743
161.752
45.7228
76.3818
74.4148
85.2041
110.69
94.3152
35.2065
9.92559
4.29907
1963.28
1826.67
1855.48
1796.72
1933.67
1607.69
1792.79
2502.97
1567.88
240.747
279.48
1082.87
279.163
40.0499
10.4801
15.0325
12.3948
16.0832
15.484
10.7005
9.09443
6.55173
4.35035
2586.18
1997.22
1858.91
1940.86
1949.82
1854.82
2370.98
2274.92
944.6
127.839
166.155
576.421
157.537
6.22092
4.10164
3.88884
3.13694
4.4587
4.8021
5.43667
4.68543
3.98935
3.69786
1734.22
2625.41
1934.59
1831.02
1766.2
2013.61
2572.07
2569.63
2342.46
1203.58
247.095
453.547
188.011
6.20338
3.3145
2.63205
2.24588
2.68602
3.08655
5.06987
3.70585
3.23223
3.87719
670.524
1910.46
2420.12
2514.98
1926.67
1797.23
2065.49
2172.69
2433.77
2348.23
814.122
493.64
195.689
4.37902
3.06446
2.75797
1.88852
1.84927
3.03256
5.67375
2.57007
2.22039
3.30574
457.197
1546.1
2563.89
2289.83
2603.23
2594.17
2233.05
2391.37
2589.09
1791.98
803.037
434.162
55.2374
9.61917
2.319
2.33029
2.51502
2.41557
3.92157
4.92293
1.16948
1.28124
1.49174
410.075
1717.83
2812.61
1643.68
2637.82
1532.79
2100.76
2224.02
1164.02
155.406
442.287
473.294
94.2939
9.27574
1.66722
2.11534
2.80438
2.70281
2.81552
1.37364
0.728632
0.609576
0.588159
398.864
1718.59
2896.43
1570.13
1142.42
282.292
216.009
850.334
155.934
27.4901
1038.77
1639.13
961.887
73.1751
3.40929
1.5357
1.85964
1.3431
0.85385
0.459842
0.470732
0.171658
0.0661614
257.36
1185.24
2374.92
895.962
214.065
22.3656
2.05527
276.227
5.3764
4.28029
179.291
1614.78
188.359
10.2462
0.568659
0.731655
0.916487
0.654923
0.540464
0.230591
0.216659
-0.0510217
-0.140147
29.723
350.871
1695.55
328.014
28.2071
2.41587
-0.0787119
3.24131
-0.356012
-0.457688
14.5193
270.783
3.48358
0.508273
0.432098
0.483674
0.485372
0.463107
0.304933
0.210541
0.131723
-0.102073
-0.209012
7.3961
295.36
1549.61
206.113
13.0922
1.06341
-0.511364
-0.0643501
-0.342312
-0.547237
-0.532347
-0.149514
0.254845
0.261673
0.219493
0.327163
0.29217
0.146593
0.246838
0.0280312
-0.0478786
-0.201641
-0.351742
5.86332
381.709
1601.02
753.601
10.5699
0.144546
-0.31407
-0.0851336
-0.0686374
-0.17949
-0.19904
0.00363235
0.131895
0.159694
0.125798
0.237041
0.146383
0.192055
0.066691
-0.0247289
-0.085481
-0.250603
-0.289658
-1.09133
3.3755
177.933
15.2268
-0.176546
-0.325877
-0.172202
-0.0478286
-0.071049
-0.0148097
-0.156734
0.0599603
-0.0819974
0.099363
0.215355
0.186224
0.140721
0.114538
0.0858839
-0.0110433
-0.022518
-0.1265
-0.234086
-0.106575
0.629022
4.62467
0.293041
-0.231799
0.110241
-0.248122
-0.0616406
0.105768
-0.100959
-0.012376
-0.187126
0.0843929
0.064022
0.143097
0.125063
0.119034
0.0432782
-0.0151051
-0.0872179
-0.0499563
-0.140839
-0.286538
-0.205175
-0.217164
-0.0748591
-0.179784
-0.174153
-0.0127293
-0.0631983
-0.150439
-0.132448
-0.0695724
-0.0435603
-0.0344678
0.00248529
0.134132
0.0717254
0.100451
0.121494
-0.0369014
-0.0217172
-0.0741906
-0.0827346
-0.156294
-0.236348
-0.147478
-0.175529
-0.202779
-0.0168549
-0.183371
-0.184267
-0.1078
-0.0734789
-0.137282
-0.0856478
-0.0439875
-0.0821973
0.0948501
0.0597157
0.0590077
-0.0158668
0.0372591
-0.0428543
0.020079
-0.0499571
-0.0801848
-0.167724
-0.225268
-0.0700502
0.0348823
0.114665
-0.000332089
0.0738434
-0.165266
-0.0849394
-0.0648028
-0.0432854
-0.0177937
0.0031489
0.0120646
0.0343756
0.0840907
0.0165713
0.03095
0.0160175
-0.0416852
0.0261231
-0.115078
-0.0935175
-0.172063
-0.183073
0.127125
0.0551494
0.0516795
0.0314312
0.0192935
0.0598028
0.0418255
-0.0345282
-0.0257461
-0.0313549
-0.0591505
-0.0596822
-0.0495781
-0.0169742
-0.024818
-0.076661
-0.041147
0.0473493
-0.0604579
-0.0599098
-0.0924602
-0.141851
-0.182838
0.0385237
0.0424652
0.0435588
0.0448393
0.0409394
0.0356589
0.0203021
0.091802
0.0409438
0.0242013
0.0631664
0.0602444
0.0718688
0.0129551
0.00252008
-0.0310851
0.0214479
-0.0591292
-0.0431998
-0.0722454
-0.0939439
-0.139279
-0.15591
0.0561302
0.0472676
0.045342
0.0452945
0.0354952
0.0430791
0.0324077
0.0305618
0.0225552
0.0157878
0.0111786
0.0160326
-0.0145521
0.0593891
-0.0238902
0.0589194
-0.0556144
-0.0253441
-0.0576648
-0.0635079
-0.0768761
-0.109919
-0.129373
0.0469221
0.0464817
0.0408782
0.0454203
0.044196
0.0502664
0.0422037
0.0499962
0.0493213
0.0476052
0.066209
0.052558
0.0148267
-0.00403875
-0.0146681
0.00410123
-0.025679
-0.00224401
-0.0525909
-0.0117889
-0.0971292
-0.105015
-0.138535
0.03986
0.0382527
0.0371682
0.0366967
0.0321553
0.032794
0.0264826
0.0290539
0.0190795
0.0265978
-0.00768638
-0.00672138
-0.0103259
0.0355572
0.0142032
-0.0403115
0.0199709
-0.035954
-0.0661449
-0.043761
-0.0794793
-0.0862919
-0.105244
0.0354496
0.0348793
0.0406903
0.0424432
0.0474927
0.0796302
0.067812
0.0393687
0.0325884
0.0243832
0.0417176
-0.0035367
0.00239058
0.000344161
-0.0383613
0.018168
-0.0224483
-0.0127411
-0.015206
-0.0569946
-0.0303018
-0.093842
-0.0950593
0.0278491
0.0268157
0.0277602
0.018162
0.018007
-0.0255428
-0.0329685
0.00881457
0.0177105
0.0227231
-0.0078132
0.00826059
-0.00084218
-0.000491187
0.0261091
-0.00777904
0.0175883
-0.0274177
-0.00754661
-0.0547316
-0.0639144
-0.073977
-0.0901039
0.0257187
0.0247041
0.0266355
0.0264882
0.0286577
0.0371605
0.0221466
0.00391247
-0.0401418
-0.014343
-0.0139818
-0.0066655
0.00970093
-0.000604459
-0.0122356
-0.0165698
-0.0406839
0.0121847
-0.0419168
-0.0148764
-0.050185
-0.0422239
-0.0772814
0.0210919
0.0211589
0.0189261
0.0158957
0.00438666
-0.0312859
-0.00419345
0.0140725
0.0411551
0.0505233
0.024893
0.0440805
0.00189279
0.00811073
-0.00202646
0.0108195
0.0153436
-0.0157684
-0.0242238
-0.012463
-0.0409166
-0.0541454
-0.0641463
0.014672
0.0138641
0.0169992
0.0150785
0.0196377
0.0516487
0.0259946
0.0433187
0.020137
-0.00410142
0.00107055
-0.0128144
-0.0208554
-0.00284464
-0.0109659
-0.00562593
-0.0288605
1.54829e-05
0.00023326
-0.0223447
-0.0358729
-0.0469003
-0.0539764
0.01086
0.0119149
0.0114086
0.0143419
0.0397865
0.0129642
0.00725208
-0.0182109
0.00234897
0.0172317
0.0123167
0.015266
-7.25781e-05
0.0017421
0.00192069
-0.00385118
0.010216
-0.00687772
-0.0139341
-0.0179392
-0.0108588
-0.0186836
-0.0526189
0.00333544
0.00635352
-0.0012265
0.00982829
-0.0359159
0.00540554
-0.00170639
0.0107672
-0.00794532
-0.01529
-0.0219938
-0.00747198
0.00157685
0.00606525
-0.00604248
-0.00496628
-0.010518
-0.0141062
-0.0051354
-0.013588
-0.0246572
-0.00126757
-0.0460363
0.00213358
0.00137122
-0.00194492
0.000279
-0.00276225
-0.00570494
9.06478e-05
-0.00724028
0.00435738
0.0334224
0.0282164
0.00988843
-0.0106846
-0.0101212
-0.00238854
-0.00113484
-0.00386099
0.000202546
-0.0111354
0.00175009
-0.0172351
-0.00382872
-0.0346502
-0.00577057
-0.00357775
-0.0068904
-0.00369455
-0.0125975
-0.00603226
-0.00835259
-0.0051836
-0.00995056
-0.044656
-0.017052
-0.0136383
-0.0108039
-0.00849699
-0.00741413
-0.00572559
-0.010645
-0.00132476
-0.0103338
-0.00774931
-0.0111693
-0.0125241
-0.0159605
-0.00443572
-0.00885072
-0.0148274
-0.0175113
-0.0198695
-0.0226181
-0.0369643
-0.0243685
-0.0101742
0.000604311
-0.00429655
-0.0027273
-0.00772068
-0.00438915
-0.00119628
0.00231457
0.0010279
0.00304918
-0.00335524
0.00139523
-0.00990798
-0.00835912
-0.00244396
-0.023128
-0.018573
-0.017528
0.0119604
-0.00975397
-0.0134233
0.00854039
-0.0180742
-0.0162037
-0.0261296
-0.0211355
-0.0182407
-0.0196934
-0.0169515
-0.0133879
-0.0137559
-0.0132243
-0.0118739
-0.00589147
-0.00878077
-0.00399815
-0.00990019
0.00153494
0.0224333
0.015169
-0.00283526
-0.0696525
-0.0428901
-0.00600898
-0.000201737
-0.0228425
0.0027191
-0.0154083
0.00304427
-0.00821984
-0.0116755
0.00845166
0.0107873
0.0153349
0.0146483
0.0133229
0.003685
0.00386768
-0.000996125
-0.00332255
-0.00249245
-0.116378
-0.111033
-0.0889093
-0.0439156
-0.0354512
-0.0644271
-0.0659061
-0.02134
-0.0761853
-0.0180133
-0.0610794
-0.0236269
-0.03087
-0.0426936
-0.0449863
-0.0374373
-0.0387321
-0.0271079
-0.012506
-0.0155969
-0.00398993
-0.00660622
0.00134957
1345.03
1055.24
1149.04
1323.37
1293.02
1561.45
1767.52
1782.48
1479.96
1299.06
1468.14
1614.17
2171.82
2255.85
2262.1
2229.82
2081.18
1911.54
1442.86
1109.16
604.025
435.395
185.376
77.8097
20.5272
16.1383
10.1125
5.69912
3.77726
3.23321
2.88791
1.95541
3.03645
2.58997
1.97571
1.59049
3.17807
3.70838
2.54411
2.43049
4.66752
4.44237
3.94309
2.57485
4.75203
4.97316
4.48237
3.56949
1.90008
2.10306
2.57144
3.23318
0.291174
0.275518
0.222854
0.342258
-0.27128
-0.289888
-0.496599
-0.800423
-0.363057
-0.466849
-0.68274
-0.828391
-0.505049
-0.648796
-0.803864
-0.759922
-0.540411
-0.530757
-0.5559
-0.715102
-0.414049
-0.337084
-0.460656
-0.514655
-0.367088
-0.360435
-0.382348
-0.406435
-0.323431
-0.366729
-0.376436
-0.389398
-0.262023
-0.316251
-0.331251
-0.385048
-0.289749
-0.328729
-0.35209
-0.393106
-0.213223
-0.251091
-0.282747
-0.309386
-0.224735
-0.236831
-0.25546
-0.28337
-0.181403
-0.216152
-0.231803
-0.241328
-0.182658
-0.172388
-0.201529
-0.210212
-0.134728
-0.163067
-0.168205
-0.180955
-0.12902
-0.131744
-0.146016
-0.15358
-0.120022
-0.125278
-0.129444
-0.140288
-0.0862781
-0.104553
-0.110177
-0.119055
-0.0869518
-0.0912742
-0.0945744
-0.103332
-0.0674183
-0.0740137
-0.0776562
-0.083766
-0.0573703
-0.061336
-0.064711
-0.067096
-0.0413743
-0.0500745
-0.0520324
-0.0522863
-0.0379041
-0.0389553
-0.0406044
-0.0444932
-0.0238943
-0.0323058
-0.0319795
-0.0346419
-0.0190044
-0.0216068
-0.0229328
-0.0244782
-0.024263
-0.0171156
-0.0205881
-0.0198297
-0.0154478
-0.00998365
-0.012668
-0.0102394
-0.00627928
-0.00421467
-0.00701988
-0.00640841
-0.00465598
0.001146
-0.00608528
0.00314253
465.168
57.2281
388.93
823.927
1040.96
1058.56
465.829
85.1408
18.4053
4.92966
3.79113
3.54044
3.22715
2.99195
2.82375
2.70241
2.62617
2.57622
2.55331
1582.28
1261.14
1362.44
1495.29
1558.36
1650.52
1471.28
829.739
217.707
20.8959
4.31601
3.87294
3.28327
2.91317
2.72629
2.60733
2.53517
2.48933
2.46832
1805.1
2152.53
2241.83
2139.41
1954.87
1347.52
436.866
91.3494
11.221
0.922907
1.33802
2.40547
2.63359
2.63278
2.55438
2.47429
2.41984
2.38299
2.36572
2173.36
2479.04
2117.42
1913.46
1407.89
645.342
238.579
82.9059
29.0092
8.17228
3.04104
2.49639
2.39189
2.40252
2.37127
2.32578
2.28889
2.26204
2.24905
1120.38
1427.69
1511.95
1259.37
848.22
416.295
198.463
88.3611
31.199
9.14409
3.42207
2.29791
2.15668
2.18548
2.18552
2.16589
2.14566
2.12871
2.12027
78.6428
138.143
412.398
378.566
302.624
228.957
116.379
91.0023
44.3336
12.8642
4.10609
2.26615
1.9857
1.99227
2.00427
2.00236
1.99527
1.98734
1.98316
4.2892
3.23
14.977
36.8332
35.5543
27.1487
30.3043
44.3885
39.2624
15.9145
4.45269
2.13622
1.78026
1.7874
1.81831
1.8337
1.83932
1.83967
1.8396
0.78821
1.03181
-0.70335
-1.5748
1.27754
1.6913
9.00684
25.5635
25.389
13.8065
4.03202
1.84492
1.5499
1.58405
1.63316
1.66386
1.68074
1.6891
1.69293
0.424988
0.440598
0.188755
-3.41144
-2.60748
-0.122053
9.98433
17.5111
14.8923
7.94559
2.52123
1.29964
1.25417
1.36028
1.4427
1.49226
1.52148
1.53752
1.5452
-0.453081
-0.45542
-4.27684
-3.54636
-3.0658
-2.09396
4.28836
14.8054
10.4823
4.27465
1.06034
0.736102
0.96298
1.14687
1.256
1.32314
1.36352
1.3872
1.39878
0.591613
-4.2732
-3.82772
-2.838
-2.76779
0.33255
6.67907
10.0049
7.76012
2.13351
0.36406
0.450887
0.751111
0.954962
1.08396
1.16299
1.21202
1.24161
1.25677
1.63158
-0.356386
0.00108408
2.98192
6.17045
5.03617
6.37202
5.37257
1.71707
-0.384312
-0.199188
0.218315
0.566027
0.780873
0.921167
1.01012
1.06494
1.10015
1.1198
2.4869
2.38364
2.69943
2.56657
3.18783
2.88962
2.27907
0.153481
-0.830486
-0.909595
-0.358788
0.0657826
0.420004
0.628434
0.781736
0.870412
0.930188
0.967644
0.990453
-0.073687
-0.650407
-1.43094
-1.3173
-1.1576
-1.16555
-1.51189
-1.74221
-1.4377
-1.08341
-0.419477
-0.0356693
0.303629
0.498636
0.648693
0.743622
0.80196
0.841213
0.87043
-1.33524
-1.91249
-1.99513
-2.05609
-2.24085
-2.1931
-2.18325
-1.92256
-1.40155
-1.14804
-0.488068
-0.129944
0.200381
0.3785
0.534937
0.609145
0.678162
0.717009
0.740473
-1.08114
-1.45428
-1.87189
-1.93124
-2.05626
-1.97746
-1.78888
-1.38033
-1.02569
-0.492405
-0.413711
-0.174741
0.0884666
0.261457
0.368345
0.505835
0.563225
0.576808
0.5839
-1.09535
-1.38859
-1.46039
-1.60278
-1.66878
-1.71473
-1.63432
-1.30409
-0.812135
-0.753922
-0.345952
-0.225431
0.074716
0.23102
0.379816
0.409556
0.468435
0.48502
0.486785
-0.767019
-1.04191
-0.989306
-1.00453
-1.66276
-1.46369
-1.42719
-0.877009
-0.857555
-0.772438
-0.334666
-0.0127576
0.0266767
0.173108
0.261094
0.338111
0.421761
0.455835
0.470992
-0.699746
-0.757293
-1.37358
-1.34237
-0.877017
-1.07055
-1.09493
-0.903479
-0.823813
-0.452973
-0.321431
-0.177559
-0.00392118
0.198869
0.238363
0.314961
0.38756
0.431419
0.452165
-0.644134
-0.673484
-1.04126
-0.715468
-0.939495
-1.1548
-0.831944
-0.694598
-0.43869
-0.467943
-0.15472
-0.136157
0.00805981
0.0727041
0.193911
0.29409
0.323878
0.355693
0.372542
-0.630077
-0.584904
-0.834601
-0.771993
-0.813057
-0.500283
-0.597341
-0.71582
-0.477718
-0.390116
-0.282805
-0.101848
0.0320105
0.0962109
0.174571
0.262978
0.297707
0.313465
0.322636
-0.459357
-0.531254
-0.642624
-0.635305
-0.705365
-0.673043
-0.556129
-0.479884
-0.269189
-0.265498
-0.271886
-0.127733
0.0313014
0.0592307
0.104775
0.172
0.267751
0.261892
0.277801
-0.45183
-0.469134
-0.583188
-0.571859
-0.58457
-0.521912
-0.549575
-0.343883
-0.358643
-0.23474
-0.102198
-0.0966332
-0.0557472
0.0170819
0.150424
0.158196
0.215231
0.230576
0.245512
-0.389113
-0.402306
-0.489637
-0.494573
-0.515974
-0.454785
-0.455223
-0.385371
-0.278266
-0.227648
-0.0674733
-0.0361477
-0.039905
0.098881
0.147699
0.148935
0.163494
0.207235
0.215283
-0.325056
-0.393878
-0.425683
-0.431309
-0.45291
-0.392741
-0.379943
-0.273397
-0.264789
-0.186121
-0.15178
-0.0409508
0.0211193
0.0913173
0.0836802
0.148068
0.151579
0.190806
0.199165
-0.281862
-0.296964
-0.379697
-0.389584
-0.368436
-0.340554
-0.360445
-0.231521
-0.227455
-0.13272
-0.115953
-0.0272833
-0.0085407
0.0401481
0.104034
0.129298
0.172
0.162871
0.172007
-0.223957
-0.260644
-0.298376
-0.331241
-0.376669
-0.293501
-0.279767
-0.127163
-0.282917
-0.112819
-0.109499
-0.0188898
-0.00865404
0.0509373
0.0921966
0.111517
0.138956
0.155848
0.157353
-0.210237
-0.197698
-0.250521
-0.258322
-0.291755
-0.286884
-0.348341
-0.162824
-0.129608
-0.0332054
-0.155762
-0.0115374
0.00729514
0.0557689
0.10212
0.0718337
0.121304
0.137223
0.135204
-0.174903
-0.193952
-0.173369
-0.230374
-0.242654
-0.211939
-0.261328
-0.248636
-0.272162
-0.0709372
-0.0182158
0.0231388
-0.0436168
0.0354742
0.0612139
0.107198
0.137634
0.123997
0.130358
-0.147461
-0.154728
-0.179383
-0.128414
-0.210007
-0.177066
-0.203557
-0.17369
-0.192386
-0.195924
-0.186235
0.00711848
0.0935511
0.0856078
0.0744984
0.0478539
0.0919553
0.0881035
0.108204
-0.130892
-0.135809
-0.144647
-0.153354
-0.131822
-0.0996763
-0.227487
-0.169913
-0.176753
-0.127456
-0.137774
-0.15493
-0.138782
-0.0108382
0.0572776
0.137638
0.157824
0.169868
0.11206
-0.110317
-0.111515
-0.118214
-0.119766
-0.0735029
-0.12952
-0.0411834
-0.177606
-0.140833
-0.128914
-0.110357
-0.077403
-0.0642806
-0.0895385
-0.0906213
-0.0874531
-0.0737682
-0.0172759
0.09915
-0.103341
-0.0959858
-0.103356
-0.102846
-0.114413
-0.0264257
-0.105617
-0.0361695
-0.161615
-0.10528
-0.11321
-0.0828101
-0.069855
-0.0420394
-0.0180495
-0.00229632
0.000532934
-0.0339644
-0.073999
-0.0745292
-0.0751683
-0.0916508
-0.0496784
-0.0770505
-0.0846412
-0.0140116
-0.0782299
-0.020806
-0.124989
-0.0770607
-0.0687144
-0.0561831
-0.047192
-0.0373318
-0.0311643
-0.0196829
-0.0154244
-0.00231245
-0.0659809
-0.0642746
-0.0750552
-0.0792204
-0.0637131
-0.0567647
-0.0705236
-0.0121221
-0.0558684
-0.0225102
-0.10534
-0.0630158
-0.0526155
-0.0404897
-0.0294133
-0.0235686
-0.0185114
-0.0196154
-0.0198382
-0.0427305
-0.0585214
-0.0403311
-0.046032
-0.0403512
-0.0462085
-0.0151413
-0.0601504
-0.0197415
-0.02167
-0.00918309
-0.0351266
-0.0323094
-0.0313411
-0.026417
-0.0232912
-0.0196142
-0.0191229
-0.0175689
-0.0382101
-0.0448495
-0.0466576
-0.0503912
-0.0248876
-0.0383661
-0.0505893
-0.0191752
-0.0210946
-0.0362964
-0.0647705
-0.0745833
-0.0380395
-0.0318547
-0.0243511
-0.0215339
-0.0188698
-0.0180329
-0.0160497
-0.0247727
-0.0302435
-0.0211108
-0.0299637
-0.0328129
-0.0250636
-0.00989809
-0.018167
-0.0211513
0.0109502
0.020597
-0.00997522
-0.0163349
-0.024167
-0.0230722
-0.0232
-0.0229507
-0.0235282
-0.0235147
-0.0224311
-0.0246798
-0.0235934
-0.022134
-0.0234744
-0.00749882
-0.0131433
-0.000843714
-0.0243895
-0.0232622
-0.019797
-0.0160341
-0.0185383
-0.0159104
-0.0139832
-0.0135078
-0.0124532
-0.0119161
-0.0115337
-0.011613
-0.0164507
-0.0026058
-0.0109085
-0.0114622
-0.0258221
-0.00996919
-0.00589382
-0.000154363
0.00759646
0.00162536
-0.00842737
-0.0214045
-0.0256521
-0.0310338
-0.0339053
-0.035851
-0.0370507
-0.0375273
-0.00695517
-0.0122879
-0.0117004
-0.0134544
-0.0190146
-0.0071433
-0.0170485
-0.0033515
-0.0186587
-0.0140222
-0.00617773
-0.00430148
-0.00257202
0.00435061
0.00583799
0.00784096
0.00831216
0.00882348
0.0089811
-0.00412873
0.00332363
-0.00900365
0.00200886
0.011927
0.00105836
-9.7705e-06
0.019599
0.0547399
0.0452882
0.026948
-0.0159519
-0.0344182
-0.0522341
-0.0631488
-0.0700844
-0.0748441
-0.0778431
-0.078695
)
;

boundaryField
{
    leftWall
    {
        type            zeroGradient;
    }
    rightWall
    {
        type            zeroGradient;
    }
    lowerWall
    {
        type            zeroGradient;
    }
    atmosphere
    {
        type            totalPressure;
        rho             rho;
        psi             none;
        gamma           1;
        p0              uniform 0;
        value           nonuniform List<scalar> 
46
(
-0.0534184
-0.0543287
-0.0522417
-0.0609064
-0.0430157
-0.0403289
-0.0363064
-0.025932
-0.0381488
-0.0191309
-0.031709
-0.0192118
-0.0226542
-0.0205782
-0.0205366
-0.0146611
-0.0122979
-0.00715705
-0.00433258
-0.00343442
-0.00130173
-0.0012626
-6.93449e-05
-7.14112e-05
0
0
0
0
0
0
0
0
0
0
0
0
0
0
0
0
0
0
0
0
0
0
)
;
    }
    defaultFaces
    {
        type            empty;
    }
}


// ************************************************************************* //
