/*--------------------------------*- C++ -*----------------------------------*\
| =========                 |                                                 |
| \\      /  F ield         | foam-extend: Open Source CFD                    |
|  \\    /   O peration     | Version:     4.1                                |
|   \\  /    A nd           | Web:         http://www.foam-extend.org         |
|    \\/     M anipulation  |                                                 |
\*---------------------------------------------------------------------------*/
FoamFile
{
    version     2.0;
    format      ascii;
    class       surfaceScalarField;
    location    "0.25";
    object      phi;
}
// * * * * * * * * * * * * * * * * * * * * * * * * * * * * * * * * * * * * * //

dimensions      [0 3 -1 0 0 0 0];

internalField   nonuniform List<scalar> 
4432
(
2.04285e-06
-2.04285e-06
5.85863e-06
-3.81578e-06
1.05076e-05
-4.64899e-06
1.60483e-05
-5.54064e-06
2.11787e-05
-5.13044e-06
2.78964e-05
-6.71767e-06
3.10602e-05
-3.16379e-06
4.1027e-05
-9.96682e-06
4.77698e-05
-6.74288e-06
7.61602e-05
-2.83903e-05
8.22086e-05
-6.04846e-06
0.000101991
-1.97822e-05
0.000111531
-9.54003e-06
0.000115451
-3.91998e-06
7.38159e-05
4.16349e-05
8.04688e-05
-6.65284e-06
9.07728e-05
-1.0304e-05
0.000105112
-1.43395e-05
0.000118182
-1.30696e-05
0.000139342
-2.11601e-05
7.15306e-05
6.78114e-05
7.3004e-06
6.42303e-05
7.30048e-06
2.18314e-06
-4.226e-06
5.93746e-06
-7.5701e-06
1.04966e-05
-9.20818e-06
1.60691e-05
-1.11131e-05
2.13731e-05
-1.04344e-05
2.78998e-05
-1.32444e-05
3.11208e-05
-6.38482e-06
4.15954e-05
-2.04413e-05
4.86014e-05
-1.37489e-05
7.49586e-05
-5.47475e-05
7.95308e-05
-1.06207e-05
0.000100229
-4.04803e-05
0.00011209
-2.14013e-05
0.000117727
-9.55675e-06
0.000118754
4.0608e-05
8.63089e-05
2.57923e-05
8.94528e-05
-1.34479e-05
0.000152164
-7.70503e-05
0.000172229
-3.31347e-05
0.000151739
-6.70078e-07
0.000134886
8.46642e-05
9.60501e-05
0.000103066
0.000103351
2.05483e-06
-6.28082e-06
5.77024e-06
-1.12855e-05
1.02973e-05
-1.37352e-05
1.58162e-05
-1.6632e-05
2.07502e-05
-1.53684e-05
2.75829e-05
-2.00772e-05
3.1898e-05
-1.06999e-05
3.99007e-05
-2.84441e-05
4.46005e-05
-1.84487e-05
4.17116e-05
-5.18586e-05
7.19238e-05
-4.08329e-05
7.80438e-05
-4.66004e-05
7.8885e-05
-2.22425e-05
5.11818e-05
1.81464e-05
5.83102e-05
3.34796e-05
7.29582e-05
1.11442e-05
6.10579e-05
-1.54763e-06
4.78217e-05
-6.38141e-05
0.000107267
-9.25802e-05
0.000116303
-9.70559e-06
0.000125416
7.55513e-05
5.59885e-05
0.000172493
0.000159339
2.61268e-06
-8.89351e-06
6.11494e-06
-1.47878e-05
1.00911e-05
-1.77113e-05
1.56577e-05
-2.21986e-05
2.20463e-05
-2.17571e-05
2.90036e-05
-2.70345e-05
3.21819e-05
-1.38782e-05
3.8629e-05
-3.48911e-05
4.08204e-05
-2.06401e-05
3.78393e-05
-4.88775e-05
3.61685e-05
-3.91621e-05
3.58294e-05
-4.62613e-05
1.20415e-05
1.5454e-06
5.18418e-05
-2.16539e-05
6.55102e-05
1.98113e-05
3.71682e-05
3.94862e-05
3.97794e-05
-4.1589e-06
3.85257e-05
-6.25604e-05
4.34702e-05
-9.75246e-05
6.71306e-05
-3.3366e-05
5.13074e-05
9.13745e-05
4.9287e-05
0.000174514
0.000208626
2.24154e-06
-1.1135e-05
5.64961e-06
-1.81958e-05
9.6545e-06
-2.17162e-05
1.51886e-05
-2.77327e-05
2.24901e-05
-2.90585e-05
2.83393e-05
-3.28838e-05
2.94201e-05
-1.4959e-05
3.59318e-05
-4.14028e-05
3.82145e-05
-2.29228e-05
3.83376e-05
-4.90006e-05
6.46639e-05
-6.54884e-05
4.03482e-05
-2.19456e-05
8.51214e-05
-4.32278e-05
0.000101
-3.75329e-05
0.000112637
8.17432e-06
0.000121977
3.01468e-05
0.000110244
7.57355e-06
7.92161e-05
-3.15323e-05
2.7173e-05
-4.54815e-05
1.95904e-05
-2.57834e-05
5.15869e-05
5.93781e-05
4.41732e-05
0.000181927
0.000252799
3.24093e-06
-1.4376e-05
5.99261e-06
-2.09475e-05
9.34781e-06
-2.50714e-05
1.46609e-05
-3.30458e-05
2.15387e-05
-3.59363e-05
2.70191e-05
-3.83641e-05
5.12097e-05
-3.91497e-05
3.51154e-05
-2.53085e-05
6.10652e-05
-4.88726e-05
6.47452e-05
-5.26806e-05
6.71736e-05
-6.79168e-05
7.24093e-05
-2.71812e-05
8.10257e-05
-5.18443e-05
7.27699e-05
-2.92771e-05
0.000139277
-5.83325e-05
0.000129765
3.96583e-05
0.000100738
3.66009e-05
6.10643e-05
8.14128e-06
3.0139e-05
-1.45562e-05
-5.96068e-06
1.03163e-05
8.87907e-06
4.45383e-05
3.75754e-05
0.000153231
0.000290375
2.26677e-06
-1.66428e-05
4.96155e-06
-2.36423e-05
8.39382e-06
-2.85037e-05
1.38314e-05
-3.84834e-05
2.00587e-05
-4.21636e-05
2.44218e-05
-4.27272e-05
2.73604e-05
-4.20883e-05
3.69686e-05
-3.49167e-05
5.73415e-05
-6.92455e-05
6.20534e-05
-5.73925e-05
4.08693e-05
-4.67327e-05
7.84774e-05
-6.47893e-05
4.80022e-05
-2.1369e-05
6.64495e-05
-4.77244e-05
7.73555e-05
-6.92385e-05
0.000127204
-1.01897e-05
0.00010679
5.70147e-05
5.92673e-05
5.56637e-05
2.30831e-05
2.1628e-05
5.7247e-06
2.76747e-05
8.87863e-07
4.93752e-05
3.6754e-05
0.000117365
0.000327129
3.62377e-06
-2.02665e-05
4.61294e-06
-2.46315e-05
7.62577e-06
-3.15165e-05
1.32138e-05
-4.40714e-05
1.94635e-05
-4.84134e-05
2.48964e-05
-4.81601e-05
4.55268e-05
-6.27187e-05
5.73664e-05
-4.67562e-05
6.01759e-05
-7.20551e-05
6.69693e-05
-6.4186e-05
7.42342e-05
-5.39976e-05
4.62014e-05
-3.67565e-05
8.25358e-05
-5.77034e-05
0.000100141
-6.533e-05
5.45408e-05
-2.36379e-05
4.59456e-05
-1.59453e-06
7.1104e-05
3.18562e-05
4.61673e-05
8.06004e-05
9.28197e-06
5.85133e-05
6.44164e-06
3.05151e-05
6.50051e-06
4.93164e-05
4.74466e-05
7.64185e-05
0.000374575
-1.72528e-05
1.72528e-05
-3.58477e-05
1.85951e-05
-5.01514e-05
1.43041e-05
-6.12328e-05
1.10817e-05
-6.61565e-05
4.92408e-06
-4.62817e-05
-1.98744e-05
-2.70383e-05
-1.92431e-05
-4.41577e-06
-2.26224e-05
1.52029e-05
-1.96187e-05
3.04565e-05
-1.52537e-05
4.3893e-05
-1.34368e-05
6.03103e-05
-1.64177e-05
3.54223e-05
2.48875e-05
3.14288e-05
3.99287e-06
2.57487e-05
5.67985e-06
1.93396e-05
6.40888e-06
1.29015e-05
6.43809e-06
6.44356e-06
6.45783e-06
6.4435e-06
-1.76302e-05
3.48834e-05
-3.80232e-05
3.89885e-05
-5.29761e-05
2.92577e-05
-6.35906e-05
2.16967e-05
-6.94491e-05
1.07832e-05
-4.91926e-05
-4.01305e-05
-2.7215e-05
-4.12205e-05
-2.29213e-06
-4.75453e-05
1.91028e-05
-4.1014e-05
3.42015e-05
-3.03531e-05
4.94515e-05
-2.86877e-05
3.58225e-05
-2.78962e-06
3.92317e-05
2.14777e-05
3.35328e-05
9.69117e-06
2.68751e-05
1.23371e-05
2.04954e-05
1.27883e-05
1.37111e-05
1.32223e-05
6.85271e-06
1.33161e-05
1.32962e-05
-1.97368e-05
5.46205e-05
-4.41681e-05
6.34202e-05
-6.13132e-05
4.64034e-05
-7.10187e-05
3.14028e-05
-7.95699e-05
1.9335e-05
-5.05706e-05
-6.91293e-05
-2.88546e-05
-6.29365e-05
2.34808e-07
-7.66349e-05
2.0583e-05
-6.13627e-05
3.73191e-05
-4.70897e-05
5.59175e-05
-4.72869e-05
3.68122e-05
1.63149e-05
3.94898e-05
1.87995e-05
3.43979e-05
1.47825e-05
2.77616e-05
1.8973e-05
2.08774e-05
1.96723e-05
1.38741e-05
2.02255e-05
6.91334e-06
2.02768e-05
2.02095e-05
-1.64204e-05
7.10413e-05
-4.27913e-05
8.97914e-05
-6.36204e-05
6.72332e-05
-7.36651e-05
4.14479e-05
-8.57157e-05
3.1386e-05
-6.68743e-05
-8.79703e-05
-2.43434e-05
-0.000105467
4.11335e-06
-0.000105092
2.49467e-05
-8.21965e-05
4.48912e-05
-6.70348e-05
3.43306e-05
-3.67271e-05
4.07223e-05
9.92249e-06
3.95169e-05
2.00043e-05
3.38746e-05
2.04243e-05
2.74971e-05
2.53502e-05
2.08176e-05
2.63516e-05
1.38743e-05
2.71687e-05
6.9173e-06
2.72337e-05
2.71267e-05
-3.08735e-06
7.4129e-05
-3.09727e-05
0.000117677
-5.07575e-05
8.70184e-05
-6.59453e-05
5.66361e-05
-7.33451e-05
3.87859e-05
-5.47476e-05
-0.000106568
-2.06454e-05
-0.000139569
8.71001e-06
-0.000134448
3.16996e-05
-0.000105187
5.53847e-05
-9.07202e-05
3.62416e-05
-1.75847e-05
4.18058e-05
4.35767e-06
4.04896e-05
2.13201e-05
3.47238e-05
2.61896e-05
2.78425e-05
3.2231e-05
2.09311e-05
3.32629e-05
1.39132e-05
3.41864e-05
6.92635e-06
3.42205e-05
3.4053e-05
2.4012e-05
5.01174e-05
-3.99026e-06
0.000145679
-2.83227e-05
0.000111351
-3.79851e-05
6.62986e-05
-1.34696e-05
1.42706e-05
-1.83324e-06
-0.000118204
-7.65972e-06
-0.000133743
3.08083e-05
-0.000172916
5.58651e-05
-0.000130244
3.68695e-05
-7.17249e-05
4.16551e-05
-2.23709e-05
4.33223e-05
2.68997e-06
4.09606e-05
2.36816e-05
3.49048e-05
3.2245e-05
2.80537e-05
3.90818e-05
2.10053e-05
4.03111e-05
1.39362e-05
4.12554e-05
6.92893e-06
4.12277e-05
4.09819e-05
5.48656e-05
-4.7479e-06
3.18264e-05
0.000168718
7.27874e-06
0.000135899
1.1281e-07
7.34645e-05
1.73555e-05
-2.97213e-06
3.92489e-05
-0.000140097
4.36831e-05
-0.000138177
3.59023e-05
-0.000165135
3.68033e-05
-0.000131145
3.92102e-05
-7.41324e-05
4.41079e-05
-2.7269e-05
4.53286e-05
1.46899e-06
4.17959e-05
2.72142e-05
3.51278e-05
3.89129e-05
2.81939e-05
4.60154e-05
2.10601e-05
4.74447e-05
1.39514e-05
4.8364e-05
6.92721e-06
4.82518e-05
4.79091e-05
2.55511e-05
-3.02988e-05
1.80491e-05
0.00017622
1.65971e-05
0.000137351
2.38054e-05
6.62562e-05
5.44885e-05
-3.36553e-05
6.24204e-05
-0.000148029
5.51544e-05
-0.000130911
5.0931e-05
-0.000160912
4.99481e-05
-0.000130162
4.47431e-05
-6.89283e-05
4.82109e-05
-3.0737e-05
4.78807e-05
1.79934e-06
4.35836e-05
3.15113e-05
3.62005e-05
4.6296e-05
2.86417e-05
5.35741e-05
2.12361e-05
5.48502e-05
1.40277e-05
5.55724e-05
6.95383e-06
5.53257e-05
5.48629e-05
8.15107e-06
-2.84176e-05
1.64808e-05
-3.29612e-05
2.80924e-05
-4.31282e-05
5.24324e-05
-6.84115e-05
7.03702e-05
-6.63512e-05
9.00683e-05
-6.78582e-05
0.000101166
-7.38159e-05
0.00013018
-7.5771e-05
0.000150523
-9.23976e-05
0.000167592
-8.12549e-05
0.00017586
-6.22654e-05
0.000169489
-3.03858e-05
0.000171551
-5.97658e-05
0.00013649
-3.02687e-05
0.000148328
-3.54755e-05
0.000182297
-3.55643e-05
0.000169421
4.47327e-05
0.000154439
9.55823e-05
0.000154599
5.83537e-05
0.000146253
3.88602e-05
0.000175086
2.04834e-05
0.000136186
0.000115319
0.000206962
0.000303799
-2.45024e-06
-2.59674e-05
1.35841e-05
-4.89955e-05
2.8172e-05
-5.77161e-05
4.5158e-05
-8.53975e-05
3.96883e-05
-6.08815e-05
5.25682e-05
-8.07381e-05
6.01214e-05
-8.13691e-05
7.85189e-05
-9.41685e-05
9.42952e-05
-0.000108174
0.0001019
-8.88597e-05
0.000113361
-7.37262e-05
0.000159797
-7.68222e-05
0.000173639
-7.36078e-05
0.000214403
-7.10325e-05
0.000212577
-3.36495e-05
0.000206022
-2.90093e-05
0.000231073
1.9682e-05
0.000260811
6.58444e-05
0.000254934
6.423e-05
0.000268064
2.57303e-05
0.000186596
0.000101951
0.000233016
6.88997e-05
0.000118556
0.000321422
1.42264e-05
-4.01937e-05
5.34461e-06
-4.01137e-05
2.62789e-05
-7.86504e-05
3.18433e-05
-9.09619e-05
3.86674e-05
-6.77055e-05
4.98967e-05
-9.19674e-05
6.27044e-05
-9.41768e-05
8.20549e-05
-0.000113519
9.705e-05
-0.000123169
0.000106665
-9.84749e-05
0.000171683
-0.000138744
0.000155165
-6.03038e-05
0.000186729
-0.000105171
0.000221447
-0.000105751
0.00022031
-3.25121e-05
0.000203854
-1.25537e-05
0.000220575
2.9607e-06
0.000255515
3.0905e-05
0.0002894
3.0345e-05
0.000206884
0.000108246
0.000235467
7.3369e-05
0.000252356
5.20105e-05
8.43358e-05
0.000286576
1.73003e-05
-5.7494e-05
3.53008e-05
-5.81142e-05
1.89995e-05
-6.23491e-05
4.26054e-05
-0.000114568
2.96414e-05
-5.47416e-05
4.68614e-05
-0.000109187
6.683e-05
-0.000114145
8.70359e-05
-0.000133725
9.70556e-05
-0.000133189
0.000146778
-0.000148197
9.74702e-05
-8.94366e-05
0.000149616
-0.00011245
0.000110621
-6.61761e-05
0.000131571
-0.000126702
0.000138792
-3.97328e-05
0.000189961
-6.37231e-05
0.000194812
-1.89005e-06
0.000208923
1.67945e-05
0.000169045
7.02224e-05
0.000218357
5.89335e-05
0.000240192
5.15347e-05
0.000247905
4.42967e-05
1.56948e-05
0.000316546
1.68935e-05
-7.43875e-05
3.49985e-05
-7.62193e-05
5.71495e-05
-8.45001e-05
3.2605e-05
-9.00233e-05
7.42984e-05
-9.6435e-05
5.71533e-05
-9.20422e-05
5.46691e-05
-0.000111661
9.59961e-05
-0.000175052
0.000105924
-0.000143116
6.03358e-05
-0.000102609
0.000104146
-0.000133247
9.06751e-05
-9.89784e-05
0.00014855
-0.000124051
0.000124313
-0.000102465
0.000193008
-0.000108427
0.0001697
-4.04156e-05
0.000207371
-3.95605e-05
0.000252674
-2.85091e-05
0.000307127
1.57697e-05
0.000353546
1.25144e-05
0.00036887
3.62109e-05
0.000355588
5.75787e-05
6.37225e-05
0.00030756
9.17562e-06
-8.35631e-05
1.81253e-05
-8.5169e-05
2.64911e-05
-9.28658e-05
2.64438e-05
-8.99761e-05
3.43723e-05
-0.000104364
4.54589e-05
-0.000103129
4.87511e-05
-0.000114953
2.79858e-05
-0.000154287
3.32362e-05
-0.000148367
3.09118e-06
-7.24641e-05
-7.77551e-06
-0.00012238
2.10357e-05
-0.00012779
6.63909e-05
-0.000169406
8.17599e-05
-0.000117834
7.10182e-05
-9.76855e-05
0.000105414
-7.48111e-05
0.000133311
-6.74582e-05
0.000166071
-6.12686e-05
0.000177257
4.58376e-06
0.000122852
6.69192e-05
9.86128e-05
6.04501e-05
8.23742e-05
7.38171e-05
2.76985e-05
0.000118398
5.75678e-06
-8.93199e-05
1.20224e-05
-9.14347e-05
1.4744e-05
-9.55873e-05
2.01306e-05
-9.53627e-05
2.61985e-05
-0.000110431
3.26463e-05
-0.000109576
1.42935e-05
-9.66007e-05
-6.4834e-05
-7.51591e-05
-5.52326e-05
-0.000157968
-3.51365e-05
-9.25603e-05
-3.5042e-05
-0.000122475
6.16401e-05
-0.000224472
9.73731e-05
-0.000205139
0.000109512
-0.000129973
9.23614e-05
-8.0535e-05
7.70402e-05
-5.94899e-05
6.55105e-05
-5.59285e-05
6.46474e-05
-6.04055e-05
6.00494e-05
9.18181e-06
7.34173e-05
5.35512e-05
0.000100675
3.31921e-05
0.000137663
3.68296e-05
-5.34249e-06
0.000170704
3.45449e-06
-9.27743e-05
7.46027e-06
-9.54405e-05
7.39337e-06
-9.55204e-05
1.71405e-05
-0.00010511
1.68594e-05
-0.00011015
7.15884e-05
-0.000164306
5.61085e-05
-8.11207e-05
2.26609e-05
-4.17116e-05
8.43303e-06
-0.00014374
-3.43973e-06
-8.06875e-05
-1.82616e-06
-0.000124088
7.09439e-05
-0.000297242
0.000108241
-0.000242437
9.39348e-05
-0.000115666
4.38232e-05
-3.04233e-05
3.93324e-05
-5.49991e-05
6.65728e-05
-8.3169e-05
6.50761e-05
-5.89088e-05
8.62982e-05
-1.20403e-05
0.000118863
2.09862e-05
0.000127599
2.44563e-05
0.000186015
-2.15864e-05
-0.000133975
0.000314647
8.45082e-06
-0.000101225
6.49248e-06
-9.34821e-05
9.53218e-06
-9.85601e-05
1.31601e-05
-0.000108738
7.10662e-05
-0.000168056
1.81781e-05
-0.000111417
5.85458e-06
-6.87973e-05
6.1234e-05
-9.7091e-05
7.12613e-05
-0.000153767
7.92807e-05
-8.87069e-05
4.46184e-05
-8.94262e-05
5.30385e-05
-0.000305662
2.88484e-05
-0.000218247
-1.64218e-05
-7.03957e-05
-3.57714e-07
-4.64873e-05
1.7612e-05
-7.29688e-05
2.40421e-05
-8.9599e-05
3.43175e-05
-6.91842e-05
6.53784e-05
-4.31012e-05
0.000175371
-8.9006e-05
0.00024441
-4.45835e-05
0.000294276
-7.14518e-05
-0.00021249
0.000372791
1.78857e-05
-0.000119111
1.74169e-05
-9.30133e-05
2.21315e-05
-0.000103275
2.32801e-05
-0.000109886
3.66216e-05
-0.000181398
1.69567e-05
-9.17525e-05
3.45385e-06
-5.52944e-05
1.97158e-05
-0.000113353
1.729e-05
-0.000151342
6.2666e-05
-0.000134083
7.31577e-05
-9.99178e-05
2.35424e-05
-0.000256047
-2.33394e-05
-0.000171365
-4.04183e-05
-5.33167e-05
2.29252e-05
-0.000109831
4.16134e-05
-9.16571e-05
4.7718e-05
-9.57036e-05
3.83577e-05
-5.98239e-05
4.59943e-05
-5.07378e-05
3.92108e-05
-8.22225e-05
8.9356e-05
-9.47287e-05
0.000125131
-0.000107227
-0.000256386
0.000169027
1.99416e-05
-0.000139053
3.52877e-05
-0.000108359
3.44828e-05
-0.00010247
6.20475e-05
-0.000137451
4.99374e-06
-0.000124344
-7.15065e-06
-7.96081e-05
1.03969e-05
-7.2842e-05
4.05524e-05
-0.000143509
7.93926e-05
-0.000190182
0.000118691
-0.000173381
0.000162513
-0.00014374
8.67744e-05
-0.000180308
3.93839e-05
-0.000123974
6.97838e-06
-2.09112e-05
4.4128e-05
-0.000146981
5.97839e-05
-0.000107313
8.86256e-05
-0.000124545
4.2216e-05
-1.34144e-05
4.52373e-05
-5.37591e-05
4.60529e-05
-8.30382e-05
2.82094e-05
-7.68852e-05
4.46044e-05
-0.000123622
-0.000242413
3.06319e-05
2.98178e-05
-0.00016887
7.10852e-05
-0.000149627
5.22564e-05
-8.3641e-05
4.82151e-05
-0.00013341
5.56649e-05
-0.000131794
9.59675e-05
-0.000119911
0.000115369
-9.22434e-05
0.000159032
-0.000187172
0.00018546
-0.000216609
0.000205724
-0.000193646
0.000191341
-0.000129357
0.000116808
-0.000105775
5.71002e-06
-1.28764e-05
-2.33646e-05
8.16341e-06
-3.68561e-05
-0.000133489
5.658e-05
-0.000200749
3.73869e-05
-0.000105352
3.34332e-05
-9.46073e-06
4.03509e-05
-6.06768e-05
2.10563e-05
-6.37437e-05
-2.91755e-05
-2.66534e-05
-3.89615e-05
-0.000113836
-0.000207816
-7.3559e-05
5.56957e-06
-0.00017444
1.03007e-05
-0.000154358
7.79901e-06
-8.11393e-05
7.29297e-05
-0.00019854
6.65343e-05
-0.000125399
0.000160249
-0.000213625
0.000158393
-9.03877e-05
0.000174248
-0.000203027
0.00017593
-0.00021829
0.000133085
-0.000150801
8.20504e-05
-7.83223e-05
-9.46173e-06
-1.42629e-05
-3.787e-05
1.55319e-05
-2.5204e-05
-4.5026e-06
-6.0665e-05
-9.80281e-05
-4.86301e-05
-0.000212784
-5.01056e-05
-0.000103877
-2.81831e-05
-3.13832e-05
-3.46897e-05
-5.41704e-05
-4.55872e-05
-5.28462e-05
-5.04168e-05
-2.18239e-05
-7.10847e-05
-9.31683e-05
-0.000166796
-0.000112104
-2.51038e-05
-0.000149336
-2.83024e-05
-0.000151159
3.15102e-05
-0.000140952
3.07569e-05
-0.000197787
0.000130533
-0.000225175
0.000182715
-0.000265807
0.00011366
-2.13328e-05
4.83485e-05
-0.000137715
3.95432e-05
-0.000209485
8.05522e-05
-0.00019181
-4.43642e-06
6.6663e-06
-0.000138565
0.000119866
-0.000159004
3.59703e-05
-0.000110124
-5.33825e-05
-7.867e-05
-0.000129482
-7.40097e-05
-0.000217444
-9.22569e-05
-8.56295e-05
-6.5518e-05
-5.81221e-05
-6.90032e-05
-5.06852e-05
-7.32741e-05
-4.85754e-05
-4.09775e-05
-5.41206e-05
-8.42219e-05
-4.99239e-05
-0.00012037
-0.000130649
-1.39924e-05
-0.000135344
2.09638e-07
-0.000165361
3.34171e-05
-0.000174159
2.34867e-05
-0.000187857
-1.24544e-05
-0.000189233
-4.21318e-05
-0.00023613
6.65118e-05
-0.000129976
3.22193e-05
-0.000103423
-3.84431e-05
-0.000138823
-4.6627e-05
-0.000183626
-2.23958e-05
-1.75649e-05
-1.56497e-05
0.00011312
5.92297e-06
1.43977e-05
1.33435e-05
-6.0803e-05
-1.79583e-05
-9.81799e-05
-0.000130876
-0.000104527
-0.000138696
-7.78092e-05
-0.000101188
-9.56297e-05
-7.93562e-05
-7.25172e-05
-7.17998e-05
-5.61318e-05
-5.9885e-05
-6.60355e-05
-5.42188e-05
-5.55902e-05
-5.43342e-05
-0.000120254
-6.51051e-06
-0.000128833
2.06933e-05
-0.000192565
-1.80244e-06
-0.000151664
-3.92165e-05
-0.000150443
-6.71858e-05
-0.000161264
-7.95213e-05
-0.000223794
-1.0308e-06
-0.000208467
-3.59865e-07
-0.000104094
-2.77483e-05
-0.000111434
-6.01719e-05
-0.000151202
-4.08804e-05
-3.68564e-05
2.09715e-05
5.12677e-05
4.86327e-05
-1.32635e-05
1.14859e-05
-2.36562e-05
-4.14569e-05
-4.52371e-05
-7.15709e-05
-7.44131e-05
-9.41764e-05
-5.52037e-05
-0.000101563
-8.82431e-05
-9.76285e-05
-7.64517e-05
-0.000120149
-3.36114e-05
-0.000123069
-6.3115e-05
-7.75592e-05
-0.0001011
-5.42072e-05
-7.76863e-05
3.23624e-05
-0.000161196
-2.68362e-07
-0.000159934
-3.86203e-05
-0.000113312
-8.87226e-05
-0.00010034
-9.17724e-05
-0.000158214
-0.00013035
-0.000185217
-5.87622e-05
-0.000280055
-5.57646e-05
-0.000107092
-3.34986e-05
-0.0001337
-5.28105e-05
-0.00013189
-4.79904e-05
-4.16765e-05
1.97698e-05
-1.64926e-05
4.1629e-06
2.34338e-06
-1.60373e-05
-3.45606e-06
-3.10219e-05
-3.02525e-05
-6.34523e-05
-4.19827e-05
-7.61727e-05
-4.24834e-05
-8.87944e-05
-7.56213e-05
-0.000112386
-5.28599e-05
-6.59004e-05
-8.00972e-05
-6.66667e-05
-6.23487e-05
-7.22663e-05
-9.55008e-05
-5.7326e-05
-6.91475e-05
4.22919e-05
-0.000203488
-2.61223e-05
-9.15203e-05
-6.17167e-05
-7.77172e-05
-0.000115596
-4.64607e-05
-5.58682e-05
-0.000217942
-6.49603e-05
-0.000176125
-0.000130901
-0.000214114
-0.000101263
-0.00013673
-0.000125061
-0.000109903
-0.00015857
-9.83813e-05
-0.000137735
-6.25118e-05
-8.99171e-05
-6.43105e-05
-7.622e-05
-1.13537e-05
-5.56452e-05
-2.40309e-05
-4.911e-05
-3.67877e-05
-6.02439e-05
-3.08488e-05
-6.43793e-05
-3.8348e-05
-9.16641e-05
-4.83366e-05
-4.42936e-05
-0.00010023
-6.40722e-05
-6.03185e-05
-7.90696e-05
-4.73513e-05
-8.7835e-05
-8.67355e-05
-4.98254e-05
-9.53356e-05
-8.20784e-07
-0.000202667
-3.21347e-06
-8.91276e-05
-2.33956e-05
-5.7535e-05
-4.13283e-06
-6.57236e-05
-4.90998e-05
-0.000172976
-5.90803e-05
-0.000166144
-8.18717e-05
-0.000191322
-6.85858e-05
-0.000150015
-0.000101657
-7.68312e-05
-0.000128863
-7.11755e-05
-8.87169e-05
-0.000102658
-8.43563e-05
-6.86711e-05
-7.26656e-05
-2.30444e-05
-6.59649e-05
-3.07316e-05
-6.13859e-05
-4.13668e-05
-4.65143e-05
-4.57204e-05
-4.94082e-05
-3.54541e-05
-4.95953e-05
-4.81494e-05
-0.000107817
-4.2009e-05
-0.000118789
-4.93466e-05
-7.12848e-05
-9.48551e-05
-9.02304e-05
-6.77899e-05
-4.75022e-05
-9.25536e-05
-4.06595e-06
-0.000198601
-1.88992e-06
-9.13036e-05
6.91816e-06
-6.63431e-05
-2.8593e-07
-5.85195e-05
-4.15238e-05
-0.000131738
-7.4504e-05
-0.000133164
-8.72858e-05
-0.000178541
-9.74333e-05
-0.000139868
-9.92717e-05
-7.49928e-05
-0.000110142
-6.03054e-05
-9.45001e-05
-0.0001183
-0.000130601
-3.25702e-05
-7.9071e-05
-7.45744e-05
-6.27688e-05
-4.70338e-05
-8.1302e-05
-2.28335e-05
-8.10886e-05
-4.59338e-05
-5.267e-05
-6.38727e-05
-6.31743e-05
-3.76451e-05
-6.475e-05
-4.04333e-05
-6.5549e-05
-4.85477e-05
-0.000128212
-3.21922e-05
-0.000143939
-5.20626e-05
-4.39514e-05
-0.00014749
-2.94713e-05
-0.00016913
-4.24732e-06
-0.000116528
-1.3459e-05
-5.71315e-05
-1.26264e-06
-7.07159e-05
-1.73947e-05
-0.000115606
-3.7338e-06
-0.000146825
-6.54192e-05
-0.000116855
-5.49086e-05
-0.000150379
-6.77537e-05
-6.21477e-05
-5.73894e-05
-7.06697e-05
-0.000111549
-6.41403e-05
-8.04015e-05
-6.37175e-05
-0.000112493
-4.24829e-05
-9.63871e-05
-6.31397e-05
-8.3307e-05
-3.59137e-05
-7.96764e-05
-4.95644e-05
-0.000105726
-3.78234e-05
-7.21594e-05
-7.12114e-05
-7.6882e-05
-3.57107e-05
-7.59924e-05
-4.94373e-05
-6.32093e-05
-4.49753e-05
-6.58294e-05
-4.94425e-05
-2.92477e-05
-8.05331e-05
-4.24156e-05
-0.000126714
-5.04819e-05
-0.000108461
-1.56449e-05
-9.19685e-05
-4.01509e-06
-8.23458e-05
-1.42245e-05
-0.000105396
-1.03167e-05
-0.000150733
-2.32002e-05
-0.000103972
-7.4106e-05
-9.94728e-05
-5.77184e-05
-7.85353e-05
-5.57623e-05
-7.26258e-05
-5.41335e-05
-6.57692e-05
-5.55347e-05
-6.23163e-05
-4.78616e-05
-5.0156e-05
-7.03405e-05
-4.06607e-05
-4.6833e-05
-5.94212e-05
-4.26588e-05
-5.37386e-05
-4.52467e-05
-3.52356e-05
-6.94624e-05
-4.69957e-05
-6.64806e-05
-3.86925e-05
-6.47959e-05
-5.11221e-05
-6.60255e-05
-4.37457e-05
-6.98859e-05
-4.55821e-05
-2.59975e-05
-7.31361e-05
-2.15026e-05
-0.000105212
-3.36121e-05
-9.63518e-05
-3.18299e-05
-9.37508e-05
1.8372e-05
-0.000132548
6.29686e-06
-9.33211e-05
-4.17422e-05
-0.000102694
-5.23767e-05
-9.33373e-05
-5.65796e-05
-9.52699e-05
-4.51164e-05
-8.99986e-05
-4.58089e-05
-7.19333e-05
-4.69171e-05
-6.4661e-05
-5.12055e-05
-5.8028e-05
-6.01274e-05
-4.12341e-05
-5.68723e-05
-4.39159e-05
-4.08741e-05
-7.54193e-05
-5.50461e-05
-3.95666e-05
-5.47966e-05
-3.54851e-05
-5.86455e-05
-4.31468e-05
-5.49596e-05
-4.23784e-05
-6.01091e-05
-4.59726e-05
-6.19854e-05
-4.18694e-05
-6.36451e-05
-4.39224e-05
-2.39482e-05
-6.56945e-05
-2.93946e-05
-7.58169e-05
-9.99816e-06
-0.000115748
1.44464e-06
-0.000105194
-1.82785e-05
-0.000112825
-2.13057e-06
-0.000109469
-1.70964e-05
-8.77281e-05
-3.44036e-05
-7.60301e-05
-4.4888e-05
-8.47854e-05
-5.87941e-05
-7.60925e-05
-6.36571e-05
-6.70704e-05
-6.55865e-05
-6.27316e-05
-6.57135e-05
-5.7901e-05
-5.8337e-05
-4.86107e-05
-5.52073e-05
-4.70456e-05
-8.13775e-05
-4.92491e-05
-4.61941e-05
-7.47501e-05
-4.59839e-05
-3.56954e-05
-5.15205e-05
-3.76102e-05
-5.20654e-05
-4.18335e-05
-6.57659e-05
-3.22722e-05
-6.67209e-05
-4.09144e-05
-6.88139e-05
-4.18294e-05
-2.75659e-05
-6.51963e-05
1.61157e-05
-9.19326e-05
4.70868e-08
-9.96798e-05
-1.33025e-05
-9.1844e-05
-2.51406e-05
-0.000100987
-3.64745e-05
-9.81351e-05
-2.79499e-05
-9.62528e-05
-8.08642e-06
-9.58936e-05
-2.5354e-05
-6.75179e-05
-4.16137e-05
-5.98328e-05
-4.98817e-05
-5.88024e-05
-5.48917e-05
-5.77216e-05
-5.6653e-05
-5.61397e-05
-4.95726e-05
-5.56911e-05
-3.79297e-05
-5.86885e-05
-3.22635e-05
-5.49154e-05
-5.49057e-05
-5.21079e-05
-5.41291e-05
-3.6472e-05
-4.33539e-05
-4.83854e-05
-5.29567e-05
-3.22307e-05
-5.62636e-05
-2.89653e-05
-5.75035e-05
-3.96745e-05
-6.16843e-05
-3.76486e-05
-2.21964e-05
-6.70538e-05
-4.27396e-06
-8.76587e-05
-9.55672e-06
-9.4397e-05
-7.07422e-06
-9.43265e-05
-1.731e-05
-9.07508e-05
-2.38215e-05
-9.16236e-05
-3.51301e-05
-8.49442e-05
-4.55168e-05
-8.55069e-05
-3.60592e-05
-7.69755e-05
-5.03702e-05
-4.55218e-05
-6.62246e-05
-4.2948e-05
-5.62816e-05
-6.76646e-05
-4.48546e-05
-6.75666e-05
-3.48756e-05
-6.56702e-05
-4.50526e-05
-4.85116e-05
-5.59503e-05
-4.40177e-05
-5.94295e-05
-4.86287e-05
-3.46363e-05
-6.12653e-05
-4.95781e-05
-3.34436e-05
-5.09096e-05
-3.08991e-05
-5.23712e-05
-2.75037e-05
-5.7175e-05
-3.48708e-05
-6.0849e-05
-3.39746e-05
-2.29598e-05
-6.00856e-05
-3.15328e-07
-8.73434e-05
-5.504e-06
-8.92084e-05
-1.03723e-05
-8.94582e-05
-1.55556e-05
-8.55676e-05
-2.17561e-05
-8.54231e-05
-2.55569e-05
-8.11434e-05
-3.06682e-05
-8.03957e-05
-3.35305e-05
-7.41131e-05
-3.94196e-05
-3.96327e-05
-4.49284e-05
-3.74393e-05
-5.07351e-05
-6.18579e-05
-5.64142e-05
-6.18875e-05
-5.9685e-05
-6.23994e-05
-4.5951e-05
-6.22455e-05
-5.14841e-05
-3.84847e-05
-4.18779e-05
-5.82348e-05
-6.52762e-05
-3.7867e-05
-4.01665e-05
-5.85534e-05
-4.44794e-05
-2.65862e-05
-4.5695e-05
-2.62881e-05
-4.86568e-05
-3.1909e-05
-5.26581e-05
-2.99733e-05
-2.1249e-05
-5.4369e-05
-3.94478e-06
-8.33986e-05
-7.7713e-06
-8.53819e-05
-1.11721e-05
-8.60574e-05
-1.42939e-05
-8.24459e-05
-1.8606e-05
-8.1111e-05
-2.47072e-05
-7.50422e-05
-3.15949e-05
-7.3508e-05
-3.35344e-05
-7.21737e-05
-3.71151e-05
-3.6052e-05
-3.98856e-05
-3.46688e-05
-4.35048e-05
-5.82388e-05
-4.88458e-05
-5.65466e-05
-4.96311e-05
-6.16141e-05
-4.95153e-05
-6.23614e-05
-5.19632e-05
-3.60367e-05
-4.92063e-05
-6.09918e-05
-5.24884e-05
-3.45849e-05
-6.32408e-05
-4.7801e-05
-4.06606e-05
-4.91663e-05
-3.73331e-05
-2.96156e-05
-4.77596e-05
-2.14826e-05
-5.40252e-05
-2.37077e-05
-2.1585e-05
-5.36891e-05
-1.52994e-06
-8.18687e-05
-3.52132e-06
-8.33905e-05
-8.28755e-06
-8.12912e-05
-1.08469e-05
-7.98865e-05
-1.45584e-05
-7.73995e-05
-1.87213e-05
-7.08794e-05
-2.419e-05
-6.80393e-05
-2.56601e-05
-7.07036e-05
-2.39528e-05
-3.77592e-05
-2.18036e-05
-3.6818e-05
-4.32868e-05
-3.67556e-05
-3.41599e-05
-6.56735e-05
-3.37324e-05
-6.20417e-05
-4.39882e-05
-5.21056e-05
-2.15277e-05
-5.84972e-05
-4.62652e-05
-3.62543e-05
-2.91474e-05
-5.17027e-05
-4.6688e-05
-3.02604e-05
-4.04862e-05
-5.53681e-05
-4.2178e-05
-2.79239e-05
-4.34203e-05
-2.02403e-05
-4.65786e-05
-2.05494e-05
-1.81623e-05
-5.00013e-05
-1.9636e-06
-7.99051e-05
-3.77215e-06
-8.1582e-05
-8.477e-06
-7.65864e-05
-1.1375e-05
-7.69886e-05
-1.52576e-05
-7.35169e-05
-1.88937e-05
-6.72433e-05
-2.36111e-05
-6.33219e-05
-2.59909e-05
-6.83238e-05
-2.78191e-05
-3.5931e-05
-2.70876e-05
-3.75496e-05
-2.98314e-05
-3.40118e-05
-2.49285e-05
-7.05764e-05
-2.75577e-05
-5.94125e-05
-2.76591e-05
-5.20041e-05
-2.87117e-05
-5.74446e-05
-3.85186e-05
-2.64475e-05
-3.91852e-05
-5.10361e-05
-4.0317e-05
-2.91286e-05
-5.03866e-05
-4.52985e-05
-3.73649e-05
-4.09456e-05
-3.74883e-05
-2.01169e-05
-4.34263e-05
-1.46114e-05
-1.37701e-05
-4.78184e-05
-2.0981e-06
-7.7807e-05
-4.1031e-06
-7.9577e-05
-4.7347e-06
-7.59548e-05
-3.08542e-06
-7.86379e-05
2.31102e-07
-7.68334e-05
-1.88565e-05
-4.81557e-05
-3.64091e-05
-4.57694e-05
-3.09832e-05
-7.37497e-05
-2.61146e-05
-4.07996e-05
-2.35729e-05
-4.00913e-05
-1.8393e-05
-3.91917e-05
-2.42208e-05
-6.47487e-05
-2.88253e-05
-5.4808e-05
-2.75615e-05
-5.3268e-05
-4.20591e-05
-4.2947e-05
-2.12034e-05
-4.73032e-05
-2.94882e-05
-4.27514e-05
-3.20029e-05
-2.66139e-05
-3.88094e-05
-3.84919e-05
-3.19272e-05
-4.78279e-05
-3.97743e-05
-1.22697e-05
-4.06231e-05
-1.37626e-05
-1.24245e-05
-4.19687e-05
-2.7262e-06
-7.50808e-05
-5.32426e-06
-7.69789e-05
-7.16715e-06
-7.41119e-05
-1.02151e-05
-7.55899e-05
-1.34567e-05
-7.35918e-05
-1.49068e-05
-4.67056e-05
-1.68783e-05
-4.37979e-05
-1.6924e-05
-7.3704e-05
-1.40449e-05
-4.36787e-05
-1.42026e-05
-3.99337e-05
-1.26986e-05
-4.06957e-05
-1.73625e-05
-6.00848e-05
-2.25028e-05
-4.96677e-05
-2.38828e-05
-5.1888e-05
-2.25686e-05
-4.42612e-05
-2.1765e-05
-4.81069e-05
-3.94616e-05
-2.50548e-05
-2.57318e-05
-4.03436e-05
-3.94394e-05
-2.47844e-05
-5.17425e-05
-3.55247e-05
-3.23739e-05
-3.16384e-05
-3.3528e-05
-1.26085e-05
-7.4935e-06
-3.84591e-05
-1.6624e-06
-7.34184e-05
-3.35229e-06
-7.52891e-05
-5.0748e-06
-7.23894e-05
-6.73411e-06
-7.39306e-05
-9.04673e-06
-7.12792e-05
-1.26706e-05
-4.30817e-05
-1.72791e-05
-3.91894e-05
-3.02084e-05
-6.07747e-05
-1.88519e-05
-5.50353e-05
-5.98942e-06
-5.27961e-05
-1.59017e-05
-3.07834e-05
-2.50503e-05
-5.09363e-05
-2.26609e-05
-5.2057e-05
-2.57731e-05
-4.87758e-05
-2.50318e-05
-4.50025e-05
-3.68663e-05
-3.62724e-05
-2.44367e-05
-3.74844e-05
-2.61986e-05
-3.85817e-05
-2.74826e-05
-2.35004e-05
-3.19912e-05
-3.10162e-05
-2.61954e-05
-3.74341e-05
-3.27428e-05
-6.06111e-06
-5.02187e-06
-3.52144e-05
-8.66822e-07
-7.25516e-05
-2.2412e-06
-7.39147e-05
-3.70362e-06
-7.0927e-05
-8.03415e-06
-6.96001e-05
-1.81869e-05
-6.11265e-05
-1.84105e-06
-5.94276e-05
-7.18246e-06
-3.3848e-05
-1.16439e-05
-5.63132e-05
-1.34077e-05
-5.32716e-05
-9.26736e-06
-5.69364e-05
-8.80998e-06
-3.12408e-05
-2.80713e-05
-3.16751e-05
-2.11498e-05
-5.89785e-05
-2.1029e-05
-4.88967e-05
-2.0843e-05
-4.51885e-05
-2.04983e-05
-3.6617e-05
-2.03512e-05
-3.76315e-05
-2.68886e-05
-3.20444e-05
-1.76053e-05
-3.27836e-05
-3.09416e-05
-1.76799e-05
-5.06095e-05
-1.77662e-05
-3.28246e-05
-2.3846e-05
-1.51336e-06
-3.63331e-05
-5.30191e-07
-7.20214e-05
-2.04473e-06
-7.24001e-05
-1.3728e-06
-7.15989e-05
-5.30576e-06
-6.56671e-05
-4.42384e-06
-6.20084e-05
-4.09599e-06
-5.97554e-05
-3.72924e-06
-3.42148e-05
-2.2615e-05
-3.74275e-05
-1.32591e-05
-6.26275e-05
-1.14501e-05
-5.87455e-05
-9.045e-06
-3.36459e-05
-1.0085e-05
-3.0635e-05
-1.58229e-05
-5.32406e-05
-1.84358e-05
-4.62837e-05
-2.04297e-05
-4.31946e-05
-1.93062e-05
-3.77406e-05
-2.60605e-05
-3.08772e-05
-2.65872e-05
-3.15177e-05
-3.06762e-05
-2.86945e-05
-3.16192e-05
-1.67369e-05
-2.87825e-05
-2.06029e-05
-3.95458e-05
-1.30828e-05
-1.02358e-05
-3.08233e-05
-1.29192e-08
-7.20085e-05
-3.88586e-07
-7.20245e-05
1.29991e-06
-7.32874e-05
9.24444e-07
-6.52917e-05
-1.72326e-05
-4.38513e-05
-9.33605e-06
-6.7652e-05
-7.0247e-06
-3.65261e-05
-9.82097e-06
-3.46312e-05
-7.50267e-06
-6.49458e-05
-9.93927e-06
-5.63089e-05
-9.77216e-06
-3.3813e-05
-1.12901e-05
-2.91171e-05
-1.47811e-05
-4.97496e-05
-1.59897e-05
-4.50752e-05
-1.63239e-05
-4.28603e-05
-1.6453e-05
-3.76115e-05
-1.64474e-05
-3.08828e-05
-1.40765e-05
-3.38886e-05
-1.94662e-05
-2.33048e-05
-2.25705e-05
-1.36326e-05
-2.5226e-05
-1.79475e-05
-3.03193e-05
-7.98948e-06
-1.20151e-05
-2.854e-05
-6.70092e-07
-7.13384e-05
-5.35769e-07
-7.21588e-05
-2.20543e-06
-7.16177e-05
-3.48898e-06
-6.40081e-05
-6.93576e-06