/*--------------------------------*- C++ -*----------------------------------*\
| =========                 |                                                 |
| \\      /  F ield         | foam-extend: Open Source CFD                    |
|  \\    /   O peration     | Version:     4.1                                |
|   \\  /    A nd           | Web:         http://www.foam-extend.org         |
|    \\/     M anipulation  |                                                 |
\*---------------------------------------------------------------------------*/
FoamFile
{
    version     2.0;
    format      ascii;
    class       surfaceScalarField;
    location    "0.25";
    object      phi_0;
}
// * * * * * * * * * * * * * * * * * * * * * * * * * * * * * * * * * * * * * //

dimensions      [0 3 -1 0 0 0 0];

internalField   nonuniform List<scalar> 
4432
(
2.04292e-06
-2.04292e-06
5.85726e-06
-3.81434e-06
1.04968e-05
-4.63956e-06
1.60152e-05
-5.51837e-06
2.113e-05
-5.11485e-06
2.784e-05
-6.70996e-06
3.09989e-05
-3.1589e-06
4.09675e-05
-9.96859e-06
4.77401e-05
-6.77257e-06
7.61668e-05
-2.84267e-05
8.2356e-05
-6.1892e-06
0.000102543
-2.01872e-05
0.000112207
-9.6642e-06
0.000116046
-3.83852e-06
7.42269e-05
4.18189e-05
8.08657e-05
-6.63879e-06
9.20403e-05
-1.11746e-05
0.000106295
-1.42544e-05
0.000117622
-1.13271e-05
0.000136064
-1.8442e-05
6.81809e-05
6.78829e-05
7.08024e-06
6.11007e-05
7.08022e-06
2.18309e-06
-4.22601e-06
5.93615e-06
-7.5674e-06
1.04866e-05
-9.19005e-06
1.60374e-05
-1.10691e-05
2.13217e-05
-1.03992e-05
2.78416e-05
-1.32298e-05
3.10612e-05
-6.37858e-06
4.15319e-05
-2.04392e-05
4.85474e-05
-1.37881e-05
7.49844e-05
-5.48637e-05
7.96348e-05
-1.08396e-05
0.000100777
-4.13298e-05
0.000112895
-2.17813e-05
0.000118417
-9.3605e-06
0.000119503
4.07328e-05
8.63953e-05
2.64687e-05
9.05795e-05
-1.53588e-05
0.000155155
-7.88303e-05
0.000175013
-3.1185e-05
0.000152032
4.53957e-06
0.000135493
8.44218e-05
9.61757e-05
0.000100418
0.000103256
2.05477e-06
-6.28078e-06
5.76869e-06
-1.12813e-05
1.02883e-05
-1.37097e-05
1.57865e-05
-1.65673e-05
2.0699e-05
-1.53117e-05
2.75224e-05
-2.00532e-05
3.1832e-05
-1.06882e-05
3.98315e-05
-2.84387e-05
4.45378e-05
-1.84944e-05
4.169e-05
-5.2016e-05
7.18808e-05
-4.10304e-05
7.81034e-05
-4.75524e-05
7.93123e-05
-2.29903e-05
5.14085e-05
1.85434e-05
5.82226e-05
3.39187e-05
7.27939e-05
1.18974e-05
6.12207e-05
-3.78566e-06
4.87572e-05
-6.63669e-05
0.000111068
-9.34956e-05
0.000118618
-3.01079e-06
0.000126721
7.63187e-05
5.62871e-05
0.000170852
0.000159543
2.61238e-06
-8.89316e-06
6.11274e-06
-1.47817e-05
1.00849e-05
-1.76819e-05
1.56336e-05
-2.21161e-05
2.19932e-05
-2.16712e-05
2.89329e-05
-2.69929e-05
3.21091e-05
-1.38644e-05
3.85613e-05
-3.4891e-05
4.07676e-05
-2.07006e-05
3.77999e-05
-4.90484e-05
3.61217e-05
-3.93523e-05
3.49251e-05
-4.63558e-05
1.12367e-05
6.98117e-07
5.086e-05
-2.10799e-05
6.39707e-05
2.08079e-05
3.67095e-05
3.91587e-05
4.02591e-05
-7.33534e-06
3.8171e-05
-6.42788e-05
4.22717e-05
-9.75963e-05
6.66863e-05
-2.74255e-05
5.18048e-05
9.12002e-05
4.92946e-05
0.000173362
0.000208838
2.2415e-06
-1.11347e-05
5.64876e-06
-1.81889e-05
9.651e-06
-2.16841e-05
1.51681e-05
-2.76332e-05
2.24403e-05
-2.89434e-05
2.82695e-05
-3.28221e-05
2.93482e-05
-1.49431e-05
3.58629e-05
-4.14056e-05
3.81601e-05
-2.29978e-05
3.82753e-05
-4.91636e-05
6.46061e-05
-6.5683e-05
4.02844e-05
-2.20341e-05
8.52844e-05
-4.43019e-05
0.000102106
-3.79013e-05
0.000113451
9.46253e-06
0.000122627
2.99826e-05
0.000109145
6.14711e-06
7.67464e-05
-3.18803e-05
2.50202e-05
-4.58701e-05
1.88865e-05
-2.12918e-05
5.11558e-05
5.89309e-05
4.44142e-05
0.000180104
0.000253252
3.24186e-06
-1.43765e-05
5.99307e-06
-2.09402e-05
9.34849e-06
-2.50395e-05
1.46454e-05
-3.29301e-05
2.14879e-05
-3.57859e-05
2.69491e-05
-3.82833e-05
5.10879e-05
-3.9082e-05
3.50363e-05
-2.5354e-05
6.09762e-05
-4.89377e-05
6.46503e-05
-5.28377e-05
6.71067e-05
-6.81394e-05
7.24698e-05
-2.73973e-05
8.09909e-05
-5.28229e-05
7.31485e-05
-3.00589e-05
0.000139943
-5.73319e-05
0.000128503
4.14224e-05
9.78007e-05
3.68495e-05
5.84048e-05
7.5156e-06
2.80701e-05
-1.55354e-05
-5.57203e-06
1.23503e-05
7.35237e-06
4.60065e-05
3.64959e-05
0.000150961
0.000289748
2.26683e-06
-1.66434e-05
4.9639e-06
-2.36372e-05
8.39908e-06
-2.84747e-05
1.38193e-05
-3.83504e-05
2.00088e-05
-4.19753e-05
2.43499e-05
-4.26245e-05
2.72717e-05
-4.20037e-05
3.68678e-05
-3.49501e-05
5.7251e-05
-6.93208e-05
6.19343e-05
-5.7521e-05
4.0818e-05
-4.70231e-05
7.84903e-05
-6.50696e-05
4.77792e-05
-2.21119e-05
6.65395e-05
-4.88192e-05
7.7848e-05
-6.86404e-05
0.000125453
-6.1829e-06
0.000103785
5.85181e-05
5.63313e-05
5.49691e-05
2.10375e-05
1.97583e-05
5.79807e-06
2.75898e-05
1.07162e-06
5.0733e-05
3.40668e-05
0.000117966
0.000323815
3.62518e-06
-2.02685e-05
4.61666e-06
-2.46287e-05
7.62669e-06
-3.14847e-05
1.31885e-05
-4.39122e-05
1.94054e-05
-4.81922e-05
2.48099e-05
-4.80291e-05
4.53926e-05
-6.25864e-05
5.72244e-05
-4.67819e-05
6.0037e-05
-7.21334e-05
6.68242e-05
-6.43083e-05
7.39862e-05
-5.41851e-05
4.59203e-05
-3.70036e-05
8.26683e-05
-5.88599e-05
9.99017e-05
-6.60526e-05
5.45303e-05
-2.3269e-05
4.57815e-05
2.56599e-06
6.99922e-05
3.43073e-05
4.43248e-05
8.06365e-05
7.98403e-06
5.60991e-05
6.29444e-06
2.92794e-05
7.57815e-06
4.94493e-05
4.9325e-05
7.62187e-05
0.000373139
-1.73281e-05
1.73281e-05
-3.57226e-05
1.83944e-05
-4.92819e-05
1.35591e-05
-5.82104e-05
8.92864e-06
-6.04712e-05
2.261e-06
-3.94264e-05
-2.10443e-05
-2.07143e-05
-1.87116e-05
-6.3411e-07
-2.00797e-05
1.77208e-05
-1.83545e-05
3.17366e-05
-1.40159e-05
4.4141e-05
-1.24047e-05
5.98011e-05
-1.56607e-05
3.48925e-05
2.49082e-05
3.08521e-05
4.04014e-06
2.5202e-05
5.64994e-06
1.89124e-05
6.28947e-06
1.26114e-05
6.30096e-06
6.29783e-06
6.31349e-06
6.29777e-06
-1.78443e-05
3.51722e-05
-3.82366e-05
3.87866e-05
-5.23083e-05
2.76309e-05
-6.08246e-05
1.74454e-05
-6.33712e-05
4.80828e-06
-4.18499e-05
-4.25647e-05
-2.04625e-05
-4.00983e-05
2.77305e-06
-4.33149e-05
2.16828e-05
-3.72643e-05
3.52841e-05
-2.76177e-05
4.94249e-05
-2.65462e-05
3.54986e-05
-1.73503e-06
3.86322e-05
2.17739e-05
3.28835e-05
9.78852e-06
2.62941e-05
1.22391e-05
2.00435e-05
1.25399e-05
1.34029e-05
1.29414e-05
6.69761e-06
1.30187e-05
1.29953e-05
-1.99863e-05
5.51583e-05
-4.46925e-05
6.34928e-05
-6.09341e-05
4.38725e-05
-6.83999e-05
2.49117e-05
-7.21621e-05
8.5711e-06
-4.2508e-05
-7.22179e-05
-2.11727e-05
-6.1433e-05
4.90629e-06
-6.93936e-05
2.29144e-05
-5.52724e-05
3.81777e-05
-4.28815e-05
5.54581e-05
-4.38273e-05
3.6444e-05
1.72784e-05
3.88347e-05
1.93825e-05
3.37068e-05
1.4916e-05
2.7149e-05
1.87968e-05
2.04069e-05
1.92818e-05
1.35579e-05
1.97902e-05
6.75532e-06
1.98211e-05
1.97506e-05
-1.66918e-05
7.18499e-05
-4.38639e-05
9.06648e-05
-6.42675e-05
6.42761e-05
-7.20909e-05
3.27355e-05
-7.84316e-05
1.49123e-05
-5.74104e-05
-9.32385e-05
-1.80484e-05
-0.000100794
8.29337e-06
-9.57351e-05
2.66701e-05
-7.36492e-05
4.52471e-05
-6.1459e-05
3.40845e-05
-3.26655e-05
4.01035e-05
1.12585e-05
3.87637e-05
2.07214e-05
3.31327e-05
2.05465e-05
2.68864e-05
2.50428e-05
2.03423e-05
2.58258e-05
1.35559e-05
2.65764e-05
6.75838e-06
2.66186e-05
2.65089e-05
-3.18236e-06
7.50321e-05
-3.22933e-05
0.000119776
-5.23888e-05
8.43717e-05
-6.73008e-05
4.76479e-05
-7.33794e-05
2.09914e-05
-4.98087e-05
-0.000116809
-1.48162e-05
-0.000135787
1.22136e-05
-0.000122765
3.22868e-05
-9.37226e-05
5.46217e-05
-8.37946e-05
3.56426e-05
-1.36873e-05
4.11219e-05
5.77813e-06
3.96697e-05
2.21726e-05
3.39324e-05
2.62831e-05
2.7199e-05
3.17758e-05
2.04438e-05
3.25808e-05
1.35908e-05
3.34293e-05
6.76632e-06
3.3443e-05
3.32752e-05
2.39557e-05
5.10762e-05
-3.53289e-06
0.000147264
-2.81674e-05
0.000109006
-3.8664e-05
5.81446e-05
-1.80081e-05
3.3571e-07
-6.52727e-06
-0.000128289
-5.56586e-06
-0.000136748
3.09218e-05
-0.000159252
5.38899e-05
-0.000116691
3.61775e-05
-6.60833e-05
4.09042e-05
-1.8415e-05
4.24809e-05
4.20034e-06
4.00548e-05
2.45975e-05
3.40624e-05
3.22747e-05
2.73824e-05
3.84554e-05
2.05072e-05
3.94558e-05
1.36104e-05
4.03259e-05
6.76816e-06
4.02851e-05
4.00433e-05
5.78034e-05
-6.72739e-06
3.37697e-05
0.000171298
6.40507e-06
0.000136371
7.37486e-07
6.38122e-05
1.60751e-05
-1.50018e-05
3.6859e-05
-0.000149073
4.19911e-05
-0.00014188
3.26455e-05
-0.000149907
3.4267e-05
-0.000118313
3.80641e-05
-6.98816e-05
4.31643e-05
-2.35162e-05
4.43551e-05
3.00854e-06
4.07533e-05
2.8198e-05
3.4222e-05
3.8805e-05
2.74935e-05
4.51835e-05
2.05523e-05
4.63967e-05
1.3623e-05
4.72551e-05
6.76619e-06
4.71418e-05
4.68094e-05
2.80979e-05
-3.48254e-05
2.07029e-05
0.000178693
1.72854e-05
0.000139788
2.26172e-05
5.84804e-05
5.15878e-05
-4.39723e-05
6.0481e-05
-0.000157966
5.17942e-05
-0.000133193
4.73892e-05
-0.000145502
4.56578e-05
-0.000116581
4.26941e-05
-6.69187e-05
4.69646e-05
-2.7788e-05
4.67944e-05
3.17811e-06
4.24035e-05
3.25884e-05
3.52161e-05
4.59918e-05
2.7904e-05
5.24952e-05
2.07159e-05
5.35846e-05
1.36954e-05
5.42754e-05
6.7919e-06
5.40452e-05
5.36012e-05
8.13853e-06
-2.84071e-05
1.64375e-05
-3.29277e-05
2.79991e-05
-4.30463e-05
5.22661e-05
-6.81792e-05
7.01264e-05
-6.60525e-05
8.9775e-05
-6.76776e-05
0.000100814
-7.36251e-05
0.000129754
-7.57221e-05
0.000150005
-9.23842e-05
0.000167102
-8.1406e-05
0.000175311
-6.23941e-05
0.000169325
-3.1017e-05
0.000171202
-6.07371e-05
0.000135949
-3.07992e-05
0.000147198
-3.45181e-05
0.000181829
-3.20653e-05
0.000170134
4.6002e-05
0.000155116
9.56552e-05
0.000155385
5.58301e-05
0.00014921
3.54538e-05
0.00017997
1.86893e-05
0.000141414
0.000114775
0.000205454
0.0003091
-2.46945e-06
-2.59376e-05
1.35196e-05
-4.89168e-05
2.80137e-05
-5.75404e-05
4.49745e-05
-8.51399e-05
3.95288e-05
-6.06068e-05
5.23261e-05
-8.04749e-05
5.96966e-05
-8.09956e-05
7.79636e-05
-9.39891e-05
9.38443e-05
-0.000108265
0.000101522
-8.9084e-05
0.000112786
-7.36578e-05
0.000158948
-7.71796e-05
0.000172747
-7.45353e-05
0.000214164
-7.22167e-05
0.000213529
-3.38826e-05
0.000208907
-2.74432e-05
0.000233358
2.15508e-05
0.000263334
6.56787e-05
0.000257362
6.18021e-05
0.00026949
2.33265e-05
0.000189322
9.88565e-05
0.000235988
6.81089e-05
0.00011682
0.000324622
1.41803e-05
-4.01179e-05
5.32166e-06
-4.00582e-05
2.61958e-05
-7.84146e-05
3.17505e-05
-9.06946e-05
3.85432e-05
-6.73995e-05
4.9729e-05
-9.16608e-05
6.23112e-05
-9.35777e-05
8.14237e-05
-0.000113102
9.65741e-05
-0.000123415
0.000106463
-9.89728e-05
0.000170765
-0.00013796
0.000154324
-6.07388e-05
0.000186183
-0.000106394
0.000221076
-0.00010711
0.000219848
-3.26542e-05
0.000204447
-1.20423e-05
0.000223125
2.87317e-06
0.000258782
3.00217e-05
0.00029152
2.90632e-05
0.000208319
0.000106528
0.000235294
7.1881e-05
0.000252558
5.08453e-05
8.06515e-05
0.000288725
1.72413e-05
-5.73592e-05
3.51828e-05
-5.79996e-05
1.89308e-05
-6.21626e-05
4.25104e-05
-0.000114274
2.96119e-05
-5.4501e-05
4.68033e-05
-0.000108852
6.65896e-05
-0.000113364
8.64739e-05
-0.000132986
9.65762e-05
-0.000133518
0.000146057
-0.000148454
9.70184e-05
-8.89211e-05
0.000149609
-0.00011333
0.000110322
-6.71066e-05
0.00013155
-0.000128338
0.000138461
-3.95648e-05
0.000189806
-6.33872e-05
0.000195486
-2.80706e-06
0.000209893
1.56149e-05
0.000170307
6.86492e-05
0.00021861
5.82253e-05
0.000239439
5.10517e-05
0.000245466
4.4819e-05
1.53781e-05
0.000310739
1.68502e-05
-7.42094e-05
3.48922e-05
-7.60417e-05
5.70032e-05
-8.42736e-05
3.25099e-05
-8.97809e-05
7.41421e-05
-9.61333e-05
5.70309e-05
-9.17409e-05
5.50053e-05
-0.000111339
9.67799e-05
-0.00017476
0.000107121
-0.000143859
6.30908e-05
-0.000104423
0.000108724
-0.000134554
9.26767e-05
-9.72826e-05
0.000149974
-0.000124404
0.000125275
-0.000103639
0.000194716
-0.000109006
0.000172073
-4.07445e-05
0.00021192
-4.26543e-05
0.000256028
-2.8493e-05
0.000308579
1.60978e-05
0.000353178
1.36263e-05
0.00036496
3.92702e-05
0.00035079
5.89886e-05
6.54182e-05
0.00030075
9.176e-06
-8.33854e-05
1.80714e-05
-8.4937e-05
2.64365e-05
-9.26387e-05
2.63516e-05
-8.9696e-05
3.43203e-05
-0.000104102
4.53395e-05
-0.00010276
4.93312e-05
-0.00011533
3.0922e-05
-0.000156351
3.68746e-05
-0.000149811
6.35616e-06
-7.3905e-05
-3.95247e-06
-0.000124246
2.14122e-05
-0.000122647
6.58325e-05
-0.000168824
8.07425e-05
-0.000118549
7.15062e-05
-9.97693e-05
0.000108258
-7.7496e-05
0.00013438
-6.87769e-05
0.000164159
-5.8272e-05
0.000169329
1.09277e-05
0.000113801
6.9155e-05
9.26933e-05
6.03777e-05
8.20354e-05
6.96465e-05
2.35364e-05
0.000123917
5.78245e-06
-8.91679e-05
1.20739e-05
-9.12285e-05
1.47678e-05
-9.53325e-05
2.01086e-05
-9.50368e-05
2.62433e-05
-0.000110237
3.28636e-05
-0.00010938
1.47476e-05
-9.72142e-05
-6.60119e-05
-7.55917e-05
-5.39789e-05
-0.000161844
-3.47193e-05
-9.31646e-05
-3.42267e-05
-0.000124738
5.78594e-05
-0.000214733
8.99485e-05
-0.000200913
0.000104431
-0.000133031
9.07134e-05
-8.60521e-05
7.55214e-05
-6.2304e-05
6.24408e-05
-5.56963e-05
6.06956e-05
-5.65267e-05
5.96628e-05
1.19604e-05
7.58361e-05
5.29817e-05
0.000104288
3.19262e-05
0.000143089
3.08455e-05
-1.08546e-05
0.00017748
3.37441e-06
-9.25423e-05
7.44439e-06
-9.52985e-05
7.29386e-06
-9.5182e-05
1.67977e-05
-0.000104541
1.64275e-05
-0.000109866
7.07467e-05
-0.0001637
5.45851e-05
-8.10526e-05
2.02326e-05
-4.12392e-05
3.44904e-06
-0.000145061
-7.05009e-06
-8.26654e-05
-6.42348e-06
-0.000125365
7.16551e-05
-0.000292812
0.000107932
-0.00023719
8.93468e-05
-0.000114445
4.31182e-05
-3.98235e-05
3.88904e-05
-5.80762e-05
6.73966e-05
-8.42025e-05
6.69796e-05
-5.61097e-05
8.89474e-05
-1.00074e-05
0.000123846
1.80835e-05
0.000134568
2.12037e-05
0.000191773
-2.63589e-05
-0.000136502
0.00031742
8.18093e-06
-0.000100723
6.31842e-06
-9.3436e-05
9.29133e-06
-9.81549e-05
1.28485e-05
-0.000108098
7.02978e-05
-0.000167316
1.81787e-05
-0.000111581
6.10905e-06
-6.8983e-05
6.13834e-05
-9.65135e-05
6.78197e-05
-0.000151497
7.12263e-05
-8.6072e-05
3.73318e-05
-9.14703e-05
5.39718e-05
-0.000309452
3.50905e-05
-0.000218309
-1.04668e-05
-6.8888e-05
1.58384e-08
-5.03062e-05
1.65422e-05
-7.46026e-05
2.36678e-05
-9.13281e-05
3.55183e-05
-6.79602e-05
6.85619e-05
-4.3051e-05
0.000179967
-9.33218e-05
0.00024929
-4.81191e-05
0.000299246
-7.63152e-05
-0.000220681
0.000383425
1.78891e-05
-0.000118612
1.66757e-05
-9.22227e-05
2.17057e-05
-0.000103185
2.27253e-05
-0.000109117
3.54181e-05
-0.000180008
1.63471e-05
-9.25096e-05
2.34235e-06
-5.49783e-05
1.81689e-05
-0.00011234
1.32286e-05
-0.000146557
5.56747e-05
-0.000128518
6.67286e-05
-0.000102524
2.12169e-05
-0.00026394
-2.52107e-05
-0.000171881
-4.30846e-05
-5.10142e-05
2.03405e-05
-0.000113731
3.97819e-05
-9.4044e-05
4.63669e-05
-9.7913e-05
3.96045e-05
-6.11978e-05
4.87924e-05
-5.22389e-05
4.05012e-05
-8.50308e-05
9.28576e-05
-0.000100476
0.000130349
-0.000113807
-0.000264225
0.000173892
1.95823e-05
-0.000138195
3.36565e-05
-0.000106297
3.35954e-05
-0.000103124
6.06132e-05
-0.000136135
3.94976e-06
-0.000123345
-1.03153e-05
-7.82446e-05
6.7165e-06
-7.20101e-05
3.41821e-05
-0.000139806
7.54593e-05
-0.000187834
0.000120344
-0.000173402
0.000161138
-0.000143319
8.23436e-05
-0.000185145
3.26334e-05
-0.000122171
3.98316e-06
-2.23639e-05
4.32741e-05
-0.000153022
5.97714e-05
-0.000110541
8.84466e-05
-0.000126588
4.24894e-05
-1.52406e-05
4.6827e-05
-5.65766e-05
4.71686e-05
-8.53725e-05
2.98215e-05
-8.31287e-05
4.82596e-05
-0.000132245
-0.000248664
3.26984e-05
2.77347e-05
-0.000165929
7.15712e-05
-0.000150133
5.15316e-05
-8.30843e-05
4.7952e-05
-0.000132556
5.48892e-05
-0.000130282
9.28089e-05
-0.000116164
0.000111975
-9.11765e-05
0.0001578
-0.00018563
0.000188951
-0.000218985
0.000207745
-0.000192197
0.00019215
-0.000127724
0.000113638
-0.000106633
4.09423e-06
-1.26278e-05
-2.25194e-05
4.24976e-06
-3.39318e-05
-0.00014161
6.09239e-05
-0.000205397
4.0375e-05
-0.000106039
3.66197e-05
-1.14852e-05
4.2619e-05
-6.2576e-05
2.26593e-05
-6.54128e-05
-2.83644e-05
-3.21052e-05
-3.90332e-05
-0.000121576
-0.000213994
-7.37036e-05
9.04882e-06
-0.000174978
1.34784e-05
-0.000154563
8.65699e-06
-7.82628e-05
7.3465e-05
-0.000197364
6.5763e-05
-0.00012258
0.000161373
-0.000211775
0.000159031
-8.88337e-05
0.000174212
-0.000200812
0.000177823
-0.000222596
0.000144012
-0.000158385
9.33908e-05
-7.71031e-05
-5.17506e-07
-1.27248e-05
-2.82254e-05
1.50801e-05
-1.91626e-05
-4.81297e-06
-5.81907e-05
-0.000102582
-4.68114e-05
-0.000216776
-4.69843e-05
-0.000105866
-2.65342e-05
-3.19352e-05
-3.39057e-05
-5.52045e-05
-4.47144e-05
-5.46041e-05
-5.13732e-05
-2.54465e-05
-7.39577e-05
-9.89918e-05
-0.000171921
-0.00011603
-2.20249e-05
-0.000152953
-2.83832e-05
-0.000148205
2.94931e-05
-0.000136139
2.88654e-05
-0.000196736
0.000132938
-0.000226653
0.000183361
-0.000262198
0.000119879
-2.53516e-05
5.64391e-05
-0.000137371
5.34859e-05
-0.000219643
8.7474e-05
-0.000192373
9.45382e-07
9.42557e-06
-0.000135565
0.000123786
-0.000157868
3.73834e-05
-0.000109401
-5.32799e-05
-7.928e-05
-0.000132703
-7.39681e-05
-0.000222088
-9.2454e-05
-8.73805e-05
-6.50787e-05
-5.93106e-05
-6.85003e-05
-5.17829e-05
-7.31439e-05
-4.99605e-05
-4.16651e-05
-5.69253e-05
-8.82177e-05
-5.24392e-05
-0.000124626
-0.000135513
-1.23515e-05
-0.000140602
-8.56961e-07
-0.000159699
3.38484e-05
-0.000170844
2.5239e-05
-0.000188127
-1.01808e-05
-0.000191233
-3.6795e-05
-0.000235584
7.12595e-05
-0.000133406
3.44612e-05
-0.000100573
-4.31719e-05
-0.00014201
-4.71735e-05
-0.000188372
-2.22936e-05
-1.54543e-05
-1.07492e-05
0.000112241
9.86776e-06
1.67664e-05
1.57903e-05
-5.92025e-05
-1.70905e-05
-9.98226e-05
-0.000132728
-0.000106451
-0.000141035
-7.90734e-05
-0.000102631
-9.77145e-05
-8.00412e-05
-7.43729e-05
-7.24848e-05
-5.75168e-05
-6.13039e-05
-6.81061e-05
-5.6498e-05
-5.7245e-05
-5.54121e-05
-0.000125712
-9.33896e-06
-0.000131263
2.08991e-05
-0.000189937
1.84203e-06
-0.000151787
-3.5524e-05
-0.000150761
-6.59136e-05
-0.000160843
-7.95421e-05
-0.000221955
-7.85036e-07
-0.000212163
-1.43108e-07
-0.000101215
-2.85933e-05
-0.00011356
-6.00225e-05
-0.000156942
-3.9056e-05
-3.64208e-05
2.19464e-05
5.1239e-05
4.91922e-05
-1.04793e-05
1.10934e-05
-2.11038e-05
-4.20654e-05
-4.66638e-05
-7.2745e-05
-7.57709e-05
-9.55363e-05
-5.6282e-05
-0.000102844
-9.04072e-05
-9.87519e-05
-7.84646e-05
-0.000121844
-3.44243e-05
-0.000125486
-6.44649e-05
-7.97747e-05
-0.000102956
-5.4772e-05
-8.04148e-05
3.25197e-05
-0.000163783
2.25243e-06
-0.00015967
-3.80424e-05
-0.000111493
-8.84712e-05
-0.000100332
-9.23859e-05
-0.000156929
-0.000128302
-0.000186039
-5.84854e-05
-0.00028198
-5.3163e-05
-0.000106538
-3.36337e-05
-0.000133089
-5.53678e-05
-0.000135208
-4.94721e-05
-4.23165e-05
1.75761e-05
-1.58093e-05
1.7635e-06
5.33333e-06
-1.52681e-05
-4.07221e-06
-3.10186e-05
-3.09132e-05
-6.38979e-05
-4.28916e-05
-7.66974e-05
-4.34825e-05
-8.96968e-05
-7.74077e-05
-0.000114229
-5.39325e-05
-6.69821e-05
-8.1671e-05
-6.80424e-05
-6.34046e-05
-7.41906e-05
-9.68077e-05
-5.77256e-05
-7.1237e-05
4.22626e-05
-0.000206045
-2.79036e-05
-8.95039e-05
-6.55129e-05
-7.38832e-05
-0.000117824
-4.80209e-05
-5.83814e-05
-0.000216371
-6.47639e-05
-0.000179657
-0.000132947
-0.000213797
-0.000100933
-0.000138552
-0.000125034
-0.000108987
-0.000163382
-9.68604e-05
-0.000144396
-6.13027e-05
-9.40559e-05
-6.61494e-05
-7.639e-05
-1.23326e-05
-5.5549e-05
-2.49131e-05
-4.89227e-05
-3.75395e-05
-6.02715e-05
-3.15428e-05
-6.45474e-05
-3.92066e-05
-9.25219e-05
-4.94333e-05
-4.47981e-05
-0.000101656
-6.51197e-05
-6.13495e-05
-8.04568e-05
-4.80674e-05
-8.93859e-05
-8.78786e-05
-4.99819e-05
-9.71295e-05
-3.17805e-06
-0.000202867
-2.85976e-06
-8.98222e-05
-1.90117e-05
-5.77313e-05
-1.9313e-06
-6.51013e-05
-4.80459e-05
-0.000170257
-5.91563e-05
-0.000168547
-8.14942e-05
-0.000191459
-6.91078e-05
-0.000150938
-0.000101639
-7.64562e-05
-0.000127456
-7.10431e-05
-8.7493e-05
-0.000101265
-8.4064e-05
-6.95784e-05
-7.25547e-05
-2.38419e-05
-6.62116e-05
-3.12562e-05
-6.17949e-05
-4.19562e-05
-4.66968e-05
-4.66409e-05
-4.97659e-05
-3.61376e-05
-4.9834e-05
-4.93651e-05
-0.000108929
-4.25616e-05
-0.00012029
-4.99881e-05
-7.20728e-05
-9.62846e-05
-9.13141e-05
-6.86373e-05
-4.73815e-05
-9.39145e-05
-3.74831e-06
-0.000199119
-2.25763e-06
-9.13129e-05
6.84303e-06
-6.6832e-05
2.62494e-07
-5.85208e-05
-3.92452e-05
-0.000130749
-7.48724e-05
-0.000132919
-8.78669e-05
-0.000178465
-9.78812e-05
-0.000140924
-9.90225e-05
-7.53149e-05
-0.000109738
-6.03279e-05
-9.30452e-05
-0.000117958
-0.000129821
-3.28023e-05
-7.88402e-05
-7.48229e-05
-6.25058e-05
-4.75906e-05
-8.12208e-05
-2.32412e-05
-8.14095e-05
-4.64522e-05
-5.28117e-05
-6.47354e-05
-6.35351e-05
-3.86418e-05
-6.51346e-05
-4.09621e-05
-6.59328e-05
-4.91899e-05
-0.000129588
-3.2629e-05
-0.00014575
-5.24755e-05
-4.38389e-05
-0.000149293
-2.8733e-05
-0.000170386
-3.84366e-06
-0.000116202
-1.33702e-05
-5.73055e-05
-1.46363e-06
-7.04274e-05
-1.74754e-05
-0.000114737
-3.3249e-06
-0.00014707
-6.48936e-05
-0.000116896
-5.47637e-05
-0.000151054
-6.77803e-05
-6.22983e-05
-5.73513e-05
-7.07568e-05
-0.000111088
-6.42214e-05
-8.02264e-05
-6.36637e-05
-0.000112346
-4.27036e-05
-9.6392e-05
-6.35443e-05
-8.29904e-05
-3.66428e-05
-7.93838e-05
-5.00587e-05
-0.00010598
-3.81391e-05
-7.26113e-05
-7.20105e-05
-7.75411e-05
-3.60323e-05
-7.68041e-05
-4.99269e-05
-6.40203e-05
-4.54127e-05
-6.66899e-05
-4.98059e-05
-2.91873e-05
-8.13416e-05
-4.32047e-05
-0.000127181
-5.07727e-05
-0.000108634
-1.60118e-05
-9.20664e-05
-4.18025e-06
-8.2259e-05
-1.3656e-05
-0.000105262
-9.91485e-06
-0.000150811
-2.27378e-05
-0.000104073
-7.39915e-05
-9.98002e-05
-5.75983e-05
-7.86916e-05
-5.5644e-05
-7.27111e-05
-5.40577e-05
-6.58078e-05
-5.53879e-05
-6.23335e-05
-4.77327e-05
-5.03588e-05
-7.03113e-05
-4.09658e-05
-4.70846e-05
-5.98695e-05
-4.28046e-05
-5.43388e-05
-4.54325e-05
-3.55112e-05
-7.00426e-05
-4.74004e-05
-6.7049e-05
-3.90259e-05
-6.52928e-05
-5.16832e-05
-6.66439e-05
-4.40616e-05
-7.07103e-05
-4.57396e-05
-2.58729e-05
-7.40246e-05
-2.16673e-05
-0.000105514
-3.38019e-05
-9.64997e-05
-3.1845e-05
-9.40234e-05
1.84936e-05
-0.000132598
6.64998e-06
-9.3418e-05
-4.1602e-05
-0.000102559
-5.22205e-05
-9.34544e-05
-5.65818e-05
-9.54389e-05
-4.52108e-05
-9.00626e-05
-4.58972e-05
-7.20247e-05
-4.69543e-05
-6.47506e-05
-5.11703e-05
-5.81175e-05
-6.00799e-05
-4.14491e-05
-5.68344e-05
-4.42113e-05
-4.09463e-05
-7.57576e-05
-5.52952e-05
-3.99898e-05
-5.50544e-05
-3.57521e-05
-5.89642e-05
-4.34906e-05
-5.52395e-05
-4.27507e-05
-6.05751e-05
-4.63475e-05
-6.26031e-05
-4.20336e-05
-6.43694e-05
-4.39732e-05
-2.38344e-05
-6.6408e-05
-2.93488e-05
-7.61651e-05
-1.00316e-05
-0.000115817
1.27998e-06
-0.000105335
-1.84138e-05
-0.000112904
-2.26404e-06
-0.000109568
-1.70226e-05
-8.78007e-05
-3.43042e-05
-7.61728e-05
-4.49082e-05
-8.4835e-05
-5.87932e-05
-7.61775e-05
-6.36076e-05
-6.72104e-05
-6.55003e-05
-6.28579e-05
-6.55678e-05
-5.805e-05
-5.81773e-05
-4.88396e-05
-5.51472e-05
-4.72414e-05
-8.14097e-05
-4.94951e-05
-4.62868e-05
-7.51127e-05
-4.61023e-05
-3.59366e-05
-5.17623e-05
-3.78307e-05
-5.23792e-05
-4.21337e-05
-6.632e-05
-3.24067e-05
-6.72839e-05
-4.10697e-05
-6.93744e-05
-4.18828e-05
-2.74918e-05
-6.5717e-05
1.59922e-05
-9.21573e-05
-3.31587e-08
-9.97916e-05
-1.33334e-05
-9.20348e-05
-2.51405e-05
-0.000101097
-3.64807e-05
-9.82275e-05
-2.79133e-05
-9.63681e-05
-8.10638e-06
-9.59797e-05
-2.53054e-05
-6.7636e-05
-4.15096e-05
-5.99733e-05
-4.97882e-05
-5.89319e-05
-5.47868e-05
-5.78593e-05
-5.65476e-05
-5.62892e-05
-4.9549e-05
-5.58382e-05
-3.78759e-05
-5.89145e-05
-3.22613e-05
-5.51096e-05
-5.50619e-05
-5.23122e-05
-5.43384e-05
-3.66601e-05
-4.35282e-05
-4.86409e-05
-5.32867e-05
-3.23752e-05
-5.66434e-05
-2.905e-05
-5.79039e-05
-3.98092e-05
-6.20857e-05
-3.7701e-05
-2.21086e-05
-6.74689e-05
-4.30689e-06
-8.78504e-05
-9.59361e-06
-9.45049e-05
-7.16e-06
-9.44684e-05
-1.73851e-05
-9.08718e-05
-2.38687e-05
-9.1744e-05
-3.51354e-05
-8.51014e-05
-4.54996e-05
-8.56155e-05
-3.6015e-05
-7.71206e-05
-5.03494e-05
-4.5639e-05
-6.62218e-05
-4.30595e-05
-5.62966e-05
-6.77845e-05
-4.4864e-05
-6.77217e-05
-3.48435e-05
-6.58588e-05
-4.50854e-05
-4.86726e-05
-5.60458e-05
-4.41493e-05
-5.95557e-05
-4.88023e-05
-3.4743e-05
-6.14728e-05
-4.98163e-05
-3.35676e-05
-5.11838e-05
-3.10077e-05
-5.26945e-05
-2.75393e-05
-5.75489e-05
-3.49548e-05
-6.12883e-05
-3.39616e-05
-2.27854e-05
-6.06115e-05
-3.42596e-07
-8.75078e-05
-5.52584e-06
-8.93217e-05
-1.0399e-05
-8.95952e-05
-1.55873e-05
-8.56835e-05
-2.17892e-05
-8.55421e-05
-2.56146e-05
-8.12761e-05
-3.06842e-05
-8.05459e-05
-3.35519e-05
-7.42529e-05
-3.94531e-05
-3.97379e-05
-4.49723e-05
-3.75403e-05
-5.07817e-05
-6.19751e-05
-5.6469e-05
-6.20345e-05
-5.97756e-05
-6.25522e-05
-4.60469e-05
-6.24013e-05
-5.15902e-05
-3.86059e-05
-4.19782e-05
-5.84143e-05
-6.55009e-05
-3.79502e-05
-4.03585e-05
-5.87101e-05
-4.47158e-05
-2.66505e-05
-4.59485e-05
-2.63066e-05
-4.8932e-05
-3.19713e-05
-5.29986e-05
-2.9895e-05
-2.10828e-05
-5.47012e-05
-3.95372e-06
-8.35541e-05
-7.76171e-06
-8.55137e-05
-1.11716e-05
-8.61853e-05
-1.4297e-05
-8.25581e-05
-1.86099e-05
-8.12292e-05
-2.47371e-05
-7.51488e-05
-3.16309e-05
-7.36521e-05
-3.35691e-05
-7.23148e-05
-3.71625e-05
-3.61445e-05
-3.99446e-05
-3.47582e-05
-4.35709e-05
-5.83487e-05
-4.89101e-05
-5.66953e-05
-4.97059e-05
-6.17564e-05
-4.96186e-05
-6.24887e-05
-5.2079e-05
-3.61455e-05
-4.93505e-05
-6.11428e-05
-5.26542e-05
-3.46465e-05
-6.34955e-05
-4.78687e-05
-4.08611e-05
-4.92849e-05
-3.75179e-05
-2.96498e-05
-4.80134e-05
-2.14757e-05
-5.42666e-05
-2.36419e-05
-2.14584e-05
-5.38909e-05
-1.54502e-06
-8.20091e-05
-3.5425e-06
-8.35163e-05
-8.31231e-06
-8.14155e-05
-1.0863e-05
-8.00074e-05
-1.4572e-05
-7.75203e-05
-1.87359e-05
-7.09849e-05
-2.42291e-05
-6.81589e-05
-2.57086e-05
-7.08352e-05
-2.40073e-05
-3.78459e-05
-2.18583e-05
-3.69072e-05
-4.33678e-05
-3.68392e-05
-3.4253e-05
-6.58102e-05
-3.3841e-05
-6.21683e-05
-4.40923e-05
-5.22374e-05
-2.16169e-05
-5.86209e-05
-4.64283e-05
-3.63314e-05
-2.92632e-05
-5.18116e-05
-4.6845e-05
-3.02869e-05
-4.06653e-05
-5.54646e-05
-4.23771e-05
-2.79381e-05
-4.36319e-05
-2.0221e-05
-4.67888e-05
-2.0485e-05
-1.80218e-05
-5.02255e-05
-1.97001e-06
-8.00391e-05
-3.78494e-06
-8.17014e-05
-8.4942e-06
-7.67062e-05
-1.13882e-05
-7.71134e-05
-1.52726e-05
-7.36359e-05
-1.89246e-05
-6.7333e-05
-2.3656e-05
-6.34275e-05
-2.604e-05
-6.84512e-05
-2.78692e-05
-3.60166e-05
-2.71479e-05
-3.76285e-05
-2.98957e-05
-3.40914e-05
-2.50083e-05
-7.06976e-05
-2.76413e-05
-5.95353e-05
-2.77601e-05
-5.21187e-05
-2.88257e-05
-5.75553e-05
-3.86572e-05
-2.64999e-05
-3.93486e-05
-5.11202e-05
-4.04866e-05
-2.9149e-05
-5.06063e-05
-4.53448e-05
-3.75491e-05
-4.09953e-05
-3.7671e-05
-2.0099e-05
-4.36176e-05
-1.45384e-05
-1.3649e-05
-4.79904e-05
-2.10412e-06
-7.7935e-05
-4.11233e-06
-7.96932e-05
-4.75124e-06
-7.60673e-05
-3.10551e-06
-7.87591e-05
2.04224e-07
-7.69457e-05
-1.88831e-05
-4.82456e-05
-3.64463e-05
-4.58643e-05
-3.10306e-05
-7.38669e-05
-2.6164e-05
-4.08832e-05
-2.3621e-05
-4.01716e-05
-1.8458e-05
-3.92543e-05
-2.42928e-05
-6.48629e-05
-2.89183e-05
-5.49098e-05
-2.76776e-05
-5.33593e-05
-4.22008e-05
-4.30322e-05
-2.13127e-05
-4.73881e-05
-2.9619e-05
-4.28138e-05
-3.21351e-05
-2.66328e-05
-3.89482e-05
-3.85317e-05
-3.20492e-05
-4.78944e-05
-3.99268e-05
-1.22214e-05
-4.07556e-05
-1.37095e-05
-1.22527e-05
-4.21519e-05
-2.7349e-06
-7.52001e-05
-5.34252e-06
-7.70856e-05
-7.19069e-06
-7.42192e-05
-1.02366e-05
-7.57132e-05
-1.34779e-05
-7.37044e-05
-1.49314e-05
-4.67921e-05
-1.69187e-05
-4.38771e-05
-1.69745e-05
-7.38111e-05
-1.40952e-05
-4.37625e-05
-1.42519e-05
-4.00149e-05
-1.27567e-05
-4.07496e-05
-1.74349e-05
-6.01847e-05
-2.25881e-05
-4.97566e-05
-2.39763e-05
-5.19711e-05
-2.26657e-05
-4.43429e-05
-2.18646e-05
-4.81892e-05
-3.95885e-05
-2.509e-05
-2.58347e-05
-4.03866e-05
-3.95835e-05
-2.47829e-05
-5.1965e-05
-3.55129e-05
-3.25695e-05
-3.16169e-05
-3.37082e-05
-1.25708e-05
-7.39524e-06
-3.85657e-05
-1.67409e-06
-7.3526e-05
-3.36904e-06
-7.53906e-05
-5.09902e-06
-7.24892e-05
-6.75856e-06
-7.40537e-05
-9.09046e-06
-7.13725e-05
-1.27027e-05
-4.31798e-05
-1.73191e-05
-3.92608e-05
-3.02656e-05
-6.08646e-05
-1.8905e-05
-5.51231e-05
-6.03487e-06
-5.2885e-05
-1.59507e-05
-3.08339e-05
-2.51223e-05
-5.1013e-05
-2.27412e-05
-5.21377e-05
-2.58568e-05
-4.88555e-05
-2.51227e-05
-4.50769e-05
-3.69847e-05
-3.63272e-05
-2.4554e-05
-3.75207e-05
-2.63277e-05
-3.86129e-05
-2.76156e-05
-2.3495e-05
-3.21022e-05
-3.10264e-05
-2.62707e-05
-3.74484e-05
-3.28319e-05
-6.00963e-06
-4.93631e-06
-3.52908e-05
-8.7543e-07
-7.26506e-05
-2.25827e-06
-7.40078e-05
-3.7272e-06
-7.10203e-05
-8.05682e-06
-6.97241e-05
-1.82221e-05
-6.12072e-05
-1.87471e-06
-5.95273e-05
-7.21817e-06
-3.39173e-05
-1.16867e-05
-5.6396e-05
-1.34502e-05
-5.33597e-05
-9.31631e-06
-5.70189e-05
-8.85604e-06
-3.12941e-05
-2.81381e-05
-3.1731e-05
-2.12216e-05
-5.90542e-05
-2.11033e-05
-4.89738e-05
-2.09267e-05
-4.52535e-05
-2.05788e-05
-3.6675e-05
-2.04249e-05
-3.76746e-05
-2.69558e-05
-3.20821e-05
-1.76503e-05
-3.28005e-05
-3.09942e-05
-1.76825e-05
-5.06959e-05
-1.77466e-05
-3.29023e-05
-2.38032e-05
-1.43173e-06
-3.64069e-05
-5.3778e-07
-7.21128e-05
-2.05709e-06
-7.24885e-05
-1.39829e-06
-7.16791e-05
-5.31767e-06
-6.58047e-05
-4.44569e-06
-6.20792e-05
-4.12839e-06
-5.98446e-05
-3.76309e-06
-3.42826e-05
-2.26564e-05
-3.75027e-05
-1.32979e-05
-6.27182e-05
-1.14823e-05
-5.88345e-05
-9.08158e-06
-3.36948e-05
-1.01249e-05
-3.06877e-05
-1.58717e-05
-5.33074e-05
-1.84961e-05
-4.63494e-05
-2.04991e-05
-4.32506e-05
-1.93844e-05
-3.77897e-05
-2.61562e-05
-3.09028e-05
-2.66821e-05
-3.15562e-05
-3.07642e-05
-2.87184e-05
-3.1718e-05
-1.67287e-05
-2.88625e-05
-2.06021e-05
-3.96213e-05
-1.30444e-05
-1.01333e-05
-3.09197e-05
-1.95378e-08
-7.20933e-05
-3.9835e-07
-7.21097e-05
1.2784e-06
-7.33558e-05
8.97624e-07
-6.54239e-05
-1.72492e-05
-4.39324e-05
-9.35256e-06
-6.77412e-05
-7.04735e-06
-3.65878e-05
-9.84568e-06
-3.47044e-05
-7.53506e-06
-6.50288e-05
-9.97585e-06
-5.63937e-05
-9.81149e-06
-3.38592e-05
-1.13328e-05
-2.91664e-05
-1.48289e-05
-4.98113e-05
-1.60488e-05
-4.51295e-05
-1.63872e-05
-4.29122e-05
-1.65202e-05
-3.76567e-05
-1.65132e-05
-3.09098e-05
-1.41374e-05
-3.3932e-05
-1.95351e-05
-2.33207e-05
-2.26357e-05
-1.3628e-05
-2.53017e-05
-1.79362e-05
-3.03945e-05
-7.95156e-06
-1.19465e-05
-2.85813e-05
-6.7528e-07
-7.1418e-05
-5.81935e-07
-7.2203e-05
-2.22643e-06
-7.17113e-05
-3.5079e-06
-6.41425e-05
-6.95259e-06