/*--------------------------------*- C++ -*----------------------------------*\
| =========                 |                                                 |
| \\      /  F ield         | foam-extend: Open Source CFD                    |
|  \\    /   O peration     | Version:     4.1                                |
|   \\  /    A nd           | Web:         http://www.foam-extend.org         |
|    \\/     M anipulation  |                                                 |
\*---------------------------------------------------------------------------*/
FoamFile
{
    version     2.0;
    format      ascii;
    class       volScalarField;
    location    "0.25";
    object      psi;
}
// * * * * * * * * * * * * * * * * * * * * * * * * * * * * * * * * * * * * * //

dimensions      [1 -1 -2 0 0 0 0];

internalField   nonuniform List<scalar> 
2268
(
-1.90994e-10
6.91216e-11
-1.6189e-10
-1.51886e-10
-1.41881e-10
-1.38243e-10
-2.70119e-10
-5.02492e-09
-1.17335e-07
-1.65853e-06
-5.71288e-05
-1.49644
-6.97142
-19.0019
-42.5751
-106.845
-315.836
-612.643
-455.709
-331.399
-292.218
-2515.25
2801.35
-5.72981e-11
1.41881e-10
-7.27595e-11
-1.8099e-10
-1.89175e-10
-1.27329e-10
-1.98268e-10
-5.76972e-09
-1.06166e-07
-1.4269e-05
-0.000625417
-11.7171
-110.404
-395.529
-325.086
-405.828
-1222.2
-2806.86
-2838.03
-2782.76
-1199.98
-1659.11
-2450.76
-2.00088e-11
1.38243e-10
-6.27551e-11
-1.56433e-10
-1.56433e-10
-2.93763e-10
-2.60092e-10
-6.54613e-08
-8.86343e-07
-0.000111008
-0.0054509
-46.6802
-1166.87
-1738.71
-1549.83
-1865.32
-2818.38
-1171.54
-1865.14
-2448.64
-2660.41
-1719.68
-2438.23
-6.91215e-11
1.19145e-10
-8.09441e-11
-3.59247e-10
-3.56517e-10
-3.28414e-09
-2.69629e-09
-9.6278e-07
-1.675e-05
-0.000779371
-0.0120815
-109.746
-2495.87
-2795.18
-2619.52
-491.21
-199.61
-808.655
-2221.9
-2799.04
-2423.82
-1669.97
-2472.75
-2.29184e-10
-5.29309e-10
-7.54864e-10
-3.31232e-09
-3.5988e-09
-3.96071e-08
-5.41236e-08
-1.13142e-05
-0.000303821
-0.00551972
-0.0200725
-0.390562
-124.889
-270.38
-1517.91
-2631.67
-2855.71
-2567.36
-2586.91
-2775.11
-2855.66
-2019.08
-2635.05
-6.43448e-09
-1.33402e-08
-1.29564e-08
-4.66856e-08
-4.66582e-08
-4.09664e-07
-1.19648e-06
-0.000103727
-0.00479329
-0.0346989
-0.11932
-0.259492
-11.3791
-98.9782
-633.568
-1105.4
-2266.04
-2810.72
-2840.88
-2801.31
-457.523
-2600.65
-2800.82
-1.50449e-07
-2.26529e-07
-1.89993e-07
-5.36394e-07
-4.76901e-07
-3.74501e-06
-1.28284e-05
-0.00153697
-0.0405363
-0.228628
-0.588876
-1.19706
-18.4733
-182.24
-1300.87
-2152.79
-2691
-2606.59
-2560.83
-2812.32
-1371.27
-1897.8
-2845.39
-2.93754e-06
-3.24904e-06
-2.37036e-06
-5.04059e-06
-3.9877e-06
-2.96407e-05
-0.000113546
-0.0148712
-0.228712
-1.21717
-3.22899
-3.88741
-11.8371
-47.3612
-1177.6
-2812.08
-2729.34
-2404.23
-1426.38
-2505.54
-1894.97
-447.05
-2171.96
6.48236e-06
9.24794e-05
0.000374203
0.000724558
8.41083e-06
7.76418e-05
1.58608e-06
3.07811e-07
1.91767e-08
9.9028e-10
1.81797e-11
-3.63802e-11
-6.27552e-11
-2.63754e-11
-4.91129e-11
-2.63754e-11
1.63708e-11
5.63889e-11
-9.27686e-11
0.00032025
0.00447311
0.0181615
0.0306806
0.000790333
0.00515627
0.000150796
2.9131e-05
1.89885e-06
1.13109e-07
7.20092e-09
2.4191e-10
-6.36674e-12
4.00179e-11
5.45699e-11
4.45654e-11
7.27599e-11
-5.27509e-11
1.00046e-11
0.00849033
0.108073
0.385605
0.555506
0.0341886
0.157957
0.00651048
0.00121094
8.607e-05
5.69084e-06
3.23541e-07
1.03234e-08
1.96444e-10
2.45563e-11
2.45565e-11
-4.00178e-11
-4.63844e-11
-7.91262e-11
-2.63754e-11
0.100176
1.25167
4.1433
5.42688
0.776505
2.58933
0.175794
0.0294763
0.00246806
0.000178503
7.6055e-06
1.53842e-07
3.51597e-09
2.18247e-11
-9.54972e-11
-9.9135e-11
-4.91127e-11
-2.63752e-11
-1.63709e-11
0.434833
7.31956
25.9022
33.2313
10.1963
28.2429
2.80439
0.477663
0.049167
0.00361536
0.000136505
3.01915e-06
7.50507e-08
1.71163e-09
-4.27471e-11
-1.28239e-10
-5.91171e-11
-6.63932e-11
-1.00044e-11
1.08594
15.7837
102.249
158.815
95.6915
197.354
29.395
5.50078
0.705034
0.0469655
0.00131341
3.4435e-05
8.9068e-07
2.14954e-08
3.44687e-10
-7.91262e-11
-8.2764e-11
-7.91262e-11
-4.91128e-11
5.74745
24.1895
268.786
610.778
656.086
899.814
235.228
43.2244
6.60554
0.441809
0.0154586
0.000439328
1.18122e-05
2.8283e-07
5.59317e-09
3.6339e-12
-1.15506e-10
-1.00044e-11
-3.2742e-11
394.525
83.8163
670.673
1722.96
2268.54
2336.93
967.476
241.959
53.3796
4.96434
0.229726
0.007703
0.00022931
5.86934e-06
1.23165e-07
2.03444e-09
-4.63858e-11
2.0009e-11
8.09453e-11
-6.95615e-05
-6.52348e-05
-3.88489e-05
-5.86287e-05
-4.12484e-05
-0.000307205
-0.00112408
-0.188943
-1.85386
-8.27867
-23.4308
-22.5788
-35.0855
-56.4486
-480.162
-2386.38
-2785.84
-2381.01
-2209.18
-2589.66
-2718.73
-2414.41
-1551.29
-0.00155314
-0.00129641
-0.000626716
-0.000575433
-0.000405192
-0.00361606
-0.0133365
-2.04516
-16.3206
-63.8092
-182.408
-207.884
-262.076
-431.955
-464.859
-603.855
-1555.22
-2703.37
-2535.49
-2374.53
-2203.03
-2479.6
-2821.58
-0.0360098
-0.0168985
-0.00716387
-0.00434437
-0.00400441
-0.0321441
-0.129658
-13.6807
-94.2387
-326.063
-1036.76
-965.55
-1114.04
-1578.17
-1666.08
-1892.33
-2180.54
-2491.02
-2674.7
-2853.88
-2829.31
-2841.38
-2810.06
-0.521842
-0.230301
-0.0576669
-0.0282419
-0.035668
-0.251495
-1.07899
-76.1853
-452.133
-1315.93
-2552.27
-2694.13
-2648.54
-2857.47
-2857.59
-2710.17
-2536.97
-2505.54
-2365.33
-1925.37
-1111.39
-280.346
-719.303
-4.95654
-1.97694
-0.424989
-0.146738
-0.366426
-1.60461
-7.13964
-371.654
-1734.97
-2790.98
241.027
-1996.5
-1133.04
-343.283
726.101
587.244
393.321
-97.793
-1053.61
-1328.47
-1252.2
-917.882
-79.8816
-33.5253
-11.7081
-2.00392
-0.791798
-2.4126
-12.0605
-42.3884
-1399.6
-2209.38
296.775
2780.81
-732.252
2614.61
2857.57
2541.65
2670.38
2832.82
2595.45
1050.72
1128.47
2046.03
2614.8
2833.12
-179.984
-59.4407
-8.84319
-4.41509
-12.5949
-69.2032
-198.792
-2830.59
2454.35
2823.89
2852.3
277.778
2850.45
1993.47
1198.11
1472.11
2298.69
2558.93
2799.83
2746.5
1957.26
1126.19
407.796
-770.867
-259.724
-37.1446
-24.0114
-55.1469
-301.569
-723.662
-2845.29
2766.13
1996.78
2623.47
1810.46
2716.98
1346.12
519.471
804.092
830.898
950.717
1087.19
968.017
453.401
150.728
60.3543
-2292.54
-966.671
-162.877
-119.428
-209.757
-819.625
-2327.23
-1503.02
2597.97
1527.25
1758.04
2857.33
1853.97
528.398
129.863
207.447
179.216
239.772
214.225
124.09
97.5043
61.884
39.3614
-1873.33
-2482.26
-685.037
-534.014
-601.362
-1878.48
-2563.42
1131.45
2828.18
1016.27
1288.54
2502.02
1317.32
66.2151
24.4295
29.5712
24.5513
46.7608
50.8579
51.6309
34.7292
20.3448
29.959
2550.39
-1841.25
-2063.97
-1906.61
-1313.19
-2407.32
-1619.4
-533.883
759.159
2842.04
1674.84
2252.68
1419.82
58.9624
17.5585
11.8901
11.2601
14.0827
23.2097
52.0741
28.8474
18.0383
34.5067
2558.11
2232.66
-2736.84
-2615.58
-2633.12
-2117.3
-2722.89
-2855.09
-2482.78
952.425
2724.32
2303.74
1435.65
40.3721
20.5948
16.6037
16.8267
12.0534
23.5855
64.0541
20.5221
11.9169
34.9815
2129.58
2762.57
-2153.64
1707
-1844.85
-2040.75
-2855.88
-2816.21
-1666.37
2178.37
2757.37
2186.51
632.156
125.48
21.8756
20.5222
26.5878
20.7263
41.3556
59.2081
5.62786
6.57059
14.1348
2014.07
2639.51
-2064.43
2699.72
556.217
2606.83
1014.62
1352.03
2857.59
1432.04
2337.81
2248.82
925.53
144.24
21.1518
20.8195
29.2058
30.5348
31.6899
14.7259
2.20074
2.94978
5.71237
1894.29
2676.01
-1067.51
2793.75
2848.87
1807.8
1471.06
2712.27
1196.67
385.28
2847.21
2671.12
2809.16
679.096
37.2222
14.3988
19.1444
12.077
5.69919
1.23731
0.481456
0.851218
1.80209
1581.66
2853.86
1778.5
2719.98
1461.17
348.451
74.8485
1650.38
90.4538
78.1131
1252.24
2680.35
1281.31
113.627
1.96423
3.96491
5.98624
3.42585
1.89409
0.338615
0.180224
0.239376
0.430329
373.653
1847.17
2676.06
1796.94
341.8
65.0344
20.9883
53.9045
4.42452
9.06668
166.45
1572.45
34.1945
0.0769248
0.162689
0.784124
1.17493
0.859424
0.725927
0.223605
0.053865
0.0228621
0.0799018
140.399
1676.29
2791.18
1364.85
152.59
16.2736
2.54169
1.71254
0.380289
0.0928151
0.39836
0.824223
0.104834
0.0166315
0.0295727
0.130312
0.195201
0.159338
0.121485
0.0988899
0.0157667
0.00390222
0.0124917
86.745
1882.5
2770.46
2570.25
118.169
3.23058
0.691636
0.439161
0.214165
0.00796839
0.00318983
0.00323742
0.00726777
0.00168515
0.00200556
0.00824374
0.0182765
0.0176609
0.00624488
0.00164622
0.000530419
0.000607621
0.00202801
0.922975
47.5337
1137.24
152.395
5.65033
0.770708
0.25031
0.192803
0.254105
0.00657252
0.000746881
0.000136035
8.39484e-05
6.76772e-05
5.93632e-05
0.000143361
0.000408132
0.000898302
0.00119422
0.000815785
0.00028346
0.000163629
0.000460849
0.477661
6.75967
45.7871
2.17185
0.667766
0.147583
0.11196
0.0419076
0.168071
0.006629
0.000698046
1.80428e-05
2.73267e-06
2.65477e-06
7.65044e-06
2.22929e-05
8.71515e-05
0.000211452
0.000343371
0.000326279
0.000255576
1.83832e-05
1.02039e-05
0.0317679
0.124085
0.376256
0.0196571
0.0067855
0.0052063
0.0330408
0.00788405
0.0183897
0.00132064
0.000987936
9.58941e-06
9.39089e-08
5.12838e-08
9.35337e-08
5.5279e-07
3.75228e-06
1.53503e-05
3.05805e-05
2.83779e-05
1.8892e-05
2.28253e-06
4.08202e-07
0.00592107
0.000587448
0.000137561
8.52692e-06
7.54355e-05
0.000917074
0.00270157
0.00040585
0.000655908
4.3255e-05
8.84267e-06
1.46116e-06
1.02179e-09
4.52912e-10
3.42057e-09
3.22823e-08
1.73778e-07
6.28165e-07
1.64962e-06
2.02984e-06
1.78434e-06
2.91687e-07
1.57013e-08
0.00143327
0.000130084
1.87399e-05
2.59285e-05
2.52907e-06
6.75667e-05
0.000198446
1.42158e-05
2.78887e-06
1.48379e-08
1.417e-09
2.75128e-10
8.54921e-11
9.73158e-11
2.51019e-10
8.84018e-10
5.4651e-09
2.5764e-08
9.06644e-08
1.42231e-07
1.17165e-07
2.5001e-08
5.68422e-10
8.29886e-05
2.43172e-05
4.41611e-07
5.34511e-08
3.44047e-07
1.29598e-06
2.92187e-06
3.16166e-07
5.71341e-09
1.71888e-10
1.31876e-10
9.36779e-11
9.36779e-11
1.33696e-10
8.09449e-11
1.09139e-10
2.86489e-10
9.36771e-10
4.09816e-09
7.45509e-09
6.7275e-09
2.59842e-09
3.09219e-11
4.56107e-07
3.352e-08
4.95843e-09
5.42041e-10
2.25449e-10
3.65219e-10
4.3748e-10
1.25413e-10
1.19142e-10
8.91304e-11
1.0732e-10
7.9126e-11
1.2551e-10
9.27684e-11
9.36779e-11
8.0945e-11
8.91304e-11
1.40062e-10
1.7826e-10
2.73756e-10
2.60114e-10
7.09398e-11
-1.63709e-11
5.4732e-09
9.92248e-10
2.24644e-10
1.05501e-10
6.6393e-11
4.45651e-11
1.30058e-10
1.13687e-10
1.36424e-10
1.17325e-10
1.38243e-10
1.03682e-10
8.0945e-11
1.19144e-10
1.46429e-10
1.15506e-10
1.0732e-10
1.09139e-10
9.27684e-11
3.45607e-11
-8.85972e-17
-2.63754e-11
-4.91127e-11
1.43699e-10
8.54922e-11
1.53705e-10
1.17325e-10
1.23691e-10
1.31877e-10
1.54614e-10
1.40062e-10
1.20053e-10
1.19144e-10
1.20053e-10
1.2551e-10
1.11868e-10
9.36779e-11
1.0732e-10
1.23691e-10
1.40062e-10
1.23691e-10
9.54969e-11
7.45786e-11
2.00089e-11
-1.63709e-11
1.45519e-11
1.19144e-10
8.91304e-11
1.82808e-10
1.56433e-10
1.41881e-10
1.20053e-10
1.38243e-10
1.21872e-10
1.01863e-10
1.23691e-10
8.0945e-11
8.91305e-11
7.45785e-11
1.09139e-10
4.00177e-11
1.10049e-10
1.30058e-10
9.91349e-11
7.45785e-11
1.05501e-10
3.09228e-11
1.81899e-12
2.00089e-11
1.40062e-10
8.0945e-11
1.54614e-10
1.66438e-10
1.00954e-10
1.20053e-10
1.70076e-10
1.60071e-10
9.09494e-11
9.36779e-11
9.36779e-11
1.21872e-10
8.91305e-11
1.17325e-10
1.10049e-10
1.38243e-10
1.60071e-10
7.7307e-11
9.3678e-11
7.45786e-11
3.09228e-11
-3.63798e-11
1.63709e-11
1.23691e-10
6.27551e-11
9.73159e-11
1.38243e-10
1.19144e-10
1.09139e-10
1.66438e-10
1.01863e-10
8.2764e-11
1.2551e-10
1.51886e-10
1.20053e-10
1.0732e-10
1.64619e-10
1.00954e-10
1.6189e-10
1.35515e-10
9.09495e-11
7.5488e-11
9.3678e-11
1.63709e-11
-1.36424e-11
1.63709e-11
1.628e-10
6.73026e-11
1.27329e-10
9.73159e-11
1.31877e-10
1.03682e-10
1.0732e-10
1.19144e-10
1.0732e-10
1.33696e-10
1.54614e-10
1.17325e-10
1.00954e-10
1.2551e-10
1.00954e-10
1.05501e-10
1.53705e-10
1.21872e-10
1.0732e-10
8.54925e-11
1.63709e-11
-5.63887e-11
-1.63709e-11
1.94632e-10
2.27373e-11
9.54969e-11
1.40062e-10
1.99179e-10
1.19144e-10
8.91304e-11
1.60071e-10
8.91305e-11
8.54924e-11
1.40062e-10
9.54969e-11
1.8099e-10
1.82808e-10
1.27329e-10
1.41881e-10
1.23691e-10
1.21872e-10
1.03682e-10
1.0732e-10
4.45652e-11
3.638e-12
2.63754e-11
2.75577e-10
4.91126e-11
1.2551e-10
1.48248e-10
1.86446e-10
1.17325e-10
1.09139e-10
1.68257e-10
9.09494e-11
1.58252e-10
1.38243e-10
1.27329e-10
1.51886e-10
1.10049e-10
1.17325e-10
1.38243e-10
1.17325e-10
1.628e-10
1.05501e-10
1.0732e-10
3.45608e-11
-7.54881e-11
-7.27597e-11
2.73758e-10
3.63797e-11
1.05501e-10
1.05501e-10
1.31877e-10
8.73115e-11
1.50067e-10
1.54614e-10
1.13687e-10
1.86446e-10
1.28239e-10
1.05501e-10
1.23691e-10
7.09405e-11
1.41881e-10
1.35515e-10
1.35515e-10
1.21872e-10
1.35515e-10
1.05501e-10
6.45741e-11
1.63709e-11
2.81944e-11
2.31012e-10
6.09361e-11
1.0732e-10
8.0945e-11
1.01863e-10
5.63886e-11
1.28239e-10
1.74623e-10
1.58252e-10
1.56433e-10
1.21872e-10
1.56433e-10
1.0732e-10
9.36779e-11
1.33696e-10
1.28239e-10
1.46429e-10
1.23691e-10
1.03682e-10
1.0732e-10
9.27685e-11
-2.00089e-11
-3.63798e-11
2.11003e-10
3.00132e-11
1.41881e-10
1.19144e-10
8.91305e-11
4.63842e-11
1.51886e-10
1.60071e-10
1.33696e-10
1.19144e-10
1.38243e-10
8.2764e-11
1.33696e-10
1.36424e-10
1.628e-10
1.72804e-10
1.68257e-10
1.23691e-10
1.36424e-10
1.05501e-10
6.63931e-11
1.81899e-11
4.82033e-11
1.36424e-10
4.27462e-11
1.19144e-10
5.91171e-11
1.05501e-10
3.45608e-11
8.91305e-11
1.15506e-10
8.54925e-11
1.628e-10
8.2764e-11
1.20053e-10
1.33696e-10
1.20053e-10
1.03682e-10
1.50067e-10
1.53705e-10
1.36424e-10
1.21872e-10
1.46429e-10
4.82032e-11
-4.27463e-11
3.45608e-11
8.91305e-11
-1.00045e-11
3.00133e-11
3.63796e-12
5.72982e-11
1.63709e-11
6.27552e-11
6.27551e-11
5.45697e-11
1.0732e-10
8.73115e-11
1.0732e-10
8.91305e-11
-3.63799e-11
4.82032e-11
6.73026e-11
1.35515e-10
1.00954e-10
9.27684e-11
1.23691e-10
7.45786e-11
-1.09835e-17
3.63799e-11
2.81944e-11
-6.27552e-11
-3.63798e-11
-7.27596e-11
-2.27374e-11
3.63799e-12
-2.63754e-11
3.55236e-17
-3.63799e-12
-6.36647e-12
4.77758e-18
-6.27552e-11
-4.91127e-11
-6.63932e-11
-3.63795e-12
1.00044e-11
-6.3665e-12
2.63753e-11
1.13687e-10
5.63887e-11
1.05501e-10
-3.27419e-11
-5.27508e-11
3.638e-12
-1.21872e-10
-4.00177e-11
-1.2551e-10
-4.27463e-11
-3.638e-12
-1.00044e-11
-1.48248e-10
-3.00133e-11
-1.05501e-10
-3.27418e-11
-1.15506e-10
-1.15506e-10
-4.63842e-11
-1.09139e-10
6.03577e-17
-8.91306e-11
-6.91216e-11
-1.63709e-11
-1.2551e-10
-3.27419e-11
1.30058e-10
1.20053e-10
2.81944e-11
-3.63798e-11
4.63843e-11
-4.63843e-11
4.09273e-11
9.9135e-11
5.91172e-11
-1.09139e-10
5.72983e-11
-8.27641e-11
-3.00133e-11
-4.27462e-11
-7.27596e-11
-1.00044e-11
-9.5497e-11
-6.36643e-12
-1.63709e-11
-4.91127e-11
-2.27374e-11
-3.27418e-11
5.45697e-11
2.1555e-10
1.40062e-10
-314.633
762.317
1468.85
1636.07
-2164.72
-1442.24
-622.568
-91.5381
-2723.84
-2639.78
-2520.16
-2429.83
-549.161
-275.484
-396.454
-409.635
825.223
1582.32
2497.83
2786.42
2646.84
2356.8
1610.02
979.3
315.798
265.234
175.011
106.074
42.5918
34.924
31.096
28.7327
35.9367
37.2969
39.0828
42.8675
39.0026
54.9078
62.0643
74.4457
57.9597
73.9937
81.5028
87.9392
62.7543
76.2473
83.4407
86.4296
27.8252
40.6029
49.1258
63.9338
10.0159
13.4102
14.3379
17.9907
2.63392
3.57357
3.87982
4.09708
0.401944
0.650982
1.05548
1.35256
0.0927941
0.135277
0.19957
0.240969
0.0171506
0.0223931
0.0327074
0.0383967
0.00372897
0.00533888
0.00635733
0.00673093
0.000681143
0.000744453
0.000764814
0.000746574
1.57692e-05
1.47573e-05
1.46377e-05
1.60074e-05
6.29305e-07
6.98318e-07
8.90765e-07
1.54581e-06
2.18813e-08
3.4124e-08
5.13289e-08
9.59003e-08
8.23086e-10
1.67619e-09
2.49473e-09
4.40193e-09
2.18276e-11
6.63926e-11
1.00953e-10
2.51929e-10
1.18234e-11
4.45654e-11
-1.33581e-16
5.27507e-11
-5.27507e-11
-4.00177e-11
-1.05502e-10
2.27375e-11
2.63971e-17
-2.00089e-11
-4.00178e-11
-3.63799e-11
1.36424e-11
8.18547e-12
1.60975e-17
4.54747e-12
-5.27508e-11
-1.00043e-11
-7.27597e-11
-7.27597e-11
-4.00179e-11
1.4552e-11
-1.36425e-11
3.00134e-11
-5.27508e-11
-1.63709e-11
-1.63709e-11
3.63797e-12
-3.00134e-11
-3.63798e-11
-7.27597e-11
-6.3664e-12
-2.27374e-11
1.18236e-11
-7.54882e-11
-2.63753e-11
-5.27508e-11
-2.00087e-11
-1.21873e-10
-7.54882e-11
-7.54882e-11
-2.27372e-11
-9.27686e-11
-3.00133e-11
-4.91127e-11
-9.27685e-11
-1.25511e-10
-1.63708e-11
-1.63709e-11
-4.27463e-11
-3.27417e-11
-4.27464e-11
-4.00179e-11
-1.63707e-11
-1.01864e-10
-2.00088e-11
-9.91351e-11
-4.00177e-11
-4.27461e-11
-1.25511e-10
1.18233e-11
1.81901e-11
-8.5493e-11
1.21873e-10
1.2733e-10
-5.6389e-11
-5.27506e-11
-1.05502e-10
2768.52
1382.34
2613.39
2852.63
2708.22
2753.27
2637.02
1318.57
468.715
66.8443
4.56387
0.198493
0.00715343
0.000205572
4.75583e-06
8.83341e-08
1.19867e-09
-1.63714e-11
1.18234e-11
1224.66
2456.55
2331.66
1780.13
1634.15
1887.77
2431
2854.2
1871.62
538.95
83.7144
7.43263
0.335925
0.0101185
0.000233226
4.27254e-06
6.01035e-08
5.19303e-10
-6.91218e-11
-2193.21
-1674.58
-1398.69
-858.745
480.68
2637.71
2406.48
1214.08
455.27
138.462
31.8687
4.95792
0.506748
0.0344591
0.00159122
5.02214e-05
1.04822e-06
1.3151e-08
7.73037e-11
-397.928
-269.164
262.32
1284.69
2550.35
2727.88
1936.27
1113.58
527.716
197.518
53.9372
10.1141
1.22853
0.0939675
0.00469338
0.00015616
3.37754e-06
4.35467e-08
2.85571e-10
2764.16
2453.24
2429.3
2711.67
2839.15
2364.83
1786
1127.51
555.742
203.15
51.8847
8.76006
0.972652
0.0720624
0.00359279
0.000120358
2.62419e-06
3.41372e-08
2.47374e-10
937.307
1357.3
2329.46
2260.03
2038.66
1704.04
1389.24
1095.66
678.885
265.439
66.2379
10.6339
1.11724
0.0792381
0.00381673
0.000124261
2.64518e-06
3.3527e-08
2.41008e-10
87.3241
103.088
329.428
555.129
478.861
552.199
647.23
671.524
579.998
295.044
82.5847
14.2185
1.496
0.101469
0.00448798
0.000133781
2.61044e-06
3.07903e-08
1.8462e-10
25.3689
17.5252
13.6106
30.6997
71.3983
128.101
300.931
427.043
408.425
255.04
74.6091
13.0751
1.34062
0.0853073
0.00363417
0.000103204
1.90653e-06
2.09188e-08
1.68251e-10
45.0727
42.848
36.5964
24.7967
31.0644
86.7234
251.455
299.342
262.495
156.553
48.9969
8.38996
0.786669
0.045601
0.00176248
4.56731e-05
7.70855e-07
7.70505e-09
9.27665e-11
73.7433
64.7865
40.4172
24.0667
24.0192
40.7112
132.004
221.031
186.162
86.3733
22.1647
3.0204
0.237439
0.0123923
0.000437413
1.04748e-05
1.6509e-07
1.58794e-09
5.09313e-11
83.8033
49.6703
30.5524
28.4516
38.4347
80.8368
169.315
196.887
144.455
44.7682
7.73758
0.777064
0.05182
0.00240939
7.76258e-05
1.72403e-06
2.55163e-08
2.14634e-10
4.45652e-11
87.276
68.8114
77.3371
107.371
138.835
150.017
165.247
135.362
58.4176
12.7847
1.8884
0.153582
0.00860435
0.000358787
1.04752e-05
2.14368e-07
3.03129e-09
-8.446e-16
8.73115e-11
78.2158
84.6983
86.3572
87.666
98.8935
105.141
89.9009
45.8326
15.5239
3.15122
0.380288
0.0258649
0.00122603
4.32397e-05
1.13093e-06
2.16939e-08
3.1286e-10
-1.6371e-11
7.54881e-11
22.6172
26.6939
20.6811
22.8076
29.7897
35.6452
25.3622
11.3319
3.53747
0.656401
0.0636143
0.00379743
0.000153887
4.72856e-06
1.08971e-07
1.94992e-09
8.27635e-11
3.09228e-11
3.27418e-11
3.99119
3.61593
3.44926
5.07614
6.48498
7.81924
4.7465
1.9695
0.58306
0.104362
0.00863915
0.000484901
1.70944e-05
4.71935e-07
9.70144e-09
2.27371e-10
7.45785e-11
2.45563e-11
3.00133e-11
1.44704
1.23537
0.711673
0.95018
1.26883
1.42744
0.83158
0.309787
0.0839531
0.0120066
0.000936775
5.14165e-05
1.62591e-06
4.18062e-08
8.75831e-10
1.05501e-10
4.91127e-11
4.54747e-12
8.18544e-12
0.271262
0.22816
0.131263
0.180278
0.232527
0.210488
0.120768
0.03923
0.00977764
0.0013262
8.88159e-05
4.77076e-06
1.36903e-07
3.4624e-09
1.71893e-10
7.09405e-11
6.63932e-11
-4.91128e-11
2.00089e-11
0.0438681
0.0359626
0.0208218
0.0246844
0.033528
0.0264692
0.0149869
0.00406336
0.00110585
0.000132082
7.49704e-06
3.47207e-07
1.00316e-08
3.20139e-10
1.50067e-10
1.31877e-10
4.45652e-11
-4.27463e-11
3.00133e-11
0.00723036
0.00540399
0.00361115
0.00165317
0.00132623
0.00298676
0.00139678
0.000429422
0.000105209
9.94274e-06
5.59785e-07
2.53901e-08
7.53053e-10
1.36424e-10
1.28239e-10
1.11868e-10
6.91216e-11
-3.27418e-11
2.81943e-11
0.000695003
0.000465102
0.000197384
0.000166129
0.000197958
0.000303936
0.000121726
3.92042e-05
6.77964e-06
6.63018e-07
3.56437e-08
1.69346e-09
1.05501e-10
1.28239e-10
1.50067e-10
8.2764e-11
3.00133e-11
-4.27463e-11
5.91172e-11
2.87387e-05
4.94473e-05
2.85817e-05
4.34889e-05
1.80485e-05
8.1452e-06
9.1189e-06
2.93033e-06
3.73573e-07
4.20375e-08
2.48745e-09
2.04635e-10
1.10049e-10
1.09139e-10
1.54614e-10
1.11868e-10
2.18278e-11
-6.3665e-12
1.11868e-10
2.82644e-06
3.84348e-06
3.28311e-06
6.80689e-06
1.52892e-06
7.13367e-07
6.04134e-07
1.27764e-07
1.77587e-08
2.2719e-09
2.19187e-10
1.15506e-10
1.09139e-10
7.45785e-11
1.23691e-10
5.45696e-11
6.09362e-11
3.09228e-11
1.86446e-10
1.84365e-07
2.77437e-07
3.24892e-07
7.38486e-07
1.18288e-07
5.61693e-08
3.57448e-08
5.05584e-09
1.08775e-09
1.71894e-10
3.81987e-11
7.9126e-11
1.40062e-10
1.48248e-10
3.09227e-11
9.5497e-11
8.54925e-11
6.09362e-11
1.28239e-10
9.38866e-09
1.67665e-08
2.6257e-08
6.2182e-08
8.43461e-09
4.13637e-09
2.03635e-09
3.67434e-10
1.01863e-10
8.91305e-11
5.72982e-11
3.45607e-11
1.15506e-10
1.0732e-10
1.00954e-10
1.17325e-10
6.91216e-11
-1.6371e-11
9.27685e-11
5.07495e-10
1.05046e-09
1.83353e-09
4.07998e-09
5.60246e-10
3.10137e-10
1.82808e-10
1.38243e-10
9.73159e-11
1.13687e-10
1.15506e-10
1.41881e-10
1.38243e-10
1.48248e-10
5.45696e-11
7.09406e-11
1.05501e-10
-5.91172e-11
4.45652e-11
1.27329e-10
1.72804e-10
1.51885e-10
2.683e-10
1.53704e-10
1.23691e-10
9.73159e-11
4.27462e-11
3.09228e-11
1.21872e-10
9.5497e-11
5.09316e-11
7.27596e-11
5.63886e-11
7.27596e-11
6.27551e-11
4.91127e-11
-2.63754e-11
5.91172e-11
1.09139e-10
1.31877e-10
7.09405e-11
6.4574e-11
8.2764e-11
5.72981e-11
8.36735e-11
2.18278e-11
2.63753e-11
4.63842e-11
6.09361e-11
1.09139e-10
1.03682e-10
9.09495e-11
7.5488e-11
1.05501e-10
9.9135e-11
6.36643e-12
8.91305e-11
7.09406e-11
1.38243e-10
1.28239e-10
9.73159e-11
7.7307e-11
9.27685e-11
1.05501e-10
6.09361e-11
2.27373e-11
6.45741e-11
1.09139e-10
1.21872e-10
1.0732e-10
1.01863e-10
7.7307e-11
1.09139e-10
9.7316e-11
-1.00045e-11
6.09362e-11
6.27551e-11
1.19144e-10
7.5488e-11
8.36735e-11
1.03682e-10
9.91349e-11
6.91216e-11
1.01863e-10
7.54881e-11
9.91349e-11
9.3678e-11
1.19144e-10
1.17325e-10
1.20053e-10
5.27507e-11
6.09361e-11
6.45741e-11
-6.91217e-11
6.45741e-11
4.82032e-11
1.10049e-10
1.33696e-10
1.36424e-10
1.2551e-10
9.7316e-11
2.18278e-11
9.3678e-11
6.63931e-11
6.91216e-11
6.73026e-11
5.09317e-11
8.0945e-11
1.09139e-10
4.45652e-11
4.09272e-11
9.5497e-11
-3.27419e-11
1.17325e-10
5.91172e-11
6.45741e-11
8.91305e-11
1.23691e-10
6.73026e-11
4.27462e-11
1.63709e-11
6.63931e-11
5.45697e-11
5.09317e-11
5.45697e-11
3.81988e-11
3.63798e-11
8.91305e-11
6.91216e-11
2.63753e-11
1.09139e-10
-2.00089e-11
7.09406e-11
4.00178e-11
1.15506e-10
1.21872e-10
6.45741e-11
4.45652e-11
3.81988e-11
3.81988e-11
3.63798e-11
4.00178e-11
6.27551e-11
6.73026e-11
8.73115e-11
5.45697e-11
1.19144e-10
1.45519e-10
8.73115e-11
7.54881e-11
-6.36651e-12
4.63842e-11
3.63798e-11
1.23691e-10
1.21872e-10
1.10049e-10
9.9135e-11
8.54925e-11
1.17325e-10
8.91305e-11
4.27462e-11
9.9135e-11
3.09228e-11
8.91305e-11
4.91127e-11
1.15506e-10
1.01863e-10
1.05501e-10
4.09272e-11
5.09317e-11
1.17325e-10
1.63709e-11
9.91349e-11
5.27506e-11
4.63842e-11
4.27462e-11
6.73026e-11
4.82032e-11
4.27462e-11
1.01863e-10
8.54925e-11
2.18278e-11
8.54925e-11
1.36424e-11
7.9126e-11
1.30058e-10
9.73159e-11
4.27462e-11
1.45519e-11
5.45697e-11
8.73116e-11
1.33696e-10
1.23691e-10
9.09495e-11
-6.36655e-12
8.91305e-11
9.27685e-11
4.91127e-11
5.09317e-11
9.3678e-11
8.91305e-11
5.45697e-11
3.63798e-11
8.36735e-11
1.46429e-10
1.21872e-10
4.63842e-11
-1.36425e-11
7.91261e-11
7.45786e-11
9.5497e-11
2.63753e-11
7.9126e-11
8.0945e-11
1.09139e-10
1.38243e-10
1.40062e-10
5.09317e-11
5.72981e-11
1.19144e-10
5.27507e-11
3.09228e-11
5.45696e-11
1.17325e-10
1.19144e-10
4.82032e-11
-6.36649e-12
1.05501e-10
2.45563e-11
4.09272e-11
1.10049e-10
1.64619e-10
1.46429e-10
1.58252e-10
1.23691e-10
1.78261e-10
4.82032e-11
4.09272e-11
1.10049e-10
7.09406e-11
4.09272e-11
1.23691e-10
4.91127e-11
1.27329e-10
1.48248e-10
-3.63799e-11
1.19144e-10
5.45697e-11
8.73115e-11
3.09228e-11
1.31877e-10
1.40062e-10
7.09405e-11
4.63842e-11
1.28239e-10
4.45652e-11
2.81943e-11
6.27551e-11
9.5497e-11
8.0945e-11
3.63797e-11
6.45741e-11
4.91127e-11
1.19144e-10
-1.21872e-10
7.09406e-11
2.63753e-11
5.27507e-11
3.27418e-11
3.45607e-11
4.09272e-11
1.13687e-10
1.81898e-11
6.73026e-11
5.63887e-11
6.91216e-11
3.09228e-11
7.54881e-11
9.3678e-11
7.27596e-11
9.73159e-11
9.09495e-11
5.09317e-11
-8.54926e-11
6.36646e-12
4.63843e-11
4.91127e-11
3.45608e-11
1.03682e-10
8.09451e-11
1.03682e-10
4.27463e-11
6.91216e-11
3.45608e-11
9.9135e-11
9.9135e-11
1.10049e-10
8.73115e-11
1.15506e-10
1.20053e-10
8.54925e-11
1.30058e-10
-2.63754e-11
3.81988e-11
1.19144e-10
3.09228e-11
-1.2551e-10
-4.63843e-11
-6.3665e-12
-2.00089e-11
-8.54926e-11
6.36646e-12
-3.63799e-11
2.27374e-11
-6.36652e-12
-6.36652e-12
-3.41785e-17
-5.27508e-11
-5.63888e-11
-6.27552e-11
8.18543e-12
-1.00045e-11
2.00089e-11
-2.00089e-11
1.68257e-10
2.27374e-11
8.27641e-11
7.73071e-11
4.00178e-11
-1.00044e-11
5.09317e-11
2.27374e-11
5.27507e-11
4.00178e-11
5.91172e-11
7.27596e-11
6.09362e-11
4.09273e-11
-2.27374e-11
4.27463e-11
2.63754e-11
-2.63754e-11
)
;

boundaryField
{
    leftWall
    {
        type            zeroGradient;
    }
    rightWall
    {
        type            zeroGradient;
    }
    lowerWall
    {
        type            zeroGradient;
    }
    atmosphere
    {
        type            zeroGradient;
    }
    defaultFaces
    {
        type            empty;
    }
}


// ************************************************************************* //
