/*--------------------------------*- C++ -*----------------------------------*\
| =========                 |                                                 |
| \\      /  F ield         | foam-extend: Open Source CFD                    |
|  \\    /   O peration     | Version:     4.1                                |
|   \\  /    A nd           | Web:         http://www.foam-extend.org         |
|    \\/     M anipulation  |                                                 |
\*---------------------------------------------------------------------------*/
FoamFile
{
    version     2.0;
    format      ascii;
    class       volVectorField;
    location    "0.25";
    object      U;
}
// * * * * * * * * * * * * * * * * * * * * * * * * * * * * * * * * * * * * * //

dimensions      [0 1 -1 0 0 0 0];

internalField   nonuniform List<vector> 
2268
(
(-0.00539714 -0.0124551 0)
(0.0687787 -0.00859557 0)
(0.107315 -0.00971798 0)
(0.215881 -0.0114613 0)
(0.267054 -0.00816818 0)
(0.382412 -0.01447 0)
(0.455784 0.00111197 0)
(0.497332 -0.013987 0)
(0.724108 -0.00925702 0)
(0.668045 -0.0497981 0)
(0.613912 0.000758633 0)
(0.692019 -0.0327003 0)
(0.891554 -0.0153479 0)
(0.890697 0.0144734 0)
(1.01966 0.143202 0)
(1.12679 -0.0476682 0)
(1.3032 -0.134901 0)
(1.48241 -0.0297521 0)
(1.71219 0.00784481 0)
(1.56547 -0.100151 0)
(0.906382 0.118068 0)
(0.163594 0.133323 0)
(-0.0578483 -0.139843 0)
(-0.00306649 -0.0164901 0)
(0.070724 -0.0188503 0)
(0.107854 -0.0236972 0)
(0.214954 -0.0285401 0)
(0.268982 -0.0287431 0)
(0.385791 -0.0353097 0)
(0.452748 -0.0478831 0)
(0.501786 -0.0576504 0)
(0.736893 -0.0421737 0)
(0.671264 -0.185217 0)
(0.607305 -0.0436166 0)
(0.675881 -0.112964 0)
(0.854992 -0.128174 0)
(0.897428 -0.0742401 0)
(0.975491 0.146871 0)
(1.05063 0.0281123 0)
(1.39711 -0.0415621 0)
(1.24921 -0.164795 0)
(1.31798 -0.108486 0)
(1.35382 -0.0166158 0)
(1.19014 0.325097 0)
(0.884286 0.321786 0)
(0.602064 0.257057 0)
(-0.00397526 -0.0450788 0)
(0.0680232 -0.035758 0)
(0.105324 -0.042974 0)
(0.211494 -0.0517842 0)
(0.264539 -0.0467747 0)
(0.371717 -0.0574788 0)
(0.457456 -0.0417221 0)
(0.518564 -0.0949271 0)
(0.671817 -0.0578812 0)
(0.649871 -0.217659 0)
(0.576276 -0.127661 0)
(0.633967 -0.186993 0)
(0.605047 -0.182523 0)
(0.692508 -0.0340735 0)
(0.834676 0.179693 0)
(0.978471 0.117228 0)
(1.11403 -0.0134061 0)
(0.739355 -0.422705 0)
(0.696215 -0.332588 0)
(0.924882 -0.0287529 0)
(0.992262 0.38723 0)
(0.943021 0.476023 0)
(0.769004 0.479111 0)
(0.0026618 -0.0424431 0)
(0.0776046 -0.0454444 0)
(0.106509 -0.0557634 0)
(0.203843 -0.0682116 0)
(0.268236 -0.0637794 0)
(0.403263 -0.0906681 0)
(0.465961 -0.0347212 0)
(0.51361 -0.111355 0)
(0.62604 -0.0840691 0)
(0.593993 -0.185191 0)
(0.534666 -0.143312 0)
(0.534388 -0.180893 0)
(0.0404874 0.0627451 0)
(0.318228 0.12786 0)
(0.52581 0.274218 0)
(0.488832 0.0866985 0)
(0.629057 -0.0401668 0)
(0.593659 -0.512547 0)
(0.547054 -0.4407 0)
(0.487709 -0.075721 0)
(0.634433 0.661264 0)
(0.861055 0.721652 0)
(0.654031 0.686408 0)
(-0.00161178 -0.0888998 0)
(0.0705608 -0.0625962 0)
(0.0990548 -0.0724268 0)
(0.197974 -0.092545 0)
(0.259786 -0.0934379 0)
(0.420737 -0.10582 0)
(0.419456 -0.0694726 0)
(0.472519 -0.144165 0)
(0.574743 -0.0587133 0)
(0.582784 -0.180077 0)
(0.534524 -0.212333 0)
(0.545048 -0.152616 0)
(0.613617 -0.0847029 0)
(0.791804 -0.243845 0)
(0.859609 0.0678277 0)
(0.945423 0.182375 0)
(1.02939 0.0248353 0)
(0.823728 -0.28389 0)
(0.439828 -0.228561 0)
(0.21181 -0.180522 0)
(0.139773 0.634669 0)
(0.691484 0.695054 0)
(0.638431 0.864007 0)
(0.0151295 -0.0642603 0)
(0.0825117 -0.0694353 0)
(0.0979276 -0.0838085 0)
(0.189296 -0.107491 0)
(0.251961 -0.117001 0)
(0.402363 -0.135662 0)
(0.390578 -0.1455 0)
(0.462369 -0.181556 0)
(0.53614 -0.128961 0)
(0.493551 -0.184419 0)
(0.54014 -0.284715 0)
(0.583122 -0.162747 0)
(0.602418 -0.210095 0)
(0.803714 -0.26777 0)
(1.21317 -0.0675047 0)
(1.13938 0.228616 0)
(1.01479 0.102484 0)
(0.600323 -0.100297 0)
(0.353923 -0.10489 0)
(0.096952 -0.0164015 0)
(-0.190864 0.215078 0)
(0.464042 0.662325 0)
(0.635643 0.989667 0)
(-0.000244622 -0.0444824 0)
(0.0687334 -0.0861255 0)
(0.0805149 -0.0977063 0)
(0.177345 -0.134277 0)
(0.239533 -0.141852 0)
(0.368644 -0.145175 0)
(0.35429 -0.133093 0)
(0.485425 -0.131607 0)
(0.525204 -0.2529 0)
(0.471246 -0.220411 0)
(0.533554 -0.205973 0)
(0.653844 -0.245641 0)
(0.646945 -0.165958 0)
(0.779747 -0.152504 0)
(1.07972 -0.308561 0)
(1.15517 -0.00326419 0)
(0.967653 0.162833 0)
(0.695274 0.150135 0)
(0.229586 0.000570615 0)
(0.147766 0.184713 0)
(-0.0730238 0.140038 0)
(0.120111 0.490337 0)
(0.489523 1.19 0)
(-0.00563133 -0.0760689 0)
(0.0640796 -0.0831324 0)
(0.0733892 -0.106853 0)
(0.164277 -0.139888 0)
(0.229135 -0.161231 0)
(0.361397 -0.167473 0)
(0.358577 -0.214265 0)
(0.409072 -0.145864 0)
(0.48788 -0.261913 0)
(0.493703 -0.21711 0)
(0.542149 -0.17225 0)
(0.654415 -0.190658 0)
(0.670814 -0.177061 0)
(0.729368 -0.232114 0)
(0.868337 -0.216844 0)
(0.768094 -0.035873 0)
(0.613946 0.225121 0)
(0.539111 0.259773 0)
(0.187138 0.162412 0)
(0.0710855 0.195697 0)
(0.0182029 0.211275 0)
(0.224538 0.478381 0)
(0.491032 1.57624 0)
(-0.0568013 0.0496179 0)
(-0.205581 0.0591292 0)
(-0.35142 0.0449887 0)
(-0.45005 0.0267024 0)
(-0.547215 0.0175954 0)
(-0.49897 -0.0242471 0)
(-0.321181 -0.0563895 0)
(-0.148596 -0.0654139 0)
(0.0373563 -0.0602329 0)
(0.175454 -0.027098 0)
(0.270717 -0.0313772 0)
(0.398116 -0.0499301 0)
(0.527301 0.0506553 0)
(0.523468 0.00448526 0)
(0.426678 0.0076973 0)
(0.34324 0.0107947 0)
(0.241499 0.0104046 0)
(0.147511 0.0102714 0)
(0.04729 0.0102148 0)
(-0.0539267 0.177649 0)
(-0.214369 0.180467 0)
(-0.373389 0.130083 0)
(-0.462065 0.0721155 0)
(-0.565757 0.0356572 0)
(-0.525563 -0.110305 0)
(-0.333041 -0.192694 0)
(-0.137466 -0.218715 0)
(0.0699939 -0.190884 0)
(0.202181 -0.129953 0)
(0.304525 -0.141014 0)
(0.450354 -0.0637172 0)
(0.610082 0.0999569 0)
(0.566032 0.0300723 0)
(0.444265 0.0300484 0)
(0.363246 0.0311926 0)
(0.256681 0.0319886 0)
(0.156845 0.0322954 0)
(0.0503527 0.0322779 0)
(-0.0597897 0.265203 0)
(-0.242546 0.317827 0)
(-0.434978 0.249196 0)
(-0.519916 0.128852 0)
(-0.629935 0.0952795 0)
(-0.597397 -0.102838 0)
(-0.370487 -0.322106 0)
(-0.135864 -0.366621 0)
(0.093947 -0.313739 0)
(0.201027 -0.237005 0)
(0.362344 -0.179848 0)
(0.484997 0.0384393 0)
(0.610687 0.051498 0)
(0.568785 0.0342803 0)
(0.463791 0.050463 0)
(0.371201 0.0529768 0)
(0.260182 0.0549348 0)
(0.158246 0.0552576 0)
(0.0507732 0.0551465 0)
(-0.020955 0.446847 0)
(-0.230306 0.514208 0)
(-0.427828 0.336371 0)
(-0.557261 0.219274 0)
(-0.668114 0.142113 0)
(-0.676785 -0.385232 0)
(-0.458944 -0.525249 0)
(-0.1176 -0.578155 0)
(0.123532 -0.446193 0)
(0.249498 -0.37116 0)
(0.430541 -0.158557 0)
(0.594379 0.10731 0)
(0.612586 0.0732927 0)
(0.557362 0.0622341 0)
(0.458499 0.0735246 0)
(0.369552 0.0760019 0)
(0.260135 0.0779909 0)
(0.158291 0.0781214 0)
(0.0508445 0.0778304 0)
(0.0505845 0.463755 0)
(-0.151077 0.621986 0)
(-0.324569 0.500488 0)
(-0.480825 0.230541 0)
(-0.652108 0.202302 0)
(-0.439858 -0.690388 0)
(-0.436753 -0.776453 0)
(-0.0806248 -0.744091 0)
(0.150801 -0.584865 0)
(0.353159 -0.388716 0)
(0.482059 -0.101992 0)
(0.618734 0.0282528 0)
(0.628421 0.0608509 0)
(0.576324 0.0735565 0)
(0.466489 0.0924659 0)
(0.37197 0.0972275 0)
(0.261129 0.100658 0)
(0.158492 0.100992 0)
(0.0509164 0.100597 0)
(0.303783 0.514588 0)
(0.0578967 0.902745 0)
(-0.184472 0.358661 0)
(-0.263828 0.280451 0)
(-0.369442 0.0838519 0)
(0.199954 -0.738022 0)
(-0.169564 -0.897509 0)
(0.0523871 -0.689379 0)
(0.365637 -0.531705 0)
(0.48928 -0.264698 0)
(0.615873 -0.0546017 0)
(0.649922 0.0336406 0)
(0.645906 0.0752157 0)
(0.581557 0.097699 0)
(0.471462 0.118102 0)
(0.373436 0.121238 0)
(0.261833 0.124156 0)
(0.15852 0.124148 0)
(0.0509632 0.123475 0)
(0.564101 0.117475 0)
(0.370844 1.10735 0)
(0.108637 0.467869 0)
(-0.0259467 0.316944 0)
(0.0266922 0.171692 0)
(0.475585 -0.545366 0)
(0.351325 -0.896123 0)
(0.458023 -0.666162 0)
(0.504518 -0.42479 0)
(0.535612 -0.222354 0)
(0.650814 -0.132507 0)
(0.688599 0.00698834 0)
(0.672447 0.0782932 0)
(0.586711 0.113718 0)
(0.474862 0.138317 0)
(0.374478 0.143824 0)
(0.2624 0.14723 0)
(0.158471 0.147073 0)
(0.0509633 0.146144 0)
(0.0230978 -0.244484 0)
(0.310678 0.733316 0)
(0.148457 0.45113 0)
(0.246832 0.207312 0)
(0.368523 -0.293489 0)
(0.578545 -0.465663 0)
(0.546909 -0.764561 0)
(0.729101 -0.662616 0)
(0.768571 -0.535944 0)
(0.659633 -0.259854 0)
(0.71101 -0.156348 0)
(0.735607 0.015125 0)
(0.703592 0.0932608 0)
(0.606668 0.139627 0)
(0.48325 0.164264 0)
(0.37647 0.169211 0)
(0.263117 0.172064 0)
(0.158417 0.171502 0)
(0.0509804 0.17017 0)
(-0.00279885 -0.0677615 0)
(0.0609826 -0.10801 0)
(0.0571459 -0.127639 0)
(0.150786 -0.202966 0)
(0.221166 -0.232965 0)
(0.302906 -0.208325 0)
(0.351246 -0.268133 0)
(0.40653 -0.240491 0)
(0.536882 -0.318043 0)
(0.572534 -0.272076 0)
(0.664805 -0.260077 0)
(0.674434 -0.113009 0)
(0.638491 -0.235424 0)
(0.739786 -0.251435 0)
(1.09649 -0.0873539 0)
(0.913629 -0.0459976 0)
(0.594821 0.285728 0)
(0.623903 0.393185 0)
(0.552722 0.376536 0)
(0.579645 0.205663 0)
(0.510042 0.110534 0)
(0.875359 0.384724 0)
(0.965153 1.60725 0)
(-0.0452699 -0.139088 0)
(0.0307673 -0.124297 0)
(0.0640805 -0.185068 0)
(0.137526 -0.304965 0)
(0.210205 -0.240367 0)
(0.342838 -0.282991 0)
(0.398357 -0.274872 0)
(0.459942 -0.309804 0)
(0.6403 -0.362823 0)
(0.676277 -0.330391 0)
(0.78042 -0.185872 0)
(0.716065 -0.150606 0)
(0.5905 -0.211934 0)
(0.705659 -0.17863 0)
(0.861006 -0.180611 0)
(0.809225 -0.173443 0)
(0.777595 0.102411 0)
(0.908628 0.312035 0)
(0.990262 0.350588 0)
(1.00149 0.201058 0)
(1.127 0.198852 0)
(1.46115 0.425424 0)
(1.95406 1.01023 0)
(0.0469059 -0.234084 0)
(0.0529782 -0.233793 0)
(0.0258176 -0.228287 0)
(0.171131 -0.322582 0)
(0.259986 -0.246025 0)
(0.289346 -0.33409 0)
(0.4031 -0.355948 0)
(0.484707 -0.400594 0)
(0.643611 -0.451334 0)
(0.725094 -0.313061 0)
(0.718506 -0.429792 0)
(0.623982 -0.402181 0)
(0.632051 -0.37014 0)
(0.780658 -0.355887 0)
(0.875936 -0.283577 0)
(0.784185 -0.0923663 0)
(0.737672 0.01597 0)
(0.877038 0.191432 0)
(0.978584 0.165818 0)
(1.21075 0.174613 0)
(1.62328 0.509239 0)
(1.69799 0.514692 0)
(1.87976 0.743386 0)
(0.00308016 -0.340026 0)
(0.121303 -0.338016 0)
(0.12763 -0.346838 0)
(0.149615 -0.336003 0)
(0.162115 -0.222239 0)
(0.253345 -0.314898 0)
(0.420111 -0.288354 0)
(0.514963 -0.411625 0)
(0.700474 -0.465923 0)
(0.595444 -0.507371 0)
(0.61178 -0.624718 0)
(0.607296 -0.456752 0)
(0.632762 -0.453623 0)
(0.832095 -0.461004 0)
(1.02622 -0.185107 0)
(0.858524 -0.103017 0)
(0.646799 0.0437163 0)
(0.700856 0.21784 0)
(0.910116 0.274713 0)
(1.39482 0.575899 0)
(1.65333 0.542489 0)
(1.70242 0.247759 0)
(1.53577 0.245352 0)
(0.0381578 -0.490205 0)
(0.0843696 -0.502766 0)
(0.169828 -0.548085 0)
(0.239893 -0.564297 0)
(0.220389 -0.590648 0)
(0.351213 -0.551476 0)
(0.416286 -0.672952 0)
(0.372675 -0.630178 0)
(0.325988 -0.523544 0)
(0.433916 -0.539863 0)
(0.43632 -0.595508 0)
(0.324094 -0.394194 0)
(0.379987 -0.457499 0)
(0.725037 -0.457868 0)
(0.887084 -0.390126 0)
(0.66199 -0.355742 0)
(0.655697 -0.0940491 0)
(0.888287 -0.0858708 0)
(1.006 0.201768 0)
(1.20253 0.218401 0)
(1.36799 0.198697 0)
(1.41907 0.156819 0)
(1.32875 0.0406017 0)
(0.0078564 -0.574239 0)
(0.0598693 -0.589042 0)
(0.0669946 -0.641282 0)
(0.142098 -0.656244 0)
(0.223409 -0.741265 0)
(0.26501 -0.717405 0)
(0.376245 -0.842216 0)
(0.28966 -0.681128 0)
(0.129712 -0.552785 0)
(0.275686 -0.23464 0)
(-0.202901 -0.430348 0)
(0.10401 -0.349911 0)
(0.159763 -0.513654 0)
(0.339083 -0.353481 0)
(0.285567 -0.406648 0)
(0.291343 -0.21592 0)
(0.556566 -0.172604 0)
(1.20312 -0.130441 0)
(1.05096 0.0382793 0)
(0.448923 0.0152006 0)
(0.431835 0.102914 0)
(0.334474 0.251121 0)
(0.342696 0.369972 0)
(0.0345141 -0.624295 0)
(0.00764008 -0.630251 0)
(0.0775431 -0.673317 0)
(0.136011 -0.624802 0)
(0.144347 -0.748815 0)
(0.205359 -0.763958 0)
(0.269365 -0.777433 0)
(-0.0674722 -0.430945 0)
(-0.410574 -0.559199 0)
(-0.252554 -0.306809 0)
(-0.285483 -0.470329 0)
(0.0656169 -0.60787 0)
(0.359386 -0.715604 0)
(0.426785 -0.510105 0)
(0.413655 -0.343809 0)
(0.431535 -0.34286 0)
(0.615479 -0.33985 0)
(0.26538 -0.324539 0)
(0.246936 0.0495501 0)
(0.215817 0.401451 0)
(0.319737 0.291372 0)
(0.425367 0.288457 0)
(0.641276 0.0416801 0)
(0.0230064 -0.656914 0)
(-0.000404239 -0.675255 0)
(0.0663664 -0.676864 0)
(0.0339103 -0.725739 0)
(0.0772028 -0.826296 0)
(0.189106 -0.673074 0)
(0.317376 -0.604849 0)
(0.101678 -0.235928 0)
(0.0868157 -0.604017 0)
(0.0512182 -0.319498 0)
(-0.161278 -0.467285 0)
(0.180818 -1.09649 0)
(0.330749 -0.89773 0)
(0.480374 -0.52429 0)
(0.328023 -0.268635 0)
(0.3066 -0.495962 0)
(0.222176 -0.344706 0)
(0.253394 -0.406795 0)
(0.258975 0.0105756 0)
(0.365262 0.361617 0)
(0.526032 0.202292 0)
(1.24101 0.0659986 0)
(1.38106 -0.165676 0)
(0.022744 -0.672115 0)
(0.0366614 -0.688482 0)
(0.0604321 -0.671679 0)
(-0.00527691 -0.773774 0)
(0.219858 -0.678739 0)
(0.260715 -0.70202 0)
(0.0106931 -0.538425 0)
(0.0869494 -0.306184 0)
(0.333104 -0.55033 0)
(0.538146 -0.363479 0)
(0.135252 -0.397227 0)
(0.245906 -1.19604 0)
(0.151935 -0.968067 0)
(0.0534766 -0.334405 0)
(-0.173337 0.029419 0)
(0.15261 -0.337094 0)
(0.0851366 -0.318457 0)
(0.0871933 -0.421115 0)
(0.424669 -0.18312 0)
(0.527727 -0.152522 0)
(0.737764 -0.0203857 0)
(1.04485 -0.161588 0)
(1.10824 -0.736762 0)
(0.0397938 -0.785985 0)
(0.0963839 -0.655284 0)
(0.0313415 -0.709213 0)
(0.157836 -0.720416 0)
(0.173998 -0.591778 0)
(0.0870292 -0.793227 0)
(0.041404 -0.437379 0)
(0.00397948 -0.421745 0)
(0.140183 -0.601668 0)
(0.114794 -0.398703 0)
(0.39435 -0.262988 0)
(0.413949 -1.07503 0)
(-0.0373009 -0.711629 0)
(-0.133734 -0.172354 0)
(-0.148955 -0.293153 0)
(0.294266 -0.609261 0)
(0.235852 -0.324798 0)
(0.157775 -0.543008 0)
(0.376777 -0.424541 0)
(0.299129 -0.496832 0)
(0.247999 -0.298176 0)
(0.47261 -0.378833 0)
(0.406738 -0.820518 0)
(0.0421473 -0.935991 0)
(0.259849 -0.656119 0)
(0.193296 -0.748207 0)
(0.28127 -0.877931 0)
(0.180646 -0.814678 0)
(-0.100223 -0.482904 0)
(-0.0130328 -0.364482 0)
(0.129567 -0.412598 0)
(0.336189 -0.633826 0)
(0.461038 -0.600083 0)
(0.580912 -0.518013 0)
(0.610439 -0.777226 0)
(0.128443 -0.589631 0)
(0.139076 -0.281201 0)
(-0.033394 -0.510729 0)
(0.353247 -0.69917 0)
(0.435599 -0.366537 0)
(0.290184 -0.251801 0)
(0.256712 -0.291051 0)
(0.40124 -0.666159 0)
(0.246502 -0.39318 0)
(0.181079 -0.420303 0)
(0.125018 -1.00559 0)
(0.0184892 -1.04695 0)
(0.317953 -0.901336 0)
(0.191704 -0.698219 0)
(0.242903 -1.00499 0)
(0.38281 -0.938352 0)
(0.4078 -0.698024 0)
(0.335993 -0.640035 0)
(0.531002 -0.700191 0)
(0.680798 -0.83559 0)
(0.733255 -0.761307 0)
(0.809207 -0.581281 0)
(0.677534 -0.569041 0)
(0.200814 -0.34237 0)
(-0.148288 0.00319407 0)
(-0.188152 -0.542081 0)
(-0.0628251 -0.792407 0)
(0.390745 -0.633822 0)
(0.186973 0.00956565 0)
(0.105069 -0.0876485 0)
(0.161223 -0.509972 0)
(-0.0299043 -0.150038 0)
(-0.145041 -0.463223 0)
(-0.198245 -0.77794 0)
(0.0393464 -1.2449 0)
(0.0066024 -0.951889 0)
(0.0311836 -0.527752 0)
(0.122547 -0.838828 0)
(0.340316 -0.921201 0)
(0.610024 -0.861193 0)
(0.597744 -0.641099 0)
(0.644753 -0.748508 0)
(0.675874 -0.811897 0)
(0.592405 -0.722553 0)
(0.446664 -0.518713 0)
(0.103646 -0.207493 0)
(-0.220325 0.263929 0)
(-0.0366103 0.0903374 0)
(-0.344094 -0.437932 0)
(-0.464457 -0.780973 0)
(-0.229798 -0.830463 0)
(-0.117274 -0.0435946 0)
(-0.098833 -0.366171 0)
(-0.192062 -0.418624 0)
(-0.137488 -0.0279238 0)
(-0.210151 -0.357113 0)
(-0.300612 -0.7163 0)
(0.000600836 -1.24814 0)
(-0.195932 -0.596711 0)
(0.0182279 -0.506776 0)
(0.190128 -0.747577 0)
(0.264156 -0.833564 0)
(0.672416 -0.926649 0)
(0.645462 -0.594242 0)
(0.542823 -0.889694 0)
(0.193235 -0.854174 0)
(0.0570284 -0.59153 0)
(0.408273 -0.377125 0)
(-0.386819 0.0194723 0)
(-0.734725 -0.134629 0)
(-0.479291 -0.179328 0)
(-0.565673 -0.696406 0)
(-0.566382 -0.834808 0)
(-0.47371 -0.630268 0)
(-0.233457 -0.431858 0)
(-0.233426 -0.428023 0)
(-0.319177 -0.354762 0)
(-0.170417 -0.112403 0)
(-0.169914 -0.30438 0)
(-0.395564 -0.482546 0)
(-0.0601782 -0.65018 0)
(-0.0306034 -0.544804 0)
(0.0357838 -0.60257 0)
(0.206222 -0.762842 0)
(-0.0621061 -0.818469 0)
(-0.134595 -1.12807 0)
(-0.121173 0.189306 0)
(0.56062 -0.816589 0)
(-0.0603615 -0.613627 0)
(-0.216814 -0.656831 0)
(-0.17679 0.393199 0)
(-0.156319 0.875477 0)
(0.0453568 0.440753 0)
(0.0745042 -0.177685 0)
(0.0966405 -1.03883 0)
(-0.363114 -0.777245 0)
(-0.599019 -0.605522 0)
(-0.405505 -0.370993 0)
(-0.326614 -0.279295 0)
(-0.270285 -0.257119 0)
(-0.223093 -0.262507 0)
(-0.28076 -0.416345 0)
(-0.442046 -0.388298 0)
(-0.145686 -0.49485 0)
(0.0961122 -0.750028 0)
(0.0624436 -0.67492 0)
(-0.0866358 -0.657487 0)
(-0.28161 -0.653775 0)
(-0.269674 -0.847488 0)
(-0.281036 -0.9169 0)
(0.193696 -0.00660395 0)
(-0.165429 -0.525795 0)
(-0.267253 -1.12753 0)
(-0.210947 -0.444444 0)
(-0.0599772 0.706725 0)
(0.184681 -0.162267 0)
(0.195944 -0.254672 0)
(-0.112256 -0.381864 0)
(-0.188427 -0.710172 0)
(-0.320469 -0.471557 0)
(-0.364403 -0.324921 0)
(-0.361669 -0.245282 0)
(-0.395962 -0.193751 0)
(-0.456638 -0.248012 0)
(-0.499828 -0.381118 0)
(-0.554154 -0.376697 0)
(0.198132 -0.419823 0)
(0.0594956 -0.660039 0)
(-0.0721157 -0.479288 0)
(-0.454507 -0.455338 0)
(-0.250068 -0.5662 0)
(-0.499458 -1.21802 0)
(-0.620937 -1.299 0)
(-0.223796 -0.639281 0)
(-0.163529 -1.00883 0)
(-0.386934 -1.05072 0)
(-0.264509 -0.14485 0)
(-0.057867 0.0844177 0)
(0.149565 -0.0263667 0)
(-0.0554361 0.0150485 0)
(-0.182244 -0.236287 0)
(-0.243737 -0.348276 0)
(-0.227232 -0.327678 0)
(-0.322735 -0.303444 0)
(-0.370138 -0.345385 0)
(-0.460375 -0.240524 0)
(-0.448977 -0.203777 0)
(-0.50887 -0.357547 0)
(-0.468113 -0.371146 0)
(0.346536 -0.824867 0)
(-0.101474 -0.605796 0)
(-0.0808603 -0.342696 0)
(-0.433399 -0.257123 0)
(-0.296121 -0.767385 0)
(-0.545757 -1.1082 0)
(-0.448917 -0.922664 0)
(-0.477764 -0.857083 0)
(-0.377912 -0.925195 0)
(-0.567799 -0.821547 0)
(-0.598655 -0.464705 0)
(-0.473079 -0.218437 0)
(-0.703597 0.00310693 0)
(-0.399898 -0.0852438 0)
(-0.403475 -0.220957 0)
(-0.265679 -0.262134 0)
(-0.185529 -0.28196 0)
(-0.334903 -0.329575 0)
(-0.301049 -0.375166 0)
(-0.356796 -0.383294 0)
(-0.528752 -0.285259 0)
(-0.601728 -0.357499 0)
(-0.635276 -0.462146 0)
(0.135495 -1.64034 0)
(-0.15873 -0.678422 0)
(0.0827275 -0.275321 0)
(-0.212772 -0.148887 0)
(0.12632 -1.03614 0)
(-0.404834 -0.65035 0)
(-0.498963 -0.803181 0)
(-0.563026 -0.61677 0)
(-0.386906 -0.606654 0)
(-0.380785 -0.583608 0)
(-0.585989 -0.409908 0)
(-0.623725 -0.323544 0)
(-0.55175 -0.122775 0)
(-0.478892 -0.244835 0)
(-0.466916 -0.307926 0)
(-0.358046 -0.180885 0)
(-0.322187 -0.275373 0)
(-0.347919 -0.280333 0)
(-0.371159 -0.393775 0)
(-0.421798 -0.466317 0)
(-0.433619 -0.390507 0)
(-0.599198 -0.283053 0)
(-0.653468 -0.223216 0)
(-0.0308628 -1.12696 0)
(-0.0393576 -0.349738 0)
(0.0389203 -0.198073 0)
(0.0453322 -0.270695 0)
(-0.0565124 -0.505061 0)
(-0.327635 -0.934533 0)
(-0.243215 -0.6553 0)
(-0.416711 -0.546307 0)
(-0.33906 -0.517538 0)
(-0.369336 -0.418534 0)
(-0.509985 -0.398185 0)
(-0.546739 -0.184665 0)
(-0.523289 -0.233927 0)
(-0.539145 -0.191393 0)
(-0.333079 -0.237104 0)
(-0.290314 -0.156024 0)
(-0.319159 -0.217669 0)
(-0.423237 -0.0810044 0)
(-0.467776 -0.166527 0)
(-0.462246 -0.217199 0)
(-0.450258 -0.281637 0)
(-0.487397 -0.188181 0)
(-0.568449 -0.129154 0)
(-0.17429 -1.54882 0)
(-0.0342617 -1.04347 0)
(-0.0358442 -0.221798 0)
(-0.0349798 -0.534652 0)
(-0.0280477 -0.881344 0)
(-0.0393585 -0.694029 0)
(-0.0497467 -0.770389 0)
(-0.409785 -0.530891 0)
(-0.313744 -0.45825 0)
(-0.30774 -0.460831 0)
(-0.390798 -0.463414 0)
(-0.510994 -0.320458 0)
(-0.523583 -0.274247 0)
(-0.34897 -0.164496 0)
(-0.349739 -0.0988529 0)
(-0.281917 -0.192432 0)
(-0.305364 -0.257406 0)
(-0.482556 -0.190476 0)
(-0.53156 -0.151066 0)
(-0.561782 -0.156657 0)
(-0.490029 -0.18576 0)
(-0.410355 -0.208511 0)
(-0.533806 -0.228407 0)
(-0.139909 -0.888572 0)
(-0.196411 -0.688896 0)
(-0.157259 -0.634257 0)
(-0.0793473 -0.561292 0)
(0.0167574 -0.764123 0)
(-0.101314 -0.463815 0)
(-0.053666 -0.809186 0)
(-0.174952 -0.64069 0)
(-0.380783 -0.457151 0)
(-0.417096 -0.520336 0)
(-0.368691 -0.463241 0)
(-0.399289 -0.501377 0)
(-0.392884 -0.363289 0)
(-0.259282 -0.284731 0)
(-0.286449 -0.168473 0)
(-0.362807 -0.165969 0)
(-0.217808 -0.269713 0)
(-0.445021 -0.340462 0)
(-0.512153 -0.352414 0)
(-0.433863 -0.203376 0)
(-0.468972 -0.149217 0)
(-0.46738 -0.15913 0)
(-0.521272 -0.173266 0)
(-0.0528714 -0.883775 0)
(-0.106968 -0.837732 0)
(-0.163655 -0.709469 0)
(-0.0333748 -0.553372 0)
(0.1376 -0.760625 0)
(-0.0740658 -0.690687 0)
(-0.228359 -0.67553 0)
(-0.157905 -0.736644 0)
(-0.283438 -0.648004 0)
(-0.343962 -0.519513 0)
(-0.298196 -0.472188 0)
(-0.387727 -0.40993 0)
(-0.285661 -0.322482 0)
(-0.182371 -0.311324 0)
(-0.227943 -0.261914 0)
(-0.364769 -0.257023 0)
(-0.383647 -0.241645 0)
(-0.411541 -0.322414 0)
(-0.393418 -0.188865 0)
(-0.397385 -0.166072 0)
(-0.443333 -0.169899 0)
(-0.439422 -0.179518 0)
(-0.456655 -0.19953 0)
(-0.114456 -0.619441 0)
(-0.0925458 -0.494673 0)
(0.0301998 -0.510477 0)
(-0.0297657 -0.428857 0)
(-0.0741811 -0.496879 0)
(0.0266869 -0.759633 0)
(-0.130842 -0.649771 0)
(-0.128953 -0.615271 0)
(-0.202655 -0.621649 0)
(-0.223358 -0.490089 0)
(-0.241584 -0.432457 0)
(-0.244082 -0.384081 0)
(-0.247697 -0.272986 0)
(-0.172559 -0.290936 0)
(-0.254044 -0.298598 0)
(-0.339372 -0.269405 0)
(-0.310784 -0.251633 0)
(-0.351061 -0.299034 0)
(-0.339528 -0.119213 0)
(-0.422508 -0.192233 0)
(-0.476034 -0.145436 0)
(-0.473052 -0.151569 0)
(-0.485811 -0.133135 0)
(0.0719648 -0.422672 0)
(0.038823 -0.391762 0)
(-0.0350525 -0.322787 0)
(-0.0664105 -0.390005 0)
(-0.120787 -0.365694 0)
(-0.143916 -0.434637 0)
(-0.0641054 -0.411231 0)
(-0.0589526 -0.589722 0)
(-0.119848 -0.478542 0)
(-0.183015 -0.474034 0)
(-0.190009 -0.48223 0)
(-0.21007 -0.466857 0)
(-0.203904 -0.437263 0)
(-0.155192 -0.396214 0)
(-0.123063 -0.40773 0)
(-0.34283 -0.310057 0)
(-0.426523 -0.265449 0)
(-0.308667 -0.204707 0)
(-0.326882 -0.208949 0)
(-0.406643 -0.244668 0)
(-0.388068 -0.158097 0)
(-0.430812 -0.152886 0)
(-0.444216 -0.0763094 0)
(-0.00757517 -0.302927 0)
(-0.0235682 -0.35867 0)
(-0.0471948 -0.358886 0)
(-0.0528374 -0.345271 0)
(-0.0733543 -0.359619 0)
(-0.101719 -0.311964 0)
(-0.169237 -0.324114 0)
(-0.152473 -0.340167 0)
(-0.127942 -0.366071 0)
(-0.242652 -0.345229 0)
(-0.235555 -0.300945 0)
(-0.179396 -0.299694 0)
(-0.141982 -0.312554 0)
(-0.127885 -0.423902 0)
(-0.200589 -0.361985 0)
(-0.224088 -0.416465 0)
(-0.195568 -0.222871 0)
(-0.310492 -0.18843 0)
(-0.377142 -0.236845 0)
(-0.348431 -0.172395 0)
(-0.394971 -0.133627 0)
(-0.425535 -0.124882 0)
(-0.437541 -0.0847445 0)
(0.00267343 -0.33943 0)
(-0.00807508 -0.334386 0)
(-0.0315399 -0.329767 0)
(-0.042486 -0.318088 0)
(-0.0728878 -0.313891 0)
(-0.0823513 -0.315304 0)
(-0.107516 -0.309944 0)
(-0.118846 -0.262676 0)
(-0.129155 -0.293521 0)
(-0.15667 -0.273093 0)
(-0.170392 -0.220268 0)
(-0.198514 -0.225131 0)
(-0.236123 -0.21314 0)
(-0.187168 -0.249278 0)
(-0.190613 -0.268239 0)
(-0.162802 -0.251144 0)
(-0.185909 -0.24841 0)
(-0.275684 -0.270134 0)
(-0.298307 -0.206294 0)
(-0.327066 -0.219854 0)
(-0.317327 -0.117517 0)
(-0.37143 -0.120803 0)
(-0.364922 -0.0825764 0)
(-0.00494264 -0.305232 0)
(-0.0233095 -0.315132 0)
(-0.0341409 -0.316154 0)
(-0.0451251 -0.307064 0)
(-0.0595169 -0.300109 0)
(-0.0734139 -0.281055 0)
(-0.110185 -0.277754 0)
(-0.118565 -0.280444 0)
(-0.12693 -0.264939 0)
(-0.143797 -0.253667 0)
(-0.14096 -0.212227 0)
(-0.177081 -0.22223 0)
(-0.190753 -0.242945 0)
(-0.176578 -0.231583 0)
(-0.190865 -0.273965 0)
(-0.189983 -0.198837 0)
(-0.185732 -0.2801 0)
(-0.193474 -0.163468 0)
(-0.291047 -0.167873 0)
(-0.262616 -0.140242 0)
(-0.282051 -0.124223 0)
(-0.387394 -0.103987 0)
(-0.385204 -0.0826223 0)
(-0.000300161 -0.300157 0)
(-0.0217496 -0.304217 0)
(-0.0284801 -0.306495 0)
(-0.031438 -0.300839 0)
(-0.0488425 -0.292 0)
(-0.0565841 -0.280947 0)
(-0.0820862 -0.265871 0)
(-0.0933703 -0.260727 0)
(-0.0983236 -0.257239 0)
(-0.0720975 -0.246551 0)
(-0.0937083 -0.233802 0)
(-0.216797 -0.213301 0)
(-0.26906 -0.224883 0)
(-0.196058 -0.213453 0)
(-0.131239 -0.225893 0)
(-0.184263 -0.264902 0)
(-0.135051 -0.199646 0)
(-0.0920641 -0.202929 0)
(-0.252435 -0.20145 0)
(-0.310937 -0.0869925 0)
(-0.293103 -0.180499 0)
(-0.319999 -0.0662302 0)
(-0.342709 -0.0705877 0)
(-0.00538001 -0.290977 0)
(-0.0230686 -0.299267 0)
(-0.0293567 -0.287366 0)
(-0.0337437 -0.287219 0)
(-0.0526461 -0.27315 0)
(-0.0546474 -0.226637 0)
(-0.0872259 -0.220346 0)
(-0.0905558 -0.258052 0)
(-0.0986889 -0.273161 0)
(-0.107685 -0.275229 0)
(-0.0836679 -0.26831 0)
(-0.145299 -0.270473 0)
(-0.202729 -0.227446 0)
(-0.184572 -0.18158 0)
(-0.216082 -0.225679 0)
(-0.169859 -0.233831 0)
(-0.125148 -0.195142 0)
(-0.157088 -0.217623 0)
(-0.137427 -0.198241 0)
(-0.242939 -0.118219 0)
(-0.273396 -0.0950366 0)
(-0.271257 -0.0887815 0)
(-0.339306 -0.0638394 0)
(-0.00378633 -0.285805 0)
(-0.0114695 -0.293938 0)
(-0.0173983 -0.282812 0)
(-0.0196203 -0.290912 0)
(0.000308206 -0.280865 0)
(-0.000930788 -0.302644 0)
(-0.13819 -0.278105 0)
(-0.12389 -0.25576 0)
(-0.107196 -0.236394 0)
(-0.0816021 -0.255152 0)
(-0.0982598 -0.22723 0)
(-0.156202 -0.246165 0)
(-0.191666 -0.207189 0)
(-0.217923 -0.201674 0)
(-0.162604 -0.181398 0)
(-0.156914 -0.151706 0)
(-0.129718 -0.166681 0)
(-0.0982911 -0.203349 0)
(-0.125167 -0.136426 0)
(-0.168459 -0.184311 0)
(-0.281131 -0.0657798 0)
(-0.282479 -0.117729 0)
(-0.29574 -0.0387919 0)
(-0.00734081 -0.274439 0)
(-0.0125821 -0.283142 0)
(-0.0255701 -0.279755 0)
(-0.0277702 -0.290563 0)
(-0.0483677 -0.284791 0)
(-0.0478971 -0.354499 0)
(-0.0622793 -0.349408 0)
(-0.0603046 -0.293349 0)
(-0.0745181 -0.359465 0)
(-0.114253 -0.326178 0)
(-0.0896912 -0.332199 0)
(-0.0909633 -0.234817 0)
(-0.152352 -0.189344 0)
(-0.167775 -0.194256 0)
(-0.169835 -0.150278 0)
(-0.146784 -0.198301 0)
(-0.168517 -0.169172 0)
(-0.106033 -0.164054 0)
(-0.100874 -0.153946 0)
(-0.172837 -0.158506 0)
(-0.20886 -0.104808 0)
(-0.244937 -0.0726771 0)
(-0.237535 -0.0523909 0)
(-0.00673438 -0.268034 0)
(-0.00503627 -0.27626 0)
(-0.019264 -0.269934 0)
(-0.0174806 -0.274858 0)
(-0.0310329 -0.269957 0)
(-0.0507087 -0.33521 0)
(-0.120524 -0.284748 0)
(-0.125172 -0.254934 0)
(-0.0932955 -0.240426 0)
(-0.0431192 -0.22041 0)
(-0.0473136 -0.239139 0)
(-0.0600924 -0.189814 0)
(-0.131592 -0.176146 0)
(-0.184342 -0.185299 0)
(-0.185233 -0.169417 0)
(-0.167927 -0.147999 0)
(-0.0992286 -0.160947 0)
(-0.085081 -0.143541 0)
(-0.106481 -0.195132 0)
(-0.0888824 -0.103431 0)
(-0.148935 -0.126315 0)
(-0.222254 -0.0256878 0)
(-0.243704 -0.0539701 0)
(-0.0068536 -0.265732 0)
(-0.0058497 -0.271923 0)
(-0.024588 -0.264878 0)
(-0.0287971 -0.269946 0)
(-0.0858973 -0.256247 0)
(-0.0398327 -0.256705 0)
(0.00872681 -0.264584 0)
(-0.0551644 -0.18319 0)
(-0.0339667 -0.174529 0)
(-0.0674077 -0.187605 0)
(-0.0590837 -0.208881 0)
(-0.0684706 -0.198181 0)
(-0.136634 -0.213936 0)
(-0.15909 -0.172677 0)
(-0.143863 -0.161018 0)
(-0.148905 -0.123186 0)
(-0.148275 -0.131383 0)
(-0.133112 -0.135307 0)
(-0.0630954 -0.135249 0)
(-0.0674595 -0.125646 0)
(-0.15604 -0.149333 0)
(-0.209856 -0.0610169 0)
(-0.256632 -0.017026 0)
(-0.00737506 -0.263698 0)
(0.00365579 -0.2682 0)
(-0.0190968 -0.258708 0)
(-0.00161543 -0.238763 0)
(-0.0320309 -0.184968 0)
(-0.0353481 -0.193732 0)
(0.00868618 -0.223246 0)
(-0.0659197 -0.245357 0)
(-0.0949095 -0.219986 0)
(-0.0911094 -0.222425 0)
(-0.0733804 -0.231714 0)
(-0.0532363 -0.241874 0)
(-0.0921447 -0.217213 0)
(-0.130752 -0.182223 0)
(-0.130895 -0.164039 0)
(-0.161521 -0.143215 0)
(-0.108205 -0.133192 0)
(-0.085189 -0.101568 0)
(-0.107496 -0.10969 0)
(-0.116252 -0.125354 0)
(-0.11184 -0.0995651 0)
(-0.0965062 -0.110355 0)
(-0.197687 -0.00521502 0)
(-0.00421032 -0.26314 0)
(0.00460863 -0.264036 0)
(-0.0113829 -0.270283 0)
(0.0331325 -0.243634 0)
(-0.0311047 -0.28766 0)
(-0.0847752 -0.244842 0)
(-0.0520149 -0.265703 0)
(-0.0424793 -0.276173 0)
(-0.0337 -0.24501 0)
(-0.0713078 -0.22332 0)
(-0.0711072 -0.258955 0)
(-0.0654549 -0.202808 0)
(-0.0944327 -0.175837 0)
(-0.114231 -0.154509 0)
(-0.114995 -0.154878 0)
(-0.115467 -0.131982 0)
(-0.119258 -0.101255 0)
(-0.115045 -0.131082 0)
(-0.082358 -0.0965431 0)
(-0.0597217 -0.114156 0)
(-0.106941 -0.0567832 0)
(-0.0673991 -0.0753291 0)
(-0.161999 -0.07009 0)
(-0.00163912 -0.261624 0)
(-0.00303981 -0.263575 0)
(-0.00535621 -0.2697 0)
(-0.0100212 -0.240106 0)
(-0.0160139 -0.323401 0)
(-0.0353003 -0.253462 0)
(-0.0316657 -0.255489 0)
(-0.0510402 -0.223323 0)
(-0.061099 -0.232194 0)
(-0.0873511 -0.174485 0)
(-0.0361813 -0.205927 0)
(0.0346442 -0.206433 0)
(-0.0502329 -0.192167 0)
(-0.108943 -0.177533 0)
(-0.120043 -0.157739 0)
(-0.102076 -0.139757 0)
(-0.118812 -0.121416 0)
(-0.0738707 -0.113138 0)
(-0.0807045 -0.0756493 0)
(-0.0674749 -0.0775707 0)
(-0.0665227 -0.0726507 0)
(-0.0595879 -0.0401534 0)
(-0.102847 -0.101763 0)
(-0.00306751 -0.260645 0)
(-0.00604097 -0.264696 0)
(-0.00580132 -0.261289 0)
(-0.00705638 -0.231825 0)
(-0.0212814 -0.256039 0)
(-0.0306065 -0.254002 0)
(-0.0258486 -0.255622 0)
(-0.0249228 -0.235281 0)
(0.00935774 -0.230873 0)
(-0.0207711 -0.218131 0)
(-0.0802758 -0.179339 0)
(-0.0632138 -0.202257 0)
(-0.064086 -0.217266 0)
(-0.0651373 -0.192675 0)
(-0.0723688 -0.159814 0)
(-0.0685737 -0.136622 0)
(-0.092869 -0.118467 0)
(-0.0761645 -0.0831549 0)
(-0.051808 -0.0926474 0)
(-0.0608561 -0.0496931 0)
(-0.0673082 -0.0544256 0)
(-0.0712931 -0.0312002 0)
(-0.0727376 -0.0799613 0)
(-0.00104733 -0.256019 0)
(-0.00676718 -0.263017 0)
(-0.00549003 -0.261885 0)
(-0.0125149 -0.234732 0)
(-0.0201736 -0.264747 0)
(-0.0242617 -0.261968 0)
(-0.0227101 -0.31979 0)
(-0.0277399 -0.249635 0)
(-0.0443183 -0.239259 0)
(-0.0306602 -0.279103 0)
(-0.0235426 -0.219353 0)
(-0.0329301 -0.210792 0)
(-0.0343873 -0.189843 0)
(-0.0528554 -0.175038 0)
(-0.0583149 -0.150597 0)
(-0.0601354 -0.126567 0)
(-0.061626 -0.109097 0)
(-0.0638542 -0.0707333 0)
(-0.0443978 -0.0844945 0)
(-0.0259092 -0.0574384 0)
(-0.041619 -0.0616487 0)
(-0.07242 -0.0265089 0)
(-0.0147041 -0.045671 0)
(-0.00622018 -0.26668 0)
(-0.0204549 -0.267892 0)