/*--------------------------------*- C++ -*----------------------------------*\
| =========                 |                                                 |
| \\      /  F ield         | foam-extend: Open Source CFD                    |
|  \\    /   O peration     | Version:     4.1                                |
|   \\  /    A nd           | Web:         http://www.foam-extend.org         |
|    \\/     M anipulation  |                                                 |
\*---------------------------------------------------------------------------*/
FoamFile
{
    version     2.0;
    format      ascii;
    class       volVectorField;
    location    "0.25";
    object      U_0;
}
// * * * * * * * * * * * * * * * * * * * * * * * * * * * * * * * * * * * * * //

dimensions      [0 1 -1 0 0 0 0];

internalField   nonuniform List<vector> 
2268
(
(-0.00529348 -0.0124335 0)
(0.0686853 -0.00858716 0)
(0.107363 -0.00969035 0)
(0.215507 -0.0114081 0)
(0.266441 -0.00812917 0)
(0.381549 -0.014466 0)
(0.454958 0.0011255 0)
(0.496315 -0.0140288 0)
(0.723398 -0.00933138 0)
(0.667795 -0.0498066 0)
(0.614678 0.000321375 0)
(0.694182 -0.0333306 0)
(0.897472 -0.0154667 0)
(0.896368 0.0147006 0)
(1.02582 0.143204 0)
(1.12848 -0.0480181 0)
(1.31596 -0.141986 0)
(1.50987 -0.0254856 0)
(1.71428 0.00905881 0)
(1.55687 -0.0966448 0)
(0.85555 0.120838 0)
(0.162179 0.127177 0)
(-0.0619672 -0.146881 0)
(-0.00297398 -0.0165107 0)
(0.0706378 -0.0188474 0)
(0.107895 -0.0236544 0)
(0.214611 -0.0284293 0)
(0.268377 -0.0286673 0)
(0.38484 -0.0352529 0)
(0.451961 -0.047818 0)
(0.500773 -0.0576222 0)
(0.736084 -0.0423189 0)
(0.670727 -0.185516 0)
(0.607952 -0.0449431 0)
(0.677966 -0.115734 0)
(0.861458 -0.130235 0)
(0.902884 -0.0738848 0)
(0.981163 0.148055 0)
(1.05397 0.028645 0)
(1.39973 -0.046168 0)
(1.27096 -0.164993 0)
(1.34693 -0.0945149 0)
(1.37014 -0.0026786 0)
(1.18528 0.325417 0)
(0.889961 0.308284 0)
(0.608484 0.254968 0)
(-0.00387145 -0.0450635 0)
(0.0679259 -0.0357423 0)
(0.105368 -0.0428832 0)
(0.211182 -0.0515753 0)
(0.263963 -0.0465888 0)
(0.370746 -0.0574279 0)
(0.456616 -0.0417267 0)
(0.517403 -0.094912 0)
(0.670989 -0.0580135 0)
(0.648911 -0.218156 0)
(0.576709 -0.129116 0)
(0.63433 -0.191121 0)
(0.605592 -0.184629 0)
(0.698777 -0.0359939 0)
(0.836671 0.17867 0)
(0.973763 0.122951 0)
(1.1114 -0.0218956 0)
(0.7505 -0.440665 0)
(0.710959 -0.32693 0)
(0.962729 -0.0036146 0)
(0.995522 0.388442 0)
(0.955062 0.470058 0)
(0.771667 0.480053 0)
(0.00275265 -0.0424611 0)
(0.0775139 -0.0454274 0)
(0.106524 -0.0556644 0)
(0.203647 -0.0679439 0)
(0.267705 -0.0635451 0)
(0.402133 -0.090537 0)
(0.464962 -0.0346041 0)
(0.512427 -0.11131 0)
(0.625377 -0.0842696 0)
(0.593077 -0.185747 0)
(0.534072 -0.14384 0)
(0.533435 -0.183161 0)
(0.0242992 0.0593852 0)
(0.31384 0.133009 0)
(0.513957 0.284922 0)
(0.47146 0.0909699 0)
(0.641556 -0.0650163 0)
(0.594004 -0.532972 0)
(0.537947 -0.44269 0)
(0.497975 -0.0424109 0)
(0.628428 0.660635 0)
(0.873335 0.712458 0)
(0.651511 0.689119 0)
(-0.00150762 -0.0888806 0)
(0.0704646 -0.0625704 0)
(0.0991173 -0.0723066 0)
(0.197812 -0.0922172 0)
(0.259326 -0.093047 0)
(0.419661 -0.105681 0)
(0.418445 -0.0694797 0)
(0.471386 -0.144161 0)
(0.574094 -0.0589393 0)
(0.581742 -0.180787 0)
(0.533716 -0.21309 0)
(0.545282 -0.151705 0)
(0.611155 -0.0900827 0)
(0.797958 -0.245598 0)
(0.866783 0.0702053 0)
(0.95417 0.178247 0)
(1.03099 0.0135523 0)
(0.802367 -0.289824 0)
(0.416104 -0.227431 0)
(0.205407 -0.166947 0)
(0.130093 0.629451 0)
(0.697361 0.690282 0)
(0.644785 0.867116 0)
(0.0152592 -0.0642782 0)
(0.0824225 -0.0694077 0)
(0.0980171 -0.0836938 0)
(0.189258 -0.107079 0)
(0.251521 -0.116528 0)
(0.401292 -0.13533 0)
(0.389612 -0.145294 0)
(0.46116 -0.181626 0)
(0.535307 -0.129124 0)
(0.492703 -0.184904 0)
(0.539244 -0.285536 0)
(0.583242 -0.164746 0)
(0.602442 -0.212369 0)
(0.805859 -0.270842 0)
(1.22147 -0.0626483 0)
(1.14327 0.225944 0)
(0.992402 0.094205 0)
(0.571987 -0.103544 0)
(0.334072 -0.106413 0)
(0.0877917 0.000815159 0)
(-0.201554 0.215432 0)
(0.427144 0.646908 0)
(0.624555 0.987048 0)
(-0.00012079 -0.044467 0)
(0.0686262 -0.0860987 0)
(0.0806804 -0.0975747 0)
(0.177381 -0.133798 0)
(0.23911 -0.14124 0)
(0.367583 -0.144924 0)
(0.353249 -0.132749 0)
(0.483896 -0.132106 0)
(0.52429 -0.253286 0)
(0.47037 -0.221007 0)
(0.532445 -0.206879 0)
(0.653837 -0.246956 0)
(0.64552 -0.172125 0)
(0.775948 -0.159356 0)
(1.08602 -0.306706 0)
(1.16033 0.0167227 0)
(0.955805 0.16974 0)
(0.665938 0.147997 0)
(0.208885 -0.00602194 0)
(0.139597 0.195795 0)
(-0.0597522 0.149833 0)
(0.106894 0.492244 0)
(0.46433 1.241 0)
(-0.00552723 -0.0760809 0)
(0.064013 -0.0831187 0)
(0.0735511 -0.106776 0)
(0.164162 -0.13942 0)
(0.228487 -0.160468 0)
(0.360344 -0.166943 0)
(0.357197 -0.213731 0)
(0.408028 -0.145826 0)
(0.486671 -0.262108 0)
(0.49251 -0.217491 0)
(0.540841 -0.173172 0)
(0.651861 -0.191131 0)
(0.667218 -0.181555 0)
(0.728422 -0.234994 0)
(0.8635 -0.215929 0)
(0.773444 -0.012568 0)
(0.602188 0.2355 0)
(0.52966 0.258831 0)
(0.164021 0.155753 0)
(0.0613491 0.189862 0)
(0.0296602 0.214053 0)
(0.24934 0.475729 0)
(0.493749 1.62598 0)
(-0.0570551 0.0505781 0)
(-0.206804 0.0581842 0)
(-0.351516 0.0414754 0)
(-0.433839 0.0221644 0)
(-0.509865 0.0100737 0)
(-0.44684 -0.0268622 0)
(-0.268799 -0.0547905 0)
(-0.107173 -0.0584288 0)
(0.0628424 -0.0560009 0)
(0.19156 -0.0231564 0)
(0.277195 -0.0288884 0)
(0.397692 -0.048309 0)
(0.52055 0.0503737 0)
(0.515266 0.0044418 0)
(0.418034 0.00775878 0)
(0.335989 0.0105998 0)
(0.236199 0.01017 0)
(0.144281 0.0100281 0)
(0.0462373 0.00997046 0)
(-0.0549984 0.17819 0)
(-0.217395 0.17822 0)
(-0.37516 0.122142 0)
(-0.44794 0.0582843 0)
(-0.52698 0.0117786 0)
(-0.468666 -0.115931 0)
(-0.275686 -0.187303 0)
(-0.0945268 -0.198258 0)
(0.0944979 -0.174664 0)
(0.218283 -0.117368 0)
(0.309379 -0.130285 0)
(0.447609 -0.0605545 0)
(0.602917 0.100572 0)
(0.556324 0.0300434 0)
(0.435044 0.0297624 0)
(0.355584 0.0305769 0)
(0.251049 0.0312831 0)
(0.153403 0.0315409 0)
(0.0492297 0.0315116 0)
(-0.060764 0.268488 0)
(-0.246327 0.318377 0)
(-0.43907 0.235805 0)
(-0.513038 0.099184 0)
(-0.58686 0.0438209 0)
(-0.530131 -0.119931 0)
(-0.305128 -0.316266 0)
(-0.0896462 -0.333296 0)
(0.116621 -0.285096 0)
(0.215527 -0.216305 0)
(0.363841 -0.166302 0)
(0.48031 0.0455802 0)
(0.602618 0.0532946 0)
(0.558625 0.0350273 0)
(0.453985 0.0501242 0)
(0.363154 0.0519188 0)
(0.254385 0.0537173 0)
(0.154735 0.053963 0)
(0.0496318 0.0538356 0)
(-0.0214452 0.45242 0)
(-0.237004 0.515887 0)
(-0.437613 0.320203 0)
(-0.559282 0.167954 0)
(-0.629891 0.0564543 0)
(-0.610919 -0.41164 0)
(-0.379194 -0.504063 0)
(-0.0661607 -0.524813 0)
(0.143196 -0.400992 0)
(0.257946 -0.339248 0)
(0.429952 -0.146693 0)
(0.587193 0.116463 0)
(0.602733 0.0758371 0)
(0.545576 0.0626032 0)
(0.448694 0.0727206 0)
(0.361393 0.0744424 0)
(0.254307 0.0762302 0)
(0.154759 0.0762772 0)
(0.0496976 0.0759721 0)
(0.0477905 0.46988 0)
(-0.157382 0.626658 0)
(-0.338653 0.492749 0)
(-0.488612 0.183101 0)
(-0.64956 0.112459 0)
(-0.460443 -0.729736 0)
(-0.357219 -0.745925 0)
(-0.0280002 -0.686725 0)
(0.164952 -0.529276 0)
(0.350004 -0.360087 0)
(0.474313 -0.0864322 0)
(0.610171 0.0368059 0)
(0.616947 0.0638941 0)
(0.563742 0.0742163 0)
(0.456029 0.0913046 0)
(0.363551 0.0952164 0)
(0.255215 0.098357 0)
(0.154932 0.0985966 0)
(0.0497639 0.0981896 0)
(0.302052 0.519626 0)
(0.0585371 0.928407 0)
(-0.17876 0.364983 0)
(-0.26372 0.252537 0)
(-0.372137 0.0562723 0)
(0.144454 -0.786591 0)
(-0.188965 -0.887691 0)
(0.0724731 -0.635855 0)
(0.361574 -0.47747 0)
(0.47743 -0.244566 0)
(0.60577 -0.0391799 0)
(0.63783 0.0423022 0)
(0.632314 0.0785538 0)
(0.567922 0.0981541 0)
(0.460485 0.116344 0)
(0.364776 0.118621 0)
(0.255839 0.121258 0)
(0.15494 0.121179 0)
(0.0498074 0.120508 0)
(0.587688 0.0949183 0)
(0.396276 1.10444 0)
(0.103416 0.466776 0)
(-0.014921 0.290756 0)
(0.0244146 0.0695325 0)
(0.449425 -0.609847 0)
(0.324539 -0.909741 0)
(0.413087 -0.585124 0)
(0.471709 -0.374925 0)
(0.514464 -0.20613 0)
(0.638351 -0.113732 0)
(0.674701 0.0161737 0)
(0.656433 0.0819924 0)
(0.572148 0.113893 0)
(0.463294 0.135934 0)
(0.365594 0.140594 0)
(0.256336 0.143729 0)
(0.15488 0.143534 0)
(0.0498078 0.142625 0)
(0.0578443 -0.254713 0)
(0.321186 0.733406 0)
(0.165313 0.472719 0)
(0.242618 0.185634 0)
(0.360405 -0.365489 0)
(0.558911 -0.515835 0)
(0.539195 -0.783046 0)
(0.684232 -0.607142 0)
(0.700087 -0.483178 0)
(0.619095 -0.249013 0)
(0.695988 -0.14357 0)
(0.717574 0.0256786 0)
(0.685487 0.096384 0)
(0.590914 0.139165 0)
(0.470919 0.161052 0)
(0.367367 0.165207 0)
(0.256998 0.167872 0)
(0.154827 0.167327 0)
(0.0498276 0.166045 0)
(-0.00268523 -0.0677445 0)
(0.060797 -0.108 0)
(0.0569882 -0.127417 0)
(0.150292 -0.202138 0)
(0.220425 -0.231928 0)
(0.301879 -0.207785 0)
(0.349894 -0.26763 0)
(0.405233 -0.240389 0)
(0.534606 -0.318035 0)
(0.570507 -0.272291 0)
(0.662407 -0.260447 0)
(0.672821 -0.114242 0)
(0.636196 -0.237243 0)
(0.737359 -0.25225 0)
(1.09214 -0.0818648 0)
(0.909523 -0.0325825 0)
(0.600758 0.310255 0)
(0.629012 0.394239 0)
(0.55234 0.362858 0)
(0.584302 0.187452 0)
(0.523596 0.102839 0)
(0.90588 0.375339 0)
(0.98761 1.60152 0)
(-0.045209 -0.139049 0)
(0.0305972 -0.124043 0)
(0.0637216 -0.184682 0)
(0.136851 -0.303996 0)
(0.209311 -0.239192 0)
(0.341554 -0.282181 0)
(0.395988 -0.273772 0)
(0.456453 -0.309421 0)
(0.636405 -0.362437 0)
(0.673949 -0.330939 0)
(0.777368 -0.185876 0)
(0.712091 -0.151863 0)
(0.586739 -0.216207 0)
(0.703009 -0.184549 0)
(0.861823 -0.180847 0)
(0.814393 -0.165249 0)
(0.786128 0.121793 0)
(0.914941 0.31438 0)
(0.994381 0.340788 0)
(1.00968 0.180635 0)
(1.13818 0.182544 0)
(1.48354 0.426054 0)
(1.97993 0.993476 0)
(0.0467626 -0.23372 0)
(0.0527901 -0.233551 0)
(0.0256453 -0.227436 0)
(0.170748 -0.321668 0)
(0.258965 -0.245069 0)
(0.288726 -0.332921 0)
(0.401098 -0.35395 0)
(0.481452 -0.399053 0)
(0.638957 -0.451675 0)
(0.722566 -0.31478 0)
(0.716271 -0.430099 0)
(0.620761 -0.404127 0)
(0.628974 -0.373672 0)
(0.780195 -0.359787 0)
(0.873015 -0.286125 0)
(0.780601 -0.0858203 0)
(0.743629 0.0163901 0)
(0.887661 0.187627 0)
(0.988508 0.155435 0)
(1.21932 0.163165 0)
(1.6249 0.501637 0)
(1.69837 0.50669 0)
(1.8946 0.737193 0)
(0.00269267 -0.339299 0)
(0.121255 -0.337447 0)
(0.126882 -0.345911 0)
(0.14934 -0.335088 0)
(0.161704 -0.221052 0)
(0.253547 -0.313991 0)
(0.418736 -0.286197 0)
(0.512393 -0.410247 0)
(0.695008 -0.467662 0)
(0.592276 -0.510717 0)
(0.611264 -0.620037 0)
(0.606014 -0.460446 0)
(0.631171 -0.460727 0)
(0.831741 -0.468021 0)
(1.02446 -0.184478 0)
(0.856209 -0.102403 0)
(0.649713 0.0407705 0)
(0.705324 0.210179 0)
(0.917068 0.266341 0)
(1.40429 0.572307 0)
(1.65118 0.532236 0)
(1.69494 0.238647 0)
(1.52928 0.235271 0)
(0.0380239 -0.489026 0)
(0.0841625 -0.501659 0)
(0.169244 -0.546372 0)
(0.239419 -0.562833 0)
(0.21953 -0.588452 0)
(0.350949 -0.54938 0)
(0.415369 -0.669056 0)
(0.3756 -0.632839 0)
(0.335014 -0.52823 0)
(0.441017 -0.542357 0)
(0.462396 -0.5934 0)
(0.336216 -0.393352 0)
(0.385774 -0.459597 0)
(0.729534 -0.462834 0)
(0.893051 -0.388784 0)
(0.670955 -0.353847 0)
(0.667131 -0.103794 0)
(0.906619 -0.0903659 0)
(1.01357 0.198209 0)
(1.20944 0.21602 0)
(1.37015 0.198691 0)
(1.40826 0.163495 0)
(1.30322 0.0401213 0)
(0.00760579 -0.572902 0)
(0.0599629 -0.587656 0)
(0.066636 -0.639703 0)
(0.141875 -0.654285 0)
(0.222395 -0.739199 0)
(0.26581 -0.71469 0)
(0.373018 -0.840117 0)
(0.304227 -0.68806 0)
(0.15372 -0.55391 0)
(0.297476 -0.245968 0)
(-0.170611 -0.437967 0)
(0.107365 -0.34163 0)
(0.150084 -0.516857 0)
(0.335523 -0.358776 0)
(0.282503 -0.412269 0)
(0.297105 -0.221842 0)
(0.568066 -0.185799 0)
(1.20243 -0.125088 0)
(1.02949 0.0487673 0)
(0.408754 0.0348647 0)
(0.404957 0.120697 0)
(0.320879 0.257304 0)
(0.347229 0.379247 0)
(0.0341404 -0.623216 0)
(0.00803226 -0.628531 0)
(0.0776296 -0.671839 0)
(0.136109 -0.623048 0)
(0.144163 -0.747417 0)
(0.20613 -0.762065 0)
(0.272513 -0.785606 0)
(-0.0646675 -0.436248 0)
(-0.419869 -0.574133 0)
(-0.236827 -0.308669 0)
(-0.279294 -0.479197 0)
(0.0597242 -0.568564 0)
(0.336769 -0.710531 0)
(0.403546 -0.512749 0)
(0.397502 -0.354095 0)
(0.426052 -0.358927 0)
(0.597709 -0.346007 0)
(0.246239 -0.305425 0)
(0.24425 0.0750522 0)
(0.217901 0.397904 0)
(0.334115 0.280356 0)
(0.441959 0.263656 0)
(0.667421 -0.0272212 0)
(0.0227283 -0.655658 0)
(-0.000734717 -0.67413 0)
(0.0661435 -0.67505 0)
(0.0330423 -0.722502 0)
(0.0753514 -0.825042 0)
(0.184643 -0.670786 0)
(0.316424 -0.607345 0)
(0.0940017 -0.235695 0)
(0.0672517 -0.613022 0)
(0.0237034 -0.320125 0)
(-0.179337 -0.470484 0)
(0.170764 -1.05723 0)
(0.341029 -0.871933 0)
(0.483975 -0.529826 0)
(0.329723 -0.297904 0)
(0.300817 -0.514349 0)
(0.220631 -0.339364 0)
(0.259974 -0.383831 0)
(0.267095 0.0327542 0)
(0.375139 0.352236 0)
(0.557082 0.187109 0)
(1.31132 0.040968 0)
(1.40207 -0.178437 0)
(0.0221911 -0.670509 0)
(0.035195 -0.688156 0)
(0.0599278 -0.668672 0)
(-0.00682021 -0.769392 0)
(0.216938 -0.67623 0)
(0.257763 -0.701682 0)
(0.0136025 -0.538345 0)
(0.0880375 -0.298122 0)
(0.331752 -0.550866 0)
(0.509888 -0.370661 0)
(0.0901423 -0.402567 0)
(0.234106 -1.19493 0)
(0.168218 -0.968622 0)
(0.0874332 -0.338427 0)
(-0.164447 -0.0072389 0)
(0.14628 -0.36189 0)
(0.0786281 -0.330043 0)
(0.0900722 -0.404388 0)
(0.441472 -0.175966 0)
(0.550905 -0.166511 0)
(0.759254 -0.0274412 0)
(1.05984 -0.16637 0)
(1.13656 -0.756216 0)
(0.0417791 -0.780798 0)
(0.094502 -0.654166 0)
(0.0280424 -0.707094 0)
(0.156209 -0.717157 0)
(0.168313 -0.588423 0)
(0.0845108 -0.796839 0)
(0.0364622 -0.440182 0)
(-0.00384586 -0.422989 0)
(0.128446 -0.583383 0)
(0.0681637 -0.367055 0)
(0.369103 -0.270345 0)
(0.387199 -1.10045 0)
(-0.0377212 -0.711929 0)
(-0.14367 -0.157915 0)
(-0.160541 -0.291217 0)
(0.281388 -0.62146 0)
(0.222563 -0.328276 0)
(0.159781 -0.541695 0)
(0.395098 -0.430645 0)
(0.313626 -0.514577 0)
(0.258343 -0.317327 0)
(0.490723 -0.403746 0)
(0.424676 -0.854303 0)
(0.0481857 -0.935367 0)
(0.250207 -0.642349 0)
(0.184092 -0.750168 0)
(0.277649 -0.870337 0)
(0.17143 -0.807518 0)
(-0.106374 -0.483517 0)
(-0.0237782 -0.360317 0)
(0.100669 -0.401209 0)
(0.303175 -0.6186 0)
(0.462614 -0.599516 0)
(0.591194 -0.521547 0)
(0.599417 -0.805522 0)
(0.106385 -0.58871 0)
(0.114004 -0.256752 0)
(-0.0441741 -0.533142 0)
(0.354993 -0.717533 0)
(0.436047 -0.374038 0)
(0.290639 -0.272416 0)
(0.264001 -0.303432 0)
(0.412702 -0.684595 0)
(0.253884 -0.415737 0)
(0.197762 -0.450891 0)
(0.139501 -1.03074 0)
(0.00591396 -1.03714 0)
(0.31965 -0.890586 0)
(0.190502 -0.702271 0)
(0.240632 -0.99731 0)
(0.37999 -0.929671 0)
(0.397335 -0.680555 0)
(0.322377 -0.63077 0)
(0.51926 -0.687735 0)
(0.671051 -0.824151 0)
(0.743055 -0.752064 0)
(0.819719 -0.573623 0)
(0.676844 -0.573684 0)
(0.182549 -0.334529 0)
(-0.14119 -0.0172174 0)
(-0.177766 -0.571245 0)
(-0.050128 -0.815574 0)
(0.410819 -0.635858 0)
(0.204946 7.29192e-05 0)
(0.116091 -0.095504 0)
(0.167453 -0.523023 0)
(-0.0245103 -0.17296 0)
(-0.143986 -0.494099 0)
(-0.199074 -0.797898 0)
(0.0454036 -1.23784 0)
(0.0227077 -0.960504 0)
(0.0399917 -0.519881 0)
(0.125823 -0.833399 0)
(0.340991 -0.906227 0)
(0.609116 -0.838712 0)
(0.595869 -0.631235 0)
(0.645433 -0.736588 0)
(0.670283 -0.810403 0)
(0.60649 -0.721027 0)
(0.506516 -0.519134 0)
(0.146338 -0.204931 0)
(-0.189928 0.261786 0)
(0.0117993 0.074585 0)
(-0.317227 -0.451117 0)
(-0.453133 -0.79596 0)
(-0.215197 -0.845274 0)
(-0.106655 -0.0443516 0)
(-0.09688 -0.372098 0)
(-0.188091 -0.431028 0)
(-0.135198 -0.0440997 0)
(-0.217405 -0.383143 0)
(-0.314976 -0.739961 0)
(0.0191022 -1.26895 0)
(-0.19324 -0.593692 0)
(0.0162085 -0.487844 0)
(0.17436 -0.744051 0)
(0.262238 -0.817825 0)
(0.68279 -0.910051 0)
(0.642458 -0.591959 0)
(0.569731 -0.878606 0)
(0.265444 -0.883838 0)
(0.087704 -0.649219 0)
(0.427044 -0.370725 0)
(-0.347341 0.0329631 0)
(-0.739065 -0.147463 0)
(-0.467876 -0.174709 0)
(-0.577318 -0.696236 0)
(-0.565774 -0.850492 0)
(-0.478459 -0.645897 0)
(-0.233008 -0.440105 0)
(-0.232113 -0.436484 0)
(-0.320154 -0.367586 0)
(-0.166726 -0.120853 0)
(-0.178728 -0.323223 0)
(-0.415435 -0.499403 0)
(-0.0445528 -0.672214 0)
(-0.0361139 -0.523953 0)
(0.0333083 -0.584051 0)
(0.211511 -0.761302 0)
(-0.0435235 -0.830754 0)
(-0.113021 -1.12311 0)
(-0.105325 0.130011 0)
(0.583993 -0.8178 0)
(-0.0521356 -0.644975 0)
(-0.247028 -0.622884 0)
(-0.177682 0.403726 0)
(-0.140833 0.886624 0)
(0.0645526 0.45801 0)
(0.0949132 -0.173577 0)
(0.109662 -1.05507 0)
(-0.363933 -0.793968 0)
(-0.608654 -0.615488 0)
(-0.411358 -0.377973 0)
(-0.33011 -0.284469 0)
(-0.271201 -0.2619 0)
(-0.224853 -0.272408 0)
(-0.29166 -0.433279 0)
(-0.461631 -0.400009 0)
(-0.160431 -0.50597 0)
(0.0931059 -0.726627 0)
(0.0634316 -0.669882 0)
(-0.064477 -0.660499 0)
(-0.285422 -0.659941 0)
(-0.262329 -0.831546 0)
(-0.284161 -0.902804 0)
(0.197023 0.0234601 0)
(-0.167966 -0.548936 0)
(-0.275646 -1.17217 0)
(-0.2029 -0.439483 0)
(-0.053516 0.692593 0)
(0.185669 -0.146776 0)
(0.198829 -0.247583 0)
(-0.115635 -0.396562 0)
(-0.188841 -0.724477 0)
(-0.325805 -0.480732 0)
(-0.36839 -0.33143 0)
(-0.366503 -0.252105 0)
(-0.400267 -0.198922 0)
(-0.464147 -0.253389 0)
(-0.51233 -0.389461 0)
(-0.572562 -0.381925 0)
(0.197658 -0.43277 0)
(0.0662236 -0.676785 0)
(-0.0645811 -0.483452 0)
(-0.454081 -0.45567 0)
(-0.254219 -0.552754 0)
(-0.491967 -1.19648 0)
(-0.620287 -1.29531 0)
(-0.212741 -0.641583 0)
(-0.157421 -1.00421 0)
(-0.399363 -1.09552 0)
(-0.272797 -0.140069 0)
(-0.0584218 0.0931233 0)
(0.136088 0.0010826 0)
(-0.0567309 0.0140887 0)
(-0.181688 -0.24326 0)
(-0.245127 -0.356141 0)
(-0.228105 -0.335821 0)
(-0.325065 -0.310508 0)
(-0.375635 -0.353827 0)
(-0.467758 -0.245413 0)
(-0.457044 -0.207166 0)
(-0.51994 -0.362929 0)
(-0.483616 -0.375306 0)
(0.350032 -0.801261 0)
(-0.110311 -0.593683 0)
(-0.0850527 -0.337181 0)
(-0.450764 -0.263573 0)
(-0.303591 -0.760703 0)
(-0.553019 -1.10529 0)
(-0.4575 -0.919748 0)
(-0.480051 -0.841432 0)
(-0.380778 -0.919201 0)
(-0.575117 -0.811329 0)
(-0.618999 -0.468459 0)
(-0.510539 -0.235251 0)
(-0.696608 -0.00628439 0)
(-0.401221 -0.09448 0)
(-0.400855 -0.229863 0)
(-0.265466 -0.270223 0)
(-0.186368 -0.29019 0)
(-0.337747 -0.336178 0)
(-0.303505 -0.38167 0)
(-0.36237 -0.391136 0)
(-0.537538 -0.290562 0)
(-0.61208 -0.361506 0)
(-0.647763 -0.464575 0)
(0.106459 -1.58389 0)
(-0.184696 -0.66723 0)
(0.088813 -0.274828 0)
(-0.19328 -0.148327 0)
(0.13166 -1.02681 0)
(-0.398024 -0.652126 0)
(-0.508093 -0.800194 0)
(-0.565363 -0.616292 0)
(-0.390173 -0.601357 0)
(-0.381196 -0.578785 0)
(-0.576525 -0.398843 0)
(-0.614928 -0.325385 0)
(-0.547262 -0.132689 0)
(-0.479679 -0.248474 0)
(-0.46841 -0.312274 0)
(-0.359382 -0.184614 0)
(-0.323817 -0.281574 0)
(-0.348812 -0.284539 0)
(-0.374176 -0.398279 0)
(-0.426996 -0.473317 0)
(-0.438973 -0.395663 0)
(-0.60612 -0.286489 0)
(-0.662316 -0.223251 0)
(-0.0301309 -1.12884 0)
(-0.0445227 -0.363323 0)
(0.0428935 -0.208801 0)
(0.043735 -0.267109 0)
(-0.0485707 -0.494076 0)
(-0.321236 -0.943075 0)
(-0.24596 -0.653292 0)
(-0.416878 -0.54622 0)
(-0.338168 -0.515941 0)
(-0.369185 -0.416978 0)
(-0.509317 -0.397141 0)
(-0.545302 -0.188508 0)
(-0.521258 -0.236213 0)
(-0.534657 -0.194425 0)
(-0.332204 -0.240941 0)
(-0.292458 -0.157556 0)
(-0.31986 -0.221261 0)
(-0.424264 -0.0845894 0)
(-0.470966 -0.168985 0)
(-0.464639 -0.220017 0)
(-0.45308 -0.286125 0)
(-0.494481 -0.189048 0)
(-0.57554 -0.127351 0)
(-0.17406 -1.5608 0)
(-0.027804 -1.03461 0)
(-0.029745 -0.21517 0)
(-0.0403654 -0.527969 0)
(-0.0282042 -0.865964 0)
(-0.0385927 -0.697125 0)
(-0.047003 -0.769289 0)
(-0.410137 -0.530286 0)
(-0.313567 -0.459666 0)
(-0.307433 -0.46118 0)
(-0.389951 -0.46365 0)
(-0.508866 -0.320704 0)
(-0.521752 -0.27441 0)
(-0.350898 -0.165134 0)
(-0.349395 -0.101808 0)
(-0.28115 -0.193067 0)
(-0.304767 -0.259512 0)
(-0.485012 -0.192762 0)
(-0.535607 -0.152421 0)
(-0.566715 -0.157839 0)
(-0.495854 -0.188092 0)
(-0.416327 -0.210402 0)
(-0.539738 -0.229017 0)
(-0.144838 -0.89297 0)
(-0.198144 -0.690671 0)
(-0.158094 -0.639491 0)
(-0.0828414 -0.564984 0)
(0.0176587 -0.76466 0)
(-0.0983397 -0.464062 0)
(-0.0507418 -0.810009 0)
(-0.174476 -0.642037 0)
(-0.379745 -0.458498 0)
(-0.415787 -0.521101 0)
(-0.367865 -0.463478 0)
(-0.397667 -0.500156 0)
(-0.390485 -0.365602 0)
(-0.258842 -0.286289 0)
(-0.287895 -0.169863 0)
(-0.363472 -0.167791 0)
(-0.217561 -0.272431 0)
(-0.447819 -0.343348 0)
(-0.516643 -0.356112 0)
(-0.436984 -0.204886 0)
(-0.472784 -0.149877 0)
(-0.472486 -0.159222 0)
(-0.527141 -0.172511 0)
(-0.0523125 -0.884678 0)
(-0.108912 -0.838171 0)
(-0.164062 -0.70902 0)
(-0.0335513 -0.551086 0)
(0.137493 -0.758857 0)
(-0.0739924 -0.688435 0)
(-0.227508 -0.675393 0)
(-0.158325 -0.737627 0)
(-0.283185 -0.647683 0)
(-0.344536 -0.519377 0)
(-0.298477 -0.472331 0)
(-0.386589 -0.410772 0)
(-0.285533 -0.323758 0)
(-0.183464 -0.314311 0)
(-0.227912 -0.26351 0)
(-0.365057 -0.259823 0)
(-0.385214 -0.243776 0)
(-0.413534 -0.325876 0)
(-0.395562 -0.190373 0)
(-0.399929 -0.167471 0)
(-0.447524 -0.170647 0)
(-0.44418 -0.179997 0)
(-0.462028 -0.19891 0)
(-0.114531 -0.62178 0)
(-0.0924307 -0.495057 0)
(0.0292617 -0.511437 0)
(-0.0303198 -0.42993 0)
(-0.0752174 -0.498579 0)
(0.0262996 -0.760009 0)
(-0.130399 -0.650981 0)
(-0.129004 -0.616204 0)
(-0.203217 -0.62189 0)
(-0.223469 -0.490987 0)
(-0.241833 -0.433412 0)
(-0.243997 -0.385013 0)
(-0.247619 -0.274816 0)
(-0.17254 -0.292392 0)
(-0.254834 -0.300282 0)
(-0.340136 -0.271421 0)
(-0.311084 -0.253604 0)
(-0.35208 -0.301019 0)
(-0.340937 -0.119638 0)
(-0.425591 -0.192834 0)
(-0.479985 -0.145516 0)
(-0.476967 -0.151064 0)
(-0.489441 -0.132273 0)
(0.0715366 -0.423941 0)
(0.0382715 -0.392667 0)
(-0.0353552 -0.323784 0)
(-0.0666392 -0.390265 0)
(-0.121048 -0.366128 0)
(-0.144149 -0.434813 0)
(-0.0640299 -0.411728 0)
(-0.0590616 -0.589999 0)
(-0.119774 -0.479371 0)
(-0.182906 -0.474823 0)
(-0.190119 -0.483019 0)
(-0.209964 -0.467885 0)
(-0.204005 -0.43877 0)
(-0.15581 -0.397774 0)
(-0.122519 -0.409758 0)
(-0.342938 -0.311063 0)
(-0.427939 -0.267323 0)
(-0.309312 -0.205903 0)
(-0.328527 -0.210099 0)
(-0.409125 -0.245999 0)
(-0.390694 -0.158595 0)
(-0.433779 -0.15328 0)
(-0.447083 -0.0761044 0)
(-0.00778717 -0.304327 0)
(-0.0237504 -0.359691 0)
(-0.0474938 -0.35999 0)
(-0.0533597 -0.346307 0)
(-0.0738202 -0.360553 0)
(-0.102022 -0.312672 0)
(-0.169282 -0.32481 0)
(-0.152693 -0.341239 0)
(-0.128059 -0.36691 0)
(-0.242885 -0.346077 0)
(-0.235919 -0.301727 0)
(-0.179832 -0.300398 0)
(-0.142272 -0.313189 0)
(-0.128089 -0.425484 0)
(-0.201201 -0.362877 0)
(-0.224996 -0.418333 0)
(-0.195921 -0.223832 0)
(-0.311445 -0.189312 0)
(-0.37897 -0.238144 0)
(-0.350316 -0.172753 0)
(-0.397463 -0.133676 0)
(-0.428327 -0.124525 0)
(-0.44074 -0.0837588 0)
(0.00257532 -0.340306 0)
(-0.00824943 -0.335014 0)
(-0.0317227 -0.330553 0)
(-0.0427696 -0.318744 0)
(-0.0731256 -0.314566 0)
(-0.0826916 -0.315773 0)
(-0.107827 -0.310549 0)
(-0.119098 -0.263316 0)
(-0.129529 -0.294242 0)
(-0.157055 -0.273735 0)
(-0.170906 -0.220794 0)
(-0.1989 -0.22575 0)
(-0.23671 -0.213799 0)
(-0.187771 -0.250055 0)
(-0.191248 -0.269205 0)
(-0.163459 -0.25185 0)
(-0.18686 -0.24889 0)
(-0.276809 -0.271044 0)
(-0.299621 -0.206943 0)
(-0.328693 -0.220296 0)
(-0.319017 -0.117572 0)
(-0.373482 -0.120529 0)
(-0.367526 -0.0817277 0)
(-0.00499467 -0.306169 0)
(-0.0233693 -0.315946 0)
(-0.0341946 -0.316944 0)
(-0.045266 -0.307728 0)
(-0.0596555 -0.300737 0)
(-0.0736345 -0.281721 0)
(-0.110527 -0.278526 0)
(-0.118867 -0.281147 0)
(-0.127291 -0.265568 0)
(-0.144218 -0.254305 0)
(-0.141463 -0.21269 0)
(-0.177543 -0.222827 0)
(-0.191236 -0.243508 0)
(-0.17726 -0.232003 0)
(-0.191494 -0.274895 0)
(-0.19067 -0.199306 0)
(-0.186501 -0.2808 0)
(-0.194437 -0.163583 0)
(-0.292357 -0.168339 0)
(-0.263693 -0.140355 0)
(-0.283378 -0.124343 0)
(-0.389475 -0.10353 0)
(-0.387042 -0.082169 0)
(-0.000321231 -0.300969 0)
(-0.0218439 -0.304948 0)
(-0.0286165 -0.307222 0)
(-0.031628 -0.301513 0)
(-0.0489936 -0.292697 0)
(-0.056805 -0.281547 0)
(-0.0823191 -0.266428 0)
(-0.0937365 -0.261371 0)
(-0.0986881 -0.257757 0)
(-0.0724902 -0.24708 0)
(-0.0942446 -0.234277 0)
(-0.217262 -0.213892 0)
(-0.269426 -0.225406 0)
(-0.196842 -0.21408 0)
(-0.131623 -0.226475 0)
(-0.184859 -0.265536 0)
(-0.135879 -0.200001 0)
(-0.0926081 -0.203178 0)
(-0.253355 -0.201698 0)
(-0.312226 -0.086875 0)
(-0.29443 -0.180498 0)
(-0.321487 -0.0657168 0)
(-0.344265 -0.0695105 0)
(-0.00535087 -0.29171 0)
(-0.0231252 -0.299958 0)
(-0.0294335 -0.288036 0)
(-0.0338858 -0.287872 0)
(-0.0527831 -0.273762 0)
(-0.0548704 -0.227208 0)
(-0.0874861 -0.220969 0)
(-0.0909104 -0.258662 0)
(-0.0990172 -0.273707 0)
(-0.108031 -0.275796 0)
(-0.0841675 -0.268911 0)
(-0.145636 -0.270992 0)
(-0.203092 -0.22795 0)
(-0.185074 -0.182028 0)
(-0.216724 -0.22603 0)
(-0.170513 -0.234316 0)
(-0.125861 -0.195455 0)
(-0.157874 -0.217801 0)
(-0.138125 -0.19837 0)
(-0.244148 -0.118152 0)
(-0.274859 -0.0949819 0)
(-0.27271 -0.0885341 0)
(-0.340653 -0.0636282 0)
(-0.0037881 -0.28652 0)
(-0.0115558 -0.294604 0)
(-0.0174718 -0.283455 0)
(-0.0197621 -0.291577 0)
(0.000178916 -0.281485 0)
(-0.00111614 -0.303111 0)
(-0.138391 -0.278628 0)
(-0.124203 -0.256386 0)
(-0.107528 -0.236926 0)
(-0.0819524 -0.255633 0)
(-0.0986182 -0.227681 0)
(-0.156461 -0.246638 0)
(-0.192147 -0.207603 0)
(-0.218494 -0.202065 0)
(-0.163308 -0.181765 0)
(-0.15759 -0.152058 0)
(-0.130303 -0.166896 0)
(-0.0988854 -0.203565 0)
(-0.125738 -0.136526 0)
(-0.169107 -0.184557 0)
(-0.282089 -0.0655548 0)
(-0.283413 -0.117205 0)
(-0.296661 -0.0379484 0)
(-0.00733201 -0.275077 0)
(-0.0126869 -0.283735 0)
(-0.0256712 -0.28035 0)
(-0.027934 -0.291195 0)
(-0.0485007 -0.285396 0)
(-0.0480867 -0.354953 0)
(-0.0624702 -0.349925 0)
(-0.0606248 -0.293873 0)
(-0.0748125 -0.359969 0)
(-0.114464 -0.326672 0)
(-0.0899599 -0.332474 0)
(-0.0913092 -0.235265 0)
(-0.152814 -0.189719 0)
(-0.168259 -0.194572 0)
(-0.170408 -0.150554 0)
(-0.1474 -0.198597 0)
(-0.169095 -0.169428 0)
(-0.106567 -0.164248 0)
(-0.101433 -0.153981 0)
(-0.173374 -0.15845 0)
(-0.210126 -0.104474 0)
(-0.246268 -0.0725995 0)
(-0.238729 -0.0516934 0)
(-0.00673943 -0.268629 0)
(-0.00514342 -0.276835 0)
(-0.0193452 -0.270497 0)
(-0.0176604 -0.275485 0)
(-0.0311554 -0.270477 0)
(-0.0508346 -0.335781 0)
(-0.120691 -0.285134 0)
(-0.125401 -0.255408 0)
(-0.0937035 -0.240877 0)
(-0.043326 -0.220886 0)
(-0.0475309 -0.239472 0)
(-0.0604839 -0.190203 0)
(-0.132018 -0.176495 0)
(-0.184769 -0.185613 0)
(-0.185791 -0.16969 0)
(-0.168433 -0.148183 0)
(-0.0998047 -0.16111 0)
(-0.0856182 -0.143571 0)
(-0.107006 -0.195169 0)
(-0.0894866 -0.103305 0)
(-0.149255 -0.126359 0)
(-0.222903 -0.0254088 0)
(-0.244152 -0.0534455 0)
(-0.00686955 -0.266288 0)
(-0.0059582 -0.272453 0)
(-0.0246972 -0.265369 0)
(-0.0289262 -0.270558 0)
(-0.0860506 -0.256715 0)
(-0.0400136 -0.257274 0)
(0.00850891 -0.265011 0)
(-0.0553551 -0.183626 0)
(-0.0342593 -0.174945 0)
(-0.0676283 -0.187987 0)
(-0.0593174 -0.209248 0)
(-0.068768 -0.198501 0)
(-0.137035 -0.214258 0)
(-0.159481 -0.172981 0)
(-0.144353 -0.161273 0)
(-0.149425 -0.123411 0)
(-0.148779 -0.131503 0)
(-0.133501 -0.135404 0)
(-0.0633339 -0.135234 0)
(-0.0677061 -0.125688 0)
(-0.156233 -0.149203 0)
(-0.210403 -0.0606826 0)
(-0.257121 -0.0164799 0)
(-0.0073872 -0.264208 0)
(0.00359972 -0.268668 0)
(-0.019197 -0.259159 0)
(-0.00177217 -0.239398 0)
(-0.0320968 -0.185371 0)
(-0.0354542 -0.194188 0)
(0.00843669 -0.223692 0)
(-0.0660782 -0.245772 0)
(-0.0951664 -0.220424 0)
(-0.0912714 -0.222822 0)
(-0.0735205 -0.232022 0)
(-0.0534793 -0.242243 0)
(-0.0923446 -0.217509 0)
(-0.131077 -0.182506 0)
(-0.131269 -0.164242 0)
(-0.161998 -0.143373 0)
(-0.108654 -0.133288 0)
(-0.0856132 -0.101674 0)
(-0.107893 -0.109747 0)
(-0.116608 -0.125443 0)
(-0.112271 -0.099549 0)
(-0.0967727 -0.110251 0)
(-0.198067 -0.00472075 0)
(-0.00421985 -0.263594 0)
(0.00457643 -0.264465 0)
(-0.0114792 -0.270763 0)
(0.0329984 -0.244275 0)
(-0.031205 -0.288072 0)
(-0.0848131 -0.245303 0)
(-0.0521284 -0.266058 0)
(-0.0426237 -0.276625 0)
(-0.033856 -0.245406 0)
(-0.0714831 -0.223707 0)
(-0.0713203 -0.259246 0)
(-0.0657136 -0.203138 0)
(-0.0946472 -0.176105 0)
(-0.114583 -0.154751 0)
(-0.115341 -0.15508 0)
(-0.1159 -0.132152 0)
(-0.119663 -0.101326 0)
(-0.115494 -0.131212 0)
(-0.0826753 -0.0965653 0)
(-0.0600098 -0.114046 0)
(-0.107201 -0.0567004 0)
(-0.0677274 -0.0749697 0)
(-0.162361 -0.0697066 0)
(-0.00164735 -0.262052 0)
(-0.00301807 -0.263941 0)
(-0.00539119 -0.27022 0)
(-0.0101311 -0.240739 0)
(-0.0161014 -0.323879 0)
(-0.0353977 -0.253877 0)
(-0.0317947 -0.255871 0)
(-0.0511599 -0.223773 0)
(-0.0612383 -0.232585 0)
(-0.0875836 -0.174878 0)
(-0.0363492 -0.206195 0)
(0.0343247 -0.206736 0)
(-0.0504271 -0.192456 0)
(-0.109312 -0.177733 0)
(-0.120418 -0.157924 0)
(-0.10253 -0.139891 0)
(-0.119215 -0.121492 0)
(-0.0742093 -0.113241 0)
(-0.0810337 -0.075675 0)
(-0.0677502 -0.0776636 0)
(-0.0667962 -0.0725303 0)
(-0.0598676 -0.040058 0)
(-0.103128 -0.101253 0)
(-0.0030186 -0.261112 0)
(-0.00607239 -0.265137 0)
(-0.00581441 -0.261813 0)
(-0.00711736 -0.23242 0)
(-0.0213619 -0.256583 0)
(-0.0307142 -0.254424 0)
(-0.0259136 -0.256021 0)
(-0.0250246 -0.235749 0)
(0.00927145 -0.231225 0)
(-0.0209655 -0.218441 0)
(-0.0804438 -0.179612 0)
(-0.0633817 -0.202555 0)
(-0.0642481 -0.217543 0)
(-0.0653575 -0.192889 0)
(-0.0726508 -0.159969 0)
(-0.0689048 -0.136773 0)
(-0.093266 -0.118592 0)
(-0.076445 -0.0832196 0)
(-0.0520582 -0.0926687 0)
(-0.0610721 -0.0496166 0)
(-0.0676196 -0.0542839 0)
(-0.0714662 -0.0309663 0)
(-0.0731195 -0.0795596 0)
(-0.00106585 -0.256435 0)
(-0.00675238 -0.263488 0)
(-0.00532272 -0.262263 0)
(-0.0125451 -0.235231 0)
(-0.020262 -0.26524 0)
(-0.0243653 -0.262352 0)
(-0.0227531 -0.32019 0)
(-0.0278212 -0.250079 0)
(-0.0443701 -0.239577 0)
(-0.0307721 -0.279424 0)
(-0.0236097 -0.219637 0)
(-0.0330471 -0.211073 0)
(-0.0344647 -0.190115 0)
(-0.0529897 -0.175189 0)
(-0.0584849 -0.150734 0)
(-0.0603242 -0.126675 0)
(-0.0618492 -0.109181 0)
(-0.0641186 -0.0708087 0)
(-0.0446195 -0.0845185 0)
(-0.0260501 -0.0574255 0)
(-0.0417952 -0.0615854 0)
(-0.0724769 -0.0262891 0)
(-0.0148887 -0.0455823 0)
(-0.00624123 -0.267188 0)
(-0.0204131 -0.26832 0)