/*--------------------------------*- C++ -*----------------------------------*\
| =========                 |                                                 |
| \\      /  F ield         | foam-extend: Open Source CFD                    |
|  \\    /   O peration     | Version:     4.1                                |
|   \\  /    A nd           | Web:         http://www.foam-extend.org         |
|    \\/     M anipulation  |                                                 |
\*---------------------------------------------------------------------------*/
FoamFile
{
    version     2.0;
    format      ascii;
    class       volVectorField;
    location    "0.1";
    object      U_0;
}
// * * * * * * * * * * * * * * * * * * * * * * * * * * * * * * * * * * * * * //

dimensions      [0 1 -1 0 0 0 0];

internalField   nonuniform List<vector> 
2268
(
(0.0417554 -0.0105985 0)
(0.122757 -0.0105482 0)
(0.209135 -0.0110602 0)
(0.290209 -0.0103745 0)
(0.377681 -0.0119152 0)
(0.468843 -0.0103473 0)
(0.540274 -0.0120769 0)
(0.662801 -0.0116376 0)
(0.693009 -0.0147621 0)
(0.823274 -0.0106102 0)
(0.763614 -0.0521492 0)
(0.767096 -0.0212232 0)
(0.868725 -0.0185978 0)
(0.975895 -0.0297957 0)
(1.10017 -0.0299019 0)
(1.24161 -0.0509775 0)
(1.33362 -0.00975199 0)
(1.3974 -0.00437856 0)
(1.42327 -0.00671107 0)
(1.4509 -0.0115737 0)
(1.52995 -0.0150595 0)
(1.64309 0.0229524 0)
(1.691 0.281252 0)
(0.0418802 -0.0318553 0)
(0.122849 -0.0317057 0)
(0.209706 -0.0332651 0)
(0.290523 -0.0311001 0)
(0.378612 -0.0361616 0)
(0.46962 -0.0300836 0)
(0.542825 -0.0380658 0)
(0.656215 -0.0303263 0)
(0.705441 -0.0236764 0)
(0.816499 -0.0223089 0)
(0.74533 -0.19676 0)
(0.741953 -0.0975976 0)
(0.850811 -0.0785799 0)
(0.963742 -0.0963386 0)
(1.08404 -0.0997752 0)
(1.23014 -0.140401 0)
(1.31607 -0.0788701 0)
(1.37145 -0.0257453 0)
(1.43164 -0.0272126 0)
(1.53543 -0.0316151 0)
(1.65343 -0.00816873 0)
(1.75493 0.122006 0)
(1.68983 1.05587 0)
(0.0419266 -0.0530853 0)
(0.122419 -0.0528483 0)
(0.209864 -0.055461 0)
(0.289602 -0.0518328 0)
(0.378929 -0.0602039 0)
(0.468903 -0.0508711 0)
(0.543691 -0.0612328 0)
(0.659097 -0.058452 0)
(0.738781 -0.0475538 0)
(0.708834 -0.122063 0)
(0.702883 -0.237492 0)
(0.727202 -0.144199 0)
(0.839945 -0.12754 0)
(0.94618 -0.154816 0)
(1.06396 -0.153417 0)
(1.21913 -0.259263 0)
(1.31952 -0.177352 0)
(1.38034 -0.106152 0)
(1.45669 -0.0772665 0)
(1.59549 -0.0625297 0)
(1.72087 0.0103457 0)
(1.77927 0.261815 0)
(1.1529 2.81038 0)
(0.0419997 -0.0743128 0)
(0.121798 -0.0740096 0)
(0.210125 -0.0777073 0)
(0.288422 -0.0724608 0)
(0.378743 -0.0845383 0)
(0.471001 -0.071582 0)
(0.532235 -0.0857202 0)
(0.6879 -0.088418 0)
(0.656547 -0.10092 0)
(0.651565 -0.208413 0)
(0.687914 -0.214943 0)
(0.725943 -0.169656 0)
(0.838304 -0.182024 0)
(0.948337 -0.20248 0)
(1.03206 -0.218957 0)
(1.18421 -0.262433 0)
(1.33983 -0.274696 0)
(1.41116 -0.223526 0)
(1.53828 -0.15879 0)
(1.67974 -0.0840197 0)
(1.79512 0.0558396 0)
(1.63654 0.541036 0)
(0.2812 3.81383 0)
(0.0420848 -0.0953704 0)
(0.120943 -0.0950408 0)
(0.210534 -0.0998871 0)
(0.28658 -0.092577 0)
(0.379986 -0.110601 0)
(0.464636 -0.0859342 0)
(0.550304 -0.124124 0)
(0.668689 -0.0793801 0)
(0.61597 -0.251068 0)
(0.61581 -0.213649 0)
(0.654598 -0.227911 0)
(0.721254 -0.228815 0)
(0.838452 -0.238016 0)
(0.939606 -0.24832 0)
(1.03598 -0.27177 0)
(1.1531 -0.235747 0)
(1.30207 -0.325392 0)
(1.46807 -0.3069 0)
(1.62728 -0.247943 0)
(1.7896 -0.0924491 0)
(1.79165 0.151498 0)
(1.00083 0.985124 0)
(-0.0727514 3.77611 0)
(0.0421687 -0.116377 0)
(0.119839 -0.116109 0)
(0.211168 -0.121933 0)
(0.283666 -0.113659 0)
(0.383021 -0.132939 0)
(0.455296 -0.11525 0)
(0.585531 -0.145483 0)
(0.572498 -0.141361 0)
(0.546561 -0.27694 0)
(0.585136 -0.241347 0)
(0.655244 -0.261573 0)
(0.730136 -0.273677 0)
(0.834223 -0.282905 0)
(0.931768 -0.295358 0)
(1.02205 -0.307532 0)
(1.12629 -0.32577 0)
(1.28603 -0.326854 0)
(1.50643 -0.39214 0)
(1.73605 -0.314544 0)
(1.92272 0.00453771 0)
(1.33945 0.454155 0)
(0.431117 1.41277 0)
(-0.114503 3.74202 0)
(0.0422254 -0.13769 0)
(0.118549 -0.137537 0)
(0.211545 -0.144201 0)
(0.281989 -0.133002 0)
(0.379445 -0.157276 0)
(0.465839 -0.145034 0)
(0.546815 -0.139039 0)
(0.523687 -0.28247 0)
(0.518789 -0.286953 0)
(0.577362 -0.269071 0)
(0.652522 -0.29121 0)
(0.725737 -0.318242 0)
(0.822673 -0.330092 0)
(0.910543 -0.337943 0)
(1.00689 -0.359579 0)
(1.11411 -0.385695 0)
(1.27374 -0.388454 0)
(1.51052 -0.436729 0)
(1.96929 -0.299739 0)
(2.08603 -0.0048984 0)
(1.18086 0.61932 0)
(0.360784 1.57608 0)
(0.0681333 3.73204 0)
(0.042248 -0.156543 0)
(0.117062 -0.157045 0)
(0.213048 -0.165618 0)
(0.280559 -0.157323 0)
(0.378826 -0.197351 0)
(0.487419 -0.132715 0)
(0.451631 -0.217611 0)
(0.478637 -0.316825 0)
(0.504375 -0.305183 0)
(0.579786 -0.301184 0)
(0.649299 -0.326267 0)
(0.722935 -0.354436 0)
(0.811523 -0.364066 0)
(0.895334 -0.376589 0)
(0.994177 -0.402336 0)
(1.09307 -0.441386 0)
(1.25865 -0.463875 0)
(1.52884 -0.378723 0)
(2.30605 -0.159447 0)
(1.98797 -0.0539254 0)
(0.833672 1.00759 0)
(0.437973 1.91885 0)
(0.125558 3.53541 0)
(0.000263002 -0.00530059 0)
(0.0417661 -0.0139443 0)
(0.10278 -0.00876374 0)
(0.145649 -0.00690582 0)
(0.169865 -0.00216904 0)
(0.172284 8.2178e-05 0)
(0.172413 0.00115785 0)
(0.166961 0.00202971 0)
(0.158614 0.00337036 0)
(0.148125 0.00350865 0)
(0.141479 0.00332375 0)
(0.129736 0.00586734 0)
(0.114671 0.0055926 0)
(0.139123 0.0221376 0)
(0.132193 0.00510102 0)
(0.0797969 0.00409349 0)
(0.0579676 0.00289376 0)
(0.0324172 0.00262814 0)
(0.0108418 0.00246211 0)
(-0.00144583 -0.0290936 0)
(0.045793 -0.0777463 0)
(0.107389 -0.0334362 0)
(0.154569 -0.0239498 0)
(0.179707 -0.00779253 0)
(0.182318 -0.00155984 0)
(0.18158 0.00430794 0)
(0.174881 0.00758953 0)
(0.166475 0.0108887 0)
(0.154997 0.0104352 0)
(0.14894 0.0105377 0)
(0.135914 0.0136685 0)
(0.128172 -0.0100575 0)
(0.144242 0.046255 0)
(0.129542 0.0110967 0)
(0.0820948 0.0115072 0)
(0.0598537 0.00853073 0)
(0.0336868 0.00794542 0)
(0.0112549 0.0074877 0)
(-0.0154083 -0.041084 0)
(0.0448281 -0.0858134 0)
(0.130324 -0.0553313 0)
(0.162583 -0.0382106 0)
(0.186147 -0.0131433 0)
(0.186158 -0.00260831 0)
(0.18466 0.00850824 0)
(0.176887 0.014237 0)
(0.167276 0.01924 0)
(0.155052 0.0189408 0)
(0.149497 0.0188392 0)
(0.126402 0.0239832 0)
(0.134877 0.00619391 0)
(0.155954 0.0506973 0)
(0.121273 0.0182674 0)
(0.0824353 0.0184858 0)
(0.0590453 0.0143038 0)
(0.0334974 0.0134025 0)
(0.0111654 0.0126705 0)
(-0.0094787 -0.0384552 0)
(0.0424084 -0.0833672 0)
(0.129256 -0.080503 0)
(0.172685 -0.0510309 0)
(0.194329 -0.0152434 0)
(0.191595 -0.0018017 0)
(0.188856 0.0133381 0)
(0.179577 0.0208407 0)
(0.168635 0.0285717 0)
(0.155011 0.023982 0)
(0.150118 0.0338566 0)
(0.13206 0.0195052 0)
(0.137898 0.0699889 0)
(0.152839 0.050025 0)
(0.114882 0.0282182 0)
(0.0814846 0.0249939 0)
(0.0578186 0.020118 0)
(0.0330982 0.0187522 0)
(0.0110072 0.0177756 0)
(-0.0100512 -0.0587386 0)
(0.0553031 -0.145301 0)
(0.140464 -0.110394 0)
(0.189921 -0.0677137 0)
(0.206222 -0.0203343 0)
(0.198127 9.57705e-06 0)
(0.194171 0.0199209 0)
(0.183318 0.0304602 0)
(0.168462 0.0388028 0)
(0.157638 0.0398662 0)
(0.145077 0.0292661 0)
(0.142458 0.0466442 0)
(0.149844 0.091452 0)
(0.140391 0.0546391 0)
(0.108207 0.0356611 0)
(0.0795876 0.0306884 0)
(0.0564242 0.0256723 0)
(0.0325795 0.0239203 0)
(0.010817 0.0227648 0)
(0.0400309 -0.0503992 0)
(0.107364 -0.158309 0)
(0.160343 -0.139283 0)
(0.21352 -0.0784213 0)
(0.222301 -0.0248767 0)
(0.20843 0.00576781 0)
(0.201609 0.0278967 0)
(0.187464 0.0387786 0)
(0.171919 0.0508602 0)
(0.150417 0.0322612 0)
(0.15379 0.0574112 0)
(0.157032 0.0908976 0)
(0.141178 0.0838741 0)
(0.131393 0.0576258 0)
(0.103861 0.0425371 0)
(0.0773006 0.0361326 0)
(0.0549614 0.031114 0)
(0.0319541 0.0290271 0)
(0.0105996 0.0277183 0)
(0.174184 -0.175826 0)
(0.197152 -0.207007 0)
(0.205323 -0.150597 0)
(0.234499 -0.103797 0)
(0.236313 -0.0287736 0)
(0.219524 0.0123457 0)
(0.207967 0.0401785 0)
(0.193964 0.0560592 0)
(0.16214 0.0707014 0)
(0.161951 0.0701016 0)
(0.169665 0.104648 0)
(0.151851 0.087677 0)
(0.136439 0.0923172 0)
(0.122378 0.062297 0)
(0.0997309 0.0485834 0)
(0.0748027 0.041268 0)
(0.0534254 0.0362696 0)
(0.0312439 0.0339425 0)
(0.0103614 0.0325187 0)
(0.195277 -0.198434 0)
(0.267491 -0.248511 0)
(0.258008 -0.166283 0)
(0.260236 -0.0887414 0)
(0.267236 -0.012605 0)
(0.227344 0.0271417 0)
(0.212737 0.0516622 0)
(0.194259 0.0705978 0)
(0.173437 0.0809252 0)
(0.162463 0.115001 0)
(0.161694 0.0956149 0)
(0.151585 0.0940005 0)
(0.129546 0.107263 0)
(0.111975 0.0661892 0)
(0.0958631 0.0544458 0)
(0.072137 0.0463455 0)
(0.0518734 0.0413488 0)
(0.0304855 0.0388305 0)
(0.0101124 0.0373043 0)
(0.0416822 -0.192618 0)
(0.112726 -0.192244 0)
(0.209604 -0.200582 0)
(0.261175 -0.165753 0)
(0.40254 -0.213524 0)
(0.391389 -0.249542 0)
(0.396835 -0.316154 0)
(0.462687 -0.327282 0)
(0.509754 -0.345816 0)
(0.57072 -0.355385 0)
(0.643086 -0.378497 0)
(0.717474 -0.418281 0)
(0.804249 -0.437659 0)
(0.885114 -0.459498 0)
(0.967239 -0.465841 0)
(1.05272 -0.549252 0)
(1.24289 -0.573165 0)
(1.57511 -0.266224 0)
(1.93678 -0.016558 0)
(1.08613 0.381815 0)
(0.293327 1.33625 0)
(0.411241 1.95983 0)
(0.876939 3.04387 0)
(0.0418805 -0.22641 0)
(0.109099 -0.233826 0)
(0.234952 -0.237658 0)
(0.252799 -0.277644 0)
(0.264275 -0.278964 0)
(0.338983 -0.35705 0)
(0.393262 -0.334795 0)
(0.434943 -0.381205 0)
(0.490406 -0.408746 0)
(0.550624 -0.419409 0)
(0.612796 -0.450052 0)
(0.692308 -0.50416 0)
(0.770255 -0.494922 0)
(0.869272 -0.497021 0)
(0.88284 -0.635327 0)
(0.818402 -0.721072 0)
(1.07016 -0.706948 0)
(1.71199 0.0223616 0)
(0.983979 0.237624 0)
(0.307477 0.715516 0)
(0.061831 1.26252 0)
(0.415264 1.79793 0)
(1.11133 2.24194 0)
(0.0310544 -0.27988 0)
(0.0879886 -0.290502 0)
(0.152541 -0.294316 0)
(0.203583 -0.358816 0)
(0.261692 -0.347801 0)
(0.314887 -0.372793 0)
(0.359963 -0.40451 0)
(0.412219 -0.429259 0)
(0.464846 -0.464563 0)
(0.526123 -0.480957 0)
(0.579249 -0.530602 0)
(0.692635 -0.584476 0)
(0.785032 -0.576212 0)
(0.704019 -0.705729 0)
(0.657902 -0.887135 0)
(0.837803 -0.889073 0)
(1.2041 -0.392918 0)
(0.916004 0.219856 0)
(0.256321 0.568481 0)
(-0.0938014 0.963124 0)
(0.0791585 1.30571 0)
(0.600093 1.50851 0)
(0.680148 1.36367 0)
(0.0291143 -0.346748 0)
(0.0838067 -0.353113 0)
(0.144892 -0.362251 0)
(0.194473 -0.38319 0)
(0.236142 -0.392733 0)
(0.284793 -0.429027 0)
(0.336413 -0.447776 0)
(0.377486 -0.480442 0)
(0.433684 -0.518662 0)
(0.480649 -0.543037 0)
(0.540842 -0.620464 0)
(0.649286 -0.668005 0)
(0.634442 -0.747136 0)
(0.560714 -0.895186 0)
(0.653804 -0.905973 0)
(1.06953 -0.888583 0)
(1.3996 -0.240713 0)
(0.455595 0.452254 0)
(0.109756 0.750319 0)
(0.0179353 1.01082 0)
(0.170664 1.34401 0)
(0.374071 1.26911 0)
(0.402686 1.10037 0)
(0.0252959 -0.395731 0)
(0.074694 -0.402368 0)
(0.124738 -0.411696 0)
(0.169945 -0.433596 0)
(0.217967 -0.450677 0)
(0.263243 -0.471326 0)
(0.307799 -0.496217 0)
(0.346369 -0.527602 0)
(0.396498 -0.562489 0)
(0.42694 -0.596148 0)
(0.481152 -0.670175 0)
(0.510574 -0.721502 0)
(0.550771 -0.850641 0)
(0.547583 -0.878969 0)
(0.579298 -0.860852 0)
(0.724986 -0.72806 0)
(0.624588 0.160013 0)
(0.0585294 0.712023 0)
(0.0191666 0.888663 0)
(0.110555 0.88132 0)
(0.242487 1.06833 0)
(0.331811 1.01085 0)
(0.423137 0.950691 0)
(0.0228213 -0.446299 0)
(0.0679189 -0.451659 0)
(0.113372 -0.460802 0)
(0.156924 -0.475415 0)
(0.198118 -0.490179 0)
(0.238264 -0.514188 0)
(0.279713 -0.535885 0)
(0.314226 -0.569444 0)
(0.358211 -0.598616 0)
(0.378463 -0.635729 0)
(0.420927 -0.70291 0)
(0.446782 -0.755528 0)
(0.475672 -0.827142 0)
(0.472202 -0.910202 0)
(0.505826 -0.932445 0)
(0.545293 -0.579274 0)
(0.132486 0.521217 0)
(-0.0718163 0.809339 0)
(-0.0296092 0.82954 0)
(0.131826 0.940381 0)
(0.316322 0.9223 0)
(0.296441 0.910576 0)
(0.351594 0.848503 0)
(0.0203645 -0.488009 0)
(0.0606663 -0.493106 0)
(0.100803 -0.502148 0)
(0.13982 -0.516278 0)
(0.17891 -0.532963 0)
(0.217774 -0.552626 0)
(0.252713 -0.572373 0)
(0.28651 -0.603021 0)
(0.32001 -0.621683 0)
(0.326735 -0.658961 0)
(0.359702 -0.72417 0)
(0.367074 -0.785194 0)
(0.398892 -0.867811 0)
(0.413816 -0.93873 0)
(0.450393 -0.933232 0)
(0.292048 -0.210822 0)
(-0.233125 0.558415 0)
(-0.152163 0.775699 0)
(0.0341119 0.869295 0)
(0.250157 0.980513 0)
(0.238652 0.889148 0)
(0.247167 0.845778 0)
(0.342627 0.767592 0)
(0.0180475 -0.526704 0)
(0.0539669 -0.531595 0)
(0.0898379 -0.540209 0)
(0.125788 -0.553435 0)
(0.16104 -0.568451 0)
(0.197535 -0.589261 0)
(0.229899 -0.606045 0)
(0.267926 -0.635904 0)
(0.289696 -0.652151 0)
(0.281359 -0.686812 0)
(0.291817 -0.746213 0)
(0.283573 -0.811957 0)
(0.328764 -0.897171 0)
(0.343043 -0.957684 0)
(0.372832 -0.861171 0)
(-0.208067 0.358069 0)
(-0.304346 0.798744 0)
(0.0193452 0.869969 0)
(0.158177 1.00803 0)
(0.161023 0.917037 0)
(0.147851 0.850021 0)
(0.180004 0.800228 0)
(0.162629 0.740438 0)
(0.0157568 -0.561714 0)
(0.0472074 -0.566472 0)
(0.0782785 -0.575202 0)
(0.1103 -0.589298 0)
(0.141458 -0.604529 0)
(0.177915 -0.625156 0)
(0.206125 -0.637899 0)
(0.244216 -0.663676 0)
(0.251533 -0.657449 0)
(0.236049 -0.695598 0)
(0.229558 -0.749763 0)
(0.194986 -0.839733 0)
(0.264469 -0.941263 0)
(0.287187 -0.994251 0)
(0.272438 -0.527876 0)
(-0.291391 0.452917 0)
(-0.0823205 0.963284 0)
(-0.0214768 0.929101 0)
(0.0603886 0.913814 0)
(0.0831646 0.851949 0)
(0.121363 0.831752 0)
(0.14634 0.79649 0)
(0.162808 0.743777 0)
(0.0134166 -0.589083 0)
(0.0403866 -0.594343 0)
(0.0664956 -0.603001 0)
(0.0952656 -0.617743 0)
(0.122946 -0.633584 0)
(0.161869 -0.654465 0)
(0.18441 -0.666106 0)
(0.240516 -0.687585 0)
(0.229581 -0.602669 0)
(0.206734 -0.62575 0)
(0.182154 -0.685114 0)
(0.0863324 -0.88672 0)
(0.165009 -0.992834 0)
(0.160366 -0.999487 0)
(0.0730811 -0.00578646 0)
(-0.256218 0.576211 0)
(0.124263 0.788464 0)
(-0.0265531 0.80773 0)
(0.0656053 0.807472 0)
(0.0670417 0.802808 0)
(0.0873834 0.774725 0)
(0.10053 0.746541 0)
(0.124746 0.700727 0)
(0.0106191 -0.6152 0)
(0.0338904 -0.61996 0)
(0.0561268 -0.628735 0)
(0.081066 -0.645719 0)
(0.10464 -0.669003 0)
(0.143161 -0.695955 0)
(0.170522 -0.73936 0)
(0.282551 -0.745144 0)
(0.304958 -0.821202 0)
(0.175095 -0.877493 0)
(0.0230957 -0.92287 0)
(-0.00708604 -0.916718 0)
(0.0512539 -0.992079 0)
(0.0346152 -0.881648 0)
(0.47377 0.03332 0)
(-0.045881 0.856643 0)
(0.0904335 0.745594 0)
(0.0144965 0.802903 0)
(0.0521683 0.788198 0)
(0.0494416 0.780679 0)
(0.0631426 0.761606 0)
(0.0646318 0.73567 0)
(0.0672066 0.694405 0)
(0.00927147 -0.631578 0)
(0.0288378 -0.637324 0)
(0.0433373 -0.652454 0)
(0.0612142 -0.666812 0)
(0.0808499 -0.68968 0)
(0.0963737 -0.721038 0)
(0.11353 -0.769178 0)
(0.119212 -0.808896 0)
(0.148536 -0.948463 0)
(0.107751 -0.973722 0)
(0.0935268 -1.04277 0)
(0.0657443 -0.936557 0)
(0.0572467 -0.981148 0)
(0.102128 -0.858547 0)
(0.194818 0.233831 0)
(-0.0185452 0.901621 0)
(0.062745 0.773295 0)
(0.0267124 0.793319 0)
(0.0442619 0.776534 0)
(0.0355154 0.758111 0)
(0.0459414 0.75745 0)
(0.0321885 0.740575 0)
(0.0904821 0.739397 0)
(0.00725333 -0.663092 0)
(0.0155286 -0.670486 0)
(0.0271066 -0.682126 0)
(0.0467445 -0.686488 0)
(0.0584573 -0.706494 0)
(0.0647191 -0.731379 0)
(0.0863262 -0.754953 0)
(0.0672124 -0.775167 0)
(0.0987917 -0.873806 0)
(0.0742023 -0.889948 0)
(0.0789879 -0.905224 0)
(0.0451294 -0.871126 0)
(-0.0394859 -0.961148 0)
(0.0305922 -1.04245 0)
(-0.510492 0.337315 0)
(0.0202944 0.772573 0)
(-0.00951919 0.749468 0)
(0.0271572 0.775431 0)
(0.0176143 0.777032 0)
(0.026777 0.76387 0)
(0.0379871 0.746764 0)
(0.0432198 0.756145 0)
(0.00594609 0.665409 0)
(0.00276523 -0.683467 0)
(0.00698588 -0.687188 0)
(0.0207939 -0.691778 0)
(0.0331193 -0.702412 0)
(0.0305901 -0.723359 0)
(0.0420961 -0.746932 0)
(0.0569071 -0.784514 0)
(0.00657628 -0.837635 0)
(0.0611998 -0.984433 0)
(0.0789143 -0.937857 0)
(0.136747 -0.917301 0)
(0.00217262 -0.97779 0)
(-0.340783 -0.986569 0)
(-0.294502 -1.04237 0)
(-0.145297 0.0804551 0)
(0.234056 0.618484 0)
(0.093803 0.708247 0)
(0.0479798 0.765709 0)
(0.0333603 0.776496 0)
(0.0130963 0.746383 0)
(0.0394576 0.783048 0)
(-0.0387155 0.658475 0)
(-0.18536 0.481075 0)
(0.00240439 -0.688545 0)
(0.00758376 -0.69204 0)
(0.0172227 -0.692372 0)
(0.0152316 -0.70997 0)
(0.014834 -0.727106 0)
(0.0150162 -0.747234 0)
(0.0086318 -0.778663 0)
(-0.0693763 -0.825346 0)
(-0.00796611 -0.765088 0)
(0.163195 -0.952597 0)
(0.0863612 -0.951891 0)
(0.0391812 -1.03864 0)
(0.0531014 -0.983251 0)
(0.076169 -0.811071 0)
(0.467524 -0.544238 0)
(0.443159 0.603744 0)
(0.141009 0.84843 0)
(0.105988 0.857089 0)
(-0.00873249 0.91162 0)
(0.0242555 0.799021 0)
(-0.0477345 0.71266 0)
(-0.248893 0.47565 0)
(-0.14518 0.501513 0)
(0.00173673 -0.687022 0)
(0.00566073 -0.68986 0)
(0.00674355 -0.695115 0)
(0.00946546 -0.714137 0)
(0.0114396 -0.71529 0)
(0.00435756 -0.731498 0)
(0.000476006 -0.766743 0)
(-0.0281599 -0.785078 0)
(-0.0696399 -0.624057 0)
(-0.0465333 -0.740309 0)
(0.112901 -0.929997 0)
(0.0796275 -0.968558 0)
(0.152708 -0.962679 0)
(0.30843 -0.798021 0)
(0.168451 -0.372002 0)
(0.162722 1.02991 0)
(0.108475 1.09898 0)
(0.0107847 1.07087 0)
(-0.0381119 0.826497 0)
(-0.229205 0.682235 0)
(-0.265439 0.492677 0)
(-0.256166 0.496293 0)
(-0.183286 0.489943 0)
(0.00241441 -0.714959 0)
(0.00754559 -0.721966 0)
(0.0149954 -0.735225 0)
(0.0182706 -0.694639 0)
(0.0116441 -0.712535 0)
(-0.0105613 -0.735015 0)
(-0.0095549 -0.791584 0)
(-0.0287507 -0.79259 0)
(-0.0377568 -0.69239 0)
(-0.0634716 -0.542175 0)
(-0.0401085 -0.933355 0)
(0.135868 -1.10935 0)
(0.242518 -1.1401 0)
(0.3592 -0.865101 0)
(0.368036 -0.477027 0)
(0.0473959 0.565135 0)
(-0.183621 1.29509 0)
(-0.172837 0.960216 0)
(-0.343437 0.602281 0)
(-0.26013 0.491844 0)
(-0.246997 0.464544 0)
(-0.240652 0.469948 0)
(-0.201912 0.439835 0)
(-0.0100281 -0.645602 0)
(-0.0304855 -0.660581 0)
(-0.014073 -0.689114 0)
(-0.00714622 -0.655357 0)
(-0.0360419 -0.64318 0)
(-0.121181 -0.643731 0)
(-0.131446 -0.679343 0)
(-0.116177 -0.662079 0)
(-0.0777968 -0.629647 0)
(0.108821 -0.575372 0)
(0.223148 -0.644741 0)
(0.207695 -1.30468 0)
(0.265721 -0.956707 0)
(-0.0861233 -0.581234 0)
(0.0130254 -0.297701 0)
(-0.260415 0.807765 0)
(-0.56524 1.06187 0)
(-0.511794 0.649437 0)
(-0.357058 0.629931 0)
(-0.320935 0.51784 0)
(-0.296389 0.470461 0)
(-0.265215 0.444117 0)
(-0.229389 0.416088 0)
(-0.0596681 -0.908907 0)
(-0.166331 -0.891688 0)
(-0.136672 -0.742937 0)
(-0.10603 -0.873811 0)
(-0.257359 -0.985869 0)
(-0.440981 -0.939176 0)
(-0.449834 -0.945845 0)
(-0.452984 -0.904401 0)
(-0.404318 -1.00952 0)
(-0.324025 -1.04492 0)
(-0.0586037 -1.34205 0)
(-0.122906 -1.31079 0)
(-0.306734 -1.32438 0)
(-0.4788 -0.675895 0)
(-0.235868 -0.0688679 0)
(-0.813394 0.859595 0)
(-0.948107 0.901542 0)
(-0.546673 0.647414 0)
(-0.376329 0.555572 0)
(-0.369454 0.462905 0)
(-0.323495 0.422618 0)
(-0.279829 0.393577 0)
(-0.23889 0.370178 0)
(-0.0376453 -1.13931 0)
(0.0311399 -1.11204 0)
(-0.108879 -1.05319 0)
(-0.300369 -1.11551 0)
(-0.290515 -1.20805 0)
(-0.387702 -1.15962 0)
(-0.346577 -1.18171 0)
(-0.465896 -1.13111 0)
(-0.454413 -1.16835 0)
(-0.412418 -1.22526 0)
(-0.547644 -1.23327 0)
(-0.877051 -1.14793 0)
(-1.03696 -0.792799 0)
(-0.840563 -0.240423 0)
(-0.779537 0.293356 0)
(-1.1213 0.752291 0)
(-1.14535 0.786699 0)
(-0.666607 0.636933 0)
(-0.546865 0.50056 0)
(-0.454273 0.42 0)
(-0.382666 0.382331 0)
(-0.326832 0.354024 0)
(-0.27602 0.327378 0)
(-0.02133 -1.00353 0)
(-0.0604738 -1.00833 0)
(-0.15239 -1.13283 0)
(-0.266915 -1.06635 0)
(-0.306912 -1.08483 0)
(-0.444725 -1.02831 0)
(-0.430821 -0.937116 0)
(-0.47014 -0.996401 0)
(-0.516344 -0.838578 0)
(-0.574589 -0.972984 0)
(-0.703027 -1.04667 0)
(-1.02642 -1.08844 0)
(-1.11513 -0.532551 0)
(-1.0751 -0.11775 0)
(-1.08113 0.206146 0)
(-1.17645 0.441396 0)
(-1.15045 0.548074 0)
(-0.770548 0.435773 0)
(-0.601687 0.395743 0)
(-0.509465 0.377514 0)
(-0.414009 0.352187 0)
(-0.350569 0.33179 0)
(-0.295873 0.312607 0)
(-0.0307866 -0.956961 0)
(-0.0693407 -0.978476 0)
(-0.159298 -1.01077 0)
(-0.307178 -1.05994 0)
(-0.276069 -1.03703 0)
(-0.266509 -0.970595 0)
(-0.37934 -0.828596 0)
(-0.342518 -0.776888 0)
(-0.417605 -0.737773 0)
(-0.672767 -0.850859 0)
(-0.771825 -0.878079 0)
(-0.872227 -0.6293 0)
(-1.02244 -0.436462 0)
(-0.974079 -0.274627 0)
(-0.880286 -0.0192567 0)
(-1.07707 0.142893 0)
(-1.09109 0.30478 0)
(-0.764459 0.275576 0)
(-0.639178 0.345073 0)
(-0.508495 0.314106 0)
(-0.435895 0.297309 0)
(-0.370462 0.290767 0)
(-0.314479 0.281972 0)
(-0.0328129 -0.868108 0)
(-0.0901962 -0.868257 0)
(-0.224332 -0.897629 0)
(-0.290258 -0.855727 0)
(-0.247941 -0.686177 0)
(-0.277018 -0.800696 0)
(-0.196959 -0.652175 0)
(-0.316623 -0.579847 0)
(-0.510449 -0.656103 0)
(-0.6335 -0.773458 0)
(-0.589472 -0.58697 0)
(-0.532565 -0.550556 0)
(-0.68951 -0.346333 0)
(-0.710578 -0.209089 0)
(-0.644525 -0.136665 0)
(-0.900116 -0.0522551 0)
(-1.00767 0.241128 0)
(-0.723644 0.260465 0)
(-0.610753 0.235911 0)
(-0.531262 0.286154 0)
(-0.440675 0.276237 0)
(-0.368869 0.268354 0)
(-0.317297 0.250644 0)
(-0.0364977 -0.893442 0)
(-0.148153 -0.878896 0)
(-0.217873 -0.811835 0)
(-0.123998 -0.559047 0)
(-0.188632 -0.527529 0)
(-0.198951 -0.533682 0)
(-0.196602 -0.495563 0)
(-0.385147 -0.499958 0)
(-0.535285 -0.572755 0)
(-0.544242 -0.505338 0)
(-0.473834 -0.370439 0)
(-0.528788 -0.354178 0)
(-0.594596 -0.246126 0)
(-0.589929 -0.16358 0)
(-0.598251 -0.0998447 0)
(-0.560604 -0.120377 0)
(-0.76127 0.188813 0)
(-0.816288 0.235766 0)
(-0.603674 0.248279 0)
(-0.498287 0.20879 0)
(-0.454695 0.200824 0)
(-0.387915 0.227322 0)
(-0.33649 0.236771 0)
(-0.0172235 -0.522415 0)
(-0.0518134 -0.523585 0)
(0.0208652 -0.514032 0)
(-0.0211129 -0.454519 0)
(-0.179201 -0.465516 0)
(-0.21373 -0.448637 0)
(-0.186418 -0.440851 0)
(-0.423326 -0.579765 0)
(-0.534095 -0.559987 0)
(-0.486705 -0.384052 0)
(-0.503539 -0.379075 0)
(-0.487874 -0.339133 0)
(-0.510033 -0.258083 0)
(-0.516315 -0.225727 0)
(-0.485527 -0.113856 0)
(-0.429773 -0.0915111 0)
(-0.534103 -0.0622077 0)
(-0.677737 0.184984 0)
(-0.668697 0.25354 0)
(-0.560969 0.238828 0)
(-0.417285 0.229703 0)
(-0.345883 0.196425 0)
(-0.325679 0.179476 0)
(-0.0189437 -0.372599 0)
(-0.0617695 -0.380237 0)
(-0.0722792 -0.367388 0)
(-0.10801 -0.365768 0)
(-0.166212 -0.382931 0)
(-0.163522 -0.430339 0)
(-0.401024 -0.56693 0)
(-0.558157 -0.706684 0)
(-0.414589 -0.501515 0)
(-0.348287 -0.459868 0)
(-0.407676 -0.35296 0)
(-0.408942 -0.299454 0)
(-0.461222 -0.240791 0)
(-0.414903 -0.177597 0)
(-0.396637 -0.108276 0)
(-0.406275 -0.0899866 0)
(-0.37248 -0.0975015 0)
(-0.512055 0.0347374 0)
(-0.582445 0.191659 0)
(-0.518458 0.260623 0)
(-0.508221 0.283373 0)
(-0.445693 0.243803 0)
(-0.340954 0.217873 0)
(-0.0149183 -0.347339 0)
(-0.0459404 -0.36459 0)
(0.000701302 -0.379868 0)
(-0.0549302 -0.514637 0)
(-0.246504 -0.54799 0)
(-0.353075 -0.552128 0)
(-0.47886 -0.638384 0)
(-0.35173 -0.521234 0)
(-0.304696 -0.380129 0)
(-0.359154 -0.369326 0)
(-0.357391 -0.304364 0)
(-0.369142 -0.276032 0)
(-0.383091 -0.210495 0)
(-0.383654 -0.145138 0)
(-0.38535 -0.126953 0)
(-0.359586 -0.0757731 0)
(-0.368555 -0.0520795 0)
(-0.328902 -0.066177 0)
(-0.448336 0.0940102 0)
(-0.505397 0.193459 0)
(-0.424693 0.211745 0)
(-0.394037 0.272757 0)
(-0.359592 0.286407 0)
(-0.0324105 -0.544872 0)
(-0.066104 -0.554619 0)
(-0.184049 -0.54686 0)
(-0.249081 -0.636606 0)
(-0.234939 -0.643513 0)
(-0.286406 -0.626871 0)
(-0.375195 -0.576248 0)
(-0.315657 -0.392614 0)
(-0.254028 -0.405542 0)
(-0.303421 -0.340494 0)
(-0.300795 -0.303749 0)
(-0.3209 -0.2564 0)
(-0.328179 -0.213849 0)
(-0.326547 -0.159178 0)
(-0.330615 -0.123792 0)
(-0.322232 -0.0738577 0)
(-0.319685 -0.0526186 0)
(-0.333563 0.00966266 0)
(-0.28879 -0.0145795 0)
(-0.382536 0.165459 0)
(-0.454242 0.163711 0)
(-0.370689 0.2067 0)
(-0.343129 0.218084 0)
(-0.0249378 -0.630069 0)
(-0.0630828 -0.630406 0)
(-0.117282 -0.64374 0)
(-0.162972 -0.575237 0)
(-0.211134 -0.543197 0)
(-0.308834 -0.558278 0)
(-0.259905 -0.433896 0)
(-0.216439 -0.354685 0)
(-0.252327 -0.344925 0)
(-0.259689 -0.304199 0)
(-0.272587 -0.2759 0)
(-0.280311 -0.236526 0)
(-0.286087 -0.202787 0)
(-0.293753 -0.154756 0)
(-0.299714 -0.128992 0)
(-0.298023 -0.0882093 0)
(-0.272155 -0.0635528 0)
(-0.266442 -0.0195277 0)
(-0.224292 0.012659 0)
(-0.310315 -0.00402239 0)
(-0.39609 0.144879 0)
(-0.35101 0.158651 0)
(-0.332219 0.190423 0)
(-0.0234755 -0.533865 0)
(-0.065984 -0.534349 0)
(-0.123058 -0.531017 0)
(-0.167662 -0.519708 0)
(-0.235217 -0.541769 0)
(-0.203091 -0.448286 0)
(-0.184348 -0.367838 0)
(-0.213024 -0.355467 0)
(-0.213346 -0.324451 0)
(-0.229709 -0.294843 0)
(-0.234419 -0.260212 0)
(-0.247283 -0.223432 0)
(-0.247382 -0.187647 0)
(-0.256609 -0.132703 0)
(-0.262826 -0.123905 0)
(-0.254926 -0.0892802 0)
(-0.252566 -0.0556154 0)
(-0.244736 -0.0471756 0)
(-0.24376 -0.00611627 0)
(-0.205088 -0.0386123 0)
(-0.296585 0.0831548 0)
(-0.342382 0.157168 0)
(-0.297491 0.16085 0)
(-0.0213408 -0.513039 0)
(-0.0597606 -0.515018 0)
(-0.0994906 -0.501729 0)
(-0.170794 -0.506465 0)
(-0.15147 -0.434333 0)
(-0.144806 -0.373076 0)
(-0.173525 -0.362921 0)
(-0.174726 -0.326985 0)
(-0.189048 -0.3063 0)
(-0.196299 -0.276765 0)
(-0.201015 -0.249645 0)
(-0.211427 -0.220558 0)
(-0.192448 -0.192059 0)
(-0.231898 -0.160983 0)
(-0.259611 -0.129422 0)
(-0.229901 -0.101239 0)
(-0.236024 -0.0703905 0)
(-0.210763 -0.0476111 0)
(-0.198768 -0.0132124 0)
(-0.22127 0.014976 0)
(-0.186027 0.00122137 0)
(-0.257471 0.133463 0)
(-0.313835 0.123491 0)
(-0.0207521 -0.470473 0)
(-0.0508865 -0.465483 0)
(-0.117724 -0.450734 0)
(-0.113185 -0.420735 0)
(-0.108111 -0.369227 0)
(-0.136679 -0.36379 0)
(-0.140515 -0.332187 0)
(-0.155533 -0.313775 0)
(-0.163242 -0.288946 0)
(-0.172613 -0.265406 0)
(-0.179386 -0.240737 0)
(-0.18798 -0.217062 0)
(-0.190691 -0.190608 0)
(-0.197313 -0.190966 0)
(-0.198331 -0.129227 0)
(-0.199165 -0.10487 0)
(-0.197346 -0.0735998 0)
(-0.19087 -0.0432032 0)
(-0.181024 -0.0308567 0)
(-0.185487 -0.0056454 0)
(-0.150075 0.0262478 0)
(-0.214452 0.00610118 0)
(-0.276915 0.129204 0)
(-0.0136532 -0.428162 0)
(-0.0387531 -0.421573 0)
(-0.0625161 -0.409314 0)
(-0.0882899 -0.360518 0)
(-0.0992389 -0.360283 0)
(-0.110529 -0.332543 0)
(-0.122686 -0.316642 0)
(-0.131458 -0.293747 0)
(-0.140466 -0.272887 0)
(-0.148013 -0.250278 0)
(-0.154126 -0.227346 0)
(-0.160302 -0.204145 0)
(-0.162586 -0.178213 0)
(-0.171547 -0.155675 0)
(-0.175452 -0.127238 0)
(-0.174886 -0.103808 0)
(-0.17363 -0.0803259 0)
(-0.167933 -0.0564626 0)
(-0.162383 -0.04376 0)
(-0.162179 -0.0141077 0)
(-0.162074 0.0129837 0)
(-0.130167 -0.01034 0)
(-0.206867 0.108156 0)
(-0.0109927 -0.375099 0)
(-0.0315681 -0.373356 0)
(-0.0538978 -0.364107 0)
(-0.0676538 -0.349698 0)
(-0.078866 -0.331287 0)
(-0.0923088 -0.315435 0)
(-0.101734 -0.296444 0)
(-0.111493 -0.278002 0)
(-0.119528 -0.258441 0)
(-0.12677 -0.238289 0)
(-0.132837 -0.217539 0)
(-0.138386 -0.196657 0)
(-0.142014 -0.174378 0)
(-0.146097 -0.15458 0)
(-0.14793 -0.12623 0)
(-0.151533 -0.103869 0)
(-0.149689 -0.0802193 0)
(-0.154257 -0.057413 0)
(-0.141547 -0.0392302 0)
(-0.128379 -0.0164713 0)
(-0.140232 0.00805646 0)
(-0.108488 0.0228953 0)
(-0.168731 0.0351611 0)
(-0.00826454 -0.34364 0)
(-0.0240496 -0.342324 0)
(-0.0392085 -0.334561 0)
(-0.0533965 -0.320383 0)
(-0.0651958 -0.309465 0)
(-0.0756335 -0.294103 0)
(-0.0850544 -0.279031 0)
(-0.0932677 -0.262242 0)
(-0.100543 -0.244699 0)
(-0.106888 -0.22625 0)
(-0.112267 -0.207025 0)
(-0.11696 -0.187275 0)
(-0.120374 -0.166505 0)
(-0.123967 -0.146164 0)
(-0.125589 -0.123335 0)
(-0.128495 -0.102334 0)
(-0.126901 -0.0803726 0)
(-0.125953 -0.0604374 0)
(-0.121297 -0.034155 0)
(-0.115511 -0.0226381 0)
(-0.119016 -0.00293788 0)
(-0.0947807 0.0213217 0)
(-0.129183 -0.000513783 0)
(-0.00646518 -0.315208 0)
(-0.0192445 -0.315114 0)
(-0.031742 -0.309253 0)
(-0.0426725 -0.300523 0)
(-0.0524798 -0.289681 0)
(-0.0616815 -0.277421 0)
(-0.0697107 -0.263673 0)
(-0.0769658 -0.248798 0)
(-0.0833288 -0.232904 0)
(-0.0888733 -0.21611 0)
(-0.0936239 -0.198513 0)
(-0.0976339 -0.180347 0)
(-0.100747 -0.161321 0)
(-0.103485 -0.142356 0)
(-0.104973 -0.121345 0)
(-0.10815 -0.101814 0)
(-0.107422 -0.0818442 0)
(-0.107592 -0.0634771 0)
(-0.103487 -0.0442519 0)
(-0.0987929 -0.0282917 0)
(-0.0963436 -0.0114031 0)
(-0.0989337 0.00945137 0)
(-0.0699188 -0.000820241 0)
(-0.00505059 -0.294162 0)
(-0.0150188 -0.294503 0)
(-0.0246593 -0.289465 0)
(-0.0336946 -0.281968 0)
(-0.0419666 -0.273089 0)
(-0.0494893 -0.26235 0)
(-0.0562727 -0.250319 0)
(-0.0623252 -0.237007 0)
(-0.0676689 -0.222603 0)
(-0.0722985 -0.207237 0)
(-0.0762967 -0.190985 0)
(-0.0795624 -0.174091 0)
(-0.082247 -0.156316 0)
(-0.0844454 -0.13843 0)
(-0.0857754 -0.118933 0)
(-0.0886982 -0.100531 0)
(-0.0883653 -0.0817751 0)
(-0.0882439 -0.0648487 0)
(-0.0861365 -0.0459147 0)
(-0.0837987 -0.0376198 0)
(-0.0815826 -0.0145888 0)
(-0.0803665 0.000758499 0)
(-0.0781866 0.0224204 0)
(-0.00385553 -0.277706 0)
(-0.0115657 -0.278334 0)
(-0.0191078 -0.274124 0)
(-0.0261661 -0.267905 0)
(-0.032718 -0.259929 0)
(-0.0387475 -0.25038 0)
(-0.0441951 -0.239433 0)
(-0.0490679 -0.227232 0)
(-0.0533699 -0.213912 0)
(-0.0570589 -0.199608 0)
(-0.0602786 -0.184385 0)
(-0.0627619 -0.168501 0)
(-0.0649448 -0.151738 0)
(-0.0664851 -0.13489 0)
(-0.0677207 -0.116747 0)
(-0.0707291 -0.099507 0)
(-0.0715497 -0.0819059 0)
(-0.0714553 -0.0651246 0)
(-0.0761284 -0.0478112 0)
(-0.0673669 -0.033217 0)
(-0.0586219 -0.0162341 0)
(-0.0614854 -0.00150697 0)
(-0.0661631 0.0167607 0)
(-0.00272562 -0.26608 0)
(-0.00821792 -0.266798 0)
(-0.0136135 -0.263057 0)
(-0.0187532 -0.257623 0)
(-0.0236021 -0.250637 0)
(-0.0281001 -0.242158 0)
(-0.0322176 -0.232339 0)
(-0.0359297 -0.221297 0)
(-0.0392376 -0.209135 0)
(-0.0420496 -0.19596 0)
(-0.0445789 -0.181812 0)
(-0.0464171 -0.166843 0)
(-0.0483109 -0.150698 0)
(-0.0497359 -0.13371 0)
(-0.0509137 -0.114052 0)
(-0.0536091 -0.0963198 0)
(-0.0537794 -0.0789478 0)
(-0.0539203 -0.061822 0)
(-0.0536433 -0.0463448 0)
(-0.0514529 -0.0255575 0)
(-0.0496228 -0.0172323 0)
(-0.0473494 -0.00304134 0)
(-0.0513143 0.0107557 0)
(-0.00188838 -0.248583 0)
(-0.00577134 -0.249302 0)
(-0.00958652 -0.245849 0)
(-0.0131511 -0.240774 0)
(-0.0164887 -0.2342 0)
(-0.0195299 -0.226245 0)
(-0.0222594 -0.217027 0)
(-0.0246572 -0.206654 0)
(-0.0267145 -0.195267 0)