/*--------------------------------*- C++ -*----------------------------------*\
| =========                 |                                                 |
| \\      /  F ield         | foam-extend: Open Source CFD                    |
|  \\    /   O peration     | Version:     4.1                                |
|   \\  /    A nd           | Web:         http://www.foam-extend.org         |
|    \\/     M anipulation  |                                                 |
\*---------------------------------------------------------------------------*/
FoamFile
{
    version     2.0;
    format      ascii;
    class       volVectorField;
    location    "0.45";
    object      U;
}
// * * * * * * * * * * * * * * * * * * * * * * * * * * * * * * * * * * * * * //

dimensions      [0 1 -1 0 0 0 0];

internalField   nonuniform List<vector> 
2268
(
(0.0432681 -0.00594442 0)
(0.05173 -0.00385262 0)
(0.109064 -0.00713495 0)
(0.168784 -0.00507324 0)
(0.198452 -0.00249529 0)
(0.260167 -0.00696993 0)
(0.270801 -0.00313549 0)
(0.32964 -0.00174794 0)
(0.322185 0.00028479 0)
(0.35439 -0.0317922 0)
(0.30811 -0.0310627 0)
(0.264556 0.00715271 0)
(0.306002 0.00582392 0)
(0.292519 0.00595852 0)
(0.291236 0.00687757 0)
(0.28199 0.00170516 0)
(0.272094 0.00912375 0)
(0.258423 0.00699222 0)
(0.245656 0.000350301 0)
(0.22386 0.00782419 0)
(0.175691 0.0181326 0)
(0.12368 0.00959188 0)
(0.0529395 0.0262763 0)
(0.0421638 -0.0165381 0)
(0.0528257 -0.0115653 0)
(0.114687 -0.0208721 0)
(0.168029 -0.0156125 0)
(0.198394 -0.0196701 0)
(0.262492 -0.00959046 0)
(0.275227 -0.0143204 0)
(0.336093 -0.0111599 0)
(0.319052 -0.00573367 0)
(0.375076 0.0346969 0)
(0.28659 -0.081061 0)
(0.245856 -0.0141593 0)
(0.28416 -0.0114811 0)
(0.272224 -0.00136731 0)
(0.275077 0.00526057 0)
(0.271654 0.00701021 0)
(0.262609 0.00913694 0)
(0.243369 0.0185041 0)
(0.239205 0.0162184 0)
(0.22282 0.0248716 0)
(0.173601 0.0291566 0)
(0.12769 0.0489913 0)
(0.0331701 0.0579166 0)
(0.0380095 -0.0284536 0)
(0.0521305 -0.020878 0)
(0.121205 -0.034632 0)
(0.160423 -0.0242602 0)
(0.194897 -0.0254322 0)
(0.2647 -0.0248776 0)
(0.279035 -0.0206485 0)
(0.333267 -0.0126007 0)
(0.350884 -0.00545268 0)
(0.327782 -0.0331887 0)
(0.259754 -0.0958265 0)
(0.241932 -0.0237381 0)
(0.268172 -0.0149779 0)
(0.259145 0.00316735 0)
(0.258412 0.00170362 0)
(0.252221 0.0171587 0)
(0.244256 0.0124978 0)
(0.23489 0.0266096 0)
(0.228688 0.0387737 0)
(0.21319 0.0411878 0)
(0.176352 0.060293 0)
(0.137571 0.0760456 0)
(0.0579106 0.100133 0)
(0.0321686 -0.037821 0)
(0.0522899 -0.0311242 0)
(0.126564 -0.0468513 0)
(0.154966 -0.0327244 0)
(0.201829 -0.0448515 0)
(0.265275 -0.028518 0)
(0.281086 -0.0324599 0)
(0.344649 -0.0298202 0)
(0.282471 -0.0163757 0)
(0.250803 -0.0679504 0)
(0.239735 -0.0560894 0)
(0.199104 -0.00238703 0)
(0.207729 -0.00236972 0)
(0.186701 0.0084016 0)
(0.189791 0.0104212 0)
(0.185863 0.0201017 0)
(0.176884 0.0170552 0)
(0.176579 0.0303949 0)
(0.174779 0.0340398 0)
(0.174314 0.0491551 0)
(0.151697 0.065521 0)
(0.134578 0.1059 0)
(0.0413937 0.15089 0)
(0.0250439 -0.0485056 0)
(0.0523183 -0.043093 0)
(0.127695 -0.0590151 0)
(0.158111 -0.0413559 0)
(0.208915 -0.0521824 0)
(0.248405 -0.0443918 0)
(0.271079 -0.0381911 0)
(0.341591 -0.0108472 0)
(0.257491 -0.092399 0)
(0.224006 -0.035339 0)
(0.204369 -0.051832 0)
(0.180273 -0.0136068 0)
(0.190792 -0.00648286 0)
(0.174074 0.00530937 0)
(0.165664 0.00904404 0)
(0.143321 0.0065481 0)
(0.141467 0.01429 0)
(0.13148 0.0282666 0)
(0.120719 0.0411907 0)
(0.129977 0.053785 0)
(0.112166 0.0768694 0)
(0.121622 0.126707 0)
(0.0715947 0.182769 0)
(0.0221242 -0.0559924 0)
(0.0587076 -0.0552729 0)
(0.131556 -0.0722885 0)
(0.158375 -0.0519771 0)
(0.201033 -0.067088 0)
(0.239212 -0.0414834 0)
(0.289369 -0.0604455 0)
(0.251096 -0.0309572 0)
(0.207828 -0.0888299 0)
(0.210198 -0.0411146 0)
(0.195044 -0.0374091 0)
(0.170896 -0.001648 0)
(0.173318 0.00225461 0)
(0.151622 0.0179901 0)
(0.140724 0.0168899 0)
(0.132856 0.03109 0)
(0.12367 0.021378 0)
(0.11488 0.051337 0)
(0.110769 0.0325368 0)
(0.114051 0.0544433 0)
(0.0862728 0.07071 0)
(0.11894 0.128547 0)
(0.0603811 0.244376 0)
(0.024382 -0.067807 0)
(0.0656885 -0.0688741 0)
(0.126778 -0.0824128 0)
(0.146755 -0.0573414 0)
(0.200566 -0.0718716 0)
(0.233054 -0.0693526 0)
(0.24911 -0.0324371 0)
(0.224008 -0.0956743 0)
(0.197217 -0.0807717 0)
(0.202234 -0.0331946 0)
(0.18852 -0.0283765 0)
(0.170343 -0.0028001 0)
(0.176042 0.00805918 0)
(0.154477 0.0213702 0)
(0.144898 0.0144925 0)
(0.123122 0.0159735 0)
(0.126182 0.0245989 0)
(0.111197 0.0398557 0)
(0.102982 0.0438019 0)
(0.112833 0.065479 0)
(0.0895699 0.076818 0)
(0.137686 0.139291 0)
(0.0967623 0.264129 0)
(0.0320135 -0.0768545 0)
(0.0670717 -0.0792019 0)
(0.127958 -0.0920587 0)
(0.144476 -0.0717052 0)
(0.194052 -0.0906873 0)
(0.237946 -0.0454509 0)
(0.199122 -0.0732867 0)
(0.20244 -0.105917 0)
(0.200447 -0.0816838 0)
(0.198411 -0.0380585 0)
(0.200352 -0.0239547 0)
(0.182434 0.00166833 0)
(0.179706 0.0211965 0)
(0.145696 0.0321542 0)
(0.127929 0.0348205 0)
(0.135114 0.0437422 0)
(0.137214 0.0209508 0)
(0.127289 0.0218904 0)
(0.129983 0.0235573 0)
(0.120484 0.0657176 0)
(0.111512 0.0567798 0)
(0.144655 0.178275 0)
(0.0992845 0.313847 0)
(0.0828309 -0.0503018 0)
(0.169297 -0.0172629 0)
(0.252472 -0.0760537 0)
(0.363279 -0.167286 0)
(0.470164 -0.199538 0)
(0.557183 -0.188988 0)
(0.69005 -0.16773 0)
(0.837213 -0.174296 0)
(0.976526 -0.123529 0)
(0.908722 0.0365242 0)
(-0.98142 0.374099 0)
(-3.37973 -0.0750912 0)
(-3.39212 -0.326634 0)
(-3.04354 -0.634617 0)
(-2.83658 -0.645459 0)
(-2.76256 -0.266067 0)
(-1.62121 -0.350119 0)
(-0.955353 -0.853634 0)
(-0.100364 -0.481386 0)
(-0.166783 -0.0579284 0)
(0.0484216 -0.0522041 0)
(0.570153 -0.0853616 0)
(0.685338 -0.0224698 0)
(0.963611 0.00171169 0)
(1.19112 0.105193 0)
(1.29406 -0.0961089 0)
(1.22598 -0.0897461 0)
(1.03916 0.133785 0)
(0.731937 0.606386 0)
(-1.33855 1.27287 0)
(-3.1784 0.639884 0)
(-3.36338 0.462213 0)
(-2.38354 0.0291886 0)
(-2.17503 -0.558429 0)
(-2.53674 0.0325016 0)
(-2.08728 0.41517 0)
(-0.851833 -0.465032 0)
(-0.206021 -0.374145 0)
(-0.268366 0.0029533 0)
(0.0955093 -0.337276 0)
(0.816286 -0.304362 0)
(0.905307 -0.194222 0)
(1.22854 -0.258233 0)
(1.695 0.15286 0)
(1.76318 0.00504732 0)
(1.82048 0.0965428 0)
(1.56724 0.235852 0)
(0.303883 1.45867 0)
(-0.185633 1.86278 0)
(-1.18557 1.04336 0)
(-2.71457 0.360424 0)
(-2.25893 -1.32147 0)
(-1.88415 -0.811309 0)
(-1.63678 -0.560368 0)
(-1.14827 -0.567003 0)
(-0.569557 -0.482362 0)
(-0.297569 -0.505936 0)
(-0.215616 0.0389475 0)
(0.172387 -0.491219 0)
(0.455848 -0.37275 0)
(0.580222 -0.486806 0)
(1.22377 -0.115309 0)
(1.25156 -0.527682 0)
(1.31816 -0.469566 0)
(1.68253 -0.178823 0)
(1.75974 0.509602 0)
(0.68353 1.35884 0)
(0.354027 1.89105 0)
(0.394196 1.24914 0)
(-0.229542 0.355449 0)
(-2.72733 -1.47664 0)
(-3.00831 -0.672509 0)
(-1.91367 -0.413272 0)
(-0.998123 -0.585689 0)
(-0.455109 -0.842869 0)
(-0.157342 -0.671482 0)
(0.460073 0.0408621 0)
(0.0728727 -0.746232 0)
(0.0984582 -0.364387 0)
(0.158231 -0.324053 0)
(0.479908 -0.286021 0)
(0.665166 -0.853092 0)
(0.910489 -0.595371 0)
(1.68705 -0.114351 0)
(1.74339 0.888647 0)
(1.16517 1.74993 0)
(0.648133 1.94311 0)
(0.807686 1.34014 0)
(0.500058 0.927573 0)
(-2.59343 -0.789807 0)
(-3.17942 -0.492991 0)
(-1.88557 -0.461564 0)
(-0.663814 -0.80601 0)
(-0.263501 -0.969798 0)
(-0.124825 -0.753208 0)
(0.222055 -0.225062 0)
(-0.00198446 -0.822002 0)
(-0.0345422 -0.405497 0)
(0.0498452 -0.235344 0)
(0.143747 -0.396263 0)
(0.296128 -0.585493 0)
(0.731011 -0.33005 0)
(0.970287 -0.171881 0)
(1.55782 0.716567 0)
(1.3591 1.92927 0)
(0.949436 2.01427 0)
(0.81923 1.43154 0)
(0.677322 1.37025 0)
(-1.71056 -0.214602 0)
(-2.38268 -0.288695 0)
(-0.783537 -0.970564 0)
(-0.195929 -1.12794 0)
(-0.132375 -1.08693 0)
(-0.0468502 -0.815842 0)
(0.156331 -0.272197 0)
(0.0362743 -0.881768 0)
(-0.0458404 -0.499998 0)
(-0.100704 -0.300074 0)
(-0.0269384 -0.453256 0)
(0.0974036 -0.483098 0)
(0.308041 -0.528409 0)
(0.563947 -0.394217 0)
(1.22781 0.650053 0)
(1.28272 1.92231 0)
(1.24659 1.83849 0)
(0.654037 1.623 0)
(0.499628 1.724 0)
(-0.866063 0.210284 0)
(-0.735634 -0.519026 0)
(-0.231938 -0.815356 0)
(0.140788 -1.12925 0)
(-0.00364594 -1.04654 0)
(0.00278935 -0.828505 0)
(0.165158 -0.451077 0)
(0.13513 -0.477402 0)
(0.205497 -0.584924 0)
(-0.260433 -0.232876 0)
(-0.129424 -0.522218 0)
(-0.0348177 -0.569335 0)
(0.0895249 -0.575912 0)
(0.019594 -0.439973 0)
(0.56146 0.314517 0)
(1.15972 1.79267 0)
(1.27143 1.72557 0)
(0.525364 1.84382 0)
(0.34642 1.99144 0)
(-0.155178 0.601594 0)
(-0.0520578 -0.581063 0)
(0.311963 -0.96647 0)
(0.264523 -1.15259 0)
(0.0504633 -0.996876 0)
(0.0353496 -0.814006 0)
(0.0357921 -0.0995241 0)
(0.0608203 -0.0984832 0)
(0.120164 -0.107806 0)
(0.133245 -0.0705181 0)
(0.205266 -0.0948856 0)
(0.177108 -0.101209 0)
(0.174297 -0.118309 0)
(0.207488 -0.10244 0)
(0.200282 -0.0752216 0)
(0.209574 -0.0343687 0)
(0.215946 -0.0138274 0)
(0.203016 0.0141905 0)
(0.194965 0.054622 0)
(0.159521 0.0553039 0)
(0.165221 0.0802043 0)
(0.130379 0.0714781 0)
(0.116132 0.0425788 0)
(0.125335 0.0493105 0)
(0.148365 0.0101379 0)
(0.13164 0.078589 0)
(0.167463 0.0755903 0)
(0.262261 0.20836 0)
(0.205088 0.324101 0)
(0.0404582 -0.116978 0)
(0.0534743 -0.1158 0)
(0.136569 -0.122318 0)
(0.129151 -0.119677 0)
(0.132385 -0.115602 0)
(0.166346 -0.164142 0)
(0.18814 -0.108648 0)
(0.209942 -0.123818 0)
(0.242665 -0.0947607 0)
(0.251447 -0.0601142 0)
(0.259574 -0.0267465 0)
(0.241779 0.0128136 0)
(0.204855 0.0265807 0)
(0.205424 0.054136 0)
(0.159762 0.0731095 0)
(0.135938 0.0428251 0)
(0.159809 0.0490752 0)
(0.121357 0.0339849 0)
(0.157234 0.0363284 0)
(0.226045 0.0527135 0)
(0.271343 0.110467 0)
(0.270624 0.154757 0)
(0.296367 0.159763 0)
(0.0159484 -0.147378 0)
(0.0428901 -0.147588 0)
(0.0671982 -0.147526 0)
(0.13006 -0.188486 0)
(0.140274 -0.136692 0)
(0.171904 -0.161766 0)
(0.199605 -0.158363 0)
(0.244183 -0.161095 0)
(0.277392 -0.115423 0)
(0.262535 -0.0512602 0)
(0.258682 0.000473112 0)
(0.208226 0.0688812 0)
(0.165196 0.0891354 0)
(0.144963 0.0987223 0)
(0.128176 0.0797597 0)
(0.122743 0.0602386 0)
(0.155238 0.0175563 0)
(0.156084 0.0111015 0)
(0.181518 0.0627145 0)
(0.191767 0.0311006 0)
(0.219326 0.0530678 0)
(0.244721 0.0184728 0)
(0.270264 0.0405637 0)
(0.0312256 -0.176786 0)
(-0.00651327 -0.166972 0)
(0.0471341 -0.209399 0)
(0.0191282 -0.183529 0)
(0.0608912 -0.161941 0)
(0.0729683 -0.21532 0)
(0.0747062 -0.185949 0)
(0.0444484 -0.195202 0)
(0.00383393 -0.116027 0)
(0.0272263 -0.0451528 0)
(-0.00923387 0.0358961 0)
(0.0427921 0.120247 0)
(-0.0369115 0.102058 0)
(-0.0325421 0.0961154 0)
(0.0269365 0.0915605 0)
(0.0476756 0.0212511 0)
(0.107932 0.013545 0)
(0.142194 0.0134149 0)
(0.151089 0.0656336 0)
(0.177285 0.0235178 0)
(0.21203 0.0486488 0)
(0.252607 0.0156717 0)
(0.274293 0.00345862 0)
(-0.0109183 -0.176368 0)
(-0.0522078 -0.163191 0)
(-0.0510934 -0.185731 0)
(-0.0345379 -0.197506 0)
(0.014337 -0.192588 0)
(0.00295062 -0.175048 0)
(-0.0416702 -0.1295 0)
(-0.0928643 -0.100059 0)
(-0.137362 -0.0810261 0)
(-0.164805 -0.0481069 0)
(-0.173614 0.028355 0)
(-0.141059 0.250441 0)
(-0.144172 0.172635 0)
(-0.0726898 0.0324555 0)
(-0.0475228 -0.00374538 0)
(0.0103541 -0.0255945 0)
(0.0322618 -0.0781964 0)
(0.0765859 -0.0321674 0)
(-0.0149618 -0.0358323 0)
(0.189918 -0.0429491 0)
(0.136837 -0.0231818 0)
(0.167474 -0.0440212 0)
(0.256118 -0.0486192 0)
(-0.014361 -0.113513 0)
(-0.0486139 -0.129188 0)
(-0.0468887 -0.22188 0)
(-0.00445384 -0.244982 0)
(0.0107727 -0.202956 0)
(0.00711507 -0.148915 0)
(-0.0396224 -0.0914302 0)
(-0.0831275 -0.091226 0)
(-0.112355 -0.0515759 0)
(-0.162049 -0.0174022 0)
(-0.140053 -0.000980531 0)
(-0.0521942 0.0518354 0)
(-0.00744402 0.0217359 0)
(0.0613646 0.0895709 0)
(0.0667207 0.00550679 0)
(0.128817 -0.0579454 0)
(0.0132023 -0.0518806 0)
(0.0840154 0.0552299 0)
(-0.0851984 0.04099 0)
(-0.0163016 -0.0449603 0)
(-0.329698 -0.110628 0)
(0.199459 -0.113145 0)
(0.180835 -0.124914 0)
(-0.00770276 -0.113711 0)
(0.00233658 -0.126074 0)
(-0.00659218 -0.230777 0)
(0.0317922 -0.251584 0)
(0.0156177 -0.204773 0)
(0.0200401 -0.138161 0)
(-0.00750479 -0.0859988 0)
(-0.0228102 -0.0657943 0)
(-0.0289071 -0.035978 0)
(-0.0475514 -0.0343253 0)
(-0.0809118 0.0571957 0)
(-0.00824202 -0.0129939 0)
(0.011919 -0.0274042 0)
(0.0625592 -0.0230753 0)
(0.0886022 -0.0572056 0)
(0.131401 -0.015739 0)
(0.0946843 -0.0037096 0)
(0.108797 0.0919122 0)
(0.103149 0.0235004 0)
(0.154525 0.0839277 0)
(0.131556 -0.12994 0)
(0.159458 -0.375444 0)
(-0.048134 -0.251232 0)
(-0.0102435 -0.108872 0)
(0.0134838 -0.128435 0)
(0.00898903 -0.251219 0)
(0.0550672 -0.264877 0)
(0.038294 -0.192864 0)
(0.0327506 -0.123888 0)
(0.0148453 -0.060669 0)
(0.00277663 -0.0541195 0)
(0.00107448 -0.0306973 0)
(-0.0223119 -0.0240641 0)
(0.0138833 0.00592837 0)
(0.0408253 -0.0143634 0)
(0.0178516 -0.0560015 0)
(0.0183292 -0.0291957 0)
(0.0414093 -0.0681007 0)
(0.0506107 -0.0278072 0)
(0.0712673 -0.0143362 0)
(0.104345 0.0455165 0)
(0.126007 -0.0195672 0)
(0.155673 -0.0589279 0)
(0.195661 -0.180892 0)
(0.152196 -0.292508 0)
(0.0909111 -0.219257 0)
(-0.0065561 -0.117001 0)
(0.0121995 -0.143413 0)
(0.0148211 -0.27411 0)
(0.0675471 -0.279745 0)
(0.0473078 -0.183216 0)
(0.0376453 -0.115511 0)
(0.0310057 -0.0562746 0)
(0.0244591 -0.0545892 0)
(0.029494 -0.0199822 0)
(0.0311438 -0.0386541 0)
(0.0405493 -0.0241349 0)
(0.0363093 -0.0336722 0)
(0.054622 -0.0760827 0)
(0.0503495 -0.0645572 0)
(0.0681154 -0.0805639 0)
(0.0688291 -0.0546885 0)
(0.0932237 -0.0423054 0)
(0.119304 -0.0375239 0)
(0.12581 -0.0183886 0)
(0.110178 -0.0589274 0)
(0.167256 -0.0897787 0)
(0.318663 -0.116379 0)
(0.175413 -0.11711 0)
(0.000291969 -0.115623 0)
(0.00586 -0.148435 0)
(0.0246553 -0.311078 0)
(0.0771512 -0.297311 0)
(0.0533584 -0.165952 0)
(0.0329616 -0.10568 0)
(0.0364919 -0.0457587 0)
(0.0394455 -0.0533713 0)
(0.0328527 -0.00225897 0)
(0.0448266 -0.0317583 0)
(0.0853659 -0.0113316 0)
(0.0688304 -0.0396418 0)
(0.080229 -0.0703975 0)
(0.0922405 -0.066687 0)
(0.0590124 -0.0899187 0)
(0.0854263 -0.0499195 0)
(0.141094 -0.0705556 0)
(0.161058 0.0231704 0)
(0.142625 -0.0587721 0)
(0.149079 -0.0352381 0)
(0.167706 -0.0427839 0)
(0.110288 -0.0993585 0)
(0.0270084 -0.109806 0)
(0.00175022 -0.123238 0)
(0.00621526 -0.166139 0)
(0.0249709 -0.347795 0)
(0.0776153 -0.310156 0)
(0.045723 -0.13883 0)
(0.0209002 -0.100429 0)
(0.0319468 -0.0643033 0)
(0.0468087 -0.0513537 0)
(0.0481291 -0.0348655 0)
(0.0705795 -0.022533 0)
(0.0855078 -0.0599553 0)
(0.0699842 -0.021569 0)
(0.091152 -0.118563 0)
(0.0814962 -0.0493882 0)
(0.109885 -0.0749161 0)
(0.139395 -0.0260487 0)
(0.185195 -0.0756964 0)
(0.12335 -0.0746706 0)
(0.126258 -0.10222 0)
(0.131461 -0.107925 0)
(0.113682 -0.0198515 0)
(0.251621 -0.0453465 0)
(0.175597 -0.0662938 0)
(-0.00146854 -0.12518 0)
(0.014411 -0.169996 0)
(0.0220979 -0.385476 0)
(0.0755932 -0.313311 0)
(0.0242788 -0.107333 0)
(0.00284371 -0.0938993 0)
(0.0466774 -0.0641315 0)
(0.0328132 -0.0752056 0)
(0.064402 -0.00702747 0)
(0.0753759 -0.0821338 0)
(0.125057 0.023783 0)
(0.100008 -0.0647779 0)
(0.135484 -0.0559896 0)
(0.189229 -0.105525 0)
(0.112597 -0.0230879 0)
(0.131061 -0.0896033 0)
(0.14676 -0.0624442 0)
(0.146736 -0.0254748 0)
(0.156102 -0.095572 0)
(0.212962 0.0156707 0)
(0.286388 -0.024509 0)
(0.186929 -0.0537581 0)
(0.147307 -0.14692 0)
(0.00766074 -0.13557 0)
(0.0218441 -0.173014 0)
(0.0270177 -0.428735 0)
(0.0619867 -0.312646 0)
(-0.0049512 -0.0655376 0)
(0.00367335 -0.0992306 0)
(0.0207025 -0.0826042 0)
(0.0551521 -0.108215 0)
(0.0641213 -0.0543962 0)
(0.142817 -0.133523 0)
(0.117207 -0.0137981 0)
(0.127065 -0.101456 0)
(0.147279 -0.0653986 0)
(0.173572 -0.139952 0)
(0.120799 -0.0511143 0)
(0.150533 -0.0385569 0)
(0.316962 -0.109014 0)
(0.182653 -0.111557 0)
(0.233665 -0.141359 0)
(0.307911 -0.0330126 0)
(0.177063 0.0455922 0)
(0.189276 -0.0311782 0)
(0.175765 -0.0137765 0)
(0.00268697 -0.13789 0)
(0.0179471 -0.178856 0)
(0.0255567 -0.454021 0)
(0.0428768 -0.28217 0)
(-0.0168679 -0.0417972 0)
(0.00878833 -0.107004 0)
(0.0311627 -0.122357 0)
(0.0447116 -0.12532 0)
(0.0434883 -0.14625 0)
(0.104898 -0.180537 0)
(0.239377 -0.0435719 0)
(0.210068 -0.129388 0)
(0.152179 -0.0986744 0)
(0.208071 -0.104739 0)
(0.270125 0.0318018 0)
(0.237257 -0.0951509 0)
(0.23053 -0.0438831 0)
(0.234144 -0.162699 0)
(0.273935 0.021379 0)
(0.430305 -0.143589 0)
(0.325982 0.0381508 0)
(0.194241 0.00385287 0)
(0.230193 0.0652743 0)
(-0.00466812 -0.159691 0)
(0.0101169 -0.204058 0)
(0.0235918 -0.470932 0)
(0.0363033 -0.264178 0)
(-0.0250265 -0.0485844 0)
(0.0179664 -0.131012 0)
(0.0107363 -0.1445 0)
(0.0567793 -0.118099 0)
(0.0809046 -0.195761 0)
(0.231312 -0.167432 0)
(0.260827 -0.24897 0)
(0.174225 -0.211048 0)
(0.0757168 -0.103133 0)
(0.219887 -0.00876979 0)
(0.209903 -0.0869217 0)
(0.294863 -0.218508 0)
(0.299656 -0.179949 0)
(0.287373 -0.117832 0)
(0.30096 -0.0342739 0)
(0.279759 -0.0469974 0)
(0.399683 -0.048937 0)
(0.400053 0.0109732 0)
(0.318692 0.100359 0)
(-0.0169434 -0.133051 0)
(0.00296448 -0.2045 0)
(0.0231076 -0.467892 0)
(0.0334704 -0.240629 0)
(-0.0275669 -0.013407 0)
(0.023617 -0.14385 0)
(0.0292509 -0.140379 0)
(0.0323191 -0.151065 0)
(0.11832 -0.180732 0)
(0.113451 -0.121278 0)
(0.192819 -0.259871 0)
(0.232674 -0.186651 0)
(0.195637 -0.129237 0)
(0.20652 -0.0732239 0)
(0.163966 -0.200818 0)
(0.267856 -0.0765086 0)
(0.345131 -0.23536 0)
(0.25663 -0.0290333 0)
(0.316488 -0.160575 0)
(0.457504 -0.0203821 0)
(0.450159 0.00121463 0)
(0.466924 0.0639553 0)
(0.389636 0.104654 0)
(-0.0365733 -0.161814 0)
(0.00206409 -0.261996 0)
(0.00725491 -0.472101 0)
(0.00463322 -0.254813 0)
(-0.0302051 -0.0444816 0)
(0.0403311 -0.204087 0)
(0.00295922 -0.166742 0)
(0.0608641 -0.20262 0)
(0.166477 -0.182611 0)
(0.176828 -0.205936 0)
(0.145115 -0.157381 0)
(0.141853 -0.173482 0)
(0.138857 -0.105729 0)
(0.134572 -0.144526 0)
(0.264342 -0.142835 0)
(0.264594 -0.0668628 0)
(0.251137 -0.163046 0)
(0.378555 -0.0674658 0)
(0.343127 -0.179304 0)
(0.424734 -0.0651161 0)
(0.527896 -0.0373602 0)
(0.584902 -0.00503158 0)
(0.425231 0.138414 0)
(-0.064045 -0.0781924 0)
(0.0257104 -0.205707 0)
(0.000561403 -0.472635 0)
(-0.00563297 -0.163983 0)
(-0.0411128 -0.0489809 0)
(0.0455006 -0.142232 0)
(0.0352976 -0.151682 0)
(0.083186 -0.204921 0)
(0.151849 -0.233823 0)
(0.147721 -0.266777 0)
(0.0953794 -0.16648 0)
(0.158684 -0.179556 0)
(0.150295 -0.11327 0)
(0.201258 -0.20026 0)
(0.247637 -0.0945458 0)
(0.222867 -0.201124 0)
(0.318113 -0.0628701 0)
(0.303463 -0.138678 0)
(0.318123 -0.136586 0)
(0.569588 -0.153933 0)
(0.561689 -0.0696017 0)
(0.64808 0.177187 0)
(0.538885 -0.0272351 0)
(0.0445907 -0.14022 0)
(-0.0402814 -0.387733 0)
(-0.0202347 -0.417868 0)
(-0.0214405 -0.2769 0)
(-0.0469251 -0.191484 0)
(0.0998843 -0.324724 0)
(-0.0757869 -0.215178 0)
(0.0391024 -0.195292 0)
(0.0810957 -0.216652 0)
(0.185758 -0.281486 0)
(0.108228 -0.24982 0)
(0.132046 -0.25236 0)
(0.103288 -0.220315 0)
(0.244739 -0.213472 0)
(0.297945 -0.183425 0)
(0.282556 -0.0848201 0)
(0.358456 -0.104561 0)
(0.328524 -0.164316 0)
(0.339313 -0.148747 0)
(0.466432 -0.123296 0)
(0.792183 -0.0902178 0)
(0.678907 -0.110437 0)
(0.538647 -0.00164335 0)
(-0.0133465 -0.287168 0)
(0.167503 -0.545278 0)
(-0.0120911 -0.59247 0)
(-0.12774 -0.423324 0)
(-0.0270438 -0.342755 0)
(0.0519559 -0.448595 0)
(0.107941 -0.395165 0)
(0.088748 -0.385629 0)
(0.0467429 -0.257996 0)
(0.123175 -0.278997 0)
(0.0692761 -0.303317 0)
(0.143325 -0.188919 0)
(0.233364 -0.26966 0)
(0.328474 -0.177488 0)
(0.342804 -0.360044 0)
(0.130384 -0.155892 0)
(0.259236 -0.254845 0)
(0.296986 -0.176347 0)
(0.391223 -0.191383 0)
(0.694036 -0.0916001 0)
(0.690214 -0.132327 0)
(0.823788 -0.200149 0)
(0.794075 -0.129879 0)
(-0.0411637 -0.309044 0)
(0.0579239 -0.551718 0)
(-0.0253215 -0.661236 0)
(0.00465842 -0.420295 0)
(-0.0119369 -0.382883 0)
(0.076804 -0.432439 0)
(0.0327572 -0.454668 0)
(0.0748212 -0.464646 0)
(0.1311 -0.321184 0)
(0.163895 -0.296705 0)
(0.12317 -0.280841 0)
(0.169589 -0.264279 0)
(0.240281 -0.323331 0)
(0.097009 -0.22524 0)
(0.202615 -0.396312 0)
(0.307122 -0.330207 0)
(0.373463 -0.326441 0)
(0.452779 -0.270263 0)
(0.490345 -0.0805367 0)
(0.620345 -0.249399 0)
(0.716023 -0.180343 0)
(0.77714 -0.238258 0)
(0.997333 -0.225188 0)
(-0.0376802 -0.309558 0)
(0.0594086 -0.549478 0)
(-0.0280388 -0.573823 0)
(0.0212831 -0.421741 0)
(0.00450373 -0.47526 0)
(0.0613053 -0.473791 0)
(0.00181602 -0.533081 0)
(0.126666 -0.355505 0)
(0.176516 -0.31138 0)
(0.145537 -0.428751 0)
(0.0235098 -0.317485 0)
(0.118942 -0.399689 0)
(0.29899 -0.382846 0)
(0.205423 -0.400755 0)
(0.219527 -0.367928 0)
(0.235067 -0.323778 0)
(0.339604 -0.300912 0)
(0.53422 -0.176935 0)
(0.448693 -0.300671 0)
(0.540497 -0.13409 0)
(0.687372 -0.202066 0)
(0.946921 -0.314165 0)
(0.837134 -0.442493 0)
(-0.0598342 -0.371293 0)
(0.0214572 -0.568097 0)
(-0.0311357 -0.556397 0)
(-0.0451497 -0.526504 0)
(0.00955013 -0.337552 0)
(0.0810552 -0.525891 0)
(0.0667856 -0.400602 0)
(0.205231 -0.311145 0)
(0.103195 -0.373032 0)
(0.138826 -0.466303 0)
(0.123666 -0.428114 0)
(0.116068 -0.400722 0)
(0.258 -0.407817 0)
(0.134427 -0.549093 0)
(0.215507 -0.461533 0)
(0.35169 -0.536257 0)
(0.512293 -0.244914 0)
(0.404612 -0.405669 0)
(0.530203 -0.516439 0)
(0.634685 -0.250151 0)
(0.627812 -0.346018 0)
(0.812533 -0.383485 0)
(0.785553 -0.561736 0)
(-0.0209788 -0.232329 0)
(0.0831031 -0.590338 0)
(-0.080231 -0.57292 0)
(0.0581117 -0.336417 0)
(0.0394641 -0.258291 0)
(0.0945167 -0.359035 0)
(0.152022 -0.298839 0)
(0.122866 -0.23757 0)
(0.0598684 -0.315962 0)
(0.114726 -0.297882 0)
(0.111739 -0.429964 0)
(0.156494 -0.339141 0)
(0.111013 -0.411333 0)
(0.122555 -0.545862 0)
(0.229047 -0.371279 0)
(0.405243 -0.491168 0)
(0.530575 -0.374462 0)
(0.319025 -0.494143 0)
(0.528967 -0.557613 0)
(0.749695 -0.424309 0)
(0.871449 -0.501627 0)
(1.04679 -0.370974 0)
(0.917978 -0.697838 0)
(-0.145697 -0.136162 0)
(-0.0287593 -0.404718 0)
(0.0729152 -0.424891 0)
(0.134491 -0.284617 0)
(0.04355 -0.304397 0)
(0.119025 -0.305753 0)
(0.147175 -0.291083 0)
(0.155755 -0.366772 0)
(-0.000921722 -0.438088 0)
(-0.0426354 -0.366208 0)
(0.0839653 -0.486189 0)
(0.0991421 -0.448063 0)
(0.0851899 -0.55733 0)
(0.202705 -0.54211 0)
(0.266799 -0.541281 0)
(0.343147 -0.386406 0)
(0.459681 -0.499491 0)
(0.286371 -0.474286 0)
(0.546788 -0.34499 0)
(0.77316 -0.358437 0)
(1.04575 -0.533632 0)
(0.990307 -0.571283 0)
(0.937705 -0.932885 0)
(-0.0685552 -0.0858083 0)
(0.0442902 -0.346392 0)
(-0.016609 -0.342469 0)
(0.0206291 -0.248646 0)
(0.0319858 -0.210023 0)
(0.146557 -0.292532 0)
(0.0233258 -0.47705 0)
(-0.0560709 -0.449152 0)
(0.0427604 -0.541115 0)
(0.00320257 -0.462199 0)
(0.0755875 -0.501604 0)
(0.0595728 -0.490879 0)
(0.0454308 -0.573018 0)
(0.111524 -0.481892 0)
(0.344067 -0.553064 0)
(0.371804 -0.394503 0)
(0.470265 -0.627374 0)
(0.424465 -0.54529 0)
(0.770579 -0.438134 0)
(0.757224 -0.767137 0)
(0.880347 -0.733231 0)
(0.913234 -0.885294 0)
(0.657478 -1.00392 0)
(-0.0467221 -0.0773422 0)
(0.0883877 -0.362021 0)
(0.0643975 -0.355713 0)
(0.153607 -0.342714 0)
(0.105511 -0.432745 0)
(-0.0504637 -0.470957 0)
(-0.0439631 -0.557771 0)
(-0.000324605 -0.485809 0)
(0.0181245 -0.519511 0)
(0.00997748 -0.490178 0)
(0.0702368 -0.497537 0)
(0.0298426 -0.52585 0)
(0.136277 -0.524582 0)
(0.131295 -0.480291 0)
(0.358198 -0.499398 0)
(0.139003 -0.516315 0)
(0.454443 -0.682106 0)
(0.44839 -0.676031 0)
(0.406935 -0.751983 0)
(0.670233 -0.880503 0)
(0.906979 -0.620243 0)
(0.847587 -0.929728 0)
(0.564093 -0.854897 0)
(0.137653 -0.359811 0)
(0.106084 -0.553661 0)
(-0.0855988 -0.509027 0)
(-0.0962646 -0.574433 0)
(-0.0272563 -0.581115 0)
(0.00292438 -0.602372 0)
(0.00911521 -0.568691 0)
(-0.00285218 -0.548289 0)
(0.0352333 -0.543822 0)
(0.0290007 -0.555747 0)
(0.0491333 -0.538123 0)
(0.0497347 -0.568418 0)
(0.158881 -0.544096 0)
(0.113141 -0.56762 0)
(0.312597 -0.51412 0)
(0.153451 -0.690804 0)
(0.424306 -0.590021 0)
(0.2791 -0.780884 0)
(0.406109 -0.892164 0)
(0.835449 -0.905719 0)
(0.748257 -0.975854 0)
(0.725682 -1.26597 0)
(0.506099 -1.05468 0)
(0.0233931 -0.51748 0)
(0.0307705 -0.636888 0)
(0.0230761 -0.636421 0)
(0.0107555 -0.581173 0)
(0.0156596 -0.552634 0)
(0.00744923 -0.550173 0)
(0.00844354 -0.555315 0)
(0.0109038 -0.552928 0)
(0.0287959 -0.546363 0)
(0.0284461 -0.579332 0)
(0.053883 -0.54671 0)
(0.0490492 -0.56187 0)
(0.141693 -0.595343 0)
(0.122419 -0.579964 0)
(0.143202 -0.568638 0)
(0.117134 -0.736542 0)
(0.499588 -0.536122 0)
(0.271471 -0.991586 0)
(0.305016 -0.738192 0)
(0.444156 -0.885217 0)
(0.384769 -1.29317 0)
(0.630298 -1.33526 0)
(0.519598 -1.16326 0)
(0.0115327 -0.500945 0)
(0.011775 -0.555453 0)
(-0.00311787 -0.562404 0)
(-0.0151347 -0.570138 0)
(0.000111179 -0.568412 0)
(0.00292823 -0.576926 0)
(0.00994883 -0.572691 0)
(0.0118248 -0.577672 0)
(0.0196651 -0.572809 0)
(0.0341014 -0.593533 0)
(0.0677082 -0.551789 0)
(0.0209536 -0.585551 0)
(0.104218 -0.553556 0)
(0.104774 -0.513726 0)
(0.0466825 -0.611719 0)
(0.148247 -0.720371 0)
(0.111451 -0.638141 0)
(0.22926 -1.17635 0)
(0.450344 -0.708471 0)
(0.268606 -1.12855 0)
(0.0793435 -0.875288 0)
(0.40609 -1.03268 0)
(0.20244 -0.959488 0)
(0.00398577 -0.543742 0)
(0.00914788 -0.584029 0)
(0.0113962 -0.586406 0)
(0.00461083 -0.579716 0)
(0.011276 -0.571701 0)
(0.00771681 -0.576397 0)
(0.0137411 -0.575242 0)
(0.0161094 -0.580584 0)
(0.0200828 -0.585749 0)
(0.044169 -0.591999 0)
(0.0643071 -0.621507 0)
(0.0772358 -0.632833 0)
(0.23847 -0.619445 0)
(0.0231497 -0.745904 0)
(-0.0497766 -0.633514 0)
(0.0557212 -0.689408 0)
(-0.00605878 -0.747556 0)
(0.310177 -0.901672 0)
(0.30927 -1.24889 0)
(0.271937 -1.2775 0)
(-0.0758504 -0.980472 0)
(0.0240019 -0.818797 0)
(0.178216 -0.877739 0)
(0.00273691 -0.535289 0)
(0.00238637 -0.567387 0)
(0.00264311 -0.573882 0)
(-0.000511233 -0.576146 0)
(0.00465246 -0.579432 0)
(0.00190569 -0.585167 0)
(0.00793187 -0.587438 0)
(0.00585291 -0.595889 0)
(0.0131877 -0.601745 0)
(0.0108956 -0.613135 0)
(0.0274928 -0.646471 0)
(0.0238619 -0.66939 0)
(0.0466003 -0.7233 0)
(0.00628247 -0.844634 0)
(-0.00157782 -0.652724 0)
(0.0102306 -0.720962 0)
(0.00855831 -0.724155 0)
(-0.0432518 -0.823046 0)
(0.0457288 -1.43433 0)
(-0.033538 -1.26654 0)
(0.00602623 -1.35689 0)
(0.104327 -0.585539 0)
(-0.205156 -0.799342 0)
(0.00229711 -0.547938 0)
(0.00175463 -0.57643 0)
(0.00351376 -0.577806 0)
(0.000943279 -0.579215 0)
(0.00312428 -0.58131 0)
(-4.23483e-05 -0.586341 0)
(0.00229881 -0.587155 0)
(-0.00123098 -0.595293 0)
(0.00306308 -0.598822 0)
(0.00194014 -0.616273 0)
(0.0055266 -0.624633 0)
(-0.00176505 -0.660227 0)
(0.00664527 -0.677843 0)
(-0.0184508 -0.71057 0)
(-0.0570778 -0.627968 0)
(-0.0349952 -0.678291 0)
(-0.140172 -0.689673 0)
(-0.21385 -0.932968 0)
(-0.274704 -1.21602 0)
(-0.148037 -0.969844 0)
(0.0307345 -0.859569 0)
(-0.0698172 -0.716485 0)
(-0.380277 -0.502563 0)
(0.00195597 -0.546646 0)
(0.000573691 -0.572403 0)
(0.000529776 -0.573295 0)
(-0.00209317 -0.576449 0)
(-0.00120824 -0.578901 0)
(-0.00420434 -0.584936 0)
(-0.00244607 -0.587755 0)
(-0.00577211 -0.597614 0)
(-0.00477221 -0.603567 0)
(-0.0123255 -0.619388 0)
(-0.01291 -0.632651 0)
(-0.0214012 -0.668728 0)
(-0.0322291 -0.687938 0)
(-0.0473115 -0.705565 0)
(-0.0738283 -0.616886 0)
(-0.0992535 -0.626123 0)
(-0.204419 -0.728368 0)
(-0.391015 -0.756387 0)
(-0.173981 -0.906864 0)
(-0.217008 -0.853976 0)
(-0.656418 -0.749237 0)
(-0.588323 -0.808557 0)
(-0.835395 -0.326016 0)
(0.00193812 -0.553682 0)
(0.000608528 -0.576122 0)
(-0.000649568 -0.576066 0)
(-0.00294176 -0.578601 0)
(-0.00329703 -0.579409 0)
(-0.00553975 -0.583958 0)
(-0.00529111 -0.584862 0)
(-0.0102022 -0.591381 0)
(-0.0119914 -0.589921 0)
(-0.0210919 -0.602839 0)
(-0.0249677 -0.610253 0)
(-0.0406015 -0.629589 0)
(-0.0579214 -0.630183 0)
(-0.0788588 -0.637296 0)
(-0.110186 -0.559802 0)
(-0.174967 -0.572002 0)
(-0.250461 -0.628109 0)
(-0.399225 -0.631603 0)
(-0.454657 -0.726315 0)
(-0.729642 -0.818509 0)
(-0.859898 -0.787335 0)
(-0.805104 -0.604994 0)
(-1.11739 -0.443235 0)
(0.000874503 -0.554856 0)
(-0.00159039 -0.573727 0)
(-0.00255846 -0.573856 0)
(-0.00547657 -0.577141 0)
(-0.0072281 -0.575864 0)
(-0.00973644 -0.580281 0)
(-0.0126727 -0.579042 0)
(-0.0167673 -0.585499 0)
(-0.0217371 -0.584869 0)
(-0.0269806 -0.59537 0)
(-0.038193 -0.592872 0)
(-0.0495726 -0.61238 0)
(-0.0693161 -0.606901 0)
(-0.0848472 -0.60888 0)
(-0.103058 -0.515917 0)
(-0.163663 -0.491368 0)
(-0.227855 -0.508592 0)
(-0.354198 -0.551632 0)
(-0.335395 -0.541109 0)
(-0.806162 -0.571623 0)
(-0.989625 -0.544095 0)
(-0.883748 -0.509822 0)
(-1.10434 -0.437025 0)
(-3.65549e-06 -0.554447 0)
(-0.00133895 -0.569621 0)
(-0.00247241 -0.569435 0)
(-0.00465714 -0.569708 0)
(-0.00668391 -0.568523 0)
(-0.00983732 -0.570309 0)
(-0.0127944 -0.568 0)
(-0.0178159 -0.5713 0)
(-0.0223006 -0.565844 0)
(-0.0308285 -0.57054 0)
(-0.0437921 -0.559107 0)
(-0.0535668 -0.568938 0)
(-0.0731994 -0.547468 0)
(-0.101197 -0.579212 0)
(-0.108491 -0.474445 0)
(-0.19006 -0.456187 0)
(-0.228298 -0.449456 0)
(-0.326637 -0.47184 0)
(-0.474494 -0.505563 0)
(-0.52042 -0.647805 0)
(-0.68072 -0.320643 0)
(-0.587091 -0.246612 0)
(-0.987409 -0.10635 0)
(0.000151893 -0.545076 0)
(-0.00138792 -0.558688 0)
(-0.00359334 -0.557889 0)
(-0.00545394 -0.558439 0)
(-0.00814058 -0.5564 0)
(-0.0104311 -0.557526 0)
(-0.0144475 -0.553822 0)
(-0.0180718 -0.555832 0)
(-0.0239158 -0.548571 0)
(-0.0262711 -0.546836 0)
(-0.0436977 -0.538841 0)
(-0.0321078 -0.539696 0)
(-0.0916314 -0.534698 0)
(-0.123686 -0.509138 0)
(-0.07892 -0.433899 0)
(-0.20034 -0.368593 0)
(-0.24145 -0.351054 0)
(-0.344722 -0.296031 0)
(-0.52825 -0.320223 0)
(-0.632663 -0.300527 0)
(-0.726615 -0.124264 0)
(-0.714492 -0.02338 0)
(-1.02549 -0.152823 0)
(0.000241106 -0.556541 0)
(-0.000776934 -0.566761 0)
(-0.00278891 -0.566034 0)
(-0.0039637 -0.565575 0)
(-0.0066797 -0.563403 0)
(-0.00769166 -0.563266 0)
(-0.0114442 -0.557177 0)
(-0.0138334 -0.560377 0)
(-0.0187482 -0.5528 0)
(-0.0166932 -0.54491 0)
(-0.033208 -0.544283 0)
(-0.0582314 -0.513308 0)
(-0.0877676 -0.530269 0)
(-0.0993869 -0.420897 0)
(-0.0637197 -0.384072 0)
(-0.162845 -0.312281 0)
(-0.178297 -0.308832 0)
(-0.255295 -0.211275 0)
(-0.360504 -0.191942 0)
(-0.499596 -0.0826732 0)