/*--------------------------------*- C++ -*----------------------------------*\
| =========                 |                                                 |
| \\      /  F ield         | foam-extend: Open Source CFD                    |
|  \\    /   O peration     | Version:     4.1                                |
|   \\  /    A nd           | Web:         http://www.foam-extend.org         |
|    \\/     M anipulation  |                                                 |
\*---------------------------------------------------------------------------*/
FoamFile
{
    version     2.0;
    format      ascii;
    class       volVectorField;
    location    "0.45";
    object      U_0;
}
// * * * * * * * * * * * * * * * * * * * * * * * * * * * * * * * * * * * * * //

dimensions      [0 1 -1 0 0 0 0];

internalField   nonuniform List<vector> 
2268
(
(0.0432498 -0.00594279 0)
(0.0517276 -0.00386004 0)
(0.109169 -0.00714284 0)
(0.168881 -0.00506812 0)
(0.198608 -0.00250617 0)
(0.260392 -0.00698836 0)
(0.271114 -0.00316029 0)
(0.330257 -0.00176979 0)
(0.322918 0.00019473 0)
(0.355514 -0.0319329 0)
(0.309194 -0.031172 0)
(0.265485 0.0071953 0)
(0.307057 0.00583559 0)
(0.293531 0.00593227 0)
(0.292287 0.0068877 0)
(0.282997 0.00172551 0)
(0.273034 0.00915994 0)
(0.259264 0.007059 0)
(0.246477 0.00033917 0)
(0.224583 0.00780355 0)
(0.176273 0.0181776 0)
(0.124118 0.009647 0)
(0.0531007 0.0263854 0)
(0.0421535 -0.0165348 0)
(0.0528256 -0.0115864 0)
(0.11477 -0.0208887 0)
(0.168119 -0.0156282 0)
(0.198551 -0.0196908 0)
(0.262726 -0.0096081 0)
(0.275547 -0.0143915 0)
(0.336697 -0.0112431 0)
(0.319774 -0.00573829 0)
(0.376215 0.0347083 0)
(0.287631 -0.0813482 0)
(0.246823 -0.0142443 0)
(0.285245 -0.0114796 0)
(0.27331 -0.00136344 0)
(0.276213 0.00529161 0)
(0.272743 0.00701422 0)
(0.263557 0.00918028 0)
(0.244209 0.0185716 0)
(0.240066 0.0162927 0)
(0.223574 0.025 0)
(0.174172 0.0292361 0)
(0.128179 0.0491446 0)
(0.0332964 0.0580918 0)
(0.0380178 -0.0284492 0)
(0.0521395 -0.0209068 0)
(0.121259 -0.0346615 0)
(0.160487 -0.0242708 0)
(0.195074 -0.0254807 0)
(0.264967 -0.0249336 0)
(0.279388 -0.0207641 0)
(0.333859 -0.0127252 0)
(0.351647 -0.00569789 0)
(0.328559 -0.0333643 0)
(0.26055 -0.0962051 0)
(0.242713 -0.0239238 0)
(0.269312 -0.0149974 0)
(0.260301 0.00316215 0)
(0.259561 0.0017489 0)
(0.25332 0.0172458 0)
(0.245261 0.012544 0)
(0.235783 0.026752 0)
(0.229531 0.0389293 0)
(0.213919 0.0413226 0)
(0.176965 0.0604458 0)
(0.137995 0.0763136 0)
(0.0580244 0.100519 0)
(0.0321967 -0.0378221 0)
(0.0523098 -0.0311555 0)
(0.126593 -0.0468821 0)
(0.155012 -0.0327692 0)
(0.202007 -0.0449209 0)
(0.265552 -0.0285741 0)
(0.281442 -0.03261 0)
(0.345227 -0.0300073 0)
(0.283032 -0.0166445 0)
(0.251503 -0.0682888 0)
(0.240409 -0.0564276 0)
(0.199953 -0.00255169 0)
(0.208719 -0.00250249 0)
(0.187758 0.00835192 0)
(0.190969 0.0104991 0)
(0.186949 0.0202213 0)
(0.177848 0.0171712 0)
(0.177452 0.030603 0)
(0.175584 0.0342622 0)
(0.174981 0.0493852 0)
(0.152173 0.0657356 0)
(0.134962 0.106301 0)
(0.0414938 0.151323 0)
(0.0250717 -0.0485123 0)
(0.0523325 -0.0431214 0)
(0.127712 -0.0590511 0)
(0.15815 -0.0413983 0)
(0.209009 -0.0522854 0)
(0.248659 -0.0444907 0)
(0.271457 -0.0383851 0)
(0.342178 -0.011022 0)
(0.258028 -0.092733 0)
(0.224605 -0.0356713 0)
(0.205121 -0.0522192 0)
(0.181081 -0.0139624 0)
(0.191886 -0.00654238 0)
(0.175164 0.00525623 0)
(0.166746 0.00912696 0)
(0.1444 0.006636 0)
(0.142557 0.0144294 0)
(0.132427 0.0285612 0)
(0.121643 0.041506 0)
(0.130754 0.0541059 0)
(0.112747 0.077144 0)
(0.122066 0.127152 0)
(0.0718276 0.183379 0)
(0.0221121 -0.056004 0)
(0.0586992 -0.0553013 0)
(0.131547 -0.0723261 0)
(0.158399 -0.0520432 0)
(0.201145 -0.0672104 0)
(0.23938 -0.0416086 0)
(0.289737 -0.0606897 0)
(0.251501 -0.0312018 0)
(0.20828 -0.0892643 0)
(0.210719 -0.0415422 0)
(0.195853 -0.0378764 0)
(0.171933 -0.00204145 0)
(0.174473 0.00198055 0)
(0.152773 0.0179211 0)
(0.141966 0.0169314 0)
(0.134015 0.0312236 0)
(0.124815 0.0215502 0)
(0.115941 0.0516799 0)
(0.111809 0.0328624 0)
(0.114971 0.0548557 0)
(0.0869927 0.0710798 0)
(0.119474 0.12913 0)
(0.0605154 0.245108 0)
(0.0243157 -0.0678074 0)
(0.0656822 -0.0689002 0)
(0.126733 -0.0824548 0)
(0.14673 -0.0574066 0)
(0.20067 -0.0720098 0)
(0.233184 -0.0695229 0)
(0.249344 -0.0326621 0)
(0.224345 -0.0960555 0)
(0.197637 -0.0811836 0)
(0.202749 -0.0337072 0)
(0.189437 -0.0289527 0)
(0.171474 -0.00321983 0)
(0.177266 0.00768466 0)
(0.155706 0.021257 0)
(0.146144 0.0145535 0)
(0.124398 0.0160849 0)
(0.127462 0.0247994 0)
(0.112324 0.0402237 0)
(0.104053 0.0442897 0)
(0.113821 0.0659865 0)
(0.0903961 0.077301 0)
(0.138357 0.140034 0)
(0.097038 0.265062 0)
(0.0319283 -0.0768504 0)
(0.0670931 -0.0792379 0)
(0.127883 -0.0921043 0)
(0.144414 -0.0718317 0)
(0.194131 -0.0908583 0)
(0.238029 -0.0455866 0)
(0.199231 -0.0736214 0)
(0.202705 -0.106365 0)
(0.200824 -0.0822133 0)
(0.198981 -0.0387311 0)
(0.201394 -0.0247481 0)
(0.183643 0.00082684 0)
(0.180953 0.0206647 0)
(0.147032 0.0320825 0)
(0.129335 0.03488 0)
(0.136491 0.0439447 0)
(0.138617 0.0211236 0)
(0.128593 0.022052 0)
(0.131174 0.0238215 0)
(0.12149 0.0662899 0)
(0.11247 0.057251 0)
(0.145318 0.179285 0)
(0.0993918 0.314798 0)
(0.0834637 -0.0501615 0)
(0.17034 -0.0175544 0)
(0.253917 -0.0774397 0)
(0.3655 -0.168915 0)
(0.473125 -0.200064 0)
(0.562481 -0.188195 0)
(0.698863 -0.167556 0)
(0.847108 -0.172982 0)
(0.993102 -0.122972 0)
(0.921571 0.0132058 0)
(-0.538317 0.417962 0)
(-3.3699 -0.057831 0)
(-3.44608 -0.277412 0)
(-3.12003 -0.620848 0)
(-2.90133 -0.655361 0)
(-2.77759 -0.277735 0)
(-1.64052 -0.351697 0)
(-0.979796 -0.860342 0)
(-0.108574 -0.497685 0)
(-0.163925 -0.0587946 0)
(0.0507848 -0.0522563 0)
(0.568945 -0.085086 0)
(0.684632 -0.0223671 0)
(0.972312 -0.000397093 0)
(1.18762 0.10212 0)
(1.28627 -0.0994324 0)
(1.23139 -0.0913857 0)
(1.08675 0.12406 0)
(0.741621 0.519071 0)
(-0.782088 1.32149 0)
(-3.11286 0.666896 0)
(-3.39219 0.513236 0)
(-2.53758 0.0897992 0)
(-2.19373 -0.603534 0)
(-2.56104 0.0420379 0)
(-2.12101 0.424892 0)
(-0.856472 -0.47039 0)
(-0.20865 -0.385559 0)
(-0.268579 0.000551487 0)
(0.0975 -0.33593 0)
(0.826516 -0.30388 0)
(0.91287 -0.19688 0)
(1.24133 -0.258849 0)
(1.71604 0.156229 0)
(1.78997 0.0039415 0)
(1.8592 0.0892518 0)
(1.63851 0.192905 0)
(0.21216 1.2374 0)
(0.0924652 1.8418 0)
(-1.07659 1.08286 0)
(-2.6094 0.539162 0)
(-2.24294 -1.38295 0)
(-1.90476 -0.840685 0)
(-1.64599 -0.562888 0)
(-1.14842 -0.566429 0)
(-0.572441 -0.487556 0)
(-0.304205 -0.514559 0)
(-0.216266 0.0344361 0)
(0.175927 -0.495029 0)
(0.466548 -0.373284 0)
(0.588585 -0.491651 0)
(1.2413 -0.11885 0)
(1.27469 -0.536413 0)
(1.34864 -0.484398 0)
(1.72967 -0.198667 0)
(1.79636 0.471594 0)
(0.588465 1.15737 0)
(0.382557 1.88618 0)
(0.403828 1.26714 0)
(-0.0648101 0.567906 0)
(-2.57197 -1.46749 0)
(-3.00437 -0.722545 0)
(-1.93769 -0.407416 0)
(-1.01113 -0.586098 0)
(-0.456701 -0.84218 0)
(-0.163924 -0.683191 0)
(0.45785 0.037619 0)
(0.0757606 -0.747939 0)
(0.107102 -0.361666 0)
(0.154737 -0.326561 0)
(0.488632 -0.293757 0)
(0.677766 -0.868122 0)
(0.931087 -0.616129 0)
(1.71784 -0.13041 0)
(1.75351 0.847042 0)
(1.15489 1.68954 0)
(0.617302 1.99973 0)
(0.806284 1.36421 0)
(0.574139 1.08799 0)
(-2.4941 -0.733734 0)
(-3.18905 -0.507172 0)
(-1.94749 -0.455849 0)
(-0.68823 -0.814439 0)
(-0.261526 -0.980634 0)
(-0.125093 -0.767549 0)
(0.223495 -0.228562 0)
(-0.00645753 -0.832783 0)
(-0.0315851 -0.406709 0)
(0.0408999 -0.240293 0)
(0.149534 -0.402815 0)
(0.300632 -0.598663 0)
(0.737263 -0.339932 0)
(0.987186 -0.186506 0)
(1.54689 0.689776 0)
(1.32589 1.88126 0)
(0.977966 2.05926 0)
(0.809566 1.46356 0)
(0.653076 1.47336 0)
(-1.68432 -0.13019 0)
(-2.24353 -0.287237 0)
(-0.817641 -0.952697 0)
(-0.212597 -1.13525 0)
(-0.123142 -1.10225 0)
(-0.047562 -0.828296 0)
(0.154861 -0.27384 0)
(0.0295297 -0.893114 0)
(-0.0517462 -0.49891 0)
(-0.0977146 -0.30459 0)
(-0.0312959 -0.459741 0)
(0.0837133 -0.499174 0)
(0.298212 -0.54263 0)
(0.553643 -0.420167 0)
(1.19911 0.624162 0)
(1.26242 1.86478 0)
(1.2848 1.81913 0)
(0.60438 1.67842 0)
(0.437214 1.82714 0)
(-0.842048 0.314499 0)
(-0.671813 -0.473337 0)
(-0.20938 -0.750199 0)
(0.148306 -1.12735 0)
(0.00845746 -1.06316 0)
(0.00504947 -0.841122 0)
(0.163879 -0.450634 0)
(0.127447 -0.481602 0)
(0.203377 -0.592666 0)
(-0.240556 -0.232421 0)
(-0.144129 -0.52793 0)
(-0.0495882 -0.580097 0)
(0.0647311 -0.586045 0)
(-0.00953026 -0.465282 0)
(0.513578 0.293326 0)
(1.12451 1.70982 0)
(1.28222 1.69646 0)
(0.401115 1.91183 0)
(0.292766 2.09197 0)
(-0.186276 0.629886 0)
(-0.0186591 -0.539899 0)
(0.339943 -0.964684 0)
(0.277245 -1.14945 0)
(0.0624082 -1.00708 0)
(0.0400433 -0.824188 0)
(0.0357411 -0.0995075 0)
(0.060778 -0.098503 0)
(0.120028 -0.107821 0)
(0.133156 -0.0705386 0)
(0.20534 -0.095047 0)
(0.177079 -0.101442 0)
(0.174373 -0.11862 0)
(0.207646 -0.102921 0)
(0.20062 -0.0757193 0)
(0.21022 -0.0351595 0)
(0.21686 -0.0146847 0)
(0.204179 0.0132754 0)
(0.196561 0.0541251 0)
(0.161176 0.05511 0)
(0.166815 0.080323 0)
(0.131821 0.0717554 0)
(0.117462 0.0430194 0)
(0.126572 0.0499473 0)
(0.149721 0.0105814 0)
(0.132741 0.0792742 0)
(0.168638 0.076398 0)
(0.262942 0.20986 0)
(0.205128 0.325522 0)
(0.0404446 -0.116921 0)
(0.0534429 -0.115804 0)
(0.136415 -0.122338 0)
(0.128842 -0.120002 0)
(0.132161 -0.115815 0)
(0.166225 -0.164234 0)
(0.188082 -0.109204 0)
(0.209868 -0.124507 0)
(0.242967 -0.0958066 0)
(0.252213 -0.0614 0)
(0.260774 -0.0279776 0)
(0.243247 0.0117147 0)
(0.206827 0.0260457 0)
(0.207385 0.054118 0)
(0.161301 0.0734237 0)
(0.137582 0.0432118 0)
(0.161481 0.0495774 0)
(0.122682 0.0347181 0)
(0.158374 0.036949 0)
(0.227525 0.0535752 0)
(0.272437 0.111773 0)
(0.271709 0.156292 0)
(0.297796 0.161531 0)
(0.0162359 -0.147332 0)
(0.0429198 -0.147535 0)
(0.0677989 -0.147374 0)
(0.129996 -0.188212 0)
(0.14013 -0.137044 0)
(0.171705 -0.162113 0)
(0.199548 -0.158772 0)
(0.244354 -0.161918 0)
(0.278267 -0.116786 0)
(0.263958 -0.0529009 0)
(0.26143 -0.00115013 0)
(0.210755 0.0673771 0)
(0.168451 0.0882342 0)
(0.14739 0.0989851 0)
(0.130036 0.0800999 0)
(0.124488 0.0603115 0)
(0.156801 0.0179088 0)
(0.157197 0.0117504 0)
(0.182642 0.0636983 0)
(0.193143 0.0319014 0)
(0.221046 0.0542395 0)
(0.246281 0.0200357 0)
(0.271789 0.0426871 0)
(0.0316236 -0.177145 0)
(-0.0052788 -0.167299 0)
(0.0484348 -0.209388 0)
(0.0212227 -0.183204 0)
(0.0628204 -0.161966 0)
(0.0752249 -0.215774 0)
(0.0778298 -0.186788 0)
(0.0477173 -0.196704 0)
(0.00756957 -0.11829 0)
(0.0303132 -0.0480299 0)
(-0.00490754 0.0326973 0)
(0.0461203 0.118039 0)
(-0.0330075 0.101748 0)
(-0.029419 0.0975715 0)
(0.028922 0.0925501 0)
(0.0499296 0.0220137 0)
(0.110038 0.0146231 0)
(0.143551 0.014623 0)
(0.15211 0.0668333 0)
(0.178878 0.0240123 0)
(0.213905 0.0494427 0)
(0.255035 0.0160622 0)
(0.276377 0.0045588 0)
(-0.0107583 -0.177869 0)
(-0.0521365 -0.163959 0)
(-0.050827 -0.186255 0)
(-0.0342142 -0.197669 0)
(0.015098 -0.193055 0)
(0.0038961 -0.176438 0)
(-0.0402847 -0.131085 0)
(-0.0916206 -0.101579 0)
(-0.135868 -0.0821842 0)
(-0.16408 -0.0507762 0)
(-0.173244 0.0234333 0)
(-0.141006 0.245963 0)
(-0.143372 0.172919 0)
(-0.0709358 0.0346672 0)
(-0.0460187 -0.00261674 0)
(0.0124627 -0.0250831 0)
(0.0349295 -0.0767998 0)
(0.0778668 -0.03045 0)
(-0.015097 -0.0358825 0)
(0.193245 -0.0429886 0)
(0.141054 -0.0227046 0)
(0.172566 -0.0429 0)
(0.259675 -0.0468518 0)
(-0.0144876 -0.114355 0)
(-0.0488046 -0.129857 0)
(-0.0468795 -0.22218 0)
(-0.004405 -0.245286 0)
(0.0113274 -0.203683 0)
(0.00770168 -0.149924 0)
(-0.0387156 -0.0927563 0)
(-0.0827191 -0.092541 0)
(-0.111683 -0.0533534 0)
(-0.161506 -0.0192838 0)
(-0.140594 -0.00258707 0)
(-0.0531672 0.0482752 0)
(-0.00836146 0.0197599 0)
(0.0613848 0.0893136 0)
(0.0675515 0.00579408 0)
(0.129858 -0.0580603 0)
(0.0128239 -0.0501687 0)
(0.0852001 0.0591894 0)
(-0.0823293 0.0416402 0)
(-0.00854153 -0.0469484 0)
(-0.330893 -0.114628 0)
(0.202292 -0.112111 0)
(0.18429 -0.12083 0)
(-0.00772505 -0.114667 0)
(0.00233366 -0.126839 0)
(-0.00664168 -0.231364 0)
(0.0318757 -0.252336 0)
(0.0159372 -0.205749 0)
(0.0202584 -0.139177 0)
(-0.00697434 -0.0873772 0)
(-0.0222272 -0.0672757 0)
(-0.0286268 -0.0374037 0)
(-0.0468578 -0.0360633 0)
(-0.0805485 0.0557939 0)
(-0.00859108 -0.0147005 0)
(0.0117958 -0.0275546 0)
(0.0622492 -0.023208 0)
(0.0886753 -0.0565913 0)
(0.132269 -0.0150264 0)
(0.0948771 -0.00276337 0)
(0.110736 0.0954095 0)
(0.105589 0.0232441 0)
(0.157654 0.0838563 0)
(0.133936 -0.131319 0)
(0.161592 -0.377782 0)
(-0.0408046 -0.254424 0)
(-0.0102909 -0.109718 0)
(0.0137256 -0.1292 0)
(0.00921098 -0.251704 0)
(0.0552566 -0.265625 0)
(0.0385659 -0.193819 0)
(0.0330602 -0.125021 0)
(0.0153056 -0.0619397 0)
(0.00311033 -0.0555895 0)
(0.00145334 -0.0324563 0)
(-0.0218812 -0.0255448 0)
(0.0137808 0.00343517 0)
(0.0408277 -0.0158094 0)
(0.0179108 -0.0574481 0)
(0.0179609 -0.029897 0)
(0.0418434 -0.0684381 0)
(0.0513812 -0.0278358 0)
(0.0723381 -0.0140959 0)
(0.10586 0.0458917 0)
(0.127666 -0.0203183 0)
(0.157129 -0.0596397 0)
(0.196674 -0.183263 0)
(0.153389 -0.296842 0)
(0.0892511 -0.218944 0)
(-0.0066461 -0.118069 0)
(0.0125367 -0.14441 0)
(0.0149855 -0.274573 0)
(0.0677703 -0.280554 0)
(0.0475233 -0.184214 0)
(0.037896 -0.116729 0)
(0.0314057 -0.0576161 0)
(0.0246997 -0.0560229 0)
(0.0298472 -0.0211484 0)
(0.0310362 -0.040232 0)
(0.0408107 -0.0253807 0)
(0.0367983 -0.0349516 0)
(0.054813 -0.0772139 0)
(0.0506542 -0.0656659 0)
(0.0686064 -0.0810548 0)
(0.0696706 -0.0552254 0)
(0.0944577 -0.0426248 0)
(0.121377 -0.0374389 0)
(0.127873 -0.0184825 0)
(0.111853 -0.0589356 0)
(0.169825 -0.0902689 0)
(0.321527 -0.115578 0)
(0.175429 -0.11643 0)
(0.000249145 -0.116759 0)
(0.00614718 -0.149473 0)
(0.0248208 -0.311534 0)
(0.0774411 -0.298121 0)
(0.0536397 -0.167053 0)
(0.0334498 -0.106969 0)
(0.0370147 -0.0471458 0)
(0.0400033 -0.0547111 0)
(0.0331483 -0.00361878 0)
(0.0453476 -0.0330525 0)
(0.0855797 -0.0124646 0)
(0.068973 -0.0409904 0)
(0.080265 -0.0715912 0)
(0.0924856 -0.0676796 0)
(0.0597049 -0.0907961 0)
(0.0862225 -0.0505487 0)
(0.142716 -0.0712437 0)
(0.162859 0.0230148 0)
(0.144346 -0.0593202 0)
(0.150695 -0.0356913 0)
(0.169431 -0.0434389 0)
(0.112115 -0.0999091 0)
(0.028573 -0.108643 0)
(0.00173314 -0.124539 0)
(0.00637368 -0.167315 0)
(0.0251855 -0.348251 0)
(0.0778361 -0.31108 0)
(0.0460895 -0.139957 0)
(0.0214154 -0.101915 0)
(0.0325069 -0.0656389 0)
(0.0472122 -0.0525577 0)
(0.048644 -0.0358634 0)
(0.07084 -0.0238506 0)
(0.0858693 -0.0609558 0)
(0.0704054 -0.0228937 0)
(0.0915798 -0.119753 0)
(0.0819217 -0.0502887 0)
(0.110492 -0.0757482 0)
(0.140379 -0.0267219 0)
(0.186822 -0.0765067 0)
(0.125121 -0.0754071 0)
(0.12795 -0.103089 0)
(0.133052 -0.108387 0)
(0.115998 -0.0196638 0)
(0.254893 -0.0446153 0)
(0.177942 -0.0656991 0)
(-0.00148967 -0.126501 0)
(0.0144378 -0.171246 0)
(0.0221907 -0.386014 0)
(0.0759121 -0.314242 0)
(0.0246059 -0.108771 0)
(0.00348268 -0.0953832 0)
(0.0474953 -0.0654517 0)
(0.0337101 -0.0765035 0)
(0.0647052 -0.00833136 0)
(0.0757691 -0.0831344 0)
(0.125397 0.0225954 0)
(0.100231 -0.0660376 0)
(0.135874 -0.0572618 0)
(0.189706 -0.106643 0)
(0.113286 -0.0240358 0)
(0.131921 -0.0907436 0)
(0.148308 -0.0636306 0)
(0.148123 -0.0263479 0)
(0.157644 -0.0966543 0)
(0.215007 0.0153757 0)
(0.289342 -0.0245417 0)
(0.189842 -0.0539963 0)
(0.151003 -0.147342 0)
(0.00777294 -0.136846 0)
(0.0217767 -0.174228 0)
(0.0269049 -0.42949 0)
(0.062399 -0.313902 0)
(-0.0045282 -0.0668107 0)
(0.00435312 -0.100594 0)
(0.0213116 -0.0839469 0)
(0.0554498 -0.109822 0)
(0.0649091 -0.0559247 0)
(0.143526 -0.13534 0)
(0.117554 -0.0146214 0)
(0.127634 -0.102898 0)
(0.147729 -0.0668175 0)
(0.174128 -0.141305 0)
(0.121546 -0.0524111 0)
(0.151603 -0.0397918 0)
(0.318959 -0.110405 0)
(0.18433 -0.112805 0)
(0.235476 -0.142501 0)
(0.310767 -0.0337677 0)
(0.179495 0.0460219 0)
(0.191297 -0.0311132 0)
(0.179121 -0.0138689 0)
(0.00293595 -0.139231 0)
(0.0178311 -0.18016 0)
(0.0254813 -0.455102 0)
(0.0434842 -0.283731 0)
(-0.0164599 -0.0431512 0)
(0.00917167 -0.108407 0)
(0.0317266 -0.123894 0)
(0.0451536 -0.126913 0)
(0.0438252 -0.148198 0)
(0.105906 -0.182454 0)
(0.240361 -0.044953 0)
(0.210397 -0.130808 0)
(0.152419 -0.0997865 0)
(0.208437 -0.106113 0)
(0.27113 0.0307077 0)
(0.238747 -0.0966161 0)
(0.232075 -0.0452453 0)
(0.235797 -0.164083 0)
(0.276187 0.0204342 0)
(0.433909 -0.144569 0)
(0.33001 0.0370142 0)
(0.19779 0.00338309 0)
(0.234595 0.0652522 0)
(-0.00447671 -0.1612 0)
(0.0099726 -0.205424 0)
(0.0236962 -0.47223 0)
(0.036608 -0.26578 0)
(-0.0247365 -0.0499591 0)
(0.0181618 -0.132265 0)
(0.0111296 -0.14598 0)
(0.0567531 -0.119714 0)
(0.0812303 -0.197673 0)
(0.232484 -0.16935 0)
(0.262167 -0.251503 0)
(0.175017 -0.21279 0)
(0.075777 -0.10453 0)
(0.221138 -0.0101279 0)
(0.211595 -0.088763 0)
(0.296387 -0.220984 0)
(0.301489 -0.182057 0)
(0.289011 -0.119647 0)
(0.303267 -0.036008 0)
(0.282841 -0.0490819 0)
(0.404086 -0.0510631 0)
(0.404189 0.00936069 0)
(0.323312 0.0995839 0)
(-0.0167977 -0.134802 0)
(0.00309864 -0.205688 0)
(0.0232073 -0.469347 0)
(0.0337548 -0.242424 0)
(-0.0271767 -0.0146583 0)
(0.0237559 -0.145302 0)
(0.0294989 -0.141626 0)
(0.0325273 -0.152602 0)
(0.118443 -0.182177 0)
(0.113985 -0.122959 0)
(0.193894 -0.261722 0)
(0.233505 -0.188577 0)
(0.196766 -0.130687 0)
(0.207528 -0.075316 0)
(0.16501 -0.203394 0)
(0.269284 -0.0792022 0)
(0.347004 -0.238041 0)
(0.258716 -0.0314442 0)
(0.319103 -0.163029 0)
(0.461068 -0.0221263 0)
(0.454999 -0.000466675 0)
(0.472675 0.0623261 0)
(0.396552 0.104426 0)
(-0.0364139 -0.16387 0)
(0.00211568 -0.262932 0)
(0.00754652 -0.473953 0)
(0.00494318 -0.256876 0)
(-0.0298357 -0.0456581 0)
(0.0403825 -0.205479 0)
(0.00316696 -0.168109 0)
(0.0609275 -0.204191 0)
(0.166997 -0.184382 0)
(0.177569 -0.207678 0)
(0.145786 -0.159128 0)
(0.142514 -0.175246 0)
(0.13968 -0.107527 0)
(0.135554 -0.14665 0)
(0.265343 -0.145074 0)
(0.265843 -0.0690295 0)
(0.252862 -0.165004 0)
(0.380636 -0.0706561 0)
(0.345939 -0.182237 0)
(0.428718 -0.0670275 0)
(0.53398 -0.0400153 0)
(0.591399 -0.00790394 0)
(0.430142 0.137246 0)
(-0.0636547 -0.07974 0)
(0.0259362 -0.205972 0)
(0.000741458 -0.474485 0)
(-0.00511036 -0.165426 0)
(-0.0407223 -0.0501719 0)
(0.0453884 -0.143155 0)
(0.0354571 -0.152781 0)
(0.0833533 -0.206493 0)
(0.152115 -0.235697 0)
(0.148239 -0.268929 0)
(0.0957519 -0.168402 0)
(0.15927 -0.181584 0)
(0.150967 -0.115348 0)
(0.202322 -0.202587 0)
(0.248714 -0.0967751 0)
(0.224053 -0.202944 0)
(0.319197 -0.0653802 0)
(0.304746 -0.141693 0)
(0.320903 -0.139448 0)
(0.573916 -0.15736 0)
(0.567262 -0.0725996 0)
(0.655347 0.175205 0)
(0.546892 -0.029134 0)
(0.0439855 -0.143137 0)
(-0.0407139 -0.38907 0)
(-0.0200158 -0.419586 0)
(-0.0216784 -0.279221 0)
(-0.0470613 -0.194046 0)
(0.100217 -0.326648 0)
(-0.0761135 -0.216865 0)
(0.0390716 -0.196674 0)
(0.0812072 -0.218636 0)
(0.18624 -0.283646 0)
(0.108659 -0.252252 0)
(0.132554 -0.254554 0)
(0.103787 -0.223248 0)
(0.245805 -0.215618 0)
(0.299103 -0.185421 0)
(0.282948 -0.086958 0)
(0.359589 -0.10763 0)
(0.330735 -0.167454 0)
(0.341762 -0.152222 0)
(0.470493 -0.126522 0)
(0.798776 -0.0940229 0)
(0.687216 -0.114269 0)
(0.545341 -0.00618974 0)
(-0.0135518 -0.290288 0)
(0.167889 -0.547714 0)
(-0.0120312 -0.595368 0)
(-0.127993 -0.42633 0)
(-0.027001 -0.34564 0)
(0.0520854 -0.451082 0)
(0.108481 -0.397717 0)
(0.0889645 -0.388007 0)
(0.0466958 -0.260129 0)
(0.123497 -0.28135 0)
(0.0693957 -0.305635 0)
(0.143422 -0.191078 0)
(0.234 -0.272114 0)
(0.330267 -0.179859 0)
(0.343612 -0.363343 0)
(0.130593 -0.15924 0)
(0.260353 -0.25812 0)
(0.298476 -0.180263 0)
(0.393696 -0.195325 0)
(0.698553 -0.0960706 0)
(0.695088 -0.137191 0)
(0.831084 -0.207415 0)
(0.804946 -0.13637 0)
(-0.0409718 -0.312008 0)
(0.0581358 -0.554346 0)
(-0.0254077 -0.664427 0)
(0.00451107 -0.423094 0)
(-0.0117297 -0.385551 0)
(0.0771588 -0.435181 0)
(0.0326962 -0.457403 0)
(0.0749637 -0.467663 0)
(0.131513 -0.323526 0)
(0.164253 -0.298664 0)
(0.123388 -0.283323 0)
(0.17062 -0.266797 0)
(0.2409 -0.326437 0)
(0.0971592 -0.228815 0)
(0.203251 -0.400138 0)
(0.307523 -0.333492 0)
(0.374188 -0.330375 0)
(0.454711 -0.274283 0)
(0.492415 -0.0840461 0)
(0.622943 -0.253565 0)
(0.721796 -0.185611 0)
(0.784876 -0.246949 0)
(1.00911 -0.232602 0)
(-0.0378594 -0.312154 0)
(0.059502 -0.552537 0)
(-0.0280923 -0.576782 0)
(0.0213045 -0.424449 0)
(0.00440051 -0.478121 0)
(0.0614154 -0.476873 0)
(0.00164102 -0.53633 0)
(0.126914 -0.357671 0)
(0.177307 -0.313822 0)
(0.145718 -0.431651 0)
(0.0230985 -0.320726 0)
(0.119184 -0.402849 0)
(0.299307 -0.386826 0)
(0.205606 -0.404333 0)
(0.219893 -0.371215 0)
(0.235412 -0.327502 0)
(0.340645 -0.305187 0)
(0.536388 -0.181362 0)
(0.450917 -0.305057 0)
(0.543064 -0.140732 0)
(0.690405 -0.208631 0)
(0.95413 -0.324159 0)
(0.847704 -0.456894 0)
(-0.0600744 -0.374313 0)
(0.0215847 -0.570994 0)
(-0.0314934 -0.559322 0)
(-0.0456349 -0.52928 0)
(0.00962221 -0.339702 0)
(0.0810929 -0.528909 0)
(0.0667955 -0.402878 0)
(0.205844 -0.313076 0)
(0.103306 -0.37538 0)
(0.1389 -0.469595 0)
(0.123418 -0.430969 0)
(0.116006 -0.40394 0)
(0.25767 -0.4114 0)
(0.13398 -0.552814 0)
(0.215489 -0.465937 0)
(0.351531 -0.540195 0)
(0.513096 -0.249376 0)
(0.405329 -0.410566 0)
(0.530098 -0.522653 0)
(0.635607 -0.259075 0)
(0.63034 -0.356186 0)
(0.820147 -0.396113 0)
(0.795518 -0.579106 0)
(-0.0208455 -0.234309 0)
(0.0835875 -0.593132 0)
(-0.0804583 -0.5758 0)
(0.0583926 -0.338287 0)
(0.0394111 -0.260017 0)
(0.0947276 -0.361043 0)
(0.152325 -0.300605 0)
(0.123101 -0.239262 0)
(0.0598661 -0.317848 0)
(0.114443 -0.300685 0)
(0.111267 -0.432251 0)
(0.155518 -0.342789 0)
(0.11079 -0.414508 0)
(0.121278 -0.549351 0)
(0.228688 -0.374583 0)
(0.405296 -0.495221 0)
(0.531045 -0.379263 0)
(0.318509 -0.499825 0)
(0.529456 -0.564033 0)
(0.748882 -0.430968 0)
(0.86953 -0.513988 0)
(1.05022 -0.389663 0)
(0.916971 -0.713687 0)
(-0.145938 -0.137789 0)
(-0.028904 -0.406601 0)
(0.0732848 -0.426838 0)
(0.134773 -0.285969 0)
(0.0435603 -0.306125 0)
(0.11919 -0.307348 0)
(0.147306 -0.292806 0)
(0.156151 -0.368875 0)
(-0.0017757 -0.440491 0)
(-0.0431037 -0.369298 0)
(0.0830418 -0.488869 0)
(0.0983788 -0.451389 0)
(0.0846159 -0.560183 0)
(0.201733 -0.546562 0)
(0.266101 -0.544258 0)
(0.342502 -0.390323 0)
(0.459323 -0.5029 0)
(0.284828 -0.479535 0)
(0.547615 -0.350872 0)
(0.769616 -0.365032 0)
(1.04372 -0.545087 0)
(0.991063 -0.590041 0)
(0.930581 -0.956458 0)
(-0.0684979 -0.0868823 0)
(0.0443241 -0.347945 0)
(-0.0166063 -0.34402 0)
(0.0206144 -0.249717 0)
(0.0319212 -0.21148 0)
(0.14685 -0.294189 0)
(0.0230856 -0.479439 0)
(-0.0566604 -0.451774 0)
(0.0416846 -0.544018 0)
(0.00277224 -0.464701 0)
(0.0746211 -0.50478 0)
(0.058771 -0.49319 0)
(0.0439672 -0.576244 0)
(0.109909 -0.484655 0)
(0.343353 -0.556475 0)
(0.370801 -0.397919 0)
(0.470836 -0.632035 0)
(0.420323 -0.552618 0)
(0.76967 -0.443263 0)
(0.750798 -0.771982 0)
(0.875205 -0.747839 0)
(0.911056 -0.903154 0)
(0.64453 -1.02106 0)
(-0.0473529 -0.0792658 0)
(0.088011 -0.363467 0)
(0.0643933 -0.357416 0)
(0.153782 -0.344314 0)
(0.105307 -0.435021 0)
(-0.0510561 -0.473346 0)
(-0.0447144 -0.560326 0)
(-0.000947292 -0.488656 0)
(0.0174272 -0.522038 0)
(0.00920109 -0.492623 0)
(0.0694741 -0.500689 0)
(0.0289333 -0.527469 0)
(0.135375 -0.528131 0)
(0.129005 -0.482032 0)
(0.357305 -0.502933 0)
(0.136363 -0.518289 0)
(0.454104 -0.687826 0)
(0.445171 -0.681225 0)
(0.407767 -0.756866 0)
(0.66169 -0.888568 0)
(0.891907 -0.636611 0)
(0.845344 -0.939687 0)
(0.550318 -0.874412 0)
(0.137829 -0.362573 0)
(0.106235 -0.555979 0)
(-0.0861013 -0.511509 0)
(-0.0967929 -0.576939 0)
(-0.0278481 -0.583725 0)
(0.00261236 -0.605187 0)
(0.00863689 -0.571287 0)
(-0.00338103 -0.550706 0)
(0.034474 -0.546444 0)
(0.0278808 -0.557979 0)
(0.0488051 -0.540952 0)
(0.0484968 -0.570559 0)
(0.157545 -0.54712 0)
(0.110826 -0.56992 0)
(0.311439 -0.517112 0)
(0.149268 -0.693063 0)
(0.422245 -0.595319 0)
(0.273872 -0.785888 0)
(0.404324 -0.899689 0)
(0.827099 -0.917579 0)
(0.741435 -0.98142 0)
(0.718099 -1.27457 0)
(0.487882 -1.06512 0)
(0.0234335 -0.520037 0)
(0.0305237 -0.639689 0)
(0.0227752 -0.639029 0)
(0.0104396 -0.583695 0)
(0.0152316 -0.555136 0)
(0.00703514 -0.55259 0)
(0.00800203 -0.557953 0)
(0.0102096 -0.55518 0)
(0.0282853 -0.54908 0)
(0.0274835 -0.581211 0)
(0.0534997 -0.549417 0)
(0.0476683 -0.564332 0)
(0.140636 -0.597594 0)
(0.11977 -0.582364 0)
(0.143359 -0.570433 0)
(0.112905 -0.739242 0)
(0.500643 -0.538592 0)
(0.26427 -0.99948 0)
(0.299037 -0.741272 0)
(0.435378 -0.89225 0)
(0.375346 -1.30541 0)
(0.622587 -1.34756 0)
(0.500557 -1.17436 0)
(0.0115445 -0.503407 0)
(0.0117003 -0.557901 0)
(-0.00331612 -0.564769 0)
(-0.0155735 -0.572507 0)
(-0.000343387 -0.570691 0)
(0.00251674 -0.579268 0)
(0.00962944 -0.574944 0)
(0.0112239 -0.579955 0)
(0.0193336 -0.575058 0)
(0.0330141 -0.595753 0)
(0.0666719 -0.554087 0)
(0.0200051 -0.587842 0)
(0.102915 -0.556014 0)
(0.102312 -0.515716 0)
(0.0454634 -0.612525 0)
(0.14408 -0.724332 0)
(0.110069 -0.636139 0)
(0.222588 -1.18678 0)
(0.446058 -0.706326 0)
(0.257356 -1.13923 0)
(0.0646479 -0.88494 0)
(0.397162 -1.04681 0)
(0.179504 -0.964162 0)
(0.00401107 -0.546084 0)
(0.00895932 -0.586406 0)
(0.0111721 -0.588721 0)
(0.00439881 -0.582018 0)
(0.0108827 -0.573864 0)
(0.00731256 -0.578626 0)
(0.0133235 -0.577371 0)
(0.0154733 -0.582865 0)
(0.0197528 -0.587683 0)
(0.0432231 -0.594425 0)
(0.0638003 -0.622519 0)
(0.0755987 -0.635133 0)
(0.236885 -0.621811 0)
(0.021862 -0.746958 0)
(-0.0517661 -0.63476 0)
(0.0532546 -0.690776 0)
(-0.00996281 -0.747596 0)
(0.304361 -0.905796 0)
(0.301252 -1.24801 0)
(0.260059 -1.28558 0)
(-0.0872543 -0.981366 0)
(0.0103976 -0.828235 0)
(0.157003 -0.882827 0)
(0.00270201 -0.537524 0)
(0.00232944 -0.569659 0)
(0.00251429 -0.576019 0)
(-0.000806353 -0.578339 0)
(0.00434824 -0.581577 0)
(0.00156509 -0.587224 0)
(0.00757475 -0.589488 0)
(0.00544603 -0.597876 0)
(0.012701 -0.603574 0)
(0.0106312 -0.615331 0)
(0.0268071 -0.648003 0)
(0.0221659 -0.67142 0)
(0.0450102 -0.724258 0)
(0.0051972 -0.84539 0)
(-0.0025514 -0.654028 0)
(0.0077173 -0.720796 0)
(0.00670652 -0.723831 0)
(-0.048168 -0.823718 0)
(0.0407809 -1.43005 0)
(-0.0429819 -1.26074 0)
(-0.00471832 -1.35331 0)
(0.0878077 -0.59021 0)
(-0.224051 -0.798273 0)
(0.00226852 -0.550058 0)
(0.00165171 -0.578516 0)
(0.00336653 -0.579942 0)
(0.00070015 -0.581329 0)
(0.00284737 -0.583312 0)
(-0.000343428 -0.588293 0)
(0.0019887 -0.589036 0)
(-0.0016242 -0.59715 0)
(0.00258735 -0.600579 0)
(0.00131024 -0.618027 0)
(0.0048949 -0.626668 0)
(-0.00267058 -0.66157 0)
(0.00563175 -0.67872 0)
(-0.0193713 -0.711303 0)
(-0.0578321 -0.629179 0)
(-0.0358207 -0.680039 0)
(-0.141304 -0.688438 0)
(-0.216588 -0.932001 0)
(-0.276817 -1.20887 0)
(-0.148549 -0.971824 0)
(0.0307082 -0.86218 0)
(-0.0705695 -0.714958 0)
(-0.392112 -0.497038 0)
(0.00194533 -0.548689 0)
(0.000493354 -0.57442 0)
(0.000389803 -0.57526 0)
(-0.00228507 -0.578398 0)
(-0.00141286 -0.580781 0)
(-0.00444859 -0.586806 0)
(-0.00275521 -0.589504 0)
(-0.00619459 -0.599375 0)
(-0.00526005 -0.605278 0)
(-0.0128928 -0.620883 0)
(-0.0135384 -0.634029 0)
(-0.0220993 -0.669905 0)
(-0.0328429 -0.688896 0)
(-0.0479347 -0.706587 0)
(-0.0743634 -0.618186 0)
(-0.0995935 -0.626984 0)
(-0.205545 -0.727989 0)
(-0.390401 -0.754878 0)
(-0.173551 -0.906314 0)
(-0.209563 -0.857527 0)
(-0.653755 -0.748428 0)
(-0.586539 -0.803242 0)
(-0.836073 -0.312943 0)
(0.00192671 -0.555576 0)
(0.000578923 -0.578054 0)
(-0.000744206 -0.577953 0)
(-0.0030636 -0.580443 0)
(-0.00342961 -0.581202 0)
(-0.00571521 -0.585706 0)
(-0.00545119 -0.586592 0)
(-0.0104555 -0.593003 0)
(-0.0121976 -0.591511 0)
(-0.0214836 -0.604238 0)
(-0.0251568 -0.611598 0)
(-0.040969 -0.630853 0)
(-0.0581751 -0.63133 0)
(-0.0792045 -0.638536 0)
(-0.110266 -0.561261 0)
(-0.17514 -0.572882 0)
(-0.250506 -0.628841 0)
(-0.398067 -0.631283 0)
(-0.452269 -0.726376 0)
(-0.727657 -0.821126 0)
(-0.863395 -0.782935 0)
(-0.806793 -0.592439 0)
(-1.13538 -0.424671 0)
(0.000850629 -0.556741 0)
(-0.00163414 -0.575614 0)
(-0.00262861 -0.575733 0)
(-0.0055638 -0.578996 0)
(-0.00731419 -0.577698 0)
(-0.00984711 -0.582058 0)
(-0.0127553 -0.580783 0)
(-0.0169041 -0.587146 0)
(-0.0218178 -0.586389 0)
(-0.0271554 -0.596791 0)
(-0.0382293 -0.594159 0)
(-0.0497468 -0.613617 0)
(-0.0693797 -0.607962 0)
(-0.0849992 -0.610181 0)
(-0.103178 -0.517276 0)
(-0.164018 -0.492352 0)
(-0.228006 -0.509202 0)
(-0.35514 -0.551861 0)
(-0.3364 -0.541165 0)
(-0.809142 -0.571346 0)
(-0.991746 -0.538282 0)
(-0.887942 -0.49403 0)
(-1.10131 -0.430655 0)
(-2.28721e-05 -0.556289 0)
(-0.00138135 -0.571447 0)
(-0.00250229 -0.571253 0)
(-0.00470596 -0.571495 0)
(-0.0067239 -0.570286 0)
(-0.00989851 -0.572031 0)
(-0.0128262 -0.569679 0)
(-0.0178833 -0.572915 0)
(-0.0222861 -0.567405 0)
(-0.0308748 -0.572037 0)
(-0.0436735 -0.560517 0)
(-0.0535278 -0.570133 0)
(-0.0730095 -0.548681 0)
(-0.101114 -0.580397 0)
(-0.108422 -0.475744 0)
(-0.189823 -0.457166 0)
(-0.2278 -0.449777 0)
(-0.326087 -0.47123 0)
(-0.473736 -0.504474 0)
(-0.519761 -0.646593 0)
(-0.677376 -0.319541 0)
(-0.583583 -0.245039 0)
(-0.978235 -0.0956451 0)
(0.000145514 -0.546935 0)
(-0.0014091 -0.56053 0)
(-0.00361741 -0.559713 0)
(-0.00549435 -0.560243 0)
(-0.00817009 -0.55818 0)
(-0.0104812 -0.559272 0)
(-0.0144637 -0.555538 0)
(-0.0181133 -0.557502 0)
(-0.0238704 -0.550192 0)
(-0.0262995 -0.548365 0)
(-0.0435407 -0.540307 0)
(-0.0321067 -0.541111 0)
(-0.0911419 -0.535919 0)
(-0.123186 -0.510561 0)
(-0.0785589 -0.435387 0)
(-0.199504 -0.370071 0)
(-0.240538 -0.351858 0)
(-0.342984 -0.296267 0)
(-0.525243 -0.319331 0)
(-0.629455 -0.301494 0)
(-0.723985 -0.124612 0)
(-0.715093 -0.0184557 0)
(-1.02173 -0.136661 0)
(0.000233206 -0.558315 0)
(-0.000792095 -0.568532 0)
(-0.00279758 -0.567796 0)
(-0.00398356 -0.567324 0)
(-0.00668289 -0.565138 0)
(-0.00770626 -0.56498 0)
(-0.0114156 -0.558873 0)
(-0.0138372 -0.562055 0)
(-0.0186321 -0.554439 0)
(-0.016696 -0.54656 0)
(-0.0329257 -0.545793 0)
(-0.0579708 -0.514982 0)
(-0.0870136 -0.531699 0)
(-0.0988582 -0.42268 0)
(-0.0632885 -0.385765 0)
(-0.162065 -0.313834 0)
(-0.177554 -0.309894 0)
(-0.253777 -0.212597 0)
(-0.357466 -0.192474 0)
(-0.495533 -0.0804592 0)
(-0.645459 -0.106861 0)