/*--------------------------------*- C++ -*----------------------------------*\
| =========                 |                                                 |
| \\      /  F ield         | foam-extend: Open Source CFD                    |
|  \\    /   O peration     | Version:     4.1                                |
|   \\  /    A nd           | Web:         http://www.foam-extend.org         |
|    \\/     M anipulation  |                                                 |
\*---------------------------------------------------------------------------*/
FoamFile
{
    version     2.0;
    format      ascii;
    class       regIOobject;
    location    "0.7/uniform";
    object      profilingInfo;
}
// * * * * * * * * * * * * * * * * * * * * * * * * * * * * * * * * * * * * * //

profilingInfo
(

    {
        id              11;
        parentId        9;
        description     "Foam::Time::writeObject - outputTime";
        calls           14;
        totalTime       0.171539;
        childTime       0;
        onStack         1;
    }

    {
        id              9;
        parentId        1;
        description     "Foam::Time::writeObject";
        calls           796;
        totalTime       0.172284;
        childTime       0.171539;
        onStack         1;
    }

    {
        id              1;
        description     "application::main";
        calls           1;
        totalTime       16.9972;
        childTime       13.9433;
        onStack         1;
    }

    {
        id              10;
        parentId        1;
        description     "FO::DataSummary::execute";
        calls           795;
        totalTime       0.039558;
        childTime       0;
        onStack         0;
    }

    {
        id              5;
        parentId        1;
        description     "MULES::explicitSolve";
        calls           1592;
        totalTime       0.269064;
        childTime       0;
        onStack         0;
    }

    {
        id              4;
        parentId        1;
        description     "functionObjectList::read";
        calls           1;
        totalTime       8.69895;
        childTime       0;
        onStack         0;
    }

    {
        id              2;
        parentId        1;
        description     "fvMatrix::solve_pcorr";
        calls           1;
        totalTime       0.000119;
        childTime       5.7e-05;
        onStack         0;
    }

    {
        id              6;
        parentId        1;
        description     "fvMatrix::solve_pd";
        calls           3184;
        totalTime       4.76333;
        childTime       4.65515;
        onStack         0;
    }

    {
        id              8;
        parentId        7;
        description     "lduMatrix::solver_coarsestLevelCorr";
        calls           24962;
        totalTime       0.159207;
        childTime       0;
        onStack         0;
    }

    {
        id              3;
        parentId        2;
        description     "lduMatrix::solver_pcorr";
        calls           1;
        totalTime       5.7e-05;
        childTime       0;
        onStack         0;
    }

    {
        id              7;
        parentId        6;
        description     "lduMatrix::solver_pd";
        calls           3184;
        totalTime       4.65515;
        childTime       0.159207;
        onStack         0;
    }
);


// ************************************************************************* //
