/*--------------------------------*- C++ -*----------------------------------*\
| =========                 |                                                 |
| \\      /  F ield         | foam-extend: Open Source CFD                    |
|  \\    /   O peration     | Version:     4.1                                |
|   \\  /    A nd           | Web:         http://www.foam-extend.org         |
|    \\/     M anipulation  |                                                 |
\*---------------------------------------------------------------------------*/
FoamFile
{
    version     2.0;
    format      ascii;
    class       volScalarField;
    location    "0.8";
    object      pd;
}
// * * * * * * * * * * * * * * * * * * * * * * * * * * * * * * * * * * * * * //

dimensions      [1 -1 -2 0 0 0 0];

internalField   nonuniform List<scalar> 
2268
(
851.117
845.605
841.87
828.713
823.576
810.174
804.642
797.682
796.844
797.793
793.712
796.945
794.176
803.096
804.611
817.439
821.267
827.139
822.96
824.747
820.348
822.961
819.75
851.539
846.81
841.066
827.121
822.598
808.301
804.539
798.615
796.122
799.759
792.043
797.444
793.724
801.177
802.644
816.2
823.213
827.174
823.369
824.728
820.729
823.178
819.576
853.633
846.901
842.919
827.297
825.899
808.8
803.732
795.103
798.952
794.02
792.344
796.348
788.451
805.265
799.567
821.013
821.544
828.604
823.733
824.909
819.229
823.048
818.851
853.887
847.062
840.705
827.198
820.762
807.923
802.877
800.014
789.849
799.872
791.594
795.563
791.916
801.586
802.936
816.11
823.934
829.722
826.593
824.486
820.859
823.613
818.545
859.316
849.291
844.8
823.876
823.955
804.988
800.722
797.917
792.488
799.723
789.021
792.542
789.596
796.78
800.127
813.145
829.256
833.473
823.621
825.449
817.629
823.112
816.121
858.903
847.808
840.929
824.591
820.168
803.484
798.816
793.001
794.127
792.484
786.268
791.653
786.987
793.43
801.302
815.517
825.067
834.16
830.401
827.982
817.83
823.193
816.119
868.848
852.989
843.198
817.637
820.053
793.071
803.334
793.6
797.752
792.39
787.405
783.088
783.097
787.998
800.182
796.783
836.478
834.653
835.642
824.299
816.403
822.606
810.49
868.378
850.374
841.196
819.654
820.559
797.475
796.954
793.391
795.508
782.288
780.606
782.729
778.988
781.652
794.799
778.258
878.765
840.044
845.766
824.185
816.085
820.831
809.844
936.97
737.76
497.771
390.599
399.599
479.425
548.175
494.358
486.13
501.669
531.297
534.162
584.032
553.656
542.055
497.322
340.844
345.113
352.522
911.188
707.202
439.591
350.538
363.286
481.226
524.228
458.379
440.612
456.471
510.45
528.622
564.705
561.609
549.511
490.119
319.026
329.358
344.333
793.068
669.721
450.708
344.818
406.967
512.172
553.2
476.83
430.344
437.72
450.49
482.147
571.024
544.083
553.372
502.776
235.018
256.809
310.004
803.235
614.599
478.338
427.793
423.754
485.311
507.268
505.631
528.987
533.478
553.127
559.547
582.107
551.85
557.181
508.71
190.161
216.354
294.358
758.167
613.531
510.605
460.998
309.365
407.909
378.601
463.965
533.769
574.483
605.062
573.01
575.26
595.479
543.464
520.203
219.811
193.113
327.077
747.079
607.147
523.89
469.067
256.931
255.903
223.859
265.461
417.757
540.52
623.733
610.783
571.784
559.05
521.358
519.314
253.451
179.938
313.574
730.6
643.793
526.221
357.433
251.037
230.18
197.644
188.067
213.543
416.839
569.849
591.319
581.27
568.957
489.498
493.759
315.806
149.179
226.107
723.104
685.298
537.002
331.286
270.681
227.322
192.843
185.448
180.871
211.708
467.404
553.138
549.685
543.225
415.571
379.853
200.733
101.45
132.787
890.9
866.067
840.71
795.956
803.085
801.074
787.909
793.518
787.165
786.445
779.892
765.097
762.151
760.442
778.309
715.732
877.973
783.523
789.777
741.84
781.205
783.049
763.753
893.594
820.706
778.84
739.07
689.866
686.524
680.376
727.554
721.996
687.737
653.171
638.817
627.579
610.129
506.873
512.838
727.848
580.646
538.756
454.377
549.721
677.897
787.717
955.578
602.52
273.754
235.933
197.126
230.85
220.495
245.998
275.344
250.948
194.584
167.41
161.663
171.258
98.7243
119.601
390.674
715.239
779.547
428.859
314.226
427.438
781.045
928.989
168.249
84.2369
79.5878
131.789
194.728
139.393
77.0248
92.8409
77.8964
63.4012
29.9109
16.3169
28.6832
21.6436
106.499
531.789
1132.9
928.676
780.775
661.955
660.705
953.635
820.527
183.004
145.076
185.316
141.475
47.5082
42.3386
52.7519
74.418
88.836
73.0137
20.6509
5.29228
7.7531
12.3984
76.1401
569.961
1052.77
935.283
859.836
883.278
944.207
992.087
789.591
198.126
153.752
109.502
34.673
19.432
36.6092
101.562
113.598
155.216
94.2441
13.5707
5.20321
7.42044
9.1653
40.9794
327.993
999.898
978.986
1286.8
1145.07
1010.28
785.688
617.591
92.2267
48.0227
21.7361
11.4235
13.1242
24.2071
55.2458
82.0098
56.4929
12.6209
5.48862
5.16768
6.52995
13.5913
116.178
459.439
830.635
1112.97
1261.61
885.345
292.109
104.437
417.155
37.2185
11.8546
5.87336
5.68168
6.83555
6.58721
3.30495
3.59026
3.35081
3.56053
3.92189
5.49175
6.54787
13.6739
30.7982
30.358
62.8564
311.7
804.75
1111.94
1149.11
846.393
226.722
18.773
4.82064
4.56252
2.97759
2.92393
2.24562
2.17282
2.28469
1.59358
1.50118
2.40105
5.80456
10.1014
8.79925
4.98879
4.34685
4.31719
15.2835
66.3238
294.931
609.003
862.827
74.772
9.85202
2.46015
3.21022
2.78031
1.56025
1.23613
1.17463
0.979551
1.40341
3.03167
3.78694
4.73054
5.31409
3.57767
2.12463
2.00748
2.37753
5.08988
13.6579
34.2422
102.351
330.601
27.1241
7.24539
2.24662
1.60599
0.908881
0.346306
-0.276195
-0.350718
-0.129709
2.01212
7.57787
6.47733
5.31267
3.20446
2.06303
1.90606
1.77818
1.86441
2.63225
4.41403
12.6198
21.5509
38.9821
11.2372
6.99553
0.839027
0.472715
-0.718789
-1.58517
-1.53412
-1.20816
-0.413164
2.69582
6.91868
6.32036
7.31808
4.2122
2.34565
2.11443
1.96074
2.22147
1.85415
2.05848
3.87687
6.84162
14.5465
4.41771
2.60615
-0.713136
-2.15421
-3.24491
-3.20127
-2.83581
-1.46983
0.0414558
1.17617
2.33751
8.01372
7.04962
2.61278
2.64548
2.10661
1.7981
1.85751
1.61003
1.53528
2.36979
2.26134
11.0396
2.16129
0.432408
-3.30738
-4.20487
-4.34288
-4.57731
-3.76848
-2.45687
-0.837162
0.73909
2.12502
4.68665
4.98095
2.30845
2.78791
1.70587
1.60615
2.1224
2.27399
1.85382
1.60893
0.9718
-0.174748
2.79568
1.97053
-1.45921
-3.33697
-4.04595
-3.30892
-3.35157
-1.95481
-0.231806
0.91823
1.99838
1.85692
2.64548
2.72366
3.43732
2.97293
1.8659
1.9549
2.72896
2.71957
1.60887
1.12158
-0.304671
9.61964
6.84114
3.55715
-0.89957
-2.23089
-3.88625
-4.92614
-1.49032
0.479005
1.10161
1.61139
1.56662
1.71521
2.957
4.30674
3.59904
2.16755
1.59875
2.12838
1.39474
1.0871
0.567978
0.217666
17.3242
13.4987
7.15818
4.35174
2.86248
-2.40984
-5.68182
-2.45427
-1.49524
-0.508637
0.30855
0.640884
2.00612
2.19651
4.04971
3.2579
2.0603
1.49476
1.38431
0.491641
0.390468
0.249533
0.503245
15.6579
15.8282
10.9944
8.74322
6.6159
2.06653
-3.43491
0.824517
-2.86651
-2.25963
1.26209
1.48056
0.0135052
1.35569
3.34853
1.92014
1.26278
0.947111
0.649038
0.190164
0.597714
0.517551
0.627685
14.7555
15.5612
14.8921
12.7606
13.4662
41.6073
30.5772
26.1105
5.74568
10.7486
12.9753
5.37138
-0.562844
1.49905
2.74098
1.15336
1.00355
0.547126
0.355703
-0.0139802
-0.267336
0.0801832
-0.0427706
15.9984
18.6832
41.9591
68.5834
46.6325
22.3607
24.6108
12.6644
11.3405
11.5035
9.7557
4.373
-1.30734
0.963481
2.49256
0.340108
0.800193
-0.250019
-0.0707893
-0.917309
-0.761204
-0.0397967
-0.355603
16.7523
26.1159
73.3352
70.7375
45.5509
4.24175
1.64942
0.290295
8.11382
2.63732
0.289569
-0.701916
-1.0268
-0.634508
-0.206183
-0.624626
-0.741612
-1.19695
-0.903525
-1.05062
-0.854258
-0.631349
-0.0351727
20.0421
47.9511
71.1514
21.7577
0.73647
-1.10952
-1.79038
-0.91209
-0.106371
-3.12986
-3.53615
-2.48284
-0.372404
0.476884
0.486173
-0.699924
-2.45542
-2.73286
-1.9499
-0.86024
-0.759247
-0.832306
-0.438622
19.3329
48.3931
68.8677
8.60962
-0.626217
-1.32426
-2.08678
-0.768495
-0.267536
-4.82127
-4.77149
-3.9177
-2.05066
-0.783112
1.31024
1.96301
-1.98738
-2.92008
-2.04408
-1.58478
-1.94966
-0.944502
-0.612362
21.7237
49.4398
36.6681
1.32954
-0.642095
-1.21604
-2.0593
-0.777654
0.0565777
-2.84965
-4.40457
-3.82171
-3.13232
-1.22627
0.465684
0.651209
-1.21002
-2.86841
-3.06068
-1.16478
-0.670571
-0.514637
-0.617991
16.7496
46.556
14.8654
0.458742
-0.80651
-1.3298
-2.2399
-2.12582
-0.712425
-0.831671
-2.99002
-3.13074
-2.7628
-0.701553
0.999215
0.208521
-1.96766
-2.68999
-2.6353
-1.79368
-0.741715
-1.68819
-1.16988
14.8368
43.5342
5.63631
-0.239254
-1.8827
-2.35999
-2.74505
-2.78543
-2.04827
-0.649709
-0.0809544
-1.22172
-1.49502
-1.57611
-2.09788
-0.342328
-2.37588
-2.25499
-1.96506
-0.896922
-1.82232
-1.31797
-1.2028
11.8748
27.7486
7.90073
1.06686
-1.84245
-3.41519
-3.18133
-3.13322
-2.52961
-1.68911
-0.686169
-0.084816
-0.44017
-1.21098
-1.49022
-1.74562
-1.61648
-0.300759
-0.297795
-0.755053
-1.89018
-1.55104
-1.08704
3.16427
5.43257
3.32676
-0.232286
-1.69366
-3.56929
-3.25735
-3.47749
-2.61903
-2.05337
-1.4297
-1.0369
-0.656504
-1.02762
-1.22704
-1.10483
-0.858491
-0.992833
-1.1724
-1.345
-1.82762
-1.04757
-1.00421
-2.5949
-4.29595
-5.60765
-6.18969
-4.99685
-5.12927
-4.33014
-3.90675
-3.28131
-2.3608
-1.91647
-1.10479
-0.912364
-1.49675
-1.29761
-1.39393
-1.44242
-1.42408
-1.58431
-1.49656
-1.68426
-0.839614
-1.2065
-4.85793
-5.29957
-7.50323
-6.96208
-5.94787
-5.84837
-4.70378
-3.9466
-3.35904
-2.59973
-1.95156
-1.54072
-1.25404
-1.1294
-1.36954
-1.24956
-1.28264
-1.259
-1.06572
-0.931145
-0.803679
-0.756764
-0.482264
-6.98309
-7.30068
-6.7358
-6.56006
-5.26223
-4.8635
-4.2234
-3.56185
-3.05385
-2.52664
-1.96468
-1.54937
-1.13295
-1.063
-1.07042
-1.05004
-1.20903
-1.01032
-0.626489
-0.514211
-0.445429
-0.28426
-0.284075
-5.70724
-5.65591
-5.63966
-5.56596
-4.42282
-3.95987
-3.49768
-2.99684
-2.72669
-2.40626
-2.06955
-1.23383
-0.989711
-0.979628
-0.894414
-0.519083
-1.253
-1.29473
-0.25364
-0.298722
-0.205119
-0.42168
-0.281501
-2.94758
-3.96687
-4.39122
-3.7509
-3.2108
-3.05324
-2.8081
-2.54426
-2.25654
-1.98181
-1.61824
-1.21757
-1.05376
-0.996093
-0.870304
-0.787919
-0.8346
-0.729201
-0.319889
-0.280218
-0.221139
-0.236502
-0.227883
-1.05276
-1.94849
-2.20686
-2.19405
-2.18058
-2.17529
-2.06668
-1.96254
-1.82086
-1.58476
-1.30393
-1.03985
-0.942066
-0.843635
-0.773882
-0.355183
-0.8428
-0.55599
-0.556264
-0.176573
-0.144994
-0.125865
-0.00131443
-0.440088
-1.09293
-1.26212
-1.46836
-1.47984
-1.52858
-1.50543
-1.51606
-1.57017
-1.29663
-1.06415
-0.926988
-0.848318
-0.755393
-0.708741
-0.576929
-0.648734
-0.489939
-0.343878
-0.195247
-0.14222
-0.191372
-0.00117442
0.376588
-0.371004
-0.548487
-0.904911
-0.978144
-1.09892
-1.15151
-1.16373
-1.19954
-1.02188
-0.908419
-0.785473
-0.658904
-0.583375
-0.509788
-0.434043
-0.17677
-0.457679
-0.22038
-0.260574
-0.0632314
-0.171851
-0.172632
-0.882569
-0.426792
-0.319732
-0.578633
-0.617454
-0.726403
-0.769605
-0.760475
-0.75112
-0.584378
-0.954384
-0.650743
-0.410792
-0.418805
-0.569138
-0.35995
-0.430233
-0.207108
-0.19897
-0.131607
-0.0867305
-0.0670346
-0.11805
-0.431319
-0.087795
-0.29163
-0.38264
-0.441606
-0.531967
-0.571248
-0.608694
-0.616163
-0.621961
-0.541663
-0.424308
-0.351578
-0.434022
-0.403057
-0.293297
-0.194922
-0.235121
-0.0835299
-0.119024
-0.0724237
-0.0590574
-0.162102
-0.111997
-0.0732726
-0.188958
-0.235789
-0.29527
-0.375669
-0.390678
-0.427109
-0.396079
-0.399519
-0.291832
-0.493219
-0.263966
-0.403984
-0.431652
-0.16482
-0.257996
-0.181005
-0.179662
-0.0801779
-0.102003
-0.0464809
-0.058529
-0.157756
-0.129012
-0.180132
-0.197733
-0.210549
-0.264499
-0.25789
-0.276216
-0.26525
-0.247507
-0.288109
-0.171375
-0.299142
-0.137071
-0.194982
-0.187448
-0.0411918
-0.125631
-0.118275
-0.0674443
-0.0301781
-0.108351
-0.0126192
-0.0892138
-0.0709386
-0.0725641
-0.100038
-0.0401207
-0.3018
-0.266993
-0.287842
-0.268319
-0.25141
-0.207415
-0.232929
-0.20149
-0.209699
-0.252407
-0.0707185
-0.0795802
0.0189183
-0.150933
0.00757844
-0.14242
0.00959866
-0.17199
-0.427787
-0.375786
-0.321765
-0.268938
-0.183144
-0.058618
0.132166
0.0757787
0.121314
0.0310102
0.0720515
0.0298127
0.0335693
0.0292172
-0.023988
-0.0517762
0.0263542
0.0299258
-0.119493
0.0739791
0.0586663
-0.0709184
-0.130721
735.894
751.116
710.063
704.549
774.705
729.906
775.374
813.024
969.555
948.99
965.142
910.689
962.961
935.797
912.765
751.369
1067.93
898.304
497.287
223.628
540.531
223.115
103.352
84.0179
50.1929
38.1932
28.2823
26.1078
248.044
90.3751
52.1698
23.3342
1168.83
1161.8
567.245
55.0817
759.328
567.903
106.622
30.5895
89.7497
160.175
166.052
77.5226
30.8351
64.7894
114.817
107.109
37.3498
51.1549
34.2112
33.4889
-0.228802
0.0775159
0.271898
0.709978
0.0701967
0.417509
0.897972
1.46215
0.282151
0.540662
1.60796
2.25206
0.617276
0.592878
0.982742
1.3128
0.594834
0.753177
0.733623
0.936428
0.069268
0.450269
0.670676
0.721343
-0.168679
0.0581894
0.0356928
0.135809
0.076557
0.0119834
0.0921947
0.287268
-0.137016
0.161613
0.517727
0.270883
-0.420255
-0.344869
-0.349901
-0.16731
-0.349535
-0.225592
-0.212168
-0.38952
-0.334921
-0.0534445
0.0346348
0.020802
-0.918226
-0.378574
-0.193848
-0.152824
-0.825262
-0.523998
-0.0237244
0.101602
-1.05258
-1.16139
-0.777089
-0.429607
-0.651955
-0.789897
-0.746611
-0.59171
-0.854456
-0.79245
-0.589664
-0.653648
-0.428569
-0.266174
-0.0478321
-0.107333
-0.382437
-0.250718
-0.215298
-0.189136
-0.265987
-0.235452
-0.226136
-0.246727
-0.0628972
-0.149476
-0.0571472
-0.00647481
-0.0551505
-0.137984
-0.15792
-0.233179
0.0177745
0.00686562
0.0243516
0.0287104
-0.106539
0.0294552
-0.0504519
0.0541423
-0.145468
-0.281766
-0.226563
-0.240298
-0.168628
-0.0567943
-0.0615505
-0.101928
0.0369538
0.0621635
-0.00109291
-0.106937
-0.282496
-0.282271
-0.27124
-0.173522
-0.0667159
-0.105055
-0.155681
-0.284998
658.469
771.314
635.011
489.517
290.32
261.322
197.192
180.459
184.303
188.658
380.391
564.119
546.569
536.112
185.655
126.853
89.007
93.2465
99.6376
782.718
510.17
268.05
289.552
236.218
204.54
173.174
176.722
178.828
237.432
543.832
669.395
649.996
362.891
153.531
150.798
183.93
122.276
78.5715
792.001
222.963
183.232
283.856
176.53
224.258
206.69
170.43
202.161
432.863
764.913
746.911
412.886
171.147
161.794
115.846
171.544
118.302
61.6017
407.239
183.467
216.706
180.996
212.277
394.31
392.509
212.637
187.869
286.46
582.408
715.18
474.381
233.174
117.14
71.3152
56.9191
68.6794
56.9425
132.743
111.605
58.0024
64.1788
249.36
546.782
416.852
380.13
265.191
236.97
409.589
790.867
593.86
131.683
46.9205
48.9631
101.345
115.501
80.3774
64.3638
37.0119
20.5692
34.8874
95.4208
164.227
479.563
632.791
675.98
518.989
838.647
737.894
374.493
55.7555
17.3697
20.7612
34.6154
44.9314
90.1168
22.3114
11.9722
16.4646
61.952
89.7295
83.9008
128.442
492.692
769.261
907.201
854.318
486.275
113.302
12.6835
3.23322
0.121084
0.385179
1.35584
1.20869
14.3803
12.4549
12.2855
80.7465
66.9554
81.6842
49.5836
22.4345
92.3107
441.209
535.516
111.666
26.0809
2.44263
-0.177769
-0.503528
-0.345931
0.212377
1.14559
19.2304
11.5815
42.1949
64.2964
14.4624
21.4195
22.7204
23.1966
20.5406
51.101
104.736
82.811
6.86748
0.422279
-1.2704
-1.22002
-1.3408
-0.436272
0.355849
15.1566
9.32402
44.5008
11.7424
4.45426
9.84716
20.4804
31.3403
29.9183
30.2537
78.1614
101.834
4.00748
-0.305105
-2.02646
-1.65536
-1.28391
-0.777633
-0.0475338
34.5287
20.6739
42.7094
6.37692
4.2343
12.2038
29.0179
34.1438
17.6589
32.7217
92.7479
174.037
7.42152
-0.011149
-2.03692
-1.30193
-2.10701
-1.21186
-0.23195
62.3162
41.7967
10.8754
3.01968
3.83319
10.5601
20.0133
14.1467
10.7676
22.6505
88.9683
182.748
29.2669
1.04987
-1.15959
-1.3029
-2.21419
-1.21692
-0.119009
28.7889
10.7317
2.25259
2.4134
2.34199
2.49396
3.93593
5.07452
7.86185
12.9728
50.0789
152.149
71.0167
31.3246
11.3865
3.58582
0.0247971
-0.0305768
0.463845
1.64574
1.93342
2.09194
1.68368
1.75194
2.12848
3.56377
12.0605
23.1772
33.5046
67.1478
78.4984
51.2885
43.2064
34.7176
11.8438
5.84309
2.31981
0.981003
1.62583
2.00217
1.88487
1.78114
1.67352
2.65763
5.29209
13.998
30.6736
40.545
40.777
28.8594
17.2625
17.3004
23.1978
16.6741
7.05502
2.6734
0.761609
2.39349
3.19329
2.3
1.88024
1.84331
3.38181
4.86059
3.79627
3.07767
4.98612
8.24633
13.6871
9.54246
4.04568
5.233
5.13829
6.08144
3.51507
0.951858
2.21119
2.74042
2.4179
2.31409
2.98901
3.1862
2.83352
2.09602
1.75483
1.74169
1.46351
2.02607
1.79157
1.86645
2.37238
1.55172
2.27491
1.04436
0.528187
0.973313
1.28831
1.24568
1.38251
1.79579
1.60678
1.53079
1.589
1.63075
1.80933
1.56264
1.30469
1.34512
1.41223
1.60029
1.31017
1.31104
0.724818
0.741244
0.921934
1.04379
0.909942
1.14223
1.12635
1.10766
1.10266
1.19867
1.18081
1.2006
1.38558
1.29319
1.37115
1.28237
1.25038
1.1523
1.2292
0.830178
0.898786
0.919892
0.990296
0.609106
0.953324
1.08667
1.0965
1.06756
1.14302
1.14654
1.06209
1.08564
1.16661
1.24613
1.22775
1.20417
1.23613
1.08755
0.978872
0.992203
-0.0723411
0.102101
0.983198
0.809276
0.887209
1.11742
1.01652
0.795659
1.08845
1.19015
1.16513
1.16918
1.17771
1.20832
1.0858
1.32016
1.52335
1.54027
1.54675
0.0588926
0.166422
0.580532
0.807133
0.786996
0.731263
1.04791
0.935612
0.969128
1.04318
1.12119
1.13904
1.09238
1.0923
1.02502
1.3195
1.77798
1.91065
1.86367
0.675506
0.0882311
0.350109
0.503223
0.706937
0.702926
0.517125
1.04017
0.835235
0.764107
0.950546
1.06404
1.03617
0.992324
0.953003
1.05937
1.16063
1.27291
1.39413
-0.458488
0.822833
0.452585
0.453123
0.497666
0.496097
0.6391
0.661523
0.888222
1.033
0.915083
1.00636
0.988976
0.896234
0.87405
0.816488
0.70708
0.766123
0.77481
-0.00127223
0.22444
0.474345
0.476538
0.735911
0.874356
0.740761
0.634582
0.812916
0.840785
0.797822
0.922701
0.906058
0.832767
0.828206
0.766443
1.00178
0.833928
0.788853
0.219161
-0.241777
0.399559
0.435202
0.414047
0.670767
0.684164
0.49433
0.759005
0.727394
0.681739
0.927246
0.79553
0.763212
0.759229
1.36932
2.14405
1.13201
0.758767
0.0177768
-0.107691
0.215547
0.705025
0.812389
0.846304
0.928797
0.530076
0.729484
0.934823
0.563462
0.68926
0.710863
0.693647
0.653768
2.37501
3.65844
1.76801
0.765483
-0.0101712
0.457661
0.128204
-0.126445
-0.00165788
0.602533
0.591609
0.552995
0.381432
0.817944
0.720886
0.635635
0.618626
0.638334
0.525513
2.98934
3.69233
2.04772
0.719422
-0.675655
-0.258633
-0.54561
-0.219928
-0.347109
0.106891
0.64988
0.631809
0.501602
0.554648
0.402137
0.443454
0.532129
0.586354
0.409674
3.05382
3.7322
1.62228
0.656536
-0.398595
-0.818497
-0.158532
0.368168
0.241598
-0.413017
0.129204
1.07678
0.620409
0.262755
0.166105
0.275665
0.371429
0.561594
0.483725
3.77639
2.87124
0.876682
0.553568
-0.340266
-0.0492994
-0.377806
-0.412264
-0.119422
0.0911602
-0.500622
0.561075
0.611448
0.679654
0.230994
0.294993
0.394214
0.271668
0.559155
3.76017
1.97552
0.637178
0.490393
-0.112554
-0.138921
0.0215781
0.236891
-0.0592364
-0.0767598
-0.289454
0.120961
0.388165
0.251449
0.16054
0.235514
0.293174
0.371474
0.632248
2.73612
1.52635
0.534158
0.425259
-0.454676
-0.0936297
0.383513
0.0399155
-0.0988676
-0.133789
0.0993521
-0.224618
0.148089
-0.09055
-0.0682702
-0.134591
0.0963058
0.103901
1.40818
2.21604
1.12912
0.375142
0.362698
0.113611
-0.193143
-0.392102
-0.265945
-0.229785
-0.251942
-0.324089
-0.357296
-0.106337
-0.311771
-0.268506
0.0565996
0.105601
0.321154
2.98973
2.11041
0.584863
0.324969
0.30065
-0.035957
-0.196894
-0.356594
-0.150538
-0.203963
0.0060291
-0.585424
-0.361854
-0.422225
-0.364032
-0.238867
-0.16306
0.0411297
1.07046
4.65139
2.20831
0.38769
0.27222
0.252576
0.0513463
0.0012771
0.106981
-0.116333
-0.307673
-0.85116
-0.829336
-0.486891
-0.259422
-0.345709
-0.168323
-0.251325
-0.0200769
4.90008
4.72073
0.911896
0.167669
0.149092
0.193523
0.114678
0.0174942
-0.0439381
-0.0286564
-0.216848
-0.822054
-0.142218
-0.423381
-0.207258
-0.237718
-0.166567
-0.00133778
0.352847
5.03944
3.70853
0.950278
0.164003
0.161885
0.168862
-0.353151
-0.0994574
0.0669488
0.204674
-0.0919174
0.124725
-0.106937
-0.186975
-0.22783
-0.241024
-0.137891
-0.0794421
-0.0452721
3.12912
2.63804
0.674446
0.112191
0.118976
0.148727
-0.150303
-0.186512
0.0978352
-0.436801
-0.149558
-0.0022238
-0.410884
-0.478326
-0.209356
-0.123765
-0.137854
-0.153653
0.0419659
0.894343
2.65266
0.94138
0.114457
0.0897074
0.0920123
0.0497039
-0.216848
-0.476572
-0.335393
-0.235391
-0.64048
-0.326753
-0.39336
-0.250848
-0.216461
-0.0485646
-0.0732313
-0.0171662
0.279473
1.93379
0.985555
0.112021
0.0513911
0.0420084
-0.103822
-0.127899
-0.412174
-0.480011
-0.180029
-0.397146
-0.418474
-0.34546
-0.254366
-0.131832
0.0205242
0.00335382
0.135451
0.36416
0.901175
0.319867
0.0672634
0.068137
0.0521887
-0.336624
-0.46589
-0.285599
-0.208623
-0.519047
-0.251417
-0.109357
-0.106451
-0.031281
0.00866224
-0.0304842
-0.00448767
-0.178002
0.246887
0.315839
0.0675195
-0.00285707
-0.000842382
0.0322989
)
;

boundaryField
{
    leftWall
    {
        type            zeroGradient;
    }
    rightWall
    {
        type            zeroGradient;
    }
    lowerWall
    {
        type            zeroGradient;
    }
    atmosphere
    {
        type            totalPressure;
        rho             rho;
        psi             none;
        gamma           1;
        p0              uniform 0;
        value           nonuniform List<scalar> 
46
(
0
0
0
0
0
0
0
0
0
0
0
0
0
0
0
0
0
0
0
0
-0.00360153
-0.0301912
-0.163545
-0.221418
-0.257355
-0.257379
-0.276508
-0.27164
-0.358379
-0.413129
-0.397445
-0.41509
-0.368524
-0.285797
-0.233638
-0.149228
-0.0751577
-0.0235253
-0.0136406
0
0
0
0
0
0
0
)
;
    }
    defaultFaces
    {
        type            empty;
    }
}


// ************************************************************************* //
