/*--------------------------------*- C++ -*----------------------------------*\
| =========                 |                                                 |
| \\      /  F ield         | foam-extend: Open Source CFD                    |
|  \\    /   O peration     | Version:     4.1                                |
|   \\  /    A nd           | Web:         http://www.foam-extend.org         |
|    \\/     M anipulation  |                                                 |
\*---------------------------------------------------------------------------*/
FoamFile
{
    version     2.0;
    format      ascii;
    class       volScalarField;
    location    "0.55";
    object      alpha1;
}
// * * * * * * * * * * * * * * * * * * * * * * * * * * * * * * * * * * * * * //

dimensions      [0 0 0 0 0 0 0];

internalField   nonuniform List<scalar> 
2268
(
1
1
1
0.999999
0.999999
0.999999
0.999999
1
1
1
1
1
1
1
1
1
1
1
1
1
1
1
0.999984
0.999999
0.999999
0.999999
1
1
1
1
1
1
1
1
1
1
1
1
1
1
1
1
1
1
1
0.999977
1
1
1
1
1
1
1
1
1
1
1
1
1
1
1
1
1
1
1
1
1
1
0.999981
1
1
1
1
1
1
1
1
1
1
1
1
1
1
1
1
1
1
1
1
1
1
0.999989
1
1
1
1
1
1
1
1
1
1
1
1
1
1
1
1
1
1
1
1
1
1
0.999995
0.999975
0.999979
0.99994
0.999987
0.999984
0.999996
1
0.999999
0.999998
1
1
1
1
1
1
1
1
1
1
1
1
1
0.999998
0.9948
0.995271
0.992277
0.996743
0.996222
0.998064
0.999628
0.998615
0.999289
0.999912
0.999999
1
1
1
1
1
1
1
1
1
1
1
1
0.889637
0.895302
0.872115
0.914406
0.908731
0.925746
0.945849
0.951499
0.975087
0.995713
0.999877
1
1
1
1
1
1
1
1
1
1
1
1
0.705403
0.970989
0.971214
0.971477
0.976531
0.98261
0.986663
0.989124
0.989446
0.989156
0.984007
0.979638
0.989908
0.994319
0.994319
0.994319
0.993074
0.985561
0.979953
0.80728
0.775821
0.436434
0.387901
0.499206
0.593117
0.73356
0.831527
0.892722
0.936478
0.963949
0.981184
0.989004
0.993433
0.994344
0.994315
0.994305
0.994302
0.994022
0.92857
0.868086
0.374197
0.0768903
0.0416615
0.042877
0.0646288
0.044487
0.211434
0.355437
0.55227
0.791641
0.815885
0.946766
0.994315
0.994347
0.994315
0.994318
0.994267
0.92857
0.889924
0.540809
0.462299
0.178663
0.278692
0.137594
0.0186518
0.0201598
0.0167825
0.074176
0.18792
0.161086
0.682934
0.990475
0.994316
0.994318
0.994321
0.994315
0.92857
0.58704
0.506079
0.541475
0.581851
0.667717
0.334528
0.0502719
0.00292011
0.000796329
0.00299077
0.0199764
0.0151265
0.262693
0.897122
0.955624
0.986809
0.994348
0.994306
0.780876
0.135128
0.413966
0.775564
0.893804
0.873603
0.349963
0.0408712
0.0039856
0.000810738
0.000760087
0.000810738
0.00109624
0.0747382
0.490178
0.706425
0.955649
0.989157
0.99427
0.158365
0.0310935
0.308836
0.892556
0.98611
0.948488
0.490519
0.0771604
0.0158648
0.0299583
0.0166237
0.00401338
0.00114688
0.0145422
0.108318
0.278026
0.854102
0.964967
0.975894
0.0303894
0.0303894
0.352643
0.940452
0.997176
0.959619
0.576128
0.243471
0.273592
0.349674
0.303451
0.137992
0.0142385
0.0129137
0.0176569
0.135927
0.656809
0.938435
0.920704
0.385439
0.396385
0.365314
0.431997
0.427564
0.387421
0.469767
0.559859
0.715859
0.897871
0.969191
0.989089
0.99386
0.99767
0.999057
0.999802
0.999946
0.999983
0.999992
0.999998
1
1
0.999999
0.0158582
0.0167085
0.0155609
0.0157627
0.0191347
0.0140521
0.0307965
0.0629876
0.152168
0.348282
0.594214
0.804085
0.897984
0.952732
0.979207
0.989302
0.992579
0.995133
0.998505
0.999742
0.999983
1
0.999993
0.000260883
0.000275772
0.00019737
8.53216e-05
0.000280488
0.000226051
0.00082168
0.00255092
0.0125934
0.0515726
0.136588
0.270483
0.404325
0.527727
0.631097
0.70436
0.779852
0.834348
0.914137
0.956918
0.989007
0.996259
0.998192
6.71563e-06
6.82782e-06
1.84228e-06
1.91847e-06
4.24173e-06
5.08714e-06
1.78463e-05
8.21136e-05
0.000790468
0.00436141
0.0170421
0.0446486
0.0716161
0.0631049
0.06946
0.0977485
0.115121
0.170672
0.274613
0.390799
0.535762
0.684989
0.84065
5.00701e-07
2.54222e-07
1.83274e-08
2.56458e-08
1.30612e-07
4.7409e-07
8.13103e-07
1.53767e-06
2.95033e-05
0.000468046
0.00212876
0.0033081
0.00336236
0.00118135
0.00118173
0.00361703
0.00819514
0.0104766
0.0111105
0.0275053
0.0357141
0.0774481
0.155056
7.17441e-08
1.81025e-08
9.63969e-11
8.71388e-11
3.88673e-09
5.83776e-08
1.21249e-07
8.48181e-08
4.00035e-07
1.32904e-05
8.18345e-05
6.42936e-05
3.56885e-05
4.90669e-05
3.41945e-05
8.67873e-05
0.000336045
0.000542842
0.00107808
0.00272781
0.00247821
0.007095
0.010598
4.22283e-09
1.18822e-09
1.15925e-12
3.29157e-13
5.78162e-11
4.04142e-09
1.54281e-08
1.18966e-08
1.78837e-08
2.38958e-07
1.40819e-06
2.50166e-06
1.23259e-05
2.54521e-05
1.82259e-05
2.55705e-05
2.12064e-05
1.85142e-05
7.63026e-06
5.43128e-05
0.000325958
0.000853251
0.000957354
9.87388e-11
2.3865e-11
1.12055e-13
1.01103e-14
4.34569e-13
9.78732e-11
1.03e-09
1.42871e-09
1.66196e-09
2.19829e-08
2.60983e-07
3.06994e-06
2.04575e-05
2.47526e-05
1.03154e-05
5.93815e-06
2.74398e-06
1.88703e-06
1.84247e-06
5.52751e-06
1.11355e-05
1.87084e-05
2.06968e-05
2.28437e-12
4.91322e-13
2.73566e-15
2.54629e-15
1.43202e-13
3.03014e-12
3.61024e-11
9.31318e-11
8.11787e-10
4.59757e-08
3.6205e-07
9.53398e-07
5.05399e-06
1.26245e-05
2.9895e-06
1.26449e-06
5.10334e-07
2.6678e-07
3.81508e-07
1.26115e-06
2.33479e-06
2.97632e-06
2.11762e-06
1.4151e-13
3.31727e-14
5.24004e-16
1.5836e-15
1.43834e-13
1.34042e-12
6.19586e-12
1.47758e-11
9.31162e-10
3.94865e-08
2.39732e-07
1.6761e-07
3.09325e-07
5.2128e-07
1.64133e-07
7.08941e-08
4.38665e-08
1.0799e-07
1.21999e-07
9.65426e-08
2.07986e-07
2.45265e-07
5.67738e-08
2.17939e-14
5.71308e-15
1.60477e-16
2.3287e-15
2.05231e-13
1.43748e-12
5.68936e-12
1.35645e-11
3.83736e-10
9.44056e-09
5.00908e-08
1.29227e-08
8.03909e-09
4.97874e-09
2.11216e-09
1.47499e-09
2.17924e-09
7.40303e-09
3.49445e-09
1.13122e-09
3.99911e-09
3.74921e-09
1.28186e-09
4.24767e-15
1.58377e-15
8.7081e-17
1.70386e-14
2.83819e-13
1.13982e-12
4.29647e-12
3.1102e-11
3.78993e-10
7.91781e-10
2.63081e-09
9.04615e-10
5.81108e-10
3.7567e-10
4.12959e-10
3.1286e-10
2.69527e-10
1.56399e-10
6.00777e-11
3.2388e-11
3.07822e-11
1.43443e-11
9.16654e-12
1.14725e-15
4.71153e-16
1.2487e-16
4.44596e-14
2.47439e-13
3.81375e-13
2.09709e-12
5.59263e-11
2.79612e-10
1.65924e-10
4.74658e-10
3.94289e-10
3.13422e-10
2.32861e-10
3.12887e-10
3.22227e-10
2.55523e-10
1.329e-10
7.23458e-11
3.44578e-11
1.04361e-11
1.54757e-12
3.63578e-13
3.5539e-16
1.19982e-16
1.0145e-16
2.83936e-14
1.55653e-13
4.42226e-14
2.93586e-13
1.68038e-11
6.4718e-11
3.30725e-11
1.12934e-10
9.85874e-11
7.62326e-11
6.4714e-11
2.06449e-10
2.42653e-10
1.60823e-10
7.08981e-11
3.73379e-11
2.19044e-11
9.03435e-12
1.08987e-12
5.31406e-13
1.19032e-16
2.24002e-17
8.39711e-17
1.43711e-14
7.1776e-14
4.2229e-15
7.78849e-15
6.97185e-13
2.83597e-12
1.40443e-12
5.27504e-12
4.39136e-12
8.72579e-12
3.88877e-11
1.05242e-10
9.83077e-11
4.09578e-11
1.44546e-11
7.21984e-12
4.8541e-12
3.18663e-12
8.15579e-13
1.51169e-12
3.60254e-17
3.52044e-18
1.57436e-17
1.81787e-15
1.81736e-14
9.94303e-16
1.3101e-15
3.11473e-15
1.12332e-14
7.18524e-15
2.32958e-14
1.13165e-13
2.87676e-12
2.50902e-11
2.65063e-11
1.90139e-11
3.40623e-12
1.51682e-12
4.55122e-13
4.07942e-13
3.40783e-13
2.33609e-13
1.13302e-12
9.82822e-18
1.37079e-18
4.59576e-17
1.16212e-15
4.64123e-15
2.607e-16
4.76492e-16
2.82241e-16
2.17467e-16
1.48656e-16
7.03338e-16
9.69081e-15
6.30313e-13
8.7609e-12
1.92991e-12
1.69506e-12
1.93918e-13
1.52293e-13
3.15735e-14
1.77431e-14
2.10012e-14
1.2914e-13
2.61716e-13
2.59564e-18
6.20054e-19
2.10096e-17
2.66443e-16
7.42672e-16
5.78519e-17
1.69218e-16
1.06366e-16
6.90547e-17
3.56482e-17
3.32019e-16
1.4689e-15
2.60331e-14
7.58318e-13
4.49224e-14
4.86472e-14
1.689e-14
2.00688e-14
5.67284e-15
2.93514e-15
5.69809e-15
4.31248e-14
6.28455e-14
7.86069e-19
7.9501e-20
8.22378e-19
3.41796e-17
1.02568e-16
1.11838e-17
4.34846e-17
2.13398e-17
1.91553e-17
8.60232e-18
1.28819e-16
3.5979e-16
1.10164e-15
8.65583e-15
8.38321e-16
1.12854e-15
1.75937e-15
2.35552e-15
1.32263e-15
8.65902e-16
1.44355e-15
7.33134e-15
1.09941e-14
2.02848e-19
5.03635e-21
1.83384e-19
3.85822e-18
2.27431e-17
1.02614e-18
4.68098e-18
2.86599e-18
3.90264e-18
1.39817e-18
3.63978e-17
1.08028e-16
9.47863e-17
7.44089e-17
6.15395e-17
1.22406e-16
1.87508e-16
2.85477e-16
3.22961e-16
5.35415e-16
1.51999e-14
1.48888e-13
3.80346e-13
3.77574e-20
1.82013e-22
8.89696e-22
2.03175e-19
2.48995e-18
9.03421e-20
2.75963e-19
3.61541e-19
5.77572e-19
2.18938e-19
6.3179e-18
2.18699e-17
2.8328e-17
2.92671e-17
2.48952e-17
6.32315e-17
6.51773e-17
1.00616e-16
1.47785e-16
4.1294e-14
4.19555e-12
1.60174e-11
1.56303e-11
5.26189e-21
2.26495e-23
2.80554e-23
6.82675e-21
1.61054e-19
5.30377e-21
1.15185e-20
3.31999e-20
6.19594e-20
2.40979e-20
1.23363e-18
3.17288e-18
6.62495e-18
9.12185e-18
7.36702e-18
2.24559e-17
2.21335e-17
4.25444e-17
5.99511e-17
7.17218e-15
4.08992e-12
2.92874e-10
9.93684e-11
5.60087e-22
7.1897e-26
2.78486e-26
1.07564e-22
7.72469e-21
1.73871e-22
3.2748e-22
1.79832e-21
4.65493e-21
3.08997e-21
2.11955e-19
3.37847e-19
1.24459e-18
1.92381e-18
1.43292e-18
5.65741e-18
6.41352e-18
1.51902e-17
2.18907e-17
3.50223e-16
4.37561e-13
3.80339e-10
1.09616e-09
4.79967e-23
1.71178e-25
1.29872e-27
1.19355e-24
2.36671e-22
4.48208e-24
3.48108e-24
8.11648e-23
1.82726e-22
4.46374e-22
2.02621e-20
3.32714e-20
1.85844e-19
2.30837e-19
2.92563e-19
8.18565e-19
1.63341e-18
3.52711e-18
7.4118e-18
1.21335e-15
3.73188e-14
3.61111e-10
3.39654e-09
3.2532e-24
9.19493e-30
9.35768e-32
7.78926e-27
4.26958e-24
7.32544e-26
3.68496e-26
1.6709e-24
4.48359e-24
5.91765e-23
1.09048e-21
3.70007e-21
1.78812e-20
1.91173e-20
4.759e-20
1.36002e-19
2.93083e-19
9.49676e-19
2.81444e-18
4.16137e-13
1.43336e-12
2.37257e-10
3.35831e-09
1.90189e-25
1.6118e-27
1.06278e-29
1.77782e-29
5.9789e-26
1.00638e-27
1.50911e-28
2.11001e-26
1.01955e-25
4.34929e-24
4.82465e-23
2.37635e-22
1.0605e-21
1.63523e-21
3.70637e-20
8.00077e-20
1.11868e-19
6.58392e-19
3.03047e-18
3.60747e-13
1.38473e-12
6.91579e-11
1.90721e-09
8.23754e-27
2.83172e-29
2.18966e-31
2.30218e-32
4.88557e-28
8.54616e-30
7.11571e-31
1.89882e-28
1.52517e-27
1.82881e-25
1.12507e-24
9.93894e-24
3.51432e-23
1.19761e-22
2.39596e-19
4.49605e-19
3.70771e-19
1.19756e-17
1.33317e-16
1.61571e-13
9.18692e-13
1.50051e-11
2.89019e-10
2.89535e-28
3.90436e-30
2.58277e-32
1.75231e-34
1.28835e-30
3.6329e-32
2.22682e-33
1.46698e-30
1.13357e-29
4.67295e-27
1.79864e-26
1.72324e-25
1.83683e-24
2.94182e-23
1.80073e-18
9.79016e-18
1.72309e-15
1.70389e-13
2.78522e-13
2.16558e-12
5.83908e-12
4.03327e-11
2.03261e-10
5.33399e-30
4.68085e-32
3.39208e-34
3.27176e-36
4.45484e-34
6.96152e-35
3.43522e-34
2.22703e-32
8.8624e-31
5.01124e-29
1.3669e-27
3.24584e-26
6.75612e-25
5.75417e-23
2.60685e-17
1.70781e-15
1.98924e-12
2.76242e-11
3.29273e-10
2.70606e-09
1.26015e-08
4.33918e-08
2.78676e-08
3.5552e-32
1.40579e-34
5.83823e-37
3.63827e-39
1.03663e-37
9.5e-36
6.22413e-34
3.69601e-32
2.03622e-30
8.1706e-29
4.05014e-27
8.37186e-26
1.05476e-24
1.99596e-22
1.68641e-16
1.17722e-13
2.75187e-11
2.84509e-10
1.3462e-08
1.06708e-07
2.02424e-06
2.16955e-06
1.8475e-06
5.1123e-35
8.22512e-38
1.74553e-40
1.02692e-39
1.15446e-37
1.09276e-35
8.67959e-34
6.03645e-32
3.76739e-30
1.79366e-28
7.98686e-27
1.91159e-25
3.23163e-24
3.48744e-22
4.64786e-16
7.50401e-13
1.96335e-10
1.38444e-09
4.52702e-08
3.78881e-07
7.71758e-06
3.48476e-05
2.75406e-05
1.38861e-48
9.67401e-45
5.1416e-42
1.06662e-39
1.33341e-37
1.3337e-35
1.23652e-33
1.02352e-31
7.08833e-30
3.98011e-28
1.46919e-26
4.47934e-25
8.0701e-24
1.12337e-21
6.38867e-16
1.70796e-12
3.89695e-10
2.20803e-09
3.02927e-08
3.50892e-07
3.84657e-06
3.06231e-05
0.000174196
9.37111e-49
5.99935e-45
3.33058e-42
7.23136e-40
1.02134e-37
1.30107e-35
1.43691e-33
1.38431e-31
1.04691e-29
5.81065e-28
2.09308e-26
5.06343e-25
8.00948e-24
2.50508e-21
5.98389e-16
7.66081e-13
6.30816e-11
4.19261e-10
7.3135e-09
1.09461e-07
1.18258e-06
2.45234e-05
0.000166719
5.22467e-49
2.78935e-45
1.70221e-42
4.35716e-40
7.6903e-38
1.2429e-35
1.65278e-33
1.75993e-31
1.38797e-29
7.65175e-28
2.70212e-26
6.09325e-25
9.62807e-24
9.2739e-21
6.11584e-16
7.63887e-13
8.71366e-11
2.37917e-09
7.42485e-09
2.44259e-08
2.77166e-07
9.30862e-06
4.92816e-05
2.64444e-49
1.00277e-45
6.58752e-43
2.22798e-40
5.11553e-38
1.00289e-35
1.50018e-33
1.66809e-31
1.33016e-29
7.24858e-28
2.42692e-26
5.70204e-25
9.74273e-24
4.79767e-20
2.4826e-14
2.60549e-10
4.27619e-08
2.37242e-07
1.35186e-07
7.25655e-08
1.12837e-07
1.00357e-06
2.28152e-05
9.47567e-50
3.46415e-46
2.35282e-43
9.52595e-41
2.65778e-38
5.97737e-36
9.63698e-34
1.11e-31
8.97171e-30
4.94359e-28
1.62581e-26
4.24162e-25
8.54045e-24
1.65767e-19
7.55073e-11
1.72921e-07
6.36382e-06
2.48476e-05
3.19472e-05
1.60133e-05
4.48005e-06
4.56647e-06
0.00012703
4.8983e-51
2.78344e-47
3.14446e-44
2.03302e-41
7.64894e-39
2.00737e-36
3.54692e-34
4.39864e-32
3.68989e-30
2.2177e-28
7.63571e-27
2.56519e-25
6.0831e-24
4.59013e-19
1.78316e-08
8.46238e-06
9.63088e-05
0.000207904
0.000277288
0.000209059
0.000118522
0.000122125
0.000318412
7.62287e-52
5.42844e-48
6.34115e-45
4.00244e-42
1.53711e-39
4.17475e-37
7.63715e-35
9.83156e-33
8.04231e-31
5.51908e-29
2.21394e-27
1.09906e-25
2.82341e-24
6.43157e-16
5.43065e-07
6.34832e-05
0.00026525
0.00040835
0.000415703
0.000410814
0.000433679
0.000434835
0.000317584
2.8295e-56
2.35397e-50
6.40072e-47
7.06569e-44
3.8139e-41
1.4681e-38
3.37737e-36
5.76375e-34
6.13346e-32
5.38485e-30
3.46164e-28
2.12366e-26
7.80904e-25
1.30448e-12
3.8457e-06
0.000135158
0.00027372
4.02398e-05
3.88326e-05
3.77054e-05
0.000280292
0.000324092
0.000168958
1.32566e-70
1.67074e-54
1.24835e-50
2.8429e-47
2.71618e-44
2.28676e-41
9.13236e-39
3.71674e-36
7.89478e-34
1.16802e-31
1.79732e-29
1.76356e-27
1.96021e-25
1.78085e-10
9.23527e-06
0.000111728
0.000114427
2.54686e-06
1.56602e-06
1.61623e-05
5.07847e-05
6.64281e-05
2.67488e-05
3.38145e-107
6.98413e-59
4.3506e-54
2.02914e-50
3.98968e-47
5.31919e-44
4.63504e-41
3.97075e-38
2.74039e-35
1.08841e-32
2.86673e-30
3.42102e-28
4.28754e-26
1.98413e-09
1.95568e-06
1.92232e-05
2.0442e-05
5.97426e-06
5.3918e-07
8.74336e-07
2.62199e-06
3.68901e-06
2.63796e-06
0
0
0
0
0
0
0
0
0
0
0
0
0
1.7428e-11
4.04103e-07
2.00946e-05
5.85901e-05
2.03736e-05
2.84862e-07
1.85764e-07
2.46534e-06
6.9519e-06
7.08109e-06
0.999981
0.999853
0.994832
0.82441
0.999975
0.999908
0.999701
0.989593
0.999146
0.999088
0.998724
0.997303
0.915297
0.91874
0.921193
0.910348
0.253149
0.295767
0.322562
0.281992
0.0167689
0.0145974
0.00746551
0.00438789
0.000632871
0.000467837
0.000116588
1.36823e-05
1.001e-05
1.61192e-05
4.78054e-06
5.43516e-07
5.42442e-07
3.25569e-07
8.18854e-08
6.55977e-08
3.51341e-09
4.33142e-10
6.22183e-10
3.8953e-09
3.92898e-10
1.01e-10
1.87724e-09
8.30778e-09
1.09089e-11
6.85037e-12
4.73312e-11
2.44832e-10
4.86434e-13
2.30444e-12
7.75647e-12
1.25585e-11
4.479e-12
1.68471e-11
2.32944e-11
1.66398e-11
1.11648e-11
2.04783e-11
1.64705e-11
6.45653e-15
3.76967e-12
4.12696e-12
9.39279e-13
6.45652e-15
1.68142e-13
5.56148e-14
7.69011e-15
6.45652e-15
3.13785e-14
9.32637e-15
6.45652e-15
6.45652e-15
9.69965e-15
6.97901e-15
6.45652e-15
6.45652e-15
7.07723e-13
2.60656e-13
1.59393e-14
6.45652e-15
1.19056e-10
6.27477e-10
9.39294e-10
1.69543e-10
2.28757e-09
8.28384e-08
3.26193e-07
1.9043e-07
2.74845e-09
7.09349e-08
5.16594e-07
1.33648e-06
4.63142e-09
2.81767e-08
2.24325e-07
1.536e-06
5.36336e-09
8.48873e-09
3.37195e-08
6.46816e-07
3.74896e-09
4.88613e-09
5.1293e-09
7.41086e-08
1.02873e-09
1.78034e-09
1.22345e-09
3.29184e-09
4.36051e-10
7.35309e-10
7.68478e-10
8.25773e-10
1.43041e-08
7.17276e-09
5.58735e-09
5.13838e-09
1.33331e-06
8.70471e-07
4.01838e-07
7.85125e-08
1.81683e-05
1.11954e-05
4.61124e-06
9.61241e-07
0.000165017
9.28933e-05
2.57727e-05
9.36709e-06
0.00021886
0.000190376
6.20913e-05
3.25192e-05
0.000223634
0.000145315
3.82569e-05
3.82746e-05
0.000245323
0.000166115
6.22752e-05
1.16846e-05
0.000318412
0.000284837
0.000113258
1.33808e-05
0.000321285
0.000309716
0.000126015
2.29819e-05
0.000218581
0.000146334
5.48863e-05
1.32735e-05
5.30524e-05
2.84595e-05
1.67795e-05
9.86802e-06
4.71421e-06
3.9398e-06
5.28678e-06
3.28618e-06
2.02882e-06
2.02651e-06
2.73057e-06
3.56956e-06
2.02882e-06
2.02882e-06
4.76977e-06
1.07905e-05
0.228471
0.554125
0.915011
0.996849
0.997258
0.973584
0.871786
0.816791
0.770863
0.746601
0.637703
0.512144
0.192804
0.025552
0.00581627
0.053387
0.435959
0.921145
0.883774
0.905781
0.985405
0.998176
0.998106
0.995642
0.989806
0.989472
0.972616
0.832614
0.185271
0.00968801
0.00699466
0.0607694
0.0452636
0.00641338
0.0205485
0.310797
0.912735
0.899714
0.997628
0.998035
0.973903
0.931436
0.939501
0.966521
0.975777
0.859932
0.458707
0.0399878
0.000627725
0.00061844
0.00760515
0.0300014
0.00711867
0.00819798
0.290362
0.911859
0.94834
0.894945
0.817489
0.613384
0.46678
0.482646
0.675102
0.681641
0.803221
0.677306
0.0867788
0.0118728
0.00129796
0.00128379
0.0113303
0.00423635
0.00861444
0.300465
0.914839
0.94834
0.17531
0.125814
0.0487609
0.0250872
0.0348951
0.110734
0.0911681
0.292384
0.659377
0.205994
0.161847
0.0208124
0.000421311
0.00262025
0.00112029
0.00967977
0.295937
0.900538
0.94834
0.000808052
0.00122929
0.00124549
0.00101297
0.0054566
0.00570727
0.00396715
0.0116481
0.245075
0.572532
0.571214
0.12433
7.757e-05
0.000320427
0.000543261
0.00842122
0.25444
0.61966
0.896171
1.21957e-06
3.81028e-06
5.55084e-05
0.000155362
0.000388427
0.00028756
0.000495039
0.000686276
0.0280806
0.618331
0.678252
0.263251
2.07841e-05
1.55292e-05
0.000576013
0.013154
0.179868
0.230834
0.627776
6.00237e-08
1.1901e-06
6.11736e-06
1.40826e-05
4.79706e-05
4.55235e-05
2.64782e-05
0.000104188
0.00785234
0.375733
0.678283
0.221979
2.01338e-05
1.42717e-05
0.000789204
0.0627358
0.142253
0.160913
0.525597
4.91239e-08
4.60373e-07
1.02699e-06
2.13623e-06
5.43103e-06
6.76931e-06
7.74668e-06
0.000169412
0.0390325
0.244592
0.271556
0.0269565
0.000234831
0.000813245
0.0207395
0.145508
0.155106
0.19164
0.763224
3.46766e-08
7.60018e-08
8.31968e-08
3.86918e-07
1.64921e-06
3.35883e-06
9.87242e-06
0.00154309
0.0665919
0.189182
0.0354974
0.00251973
8.60178e-05
0.000831766
0.0337755
0.22967
0.339749
0.485224
0.773345
1.51617e-08
1.08798e-08
1.5577e-08
3.37717e-07
7.01899e-06
4.1082e-05
0.000142431
0.000682044
0.0433114
0.165871
0.0368835
0.000190961
8.23042e-05
0.00774301
0.32911
0.434976
0.526589
0.636098
0.625605
5.34271e-10
9.14706e-10
3.72436e-08
2.09033e-06
3.53141e-05
0.0002691
0.00107944
0.00746936
0.0796193
0.167002
0.0504199
0.000195599
0.00215237
0.0997864
0.513904
0.396092
0.198415
0.369814
0.368898
7.19914e-11
1.98258e-09
2.03108e-07
4.97996e-06
8.56555e-05
0.00129419
0.00897117
0.0538989
0.161547
0.163827
0.018382
0.00054227
0.0355786
0.367381
0.450335
0.0315007
0.0250001
0.155106
0.39015
9.67498e-11
1.26619e-08
6.12086e-07
8.81005e-06
0.00012919
0.00383659
0.0366292
0.109522
0.113873
0.0170157
0.00157422
0.000837386
0.0493553
0.563933
0.211531
0.00935092
0.0153572
0.122918
0.339083
2.54442e-09
1.85843e-07
2.59529e-06
1.26927e-05
0.000127908
0.00348021
0.030008
0.0655879
0.0398764
0.00169772
0.00162514
0.00432878
0.192976
0.56468
0.270329
0.00832866
0.0212741
0.088772
0.0167253
7.35592e-08
2.18121e-06
1.20672e-05
2.93301e-05
4.45798e-05
0.000217658
0.00356615
0.0189408
0.0411176
0.0398
0.0593745
0.190279
0.309427
0.302813
0.0211641
0.00463761
0.0181392
0.0355371
0.00644979
3.07256e-07
5.61035e-06
1.75854e-05
1.65344e-05
8.4061e-06
3.50041e-05
0.000443889
0.00884565
0.0713697
0.199852
0.229139
0.228254
0.18971
0.0307391
0.00432128
0.00432064
0.0073871
0.0170032
0.00644979
1.84548e-07
2.3902e-06
5.11102e-06
4.40435e-06
6.28752e-06
9.59951e-05
0.0012544
0.011825
0.0566005
0.121168
0.136576
0.0658436
0.0162342
0.00484004
0.00502097
0.00796799
0.0136364
0.0112548
0.0131169
8.85543e-08
1.30957e-06
2.70245e-06
4.55329e-06
4.68345e-05
0.00060261
0.00317275
0.0085057
0.0126826
0.015429
0.016665
0.0158091
0.0253342
0.0505185
0.0478173
0.0334694
0.0309485
0.0480055
0.159052
7.82336e-08
9.18432e-07
1.85256e-06
2.41502e-06
1.86435e-05
0.000159011
0.000613126
0.00192038
0.00623447
0.0159744
0.0256768
0.0345032
0.0565962
0.131269
0.165326
0.174194
0.159358
0.282191
0.475952
9.92093e-09
1.85875e-07
7.09246e-07
9.17604e-07
2.10753e-06
9.14476e-06
2.71018e-05
0.000635013
0.00889121
0.0471188
0.111948
0.122516
0.0537898
0.0403235
0.170024
0.366467
0.395295
0.445812
0.489184
6.89888e-08
5.43983e-08
6.48185e-08
1.1164e-07
1.07896e-07
2.48243e-07
5.1757e-06
0.000623225
0.0184525
0.110615
0.150841
0.150829
0.0250424
0.00118153
0.0133106
0.106783
0.116532
0.0571499
0.489184
1.09162e-06
1.62251e-07
1.28454e-07
8.39624e-08
4.0296e-08
4.26393e-08
3.8745e-05
0.00581109
0.0588001
0.150841
0.150829
0.0699426
0.00305296
0.000341036
0.0014535
0.00403659
0.00792441
0.0168717
0.457834
1.09638e-05
1.95546e-05
2.26481e-05
7.38489e-07
4.0296e-08
1.1388e-06
0.000835593
0.028009
0.104257
0.122243
0.0872209
0.00718673
0.000888873
0.000337105
0.00065601
0.000803833
0.000798625
0.0116061
0.0818928
1.60733e-05
0.000101064
0.000304217
8.43618e-06
7.13699e-08
0.00013014
0.00775557
0.0455929
0.0629954
0.0147628
0.00305422
0.000561714
0.000306449
0.000450891
0.00230007
0.00100574
0.000824812
0.00125591
0.00227991
1.10269e-05
8.39519e-05
0.000379446
4.40748e-05
5.86431e-07
3.38179e-05
0.00166139
0.0109475
0.0114679
0.00061514
9.35776e-05
5.58744e-05
4.712e-05
0.000289171
0.00265008
0.00265009
0.00213111
0.000196129
0.000184804
2.65715e-06
2.46353e-05
0.000282785
0.000394805
4.32351e-05
3.01819e-05
0.00128166
0.00832606
0.00716209
7.68856e-05
2.1732e-05
2.1731e-05
2.1732e-05
0.000188812
0.0026501
0.00265008
0.000842951
8.46499e-05
8.8358e-05
1.50489e-07
2.50066e-06
0.000116588
0.000713931
0.000234946
5.95594e-05
0.00365835
0.0141676
0.0079379
7.21172e-05
2.1731e-05
2.1732e-05
4.90926e-05
0.000766181
0.00144458
0.000859733
8.77039e-05
6.20653e-05
0.000635775
6.85581e-09
7.21659e-08
2.49807e-05
0.000709829
0.000515235
0.00016474
0.00307729
0.0141782
0.00186845
6.18708e-05
2.1732e-05
2.87193e-05
0.000468755
0.00148912
0.000380794
5.92708e-05
1.01883e-05
6.1209e-05
0.0104116
2.33278e-07
2.14354e-07
2.73401e-06
0.00041747
0.0003961
0.000188166
0.00218652
0.0128268
0.00142498
0.00020377
3.08345e-05
0.000287739
0.00133403
0.0014759
0.000279875
1.05549e-05
1.28152e-06
5.31054e-05
0.059167
1.16579e-06
6.34803e-06
5.74811e-06
0.000214559
0.000144784
0.000148309
0.00218033
0.00861002
0.00364922
0.000647917
6.76729e-05
0.00105258
0.00144117
0.00119687
0.000177892
3.45167e-06
4.86885e-07
0.000150874
0.135906
3.50646e-05
0.000204545
0.00010136
0.000138728
0.000142992
0.000156485
0.00390829
0.00492476
0.0033287
0.00107543
0.000462875
0.00126476
0.00120775
0.00018049
2.66148e-05
8.11286e-07
4.82657e-07
0.00113035
0.14421
0.000240095
0.000696279
0.000613024
0.000303065
0.00021801
0.000259428
0.00386758
0.00234192
0.00183765
0.00198114
0.0013949
0.000611974
0.000131717
1.77131e-05
1.05082e-06
4.14584e-08
4.07538e-07
0.00285789
0.107519
0.000330821
0.000703877
0.000703877
0.00027556
0.000725995
0.000775139
0.00156378
0.00296947
0.00338637
0.00299339
0.00134741
0.000182999
9.3892e-06
4.91094e-07
2.11753e-08
6.74281e-10
2.87125e-07
0.00211216
0.0120763
0.000114732
0.000703877
0.000594087
0.000166648
0.000622283
0.000610508
0.000393505
0.00479126
0.00336152
0.000859698
0.000241787
4.23922e-05
1.97832e-06
1.73657e-08
2.02267e-10
1.13592e-10
1.23891e-07
0.000575281
0.00207978
4.09827e-05
0.000402343
0.000207116
8.88953e-05
0.000274813
0.000246797
0.000229672
0.00482567
0.00383996
0.000733242
5.12291e-05
1.78817e-06
5.01314e-08
3.74589e-10
2.0455e-11
2.94405e-11
3.57334e-08
0.000135164
0.010232
2.17769e-05
0.000100411
2.76636e-05
4.01129e-05
5.72767e-05
5.24689e-05
0.000276177
0.00343687
0.00205117
0.000406069
2.73324e-05
4.68169e-07
1.29962e-09
4.70224e-13
1.94745e-11
5.59428e-12
9.74026e-12
0.000387389
0.0630627
8.12954e-06
8.72199e-06
2.61155e-06
6.35001e-06
6.57431e-06
7.51711e-05
0.0015709
0.00212244
0.000998356
0.000181012
1.68901e-05
4.9128e-07
1.6371e-09
2.62965e-13
6.44334e-12
7.77254e-13
2.41316e-12
0.00322966
0.194956
2.55819e-06
2.55998e-06
2.55253e-06
3.61281e-06
3.70365e-05
0.000515271
0.00232384
0.00118271
0.000199976
1.56643e-05
1.39381e-06
3.2121e-08
1.05402e-10
2.23268e-14
4.68874e-13
1.11569e-13
4.06559e-13
0.00777746
0.248762
2.57209e-06
2.55819e-06
2.84377e-06
6.08604e-05
0.000659658
0.00127983
0.00130906
0.000241344
7.35244e-06
8.94734e-08
3.46413e-09
6.41403e-11
2.1401e-13
6.55901e-16
9.90517e-15
1.86043e-15
9.28445e-15
0.000756243
0.149626
2.5721e-06
3.0219e-06
8.87785e-05
0.000653803
0.000984828
0.000866331
4.74004e-05
1.18754e-07
3.26896e-11
1.32381e-13
1.05711e-15
2.94734e-17
4.60291e-16
1.49516e-16
1.77432e-16
3.09983e-17
9.18551e-17
2.07103e-11
0.0100837
5.79464e-05
0.000188142
0.00044657
0.000719445
0.000441683
0.00013537
7.51088e-10
9.38605e-13
1.48624e-16
8.70286e-24
1.6035e-22
8.14017e-22
1.27512e-20
7.93948e-21
5.72327e-21
2.61952e-21
2.54789e-21
7.65705e-18
0.000960793
)
;

boundaryField
{
    leftWall
    {
        type            zeroGradient;
    }
    rightWall
    {
        type            zeroGradient;
    }
    lowerWall
    {
        type            zeroGradient;
    }
    atmosphere
    {
        type            inletOutlet;
        inletValue      uniform 0;
        value           nonuniform List<scalar> 
46
(
0
0
0
0
0
0
0
0
0
0
0
0
0
0
0
2.00946e-05
5.85901e-05
0
0
0
2.46534e-06
6.9519e-06
7.08109e-06
2.02882e-06
2.02882e-06
4.76977e-06
1.07905e-05
5.79464e-05
0.000188142
0.00044657
0.000719445
0.000441683
0.00013537
0
0
0
0
0
0
0
0
0
0
0
0
0.000960793
)
;
    }
    defaultFaces
    {
        type            empty;
    }
}


// ************************************************************************* //
