/*--------------------------------*- C++ -*----------------------------------*\
| =========                 |                                                 |
| \\      /  F ield         | foam-extend: Open Source CFD                    |
|  \\    /   O peration     | Version:     4.1                                |
|   \\  /    A nd           | Web:         http://www.foam-extend.org         |
|    \\/     M anipulation  |                                                 |
\*---------------------------------------------------------------------------*/
FoamFile
{
    version     2.0;
    format      ascii;
    class       volScalarField;
    location    "0.55";
    object      p;
}
// * * * * * * * * * * * * * * * * * * * * * * * * * * * * * * * * * * * * * //

dimensions      [1 -1 -2 0 0 0 0];

internalField   nonuniform List<scalar> 
2268
(
500.954
503.054
504.487
508.96
517.264
524.642
545.332
568.372
597.842
634.311
662.554
691.592
705.168
728.257
746.407
764.592
781.712
796.47
811.364
825.866
840.451
851.096
858.729
441.701
443.842
445.104
449.634
457.678
465.199
485.346
508.75
539.297
575.025
599.819
632.334
646.018
669.707
687.922
705.942
723.86
738.06
752.337
766.702
782.362
792.489
800.791
382.052
384.236
385.152
390.005
397.658
404.777
425.683
448.721
479.38
516.234
544.716
569.388
589.194
610.499
630.469
647.717
665.266
679.82
694.492
708.726
722.825
733.984
743.294
322.122
324.37
324.672
329.857
336.813
344.234
363.8
387.938
422.025
459.755
479.925
509.836
530.442
553.542
571.707
589.905
607.557
621.909
635.718
650.756
665.222
676.29
685.348
261.749
264.048
263.452
269.607
274.924
281.76
302.669
326.113
361.093
398.517
422.489
450.963
473.08
495.196
513.809
532.299
550.57
564.375
578.648
593.77
607.319
619.184
631.002
201.385
203.54
201.766
208.616
212.906
219.445
237.006
265.584
301.415
331.303
361.529
390.783
415.499
437.158
455.982
473.234
492.019
507.669
522.665
537.142
551.751
564.178
574.045
140.328
142.49
139.557
147.651
150.623
153.922
170.279
199.476
235.402
270.699
302.585
334.514
356.365
380.152
399.381
415.779
437.907
450.826
468.152
481.885
497.721
509.432
525.024
82.731
84.5819
81.0823
88.8994
89.6104
92.4712
106.011
140.607
167.87
201.332
243.205
274.811
298.303
321.999
340.414
356.725
386.179
394.667
412.672
425.835
444.25
456.143
470.119
2321.7
1236.32
562.393
429.283
383.821
422.699
539.625
514.269
494.951
507.008
475.081
613.346
692.584
764.648
615.95
851.576
1226.3
1314.15
1295.92
2018.32
1037.06
434.723
397.532
303.533
322.516
480.349
455.778
447.034
461.901
398.097
548.348
681.516
420.378
598.072
791.266
1116.99
1274.25
1227.43
1487.39
662.153
294.849
356.995
285.392
300.037
444.498
435.225
402.915
386.805
288.722
488.474
498.286
230.529
496.15
654.167
1083.92
1173.82
1158.97
779.987
290.63
288.364
377.795
270.233
280.255
424.283
423.242
382.684
369.911
372.912
371.273
359.152
291.831
428.675
696.48
1009.17
1085.66
1091.64
546.382
207.742
256.383
469.655
277.825
270.322
431.439
397.453
378.7
371.35
370.703
363.407
347.63
336.318
356.526
608.432
871.942
999.49
995.178
561.675
263.773
216.367
337.226
364.935
337.188
435.168
391.662
375.982
371.716
370.866
362.044
351.536
358.735
297.526
403.691
732.731
857.44
906.825
497.907
311.525
234.602
304.863
416.426
310.32
460.668
393.133
377.684
369.372
368.118
359.217
353.054
336.169
236.117
315.51
588.228
726.851
822.174
489.488
346.077
300.828
315.619
408.642
349.075
416.595
396.238
363.563
355.662
337.791
349.973
348.672
304.741
230.388
255.611
464.754
615.573
744.701
28.4359
29.2803
27.1088
31.292
31.6865
28.5139
39.2286
51.6432
79.8048
122.069
152.403
189.541
212.875
235.808
256.837
264.602
299.499
306.199
330.06
337.185
360.155
379.548
402.824
2.88515
2.94464
2.86117
2.89693
3.20211
2.95467
4.30139
6.36523
13.5278
29.0834
54.0284
81.4018
105.426
123.55
135.99
154.299
172.834
183.171
204.307
223.853
245.427
270.616
286.07
1.76593
1.78229
1.76044
1.80208
1.78341
1.81266
1.9216
2.07446
3.06579
5.1836
11.6509
22.8964
34.0814
42.3948
50.2057
58.0955
66.6517
78.5868
94.7536
111.209
130.834
156.824
180.51
1.59975
1.6123
1.58098
1.64819
1.63898
1.67247
1.68722
1.72585
1.68692
1.34209
2.70924
3.82009
6.58149
5.94477
6.03921
7.93449
10.028
15.9965
19.1442
28.437
39.686
52.8576
65.3572
1.47292
1.47581
1.46984
1.4997
1.50255
1.52338
1.48927
1.55013
1.55628
1.42965
1.41878
1.49664
1.43569
1.68548
1.60802
1.51656
2.23155
2.53743
1.97551
4.55982
3.3003
8.45758
11.4274
1.31285
1.31561
1.31421
1.35028
1.33656
1.36842
1.35747
1.37092
1.32933
1.20552
1.22919
1.24495
1.26328
1.35265
1.32459
1.46711
1.47369
1.64195
1.36822
1.63958
1.75873
2.13985
2.37376
1.16972
1.17374
1.17678
1.18752
1.19724
1.21025
1.19382
1.21039
1.18119
1.12515
1.13698
1.13954
1.1988
1.19851
1.28868
1.28357
1.31475
1.39742
1.34707
1.48487
1.45798
1.56346
1.66639
1.01266
1.01644
1.01856
1.03059
1.03532
1.04797
1.047
1.02412
1.0785
1.01446
1.00642
1.01365
1.08715
1.08843
1.1284
1.16396
1.2016
1.24561
1.26067
1.31798
1.34242
1.41112
1.46622
0.860151
0.862256
0.867155
0.877722
0.87438
0.894805
0.894068
0.87739
0.857206
0.872349
0.881613
0.914419
0.918886
0.95059
1.02798
1.04082
1.05477
1.10018
1.15337
1.13174
1.20116
1.35108
1.29965
0.704139
0.701989
0.707052
0.714282
0.716149
0.724903
0.736656
0.735342
0.723916
0.754466
0.76605
0.776188
0.824281
0.835913
0.853099
0.927215
0.87915
1.00784
1.00982
1.05749
1.06782
1.18271
1.18984
0.548544
0.54566
0.549263
0.55521
0.560539
0.574149
0.576789
0.585587
0.59942
0.560715
0.598407
0.626304
0.654943
0.693964
0.702826
0.784009
0.790514
0.799847
0.859944
0.88074
1.00313
1.01782
1.05849
0.393699
0.394131
0.394856
0.39268
0.403789
0.409564
0.421893
0.411044
0.446829
0.462888
0.463311
0.498058
0.542957
0.54894
0.597232
0.623968
0.643445
0.705615
0.713819
0.797846
0.75445
0.857849
0.91733
0.238778
0.240265
0.239564
0.249619
0.256062
0.260394
0.276444
0.277158
0.321045
0.299264
0.34359
0.345391
0.353
0.419677
0.424495
0.499045
0.501829
0.543311
0.510006
0.695515
0.690802
0.728514
0.856197
0.0821677
0.0900633
0.0834571
0.102368
0.0889551
0.101326
0.106072
0.110629
0.0781659
0.106233
0.15371
0.204449
0.221537
0.231883
0.260005
0.293583
0.348494
0.39144
0.475964
0.456742
0.495284
0.630875
0.666486
-0.0742869
-0.0713252
-0.0702102
-0.0813147
-0.0510686
-0.0488467
-0.048039
-0.027392
-0.00891292
0.00834711
0.0098954
0.0187579
0.0883785
0.0574261
0.124125
0.199758
0.208384
0.218944
0.21121
0.389558
0.420215
0.347449
0.576557
-0.240478
-0.229509
-0.244554
-0.231498
-0.273112
-0.239967
-0.193422
-0.188338
-0.201466
-0.147147
-0.136033
-0.0829785
-0.0938996
-0.0485987
-0.0221326
0.0300201
0.0412898
0.118281
0.170187
0.218904
0.278393
0.29885
0.318179
-0.399425
-0.396835
-0.40861
-0.393231
-0.361784
-0.358858
-0.392243
-0.372311
-0.354437
-0.321543
-0.29756
-0.325287
-0.300814
-0.267441
-0.236007
-0.209028
-0.172171
-0.168394
-0.14325
-0.0666357
0.0608021
0.112164
0.156638
-0.563934
-0.562515
-0.539721
-0.524502
-0.546763
-0.524028
-0.497122
-0.520461
-0.519096
-0.48226
-0.503639
-0.439342
-0.458405
-0.40754
-0.442405
-0.345133
-0.33356
-0.254454
-0.202938
-0.220257
-0.1134
-0.104722
-0.109465
-0.743721
-0.737421
-0.740029
-0.774786
-0.766378
-0.705264
-0.722477
-0.694528
-0.704289
-0.615695
-0.705131
-0.579443
-0.674041
-0.587003
-0.523609
-0.488792
-0.427248
-0.399565
-0.352146
-0.337729
-0.271952
-0.319216
-0.139516
-0.908976
-0.890336
-0.877456
-0.897076
-0.887532
-0.905499
-0.89949
-0.876082
-0.868325
-0.885733
-0.816596
-0.847241
-0.763743
-0.777372
-0.736987
-0.688903
-0.660483
-0.604797
-0.568996
-0.576291
-0.54277
-0.460955
-0.398253
-1.08422
-1.08411
-1.08317
-1.09551
-1.08885
-1.08725
-1.05204
-1.05274
-1.03626
-1.00388
-1.01725
-0.950523
-0.98144
-0.869005
-0.944794
-0.843704
-0.828468
-0.786944
-0.744681
-0.788671
-0.721454
-0.673108
-0.659833
-1.25596
-1.25202
-1.25189
-1.25328
-1.25268
-1.25322
-1.23186
-1.22291
-1.2128
-1.20452
-1.19652
-1.18375
-1.18158
-1.16734
-1.04777
-1.07625
-1.059
-0.993092
-0.946022
-0.874888
-0.816634
-1.16676
-1.10387
-1.43876
-1.44625
-1.43918
-1.44275
-1.4529
-1.45284
-1.38985
-1.39825
-1.38471
-1.37953
-1.35099
-1.35731
-1.33577
-1.28077
-1.40293
-1.1601
-1.27467
-1.07263
-1.17824
-1.14828
-1.25485
-1.25165
-1.10079
-1.60468
-1.61274
-1.60092
-1.6016
-1.59362
-1.58749
-1.59035
-1.546
-1.55935
-1.56395
-1.54298
-1.60741
-1.50579
-1.49558
-1.50879
-1.53935
-1.50848
-1.56111
-1.4336
-1.33704
-1.31449
-1.20108
-1.36095
-1.80526
-1.84724
-1.81717
-1.77532
-1.75522
-1.78591
-1.74404
-1.7577
-1.74216
-1.76024
-1.7034
-1.71751
-1.66275
-1.70851
-1.62985
-1.64678
-1.60519
-1.63397
-1.63563
-1.79185
-1.68437
-1.42231
-1.65786
-1.94157
-1.97022
-1.94144
-1.94402
-1.90893
-1.94093
-1.94296
-1.94347
-1.92615
-1.9324
-1.86463
-1.88494
-1.82534
-1.84563
-1.84238
-1.77949
-1.81104
-1.79913
-1.79552
-2.14367
-2.1001
-2.14872
-1.92844
-2.19079
-2.18088
-2.17948
-2.14527
-2.15001
-2.1437
-2.12035
-2.1471
-2.09933
-2.09932
-2.1083
-2.05949
-2.11765
-2.10411
-1.98846
-2.11183
-1.94177
-2.27156
-2.18651
-2.15811
-2.05749
-1.99373
-2.57686
-2.36661
-2.32033
-2.30849
-2.33005
-2.33017
-2.31796
-2.32942
-2.31191
-2.32557
-2.29632
-2.30116
-2.26281
-2.30835
-2.24925
-2.39417
-2.23839
-2.27774
-2.26588
-2.33668
-2.2514
-2.39659
-2.38615
-2.37629
-2.55701
-2.55668
-2.57387
-2.54597
-2.54084
-2.52721
-2.52047
-2.50487
-2.49637
-2.50065
-2.55672
-2.51703
-2.50115
-2.60716
-2.52194
-2.53006
-2.55842
-2.52223
-2.5725
-2.74352
-2.84738
-2.70087
-2.71853
-2.75032
-2.7551
-2.76155
-2.75158
-2.76124
-2.74152
-2.73034
-2.72178
-2.72954
-2.71098
-2.74742
-2.74419
-2.73686
-2.83594
-2.714
-2.7761
-2.73622
-2.895
-2.87822
-2.76757
-2.8132
-2.75635
-2.90455
-2.96464
-2.98164
-2.99156
-2.98579
-2.97996
-2.97163
-2.9717
-2.96123
-2.95378
-2.93261
-2.93095
-2.94924
-2.92063
-2.96778
-2.97393
-3.05391
-3.04666
-3.40328
-3.05958
-2.94953
-3.26059
-3.38473
-3.51552
-3.20628
-3.20844
-3.21263
-3.21062
-3.21611
-3.19199
-3.19653
-3.18386
-3.17786
-3.17374
-3.1459
-3.22355
-3.1912
-3.10821
-3.15748
-3.0882
-3.41912
-3.55738
-3.4422
-3.41148
-3.42421
-3.75041
-3.75768
-3.45151
-3.45091
-3.45114
-3.44841
-3.44958
-3.44059
-3.44322
-3.43447
-3.43429
-3.43068
-3.42487
-3.4353
-3.42825
-3.45272
-3.45772
-3.61541
-3.64791
-3.80028
-3.78338
-3.88902
-3.9844
-4.11903
-3.92837
-3.68739
-3.68677
-3.68727
-3.6842
-3.68386
-3.67745
-3.67635
-3.66947
-3.66689
-3.6625
-3.6601
-3.66653
-3.66769
-3.65873
-3.67178
-3.69071
-3.98863
-4.11793
-4.56351
-4.10514
-4.46787
-4.56137
-4.58043
-3.93403
-3.93343
-3.93306
-3.93077
-3.93056
-3.92594
-3.92583
-3.92031
-3.91991
-3.91564
-3.91507
-3.91558
-3.91945
-3.92425
-3.936
-3.98012
-4.33266
-4.64079
-4.75904
-4.88247
-4.49308
-4.96099
-5.01727
-4.17534
-4.17494
-4.17451
-4.1729
-4.17176
-4.16898
-4.16727
-4.16392
-4.16239
-4.15987
-4.15999
-4.16296
-4.18306
-4.22743
-4.22689
-4.29039
-4.29437
-5.20486
-5.42058
-6.20954
-5.26699
-5.5756
-5.51615
-4.42754
-4.42729
-4.42677
-4.42564
-4.42482
-4.42254
-4.42211
-4.41835
-4.42003
-4.41623
-4.42197
-4.43329
-4.43045
-4.36836
-4.52109
-4.61897
-4.87306
-5.68466
-5.83416
-6.20771
-6.10414
-6.92437
-6.9948
-4.66818
-4.66816
-4.66788
-4.66762
-4.66674
-4.66628
-4.66529
-4.66393
-4.66701
-4.65843
-4.6817
-4.63385
-4.69531
-4.64997
-4.7443
-4.82941
-5.32422
-6.27428
-7.09544
-7.90252
-7.62501
-7.67293
-7.13877
-4.93367
-4.93366
-4.93337
-4.93346
-4.93255
-4.93293
-4.9308
-4.93191
-4.92685
-4.92976
-4.92393
-4.92406
-4.92301
-4.8971
-4.95418
-5.05378
-5.91803
-6.90138
-7.97596
-8.70902
-8.86462
-8.18979
-7.31869
-5.14735
-5.14757
-5.14753
-5.1481
-5.14776
-5.14897
-5.14803
-5.14982
-5.14914
-5.14788
-5.13429
-5.1381
-5.1408
-5.1131
-5.15594
-5.16658
-5.36659
-6.52026
-7.70331
-8.65546
-9.03911
-8.35601
-8.22282
-5.45518
-5.45613
-5.45707
-5.45902
-5.46046
-5.46376
-5.46455
-5.46986
-5.46395
-5.4744
-5.46822
-5.46093
-5.44372
-5.38523
-5.38946
-5.35854
-5.76918
-6.39683
-7.03576
-7.39958
-7.74329
-7.93585
-7.9001
-5.60614
-5.60601
-5.60567
-5.60541
-5.60473
-5.60463
-5.60377
-5.60375
-5.6045
-5.60225
-5.59789
-5.58861
-5.56644
-5.45752
-5.33473
-5.30341
-5.71076
-6.19435
-6.45478
-6.17777
-6.13199
-6.63639
-6.34293
399.469
418.718
424.326
410.733
311.851
322.497
335.993
338.428
202.456
211.508
227.724
229.458
78.1647
82.2206
86.8677
88.4768
17.4849
20.5323
22.3631
20.379
2.62437
2.45751
2.31896
2.37095
1.56231
1.63727
1.83729
1.87949
1.50993
1.56431
1.61744
1.67953
1.39851
1.39232
1.4361
1.44616
1.27991
1.34877
1.34047
1.2583
1.08621
1.06373
0.997104
1.02869
0.927319
0.927171
0.943017
1.08058
0.705783
0.813085
0.819325
0.84699
0.649754
0.649267
0.642958
0.629205
0.558439
0.589851
0.596097
0.598127
0.37681
0.402252
0.42674
0.478561
0.210543
0.254588
0.277357
0.306176
0.153074
0.143201
0.210966
0.23529
-0.302259
-0.0959517
0.178164
0.182308
-0.276546
-0.270146
-0.126018
-0.100336
-0.732234
-0.65803
-0.605874
-0.632424
-1.07898
-1.07557
-1.02418
-1.08145
-1.10273
-1.12317
-1.23268
-1.29761
-1.59498
-1.82753
-1.82673
-1.83077
-1.67805
-1.69539
-1.83135
-1.8292
-2.34019
-2.28217
-2.1363
-2.1577
-2.43015
-2.45098
-2.62991
-2.53549
-2.56316
-2.67167
-2.81735
-3.08206
-2.83362
-2.86791
-2.85671
-3.13889
-3.21772
-3.35869
-3.61703
-3.62366
-3.29395
-3.39996
-3.48566
-3.61249
-4.01802
-4.04001
-3.96214
-3.65783
-4.26362
-4.11814
-4.35984
-4.64108
-4.81802
-4.74155
-4.93812
-5.08677
-5.15811
-5.44345
-5.39339
-5.25585
-5.35287
-5.57913
-5.56198
-5.44629
-6.66985
-6.32831
-6.15268
-5.97848
-6.86029
-6.40636
-6.20319
-6.32347
-6.88791
-6.65094
-6.55754
-6.46122
-7.64602
-7.37169
-6.87066
-6.83933
-7.61877
-7.13869
-7.15954
-7.01131
-6.40401
-6.64289
-6.75852
-6.64367
518.304
333.634
225.389
360.656
283.625
386.802
364.966
395.454
391.247
225.851
125.448
129.869
279.555
242.199
214.039
203.145
294.968
449.388
617.663
363.884
334.066
295.828
199.777
208.935
214.695
210.374
74.9027
52.0448
86.1764
67.2236
64.8218
68.7347
132.528
168.282
159.234
202.12
301.124
464.808
285.173
223.346
111.536
151.969
210.514
68.0732
174.757
103.991
108.623
63.1416
62.2308
60.3707
58.2213
58.3448
105.847
129.686
114.45
241.874
342.759
89.0102
84.3433
46.8012
31.6562
51.8946
69.0309
34.9951
96.8139
50.7219
40.0421
60.7471
56.4388
53.0398
51.9304
71.2733
104.38
76.4701
186.864
245.67
13.6551
11.0396
5.77607
4.38342
6.16404
9.80859
10.391
21.5631
58.1005
34.9766
60.6587
57.0787
55.9355
57.97
60.5077
79.8246
82.2519
149.777
190.657
2.42279
2.38057
2.29179
2.28539
3.02832
3.09338
3.47493
3.37086
8.33729
39.3968
55.6609
63.6368
60.083
63.9731
64.6851
66.169
76.8105
204.214
182.487
2.07161
1.93243
1.98283
2.16019
2.01676
2.13189
2.6064
2.35888
2.78381
14.0499
69.1895
69.3598
63.2643
68.8831
73.9478
62.1888
66.075
29.4683
152.531
1.78022
1.75513
1.7267
1.72788
1.91188
2.04585
2.20712
2.13737
1.77239
-6.83412
34.8758
71.4856
65.4756
71.5303
82.1251
65.9795
85.5104
67.3447
130.028
1.49395
1.48723
1.64833
1.3971
1.60419
1.63336
1.89123
1.98811
1.54844
12.6198
58.2885
61.5878
61.8591
69.3136
87.6755
85.394
84.3377
56.9495
115.945
1.38062
1.27711
1.35805
1.45815
1.34489
1.35753
1.86458
1.43458
-0.5825
42.0867
55.7871
57.6294
58.8544
61.6921
51.2478
11.6683
69.6958
115.72
153.837
1.04754
1.32215
1.2548
1.16781
1.27252
1.06434
1.2942
1.15222
-0.785558
32.3965
52.2143
52.4891
55.6805
57.6681
62.5376
112.223
131.964
228.029
168.914
1.04135
1.07943
0.831085
0.932379
0.656909
0.488584
0.932007
0.184417
0.156769
28.7222
45.0057
45.2466
50.5211
47.2788
98.7621
121.469
132.029
33.4712
78.6034
0.832369
0.755234
0.786163
0.183448
-0.00792018
-0.281284
-0.415996
1.93156
20.276
10.1266
34.3649
37.4114
34.0247
43.8869
92.5439
96.1304
106.784
97.217
115.699
0.566675
0.654057
0.199227
-0.0960304
-0.0710327
-0.256051
-1.43893
-2.04912
7.5996
17.0006
26.5248
32.77
22.1357
35.0569
90.7837
104.302
110.462
108.021
138.197
0.448512
0.634751
0.22219
0.0209149
-0.533049
-0.76657
0.328469
6.69317
14.7709
18.5914
25.2177
35.2174
30.9734
88.0706
123.444
106.061
114.112
113.628
115.694
0.426434
0.466745
0.142633
-0.618934
-0.828581
-0.528586
-0.944183
0.302983
-6.69633
15.9171
25.4794
32.2849
74.6631
113.603
115.086
108.621
112.694
114.35
115.947
0.241856
0.266337
-0.225026
-0.924751
-1.4325
-1.57935
-1.57405
-0.522293
-3.85216
-0.604953
39.5397
52.3737
101.245
115.099
114.225
110.221
115.493
119.636
117.041
0.172202
0.602783
-0.261312
-1.54211
-1.35575
-2.59311
-2.55202
-2.49401
1.14913
-5.02962
51.6516
81.0177
101.841
108.454
109.367
110.979
109.783
111.392
113.325
0.120536
0.860671
0.196807
-2.29131
-1.43728
-1.72248
-1.90865
-6.85446
-6.41148
5.28147
39.7219
65.5878
68.685
96.9924
99.4678
104.066
110.258
102.861
107.354
-0.233742
0.00606117
-0.312846
-2.16693
-2.70013
-3.74774
-4.72708
-6.88144
2.02153
8.46056
26.2307
56.2507
51.2941
34.3087
125.998
112.966
167.275
179.565
139.804
-0.649492
-0.46486
-1.02865
-2.4136
-4.06575
-4.85172
-5.15402
-5.49091
-3.86718
-5.3034
26.0919
23.3234
15.2814
3.1587
39.0799
167.85
214.151
96.946
99.7963
-1.27019
-1.34985
-1.42893
-2.05186
-4.06683
-4.37394
-4.79973
-4.58256
-4.61528
-0.904389
15.2323
13.4292
-0.574218
-1.93335
-0.01714
-3.30367
-3.55219
-1.87112
1.53908
-1.86079
-1.86876
-2.56167
-2.78203
-3.4462
-3.82265
-4.22116
-3.59453
0.219724
24.1158
10.1802
-1.56354
-3.67469
-3.37013
-4.36863
-7.48792
-7.87795
-11.3445
-20.1419
-1.85035
-1.79614
-2.85701
-3.03082
-3.37405
-3.62437
-3.82514
-3.96939
-1.79564
-3.95897
-0.971627
-4.82578
-4.26567
-4.35164
-4.42057
-6.99888
-6.08313
-6.08797
-3.05636
-2.14679
-2.64478
-2.40313
-2.62928
-3.31781
-3.84421
-4.02704
-3.7978
-3.5082
-5.59686
-5.40897
-5.29891
-4.81584
-4.90163
-4.24743
-6.18203
-4.04176
-4.98626
-3.71438
-2.44948
-2.75811
-2.87157
-2.99432
-3.38318
-4.33688
-4.22324
-5.67917
-5.48005
-5.82519
-5.63414
-5.44728
-4.81934
-5.17021
-4.53504
-3.5118
-3.9384
-4.49199
-3.8443
-2.63616
-3.32396
-3.03015
-3.2751
-3.42373
-4.50043
-4.01903
-4.7848
-6.24519
-5.97605
-5.70912
-5.94815
-5.24382
-5.05858
-4.54897
-4.53556
-4.1762
-4.57407
-4.08694
-3.25093
-2.91099
-3.17494
-3.2547
-3.27042
-3.74053
-3.86605
-5.59384
-5.46651
-5.9688
-5.73161
-5.91578
-5.54031
-5.2049
-4.64123
-4.51263
-4.30893
-4.62375
-4.10122
-3.10984
-3.22046
-3.75901
-3.80505
-3.67735
-4.04596
-3.97017
-6.06773
-5.96745
-5.98657
-5.7613
-5.31893
-5.62913
-5.18715
-4.73028
-4.73473
-4.38176
-4.71576
-4.62971
-3.37495
-3.31622
-3.45299
-3.79099
-3.76943
-4.29221
-4.3019
-5.52736
-6.35666
-6.12307
-6.02265
-5.75125
-5.59167
-5.77995
-5.23626
-5.36664
-5.68409
-5.22724
-4.61135
-3.3286
-3.45465
-3.86625
-4.34915
-3.90429
-4.11786
-4.37999
-5.34616
-6.46496
-6.37935
-6.11338
-6.11518
-6.03842
-5.60548
-5.48094
-5.7089
-5.73427
-5.64208
-5.17027
-3.60576
-3.38123
-4.15422
-4.32797
-3.68564
-3.80783
-4.4348
-5.60416
-6.51892
-6.36861
-6.04296
-5.59304
-5.79397
-5.59185
-5.52756
-5.69636
-4.7341
-5.9478
-4.39404
-4.29338
-3.80877
-4.41744
-4.25365
-3.75526
-3.95336
-4.34527
-6.44634
-6.23689
-6.54088
-5.86784
-5.69053
-5.80677
-5.63815
-5.52043
-5.61142
-5.04732
-5.74522
1.09845
-5.03668
-4.19087
-4.53489
-4.06143
-4.2217
-4.77216
-5.88339
-6.01121
-6.07569
-6.41812
-7.31934
-6.45465
-6.14754
-5.92501
-5.6301
-5.56866
-5.06939
-5.07465
-4.33482
-5.34995
-4.54522
-4.3793
-4.13903
-3.64477
-4.52348
-5.01805
-4.81929
-6.08714
-6.42151
-6.37835
-6.19042
-6.02839
-6.08092
-5.85764
-5.58193
-5.28641
-6.23623
-4.88513
-5.41381
-4.73079
-4.71436
-4.92496
-5.50162
-5.14369
-4.87899
-5.37814
-6.2951
-5.80662
-6.0088
-5.83939
-5.96824
-5.97875
-6.32003
-6.69056
-6.60906
-6.37502
-5.11951
-5.67509
-5.23038
-5.1713
-4.5095
-5.52231
-4.87227
-4.7638
-4.97144
-5.29963
-5.8587
-5.88548
-5.84142
-5.96109
-6.09869
-6.19347
-6.60162
-6.86041
-6.95492
-8.18785
-6.31456
-5.76999
-5.60158
-4.18426
-5.33295
-3.95533
-4.56389
-5.00348
-5.4587
-5.44671
-5.95371
-5.66739
-5.77357
-5.96996
-6.00516
-5.83084
-6.24244
-7.81505
-12.1723
-6.38773
-6.36954
-6.19108
-6.10779
-5.93363
-5.33619
-4.78166
-5.07606
-5.1869
-5.73733
-5.60627
-5.63252
-5.62977
-5.91369
-5.90476
-5.8458
-5.34915
-6.19171
18.0555
-6.69883
-7.00376
-7.76931
-7.35458
-5.96506
-5.08634
-5.23705
-5.07029
-5.55155
-5.80132
-6.18204
-6.44087
-6.4659
-6.11923
-5.96967
-5.88354
-5.96283
-6.17364
1.6288
-6.31613
-6.50769
-7.93136
-8.02974
-6.51558
-5.64812
-5.27801
-5.26617
-5.52626
-5.96046
-6.22477
-6.41399
-6.33063
-6.45148
-6.85936
-6.39358
-6.40702
-6.57044
-6.47091
-7.07013
-7.05555
-7.19833
-8.33066
-7.57959
-6.23692
-5.8853
-5.7346
-6.00906
-5.80313
-5.99803
-6.10125
-6.32781
-7.06425
-6.49579
-7.53076
-6.86091
-7.30554
-8.77047
)
;

boundaryField
{
    leftWall
    {
        type            calculated;
        value           nonuniform List<scalar> 
50
(
500.954
441.701
382.052
322.122
261.749
201.385
140.328
82.731
28.4359
2.88515
1.76593
1.59975
1.47292
1.31285
1.16972
1.01266
0.860151
0.704139
0.548544
0.393699
0.238778
0.0821677
-0.0742869
-0.240478
-0.399425
-0.563934
-0.743721
-0.908976
-1.08422
-1.25596
-1.43876
-1.60468
-1.80526
-1.94157
-2.19079
-2.36661
-2.55701
-2.75032
-2.96464
-3.20628
-3.45151
-3.68739
-3.93403
-4.17534
-4.42754
-4.66818
-4.93367
-5.14735
-5.45518
-5.60614
)
;
    }
    rightWall
    {
        type            calculated;
        value           nonuniform List<scalar> 
50
(
1295.92
1227.43
1158.97
1091.64
995.178
906.825
822.174
744.701
617.663
464.808
342.759
245.67
190.657
182.487
152.531
130.028
115.945
153.837
168.914
78.6034
115.699
138.197
115.694
115.947
117.041
113.325
107.354
139.804
99.7963
1.53908
-20.1419
-3.05636
-3.71438
-3.8443
-4.08694
-4.10122
-4.62971
-4.61135
-5.17027
-4.39404
1.09845
-4.33482
-4.88513
-5.11951
-8.18785
-12.1723
18.0555
1.6288
-6.47091
-8.77047
)
;
    }
    lowerWall
    {
        type            calculated;
        value           nonuniform List<scalar> 
62
(
530.384
532.483
533.916
538.39
546.693
554.072
574.761
597.802
627.271
663.741
691.983
721.022
734.597
757.686
775.836
794.021
811.141
825.899
840.794
855.295
869.881
880.525
888.158
858.729
800.791
743.294
685.348
631.002
574.045
525.024
470.119
462.065
481.306
486.6
462.35
2321.7
2018.32
1487.39
779.987
546.382
561.675
497.907
489.488
2342.47
1264.9
590.976
457.874
412.56
451.617
568.663
543.379
524.07
536.119
504.04
642.176
721.716
793.91
645.212
880.838
1255.53
1343.16
1324.76
)
;
    }
    atmosphere
    {
        type            calculated;
        value           nonuniform List<scalar> 
46
(
-5.75284
-5.75389
-5.75467
-5.75591
-5.75736
-5.75961
-5.76132
-5.76517
-5.76595
-5.77267
-5.77537
-5.78029
-5.78569
-5.77289
-5.74988
-5.84405
-6.06437
-5.81507
-5.96685
-5.84744
-5.74315
-5.76883
-5.76957
-5.74065
-5.74065
-5.75634
-5.7908
-6.06069
-6.80583
-8.2849
-9.84665
-8.25693
-6.5038
-5.82174
-5.78611
-5.96001
-6.06476
-6.1933
-6.34329
-6.47605
-6.91701
-6.92061
-7.21651
-7.02516
-7.46895
-11.228
)
;
    }
    defaultFaces
    {
        type            empty;
    }
}


// ************************************************************************* //
