/*--------------------------------*- C++ -*----------------------------------*\
| =========                 |                                                 |
| \\      /  F ield         | foam-extend: Open Source CFD                    |
|  \\    /   O peration     | Version:     4.1                                |
|   \\  /    A nd           | Web:         http://www.foam-extend.org         |
|    \\/     M anipulation  |                                                 |
\*---------------------------------------------------------------------------*/
FoamFile
{
    version     2.0;
    format      ascii;
    class       volScalarField;
    location    "0.55";
    object      pd;
}
// * * * * * * * * * * * * * * * * * * * * * * * * * * * * * * * * * * * * * //

dimensions      [1 -1 -2 0 0 0 0];

internalField   nonuniform List<scalar> 
2268
(
530.384
532.483
533.916
538.39
546.693
554.072
574.761
597.802
627.271
663.741
691.983
721.022
734.597
757.686
775.836
794.021
811.141
825.899
840.794
855.295
869.881
880.525
888.158
529.989
532.13
533.392
537.922
545.966
553.487
573.634
597.038
627.585
663.313
688.107
720.623
734.306
757.995
776.21
794.23
812.148
826.348
840.626
854.99
870.65
880.778
889.077
529.199
531.382
532.298
537.152
544.805
551.924
572.83
595.868
626.526
663.38
691.863
716.535
736.341
757.646
777.615
794.864
812.412
826.967
841.639
855.872
869.972
881.131
890.438
528.128
530.376
530.677
535.862
542.818
550.239
569.806
593.943
628.031
665.761
685.931
715.841
736.447
759.548
777.713
795.911
813.562
827.915
841.724
856.761
871.227
882.295
891.351
526.614
528.912
528.317
534.471
539.788
546.624
567.533
590.977
625.957
663.381
687.354
715.827
737.944
760.06
778.673
797.163
815.435
829.24
843.512
858.634
872.183
884.048
895.865
525.1
527.257
525.469
532.334
536.624
543.167
560.729
589.307
625.138
655.026
685.252
714.506
739.222
760.881
779.705
796.957
815.742
831.392
846.388
860.865
875.474
887.901
897.767
520.922
523.264
519.187
528.988
531.761
535.764
552.719
581.529
617.712
653.247
685.166
717.096
738.947
762.734
781.963
798.36
820.489
833.408
850.733
864.466
880.302
892.014
907.606
475.502
479.85
466.126
492.593
490.801
501.166
523.571
560.659
598.324
640.882
684.591
716.251
739.744
763.439
781.855
798.166
827.62
836.107
854.112
867.275
885.69
897.584
911.56
2342.47
1264.9
590.976
457.874
412.56
451.617
568.663
543.379
524.07
536.119
504.04
642.176
721.716
793.91
645.212
880.838
1255.53
1343.16
1324.76
2089.61
1105.57
473.305
431.833
347.651
374.917
545.137
529.206
525.86
544.587
483.205
634.977
768.834
508.087
685.861
879.052
1204.78
1362.04
1315.19
1624.04
789.909
350.003
368.445
291.663
306.487
454.146
441.912
434.143
439.202
370.052
604.992
618.368
369.85
642.461
800.483
1230.23
1320.13
1305.28
971.293
473.982
399.868
473.142
307.208
337.815
452.806
427.287
387.039
373.571
388.383
410.153
392.51
432.584
632.72
901.316
1214.01
1290.49
1296.48
792.345
363.338
390.556
613.194
432.047
447.265
520.22
411.02
379.738
371.826
371.759
368.958
351.897
406.092
594.169
861.555
1133.32
1262.86
1258.54
814.534
307.797
350.567
588.367
654.314
620.034
548.67
405.203
377.595
372.302
371.435
362.63
352.214
383.229
456.373
632.472
1042.11
1177.66
1228.69
558.816
323.791
353.022
646.379
793.7
673.214
648.527
423.006
384.131
381.204
374.855
361.134
353.875
342.11
277.898
422.154
915.047
1096.04
1195.54
503.331
359.92
456.785
730.798
848.837
772.708
671.108
504.05
484.658
510.309
472.054
411.269
355.393
310.878
238.616
315.996
754.847
1029.86
1151.17
234.383
241.061
222.33
262.051
260.083
235.517
290.117
350.544
461.844
601.108
669.451
717.193
743.07
768.033
789.802
797.963
832.937
839.657
863.523
870.651
893.622
913.015
936.291
13.9785
14.5975
13.7589
13.9275
16.4514
12.8596
25.2243
48.4699
114.314
258.913
445.682
611.151
696.961
751.109
780.969
805.922
826.612
838.63
861.985
882.345
904.077
929.277
944.728
2.75408
2.7821
2.69885
2.65275
2.7869
2.77353
3.34889
4.85587
13.7112
46.3526
119.393
235.488
351.481
456.427
545.184
610.444
678.116
732.725
811.373
861.329
906.082
937.751
962.95
2.5149
2.52755
2.49171
2.55898
2.55189
2.58614
2.61247
2.70947
3.31383
6.21192
19.095
45.2764
72.5281
64.162
70.0278
97.613
115.483
171.9
269.441
384.247
527.142
675.834
829.695
2.50768
2.51032
2.50411
2.53398
2.53693
2.55812
2.52435
2.58597
2.621
2.94749
4.65248
5.94885
5.94397
3.94032
3.86325
6.28797
11.7331
14.3962
14.4892
34.0128
41.2348
89.5121
172.667
2.47237
2.47507
2.47365
2.50972
2.49601
2.52793
2.51705
2.53046
2.48924
2.38036
2.48342
2.47886
2.46405
2.56893
2.52363
2.72708
3.02236
3.43015
3.77638
5.95859
5.78863
11.5173
15.8087
2.45436
2.45838
2.46141
2.47215
2.48188
2.49489
2.47847
2.49504
2.46585
2.41009
2.42342
2.42739
2.49925
2.51581
2.5967
2.60102
2.6266
2.70582
2.64149
2.8392
3.16093
3.94311
4.17965
2.42249
2.42627
2.42839
2.44042
2.44515
2.45779
2.45683
2.43395
2.48833
2.42432
2.41661
2.4278
2.52579
2.53312
2.55275
2.58215
2.61529
2.65809
2.6731
2.7356
2.76793
2.8473
2.9052
2.39517
2.39728
2.40218
2.41275
2.4094
2.42983
2.42909
2.41241
2.39223
2.40744
2.41719
2.4509
2.46166
2.50497
2.56758
2.57778
2.59058
2.63561
2.68898
2.66869
2.73976
2.89067
2.83792
2.36436
2.36221
2.36727
2.3745
2.37637
2.38512
2.39687
2.39556
2.38414
2.41475
2.42666
2.43668
2.48501
2.497
2.51359
2.58755
2.53944
2.66823
2.67024
2.71787
2.72838
2.84333
2.85015
2.33396
2.33107
2.33468
2.34062
2.34595
2.35956
2.3622
2.371
2.38483
2.34614
2.38391
2.41174
2.44037
2.47939
2.48824
2.56942
2.57593
2.58527
2.64536
2.66615
2.78855
2.80324
2.84391
2.30431
2.30474
2.30546
2.30329
2.3144
2.32017
2.3325
2.32165
2.35744
2.3735
2.37392
2.40867
2.45356
2.45955
2.50784
2.53458
2.55405
2.61622
2.62443
2.70845
2.66506
2.76846
2.82794
2.27458
2.27607
2.27537
2.28542
2.29186
2.2962
2.31225
2.31296
2.35685
2.33507
2.37939
2.38119
2.3888
2.45548
2.4603
2.53485
2.53763
2.57911
2.54581
2.73132
2.7266
2.76431
2.892
2.24316
2.25106
2.24445
2.26336
2.24995
2.26232
2.26707
2.27162
2.23916
2.26723
2.31471
2.36545
2.38253
2.39288
2.421
2.45458
2.50949
2.55244
2.63696
2.61774
2.65628
2.79187
2.82748
2.2119
2.21487
2.21598
2.20488
2.23512
2.23734
2.23815
2.2588
2.27728
2.29454
2.29609
2.30495
2.37457
2.34362
2.41032
2.48595
2.49457
2.50513
2.4974
2.67575
2.70641
2.63364
2.86275
2.17091
2.18188
2.16683
2.17989
2.13827
2.17142
2.21796
2.22305
2.20992
2.26424
2.27535
2.32841
2.31749
2.36279
2.38925
2.44141
2.45267
2.52967
2.58157
2.63029
2.68978
2.71023
2.72956
2.13715
2.13974
2.12797
2.14335
2.1748
2.17772
2.14434
2.16427
2.18214
2.21504
2.23902
2.21129
2.23577
2.26914
2.30057
2.32755
2.36441
2.36819
2.39333
2.46994
2.59738
2.64874
2.69322
2.09784
2.09926
2.12205
2.13727
2.11501
2.13775
2.16465
2.14131
2.14268
2.17951
2.15814
2.22243
2.20337
2.25423
2.21937
2.31664
2.32821
2.40732
2.45884
2.44152
2.54837
2.55705
2.55231
2.04325
2.04955
2.04694
2.01218
2.02059
2.0817
2.06449
2.09244
2.08268
2.17127
2.08184
2.20753
2.11293
2.19997
2.26336
2.29818
2.35972
2.3874
2.43482
2.44924
2.51502
2.46775
2.64745
2.00319
2.02183
2.03471
2.01509
2.02463
2.00666
2.01267
2.03608
2.04384
2.02643
2.09557
2.06492
2.14842
2.13479
2.17518
2.22326
2.25168
2.30737
2.34317
2.33587
2.36939
2.45121
2.51391
1.95314
1.95325
1.95418
1.94184
1.94851
1.95011
1.98532
1.98462
2.00109
2.03348
2.0201
2.08683
2.05592
2.16835
2.09256
2.19365
2.20889
2.25041
2.29268
2.24869
2.3159
2.36425
2.37752
1.9066
1.91053
1.91066
1.90928
1.90987
1.90933
1.9307
1.93964
1.94975
1.95803
1.96603
1.9788
1.98098
1.99521
2.11478
2.0863
2.10356
2.16946
2.21653
2.28766
2.34592
1.99579
2.05869
1.84899
1.84149
1.84857
1.845
1.83484
1.83491
1.8979
1.88949
1.90303
1.90822
1.93676
1.93044
1.95198
2.00698
1.88482
2.12765
2.01308
2.21512
2.1095
2.13946
2.0329
2.0361
2.18696
1.80827
1.8002
1.81203
1.81134
1.81932
1.82545
1.8226
1.86694
1.85359
1.84899
1.86996
1.80553
1.90715
1.91736
1.90416
1.87359
1.90446
1.85184
1.97934
2.0759
2.09845
2.21186
2.05201
1.73288
1.69089
1.72096
1.76282
1.78291
1.75222
1.7941
1.78043
1.79598
1.7779
1.83474
1.82062
1.87539
1.82962
1.90829
1.89135
1.93295
1.90417
1.90251
1.74628
1.85377
2.11583
1.88029
1.72176
1.69311
1.72189
1.71931
1.7544
1.7224
1.72037
1.71986
1.73718
1.73093
1.7987
1.77839
1.83799
1.8177
1.82095
1.88384
1.85229
1.8642
1.86781
1.51966
1.56323
1.51461
1.7349
1.59774
1.60765
1.60905
1.64325
1.63852
1.64482
1.66818
1.64142
1.6892
1.68921
1.68023
1.72904
1.67088
1.68441
1.80007
1.67669
1.84675
1.51696
1.60201
1.63041
1.73104
1.79479
1.21166
1.54711
1.59339
1.60523
1.58367
1.58355
1.59576
1.5843
1.60181
1.58815
1.6174
1.61256
1.65091
1.60537
1.66447
1.51955
1.67533
1.63598
1.64784
1.57704
1.66232
1.51713
1.52757
1.53743
1.48191
1.48224
1.46505
1.49294
1.49808
1.51171
1.51844
1.53405
1.54254
1.53826
1.48219
1.52188
1.53777
1.43176
1.51698
1.50885
1.48049
1.51669
1.46641
1.2954
1.19159
1.33822
1.3205
1.41379
1.40901
1.40256
1.41253
1.40287
1.42259
1.43376
1.44233
1.43456
1.45313
1.41669
1.41992
1.42725
1.32817
1.45011
1.38801
1.42789
1.26911
1.28595
1.39699
1.35933
1.41678
1.26724
1.32466
1.30766
1.29774
1.30352
1.30934
1.31767
1.3176
1.32807
1.33553
1.3567
1.35835
1.34006
1.36868
1.32152
1.31538
1.23539
1.24264
0.886024
1.22992
1.34139
1.06179
1.05389
0.891797
1.20822
1.20606
1.20187
1.20388
1.19839
1.22251
1.21797
1.23064
1.23664
1.24075
1.2686
1.19095
1.2233
1.30629
1.25702
1.3263
0.995383
0.857126
0.972435
1.00456
1.00725
0.799138
1.42504
1.08818
1.08878
1.08855
1.09128
1.09011
1.0991
1.09647
1.10522
1.1054
1.10901
1.11482
1.1044
1.11144
1.08698
1.08197
0.924284
0.89178
0.73941
0.756346
0.651166
0.560656
0.53188
1.36742
0.977498
0.97812
0.977621
0.980687
0.981031
0.987441
0.988533
0.995417
0.997995
1.00238
1.00479
0.998359
0.997192
1.00616
0.993104
0.97418
0.676255
0.546971
0.101406
0.559864
0.198308
0.146892
0.314115
0.85605
0.856651
0.857018
0.859313
0.859521
0.864137
0.864253
0.869771
0.870169
0.874437
0.875012
0.874501
0.870635
0.865829
0.85408
0.809965
0.457629
0.150429
0.0316835
-0.0920432
0.297543
-0.166103
-0.118007
0.739934
0.740335
0.740766
0.742376
0.743511
0.746292
0.74801
0.751357
0.75289
0.75541
0.755286
0.752312
0.732213
0.687842
0.688389
0.625733
0.652155
-0.167576
-0.348436
-1.21563
-0.329712
-0.637898
0.0228893
0.612932
0.613175
0.613696
0.614829
0.615649
0.617931
0.618356
0.62212
0.620435
0.62424
0.618501
0.607184
0.610018
0.67211
0.519468
0.464112
0.652371
0.402698
0.602569
-0.114537
-0.466865
-1.26895
-0.350987
0.497489
0.497501
0.497782
0.498048
0.498927
0.499381
0.500372
0.501732
0.498654
0.507232
0.483967
0.531815
0.470352
0.515694
0.424171
0.663858
1.21027
0.998673
0.215459
-0.616852
-0.221348
-0.263302
-0.334213
0.357185
0.357197
0.357487
0.3574
0.358305
0.357926
0.360056
0.35895
0.36401
0.3611
0.366931
0.366796
0.367852
0.393758
0.357011
0.951466
0.819597
-1.39783
-2.47985
-3.21887
-2.09226
-1.18592
-1.13479
0.268699
0.268485
0.268522
0.267953
0.268292
0.267087
0.268023
0.266234
0.266911
0.26817
0.281765
0.277953
0.275257
0.302957
0.310081
0.853992
0.668582
-1.09042
-2.27878
-3.15196
-3.34828
-2.58054
-2.66204
0.086065
0.0851179
0.0841741
0.0822323
0.080787
0.0774892
0.0766984
0.0713872
0.0773008
0.0668472
0.0730243
0.0803153
0.0975295
0.156025
0.162609
0.289124
-0.114771
-0.822505
-1.49153
-1.85349
-2.18752
-2.37418
-2.34424
0.060304
0.0604286
0.0607743
0.061034
0.0617166
0.0618108
0.0626723
0.0626927
0.0619457
0.0641891
0.0685554
0.0778361
0.100006
0.208925
0.333996
0.476784
0.287351
-0.412579
-0.786721
-0.510275
-0.451588
-0.930589
-0.636401
932.926
952.107
955.039
850.622
970.496
981.098
994.458
990.242
985.643
994.65
1010.58
1011.2
910.293
917.476
924.35
916.111
280.076
327.157
356.672
312.77
23.2069
20.5248
12.1255
8.6128
3.65914
3.5223
3.27155
3.18168
2.93386
2.99684
3.034
3.09012
2.93437
2.92784
2.97125
2.98129
2.94013
3.00899
3.00069
2.91853
2.87162
2.84915
2.78252
2.81412
2.83793
2.83778
2.85362
2.99119
2.74158
2.84889
2.85513
2.88279
2.81075
2.81026
2.80395
2.7902
2.84463
2.87604
2.88229
2.88432
2.7882
2.81364
2.83813
2.88995
2.74712
2.79117
2.81394
2.84276
2.81485
2.80498
2.87274
2.89706
2.48471
2.69102
2.96513
2.96928
2.63562
2.64202
2.78615
2.81183
2.30512
2.37933
2.43149
2.40493
2.08357
2.08725
2.1394
2.08171
2.18503
2.16481
2.05676
1.99453
1.81798
1.5855
1.58698
1.58741
1.8601
1.84278
1.70691
1.71122
1.32316
1.38118
1.52705
1.5059
1.35838
1.33755
1.15862
1.25304
1.35056
1.24205
1.09638
0.83166
1.20535
1.17103
1.18222
0.900042
0.951934
0.809042
0.548751
0.540773
1.07321
0.937311
0.8234
0.68093
1.12422
0.784157
0.566015
0.79798
1.26863
1.28494
0.461441
0.0460947
0.88905
0.600534
-0.0949454
-0.243511
0.805913
0.141545
-0.3053
-0.409856
1.12592
0.734798
-0.0905674
-0.465309
-0.0115718
0.271716
-0.477675
-0.822285
-0.566644
-0.485538
-0.754281
-1.08931
-1.31664
-1.20966
-1.17799
-1.1182
-2.20446
-1.93432
-1.42601
-1.4055
-2.06629
-1.58623
-1.60318
-1.4503
-0.726085
-0.964967
-1.06507
-0.916139
640.597
629.479
713.562
892.444
815.631
906.191
830.103
831.283
802.599
624.273
465.835
403.341
382.84
256.35
217.672
232.131
527.838
940.83
1089.19
960.549
983.125
953.29
857.193
864.729
866.65
862.109
715.545
600.566
208.744
74.257
70.083
109.38
162.97
173.161
173.413
407.284
902.364
1057.48
1067.17
1005.66
874.957
882.135
946.995
825.713
939.645
778.164
468.608
95.2388
63.5062
61.6388
64.9605
82.6219
112.205
136.89
342.609
956.709
1086.16
902.656
827.648
604.75
456.468
491.115
683.028
654.931
827.161
666.72
119.759
72.4383
58.5266
55.1147
63.1289
76.0296
113.112
350.244
1018.58
1107.81
195.822
142.067
57.1907
31.338
43.2523
125.254
105.621
324.692
740.41
248.846
228.915
79.6165
57.405
61.7115
62.6995
90.8601
389.052
1081.26
1171.53
4.51818
4.96387
4.89386
4.61813
10.508
10.8634
9.22945
18.022
293.363
703.708
718.447
208.805
61.3323
65.5037
66.4738
77.0826
372.683
923.113
1221.66
3.35781
3.22195
3.3387
3.64421
3.79988
3.78556
4.52634
4.52424
40.1056
808.87
940.908
408.488
64.5756
70.1877
75.9717
80.3546
298.193
326.993
959.472
3.19013
3.16663
3.14515
3.15755
3.38927
3.51979
3.65424
3.69394
14.2416
523.765
991.592
385.536
66.9138
72.9603
84.6464
155.748
287.272
295.387
871.698
3.02905
3.02296
3.18492
2.9354
3.14754
3.17876
3.43814
3.78293
62.9393
389.233
476.252
104.46
63.7542
72.0957
121.014
310.064
323.726
352.362
1287.87
3.04089
2.93745
3.0184
3.11901
3.00784
3.02331
3.54117
5.6541
111.524
357.516
116.322
63.4687
60.6573
64.7319
108.927
394.25
634.849
922.151
1438.13
2.83298
3.10759
3.04024
2.95383
3.07046
2.92302
3.33365
4.15415
78.2513
330.033
119.786
54.6151
57.6127
73.2642
651.332
889.843
1072.99
1364.38
1286.55
2.95196
2.99004
2.74176
2.84698
2.63492
2.91282
4.90294
16.3518
154.036
349.389
143.153
47.5306
56.5399
239.651
1081.56
879.399
512.654
741.244
784.628
2.86817
2.79104
2.82238
2.22938
2.20208
4.3866
19.8651
113.585
350.861
345.348
73.7854
40.5501
108.419
793.09
1010.46
162.231
159.664
414.703
911.207
2.72767
2.81508
2.36154
2.08398
2.36886
10.1875
79.7984
236.551
255.594
55.8956
32.0843
36.7388
130.847
1254.66
549.606
126.65
145.776
375.54
872.382
2.73471
2.92137
2.51431
2.33609
2.04527
9.4681
71.15
158.776
108.131
24.755
31.2156
47.3901
473.999
1380.03
743.137
127.37
164.986
318.661
156.18
2.838
2.88338
2.58309
1.86311
1.6902
2.40713
10.058
48.3422
94.7663
114.206
170.922
493.075
822.476
845.483
168.481
122.204
158.802
202.37
133.896
2.77921
2.81713
2.35612
1.65373
1.12538
1.04593
2.08737
24.4295
179.538
508.364
622.725
633.317
584.516
195.53
127.712
123.706
136.749
165.259
135.922
2.83447
3.27091
2.41405
1.13137
1.32274
0.323924
3.44534
31.6119
154.318
319.83
417.484
258.765
147.672
123.986
125.38
134.828
148.706
143.982
150.866
2.90775
3.65129
2.9913
0.508337
1.48008
2.74226
9.71184
19.6139
31.6861
51.0255
88.9074
112.39
142.007
240.432
235.387
200.038
199.211
239.304
552.969
2.67865
2.9209
2.60471
0.752256
0.266268
-0.372977
-0.0311802
1.61758
23.0713
57.8462
103.843
159.541
218.859
419.116
609.886
622.654
633.8
1003.44
1527.38
2.3879
2.57306
2.01086
0.626547
-1.02199
-1.78661
-2.03442
-0.526719
26.149
140.707
368.815
398.113
181.534
128.55
558.024
1282.87
1416.64
1452.72
1587.18
1.89258
1.81288
1.73382
1.11104
-0.903932
-1.21061
-1.62082
0.549002
56.8459
351.733
494.96
493.119
81.7069
4.9621
45.1989
337.228
367.78
181.85
1550.23
1.43054
1.41951
0.726499
0.505991
-0.15832
-0.534764
-0.806155
18.7795
196.634
522.834
508.859
231.448
9.64038
1.03774
3.69307
9.05783
21.4372
47.3577
1486.88
1.59997
1.68347
0.63315
0.384641
0.0390268
-0.207548
2.43678
94.9411
357.085
416.245
299.823
23.0905
2.17791
0.210673
1.22906
-0.845247
0.0527424
36.8964
279.573
1.44815
1.25057
2.21029
0.938672
0.220579
0.153916
26.9239
160.893
222.693
50.1218
8.92459
0.224656
-0.194529
0.230226
7.42054
0.91099
2.41175
2.99103
7.88232
1.2542
1.21245
2.18041
0.830313
0.282301
-0.549789
5.52022
38.0485
40.1519
0.0893431
-1.62835
-1.57947
-0.983568
-0.448607
8.82671
9.84998
7.52407
-0.110898
0.495351
1.16242
0.557802
1.82864
2.00766
0.528426
-0.59767
4.62023
30.5157
24.65
-1.89653
-1.83834
-2.07738
-1.37304
-0.555456
9.26947
9.28283
2.80267
-0.465165
0.0359924
0.663376
1.01251
1.19461
3.45035
1.56189
0.406056
14.3511
53.7124
29.4828
-1.77312
-1.73293
-1.91709
-1.43465
1.70443
4.92053
2.76248
-0.05231
-0.467364
2.29825
0.929099
0.818742
0.380695
3.09794
2.44048
0.657653
12.4852
55.1783
5.61043
-1.69801
-1.6347
-1.16414
0.301155
4.86017
0.845096
-0.456666
-0.301737
-0.429871
41.4187
0.790134
0.848775
0.722488
2.10976
2.04243
0.654657
8.958
51.9954
3.73527
-1.11129
-1.73027
-0.390165
4.12191
4.52383
0.0921119
-1.15862
-1.51465
-0.842218
245.684
0.965696
0.861857
0.447683
0.859541
1.00542
0.806951
9.25204
35.8372
13.4613
0.68629
-1.5341
2.68444
4.42633
3.81242
-0.42937
-1.4048
-1.44288
-0.706276
581.48
0.963377
1.93533
0.707278
0.698329
1.35947
1.29678
17.2156
20.5289
12.5754
2.78863
0.412856
4.39916
3.9468
-0.381383
-0.995691
-1.27828
-0.317475
3.45162
635.997
1.33518
3.88865
2.90241
1.66049
1.77314
1.76287
17.7345
8.71433
6.63682
6.98359
4.99795
1.62455
-0.669721
-1.01813
-0.975971
-1.07154
-0.505784
11.7554
493.254
1.16991
3.75424
3.41022
1.88763
3.82649
3.50504
6.06906
12.4921
14.3704
12.1966
3.62479
-0.936944
-1.4389
-1.25783
-0.965116
-0.903769
-0.403164
9.43336
56.6084
-0.010848
3.61312
3.25366
1.44851
4.12312
3.18806
1.65507
22.8984
14.7888
2.48248
-0.431254
-1.19748
-1.22884
-1.29076
-1.06755
-0.791848
-0.495731
1.30673
9.8573
-0.297298
2.16014
1.21793
0.426823
0.763088
0.983446
1.16406
23.2329
17.4758
2.70914
-0.841972
-0.915333
-1.05272
-1.06347
-1.40475
-1.77528
-1.69361
-0.79604
50.0386
-0.524966
0.315708
0.00847272
0.732953
-0.193428
0.432401
1.66734
17.3751
10.0694
1.2265
-0.707379
-0.798594
-0.920613
-1.05822
-1.15299
-1.56115
-1.81994
0.036216
314.4
-1.10694
-0.55932
-0.42244
1.01417
-0.133361
1.59826
8.70841
11.115
4.85898
0.653061
-0.700883
-0.499193
-0.607893
-0.804296
-0.839498
-0.665172
-1.07678
14.0173
999.062
-1.08335
-1.06515
-0.886727
-0.797839
-0.447012
2.67817
12.792
6.46611
1.16094
-0.363674
-0.308043
-0.341494
-0.338911
-0.62283
-0.613903
-0.554936
-0.0582921
40.2074
1338.2
-1.26886
-1.57386
-2.33787
-1.60923
3.02017
7.2544
7.26185
1.65159
-0.0957105
-0.38478
-0.765968
-1.02482
-1.04985
-0.703179
-0.553616
-0.467486
-0.546772
3.33417
816.617
-0.760648
-0.94971
-1.89866
1.13077
4.47739
4.68888
0.525629
0.27574
0.0149882
-0.419211
-0.683522
-0.87274
-0.789378
-0.910235
-1.31812
-0.852335
-0.865767
-1.02919
54.8905
-1.07567
-0.324077
0.996045
1.4084
0.587119
0.195819
-0.21885
-0.0681557
-0.342613
-0.136688
-0.331591
-0.434805
-0.661363
-1.39781
-0.829347
-1.86431
-1.19447
-1.6391
2.33481
)
;

boundaryField
{
    leftWall
    {
        type            zeroGradient;
    }
    rightWall
    {
        type            zeroGradient;
    }
    lowerWall
    {
        type            zeroGradient;
    }
    atmosphere
    {
        type            totalPressure;
        rho             rho;
        psi             none;
        gamma           1;
        p0              uniform 0;
        value           nonuniform List<scalar> 
46
(
-0.0238023
-0.0248547
-0.0256258
-0.0268736
-0.0283158
-0.0305681
-0.0322815
-0.0361347
-0.0369082
-0.0436342
-0.0463309
-0.0512544
-0.0566471
-0.0438541
-0.0208363
0
0
-0.0860334
-0.237811
-0.118396
0
0
0
0
0
0
0
0
0
0
0
0
0
-0.0927
-0.05707
-0.230968
-0.335718
-0.464256
-0.614253
-0.747006
-1.18797
-1.19157
-1.48747
-1.29612
-1.73991
0
)
;
    }
    defaultFaces
    {
        type            empty;
    }
}


// ************************************************************************* //
