/*--------------------------------*- C++ -*----------------------------------*\
| =========                 |                                                 |
| \\      /  F ield         | foam-extend: Open Source CFD                    |
|  \\    /   O peration     | Version:     4.1                                |
|   \\  /    A nd           | Web:         http://www.foam-extend.org         |
|    \\/     M anipulation  |                                                 |
\*---------------------------------------------------------------------------*/
FoamFile
{
    version     2.0;
    format      ascii;
    class       surfaceScalarField;
    location    "0.55";
    object      phi_0;
}
// * * * * * * * * * * * * * * * * * * * * * * * * * * * * * * * * * * * * * //

dimensions      [0 3 -1 0 0 0 0];

internalField   nonuniform List<scalar> 
4432
(
2.8979e-06
-2.8979e-06
4.25862e-06
-1.36072e-06
7.12452e-06
-2.8659e-06
9.43576e-06
-2.31123e-06
1.14031e-05
-1.96735e-06
1.23818e-05
-9.7866e-07
1.23487e-05
3.30185e-08
1.15664e-05
7.82386e-07
1.02781e-05
1.28824e-06
9.13745e-06
1.14067e-06
1.53415e-05
-6.20409e-06
1.57454e-05
-4.0385e-07
1.6676e-05
-9.30626e-07
1.68369e-05
-1.60834e-07
1.69549e-05
-1.18018e-07
1.68615e-05
9.33627e-08
1.67077e-05
1.53812e-07
1.61132e-05
5.94505e-07
1.50636e-05
1.04956e-06
1.29149e-05
2.14872e-06
9.32473e-06
3.59016e-06
5.19476e-06
4.12997e-06
5.19476e-06
2.82137e-06
-5.71926e-06
4.54412e-06
-3.08347e-06
7.431e-06
-5.75279e-06
9.51608e-06
-4.39631e-06
1.14967e-05
-3.94802e-06
1.25626e-05
-2.04448e-06
1.26369e-05
-4.13347e-08
1.17824e-05
1.63688e-06
1.09e-05
2.17067e-06
9.48312e-06
2.55754e-06
1.35825e-05
-1.03035e-05
1.34635e-05
-2.84825e-07
1.40387e-05
-1.50582e-06
1.41278e-05
-2.49927e-07
1.45468e-05
-5.36981e-07
1.46971e-05
-5.69951e-08
1.48053e-05
4.5622e-08
1.47049e-05
6.94893e-07
1.40888e-05
1.66567e-06
1.2217e-05
4.02049e-06
8.95454e-06
6.85266e-06
3.98138e-06
9.10313e-06
9.17613e-06
2.50946e-06
-8.22873e-06
4.79106e-06
-5.36507e-06
7.61202e-06
-8.57375e-06
9.30598e-06
-6.09027e-06
1.14633e-05
-6.10533e-06
1.25812e-05
-3.16238e-06
1.26663e-05
-1.26463e-07
1.23614e-05
1.94183e-06
1.11482e-05
3.38389e-06
1.81113e-05
-4.40565e-06
1.41532e-05
-6.34533e-06
1.32548e-05
6.13554e-07
1.25275e-05
-7.78538e-07
1.19708e-05
3.06794e-07
1.19847e-05
-5.50957e-07
1.209e-05
-1.62236e-07
1.24049e-05
-2.69314e-07
1.26451e-05
4.54697e-07
1.24858e-05
1.82502e-06
1.14241e-05
5.08218e-06
9.07071e-06
9.20601e-06
5.04159e-06
1.31322e-05
1.42177e-05
2.20346e-06
-1.04322e-05
5.01859e-06
-8.1802e-06
7.75585e-06
-1.1311e-05
9.5471e-06
-7.88152e-06
1.19566e-05
-8.51485e-06
1.28878e-05
-4.09358e-06
1.28224e-05
-6.1087e-08
1.15768e-05
3.18747e-06
1.69787e-05
-2.018e-06
1.34292e-05
-8.56165e-07
9.77669e-06
-2.69282e-06
6.47809e-06
3.91214e-06
4.79085e-06
9.08706e-07
3.29775e-06
1.79989e-06
3.00369e-06
-2.56891e-07
3.52464e-06
-6.83193e-07
4.48724e-06
-1.23191e-06
5.36393e-06
-4.21993e-07
6.65313e-06
5.35808e-07
8.0626e-06
3.67271e-06
7.97161e-06
9.297e-06
4.6558e-06
1.64481e-05
1.88735e-05
2.12831e-06
-1.25605e-05
5.22091e-06
-1.12728e-05
7.97841e-06
-1.40685e-05
1.00142e-05
-9.91726e-06
1.20664e-05
-1.05671e-05
1.22898e-05
-4.31696e-06
1.24036e-05
-1.7493e-07
1.03152e-05
5.27584e-06
1.34363e-05
-5.13907e-06
9.7114e-06
2.86875e-06
5.65512e-06
1.36346e-06
2.95779e-06
6.60947e-06
1.46348e-06
2.40302e-06
4.26917e-07
2.83645e-06
-7.47228e-07
9.17253e-07
-1.84803e-06
4.17607e-07
-1.3939e-06
-1.68604e-06
-1.46627e-06
-3.49629e-07
-3.64647e-07
-5.65814e-07
1.93918e-06
1.36888e-06
3.93383e-06
7.30235e-06
3.79899e-06
1.65829e-05
2.26725e-05
2.54446e-06
-1.5105e-05
5.75983e-06
-1.44882e-05
8.30431e-06
-1.6613e-05
1.00135e-05
-1.16265e-05
1.19322e-05
-1.24858e-05
1.27586e-05
-5.1434e-06
1.16489e-05
9.34783e-07
1.59254e-05
9.99317e-07
1.0348e-05
4.38315e-07
7.47937e-06
5.73743e-06
2.38127e-06
6.46156e-06
-8.91216e-07
9.88195e-06
-2.56724e-06
4.07904e-06
-3.96435e-06
4.23355e-06
-4.35227e-06
1.30517e-06
-4.71803e-06
7.83366e-07
-4.76122e-06
-1.64286e-06
-4.72949e-06
-3.81352e-07
-3.79451e-06
-1.5008e-06
-2.9526e-06
5.2697e-07
-2.89548e-07
4.6393e-06
1.96983e-06
1.43235e-05
2.46424e-05
3.01308e-06
-1.8118e-05
5.95213e-06
-1.74272e-05
8.08101e-06
-1.87419e-05
1.00259e-05
-1.35713e-05
1.22435e-05
-1.47034e-05
1.23112e-05
-5.21112e-06
1.03027e-05
2.9433e-06
1.35723e-05
-2.27025e-06
8.01281e-06
5.99781e-06
4.68851e-06
9.06173e-06
-2.18361e-07
1.13684e-05
-2.98281e-06
1.26464e-05
-4.15367e-06
5.2499e-06
-4.82265e-06
4.90253e-06
-5.63906e-06
2.12158e-06
-6.37337e-06
1.51768e-06
-5.63697e-06
-2.37926e-06
-5.49022e-06
-5.28104e-07
-4.682e-06
-2.30902e-06
-4.49242e-06
3.37386e-07
-2.49597e-06
2.64285e-06
2.80359e-07
1.15472e-05
2.49227e-05
3.2088e-06
-2.13268e-05
6.06318e-06
-2.02816e-05
8.28628e-06
-2.0965e-05
1.03735e-05
-1.56586e-05
1.27074e-05
-1.70373e-05
1.21386e-05
-4.64226e-06
1.77441e-05
-2.6622e-06
1.34261e-05
2.04769e-06
8.80187e-06
1.06221e-05
2.12528e-06
1.57383e-05
-2.29932e-06
1.5793e-05
-4.58584e-06
1.49329e-05
-5.7976e-06
6.46167e-06
-6.59832e-06
5.70325e-06
-6.53318e-06
2.05643e-06
-6.37376e-06
1.35825e-06
-5.0136e-06
-3.73942e-06
-4.46693e-06
-1.07477e-06
-3.81576e-06
-2.9602e-06
-4.18028e-06
7.01907e-07
-2.70398e-06
1.16656e-06
6.05682e-08
8.78263e-06
2.49833e-05
-0.000127041
0.000127041
-0.000192712
6.56709e-05
-0.00021187
1.91579e-05
-0.000217395
5.52526e-06
-0.000230875
1.34799e-05
-0.000232203
1.32802e-06
-0.000223599
-8.60443e-06
-0.000218918
-4.68107e-06
-0.000214638
-4.27953e-06
-0.000209339
-5.29923e-06
-0.000204407
-4.93198e-06
-0.000188614
-1.57925e-05
-0.000174313
-1.43009e-05
-0.000167767
-6.54631e-06
-9.19979e-05
-7.57693e-05
-6.0616e-05
-3.13819e-05
-4.28962e-05
-1.77198e-05
-7.35955e-06
-3.55367e-05
-7.35956e-06
-0.000121645
0.000248686
-0.000170517
0.000114543
-0.000194365
4.30061e-05
-0.000192805
3.96534e-06
-0.000203362
2.40369e-05
-0.000198899
-3.13487e-06
-0.0001882
-1.93038e-05
-0.000186049
-6.83246e-06
-0.0001826
-7.72865e-06
-0.000178795
-9.10337e-06
-0.000169835
-1.38922e-05
-0.000157622
-2.80057e-05
-0.00015204
-1.98832e-05
-8.7437e-05
-7.1149e-05
-7.85611e-05
-8.46451e-05
-6.18147e-05
-4.81283e-05
-3.16097e-05
-4.79247e-05
-9.77867e-06
-5.73677e-05
-1.71382e-05
-0.000109545
0.000358231
-0.000135741
0.000140739
-8.91672e-05
-3.56794e-06
-7.84527e-05
-6.74915e-06
-0.000130609
7.61935e-05
-8.55596e-05
-4.81846e-05
-3.73267e-05
-6.75366e-05
-7.58654e-05
3.17062e-05
-0.000161578
7.79834e-05
-0.000157021
-1.36597e-05
-9.29029e-05
-7.80105e-05
-0.000149014
2.81051e-05
-0.000138633
-3.02641e-05
-8.49557e-05
-0.000124826
-0.000124161
-4.544e-05
-9.33279e-05
-7.89614e-05
-5.01809e-05
-9.10717e-05
-1.83113e-05
-8.92373e-05
-3.54495e-05
-4.76856e-05
0.000405917
-2.82e-05
0.000121254
-2.90465e-05
-2.72145e-06
-5.1922e-05
1.61264e-05
-1.65322e-05
4.08037e-05
2.84536e-05
-9.31704e-05
7.36066e-05
-0.00011269
5.00124e-05
5.53005e-05
-5.728e-05
0.000185276
-6.7627e-05
-3.3127e-06
-0.000131405
-1.42324e-05
-0.000138661
3.53606e-05
-7.9956e-05
-8.89687e-05
-8.47024e-05
-0.00012008
-6.74678e-05
-6.26745e-05
-8.80519e-05
-5.83772e-05
-5.30087e-05
-0.000126115
-2.73944e-05
-0.000114852
-6.28439e-05
-5.21526e-06
0.000411132
2.70759e-05
8.89625e-05
5.90273e-05
-3.46729e-05
4.43288e-05
3.08248e-05
0.000102122
-1.69894e-05
9.21584e-05
-8.32068e-05
6.54632e-05
-8.59944e-05
0.000149843
-2.90795e-05
0.000175267
0.000159852
0.000142447
2.95079e-05
5.78818e-05
7.03324e-05
-5.40461e-05
0.000147289
-6.09545e-05
-8.20602e-05
-7.22372e-05
-0.000108797
-0.000110395
-2.45163e-05
-8.27281e-05
-8.60445e-05
-5.80685e-05
-0.000150774
-3.18303e-05
-0.00014109
-9.46742e-05
2.1504e-05
0.000389628
4.93113e-05
6.11552e-05
5.81375e-05
-4.34991e-05
0.000117456
-2.84941e-05
0.000127747
-2.728e-05
0.000108624
-6.40833e-05
7.60223e-05
-5.33932e-05
0.000131802
-8.48593e-05
0.000321678
-3.00245e-05
0.000333294
1.78926e-05
0.000336984
6.66422e-05
0.000316619
0.000167653
7.73004e-05
0.000157259
-6.8866e-05
3.73692e-05
-0.000101825
8.44245e-06
-7.36797e-05
-0.000114189
-5.5954e-05
-0.0001685
-1.98062e-05
-0.000177238
-0.00011448
8.25401e-05
0.000307088
7.30748e-05
7.06206e-05
5.92186e-05
-2.96429e-05
6.42664e-05
-3.35419e-05
0.000125235
-8.82488e-05
0.000111896
-5.07442e-05
0.000129672
-7.11693e-05
0.000101088
-5.62751e-05
0.000116731
-4.56675e-05
0.00018882
-5.41963e-05
0.000254676
7.86111e-07
0.000333414
8.8915e-05
0.000250081
0.000240591
-6.17306e-05
0.000349181
-7.40493e-05
2.07612e-05
-6.93077e-05
-0.000118931
-4.8072e-05
-0.000189736
-2.00608e-05
-0.000205249
-0.000134541
0.000122822
0.000184266
0.000123743
6.96994e-05
5.34319e-05
4.0668e-05
9.29151e-05
-7.30251e-05
8.8457e-05
-8.37907e-05
8.88467e-05
-5.11339e-05
5.62205e-05
-3.8543e-05
6.60681e-05
-6.61226e-05
0.000131993
-0.000111593
0.000174512
-9.67151e-05
0.000203941
-2.86425e-05
0.000239283
5.35729e-05
0.000210246
0.000269629
8.63783e-05
0.000473048
-8.43595e-05
0.000191499
-6.64175e-05
-0.000136873
-4.20247e-05
-0.000214129
-1.89324e-05
-0.000228341
-0.000153474
6.70839e-06
-2.80352e-05
1.3042e-05
-2.66152e-05
1.71161e-05
-2.50391e-05
2.22162e-05
-2.07587e-05
2.61982e-05
-2.10193e-05
4.32392e-05
-2.16833e-05
3.70994e-05
3.47764e-06
2.6632e-05
1.25151e-05
1.18459e-05
2.54082e-05
2.57158e-06
2.50126e-05
-4.91408e-06
2.32787e-05
-9.43788e-06
1.94567e-05
-1.46742e-05
1.16979e-05
-1.43032e-05
5.3323e-06
-1.34524e-05
1.20559e-06
-8.53303e-06
-3.5611e-06
-1.12157e-05
-1.05678e-06
-8.17803e-06
-4.11241e-06
-5.33104e-06
-5.80719e-06
-2.7937e-06
-1.83543e-06
-1.18958e-06
-4.37559e-07
-2.09636e-07
7.80269e-06
1.38463e-05
1.09274e-05
5.91008e-06
-3.39453e-05
1.32245e-05
-3.39296e-05
1.91284e-05
-3.09429e-05
3.39719e-05
-3.56022e-05
3.37251e-05
-2.07726e-05
2.98146e-05
-1.77728e-05
2.42982e-05
8.9941e-06
9.87696e-06
2.69363e-05
-3.60887e-06
3.8894e-05
-1.13465e-05
3.27503e-05
-1.47853e-05
2.67175e-05
-1.50099e-05
1.96813e-05
-1.31261e-05
9.81418e-06
-1.05389e-05
2.74509e-06
-5.71447e-06
-3.61882e-06
-3.87193e-06
-5.40364e-06
-2.07949e-06
-2.84922e-06
-2.17003e-06
-4.02187e-06
-1.48729e-07
-7.82849e-06
4.54325e-06
-6.52741e-06
7.70283e-06
-3.59714e-06
1.45612e-05
9.44312e-07
1.24202e-05
1.59873e-05
-5.75729e-06
-2.8188e-05
-1.28878e-05
-2.67992e-05
-1.20386e-05
-3.17921e-05
-1.09479e-05
-3.6693e-05
-8.17884e-06
-2.35417e-05
-1.4962e-05
-1.09896e-05
-1.93613e-05
1.33934e-05
-4.88593e-05
5.64343e-05
-4.70222e-05
3.7057e-05
-5.17763e-05
3.75044e-05
-4.84709e-05
2.3412e-05
-3.95746e-05
1.0785e-05
-3.07801e-05
1.0197e-06
-2.02355e-05
-7.79955e-06
-1.13581e-05
-1.24962e-05
-3.27459e-06
-1.34872e-05
1.37787e-06
-7.50167e-06
3.85084e-06
-6.49485e-06
5.40713e-06
-9.38478e-06
4.94589e-06
-6.06617e-06
4.70194e-06
-3.35319e-06
5.75466e-06
-1.08414e-07
5.38108e-06
1.27938e-05
-1.42129e-05
-1.39752e-05
-2.32528e-05
-1.77593e-05
-2.00118e-05
-3.5033e-05
-3.16013e-05
-2.51035e-05
-3.66319e-05
-1.85112e-05
-4.47747e-05
-2.84682e-06
-4.8757e-05
1.73757e-05
-5.83335e-05
6.60108e-05
-9.20568e-05
7.07802e-05
-7.08826e-05
1.63302e-05
-6.23459e-05
1.48753e-05
-4.70522e-05
-4.50868e-06
-5.58947e-05
9.86216e-06
-3.99256e-05
-2.37686e-05
-1.80167e-05
-3.44051e-05
-1.75715e-05
-1.39323e-05
-1.7464e-05
-7.60913e-06
-2.08888e-05
-3.07003e-06
-9.63651e-06
-2.06371e-05
-2.10307e-06
-1.35996e-05
7.35892e-06
-1.28152e-05
1.44643e-05
-7.21377e-06
-2.0523e-08
1.98659e-05
-1.69501e-05
2.97489e-06
-2.43307e-05
-1.03787e-05
-2.68853e-05
-3.24785e-05
-2.79357e-05
-2.40532e-05
-4.04412e-05
-6.00562e-06
-5.605e-05
1.2762e-05
-6.58213e-05
2.71469e-05
-4.53937e-05
4.55832e-05
-4.34334e-05
6.88198e-05
-7.39188e-05
4.68156e-05
-7.80304e-05
1.89869e-05
-7.48645e-05
-7.67464e-06
-3.76526e-05
-2.73498e-05
-5.46268e-05
-6.79439e-06
-6.56964e-05
-2.33354e-05
-4.30194e-05
-3.66094e-05
-6.38931e-05
1.32645e-05
-6.54297e-05
-1.53334e-06
-4.18773e-05
-4.41895e-05
-5.51658e-05
-3.11204e-07
-3.11155e-05
-3.68654e-05
-3.6619e-05
-1.71028e-06
-2.08733e-05
-1.57662e-05
-8.2608e-06
1.12357e-05
-1.56529e-05
-2.98665e-06
-1.68005e-05
-3.13309e-05
-1.6723e-05
-2.41307e-05
-1.64456e-05
-6.28299e-06
-2.23293e-05
1.86456e-05
-2.76584e-05
3.2476e-05
-2.23759e-05
4.03006e-05
-1.03033e-05
5.67473e-05
-1.16754e-05
4.81876e-05
-3.82415e-05
4.55529e-05
-4.39384e-05
-1.97768e-06
-4.6456e-05
-2.48321e-05
-4.94877e-05
-3.76266e-06
-3.69218e-05
-3.59013e-05
-6.85653e-05
-4.96585e-06
-6.57207e-05
1.04199e-05
-7.30876e-05
5.83357e-06
-6.19757e-05
-5.53014e-05
-5.00484e-05
-1.22385e-05
-6.96226e-05
-1.72913e-05
-6.6813e-05
-4.51986e-06
-1.97926e-05
-6.78937e-05
-3.82299e-06
1.50586e-05
-9.6081e-06
2.79845e-06
-7.50699e-06
-3.3432e-05
-5.54345e-06
-2.60942e-05
-9.9493e-06
-1.87716e-06
-1.53407e-05
2.4037e-05
-2.07881e-05
3.79233e-05
-3.12842e-05
5.07966e-05
-2.35028e-05
4.89659e-05
-2.13207e-05
4.60055e-05
-3.10937e-06
2.73416e-05
-1.75174e-05
1.24304e-05
-3.2185e-05
-1.01645e-05
-2.23255e-05
-1.36221e-05
-4.51003e-05
-1.31264e-05
-5.41417e-05
4.0755e-06
-5.59966e-05
1.22749e-05
-5.46163e-05
4.45319e-06
-8.52106e-05
-2.47071e-05
-8.62202e-05
-1.1229e-05
-8.46897e-05
-1.88219e-05
-7.06541e-05
-1.85554e-05
-1.55941e-05
-7.48526e-05
-3.66221e-06
1.87208e-05
-8.43275e-06
7.56899e-06
-3.43354e-06
-3.84312e-05
-1.01164e-06
-2.85161e-05
-6.32606e-06
3.43724e-06
-1.0668e-05
2.83789e-05
-1.63567e-05
4.3612e-05
-1.96239e-05
5.40637e-05
-6.21741e-06
3.55594e-05
-2.44218e-06
4.22303e-05
-2.0565e-05
4.54645e-05
-1.76956e-05
9.56098e-06
-3.51276e-05
7.26752e-06
-4.62681e-05
-2.48147e-06
-5.40142e-05
-5.38033e-06
-5.4743e-05
4.80429e-06
-4.97549e-05
7.28675e-06
-4.85758e-05
3.27407e-06
-6.09962e-05
-1.22868e-05
-6.90017e-05
-3.22348e-06
-7.10685e-05
-1.67551e-05
-6.59294e-05
-2.36946e-05
-2.31422e-05
-5.83812e-05
-3.52608e-06
2.22469e-05
-7.06763e-06
1.11105e-05
1.24709e-07
-4.56236e-05
-9.31089e-08
-2.82983e-05
-5.94684e-06
9.29095e-06
-1.2918e-05
3.53501e-05
-1.67239e-05
4.74178e-05
-1.07382e-05
4.80781e-05
-9.13614e-06
3.39573e-05
-1.3399e-05
4.64931e-05
-7.14183e-06
3.92073e-05
-2.11191e-05
2.35383e-05
-2.06566e-05
6.80501e-06
-2.63851e-05
3.24702e-06
-4.65075e-05
1.47422e-05
-5.03263e-05
8.62309e-06
-5.82906e-05
1.5251e-05
-5.75691e-05
2.55249e-06
-6.78207e-05
-2.03517e-06
-5.09037e-05
-2.01405e-05
-4.72328e-05
-2.0426e-05
-5.9414e-05
-1.15134e-05
-4.52588e-05
-3.72974e-05
-2.49497e-06
2.47419e-05
-4.50031e-06
1.31159e-05
2.6867e-06
-5.28106e-05
2.60948e-06
-2.82211e-05
-4.74686e-06
1.66473e-05
-7.56581e-06
3.8169e-05
-9.9103e-06
4.97623e-05
-8.52162e-06
4.66894e-05
-2.53099e-05
5.07456e-05
-8.52954e-06
2.97128e-05
-1.48231e-05
4.55009e-05
-1.00327e-05
1.8748e-05
-2.28445e-05
1.96168e-05
-3.76865e-05
1.80891e-05
-4.4449e-05
2.15046e-05
-4.5133e-05
9.30715e-06
-3.51332e-05
5.25109e-06
-5.70723e-05
2.44916e-05
-6.59617e-05
6.8542e-06
-8.32415e-05
-2.8607e-06
-9.63955e-05
-7.27205e-06
-9.5309e-05
-1.25998e-05
-4.02928e-05
-0.000100275
-1.02728e-06
2.57692e-05
-5.54799e-07
1.26434e-05
2.94098e-06
-5.63063e-05
-7.98172e-07
-2.4482e-05
-7.76889e-06
2.3618e-05
-9.89249e-06
4.02926e-05
-7.66034e-06
4.75301e-05
-1.01009e-05
4.91299e-05
-4.12463e-06
4.47693e-05
-1.5947e-05
4.15352e-05
-1.01186e-05
3.96725e-05
-2.60973e-05
3.47267e-05
-3.09524e-05
2.44719e-05
-3.33392e-05
2.04759e-05
-2.21605e-05
1.03259e-05
-3.99649e-05
2.71115e-05
-5.14498e-05
1.67359e-05
-3.72053e-05
1.02471e-05
-4.47714e-05
1.44203e-05
-4.7926e-05
2.93947e-07
-7.23598e-05
1.71618e-05
-7.39612e-05
-1.09984e-05
-3.20622e-05
-8.21919e-05
5.77188e-07
2.5192e-05
1.62943e-06
1.15912e-05
1.07313e-06
-5.575e-05
-9.19718e-06
-1.42117e-05
-1.886e-05
3.32807e-05
-1.8191e-05
3.96237e-05
-1.42701e-05
4.36091e-05
-9.60978e-06
4.44695e-05
-1.36369e-05
4.87964e-05
-1.03493e-05
3.82476e-05
-9.93439e-06
3.92576e-05
-1.12367e-05
3.6029e-05
-7.09269e-06
2.03279e-05
-1.18223e-05
2.52055e-05
-3.67476e-05
3.52511e-05
-4.55922e-05
3.59561e-05
-5.43959e-05
2.55396e-05
-5.54024e-05
1.12535e-05
-5.98546e-05
1.88726e-05
-6.50601e-05
5.49949e-06
-5.18561e-05
3.95781e-06
-5.74766e-05
-5.378e-06
-2.49813e-05
-6.45576e-05
-1.34654e-07
2.53267e-05
5.95863e-07
1.08607e-05
-3.11543e-06
-5.20387e-05
-1.55649e-05
-1.76223e-06
-2.15775e-05
3.92934e-05
-2.10242e-05
3.90704e-05
-2.10502e-05
4.36351e-05
-2.11897e-05
4.4609e-05
-5.28132e-06
3.2888e-05
-1.12091e-05
4.41754e-05
-2.94932e-06
3.09978e-05
-6.94808e-06
4.00277e-05
-2.19587e-05
3.53385e-05
-2.30501e-05
2.62969e-05
-1.59875e-05
2.81884e-05
-3.00301e-05
4.99987e-05
-3.89745e-05
3.4484e-05
-5.46735e-05
2.69526e-05
-4.3674e-05
7.87306e-06
-6.85247e-05
3.03502e-05
-7.70377e-05
1.24708e-05
-8.39053e-05
1.48949e-06
-1.0823e-05
-9.80637e-05
-1.73224e-06
2.70589e-05
3.25256e-07
8.80327e-06
-4.83469e-06
-4.68787e-05
-1.3836e-05
7.2391e-06
-2.13417e-05
4.6799e-05
-1.74882e-05
3.52169e-05
-1.1474e-05
3.76209e-05
-9.21059e-06
4.23456e-05
-1.77261e-05
4.14036e-05
-6.58184e-06
3.30312e-05
-2.7048e-06
2.71208e-05
9.29704e-07
3.63932e-05
4.38451e-06
3.18836e-05
-7.06755e-07
3.13881e-05
-2.25128e-05
4.99944e-05
-1.87186e-05
4.62045e-05
-2.01367e-05
3.59021e-05
-2.30599e-05
2.98759e-05
-4.73624e-05
3.21755e-05
-4.11464e-05
2.41342e-05
-5.38551e-05
2.51795e-05
-9.17336e-05
3.93679e-05
-1.28218e-05
-8.9735e-05
-5.29025e-06
3.23492e-05
-1.95522e-06
5.46828e-06
-6.24336e-06
-4.25906e-05
-1.92822e-05
2.0278e-05
-5.43448e-06
3.29513e-05
-6.92564e-06
3.6708e-05
-5.17087e-06
3.58661e-05
-4.75923e-06
4.1934e-05
6.77395e-07
3.5967e-05
8.47136e-07
3.28615e-05
-1.9547e-06
2.99226e-05
1.07809e-06
3.33604e-05
8.86677e-06
2.40949e-05
-1.32836e-05
5.35384e-05
-1.29344e-05
4.96451e-05
-2.00754e-05
5.33455e-05
-2.79066e-05
4.37333e-05
-4.6301e-05
4.82704e-05
-4.05321e-05
2.64067e-05
-7.07831e-05
5.43851e-05
-7.55272e-05
2.99235e-05
-6.1652e-05
2.54926e-05
3.46121e-05
-0.000109086
-4.01007e-06
3.63593e-05
-4.34878e-08
1.50174e-06
-1.45045e-06
-4.11836e-05
-4.95719e-06
2.37847e-05
-2.57267e-05
5.37208e-05
-1.73978e-05
2.83791e-05
-2.27549e-06
2.07438e-05
1.05491e-06
3.86036e-05
-3.22404e-07
3.73443e-05
-1.45429e-06
3.39934e-05
-2.60507e-06
3.10734e-05
3.36551e-06
2.73898e-05
-6.4037e-06
3.3864e-05
-1.59228e-05
6.30574e-05
-9.73577e-06
4.34581e-05
-2.60951e-05
6.97049e-05
-2.41181e-05
4.17563e-05
-2.56749e-05
4.98272e-05
-5.20557e-05
5.27874e-05
-5.06089e-05
5.29382e-05
-6.83672e-05
4.76817e-05
-0.000103787
6.09123e-05
5.6395e-05
-0.00012557
-6.35943e-06
4.27188e-05
-3.1255e-06
-1.73216e-06
-1.08386e-05
-3.34705e-05
-2.16197e-05
3.45658e-05
-1.30021e-06
3.34013e-05
1.06069e-06
2.60182e-05
-7.27361e-06
2.90781e-05
3.60014e-07
3.097e-05
1.17213e-06
3.65322e-05
5.10029e-06
3.00652e-05
9.84894e-06
2.63247e-05
-2.84146e-06
4.00801e-05
-7.83122e-06
3.88537e-05
-5.41061e-06
6.06367e-05
-9.33607e-06
4.73836e-05
-5.18448e-06
6.55533e-05
-8.68246e-06
4.52544e-05
-4.10468e-05
8.21916e-05
-3.49002e-05
4.66408e-05
-7.94127e-05
9.74506e-05
-8.39051e-05
5.2174e-05
-0.000109475
8.64818e-05
8.2571e-05
-0.000135651
-1.22157e-05
5.49344e-05
-6.13052e-06
-7.81726e-06
-1.60177e-05
-2.35832e-05
-6.51704e-06
2.50651e-05
-8.84841e-06
3.57326e-05
-4.05932e-06
2.12291e-05
4.26716e-06
2.07516e-05
5.34444e-06
2.98927e-05
3.71616e-06
3.81605e-05
2.61798e-06
3.11634e-05
-6.6631e-07
2.9609e-05
1.70044e-08
3.93967e-05
-1.04048e-06
3.99111e-05
-7.50838e-07
6.0347e-05
-1.01617e-05
5.67944e-05
-6.49035e-06
6.1882e-05
-2.74151e-05
6.61791e-05
-1.93828e-05
7.41592e-05
-4.84246e-05
7.56826e-05
-3.91044e-05
8.81302e-05
-8.63281e-05
9.93976e-05
-0.000110198
0.000110352
4.73101e-05
-7.49369e-05
-2.21746e-06
5.71519e-05
-3.46031e-06
-6.57437e-06
-2.37116e-06
-2.46724e-05
-5.72072e-06
2.84147e-05
-1.26873e-05
4.26992e-05
-2.88046e-06
1.14223e-05
9.79725e-10
1.78701e-05
5.39585e-06
2.44979e-05
3.56971e-06
3.99866e-05
8.32044e-06
2.64126e-05
-3.06884e-06
4.09982e-05
4.71041e-06
3.16174e-05
-1.12277e-05
5.58491e-05
-5.90844e-06
5.50277e-05
-1.37244e-06
5.22584e-05
-8.1179e-06
6.86275e-05
-1.60524e-05
7.41137e-05
-2.93006e-05
8.74073e-05
-4.0696e-05
8.70779e-05
-5.21855e-05
9.96196e-05
-5.98969e-05
0.000107109
-5.77555e-05
0.00010821
0.000112943
-0.000123389
3.38861e-06
5.37633e-05
1.99707e-06
-5.1828e-06
-1.33655e-05
-9.30982e-06
-7.4897e-06
2.25389e-05
1.56367e-06
3.36458e-05
2.87182e-06
1.01142e-05
3.96203e-06
1.67799e-05
4.44817e-06
2.40118e-05
7.94612e-06
3.64887e-05
-4.6187e-07
3.48206e-05
1.48429e-06
3.9052e-05
2.39557e-06
3.07061e-05
4.58877e-06
5.36559e-05
2.4334e-06
5.7183e-05
8.97228e-07
5.37946e-05
-3.92464e-06
7.34494e-05
-8.02536e-06
7.82144e-05
-1.72937e-05
9.66756e-05
-2.56515e-05
9.54356e-05
-3.48013e-05
0.000108769
-3.26215e-05
0.000104929
-4.32701e-05
0.000118859
0.000132281
-6.26081e-05
1.25928e-06
5.25041e-05
2.86793e-08
-3.95216e-06
-2.23225e-06
-7.04887e-06
-1.55528e-06
2.18619e-05
1.9539e-06
3.01366e-05
2.22626e-06
9.84182e-06
4.87002e-06
1.41362e-05
3.16951e-06
2.57123e-05
4.62199e-06
3.50362e-05
8.54494e-06
3.08976e-05
1.06988e-06
4.6527e-05
1.46632e-06
3.03095e-05
-4.46995e-06
5.95921e-05
7.80893e-06
4.49041e-05
5.00171e-07
6.11034e-05
-2.33567e-06
7.62852e-05
-5.82673e-06
8.17055e-05
-8.92818e-06
9.9777e-05
-1.93039e-05
0.000105811
-2.83534e-05
0.000117819
-4.19501e-05
0.000118526
-2.81112e-05
0.00010502
0.0001734
-6.92304e-05
1.26648e-06
5.12376e-05
2.77323e-07
-2.96296e-06
-3.144e-06
-3.62753e-06
3.96937e-06
1.47486e-05
3.33591e-06
3.07701e-05
3.95034e-06
9.2274e-06
3.71514e-06
1.43714e-05
5.94575e-06
2.34817e-05
8.05379e-06
3.29281e-05
5.74908e-06
3.32023e-05
7.08856e-06
4.51874e-05
8.07267e-06
2.93254e-05
7.09166e-06
6.0573e-05
-3.35267e-06
5.53484e-05
7.55319e-06
5.01975e-05
1.26036e-05
7.12348e-05
3.43588e-06
9.08731e-05
-4.30743e-07
0.000103644
-9.49993e-06
0.00011488
-2.89982e-05
0.000137317
-2.38686e-06
9.19143e-05
-1.21103e-05
0.000114743
0.000173335
-1.20447e-05
1.60321e-07
5.10773e-05
9.61952e-07
-3.76455e-06
1.79682e-06
-4.46237e-06
2.46888e-06
1.40765e-05
6.80552e-06
2.64334e-05
3.52802e-06
1.25049e-05
9.05172e-06
8.84769e-06
5.45084e-06
2.70826e-05
1.3869e-05
2.45099e-05
7.12551e-06
3.99457e-05
1.60307e-05
3.62822e-05
1.17395e-05
3.36164e-05
1.47417e-05
5.75708e-05
2.23156e-05
4.77745e-05
-1.4766e-06
7.39897e-05
1.2955e-05
5.68032e-05
5.52008e-06
9.83081e-05
2.98282e-05
7.93354e-05
2.44291e-05
0.000120279
3.61193e-05
0.000125627
3.91483e-05
8.88852e-05
-1.33569e-05
0.000167248
0.000207678
-4.76996e-05
2.22187e-06
4.88555e-05
3.97158e-07
-1.93979e-06
-9.97669e-07
-3.06752e-06
2.01387e-06
1.1065e-05
7.52593e-06
2.09214e-05
1.00756e-05
9.95522e-06
6.25366e-06
1.26697e-05
1.69194e-05
1.64169e-05
2.01139e-05
2.13154e-05
1.65024e-05
4.35572e-05
2.22528e-05
3.05316e-05
8.75451e-06
4.71146e-05
1.89469e-05
4.73784e-05
2.15349e-05
4.51864e-05
3.89692e-05
5.65555e-05
1.79391e-05
7.78332e-05
3.54203e-05
8.08268e-05
9.12539e-06
0.00010563
1.43725e-05
0.000115032
3.64502e-05
0.000103549
1.94517e-05
0.000105884
1.56441e-05
0.000171056
0.000207539
1.57826e-05
-1.73513e-07
4.9029e-05
1.62197e-06
-3.73522e-06
4.49653e-06
-5.94206e-06
1.02198e-05
5.34172e-06
1.10655e-05
2.00758e-05
6.41619e-06
1.46045e-05
1.26584e-05
6.42747e-06
1.58844e-05
1.31908e-05
1.14222e-05
2.57776e-05
2.09557e-05
3.40236e-05
1.75712e-05
3.3916e-05
2.98866e-05
3.47992e-05
3.87021e-05
3.85628e-05
2.37544e-05
6.01341e-05
4.35754e-05
3.67344e-05
3.75445e-05
8.38641e-05
5.18052e-05
6.65661e-05
4.63028e-05
0.000111133
3.82799e-05
0.000123055
2.54579e-05
0.000116371
1.20545e-05
0.000119287
4.75288e-05
0.000135582
0.000234133
2.09346e-05
7.89687e-06
4.11322e-05
6.81198e-06
-2.65028e-06
1.42351e-06
-5.53549e-07
2.7848e-06
3.98045e-06
8.6352e-06
1.42254e-05
1.57295e-05
7.51016e-06
1.29659e-05
9.19117e-06
1.41488e-05
1.20079e-05
1.83673e-05
2.15591e-05
2.32436e-05
2.91473e-05
3.47876e-05
2.23719e-05
3.95813e-05
3.00055e-05
5.04528e-05
2.76911e-05
5.43972e-05
5.61897e-05
2.66099e-05
6.45216e-05
5.567e-05
5.4804e-05
2.70029e-05
9.52331e-05
4.41549e-05
9.39807e-05
8.02427e-05
8.69674e-05
0.000115507
8.11064e-05
7.31238e-05
0.000161671
2.64491e-05
0.000182256
0.000148685
0.000111898
3.33599e-06
3.77962e-05
8.50601e-06
-7.82024e-06
8.24953e-06
-2.97038e-07
1.06514e-05
1.5786e-06
1.89996e-05
5.87719e-06
1.82524e-05
8.25735e-06
2.06817e-05
6.76186e-06
1.95864e-05
1.31032e-05
2.78305e-05
1.3315e-05
3.27845e-05
2.41933e-05
3.62835e-05
1.88729e-05
5.05862e-05
1.57026e-05
2.96633e-05
4.86139e-05
3.93904e-05
4.64626e-05
5.14877e-05
5.24242e-05
6.7184e-05
3.91077e-05
0.000101594
6.08231e-05
8.71366e-05
0.000108438
9.39887e-05
8.01154e-05
5.4869e-05
0.000120226
5.41975e-05
0.000162342
0.000131546
0.000104908
0.00019194
8.82902e-05
1.42633e-05
2.3533e-05
6.99986e-06
-5.56754e-07
7.84501e-06
-1.14214e-06
1.12745e-05
-1.8509e-06
1.5755e-05
1.39671e-06
1.83962e-05
5.61618e-06
1.80551e-05
7.10293e-06
2.53006e-05
5.85778e-06
2.04008e-05
1.82147e-05
3.92379e-05
5.35617e-06
3.65244e-05
2.15862e-05
3.39136e-05
1.83134e-05
4.54653e-05
3.70622e-05
5.7004e-05
3.49238e-05
4.75794e-05
6.18487e-05
5.45029e-05
3.21842e-05
6.10518e-05
5.42742e-05
0.000105825
6.36643e-05
5.34766e-05
0.000132464
7.28229e-05
0.00010088
0.000137357
9.78084e-05
0.000145992
9.62727e-05
0.000183249
0.000154683
1.2329e-05
1.1204e-05
1.08021e-05
9.70217e-07
1.52416e-05
-5.58157e-06
1.65584e-05
-3.16776e-06
1.97245e-05
-1.76932e-06
2.37028e-05
1.63787e-06
2.79943e-05
2.81142e-06
3.13444e-05
2.50763e-06
4.01358e-05
9.42337e-06
4.32501e-05
2.24181e-06
4.14131e-05
2.34232e-05
3.97264e-05
2e-05
6.06245e-05
1.6164e-05
5.75337e-05
3.80146e-05
0.000104418
1.49646e-05
0.000107721
2.88809e-05
0.000119175
4.28203e-05
0.000125771
5.7068e-05
0.000141151
0.000117084
0.000137508
0.000104523
0.000119481
0.000115835
8.2491e-05
0.000133263
0.00016543
0.00010031
7.20124e-06
4.00283e-06
1.0137e-05
-1.96552e-06
1.16532e-05
-7.0977e-06
1.27149e-05
-4.22948e-06
1.40705e-05
-3.12484e-06
2.09626e-05
-5.25423e-06
2.62877e-05
-2.51371e-06
2.90551e-05
-2.59759e-07
3.88198e-05
-3.41297e-07
3.38581e-05
7.20347e-06
5.90697e-05
-1.78842e-06
7.01937e-05
8.876e-06
5.58295e-05
3.05281e-05
9.14402e-05
2.40384e-06
9.90429e-05
7.36183e-06
0.000111218
1.6706e-05
0.000137173
1.68653e-05
7.59957e-05
0.000118245
0.000132737
6.03427e-05
0.000128215
0.000109045
0.000122945
0.000121106
9.73495e-05
0.000158858
0.000108781
0.000153998
7.17655e-06
-3.17367e-06
1.31853e-05
-7.9742e-06
1.65377e-05
-1.045e-05
2.08648e-05
-8.55665e-06
2.52775e-05
-7.53756e-06
2.97943e-05
-9.77101e-06
3.55667e-05
-8.28612e-06
4.20393e-05
-6.73227e-06
4.92273e-05
-7.52937e-06
5.80985e-05
-1.66764e-06
6.70572e-05
-1.07472e-05
7.99009e-05
-3.96773e-06
9.96847e-05
1.07443e-05
0.00010887
-6.78197e-06
0.000120299
-4.06713e-06
0.000141914
-4.90835e-06
0.000107861
5.0918e-05
0.000130418
9.56881e-05
0.000125173
6.55874e-05
0.000153586
8.06323e-05
0.000155362
0.00011933
0.000166211
0.000148009
0.000164885
0.000110107
4.32174e-06
-7.49536e-06
8.41224e-06
-1.20646e-05
1.04133e-05
-1.2451e-05
1.40474e-05
-1.21908e-05
2.21256e-05
-1.56157e-05
2.57049e-05
-1.33504e-05
3.09336e-05
-1.35147e-05
3.73225e-05
-1.31212e-05
4.14337e-05
-1.16406e-05
5.06317e-05
-1.08657e-05
4.88089e-05
-8.92436e-06
5.32617e-05
-8.42051e-06
8.14503e-05
-1.74444e-05
8.76542e-05
-1.29859e-05
0.000106905
-2.33181e-05
0.000107116
-5.11929e-06
0.000129593
2.84411e-05
0.000196285
2.89953e-05
0.000162794
9.90789e-05
0.000164832
7.85942e-05
0.000193072
9.10898e-05
0.00018988
0.000151201
0.000140392
0.000214373
5.73795e-06
-1.32333e-05
1.09571e-05
-1.72837e-05
1.54704e-05
-1.69643e-05
2.10076e-05
-1.77279e-05
2.5716e-05
-2.03241e-05
3.15864e-05
-1.92208e-05
3.79737e-05
-1.9902e-05
4.49349e-05
-2.00823e-05
5.28576e-05
-1.95633e-05
6.24245e-05
-2.04326e-05
7.1661e-05
-1.81609e-05
8.2482e-05
-1.92415e-05
9.30904e-05
-2.80529e-05
0.000105112
-2.50077e-05
0.000134271
-5.24774e-05
0.000169922
-4.07696e-05
0.000223966
-2.56032e-05
0.000227168
2.57931e-05
0.000222467
0.00010378
0.000228897
7.21645e-05
0.000223444
9.65422e-05
0.000210304
0.00016434
0.000104011
0.000246685
4.97132e-06
-1.82045e-05
9.40967e-06
-2.17219e-05
1.48184e-05
-2.2373e-05
2.00463e-05
-2.29558e-05
2.35521e-05
-2.383e-05
2.87554e-05
-2.44241e-05
3.41985e-05
-2.53451e-05
4.0508e-05
-2.63918e-05
4.8144e-05
-2.71992e-05
5.61683e-05
-2.84568e-05
6.81702e-05
-3.01628e-05
8.01982e-05
-3.12694e-05
8.71083e-05
-3.4963e-05
9.51527e-05
-3.30521e-05
0.000119089
-7.64141e-05
0.000106499
-2.81793e-05
0.000160478
-7.95821e-05
0.000196412
-1.01417e-05
0.000286418
1.37743e-05
0.00028528
7.33023e-05
0.000260788
0.000121034
0.000276049
0.00014908
0.000203312
0.000176748
4.82155e-06
-2.3026e-05
9.32239e-06
-2.62227e-05
1.36932e-05
-2.67437e-05
1.81558e-05
-2.74184e-05
2.29258e-05
-2.86e-05
2.80814e-05
-2.95798e-05
3.35462e-05
-3.08099e-05
3.97671e-05
-3.26128e-05
4.66174e-05
-3.40495e-05
5.5039e-05
-3.68784e-05
6.38563e-05
-3.89801e-05
7.68207e-05
-4.42338e-05
9.03974e-05
-4.85398e-05
0.000110175
-5.28301e-05
0.000145248
-0.000111487
0.000213598
-9.65292e-05
0.000264239
-0.000130223
0.000309232
-5.51346e-05
0.000327082
-4.07667e-06
0.000297469
0.000102916
0.000340882
7.76208e-05
0.000319884
0.000170078
0.000212424
0.000310771
4.15158e-06
-2.71775e-05
7.90303e-06
-2.9974e-05
1.18066e-05
-3.06472e-05
1.58465e-05
-3.14584e-05
1.98254e-05
-3.25789e-05
2.42003e-05
-3.39548e-05
2.92014e-05
-3.5811e-05
3.46117e-05
-3.80231e-05
4.13081e-05
-4.07459e-05
4.8328e-05
-4.38984e-05
5.76435e-05
-4.82956e-05
6.9278e-05
-5.58683e-05
8.19592e-05
-6.1221e-05
0.000100834
-7.17044e-05
0.000127711
-0.000138364
0.000175167
-0.000143986
0.000173651
-0.000128708
0.000221913
-0.000103396
0.00027734
-5.95038e-05
0.000375845
4.41143e-06
0.000396286
5.71791e-05
0.000351468
0.000214896
0.000259454
0.000304438
3.71284e-06
-3.08903e-05
6.9772e-06
-3.32382e-05
1.02543e-05
-3.39242e-05
1.35987e-05
-3.48028e-05
1.71898e-05
-3.617e-05
2.08094e-05
-3.75743e-05
2.49299e-05
-3.99316e-05
2.87386e-05
-4.18318e-05
3.41597e-05
-4.61671e-05
3.8737e-05
-4.84757e-05
4.61782e-05
-5.57368e-05
5.10697e-05
-6.07598e-05
5.58852e-05
-6.60365e-05
5.11548e-05
-6.6974e-05
7.20007e-05
-0.00015921
0.000110797
-0.000182781
0.000185981
-0.000203892
0.000276794
-0.00019421
0.000314396
-9.71055e-05
0.000319178
-3.70654e-07
0.000224557
0.0001518
0.000218511
0.000220943
0.000167445
0.00031052
2.85296e-06
-3.37432e-05
5.33762e-06
-3.57228e-05
7.82684e-06
-3.64133e-05
1.03199e-05
-3.72958e-05