/*--------------------------------*- C++ -*----------------------------------*\
| =========                 |                                                 |
| \\      /  F ield         | foam-extend: Open Source CFD                    |
|  \\    /   O peration     | Version:     4.1                                |
|   \\  /    A nd           | Web:         http://www.foam-extend.org         |
|    \\/     M anipulation  |                                                 |
\*---------------------------------------------------------------------------*/
FoamFile
{
    version     2.0;
    format      ascii;
    class       volVectorField;
    location    "0.55";
    object      U;
}
// * * * * * * * * * * * * * * * * * * * * * * * * * * * * * * * * * * * * * //

dimensions      [0 1 -1 0 0 0 0];

internalField   nonuniform List<vector> 
2268
(
(0.0415345 -0.00555696 0)
(0.0466756 -0.0024181 0)
(0.082153 -0.00499604 0)
(0.13381 -0.0050855 0)
(0.15262 -0.000671544 0)
(0.191157 -0.00283767 0)
(0.18314 0.000952243 0)
(0.187965 0.00314679 0)
(0.159647 0.00615742 0)
(0.150768 -0.0100638 0)
(0.123495 -0.0124163 0)
(0.106885 -0.00168949 0)
(0.127844 0.000733585 0)
(0.125539 0.000959772 0)
(0.129196 0.00146896 0)
(0.127832 0.000716971 0)
(0.126807 0.0021318 0)
(0.124401 0.0028952 0)
(0.118167 0.000575551 0)
(0.108535 0.00511655 0)
(0.086117 0.0103522 0)
(0.0540314 0.0056537 0)
(0.0243848 0.0109277 0)
(0.0387336 -0.0151869 0)
(0.047143 -0.00722345 0)
(0.0903434 -0.0154045 0)
(0.135009 -0.0114292 0)
(0.153648 -0.0132976 0)
(0.19285 -0.00390266 0)
(0.186665 -0.000569536 0)
(0.19306 0.00273201 0)
(0.160789 0.0035926 0)
(0.167446 0.0258283 0)
(0.115339 -0.0334245 0)
(0.0911746 -0.00090849 0)
(0.108822 -0.00817042 0)
(0.103505 -0.00214313 0)
(0.108713 -0.00337456 0)
(0.109797 -0.000193037 0)
(0.111027 0.000100633 0)
(0.111588 0.00553786 0)
(0.109793 0.00665043 0)
(0.102219 0.00988252 0)
(0.0823195 0.0155824 0)
(0.0519629 0.0237577 0)
(0.00846645 0.0260573 0)
(0.0314814 -0.0257567 0)
(0.0449009 -0.0147168 0)
(0.100029 -0.0255799 0)
(0.130956 -0.0198831 0)
(0.151397 -0.0146375 0)
(0.193926 -0.0104644 0)
(0.186417 0.000919332 0)
(0.19451 0.00977592 0)
(0.177042 0.0117488 0)
(0.159095 -0.00796807 0)
(0.112383 -0.0374336 0)
(0.10044 -0.00390762 0)
(0.0980388 -0.0126427 0)
(0.0899911 -0.00203065 0)
(0.0894495 -0.00399987 0)
(0.0895424 -0.000815598 0)
(0.0913123 -0.00024711 0)
(0.0940755 0.00417919 0)
(0.0954435 0.0174196 0)
(0.0917948 0.0188417 0)
(0.0804844 0.0327331 0)
(0.0555275 0.0408761 0)
(0.0205874 0.0393842 0)
(0.0233707 -0.0330785 0)
(0.0437458 -0.023482 0)
(0.108015 -0.0354655 0)
(0.127519 -0.0235779 0)
(0.16189 -0.0286133 0)
(0.198483 -0.011295 0)
(0.190666 -0.00185494 0)
(0.195077 0.00521913 0)
(0.153256 0.0140945 0)
(0.102787 -0.0218331 0)
(0.0950767 -0.0106223 0)
(0.0502338 0.0131096 0)
(0.042414 0.00641189 0)
(0.0258995 0.0065627 0)
(0.0192683 -0.00111247 0)
(0.0219897 -0.000812047 0)
(0.027504 -0.00230053 0)
(0.0367225 0.00198145 0)
(0.0412781 0.00803739 0)
(0.0568292 0.016869 0)
(0.0635982 0.0333101 0)
(0.0558543 0.0526068 0)
(0.0143388 0.0608426 0)
(0.0189053 -0.0416053 0)
(0.0460727 -0.0349436 0)
(0.111705 -0.0451394 0)
(0.130974 -0.0324701 0)
(0.171866 -0.0321202 0)
(0.191775 -0.0174462 0)
(0.179802 0.00278759 0)
(0.193138 0.0186046 0)
(0.116975 -0.0281709 0)
(0.0840754 0.0167299 0)
(0.0572107 -0.00658293 0)
(0.024157 0.0152333 0)
(0.0151164 0.00668935 0)
(0.00229778 0.0055986 0)
(-0.000504865 -0.00105417 0)
(-0.0167381 -0.00443811 0)
(-0.0159861 -0.00704317 0)
(-0.0112141 -0.00562018 0)
(-0.0157352 -0.000609429 0)
(0.00626276 0.00857607 0)
(0.0206205 0.0321179 0)
(0.0371691 0.0644153 0)
(0.0201424 0.0737136 0)
(0.0225524 -0.0480555 0)
(0.0552377 -0.0454746 0)
(0.118792 -0.0549746 0)
(0.133992 -0.0383627 0)
(0.168857 -0.0431947 0)
(0.19149 -0.0115663 0)
(0.194128 -0.00420586 0)
(0.157028 0.022421 0)
(0.0823978 -0.00535073 0)
(0.0691762 0.0217174 0)
(0.0383125 0.0162241 0)
(-0.00813346 0.0312759 0)
(-0.0143439 0.0277899 0)
(-0.0304565 0.0140616 0)
(-0.0350507 0.00677458 0)
(-0.0362722 0.00663516 0)
(-0.0399751 -0.0076694 0)
(-0.0373742 0.000104766 0)
(-0.0386676 -0.00826188 0)
(-0.0229102 -0.000125054 0)
(-0.0250378 0.0191114 0)
(0.015291 0.0536053 0)
(0.0139903 0.0846891 0)
(0.0301512 -0.0601085 0)
(0.0620186 -0.0581226 0)
(0.117591 -0.0633648 0)
(0.128732 -0.044665 0)
(0.174595 -0.0455536 0)
(0.194971 -0.0243956 0)
(0.176835 0.0176147 0)
(0.133441 -0.0144312 0)
(0.0680747 0.0108967 0)
(0.0468777 0.0639042 0)
(0.0171836 0.031208 0)
(-0.0259882 0.039927 0)
(-0.0281898 0.0303719 0)
(-0.0404296 0.015866 0)
(-0.0385409 0.0023857 0)
(-0.0532976 -0.000863194 0)
(-0.0478535 -0.0162607 0)
(-0.0435522 -0.00393189 0)
(-0.0438447 -0.0133797 0)
(-0.0317644 0.00274781 0)
(-0.0399547 0.0121253 0)
(-0.00194575 0.0474675 0)
(0.0103062 0.0919371 0)
(0.0357709 -0.0691907 0)
(0.0625357 -0.0661143 0)
(0.120482 -0.0698495 0)
(0.132803 -0.0523963 0)
(0.179734 -0.0602031 0)
(0.203283 -0.0102313 0)
(0.162233 0.00617918 0)
(0.1063 0.00422246 0)
(0.090943 0.0355571 0)
(0.0355746 0.0623732 0)
(-0.0103238 0.0503796 0)
(-0.0379748 0.0493379 0)
(-0.0399013 0.0442068 0)
(-0.0539589 0.0176618 0)
(-0.052016 0.010907 0)
(-0.0543119 0.0110062 0)
(-0.0458984 -0.0175221 0)
(-0.0377271 -0.00425357 0)
(-0.0330323 -0.021242 0)
(-0.0299647 -0.00172803 0)
(-0.0368183 0.00455876 0)
(-0.00924777 0.0325259 0)
(0.0104363 0.0831536 0)
(-0.676486 0.180824 0)
(-1.44367 0.117626 0)
(-1.76439 -0.0126192 0)
(-1.8547 -0.0223132 0)
(-1.85548 -0.0155004 0)
(-1.78172 -0.0425664 0)
(-1.71408 -0.0551653 0)
(-1.67174 -0.0522239 0)
(-1.63746 -0.0588677 0)
(-1.60471 -0.0435715 0)
(-1.58338 -0.0472874 0)
(-1.50846 -0.0607409 0)
(-1.46433 -0.0485229 0)
(-1.43158 -0.0290716 0)
(-1.41442 -0.204874 0)
(-1.30488 -0.0160774 0)
(-0.502554 -0.167565 0)
(-0.167167 -0.279866 0)
(0.0530398 -0.0674604 0)
(-0.701779 0.640191 0)
(-1.24945 0.352409 0)
(-1.53245 0.240911 0)
(-1.6365 0.102501 0)
(-1.66367 0.0976557 0)
(-1.5895 0.043386 0)
(-1.4857 -0.00620654 0)
(-1.44375 -0.00970845 0)
(-1.4261 0.00911846 0)
(-1.39552 0.0172317 0)
(-1.37653 -0.00544036 0)
(-1.30114 -0.0477033 0)
(-1.24127 -0.0246657 0)
(-1.285 -0.0836908 0)
(-1.2511 -0.295549 0)
(-1.08274 -0.175573 0)
(-0.751968 -0.076932 0)
(-0.19813 -0.15835 0)
(0.0350188 -0.0274403 0)
(-0.789989 0.940518 0)
(-0.988702 0.386089 0)
(-1.16813 -0.0150236 0)
(-1.20254 -0.136124 0)
(-1.2856 0.206357 0)
(-0.905244 -0.0853612 0)
(-0.161995 -0.165148 0)
(-1.04091 -0.00144955 0)
(-1.25472 -0.055616 0)
(-1.2986 -0.145576 0)
(-1.35431 -0.198626 0)
(-1.28314 -0.131806 0)
(-1.16128 -0.245706 0)
(-1.25435 -0.40991 0)
(-1.13111 -0.310555 0)
(-0.84407 -0.474064 0)
(-0.539052 -0.218342 0)
(-0.234152 -0.229336 0)
(-0.0500908 -0.080006 0)
(-0.707254 1.25202 0)
(-0.354803 0.512271 0)
(-0.124178 0.0090461 0)
(-0.353781 0.112032 0)
(-0.66358 0.284636 0)
(0.376606 -0.316551 0)
(0.489278 -0.398279 0)
(0.803996 0.294604 0)
(-0.188572 0.504484 0)
(-0.745485 -0.0618833 0)
(-1.0558 -0.181546 0)
(-1.18323 0.263591 0)
(-1.08691 -0.196014 0)
(-1.24728 -0.444011 0)
(-1.16894 -0.251793 0)
(-0.805007 -0.456723 0)
(-0.524086 -0.367576 0)
(-0.296831 -0.342507 0)
(-0.126137 -0.139184 0)
(-0.5504 1.40579 0)
(0.283123 0.351556 0)
(0.521139 -0.0460023 0)
(0.473473 0.116196 0)
(0.739856 -0.0252323 0)
(0.858055 -0.321083 0)
(0.755986 -0.361454 0)
(1.06007 -0.0135085 0)
(2.20491 0.850398 0)
(2.85002 0.120827 0)
(1.67136 -0.0929965 0)
(-0.251661 0.225262 0)
(-0.6327 -0.437172 0)
(-1.17305 -0.369685 0)
(-0.98153 -0.168875 0)
(-0.734409 -0.289866 0)
(-0.544176 -0.461313 0)
(-0.353838 -0.388822 0)
(-0.145225 -0.268797 0)
(-0.394335 1.45664 0)
(0.661037 0.356462 0)
(0.85664 -0.211719 0)
(0.869401 0.0137602 0)
(1.01038 -0.0768547 0)
(1.01831 -0.219778 0)
(0.861103 -0.298087 0)
(1.24337 -0.204084 0)
(2.48831 0.158304 0)
(2.85944 0.266593 0)
(3.44477 0.638325 0)
(2.76004 0.95491 0)
(3.02795 0.0159061 0)
(-1.15657 -0.275185 0)
(-0.95973 -0.120909 0)
(-0.656246 -0.358376 0)
(-0.473287 -0.516558 0)
(-0.40548 -0.536236 0)
(-0.202385 -0.34022 0)
(-0.160687 1.53573 0)
(1.3043 0.313299 0)
(0.884255 -0.33398 0)
(0.882195 -0.226855 0)
(0.998356 -0.27713 0)
(0.985791 -0.282712 0)
(0.88798 -0.290174 0)
(1.1423 -0.40701 0)
(1.53626 -0.270475 0)
(1.54317 -0.207623 0)
(1.83186 0.136809 0)
(2.43121 0.818563 0)
(4.28235 1.14879 0)
(-0.569676 0.605269 0)
(-1.47688 0.16292 0)
(-0.680487 -0.42448 0)
(-0.390238 -0.58984 0)
(-0.376969 -0.622565 0)
(-0.227664 -0.400462 0)
(0.523207 0.970617 0)
(1.4343 0.175971 0)
(0.88518 0.152532 0)
(0.740969 -0.210412 0)
(0.680121 -0.362701 0)
(0.687899 -0.353916 0)
(0.721219 -0.247266 0)
(0.890213 -0.247907 0)
(0.964852 -0.386693 0)
(1.13336 -0.325356 0)
(1.42881 -0.19744 0)
(1.61094 0.206729 0)
(2.38567 0.940304 0)
(1.37454 1.89689 0)
(-0.329477 0.219195 0)
(-0.645729 -0.426509 0)
(-0.307496 -0.650626 0)
(-0.343731 -0.706543 0)
(-0.23426 -0.461014 0)
(0.0345418 -0.091604 0)
(0.0622898 -0.086257 0)
(0.122296 -0.0854991 0)
(0.123985 -0.064185 0)
(0.191266 -0.0638369 0)
(0.177177 -0.0316094 0)
(0.135809 -0.0380677 0)
(0.12492 0.0146253 0)
(0.0587878 0.0499225 0)
(0.0190839 0.0551308 0)
(-0.0102599 0.0709629 0)
(-0.031847 0.0628942 0)
(-0.0454028 0.0504621 0)
(-0.0658845 0.0250657 0)
(-0.0409667 0.0238284 0)
(-0.0641747 0.00535724 0)
(-0.054101 -0.00869859 0)
(-0.0348703 -0.00471941 0)
(-0.0252367 -0.0199302 0)
(-0.0198215 0.0088015 0)
(-0.0185217 -0.000480541 0)
(-0.00177713 0.0250475 0)
(-0.00122414 0.108484 0)
(0.0366517 -0.108574 0)
(0.0484857 -0.104017 0)
(0.136059 -0.0939543 0)
(0.133379 -0.0857786 0)
(0.113196 -0.087733 0)
(0.115514 -0.119553 0)
(0.0959046 0.0649408 0)
(0.0628755 0.0802729 0)
(-0.00471655 0.133648 0)
(-0.0337477 0.121484 0)
(-0.0573673 0.0955857 0)
(-0.056804 0.0747118 0)
(-0.0574006 0.0312816 0)
(-0.0418549 0.0107075 0)
(-0.0389546 -0.00996475 0)
(-0.0438305 -0.0321457 0)
(-0.0123071 -0.00772805 0)
(-0.0202517 -0.0274132 0)
(-0.0115417 -0.0259204 0)
(0.0070347 -0.0239945 0)
(0.0550616 -0.0062279 0)
(0.0537063 0.0268667 0)
(0.0427096 0.084267 0)
(-0.016487 -0.130841 0)
(-0.0240543 -0.134794 0)
(-0.0808833 -0.125246 0)
(-0.0797218 -0.168534 0)
(-0.0154835 -0.0606752 0)
(-0.107705 -0.00567288 0)
(-0.107125 0.0681945 0)
(-0.192753 0.135064 0)
(-0.175274 0.161916 0)
(-0.185905 0.12187 0)
(-0.199186 0.0969011 0)
(-0.155283 0.0663925 0)
(-0.133388 0.0366315 0)
(-0.0908603 0.00734835 0)
(-0.0568065 -0.0164999 0)
(-0.0276437 -0.00850901 0)
(0.000123403 -0.0123752 0)
(0.00576887 -0.0291649 0)
(0.0175365 -0.0298839 0)
(0.0163252 -0.0248411 0)
(0.0135468 -0.0212641 0)
(0.0149888 -0.0139958 0)
(0.0195102 0.00580278 0)
(-0.0390792 -0.0731277 0)
(-0.0602971 -0.0621052 0)
(-0.123608 -0.113275 0)
(-0.141869 -0.0983669 0)
(-0.10318 -0.100044 0)
(-0.164107 -0.0552549 0)
(-0.167484 0.145891 0)
(-0.183706 0.303969 0)
(-0.243785 0.324379 0)
(-0.500128 0.132949 0)
(-0.479299 0.066715 0)
(-0.415484 0.00257345 0)
(-0.248019 -0.0335297 0)
(-0.154038 -0.0679544 0)
(-0.134587 -0.078468 0)
(-0.124011 -0.0915937 0)
(-0.133774 -0.0424783 0)
(-0.115357 -0.0177997 0)
(-0.0441718 -0.0404491 0)
(-0.0312545 -0.0212774 0)
(0.00741556 -0.00424099 0)
(0.039048 0.0112974 0)
(0.0591136 0.0293946 0)
(-0.0410142 -0.0189629 0)
(-0.0802779 -0.0606606 0)
(-0.100431 -0.132331 0)
(-0.0909658 -0.0762195 0)
(-0.116577 -0.0247837 0)
(-0.173246 0.0443462 0)
(-0.244915 0.105349 0)
(-0.222181 0.203454 0)
(-0.110897 0.250958 0)
(-0.245201 0.1148 0)
(-0.303046 0.128849 0)
(-0.271138 -0.0356943 0)
(-0.289189 0.088667 0)
(-0.225211 -0.103576 0)
(-0.194839 -0.165022 0)
(-0.315527 -0.111398 0)
(-0.274756 -0.0126623 0)
(-0.198961 -0.0322951 0)
(-0.32352 -0.23556 0)
(-0.200632 -0.14708 0)
(-0.242119 -0.0930526 0)
(-0.187186 -0.061226 0)
(-0.0898774 -0.0295264 0)
(-0.0144008 0.0421423 0)
(-0.0448779 -0.0136919 0)
(-0.0725938 -0.104135 0)
(-0.0442968 -0.0880897 0)
(-0.0872949 -0.0144937 0)
(-0.141886 0.0567475 0)
(-0.183809 0.109613 0)
(-0.203053 0.148391 0)
(-0.10796 0.25517 0)
(-0.0438514 0.180975 0)
(-0.112687 0.134094 0)
(-0.168521 -0.0910619 0)
(-0.165533 -0.280661 0)
(-0.173204 0.0035475 0)
(-0.225751 -0.180405 0)
(-0.270299 -0.135864 0)
(-0.269812 0.105276 0)
(-0.196633 0.0295291 0)
(-0.403452 -0.100799 0)
(-0.439544 0.129902 0)
(-0.281057 -0.16131 0)
(-0.238424 0.0291465 0)
(-0.264938 -0.121792 0)
(-0.0221813 0.0477793 0)
(-0.0324246 -0.00165891 0)
(-0.0383429 -0.114642 0)
(-0.0164115 -0.0790445 0)
(-0.0640957 -0.0199546 0)
(-0.0765331 0.0872222 0)
(-0.147977 0.128764 0)
(-0.141441 0.165535 0)
(-0.0852782 0.17858 0)
(-0.0874352 0.177129 0)
(-0.0570633 0.183649 0)
(0.0048488 0.0564938 0)
(-0.130793 -0.0761187 0)
(-0.125385 -0.0501689 0)
(-0.173423 -0.0617751 0)
(-0.176376 0.0501571 0)
(-0.229698 0.0449997 0)
(-0.173119 0.00542993 0)
(-0.266843 -0.318817 0)
(-0.343161 -0.193519 0)
(-0.310208 -0.0996772 0)
(-0.301236 -0.0584145 0)
(-0.21173 -0.0429711 0)
(-0.0226386 0.0657593 0)
(-0.0295516 0.0256328 0)
(-0.0329083 -0.122764 0)
(0.00790064 -0.101499 0)
(-0.0242753 0.0131619 0)
(-0.0653725 0.0941191 0)
(-0.0870467 0.153617 0)
(-0.152464 0.211727 0)
(-0.101771 0.204163 0)
(0.00547935 0.160223 0)
(-0.0374086 0.201058 0)
(-0.119986 0.0255596 0)
(-0.122863 0.00188763 0)
(-0.14782 -0.0452659 0)
(-0.193137 -0.0533194 0)
(-0.206102 0.0134115 0)
(-0.198543 0.0508177 0)
(-0.170317 0.057969 0)
(-0.203109 -0.0422029 0)
(-0.251753 0.0221153 0)
(-0.273812 -0.163507 0)
(-0.259621 -0.208576 0)
(-0.241962 -0.186399 0)
(-0.0171902 0.0765844 0)
(-0.0335214 0.0358019 0)
(-0.0183222 -0.146662 0)
(0.0200836 -0.0968757 0)
(-0.0236655 0.0246172 0)
(-0.0563961 0.121434 0)
(-0.0385093 0.169591 0)
(-0.0847174 0.194969 0)
(-0.0712956 0.28696 0)
(-0.0548969 0.145888 0)
(-0.0467702 0.131615 0)
(-0.0518092 0.0455392 0)
(-0.11216 0.0439815 0)
(-0.187565 0.00645863 0)
(-0.182702 0.0241545 0)
(-0.169809 0.0216976 0)
(-0.207896 0.0532747 0)
(-0.226038 -0.0383421 0)
(-0.197413 -0.0486668 0)
(-0.321358 -0.0751001 0)
(-0.405438 -0.0788556 0)
(-0.242682 -0.114211 0)
(-0.23972 -0.149077 0)
(-0.00761796 0.0904063 0)
(-0.028774 0.0499748 0)
(-0.00379526 -0.177354 0)
(0.0227728 -0.101307 0)
(-0.00648668 0.0512396 0)
(-0.0616048 0.139894 0)
(-0.0454646 0.182976 0)
(-0.0274751 0.164138 0)
(-0.0974742 0.206362 0)
(-0.0840528 0.205022 0)
(-0.0401159 0.162339 0)
(-0.0756411 0.12316 0)
(-0.0633761 0.0621961 0)
(-0.112099 0.0436495 0)
(-0.174267 0.0809631 0)
(-0.143471 0.045653 0)
(-0.222341 0.0530381 0)
(-0.245298 0.0817623 0)
(-0.196047 0.018005 0)
(-0.289184 -0.0608453 0)
(-0.348018 -0.0778867 0)
(-0.363261 -0.0584294 0)
(-0.376192 -0.182382 0)
(-0.00190118 0.0949518 0)
(-0.0134237 0.0513524 0)
(0.00535397 -0.200272 0)
(0.0152622 -0.09291 0)
(-0.0281611 0.0769199 0)
(-0.0818667 0.146841 0)
(-0.0610458 0.186569 0)
(-0.0482017 0.185719 0)
(-0.0225515 0.173892 0)
(-0.0437661 0.204811 0)
(-0.0699436 0.168701 0)
(-0.0779159 0.142329 0)
(-0.119492 0.0743896 0)
(-0.110321 0.0880163 0)
(-0.149971 0.0782437 0)
(-0.155282 0.0869806 0)
(-0.151055 0.0309745 0)
(-0.237262 0.085449 0)
(-0.289163 0.033101 0)
(-0.364155 0.0110916 0)
(-0.304896 0.0379321 0)
(-0.243979 -0.0375471 0)
(-0.307829 -0.120693 0)
(-0.00377085 0.0985177 0)
(0.00776725 0.0475268 0)
(0.0154579 -0.202887 0)
(-0.0101167 -0.0762905 0)
(-0.0565897 0.10013 0)
(-0.0822389 0.15179 0)
(-0.049834 0.169298 0)
(-0.0623074 0.175244 0)
(-0.0680626 0.155601 0)
(-0.0346092 0.119972 0)
(-0.0509103 0.127345 0)
(-0.0906437 0.118346 0)
(-0.0674614 0.121112 0)
(-0.0427076 0.063722 0)
(-0.123013 0.0777898 0)
(-0.153176 0.109345 0)
(-0.190684 0.0887955 0)
(-0.208187 0.0733432 0)
(-0.220572 0.0803635 0)
(-0.215116 -0.00411028 0)
(-0.29781 0.0682251 0)
(-0.425956 -0.0455379 0)
(-0.391506 -0.128136 0)
(-0.00782356 0.0919918 0)
(0.00703996 0.0428664 0)
(-0.000949093 -0.191653 0)
(-0.0394368 -0.0151933 0)
(-0.0749493 0.150467 0)
(-0.0853588 0.149167 0)
(-0.0683463 0.163442 0)
(-0.0939805 0.163146 0)
(-0.0560002 0.22247 0)
(-0.0280131 0.164754 0)
(-0.0504857 0.170412 0)
(0.00256274 0.145096 0)
(-0.0728219 0.158649 0)
(-0.0875168 0.13128 0)
(-0.102271 0.178111 0)
(-0.114369 0.164195 0)
(-0.122369 0.101313 0)
(-0.161811 0.0807232 0)
(-0.278135 0.0478789 0)
(-0.290113 0.0886366 0)
(-0.252515 0.00121692 0)
(-0.335644 -0.0324108 0)
(-0.268988 -0.0479283 0)
(-0.0165114 0.0991621 0)
(0.0051716 0.0440443 0)
(-0.00531567 -0.175137 0)
(-0.0282302 0.0139075 0)
(-0.0756182 0.140601 0)
(-0.0790632 0.144217 0)
(-0.050489 0.163298 0)
(-0.0312677 0.166586 0)
(-0.0602681 0.21823 0)
(-0.0676793 0.159997 0)
(-0.0291426 0.26473 0)
(0.00286866 0.157869 0)
(-0.0051214 0.108836 0)
(0.0269686 0.241939 0)
(-0.0399381 0.225474 0)
(-0.136498 0.191238 0)
(-0.131474 0.150971 0)
(-0.164635 0.12404 0)
(-0.154538 0.085032 0)
(-0.217046 0.117894 0)
(-0.377698 0.0755634 0)
(-0.379495 0.0598677 0)
(-0.299596 -0.127809 0)
(-0.0304626 0.1051 0)
(-0.00731167 0.0267922 0)
(-0.0191337 -0.153968 0)
(-0.0738752 0.0848981 0)
(-0.0627359 0.221332 0)
(-0.00568534 0.125092 0)
(-0.0475433 0.121238 0)
(-0.0260416 0.151258 0)
(-0.0140476 0.119685 0)
(0.0136778 0.119747 0)
(-0.00773531 0.132123 0)
(-0.0252895 0.105046 0)
(0.0422762 0.130609 0)
(0.00641616 0.204755 0)
(-0.103197 0.151663 0)
(-0.0778975 0.165419 0)
(-0.0949498 0.118761 0)
(-0.133345 0.0932018 0)
(-0.241707 0.127347 0)
(-0.291674 0.101059 0)
(-0.252748 0.126347 0)
(-0.362339 0.19766 0)
(-0.4586 0.0339283 0)
(-0.0421645 0.134927 0)
(0.015577 0.021915 0)
(-0.0181386 -0.147574 0)
(0.0110802 0.0768766 0)
(-0.0876019 0.22799 0)
(-0.0963944 0.148117 0)
(-0.0321451 0.155728 0)
(-0.00333389 0.163009 0)
(0.00447666 0.141414 0)
(-0.00749851 0.125401 0)
(-0.0211693 0.0931095 0)
(0.00147053 0.170433 0)
(0.0125317 0.218417 0)
(-0.0581406 0.209247 0)
(-0.0703596 0.225676 0)
(-0.0571799 0.234368 0)
(-0.155042 0.213382 0)
(-0.182522 0.285565 0)
(-0.189826 0.280291 0)
(-0.207159 0.309592 0)
(-0.178399 0.300843 0)
(-0.345268 0.186912 0)
(-0.436725 0.187702 0)
(-0.0534081 0.137389 0)
(0.0104144 -0.000881461 0)
(-0.0576726 -0.141581 0)
(-0.0958871 0.102547 0)
(-0.0615337 0.192396 0)
(0.0416141 0.10905 0)
(-0.0366434 0.129258 0)
(-0.0151467 0.125192 0)
(0.0173418 0.142709 0)
(-0.00264906 0.128247 0)
(0.038726 0.14605 0)
(0.0249507 0.191132 0)
(-0.0459886 0.265998 0)
(-0.0483552 0.249347 0)
(-0.0310478 0.392751 0)
(-0.0461374 0.275728 0)
(-0.025582 0.378188 0)
(-0.105936 0.387259 0)
(-0.209531 0.419705 0)
(-0.292218 0.424188 0)
(-0.300187 0.369616 0)
(-0.340664 0.25124 0)
(-0.486441 0.237881 0)
(-0.0753499 0.180781 0)
(-0.0146396 -0.00276687 0)
(-0.0702971 -0.083034 0)
(-0.0459905 0.17584 0)
(-0.0520639 0.282485 0)
(-0.0111998 0.0913544 0)
(-0.0170193 0.114404 0)
(0.0425552 0.11744 0)
(0.0318512 0.133513 0)
(0.024287 0.099631 0)
(-0.0147692 0.23174 0)
(0.0117097 0.123856 0)
(-0.0214256 0.301505 0)
(0.0138557 0.221095 0)
(-0.0358112 0.280785 0)
(-0.0357274 0.228465 0)
(-0.07173 0.269943 0)
(-0.1321 0.259742 0)
(-0.143809 0.272731 0)
(-0.244652 0.326209 0)
(-0.292567 0.376938 0)
(-0.373873 0.383049 0)
(-0.502087 0.344822 0)
(-0.0248191 0.226306 0)
(0.00794314 -0.0460448 0)
(-0.029025 -0.0862897 0)
(-0.00711531 0.152482 0)
(-0.0762359 0.220623 0)
(-0.013458 0.0750281 0)
(-0.0348879 0.168976 0)
(0.0368384 0.109844 0)
(-0.00907372 0.153694 0)
(0.0687072 0.154715 0)
(-0.0294113 0.189992 0)
(0.0185773 0.181894 0)
(-0.00338671 0.259174 0)
(-0.0708241 0.233009 0)
(-0.00758796 0.170897 0)
(-0.0201528 0.23768 0)
(-0.0460514 0.240619 0)
(-0.0951218 0.29742 0)
(-0.130277 0.295956 0)
(-0.19482 0.357477 0)
(-0.195514 0.388924 0)
(-0.313178 0.426583 0)
(-0.3909 0.354823 0)
(-0.00110753 0.204712 0)
(0.0494678 -0.0394481 0)
(-0.0273163 -0.0705256 0)
(-0.0734557 0.0896962 0)
(-0.0268699 0.119186 0)
(0.0361629 0.0706062 0)
(-0.0104339 0.0948049 0)
(0.0385105 0.0817108 0)
(0.0244554 0.151203 0)
(0.0240622 0.184356 0)
(-0.0254144 0.132807 0)
(0.0240621 0.245632 0)
(0.0141873 0.17983 0)
(0.0037201 0.175524 0)
(0.0279204 0.214025 0)
(-0.0194113 0.268129 0)
(-0.0433064 0.301921 0)
(-0.0709722 0.340309 0)
(-0.064413 0.348533 0)
(-0.162386 0.375863 0)
(-0.207241 0.420695 0)
(-0.258882 0.393476 0)
(-0.374251 0.465897 0)
(-0.0196664 0.199918 0)
(0.0332899 -0.0324295 0)
(-0.0321804 -0.0630245 0)
(-0.00165421 0.0778245 0)
(-0.0184564 0.129474 0)
(0.0281827 0.0793731 0)
(0.0049337 0.0434165 0)
(0.0243347 0.104924 0)
(0.0193417 0.127316 0)
(0.0477183 0.107066 0)
(0.00198586 0.155073 0)
(0.0156647 0.218434 0)
(-0.0176111 0.216491 0)
(-0.00634553 0.282975 0)
(0.0420222 0.187438 0)
(-0.032296 0.288632 0)
(-0.0131329 0.29996 0)
(-0.0395653 0.380063 0)
(-0.0773691 0.37909 0)
(-0.0976118 0.428845 0)
(-0.163668 0.391833 0)
(-0.187052 0.528689 0)
(-0.216572 0.539526 0)
(-0.0219436 0.194009 0)
(0.0309348 -0.0148667 0)
(-0.0294921 -0.0276365 0)
(0.00779438 0.104148 0)
(0.0191742 0.111334 0)
(0.025809 0.0708205 0)
(0.00328081 0.0668837 0)
(0.0464727 0.0948395 0)
(-0.00461359 0.140046 0)
(0.0612278 0.124395 0)
(0.0190252 0.193127 0)
(0.0304514 0.206871 0)
(0.0810547 0.233735 0)
(-0.0202774 0.31314 0)
(-0.00398795 0.317286 0)
(0.0410648 0.269873 0)
(0.0416322 0.309356 0)
(0.00283949 0.350845 0)
(-0.0238626 0.421425 0)
(-0.119387 0.578679 0)
(-0.0664771 0.55294 0)
(0.0143867 0.888573 0)
(-0.0812005 0.718087 0)
(-0.0271446 0.188046 0)
(0.0281703 -0.0243212 0)
(-0.0130367 -0.0213903 0)
(0.0249241 0.0562395 0)
(0.00128853 0.118967 0)
(0.0409529 0.0520424 0)
(0.0123727 0.0552086 0)
(0.0435904 0.0848411 0)
(0.0346893 0.11259 0)
(0.0589652 0.133621 0)
(0.0439079 0.153681 0)
(0.0623092 0.230854 0)
(0.101291 0.224384 0)
(0.117148 0.150382 0)
(0.00926181 0.32944 0)
(-0.00636112 0.321047 0)
(0.0599899 0.378622 0)
(0.0323311 0.481909 0)
(0.146717 0.451506 0)
(0.0474 0.46512 0)
(0.185062 0.679671 0)
(0.0817464 0.767138 0)
(-0.17843 0.807329 0)
(-0.0191366 0.202463 0)
(0.0344251 -0.0150417 0)
(-0.0279981 -0.0300574 0)
(0.0118606 0.0678391 0)
(0.0173213 0.117531 0)
(0.0350644 0.0648505 0)
(0.0309347 0.0544791 0)
(0.0618755 0.130063 0)
(0.0545292 0.0812336 0)
(0.0890799 0.17047 0)
(0.151713 0.120502 0)
(0.130326 0.233365 0)
(0.00557606 0.207958 0)
(0.127146 0.218928 0)
(0.171698 0.249529 0)
(0.103332 0.370221 0)
(0.155951 0.352807 0)
(0.0770094 0.522527 0)
(0.0496404 0.472648 0)
(0.15418 0.533774 0)
(0.178506 0.628972 0)
(0.116677 0.532938 0)
(-0.0118811 0.785095 0)
(-0.042567 0.160777 0)
(0.038286 -0.0110528 0)
(-0.0152025 -0.0139217 0)
(0.0429482 0.0252488 0)
(0.0276391 0.0663671 0)
(0.0453945 0.0607811 0)
(0.0519391 0.0583721 0)
(0.0332721 0.101406 0)
(0.0855198 0.0879642 0)
(0.0646783 0.159364 0)
(0.0980214 0.120321 0)
(0.134502 0.139286 0)
(0.0947644 0.154237 0)
(0.161881 0.256499 0)
(0.187883 0.188357 0)
(0.11542 0.262439 0)
(0.184718 0.296285 0)
(0.177389 0.344236 0)
(0.175278 0.409215 0)
(0.2941 0.885834 0)
(0.0632881 0.851242 0)
(0.128912 0.790701 0)
(0.169946 0.776329 0)
(-0.0398979 0.225569 0)
(0.0946588 0.00400215 0)
(0.00381068 -0.00937834 0)
(0.00195813 0.0300204 0)
(0.041658 0.11031 0)
(0.0709357 0.0663707 0)
(0.0477269 0.0326885 0)
(0.0427896 0.0975996 0)
(0.06103 0.113371 0)
(0.0619197 0.108191 0)
(0.111512 0.148703 0)
(0.124277 0.124445 0)
(0.168752 0.156792 0)
(0.18547 0.226555 0)
(0.204184 0.215172 0)
(0.177584 0.385677 0)
(0.209917 0.396203 0)
(0.17819 0.535545 0)
(0.461776 0.547509 0)
(0.550599 0.734899 0)
(0.355559 0.782068 0)
(0.152056 0.879939 0)
(0.267726 1.00655 0)
(-0.034891 0.353592 0)
(0.0574203 -0.0244606 0)
(-0.0001168 0.00329035 0)
(0.0608517 0.0270472 0)
(0.0849598 0.0737247 0)
(0.0519382 0.0406061 0)
(0.0815777 0.0547609 0)
(0.0592473 0.0761256 0)
(0.086956 0.0680081 0)
(0.107991 0.136371 0)
(0.122147 0.162739 0)
(0.14988 0.112122 0)
(0.206706 0.185409 0)
(0.207836 0.187149 0)
(0.363494 0.320998 0)
(0.293987 0.354151 0)
(0.313644 0.374034 0)
(0.376262 0.532867 0)
(0.327122 0.628703 0)
(0.376202 0.441242 0)
(0.386789 0.543052 0)
(0.406582 0.664361 0)
(0.466651 0.955602 0)
(0.0326036 0.203749 0)
(0.0681743 -0.00663175 0)
(0.0316746 0.0136034 0)
(0.0224852 0.00601984 0)
(0.0614209 0.0262295 0)
(0.0526401 0.0429741 0)
(0.0772677 0.0436741 0)
(0.056498 0.0454231 0)
(0.118624 0.0929843 0)
(0.174551 0.0597408 0)
(0.103081 0.124634 0)
(0.173806 0.0810421 0)
(0.288575 0.196539 0)
(0.374752 0.216613 0)
(0.379144 0.349318 0)
(0.321569 0.238473 0)
(0.420568 0.465739 0)
(0.442831 0.402205 0)
(0.339732 0.523806 0)
(0.435608 0.541548 0)
(0.52398 0.682909 0)
(0.517001 0.755416 0)
(0.594645 0.728068 0)
(0.0107908 0.059205 0)
(0.0800807 0.00535706 0)
(0.0696364 -0.0263533 0)
(0.0436597 -0.0256315 0)
(0.069002 -0.00141325 0)
(0.0732879 0.0408807 0)
(0.0914823 0.0419143 0)
(0.108061 0.0230329 0)
(0.117861 0.0920486 0)
(0.178661 0.000555699 0)
(0.130361 0.137043 0)
(0.177784 0.175967 0)
(0.387164 0.0986116 0)
(0.439645 0.2337 0)
(0.386726 0.174262 0)
(0.386738 0.198959 0)
(0.400686 0.304985 0)
(0.473708 0.328037 0)
(0.477229 0.488231 0)
(0.559231 0.598343 0)
(0.491095 0.620899 0)
(0.475006 0.591291 0)
(0.672436 0.625698 0)
(0.010951 0.0607241 0)
(0.041564 0.0226127 0)
(0.0304399 -0.0345912 0)
(0.0563043 -0.00785023 0)
(0.12002 -0.0136778 0)
(0.0822018 -0.00863882 0)
(0.0665147 0.00614792 0)
(0.121512 0.0199915 0)
(0.0846418 0.0359813 0)
(0.204192 0.0403476 0)
(0.264783 0.0607944 0)
(0.177096 0.120154 0)
(0.35205 0.132374 0)
(0.395658 0.0694444 0)
(0.327307 0.0484764 0)
(0.377914 0.128605 0)
(0.450991 0.142844 0)
(0.534777 0.372141 0)
(0.528206 0.39614 0)
(0.497867 0.37656 0)
(0.460452 0.412128 0)
(0.491894 0.572758 0)
(0.872756 0.689957 0)
(0.0109946 -0.00804886 0)
(0.0420372 -0.0412676 0)
(0.0528235 -0.0603557 0)
(0.0667151 -0.0441981 0)
(0.081601 -0.0192542 0)
(0.0997909 -0.0562945 0)
(0.112312 -0.0330389 0)
(0.141534 -0.0126979 0)
(0.156715 -0.0284696 0)
(0.198171 0.0310871 0)
(0.227601 -0.0734756 0)
(0.253289 -0.0307915 0)
(0.341101 0.140856 0)
(0.387065 -0.0193173 0)
(0.435209 0.0208044 0)
(0.455835 -0.00172013 0)
(0.648287 0.0975206 0)
(0.657835 0.482441 0)
(0.450528 0.484002 0)
(0.509225 0.494746 0)
(0.611196 0.481207 0)
(0.584661 0.616798 0)
(0.640819 0.763189 0)
(0.0127861 -0.0258456 0)
(0.0185597 -0.0607118 0)
(0.0413606 -0.0769742 0)
(0.108048 -0.0661218 0)
(0.0887207 -0.0792885 0)
(0.0737201 -0.0699908 0)
(0.105915 -0.072216 0)
(0.115619 -0.0694648 0)
(0.150098 -0.065398 0)
(0.146478 -0.0430321 0)
(0.230271 -0.0644157 0)
(0.442003 -0.0205386 0)
(0.315942 -0.0520777 0)
(0.294069 -0.0541758 0)
(0.326118 -0.025505 0)
(0.503269 0.00472511 0)
(0.936616 0.280489 0)
(0.867235 0.320519 0)
(0.627766 0.4161 0)
(0.575568 0.569993 0)
(0.672822 0.541431 0)
(0.707531 0.555305 0)
(0.752478 0.562902 0)
(0.00946494 -0.0707258 0)
(0.0315897 -0.102462 0)
(0.0463334 -0.0918997 0)
(0.0643164 -0.0986145 0)
(0.0842436 -0.132866 0)
(0.101248 -0.112511 0)
(0.12189 -0.112811 0)
(0.149337 -0.110437 0)
(0.169404 -0.0933312 0)
(0.208546 -0.103569 0)
(0.243639 -0.0564724 0)
(0.275312 -0.0824267 0)
(0.328984 -0.177453 0)
(0.351324 -0.13469 0)
(0.436683 -0.141649 0)
(0.51979 -0.0937259 0)
(0.718848 0.0197682 0)
(0.89206 0.0899262 0)
(0.817629 0.39847 0)
(0.807358 0.488805 0)
(0.875471 0.694411 0)
(0.808833 0.648949 0)
(0.908145 0.622288 0)
(0.00999352 -0.106331 0)
(0.0255449 -0.133168 0)
(0.0409958 -0.1397 0)
(0.0647176 -0.143847 0)
(0.0769082 -0.146662 0)
(0.0909822 -0.150453 0)
(0.112092 -0.15979 0)
(0.131165 -0.164606 0)
(0.155633 -0.173126 0)
(0.186391 -0.175246 0)
(0.213519 -0.189165 0)
(0.271379 -0.18276 0)
(0.301592 -0.209732 0)
(0.328274 -0.194211 0)
(0.364684 -0.213017 0)
(0.541745 -0.1463 0)
(0.93415 -0.200574 0)
(1.38887 0.135943 0)
(1.30315 0.314189 0)
(1.05229 0.593884 0)
(1.09084 0.614086 0)
(1.02404 0.725479 0)
(1.11751 0.755799 0)
(0.00885074 -0.144546 0)
(0.0254812 -0.16842 0)
(0.0405796 -0.171226 0)
(0.0569377 -0.175484 0)
(0.0714124 -0.185462 0)
(0.0919612 -0.190032 0)
(0.106612 -0.194546 0)
(0.132292 -0.20463 0)
(0.149405 -0.208203 0)
(0.182307 -0.224207 0)
(0.20832 -0.234609 0)
(0.245033 -0.256913 0)
(0.299702 -0.281157 0)
(0.347188 -0.268415 0)
(0.454857 -0.335837 0)
(0.630966 -0.222024 0)
(0.961966 -0.403031 0)
(1.07473 -0.201708 0)
(1.28204 -0.0625166 0)
(1.14761 0.438504 0)
(1.15831 0.525769 0)
(1.18442 0.676733 0)
(1.25169 0.845012 0)
(0.00778619 -0.173315 0)
(0.0217518 -0.195473 0)
(0.0342851 -0.200299 0)
(0.0496116 -0.205709 0)
(0.0626338 -0.212633 0)
(0.0781343 -0.222147 0)
(0.0932036 -0.234984 0)
(0.114039 -0.251018 0)
(0.130993 -0.267462 0)
(0.162099 -0.29249 0)
(0.180988 -0.311056 0)
(0.231407 -0.362174 0)
(0.266946 -0.403006 0)
(0.318919 -0.486339 0)
(0.420237 -0.46472 0)
(0.508361 -0.483969 0)
(0.919889 -0.5323 0)
(1.38511 -0.211259 0)
(1.84761 -0.00693253 0)
(1.77647 0.254724 0)
(1.39092 0.492902 0)
(1.39165 0.684518 0)
(1.21024 0.985969 0)
(0.00692111 -0.206714 0)
(0.0194558 -0.224778 0)
(0.0300514 -0.229682 0)
(0.0427507 -0.235899 0)
(0.0535072 -0.245257 0)
(0.0685499 -0.255242 0)
(0.078457 -0.269477 0)
(0.0987952 -0.284744 0)
(0.10413 -0.307367 0)
(0.139571 -0.32781 0)
(0.136325 -0.369026 0)
(0.193704 -0.428714 0)
(0.175306 -0.44867 0)
(0.262933 -0.492417 0)
(0.436183 -0.529985 0)
(0.588525 -0.601912 0)
(0.992845 -0.504797 0)
(1.08102 -0.532113 0)
(1.08449 -0.36797 0)
(1.17853 -0.0984409 0)
(1.26949 0.376717 0)
(1.61135 0.901353 0)
(1.38637 0.94646 0)
(0.00540447 -0.221656 0)
(0.0149706 -0.237278 0)
(0.0231829 -0.242273 0)
(0.0326462 -0.248667 0)
(0.041096 -0.258884 0)
(0.0503355 -0.269032 0)
(0.0592413 -0.28845 0)
(0.0696419 -0.30018 0)
(0.0760216 -0.339168 0)
(0.0962046 -0.350849 0)
(0.0846381 -0.411123 0)
(0.149832 -0.41238 0)
(0.19185 -0.477584 0)
(0.241042 -0.458073 0)
(0.221067 -0.605073 0)
(0.390613 -0.719216 0)
(0.366072 -0.989587 0)
(0.468262 -0.94433 0)
(0.78173 -0.601295 0)
(0.800134 0.00594277 0)
(1.00221 0.720709 0)
(1.3668 0.967565 0)
(1.19438 0.815537 0)
(0.00473302 -0.253722 0)
(0.0127401 -0.266303 0)
(0.0197023 -0.271093 0)
(0.0273691 -0.277148 0)
(0.034848 -0.286517 0)
(0.0413804 -0.296459 0)
(0.0504748 -0.312104 0)
(0.0524699 -0.325307 0)
(0.0666721 -0.353367 0)
(0.0542875 -0.369523 0)
(0.0796739 -0.418683 0)
(0.136853 -0.401456 0)
(0.092944 -0.499545 0)
(0.120091 -0.54375 0)
(0.119428 -0.578697 0)
(-0.0466439 -0.704406 0)
(-0.0642603 -1.0523 0)
(0.0323776 -0.938494 0)
(0.0975142 -0.597087 0)
(0.274621 -0.200733 0)
(0.676268 0.8331 0)