/*--------------------------------*- C++ -*----------------------------------*\
| =========                 |                                                 |
| \\      /  F ield         | foam-extend: Open Source CFD                    |
|  \\    /   O peration     | Version:     4.1                                |
|   \\  /    A nd           | Web:         http://www.foam-extend.org         |
|    \\/     M anipulation  |                                                 |
\*---------------------------------------------------------------------------*/
FoamFile
{
    version     2.0;
    format      ascii;
    class       volVectorField;
    location    "0.55";
    object      U_0;
}
// * * * * * * * * * * * * * * * * * * * * * * * * * * * * * * * * * * * * * //

dimensions      [0 1 -1 0 0 0 0];

internalField   nonuniform List<vector> 
2268
(
(0.0416281 -0.00557292 0)
(0.0468383 -0.00244128 0)
(0.0826493 -0.00503414 0)
(0.134546 -0.00509918 0)
(0.153491 -0.000702725 0)
(0.192446 -0.00289616 0)
(0.184742 0.000901875 0)
(0.190046 0.00310851 0)
(0.161862 0.00613946 0)
(0.15315 -0.0101622 0)
(0.125486 -0.0125815 0)
(0.108422 -0.0016501 0)
(0.129557 0.000747348 0)
(0.127098 0.000988521 0)
(0.130654 0.00150735 0)
(0.129173 0.000725968 0)
(0.128008 0.00223721 0)
(0.125502 0.00292714 0)
(0.119187 0.000565428 0)
(0.109472 0.00515243 0)
(0.0868205 0.0104285 0)
(0.0545377 0.00566679 0)
(0.0246124 0.0110148 0)
(0.0388485 -0.0152347 0)
(0.0473133 -0.00729494 0)
(0.0908222 -0.0155119 0)
(0.135722 -0.0115018 0)
(0.154504 -0.013411 0)
(0.194133 -0.00401441 0)
(0.188269 -0.000689959 0)
(0.195205 0.00261186 0)
(0.163001 0.00353908 0)
(0.169843 0.0260319 0)
(0.117142 -0.0338673 0)
(0.0926581 -0.000884772 0)
(0.11048 -0.00810802 0)
(0.105051 -0.002072 0)
(0.110177 -0.00323922 0)
(0.111197 -8.77985e-05 0)
(0.112267 0.000210276 0)
(0.112666 0.00569874 0)
(0.11084 0.00674963 0)
(0.103188 0.010008 0)
(0.0830462 0.0157085 0)
(0.0524823 0.0239771 0)
(0.00863878 0.026319 0)
(0.0316278 -0.0258434 0)
(0.0450856 -0.0148252 0)
(0.100485 -0.0257555 0)
(0.13164 -0.0199841 0)
(0.152227 -0.0148138 0)
(0.195209 -0.0107019 0)
(0.188045 0.000759935 0)
(0.196641 0.00960672 0)
(0.179412 0.0117504 0)
(0.161318 -0.0081381 0)
(0.114076 -0.0379372 0)
(0.102002 -0.0038804 0)
(0.0996196 -0.0125753 0)
(0.0914873 -0.0017875 0)
(0.0909037 -0.00389943 0)
(0.090896 -0.000642511 0)
(0.0925707 -0.000116936 0)
(0.095215 0.0043945 0)
(0.0965148 0.0176161 0)
(0.0927796 0.0190336 0)
(0.0812371 0.0329956 0)
(0.0561535 0.0411647 0)
(0.0209305 0.0397817 0)
(0.0235298 -0.033208 0)
(0.0439363 -0.0236262 0)
(0.108448 -0.0357018 0)
(0.128193 -0.0237356 0)
(0.162681 -0.0288902 0)
(0.199736 -0.0116127 0)
(0.192276 -0.00214883 0)
(0.197345 0.00486263 0)
(0.155227 0.0139649 0)
(0.104652 -0.0221337 0)
(0.0969121 -0.0108874 0)
(0.051786 0.0132017 0)
(0.0440439 0.00651827 0)
(0.0274041 0.00674949 0)
(0.0206657 -0.00103796 0)
(0.0233979 -0.000625256 0)
(0.0287886 -0.00204732 0)
(0.0378284 0.00219094 0)
(0.0423512 0.00821011 0)
(0.0578494 0.0171636 0)
(0.0643225 0.0336156 0)
(0.056483 0.0530349 0)
(0.0145652 0.0615714 0)
(0.0190158 -0.0417769 0)
(0.0462259 -0.0351152 0)
(0.112108 -0.045437 0)
(0.131628 -0.0326538 0)
(0.172647 -0.0324463 0)
(0.192932 -0.0179415 0)
(0.18144 0.00230715 0)
(0.195457 0.0183773 0)
(0.119103 -0.0288101 0)
(0.0860793 0.0163205 0)
(0.0589892 -0.00680203 0)
(0.0258264 0.0152454 0)
(0.0167536 0.0069248 0)
(0.00379432 0.00571455 0)
(0.000919241 -0.000888379 0)
(-0.0153205 -0.00434622 0)
(-0.0147133 -0.0068647 0)
(-0.010115 -0.00534438 0)
(-0.0146158 -0.000231103 0)
(0.00727327 0.00890951 0)
(0.0212784 0.0324915 0)
(0.0377588 0.064979 0)
(0.0205306 0.0744805 0)
(0.0226012 -0.0482513 0)
(0.0553595 -0.0456866 0)
(0.11917 -0.0553377 0)
(0.134606 -0.0386067 0)
(0.169538 -0.0436058 0)
(0.192551 -0.0121034 0)
(0.195905 -0.0053515 0)
(0.158641 0.0218394 0)
(0.0842588 -0.00626104 0)
(0.0712918 0.0211354 0)
(0.0403294 0.0160918 0)
(-0.00627809 0.0314804 0)
(-0.0125942 0.027919 0)
(-0.0289329 0.0143278 0)
(-0.0336778 0.0070457 0)
(-0.0348798 0.00679198 0)
(-0.0386405 -0.00727828 0)
(-0.0361885 0.000479651 0)
(-0.0375588 -0.00768418 0)
(-0.0218301 0.000308906 0)
(-0.0241806 0.0196847 0)
(0.0158658 0.0541545 0)
(0.0142673 0.0858589 0)
(0.0301826 -0.060322 0)
(0.0621288 -0.0583686 0)
(0.117962 -0.0637881 0)
(0.129289 -0.0449098 0)
(0.175177 -0.0459936 0)
(0.19575 -0.0251742 0)
(0.178424 0.016762 0)
(0.135276 -0.0153706 0)
(0.0702829 0.00992136 0)
(0.0492529 0.0632417 0)
(0.0193241 0.0311599 0)
(-0.0240637 0.0401711 0)
(-0.0264627 0.0304903 0)
(-0.0388104 0.0161579 0)
(-0.0371026 0.00257987 0)
(-0.0518546 -0.000681896 0)
(-0.0465328 -0.015354 0)
(-0.0423911 -0.00350307 0)
(-0.042711 -0.0127978 0)
(-0.0306099 0.00322937 0)
(-0.0389643 0.0128966 0)
(-0.00108241 0.0481073 0)
(0.0108669 0.0931437 0)
(0.0358457 -0.0694173 0)
(0.0626393 -0.0663986 0)
(0.120852 -0.0703103 0)
(0.133296 -0.0526837 0)
(0.180123 -0.0607123 0)
(0.204187 -0.0109174 0)
(0.16333 0.00526408 0)
(0.108269 0.00284402 0)
(0.0931702 0.0343866 0)
(0.0380875 0.0618936 0)
(-0.00763023 0.0504783 0)
(-0.0358982 0.0496897 0)
(-0.0380627 0.0447605 0)
(-0.0523889 0.0180924 0)
(-0.0506938 0.0113491 0)
(-0.0526023 0.0111606 0)
(-0.0444499 -0.0167525 0)
(-0.0367295 -0.00378231 0)
(-0.0318548 -0.0205218 0)
(-0.0287291 -0.00136732 0)
(-0.0356753 0.00535732 0)
(-0.0083051 0.0336545 0)
(0.0109769 0.0845705 0)
(-0.672387 0.184244 0)
(-1.43621 0.122768 0)
(-1.76578 -0.0129943 0)
(-1.86086 -0.0225147 0)
(-1.86257 -0.0158702 0)
(-1.78925 -0.0432203 0)
(-1.72164 -0.0550242 0)
(-1.68051 -0.0523175 0)
(-1.6439 -0.0590478 0)
(-1.6107 -0.0437849 0)
(-1.58834 -0.0476799 0)
(-1.51268 -0.0613275 0)
(-1.46884 -0.0484439 0)
(-1.43698 -0.0290126 0)
(-1.42034 -0.205707 0)
(-1.3124 -0.016957 0)
(-0.506311 -0.167603 0)
(-0.169642 -0.281423 0)
(0.0524239 -0.068631 0)
(-0.724822 0.63991 0)
(-1.24836 0.342612 0)
(-1.53775 0.238343 0)
(-1.6391 0.103553 0)
(-1.6689 0.0980599 0)
(-1.59574 0.044282 0)
(-1.49138 -0.00566275 0)
(-1.44942 -0.0109281 0)
(-1.43054 0.00670736 0)
(-1.40085 0.0165586 0)
(-1.38029 -0.00632767 0)
(-1.30396 -0.0473352 0)
(-1.24497 -0.0245973 0)
(-1.28955 -0.0831986 0)
(-1.25633 -0.295781 0)
(-1.08955 -0.175264 0)
(-0.75688 -0.076798 0)
(-0.200505 -0.1589 0)
(0.0339661 -0.0287391 0)
(-0.80861 0.939442 0)
(-0.976872 0.384994 0)
(-1.17669 -0.0102314 0)
(-1.21249 -0.142804 0)
(-1.2959 0.204208 0)
(-0.923936 -0.0866356 0)
(-0.164675 -0.174752 0)
(-1.04548 -0.0057627 0)
(-1.25797 -0.0576852 0)
(-1.30152 -0.143393 0)
(-1.35795 -0.198609 0)
(-1.28486 -0.13266 0)
(-1.16511 -0.246802 0)
(-1.25963 -0.41024 0)
(-1.13545 -0.310992 0)
(-0.848158 -0.475163 0)
(-0.541808 -0.21942 0)
(-0.235887 -0.230452 0)
(-0.0503034 -0.0814386 0)
(-0.694971 1.26132 0)
(-0.32005 0.503663 0)
(-0.117261 0.0107054 0)
(-0.338105 0.13417 0)
(-0.6415 0.294138 0)
(0.366552 -0.312292 0)
(0.490498 -0.391498 0)
(0.810022 0.289065 0)
(-0.182445 0.506424 0)
(-0.733908 -0.0606882 0)
(-1.0547 -0.18137 0)
(-1.18451 0.265282 0)
(-1.08896 -0.194909 0)
(-1.25439 -0.443994 0)
(-1.17251 -0.251714 0)
(-0.808461 -0.456986 0)
(-0.524438 -0.368163 0)
(-0.29577 -0.343828 0)
(-0.126243 -0.141163 0)
(-0.514297 1.43042 0)
(0.313001 0.344632 0)
(0.531032 -0.0473076 0)
(0.487184 0.126011 0)
(0.76104 -0.0242413 0)
(0.855148 -0.322435 0)
(0.748144 -0.357146 0)
(1.06452 -0.0149378 0)
(2.2529 0.821784 0)
(2.78911 0.121537 0)
(1.47643 -0.0742779 0)
(-0.244986 0.230054 0)
(-0.641473 -0.436187 0)
(-1.20138 -0.370457 0)
(-0.987097 -0.171113 0)
(-0.73817 -0.289864 0)
(-0.542607 -0.465122 0)
(-0.350858 -0.390181 0)
(-0.145385 -0.269965 0)
(-0.352001 1.48059 0)
(0.686062 0.331201 0)
(0.860638 -0.206254 0)
(0.881182 0.0204705 0)
(1.02382 -0.0682291 0)
(1.01905 -0.213888 0)
(0.844798 -0.289304 0)
(1.24442 -0.176258 0)
(2.45059 0.158877 0)
(2.88387 0.291205 0)
(3.39999 0.637644 0)
(2.73154 1.00632 0)
(2.98319 0.035765 0)
(-1.21721 -0.291061 0)
(-0.972815 -0.124068 0)
(-0.653713 -0.360939 0)
(-0.470902 -0.520327 0)
(-0.401776 -0.53654 0)
(-0.198975 -0.340977 0)
(-0.0572761 1.5344 0)
(1.33067 0.258986 0)
(0.880244 -0.318862 0)
(0.890975 -0.216169 0)
(1.01876 -0.260829 0)
(0.994097 -0.269217 0)
(0.885564 -0.284854 0)
(1.16824 -0.414576 0)
(1.63776 -0.251004 0)
(1.60751 -0.192632 0)
(1.90867 0.143009 0)
(2.50704 0.810051 0)
(4.42012 1.21177 0)
(-0.641285 0.558409 0)
(-1.51822 0.151964 0)
(-0.67835 -0.432249 0)
(-0.387396 -0.59418 0)
(-0.374503 -0.622174 0)
(-0.223959 -0.400258 0)
(0.555093 0.881651 0)
(1.33565 0.215868 0)
(0.872279 0.156375 0)
(0.745517 -0.207769 0)
(0.693587 -0.364588 0)
(0.696462 -0.338911 0)
(0.733973 -0.243041 0)
(0.9049 -0.248381 0)
(0.982843 -0.387907 0)
(1.17133 -0.321278 0)
(1.46304 -0.197796 0)
(1.66408 0.194898 0)
(2.50207 0.971411 0)
(1.41751 1.8893 0)
(-0.436182 0.171199 0)
(-0.638324 -0.443553 0)
(-0.302155 -0.653865 0)
(-0.342964 -0.706459 0)
(-0.230097 -0.46034 0)
(0.0346743 -0.0918768 0)
(0.0623626 -0.0865841 0)
(0.122654 -0.0860745 0)
(0.124469 -0.0644138 0)
(0.191681 -0.0643788 0)
(0.177703 -0.0328429 0)
(0.137183 -0.0394871 0)
(0.127175 0.0127799 0)
(0.0617982 0.0486528 0)
(0.0219838 0.0548726 0)
(-0.00767958 0.0710741 0)
(-0.0294219 0.0634731 0)
(-0.0434739 0.0514003 0)
(-0.0643585 0.0257582 0)
(-0.039727 0.0244886 0)
(-0.0625863 0.00598028 0)
(-0.0525911 -0.00848699 0)
(-0.0337711 -0.0043984 0)
(-0.0240812 -0.019523 0)
(-0.0186811 0.00946478 0)
(-0.0169057 0.000324462 0)
(-8.90935e-05 0.0264436 0)
(-0.00046419 0.110605 0)
(0.0368127 -0.108905 0)
(0.0488749 -0.104391 0)
(0.136603 -0.0946272 0)
(0.134293 -0.0860908 0)
(0.114249 -0.0883551 0)
(0.118998 -0.121028 0)
(0.0993786 0.0621585 0)
(0.0670633 0.0776174 0)
(-3.56554e-06 0.131793 0)
(-0.0302704 0.121249 0)
(-0.0546336 0.0961606 0)
(-0.0546904 0.0756476 0)
(-0.055735 0.0322698 0)
(-0.0406152 0.0116384 0)
(-0.0377305 -0.0091732 0)
(-0.0424842 -0.0313038 0)
(-0.0112021 -0.00759621 0)
(-0.0190955 -0.0269392 0)
(-0.0100909 -0.0255368 0)
(0.0086178 -0.0231477 0)
(0.0569762 -0.00535705 0)
(0.0553763 0.0281487 0)
(0.044932 0.0854773 0)
(-0.0158889 -0.131437 0)
(-0.0235426 -0.135414 0)
(-0.0791188 -0.126106 0)
(-0.0778921 -0.169995 0)
(-0.0134989 -0.0630847 0)
(-0.102811 -0.00992324 0)
(-0.101929 0.0602552 0)
(-0.184503 0.133696 0)
(-0.168912 0.161701 0)
(-0.181688 0.123374 0)
(-0.196594 0.098525 0)
(-0.153618 0.0681254 0)
(-0.132375 0.038243 0)
(-0.090098 0.00853892 0)
(-0.0559453 -0.0154733 0)
(-0.0267203 -0.00787828 0)
(0.00121588 -0.0121552 0)
(0.00716679 -0.0287147 0)
(0.0189888 -0.0294972 0)
(0.0178083 -0.0243718 0)
(0.0153225 -0.0207236 0)
(0.0168932 -0.0135097 0)
(0.0215371 0.00629178 0)
(-0.0384067 -0.0746336 0)
(-0.0601855 -0.0632243 0)
(-0.12235 -0.11418 0)
(-0.140428 -0.100224 0)
(-0.101694 -0.101401 0)
(-0.161772 -0.0585033 0)
(-0.165491 0.136752 0)
(-0.182718 0.302173 0)
(-0.240663 0.326128 0)
(-0.496071 0.137049 0)
(-0.476997 0.0701822 0)
(-0.416054 0.00485088 0)
(-0.249901 -0.0315154 0)
(-0.154634 -0.0669266 0)
(-0.133078 -0.0777625 0)
(-0.121472 -0.0909911 0)
(-0.130448 -0.0427724 0)
(-0.113485 -0.018108 0)
(-0.0419306 -0.0402591 0)
(-0.0289851 -0.0207867 0)
(0.00943366 -0.00387138 0)
(0.0408166 0.0117105 0)
(0.0607255 0.0300421 0)
(-0.0407503 -0.0203121 0)
(-0.0801703 -0.0616905 0)
(-0.0998183 -0.133464 0)
(-0.090106 -0.0786901 0)
(-0.115078 -0.0276827 0)
(-0.172327 0.0410205 0)
(-0.243828 0.100156 0)
(-0.222884 0.194191 0)
(-0.10938 0.248852 0)
(-0.242796 0.126831 0)
(-0.302395 0.13778 0)
(-0.270805 -0.031426 0)
(-0.288699 0.0908968 0)
(-0.223314 -0.105722 0)
(-0.192908 -0.165846 0)
(-0.311507 -0.111062 0)
(-0.272673 -0.0124496 0)
(-0.196596 -0.0340773 0)
(-0.320589 -0.235846 0)
(-0.197498 -0.145997 0)
(-0.237417 -0.0923596 0)
(-0.184046 -0.0604109 0)
(-0.0874641 -0.0272259 0)
(-0.0142411 0.0402892 0)
(-0.044645 -0.0150473 0)
(-0.0719712 -0.105939 0)
(-0.0436519 -0.0906978 0)
(-0.0863296 -0.017091 0)
(-0.140383 0.0540126 0)
(-0.182486 0.107605 0)
(-0.204689 0.143258 0)
(-0.1145 0.250938 0)
(-0.0454385 0.180903 0)
(-0.109327 0.140459 0)
(-0.167227 -0.0820493 0)
(-0.161603 -0.27913 0)
(-0.169974 0.00173413 0)
(-0.221948 -0.182176 0)
(-0.264903 -0.135202 0)
(-0.266777 0.104858 0)
(-0.192763 0.0294609 0)
(-0.40343 -0.10036 0)
(-0.43854 0.127878 0)
(-0.277462 -0.160032 0)
(-0.234692 0.0294738 0)
(-0.264163 -0.119167 0)
(-0.0220416 0.0459776 0)
(-0.0321275 -0.00302417 0)
(-0.0379804 -0.116355 0)
(-0.0159522 -0.0816607 0)
(-0.0632019 -0.0222205 0)
(-0.0759365 0.0842807 0)
(-0.14722 0.126591 0)
(-0.141725 0.161904 0)
(-0.0879921 0.176779 0)
(-0.0901478 0.179324 0)
(-0.0560581 0.185554 0)
(0.00821402 0.0584335 0)
(-0.128785 -0.0744203 0)
(-0.121505 -0.0503029 0)
(-0.170103 -0.0616712 0)
(-0.174197 0.0486704 0)
(-0.225829 0.0452917 0)
(-0.170397 0.00895255 0)
(-0.262646 -0.316174 0)
(-0.339074 -0.194545 0)
(-0.30879 -0.100599 0)
(-0.299904 -0.0571684 0)
(-0.209939 -0.037215 0)
(-0.022473 0.0636604 0)
(-0.0293122 0.0238877 0)
(-0.0325514 -0.124812 0)
(0.00835207 -0.103826 0)
(-0.0235476 0.0102722 0)
(-0.0647306 0.0915477 0)
(-0.0865559 0.151547 0)
(-0.151682 0.209473 0)
(-0.10287 0.202263 0)
(0.0045433 0.159762 0)
(-0.0367094 0.202302 0)
(-0.117458 0.0266413 0)
(-0.119858 0.00124907 0)
(-0.145124 -0.044551 0)
(-0.190084 -0.0544758 0)
(-0.20333 0.0124388 0)
(-0.195975 0.0500884 0)
(-0.167379 0.0583602 0)
(-0.199132 -0.041589 0)
(-0.248044 0.0225985 0)
(-0.269629 -0.160963 0)
(-0.25554 -0.206267 0)
(-0.238142 -0.185574 0)
(-0.0170345 0.074515 0)
(-0.0332838 0.033976 0)
(-0.0179824 -0.14854 0)
(0.0203289 -0.0993528 0)
(-0.0229411 0.0218851 0)
(-0.0556619 0.118692 0)
(-0.0385877 0.167316 0)
(-0.0839603 0.192324 0)
(-0.0711859 0.284446 0)
(-0.0551554 0.145583 0)
(-0.0453391 0.130974 0)
(-0.0498332 0.046134 0)
(-0.109794 0.044004 0)
(-0.183494 0.00631668 0)
(-0.179482 0.023371 0)
(-0.167867 0.021638 0)
(-0.20528 0.0526311 0)
(-0.22299 -0.0376454 0)
(-0.194455 -0.0483589 0)
(-0.316307 -0.0751482 0)
(-0.400258 -0.0790941 0)
(-0.238633 -0.113422 0)
(-0.23391 -0.147851 0)
(-0.00761573 0.088195 0)
(-0.0286607 0.0479406 0)
(-0.0036068 -0.179303 0)
(0.0231873 -0.103963 0)
(-0.00601126 0.0489079 0)
(-0.0610401 0.137221 0)
(-0.0454324 0.180802 0)
(-0.0271363 0.162092 0)
(-0.0970376 0.20489 0)
(-0.0831089 0.203747 0)
(-0.0390598 0.16171 0)
(-0.0735865 0.122895 0)
(-0.0607714 0.0618372 0)
(-0.109681 0.0431623 0)
(-0.171257 0.0789409 0)
(-0.14144 0.0454174 0)
(-0.21849 0.0520478 0)
(-0.241336 0.0814015 0)
(-0.19289 0.0176182 0)
(-0.283993 -0.0594681 0)
(-0.342604 -0.0768288 0)
(-0.358844 -0.058108 0)
(-0.372057 -0.181096 0)
(-0.00198665 0.0927252 0)
(-0.0132941 0.0492369 0)
(0.00543515 -0.202477 0)
(0.0158932 -0.0956702 0)
(-0.0275339 0.0745969 0)
(-0.0814516 0.144267 0)
(-0.0607981 0.184135 0)
(-0.0479221 0.183319 0)
(-0.0220433 0.172202 0)
(-0.0432133 0.203285 0)
(-0.0678873 0.166998 0)
(-0.0752852 0.142137 0)
(-0.117479 0.0731227 0)
(-0.107984 0.0869147 0)
(-0.146193 0.0779468 0)
(-0.152001 0.0861132 0)
(-0.148731 0.0304957 0)
(-0.233851 0.0837092 0)
(-0.284524 0.0321994 0)
(-0.359412 0.010413 0)
(-0.30146 0.0370649 0)
(-0.240152 -0.0381461 0)
(-0.303112 -0.11974 0)
(-0.00376796 0.0962952 0)
(0.00787292 0.0453857 0)
(0.0156002 -0.205452 0)
(-0.00941307 -0.0791485 0)
(-0.0559593 0.0979325 0)
(-0.0817899 0.149273 0)
(-0.0494774 0.167016 0)
(-0.0618514 0.17279 0)
(-0.0670966 0.154427 0)
(-0.0337887 0.118148 0)
(-0.0490468 0.126515 0)
(-0.0878353 0.116825 0)
(-0.0651256 0.119939 0)
(-0.0398165 0.0625513 0)
(-0.119544 0.076374 0)
(-0.150767 0.108455 0)
(-0.187173 0.0881986 0)
(-0.204911 0.0729965 0)
(-0.216747 0.0789406 0)
(-0.211749 -0.00318599 0)
(-0.292777 0.0675844 0)
(-0.420261 -0.0446626 0)
(-0.387748 -0.127957 0)
(-0.00781128 0.0896088 0)
(0.0070681 0.0407993 0)
(-0.000329554 -0.194487 0)
(-0.0385068 -0.0180075 0)
(-0.0745718 0.148378 0)
(-0.0847776 0.146788 0)
(-0.0678121 0.16084 0)
(-0.0929035 0.160599 0)
(-0.054967 0.219438 0)
(-0.0269306 0.161372 0)
(-0.0486615 0.1694 0)
(0.00451703 0.143912 0)
(-0.0698399 0.156346 0)
(-0.0850053 0.129081 0)
(-0.0985346 0.176527 0)
(-0.111101 0.162501 0)
(-0.119584 0.100238 0)
(-0.158455 0.0792579 0)
(-0.272534 0.0473619 0)
(-0.284418 0.0878677 0)
(-0.248508 0.00182307 0)
(-0.331599 -0.0309877 0)
(-0.26399 -0.0448232 0)
(-0.0163888 0.0969176 0)
(0.00520782 0.0417389 0)
(-0.00455024 -0.178171 0)
(-0.0277598 0.00997715 0)
(-0.0756354 0.138221 0)
(-0.0783109 0.141792 0)
(-0.0500001 0.160356 0)
(-0.031021 0.164247 0)
(-0.0604394 0.21556 0)
(-0.0656195 0.158066 0)
(-0.0252371 0.26234 0)
(0.00546722 0.155099 0)
(-0.00277301 0.107677 0)
(0.0296712 0.239033 0)
(-0.0363551 0.224147 0)
(-0.133302 0.189844 0)
(-0.127711 0.150301 0)
(-0.159745 0.12212 0)
(-0.150993 0.0829752 0)
(-0.212141 0.116516 0)
(-0.37156 0.0753766 0)
(-0.37431 0.0597841 0)
(-0.298404 -0.121134 0)
(-0.0305103 0.10261 0)
(-0.00721543 0.0243261 0)
(-0.0194171 -0.157459 0)
(-0.0732831 0.0804996 0)
(-0.0614773 0.218895 0)
(-0.00446577 0.121367 0)
(-0.0467282 0.118665 0)
(-0.024512 0.149319 0)
(-0.0118949 0.116902 0)
(0.0155267 0.119079 0)
(-0.0071695 0.128918 0)
(-0.0227099 0.102823 0)
(0.0441074 0.128303 0)
(0.00754201 0.203726 0)
(-0.0991895 0.148836 0)
(-0.0734669 0.164614 0)
(-0.0933702 0.11644 0)
(-0.131311 0.0916624 0)
(-0.234676 0.126146 0)
(-0.285547 0.100609 0)
(-0.249179 0.126995 0)
(-0.354972 0.197774 0)
(-0.450576 0.0389461 0)
(-0.0419933 0.132488 0)
(0.0154356 0.0191366 0)
(-0.0178901 -0.15109 0)
(0.0109149 0.0740862 0)
(-0.0880757 0.226618 0)
(-0.0949998 0.146154 0)
(-0.0301466 0.15263 0)
(-0.00324853 0.159604 0)
(0.00643839 0.138105 0)
(-0.0052652 0.122462 0)
(-0.0188093 0.0906287 0)
(0.00358642 0.167869 0)
(0.0133428 0.214346 0)
(-0.0562583 0.206357 0)
(-0.0663842 0.224396 0)
(-0.0531667 0.230636 0)
(-0.151988 0.209908 0)
(-0.177699 0.285276 0)
(-0.185285 0.278708 0)
(-0.202626 0.307848 0)
(-0.172153 0.299971 0)
(-0.339883 0.188522 0)
(-0.429716 0.190109 0)
(-0.0535493 0.134945 0)
(0.0100939 -0.00369023 0)
(-0.0569166 -0.144911 0)
(-0.0954061 0.100009 0)
(-0.059696 0.190768 0)
(0.0420922 0.107295 0)
(-0.0371842 0.126941 0)
(-0.0139197 0.12147 0)
(0.0195073 0.140086 0)
(-0.000400698 0.125029 0)
(0.0393714 0.142419 0)
(0.0249991 0.187283 0)
(-0.0441184 0.262123 0)
(-0.0456565 0.245913 0)
(-0.028374 0.388311 0)
(-0.0435738 0.271324 0)
(-0.0220198 0.375782 0)
(-0.103007 0.383356 0)
(-0.203892 0.416227 0)
(-0.285085 0.419137 0)
(-0.294545 0.368499 0)
(-0.33344 0.251267 0)
(-0.477289 0.238676 0)
(-0.0756636 0.17871 0)
(-0.0137076 -0.00563499 0)
(-0.0693234 -0.0871311 0)
(-0.0455499 0.170877 0)
(-0.0520656 0.27857 0)
(-0.00986004 0.0873663 0)
(-0.0167414 0.111241 0)
(0.0425647 0.114601 0)
(0.0334089 0.12968 0)
(0.0251915 0.0975435 0)
(-0.0136851 0.226749 0)
(0.013232 0.122564 0)
(-0.0198942 0.297355 0)
(0.0160616 0.217711 0)
(-0.0331844 0.276118 0)
(-0.0312142 0.225997 0)
(-0.0681366 0.267384 0)
(-0.127827 0.256105 0)
(-0.140165 0.270885 0)
(-0.237914 0.320528 0)
(-0.285759 0.37348 0)
(-0.365733 0.381382 0)
(-0.489991 0.345226 0)
(-0.0235558 0.223734 0)
(0.00800421 -0.048915 0)
(-0.0305098 -0.0899244 0)
(-0.00759676 0.147396 0)
(-0.0739001 0.216286 0)
(-0.0117532 0.0698137 0)
(-0.0346405 0.163661 0)
(0.0374815 0.105637 0)
(-0.00680937 0.150338 0)
(0.0693838 0.149574 0)
(-0.0285758 0.186745 0)
(0.0199252 0.177225 0)
(-0.00290428 0.255748 0)
(-0.0673327 0.228903 0)
(-0.00347258 0.167863 0)
(-0.0160018 0.234574 0)
(-0.0419867 0.236999 0)
(-0.0903738 0.295441 0)
(-0.125725 0.292011 0)
(-0.189022 0.354393 0)
(-0.189458 0.381639 0)
(-0.303518 0.42336 0)
(-0.381014 0.356088 0)
(6.09776e-05 0.200913 0)
(0.050753 -0.043509 0)
(-0.0273739 -0.074981 0)
(-0.0746914 0.0861578 0)
(-0.0267514 0.115347 0)
(0.035983 0.0655254 0)
(-0.0091336 0.0910853 0)
(0.0398064 0.0773585 0)
(0.0246133 0.148231 0)
(0.0255701 0.179495 0)
(-0.0239131 0.129943 0)
(0.0261648 0.241529 0)
(0.0170582 0.176654 0)
(0.00643359 0.172989 0)
(0.0321139 0.208474 0)
(-0.0166491 0.265067 0)
(-0.0398909 0.297893 0)
(-0.0664398 0.336573 0)
(-0.061356 0.344853 0)
(-0.158669 0.368762 0)
(-0.202847 0.414547 0)
(-0.250112 0.387905 0)
(-0.359337 0.461944 0)
(-0.0201077 0.196113 0)
(0.0333861 -0.0368576 0)
(-0.032644 -0.0679647 0)
(-0.00115899 0.0736967 0)
(-0.0179913 0.125225 0)
(0.029599 0.0756383 0)
(0.00629652 0.0400698 0)
(0.024835 0.101613 0)
(0.0211371 0.123377 0)
(0.0488497 0.103289 0)
(0.00447735 0.151027 0)
(0.0170317 0.214745 0)
(-0.0152398 0.210776 0)
(-0.00530721 0.280476 0)
(0.0434788 0.184202 0)
(-0.0280635 0.283736 0)
(-0.00901 0.294218 0)
(-0.0354165 0.37543 0)
(-0.0774174 0.374554 0)
(-0.0944323 0.43155 0)
(-0.15697 0.38742 0)
(-0.177699 0.523577 0)
(-0.206569 0.526937 0)
(-0.0218806 0.189956 0)
(0.031132 -0.0192499 0)
(-0.0296286 -0.0318759 0)
(0.00782259 0.100601 0)
(0.0196192 0.106792 0)
(0.0266204 0.0663121 0)
(0.00439198 0.063674 0)
(0.0475125 0.0911268 0)
(-0.00439442 0.136603 0)
(0.0622394 0.119834 0)
(0.0198975 0.190502 0)
(0.0312012 0.200883 0)
(0.0845095 0.230135 0)
(-0.0155984 0.307506 0)
(-0.0015171 0.312743 0)
(0.043083 0.266613 0)
(0.0459463 0.303059 0)
(0.00868694 0.348447 0)
(-0.0132768 0.416182 0)
(-0.115762 0.579553 0)
(-0.0682682 0.55204 0)
(0.00929717 0.88669 0)
(-0.0740195 0.718445 0)
(-0.0274984 0.184277 0)
(0.0281607 -0.0285791 0)
(-0.0128951 -0.0251476 0)
(0.0245254 0.0522912 0)
(0.000653301 0.115648 0)
(0.0435409 0.0485827 0)
(0.0145094 0.0510088 0)
(0.0438713 0.0821158 0)
(0.0360803 0.10846 0)
(0.0603984 0.129681 0)
(0.0457377 0.149259 0)
(0.0638654 0.224926 0)
(0.104644 0.221372 0)
(0.117811 0.143259 0)
(0.0132805 0.323072 0)
(-0.00284878 0.314416 0)
(0.0641573 0.37321 0)
(0.0379727 0.476203 0)
(0.149919 0.442887 0)
(0.0556495 0.45248 0)
(0.187265 0.67642 0)
(0.0924691 0.762206 0)
(-0.178156 0.812013 0)
(-0.0192831 0.198391 0)
(0.0346229 -0.0210221 0)
(-0.0276092 -0.03498 0)
(0.0120587 0.0647775 0)
(0.0180451 0.115539 0)
(0.035207 0.0615697 0)
(0.0326053 0.0504917 0)
(0.0633577 0.126614 0)
(0.0539742 0.0766478 0)
(0.0904259 0.166772 0)
(0.151566 0.115916 0)
(0.132045 0.230242 0)
(0.00711097 0.20455 0)
(0.128703 0.214074 0)
(0.175092 0.247592 0)
(0.104851 0.364241 0)
(0.159891 0.347614 0)
(0.0794541 0.513827 0)
(0.0532983 0.465597 0)
(0.164003 0.525795 0)
(0.183688 0.620978 0)
(0.115609 0.527065 0)
(-0.00904844 0.772744 0)
(-0.0446745 0.156679 0)
(0.0377474 -0.0151861 0)
(-0.0125407 -0.0173921 0)
(0.0455727 0.0216539 0)
(0.0272656 0.0635931 0)
(0.0460161 0.05681 0)
(0.0530907 0.0544716 0)
(0.0330436 0.0958188 0)
(0.0859578 0.0834581 0)
(0.0656142 0.154825 0)
(0.0993493 0.117293 0)
(0.136263 0.136404 0)
(0.0969426 0.150737 0)
(0.164544 0.254694 0)
(0.190707 0.183777 0)
(0.115436 0.260687 0)
(0.186691 0.294371 0)
(0.180502 0.338042 0)
(0.179354 0.405428 0)
(0.298173 0.882008 0)
(0.0699672 0.840159 0)
(0.13217 0.784301 0)
(0.170631 0.769757 0)
(-0.0409213 0.222855 0)
(0.095171 0.000116003 0)
(0.00455706 -0.0137006 0)
(0.00312093 0.0255182 0)
(0.0419186 0.105231 0)
(0.0697598 0.0620235 0)
(0.0475379 0.0276867 0)
(0.0435385 0.0926303 0)
(0.0612454 0.109615 0)
(0.0642516 0.104213 0)
(0.114051 0.143656 0)
(0.12589 0.120486 0)
(0.171972 0.150409 0)
(0.185833 0.220541 0)
(0.208038 0.211599 0)
(0.181526 0.383614 0)
(0.210211 0.395832 0)
(0.178437 0.531036 0)
(0.465786 0.54443 0)
(0.552662 0.726225 0)
(0.358407 0.770052 0)
(0.15618 0.871666 0)
(0.269774 0.999086 0)
(-0.034488 0.348126 0)
(0.0579735 -0.0288601 0)
(0.00103339 -0.0010703 0)
(0.0623526 0.022042 0)
(0.0853221 0.06706 0)
(0.0527527 0.0354212 0)
(0.0818064 0.0497537 0)
(0.0599082 0.0716469 0)
(0.0892458 0.0618316 0)
(0.108576 0.133301 0)
(0.123823 0.155881 0)
(0.150327 0.106231 0)
(0.207145 0.178332 0)
(0.213522 0.180971 0)
(0.36943 0.314288 0)
(0.296638 0.345391 0)
(0.313687 0.367448 0)
(0.377382 0.52894 0)
(0.325746 0.622267 0)
(0.377288 0.429678 0)
(0.394635 0.536639 0)
(0.409737 0.658534 0)
(0.468928 0.945724 0)
(0.0353378 0.196342 0)
(0.070602 -0.0127127 0)
(0.0311581 0.00817226 0)
(0.0215871 0.000272839 0)
(0.062029 0.0208649 0)
(0.0526093 0.0380063 0)
(0.0776771 0.0379259 0)
(0.0564926 0.0412364 0)
(0.120259 0.0878982 0)
(0.176393 0.0530248 0)
(0.103047 0.117826 0)
(0.174841 0.0725159 0)
(0.292747 0.192716 0)
(0.375555 0.208177 0)
(0.379826 0.341543 0)
(0.325549 0.228653 0)
(0.423276 0.458203 0)
(0.443035 0.396679 0)
(0.338122 0.519965 0)
(0.442058 0.537087 0)
(0.529339 0.676174 0)
(0.519977 0.742018 0)
(0.597963 0.717685 0)
(0.0106914 0.0534119 0)
(0.0797737 -0.00203524 0)
(0.0700764 -0.0341538 0)
(0.0447911 -0.0321976 0)
(0.0698763 -0.00798213 0)
(0.074214 0.0344382 0)
(0.0925659 0.0360758 0)
(0.109212 0.0167568 0)
(0.118139 0.0870785 0)
(0.177362 -0.00732975 0)
(0.129633 0.132376 0)
(0.180887 0.168011 0)
(0.387633 0.089791 0)
(0.440617 0.224313 0)
(0.388443 0.165335 0)
(0.385856 0.189372 0)
(0.403255 0.296274 0)
(0.475391 0.314061 0)
(0.478073 0.48404 0)
(0.55366 0.592606 0)
(0.487001 0.609884 0)
(0.477976 0.578294 0)
(0.679313 0.616593 0)
(0.0107673 0.0547431 0)
(0.0411846 0.0157608 0)
(0.0304885 -0.0410469 0)
(0.0565504 -0.0149317 0)
(0.120682 -0.0209039 0)
(0.0830689 -0.0158952 0)
(0.0671327 -0.0014771 0)
(0.122152 0.0122735 0)
(0.0844576 0.0280593 0)
(0.205874 0.0336619 0)
(0.265151 0.0556447 0)
(0.175404 0.114059 0)
(0.353798 0.125829 0)
(0.396351 0.0618793 0)
(0.32682 0.039577 0)
(0.380947 0.120999 0)
(0.449781 0.134472 0)
(0.537422 0.362923 0)
(0.534242 0.385238 0)
(0.495371 0.368244 0)
(0.458845 0.401809 0)
(0.49366 0.563879 0)
(0.883548 0.677899 0)
(0.0103854 -0.0160581 0)
(0.0411209 -0.0490811 0)
(0.0527109 -0.0680307 0)
(0.0671616 -0.0518464 0)
(0.0821963 -0.0268563 0)
(0.100404 -0.0642705 0)
(0.113077 -0.0407688 0)
(0.142564 -0.0206127 0)
(0.158013 -0.0361753 0)
(0.199907 0.024217 0)
(0.227658 -0.0816849 0)
(0.255046 -0.0373053 0)
(0.342449 0.137315 0)
(0.38717 -0.0267055 0)
(0.434704 0.0151075 0)
(0.454632 -0.00543048 0)
(0.649219 0.0925392 0)
(0.661512 0.481758 0)
(0.454831 0.474304 0)
(0.509371 0.486413 0)
(0.606849 0.47207 0)
(0.584163 0.604019 0)
(0.642922 0.750618 0)
(0.0127144 -0.0348312 0)
(0.0183618 -0.0689986 0)
(0.0414078 -0.0849115 0)
(0.108241 -0.0741133 0)
(0.0892663 -0.0873571 0)
(0.074319 -0.0781799 0)
(0.106597 -0.0804921 0)
(0.116482 -0.0777761 0)
(0.150827 -0.0740251 0)
(0.147462 -0.0519387 0)
(0.231568 -0.0739063 0)
(0.44351 -0.0287963 0)
(0.317039 -0.0627961 0)
(0.294777 -0.0628893 0)
(0.328644 -0.0319949 0)
(0.505434 -0.00211764 0)
(0.935167 0.277626 0)
(0.864549 0.312121 0)
(0.62683 0.406336 0)
(0.577057 0.549603 0)
(0.671823 0.525421 0)
(0.704752 0.538488 0)
(0.752376 0.549648 0)
(0.00951735 -0.0794238 0)
(0.0316217 -0.111001 0)
(0.0465599 -0.100232 0)
(0.064602 -0.107027 0)
(0.0846902 -0.141213 0)
(0.101774 -0.12101 0)
(0.122472 -0.121256 0)
(0.15007 -0.118914 0)
(0.170068 -0.101943 0)
(0.209672 -0.112098 0)
(0.244283 -0.0649794 0)
(0.276885 -0.0912336 0)
(0.329643 -0.187823 0)
(0.351913 -0.144128 0)
(0.436866 -0.149361 0)
(0.520275 -0.102071 0)
(0.724261 0.0136195 0)
(0.894459 0.0823252 0)
(0.8194 0.394048 0)
(0.811366 0.483063 0)
(0.879981 0.678251 0)
(0.816217 0.630634 0)
(0.919698 0.609626 0)
(0.0100367 -0.115004 0)
(0.0256168 -0.141813 0)
(0.0412163 -0.148262 0)
(0.0650085 -0.152422 0)
(0.0773437 -0.155252 0)
(0.0914979 -0.159155 0)
(0.112727 -0.16838 0)
(0.131934 -0.173267 0)
(0.156494 -0.181729 0)
(0.187387 -0.183803 0)
(0.214484 -0.197804 0)
(0.272701 -0.191012 0)
(0.302894 -0.218485 0)
(0.329312 -0.201782 0)
(0.364297 -0.219516 0)
(0.543573 -0.147933 0)
(0.941232 -0.202978 0)
(1.38502 0.133688 0)
(1.29798 0.307664 0)
(1.04552 0.582424 0)
(1.08383 0.602833 0)
(1.02495 0.716196 0)
(1.13001 0.736028 0)
(0.00889978 -0.153392 0)
(0.0255848 -0.177234 0)
(0.0407941 -0.179989 0)
(0.0572126 -0.184319 0)
(0.0718275 -0.194248 0)
(0.0924061 -0.1989 0)
(0.107204 -0.203393 0)
(0.132956 -0.213526 0)
(0.150182 -0.217125 0)
(0.183307 -0.233119 0)
(0.209354 -0.243654 0)
(0.246505 -0.265552 0)
(0.301465 -0.289694 0)
(0.349172 -0.276179 0)
(0.458517 -0.342711 0)
(0.634351 -0.226178 0)
(0.960226 -0.406132 0)
(1.07641 -0.203144 0)
(1.28215 -0.0684247 0)
(1.15119 0.425158 0)
(1.1625 0.518134 0)
(1.1828 0.668104 0)
(1.25055 0.840639 0)
(0.00782401 -0.182311 0)
(0.0218521 -0.204456 0)
(0.0344844 -0.209257 0)
(0.0498846 -0.214713 0)
(0.0630039 -0.22163 0)
(0.0785967 -0.23123 0)
(0.0937924 -0.24403 0)
(0.114715 -0.260119 0)
(0.131889 -0.276585 0)
(0.163003 -0.301614 0)
(0.182167 -0.320302 0)
(0.232688 -0.371403 0)
(0.2685 -0.412587 0)
(0.320633 -0.494463 0)
(0.423083 -0.472367 0)
(0.51093 -0.49046 0)
(0.920879 -0.535777 0)
(1.3875 -0.212255 0)
(1.84043 -0.0136186 0)
(1.77147 0.246341 0)
(1.38532 0.477723 0)
(1.38657 0.665532 0)
(1.20945 0.959575 0)
(0.0069543 -0.215764 0)
(0.0195536 -0.233834 0)
(0.0302296 -0.23873 0)
(0.0429985 -0.244996 0)
(0.0538626 -0.254349 0)
(0.0689591 -0.264436 0)
(0.0790315 -0.278669 0)
(0.0993846 -0.294099 0)
(0.104986 -0.316629 0)
(0.140419 -0.337202 0)
(0.137487 -0.378727 0)
(0.194835 -0.438119 0)
(0.177036 -0.458207 0)
(0.264419 -0.501294 0)
(0.439099 -0.537337 0)
(0.590706 -0.607859 0)
(1.0009 -0.506186 0)
(1.08621 -0.533424 0)
(1.08878 -0.364689 0)
(1.18089 -0.0957921 0)
(1.26457 0.360254 0)
(1.60635 0.874372 0)
(1.37319 0.921956 0)
(0.00542961 -0.230933 0)
(0.01506 -0.246561 0)
(0.0233281 -0.251557 0)
(0.0328768 -0.258004 0)
(0.0413812 -0.268222 0)
(0.050732 -0.278493 0)
(0.0597095 -0.297854 0)
(0.0701979 -0.309797 0)
(0.0767653 -0.348717 0)
(0.0969123 -0.360474 0)
(0.0857341 -0.421003 0)
(0.150846 -0.422175 0)
(0.193927 -0.486634 0)
(0.242042 -0.466785 0)
(0.223658 -0.613735 0)
(0.397032 -0.725173 0)
(0.370222 -0.99324 0)
(0.470726 -0.945922 0)
(0.778676 -0.598177 0)
(0.798369 0.0135513 0)
(1.00429 0.724341 0)
(1.35711 0.951235 0)
(1.1747 0.797725 0)
(0.00475132 -0.262746 0)
(0.0128101 -0.275342 0)
(0.0198076 -0.280147 0)
(0.0275446 -0.286247 0)
(0.0350509 -0.29566 0)
(0.04169 -0.305687 0)
(0.0507961 -0.321387 0)
(0.0529543 -0.334726 0)
(0.0671857 -0.362821 0)
(0.0548502 -0.379139 0)
(0.0807434 -0.428207 0)
(0.138093 -0.411196 0)
(0.0950537 -0.508845 0)
(0.122088 -0.552534 0)
(0.122359 -0.588772 0)
(-0.0425204 -0.710285 0)
(-0.0718719 -1.05257 0)
(0.0237471 -0.936379 0)
(0.092169 -0.599207 0)
(0.25599 -0.201577 0)