/*--------------------------------*- C++ -*----------------------------------*\
| =========                 |                                                 |
| \\      /  F ield         | foam-extend: Open Source CFD                    |
|  \\    /   O peration     | Version:     4.1                                |
|   \\  /    A nd           | Web:         http://www.foam-extend.org         |
|    \\/     M anipulation  |                                                 |
\*---------------------------------------------------------------------------*/
FoamFile
{
    version     2.0;
    format      ascii;
    class       volScalarField;
    location    "0.8";
    object      alpha1;
}
// * * * * * * * * * * * * * * * * * * * * * * * * * * * * * * * * * * * * * //

dimensions      [0 0 0 0 0 0 0];

internalField   nonuniform List<scalar> 
2268
(
1
1
0.998678
0.997244
0.997369
0.996901
0.996008
0.99513
0.994768
0.994845
0.995336
0.996041
0.996831
0.997604
0.998375
0.999096
0.999688
1
1
1
1
1
1
1
0.998846
0.996075
0.994298
0.994956
0.995066
0.994694
0.994175
0.994061
0.994313
0.994885
0.995598
0.996384
0.997145
0.997991
0.998877
0.999675
1
1
1
1
1
1
0.997077
0.994048
0.990143
0.988063
0.989964
0.991335
0.992052
0.992268
0.992624
0.99317
0.99382
0.994466
0.995186
0.99586
0.99683
0.998036
0.99928
1
1
1
1
1
1
0.991451
0.986296
0.980901
0.979075
0.983023
0.98629
0.988514
0.98972
0.99059
0.991365
0.991903
0.992254
0.992731
0.993108
0.994063
0.995496
0.997296
0.999769
1
1
1
1
1
0.983419
0.975566
0.968457
0.968199
0.975016
0.980573
0.984427
0.986663
0.987887
0.988507
0.988544
0.988149
0.988044
0.987607
0.987802
0.988602
0.990595
0.995377
0.995133
0.996311
0.994685
0.999322
1
0.97227
0.961839
0.95313
0.956519
0.966786
0.974506
0.979654
0.982576
0.983927
0.983684
0.98265
0.980791
0.979548
0.977093
0.974279
0.971688
0.972266
0.981329
0.978636
0.981744
0.97884
0.988216
1
0.95672
0.944758
0.935364
0.944833
0.958438
0.967404
0.97295
0.975904
0.977282
0.975169
0.972344
0.967998
0.964694
0.957905
0.946513
0.933919
0.929324
0.946299
0.939203
0.947878
0.945503
0.962488
0.992204
0.934413
0.922649
0.915076
0.932028
0.947825
0.956428
0.961197
0.96353
0.964993
0.960007
0.954554
0.946234
0.939223
0.924035
0.893042
0.858703
0.842804
0.872816
0.861519
0.879805
0.884228
0.912815
0.968213
0.477846
0.435481
0.430416
0.429874
0.431125
0.432062
0.431582
0.427121
0.42178
0.42025
0.420094
0.420583
0.424867
0.431132
0.449914
0.501804
0.517676
0.514596
0.52392
0.479959
0.440932
0.437665
0.433468
0.417285
0.404551
0.392982
0.384123
0.378429
0.37692
0.379161
0.383216
0.393961
0.402348
0.411069
0.444443
0.491074
0.506671
0.534275
0.486022
0.4543
0.461295
0.460184
0.422469
0.389765
0.356766
0.327229
0.314277
0.310353
0.315675
0.33297
0.377579
0.404233
0.404866
0.372933
0.437433
0.480769
0.544116
0.496492
0.474034
0.495762
0.495008
0.447246
0.415022
0.385988
0.311464
0.277127
0.263941
0.261271
0.279961
0.364574
0.444791
0.465927
0.349056
0.390961
0.445794
0.549421
0.509298
0.495139
0.518704
0.503652
0.47148
0.44158
0.449712
0.354642
0.30815
0.282616
0.256042
0.245177
0.340867
0.47542
0.54509
0.381171
0.37714
0.418233
0.552061
0.522073
0.51198
0.50962
0.467345
0.450379
0.402397
0.464298
0.441157
0.407496
0.388077
0.33097
0.262836
0.349744
0.497546
0.600896
0.455454
0.404623
0.412267
0.553505
0.535516
0.526343
0.478228
0.387272
0.373473
0.311686
0.406505
0.50953
0.517712
0.526168
0.459172
0.349344
0.42257
0.5252
0.624363
0.535991
0.439203
0.424699
0.553523
0.547892
0.537347
0.439051
0.313774
0.284935
0.23773
0.31572
0.473615
0.532564
0.595708
0.553102
0.468777
0.507611
0.55593
0.62839
0.585512
0.457777
0.436269
0.548426
0.884757
0.875827
0.875984
0.907046
0.923833
0.927835
0.928626
0.928437
0.930523
0.919382
0.908556
0.890952
0.873598
0.836536
0.751059
0.665041
0.629855
0.68009
0.673545
0.703201
0.735274
0.790797
0.901237
0.779384
0.778996
0.797903
0.844778
0.857591
0.832922
0.814625
0.804181
0.80638
0.783936
0.766245
0.733126
0.678968
0.596183
0.462974
0.396708
0.400286
0.440645
0.437612
0.461012
0.49046
0.5662
0.751371
0.621879
0.652691
0.691287
0.692466
0.650458
0.559808
0.502216
0.478676
0.450666
0.426562
0.412422
0.437673
0.370629
0.332596
0.311754
0.335492
0.377826
0.408241
0.428689
0.480812
0.553183
0.670399
0.714338
0.477736
0.517057
0.509667
0.353435
0.244913
0.207297
0.189938
0.192531
0.178457
0.184998
0.202974
0.230254
0.22323
0.253623
0.296974
0.376799
0.447712
0.499189
0.530822
0.555421
0.580011
0.593588
0.589263
0.376081
0.386247
0.305872
0.177517
0.113946
0.114447
0.123674
0.134601
0.141108
0.155868
0.170954
0.188312
0.206504
0.240567
0.274272
0.301304
0.322071
0.341135
0.354066
0.357307
0.352453
0.349245
0.316657
0.305732
0.286438
0.17237
0.112416
0.109948
0.162805
0.211785
0.228473
0.238931
0.246857
0.254005
0.259659
0.268316
0.273791
0.273105
0.258106
0.245089
0.234054
0.230235
0.233326
0.201353
0.1879
0.181314
0.251522
0.203733
0.128738
0.145988
0.203939
0.244945
0.259055
0.261179
0.262452
0.262379
0.259887
0.255436
0.249985
0.240909
0.22246
0.199799
0.18123
0.170543
0.168704
0.174959
0.177352
0.185999
0.194954
0.20368
0.147493
0.122675
0.18121
0.213905
0.222501
0.218764
0.21309
0.206393
0.200561
0.197377
0.193864
0.189331
0.184287
0.17368
0.161224
0.153541
0.14996
0.15326
0.16872
0.183722
0.194901
0.201661
0.1635
0.116046
0.128966
0.177887
0.196319
0.171294
0.155846
0.148965
0.143517
0.140734
0.139655
0.137054
0.135615
0.138089
0.139463
0.138671
0.139716
0.141345
0.144006
0.150565
0.160037
0.166806
0.173853
0.136715
0.108544
0.142593
0.16725
0.160749
0.120155
0.10028
0.0925298
0.0883572
0.0882031
0.0867282
0.079684
0.0780541
0.0884206
0.102898
0.112074
0.121057
0.126586
0.129956
0.130382
0.129992
0.130214
0.123559
0.116741
0.103256
0.134325
0.154195
0.116092
0.0754274
0.060477
0.055633
0.0550026
0.0554119
0.0454466
0.0298464
0.0250944
0.0273299
0.0414227
0.0523691
0.0610754
0.0683399
0.0747616
0.0750645
0.0741663
0.0721951
0.0636448
0.101802
0.103467
0.128566
0.13883
0.0957547
0.0555117
0.0396694
0.036261
0.0402438
0.0379106
0.020559
0.00947584
0.00602071
0.00581147
0.00973896
0.0126347
0.0135915
0.0142115
0.0207573
0.0249542
0.029066
0.0317574
0.0298689
0.0926355
0.10284
0.122602
0.12623
0.0859119
0.0466187
0.0283713
0.0248113
0.0311501
0.0276739
0.0110444
0.00361747
0.00150774
0.00107012
0.00127122
0.00153123
0.00154728
0.00194636
0.00412432
0.00624087
0.00890922
0.0116424
0.0127991
0.0884114
0.101653
0.117412
0.119549
0.0829989
0.0466981
0.026439
0.0179509
0.0242657
0.0202914
0.00678961
0.00187247
0.000602548
0.000243577
0.000128931
0.000124476
0.000379378
0.00116557
0.00217244
0.00287212
0.00345307
0.00428336
0.00516082
0.0863039
0.100305
0.112377
0.113121
0.079891
0.0447031
0.0249306
0.0160922
0.0194357
0.0164815
0.0058082
0.00166374
0.000554785
0.000202903
4.9494e-05
2.20734e-06
4.45769e-05
0.000255984
0.000510617
0.000683753
0.000734758
0.000949066
0.00158035
0.0851557
0.0985198
0.107082
0.104549
0.0735496
0.0389702
0.0197827
0.0130613
0.0154136
0.0138543
0.00540977
0.00191245
0.000695403
0.000218237
3.40108e-05
0
0
1.70275e-05
5.34718e-05
8.22142e-05
8.0422e-05
0.000130525
0.000368291
0.0842394
0.0961466
0.100721
0.0918455
0.0659735
0.0344386
0.0159528
0.0097828
0.0118175
0.0111713
0.00486311
0.00149111
0.000417886
0.000111722
1.55002e-05
0
0
0
0
0
0
0
1.94017e-05
0.08339
0.0932021
0.0916993
0.0684315
0.0432165
0.0221287
0.0107892
0.00686935
0.00866923
0.0088589
0.00472683
0.00114595
0.000378556
0.000106141
1.71541e-05
0
0
0
0
0
0
0
0
0.0823083
0.0896999
0.0803877
0.0479763
0.0197814
0.00909025
0.00521411
0.00454121
0.00565212
0.00649757
0.0048947
0.00247432
0.000901284
0.000246288
3.44649e-05
1.00001e-06
0
0
0
0
0
0
0
0.0808914
0.0853787
0.0683541
0.0388804
0.0151434
0.00540623
0.00268555
0.00276987
0.00326764
0.00408753
0.00382232
0.002059
0.000601885
0.000111697
1.79736e-05
2.44085e-06
3.04888e-07
0
0
0
0
0
0
0.0790736
0.0803217
0.0577261
0.034012
0.0143196
0.00509114
0.00195218
0.00150979
0.00185835
0.00226824
0.00209872
0.00104018
0.000267529
4.92128e-05
9.19678e-06
2.41809e-06
8.4341e-07
2.43158e-07
1.02641e-07
7.08774e-08
7.51403e-08
9.53301e-08
1.37899e-07
0.0768266
0.0745356
0.0461034
0.0265724
0.0105324
0.00357268
0.00141543
0.000886692
0.00113832
0.00119401
0.000925258
0.000373061
8.77262e-05
2.21632e-05
8.31922e-06
3.52024e-06
1.17423e-06
3.15e-07
8.81884e-08
3.60428e-08
2.90077e-08
2.90845e-08
2.98368e-08
0.0741031
0.0680602
0.0390194
0.0215945
0.00824855
0.00255036
0.000904769
0.000497731
0.000610046
0.00054326
0.00032115
0.000111929
3.96449e-05
1.87527e-05
8.34269e-06
2.82138e-06
6.81068e-07
1.56429e-07
4.52431e-08
1.64342e-08
7.77809e-09
4.76761e-09
1.5432e-09
0.0707751
0.061454
0.038079
0.020164
0.00718424
0.00188902
0.000566785
0.000266926
0.000270555
0.000202603
0.000118325
6.04356e-05
3.01781e-05
1.41876e-05
5.47316e-06
1.56919e-06
3.15862e-07
5.76599e-08
1.19538e-08
2.81985e-09
1.23484e-09
5.2914e-10
0
0.0672329
0.0534181
0.0339093
0.0191723
0.00704113
0.00157501
0.000418969
0.000196028
0.000157833
0.000138717
9.54026e-05
5.25257e-05
2.68333e-05
1.29158e-05
4.80264e-06
1.15126e-06
1.31339e-07
0
0
0
0
0
0
0.0635342
0.0455641
0.0291968
0.0179611
0.00724723
0.00182086
0.000434383
0.000196834
0.000158945
0.000154627
9.84326e-05
5.68877e-05
3.73752e-05
2.3101e-05
8.25456e-06
1.80061e-06
1.67687e-07
0
0
0
0
0
0
0.0596687
0.0376664
0.0245994
0.0170377
0.00832295
0.00241833
0.000550983
0.000236672
0.000203496
0.000185698
0.000119672
9.13204e-05
7.81127e-05
4.82313e-05
1.37171e-05
2.08721e-06
0
0
0
0
0
0
0
0.0558356
0.0323838
0.0214643
0.0151588
0.00724563
0.00225115
0.000655824
0.000325805
0.000316716
0.000245408
0.000184679
0.000181546
0.000177605
0.000127661
3.95222e-05
5.09524e-06
0
0
0
0
0
0
0
0.0521877
0.0308178
0.0184459
0.0124316
0.00554547
0.00197754
0.000760651
0.000465656
0.000458743
0.000357447
0.00030975
0.00039405
0.000465688
0.000321394
0.000104566
1.58784e-05
2.40128e-06
1.82408e-07
0
0
0
0
0
0.0486563
0.0335501
0.0182038
0.0106108
0.00440363
0.00180409
0.000923639
0.000677
0.000610078
0.000528856
0.000559649
0.000805764
0.000951809
0.000663187
0.000232876
4.78299e-05
1.18801e-05
2.24198e-06
1.52018e-07
0
0
0
0
0.0447295
0.0310225
0.0170707
0.00866317
0.00351256
0.00174463
0.00116864
0.000975072
0.000795042
0.000727652
0.000854361
0.00120122
0.00140002
0.00107758
0.000448462
0.000115175
2.82066e-05
4.73992e-06
3.37324e-07
0
0
0
0
0.0406001
0.0274248
0.0148861
0.00649145
0.00280419
0.00177171
0.0014564
0.00132824
0.00104243
0.000970179
0.00119401
0.00151356
0.00168459
0.00138904
0.0006441
0.000177879
4.00767e-05
5.75889e-06
2.11844e-07
0
0
0
0
0.03627
0.0232275
0.0120404
0.00490122
0.00245185
0.00183083
0.00165497
0.00155935
0.00134667
0.00125508
0.00138443
0.00164308
0.0018179
0.00158231
0.000800613
0.000218326
4.62193e-05
5.12576e-06
0
0
0
0
0
0.0321112
0.0199533
0.0101217
0.00450107
0.00252297
0.00199779
0.00184683
0.00172865
0.00161256
0.0015381
0.00158474
0.00176768
0.00188746
0.0016163
0.000778085
0.000202151
3.98879e-05
7.24672e-06
5.27399e-07
0
0
0
0
0.0283711
0.0180453
0.00995035
0.00487075
0.00303054
0.00247141
0.00217765
0.00193556
0.00182041
0.001784
0.00179407
0.00194397
0.00194653
0.00158718
0.000706432
0.000217825
4.79836e-05
8.7852e-06
1.00485e-06
6.01525e-08
0
0
0
0.0249497
0.0166585
0.0103737
0.00612891
0.00428618
0.00334658
0.00262732
0.0021858
0.00204582
0.00204367
0.00203912
0.00203554
0.00170277
0.000965614
0.000329664
5.43347e-05
4.21018e-06
0
0
0
0
0
0
0.0215569
0.0150936
0.0105578
0.0073067
0.0052045
0.00366161
0.00267293
0.00228179
0.0021781
0.00214501
0.00209542
0.00193823
0.00126068
0.000421522
9.47598e-05
7.68279e-06
0
0
0
8.76391e-10
0
0
0
0.018486
0.0133362
0.0102519
0.00727355
0.00512202
0.00342494
0.00251796
0.00222729
0.0020877
0.00201152
0.00183184
0.00147123
0.000745381
0.000214313
3.63647e-05
1.74419e-06
0
0
7.0212e-09
1.16878e-08
0
0
0
0.0160735
0.0116175
0.00913785
0.00649504
0.00439925
0.00288275
0.00232772
0.00202456
0.00166883
0.00146523
0.0010577
0.000604723
0.000181754
3.06671e-05
1.92447e-06
0
0
0
1.49216e-08
1.07889e-08
0
0
0
0.0144025
0.0103554
0.00741294
0.00490177
0.00331196
0.00249514
0.00205654
0.00144017
0.000900725
0.000691295
0.000368165
0.000161135
3.93206e-05
3.72274e-06
0
0
0
9.77438e-09
1.36009e-08
9.41484e-09
0
0
0
0.0131903
0.00947376
0.00645168
0.00406056
0.00276727
0.00202708
0.0013213
0.000530905
0.000217775
0.000142077
5.94278e-05
1.74435e-05
2.13662e-06
0
0
0
5.13586e-09
7.25583e-09
1.26639e-08
8.50206e-09
0
0
0
0.0107152
0.0075924
0.00498319
0.00295167
0.00172106
0.000860857
0.000285125
7.31698e-05
2.24959e-05
1.41414e-05
2.59067e-06
0
0
0
0
0
4.89674e-09
6.02886e-09
1.2378e-08
8.39465e-09
0
0
0
0.902643
0.862714
0.751375
0.619436
0.812942
0.785718
0.696405
0.605741
0.700103
0.656268
0.593818
0.540981
0.539174
0.497888
0.441675
0.395588
0.288377
0.266955
0.230348
0.198887
0.179523
0.17932
0.179721
0.182433
0.199956
0.203054
0.205951
0.208586
0.205245
0.20699
0.208546
0.210034
0.178075
0.180306
0.182078
0.18372
0.117672
0.115382
0.113724
0.112668
0.0592229
0.0573659
0.0561522
0.055039
0.0281431
0.027191
0.0264592
0.025819
0.013114
0.0130931
0.0128285
0.0123921
0.00575466
0.00595738
0.00600073
0.00590512
0.00230567
0.00261273
0.00271957
0.00267832
0.000772935
0.000994083
0.00111275
0.00111808
0.000105704
0.00017588
0.000237387
0.000271367
0
0
3.6811e-06
1.66324e-05
0
0
0
0
0
0
0
0
1.71319e-07
1.42483e-07
5.17122e-08
0
4.33756e-08
5.89521e-08
7.69408e-08
8.28971e-08
1.86976e-09
4.32652e-09
9.11423e-09
1.36737e-08
0
0
0
0
0
0
0
0
0
7.08894e-11
2.29827e-10
3.72985e-10
8.33687e-11
3.26003e-10
6.72601e-10
8.94937e-10
4.53258e-10
1.05856e-09
1.68659e-09
1.51158e-09
1.13911e-09
2.34821e-09
3.15353e-09
1.49147e-09
1.87132e-09
3.71673e-09
4.074e-09
0
2.00159e-09
3.83586e-09
1.1478e-09
0
0
0
0
0
0
0
0
0
0
0
0
0
0
0
0
0
0
0
0
0
0
0
0
0
0
0
0
0
0
0
0
0
0
0
0
0
0
0
0
0
0
0
0
0
0.548784
0.529955
0.419438
0.293632
0.228837
0.198073
0.211671
0.287407
0.397918
0.555539
0.602083
0.587394
0.566159
0.579003
0.626451
0.608554
0.457967
0.442965
0.530351
0.523857
0.396773
0.307307
0.249438
0.219642
0.220312
0.2308
0.260242
0.306385
0.387887
0.463255
0.498833
0.509829
0.56938
0.633921
0.554652
0.395763
0.428752
0.470787
0.449748
0.2016
0.19683
0.19568
0.196179
0.200256
0.208028
0.222607
0.255999
0.328918
0.33359
0.349023
0.396916
0.520893
0.554352
0.432252
0.333685
0.347588
0.325613
0.293976
0.168917
0.164678
0.153921
0.150869
0.159991
0.16017
0.17139
0.21135
0.231218
0.264101
0.353128
0.458941
0.467999
0.372418
0.296936
0.227533
0.184132
0.145332
0.168317
0.166578
0.164149
0.142396
0.134497
0.139559
0.156809
0.182243
0.223059
0.282548
0.401397
0.429939
0.426381
0.333737
0.224857
0.155194
0.0971968
0.0712002
0.0534101
0.191013
0.197703
0.193331
0.181684
0.176239
0.19296
0.248074
0.283162
0.313969
0.334427
0.360832
0.309743
0.234469
0.169794
0.0956995
0.0571785
0.0366134
0.0324489
0.0276421
0.212514
0.21727
0.222792
0.231405
0.242172
0.256525
0.282337
0.289119
0.287539
0.261402
0.221971
0.160208
0.108573
0.0725202
0.0393626
0.0233775
0.0164914
0.0151372
0.0186144
0.212598
0.216598
0.222547
0.230404
0.234162
0.234404
0.237887
0.220991
0.187709
0.140013
0.109336
0.0881858
0.0564594
0.0337223
0.0197516
0.0133174
0.0106067
0.00948115
0.0135967
0.186658
0.192548
0.197016
0.197374
0.199851
0.191226
0.178244
0.154004
0.11858
0.0810571
0.0555152
0.0407696
0.0268194
0.0174504
0.0122566
0.00924489
0.00792316
0.00722434
0.00979839
0.111941
0.119766
0.15709
0.168898
0.172475
0.164777
0.140303
0.111618
0.0788906
0.0546235
0.038443
0.0277526
0.0190171
0.0131446
0.0095525
0.00737429
0.00627116
0.00581043
0.00722465
0.0537661
0.0592775
0.086256
0.104444
0.11153
0.117272
0.107282
0.0871924
0.0602847
0.0399002
0.0295861
0.0230873
0.0172698
0.0120536
0.00817924
0.00606108
0.00508119
0.0048108
0.00550146
0.0253867
0.0305027
0.0442328
0.0549031
0.0565934
0.057333
0.0495222
0.0404273
0.0308401
0.0216945
0.017071
0.0142207
0.0130516
0.00928165
0.00610854
0.00469825
0.00408214
0.0040987
0.00442105
0.0120926
0.014245
0.0212011
0.0248476
0.0251633
0.0251895
0.0214201
0.0184055
0.0147711
0.00995814
0.00716874
0.00534349
0.00507949
0.004008
0.00312495
0.00312615
0.00321508
0.00354493
0.00375784
0.00590778
0.00695356
0.0095972
0.0100098
0.0100555
0.00957222
0.00761414
0.00731885
0.00606741
0.00366522
0.00216698
0.00152153
0.0012825
0.00108718
0.00106496
0.00144966
0.00252098
0.00303245
0.00334359
0.00258122
0.00264677
0.00336813
0.00339185
0.00361938
0.0033941
0.00243704
0.00235872
0.00169402
0.00100509
0.00055905
0.000403829
0.000277167
0.000205557
0.000296205
0.000766518
0.00212544
0.00258844
0.00304556
0.00102347
0.000813221
0.000921332
0.00102577
0.00132244
0.00114321
0.00088978
0.000732526
0.000410569
0.000241131
0.000138001
0.000110913
7.42307e-05
3.28005e-05
8.3953e-05
0.00041911
0.00150528
0.00221794
0.00279594
0.000312796
0.0002168
0.00021913
0.000295592
0.000483615
0.000455829
0.000379298
0.000249883
0.000128565
8.0223e-05
4.9385e-05
3.74008e-05
2.71017e-05
3.70855e-06
2.57667e-05
0.000252552
0.00106688
0.0019557
0.0025758
4.59104e-05
2.65382e-05
3.3658e-05
4.75e-05
0.00010875
0.00016966
0.000143904
9.03457e-05
4.44763e-05
2.8509e-05
1.86441e-05
1.41278e-05
1.08059e-05
0
0
0.000126921
0.000732675
0.00176655
0.00237662
0
0
0
0
1.1224e-05
4.23506e-05
3.11983e-05
2.22917e-05
9.78091e-06
6.04135e-06
4.5152e-06
4.43988e-06
2.73597e-06
0
0
0.000103549
0.000612549
0.0016129
0.00218928
0
0
0
0
0
1.50796e-06
1.327e-06
1.33113e-06
3.45495e-07
0
1.39125e-07
6.39554e-07
0
0
0
0.000103267
0.000570457
0.00147716
0.00201597
0
0
0
0
0
0
0
0
0
0
0
0
0
0
0
9.48097e-05
0.000501836
0.00127931
0.00185188
8.23501e-08
6.12278e-08
1.28473e-08
0
0
0
0
0
0
0
0
0
0
0
0
7.3739e-05
0.000409255
0.00109327
0.00170693
2.21729e-08
3.28102e-08
5.98358e-08
6.45959e-08
2.0929e-08
0
0
0
0
0
0
0
0
0
0
5.33843e-05
0.000318539
0.000936902
0.0015787
6.71247e-10
2.88076e-09
8.35412e-09
1.56505e-08
2.9651e-08
2.36437e-08
1.56347e-08
1.9473e-09
0
0
0
0
0
0
0
3.32835e-05
0.000246824
0.000830458
0.00146626
0
0
0
0
0
0
0
0
0
0
0
0
0
0
0
2.06707e-05
0.00020398
0.000770753
0.00136614
3.93599e-10
0
0
0
0
0
0
0
0
0
0
0
0
0
0
1.75422e-05
0.000190651
0.000732099
0.00125879
4.70405e-10
0
0
0
0
0
0
0
0
0
0
0
0
0
0
1.51451e-05
0.00017861
0.000680156
0.00115202
0
0
0
0
0
0
0
0
0
0
0
0
0
0
0
1.31437e-05
0.000153757
0.000592031
0.00105055
0
0
0
0
0
0
0
0
0
0
0
0
0
0
0
9.99239e-06
0.000125278
0.000506234
0.000960442
0
0
0
0
0
0
0
0
0
0
0
0
0
0
0
1.03151e-05
0.000108025
0.00044341
0.000883443
0
0
0
0
0
0
0
1.19939e-06
1.26953e-06
1.06343e-06
5.65908e-07
1.18837e-07
0
0
0
4.35607e-06
8.35206e-05
0.000394188
0.000813786
0
0
0
0
0
4.11512e-07
1.89005e-06
5.1596e-06
5.22375e-06
4.8058e-06
3.94889e-06
2.82236e-06
1.45438e-06
0
0
3.99312e-06
8.19723e-05
0.000370582
0.000750086
0
0
0
0
8.12732e-07
3.98243e-06
7.68887e-06
1.31366e-05
1.34525e-05
1.30965e-05
1.10821e-05
8.31544e-06
4.50034e-06
5.60371e-07
0
7.84458e-06
8.03774e-05
0.000316381
0.00068552
0
0
0
1.98121e-08
4.8866e-06
1.17408e-05
2.10879e-05
2.60295e-05
2.58552e-05
2.55749e-05
2.25934e-05
1.69267e-05
9.85951e-06
3.90934e-06
0
6.30998e-06
5.94681e-05
0.000258013
0.000633361
0
0
0
2.51964e-06
9.74257e-06
2.00154e-05
3.64438e-05
4.06699e-05
4.32203e-05
4.39881e-05
4.14514e-05
3.27809e-05
2.13539e-05
1.16233e-05
2.36235e-06
5.11581e-06
4.11751e-05
0.000205825
0.000591886
0
0
0
5.89678e-06
1.707e-05
3.03176e-05
5.03223e-05
5.77386e-05
6.72791e-05
6.8631e-05
6.52216e-05
5.52974e-05
4.08313e-05
2.55836e-05
8.95302e-06
4.47131e-06
2.58226e-05
0.000176367
0.00056002
0
0
1.58894e-06
1.01158e-05
2.41433e-05
3.959e-05
6.20048e-05
7.60901e-05
8.562e-05
8.31579e-05
7.774e-05
6.98566e-05
5.52608e-05
3.49907e-05
1.74997e-05
2.63439e-06
1.07871e-05
0.00011925
0.000513195
0
0
4.77288e-06
1.63099e-05
3.46725e-05
5.46537e-05
7.60654e-05
9.0011e-05
9.18597e-05
8.52723e-05
7.65043e-05
6.89009e-05
5.82206e-05
4.16998e-05
2.55773e-05
4.58183e-06
1.56979e-05
0.000154995
0.000611271
0
1.39173e-07
7.78618e-06
2.20636e-05
4.12749e-05
6.37134e-05
8.46923e-05
9.59772e-05
9.01191e-05
7.50439e-05
6.45525e-05
6.10634e-05
5.87015e-05
4.66652e-05
2.81845e-05
6.11152e-06
2.53386e-05
0.000174195
0.00058222
0
8.55698e-07
1.03484e-05
2.61857e-05
4.39484e-05
6.74057e-05
8.92764e-05
9.67827e-05
8.43672e-05
6.79134e-05
5.60213e-05
5.11603e-05
5.17361e-05
4.62944e-05
3.29225e-05
1.14889e-05
3.29519e-05
0.000167891
0.000482065
0
1.84741e-06
1.33511e-05
2.73054e-05
4.28878e-05
6.2833e-05
8.81755e-05
9.67094e-05
8.48683e-05
6.8182e-05
5.3814e-05
4.55119e-05
4.28142e-05
3.98488e-05
2.89105e-05
1.20117e-05
2.50912e-05
0.000104753
0.000326275
0
2.0927e-06
1.46835e-05
2.78948e-05
4.24125e-05
6.04314e-05
8.47012e-05
9.77409e-05
8.99441e-05
7.13985e-05
5.44676e-05
4.38536e-05
3.80129e-05
3.31578e-05
2.40054e-05
1.22376e-05
1.20367e-05
3.74497e-05
0.000152673
)
;

boundaryField
{
    leftWall
    {
        type            zeroGradient;
    }
    rightWall
    {
        type            zeroGradient;
    }
    lowerWall
    {
        type            zeroGradient;
    }
    atmosphere
    {
        type            inletOutlet;
        inletValue      uniform 0;
        value           nonuniform List<scalar> 
46
(
0.0107152
0.0075924
0.00498319
0.00295167
0.00172106
0.000860857
0.000285125
7.31698e-05
2.24959e-05
1.41414e-05
2.59067e-06
0
0
0
0
0
4.89674e-09
6.02886e-09
1.2378e-08
8.39465e-09
0
0
0
0
0
0
0
0
2.0927e-06
1.46835e-05
2.78948e-05
4.24125e-05
6.04314e-05
8.47012e-05
9.77409e-05
8.99441e-05
7.13985e-05
5.44676e-05
4.38536e-05
3.80129e-05
3.31578e-05
2.40054e-05
1.22376e-05
1.20367e-05
3.74497e-05
0.000152673
)
;
    }
    defaultFaces
    {
        type            empty;
    }
}


// ************************************************************************* //
