/*--------------------------------*- C++ -*----------------------------------*\
| =========                 |                                                 |
| \\      /  F ield         | foam-extend: Open Source CFD                    |
|  \\    /   O peration     | Version:     4.1                                |
|   \\  /    A nd           | Web:         http://www.foam-extend.org         |
|    \\/     M anipulation  |                                                 |
\*---------------------------------------------------------------------------*/
FoamFile
{
    version     2.0;
    format      ascii;
    class       volScalarField;
    location    "0.8";
    object      C;
}
// * * * * * * * * * * * * * * * * * * * * * * * * * * * * * * * * * * * * * //

dimensions      [0 0 0 0 0 0 0];

internalField   nonuniform List<scalar> 
2268
(
1.00424
1.00173
0.997356
0.994487
0.994737
0.993802
0.992015
0.990261
0.989536
0.989691
0.990672
0.992082
0.993662
0.995209
0.99675
0.998193
0.999375
1.00024
1.00128
1.00252
1.0035
1.00408
1.00403
1.00121
0.997693
0.992149
0.988597
0.989913
0.990131
0.989388
0.988351
0.988121
0.988627
0.98977
0.991197
0.992768
0.994291
0.995982
0.997755
0.999349
1.00066
1.00198
1.00339
1.00423
1.00508
1.0054
0.994153
0.988096
0.980285
0.976127
0.979928
0.98267
0.984104
0.984536
0.985249
0.98634
0.987639
0.988933
0.990371
0.991719
0.99366
0.996072
0.99856
1.00106
1.00277
1.00429
1.00456
1.00635
1.00806
0.982902
0.972593
0.961803
0.958151
0.966047
0.972581
0.977027
0.97944
0.981181
0.98273
0.983807
0.984509
0.985462
0.986215
0.988126
0.990992
0.994593
0.999538
1.00104
1.0026
1.00157
1.00569
1.01098
0.966838
0.951133
0.936913
0.936398
0.950031
0.961146
0.968854
0.973326
0.975773
0.977013
0.977087
0.976297
0.976089
0.975213
0.975604
0.977204
0.981191
0.990755
0.990265
0.992622
0.98937
0.998645
1.01164
0.94454
0.923677
0.90626
0.913037
0.933571
0.949012
0.959308
0.965152
0.967854
0.967368
0.9653
0.961582
0.959096
0.954185
0.948559
0.943375
0.944532
0.962658
0.957273
0.963489
0.957679
0.976432
1.0054
0.913441
0.889516
0.870729
0.889667
0.916876
0.934809
0.945899
0.951808
0.954564
0.950338
0.944688
0.935996
0.929387
0.91581
0.893026
0.867838
0.858647
0.892598
0.878406
0.895755
0.891006
0.924976
0.984408
0.868825
0.845297
0.830153
0.864055
0.895649
0.912856
0.922395
0.92706
0.929986
0.920014
0.909109
0.892468
0.878446
0.848069
0.786084
0.717406
0.685609
0.745632
0.723037
0.75961
0.768457
0.825629
0.936426
-0.0443083
-0.129038
-0.139167
-0.140252
-0.137749
-0.135876
-0.136836
-0.145757
-0.15644
-0.159499
-0.159812
-0.158835
-0.150266
-0.137736
-0.100171
0.0036079
0.0353518
0.0291924
0.0478399
-0.0400819
-0.118137
-0.124671
-0.133063
-0.16543
-0.190898
-0.214036
-0.231755
-0.243142
-0.24616
-0.241679
-0.233569
-0.212079
-0.195305
-0.177863
-0.111114
-0.0178528
0.0133427
0.0685501
-0.027955
-0.0914007
-0.0774095
-0.0796311
-0.155063
-0.22047
-0.286468
-0.345541
-0.371446
-0.379294
-0.368649
-0.334061
-0.244843
-0.191534
-0.190269
-0.254133
-0.125134
-0.0384626
0.088233
-0.00701639
-0.0519326
-0.00847569
-0.00998458
-0.105508
-0.169955
-0.228024
-0.377071
-0.445746
-0.472119
-0.477459
-0.440078
-0.270852
-0.110418
-0.0681452
-0.301889
-0.218079
-0.108412
0.0988412
0.0185963
-0.00972267
0.0374083
0.00730321
-0.0570408
-0.11684
-0.100575
-0.290716
-0.3837
-0.434768
-0.487916
-0.509647
-0.318266
-0.0491595
0.0901792
-0.237658
-0.24572
-0.163535
0.104123
0.0441458
0.023959
0.0192406
-0.065309
-0.0992429
-0.195207
-0.0714032
-0.117685
-0.185008
-0.223846
-0.338059
-0.474328
-0.300511
-0.00490707
0.201792
-0.0890915
-0.190755
-0.175465
0.10701
0.0710315
0.0526864
-0.0435434
-0.225456
-0.253054
-0.376628
-0.18699
0.0190601
0.0354239
0.0523365
-0.0816552
-0.301312
-0.154859
0.0504
0.248727
0.0719815
-0.121594
-0.150603
0.107046
0.095784
0.0746938
-0.121897
-0.372451
-0.43013
-0.52454
-0.36856
-0.0527695
0.0651271
0.191417
0.106204
-0.0624466
0.0152215
0.11186
0.256779
0.171023
-0.084445
-0.127462
0.0968518
0.769513
0.751655
0.751968
0.814092
0.847666
0.85567
0.857253
0.856874
0.861046
0.838764
0.817112
0.781904
0.747196
0.673072
0.502118
0.330082
0.25971
0.360181
0.34709
0.406403
0.470547
0.581593
0.802474
0.558768
0.557993
0.595806
0.689556
0.715182
0.665843
0.629249
0.608362
0.61276
0.567871
0.532489
0.466252
0.357936
0.192367
-0.0740515
-0.206584
-0.199428
-0.11871
-0.124775
-0.077976
-0.0190795
0.1324
0.502742
0.243757
0.305382
0.382575
0.384932
0.300915
0.119617
0.0044323
-0.0426487
-0.0986676
-0.146876
-0.175156
-0.124654
-0.258742
-0.334808
-0.376492
-0.329016
-0.244348
-0.183518
-0.142621
-0.0383756
0.106367
0.340799
0.428677
-0.0445275
0.0341148
0.0193344
-0.29313
-0.510174
-0.585406
-0.620123
-0.614938
-0.643086
-0.630003
-0.594052
-0.539492
-0.553539
-0.492753
-0.406051
-0.246403
-0.104577
-0.0016216
0.0616449
0.110841
0.160022
0.187176
0.178526
-0.247838
-0.227505
-0.388256
-0.644966
-0.772107
-0.771106
-0.752652
-0.730797
-0.717784
-0.688265
-0.658092
-0.623376
-0.586991
-0.518866
-0.451456
-0.397393
-0.355858
-0.317731
-0.291868
-0.285385
-0.295095
-0.30151
-0.366686
-0.388536
-0.427125
-0.655261
-0.775168
-0.780103
-0.674391
-0.576429
-0.543054
-0.522138
-0.506287
-0.49199
-0.480682
-0.463369
-0.452417
-0.453789
-0.483789
-0.509822
-0.531892
-0.539531
-0.533348
-0.597293
-0.6242
-0.637373
-0.496956
-0.592533
-0.742524
-0.708023
-0.592122
-0.51011
-0.48189
-0.477642
-0.475096
-0.475243
-0.480226
-0.489129
-0.50003
-0.518182
-0.555081
-0.600401
-0.63754
-0.658914
-0.662592
-0.650081
-0.645297
-0.628001
-0.610092
-0.592641
-0.705014
-0.754649
-0.637581
-0.57219
-0.554998
-0.562473
-0.57382
-0.587214
-0.598877
-0.605247
-0.612272
-0.621338
-0.631426
-0.652639
-0.677551
-0.692918
-0.700079
-0.69348
-0.66256
-0.632555
-0.610198
-0.596677
-0.672999
-0.767908
-0.742068
-0.644226
-0.607361
-0.657411
-0.688308
-0.70207
-0.712966
-0.718533
-0.72069
-0.725891
-0.72877
-0.723821
-0.721075
-0.722659
-0.720567
-0.71731
-0.711988
-0.698869
-0.679925
-0.666389
-0.652295
-0.726571
-0.782912
-0.714814
-0.6655
-0.678501
-0.75969
-0.79944
-0.81494
-0.823286
-0.823594
-0.826544
-0.840632
-0.843892
-0.823159
-0.794204
-0.775853
-0.757887
-0.746829
-0.740089
-0.739236
-0.740017
-0.739572
-0.752882
-0.766518
-0.793488
-0.731351
-0.69161
-0.767816
-0.849145
-0.879046
-0.888734
-0.889995
-0.889176
-0.909107
-0.940307
-0.949811
-0.94534
-0.917155
-0.895262
-0.877849
-0.86332
-0.850477
-0.849871
-0.851667
-0.85561
-0.87271
-0.796396
-0.793066
-0.742868
-0.72234
-0.808491
-0.888977
-0.920661
-0.927478
-0.919512
-0.924179
-0.958882
-0.981048
-0.987959
-0.988377
-0.980522
-0.974731
-0.972817
-0.971577
-0.958485
-0.950092
-0.941868
-0.936485
-0.940262
-0.814729
-0.794319
-0.754795
-0.74754
-0.828176
-0.906763
-0.943257
-0.950377
-0.9377
-0.944652
-0.977911
-0.992765
-0.996985
-0.99786
-0.997458
-0.996938
-0.996905
-0.996107
-0.991751
-0.987518
-0.982182
-0.976715
-0.974402
-0.823177
-0.796693
-0.765177
-0.760902
-0.834002
-0.906604
-0.947122
-0.964098
-0.951469
-0.959417
-0.986421
-0.996255
-0.998795
-0.999513
-0.999742
-0.999751
-0.999241
-0.997669
-0.995655
-0.994256
-0.993094
-0.991433
-0.989678
-0.827392
-0.799389
-0.775246
-0.773758
-0.840218
-0.910594
-0.950139
-0.967816
-0.961129
-0.967037
-0.988384
-0.996673
-0.99889
-0.999594
-0.999901
-0.999996
-0.999911
-0.999488
-0.998979
-0.998632
-0.99853
-0.998102
-0.996839
-0.829689
-0.80296
-0.785836
-0.790902
-0.852901
-0.92206
-0.960435
-0.973877
-0.969173
-0.972291
-0.98918
-0.996175
-0.998609
-0.999564
-0.999932
-1.00002
-1.00003
-0.999966
-0.999893
-0.999836
-0.999839
-0.999739
-0.999263
-0.831521
-0.807707
-0.798558
-0.816309
-0.868053
-0.931123
-0.968094
-0.980434
-0.976365
-0.977657
-0.990274
-0.997018
-0.999164
-0.999777
-0.999969
-1.00003
-1.00004
-1.00003
-1.00002
-1.00002
-1.00002
-1.00001
-0.999961
-0.83322
-0.813596
-0.816601
-0.863137
-0.913567
-0.955743
-0.978422
-0.986261
-0.982662
-0.982282
-0.990546
-0.997708
-0.999243
-0.999788
-0.999966
-1.00001
-1.00002
-1.00002
-1.00002
-1.00002
-1.00002
-1.00002
-1.00003
-0.835383
-0.8206
-0.839225
-0.904047
-0.960437
-0.98182
-0.989572
-0.990918
-0.988696
-0.987005
-0.990211
-0.995051
-0.998197
-0.999507
-0.999931
-0.999998
-1
-1
-1
-1
-1
-1
-1.00001
-0.838217
-0.829243
-0.863292
-0.922239
-0.969713
-0.989188
-0.994629
-0.99446
-0.993465
-0.991825
-0.992355
-0.995882
-0.998796
-0.999777
-0.999964
-0.999995
-0.999999
-1
-1
-1
-1
-1
-1
-0.841853
-0.839357
-0.884548
-0.931976
-0.971361
-0.989818
-0.996096
-0.99698
-0.996283
-0.995464
-0.995803
-0.99792
-0.999465
-0.999902
-0.999982
-0.999995
-0.999998
-1
-1
-1
-1
-1
-1
-0.846347
-0.850929
-0.907793
-0.946855
-0.978935
-0.992855
-0.997169
-0.998227
-0.997723
-0.997612
-0.998149
-0.999254
-0.999825
-0.999956
-0.999983
-0.999993
-0.999998
-0.999999
-1
-1
-1
-1
-1
-0.851794
-0.86388
-0.921961
-0.956811
-0.983503
-0.994899
-0.99819
-0.999005
-0.99878
-0.998913
-0.999358
-0.999776
-0.999921
-0.999962
-0.999983
-0.999994
-0.999999
-1
-1
-1
-1
-1
-1
-0.85845
-0.877092
-0.923842
-0.959672
-0.985632
-0.996222
-0.998866
-0.999466
-0.999459
-0.999595
-0.999763
-0.999879
-0.99994
-0.999972
-0.999989
-0.999997
-0.999999
-1
-1
-1
-1
-1
-1
-0.865534
-0.893164
-0.932181
-0.961655
-0.985918
-0.99685
-0.999162
-0.999608
-0.999684
-0.999723
-0.999809
-0.999895
-0.999946
-0.999974
-0.99999
-0.999998
-1
-1
-1
-1
-1
-1
-1
-0.872932
-0.908872
-0.941606
-0.964078
-0.985506
-0.996358
-0.999131
-0.999606
-0.999682
-0.999691
-0.999803
-0.999886
-0.999925
-0.999954
-0.999983
-0.999996
-1
-1
-1
-1
-1
-1
-1
-0.880663
-0.924667
-0.950801
-0.965925
-0.983354
-0.995163
-0.998898
-0.999527
-0.999593
-0.999629
-0.999761
-0.999817
-0.999844
-0.999904
-0.999973
-0.999996
-1
-1
-1
-1
-1
-1
-1
-0.888329
-0.935232
-0.957071
-0.969682
-0.985509
-0.995498
-0.998688
-0.999348
-0.999367
-0.999509
-0.999631
-0.999637
-0.999645
-0.999745
-0.999921
-0.99999
-1
-1
-1
-1
-1
-1
-1
-0.895625
-0.938364
-0.963108
-0.975137
-0.988909
-0.996045
-0.998479
-0.999069
-0.999083
-0.999285
-0.999381
-0.999212
-0.999069
-0.999357
-0.999791
-0.999968
-0.999995
-1
-1
-1
-1
-1
-1
-0.902687
-0.9329
-0.963592
-0.978778
-0.991193
-0.996392
-0.998153
-0.998646
-0.99878
-0.998942
-0.998881
-0.998388
-0.998096
-0.998674
-0.999534
-0.999904
-0.999976
-0.999996
-1
-1
-1
-1
-1
-0.910541
-0.937955
-0.965859
-0.982674
-0.992975
-0.996511
-0.997663
-0.99805
-0.99841
-0.998545
-0.998291
-0.997598
-0.9972
-0.997845
-0.999103
-0.99977
-0.999944
-0.999991
-0.999999
-1
-1
-1
-1
-0.9188
-0.94515
-0.970228
-0.987017
-0.994392
-0.996457
-0.997087
-0.997344
-0.997915
-0.99806
-0.997612
-0.996973
-0.996631
-0.997222
-0.998712
-0.999644
-0.99992
-0.999988
-1
-1
-1
-1
-1
-0.92746
-0.953545
-0.975919
-0.990198
-0.995096
-0.996338
-0.99669
-0.996881
-0.997307
-0.99749
-0.997231
-0.996714
-0.996364
-0.996835
-0.998399
-0.999563
-0.999908
-0.99999
-1
-1
-1
-1
-1
-0.935778
-0.960093
-0.979757
-0.990998
-0.994954
-0.996004
-0.996306
-0.996543
-0.996775
-0.996924
-0.996831
-0.996465
-0.996225
-0.996767
-0.998444
-0.999596
-0.99992
-0.999986
-0.999999
-1
-1
-1
-1
-0.943258
-0.963909
-0.980099
-0.990259
-0.993939
-0.995057
-0.995645
-0.996129
-0.996359
-0.996432
-0.996412
-0.996112
-0.996107
-0.996826
-0.998587
-0.999564
-0.999904
-0.999982
-0.999998
-1
-1
-1
-1
-0.950101
-0.966683
-0.979253
-0.987742
-0.991428
-0.993307
-0.994745
-0.995628
-0.995908
-0.995913
-0.995922
-0.995929
-0.996594
-0.998069
-0.999341
-0.999891
-0.999992
-1
-1
-1
-1
-1
-1
-0.956886
-0.969813
-0.978884
-0.985387
-0.989591
-0.992677
-0.994654
-0.995436
-0.995644
-0.99571
-0.995809
-0.996124
-0.997479
-0.999157
-0.99981
-0.999985
-1
-1
-1
-1
-1
-1
-1
-0.963028
-0.973328
-0.979496
-0.985453
-0.989756
-0.99315
-0.994964
-0.995545
-0.995825
-0.995977
-0.996336
-0.997058
-0.998509
-0.999571
-0.999927
-0.999997
-1
-1
-1
-1
-1
-1
-1
-0.967853
-0.976765
-0.981724
-0.98701
-0.991201
-0.994235
-0.995345
-0.995951
-0.996662
-0.99707
-0.997885
-0.998791
-0.999636
-0.999939
-0.999996
-1
-1
-1
-1
-1
-1
-1
-1
-0.971195
-0.979289
-0.985174
-0.990196
-0.993376
-0.99501
-0.995887
-0.99712
-0.998199
-0.998617
-0.999264
-0.999678
-0.999921
-0.999993
-1
-1
-1
-1
-1
-1
-1
-1
-1
-0.973619
-0.981052
-0.987097
-0.991879
-0.994465
-0.995946
-0.997357
-0.998938
-0.999564
-0.999716
-0.999881
-0.999965
-0.999996
-1
-1
-1
-1
-1
-1
-1
-1
-1
-1
-0.97857
-0.984815
-0.990034
-0.994097
-0.996558
-0.998278
-0.99943
-0.999854
-0.999955
-0.999972
-0.999995
-1
-1
-1
-1
-1
-1
-1
-1
-1
-1
-1
-1
0.805286
0.725428
0.502751
0.238872
0.625885
0.571436
0.392809
0.211481
0.400207
0.312536
0.187637
0.0819613
0.0783473
-0.00422334
-0.116649
-0.208824
-0.423246
-0.466089
-0.539305
-0.602227
-0.640954
-0.641359
-0.640558
-0.635135
-0.600088
-0.593891
-0.588099
-0.582827
-0.58951
-0.58602
-0.582907
-0.579932
-0.643849
-0.639388
-0.635844
-0.632561
-0.764655
-0.769236
-0.772552
-0.774665
-0.881554
-0.885268
-0.887696
-0.889922
-0.943714
-0.945618
-0.947082
-0.948362
-0.973772
-0.973814
-0.974343
-0.975216
-0.988491
-0.988085
-0.987999
-0.98819
-0.995389
-0.994775
-0.994561
-0.994643
-0.998454
-0.998012
-0.997775
-0.997764
-0.999789
-0.999648
-0.999525
-0.999457
-1.00003
-1.00001
-0.999993
-0.999967
-1.00001
-1.00002
-1.00002
-1.00002
-1
-1
-1
-1
-1
-1
-1
-1
-1
-1
-1
-1
-1
-1
-1
-1
-1
-1
-1
-1
-1
-1
-1
-1
-1
-1
-1
-1
-1
-1
-1
-1
-1
-1
-1
-1
-1
-1
-1
-1
-1
-1
-1
-1
-1
-1
-1
-1
-1
-1
-1
-1
-1
-1
-1
-1
-1
-1
-1
-1
-1
-1
-1
-1
-1
-1
-1
-1
-1
-1
-1
-1
-1
-1
-1
-1
-1
-1
-1.00001
-1.00001
-1
-1
-1.00001
-1.00001
-1
-1
-1.00001
-1.00001
-1
-1.00001
-1.00001
-1.00001
0.097567
0.059909
-0.161125
-0.412736
-0.542327
-0.603855
-0.576658
-0.425186
-0.204164
0.111078
0.204166
0.174787
0.132319
0.158006
0.252902
0.217107
-0.0840665
-0.11407
0.0607022
0.0477136
-0.206454
-0.385386
-0.501124
-0.560715
-0.559377
-0.5384
-0.479515
-0.38723
-0.224226
-0.0734903
-0.00233355
0.0196589
0.138759
0.267842
0.109305
-0.208473
-0.142495
-0.0584266
-0.100504
-0.596801
-0.60634
-0.60864
-0.607643
-0.599487
-0.583943
-0.554786
-0.488002
-0.342164
-0.33282
-0.301953
-0.206168
0.0417865
0.108704
-0.135496
-0.332631
-0.304824
-0.348773
-0.412048
-0.662166
-0.670644
-0.692159
-0.698262
-0.680019
-0.67966
-0.65722
-0.577299
-0.537564
-0.471797
-0.293744
-0.0821176
-0.0640013
-0.255164
-0.406128
-0.544934
-0.631735
-0.709335
-0.663366
-0.666845
-0.671701
-0.715209
-0.731006
-0.720882
-0.686382
-0.635514
-0.553883
-0.434903
-0.197206
-0.140122
-0.147238
-0.332526
-0.550286
-0.689612
-0.805606
-0.8576
-0.89318
-0.617974
-0.604594
-0.613338
-0.636632
-0.647522
-0.614079
-0.503851
-0.433676
-0.372063
-0.331146
-0.278337
-0.380513
-0.531062
-0.660411
-0.808601
-0.885643
-0.926773
-0.935102
-0.944716
-0.574972
-0.56546
-0.554417
-0.53719
-0.515657
-0.486949
-0.435327
-0.421761
-0.424922
-0.477196
-0.556059
-0.679584
-0.782853
-0.85496
-0.921275
-0.953245
-0.967017
-0.969726
-0.962771
-0.574805
-0.566804
-0.554907
-0.539193
-0.531677
-0.531192
-0.524227
-0.558019
-0.624581
-0.719975
-0.781328
-0.823628
-0.887081
-0.932555
-0.960497
-0.973365
-0.978787
-0.981038
-0.972807
-0.626683
-0.614905
-0.605968
-0.605251
-0.600298
-0.617549
-0.643512
-0.691992
-0.762841
-0.837886
-0.88897
-0.918461
-0.946361
-0.965099
-0.975487
-0.98151
-0.984154
-0.985551
-0.980403
-0.776117
-0.760468
-0.68582
-0.662203
-0.655049
-0.670446
-0.719394
-0.776765
-0.842219
-0.890753
-0.923114
-0.944495
-0.961966
-0.973711
-0.980895
-0.985251
-0.987458
-0.988379
-0.985551
-0.892468
-0.881445
-0.827488
-0.791113
-0.77694
-0.765455
-0.785436
-0.825615
-0.879431
-0.9202
-0.940828
-0.953825
-0.96546
-0.975893
-0.983642
-0.987878
-0.989838
-0.990378
-0.988997
-0.949227
-0.938995
-0.911534
-0.890194
-0.886813
-0.885334
-0.900956
-0.919145
-0.93832
-0.956611
-0.965858
-0.971559
-0.973897
-0.981437
-0.987783
-0.990603
-0.991836
-0.991803
-0.991158
-0.975815
-0.97151
-0.957598
-0.950305
-0.949673
-0.949621
-0.95716
-0.963189
-0.970458
-0.980084
-0.985663
-0.989313
-0.989841
-0.991984
-0.99375
-0.993748
-0.99357
-0.99291
-0.992484
-0.988184
-0.986093
-0.980806
-0.97998
-0.979889
-0.980856
-0.984772
-0.985362
-0.987865
-0.99267
-0.995666
-0.996957
-0.997435
-0.997826
-0.99787
-0.997101
-0.994958
-0.993935
-0.993313
-0.994838
-0.994706
-0.993264
-0.993216
-0.992761
-0.993212
-0.995126
-0.995283
-0.996612
-0.99799
-0.998882
-0.999192
-0.999446
-0.999589
-0.999408
-0.998467
-0.995749
-0.994823
-0.993909
-0.997953
-0.998374
-0.998157
-0.997948
-0.997355
-0.997714
-0.99822
-0.998535
-0.999179
-0.999518
-0.999724
-0.999778
-0.999852
-0.999934
-0.999832
-0.999162
-0.996989
-0.995564
-0.994408
-0.999374
-0.999566
-0.999562
-0.999409
-0.999033
-0.999088
-0.999241
-0.9995
-0.999743
-0.99984
-0.999901
-0.999925
-0.999946
-0.999993
-0.999948
-0.999495
-0.997866
-0.996089
-0.994848
-0.999908
-0.999947
-0.999933
-0.999905
-0.999783
-0.999661
-0.999712
-0.999819
-0.999911
-0.999943
-0.999963
-0.999972
-0.999978
-1
-1
-0.999746
-0.998535
-0.996467
-0.995247
-1.00001
-1.00001
-1.00001
-1.00001
-0.999978
-0.999915
-0.999938
-0.999955
-0.99998
-0.999988
-0.999991
-0.999991
-0.999995
-1.00001
-1.00001
-0.999793
-0.998775
-0.996774
-0.995621
-1.00001
-1.00001
-1.00001
-1.00001
-1.00001
-0.999997
-0.999997
-0.999997
-0.999999
-1
-1
-0.999999
-1
-1.00001
-1
-0.999793
-0.998859
-0.997046
-0.995968
-1
-1
-1
-1
-1.00001
-1
-1
-1
-1
-1
-1
-1
-1
-1.00001
-1
-0.99981
-0.998996
-0.997441
-0.996296
-1
-1
-1
-1
-1
-1
-1
-1
-1
-1
-1
-1
-1
-1.00001
-1
-0.999853
-0.999181
-0.997813
-0.996586
-1
-1
-1
-1
-1
-1
-1
-1
-1
-1
-1
-1
-1
-1.00001
-1
-0.999893
-0.999363
-0.998126
-0.996843
-1
-1
-1
-1
-1
-1
-1
-1
-1
-1
-1
-1
-1
-1.00001
-1.00001
-0.999933
-0.999506
-0.998339
-0.997067
-1
-1
-1
-1
-1
-1
-1
-1
-1
-1
-1
-1
-1
-1
-1.00001
-0.999959
-0.999592
-0.998458
-0.997268
-1
-1
-1
-1
-1
-1
-1
-1
-1
-1
-1
-1
-1
-1
-1.00001
-0.999965
-0.999619
-0.998536
-0.997482
-1
-1
-1
-1
-1
-1
-1
-1
-1
-1
-1
-1
-1
-1
-1.00001
-0.99997
-0.999643
-0.99864
-0.997696
-1
-1
-1
-1
-1
-1
-1
-1
-1
-1
-1
-1
-1
-1
-1.00001
-0.999974
-0.999692
-0.998816
-0.997899
-1
-1
-1
-1
-1
-1
-1
-1
-1
-1
-1
-1
-1
-1
-1.00001
-0.99998
-0.999749
-0.998988
-0.998079
-1
-1
-1
-1
-1
-1
-1
-1
-1
-1
-1
-1
-1
-1
-1
-0.999979
-0.999784
-0.999113
-0.998233
-1
-1
-1
-1
-1
-1
-1
-0.999998
-0.999997
-0.999998
-0.999999
-1
-1
-1
-1.00001
-0.999991
-0.999833
-0.999212
-0.998372
-1
-1
-1
-1
-1
-0.999999
-0.999996
-0.99999
-0.99999
-0.99999
-0.999992
-0.999994
-0.999997
-1
-1.00001
-0.999992
-0.999836
-0.999259
-0.9985
-1
-1
-1
-1
-0.999998
-0.999992
-0.999985
-0.999974
-0.999973
-0.999974
-0.999978
-0.999983
-0.999991
-0.999999
-1
-0.999984
-0.999839
-0.999367
-0.998629
-1
-1
-1
-1
-0.99999
-0.999977
-0.999958
-0.999948
-0.999948
-0.999949
-0.999955
-0.999966
-0.99998
-0.999992
-1
-0.999987
-0.999881
-0.999484
-0.998733
-1
-1
-1
-0.999995
-0.999981
-0.99996
-0.999927
-0.999919
-0.999914
-0.999912
-0.999917
-0.999934
-0.999957
-0.999977
-0.999995
-0.99999
-0.999918
-0.999588
-0.998816
-1
-1
-1
-0.999988
-0.999966
-0.999939
-0.999899
-0.999885
-0.999865
-0.999863
-0.99987
-0.999889
-0.999918
-0.999949
-0.999982
-0.999991
-0.999948
-0.999647
-0.99888
-1
-1
-0.999997
-0.99998
-0.999952
-0.999921
-0.999876
-0.999848
-0.999829
-0.999834
-0.999845
-0.99986
-0.999889
-0.99993
-0.999965
-0.999995
-0.999978
-0.999761
-0.998974
-1
-1
-0.99999
-0.999967
-0.999931
-0.999891
-0.999848
-0.99982
-0.999816
-0.999829
-0.999847
-0.999862
-0.999884
-0.999917
-0.999949
-0.999991
-0.999969
-0.99969
-0.998777
-1.00001
-1
-0.999984
-0.999956
-0.999917
-0.999873
-0.999831
-0.999808
-0.99982
-0.99985
-0.999871
-0.999878
-0.999883
-0.999907
-0.999944
-0.999988
-0.999949
-0.999652
-0.998836
-1.00001
-0.999998
-0.999979
-0.999948
-0.999912
-0.999865
-0.999821
-0.999806
-0.999831
-0.999864
-0.999888
-0.999898
-0.999897
-0.999907
-0.999934
-0.999977
-0.999934
-0.999664
-0.999036
-1
-0.999996
-0.999973
-0.999945
-0.999914
-0.999874
-0.999824
-0.999807
-0.99983
-0.999864
-0.999892
-0.999909
-0.999914
-0.99992
-0.999942
-0.999976
-0.99995
-0.99979
-0.999347
-1.00001
-0.999996
-0.999971
-0.999944
-0.999915
-0.999879
-0.999831
-0.999805
-0.99982
-0.999857
-0.999891
-0.999912
-0.999924
-0.999934
-0.999952
-0.999976
-0.999976
-0.999925
-0.999695
)
;

boundaryField
{
    leftWall
    {
        type            zeroGradient;
    }
    rightWall
    {
        type            zeroGradient;
    }
    lowerWall
    {
        type            zeroGradient;
    }
    atmosphere
    {
        type            zeroGradient;
    }
    defaultFaces
    {
        type            empty;
    }
}


// ************************************************************************* //
