/*--------------------------------*- C++ -*----------------------------------*\
| =========                 |                                                 |
| \\      /  F ield         | foam-extend: Open Source CFD                    |
|  \\    /   O peration     | Version:     4.1                                |
|   \\  /    A nd           | Web:         http://www.foam-extend.org         |
|    \\/     M anipulation  |                                                 |
\*---------------------------------------------------------------------------*/
FoamFile
{
    version     2.0;
    format      ascii;
    class       volScalarField;
    location    "0.8";
    object      C_0;
}
// * * * * * * * * * * * * * * * * * * * * * * * * * * * * * * * * * * * * * //

dimensions      [0 0 0 0 0 0 0];

internalField   nonuniform List<scalar> 
2268
(
1.00428
1.00179
0.997442
0.994579
0.99482
0.993867
0.992064
0.990292
0.989555
0.9897
0.990677
0.992086
0.993667
0.995215
0.996755
0.998193
0.99937
1.00023
1.00126
1.0025
1.00348
1.00405
1.004
1.00124
0.997753
0.992233
0.988678
0.989984
0.990184
0.989426
0.988373
0.988135
0.988634
0.989776
0.991203
0.992776
0.994301
0.99599
0.997754
0.99934
1.00064
1.00196
1.00337
1.00422
1.00506
1.00537
0.994167
0.98814
0.980352
0.976179
0.979969
0.982695
0.984119
0.984542
0.985252
0.986345
0.987649
0.988946
0.990389
0.991742
0.993679
0.996081
0.998555
1.00103
1.00274
1.00427
1.00456
1.00635
1.00804
0.982884
0.972602
0.96183
0.958146
0.966038
0.972565
0.977011
0.979426
0.981174
0.982737
0.983827
0.98454
0.985502
0.986267
0.988183
0.991053
0.994648
0.999522
1.00105
1.00262
1.00159
1.00571
1.01098
0.966768
0.951078
0.936864
0.936306
0.949955
0.961083
0.968809
0.973298
0.975761
0.977032
0.977132
0.976366
0.976176
0.975331
0.975779
0.977451
0.981465
0.990857
0.990417
0.992682
0.989366
0.998674
1.01166
0.944379
0.923521
0.906085
0.912835
0.933427
0.948912
0.959248
0.965125
0.967847
0.967415
0.965391
0.961718
0.959268
0.954453
0.949048
0.944123
0.94539
0.963102
0.957721
0.963622
0.957589
0.976406
1.00544
0.913112
0.889201
0.870368
0.889353
0.916684
0.9347
0.945848
0.9518
0.954584
0.950439
0.944859
0.936246
0.92972
0.916405
0.894256
0.869704
0.86076
0.8938
0.879409
0.896016
0.890717
0.924761
0.98444
0.868175
0.84471
0.82954
0.863621
0.89542
0.912758
0.92237
0.927084
0.930063
0.920201
0.909404
0.892904
0.879085
0.84934
0.788815
0.72126
0.689763
0.74813
0.724848
0.759921
0.767855
0.825028
0.936391
-0.0422541
-0.128209
-0.138752
-0.139843
-0.136961
-0.134497
-0.134886
-0.143212
-0.155034
-0.158782
-0.159268
-0.158413
-0.149868
-0.137397
-0.100384
0.00386207
0.0351949
0.0286414
0.0470317
-0.0379568
-0.11689
-0.123539
-0.131665
-0.163827
-0.189292
-0.212068
-0.229704
-0.242392
-0.246199
-0.24249
-0.23498
-0.214248
-0.197576
-0.180238
-0.111266
-0.0180661
0.0127197
0.0677042
-0.0255883
-0.0894402
-0.0749681
-0.0765251
-0.151695
-0.217908
-0.284428
-0.343859
-0.370928
-0.379377
-0.370009
-0.336201
-0.248765
-0.196278
-0.19469
-0.255478
-0.125769
-0.0393082
0.0875249
-0.00424405
-0.0493963
-0.00526253
-0.00600276
-0.100687
-0.166537
-0.225347
-0.375063
-0.445058
-0.472355
-0.478375
-0.441507
-0.274336
-0.115364
-0.0729047
-0.304232
-0.219321
-0.109648
0.0984087
0.0214216
-0.00673442
0.0393149
0.00907894
-0.0541001
-0.114057
-0.0973248
-0.287895
-0.382827
-0.435495
-0.489177
-0.511645
-0.321919
-0.053339
0.0866962
-0.240877
-0.247564
-0.165081
0.103963
0.0469985
0.0270976
0.0188737
-0.0667822
-0.0987196
-0.194554
-0.0688054
-0.113756
-0.183323
-0.225232
-0.34104
-0.47894
-0.306062
-0.00847705
0.199979
-0.0922353
-0.192481
-0.177027
0.107142
0.0737862
0.055381
-0.0466204
-0.230443
-0.257256
-0.378016
-0.185677
0.0234605
0.0387835
0.0522728
-0.0846374
-0.308588
-0.161231
0.0477554
0.248218
0.0700531
-0.122873
-0.151664
0.10755
0.0980142
0.0759205
-0.127001
-0.378463
-0.43585
-0.526218
-0.368032
-0.0488471
0.0698686
0.193643
0.104892
-0.068864
0.0114875
0.110784
0.256856
0.170278
-0.0852835
-0.127794
0.0981845
0.767959
0.750301
0.750776
0.813443
0.847383
0.855622
0.857295
0.85695
0.86125
0.839141
0.817683
0.782793
0.748696
0.676233
0.508489
0.337685
0.266163
0.36474
0.34974
0.40627
0.469219
0.580284
0.802268
0.554953
0.554758
0.593399
0.688459
0.714804
0.66593
0.629455
0.608419
0.613118
0.568498
0.533528
0.468137
0.361997
0.199569
-0.067209
-0.203302
-0.198366
-0.117602
-0.124638
-0.0776303
-0.0204947
0.130686
0.502123
0.236966
0.300289
0.379862
0.383649
0.301042
0.120292
0.00524082
-0.0423626
-0.0985342
-0.146827
-0.174945
-0.123302
-0.255592
-0.332404
-0.376026
-0.331393
-0.24705
-0.185896
-0.145406
-0.0410798
0.103337
0.339325
0.427703
-0.0512977
0.0294024
0.0170473
-0.294107
-0.50974
-0.584516
-0.619754
-0.615355
-0.643637
-0.63093
-0.595033
-0.540415
-0.554254
-0.494186
-0.409911
-0.252334
-0.108814
-0.00401019
0.0600136
0.109163
0.158271
0.185416
0.17672
-0.253321
-0.23118
-0.389683
-0.645632
-0.772172
-0.771284
-0.753015
-0.731532
-0.718483
-0.68898
-0.658953
-0.624477
-0.588405
-0.520755
-0.453185
-0.398501
-0.356369
-0.317405
-0.290976
-0.28435
-0.293684
-0.302084
-0.368015
-0.393053
-0.429727
-0.655946
-0.775753
-0.781755
-0.676665
-0.577147
-0.542423
-0.521309
-0.505481
-0.49131
-0.480208
-0.463064
-0.451898
-0.45271
-0.482136
-0.508254
-0.530218
-0.538031
-0.530481
-0.595508
-0.624036
-0.638093
-0.500678
-0.593706
-0.743812
-0.710956
-0.594547
-0.511536
-0.482179
-0.47754
-0.474805
-0.474841
-0.479627
-0.488411
-0.499151
-0.516558
-0.552486
-0.597804
-0.636089
-0.658578
-0.662732
-0.650712
-0.646351
-0.629421
-0.610943
-0.595763
-0.706869
-0.757687
-0.64109
-0.574104
-0.556362
-0.563349
-0.574598
-0.587496
-0.598879
-0.604884
-0.611614
-0.62044
-0.629981
-0.650595
-0.676041
-0.692303
-0.700303
-0.694812
-0.664837
-0.634306
-0.611229
-0.59718
-0.675699
-0.769733
-0.744285
-0.646877
-0.609068
-0.658708
-0.689906
-0.703214
-0.713419
-0.718578
-0.720339
-0.725259
-0.728321
-0.723403
-0.720615
-0.72231
-0.720536
-0.717647
-0.712806
-0.700343
-0.681127
-0.667015
-0.652565
-0.729383
-0.784623
-0.716963
-0.667338
-0.679458
-0.760724
-0.801163
-0.816364
-0.824479
-0.823956
-0.825875
-0.840018
-0.843907
-0.82397
-0.794732
-0.776157
-0.758002
-0.74685
-0.739854
-0.738749
-0.739175
-0.738591
-0.751608
-0.769086
-0.79464
-0.733354
-0.693289
-0.767942
-0.850102
-0.880655
-0.890098
-0.890921
-0.88941
-0.9081
-0.939656
-0.949607
-0.945745
-0.918001
-0.89572
-0.878042
-0.863439
-0.849819
-0.848912
-0.850376
-0.854336
-0.871587
-0.798402
-0.794018
-0.744477
-0.723621
-0.80779
-0.889104
-0.921627
-0.92841
-0.919934
-0.923865
-0.957973
-0.980632
-0.987844
-0.988438
-0.980921
-0.97491
-0.972872
-0.971782
-0.958624
-0.950022
-0.941568
-0.936071
-0.939697
-0.815974
-0.795058
-0.755967
-0.748198
-0.827068
-0.906262
-0.943681
-0.951069
-0.938082
-0.94436
-0.977381
-0.992549
-0.996917
-0.997841
-0.997506
-0.996961
-0.996918
-0.996153
-0.991841
-0.987598
-0.982218
-0.976681
-0.974256
-0.823865
-0.797205
-0.766202
-0.761631
-0.833494
-0.906351
-0.947266
-0.964557
-0.951863
-0.959232
-0.986166
-0.996158
-0.99876
-0.999499
-0.999738
-0.999753
-0.999262
-0.997718
-0.995689
-0.99425
-0.993066
-0.991413
-0.989647
-0.82781
-0.79983
-0.776246
-0.774863
-0.840829
-0.911152
-0.950486
-0.968215
-0.961555
-0.967025
-0.988263
-0.996609
-0.998866
-0.999585
-0.999897
-0.999994
-0.999913
-0.999499
-0.998987
-0.998628
-0.998519
-0.998099
-0.996849
-0.830012
-0.803427
-0.786888
-0.79253
-0.854763
-0.923405
-0.961178
-0.974315
-0.969609
-0.972463
-0.989174
-0.996131
-0.998583
-0.999554
-0.99993
-1.00002
-1.00003
-0.999967
-0.999894
-0.999835
-0.999837
-0.999738
-0.999269
-0.831815
-0.808256
-0.799841
-0.818644
-0.870903
-0.933164
-0.969103
-0.980905
-0.976769
-0.977904
-0.990354
-0.997017
-0.999161
-0.999775
-0.999968
-1.00003
-1.00004
-1.00003
-1.00002
-1.00002
-1.00002
-1.00001
-0.999962
-0.833513
-0.814224
-0.81823
-0.865901
-0.916337
-0.957374
-0.979251
-0.986626
-0.983018
-0.982548
-0.990647
-0.99773
-0.999257
-0.999795
-0.999967
-1.00001
-1.00002
-1.00002
-1.00002
-1.00002
-1.00002
-1.00002
-1.00003
-0.835719
-0.821319
-0.841141
-0.906176
-0.961629
-0.982426
-0.989938
-0.99115
-0.988953
-0.987265
-0.990399
-0.99516
-0.998246
-0.999521
-0.999934
-0.999998
-1
-1
-1
-1
-1
-1
-1.00001
-0.83862
-0.830055
-0.865128
-0.924011
-0.970549
-0.989514
-0.994787
-0.994606
-0.993638
-0.992052
-0.992582
-0.996029
-0.998845
-0.999787
-0.999966
-0.999995
-0.999999
-1
-1
-1
-1
-1
-1
-0.842333
-0.84026
-0.886123
-0.933345
-0.972081
-0.990145
-0.996221
-0.997061
-0.996398
-0.995636
-0.996001
-0.998041
-0.999499
-0.999908
-0.999983
-0.999995
-0.999998
-1
-1
-1
-1
-1
-1
-0.846906
-0.851901
-0.908855
-0.94767
-0.979351
-0.993044
-0.997244
-0.998271
-0.997805
-0.997722
-0.998263
-0.999313
-0.999838
-0.999958
-0.999984
-0.999993
-0.999998
-0.999999
-1
-1
-1
-1
-1
-0.85243
-0.864955
-0.922776
-0.957211
-0.983683
-0.994978
-0.998221
-0.999029
-0.998834
-0.998975
-0.999407
-0.999792
-0.999923
-0.999963
-0.999984
-0.999994
-0.999999
-1
-1
-1
-1
-1
-1
-0.859148
-0.878185
-0.924675
-0.960036
-0.985764
-0.996252
-0.998874
-0.999477
-0.999484
-0.999617
-0.999774
-0.999881
-0.99994
-0.999972
-0.999989
-0.999997
-0.999999
-1
-1
-1
-1
-1
-1
-0.866265
-0.89417
-0.932808
-0.961879
-0.985984
-0.996856
-0.999159
-0.999609
-0.99969
-0.999724
-0.999809
-0.999895
-0.999947
-0.999974
-0.99999
-0.999998
-1
-1
-1
-1
-1
-1
-1
-0.873665
-0.909767
-0.942054
-0.964205
-0.985565
-0.996366
-0.999125
-0.999604
-0.999682
-0.999688
-0.999802
-0.999886
-0.999925
-0.999954
-0.999983
-0.999996
-1
-1
-1
-1
-1
-1
-1
-0.881388
-0.925463
-0.951175
-0.966052
-0.983452
-0.995183
-0.998888
-0.999519
-0.999587
-0.999623
-0.999758
-0.999815
-0.999843
-0.999903
-0.999972
-0.999996
-1
-1
-1
-1
-1
-1
-1
-0.889027
-0.935836
-0.957371
-0.969806
-0.985563
-0.995506
-0.998672
-0.999335
-0.999354
-0.9995
-0.999625
-0.999634
-0.999644
-0.999744
-0.999921
-0.99999
-1
-1
-1
-1
-1
-1
-1
-0.89628
-0.938812
-0.963328
-0.975273
-0.98898
-0.996047
-0.998457
-0.999049
-0.999063
-0.999273
-0.999372
-0.999211
-0.999069
-0.999355
-0.999791
-0.999969
-0.999995
-1
-1
-1
-1
-1
-1
-0.903342
-0.933441
-0.963846
-0.978937
-0.991258
-0.996385
-0.998123
-0.998618
-0.998754
-0.998927
-0.998876
-0.99839
-0.998095
-0.998669
-0.999535
-0.999905
-0.999977
-0.999996
-1
-1
-1
-1
-1
-0.911191
-0.93843
-0.966103
-0.982825
-0.993023
-0.996496
-0.997626
-0.998011
-0.998378
-0.998525
-0.998283
-0.997595
-0.997198
-0.997842
-0.999106
-0.999772
-0.999944
-0.999991
-0.999999
-1
-1
-1
-1
-0.919444
-0.945594
-0.970474
-0.98715
-0.994422
-0.996442
-0.997055
-0.997306
-0.997877
-0.998035
-0.997598
-0.996967
-0.996628
-0.997223
-0.998718
-0.999648
-0.999921
-0.999989
-1
-1
-1
-1
-1
-0.928127
-0.953975
-0.976113
-0.990228
-0.995083
-0.996321
-0.996667
-0.996856
-0.997272
-0.997465
-0.99721
-0.996703
-0.996361
-0.996841
-0.998409
-0.999569
-0.999909
-0.99999
-1
-1
-1
-1
-1
-0.936395
-0.960358
-0.979741
-0.990903
-0.994909
-0.995972
-0.996283
-0.996526
-0.996755
-0.996905
-0.996814
-0.996453
-0.996221
-0.996775
-0.99846
-0.999603
-0.999922
-0.999986
-0.999999
-1
-1
-1
-1
-0.943825
-0.964073
-0.979965
-0.990106
-0.99382
-0.99498
-0.995605
-0.996113
-0.996347
-0.996419
-0.996399
-0.9961
-0.996102
-0.996832
-0.9986
-0.999569
-0.999906
-0.999983
-0.999998
-1
-1
-1
-1
-0.950681
-0.966874
-0.979101
-0.987484
-0.99124
-0.993214
-0.994716
-0.99562
-0.995901
-0.995903
-0.995912
-0.995925
-0.996605
-0.998087
-0.999351
-0.999893
-0.999992
-1
-1
-1
-1
-1
-1
-0.957466
-0.970051
-0.978831
-0.985269
-0.989512
-0.992656
-0.994652
-0.995436
-0.995642
-0.995707
-0.995808
-0.996128
-0.997498
-0.999172
-0.999815
-0.999985
-1
-1
-1
-1
-1
-1
-1
-0.963529
-0.973597
-0.979537
-0.985435
-0.989742
-0.993157
-0.994973
-0.995544
-0.995824
-0.99598
-0.996345
-0.997075
-0.99853
-0.999581
-0.99993
-0.999997
-1
-1
-1
-1
-1
-1
-1
-0.968223
-0.976985
-0.981904
-0.987123
-0.991275
-0.994266
-0.995344
-0.995941
-0.996663
-0.997077
-0.997897
-0.998807
-0.999644
-0.999941
-0.999996
-1
-1
-1
-1
-1
-1
-1
-1
-0.971449
-0.979375
-0.985266
-0.990279
-0.993419
-0.995006
-0.995857
-0.997085
-0.998185
-0.998614
-0.999263
-0.99968
-0.999922
-0.999993
-1
-1
-1
-1
-1
-1
-1
-1
-1
-0.97389
-0.981102
-0.987059
-0.991846
-0.994436
-0.995888
-0.997274
-0.998896
-0.999554
-0.999711
-0.999879
-0.999965
-0.999996
-1
-1
-1
-1
-1
-1
-1
-1
-1
-1
-0.978973
-0.984939
-0.989945
-0.993957
-0.996437
-0.998192
-0.999391
-0.999847
-0.999954
-0.999972
-0.999995
-1
-1
-1
-1
-1
-1
-1
-1
-1
-1
-1
-1
0.805289
0.725274
0.502392
0.23933
0.625995
0.571488
0.392666
0.211175
0.399612
0.311777
0.186294
0.0798888
0.0762674
-0.00649826
-0.119386
-0.211955
-0.424716
-0.467686
-0.540819
-0.603484
-0.642001
-0.642483
-0.641746
-0.636265
-0.600807
-0.59455
-0.588719
-0.583426
-0.589843
-0.586291
-0.583139
-0.580142
-0.643895
-0.639266
-0.63552
-0.632033
-0.763615
-0.768286
-0.771628
-0.773725
-0.88067
-0.884537
-0.887072
-0.889359
-0.943212
-0.945196
-0.946733
-0.94808
-0.973601
-0.973648
-0.974198
-0.975098
-0.988451
-0.988041
-0.987953
-0.988148
-0.99539
-0.994765
-0.994541
-0.994615
-0.998458
-0.99801
-0.997764
-0.997747
-0.99979
-0.999649
-0.999523
-0.999452
-1.00003
-1.00001
-0.999993
-0.999966
-1.00001
-1.00002
-1.00002
-1.00002
-1
-1
-1
-1
-1
-1
-1
-1
-1
-1
-1
-1
-1
-1
-1
-1
-1
-1
-1
-1
-1
-1
-1
-1
-1
-1
-1
-1
-1
-1
-1
-1
-1
-1
-1
-1
-1
-1
-1
-1
-1
-1
-1
-1
-1
-1
-1
-1
-1
-1
-1
-1
-1
-1
-1
-1
-1
-1
-1
-1
-1
-1
-1
-1
-1
-1
-1
-1
-1
-1
-1
-1
-1
-1
-1
-1
-1
-1
-1.00001
-1.00001
-1
-1
-1.00001
-1.00001
-1
-1
-1.00001
-1.00001
-1
-1.00001
-1.00001
-1.00001
0.0986317
0.0597733
-0.165704
-0.417649
-0.546211
-0.604279
-0.576335
-0.422724
-0.19961
0.116416
0.206329
0.175457
0.133025
0.158622
0.25343
0.217246
-0.0843171
-0.114057
0.0639052
0.0464491
-0.211186
-0.3886
-0.503373
-0.561332
-0.558899
-0.536851
-0.476958
-0.383556
-0.218557
-0.0681406
0.00123732
0.0226665
0.140234
0.268594
0.111239
-0.208359
-0.139841
-0.05074
-0.104096
-0.597579
-0.605762
-0.60839
-0.607437
-0.599252
-0.583382
-0.553735
-0.48623
-0.3397
-0.331366
-0.301469
-0.205751
0.0432951
0.110203
-0.134853
-0.329282
-0.296393
-0.336496
-0.415216
-0.662906
-0.670521
-0.692178
-0.698441
-0.680265
-0.679874
-0.656987
-0.576669
-0.53783
-0.472943
-0.294289
-0.0817224
-0.0621312
-0.254368
-0.404516
-0.537225
-0.622003
-0.701357
-0.664086
-0.667373
-0.671785
-0.715207
-0.73125
-0.721598
-0.687362
-0.636452
-0.554933
-0.436426
-0.198115
-0.139707
-0.145872
-0.33024
-0.547718
-0.686794
-0.801818
-0.853898
-0.890486
-0.618871
-0.605148
-0.613537
-0.637162
-0.64856
-0.6166
-0.50627
-0.435244
-0.372923
-0.331434
-0.278192
-0.377861
-0.528098
-0.657373
-0.806366
-0.884083
-0.925309
-0.93359
-0.943575
-0.575572
-0.566131
-0.555283
-0.538279
-0.516909
-0.488359
-0.43593
-0.421577
-0.423938
-0.47497
-0.553415
-0.677118
-0.780572
-0.8529
-0.920038
-0.952482
-0.966401
-0.969147
-0.962112
-0.57501
-0.567117
-0.555503
-0.539525
-0.531372
-0.5303
-0.523027
-0.555199
-0.620997
-0.716953
-0.778873
-0.821879
-0.885729
-0.931608
-0.959927
-0.972978
-0.978451
-0.980724
-0.972362
-0.625902
-0.614234
-0.60532
-0.604556
-0.599587
-0.616304
-0.641705
-0.689385
-0.759925
-0.835836
-0.887585
-0.917481
-0.945691
-0.964705
-0.975236
-0.981301
-0.983937
-0.985316
-0.980083
-0.775209
-0.760063
-0.684976
-0.660749
-0.653297
-0.668271
-0.716864
-0.774219
-0.840227
-0.889421
-0.922241
-0.943884
-0.961564
-0.973474
-0.980751
-0.98512
-0.987295
-0.988192
-0.985307
-0.892021
-0.881547
-0.827358
-0.790176
-0.775262
-0.763658
-0.783011
-0.823394
-0.877946
-0.919338
-0.940285
-0.953446
-0.965203
-0.975737
-0.983573
-0.987801
-0.989705
-0.990233
-0.98882
-0.949051
-0.939051
-0.911358
-0.889371
-0.885633
-0.884068
-0.899573
-0.918073
-0.93763
-0.956189
-0.965559
-0.97131
-0.973674
-0.981286
-0.987757
-0.990566
-0.991727
-0.991689
-0.991036
-0.975739
-0.971512
-0.957502
-0.949867
-0.94905
-0.948957
-0.956498
-0.962651
-0.970122
-0.979891
-0.985544
-0.989198
-0.989746
-0.991907
-0.99374
-0.993725
-0.993481
-0.992818
-0.992397
-0.98815
-0.986067
-0.980708
-0.97976
-0.979597
-0.980568
-0.984521
-0.985111
-0.987681
-0.992581
-0.995627
-0.996912
-0.99741
-0.997803
-0.997865
-0.997084
-0.994885
-0.993859
-0.993243
-0.994805
-0.994666
-0.993206
-0.993127
-0.992647
-0.993107
-0.995051
-0.995199
-0.996551
-0.99796
-0.99887
-0.999178
-0.999439
-0.999584
-0.999404
-0.998451
-0.99568
-0.994762
-0.993848
-0.99793
-0.998352
-0.998135
-0.997917
-0.997309
-0.99768
-0.998197
-0.998513
-0.999165
-0.999511
-0.999721
-0.999775
-0.999849
-0.999933
-0.99983
-0.999147
-0.996932
-0.995516
-0.994354
-0.999364
-0.999559
-0.999555
-0.999397
-0.999011
-0.999074
-0.999232
-0.999495
-0.99974
-0.999837
-0.9999
-0.999924
-0.999945
-0.999992
-0.999948
-0.999487
-0.997834
-0.996052
-0.994799
-0.999906
-0.999946
-0.999931
-0.999902
-0.999775
-0.999654
-0.999707
-0.999817
-0.99991
-0.999942
-0.999962
-0.999971
-0.999978
-1
-1
-0.999743
-0.998519
-0.996436
-0.995201
-1.00001
-1.00001
-1.00001
-1
-0.999976
-0.999913
-0.999936
-0.999955
-0.99998
-0.999988
-0.999991
-0.999991
-0.999994
-1.00001
-1.00001
-0.999792
-0.998765
-0.996746
-0.995579
-1.00001
-1.00001
-1.00001
-1.00001
-1.00001
-0.999997
-0.999997
-0.999997
-0.999999
-1
-1
-0.999999
-1
-1.00001
-1
-0.999792
-0.99885
-0.997016
-0.995929
-1
-1
-1
-1
-1.00001
-1
-1
-1
-1
-1
-1
-1
-1
-1.00001
-1
-0.999809
-0.998986
-0.997412
-0.996261
-1
-1
-1
-1
-1
-1
-1
-1
-1
-1
-1
-1
-1
-1.00001
-1
-0.999851
-0.999171
-0.997787
-0.996555
-1
-1
-1
-1
-1
-1
-1
-1
-1
-1
-1
-1
-1
-1.00001
-1
-0.999892
-0.999354
-0.998106
-0.996814
-1
-1
-1
-1
-1
-1
-1
-1
-1
-1
-1
-1
-1
-1.00001
-1.00001
-0.999932
-0.9995
-0.998324
-0.997042
-1
-1
-1
-1
-1
-1
-1
-1
-1
-1
-1
-1
-1
-1
-1.00001
-0.999958
-0.999588
-0.998446
-0.997245
-1
-1
-1
-1
-1
-1
-1
-1
-1
-1
-1
-1
-1
-1
-1.00001
-0.999965
-0.999616
-0.998525
-0.997461
-1
-1
-1
-1
-1
-1
-1
-1
-1
-1
-1
-1
-1
-1
-1.00001
-0.999969
-0.99964
-0.998628
-0.997676
-1
-1
-1
-1
-1
-1
-1
-1
-1
-1
-1
-1
-1
-1
-1.00001
-0.999973
-0.999689
-0.998804
-0.997881
-1
-1
-1
-1
-1
-1
-1
-1
-1
-1
-1
-1
-1
-1
-1.00001
-0.99998
-0.999747
-0.998978
-0.998064
-1
-1
-1
-1
-1
-1
-1
-1
-1
-1
-1
-1
-1
-1
-1
-0.999979
-0.999782
-0.999105
-0.99822
-1
-1
-1
-1
-1
-1
-1
-0.999998
-0.999998
-0.999998
-0.999999
-1
-1
-1
-1.00001
-0.999991
-0.999831
-0.999205
-0.99836
-1
-1
-1
-1
-1
-0.999999
-0.999996
-0.99999
-0.99999
-0.999991
-0.999992
-0.999994
-0.999997
-1
-1.00001
-0.999992
-0.999835
-0.999253
-0.998489
-1
-1
-1
-1
-0.999998
-0.999992
-0.999985
-0.999974
-0.999973
-0.999974
-0.999978
-0.999984
-0.999991
-0.999999
-1
-0.999984
-0.999838
-0.999363
-0.99862
-1
-1
-1
-1
-0.99999
-0.999977
-0.999958
-0.999948
-0.999949
-0.999949
-0.999955
-0.999966
-0.99998
-0.999992
-1
-0.999987
-0.99988
-0.999481
-0.998725
-1
-1
-1
-0.999995
-0.999981
-0.99996
-0.999927
-0.999919
-0.999914
-0.999912
-0.999918
-0.999935
-0.999958
-0.999977
-0.999995
-0.99999
-0.999917
-0.999587
-0.998809
-1
-1
-1
-0.999988
-0.999966
-0.99994
-0.9999
-0.999885
-0.999866
-0.999863
-0.99987
-0.99989
-0.999919
-0.999949
-0.999982
-0.999991
-0.999948
-0.999646
-0.998873
-1
-1
-0.999997
-0.99998
-0.999952
-0.999921
-0.999876
-0.999848
-0.999829
-0.999834
-0.999845
-0.99986
-0.99989
-0.99993
-0.999965
-0.999995
-0.999979
-0.999761
-0.998967
-1
-1
-0.99999
-0.999967
-0.999931
-0.999891
-0.999848
-0.99982
-0.999816
-0.999829
-0.999847
-0.999862
-0.999884
-0.999917
-0.999949
-0.999991
-0.999969
-0.999688
-0.998769
-1.00001
-1
-0.999984
-0.999956
-0.999917
-0.999873
-0.999831
-0.999808
-0.999819
-0.999849
-0.99987
-0.999878
-0.999882
-0.999907
-0.999944
-0.999988
-0.999949
-0.99965
-0.998828
-1.00001
-0.999998
-0.999979
-0.999948
-0.999912
-0.999865
-0.999821
-0.999806
-0.999831
-0.999864
-0.999888
-0.999897
-0.999896
-0.999907
-0.999934
-0.999977
-0.999934
-0.999663
-0.999031
-1
-0.999996
-0.999973
-0.999945
-0.999914
-0.999874
-0.999824
-0.999806
-0.99983
-0.999863
-0.999892
-0.999909
-0.999914
-0.99992
-0.999942
-0.999976
-0.99995
-0.999791
-0.999346
-1.00001
-0.999996
-0.999971
-0.999944
-0.999915
-0.999879
-0.99983
-0.999804
-0.99982
-0.999857
-0.999891
-0.999912
-0.999924
-0.999934
-0.999952
-0.999976
-0.999976
-0.999925
-0.999694
)
;

boundaryField
{
    leftWall
    {
        type            zeroGradient;
    }
    rightWall
    {
        type            zeroGradient;
    }
    lowerWall
    {
        type            zeroGradient;
    }
    atmosphere
    {
        type            zeroGradient;
    }
    defaultFaces
    {
        type            empty;
    }
}


// ************************************************************************* //
