/*--------------------------------*- C++ -*----------------------------------*\
| =========                 |                                                 |
| \\      /  F ield         | foam-extend: Open Source CFD                    |
|  \\    /   O peration     | Version:     4.1                                |
|   \\  /    A nd           | Web:         http://www.foam-extend.org         |
|    \\/     M anipulation  |                                                 |
\*---------------------------------------------------------------------------*/
FoamFile
{
    version     2.0;
    format      ascii;
    class       volScalarField;
    location    "0.8";
    object      p;
}
// * * * * * * * * * * * * * * * * * * * * * * * * * * * * * * * * * * * * * //

dimensions      [1 -1 -2 0 0 0 0];

internalField   nonuniform List<scalar> 
2268
(
1081.3
1076.87
1074.18
1067.61
1063.49
1063.24
1054.85
1050.37
1040.8
1029.16
1010.96
986.978
965.577
943.414
930.715
912.411
897.167
872.491
875.726
838.769
849.113
851.56
851.366
1023.02
1018.17
1014.27
1011.25
1006.48
1005.06
996.961
991.947
983.016
970.876
950.716
926.637
905.244
885.619
873.114
852.77
835.706
815.36
809.633
791.133
781.036
797.855
788.851
965.698
961.26
958.615
956.695
950.761
948.286
938.975
934.993
924.399
914.828
892.635
869.733
847.865
829.576
813.694
798.029
777.366
745.124
740.491
725.118
727.886
727.51
735.05
908.403
905.337
904.641
903.179
896.018
891.904
882.219
876.923
867.018
855.913
832.947
811.947
789.518
773.905
754.096
733.101
712.658
698.732
668.457
666.273
645.011
671.208
659.907
852.288
853.984
850.565
850.969
842.385
836.076
823.385
821.33
811.309
795.26
769.587
752.665
732.606
699.908
693.093
670.901
652.967
632.417
612.803
604.685
587.026
582.558
624.977
799.526
798.338
804.476
802.483
788.564
781.706
767.792
757.235
756.337
735.783
713.049
697.02
673.23
664.767
636.555
609.556
586.568
576.23
547.5
543.761
530.743
535.507
523.868
747.638
753.494
750.768
753.041
736.866
727.212
710.393
703.48
689.195
672.991
653.824
635.714
616.823
589.917
577.159
548.032
528.723
510.68
487.381
471.023
454.282
457.513
473.015
697.602
683.38
710.53
709.964
689.886
675.489
655.916
643.868
631.723
614.708
591.977
572.169
544.355
543.261
518.889
488.27
468.118
446.846
408.433
377.459
410.173
403.998
369.796
903.099
1051.79
820.099
509.583
487.547
399.896
300.064
264.62
248.385
208.952
64.7855
97.3925
74.5652
449.553
320.496
591.868
748.977
831.144
958.915
882.158
980.857
759.591
440.101
456.24
357.818
240.253
251.673
226.927
173.256
28.367
75.8375
-73.4178
354.318
254.247
606.673
645.701
758.258
913.981
802.176
858.716
673.67
349.194
418.321
305.52
207.627
245.851
195.5
130.845
-10.4508
16.1446
-100.987
294.489
327.635
607.221
608.621
741.814
839.009
751.862
746.299
582.633
366.273
334.579
225.075
140.521
247.985
156.569
103.027
-13.049
-48.2777
-51.7464
238.828
421.848
551.82
560.819
661.864
739.339
671.534
647.516
487.871
382.044
295.637
209.479
188.834
192.763
126.804
88.9941
-2.42465
-38.7216
61.0504
225.106
402.529
529.039
519
591.938
630.274
591.604
562.911
391.722
360.704
253.037
175.946
179.611
184.611
106.04
76.5016
7.22176
-32.8724
48.6929
194.073
377.858
490.691
471.894
541.924
522.637
500.902
493.234
359.15
273.914
234.485
167.428
179.183
161.451
91.2666
70.9947
13.555
-21.6476
70.2632
205.222
338.11
446.912
427.954
488.095
448.333
410.402
436.427
328.058
285.957
206.442
153.298
161.923
146.499
127.038
75.5804
2.26152
24.3039
70.2154
205.439
315.362
393.795
383.784
434.728
408.478
622.894
638.13
596.005
651.604
602.951
590.509
565.769
557.925
537.931
523.334
510.708
489.161
478.13
435.605
439.424
415.04
398.152
368.098
354.886
254.2
326.412
308.42
341.684
542.034
526.137
556.208
514.078
519.231
487.946
462.961
450.574
427.181
424.061
405.378
402.806
404.618
394.726
367.875
328.572
302.95
257.076
253.694
254.372
226.348
241.332
263.079
472.476
458.251
429.345
432.326
364.551
376.341
357.02
368.56
335.954
348.027
288.429
339.603
323.392
309.639
311.796
309.748
256.303
224.707
167.288
6.50273
146.303
192.005
210.25
432.214
422.383
390.822
379.337
348.102
358.496
334.028
305.934
300.973
297.098
288.015
243.286
303.165
289.166
291.986
192.888
177.946
176.014
120.903
85.0208
96.9312
110.484
209.173
380.902
367.451
355.036
344.086
309.061
301.302
283.901
279.168
264.545
260.923
257.5
241.705
220.555
263.4
135.181
131.87
267.095
182.286
129.266
80.7623
168.744
160.848
154.836
350.809
345.553
335.046
337.161
322.437
336.416
294.797
252.979
209.353
198.407
192.457
188.648
192.798
190.835
168.254
123.899
97.6116
169.81
-42.0093
-37.8662
182.988
149.271
153.228
347.623
352.209
337.155
324.89
290.682
276.363
241.406
196.756
169.784
165.28
152.625
143.102
135.478
128.14
93.0287
98.3658
76.8877
95.1218
73.3282
54.3446
79.9587
106.528
118.179
308.857
332.152
341.441
299.098
256.852
216.353
170.056
135.559
113.166
112.36
103.273
92.8739
95.5251
99.702
80.8679
110.114
-63.2946
-32.032
123.548
80.6949
56.461
54.4767
62.6332
243.468
244.302
246.563
224.364
186.72
131.877
116.607
88.496
67.4625
69.7816
56.0999
59.8165
59.1104
55.5412
35.2413
60.8815
35.4653
26.2453
48.9591
87.5005
-45.9895
-23.0131
97.0957
200.641
204.315
180.47
104.641
141.247
76.42
70.5519
38.7953
22.8572
39.8247
25.5266
27.9568
21.3852
7.72543
10.2439
16.7032
4.63627
26.4951
33.7439
32.0303
14.7375
16.2075
19.9865
135.448
114.53
95.8718
52.9325
-16.0327
30.7441
28.0621
16.5249
10.5021
26.829
9.54809
5.3031
5.79323
4.822
8.20077
7.13085
4.76843
7.73059
5.33884
4.83134
12.1009
6.41223
9.23572
92.6015
2.25749
88.1695
66.4841
7.274
26.5599
31.7148
15.5301
13.6399
5.13703
3.77682
2.60387
2.2758
1.68288
2.14276
1.04245
1.27682
1.55882
2.01527
1.85913
1.59751
2.44983
3.16384
84.6549
106.088
70.0035
40.6813
12.8902
24.3616
16.3254
18.07
14.3155
3.55482
0.981858
1.59516
1.50068
1.21292
1.00576
0.812685
0.380499
0.594062
0.555818
0.306508
-0.292789
0.810444
0.0681575
68.7031
65.8674
49.0286
15.5367
10.3089
12.6802
11.7615
7.81672
5.75184
0.792543
0.609776
1.02757
0.683304
0.624439
0.443504
0.438043
0.319253
0.17377
-0.16961
-0.34064
-0.155774
0.062171
0.248187
58.2519
52.8835
46.9871
15.7457
-4.14975
-8.46588
13.3464
2.51465
3.23712
-1.17458
-0.441922
0.764989
0.41876
0.528299
0.317541
0.218138
0.0315741
-0.0674935
-0.266087
-0.389768
-0.476921
-0.418915
-0.491321
53.0456
48.2146
33.5006
17.5636
-1.6306
4.59231
7.78014
6.4905
1.49724
-0.0933819
-0.39095
0.0933478
-0.0574079
0.241329
0.0721553
0.146923
-0.0239362
-0.167456
-0.365188
-0.524144
-0.557643
-0.659246
-0.701305
52.3581
50.4849
18.8267
78.4029
-0.132283
6.74638
10.3452
3.15185
1.18763
1.37661
-0.241157
-0.297424
-0.253353
-0.276903
-0.162093
-0.209945
-0.273742
-0.377846
-0.464016
-0.586137
-0.676174
-0.744048
-0.876059
42.7666
47.9887
10.17
-0.588668
2.84362
8.42582
6.5609
1.80503
1.16289
1.88041
-2.33619
-1.44437
-0.575598
-0.29989
-0.293089
-0.315506
-0.277731
-0.394281
-0.48263
-0.68196
-0.717741
-0.903659
-1.0213
38.6177
35.5868
22.2529
-4.28799
8.10783
6.74742
2.97002
3.22118
5.6775
4.72004
-2.49245
-0.961912
-0.699707
-0.411267
-0.380338
-0.263409
-0.467242
-0.549884
-0.635045
-0.768712
-0.85766
-0.961585
-1.01691
42.6506
27.4037
27.3848
14.387
8.6866
3.65684
1.70533
2.02484
1.50832
-2.38385
-2.35522
-0.348103
-0.303845
-0.310128
-0.160722
-0.474635
-0.444871
-0.625443
-0.731209
-0.896882
-0.934601
-1.09207
-1.20012
33.3631
16.0883
45.0453
8.96314
6.19983
3.22563
2.75739
0.722714
-1.78081
-3.2105
0.128336
0.134183
-0.234788
-0.231945
-0.252508
-0.483032
-0.529694
-0.674232
-0.808871
-1.02422
-1.12447
-1.2025
-1.29562
17.0586
18.4495
9.13498
6.51996
5.95383
2.58883
1.47879
0.75892
0.451928
1.42376
1.06133
0.357624
0.135892
0.0773654
-0.432121
-0.42807
-0.624503
-0.774329
-0.915962
-1.0765
-1.15232
-1.29676
-1.47759
23.4759
27.9144
13.6224
7.2045
4.55965
2.54494
2.02997
1.54008
1.20021
1.27688
0.718294
0.511158
0.201951
-0.011252
-0.34303
-0.453302
-0.738395
-0.877725
-1.09473
-1.18049
-1.32899
-1.44844
-1.49849
35.8158
67.3151
20.0846
7.975
4.20191
2.77948
1.81577
1.32095
1.0795
0.963831
0.714453
0.527112
0.333884
-8.31315e-05
-0.340358
-0.559007
-0.798984
-1.00299
-1.17634
-1.36472
-1.50887
-1.64713
-1.7546
12.1634
-1.08913
3.42061
6.47683
3.73796
2.7102
2.14965
1.82007
1.37643
1.14216
0.867837
0.703564
0.118094
-0.157817
-0.424514
-0.69541
-0.936276
-1.1475
-1.32462
-1.4579
-1.62416
-1.75832
-1.84237
13.6224
7.9386
9.04415
5.62999
3.32825
2.34248
1.83956
1.29235
1.12364
1.2351
0.904923
0.28788
0.108131
-0.275716
-0.653638
-0.85929
-1.13328
-1.34132
-1.49351
-1.67368
-1.92085
-2.07115
-2.1474
8.26614
6.68104
8.38996
9.20528
2.46255
2.20111
1.85959
1.1605
1.37274
1.24645
0.725227
0.304988
-0.118442
-0.49225
-0.843618
-1.06972
-1.31588
-1.48169
-1.71743
-1.89399
-2.04344
-2.15804
-2.23363
6.57325
4.60665
6.17519
0.890637
2.17828
1.7403
1.60127
1.15855
0.949445
0.767167
0.346821
-0.149095
-0.479538
-0.752471
-1.18583
-1.37366
-1.59313
-1.73744
-1.9056
-2.02351
-2.20917
-2.44371
-2.61492
18.5308
6.49689
8.09613
3.95035
2.33837
1.54286
1.52013
0.624781
0.52291
-0.0587286
-0.0930767
-0.351784
-0.874246
-1.06052
-1.58351
-1.60809
-1.88059
-1.9818
-2.19758
-2.29926
-2.45092
-2.48723
-2.78991
63.2669
15.8319
9.04747
3.87168
2.19925
1.29389
0.774608
1.24267
-1.01605
-1.2432
-1.11535
-1.24012
-1.64598
-1.6878
-1.87651
-2.04578
-2.1884
-2.29151
-2.43648
-2.48484
-2.6188
-2.7373
-2.95629
-10.625
1.52117
4.88316
2.63981
1.59468
0.832358
-0.16882
-0.384608
-0.493154
-0.849579
-1.46598
-1.63876
-2.2993
-2.18602
-2.47323
-2.55964
-2.60108
-2.6771
-2.80041
-3.00924
-2.90305
-3.00298
-3.319
2.75047
5.8451
2.68394
2.26042
0.852701
0.266592
-0.738545
-0.644455
-1.0696
-1.85826
-2.78295
-3.26554
-2.96544
-2.96712
-2.9005
-2.64687
-2.8392
-2.93001
-3.07212
-3.09532
-3.41412
-3.46043
-3.28167
9.33615
5.01531
2.73713
1.77775
0.129394
-0.113346
-1.09047
-1.06975
-0.656734
-1.59956
-3.49939
-3.37809
-3.75707
-3.41166
-3.04517
-3.23715
-3.633
-3.25722
-3.39356
-3.38815
-3.40996
-3.43778
-3.70704
1.96462
2.7229
0.982441
-0.567949
-0.89599
-1.44045
-1.69413
-2.77378
-3.50093
-3.5855
-3.05402
-3.27288
-3.89029
-3.94098
-4.16203
-3.59628
-3.55483
-3.79095
-3.75151
-3.78343
-3.84341
-3.84723
-3.96784
-3.14203
-1.18324
-1.88948
-2.69839
-2.58322
-2.8775
-2.74463
-3.13771
-3.11088
-3.42618
-3.40793
-3.7052
-4.03276
-4.01214
-3.86152
-3.93212
-4.03818
-4.00778
-4.0192
-3.94165
-4.17285
-4.26642
-4.14684
-2.26139
-3.3829
-2.40379
-3.62922
-3.59224
-3.98023
-3.81826
-3.80941
-3.76636
-4.0454
-3.60561
-3.73073
-4.30746
-4.33105
-4.50884
-4.26975
-4.24662
-4.20765
-4.5377
-4.33545
-4.5944
-4.27871
-4.71749
-1.95522
-2.6535
-4.093
-4.45325
-4.23817
-4.24386
-4.30301
-4.13599
-4.1298
-3.82161
-4.08969
-4.10645
-4.8716
-4.58768
-4.61676
-4.46549
-4.5419
-4.47243
-4.45845
-4.74861
-4.7414
-4.66838
-4.68476
-5.52542
-5.94252
-5.29299
-4.69255
-4.45981
-4.53353
-4.54468
-4.43332
-4.75449
-4.54418
-4.54973
-4.58491
-5.25582
-4.87362
-4.87163
-4.76103
-4.81807
-5.00852
-4.90095
-4.86147
-4.96002
-4.90202
-4.95448
-11.4558
-10.7515
-7.90475
-5.6642
-4.52099
-4.15722
-4.42668
-4.71043
-4.94644
-4.98281
-5.03948
-5.05995
-5.21242
-4.97953
-5.11348
-5.18014
-5.00639
-4.88341
-5.04405
-4.99829
-5.15037
-5.16992
-5.20149
-23.9945
-19.331
-13.7799
-10.4105
-7.86546
-6.37632
-5.37085
-5.33138
-5.32416
-5.31149
-5.44669
-5.41356
-5.3604
-5.20239
-5.30611
-5.12555
-5.22836
-5.20647
-5.31176
-5.29786
-5.29082
-5.35596
-5.38742
-30.3309
-25.1757
-19.2029
-14.8183
-9.65549
-6.83603
-5.90984
-5.86776
-5.8842
-5.77323
-5.65215
-5.58638
-5.54834
-5.57052
-5.33591
-5.50205
-5.59937
-5.394
-5.43407
-5.51005
-5.52872
-5.49384
-5.58613
-56.2349
-43.3906
-30.9726
-21.7826
-15.9027
-11.4929
-8.64892
-6.89493
-6.42455
-5.76069
-5.66132
-5.58048
-5.60933
-5.65349
-5.72341
-5.77121
-5.68245
-5.82594
-5.84683
-5.71974
-5.71923
-5.95581
-5.72363
300.709
323.624
298.469
209.498
246.801
258.788
327.226
380.058
180.502
126.023
273.406
294.299
267.883
237.41
194.859
235.844
154.532
203.662
216.965
235.727
164.698
144.34
79.9254
142.986
122.52
118.45
124.187
137.714
63.7556
71.602
75.2788
85.8849
55.817
52.4008
56.9482
58.8944
19.6264
22.2233
22.3825
21.3022
10.7478
12.7216
10.3822
8.84938
3.47977
2.95482
3.4612
3.52755
0.38653
-0.131039
2.11287
1.05
0.311685
0.194234
0.190436
-0.0217417
-0.576708
-0.630213
-0.753537
-0.850197
-0.806307
-0.892374
-0.956495
-1.05262
-0.984707
-1.07883
-1.16771
-1.28602
-1.13123
-1.21725
-1.2845
-1.38002
-1.12083
-1.178
-1.24692
-1.32855
-1.29184
-1.34593
-1.41455
-1.40541
-1.36637
-1.42712
-1.45495
-1.55338
-1.54784
-1.6014
-1.61828
-1.77514
-1.69072
-1.73102
-1.76794
-1.89452
-1.89209
-1.9446
-2.02259
-2.0916
-2.07424
-2.0672
-2.1636
-2.25252
-2.28623
-2.3831
-2.36241
-2.42134
-2.31854
-2.41281
-2.5453
-2.61018
-2.58768
-2.67826
-2.72453
-2.76134
-2.82536
-2.9149
-2.9842
-3.07613
-2.99312
-3.0445
-3.16467
-3.15178
-3.50157
-3.51965
-3.57869
-3.50848
-3.51172
-3.5319
-3.49586
-3.55791
-3.75249
-3.79601
-3.80468
-3.87924
-4.06993
-4.10566
-4.17893
-4.22799
-4.21671
-4.19104
-4.37662
-4.47572
-4.55636
-4.70405
-4.6504
-4.70187
-4.78225
-4.80673
-4.86186
-4.88432
-4.89263
-4.94755
-4.92316
-5.02597
-5.26041
-5.34032
-5.28314
-5.26644
-5.38004
-5.39308
-5.50397
-5.47174
-5.54924
-5.60653
-5.67221
-5.69723
-5.89159
-5.88457
-5.82429
-5.80861
234.173
446.534
284.762
256.831
191.774
163.34
164.447
130.318
130.945
45.3364
-31.3494
44.2984
88.6963
124.386
242.262
308.346
314.023
324.05
340.539
298.744
272.574
225.179
255.423
170.532
150.964
112.831
95.3533
4.24144
157.411
40.7263
108.011
80.5771
129.139
166.192
213.722
225.998
311.255
348.018
297.077
276.433
187.803
140.001
160.806
152.772
75.8208
41.085
166.733
69.9498
84.0963
134.504
120.965
142.581
97.0596
142.484
152.51
76.1059
67.4905
274.415
218.918
137.737
135.541
119.275
105.878
67.8728
97.2192
57.5475
95.8691
70.3095
63.8835
81.4677
91.3503
70.8775
95.0243
29.6394
25.4932
8.4501
238.507
205.922
112.207
101.974
62.5987
64.6904
60.6828
42.0328
72.161
66.8369
74.2654
77.7136
22.2216
72.2094
35.3115
39.6689
19.5204
31.4338
41.732
154.763
206.062
76.7526
81.4436
68.3618
55.44
67.5006
45.2493
74.6158
-1.71309
13.0441
65.0344
34.8066
31.6132
21.9764
24.2761
23.158
24.287
35.6625
102.067
122.628
110.059
89.0314
98.1087
-74.3217
37.9499
-32.0445
119.361
39.1317
35.9544
22.2616
21.6641
17.1386
16.123
18.4152
14.6384
22.5286
13.4255
103.165
86.6096
88.29
45.0501
22.7697
31.8774
30.1607
16.6112
29.9119
30.7609
-9.06724
5.45059
17.5507
11.2856
13.7508
8.23056
16.0933
14.9307
13.4198
66.5752
44.753
20.7865
-42.9289
14.357
42.2684
25.7688
17.9475
16.6095
13.1927
2.86028
6.80781
6.7409
6.8789
7.89391
6.21259
9.21292
10.134
9.45286
24.3287
-6.46602
-1.16412
36.5038
15.8716
32.3021
29.2136
10.286
15.1685
10.7722
6.86662
5.60096
5.17923
3.74108
5.10051
3.34921
5.9494
7.12045
6.80709
11.2391
-1.83799
-16.2214
15.3769
5.66932
13.2769
8.05689
8.94408
12.1197
3.49996
3.28339
3.0318
2.28438
2.51438
2.80624
1.67499
3.4379
3.06599
1.34404
4.54582
1.80705
0.689399
5.65726
2.85625
6.83349
6.65637
5.76142
4.39976
2.12791
0.794711
0.912788
1.0427
0.432379
1.43835
0.0488716
1.65519
0.386661
-0.572846
1.39037
-2.24649
0.353462
0.233896
1.18497
-1.66901
-2.1563
-2.08316
-0.420783
-0.407002
0.15669
-1.23945
-0.233669
-0.315647
0.436992
-0.399117
0.703636
1.53234
6.06611
0.147081
-0.707839
0.0369396
-1.02903
-1.07017
-1.51541
-0.26591
0.442809
-0.71803
-0.773862
-0.74473
-0.586609
-0.689831
-0.812908
-0.642213
-0.91548
-1.39215
0.159901
1.68714
-0.913035
-1.12949
-1.53199
-1.2437
-1.1064
-0.817247
-1.67633
-1.43057
-1.03885
-0.809708
-0.894378
-1.02766
-0.868302
-0.93995
-0.800047
-0.834081
-0.400592
-0.303686
0.669842
-1.14262
-1.25624
-1.16308
-1.46807
-1.79415
-1.44959
-1.41131
-1.40594
-1.26472
-1.14454
-1.14905
-1.1198
-1.11129
-1.13193
-1.06565
-1.00845
-0.923348
-0.757556
-0.0924935
-1.19409
-1.37984
-1.37326
-1.44874
-1.38603
-1.3743
-1.45128
-1.26156
-1.37225
-1.30732
-1.3125
-1.33584
-1.22368
-1.2939
-1.16082
-1.07864
-0.47792
-0.799158
-0.427682
-1.42598
-1.45162
-1.51099
-1.68976
-1.66861
-1.50102
-1.69974
-1.50466
-1.57854
-1.47975
-1.49256
-1.45356
-1.39442
-1.37915
-1.34452
-1.28901
-1.32053
-1.24249
-1.01804
-1.52532
-1.57756
-1.61338
-1.77449
-1.76325
-1.90001
-1.84237
-1.7871
-1.74552
-1.7736
-1.6778
-1.74618
-1.68363
-1.58349
-1.55489
-1.53795
-1.39616
-1.50606
-1.27129
-1.50721
-1.6155
-1.77415
-1.63062
-1.86397
-1.90702
-1.98484
-1.80979
-1.90853
-1.85542
-1.82283
-1.76628
-1.83155
-1.81594
-1.73037
-1.7613
-1.67683
-1.81109
-1.68049
-1.69897
-1.98857
-1.86755
-1.90181
-2.10368
-1.86371
-2.10679
-2.15462
-1.98806
-2.05141
-2.04978
-2.02087
-2.04012
-2.04866
-1.93796
-1.98096
-1.90273
-2.00802
-1.87491
-1.89718
-1.84945
-1.85994
-2.1113
-1.91383
-2.14268
-2.21276
-2.14637
-2.33844
-2.14145
-2.18325
-2.164
-2.15948
-2.17873
-2.13629
-2.16656
-2.10749
-2.20182
-2.14304
-1.96948
-2.05438
-2.11426
-2.07509
-2.15952
-2.28455
-2.28739
-2.3568
-2.29452
-2.41163
-2.3686
-2.35884
-2.4141
-2.33298
-2.30789
-2.33592
-2.28887
-2.32516
-2.44193
-2.26834
-2.22816
-2.21886
-2.27618
-2.3265
-2.45351
-2.61877
-2.41448
-2.57584
-2.36376
-2.52811
-2.48138
-2.53658
-2.50757
-2.5705
-2.50813
-2.48031
-2.58607
-2.42555
-2.39007
-2.58425
-2.63103
-2.66198
-2.64908
-2.64596
-2.59935
-2.76822
-2.50261
-2.67493
-2.63107
-2.65679
-2.55583
-2.7713
-2.64842
-2.68817
-2.66623
-2.69757
-2.60319
-2.46953
-2.62112
-2.58974
-2.77436
-2.62281
-2.83947
-2.81973
-2.87438
-2.83561
-2.81769
-2.84171
-2.82796
-2.76396
-2.87278
-2.87961
-2.83064
-2.8425
-2.87045
-2.84369
-2.85025
-2.66012
-2.84239
-2.76211
-2.999
-2.95447
-2.9638
-2.88724
-3.00605
-2.99317
-2.95368
-2.98987
-2.92339
-3.07481
-3.0648
-3.0441
-3.01233
-3.08417
-3.02208
-2.84969
-3.12656
-2.93087
-3.12448
-3.02635
-3.22658
-3.10768
-3.30932
-3.14867
-3.19578
-3.27118
-3.15899
-3.16808
-3.16532
-3.30796
-3.17833
-3.23961
-3.26683
-3.26121
-3.05214
-3.10064
-3.26056
-3.26741
-3.55153
-3.61287
-3.33719
-3.44246
-3.47283
-3.32819
-3.30022
-3.41677
-3.33446
-3.33805
-3.41332
-3.43138
-3.38503
-3.43736
-3.41508
-3.27958
-3.34066
-3.42254
-3.44153
-3.52892
-3.38446
-3.68401
-3.61153
-3.65362
-3.55266
-3.49098
-3.62447
-3.61829
-3.52045
-3.55877
-3.68893
-3.55049
-3.65469
-3.62084
-3.52018
-3.50524
-3.46746
-3.61996
-3.50481
-3.50888
-3.57916
-3.92532
-3.86585
-3.66357
-3.66322
-3.75831
-3.70137
-3.60867
-3.7811
-3.86678
-3.67536
-3.82533
-3.76411
-3.68314
-3.71527
-3.79425
-3.89837
-3.88402
-3.85538
-3.91087
-4.0197
-4.11714
-4.04495
-3.87955
-3.96553
-3.93252
-3.95124
-4.02294
-4.0331
-3.96293
-4.05077
-3.99024
-3.97521
-3.92495
-3.99847
-3.80143
-4.17639
-4.10262
-4.33209
-3.96212
-4.20845
-4.39653
-4.07267
-4.13787
-3.99997
-4.23522
-4.14034
-4.25629
-4.11875
-4.201
-4.17908
-4.17249
-4.12368
-4.13909
-3.97731
-4.39219
-4.36149
-4.40877
-4.32913
-4.53814
-4.49161
-4.29417
-4.30185
-4.36758
-4.45574
-4.52745
-4.46964
-4.43987
-4.39754
-4.39991
-4.55282
-4.51308
-4.64071
-4.56117
-4.4908
-4.73258
-4.91541
-4.80678
-4.71722
-4.70194
-4.57713
-4.56289
-4.52193
-4.56447
-4.61696
-4.55163
-4.5281
-4.57118
-4.55559
-4.69231
-4.78001
-4.70974
-4.57083
-4.80846
-4.70555
-4.90697
-4.85583
-4.88903
-4.82546
-4.83828
-4.77179
-4.74732
-4.77193
-4.97338
-4.75072
-4.87031
-4.74994
-4.76106
-4.93001
-5.01038
-5.13706
-5.10198
-5.19412
-5.40609
-5.41891
-5.16569
-5.17051
-5.03873
-5.06397
-5.04403
-5.07594
-5.01785
-5.037
-4.88391
-4.9633
-4.83916
-4.9748
-5.05513
-5.04226
-4.9486
-5.19023
-5.17601
-5.35666
-5.33345
-5.17125
-5.27389
-5.24341
-5.30162
-5.2037
-5.21056
-5.05638
-5.15846
-5.09322
-5.09835
-5.17074
-4.99842
-5.2641
-5.29037
-5.32681
-5.2449
-5.78735
-5.22201
-5.62807
-5.42669
-5.57001
-5.37168
-5.4475
-5.4007
-5.4283
-5.43697
-5.34919
-5.30473
-5.35262
-5.25396
-5.25126
-5.54453
-5.68058
-5.99088
-6.11002
-5.82674
-5.89848
-5.74003
-5.59652
-5.66452
-5.69866
-5.69223
-5.57998
-5.55835
-5.48213
-5.52779
-5.43088
-5.36717
-5.29664
-5.28487
-5.72931
-5.70136
-6.00405
-6.03747
-6.03206
-5.91372
-5.88796
-5.81661
-6.01946
-5.88377
-5.71119
-5.78072
-5.74888
-5.67128
-5.63461
-5.58661
-5.57066
-5.76591
-5.60884
-5.8176
-6.19726
-5.83748
-5.92282
-5.912
-6.02551
-6.00694
-6.13446
-6.12213
-6.12747
-6.05612
-6.02675
-5.862
-5.82331
-5.79553
-5.78471
-5.71659
-5.88068
-5.80539
)
;

boundaryField
{
    leftWall
    {
        type            calculated;
        value           nonuniform List<scalar> 
50
(
1081.3
1023.02
965.698
908.403
852.288
799.526
747.638
697.602
622.894
542.034
472.476
432.214
380.902
350.809
347.623
308.857
243.468
200.641
135.448
92.6015
84.6549
68.7031
58.2519
53.0456
52.3581
42.7666
38.6177
42.6506
33.3631
17.0586
23.4759
35.8158
12.1634
13.6224
8.26614
6.57325
18.5308
63.2669
-10.625
2.75047
9.33615
1.96462
-3.14203
-2.26139
-1.95522
-5.52542
-11.4558
-23.9945
-30.3309
-56.2349
)
;
    }
    rightWall
    {
        type            calculated;
        value           nonuniform List<scalar> 
50
(
958.915
913.981
839.009
739.339
630.274
522.637
448.333
408.478
340.539
348.018
67.4905
8.4501
41.732
35.6625
13.4255
13.4198
9.45286
6.80709
1.34404
-0.572846
6.06611
1.68714
0.669842
-0.0924935
-0.427682
-1.01804
-1.27129
-1.68049
-1.87491
-2.14304
-2.44193
-2.42555
-2.60319
-2.84369
-3.02208
-3.26121
-3.41508
-3.62084
-3.76411
-3.99024
-4.17908
-4.39991
-4.55559
-4.76106
-4.9748
-4.99842
-5.25126
-5.28487
-5.60884
-5.80539
)
;
    }
    lowerWall
    {
        type            calculated;
        value           nonuniform List<scalar> 
62
(
1110.73
1106.3
1103.57
1096.96
1092.84
1092.58
1084.16
1079.65
1070.08
1058.44
1040.25
1016.29
994.914
972.772
960.097
941.814
926.587
901.921
905.156
868.199
878.542
880.989
880.796
851.366
788.851
735.05
659.907
624.977
523.868
473.015
369.796
357.219
377.636
345.518
248.296
903.099
882.158
802.176
751.862
671.534
591.604
500.902
410.402
917.177
1064.62
832.782
522.25
500.252
412.628
312.782
277.206
260.815
221.337
77.1656
109.787
87.0857
462.258
333.753
606.65
764.226
846.302
974.348
)
;
    }
    atmosphere
    {
        type            calculated;
        value           nonuniform List<scalar> 
46
(
-67.0557
-49.1827
-34.2494
-22.6224
-15.5792
-10.656
-7.64463
-6.51461
-6.2492
-5.95939
-5.87218
-5.83169
-5.78954
-5.78769
-5.75706
-5.81377
-5.82193
-5.81655
-5.84608
-5.84259
-5.8526
-5.92084
-5.86894
-5.91999
-5.93711
-5.94616
-5.95274
-5.95562
-6.08661
-6.08346
-6.13642
-6.15234
-6.18176
-6.21476
-6.28844
-6.25234
-6.17785
-6.09275
-6.05153
-5.9629
-5.92025
-5.86643
-5.79908
-5.79793
-5.94338
-6.60283
)
;
    }
    defaultFaces
    {
        type            empty;
    }
}


// ************************************************************************* //
