/*--------------------------------*- C++ -*----------------------------------*\
| =========                 |                                                 |
| \\      /  F ield         | foam-extend: Open Source CFD                    |
|  \\    /   O peration     | Version:     4.1                                |
|   \\  /    A nd           | Web:         http://www.foam-extend.org         |
|    \\/     M anipulation  |                                                 |
\*---------------------------------------------------------------------------*/
FoamFile
{
    version     2.0;
    format      ascii;
    class       volScalarField;
    location    "0.8";
    object      pd;
}
// * * * * * * * * * * * * * * * * * * * * * * * * * * * * * * * * * * * * * //

dimensions      [1 -1 -2 0 0 0 0];

internalField   nonuniform List<scalar> 
2268
(
1110.73
1106.3
1103.57
1096.96
1092.84
1092.58
1084.16
1079.65
1070.08
1058.44
1040.25
1016.29
994.914
972.772
960.097
941.814
926.587
901.921
905.156
868.199
878.542
880.989
880.796
1111.31
1106.36
1102.22
1099.03
1094.33
1092.91
1084.78
1079.72
1070.78
1058.66
1038.55
1014.54
993.213
973.656
961.225
940.959
923.966
903.648
897.921
879.421
869.325
886.143
877.139
1112.42
1107.53
1104.31
1102.09
1096.43
1094.16
1084.95
1081
1070.46
1060.97
1038.87
1016.07
994.304
976.114
960.374
944.887
924.407
892.271
887.638
872.264
875.033
874.656
882.197
1112.65
1108.52
1106.72
1104.88
1098.53
1095.09
1085.86
1080.81
1071.09
1060.14
1037.29
1016.36
994.028
978.492
958.88
938.18
918.107
904.69
874.463
872.278
851.017
877.213
865.912
1112.76
1112.38
1107.08
1107.42
1100.64
1095.8
1084.13
1082.67
1072.97
1057.08
1031.42
1014.39
994.307
961.493
954.73
932.749
915.343
896.058
876.379
868.574
850.484
847.243
889.842
1114.28
1109.72
1113.04
1112.14
1101.55
1097.18
1084.93
1075.32
1074.86
1054.23
1031.16
1014.53
990.339
981.082
951.96
924.123
901.322
893.915
864.314
861.58
847.623
855.419
847.591
1113.68
1114.96
1108.65
1114.54
1103.56
1097.34
1082.64
1076.85
1063.09
1046.08
1025.84
1006.06
985.911
956.411
939.298
905.358
884.292
872.737
846.727
833.684
816.035
825.758
852.617
1110.12
1090.71
1114.52
1121.43
1108.32
1097.71
1080.24
1069.23
1057.73
1038.51
1013.38
989.899
958.993
951.201
913.161
867.399
840.236
832.199
788.804
765.894
800.559
806.99
797.219
917.177
1064.62
832.782
522.25
500.252
412.628
312.782
277.206
260.815
221.337
77.1656
109.787
87.0857
462.258
333.753
606.65
764.226
846.302
974.348
924.579
1019.84
798.282
478.421
493.133
393.588
275.002
285.641
260.393
206.589
61.8972
109.725
-38.5822
389.893
290.591
645.961
689.102
803.034
961.193
873.768
925.645
741.628
416.988
480.571
362.962
260.218
294.1
241.846
176.614
36.1005
65.2382
-45.3356
354.058
387.297
662.189
673.071
812.634
919.141
854.246
844.061
684.867
468.352
426.828
310.693
220.163
312.29
213.808
157.552
40.9264
9.54412
23.4887
330.572
517.941
623.861
641.485
753.815
852.615
806.559
778.794
625.384
515.574
420.655
326.585
308.092
286.866
208.605
164.039
65.5888
26.4169
151.509
351.166
547.024
630.161
619.056
702.867
776.614
760.765
728.809
556.857
512.167
399.013
306.405
330.088
327.605
238.147
202.329
114.581
52.4523
162.124
355.303
572.511
638.308
603.072
675.574
701.963
705.958
694.785
542.311
422.311
377.609
286.936
334.931
356.575
289.518
272.478
189.433
112.254
232.152
406.335
577.124
652.149
596.2
650.797
660.271
652.463
673.838
522.121
424.773
332.54
258.578
301.597
355.804
362.34
338.729
246.62
231.475
294.513
451.045
592.922
652.446
586.105
627.564
650.774
1094.94
1105.42
1063.38
1135.53
1095.83
1085.52
1061.2
1053.25
1034.37
1013.84
995.441
964.513
944.233
881.957
840.222
769.997
734.356
731.075
714.374
629.493
718.798
730.396
822.517
1055.53
1039.38
1081.89
1070.6
1084.19
1036.67
999.645
980.386
958.44
940.552
910.228
885.864
852.04
787.675
673.172
590.266
566.998
547.681
542.303
558.378
549.731
614.552
758.142
960.236
970.139
971.457
975.36
874.69
815.495
751.075
744.182
689.642
682.839
612.169
683.117
614.405
570.87
556.706
573.246
552.952
545.173
503.767
383.797
580.269
717.76
770.412
866.975
892.854
854.581
701.215
571.427
547.66
507.428
481.689
463.946
466.012
473.253
453.298
506.799
520.401
562.59
535.983
585.441
630.258
603.874
590.33
624.572
650.455
745.216
770.507
767.56
672.1
528.533
427.826
420.584
412.716
419.274
411.374
423.002
435.166
437.305
434.952
512.991
419.596
444.214
600.897
535.784
496.125
450.97
533.937
522.726
483.044
706.092
678.487
535.858
468.53
450.948
526.149
541.263
518.775
487.262
485.495
487.825
490.565
504.742
509.122
485.746
424.017
382.653
442.07
225.826
233.55
417.371
368.071
364.399
671.698
614.955
503.656
513.529
553.692
591.997
575.148
533.225
507.887
503.288
487.436
472.199
457.581
438.595
379.807
356.063
310.754
315.273
291.119
280.163
308.848
346.515
369.658
597.133
541.294
515.629
555.727
559.53
531.138
479.576
437.089
405.264
396.245
382.672
367.326
363.592
360.665
326.893
338.595
154.366
180.585
340.812
319.733
316.629
330.389
348.067
495.729
423.792
445.867
498.687
489.308
396.09
357.13
318.467
289.079
287.13
271.794
271.523
268.609
268.835
250.64
275.066
251.254
244.531
271.326
319.926
200.961
234.317
365.232
429.051
386.001
418.629
383.696
409.519
277.364
238.532
193.921
171.063
187.775
171.031
161.778
152.503
156.036
182.567
204.244
207.076
238.105
250.943
249.937
231.996
233.835
226.577
345.456
300.486
337.242
329.744
192.818
167.064
137.716
117.539
110.392
127.449
92.3934
60.3234
52.3377
55.3537
83.8689
102.323
115.49
131.409
140.471
140.504
146.171
136.967
124.54
288.822
201.655
335.474
333.379
191.951
134.425
109.342
86.6519
92.3636
79.4074
44.9282
22.601
15.6781
14.6858
22.6421
27.0688
29.1294
30.5949
43.5452
51.3997
58.9863
64.9757
62.0851
275.09
317.276
321.384
299.439
189.651
121.209
76.0617
70.5662
79.7033
61.8728
25.4794
10.988
6.60288
5.42509
5.62693
5.96265
5.56312
6.58831
10.9795
15.0348
19.8623
26.5241
28.1344
261.73
287.481
304.662
275.784
191.651
115.655
70.9998
48.7308
60.2985
46.7594
17.4284
7.23091
4.1451
3.31128
2.88284
2.86776
3.29926
4.85103
6.68133
8.0208
9.45984
11.4702
13.5505
257.648
284.258
305.932
276.39
180.6
95.9178
72.5717
41.5538
49.9125
38.7537
15.1097
6.85099
3.97203
3.2779
2.71677
2.50937
2.41957
2.80334
3.1863
3.45805
3.48739
4.03485
5.40423
260.595
287.958
293.87
271.83
177.96
100.882
57.8476
40.3662
41.0395
35.6926
15.0524
7.11177
4.02918
3.17844
2.56547
2.55831
2.38745
2.28495
2.17501
2.08529
2.04748
2.06657
2.59728
268.361
296.661
276.595
313.68
169.584
96.5518
53.3069
30.4785
33.6702
32.2217
14.6187
6.01769
3.34217
2.54279
2.41376
2.32663
2.26284
2.15873
2.07256
1.95044
1.86041
1.79253
1.70969
267.172
298.485
256.67
184.04
120.423
69.9302
37.9122
22.7332
26.8771
28.099
12.8948
4.26462
3.0928
2.64413
2.4143
2.34627
2.38404
2.26749
2.17914
1.97981
1.94403
1.75812
1.64047
270.566
288.115
248.854
132.074
65.9699
34.8433
20.274
18.6517
24.201
25.5974
13.9223
8.71402
4.5966
3.06141
2.50259
2.52634
2.31973
2.23708
2.15192
2.01826
1.92931
1.82538
1.77006
280.896
278.704
229.156
130.412
55.6546
22.2971
12.4304
12.9953
13.9269
12.42
11.677
8.5542
4.35935
2.92699
2.80373
2.44463
2.46818
2.28672
2.18095
2.01528
1.97756
1.82009
1.71205
276.335
262.847
223.242
115.204
52.6874
21.7112
11.7183
8.34126
6.89538
6.70942
9.53389
6.32778
3.61434
2.95474
2.81276
2.56166
2.51022
2.36386
2.2288
2.01336
1.91312
1.83515
1.74215
262.946
257.099
157.956
93.6351
42.3924
17.0389
9.11324
6.72288
7.21087
8.35864
7.14713
4.69882
3.57561
3.30994
2.75671
2.7456
2.54176
2.38922
2.24687
2.08617
2.01032
1.86588
1.68506
270.152
254.743
145.068
81.4183
34.9394
14.2092
8.2894
6.4626
6.49163
6.34895
5.06085
4.16653
3.61991
3.33809
2.97212
2.84371
2.55159
2.41054
2.19316
2.10731
1.95878
1.83932
1.78926
280.539
280.257
153.329
80.1375
32.1097
12.6331
7.16118
5.64398
5.41491
5.06755
4.53083
4.14611
3.84972
3.46123
3.09124
2.85928
2.61503
2.41015
2.23664
2.04823
1.90408
1.76581
1.65834
253.343
191.26
126.815
77.7813
32.1637
11.8154
7.16867
6.05109
5.47244
5.1706
4.74318
4.42736
3.75107
3.42597
3.1306
2.84679
2.60232
2.39063
2.21351
2.08023
1.91398
1.77982
1.69576
249.8
178.351
119.558
75.0249
33.514
12.6695
7.09258
5.67603
5.36865
5.46432
4.92848
4.1594
3.90824
3.47216
3.0399
2.81063
2.53067
2.32201
2.16982
1.98965
1.74248
1.59218
1.51593
237.885
153.027
105.281
77.4769
37.7512
15.1424
7.73344
5.84477
5.93144
5.7378
4.96668
4.43914
3.96572
3.47882
2.99682
2.72671
2.47265
2.30683
2.0711
1.89453
1.74508
1.63048
1.5549
228.793
135.135
94.0101
64.0722
34.421
14.4556
8.07913
6.3461
6.10146
5.64038
4.9826
4.47443
4.12858
3.66038
2.88241
2.55998
2.32059
2.17627
2.00812
1.89021
1.70455
1.47001
1.2988
233.14
134.882
86.562
58.1492
28.7526
13.5609
8.62817
6.54256
6.41279
5.42244
5.19564
5.27707
5.04366
4.27517
2.87731
2.49489
2.16802
2.05785
1.84133
1.73965
1.58799
1.55169
1.249
269.838
159.563
88.9383
52.1762
24.6822
12.9629
8.781
8.22306
5.68595
5.12092
5.37687
6.27592
6.4776
5.23514
3.25635
2.3173
2.02513
1.88192
1.72826
1.67927
1.54531
1.42681
1.20781
185.331
138.742
82.3208
44.0509
20.9353
12.5974
9.12814
8.08289
7.20291
6.55772
6.48427
7.79778
7.98911
6.72074
3.73774
2.22319
1.80908
1.63251
1.49034
1.28006
1.38625
1.28632
0.970305
186.215
131.205
72.7473
35.3027
17.6339
12.4945
10.0988
9.62767
7.9421
6.8348
6.89722
7.8239
8.87825
7.57318
4.35453
2.55209
1.75204
1.50988
1.34331
1.31917
1.00038
0.954072
1.13283
178.366
114.895
61.882
28.5452
15.7886
12.7294
10.9547
10.5418
9.9903
8.6321
7.31889
8.61322
9.02709
8.30405
5.12542
2.29268
1.11631
1.30572
1.14613
1.15154
1.12973
1.10192
0.832652
156.275
100.374
52.8167
25.0729
15.5265
12.5346
11.5774
9.94702
8.67882
8.24728
8.99608
9.62981
9.57057
8.25622
4.12891
2.01068
1.29594
0.907706
0.915833
0.881457
0.82148
0.817653
0.697044
137.412
89.9587
50.5159
25.3996
16.7089
13.739
12.4661
10.9146
10.3904
9.90084
9.96728
10.3873
10.072
8.37305
4.30905
1.90032
0.981519
0.824338
0.775693
0.848723
0.617226
0.523664
0.643244
125.166
83.3318
53.4499
31.3812
22.3697
17.368
13.9981
11.8389
11.1946
10.905
11.3225
11.1798
8.96905
5.32574
2.0252
0.912334
0.689332
0.707627
0.377574
0.579824
0.320876
0.63657
0.197783
111.634
78.3899
54.1105
37.3796
27.0092
19.2344
14.1968
12.3943
11.8784
12.0199
11.5021
10.6938
6.51695
2.57534
0.900864
0.613667
0.498574
0.568041
0.582015
0.291865
0.299067
0.372088
0.355707
95.0373
68.0444
52.7773
38.0083
27.1381
18.3065
13.6149
12.2263
11.1847
11.0019
10.0691
8.17305
3.75638
1.398
0.481694
0.41364
0.3476
0.157142
0.264752
0.304252
0.205643
0.263641
0.211186
78.7924
55.9444
45.6848
33.9566
24.0224
16.3706
13.1675
11.2814
9.16516
8.05261
5.84193
3.42721
1.03912
0.473419
0.187555
0.110716
0.284466
0.407453
0.246892
0.29263
0.140487
0.120936
0.0893646
59.3482
42.1141
31.7449
21.5273
15.4704
12.54
11.1724
7.87692
4.96539
3.84492
1.96137
0.874339
0.268405
0.233804
0.109948
0.290503
0.187695
0.209637
0.104366
0.118242
0.125232
0.0600945
0.0286311
48.2282
32.8095
22.053
13.201
11.2045
9.92654
6.94571
2.61242
0.86259
0.554516
0.21807
0.0514292
0.00473526
-0.0292768
0.205338
0.0391937
-0.0580923
0.147287
0.107246
0.0312428
0.0125332
0.0474044
-0.0448792
10.0882
5.2547
2.90263
0.59264
-0.493649
-0.953326
-1.36844
-0.814292
-0.630763
-0.0142006
0.0197851
0.0859639
0.0571173
0.0129556
-0.0569639
-0.104764
-0.015983
-0.159462
-0.180321
-0.0532491
-0.0527873
-0.28937
-0.0571909
782.292
783.927
699.435
540.149
782.378
776.451
786.121
779.296
729.517
640.712
739.193
718.71
758.438
690.472
596.872
596.003
453.521
480.518
455.997
442.253
373.795
353.203
289.252
355.453
380.418
380.325
389.778
406.687
354.237
364.54
370.409
383.11
330.428
330.433
337.698
342.161
216.453
215.251
212.661
209.828
118.165
116.826
112.322
108.804
59.107
56.7648
55.8743
54.7187
29.0932
28.5331
30.2388
28.2884
14.896
15.2162
15.306
14.8874
6.97541
7.62321
7.74389
7.55302
3.46706
3.91373
4.13547
4.0522
1.81973
1.90344
1.97042
1.93822
1.53054
1.44452
1.38706
1.32599
1.66614
1.60897
1.54005
1.45842
1.62032
1.56623
1.49762
1.50675
1.6715
1.61067
1.58257
1.48398
1.61485
1.56134
1.54451
1.38768
1.59704
1.55674
1.51984
1.39327
1.52085
1.46835
1.39035
1.32134
1.4639
1.47094
1.37454
1.28561
1.3771
1.28023
1.30092
1.24199
1.46999
1.37571
1.24323
1.17835
1.32604
1.23546
1.1892
1.15238
1.21356
1.12403
1.05473
0.962787
1.17099
1.11963
0.999458
1.01233
0.787738
0.76967
0.710617
0.780822
0.90278
0.8826
0.918635
0.856586
0.787205
0.743678
0.735012
0.660448
0.594959
0.559226
0.485955
0.436898
0.573371
0.599038
0.413459
0.314365
0.358914
0.211221
0.264874
0.213401
0.258217
0.233736
0.178612
0.156149
0.273032
0.218115
0.242504
0.139695
0.0304527
-0.0494577
0.00771594
0.0244216
0.0360101
0.0229725
-0.0879181
-0.0556894
-0.00799238
-0.0652859
-0.13096
-0.15598
-0.225146
-0.218126
-0.157843
-0.142168
527.172
729.499
508.828
413.851
314.262
269.433
277.787
284.021
343.542
341.935
290.054
357.874
390.955
433.49
576.652
633.198
558.622
560.654
623.715
644.102
534.31
428.047
420.213
315.716
296.589
265.357
267.252
206.502
413.301
346.208
436.904
416.705
504.451
583.972
579.343
487.07
594.034
658.455
650.046
435.084
342.719
294.017
315.212
310.371
239.506
216.186
367.982
328.3
346.105
408.599
432.562
551.262
531.941
481.752
414.593
349.076
323.253
542.296
373.228
288.197
276.232
257.194
252.081
214.239
253.774
250.393
306.757
311.06
385.483
499.16
517.269
409.995
365.594
237.181
193.62
141.341
413.448
379.066
282.842
250.133
202.597
209.919
223.734
231.362
303.662
359.803
490.028
522.966
463.798
418.064
268.67
201.051
120.979
106.033
97.9501
377.169
436.217
301.844
293.044
273.656
280.102
356
374.39
439.439
386.807
432.148
424.963
307.547
229.442
133.983
91.6642
66.726
63.0313
68.8392
376.082
402.747
397.263
387.289
410.184
256.175
401.571
340.281
489.659
375.886
322.105
229.149
162.286
111.492
67.9236
49.7014
37.0873
43.2395
38.5988
404.001
393.08
403.139
370.965
353.977
363.426
366.615
329.268
295.695
229.367
146.333
131.063
98.479
60.1905
42.9791
28.3969
32.4418
29.6939
33.9795
354.349
341.557
324.443
261.277
322.361
337.045
300.639
255.645
199.985
139.028
89.5271
70.8625
49.4032
35.1738
28.2244
21.9245
22.898
22.7475
26.0136
211.65
193.833
261.039
318.292
303.592
307.255
263.575
197.07
147.673
103.029
72.2867
53.2905
38.3803
27.2024
22.6041
17.2401
18.0107
18.4176
20.4498
108.923
105.676
139.413
203.451
206.382
224.233
201.193
166.248
121.431
76.4524
57.8394
45.9964
34.8727
25.7989
19.1804
14.2711
14.2863
13.4321
12.942
54.912
61.938
87.0269
112.361
112.786
118.175
103.09
84.8355
65.1748
45.4467
35.2888
29.9664
27.8649
20.0588
15.0083
10.927
11.3574
10.1204
9.7762
28.0198
28.7603
45.5074
52.8038
54.397
51.5964
43.4429
37.3852
31.6559
21.8813
16.772
11.6638
12.1326
9.87149
8.82821
7.99453
9.27815
10.7777
15.7445
15.062
16.4647
22.9167
22.7415
22.7989
21.3104
18.3328
18.404
14.5415
9.29973
6.09442
4.85912
4.23987
3.69514
3.81786
4.37509
6.21122
8.86745
11.0664
7.26843
7.20167
8.44668
8.78914
9.44611
9.22074
6.17583
6.24272
5.11631
3.77202
2.66863
2.18084
2.05091
1.81571
2.16265
3.20276
6.7399
7.89424
9.91179
3.73427
3.11417
3.46777
3.41437
3.80296
3.71574
3.14353
2.77008
2.13572
1.84772
1.59478
1.55877
1.47892
1.35847
1.54797
2.41256
5.11423
6.99678
9.05423
2.13513
1.70612
1.71861
1.83688
2.37605
2.31737
2.04646
1.90823
1.49012
1.43255
1.34922
1.29552
1.38158
1.25207
1.44105
2.09791
4.76219
6.69325
8.63608
1.35787
1.28072
1.24029
1.09832
1.28234
1.6119
1.34469
1.39735
1.2015
1.25783
1.21879
1.24578
1.29609
1.28262
1.31726
1.71026
3.28951
6.11673
7.96342
1.26165
1.20941
1.17359
1.01248
1.05497
1.00487
1.03146
1.06193
1.06868
1.03019
1.12174
1.05315
1.11096
1.20347
1.23208
1.53732
3.09626
5.77151
7.61105
1.40495
1.29666
1.13801
1.28154
1.04819
1.00953
0.931185
1.10624
1.00463
1.05674
1.08973
1.14774
1.08061
1.09622
1.1818
1.45129
2.89493
5.39852
7.09665
1.33839
1.04878
1.16981
1.13555
0.933678
1.17365
0.930572
0.882735
1.0493
0.985951
0.987577
1.01649
0.997234
0.9887
1.0994
1.34408
2.65736
4.91116
6.78165
1.26563
1.31329
1.30265
1.05126
1.24872
1.01987
0.949796
1.01618
0.824109
1.0211
0.979297
0.998548
1.00307
0.983819
1.02626
1.22896
2.34806
4.41479
6.41238
1.31834
1.23348
1.17369
1.21287
1.1283
1.0032
1.00035
0.93095
0.993229
0.876113
0.919151
0.928909
0.873644
0.954771
0.979855
1.12716
2.0451
4.0398
6.03099
1.1446
1.18479
1.19411
1.13681
1.08655
0.959513
0.794226
0.998471
0.837096
1.04918
0.884835
0.931565
0.876357
0.90537
0.842442
1.0183
1.77418
3.65835
5.98664
1.14807
0.953887
0.90711
0.876151
0.88906
0.892173
0.938782
0.769918
1.03553
0.863204
0.90707
0.881348
0.982302
0.766836
0.889717
0.923029
1.5929
3.56486
5.76368
1.19381
1.04221
1.07359
0.888972
1.04052
0.823862
0.843596
0.788948
0.827724
0.845642
0.821616
0.835368
0.899371
0.790551
0.783721
0.896885
1.51855
3.47212
5.42639
0.938278
1.1284
0.946138
1.02641
0.789522
0.834057
0.82472
0.901284
0.782479
0.795358
0.834841
0.798654
0.865134
0.713716
0.723724
0.801744
1.45218
3.27856
5.12656
1.06403
0.787162
0.982846
0.789242
0.887364
0.68714
0.806039
0.604398
0.765046
0.717939
0.642539
0.754729
0.745635
0.748395
0.605756
0.786782
1.27527
2.96161
4.75995
0.986775
0.938272
0.778359
0.771504
0.487383
0.42604
0.701725
0.596454
0.566082
0.710723
0.73869
0.622149
0.704457
0.700869
0.625592
0.647856
1.15937
2.64414
4.4991
0.884532
0.823452
0.741571
0.722582
0.635191
0.779652
0.480103
0.55258
0.510486
0.611452
0.673128
0.539643
0.545815
0.643662
0.605339
0.518092
1.063
2.35398
4.21835
0.769121
0.784066
0.821839
0.669339
0.784494
0.780426
0.710145
0.369123
0.428892
0.630294
0.628506
0.531499
0.587931
0.680637
0.508201
0.441186
0.971825
2.15307
4.01228
0.731354
0.699227
0.620243
0.516128
0.530481
0.560934
0.511965
0.417552
0.320395
0.390744
0.552359
0.461415
0.488389
0.46326
0.391562
0.39901
0.813075
1.99802
3.7322
0.564486
0.614743
0.541219
0.738259
0.366986
0.455136
0.24247
0.637147
0.392248
0.202555
0.517285
0.439532
0.560136
0.307016
0.399354
0.318974
0.785466
1.77353
3.46955
0.492401
0.541207
0.525796
0.687664
0.295468
0.358107
0.354393
0.457064
0.247234
0.292461
0.476005
0.441916
0.343258
0.227368
0.137438
0.224653
0.502155
1.46974
3.21658
0.237264
0.277003
0.149367
0.240972
0.345899
0.153283
0.049062
0.177919
0.279681
0.298633
0.411308
0.384061
0.370336
0.281229
0.184428
0.262933
0.459013
1.20383
3.06684
0.222967
0.135266
0.205533
0.373399
0.190639
0.358594
0.255401
0.342965
0.356606
0.426823
0.397255
0.415016
0.368456
0.268966
-0.014137
0.186515
0.171767
1.03136
2.90412
0.11046
0.0300872
-0.0885936
-0.0105707
-0.03208
-0.166271
-0.0662221
0.257929
0.301091
0.420472
0.367954
0.348195
0.242792
0.198815
0.0915847
0.16982
0.131485
0.801789
2.64983
0.110534
0.123407
0.241691
0.0596038
0.168581
0.0910411
0.224751
0.458911
0.365817
0.362297
0.258845
0.317529
0.255549
0.324476
0.139191
0.096085
0.148319
0.794781
3.32171
0.0267594
0.00122205
0.00520798
0.162577
-0.278326
0.405612
0.110439
0.371462
0.197175
0.315831
0.184554
0.212911
0.172832
0.10054
0.0906427
0.0184299
0.0721692
0.957616
3.11696
-0.128474
-0.259896
-0.518837
-0.55229
-0.172894
-0.117716
0.159062
0.343185
0.208015
0.0848513
0.0269336
0.112883
0.137625
0.18441
0.0663906
0.0473364
0.227179
1.02782
2.73947
-0.188065
-0.149888
-0.388898
-0.345071
-0.253398
-0.0246453
0.141401
0.259989
-0.00840791
0.0349166
0.127962
0.0124735
0.0293712
0.090561
0.066674
0.0211296
0.109484
0.355217
1.73857
-0.151162
-0.518972
-0.0879132
-0.09847
-0.0054719
-0.0169818
0.138975
0.0852744
0.0534623
-0.0568575
-0.0813526
-0.112062
0.0196262
0.030833
0.00680067
-0.0489893
0.017988
-0.00224313
0.725298
)
;

boundaryField
{
    leftWall
    {
        type            zeroGradient;
    }
    rightWall
    {
        type            zeroGradient;
    }
    lowerWall
    {
        type            zeroGradient;
    }
    atmosphere
    {
        type            totalPressure;
        rho             rho;
        psi             none;
        gamma           1;
        p0              uniform 0;
        value           nonuniform List<scalar> 
46
(
0
0
0
0
0
0
-0.283727
-0.366798
-0.391413
-0.149414
-0.128309
-0.102649
-0.0604998
-0.0586542
-0.0280162
-0.0847256
-0.0928599
-0.0874798
-0.116968
-0.113503
-0.123555
-0.191798
-0.1399
-0.190954
-0.20807
-0.217116
-0.2237
-0.226583
-0.345593
-0.270385
-0.247725
-0.180562
-0.106851
-0.000951239
0
-0.00852021
-0.0401727
-0.0519783
-0.0715059
-0.0162955
-0.00143393
0
0
0
0
0
)
;
    }
    defaultFaces
    {
        type            empty;
    }
}


// ************************************************************************* //
