/*--------------------------------*- C++ -*----------------------------------*\
| =========                 |                                                 |
| \\      /  F ield         | foam-extend: Open Source CFD                    |
|  \\    /   O peration     | Version:     4.1                                |
|   \\  /    A nd           | Web:         http://www.foam-extend.org         |
|    \\/     M anipulation  |                                                 |
\*---------------------------------------------------------------------------*/
FoamFile
{
    version     2.0;
    format      ascii;
    class       surfaceScalarField;
    location    "0.8";
    object      phi;
}
// * * * * * * * * * * * * * * * * * * * * * * * * * * * * * * * * * * * * * //

dimensions      [0 3 -1 0 0 0 0];

internalField   nonuniform List<scalar> 
4432
(
-4.91401e-06
4.91401e-06
-9.90518e-06
4.99118e-06
-1.15205e-05
1.61527e-06
-7.0651e-06
-4.45536e-06
-7.20202e-06
1.36922e-07
-6.99652e-06
-2.05506e-07
-7.26645e-06
2.69936e-07
-6.76062e-06
-5.05831e-07
-6.45741e-06
-3.03208e-07
-4.8383e-06
-1.61911e-06
-2.08632e-06
-2.75199e-06
-9.59985e-07
-1.12633e-06
1.14051e-06
-2.1005e-06
3.49013e-06
-2.34962e-06
6.17494e-06
-2.6848e-06
9.2717e-06
-3.09677e-06
1.13663e-05
-2.09464e-06
1.12962e-05
7.01172e-08
6.93349e-06
4.36273e-06
1.18608e-05
-4.92734e-06
7.64916e-06
4.21166e-06
4.28173e-06
3.36743e-06
4.28173e-06
-1.48873e-06
6.40274e-06
-4.51118e-06
8.01363e-06
-5.70962e-06
2.81371e-06
-6.87237e-06
-3.2926e-06
-7.02454e-06
2.89089e-07
-6.8732e-06
-3.56844e-07
-6.92072e-06
3.17451e-07
-5.94312e-06
-1.48343e-06
-5.10945e-06
-1.13688e-06
-3.22756e-06
-3.501e-06
-2.21904e-06
-3.76051e-06
-4.28933e-07
-2.91644e-06
7.64302e-07
-3.29373e-06
3.02978e-06
-4.6151e-06
6.67504e-06
-6.33006e-06
1.00934e-05
-6.51513e-06
1.311e-05
-5.1112e-06
1.34893e-05
-3.09257e-07
1.4022e-05
3.8301e-06
6.41356e-06
2.68109e-06
7.12928e-06
3.49594e-06
5.33254e-06
5.16417e-06
9.61427e-06
-4.07039e-06
1.04731e-05
-4.82942e-06
8.77266e-06
-5.90791e-06
3.89219e-06
-6.874e-06
-2.32651e-06
-6.82502e-06
2.40114e-07
-6.56983e-06
-6.12031e-07
-6.70917e-06
4.56792e-07
-6.0558e-06
-2.1368e-06
-5.59426e-06
-1.59842e-06
-4.13115e-06
-4.96411e-06
-4.70389e-06
-3.18777e-06
-4.21639e-06
-3.40394e-06
-4.06052e-06
-3.4496e-06
-1.75859e-06
-6.91704e-06
1.12153e-06
-9.21018e-06
3.48247e-06
-8.87607e-06
6.15696e-06
-7.78569e-06
1.22734e-05
-6.42574e-06
1.31626e-05
2.94091e-06
1.26514e-05
3.19229e-06
8.73335e-06
7.41403e-06
4.59047e-06
9.30705e-06
1.42047e-05
-5.33265e-06
1.58058e-05
-5.50523e-06
8.94524e-06
-6.1578e-06
4.54476e-06
-6.6964e-06
-1.78791e-06
-6.77228e-06
3.16003e-07
-6.92047e-06
-4.63841e-07
-7.42452e-06
9.6084e-07
-6.67493e-06
-2.88639e-06
-5.57725e-06
-2.6961e-06
-1.01543e-05
-3.87034e-07
-1.05087e-05
-2.83343e-06
-1.04625e-05
-3.45011e-06
-9.52597e-06
-4.38613e-06
-7.56151e-06
-8.8815e-06
-4.80964e-06
-1.19621e-05
-3.36905e-07
-1.33488e-05
4.98279e-06
-1.31054e-05
4.54256e-06
-5.98552e-06
9.60423e-06
-2.12076e-06
1.00731e-05
2.72345e-06
7.03991e-06
1.04472e-05
2.76811e-06
1.35789e-05
1.69729e-05
-3.59886e-06
1.94046e-05
-5.85492e-06
1.12013e-05
-6.56325e-06
5.25309e-06
-7.06291e-06
-1.28825e-06
-7.17285e-06
4.25945e-07
-7.47201e-06
-1.64687e-07
-7.5155e-06
1.00433e-06
-1.35131e-05
3.11117e-06
-1.36249e-05
-2.58421e-06
-1.45084e-05
4.96439e-07
-1.55004e-05
-1.84144e-06
-1.41923e-05
-4.75825e-06
-1.26613e-05
-5.91713e-06
-1.1533e-05
-1.00098e-05
-8.39042e-06
-1.51046e-05
-3.77313e-06
-1.79661e-05
5.99743e-07
-1.74783e-05
1.70735e-06
-7.09313e-06
6.36481e-06
-6.77822e-06
5.1407e-06
3.94756e-06
6.48405e-06
9.10384e-06
2.55479e-07
1.98074e-05
1.72283e-05
-3.85567e-06
2.32603e-05
-6.70878e-06
1.40544e-05
-6.78847e-06
5.33277e-06
-6.686e-06
-1.39071e-06
-6.80836e-06
5.48311e-07
-7.61968e-06
6.46627e-07
-9.46647e-06
2.85112e-06
-9.80251e-06
3.44722e-06
-1.73872e-05
5.00051e-06
-1.80672e-05
1.17641e-06
-1.91174e-05
-7.91237e-07
-1.81353e-05
-5.74036e-06
-1.61222e-05
-7.9302e-06
-1.16207e-05
-1.45113e-05
-8.17629e-06
-1.8549e-05
-4.46648e-06
-2.16759e-05
1.52966e-08
-2.196e-05
4.04466e-06
-1.11225e-05
3.42059e-06
-6.15415e-06
3.90798e-06
3.46017e-06
6.42649e-06
6.58533e-06
5.80426e-06
2.04297e-05
2.30326e-05
-5.11813e-06
2.83784e-05
-1.59822e-05
2.49185e-05
-1.72564e-05
6.60694e-06
-1.73163e-05
-1.33081e-06
-1.88253e-05
2.05736e-06
-2.01677e-05
1.98901e-06
-2.09355e-05
3.61894e-06
-2.08976e-05
3.40929e-06
-2.08599e-05
4.96281e-06
-2.04418e-05
7.58271e-07
-1.95255e-05
-1.70753e-06
-1.77737e-05
-7.49211e-06
-1.58185e-05
-9.88544e-06
-1.32478e-05
-1.7082e-05
-8.31773e-06
-2.34791e-05
-2.41822e-06
-2.75754e-05
1.75171e-06
-2.613e-05
2.67145e-06
-1.20422e-05
1.02672e-05
-1.37499e-05
5.90697e-06
7.82037e-06
4.78066e-06
7.71164e-06
7.35372e-06
1.78566e-05
3.03863e-05
-5.78038e-06
3.41588e-05
-1.09492e-05
3.00873e-05
-2.17563e-05
1.7414e-05
-2.19805e-05
-1.10653e-06
-2.364e-05
3.71683e-06
-2.43612e-05
2.71018e-06
-2.44811e-05
3.73882e-06
-2.31719e-05
2.10013e-06
-2.1509e-05
3.29991e-06
-2.02012e-05
-5.49512e-07
-1.90657e-05
-2.84308e-06
-1.8512e-05
-8.04582e-06
-1.75716e-05
-1.08258e-05
-1.31907e-05
-2.14628e-05
-8.5248e-06
-2.8145e-05
-2.20474e-06
-3.38955e-05
5.04607e-06
-3.33808e-05
6.4562e-06
-1.34524e-05
1.63734e-05
-2.36671e-05
1.40825e-05
1.01112e-05
1.63153e-05
5.47888e-06
1.5401e-05
1.87709e-05
4.57873e-05
-5.26762e-05
5.26762e-05
-0.000122037
6.93611e-05
-0.000170948
4.8911e-05
-0.000209552
3.86033e-05
-0.000223972
1.44201e-05
-0.000238508
1.45366e-05
-0.000251737
1.32292e-05
-0.000258335
6.59738e-06
-0.000264604
6.26905e-06
-0.000272413
7.80954e-06
-0.000276454
4.04022e-06
-0.000264143
-1.2311e-05
-0.000252301
-1.18413e-05
-0.000211309
-4.09923e-05
-0.000103346
-0.000107963
-7.62637e-05
-2.7082e-05
-9.00621e-05
1.37984e-05
-4.87295e-05
-4.13327e-05
-4.87295e-05
-5.06152e-05
0.000103291
-0.000115182
0.000133927
-0.000152323
8.6052e-05
-0.00018279
6.90704e-05
-0.000194978
2.66087e-05
-0.00020998
2.95383e-05
-0.000222327
2.55763e-05
-0.000224323
8.59301e-06
-0.000226565
8.51113e-06
-0.000225527
6.77175e-06
-0.000226536
5.04959e-06
-0.000215648
-2.31994e-05
-0.000119013
-0.000108477
-9.93907e-05
-6.06143e-05
-0.000100684
-0.00010667
-7.8338e-05
-4.9428e-05
-4.88769e-05
-1.56627e-05
-4.7325e-05
-4.28845e-05
-9.60545e-05
-4.45248e-05
0.000147816
-8.95209e-05
0.000178924
-0.00010801
0.000104541
-7.06562e-05
3.17167e-05
-0.000133987
8.99391e-05
-0.000142726
3.82774e-05
-0.000151755
3.46056e-05
-0.000152616
9.45413e-06
-0.000159523
1.54176e-05
-0.000159145
6.39474e-06
-0.000149477
-4.61898e-06
-0.000126068
-4.66085e-05
-0.000139385
-9.51595e-05
-6.74893e-05
-0.00013251
-6.79016e-05
-0.000106258
-6.05124e-05
-5.68172e-05
-4.39046e-05
-3.22705e-05
-3.03008e-05
-5.64884e-05
-0.000126355
-3.51747e-05
0.000182991
-6.31015e-05
0.00020685
-7.17502e-05
0.00011319
-8.91368e-05
4.91033e-05
-9.12773e-05
9.20797e-05
-8.83355e-05
3.53356e-05
-4.94802e-05
-4.24968e-06
-7.73595e-05
3.73334e-05
-8.72547e-05
2.53128e-05
-9.40731e-05
1.32131e-05
-9.66845e-05
-2.00751e-06
-8.9473e-05
-5.382e-05
-8.15665e-05
-0.000103066
-7.27774e-05
-0.000141299
-4.05282e-05
-0.000138507
-6.21514e-05
-3.5194e-05
-2.92228e-05
-6.51992e-05
-2.73709e-05
-5.83402e-05
-0.000153726
-3.01024e-05
0.000213093
-4.74302e-05
0.000224178
-5.21599e-05
0.000117919
-6.09001e-05
5.78435e-05
-4.51623e-05
7.63419e-05
-1.95701e-05
9.74339e-06
-1.30523e-05
-1.07676e-05
-3.66787e-05
6.09598e-05
-4.05543e-05
2.91884e-05
-3.18892e-05
4.54795e-06
-3.09209e-05
-2.97582e-06
-2.84807e-05
-5.62602e-05
-1.78959e-05
-0.000113651
-1.49793e-05
-0.000144216
-2.78669e-05
-0.000125619
-2.28527e-05
-4.02081e-05
-1.80579e-05
-6.9994e-05
-8.9623e-06
-6.74358e-05
-0.000162688
-2.37636e-05
0.000236857
-3.2861e-05
0.000233276
-3.62237e-05
0.000121282
-3.30322e-05
5.4652e-05
-2.0498e-05
6.38078e-05
-8.59322e-06
-2.16142e-06
-1.2639e-05
-6.72181e-06
-1.35855e-06
4.96794e-05
9.0965e-06
1.87333e-05
2.27195e-05
-9.07505e-06
2.55512e-05
-5.80752e-06
1.19695e-05
-4.26786e-05
4.11804e-06
-0.000105799
-2.26193e-06
-0.000137836
-1.16854e-05
-0.000116196
-1.13121e-05
-4.05814e-05
-9.85958e-06
-7.14466e-05
-2.99534e-06
-7.43e-05
-0.000165684
-2.00368e-05
0.000256894
-1.51228e-05
0.000228362
-5.93368e-06
0.000112093
-8.78838e-06
5.75067e-05
4.11799e-07
5.46076e-05
6.28011e-06
-8.02973e-06
4.36896e-06
-4.81067e-06
1.59261e-05
3.81222e-05
3.66376e-05
-1.97817e-06
5.09853e-05
-2.34227e-05
4.63743e-05
-1.19655e-06
3.64711e-05
-3.27753e-05
3.3193e-05
-0.000102521
9.88e-06
-0.000114523
2.09027e-06
-0.000108406
-4.60544e-07
-3.80306e-05
-1.01661e-05
-6.1741e-05
-1.05369e-06
-8.34124e-05
-0.000166738
-1.74422e-05
0.000274336
-7.21964e-07
0.000211641
5.68643e-06
0.000105685
1.05642e-05
5.26289e-05
1.66516e-05
4.85202e-05
1.72939e-05
-8.67202e-06
1.57225e-05
-3.23921e-06
3.47684e-05
1.90763e-05
4.79695e-05
-1.51794e-05
3.43288e-05
-9.782e-06
3.22401e-05
8.9218e-07
5.16293e-05
-5.21645e-05
4.66447e-05
-9.75366e-05
3.06348e-05
-9.85128e-05
1.62552e-05
-9.40264e-05
8.10412e-06
-2.98795e-05
-4.98164e-06
-4.86552e-05
6.66938e-07
-8.9061e-05
-0.000166071
-1.40203e-05
4.81791e-05
-2.64081e-05
4.24751e-05
-3.30894e-05
2.40953e-05
-5.35219e-05
1.9326e-05
-5.30061e-05
3.20102e-06
-5.4297e-05
4.00116e-06
-5.20427e-05
1.48444e-06
-4.85793e-05
-1.36324e-06
-4.58337e-05
5.54301e-07
-4.31263e-05
-3.25693e-06
-4.02596e-05
-5.70974e-06
-3.61542e-05
-1.21512e-05
-3.29627e-05
-1.40173e-05
-3.50562e-05
-1.93693e-05
-2.4686e-05
-3.85152e-05
-6.67793e-06
-5.19036e-05
1.26067e-05
-5.26654e-05
3.54278e-05
-3.62735e-05
2.97926e-05
-1.80319e-05
4.16893e-05
-1.78548e-06
2.00188e-05
2.71494e-05
2.14723e-05
1.73173e-05
1.70617e-05
5.01979e-05
-1.84135e-05
6.65926e-05
-3.02767e-05
5.43383e-05
-2.89629e-05
2.27815e-05
-2.71077e-05
1.74708e-05
-4.60972e-05
2.21905e-05
-4.56128e-05
3.51674e-06
-4.51884e-05
1.06004e-06
-4.26675e-05
-3.88406e-06
-4.37962e-05
1.68295e-06
-4.47805e-05
-2.27262e-06
-5.01476e-05
-3.42657e-07
-5.3825e-05
-8.47378e-06
-5.12738e-05
-1.65685e-05
-4.04213e-05
-3.02218e-05
-3.04069e-05
-4.85297e-05
-1.58211e-05
-6.64893e-05
2.76389e-06
-7.12504e-05
-7.59159e-07
-3.27504e-05
2.16036e-05
-4.03946e-05
2.10012e-05
-1.18313e-06
2.01611e-05
2.79895e-05
1.82183e-05
1.92602e-05
2.88363e-05
6.4437e-06
-1.79353e-05
8.45279e-05
-2.55132e-05
6.19162e-05
-4.97122e-05
4.69804e-05
-5.26763e-05
2.04349e-05
-3.30198e-05
2.53403e-06
-3.02046e-05
7.01486e-07
-2.50337e-05
-4.11084e-06
-3.74399e-05
8.5222e-06
-3.84316e-05
2.67456e-06
-4.969e-05
8.98579e-06
-4.0999e-05
-9.03366e-06
-7.14547e-05
2.19819e-05
-7.65071e-05
-1.15161e-05
-9.12045e-05
-1.55245e-05
-0.000100827
-3.89076e-05
-0.00010912
-5.8196e-05
-0.000106324
-7.40459e-05
-8.1842e-05
-5.72328e-05
-8.19124e-05
-4.03242e-05
-6.35895e-05
-1.9506e-05
-4.88039e-05
1.32038e-05
-7.32239e-05
4.36802e-05
6.80203e-05
-0.000112408
-2.8359e-05
0.000112887
-3.88081e-05
7.23653e-05
-3.65108e-05
4.46831e-05
-3.91043e-05
2.30284e-05
-3.25871e-05
-3.98319e-06
-2.26165e-05
-9.26906e-06
-9.1677e-06
-1.75597e-05
-1.89015e-05
1.8256e-05
-3.13114e-05
1.50844e-05
-4.28448e-05
2.05192e-05
-6.86662e-05
1.67877e-05
-6.0854e-05
1.41698e-05
-9.4825e-05
2.2455e-05
-0.000107756
-2.5931e-06
-0.000144514
-2.15003e-06
-0.000179948
-2.27623e-05
-0.000191948
-6.20459e-05
-0.000203614
-4.55669e-05
-0.000213743
-3.01949e-05
-0.000212671
-2.0578e-05
-0.000200054
5.87024e-07
-0.000180056
2.36819e-05
4.09678e-05
-0.000153003
-2.33175e-05
0.000136204
-3.53701e-05
8.44179e-05
-1.20247e-05
2.13377e-05
-3.8237e-06
1.48275e-05
-1.02948e-05
2.48793e-06
-1.48253e-05
-4.73854e-06
-2.79927e-05
-4.39235e-06
-3.77898e-05
2.80531e-05
-4.86042e-05
2.58989e-05
-5.69565e-05
2.88715e-05
-6.42894e-05
2.41207e-05
-8.07656e-05
3.06459e-05
-8.88639e-05
3.05533e-05
-0.000114183
2.27255e-05
-0.000110291
-6.04118e-06
-0.000121281
-1.17723e-05
-0.000182199
-1.12843e-06
-0.000200155
-2.76112e-05
-0.000221113
-9.23655e-06
-0.000232253
-9.43757e-06
-0.00021349
-1.81765e-05
-0.000205282
1.54737e-05
2.77195e-05
-0.000192033
-1.29975e-05
0.000149202
-1.52352e-05
8.66557e-05
-8.84091e-06
1.49434e-05
-2.75067e-06
8.73722e-06
-6.29227e-05
6.26599e-05
-0.000145518
7.78572e-05
-0.000214381
6.44706e-05
-0.000231575
4.52472e-05
-0.000239883
3.42064e-05
-0.000236761
2.57493e-05
-0.000225413
1.27724e-05
-0.000213706
1.89397e-05
-0.000198771
1.56183e-05
-0.0001877
1.16541e-05
-0.000192466
-1.27516e-06
-0.000205043
8.05091e-07
-0.000218971
1.27992e-05
-0.000236116
-1.04659e-05
-0.000186243
-5.91093e-05
-0.000190549
-5.13161e-06
-0.000242876
3.41501e-05
-0.000245624
1.8222e-05
1.88021e-05
-0.000236707
-2.38109e-05
0.000173013
-4.61552e-05
0.000109
-0.000103775
7.25635e-05
-0.000196781
0.000101743
-0.000273372
0.000139251
-0.000304482
0.000108967
-0.000303542
6.35306e-05
-0.000300619
4.23244e-05
-0.00029804
3.16272e-05
-0.000285475
1.31844e-05
-0.000276762
4.05951e-06
-0.000260685
2.86238e-06
-0.000246397
1.33061e-06
-0.000234831
8.77011e-08
-0.000232275
-3.83099e-06
-0.000229043
-2.4266e-06
-0.000255499
3.92554e-05
-0.000273488
7.52245e-06
-0.000309348
-2.32489e-05
-0.000341225
2.67456e-05
-0.000337729
3.06541e-05
-0.00032632
6.81279e-06
-6.74059e-06
-0.000300778
-4.73258e-05
0.000220339
-4.20008e-05
0.000103675
-0.000148577
0.000179139
-0.000252532
0.000205698
-0.000295751
0.00018247
-0.000309234
0.000122451
-0.000320446
7.47416e-05
-0.000336057
5.7936e-05
-0.000338353
3.39229e-05
-0.000336913
1.17444e-05
-0.000335588
2.73478e-06
-0.00032799
-4.73615e-06
-0.000314323
-1.23362e-05
-0.0002931
-2.11356e-05
-0.000285179
-1.17511e-05
-0.00027784
-9.7661e-06
-0.000208352
-3.0232e-05
-0.000212228
1.13979e-05
-0.000281291
4.58144e-05
-0.000286028
3.14823e-05
-0.000302552
4.71782e-05
-0.000294941
-7.98627e-07
-3.16384e-05
-0.000270043
-4.36719e-05
0.00026401
-8.01763e-05
0.000140179
-0.000162742
0.000261705
-0.000246398
0.000289354
-0.000273019
0.000209092
-0.000295527
0.000144958
-0.000323211
0.000102426
-0.000351609
8.63338e-05
-0.000359949
4.22636e-05
-0.000360947
1.27415e-05
-0.000366341
8.12946e-06
-0.000362488
-8.58912e-06
-0.000355938
-1.88867e-05
-0.000342341
-3.4732e-05
-0.000329338
-2.47544e-05
-0.00029912
-3.99839e-05
-0.000302543
-2.68095e-05
-0.00029165
5.04995e-07
-0.000267307
2.14712e-05
-0.000244481
8.65711e-06
-0.000167979
-2.93246e-05
-0.000158676
-1.01018e-05
7.39399e-08
-0.000190388
-4.46812e-05
0.000308692
-0.000109504
0.000205002
-0.000184272
0.000336473
-0.000234588
0.00033967
-0.000189398
0.000163902
-0.000210864
0.000166424
-0.000253428
0.00014499
-0.000279523
0.000112429
-0.00029707
5.98104e-05
-0.000314296
2.99677e-05
-0.000343195
3.70283e-05
-0.000350818
-9.66066e-07
-0.000349274
-2.04303e-05
-0.000343978
-4.00279e-05
-0.000335988
-3.27444e-05
-0.000328872
-4.70999e-05
-0.000322378
-3.3304e-05
-0.000291263
-3.06102e-05
-0.000257696
-1.20954e-05
-0.000231246
-1.77928e-05
-0.000227216
-3.33552e-05
-0.000219633
-1.76844e-05
-1.41392e-05
-0.00020542
-2.57775e-05
0.000334469
-7.14256e-05
0.00025065
-7.46396e-05
0.000339687
-8.45514e-05
0.000349582
-0.000178984
0.000258335
-0.000157742
0.000145182
-0.000145117
0.000132365
-9.14842e-05
5.87956e-05
-0.000110857
7.91834e-05
-0.000184242
0.000103352
-0.000151033
3.81942e-06
-0.000112363
-3.96356e-05
-9.78268e-05
-3.49667e-05
-0.000121269
-1.65856e-05
-0.000175513
2.14995e-05
-0.000222848
2.35252e-07
-0.00024103
-1.51225e-05
-0.000247058
-2.45819e-05
-0.000238848
-2.0305e-05
-0.000220399
-3.62425e-05
-0.000205446
-4.83082e-05
-0.00018972
-3.34101e-05
-4.47348e-05
-0.000159124
-7.64053e-07
0.000335233
-9.95664e-05
0.000349453
-0.000116266
0.000356387
-0.000122095
0.00035541
-9.22335e-05
0.000228473
-6.71042e-05
0.000120052
-7.14397e-05
0.0001367
-0.000132484
0.00011984
-0.000160961
0.000107661
-0.000150687
9.30775e-05
-0.000101925
-4.49422e-05
-7.47371e-05
-6.68236e-05
-6.81114e-05
-4.15925e-05
-6.43984e-05
-2.02985e-05
-5.15508e-05
8.65189e-06
-4.96383e-05
-1.6772e-06
-4.57527e-05
-1.90081e-05
-4.73302e-05
-2.30044e-05
-5.8758e-05
-8.8771e-06
-7.3596e-05
-2.14045e-05
-8.82133e-05
-3.3691e-05
-9.75564e-05
-2.4067e-05
-4.05986e-05
-0.000101693
-1.99376e-05
0.000355171
-5.75069e-05
0.000387022
-8.78849e-05
0.000386765
-9.77322e-05
0.000365258
-6.53644e-05
0.000196106
-6.60078e-05
0.000120696
-5.4385e-05
0.000125078
-3.9058e-05
0.000104513
-9.1871e-05
0.000160474
-8.99027e-05
9.11092e-05
-8.43963e-05
-5.04485e-05
-9.16243e-05
-5.95957e-05
-9.34824e-05
-3.97343e-05
-8.86917e-05
-2.50892e-05
-7.03758e-05
-9.66403e-06
-5.64663e-05
-1.55867e-05
-3.88383e-05
-3.66361e-05
-3.81305e-05
-2.37122e-05
-3.42613e-05
-1.27463e-05
-3.7814e-05
-1.78519e-05
-4.63765e-05
-2.51284e-05
-4.6197e-05
-2.42465e-05
-3.31011e-05
-5.36946e-05
-1.60453e-05
0.000371216
-2.67745e-05
0.000397751
-2.988e-05
0.00038987
-3.55099e-05
0.000370887
-4.7699e-05
0.000208295
-1.36803e-06
7.43649e-05
7.86436e-06
0.000115845
-6.85082e-06
0.000119228
-5.3243e-05
0.000206866
-7.57857e-05
0.000113652
-9.5732e-05
-3.05022e-05
-0.000112006
-4.3322e-05
-0.000122887
-2.88533e-05
-0.000108897
-3.90785e-05
-9.40974e-05
-2.44641e-05
-9.52126e-05
-1.44715e-05
-0.00013178
-6.81736e-08
-0.000167006
1.15135e-05
-0.000175903
-3.84977e-06
-0.000162202
-3.15527e-05
-0.000135366
-5.19639e-05
-0.000115454
-4.4159e-05
-4.14668e-05
-0.000107088
-8.66883e-06
0.000379885
-2.33949e-05
0.000412477
-1.23168e-05
0.000378792
-6.17097e-07
0.000359188
2.52555e-05
0.000182422
1.56246e-05
8.39958e-05
7.83715e-05
5.30982e-05
2.2489e-05
0.000175111
-1.00293e-05
0.000239384
-4.22943e-05
0.000145917
-6.82532e-05
-4.54333e-06
-0.000112202
6.27237e-07
-9.36853e-05
-4.73704e-05
-6.4139e-05
-6.86248e-05
-4.45014e-05
-4.41018e-05
-2.59715e-05
-3.30014e-05
-1.98024e-05
-6.23729e-06
-1.17629e-05
3.47407e-06
-6.8229e-06
-8.78981e-06
-9.16199e-06
-2.92136e-05
-1.62584e-05
-4.48674e-05
-2.6993e-05
-3.34244e-05
-1.8386e-05
-5.00738e-05
-1.04846e-05
0.00039037
-1.06594e-05
0.000412652
4.61357e-06
0.000363519
4.24868e-05
0.000321314
5.99835e-05
0.000164925
7.5123e-05
6.88564e-05
5.99281e-05
6.82931e-05
5.83946e-05
0.000176644
3.76384e-05
0.000260141
-4.01727e-06
0.000187573
-4.2727e-05
3.41664e-05
-5.91814e-05
1.70816e-05
-3.97994e-05
-6.67524e-05
-6.23173e-05
-4.61069e-05
-3.40636e-05
-7.23555e-05
-3.85244e-05
-2.85406e-05
-2.24117e-05
-2.235e-05
-3.25245e-06
-1.56851e-05
7.99771e-06
-2.004e-05
3.1922e-06
-2.44081e-05
4.18991e-06
-4.58651e-05
-7.5415e-06
-2.1693e-05
-1.17434e-05
-1.41841e-05
-1.13862e-05
0.000401756
-1.19697e-05
0.000413236
2.02133e-07
0.000351347
0.000129103
0.000192413
0.000138819
0.00015521
0.000130607
7.70676e-05
0.000101871
9.70291e-05
8.91513e-05
0.000189364
7.32188e-05
0.000276073
2.20699e-05
0.000238721
-1.98433e-05
7.60796e-05
-2.13513e-05
1.85897e-05
-4.09617e-05
-4.71421e-05
-2.41094e-05
-6.29592e-05
-3.20625e-05
-6.44024e-05
-1.31818e-05
-4.74213e-05
-5.64215e-06
-2.98897e-05
2.47188e-06
-2.37992e-05
2.11779e-05
-3.8746e-05
1.71504e-05
-2.03807e-05
1.45738e-05
-4.32885e-05
1.40888e-05
-2.1208e-05
-2.09035e-05
2.32489e-05
-6.78695e-06
0.000408543
-5.1385e-06
0.000411587
1.26831e-05
0.000333526
5.50394e-05
0.000150057
0.000125424
8.48251e-05
0.000136811
6.56813e-05
0.000108165
0.000125675
0.00010199
0.000195539
0.000113981
0.000264082
7.48436e-05
0.000277859
-4.58685e-05
0.000196792
-5.2454e-05
2.51751e-05
-2.58166e-05
-7.37795e-05
9.81244e-06
-9.85883e-05
1.36944e-05
-6.82844e-05
1.38674e-05
-4.75943e-05
2.53333e-05
-4.13555e-05
3.22477e-05
-3.07136e-05
2.08768e-05
-2.73751e-05
2.96063e-05
-2.91102e-05
2.23897e-05
-3.60719e-05
4.48822e-05
-4.37005e-05
-2.81646e-05
5.21433e-05
-4.42015e-06
0.000412963
5.42484e-06
0.000401742
5.52092e-05
0.000283741
2.34068e-05
0.000181859
6.85558e-05
3.96761e-05
7.96661e-05
5.4571e-05
9.38683e-05
0.000111473
8.00491e-05
0.000209358
0.000143788
0.000200344
0.000195957
0.000225689
0.000128475
0.000264274
9.89064e-05
5.47434e-05
8.19376e-05
-5.68106e-05
3.12471e-05
-4.78978e-05
2.44363e-05
-6.14736e-05
3.32713e-05
-5.64293e-05
4.44702e-05
-5.25544e-05
3.32764e-05
-1.95198e-05
3.9399e-05
-3.34977e-05
3.92437e-05
-2.89548e-05
3.70945e-05
-3.39228e-05
3.51621e-05
-4.17681e-05
-4.11994e-05
4.81969e-05
-9.18398e-07
0.000413881
9.17799e-06
0.000391646
6.66827e-05
0.000226237
9.06191e-05
0.000157923
7.12105e-05
5.90847e-05
8.47206e-05
4.10609e-05
0.000124345
7.18488e-05
0.000136474
0.000197229
0.000111585
0.000225233
0.000105499
0.000231775
0.000120163
0.00024961
0.000100059
7.4847e-05
6.0818e-05
-1.75693e-05
9.43595e-05
-8.14393e-05
9.18522e-05
-5.89664e-05
6.48982e-05
-2.94753e-05
5.49429e-05
-4.25991e-05
5.52601e-05
-1.9837e-05
5.63933e-05
-3.4631e-05
4.63817e-05
-1.89432e-05
4.94019e-05
-3.69429e-05
5.36043e-05
-4.59705e-05
-4.61715e-05
5.85764e-05
-9.80008e-08
0.000413979
6.21502e-06
0.000385333
9.2988e-05
0.000139464
9.35091e-05
0.000157402
0.000103369
4.92252e-05
0.000103641
4.07888e-05
8.2486e-05
9.30035e-05
0.000183693
9.60213e-05
0.000105394
0.000303532
7.05437e-05
0.000266626
0.000117943
0.00020221
0.000127145
6.56454e-05
0.000122647
-1.30714e-05
9.86527e-05
-5.74451e-05
5.13885e-05
-1.17021e-05
6.97529e-05
-4.78396e-05
5.49198e-05
-2.7766e-05
5.92781e-05
-2.41953e-05
3.62793e-05
-1.16322e-05
5.84008e-05
-4.10647e-05
4.7177e-05
-2.57191e-05
2.61633e-05
-2.49568e-05
-5.24665e-05
3.24583e-05
-1.71646e-06
0.000415696
1.17644e-05
0.000371852
2.89542e-05
0.000122274
4.25064e-05
0.00014385
5.86733e-05
3.30582e-05
7.72533e-05
2.22088e-05
0.000108962
6.12951e-05
7.06409e-05
0.000134342
0.000104389
0.000269784
0.0001211
0.000249915
0.000155701
0.000167609
0.000147944
7.34023e-05
0.000126031
8.84149e-06
7.35855e-05
-4.99967e-06
8.84193e-05
-2.6536e-05
6.96561e-05
-2.90764e-05
6.09914e-05
-1.91013e-05
5.58099e-05
-1.90138e-05
5.23989e-05
-8.22133e-06
4.71848e-05
-3.58506e-05
5.75782e-05
-3.61125e-05
6.85371e-05
-3.59157e-05
-5.41421e-05
7.02127e-05
-3.19541e-06
0.000418891
2.60342e-05
0.000342622
2.28275e-05
0.000125481
2.32463e-05
0.000143431
3.11442e-05
2.51603e-05
3.08123e-05
2.25406e-05
1.60994e-05
7.6008e-05
2.7206e-05
0.000123236
6.83038e-05
0.000228686
0.000107856
0.000210363
0.000123505
0.00015196
0.000126714
7.01934e-05
0.000103697
3.18591e-05
8.36486e-05
1.50483e-05
6.38762e-05
-6.76357e-06
3.68293e-05
-2.02955e-06
3.53116e-05
-1.75836e-05
3.41968e-05
-1.7899e-05
5.29079e-05
-2.69325e-05
5.47804e-05
-3.7723e-05
5.35327e-05
-3.48649e-05
5.33714e-05
-3.57544e-05
-4.55035e-05
4.47328e-05
-2.4766e-05
0.000443657
7.09542e-05
0.000246902
4.62627e-05
0.000150172
2.19497e-05
0.000167744
9.35493e-06
3.77551e-05
-3.26571e-06
3.51613e-05
-2.5336e-05
9.80783e-05
-2.80559e-05
0.000125955
-1.67668e-06
0.000202307
4.37841e-05
0.000164903
7.27613e-05
0.000122982
6.33307e-05
7.96239e-05
5.9761e-05
3.54288e-05
6.33598e-05
1.14496e-05
5.33984e-05
3.19777e-06
4.78916e-05
3.47723e-06
4.70969e-05
-1.67889e-05
4.48481e-05
-1.56502e-05
4.98929e-05
-3.19773e-05
5.87351e-05
-4.65653e-05
6.15781e-05
-3.77078e-05
6.5093e-05
-3.92693e-05
-2.47287e-05
4.43182e-05
-8.06295e-06
0.00045172
1.5711e-05
0.000223128
2.83147e-05
0.000137568
1.65453e-05
0.000179513
-7.50227e-06
6.18027e-05
-3.555e-05
6.3209e-05
-2.73809e-05
8.99092e-05
-1.76347e-05
0.000116209
-2.24223e-05
0.000207095
6.87233e-06
0.000135608
-1.39603e-06
0.000131251
1.73589e-05
6.08689e-05
8.93537e-06
4.38524e-05
5.27375e-06
1.51112e-05
7.77338e-06
6.9813e-07
9.23256e-06
2.01806e-06
1.53093e-05
-2.28656e-05
3.09658e-05
-3.13067e-05
3.80959e-05
-3.91074e-05
3.04653e-05
-3.89347e-05
3.09736e-05
-3.82161e-05
3.63461e-05
-4.46419e-05
-3.91515e-05
5.07689e-05
-6.86658e-06
0.000458587
1.28213e-05
0.00020344
9.65131e-06
0.000140738
7.58796e-06
0.000181576
6.62802e-06
6.27626e-05
-1.87636e-05
8.86006e-05
-5.23525e-05
0.000123498
-6.65038e-05
0.000130361
-3.69239e-05
0.000177515
-4.34928e-05
0.000142177
-2.32277e-05
0.000110986
-4.74499e-05
8.50912e-05
-1.61338e-05
1.25362e-05
-6.19322e-06
5.17057e-06
-8.04694e-06
2.55184e-06
4.11649e-06
-1.01454e-05
1.06071e-05
-2.93562e-05
9.16962e-06
-2.98692e-05
2.18564e-05
-5.17942e-05
3.63801e-05
-5.34584e-05
3.55967e-05
-3.74327e-05
3.08161e-05
-3.98613e-05
-4.87075e-05
4.03721e-05
-6.04325e-06
0.00046463
1.23044e-05
0.000185093
-2.15973e-06
0.000155202
4.21286e-05
0.000137288
1.85712e-05
8.63199e-05
-1.43188e-05
0.000121491
-3.52339e-05
0.000144413
-0.000130675
0.000225802
-5.97851e-05
0.000106625
-7.23303e-05
0.000154722
-8.18083e-05
0.000120464
-3.73748e-05
4.06577e-05
-4.29894e-05
1.81508e-05
-2.86733e-05
-9.14559e-06
-3.11202e-05
4.99875e-06
-1.06952e-05
-3.05704e-05
-5.36671e-06
-3.46847e-05
2.18597e-05
-5.70956e-05
3.44339e-05
-6.43685e-05
1.85148e-05
-3.75392e-05
2.295e-05
-4.18679e-05
2.6249e-05
-4.31603e-05
-5.32636e-05
3.08052e-05
5.43919e-06
0.000459191
1.40678e-05
0.000176464
1.87869e-06
0.000167392
-4.66731e-06
0.000143834
-7.48164e-06
8.91342e-05
-3.34879e-05
0.000147497
-4.62631e-05
0.000157188
-6.57788e-05
0.000245318
-0.000109012
0.000149858
-7.69762e-05
0.000122687
-9.34046e-05
0.000136892
-0.000107699
5.49524e-05
-8.79185e-05
-1.6299e-06
-5.97424e-05
-3.73217e-05
-2.59019e-05
-2.88418e-05
-3.47509e-05
-2.17213e-05
-9.29409e-06
-6.01415e-05
6.0475e-07
-6.69944e-05
9.69239e-06
-7.34561e-05
3.75335e-05
-6.53804e-05
3.77439e-05
-4.20783e-05
4.30028e-05
-4.84192e-05
-4.4398e-05
3.41372e-05
1.99585e-05
0.000439232
9.79287e-06
0.000186629
-5.81336e-06
0.000182998
-6.53364e-06
0.000144554
-2.06418e-05
0.000103242
-4.0817e-05
0.000167672
-6.75362e-05
0.000183908
-6.22183e-05
0.00024
-0.000111461
0.000199101
-0.000128727
0.000139952
-0.000134032
0.000142197
-0.000128615
4.95352e-05
-0.000111609
-1.86367e-05
-8.03502e-05
-6.858e-05
-3.96056e-05
-6.95863e-05
-3.3337e-05
-2.79899e-05
-1.17772e-05
-8.17013e-05
6.98713e-06
-8.57588e-05
1.74254e-05
-8.38944e-05
1.64696e-05
-6.44246e-05
1.82017e-05
-4.38103e-05
4.27303e-05
-7.29479e-05
-4.72017e-05
4.5534e-05
8.24251e-05
0.000356807
3.7994e-05
0.000231061
1.4376e-05
0.000206616
2.63736e-06
0.000156293
-2.24564e-05
0.000128336
-4.59304e-05
0.000191146
-7.36754e-05
0.000211653
-1.44809e-05
0.000180805
-0.000108153
0.000292773
-0.000167908
0.000199708
-0.000156267
0.000130556
-0.000142578
3.58463e-05
-0.000126117
-3.50977e-05
-8.84807e-05
-0.000106216
-6.05554e-05
-9.75116e-05
-3.2926e-05
-5.56193e-05
-1.66692e-05
-9.79581e-05
-8.96965e-07
-0.000101531
4.89176e-06
-8.96831e-05
1.99255e-05
-7.94583e-05
4.51852e-05
-6.907e-05
4.20216e-05
-6.97843e-05
-5.11463e-05
4.59662e-05
1.54555e-05
0.000341351
1.35392e-05
0.000232977
-2.49316e-06
0.000222648
-8.21261e-06
0.000162012
-3.94442e-05
0.000159568
-5.25765e-05
0.000204278
-6.23034e-05
0.000221379
-6.29428e-05
0.000181445
-5.3988e-05
0.000283818
-6.92497e-05
0.000214969
-5.40051e-05
0.000115311
-7.89381e-05
6.07793e-05
-8.29195e-05
-3.11164e-05
-6.6019e-05
-0.000123116
-3.50288e-05
-0.000128502
-1.45182e-05
-7.61299e-05
1.66081e-06
-0.000114137
1.31643e-05
-0.000113034
2.55717e-05
-0.00010209
1.08289e-05
-6.47155e-05
1.94348e-05
-7.76759e-05
4.21947e-05
-9.25443e-05
-6.49417e-05
5.59902e-05
-4.99504e-06
0.000346347
-6.4648e-06
0.000234447
-1.78643e-05
0.000234048
-2.56398e-05
0.000169788
-4.64662e-05
0.000180394
-4.7432e-05
0.000205244
-3.64931e-05
0.000210441
-3.85681e-05
0.00018352
-2.20038e-05
0.000267254
-2.08537e-05
0.000213819
-2.8041e-05
0.000122498
-3.11365e-05
6.38749e-05
-4.04581e-05
-2.17948e-05
-4.03101e-05
-0.000123264
-3.86973e-05
-0.000130115
1.05973e-05
-0.000125424
1.66104e-05
-0.00012015
1.42955e-05
-0.00011072
1.45461e-05
-0.000102341
5.8977e-05
-0.000109146
4.38186e-05
-6.25175e-05
1.72313e-05
-6.59569e-05
-9.44638e-05
4.67534e-05
-4.40785e-06
0.000350754
-1.80374e-05
0.000248076
-3.56874e-05
0.000251698
-5.86202e-05
0.000192721
-6.71605e-05
0.000188934
-6.46657e-05
0.000202749
-4.32712e-05
0.000189046
-4.9738e-05
0.000189986
3.34274e-05
0.000184088
9.28702e-05
0.000154376
5.08795e-05
0.000164489
2.75362e-05
8.72182e-05
4.20531e-05
-3.63118e-05
2.77204e-05
-0.000108932
1.65806e-05
-0.000118975
3.16503e-05
-0.000140494
7.55768e-06
-9.60577e-05
1.63312e-05
-0.000119493
2.33586e-05
-0.000109368
1.70409e-05
-0.000102829
4.3306e-05
-8.87827e-05
7.13315e-05
-9.39824e-05
-9.9208e-05
7.60757e-05
-8.24585e-06
0.000359
-3.23174e-05
0.000272148
-6.37533e-05
0.000283134
-9.09213e-05
0.000219889
-0.000102236
0.000200249
-8.78034e-05
0.000188317
-5.56267e-05
0.000156869
-1.48332e-05
0.000149193
2.6493e-05
0.000142762
5.24597e-05
0.00012841
6.88594e-05
0.000148089
8.7268e-05
6.88095e-05
5.66958e-05
-5.73964e-06
4.32733e-05
-9.55092e-05
1.13927e-05
-8.70942e-05
1.87013e-05
-0.000147803
6.42288e-05
-0.000141585
2.30745e-05
-7.83388e-05
3.68654e-05
-0.000123159
4.7794e-05
-0.000113757
4.62247e-05
-8.72133e-05
5.35836e-05
-0.000101341
-0.000111407
6.57821e-05
-1.34732e-05
0.000372473
-3.18457e-05
0.000290521
-6.29298e-05
0.000314218
-0.000100109
0.000257068
-0.00011344
0.000213579
-9.6069e-05
0.000170946
-5.88903e-05
0.000119691
-1.28986e-05
0.000103201
2.87015e-05
0.000101162
6.31356e-05
9.39756e-05
8.72648e-05
0.00012396
0.000100806
5.52685e-05
0.000107145
-1.20785e-05
5.07464e-05
-3.91109e-05
8.12141e-05
-0.000117562
6.75576e-05
-0.000134146
5.693e-05
-0.000130958
5.1443e-05
-7.28517e-05
4.80084e-05
-0.000119725
3.59888e-05
-0.000101738
5.25965e-05
-0.000103821
2.3717e-05
-7.24618e-05
-0.000117298
2.96082e-05
-1.0353e-05
0.000382826
-1.65439e-05
0.000296711
-3.8383e-05
0.000336057
-6.29252e-05
0.00028161
-7.32757e-05
0.00022393
-5.31583e-05
0.000150829
-2.87501e-05
9.52825e-05
-1.43262e-07
7.45943e-05
3.01716e-05
7.08472e-05
3.36957e-05
9.04515e-05
5.94518e-05
9.82039e-05
6.18318e-05
5.28885e-05
7.37954e-05
-2.4042e-05
0.000105767
-7.10824e-05
5.37394e-05
-6.55345e-05
4.25723e-05
-0.000122979
3.0387e-05
-0.000118772
7.23805e-05
-0.000114845
2.85667e-05
-7.59111e-05
4.34404e-05
-0.000116611
1.31731e-05
-7.35537e-05
6.33122e-05
-0.000122601
-8.50223e-05
3.10369e-05
-1.0999e-05
0.000393825
-1.95674e-05
0.00030528
-2.59549e-05
0.000342444
-3.16578e-05
0.000287313
-3.46229e-05
0.000226895
-2.22713e-05
0.000138477
-1.56914e-05
8.87026e-05
-6.79775e-06
6.57007e-05
2.45207e-06
6.15973e-05
3.01285e-05
6.27751e-05
6.09327e-05
6.73997e-05
5.92329e-05
5.45883e-05
4.80046e-05
-1.28137e-05
5.32167e-05
-7.62945e-05
4.78425e-05
-6.01603e-05
3.3117e-05