/*--------------------------------*- C++ -*----------------------------------*\
| =========                 |                                                 |
| \\      /  F ield         | foam-extend: Open Source CFD                    |
|  \\    /   O peration     | Version:     4.1                                |
|   \\  /    A nd           | Web:         http://www.foam-extend.org         |
|    \\/     M anipulation  |                                                 |
\*---------------------------------------------------------------------------*/
FoamFile
{
    version     2.0;
    format      ascii;
    class       surfaceScalarField;
    location    "0.8";
    object      phi_0;
}
// * * * * * * * * * * * * * * * * * * * * * * * * * * * * * * * * * * * * * //

dimensions      [0 3 -1 0 0 0 0];

internalField   nonuniform List<scalar> 
4432
(
-4.89558e-06
4.89558e-06
-9.87437e-06
4.9788e-06
-1.15012e-05
1.62687e-06
-7.10216e-06
-4.39909e-06
-7.26528e-06
1.63127e-07
-7.07242e-06
-1.92864e-07
-7.35236e-06
2.79942e-07
-6.85695e-06
-4.95407e-07
-6.56925e-06
-2.87701e-07
-4.95284e-06
-1.61642e-06
-2.21904e-06
-2.7338e-06
-1.08329e-06
-1.13575e-06
1.02416e-06
-2.10745e-06
3.36907e-06
-2.34491e-06
6.03804e-06
-2.66898e-06
9.08808e-06
-3.05004e-06
1.11805e-05
-2.0924e-06
1.11369e-05
4.35504e-08
6.93007e-06
4.20686e-06
1.17372e-05
-4.80717e-06
7.59093e-06
4.14631e-06
4.23803e-06
3.3529e-06
4.23803e-06
-1.51123e-06
6.4068e-06
-4.5419e-06
8.00947e-06
-5.76173e-06
2.84671e-06
-6.92133e-06
-3.23949e-06
-7.08847e-06
3.30266e-07
-6.94755e-06
-3.33785e-07
-7.00422e-06
3.36615e-07
-6.03101e-06
-1.46862e-06
-5.20276e-06
-1.11596e-06
-3.32182e-06
-3.49735e-06
-2.34228e-06
-3.71334e-06
-5.40138e-07
-2.9379e-06
6.61157e-07
-3.30874e-06
2.91805e-06
-4.60179e-06
6.54037e-06
-6.2913e-06
9.92074e-06
-6.43041e-06
1.29156e-05
-5.08729e-06
1.33172e-05
-3.58047e-07
1.38345e-05
3.68963e-06
6.44991e-06
2.57738e-06
7.08925e-06
3.50696e-06
5.27364e-06
5.16851e-06
9.51167e-06
-4.07675e-06
1.04836e-05
-4.85197e-06
8.78469e-06
-5.95293e-06
3.94767e-06
-6.93394e-06
-2.25849e-06
-6.89422e-06
2.90547e-07
-6.64394e-06
-5.8406e-07
-6.7859e-06
4.78571e-07
-6.14707e-06
-2.10744e-06
-5.68325e-06
-1.57978e-06
-4.25528e-06
-4.92531e-06
-4.79908e-06
-3.16954e-06
-4.28998e-06
-3.447e-06
-4.11256e-06
-3.48616e-06
-1.8297e-06
-6.88465e-06
1.02566e-06
-9.14666e-06
3.46593e-06
-8.87068e-06
6.15504e-06
-7.7764e-06
1.20917e-05
-6.29468e-06
1.30187e-05
2.76257e-06
1.25097e-05
3.08644e-06
8.66989e-06
7.34674e-06
4.54608e-06
9.29233e-06
1.40577e-05
-5.32935e-06
1.58129e-05
-5.52576e-06
8.9811e-06
-6.20284e-06
4.62475e-06
-6.76173e-06
-1.69959e-06
-6.84919e-06
3.78003e-07
-7.00153e-06
-4.31717e-07
-7.50307e-06
9.80106e-07
-6.78107e-06
-2.82944e-06
-5.67092e-06
-2.68993e-06
-1.01916e-05
-4.04614e-07
-1.05401e-05
-2.8211e-06
-1.04947e-05
-3.49238e-06
-9.55732e-06
-4.42351e-06
-7.59849e-06
-8.84349e-06
-4.86689e-06
-1.18783e-05
-4.21217e-07
-1.33164e-05
4.86613e-06
-1.30637e-05
4.5296e-06
-5.95815e-06
9.46023e-06
-2.16806e-06
9.92838e-06
2.61829e-06
7.01178e-06
1.02633e-05
2.80368e-06
1.35004e-05
1.68614e-05
-3.61855e-06
1.94315e-05
-5.879e-06
1.12416e-05
-6.61217e-06
5.35791e-06
-7.1394e-06
-1.17235e-06
-7.26797e-06
5.06572e-07
-7.56795e-06
-1.31741e-07
-7.58528e-06
9.97444e-07
-1.34908e-05
3.07605e-06
-1.36269e-05
-2.55379e-06
-1.45198e-05
4.88323e-07
-1.54934e-05
-1.84756e-06
-1.42095e-05
-4.77622e-06
-1.27066e-05
-5.92646e-06
-1.15598e-05
-9.99033e-06
-8.45517e-06
-1.49828e-05
-3.87468e-06
-1.78968e-05
4.92389e-07
-1.74308e-05
1.65193e-06
-7.11769e-06
6.26672e-06
-6.78286e-06
5.12668e-06
3.75834e-06
6.42396e-06
8.96606e-06
3.81768e-07
1.95426e-05
1.72432e-05
-3.85453e-06
2.3286e-05
-6.73228e-06
1.41193e-05
-6.84074e-06
5.46637e-06
-6.78013e-06
-1.23296e-06
-6.9056e-06
6.3204e-07
-7.72538e-06
6.88041e-07
-9.57388e-06
2.84594e-06
-9.92341e-06
3.42558e-06
-1.73768e-05
4.89958e-06
-1.80368e-05
1.14834e-06
-1.90855e-05
-7.9888e-07
-1.81226e-05
-5.73914e-06
-1.61272e-05
-7.92178e-06
-1.17053e-05
-1.44123e-05
-8.28815e-06
-1.84e-05
-4.59404e-06
-2.15909e-05
-1.40655e-07
-2.18842e-05
3.89345e-06
-1.11518e-05
3.45572e-06
-6.34512e-06
3.89383e-06
3.32022e-06
6.36654e-06
6.49335e-06
5.80614e-06
2.0103e-05
2.30493e-05
-5.11455e-06
2.84005e-05
-1.59214e-05
2.49262e-05
-1.72015e-05
6.74645e-06
-1.72962e-05
-1.13827e-06
-1.88016e-05
2.13748e-06
-2.01198e-05
2.0062e-06
-2.08657e-05
3.59183e-06
-2.08227e-05
3.38257e-06
-2.08211e-05
4.89801e-06
-2.04034e-05
7.30698e-07
-1.95093e-05
-1.69305e-06
-1.77843e-05
-7.46415e-06
-1.58478e-05
-9.8582e-06
-1.33078e-05
-1.69524e-05
-8.42406e-06
-2.32837e-05
-2.57217e-06
-2.74428e-05
1.57036e-06
-2.60267e-05
2.63207e-06
-1.22135e-05
1.00999e-05
-1.3813e-05
5.90713e-06
7.51302e-06
4.84846e-06
7.55202e-06
7.37773e-06
1.75738e-05
3.04271e-05
-5.78625e-06
3.41868e-05
-1.09701e-05
3.011e-05
-2.16413e-05
1.74177e-05
-2.19144e-05
-8.65191e-07
-2.35767e-05
3.79981e-06
-2.42924e-05
2.72188e-06
-2.44183e-05
3.71776e-06
-2.31155e-05
2.07976e-06
-2.14886e-05
3.27111e-06
-2.01875e-05
-5.70374e-07
-1.90704e-05
-2.81018e-06
-1.85081e-05
-8.02649e-06
-1.75533e-05
-1.08129e-05
-1.32429e-05
-2.12628e-05
-8.64021e-06
-2.78864e-05
-2.37938e-06
-3.37037e-05
4.83569e-06
-3.32418e-05
6.37677e-06
-1.37546e-05
1.60571e-05
-2.34934e-05
1.40455e-05
9.52462e-06
1.62312e-05
5.36632e-06
1.52534e-05
1.85516e-05
4.56805e-05
-5.21549e-05
5.21549e-05
-0.000120417
6.82616e-05
-0.000168619
4.82021e-05
-0.000206641
3.80226e-05
-0.000221144
1.45029e-05
-0.000235617
1.44726e-05
-0.000248647
1.30307e-05
-0.000256005
7.35723e-06
-0.000262513
6.50803e-06
-0.000270095
7.58219e-06
-0.000274811
4.71578e-06
-0.000262852
-1.19581e-05
-0.000250973
-1.18798e-05
-0.000210733
-4.02399e-05
-0.00010387
-0.000106863
-7.67873e-05
-2.70828e-05
-8.99008e-05
1.31136e-05
-4.86312e-05
-4.12697e-05
-4.86312e-05
-5.01156e-05
0.000102271
-0.00011374
0.000131886
-0.000150263
8.47259e-05
-0.00018032
6.8079e-05
-0.000192367
2.65502e-05
-0.000206877
2.89826e-05
-0.000219604
2.57574e-05
-0.000222379
1.01324e-05
-0.000223932
8.06123e-06
-0.000221895
5.54484e-06
-0.000224296
7.1171e-06
-0.000214746
-2.15084e-05
-0.000121166
-0.000105459
-0.000101324
-6.00826e-05
-0.00010161
-0.000106576
-7.90274e-05
-4.96659e-05
-4.9483e-05
-1.64308e-05
-4.73545e-05
-4.33982e-05
-9.59856e-05
-4.39552e-05
0.000146226
-8.8493e-05
0.000176423
-0.00010681
0.000103042
-7.08685e-05
3.21378e-05
-0.000132434
8.8116e-05
-0.000141702
3.82506e-05
-0.000151076
3.5131e-05
-0.000151611
1.06677e-05
-0.000157245
1.36949e-05
-0.000157304
5.60424e-06
-0.000148738
-1.44975e-06
-0.00012616
-4.4086e-05
-0.000139031
-9.25875e-05
-6.85426e-05
-0.000130571
-6.86279e-05
-0.000106491
-6.1197e-05
-5.70968e-05
-4.41908e-05
-3.3437e-05
-3.0429e-05
-5.71601e-05
-0.000126415
-3.4724e-05
0.00018095
-6.2578e-05
0.000204277
-7.1098e-05
0.000111562
-8.7953e-05
4.89929e-05
-9.0386e-05
9.0549e-05
-8.75638e-05
3.54284e-05
-4.96044e-05
-2.82837e-06
-7.6367e-05
3.74302e-05
-8.72132e-05
2.45411e-05
-9.50793e-05
1.34704e-05
-9.69332e-05
4.04112e-07
-9.00628e-05
-5.09564e-05
-8.2072e-05
-0.000100578
-7.28824e-05
-0.000139761
-4.10707e-05
-0.000138302
-6.19927e-05
-3.61749e-05
-2.93707e-05
-6.6059e-05
-2.72901e-05
-5.92407e-05
-0.000153705
-2.97509e-05
0.000210701
-4.71744e-05
0.000221701
-5.18804e-05
0.000116269
-6.03804e-05
5.74929e-05
-4.50423e-05
7.5211e-05
-1.97147e-05
1.01008e-05
-1.30099e-05
-9.53323e-06
-3.62461e-05
6.06664e-05
-4.10389e-05
2.9334e-05
-3.30505e-05
5.48197e-06
-3.1614e-05
-1.03247e-06
-2.91087e-05
-5.34617e-05
-1.83266e-05
-0.00011136
-1.51214e-05
-0.000142966
-2.8112e-05
-0.000125312
-2.3022e-05
-4.12648e-05
-1.82404e-05
-7.08406e-05
-9.25043e-06
-6.82306e-05
-0.000162955
-2.345e-05
0.000234151
-3.25959e-05
0.000230847
-3.5947e-05
0.00011962
-3.29155e-05
5.44614e-05
-2.06284e-05
6.29239e-05
-8.73527e-06
-1.79236e-06
-1.2404e-05
-5.86452e-06
-1.40006e-06
4.96624e-05
8.58542e-06
1.93485e-05
2.18597e-05
-7.79233e-06
2.49786e-05
-4.15134e-06
1.18654e-05
-4.03486e-05
4.22009e-06
-0.000103715
-2.18464e-06
-0.000136562
-1.17264e-05
-0.00011577
-1.13428e-05
-4.16484e-05
-9.86114e-06
-7.23223e-05
-3.16568e-06
-7.49261e-05
-0.000166121
-1.98348e-05
0.000253985
-1.49973e-05
0.000226009
-6.01178e-06
0.000110634
-8.74153e-06
5.71911e-05
2.76561e-07
5.39058e-05
6.08877e-06
-7.60457e-06
4.34478e-06
-4.12054e-06
1.58962e-05
3.8111e-05
3.60581e-05
-8.13413e-07
5.00263e-05
-2.17605e-05
4.56154e-05
2.59536e-07
3.62558e-05
-3.0989e-05
3.29522e-05
-0.000100412
1.00541e-05
-0.000113663
2.29909e-06
-0.000108015
-3.95858e-07
-3.89535e-05
-1.01256e-05
-6.25925e-05
-1.11662e-06
-8.39351e-05
-0.000167237
-1.73824e-05
0.000271368
-7.92288e-07
0.000209419
5.59e-06
0.000104252
1.05241e-05
5.2257e-05
1.66013e-05
4.78286e-05
1.72656e-05
-8.2688e-06
1.58189e-05
-2.67386e-06
3.44348e-05
1.94951e-05
4.72917e-05
-1.36704e-05
3.44474e-05
-8.91612e-06
3.25861e-05
2.12079e-06
5.1461e-05
-4.98639e-05
4.65863e-05
-9.55368e-05
3.06185e-05
-9.76956e-05
1.63147e-05
-9.37112e-05
8.17827e-06
-3.0817e-05
-4.88171e-06
-4.95325e-05
4.96168e-07
-8.9313e-05
-0.000166741
-1.40622e-05
4.82489e-05
-2.65007e-05
4.25485e-05
-3.32774e-05
2.41945e-05
-5.34227e-05
1.92801e-05
-5.29406e-05
3.31767e-06
-5.41725e-05
3.95376e-06
-5.19335e-05
1.47884e-06
-4.84686e-05
-1.38518e-06
-4.57422e-05
5.44762e-07
-4.3039e-05
-3.27361e-06
-4.02345e-05
-5.61468e-06
-3.6173e-05
-1.20879e-05
-3.30558e-05
-1.39301e-05
-3.50347e-05
-1.92839e-05
-2.48401e-05
-3.8081e-05
-7.12401e-06
-5.14197e-05
1.21735e-05
-5.25394e-05
3.46507e-05
-3.62318e-05
2.96919e-05
-1.85345e-05
4.15653e-05
-2.34877e-06
2.02877e-05
2.66439e-05
2.15648e-05
1.72745e-05
1.73716e-05
4.98737e-05
-1.8503e-05
6.6752e-05
-3.03967e-05
5.44421e-05
-2.93307e-05
2.31285e-05
-2.75629e-05
1.75123e-05
-4.61378e-05
2.18925e-05
-4.56133e-05
3.42935e-06
-4.51682e-05
1.03369e-06
-4.2575e-05
-3.97836e-06
-4.36314e-05
1.60115e-06
-4.45453e-05
-2.35971e-06
-4.97424e-05
-4.17623e-07
-5.34306e-05
-8.39975e-06
-5.09933e-05
-1.63673e-05
-4.06003e-05
-2.9677e-05
-3.07196e-05
-4.79617e-05
-1.60441e-05
-6.60952e-05
2.48461e-06
-7.1068e-05
-5.75104e-07
-3.31721e-05
2.15452e-05
-4.06548e-05
2.1113e-05
-1.91651e-06
2.00286e-05
2.77283e-05
1.79498e-05
1.93532e-05
2.90879e-05
6.23347e-06
-1.80829e-05
8.48349e-05
-2.57711e-05
6.21303e-05
-4.9766e-05
4.71235e-05
-5.28364e-05
2.05826e-05
-3.3369e-05
2.4251e-06
-3.06208e-05
6.81212e-07
-2.53456e-05
-4.24147e-06
-3.7508e-05
8.184e-06
-3.8432e-05
2.52516e-06
-4.94939e-05
8.70222e-06
-4.10952e-05
-8.81639e-06
-7.08716e-05
2.13766e-05
-7.60478e-05
-1.1191e-05
-9.02651e-05
-1.54598e-05
-9.95166e-05
-3.87101e-05
-0.000107607
-5.8005e-05
-0.000105306
-7.33686e-05
-8.14752e-05
-5.70031e-05
-8.16439e-05
-4.04862e-05
-6.3718e-05
-1.98424e-05
-4.91293e-05
1.31396e-05
-7.32944e-05
4.35183e-05
6.78279e-05
-0.000112034
-2.83366e-05
0.000113171
-3.88986e-05
7.26923e-05
-3.67872e-05
4.50121e-05
-3.94736e-05
2.3269e-05
-3.29637e-05
-4.08479e-06
-2.34736e-05
-8.8089e-06
-9.96752e-06
-1.77476e-05
-1.92104e-05
1.74269e-05
-3.1402e-05
1.47168e-05
-4.28803e-05
2.01805e-05
-6.80266e-05
1.63299e-05
-6.08464e-05
1.41965e-05
-9.38103e-05
2.17728e-05
-0.000106572
-2.69828e-06
-0.000142971
-2.31079e-06
-0.000177952
-2.30237e-05
-0.000190339
-6.09824e-05
-0.000202284
-4.50573e-05
-0.00021239
-3.03807e-05
-0.000211327
-2.09051e-05
-0.000198969
7.81506e-07
-0.000179094
2.36434e-05
4.09146e-05
-0.000152181
-2.33289e-05
0.0001365
-3.5532e-05
8.48954e-05
-1.26502e-05
2.21303e-05
-4.74259e-06
1.53614e-05
-1.10932e-05
2.26584e-06
-1.58643e-05
-4.03777e-06
-2.89274e-05
-4.68451e-06
-3.85844e-05
2.70838e-05
-4.89883e-05
2.51207e-05
-5.7028e-05
2.82202e-05
-6.44223e-05
2.37242e-05
-8.02341e-05
3.00083e-05
-8.83762e-05
2.99149e-05
-0.000113328
2.22534e-05
-0.00011044
-5.19871e-06
-0.000121891
-1.15726e-05
-0.000181097
-1.77613e-06
-0.000198854
-2.73008e-05
-0.000219635
-9.60001e-06
-0.000230935
-9.60428e-06
-0.000212534
-1.76196e-05
-0.000204416
1.55249e-05
2.767e-05
-0.000191171
-1.30465e-05
0.000149547
-1.55594e-05
8.74083e-05
-9.36077e-06
1.59316e-05
-2.64388e-06
8.64453e-06
-6.25814e-05
6.22034e-05
-0.000144523
7.79041e-05
-0.000213784
6.45758e-05
-0.000231505
4.48055e-05
-0.000239733
3.33489e-05
-0.000236371
2.48582e-05
-0.000225186
1.25385e-05
-0.000213353
1.81751e-05
-0.000198501
1.50634e-05
-0.000187373
1.1125e-05
-0.000191235
-1.3368e-06
-0.000203109
3.01897e-07
-0.000216897
1.20115e-05
-0.000233401
-1.0796e-05
-0.000185981
-5.70209e-05
-0.000190975
-4.60954e-06
-0.00024081
3.2215e-05
-0.00024328
1.79949e-05
1.92267e-05
-0.000234837
-2.32579e-05
0.000172805
-4.44995e-05
0.00010865
-0.00010227
7.37026e-05
-0.000194458
0.000100832
-0.00027176
0.000139505
-0.000303496
0.00010964
-0.000302592
6.36715e-05
-0.000299722
4.19357e-05
-0.0002977
3.13268e-05
-0.000284845
1.20031e-05
-0.00027606
3.75367e-06
-0.000259872
1.98678e-06
-0.000245555
7.4679e-07
-0.000233633
-7.97306e-07
-0.000230205
-4.76492e-06
-0.000226512
-3.39112e-06
-0.000251767
3.7267e-05
-0.000269088
6.52497e-06
-0.000304688
-2.14207e-05
-0.00033652
2.72225e-05
-0.000334604
3.02991e-05
-0.000323697
7.08692e-06
-6.26465e-06
-0.000298205
-4.62396e-05
0.000219044
-4.22925e-05
0.000104703
-0.000146441
0.000177851
-0.000250053
0.000204445
-0.000294301
0.000183753
-0.000307482
0.000122822
-0.000318269
7.44581e-05
-0.000333536
5.72029e-05
-0.000336229
3.40194e-05
-0.000335389
1.1163e-05
-0.000333579
1.94358e-06
-0.000326606
-4.98607e-06
-0.000312975
-1.28844e-05
-0.000291802
-2.19697e-05
-0.000284409
-1.21583e-05
-0.000276064
-1.17365e-05
-0.000208632
-3.01644e-05
-0.000213215
1.11075e-05
-0.00027856
4.39242e-05
-0.000283033
3.16963e-05
-0.000300276
4.75418e-05
-0.00029319
6.14188e-10
-3.03464e-05
-0.000269108
-4.26247e-05
0.000261669
-7.87636e-05
0.000140842
-0.000160428
0.000259515
-0.000244251
0.000288268
-0.000271132
0.000210634
-0.000292554
0.000144244
-0.00031993
0.000101835
-0.000348913
8.61859e-05
-0.000357664
4.27706e-05
-0.000358721
1.22191e-05
-0.000363859
7.08232e-06
-0.00035998
-8.86539e-06
-0.000353318
-1.9546e-05
-0.000339674
-3.56143e-05
-0.000326277
-2.55549e-05
-0.000296769
-4.12444e-05
-0.0003004
-2.65338e-05
-0.000289593
3.00926e-07
-0.000266335
2.06656e-05
-0.000243534
8.89553e-06
-0.000169033
-2.69586e-05
-0.000159387
-9.64553e-06
-6.81916e-07
-0.000189052
-4.34376e-05
0.000305107
-0.00010835
0.000205754
-0.000181734
0.000332899
-0.000231849
0.000338383
-0.000186953
0.000165738
-0.000207134
0.000164425
-0.000248675
0.000143375
-0.00027481
0.000112321
-0.000291914
5.98749e-05
-0.00030981
3.01151e-05
-0.000339718
3.69904e-05
-0.000347177
-1.40693e-06
-0.000345381
-2.13422e-05
-0.00034071
-4.02849e-05
-0.000334069
-3.21955e-05
-0.000328383
-4.6931e-05
-0.000321394
-3.35224e-05
-0.000289946
-3.11474e-05
-0.00025697
-1.231e-05
-0.000230565
-1.75096e-05
-0.000225238
-3.22857e-05
-0.000217376
-1.75072e-05
-1.36456e-05
-0.000204413
-2.53028e-05
0.00033041
-7.10166e-05
0.000251468
-7.46448e-05
0.000336527
-8.49224e-05
0.00034866
-0.000176034
0.00025685
-0.000155046
0.000143437
-0.000142707
0.000131037
-9.12106e-05
6.08244e-05
-0.00011128
7.99445e-05
-0.000183858
0.000102693
-0.000152426
5.55799e-06
-0.000113493
-4.03404e-05
-9.77323e-05
-3.71025e-05
-0.000119958
-1.80587e-05
-0.000172859
2.07054e-05
-0.000220512
7.2197e-07
-0.000239399
-1.46357e-05
-0.000245662
-2.48842e-05
-0.000238065
-1.99074e-05
-0.000220214
-3.53602e-05
-0.000205807
-4.66929e-05
-0.000189818
-3.34962e-05
-4.43062e-05
-0.000159157
-1.65565e-06
0.000332065
-9.68241e-05
0.000346636
-0.000114052
0.000353755
-0.000120234
0.000354842
-9.24181e-05
0.000229034
-6.74309e-05
0.00011845
-7.0727e-05
0.000134333
-0.000130708
0.000120806
-0.000159645
0.000108881
-0.000151395
9.44434e-05
-0.000102893
-4.29435e-05
-7.57056e-05
-6.75281e-05
-6.86867e-05
-4.41215e-05
-6.4318e-05
-2.24273e-05
-5.16845e-05
8.07194e-06
-4.95756e-05
-1.38701e-06
-4.56072e-05
-1.8604e-05
-4.70516e-05
-2.34398e-05
-5.83109e-05
-8.64815e-06
-7.30813e-05
-2.05898e-05
-8.71065e-05
-3.26677e-05
-9.66252e-05
-2.39775e-05
-4.00231e-05
-0.000100908
-2.01273e-05
0.000352192
-5.70784e-05
0.000383587
-8.68646e-05
0.000383542
-9.65033e-05
0.000364481
-6.46286e-05
0.000197159
-6.47252e-05
0.000118546
-5.3982e-05
0.00012359
-3.93144e-05
0.000106138
-9.1721e-05
0.000161288
-9.06501e-05
9.33725e-05
-8.41874e-05
-4.94061e-05
-9.12601e-05
-6.04554e-05
-9.37834e-05
-4.15981e-05
-8.99678e-05
-2.6243e-05
-7.13369e-05
-1.05589e-05
-5.72729e-05
-1.5451e-05
-3.95377e-05
-3.63392e-05
-3.89858e-05
-2.39918e-05
-3.51785e-05
-1.24555e-05
-3.85973e-05
-1.71711e-05
-4.68451e-05
-2.44199e-05
-4.69466e-05
-2.3876e-05
-3.2749e-05
-5.42207e-05
-1.68351e-05
0.000369028
-2.64574e-05
0.000393209
-2.9469e-05
0.000386553
-3.46253e-05
0.000369637
-4.46678e-05
0.000207202
-4.10559e-07
7.42889e-05
7.63647e-06
0.000115542
-6.52704e-06
0.000120302
-5.24745e-05
0.000207235
-7.5106e-05
0.000116004
-9.52274e-05
-2.92847e-05
-0.000111969
-4.37138e-05
-0.000123671
-2.98965e-05
-0.000109631
-4.02832e-05
-9.43459e-05
-2.58436e-05
-9.40808e-05
-1.57161e-05
-0.000130131
-2.89318e-07
-0.000165461
1.13383e-05
-0.000174996
-2.91979e-06
-0.000162219
-2.99481e-05
-0.000135622
-5.10171e-05
-0.000115312
-4.41867e-05
-4.13939e-05
-0.000106667
-9.5404e-06
0.000378568
-2.316e-05
0.000406829
-1.20569e-05
0.00037545
-5.82484e-08
0.000357638
2.73923e-05
0.000179751
1.76357e-05
8.40455e-05
7.94038e-05
5.37744e-05
2.33883e-05
0.000176317
-9.63431e-06
0.000240258
-4.19836e-05
0.000148353
-6.83225e-05
-2.94584e-06
-0.000112424
3.87771e-07
-9.44884e-05
-4.78321e-05
-6.48086e-05
-6.9963e-05
-4.56274e-05
-4.50248e-05
-2.74613e-05
-3.38822e-05
-2.06693e-05
-7.08134e-06
-1.27696e-05
3.43856e-06
-7.75516e-06
-7.93424e-06
-9.69102e-06
-2.80122e-05
-1.65515e-05
-4.41566e-05
-2.71361e-05
-3.36021e-05
-1.86382e-05
-4.98918e-05
-1.1063e-05
0.000389631
-1.1082e-05
0.000406848
4.99201e-06
0.000359376
4.36944e-05
0.000318936
6.18572e-05
0.000161589
7.69509e-05
6.89519e-05
6.13269e-05
6.93984e-05
5.90757e-05
0.000178568
3.77993e-05
0.000261534
-3.61307e-06
0.000189766
-4.19034e-05
3.53445e-05
-5.82291e-05
1.67135e-05
-3.97579e-05
-6.63032e-05
-6.20893e-05
-4.76316e-05
-3.48945e-05
-7.22196e-05
-3.94709e-05
-2.93057e-05
-2.41255e-05
-2.24267e-05
-5.11979e-06
-1.55672e-05
6.51764e-06
-1.95717e-05
2.61631e-06
-2.41109e-05
3.57389e-06
-4.51141e-05
-8.30091e-06
-2.17273e-05
-1.17632e-05
-1.51759e-05
-1.01462e-05
0.000399777
-1.21699e-05
0.000408872
9.7797e-07
0.000346228
0.000128053
0.000191861
0.000138111
0.00015153
0.000130495
7.65684e-05
0.000102451
9.74419e-05
8.94208e-05
0.000191598
7.28945e-05
0.00027806
2.15875e-05
0.000241073
-2.03829e-05
7.73149e-05
-2.126e-05
1.75907e-05
-4.02663e-05
-4.7297e-05
-2.45348e-05
-6.33631e-05
-3.21941e-05
-6.45602e-05
-1.40842e-05
-4.74156e-05
-6.65058e-06
-2.98603e-05
1.54922e-06
-2.3767e-05
1.99783e-05
-3.80007e-05
1.61463e-05
-2.02789e-05
1.35647e-05
-4.25325e-05
1.31146e-05
-2.12772e-05
-2.09578e-05
2.23092e-05
-7.4669e-06
0.000407244
-5.78617e-06
0.000407191
1.2724e-05
0.000327718
5.56395e-05
0.000148946
0.000124399
8.27706e-05
0.000135846
6.5121e-05
0.000108391
0.000124897
0.00010164
0.000198349
0.000113402
0.000266299
7.47283e-05
0.000279746
-4.42135e-05
0.000196257
-5.20313e-05
2.54084e-05
-2.4632e-05
-7.46963e-05
1.00713e-05
-9.80664e-05
1.38225e-05
-6.83115e-05
1.36552e-05
-4.72483e-05
2.44617e-05
-4.06668e-05
3.09369e-05
-3.02421e-05
1.9918e-05
-2.69819e-05
2.82885e-05
-2.86494e-05
2.14671e-05
-3.57111e-05
4.3365e-05
-4.31751e-05
-2.80908e-05
5.04981e-05
-5.0645e-06
0.000412309
5.33377e-06
0.000396793
5.4183e-05
0.000278869
2.42301e-05
0.000178898
6.78895e-05
3.91113e-05
7.97113e-05
5.32991e-05
9.38982e-05
0.00011071
8.03307e-05
0.000211917
0.000141622
0.000205008
0.000192694
0.000228674
0.000128174
0.000260776
9.96353e-05
5.39472e-05
8.21394e-05
-5.72004e-05
3.15151e-05
-4.74421e-05
2.42665e-05
-6.10629e-05
3.23695e-05
-5.53513e-05
4.30638e-05
-5.13611e-05
3.20453e-05
-1.92236e-05
3.80426e-05
-3.29792e-05
3.80191e-05
-2.86258e-05
3.59516e-05
-3.36436e-05
3.40586e-05
-4.12822e-05
-4.08575e-05
4.68253e-05
-1.06983e-06
0.000413378
9.00173e-06
0.000386721
6.47224e-05
0.000223148
8.78412e-05
0.00015578
6.98457e-05
5.71068e-05
8.29639e-05
4.01808e-05
0.000118804
7.48703e-05
0.000132223
0.000198497
0.000109542
0.000227689
0.000105183
0.000233033
0.000120567
0.000245392
0.00010166
7.2854e-05
6.16034e-05
-1.71438e-05
9.32468e-05
-7.90855e-05
8.96954e-05
-5.75115e-05
6.33329e-05
-2.89888e-05
5.35075e-05
-4.15357e-05
5.3742e-05
-1.94581e-05
5.4747e-05
-3.39842e-05
4.50613e-05
-1.89401e-05
4.80218e-05
-3.66041e-05
5.22017e-05
-4.54621e-05
-4.58158e-05
5.716e-05
-5.59186e-07
0.000413938
5.62219e-06
0.00038054
8.93362e-05
0.000139434
8.98451e-05
0.000155271
9.94088e-05
4.75431e-05
9.88726e-05
4.0717e-05
7.89918e-05
9.47512e-05
0.000177018
0.000100471
0.000103431
0.000301276
7.10605e-05
0.000265404
0.000118218
0.000198234
0.000126607
6.44656e-05
0.000120886
-1.14233e-05
9.67194e-05
-5.49184e-05
5.05943e-05
-1.13864e-05
6.78812e-05
-4.62757e-05
5.33126e-05
-2.69671e-05
5.74776e-05
-2.36231e-05
3.52458e-05
-1.17524e-05
5.682e-05
-4.05143e-05
4.59643e-05
-2.57483e-05
2.55335e-05
-2.50313e-05
-5.20493e-05
3.17669e-05
-1.40184e-06
0.000415339
1.12756e-05
0.000367863
2.70548e-05
0.000123655
3.9406e-05
0.000142919
5.44195e-05
3.25296e-05
7.15785e-05
2.3558e-05
0.000103039
6.3291e-05
6.74562e-05
0.000136054
0.000100538
0.000268194
0.000117924
0.000248017
0.000153039
0.000163119
0.000144823
7.26816e-05
0.000122901
1.04986e-05
7.22423e-05
-4.2596e-06
8.58312e-05
-2.49753e-05
6.74732e-05
-2.79177e-05
5.89914e-05
-1.84853e-05
5.40079e-05
-1.86396e-05
5.07427e-05
-8.48718e-06
4.57649e-05
-3.55366e-05
5.60163e-05
-3.59997e-05
6.68387e-05
-3.58536e-05
-5.37252e-05
6.85146e-05
-3.54371e-06
0.000418883
2.46374e-05
0.000339681
2.07023e-05
0.00012759
2.03894e-05
0.000143232
2.76953e-05
2.52237e-05
2.72384e-05
2.40149e-05
1.25596e-05
7.79697e-05
2.34891e-05
0.000125124
6.37029e-05
0.000227981
0.000104909
0.000206811
0.000119859
0.00014817
0.000122491
7.0049e-05
9.98969e-05
3.30929e-05
8.02432e-05
1.53941e-05
6.13918e-05
-6.12395e-06
3.53154e-05
-1.8412e-06
3.39749e-05
-1.71449e-05
3.30251e-05
-1.76897e-05
5.1241e-05
-2.67031e-05
5.32569e-05
-3.75525e-05
5.20728e-05
-3.48156e-05
5.19823e-05
-3.57631e-05
-4.55658e-05
4.38229e-05
-2.46159e-05
0.000443499
6.69567e-05
0.000248109
4.31828e-05
0.000151364
1.90506e-05
0.000167365
6.17338e-06
3.81009e-05
-6.94425e-06
3.71325e-05
-2.9318e-05
0.000100344
-3.1235e-05
0.000127041
-5.53271e-06
0.000202278
3.96824e-05
0.000161596
6.92006e-05
0.000118652
5.91268e-05
8.01228e-05
5.6034e-05
3.61858e-05
5.99275e-05
1.15006e-05
5.05202e-05
3.2834e-06
4.53072e-05
3.37182e-06
4.50075e-05
-1.68452e-05
4.29474e-05
-1.56296e-05
4.8156e-05
-3.19117e-05
5.7002e-05
-4.63985e-05
5.99489e-05
-3.77624e-05
6.35151e-05
-3.93294e-05
-2.54712e-05
4.34205e-05
-8.40042e-06
0.000451899
1.47531e-05
0.000224955
2.66249e-05
0.000139492
1.43652e-05
0.000179624
-9.85262e-06
6.23188e-05
-3.78751e-05
6.51551e-05
-2.98719e-05
9.23403e-05
-2.1512e-05
0.000118681
-2.58497e-05
0.000206616
5.42635e-06
0.00013032
-5.37607e-06
0.000129454
1.31089e-05
6.16378e-05
6.08207e-06
4.32127e-05
2.75037e-06
1.48323e-05
5.66779e-06
3.65996e-07
7.24144e-06
1.79818e-06
1.36127e-05
-2.32165e-05
2.93256e-05
-3.13424e-05
3.66223e-05
-3.92084e-05
2.9308e-05
-3.90841e-05
3.00808e-05
-3.85352e-05
3.57082e-05
-4.49568e-05
-3.95322e-05
4.97692e-05
-7.44424e-06
0.000459344
1.2264e-05
0.000205247
8.32931e-06
0.000143427
5.94448e-06
0.000182009
4.21076e-06
6.40525e-05
-2.13859e-05
9.07517e-05
-5.47517e-05
0.000125706
-6.83612e-05
0.000132291
-3.86801e-05
0.000176935
-4.77678e-05
0.000139408
-2.8054e-05
0.00010974
-5.05867e-05
8.41704e-05
-1.93956e-05
1.20216e-05
-9.10999e-06
4.5467e-06
-1.05502e-05
1.80625e-06
2.17868e-06
-1.09307e-05
8.73385e-06
-2.97716e-05
7.85007e-06
-3.04586e-05
2.05172e-05
-5.18756e-05
3.50451e-05
-5.3612e-05
3.46435e-05
-3.81336e-05
3.02881e-05
-4.06014e-05
-4.88121e-05
3.9568e-05
-5.25117e-06
0.000464595
1.22904e-05
0.000187705
-2.31001e-06
0.000158027
4.00594e-05
0.00013964
1.64851e-05
8.76268e-05
-1.68096e-05
0.000124046
-3.83733e-05
0.00014727
-0.000130857
0.000224774
-6.24826e-05
0.000108561
-7.5901e-05
0.000152826
-8.50338e-05
0.000118873
-4.1258e-05
4.03946e-05
-4.61571e-05
1.69208e-05
-3.134e-05
-1.02704e-05
-3.30933e-05
3.55952e-06
-1.25676e-05
-3.14564e-05
-6.8823e-06
-3.54569e-05
2.02141e-05
-5.75551e-05
3.27356e-05
-6.4397e-05
1.73631e-05
-3.82395e-05
2.18774e-05
-4.26479e-05
2.53976e-05
-4.41216e-05
-5.36626e-05
3.02482e-05
6.37595e-06
0.000458219
1.38089e-05
0.000180272
1.05469e-06
0.000170781
-5.47187e-06
0.000146166
-9.10652e-06
9.12614e-05
-3.58258e-05
0.000150766
-4.90566e-05
0.000160501
-6.77991e-05
0.000243517
-0.000109954
0.000150716
-7.97284e-05
0.000122601
-9.58862e-05
0.000135031
-0.000109641
5.41495e-05
-9.0219e-05
-2.50128e-06
-6.21331e-05
-3.83563e-05
-2.81847e-05
-3.03889e-05
-3.63426e-05
-2.32985e-05
-1.09338e-05
-6.08657e-05
-1.01811e-06
-6.74707e-05
8.51527e-06
-7.39304e-05
3.60481e-05
-6.57723e-05
3.67684e-05
-4.33682e-05
4.18713e-05
-4.92245e-05
-4.53855e-05
3.35942e-05
1.91961e-05
0.000439023
8.81271e-06
0.000190656
-7.30778e-06
0.000186902
-8.39709e-06
0.000147255
-2.27579e-05
0.000105622
-4.28605e-05
0.000170868
-6.93418e-05
0.000186982
-6.411e-05
0.000238285
-0.000112556
0.000199162
-0.000129767
0.000139811
-0.000135167
0.000140432
-0.00013032
4.93022e-05
-0.000113236
-1.95848e-05
-8.22504e-05
-6.93422e-05
-4.18658e-05
-7.07735e-05
-3.48147e-05
-3.03496e-05
-1.31691e-05
-8.25113e-05
5.72248e-06
-8.63623e-05
1.61855e-05
-8.43933e-05
1.55255e-05
-6.51123e-05
1.7431e-05
-4.52736e-05
4.14785e-05
-7.3272e-05
-4.85998e-05
4.46928e-05
7.81352e-05
0.000360887
3.52571e-05
0.000233534
1.20661e-05
0.000210093
3.74444e-07
0.000158947
-2.48746e-05
0.000130871
-4.7615e-05
0.000193609
-7.41565e-05
0.000213524
-1.76964e-05
0.000181825
-0.000108127
0.000289592
-0.000166433
0.000198117
-0.000155831
0.00012983
-0.000142872
3.63433e-05
-0.000126563
-3.58941e-05
-8.92844e-05
-0.00010662
-6.1598e-05
-9.84599e-05
-3.39699e-05
-5.79777e-05
-1.77341e-05
-9.8747e-05
-1.90298e-06
-0.000102193
3.94653e-06
-9.02428e-05
1.90889e-05
-8.02546e-05
4.3832e-05
-7.00167e-05
4.10353e-05
-7.04753e-05
-5.27548e-05
4.51903e-05
1.47228e-05
0.000346165
1.20407e-05
0.000236216
-4.31227e-06
0.000226446
-9.8766e-06
0.000164511
-4.11671e-05
0.000162162
-5.36092e-05
0.000206051
-6.29082e-05
0.000222823
-6.37875e-05
0.000182704
-5.54395e-05
0.000281244
-7.02179e-05
0.000212896
-5.57204e-05
0.000115332
-7.94258e-05
6.00487e-05
-8.33479e-05
-3.19721e-05
-6.67221e-05
-0.000123246
-3.644e-05
-0.000128742
-1.59236e-05
-7.8494e-05
5.67697e-07
-0.000115238
1.19243e-05
-0.00011355
2.43535e-05
-0.000102672
1.04148e-05
-6.6316e-05
1.88418e-05
-7.84437e-05
4.14036e-05
-9.3037e-05
-6.62169e-05
5.48657e-05
-6.31988e-06
0.000352485
-8.20298e-06
0.000238099
-2.01417e-05
0.000238385
-2.82899e-05
0.00017266
-4.8749e-05
0.000182621
-4.90134e-05
0.000206315
-3.74697e-05
0.000211279
-3.91857e-05
0.00018442
-2.29625e-05
0.000265021
-2.18819e-05
0.000211815
-2.82468e-05
0.000121697
-3.15791e-05
6.3381e-05
-4.04769e-05
-2.30742e-05
-4.04958e-05
-0.000123227
-3.85532e-05
-0.000130685
9.28999e-06
-0.000126337
1.54379e-05
-0.000121386
1.34028e-05
-0.000111515
1.39451e-05
-0.000103214
5.71366e-05
-0.000109507
4.29242e-05
-6.42313e-05
1.72576e-05
-6.73704e-05
-9.50207e-05
4.60614e-05
-5.40076e-06
0.000357885
-1.97475e-05
0.000252446
-3.84505e-05
0.000257088
-6.19694e-05
0.000196178
-7.01057e-05
0.000190757
-6.67437e-05
0.000202953
-4.43361e-05
0.000188871
-4.92675e-05
0.000189352
3.24731e-05
0.000183281
9.05158e-05
0.000153772
5.03244e-05
0.000161888
2.77898e-05
8.59155e-05
4.12044e-05
-3.64888e-05
2.68126e-05
-0.000108836
1.56563e-05
-0.000119528
3.02086e-05
-0.000140889
7.26032e-06
-9.84379e-05
1.6039e-05
-0.000120294
2.29041e-05
-0.000110079
1.67643e-05
-0.000103368
4.23045e-05
-8.97715e-05
6.96758e-05
-9.47416e-05
-9.99023e-05
7.45573e-05
-7.29235e-06
0.000365178
-3.13079e-05
0.000276462
-6.36705e-05
0.00028945
-9.25549e-05
0.000225063
-0.00010418
0.000202383
-8.98884e-05
0.000188661
-5.70631e-05
0.000156046
-1.54612e-05
0.00014775
2.62423e-05
0.000141577
5.24744e-05
0.00012754
6.83344e-05
0.000146028
8.65274e-05
6.77225e-05
5.60495e-05
-6.01083e-06
4.26634e-05
-9.54495e-05
1.19166e-05
-8.87815e-05
1.90369e-05
-0.00014801
6.26433e-05
-0.000142044
2.28902e-05
-8.05404e-05
3.6449e-05
-0.000123638
4.69167e-05
-0.000113835
4.54177e-05
-8.82724e-05
5.25956e-05
-0.000101919
-0.000112159
6.48526e-05
-1.29759e-05
0.000378154
-3.06424e-05
0.000294128
-6.10958e-05
0.000319904
-9.85104e-05
0.000262477
-0.000112316
0.000216188
-9.52783e-05
0.000171624
-5.83933e-05
0.000119161
-1.27949e-05
0.000102152
2.83986e-05
0.000100383
6.26524e-05
9.32866e-05
8.64326e-05
0.000122248
9.95782e-05
5.45769e-05
0.000106026
-1.24583e-05
5.12888e-05
-4.07126e-05
8.07155e-05
-0.000118208
6.71695e-05
-0.000134464
5.64163e-05
-0.000131291
5.07958e-05
-7.49199e-05
4.73228e-05
-0.000120165
3.57964e-05
-0.000102309
5.18126e-05
-0.000104289
2.38037e-05
-7.39106e-05
-0.000117832
2.94759e-05
-1.04193e-05
0.000388573
-1.6511e-05
0.00030022
-3.67761e-05
0.000340169
-5.92448e-05
0.000284946
-6.99667e-05
0.00022691
-5.04546e-05
0.000152112
-2.67713e-05
9.54775e-05
3.79145e-07
7.50012e-05
2.98494e-05
7.09132e-05
3.34411e-05
8.96949e-05
5.88388e-05
9.68506e-05
6.14595e-05
5.19563e-05
7.38415e-05
-2.48403e-05
0.000104771
-7.16422e-05
5.40458e-05
-6.74829e-05
4.27248e-05
-0.000123143
3.05138e-05
-0.00011908
7.09646e-05
-0.000115371
2.82485e-05
-7.74491e-05
4.27284e-05
-0.000116789
1.35499e-05
-7.51102e-05
6.23223e-05
-0.000122683
-8.658e-05
3.10708e-05
-1.13401e-05
0.000399913
-1.9826e-05
0.000308706
-2.52092e-05
0.000345552
-2.95451e-05
0.000289282
-3.24158e-05
0.000229781
-2.09029e-05
0.000140599
-1.58002e-05
9.03747e-05
-6.99731e-06
6.61983e-05
2.42076e-06
6.14951e-05
2.97728e-05
6.23429e-05
6.01466e-05
6.64767e-05
5.87207e-05
5.33822e-05
4.80967e-05
-1.42163e-05
5.32644e-05
-7.68099e-05
4.79297e-05
-6.21482e-05
3.34435e-05