/*--------------------------------*- C++ -*----------------------------------*\
| =========                 |                                                 |
| \\      /  F ield         | foam-extend: Open Source CFD                    |
|  \\    /   O peration     | Version:     4.1                                |
|   \\  /    A nd           | Web:         http://www.foam-extend.org         |
|    \\/     M anipulation  |                                                 |
\*---------------------------------------------------------------------------*/
FoamFile
{
    version     2.0;
    format      ascii;
    class       volScalarField;
    location    "0.8";
    object      psi;
}
// * * * * * * * * * * * * * * * * * * * * * * * * * * * * * * * * * * * * * //

dimensions      [1 -1 -2 0 0 0 0];

internalField   nonuniform List<scalar> 
2268
(
0.137648
0.117367
0.0613794
0.0259437
0.0274462
-0.0115657
-0.0631095
-0.107871
-0.127819
-0.132588
-0.11996
-0.0987104
-0.0746194
-0.0516782
-0.0317165
-0.0165416
-0.00728595
-0.00574619
0.00344365
0.0208143
0.039115
0.0430681
0.0316932
0.11694
0.0899919
0.0129293
-0.0531795
-0.0360474
-0.0617733
-0.0989242
-0.134397
-0.14658
-0.143736
-0.125531
-0.101222
-0.0749914
-0.0507349
-0.0276345
-0.00674297
0.00741083
0.0100813
0.0276099
0.0528533
0.0714427
0.0729202
0.0557635
0.0284511
-0.0437396
-0.164483
-0.265001
-0.203915
-0.190468
-0.188847
-0.199198
-0.191319
-0.172337
-0.145032
-0.117751
-0.0886924
-0.0636758
-0.0291616
0.0117582
0.0441163
0.0592076
0.0939273
0.122864
0.129498
0.135225
0.123714
-0.100676
-0.265317
-0.435849
-0.558254
-0.428497
-0.353174
-0.297494
-0.271867
-0.243089
-0.204246
-0.173368
-0.147754
-0.118228
-0.0924089
-0.0334886
0.0442599
0.108755
0.158726
0.201505
0.221985
0.18976
0.211628
0.236513
-0.267293
-0.556501
-0.794254
-0.888263
-0.666543
-0.513671
-0.397874
-0.328602
-0.289403
-0.243238
-0.220134
-0.208097
-0.1822
-0.153539
-0.0551336
0.0753338
0.182491
0.309278
0.302771
0.31248
0.188883
0.275628
0.37794
-0.478661
-0.884444
-1.21321
-1.19094
-0.861968
-0.633844
-0.46768
-0.369592
-0.329126
-0.301538
-0.299167
-0.319478
-0.297212
-0.273213
-0.120417
0.0602606
0.180737
0.449958
0.298328
0.338694
0.0192741
0.218372
0.518498
-0.734281
-1.19499
-1.63313
-1.36906
-0.948519
-0.684074
-0.50724
-0.414982
-0.364456
-0.40262
-0.431755
-0.500668
-0.470098
-0.448624
-0.271291
-0.119593
-0.0761191
0.460838
-0.057053
0.198458
-0.389389
-0.12134
0.604333
-1.0831
-1.50696
-1.94738
-1.48421
-1.05397
-0.792894
-0.624724
-0.544062
-0.471108
-0.598396
-0.665064
-0.79979
-0.733148
-0.711052
-0.65887
-0.748285
-1.07128
-0.0241592
-1.0796
-0.406582
-1.15661
-1.02828
0.431855
0.557344
0.438886
0.680519
0.859175
1.57658
2.13561
2.61888
2.83946
2.89286
2.9312
2.83993
2.66258
2.35058
2.09717
2.09154
2.60815
0.976635
0.017768
-0.711937
0.425451
0.271384
0.242406
0.106162
0.38418
0.832068
1.39778
2.17779
2.52531
2.64742
2.60627
2.12087
0.922252
0.127137
-0.25171
1.29948
1.47943
0.552924
-0.279359
0.262413
0.121379
0.184802
0.52626
0.27794
-0.0922028
-0.772775
0.438893
1.19614
1.51059
1.90119
2.11359
1.70359
-0.0311379
-1.17007
-0.919529
0.776808
0.51
0.00996166
0.123306
-0.00179499
0.706124
1.50485
0.681112
1.14795
0.52128
-0.329746
-0.318054
-0.0393571
0.548892
1.39085
2.33769
1.66034
0.78698
-1.45759
0.0987786
0.125507
0.156583
-0.0310415
-0.0334843
1.33193
1.92772
2.2752
3.2836
3.53636
-0.174182
-0.545306
-0.954297
-0.663484
-0.157455
0.489529
1.1991
2.04269
-1.26787
-0.326307
-0.401255
0.283511
-0.279356
-0.133326
1.07531
2.09933
3.26297
2.69949
4.14779
1.68855
0.771927
0.513989
0.10789
-1.26779
-1.06265
0.140202
1.75361
-0.307844
0.63554
-0.493273
0.327532
-0.412262
0.0391524
0.963549
0.741724
2.59652
0.539709
2.63942
4.86822
3.66902
3.00333
2.33562
-0.690314
0.398904
-0.474275
0.469135
0.810527
0.935556
0.0586046
0.386792
-0.138938
0.752372
-0.00559921
-0.838402
0.567635
-0.115829
0.768596
4.56037
3.65211
3.34842
2.11405
1.33977
1.77944
-0.341428
-0.70272
0.835486
0.590889
0.233982
0.391345
-1.9031
-2.20932
-2.48379
-1.6491
-1.34726
-1.16124
-1.04297
-1.01414
-0.827036
-1.11817
-1.22674
-1.50514
-1.30827
-1.18125
-1.91763
-2.60761
-3.13341
-2.01151
-2.78051
-2.52364
-2.55163
-2.82916
-0.585756
-2.37446
-2.762
-2.85083
-1.55056
-0.964114
-1.18587
-1.08545
-1.12676
-0.502912
-0.876977
-0.76196
-1.26055
-1.01661
-0.698999
-1.3178
-1.06348
-0.805372
-0.61896
-1.40127
-1.86897
-3.08881
-4.97173
-2.88244
-2.10798
-2.04256
-1.39616
-0.334232
0.225244
-0.456049
-0.347813
-0.00161768
-0.0718893
-0.0807133
-0.418659
0.958785
0.0578232
0.365582
0.74439
1.07231
0.973732
0.283825
-0.266983
-0.401751
-0.86667
0.0890148
-1.21224
-0.419686
0.133372
1.42994
0.0626536
-0.354729
0.302837
0.406815
0.911987
0.468816
0.778823
1.15071
1.64702
1.31443
2.04983
2.25392
2.8654
2.7297
2.46512
2.15161
1.67375
1.26312
0.351363
0.648743
1.34798
2.15322
2.24925
1.18944
0.567212
0.95312
0.999365
1.18481
1.27511
1.59121
1.69992
1.78919
1.99427
2.39657
2.53386
2.24779
1.87958
1.71263
1.58914
1.345
1.28789
1.54904
1.15858
2.47986
3.30987
1.45823
0.867786
0.864115
2.45754
3.52762
3.45798
3.52055
3.49069
3.486
3.40561
3.46165
3.33099
3.2584
2.87072
2.66347
2.36814
2.20806
2.55827
1.52315
1.31176
1.41319
3.1607
2.86411
1.28106
2.23158
3.7771
4.00318
3.65576
3.48173
3.46919
3.45897
3.38485
3.29482
3.20357
3.11705
2.87322
2.63323
2.40713
2.29525
2.26493
2.34718
2.46149
2.72247
2.9268
3.30247
2.11766
1.53157
3.39894
3.33061
3.22727
3.07905
3.01322
2.91065
2.80919
2.80693
2.80773
2.77367
2.77516
2.66595
2.53111
2.51033
2.47781
2.50421
2.87262
3.12656
3.22161
3.18502
3.04867
1.56485
2.07709
3.14558
3.41029
2.68266
2.54331
2.55999
2.50781
2.49827
2.54196
2.54407
2.5361
2.60031
2.61139
2.58336
2.61087
2.63197
2.61432
2.64618
2.79733
2.82545
2.99948
2.74414
1.65644
2.88161
3.06183
3.11543
2.13583
1.88668
1.82113
1.73365
1.79931
1.88942
1.71227
1.65105
2.03672
2.45326
2.59657
2.80347
2.8686
2.8874
2.81708
2.7149
2.74633
2.52142
2.42562
1.72142
2.60592
3.23393
2.14179
1.29556
1.21706
1.18809
1.19471
1.33837
1.0737
0.440001
0.316772
0.276283
0.838906
1.15803
1.39437
1.60267
1.79267
1.71599
1.64888
1.60238
1.28281
2.09472
1.97653
2.61032
3.03095
1.95723
1.05892
0.840371
0.822256
1.06129
1.0732
0.375515
0.0708791
0.0129289
-0.02148
0.0786719
0.11795
0.0673209
-0.0320395
0.259511
0.401069
0.57507
0.7121
0.661035
1.89471
2.09358
2.55294
2.79957
1.85889
0.921195
0.551519
0.549881
0.910737
0.850053
0.184476
0.0197801
-0.00372289
-0.00989826
-0.0297224
-0.0408946
-0.0569535
-0.0636293
-0.0123127
0.0369024
0.122931
0.232
0.286371
1.82902
2.13897
2.47892
2.73267
1.88462
1.06975
0.611704
0.322771
0.745104
0.621641
0.0886186
0.00768946
0.00165242
-0.00218749
-0.00687808
-0.0104053
-0.00123629
0.0336357
0.0642838
0.0748961
0.0742322
0.0884495
0.11456
1.79992
2.16423
2.40331
2.63795
1.88179
1.04693
0.618394
0.353546
0.594643
0.52587
0.104037
0.0170275
0.00775656
0.00368312
-9.11037e-05
-0.0017518
-0.00273698
0.00108385
0.00490862
0.00692214
0.00145049
0.00132695
0.0218582
1.79436
2.16751
2.34343
2.49888
1.77022
0.872809
0.426244
0.291496
0.468962
0.458449
0.113838
0.0415726
0.0176053
0.00488921
-0.000241987
-0.0008217
-0.00131129
-0.00140735
-0.00191927
-0.00193712
-0.00324123
-0.00406987
0.000183198
1.79473
2.15735
2.29628
2.27636
1.77916
0.87023
0.350039
0.203147
0.359231
0.369519
0.111534
0.0222128
0.00315659
0.000462434
-0.00034673
-0.000687772
-0.00087474
-0.00084226
-0.00093557
-0.00103112
-0.0011085
-0.00161136
-0.00313535
1.80316
2.15144
2.24134
1.62509
1.09002
0.531035
0.245519
0.141794
0.264445
0.296406
0.130544
-0.00726242
0.00154508
0.000132679
-0.000263738
-0.000199549
-0.000224228
-0.00024344
-0.000264903
-0.000335695
-0.000343537
-0.000357776
-0.000932187
1.80892
2.15131
2.06189
1.0839
0.220436
0.114575
0.0951504
0.111525
0.161701
0.212223
0.162077
0.0810306
0.0257323
0.00573096
-0.000311547
-0.000226236
-3.53419e-05
-2.68253e-05
-1.42667e-05
-2.42413e-05
-2.36367e-05
4.16146e-06
-2.63771e-05
1.81312
2.12802
1.73458
0.932101
0.265754
0.0626049
0.0369057
0.0731083
0.0842359
0.12452
0.131958
0.0634531
0.00925341
-0.000993855
-0.000256941
-3.7589e-05
7.13366e-06
7.05511e-06
1.18645e-05
1.10988e-05
1.11969e-05
1.58334e-05
3.03726e-05
1.81307
2.06772
1.44829
0.895766
0.33779
0.103768
0.0310019
0.0315412
0.0480336
0.0654504
0.0651116
0.0249551
0.00142268
-0.000504398
-0.000105109
1.36129e-05
1.79644e-05
5.65178e-06
4.16577e-06
4.23902e-06
4.71774e-06
4.90179e-06
7.64885e-06
1.80815
1.99033
1.06226
0.672759
0.205622
0.0562
0.0266167
0.0169393
0.0337477
0.0344612
0.0248228
0.00490684
-0.000621037
-3.38355e-05
0.000155516
9.83664e-05
2.86878e-05
5.62939e-06
1.26967e-06
5.15996e-07
5.68913e-07
4.75259e-07
-3.64516e-09
1.79686
1.84037
0.863666
0.53045
0.157364
0.0345361
0.0138124
0.00853308
0.0180131
0.0147115
0.0057511
0.000150076
0.000351723
0.000470851
0.000229097
5.76865e-05
4.17502e-06
2.91401e-07
4.96684e-07
2.47757e-07
4.50835e-08
-3.95014e-08
-2.27354e-07
1.76451
1.64491
0.984123
0.513631
0.129589
0.0160143
0.00565122
0.00366702
0.00662045
0.0036403
0.00162946
0.00114258
0.000708904
0.000324271
9.81745e-05
1.45758e-05
-1.43467e-06
-3.87663e-07
1.97417e-08
-1.71394e-09
3.68365e-09
-9.64344e-09
-3.39436e-08
1.74073
1.39206
0.867914
0.515051
0.140127
0.00174214
0.00234234
0.00346254
0.00347157
0.00361339
0.00259185
0.00128948
0.000561751
0.000225633
6.39376e-05
2.16536e-07
-6.06475e-06
-2.76338e-06
-9.24531e-07
-3.03679e-07
-6.45083e-08
-1.22799e-08
-1.03244e-09
1.70954
1.15947
0.744302
0.497588
0.153933
0.0133567
0.00137626
0.00364693
0.00401281
0.00492976
0.00262145
0.00121204
0.000786298
0.000555028
0.000149491
1.23673e-05
-5.71014e-06
-2.94647e-06
-8.30067e-07
-1.96225e-07
-5.52717e-08
-9.39308e-09
-1.45379e-09
1.66989
0.889241
0.613483
0.499757
0.234783
0.0410772
0.00213567
0.00398433
0.00527208
0.00569509
0.00280667
0.00206313
0.0019372
0.000979805
1.10619e-05
-5.02589e-05
-2.2479e-05
-6.59664e-06
-1.17453e-06
-2.64279e-08
3.49997e-08
6.37726e-09
-3.04438e-09
1.60517
0.72099
0.553424
0.452471
0.189319
0.0360592
0.00778172
0.00624739
0.00970761
0.00670829
0.00440341
0.0042813
0.00397616
0.0030996
0.000321011
-0.000189512
-6.78704e-05
-1.73996e-05
-2.2979e-06
-1.95162e-07
2.95133e-08
1.56267e-08
-4.636e-09
1.5115
0.710275
0.433991
0.355312
0.126302
0.0358089
0.0135151
0.0105041
0.0143899
0.00956917
0.00683636
0.00998924
0.0139947
0.00885401
0.00134715
-0.00041437
-9.66515e-05
-2.71575e-05
-7.41913e-06
-1.22334e-06
6.12914e-09
3.28715e-08
-4.23511e-09
1.38371
0.948515
0.448151
0.293555
0.0935351
0.0364123
0.0207677
0.0176186
0.0179104
0.0143997
0.0142006
0.0249423
0.0325368
0.0202999
0.0038559
-0.00027603
4.79699e-05
-6.95428e-06
-1.24748e-05
-3.26975e-06
-3.3873e-07
-7.90503e-09
-7.78471e-09
1.28359
0.849359
0.439817
0.222672
0.070391
0.0397719
0.0306725
0.0282465
0.0219484
0.0193761
0.0228703
0.0376676
0.0476981
0.035663
0.0107572
0.00119239
0.000293217
-2.13838e-05
-2.41175e-05
-4.93479e-06
-6.13015e-07
2.91348e-08
-1.09106e-08
1.18608
0.748293
0.390395
0.140378
0.054877
0.0454384
0.0421534
0.0418545
0.0283761
0.025615
0.0358119
0.047782
0.0554549
0.0462987
0.0168807
0.00245717
0.000288906
-7.89707e-05
-4.05828e-05
-7.49888e-06
-8.82897e-07
4.84004e-08
-7.72868e-08
1.08139
0.616985
0.299027
0.0893681
0.0515762
0.0489902
0.048228
0.0477363
0.0390665
0.0351153
0.0396634
0.0493737
0.0580574
0.0532528
0.0235152
0.00321704
0.000279177
-0.000203804
-5.59816e-05
-6.69242e-06
-8.71127e-08
2.52816e-07
-2.75938e-07
0.971944
0.523693
0.236807
0.0912986
0.0569973
0.0527328
0.0529754
0.0507105
0.0478046
0.0446916
0.0455026
0.0523304
0.0594348
0.0535688
0.0210856
0.00189848
-0.000141263
-1.82915e-05
-4.02663e-05
-5.69442e-06
-1.13687e-07
8.86086e-09
-9.56209e-07
0.864445
0.481948
0.253546
0.104602
0.0705627
0.066748
0.0626916
0.0555852
0.0528832
0.0521449
0.0513806
0.0595265
0.0635671
0.0571176
0.0201046
0.00516163
0.00069415
6.80029e-05
-1.77021e-05
-4.65216e-06
-2.29116e-07
1.56824e-08
-3.10214e-06
0.762552
0.453425
0.281945
0.15729
0.120416
0.10147
0.0785385
0.0631179
0.0599645
0.0617878
0.0619006
0.0648386
0.0558457
0.0269554
0.00516507
-0.00152665
-0.000643223
-0.000128899
-1.9507e-05
-1.27238e-06
4.01667e-07
-4.9661e-07
-3.72785e-06
0.656011
0.412164
0.296321
0.212721
0.156132
0.107477
0.0750704
0.0660263
0.0656443
0.0655871
0.0657479
0.0653928
0.0394554
0.00471057
-0.00100406
-0.000861344
-0.000193541
-2.41424e-05
2.01738e-06
1.22524e-06
6.49496e-07
-2.2173e-06
-8.39313e-06
0.560377
0.360975
0.301555
0.210502
0.151438
0.0961792
0.0688592
0.0656654
0.0640242
0.0640965
0.0604261
0.0505082
0.0207333
0.00289259
-0.000459006
-0.000276425
-3.28024e-05
2.1291e-06
2.12393e-06
8.32537e-07
5.14943e-07
-4.01857e-06
-1.19733e-05
0.488876
0.31072
0.271059
0.191539
0.126919
0.0746067
0.0670656
0.0637259
0.0510967
0.0472781
0.0309598
0.0137944
-0.000950097
-0.00164517
-0.000472192
-8.99329e-05
-1.24221e-06
2.41658e-06
7.7011e-07
7.21873e-07
5.12595e-07
-5.25604e-06
-1.81512e-05
0.44253
0.284404
0.204346
0.128096
0.0853166
0.0707973
0.0665689
0.0448395
0.0228611
0.0194865
0.00638037
0.00126377
-0.000586281
-0.000383632
-8.86913e-05
-2.70423e-06
2.71072e-06
7.39644e-07
4.74245e-07
7.48831e-07
4.34244e-07
-5.65361e-06
-2.51975e-05
0.422123
0.276127
0.186724
0.111454
0.0809795
0.065884
0.0426081
0.00722823
-0.000170334
0.000440732
-0.000906718
-0.000859653
-0.000356579
-8.39152e-05
-6.49337e-06
2.74735e-06
7.61839e-07
1.73418e-07
4.58331e-07
7.51031e-07
3.32614e-07
-5.26459e-06
-2.68755e-05
0.314274
0.198487
0.127077
0.0693965
0.0378983
0.0122464
-0.00433808
-0.00348666
-0.00150228
-0.000717039
-0.000504462
-0.000287591
-9.07069e-05
-1.63106e-05
9.52546e-07
1.37067e-06
2.06126e-07
1.19797e-07
4.60195e-07
7.42958e-07
4.54891e-07
-4.94476e-06
-2.72536e-05
0.400428
1.09598
-1.43829
-5.25048
0.137521
0.182127
-1.97661
-2.75826
-0.625684
-1.06223
-1.28874
0.197314
0.618063
1.30862
0.97622
2.55122
1.42027
2.02869
1.16206
0.661138
1.58597
1.76282
2.00842
2.32549
2.99371
3.04304
3.08247
3.09463
3.17469
3.1437
3.12517
3.10902
3.12147
3.17403
3.19954
3.22053
2.27861
2.24269
2.18939
2.15196
1.16867
1.14131
1.13891
1.10098
0.613806
0.587185
0.574298
0.548653
0.31355
0.320283
0.311511
0.280555
0.139673
0.145784
0.148413
0.138545
0.057068
0.0695097
0.0709523
0.0643984
0.0166018
0.0263641
0.0309427
0.0291379
-0.00247637
-0.00021888
0.0023303
0.00303693
-0.00169721
-0.00200659
-0.00201618
-0.0017847
-0.000190033
-0.000377086
-0.000542275
-0.000624471
4.52974e-05
3.66563e-05
3.25966e-06
-4.09515e-05
1.44409e-05
1.78622e-05
1.8435e-05
1.68795e-05
2.16036e-07
1.38774e-06
3.62978e-06
4.77184e-06
-3.86031e-07
-4.11418e-07
-2.42497e-07
-1.13848e-07
-9.25093e-08
-1.33876e-07
-1.58891e-07
-1.75715e-07
-2.76347e-09
-6.60034e-09
-1.23965e-08
-1.94227e-08
-5.43096e-10
2.1471e-09
9.63168e-09
1.92648e-08
-4.24762e-09
1.0403e-09
1.9893e-08
4.5338e-08
1.68118e-10
2.54204e-08
7.90844e-08
1.12819e-07
1.56933e-08
8.56752e-08
2.00416e-07
3.10442e-07
4.34951e-08
1.83158e-07
4.19799e-07
6.08317e-07
1.08192e-07
3.76405e-07
8.16497e-07
1.00112e-06
1.77113e-07
4.46487e-07
1.18702e-06
1.76888e-06
3.04178e-07
6.24595e-07
1.39092e-06
-1.13529e-06
-5.32446e-07
-8.49232e-07
-1.17104e-06
-6.33441e-06
-5.78902e-06
-9.64289e-06
-1.21029e-05
-2.20259e-05
-1.38886e-05
-2.08334e-05
-2.97196e-05
-4.72036e-05
-2.80975e-05
-4.17007e-05
-5.13375e-05
-6.42548e-05
-3.411e-05
-5.62647e-05
-7.40128e-05
-8.46293e-05
-4.08641e-05
-6.24103e-05
-8.60975e-05
-9.70039e-05
-5.41609e-05
-7.27027e-05
-9.06956e-05
-0.000102606
-5.70917e-05
-8.10309e-05
-9.86432e-05
-0.000107518
-5.62369e-05
-8.3744e-05
-0.000100908
-0.000108641
-1.07854
1.36368
2.0584
2.24014
1.9763
1.82282
0.928986
0.264646
0.265522
1.0448
0.877634
1.06947
0.020239
-1.02819
-1.36206
0.231606
0.177299
0.284374
0.522056
0.185934
1.75196
2.18547
2.66398
2.75694
3.16596
3.07923
2.71243
1.80487
0.63596
0.756111
0.759231
0.00761013
-0.693316
0.0209236
0.416927
0.0473552
1.57941
1.52657
2.37984
-0.445127
2.10562
2.72322
3.0182
3.00805
3.0351
2.8347
2.41305
3.1055
1.56838
0.391919
-0.697188
0.406057
1.29677
0.929659
1.75881
3.07097
2.4306
2.13459
1.58231
2.50011
2.34383
2.30192
2.60005
2.22708
1.99149
2.49388
1.38193
0.418826
1.20458
2.19008
1.99609
1.30774
2.53122
2.87091
2.32353
1.52146
1.09809
2.44945
2.61037
2.02719
1.9006
1.80673
1.77141
1.8768
1.98926
2.17023
3.70287
3.05569
3.18726
2.58766
2.38798
2.19942
1.22463
0.946723
0.605159
2.88685
3.03599
2.89249
2.6696
2.40586
2.46081
3.4604
3.51206
3.52708
3.28345
3.38101
2.86412
2.14992
2.22723
1.14878
0.698448
0.479533
0.68122
0.565605
3.05858
3.03475
3.09882
3.28386
3.45793
3.45385
3.47929
3.31228
3.43775
3.27637
2.77954
1.93309
1.46122
1.15306
0.571573
0.361981
0.294713
0.287014
0.51172
3.0919
3.05492
3.06764
3.16203
3.09765
2.99887
3.11318
2.96486
2.65595
1.87834
1.65234
1.82144
1.13145
0.631655
0.385577
0.297463
0.264035
0.203508
0.407078
3.2571
3.29412
3.00895
2.79024
2.87051
2.71645
2.68546
2.53671
2.11513
1.46759
0.968662
0.747161
0.500263
0.351171
0.290764
0.234302
0.215688
0.177812
0.290546
2.07454
2.04868
3.16919
3.15007
3.16685
3.05748
2.56357
2.15388
1.56223
1.19896
0.897523
0.666123
0.45639
0.328786
0.25293
0.201078
0.173748
0.151794
0.212734
1.02232
1.01039
1.73984
2.14447
2.24166
2.58409
2.53494
2.20607
1.52972
1.00349
0.807092
0.67212
0.504663
0.350444
0.230234
0.168702
0.141575
0.131024
0.159992
0.517251
0.646258
0.994151
1.26117
1.19893
1.23142
0.998629
0.83702
0.707661
0.510231
0.44426
0.392037
0.426206
0.286377
0.17327
0.133551
0.113827
0.116507
0.128164
0.262192
0.287545
0.510671
0.56995
0.545188
0.57016
0.459869
0.421732
0.361073
0.222233
0.156468
0.098415
0.116522
0.0947462
0.0769177
0.0922698
0.0911889
0.104658
0.109667
0.138517
0.163084
0.244515
0.216203
0.214568
0.201115
0.129907
0.163887
0.146034
0.0677891
0.0266308
0.017292
0.0121631
0.0122984
0.0167171
0.0286842
0.0757603
0.0901124
0.099568
0.058433
0.0505379
0.0697421
0.0594227
0.071967
0.069431
0.0321949
0.0435354
0.0220628
0.0106589
0.00358328
0.00424555
0.000497945
-0.0015731
0.000881526
0.013019
0.0714552
0.0756503
0.092594
0.0231574
0.010437
0.0114078
0.0140203
0.0293765
0.0201336
0.0161841
0.0125101
0.00190935
0.00116288
0.000498276
0.00136404
0.000818922
-0.00102681
-0.00103169
0.00517723
0.0456336
0.0654496
0.0863851
0.00638498
0.00199745
0.00123905
0.00354284
0.0117224
0.0102247
0.00913837
0.00440928
0.00146759
0.00125572
0.000798056
0.000639996
0.00062142
-0.00044266
-0.00105424
0.00273647
0.0300777
0.0590803
0.0803442
-0.000162893
-0.000855703
-0.000395132
-0.000748637
0.000702559
0.00423455
0.00336076
0.00179093
0.00064719
0.000534405
0.000362293
0.000286781
0.000316385
-0.000185354
-0.00117066
-0.000734786
0.0165644
0.0550253
0.0745247
-0.000532486
-0.000465424
-0.000472792
-0.00059142
-0.000539762
0.000784778
0.00015446
0.000259516
-5.2997e-06
1.31604e-05
3.43441e-05
9.03312e-05
8.40771e-05
-0.000253111
-0.000896128
-0.000141383
0.0137797
0.05067
0.068766
-0.000103788
-0.000127642
-0.000223338
-0.000270928
-0.000341085
-0.000243859
-0.000203894
-0.000117038
-6.64161e-05
-5.07466e-05
-3.12807e-05
5.08664e-06
9.45446e-06
-0.000333698
-0.000747924
0.000431321
0.0138743
0.0469875
0.063447
1.26095e-05
1.05157e-05
-1.21648e-06
-1.85487e-06
-8.63977e-05
-0.000127203
-0.00010349
-8.69491e-05
-5.46459e-05
-3.77093e-05
-2.73798e-05
-9.64711e-06
-1.87257e-05
-0.000270819
-0.00066572
0.000602095
0.012335
0.0392692
0.0587918
6.48213e-06
7.77456e-06
9.73134e-06
1.12812e-05
1.07229e-06
-7.46134e-06
-4.29049e-06
-9.20408e-06
-1.53216e-05
-1.47177e-05
-2.01094e-05
-1.2739e-05
-1.27641e-05
-0.000192082
-0.000547837
0.000234889
0.00952132
0.0326165
0.0548617
3.15493e-07
8.65886e-07
2.84101e-06
3.82998e-06
4.65134e-06
3.70911e-06
2.82577e-06
2.30869e-06
6.08287e-07
-1.28005e-06
-4.32758e-06
2.03235e-07
9.81779e-07
-0.000178007
-0.000415352
1.21465e-05
0.00664173
0.0271163
0.0513093
-1.6707e-07
-1.79793e-07
-1.39784e-07
1.46089e-07
1.44735e-06
1.61297e-06
1.72921e-06
1.11022e-06
6.75662e-07
-1.97616e-07
-4.81829e-07
1.50036e-06
2.23847e-06
-0.000111698
-0.000365951
-0.000402898
0.00429944
0.0237865
0.0479872
-2.57906e-08
-4.11952e-08
-1.17651e-07
-1.79927e-07
-1.97428e-07
-6.32385e-07
-2.17535e-06
-1.00255e-06
-7.17001e-07
-5.7417e-07
-4.32298e-07
6.5016e-07
-2.50107e-06
-7.33616e-05
-0.000318666
-0.000657748
0.00292315
0.0224318
0.0449155
2.57447e-08
4.40768e-08
-7.27424e-08
-1.33188e-07
-4.14592e-07
-1.13406e-06
-5.38894e-06
-3.99629e-06
-4.48106e-06
-4.53559e-06
-4.32755e-06
-3.32436e-06
6.22934e-08
-3.25421e-05
-0.000272443
-0.00062011
0.00289796
0.0219258
0.0411688
5.73319e-08
6.22909e-08
-2.58092e-07
-7.33715e-07
-1.79105e-06
-4.2176e-06
-1.31408e-05
-1.17838e-05
-1.16376e-05
-1.17819e-05
-1.13042e-05
-1.08129e-05
-8.17049e-06
-4.48553e-05
-0.000288395
-0.00063108
0.00289517
0.0207098
0.0375688
1.10121e-07
8.70044e-08
-8.98144e-07
-2.51962e-06
-7.15041e-06
-1.39888e-05
-2.39221e-05
-2.1238e-05
-1.97095e-05
-2.00328e-05
-2.05549e-05
-2.10891e-05
-1.63516e-05
-3.34689e-05
-0.000232676
-0.000526028
0.00237574
0.0173788
0.03442
8.39267e-08
-1.06901e-06
-2.68336e-06
-1.01202e-05
-1.50628e-05
-2.29061e-05
-2.77811e-05
-2.78027e-05
-2.59542e-05
-2.53309e-05
-2.5906e-05
-2.69786e-05
-2.54291e-05
-3.59112e-05
-0.000183439
-0.000500563
0.00163402
0.0142554
0.031712
1.17696e-07
-3.57228e-06
-7.85029e-06
-2.45772e-05
-2.80156e-05
-2.90415e-05
-3.18574e-05
-2.88289e-05
-1.67123e-05
-2.07811e-05
-2.96853e-05
-3.20907e-05
-3.23161e-05
-4.60627e-05
-0.000153193
-0.00027169
0.00149936
0.012246
0.0293847
-1.38754e-06
-1.12365e-05
-2.77804e-05
-3.65638e-05
-3.55361e-05
-3.13235e-05
-2.42922e-05
2.50349e-05
1.80036e-05
1.29327e-05
-3.34972e-06
-1.22362e-05
-1.90798e-05
-4.1639e-05
-0.000187743
-0.000454902
0.000542698
0.0106464
0.0271865
-1.84004e-06
-1.74765e-05
-4.4075e-05
-4.38663e-05
-3.77836e-05
-1.26712e-05
8.70083e-06
0.00014053
0.00011976
0.00010453
8.50946e-05
6.01878e-05
3.52482e-05
-3.31694e-06
-0.000155204
-0.000451544
0.00086225
0.010594
0.0250666
-1.37547e-05
-4.28642e-05
-5.18727e-05
-5.34263e-05
-8.22788e-06
7.60862e-05
0.000146052
0.000383604
0.000366464
0.000363127
0.000294808
0.000226345
0.000113493
-1.95364e-05
-0.000133846
-0.000189211
0.00134255
0.00843148
0.022959
-2.97508e-05
-5.73082e-05
-5.92371e-05
-3.66866e-05
0.000123159
0.000325359
0.000641276
0.000795229
0.000723348
0.00072553
0.000624004
0.000447087
0.00022853
6.17556e-05
-8.95055e-05
-0.000164676
0.000656853
0.00628075
0.0214781
-4.74584e-05
-6.08867e-05
-6.1949e-05
4.03444e-05
0.000244035
0.000529965
0.00118675
0.00119805
0.00123569
0.00127407
0.00123188
0.000933281
0.000548692
0.000284724
-5.7227e-05
-0.000101659
0.000236148
0.0042492
0.0203406
-7.01916e-05
-6.36682e-05
-5.08646e-05
0.000129955
0.00049376
0.00085926
0.00160824
0.0016869
0.00211093
0.00216559
0.00208782
0.00174842
0.00126433
0.000811572
0.000157378
-4.91426e-05
-0.000200284
0.00374742
0.0196036
-7.84548e-05
-6.1365e-05
-6.3656e-06
0.000241352
0.000674864
0.00107082
0.00188159
0.00233364
0.00274196
0.00260428
0.00245203
0.00226575
0.00178782
0.00104292
0.000504366
-0.00012806
-0.000610175
0.000562957
0.0168367
-8.81944e-05
-4.46713e-05
9.74445e-05
0.000437428
0.00105333
0.00166693
0.00236378
0.00283528
0.00286306
0.00266062
0.00236055
0.00213154
0.00179495
0.00125119
0.000845791
-9.97826e-05
-0.00053362
0.00238609
0.022685
-9.40905e-05
-3.25375e-05
0.000185859
0.000633267
0.00123739
0.00195166
0.0026238
0.00302455
0.00278104
0.00216573
0.0018333
0.00182358
0.00188313
0.00148244
0.000844353
-0.000161824
-0.000196535
0.00346884
0.0209544
-9.81132e-05
-2.25428e-05
0.000255954
0.000790617
0.00129657
0.00208864
0.0028097
0.00303017
0.00247807
0.00191501
0.00155333
0.00143978
0.001599
0.00148926
0.0011176
6.5296e-05
0.00027268
0.00416409
0.017148
-9.94363e-05
8.0899e-06
0.000393429
0.000803546
0.00123564
0.00180562
0.00276507
0.00301329
0.00251427
0.00198031
0.00152658
0.00127324
0.00123578
0.00124505
0.000911149
0.000135684
0.000295532
0.00208924
0.0114961
-0.000103353
4.7431e-06
0.000443578
0.00082399
0.00122896
0.00172585
0.002567
0.00306682
0.00279698
0.00213725
0.00157615
0.00125147
0.00107766
0.000955705
0.000687671
0.000279154
4.72653e-05
-0.000171853
0.00380923
)
;

boundaryField
{
    leftWall
    {
        type            zeroGradient;
    }
    rightWall
    {
        type            zeroGradient;
    }
    lowerWall
    {
        type            zeroGradient;
    }
    atmosphere
    {
        type            zeroGradient;
    }
    defaultFaces
    {
        type            empty;
    }
}


// ************************************************************************* //
