/*--------------------------------*- C++ -*----------------------------------*\
| =========                 |                                                 |
| \\      /  F ield         | foam-extend: Open Source CFD                    |
|  \\    /   O peration     | Version:     4.1                                |
|   \\  /    A nd           | Web:         http://www.foam-extend.org         |
|    \\/     M anipulation  |                                                 |
\*---------------------------------------------------------------------------*/
FoamFile
{
    version     2.0;
    format      ascii;
    class       volVectorField;
    location    "0.8";
    object      U;
}
// * * * * * * * * * * * * * * * * * * * * * * * * * * * * * * * * * * * * * //

dimensions      [0 1 -1 0 0 0 0];

internalField   nonuniform List<vector> 
2268
(
(-0.00366458 0.0156826 0)
(-0.0725105 0.0131528 0)
(-0.0802922 -0.00188477 0)
(-0.0975873 -0.017701 0)
(-0.116691 0.000697974 0)
(-0.100606 -0.000598521 0)
(-0.111868 0.00105303 0)
(-0.107934 -0.00583304 0)
(-0.0971241 -0.00785789 0)
(-0.098489 -0.00860502 0)
(-0.0488177 -0.0123381 0)
(-0.0152488 -0.00366718 0)
(0.00183275 -0.00539134 0)
(0.016294 -0.0099037 0)
(0.0394128 -0.0221297 0)
(0.0565298 -0.00971124 0)
(0.0891427 -0.0050559 0)
(0.0865435 -0.0111378 0)
(0.0933353 0.00287196 0)
(0.111439 -0.0313334 0)
(0.0759125 0.0129219 0)
(0.0420808 -0.00166565 0)
(0.0242848 0.0120746 0)
(0.0147529 0.020283 0)
(-0.0600843 0.0232533 0)
(-0.0767145 0.0131631 0)
(-0.0958018 -0.0152013 0)
(-0.112639 0.000256714 0)
(-0.0994662 -0.00238374 0)
(-0.109173 0.000948931 0)
(-0.100293 0.00196609 0)
(-0.0799566 0.00573487 0)
(-0.0749621 -0.0147073 0)
(-0.0236576 -0.00837599 0)
(-0.00933645 -0.00481768 0)
(0.00378081 -0.0101911 0)
(0.0086746 -0.0237876 0)
(0.0399132 -0.01618 0)
(0.063691 -0.0137932 0)
(0.0939335 -0.0109361 0)
(0.108984 0.0126372 0)
(0.102159 0.0293437 0)
(0.115638 -0.00274681 0)
(0.0772366 0.0158128 0)
(0.0354962 0.0290799 0)
(0.0459005 0.0180339 0)
(0.0032604 0.0264379 0)
(-0.0659446 0.0354011 0)
(-0.0804766 0.00764187 0)
(-0.0979871 -0.0088455 0)
(-0.110514 0.00180708 0)
(-0.0955605 -0.000197968 0)
(-0.10403 0.00352935 0)
(-0.0987367 -0.0124474 0)
(-0.0851817 -0.0142557 0)
(-0.0840112 -0.034865 0)
(-0.0420451 -0.0189564 0)
(-0.0294207 -0.036335 0)
(-0.0350442 -0.0365598 0)
(-0.0272141 -0.0422173 0)
(0.000982734 -0.030183 0)
(0.0176894 -0.0325947 0)
(0.0875653 -0.0254556 0)
(0.0963841 -0.0190836 0)
(0.0972504 0.0250872 0)
(0.106655 0.020617 0)
(0.0923446 0.0377904 0)
(0.0421573 0.0393087 0)
(0.0303863 0.0564818 0)
(-0.00487973 0.0497317 0)
(-0.0771418 0.028363 0)
(-0.0895608 0.0208484 0)
(-0.0964719 -0.00830522 0)
(-0.106687 -7.52988e-05 0)
(-0.0978346 -0.00436227 0)
(-0.112148 0.00016661 0)
(-0.112504 -0.018538 0)
(-0.0898169 -0.00861234 0)
(-0.0791082 -0.00174631 0)
(-0.0776842 -0.00409012 0)
(-0.0839888 -0.0122262 0)
(-0.0777359 -0.0129475 0)
(-0.0688839 -0.00651956 0)
(-0.0479523 -0.0370404 0)
(-0.0258738 -0.0333908 0)
(0.0211976 -0.0325255 0)
(0.0581483 -0.0245752 0)
(0.0764905 -0.00486676 0)
(0.0751706 0.00471134 0)
(0.0791006 0.0570766 0)
(0.0346285 0.0976886 0)
(0.0452649 0.0422831 0)
(-0.0251829 0.0651602 0)
(-0.083377 0.0378609 0)
(-0.0944923 0.0112935 0)
(-0.103375 -0.00522647 0)
(-0.110971 0.00246944 0)
(-0.105667 0.000731599 0)
(-0.12152 0.00621416 0)
(-0.10551 -0.00191458 0)
(-0.103988 -0.0297044 0)
(-0.106598 -0.00203238 0)
(-0.117952 -0.0181335 0)
(-0.120505 -0.0375876 0)
(-0.0984717 -0.0489127 0)
(-0.0990674 -0.0671183 0)
(-0.0773013 -0.0514187 0)
(-0.052671 -0.0638838 0)
(-0.0044367 -0.0619843 0)
(0.0147581 -0.0351284 0)
(0.0360964 -0.00827519 0)
(0.0635212 0.0151676 0)
(0.0908187 0.0232745 0)
(0.00929001 0.0858187 0)
(0.00213653 0.097951 0)
(-0.0218332 0.0763244 0)
(-0.0956989 0.0420888 0)
(-0.106655 0.0289308 0)
(-0.0985 -0.00411134 0)
(-0.105 0.00366382 0)
(-0.100403 -0.00199847 0)
(-0.130989 0.00870685 0)
(-0.156301 0.0231867 0)
(-0.139243 0.0118544 0)
(-0.130342 0.00603586 0)
(-0.149897 -0.00699388 0)
(-0.144933 -0.02955 0)
(-0.136524 -0.0363894 0)
(-0.111004 -0.0627758 0)
(-0.0686998 -0.0587874 0)
(-0.0564511 -0.0671237 0)
(-0.0119119 -0.0678535 0)
(0.0134744 -0.0143059 0)
(0.0483058 -0.04277 0)
(0.0562487 0.016832 0)
(0.0607564 0.0464882 0)
(0.041511 0.0695577 0)
(0.0463106 0.127413 0)
(-0.0404914 0.0936254 0)
(-0.114229 0.0643594 0)
(-0.134531 0.00757986 0)
(-0.131951 -0.00755927 0)
(-0.136331 -0.000211154 0)
(-0.152767 0.00623248 0)
(-0.160005 0.0115927 0)
(-0.16485 0.0111328 0)
(-0.161351 0.0232621 0)
(-0.161903 0.00196191 0)
(-0.153921 -0.00163709 0)
(-0.146846 -0.0124211 0)
(-0.126671 -0.0191959 0)
(-0.118597 -0.0527235 0)
(-0.0832219 -0.0775341 0)
(-0.045232 -0.0909831 0)
(0.00974491 -0.0914235 0)
(0.0211683 -0.067342 0)
(0.0577079 -0.0426949 0)
(0.102138 0.0324304 0)
(0.0755639 0.0361351 0)
(0.0697116 0.075621 0)
(0.0454691 0.210684 0)
(-0.026792 0.114739 0)
(-0.151468 0.110747 0)
(-0.17563 0.0500449 0)
(-0.164061 -0.0106678 0)
(-0.179945 0.0172775 0)
(-0.188429 0.00918489 0)
(-0.191587 0.0159649 0)
(-0.186778 0.01287 0)
(-0.170359 0.0147729 0)
(-0.160759 0.00514973 0)
(-0.151044 -0.0126646 0)
(-0.142575 -0.0432278 0)
(-0.145726 -0.0585248 0)
(-0.122755 -0.0665615 0)
(-0.0809442 -0.0945173 0)
(-0.049814 -0.110527 0)
(0.0182311 -0.100433 0)
(0.0621592 -0.106211 0)
(0.129417 -0.0648543 0)
(0.124523 0.0706702 0)
(0.100243 0.030872 0)
(0.15354 0.0618466 0)
(0.0862611 0.204439 0)
(-0.761334 0.139938 0)
(-0.759816 0.138517 0)
(-1.19276 0.0717177 0)
(-1.56281 0.0354099 0)
(-1.71348 -0.0248503 0)
(-1.79315 -0.00173208 0)
(-1.92188 -0.0547926 0)
(-2.05088 -0.069633 0)
(-2.21271 -0.0388053 0)
(-2.22747 -0.0368561 0)
(-2.19316 -0.0485014 0)
(-2.1115 -0.0748651 0)
(-2.06651 -0.0461901 0)
(-1.77561 -0.268676 0)
(-1.58853 -0.258387 0)
(-1.49176 -0.110719 0)
(-0.811258 -0.0442473 0)
(-0.594929 -0.250217 0)
(-0.143284 -0.0389952 0)
(-0.738805 0.235912 0)
(-0.736598 0.328652 0)
(-1.09868 0.254904 0)
(-1.38014 0.219271 0)
(-1.48331 0.118172 0)
(-1.6048 0.1821 0)
(-1.70774 0.129946 0)
(-1.77211 0.116313 0)
(-1.87245 0.0910887 0)
(-1.88837 0.0922278 0)
(-1.86141 0.0708813 0)
(-1.7267 0.000103269 0)
(-1.7665 -0.142073 0)
(-1.65524 -0.276306 0)
(-1.412 -0.51066 0)
(-1.48559 -0.0582767 0)
(-0.896281 0.118324 0)
(-0.575286 -0.298175 0)
(-0.134546 -0.27901 0)
(-0.684891 0.440497 0)
(-0.628591 0.553336 0)
(-0.781326 0.31966 0)
(-0.977753 0.221338 0)
(-1.0685 0.230233 0)
(-1.06808 0.198431 0)
(-1.22047 0.0945526 0)
(-1.22183 -0.0013287 0)
(-1.28932 0.00497531 0)
(-1.28416 -0.0266536 0)
(-1.26075 -0.0522507 0)
(-1.05171 -0.294247 0)
(-1.09218 -0.565557 0)
(-1.08041 -0.470374 0)
(-0.986585 -0.798176 0)
(-0.962069 -0.26126 0)
(-0.90553 -0.205462 0)
(-0.413242 -0.21061 0)
(-0.0442922 -0.355426 0)
(-0.587859 0.559142 0)
(-0.462362 0.641034 0)
(-0.532416 0.380455 0)
(-0.629398 0.204555 0)
(-0.776734 0.356698 0)
(-0.683084 0.227 0)
(-0.742647 0.10493 0)
(-0.662287 0.142297 0)
(-0.629641 0.109526 0)
(-0.739413 0.0777195 0)
(-0.736553 0.00757912 0)
(-0.759703 -0.314458 0)
(-0.693844 -0.616685 0)
(-0.560994 -0.457692 0)
(-0.604335 -0.501125 0)
(-0.594137 -0.175055 0)
(-0.421675 -0.216282 0)
(-0.440815 -0.185377 0)
(0.0281507 -0.483522 0)
(-0.516912 0.650632 0)
(-0.384625 0.735963 0)
(-0.369382 0.378055 0)
(-0.446812 0.135584 0)
(-0.516566 0.277849 0)
(-0.191245 0.0277369 0)
(-0.10445 -0.120567 0)
(-0.275769 0.280111 0)
(-0.315887 0.0629752 0)
(-0.294964 0.0134214 0)
(-0.206036 -0.025121 0)
(-0.288245 -0.25794 0)
(-0.13735 -0.507793 0)
(-0.129291 -0.482456 0)
(-0.320829 -0.442073 0)
(-0.504517 -0.259269 0)
(-0.207446 -0.213537 0)
(-0.323484 -0.204786 0)
(0.0494321 -0.544369 0)
(-0.447809 0.766227 0)
(-0.262204 0.752889 0)
(-0.275737 0.395219 0)
(-0.26944 0.260354 0)
(-0.252763 0.223772 0)
(-0.0708475 0.0266965 0)
(-0.0524532 -0.0251036 0)
(-0.136847 0.141814 0)
(0.0880521 0.130165 0)
(0.0894409 0.0120892 0)
(0.265205 -0.00234161 0)
(0.121581 -0.132969 0)
(0.081367 -0.314159 0)
(0.0485142 -0.484699 0)
(-0.078263 -0.381236 0)
(-0.266474 -0.260569 0)
(-0.0935846 -0.250512 0)
(-0.170313 -0.233046 0)
(0.0647859 -0.576861 0)
(-0.399255 0.811993 0)
(-0.192778 0.798211 0)
(-0.0585392 0.427459 0)
(-0.0331765 0.354452 0)
(-0.0965669 0.209003 0)
(0.0990646 -0.0374307 0)
(0.10101 -0.015562 0)
(0.032569 0.179893 0)
(0.204387 0.106227 0)
(0.37556 -0.0842747 0)
(0.42204 -0.0525655 0)
(0.298312 -0.172925 0)
(0.287147 -0.378209 0)
(0.241086 -0.419726 0)
(0.057181 -0.391484 0)
(0.0141558 -0.261391 0)
(-0.0335336 -0.215638 0)
(-0.107919 -0.256022 0)
(0.0670835 -0.587684 0)
(-0.371016 0.964819 0)
(-0.0981451 0.751706 0)
(0.0689145 0.320225 0)
(0.111098 0.136327 0)
(0.191014 0.144514 0)
(0.300345 -0.072624 0)
(0.23476 -0.0506456 0)
(0.236774 0.0762126 0)
(0.309536 -0.116707 0)
(0.445149 -0.070937 0)
(0.58103 0.0402009 0)
(0.396007 -0.167381 0)
(0.419398 -0.332147 0)
(0.344007 -0.349203 0)
(0.135582 -0.32233 0)
(0.120409 -0.231241 0)
(-0.00773556 -0.184755 0)
(-0.0586008 -0.291879 0)
(0.0634005 -0.577995 0)
(-0.0485113 0.146827 0)
(-0.145276 0.123475 0)
(-0.238217 0.0805827 0)
(-0.218777 0.0114428 0)
(-0.181039 0.00193343 0)
(-0.204116 0.0103149 0)
(-0.193065 0.00729093 0)
(-0.18488 -0.0023862 0)
(-0.17104 0.00492086 0)
(-0.161934 -0.0244679 0)
(-0.150303 -0.0344285 0)
(-0.143005 -0.0868874 0)
(-0.117934 -0.109668 0)
(-0.125594 -0.117176 0)
(-0.124451 -0.122721 0)
(-0.0553854 -0.148817 0)
(0.0105662 -0.162726 0)
(0.0797575 -0.0724267 0)
(0.190479 -0.122804 0)
(0.204352 -0.0389263 0)
(0.120168 0.0296699 0)
(0.153705 0.0800756 0)
(0.160347 0.112863 0)
(-0.0584925 0.205321 0)
(-0.205268 0.182842 0)
(-0.216345 0.111174 0)
(-0.202072 0.125417 0)
(-0.1773 0.049142 0)
(-0.161497 0.0224171 0)
(-0.173109 0.0157324 0)
(-0.156419 -0.00734808 0)
(-0.158147 0.003725 0)
(-0.160424 -0.0206519 0)
(-0.170761 -0.00635904 0)
(-0.196906 -0.0856204 0)
(-0.194308 -0.0875811 0)
(-0.177704 -0.146275 0)
(-0.115755 -0.159321 0)
(-0.107616 -0.238326 0)
(-0.00207067 -0.226612 0)
(0.018085 -0.201335 0)
(-0.0216777 -0.140245 0)
(0.182912 0.0407707 0)
(0.107755 0.170371 0)
(0.0425421 0.0491535 0)
(0.0978288 0.00646784 0)
(-0.0791792 0.278286 0)
(-0.176247 0.217344 0)
(-0.190363 0.200709 0)
(-0.1646 0.128048 0)
(-0.228515 0.105061 0)
(-0.233906 -0.00126092 0)
(-0.201837 -0.0111553 0)
(-0.146764 -0.0198875 0)
(-0.136187 0.00685594 0)
(-0.131772 0.00553597 0)
(-0.25709 -0.00326847 0)
(-0.299344 0.0285832 0)
(-0.234468 -0.0435789 0)
(-0.328829 -0.0941064 0)
(-0.339291 -0.205034 0)
(-0.39665 -0.232347 0)
(-0.42784 -0.289201 0)
(-0.355874 -0.256923 0)
(-0.240374 -0.16041 0)
(-0.418666 -0.0829801 0)
(-0.428989 0.0325271 0)
(-0.270884 0.0934723 0)
(-0.257549 0.200875 0)
(-0.0777244 0.340132 0)
(-0.127048 0.238743 0)
(-0.159501 0.152522 0)
(-0.101882 0.0231073 0)
(-0.19213 -0.0608293 0)
(-0.256089 0.0186566 0)
(-0.0749061 -0.00818616 0)
(-0.0640489 0.135308 0)
(-0.0668667 0.0358375 0)
(-0.159904 0.0598849 0)
(-0.146861 -0.049662 0)
(-0.408374 0.116272 0)
(-0.398023 -0.0272939 0)
(-0.323909 -0.115514 0)
(-0.451699 -0.0599312 0)
(-0.65219 -0.232848 0)
(-0.697273 -0.29642 0)
(-0.7242 -0.174242 0)
(-0.775331 -0.135055 0)
(-0.78723 -0.0299413 0)
(-0.763742 0.149453 0)
(-0.700662 0.214934 0)
(-0.602043 0.30835 0)
(-0.0617722 0.47801 0)
(-0.109765 0.281452 0)
(-0.147829 0.173822 0)
(-0.0136025 0.138855 0)
(-0.0541749 -0.0101165 0)
(-0.0626825 -0.177253 0)
(-0.0504399 -0.270496 0)
(-0.141277 0.00534573 0)
(-0.140556 0.173392 0)
(-0.210324 0.236185 0)
(-0.203578 0.175009 0)
(-0.270653 0.107032 0)
(-0.356028 0.171845 0)
(-0.25545 0.102172 0)
(-0.65995 0.0098539 0)
(-0.894767 -0.086333 0)
(-0.729157 -0.122538 0)
(-0.692035 -0.159944 0)
(-0.829039 -0.0657304 0)
(-0.884919 -0.110927 0)
(-0.847217 -0.133464 0)
(-0.746939 0.142582 0)
(-0.755844 0.265534 0)
(-0.0503881 0.513214 0)
(-0.134317 0.334179 0)
(-0.0873457 0.127133 0)
(0.0333668 -0.0242611 0)
(-0.0807718 0.0543622 0)
(-0.354241 0.165026 0)
(-0.739979 0.255993 0)
(-0.84318 0.209938 0)
(-0.878298 0.176736 0)
(-0.8686 0.151841 0)
(-0.848182 0.143729 0)
(-0.788072 0.107282 0)
(-0.762295 0.0790702 0)
(-0.697473 0.0571107 0)
(-0.694853 -0.0305365 0)
(-0.748322 0.00792581 0)
(-0.822908 0.0784289 0)
(-0.752185 -0.036201 0)
(-1.1721 -0.10797 0)
(-1.44139 -0.0542371 0)
(-1.04386 0.00802954 0)
(-0.910171 0.0359864 0)
(-0.977172 0.142997 0)
(-0.00894535 0.589512 0)
(-0.161664 0.317885 0)
(-0.209591 0.0929588 0)
(-0.554852 0.14769 0)
(-0.916877 0.392455 0)
(-1.10521 0.38281 0)
(-1.14909 0.210948 0)
(-1.13453 0.130653 0)
(-1.1478 0.0969945 0)
(-1.05645 0.0587692 0)
(-1.0219 0.0450452 0)
(-0.988635 0.0400514 0)
(-0.919053 0.0301635 0)
(-0.887718 0.0268727 0)
(-0.88012 0.00167199 0)
(-0.875792 -0.00478871 0)
(-0.89053 0.134772 0)
(-1.0157 -0.110085 0)
(-1.09642 -0.283332 0)
(-1.32424 0.0399958 0)
(-1.29211 0.214812 0)
(-1.21529 0.0957917 0)
(-1.18089 -0.0147801 0)
(-0.0805536 0.686544 0)
(-0.26407 0.516324 0)
(-0.294687 0.486648 0)
(-0.83536 0.614905 0)
(-1.047 0.654536 0)
(-1.14763 0.428661 0)
(-1.14787 0.253184 0)
(-1.20797 0.185873 0)
(-1.26076 0.139221 0)
(-1.22713 0.0474781 0)
(-1.23668 0.00913287 0)
(-1.20904 -0.0187938 0)
(-1.17566 -0.01287 0)
(-1.11151 -0.0203624 0)
(-1.08194 -0.0157762 0)
(-0.982921 0.000446665 0)
(-1.30017 0.0915022 0)
(-1.58172 0.134681 0)
(-1.20104 0.115944 0)
(-1.07964 0.148243 0)
(-1.14136 0.248 0)
(-1.14189 0.00733787 0)
(-1.06702 -0.0947581 0)
(-0.128926 0.92837 0)
(-0.196944 0.908966 0)
(-0.382239 0.796091 0)
(-0.833361 0.915332 0)
(-0.988614 0.68419 0)
(-1.06709 0.468921 0)
(-1.10844 0.302784 0)
(-1.279 0.248421 0)
(-1.33632 0.115409 0)
(-1.32001 0.041208 0)
(-1.3406 0.0105643 0)
(-1.32262 -0.0452886 0)
(-1.32485 -0.0737777 0)
(-1.29078 -0.133239 0)
(-1.28448 -0.164945 0)
(-1.18598 -0.156623 0)
(-1.14664 -0.244226 0)
(-1.15158 0.065962 0)
(-1.05992 0.193337 0)
(-0.897275 0.115933 0)
(-1.08287 0.0496234 0)
(-1.25154 -0.0344203 0)
(-0.855324 -0.107639 0)
(-0.111759 1.02742 0)
(-0.206284 1.12947 0)
(-0.591247 1.17642 0)
(-0.860586 1.19108 0)
(-0.829372 0.907902 0)
(-0.679807 0.628168 0)
(-0.872443 0.453239 0)
(-1.04066 0.375171 0)
(-1.05027 0.179241 0)
(-1.12249 0.0907126 0)
(-1.2556 0.056408 0)
(-1.26719 -0.0202676 0)
(-1.3177 -0.114847 0)
(-1.33726 -0.157472 0)
(-1.33874 -0.185915 0)
(-1.24361 -0.156852 0)
(-1.23138 -0.172486 0)
(-1.0957 -0.0657611 0)
(-1.02504 -0.00948741 0)
(-0.879825 -0.0708016 0)
(-0.866282 -0.224583 0)
(-0.837272 -0.0126123 0)
(-0.826321 0.0826089 0)
(-0.113621 1.24893 0)
(-0.102836 1.71121 0)
(-0.427829 1.35216 0)
(-0.625077 1.33496 0)
(-0.61218 1.11299 0)
(-0.689511 0.640692 0)
(-0.53747 0.590411 0)
(-0.549619 0.454606 0)
(-0.7484 0.267025 0)
(-0.742529 0.351087 0)
(-0.650775 0.218429 0)
(-0.444527 -0.00294207 0)
(-0.37587 -0.0915139 0)
(-0.368811 -0.117428 0)
(-0.520293 -0.0379436 0)
(-0.78271 -0.183523 0)
(-0.913701 -0.223225 0)
(-0.937366 -0.16596 0)
(-0.956686 -0.174927 0)
(-0.824642 -0.186448 0)
(-0.779871 -0.260826 0)
(-0.726932 -0.259284 0)
(-0.64785 -0.210163 0)
(0.120454 1.30979 0)
(-0.186512 1.61877 0)
(-0.480523 1.3776 0)
(-0.440511 1.26455 0)
(-0.536018 0.978813 0)
(-0.642818 0.519958 0)
(-0.238431 0.470889 0)
(-0.349971 0.400857 0)
(-0.613866 0.340121 0)
(-0.617268 0.386828 0)
(-0.486956 -0.176423 0)
(-0.275269 -0.263511 0)
(-0.268637 -0.153732 0)
(-0.242675 -0.0140244 0)
(-0.21838 0.178339 0)
(-0.173091 0.179646 0)
(-0.186536 0.0402056 0)
(-0.154126 -0.0141673 0)
(-0.19661 0.0414686 0)
(-0.238521 -0.0674602 0)
(-0.308121 -0.173787 0)
(-0.351007 -0.215771 0)
(-0.378241 -0.129047 0)
(0.0648943 1.30965 0)
(-0.184827 1.41562 0)
(-0.370718 1.43017 0)
(-0.278963 1.30799 0)
(-0.457959 0.711159 0)
(-0.408793 0.400896 0)
(-0.136245 0.506778 0)
(-0.23854 0.512155 0)
(-0.315391 0.467115 0)
(-0.379914 0.321169 0)
(-0.280802 -0.183005 0)
(-0.33035 -0.231977 0)
(-0.355946 -0.125959 0)
(-0.339307 -0.111912 0)
(-0.310122 -0.0462486 0)
(-0.199142 -0.184505 0)
(-0.232674 -0.184242 0)
(-0.295777 -0.14873 0)
(-0.245703 -0.109147 0)
(-0.241054 -0.0957131 0)
(-0.305508 -0.0755922 0)
(-0.331531 -0.120379 0)
(-0.334259 -0.183596 0)
(0.0453601 1.34319 0)
(-0.149568 1.49962 0)
(-0.229625 1.46802 0)
(-0.211476 1.34278 0)
(-0.277523 0.725228 0)
(-0.075015 0.498019 0)
(0.0631254 0.424485 0)
(0.0377402 0.91735 0)
(-0.123764 0.671676 0)
(-0.285184 0.330255 0)
(-0.272007 -0.189139 0)
(-0.432917 -0.215744 0)
(-0.442398 -0.185377 0)
(-0.460895 -0.269746 0)
(-0.358016 -0.105224 0)
(-0.322988 -0.0540226 0)
(-0.389869 -0.0783709 0)
(-0.584808 -0.0310907 0)
(-0.647582 -0.0809736 0)
(-0.639164 -0.162646 0)
(-0.551052 -0.259395 0)
(-0.452897 -0.219709 0)
(-0.407144 -0.258104 0)
(0.0141647 1.37207 0)
(-0.141702 1.5128 0)
(-0.114146 1.4018 0)
(-0.0719803 1.38718 0)
(0.0631592 0.786311 0)
(0.0968487 0.500358 0)
(0.181231 0.455108 0)
(0.315838 0.758033 0)
(0.0351481 0.844641 0)
(-0.194576 0.484755 0)
(-0.384675 -0.0667122 0)
(-0.525355 -0.097436 0)
(-0.346246 -0.201411 0)
(-0.306646 -0.255145 0)
(-0.181783 -0.19892 0)
(-0.128011 -0.049259 0)
(-0.0632194 0.0675514 0)
(-0.069843 0.116955 0)
(-0.0177941 0.0567873 0)
(-0.0267341 -0.064509 0)
(-0.0420034 -0.141401 0)
(-0.0694177 -0.107419 0)
(-0.131026 -0.0646875 0)
(0.00298691 1.40358 0)
(-0.126765 1.5345 0)
(-0.03495 1.42852 0)
(0.0713561 1.24156 0)
(0.219496 0.580851 0)
(0.236677 0.205281 0)
(0.3171 0.260028 0)
(0.539854 0.593068 0)
(0.261044 0.900643 0)
(0.0155602 0.578132 0)
(-0.0725596 0.0241993 0)
(-0.224736 0.098573 0)
(-0.245536 -0.15699 0)
(-0.246852 -0.238771 0)
(-0.25609 -0.125122 0)
(-0.192918 -0.168776 0)
(-0.0978523 -0.0989452 0)
(-0.0539893 -0.0614729 0)
(0.0345783 -0.129595 0)
(0.0254881 -0.167983 0)
(0.0232935 -0.186763 0)
(0.00522585 -0.140436 0)
(-0.103198 -0.0620534 0)
(0.0171196 1.45299 0)
(-0.0945962 1.5372 0)
(-0.105275 1.42058 0)
(0.162501 1.24271 0)
(0.668837 0.659337 0)
(0.473881 0.295493 0)
(0.535823 0.294464 0)
(0.816627 0.67306 0)
(0.451622 1.00919 0)
(0.0936133 0.787255 0)
(0.0508284 0.485984 0)
(-0.181281 0.16046 0)
(-0.119005 -0.323825 0)
(-0.200028 -0.449156 0)
(-0.0926183 -0.414143 0)
(-0.151791 -0.263035 0)
(-0.0378018 -0.239135 0)
(-0.0491832 -0.175261 0)
(0.0812968 -0.160358 0)
(0.0741595 -0.17654 0)
(0.0549687 -0.161265 0)
(0.0595344 -0.161416 0)
(0.133785 -0.108698 0)
(-0.00254819 1.47614 0)
(-0.0295162 1.52462 0)
(-0.0631381 1.35137 0)
(0.251294 1.25557 0)
(0.526343 0.535112 0)
(0.446217 0.299455 0)
(0.57927 0.418548 0)
(0.871932 0.734261 0)
(0.566026 1.02132 0)
(0.297292 0.926166 0)
(0.196051 0.549387 0)
(-0.501622 -0.0546472 0)
(-0.203323 -0.360856 0)
(-0.00130392 -0.425424 0)
(0.0649937 -0.504917 0)
(0.0297238 -0.410304 0)
(0.0831468 -0.158964 0)
(0.095909 -0.140513 0)
(0.152689 -0.117339 0)
(0.114845 -0.116213 0)
(0.127107 -0.150984 0)
(0.170174 -0.14886 0)
(0.170816 -0.194603 0)
(-0.00464818 1.50294 0)
(-0.0231965 1.53324 0)
(0.0676606 1.20269 0)
(0.300619 0.890227 0)
(0.081408 0.128279 0)
(0.409299 0.200647 0)
(0.651501 0.508682 0)
(0.680041 0.781462 0)
(0.477264 1.12254 0)
(0.665331 1.1946 0)
(0.719774 0.937495 0)
(0.361567 0.443651 0)
(0.338959 -0.178956 0)
(0.268493 -0.308707 0)
(0.155423 -0.481371 0)
(0.206689 -0.241559 0)
(0.23219 -0.171311 0)
(0.105778 -0.0988464 0)
(0.145313 -0.0966059 0)
(0.144288 -0.0963729 0)
(0.149853 -0.123128 0)
(0.122938 -0.167359 0)
(0.146279 -0.182321 0)
(-0.00044667 1.53039 0)
(-0.0177429 1.56354 0)
(0.163419 0.883859 0)
(0.314184 0.541741 0)
(0.376691 0.162466 0)
(0.576409 0.187178 0)
(0.592375 0.318096 0)
(0.512266 0.756069 0)
(0.574932 1.57286 0)
(0.786607 1.72963 0)
(0.702862 1.07535 0)
(0.243677 0.337485 0)
(0.453968 -0.212248 0)
(0.404475 -0.359148 0)
(0.325374 -0.352077 0)
(0.323933 -0.210029 0)
(0.196595 -0.207295 0)
(0.196962 -0.176034 0)
(0.219079 -0.150958 0)
(0.190776 -0.11924 0)
(0.167266 -0.118261 0)
(0.19185 -0.148916 0)
(0.211798 -0.138952 0)
(0.0316758 1.57748 0)
(-0.0499034 1.5628 0)
(0.16417 0.855114 0)
(0.455721 0.617711 0)
(0.328439 0.270305 0)
(0.429478 0.153166 0)
(0.434454 0.291294 0)
(0.665648 0.707927 0)
(0.741064 1.45046 0)
(0.604949 1.49011 0)
(0.473498 0.943333 0)
(0.36502 0.235434 0)
(0.547927 -0.0543082 0)
(0.380303 -0.268532 0)
(0.367289 -0.109123 0)
(0.329802 -0.195407 0)
(0.204251 -0.116556 0)
(0.196831 -0.10192 0)
(0.248421 -0.105581 0)
(0.249415 -0.15353 0)
(0.189888 -0.171509 0)
(0.161273 -0.193014 0)
(0.205353 -0.194887 0)
(0.0159915 1.58238 0)
(-0.0240443 1.53562 0)
(0.155589 0.963773 0)
(0.251195 0.580322 0)
(0.0967438 0.121449 0)
(0.317751 0.14223 0)
(0.410034 0.324681 0)
(0.414111 0.663443 0)
(0.530515 1.14095 0)
(0.391356 0.884763 0)
(0.499394 0.617401 0)
(0.639256 0.253673 0)
(0.461973 -0.0287722 0)
(0.50192 -0.138222 0)
(0.447477 -0.0685379 0)
(0.259133 -0.15799 0)
(0.248048 -0.0907423 0)
(0.206715 -0.080112 0)
(0.20943 -0.0563576 0)
(0.176563 -0.146442 0)
(0.183703 -0.175637 0)
(0.244219 -0.158593 0)
(0.264562 -0.211625 0)
(0.000390832 1.59245 0)
(-0.0136295 1.3836 0)
(0.20126 0.793143 0)
(0.11447 0.499377 0)
(0.0747335 0.113739 0)
(0.149077 0.182189 0)
(0.135315 0.205149 0)
(0.0624802 0.382113 0)
(0.300897 0.864373 0)
(0.320549 0.886203 0)
(0.465056 0.627174 0)
(0.497355 0.296291 0)
(0.432888 0.0743628 0)
(0.347226 0.0559704 0)
(0.262945 -0.11994 0)
(0.237973 -0.0628971 0)
(0.256759 -0.0574129 0)
(0.248243 -0.059978 0)
(0.219508 -0.0683733 0)
(0.185062 -0.118531 0)
(0.22001 -0.100976 0)
(0.179565 -0.109042 0)
(0.234749 -0.173302 0)
(-0.107716 1.63473 0)
(-0.026263 1.4592 0)
(0.498066 0.996163 0)
(0.161318 0.581914 0)
(0.137321 0.0784666 0)
(-0.0355615 0.152943 0)
(-0.0297894 0.308722 0)
(-0.134241 0.455832 0)
(-0.0539107 0.766424 0)
(0.0623062 0.666358 0)
(0.267398 0.554564 0)
(0.281064 0.205627 0)
(0.208537 0.175041 0)
(0.235192 0.0720524 0)
(0.233119 0.0294803 0)
(0.17687 0.033306 0)
(0.180507 -0.0672149 0)
(0.170844 -0.0731224 0)
(0.165438 -0.122209 0)
(0.201561 -0.171606 0)
(0.238132 -0.163026 0)
(0.221919 -0.165912 0)
(0.269171 -0.186373 0)
(-0.0924815 1.69342 0)
(-0.0386153 1.6716 0)
(0.27201 1.03165 0)
(-0.0383699 0.679461 0)
(0.150794 0.196525 0)
(-0.193501 0.348184 0)
(-0.0637446 0.434815 0)
(-0.117337 0.562247 0)
(-0.158232 0.758653 0)
(0.019985 0.616832 0)
(0.0378466 0.579361 0)
(-0.0204491 0.416129 0)
(0.139494 0.28428 0)
(-0.0137694 0.0753609 0)
(0.0614434 0.0194353 0)
(0.0379361 0.0151776 0)
(0.0831586 -0.0557623 0)
(0.127922 -0.0399599 0)
(0.102976 -0.115213 0)
(0.18395 -0.1627 0)
(0.240611 -0.103047 0)
(0.192135 -0.111402 0)
(0.331706 -0.133272 0)
(-0.0777414 1.70248 0)
(-0.0292032 1.54313 0)
(0.221493 0.96048 0)
(-0.100981 0.644958 0)
(0.160391 0.254297 0)
(-0.0861695 0.549047 0)
(-0.187976 0.812398 0)
(-0.217251 0.979196 0)
(-0.266735 0.718019 0)
(-0.228127 0.616568 0)
(-0.0746806 0.40401 0)
(-0.1358 0.378883 0)
(-0.171849 0.0760523 0)
(-0.0776991 0.0409517 0)
(-0.0294093 -0.0162183 0)
(-0.00857872 0.00176223 0)
(0.0457688 -0.115619 0)
(0.0422499 -0.196169 0)
(0.0847125 -0.17006 0)
(0.22025 -0.129723 0)
(0.281905 -0.19667 0)
(0.218881 -0.242131 0)
(0.220587 -0.182079 0)
(-0.0805614 1.73573 0)
(0.0259631 1.32414 0)
(0.0700666 1.02847 0)
(-0.073681 0.760205 0)
(0.353304 0.627924 0)
(-0.0767412 0.730359 0)
(-0.126121 0.972993 0)
(-0.409271 0.866302 0)
(-0.536683 0.666558 0)
(-0.305724 0.496226 0)
(-0.232032 0.41401 0)
(-0.348721 0.298424 0)
(-0.20054 0.0695688 0)
(-0.100207 0.0164272 0)
(-0.103277 0.0532869 0)
(-0.110407 -0.0707756 0)
(-0.0540681 -0.0911878 0)
(0.026257 -0.223367 0)
(0.133264 -0.216462 0)
(0.127976 -0.267949 0)
(0.128203 -0.325221 0)
(0.191842 -0.298912 0)
(0.179752 -0.154404 0)
(-0.0711487 1.84454 0)
(0.115398 1.31296 0)
(0.0989443 1.15991 0)
(-0.095316 1.09802 0)
(0.0828067 0.602966 0)
(-0.206688 1.00211 0)
(-0.255168 1.07218 0)
(-0.411866 0.901698 0)
(-0.508861 0.792133 0)
(-0.290535 0.657846 0)
(-0.27008 0.471787 0)
(-0.415048 0.229133 0)
(-0.361874 0.0649265 0)
(-0.267097 -0.079081 0)
(-0.184243 -0.0155985 0)
(-0.175853 -0.159504 0)
(-0.0770582 -0.164119 0)
(-0.0552972 -0.200008 0)
(0.0549172 -0.255131 0)
(0.0831199 -0.258657 0)
(0.193172 -0.271943 0)
(0.328842 -0.336878 0)
(0.26844 -0.266981 0)
(-0.0502972 1.82246 0)
(0.194452 1.18416 0)
(-0.0407534 1.21602 0)
(-0.0625764 0.984649 0)
(-0.0270991 0.678177 0)
(-0.277717 1.11292 0)
(-0.218221 1.18515 0)
(-0.364998 0.92236 0)
(-0.435084 1.34409 0)
(-0.445094 1.07567 0)
(-0.471678 0.565262 0)
(-0.502417 0.226148 0)
(-0.453937 -0.0677171 0)
(-0.333115 -0.184179 0)
(-0.287385 -0.200391 0)
(-0.228802 -0.136974 0)
(-0.0367237 -0.273367 0)
(-0.0317977 -0.284337 0)
(0.0789014 -0.297309 0)
(0.0671678 -0.232761 0)
(0.0482377 -0.337322 0)
(0.220588 -0.325787 0)
(0.346646 -0.356944 0)
(0.0931133 1.99448 0)
(0.477488 1.46318 0)
(0.0797886 1.36297 0)
(0.0259037 1.04701 0)
(0.00608011 0.800102 0)
(-0.330929 1.2855 0)
(-0.342677 1.4019 0)
(-0.128217 1.07457 0)
(-0.156432 1.2852 0)
(-0.639604 0.821278 0)
(-0.607769 0.449311 0)
(-0.543477 0.105223 0)
(-0.51777 -0.214653 0)
(-0.38911 -0.336771 0)
(-0.256814 -0.287125 0)
(-0.183982 -0.273127 0)
(-0.056497 -0.319987 0)
(-0.05842 -0.341174 0)
(0.037593 -0.316628 0)
(0.0321129 -0.218548 0)
(0.10964 -0.27833 0)
(0.233919 -0.220968 0)
(0.340984 -0.301668 0)
(-0.0123037 2.44652 0)
(0.245946 1.71019 0)
(-0.0628808 1.53629 0)
(0.00749859 1.15901 0)
(-0.0618501 1.03204 0)
(-0.211608 1.43949 0)
(-0.219442 1.56909 0)
(-0.234678 1.31838 0)
(-0.226535 1.13226 0)
(-0.535999 0.82566 0)
(-0.462 0.571645 0)
(-0.264524 0.21253 0)
(-0.34314 -0.282593 0)
(-0.240343 -0.432935 0)
(-0.266738 -0.444216 0)
(-0.226608 -0.546698 0)
(0.0192821 -0.419687 0)
(-0.000823563 -0.417393 0)
(0.103735 -0.364297 0)
(0.0728888 -0.416815 0)
(0.0961442 -0.223936 0)
(0.175562 -0.281553 0)
(0.391388 -0.453491 0)
(-0.0536482 2.37094 0)
(0.0317429 1.63398 0)
(-0.143738 1.64276 0)
(-0.0937558 1.13266 0)
(-0.108785 1.25001 0)
(-0.205264 1.44716 0)
(-0.208962 1.53565 0)
(-0.241974 1.26317 0)
(-0.0553076 1.01314 0)
(-0.267667 0.719523 0)
(-0.0409785 1.01679 0)
(-0.171147 0.537973 0)
(-0.239324 -0.156028 0)
(-0.0634032 -0.491303 0)
(-0.234985 -0.525165 0)
(-0.0300898 -0.486426 0)
(0.0967741 -0.393345 0)
(0.0424143 -0.417294 0)
(0.0589255 -0.393553 0)
(0.159908 -0.462669 0)
(0.259471 -0.400954 0)
(0.0723588 -0.443282 0)
(0.196653 -0.405905 0)
(-0.0383984 2.39547 0)
(-0.00330105 1.70113 0)
(-0.256112 1.71076 0)
(-0.244436 1.28442 0)
(-0.201875 1.33085 0)
(-0.253926 1.44988 0)
(-0.262598 1.42788 0)
(-0.333942 1.31637 0)
(-0.00554591 1.15637 0)
(0.249412 0.980289 0)
(0.397755 0.707582 0)
(0.0660215 0.397026 0)
(0.113934 -0.17084 0)
(0.212949 -0.409068 0)
(0.0222824 -0.402827 0)
(0.0950116 -0.483032 0)
(0.110575 -0.594505 0)
(0.0241935 -0.404557 0)
(0.0743016 -0.365438 0)
(0.108363 -0.35853 0)
(0.129607 -0.391734 0)
(0.208485 -0.424449 0)
(0.306569 -0.336527 0)
(-0.0390039 2.4845 0)
(-0.0246749 1.84145 0)
(-0.239247 1.86219 0)
(-0.251814 1.42652 0)
(-0.397861 1.36221 0)
(-0.357545 1.37846 0)
(-0.256371 1.25398 0)
(-0.186193 1.27041 0)
(0.0615622 1.22259 0)
(0.133319 1.05048 0)
(0.299617 0.575876 0)
(0.195459 0.256306 0)
(0.420036 -0.0842927 0)
(0.394379 -0.412626 0)
(0.179804 -0.561361 0)
(0.0120845 -0.570904 0)
(0.232662 -0.623026 0)
(0.231078 -0.523297 0)
(0.10509 -0.445055 0)
(0.163337 -0.429719 0)
(0.192527 -0.301151 0)
(0.166715 -0.303287 0)
(0.231679 -0.395019 0)
(-0.0462012 2.63124 0)
(-0.0430158 2.04185 0)
(-0.211949 2.17004 0)
(-0.269793 1.70717 0)
(-0.458328 1.45487 0)
(-0.40095 1.27983 0)
(-0.288019 0.968855 0)
(-0.169189 0.848667 0)
(0.034176 0.870187 0)
(0.166532 0.807129 0)
(0.312096 0.508604 0)
(0.32323 0.234321 0)
(0.408234 0.0463919 0)
(0.384235 -0.283342 0)
(0.341962 -0.532947 0)
(0.26088 -0.548174 0)
(0.238455 -0.497726 0)
(0.20127 -0.567168 0)
(0.177128 -0.447477 0)
(0.203326 -0.395792 0)
(0.240703 -0.337565 0)
(0.149581 -0.481633 0)
(0.201815 -0.407219 0)
(-0.0385845 2.72251 0)
(-0.0460983 2.0696 0)
(-0.166998 2.35653 0)
(-0.147456 2.00364 0)
(-0.316487 1.58784 0)
(-0.250913 1.14219 0)
(-0.142734 0.72886 0)
(-0.0972735 0.601732 0)
(0.0984999 0.527533 0)
(0.108118 0.486919 0)
(0.162361 0.420468 0)
(0.272102 0.18746 0)
(0.58778 -0.130008 0)
(0.472316 -0.278285 0)
(0.295493 -0.400036 0)
(0.132107 -0.46873 0)
(0.173688 -0.475818 0)
(0.269742 -0.458686 0)
(0.234848 -0.496943 0)
(0.202511 -0.374652 0)
(0.0811078 -0.457373 0)
(0.145187 -0.494105 0)
(0.271283 -0.531764 0)
(-0.0306501 2.77227 0)
(-0.0484832 2.06532 0)
(-0.117714 2.39627 0)
(-0.0801879 2.0101 0)
(-0.167485 1.61768 0)
(-0.0998723 1.02112 0)
(-0.0873485 0.635392 0)
(-0.097423 0.466786 0)
(-0.00566129 0.490936 0)
(0.047262 0.210728 0)
(0.160614 0.300693 0)
(0.303904 0.202906 0)
(0.493197 -0.0542115 0)
(0.218766 -0.24723 0)
(0.154579 -0.49953 0)
(0.222263 -0.44134 0)
(0.219517 -0.41715 0)
(0.164637 -0.39272 0)
(0.199333 -0.470301 0)
(0.250589 -0.522666 0)
(0.11956 -0.568123 0)
(0.110384 -0.458145 0)
(0.169695 -0.60578 0)
(-0.0512594 2.82351 0)
(-0.0915686 2.11224 0)
(-0.144051 2.37075 0)
(-0.0826376 2.01741 0)
(-0.126386 1.61876 0)
(-0.102679 0.951748 0)
(-0.145931 0.623921 0)
(-0.177501 0.470581 0)
(-0.129021 0.377832 0)
(-0.0628053 0.233675 0)
(0.0492413 0.194976 0)
(0.407174 0.202566 0)
(0.509121 -0.137679 0)
(0.234018 -0.329975 0)
(0.226311 -0.364469 0)
(0.23295 -0.369177 0)
(0.204374 -0.419355 0)
(0.215624 -0.519085 0)
(0.109645 -0.440746 0)
(0.133849 -0.572616 0)
(0.206214 -0.541985 0)
(0.139594 -0.50246 0)
(0.0852643 -0.481722 0)
(-0.05234 2.99515 0)
(-0.172435 2.34606 0)
(-0.241302 2.37001 0)
(-0.188588 1.96449 0)
(-0.205536 1.63071 0)
(-0.214268 1.116 0)
(-0.317675 0.837217 0)
(-0.263878 0.401811 0)
(-0.169369 0.14948 0)
(-0.0765313 0.134041 0)
(0.00355064 0.0627656 0)
(0.314447 0.0414783 0)
(0.222821 -0.354583 0)
(0.189604 -0.360254 0)
(0.319755 -0.404133 0)
(0.233224 -0.475854 0)
(0.0326076 -0.419099 0)
(0.128046 -0.479604 0)
(0.185697 -0.477013 0)
(0.136959 -0.439422 0)
(0.227175 -0.535504 0)
(0.124422 -0.525341 0)
(0.100317 -0.551152 0)
(-0.0689618 3.18449 0)
(-0.336387 2.56825 0)
(-0.488932 2.41193 0)
(-0.514864 1.94368 0)
(-0.517039 1.57146 0)
(-0.59842 1.04071 0)
(-0.579976 0.715176 0)
(-0.449882 0.164087 0)
(-0.309131 0.00577709 0)
(-0.110621 0.0591066 0)
(-0.0513774 -0.0378724 0)
(0.158316 -0.0449321 0)
(0.168808 -0.254166 0)
(0.202081 -0.201632 0)