/*--------------------------------*- C++ -*----------------------------------*\
| =========                 |                                                 |
| \\      /  F ield         | foam-extend: Open Source CFD                    |
|  \\    /   O peration     | Version:     4.1                                |
|   \\  /    A nd           | Web:         http://www.foam-extend.org         |
|    \\/     M anipulation  |                                                 |
\*---------------------------------------------------------------------------*/
FoamFile
{
    version     2.0;
    format      ascii;
    class       volVectorField;
    location    "0.8";
    object      U_0;
}
// * * * * * * * * * * * * * * * * * * * * * * * * * * * * * * * * * * * * * //

dimensions      [0 1 -1 0 0 0 0];

internalField   nonuniform List<vector> 
2268
(
(-0.00360732 0.0157188 0)
(-0.0726393 0.0132005 0)
(-0.0803909 -0.00181405 0)
(-0.0977618 -0.0176549 0)
(-0.116857 0.000784762 0)
(-0.100769 -0.000582552 0)
(-0.112184 0.00110164 0)
(-0.108321 -0.00580804 0)
(-0.0976297 -0.00782034 0)
(-0.0992901 -0.00858182 0)
(-0.0499485 -0.0124292 0)
(-0.016356 -0.0037578 0)
(0.000795473 -0.00547362 0)
(0.0154968 -0.00986162 0)
(0.0387269 -0.0220723 0)
(0.0558326 -0.0097153 0)
(0.0882777 -0.0051726 0)
(0.0860227 -0.0110885 0)
(0.0925903 0.00262367 0)
(0.110874 -0.0309381 0)
(0.0759356 0.0127196 0)
(0.0420347 -0.00142699 0)
(0.0242851 0.0119143 0)
(0.0147336 0.0203947 0)
(-0.0602295 0.0234001 0)
(-0.0767928 0.0133569 0)
(-0.0959198 -0.0149688 0)
(-0.112832 0.000484456 0)
(-0.0996545 -0.00228966 0)
(-0.109499 0.00100634 0)
(-0.100706 0.00204265 0)
(-0.0804678 0.00581922 0)
(-0.0757835 -0.0145258 0)
(-0.0247268 -0.00843238 0)
(-0.0104047 -0.00478395 0)
(0.00284094 -0.0101869 0)
(0.00796491 -0.0235806 0)
(0.0392889 -0.0161184 0)
(0.0630083 -0.0135887 0)
(0.0931879 -0.0109298 0)
(0.108397 0.0123003 0)
(0.101571 0.0285566 0)
(0.115051 -0.00280412 0)
(0.0771866 0.0157351 0)
(0.0355983 0.0288584 0)
(0.0457427 0.018079 0)
(0.00322627 0.0266276 0)
(-0.0660864 0.0356777 0)
(-0.0805175 0.00806319 0)
(-0.0981241 -0.00846807 0)
(-0.110768 0.00211896 0)
(-0.0958093 -3.29463e-05 0)
(-0.104358 0.00366941 0)
(-0.0991089 -0.0123228 0)
(-0.0856743 -0.0141538 0)
(-0.0848664 -0.0348886 0)
(-0.0431155 -0.0189588 0)
(-0.0304036 -0.0362324 0)
(-0.0358969 -0.0365055 0)
(-0.0278506 -0.0420524 0)
(0.000411946 -0.030235 0)
(0.0170466 -0.0326702 0)
(0.086594 -0.0256723 0)
(0.0955931 -0.0189603 0)
(0.0967662 0.0241378 0)
(0.106416 0.0202443 0)
(0.0922401 0.0370578 0)
(0.0421501 0.038947 0)
(0.0304703 0.0561393 0)
(-0.00489788 0.0500904 0)
(-0.0772269 0.0287956 0)
(-0.0895883 0.0213589 0)
(-0.0966375 -0.00785457 0)
(-0.10699 0.000312612 0)
(-0.0981096 -0.00418425 0)
(-0.11251 0.000281394 0)
(-0.11292 -0.018435 0)
(-0.0903728 -0.0084433 0)
(-0.0799223 -0.00188582 0)
(-0.0786401 -0.00435849 0)
(-0.0849585 -0.012226 0)
(-0.0786628 -0.0128304 0)
(-0.0696534 -0.00679341 0)
(-0.0486674 -0.0370885 0)
(-0.0266218 -0.0337088 0)
(0.0206834 -0.0327028 0)
(0.0573778 -0.0242539 0)
(0.0757631 -0.00535823 0)
(0.0745545 0.0046281 0)
(0.0791168 0.0562605 0)
(0.0348651 0.096648 0)
(0.0451278 0.0424733 0)
(-0.0251349 0.0656638 0)
(-0.0834291 0.038375 0)
(-0.0945289 0.0120801 0)
(-0.103553 -0.00457298 0)
(-0.111355 0.00285208 0)
(-0.106062 0.000975847 0)
(-0.121914 0.00630634 0)
(-0.105846 -0.0018802 0)
(-0.104566 -0.0296601 0)
(-0.107552 -0.002162 0)
(-0.118857 -0.0181595 0)
(-0.121423 -0.0373905 0)
(-0.0996535 -0.0487863 0)
(-0.10005 -0.0668209 0)
(-0.0781741 -0.0514623 0)
(-0.0537047 -0.0641918 0)
(-0.00528295 -0.0623726 0)
(0.0138183 -0.0354743 0)
(0.0354498 -0.00831758 0)
(0.062974 0.0149486 0)
(0.0903918 0.0232225 0)
(0.00971918 0.0850235 0)
(0.00274575 0.0975429 0)
(-0.021767 0.0769786 0)
(-0.0956209 0.0428604 0)
(-0.106604 0.0297756 0)
(-0.0988662 -0.00337305 0)
(-0.105528 0.00411399 0)
(-0.100845 -0.00172242 0)
(-0.131403 0.00872754 0)
(-0.156714 0.0231321 0)
(-0.139897 0.0116059 0)
(-0.131271 0.00578197 0)
(-0.150786 -0.00681518 0)
(-0.145928 -0.0295757 0)
(-0.137496 -0.0363476 0)
(-0.112107 -0.0625237 0)
(-0.0700803 -0.0587565 0)
(-0.0577943 -0.0674157 0)
(-0.012934 -0.0682241 0)
(0.0125072 -0.0144927 0)
(0.0475673 -0.0433701 0)
(0.0558492 0.0160229 0)
(0.0603781 0.0457479 0)
(0.041806 0.0690514 0)
(0.0464521 0.126423 0)
(-0.0403919 0.0944386 0)
(-0.114242 0.0649696 0)
(-0.134637 0.00863552 0)
(-0.132265 -0.00660488 0)
(-0.136894 0.0004642 0)
(-0.153321 0.00656034 0)
(-0.16055 0.0117096 0)
(-0.165419 0.0110537 0)
(-0.162121 0.0229679 0)
(-0.162811 0.00168404 0)
(-0.154907 -0.00190834 0)
(-0.147891 -0.0128489 0)
(-0.127873 -0.0197271 0)
(-0.11972 -0.0529105 0)
(-0.0844184 -0.0775831 0)
(-0.0466354 -0.0913296 0)
(0.00862384 -0.0917863 0)
(0.0198748 -0.0678957 0)
(0.0565641 -0.0439881 0)
(0.101541 0.0298002 0)
(0.075237 0.0355817 0)
(0.0705269 0.0748476 0)
(0.0457543 0.209803 0)
(-0.0267738 0.115733 0)
(-0.151205 0.111759 0)
(-0.175347 0.0508056 0)
(-0.164375 -0.00946856 0)
(-0.180712 0.0178296 0)
(-0.189244 0.00939316 0)
(-0.192417 0.0159863 0)
(-0.187522 0.0127637 0)
(-0.171236 0.014544 0)
(-0.161843 0.00505514 0)
(-0.152197 -0.0125023 0)
(-0.143786 -0.0430902 0)
(-0.146662 -0.0583836 0)
(-0.123638 -0.066659 0)
(-0.0821702 -0.0944224 0)
(-0.0512567 -0.110784 0)
(0.0170582 -0.10078 0)
(0.0605367 -0.10731 0)
(0.126665 -0.0646575 0)
(0.12452 0.0672894 0)
(0.100862 0.0306699 0)
(0.153494 0.0614667 0)
(0.086001 0.204298 0)
(-0.754054 0.140602 0)
(-0.751532 0.138573 0)
(-1.1893 0.0713678 0)
(-1.55709 0.035028 0)
(-1.70611 -0.0242563 0)
(-1.78744 -0.00194226 0)
(-1.90995 -0.0548587 0)
(-2.02519 -0.0705368 0)
(-2.20885 -0.0393347 0)
(-2.23736 -0.037489 0)
(-2.20606 -0.0470462 0)
(-2.11723 -0.0752062 0)
(-2.07009 -0.0460506 0)
(-1.78381 -0.26556 0)
(-1.59416 -0.260455 0)
(-1.49042 -0.112133 0)
(-0.813254 -0.0470445 0)
(-0.597155 -0.251589 0)
(-0.143577 -0.0389873 0)
(-0.732043 0.236115 0)
(-0.729408 0.325501 0)
(-1.09596 0.253189 0)
(-1.373 0.217278 0)
(-1.47595 0.117786 0)
(-1.60202 0.177609 0)
(-1.69998 0.128398 0)
(-1.75702 0.122901 0)
(-1.86946 0.0907515 0)
(-1.89804 0.0892084 0)
(-1.87802 0.0743015 0)
(-1.73976 0.00602405 0)
(-1.77559 -0.13547 0)
(-1.66677 -0.27167 0)
(-1.42043 -0.507151 0)
(-1.48703 -0.0572861 0)
(-0.899172 0.115806 0)
(-0.576474 -0.298443 0)
(-0.135422 -0.280749 0)
(-0.67823 0.440054 0)
(-0.621277 0.550033 0)
(-0.780934 0.317798 0)
(-0.972821 0.22061 0)
(-1.06306 0.226609 0)
(-1.06652 0.194425 0)
(-1.21702 0.0955628 0)
(-1.2168 0.00392207 0)
(-1.29427 0.00154585 0)
(-1.29704 -0.0301276 0)
(-1.27522 -0.0430354 0)
(-1.06775 -0.27905 0)
(-1.10351 -0.5527 0)
(-1.08711 -0.465425 0)
(-0.991484 -0.792883 0)
(-0.965796 -0.265754 0)
(-0.908446 -0.209618 0)
(-0.41339 -0.213218 0)
(-0.0450746 -0.359027 0)
(-0.583298 0.558493 0)
(-0.458417 0.63787 0)
(-0.533318 0.37859 0)
(-0.628502 0.206287 0)
(-0.774477 0.353249 0)
(-0.684643 0.227326 0)
(-0.74071 0.108264 0)
(-0.659177 0.143136 0)
(-0.633657 0.104964 0)
(-0.751751 0.0778651 0)
(-0.748816 0.0248257 0)
(-0.772842 -0.295351 0)
(-0.70524 -0.595798 0)
(-0.568052 -0.45554 0)
(-0.608456 -0.501041 0)
(-0.596911 -0.179363 0)
(-0.422643 -0.222279 0)
(-0.441302 -0.191772 0)
(0.0283981 -0.490338 0)
(-0.513054 0.649429 0)
(-0.382442 0.733509 0)
(-0.371091 0.375419 0)
(-0.447838 0.137453 0)
(-0.517665 0.275223 0)
(-0.195286 0.029781 0)
(-0.104062 -0.112653 0)
(-0.274089 0.279784 0)
(-0.319127 0.0627944 0)
(-0.305348 0.016046 0)
(-0.21691 -0.0131139 0)
(-0.298568 -0.245956 0)
(-0.141093 -0.497366 0)
(-0.131203 -0.480117 0)
(-0.321755 -0.444962 0)
(-0.506989 -0.262173 0)
(-0.209104 -0.21889 0)
(-0.325055 -0.210957 0)
(0.0491192 -0.55345 0)
(-0.444713 0.76449 0)
(-0.260173 0.751054 0)
(-0.275796 0.393026 0)
(-0.270283 0.258294 0)
(-0.255062 0.222623 0)
(-0.0749076 0.027896 0)
(-0.0517517 -0.0215949 0)
(-0.136548 0.142761 0)
(0.0856489 0.132055 0)
(0.0835346 0.0156128 0)
(0.260379 0.00609963 0)
(0.117408 -0.127006 0)
(0.0849153 -0.310653 0)
(0.0500446 -0.483323 0)
(-0.0775397 -0.382243 0)
(-0.269338 -0.264031 0)
(-0.09305 -0.25606 0)
(-0.171639 -0.238551 0)
(0.0635801 -0.585779 0)
(-0.396762 0.810448 0)
(-0.192236 0.795057 0)
(-0.0579018 0.425536 0)
(-0.0357863 0.351924 0)
(-0.0964608 0.2079 0)
(0.0952023 -0.0350885 0)
(0.100221 -0.0117495 0)
(0.0323791 0.181018 0)
(0.203527 0.111338 0)
(0.372812 -0.0799056 0)
(0.417738 -0.0467604 0)
(0.29681 -0.164062 0)
(0.288504 -0.372762 0)
(0.241168 -0.418528 0)
(0.0581456 -0.392508 0)
(0.0140385 -0.264863 0)
(-0.0325654 -0.220629 0)
(-0.109277 -0.261361 0)
(0.0658413 -0.592829 0)
(-0.368704 0.964823 0)
(-0.0964745 0.750603 0)
(0.0693464 0.31848 0)
(0.109076 0.136954 0)
(0.188988 0.143826 0)
(0.297929 -0.0703511 0)
(0.234102 -0.0471632 0)
(0.236758 0.0781536 0)
(0.307077 -0.110928 0)
(0.442517 -0.0647649 0)
(0.579905 0.0439679 0)
(0.395769 -0.159652 0)
(0.422596 -0.327821 0)
(0.346971 -0.34948 0)
(0.137542 -0.323214 0)
(0.122143 -0.234627 0)
(-0.00623238 -0.189439 0)
(-0.0589168 -0.297186 0)
(0.0625902 -0.579561 0)
(-0.0481255 0.148298 0)
(-0.145283 0.124981 0)
(-0.238122 0.0816954 0)
(-0.219116 0.011989 0)
(-0.182285 0.00246652 0)
(-0.205134 0.0105661 0)
(-0.194039 0.00742306 0)
(-0.185786 -0.00241177 0)
(-0.171968 0.00481048 0)
(-0.162744 -0.0242861 0)
(-0.151281 -0.0340116 0)
(-0.14407 -0.0860102 0)
(-0.119218 -0.108442 0)
(-0.126543 -0.116589 0)
(-0.125225 -0.122375 0)
(-0.0567953 -0.148914 0)
(0.00892528 -0.163263 0)
(0.0787839 -0.0736975 0)
(0.187687 -0.123634 0)
(0.203417 -0.0383862 0)
(0.121463 0.0288307 0)
(0.154379 0.0801761 0)
(0.160459 0.114589 0)
(-0.0586076 0.207558 0)
(-0.205236 0.184548 0)
(-0.216717 0.112407 0)
(-0.203026 0.125837 0)
(-0.178304 0.0488855 0)
(-0.162929 0.022016 0)
(-0.17438 0.0154838 0)
(-0.157506 -0.00749365 0)
(-0.158867 0.00355699 0)
(-0.160993 -0.0206264 0)
(-0.171059 -0.00677574 0)
(-0.196821 -0.0849138 0)
(-0.194462 -0.0870385 0)
(-0.17834 -0.144999 0)
(-0.118033 -0.158537 0)
(-0.109372 -0.237778 0)
(-0.00252962 -0.227926 0)
(0.0173634 -0.201771 0)
(-0.02005 -0.143724 0)
(0.182592 0.0360107 0)
(0.106893 0.170242 0)
(0.0428945 0.0503921 0)
(0.0978667 0.0080567 0)
(-0.0795863 0.281753 0)
(-0.177089 0.220265 0)
(-0.191373 0.202059 0)
(-0.166207 0.129017 0)
(-0.230232 0.105433 0)
(-0.234472 -0.000941697 0)
(-0.202747 -0.0112398 0)
(-0.147919 -0.0212233 0)
(-0.1373 0.00645039 0)
(-0.13337 0.00490131 0)
(-0.256863 -0.00379481 0)
(-0.298304 0.0274193 0)
(-0.23517 -0.0432189 0)
(-0.329089 -0.0927067 0)
(-0.337422 -0.203954 0)
(-0.394918 -0.233947 0)
(-0.42523 -0.290418 0)
(-0.356887 -0.258855 0)
(-0.243115 -0.16285 0)
(-0.416862 -0.0870399 0)
(-0.426962 0.030833 0)
(-0.272283 0.0938292 0)
(-0.25918 0.203066 0)
(-0.0778608 0.344578 0)
(-0.12803 0.241836 0)
(-0.161114 0.155348 0)
(-0.10383 0.0242752 0)
(-0.194039 -0.0595543 0)
(-0.258862 0.0183899 0)
(-0.0816609 -0.0088009 0)
(-0.0677255 0.132999 0)
(-0.0672669 0.0341552 0)
(-0.161879 0.0581435 0)
(-0.148539 -0.0491689 0)
(-0.406698 0.114569 0)
(-0.395524 -0.0279778 0)
(-0.323047 -0.11442 0)
(-0.451104 -0.06437 0)
(-0.652004 -0.234469 0)
(-0.696001 -0.295212 0)
(-0.72443 -0.174224 0)
(-0.776349 -0.135597 0)
(-0.787919 -0.0301488 0)
(-0.765224 0.150355 0)
(-0.702029 0.215801 0)
(-0.602528 0.308441 0)
(-0.0620169 0.482656 0)
(-0.110898 0.285179 0)
(-0.149617 0.176141 0)
(-0.0188392 0.141192 0)
(-0.063018 -0.0075023 0)
(-0.0677948 -0.173884 0)
(-0.0536722 -0.272347 0)
(-0.145617 0.00103448 0)
(-0.144147 0.165104 0)
(-0.212459 0.23001 0)
(-0.206367 0.171508 0)
(-0.273351 0.105963 0)
(-0.356338 0.16883 0)
(-0.257816 0.10023 0)
(-0.658892 0.00938024 0)
(-0.889227 -0.0850326 0)
(-0.729239 -0.122015 0)
(-0.695953 -0.15914 0)
(-0.830827 -0.0686376 0)
(-0.883575 -0.111332 0)
(-0.844467 -0.130868 0)
(-0.750491 0.142361 0)
(-0.760523 0.262836 0)
(-0.0498112 0.518902 0)
(-0.135607 0.339823 0)
(-0.0883799 0.132065 0)
(0.0311137 -0.0219653 0)
(-0.0799042 0.0573982 0)
(-0.353966 0.166878 0)
(-0.744059 0.256322 0)
(-0.851521 0.209535 0)
(-0.886138 0.173201 0)
(-0.873738 0.148063 0)
(-0.853217 0.140175 0)
(-0.793204 0.105308 0)
(-0.766649 0.0775963 0)
(-0.702995 0.0553873 0)
(-0.698932 -0.0293767 0)
(-0.749488 0.00623145 0)
(-0.821614 0.0724068 0)
(-0.753555 -0.0368228 0)
(-1.16841 -0.105465 0)
(-1.4274 -0.0523178 0)
(-1.0399 0.00223365 0)
(-0.912083 0.0298946 0)
(-0.980588 0.142248 0)
(-0.00792777 0.595152 0)
(-0.162221 0.323965 0)
(-0.211375 0.100515 0)
(-0.550467 0.14464 0)
(-0.915971 0.394387 0)
(-1.1083 0.385889 0)
(-1.15686 0.213765 0)
(-1.14126 0.13006 0)
(-1.15497 0.0953955 0)
(-1.06209 0.0578312 0)
(-1.0264 0.0430185 0)
(-0.994288 0.0372182 0)
(-0.923941 0.0270345 0)
(-0.893066 0.0247886 0)
(-0.883302 -0.000674305 0)
(-0.876451 -0.00794914 0)
(-0.887317 0.127822 0)
(-1.00826 -0.111594 0)
(-1.09164 -0.274136 0)
(-1.31989 0.0399081 0)
(-1.28948 0.210295 0)
(-1.21576 0.0995809 0)
(-1.18393 -0.0116267 0)
(-0.07968 0.689793 0)
(-0.261228 0.517251 0)
(-0.290987 0.489337 0)
(-0.832036 0.61698 0)
(-1.04776 0.659715 0)
(-1.15066 0.435316 0)
(-1.1533 0.25467 0)
(-1.21143 0.185437 0)
(-1.26493 0.140775 0)
(-1.23056 0.046674 0)
(-1.24029 0.0065059 0)
(-1.21262 -0.0219161 0)
(-1.17877 -0.0160626 0)
(-1.11607 -0.0230104 0)
(-1.08734 -0.0184398 0)
(-0.992637 -0.00166544 0)
(-1.30037 0.0877787 0)
(-1.56838 0.131035 0)
(-1.19839 0.116352 0)
(-1.08258 0.151412 0)
(-1.14228 0.248412 0)
(-1.14456 0.010879 0)
(-1.07112 -0.0907874 0)
(-0.129314 0.928238 0)
(-0.193703 0.904962 0)
(-0.37744 0.792792 0)
(-0.830686 0.916271 0)
(-0.987383 0.692917 0)
(-1.06904 0.473069 0)
(-1.10737 0.304497 0)
(-1.27754 0.248661 0)
(-1.33874 0.116325 0)
(-1.32193 0.0388469 0)
(-1.34161 0.00773973 0)
(-1.32254 -0.0467116 0)
(-1.32677 -0.0762457 0)
(-1.29568 -0.138457 0)
(-1.28817 -0.169911 0)
(-1.19074 -0.159975 0)
(-1.15171 -0.241635 0)
(-1.15319 0.0644587 0)
(-1.06186 0.18832 0)
(-0.906213 0.116238 0)
(-1.08727 0.0538762 0)
(-1.24471 -0.0317185 0)
(-0.854682 -0.107014 0)
(-0.109966 1.02427 0)
(-0.202656 1.12378 0)
(-0.589969 1.17632 0)
(-0.85723 1.19399 0)
(-0.826667 0.914355 0)
(-0.677965 0.628448 0)
(-0.860632 0.45316 0)
(-1.03441 0.376995 0)
(-1.04328 0.182413 0)
(-1.10974 0.091982 0)
(-1.25187 0.0540755 0)
(-1.26779 -0.0218429 0)
(-1.32256 -0.118981 0)
(-1.3429 -0.160619 0)
(-1.34243 -0.18863 0)
(-1.2469 -0.161518 0)
(-1.23424 -0.176526 0)
(-1.09791 -0.0697344 0)
(-1.03008 -0.0125971 0)
(-0.887424 -0.0693041 0)
(-0.870219 -0.214583 0)
(-0.837223 -0.011453 0)
(-0.827588 0.0770886 0)
(-0.113477 1.24118 0)
(-0.103814 1.69983 0)
(-0.425753 1.35109 0)
(-0.622097 1.3398 0)
(-0.607457 1.11462 0)
(-0.683835 0.638538 0)
(-0.532778 0.587461 0)
(-0.542461 0.460265 0)
(-0.740785 0.269019 0)
(-0.741318 0.347497 0)
(-0.658636 0.222564 0)
(-0.456254 -0.00695147 0)
(-0.381085 -0.0999618 0)
(-0.371223 -0.117634 0)
(-0.515843 -0.0331002 0)
(-0.777549 -0.178946 0)
(-0.914893 -0.221949 0)
(-0.940375 -0.167871 0)
(-0.961242 -0.177952 0)
(-0.829587 -0.186764 0)
(-0.785036 -0.257633 0)
(-0.732651 -0.257864 0)
(-0.653122 -0.211328 0)
(0.115704 1.30803 0)
(-0.185904 1.61728 0)
(-0.472589 1.3816 0)
(-0.437608 1.27143 0)
(-0.533364 0.987009 0)
(-0.636059 0.519447 0)
(-0.23674 0.470255 0)
(-0.348759 0.41307 0)
(-0.613478 0.348251 0)
(-0.61999 0.390344 0)
(-0.497964 -0.17094 0)
(-0.281522 -0.268028 0)
(-0.275214 -0.16375 0)
(-0.245924 -0.0219974 0)
(-0.21969 0.173783 0)
(-0.175162 0.179845 0)
(-0.187599 0.045086 0)
(-0.154811 -0.0159725 0)
(-0.1973 0.0461419 0)
(-0.239365 -0.0621993 0)
(-0.307949 -0.175934 0)
(-0.350032 -0.215201 0)
(-0.378459 -0.129914 0)
(0.0652276 1.31109 0)
(-0.184759 1.42685 0)
(-0.367092 1.43529 0)
(-0.277733 1.31501 0)
(-0.454458 0.721688 0)
(-0.401545 0.398552 0)
(-0.136946 0.499621 0)
(-0.235724 0.517999 0)
(-0.315764 0.474148 0)
(-0.385193 0.330594 0)
(-0.286407 -0.181403 0)
(-0.330133 -0.237881 0)
(-0.361546 -0.134445 0)
(-0.346248 -0.116118 0)
(-0.318643 -0.0520933 0)
(-0.205524 -0.179967 0)
(-0.236121 -0.184799 0)
(-0.297012 -0.150488 0)
(-0.248185 -0.109821 0)
(-0.244309 -0.0946554 0)
(-0.305721 -0.0712023 0)
(-0.331318 -0.116717 0)
(-0.334777 -0.181096 0)
(0.0430208 1.34486 0)
(-0.149891 1.50296 0)
(-0.226904 1.46799 0)
(-0.209044 1.34991 0)
(-0.264055 0.731526 0)
(-0.069111 0.491339 0)
(0.0646271 0.426854 0)
(0.0377125 0.918569 0)
(-0.120727 0.677246 0)
(-0.286685 0.34026 0)
(-0.271185 -0.188632 0)
(-0.436199 -0.221097 0)
(-0.451277 -0.193423 0)
(-0.469353 -0.279508 0)
(-0.365294 -0.114708 0)
(-0.325802 -0.0586456 0)
(-0.387435 -0.0788064 0)
(-0.5849 -0.0313793 0)
(-0.647569 -0.0777901 0)
(-0.642718 -0.155754 0)
(-0.555919 -0.254142 0)
(-0.456295 -0.218215 0)
(-0.409086 -0.255646 0)
(0.0110841 1.37688 0)
(-0.143358 1.51705 0)
(-0.112482 1.40208 0)
(-0.0714176 1.38951 0)
(0.0687949 0.784603 0)
(0.108714 0.499601 0)
(0.193668 0.45672 0)
(0.318009 0.76304 0)
(0.0405133 0.852331 0)
(-0.191789 0.497204 0)
(-0.377956 -0.0627841 0)
(-0.524642 -0.098705 0)
(-0.355179 -0.205896 0)
(-0.311803 -0.256816 0)
(-0.189337 -0.203479 0)
(-0.135061 -0.0509278 0)
(-0.0697968 0.065776 0)
(-0.0736857 0.118221 0)
(-0.0230428 0.0614869 0)
(-0.0304133 -0.0593969 0)
(-0.0443871 -0.140407 0)
(-0.0714237 -0.10983 0)
(-0.133077 -0.0671246 0)
(0.00219137 1.41215 0)
(-0.129185 1.54108 0)
(-0.0378685 1.4292 0)
(0.0761242 1.24749 0)
(0.226083 0.576829 0)
(0.246358 0.211559 0)
(0.326591 0.263851 0)
(0.544309 0.605778 0)
(0.26178 0.911366 0)
(0.0161265 0.590507 0)
(-0.0706055 0.0316538 0)
(-0.222131 0.0977669 0)
(-0.245697 -0.155853 0)
(-0.244928 -0.247945 0)
(-0.260398 -0.127218 0)
(-0.195819 -0.172329 0)
(-0.106242 -0.0997012 0)
(-0.0621694 -0.0622033 0)
(0.0264237 -0.127527 0)
(0.0210584 -0.165765 0)
(0.0200987 -0.185 0)
(0.00189082 -0.140717 0)
(-0.107366 -0.0620031 0)
(0.0166115 1.4602 0)
(-0.0980475 1.54243 0)
(-0.105307 1.4197 0)
(0.169012 1.23262 0)
(0.665033 0.649287 0)
(0.480064 0.295892 0)
(0.53798 0.301373 0)
(0.814935 0.687123 0)
(0.449898 1.02331 0)
(0.0935337 0.800811 0)
(0.0466953 0.489248 0)
(-0.181173 0.155581 0)
(-0.117463 -0.325043 0)
(-0.200687 -0.45557 0)
(-0.0936454 -0.41459 0)
(-0.156838 -0.266291 0)
(-0.0422248 -0.239644 0)
(-0.0544745 -0.174875 0)
(0.0756594 -0.157479 0)
(0.0688477 -0.174512 0)
(0.0504939 -0.159251 0)
(0.0540784 -0.161154 0)
(0.127515 -0.108964 0)
(-0.0021507 1.48135 0)
(-0.0335935 1.52623 0)
(-0.0675474 1.34588 0)
(0.254247 1.23412 0)
(0.527054 0.52738 0)
(0.44873 0.30073 0)
(0.577575 0.422204 0)
(0.86516 0.751562 0)
(0.559509 1.04318 0)
(0.301219 0.944354 0)
(0.195189 0.553682 0)
(-0.494876 -0.0550339 0)
(-0.197716 -0.365237 0)
(-0.00192636 -0.425346 0)
(0.062991 -0.503909 0)
(0.0284567 -0.405881 0)
(0.0794413 -0.157158 0)
(0.0910471 -0.138903 0)
(0.146211 -0.115503 0)
(0.10888 -0.114819 0)
(0.121594 -0.1498 0)
(0.163686 -0.147869 0)
(0.164816 -0.19263 0)
(-0.00538849 1.51221 0)
(-0.0269847 1.53425 0)
(0.0676075 1.1902 0)
(0.299116 0.87903 0)
(0.0829419 0.12831 0)
(0.408483 0.199433 0)
(0.644265 0.50704 0)
(0.675718 0.800283 0)
(0.473378 1.14387 0)
(0.659636 1.20618 0)
(0.714079 0.940917 0)
(0.366924 0.43719 0)
(0.341315 -0.18238 0)
(0.26897 -0.305597 0)
(0.15627 -0.47467 0)
(0.202643 -0.238893 0)
(0.225852 -0.168508 0)
(0.100099 -0.0972917 0)
(0.139831 -0.096085 0)
(0.138728 -0.0955201 0)
(0.145075 -0.12288 0)
(0.118291 -0.166346 0)
(0.141409 -0.18121 0)
(-0.0031869 1.53897 0)
(-0.0215224 1.56489 0)
(0.164008 0.879587 0)
(0.306075 0.540992 0)
(0.366334 0.159283 0)
(0.560941 0.182626 0)
(0.579067 0.323339 0)
(0.505183 0.770407 0)
(0.560166 1.5792 0)
(0.77505 1.71915 0)
(0.703229 1.07011 0)
(0.252251 0.331537 0)
(0.458481 -0.211883 0)
(0.407047 -0.352083 0)
(0.318701 -0.346695 0)
(0.316935 -0.206256 0)
(0.190986 -0.203415 0)
(0.190338 -0.172815 0)
(0.212621 -0.149209 0)
(0.185001 -0.11869 0)
(0.162233 -0.118173 0)
(0.186326 -0.148503 0)
(0.206522 -0.139018 0)
(0.0284945 1.57919 0)
(-0.0496792 1.56425 0)
(0.164366 0.849276 0)
(0.438125 0.61481 0)
(0.316181 0.263529 0)
(0.415803 0.151541 0)
(0.414179 0.303859 0)
(0.638538 0.72506 0)
(0.719794 1.45599 0)
(0.597918 1.49133 0)
(0.477259 0.940672 0)
(0.368706 0.232205 0)
(0.544035 -0.0486466 0)
(0.375549 -0.260551 0)
(0.360701 -0.106455 0)
(0.323172 -0.189805 0)
(0.197319 -0.113805 0)
(0.190136 -0.0995929 0)
(0.240916 -0.104436 0)
(0.242521 -0.152367 0)
(0.184861 -0.171031 0)
(0.156514 -0.192287 0)
(0.200578 -0.195267 0)
(0.0139378 1.58673 0)
(-0.0236434 1.53698 0)
(0.150484 0.957465 0)
(0.23697 0.578892 0)
(0.0842021 0.118607 0)
(0.300224 0.147197 0)
(0.392642 0.33034 0)
(0.390007 0.684963 0)
(0.512975 1.14782 0)
(0.382833 0.898667 0)
(0.4912 0.606556 0)
(0.629263 0.254558 0)
(0.453112 -0.0206579 0)
(0.489154 -0.129539 0)
(0.435388 -0.0633001 0)
(0.251327 -0.153735 0)
(0.239171 -0.088761 0)
(0.19928 -0.0790252 0)
(0.202289 -0.0569039 0)
(0.170499 -0.145813 0)
(0.178189 -0.175416 0)
(0.238014 -0.158793 0)
(0.258739 -0.211837 0)
(-0.00109965 1.60575 0)
(-0.0158057 1.39068 0)
(0.192324 0.798746 0)
(0.101748 0.503728 0)
(0.0625971 0.113886 0)
(0.132194 0.191042 0)
(0.11633 0.2146 0)
(0.0392433 0.394076 0)
(0.279352 0.867861 0)
(0.307586 0.882387 0)
(0.453735 0.616238 0)
(0.48131 0.297485 0)
(0.418203 0.0813796 0)
(0.332745 0.0587559 0)
(0.251368 -0.114659 0)
(0.228334 -0.0595393 0)
(0.247055 -0.055548 0)
(0.23986 -0.0594726 0)
(0.212171 -0.0687091 0)
(0.179072 -0.119321 0)
(0.213981 -0.102681 0)
(0.174618 -0.110978 0)
(0.228519 -0.174708 0)
(-0.106749 1.64288 0)
(-0.0319982 1.46058 0)
(0.480423 0.995226 0)
(0.140064 0.583432 0)
(0.122948 0.079996 0)
(-0.0570439 0.161536 0)
(-0.053799 0.318742 0)
(-0.151738 0.467236 0)
(-0.0750882 0.77253 0)
(0.0425485 0.65814 0)
(0.249024 0.559424 0)
(0.268049 0.211927 0)
(0.194235 0.179701 0)
(0.219215 0.0729816 0)
(0.219941 0.0331227 0)
(0.165274 0.0335448 0)
(0.170431 -0.0671868 0)
(0.162169 -0.0737984 0)
(0.157611 -0.122348 0)
(0.194379 -0.172595 0)
(0.231688 -0.164601 0)
(0.216149 -0.167908 0)
(0.262769 -0.189084 0)
(-0.0949422 1.69653 0)
(-0.0429627 1.66099 0)
(0.268144 1.02841 0)
(-0.0492098 0.683638 0)
(0.141546 0.199879 0)
(-0.210344 0.354659 0)
(-0.0802843 0.446238 0)
(-0.132576 0.571417 0)
(-0.178839 0.765285 0)
(0.00715962 0.627457 0)
(0.0231893 0.58713 0)
(-0.0421014 0.419196 0)
(0.119709 0.285221 0)
(-0.0272151 0.0744979 0)
(0.0486876 0.0179484 0)
(0.0256969 0.0139958 0)
(0.0728503 -0.057668 0)
(0.119378 -0.0409694 0)
(0.0957845 -0.117165 0)
(0.177218 -0.164652 0)
(0.233602 -0.106061 0)
(0.18639 -0.11461 0)
(0.324479 -0.136792 0)
(-0.0790062 1.70723 0)
(-0.0294756 1.5398 0)
(0.2187 0.967919 0)
(-0.109999 0.652777 0)
(0.152571 0.258122 0)
(-0.0982857 0.55778 0)
(-0.206 0.821488 0)
(-0.233428 0.985923 0)
(-0.275565 0.724838 0)
(-0.242959 0.62532 0)
(-0.0990846 0.404111 0)
(-0.156289 0.378592 0)
(-0.188375 0.0747449 0)
(-0.0958084 0.0393078 0)
(-0.0431949 -0.0201546 0)
(-0.019788 -0.0010341 0)
(0.0352041 -0.118842 0)
(0.0338945 -0.197911 0)
(0.0766059 -0.172413 0)
(0.212004 -0.132559 0)
(0.27407 -0.199243 0)
(0.213124 -0.244917 0)
(0.215067 -0.185168 0)
(-0.0810366 1.74385 0)
(0.0297056 1.32359 0)
(0.0676387 1.03601 0)
(-0.0802927 0.767744 0)
(0.343997 0.632835 0)
(-0.0861761 0.739133 0)
(-0.141706 0.98212 0)
(-0.42031 0.873125 0)
(-0.544121 0.670437 0)
(-0.322461 0.492952 0)
(-0.25338 0.411336 0)
(-0.369797 0.296201 0)
(-0.21997 0.0641798 0)
(-0.11635 0.0115131 0)
(-0.116762 0.0477743 0)
(-0.121058 -0.0760679 0)
(-0.0638784 -0.0956036 0)
(0.0182319 -0.226955 0)
(0.125069 -0.219619 0)
(0.120593 -0.270708 0)
(0.121228 -0.326834 0)
(0.186138 -0.301094 0)
(0.174546 -0.157931 0)
(-0.0710174 1.86046 0)
(0.119483 1.31926 0)
(0.0949399 1.16981 0)
(-0.101856 1.10394 0)
(0.0781454 0.608574 0)
(-0.21435 1.0117 0)
(-0.265789 1.08232 0)
(-0.420775 0.905219 0)
(-0.517264 0.792531 0)
(-0.306036 0.653237 0)
(-0.289166 0.469058 0)
(-0.432125 0.226539 0)
(-0.377566 0.0615328 0)
(-0.282599 -0.0851925 0)
(-0.198013 -0.0244875 0)
(-0.185791 -0.166172 0)
(-0.0862463 -0.169996 0)
(-0.0629638 -0.2051 0)
(0.0477133 -0.259755 0)
(0.0765357 -0.262598 0)
(0.186205 -0.275308 0)
(0.321244 -0.339187 0)
(0.262948 -0.271543 0)
(-0.0529542 1.8465 0)
(0.191863 1.19758 0)
(-0.0500822 1.23006 0)
(-0.0714467 0.991775 0)
(-0.0360759 0.686542 0)
(-0.28797 1.12359 0)
(-0.229911 1.19286 0)
(-0.376051 0.9277 0)
(-0.443398 1.33597 0)
(-0.458622 1.06821 0)
(-0.484116 0.560361 0)
(-0.517137 0.224724 0)
(-0.46815 -0.0728537 0)
(-0.345948 -0.190907 0)
(-0.300392 -0.20833 0)
(-0.237939 -0.145323 0)
(-0.0456282 -0.280346 0)
(-0.039215 -0.290125 0)
(0.0724284 -0.303526 0)
(0.0618336 -0.237909 0)
(0.043209 -0.341961 0)
(0.213735 -0.328874 0)
(0.339084 -0.359948 0)
(0.0838645 2.00995 0)
(0.46245 1.46832 0)
(0.0642946 1.37276 0)
(0.0150106 1.05336 0)
(-0.00420956 0.807819 0)
(-0.34123 1.29353 0)
(-0.347942 1.40691 0)
(-0.143351 1.07582 0)
(-0.171017 1.28061 0)
(-0.643918 0.819691 0)
(-0.612472 0.448086 0)
(-0.55179 0.106529 0)
(-0.526867 -0.218314 0)
(-0.39699 -0.343457 0)
(-0.26666 -0.296629 0)
(-0.192469 -0.284005 0)
(-0.0635782 -0.328317 0)
(-0.0651251 -0.349583 0)
(0.0314853 -0.323821 0)
(0.027203 -0.226469 0)
(0.104514 -0.284354 0)
(0.227911 -0.226641 0)
(0.334521 -0.306631 0)
(-0.013149 2.44866 0)
(0.238897 1.71776 0)
(-0.0708846 1.5453 0)
(-0.000983113 1.16444 0)
(-0.0729077 1.0398 0)
(-0.223375 1.4401 0)
(-0.229569 1.56616 0)
(-0.24199 1.31301 0)
(-0.232763 1.13106 0)
(-0.538932 0.825451 0)
(-0.466116 0.570107 0)
(-0.270282 0.210068 0)
(-0.350672 -0.284238 0)
(-0.246411 -0.438706 0)
(-0.274596 -0.450223 0)
(-0.232672 -0.555493 0)
(0.013891 -0.429003 0)
(-0.00719395 -0.425945 0)
(0.0973709 -0.372441 0)
(0.0685395 -0.42364 0)
(0.0930838 -0.232709 0)
(0.169847 -0.289224 0)
(0.382808 -0.457255 0)
(-0.0557661 2.37981 0)
(0.0243913 1.64237 0)
(-0.155006 1.65349 0)
(-0.106252 1.13914 0)
(-0.123982 1.25563 0)
(-0.218381 1.44501 0)
(-0.217622 1.53096 0)
(-0.246246 1.26073 0)
(-0.0591538 1.01398 0)
(-0.270689 0.716625 0)
(-0.0454248 1.00891 0)
(-0.171354 0.53417 0)
(-0.239418 -0.15757 0)
(-0.0683014 -0.49734 0)
(-0.238213 -0.531837 0)
(-0.0359907 -0.496125 0)
(0.0901574 -0.405694 0)
(0.0372276 -0.425455 0)
(0.0546605 -0.402285 0)
(0.154215 -0.468474 0)
(0.253809 -0.406637 0)
(0.071092 -0.448427 0)
(0.192266 -0.411167 0)
(-0.0397104 2.40356 0)
(-0.0109098 1.71248 0)
(-0.265776 1.72368 0)
(-0.261971 1.29344 0)
(-0.222187 1.32984 0)
(-0.268668 1.44294 0)
(-0.272302 1.41826 0)
(-0.335841 1.30532 0)
(-0.00721207 1.14879 0)
(0.240017 0.973719 0)
(0.391833 0.699358 0)
(0.065694 0.393849 0)
(0.110555 -0.176448 0)
(0.210421 -0.413856 0)
(0.0180662 -0.411723 0)
(0.0869774 -0.493436 0)
(0.107075 -0.603462 0)
(0.0234234 -0.414786 0)
(0.0708543 -0.37402 0)
(0.106657 -0.366994 0)
(0.127359 -0.398243 0)
(0.203472 -0.430382 0)
(0.301269 -0.344668 0)
(-0.0387741 2.4921 0)
(-0.0258234 1.85291 0)
(-0.244502 1.88252 0)
(-0.258651 1.43337 0)
(-0.413043 1.36193 0)
(-0.371788 1.3635 0)
(-0.269116 1.23771 0)
(-0.195981 1.25434 0)
(0.0555223 1.20728 0)
(0.134283 1.03918 0)
(0.299471 0.569643 0)
(0.192443 0.251221 0)
(0.416182 -0.086729 0)
(0.390548 -0.417976 0)
(0.17738 -0.567022 0)
(0.0143088 -0.580602 0)
(0.229287 -0.630595 0)
(0.226774 -0.532263 0)
(0.10335 -0.452755 0)
(0.16092 -0.437124 0)
(0.190211 -0.311198 0)
(0.163875 -0.312619 0)
(0.22803 -0.400248 0)
(-0.0445528 2.64356 0)
(-0.0412008 2.0491 0)
(-0.212281 2.19346 0)
(-0.267225 1.73977 0)
(-0.460374 1.46072 0)
(-0.404512 1.27331 0)
(-0.290262 0.954058 0)
(-0.171946 0.83103 0)
(0.0318059 0.857085 0)
(0.165623 0.795858 0)
(0.31126 0.502641 0)
(0.320223 0.230837 0)
(0.405037 0.0426902 0)
(0.383886 -0.28709 0)
(0.343659 -0.538471 0)
(0.260139 -0.55736 0)
(0.238454 -0.508041 0)
(0.199868 -0.574059 0)
(0.175639 -0.456663 0)
(0.199737 -0.403125 0)
(0.236679 -0.346468 0)
(0.149102 -0.487261 0)
(0.20084 -0.415162 0)
(-0.038782 2.73484 0)
(-0.0459921 2.07457 0)
(-0.163396 2.36464 0)
(-0.143886 2.01458 0)
(-0.306096 1.59663 0)
(-0.24528 1.13916 0)
(-0.139445 0.721852 0)
(-0.096192 0.596498 0)
(0.0967853 0.520917 0)
(0.10821 0.482324 0)
(0.16169 0.415697 0)
(0.268938 0.184526 0)
(0.584501 -0.13529 0)
(0.470665 -0.28361 0)
(0.295384 -0.408967 0)
(0.135187 -0.476736 0)
(0.17462 -0.483761 0)
(0.266402 -0.465622 0)
(0.231549 -0.502365 0)
(0.199606 -0.382769 0)
(0.081156 -0.463169 0)
(0.144574 -0.499226 0)
(0.269121 -0.536843 0)
(-0.0318688 2.77869 0)
(-0.0515653 2.06712 0)
(-0.119278 2.39686 0)
(-0.0782095 2.01594 0)
(-0.16137 1.62434 0)
(-0.0977973 1.02458 0)
(-0.0859998 0.637252 0)
(-0.0963623 0.466954 0)
(-0.00540025 0.488051 0)
(0.0467635 0.209417 0)
(0.158708 0.296909 0)
(0.300569 0.198583 0)
(0.490112 -0.0603863 0)
(0.21917 -0.254703 0)
(0.155976 -0.506207 0)
(0.22373 -0.448569 0)
(0.219488 -0.424548 0)
(0.164835 -0.401892 0)
(0.196387 -0.474998 0)
(0.246588 -0.528271 0)
(0.119247 -0.571473 0)
(0.110863 -0.464893 0)
(0.168388 -0.60931 0)
(-0.052719 2.82495 0)
(-0.0959835 2.11392 0)
(-0.145979 2.36347 0)
(-0.0804115 2.01773 0)
(-0.124098 1.62225 0)
(-0.103084 0.960351 0)
(-0.147053 0.632756 0)
(-0.181077 0.473063 0)
(-0.131321 0.375987 0)
(-0.0629288 0.230695 0)
(0.0485172 0.191109 0)
(0.403368 0.197447 0)
(0.507609 -0.14108 0)
(0.236757 -0.3349 0)
(0.227547 -0.369795 0)
(0.234232 -0.377205 0)
(0.203324 -0.425748 0)
(0.214627 -0.524089 0)
(0.11011 -0.447042 0)
(0.132586 -0.575874 0)
(0.204902 -0.545777 0)
(0.139193 -0.507384 0)
(0.085533 -0.486775 0)
(-0.0515357 3.00033 0)
(-0.177544 2.35525 0)
(-0.243871 2.36082 0)
(-0.19382 1.95452 0)
(-0.208332 1.62995 0)
(-0.221124 1.12738 0)
(-0.326962 0.848929 0)
(-0.27061 0.406369 0)
(-0.172893 0.149751 0)
(-0.0782061 0.131037 0)
(0.00272996 0.0578654 0)
(0.313476 0.0347055 0)
(0.224565 -0.357412 0)
(0.191682 -0.365195 0)
(0.318537 -0.409028 0)
(0.233932 -0.480504 0)
(0.0359148 -0.425027 0)
(0.128447 -0.483376 0)
(0.18444 -0.481703 0)
(0.135639 -0.444011 0)
(0.225183 -0.538872 0)
(0.123487 -0.529186 0)
(0.0991085 -0.554841 0)
(-0.0639352 3.19945 0)
(-0.327996 2.58893 0)
(-0.483973 2.41463 0)
(-0.521356 1.94269 0)
(-0.52094 1.57754 0)
(-0.602156 1.05106 0)
(-0.583026 0.722204 0)
(-0.453881 0.165903 0)
(-0.313402 0.00223275 0)
(-0.112985 0.0544511 0)
(-0.0530272 -0.0405158 0)
(0.161505 -0.0477679 0)
(0.174309 -0.256763 0)
(0.205586 -0.20771 0)
(0.222497 -0.427568 0)