/*--------------------------------*- C++ -*----------------------------------*\
| =========                 |                                                 |
| \\      /  F ield         | foam-extend: Open Source CFD                    |
|  \\    /   O peration     | Version:     4.1                                |
|   \\  /    A nd           | Web:         http://www.foam-extend.org         |
|    \\/     M anipulation  |                                                 |
\*---------------------------------------------------------------------------*/
FoamFile
{
    version     2.0;
    format      ascii;
    class       volScalarField;
    location    "0.15";
    object      pd;
}
// * * * * * * * * * * * * * * * * * * * * * * * * * * * * * * * * * * * * * //

dimensions      [1 -1 -2 0 0 0 0];

internalField   nonuniform List<scalar> 
2268
(
2534.41
2531.29
2534.63
2523.43
2531.47
2504.91
2515.87
2503.98
2485.78
2532.34
2497.29
2753.18
2632.91
2640.89
2659.25
2710.74
2796.37
2871.84
2965.29
3225.96
3554.79
3824.53
3945.99
2533.1
2530.14
2533.11
2522.54
2529.76
2503.74
2514.59
2502.58
2484.71
2538.02
2492.15
2711.17
2617.98
2627.68
2649.22
2700.9
2790.34
2873.2
2967.96
3199.64
3528.67
3799.6
3907.57
2530.4
2527.81
2530.13
2520.67
2526.54
2502.23
2510.88
2495.87
2476.29
2517.17
2563.59
2642.71
2590.18
2608.95
2625.87
2671.77
2757.53
2865.77
2969.54
3167.38
3495.61
3771.39
3807.56
2526.49
2524.33
2525.62
2518.09
2521.45
2498.14
2509.04
2486.64
2471.24
2583.49
2542.9
2590.29
2573.44
2585.48
2608.73
2654.56
2714.61
2837.87
2951.68
3096.61
3421.83
3709.69
3647.48
2521.08
2519.63
2519.81
2514.15
2514.85
2495.52
2499.24
2497.68
2453.91
2562.5
2527.15
2564.48
2542.14
2554.06
2573.34
2613.34
2672.51
2774.01
2933.36
3031.04
3345.02
3636.17
3393.02
2514.71
2513.76
2512.44
2509.93
2508.14
2489.64
2484.43
2459.64
2509.98
2529.65
2506.68
2530.76
2512.46
2514.86
2532.56
2578.32
2617.74
2693.73
2843.65
2982.03
3218.46
3469.29
3173.84
2506.48
2506.47
2504.26
2502.52
2496.83
2477.4
2498.89
2438.38
2504.83
2497.04
2481.23
2496.23
2477.13
2474.9
2487.6
2520.07
2545.82
2604.85
2762.89
2867.51
3074.55
3195.36
2856.68
2498.5
2498.41
2493.74
2489.89
2478.08
2482.01
2457.14
2461.32
2479.79
2468.68
2455.61
2457.48
2440.58
2426.48
2434.16
2460.34
2467.28
2505.37
2625.59
2716.63
2897.96
2755.21
2411.44
1.50751
1.41851
1.25817
1.0798
0.949433
0.824396
0.71852
0.630823
0.553918
0.496203
0.44709
0.416589
0.36061
0.362197
0.333526
0.338195
0.334289
0.330837
0.329446
1.5264
1.44391
1.25936
1.07598
0.943899
0.816529
0.712161
0.624442
0.549433
0.492573
0.444791
0.413985
0.361559
0.348282
0.337577
0.337398
0.333222
0.330461
0.329083
1.5638
1.45822
1.26588
1.06427
0.938858
0.802528
0.700516
0.612385
0.539399
0.484636
0.438686
0.404937
0.36026
0.351605
0.336244
0.335293
0.331956
0.329652
0.328292
1.60685
1.48395
1.27189
1.04116
0.917774
0.777846
0.679272
0.593503
0.524744
0.47018
0.428788
0.376773
0.355934
0.345774
0.334911
0.332504
0.330291
0.32852
0.326988
1.67643
1.51627
1.279
1.00959
0.909408
0.747062
0.653417
0.568609
0.506085
0.459437
0.40911
0.378335
0.345716
0.334333
0.332974
0.32958
0.327692
0.327019
0.324691
1.75978
1.54581
1.28714
0.983209
0.864623
0.704251
0.614566
0.537297
0.481304
0.431161
0.403504
0.366096
0.338532
0.332265
0.330614
0.326767
0.324859
0.324089
0.322412
1.83536
1.56761
1.25555
0.888304
0.813805
0.64988
0.566424
0.490244
0.453146
0.425173
0.394002
0.356652
0.319315
0.325047
0.325933
0.323301
0.321914
0.320894
0.319626
1.88858
1.53211
1.17724
0.814021
0.720421
0.582596
0.50477
0.444976
0.43067
0.412095
0.380377
0.326835
0.314419
0.3179
0.320907
0.318857
0.318513
0.31741
0.316482
2480.52
2483.09
2470.61
2501.58
2474.99
2405.06
2481.87
2429.12
2443.69
2425.83
2407.65
2388.45
2371.71
2336.14
2375.38
2366.26
2334.35
2323.61
2438.08
2220.12
2470.7
1738.02
1494.2
2457.29
2455.43
2443.03
2415.15
2453.7
2412.74
2416.61
2404.32
2391.31
2364.57
2321.09
2281.6
2184.4
2173.89
2140.28
2223.69
2103.5
1924.37
2077.83
1090.79
1003.25
1300.51
1285.21
2422.07
2415.85
2412.21
2393.55
2398.45
2380.59
2382.94
2354.54
2341.88
2296.26
2251.9
2176.32
2073.08
1885.97
1921.21
1715.64
1388.73
988.685
722.245
329.269
417.329
585.949
837.609
2368.94
2364.46
2365.34
2351.17
2354.63
2338.67
2325.91
2311.97
2278.24
2233.6
2147.4
2055.42
1795.67
1894.21
1897.14
1405.59
1031.03
200.241
46.2937
18.0299
47.8356
70.093
384.716
2313.51
2309.51
2308.86
2298.11
2296.32
2283.6
2279.02
2256.96
2231.56
2184.74
2097.91
1984.4
1717.27
1687.37
1580.04
1058.03
344.275
25.0657
-2.27199
-4.00622
-3.36603
0.502653
139.637
2250.09
2247.13
2246.42
2237.45
2236.33
2225.15
2220.87
2205.55
2188.8
2138.53
2059.27
1908.88
1668.72
1608.3
1230.06
307.749
32.9522
-2.29018
-4.67044
-5.23722
-4.6984
-3.63046
20.2856
2183.61
2181.3
2178.68
2170.72
2168.78
2158.87
2163.5
2151.12
2166.89
2123.1
2058.61
1864.19
1615.4
1439.04
491.707
38.1742
-2.48503
-4.19448
-4.63512
-5.5839
-4.72779
-4.24121
-2.45291
2113.17
2111.35
2107.22
2100.01
2096.72
2086.5
2093.64
2076.72
2115.13
2059.64
2046.94
1847.56
1540.84
901.734
94.7017
-0.668185
-3.68112
-3.80545
-3.74045
-4.01481
-3.77113
-3.58879
-3.3047
2041.53
2039.22
2031.3
2023.3
2014.14
2002.51
2007.11
1982.89
2092.92
2090.41
2087.23
1845.47
1243.33
240.41
7.45439
-2.97178
-3.09463
-3.2708
-3.24251
-3.16685
-2.91293
-2.69373
-2.57814
1964.46
1963.03
1944.8
1926.24
1888.01
1839.67
1716.39
1586.12
2075.77
2242.09
2205.09
1455.28
779.947
102.055
1.61983
-2.48033
-2.5056
-2.68417
-2.62016
-2.46967
-2.37047
-2.18957
-1.80488
1661.61
1650.29
1574.9
1460.84
1267.27
995.399
602.019
373.427
1310.87
1680.81
1550.11
379.044
631.808
165.779
7.19056
-2.32428
-2.18559
-2.28341
-2.23616
-2.24141
-2.10646
-1.86179
-1.51341
547.449
515.333
409.709
285.505
169.864
81.9413
25.5138
22.0857
723.095
1268.44
1389.07
55.6432
293.451
181.296
11.5329
-2.39821
-2.02792
-2.14818
-2.12637
-2.03717
-1.90814
-1.66158
-1.43586
20.2926
17.6786
13.5771
9.27354
5.60063
3.26731
1.46135
6.22711
69.7162
154.8
274.394
26.7995
27.6315
62.0433
30.4116
-1.60062
-1.89703
-2.01941
-1.93854
-1.87429
-1.68808
-1.54375
-1.31154
1.00323
0.808187
0.827446
0.602331
0.363297
0.172536
-0.0775857
0.281409
0.729556
0.430202
1.98747
-0.134572
-0.734291
6.09053
34.5867
9.98276
-2.20755
-2.14189
-1.90116
-1.72257
-1.59297
-1.4392
-0.900153
0.21527
0.175724
0.160904
0.0989574
0.022932
-0.0428917
-0.220578
-0.425176
-1.10539
-2.0152
-2.5957
-2.90511
-3.15478
-3.06527
9.42349
-0.206331
-3.38857
-2.47303
-1.86619
-1.67624
-1.47821
-1.01695
-0.726822
0.0992686
0.085958
0.0647196
0.0354145
-0.0203096
-0.117885
-0.255006
-0.48206
-0.764255
-1.32867
-2.3741
-2.85493
-3.20499
-2.52503
0.227002
-2.35128
-2.99024
-2.47644
-1.88097
-1.56923
-1.1906
-0.843944
-0.689851
0.107758
0.0848824
0.0532832
0.0183609
-0.0107503
-0.121651
-0.317243
-0.453657
-0.626405
-1.43693
-2.28575
-2.47854
-1.84209
-0.337799
-0.751424
-2.56289
-2.64707
-1.77771
-1.32536
-1.00918
-0.863508
-0.764411
-0.575309
0.237183
0.196568
0.154113
0.156966
0.0666396
-0.109247
-0.182971
-0.298063
-0.786918
-1.16824
-1.5459
-1.84058
-0.804775
-0.773799
-1.01031
-1.85928
-1.87809
-1.44148
-1.18858
-1.01803
-0.810473
-0.61742
-0.457329
-0.309664
-0.309149
-0.0226478
-0.350028
-0.499571
-0.605458
-0.671427
-0.742851
-1.23369
-0.975111
-1.26106
-2.08426
-2.26615
-1.24526
-1.0024
-1.85488
-1.56927
-1.05479
-0.96405
-0.84897
-0.69037
-0.520556
-0.39263
-0.335765
-0.315669
-0.540045
-0.477118
-0.504367
-0.502244
-0.724253
-0.997475
-0.780301
-1.08914
-1.54779
-1.89693
-1.71675
-0.701427
-0.796955
-1.49705
-1.33042
-1.17355
-0.878422
-0.726512
-0.566699
-0.441204
-0.307796
-0.341162
-0.347332
-0.418484
-0.445538
-0.509595
-0.520305
-0.471874
-0.678127
-0.59693
-0.667447
-1.06305
-1.34253
-0.719018
-0.63054
-0.512597
-1.1413
-0.962132
-0.891106
-0.760066
-0.643924
-0.509078
-0.403451
-0.291862
-0.305906
-0.317938
-0.390503
-0.517289
-0.451334
-0.489832
-0.497266
-0.346007
-0.455244
-0.593024
-0.760095
-0.75841
-0.614564
-0.487605
-0.369631
-0.933272
-0.809331
-0.724747
-0.649286
-0.551657
-0.443414
-0.347953
-0.249322
-0.22937
-0.267841
-0.372947
-0.315218
-0.20512
-0.28906
-0.127374
-0.236959
-0.441971
-0.532854
-0.219287
-0.323269
-0.392321
-0.370173
-0.254906
-0.682867
-0.680092
-0.645213
-0.560035
-0.474213
-0.376394
-0.302759
-0.221314
-0.337911
-0.326266
-0.275648
-0.0550999
-0.118586
-0.0559276
-0.0983259
-0.125044
-0.341078
-0.173717
-0.258485
-0.279883
-0.33717
-0.347458
-0.243247
-0.337156
-0.619487
-0.518617
-0.444072
-0.409978
-0.341574
-0.268507
-0.192561
0.0308735
0.0250346
0.0747423
-0.0365453
-0.0760128
-0.00256122
-0.0641218
-0.376272
-0.323483
-0.26325
-0.247806
-0.24398
-0.254112
-0.290881
-0.263401
-0.213716
-0.399965
-0.435354
-0.468632
-0.354403
-0.251721
-0.23435
-0.182505
-0.0363173
-0.0327989
-0.0133915
0.0232036
0.0709328
-0.000914791
-0.320116
-0.341331
-0.127567
-0.175814
-0.179679
-0.199739
-0.233403
-0.18667
-0.228873
-0.217015
-0.223935
-0.342615
-0.406628
-0.370229
-0.331293
-0.198597
-0.125658
0.104624
0.0940213
0.0420303
-0.140486
-0.211298
-0.260414
-0.30352
-0.165281
-0.159892
-0.162149
-0.157959
-0.162917
-0.182179
-0.187159
-0.196317
-0.165149
-0.195864
-0.118111
-0.284845
-0.268964
-0.250644
-0.240425
-0.2
-0.17838
-0.193101
-0.223232
-0.132591
-0.150908
-0.160683
-0.238986
-0.0670402
-0.128247
-0.119735
-0.128128
-0.133514
-0.1425
-0.144684
-0.151934
-0.154267
-0.160316
-0.172672
-0.0919423
-0.258772
-0.192876
-0.174332
-0.14251
-0.0956692
-0.100363
-0.113452
-0.122092
-0.129532
-0.207156
-0.0818499
-0.101536
-0.104733
-0.107394
-0.112469
-0.116496
-0.122733
-0.128629
-0.121107
-0.125933
-0.107402
-0.116417
-0.095237
-0.149188
-0.170999
-0.149476
-0.121757
-0.111596
-0.113505
-0.122798
-0.105058
-0.165108
-0.0730345
-0.0806781
-0.0801359
-0.0862738
-0.0850684
-0.0892148
-0.0924231
-0.0926171
-0.0934901
-0.103597
-0.10207
-0.100982
-0.102126
-0.0946499
-0.0770693
-0.134312
-0.129811
-0.101117
-0.088207
-0.0909089
-0.0853276
-0.12955
-0.0658624
-0.0745859
-0.0708357
-0.0751237
-0.0747911
-0.0780619
-0.0766664
-0.0853539
-0.0663762
-0.105427
-0.0928109
-0.0830117
-0.0821868
-0.0745375
-0.0705125
-0.0808874
-0.03686
-0.12066
-0.083416
-0.0873369
-0.0843793
-0.0948754
-0.0576597
-0.0638073
-0.0610894
-0.0619452
-0.0608546
-0.0625377
-0.062237
-0.0637786
-0.0664251
-0.0703775
-0.0724158
-0.0719348
-0.0685101
-0.0648007
-0.0630985
-0.0565091
-0.0600034
-0.03995
-0.084018
-0.063267
-0.0663494
-0.0627476
-0.0633943
-0.0544182
-0.0571101
-0.0544341
-0.0550971
-0.0557929
-0.0554387
-0.0573958
-0.0560904
-0.0586185
-0.056108
-0.0609367
-0.0599245
-0.0557858
-0.0540089
-0.0497937
-0.0468001
-0.0448926
-0.0402952
-0.0286553
-0.0755028
-0.0541853
-0.0532647
-0.0547352
-0.0509577
-0.049945
-0.0482388
-0.0479238
-0.0464815
-0.0470592
-0.0462753
-0.0470354
-0.0474684
-0.0477567
-0.0493625
-0.0473101
-0.0453318
-0.042433
-0.0409959
-0.0381989
-0.0322695
-0.0393575
-0.0109657
-0.0434182
-0.047815
-0.0470006
-0.0461485
-0.044402
-0.0437838
-0.043294
-0.0424201
-0.0427862
-0.0416136
-0.0423037
-0.0408487
-0.0417533
-0.039907
-0.0413832
-0.0389937
-0.0364303
-0.0341433
-0.0313145
-0.0294832
-0.027749
-0.027523
-0.0218837
-0.0358297
-0.0411978
-0.0407368
-0.040782
-0.0392576
-0.0391129
-0.0372591
-0.0370985
-0.0354124
-0.0352216
-0.034066
-0.0337013
-0.0332793
-0.0325199
-0.0329124
-0.0313289
-0.0291066
-0.0272689
-0.0254529
-0.0228549
-0.0217121
-0.0175327
-0.0200628
-0.00169386
-0.0377234
-0.0374133
-0.0368942
-0.0364207
-0.0355093
-0.0352174
-0.0339552
-0.0334935
-0.0321093
-0.0314925
-0.0299492
-0.029512
-0.0278026
-0.0278882
-0.0255235
-0.0225191
-0.0208364
-0.0183744
-0.0174217
-0.0150977
-0.0164828
-0.0111986
-0.0172388
-0.0292073
-0.029001
-0.0288765
-0.0283409
-0.0281932
-0.0272289
-0.0266482
-0.0255188
-0.0247955
-0.0239385
-0.0231829
-0.0228156
-0.0217221
-0.0215975
-0.0200285
-0.0178517
-0.0174317
-0.0144058
-0.0155059
-0.01079
-0.0123252
-0.00414764
-0.0156568
-0.036254
-0.0359436
-0.0352262
-0.034082
-0.0330346
-0.0319976
-0.0309401
-0.0297064
-0.0282249
-0.026789
-0.0245869
-0.0229408
-0.0201592
-0.0191842
-0.0157686
-0.0120748
-0.0107221
-0.00787076
-0.00829875
-0.00508746
-0.00797523
-0.00292839
-0.0106011
-0.0185168
-0.0184012
-0.0179975
-0.0173137
-0.0165848
-0.0157735
-0.0151752
-0.01451
-0.0139241
-0.0135814
-0.0130979
-0.0132179
-0.0126487
-0.0131582
-0.0123939
-0.0118516
-0.0115712
-0.00934197
-0.00954827
-0.00612112
-0.00815849
-0.00152069
-0.0082037
-0.0469275
-0.0466862
-0.0458196
-0.0445701
-0.0429343
-0.0409135
-0.0386217
-0.0361017
-0.033229
-0.0303259
-0.0267423
-0.0235424
-0.0189107
-0.0149235
-0.00839172
-0.000829524
-0.00115425
1.42922e-05
-0.000738113
-0.000295671
-0.000722795
-0.000860641
-0.0010293
0.00811329
0.00805304
0.00801318
0.00787541
0.00782619
0.00747046
0.00711045
0.00655198
0.0058512
0.00473009
0.00355789
0.00118829
-0.000506521
-0.00664969
-0.009633
-0.0117647
-0.00912852
-0.00758695
-0.006329
-0.00314564
-0.0044603
-0.00132633
-0.00248222
388.822
322.431
0.0634603
1.45641
785.285
440.217
50.9024
3.22924
719.056
694.021
151.626
5.27868
506.754
747.2
278.405
20.5709
836.064
953.891
616.871
119.632
286.376
959.198
994.892
380.556
29.8478
317.772
651.242
329.025
-2.32607
16.9992
74.4466
108.141
-2.23842
-2.10898
-0.923424
8.10727
-1.59638
-1.37922
-1.07414
-0.638418
-1.41715
-1.08717
-0.76025
-0.451877
-1.30417
-0.970108
-0.667854
-0.386417
-0.946981
-0.677575
-0.467636
-0.216103
-0.639425
-0.547594
-0.373465
-0.177303
-0.574828
-0.457076
-0.312898
-0.175659
-0.487297
-0.386816
-0.27843
-0.177308
-0.417065
-0.345705
-0.264911
-0.185204
-0.341775
-0.272935
-0.207003
-0.125286
-0.289788
-0.220394
-0.220745
-0.126984
-0.235191
-0.178705
-0.126034
-0.108265
-0.223285
-0.177451
-0.133551
-0.093359
-0.188745
-0.146576
-0.111065
-0.0764485
-0.170334
-0.135497
-0.104758
-0.0768203
-0.147677
-0.11704
-0.0933919
-0.0675543
-0.144532
-0.115521
-0.0898466
-0.0649354
-0.0865002
-0.0573905
-0.0683731
-0.0618881
-0.164776
-0.150891
-0.0864369
-0.045906
-0.128849
-0.124626
-0.126745
-0.116166
-0.106748
-0.0956949
-0.0832603
-0.0703472
-0.0910635
-0.0831185
-0.0756728
-0.0666968
-0.0777557
-0.0699328
-0.0629217
-0.0560523
-0.0620241
-0.0558204
-0.0513645
-0.0467765
-0.0509692
-0.0493803
-0.0432272
-0.0398374
-0.0356805
-0.035365
-0.0328652
-0.0310023
-0.0340198
-0.0310234
-0.0276273
-0.0256665
-0.0329565
-0.025872
-0.0236752
-0.0225921
-0.00101154
-0.0198425
-0.0101818
-0.0141653
-0.0020283
-0.0138854
-0.00919429
-0.0117626
0.000842683
-0.00778315
-0.0031175
-0.00533029
-0.00238377
-0.00723749
-0.00438149
-0.00676654
0.000119582
0.00110388
-0.00101598
0.00064112
-0.00260379
-0.00250765
-0.00244553
-0.0031959
2.43846
1.65046
1.14194
0.714162
0.590146
0.487921
0.413625
0.372357
0.367039
0.354458
0.320674
0.314936
0.311884
0.310061
0.311873
0.311832
0.311755
0.311207
0.310617
2.62426
1.59184
1.01343
0.165952
0.130544
0.263288
0.251911
0.262108
0.280157
0.287005
0.291924
0.300054
0.30513
0.297067
0.299752
0.300604
0.300344
0.299771
0.299373
3.16641
1.25486
0.10105
-0.201812
-0.0406868
-0.00260367
-0.0209328
0.0532994
0.173184
0.22907
0.227806
0.260279
0.271939
0.279648
0.284636
0.286922
0.286956
0.286624
0.285671
2.50456
-0.228445
-0.890765
-0.933896
-0.463008
-0.146208
-0.00066525
0.106167
0.186156
0.182549
0.224995
0.242214
0.260086
0.261986
0.270435
0.270812
0.271391
0.271339
0.27071
4.98717
-2.21508
-2.89669
-1.83961
-0.902142
-0.420995
-0.166724
-0.0225372
0.0787795
0.14468
0.178128
0.217675
0.237262
0.24546
0.252238
0.253374
0.254068
0.254861
0.255092
17.7286
-2.59035
-4.49898
-2.64362
-1.19108
-0.527621
-0.230283
-0.0394662
0.0608782
0.123001
0.163691
0.197103
0.217302
0.225424
0.231631
0.234394
0.236498
0.238744
0.23954
38.5218
-3.55532
-4.81838
-3.57426
-1.62085
-0.666496
-0.309852
-0.0830229
0.0317856
0.100571
0.144465
0.176561
0.195335
0.204366
0.211108
0.216973
0.220806
0.224459
0.225752
46.6055
2.87112
-2.75395
-2.50711
-1.58883
-0.582183
-0.277597
-0.0859427
0.0171859
0.0826587
0.125448
0.154002
0.17331
0.184503
0.193796
0.202204
0.207737
0.212146
0.214017
23.5967
6.97238
0.0519196
-1.36187
-0.924624
-0.385467
-0.215437
-0.0710513
0.0122137
0.0695257
0.107252
0.134376
0.153922
0.169445
0.180565
0.191033
0.197106
0.201051
0.2029
2.64072
2.65749
0.587393
-0.538063
-0.417819
-0.245517
-0.147439
-0.0446132
0.0180188
0.0644722
0.0973063
0.122607
0.142107
0.15916
0.171065
0.180356
0.186061
0.190197
0.191944
0.327013
0.734597
0.282861
-0.0202887
-0.162485
-0.089235
-0.051287
0.00150696
0.0375892
0.0719764
0.097796
0.120409
0.137318
0.15233
0.161784
0.170745
0.175852
0.179888
0.181527
0.249092
0.611936
0.378144
0.16916
0.0445042
0.0193659
0.0103472
0.0349127
0.0513769
0.0766612
0.0967609
0.117581
0.131679
0.145985
0.153232
0.161924
0.166076
0.169968
0.171378
0.146907
0.476994
0.379135
0.248104
0.133987
0.0838853
0.0560736
0.0646288
0.0691252
0.0857373
0.0995095
0.115482
0.12678
0.138872
0.145279
0.153355
0.157087
0.160724
0.162018
0.104757
0.3511
0.335053
0.25727
0.171516
0.121655
0.0790461
0.0923055
0.0841933
0.096926
0.104455
0.11759
0.124367
0.136368
0.138103
0.146113
0.148439
0.151789
0.152761
0.0461468
0.24131
0.268605
0.239497
0.181321
0.141867
0.101395
0.108969
0.0951031
0.102109
0.106288
0.115236
0.120256
0.128643
0.131289
0.138751
0.140822
0.143868
0.144737
-0.00592026
0.158493
0.19807
0.197882
0.165636
0.134973
0.0789793
0.131638
0.101484
0.112284
0.112597
0.120489
0.12121
0.134174
0.124603
0.132558
0.133107
0.135614
0.136147
-0.0576467
0.0788666
0.141198
0.170997
0.160928
0.144518
0.148794
0.125487
0.110121
0.114681
0.112284
0.114624
0.116085
0.116709
0.121273
0.125992
0.127084
0.129115
0.12958
-0.0256751
0.0958817
0.125499
0.165723
0.157861
0.133527
0.123554
0.117359
0.10871
0.112765
0.110277
0.112964
0.112655
0.117364
0.11595
0.119089
0.119293
0.120809
0.121058
-0.0325588
0.0785315
0.112107
0.147191
0.141125
0.0932738
0.123799
0.107884
0.104885
0.1106
0.106463
0.107731
0.106941
0.109248
0.10987
0.111926
0.112584
0.113759
0.114058
-0.0282967
0.0481174
0.0870388
0.11574
0.119779
0.116782
0.111976
0.0981474
0.0754311
0.111179
0.0979965
0.101274
0.100777
0.103077
0.103008
0.104692
0.104896
0.105925
0.106095
-0.0314959
0.0357273
0.0688008
0.097904
0.101616
0.0900839
0.0998225
0.0734297
0.098004
0.0997008
0.0920754
0.0959971
0.0933129
0.0965153
0.0957679
0.097401
0.0977226
0.0986464
0.0988538
-0.0354427
0.0217437
0.0533714
0.0791832
0.0896807
0.0853719
0.0893163
0.0855577
0.0827431
0.0858727
0.0735639
0.0899249
0.0848729
0.0897778
0.088203
0.0898815
0.0894917
0.0909314
0.0909328
-0.0372831
0.0112707
0.0415453
0.0655679
0.0761413
0.0774297
0.0786702
0.0706381
0.0747086
0.0783889
0.0793356
0.0811972
0.0711927
0.0829094
0.0794942
0.082569
0.0825542
0.083876
0.0840171
-0.0345248
0.00730323
0.0345824
0.0531903
0.0640281
0.0699847
0.0709144
0.0667355
0.0675209
0.0707964
0.0677662
0.0730528
0.0716733
0.073393
0.0721575
0.0745008
0.0727765
0.0767828
0.0758085
-0.0312347
0.0128857
0.0317298
0.0475265
0.0578731
0.0626764
0.0638935
0.0605086
0.0614301
0.0632928
0.0622823
0.0654032
0.0608871
0.0647551
0.0657198
0.0677057
0.0685848
0.0688808
0.0695965
-0.037964
-0.00586912
0.026242
0.0468087
0.0506168
0.0553654
0.0536322
0.056508
0.0561763
0.0579689
0.0574286
0.0586724
0.0563186
0.0589036
0.0591843
0.0599361
0.0601214
0.0604156
0.0608093
-0.00375999
0.0424362
0.0218768
0.0317776
0.0467747
0.0507069
0.0522472
0.0510652
0.0478699
0.0519107
0.0525392
0.0500772
0.0501655
0.0527241
0.0536828
0.0547087
0.0551565
0.0545926
0.0560633
-0.0954132
-0.0712417
0.0293815
0.0578824
0.0322143
0.0398551
0.0323728
0.0480673
0.0452903
0.0455787
0.0518093
0.0458581
0.0454415
0.0468435
0.048284
0.0459096
0.04942
0.0465783
0.0471927
-0.052817
-0.0367102
-0.0409125
-0.0289096
0.0452482
0.0522679
0.0569174
0.0400819
0.0387719
0.0337847
0.0367911
0.0402347
0.0382823
0.0408288
0.0443738
0.0440975
0.0444021
0.0455292
0.0461249
-0.0537931
-0.0368817
-0.0211418
-0.0101326
-0.0272
-0.0139955
-0.0116597
0.0452375
0.0428278
0.0481185
0.04103
0.0320114
0.0348195
0.0361038
0.0382649
0.0379973
0.034586
0.0336376
0.034236
-0.0446798
-0.0324151
-0.0209911
-0.0118436
0.00141263
0.00838982
0.00760927
-0.0116742
-0.00495329
-0.00434438
0.0335052
0.0306348
0.0348468
0.0288555
0.0294687
0.0327435
0.0369043
0.0385701
0.0390873
-0.0384798
-0.0286751
-0.0195608
-0.0126558
-0.00915272
-0.00232415
0.000619173
0.0104515
0.0133017
0.0128188
-0.00491397
0.00141749
0.0284317
0.0277418
0.0339022
0.0240523
0.0205998
0.0212255
0.0202784
-0.0313364
-0.0245368
-0.0155588
-0.0103599
-0.00425986
-0.00116712
0.00182707
0.000247456
0.00382912
0.00220436
0.0105942
-0.00162197
-0.00374632
-0.00584001
0.00132588
0.0279944
0.0337469
0.0340215
0.0350547
-0.0260129
-0.0207716
-0.0144291
-0.0106417
-0.00577743
-0.00269738
-0.000224133
0.00177107
0.00355478
0.0037098
0.00244232
0.0029538
0.00770047
0.00678926
-0.00834921
-0.0172962
-0.0219276
-0.0267584
-0.0270561
-0.0192912
-0.0165907
-0.00961533
-0.00770226
-0.00312833
-0.00196856
0.000397226
0.000799331
0.002794
0.00241448
0.00396376
0.0012145
0.00251421
0.00289092
0.00539134
0.0103149
0.0154177
0.0179445
0.0195005
-0.0166651
-0.0147366
-0.0101367
-0.00861897
-0.00525324
-0.00410826
-0.00231531
-0.00182327
-0.000626168
-0.000588896
-0.000211868
-0.000832297
-0.000582876
-0.00160342
-0.00504844
-0.00722513
-0.00844309
-0.00968496
-0.00984558
-0.00823965
-0.00924261
-0.00433592
-0.00464259
-0.0013877
-0.00126087
0.000700124
0.000944676
0.00182463
0.00203055
0.00225637
0.00202786
0.00243757
0.00268018
0.00309398
0.00409035
0.00566872
0.0058035
0.00638459
-0.00911887
-0.00974132
-0.00679957
-0.00723954
-0.00503928
-0.00545701
-0.00448222
-0.00489481
-0.00470521
-0.00492547
-0.00499518
-0.00546424
-0.00569103
-0.00622913
-0.00707012
-0.00779527
-0.00779211
-0.00815945
-0.00816326
-0.00255716
-0.00381198
-0.000329466
-0.000873557
0.00135265
0.00131413
0.00257832
0.00269758
0.00323506
0.00335782
0.00349307
0.00346192
0.00354784
0.00355839
0.003615
0.00372684
0.00385925
0.00392459
0.00412656
-0.0047796
-0.00694248
-0.00572173
-0.00788925
-0.00772695
-0.00910407
-0.00933795
-0.0102603
-0.0107274
-0.0113634
-0.0118485
-0.0123973
-0.0128271
-0.0132949
-0.0137089
-0.0140875
-0.0141638
-0.0143818
-0.0143595
0.000679505
0.00190222
0.00336576
0.00385224
0.00515993
0.00560119
0.00647574
0.00679499
0.00723944
0.00745983
0.00767209
0.00778775
0.00790846
0.00797262
0.00806225
0.0080906
0.00820642
0.00821042
0.00826995
-0.0041698
-0.00605354
-0.00879036
-0.0110011
-0.0137195
-0.0158407
-0.0177804
-0.0195283
-0.02102
-0.0223066
-0.0233982
-0.0243296
-0.0251065
-0.0257497
-0.0262899
-0.0266805
-0.0269667
-0.0271408
-0.0269196
)
;

boundaryField
{
    leftWall
    {
        type            zeroGradient;
    }
    rightWall
    {
        type            zeroGradient;
    }
    lowerWall
    {
        type            zeroGradient;
    }
    atmosphere
    {
        type            totalPressure;
        rho             rho;
        psi             none;
        gamma           1;
        p0              uniform 0;
        value           nonuniform List<scalar> 
46
(
-0.0180691
-0.0182579
-0.0177887
-0.0171194
-0.0162297
-0.0152182
-0.0140681
-0.0128457
-0.0115667
-0.010355
-0.00910134
-0.00829385
-0.0072108
-0.008017
-0.00736982
-0.00618081
-0.00469904
-0.00306941
-0.00192947
-0.000788566
-0.000434152
-8.46853e-06
0
0
0
0
0
0
0
0
0
0
0
0
0
0
0
0
0
0
0
0
0
0
0
0
)
;
    }
    defaultFaces
    {
        type            empty;
    }
}


// ************************************************************************* //
