/*--------------------------------*- C++ -*----------------------------------*\
| =========                 |                                                 |
| \\      /  F ield         | foam-extend: Open Source CFD                    |
|  \\    /   O peration     | Version:     4.1                                |
|   \\  /    A nd           | Web:         http://www.foam-extend.org         |
|    \\/     M anipulation  |                                                 |
\*---------------------------------------------------------------------------*/
FoamFile
{
    version     2.0;
    format      ascii;
    class       surfaceScalarField;
    location    "0.15";
    object      phi;
}
// * * * * * * * * * * * * * * * * * * * * * * * * * * * * * * * * * * * * * //

dimensions      [0 3 -1 0 0 0 0];

internalField   nonuniform List<scalar> 
4432
(
5.9215e-06
-5.9215e-06
1.16822e-05
-5.76066e-06
1.81335e-05
-6.45138e-06
2.31973e-05
-5.06379e-06
3.08417e-05
-7.64436e-06
3.60777e-05
-5.23603e-06
4.20235e-05
-5.9458e-06
4.77274e-05
-5.70388e-06
5.21098e-05
-4.38236e-06
5.48532e-05
-2.74343e-06
8.32554e-05
-2.84022e-05
9.62635e-05
-1.30081e-05
0.000103716
-7.45298e-06
0.000113247
-9.53039e-06
0.000117884
-4.63756e-06
0.00011923
-1.34576e-06
0.000117526
1.70438e-06
0.000113961
3.56476e-06
0.000108588
5.37323e-06
9.82112e-05
1.03766e-05
7.52394e-05
2.29718e-05
4.68737e-05
2.83657e-05
4.68737e-05
5.9334e-06
-1.18549e-05
1.17326e-05
-1.15599e-05
1.81747e-05
-1.28935e-05
2.32965e-05
-1.01856e-05
3.09462e-05
-1.5294e-05
3.61798e-05
-1.04697e-05
4.2158e-05
-1.1924e-05
4.79696e-05
-1.15155e-05
5.2235e-05
-8.64779e-06
5.54184e-05
-5.92678e-06
8.15923e-05
-5.4576e-05
9.48759e-05
-2.62917e-05
0.000102703
-1.52804e-05
0.000110364
-1.71913e-05
0.000114863
-9.13636e-06
0.000116881
-3.36396e-06
0.000116936
1.64989e-06
0.000113333
7.16704e-06
0.000108028
1.06784e-05
9.80815e-05
2.03234e-05
7.82246e-05
4.28286e-05
5.00232e-05
5.65671e-05
9.68969e-05
5.91025e-06
-1.77651e-05
1.17426e-05
-1.73923e-05
1.81265e-05
-1.92773e-05
2.32831e-05
-1.53422e-05
3.09246e-05
-2.29355e-05
3.62421e-05
-1.57871e-05
4.20524e-05
-1.77343e-05
4.95446e-05
-1.90077e-05
5.14314e-05
-1.05346e-05
9.08201e-05
-4.53155e-05
8.53466e-05
-4.91026e-05
9.50702e-05
-3.60154e-05
0.000102303
-2.2513e-05
0.000107544
-2.24329e-05
0.000112617
-1.42094e-05
0.000116384
-7.13052e-06
0.000119845
-1.81154e-06
0.000119807
7.20586e-06
0.000113555
1.69296e-05
0.000101477
3.24023e-05
7.70558e-05
6.72494e-05
5.36882e-05
7.99348e-05
0.000150585
5.88853e-06
-2.36537e-05
1.17771e-05
-2.32809e-05
1.80487e-05
-2.55489e-05
2.34246e-05
-2.0718e-05
3.09305e-05
-3.04415e-05
3.60874e-05
-2.0944e-05
4.42662e-05
-2.59131e-05
4.84046e-05
-2.31461e-05
8.02351e-05
-4.23651e-05
8.3313e-05
-4.83934e-05
8.5229e-05
-5.10186e-05
9.33651e-05
-4.41514e-05
9.83769e-05
-2.75249e-05
0.000104826
-2.88824e-05
0.000111656
-2.10393e-05
0.00011847
-1.39444e-05
0.000122363
-5.70443e-06
0.000122748
6.82058e-06
0.000118213
2.14649e-05
0.00010567
4.4945e-05
8.29201e-05
8.99996e-05
5.83058e-05
0.000104549
0.000208891
5.84384e-06
-2.94975e-05
1.181e-05
-2.92471e-05
1.79603e-05
-3.16992e-05
2.36223e-05
-2.638e-05
3.06358e-05
-3.7455e-05
3.63871e-05
-2.66954e-05
4.42034e-05
-3.37294e-05
4.71895e-05
-2.61322e-05
7.3068e-05
-6.82436e-05
7.80166e-05
-5.3342e-05
8.20116e-05
-5.50135e-05
8.9982e-05
-5.21219e-05
9.70414e-05
-3.45843e-05
0.000107685
-3.95257e-05
0.000115075
-2.84295e-05
0.000121884
-2.07536e-05
0.000127359
-1.11788e-05
0.000129861
4.31824e-06
0.000131293
2.00333e-05
0.000111996
6.42411e-05
8.79077e-05
0.000114088
4.31449e-05
0.000149312
0.000252036
5.82627e-06
-3.53238e-05
1.1828e-05
-3.52488e-05
1.79981e-05
-3.78693e-05
2.3729e-05
-3.21109e-05
3.05415e-05
-4.42674e-05
3.81664e-05
-3.43203e-05
4.21302e-05
-3.76933e-05
6.95645e-05
-5.35665e-05
6.83081e-05
-6.69872e-05
7.55197e-05
-6.05536e-05
8.30445e-05
-6.25383e-05
9.10637e-05
-6.01411e-05
0.000100561
-4.40819e-05
0.000110934
-4.98981e-05
0.000117552
-3.50478e-05
0.000124984
-2.81859e-05
0.00013353
-1.97242e-05
0.00013671
1.13786e-06
0.000135742
2.10016e-05
0.000117986
8.19965e-05
9.89782e-05
0.000133097
4.8138e-05
0.000200152
0.000300174
5.75241e-06
-4.10762e-05
1.18677e-05
-4.13642e-05
1.82372e-05
-4.42387e-05
2.39975e-05
-3.78713e-05
3.13723e-05
-5.16422e-05
3.58627e-05
-3.88106e-05
3.81762e-05
-4.00067e-05
6.21747e-05
-7.7565e-05
6.65249e-05
-7.13374e-05
7.57259e-05
-6.97545e-05
8.50612e-05
-7.18736e-05
9.38837e-05
-6.89637e-05
0.000104396
-5.45939e-05
0.000112683
-5.81848e-05
0.00012019
-4.25556e-05
0.00013068
-3.8675e-05
0.00014017
-2.92149e-05
0.000142474
-1.16602e-06
0.000142303
2.11723e-05
0.000130351
9.39488e-05
0.000110703
0.000152745
5.14824e-05
0.000259373
0.000351656
5.77695e-06
-4.68531e-05
1.19709e-05
-4.75581e-05
1.8206e-05
-5.04739e-05
2.45438e-05
-4.4209e-05
3.12427e-05
-5.83411e-05
3.28119e-05
-4.03799e-05
5.91875e-05
-6.63823e-05
6.15593e-05
-7.99368e-05
6.83713e-05
-7.81494e-05
7.9684e-05
-8.10673e-05
8.86865e-05
-8.0876e-05
9.67168e-05
-7.69941e-05
0.000107617
-6.54942e-05
0.000117887
-6.8455e-05
0.000127095
-5.17632e-05
0.000136573
-4.81527e-05
0.000145555
-3.81973e-05
0.000147331
-2.94179e-06
0.000146917
2.15861e-05
0.000138236
0.000102629
0.000124198
0.000166783
5.2093e-05
0.000331477
0.000403749
-1.03609e-05
1.03609e-05
-2.07313e-05
1.03704e-05
-2.59117e-05
5.18038e-06
-2.74934e-05
1.58166e-06
-2.61312e-05
-1.36235e-06
-2.46239e-05
-1.50719e-06
-2.2607e-05
-2.01706e-06
-1.99206e-05
-2.68638e-06
-1.75217e-05
-2.39896e-06
-1.49711e-05
-2.55063e-06
-1.25201e-05
-2.4512e-06
-1.04353e-05
-2.08487e-06
-5.8429e-06
-4.59251e-06
-6.7144e-06
8.71593e-07
-3.00608e-06
-3.70837e-06
-1.94114e-06
-1.06485e-06
-1.09413e-06
-8.46907e-07
-5.21116e-07
-5.73066e-07
-5.21106e-07
-1.12036e-05
2.15646e-05
-2.26424e-05
2.18092e-05
-2.72272e-05
9.76516e-06
-2.77671e-05
2.1215e-06
-2.59767e-05
-3.15302e-06
-2.40533e-05
-3.43047e-06
-2.18599e-05
-4.21059e-06
-1.90779e-05
-5.46841e-06
-1.65796e-05
-4.89745e-06
-1.3893e-05
-5.2373e-06
-1.13477e-05
-4.99672e-06
-9.3573e-06
-4.0751e-06
-9.32043e-06
-4.62951e-06
-4.17563e-06
-4.2731e-06
-2.54823e-06
-5.3356e-06
-1.6319e-06
-1.98116e-06
-8.95826e-07
-1.5831e-06
-4.18364e-07
-1.05065e-06
-9.39382e-07
-1.33901e-05
3.49547e-05
-2.47073e-05
3.31263e-05
-2.86218e-05
1.36796e-05
-2.91488e-05
2.64851e-06
-2.6538e-05
-5.76394e-06
-2.44853e-05
-5.48307e-06
-2.20765e-05
-6.61931e-06
-1.91248e-05
-8.41991e-06
-1.64838e-05
-7.53869e-06
-1.36335e-05
-8.0872e-06
-1.11186e-05
-7.51184e-06
-8.96717e-06
-6.22662e-06
-4.3489e-06
-9.24776e-06
-2.98991e-06
-5.63188e-06
-2.31651e-06
-6.00895e-06
-1.52868e-06
-2.76902e-06
-8.55703e-07
-2.25601e-06
-3.96656e-07
-1.50972e-06
-1.33595e-06
-1.79253e-05
5.28799e-05
-3.01291e-05
4.533e-05
-3.10952e-05
1.46455e-05
-3.07744e-05
2.32789e-06
-2.82987e-05
-8.23971e-06
-2.55783e-05
-8.20337e-06
-2.24168e-05
-9.78079e-06
-1.92386e-05
-1.15977e-05
-1.64049e-05
-1.03727e-05
-1.3455e-05
-1.1037e-05
-1.01517e-05
-1.08154e-05
-5.05144e-06
-1.13267e-05
-4.07742e-06
-1.02216e-05
-2.79067e-06
-6.91856e-06
-2.13636e-06
-6.66343e-06
-1.38229e-06
-3.52315e-06
-8.05367e-07
-2.83275e-06
-3.66178e-07
-1.94892e-06
-1.70208e-06
-1.99656e-05
7.28455e-05
-3.54679e-05
6.08323e-05
-3.54559e-05
1.46335e-05
-3.44317e-05
1.30376e-06
-2.85517e-05
-1.41197e-05
-2.60778e-05
-1.06773e-05
-2.27226e-05
-1.31363e-05
-1.92491e-05
-1.50711e-05
-1.62645e-05
-1.33576e-05
-1.34348e-05
-1.38666e-05
-1.06256e-05
-1.36247e-05
-3.60626e-06
-1.8346e-05
-6.46774e-06
-7.36016e-06
-2.84848e-06
-1.05378e-05
-2.05301e-06
-7.4589e-06
-1.27252e-06
-4.30365e-06
-7.54819e-07
-3.35035e-06
-4.78439e-07
-2.22534e-06
-2.18052e-06
-3.22351e-05
0.000105081
-4.62994e-05
7.48965e-05
-3.9935e-05
8.26912e-06
-3.66931e-05
-1.93827e-06
-3.33575e-05
-1.74557e-05
-2.83698e-05
-1.5665e-05
-2.27308e-05
-1.87757e-05
-1.8804e-05
-1.89978e-05
-1.6205e-05
-1.59568e-05
-1.34072e-05
-1.66643e-05
-4.33201e-06
-2.26999e-05
-3.52582e-06
-1.91521e-05
-3.11375e-06
-7.77232e-06
-2.35458e-06
-1.12969e-05
-1.74759e-06
-8.06574e-06
-1.11228e-06
-4.93895e-06
-6.73651e-07
-3.78896e-06
-2.97225e-07
-2.60182e-06
-2.47776e-06
-3.68411e-05
0.000141922
-5.88786e-05
9.6934e-05
-5.54493e-05
4.83954e-06
-2.40465e-05
-3.33412e-05
-3.38323e-05
-7.66991e-06
-2.81063e-05
-2.13907e-05
-2.34766e-05
-2.34054e-05
-1.96421e-05
-2.28322e-05
-1.61362e-05
-1.94626e-05
-5.5991e-06
-2.72014e-05
-3.92871e-06
-2.43702e-05
-4.35654e-06
-1.87241e-05
-2.85941e-06
-9.26948e-06
-2.08822e-06
-1.20681e-05
-1.51801e-06
-8.63583e-06
-9.84776e-07
-5.47219e-06
-5.88964e-07
-4.1848e-06
-2.66563e-07
-2.92424e-06
-2.74432e-06
-5.75926e-05
0.000199514
-4.41605e-05
8.35018e-05
-3.57805e-05
-3.54047e-06
-2.74918e-05
-4.16298e-05
-2.00668e-05
-1.50953e-05
-1.58388e-05
-2.5619e-05
-1.19058e-05
-2.73387e-05
-9.65726e-06
-2.50807e-05
-7.10321e-06
-2.20165e-05
-5.65961e-06
-2.86451e-05
-7.48928e-06
-2.25406e-05
-3.06016e-06
-2.31531e-05
-2.34676e-06
-9.98288e-06
-1.66783e-06
-1.27471e-05
-1.23074e-06
-9.07291e-06
-8.1535e-07
-5.88764e-06
-4.89503e-07
-4.51069e-06
-2.27914e-07
-3.18583e-06
-2.97223e-06
1.19361e-05
-5.87893e-05
2.53127e-05
-6.09346e-05
3.52206e-05
-6.03818e-05
5.02917e-05
-5.92802e-05
5.95617e-05
-6.76111e-05
0.000102911
-8.37292e-05
0.000120448
-8.39196e-05
0.000132342
-9.18308e-05
0.000150731
-9.65382e-05
0.000171667
-0.000102004
0.000190428
-9.96362e-05
0.000209832
-9.63983e-05
0.000239787
-9.54493e-05
0.000257808
-8.64762e-05
0.00027621
-7.01655e-05
0.000302375
-7.43177e-05
0.000328319
-6.41404e-05
0.000339904
-1.45268e-05
0.000354112
7.37724e-06
0.000335181
0.000121561
0.000219515
0.000282449
0.000163637
0.000387356
0.000272015
0.000295371
1.1267e-05
-7.00563e-05
2.57294e-05
-7.53969e-05
3.62777e-05
-7.09301e-05
6.71412e-05
-9.01436e-05
8.30864e-05
-8.35564e-05
9.74051e-05
-9.80479e-05
0.000114839
-0.000101353
0.000130109
-0.000107101
0.000150588
-0.000117017
0.000170922
-0.000122338
0.000190082
-0.000118797
0.000221613
-0.000127929
0.000246627
-0.000120464
0.000271356
-0.000111205
0.000270646
-6.94549e-05
0.000300515
-0.000104187
0.00032408
-8.77057e-05
0.000336502
-2.69485e-05
0.00028492
5.89595e-05
0.000263375
0.000143106
0.000225481
0.000320342
0.000347074
0.000265763
0.000298915
0.000320174
1.61137e-05
-8.617e-05
3.17602e-05
-9.10434e-05
5.03303e-05
-8.95002e-05
6.31182e-05
-0.000102932
8.01134e-05
-0.000100552
9.4173e-05
-0.000112108
0.000110232
-0.000117413
0.000127692
-0.00012456
0.000147144
-0.000136469
0.000164883
-0.000140077
0.00018818
-0.000142093
0.00021776
-0.00015751
0.000232507
-0.00013521
0.000221078
-9.9776e-05
0.000254117
-0.000102494
0.000306181
-0.000156252
0.000371948
-0.000153473
0.000394588
-4.95883e-05
0.000416708
3.68396e-05
0.000412381
0.000147433
0.000378856
0.000353868
0.000354062
0.000290557
0.00031827
0.000334708
1.61614e-05
-0.000102331
3.11651e-05
-0.000106047
4.73974e-05
-0.000105733
5.91538e-05
-0.000114688
7.42014e-05
-0.000115599
8.86591e-05
-0.000126565
0.000103588
-0.000132341
0.000119258
-0.000140231
0.000138775
-0.000155986
0.000159067
-0.000160369
0.000187325
-0.00017035
0.000219978
-0.000190163
0.000187855
-0.000103087
0.000189887
-0.000101808
0.000257916
-0.000170523
0.000282563
-0.000180898
0.000267687
-0.000138597
0.000361633
-0.000143535
0.000395401
3.07217e-06
0.000388235
0.000154599
0.000360389
0.000381713
0.000371885
0.00027906
0.000498564
0.000191592
1.36722e-05
-0.000116004
2.65953e-05
-0.00011897
4.02582e-05
-0.000119395
5.29113e-05
-0.000127341
6.72111e-05
-0.000129899
7.97532e-05
-0.000139107
9.28018e-05
-0.00014539
0.000110156
-0.000157585
0.000125138
-0.000170968
0.00014384
-0.000179072
0.00016133
-0.00018784
0.000194503
-0.000223335
0.000208847
-0.000117432
0.000223023
-0.000115984
0.000268104
-0.000215604
0.00030304
-0.000215834
0.000263696
-9.92531e-05
0.000263941
-0.00014378
0.000295131
-2.81173e-05
0.000311161
0.000138569
0.00031013
0.000382744
0.000199552
0.000389638
0.000490629
0.000207487
1.25749e-05
-0.000128578
2.4388e-05
-0.000130783
3.76329e-05
-0.00013264
4.81382e-05
-0.000137846
5.96372e-05
-0.000141398
7.11091e-05
-0.000150579
8.38007e-05
-0.000158081
9.77318e-05
-0.000171516
0.000110509
-0.000183746
0.000126165
-0.000194727
0.000147623
-0.000209299
0.000180377
-0.000256089
0.00019292
-0.000129975
0.000208401
-0.000131464
0.00024588
-0.000253083
0.000284497
-0.000254451
0.000370446
-0.000185202
0.000295806
-6.91393e-05
0.000212651
5.50366e-05
0.000197126
0.000154094
0.000185157
0.000394713
0.000120191
0.000454604
0.000451534
0.000159286
1.0733e-05
-0.000139311
2.1335e-05
-0.000141385
3.18025e-05
-0.000143108
4.17674e-05
-0.000147811
5.26747e-05
-0.000152305
6.15818e-05
-0.000159486
7.20794e-05
-0.000168579
8.14098e-05
-0.000180846
8.88397e-05
-0.000191176
0.000101353
-0.000207241
0.000124991
-0.000232937
0.000153202
-0.0002843
0.000171005
-0.000147779
0.000191964
-0.000152422
0.00023153
-0.00029265
0.000250922
-0.000273843
0.000166857
-0.000101137
1.81238e-05
7.9594e-05
-9.67741e-06
8.28377e-05
-1.64161e-05
0.000160833
4.98414e-05
0.000328455
8.87687e-05
0.000415676
0.000394262
0.00014604
9.65019e-06
-0.000148962
1.90429e-05
-0.000150778
2.90127e-05
-0.000153078
3.72437e-05
-0.000156042
4.55327e-05
-0.000160594
5.34154e-05
-0.000167369
6.16503e-05
-0.000176814
6.20137e-05
-0.000181209
6.60522e-05
-0.000195214
7.61225e-05
-0.000217311
0.000101125
-0.000257939
0.000125881
-0.000309056
0.000145904
-0.000167802
0.000170753
-0.000177272
0.000180019
-0.000301916
0.000102205
-0.000196028
-3.36556e-05
3.47232e-05
-4.10769e-05
8.70149e-05
-8.66588e-05
0.000128419
-0.000101448
0.000175622
-3.41017e-05
0.000261109
6.08365e-05
0.000320738
0.000332115
0.000122984
8.17949e-06
-0.000157141
1.67529e-05
-0.000159352
2.49799e-05
-0.000161304
3.22484e-05
-0.000163311
3.92831e-05
-0.000167629
4.37221e-05
-0.000171808
4.79363e-05
-0.000181028
4.10797e-05
-0.000174353
4.76587e-05
-0.000201793
5.93518e-05
-0.000229004
7.35647e-05
-0.000272151
8.88688e-05
-0.00032436
0.000113518
-0.000192452
0.000137373
-0.000201126
0.000110067
-0.000274611
-1.37979e-05
-7.21629e-05
-6.66682e-05
8.75931e-05
-9.44469e-05
0.000114794
-0.000109021
0.000142993
-0.000102893
0.000169494
-5.81379e-05
0.000216354
2.68815e-05
0.000235719
0.000243391
0.000115606
6.67163e-06
-0.000163813
1.47683e-05
-0.000167448
2.22035e-05
-0.00016874
2.87706e-05
-0.000169878
3.34753e-05
-0.000172334
3.71939e-05
-0.000175527
4.23645e-05
-0.000186199
2.99716e-05
-0.00016196
3.99962e-05
-0.000211818
3.85934e-05
-0.000227601
3.2461e-05
-0.000266019
3.35874e-05
-0.000325486
4.95598e-05
-0.000208424
5.85211e-05
-0.000210087
5.88423e-05
-0.000274932
-1.86504e-05
5.32994e-06
-4.16151e-05
0.000110558
-4.92185e-05
0.000122397
-5.8111e-05
0.000151886
-6.21902e-05
0.000173574
-3.90402e-05
0.000193204
3.17368e-07
0.000196361
0.000195363
4.83458e-05
5.33576e-06
-0.000169148
1.37081e-05
-0.000175821
2.04449e-05
-0.000175477
2.75639e-05
-0.000176997
3.09606e-05
-0.00017573
3.46444e-05
-0.000179211
4.7613e-05
-0.000199167
7.3088e-05
-0.000187435
5.22309e-05
-0.000190961
2.64738e-05
-0.000201844
-1.64741e-05
-0.000223071
9.06577e-06
-0.000351026
1.64017e-05
-0.00021576
0.000121526
-0.000315211
7.03711e-05
-0.000223777
1.89675e-05
5.67331e-05
-1.10103e-05
0.000140535
-3.14127e-05
0.0001428
-4.59388e-05
0.000166412
-4.44556e-05
0.00017209
-3.17483e-05
0.000180497
-1.91864e-05
0.000183799
0.000178129
-1.95251e-06
5.16081e-06
-0.000174309
1.35475e-05
-0.000184207
1.77966e-05
-0.000179726
1.88198e-05
-0.00017802
1.84773e-05
-0.000175388
1.10871e-05
-0.00017182
-1.8065e-05
-0.000170015
-1.79176e-06
-0.000203708
1.65614e-05
-0.000209314
2.23954e-05
-0.000207678
1.53091e-05
-0.000215985
2.85563e-05
-0.000364274
2.4147e-05
-0.000211351
4.84969e-05
-0.000339561
2.44163e-05
-0.000199697
2.39115e-06
7.87584e-05
-1.22281e-05
0.000155154
-2.93193e-05
0.00015989
-3.38501e-05
0.000170942
-3.32412e-05
0.000171482
-2.43045e-05
0.00017156
-1.89919e-05
0.000178486
0.000172349
-1.32122e-05
6.27052e-06
-0.00018058
1.53999e-05
-0.000193337
1.65578e-05
-0.000180883
1.36178e-05
-0.00017508
1.74467e-05
-0.000179217
8.25663e-06
-0.00016263
-1.84311e-05
-0.000143327
-9.22071e-06
-0.000212918
2.64912e-06
-0.000221184
1.99788e-05
-0.000225008
4.15958e-05
-0.000237602
3.87119e-05
-0.00036139
4.6626e-05
-0.000219265
-2.41282e-05
-0.000268807
6.9173e-06
-0.000230742
4.5459e-05
4.02166e-05
9.17815e-06
0.000191435
-1.7486e-05
0.000186554
-2.65136e-05
0.00017997
-2.51846e-05
0.000170152
-2.83883e-05
0.000174763
-1.99204e-05
0.000170018
0.000237568
-8.5139e-05
2.98236e-06
-0.000183562
1.70189e-06
-0.000192056
9.70992e-06
-0.000188891
1.26539e-05
-0.000178024
1.53782e-05
-0.000181941
2.49292e-05
-0.000172181
3.89956e-05
-0.000157394
4.08095e-05
-0.000214732
3.43944e-05
-0.000214769
6.60431e-05
-0.000256657
0.000120582
-0.000292141
6.73782e-05
-0.000308186
7.52804e-05
-0.000227167
3.69831e-05
-0.00023051
6.42776e-05
-0.000258037
6.5731e-05
3.87633e-05
8.8547e-06
0.000248312
-2.39312e-05
0.00021934
-3.08901e-05
0.000186929
-3.25461e-05
0.000171808
-2.59966e-05
0.000168214
-9.65032e-05
0.000240525
0.000205982
-6.49171e-05
2.38811e-06
-0.00018595
-1.10726e-07
-0.000189558
3.43289e-06
-0.000192435
8.77657e-06
-0.000183368
1.56551e-05
-0.000188819
2.58712e-05
-0.000182398
6.33435e-05
-0.000194866
6.96815e-05
-0.00022107
0.000165239
-0.000310326
0.000143671
-0.000235088
0.000130687
-0.000279158
0.000102389
-0.000279887
9.16539e-05
-0.000216432
0.000120259
-0.000259114
-1.69095e-05
-0.000120869
-6.99173e-05
9.1771e-05
-5.47412e-05
0.000233135
-5.21106e-05
0.000216709
-5.43005e-05
0.000189119
-3.43629e-05
0.00015187
-0.00010882
0.000242671
-6.79884e-05
0.000199693
0.000204015
-6.60218e-05
-5.79075e-06
-0.00018016
-1.32129e-05
-0.000182135
-1.08282e-05
-0.00019482
-1.07061e-05
-0.00018349
-9.88276e-06
-0.000189643
1.98028e-07
-0.000192478
2.56952e-05
-0.000220363
6.01304e-05
-0.000255506
5.48272e-05
-0.000305023
0.000187971
-0.000368232
0.000153748
-0.000244935
9.58635e-05
-0.000222002
4.36858e-05
-0.000164254
-3.71815e-05
-0.000178247
-0.00011097
-4.70805e-05
-0.00016192
0.000142722
-0.000147914
0.000219129
-8.54421e-05
0.000154237
-0.000128556
0.000232233
-0.000151842
0.000175156
-8.78281e-05
0.000178657
-7.1149e-05
0.000183014
0.000194537
-6.16715e-05
-8.78085e-06
-0.000171379
-1.82053e-05
-0.000172711
-1.49238e-05
-0.000198101
-1.8978e-05
-0.000179436
-2.48403e-05
-0.00018378
-2.53268e-05
-0.000191992
-1.38868e-05
-0.000231803
-7.27499e-06
-0.000262117
-4.40146e-06
-0.000307897
1.41408e-05
-0.000386775
1.37489e-05
-0.000244543
-4.6509e-05
-0.000161744
-9.16257e-05
-0.000119138
-0.000137644
-0.000132229
-0.000200424
1.56998e-05
-0.000250951
0.000193249
-0.000167489
0.000135667
-0.000209674
0.000196422
-0.00016384
0.000186398
-0.000147985
0.000159301
-0.000130987
0.000161659
-0.000120069
0.000172096
0.000178257
-0.000103789
-9.4805e-06
-0.000161898
-1.97224e-05
-0.000162469
-1.69234e-05
-0.0002009
-1.88953e-05
-0.000177464
-3.3439e-05
-0.000169237
-4.81453e-05
-0.000177286
-5.05898e-05
-0.000229358
-6.00865e-05
-0.000252621
-6.71344e-05
-0.000300849
-0.000108809
-0.0003451
-0.000150872
-0.00020248
-0.000149639
-0.000162977
-0.000157296
-0.000111481
-0.000185594
-0.000103931
-0.000266585
9.66905e-05
-0.000258008
0.000184672
-0.00028148
0.000159139
-0.000219362
0.000134304
-0.000178929
0.000145965
-0.000157405
0.000137778
-0.000142602
0.000146856
-0.00012617
0.000155664
0.000152476
-0.000100388
-1.48584e-05
-0.00014704
-3.44316e-05
-0.000142896
-4.08515e-06
-0.000231247
-3.33082e-05
-0.000148241
-3.71901e-05
-0.000165355
-4.04566e-05
-0.000174019
-9.71938e-05
-0.000172621
-6.12714e-05
-0.000288543
-0.000157601
-0.000204519
-0.00019071
-0.000311991
-0.000221931
-0.000171259
-0.000210715
-0.000174192
-0.000223471
-9.87262e-05
-0.000298733
-2.86679e-05
-0.000250005
4.79622e-05
-0.000198724
0.00013339
-0.000170755
0.00013117
-0.000186551
0.000150101
-0.000169072
0.000128485
-0.000155597
0.000124304
-0.000138298
0.000129557
-0.000113184
0.000130549
0.000124487
-8.51952e-05
3.89154e-06
-0.000150931
9.10409e-06
-0.000148108
-5.14119e-05
-0.000170731
-3.89805e-05
-0.000160672
-4.1862e-05
-0.000162473
-5.26956e-05
-0.000163185
-4.86175e-05
-0.000176699
-0.00015525
-0.00018191
-8.29947e-05
-0.000276775
-0.000206507
-0.00018848
-0.000194315
-0.000183451
-0.000236207
-0.0001323
-0.000228259
-0.000106674
-0.000263006
6.07983e-06
-0.000250441
3.53966e-05
-0.000202415
8.53648e-05
-0.0001651
9.38549e-05
-0.000127347
0.000112347
-0.000104506
0.000105644
-9.1165e-05
0.000110963
-7.68443e-05
0.000115237
-6.29055e-05
0.00011661
0.000112488
-5.09063e-05
-5.97619e-06
-0.000144955
-8.45554e-06
-0.000145629
-2.49446e-05
-0.000154242
-3.4756e-05
-0.000150861
-4.46565e-05
-0.000152573
-5.91211e-05
-0.000148721
-0.000101816
-0.000134005
-0.000142836
-0.00014089
-0.000185836
-0.000233775
-0.000117627
-0.000256688
-0.000162061
-0.000139017
-0.00021186
-8.25011e-05
-0.000292022
-2.65123e-05
-0.000279198
-6.74486e-06
-0.000242284
-1.51671e-06
-0.00019154
3.46208e-05
-0.000158091
6.04052e-05
-0.000127887
8.21428e-05
-0.00010857
8.63269e-05
-9.1604e-05
9.39967e-05
-7.67804e-05
0.000100413
-6.42768e-05
0.000104106
0.000101633
-5.3421e-05
-6.848e-06
-0.000138107
-1.3921e-05
-0.000138556
-2.9356e-05
-0.000138807
-4.25679e-05
-0.000137649
-6.6907e-05
-0.000128234
-7.83253e-05
-0.000137302
-9.59318e-05
-0.000116398
-5.72627e-05
-0.000179559
-9.27097e-05
-0.000198328
-0.000234025
-0.000115373
-0.000264067
-0.000108975
-0.000278005
-6.85633e-05
-0.000262231
-4.2287e-05
-0.000242558
-2.64177e-05
-0.000222078
-2.19965e-05
-0.000173673
-1.37842e-05
-0.000149549
3.62813e-05
-0.000122662
5.5255e-05
-0.000108562
7.22271e-05
-9.36825e-05
7.91174e-05
-7.97756e-05
8.6506e-05
-6.55753e-05
8.9906e-05
8.92839e-05
-5.32266e-05
-1.29759e-05
-0.000125131
-2.40101e-05
-0.000127522
-3.83631e-05
-0.000124454
-7.12479e-05
-0.000104764
-3.02035e-05
-0.000169278
-6.14076e-05
-0.000106098
-3.03066e-05
-0.000147499
-6.07361e-05
-0.000149129
-9.17747e-05
-0.00016729
-0.0001083
-9.88477e-05
-0.000156996
-6.02782e-05
-0.000175245
-5.03146e-05
-0.000185725
-3.18068e-05
-0.000186136
-2.60064e-05
-0.000184417
-2.37159e-05
-0.000142355
-5.58459e-05
-0.000135662
2.95884e-05
-0.000118544
3.81362e-05
-0.000105188
5.88715e-05
-8.95248e-05
6.3454e-05
-7.54842e-05
7.24653e-05
-6.45538e-05
7.89756e-05
7.98185e-05
-5.50884e-05
-1.49034e-05
-0.000110228
-2.71223e-05
-0.000115303
-4.78552e-05
-0.000103721
-1.8006e-05
-0.000134613
-5.00018e-05
-0.000137283
-2.45092e-05
-0.000131591
-4.55908e-05
-0.000126417
-6.68602e-05
-0.00012786
-9.29516e-05
-0.000141198
-0.000136207
-5.55927e-05
-0.000148986
-4.74985e-05
-0.000160591
-3.871e-05
-0.000160856
-3.1542e-05
-0.000160755
-2.61072e-05
-0.000147907
-3.65636e-05
-0.00017595
-2.78032e-05
-0.000132901
-1.34609e-05
-0.000118767
2.40024e-05
-9.75504e-05
3.76549e-05
-8.80386e-05
5.39422e-05
-7.68916e-05
6.13182e-05
-6.49715e-05
6.70557e-05
6.83764e-05
-5.35293e-05
-3.7747e-06
-0.000106453
-6.55666e-06
-0.000112521
5.74446e-07
-0.000110852
-1.56555e-05
-0.000118383
-3.17931e-05
-0.000121145
-4.99105e-05
-0.000113473
-4.61733e-05
-0.000130155
-8.14151e-05
-9.26183e-05
-0.00014285
-7.97635e-05
-0.000137154
-6.12887e-05
-0.000134297
-5.03555e-05
-0.000132529
-4.04779e-05
-0.000130309
-3.37621e-05
-0.000126536
-2.98803e-05
-0.000122211
-4.08888e-05
-0.00012637
-2.3644e-05
-9.70631e-05
-4.27675e-05
-0.000108307
3.52467e-05
-0.000104025
3.33721e-05
-8.61748e-05
3.60923e-05
-6.84235e-05
4.35669e-05
-6.23701e-05
6.10022e-05
6.09111e-05
-5.49048e-05
-4.52256e-06
-0.000101931
-8.92874e-06
-0.000108115
-1.383e-05
-0.000105951
-2.15888e-05
-0.000110625
-3.95684e-05
-0.000103165
-3.90055e-05
-0.000114036
-7.54808e-05
-9.36793e-05
-7.78282e-05
-9.02709e-05
-9.79819e-05
-5.96098e-05
-0.000102949
-5.63214e-05
-0.000110499
-4.28056e-05
-0.000113691
-3.72864e-05
-0.000117115
-3.03377e-05
-0.000105566
-4.14296e-05
-0.00010923
-3.72244e-05
-0.000113484
-1.939e-05
-0.000138852
-1.73999e-05
-9.23154e-05
-1.12896e-05
-9.64989e-05
3.75556e-05
-9.1954e-05
3.15475e-05
-8.42179e-05
3.58308e-05
-6.5195e-05
4.19793e-05
4.57872e-05
-5.00712e-05
-2.30334e-06
-9.96274e-05
-3.02357e-06
-0.000107395
1.42484e-07
-0.000109117
-2.7718e-05
-8.27643e-05
-4.09453e-05
-8.99381e-05
-6.23241e-05
-9.26574e-05
-6.67437e-05
-8.92598e-05
-9.10403e-05
-6.59742e-05
-9.36284e-05
-5.70218e-05
-9.91256e-05
-5.08242e-05
-0.000100772
-4.11594e-05
-0.000102726
-3.53318e-05
-0.000103937
-2.91267e-05
-0.000104675
-4.06919e-05
-0.000106721
-3.51783e-05
-0.000103409
-2.2702e-05
-0.000109676
-1.11326e-05
-0.000116045
-4.92041e-06
-8.09502e-05
2.46046e-06
-7.69854e-05
2.75825e-05
-6.93064e-05
2.81517e-05
-6.59339e-05
3.86066e-05
4.17489e-05
-6.18957e-05
-8.80259e-06
-9.08248e-05
-2.24329e-05
-9.37645e-05
-3.81315e-05
-9.34183e-05
-3.39521e-05
-8.69437e-05
-3.61828e-05
-8.77074e-05
-4.42422e-05
-8.4598e-05
-5.99931e-05
-7.35088e-05
-7.41711e-05
-5.17961e-05
-7.70239e-05
-5.41689e-05
-8.38036e-05
-4.40445e-05
-8.58458e-05
-3.91171e-05
-8.84821e-05
-3.26955e-05
-8.86638e-05
-2.8945e-05
-8.87132e-05
-4.06425e-05
-9.00549e-05
-3.38366e-05
-9.17276e-05
-2.10293e-05
-9.43001e-05
-8.56014e-06
-9.64841e-05
-2.73652e-06
-9.28439e-05
-1.17978e-06
-7.16941e-05
6.43256e-06
-6.77778e-05
2.42353e-05
-5.86193e-05
2.9448e-05
3.35728e-05
-5.04432e-05
-6.19788e-06
-8.4627e-05
-1.33118e-05
-8.66506e-05
-2.10824e-05
-8.56477e-05
-2.8825e-05
-7.9201e-05
-3.79617e-05
-7.85706e-05
-4.75633e-05
-7.49964e-05
-6.58331e-05
-5.5239e-05
-6.67437e-05
-5.08855e-05
-7.32548e-05
-4.76577e-05
-7.63706e-05
-4.09286e-05
-7.88578e-05
-3.66299e-05
-8.06151e-05
-3.09382e-05
-8.23339e-05
-2.72262e-05
-8.33513e-05
-3.96251e-05
-8.30822e-05
-3.41058e-05
-8.0639e-05
-2.34726e-05
-7.36463e-05
-1.55529e-05
-7.14149e-05
-4.9679e-06
-7.10373e-05
-1.55745e-06
-5.21877e-05
-1.24171e-05
-6.11612e-05
3.32089e-05
-5.65397e-05
2.48265e-05
2.74836e-05
-5.04505e-05
-7.1052e-06
-7.75218e-05
-1.53336e-05
-7.84222e-05
-2.43917e-05
-7.65896e-05
-2.95927e-05
-7.4e-05
-3.55927e-05
-7.25705e-05
-5.33565e-05
-5.72326e-05
-5.65207e-05
-5.20747e-05
-5.93447e-05
-4.80615e-05
-6.32181e-05
-4.37842e-05
-6.53418e-05
-3.88049e-05
-6.75514e-05
-3.44203e-05
-6.84707e-05
-3.00189e-05
-6.85705e-05
-2.71265e-05
-7.13766e-05
-3.6819e-05
-7.18585e-05
-3.36239e-05
-7.11349e-05
-2.41962e-05
-7.09413e-05
-1.57465e-05
-7.00176e-05
-5.89155e-06
-6.87333e-05
-2.84173e-06
-8.13716e-05
2.21228e-07
-5.38014e-05
5.63869e-06
-5.14735e-05
2.24986e-05
2.1284e-05
-4.52739e-05
-6.34418e-06
-7.11777e-05
-1.34355e-05
-7.13308e-05
-2.00608e-05
-6.99644e-05
-2.61851e-05
-6.78758e-05
-4.238e-05
-5.63756e-05
-4.69637e-05
-5.26488e-05
-5.03335e-05
-4.87049e-05
-5.32364e-05
-4.51585e-05
-5.56983e-05
-4.13224e-05
-5.68364e-05
-3.76667e-05
-5.79266e-05
-3.33302e-05
-5.7581e-05
-3.03645e-05
-5.78392e-05
-2.68683e-05
-6.95693e-05
-2.50889e-05
-6.83104e-05
-3.48827e-05
-6.51391e-05
-2.73674e-05
-6.27561e-05
-1.81295e-05
-5.83352e-05
-1.03124e-05
-5.93685e-05
-1.8084e-06
-6.01453e-05
9.98109e-07
-6.08954e-05
6.38872e-06
-4.69938e-05
8.597e-06
1.9499e-05
-4.52089e-05
-6.12629e-06
-6.50513e-05
-1.33062e-05
-6.4151e-05
-1.93203e-05
-6.39502e-05
-3.23767e-05
-5.48193e-05
-3.64636e-05
-5.22887e-05
-4.00968e-05
-4.90155e-05
-4.32751e-05
-4.55265e-05
-4.60425e-05
-4.23911e-05
-4.8396e-05
-3.89688e-05
-5.02966e-05
-3.57662e-05
-5.14782e-05
-3.21485e-05
-5.28873e-05
-2.89554e-05
-5.3725e-05
-2.60306e-05
-5.46332e-05
-2.41806e-05
-5.5893e-05
-3.3623e-05
-5.60029e-05
-2.72575e-05
-5.49331e-05
-1.91994e-05
-5.31257e-05
-1.21197e-05
-5.14891e-05
-3.44501e-06
-5.02654e-05
-2.25591e-07
-5.09729e-05
7.09629e-06
-3.86306e-05
-3.74523e-06
2.00356e-05
-3.91671e-05
-7.23237e-06
-5.78188e-05
-1.43828e-05
-5.70006e-05
-2.2759e-05
-5.55739e-05
-2.70838e-05
-5.04945e-05
-3.04215e-05
-4.8951e-05
-3.39946e-05
-4.54423e-05
-3.65953e-05
-4.29258e-05
-3.91758e-05
-3.98105e-05
-4.12287e-05
-3.69158e-05
-4.31452e-05
-3.38495e-05
-4.46631e-05
-3.06306e-05
-4.58064e-05
-2.78121e-05
-4.77006e-05
-2.41364e-05
-5.04479e-05
-2.14332e-05
-5.03215e-05
-3.37494e-05
-4.97232e-05
-2.78558e-05
-4.84733e-05
-2.04493e-05
-4.66343e-05
-1.39587e-05
-4.62773e-05
-3.80199e-06
-4.55078e-05
-9.95099e-07
-4.1418e-05
3.00666e-06
-4.85559e-05
3.39268e-06
9.49871e-06
-3.80189e-05
-6.98698e-06
-5.08319e-05
-1.33478e-05
-5.06398e-05
-1.91345e-05
-4.97872e-05
-2.22876e-05
-4.73414e-05
-2.60744e-05
-4.51642e-05
-2.87744e-05
-4.27423e-05
-3.14483e-05
-4.02518e-05
-3.35586e-05
-3.77002e-05
-3.55085e-05
-3.49659e-05
-3.70867e-05
-3.22714e-05
-3.84214e-05
-2.92959e-05
-3.96607e-05
-2.65728e-05
-4.04824e-05
-2.33147e-05
-4.11252e-05
-2.07904e-05
-4.20094e-05
-3.28653e-05
-4.24144e-05
-2.74507e-05
-4.28066e-05
-2.00572e-05
-4.20271e-05
-1.47381e-05
-3.82602e-05
-7.56886e-06
-3.79843e-05
-1.27093e-06
-3.78795e-05
2.90195e-06
-3.9656e-05
5.16925e-06
-3.20779e-07
-2.98364e-05
-4.53511e-06
-4.62969e-05
-8.7899e-06
-4.63851e-05
-1.30625e-05
-4.55146e-05
-1.69988e-05
-4.34052e-05
-2.01092e-05
-4.20538e-05
-2.30801e-05
-3.97714e-05
-2.54626e-05
-3.78693e-05
-2.77193e-05
-3.54434e-05
-2.95477e-05
-3.31375e-05
-3.1222e-05
-3.05971e-05
-3.25554e-05
-2.79624e-05
-3.37686e-05
-2.53596e-05
-3.46584e-05
-2.24249e-05
-3.56979e-05
-1.97508e-05
-3.59978e-05
-3.25655e-05
-3.60901e-05
-2.73584e-05
-3.52513e-05
-2.0896e-05
-3.41575e-05
-1.58318e-05
-3.24683e-05
-9.25803e-06
-3.11567e-05
-2.58251e-06
-2.80779e-05
-1.76804e-07
-2.8135e-05
5.22637e-06
-3.79835e-06
-2.46575e-05
-3.9555e-06
-4.23414e-05
-7.75434e-06
-4.25862e-05
-1.13968e-05
-4.18723e-05
-1.41493e-05
-4.06527e-05
-1.69903e-05
-3.92129e-05
-1.91859e-05
-3.75758e-05
-2.13416e-05
-3.57135e-05
-2.30493e-05
-3.37357e-05
-2.4622e-05
-3.15647e-05
-2.58917e-05
-2.93274e-05
-2.69792e-05
-2.68749e-05
-2.78981e-05
-2.44405e-05
-2.86089e-05
-2.17141e-05
-2.91893e-05
-1.91703e-05
-2.98696e-05
-3.18852e-05
-3.02726e-05
-2.69554e-05
-3.02635e-05
-2.09051e-05
-2.98636e-05
-1.62318e-05
-2.84973e-05
-1.06243e-05
-2.73356e-05
-3.74424e-06
-2.7248e-05
-2.64481e-07
-2.23174e-05
2.95657e-07
8.21444e-06
-3.43303e-05
-2.63893e-06
-3.97025e-05
-5.20757e-06
-4.00176e-05
-7.69872e-06
-3.93812e-05
-1.01259e-05