/*--------------------------------*- C++ -*----------------------------------*\
| =========                 |                                                 |
| \\      /  F ield         | foam-extend: Open Source CFD                    |
|  \\    /   O peration     | Version:     4.1                                |
|   \\  /    A nd           | Web:         http://www.foam-extend.org         |
|    \\/     M anipulation  |                                                 |
\*---------------------------------------------------------------------------*/
FoamFile
{
    version     2.0;
    format      ascii;
    class       surfaceScalarField;
    location    "0.15";
    object      phi_0;
}
// * * * * * * * * * * * * * * * * * * * * * * * * * * * * * * * * * * * * * //

dimensions      [0 3 -1 0 0 0 0];

internalField   nonuniform List<scalar> 
4432
(
5.95858e-06
-5.95858e-06
1.17532e-05
-5.79458e-06
1.82352e-05
-6.48204e-06
2.33429e-05
-5.10771e-06
3.10094e-05
-7.66647e-06
3.62453e-05
-5.23592e-06
4.22487e-05
-6.0034e-06
4.80038e-05
-5.75508e-06
5.24313e-05
-4.4275e-06
5.51863e-05
-2.75498e-06
8.36489e-05
-2.84626e-05
9.67898e-05
-1.31409e-05
0.000104435
-7.64516e-06
0.000114303
-9.86833e-06
0.000119103
-4.80002e-06
0.000120449
-1.3454e-06
0.000118664
1.78479e-06
0.000115095
3.56902e-06
0.000109798
5.29686e-06
9.95515e-05
1.02465e-05
7.63489e-05
2.32027e-05
4.73094e-05
2.90394e-05
4.73094e-05
5.97053e-06
-1.19291e-05
1.18032e-05
-1.16272e-05
1.82764e-05
-1.29553e-05
2.34412e-05
-1.02724e-05
3.11123e-05
-1.53376e-05
3.63481e-05
-1.04718e-05
4.23832e-05
-1.20384e-05
4.82457e-05
-1.16176e-05
5.25561e-05
-8.73789e-06
5.57475e-05
-5.94639e-06
8.21332e-05
-5.48483e-05
9.5454e-05
-2.64617e-05
0.000103378
-1.55693e-05
0.000111348
-1.78387e-05
0.000116038
-9.48974e-06
0.000118224
-3.53143e-06
0.000118771
1.23835e-06
0.000115444
6.89554e-06
0.000109607
1.11335e-05
9.93969e-05
2.04571e-05
7.92625e-05
4.3337e-05
5.04948e-05
5.78071e-05
9.78042e-05
5.94796e-06
-1.78771e-05
1.18129e-05
-1.74922e-05
1.82289e-05
-1.93712e-05
2.34264e-05
-1.547e-05
3.10923e-05
-2.30035e-05
3.6413e-05
-1.57924e-05
4.22715e-05
-1.78969e-05
4.98204e-05
-1.91665e-05
5.17441e-05
-1.06615e-05
9.13126e-05
-4.55149e-05
8.58802e-05
-4.94159e-05
9.565e-05
-3.62315e-05
0.000103013
-2.29324e-05
0.000108506
-2.33314e-05
0.000113842
-1.48258e-05
0.000117974
-7.66349e-06
0.000121554
-2.34186e-06
0.000121621
6.82837e-06
0.000115448
1.7307e-05
0.000103044
3.28608e-05
7.79684e-05
6.84128e-05
5.41179e-05
8.16575e-05
0.000151922
5.92622e-06
-2.38033e-05
1.18465e-05
-2.34125e-05
1.81545e-05
-2.56792e-05
2.35614e-05
-2.08769e-05
3.1096e-05
-3.05381e-05
3.62743e-05
-2.09708e-05
4.44923e-05
-2.61149e-05
4.86541e-05
-2.33283e-05
8.06335e-05
-4.2641e-05
8.38088e-05
-4.86902e-05
8.58715e-05
-5.14786e-05
9.41154e-05
-4.44754e-05
9.92429e-05
-2.80599e-05
0.000105924
-3.00128e-05
0.000112917
-2.18186e-05
0.000120024
-1.47703e-05
0.000124297
-6.61452e-06
0.000124968
6.1568e-06
0.000120514
2.1761e-05
0.000107309
4.60657e-05
8.37504e-05
9.19717e-05
5.88897e-05
0.000106518
0.000210812
5.88143e-06
-2.96847e-05
1.1879e-05
-2.94101e-05
1.80609e-05
-3.18611e-05
2.37543e-05
-2.65703e-05
3.08093e-05
-3.75931e-05
3.65878e-05
-2.67493e-05
4.44322e-05
-3.39594e-05
4.74662e-05
-2.63622e-05
7.34957e-05
-6.86705e-05
7.85573e-05
-5.37518e-05
8.26588e-05
-5.55801e-05
9.07808e-05
-5.25974e-05
9.80688e-05
-3.53478e-05
0.000108853
-4.07969e-05
0.000116392
-2.93572e-05
0.000123568
-2.19464e-05
0.000129443
-1.24898e-05
0.000131899
3.70089e-06
0.000133193
2.0467e-05
0.000113423
6.58356e-05
8.88616e-05
0.000116533
4.35049e-05
0.000151875
0.000254317
5.86376e-06
-3.55485e-05
1.18986e-05
-3.54449e-05
1.81002e-05
-3.80626e-05
2.38593e-05
-3.23295e-05
3.07167e-05
-4.44505e-05
3.83775e-05
-3.44101e-05
4.23529e-05
-3.79348e-05
6.9914e-05
-5.39233e-05
6.87333e-05
-6.74898e-05
7.60684e-05
-6.10868e-05
8.37058e-05
-6.32175e-05
9.18406e-05
-6.07323e-05
0.000101539
-4.50464e-05
0.000112063
-5.13202e-05
0.00011879
-3.60849e-05
0.000126721
-2.98766e-05
0.000135513
-2.12822e-05
0.000138398
8.16115e-07
0.000137311
2.15535e-05
0.000119886
8.32609e-05
0.000100191
0.000136228
4.88566e-05
0.000203209
0.000303173
5.78971e-06
-4.13382e-05
1.19382e-05
-4.15934e-05
1.83367e-05
-4.44611e-05
2.41279e-05
-3.81206e-05
3.15562e-05
-5.18788e-05
3.60899e-05
-3.89439e-05
3.8444e-05
-4.02888e-05
6.25947e-05
-7.8074e-05
6.70204e-05
-7.19155e-05
7.62906e-05
-7.0357e-05
8.57023e-05
-7.26293e-05
9.4698e-05
-6.9728e-05
0.000105343
-5.56918e-05
0.00011375
-5.97269e-05
0.000121442
-4.37765e-05
0.000132313
-4.07484e-05
0.000141903
-3.08718e-05
0.000144199
-1.47944e-06
0.000143702
2.20503e-05
0.00013221
9.47525e-05
0.00011146
0.000156978
5.11841e-05
0.000263485
0.000354357
5.81245e-06
-4.71507e-05
1.20418e-05
-4.78228e-05
1.83107e-05
-5.07301e-05
2.46825e-05
-4.44925e-05
3.14526e-05
-5.86489e-05
3.30589e-05
-4.05502e-05
5.95752e-05
-6.68051e-05
6.20059e-05
-8.05047e-05
6.89276e-05
-7.88372e-05
8.03148e-05
-8.17442e-05
8.9309e-05
-8.16235e-05
9.75137e-05
-7.79327e-05
0.000108613
-6.67906e-05
0.000119134
-7.02481e-05
0.000128517
-5.31601e-05
0.000138312
-5.05428e-05
0.000147393
-3.99533e-05
0.000149538
-3.62476e-06
0.000149833
2.17562e-05
0.000141419
0.000103166
0.000127434
0.000170963
5.32584e-05
0.000337661
0.000407616
-1.11218e-05
1.11218e-05
-2.22708e-05
1.11489e-05
-2.7658e-05
5.38718e-06
-2.9072e-05
1.414e-06
-2.74869e-05
-1.58518e-06
-2.57664e-05
-1.72044e-06
-2.35711e-05
-2.19542e-06
-2.06941e-05
-2.87684e-06
-1.8135e-05
-2.55937e-06
-1.54502e-05
-2.68489e-06
-1.2891e-05
-2.55955e-06
-1.06677e-05
-2.22312e-06
-6.12899e-06
-4.53859e-06
-6.64606e-06
5.17036e-07
-3.12587e-06
-3.52014e-06
-2.02602e-06
-1.09967e-06
-1.12591e-06
-9.00295e-07
-5.38512e-07
-5.87464e-07
-5.38576e-07
-1.19609e-05
2.30827e-05
-2.43645e-05
2.35524e-05
-2.91193e-05
1.01419e-05
-2.93792e-05
1.67389e-06
-2.73191e-05
-3.64533e-06
-2.51722e-05
-3.86733e-06
-2.27849e-05
-4.58295e-06
-1.98135e-05
-5.8481e-06
-1.71598e-05
-5.21361e-06
-1.43394e-05
-5.5052e-06
-1.16715e-05
-5.22744e-06
-9.66144e-06
-4.23303e-06
-9.46346e-06
-4.73658e-06
-4.46249e-06
-4.48377e-06
-2.64528e-06
-5.33747e-06
-1.67593e-06
-2.06906e-06
-9.40051e-07
-1.63637e-06
-4.39463e-07
-1.08749e-06
-9.78125e-07
-1.43947e-05
3.74774e-05
-2.66425e-05
3.58e-05
-3.06598e-05
1.4159e-05
-3.07802e-05
1.79428e-06
-2.79079e-05
-6.51775e-06
-2.56158e-05
-6.15917e-06
-2.29902e-05
-7.20875e-06
-1.98412e-05
-8.99683e-06
-1.70401e-05
-8.01475e-06
-1.40614e-05
-8.48382e-06
-1.14122e-05
-7.87693e-06
-8.90591e-06
-6.73921e-06
-4.51833e-06
-9.12409e-06
-3.07685e-06
-5.92516e-06
-2.39099e-06
-6.02341e-06
-1.57362e-06
-2.88631e-06
-8.81972e-07
-2.32819e-06
-4.10617e-07
-1.55847e-06
-1.38885e-06
-1.9063e-05
5.65403e-05
-3.24145e-05
4.91514e-05
-3.34591e-05
1.52035e-05
-3.2513e-05
8.48263e-07
-2.97018e-05
-9.32911e-06
-2.67012e-05
-9.15935e-06
-2.33029e-05
-1.06071e-05
-1.99186e-05
-1.2381e-05
-1.69361e-05
-1.09977e-05
-1.38782e-05
-1.15418e-05
-1.04771e-05
-1.12779e-05
-5.56639e-06
-1.16496e-05
-4.23074e-06
-1.04599e-05
-2.87087e-06
-7.28518e-06
-2.18956e-06
-6.70476e-06
-1.43509e-06
-3.64048e-06
-8.27349e-07
-2.93605e-06
-3.78351e-07
-2.00724e-06
-1.76731e-06
-2.16803e-05
7.82206e-05
-3.82486e-05
6.57196e-05
-3.80073e-05
1.49622e-05
-3.6175e-05
-9.83895e-07
-2.99395e-05
-1.55648e-05
-2.71972e-05
-1.19014e-05
-2.35729e-05
-1.42316e-05
-1.98307e-05
-1.61233e-05
-1.67311e-05
-1.40974e-05
-1.37879e-05
-1.4485e-05
-1.09624e-05
-1.41034e-05
-3.77868e-06
-1.88333e-05
-6.42648e-06
-7.81212e-06
-2.93511e-06
-1.07765e-05
-2.09429e-06
-7.54562e-06
-1.32232e-06
-4.41226e-06
-7.93315e-07
-3.46522e-06
-4.87949e-07
-2.31245e-06
-2.25536e-06
-3.44354e-05
0.000112656
-4.96569e-05
8.0941e-05
-4.30359e-05
8.3411e-06
-3.84788e-05
-5.54093e-06
-3.48871e-05
-1.9157e-05
-2.95197e-05
-1.72688e-05
-2.35426e-05
-2.0209e-05
-1.93441e-05
-2.03219e-05
-1.66369e-05
-1.68047e-05
-1.37118e-05
-1.74101e-05
-4.59364e-06
-2.32216e-05
-3.67028e-06
-1.97567e-05
-3.31213e-06
-8.17027e-06
-2.52171e-06
-1.15667e-05
-1.81026e-06
-8.25711e-06
-1.153e-06
-5.06942e-06
-7.01555e-07
-3.91686e-06
-3.11862e-07
-2.702e-06
-2.56733e-06
-3.96699e-05
0.000152326
-6.30419e-05
0.000104313
-5.86553e-05
3.95412e-06
-2.53647e-05
-3.88318e-05
-3.50704e-05
-9.45155e-06
-2.91563e-05
-2.31826e-05
-2.41828e-05
-2.51824e-05
-1.99582e-05
-2.45462e-05
-1.64667e-05
-2.02962e-05
-5.83353e-06
-2.80431e-05
-4.16845e-06
-2.48866e-05
-4.59258e-06
-1.93327e-05
-2.94095e-06
-9.82187e-06
-2.15808e-06
-1.23493e-05
-1.58537e-06
-8.82978e-06
-1.03096e-06
-5.62369e-06
-6.22641e-07
-4.32534e-06
-2.84126e-07
-3.04037e-06
-2.85155e-06
-6.11063e-05
0.000213432
-4.70165e-05
9.02231e-05
-3.79862e-05
-5.07634e-06
-2.85269e-05
-4.82907e-05
-2.09433e-05
-1.70349e-05
-1.64445e-05
-2.76811e-05
-1.23879e-05
-2.9239e-05
-1.05052e-05
-2.64288e-05
-7.47849e-06
-2.33233e-05
-5.87826e-06
-2.96433e-05
-7.79446e-06
-2.29704e-05
-3.23133e-06
-2.38959e-05
-2.37161e-06
-1.06816e-05
-1.74911e-06
-1.29717e-05
-1.28144e-06
-9.29746e-06
-8.65114e-07
-6.03989e-06
-5.16945e-07
-4.6736e-06
-2.40533e-07
-3.31667e-06
-3.09213e-06
1.20164e-05
-5.9167e-05
2.54727e-05
-6.12791e-05
3.54825e-05
-6.07398e-05
5.06682e-05
-5.96782e-05
6.00293e-05
-6.801e-05
0.000103712
-8.42328e-05
0.000121367
-8.44605e-05
0.000133402
-9.25399e-05
0.0001519
-9.73345e-05
0.000172892
-0.000102736
0.000191686
-0.000100418
0.00021151
-9.77566e-05
0.000241747
-9.70272e-05
0.000259738
-8.82391e-05
0.000278401
-7.18233e-05
0.000305233
-7.7375e-05
0.000333283
-6.80026e-05
0.000345431
-1.57729e-05
0.000361914
5.27308e-06
0.000341223
0.000123857
0.000222691
0.000289495
0.000163129
0.000397223
0.000276409
0.000294336
1.13641e-05
-7.05311e-05
2.59471e-05
-7.58621e-05
3.66041e-05
-7.13968e-05
6.76753e-05
-9.07495e-05
8.3779e-05
-8.41136e-05
9.82796e-05
-9.87334e-05
0.000115826
-0.000102007
0.000131108
-0.000107822
0.000151531
-0.000117757
0.00017173
-0.000122935
0.000190969
-0.000119658
0.000222461
-0.000129249
0.000247736
-0.000122302
0.000273197
-0.0001137
0.000272618
-7.12446e-05
0.000303662
-0.000108418
0.000330697
-9.50382e-05
0.000344158
-2.92334e-05
0.000287541
6.18895e-05
0.000264117
0.000147282
0.000224299
0.000329312
0.000346536
0.000274986
0.000304696
0.00031825
1.62692e-05
-8.68003e-05
3.2074e-05
-9.1667e-05
5.08107e-05
-9.01335e-05
6.3706e-05
-0.000103645
8.0867e-05
-0.000101275
9.49927e-05
-0.000112859
0.00011109
-0.000118104
0.000128636
-0.000125368
0.000147993
-0.000137114
0.000165647
-0.00014059
0.000189105
-0.000143115
0.000218322
-0.000158466
0.000232786
-0.000136767
0.000220997
-0.00010191
0.00025487
-0.000105118
0.000307404
-0.000160952
0.000369792
-0.000157426
0.000390805
-5.02466e-05
0.00041625
3.64444e-05
0.000401857
0.000161676
0.000367922
0.000363247
0.000340422
0.000302486
0.000328125
0.000316993
1.63011e-05
-0.000103101
3.1445e-05
-0.000106811
4.7859e-05
-0.000106548
5.97377e-05
-0.000115523
7.48801e-05
-0.000116417
8.94825e-05
-0.000127462
0.000104492
-0.000133113
0.000120181
-0.000141057
0.000139652
-0.000156585
0.000159754
-0.000160691
0.000188108
-0.000171469
0.000220236
-0.000190594
0.000187246
-0.000103777
0.000188829
-0.000103492
0.000254175
-0.000170465
0.000273054
-0.000179831
0.000262748
-0.00014712
0.000362738
-0.000150236
0.000394368
4.81437e-06
0.000389811
0.000166232
0.000357284
0.000395774
0.00035574
0.00030403
0.000507483
0.000176382
1.38057e-05
-0.000116907
2.6872e-05
-0.000119877
4.06621e-05
-0.000120338
5.34847e-05
-0.000128346
6.7952e-05
-0.000130884
8.0633e-05
-0.000140143
9.38222e-05
-0.000146303
0.000111173
-0.000158409
0.00012605
-0.000171462
0.000144534
-0.000179175
0.000161644
-0.000188579
0.000193965
-0.000222915
0.000207618
-0.00011743
0.000220507
-0.000116381
0.000265129
-0.000215087
0.000301268
-0.00021597
0.000257843
-0.000103696
0.000257622
-0.000150015
0.00029045
-2.80133e-05
0.000296475
0.000160207
0.000293361
0.000398888
0.000181151
0.000416241
0.000494808
0.000193826
1.2702e-05
-0.000129609
2.46431e-05
-0.000131818
3.80129e-05
-0.000133708
4.86662e-05
-0.000138999
6.03555e-05
-0.000142574
7.2072e-05
-0.000151859
8.49348e-05
-0.000159165
9.90466e-05
-0.00017252
0.000111785
-0.0001842
0.000127115
-0.000194505
0.000147764
-0.000209228
0.000179805
-0.000254957
0.000191986
-0.000129611
0.000207171
-0.000131566
0.000244833
-0.000252749
0.000282426
-0.000253563
0.000363213
-0.000184483
0.000275707
-6.25091e-05
0.00017103
7.66636e-05
0.000170591
0.000160645
0.000166236
0.000403243
0.000118465
0.000464012
0.000458504
0.000154769
1.08438e-05
-0.000140453
2.15419e-05
-0.000142516
3.21463e-05
-0.000144312
4.22763e-05
-0.000149129
5.3401e-05
-0.000153698
6.25653e-05
-0.000161023
7.34548e-05
-0.000170055
8.32471e-05
-0.000182313
9.04638e-05
-0.000191417
0.00010228
-0.000206322
0.000124963
-0.000231911
0.000152518
-0.000282511
0.000169891
-0.000146983
0.000190369
-0.000152045
0.000228912
-0.000291292
0.000244364
-0.000269014
0.000151314
-9.14332e-05
-7.43168e-06
9.62366e-05
-2.09087e-05
9.01405e-05
-3.35917e-05
0.000173328
4.3684e-05
0.000325968
9.18414e-05
0.000415854
0.000394451
0.000155895
9.73746e-06
-0.00015019
1.91983e-05
-0.000151977
2.92665e-05
-0.00015438
3.76437e-05
-0.000157506
4.6185e-05
-0.00016224
5.43732e-05
-0.000169212
6.31338e-05
-0.000178815
6.42579e-05
-0.000183437
6.79103e-05
-0.000195069
7.71713e-05
-0.000215583
0.000101471
-0.000256211
0.000125723
-0.000306763
0.000145178
-0.000166439
0.000169294
-0.00017616
0.000177461
-0.000299458
9.41651e-05
-0.000185718
-4.2481e-05
4.5213e-05
-4.24302e-05
9.61853e-05
-9.04195e-05
0.000138129
-0.000104457
0.000187366
-4.08147e-05
0.000262325
6.07584e-05
0.000314281
0.000331128
0.00012408
8.22098e-06
-0.000158411
1.68226e-05
-0.000160579
2.51243e-05
-0.000162682
3.24865e-05
-0.000164869
3.97297e-05
-0.000169483
4.45479e-05
-0.00017403
4.92976e-05
-0.000183565
4.34487e-05
-0.000177588
4.94899e-05
-0.00020111
6.0712e-05
-0.000226805
7.43795e-05
-0.000269878
8.9986e-05
-0.00032237
0.000113956
-0.000190408
0.000136483
-0.000198687
0.000109055
-0.000272031
-1.76452e-05
-5.90181e-05
-6.76785e-05
9.52463e-05
-9.35348e-05
0.000122042
-0.000106224
0.000150818
-9.59435e-05
0.000177085
-5.17145e-05
0.000218096
2.74826e-05
0.000235084
0.000243463
0.000115149
6.65879e-06
-0.00016507
1.47002e-05
-0.00016862
2.20702e-05
-0.000170052
2.86362e-05
-0.000171435
3.35732e-05
-0.00017442
3.73554e-05
-0.000177812
4.28958e-05
-0.000189105
3.33754e-05
-0.000168068
4.13066e-05
-0.000209041
3.9636e-05
-0.000225135
3.19379e-05
-0.00026218
3.65084e-05
-0.00032694
5.05154e-05
-0.000204415
5.76865e-05
-0.000205858
5.50349e-05
-0.000269379
-1.94522e-05
1.54687e-05
-4.19483e-05
0.000117742
-4.84139e-05
0.000128507
-5.54899e-05
0.000157894
-5.54026e-05
0.000176998
-3.30662e-05
0.00019576
3.28628e-06
0.000198731
0.000196309
5.044e-05
5.41521e-06
-0.000170485
1.34569e-05
-0.000176662
2.00569e-05
-0.000176652
2.68574e-05
-0.000178235
3.06016e-05
-0.000178164
3.4331e-05
-0.000181541
4.70364e-05
-0.000201811
7.3397e-05
-0.000194428
5.19114e-05
-0.000187556
2.64618e-05
-0.000199685
-1.50038e-05
-0.000220714
1.21971e-05
-0.000354141
1.68624e-05
-0.000209081
0.000121198
-0.000310194
6.75433e-05
-0.000215724
1.676e-05
6.62518e-05
-1.07036e-05
0.000145205
-2.95262e-05
0.00014733
-4.16724e-05
0.00017004
-3.94281e-05
0.000174754
-2.60691e-05
0.000182401
-1.31078e-05
0.00018577
0.000181065
2.13625e-06
5.17354e-06
-0.000175659
1.29196e-05
-0.000184408
1.7961e-05
-0.000181693
1.87458e-05
-0.00017902
1.85212e-05
-0.000177939
1.10319e-05
-0.000174052
-1.63403e-05
-0.000174439
2.07992e-06
-0.000212848
1.74128e-05
-0.000202889
2.21044e-05
-0.000204377
1.37951e-05
-0.000212405
2.82805e-05
-0.000368627
2.70227e-05
-0.000207823
4.48319e-05
-0.000328003
2.06605e-05
-0.000191553
5.81261e-07
8.63307e-05
-1.16312e-05
0.000157418
-2.72414e-05
0.00016294
-3.0579e-05
0.000173377
-2.93077e-05
0.000173482
-2.06059e-05
0.000173699
-1.47466e-05
0.000179911
0.00017579
-9.47193e-06
6.13626e-06
-0.000181795
1.49682e-05
-0.00019324
1.6583e-05
-0.000183308
1.3391e-05
-0.000175828
1.68327e-05
-0.000181381
6.84007e-06
-0.000164059
-1.9682e-05
-0.000147917
-1.32335e-05
-0.000219297
2.57601e-06
-0.000218698
2.086e-05
-0.000222661
3.84573e-05
-0.000230002
3.25109e-05
-0.00036268
4.24836e-05
-0.000217796
-3.04044e-05
-0.000255115
2.36464e-06
-0.000224322
4.32183e-05
4.54769e-05
8.79294e-06
0.000191843
-1.60118e-05
0.000187745
-2.43577e-05
0.000181723
-2.22498e-05
0.000171374
-2.51766e-05
0.000176626
-1.70428e-05
0.000171777
0.000238102
-7.93538e-05
2.27777e-06
-0.000184073
1.93402e-06
-0.000192896
8.72284e-06
-0.000190097
1.27391e-05
-0.000179844
1.45011e-05
-0.000183143
2.26868e-05
-0.000172245
3.16077e-05
-0.000156838
2.80689e-05
-0.000215758
2.33395e-05
-0.000213969
5.45949e-05
-0.000253916
0.000110377
-0.000285784
5.55298e-05
-0.000307834
6.39786e-05
-0.000226244
3.71473e-05
-0.000228284
6.41554e-05
-0.00025133
6.62993e-05
4.3333e-05
1.03412e-05
0.000247801
-2.10597e-05
0.000219145
-2.8083e-05
0.000188746
-2.94713e-05
0.000172763
-2.32306e-05
0.000170385
-9.24349e-05
0.000240981
0.000206147
-6.04806e-05
2.03963e-06
-0.000186112
5.85277e-07
-0.000191442
3.79429e-06
-0.000193306
9.22702e-06
-0.000185277
1.54951e-05
-0.000189411
2.49405e-05
-0.00018169
5.93161e-05
-0.000191213
6.29291e-05
-0.000219371
0.000150865
-0.000301905
0.000130739
-0.00023379
0.000121855
-0.0002769
9.52991e-05
-0.000281278
8.58278e-05
-0.000216773
0.000114987
-0.000257443
-1.19527e-05
-0.000124391
-6.04601e-05
9.18406e-05
-5.01314e-05
0.000237472
-4.86803e-05
0.000217694
-5.15499e-05
0.000191616
-3.20952e-05
0.000153308
-0.000105328
0.000243618
-6.53593e-05
0.000201012
0.000203988
-6.32007e-05
-5.1401e-06
-0.000180972
-1.27666e-05
-0.000183815
-1.04176e-05
-0.000195655
-1.12253e-05
-0.000184469
-1.01606e-05
-0.000190476
3.63393e-07
-0.000192214
2.75825e-05
-0.000218432
6.00888e-05
-0.000251877
5.72943e-05
-0.00029911
0.000186774
-0.00036327
0.000152977
-0.000243103
9.69032e-05
-0.000225204
4.8934e-05
-0.000168804
-2.9363e-05
-0.000179146
-0.00010298
-5.0774e-05
-0.000154517
0.000143378
-0.000140363
0.000223318
-8.11684e-05
0.000158499
-0.000124379
0.000234826
-0.000148634
0.000177563
-8.52345e-05
0.000180218
-6.82672e-05
0.000184045
0.000194286
-5.8565e-05
-8.63553e-06
-0.000172337
-1.85847e-05
-0.000173866
-1.56288e-05
-0.000198611
-1.97136e-05
-0.000180384
-2.56924e-05
-0.000184497
-2.61578e-05
-0.000191749
-1.3972e-05
-0.000230618
-5.34657e-06
-0.000260503
1.65008e-06
-0.000306107
2.20817e-05
-0.000383701
2.46296e-05
-0.000245651
-3.71029e-05
-0.000163472
-8.56902e-05
-0.000120217
-0.000129443
-0.000135393
-0.000193042
1.28244e-05
-0.000247376
0.000197712
-0.000163896
0.000139838
-0.000207082
0.000201685
-0.000160767
0.000188512
-0.000144692
0.000161487
-0.000127504
0.000163031
-0.000116123
0.000172664
0.000178062
-9.98998e-05
-9.54263e-06
-0.000162794
-2.03527e-05
-0.000163056
-1.78325e-05
-0.000201131
-2.0367e-05
-0.00017785
-3.4538e-05
-0.000170326
-4.8854e-05
-0.000177433
-5.08933e-05
-0.000228579
-5.9553e-05
-0.000251843
-6.53179e-05
-0.000300342
-0.000103136
-0.000345883
-0.000144248
-0.000204539
-0.000145947
-0.000161773
-0.000152938
-0.000113225
-0.000179881
-0.00010845
-0.000261575
9.4518e-05
-0.000252957
0.000189095
-0.000278719
0.000165599
-0.000216041
0.000139007
-0.000176396
0.000148867
-0.000154635
0.000139726
-0.000139544
0.000147939
-0.00012293
0.00015605
0.000152421
-9.7289e-05
-1.52723e-05
-0.000147522
-3.51029e-05
-0.000143226
-4.20564e-06
-0.000232028
-3.36133e-05
-0.000148442
-3.80974e-05
-0.000165842
-4.1395e-05
-0.000174136
-9.7504e-05
-0.00017247
-6.09349e-05
-0.000288412
-0.000156746
-0.000204531
-0.000190506
-0.000312123
-0.000223378
-0.000171667
-0.000209065
-0.000176086
-0.000220718
-0.000101572
-0.00029777
-3.13986e-05
-0.000252358
4.91063e-05
-0.000200325
0.000137061
-0.000170831
0.000136106
-0.000185175
0.000153351
-0.000167087
0.000130778
-0.00015327
0.000125909
-0.00013575
0.00013042
-0.000110681
0.000130981
0.000124705
-8.29647e-05
3.73786e-06
-0.00015126
8.84832e-06
-0.000148336
-5.18924e-05
-0.000171288
-3.92586e-05
-0.000161076
-4.22471e-05
-0.000162854
-5.28957e-05
-0.000163487
-4.86364e-05
-0.000176729
-0.000154861
-0.000182187
-8.24912e-05
-0.000276901
-0.000205415
-0.0001892
-0.000192977
-0.000184105
-0.000235642
-0.000133421
-0.000229025
-0.000108189
-0.000265759
5.33596e-06
-0.000253102
3.64485e-05
-0.00020413
8.80898e-05
-0.000165404
9.73794e-05
-0.000126832
0.000114779
-0.0001036
0.000107546
-9.00334e-05
0.000112343
-7.5642e-05
0.000116028
-6.17334e-05
0.000117072
0.000112761
-4.97891e-05
-6.02819e-06
-0.000145232
-8.48451e-06
-0.00014588
-2.51393e-05
-0.000154633
-3.50208e-05
-0.000151195
-4.50316e-05
-0.000152843
-5.94996e-05
-0.000149019
-0.000102066
-0.000134162
-0.000142998
-0.000141256
-0.000185701
-0.000234197
-0.000117426
-0.000257475
-0.000161622
-0.00013991
-0.000211881
-8.31625e-05
-0.000293368
-2.6701e-05
-0.000281551
-6.48133e-06
-0.000245208
1.04756e-07
-0.000193166
3.60479e-05
-0.000158382
6.25953e-05
-0.000127426
8.38234e-05
-0.000107899
8.80183e-05
-9.0658e-05
9.51017e-05
-7.57516e-05
0.000101122
-6.32231e-05
0.000104544
0.000101884
-5.23462e-05
-6.88305e-06
-0.000138349
-1.38476e-05
-0.000138916
-2.94558e-05
-0.000139025
-4.27855e-05
-0.000137865
-6.72625e-05
-0.000128366
-7.88511e-05
-0.000137431
-9.63775e-05
-0.000116636
-5.7515e-05
-0.000180118
-9.28247e-05
-0.000198887
-0.000234382
-0.000115918
-0.000264648
-0.000109643
-0.000279049
-6.87615e-05
-0.000263622
-4.21283e-05
-0.000244357
-2.57465e-05
-0.000223207
-2.10455e-05
-0.000174187
-1.29718e-05
-0.000149672
3.80803e-05
-0.000122385
5.65363e-05
-0.000107971
7.36044e-05
-9.28709e-05
8.00018e-05
-7.88894e-05
8.71402e-05
-6.46926e-05
9.03469e-05
8.94967e-05
-5.23052e-05
-1.28989e-05
-0.00012545
-2.40924e-05
-0.000127722
-3.8524e-05
-0.000124593
-7.15253e-05
-0.000104864
-3.03564e-05
-0.000169535
-6.15604e-05
-0.000106227
-3.04096e-05
-0.000147787
-6.09166e-05
-0.000149611
-9.20603e-05
-0.000167743
-0.000108636
-9.93426e-05
-0.000157754
-6.05243e-05
-0.000176075
-5.04406e-05
-0.000186841
-3.13625e-05
-0.000187174
-2.54138e-05
-0.000185206
-2.30128e-05
-0.000143038
-5.51403e-05
-0.000135934
3.09764e-05
-0.000118101
3.87027e-05
-0.000104518
6.00222e-05
-8.88285e-05
6.43119e-05
-7.47083e-05
7.302e-05
-6.37642e-05
7.94029e-05
8.00276e-05
-5.42949e-05
-1.49586e-05
-0.000110491
-2.72426e-05
-0.000115438
-4.79732e-05
-0.000103863
-1.81357e-05
-0.000134701
-5.01451e-05
-0.000137525
-2.45099e-05
-0.000131862
-4.57016e-05
-0.000126595
-6.70569e-05
-0.000128256
-9.31063e-05
-0.000141694
-0.000136574
-5.58749e-05
-0.000149431
-4.76671e-05
-0.000161248
-3.86234e-05
-0.000161414
-3.11969e-05
-0.000161184
-2.56435e-05
-0.000148406
-3.57913e-05
-0.000176359
-2.71875e-05
-0.000132874
-1.25081e-05
-0.000118761
2.45898e-05
-9.71344e-05
3.83952e-05
-8.75179e-05
5.46955e-05
-7.62929e-05
6.1795e-05
-6.43123e-05
6.74224e-05
6.85642e-05
-5.28489e-05
-3.85987e-06
-0.000106631
-6.68993e-06
-0.000112608
5.15216e-07
-0.000111068
-1.56847e-05
-0.000118501
-3.16449e-05
-0.000121565
-4.99454e-05
-0.000113562
-4.62057e-05
-0.000130335
-8.16665e-05
-9.27952e-05
-0.000143444
-7.99162e-05
-0.000137862
-6.14575e-05
-0.000135066
-5.04626e-05
-0.000133285
-4.04047e-05
-0.000130978
-3.3504e-05
-0.000127162
-2.94589e-05
-0.000122739
-4.02147e-05
-0.000126757
-2.31699e-05
-9.70067e-05
-4.2258e-05
-0.000108174
3.57575e-05
-0.000103737
3.3958e-05
-8.56824e-05
3.66407e-05
-6.78315e-05
4.39441e-05
-6.17859e-05
6.13767e-05
6.11029e-05
-5.43247e-05
-4.60574e-06
-0.000102026
-9.07248e-06
-0.000108142
-1.4046e-05
-0.000106094
-2.17555e-05
-0.000110792
-3.9729e-05
-0.000103592
-3.91748e-05
-0.000114116
-7.57573e-05
-9.37523e-05
-7.80802e-05
-9.04723e-05
-9.83193e-05
-5.96771e-05
-0.000103353
-5.64242e-05
-0.000110987
-4.28286e-05
-0.000114161
-3.72306e-05
-0.000117477
-3.01881e-05
-0.000105771
-4.11644e-05
-0.0001092
-3.67858e-05
-0.000113387
-1.89827e-05
-0.000138624
-1.70209e-05
-9.21356e-05
-1.07312e-05
-9.62372e-05
3.80596e-05
-9.15935e-05
3.19969e-05
-8.38009e-05
3.61513e-05
-6.47043e-05
4.228e-05
4.59544e-05
-4.95558e-05
-2.2315e-06
-9.97942e-05
-2.81709e-06
-0.000107556
2.84917e-07
-0.000109196
-2.76167e-05
-8.28903e-05
-4.11908e-05
-9.00174e-05
-6.25603e-05
-9.27463e-05
-6.69221e-05
-8.93904e-05
-9.12871e-05
-6.61073e-05
-9.39231e-05
-5.70409e-05
-9.94788e-05
-5.08685e-05
-0.000101155
-4.11526e-05
-0.000103122
-3.52634e-05
-0.000104273
-2.90373e-05
-0.000104917
-4.05203e-05
-0.000106826
-3.48766e-05
-0.000103438
-2.23711e-05
-0.000109643
-1.08151e-05
-0.000115825
-4.54931e-06
-8.06054e-05
2.8397e-06
-7.66825e-05
2.80739e-05
-6.89892e-05
2.8458e-05
-6.55417e-05
3.88325e-05
4.18803e-05
-6.14677e-05
-8.86784e-06
-9.09265e-05
-2.25843e-05
-9.38397e-05
-3.82822e-05
-9.34986e-05
-3.40811e-05
-8.70913e-05
-3.63069e-05
-8.77916e-05
-4.4341e-05
-8.47122e-05
-6.0064e-05
-7.36674e-05
-7.43913e-05
-5.178e-05
-7.72321e-05
-5.42e-05
-8.40506e-05
-4.405e-05
-8.61057e-05
-3.90975e-05
-8.87435e-05
-3.26256e-05
-8.89271e-05
-2.88536e-05
-8.8934e-05
-4.05135e-05
-9.01653e-05
-3.36453e-05
-9.17336e-05
-2.08029e-05
-9.41692e-05
-8.37962e-06
-9.639e-05
-2.32847e-06
-9.27367e-05
-8.13558e-07
-7.14617e-05
6.79892e-06
-6.75386e-05
2.45349e-05
-5.83215e-05
2.96154e-05
3.36941e-05
-5.01354e-05
-6.20593e-06
-8.47208e-05
-1.33144e-05
-8.67313e-05
-2.10622e-05
-8.5751e-05
-2.88612e-05
-7.92924e-05
-3.80211e-05
-7.86319e-05
-4.76418e-05
-7.50915e-05
-6.6021e-05
-5.52883e-05
-6.69182e-05
-5.08827e-05
-7.34402e-05
-4.7678e-05
-7.6572e-05
-4.09181e-05
-7.9066e-05
-3.66034e-05
-8.08249e-05
-3.08667e-05
-8.2554e-05
-2.71245e-05
-8.35762e-05
-3.94913e-05
-8.32517e-05
-3.39697e-05
-8.07651e-05
-2.32894e-05
-7.38206e-05
-1.53241e-05
-7.14292e-05
-4.71984e-06
-7.09869e-05
-1.25574e-06
-5.20395e-05
-1.21485e-05
-6.09286e-05
3.3424e-05
-5.62918e-05
2.49786e-05
2.76116e-05
-5.02094e-05
-7.12914e-06
-7.75916e-05
-1.53783e-05
-7.84822e-05
-2.44546e-05
-7.66747e-05
-2.96919e-05
-7.40551e-05
-3.56931e-05
-7.26307e-05
-5.35009e-05
-5.72837e-05
-5.66869e-05
-5.21022e-05
-5.94962e-05
-4.80734e-05
-6.33915e-05
-4.37826e-05
-6.55242e-05
-3.87853e-05
-6.77392e-05
-3.43883e-05
-6.86705e-05
-2.99353e-05
-6.87558e-05
-2.7039e-05
-7.15049e-05
-3.6742e-05
-7.19713e-05
-3.35033e-05
-7.11918e-05
-2.40689e-05
-7.09445e-05
-1.55713e-05
-6.99267e-05
-5.7376e-06
-6.85432e-05
-2.63921e-06
-8.11249e-05
4.33202e-07
-5.35508e-05
5.85003e-06
-5.12633e-05
2.26911e-05
2.14079e-05
-4.50596e-05
-6.34769e-06
-7.12438e-05
-1.34459e-05
-7.13841e-05
-2.00895e-05
-7.0031e-05
-2.62139e-05
-6.79307e-05
-4.24362e-05
-5.64084e-05
-4.70448e-05
-5.2675e-05
-5.04173e-05
-4.87296e-05
-5.33337e-05
-4.51569e-05
-5.58095e-05
-4.13067e-05
-5.69553e-05
-3.76393e-05
-5.80547e-05
-3.32887e-05
-5.76872e-05
-3.03027e-05
-5.79518e-05
-2.67743e-05
-6.97007e-05
-2.4993e-05
-6.8432e-05
-3.4772e-05
-6.5221e-05
-2.72798e-05
-6.27774e-05
-1.8015e-05
-5.8327e-05
-1.0188e-05
-5.92887e-05
-1.67752e-06
-5.99892e-05
1.13368e-06
-6.0756e-05
6.61689e-06
-4.68096e-05
8.74484e-06
1.96316e-05
-4.50331e-05
-6.14709e-06
-6.50967e-05
-1.33456e-05
-6.41856e-05
-1.93747e-05
-6.40016e-05
-3.24546e-05
-5.48508e-05
-3.65488e-05
-5.23142e-05
-4.01863e-05
-4.90374e-05
-4.33875e-05
-4.55282e-05
-4.61627e-05
-4.23816e-05
-4.85199e-05
-3.89494e-05
-5.04256e-05
-3.57336e-05
-5.16065e-05
-3.21077e-05
-5.30072e-05
-2.89019e-05
-5.38322e-05
-2.59492e-05
-5.4712e-05
-2.41133e-05
-5.59381e-05
-3.35459e-05
-5.60435e-05
-2.71744e-05
-5.49555e-05
-1.91031e-05
-5.3139e-05
-1.20045e-05
-5.14613e-05
-3.35527e-06
-5.01999e-05
-1.2765e-07
-5.0887e-05
7.3041e-06
-3.84945e-05
-3.64757e-06
2.01517e-05
-3.90144e-05
-7.24259e-06
-5.78541e-05
-1.43974e-05
-5.70307e-05
-2.27873e-05
-5.56117e-05
-2.71337e-05
-5.05044e-05
-3.04778e-05
-4.897e-05
-3.40698e-05
-4.54454e-05
-3.66743e-05
-4.29238e-05
-3.92593e-05
-3.97966e-05
-4.13139e-05
-3.68947e-05
-4.32303e-05
-3.38172e-05
-4.47488e-05
-3.05891e-05
-4.58917e-05
-2.7759e-05
-4.77679e-05
-2.40731e-05
-5.05198e-05
-2.13613e-05
-5.03813e-05
-3.36845e-05
-4.9771e-05
-2.77847e-05
-4.84915e-05
-2.03827e-05
-4.66162e-05
-1.38798e-05
-4.62314e-05
-3.74001e-06
-4.54976e-05
-8.61447e-07
-4.13015e-05
3.10814e-06
-4.84218e-05
3.47276e-06
9.61947e-06
-3.78895e-05
-6.99296e-06
-5.08612e-05
-1.33673e-05
-5.06563e-05
-1.91752e-05
-4.98037e-05
-2.23254e-05
-4.73543e-05
-2.61241e-05
-4.51714e-05
-2.88284e-05
-4.27412e-05
-3.15102e-05
-4.02419e-05
-3.36265e-05
-3.76804e-05
-3.55834e-05
-3.49378e-05
-3.71665e-05
-3.2234e-05
-3.85047e-05
-2.92509e-05
-3.97427e-05
-2.65209e-05
-4.05615e-05
-2.32543e-05
-4.11974e-05
-2.07255e-05
-4.20602e-05
-3.28217e-05
-4.24485e-05
-2.73965e-05
-4.28335e-05
-1.99977e-05
-4.20364e-05
-1.46769e-05
-3.82597e-05
-7.51667e-06
-3.79027e-05
-1.21844e-06
-3.77794e-05
2.98482e-06
-3.95878e-05
5.28118e-06
-2.03903e-07
-2.97644e-05
-4.54755e-06
-4.63136e-05
-8.81402e-06
-4.63898e-05
-1.30969e-05
-4.55209e-05
-1.70427e-05
-4.34083e-05
-2.01611e-05
-4.2053e-05
-2.31373e-05
-3.9765e-05
-2.55231e-05
-3.78561e-05
-2.77796e-05
-3.54238e-05
-2.96075e-05
-3.31099e-05
-3.1279e-05
-3.05625e-05
-3.26099e-05
-2.79199e-05
-3.38208e-05
-2.531e-05
-3.47055e-05
-2.23695e-05
-3.57393e-05
-1.96916e-05
-3.60326e-05
-3.25284e-05
-3.61204e-05
-2.73086e-05
-3.5272e-05
-2.08461e-05
-3.41723e-05
-1.57766e-05
-3.24955e-05
-9.19344e-06
-3.11729e-05
-2.54106e-06
-2.80985e-05
-8.9581e-08
-2.8114e-05
5.2966e-06
-3.72616e-06
-2.45918e-05
-3.96303e-06
-4.23505e-05
-7.76538e-06
-4.25874e-05
-1.14156e-05
-4.18706e-05
-1.41759e-05
-4.0648e-05
-1.70214e-05
-3.92075e-05
-1.92228e-05
-3.75636e-05
-2.13819e-05
-3.5697e-05
-2.30942e-05
-3.37115e-05
-2.46688e-05
-3.15352e-05
-2.59406e-05
-2.92906e-05
-2.70278e-05
-2.68326e-05
-2.79457e-05
-2.4392e-05
-2.86535e-05
-2.16617e-05
-2.92304e-05
-1.91146e-05
-2.99043e-05
-3.18544e-05
-3.0299e-05
-2.69138e-05
-3.02779e-05
-2.08672e-05
-2.98663e-05
-1.61882e-05
-2.84816e-05
-1.05781e-05
-2.73253e-05
-3.69741e-06
-2.72082e-05
-2.06699e-07
-2.22594e-05
3.47751e-07
8.2717e-06
-3.42573e-05
-2.64958e-06
-3.97009e-05
-5.23004e-06
-4.0007e-05
-7.73117e-06
-3.93694e-05
-1.01686e-05