/*--------------------------------*- C++ -*----------------------------------*\
| =========                 |                                                 |
| \\      /  F ield         | foam-extend: Open Source CFD                    |
|  \\    /   O peration     | Version:     4.1                                |
|   \\  /    A nd           | Web:         http://www.foam-extend.org         |
|    \\/     M anipulation  |                                                 |
\*---------------------------------------------------------------------------*/
FoamFile
{
    version     2.0;
    format      ascii;
    class       volScalarField;
    location    "0.2";
    object      alpha1;
}
// * * * * * * * * * * * * * * * * * * * * * * * * * * * * * * * * * * * * * //

dimensions      [0 0 0 0 0 0 0];

internalField   nonuniform List<scalar> 
2268
(
1
1
1
1
1
1
1
1
1
1
1
0.999313
0.995685
0.996101
0.997364
0.997346
0.997019
0.99597
0.981021
0.861687
0.549062
0.270343
0.109267
1
1
1
1
1
1
1
1
1
1
1
0.992864
0.953965
0.952109
0.966592
0.977923
0.984942
0.985208
0.983263
0.965139
0.769703
0.356578
0.104091
1
1
1
1
1
1
1
1
1
1
0.999998
0.963437
0.713246
0.760559
0.824156
0.915441
0.954455
0.956349
0.952683
0.777986
0.415972
0.178217
0.0692264
1
1
1
1
1
1
1
1
1
1
0.999997
0.886388
0.337892
0.407386
0.415897
0.542141
0.780554
0.891846
0.860977
0.484074
0.171398
0.0853539
0.0430956
1
1
1
1
1
1
1
1
1
1
0.999998
0.981271
0.70296
0.313101
0.380718
0.477746
0.580466
0.751898
0.78052
0.555167
0.352237
0.154349
0.0488249
1
1
1
1
1
1
1
1
1
1
0.999998
0.999178
0.964579
0.735752
0.489804
0.679652
0.78824
0.825908
0.821759
0.737792
0.629745
0.372581
0.0997606
1
1
1
1
1
1
1
1
1
1
0.999997
0.99814
0.898732
0.815374
0.551995
0.670981
0.716803
0.714963
0.793292
0.773373
0.705963
0.483811
0.173418
1
1
1
1
1
1
1
1
1
1
0.999996
0.997241
0.736974
0.441312
0.390002
0.531806
0.705861
0.430242
0.544418
0.531496
0.493247
0.267794
0.126778
0
0
7.21645e-15
2.66454e-15
0
0
0
0
0
0
0
0
0
0
0
0
2.22045e-16
9.99201e-16
0
8.32667e-16
6.65579e-14
7.37854e-13
2.32758e-13
1.07137e-14
1.4988e-15
1.72085e-15
2.05391e-15
2.10942e-15
1.94289e-15
2.22045e-15
3.27516e-15
2.33147e-15
3.10862e-15
2.33147e-15
2.27596e-15
3.33067e-15
0
0
2.37088e-13
2.9472e-12
3.0073e-11
1.02792e-11
4.13003e-13
1.90403e-14
0
0
0
0
0
0
0
0
0
0
0
0
0
6.11067e-11
9.2806e-11
7.54127e-10
3.16077e-10
1.21626e-11
5.89528e-13
2.32592e-14
0
0
0
0
0
0
0
0
0
0
0
1.11022e-16
1.50455e-08
3.06154e-09
1.33128e-08
6.6361e-09
2.44187e-10
1.17893e-11
5.50449e-13
2.36478e-14
0
0
0
0
0
0
0
0
0
0
0
2.34632e-06
2.04137e-07
1.67661e-07
1.04171e-07
4.01209e-09
2.00093e-10
9.32526e-12
4.31988e-13
1.44329e-14
0
0
0
0
0
0
0
0
0
8.32667e-16
0.000220717
1.44868e-05
1.80181e-06
1.26986e-06
5.71421e-08
3.01472e-09
1.35183e-10
4.9008e-12
1.05194e-13
1.88738e-15
0
0
0
0
0
0
0
8.32667e-16
2.05391e-15
0.0093885
0.000616596
2.06425e-05
1.21087e-05
7.81496e-07
4.3923e-08
1.74447e-09
3.97598e-11
7.44294e-13
1.20459e-14
0
0
0
0
0
3.33067e-16
0
1.16573e-15
2.27596e-15
1
1
1
1
1
1
1
1
1
0.999998
0.999989
0.999857
0.994637
0.914521
0.691852
0.695815
0.777902
0.786999
0.783929
0.755935
0.64332
0.547738
0.291095
1
1
1
1
1
1
1
1
0.999998
0.999977
0.999937
0.998957
0.993521
0.97849
0.960957
0.951692
0.927785
0.892799
0.831429
0.691999
0.561485
0.511592
0.446899
1
1
1
1
1
1
1
0.999998
0.99998
0.999789
0.999603
0.996807
0.967031
0.86426
0.808163
0.771814
0.687366
0.629184
0.617544
0.49693
0.415493
0.372456
0.335567
1
1
1
1
1
1
1
0.999979
0.99985
0.998442
0.997912
0.989433
0.928301
0.756746
0.660195
0.606623
0.542537
0.429924
0.336972
0.238742
0.199988
0.167698
0.151874
1
1
1
1
1
1
1
0.999838
0.999016
0.992577
0.987076
0.979057
0.911071
0.764559
0.678504
0.630251
0.560623
0.422874
0.293847
0.207814
0.156174
0.128638
0.100424
0.999996
0.999999
1
1
1
0.999998
0.999998
0.999108
0.994283
0.964818
0.937825
0.94146
0.845393
0.69805
0.662538
0.642482
0.584387
0.343632
0.158243
0.0902793
0.0542799
0.0423117
0.0271873
0.999966
0.999991
0.999999
0.999999
0.999998
0.999989
0.999986
0.99594
0.973985
0.86044
0.797529
0.848421
0.569723
0.324127
0.306527
0.367663
0.316594
0.120415
0.0715214
0.0458024
0.0267437
0.0179346
0.0112894
0.999727
0.999931
0.999992
0.999996
0.999985
0.999931
0.999884
0.983931
0.901164
0.540151
0.505782
0.690952
0.352824
0.137642
0.0925151
0.129037
0.0745444
0.0206891
0.00680639
0.00225733
0.000846512
0.000412296
0.000273362
0.998081
0.999537
0.999952
0.999975
0.999905
0.999713
0.998907
0.943497
0.69682
0.23581
0.253412
0.561679
0.318349
0.110739
0.0496699
0.0437513
0.0221662
0.00756813
0.00222326
0.00059954
0.000195407
9.04913e-05
0.000146189
0.988391
0.997306
0.999715
0.999858
0.999592
0.998454
0.990057
0.830667
0.36783
0.105862
0.148514
0.457467
0.223693
0.069889
0.02863
0.0209679
0.0103805
0.00576825
0.00214406
0.000509495
0.00011117
0.000124524
0.000368728
0.942821
0.987474
0.998702
0.99923
0.99862
0.991646
0.925791
0.541909
0.183787
0.0323699
0.117352
0.40739
0.142053
0.0177646
0.00690186
0.0070888
0.00301211
0.00374897
0.00177658
0.000380807
0.000143399
0.00023639
0.000874227
0.777511
0.952186
0.995253
0.99631
0.995753
0.971214
0.814542
0.421425
0.168696
0.0223144
0.110629
0.383517
0.116059
0.00942348
0.00137042
0.000953472
0.000405436
0.00139982
0.000863027
0.000725465
0.000397133
0.000359465
0.00118032
0.423929
0.846445
0.981708
0.981942
0.988755
0.951203
0.810521
0.483875
0.19522
0.0223554
0.110773
0.36572
0.0987564
0.0066396
0.000245663
0.000110061
0.000204958
0.000503668
0.00161021
0.00290567
0.000795189
0.000180389
0.000754831
0.198226
0.602637
0.921376
0.927692
0.976485
0.929465
0.880723
0.611376
0.205683
0.0254288
0.147141
0.603117
0.141474
0.00434139
5.80064e-05
0.000105716
0.000296895
0.000430769
0.0015891
0.00467766
0.00110329
7.30512e-05
0.000282906
0.118799
0.306269
0.761481
0.754464
0.92713
0.852761
0.804034
0.545741
0.133712
0.00355191
0.0273787
0.382521
0.0244702
0.000131466
2.62387e-05
0.000138556
0.000511459
0.000916002
0.000992731
0.00249335
0.000437798
1.80593e-05
3.79292e-05
0.0882771
0.248866
0.645682
0.440854
0.838905
0.696571
0.440769
0.105397
0.00575292
0.000259187
0.00309123
0.0230654
0.000305919
2.75348e-05
2.34231e-05
0.000140807
0.000561224
0.00134259
0.00182348
0.00132592
0.000165462
7.50511e-06
6.67121e-06
0.0928717
0.30808
0.563523
0.268762
0.63731
0.294276
0.0824272
0.0111721
0.00100694
6.81377e-05
0.000229276
0.000687375
4.29533e-05
1.26282e-05
7.56257e-06
3.40288e-05
0.00014429
0.00042051
0.000733919
0.000699682
0.000107763
3.45777e-06
1.25301e-06
0.101204
0.266131
0.459209
0.173908
0.410185
0.0936229
0.0169562
0.00368783
0.000832101
4.28039e-05
1.77231e-05
2.91551e-05
9.22072e-06
4.57352e-06
1.96635e-06
4.07822e-06
1.9751e-05
6.02269e-05
0.000109399
0.000139443
9.18323e-05
1.1419e-06
2.06377e-07
0.0662119
0.341604
0.460726
0.129219
0.178856
0.0383496
0.00485034
0.00111723
0.000224148
6.55486e-06
1.39237e-06
1.67307e-06
2.58938e-06
1.3933e-06
3.75231e-07
2.11013e-07
1.65575e-06
6.56278e-06
1.53178e-05
2.0829e-05
7.94141e-06
2.16352e-07
2.70317e-08
0.0150553
0.112598
0.102114
0.0108335
0.0327446
0.00366985
0.000939288
0.000233543
7.53757e-05
4.07471e-06
3.3073e-07
1.08319e-07
8.96205e-08
7.78516e-08
1.77761e-08
5.92722e-09
1.55024e-08
5.7358e-08
1.41151e-07
1.99121e-07
1.78573e-07
6.49092e-08
2.32363e-09
0.000648177
0.00578476
0.00766846
0.00103945
0.00197735
0.000345963
0.00014645
4.22932e-05
4.3773e-05
3.10695e-06
2.81046e-07
1.95941e-08
5.83477e-09
2.96182e-09
1.1725e-09
3.63328e-10
1.44719e-09
5.02595e-09
1.96897e-08
4.7173e-08
6.21693e-08
3.61968e-08
3.34414e-10
5.00487e-05
8.91542e-05
0.000243306
2.71477e-05
1.04929e-05
9.24577e-06
2.8771e-05
8.54461e-06
1.38517e-05
9.80322e-07
3.77229e-07
9.0674e-09
8.10409e-11
3.97444e-11
2.1161e-11
7.89513e-12
4.5516e-11
2.86981e-10
1.50119e-09
4.7196e-09
6.90574e-09
5.31536e-09
4.06233e-11
1.30517e-05
2.17062e-06
5.05616e-07
0
1.16897e-07
6.0134e-07
3.62733e-06
2.39944e-07
9.30386e-07
8.69205e-08
1.52238e-08
2.83527e-09
1.46455e-12
3.64153e-14
2.07057e-14
2.13551e-13
1.58762e-12
9.77823e-12
5.17185e-11
2.18374e-10
4.43732e-10
4.41791e-10
3.71381e-12
2.19206e-06
2.34624e-07
3.1859e-08
6.472e-09
2.80144e-09
4.15796e-08
2.43258e-07
3.3694e-08
1.45833e-08
6.37772e-11
2.46697e-12
3.54383e-13
1.43219e-14
1.94289e-15
2.88658e-15
6.66134e-15
3.69149e-14
2.70839e-13
1.71896e-12
8.9187e-12
2.37695e-11
2.88911e-11
2.70617e-13
1.00348e-07
2.93433e-08
1.17073e-09
4.17861e-11
1.34181e-10
7.21161e-10
2.81513e-09
3.80641e-10
8.48699e-12
1.13021e-13
4.2133e-14
2.07057e-14
2.60902e-15
2.66454e-15
3.33067e-15
3.16414e-15
4.16334e-15
1.06026e-14
5.38458e-14
2.82607e-13
9.42413e-13
1.5396e-12
2.10942e-14
7.4135e-10
7.50939e-11
1.00991e-11
1.12543e-12
1.89682e-13
2.49578e-13
4.42757e-13
1.90958e-14
3.21965e-15
2.55351e-15
3.05311e-15
3.9968e-15
3.44169e-15
4.4964e-15
3.27516e-15
3.9968e-15
4.27436e-15
4.55191e-15
4.88498e-15
9.21485e-15
2.62568e-14
5.42899e-14
0
7.08045e-12
1.53805e-12
1.91513e-13
2.69229e-14
4.55191e-15
1.9984e-15
2.88658e-15
2.77556e-15
2.498e-15
3.27516e-15
3.77476e-15
3.71925e-15
2.55351e-15
1.88738e-15
2.72005e-15
4.55191e-15
1.94289e-15
2.38698e-15
3.16414e-15
1.16573e-15
3.88578e-16
4.996e-16
0
5.51226e-14
1.97065e-14
7.43849e-15
1.55431e-15
3.21965e-15
1.83187e-15
4.44089e-15
3.94129e-15
3.05311e-15
2.94209e-15
3.55271e-15
2.55351e-15
3.10862e-15
3.60822e-15
2.88658e-15
3.83027e-15
2.10942e-15
3.27516e-15
2.498e-15
2.27596e-15
1.11022e-15
0
8.32667e-16
5.21805e-15
1.88738e-15
5.32907e-15
2.27596e-15
4.05231e-15
3.9968e-15
4.4964e-15
4.21885e-15
2.72005e-15
3.71925e-15
2.9976e-15
2.9976e-15
3.4972e-15
3.9968e-15
2.60902e-15
3.16414e-15
3.38618e-15
2.9976e-15
1.83187e-15
2.22045e-15
6.10623e-16
7.21645e-16
4.996e-16
4.60743e-15
2.498e-15
6.10623e-15
4.60743e-15
2.66454e-15
4.44089e-15
3.83027e-15
3.83027e-15
4.55191e-15
3.66374e-15
3.60822e-15
3.71925e-15
3.16414e-15
2.27596e-15
2.05391e-15
3.33067e-15
3.88578e-15
2.44249e-15
2.44249e-15
1.94289e-15
5.55112e-16
0
6.10623e-16
3.4972e-15
3.05311e-15
4.05231e-15
4.94049e-15
1.16573e-15
2.498e-15
4.71845e-15
4.996e-15
2.60902e-15
2.498e-15
4.4964e-15
3.33067e-15
3.38618e-15
4.4964e-15
2.55351e-15
3.77476e-15
4.44089e-15
3.55271e-15
2.38698e-15
1.77636e-15
1.55431e-15
0
2.498e-15
3.66374e-15
2.83107e-15
3.4972e-15
4.10783e-15
2.55351e-15
1.9984e-15
3.66374e-15
4.16334e-15
3.60822e-15
3.9968e-15
3.4972e-15
3.71925e-15
2.66454e-15
3.83027e-15
2.55351e-15
3.44169e-15
3.60822e-15
3.9968e-15
2.88658e-15
3.16414e-15
1.33227e-15
0
1.27676e-15
2.9976e-15
2.33147e-15
4.05231e-15
3.60822e-15
2.44249e-15
3.66374e-15
3.66374e-15
3.10862e-15
3.60822e-15
2.77556e-15
2.94209e-15
1.9984e-15
2.88658e-15
4.996e-15
3.55271e-15
3.44169e-15
3.55271e-15
3.55271e-15
2.77556e-15
2.38698e-15
2.44249e-15
0
6.66134e-16
4.10783e-15
1.22125e-15
3.4972e-15
4.32987e-15
4.27436e-15
4.94049e-15
2.72005e-15
4.88498e-15
3.55271e-15
2.9976e-15
4.21885e-15
2.38698e-15
3.21965e-15
3.77476e-15
3.38618e-15
3.71925e-15
2.66454e-15
4.94049e-15
2.33147e-15
3.66374e-15
1.38778e-15
0
0
5.71765e-15
1.9984e-15
3.44169e-15
2.9976e-15
5.38458e-15
4.71845e-15
2.9976e-15
5.44009e-15
4.55191e-15
4.71845e-15
3.66374e-15
3.71925e-15
4.4964e-15
1.94289e-15
3.77476e-15
3.10862e-15
3.16414e-15
3.05311e-15
3.16414e-15
2.10942e-15
1.11022e-15
7.21645e-16
2.16493e-15
6.38378e-15
1.05471e-15
2.83107e-15
2.27596e-15
3.94129e-15
2.22045e-15
3.16414e-15
4.71845e-15
3.71925e-15
4.88498e-15
2.88658e-15
4.27436e-15
3.4972e-15
2.9976e-15
4.05231e-15
3.10862e-15
4.55191e-15
3.21965e-15
4.32987e-15
3.10862e-15
3.05311e-15
5.55112e-17
4.44089e-16
6.55032e-15
1.38778e-15
3.71925e-15
3.16414e-15
4.05231e-15
1.16573e-15
4.66294e-15
4.996e-15
4.60743e-15
3.66374e-15
3.77476e-15
1.9984e-15
2.9976e-15
2.77556e-15
3.77476e-15
4.88498e-15
4.66294e-15
1.83187e-15
2.44249e-15
3.44169e-15
2.498e-15
5.55112e-17
1.83187e-15
5.27356e-15
2.27596e-15
4.996e-15
2.88658e-15
4.21885e-15
2.05391e-15
3.71925e-15
3.55271e-15
4.4964e-15
4.55191e-15
2.498e-15
2.44249e-15
2.60902e-15
4.32987e-15
3.66374e-15
4.77396e-15
3.77476e-15
4.77396e-15
3.71925e-15
4.88498e-15
2.44249e-15
4.44089e-16
1.05471e-15
4.60743e-15
1.22125e-15
4.4964e-15
2.498e-15
2.94209e-15
1.83187e-15
3.83027e-15
2.72005e-15
2.22045e-15
5.38458e-15
2.05391e-15
4.60743e-15
2.44249e-15
2.83107e-15
1.60982e-15
1.88738e-15
4.82947e-15
4.16334e-15
2.38698e-15
3.4972e-15
3.55271e-15
0
1.94289e-15
1.05471e-15
0
1.66533e-16
0
3.33067e-16
3.88578e-16
5.55112e-17
1.16573e-15
8.88178e-16
2.83107e-15
1.88738e-15
6.10623e-16
3.88578e-16
0
0
6.66134e-16
2.9976e-15
2.44249e-15
4.4964e-15
4.05231e-15
4.71845e-15
4.44089e-16
7.21645e-16
4.996e-16
0
0
0
0
0
0
0
0
0
0
0
0
0
0
0
0
0
0
0
2.22045e-16
3.71925e-15
2.33147e-15
1.83187e-15
0
0
0
0
5.55112e-16
0
0
9.99201e-16
0
2.77556e-16
0
0
0
0
1.11022e-16
0
0
0
0
5.55112e-16
4.60743e-15
3.05311e-15
0.333514
0.344121
0.338186
0.301501
0.39312
0.360199
0.321459
0.276422
0.308579
0.276651
0.231062
0.172437
0.128799
0.105783
0.0882193
0.0682648
0.0829541
0.0720583
0.06308
0.0541341
0.0194433
0.0153521
0.0120991
0.00912836
0.00912206
0.00799063
0.00690051
0.00524463
0.00028898
0.0003066
0.000335363
0.000376499
0.000167606
0.000185539
0.00020354
0.000231495
0.000494552
0.000621539
0.000639987
0.000646207
0.00126046
0.0014439
0.00168204
0.00185365
0.00160352
0.00179911
0.0019927
0.00213683
0.00130062
0.00146849
0.00159372
0.00164584
0.000553144
0.000651237
0.000717363
0.000743118
0.000113714
0.000149856
0.000167986
0.000169846
2.43942e-05
3.22447e-05
3.5244e-05
3.53395e-05
3.44682e-06
4.56082e-06
5.10673e-06
5.37708e-06
3.40514e-07
4.6096e-07
5.24566e-07
6.33394e-07
2.71423e-08
3.7383e-08
4.36278e-08
5.43587e-08
2.4009e-09
3.57895e-09
4.22432e-09
4.57115e-09
1.29737e-10
1.93023e-10
2.19226e-10
2.16063e-10
4.97996e-12
7.79088e-12
9.3961e-12
7.90551e-12
1.73916e-13
2.57627e-13
3.07865e-13
2.50633e-13
3.4972e-15
6.16174e-15
9.49241e-15
9.15934e-15
4.996e-16
1.16573e-15
3.88578e-16
1.22125e-15
0
1.16573e-15
0
1.77636e-15
0
4.996e-16
0
0
0
2.77556e-16
0
0
3.88578e-16
7.21645e-16
0
7.77156e-16
0
6.66134e-16
0
5.55112e-16
0
0
0
1.9984e-15
0
0
0
0
9.99201e-16
1.55431e-15
0
0
0
7.77156e-16
0
0
2.77556e-16
1.11022e-16
0
0
0
3.88578e-16
0
3.88578e-16
7.21645e-16
8.32667e-16
0
3.88578e-16
5.55112e-16
1.11022e-15
0
0
0
2.77556e-16
0
0
0
5.55112e-17
0
0
3.33067e-16
1.05471e-15
0
3.55271e-15
3.44169e-15
0
0
0
0.106454
0.00437949
0.000138583
0.000132302
1.70825e-05
1.20334e-06
5.47582e-08
1.50987e-09
3.22456e-11
6.24056e-13
1.01585e-14
1.4988e-15
0
0
2.22045e-16
5.55112e-17
0
0
1.11022e-15
0.171535
0.0646195
0.0173098
0.00316798
0.000325755
2.99443e-05
1.6078e-06
5.50265e-08
1.47639e-09
3.28545e-11
6.35991e-13
1.04916e-14
8.32667e-16
7.21645e-16
3.88578e-16
4.44089e-16
0
1.72085e-15
4.996e-16
0.116756
0.0616822
0.0260721
0.00897462
0.00245133
0.000362362
2.70114e-05
1.2064e-06
4.01013e-08
1.06313e-09
2.03246e-11
3.10418e-13
5.77316e-15
5.55112e-16
1.55431e-15
1.11022e-16
1.55431e-15
0
1.83187e-15
0.0526321
0.0409097
0.0237341
0.00979649
0.0029259
0.00052971
5.46717e-05
3.673e-06
1.68126e-07
5.13707e-09
1.19678e-10
2.14095e-12
3.18634e-14
2.66454e-15
1.16573e-15
1.22125e-15
1.77636e-15
2.77556e-16
2.38698e-15
0.0412795
0.0339458
0.0237694
0.0109753
0.00355047
0.000756235
9.01865e-05
6.68248e-06
3.40767e-07
1.23293e-08
3.19529e-10
6.18461e-12
9.17044e-14
4.05231e-15
2.38698e-15
2.83107e-15
2.44249e-15
1.16573e-15
2.22045e-15
0.0091394
0.0170314
0.0180591
0.0126989
0.00518616
0.00127147
0.000192298
1.59239e-05
8.2124e-07
2.85819e-08
7.19039e-10
1.37095e-11
2.0467e-13
5.10703e-15
2.16493e-15
4.4964e-15
3.16414e-15
0
8.88178e-16
0.00441353
0.00772711
0.0119691
0.00945038
0.004178
0.000996634
0.000145265
1.17728e-05
5.92511e-07
2.0242e-08
5.04087e-10
9.61398e-12
1.44718e-13
2.94209e-15
2.16493e-15
1.9984e-15
4.05231e-15
4.44089e-16
4.44089e-16
0.000759542
0.00408434
0.00865742
0.00671002
0.00247526
0.000470147
5.51766e-05
4.07971e-06
2.0499e-07
7.31406e-09
1.94066e-10
3.9363e-12
6.44484e-14
2.60902e-15
2.72005e-15
2.60902e-15
2.66454e-15
3.33067e-16
1.88738e-15
0.000784344
0.0042499
0.00663505
0.00464029
0.00109369
0.00015479
1.60387e-05
1.15864e-06
5.91438e-08
2.16275e-09
5.84245e-11
1.21247e-12
2.14273e-14
9.4369e-16
1.33227e-15
9.99201e-16
1.44329e-15
0
1.33227e-15
0.00132233
0.00420263
0.00515621
0.00261249
0.000444076
5.27015e-05
5.01165e-06
3.3213e-07
1.65325e-08
5.86812e-10
1.51015e-11
2.95819e-13
4.996e-15
1.9984e-15
3.10862e-15
2.22045e-15
2.16493e-15
0
2.33147e-15
0.00257077
0.00378567
0.00351609
0.00119495
0.000181694
1.9034e-05
1.50171e-06
8.31367e-08
3.52518e-09
1.11362e-10
2.59659e-12
5.28466e-14
3.71925e-15
3.05311e-15
2.16493e-15
1.88738e-15
1.60982e-15
0
2.16493e-15
0.00238043
0.00277824
0.00170189
0.000457816
6.45834e-05
6.17592e-06
4.21459e-07
2.31644e-08
7.54824e-10
2.00932e-11
3.9313e-13
1.02141e-14
2.16493e-15
2.16493e-15
2.66454e-15
1.33227e-15
2.10942e-15
3.33067e-16
2.33147e-15
0.00164355
0.00121939
0.000580305
0.000134954
1.72233e-05
1.49929e-06
8.6457e-08
4.43254e-09
1.50481e-10
4.0562e-12
8.65419e-14
2.94209e-15
1.27676e-15
2.05391e-15
2.10942e-15
1.94289e-15
1.55431e-15
4.44089e-16
1.66533e-16
0.000658321
0.000400754
0.000158862
3.24448e-05
3.55095e-06
2.77235e-07
1.36227e-08
6.16373e-10
2.01534e-11
5.45342e-13
1.35447e-14
2.16493e-15
2.38698e-15
3.33067e-15
1.94289e-15
2.88658e-15
2.16493e-15
0
9.4369e-16
0.000129081
8.367e-05
2.71876e-05
5.28109e-06
5.24297e-07
3.79677e-08
1.65935e-09
6.75575e-11
1.91902e-12
5.04596e-14
2.498e-15
2.22045e-15
1.83187e-15
3.21965e-15
2.33147e-15
1.72085e-15
1.22125e-15
0
2.10942e-15
2.41883e-05
1.4723e-05
3.78079e-06
7.18438e-07
6.3202e-08
4.21052e-09
1.64523e-10
6.05821e-12
1.56097e-13
5.9952e-15
1.55431e-15
2.498e-15
3.05311e-15
3.66374e-15
9.99201e-16
2.16493e-15
1.05471e-15
2.22045e-16
9.99201e-16
3.53813e-06
1.95908e-06
4.07887e-07
7.78289e-08
6.30496e-09
3.85985e-10
1.38342e-11
4.60187e-13
1.43219e-14
1.66533e-15
2.27596e-15
1.60982e-15
2.38698e-15
1.88738e-15
1.60982e-15
1.94289e-15
2.44249e-15
0
2.55351e-15
4.08878e-07
2.04045e-07
3.47733e-08
6.30998e-09
5.10755e-10
2.93067e-11
1.00109e-12
3.29736e-14
3.66374e-15
3.10862e-15
1.44329e-15
2.55351e-15
3.4972e-15
3.66374e-15
4.10783e-15
2.38698e-15
2.44249e-15
0
3.44169e-15
3.6248e-08
1.5825e-08
3.06262e-09
4.15633e-10
2.93703e-11
1.82998e-12
6.26166e-14
3.77476e-15
1.38778e-15
1.9984e-15
2.66454e-15
1.83187e-15
3.05311e-15
3.27516e-15
4.44089e-15
1.16573e-15
1.38778e-15
0
3.77476e-15
2.99404e-09
1.00381e-09
1.76489e-10
2.12173e-11
1.65218e-12
1.02585e-13
4.71845e-15
1.94289e-15
2.16493e-15
1.77636e-15
3.60822e-15
2.66454e-15
2.9976e-15
2.498e-15
1.55431e-15
1.4988e-15
6.10623e-16
2.77556e-16
4.66294e-15
1.24901e-10
5.25927e-11
8.60018e-12
1.19055e-12
8.36553e-14
5.32907e-15
5.55112e-16
3.05311e-15
4.66294e-15
6.66134e-16
3.4972e-15
1.38778e-15
3.44169e-15
2.498e-15
0
3.05311e-15
2.27596e-15
2.05391e-15
4.32987e-15
4.97236e-12
2.39353e-12
3.66318e-13
5.91194e-14
5.71765e-15
2.66454e-15
2.16493e-15
1.4988e-15
2.60902e-15
3.4972e-15
2.33147e-15
1.4988e-15
3.05311e-15
2.33147e-15
1.55431e-15
2.60902e-15
2.60902e-15
1.11022e-16
3.55271e-15
1.80689e-13
9.79772e-14
1.67644e-14
4.77396e-15
1.22125e-15
1.72085e-15
3.77476e-15
1.11022e-15
1.66533e-15
2.72005e-15
1.94289e-15
1.88738e-15
3.83027e-15
4.27436e-15
1.94289e-15
1.27676e-15
3.27516e-15
0
1.16573e-15
7.88258e-15
6.21725e-15
2.72005e-15
1.72085e-15
3.27516e-15
3.71925e-15
2.498e-15
2.05391e-15
2.77556e-15
2.05391e-15
2.22045e-15
2.9976e-15
3.05311e-15
2.55351e-15
2.88658e-15
1.88738e-15
2.77556e-15
0
2.05391e-15
1.05471e-15
1.9984e-15
3.4972e-15
2.38698e-15
1.77636e-15
3.9968e-15
2.77556e-15
3.10862e-15
2.83107e-15
2.77556e-15
2.9976e-15
2.44249e-15
2.05391e-15
1.22125e-15
1.88738e-15
1.88738e-15
2.66454e-15
2.77556e-16
1.4988e-15
2.22045e-15
3.94129e-15
3.77476e-15
2.38698e-15
1.9984e-15
2.05391e-15
3.4972e-15
1.88738e-15
0
1.05471e-15
2.22045e-15
8.32667e-16
2.16493e-15
6.10623e-16
1.94289e-15
3.33067e-15
2.55351e-15
1.55431e-15
2.44249e-15
1.11022e-15
3.94129e-15
4.77396e-15
1.94289e-15
2.77556e-16
6.66134e-16
2.60902e-15
1.27676e-15
7.21645e-16
4.44089e-16
6.66134e-16
1.4988e-15
3.33067e-15
3.16414e-15
3.10862e-15
3.60822e-15
4.32987e-15
6.66134e-16
3.10862e-15
6.66134e-16
1.22125e-15
3.10862e-15
1.38778e-15
1.88738e-15
1.77636e-15
1.83187e-15
2.38698e-15
1.33227e-15
1.55431e-15
2.83107e-15
1.38778e-15
2.38698e-15
2.77556e-15
1.60982e-15
2.77556e-15
3.9968e-15
0
2.498e-15
1.66533e-15
2.38698e-15
1.66533e-15
2.55351e-15
3.27516e-15
3.38618e-15
9.99201e-16
2.9976e-15
1.77636e-15
1.83187e-15
2.05391e-15
1.94289e-15
1.9984e-15
4.05231e-15
1.60982e-15
9.4369e-16
1.9984e-15
0
2.83107e-15
1.72085e-15
3.33067e-16
7.21645e-16
2.10942e-15
1.88738e-15
1.88738e-15
2.27596e-15
1.27676e-15
2.44249e-15
1.55431e-15
1.33227e-15
2.72005e-15
3.88578e-16
2.44249e-15
3.38618e-15
7.77156e-16
2.22045e-15
5.55112e-16
2.72005e-15
2.10942e-15
3.88578e-16
1.83187e-15
6.66134e-16
4.996e-16
8.32667e-16
4.996e-16
1.11022e-15
2.83107e-15
3.33067e-15
2.38698e-15
1.4988e-15
9.4369e-16
2.77556e-15
3.77476e-15
2.38698e-15
2.498e-15
1.05471e-15
2.66454e-15
1.05471e-15
2.33147e-15
4.10783e-15
9.99201e-16
1.60982e-15
2.9976e-15
1.4988e-15
2.22045e-15
2.72005e-15
4.66294e-15
2.498e-15
1.77636e-15
2.60902e-15
2.05391e-15
1.77636e-15
3.88578e-15
2.94209e-15
1.66533e-15
3.33067e-15
1.05471e-15
0
2.22045e-15
1.55431e-15
3.21965e-15
2.27596e-15
1.9984e-15
1.11022e-15
1.44329e-15
1.9984e-15
1.4988e-15
1.33227e-15
2.55351e-15
2.27596e-15
1.88738e-15
1.4988e-15
1.77636e-15
0
2.72005e-15
0
1.44329e-15
1.94289e-15
9.99201e-16
0
1.11022e-15
1.38778e-15
2.77556e-15
2.10942e-15
3.38618e-15
2.44249e-15
3.21965e-15
1.77636e-15
2.33147e-15
4.71845e-15
7.77156e-16
2.94209e-15
0
2.94209e-15
9.99201e-16
2.94209e-15
1.9984e-15
2.10942e-15
0
1.22125e-15
2.27596e-15
2.9976e-15
9.4369e-16
2.05391e-15
4.38538e-15
1.16573e-15
3.27516e-15
1.88738e-15
3.88578e-15
2.33147e-15
2.33147e-15
0
2.66454e-15
8.88178e-16
9.99201e-16
2.83107e-15
2.10942e-15
1.88738e-15
3.05311e-15
3.94129e-15
3.21965e-15
2.44249e-15
4.44089e-16
2.27596e-15
2.22045e-15
1.44329e-15
1.55431e-15
2.83107e-15
2.10942e-15
2.16493e-15
4.996e-16
2.10942e-15
4.44089e-16
3.88578e-16
1.33227e-15
2.60902e-15
3.55271e-15
3.88578e-15
2.22045e-15
2.05391e-15
2.33147e-15
1.66533e-16
1.66533e-15
2.10942e-15
2.33147e-15
1.27676e-15
1.60982e-15
1.72085e-15
3.66374e-15
0
2.498e-15
1.38778e-15
1.44329e-15
7.77156e-16
1.77636e-15
1.38778e-15
2.10942e-15
0
1.22125e-15
2.27596e-15
2.10942e-15
2.498e-15
2.05391e-15
1.88738e-15
1.94289e-15
1.88738e-15
1.11022e-15
2.10942e-15
0
1.72085e-15
1.55431e-15
8.32667e-16
1.72085e-15
6.66134e-16
7.77156e-16
4.10783e-15
5.55112e-16
2.60902e-15
0
2.22045e-15
2.27596e-15
3.9968e-15
1.38778e-15
1.33227e-15
2.72005e-15
2.66454e-15
9.4369e-16
0
9.4369e-16
4.44089e-16
1.27676e-15
1.55431e-15
1.22125e-15
3.38618e-15
2.94209e-15
2.66454e-15
3.55271e-15
5.55112e-17
2.22045e-15
2.10942e-15
3.44169e-15
1.66533e-15
3.10862e-15
2.60902e-15
2.9976e-15
2.77556e-15
3.33067e-16
2.9976e-15
1.16573e-15
1.22125e-15
0
0
0
8.32667e-16
0
0
0
1.66533e-16
0
0
8.32667e-16
0
0
0
9.99201e-16
2.22045e-16
2.77556e-16
0
1.9984e-15
1.16573e-15
1.11022e-15
2.72005e-15
1.94289e-15
5.55112e-16
1.27676e-15
6.66134e-16
2.27596e-15
2.10942e-15
1.83187e-15
3.60822e-15
1.33227e-15
2.27596e-15
9.99201e-16
1.83187e-15
1.44329e-15
0
)
;

boundaryField
{
    leftWall
    {
        type            zeroGradient;
    }
    rightWall
    {
        type            zeroGradient;
    }
    lowerWall
    {
        type            zeroGradient;
    }
    atmosphere
    {
        type            inletOutlet;
        inletValue      uniform 0;
        value           nonuniform List<scalar> 
46
(
1.83187e-15
0
0
0
0
5.55112e-16
0
0
9.99201e-16
0
2.77556e-16
0
0
0
0
1.11022e-16
0
0
0
0
5.55112e-16
4.60743e-15
3.05311e-15
3.44169e-15
0
0
0
0
1.9984e-15
1.16573e-15
1.11022e-15
2.72005e-15
1.94289e-15
5.55112e-16
1.27676e-15
6.66134e-16
2.27596e-15
2.10942e-15
1.83187e-15
3.60822e-15
1.33227e-15
2.27596e-15
9.99201e-16
1.83187e-15
1.44329e-15
0
)
;
    }
    defaultFaces
    {
        type            empty;
    }
}


// ************************************************************************* //
