/*--------------------------------*- C++ -*----------------------------------*\
| =========                 |                                                 |
| \\      /  F ield         | foam-extend: Open Source CFD                    |
|  \\    /   O peration     | Version:     4.1                                |
|   \\  /    A nd           | Web:         http://www.foam-extend.org         |
|    \\/     M anipulation  |                                                 |
\*---------------------------------------------------------------------------*/
FoamFile
{
    version     2.0;
    format      ascii;
    class       volScalarField;
    location    "0.2";
    object      C;
}
// * * * * * * * * * * * * * * * * * * * * * * * * * * * * * * * * * * * * * //

dimensions      [0 0 0 0 0 0 0];

internalField   nonuniform List<scalar> 
2268
(
1
1
1
1
1
1
1
1
1
1
1
0.998626
0.991369
0.992203
0.994729
0.994692
0.994037
0.991941
0.962043
0.723375
0.0981234
-0.459314
-0.781465
1
1
1
1
1
1
1
1
1
1
1
0.985729
0.907931
0.904219
0.933185
0.955845
0.969883
0.970417
0.966525
0.930277
0.539406
-0.286844
-0.791817
1
1
1
1
1
1
1
1
1
1
0.999997
0.926875
0.426492
0.521119
0.648312
0.830883
0.90891
0.912699
0.905365
0.555972
-0.168056
-0.643566
-0.861547
1
1
1
1
1
1
1
1
1
1
0.999995
0.772776
-0.324215
-0.185227
-0.168207
0.0842821
0.561107
0.783692
0.721954
-0.0318528
-0.657204
-0.829292
-0.913809
1
1
1
1
1
1
1
1
1
1
0.999996
0.962542
0.405921
-0.373798
-0.238563
-0.0445077
0.160932
0.503796
0.56104
0.110334
-0.295525
-0.691302
-0.90235
1
1
1
1
1
1
1
1
1
1
0.999997
0.998356
0.929157
0.471505
-0.0203924
0.359304
0.576481
0.651816
0.643518
0.475584
0.25949
-0.254839
-0.800479
1
1
1
1
1
1
1
1
1
1
0.999994
0.99628
0.797463
0.630747
0.103989
0.341963
0.433607
0.429927
0.586584
0.546747
0.411925
-0.0323786
-0.653164
1
1
1
1
1
1
1
1
1
1
0.999993
0.994483
0.473948
-0.117376
-0.219995
0.0636117
0.411722
-0.139516
0.0888364
0.0629929
-0.0135066
-0.464411
-0.746444
-1
-1
-1
-1
-1
-1
-1
-1
-1
-1
-1
-1
-1
-1
-1
-1
-1
-1
-1
-1
-1
-1
-1
-1
-1
-1
-1
-1
-1
-1
-1
-1
-1
-1
-1
-1
-1
-1
-1
-1
-1
-1
-1
-1
-1
-1
-1
-1
-1
-1
-1
-1
-1
-1
-1
-1
-1
-1
-1
-1
-1
-1
-1
-1
-1
-1
-1
-1
-1
-1
-1
-1
-1
-1
-1
-1
-1
-1
-1
-1
-1
-1
-1
-1
-1
-1
-1
-1
-1
-1
-1
-1
-1
-1
-1
-0.999995
-1
-1
-1
-1
-1
-1
-1
-1
-1
-1
-1
-1
-1
-1
-1
-1
-1
-1
-0.999559
-0.999971
-0.999996
-0.999997
-1
-1
-1
-1
-1
-1
-1
-1
-1
-1
-1
-1
-1
-1
-1
-0.981223
-0.998767
-0.999959
-0.999976
-0.999998
-1
-1
-1
-1
-1
-1
-1
-1
-1
-1
-1
-1
-1
-1
1
1
1
1
1
1
1
1
1
0.999996
0.999979
0.999713
0.989273
0.829042
0.383704
0.391631
0.555804
0.573998
0.567859
0.51187
0.286641
0.0954755
-0.41781
1
1
1
1
1
1
1
1
0.999996
0.999954
0.999875
0.997914
0.987042
0.95698
0.921913
0.903384
0.855571
0.785599
0.662858
0.383999
0.122969
0.0231833
-0.106202
1
1
1
1
1
1
1
0.999996
0.999961
0.999579
0.999205
0.993613
0.934061
0.72852
0.616326
0.543629
0.374732
0.258368
0.235089
-0.00614088
-0.169015
-0.255089
-0.328866
1
1
1
1
1
1
1
0.999958
0.999701
0.996884
0.995825
0.978867
0.856602
0.513493
0.32039
0.213245
0.0850743
-0.140151
-0.326055
-0.522516
-0.600024
-0.664605
-0.696252
0.999999
1
1
1
1
1
1
0.999677
0.998031
0.985154
0.974152
0.958114
0.822142
0.529119
0.357008
0.260503
0.121245
-0.154252
-0.412306
-0.584372
-0.687653
-0.742723
-0.799152
0.999993
0.999998
1
1
0.999999
0.999997
0.999997
0.998215
0.988565
0.929636
0.87565
0.88292
0.690785
0.3961
0.325076
0.284965
0.168774
-0.312737
-0.683514
-0.819441
-0.89144
-0.915377
-0.945625
0.999932
0.999982
0.999998
0.999999
0.999996
0.999977
0.999971
0.991881
0.947969
0.72088
0.595058
0.696842
0.139446
-0.351747
-0.386946
-0.264674
-0.366813
-0.759171
-0.856957
-0.908395
-0.946513
-0.964131
-0.977421
0.999454
0.999863
0.999985
0.999992
0.99997
0.999863
0.999768
0.967863
0.802328
0.0803013
0.0115639
0.381904
-0.294352
-0.724716
-0.81497
-0.741926
-0.850911
-0.958622
-0.986387
-0.995485
-0.998307
-0.999175
-0.999453
0.996163
0.999074
0.999903
0.99995
0.99981
0.999426
0.997814
0.886993
0.39364
-0.528381
-0.493176
0.123358
-0.363301
-0.778522
-0.90066
-0.912497
-0.955668
-0.984864
-0.995553
-0.998801
-0.999609
-0.999819
-0.999708
0.976782
0.994613
0.999431
0.999715
0.999183
0.996908
0.980114
0.661334
-0.264339
-0.788276
-0.702972
-0.0850653
-0.552613
-0.860222
-0.94274
-0.958064
-0.979239
-0.988464
-0.995712
-0.998981
-0.999778
-0.999751
-0.999263
0.885643
0.974948
0.997405
0.99846
0.99724
0.983292
0.851581
0.0838181
-0.632427
-0.93526
-0.765296
-0.185221
-0.715895
-0.964471
-0.986196
-0.985822
-0.993976
-0.992502
-0.996447
-0.999238
-0.999713
-0.999527
-0.998252
0.555023
0.904372
0.990507
0.99262
0.991506
0.942428
0.629084
-0.157149
-0.662608
-0.955371
-0.778743
-0.232966
-0.767882
-0.981153
-0.997259
-0.998093
-0.999189
-0.9972
-0.998274
-0.998549
-0.999206
-0.999281
-0.997639
-0.152142
0.69289
0.963416
0.963884
0.977511
0.902407
0.621042
-0.0322493
-0.60956
-0.955289
-0.778453
-0.26856
-0.802487
-0.986721
-0.999509
-0.99978
-0.99959
-0.998993
-0.99678
-0.994189
-0.99841
-0.999639
-0.99849
-0.603547
0.205273
0.842752
0.855383
0.95297
0.85893
0.761446
0.222751
-0.588634
-0.949142
-0.705717
0.206234
-0.717053
-0.991317
-0.999884
-0.999789
-0.999406
-0.999138
-0.996822
-0.990645
-0.997793
-0.999854
-0.999434
-0.762403
-0.387461
0.522962
0.508928
0.85426
0.705523
0.608068
0.0914812
-0.732576
-0.992896
-0.945243
-0.234959
-0.95106
-0.999737
-0.999948
-0.999723
-0.998977
-0.998168
-0.998015
-0.995013
-0.999124
-0.999964
-0.999924
-0.823446
-0.502268
0.291364
-0.118292
0.677811
0.393143
-0.118462
-0.789207
-0.988494
-0.999482
-0.993818
-0.953869
-0.999388
-0.999945
-0.999953
-0.999718
-0.998878
-0.997315
-0.996353
-0.997348
-0.999669
-0.999985
-0.999987
-0.814257
-0.383841
0.127046
-0.462476
0.274619
-0.411449
-0.835146
-0.977656
-0.997986
-0.999864
-0.999541
-0.998625
-0.999914
-0.999975
-0.999985
-0.999932
-0.999711
-0.999159
-0.998532
-0.998601
-0.999784
-0.999993
-0.999997
-0.797592
-0.467739
-0.0815815
-0.652183
-0.179631
-0.812754
-0.966088
-0.992624
-0.998336
-0.999914
-0.999965
-0.999942
-0.999982
-0.999991
-0.999996
-0.999992
-0.99996
-0.99988
-0.999781
-0.999721
-0.999816
-0.999998
-1
-0.867576
-0.316792
-0.0785485
-0.741562
-0.642289
-0.923301
-0.990299
-0.997766
-0.999552
-0.999987
-0.999997
-0.999997
-0.999995
-0.999997
-0.999999
-1
-0.999997
-0.999987
-0.999969
-0.999958
-0.999984
-1
-1
-0.969889
-0.774805
-0.795773
-0.978333
-0.934511
-0.99266
-0.998121
-0.999533
-0.999849
-0.999992
-0.999999
-1
-1
-1
-1
-1
-1
-1
-1
-1
-1
-1
-1
-0.998704
-0.98843
-0.984663
-0.997921
-0.996045
-0.999308
-0.999707
-0.999915
-0.999912
-0.999994
-0.999999
-1
-1
-1
-1
-1
-1
-1
-1
-1
-1
-1
-1
-0.9999
-0.999822
-0.999513
-0.999946
-0.999979
-0.999982
-0.999942
-0.999983
-0.999972
-0.999998
-0.999999
-1
-1
-1
-1
-1
-1
-1
-1
-1
-1
-1
-1
-0.999974
-0.999996
-0.999999
-1
-1
-0.999999
-0.999993
-1
-0.999998
-1
-1
-1
-1
-1
-1
-1
-1
-1
-1
-1
-1
-1
-1
-0.999996
-1
-1
-1
-1
-1
-1
-1
-1
-1
-1
-1
-1
-1
-1
-1
-1
-1
-1
-1
-1
-1
-1
-1
-1
-1
-1
-1
-1
-1
-1
-1
-1
-1
-1
-1
-1
-1
-1
-1
-1
-1
-1
-1
-1
-1
-1
-1
-1
-1
-1
-1
-1
-1
-1
-1
-1
-1
-1
-1
-1
-1
-1
-1
-1
-1
-1
-1
-1
-1
-1
-1
-1
-1
-1
-1
-1
-1
-1
-1
-1
-1
-1
-1
-1
-1
-1
-1
-1
-1
-1
-1
-1
-1
-1
-1
-1
-1
-1
-1
-1
-1
-1
-1
-1
-1
-1
-1
-1
-1
-1
-1
-1
-1
-1
-1
-1
-1
-1
-1
-1
-1
-1
-1
-1
-1
-1
-1
-1
-1
-1
-1
-1
-1
-1
-1
-1
-1
-1
-1
-1
-1
-1
-1
-1
-1
-1
-1
-1
-1
-1
-1
-1
-1
-1
-1
-1
-1
-1
-1
-1
-1
-1
-1
-1
-1
-1
-1
-1
-1
-1
-1
-1
-1
-1
-1
-1
-1
-1
-1
-1
-1
-1
-1
-1
-1
-1
-1
-1
-1
-1
-1
-1
-1
-1
-1
-1
-1
-1
-1
-1
-1
-1
-1
-1
-1
-1
-1
-1
-1
-1
-1
-1
-1
-1
-1
-1
-1
-1
-1
-1
-1
-1
-1
-1
-1
-1
-1
-1
-1
-1
-1
-1
-1
-1
-1
-1
-1
-1
-1
-1
-1
-1
-1
-1
-1
-1
-1
-1
-1
-1
-1
-1
-1
-1
-1
-1
-1
-1
-1
-1
-1
-1
-1
-1
-1
-1
-1
-1
-1
-1
-1
-1
-1
-1
-1
-1
-1
-1
-1
-1
-1
-1
-1
-1
-1
-1
-1
-1
-1
-1
-1
-1
-1
-1
-1
-1
-1
-1
-1
-1
-1
-1
-1
-1
-1
-1
-1
-1
-1
-1
-1
-1
-1
-1
-1
-1
-1
-1
-1
-1
-1
-1
-1
-1
-1
-1
-1
-1
-1
-1
-1
-1
-1
-1
-1
-1
-1
-1
-1
-1
-1
-1
-1
-1
-1
-1
-1
-1
-1
-1
-1
-1
-1
-1
-1
-1
-1
-1
-1
-1
-1
-1
-1
-1
-1
-1
-1
-1
-1
-1
-1
-1
-1
-1
-1
-1
-1
-1
-1
-1
-1
-1
-1
-1
-1
-1
-1
-1
-1
-1
-1
-1
-1
-1
-1
-1
-1
-1
-1
-1
-1
-1
-1
-1
-1
-1
-1
-1
-1
-1
-1
-1
-1
-1
-1
-1
-1
-1
-1
-1
-1
-1
-1
-1
-1
-1
-1
-1
-1
-1
-1
-1
-1
-1
-1
-1
-0.332971
-0.311759
-0.323628
-0.396999
-0.213761
-0.279602
-0.357082
-0.447156
-0.382842
-0.446698
-0.537876
-0.655125
-0.742401
-0.788434
-0.823561
-0.86347
-0.834092
-0.855883
-0.87384
-0.891732
-0.961113
-0.969296
-0.975802
-0.981743
-0.981756
-0.984019
-0.986199
-0.989511
-0.999422
-0.999387
-0.999329
-0.999247
-0.999665
-0.999629
-0.999593
-0.999537
-0.999011
-0.998757
-0.99872
-0.998708
-0.997479
-0.997112
-0.996636
-0.996293
-0.996793
-0.996402
-0.996015
-0.995726
-0.997399
-0.997063
-0.996813
-0.996708
-0.998894
-0.998698
-0.998565
-0.998514
-0.999773
-0.9997
-0.999664
-0.99966
-0.999951
-0.999936
-0.99993
-0.999929
-0.999993
-0.999991
-0.99999
-0.999989
-0.999999
-0.999999
-0.999999
-0.999999
-1
-1
-1
-1
-1
-1
-1
-1
-1
-1
-1
-1
-1
-1
-1
-1
-1
-1
-1
-1
-1
-1
-1
-1
-1
-1
-1
-1
-1
-1
-1
-1
-1
-1
-1
-1
-1
-1
-1
-1
-1
-1
-1
-1
-1
-1
-1
-1
-1
-1
-1
-1
-1
-1
-1
-1
-1
-1
-1
-1
-1
-1
-1
-1
-1
-1
-1
-1
-1
-1
-1
-1
-1
-1
-1
-1
-1
-1
-1
-1
-1
-1
-1
-1
-1
-1
-1
-1
-1
-1
-1
-1
-1
-1
-1
-1
-0.787092
-0.991241
-0.999723
-0.999735
-0.999966
-0.999998
-1
-1
-1
-1
-1
-1
-1
-1
-1
-1
-1
-1
-1
-0.656931
-0.870761
-0.96538
-0.993664
-0.999348
-0.99994
-0.999997
-1
-1
-1
-1
-1
-1
-1
-1
-1
-1
-1
-1
-0.766487
-0.876636
-0.947856
-0.982051
-0.995097
-0.999275
-0.999946
-0.999998
-1
-1
-1
-1
-1
-1
-1
-1
-1
-1
-1
-0.894736
-0.918181
-0.952532
-0.980407
-0.994148
-0.998941
-0.999891
-0.999993
-1
-1
-1
-1
-1
-1
-1
-1
-1
-1
-1
-0.917441
-0.932108
-0.952461
-0.978049
-0.992899
-0.998488
-0.99982
-0.999987
-0.999999
-1
-1
-1
-1
-1
-1
-1
-1
-1
-1
-0.981721
-0.965937
-0.963882
-0.974602
-0.989628
-0.997457
-0.999615
-0.999968
-0.999998
-1
-1
-1
-1
-1
-1
-1
-1
-1
-1
-0.991173
-0.984546
-0.976062
-0.981099
-0.991644
-0.998007
-0.999709
-0.999976
-0.999999
-1
-1
-1
-1
-1
-1
-1
-1
-1
-1
-0.998481
-0.991831
-0.982685
-0.98658
-0.995049
-0.99906
-0.99989
-0.999992
-1
-1
-1
-1
-1
-1
-1
-1
-1
-1
-1
-0.998431
-0.9915
-0.98673
-0.990719
-0.997813
-0.99969
-0.999968
-0.999998
-1
-1
-1
-1
-1
-1
-1
-1
-1
-1
-1
-0.997355
-0.991595
-0.989688
-0.994775
-0.999112
-0.999895
-0.99999
-0.999999
-1
-1
-1
-1
-1
-1
-1
-1
-1
-1
-1
-0.994858
-0.992429
-0.992968
-0.99761
-0.999637
-0.999962
-0.999997
-1
-1
-1
-1
-1
-1
-1
-1
-1
-1
-1
-1
-0.995239
-0.994444
-0.996596
-0.999084
-0.999871
-0.999988
-0.999999
-1
-1
-1
-1
-1
-1
-1
-1
-1
-1
-1
-1
-0.996713
-0.997561
-0.998839
-0.99973
-0.999966
-0.999997
-1
-1
-1
-1
-1
-1
-1
-1
-1
-1
-1
-1
-1
-0.998683
-0.999198
-0.999682
-0.999935
-0.999993
-0.999999
-1
-1
-1
-1
-1
-1
-1
-1
-1
-1
-1
-1
-1
-0.999742
-0.999833
-0.999946
-0.999989
-0.999999
-1
-1
-1
-1
-1
-1
-1
-1
-1
-1
-1
-1
-1
-1
-0.999952
-0.999971
-0.999992
-0.999999
-1
-1
-1
-1
-1
-1
-1
-1
-1
-1
-1
-1
-1
-1
-1
-0.999993
-0.999996
-0.999999
-1
-1
-1
-1
-1
-1
-1
-1
-1
-1
-1
-1
-1
-1
-1
-1
-0.999999
-1
-1
-1
-1
-1
-1
-1
-1
-1
-1
-1
-1
-1
-1
-1
-1
-1
-1
-1
-1
-1
-1
-1
-1
-1
-1
-1
-1
-1
-1
-1
-1
-1
-1
-1
-1
-1
-1
-1
-1
-1
-1
-1
-1
-1
-1
-1
-1
-1
-1
-1
-1
-1
-1
-1
-1
-1
-1
-1
-1
-1
-1
-1
-1
-1
-1
-1
-1
-1
-1
-1
-1
-1
-1
-1
-1
-1
-1
-1
-1
-1
-1
-1
-1
-1
-1
-1
-1
-1
-1
-1
-1
-1
-1
-1
-1
-1
-1
-1
-1
-1
-1
-1
-1
-1
-1
-1
-1
-1
-1
-1
-1
-1
-1
-1
-1
-1
-1
-1
-1
-1
-1
-1
-1
-1
-1
-1
-1
-1
-1
-1
-1
-1
-1
-1
-1
-1
-1
-1
-1
-1
-1
-1
-1
-1
-1
-1
-1
-1
-1
-1
-1
-1
-1
-1
-1
-1
-1
-1
-1
-1
-1
-1
-1
-1
-1
-1
-1
-1
-1
-1
-1
-1
-1
-1
-1
-1
-1
-1
-1
-1
-1
-1
-1
-1
-1
-1
-1
-1
-1
-1
-1
-1
-1
-1
-1
-1
-1
-1
-1
-1
-1
-1
-1
-1
-1
-1
-1
-1
-1
-1
-1
-1
-1
-1
-1
-1
-1
-1
-1
-1
-1
-1
-1
-1
-1
-1
-1
-1
-1
-1
-1
-1
-1
-1
-1
-1
-1
-1
-1
-1
-1
-1
-1
-1
-1
-1
-1
-1
-1
-1
-1
-1
-1
-1
-1
-1
-1
-1
-1
-1
-1
-1
-1
-1
-1
-1
-1
-1
-1
-1
-1
-1
-1
-1
-1
-1
-1
-1
-1
-1
-1
-1
-1
-1
-1
-1
-1
-1
-1
-1
-1
-1
-1
-1
-1
-1
-1
-1
-1
-1
-1
-1
-1
-1
-1
-1
-1
-1
-1
-1
-1
-1
-1
-1
-1
-1
-1
-1
-1
-1
-1
-1
-1
-1
-1
-1
-1
-1
-1
-1
-1
-1
-1
-1
-1
-1
-1
-1
-1
-1
-1
-1
-1
-1
-1
-1
-1
-1
-1
-1
-1
-1
-1
-1
-1
-1
-1
-1
-1
-1
-1
-1
-1
-1
-1
-1
-1
-1
-1
-1
-1
-1
-1
-1
-1
-1
-1
-1
-1
-1
-1
-1
-1
-1
-1
-1
-1
-1
-1
-1
-1
-1
-1
-1
-1
-1
-1
-1
-1
-1
-1
-1
-1
-1
-1
-1
-1
-1
-1
-1
-1
-1
-1
-1
-1
-1
-1
-1
-1
-1
-1
-1
-1
-1
-1
-1
-1
-1
-1
-1
-1
-1
-1
-1
-1
-1
-1
-1
-1
-1
-1
-1
-1
-1
-1
-1
-1
-1
-1
-1
-1
-1
-1
-1
-1
-1
-1
-1
-1
-1
-1
-1
-1
-1
-1
-1
-1
-1
-1
-1
-1
-1
-1
)
;

boundaryField
{
    leftWall
    {
        type            zeroGradient;
    }
    rightWall
    {
        type            zeroGradient;
    }
    lowerWall
    {
        type            zeroGradient;
    }
    atmosphere
    {
        type            zeroGradient;
    }
    defaultFaces
    {
        type            empty;
    }
}


// ************************************************************************* //
