/*--------------------------------*- C++ -*----------------------------------*\
| =========                 |                                                 |
| \\      /  F ield         | foam-extend: Open Source CFD                    |
|  \\    /   O peration     | Version:     4.1                                |
|   \\  /    A nd           | Web:         http://www.foam-extend.org         |
|    \\/     M anipulation  |                                                 |
\*---------------------------------------------------------------------------*/
FoamFile
{
    version     2.0;
    format      ascii;
    class       volScalarField;
    location    "0.2";
    object      C_0;
}
// * * * * * * * * * * * * * * * * * * * * * * * * * * * * * * * * * * * * * //

dimensions      [0 0 0 0 0 0 0];

internalField   nonuniform List<scalar> 
2268
(
1
1
1
1
1
1
1
1
1
1
1
0.998618
0.991625
0.992685
0.994988
0.994777
0.993902
0.991609
0.958315
0.699088
0.0559151
-0.47794
-0.78724
1
1
1
1
1
1
1
1
1
1
1
0.985538
0.909472
0.907338
0.935341
0.957012
0.970207
0.970434
0.965456
0.920021
0.483491
-0.346065
-0.805473
1
1
1
1
1
1
1
1
1
1
0.999997
0.925519
0.423455
0.52932
0.660346
0.835954
0.911293
0.913219
0.898944
0.501506
-0.240043
-0.684768
-0.872354
1
1
1
1
1
1
1
1
1
1
0.999995
0.769609
-0.339169
-0.180393
-0.164394
0.0997341
0.579499
0.786745
0.708358
-0.0643936
-0.662387
-0.832229
-0.915891
1
1
1
1
1
1
1
1
1
1
0.999996
0.95688
0.339397
-0.416336
-0.235222
-0.0354063
0.173362
0.518333
0.561085
0.0937989
-0.284525
-0.674266
-0.900504
1
1
1
1
1
1
1
1
1
1
0.999996
0.998119
0.91894
0.409284
-0.0332665
0.364587
0.583729
0.655444
0.643807
0.475133
0.269796
-0.241606
-0.795148
1
1
1
1
1
1
1
1
1
1
0.999994
0.99595
0.788723
0.617801
0.0809974
0.338964
0.434849
0.440994
0.58792
0.543952
0.398042
-0.0789791
-0.682036
1
1
1
1
1
1
1
1
1
1
0.999992
0.993797
0.419666
-0.129244
-0.237715
0.047045
0.408321
-0.16008
0.0774021
0.046624
-0.0555071
-0.510548
-0.763295
-1
-1
-1
-1
-1
-1
-1
-1
-1
-1
-1
-1
-1
-1
-1
-1
-1
-1
-1
-1
-1
-1
-1
-1
-1
-1
-1
-1
-1
-1
-1
-1
-1
-1
-1
-1
-1
-1
-1
-1
-1
-1
-1
-1
-1
-1
-1
-1
-1
-1
-1
-1
-1
-1
-1
-1
-1
-1
-1
-1
-1
-1
-1
-1
-1
-1
-1
-1
-1
-1
-1
-1
-1
-1
-1
-1
-1
-1
-1
-1
-1
-1
-1
-1
-1
-1
-1
-1
-1
-1
-1
-1
-1
-1
-1
-0.999998
-1
-1
-1
-1
-1
-1
-1
-1
-1
-1
-1
-1
-1
-1
-1
-1
-1
-1
-0.999749
-0.999989
-0.999997
-0.999998
-1
-1
-1
-1
-1
-1
-1
-1
-1
-1
-1
-1
-1
-1
-1
-0.987463
-0.999377
-0.999967
-0.999978
-0.999999
-1
-1
-1
-1
-1
-1
-1
-1
-1
-1
-1
-1
-1
-1
1
1
1
1
1
1
1
1
1
0.999997
0.999979
0.999704
0.988005
0.825621
0.385627
0.400597
0.565219
0.575545
0.565633
0.499601
0.250059
0.0799567
-0.394658
1
1
1
1
1
1
1
1
0.999996
0.99996
0.999883
0.997855
0.987008
0.95663
0.923113
0.902678
0.853571
0.779571
0.638508
0.332802
0.0873393
0.00358085
-0.123449
1
1
1
1
1
1
1
0.999996
0.999966
0.999632
0.999289
0.993378
0.931952
0.723737
0.614681
0.542729
0.373282
0.269587
0.232004
-0.0506755
-0.202786
-0.285505
-0.355121
1
1
1
1
1
1
1
0.999964
0.999739
0.997241
0.996259
0.978501
0.848937
0.498959
0.311791
0.203706
0.0706957
-0.159445
-0.341151
-0.543589
-0.619207
-0.682244
-0.71721
0.999999
1
1
1
1
1
1
0.999719
0.998263
0.986632
0.976915
0.959817
0.813999
0.513665
0.348249
0.249092
0.102688
-0.181924
-0.434574
-0.600372
-0.699857
-0.753924
-0.809643
0.999994
0.999998
1
1
1
0.999997
0.999997
0.998421
0.989801
0.935923
0.888119
0.8913
0.698931
0.419199
0.346911
0.294945
0.15941
-0.331811
-0.693259
-0.825824
-0.895084
-0.919216
-0.949369
0.99994
0.999984
0.999998
0.999999
0.999996
0.99998
0.999976
0.992685
0.952944
0.743113
0.62921
0.715327
0.156754
-0.318802
-0.351542
-0.23467
-0.358503
-0.754359
-0.851738
-0.906135
-0.945402
-0.963897
-0.977403
0.999516
0.999879
0.999986
0.999993
0.999973
0.999876
0.999804
0.970531
0.818519
0.13281
0.0648262
0.405308
-0.294577
-0.721231
-0.807707
-0.733524
-0.849774
-0.958094
-0.985895
-0.995242
-0.998207
-0.999135
-0.999436
0.996552
0.999169
0.999913
0.999955
0.99983
0.999483
0.998164
0.894659
0.432802
-0.501213
-0.463516
0.141512
-0.360693
-0.780219
-0.899652
-0.911078
-0.956551
-0.98544
-0.99582
-0.998886
-0.999624
-0.999823
-0.999706
0.97884
0.9951
0.999483
0.999742
0.999259
0.997223
0.983088
0.68336
-0.217452
-0.773895
-0.691552
-0.0713399
-0.537167
-0.853575
-0.940468
-0.957319
-0.979253
-0.9887
-0.99596
-0.99907
-0.999799
-0.999769
-0.99929
0.894146
0.976859
0.997607
0.998598
0.997477
0.985134
0.87055
0.115423
-0.625285
-0.930035
-0.759132
-0.174585
-0.707751
-0.961711
-0.984979
-0.984844
-0.993534
-0.99225
-0.996468
-0.999292
-0.999751
-0.99956
-0.998316
0.581556
0.910536
0.991171
0.993281
0.992075
0.946877
0.648108
-0.143457
-0.661671
-0.953208
-0.773168
-0.221619
-0.76144
-0.980092
-0.99696
-0.99785
-0.999137
-0.997038
-0.998383
-0.998681
-0.999287
-0.999335
-0.997743
-0.119496
0.710631
0.965858
0.967118
0.97846
0.904867
0.626843
-0.0460801
-0.613404
-0.95396
-0.774307
-0.253096
-0.795189
-0.98572
-0.999454
-0.999775
-0.999588
-0.998948
-0.996733
-0.994324
-0.99842
-0.999668
-0.998579
-0.592156
0.230313
0.852454
0.867212
0.955016
0.860696
0.760058
0.215629
-0.58913
-0.947171
-0.716713
0.217173
-0.718527
-0.991468
-0.999877
-0.999797
-0.999435
-0.999151
-0.996735
-0.990577
-0.997677
-0.999869
-0.999483
-0.756385
-0.371126
0.543114
0.54169
0.862601
0.712344
0.623284
0.115413
-0.725963
-0.991495
-0.943115
-0.231109
-0.950473
-0.999714
-0.999946
-0.999734
-0.999023
-0.998229
-0.99804
-0.994861
-0.999025
-0.999965
-0.999933
-0.823773
-0.509536
0.294993
-0.0853582
0.692393
0.414806
-0.0837442
-0.764221
-0.986844
-0.999423
-0.993611
-0.952369
-0.999341
-0.999942
-0.999954
-0.99973
-0.998923
-0.99734
-0.996332
-0.997187
-0.999628
-0.999985
-0.999988
-0.815299
-0.388904
0.131933
-0.455405
0.299645
-0.376929
-0.822489
-0.975587
-0.997903
-0.999858
-0.99951
-0.998524
-0.999908
-0.999973
-0.999985
-0.999934
-0.99972
-0.999172
-0.998493
-0.998517
-0.99976
-0.999993
-0.999998
-0.795011
-0.461683
-0.069236
-0.648022
-0.153975
-0.812514
-0.965301
-0.992261
-0.998319
-0.999916
-0.999962
-0.999936
-0.99998
-0.99999
-0.999996
-0.999992
-0.999962
-0.99988
-0.999774
-0.999711
-0.999801
-0.999997
-1
-0.858454
-0.301977
-0.073518
-0.751926
-0.613879
-0.921411
-0.989813
-0.997559
-0.999506
-0.999986
-0.999997
-0.999996
-0.999994
-0.999997
-0.999999
-1
-0.999997
-0.999987
-0.999968
-0.999956
-0.999981
-1
-1
-0.968692
-0.767464
-0.794975
-0.978163
-0.92825
-0.992079
-0.997962
-0.999483
-0.999839
-0.999991
-0.999999
-1
-1
-1
-1
-1
-1
-1
-1
-1
-1
-1
-1
-0.998676
-0.987877
-0.983908
-0.997788
-0.995725
-0.999258
-0.999685
-0.999908
-0.999908
-0.999993
-0.999999
-1
-1
-1
-1
-1
-1
-1
-1
-1
-1
-1
-1
-0.999892
-0.999811
-0.999482
-0.99994
-0.999978
-0.99998
-0.999939
-0.999982
-0.99997
-0.999998
-0.999999
-1
-1
-1
-1
-1
-1
-1
-1
-1
-1
-1
-1
-0.999972
-0.999995
-0.999999
-1
-1
-0.999999
-0.999992
-0.999999
-0.999998
-1
-1
-1
-1
-1
-1
-1
-1
-1
-1
-1
-1
-1
-1
-0.999995
-0.999999
-1
-1
-1
-1
-0.999999
-1
-1
-1
-1
-1
-1
-1
-1
-1
-1
-1
-1
-1
-1
-1
-1
-1
-1
-1
-1
-1
-1
-1
-1
-1
-1
-1
-1
-1
-1
-1
-1
-1
-1
-1
-1
-1
-1
-1
-1
-1
-1
-1
-1
-1
-1
-1
-1
-1
-1
-1
-1
-1
-1
-1
-1
-1
-1
-1
-1
-1
-1
-1
-1
-1
-1
-1
-1
-1
-1
-1
-1
-1
-1
-1
-1
-1
-1
-1
-1
-1
-1
-1
-1
-1
-1
-1
-1
-1
-1
-1
-1
-1
-1
-1
-1
-1
-1
-1
-1
-1
-1
-1
-1
-1
-1
-1
-1
-1
-1
-1
-1
-1
-1
-1
-1
-1
-1
-1
-1
-1
-1
-1
-1
-1
-1
-1
-1
-1
-1
-1
-1
-1
-1
-1
-1
-1
-1
-1
-1
-1
-1
-1
-1
-1
-1
-1
-1
-1
-1
-1
-1
-1
-1
-1
-1
-1
-1
-1
-1
-1
-1
-1
-1
-1
-1
-1
-1
-1
-1
-1
-1
-1
-1
-1
-1
-1
-1
-1
-1
-1
-1
-1
-1
-1
-1
-1
-1
-1
-1
-1
-1
-1
-1
-1
-1
-1
-1
-1
-1
-1
-1
-1
-1
-1
-1
-1
-1
-1
-1
-1
-1
-1
-1
-1
-1
-1
-1
-1
-1
-1
-1
-1
-1
-1
-1
-1
-1
-1
-1
-1
-1
-1
-1
-1
-1
-1
-1
-1
-1
-1
-1
-1
-1
-1
-1
-1
-1
-1
-1
-1
-1
-1
-1
-1
-1
-1
-1
-1
-1
-1
-1
-1
-1
-1
-1
-1
-1
-1
-1
-1
-1
-1
-1
-1
-1
-1
-1
-1
-1
-1
-1
-1
-1
-1
-1
-1
-1
-1
-1
-1
-1
-1
-1
-1
-1
-1
-1
-1
-1
-1
-1
-1
-1
-1
-1
-1
-1
-1
-1
-1
-1
-1
-1
-1
-1
-1
-1
-1
-1
-1
-1
-1
-1
-1
-1
-1
-1
-1
-1
-1
-1
-1
-1
-1
-1
-1
-1
-1
-1
-1
-1
-1
-1
-1
-1
-1
-1
-1
-1
-1
-1
-1
-1
-1
-1
-1
-1
-1
-1
-1
-1
-1
-1
-1
-1
-1
-1
-1
-1
-1
-1
-1
-1
-1
-1
-1
-1
-1
-1
-1
-1
-1
-1
-1
-1
-1
-1
-1
-1
-1
-1
-1
-1
-1
-1
-1
-1
-1
-1
-1
-1
-1
-1
-1
-1
-1
-1
-1
-1
-1
-1
-1
-1
-1
-1
-1
-1
-1
-1
-1
-1
-1
-1
-1
-1
-1
-1
-1
-1
-0.319526
-0.31042
-0.331497
-0.428572
-0.229239
-0.300298
-0.386591
-0.485535
-0.415859
-0.487674
-0.584822
-0.693335
-0.765768
-0.81259
-0.8449
-0.878494
-0.843377
-0.86442
-0.881797
-0.898932
-0.963958
-0.971864
-0.978418
-0.983358
-0.981798
-0.984232
-0.986665
-0.99017
-0.999399
-0.999358
-0.999291
-0.999192
-0.999659
-0.999621
-0.999577
-0.999499
-0.999022
-0.998774
-0.998735
-0.998681
-0.99753
-0.997148
-0.99665
-0.996263
-0.996875
-0.996496
-0.996091
-0.995785
-0.997489
-0.997153
-0.996899
-0.996793
-0.998948
-0.998751
-0.998627
-0.998582
-0.999791
-0.999717
-0.999681
-0.999677
-0.999956
-0.999941
-0.999935
-0.999934
-0.999994
-0.999992
-0.999991
-0.99999
-0.999999
-0.999999
-0.999999
-0.999999
-1
-1
-1
-1
-1
-1
-1
-1
-1
-1
-1
-1
-1
-1
-1
-1
-1
-1
-1
-1
-1
-1
-1
-1
-1
-1
-1
-1
-1
-1
-1
-1
-1
-1
-1
-1
-1
-1
-1
-1
-1
-1
-1
-1
-1
-1
-1
-1
-1
-1
-1
-1
-1
-1
-1
-1
-1
-1
-1
-1
-1
-1
-1
-1
-1
-1
-1
-1
-1
-1
-1
-1
-1
-1
-1
-1
-1
-1
-1
-1
-1
-1
-1
-1
-1
-1
-1
-1
-1
-1
-1
-1
-1
-1
-1
-1
-0.817642
-0.993101
-0.999726
-0.999742
-0.999974
-0.999998
-1
-1
-1
-1
-1
-1
-1
-1
-1
-1
-1
-1
-1
-0.695132
-0.890266
-0.971966
-0.995039
-0.999507
-0.999961
-0.999998
-1
-1
-1
-1
-1
-1
-1
-1
-1
-1
-1
-1
-0.790189
-0.890704
-0.954774
-0.98473
-0.996117
-0.999493
-0.999966
-0.999999
-1
-1
-1
-1
-1
-1
-1
-1
-1
-1
-1
-0.902813
-0.924931
-0.957692
-0.983176
-0.995226
-0.999191
-0.999921
-0.999995
-1
-1
-1
-1
-1
-1
-1
-1
-1
-1
-1
-0.922327
-0.936626
-0.95653
-0.980757
-0.993988
-0.998785
-0.999864
-0.99999
-1
-1
-1
-1
-1
-1
-1
-1
-1
-1
-1
-0.98175
-0.965528
-0.965938
-0.977353
-0.99133
-0.997973
-0.999715
-0.999978
-0.999999
-1
-1
-1
-1
-1
-1
-1
-1
-1
-1
-0.991188
-0.983628
-0.977048
-0.982621
-0.993017
-0.998435
-0.999788
-0.999984
-0.999999
-1
-1
-1
-1
-1
-1
-1
-1
-1
-1
-0.998198
-0.990598
-0.983188
-0.987592
-0.995958
-0.999289
-0.999922
-0.999994
-1
-1
-1
-1
-1
-1
-1
-1
-1
-1
-1
-0.998143
-0.990891
-0.987332
-0.991624
-0.998254
-0.999764
-0.999976
-0.999998
-1
-1
-1
-1
-1
-1
-1
-1
-1
-1
-1
-0.997053
-0.991443
-0.990263
-0.995418
-0.999254
-0.999914
-0.999992
-0.999999
-1
-1
-1
-1
-1
-1
-1
-1
-1
-1
-1
-0.994874
-0.992626
-0.993497
-0.997898
-0.999685
-0.999967
-0.999998
-1
-1
-1
-1
-1
-1
-1
-1
-1
-1
-1
-1
-0.99536
-0.994764
-0.996918
-0.999193
-0.999888
-0.999989
-0.999999
-1
-1
-1
-1
-1
-1
-1
-1
-1
-1
-1
-1
-0.996837
-0.997772
-0.998973
-0.999766
-0.999971
-0.999998
-1
-1
-1
-1
-1
-1
-1
-1
-1
-1
-1
-1
-1
-0.998766
-0.999276
-0.999729
-0.999946
-0.999994
-1
-1
-1
-1
-1
-1
-1
-1
-1
-1
-1
-1
-1
-1
-0.99976
-0.999852
-0.999955
-0.999991
-0.999999
-1
-1
-1
-1
-1
-1
-1
-1
-1
-1
-1
-1
-1
-1
-0.999956
-0.999975
-0.999994
-0.999999
-1
-1
-1
-1
-1
-1
-1
-1
-1
-1
-1
-1
-1
-1
-1
-0.999994
-0.999997
-0.999999
-1
-1
-1
-1
-1
-1
-1
-1
-1
-1
-1
-1
-1
-1
-1
-1
-0.999999
-1
-1
-1
-1
-1
-1
-1
-1
-1
-1
-1
-1
-1
-1
-1
-1
-1
-1
-1
-1
-1
-1
-1
-1
-1
-1
-1
-1
-1
-1
-1
-1
-1
-1
-1
-1
-1
-1
-1
-1
-1
-1
-1
-1
-1
-1
-1
-1
-1
-1
-1
-1
-1
-1
-1
-1
-1
-1
-1
-1
-1
-1
-1
-1
-1
-1
-1
-1
-1
-1
-1
-1
-1
-1
-1
-1
-1
-1
-1
-1
-1
-1
-1
-1
-1
-1
-1
-1
-1
-1
-1
-1
-1
-1
-1
-1
-1
-1
-1
-1
-1
-1
-1
-1
-1
-1
-1
-1
-1
-1
-1
-1
-1
-1
-1
-1
-1
-1
-1
-1
-1
-1
-1
-1
-1
-1
-1
-1
-1
-1
-1
-1
-1
-1
-1
-1
-1
-1
-1
-1
-1
-1
-1
-1
-1
-1
-1
-1
-1
-1
-1
-1
-1
-1
-1
-1
-1
-1
-1
-1
-1
-1
-1
-1
-1
-1
-1
-1
-1
-1
-1
-1
-1
-1
-1
-1
-1
-1
-1
-1
-1
-1
-1
-1
-1
-1
-1
-1
-1
-1
-1
-1
-1
-1
-1
-1
-1
-1
-1
-1
-1
-1
-1
-1
-1
-1
-1
-1
-1
-1
-1
-1
-1
-1
-1
-1
-1
-1
-1
-1
-1
-1
-1
-1
-1
-1
-1
-1
-1
-1
-1
-1
-1
-1
-1
-1
-1
-1
-1
-1
-1
-1
-1
-1
-1
-1
-1
-1
-1
-1
-1
-1
-1
-1
-1
-1
-1
-1
-1
-1
-1
-1
-1
-1
-1
-1
-1
-1
-1
-1
-1
-1
-1
-1
-1
-1
-1
-1
-1
-1
-1
-1
-1
-1
-1
-1
-1
-1
-1
-1
-1
-1
-1
-1
-1
-1
-1
-1
-1
-1
-1
-1
-1
-1
-1
-1
-1
-1
-1
-1
-1
-1
-1
-1
-1
-1
-1
-1
-1
-1
-1
-1
-1
-1
-1
-1
-1
-1
-1
-1
-1
-1
-1
-1
-1
-1
-1
-1
-1
-1
-1
-1
-1
-1
-1
-1
-1
-1
-1
-1
-1
-1
-1
-1
-1
-1
-1
-1
-1
-1
-1
-1
-1
-1
-1
-1
-1
-1
-1
-1
-1
-1
-1
-1
-1
-1
-1
-1
-1
-1
-1
-1
-1
-1
-1
-1
-1
-1
-1
-1
-1
-1
-1
-1
-1
-1
-1
-1
-1
-1
-1
-1
-1
-1
-1
-1
-1
-1
-1
-1
-1
-1
-1
-1
-1
-1
-1
-1
-1
-1
-1
-1
-1
-1
-1
-1
-1
-1
-1
-1
-1
-1
-1
-1
-1
-1
-1
-1
-1
-1
-1
-1
-1
-1
-1
-1
-1
-1
-1
-1
-1
-1
-1
-1
-1
-1
-1
-1
-1
-1
-1
-1
-1
-1
-1
-1
-1
-1
-1
-1
-1
-1
-1
-1
)
;

boundaryField
{
    leftWall
    {
        type            zeroGradient;
    }
    rightWall
    {
        type            zeroGradient;
    }
    lowerWall
    {
        type            zeroGradient;
    }
    atmosphere
    {
        type            zeroGradient;
    }
    defaultFaces
    {
        type            empty;
    }
}


// ************************************************************************* //
