/*--------------------------------*- C++ -*----------------------------------*\
| =========                 |                                                 |
| \\      /  F ield         | foam-extend: Open Source CFD                    |
|  \\    /   O peration     | Version:     4.1                                |
|   \\  /    A nd           | Web:         http://www.foam-extend.org         |
|    \\/     M anipulation  |                                                 |
\*---------------------------------------------------------------------------*/
FoamFile
{
    version     2.0;
    format      ascii;
    class       volScalarField;
    location    "0.2";
    object      p;
}
// * * * * * * * * * * * * * * * * * * * * * * * * * * * * * * * * * * * * * //

dimensions      [1 -1 -2 0 0 0 0];

internalField   nonuniform List<scalar> 
2268
(
2048.41
2051.6
2038.54
2038.3
2008.75
1996.89
1943.31
1941.64
1878.02
1737.92
1931.88
1823.94
1363.18
1359.65
1488.14
920.353
706.601
861.634
1209.9
1620.1
2814.89
2111.9
1328.37
1990.07
1992.73
1979.77
1979.41
1949.89
1936.31
1882.92
1882.16
1813.9
1660.84
1828.47
1717.37
1266.47
1292.19
1294.93
1158.18
565.214
608.641
1167.95
1267.69
2010.51
2454.62
1292.98
1928.95
1933.11
1920.3
1920.37
1890.49
1880.34
1829.33
1816.4
1751.02
1656.2
1691.86
1649.04
2065.72
1959.2
1681.46
1147.14
669.368
819.792
1087.27
1947.3
2541.11
1570.61
1129.62
1872.86
1874.08
1861.76
1861.53
1831.72
1814.52
1773.27
1763.14
1676.26
1618.62
1653.64
1867.44
2162.54
2346.83
2302.42
2267.91
1462.92
1018.4
1449.62
2638.9
1532.09
1109.57
1038.15
1806.61
1813.13
1801.88
1801.85
1771.91
1752.28
1700.79
1715.23
1624.42
1583.72
1500.94
1497.31
2054.17
1992.72
2158.55
2247.26
2280.74
1737.3
1821.14
2587.75
2348.3
1407.16
1039.27
1758.08
1754.91
1743.4
1744.14
1712.17
1693.75
1633.91
1649.5
1518.76
1548.95
1431.01
1316.9
1092.91
1842.9
2296.26
1816.82
1459.4
1297.51
1468.1
1869.23
2327.51
2312.32
1182.56
1693.03
1692.96
1683.4
1683.7
1651.78
1634.53
1592.31
1589.73
1416.39
1500.01
1460.36
1268.33
1200.39
1162.83
2218.87
1768.55
1784.53
1900.58
1553.91
1704.26
2065.3
2506.15
1457.42
1634.95
1639.19
1624.76
1629.25
1592.63
1574.21
1493.75
1570.04
1383.18
1422.5
1379.34
1203.27
2029.55
1931.79
2057.25
1937.34
1678.09
2372.64
2442.38
2517.32
2607.86
1788.83
989.358
2.18584
2.17196
2.13278
2.10712
2.12495
2.15973
2.16479
2.18809
2.1755
2.16649
2.13353
2.10738
2.02302
1.94085
1.91033
1.87045
1.84363
1.82396
1.81479
2.13722
2.12336
2.07217
2.03961
2.06223
2.09694
2.10756
2.13228
2.12098
2.11087
2.07902
2.06057
1.93598
1.88713
1.85049
1.81076
1.78391
1.76423
1.75505
2.09646
2.07116
2.00924
1.96633
1.99627
2.04622
2.05476
2.0808
2.06801
2.0531
2.0278
1.98978
1.87793
1.83047
1.79002
1.75027
1.72319
1.70347
1.69427
2.04779
2.04002
1.95295
1.87028
1.91939
1.9701
2.00765
2.03437
2.01903
2.00822
1.9872
1.88521
1.82071
1.77078
1.7281
1.68879
1.6615
1.64176
1.63252
2.00381
2.02518
1.88757
1.7807
1.83362
1.91489
1.95757
1.99047
1.97027
1.9595
1.9254
1.82241
1.76527
1.70943
1.66597
1.6264
1.59883
1.57904
1.56976
1.99733
2.06705
1.82085
1.66248
1.73205
1.85321
1.92198
1.97493
1.921
1.9111
1.82583
1.76315
1.70371
1.6475
1.60271
1.56305
1.53519
1.51535
1.50601
1.76434
2.10835
1.6958
1.53986
1.60202
1.79282
1.88487
1.92588
1.88146
1.85971
1.77602
1.70241
1.64334
1.58398
1.53879
1.49871
1.47055
1.45064
1.44125
3.41777
2.02679
1.74441
1.3806
1.4402
1.76224
1.86977
1.90473
1.8434
1.79811
1.71009
1.64169
1.58255
1.52045
1.47386
1.4334
1.40492
1.38494
1.37549
1545.17
1537.76
1530.94
1529.73
1469.77
1463.29
1413.43
1417.22
1315.77
1316.53
1294.83
1285.11
1261.83
1720
2085.06
1481.9
1432.87
1857.17
1693.56
2006.68
2367.28
2464.7
1285.41
1401.36
1423.61
1394.75
1390.85
1396.06
1358.98
1306.01
1310.64
1212.44
1156.7
1198.3
1012.69
1172.16
1066.8
882.686
965.346
925.187
1089.5
1221.09
1854.83
2278.76
1827.75
1540.48
1271.06
1263.97
1281.22
1285.87
1215.44
1201.9
1131.49
1143.07
1035.71
1038.68
840.931
777.767
922.41
1057.08
1124.6
1426.27
1799.97
1836.83
1825.42
2217.45
1734.28
1318.71
1174.32
1138.2
1136.63
1116.91
1175.52
1156.6
1166.58
1135.8
1072.34
894.288
670.208
688.944
725.023
724.881
1368.35
1702.18
1828.61
2097.03
1902.05
1684.19
1057.75
733.204
520.508
479.54
982.106
974.053
941.256
881.792
855.5
875.035
750.031
796.491
752.085
785.235
659.125
647.848
840.36
1413.45
1466.12
1733.62
1910.63
1834.08
1303.97
838.415
538.358
396.704
277.806
869.032
863.636
844.881
849.073
796.959
791.643
724.921
706.055
695.08
603.923
441.086
553.928
866.489
1468.61
1493.66
1534.74
1714.67
1382.04
513.277
232.194
89.9887
55.3376
26.3043
733.656
733.851
704.862
729.214
645.906
578.313
498.615
533.565
463.208
857.196
1024.06
695.146
1722.9
1347.58
1202.06
1429.53
1198.49
305.292
115.163
48.1305
12.4836
1.08404
-3.9844
627.13
618.566
634.995
610.242
543.404
692.063
592.588
461.393
573.615
1716.46
1728.94
1334.97
1456.48
452.661
223.607
377.049
143.495
11.4779
-3.05165
-5.5617
-6.57088
-7.62667
-8.2488
523.574
520.186
540.624
477.142
611.404
299.927
389.276
427.668
1295.02
976.871
1051.39
1603.57
1304.87
326.115
76.8367
58.83
15.0657
1.13441
-3.35295
-4.36665
-5.29091
-7.18171
-8.64047
402.989
419.829
418.407
463.378
534.279
411.531
340.643
786.005
1380.28
261.066
486.504
1565.29
804.283
105.459
16.2585
9.42763
-0.397942
-1.39362
-4.36697
-4.80728
-5.58861
-7.36383
-10.1665
379.331
322.496
310.318
292.618
174.418
271.733
420.329
1408.5
582.156
27.8928
304.963
1401.26
384.431
-2.28639
-4.89967
-3.36586
-3.54083
-3.61492
-4.70071
-5.40844
-5.46705
-7.02658
-10.4763
968.301
265.542
195.004
122.405
130.047
210.938
673.584
1369.73
474.38
3.53718
248.389
1332.32
269.087
-3.4554
-4.33023
-3.38305
-3.73936
-3.54171
-3.96862
-4.53648
-5.19505
-6.5291
-8.90074
1429.96
692.034
172.696
243.347
15.5575
222.577
557.782
1366.88
577.608
-15.0327
190.708
1144.4
188.101
-3.61711
-4.22265
-3.34444
-4.20503
-4.3914
-4.41398
-4.13558
-5.11835
-5.51647
-6.74829
639.589
1289.81
191.31
186.411
27.1257
75.6342
33.4801
1086.9
640.073
-18.84
382.9
979.132
371.828
-3.22778
-3.54167
-3.29949
-4.13321
-4.65645
-4.68847
-3.6986
-4.27089
-5.0412
-5.75042
203.339
1103.26
893.02
925.513
114.665
394.75
416.239
1025.03
295.433
-13.4733
7.44875
865.924
12.2117
-3.74377
-3.47449
-4.61961
-4.54242
-4.83457
-4.88668
-4.19694
-4.10737
-4.87999
-5.01991
132.733
830.658
1227.16
1386.24
436.982
1007.18
1179.87
230.788
-7.83654
-6.04882
-5.28094
12.0687
-2.89244
-2.72803
-3.24645
-3.82368
-3.92858
-4.37613
-4.50992
-4.45358
-4.11792
-4.59926
-4.58622
151.306
1114.13
1451.28
886.571
1326.52
1067.94
155.831
-0.207554
-0.657607
-3.1466
-3.02549
-2.58775
-2.53085
-2.90129
-3.23528
-3.24973
-3.46094
-3.31885
-3.52484
-4.53618
-4.28373
-4.42761
-4.32377
155.789
866.12
1356.78
370.614
1382.6
212.903
9.47787
-0.549063
-2.13435
-2.69327
-2.7177
-2.57903
-2.96613
-2.99042
-3.33352
-3.10796
-3.26513
-3.51322
-3.92375
-4.06232
-4.12203
-4.26881
-4.17031
68.3855
1145.28
1279.79
294.713
553.041
34.034
-1.69179
-2.53129
-2.58992
-2.63166
-2.66121
-2.80185
-2.99408
-3.16135
-3.28105
-3.0221
-3.30577
-3.37707
-3.54865
-3.65778
-4.15979
-4.07046
-4.0702
-7.49547
255.986
232.884
-5.32363
21.9868
-3.80844
-3.12078
-2.77773
-2.79714
-2.76435
-2.90027
-2.90339
-3.1656
-3.1032
-3.1085
-3.28135
-3.30413
-3.60924
-3.63694
-3.84984
-3.76047
-3.92442
-3.92339
-6.93877
-4.02315
-1.57219
-3.60446
-3.93058
-3.4391
-3.33599
-3.01843
-3.02748
-3.08379
-3.14264
-3.30018
-3.25326
-3.2753
-3.2118
-3.23055
-3.42935
-3.58281
-3.74028
-3.81075
-3.83273
-3.87389
-3.89642
-4.29719
-4.22217
-3.95842
-3.79889
-3.57972
-3.3832
-3.43924
-3.48632
-3.35576
-3.32532
-3.31281
-3.34869
-3.42411
-3.38613
-3.46428
-3.46606
-3.48784
-3.8154
-3.77019
-3.86948
-3.86243
-3.89227
-3.88631
-4.3394
-4.20117
-3.96488
-3.77283
-3.85829
-3.80705
-3.66162
-3.56812
-3.5638
-3.52416
-3.5001
-3.5774
-3.45635
-3.49025
-3.5335
-3.68346
-3.65325
-3.77882
-3.73257
-3.79696
-3.82351
-3.91257
-3.93439
-4.04552
-3.91481
-3.78899
-3.86724
-3.72239
-3.86954
-3.76133
-3.71157
-3.65829
-3.64692
-3.61353
-3.61388
-3.62171
-3.58066
-3.68875
-3.67182
-3.75086
-3.83397
-3.82241
-3.92755
-3.91503
-3.94108
-3.95484
-3.91574
-3.97513
-3.92466
-3.88625
-3.8658
-3.79459
-3.77624
-3.86094
-3.79833
-3.80685
-3.82509
-3.83765
-3.84016
-3.80579
-3.82328
-3.92806
-3.88043
-3.7996
-3.95006
-3.94818
-3.97385
-3.98787
-3.99224
-4.05952
-4.04487
-4.02355
-3.9793
-3.95462
-3.93643
-3.9117
-3.82735
-3.8572
-3.86176
-3.81264
-3.81114
-3.80223
-3.87457
-3.90064
-3.94308
-3.90136
-3.99928
-3.99955
-4.02201
-4.0427
-4.04836
-4.04113
-4.11356
-4.11621
-4.10338
-4.08067
-4.06509
-4.04025
-4.0252
-4.0169
-4.00648
-4.0011
-3.9898
-3.98205
-4.01642
-3.92687
-4.02833
-3.94014
-4.05623
-4.05013
-4.08906
-4.09049
-4.11778
-4.11917
-4.09949
-4.2165
-4.21506
-4.20235
-4.18443
-4.1641
-4.14286
-4.12885
-4.106
-4.09191
-4.0835
-4.05446
-4.05958
-4.09854
-4.11513
-4.12297
-4.1064
-4.14264
-4.10357
-4.1689
-4.14094
-4.21447
-4.20099
-4.18917
-4.3234
-4.316
-4.29789
-4.28865
-4.27825
-4.26591
-4.25697
-4.24179
-4.24121
-4.22351
-4.2505
-4.23997
-4.24187
-4.17633
-4.20054
-4.26692
-4.1891
-4.24315
-4.28683
-4.26257
-4.28369
-4.28577
-4.27288
-4.42523
-4.41654
-4.39613
-4.38579
-4.36931
-4.32992
-4.32707
-4.34233
-4.33916
-4.33731
-4.31091
-4.3491
-4.33833
-4.33354
-4.37229
-4.29725
-4.34371
-4.32975
-4.3281
-4.38243
-4.35582
-4.3781
-4.36173
-4.52138
-4.51733
-4.50905
-4.51009
-4.50253
-4.5406
-4.5376
-4.48222
-4.46641
-4.45025
-4.47575
-4.45107
-4.45384
-4.44569
-4.40511
-4.44387
-4.40745
-4.45064
-4.42549
-4.47991
-4.47591
-4.46565
-4.4608
-4.62031
-4.61757
-4.61057
-4.60359
-4.59552
-4.57903
-4.58643
-4.59297
-4.62985
-4.59461
-4.58988
-4.57584
-4.55456
-4.5574
-4.5606
-4.5623
-4.57072
-4.51597
-4.57242
-4.53293
-4.57451
-4.55085
-4.55668
-4.72372
-4.72109
-4.71971
-4.71654
-4.72269
-4.74934
-4.71686
-4.68766
-4.65146
-4.63694
-4.65857
-4.63949
-4.67573
-4.66038
-4.66471
-4.64141
-4.62921
-4.65625
-4.65431
-4.64502
-4.67297
-4.6573
-4.6631
-4.83114
-4.83021
-4.82463
-4.81997
-4.81313
-4.76842
-4.79216
-4.77391
-4.78809
-4.80612
-4.79672
-4.80731
-4.80888
-4.78405
-4.78433
-4.77086
-4.78585
-4.75093
-4.74584
-4.77304
-4.76955
-4.78493
-4.77005
-4.93727
-4.93448
-4.93466
-4.92582
-4.90117
-4.92
-4.92244
-4.94357
-4.91555
-4.89549
-4.89371
-4.88808
-4.89935
-4.89072
-4.88421
-4.88396
-4.85897
-4.87201
-4.87273
-4.86738
-4.86152
-4.8543
-4.89441
-5.04763
-5.04438
-5.05026
-5.03541
-5.08259
-5.03348
-5.03651
-5.01819
-5.03378
-5.03571
-5.035
-5.01957
-5.01006
-4.99823
-5.0033
-4.99708
-4.99456
-4.99282
-4.97593
-4.98058
-4.98737
-4.96079
-4.99891
-5.15311
-5.15302
-5.15589
-5.14983
-5.15079
-5.15103
-5.1423
-5.14493
-5.12985
-5.09972
-5.09492
-5.11404
-5.13379
-5.12831
-5.11395
-5.10688
-5.10326
-5.09143
-5.09744
-5.07852
-5.09535
-5.07553
-5.1009
-5.26555
-5.26389
-5.26364
-5.25859
-5.26457
-5.25646
-5.25771
-5.24781
-5.25357
-5.28501
-5.25401
-5.24598
-5.24163
-5.2347
-5.2303
-5.22315
-5.2245
-5.20713
-5.21339
-5.20582
-5.20745
-5.19639
-5.20158
-5.36874
-5.37075
-5.37406
-5.37734
-5.37591
-5.37817
-5.38762
-5.37567
-5.36029
-5.34473
-5.35027
-5.34576
-5.3498
-5.34418
-5.33814
-5.3313
-5.32825
-5.32243
-5.32209
-5.31701
-5.32572
-5.31733
-5.3099
-5.4919
-5.4867
-5.48242
-5.45943
-5.47189
-5.47554
-5.44561
-5.47366
-5.4731
-5.48024
-5.4766
-5.46978
-5.4698
-5.46548
-5.46045
-5.45748
-5.45492
-5.44975
-5.44137
-5.44262
-5.43539
-5.43854
-5.42526
-5.55469
-5.56178
-5.57691
-5.6429
-5.61089
-5.57601
-5.56931
-5.58682
-5.5649
-5.57671
-5.56409
-5.5711
-5.57326
-5.55524
-5.55351
-5.54708
-5.54673
-5.54543
-5.55112
-5.54953
-5.55349
-5.55652
-5.55328
-5.79505
-5.78886
-5.76254
-5.71581
-5.70749
-5.73954
-5.73962
-5.69264
-5.74907
-5.68283
-5.73999
-5.69401
-5.69945
-5.71478
-5.71553
-5.70948
-5.709
-5.6974
-5.68391
-5.68522
-5.67119
-5.67267
-5.66617
1128.08
1025.82
944.308
914.262
1439.64
1434.94
1191.41
913.338
1152.83
1226.76
1017.96
657.847
484.566
363.747
254.453
161.688
188.242
147.909
123.523
81.9681
18.3995
12.839
5.02957
-1.26011
-4.59427
-5.1619
-6.23492
-7.70995
-8.92589
-9.46829
-10.2494
-11.1536
-9.77173
-10.0012
-10.282
-10.9715
-12.1956
-13.1304
-13.8433
-14.3118
-12.7026
-14.0417
-14.9165
-15.2871
-10.2361
-10.6296
-10.7797
-10.9661
-7.42486
-7.584
-7.50255
-7.34049
-5.79485
-5.86244
-5.67776
-5.54264
-4.40768
-4.36199
-4.35261
-4.38706
-4.64397
-4.60557
-4.47892
-4.37444
-4.28065
-4.2495
-4.18152
-4.13175
-4.19051
-4.18677
-4.10719
-4.02458
-4.10431
-4.0766
-3.77919
-3.78139
-3.93901
-3.95555
-3.90408
-3.83312
-3.85533
-3.81326
-3.77106
-3.74028
-3.9015
-3.88147
-3.85788
-3.8382
-3.91785
-3.87917
-3.86614
-3.85085
-3.94273
-3.95028
-3.94441
-3.92105
-3.95121
-3.96526
-3.95875
-3.95039
-4.01737
-3.98644
-3.99928
-3.97787
-4.08803
-4.07757
-4.04842
-4.0437
-4.17138
-4.15153
-4.14128
-4.1169
-4.25879
-4.25811
-4.23814
-4.22554
-4.33859
-4.33477
-4.33291
-4.31067
-4.45283
-4.43249
-4.43322
-4.42073
-4.53745
-4.54332
-4.51571
-4.53352
-4.64801
-4.63852
-4.63904
-4.62494
-4.75609
-4.74923
-4.73717
-4.73067
-4.86613
-4.86202
-4.85642
-4.84149
-4.9729
-4.97063
-4.96259
-4.95689
-5.08775
-5.08614
-5.07989
-5.07412
-5.19759
-5.19401
-5.19051
-5.18632
-5.32807
-5.31583
-5.3158
-5.30901
-5.43929
-5.42957
-5.42932
-5.42421
-5.55589
-5.55081
-5.55196
-5.54702
-5.66975
-5.6665
-5.67041
-5.6647
229.798
2.49344
1.31062
0.911418
0.938351
1.6916
1.88108
1.85151
1.79036
1.71505
1.63021
1.52395
1.49224
1.4169
1.37067
1.32955
1.30052
1.28043
1.27092
615.728
112.202
8.76033
0.535722
0.944695
1.75185
2.03661
1.89792
1.7487
1.6358
1.48857
1.44299
1.34438
1.27695
1.22617
1.18364
1.15415
1.13394
1.12436
336.436
150.349
18.2739
0.745418
-0.430919
1.76749
2.14255
1.89512
1.69012
1.50058
1.41276
1.28103
1.20072
1.12727
1.07498
1.03228
1.00268
0.982596
0.973087
95.9257
88.3485
11.7906
-2.0655
-0.128527
1.97718
2.07583
1.79952
1.55789
1.42222
1.24516
1.1373
1.04327
0.972378
0.917951
0.875845
0.846341
0.826684
0.817331
29.7272
16.7509
15.7873
0.0144237
0.817023
1.6063
1.82218
1.64944
1.44129
1.23762
1.08705
0.968337
0.878434
0.807211
0.754372
0.713309
0.684868
0.665895
0.656925
-10.4474
-9.51206
4.37204
6.60575
2.33713
0.797912
1.61996
1.52961
1.2505
1.05525
0.899832
0.789231
0.701012
0.63455
0.583929
0.545502
0.518625
0.500861
0.492431
-13.0181
-14.4808
-3.17758
3.25827
-1.44935
0.118083
1.42223
1.24399
1.00939
0.834187
0.696202
0.593272
0.51452
0.45306
0.407317
0.371944
0.34753
0.331224
0.323563
-13.7703
-19.1627
-11.2903
-5.43729
-2.12675
0.145502
0.912958
0.820031
0.689388
0.573542
0.464402
0.382622
0.315875
0.264077
0.22445
0.193829
0.172479
0.158193
0.15147
-12.4639
-16.5699
-10.1971
-2.90735
-1.20999
-0.112689
0.348395
0.406673
0.354822
0.293205
0.221632
0.160438
0.110575
0.0684118
0.0366637
0.0109143
-0.00671727
-0.0188803
-0.0244827
-14.9076
-15.1618
-7.04809
-3.1344
-1.48104
-0.540805
-0.126865
0.00360857
0.0135064
0.00666046
-0.0327699
-0.0686462
-0.102331
-0.132019
-0.155346
-0.174863
-0.188429
-0.197946
-0.202336
-15.315
-13.0783
-5.74715
-3.28544
-1.7839
-1.0163
-0.567842
-0.378167
-0.314528
-0.283778
-0.287216
-0.302468
-0.317189
-0.335921
-0.350107
-0.364029
-0.373196
-0.380295
-0.383342
-11.0428
-8.47096
-4.53408
-3.14177
-2.09908
-1.32124
-0.970198
-0.774932
-0.637017
-0.564281
-0.542083
-0.535866
-0.53518
-0.541393
-0.546817
-0.554024
-0.558848
-0.562963
-0.564703
-7.15672
-5.59855
-3.79192
-2.95086
-2.36183
-1.63278
-1.22668
-1.10192
-0.925614
-0.849525
-0.795548
-0.769482
-0.75085
-0.746866
-0.743678
-0.745611
-0.746115
-0.747928
-0.748278
-6.13895
-4.58875
-3.44042
-2.8299
-2.31538
-1.84378
-1.49435
-1.28983
-1.16975
-1.08808
-1.049
-0.991039
-0.966368
-0.951903
-0.94134
-0.936939
-0.933333
-0.932042
-0.93112
-4.55524
-4.165
-3.47938
-2.92146
-2.4792
-2.07305
-1.7735
-1.56033
-1.40806
-1.31902
-1.25001
-1.20232
-1.17365
-1.15278
-1.13773
-1.12929
-1.12312
-1.1201
-1.11799
-4.20319
-3.79338
-3.26465
-2.8344
-2.51891
-2.18104
-1.9387
-1.7336
-1.6012
-1.51861
-1.45481
-1.40833
-1.37376
-1.34933
-1.33068
-1.31894
-1.30941
-1.30387
-1.30071
-4.06493
-3.73757
-3.33964
-2.94493
-2.70158
-2.371
-2.13632
-1.93627
-1.80183
-1.74147
-1.66902
-1.61426
-1.5697
-1.53848
-1.51837
-1.50139
-1.49414
-1.48684
-1.48245
-3.94126
-3.68602
-3.20685
-2.99768
-2.89799
-2.53761
-2.32474
-2.10063
-2.04107
-1.96894
-1.85173
-1.79139
-1.7583
-1.72949
-1.70544
-1.68876
-1.67654
-1.66796
-1.66367
-3.78245
-3.61989
-3.63056
-3.11007
-2.73304
-2.67859
-2.51821
-2.3746
-2.27107
-2.12755
-2.04138
-1.9845
-1.94133
-1.90496
-1.88851
-1.86877
-1.85503
-1.84616
-1.84519
-3.91286
-3.56425
-3.4262
-3.06103
-3.00279
-2.88869
-2.65232
-2.52018
-2.36809
-2.31121
-2.20343
-2.17085
-2.11913
-2.09015
-2.06883
-2.04492
-2.03455
-2.026
-2.02406
-3.72788
-3.60562
-3.50054
-3.28464
-3.10503
-2.8162
-2.7869
-2.71334
-2.55906
-2.48436
-2.41351
-2.3492
-2.29472
-2.26412
-2.24301
-2.21328
-2.20973
-2.19977
-2.19946
-3.80012
-3.6443
-3.5226
-3.33783
-3.20881
-3.08222
-2.92749
-2.79193
-2.67739
-2.64454
-2.59895
-2.52735
-2.4724
-2.4519
-2.42552
-2.39727
-2.37648
-2.37494
-2.37278
-3.81574
-3.69041
-3.57695
-3.42006
-3.30199
-3.16478
-3.0717
-2.91896
-2.89004
-2.80241
-2.73179
-2.6964
-2.66431
-2.63256
-2.58397
-2.56678
-2.54536
-2.543
-2.53734
-3.83884
-3.75639
-3.67065
-3.52243
-3.41488
-3.29391
-3.20913
-3.11116
-3.01823
-2.95221
-2.87522
-2.84869
-2.82726
-2.76837
-2.74451
-2.7328
-2.71796
-2.70853
-2.70401
-3.95859
-3.82525
-3.70354
-3.63081
-3.54263
-3.4163
-3.32684
-3.22555
-3.17572
-3.10173
-3.06282
-3.00634
-2.96602
-2.92207
-2.91581
-2.89218
-2.88459
-2.86904
-2.86471
-3.96217
-3.91691
-3.90229
-3.70261
-3.5954
-3.54578
-3.48124
-3.36434
-3.31902
-3.24698
-3.21388
-3.15879
-3.13199
-3.09492
-3.06643
-3.05116
-3.03672
-3.0335
-3.0281
-4.01447
-4.00846
-3.94258
-3.90734
-3.84366
-3.64425
-3.558
-3.47888
-3.51592
-3.39652
-3.36457
-3.31155
-3.29151
-3.25058
-3.22829
-3.21059
-3.19701
-3.18865
-3.18973
-4.09014
-4.00256
-4.04424
-3.95685
-3.9268
-3.87073
-3.83683
-3.63036
-3.56409
-3.52368
-3.54968
-3.45814
-3.4346
-3.39543
-3.38008
-3.38062
-3.35948
-3.3503
-3.35248
-4.19929
-4.16791
-4.05919
-4.11035
-4.03105
-3.96798
-3.93885
-3.90074
-3.86149
-3.67178
-3.61717
-3.6079
-3.61969
-3.56755
-3.54706
-3.51425
-3.49791
-3.49696
-3.49867
-4.27989
-4.24536
-4.22128
-4.11367
-4.17548
-4.09269
-4.07056
-4.00653
-3.97379
-3.94945
-3.911
-3.73932
-3.69153
-3.66259
-3.70798
-3.6975
-3.67944
-3.67477
-3.66334
-4.40271
-4.3576
-4.32008
-4.29387
-4.20892
-4.20734
-4.24964
-4.16867
-4.13881
-4.0698
-4.0473
-4.0368
-4.01018
-3.91512
-3.84645
-3.78841
-3.77448
-3.76419
-3.81042
-4.48791
-4.46679
-4.43004
-4.39271
-4.33761
-4.33087
-4.28498
-4.3342
-4.27769
-4.23916
-4.19954
-4.15142
-4.12362
-4.12054
-4.12247
-4.10873
-4.08935
-4.04348
-3.96626
-4.63802
-4.56541
-4.55708
-4.51802
-4.50064
-4.43025
-4.44668
-4.40378
-4.45195
-4.38799
-4.36706
-4.32668
-4.30063
-4.26408
-4.2383
-4.21345
-4.20779
-4.22089
-4.24792
-4.7157
-4.69875
-4.66735
-4.61464
-4.60916
-4.5892
-4.54324
-4.54935
-4.53028
-4.5586
-4.5036
-4.47746
-4.45205
-4.43203
-4.4184
-4.40219
-4.39118
-4.38059
-4.36817
-4.84719
-4.81024
-4.79823
-4.77693
-4.75129
-4.72484
-4.71071
-4.67183
-4.66998
-4.66786
-4.68944
-4.63852
-4.61543
-4.59074
-4.57423
-4.55928
-4.55177
-4.54789
-4.5476
-4.93627
-4.935
-4.88821
-4.87892
-4.87082
-4.84075
-4.82075
-4.83466
-4.80359
-4.77885
-4.77275
-4.77052
-4.75864
-4.74544
-4.73447
-4.72347
-4.71713
-4.71256
-4.7095
-5.06851
-5.05258
-5.04563
-5.02263
-4.98566
-4.99695
-4.98275
-4.95843
-4.947
-4.95102
-4.97447
-4.95858
-4.92109
-4.90519
-4.89268
-4.88312
-4.87745
-4.87345
-4.87087
-5.17685
-5.16769
-5.14735
-5.13925
-5.13397
-5.1162
-5.09829
-5.09546
-5.08728
-5.06202
-5.04433
-5.06328
-5.05796
-5.0564
-5.05031
-5.04526
-5.04186
-5.03933
-5.03819
-5.30636
-5.29448
-5.28531
-5.2712
-5.26121
-5.24218
-5.22598
-5.23016
-5.23622
-5.23211
-5.22888
-5.21791
-5.2135
-5.20435
-5.19945
-5.19406
-5.19087
-5.18823
-5.18711
-5.41946
-5.41557
-5.39308
-5.3911
-5.39035
-5.39474
-5.38541
-5.37032
-5.36369
-5.3514
-5.35463
-5.3606
-5.36869
-5.36832
-5.36967
-5.36876
-5.36843
-5.36768
-5.36743
-5.54692
-5.54224
-5.53799
-5.54098
-5.53798
-5.52474
-5.52434
-5.51881
-5.52567
-5.51983
-5.51354
-5.50769
-5.506
-5.49652
-5.49393
-5.49037
-5.48889
-5.4876
-5.48714
-5.6667
-5.66596
-5.6706
-5.66305
-5.64084
-5.66382
-5.65803
-5.62857
-5.6009
-5.60301
-5.62489
-5.66573
-5.68673
-5.69998
-5.7081
-5.71271
-5.71538
-5.717
-5.71751
)
;

boundaryField
{
    leftWall
    {
        type            calculated;
        value           nonuniform List<scalar> 
50
(
2048.41
1990.07
1928.95
1872.86
1806.61
1758.08
1693.03
1634.95
1545.17
1401.36
1271.06
1138.2
982.106
869.032
733.656
627.13
523.574
402.989
379.331
968.301
1429.96
639.589
203.339
132.733
151.306
155.789
68.3855
-7.49547
-6.93877
-4.29719
-4.3394
-4.04552
-3.91574
-4.05952
-4.11356
-4.2165
-4.3234
-4.42523
-4.52138
-4.62031
-4.72372
-4.83114
-4.93727
-5.04763
-5.15311
-5.26555
-5.36874
-5.4919
-5.55469
-5.79505
)
;
    }
    rightWall
    {
        type            calculated;
        value           nonuniform List<scalar> 
50
(
1.81479
1.75505
1.69427
1.63252
1.56976
1.50601
1.44125
1.37549
1.27092
1.12436
0.973087
0.817331
0.656925
0.492431
0.323563
0.15147
-0.0244827
-0.202336
-0.383342
-0.564703
-0.748278
-0.93112
-1.11799
-1.30071
-1.48245
-1.66367
-1.84519
-2.02406
-2.19946
-2.37278
-2.53734
-2.70401
-2.86471
-3.0281
-3.18973
-3.35248
-3.49867
-3.66334
-3.81042
-3.96626
-4.24792
-4.36817
-4.5476
-4.7095
-4.87087
-5.03819
-5.18711
-5.36743
-5.48714
-5.71751
)
;
    }
    lowerWall
    {
        type            calculated;
        value           nonuniform List<scalar> 
62
(
2077.84
2081.03
2067.97
2067.73
2038.17
2026.32
1972.73
1971.07
1907.44
1767.35
1961.31
1853.35
1392.49
1388.96
1517.49
949.704
735.942
890.945
1238.77
1645.46
2831.07
2119.88
1331.61
1328.37
1292.98
1129.62
1038.15
1039.27
1182.56
1457.42
989.358
1149
1047.4
965.519
933.179
2.18584
2.13722
2.09646
2.04779
2.00381
1.99733
1.76434
3.41777
2.21527
2.20139
2.1622
2.13655
2.15438
2.18916
2.19422
2.21752
2.20493
2.19592
2.16296
2.13681
2.05245
1.97028
1.93976
1.89987
1.87306
1.85339
1.84422
)
;
    }
    atmosphere
    {
        type            calculated;
        value           nonuniform List<scalar> 
46
(
-5.77977
-5.78011
-5.77634
-5.78216
-5.76662
-5.76582
-5.76259
-5.75184
-5.76383
-5.74613
-5.75709
-5.7454
-5.74684
-5.74637
-5.74555
-5.74062
-5.73826
-5.73366
-5.73154
-5.7308
-5.72954
-5.72928
-5.72904
-5.72904
-5.72904
-5.72904
-5.72904
-5.72904
-5.72904
-5.72904
-5.72904
-5.72904
-5.72904
-5.72904
-5.72904
-5.72904
-5.72904
-5.72904
-5.72904
-5.72904
-5.72904
-5.72904
-5.72904
-5.72904
-5.72904
-5.72904
)
;
    }
    defaultFaces
    {
        type            empty;
    }
}


// ************************************************************************* //
