/*--------------------------------*- C++ -*----------------------------------*\
| =========                 |                                                 |
| \\      /  F ield         | foam-extend: Open Source CFD                    |
|  \\    /   O peration     | Version:     4.1                                |
|   \\  /    A nd           | Web:         http://www.foam-extend.org         |
|    \\/     M anipulation  |                                                 |
\*---------------------------------------------------------------------------*/
FoamFile
{
    version     2.0;
    format      ascii;
    class       volScalarField;
    location    "0.2";
    object      pd;
}
// * * * * * * * * * * * * * * * * * * * * * * * * * * * * * * * * * * * * * //

dimensions      [1 -1 -2 0 0 0 0];

internalField   nonuniform List<scalar> 
2268
(
2077.84
2081.03
2067.97
2067.73
2038.17
2026.32
1972.73
1971.07
1907.44
1767.35
1961.31
1853.35
1392.49
1388.96
1517.49
949.704
735.942
890.945
1238.77
1645.46
2831.07
2119.88
1331.61
2078.36
2081.02
2068.06
2067.69
2038.18
2024.59
1971.21
1970.45
1902.19
1749.13
1916.76
1805.03
1350.7
1376.26
1380.27
1244.52
652.174
695.625
1254.77
1352.91
2078.49
2486.16
1302.25
2076.09
2080.25
2067.45
2067.52
2037.64
2027.48
1976.48
1963.55
1898.17
1803.34
1839
1790.81
2170.72
2071.15
1802.76
1281.86
809.819
960.522
1227.46
2061.81
2602.4
1596.95
1139.94
2078.86
2080.08
2067.76
2067.54
2037.73
2020.53
1979.28
1969.15
1882.26
1824.63
1859.65
2050.06
2232.28
2430.88
2388.22
2379.68
1623.76
1202.15
1627.01
2738.72
1567.57
1127.34
1047.23
2071.47
2078
2066.74
2066.72
2036.78
2017.14
1965.66
1980.09
1889.28
1848.59
1765.81
1757.22
2240.43
2075.83
2259.55
2373.93
2434.6
1936.52
2027.93
2734.91
2441.77
1448.26
1052.45
2081.8
2078.63
2067.12
2067.86
2035.89
2017.47
1957.63
1973.22
1842.48
1872.68
1754.73
1640.36
1405.18
2081.17
2454.98
2036.95
1714.64
1564.93
1734.18
2108.16
2531.49
2433.13
1215.15
2075.61
2075.54
2065.98
2066.28
2034.36
2017.11
1974.89
1972.32
1798.97
1882.6
1842.94
1650.2
1544.27
1474.85
2430.22
2025.38
2058.88
2174.22
1857.49
2000.22
2335.5
2691.45
1524.08
2076.39
2080.63
2066.2
2070.69
2034.07
2015.65
1935.19
2011.48
1824.62
1863.94
1820.78
1643.49
2355
2126.85
2229.68
2172.31
1989.81
2562.82
2682.91
2752.15
2825.83
1907.37
1045.71
2.21527
2.20139
2.1622
2.13655
2.15438
2.18916
2.19422
2.21752
2.20493
2.19592
2.16296
2.13681
2.05245
1.97028
1.93976
1.89987
1.87306
1.85339
1.84422
2.2255
2.21165
2.16046
2.1279
2.15052
2.18523
2.19585
2.22057
2.20927
2.19915
2.1673
2.14886
2.02427
1.97542
1.93878
1.89905
1.8722
1.85252
1.84334
2.24361
2.21831
2.15639
2.11348
2.14341
2.19336
2.2019
2.22794
2.21516
2.20025
2.17495
2.13693
2.02508
1.97761
1.93716
1.89742
1.87034
1.85062
1.84141
2.2538
2.24602
2.15896
2.07629
2.1254
2.17611
2.21365
2.24038
2.22503
2.21422
2.1932
2.09121
2.02672
1.97678
1.9341
1.8948
1.8675
1.84777
1.83853
2.26868
2.29005
2.15244
2.04556
2.09848
2.17976
2.22243
2.25533
2.23513
2.22436
2.19026
2.08727
2.03013
1.97429
1.93083
1.89126
1.8637
1.8439
1.83462
2.32181
2.39084
2.14462
1.98624
2.05578
2.17694
2.2457
2.29865
2.24472
2.23482
2.14956
2.08687
2.02743
1.97123
1.92643
1.88677
1.85891
1.83907
1.82974
2.23128
2.49647
2.07907
1.92293
1.98462
2.1754
2.26745
2.30846
2.26404
2.24229
2.1586
2.085
2.02592
1.96656
1.92137
1.88129
1.85313
1.83322
1.82383
7.99953
2.74015
2.19496
1.82738
1.88198
2.2037
2.31121
2.34617
2.28484
2.23955
2.15153
2.08313
2.02399
1.96189
1.9153
1.87484
1.84636
1.82638
1.81693
2078.64
2071.23
2064.4
2063.19
2003.24
1996.75
1946.89
1950.69
1849.24
1849.99
1828.29
1818.5
1792.44
2207.92
2454.3
1853.26
1847.98
2277.12
2111.87
2410.07
2710.66
2757.14
1441.08
2060.02
2082.27
2053.41
2049.51
2054.72
2017.64
1964.68
1969.3
1871.1
1815.35
1856.92
1670.66
1826.56
1711.31
1515.66
1592.22
1536.33
1677.62
1768.83
2310.83
2648.87
2165.04
1835.2
2054.91
2047.83
2065.08
2069.73
1999.29
1985.75
1915.34
1926.93
1819.55
1822.37
1624.48
1559.12
1680.45
1734.65
1758.23
2031.44
2339.01
2330.31
2309.78
2607.36
2060.43
1611.15
1437.88
2047.25
2045.68
2025.96
2084.57
2065.65
2075.63
2044.85
1981.37
1803.2
1577.84
1596.1
1624.48
1568.82
2056.49
2302.64
2380.42
2590.64
2293.39
1991.11
1275.47
915.73
673.71
618.372
2016.35
2008.3
1975.5
1916.04
1889.75
1909.28
1784.28
1830.57
1785.31
1811.81
1680.02
1660.45
1782.72
2204.44
2168.19
2385.84
2490.91
2272.03
1608.61
1054.17
700.753
530.649
382.599
2028.47
2023.07
2004.32
2008.51
1956.4
1951.08
1884.36
1864.46
1847.9
1722.61
1528.51
1645.56
1846.85
2278.3
2262.23
2280.08
2392.72
1781.22
697.726
337.922
154.019
105.506
58.9543
2018.25
2018.47
1989.49
2013.85
1930.54
1862.93
1783.23
1812.99
1714.46
1962.73
2048.86
1785.25
2455.33
1764.83
1596.73
1902.66
1606.07
461.111
208.234
108.196
48.0898
25.3851
11.7885
2036.57
2028.3
2044.81
2020.06
1953.21
2101.79
2002.25
1848.59
1844.24
2478.63
2442.7
2309.53
1954.81
647.929
355.316
560.197
249.895
42.0266
7.94443
-0.972606
-3.9688
-5.63615
-6.45396
2055.65
2054.5
2075.57
2012.13
2146.28
1834.51
1922.62
1876.04
2365.12
1340.02
1441.53
2466.44
1794.59
497.467
154.54
127.457
50.5923
14.2751
1.59142
-1.91224
-3.45624
-5.50792
-6.88127
2043.95
2075.58
2078.15
2123.36
2193.82
2069.18
1984.37
2165.37
1992
438.305
734.483
2325.69
1176.95
223.034
65.4033
45.8643
18.479
9.83357
0.849289
-2.30204
-3.74401
-5.49708
-7.89476
2062.76
2085.57
2093.42
2076.66
1957.37
2042.25
2073.38
2376.85
911.749
87.4141
516.06
2129.68
639.585
31.1845
9.19608
11.0633
3.61706
4.85724
0.253464
-2.9438
-3.42587
-4.81953
-7.13158
2454.24
2084.89
2096.55
2025.97
2032.55
2066.6
2230.21
2176.02
798.28
48.0392
461.456
2066.25
492.519
16.4418
0.196095
0.347444
-1.0549
1.04072
-0.41076
-1.24118
-2.52643
-3.93239
-4.73726
2294.17
2415.54
2171.3
2242.42
2028.49
2159.14
2208.23
2353.01
976.676
32.4688
418.031
1890.23
390.985
11.9221
-1.68723
-1.0848
-1.75239
-1.33125
0.896601
3.80967
-1.46532
-3.1138
-3.17734
1069.69
2592.97
2182.57
2191.31
2137.36
2084.36
1936.98
2408.92
1086.27
38.2176
702.715
2283.32
679.407
8.30557
-1.25545
-0.910275
-1.33126
-1.5655
0.903127
8.56069
0.271924
-2.72249
-2.97868
476.95
1805.04
2634.46
2650.92
2234.43
2344.66
2254.86
2273.73
603.105
-3.07488
72.2652
1741.85
70.3855
-1.15732
-1.12837
-2.01697
-1.08811
-0.456315
-0.333192
3.78383
-0.821291
-2.55255
-2.64709
347.802
1432.58
2785
2450.65
2460.29
2687.61
2244.08
487.097
8.43347
-3.01306
4.57715
70.0442
0.255897
-0.250311
-0.778641
-1.0731
-0.165216
1.26951
2.29417
1.15191
-1.30795
-2.1698
-2.15877
389.184
1897.35
2881.81
1570.16
2944.02
1816.19
367.242
30.6396
4.4306
-0.437353
0.0920869
1.69067
0.114573
-0.332708
-0.679541
-0.62692
-0.558722
0.283325
0.871518
-0.226575
-1.47408
-1.88227
-1.78402
427.564
1576.45
2580.53
835.718
2475.99
464.518
57.2281
11.9191
2.74008
0.0823281
-0.00879975
0.160274
-0.279836
-0.316488
-0.666513
-0.435343
-0.55084
-0.691298
-0.971069
-1.02975
-1.21606
-1.604
-1.50798
255.518
2099.16
2565.32
657.269
1053.79
143.593
14.5994
3.36624
0.82112
0.173563
0.129631
-0.010227
-0.199903
-0.370503
-0.493038
-0.234544
-0.514187
-0.571833
-0.719029
-0.812821
-1.35071
-1.28289
-1.28316
39.2163
586.473
532.87
29.106
120.161
9.78025
2.52401
0.813868
0.334307
0.159667
0.0128575
0.00908385
-0.253173
-0.190807
-0.196282
-0.369172
-0.391923
-0.69691
-0.724362
-0.937097
-0.847791
-1.01207
-1.01122
-1.93464
16.567
24.7337
2.58693
5.10668
0.648021
0.145746
0.147258
0.142696
-0.0370034
-0.104431
-0.262762
-0.215886
-0.237932
-0.174435
-0.193195
-0.391986
-0.545432
-0.702863
-0.773249
-0.79518
-0.836421
-0.859057
-0.976514
-0.777948
-0.0271705
-0.550568
-0.38402
-0.191441
-0.18579
-0.296772
-0.149448
-0.159669
-0.14907
-0.186111
-0.261556
-0.223578
-0.301728
-0.303504
-0.325289
-0.65285
-0.607631
-0.706908
-0.699858
-0.729704
-0.723755
-1.00879
-0.906292
-0.675469
-0.485083
-0.570157
-0.517327
-0.361962
-0.279581
-0.273002
-0.23613
-0.212308
-0.289642
-0.168605
-0.202502
-0.245749
-0.395715
-0.365504
-0.491072
-0.444818
-0.509213
-0.535763
-0.624823
-0.646645
-0.625102
-0.501071
-0.375937
-0.454279
-0.309441
-0.456457
-0.347562
-0.298516
-0.245302
-0.23398
-0.200593
-0.200937
-0.20877
-0.167723
-0.275811
-0.258881
-0.337916
-0.421032
-0.409466
-0.514607
-0.502088
-0.528139
-0.541894
-0.377254
-0.436891
-0.386523
-0.348116
-0.327668
-0.256447
-0.238091
-0.322799
-0.260199
-0.268717
-0.28695
-0.299518
-0.302022
-0.267658
-0.285144
-0.389921
-0.342298
-0.261461
-0.411927
-0.410047
-0.435714
-0.449733
-0.454108
-0.396186
-0.381536
-0.360218
-0.315969
-0.291287
-0.273104
-0.248374
-0.164022
-0.193865
-0.198426
-0.149307
-0.147813
-0.138899
-0.211238
-0.237308
-0.279752
-0.238033
-0.335952
-0.336224
-0.358683
-0.379375
-0.385028
-0.377804
-0.325037
-0.32769
-0.314858
-0.292146
-0.276569
-0.251723
-0.236676
-0.228373
-0.217953
-0.212578
-0.201277
-0.193528
-0.227891
-0.138342
-0.239804
-0.151616
-0.267708
-0.261608
-0.30054
-0.301965
-0.329255
-0.330648
-0.310965
-0.302777
-0.301342
-0.288626
-0.27071
-0.250381
-0.22914
-0.215136
-0.192279
-0.178193
-0.169785
-0.140745
-0.145859
-0.184822
-0.201406
-0.209249
-0.192676
-0.228921
-0.189855
-0.255183
-0.227219
-0.300746
-0.287275
-0.275446
-0.284483
-0.277084
-0.25898
-0.249737
-0.239339
-0.226998
-0.218056
-0.202871
-0.202298
-0.184592
-0.211585
-0.201052
-0.202955
-0.137417
-0.161629
-0.228002
-0.150187
-0.204239
-0.247916
-0.223653
-0.24478
-0.24686
-0.233969
-0.261122
-0.252428
-0.232019
-0.221682
-0.205205
-0.165812
-0.162965
-0.178219
-0.175049
-0.173204
-0.146797
-0.184994
-0.174223
-0.169433
-0.208186
-0.133144
-0.179598
-0.165637
-0.163996
-0.21832
-0.191713
-0.213994
-0.197626
-0.232072
-0.228028
-0.219743
-0.220789
-0.213226
-0.251296
-0.248293
-0.192921
-0.177111
-0.160948
-0.186445
-0.161768
-0.164533
-0.156385
-0.115808
-0.154564
-0.118147
-0.161339
-0.136188
-0.19061
-0.186608
-0.17635
-0.171493
-0.205812
-0.203069
-0.196071
-0.189089
-0.181027
-0.16453
-0.171932
-0.178475
-0.215352
-0.180114
-0.175384
-0.161339
-0.140067
-0.142906
-0.146102
-0.147804
-0.15622
-0.10147
-0.157924
-0.118429
-0.16001
-0.136351
-0.142186
-0.184033
-0.181395
-0.180019
-0.176849
-0.182995
-0.209647
-0.177171
-0.147968
-0.111769
-0.0972475
-0.118882
-0.0998025
-0.136039
-0.120691
-0.125018
-0.10172
-0.0895172
-0.116555
-0.114613
-0.105333
-0.133275
-0.117612
-0.123404
-0.166256
-0.165327
-0.159747
-0.15508
-0.14824
-0.103532
-0.127276
-0.109024
-0.123202
-0.141231
-0.131829
-0.142428
-0.143993
-0.119164
-0.11944
-0.10597
-0.120962
-0.0860463
-0.0809517
-0.108153
-0.104667
-0.120041
-0.105166
-0.147188
-0.144403
-0.144583
-0.135743
-0.111086
-0.129922
-0.132359
-0.153493
-0.125467
-0.10541
-0.103632
-0.0979964
-0.109269
-0.10064
-0.0941264
-0.0938813
-0.0688896
-0.0819332
-0.0826533
-0.0773012
-0.0714395
-0.0642159
-0.104324
-0.132359
-0.129105
-0.134982
-0.120136
-0.167315
-0.118203
-0.121231
-0.102918
-0.118504
-0.120438
-0.119729
-0.104297
-0.0947841
-0.0829546
-0.0880213
-0.0818011
-0.0792835
-0.077541
-0.0606587
-0.0653037
-0.07209
-0.0455157
-0.0836339
-0.112639
-0.112546
-0.115423
-0.109355
-0.110319
-0.110565
-0.101834
-0.104458
-0.0893773
-0.0592486
-0.0544474
-0.0735674
-0.0933216
-0.0878429
-0.0734808
-0.0664122
-0.0627922
-0.0509595
-0.0569708
-0.0380515
-0.0548779
-0.0350576
-0.0604291
-0.0998886
-0.098225
-0.0979783
-0.0929216
-0.0989034
-0.0907976
-0.092047
-0.0821407
-0.0879093
-0.119348
-0.0883439
-0.0803122
-0.0759685
-0.0690401
-0.0646316
-0.057486
-0.0588372
-0.0414636
-0.0477277
-0.0401573
-0.0417891
-0.0307219
-0.0359125
-0.0778802
-0.0798943
-0.0831991
-0.0864805
-0.0850545
-0.0873143
-0.0967632
-0.0848149
-0.0694353
-0.0538699
-0.0594097
-0.0548999
-0.0589439
-0.0533159
-0.0472773
-0.0404413
-0.0373941
-0.0315752
-0.0312298
-0.0261464
-0.0348579
-0.0264699
-0.0190364
-0.0758494
-0.0706511
-0.0663658
-0.0433794
-0.0558375
-0.0594857
-0.0295603
-0.0576028
-0.057049
-0.0641898
-0.0605479
-0.053731
-0.053748
-0.0494246
-0.0443954
-0.0414306
-0.038862
-0.0336978
-0.0253172
-0.0265687
-0.0193391
-0.02249
-0.00920644
-0.0134418
-0.0205352
-0.0356647
-0.10165
-0.0696463
-0.0347662
-0.02806
-0.0455696
-0.0236521
-0.0354638
-0.0228402
-0.0298554
-0.0320097
-0.0139916
-0.0122638
-0.00583163
-0.00548404
-0.00418068
-0.00986826
-0.00828118
-0.0122394
-0.0152741
-0.0120276
-0.128606
-0.122418
-0.0960944
-0.0493626
-0.0410482
-0.0730998
-0.0731784
-0.0261942
-0.0826302
-0.0163852
-0.0735455
-0.0275722
-0.033009
-0.0483341
-0.04909
-0.0430383
-0.0425535
-0.0309526
-0.0174705
-0.0187801
-0.00475122
-0.00622725
0.000274744
1306.36
1209.75
1125.07
1075.48
1698.97
1672.61
1403.59
1095.88
1395.25
1444.19
1199.68
793.662
602.443
460.722
335.477
224.591
274.986
223.395
189.732
138.934
42.0797
31.7805
20.2032
10.4725
8.39716
6.37751
3.90548
0.305382
-7.10906
-7.62664
-8.36724
-9.21355
-7.97968
-8.18167
-8.4348
-9.08148
-9.71514
-10.4394
-11.1217
-11.5798
-8.66899
-9.68085
-10.1309
-10.1955
-5.26489
-5.28499
-5.06558
-4.9769
-2.74391
-2.56163
-2.2255
-1.95743
-2.43971
-2.29553
-1.9681
-1.77737
-1.86177
-1.73354
-1.68275
-1.71296
-2.17382
-2.11651
-1.98264
-1.87792
-1.73533
-1.70137
-1.632
-1.58155
-1.52783
-1.52377
-1.44402
-1.36112
-1.31727
-1.28953
-0.992104
-0.99427
-1.02684
-1.04338
-0.991905
-0.920947
-0.817969
-0.775904
-0.733699
-0.702917
-0.738947
-0.718921
-0.695323
-0.675653
-0.630108
-0.591426
-0.578392
-0.5631
-0.529793
-0.537344
-0.531472
-0.508108
-0.413078
-0.427127
-0.420614
-0.41225
-0.354045
-0.323112
-0.335953
-0.31454
-0.299503
-0.289046
-0.2599
-0.255175
-0.257658
-0.237808
-0.227559
-0.203181
-0.219879
-0.219198
-0.199225
-0.186625
-0.174477
-0.170666
-0.168804
-0.146561
-0.163529
-0.143188
-0.143921
-0.131424
-0.12295
-0.12882
-0.101214
-0.119024
-0.108313
-0.0988283
-0.0993504
-0.0852448
-0.0912044
-0.0843442
-0.0722827
-0.0657814
-0.0760473
-0.0719377
-0.0663424
-0.0514116
-0.0576234
-0.0553509
-0.0473144
-0.0416112
-0.0472782
-0.0456689
-0.0394185
-0.0336518
-0.0319296
-0.0283475
-0.0248426
-0.0206599
-0.0372149
-0.0249667
-0.0249381
-0.0181558
-0.0232346
-0.0135183
-0.0132615
-0.00815244
-0.0146391
-0.00955843
-0.0107128
-0.00577613
-0.0033076
-5.53996e-05
-0.00396692
0.00174531
287.064
5.36088
1.91795
1.51539
1.48092
2.22571
2.41457
2.38498
2.32382
2.24851
2.16368
2.05741
2.02571
1.95037
1.90413
1.86301
1.83399
1.81389
1.80438
729.257
155.381
20.8089
3.27892
1.8177
2.43021
2.69633
2.55662
2.40736
2.29446
2.14723
2.10165
2.00304
1.93561
1.88483
1.8423
1.81281
1.79261
1.78303
428.649
199.435
39.4741
8.55705
2.2725
2.83511
2.94756
2.67992
2.47401
2.28444
2.19661
2.06488
1.98457
1.91113
1.85884
1.81613
1.78654
1.76645
1.75694
144.632
126.409
34.2536
7.74015
3.43766
3.36729
3.03453
2.7119
2.46709
2.33128
2.15421
2.04635
1.95232
1.88143
1.827
1.7849
1.75539
1.73573
1.72638
73.4119
52.8584
41.3804
12.3885
5.51965
3.4219
2.94961
2.69059
2.47589
2.27188
2.1213
2.00258
1.91268
1.84146
1.78862
1.74755
1.71911
1.70014
1.69117
1.29802
11.3745
26.4489
22.474
9.50359
3.43007
3.00214
2.70749
2.4109
2.21473
2.05927
1.94867
1.86045
1.79399
1.74337
1.70494
1.67806
1.6603
1.65187
-6.06932
-3.27958
13.4676
16.6711
5.19711
2.68175
2.89329
2.54373
2.29478
2.11885
1.98084
1.87791
1.79915
1.73769
1.69195
1.65658
1.63216
1.61586
1.6082
-11.2907
-12.0004
2.31277
5.42306
2.76929
2.21749
2.4005
2.23561
2.09951
1.98338
1.87423
1.79245
1.7257
1.67391
1.63428
1.60366
1.58231
1.56802
1.5613
-9.72607
-8.51772
1.51268
5.74351
2.00219
1.6597
1.90801
1.94347
1.88994
1.82823
1.75666
1.69546
1.6456
1.60344
1.57169
1.54594
1.52831
1.51614
1.51054
-11.0542
-6.53124
3.16399
2.85878
0.915707
1.20682
1.54166
1.66438
1.67375
1.66688
1.62745
1.59157
1.55789
1.5282
1.50487
1.48535
1.47179
1.46227
1.45788
-8.94425
-4.54066
2.30966
0.631315
0.325587
0.803061
1.22025
1.40739
1.47089
1.50163
1.4982
1.48294
1.46822
1.44949
1.43531
1.42138
1.41222
1.40512
1.40207
-4.58868
-1.25753
0.624919
-0.357337
-0.065203
0.601152
0.941213
1.13572
1.27359
1.34633
1.36852
1.37474
1.37543
1.36921
1.36379
1.35658
1.35176
1.34764
1.3459
-1.77833
-1.0828
-0.575911
-0.640597
-0.290996
0.406075
0.809294
0.933886
1.11019
1.18628
1.24025
1.26632
1.28495
1.28894
1.29212
1.29019
1.28969
1.28787
1.28752
-2.55674
-1.56259
-0.936464
-0.598859
-0.14672
0.317815
0.666671
0.871162
0.991242
1.07291
1.11199
1.16996
1.19463
1.20909
1.21966
1.22406
1.22766
1.22895
1.22988
-1.97425
-1.68772
-1.13109
-0.623208
-0.191817
0.213228
0.512698
0.725858
0.878127
0.967174
1.03618
1.08388
1.11254
1.13341
1.14846
1.1569
1.16307
1.16609
1.1682
-1.73353
-1.34653
-0.84416
-0.421281
-0.10737
0.230355
0.472685
0.677787
0.810181
0.892774
0.956579
1.00305
1.03762
1.06205
1.08071
1.09245
1.10198
1.10751
1.11068
-1.51939
-1.19602
-0.802023
-0.408154
-0.164988
0.165583
0.400257
0.600305
0.734746
0.795106
0.867558
0.922321
0.966884
0.998097
1.01821
1.03518
1.04244
1.04974
1.05413
-1.2784
-1.02371
-0.544983
-0.335888
-0.236219
0.124167
0.337037
0.56114
0.620708
0.692831
0.810049
0.87038
0.903477
0.932281
0.956334
0.973012
0.985236
0.993813
0.998109
-0.995377
-0.832876
-0.843579
-0.323099
0.0539287
0.108375
0.268759
0.412371
0.5159
0.65942
0.74559
0.802468
0.845642
0.88201
0.898463
0.918202
0.931935
0.94081
0.941783
-1.00069
-0.652085
-0.514039
-0.148865
-0.090625
0.0234743
0.259847
0.391979
0.544074
0.600949
0.708728
0.741314
0.793029
0.822013
0.843332
0.867241
0.877614
0.886166
0.888101
-0.690525
-0.568259
-0.463185
-0.247278
-0.0676749
0.221156
0.250453
0.324018
0.478299
0.552993
0.623843
0.688159
0.742638
0.773241
0.794346
0.824076
0.827627
0.837589
0.837902
-0.637569
-0.481747
-0.360051
-0.175279
-0.0462577
0.0803358
0.235063
0.370622
0.485162
0.51801
0.5636
0.635201
0.690156
0.710653
0.737031
0.765281
0.786076
0.787607
0.789772
-0.527996
-0.402661
-0.289205
-0.132314
-0.014246
0.122964
0.216051
0.368783
0.39771
0.485332
0.555959
0.591346
0.623433
0.655184
0.703778
0.720969
0.742383
0.744746
0.750402
-0.425903
-0.34345
-0.257705
-0.109488
-0.00193683
0.119032
0.203811
0.30178
0.394709
0.46073
0.537716
0.564249
0.585678
0.64457
0.668431
0.680138
0.694977
0.704408
0.708927
-0.420454
-0.287116
-0.165406
-0.092679
-0.00449045
0.121841
0.211301
0.312585
0.362413
0.436404
0.47532
0.531798
0.572117
0.616065
0.622322
0.645955
0.653547
0.669096
0.673429
-0.298843
-0.253582
-0.238957
-0.039275
0.0679316
0.117547
0.182086
0.298988
0.344308
0.416352
0.449447
0.504543
0.531341
0.568407
0.596901
0.612168
0.626609
0.629833
0.635234
-0.22595
-0.219938
-0.15406
-0.118815
-0.0551333
0.144278
0.230521
0.309647
0.272607
0.392001
0.42395
0.47697
0.497012
0.537948
0.560231
0.577934
0.591512
0.59987
0.598795
-0.176419
-0.0888378
-0.130516
-0.0431348
-0.0130814
0.0429849
0.0768909
0.283356
0.349631
0.390036
0.364042
0.455577
0.479117
0.518289
0.533642
0.533095
0.55424
0.563418
0.561237
-0.160377
-0.128998
-0.0202748
-0.0714318
0.00786039
0.0709366
0.100067
0.138171
0.177426
0.367137
0.421741
0.431016
0.419219
0.471366
0.491859
0.524665
0.541003
0.541953
0.540247
-0.115777
-0.0812484
-0.0571724
0.050438
-0.0113755
0.0714151
0.0935515
0.157576
0.190321
0.214663
0.253108
0.424784
0.472581
0.501516
0.45613
0.466605
0.484667
0.489342
0.500772
-0.113403
-0.0683013
-0.030775
-0.00457182
0.0803803
0.0819618
0.0396618
0.120637
0.150497
0.219503
0.242001
0.252505
0.279123
0.37418
0.442854
0.500895
0.514826
0.525108
0.478885
-0.0734142
-0.0522925
-0.0155435
0.0217837
0.0768857
0.0836301
0.12952
0.0802977
0.136803
0.17534
0.214958
0.263075
0.290879
0.293955
0.292023
0.305772
0.325151
0.371014
0.448242
-0.0983292
-0.0257198
-0.0173904
0.0216705
0.0390511
0.109445
0.0930156
0.135908
0.0877456
0.151702
0.17263
0.213012
0.239058
0.275612
0.301393
0.326243
0.331905
0.318805
0.29177
-0.0508106
-0.0338631
-0.00246701
0.0502463
0.0557245
0.075691
0.121646
0.115536
0.134608
0.106291
0.161287
0.187424
0.212836
0.232861
0.246486
0.262694
0.273709
0.284296
0.296714
-0.057109
-0.020162
-0.00815134
0.0131469
0.0387913
0.0652441
0.0793683
0.118255
0.120098
0.122218
0.100638
0.151565
0.174652
0.199344
0.215849
0.230796
0.238307
0.242189
0.242478
-0.0209927
-0.0197275
0.0270642
0.0363544
0.0444544
0.074529
0.0945277
0.0806189
0.111683
0.136429
0.14253
0.144759
0.156632
0.16984
0.180801
0.191809
0.198141
0.202711
0.20578
-0.0280362
-0.0121105
-0.00515742
0.0178439
0.0548079
0.0435179
0.0577161
0.0820385
0.0934718
0.0894534
0.0660025
0.0818875
0.119383
0.135284
0.147785
0.157351
0.16302
0.167016
0.169599
-0.0111857
-0.00202285
0.0183185
0.0264109
0.0316989
0.0494661
0.0673771
0.0702018
0.0783831
0.103648
0.121334
0.102383
0.107705
0.109261
0.115355
0.120408
0.123804
0.126339
0.12747
-0.0154967
-0.00361674
0.00554439
0.0196596
0.0296512
0.0486798
0.0648744
0.0606999
0.0546383
0.0587449
0.0619829
0.0729514
0.0773566
0.0865044
0.0914072
0.0968015
0.0999856
0.102632
0.103754
-0.00340153
0.000480557
0.0229753
0.0249567
0.0257063
0.0213105
0.0306398
0.0457368
0.0523669
0.0646495
0.0614273
0.0554572
0.0473618
0.0477317
0.0463857
0.0472913
0.0476198
0.048375
0.0486275
-0.0056699
-0.000993164
0.00326202
0.000267422
0.00326757
0.0165037
0.0169037
0.0224412
0.0155775
0.0214167
0.0277115
0.033562
0.0352482
0.0447287
0.0473198
0.0508801
0.0523577
0.0536452
0.0541118
-0.000257298
0.000484902
-0.00415288
0.00339122
0.0256074
0.00262187
0.00841043
0.037868
0.0655385
0.0634293
0.0415557
0.000716285
-0.0202917
-0.0335415
-0.0416557
-0.0462681
-0.048935
-0.0505564
-0.0510703
)
;

boundaryField
{
    leftWall
    {
        type            zeroGradient;
    }
    rightWall
    {
        type            zeroGradient;
    }
    lowerWall
    {
        type            zeroGradient;
    }
    atmosphere
    {
        type            totalPressure;
        rho             rho;
        psi             none;
        gamma           1;
        p0              uniform 0;
        value           nonuniform List<scalar> 
46
(
-0.0507274
-0.0510667
-0.0473023
-0.0531153
-0.0375816
-0.0367793
-0.0335468
-0.0228027
-0.0347911
-0.0170866
-0.0280453
-0.0163561
-0.0178015
-0.0173316
-0.0165106
-0.0115777
-0.00922173
-0.00462347
-0.0025025
-0.00176322
-0.000501463
-0.000237217
0
0
0
0
0
0
0
0
0
0
0
0
0
0
0
0
0
0
0
0
0
0
0
0
)
;
    }
    defaultFaces
    {
        type            empty;
    }
}


// ************************************************************************* //
