/*--------------------------------*- C++ -*----------------------------------*\
| =========                 |                                                 |
| \\      /  F ield         | foam-extend: Open Source CFD                    |
|  \\    /   O peration     | Version:     4.1                                |
|   \\  /    A nd           | Web:         http://www.foam-extend.org         |
|    \\/     M anipulation  |                                                 |
\*---------------------------------------------------------------------------*/
FoamFile
{
    version     2.0;
    format      ascii;
    class       surfaceScalarField;
    location    "0.2";
    object      phi_0;
}
// * * * * * * * * * * * * * * * * * * * * * * * * * * * * * * * * * * * * * //

dimensions      [0 3 -1 0 0 0 0];

internalField   nonuniform List<scalar> 
4432
(
2.08048e-06
-2.08048e-06
5.85313e-06
-3.77265e-06
1.01383e-05
-4.2852e-06
1.48724e-05
-4.73407e-06
1.98735e-05
-5.00113e-06
2.63936e-05
-6.52005e-06
2.97242e-05
-3.3306e-06
4.04436e-05
-1.07195e-05
4.98445e-05
-9.40083e-06
8.16055e-05
-3.1761e-05
9.38921e-05
-1.22866e-05
0.000136081
-4.21885e-05
0.000160667
-2.45868e-05
0.000168819
-8.152e-06
0.000121114
4.77051e-05
0.000127602
-6.48825e-06
0.000118066
9.53695e-06
8.64817e-05
3.15839e-05
5.74107e-05
2.90709e-05
7.17798e-05
-1.43691e-05
5.40725e-05
1.77074e-05
4.0486e-05
1.35865e-05
4.0486e-05
2.1934e-06
-4.27388e-06
5.91216e-06
-7.49141e-06
1.0146e-05
-8.51905e-06
1.49041e-05
-9.49213e-06
1.99352e-05
-1.00322e-05
2.64037e-05
-1.29885e-05
2.98222e-05
-6.74909e-06
4.06043e-05
-2.15017e-05
4.93779e-05
-1.81744e-05
8.01339e-05
-6.2517e-05
9.34334e-05
-2.55861e-05
0.000133274
-8.20295e-05
0.000147988
-3.93008e-05
0.000157558
-1.77216e-05
0.000181508
2.37552e-05
0.000119756
5.52638e-05
0.0001159
1.33929e-05
0.000171469
-2.39848e-05
0.000149169
5.13705e-05
0.000117782
1.70183e-05
9.88596e-05
3.66295e-05
5.74463e-05
5.49998e-05
9.79322e-05
2.1064e-06
-6.38028e-06
5.76819e-06
-1.11532e-05
9.97601e-06
-1.27269e-05
1.47254e-05
-1.42415e-05
1.93116e-05
-1.46185e-05
2.58926e-05
-1.95696e-05
3.01797e-05
-1.10362e-05
3.86263e-05
-2.99483e-05
4.42013e-05
-2.37494e-05
4.37834e-05
-6.20991e-05
7.60255e-05
-5.78281e-05
8.28434e-05
-8.88474e-05
6.92496e-05
-2.5707e-05
4.95052e-05
2.02282e-06
8.53363e-05
-1.20759e-05
0.000117911
2.26887e-05
0.000104462
2.68423e-05
7.5794e-05
4.68329e-06
8.42813e-05
4.28832e-05
6.33927e-05
3.79069e-05
7.02995e-05
2.97227e-05
3.38779e-05
9.14216e-05
0.00013181
2.58751e-06
-8.96778e-06
5.99008e-06
-1.45558e-05
9.86881e-06
-1.66056e-05
1.46665e-05
-1.90392e-05
2.01108e-05
-2.00628e-05
2.67706e-05
-2.62293e-05
3.03024e-05
-1.4568e-05
3.73183e-05
-3.69642e-05
4.0702e-05
-2.7133e-05
3.89759e-05
-6.03731e-05
3.1028e-05
-4.98802e-05
-4.07916e-06
-5.37402e-05
1.41575e-05
-4.39437e-05
6.32104e-05
-4.70301e-05
9.35102e-05
-4.23756e-05
7.67036e-05
3.94953e-05
8.29414e-05
2.06045e-05
5.34673e-05
3.41574e-05
3.19521e-05
6.43985e-05
1.80313e-05
5.18277e-05
6.72655e-06
4.10274e-05
-2.97736e-06
0.000101126
0.000128832
2.26916e-06
-1.12369e-05
5.62246e-06
-1.79091e-05
9.51597e-06
-2.04991e-05
1.43223e-05
-2.38455e-05
2.06732e-05
-2.64137e-05
2.62303e-05
-3.17865e-05
2.78248e-05
-1.61624e-05
3.48304e-05
-4.39698e-05
3.78152e-05
-3.01178e-05
3.90452e-05
-6.16031e-05
6.10375e-05
-7.18725e-05
3.21075e-05
-2.48102e-05
4.30564e-05
-5.48926e-05
5.19735e-05
-5.59471e-05
5.15389e-05
-4.1941e-05
7.26539e-05
1.83804e-05
8.10954e-05
1.2163e-05
6.63719e-05
4.88809e-05
4.91226e-05
8.16478e-05
3.42209e-05
6.67294e-05
1.43887e-05
6.08595e-05
1.63485e-06
0.00011388
0.000130467
3.28964e-06
-1.45266e-05
5.98013e-06
-2.05996e-05
9.3195e-06
-2.38385e-05
1.38883e-05
-2.84143e-05
1.9829e-05
-3.23544e-05
2.49105e-05
-3.68681e-05
5.01044e-05
-4.13563e-05
3.35476e-05
-2.7413e-05
6.05082e-05
-5.70784e-05
6.54642e-05
-6.65591e-05
7.75983e-05
-8.40065e-05
0.000108706
-5.59177e-05
0.000119155
-6.53416e-05
5.45834e-05
8.62451e-06
1.14589e-05
1.1835e-06
-1.90174e-05
4.88566e-05
1.96242e-05
-2.64786e-05
6.74281e-05
1.07692e-06
7.95847e-05
6.94913e-05
8.30587e-05
6.32554e-05
4.04032e-05
0.000103515
5.80262e-05
9.62566e-05
0.000188493
2.28016e-06
-1.68068e-05
5.06471e-06
-2.33841e-05
8.66492e-06
-2.74387e-05
1.3212e-05
-3.29613e-05
1.82346e-05
-3.73771e-05
2.23944e-05
-4.10279e-05
2.59998e-05
-4.49617e-05
3.41193e-05
-3.55325e-05
5.60512e-05
-7.90103e-05
6.11794e-05
-7.16874e-05
4.38081e-05
-6.66352e-05
9.33126e-05
-0.000105422
7.57584e-05
-4.77874e-05
6.95334e-05
1.48495e-05
1.93945e-05
5.13224e-05
-3.01741e-05
9.84253e-05
2.08813e-05
-7.75339e-05
4.44696e-05
-2.25114e-05
8.5117e-05
2.88439e-05
0.000108512
3.98602e-05
0.000102266
0.000109761
9.8954e-05
9.95689e-05
0.000287447
3.72559e-06
-2.05323e-05
4.76781e-06
-2.44263e-05
7.90793e-06
-3.05788e-05
1.23661e-05
-3.74195e-05
1.74628e-05
-4.24738e-05
2.16971e-05
-4.52621e-05
3.9204e-05
-6.24686e-05
5.48022e-05
-5.11307e-05
5.56867e-05
-7.98948e-05
6.26929e-05
-7.86936e-05
6.74614e-05
-7.14037e-05
2.36933e-05
-6.16542e-05
5.22249e-05
-7.6319e-05
1.74785e-05
4.95959e-05
-1.38467e-05
8.26477e-05
6.13156e-06
7.8447e-05
4.98222e-05
-0.000121225
1.48759e-05
1.24349e-05
4.44882e-05
-7.68347e-07
5.89696e-05
2.53788e-05
6.2902e-05
0.000105828
4.83686e-05
0.000114102
0.000335816
2.55218e-06
-2.55218e-06
5.64787e-06
-3.09602e-06
1.00806e-05
-4.43219e-06
1.52132e-05
-5.13249e-06
1.81287e-05
-2.91568e-06
2.27593e-05
-4.63013e-06
2.57138e-05
-2.9547e-06
2.82492e-05
-2.5351e-06
2.96238e-05
-1.37453e-06
3.01052e-05
-4.81498e-07
3.10937e-05
-9.88391e-07
3.57861e-05
-4.69212e-06
1.93159e-05
1.64704e-05
1.55617e-05
3.75421e-06
1.16734e-05
3.88826e-06
8.5642e-06
3.1092e-06
5.60125e-06
2.96294e-06
2.77008e-06
2.83117e-06
2.77011e-06
2.09274e-06
-4.64425e-06
5.96122e-06
-6.96488e-06
1.08416e-05
-9.31229e-06
1.61768e-05
-1.04671e-05
1.95685e-05
-6.30786e-06
2.40671e-05
-9.12801e-06
2.73865e-05
-6.27427e-06
3.02326e-05
-5.38108e-06
3.14602e-05
-2.60194e-06
3.11379e-05
-1.58958e-07
3.28124e-05
-2.66256e-06
2.15186e-05
6.60189e-06
2.039e-05
1.75992e-05
1.59651e-05
8.1791e-06
1.22099e-05
7.64342e-06
8.98199e-06
6.3371e-06
5.8816e-06
6.06334e-06
2.90829e-06
5.80452e-06
5.67843e-06
2.888e-06
-7.5317e-06
5.81415e-06
-9.8913e-06
9.92901e-06
-1.34272e-05
1.53483e-05
-1.58859e-05
1.90333e-05
-9.99346e-06
2.42146e-05
-1.43089e-05
2.7808e-05
-9.86777e-06
3.12286e-05
-8.80158e-06
3.22651e-05
-3.63826e-06
3.18458e-05
2.60497e-07
3.41264e-05
-4.94291e-06
2.14913e-05
1.92371e-05
2.0275e-05
1.88156e-05
1.60716e-05
1.23826e-05
1.2294e-05
1.1421e-05
8.98954e-06
9.64151e-06
5.88306e-06
9.16984e-06
2.90758e-06
8.78003e-06
8.58603e-06
2.27891e-06
-9.81029e-06
6.24506e-06
-1.38576e-05
6.24177e-06
-1.34243e-05
1.47558e-05
-2.43995e-05
1.99695e-05
-1.52077e-05
2.35336e-05
-1.78728e-05
2.77971e-05
-1.41314e-05
3.23388e-05
-1.33431e-05
3.21807e-05
-3.48011e-06
3.32125e-05
-7.71161e-07
2.11991e-05
7.07059e-06
2.20291e-05
1.84073e-05
1.9271e-05
2.15737e-05
1.52972e-05
1.63565e-05
1.20962e-05
1.4622e-05
8.89988e-06
1.28378e-05
5.84891e-06
1.22208e-05
2.89268e-06
1.17363e-05
1.14787e-05
3.97684e-06
-1.3787e-05
8.76681e-06
-1.86477e-05
6.72177e-06
-1.13799e-05
1.181e-05
-2.94874e-05
1.8371e-05
-2.17693e-05
2.43735e-05
-2.38752e-05
2.95112e-05
-1.92693e-05
3.40862e-05
-1.79181e-05
3.39743e-05
-3.36818e-06
3.44655e-05
-1.26235e-06
2.12641e-05
2.02721e-05
2.18322e-05
1.78393e-05
1.90108e-05
2.43952e-05
1.51879e-05
2.01794e-05
1.19789e-05
1.7831e-05
8.83177e-06
1.59849e-05
5.81033e-06
1.52423e-05
2.87444e-06
1.46722e-05
1.43532e-05
4.20536e-06
-1.79925e-05
1.37742e-05
-2.82166e-05
5.90787e-06
-3.5142e-06
8.28903e-06
-3.18683e-05
1.77216e-05
-3.12024e-05
2.48644e-05
-3.10181e-05
3.11105e-05
-2.55156e-05
3.72757e-05
-2.40834e-05
3.70179e-05
-3.11042e-06
2.13815e-05
1.4374e-05
2.22772e-05
1.93764e-05
2.09132e-05
1.92033e-05
1.82647e-05
2.70437e-05
1.49195e-05
2.35246e-05
1.18289e-05
2.09215e-05
8.74112e-06
1.90727e-05
5.76208e-06
1.82214e-05
2.85192e-06
1.75825e-05
1.72052e-05
1.12027e-05
-2.91955e-05
2.10596e-05
-3.80733e-05
4.44561e-06
1.30992e-05
4.23725e-06
-3.16598e-05
1.60907e-05
-4.30563e-05
2.61747e-05
-4.11022e-05
3.36569e-05
-3.29979e-05
2.12162e-05
-1.16428e-05
2.1185e-05
-3.07936e-06
2.19759e-05
1.3583e-05
2.23445e-05
1.90078e-05
2.05062e-05
2.10417e-05
1.78537e-05
2.96962e-05
1.465e-05
2.67282e-05
1.1639e-05
2.39324e-05
8.64419e-06
2.20676e-05
5.70618e-06
2.11594e-05
2.82591e-06
2.04628e-05
2.00311e-05
4.68367e-05
-7.60324e-05
2.60374e-05
-1.7274e-05
3.71339e-06
3.5423e-05
-1.78426e-06
-2.61621e-05
5.99968e-06
-5.08404e-05
1.52954e-05
-5.03979e-05
2.03062e-05
-3.80088e-05
2.31254e-05
-1.44621e-05
2.23714e-05
-2.32548e-06
2.30335e-05
1.29208e-05
2.2356e-05
1.96853e-05
2.02507e-05
2.3147e-05
1.78188e-05
3.21281e-05
1.45634e-05
2.99837e-05
1.15289e-05
2.69668e-05
8.56506e-06
2.50314e-05
5.65854e-06
2.4066e-05
2.80274e-06
2.33186e-05
2.28339e-05
8.04468e-06
-2.8577e-05
1.52511e-05
-3.16327e-05
2.55968e-05
-4.09246e-05
4.56963e-05
-5.7519e-05
6.09051e-05
-5.76826e-05
7.93075e-05
-6.36645e-05
9.04643e-05
-7.36254e-05
0.000114734
-7.54006e-05
0.000127518
-9.26782e-05
0.000142406
-9.35816e-05
0.000147335
-7.63334e-05
0.000144854
-5.91731e-05
0.000139579
-7.10432e-05
0.00017021
1.89645e-05
0.000223137
2.97209e-05
0.000300751
8.32845e-07
0.000273275
-9.37483e-05
0.00032211
-3.64008e-05
0.000345544
-2.42023e-05
0.000358318
1.26045e-05
0.000378374
8.57725e-05
0.00029629
0.000196187
0.00016147
0.000470635
-3.30684e-06
-2.52702e-05
1.06274e-05
-4.55669e-05
2.12081e-05
-5.15053e-05
3.62005e-05
-7.25115e-05
3.18364e-05
-5.33184e-05
4.18031e-05
-7.36312e-05
4.55422e-05
-7.73645e-05
6.27899e-05
-9.26483e-05
7.66205e-05
-0.000106509
8.55157e-05
-0.000102477
9.67187e-05
-8.75363e-05
0.000148234
-0.000110689
0.000175135
-9.79442e-05
0.000242919
-4.8819e-05
0.000286598
-1.39586e-05
0.000315026
-2.75945e-05
0.00031966
-9.83828e-05
0.000353061
-6.98018e-05
0.000360821
-3.19622e-05
0.000363498
9.92799e-06
0.000277076
0.000172194
0.000338515
0.000134749
0.000139355
0.00036063
1.13252e-05
-3.65954e-05
3.13906e-06
-3.73808e-05
1.99655e-05
-6.83317e-05
2.52092e-05
-7.77552e-05
2.97418e-05
-5.78511e-05
3.82871e-05
-8.21765e-05
4.53272e-05
-8.44046e-05
6.07567e-05
-0.000108078
7.46608e-05
-0.000120413
8.90329e-05
-0.000116849
0.000148501
-0.000147005
0.000131884
-9.40721e-05
0.000173973
-0.000140033
0.000234939
-0.000109784
0.000276142
-5.51615e-05
0.000301826
-5.32793e-05
0.000308652
-0.000105208
0.000324044
-8.51935e-05
0.000291942
1.3902e-07
0.000220814
8.10558e-05
0.000292897
0.000100111
0.000325372
0.000102274
0.000146596
0.000318131
1.416e-05
-5.07554e-05
2.85618e-05
-5.17826e-05
1.38468e-05
-5.36167e-05
3.48878e-05
-9.87962e-05
2.30513e-05
-4.60146e-05
3.6432e-05
-9.55571e-05
4.66578e-05
-9.46305e-05
6.23069e-05
-0.000123727
7.4361e-05
-0.000132467
0.000125243
-0.000167731
6.71989e-05
-8.89605e-05
0.000135143
-0.000162016
8.85213e-05
-9.34121e-05
0.000114561
-0.000135824
0.000129339
-6.99397e-05
0.00020332
-0.00012726
0.000211586
-0.000113474
0.000184388
-5.79955e-05
0.00016883
1.56966e-05
0.000230539
1.93473e-05
0.000285204
4.5446e-05
0.000316704
7.07748e-05
3.09451e-05
0.000432355
1.41174e-05
-6.48728e-05
2.91096e-05
-6.67748e-05
4.68078e-05
-7.1315e-05
2.66099e-05
-7.85983e-05
6.03712e-05
-7.97759e-05
4.20017e-05
-7.71876e-05
3.57557e-05
-8.83844e-05
7.55233e-05
-0.000163494
9.17934e-05
-0.000148737
7.1157e-05
-0.000147094
0.000126476
-0.000144279
0.00011448
-0.00015002
0.000153219
-0.000132151
0.000137115
-0.00011972
0.000209227
-0.000142052
0.000211017
-0.00012905
0.00022095
-0.000123407
0.000246195
-8.32403e-05
0.000288814
-2.69228e-05
0.000333795
-2.56339e-05
0.000383135
-3.89357e-06
0.000428302
2.5608e-05
9.77148e-06
0.000449475
7.61497e-06
-7.24877e-05
1.41389e-05
-7.32987e-05
2.16446e-05
-7.88206e-05
2.15119e-05
-7.84657e-05
2.86797e-05
-8.69437e-05
3.67835e-05
-8.52914e-05
4.31896e-05
-9.47905e-05
5.06126e-05
-0.000170917
6.41464e-05
-0.000162271
7.57855e-05
-0.000158734
0.000111325
-0.000179818
0.000116875
-0.000155571
0.000155063
-0.000170339
0.000202669
-0.000167326
0.000204318
-0.0001437
0.000206792
-0.000131524
0.00013097
-4.75847e-05
0.000117391
-6.96609e-05
0.000174028
-8.35603e-05
0.00020046
-5.20661e-05
0.000246496
-4.9929e-05
0.000311268
-3.9164e-05
-3.81773e-05
0.000359217
6.37529e-06
-7.8863e-05
1.18472e-05
-7.87707e-05
1.73395e-05
-8.43128e-05
1.83865e-05
-7.95127e-05
2.69999e-05
-9.55571e-05
3.67101e-05
-9.50017e-05
4.40759e-05
-0.000102156
5.03144e-05
-0.000177156
7.24088e-05
-0.000184365
8.71751e-05
-0.0001735
9.57775e-05
-0.000188421
8.63538e-05
-0.000146147
0.000109038
-0.000193023
0.000130516
-0.000188804
0.000113939
-0.000127124
5.26119e-05
-7.01973e-05
4.18871e-05
-3.68599e-05
7.29994e-05
-0.000100773
8.97281e-05
-0.000100289
0.000133843
-9.61813e-05
0.000196263
-0.000112349
0.000249366
-9.22674e-05
-9.66892e-05
0.000307878
2.76743e-06
-8.16305e-05
7.56657e-06
-8.35698e-05
5.80385e-06
-8.25501e-05
1.18106e-05
-8.55194e-05
1.30202e-05
-9.67667e-05
5.78459e-05
-0.000139827
4.6186e-05
-9.04962e-05
3.76213e-05
-0.000168591
1.50835e-05
-0.000161828
2.81635e-05
-0.00018658
4.87533e-05
-0.00020901
1.97078e-05
-0.000117101
2.65231e-05
-0.000199839
2.64676e-05
-0.000188748
2.80183e-05
-0.000128674
2.86088e-05
-7.07878e-05
5.20604e-05
-6.03115e-05
3.45793e-05
-8.3292e-05
1.96611e-05
-8.53708e-05
4.13473e-05
-0.000117867
7.91669e-05
-0.000150168
0.000114406
-0.000127506
-0.000204744
0.000222461
3.70682e-06
-8.53373e-05
5.59342e-06
-8.54564e-05
3.94275e-06
-8.08994e-05
6.30164e-06
-8.78783e-05
5.81604e-05
-0.000148625
2.46943e-05
-0.000106361
3.44961e-05
-0.000100298
1.02781e-05
-0.000144373
1.46486e-05
-0.000166198
3.53935e-05
-0.000207325
3.77377e-05
-0.000211355
3.72507e-05
-0.000116615
6.35485e-05
-0.000226137
6.55849e-05
-0.000190784
8.56726e-05
-0.000148762
8.43454e-05
-6.94606e-05
9.02391e-05
-6.62052e-05
9.31665e-05
-8.62194e-05
0.000109539
-0.000101743
0.000180378
-0.000188706
0.000218175
-0.000187965
0.000423749
-0.000333081
-0.000289345
0.00050835
7.17968e-06
-9.25169e-05
8.7141e-06
-8.69908e-05
1.29078e-05
-8.50932e-05
9.85853e-06
-8.4829e-05
1.85764e-05
-0.000157343
1.83611e-05
-0.000106146
3.30417e-05
-0.000114979
-1.19843e-05
-9.93472e-05
5.93206e-05
-0.000237503
5.95255e-05
-0.00020753
4.20772e-05
-0.000193906
2.58247e-05
-0.000100362
4.61849e-05
-0.000246497
5.46727e-05
-0.000199272
5.6596e-05
-0.000150685
8.32694e-05
-9.61341e-05
0.000101507
-8.4443e-05
0.000117513
-0.000102225
0.000127337
-0.000111567
0.000120568
-0.000181937
0.000238587
-0.000305983
0.00030418
-0.000398674
-0.000322111
0.000336946
7.08776e-06
-9.96047e-05
7.50908e-06
-8.74122e-05
1.43492e-05
-9.19333e-05
2.5356e-05
-9.58358e-05
-2.07417e-05
-0.000111246
-2.50338e-05
-0.000101854
-4.23345e-05
-9.76779e-05
-2.45456e-05
-0.000117136
3.71585e-06
-0.000265765
4.03536e-05
-0.000244167
4.54651e-05
-0.000199018
1.50876e-06
-5.64056e-05
-1.17835e-05
-0.000233205
-4.97415e-05
-0.000161314
-4.15165e-05
-0.00015891
-3.53295e-06
-0.000134118
4.89046e-05
-0.000136881
5.40955e-05
-0.000107416
6.53618e-05
-0.000122833
3.60178e-05
-0.000152592
5.39449e-05
-0.00032391
4.68428e-05
-0.000391571
-0.000282503
7.23556e-06
1.03384e-05
-0.000109943
9.82104e-07
-7.80558e-05
2.20472e-06
-9.31559e-05
1.77763e-07
-9.38088e-05
-1.61268e-05
-9.49411e-05
-4.31547e-05
-7.4826e-05
-7.63353e-05
-6.44972e-05
-5.15797e-05
-0.000141892
1.00987e-06
-0.000318354
5.94565e-05
-0.000302614
5.78735e-05
-0.000197435
-5.16364e-06
6.63148e-06
-3.27597e-05
-0.000205608
-6.19672e-05
-0.000132107
-6.09326e-05
-0.000159945
-5.15923e-06
-0.000189891
1.3337e-05
-0.000155377
4.99962e-05
-0.000144075
6.80114e-05
-0.000140848
2.05234e-05
-0.000105104
-6.65598e-05
-0.000236826
-0.000156681
-0.00030145
-0.000213783
-0.0002254
2.74439e-05
-0.000137387
-3.41831e-07
-5.02701e-05
-1.59004e-05
-7.75974e-05
1.20549e-05
-0.000121764
-1.66057e-05
-6.62805e-05
-1.23984e-05
-7.90333e-05
-3.81009e-05
-3.87948e-05
-1.44433e-05
-0.000165549
2.19485e-05
-0.000354746
8.9957e-05
-0.000370622
5.57657e-05
-0.000163244
-3.91272e-05
0.000101524
-8.76176e-05
-0.000157118
-3.98256e-05
-0.000179899
-5.58233e-05
-0.000143947
7.43686e-05
-0.000320083
9.67423e-05
-0.000177751
5.72685e-05
-0.000104601
1.23056e-05
-9.58852e-05
-9.24144e-06
-8.35567e-05
-8.67062e-05
-0.000159361
-0.000230967
-0.000157189
-0.000147598
-0.000297153
-1.00213e-05
-0.000127366
2.63859e-05
-8.66772e-05
5.43567e-06
-5.66471e-05
1.13085e-05
-0.000127637
3.27419e-05
-8.77139e-05
2.94803e-05
-7.57717e-05
3.4416e-05
-4.37304e-05
3.78733e-05
-0.000169007
1.46857e-05
-0.000331559
-3.40472e-05
-0.00032189
-5.63485e-05
-0.000140942
3.67325e-05
8.44339e-06
1.81882e-05
-0.000138574
-5.75201e-05
-0.000104191
-2.88071e-05
-0.000172661
2.65326e-05
-0.000375423
4.189e-05
-0.000193108
5.2577e-05
-0.000115288
2.77929e-05
-7.11011e-05
-9.34728e-06
-4.64165e-05
-0.000132528
-3.61806e-05
-0.000245791
-4.39259e-05
-6.20623e-05
-0.000331326
5.21663e-06
-0.000132582
5.77925e-05
-0.000139253
1.88591e-05
-1.77138e-05
3.18087e-05
-0.000140587
2.0104e-05
-7.60092e-05
3.28439e-05
-8.85117e-05
0.000108739
-0.000119625
0.000116967
-0.000177235
-4.26882e-05
-0.000171903
-4.03053e-05
-0.000324272
-1.92571e-05
-0.00016199
1.56816e-05
-2.64954e-05
-2.68643e-05
-9.60279e-05
-5.90274e-06
-0.000125152
2.70041e-05
-0.000205568
-7.75355e-05
-0.000270884
-8.66394e-05
-0.000184004
-1.90233e-05
-0.000182904
-4.54826e-05
-4.46418e-05
-0.000114369
2.24696e-05
-0.000163828
1.32787e-05
-0.000172859
-3.48948e-05
-2.36178e-05
-0.000211304
4.46875e-05
-0.00017727
-3.7e-05
-5.75656e-05
-2.05863e-05
-3.41275e-05
1.98237e-05
-0.000180997
3.29675e-05
-8.9153e-05
3.9533e-05
-9.50772e-05
6.22719e-06
-8.63195e-05
-1.43819e-05
-0.000156626
-2.68981e-05
-0.000159387
-3.2623e-05
-0.000318548
-5.07196e-05
-0.000143894
-7.56129e-06
-6.96537e-05
-3.18132e-05
-7.1776e-05
-2.11209e-05
-0.000135845
-6.57382e-05
-0.000160951
-0.000129004
-0.000207618
-0.000153069
-0.000159939
-0.000168077
-0.000167896
-0.000166235
-4.64833e-05
-0.000166514
2.27479e-05
-0.000161568
8.33291e-06
-0.000154608
-4.18551e-05
-1.14518e-06
-0.00017708
7.25529e-06
-0.000184525
-5.78558e-05
7.54548e-06
-5.5336e-05
-3.66473e-05
-6.11056e-05
-0.000175227
-4.20695e-05
-0.000108189
-3.89948e-05
-9.81519e-05
-9.83873e-06
-0.000115476
-3.69716e-05
-0.000129493
-1.13822e-05
-0.000184976
-5.86775e-05
-0.000271252
-6.66408e-05
-0.00013593
-4.44484e-05
-9.18461e-05
-2.90335e-05
-8.7191e-05
-5.68445e-05
-0.000108034
-9.44636e-05
-0.000123332
-0.000176882
-0.000125201
-0.0002096
-0.000127221
-0.000232045
-0.000145451
-0.00023144
-4.70883e-05
-0.00015127
-5.74227e-05
-0.000140073
-2.86384e-06
-0.000159127
-2.28011e-05
7.53573e-06
-0.000167808
5.1651e-05
-0.000236176
-6.40496e-06
6.56015e-05
-5.10465e-05
7.99419e-06
-4.03783e-05
-0.000185895
2.42265e-05
-0.000172794
3.21959e-05
-0.000106121
1.467e-05
-9.79498e-05
4.81366e-05
-0.00016296
3.28698e-05
-0.000169709
-8.97612e-05
-0.000148621
-0.000123389
-0.000102302
-8.32568e-05
-0.000131979
-7.44947e-05
-9.59531e-05
-7.82327e-05
-0.000104296
-9.53843e-05
-0.00010618
-0.000136009
-8.45756e-05
-0.000180781
-8.24496e-05
-0.000246549
-7.96834e-05
-0.000155353
-0.000138285
-0.000156201
-5.65738e-05
-0.000142821
-1.62444e-05
-0.00015181
-1.38121e-05
9.89006e-06
-0.000154164
-1.3152e-05
-0.000223024
0.000103858
-5.1409e-05
0.000100843
1.10095e-05
5.61926e-05
-0.000141244
1.66808e-05
-0.000133282
9.29227e-07
-9.03696e-05
-4.90554e-06
-9.2115e-05
-1.49922e-05
-0.000152873
-6.42396e-05
-0.000120462
-0.000103052
-0.000109809
-5.68239e-05
-0.000148531
-5.95338e-05
-0.000129269
-7.14651e-05
-8.40219e-05
-8.49084e-05
-9.08527e-05
-9.82156e-05
-9.2873e-05
-8.28872e-05
-9.9904e-05
-0.000105204
-6.01329e-05
-0.0001128
-7.2087e-05
-0.000204201
-4.68846e-05
-0.000225086
-3.56885e-05
-0.000161647
-7.96836e-05
-0.000154103
-2.13561e-05
4.53154e-06
-0.000148744
-3.65095e-05
-0.000186515
-3.53483e-05
-5.25702e-05
2.62342e-05
-5.0573e-05
3.22566e-06
-0.000118236
-2.93253e-05
-0.000100731
-4.81202e-05
-7.15747e-05
-3.01376e-05
-0.000110098
-4.60498e-05
-0.000136961
-6.1008e-05
-0.000105504
-7.5342e-05
-9.54745e-05
-6.32863e-05
-0.000160586
-0.000126836
-6.57189e-05
-8.57925e-05
-0.000125065
-7.26887e-05
-0.000103957
-0.000106463
-5.90992e-05
-0.000142333
-6.40332e-05
-9.87207e-05
-0.000103746
-0.000125117
-4.56908e-05
-0.000123372
-4.86291e-05
-0.00012199
-3.70714e-05
-0.000185422
-1.62514e-05
-0.00020057
-6.2082e-06
9.93772e-06
-0.000205976
-4.00626e-05
-0.000146452
-1.15168e-05
-8.11159e-05
1.00127e-05
-7.21024e-05
3.66668e-06
-0.00011189
-2.83859e-05
-6.86787e-05
-1.51193e-05
-8.48413e-05
-3.31969e-05
-9.202e-05
-2.37816e-05
-0.000146376
-3.56574e-05
-9.36279e-05
-3.18385e-05
-9.92934e-05
-9.85562e-05
-9.38686e-05
-7.33374e-05
-9.09377e-05
-0.000127542
-7.08611e-05
-0.000128658
-0.000102841
-0.000121238
-6.65187e-05
-0.000109962
-7.53098e-05
-0.000155244
-5.84635e-05
-0.000103665
-9.72699e-05
-0.000110742
-4.15524e-05
-0.000116771
-3.10419e-05
-0.000118042
-1.49807e-05
-0.00011401
-1.02403e-05
6.27936e-06
-0.000110351
-1.35617e-05
-0.00013289
-1.24396e-05
-8.22381e-05
-1.37165e-05
-7.08255e-05
-3.34839e-05
-9.21225e-05
-1.86363e-05
-8.35262e-05
1.57337e-05
-0.000119211
1.55729e-05
-9.18591e-05
-2.47286e-05
-0.000106074
-2.50814e-05
-9.32751e-05
-3.17835e-05
-9.25912e-05
-4.13815e-05
-8.42705e-05
-4.9854e-05
-8.24652e-05
-4.68368e-05
-7.38783e-05
-8.57308e-05
-6.39467e-05
-6.39196e-05
-8.83299e-05
-6.54982e-05
-7.37313e-05
-7.4e-05
-4.99617e-05
-0.000109789
-6.14809e-05
-0.000106577
-4.47649e-05
-0.00010536
-3.22588e-05
-0.000101319
-1.90216e-05
-9.93256e-05
-1.22336e-05
5.21275e-06
-9.8259e-05
-3.42171e-05
-9.86733e-05
-2.69881e-05
-8.9467e-05
-1.50589e-05
-8.27547e-05
2.45514e-05
-0.000131733
2.63183e-05
-8.52932e-05
-6.6999e-06
-8.6193e-05
-1.22606e-05
-8.62984e-05
-2.15629e-05
-9.67721e-05
-2.2721e-05
-9.21169e-05
-3.22367e-05
-8.30754e-05
-3.94945e-05
-7.70127e-05
-4.8104e-05
-7.38557e-05
-6.4663e-05
-5.73193e-05
-6.83175e-05
-6.02922e-05
-5.40704e-05
-0.000102577
-7.48219e-05
-5.29798e-05
-7.79214e-05
-4.68622e-05
-8.90574e-05
-5.03449e-05
-8.76512e-05
-4.61711e-05
-8.83586e-05
-3.15515e-05
-8.96988e-05
-1.76813e-05
-9.41094e-05
-7.82308e-06
4.60643e-06
-9.35031e-05
-2.6761e-05
-7.19123e-05
-9.43028e-06
-0.000106798
3.03832e-06
-9.52233e-05
-1.7175e-05
-0.000111519
1.07453e-06
-0.000103543
-4.58486e-06
-8.05336e-05
-1.81437e-05
-7.27395e-05
-3.27466e-05
-8.21692e-05
-4.83592e-05
-7.65043e-05
-5.69073e-05
-7.45273e-05
-5.97622e-05
-7.41579e-05
-6.37191e-05
-6.98987e-05
-6.09363e-05
-6.0102e-05
-6.26999e-05
-5.85285e-05
-0.000102753
-6.25234e-05
-6.25067e-05
-9.32265e-05
-6.62185e-05
-4.31503e-05
-7.42114e-05
-4.2352e-05
-7.87085e-05
-4.1674e-05
-8.78249e-05
-2.2435e-05
-8.73919e-05
-1.81144e-05
-8.80164e-05
-7.19855e-06
6.65807e-06
-9.0068e-05
1.48184e-05
-8.67307e-05
4.18652e-07
-9.23979e-05
-6.83804e-06
-8.79666e-05
-2.03771e-05
-9.79804e-05
-3.148e-05
-9.24397e-05
-1.8976e-05
-9.30375e-05
-4.43151e-07
-9.12723e-05
-1.34471e-05
-6.91652e-05
-2.86473e-05
-6.13042e-05
-3.98296e-05
-6.33449e-05
-4.96042e-05
-6.43832e-05
-5.52412e-05
-6.42617e-05
-5.03126e-05
-6.50306e-05
-4.08082e-05
-6.80329e-05
-3.65559e-05
-6.67757e-05
-6.60321e-05
-6.37503e-05
-6.87578e-05
-4.04245e-05
-6.1317e-05
-4.97928e-05
-7.42397e-05
-2.87513e-05
-7.64118e-05
-2.02629e-05
-7.50931e-05
-1.94331e-05
-7.51897e-05
-7.10195e-06
4.03734e-06
-7.25689e-05
-3.86038e-06
-8.28703e-05
-7.12744e-06
-8.91308e-05
-5.75492e-06
-8.93391e-05
-1.48268e-05
-8.89084e-05
-2.01397e-05
-8.71269e-05
-3.07083e-05
-8.24689e-05
-3.99135e-05
-8.20671e-05
-2.97418e-05
-7.93369e-05
-4.34775e-05
-4.75685e-05
-6.05446e-05
-4.62778e-05
-5.30101e-05
-7.19177e-05
-4.41064e-05
-7.31654e-05
-3.516e-05
-7.39769e-05
-4.83593e-05
-5.48336e-05
-6.37088e-05
-5.14261e-05
-7.20371e-05
-5.5422e-05
-4.6878e-05
-6.55836e-05
-6.41512e-05
-3.25196e-05
-6.71758e-05
-2.57266e-05
-6.84643e-05
-1.89744e-05
-7.14257e-05
-1.64716e-05
-7.19889e-05
-6.53867e-06
4.31876e-06
-7.22703e-05
-4.76122e-07
-8.23942e-05
-4.75546e-06
-8.48514e-05
-9.32051e-06
-8.4774e-05
-1.42224e-05
-8.40065e-05
-1.91387e-05
-8.22106e-05
-2.18014e-05
-7.98062e-05
-2.52101e-05
-7.86583e-05
-2.93587e-05
-7.51882e-05
-3.59115e-05
-4.10157e-05
-4.26811e-05
-3.95081e-05
-5.0057e-05
-6.45418e-05
-5.8225e-05
-6.49973e-05
-6.53133e-05
-6.68886e-05
-5.24857e-05
-6.76613e-05
-6.27076e-05
-4.12041e-05
-5.37294e-05
-6.44001e-05
-8.00306e-05
-3.92824e-05
-5.40991e-05
-5.8451e-05
-5.96548e-05
-2.01709e-05
-5.99122e-05
-1.87171e-05
-6.11589e-05
-1.52248e-05
-6.07971e-05
-6.90042e-06
3.64609e-06
-6.01244e-05
-2.9832e-06
-7.9411e-05
-6.03878e-06
-8.17958e-05
-8.62897e-06
-8.21838e-05
-1.26729e-05
-7.99625e-05
-1.70258e-05
-7.78577e-05
-2.31819e-05
-7.36501e-05
-2.9026e-05
-7.28141e-05
-3.11656e-05
-7.30486e-05
-3.55838e-05
-3.65975e-05
-3.94212e-05
-3.56708e-05
-4.45156e-05
-5.94473e-05
-5.17267e-05
-5.77862e-05
-5.4974e-05
-6.36413e-05
-5.69808e-05
-6.56544e-05
-6.03298e-05
-3.78551e-05
-5.91295e-05
-6.56003e-05
-6.26758e-05
-3.57361e-05
-7.61996e-05
-4.49272e-05
-5.37761e-05
-4.25943e-05
-5.19757e-05
-2.05174e-05
-5.62906e-05
-1.091e-05
-5.92467e-05
-3.94424e-06
4.2326e-06
-5.98332e-05
-1.09741e-06
-7.83135e-05
-2.94393e-06
-7.99493e-05
-6.7891e-06
-7.83386e-05
-9.43261e-06
-7.7319e-05
-1.23202e-05
-7.49701e-05
-1.71334e-05
-6.88369e-05
-2.29582e-05
-6.69893e-05
-2.47845e-05
-7.12223e-05
-2.40119e-05
-3.73701e-05
-2.2662e-05
-3.70207e-05
-4.512e-05
-3.69892e-05
-3.61926e-05
-6.67136e-05
-3.6758e-05
-6.30759e-05
-5.02963e-05
-5.21161e-05
-2.64718e-05
-6.16795e-05
-5.61657e-05
-3.59064e-05
-3.95355e-05
-5.23663e-05
-5.77032e-05
-2.67594e-05
-4.79194e-05
-5.23781e-05
-5.19494e-05
-1.64873e-05
-5.19621e-05
-1.08972e-05
-5.22779e-05
-3.62842e-06
4.157e-06
-5.22023e-05
-1.49997e-06
-7.68136e-05
-3.27914e-06
-7.81701e-05
-7.28722e-06
-7.43305e-05
-1.00917e-05
-7.45145e-05
-1.36715e-05
-7.13904e-05
-1.80164e-05
-6.44919e-05
-2.31586e-05
-6.18472e-05
-2.61414e-05
-6.82395e-05
-2.82485e-05
-3.5263e-05
-2.81821e-05
-3.7087e-05
-3.14094e-05
-3.37619e-05
-2.62947e-05
-7.18282e-05
-3.00426e-05
-5.93281e-05
-3.11336e-05
-5.10251e-05
-3.35117e-05
-5.93014e-05
-4.61673e-05
-2.32507e-05
-4.71167e-05
-5.14169e-05
-4.87964e-05
-2.50797e-05
-6.16553e-05
-3.95192e-05
-4.72237e-05
-3.09189e-05
-4.78229e-05
-1.0298e-05
-4.78751e-05
-3.57619e-06
4.42579e-06
-4.81439e-05
-1.68335e-06
-7.51302e-05
-3.4557e-06
-7.63977e-05
-4.21392e-06
-7.35723e-05
-2.53986e-06
-7.61885e-05
6.11601e-07
-7.45418e-05
-1.77565e-05
-4.61238e-05
-3.51342e-05
-4.44694e-05
-3.05759e-05
-7.27978e-05
-2.60276e-05
-3.98113e-05
-2.4161e-05
-3.89536e-05
-1.93758e-05
-3.8547e-05
-2.5703e-05
-6.55011e-05
-3.12306e-05
-5.38004e-05
-3.06078e-05
-5.16478e-05
-4.87535e-05
-4.11557e-05
-2.62885e-05
-4.57157e-05
-3.83259e-05
-3.93795e-05
-3.94274e-05
-2.39782e-05
-4.77943e-05
-3.11522e-05
-3.78983e-05
-4.08149e-05
-4.38152e-05
-4.38107e-06
-4.25316e-05
-4.85971e-06
5.94741e-06
-4.40532e-05
-2.54645e-06
-7.25837e-05
-5.08214e-06
-7.3862e-05
-7.07343e-06
-7.1581e-05
-9.89687e-06
-7.3365e-05
-1.30843e-05
-7.13544e-05
-1.44945e-05
-4.47136e-05
-1.67809e-05
-4.2183e-05
-1.7558e-05
-7.20206e-05
-1.44433e-05
-4.2926e-05
-1.4496e-05
-3.89008e-05
-1.3496e-05
-3.9547e-05
-1.89637e-05
-6.00333e-05
-2.51128e-05
-4.76513e-05
-2.69642e-05
-4.97965e-05
-2.67995e-05
-4.13204e-05
-2.58754e-05
-4.66398e-05
-4.35723e-05
-2.16825e-05
-3.13293e-05
-3.62212e-05
-4.21662e-05
-2.03153e-05
-5.47003e-05
-2.82808e-05
-3.91278e-05
-1.99536e-05
-4.03034e-05
-3.68408e-06
4.23945e-06
-3.85954e-05
-1.73241e-06
-7.08513e-05
-3.50373e-06
-7.20907e-05
-5.40864e-06
-6.9676e-05
-6.81797e-06
-7.19557e-05
-9.18255e-06
-6.89898e-05
-1.20874e-05
-4.18087e-05
-1.68506e-05
-3.74198e-05
-3.01304e-05
-5.87409e-05
-1.97584e-05
-5.32979e-05
-7.00354e-06
-5.16556e-05
-1.72686e-05
-2.9282e-05
-2.7385e-05
-4.99169e-05
-2.48309e-05
-5.02053e-05
-2.82045e-05
-4.64228e-05
-2.73762e-05
-4.21486e-05
-4.1405e-05
-3.2611e-05
-3.07641e-05
-3.23233e-05
-3.33344e-05
-3.36509e-05
-3.46279e-05
-1.90218e-05
-3.93576e-05
-2.3551e-05
-2.98949e-05
-2.94163e-05
-3.33656e-05
-2.13432e-07
5.48819e-06
-3.46143e-05
-9.78234e-07
-6.98731e-05
-2.42449e-06
-7.06444e-05
-3.95953e-06
-6.8141e-05
-7.80205e-06
-6.81132e-05
-1.81633e-05
-5.86285e-05
-2.66801e-06
-5.7304e-05
-7.94005e-06
-3.21478e-05
-1.24548e-05
-5.42261e-05
-1.48664e-05
-5.08863e-05
-1.06054e-05
-5.59166e-05
-1.03033e-05
-2.95841e-05
-2.98987e-05
-3.03215e-05
-2.30456e-05
-5.70584e-05
-2.34389e-05
-4.60296e-05
-2.35724e-05
-4.20151e-05
-2.35344e-05
-3.2649e-05
-2.23082e-05
-3.35494e-05
-2.94587e-05
-2.65004e-05
-2.15717e-05
-2.69088e-05
-3.11731e-05
-1.39495e-05
-4.74823e-05
-1.31071e-05
-3.34148e-05
-1.42809e-05
7.65739e-06
-3.55839e-05
-9.14143e-07
-6.89589e-05
-2.68716e-06
-6.88714e-05
-2.08321e-06
-6.87449e-05
-5.48219e-06
-6.47142e-05
-6.00031e-06
-5.81103e-05
-5.27559e-06
-5.80287e-05
-4.58415e-06
-3.28392e-05
-2.25457e-05
-3.62645e-05
-1.33852e-05
-6.00468e-05
-1.1733e-05
-5.75688e-05
-9.78928e-06
-3.15278e-05
-1.10958e-05
-2.9015e-05
-1.6877e-05
-5.12772e-05
-1.99804e-05
-4.29261e-05
-2.2378e-05
-3.96175e-05
-2.14071e-05
-3.36199e-05
-2.9419e-05
-2.55375e-05
-2.9363e-05
-2.65564e-05
-3.25599e-05
-2.37119e-05
-3.42143e-05
-1.22951e-05
-3.27456e-05
-1.45757e-05
-3.9192e-05
-7.83458e-06
-9.52019e-07
-3.05826e-05
-4.09051e-07
-6.85499e-05
-9.59327e-07
-6.83211e-05
5.98333e-07
-7.03026e-05
3.71762e-07
-6.44876e-05
-1.61838e-05
-4.15547e-05
-9.13751e-06
-6.5075e-05
-7.26649e-06
-3.47102e-05
-1.0083e-05
-3.3448e-05
-7.96826e-06
-6.21616e-05
-1.05003e-05
-5.50367e-05
-1.05027e-05
-3.15254e-05
-1.18866e-05
-2.76311e-05
-1.57001e-05
-4.74637e-05
-1.74535e-05
-4.11728e-05
-1.80348e-05
-3.90362e-05
-1.83826e-05
-3.3272e-05
-1.82944e-05
-2.56257e-05
-1.56443e-05
-2.92065e-05
-2.16255e-05
-1.77307e-05
-2.37605e-05
-1.01602e-05
-2.67411e-05
-1.15951e-05
-3.10368e-05
-3.53885e-06
-5.02159e-06
-2.69672e-05
-7.76682e-07
-6.77732e-05
-1.42348e-06
-6.76743e-05
-2.9811e-06
-6.87449e-05
-3.83413e-06
-6.36345e-05
-6.58568e-06
-3.88032e-05
-4.91286e-06
-6.67478e-05