/*--------------------------------*- C++ -*----------------------------------*\
| =========                 |                                                 |
| \\      /  F ield         | foam-extend: Open Source CFD                    |
|  \\    /   O peration     | Version:     4.1                                |
|   \\  /    A nd           | Web:         http://www.foam-extend.org         |
|    \\/     M anipulation  |                                                 |
\*---------------------------------------------------------------------------*/
FoamFile
{
    version     2.0;
    format      ascii;
    class       volScalarField;
    location    "0.2";
    object      psi;
}
// * * * * * * * * * * * * * * * * * * * * * * * * * * * * * * * * * * * * * //

dimensions      [1 -1 -2 0 0 0 0];

internalField   nonuniform List<scalar> 
2268
(
-1.50067e-10
4.00179e-11
-1.45519e-10
-1.10049e-10
-8.36735e-11
-1.05501e-10
-1.81714e-09
-1.13023e-07
-4.6605e-06
-5.59658e-05
-0.000651331
-20.3555
-126.502
-114.429
-77.6522
-78.1925
-87.7536
-118.232
-531.952
-2560.41
-721.524
2690.77
2258.82
-5.45696e-11
4.27463e-11
-1.23691e-10
-1.27329e-10
-9.09495e-11
-5.91167e-11
-1.28055e-09
-6.96753e-08
-3.40952e-06
-0.000104272
-0.00668441
-207.401
-1184.14
-1224.46
-894.93
-612.873
-427.212
-419.99
-472.395
-929.553
-2839.6
1954.48
2192.99
-4.45652e-11
1.01864e-10
-4.27461e-11
-9.09493e-11
-6.0936e-11
-7.91258e-11
-8.70368e-10
-5.91461e-08
-3.6003e-06
-0.000147004
-0.0454065
-969.651
-2590.56
-2818.39
-2790.32
-1910.12
-1173.4
-1131.54
-1212.06
-2851.93
1212.5
2799.19
1648.65
-6.73027e-11
8.54925e-11
-6.73027e-11
-1.70076e-10
-1.30058e-10
-1.31877e-10
-7.84878e-10
-5.16974e-08
-3.37657e-06
-0.000143685
-0.0780387
-2311.2
2154.11
1328.05
1213.52
-621.332
-2854.37
-2244.98
-2566.38
236.239
2771.94
1922.72
1119.15
-2.27373e-11
1.19144e-10
-5.63887e-11
-8.91304e-11
-1.09139e-10
-1.2551e-10
-7.84882e-10
-4.00933e-08
-2.60469e-06
-0.000150842
-0.0537041
-525.351
-2517.21
2387.5
1670.43
329.787
-1163.93
-2791.13
-2854.35
-809.224
2002.53
2679.76
1244.54
-5.09318e-11
8.91307e-11
-4.63842e-11
-5.63885e-11
-7.91259e-11
-2.61931e-10
-7.97602e-10
-6.12929e-08
-7.04312e-06
-0.000236192
-0.0510986
-24.3581
-942.797
-2722.46
151.341
-2323.29
-2857.72
-2783.36
-2799.28
-2732.38
-1796.88
1769.21
2135.01
-6.91209e-11
-1.00036e-11
-8.91301e-11
-1.48246e-10
-1.41879e-10
-2.69389e-09
-5.64942e-09
-9.93652e-07
-6.29487e-05
-0.00110407
-0.0891133
-54.9301
-2155.5
-2819.92
-763.724
-2242.04
-2614.08
-2602.03
-2856.63
-2845.89
-2539.42
240.161
2780.59
-6.29349e-10
-7.18486e-10
-3.93804e-10
-1.25781e-09
-1.09319e-09
-3.12453e-08
-5.08872e-08
-1.61964e-05
-0.000454838
-0.00596623
-0.105118
-81.2477
-2728.46
859.432
1554.31
-470.392
-2538.69
1015.67
-654.386
-465.858
100.252
2704.39
2454.13
-5.27508e-11
-6.36926e-12
2.14611e-10
7.91166e-11
-6.91222e-11
-3.63799e-11
-2.27375e-11
-2.27375e-11
-6.91218e-11
-3.63799e-11
-2.63755e-11
-3.2742e-11
-9.91352e-11
-3.00135e-11
-5.91174e-11
-3.63807e-12
6.36633e-12
3.00135e-11
-4.00178e-11
2.45462e-11
1.97621e-09
2.19122e-08
6.91175e-09
3.18306e-10
4.45646e-11
5.09319e-11
6.09365e-11
6.27555e-11
5.72985e-11
6.63934e-11
9.73163e-11
6.9122e-11
9.27688e-11
6.91219e-11
6.73029e-11
9.91353e-11
-6.91219e-11
-3.63791e-12
7.03879e-09
8.75233e-08
8.93095e-07
3.05263e-07
1.22649e-08
5.6568e-10
-3.27431e-11
-9.91352e-11
-8.91308e-11
-6.91218e-11
-6.91218e-11
-4.63843e-11
-2.63753e-11
-2.27375e-11
-3.63799e-11
-4.27464e-11
-6.27554e-11
-2.27373e-11
-6.36648e-12
1.81416e-06
2.75607e-06
2.2396e-05
9.38677e-06
3.612e-07
1.75073e-08
6.91191e-10
-4.27474e-11
-3.27417e-11
-7.91261e-11
-6.27552e-11
-1.41881e-10
-1.19144e-10
-6.91216e-11
-8.91306e-11
-7.54882e-11
-3.63798e-11
-6.36644e-12
3.63805e-12
0.000446733
9.09147e-05
0.000395364
0.000197078
7.2518e-06
3.50116e-07
1.63468e-08
7.0211e-10
-5.27516e-11
-4.00177e-11
-2.63753e-11
-6.91215e-11
-1.01863e-10
-1.05501e-10
-6.91215e-11
-3.63797e-11
-3.00133e-11
-3.63795e-12
-3.63799e-11
0.0696729
0.00606195
0.00497921
0.00309367
0.00011915
5.94233e-06
2.7694e-07
1.28291e-08
4.28366e-10
-6.91219e-11
-4.00177e-11
-6.91216e-11
-6.91216e-11
-6.91215e-11
-8.91305e-11
-6.27552e-11
-7.91261e-11
-6.3665e-12
2.45564e-11
6.55025
0.430191
0.0535099
0.0377124
0.001697
8.95307e-05
4.01464e-06
1.45544e-07
3.12406e-09
5.63877e-11
-7.27597e-11
-5.63887e-11
-4.27462e-11
-6.63931e-11
-8.54926e-11
-3.63798e-11
-6.91217e-11
2.45564e-11
6.09362e-11
271.018
18.278
0.613005
0.359594
0.0232087
0.00130441
5.18066e-05
1.18076e-06
2.21033e-08
3.5741e-10
-3.63801e-11
-1.63709e-11
-2.63753e-11
-4.00177e-11
-4.91127e-11
1.00045e-11
-4.27463e-11
3.45609e-11
6.73027e-11
-2.56275e-08
-1.8649e-08
-8.25906e-09
-2.2017e-08
-1.60242e-08
-4.66042e-07
-5.60406e-07
-0.00031601
-0.0049785
-0.0570657
-0.311834
-4.25707
-156.724
-1924.7
-2429.42
-2461.74
-2851.84
-2857.59
-2856.58
-2804.68
-1953.34
-702.403
2560.56
-7.94936e-07
-5.21054e-07
-1.80674e-07
-3.38112e-07
-2.29488e-07
-6.77254e-06
-6.61724e-06
-0.00555793
-0.0632914
-0.688098
-1.85798
-30.8805
-188.691
-598.187
-1027.24
-1233.45
-1702.4
-2232.98
-2759.07
-2430.64
-899.194
-172.033
779.618
-2.67158e-05
-1.0061e-05
-3.15528e-06
-3.83099e-06
-3.3678e-06
-7.5254e-05
-7.00282e-05
-0.0656742
-0.58091
-6.25102
-11.7848
-93.9331
-884.425
-2538.21
-2837.76
-2843.4
-2391.55
-1790.23
-1648.98
45.5922
1219.02
1770.7
2177.63
-0.000602738
-0.000211668
-4.00952e-05
-3.78973e-05
-4.47056e-05
-0.000701612
-0.000664255
-0.621282
-4.44523
-46.0486
-61.6126
-303.936
-1693.23
-2807.23
-2134.59
-1511.27
-627.074
1020.13
2163.47
2820.29
2851.04
2754.9
2663.45
-0.00934014
-0.00298691
-0.000505002
-0.000283318
-0.000716127
-0.00522827
-0.00558951
-4.79602
-29.15
-215.573
-369.071
-583.443
-1978.23
-2828.66
-2312.81
-1802.88
-886.965
1118.01
2540.82
2857.1
2691.31
2472.47
2144.07
-0.106666
-0.0302135
-0.00434904
-0.00223764
-0.00743278
-0.0468839
-0.0499579
-26.4283
-166.899
-937.156
-1516.36
-1445.14
-2681.43
-2479.48
-2158.51
-1943.94
-1217.39
2094.86
2703.91
1998.7
1359.03
1101.59
742.761
-1.00955
-0.267724
-0.0340295
-0.017059
-0.0628191
-0.337934
-0.425938
-119.103
-713.363
-2570.86
-2853.66
-2661.45
-1015.2
2288.46
2442.77
1827.45
2357
2387.98
1690.06
1179.06
731.661
504.316
324.008
-8.09445
-2.03689
-0.227193
-0.119459
-0.451392
-2.03664
-3.44591
-454.452
-2122.29
-592.365
-85.8481
-2421.93
1996.09
2554.7
2032.02
2476.33
1743.37
576.823
198.03
66.5855
25.0761
12.2293
8.11169
-56.6557
-13.7379
-1.43888
-0.744524
-2.81601
-8.50881
-32.353
-1404.33
-2469.76
2827.77
2771.05
-901.945
2341.35
2276.85
1262.59
1133.78
615.172
219.685
65.5878
17.7734
5.79987
2.68672
4.33969
-332.855
-79.3505
-8.44566
-4.22358
-12.1152
-45.6958
-286.54
-2762.63
1825.48
2215.94
2640.08
627.012
2849.98
1660.69
778.633
584.09
298.752
168.355
63.2663
15.1081
3.30047
3.6968
10.9385
-1417.93
-358.147
-38.3879
-22.8106
-40.8188
-241.917
-1737.53
-617.947
2817.49
869.994
2354.19
1328.02
2591.15
499.797
200.75
206.071
88.6482
110.09
52.481
11.2965
4.2569
7.01546
25.8952
-2851.41
-1222.81
-138.964
-108.381
-124.53
-782.495
-2822.29
1137.96
2759.66
618.999
2275.51
1635.81
2339.54
272
40.5322
28.2357
12.0262
41.398
25.5643
21.4983
11.7802
10.664
34.9296
1103.44
-2674.61
-513.798
-507.588
-322.767
-1243.94
-2832.57
239.189
2844.15
620.057
2277.27
1850.14
2121.19
193.275
7.29038
3.26754
6.08318
14.9356
47.5899
85.5433
23.5596
5.35436
22.3666
2848.77
-1459.85
-1813.12
-1704.07
-649.866
-1672.36
-2375.58
-1571.78
2856.09
698.56
2630.13
-1466.07
2586.51
127.257
1.72236
3.13862
8.80948
12.7766
46.969
136.976
32.6577
2.16902
8.39476
2370.31
2444.87
-2820.89
-2799.91
-1714.01
-2630.84
-2845.38
-673.524
2520.11
104.364
747.535
1648.18
674.245
3.90255
0.779185
4.11319
15.1663
27.1292
29.3948
73.4959
12.9848
0.5363
1.12631
1968.25
2788.38
-1979.62
865.974
-2720.42
-2467.78
867.192
2209.94
167.914
7.69137
90.955
638.335
9.07658
0.81767
0.69558
4.18
16.6395
39.7123
53.8586
39.2214
4.91151
0.222884
0.19812
2037.26
2429.99
-928.041
2699.29
-1885.17
2537.69
1875.89
320.755
29.8142
2.02316
6.80444
20.3717
1.27548
0.375025
0.224591
1.0105
4.28334
12.4728
21.7483
20.7359
3.19935
0.102689
0.0372124
2154.64
2713.01
601.684
2782.61
1290.66
2048.25
478.247
108.314
24.6505
1.27104
0.526318
0.865782
0.273833
0.135825
0.0583971
0.121115
0.586539
1.78832
3.24792
4.13952
2.72653
0.0339116
0.00612905
1593.04
2116.02
579.602
2478.09
2801.48
1011.24
141.958
33.0687
6.65236
0.194663
0.041351
0.0496871
0.0769001
0.0413787
0.0111438
0.0062667
0.0491728
0.1949
0.454894
0.618551
0.235841
0.00642525
0.000802797
427.126
2299.2
2166.85
311.357
879.022
107.792
27.8168
6.931
2.23804
0.121011
0.00982213
0.00321688
0.00266157
0.00231206
0.00052792
0.000176027
0.000460384
0.00170339
0.00419184
0.00591339
0.00530327
0.0019277
6.90075e-05
19.2123
168.828
222.528
30.7739
58.3761
10.2639
4.34741
1.25588
1.29982
0.0922705
0.0083466
0.000581912
0.000173283
8.79609e-05
3.48214e-05
1.07902e-05
4.29792e-05
0.000149262
0.000584752
0.00140097
0.00184633
0.00107499
9.93126e-06
1.48614
2.64698
7.22048
0.806169
0.311596
0.274575
0.85438
0.253755
0.411356
0.0291139
0.0112031
0.000269285
2.40666e-06
1.18032e-06
6.2844e-07
2.3447e-07
1.35174e-06
8.52286e-06
4.4583e-05
0.000140165
0.00020509
0.000157858
1.2064e-06
0.387599
0.0644629
0.0150138
-0.000180784
0.00347156
0.0178587
0.107725
0.00712586
0.0276309
0.00258139
0.00045212
8.4203e-05
4.3468e-08
1.08101e-09
6.14624e-10
6.34183e-09
4.71496e-08
2.90396e-07
1.53595e-06
6.48533e-06
1.31781e-05
1.31205e-05
1.1029e-07
0.0651004
0.00696795
0.000946159
0.000192209
8.3197e-05
0.00123485
0.00722436
0.00100066
0.000433095
1.89316e-06
7.3126e-08
1.04988e-08
4.25627e-10
5.72977e-11
8.54923e-11
1.98268e-10
1.09593e-09
8.04348e-09
5.10504e-08
2.6487e-07
7.05914e-07
8.58019e-07
8.03692e-09
0.00298017
0.000871449
3.47684e-05
1.24091e-06
3.98495e-06
2.1417e-05
8.36031e-05
1.13041e-05
2.51915e-07
3.35629e-09
1.25144e-09
6.14815e-10
7.73068e-11
7.9126e-11
9.91349e-11
9.36779e-11
1.23691e-10
3.14683e-10
1.59888e-09
8.39274e-09
2.79877e-08
4.57237e-08
6.26626e-10
2.20161e-05
2.2299e-06
2.99917e-07
3.34235e-08
5.63218e-09
7.40581e-09
1.31238e-08
5.64051e-10
9.54195e-11
7.5487e-11
9.09491e-11
1.19144e-10
1.01863e-10
1.33696e-10
9.73159e-11
1.19144e-10
1.27329e-10
1.35515e-10
1.45519e-10
2.73755e-10
7.79429e-10
1.61252e-09
-1.36431e-11
2.10272e-07
4.56769e-08
5.68788e-09
7.99435e-10
1.35513e-10
5.91149e-11
8.54885e-11
8.27639e-11
7.45785e-11
9.73159e-11
1.11868e-10
1.10049e-10
7.5488e-11
5.63886e-11
8.0945e-11
1.35515e-10
5.72981e-11
7.09406e-11
9.3678e-11
3.45607e-11
1.18232e-11
1.45515e-11
-3.63798e-11
1.63703e-09
5.84791e-10
2.21005e-10
4.63839e-11
9.5497e-11
5.45696e-11
1.31877e-10
1.17325e-10
9.09495e-11
8.73115e-11
1.05501e-10
7.5488e-11
9.27685e-11
1.0732e-10
8.54925e-11
1.13687e-10
6.27551e-11
9.7316e-11
7.45786e-11
6.73026e-11
3.27418e-11
-3.63799e-11
2.45564e-11
1.54614e-10
5.63884e-11
1.58252e-10
6.73025e-11
1.20053e-10
1.19144e-10
1.33696e-10
1.2551e-10
8.0945e-11
1.10049e-10
8.91305e-11
8.91305e-11
1.03682e-10
1.19144e-10
7.7307e-11
9.36779e-11
1.00954e-10
8.91305e-11
5.45697e-11
6.63931e-11
1.81899e-11
2.18279e-11
1.45519e-11
1.36424e-10
7.45785e-11
1.8099e-10
1.36424e-10
7.9126e-11
1.31877e-10
1.13687e-10
1.13687e-10
1.35515e-10
1.09139e-10
1.0732e-10
1.10049e-10
9.3678e-11
6.73026e-11
6.09361e-11
9.91349e-11
1.15506e-10
7.27595e-11
7.27596e-11
5.72982e-11
1.63709e-11
-3.638e-12
1.81899e-11
1.03682e-10
9.09495e-11
1.20053e-10
1.46429e-10
3.45607e-11
7.45785e-11
1.40062e-10
1.48248e-10
7.7307e-11
7.45785e-11
1.33696e-10
9.91349e-11
1.00954e-10
1.33696e-10
7.5488e-11
1.11868e-10
1.31877e-10
1.05501e-10
7.09406e-11
5.27507e-11
4.63843e-11
-3.638e-12
7.45787e-11
1.09139e-10
8.36735e-11
1.03682e-10
1.21872e-10
7.54881e-11
5.91171e-11
1.09139e-10
1.23691e-10
1.0732e-10
1.19144e-10
1.03682e-10
1.10049e-10
7.9126e-11
1.13687e-10
7.5488e-11
1.01863e-10
1.0732e-10
1.19144e-10
8.54925e-11
9.3678e-11
4.00178e-11
-4.91128e-11
3.81988e-11
8.91305e-11
6.91216e-11
1.20053e-10
1.0732e-10
7.27595e-11
1.09139e-10
1.09139e-10
9.27684e-11
1.0732e-10
8.2764e-11
8.73115e-11
5.91171e-11
8.54925e-11
1.48248e-10
1.05501e-10
1.01863e-10
1.05501e-10
1.05501e-10
8.2764e-11
7.09406e-11
7.27596e-11
-2.27374e-11
2.00089e-11
1.21872e-10
3.63797e-11
1.03682e-10
1.28239e-10
1.27329e-10
1.46429e-10
8.0945e-11
1.45519e-10
1.05501e-10
8.91305e-11
1.2551e-10
7.09406e-11
9.54969e-11
1.11868e-10
1.00954e-10
1.10049e-10
7.9126e-11
1.46429e-10
6.91215e-11
1.09139e-10
4.09272e-11
-1.00044e-11
-5.63888e-11
1.70076e-10
5.91171e-11
1.01863e-10
8.91304e-11
1.60071e-10
1.40062e-10
8.91304e-11
1.6189e-10
1.35515e-10
1.40062e-10
1.09139e-10
1.10049e-10
1.33696e-10
5.72981e-11
1.11868e-10
9.27684e-11
9.36779e-11
9.09494e-11
9.3678e-11
6.27551e-11
3.27418e-11
2.18279e-11
6.45742e-11
1.89175e-10
3.09227e-11
8.36735e-11
6.73026e-11
1.17325e-10
6.63931e-11
9.36779e-11
1.40062e-10
1.10049e-10
1.45519e-10
8.54925e-11
1.27329e-10
1.03682e-10
8.91305e-11
1.20053e-10
9.27684e-11
1.35515e-10
9.54969e-11
1.28239e-10
9.27685e-11
9.09495e-11
1.81895e-12
1.36424e-11
1.94632e-10
4.09272e-11
1.10049e-10
9.3678e-11
1.20053e-10
3.45607e-11
1.38243e-10
1.48248e-10
1.36424e-10
1.09139e-10
1.11868e-10
5.91171e-11
8.91305e-11
8.2764e-11
1.11868e-10
1.45519e-10
1.38243e-10
5.45696e-11
7.27595e-11
1.01863e-10
7.45786e-11
1.81895e-12
5.45697e-11
1.56433e-10
6.73026e-11
1.48248e-10
8.54925e-11
1.2551e-10
6.09361e-11
1.10049e-10
1.05501e-10
1.33696e-10
1.35515e-10
7.45785e-11
7.27596e-11
7.7307e-11
1.28239e-10
1.09139e-10
1.41881e-10
1.11868e-10
1.41881e-10
1.10049e-10
1.45519e-10
7.27596e-11
1.36424e-11
3.09228e-11
1.36424e-10
3.63797e-11
1.33696e-10
7.45786e-11
8.73115e-11
5.45697e-11
1.13687e-10
8.0945e-11
6.63931e-11
1.60071e-10
6.09361e-11
1.36424e-10
7.27596e-11
8.36735e-11
4.82032e-11
5.63886e-11
1.437e-10
1.23691e-10
7.09405e-11
1.03682e-10
1.05501e-10
-2.0009e-11
5.72982e-11
3.09228e-11
-1.00045e-11
4.54746e-12
-3.00134e-11
1.00044e-11
1.18234e-11
1.81896e-12
3.45608e-11
2.63753e-11
8.36736e-11
5.63887e-11
1.81899e-11
1.18234e-11
-3.63798e-12
-1.36424e-11
2.00089e-11
8.91305e-11
7.27596e-11
1.33696e-10
1.20053e-10
1.40062e-10
1.36424e-11
2.18279e-11
1.45519e-11
-4.91128e-11
-3.63798e-11
-1.15506e-10
-4.00178e-11
-2.00089e-11
-6.91216e-11
-1.09139e-10
-3.00133e-11
-7.27596e-11
-2.63754e-11
-6.91216e-11
-6.91216e-11
-8.54926e-11
-5.63887e-11
-1.36424e-11
-3.27419e-11
-2.27374e-11
-6.36648e-12
-4.27463e-11
6.3664e-12
1.10049e-10
6.91216e-11
5.45697e-11
-2.27374e-11
-2.27373e-11
-1.01863e-10
-2.27374e-11
1.63709e-11
-3.63793e-12
-1.01863e-10
3.00134e-11
-7.91261e-11
8.18551e-12
-6.27552e-11
-5.91172e-11
-3.63792e-12
-6.63932e-11
3.63801e-12
-1.63709e-11
-4.63843e-11
-2.27374e-11
-3.27418e-11
1.63709e-11
1.36424e-10
9.09495e-11
2198.1
2089.72
2151.16
2483.01
1514.57
1913.65
2313.15
2656.14
2425.84
2654.78
2838.16
2776.46
2474.03
2214.92
1967.36
1631.06
1884.42
1699.63
1533.77
1356.03
544.19
435.15
346.389
263.719
263.543
231.651
200.712
153.316
8.57474
9.09712
9.9497
11.1688
4.97513
5.50715
6.04114
6.87025
14.6656
18.4244
18.9702
19.1542
37.2923
42.6962
49.7023
54.7448
47.3932
53.143
58.8269
63.0543
38.4757
43.42
47.105
48.6379
16.4003
19.303
21.2588
22.0203
3.37597
4.44849
4.98641
5.0416
0.724417
0.957527
1.04658
1.04942
0.102364
0.135447
0.15166
0.159688
0.0101127
0.0136898
0.0155788
0.0188108
0.000806082
0.00111022
0.00129567
0.00161437
7.13027e-05
0.000106289
0.000125456
0.000135756
3.85296e-06
5.73245e-06
6.51064e-06
6.41669e-06
1.47895e-07
2.31376e-07
2.79048e-07
2.3478e-07
5.16488e-09
7.65151e-09
9.14307e-09
7.44324e-09
1.03674e-10
1.82806e-10
2.81941e-10
2.71937e-10
1.45513e-11
3.45608e-11
1.18233e-11
3.63797e-11
-3.00134e-11
3.45609e-11
-1.05671e-16
5.27508e-11
-5.91173e-11
1.45521e-11
-6.27553e-11
-5.63888e-11
-2.27375e-11
8.18552e-12
-1.36424e-11
-1.00045e-11
1.18234e-11
2.18279e-11
-1.6371e-11
2.27374e-11
-2.27375e-11
2.0009e-11
-1.00045e-11
1.63709e-11
-1.36425e-11
-2.00089e-11
-6.36652e-12
5.91173e-11
-1.36425e-11
-1.00044e-11
-5.91173e-11
-1.00044e-11
3.00133e-11
4.63844e-11
-1.6371e-11
-1.36425e-11
-3.00134e-11
2.27375e-11
-1.00044e-11
-2.27374e-11
8.18543e-12
3.63809e-12
-8.91307e-11
-8.54926e-11
-3.27419e-11
1.18236e-11
-4.63844e-11
1.18235e-11
2.18279e-11
2.45565e-11
-5.91174e-11
1.18235e-11
1.63709e-11
3.2742e-11
-5.27509e-11
-1.36424e-11
-1.00045e-11
8.18558e-12
-7.27598e-11
9.99378e-17
-9.91352e-11
1.81916e-12
-2.63752e-11
-1.0914e-10
1.00044e-11
3.0923e-11
-5.6389e-11
1.05502e-10
1.01864e-10
-1.63711e-11
-2.27373e-11
-6.91217e-11
2223.51
128.359
4.11382
3.9276
0.507294
0.0357368
0.00162621
4.48401e-05
9.57622e-07
1.85332e-08
3.01942e-10
4.45651e-11
-3.63798e-12
-2.27374e-11
6.36649e-12
1.81899e-12
-3.27418e-11
-3.63801e-12
3.27418e-11
2772.55
1563.1
487.688
93.1918
9.66495
0.889216
0.0477486
0.00163418
4.38459e-05
9.75709e-07
1.8888e-08
3.11949e-10
2.45562e-11
2.18279e-11
1.18234e-11
1.36424e-11
-2.63754e-11
5.09318e-11
1.45519e-11
2347.47
1506.83
714.791
259.399
72.2661
10.7499
0.802131
0.0358279
0.00119094
3.1573e-05
6.03602e-07
9.21848e-09
1.71892e-10
1.63708e-11
4.63843e-11
3.63794e-12
4.63843e-11
-4.34929e-17
5.45697e-11
1324.95
1069.91
655.472
282.446
86.1336
15.7066
1.6234
0.109081
0.00499305
0.000152562
3.55421e-06
6.35819e-08
9.45859e-10
7.91258e-11
3.45608e-11
3.63798e-11
5.27507e-11
8.18542e-12
7.09406e-11
1078.3
907.797
656.376
315.297
104.323
22.4081
2.67767
0.198455
0.0101202
0.000366159
9.48944e-06
1.83671e-07
2.72389e-09
1.20053e-10
7.09406e-11
8.36735e-11
7.27596e-11
3.45608e-11
6.63931e-11
264.029
480.257
507.62
362.891
151.633
37.6167
5.70765
0.472893
0.0243894
0.000848833
2.13542e-05
4.07148e-07
6.07806e-09
1.51884e-10
6.45741e-11
1.33696e-10
9.3678e-11
-6.91217e-11
2.63754e-11
129.345
224.191
342.803
272.755
122.529
29.5101
4.31227
0.349622
0.0175966
0.000601153
1.49705e-05
2.85517e-07
4.2982e-09
8.73104e-11
6.45741e-11
5.91171e-11
1.20053e-10
1.36424e-11
1.36424e-11
22.5058
119.816
250.473
195.284
72.9665
13.9429
1.63839
0.121159
0.00608787
0.000217215
5.76341e-06
1.169e-07
1.91355e-09
7.73066e-11
8.0945e-11
7.73071e-11
7.91261e-11
1.00044e-11
5.63887e-11
23.239
124.611
193.146
135.897
32.3743
4.59489
0.476302
0.0344096
0.00175647
6.423e-05
1.7351e-06
3.60083e-08
6.36637e-10
2.81942e-11
4.00177e-11
3.00133e-11
4.27462e-11
-1.00045e-11
4.00178e-11
39.1156
123.243
150.771
76.9799
13.1708
1.56491
0.148836
0.0098637
0.000490986
1.74273e-05
4.48486e-07
8.7856e-09
1.48245e-10
5.91171e-11
9.27685e-11
6.63931e-11
6.45742e-11
-3.638e-12
6.91216e-11
75.7602
111.155
103.324
35.3611
5.3931
0.565249
0.0445981
0.00246902
0.000104692
3.30726e-06
7.71143e-08
1.56977e-09
1.10048e-10
9.09495e-11
6.45741e-11
5.63887e-11
4.82032e-11
-3.00134e-11
6.45741e-11
70.191
81.8232
50.2858
13.5778
1.91765
0.183411
0.0125166
0.000687944
2.2417e-05
5.96732e-07
1.1675e-08
3.03768e-10
6.45741e-11
6.45741e-11
7.91261e-11
4.00177e-11
6.27552e-11
1.00044e-11
6.91216e-11
48.5705
36.0817
17.2042
4.00631
0.511478
0.0445262
0.00256763
0.000131639
4.46902e-06
1.20461e-07
2.5702e-09
8.73108e-11
3.81987e-11
6.09361e-11
6.27551e-11
5.72982e-11
4.63842e-11
1.36424e-11
4.54744e-12
19.5125
11.8875
4.71571
0.963466
0.105457
0.00823342
0.000404572
1.83052e-05
5.98519e-07
1.61952e-08
4.01992e-10
6.4574e-11
7.09406e-11
9.9135e-11
5.72981e-11
8.54925e-11
6.45742e-11
-1.00045e-11
2.81943e-11
3.83203
2.48425
0.807362
0.156838
0.0155708
0.00112758
4.92797e-05
2.00634e-06
5.6991e-08
1.49883e-09
7.45781e-11
6.63931e-11
5.45697e-11
9.5497e-11
6.91216e-11
5.09317e-11
3.63798e-11
-1.00045e-11
6.27552e-11
0.718302
0.437231
0.112282
0.0213364
0.00187699
0.000125045
4.88605e-06
1.79918e-07
4.63564e-09
1.7826e-10
4.63842e-11
7.45786e-11
9.09495e-11
1.09139e-10
3.00133e-11
6.45741e-11
3.09228e-11
6.36647e-12
3.00133e-11
0.105076
0.0581812
0.0121136
0.00231139
0.000187247
1.14631e-05
4.10849e-07
1.36668e-08
4.25639e-10
4.91126e-11
6.73026e-11
4.82032e-11
7.09406e-11
5.63886e-11
4.82032e-11
5.72982e-11
7.27596e-11
-4.63843e-11
7.54881e-11
0.012143
0.0060598
0.00103271
0.000187396
1.51686e-05
8.70359e-07
2.97302e-08
9.79515e-10
1.09139e-10
9.27685e-11
4.27462e-11
7.54881e-11
1.03682e-10
1.09139e-10
1.21872e-10
7.09406e-11
7.27596e-11
-2.63754e-11
1.01863e-10
0.00107651
0.000469976
9.09548e-05
1.23436e-05
8.72248e-07
5.43473e-08
1.8599e-09
1.11867e-10
4.09272e-11
5.91171e-11
7.91261e-11
5.45697e-11
9.09495e-11
9.73159e-11
1.31877e-10
3.45608e-11
4.09273e-11
-3.27419e-11
1.11868e-10
8.89182e-05
2.98116e-05
5.24142e-06
6.30115e-07
4.90669e-08
3.04678e-09
1.40061e-10
5.72981e-11
6.45741e-11
5.27507e-11
1.0732e-10
7.9126e-11
8.91305e-11
7.45786e-11
4.63842e-11
4.45652e-11
1.81899e-11
8.18541e-12
1.38243e-10
3.70934e-06
1.56191e-06
2.55411e-07
3.53573e-08
2.48472e-09
1.58251e-10
1.63708e-11
9.09495e-11
1.38243e-10
2.00088e-11
1.03682e-10
4.09272e-11
1.01863e-10
7.45786e-11
-3.63805e-12
9.09495e-11
6.73026e-11
6.09362e-11
1.28239e-10
1.4767e-07
7.10838e-08
1.08793e-08
1.75531e-09
1.70074e-10
7.9126e-11
6.45741e-11
4.45652e-11
7.7307e-11
1.03682e-10
6.91216e-11
4.45652e-11
9.09495e-11
6.91216e-11
4.63842e-11
7.73071e-11
7.73071e-11
3.63794e-12
1.05501e-10
5.36598e-09
2.90945e-09
4.9749e-10
1.41881e-10
3.63797e-11
5.09317e-11
1.11868e-10
3.27418e-11
4.91127e-11
8.0945e-11
5.72982e-11
5.63887e-11
1.13687e-10
1.27329e-10
5.72981e-11
3.81987e-11
9.7316e-11
-6.63932e-11
3.45608e-11
2.33739e-10
1.84627e-10
8.09449e-11
5.09317e-11
9.7316e-11
1.10049e-10
7.45785e-11
6.09361e-11
8.2764e-11
6.09361e-11
6.63931e-11
8.91305e-11
9.09495e-11
7.54881e-11
8.54925e-11
5.63887e-11
8.27641e-11
-4.91128e-11
6.09362e-11
3.09227e-11
5.91171e-11
1.03682e-10
7.09406e-11
5.27507e-11
1.19144e-10
8.2764e-11
9.27685e-11
8.36736e-11
8.2764e-11
8.91305e-11
7.27596e-11
6.09361e-11
3.63798e-11
5.63887e-11
5.63887e-11
7.91261e-11
8.18543e-12
4.45652e-11
6.63931e-11
1.17325e-10
1.11868e-10
7.09406e-11
5.91172e-11
6.09361e-11
1.03682e-10
5.63887e-11
-4.63843e-11
3.09228e-11
6.63931e-11
2.45563e-11
6.45741e-11
1.81898e-11
5.72982e-11
9.91349e-11
7.5488e-11
4.63842e-11
7.27596e-11
3.27418e-11
1.17325e-10
1.41881e-10
5.72982e-11
8.18541e-12
2.00088e-11
7.73071e-11
3.81988e-11
2.18279e-11
1.36424e-11
2.00088e-11
4.45652e-11
9.9135e-11
9.3678e-11
9.27685e-11
1.0732e-10
1.28239e-10
2.00088e-11
9.27685e-11
2.00089e-11
3.63797e-11
9.27685e-11
4.09272e-11
5.63887e-11
5.27507e-11
5.45697e-11
7.09406e-11
4.00178e-11
4.63842e-11
8.36736e-11
4.09272e-11
7.09406e-11
8.2764e-11
4.82032e-11
8.2764e-11
1.19144e-10
-3.63799e-11
7.45786e-11
4.91127e-11
7.09406e-11
4.91127e-11
7.54881e-11
9.7316e-11
1.00954e-10
3.00133e-11
8.91305e-11
5.27507e-11
5.45697e-11
6.09361e-11
5.72982e-11
5.91172e-11
1.20053e-10
4.82032e-11
2.81943e-11
5.91172e-11
-2.27374e-11
8.36735e-11
5.09317e-11
1.00044e-11
2.18278e-11
6.27552e-11
5.63887e-11
5.63887e-11
6.73026e-11
3.81987e-11
7.27596e-11
4.63842e-11
4.00177e-11
8.09451e-11
1.18234e-11
7.27596e-11
1.00954e-10
2.27373e-11
6.63931e-11
1.63709e-11
8.0945e-11
6.27552e-11
1.18234e-11
5.45697e-11
2.00089e-11
1.45519e-11
2.45563e-11
1.45519e-11
3.27418e-11
8.36735e-11
9.91349e-11
7.09406e-11
4.45652e-11
2.81943e-11
8.2764e-11
1.11868e-10
7.09406e-11
7.45786e-11
3.09228e-11
7.9126e-11
3.09228e-11
6.91216e-11
1.21872e-10
3.00133e-11
4.82032e-11
8.91305e-11
4.45652e-11
6.63931e-11
8.0945e-11
1.38243e-10
7.45786e-11
5.27507e-11
7.73071e-11
6.09361e-11
5.27507e-11
1.15506e-10
8.73115e-11
4.91127e-11
9.91349e-11
3.09229e-11
-1.00045e-11
6.63931e-11
4.63842e-11
9.5497e-11
6.73026e-11
5.91172e-11
3.27418e-11
4.27462e-11
5.91171e-11
4.45652e-11
4.00177e-11
7.54881e-11
6.73026e-11
5.63886e-11
4.45652e-11
5.27507e-11
-3.63803e-12
8.0945e-11
-2.13596e-17
4.27463e-11
5.72982e-11
3.00133e-11
-4.00178e-11
3.27418e-11
4.09272e-11
8.2764e-11
6.27551e-11
1.00954e-10
7.27596e-11
9.5497e-11
5.27507e-11
6.91216e-11
1.40062e-10
2.27373e-11
8.73116e-11
-2.00089e-11
8.73115e-11
3.00134e-11
8.73115e-11
5.91171e-11
6.27552e-11
-2.63754e-11
3.63798e-11
6.73026e-11
8.91305e-11
2.81943e-11
6.09361e-11
1.30058e-10
3.45607e-11
9.7316e-11
5.63886e-11
1.15506e-10
6.91216e-11
6.91216e-11
-3.63799e-11
7.91261e-11
2.63754e-11
3.00133e-11
8.36736e-11
6.27551e-11
5.63887e-11
9.09495e-11
1.17325e-10
9.5497e-11
7.27596e-11
1.36424e-11
6.73026e-11
6.63931e-11
4.27462e-11
4.63842e-11
8.36735e-11
6.27551e-11
6.45741e-11
1.45519e-11
6.27551e-11
1.36424e-11
1.18234e-11
4.00178e-11
7.73071e-11
1.05501e-10
1.15506e-10
6.63931e-11
6.09361e-11
6.91216e-11
4.54743e-12
4.91127e-11
6.27551e-11
6.91216e-11
3.81988e-11
4.82032e-11
5.09317e-11
1.09139e-10
-4.27463e-11
7.45786e-11
4.09273e-11
4.27463e-11
2.27373e-11
5.27507e-11
4.09272e-11
6.27551e-11
-5.01642e-17
3.63798e-11
6.73026e-11
6.27551e-11
7.45786e-11
6.09361e-11
5.63887e-11
5.72982e-11
5.63887e-11
3.27418e-11
6.27552e-11
-4.63843e-11
5.09317e-11
4.63843e-11
2.45563e-11
5.09317e-11
2.00089e-11
2.27373e-11
1.21872e-10
1.63708e-11
7.73071e-11
-1.00045e-11
6.63931e-11
6.73026e-11
1.19144e-10
4.09272e-11
4.00177e-11
8.0945e-11
7.91261e-11
2.81943e-11
-6.36647e-12
2.81943e-11
1.36424e-11
3.81988e-11
4.63843e-11
3.63798e-11
1.00954e-10
8.73115e-11
7.91261e-11
1.05501e-10
1.81896e-12
6.63931e-11
6.27551e-11
1.01863e-10
4.91127e-11
9.27686e-11
7.73071e-11
8.91305e-11
8.27641e-11
1.00044e-11
8.91305e-11
3.45608e-11
3.63798e-11
-6.27552e-11
-4.63843e-11
-2.0009e-11
2.45564e-11
-1.38243e-10
-2.27374e-11
-1.36424e-11
4.54745e-12
-2.00089e-11
-3.63799e-11
2.45564e-11
-1.0914e-10
-3.00134e-11
-7.91262e-11
3.00133e-11
6.36644e-12
8.18544e-12
-4.91128e-11
5.91172e-11
3.45608e-11
3.27418e-11
8.09451e-11
5.72982e-11
1.63709e-11
3.81988e-11
2.00089e-11
6.73026e-11
6.27552e-11
5.45697e-11
1.0732e-10
4.00178e-11
6.73027e-11
3.00133e-11
5.45697e-11
4.27463e-11
-3.00134e-11
)
;

boundaryField
{
    leftWall
    {
        type            zeroGradient;
    }
    rightWall
    {
        type            zeroGradient;
    }
    lowerWall
    {
        type            zeroGradient;
    }
    atmosphere
    {
        type            zeroGradient;
    }
    defaultFaces
    {
        type            empty;
    }
}


// ************************************************************************* //
