/*--------------------------------*- C++ -*----------------------------------*\
| =========                 |                                                 |
| \\      /  F ield         | foam-extend: Open Source CFD                    |
|  \\    /   O peration     | Version:     4.1                                |
|   \\  /    A nd           | Web:         http://www.foam-extend.org         |
|    \\/     M anipulation  |                                                 |
\*---------------------------------------------------------------------------*/
FoamFile
{
    version     2.0;
    format      ascii;
    class       volVectorField;
    location    "0.2";
    object      U;
}
// * * * * * * * * * * * * * * * * * * * * * * * * * * * * * * * * * * * * * //

dimensions      [0 1 -1 0 0 0 0];

internalField   nonuniform List<vector> 
2268
(
(0.000891283 -0.0107789 0)
(0.063838 -0.00801313 0)
(0.111988 -0.00841144 0)
(0.200091 -0.00936493 0)
(0.249135 -0.00766992 0)
(0.360666 -0.0148212 0)
(0.435341 0.000141863 0)
(0.475397 -0.017149 0)
(0.735466 -0.013581 0)
(0.703238 -0.0535098 0)
(0.691243 -0.0180064 0)
(0.835455 -0.0590717 0)
(1.22409 -0.0125164 0)
(1.27577 0.0106572 0)
(1.49528 0.176662 0)
(1.86655 -0.0660354 0)
(1.84955 -0.0147648 0)
(1.63499 0.190015 0)
(0.991774 0.266781 0)
(0.730268 -0.0901546 0)
(0.463168 -0.00448834 0)
(0.374683 -0.0466777 0)
(0.317626 0.0173679 0)
(0.00251939 -0.0185081 0)
(0.065664 -0.0190678 0)
(0.112047 -0.02239 0)
(0.200239 -0.0248487 0)
(0.250179 -0.0282868 0)
(0.361198 -0.0334061 0)
(0.435162 -0.0492322 0)
(0.478533 -0.0598027 0)
(0.738059 -0.0568946 0)
(0.68601 -0.208513 0)
(0.695113 -0.150066 0)
(0.833878 -0.258183 0)
(1.16081 -0.215761 0)
(1.16216 -0.13794 0)
(1.36147 0.153423 0)
(1.61088 0.047815 0)
(1.82558 0.0535556 0)
(1.61658 -0.0196707 0)
(1.28014 0.167548 0)
(1.09976 0.00727877 0)
(0.850295 0.109861 0)
(0.822942 0.157336 0)
(0.737594 0.291512 0)
(0.00259932 -0.04406 0)
(0.0631302 -0.0351761 0)
(0.110027 -0.0393738 0)
(0.197147 -0.0438533 0)
(0.247542 -0.0441966 0)
(0.345456 -0.0580882 0)
(0.435656 -0.0459806 0)
(0.486961 -0.100194 0)
(0.67234 -0.0744853 0)
(0.629358 -0.250799 0)
(0.67245 -0.215296 0)
(0.620483 -0.356258 0)
(0.61893 -0.324799 0)
(0.591828 -0.0910105 0)
(0.875232 -0.000685202 0)
(1.639 0.238381 0)
(1.74832 0.137808 0)
(1.38507 -0.112392 0)
(0.929363 0.166333 0)
(0.525456 0.11578 0)
(0.543652 0.174598 0)
(0.612184 0.293878 0)
(0.479547 0.476457 0)
(0.0083213 -0.0445309 0)
(0.0714184 -0.0449772 0)
(0.108851 -0.0521294 0)
(0.194877 -0.0589668 0)
(0.248487 -0.0608493 0)
(0.364487 -0.0860017 0)
(0.440264 -0.0322532 0)
(0.482246 -0.117179 0)
(0.627777 -0.106471 0)
(0.581015 -0.223883 0)
(0.592117 -0.184255 0)
(0.293714 -0.270941 0)
(-0.301504 -0.0566104 0)
(0.526612 0.0877509 0)
(0.519869 -0.0642898 0)
(0.979508 0.103303 0)
(1.30703 0.0644546 0)
(1.15108 0.100633 0)
(0.461146 0.168539 0)
(0.156582 0.160751 0)
(0.110297 0.264217 0)
(0.132149 0.431001 0)
(-0.118268 0.622301 0)
(0.00489135 -0.0882174 0)
(0.0652639 -0.0615938 0)
(0.103481 -0.0682099 0)
(0.189439 -0.0792652 0)
(0.243334 -0.0842109 0)
(0.386366 -0.105517 0)
(0.398208 -0.0786503 0)
(0.453057 -0.150746 0)
(0.576198 -0.0818005 0)
(0.566875 -0.222533 0)
(0.593142 -0.229516 0)
(0.452841 -0.106635 0)
(0.492254 -0.232891 0)
(0.57711 -0.372339 0)
(0.471487 -0.260763 0)
(0.633304 0.0832775 0)
(0.612648 0.0302939 0)
(0.661316 0.12262 0)
(0.463153 0.292442 0)
(0.272146 0.242801 0)
(0.227853 0.328891 0)
(0.165092 0.461843 0)
(-0.129401 0.580675 0)
(0.0220109 -0.065764 0)
(0.0774711 -0.0683357 0)
(0.102532 -0.0793201 0)
(0.184263 -0.092691 0)
(0.234636 -0.106654 0)
(0.370946 -0.125749 0)
(0.368734 -0.152255 0)
(0.44259 -0.178537 0)
(0.529198 -0.152737 0)
(0.484312 -0.238696 0)
(0.584891 -0.3276 0)
(0.698434 -0.267329 0)
(1.03922 -0.210048 0)
(0.998466 -0.00759764 0)
(0.556601 -0.0442617 0)
(-0.319356 0.185982 0)
(0.0783405 0.0553374 0)
(0.470578 0.169337 0)
(0.579159 0.578388 0)
(0.6501 0.529362 0)
(0.615454 0.454397 0)
(0.591608 0.406042 0)
(0.568761 0.602912 0)
(0.00709621 -0.044556 0)
(0.0622226 -0.0848693 0)
(0.0901197 -0.0933666 0)
(0.176445 -0.114988 0)
(0.221908 -0.127554 0)
(0.335561 -0.142373 0)
(0.336046 -0.141358 0)
(0.45785 -0.214219 0)
(0.505625 -0.288327 0)
(0.453984 -0.276482 0)
(0.559461 -0.290582 0)
(0.703079 -0.437118 0)
(0.822524 -0.356534 0)
(1.33511 0.0237933 0)
(0.856448 0.0740403 0)
(-0.529745 0.249899 0)
(0.186319 -0.247253 0)
(0.142528 -0.201905 0)
(0.502692 0.371302 0)
(0.782659 0.377262 0)
(0.917069 0.414523 0)
(0.853919 0.479396 0)
(0.901436 1.14204 0)
(0.00133431 -0.0771401 0)
(0.058846 -0.0826308 0)
(0.0832382 -0.103845 0)
(0.162422 -0.120788 0)
(0.207583 -0.140621 0)
(0.325371 -0.155741 0)
(0.302134 -0.214412 0)
(0.373422 -0.195978 0)
(0.474218 -0.309444 0)
(0.464645 -0.278413 0)
(0.567286 -0.27295 0)
(0.543943 -0.412607 0)
(0.269798 -0.283452 0)
(0.519859 0.203467 0)
(0.184296 0.309184 0)
(-0.666788 0.441854 0)
(0.896682 -0.465569 0)
(-0.0045902 0.0682933 0)
(0.237021 0.056172 0)
(0.441024 0.165017 0)
(0.658508 0.434661 0)
(0.590262 0.549268 0)
(0.534892 1.50367 0)
(0.0082193 -0.00806515 0)
(0.0385327 -0.0148812 0)
(0.0570305 -0.00684841 0)
(0.106555 -0.00727063 0)
(0.126896 -0.00900104 0)
(0.150801 -0.00363857 0)
(0.18999 -0.0081356 0)
(0.204686 -0.00734957 0)
(0.224876 -0.00412024 0)
(0.236303 -0.00244298 0)
(0.236283 -0.00605358 0)
(0.265109 -0.0230947 0)
(0.303612 0.0337938 0)
(0.279757 0.00613682 0)
(0.20046 0.0068633 0)
(0.156413 0.0051198 0)
(0.10737 0.00480029 0)
(0.0646549 0.00456612 0)
(0.0206532 0.00446963 0)
(0.00685687 -0.0256306 0)
(0.0378849 -0.0221383 0)
(0.0629797 -0.0219772 0)
(0.11212 -0.0216208 0)
(0.137209 -0.0281458 0)
(0.161463 -0.0294486 0)
(0.200077 -0.0312198 0)
(0.219268 -0.0266751 0)
(0.240769 -0.0134558 0)
(0.248886 -0.000977509 0)
(0.240439 -0.00708703 0)
(0.292015 -0.00463667 0)
(0.346323 0.0696718 0)
(0.279676 0.0203774 0)
(0.210391 0.0188665 0)
(0.163879 0.0155329 0)
(0.112833 0.0149258 0)
(0.0678788 0.0143117 0)
(0.0217093 0.0140137 0)
(0.0133845 -0.0285645 0)
(0.0394735 -0.0425963 0)
(0.0610537 -0.0397746 0)
(0.107419 -0.0341541 0)
(0.130378 -0.0505847 0)
(0.160978 -0.0245142 0)
(0.201845 -0.0512546 0)
(0.22492 -0.0452141 0)
(0.250752 -0.0227457 0)
(0.250748 -0.00388232 0)
(0.253076 -0.029994 0)
(0.297669 0.0901268 0)
(0.339691 0.0563032 0)
(0.279575 0.0339591 0)
(0.213235 0.031875 0)
(0.164023 0.0265576 0)
(0.112933 0.0253795 0)
(0.0678558 0.0243105 0)
(0.0217171 0.0237918 0)
(0.00934877 -0.0393293 0)
(0.0406364 -0.0654971 0)
(0.0681498 -0.0466129 0)
(0.0995843 -0.055435 0)
(0.135816 -0.0760583 0)
(0.161146 -0.0800179 0)
(0.189926 -0.0772513 0)
(0.232022 -0.0717844 0)
(0.260298 -0.0266926 0)
(0.240991 0.00519732 0)
(0.289491 -0.00164338 0)
(0.342475 0.136559 0)
(0.328201 0.0713237 0)
(0.260838 0.0478992 0)
(0.209572 0.0435875 0)
(0.161874 0.0374371 0)
(0.112286 0.0355994 0)
(0.0674839 0.034153 0)
(0.0216335 0.0334156 0)
(0.019051 -0.0335606 0)
(0.0745528 -0.0884977 0)
(0.0750467 -0.0379189 0)
(0.0812183 -0.0775366 0)
(0.111101 -0.114405 0)
(0.159566 -0.145411 0)
(0.200137 -0.111957 0)
(0.250141 -0.110189 0)
(0.275215 -0.0221543 0)
(0.263687 -0.0187628 0)
(0.288746 0.0937252 0)
(0.346551 0.106105 0)
(0.321097 0.0744729 0)
(0.260309 0.0598058 0)
(0.207427 0.0534559 0)
(0.160515 0.0478113 0)
(0.111574 0.0456874 0)
(0.0670454 0.0439832 0)
(0.0215181 0.0430508 0)
(0.033731 -0.0256568 0)
(0.12201 -0.140654 0)
(0.0950405 -0.0234086 0)
(0.0498044 -0.0855866 0)
(0.0913265 -0.155934 0)
(0.161138 -0.165634 0)
(0.197874 -0.139823 0)
(0.275598 -0.113723 0)
(0.289442 -0.0284904 0)
(0.297167 0.00452338 0)
(0.345025 0.140408 0)
(0.332867 0.124067 0)
(0.306116 0.0862431 0)
(0.254558 0.0735016 0)
(0.204878 0.0646348 0)
(0.158634 0.0583557 0)
(0.110679 0.0557179 0)
(0.066499 0.0537345 0)
(0.0213786 0.0525959 0)
(0.233193 -0.190882 0)
(0.176886 -0.166562 0)
(0.109018 -0.0356779 0)
(0.0165713 -0.0686165 0)
(0.0620468 -0.231719 0)
(0.161268 -0.243573 0)
(0.213662 -0.203177 0)
(0.295012 -0.0731121 0)
(0.340815 -0.0156195 0)
(0.312778 0.086009 0)
(0.348123 0.117328 0)
(0.329878 0.122091 0)
(0.296921 0.0927318 0)
(0.250494 0.0815597 0)
(0.200984 0.0741169 0)
(0.156754 0.0683496 0)
(0.109619 0.0655343 0)
(0.0658824 0.0633693 0)
(0.0212056 0.0620581 0)
(0.643456 -0.431313 0)
(0.274273 -0.173382 0)
(0.128977 0.244504 0)
(-0.0325001 -0.0635704 0)
(0.00607053 -0.275543 0)
(0.174646 -0.290984 0)
(0.271241 -0.238457 0)
(0.345547 -0.0555775 0)
(0.350773 -0.0211482 0)
(0.3377 0.0809424 0)
(0.358019 0.119152 0)
(0.321419 0.149092 0)
(0.294241 0.104183 0)
(0.249177 0.0958462 0)
(0.198901 0.0848637 0)
(0.154945 0.0785515 0)
(0.10857 0.0755291 0)
(0.0652184 0.0731661 0)
(0.0210242 0.0716593 0)
(0.0053234 -0.0681503 0)
(0.0521143 -0.10721 0)
(0.0569384 -0.122836 0)
(0.132666 -0.168378 0)
(0.191086 -0.202702 0)
(0.262096 -0.197482 0)
(0.311817 -0.267474 0)
(0.372979 -0.227829 0)
(0.465895 -0.317095 0)
(0.490246 -0.320554 0)
(0.568293 -0.306787 0)
(0.566624 -0.301402 0)
(0.522363 -0.348046 0)
(0.650979 0.112321 0)
(1.49898 0.297865 0)
(1.34426 0.162681 0)
(1.12567 -0.325937 0)
(1.1278 -0.11909 0)
(1.25148 -0.142107 0)
(1.41522 -0.0354479 0)
(1.31874 0.247992 0)
(1.77065 0.483709 0)
(1.97117 1.27919 0)
(-0.0388754 -0.141838 0)
(0.0195396 -0.115958 0)
(0.0520499 -0.176753 0)
(0.104926 -0.257549 0)
(0.168739 -0.209054 0)
(0.281611 -0.260911 0)
(0.306025 -0.270593 0)
(0.355949 -0.315673 0)
(0.519353 -0.371715 0)
(0.554416 -0.375656 0)
(0.668144 -0.252108 0)
(0.610173 -0.267795 0)
(0.605667 -0.261487 0)
(0.696578 -0.00970981 0)
(1.06341 0.12513 0)
(1.12995 -0.0523197 0)
(1.23361 -0.367701 0)
(1.25758 -0.302942 0)
(1.38506 -0.185861 0)
(1.29983 0.0382485 0)
(1.45315 0.429574 0)
(2.27287 0.920572 0)
(2.3609 1.04608 0)
(0.0454942 -0.219385 0)
(0.0341791 -0.220382 0)
(0.0136667 -0.19493 0)
(0.136767 -0.282336 0)
(0.205972 -0.210409 0)
(0.222865 -0.299389 0)
(0.304107 -0.322758 0)
(0.357903 -0.368193 0)
(0.478095 -0.429656 0)
(0.591457 -0.374881 0)
(0.614071 -0.456748 0)
(0.517704 -0.606645 0)
(0.549972 -0.534829 0)
(0.745924 -0.363387 0)
(0.935662 -0.334725 0)
(1.07189 -0.349594 0)
(1.14915 -0.405405 0)
(1.18254 -0.335796 0)
(1.22089 -0.131375 0)
(1.34939 0.111841 0)
(1.6588 0.704469 0)
(2.19624 0.895883 0)
(2.17682 0.863771 0)
(-0.00823478 -0.304841 0)
(0.111885 -0.310207 0)
(0.0894079 -0.309744 0)
(0.117734 -0.286145 0)
(0.132868 -0.19186 0)
(0.199678 -0.283474 0)
(0.315987 -0.262287 0)
(0.352755 -0.397124 0)
(0.512157 -0.474171 0)
(0.499468 -0.59593 0)
(0.468986 -0.651051 0)
(0.480847 -0.674286 0)
(0.549607 -0.603044 0)
(0.681144 -0.49834 0)
(0.920316 -0.369743 0)
(0.848509 -0.414237 0)
(0.823884 -0.396579 0)
(0.742857 -0.336194 0)
(0.808832 0.0920753 0)
(1.45297 0.391795 0)
(1.76551 0.70722 0)
(2.13673 0.561961 0)
(2.09182 0.400304 0)
(0.0341896 -0.430539 0)
(0.0692937 -0.441704 0)
(0.14165 -0.464301 0)
(0.198357 -0.495897 0)
(0.17641 -0.493561 0)
(0.291039 -0.471212 0)
(0.269519 -0.525787 0)
(0.258062 -0.558882 0)
(0.308606 -0.552936 0)
(0.437655 -0.621132 0)
(0.530818 -0.550767 0)
(0.451351 -0.568843 0)
(0.459367 -0.524655 0)
(0.742815 -0.472874 0)
(0.95445 -0.4811 0)
(0.833129 -0.516166 0)
(0.845573 -0.480992 0)
(0.881667 -0.395579 0)
(0.963113 -0.0677284 0)
(1.12968 -0.033943 0)
(1.25392 0.0107527 0)
(1.53426 0.0304179 0)
(1.66776 -0.148581 0)
(0.0010887 -0.498518 0)
(0.0545447 -0.513379 0)
(0.0462933 -0.542448 0)
(0.120908 -0.582765 0)
(0.176319 -0.616994 0)
(0.239168 -0.592594 0)
(0.270074 -0.667615 0)
(0.341138 -0.657535 0)
(0.379727 -0.563151 0)
(0.519847 -0.538021 0)
(0.488081 -0.578891 0)
(0.396897 -0.563611 0)
(0.456559 -0.536595 0)
(0.684386 -0.480142 0)
(0.785462 -0.536551 0)
(0.759906 -0.49929 0)
(0.846491 -0.441097 0)
(0.89818 -0.286986 0)
(0.732101 -0.317652 0)
(0.631813 -0.131842 0)
(0.784188 -0.0884817 0)
(1.04248 0.103463 0)
(1.16206 0.212718 0)
(0.0220289 -0.547609 0)
(0.0270903 -0.541118 0)
(0.0539354 -0.587235 0)
(0.108694 -0.537755 0)
(0.139256 -0.637055 0)
(0.243157 -0.650364 0)
(0.263257 -0.717293 0)
(0.366189 -0.669784 0)
(0.303228 -0.674991 0)
(0.232071 -0.632618 0)
(0.364857 -0.725347 0)
(0.340718 -0.605889 0)
(0.31081 -0.768138 0)
(0.487023 -0.794808 0)
(0.46472 -0.585374 0)
(0.352015 -0.50229 0)
(0.379383 -0.24494 0)
(0.227245 -0.669098 0)
(0.271919 -0.854362 0)
(0.362201 -0.660724 0)
(0.575464 -0.662809 0)
(0.801538 -0.684202 0)
(0.959071 -0.722271 0)
(0.0168914 -0.582594 0)
(0.000873341 -0.587959 0)
(0.0594815 -0.599 0)
(0.0218477 -0.594416 0)
(0.0506898 -0.726306 0)
(0.156862 -0.572053 0)
(0.269242 -0.672555 0)
(0.371074 -0.669458 0)
(0.127422 -0.645057 0)
(0.0937391 -0.66515 0)
(0.241102 -0.757665 0)
(0.153441 -0.485861 0)
(0.0853713 -0.722816 0)
(0.175776 -0.668025 0)
(0.195549 -0.374809 0)
(0.20849 -0.475602 0)
(0.207581 -0.261685 0)
(0.204964 -0.571376 0)
(0.143547 -0.469828 0)
(0.154281 -0.385647 0)
(0.252825 -0.40874 0)
(0.443791 -0.499857 0)
(0.688431 -0.511207 0)
(0.00428678 -0.590111 0)
(0.0206781 -0.612143 0)
(0.0642331 -0.568622 0)
(-0.0480839 -0.637171 0)
(0.160561 -0.607735 0)
(0.222043 -0.619593 0)
(0.160777 -0.636845 0)
(0.148307 -0.562354 0)
(0.00782336 -0.543512 0)
(0.1498 -0.742774 0)
(0.252314 -0.836044 0)
(0.19933 -0.420535 0)
(0.125981 -0.814035 0)
(0.370818 -0.771777 0)
(0.446226 -0.584206 0)
(0.311082 -0.50721 0)
(0.327626 -0.431035 0)
(0.415943 -0.538093 0)
(0.789269 -0.709537 0)
(0.800779 -0.873209 0)
(1.07226 -0.984078 0)
(1.56079 -1.3262 0)
(1.72429 -1.17487 0)
(0.0143967 -0.642995 0)
(0.0407988 -0.616259 0)
(0.0172992 -0.580603 0)
(0.0803102 -0.59199 0)
(0.0708596 -0.51301 0)
(0.0468008 -0.800902 0)
(0.205107 -0.780834 0)
(-0.0143439 -0.43975 0)
(-0.0749836 -0.779778 0)
(0.36698 -0.848558 0)
(0.1704 -0.758906 0)
(0.135212 -0.446321 0)
(0.0267006 -0.933573 0)
(0.213208 -0.809298 0)
(0.112114 -0.605967 0)
(0.213874 -0.500597 0)
(0.324668 -0.520658 0)
(0.485304 -0.679912 0)
(0.955911 -0.768625 0)
(0.864778 -0.781387 0)
(0.809186 -1.03551 0)
(1.1566 -1.41393 0)
(1.15328 -1.25815 0)
(0.0425524 -0.68623 0)
(0.0610563 -0.623274 0)
(0.0424225 -0.626522 0)
(0.16276 -0.622677 0)
(0.00202147 -0.738912 0)
(-0.1479 -0.727634 0)
(-0.0765325 -0.822514 0)
(-0.252344 -0.350461 0)
(0.00428017 -0.920669 0)
(0.0580331 -0.751595 0)
(0.196378 -0.724539 0)
(0.134408 -0.30199 0)
(-0.12102 -0.883762 0)
(-0.101257 -0.566663 0)
(-0.273837 -0.53664 0)
(-0.136108 -0.880817 0)
(0.0875382 -0.636518 0)
(0.245942 -0.787277 0)
(0.50228 -0.823289 0)
(0.39563 -1.00857 0)
(0.232755 -1.29165 0)
(0.339876 -1.61036 0)
(-0.0387737 -1.20143 0)
(0.0825108 -0.737091 0)
(0.0680368 -0.628169 0)
(-0.0507223 -0.687658 0)
(0.0622882 -0.755965 0)
(-0.0579553 -0.798518 0)
(-0.131885 -0.711423 0)
(-0.220086 -0.575506 0)
(-0.335367 -0.495779 0)
(-0.0334672 -1.11871 0)
(0.0682358 -1.08563 0)
(0.302212 -0.773729 0)
(0.124856 -0.081379 0)
(-0.17381 -0.850471 0)
(-0.251012 -0.577437 0)
(-0.297439 -0.649169 0)
(-0.188427 -0.887171 0)
(0.103131 -0.415154 0)
(0.130002 -0.618707 0)
(0.253776 -0.590307 0)
(0.289283 -0.899979 0)
(0.0353757 -1.10527 0)
(-0.434307 -1.25876 0)
(-0.758496 -0.863856 0)
(0.11221 -0.861105 0)
(0.129903 -0.412885 0)
(-0.120037 -0.623327 0)
(0.0414141 -0.5142 0)
(0.0313536 -0.563809 0)
(-0.0911782 -0.33525 0)
(-0.0921088 -0.311599 0)
(-0.135282 -0.584341 0)
(0.0961267 -1.33519 0)
(0.299645 -1.3346 0)
(0.325123 -0.81553 0)
(0.0213293 0.170481 0)
(-0.247464 -0.716639 0)
(-0.410836 -0.487042 0)
(-0.270226 -0.758692 0)
(-0.042313 -0.96464 0)
(0.492119 -0.993625 0)
(0.34004 -0.593164 0)
(0.111289 -0.63209 0)
(0.0867761 -0.608457 0)
(-0.236841 -0.753214 0)
(-0.696976 -0.836585 0)
(-1.04921 -0.686484 0)
(-0.178786 -0.958609 0)
(0.118087 -0.372422 0)
(0.0704745 -0.492738 0)
(0.0229108 -0.451921 0)
(0.143651 -0.374151 0)
(0.147511 -0.272566 0)
(0.0852021 -0.259285 0)
(0.253539 -0.618821 0)
(0.338668 -1.29109 0)
(-0.201707 -1.55515 0)
(-0.299896 -0.334803 0)
(-0.0384397 0.537889 0)
(0.268459 -0.441565 0)
(-0.0862248 -1.09269 0)
(-0.204939 -0.948879 0)
(0.109737 -1.41307 0)
(0.0446281 -1.44289 0)
(0.260291 -0.869582 0)
(0.118513 -0.729653 0)
(0.0915414 -0.582644 0)
(-0.208027 -0.355484 0)
(-0.757247 -0.442714 0)
(-1.17472 -0.548231 0)
(-0.0929776 -0.941436 0)
(0.180576 -0.698862 0)
(0.212209 -0.262691 0)
(0.0634952 -0.489085 0)
(0.179576 -0.295722 0)
(0.129837 -0.268203 0)
(0.343742 -0.360713 0)
(0.453212 -0.620899 0)
(0.387182 -1.12642 0)
(-0.569617 -1.00244 0)
(-0.135449 -0.687277 0)
(0.0254867 -0.380518 0)
(0.0640366 -0.499033 0)
(-0.181846 -0.456717 0)
(0.220966 -1.58141 0)
(-0.0980287 -1.78329 0)
(-0.409743 -1.36162 0)
(-0.304427 -0.785362 0)
(-0.0219585 -0.302523 0)
(-0.343846 -0.0694453 0)
(-0.461358 0.00113801 0)
(-0.891887 -0.235138 0)
(-1.51643 -0.315961 0)
(0.420045 -0.741211 0)
(-0.155105 -0.346241 0)
(-0.0680327 -0.0241096 0)
(-0.0698712 -0.63772 0)
(0.215809 -0.303977 0)
(0.117648 -0.473727 0)
(0.155539 -0.511676 0)
(-0.0351728 -0.64267 0)
(-0.0668966 -0.543977 0)
(-0.236912 -1.89476 0)
(-0.246799 -0.642994 0)
(-0.0935414 -0.0196117 0)
(-0.0235123 -0.344173 0)
(-0.211999 -1.23387 0)
(-0.111401 -1.30002 0)
(-0.431865 -1.82148 0)
(-0.499213 -1.16207 0)
(-0.693783 -0.559272 0)
(-0.591097 -0.0282653 0)
(-0.669719 0.192117 0)
(-0.522356 0.0387217 0)
(-0.853771 -0.247696 0)
(-1.25824 -0.043658 0)
(0.203044 -0.668812 0)
(-0.152471 -0.0655974 0)
(-0.263908 -0.202391 0)
(-0.209499 -0.701028 0)
(-0.214612 -0.384828 0)
(-0.140663 -0.805955 0)
(-0.104168 -0.320464 0)
(-0.0589246 -0.48208 0)
(-0.0834908 -1.40053 0)
(-0.105837 -2.59819 0)
(-0.393498 -1.17569 0)
(-0.124608 -0.425576 0)
(-0.214768 -0.719079 0)
(-0.209108 -0.754738 0)
(-0.602881 -0.975097 0)
(-0.664769 -1.08576 0)
(-0.685259 -1.06588 0)
(-0.837266 -0.603746 0)
(-0.878946 -0.257768 0)
(-0.949042 -0.0823568 0)
(-0.986972 -0.0419865 0)
(-0.996119 -0.150064 0)
(-1.21288 -0.0177785 0)
(0.094926 -0.83802 0)
(0.297222 0.171039 0)
(-0.314993 -0.139668 0)
(-0.0161994 -0.796994 0)
(-0.183768 -0.563384 0)
(0.351197 -0.525882 0)
(0.176365 -0.457164 0)
(0.0472943 -0.843084 0)
(0.355405 -1.43586 0)
(-0.0873635 -1.17785 0)
(-0.545497 -0.795944 0)
(-0.322266 -0.505229 0)
(-0.401629 -0.587841 0)
(-0.521153 -0.746674 0)
(-0.629508 -0.783482 0)
(-0.540831 -0.713925 0)
(-0.492764 -0.715774 0)
(-0.832835 -0.627192 0)
(-0.995801 -0.495949 0)
(-1.11896 -0.369092 0)
(-1.01941 -0.00399064 0)
(-0.981365 -0.0789974 0)
(-1.0875 0.0188427 0)
(-0.275267 -0.981033 0)
(0.217036 0.211788 0)
(0.488569 0.215174 0)
(0.379285 -0.521948 0)
(-0.0034832 -0.729002 0)
(0.0955774 -0.394128 0)
(-0.130049 -0.401486 0)
(0.00464217 -0.550628 0)
(-0.140812 -0.862429 0)
(-0.350133 -0.857269 0)
(-0.397303 -0.603498 0)
(-0.380339 -0.522154 0)
(-0.44821 -0.703927 0)
(-0.549381 -0.745483 0)
(-0.65516 -0.712004 0)
(-0.566711 -0.44352 0)
(-0.637249 -0.465273 0)
(-0.784969 -0.418046 0)
(-0.762531 -0.486629 0)
(-0.744159 -0.349595 0)
(-1.03894 -0.286406 0)
(-1.1475 -0.127958 0)
(-1.00992 7.61478e-05 0)
(-0.0866651 -0.780432 0)
(-0.25886 -0.586382 0)
(0.033167 -0.0851547 0)
(0.0886139 -0.548461 0)
(-0.0324538 -0.388825 0)
(-0.188496 -0.304512 0)
(-0.26731 -0.256091 0)
(-0.170498 -0.520826 0)
(-0.217279 -0.780188 0)
(-0.210821 -0.666053 0)
(-0.366657 -0.546415 0)
(-0.4543 -0.414781 0)
(-0.552178 -0.495046 0)
(-0.595795 -0.48792 0)
(-0.399931 -0.547197 0)
(-0.41666 -0.383438 0)
(-0.596102 -0.367338 0)
(-0.811327 -0.213297 0)
(-0.860261 -0.192033 0)
(-0.868738 -0.213081 0)
(-0.739948 -0.28046 0)
(-0.673437 -0.0570859 0)
(-0.780815 0.0338237 0)
(-0.153308 -0.790864 0)
(-0.125048 -0.2389 0)
(-0.00726427 -0.227215 0)
(0.0633469 -0.990575 0)
(-0.0395726 -0.388737 0)
(-0.164438 -0.680726 0)
(-0.0856457 -0.566771 0)
(-0.138525 -0.494378 0)
(-0.10172 -0.67301 0)
(-0.16483 -0.684273 0)
(-0.270687 -0.66309 0)
(-0.472567 -0.554101 0)
(-0.518182 -0.439651 0)
(-0.456648 -0.329126 0)
(-0.498743 -0.289976 0)
(-0.395625 -0.376964 0)
(-0.432841 -0.427737 0)
(-0.700293 -0.351053 0)
(-0.763926 -0.191176 0)
(-0.788283 -0.0544838 0)
(-0.831952 0.0116485 0)
(-0.819743 -0.0500429 0)
(-0.793635 0.00412582 0)
(-0.0986739 -1.33544 0)
(-0.0340143 -0.539145 0)
(-0.0806499 -0.295992 0)
(-0.137787 -0.704296 0)
(-0.123213 -0.603565 0)
(-0.00980503 -0.517382 0)
(0.10354 -0.713896 0)
(-0.0138057 -0.677373 0)
(-0.166457 -0.643723 0)
(-0.198026 -0.701208 0)
(-0.251488 -0.65234 0)
(-0.330625 -0.671426 0)
(-0.38096 -0.576927 0)
(-0.255985 -0.443593 0)
(-0.388488 -0.249771 0)
(-0.487034 -0.229568 0)
(-0.389236 -0.382156 0)
(-0.686364 -0.42971 0)
(-0.794778 -0.396413 0)
(-0.71999 -0.241966 0)
(-0.758553 -0.15174 0)
(-0.684765 -0.0499804 0)
(-0.718531 0.0212853 0)
(-0.108335 -0.753167 0)
(-0.174059 -0.731736 0)
(-0.129599 -0.710871 0)
(0.00872396 -0.571589 0)
(0.134159 -0.665227 0)
(0.0428602 -0.521344 0)
(-0.105144 -0.590401 0)
(-0.0745811 -0.762756 0)
(-0.110267 -0.666921 0)
(-0.215423 -0.608892 0)
(-0.236304 -0.550701 0)
(-0.340889 -0.516949 0)
(-0.295113 -0.4458 0)
(-0.191618 -0.45667 0)
(-0.300891 -0.388792 0)
(-0.481193 -0.350236 0)
(-0.536097 -0.337048 0)
(-0.580706 -0.400003 0)
(-0.64478 -0.218958 0)
(-0.599017 -0.172782 0)
(-0.643073 -0.103327 0)
(-0.637754 -0.0597096 0)
(-0.689357 -0.00604274 0)
(-0.0903539 -0.622709 0)
(-0.101397 -0.485148 0)
(0.0346614 -0.430312 0)
(-0.0379494 -0.420718 0)
(-0.0698504 -0.459633 0)
(0.050739 -0.682712 0)
(-0.0812822 -0.625854 0)
(-0.0857433 -0.59811 0)
(-0.16133 -0.6297 0)
(-0.197581 -0.566192 0)
(-0.210369 -0.52782 0)
(-0.229153 -0.484811 0)
(-0.2486 -0.368948 0)
(-0.184113 -0.38003 0)
(-0.302152 -0.385356 0)
(-0.436567 -0.344928 0)
(-0.44275 -0.315364 0)
(-0.490908 -0.330165 0)
(-0.534163 -0.136126 0)
(-0.593122 -0.127419 0)
(-0.637493 -0.0616343 0)
(-0.610044 -0.0307122 0)
(-0.644995 0.0263387 0)
(0.0636387 -0.408893 0)
(0.0320222 -0.366133 0)
(-0.0272282 -0.321103 0)
(-0.0547842 -0.394979 0)
(-0.109595 -0.348302 0)
(-0.126523 -0.422919 0)
(-0.0160979 -0.383224 0)
(-0.00339354 -0.57761 0)
(-0.0875682 -0.473756 0)
(-0.130015 -0.505768 0)
(-0.165415 -0.547656 0)
(-0.197613 -0.536474 0)
(-0.20652 -0.504018 0)
(-0.156948 -0.466856 0)
(-0.137988 -0.503847 0)
(-0.392861 -0.393714 0)
(-0.518994 -0.303649 0)
(-0.417348 -0.23574 0)
(-0.47218 -0.187001 0)
(-0.555947 -0.175859 0)
(-0.526645 -0.078969 0)
(-0.543659 -0.0459104 0)
(-0.533429 0.00625466 0)
(-0.00425246 -0.288963 0)
(-0.0275951 -0.341691 0)
(-0.0313091 -0.337708 0)
(-0.0476989 -0.332604 0)
(-0.0677462 -0.330696 0)
(-0.0875919 -0.302358 0)
(-0.153342 -0.312807 0)
(-0.135029 -0.360235 0)
(-0.100901 -0.387636 0)
(-0.222465 -0.375548 0)
(-0.219172 -0.322875 0)
(-0.174027 -0.332715 0)
(-0.141342 -0.361717 0)
(-0.129382 -0.479247 0)
(-0.223035 -0.434789 0)
(-0.255384 -0.484269 0)
(-0.258168 -0.240893 0)
(-0.41587 -0.182816 0)
(-0.477946 -0.213912 0)
(-0.477011 -0.120175 0)
(-0.500559 -0.0720141 0)
(-0.520492 -0.0277863 0)
(-0.508178 0.0104134 0)
(0.00350196 -0.327751 0)
(-0.0107939 -0.329578 0)
(-0.0285086 -0.316023 0)
(-0.0422513 -0.319724 0)
(-0.0673001 -0.306201 0)
(-0.0752292 -0.312414 0)
(-0.0914575 -0.301459 0)
(-0.101881 -0.265288 0)
(-0.117686 -0.301915 0)
(-0.146335 -0.289791 0)
(-0.165476 -0.231255 0)
(-0.200498 -0.238792 0)
(-0.250911 -0.235065 0)
(-0.209398 -0.279233 0)
(-0.214806 -0.300726 0)
(-0.214448 -0.278701 0)
(-0.214334 -0.268667 0)
(-0.364003 -0.266368 0)
(-0.406281 -0.15977 0)
(-0.432641 -0.155288 0)
(-0.419048 -0.0557164 0)
(-0.447705 -0.0347825 0)
(-0.415259 0.0123254 0)
(-0.00286215 -0.296607 0)
(-0.0203039 -0.303735 0)
(-0.0265186 -0.30327 0)
(-0.0396116 -0.298548 0)
(-0.0566772 -0.290845 0)
(-0.0704098 -0.27719 0)
(-0.104837 -0.280277 0)
(-0.111073 -0.286078 0)
(-0.120183 -0.274039 0)
(-0.141979 -0.263845 0)
(-0.141487 -0.221094 0)
(-0.184794 -0.231491 0)
(-0.206709 -0.255059 0)
(-0.199432 -0.245531 0)
(-0.220043 -0.283561 0)
(-0.222492 -0.223419 0)
(-0.228994 -0.284729 0)
(-0.218286 -0.163326 0)
(-0.359378 -0.126464 0)
(-0.383478 -0.106117 0)
(-0.365188 -0.0688902 0)
(-0.426824 -0.0285341 0)
(-0.41826 0.00384769 0)
(-0.00032302 -0.295112 0)
(-0.0168891 -0.297647 0)
(-0.0239726 -0.296815 0)
(-0.0292694 -0.294461 0)
(-0.0431707 -0.286965 0)
(-0.0499551 -0.27429 0)
(-0.0791251 -0.262781 0)
(-0.0889942 -0.261363 0)
(-0.0971674 -0.25707 0)
(-0.0752954 -0.251093 0)
(-0.0984057 -0.236246 0)
(-0.226057 -0.216219 0)
(-0.290397 -0.231775 0)
(-0.212626 -0.221799 0)
(-0.162621 -0.242081 0)
(-0.223774 -0.281645 0)
(-0.165324 -0.20746 0)
(-0.134954 -0.184961 0)
(-0.291359 -0.201792 0)
(-0.375948 -0.0564391 0)
(-0.364091 -0.087068 0)
(-0.375571 -0.0113786 0)
(-0.371708 0.0197047 0)
(-0.00318523 -0.282798 0)
(-0.0195457 -0.29009 0)
(-0.025059 -0.280831 0)
(-0.0324954 -0.279649 0)
(-0.0462603 -0.267171 0)
(-0.0525329 -0.221182 0)
(-0.0843421 -0.21768 0)
(-0.0908766 -0.255849 0)
(-0.0999912 -0.267542 0)
(-0.110948 -0.273022 0)
(-0.0897768 -0.267093 0)
(-0.151489 -0.276284 0)
(-0.216471 -0.229472 0)
(-0.204685 -0.179354 0)
(-0.245953 -0.239615 0)
(-0.202257 -0.204185 0)
(-0.15123 -0.1991 0)
(-0.188119 -0.188147 0)
(-0.16689 -0.178439 0)
(-0.298807 -0.0720711 0)
(-0.358749 -0.0672401 0)
(-0.325692 -0.0250473 0)
(-0.352137 0.00378976 0)
(-0.00251058 -0.279016 0)
(-0.0107746 -0.284683 0)
(-0.0149623 -0.276247 0)
(-0.0197848 -0.283691 0)
(0.00288761 -0.274271 0)
(-0.00238557 -0.289764 0)
(-0.130873 -0.271956 0)
(-0.123699 -0.25611 0)
(-0.107523 -0.233851 0)
(-0.0813231 -0.251665 0)
(-0.104675 -0.225954 0)
(-0.16338 -0.252559 0)
(-0.205925 -0.207354 0)
(-0.237467 -0.198911 0)
(-0.182548 -0.181763 0)
(-0.190443 -0.13948 0)
(-0.165404 -0.166197 0)
(-0.126354 -0.17675 0)
(-0.150332 -0.118649 0)
(-0.21236 -0.161967 0)
(-0.32002 -0.0201776 0)
(-0.301432 -0.0288849 0)
(-0.305084 0.021793 0)
(-0.00572061 -0.268327 0)
(-0.0134945 -0.274721 0)
(-0.0242212 -0.272018 0)
(-0.0293417 -0.283559 0)
(-0.0461976 -0.277903 0)
(-0.048665 -0.339402 0)
(-0.060498 -0.337784 0)
(-0.0620851 -0.288996 0)
(-0.0792739 -0.348372 0)
(-0.114913 -0.314075 0)
(-0.0940947 -0.324657 0)
(-0.0975785 -0.235634 0)
(-0.16876 -0.184249 0)
(-0.187731 -0.188252 0)
(-0.192267 -0.142226 0)
(-0.185134 -0.20101 0)
(-0.185422 -0.146695 0)
(-0.120918 -0.153012 0)
(-0.127371 -0.125267 0)
(-0.165612 -0.132435 0)
(-0.244475 -0.0424396 0)
(-0.303397 -0.0401756 0)
(-0.27467 0.0172325 0)
(-0.00528705 -0.26067 0)
(-0.00732597 -0.266273 0)
(-0.0190129 -0.261238 0)
(-0.0207695 -0.269217 0)
(-0.0297335 -0.263363 0)
(-0.0499049 -0.323067 0)
(-0.114854 -0.274384 0)
(-0.124722 -0.249698 0)
(-0.0948563 -0.240321 0)
(-0.0493568 -0.218006 0)
(-0.0552551 -0.2309 0)
(-0.0638131 -0.19439 0)
(-0.147271 -0.169062 0)
(-0.198957 -0.178606 0)
(-0.205973 -0.158538 0)
(-0.180198 -0.136038 0)
(-0.120515 -0.135256 0)
(-0.110825 -0.128684 0)
(-0.131518 -0.158553 0)
(-0.117657 -0.0823503 0)
(-0.17654 -0.107735 0)
(-0.242213 0.0103374 0)
(-0.236209 0.00887675 0)
(-0.00577898 -0.257359 0)
(-0.00858803 -0.262049 0)
(-0.0251531 -0.25585 0)
(-0.0315859 -0.264736 0)
(-0.0815441 -0.249438 0)
(-0.0441454 -0.250401 0)
(0.000386058 -0.250237 0)
(-0.0535141 -0.178192 0)
(-0.0409221 -0.165771 0)
(-0.0716349 -0.184876 0)
(-0.074435 -0.197123 0)
(-0.0740498 -0.192799 0)
(-0.147085 -0.208941 0)
(-0.175937 -0.16505 0)
(-0.161215 -0.153002 0)
(-0.169753 -0.11187 0)
(-0.169326 -0.123451 0)
(-0.139654 -0.116369 0)
(-0.0745055 -0.111474 0)
(-0.0863227 -0.097786 0)
(-0.135151 -0.111 0)
(-0.213947 -0.0174516 0)
(-0.259257 0.0290908 0)
(-0.00637517 -0.25406 0)
(-0.000109 -0.256971 0)
(-0.0210933 -0.249559 0)
(-0.00913021 -0.237027 0)
(-0.0272518 -0.176494 0)
(-0.0315509 -0.189498 0)
(-0.00448351 -0.215136 0)
(-0.0651402 -0.237813 0)
(-0.0961064 -0.212886 0)
(-0.0924747 -0.220176 0)
(-0.0758723 -0.220001 0)
(-0.0618429 -0.227809 0)
(-0.0979644 -0.210516 0)
(-0.139943 -0.171322 0)
(-0.143804 -0.152047 0)
(-0.176735 -0.129105 0)
(-0.121795 -0.114277 0)
(-0.0976148 -0.0836109 0)
(-0.116475 -0.0935729 0)
(-0.12116 -0.0979307 0)
(-0.129072 -0.0751355 0)
(-0.105346 -0.082787 0)
(-0.192693 0.0215207 0)
(-0.00343888 -0.252784 0)
(0.00108156 -0.253142 0)
(-0.0164086 -0.258902 0)
(0.027725 -0.242001 0)
(-0.0298943 -0.270683 0)
(-0.0788375 -0.238791 0)
(-0.0560563 -0.254543 0)
(-0.0416981 -0.267326 0)
(-0.0373304 -0.235757 0)
(-0.0743458 -0.219039 0)
(-0.0755011 -0.241262 0)
(-0.0721498 -0.19451 0)
(-0.0969863 -0.170787 0)
(-0.124607 -0.142699 0)
(-0.125734 -0.142408 0)
(-0.129742 -0.118414 0)
(-0.132006 -0.0836537 0)
(-0.129098 -0.115748 0)
(-0.0900591 -0.0785651 0)
(-0.0683232 -0.0815907 0)
(-0.107467 -0.0389672 0)
(-0.0791977 -0.0326677 0)
(-0.158283 -0.0301991 0)
(-0.0017236 -0.250304 0)
(-0.00371504 -0.251554 0)
(-0.00806939 -0.259104 0)
(-0.0128553 -0.239496 0)
(-0.0163077 -0.308972 0)
(-0.0330697 -0.24455 0)
(-0.0353113 -0.242252 0)
(-0.0494853 -0.217081 0)
(-0.0622548 -0.22391 0)
(-0.0883037 -0.173209 0)
(-0.0402762 -0.192189 0)
(0.00834888 -0.195148 0)
(-0.0549021 -0.183093 0)
(-0.117004 -0.163765 0)
(-0.13257 -0.144581 0)
(-0.115322 -0.124512 0)
(-0.129666 -0.102891 0)
(-0.0837329 -0.0968849 0)
(-0.0820726 -0.0556469 0)
(-0.0748447 -0.0607436 0)
(-0.075249 -0.0461795 0)
(-0.0662487 -0.0194697 0)
(-0.101373 -0.0436107 0)
(-0.00215229 -0.249781 0)
(-0.00585081 -0.251871 0)
(-0.00638378 -0.250876 0)
(-0.00952652 -0.230371 0)
(-0.0218176 -0.249383 0)
(-0.0307972 -0.244585 0)
(-0.0288775 -0.243672 0)
(-0.02598 -0.227738 0)
(0.00381175 -0.221336 0)
(-0.0292859 -0.206602 0)
(-0.080877 -0.170388 0)
(-0.0697805 -0.191688 0)
(-0.0680302 -0.201549 0)
(-0.074338 -0.181391 0)
(-0.0840622 -0.144567 0)
(-0.0825148 -0.121976 0)
(-0.10672 -0.102558 0)
(-0.0832113 -0.0677652 0)
(-0.0556578 -0.0766397 0)
(-0.0631465 -0.0360768 0)
(-0.0717173 -0.036366 0)
(-0.0643406 -0.00905442 0)
(-0.082791 -0.040763 0)
(-0.000382533 -0.246067 0)
(-0.00492298 -0.250759 0)
(-0.000547355 -0.250624 0)
(-0.0145362 -0.229401 0)
(-0.0222462 -0.256942 0)
(-0.0267012 -0.250461 0)
(-0.0230848 -0.304429 0)
(-0.0272654 -0.239179 0)
(-0.0455293 -0.229535 0)
(-0.0329882 -0.258845 0)
(-0.0252887 -0.209434 0)
(-0.0399411 -0.198198 0)
(-0.0371728 -0.178454 0)
(-0.0566912 -0.15895 0)
(-0.0666433 -0.135949 0)
(-0.065956 -0.111595 0)
(-0.0697093 -0.0937873 0)
(-0.0724589 -0.0569308 0)
(-0.0491316 -0.0680542 0)
(-0.0329456 -0.0415707 0)
(-0.0454718 -0.042044 0)