/*--------------------------------*- C++ -*----------------------------------*\
| =========                 |                                                 |
| \\      /  F ield         | foam-extend: Open Source CFD                    |
|  \\    /   O peration     | Version:     4.1                                |
|   \\  /    A nd           | Web:         http://www.foam-extend.org         |
|    \\/     M anipulation  |                                                 |
\*---------------------------------------------------------------------------*/
FoamFile
{
    version     2.0;
    format      ascii;
    class       surfaceScalarField;
    location    "0.2";
    object      phi_0;
}
// * * * * * * * * * * * * * * * * * * * * * * * * * * * * * * * * * * * * * //

dimensions      [0 3 -1 0 0 0 0];

internalField   nonuniform List<scalar> 
4432
(
4.13458e-06
-4.13458e-06
8.25132e-06
-4.11674e-06
1.31022e-05
-4.85085e-06
1.62636e-05
-3.16147e-06
2.2115e-05
-5.85139e-06
2.69571e-05
-4.84209e-06
3.15068e-05
-4.54972e-06
3.56645e-05
-4.15768e-06
3.8669e-05
-3.00445e-06
4.06159e-05
-1.94697e-06
6.48758e-05
-2.42599e-05
7.38875e-05
-9.01166e-06
8.08696e-05
-6.98212e-06
8.68878e-05
-6.01819e-06
8.92024e-05
-2.3146e-06
8.93287e-05
-1.26272e-07
8.765e-05
1.67861e-06
8.50538e-05
2.59629e-06
8.03067e-05
4.74702e-06
7.01351e-05
1.01716e-05
5.20564e-05
1.80787e-05
3.02616e-05
2.17949e-05
3.02616e-05
4.15509e-06
-8.28967e-06
8.31678e-06
-8.27842e-06
1.3121e-05
-9.65508e-06
1.6354e-05
-6.39444e-06
2.22895e-05
-1.17869e-05
2.70526e-05
-9.60523e-06
3.16087e-05
-9.10583e-06
3.58072e-05
-8.3561e-06
3.88853e-05
-6.08261e-06
4.12798e-05
-4.34143e-06
6.31923e-05
-4.61724e-05
7.19835e-05
-1.78028e-05
7.94216e-05
-1.44203e-05
8.50347e-05
-1.16313e-05
8.72971e-05
-4.57703e-06
8.74652e-05
-2.94297e-07
8.55838e-05
3.56e-06
8.28612e-05
5.31883e-06
7.88036e-05
8.80463e-06
6.73e-05
2.16752e-05
5.23283e-05
3.30504e-05
2.99989e-05
4.41243e-05
6.02604e-05
4.13457e-06
-1.24242e-05
8.33557e-06
-1.24794e-05
1.30346e-05
-1.43541e-05
1.64404e-05
-9.8002e-06
2.23031e-05
-1.76497e-05
2.69203e-05
-1.42224e-05
3.1375e-05
-1.35606e-05
3.71177e-05
-1.40988e-05
3.83857e-05
-7.35055e-06
6.98533e-05
-3.58091e-05
6.42485e-05
-4.05676e-05
7.08262e-05
-2.43805e-05
7.74398e-05
-2.1034e-05
8.05884e-05
-1.47798e-05
8.35215e-05
-7.51015e-06
8.48387e-05
-1.61157e-06
8.27219e-05
5.67687e-06
8.03351e-05
7.70564e-06
7.73564e-05
1.17833e-05
6.93533e-05
2.96783e-05
5.3759e-05
4.86447e-05
3.5983e-05
6.19004e-05
9.62434e-05
4.12688e-06
-1.65511e-05
8.38613e-06
-1.67387e-05
1.29537e-05
-1.89217e-05
1.68454e-05
-1.36918e-05
2.2404e-05
-2.32083e-05
2.63066e-05
-1.8125e-05
3.26881e-05
-1.99421e-05
3.57919e-05
-1.72026e-05
6.10252e-05
-3.25839e-05
6.28764e-05
-3.76603e-05
6.07706e-05
-3.84617e-05
6.54664e-05
-2.90763e-05
7.0397e-05
-2.59646e-05
7.44389e-05
-1.88217e-05
7.85167e-05
-1.1588e-05
8.15207e-05
-4.61554e-06
8.28815e-05
4.31612e-06
8.24178e-05
8.16928e-06
7.95867e-05
1.46145e-05
6.99697e-05
3.92952e-05
5.47199e-05
6.38945e-05
3.36568e-05
8.29635e-05
0.0001299
4.08581e-06
-2.0637e-05
8.36999e-06
-2.10228e-05
1.29742e-05
-2.3526e-05
1.71574e-05
-1.7875e-05
2.20132e-05
-2.80641e-05
2.60406e-05
-2.21524e-05
3.24838e-05
-2.63853e-05
3.42198e-05
-1.89386e-05
5.39442e-05
-5.23082e-05
5.49412e-05
-3.86573e-05
5.50714e-05
-3.85919e-05
6.27922e-05
-3.67971e-05
6.85704e-05
-3.17428e-05
7.35227e-05
-2.3774e-05
7.75578e-05
-1.56231e-05
8.19158e-05
-8.9735e-06
8.56562e-05
5.75749e-07
8.62084e-05
7.61699e-06
8.41342e-05
1.66887e-05
7.5327e-05
4.81024e-05
6.2474e-05
7.67475e-05
4.60196e-05
9.94179e-05
0.00017592
4.08029e-06
-2.47172e-05
8.37245e-06
-2.5315e-05
1.29285e-05
-2.8082e-05
1.72734e-05
-2.22199e-05
2.19595e-05
-3.27502e-05
2.73121e-05
-2.7505e-05
2.97631e-05
-2.88363e-05
4.9577e-05
-3.87525e-05
4.68813e-05
-4.96126e-05
5.08663e-05
-4.26423e-05
5.57843e-05
-4.35099e-05
6.35109e-05
-4.45237e-05
6.95539e-05
-3.77857e-05
7.58638e-05
-3.0084e-05
8.01089e-05
-1.98681e-05
8.66398e-05
-1.55044e-05
8.93819e-05
-2.16634e-06
8.95063e-05
7.49258e-06
8.85852e-05
1.76099e-05
8.16398e-05
5.50478e-05
7.05887e-05
8.77986e-05
4.94135e-05
0.000120593
0.000225333
4.00183e-06
-2.87191e-05
8.36991e-06
-2.96831e-05
1.29405e-05
-3.26526e-05
1.71991e-05
-2.64785e-05
2.22104e-05
-3.77615e-05
2.45638e-05
-2.98584e-05
2.51329e-05
-2.94053e-05
4.23893e-05
-5.6009e-05
4.3701e-05
-5.09242e-05
4.94108e-05
-4.83522e-05
5.66419e-05
-5.0741e-05
6.48489e-05
-5.27307e-05
7.16727e-05
-4.46095e-05
7.82133e-05
-3.66245e-05
8.26726e-05
-2.43274e-05
8.94819e-05
-2.23138e-05
9.48329e-05
-7.5173e-06
9.47549e-05
7.57061e-06
9.52674e-05
1.70973e-05
8.57457e-05
6.45695e-05
8.20349e-05
9.15094e-05
4.00333e-05
0.000162595
0.000265367
4.05145e-06
-3.27705e-05
8.44559e-06
-3.40772e-05
1.27032e-05
-3.69103e-05
1.67465e-05
-3.05217e-05
2.11968e-05
-4.22118e-05
2.14888e-05
-3.01504e-05
3.88045e-05
-4.6721e-05
3.99044e-05
-5.71089e-05
4.30299e-05
-5.40497e-05
5.07787e-05
-5.6101e-05
5.89962e-05
-5.89585e-05
6.69898e-05
-6.07244e-05
7.37557e-05
-5.13754e-05
8.02708e-05
-4.31396e-05
8.62571e-05
-3.03137e-05
9.30476e-05
-2.91043e-05
9.93861e-05
-1.38557e-05
0.000102894
4.0628e-06
0.000102241
1.77504e-05
9.58748e-05
7.09355e-05
9.25389e-05
9.48453e-05
4.17777e-05
0.000213356
0.000307144
-2.27135e-06
2.27135e-06
-3.19545e-06
9.24052e-07
-5.56964e-06
2.37419e-06
-6.91949e-06
1.34986e-06
-6.49711e-06
-4.22396e-07
-5.8646e-06
-6.32501e-07
-4.07487e-06
-1.78977e-06
-2.04704e-06
-2.02783e-06
-1.03375e-07
-1.94362e-06
1.86816e-06
-1.97155e-06
3.53058e-06
-1.66236e-06
5.04455e-06
-1.51393e-06
5.73902e-06
-6.94424e-07
7.08317e-06
-1.34412e-06
7.35455e-06
-2.71305e-07
4.04923e-06
3.30526e-06
2.81397e-06
1.23539e-06
1.36656e-06
1.44734e-06
1.36678e-06
-2.52124e-06
4.79259e-06
-4.06e-06
2.46276e-06
-5.76688e-06
4.08106e-06
-7.17392e-06
2.75693e-06
-6.57723e-06
-1.01916e-06
-5.6253e-06
-1.58442e-06
-3.58721e-06
-3.82787e-06
-1.42954e-06
-4.18549e-06
7.64096e-07
-4.13717e-06
2.72303e-06
-3.93044e-06
4.58512e-06
-3.52439e-06
6.07546e-06
-3.00426e-06
6.44136e-06
-1.06019e-06
8.08234e-06
-2.98511e-06
4.3163e-06
3.49485e-06
4.32028e-06
3.30116e-06
2.96554e-06
2.59038e-06
1.47304e-06
2.93957e-06
2.83998e-06
-2.14567e-06
6.93826e-06
-3.66783e-06
3.98489e-06
-6.51851e-06
6.93171e-06
-8.32638e-06
4.5648e-06
-7.29776e-06
-2.04788e-06
-6.0688e-06
-2.81336e-06
-3.83831e-06
-6.0584e-06
-1.40721e-06
-6.61655e-06
8.76767e-07
-6.42107e-06
3.11678e-06
-6.17054e-06
4.94324e-06
-5.35078e-06
6.07871e-06
-4.1397e-06
6.92463e-06
-1.90603e-06
4.65834e-06
-7.18971e-07
4.52909e-06
3.62415e-06
4.27812e-06
3.55198e-06
2.98392e-06
3.88472e-06
1.48853e-06
4.43473e-06
4.3286e-06
-4.07349e-06
1.10118e-05
-3.58381e-06
3.49516e-06
-6.93009e-06
1.02779e-05
-9.40639e-06
7.04111e-06
-8.99294e-06
-2.46143e-06
-7.04909e-06
-4.75719e-06
-4.28757e-06
-8.81989e-06
-1.51683e-06
-9.3873e-06
1.00221e-06
-8.94003e-06
3.21503e-06
-8.38336e-06
5.46693e-06
-7.60265e-06
6.79317e-06
-5.46601e-06
7.50332e-06
-2.61617e-06
5.14708e-06
1.63715e-06
8.68838e-06
8.28869e-08
4.36052e-06
7.8796e-06
3.06655e-06
5.1788e-06
1.50069e-06
6.00042e-06
5.82931e-06
-1.12169e-06
1.21334e-05
-5.00751e-06
7.38091e-06
-8.58908e-06
1.38594e-05
-1.20846e-05
1.05367e-05
-1.06166e-05
-3.92948e-06
-7.87913e-06
-7.49464e-06
-4.66181e-06
-1.20371e-05
-1.5408e-06
-1.25083e-05
1.129e-06
-1.16098e-05
3.83758e-06
-1.10919e-05
5.77214e-06
-9.53716e-06
8.36955e-06
-8.06348e-06
8.50506e-06
-2.7517e-06
9.86938e-06
2.72725e-07
4.94419e-06
5.00813e-06
4.44282e-06
8.38081e-06
2.99382e-06
6.62796e-06
1.50205e-06
7.49205e-06
7.33137e-06
-1.71116e-06
1.38446e-05
-5.19992e-06
1.08696e-05
-1.16836e-05
2.0343e-05
-1.67191e-05
1.55722e-05
-1.47259e-05
-5.92269e-06
-9.51376e-06
-1.27067e-05
-4.87516e-06
-1.66756e-05
-1.22715e-06
-1.61562e-05
1.11337e-06
-1.39502e-05
4.04589e-06
-1.40245e-05
7.46556e-06
-1.29568e-05
4.54086e-06
-5.13882e-06
4.75254e-06
-2.96339e-06
5.79924e-06
-7.74024e-07
5.02205e-06
5.78544e-06
4.39708e-06
9.00574e-06
3.00404e-06
8.02124e-06
1.51458e-06
8.98141e-06
8.84598e-06
-4.57437e-06
1.84189e-05
-5.65575e-06
1.1951e-05
-2.30502e-05
3.77373e-05
-1.27629e-05
5.28498e-06
-1.82175e-05
-4.68051e-07
-1.21136e-05
-1.88107e-05
-6.31595e-06
-2.24732e-05
-1.74158e-06
-2.07306e-05
1.26576e-06
-1.69576e-05
3.33754e-06
-1.60963e-05
4.24443e-06
-1.38637e-05
9.87397e-06
-1.07684e-05
1.01818e-05
-3.27119e-06
6.12493e-06
3.28285e-06
5.40138e-06
6.50916e-06
4.45107e-06
9.95604e-06
3.0299e-06
9.44258e-06
1.53304e-06
1.04782e-05
1.0379e-05
-3.34126e-06
2.17601e-05
-1.95031e-05
2.81128e-05
-2.0231e-05
3.84652e-05
-1.83243e-05
3.37826e-06
-1.31858e-05
-5.60659e-06
-8.65524e-06
-2.33412e-05
-4.11801e-06
-2.70104e-05
-7.99009e-07
-2.40496e-05
1.71883e-06
-1.94754e-05
7.06094e-06
-2.14384e-05
9.09421e-06
-1.58969e-05
1.06567e-05
-1.23308e-05
1.12429e-05
-3.85724e-06
6.68372e-06
7.84206e-06
5.68181e-06
7.51117e-06
4.5506e-06
1.10872e-05
3.07952e-06
1.09137e-05
1.55748e-06
1.2e-05
1.19364e-05
8.17546e-06
-4.0946e-05
1.73289e-05
-4.32307e-05
2.34282e-05
-4.30095e-05
3.31697e-05
-4.02632e-05
3.82857e-05
-4.73278e-05
6.48021e-05
-5.66668e-05
7.57614e-05
-5.76803e-05
8.19799e-05
-6.33273e-05
9.10303e-05
-6.31001e-05
0.000110271
-7.53414e-05
0.000128491
-7.71785e-05
0.000143179
-7.54129e-05
0.000161444
-6.96406e-05
0.000178467
-6.01623e-05
0.000192065
-4.39113e-05
0.000212383
-4.94231e-05
0.000226113
-2.75854e-05
0.00023206
-1.8845e-06
0.000240347
9.464e-06
0.000226973
8.43089e-05
0.000160866
0.000160952
0.000139119
0.000235104
0.000162556
0.000283707
7.36292e-06
-4.83089e-05
1.66052e-05
-5.2473e-05
2.28898e-05
-4.92941e-05
4.30213e-05
-6.03948e-05
5.21004e-05
-5.64069e-05
5.93441e-05
-6.39106e-05
6.86198e-05
-6.6956e-05
7.75192e-05
-7.22267e-05
9.12142e-05
-7.67952e-05
0.000111315
-9.5442e-05
0.000127354
-9.32173e-05
0.000150502
-9.85613e-05
0.000171715
-9.0854e-05
0.000190514
-7.89613e-05
0.000191607
-4.50037e-05
0.000219625
-7.74408e-05
0.000215397
-2.33583e-05
0.00022076
-7.24703e-06
0.00017262
5.76037e-05
0.000187305
6.9624e-05
0.000194753
0.000153505
0.000329015
0.000100842
0.000135511
0.000356059
1.06594e-05
-5.89683e-05
2.06916e-05
-6.25052e-05
3.20271e-05
-6.06295e-05
3.96742e-05
-6.80419e-05
4.90189e-05
-6.57516e-05
5.63406e-05
-7.12322e-05
6.62087e-05
-7.68241e-05
7.45327e-05
-8.05507e-05
8.65005e-05
-8.87629e-05
0.000102636
-0.000111577
0.000123153
-0.000113734
0.000150234
-0.000125643
0.000170484
-0.000111104
0.000169835
-7.83121e-05
0.000193547
-6.87157e-05
0.000226763
-0.000110657
0.000263966
-6.05609e-05
0.000292142
-3.54237e-05
0.000322968
2.67785e-05
0.000345499
4.70924e-05
0.000387709
0.000111295
0.000351124
0.000137426
0.000118381
0.000368255
1.10647e-05
-7.0033e-05
2.12629e-05
-7.27034e-05
3.13592e-05
-7.07258e-05
3.79477e-05
-7.46303e-05
4.66251e-05
-7.4429e-05
5.37808e-05
-7.83879e-05
5.83705e-05
-8.14138e-05
6.31408e-05
-8.5321e-05
7.16338e-05
-9.72558e-05
8.83708e-05
-0.000128314
0.000122875
-0.000148239
0.00014917
-0.000151937
0.000128683
-9.06179e-05
0.000136164
-8.57923e-05
0.000209518
-0.00014207
0.000250952
-0.00015209
0.000283706
-9.33155e-05
0.000326101
-7.78183e-05
0.000363422
-1.05422e-05
0.000382648
2.7866e-05
0.000398829
9.51135e-05
0.000423217
0.000113038
0.000148602
0.000392996
9.96109e-06
-7.99941e-05
1.8863e-05
-8.16053e-05
2.81335e-05
-7.99963e-05
3.61509e-05
-8.26477e-05
4.28955e-05
-8.11736e-05
4.73236e-05
-8.2816e-05
4.97628e-05
-8.3853e-05
5.26434e-05
-8.82017e-05
5.46583e-05
-9.92707e-05
7.06942e-05
-0.00014435
0.000106373
-0.000183918
0.000131533
-0.000177097
0.000145562
-0.000104647
0.000164502
-0.000104732
0.00022336
-0.000200928
0.000280505
-0.000209235
0.000285616
-9.84265e-05
0.000202607
5.19004e-06
0.00022096
-2.88945e-05
0.000235251
1.35745e-05
0.000388947
-5.85823e-05
0.000409732
9.22533e-05
0.000161111
0.000397223
1.00143e-05
-9.00084e-05
1.93633e-05
-9.09544e-05
2.88539e-05
-8.94868e-05
3.58539e-05
-8.96478e-05
4.20014e-05
-8.73211e-05
4.58826e-05
-8.66972e-05
4.59235e-05
-8.3894e-05
3.96882e-05
-8.19664e-05
3.64839e-05
-9.60663e-05
5.95419e-05
-0.000167408
0.000104226
-0.000228602
0.000122979
-0.00019585
0.000134588
-0.000116256
0.000159723
-0.000129868
0.00020863
-0.000249835
0.000267346
-0.000267951
0.000306792
-0.000137873
0.000326233
-1.42515e-05
0.00033074
-3.3401e-05
0.000341225
3.08897e-06
0.000299008
-1.63648e-05
0.000244331
0.00014693
3.78228e-05
0.000367619
9.92743e-06
-9.99358e-05
1.94286e-05
-0.000100456
2.84276e-05
-9.84858e-05
3.61912e-05
-9.74114e-05
4.28668e-05
-9.39967e-05
4.61949e-05
-9.00252e-05
4.32034e-05
-8.09025e-05
3.13558e-05
-7.01188e-05
3.60622e-05
-0.000100773
6.43352e-05
-0.000195681
7.85577e-05
-0.000242824
7.92305e-05
-0.000196522
0.000105399
-0.000142424
0.000130236
-0.000154704
0.000147234
-0.000266833
0.000166728
-0.000287445
0.000265371
-0.000236516
0.000349181
-9.80609e-05
0.000364024
-4.82447e-05
0.000362783
4.33061e-06
0.000334276
1.21417e-05
0.000405141
7.60649e-05
0.000101145
0.000341819
1.07158e-05
-0.000110652
2.05934e-05
-0.000110333
3.06698e-05
-0.000108562
3.88902e-05
-0.000105632
4.57653e-05
-0.000100872
4.97306e-05
-9.39905e-05
4.33479e-05
-7.45198e-05
2.80587e-05
-5.48296e-05
3.23411e-05
-0.000105055
3.64727e-05
-0.000199813
3.52031e-05
-0.000241555
6.12233e-05
-0.000222543
9.40735e-05
-0.000175275
0.000115606
-0.000176237
0.000129658
-0.000280885
0.000163451
-0.000321238
0.000195243
-0.000268307
0.000223486
-0.000126304
0.000257143
-8.1902e-05
0.000293659
-3.2185e-05
0.000297219
8.58107e-06
0.000310444
6.28401e-05
0.000148885
0.000262704
1.07092e-05
-0.000121361
2.16161e-05
-0.00012124
3.17765e-05
-0.000118723
4.19698e-05
-0.000115825
4.96027e-05
-0.000108505
5.43565e-05
-9.87443e-05
3.89456e-05
-5.9109e-05
3.31898e-05
-4.90738e-05
2.84325e-05
-0.000100298
2.26889e-05
-0.000194069
7.22496e-05
-0.000291115
0.000180863
-0.000331155
0.000202129
-0.000196541
0.000217434
-0.000191542
0.000185246
-0.000248697
0.000177857
-0.00031385
0.000150427
-0.000240878
0.000170964
-0.000146841
0.000170737
-8.16753e-05
0.000216357
-7.78049e-05
0.000243033
-1.80946e-05
0.000318913
-1.30404e-05
2.82959e-05
0.000439503
1.31001e-05
-0.000134461
2.41571e-05
-0.000132297
3.52021e-05
-0.000129768
4.80804e-05
-0.000128703
5.80462e-05
-0.00011847
6.63397e-05
-0.000107038
5.36203e-05
-4.63896e-05
6.53816e-05
-6.08351e-05
8.38708e-05
-0.000118787
0.000116856
-0.000227054
0.000151641
-0.000325901
0.000170515
-0.00035003
0.000179653
-0.000205679
0.000198904
-0.000210793
0.000269961
-0.000319754
0.000126473
-0.000170361
0.000110336
-0.000224741
9.95798e-05
-0.000136086
0.000121742
-0.000103837
0.000140696
-9.67584e-05
0.000197116
-7.45144e-05
0.000210708
-2.66326e-05
-2.14241e-06
0.000241146
9.4284e-06
-0.000143889
2.42735e-05
-0.000147142
3.9171e-05
-0.000144665
5.46543e-05
-0.000144187
8.42883e-05
-0.000148104
0.000126047
-0.000148796
0.00016653
-8.68735e-05
0.000217871
-0.000112175
0.000264897
-0.000165813
0.000313685
-0.000275842
0.0003418
-0.000354016
0.000325492
-0.000333723
0.000302078
-0.000182264
0.000343544
-0.000252259
0.000213835
-0.000190045
0.000175729
-0.000132255
0.000151464
-0.000200475
0.000127606
-0.000112228
9.54451e-05
-7.16765e-05
9.57518e-05
-9.70651e-05
7.8186e-05
-5.69485e-05
0.000103432
-5.18781e-05
-0.000102145
0.000203434
6.90045e-06
-0.00015079
1.54094e-05
-0.000155651
3.41745e-05
-0.00016343
5.09995e-05
-0.000161012
5.72722e-05
-0.000154377
9.61117e-05
-0.000187636
0.000168513
-0.000159275
0.000325814
-0.000269476
0.000315963
-0.000155963
0.000366169
-0.000326048
0.00024081
-0.000228658
0.000329341
-0.000422253
0.000326672
-0.000179595
0.000309863
-0.00023545
0.000239004
-0.000119186
0.000231795
-0.000125046
0.000122983
-9.1663e-05
8.28061e-05
-7.20513e-05
6.66201e-05
-5.54905e-05
4.21587e-05
-7.26038e-05
7.12216e-05
-8.60115e-05
0.000105419
-8.60752e-05
-0.000169424
0.000172697
4.95899e-06
-0.000155749
6.83515e-06
-0.000157527
2.69915e-05
-0.000183587
3.93173e-05
-0.000173337
6.08571e-05
-0.000175917
6.98009e-05
-0.000196579
0.000165983
-0.000255457
0.000202316
-0.000305808
0.000251482
-0.00020513
0.000159481
-0.000234046
0.000195388
-0.000264565
0.000203241
-0.000430107
0.000258066
-0.000234419
0.000177189
-0.000154574
0.000169526
-0.000111523
0.000117733
-7.32529e-05
4.69819e-05
-2.09119e-05
1.88086e-05
-4.38778e-05
2.54652e-05
-6.2147e-05
3.83349e-05
-8.54736e-05
5.10596e-05
-9.87361e-05
0.000172659
-0.000207674
-0.000184928
0.000188164
2.35072e-06
-0.000158099
5.07238e-06
-0.000160249
1.35197e-05
-0.000192034
1.30629e-05
-0.000172881
2.13281e-05
-0.000184182
3.98224e-05
-0.000215074
6.9943e-05
-0.000285577
9.92797e-05
-0.000335145
0.000147611
-0.000253461
0.000181016
-0.000267451
0.000202134
-0.000285683
3.00516e-05
-0.000258024
-1.24137e-05
-0.000191954
-3.73002e-05
-0.000129688
-1.49367e-05
-0.000133886
-1.93765e-05
-6.8813e-05
-3.40779e-05
-6.21048e-06
-4.35075e-05
-3.44482e-05
-2.45563e-05
-8.10981e-05
-4.04174e-06
-0.000105988
4.58325e-05
-0.00014861
7.1636e-05
-0.000233477
-0.000266782
0.00015349
1.07573e-06
-0.000159175
5.0586e-06
-0.000164232
9.7732e-06
-0.000196749
9.14218e-06
-0.00017225
5.2465e-06
-0.000180286
1.26097e-05
-0.000222437
1.75157e-06
-0.000274719
-2.61305e-05
-0.000307263
4.21293e-05
-0.00032172
1.46407e-05
-0.000239962
-3.99507e-05
-0.000231091
-0.000136857
-0.000161118
-0.000189559
-0.000139253
-0.00011316
-0.000206087
-0.000142524
-0.000104522
-0.000146554
-6.47829e-05
-8.8596e-05
-6.41686e-05
-7.89904e-05
-4.40537e-05
-3.40513e-05
-0.000126037
-2.78362e-06
-0.000137256
-1.77551e-05
-0.000133639
5.23215e-06
-0.000256465
-0.000279167
1.76166e-05
-1.04728e-06
-0.000158128
-1.20675e-07
-0.000165158
1.7083e-06
-0.000198577
2.26431e-06
-0.000172806
-4.2921e-07
-0.000177593
-3.03624e-06
-0.00021983
-2.44728e-05
-0.000253283
-5.76853e-05
-0.000274051
-9.49649e-05
-0.000284441
-5.14719e-05
-0.000283455
-0.000106641
-0.000175922
-0.000119407
-0.000148351
-0.000132053
-0.000126607
-0.000144732
-0.000193408
-0.000177569
-7.16844e-05
-0.000170768
-7.15847e-05
-0.000162249
-7.26875e-05
-0.000134221
-7.20819e-05
-0.000113297
-0.000146961
-0.000128387
-0.000122166
-4.94312e-05
-0.000212594
-4.6318e-05
-0.000259578
-0.000282301
-4.31844e-05
-1.33688e-06
-0.000156791
-1.2166e-06
-0.000165279
-5.14159e-07
-0.00019928
-2.10447e-06
-0.000171215
-1.53345e-05
-0.000164363
-3.04512e-05
-0.000204713
-5.00625e-05
-0.000233671
-6.91856e-05
-0.000254928
-7.12387e-05
-0.000282388
-9.02928e-05
-0.000264401
-0.000110129
-0.000156085
-0.00013524
-0.000123241
-0.000145595
-0.000116253
-0.000253641
-8.53616e-05
-0.00021735
-0.000107975
-0.000198543
-9.03918e-05
-0.000177598
-9.36327e-05
-0.000171477
-7.82026e-05
-0.000184355
-0.000134083
-0.000169154
-0.000137368
-0.000194989
-0.000186759
-0.00022061
-0.000233957
-0.000273481
-0.00022943
-1.935e-06
-0.000154856
-2.17535e-06
-0.000165038
1.32992e-06
-0.000202785
9.89084e-06
-0.000179776
-3.58848e-05
-0.000118587
-4.49928e-05
-0.000195605
-6.57671e-05
-0.000212897
-9.71605e-05
-0.000223534
-0.000133799
-0.000245749
-0.000162287
-0.000235913
-0.000190454
-0.000127918
-0.000163656
-0.000150039
-0.000164517
-0.000115392
-0.000114751
-0.000135127
-0.000169586
-5.31404e-05
-0.000184016
-7.59608e-05
-0.000203677
-7.39724e-05
-0.000174412
-0.000107467
-0.000195732
-0.000112763
-0.000209545
-0.000123555
-0.000237882
-0.000158421
-0.00027933
-0.000192509
-0.000222427
-0.000330384
-9.49244e-06
-0.000145363
-3.05017e-05
-0.000144029
-1.01883e-05
-0.000223098
-4.28595e-05
-0.000147105
-1.12509e-05
-0.000150196
-4.506e-05
-0.000161796
-9.77133e-05
-0.000160244
-6.59996e-05
-0.000255248
-0.000149838
-0.000161911
-0.000117664
-0.000268088
-0.000122289
-0.000123293
-0.000136969
-0.000135359
-0.000149023
-0.000103338
-0.00016195
-0.000122199
-0.000105581
-0.00010951
-0.000136696
-4.48455e-05
-0.000117499
-9.31697e-05
-0.000169029
-5.59369e-05
-0.000191086
-9.07061e-05
-0.000212985
-0.000101656
-0.000238472
-0.000132934
-0.000275365
-0.000155615
-0.00016002
-0.000337772
5.26947e-06
-0.000150633
1.13799e-05
-0.000150139
-4.45557e-05
-0.000167163
-3.37596e-05
-0.000157901
-2.72243e-05
-0.000156731
-3.43479e-05
-0.000154672
-3.73736e-05
-0.000157218
-0.00013472
-0.000157902
-6.36857e-05
-0.000232945
-0.000173437
-0.000158337
-0.000141571
-0.000155159
-0.000149614
-0.000127315
-0.000101687
-0.000151265
-0.00014448
-7.9406e-05
-0.000166848
-8.71427e-05
-0.000141903
-6.97905e-05
-0.000133495
-0.000101578
-0.00010937
-8.00619e-05
-0.000107473
-9.26026e-05
-0.000110124
-9.90058e-05
-0.000125662
-0.000117397
-0.000148373
-0.000132904
-0.000121607
-0.000186786
-4.4461e-06
-0.000146187
-7.83435e-06
-0.000146751
-2.02232e-05
-0.000154774
-2.68735e-05
-0.00015125
-2.98495e-05
-0.000153755
-3.72719e-05
-0.00014725
-6.46871e-05
-0.000129803
-9.04456e-05
-0.000132143
-0.000115982
-0.000207408
-6.63573e-05
-0.000207962
-9.26479e-05
-0.000128869
-0.000110721
-0.000109242
-0.000174406
-8.75804e-05
-0.000163633
-9.01786e-05
-0.000154525
-9.62513e-05
-0.000136379
-8.79361e-05
-0.000127234
-0.000110723
-0.00011158
-9.57164e-05
-0.000114458
-8.9724e-05
-0.000119271
-9.41931e-05
-0.000133479
-0.000103189
-0.000157155
-0.000109227
-8.99811e-05
-0.000188782
-5.76515e-06
-0.000140422
-1.04448e-05
-0.000142072
-2.2246e-05
-0.000142973
-3.18115e-05
-0.000141685
-5.23441e-05
-0.000133222
-5.85157e-05
-0.000141078
-6.86656e-05
-0.000119653
-2.97717e-05
-0.000171037
-4.57109e-05
-0.000191469
-0.000134152
-0.000119521
-0.000151512
-0.000111509
-0.000159389
-0.000101365
-0.000150528
-9.6441e-05
-0.000143454
-9.72525e-05
-0.00014113
-9.85759e-05
-0.000118443
-0.000110622
-0.000119998
-0.000109168
-0.000114207
-0.000101507
-0.000120765
-8.31656e-05
-0.000126955
-8.80038e-05
-0.000138724
-9.14195e-05
-0.000158244
-8.97076e-05
-6.93168e-05
-0.000178908
-1.00317e-05
-0.00013039
-1.80732e-05
-0.00013403
-3.15706e-05
-0.000129476
-5.91334e-05
-0.000114122
-1.88518e-05
-0.000173504
-4.50425e-05
-0.000114888
-1.39233e-05
-0.000150772
-3.47108e-05
-0.00015025
-5.42582e-05
-0.000171922
-8.28513e-05
-9.09275e-05
-9.90912e-05
-9.52688e-05
-0.000111424
-8.90319e-05
-0.000117587
-9.0278e-05
-0.000121441
-9.33988e-05
-0.000120756
-9.92611e-05
-7.6015e-05
-0.000155363
-0.000110433
-7.47505e-05
-0.000108785
-0.000103156
-0.000122418
-6.95324e-05
-0.000127187
-8.32349e-05
-0.000137723
-8.08831e-05
-0.000155539
-7.18914e-05
-5.26144e-05
-0.000172242
-9.94546e-06
-0.000120445
-2.14186e-05
-0.000122557
-3.87984e-05
-0.000112096
-8.81023e-06
-0.000144111
-3.37207e-05
-0.000148594
-1.19611e-05
-0.000136647
-2.59799e-05
-0.000136753
-4.08887e-05
-0.000135341
-7.66639e-05
-0.000136146
-8.69281e-05
-8.06632e-05
-9.80411e-05
-8.41557e-05
-0.000104388
-8.26846e-05
-0.000109678
-8.49886e-05
-0.000115675
-8.74015e-05
-8.60063e-05
-0.00012893
-0.000146655
-9.47148e-05
-9.85384e-05
-0.000122867
-0.000105346
-9.63485e-05
-0.000114239
-6.0639e-05
-0.000126904
-7.05704e-05
-0.000134556
-7.32303e-05
-0.000147451
-5.89965e-05
-4.12124e-05
-0.000158853
-1.06221e-06
-0.000119382
1.80263e-06
-0.000125422
1.33779e-05
-0.000123671
-4.20706e-06
-0.000126526
-2.30495e-05
-0.000129751
-2.70714e-05
-0.000132625
-2.15173e-05
-0.000142307
-5.46134e-05
-0.000102245
-9.55311e-05
-9.52288e-05
-8.81746e-05
-8.80197e-05
-8.92743e-05
-8.3056e-05
-9.09922e-05
-8.09667e-05
-9.514e-05
-8.08409e-05
-9.51521e-05
-8.73895e-05
-8.92102e-05
-0.000134872
-9.83147e-05
-8.56104e-05
-8.16639e-05
-0.000139518
-0.000111057
-6.69549e-05
-0.000111535
-6.01612e-05
-0.000113084
-6.90216e-05
-0.000124232
-6.20824e-05
-0.000140249
-4.29789e-05
-2.94001e-05
-0.000152062
-2.63534e-06
-0.000116747
-4.25436e-06
-0.000123803
-7.21454e-06
-0.000120711
-1.18919e-05
-0.000121848
-2.07814e-05
-0.000120862
-2.33978e-05
-0.000130009
-5.7146e-05
-0.000108559
-5.75471e-05
-0.000101844
-6.92643e-05
-8.35116e-05
-7.53888e-05
-8.18952e-05
-8.45215e-05
-7.39234e-05
-9.26788e-05
-7.28095e-05
-0.000102981
-7.05385e-05
-7.9878e-05
-0.000110493
-9.03484e-05
-0.000124401
-9.78601e-05
-7.80988e-05
-0.000150026
-8.73523e-05
-9.68589e-05
-0.000120121
-0.000107683
-4.93374e-05
-0.000112801
-6.39028e-05
-0.000125398
-4.94862e-05
-0.000128962
-3.94144e-05
-2.33703e-05
-0.000134992
-2.45286e-06
-0.000114294
7.46024e-07
-0.000127002
8.0801e-06
-0.000128045
-1.72007e-05
-9.65677e-05
-3.14344e-05
-0.000106628
-5.24192e-05
-0.000109024
-5.29409e-05
-0.000108037
-7.08545e-05
-8.39303e-05
-7.19179e-05
-8.24482e-05
-7.72996e-05
-7.65136e-05
-7.91937e-05
-7.20293e-05
-8.32888e-05
-6.87144e-05
-8.83924e-05
-6.54349e-05
-9.07779e-05
-0.000108107
-0.00010263
-0.000112549
-8.18048e-05
-9.89238e-05
-9.74711e-05
-7.16859e-05
-0.000143575
-7.40174e-05
-8.85433e-05
-0.000104369
-0.000107805
-4.46414e-05
-0.000114981
-4.23097e-05
-0.000123416
-3.09797e-05
-1.74066e-05
-0.000129379
-5.84434e-06
-0.00010845
-1.99573e-05
-0.000112889
-3.66083e-05
-0.000111394
-2.95272e-05
-0.000103649
-3.17532e-05
-0.000104402
-3.84834e-05
-0.000102294
-5.87707e-05
-8.77501e-05
-6.09409e-05
-8.17601e-05
-6.49481e-05
-7.84411e-05
-6.9184e-05
-7.22778e-05
-7.1841e-05
-6.93723e-05
-7.5226e-05
-6.53294e-05
-7.71341e-05
-6.35268e-05
-8.03197e-05
-0.000104922
-8.80017e-05
-0.000104868
-9.12368e-05
-9.56888e-05
-9.82326e-05
-6.46901e-05
-9.10112e-05
-8.12388e-05
-0.000132637
-6.27436e-05
-0.000101121
-7.61575e-05
-0.000101729
-4.17014e-05
-0.000109371
-2.3337e-05
-1.40093e-05
-0.000112769
-5.49017e-06
-0.000102959
-1.27287e-05
-0.00010565
-1.95598e-05
-0.000104563
-2.49882e-05
-9.82204e-05
-3.2338e-05
-9.70525e-05
-4.20384e-05
-9.25936e-05
-5.22182e-05
-7.75703e-05
-5.53553e-05
-7.8623e-05
-6.1216e-05
-7.25804e-05
-6.40911e-05
-6.94028e-05
-6.71207e-05
-6.63428e-05
-6.9227e-05
-6.32231e-05
-7.19163e-05
-6.08374e-05
-7.75893e-05
-9.92484e-05
-8.21057e-05
-0.000100351
-8.40485e-05
-9.3746e-05
-6.43817e-05
-8.43569e-05
-8.81486e-05
-5.74719e-05
-9.71016e-05
-5.37906e-05
-8.10848e-05
-9.21743e-05
-9.7331e-05
-2.54552e-05
-0.000102305
-1.83635e-05
-9.75387e-06
-0.00010656
-6.31619e-06
-9.66433e-05
-1.39077e-05
-9.80586e-05
-2.16491e-05
-9.68215e-05
-2.55182e-05
-9.43514e-05
-3.03846e-05
-9.21861e-05
-4.3492e-05
-7.94861e-05
-4.56664e-05
-7.53959e-05
-5.07928e-05
-7.34965e-05
-5.35665e-05
-6.98068e-05
-5.62641e-05
-6.67052e-05
-5.92382e-05
-6.33688e-05
-6.11351e-05
-6.13261e-05
-6.32462e-05
-5.87262e-05
-7.11324e-05
-9.13622e-05
-7.77391e-05
-9.37443e-05
-8.24497e-05
-8.90354e-05
-8.47593e-05
-8.20472e-05
-9.00314e-05
-5.21998e-05
-8.08513e-05
-6.29707e-05
-0.00012552
-4.75057e-05
-8.93684e-05
-6.16066e-05
-9.61169e-05
-1.1615e-05
-9.41263e-06
-9.64581e-05
-5.73582e-06
-9.09075e-05
-1.2112e-05
-9.16824e-05
-1.81753e-05
-9.07581e-05
-2.35018e-05
-8.9025e-05
-3.71236e-05
-7.85642e-05
-4.09329e-05
-7.56768e-05
-4.37424e-05
-7.25864e-05
-4.65882e-05
-7.06507e-05
-4.87293e-05
-6.76657e-05
-4.98603e-05
-6.55742e-05
-5.0651e-05
-6.25781e-05
-5.01442e-05
-6.18329e-05
-4.94417e-05
-5.94287e-05
-7.76745e-05
-6.31294e-05
-7.67981e-05
-9.46206e-05
-7.69706e-05
-8.88629e-05
-7.96938e-05
-7.93239e-05
-6.54365e-05
-6.64571e-05
-8.61834e-05
-4.22238e-05
-9.39268e-05
-3.97623e-05
-0.000117107
-3.84269e-05
-8.94857e-05
-3.92358e-05
-8.03759e-06
-9.08607e-05
-5.04417e-06
-8.58633e-05
-1.14177e-05
-8.53088e-05
-1.6997e-05
-8.51788e-05
-2.85923e-05
-7.74297e-05
-3.1908e-05
-7.52484e-05
-3.49925e-05
-7.25922e-05
-3.76009e-05
-6.99781e-05
-4.06169e-05
-6.76346e-05
-4.32476e-05
-6.50351e-05
-4.58949e-05
-6.29269e-05
-4.83221e-05
-6.01508e-05
-5.16526e-05
-5.85025e-05
-5.42783e-05
-5.68029e-05
-6.02357e-05
-5.7172e-05
-6.40468e-05
-9.08095e-05
-6.7826e-05
-8.50838e-05
-7.12012e-05
-7.59487e-05
-7.09328e-05
-6.67255e-05
-7.45673e-05
-3.85893e-05
-7.96589e-05
-3.46707e-05
-8.70792e-05
-3.10067e-05
-7.15657e-05
-5.47493e-05
-2.37293e-07
-7.93659e-05
-6.59327e-06
-7.927e-05
-1.30389e-05
-7.88631e-05
-2.05191e-05
-7.76986e-05
-2.45505e-05
-7.33982e-05
-2.77634e-05
-7.20355e-05
-3.10256e-05
-6.933e-05
-3.3767e-05
-6.72367e-05
-3.63814e-05
-6.50203e-05
-3.87794e-05
-6.26371e-05
-4.12187e-05
-6.04877e-05
-4.34848e-05
-5.78847e-05
-4.6129e-05
-5.58582e-05
-5.02067e-05
-5.27251e-05
-5.63276e-05
-5.10511e-05
-5.96752e-05
-8.7462e-05
-6.31213e-05
-8.16377e-05
-6.66233e-05
-7.24467e-05
-6.97765e-05
-6.35723e-05
-7.44346e-05
-3.39312e-05
-6.98941e-05
-3.92111e-05
-6.51219e-05
-3.57789e-05
-9.47087e-05
-2.51624e-05
-1.81524e-05
-7.67935e-05
-6.38916e-06
-7.28807e-05
-1.19696e-05
-7.32825e-05
-1.71963e-05
-7.2472e-05
-2.03e-05
-7.02944e-05
-2.37572e-05
-6.85782e-05
-2.64914e-05
-6.65957e-05
-2.91808e-05
-6.45473e-05
-3.16141e-05
-6.2587e-05
-3.39485e-05
-6.03028e-05
-3.6254e-05
-5.81821e-05
-3.84598e-05
-5.56789e-05
-4.09542e-05
-5.33639e-05
-4.32104e-05
-5.04688e-05
-4.62022e-05
-4.80593e-05
-5.05977e-05
-8.30665e-05
-5.51648e-05
-7.70706e-05
-5.97359e-05
-6.78756e-05
-6.24626e-05
-6.08456e-05
-4.99667e-05
-4.64271e-05
-6.32646e-05
-2.59132e-05
-6.4264e-05
-3.47795e-05
-6.95084e-05
-1.99179e-05
-2.39479e-05
-6.37129e-05
-4.05626e-06
-6.88245e-05
-7.93882e-06
-6.93999e-05
-1.18305e-05
-6.85802e-05
-1.5434e-05
-6.66909e-05
-1.84765e-05
-6.55356e-05
-2.14785e-05
-6.35937e-05
-2.40536e-05
-6.19723e-05
-2.67041e-05
-5.99366e-05
-2.90786e-05
-5.79283e-05
-3.15217e-05
-5.5739e-05
-3.38138e-05
-5.33867e-05
-3.61634e-05
-5.10142e-05
-3.84623e-05
-4.817e-05
-4.11602e-05
-4.53614e-05
-4.41419e-05
-8.00847e-05
-4.70033e-05
-7.42091e-05
-4.87671e-05
-6.61118e-05
-5.0962e-05
-5.86507e-05
-5.00848e-05
-4.73043e-05
-5.09588e-05
-2.50392e-05
-5.38088e-05
-3.19294e-05
-5.66086e-05
-1.71181e-05
-3.30122e-05
-4.75442e-05
-3.66919e-06
-6.51553e-05
-7.26216e-06
-6.5807e-05
-1.06544e-05
-6.5188e-05
-1.32577e-05
-6.40876e-05
-1.6037e-05
-6.27563e-05
-1.82581e-05
-6.13726e-05
-2.05682e-05
-5.96622e-05
-2.25525e-05
-5.79522e-05
-2.45607e-05
-5.592e-05
-2.64314e-05
-5.38683e-05
-2.83075e-05
-5.15106e-05
-3.01922e-05
-4.91294e-05
-3.19972e-05
-4.6365e-05
-3.38157e-05
-4.35428e-05
-3.69299e-05
-7.69705e-05
-4.00707e-05
-7.10683e-05
-4.27299e-05
-6.34525e-05
-4.44248e-05
-5.69556e-05
-4.26182e-05
-4.91108e-05
-4.27479e-05
-2.49095e-05
-5.3849e-05
-2.08283e-05
-4.45471e-05
-2.642e-05
-1.09788e-05
-6.65805e-05
-2.41572e-06
-6.27395e-05
-4.79558e-06
-6.34271e-05