/*--------------------------------*- C++ -*----------------------------------*\
| =========                 |                                                 |
| \\      /  F ield         | foam-extend: Open Source CFD                    |
|  \\    /   O peration     | Version:     4.1                                |
|   \\  /    A nd           | Web:         http://www.foam-extend.org         |
|    \\/     M anipulation  |                                                 |
\*---------------------------------------------------------------------------*/
FoamFile
{
    version     2.0;
    format      ascii;
    class       volScalarField;
    location    "0.85";
    object      p;
}
// * * * * * * * * * * * * * * * * * * * * * * * * * * * * * * * * * * * * * //

dimensions      [1 -1 -2 0 0 0 0];

internalField   nonuniform List<scalar> 
2268
(
865.307
862.19
862.692
858.718
868.329
880.021
903.072
930.203
963.589
1005.45
1001.1
1008.9
1042.3
1014.86
1045.1
1033.98
1017.17
1003.54
990.901
983.431
980.132
973.359
969.826
806.908
803.774
803.055
800.873
808.579
818.043
843.296
872.161
913.752
936.829
933.708
968.22
971.219
969.97
997.407
975.443
970.551
944.03
936.409
926.067
923.296
913.617
909.76
748.714
744.847
744.957
740.717
750.711
757.702
779.941
801.994
845.163
872.282
891.801
905.848
899.36
918.386
929.086
913.484
909.267
882.65
866.572
860.763
857.685
854.307
850.055
691.161
686.757
684.542
684.292
686.533
698.072
722.902
758.173
768.301
822.382
831.419
849.67
850.888
864.059
876.875
860.628
842.404
823.01
814.534
803.837
802.032
795.034
791.718
633.752
628.075
627.132
612.819
622.584
629.337
657.523
692.876
703.491
771.954
758.436
788.127
797.285
814.739
825.122
800.887
805.864
765.155
747.903
742.107
732.591
735.133
730.914
578.303
569.457
568.361
558.551
559.749
566.338
592.487
609.812
658.405
676.488
699.498
726.031
741.102
754.255
782.805
724.916
688.965
697.343
682.259
678.793
664.68
676.09
665.034
521.016
512.737
507.65
489.836
503.236
484.389
528.677
543.453
600.68
606
632.421
669.02
691.175
686.243
728.907
665.564
636.15
638.995
617.323
616.248
603.687
615.064
596.16
471.585
452.614
454.466
431.403
441.127
440.243
473.598
463.824
512.242
498.885
561.066
604.356
640.406
658.352
665.053
595.582
663.482
585.4
539.6
544.177
544.623
558.075
541.059
794.914
522.441
464.972
590.756
604.175
543.483
437.066
436.534
421.29
466.426
499.793
554.721
569.656
569.04
595.287
583.61
561.257
542.811
523.362
696.496
437.108
392.398
558.381
553.548
447.253
400.066
402.748
370.57
407.505
461.067
513.96
506.419
506.571
546.211
514.235
494.876
476.711
462.118
543.498
396.363
358.626
483.031
493.907
416.012
345.289
360.777
360.832
383.478
414.268
452.668
476.737
430.054
490.267
514.19
342.447
429.031
415.012
513.519
359.69
327.382
410.443
460.285
325.847
281.694
303.271
321.371
343.575
357.844
364.441
409.078
374.109
419.237
473.368
283.55
371.869
384.888
457.737
351.408
292.912
345.97
374.184
289.183
250.14
247.361
262.848
296.924
318.257
375.686
272.885
347.004
327.989
367.53
218.395
306.272
352.248
419.173
336.937
319.942
333.928
303.89
257.371
232.451
239.312
247.196
260.097
293.468
330.805
242.629
244.895
222.068
293.777
151.036
293.691
299.61
372.978
304.756
294.087
160.967
229.193
232.069
227.269
237.492
242.722
255.823
250.256
226.801
278.763
236.494
134.019
175.365
179.153
209.389
259.906
344.487
314.472
235.672
187.665
197.715
222.466
220.542
232.333
240.072
251.038
237.141
212.345
210.085
154.055
97.5365
109.705
111.556
210.214
240.232
370.218
373.326
354.17
321.733
340.763
340.847
318.708
370.079
363.54
432.826
471.919
526.553
558.113
627.695
672.94
541.766
538.115
495.635
405.878
446.453
444.659
441.765
408.391
306.304
245.063
269.067
183.813
163.518
171.443
197.251
209.821
231.16
260.268
326.527
389.975
423.134
621.17
356.442
262.455
345.736
281.117
265.43
321.314
354.631
311.845
302.819
205.219
169.925
98.5047
72.8067
82.542
67.6612
58.4647
77.1875
75.6405
107.226
203.515
236.038
228.916
326.197
-36.8468
357.748
74.6835
132.543
166.33
258.124
313.973
295.634
195.326
148.893
82.1818
51.9707
34.0029
31.2761
29.4252
22.213
15.6529
9.75484
14.9457
31.0172
50.8292
34.1343
68.3529
-4.18797
25.1168
340.817
323.836
218.628
223.637
208.254
190.155
137.868
62.0914
28.017
32.2178
27.2035
13.6689
7.71003
8.53651
4.89468
3.24628
3.91084
4.87663
12.461
23.2137
5.30602
4.6493
37.5123
98.7923
125.338
117.132
170.183
212.433
120.745
124.384
92.0899
33.1041
26.0746
18.1113
5.47985
3.7366
4.80707
3.74299
3.05948
2.95191
0.821323
6.72282
6.60947
2.90961
2.40196
5.11115
-5.21168
18.567
62.0135
109.168
35.9179
58.565
70.3861
40.1636
17.0123
9.96765
5.58956
4.58869
3.83016
3.74276
3.32465
2.92955
2.64654
2.47963
0.791715
1.7211
1.57893
1.64327
1.66228
0.719198
3.97536
22.6266
34.2003
85.1092
81.7282
20.4111
20.9418
9.7152
7.3386
4.89837
4.47716
3.7618
3.49243
3.20964
2.56841
1.65989
1.40197
1.72071
1.6025
1.47111
1.33743
1.26085
1.14128
1.1952
2.39272
7.94329
40.6116
93.2286
-5.12961
15.1387
6.53209
5.06288
4.72936
4.26957
3.64424
2.4338
2.37205
1.42768
0.766788
0.0285721
0.313224
0.709275
0.967068
0.906506
1.12438
0.690028
0.559921
0.651483
0.87568
12.6906
6.79239
5.50052
6.2044
6.08286
5.6681
4.4784
4.02186
2.93118
1.44689
0.542943
-0.547258
0.072374
0.0923463
0.179831
0.49982
0.741846
0.257408
0.298778
-0.0152835
0.0265083
0.0996888
-0.991118
-1.24364
-4.81091
-8.5908
6.22528
5.51499
3.96226
3.91829
2.99638
0.546636
-1.14611
-0.666798
-0.948525
-1.26326
-0.696331
-0.863819
-0.497703
-0.211429
-0.45338
-0.0527705
-0.139723
0.331694
-0.243678
-1.60068
-1.3076
-2.49205
-2.68987
8.00537
3.80044
3.43627
2.17826
0.993309
-3.14648
-2.56744
-2.28993
-2.83938
-2.63588
-1.98214
-3.12799
-1.80382
-1.0791
-0.198425
-0.27042
-0.312672
-0.260438
-0.608049
-1.09725
-1.17392
-1.37827
-1.42566
7.22664
-1.19915
-1.42278
-0.234661
-1.31575
-3.2096
-3.67618
-3.34363
-3.44145
-3.26578
-3.34565
-3.11708
-2.29922
-1.82114
-0.375921
-1.04004
-0.590489
-0.464332
-0.686757
-0.978733
-0.66496
-1.31491
-2.94427
-1.35544
-2.82268
-2.88176
-3.30639
-3.39842
-3.55346
-3.45967
-4.41314
-4.32845
-4.80114
-5.69074
-4.62787
-3.58201
-3.09579
-1.20162
-0.504124
-0.696111
-0.608095
-0.571179
-0.910172
-1.11431
-1.13862
-1.97793
1.54247
-4.82052
-4.59058
-6.40116
-4.81296
-4.13991
-4.28922
-4.7877
-6.13036
-6.43766
-5.83396
-4.87709
-3.88531
-2.18334
-1.07629
-0.345854
-0.170581
-0.0769652
-0.288753
-0.774976
-1.60515
-0.882286
-1.909
-5.93543
-4.69219
-3.9523
-6.17909
-4.58995
-4.35685
-4.17166
-4.86966
-6.38831
-7.1924
-6.18412
-4.63086
-3.74446
-1.51579
-0.864583
0.166729
-0.302966
-0.403329
-0.518269
-1.20578
-1.37552
-1.42839
-1.707
3.25351
-3.63574
-1.89846
-2.81921
-3.29961
-4.1959
-3.66301
-4.73348
-5.91472
-6.22469
-5.67463
-4.62127
-2.72512
1.09557
-0.247846
0.333661
-0.187319
-0.326142
-0.382056
-1.03617
-1.26845
-1.52672
-1.48326
6.75041
-1.11674
-0.155975
-1.10263
-3.28723
-4.059
-4.46459
-5.05171
-5.42069
-5.00271
-4.24482
-4.1515
-2.94513
2.04847
-1.8108
0.256408
0.461875
-0.189718
-0.753289
-1.1967
-1.15602
-1.49102
-1.64044
2.34627
0.0398861
0.943083
-1.10085
-3.07194
-3.64661
-4.48415
-4.27994
-3.96164
-3.82939
-3.88272
-4.15144
-3.00669
-7.2993
-3.51764
-0.363117
-0.582914
-0.758369
-1.24635
-1.59572
-1.9505
-2.02098
-2.36025
2.29845
1.31438
1.07497
-0.762239
-2.78133
-3.59693
-4.23083
-4.11562
-2.93343
-2.34745
-3.85994
-4.11473
-3.85215
-5.34938
-3.79923
-2.32324
-2.24833
-2.03085
-2.36053
-2.80954
-2.68838
-2.36793
-2.74593
2.34217
2.24384
2.03475
0.449173
-2.18192
-5.92197
-5.93957
-3.8822
-3.83574
-4.35002
-3.0451
-4.07076
-4.36052
-4.6424
-3.96141
-4.07881
-4.17303
-3.81747
-3.99512
-3.74372
-3.19925
-2.97671
-2.53853
1.87542
1.75618
1.46585
-1.347
-3.80217
-5.34742
-3.26815
-3.79728
-4.71493
-4.43224
-4.29395
-4.15286
-4.72419
-4.62282
-4.46934
-5.05986
-5.68106
-5.21304
-4.84787
-4.37884
-3.70175
-3.60925
-3.17655
1.6009
1.65119
0.572563
-2.38714
-4.05826
-5.02451
-4.58036
-5.81863
-5.05867
-4.81743
-3.97011
-4.87045
-4.97902
-4.94017
-4.61156
-4.83301
-5.17999
-5.69686
-5.55643
-5.07158
-4.899
-4.14829
-3.57935
1.12365
0.579087
-1.0054
-2.69833
-4.05638
-4.86112
-5.62876
-5.57608
-5.59398
-5.37751
-5.26976
-5.18664
-5.34532
-4.86418
-5.00846
-5.03222
-4.70794
-5.96818
-5.79522
-4.90207
-5.16882
-4.13741
-3.57889
0.32232
-1.13779
-2.05274
-3.06683
-3.94761
-4.8045
-5.78665
-6.46067
-6.35472
-6.67978
-5.88204
-5.52256
-5.15105
-4.66645
-4.53823
-4.87313
-5.23945
-5.31695
-5.38254
-5.40438
-4.64112
-4.87036
-3.99964
0.600608
-1.5621
-2.17171
-2.71044
-3.9354
-4.84093
-5.90115
-7.05567
-7.73874
-6.9162
-8.65723
-3.71968
-4.51394
-4.54859
-4.11929
-4.53806
-5.05607
-5.40342
-5.14003
-4.72855
-4.93971
-4.21033
-4.18772
0.135767
-1.35338
-1.99231
-2.53868
-3.53615
-4.55285
-5.49861
-6.86686
-7.86675
-5.04874
-4.92018
-5.84016
-4.73944
-4.43454
-4.81327
-4.24965
-4.3263
-4.51145
-4.974
-4.86381
-4.76188
-4.49423
-4.25033
-1.1442
-1.8042
-2.06022
-2.64361
-3.40428
-4.2194
-4.83338
-5.67284
-5.5253
-4.23214
-3.75632
-4.40631
-4.02806
-3.55962
-3.58081
-3.90386
-4.33885
-4.15055
-4.51981
-4.41679
-4.6468
-4.34499
-4.32385
-1.9721
-2.47327
-2.0286
-2.39494
-3.22208
-3.87163
-4.35463
-4.44943
-4.02633
-4.40846
-3.68969
-3.44998
-3.72103
-3.65556
-3.67186
-3.92488
-4.48063
-4.60357
-4.65099
-4.73384
-5.02891
-4.53545
-4.72854
-2.17261
-2.52415
-2.61872
-2.81834
-3.375
-3.91357
-4.16209
-3.90426
-3.54079
-4.19541
-3.23367
-3.51902
-4.08187
-4.44308
-4.45784
-4.37928
-4.58815
-4.4734
-4.49692
-4.54921
-4.55986
-4.57406
-4.21185
-2.66148
-2.15341
-2.9158
-3.11862
-3.86385
-4.17822
-4.21663
-3.91387
-3.36582
-3.52403
-3.8142
-3.96004
-3.91342
-4.46575
-4.62897
-4.47896
-4.88771
-4.71123
-4.35452
-4.36501
-4.41482
-4.24252
-4.23482
-3.34665
-3.77105
-3.45077
-3.57474
-3.99652
-4.16364
-4.39504
-3.98287
-3.86673
-3.79029
-3.86412
-3.76212
-3.83846
-4.2679
-4.44064
-4.18442
-4.75334
-4.95817
-4.49187
-4.38834
-4.29112
-4.53369
-4.46858
-3.49602
-3.84974
-2.91313
-4.3457
-4.42713
-4.43984
-4.34804
-4.17923
-4.06037
-4.02015
-3.94116
-4.04823
-3.89287
-4.29278
-4.55801
-4.57931
-4.82814
-4.80741
-4.47564
-4.54195
-4.51601
-4.56944
-4.61939
-3.82881
-4.08124
-4.47022
-4.53714
-4.47164
-4.5455
-4.51347
-4.52657
-4.37162
-4.30041
-4.3305
-4.40421
-4.3922
-4.42817
-4.49179
-4.25468
-4.72149
-4.64571
-4.82222
-4.71678
-4.625
-4.65037
-4.57461
-3.91397
-4.09585
-4.42213
-4.53595
-4.57752
-4.74893
-4.67029
-4.67695
-4.60605
-4.56743
-4.55282
-4.60836
-4.59707
-4.63397
-4.68641
-4.80125
-4.80687
-4.86473
-4.87771
-4.75886
-4.83349
-4.91052
-4.763
-3.48062
-4.47306
-4.57303
-4.83689
-4.63479
-5.03982
-4.80855
-4.91096
-4.84762
-4.82008
-4.79659
-4.79391
-4.78043
-4.77342
-4.76911
-4.65805
-4.61141
-4.89068
-4.83863
-4.96594
-4.89941
-4.99195
-5.09404
-2.36028
-5.46105
-4.92336
-5.2217
-4.89487
-5.18482
-5.10008
-5.13451
-5.06697
-5.0281
-4.99405
-4.95551
-4.92542
-4.88234
-5.04692
-4.99123
-5.12224
-5.01843
-5.02689
-5.08506
-5.06847
-5.03838
-5.1297
2.01593
-5.48043
-5.1095
-5.70052
-5.48131
-5.52588
-5.40646
-5.36105
-5.28101
-5.23808
-5.1873
-5.13939
-5.04647
-5.12318
-5.09532
-5.07279
-5.13495
-5.17529
-5.12659
-5.15163
-5.16517
-5.18754
-5.2941
-10.2195
-7.5004
-5.56941
-6.17618
-5.81622
-5.78479
-5.61447
-5.55193
-5.46851
-5.40454
-5.34301
-5.25315
-5.2075
-5.27995
-5.37387
-5.18794
-5.27128
-5.31886
-5.2678
-5.31892
-5.34509
-5.34076
-5.33282
-10.5701
-7.96232
-6.1678
-6.58424
-6.02665
-5.88316
-5.71946
-5.60375
-5.528
-5.43555
-5.42541
-5.35958
-5.4381
-5.31606
-5.45843
-5.47822
-5.26521
-5.40819
-5.45655
-5.4953
-5.39439
-5.44748
-5.43302
-9.16853
-7.76542
-6.48634
-6.49668
-6.02195
-5.87553
-5.60626
-5.74148
-5.50982
-5.41087
-5.41838
-5.42215
-5.52554
-5.50566
-5.60729
-5.51003
-5.55066
-5.48344
-5.61514
-5.58715
-5.71049
-5.51863
-5.73412
-11.3183
-8.70081
-6.90436
-6.42173
-5.9901
-5.82284
-5.71409
-5.59337
-5.75644
-5.62002
-5.7004
-5.71089
-5.68516
-5.75571
-5.6847
-5.73225
-5.65514
-5.5732
-5.82161
-5.62849
-5.5522
-5.70833
-5.64376
396.054
391.186
409.796
388.255
267.646
233.392
222.102
261.78
287.226
259.087
259.576
192.009
118.48
108.464
108.975
92.1989
95.0403
88.4341
106.835
39.5613
54.5532
38.0322
6.7628
33.9543
9.07216
8.83408
3.84835
-2.08945
-2.82743
-0.545889
0.818237
2.16297
-4.9532
-4.5119
-3.83981
-2.2112
-5.14769
-3.0847
-2.39435
-1.73537
-1.3947
-0.882363
-0.513485
0.123177
0.542589
0.669749
0.354219
0.194983
-2.69057
-2.5803
-0.997905
-1.67165
-2.49518
-2.61322
-2.3416
-1.85366
-1.97256
-1.78088
-1.69286
-1.53675
-1.70876
-1.63395
-1.43632
-1.41603
-1.5751
-1.79014
-1.69433
-1.6922
-1.76405
-1.66845
-1.72943
-1.59787
-2.33481
-2.1065
-1.98859
-1.94691
-2.70276
-2.68946
-2.65231
-2.55798
-2.50389
-2.60296
-2.56237
-2.45172
-2.93644
-2.73083
-2.47032
-2.65458
-3.41492
-3.36573
-3.41033
-3.22785
-3.39408
-3.32311
-3.24351
-3.37474
-3.48591
-3.32663
-3.23862
-3.13572
-4.05839
-3.7265
-3.54891
-3.54966
-4.1306
-3.99435
-3.69492
-3.50624
-4.27973
-4.31893
-4.39862
-4.24378
-4.55104
-4.30528
-4.31383
-4.36482
-4.5059
-4.48239
-4.46678
-4.33264
-4.3633
-4.26709
-4.09391
-4.12947
-4.59919
-4.4985
-4.46067
-4.42943
-4.67247
-4.6609
-4.64573
-4.65217
-4.62355
-4.71834
-4.66805
-4.63701
-4.81747
-4.88451
-4.91291
-4.98978
-4.96343
-4.95929
-4.94072
-4.93324
-5.21251
-5.13273
-5.19982
-5.10661
-5.30367
-5.46482
-5.42736
-5.44013
-5.42159
-5.32676
-5.32895
-5.36314
-5.37972
-5.35773
-5.40296
-5.49418
-5.7971
-5.81366
-5.78503
-5.72052
-5.66755
-5.68676
-5.74616
-5.84566
339.126
316.684
279.436
241.895
214.752
204.358
209.245
224.469
233.583
225.293
175.218
266.087
180.163
68.1932
78.8178
60.0442
68.1516
105.387
158.057
268.395
240.805
213.811
234.458
183.552
198.068
205.611
211.52
217.303
161.879
344.754
133.071
74.8196
35.3366
41.0594
35.8874
40.9996
10.1698
35.6172
252.816
180.837
136.082
159.177
135.431
209.025
192.168
192.81
188.294
126.27
192.088
74.7373
10.2905
17.9976
21.8561
22.2809
2.90745
5.56576
10.5993
83.649
73.9635
78.0064
28.3077
72.737
191.065
173.307
191.272
158.342
42.0144
7.99185
-0.00931105
9.29664
7.69106
7.16878
3.00386
-4.79611
-5.84337
5.61638
44.3932
25.8536
11.9902
13.6033
47.5549
96.0081
90.3515
149.304
96.3844
30.7059
-1.88769
9.25833
6.97078
4.27494
3.19927
2.93764
0.26822
5.70332
8.5189
15.5004
10.4116
9.18259
6.11486
11.1002
24.0054
22.5633
28.8354
24.4429
13.9497
16.428
5.60933
2.63106
1.40545
1.31602
0.632102
1.37492
5.40531
9.95092
-8.82737
-1.01569
4.37337
4.56488
3.36642
3.79037
3.98014
10.4712
7.39684
10.2916
6.7765
5.02428
1.89518
1.81984
0.781173
-0.753513
1.28961
3.766
4.39529
2.79348
-1.4899
-0.489303
2.23883
2.94843
3.81397
5.67426
5.63587
4.4673
5.14147
6.48305
2.27708
1.24599
1.08089
0.262958
-0.502633
-0.435086
3.02973
4.58333
0.290706
0.0591848
0.942502
1.96347
2.22947
2.47098
1.09052
4.12506
3.62064
4.84072
2.82556
1.68903
0.94964
0.399462
-0.7733
-1.67805
-2.07015
0.965826
3.8596
-0.564909
-0.447798
0.617585
0.558942
1.3867
2.05043
1.62274
1.74053
2.12237
-0.543382
2.52852
0.586887
0.453781
0.0650688
-0.794738
-2.12242
-0.819783
-0.441901
3.35338
0.0409079
0.142717
0.00704053
-0.432428
0.593903
1.93484
1.98842
2.17957
2.5033
3.05733
-9.64089
-3.81256
-0.100029
-0.265254
-1.23295
-1.51225
-1.06484
-1.86637
1.32724
-0.137366
0.0812683
-0.103958
-0.404376
-0.107279
0.363645
-0.771663
-1.08071
-1.367
2.21713
4.11713
-0.489221
-0.451107
-0.951973
-0.787983
-0.786654
-0.659005
-0.328753
0.451693
-1.08003
-0.831408
-0.643961
-0.847921
-0.668477
-0.680054
-1.01534
-1.59071
-0.989148
-0.194339
-0.492619
2.3193
-2.58479
-0.226295
-0.903445
-0.612187
-0.547606
-0.0310502
0.0823752
-1.00556
-1.17215
-0.953117
-1.37214
-1.27738
-2.02513
-1.63675
-1.07227
-1.32263
-1.08065
-1.06714
-1.40436
-1.97997
-1.54712
-0.831819
-1.06018
-0.415114
-0.0440174
-0.252594
-1.37694
-1.14319
-1.09872
-1.3982
-1.40577
-1.41857
-1.48971
-1.62845
-1.54736
-1.36266
-1.44167
-1.66757
-1.21153
-0.468207
-0.484156
-0.756715
-0.949872
-0.608488
-0.575992
-1.40663
-1.15181
-1.18088
-1.60103
-1.58278
-1.61345
-1.58049
-1.68393
-1.59422
-1.56823
-1.53502
-1.54354
-1.53909
-1.54476
-1.25704
-1.11688
-1.11088
-0.982259
-0.942087
-1.35054
-1.33158
-1.52031
-1.60731
-1.71252
-1.70706
-1.64928
-1.84722
-1.71522
-1.76499
-1.99093
-1.62025
-1.85298
-1.61212
-1.58287
-1.4365
-1.4596
-1.42186
-1.28442
-1.5949
-1.5636
-1.69633
-1.76031
-1.82418
-1.89001
-1.8587
-1.88525
-1.75758
-1.80973
-1.82796
-1.82316
-1.79846
-1.76407
-1.69667
-1.69118
-1.4823
-1.48571
-1.47034
-1.81703
-1.91676
-1.89917
-1.85642
-1.91817
-1.95895
-2.00367
-2.03101
-2.06491
-2.14163
-1.9851
-1.95066
-1.87681
-1.82844
-1.84516
-1.81829
-1.72381
-1.71388
-1.63542
-2.01652
-1.93659
-2.28698
-2.0278
-2.05741
-2.08179
-2.12389
-2.15573
-2.12618
-2.18903
-2.16066
-2.08942
-2.02354
-1.96949
-2.12384
-1.92789
-1.92209
-1.90428
-1.86534
-2.99161
-2.79025
-2.0443
-2.26915
-2.22232
-2.18087
-2.26564
-2.52385
-2.27095
-2.14995
-2.16115
-2.19105
-2.15668
-2.12486
-2.22372
-2.14259
-2.12591
-2.11782
-2.11208
-2.77573
-2.85081
-2.46754
-2.43322
-2.42319
-2.63941
-2.35972
-2.45144
-2.43429
-2.39556
-2.31562
-2.32351
-2.32015
-2.3512
-2.40997
-2.37761
-2.47905
-2.30917
-2.36402
-2.46859
-2.99789
-2.76884
-2.77337
-2.64642
-2.72878
-2.92894
-2.43929
-2.62987
-2.66462
-2.60234
-2.48488
-2.45513
-2.52629
-2.55053
-2.51041
-2.54369
-2.44372
-2.50185
-3.44704
-2.59117
-2.91225
-2.93673
-2.96389
-2.99211
-2.86599
-2.9066
-2.71468
-2.61817
-2.75441
-2.65137
-2.59947
-2.75533
-2.73942
-2.72511
-2.84155
-2.62779
-2.68264
-3.28094
-3.15004
-3.063
-3.06357
-2.91075
-2.71034
-2.83741
-3.01551
-2.89985
-2.92716
-3.03379
-2.83587
-2.85495
-2.97429
-2.94366
-2.95965
-2.7241
-2.82311
-2.84075
-3.07504
-3.2105
-3.29404
-3.23484
-3.2948
-3.10218
-2.95789
-3.2277
-3.02778
-3.15337
-3.32708
-2.97293
-3.12918
-3.21701
-3.18771
-3.21524
-3.1372
-3.10169
-3.09302
-3.49069
-3.60757
-3.51909
-3.24354
-3.19256
-3.13696
-2.83821
-3.30372
-3.16866
-3.05172
-3.55752
-3.49864
-3.29115
-3.35422
-3.43902
-3.40827
-3.43529
-3.33478
-3.30036
-3.82891
-3.83033
-3.75281
-4.12824
-3.96142
-3.6227
-3.42378
-3.70339
-3.76858
-3.34449
-3.41624
-3.63189
-3.55379
-3.56685
-3.72301
-3.63609
-3.60522
-3.52252
-3.48933
-4.42964
-4.29525
-4.42844
-4.27245
-4.17821
-3.8585
-3.45416
-3.42687
-3.95711
-3.78737
-3.95792
-3.9377
-3.71184
-3.6084
-3.87067
-3.69312
-3.71333
-3.66298
-3.63615
-4.09298
-4.09856
-4.37102
-4.05244
-3.92635
-4.53298
-4.13803
-3.95487
-4.33758
-4.2164
-4.30686
-4.25858
-3.92471
-3.7596
-3.83446
-3.73207
-3.77834
-3.83169
-3.78716
-4.36657
-4.54675
-4.54209
-4.2173
-4.25909
-4.05499
-4.87739
-4.4288
-4.49101
-4.40902
-4.39692
-4.29589
-4.16764
-4.3689
-4.02637
-3.98709
-3.9779
-3.94079
-3.94401
-4.36963
-4.34235
-4.31579
-4.00198
-4.35735
-4.47861
-4.82766
-4.69597
-4.54465
-4.80353
-4.59372
-4.48116
-4.30813
-4.22042
-3.95326
-4.1036
-4.14331
-4.1163
-4.10364
-4.80702
-4.54099
-4.09898
-4.35935
-4.47099
-4.39559
-4.27709
-4.97295
-4.83428
-5.01088
-4.96446
-4.87521
-4.57731
-4.41811
-4.24715
-4.31671
-4.25554
-4.32803
-4.29718
-4.53308
-4.8057
-5.0041
-4.82412
-4.75225
-4.63689
-4.58329
-4.95542
-5.15891
-5.21748
-5.05001
-4.69704
-4.62138
-4.55118
-4.44329
-4.49841
-4.56971
-4.51894
-4.49111
-4.83463
-4.9391
-5.08796
-4.99365
-5.03198
-4.86743
-5.566
-5.17941
-5.19253
-5.17313
-5.14086
-5.02718
-4.79995
-4.78812
-4.67269
-4.74074
-4.72063
-4.62348
-4.64223
-4.90066
-4.92471
-4.79402
-5.1278
-5.25729
-5.81521
-5.60834
-5.37936
-5.28671
-5.18636
-5.13434
-5.09282
-4.93741
-4.91993
-4.90486
-4.89432
-4.88649
-4.89725
-4.81831
-5.05197
-5.10407
-5.13674
-5.17388
-5.31834
-5.5527
-5.0391
-5.32793
-5.29645
-5.366
-5.07119
-5.05607
-4.88403
-5.0143
-5.03077
-5.01802
-4.9762
-4.91787
-4.93023
-5.58068
-5.36521
-5.23432
-5.14855
-5.33693
-5.0344
-5.17643
-5.2563
-5.33944
-5.28038
-5.27881
-5.14407
-5.25896
-5.17403
-5.18624
-5.13713
-5.13634
-5.08661
-5.04683
-5.44584
-5.53637
-5.35403
-5.83299
-5.55792
-5.4232
-5.69816
-5.74652
-5.62178
-5.4465
-5.36942
-5.36269
-5.29873
-5.35829
-5.35486
-5.26223
-5.26311
-5.23128
-5.25108
-5.35852
-5.65316
-5.93857
-5.82569
-5.74511
-6.0291
-5.72978
-5.81409
-5.64605
-5.58829
-5.45204
-5.42078
-5.41967
-5.46908
-5.46255
-5.40691
-5.41154
-5.39724
-5.41903
-5.62346
-5.6835
-5.91095
-5.97122
-5.73586
-5.88518
-5.87575
-5.81491
-5.74174
-5.60165
-5.53793
-5.49106
-5.4196
-5.55263
-5.5085
-5.61452
-5.50879
-5.49693
-5.49921
-5.90764
-6.0128
-5.84589
-5.79254
-6.06302
-5.80318
-5.73617
-5.71166
-5.6961
-5.66223
-5.73987
-5.69888
-5.82594
-5.70244
-5.80324
-5.67003
-5.70924
-5.7058
-5.68884
)
;

boundaryField
{
    leftWall
    {
        type            calculated;
        value           nonuniform List<scalar> 
50
(
865.307
806.908
748.714
691.161
633.752
578.303
521.016
471.585
370.218
306.304
205.219
148.893
62.0914
92.0899
40.1636
20.9418
15.1387
6.2044
6.22528
8.00537
7.22664
-1.35544
1.54247
-5.93543
3.25351
6.75041
2.34627
2.29845
2.34217
1.87542
1.6009
1.12365
0.32232
0.600608
0.135767
-1.1442
-1.9721
-2.17261
-2.66148
-3.34665
-3.49602
-3.82881
-3.91397
-3.48062
-2.36028
2.01593
-10.2195
-10.5701
-9.16853
-11.3183
)
;
    }
    rightWall
    {
        type            calculated;
        value           nonuniform List<scalar> 
50
(
523.362
462.118
415.012
384.888
352.248
299.61
259.906
240.232
158.057
35.6172
10.5993
5.61638
8.5189
9.95092
4.39529
4.58333
3.8596
3.35338
1.32724
0.451693
0.0823752
-0.252594
-0.575992
-0.942087
-1.28442
-1.47034
-1.63542
-1.86534
-2.11208
-2.36402
-2.50185
-2.68264
-2.84075
-3.09302
-3.30036
-3.48933
-3.63615
-3.78716
-3.94401
-4.10364
-4.29718
-4.49111
-4.64223
-4.81831
-4.93023
-5.04683
-5.25108
-5.41903
-5.49921
-5.68884
)
;
    }
    lowerWall
    {
        type            calculated;
        value           nonuniform List<scalar> 
62
(
894.736
891.62
892.121
888.147
897.758
909.45
932.501
959.632
993.019
1034.88
1030.53
1038.33
1071.73
1044.29
1074.53
1063.41
1046.6
1032.97
1020.33
1012.86
1009.56
1002.79
999.255
969.826
909.76
850.055
791.718
730.914
665.034
596.16
541.059
458.454
453.758
472.382
450.842
794.914
696.496
543.498
513.519
457.737
419.173
372.978
344.487
822.298
543.688
485.026
617.22
630.638
569.946
463.424
462.411
447.255
493.698
527.42
582.301
597.964
597.961
624.126
612.189
590.302
571.954
552.337
)
;
    }
    atmosphere
    {
        type            calculated;
        value           nonuniform List<scalar> 
46
(
-13.5327
-6.94158
-5.83295
-5.72999
-5.72904
-5.72904
-5.72904
-5.72904
-5.72904
-5.72904
-5.72904
-5.72904
-5.72917
-5.72914
-5.74216
-5.74274
-5.73189
-5.72907
-5.73267
-5.77154
-5.78396
-5.73241
-5.80465
-5.86836
-5.88611
-5.895
-5.90656
-5.90479
-5.95678
-5.99063
-5.98061
-5.99074
-5.97231
-5.92365
-5.87264
-5.8205
-5.775
-5.75077
-5.74557
-5.73609
-5.74837
-6.00983
-5.96017
-5.74512
-5.72907
-5.72904
)
;
    }
    defaultFaces
    {
        type            empty;
    }
}


// ************************************************************************* //
