/*--------------------------------*- C++ -*----------------------------------*\
| =========                 |                                                 |
| \\      /  F ield         | foam-extend: Open Source CFD                    |
|  \\    /   O peration     | Version:     4.1                                |
|   \\  /    A nd           | Web:         http://www.foam-extend.org         |
|    \\/     M anipulation  |                                                 |
\*---------------------------------------------------------------------------*/
FoamFile
{
    version     2.0;
    format      ascii;
    class       surfaceScalarField;
    location    "0.85";
    object      phi_0;
}
// * * * * * * * * * * * * * * * * * * * * * * * * * * * * * * * * * * * * * //

dimensions      [0 3 -1 0 0 0 0];

internalField   nonuniform List<scalar> 
4432
(
-1.91179e-06
1.91179e-06
-3.47926e-06
1.56747e-06
-4.48464e-06
1.00539e-06
-3.57852e-06
-9.06121e-07
-5.69613e-06
2.11761e-06
-8.09685e-06
2.40073e-06
-8.89823e-06
8.01379e-07
-9.20966e-06
3.11424e-07
-7.95483e-06
-1.25482e-06
-1.04263e-05
2.47145e-06
-1.1447e-05
1.02069e-06
-6.69479e-06
-4.75218e-06
-1.04138e-05
3.71898e-06
-5.57967e-06
-4.83411e-06
-7.26649e-06
1.68683e-06
-9.80029e-07
-6.28646e-06
2.93584e-06
-3.91587e-06
5.56442e-06
-2.62858e-06
6.28094e-06
-7.16517e-07
5.01307e-06
1.26786e-06
3.13683e-06
1.87625e-06
1.73664e-06
1.40019e-06
1.73664e-06
-4.41982e-07
2.35377e-06
-7.74851e-07
1.90034e-06
-2.1564e-06
2.38693e-06
-3.97156e-06
9.09043e-07
-5.55657e-06
3.70262e-06
-7.89579e-06
4.73994e-06
-8.51225e-06
1.41784e-06
-7.875e-06
-3.25826e-07
-1.2359e-05
3.22915e-06
-1.1215e-05
1.32743e-06
-7.44422e-06
-2.75004e-06
-1.26039e-05
4.0752e-07
-1.29234e-05
4.03848e-06
-7.44522e-06
-1.03123e-05
-5.89162e-06
1.33221e-07
-3.15387e-06
-9.02421e-06
1.00778e-06
-8.07752e-06
4.3313e-06
-5.9521e-06
5.17793e-06
-1.56315e-06
4.09638e-06
2.34941e-06
1.38965e-06
4.58298e-06
4.63159e-07
2.32668e-06
2.19979e-06
-1.45703e-06
3.81081e-06
-3.53585e-06
3.97915e-06
-5.54298e-06
4.39406e-06
-8.44252e-06
3.80858e-06
-1.12727e-05
6.53279e-06
-7.89962e-06
1.36688e-06
-8.51647e-06
2.03469e-06
-8.59451e-06
-2.47788e-07
-1.55362e-05
1.01708e-05
-8.85689e-06
-5.35184e-06
-1.54659e-05
3.85896e-06
-1.62135e-05
1.15513e-06
-1.01439e-05
-2.03114e-06
-1.74343e-05
-3.02189e-06
-7.73881e-06
-9.56226e-06
-1.12115e-05
-5.55156e-06
-2.5237e-06
-1.67653e-05
6.36052e-07
-9.11185e-06
3.23048e-06
-4.15758e-06
2.8697e-06
2.71019e-06
1.58069e-06
5.87199e-06
6.39818e-07
3.26755e-06
2.83961e-06
-1.80381e-06
5.61461e-06
-2.95024e-06
5.12559e-06
-3.0618e-06
4.50561e-06
-4.0815e-06
4.82828e-06
-5.85212e-06
8.30341e-06
-8.64622e-06
4.16098e-06
-9.26512e-06
2.65359e-06
-1.77181e-05
8.20517e-06
-1.14214e-05
3.87416e-06
-2.04721e-05
3.69879e-06
-2.22857e-05
5.67261e-06
-2.50182e-05
3.88767e-06
-2.55636e-05
-1.48577e-06
-2.48277e-05
-3.75781e-06
-2.05866e-05
-1.38033e-05
-1.55961e-05
-1.05421e-05
-9.36495e-06
-2.29964e-05
-3.80145e-06
-1.46753e-05
-8.25569e-07
-7.13346e-06
2.58377e-07
1.62624e-06
2.833e-07
5.84707e-06
1.79269e-07
3.37158e-06
3.01888e-06
-1.87946e-06
7.49407e-06
-2.71158e-06
5.95771e-06
-4.33178e-06
6.12582e-06
-7.1268e-06
7.6233e-06
-6.52701e-06
7.70362e-06
-1.00563e-05
7.69032e-06
-1.07187e-05
3.31594e-06
-1.16985e-05
9.18498e-06
-1.26585e-05
4.83414e-06
-2.16675e-05
1.27078e-05
-2.6337e-05
1.03422e-05
-2.98575e-05
7.40816e-06
-3.02342e-05
-1.10907e-06
-2.83073e-05
-5.6847e-06
-2.41225e-05
-1.79881e-05
-1.84034e-05
-1.62612e-05
-1.03111e-05
-3.10887e-05
-7.00993e-06
-1.79765e-05
-5.72831e-06
-8.41508e-06
-4.53776e-06
4.35689e-07
-2.6397e-06
3.94901e-06
-5.74881e-07
1.30677e-06
2.444e-06
-1.36335e-06
8.85742e-06
-4.54083e-06
9.13519e-06
-7.08728e-06
8.67227e-06
-9.37397e-06
9.90999e-06
-7.36193e-06
5.69158e-06
-1.04208e-05
1.07492e-05
-1.13276e-05
4.22275e-06
-1.23602e-05
1.02176e-05
-2.41414e-05
1.66154e-05
-2.69152e-05
1.54816e-05
-3.04934e-05
1.39203e-05
-3.24822e-05
9.39697e-06
-3.23743e-05
-1.21692e-06
-2.86681e-05
-9.39095e-06
-2.09068e-05
-2.57494e-05
-1.78381e-05
-1.93299e-05
-1.35688e-05
-3.5358e-05
-8.18932e-06
-2.3356e-05
-7.43742e-06
-9.16698e-06
-8.75212e-06
1.7504e-06
-4.08155e-06
-7.21568e-07
-1.41223e-06
-1.36255e-06
1.03177e-06
-9.99039e-07
9.85646e-06
-1.1461e-06
9.28225e-06
-3.5644e-06
1.10906e-05
-5.42228e-06
1.17679e-05
-7.04432e-06
7.31362e-06
-1.06215e-05
1.43263e-05
-2.2154e-05
1.57553e-05
-2.41287e-05
1.21922e-05
-2.44799e-05
1.69666e-05
-2.73347e-05
1.83363e-05
-3.18924e-05
1.8478e-05
-3.36366e-05
1.11412e-05
-3.37312e-05
-1.12232e-06
-3.11473e-05
-1.19748e-05
-2.5446e-05
-3.14507e-05
-2.11873e-05
-2.35887e-05
-1.00957e-05
-4.64496e-05
-2.06896e-06
-3.13827e-05
-5.21498e-06
-6.02097e-06
-8.89877e-06
5.43419e-06
-7.56486e-06
-2.05548e-06
-2.31954e-07
-8.69546e-06
7.99819e-07
-3.48462e-07
1.02049e-05
-4.06107e-06
1.29949e-05
-9.68409e-06
1.67136e-05
-1.37164e-05
1.58002e-05
-1.77094e-05
1.13066e-05
-1.22244e-05
8.84131e-06
-1.21877e-05
1.57186e-05
-2.22721e-05
2.22767e-05
-2.48311e-05
1.95255e-05
-3.16064e-05
2.51117e-05
-3.53368e-05
2.22084e-05
-3.75662e-05
1.33706e-05
-3.86368e-05
-5.17862e-08
-3.64091e-05
-1.42025e-05
-3.43133e-05
-3.35465e-05
-2.95344e-05
-2.83676e-05
-6.10935e-06
-6.98747e-05
3.15788e-06
-4.06499e-05
-3.24358e-06
3.8049e-07
-1.04223e-05
1.26129e-05
-1.00509e-05
-2.42688e-06
5.6884e-07
-1.93152e-05
1.36866e-06
-5.68881e-05
5.68881e-05
-8.41817e-05
2.72936e-05
-8.5448e-05
1.26626e-06
-6.30843e-05
-2.23637e-05
-4.85724e-05
-1.45119e-05
-4.83923e-05
-1.80052e-07
-5.35513e-05
5.15902e-06
-5.27597e-05
-7.91613e-07
-4.86008e-05
-4.15887e-06
-4.16912e-05
-6.90967e-06
-3.22786e-05
-9.41254e-06
-1.72428e-05
-1.50358e-05
-4.79773e-06
-1.24451e-05
1.85554e-06
-6.65328e-06
1.6309e-05
-1.44535e-05
2.53662e-05
-9.05715e-06
1.40109e-05
1.13552e-05
-5.43023e-07
1.4554e-05
-5.43023e-07
-3.88333e-05
9.57214e-05
-6.15729e-05
5.00332e-05
-5.12204e-05
-9.08617e-06
-2.14408e-05
-5.21433e-05
-8.35457e-06
-2.75982e-05
-7.38092e-06
-1.15369e-06
-1.3557e-05
1.13351e-05
-1.91224e-05
4.77378e-06
-2.36946e-05
4.13328e-07
-1.52296e-05
-1.53747e-05
5.54339e-08
-2.46976e-05
9.28242e-06
-2.42628e-05
2.2195e-05
-2.53577e-05
2.16838e-05
-6.14203e-06
1.98266e-05
-1.25963e-05
3.99599e-05
-2.91904e-05
9.09543e-06
4.22196e-05
-3.88504e-06
2.75344e-05
-4.42806e-06
-8.97729e-06
0.000104699
-2.37418e-05
6.47977e-05
-1.96729e-05
-1.3155e-05
3.6126e-06
-7.54289e-05
6.60511e-06
-3.05907e-05
-2.59293e-06
8.04435e-06
2.9852e-06
5.757e-06
7.01271e-06
7.46276e-07
4.53696e-06
2.88907e-06
9.81878e-06
-2.06565e-05
2.59368e-05
-4.08156e-05
3.40209e-05
-3.23469e-05
2.49051e-05
-1.62418e-05
4.62339e-05
-2.74708e-05
4.93956e-05
-1.57581e-05
2.92993e-05
-9.09404e-06
2.63586e-05
4.51603e-05
1.27754e-05
4.11176e-05
8.34738e-06
1.34372e-07
0.000104564
-4.66696e-06
6.95991e-05
-1.65875e-06
-1.61632e-05
1.59622e-05
-9.30499e-05
2.51948e-05
-3.98233e-05
1.08705e-05
2.23687e-05
2.05797e-06
1.45695e-05
4.45041e-06
-1.64616e-06
1.31983e-05
-5.85877e-06
1.18716e-05
-1.93299e-05
1.62484e-05
-4.51924e-05
2.09392e-05
-3.70377e-05
4.56113e-05
-4.09139e-05
4.72298e-05
-2.90894e-05
5.07703e-05
-1.92985e-05
3.51764e-05
6.49982e-06
6.0275e-05
2.00618e-05
4.65935e-05
5.47991e-05
5.49409e-05
2.42773e-06
0.000102137
4.02268e-06
6.80041e-05
1.39544e-05
-2.60949e-05
2.46063e-05
-0.000103702
5.02119e-05
-6.54288e-05
5.78762e-05
1.47044e-05
1.49238e-05
5.75218e-05
3.25949e-06
1.00182e-05
6.74214e-06
-9.34141e-06
1.24846e-05
-2.50723e-05
1.10454e-05
-4.37532e-05
3.2364e-05
-5.83563e-05
3.80609e-05
-4.66108e-05
4.38753e-05
-3.49038e-05
4.82821e-05
-2.37053e-05
3.54065e-05
1.93754e-05
3.63118e-05
1.91565e-05
4.11285e-05
4.99824e-05
9.60693e-05
-9.69673e-07
0.000103106
6.42233e-06
6.06121e-05
2.26951e-05
-4.23677e-05
2.55879e-05
-0.000106595
3.77412e-05
-7.75821e-05
5.14651e-05
9.80557e-07
3.43062e-05
7.46807e-05
6.9875e-08
4.42546e-05
-2.04748e-05
1.12033e-05
-2.61093e-06
-4.29362e-05
1.5823e-05
-6.21872e-05
2.77779e-05
-7.03112e-05
3.61983e-05
-5.50311e-05
3.90158e-05
-3.77213e-05
4.30442e-05
-2.77337e-05
3.24202e-05
2.99994e-05
5.07903e-05
7.86384e-07
3.78306e-05
6.29421e-05
0.0001339
-2.43257e-06
0.000105539
1.60815e-05
4.20981e-05
3.1994e-05
-5.82803e-05
1.50658e-05
-8.96663e-05
5.73697e-06
-6.82533e-05
3.18577e-05
-2.51402e-05
3.26271e-05
7.39113e-05
-9.07314e-06
8.59548e-05
-2.44936e-05
2.66238e-05
-4.90824e-06
-6.25215e-05
1.13479e-05
-7.84433e-05
9.60208e-06
-6.85654e-05
3.04672e-05
-7.58963e-05
3.57937e-05
-4.30477e-05
3.83823e-05
-3.03223e-05
4.49339e-05
2.34478e-05
2.59028e-05
1.98175e-05
1.43521e-05
7.44928e-05
0.000148252
-1.04526e-06
0.000106584
2.21064e-05
1.89464e-05
1.42914e-05
-5.04653e-05
1.79746e-06
-7.71723e-05
-2.76484e-06
-6.3691e-05
1.65024e-05
-4.44074e-05
5.28811e-06
8.51256e-05
-2.01339e-05
0.000111377
-2.99085e-05
3.63984e-05
-3.05538e-06
-8.93747e-05
4.73817e-06
-8.62369e-05
1.72791e-05
-8.11064e-05
1.57446e-05
-7.43618e-05
1.50712e-05
-4.23744e-05
1.40851e-05
-2.93362e-05
3.00424e-05
7.49043e-06
2.95641e-05
2.02958e-05
1.56341e-05
8.84227e-05
0.000163886
5.82057e-06
4.38435e-06
3.12437e-06
1.56911e-05
-7.78527e-06
2.76232e-05
-1.75658e-05
2.55807e-05
-3.41155e-05
2.78563e-05
-3.82377e-05
1.29635e-05
-4.67066e-05
2.41875e-05
-4.80138e-05
2.35838e-05
-5.70095e-05
2.85212e-05
-6.5298e-05
3.34003e-05
-7.61691e-05
3.30795e-05
-8.94747e-05
2.66762e-05
-0.000101586
1.20597e-05
-0.000104591
-1.11982e-05
-0.000101808
-3.63286e-05
-4.32526e-05
-8.69234e-05
-1.23588e-05
-0.000100768
2.76811e-05
-8.06898e-05
1.30167e-05
1.50448e-05
-1.34057e-05
3.90354e-05
-1.0929e-05
-4.90358e-06
1.05934e-05
-4.08377e-05
-2.12561e-05
3.32182e-05
-8.09061e-06
1.2475e-05
-1.8977e-05
2.65775e-05
-1.52861e-05
2.39323e-05
-1.83968e-05
2.86914e-05
-1.78398e-05
2.72993e-05
-3.36073e-05
2.8731e-05
-3.73738e-05
2.7954e-05
-4.02184e-05
2.64284e-05
-4.75732e-05
3.5876e-05
-6.69615e-05
5.27886e-05
-8.85387e-05
5.46567e-05
-0.000113822
5.19595e-05
-0.000144735
4.29731e-05
-0.000142571
-1.3363e-05
-8.57752e-05
-9.31239e-05
-8.05981e-05
-9.21004e-05
-3.50529e-05
-0.000146314
-4.42901e-05
-7.14526e-05
-1.45917e-05
-1.46536e-05
-4.63507e-06
2.90788e-05
-2.07466e-05
1.1208e-05
-3.5927e-05
-2.56573e-05
-2.79897e-05
-2.91935e-05
9.50876e-06
2.9662e-06
2.0331e-05
1.57552e-05
-3.87613e-06
4.81395e-05
-1.35687e-05
3.8384e-05
-2.08785e-06
1.58184e-05
-2.25344e-06
2.88966e-05
-1.01293e-05
3.58298e-05
-1.43114e-05
3.06106e-05
-2.13384e-05
4.2903e-05
-5.53404e-05
8.67905e-05
-0.000124569
0.000123886
-0.000185915
0.000113306
-0.000222695
7.97531e-05
-0.000192717
-4.3341e-05
-0.000192096
-9.37448e-05
-0.000133848
-0.000150349
-0.000111763
-0.000168399
-0.000104918
-7.82967e-05
-5.73046e-05
-6.22675e-05
-3.65936e-05
8.36772e-06
-3.34854e-05
8.09978e-06
-3.19089e-05
-2.72337e-05
-1.7788e-05
-4.21106e-05
2.82667e-05
-2.53005e-05
4.43145e-05
-2.92579e-07
4.93159e-05
4.31381e-05
1.74882e-05
7.02116e-05
-5.6097e-06
3.89163e-05
5.51498e-06
1.77719e-05
2.52884e-05
1.60564e-05
3.64612e-05
1.94377e-05
2.30313e-05
5.63329e-05
-3.461e-05
0.000144432
-0.00010803
0.000197305
-0.000186702
0.000191978
-0.000230608
0.000123658
-0.000216294
-5.76544e-05
-0.000125391
-0.000184648
-0.000119483
-0.000156256
-0.000160373
-0.000127509
-0.000125261
-0.000113409
-0.000111547
-7.59818e-05
-7.68225e-05
-2.63567e-05
-5.05087e-05
-1.82141e-05
-5.73408e-05
-2.04016e-05
-1.11932e-05
-6.39355e-05
8.34591e-06
-3.36464e-05
-3.00817e-05
3.8135e-05
-5.651e-05
6.95665e-05
-2.99239e-05
4.36255e-05
-3.55444e-05
4.45368e-05
-5.72668e-05
3.94943e-05
-5.9614e-05
1.84036e-05
-5.59406e-05
1.57643e-05
-0.000108236
0.000108628
-0.000176632
0.000212828
-0.000217384
0.000238057
-0.000229253
0.000203847
-0.000188196
8.26007e-05
-0.000123348
-0.000122502
-0.000133361
-0.000174635
-0.00019406
-9.55575e-05
-0.000182096
-0.000139473
-0.000166235
-0.000129269
-0.000143364
-9.88523e-05
-0.000115593
-5.41285e-05
-9.0236e-05
-4.35707e-05
-7.69565e-05
-3.36811e-05
-3.14411e-05
-5.67086e-05
-7.65657e-05
4.29193e-05
-0.000186838
0.000148408
-0.000215044
9.77722e-05
-0.000201017
2.95986e-05
-0.000157342
8.62091e-07
-0.000139757
2.19091e-05
-0.000185134
6.37804e-05
-0.000317887
0.000148518
-0.000392635
0.000183376
-0.000389419
0.000209612
-0.000367899
0.000216538
-0.000229728
6.56762e-05
-0.00014476
-2.36791e-06
-0.000176823
-9.04386e-05
-0.000210128
-0.00014133
-0.000211777
-9.39091e-05
-0.000122654
-0.000228596
-9.72713e-05
-0.000154652
-7.48661e-05
-0.000121258
-7.6498e-05
-5.24966e-05
-5.44057e-05
-6.56631e-05
-2.0944e-05
-6.71429e-05
-6.10594e-05
8.6743e-06
-7.98198e-05
0.000122739
-0.000171424
0.000240012
-0.000213732
0.000140081
-0.000208674
2.45404e-05
-0.000229874
2.20624e-05
-0.000291191
8.32258e-05
-0.000331872
0.000104461
-0.000362741
0.000179387
-0.000376649
0.000197283
-0.000371412
0.000204376
-0.000284718
0.000129844
-0.000221348
2.30614e-06
-0.000188919
-3.47974e-05
-0.00020325
-7.61073e-05
-0.000206389
-0.000138191
-0.000174471
-0.000125828
-0.000206885
-0.000196182
-0.000174961
-0.000186576
-0.000145004
-0.000151214
-0.000111349
-8.61511e-05
-5.96589e-05
-0.000117353
-6.9474e-06
-0.000119854
-9.57414e-05
2.77346e-05
-4.96305e-05
0.00017237
-0.000136427
0.000326808
-0.000120509
0.000124163
-0.000154664
5.86955e-05
-0.000221972
8.93712e-05
-0.000277596
0.000138849
-0.000298485
0.00012535
-0.000309599
0.000190502
-0.000321318
0.000209002
-0.000284135
0.000167192
-0.000230501
7.62102e-05
-0.00021801
-1.01845e-05
-0.000223056
-2.97519e-05
-0.000226347
-7.28162e-05
-0.000225776
-0.000138762
-0.000224217
-0.000127386
-0.000237767
-0.000182632
-0.000241495
-0.000182848
-0.000211607
-0.000181102
-8.63475e-05
-0.000211411
-5.30846e-05
-0.000150616
-5.57294e-05
-0.00011721
-6.11863e-05
-9.02845e-05
-3.63951e-05
0.000208765
-9.86724e-05
0.000389086
-0.000143292
0.000168783
-0.000169009
8.44123e-05
-0.000216414
0.000136776
-0.000237427
0.000159863
-0.000279129
0.000167052
-0.000271579
0.000182951
-0.00024262
0.000180043
-0.000208038
0.000132611
-0.000195093
6.32645e-05
-0.000217014
1.17371e-05
-0.000238033
-8.73283e-06
-0.000237364
-7.3486e-05
-0.000248588
-0.000127537
-0.000211514
-0.000164461
-0.000206246
-0.0001879
-0.000202628
-0.000186466
-0.000187353
-0.000196377
-0.000167756
-0.000231007
-0.000111679
-0.000206693
-0.000111453
-0.000117436
-0.000117668
-5.49719e-05
-3.06627e-05
0.000239427
-8.77313e-05
0.000446154
-0.00014539
0.000226441
-0.000231377
0.0001704
-0.000256552
0.000161951
-0.000249763
0.000153073
-0.00024256
0.00015985
-0.000236191
0.000176582
-0.000223164
0.000167015
-0.00018687
9.63168e-05
-0.000202442
7.88368e-05
-0.000238837
4.81325e-05
-0.000240606
-6.96409e-06
-0.000229123
-8.49692e-05
-0.000271589
-8.50703e-05
-0.000250836
-0.000185214
-0.000213501
-0.000225235
-0.000168792
-0.000231175
-0.000140184
-0.000224985
-0.000115512
-0.00025568
-0.000170541
-0.000151664
-0.000165187
-0.00012279
-7.83745e-05
-0.00020448
-1.50701e-05
0.000254497
-8.5151e-05
0.000516235
-0.000251856
0.000393146
-0.000295947
0.000214491
-0.000292383
0.000158387
-0.000286233
0.000146922
-0.000273909
0.000147526
-0.000241437
0.000144111
-0.000232495
0.000158073
-0.000261971
0.000125793
-0.000288918
0.000105784
-0.000353503
0.000112717
-0.000339903
-2.05642e-05
-0.000294103
-0.000130769
-0.000175584
-0.000203589
-0.000158685
-0.000202113
-0.000153819
-0.000230101
-0.000174466
-0.000210528
-0.00015833
-0.000241121
-0.000230259
-0.000183751
-0.000220405
-0.000161517
-0.000230088
-0.000113108
-5.6339e-05
-0.000252123
-4.92041e-06
0.000259418
-9.01583e-05
0.000601473
-0.000254063
0.000557051
-0.000333173
0.000293601
-0.000350664
0.000175878
-0.000283105
7.9363e-05
-0.000268201
0.000132622
-0.000342701
0.000218611
-0.000392383
0.000207754
-0.000448182
0.000181592
-0.000410313
6.79154e-05
-0.000298142
5.45857e-07
-0.000232062
-8.66438e-05
-0.000190781
-0.00017205
-0.000261679
-0.000132691
-0.000257198
-0.000206594
-0.000251752
-0.000235548
-0.000219268
-0.000243012
-0.000204227
-0.000256161
-0.000223471
-0.000164507
-0.000229008
-0.00015598
-0.000127514
-0.000214602
-7.62181e-05
-0.000107635
-1.9098e-05
0.000278516
-5.27894e-05
0.000635164
-0.000162472
0.000666733
-0.000261284
0.000392413
-0.000326203
0.000240796
-0.000398219
0.000151379
-0.000432527
0.00016693
-0.000412962
0.000199047
-0.000430043
0.000224835
-0.00042108
0.000172629
-0.000412157
5.89925e-05
-0.000378506
-3.31056e-05
-0.000321175
-0.000143975
-0.00029664
-0.000196585
-0.000203773
-0.000225558
-0.000241966
-0.000168401
-0.000234472
-0.000243041
-0.000229788
-0.000247696
-0.000242969
-0.000242981
-0.000266301
-0.000141175
-0.000227028
-0.000195253
-0.000219374
-0.000222255
-0.000162733
-0.000132859
-5.33801e-05
0.000331896
-5.1494e-05
0.000633278
-0.000141544
0.000756784
-0.000110273
0.000361142
-0.00022001
0.000350533
-0.0002168
0.000148169
-0.000306198
0.000256328
-0.000377446
0.000270295
-0.000346056
0.000193445
-0.000333886
0.000160459
-0.00022105
-5.38443e-05
-0.000179813
-7.43418e-05
-0.000207767
-0.000116021
-0.000196707
-0.000207645
-0.000156542
-0.000265724
-8.45961e-05
-0.000240347
-0.000104849
-0.000222788
-0.000208427
-0.000144118
-0.000231436
-0.000219972
-0.000168407
-0.000204204
-0.000174721
-0.00018894
-0.000272508
-0.000124469
-0.000149528
-0.000285713
-4.25504e-05
0.000374446
-3.7571e-05
0.000628299
-4.33124e-06
0.000723544
-1.601e-05
0.000372821
-3.59678e-05
0.000370491
-8.30895e-05
0.000195291
-0.000114433
0.000287671
-9.95691e-05
0.000255431
-0.000149159
0.000243035
-5.01154e-05
6.14157e-05
-3.56072e-05
-6.83526e-05
-4.25722e-05
-6.73769e-05
-1.34231e-05
-0.00014517
5.76239e-05
-0.000278692
1.06814e-05
-0.000218781
-5.52365e-05
-0.000174429
-0.000125659
-0.000152366
-0.000147269
-0.000122508
-0.000195501
-0.000171739
-0.000244379
-0.000155326
-0.000319268
-0.000114051
-0.00029003
-0.000153706
-0.000103851
-0.000335707
-2.28245e-05
0.000397271
5.10068e-05
0.000554468
0.000139678
0.000634873
4.68584e-05
0.000465641
7.37403e-05
0.000343609
6.92965e-05
0.000199735
8.08771e-05
0.000276091
9.85537e-05
0.000237754
0.000163736
0.000177853
0.000242527
-1.73754e-05
0.000293608
-0.000119434
0.000327941
-0.000101709
0.000307231
-0.00012446
0.00017146
-0.000142921
5.61531e-05
-0.000103474
-1.6568e-05
-0.000101708
-5.1382e-05
-0.000117552
-8.03457e-05
-9.35439e-05
-0.000172432
-7.96535e-05
-0.000221285
-0.000106473
-0.00023164
-0.000103696
-0.000231228
-0.000154118
-9.36697e-05
-0.000241409
-2.41307e-06
0.000399684
8.78585e-05
0.000464196
0.000224328
0.000498403
0.00021262
0.000477348
0.00025966
0.000296569
0.000252284
0.000207111
0.000331914
0.00019646
0.000399288
0.00017038
0.000462267
0.000114874
0.000501519
-5.66282e-05
0.000493916
-0.000111831
0.0004822
-8.99926e-05
0.000421477
-6.37376e-05
0.000306585
-2.80296e-05
0.000116865
8.6246e-05
-2.5167e-05
4.03242e-05
-0.000137434
-5.28431e-06
-0.000184746
-4.62325e-05
-0.000186147
-7.82521e-05
-0.000215733
-7.68869e-05
-0.00022432
-9.51087e-05
-0.000231163
-0.000147276
-0.000128029
-0.000196803
5.59564e-06
0.000394088
8.99705e-05
0.000379822
0.000222621
0.000365753
0.000390475
0.000309494
0.000454523
0.000232521
0.000473492
0.000188142
0.000480148
0.000189804
0.000487438
0.000163091
0.000532245
7.00661e-05
0.000545355
-6.97378e-05
0.000559463
-0.000125939
0.000553455
-8.39847e-05
0.000537191
-4.74736e-05
0.00036543
0.000143731
0.000238547
0.000213129
3.92818e-05
0.00023959
-0.000110483
0.000144481
-0.000190928
3.42127e-05
-0.000218669
-5.05109e-05
-0.000230431
-6.51252e-05
-0.000189241
-0.000136299
-0.000188623
-0.000147893
-0.00014121
-0.000175443
1.50717e-05
0.000379016
8.78038e-05
0.000307089
0.000258459
0.000195098
0.000398468
0.000169485
0.000483825
0.000147164
0.000547585
0.000124383
0.000508367
0.000229022
0.000515347
0.000156111
0.000541845
4.35684e-05
0.000492748
-2.06417e-05
0.000392563
-2.57531e-05
0.000335565
-2.69867e-05
0.000288858
-7.66975e-07
0.000235386
0.000197203
0.000118697
0.000329818
-4.66008e-05
0.000404888
-0.000174946
0.000272825
-0.000217214
7.64805e-05
-0.000225457
-4.22677e-05
-0.000225163
-6.54184e-05
-0.000188092
-0.000173371
-0.000140895
-0.00019509
-0.000134618
-0.000147486
8.09214e-05
0.000298095
0.000178332
0.000209679
0.000325753
4.76766e-05
0.000425021
7.0217e-05
0.000470848
0.000101337
0.000430675
0.000164556
0.000469711
0.000189985
0.00045144
0.000174382
0.000352102
0.000142906
0.000278626
5.28342e-05
0.000231791
2.10819e-05
0.000208919
-4.11407e-06
0.00015741
5.07417e-05
5.50112e-05
0.000299602
-7.38561e-05
0.000458685
-0.0001651
0.000496131
-0.000121638
0.000229364
-0.000213432
0.000168274
-0.000225909
-2.97911e-05
-0.000138921
-0.000152406
-0.000122697
-0.000189594
-0.000123706
-0.000194082
-0.00016
-9.83239e-05
5.19604e-05
0.000246134
8.09243e-05
0.000180715
7.27764e-05
5.58245e-05
6.79767e-05
7.50168e-05
0.000132436
3.68783e-05
0.000174592
0.0001224
0.000243474
0.000121103
0.000278544
0.000139312
0.000246365
0.000175085
0.000200528
9.86715e-05
0.000188376
3.3234e-05
0.000140978
4.32837e-05
3.62431e-05
0.000155477
-8.74054e-05
0.000423251
-0.000140247
0.000511527
-0.000176931
0.000532816
-0.000199875
0.000252308
-0.000169879
0.000138278
-0.000164624
-3.50463e-05
-0.000160099
-0.000156931
-0.000156143
-0.00019355
-0.0001455
-0.000204724
-0.000234746
-7.0754e-05
2.45266e-05
0.000221608
7.14856e-05
0.000133756
4.29403e-05
8.43699e-05
4.88518e-05
6.91052e-05
8.14868e-05
4.2433e-06
0.000170393
3.34944e-05
0.000189181
0.000102315
0.00022607
0.000102422
0.00022253
0.000178625
0.000188297
0.000132904
0.000142388
7.9143e-05
9.06263e-05
9.50456e-05
-3.68972e-05
0.000283
-0.000109835
0.000496189
-0.000111542
0.000513234
-7.73572e-05
0.00049863
-0.000170117
0.000345067
-0.00013238
0.000100541
-9.88137e-05
-6.86125e-05
-0.000115055
-0.00014069
-9.50564e-05
-0.000213548
-6.46362e-05
-0.000235144
-0.000260481
-3.89016e-05
-2.17215e-06
0.00022378
1.56452e-05
0.000115939
3.71025e-05
6.29126e-05
8.85961e-05
1.76115e-05
0.000121221
-2.83814e-05
0.000169541
-1.48258e-05
0.000202274
6.95824e-05
0.000201964
0.000102732
0.000208317
0.000172271
0.000150475
0.000190747
0.00012538
0.000104237
4.88646e-05
0.000171561
-5.32212e-05
0.000385086
-6.61433e-05
0.000509111
-7.13973e-05
0.000518488
-4.46418e-05
0.000471875
-3.81365e-05
0.000338562
-6.63549e-05
0.00012876
-6.52962e-05
-6.96712e-05
-3.00612e-05
-0.000175925
-7.80484e-05
-0.000165561
-3.71612e-05
-0.000276031
-0.000288741
-8.90159e-06
-5.37121e-06
0.000229151
5.78007e-06
0.000104788
5.60985e-05
1.25942e-05
0.000110218
-3.65077e-05
0.000126917
-4.50809e-05
0.000129487
-1.7395e-05
0.000185402
1.36674e-05
0.000196682
9.14519e-05
0.000197883
0.00017107
0.000137442
0.000251189
6.4865e-05
0.000176814
-3.03934e-05
0.000266819
-8.0996e-05
0.000435689
-8.23396e-05
0.000510454
-2.73813e-05
0.00046353
-1.41412e-06
0.000445908
8.34243e-05
0.000253723
4.54123e-05
0.000166772
8.71387e-06
-3.29729e-05
1.84628e-05
-0.000185674
1.64745e-05
-0.000163573
1.59593e-05
-0.000275516
-0.000291007
1.82262e-05
7.44133e-06
0.00022171
2.49094e-05
8.73196e-05
4.67016e-05
-9.19806e-06
6.26632e-05
-5.24692e-05
6.24097e-05
-4.48274e-05
7.9407e-05
-3.43923e-05
0.000120476
-2.74013e-05
0.000153374
5.85541e-05
0.000113724
0.000210719
8.22996e-05
0.000282613
1.21234e-05
0.00024699
-4.76277e-05
0.00032657
-8.54518e-05
0.000473513
-9.1687e-05
0.000516689
-4.58109e-06
0.000376424
2.7027e-05
0.0004143
7.03362e-05
0.000210414
0.000113052
0.000124056
0.000108967
-2.88872e-05
5.02759e-05
-0.000126984
0.000125496
-0.000238793
4.48857e-05
-0.000194906
-0.000302461
5.6339e-05
-9.58807e-06
0.000231298
-1.25945e-05
9.03261e-05
-3.46768e-05
1.28842e-05
-7.27219e-05
-1.44241e-05
-7.14219e-05
-4.61275e-05
-2.78093e-05
-7.80049e-05
9.17738e-06
-6.4388e-05
1.98142e-05
4.79172e-05
-9.13737e-06
0.000239671
-5.44928e-05
0.000327969
-0.000154656
0.000347154
-0.000116786
0.0002887
-0.000124718
0.000481445
-9.9103e-05
0.000491074
-3.66144e-06
0.000280982
4.49605e-05
0.000365677
9.57255e-05
0.000159649
9.14754e-05
0.000128306
0.000106453
-4.38644e-05
0.000171779
-0.00019231
8.30687e-05
-0.000150083
0.000145437
-0.000257274
-0.000282272
0.000125248
-2.2497e-05
0.000253795
-7.23224e-05
0.000140151
-0.000137443
7.80048e-05
-0.0001915
3.96327e-05
-0.000192986
-4.46414e-05
-0.000207803
-6.3188e-05
-0.000228838
-4.33529e-05
-0.000239223
5.83027e-05
-0.000232815
0.000233262
-0.000215077
0.000310231
-0.000204089
0.000336166
-0.000237422
0.000322033
-0.000179308
0.00042333
-7.0405e-05
0.000382172
-6.26572e-05
0.000273234
4.11533e-06
0.000298905
6.41067e-05
9.96577e-05
0.000159097
3.33155e-05
0.000194774
-7.95415e-05
0.000117431
-0.000114967
0.000109225
-0.000141877
9.76238e-05
-0.000245672
-0.000267516
8.28681e-05
-3.26662e-05
0.000286461
-0.000125433
0.000232918
-0.000190748
0.00014332
-0.000205749
5.46333e-05
-0.000273817
2.34273e-05
-0.000329591
-7.41439e-06
-0.000360285
-1.26594e-05
-0.000348215
4.62336e-05
-0.0003148
0.000199847
-0.000284999
0.00028043
-0.000249562
0.000300729
-0.000263771
0.000336242
-0.000220438
0.000379997
-0.0001474
0.000309134
-6.55343e-05
0.000191369
3.71222e-05
0.000196249
7.71338e-05
5.96461e-05
0.000116733
-6.28366e-06
0.000127529
-9.0338e-05
0.000142886
-0.000130324
0.000198559
-0.00019755
0.000177855
-0.000224968
-0.000250108
0.000160447
-3.36656e-05
0.000320127
-9.06026e-05
0.000289855
-0.000203711
0.000256428
-0.000273627
0.000124549
-0.00034261
9.24103e-05
-0.000374175
2.41506e-05
-0.000403658
1.68235e-05
-0.000398958
4.15342e-05
-0.000351958
0.000152847
-0.00020879
0.000137262
-0.000180147
0.000272085
-0.000153193
0.000309288
-0.000114364
0.000341168
-0.000100603
0.000295373
-1.57511e-05
0.000106517
0.000104168
7.6329e-05
0.000160171
3.64348e-06
0.00019148
-3.75925e-05
0.000216798
-0.000115656
0.000237198
-0.000150724
0.000175866
-0.000136218
0.000184212
-0.000233314
-0.000158507
9.2611e-05
-5.13375e-05
0.000371464
-7.37599e-05
0.000312277
-0.000171044
0.000353712
-0.000226156
0.000179662
-0.000311197
0.000177452
-0.000340228
5.31814e-05
-0.000361067
3.76626e-05
-0.00036161
4.2077e-05
-0.000314548
0.000105785
-0.000326404
0.000149117
-0.000230215
0.000175896
-9.75986e-05
0.000176672
-5.06053e-05
0.000294175
3.33338e-05
0.000211433
8.73976e-05
5.24527e-05
0.000149518
1.42084e-05
0.000197746
-4.45843e-05
0.000224145
-6.39911e-05
0.000227491
-0.000119002
0.000222738
-0.000145971
0.000201322
-0.000114803
9.70103e-05
-0.000129001
-0.000179873
0.000118376
-6.49753e-05
0.00043644
-3.40426e-05
0.000281345
-9.6136e-05
0.000415805
-0.000131339
0.000214864
-0.000171845
0.000217958
-0.00021179
9.31267e-05
-0.000226467
5.23394e-05
-0.000228879
4.44892e-05
-0.000185905
6.28102e-05
-0.000152823
0.000116036
-9.44194e-05
0.000117492
-3.24716e-05
0.000114725
4.87987e-05
0.000212905
0.00014266
0.000117572
0.000182554
1.25589e-05
0.000233676
-3.69136e-05
0.000234025
-4.49338e-05
0.000215814
-4.57798e-05
0.000203558
-0.000106746
0.000174508
-0.000116922
0.000142651
-8.2945e-05
0.000139134
-0.000125485
-0.000120752
8.00131e-05
-1.20908e-05
0.00044853
-4.90878e-05
0.000318342
-4.18851e-05
0.000408603
-9.81124e-05
0.000271091
-4.82066e-05
0.000168052
-7.89579e-05
0.000123878
-7.81356e-05
5.1517e-05
-8.09436e-05
4.72972e-05
-5.15514e-05
3.3418e-05
-1.16586e-05
7.61433e-05
1.53588e-05
9.04746e-05
6.61652e-05
6.39181e-05
0.000149045
0.000130025
0.000189765
7.68523e-05
0.000185631
1.6693e-05
0.000152703
-3.98607e-06
0.000157535
-4.97651e-05
0.000209624
-9.7869e-05
0.000163123
-6.02451e-05
0.000141374
-9.51722e-05
0.000151784
-9.33555e-05
0.000130209
-0.00010391
-0.000114135
0.000123592
-1.04463e-05
0.000458977
-5.02431e-05
0.000358138
1.72736e-05
0.000341086
-1.51086e-05
0.000303474
-4.2142e-05
0.000195086
-3.42267e-05
0.000115963
-3.23431e-05
4.96334e-05
-2.72604e-06
1.76802e-05
1.54683e-05
1.52237e-05
4.82297e-05
4.33818e-05
8.44752e-05
5.42291e-05
0.000106791
4.16026e-05
0.00017722
5.95956e-05
0.000219253
3.48191e-05
0.000226329
9.617e-06
0.00023465
-1.23068e-05
0.000216548
-3.1663e-05
0.000172246
-5.35668e-05
0.000154779
-4.2778e-05
0.000133183
-7.35771e-05
0.000118114
-7.82858e-05
9.85072e-05
-8.43031e-05
-0.000109409
9.37819e-05
4.56596e-06
0.000454411
-1.46593e-05
0.000377364
-1.45252e-05
0.000340951
-1.30093e-05
0.000301958
-1.20017e-05
0.000194078
1.61885e-05
8.77723e-05
3.12986e-05
3.45233e-05
4.54852e-05
3.49351e-06
5.64409e-05
4.26807e-06
8.3262e-05
1.65608e-05
0.000109125
2.83658e-05
0.000127494
2.32342e-05
0.000152666
3.44237e-05
0.000157989
2.9496e-05
0.000143755
2.38507e-05
0.000119424
1.20246e-05
0.000111046
-2.32849e-05
0.000104915
-4.74366e-05
0.000136873
-7.47351e-05
0.000104785
-4.14899e-05
9.53397e-05
-6.884e-05
7.79502e-05
-6.69136e-05
-8.17517e-05
5.02926e-05
-6.03435e-06
0.000460445
-2.67682e-05
0.000398097
-2.55839e-05
0.000339767
-5.91071e-06
0.000282284
2.31023e-05
0.000165065
5.46843e-05
5.61902e-05
5.68334e-05
3.23742e-05
5.8048e-05
2.27886e-06
6.24898e-05
-1.73773e-07
7.61778e-05
2.87283e-06
9.89506e-05
5.59294e-06
0.000113556
8.62864e-06
0.000131867
1.61132e-05
0.000147513
1.38495e-05
0.000162192
9.17184e-06
0.000170966
3.25061e-06
0.000164939
-1.7258e-05
0.000143352
-2.58491e-05
0.00010917
-4.05538e-05
0.000101037
-3.33569e-05
9.52196e-05
-6.30223e-05
7.01224e-05
-4.18164e-05
-8.14922e-05
6.98628e-05
-1.41864e-05
0.000474631
-2.44425e-05
0.000408354
-3.51608e-05
0.000350485
-5.4271e-07
0.000247666
3.57381e-05
0.000128784
3.69301e-05
5.49982e-05
5.42387e-05
1.50656e-05
5.97756e-05
-3.25807e-06
6.37837e-05
-4.18188e-06
7.03135e-05
-3.65694e-06
7.82522e-05
-2.34578e-06
8.60591e-05
8.21759e-07
9.99356e-05
2.23666e-06
0.000110742
3.04307e-06
0.000104478
1.54355e-05
0.000104299
3.42983e-06
7.6991e-05
1.00502e-05
7.35213e-05
-2.23794e-05
6.8253e-05
-3.52855e-05
8.41497e-05
-4.92536e-05
6.9264e-05
-4.81367e-05
6.92181e-05
-4.17705e-05
-6.16659e-05
4.93918e-05
1.57697e-05
0.000458862
4.86386e-06
0.000419259
-1.76754e-05
0.000373025
3.83348e-07
0.000229608
2.41338e-05
0.000105034
4.73472e-05
3.17847e-05
5.87067e-05
3.7061e-06
6.0983e-05
-5.53437e-06
6.23823e-05
-5.58125e-06
6.44649e-05
-5.73954e-06
6.98661e-05
-7.74692e-06
7.08562e-05
-1.68381e-07
7.67606e-05
-3.6677e-06
6.06354e-05
1.91683e-05
6.6557e-05
9.51389e-06
6.57434e-05
4.24344e-06
8.91888e-05
-1.33952e-05
7.56661e-05