/*--------------------------------*- C++ -*----------------------------------*\
| =========                 |                                                 |
| \\      /  F ield         | foam-extend: Open Source CFD                    |
|  \\    /   O peration     | Version:     4.1                                |
|   \\  /    A nd           | Web:         http://www.foam-extend.org         |
|    \\/     M anipulation  |                                                 |
\*---------------------------------------------------------------------------*/
FoamFile
{
    version     2.0;
    format      ascii;
    class       volVectorField;
    location    "0.85";
    object      U;
}
// * * * * * * * * * * * * * * * * * * * * * * * * * * * * * * * * * * * * * //

dimensions      [0 1 -1 0 0 0 0];

internalField   nonuniform List<vector> 
2268
(
(-0.00272417 0.0114681 0)
(-0.0278195 0.0101335 0)
(-0.026706 0.00805978 0)
(-0.044926 -0.00541258 0)
(-0.0607983 0.00597098 0)
(-0.109108 0.00356424 0)
(-0.132042 0.00152449 0)
(-0.13333 -0.0029792 0)
(-0.141317 -0.019917 0)
(-0.0898315 -0.00431347 0)
(-0.0830786 0.0150429 0)
(-0.105485 -0.0283757 0)
(-0.0863404 0.0209201 0)
(-0.0866329 -0.00516237 0)
(-0.0745826 0.00651027 0)
(-0.0413643 -0.00527184 0)
(0.0131816 -0.0333101 0)
(0.0363706 -0.000255535 0)
(0.0547737 -0.00216804 0)
(0.0470778 0.00231382 0)
(0.0347937 0.00375474 0)
(0.0161941 0.00332464 0)
(0.0120516 0.0031583 0)
(0.0040365 0.00285794 0)
(-0.0111242 0.00202637 0)
(-0.0106782 -0.000499633 0)
(-0.0530516 -0.000799462 0)
(-0.0638834 0.00978364 0)
(-0.10133 0.0301453 0)
(-0.134231 0.0101996 0)
(-0.120521 0.00832605 0)
(-0.113872 0.0118112 0)
(-0.086856 0.0399761 0)
(-0.101201 -0.00923485 0)
(-0.111787 -0.00663183 0)
(-0.0956074 0.032387 0)
(-0.115728 -0.0562526 0)
(-0.0989071 0.0200603 0)
(-0.0774344 -0.0424648 0)
(-0.0120349 -0.0165629 0)
(0.0291641 -0.0191888 0)
(0.0441644 -0.00140271 0)
(0.0391871 0.00947471 0)
(0.0288792 0.012381 0)
(0.0117599 0.00743751 0)
(0.0016643 0.0101395 0)
(0.00165637 0.0145854 0)
(-0.0249909 0.0120129 0)
(-0.0299948 0.0187653 0)
(-0.0594903 0.00735189 0)
(-0.0736075 0.0196873 0)
(-0.107846 0.00634527 0)
(-0.127251 0.00739037 0)
(-0.128076 -0.0144339 0)
(-0.124946 0.0326702 0)
(-0.128892 -0.028647 0)
(-0.131492 -0.010252 0)
(-0.118269 0.00786121 0)
(-0.146789 -0.00391085 0)
(-0.150801 -0.0253095 0)
(-0.125221 -0.0217198 0)
(-0.106569 -0.0265529 0)
(-0.0663557 -0.0456951 0)
(-0.0102293 -0.0256778 0)
(0.0260373 -0.023173 0)
(0.0278353 0.0203195 0)
(0.0195637 0.0207731 0)
(0.0071341 0.0103717 0)
(0.00334755 0.00661841 0)
(-0.0145682 0.0138259 0)
(-0.0142437 0.0183415 0)
(-0.0317331 0.0144154 0)
(-0.0592304 0.0252273 0)
(-0.0598015 0.0297381 0)
(-0.11461 0.0126997 0)
(-0.143244 0.0117877 0)
(-0.131074 0.0144415 0)
(-0.160683 0.0454646 0)
(-0.173673 -0.0169388 0)
(-0.16209 0.0388431 0)
(-0.199956 0.00941915 0)
(-0.206476 -0.0110669 0)
(-0.20617 -0.0157891 0)
(-0.18986 -0.0525552 0)
(-0.13928 -0.0487316 0)
(-0.105644 -0.0889429 0)
(-0.0399754 -0.041882 0)
(-0.0154033 -0.00421043 0)
(0.00363146 0.00211444 0)
(0.0037442 0.0277146 0)
(0.00197079 0.0148679 0)
(0.00178055 0.0164484 0)
(-0.0121815 0.0276497 0)
(-0.0180329 0.0204244 0)
(-0.0227957 0.0201809 0)
(-0.0478253 0.0375162 0)
(-0.0631814 0.0353174 0)
(-0.133543 0.0411231 0)
(-0.164151 0.0233819 0)
(-0.152705 0.0496131 0)
(-0.194443 0.00611687 0)
(-0.171941 0.0733637 0)
(-0.184817 0.0375523 0)
(-0.237637 0.0181117 0)
(-0.243643 -0.0119743 0)
(-0.240516 -0.0339091 0)
(-0.210844 -0.0592113 0)
(-0.174334 -0.0304361 0)
(-0.108738 -0.0737108 0)
(-0.0561338 -0.0658278 0)
(-0.0484321 -0.0492392 0)
(-0.0396595 0.0110382 0)
(-0.0298501 0.0531744 0)
(-0.0100307 0.0112047 0)
(0.000973371 0.00749382 0)
(-0.0167649 0.0288073 0)
(-0.0243449 0.0240387 0)
(-0.0453769 0.0264679 0)
(-0.0680216 0.0267573 0)
(-0.0796653 0.0246017 0)
(-0.139594 0.0697005 0)
(-0.168221 0.022555 0)
(-0.168684 0.0731849 0)
(-0.192904 0.0358604 0)
(-0.203852 0.0951097 0)
(-0.233198 0.0424349 0)
(-0.257858 0.0349831 0)
(-0.26274 -0.0011109 0)
(-0.254976 -0.0257785 0)
(-0.191671 -0.0809801 0)
(-0.139752 -0.0961421 0)
(-0.141156 -0.182402 0)
(-0.0713575 -0.0709751 0)
(-0.0559259 -0.0682008 0)
(-0.0591224 -0.00442994 0)
(-0.0795037 0.00321464 0)
(-0.0397227 0.000991039 0)
(-0.00269773 0.0207972 0)
(-0.0140005 0.0353855 0)
(-0.00225266 0.0460183 0)
(-0.028258 0.0384761 0)
(-0.0786323 0.0470072 0)
(-0.0753435 0.02403 0)
(-0.135433 0.069905 0)
(-0.176589 0.0326662 0)
(-0.185106 0.0747071 0)
(-0.202556 0.0963286 0)
(-0.201125 0.130984 0)
(-0.245294 0.0609576 0)
(-0.267924 0.0342786 0)
(-0.272019 -0.0172513 0)
(-0.267536 -0.0615138 0)
(-0.218056 -0.122559 0)
(-0.189514 -0.173356 0)
(-0.149387 -0.311976 0)
(0.000784294 -0.103112 0)
(-0.0286578 -0.0571989 0)
(-0.0505489 0.0233244 0)
(-0.090968 -0.00713922 0)
(-0.0249381 -0.0111285 0)
(0.0164802 -0.0132988 0)
(-0.00846847 0.040859 0)
(-0.00334959 0.0225537 0)
(-0.0565016 0.0476453 0)
(-0.100694 0.0476528 0)
(-0.114352 0.034212 0)
(-0.170928 0.0490683 0)
(-0.186592 0.0960693 0)
(-0.174415 0.0893088 0)
(-0.184337 0.141673 0)
(-0.230376 0.107678 0)
(-0.282962 0.0749728 0)
(-0.293656 0.0428864 0)
(-0.31065 0.00341582 0)
(-0.309309 -0.0972811 0)
(-0.270239 -0.144468 0)
(-0.293643 -0.164912 0)
(-0.171459 -0.290765 0)
(0.0874711 -0.131217 0)
(0.00711225 -0.0219247 0)
(-0.0544647 0.0383399 0)
(-0.112903 -0.00528312 0)
(-0.044187 -0.0491732 0)
(0.0532497 0.0287255 0)
(-0.332403 0.14974 0)
(-0.643108 0.0157223 0)
(-0.742506 -0.024911 0)
(-0.599558 -0.127176 0)
(-0.404022 -0.0816346 0)
(-0.370054 -0.00924342 0)
(-0.415519 -0.0181339 0)
(-0.436822 -0.0224291 0)
(-0.409222 -0.0305571 0)
(-0.355275 -0.0731075 0)
(-0.306013 -0.0803591 0)
(-0.201784 -0.04747 0)
(-0.0689957 -0.000163059 0)
(-0.00629647 -0.0896732 0)
(0.0557213 -0.0695445 0)
(0.202093 -0.0215718 0)
(0.202374 0.0069362 0)
(0.0263312 0.030394 0)
(-0.0330255 0.00986167 0)
(-0.245904 0.247328 0)
(-0.456924 0.160277 0)
(-0.524597 0.0237073 0)
(-0.251728 -0.153454 0)
(-0.0700048 -0.101186 0)
(-0.0510449 0.00347715 0)
(-0.0632622 0.088868 0)
(-0.135764 0.0125983 0)
(-0.191747 -0.0303136 0)
(-0.179805 -0.0214307 0)
(-0.062685 -0.0383272 0)
(0.066743 -0.095971 0)
(0.201224 -0.088666 0)
(0.161346 0.00619472 0)
(0.193258 -0.0306668 0)
(0.376375 -0.100923 0)
(0.27861 0.0814612 0)
(-0.00913488 0.0654126 0)
(-0.0520863 -0.0120002 0)
(-0.145568 0.388913 0)
(-0.138332 0.182389 0)
(-0.235953 -0.0914511 0)
(-0.0518225 -0.213704 0)
(0.137922 -0.0840717 0)
(-0.0250008 0.00174139 0)
(-0.0109451 0.0384315 0)
(0.0709741 0.0508233 0)
(0.0319195 0.0423161 0)
(0.0977619 -0.0744445 0)
(0.188966 -0.129029 0)
(0.23124 -0.0722701 0)
(0.324003 -0.0811755 0)
(0.393025 -0.0526729 0)
(0.369529 -0.0499015 0)
(0.45645 -0.0941935 0)
(0.375337 0.189383 0)
(0.0778639 0.123725 0)
(0.117972 -0.0181505 0)
(-0.0897153 0.356996 0)
(0.0827134 0.243281 0)
(-0.137344 -0.00962235 0)
(0.0942349 -0.31034 0)
(0.229299 -0.107172 0)
(0.159908 0.0508591 0)
(0.0312092 0.00543051 0)
(0.0117609 -0.0412162 0)
(0.0541792 -0.0254258 0)
(0.147731 -0.0689421 0)
(0.196625 -0.162332 0)
(0.274188 -0.208395 0)
(0.339238 -0.0787029 0)
(0.395422 -0.136018 0)
(0.378318 -0.0585548 0)
(0.453527 -0.0111907 0)
(0.554189 0.135876 0)
(0.440092 0.160559 0)
(0.307784 0.131547 0)
(-0.0583722 0.359872 0)
(0.102132 0.230622 0)
(0.0265011 -0.149565 0)
(0.198946 -0.362374 0)
(0.228697 -0.190326 0)
(0.563175 0.133037 0)
(0.413287 0.116155 0)
(0.0295447 0.0200331 0)
(0.0182451 -0.0505065 0)
(0.0795045 -0.0568483 0)
(0.104157 -0.147289 0)
(0.223434 -0.230611 0)
(0.279197 -0.249095 0)
(0.346481 -0.21173 0)
(0.347512 -0.0753545 0)
(0.4232 0.0488302 0)
(0.604113 0.113003 0)
(0.468011 0.209162 0)
(0.212546 0.260987 0)
(-0.0642294 0.358628 0)
(0.0380984 0.233027 0)
(0.158824 -0.155409 0)
(0.2254 -0.356299 0)
(0.188715 -0.251205 0)
(0.422688 0.0323006 0)
(0.853118 0.562919 0)
(0.221606 0.122532 0)
(-0.242686 0.00123504 0)
(-0.141677 -0.122157 0)
(0.0803952 -0.143608 0)
(0.173146 -0.167155 0)
(0.265999 -0.329501 0)
(0.342794 -0.247702 0)
(0.280384 -0.0901391 0)
(0.422632 0.0960692 0)
(0.495649 0.0104978 0)
(0.422688 0.174192 0)
(0.182704 0.388065 0)
(-0.0651566 0.361017 0)
(-0.00907799 0.168634 0)
(0.294102 -0.139604 0)
(0.214865 -0.514126 0)
(0.0270296 -0.306879 0)
(0.0512448 -0.0201436 0)
(0.427894 0.430273 0)
(0.14581 0.221057 0)
(-0.450851 0.075002 0)
(-0.232574 -0.16185 0)
(0.105235 -0.33503 0)
(0.0656335 -0.368385 0)
(0.20778 -0.309877 0)
(0.2945 -0.18216 0)
(0.270503 -0.102871 0)
(0.359837 0.103639 0)
(0.370207 0.000977066 0)
(0.382366 0.229732 0)
(0.0528681 0.536183 0)
(-0.0794046 0.376312 0)
(0.0667545 0.118055 0)
(0.289245 -0.278049 0)
(0.123754 -0.58811 0)
(-0.0828338 -0.21953 0)
(0.0414187 -0.263304 0)
(0.179672 0.300072 0)
(-0.0113324 0.374199 0)
(-0.402145 0.137456 0)
(-0.0909499 -0.31855 0)
(-0.000964719 -0.519084 0)
(0.0764529 -0.478367 0)
(0.235172 -0.253277 0)
(0.225997 -0.125227 0)
(0.198021 -0.0983104 0)
(0.227109 0.0656873 0)
(0.241801 0.120077 0)
(0.241114 0.290159 0)
(0.044424 0.552978 0)
(-0.00259023 0.0223078 0)
(0.0464242 0.107099 0)
(0.00107982 0.0911726 0)
(-0.111525 0.0859031 0)
(-0.131002 0.0689519 0)
(-0.123967 0.0823222 0)
(-0.172302 0.11997 0)
(-0.181217 0.0981375 0)
(-0.197708 0.12467 0)
(-0.237496 0.104289 0)
(-0.269087 0.108422 0)
(-0.311244 0.0634524 0)
(-0.382683 -0.0166854 0)
(-0.410876 -0.110759 0)
(-0.392324 -0.0757346 0)
(-0.420046 -0.189236 0)
(-0.166632 -0.269361 0)
(0.0911136 -0.184591 0)
(0.108459 0.0589902 0)
(0.0109268 0.0751444 0)
(-0.114256 -0.0261304 0)
(-0.0371694 -0.130374 0)
(0.117122 -0.0482087 0)
(-0.031732 0.0437116 0)
(-0.0333162 0.109779 0)
(-0.0930455 0.128394 0)
(-0.122567 0.111666 0)
(-0.127638 0.141732 0)
(-0.117892 0.0913693 0)
(-0.136482 0.0773882 0)
(-0.15299 0.0844592 0)
(-0.156769 0.106966 0)
(-0.216773 0.148662 0)
(-0.303601 0.138309 0)
(-0.387276 0.135507 0)
(-0.522215 0.136503 0)
(-0.527137 0.0347848 0)
(-0.608964 -0.251349 0)
(-0.572608 -0.547241 0)
(-0.31166 -0.491133 0)
(-0.179493 -0.421648 0)
(-0.163824 0.07064 0)
(0.0530475 0.213218 0)
(-0.0884864 -0.0121088 0)
(-0.0817612 -0.182511 0)
(-0.187479 -0.102698 0)
(-0.0243728 0.0374397 0)
(0.0987034 0.0929779 0)
(0.0548486 0.184779 0)
(-0.0798155 0.109789 0)
(-0.0176248 0.0831205 0)
(-0.00513783 0.133308 0)
(-0.0296878 0.131895 0)
(-0.0496236 0.120481 0)
(-0.0755447 0.16816 0)
(-0.219402 0.258852 0)
(-0.381231 0.289014 0)
(-0.622105 0.262842 0)
(-0.855516 0.166033 0)
(-0.789516 -0.253101 0)
(-0.773719 -0.589073 0)
(-0.640438 -0.648991 0)
(-0.477981 -0.6842 0)
(-0.357493 -0.586089 0)
(-0.448134 -0.164684 0)
(-0.347023 0.191528 0)
(-0.154171 0.0983939 0)
(-0.0991129 -0.156438 0)
(-0.357944 -0.115128 0)
(-0.00529367 -0.0215177 0)
(0.209454 0.0177374 0)
(0.40652 0.184327 0)
(0.273605 0.27386 0)
(-0.0388615 0.126195 0)
(-0.0161757 0.0977166 0)
(0.0923822 0.214603 0)
(0.10517 0.310964 0)
(0.156852 0.401326 0)
(-0.017943 0.417069 0)
(-0.294013 0.626188 0)
(-0.591428 0.567521 0)
(-0.909524 0.346665 0)
(-0.856472 -0.373947 0)
(-0.873885 -0.674639 0)
(-0.843632 -0.59173 0)
(-0.725727 -0.567094 0)
(-0.511177 -0.445987 0)
(-0.44183 -0.274641 0)
(-0.387271 -0.0742524 0)
(-0.200978 -0.0564552 0)
(-0.176604 -0.0689824 0)
(-0.259656 -0.0195693 0)
(-0.0602215 -0.200634 0)
(0.109854 -0.023184 0)
(-0.291893 0.418428 0)
(-0.0971101 0.429146 0)
(-0.107047 0.42868 0)
(-0.146108 0.132925 0)
(-0.252086 -0.0973129 0)
(-0.198363 -0.147572 0)
(-0.217858 0.0793741 0)
(-0.610382 0.791352 0)
(-0.82287 0.955754 0)
(-0.89492 0.899109 0)
(-0.799327 0.539598 0)
(-0.715348 -0.335626 0)
(-0.920828 -0.789578 0)
(-0.794287 -0.598598 0)
(-0.736311 -0.448737 0)
(-0.670786 -0.434084 0)
(-0.603863 -0.306814 0)
(-0.466778 -0.124546 0)
(-0.379075 -0.0668856 0)
(-0.293081 -0.0825448 0)
(-0.256233 -0.0597 0)
(-0.133775 -0.041082 0)
(-0.51396 0.317094 0)
(-0.870676 0.157332 0)
(-0.80638 -0.0662555 0)
(-0.74238 -0.0943028 0)
(-0.450803 0.16592 0)
(-0.51499 0.242912 0)
(-0.960101 0.408962 0)
(-1.51841 0.821493 0)
(-1.62643 1.0307 0)
(-1.54051 0.979439 0)
(-1.05657 0.64469 0)
(-0.55616 -0.0448901 0)
(-0.632407 -0.61234 0)
(-0.839145 -0.702108 0)
(-0.813445 -0.670773 0)
(-0.958566 -0.679326 0)
(-0.714637 -0.55271 0)
(-0.620531 -0.453832 0)
(-0.377821 -0.288634 0)
(-0.217688 -0.333974 0)
(-0.18278 -0.393118 0)
(0.0413834 -0.167724 0)
(-0.176439 0.326982 0)
(-0.452177 0.755779 0)
(-0.853698 0.553905 0)
(-0.790128 0.251539 0)
(-0.767189 0.112848 0)
(-1.005 0.185603 0)
(-1.16869 0.652743 0)
(-1.40073 0.744408 0)
(-1.59923 0.823451 0)
(-1.59026 0.869996 0)
(-1.2341 0.643447 0)
(-0.861631 0.20568 0)
(-0.707891 0.00653939 0)
(-0.754512 -0.194216 0)
(-0.83436 -0.49126 0)
(-0.773303 -0.631775 0)
(-0.875455 -1.02285 0)
(-0.751875 -0.597583 0)
(-0.585995 -0.489634 0)
(-0.52783 -0.4442 0)
(-0.336296 -0.50896 0)
(-0.116596 -0.524291 0)
(0.0239137 -0.339598 0)
(-0.340601 0.574991 0)
(-0.383254 1.07106 0)
(-0.583216 0.555949 0)
(-0.363929 0.129922 0)
(-0.692623 0.194447 0)
(-1.01082 0.49672 0)
(-1.10934 0.867334 0)
(-1.27592 0.868597 0)
(-1.32899 0.923318 0)
(-1.19752 0.703416 0)
(-0.943087 0.255675 0)
(-0.81473 -0.162175 0)
(-0.826189 -0.153439 0)
(-0.87634 -0.304331 0)
(-0.882982 -0.593597 0)
(-0.940751 -0.84934 0)
(-0.992196 -0.934176 0)
(-1.06717 -0.852297 0)
(-0.894167 -0.732244 0)
(-0.756309 -0.740736 0)
(-0.432412 -0.440801 0)
(-0.242395 -0.402121 0)
(-0.237071 -0.374357 0)
(-0.342846 0.697601 0)
(-0.205158 1.34506 0)
(-0.487404 0.993036 0)
(-0.503667 0.300756 0)
(-0.723547 0.505476 0)
(-0.881857 0.73081 0)
(-1.07256 0.786945 0)
(-1.10459 0.743759 0)
(-0.945908 0.694152 0)
(-0.822597 0.512094 0)
(-0.732828 0.228072 0)
(-0.799847 -0.0306329 0)
(-0.959111 -0.0652106 0)
(-0.89369 -0.273838 0)
(-0.986218 -0.486177 0)
(-0.93898 -0.661436 0)
(-0.869235 -0.718499 0)
(-0.841338 -0.734278 0)
(-0.825563 -0.753332 0)
(-0.767678 -0.89388 0)
(-0.452258 -0.746892 0)
(-0.410105 -0.517345 0)
(-0.425918 -0.46158 0)
(-0.278182 0.849857 0)
(-0.171027 1.48944 0)
(-0.43126 1.42263 0)
(-0.740812 0.637688 0)
(-0.976621 0.668039 0)
(-0.947024 0.656685 0)
(-0.947277 0.692712 0)
(-0.933455 0.71599 0)
(-0.898692 0.660307 0)
(-0.773293 0.484787 0)
(-0.709504 0.29615 0)
(-0.883438 0.247621 0)
(-0.96671 0.0769605 0)
(-0.852101 -0.229864 0)
(-1.0087 -0.490835 0)
(-1.09124 -0.714482 0)
(-0.958472 -0.881324 0)
(-0.70929 -0.883151 0)
(-0.555733 -0.839982 0)
(-0.677672 -0.975125 0)
(-0.78251 -0.952215 0)
(-0.64291 -0.930083 0)
(-0.811673 -0.591445 0)
(-0.233369 0.979759 0)
(0.0583472 1.72701 0)
(-0.75638 1.41543 0)
(-1.14603 0.747774 0)
(-1.14545 0.647543 0)
(-1.12539 0.674294 0)
(-1.13931 0.694785 0)
(-1.01828 0.814239 0)
(-0.952889 0.787363 0)
(-0.948409 0.814346 0)
(-1.01528 0.625752 0)
(-1.27603 0.471683 0)
(-1.46401 -0.148908 0)
(-1.21206 -0.49268 0)
(-1.20071 -0.715898 0)
(-1.12719 -0.741647 0)
(-1.07714 -0.879566 0)
(-0.766528 -0.871117 0)
(-0.607992 -0.987139 0)
(-0.800473 -1.16814 0)
(-0.874498 -1.05339 0)
(-0.865527 -0.727336 0)
(-0.976498 -0.402743 0)
(-0.255332 1.05096 0)
(0.235862 2.0173 0)
(-0.909328 1.66314 0)
(-1.19743 0.875693 0)
(-1.35535 0.646334 0)
(-1.70182 0.550746 0)
(-1.85011 0.732442 0)
(-1.4549 1.05788 0)
(-1.43417 1.08991 0)
(-1.67138 0.90076 0)
(-1.66168 0.649364 0)
(-2.01066 0.308156 0)
(-1.89428 -0.17693 0)
(-1.34572 -0.575065 0)
(-1.13709 -0.871442 0)
(-0.992356 -0.822712 0)
(-0.988578 -0.905134 0)
(-0.909878 -0.92781 0)
(-0.872945 -1.10194 0)
(-0.889063 -1.23134 0)
(-0.912905 -1.16631 0)
(-0.899683 -0.800376 0)
(-0.835184 -0.370603 0)
(-0.451163 0.938545 0)
(0.199044 2.44108 0)
(-0.866611 2.32357 0)
(-1.19059 1.2785 0)
(-1.24569 0.764797 0)
(-1.60439 0.611271 0)
(-1.84332 0.89599 0)
(-1.78048 1.04459 0)
(-1.64708 0.873209 0)
(-1.67754 0.752093 0)
(-1.61065 0.367695 0)
(-1.59498 -0.2004 0)
(-1.25564 -0.401026 0)
(-1.26784 -0.760351 0)
(-0.948104 -0.901285 0)
(-0.916343 -1.03512 0)
(-0.974622 -0.984164 0)
(-0.934146 -1.00975 0)
(-0.96272 -1.0367 0)
(-1.09516 -0.982652 0)
(-0.989248 -0.877219 0)
(-0.853936 -0.931222 0)
(-1.01024 -0.661735 0)
(-0.774566 1.08164 0)
(-0.0107917 2.78182 0)
(-0.694021 2.75259 0)
(-0.653669 1.71096 0)
(-0.849553 1.07715 0)
(-1.05646 0.616229 0)
(-1.44342 0.803161 0)
(-1.50843 1.07876 0)
(-1.4562 1.01157 0)
(-1.24459 0.608219 0)
(-1.45152 0.0299771 0)
(-1.52695 -0.35712 0)
(-0.962404 -0.848539 0)
(-0.826 -1.17528 0)
(-0.605306 -1.04347 0)
(-0.609599 -1.14695 0)
(-0.581619 -1.03095 0)
(-0.802494 -1.04263 0)
(-0.790528 -0.938739 0)
(-1.075 -0.890958 0)
(-1.14709 -0.791481 0)
(-1.10983 -0.886547 0)
(-1.12936 -0.581255 0)
(-0.898373 1.26288 0)
(0.180536 2.85803 0)
(-0.422626 3.04024 0)
(0.13198 2.70673 0)
(-0.305681 1.56731 0)
(-0.310303 1.41896 0)
(-0.71437 1.18359 0)
(-0.822255 1.2266 0)
(-0.653206 1.3611 0)
(-0.566139 0.645937 0)
(-0.0441927 -0.338327 0)
(-0.250356 -0.655383 0)
(-0.43655 -0.770919 0)
(0.353902 -1.59569 0)
(0.489611 -1.02423 0)
(-0.316668 -0.73226 0)
(-0.395368 -0.675335 0)
(-0.553578 -0.645848 0)
(-0.565021 -0.746706 0)
(-0.937042 -0.710211 0)
(-1.13976 -0.747402 0)
(-1.15697 -0.721055 0)
(-1.25662 -0.719078 0)
(-0.925848 1.4282 0)
(0.513114 2.49214 0)
(0.108481 2.92491 0)
(0.554726 2.44954 0)
(0.0755774 1.29674 0)
(0.622122 1.28298 0)
(0.315353 1.00581 0)
(0.174791 0.786533 0)
(0.418443 0.781638 0)
(0.717853 0.163891 0)
(1.01532 -0.226949 0)
(1.1787 -0.252711 0)
(1.18519 -0.507355 0)
(1.32619 -0.774493 0)
(0.960877 -0.716815 0)
(-0.111817 -0.598435 0)
(-0.176224 -0.569092 0)
(-0.506159 -0.389382 0)
(-0.538995 -0.631934 0)
(-0.822674 -0.703965 0)
(-0.930438 -0.742834 0)
(-0.941628 -0.612748 0)
(-0.965746 -0.690115 0)
(-0.877923 1.54722 0)
(0.750615 1.99933 0)
(0.632574 2.33429 0)
(0.974928 1.92939 0)
(0.769678 1.44115 0)
(1.05023 1.39596 0)
(1.02289 1.19026 0)
(1.30076 1.07492 0)
(1.51562 0.747005 0)
(1.86661 -0.138223 0)
(2.05215 -0.680282 0)
(2.06115 -0.6006 0)
(1.85294 -0.429624 0)
(1.92706 -0.340993 0)
(1.72255 -0.0825633 0)
(-0.0371978 -0.202475 0)
(-0.350856 -0.372607 0)
(-0.651068 -0.323689 0)
(-0.689577 -0.428515 0)
(-0.798634 -0.618427 0)
(-0.860656 -0.653026 0)
(-0.875875 -0.589627 0)
(-0.853714 -0.564693 0)
(-0.817817 1.6644 0)
(0.813387 1.86453 0)
(0.6004 1.77633 0)
(1.09 1.72314 0)
(1.73042 1.68411 0)
(1.79939 1.41096 0)
(1.84299 1.3914 0)
(1.88875 1.20266 0)
(1.90642 0.796958 0)
(2.2589 -0.23733 0)
(2.34725 -0.696466 0)
(2.37022 -0.635825 0)
(2.23586 -0.524747 0)
(2.36289 -0.0309481 0)
(2.08376 0.597731 0)
(0.538764 0.594617 0)
(-0.159134 0.347383 0)
(-0.605924 -0.00427369 0)
(-0.779336 -0.214383 0)
(-0.913065 -0.422305 0)
(-0.827197 -0.53031 0)
(-0.729121 -0.534815 0)
(-0.761928 -0.425367 0)
(-0.653493 1.75014 0)
(0.718193 1.47211 0)
(0.681406 1.55946 0)
(1.26991 1.65498 0)
(1.82604 1.59447 0)
(2.04189 1.26588 0)
(2.18877 1.2439 0)
(2.15636 1.09915 0)
(2.22528 0.323384 0)
(2.28163 -0.329335 0)
(1.68616 -0.301429 0)
(1.48019 -0.263094 0)
(1.68816 -0.0634851 0)
(1.95668 0.778167 0)
(1.42382 0.974508 0)
(-0.292734 1.26798 0)
(-0.411539 0.72172 0)
(-0.82526 0.268297 0)
(-0.76793 -0.130706 0)
(-0.877279 -0.408562 0)
(-0.851292 -0.652763 0)
(-0.617253 -0.762056 0)
(-0.554859 -0.768905 0)
(-0.0785628 1.44835 0)
(0.585972 1.0129 0)
(0.926098 0.65831 0)
(1.53795 0.541797 0)
(1.77469 0.405949 0)
(2.06834 0.559989 0)
(2.27207 0.843841 0)
(2.16908 0.807227 0)
(1.66718 0.39534 0)
(1.09989 0.191737 0)
(1.00533 0.0939486 0)
(0.825845 -0.0976005 0)
(0.915612 0.0286771 0)
(1.0157 0.753404 0)
(-0.0963725 1.53042 0)
(-0.7691 1.75277 0)
(-0.735674 1.35203 0)
(-0.847195 0.701668 0)
(-0.790949 -0.167415 0)
(-0.920811 -0.513967 0)
(-0.953476 -0.692381 0)
(-0.643032 -0.810467 0)
(-0.442484 -1.09472 0)
(0.0260603 0.995308 0)
(0.511605 0.721667 0)
(0.225159 0.0697775 0)
(0.38259 0.248169 0)
(0.554703 0.369309 0)
(1.19887 0.601232 0)
(1.19553 0.606794 0)
(1.1685 0.70016 0)
(1.11695 0.699377 0)
(0.841248 0.425249 0)
(0.736468 0.225346 0)
(0.701381 0.0761304 0)
(0.459262 0.285668 0)
(0.0274032 1.27122 0)
(-0.553797 1.91186 0)
(-0.699131 2.06916 0)
(-0.771192 1.72725 0)
(-0.765536 0.574738 0)
(-0.605762 -0.274697 0)
(-0.67271 -0.640489 0)
(-0.584347 -0.745174 0)
(-0.720084 -0.741589 0)
(-0.424798 -0.977129 0)
(-0.149898 0.91925 0)
(0.504687 0.577688 0)
(0.0699691 0.321486 0)
(0.262252 0.281319 0)
(0.415401 0.118643 0)
(0.708111 0.35794 0)
(0.667532 0.432688 0)
(0.791947 0.678741 0)
(0.995079 0.744425 0)
(0.863654 0.477659 0)
(0.636514 0.213594 0)
(0.569367 0.240406 0)
(0.148658 0.767195 0)
(-0.318786 1.74813 0)
(-0.516852 2.07768 0)
(-0.429192 2.09318 0)
(-0.673557 1.60379 0)
(-0.674938 0.449848 0)
(-0.408024 -0.153592 0)
(-0.536782 -0.514665 0)
(-0.367399 -0.704326 0)
(-0.471594 -0.81177 0)
(-0.39364 -0.924628 0)
(-0.162132 0.904087 0)
(0.176153 0.471399 0)
(-0.0172421 0.308577 0)
(0.288438 0.262658 0)
(0.936316 -0.0548169 0)
(0.730655 -0.0790583 0)
(0.685401 0.307097 0)
(0.823283 0.586412 0)
(0.835752 0.763527 0)
(0.781173 0.661053 0)
(0.465107 0.416366 0)
(0.506238 0.442968 0)
(-0.0510362 1.2349 0)
(-0.379342 1.92398 0)
(-0.471078 2.08412 0)
(-0.118117 1.84273 0)
(-0.302718 1.25039 0)
(-0.288285 0.315448 0)
(-0.253321 -0.35388 0)
(-0.227953 -0.603347 0)
(-0.215421 -1.06397 0)
(-0.366586 -1.00371 0)
(-0.135883 -1.10297 0)
(-0.102605 0.870466 0)
(0.0671397 0.399557 0)
(-0.00177707 0.18501 0)
(0.414705 -0.00194852 0)
(0.888493 -0.217011 0)
(0.929379 -0.17523 0)
(0.806161 0.190245 0)
(0.688551 0.39985 0)
(0.804318 0.67848 0)
(0.826501 0.967474 0)
(0.21476 0.969059 0)
(0.35556 0.823928 0)
(-0.547369 1.54953 0)
(-0.36579 1.96829 0)
(-0.368997 1.95918 0)
(-0.0479496 1.78488 0)
(0.051339 1.35454 0)
(0.44795 0.614735 0)
(0.213657 -0.17875 0)
(-0.0620341 -0.66234 0)
(0.12027 -1.2281 0)
(0.159345 -1.05216 0)
(0.0485957 -1.03342 0)
(0.056965 0.91161 0)
(-0.003285 0.374379 0)
(0.267701 -0.0704113 0)
(0.304215 -0.338758 0)
(0.327876 -0.171609 0)
(0.298627 -0.0505641 0)
(0.414812 -0.0192903 0)
(0.531701 0.268299 0)
(0.743049 0.739718 0)
(0.736089 0.963443 0)
(-0.092066 1.52447 0)
(0.233696 1.07948 0)
(-0.73763 1.71897 0)
(-0.428154 2.09862 0)
(-0.280257 1.81247 0)
(0.202705 1.75391 0)
(0.171646 1.53342 0)
(0.391538 0.765141 0)
(0.487714 -0.0314851 0)
(0.289084 -0.829181 0)
(0.45676 -0.950453 0)
(0.397641 -1.20935 0)
(0.260074 -1.23454 0)
(-0.00199316 0.855476 0)
(-0.137041 0.281466 0)
(0.0855694 0.00682674 0)
(-0.227886 -0.0742403 0)
(-0.246438 -0.238991 0)
(-0.155441 -0.293142 0)
(0.0792506 -0.286395 0)
(0.100931 0.225176 0)
(0.196266 0.873132 0)
(-0.0349337 1.34493 0)
(-0.604677 1.71096 0)
(-0.380712 1.6053 0)
(-0.627035 2.01081 0)
(-0.437603 2.13355 0)
(-0.332556 1.87448 0)
(0.326017 1.56614 0)
(0.27846 1.34155 0)
(0.461522 0.767456 0)
(0.233899 -0.16991 0)
(0.571323 -0.731012 0)
(0.668928 -0.947225 0)
(0.5277 -1.21116 0)
(0.56855 -1.17849 0)
(-0.058926 0.888177 0)
(-0.263565 0.372943 0)
(-0.244747 0.0661293 0)
(-0.707093 -0.0940465 0)
(-0.710769 -0.325516 0)
(-0.687739 -0.344871 0)
(-0.750738 -0.185086 0)
(-0.905355 0.463747 0)
(-0.861027 1.03119 0)
(-0.720504 1.26639 0)
(-0.875399 1.468 0)
(-0.832729 1.8819 0)
(-0.899747 2.03325 0)
(-0.501067 1.9946 0)
(-0.452731 1.66146 0)
(0.0616818 1.40532 0)
(-0.00454507 0.886308 0)
(0.502317 0.421228 0)
(0.674206 -0.445873 0)
(0.826568 -0.803732 0)
(0.770424 -1.04826 0)
(0.691171 -1.00804 0)
(0.616355 -1.08225 0)
(-0.115264 0.99281 0)
(-0.356213 0.622767 0)
(-0.530085 0.431406 0)
(-0.953827 0.285695 0)
(-0.970359 -0.0627491 0)
(-1.09337 -0.20035 0)
(-1.35967 -0.113551 0)
(-1.39862 0.37344 0)
(-1.29088 0.971839 0)
(-1.13911 1.19614 0)
(-1.05886 1.2204 0)
(-1.0098 1.49356 0)
(-1.08953 1.65209 0)
(-0.588182 1.23764 0)
(-0.516534 0.847704 0)
(0.0473577 0.939222 0)
(0.405835 0.307092 0)
(0.699729 -0.123813 0)
(0.811553 -0.582581 0)
(0.965467 -0.68152 0)
(0.940711 -0.814941 0)
(0.74736 -0.957376 0)
(0.674132 -1.05378 0)
(-0.0986612 1.12806 0)
(-0.406892 1.02964 0)
(-0.659543 0.651467 0)
(-0.906658 0.471012 0)
(-1.18761 0.15208 0)
(-1.49092 0.0691367 0)
(-1.57061 -0.00562868 0)
(-1.63037 0.168004 0)
(-1.45193 0.803201 0)
(-1.41615 1.05415 0)
(-1.30172 1.08955 0)
(-1.04886 1.20913 0)
(-1.04281 1.36567 0)
(-0.47783 1.13965 0)
(-0.280287 0.625635 0)
(0.148162 0.603001 0)
(0.59513 0.168476 0)
(0.645129 0.02212 0)
(0.800439 -0.35758 0)
(0.914543 -0.506903 0)
(0.886367 -0.823263 0)
(0.71463 -0.933577 0)
(0.681074 -1.09843 0)
(-0.031889 1.29891 0)
(-0.377393 1.11515 0)
(-0.654541 1.16004 0)
(-0.685425 1.1116 0)
(-1.12643 0.462498 0)
(-1.34438 0.220478 0)
(-1.49341 0.152298 0)
(-1.51199 0.15239 0)
(-1.27712 0.432422 0)
(-1.36103 0.80441 0)
(-1.13092 1.20032 0)
(-0.756835 1.24693 0)
(-0.597373 1.25371 0)
(-0.0961314 1.09071 0)
(0.277571 0.589757 0)
(0.34293 0.301242 0)
(0.690372 -0.0831569 0)
(0.779428 -0.230324 0)
(0.888958 -0.509935 0)
(0.849361 -0.642039 0)
(0.877771 -0.936144 0)
(0.690438 -0.996939 0)
(0.659954 -0.911031 0)
(-0.202239 1.5435 0)
(-0.244178 1.40723 0)
(-0.272953 1.52703 0)
(-0.388622 1.3496 0)
(-0.804637 0.7339 0)
(-0.853747 0.459456 0)
(-0.915287 0.351736 0)
(-0.965887 0.382355 0)
(-0.82186 0.45696 0)
(-0.718732 0.52266 0)
(-0.58459 1.13752 0)
(-0.205526 1.15034 0)
(-0.105227 1.05555 0)
(0.356762 0.657881 0)
(0.654877 0.180205 0)
(0.712125 -0.150719 0)
(0.977932 -0.28364 0)
(0.919441 -0.275709 0)
(0.812451 -0.404149 0)
(0.71931 -0.46868 0)
(0.591592 -0.658245 0)
(0.534635 -0.615193 0)
(0.550806 -0.516812 0)
(-0.127627 1.72051 0)
(-0.096457 2.09627 0)
(-0.239379 1.56879 0)
(-0.340628 1.57847 0)
(-0.467676 0.922468 0)
(-0.1496 0.82721 0)
(-0.547631 0.345962 0)
(-0.411697 0.234759 0)
(-0.301809 0.334782 0)
(-0.136657 0.353057 0)
(-0.0269235 0.505703 0)
(0.118324 0.506191 0)
(0.326273 0.621939 0)
(0.726559 0.337448 0)
(0.678892 0.0257167 0)
(0.776816 -0.0717203 0)
(1.12786 -0.267116 0)
(0.999731 -0.355139 0)
(0.687134 -0.446254 0)
(0.547045 -0.450181 0)
(0.573925 -0.455794 0)
(0.579848 -0.429129 0)
(0.482015 -0.430303 0)
(0.0225074 1.74364 0)
(-0.216566 2.32953 0)
(-0.0668047 1.80867 0)
(0.112913 2.0152 0)
(-0.284633 1.37346 0)
(-0.0762839 0.873084 0)
(-0.258986 0.38739 0)
(-0.0645852 0.183513 0)
(0.00199704 0.16687 0)
(0.0718171 0.241869 0)
(0.255002 0.221527 0)
(0.32118 0.33617 0)
(0.493103 0.420217 0)
(0.791835 0.267657 0)
(0.86799 0.0798611 0)
(0.853547 -0.00250129 0)
(0.915363 -0.134218 0)
(0.768868 -0.395239 0)
(0.601555 -0.349906 0)
(0.54258 -0.294115 0)
(0.484046 -0.290224 0)
(0.411989 -0.352341 0)
(0.332271 -0.458284 0)
(0.0439069 1.87199 0)
(-0.0151132 2.46362 0)
(-0.12447 2.40731 0)
(0.0522355 2.05254 0)
(-0.220171 1.37916 0)
(0.0645868 0.7531 0)
(0.0335165 0.304305 0)
(0.14947 0.052223 0)
(0.16338 0.0555669 0)
(0.22724 0.109143 0)
(0.368318 0.183144 0)
(0.424815 0.242127 0)
(0.529152 0.33905 0)
(0.644925 0.22971 0)
(0.555337 0.0821629 0)
(0.607644 -0.0415701 0)
(0.824233 -0.279085 0)
(0.749212 -0.319555 0)
(0.655265 -0.261265 0)
(0.412279 -0.279506 0)
(0.381234 -0.295682 0)
(0.335153 -0.286682 0)
(0.277346 -0.36095 0)
(-0.0215655 1.86111 0)
(-0.0428712 2.53301 0)
(-0.171919 2.32598 0)
(0.0217262 2.01749 0)
(-0.0879957 1.30963 0)
(0.228711 0.499875 0)
(0.17572 0.199003 0)
(0.209978 0.0230701 0)
(0.20988 0.00419152 0)
(0.237985 0.0335439 0)
(0.320825 0.0607416 0)
(0.400489 0.0978203 0)
(0.441701 0.161568 0)
(0.534788 0.172278 0)
(0.576663 0.0919136 0)
(0.659234 0.0959841 0)
(0.660618 -0.0591258 0)
(0.612932 -0.0999056 0)
(0.485616 -0.298259 0)
(0.378509 -0.269024 0)
(0.389844 -0.259332 0)
(0.337643 -0.252009 0)
(0.239772 -0.267562 0)
(-0.195109 1.76954 0)
(0.00808061 2.6458 0)
(-0.285066 2.26779 0)
(0.00977102 1.81537 0)
(0.022607 1.00828 0)
(0.189959 0.29438 0)
(0.139027 0.0759206 0)
(0.221163 0.00374705 0)
(0.220289 0.00394087 0)
(0.23815 0.0189328 0)
(0.273114 0.0252046 0)
(0.297039 0.0290057 0)
(0.340495 0.0675863 0)
(0.405375 0.0268447 0)
(0.425973 0.05391 0)
(0.379075 -0.0196681 0)
(0.448797 -0.0420842 0)
(0.558826 -0.185701 0)
(0.481848 -0.243299 0)
(0.433589 -0.196749 0)
(0.236983 -0.214437 0)
(0.281533 -0.313195 0)
(0.232701 -0.389588 0)
(-0.403984 1.81175 0)
(0.413107 2.78953 0)
(-0.305792 2.34807 0)
(0.0956204 1.61058 0)
(-0.0565912 0.814994 0)
(0.183126 0.198353 0)
(0.182518 0.0418923 0)
(0.22577 -0.0347182 0)
(0.219448 -0.0490744 0)
(0.228822 -0.0536083 0)
(0.243139 -0.0446196 0)
(0.274249 -0.0122223 0)
(0.255561 -0.0336888 0)
(0.335099 0.0167174 0)
(0.478522 0.0471509 0)
(0.463807 0.030418 0)
(0.409575 0.0900531 0)
(0.293158 0.0203613 0)
(0.272804 -0.0396995 0)
(0.227381 -0.173989 0)
(0.0879551 -0.168031 0)
(0.133954 -0.260416 0)
(0.31876 -0.433666 0)
(-0.403382 1.98472 0)
(0.813745 2.81397 0)
(-0.0604338 2.52601 0)
(0.18012 1.60952 0)
(0.0913559 0.646789 0)
(0.209992 0.166045 0)
(0.211601 -0.00287103 0)
(0.231479 -0.019597 0)
(0.227735 -0.0148231 0)
(0.218015 0.0090027 0)
(0.208097 -0.0105595 0)
(0.188094 0.00843991 0)
(0.260653 0.00453824 0)
(0.41693 0.116789 0)
(0.390656 0.112333 0)
(0.311173 0.0179684 0)
(0.353536 -0.171924 0)
(0.313868 -0.134653 0)
(0.188416 -0.152253 0)
(0.185969 -0.1509 0)
(0.123778 -0.141446 0)
(0.166817 -0.196677 0)
(0.270009 -0.391814 0)
(-0.460497 2.53567 0)
(0.611582 2.90967 0)
(-0.0947097 2.56883 0)
(0.310221 1.55072 0)
(0.249824 0.593585 0)
(0.312631 0.176849 0)
(0.304906 -0.000472848 0)
(0.263971 -0.0450233 0)
(0.252337 -0.0352397 0)
(0.216798 -0.0409907 0)
(0.221531 -0.0386375 0)
(0.199169 -0.0762553 0)
(0.254424 0.0315718 0)
(0.456913 -0.0337011 0)
(0.408868 -0.000216684 0)
(0.273008 0.0563874 0)
(0.338602 -0.0322236 0)
(0.295422 -0.0646631 0)
(0.263783 -0.0155077 0)
(0.22953 0.0399609 0)
(0.150502 -0.0258683 0)
(0.14337 -0.213005 0)
(0.23036 -0.422803 0)
(-0.404964 2.70221 0)
(0.260233 2.78071 0)
(-0.166604 2.41244 0)
(0.413431 1.19113 0)
(0.318199 0.432583 0)
(0.332701 0.158573 0)
(0.28459 0.0469211 0)
(0.259329 0.115887 0)
(0.214617 0.0803493 0)
(0.208993 0.0684355 0)
(0.159678 0.0402023 0)
(0.233463 -0.0224666 0)
(0.246628 0.0602597 0)
(0.260382 0.0408748 0)
(0.450241 -0.0269934 0)
(0.282266 -0.0171374 0)
(0.25599 -0.0481972 0)
(0.438499 -0.134698 0)
(0.431675 -0.0330428 0)
(0.267788 -0.026022 0)
(0.182533 -0.0182595 0)
(0.235886 -0.260488 0)
(0.184809 -0.37936 0)
(-0.350715 2.68653 0)
(0.0994949 2.62024 0)
(-0.00243717 2.2087 0)
(0.40809 1.06789 0)
(0.342627 0.546967 0)
(0.332014 0.312474 0)