/*--------------------------------*- C++ -*----------------------------------*\
| =========                 |                                                 |
| \\      /  F ield         | foam-extend: Open Source CFD                    |
|  \\    /   O peration     | Version:     4.1                                |
|   \\  /    A nd           | Web:         http://www.foam-extend.org         |
|    \\/     M anipulation  |                                                 |
\*---------------------------------------------------------------------------*/
FoamFile
{
    version     2.0;
    format      ascii;
    class       volScalarField;
    location    "0.65";
    object      alpha1;
}
// * * * * * * * * * * * * * * * * * * * * * * * * * * * * * * * * * * * * * //

dimensions      [0 0 0 0 0 0 0];

internalField   nonuniform List<scalar> 
2268
(
1
1
1
1
1
1
1
1
1
0.998001
0.996895
0.996723
0.997204
0.998
0.998792
0.999432
0.999869
1
1
1
1
0.999982
0.999878
1
1
1
1
1
1
1
1
0.998646
0.996674
0.99589
0.995963
0.996636
0.997577
0.998469
0.999181
0.999685
0.999956
1
1
1
1
0.999997
0.996088
0.996806
0.996268
0.997036
0.99777
0.999011
0.998972
0.997202
0.995066
0.993796
0.993772
0.994352
0.995423
0.996641
0.997729
0.998587
0.999248
0.999627
0.999862
0.999939
1
1
1
0.978508
0.980754
0.981474
0.984965
0.987742
0.990991
0.991685
0.990441
0.989376
0.989526
0.990664
0.991956
0.993534
0.995086
0.996435
0.997529
0.998462
0.999025
0.999458
0.999737
1
1
1
0.939061
0.944873
0.94927
0.959154
0.966813
0.975045
0.978572
0.979937
0.981513
0.983918
0.986493
0.988606
0.990693
0.99258
0.994247
0.995707
0.997098
0.997974
0.99878
0.999527
1
1
1
0.859502
0.872666
0.885246
0.908155
0.926587
0.946257
0.957303
0.964818
0.971333
0.97659
0.980784
0.983713
0.986327
0.988544
0.990576
0.992608
0.994768
0.996143
0.997544
0.999127
1
1
1
0.720709
0.745116
0.77124
0.816077
0.855301
0.898548
0.925484
0.94387
0.957732
0.9664
0.972387
0.976163
0.979492
0.982095
0.984533
0.987443
0.99081
0.993033
0.995185
0.997958
1
1
1
0.528277
0.561041
0.599803
0.670287
0.740315
0.824506
0.87901
0.913532
0.937589
0.951079
0.959377
0.964195
0.96866
0.971865
0.974761
0.978953
0.98406
0.987566
0.990578
0.99481
0.997883
0.999909
0.990597
0.343522
0.391861
0.41393
0.426243
0.430365
0.417688
0.407169
0.39513
0.424736
0.455388
0.492245
0.505937
0.513259
0.522083
0.522647
0.535922
0.515881
0.503964
0.502523
0.341946
0.388813
0.415599
0.462446
0.517123
0.541274
0.538184
0.484852
0.454861
0.411622
0.42536
0.438098
0.427143
0.460262
0.47999
0.503705
0.506134
0.500368
0.504053
0.339086
0.372179
0.370472
0.422106
0.556226
0.656383
0.704569
0.668842
0.620855
0.444387
0.355431
0.348574
0.314664
0.346776
0.39514
0.433095
0.451598
0.484984
0.506751
0.331743
0.341331
0.287621
0.319566
0.487843
0.671922
0.786284
0.807075
0.787814
0.592793
0.394863
0.315345
0.245281
0.248767
0.299025
0.341052
0.345104
0.446236
0.507568
0.322744
0.303823
0.202905
0.210954
0.355988
0.61614
0.792248
0.850272
0.858547
0.764499
0.55692
0.360689
0.254596
0.207002
0.223317
0.258866
0.245494
0.37976
0.50617
0.313783
0.269724
0.143725
0.139297
0.272857
0.582481
0.765144
0.840038
0.860303
0.843157
0.723431
0.462551
0.336851
0.222674
0.183183
0.197355
0.187131
0.317612
0.505397
0.305859
0.248626
0.114299
0.0995345
0.24951
0.580838
0.740995
0.807899
0.82215
0.834185
0.806854
0.631323
0.497242
0.294295
0.180017
0.158369
0.156153
0.276511
0.50616
0.296325
0.242068
0.108445
0.0877146
0.258787
0.594051
0.720331
0.767317
0.77756
0.782384
0.793398
0.724296
0.62488
0.396836
0.207444
0.139847
0.128038
0.241599
0.507407
0.229747
0.256259
0.29342
0.384239
0.4996
0.665947
0.777757
0.84369
0.88975
0.914421
0.927961
0.934916
0.94198
0.947036
0.950889
0.957754
0.966877
0.972809
0.977091
0.98334
0.986374
0.982611
0.933568
0.0676875
0.0811201
0.10575
0.175543
0.298113
0.455395
0.578687
0.667029
0.7571
0.809713
0.83756
0.849437
0.858109
0.871937
0.880075
0.890371
0.905659
0.915248
0.920116
0.934459
0.944892
0.938029
0.81737
0.0288035
0.0422541
0.0709396
0.115318
0.169291
0.223411
0.295
0.360978
0.459481
0.534482
0.581453
0.621951
0.614473
0.656536
0.673689
0.680614
0.697209
0.702694
0.757011
0.769336
0.829844
0.872146
0.778397
0.0216673
0.0354191
0.0528715
0.0675021
0.0865373
0.117317
0.150699
0.18175
0.199087
0.230615
0.253885
0.279493
0.273022
0.282961
0.291578
0.287738
0.298347
0.30836
0.389307
0.422302
0.56364
0.699153
0.679006
0.0173504
0.0255594
0.032469
0.0402233
0.0560658
0.076161
0.0851816
0.0908761
0.0833671
0.0843788
0.0844318
0.0874653
0.0873626
0.0823774
0.0851478
0.0938421
0.102095
0.111773
0.132567
0.153801
0.241673
0.466132
0.599872
0.0131226
0.0169555
0.0201915
0.0262891
0.035403
0.0426045
0.0424304
0.0385728
0.0338888
0.0340814
0.0365898
0.0405672
0.0446163
0.049855
0.0608657
0.0742025
0.0866733
0.101865
0.115059
0.125101
0.168075
0.251393
0.390352
0.0101543
0.0116997
0.0141607
0.0180831
0.0218287
0.0228972
0.0220849
0.0207069
0.0283449
0.0424513
0.0572486
0.0715689
0.0848795
0.0978206
0.110416
0.122412
0.133858
0.144495
0.153942
0.161878
0.175901
0.206997
0.254865
0.00797117
0.00792473
0.00968852
0.0108776
0.0122143
0.0126468
0.0128395
0.0142626
0.0260927
0.0396659
0.0543899
0.0703149
0.0854621
0.0993296
0.111008
0.120694
0.132335
0.147433
0.164013
0.178434
0.187323
0.200056
0.213765
0.00610112
0.00511228
0.00574699
0.00564121
0.00748667
0.0110636
0.0148278
0.0217007
0.0375593
0.0509967
0.0612961
0.0685219
0.0725647
0.0756358
0.0780712
0.0803127
0.0923552
0.101421
0.117834
0.13657
0.149977
0.176587
0.200792
0.0046461
0.00376229
0.00551572
0.00812886
0.0121461
0.0163997
0.0250879
0.0339969
0.0400353
0.042496
0.0421256
0.0356496
0.02857
0.026003
0.0255756
0.027654
0.0341501
0.0363938
0.0426137
0.0527334
0.0626873
0.0824309
0.0952689
0.00366098
0.00303953
0.00553328
0.00954683
0.0150981
0.0190494
0.0232115
0.0262635
0.0280938
0.0274105
0.0243162
0.0168205
0.00860537
0.00598633
0.00584316
0.00759347
0.0111989
0.0133278
0.0165699
0.0211593
0.0272911
0.0370165
0.0429993
0.00298641
0.00294181
0.00594528
0.0100554
0.0137365
0.015625
0.0156781
0.0148836
0.0159357
0.015213
0.0117319
0.00534495
0.00188944
0.000999156
0.00104974
0.0019289
0.0037683
0.00558145
0.00764109
0.0100849
0.0136348
0.0187468
0.0228332
0.00230785
0.00255091
0.00537805
0.00868724
0.0104108
0.0106461
0.010577
0.0108071
0.010674
0.00753336
0.00389181
0.00130619
0.000298202
0.000122451
0.000332072
0.00105423
0.00207219
0.00306341
0.0040244
0.00503479
0.00644899
0.0086853
0.0105732
0.00149724
0.00176593
0.00389559
0.00595279
0.00624466
0.00554198
0.00696939
0.00838813
0.00750477
0.00327646
0.00104803
0.000201702
4.15275e-06
3.88619e-06
0.000280444
0.00107073
0.00166648
0.00197481
0.00231642
0.00300814
0.00421336
0.00557923
0.0062132
0.000932262
0.00100817
0.00204834
0.00328987
0.00306289
0.00273848
0.00511697
0.0069766
0.00513603
0.0014151
0.000294835
2.81188e-05
0
0
0
4.38213e-05
0.000203681
0.000340468
0.00054043
0.000788042
0.0010139
0.00162153
0.00241247
0.000808176
0.000733545
0.00115289
0.0017036
0.00147382
0.00188147
0.0046333
0.00619443
0.00323336
0.000650615
0.000120717
2.36323e-05
3.19106e-06
0
0
0
0
0
3.44438e-05
0.000122794
0.000150035
0.000264975
0.000548621
0.000908474
0.00068876
0.000720479
0.000810687
0.000861012
0.00185722
0.00453901
0.00530417
0.00179782
0.000360543
0.000116051
4.92563e-05
1.47516e-05
0
0
0
0
0
0
0
0
4.24351e-06
3.37834e-05
0.00103667
0.000671075
0.000446714
0.000516504
0.000875459
0.00231005
0.00448293
0.00412797
0.00125948
0.000291771
0.000120645
5.59677e-05
1.81207e-05
1.61054e-06
0
0
0
0
0
0
0
0
0
0.00106479
0.0006008
0.000384191
0.000549742
0.00125245
0.00307647
0.0041297
0.00251841
0.000676428
0.00021031
0.000103627
5.24791e-05
1.59029e-05
2.47312e-06
0
0
0
0
0
0
0
0
0
0.00108366
0.000575452
0.000479576
0.000841767
0.00216621
0.0034608
0.00332001
0.00144
0.000475759
0.000193965
7.07006e-05
2.64592e-05
6.69837e-06
5.26968e-07
0
0
0
0
0
1.34883e-07
1.07472e-07
7.39405e-08
0
0.00117588
0.000632415
0.000843131
0.00158729
0.00285278
0.00341013
0.00255683
0.00114711
0.000468244
0.000152803
3.83417e-05
1.04045e-05
2.21379e-06
1.99008e-07
0
0
0
0
0
3.33702e-08
6.05377e-08
8.98069e-08
1.22929e-07
0.00138668
0.000885995
0.00146991
0.00242315
0.0031534
0.00302025
0.00196762
0.000911355
0.000341294
0.000101237
2.7735e-05
4.98831e-06
8.205e-07
2.75998e-08
0
0
0
0
0
3.03795e-09
5.60911e-09
8.14074e-09
1.0148e-08
0.00167756
0.00138652
0.00218789
0.00296555
0.00327253
0.00265623
0.00175168
0.000780171
0.000249243
6.08584e-05
1.3964e-05
2.99366e-06
4.26161e-07
0
0
0
7.70525e-10
4.66365e-09
5.62267e-09
4.3615e-09
1.32677e-09
0
0
0.00203593
0.00217135
0.002845
0.00331964
0.00334978
0.00267211
0.00159167
0.000621235
0.000245111
9.26791e-05
2.87044e-05
6.76319e-06
1.16943e-06
1.57895e-07
2.62546e-08
1.11153e-08
1.00496e-08
9.44959e-09
6.63215e-09
3.04706e-09
1.03386e-09
9.88675e-11
0
0.00232134
0.00267639
0.00320106
0.00350082
0.00345026
0.00291626
0.00184603
0.000992987
0.000461063
0.000168929
4.89219e-05
1.15496e-05
2.33709e-06
3.79513e-07
5.77028e-08
1.36424e-08
6.85397e-09
4.53769e-09
2.4424e-09
8.50713e-10
1.73983e-10
5.42776e-11
9.47581e-12
0.00249584
0.0028021
0.00322441
0.00347979
0.00344382
0.00311945
0.00227464
0.00122668
0.000487944
0.000159522
4.03624e-05
7.83651e-06
1.13568e-06
1.21311e-07
1.29998e-08
5.03124e-09
2.94476e-09
1.40779e-09
4.45521e-10
6.44914e-11
0
0
1.62563e-11
0.00261055
0.00278108
0.00311049
0.00323657
0.00321408
0.00284488
0.00186923
0.000781434
0.000223045
5.43959e-05
1.0318e-05
1.38877e-06
1.15298e-07
0
2.24957e-11
1.53986e-09
1.1604e-09
5.3574e-10
1.56489e-10
9.00285e-12
0
0
0
0.00264808
0.00274706
0.00283454
0.002595
0.00239674
0.0018401
0.000873199
0.000254201
5.41813e-05
8.79153e-06
8.5213e-07
0
0
0
0
4.35935e-10
3.59057e-10
1.79892e-10
5.44287e-11
5.07272e-12
0
0
0
0.00260939
0.00263057
0.00245173
0.00185163
0.00128932
0.000739247
0.000262563
6.2944e-05
1.06495e-05
1.02886e-06
0
0
0
0
6.86129e-11
6.53435e-11
4.27768e-11
2.03344e-11
2.34474e-12
0
0
0
0
0.00235371
0.00225858
0.00186012
0.00112947
0.000563548
0.000231301
6.36515e-05
1.2013e-05
1.42133e-06
4.08889e-08
0
0
0
7.91401e-11
6.31706e-12
0
0
0
0
0
0
0
1.81089e-11
0.00154939
0.00140197
0.000981329
0.000479003
0.000185265
5.56997e-05
1.15549e-05
1.52848e-06
7.64319e-08
0
0
0
8.92024e-11
7.79815e-12
0
0
0
0
0
0
0
0
1.14765e-10
0.00055179
0.000491131
0.000307855
0.000124404
3.82927e-05
8.49286e-06
1.18114e-06
5.47969e-08
0
0
0
4.9194e-11
9.19215e-12
0
0
0
0
0
0
0
0
2.73326e-11
4.62008e-10
0.000123191
0.000111258
6.17145e-05
1.9799e-05
4.5949e-06
6.41173e-07
1.29557e-08
0
0
0
3.06875e-11
9.02012e-12
0
0
0
4.86e-13
1.44146e-12
0
0
0
4.80627e-11
4.43092e-10
1.22362e-09
1.83273e-05
1.67459e-05
7.90389e-06
1.83198e-06
2.42076e-07
0
0
0
0
2.99219e-11
9.39815e-12
1.46827e-13
0
0
5.27856e-13
2.23577e-12
5.69211e-13
0
0
0
5.77067e-10
1.91347e-09
2.88509e-09
1.78183e-06
1.63501e-06
5.90639e-07
5.76883e-08
0
0
0
0
2.74173e-11
6.24978e-12
4.4259e-13
0
0
2.12608e-13
1.45123e-12
2.38704e-12
0
0
0
3.20087e-10
2.3695e-09
3.81703e-09
9.33304e-10
9.7098e-08
8.99273e-08
1.30353e-08
0
0
0
3.5727e-12
1.9578e-11
3.93152e-12
1.5149e-13
0
0
3.06977e-14
5.95801e-13
2.31781e-12
2.54408e-13
0
0
0
1.19047e-09
4.38054e-09
2.78823e-09
0
1.28946e-11
3.60982e-10
0
0
0
1.74237e-11
1.05109e-11
1.65529e-12
0
0
0
0
3.28793e-13
1.8579e-12
2.53286e-12
0
0
0
4.46341e-10
3.27022e-09
5.8526e-09
0
0
0
0
0
0
1.05875e-11
4.59222e-12
6.99829e-13
0
0
0
0
1.05582e-13
1.04589e-12
3.21998e-12
3.25295e-13
0
0
0
1.93562e-09
8.18425e-09
4.3395e-09
0
0
0
0
0
3.5445e-12
1.56536e-12
1.4666e-13
0
0
0
0
0
5.27467e-13
2.45631e-12
1.83586e-12
0
0
0
5.90078e-10
5.04799e-09
1.3295e-08
0
0
0
5.13478e-14
1.75693e-13
7.84151e-13
4.18776e-13
3.20299e-14
0
0
3.4972e-15
0
0
6.53921e-14
8.56704e-13
1.99024e-12
0
0
0
8.60615e-11
2.61164e-09
1.15488e-08
2.01699e-08
0
0
0
1.37168e-13
9.52571e-14
6.64468e-14
1.07137e-14
0
2.498e-15
6.55032e-15
2.22045e-16
0
0
2.96152e-13
1.47499e-12
1.80522e-13
0
0
0
7.05861e-10
5.31713e-09
1.75745e-08
2.47215e-08
0
0
0
1.25455e-14
5.27356e-15
1.38778e-15
7.77156e-16
2.22045e-15
3.88578e-15
7.43849e-15
0
0
5.07372e-14
6.43818e-13
1.9762e-12
0
0
0
0
1.13991e-09
6.707e-09
2.01696e-08
2.70838e-08
0
0
0
0.840281
0.787533
0.693655
0.52728
0.541482
0.443857
0.420217
0.407068
0.418001
0.291712
0.275448
0.297005
0.371084
0.247001
0.200966
0.195228
0.494336
0.354977
0.26491
0.236854
0.449271
0.43726
0.406625
0.388652
0.287665
0.293252
0.288592
0.285105
0.229525
0.240213
0.251222
0.26274
0.212269
0.223004
0.2329
0.241134
0.0991547
0.105888
0.114909
0.125041
0.0465712
0.0510558
0.0574632
0.0661189
0.0258838
0.0279911
0.0304715
0.0345368
0.0115009
0.0115666
0.011175
0.01101
0.00632516
0.00623171
0.00613106
0.00613032
0.00283172
0.00289656
0.00273918
0.00246559
0.000807341
0.000917724
0.000945612
0.000890652
8.64722e-05
0.000128303
0.000168825
0.000199708
0
0
0
8.27267e-07
0
0
0
0
0
0
0
0
1.97583e-07
2.52452e-07
2.55674e-07
1.15875e-07
2.45643e-08
5.21109e-08
9.83099e-08
1.43044e-07
0
0
5.44629e-09
2.12862e-08
0
0
0
0
0
0
0
0
5.28107e-11
5.56543e-11
5.71442e-11
1.16549e-10
0
1.9946e-11
9.33981e-11
2.94364e-10
0
2.52561e-11
1.60485e-10
5.08153e-10
3.38404e-11
1.4361e-10
4.41317e-10
1.12396e-09
1.90813e-10
5.13397e-10
1.15287e-09
2.17194e-09
5.75037e-10
1.43548e-09
2.93379e-09
4.42968e-09
1.4307e-09
3.01764e-09
5.16444e-09
5.78995e-09
2.8176e-09
5.2883e-09
7.49855e-09
2.18476e-09
4.68617e-09
6.18271e-09
2.73829e-09
0
0
0
0
0
0
0
0
0
0
0
0
0
0
0
0
0
0
0
0
0
0
0
0
0
0
0
0
0
0
0
0
0
0.290987
0.228492
0.112224
0.106981
0.313014
0.617497
0.677208
0.696319
0.709634
0.680433
0.640853
0.65524
0.635486
0.541416
0.325787
0.150486
0.104654
0.217654
0.509718
0.268624
0.177026
0.108671
0.190601
0.483099
0.694886
0.59166
0.574961
0.565917
0.530813
0.301406
0.349977
0.488899
0.450305
0.300982
0.136978
0.0893597
0.220486
0.511506
0.232579
0.130258
0.190204
0.405712
0.538495
0.563239
0.451982
0.423012
0.355241
0.283564
0.142315
0.158816
0.342203
0.344223
0.254478
0.100762
0.108588
0.275923
0.545033
0.190078
0.194078
0.364874
0.561248
0.530089
0.430798
0.370277
0.292674
0.175864
0.123614
0.0877297
0.116052
0.294429
0.27287
0.196631
0.0931853
0.228826
0.43455
0.588732
0.229565
0.402307
0.504775
0.4041
0.346595
0.326338
0.315004
0.16925
0.0874561
0.0686864
0.0729374
0.156529
0.253549
0.197274
0.133509
0.0988948
0.321616
0.487389
0.593895
0.371827
0.344921
0.318132
0.301495
0.3008
0.292706
0.22027
0.0885648
0.0737593
0.0834521
0.11376
0.179311
0.208949
0.149744
0.116825
0.165882
0.399029
0.517915
0.586644
0.280815
0.285925
0.323353
0.322627
0.257404
0.185291
0.120433
0.0726818
0.0950287
0.131456
0.152307
0.161586
0.159881
0.123745
0.117453
0.288029
0.448888
0.585602
0.596335
0.281345
0.303343
0.313531
0.261895
0.144037
0.0757115
0.0632033
0.0713514
0.0979157
0.110864
0.117705
0.119763
0.116405
0.125519
0.145912
0.331215
0.451658
0.5956
0.595886
0.252398
0.266771
0.26793
0.236736
0.148654
0.0679503
0.0575718
0.0855904
0.12016
0.140699
0.148045
0.145899
0.159158
0.189236
0.249208
0.309725
0.390376
0.56584
0.594876
0.145034
0.195467
0.234763
0.240829
0.190294
0.110327
0.0802674
0.0866112
0.139925
0.21623
0.275595
0.303921
0.312061
0.310855
0.299716
0.230166
0.346272
0.534196
0.592671
0.0873414
0.144351
0.217527
0.265231
0.278332
0.258414
0.19373
0.162327
0.17946
0.232938
0.286298
0.300443
0.26656
0.218901
0.191407
0.185046
0.315842
0.459452
0.567112
0.0464671
0.0828452
0.139474
0.20162
0.235599
0.255715
0.260512
0.256089
0.244494
0.220104
0.182409
0.146558
0.132125
0.124417
0.122948
0.155841
0.271868
0.405509
0.527284
0.0122046
0.0192248
0.0384099
0.0723918
0.0994858
0.117991
0.126352
0.126777
0.112753
0.0867765
0.0732781
0.0690356
0.0683687
0.0764055
0.0889309
0.113078
0.216629
0.334155
0.43579
0.00690032
0.0102525
0.018466
0.0261301
0.0333342
0.0387189
0.0410365
0.0460324
0.0473223
0.0365855
0.031429
0.0378329
0.0379653
0.0459276
0.0597392
0.072964
0.162917
0.24004
0.289259
0.00218647
0.00285638
0.00588861
0.00888748
0.0128983
0.0159637
0.0174408
0.019497
0.0201226
0.0167424
0.0149637
0.0190738
0.0216828
0.0252156
0.0396247
0.0555881
0.120288
0.163637
0.195509
0.000780814
0.000961083
0.00212822
0.00394515
0.00670543
0.00826398
0.00885037
0.00888843
0.00773039
0.00672469
0.00657003
0.00859354
0.0105037
0.0128383
0.0243926
0.0396455
0.0868192
0.122934
0.152029
0.000250929
0.000422643
0.00117399
0.00233668
0.003872
0.00404319
0.00420766
0.00398575
0.00299461
0.00245398
0.0028123
0.00384299
0.00487467
0.00751705
0.0141913
0.026166
0.0548141
0.093268
0.128188
2.0788e-05
7.20532e-05
0.000288252
0.000690626
0.00177638
0.00133841
0.00159724
0.0017292
0.0012785
0.000904374
0.00109931
0.00136683
0.00171868
0.00283447
0.00559471
0.0120847
0.0317103
0.0724572
0.111969
0
0
4.84062e-05
0.000166818
0.000635172
0.000462208
0.000575755
0.000700143
0.000501146
0.000332489
0.000395416
0.000482912
0.000562998
0.000847595
0.00170951
0.00499903
0.0197176
0.0576557
0.0991046
0
0
0
1.77842e-05
0.00013351
0.000133095
0.000154672
0.000211986
0.000175231
0.000121764
0.000122289
0.000149361
0.000190989
0.000212824
0.000430043
0.00237125
0.015481
0.0515219
0.0879009
0
0
0
0
6.36654e-06
1.66172e-05
2.52441e-05
4.38712e-05
4.2475e-05
3.33728e-05
3.45657e-05
4.20581e-05
6.59567e-05
3.98672e-05
0.000110094
0.00164667
0.0135391
0.0469551
0.0775119
1.26398e-07
0
0
0
0
0
0
3.0407e-06
5.39458e-06
3.69156e-06
5.28477e-06
8.92048e-06
1.35205e-05
1.12231e-06
5.80793e-05
0.00146933
0.0115633
0.0391289
0.0687438
5.7141e-08
9.16883e-08
0
0
0
0
0
0
0
0
0
8.3895e-07
7.3366e-07
0
6.28225e-05
0.00129788
0.00853346
0.0295167
0.0623093
7.01786e-09
3.09348e-08
5.56476e-08
0
0
0
0
0
0
0
0
0
0
0
6.46728e-05
0.000864916
0.00549184
0.0234362
0.0580327
0
3.28384e-09
1.60454e-08
2.08409e-08
0
0
0
0
0
0
0
0
0
0
4.52067e-05
0.000576917
0.00420907
0.021263
0.0551901
4.47581e-10
1.44197e-09
4.49521e-09
8.84293e-09
8.10867e-09
0
0
0
0
0
0
0
0
2.89238e-06
5.10049e-05
0.0005316
0.0041071
0.0210248
0.0529504
9.97609e-10
2.64762e-09
3.99305e-09
4.72766e-09
3.85444e-09
0
0
0
0
0
0
0
4.69693e-07
1.02742e-05
6.0743e-05
0.000506086
0.00424464
0.0209903
0.0505094
1.62211e-09
3.79516e-09
6.33694e-09
6.04624e-09
3.57201e-09
0
0
0
0
0
0
0
6.74311e-07
1.33979e-05
7.80274e-05
0.000518503
0.00403859
0.0198206
0.0460937
3.12311e-09
5.08872e-09
7.10467e-09
5.20783e-09
1.79009e-09
0
0
0
0
0
0
0
2.03341e-06
1.34308e-05
6.16904e-05
0.000420151
0.00350252
0.017485
0.0397664
4.18967e-09
2.41907e-09
0
0
0
0
0
0
0
0
0
6.52279e-07
5.19451e-06
1.95087e-05
6.4009e-05
0.000358812
0.00303626
0.0154885
0.0326397
4.29896e-09
0
0
0
0
0
0
0
0
0
0
0
9.35227e-07
7.37776e-06
2.34654e-05
0.000245278
0.00272324
0.0133691
0.0256978
0
0
0
0
0
0
0
0
0
0
0
0
0
5.17452e-07
1.76801e-05
0.000324004
0.00281899
0.0106475
0.0199935
0
0
0
0
0
0
0
0
0
0
0
0
0
4.30996e-06
4.0152e-05
0.000393595
0.00246239
0.00770344
0.0156593
0
0
0
0
0
0
0
0
0
0
0
0
0
3.21423e-06
3.10883e-05
0.000247945
0.00147298
0.0052923
0.0124757
0
0
0
0
0
0
1.39279e-07
3.33003e-07
1.02649e-06
4.29987e-07
0
0
0
6.02476e-07
1.19886e-05
8.51524e-05
0.000712639
0.00369382
0.0101882
0
0
0
0
0
2.43084e-06
6.44218e-06
8.09298e-06
1.17186e-05
9.52754e-06
5.63772e-06
1.51578e-06
0
0
4.75423e-06
6.62259e-05
0.000580558
0.00291122
0.00856295
0
0
0
0
4.55497e-06
9.59313e-06
1.69257e-05
2.513e-05
2.94333e-05
2.51231e-05
1.6777e-05
8.14001e-06
1.73167e-06
0
2.02959e-06
2.57788e-05
0.000203959
0.00158833
0.00762799
0
0
0
5.35178e-06
1.60454e-05
2.75371e-05
3.98527e-05
5.64591e-05
5.5186e-05
4.86855e-05
3.51007e-05
1.98611e-05
7.55525e-06
1.37175e-06
0
1.03122e-06
0.000114715
0.00156989
0.00784255
0
0
2.73659e-06
1.52885e-05
3.22279e-05
5.39459e-05
7.16858e-05
8.75538e-05
8.38085e-05
7.69496e-05
6.37313e-05
4.71186e-05
2.53476e-05
9.01865e-06
2.4865e-06
7.12731e-07
0.000103855
0.00132078
0.00656805
0
0
6.33079e-06
2.43645e-05
4.44902e-05
6.88021e-05
9.48456e-05
0.000108304
0.000104889
9.65836e-05
8.11584e-05
5.7534e-05
3.15221e-05
1.45976e-05
7.8498e-06
0
4.75857e-05
0.000896816
0.00524734
0
0
1.1147e-05
2.95791e-05
5.17237e-05
7.51276e-05
0.000102707
0.000117751
0.00011296
0.000102012
8.69522e-05
6.82759e-05
4.5277e-05
2.50777e-05
1.40819e-05
1.35586e-06
5.22851e-06
0.000322571
0.00290213
0
0
1.39102e-05
3.26869e-05
5.54953e-05
7.92013e-05
0.000106263
0.00012031
0.000113714
0.000101112
8.66201e-05
7.12553e-05
5.23023e-05
3.40867e-05
2.52008e-05
1.53712e-05
0
3.37984e-05
0.000965774
)
;

boundaryField
{
    leftWall
    {
        type            zeroGradient;
    }
    rightWall
    {
        type            zeroGradient;
    }
    lowerWall
    {
        type            zeroGradient;
    }
    atmosphere
    {
        type            inletOutlet;
        inletValue      uniform 0;
        value           nonuniform List<scalar> 
46
(
1.25455e-14
5.27356e-15
1.38778e-15
7.77156e-16
2.22045e-15
3.88578e-15
7.43849e-15
0
0
5.07372e-14
6.43818e-13
1.9762e-12
0
0
0
0
1.13991e-09
6.707e-09
2.01696e-08
2.70838e-08
0
0
0
0
0
0
0
0
0
1.39102e-05
3.26869e-05
5.54953e-05
7.92013e-05
0.000106263
0.00012031
0.000113714
0.000101112
8.66201e-05
7.12553e-05
5.23023e-05
3.40867e-05
2.52008e-05
1.53712e-05
0
3.37984e-05
0.000965774
)
;
    }
    defaultFaces
    {
        type            empty;
    }
}


// ************************************************************************* //
