/*--------------------------------*- C++ -*----------------------------------*\
| =========                 |                                                 |
| \\      /  F ield         | foam-extend: Open Source CFD                    |
|  \\    /   O peration     | Version:     4.1                                |
|   \\  /    A nd           | Web:         http://www.foam-extend.org         |
|    \\/     M anipulation  |                                                 |
\*---------------------------------------------------------------------------*/
FoamFile
{
    version     2.0;
    format      ascii;
    class       volScalarField;
    location    "0.65";
    object      C;
}
// * * * * * * * * * * * * * * * * * * * * * * * * * * * * * * * * * * * * * //

dimensions      [0 0 0 0 0 0 0];

internalField   nonuniform List<scalar> 
2268
(
1.01003
1.00984
1.00829
1.00738
1.00684
1.00735
1.00745
1.00498
1.00041
0.996001
0.993791
0.993445
0.994408
0.996001
0.997584
0.998865
0.999738
1.00018
1.0004
1.0004
1.00025
0.999965
0.999756
1.00608
1.00628
1.00468
1.00425
1.00415
1.00511
1.00501
1.00198
0.997293
0.993348
0.991781
0.991926
0.993272
0.995153
0.996938
0.998362
0.99937
0.999913
1.0002
1.00022
1.00013
1.00004
0.999993
0.992176
0.993612
0.992536
0.994072
0.995539
0.998022
0.997943
0.994404
0.990133
0.987591
0.987543
0.988704
0.990847
0.993281
0.995459
0.997174
0.998497
0.999253
0.999724
0.999878
1.00006
1.00062
1.00108
0.957016
0.961509
0.962947
0.96993
0.975483
0.981983
0.98337
0.980883
0.978752
0.979052
0.981329
0.983912
0.987069
0.990172
0.992871
0.995058
0.996924
0.998051
0.998915
0.999474
1.00038
1.00229
1.00382
0.878122
0.889746
0.89854
0.918307
0.933626
0.95009
0.957143
0.959873
0.963026
0.967836
0.972987
0.977213
0.981386
0.985161
0.988493
0.991414
0.994195
0.995949
0.997561
0.999054
1.0013
1.00531
1.00839
0.719004
0.745331
0.770493
0.816309
0.853175
0.892514
0.914607
0.929636
0.942667
0.95318
0.961568
0.967425
0.972654
0.977087
0.981151
0.985216
0.989535
0.992287
0.995088
0.998253
1.00233
1.00847
1.01249
0.441417
0.490232
0.54248
0.632153
0.710601
0.797096
0.850968
0.88774
0.915464
0.9328
0.944774
0.952326
0.958984
0.964191
0.969066
0.974886
0.981619
0.986065
0.990369
0.995916
1.00163
1.00856
1.00862
0.0565537
0.122083
0.199606
0.340575
0.480631
0.649012
0.75802
0.827064
0.875178
0.902157
0.918754
0.92839
0.937321
0.94373
0.949523
0.957905
0.96812
0.975133
0.981157
0.98962
0.995765
0.999819
0.981195
-0.312956
-0.216279
-0.17214
-0.147515
-0.13927
-0.164625
-0.185663
-0.209739
-0.150528
-0.0892243
-0.0155098
0.0118735
0.0265184
0.044167
0.0452946
0.0718444
0.0317627
0.00792732
0.00504559
-0.316107
-0.222374
-0.168802
-0.0751087
0.0342467
0.0825485
0.0763681
-0.030296
-0.0902777
-0.176755
-0.14928
-0.123803
-0.145714
-0.0794755
-0.0400203
0.00741035
0.0122675
0.000735007
0.00810513
-0.321829
-0.255641
-0.259057
-0.155788
0.112452
0.312766
0.409138
0.337684
0.241709
-0.111226
-0.289138
-0.302853
-0.370671
-0.306449
-0.209719
-0.133809
-0.0968045
-0.030033
0.0135024
-0.336513
-0.317338
-0.424757
-0.360868
-0.0243141
0.343845
0.572568
0.61415
0.575628
0.185586
-0.210274
-0.369311
-0.509439
-0.502466
-0.40195
-0.317896
-0.309792
-0.107528
0.0151365
-0.354512
-0.392354
-0.59419
-0.578092
-0.288024
0.232281
0.584496
0.700544
0.717094
0.528997
0.11384
-0.278621
-0.490808
-0.585996
-0.553366
-0.482269
-0.509013
-0.240479
0.0123405
-0.372434
-0.460551
-0.71255
-0.721405
-0.454287
0.164963
0.530287
0.680076
0.720606
0.686313
0.446861
-0.0748988
-0.326298
-0.554652
-0.633634
-0.60529
-0.625737
-0.364776
0.0107931
-0.388282
-0.502748
-0.771403
-0.800931
-0.500981
0.161676
0.48199
0.615798
0.644299
0.66837
0.613708
0.262646
-0.00551681
-0.41141
-0.639966
-0.683263
-0.687694
-0.446978
0.0123209
-0.407351
-0.515864
-0.783111
-0.824571
-0.482426
0.188102
0.440662
0.534634
0.555121
0.564767
0.586795
0.448593
0.249761
-0.206327
-0.585112
-0.720306
-0.743924
-0.516802
0.0148146
-0.540506
-0.487482
-0.41316
-0.231522
-0.000799494
0.331895
0.555514
0.68738
0.779499
0.828842
0.855922
0.869831
0.88396
0.894073
0.901778
0.915507
0.933754
0.945619
0.954182
0.96668
0.972747
0.965222
0.867136
-0.864625
-0.83776
-0.788499
-0.648914
-0.403774
-0.0892091
0.157374
0.334058
0.5142
0.619426
0.675121
0.698873
0.716218
0.743875
0.760149
0.780741
0.811318
0.830496
0.840233
0.868918
0.889784
0.876057
0.63474
-0.942393
-0.915492
-0.858121
-0.769365
-0.661418
-0.553178
-0.41
-0.278043
-0.0810386
0.0689648
0.162906
0.243901
0.228945
0.313072
0.347377
0.361228
0.394418
0.405388
0.514022
0.538671
0.659688
0.744292
0.556795
-0.956665
-0.929162
-0.894257
-0.864996
-0.826925
-0.765367
-0.698602
-0.636499
-0.601826
-0.538769
-0.492229
-0.441014
-0.453955
-0.434078
-0.416844
-0.424523
-0.403307
-0.38328
-0.221386
-0.155396
0.127281
0.398306
0.358012
-0.965299
-0.948881
-0.935062
-0.919553
-0.887868
-0.847678
-0.829637
-0.818248
-0.833266
-0.831242
-0.831136
-0.825069
-0.825275
-0.835245
-0.829704
-0.812316
-0.795809
-0.776455
-0.734867
-0.692397
-0.516654
-0.0677355
0.199744
-0.973755
-0.966089
-0.959617
-0.947422
-0.929194
-0.914791
-0.915139
-0.922854
-0.932222
-0.931837
-0.92682
-0.918866
-0.910767
-0.90029
-0.878269
-0.851595
-0.826653
-0.796269
-0.769882
-0.749798
-0.663851
-0.497213
-0.219296
-0.979691
-0.976601
-0.971679
-0.963834
-0.956343
-0.954206
-0.95583
-0.958586
-0.94331
-0.915097
-0.885503
-0.856862
-0.830241
-0.804359
-0.779168
-0.755175
-0.732283
-0.71101
-0.692116
-0.676244
-0.648199
-0.586007
-0.49027
-0.984058
-0.984151
-0.980623
-0.978245
-0.975571
-0.974706
-0.974321
-0.971475
-0.947815
-0.920668
-0.89122
-0.85937
-0.829076
-0.801341
-0.777983
-0.758612
-0.73533
-0.705135
-0.671973
-0.643131
-0.625355
-0.599888
-0.572469
-0.987798
-0.989775
-0.988506
-0.988718
-0.985027
-0.977873
-0.970344
-0.956599
-0.924881
-0.898007
-0.877408
-0.862956
-0.854871
-0.848728
-0.843858
-0.839375
-0.81529
-0.797159
-0.764332
-0.72686
-0.700046
-0.646826
-0.598417
-0.990708
-0.992475
-0.988969
-0.983742
-0.975708
-0.967201
-0.949824
-0.932006
-0.919929
-0.915008
-0.915749
-0.928701
-0.94286
-0.947994
-0.948849
-0.944692
-0.9317
-0.927212
-0.914773
-0.894533
-0.874625
-0.835138
-0.809462
-0.992678
-0.993921
-0.988933
-0.980906
-0.969804
-0.961901
-0.953577
-0.947473
-0.943812
-0.945179
-0.951368
-0.966359
-0.982789
-0.988027
-0.988314
-0.984813
-0.977602
-0.973344
-0.96686
-0.957681
-0.945418
-0.925967
-0.914001
-0.994027
-0.994116
-0.988109
-0.979889
-0.972527
-0.96875
-0.968644
-0.970233
-0.968129
-0.969574
-0.976536
-0.98931
-0.996221
-0.998002
-0.997901
-0.996142
-0.992463
-0.988837
-0.984718
-0.97983
-0.97273
-0.962506
-0.954334
-0.995384
-0.994898
-0.989244
-0.982626
-0.979178
-0.978708
-0.978846
-0.978386
-0.978652
-0.984933
-0.992216
-0.997388
-0.999404
-0.999755
-0.999336
-0.997892
-0.995856
-0.993873
-0.991951
-0.98993
-0.987102
-0.982629
-0.978854
-0.997006
-0.996468
-0.992209
-0.988094
-0.987511
-0.988916
-0.986061
-0.983224
-0.98499
-0.993447
-0.997904
-0.999597
-0.999992
-0.999992
-0.999439
-0.997859
-0.996667
-0.99605
-0.995367
-0.993984
-0.991573
-0.988842
-0.987574
-0.998135
-0.997984
-0.995903
-0.99342
-0.993874
-0.994523
-0.989766
-0.986047
-0.989728
-0.99717
-0.99941
-0.999944
-1.00005
-1.00008
-1.00008
-0.999912
-0.999593
-0.999319
-0.998919
-0.998424
-0.997972
-0.996757
-0.995175
-0.998384
-0.998533
-0.997694
-0.996593
-0.997052
-0.996237
-0.990733
-0.987611
-0.993533
-0.998699
-0.999759
-0.999953
-0.999994
-1.00002
-1.00004
-1.00009
-1.0001
-1.00006
-0.999931
-0.999754
-0.9997
-0.99947
-0.998903
-0.998183
-0.998622
-0.998559
-0.998379
-0.998278
-0.996286
-0.990922
-0.989392
-0.996404
-0.999279
-0.999768
-0.999901
-0.99997
-1
-1.00001
-1.00002
-1.00004
-1.00005
-1.00004
-1.00001
-1.00001
-0.999992
-0.999932
-0.997927
-0.998658
-0.999107
-0.998967
-0.998249
-0.99538
-0.991034
-0.991744
-0.997481
-0.999416
-0.999759
-0.999888
-0.999964
-0.999997
-1.00001
-1.00001
-1.00001
-1.00001
-1.00001
-1.00002
-1.00002
-1.00002
-1.00003
-0.99787
-0.998798
-0.999232
-0.998901
-0.997495
-0.993847
-0.991741
-0.994963
-0.998647
-0.999579
-0.999793
-0.999895
-0.999968
-0.999995
-1
-1
-1
-1
-1
-1
-1
-1
-1.00001
-0.997833
-0.998849
-0.999041
-0.998316
-0.995668
-0.993078
-0.99336
-0.99712
-0.999048
-0.999612
-0.999859
-0.999947
-0.999987
-0.999999
-1
-1
-1
-1
-1
-1
-1
-1
-1
-0.997648
-0.998735
-0.998314
-0.996825
-0.994294
-0.99318
-0.994886
-0.997706
-0.999064
-0.999694
-0.999923
-0.999979
-0.999996
-1
-1
-1
-1
-1
-1
-1
-1
-1
-1
-0.997227
-0.998228
-0.99706
-0.995154
-0.993693
-0.993959
-0.996065
-0.998177
-0.999317
-0.999798
-0.999945
-0.99999
-0.999998
-1
-1
-1
-1
-1
-1
-1
-1
-1
-1
-0.996645
-0.997227
-0.995624
-0.994069
-0.993455
-0.994688
-0.996497
-0.99844
-0.999502
-0.999878
-0.999972
-0.999994
-0.999999
-1
-1
-1
-1
-1
-1
-1
-1
-1
-1
-0.995928
-0.995657
-0.99431
-0.993361
-0.9933
-0.994656
-0.996817
-0.998758
-0.99951
-0.999815
-0.999943
-0.999986
-0.999998
-1
-1
-1
-1
-1
-1
-1
-1
-1
-1
-0.995357
-0.994647
-0.993598
-0.992998
-0.993099
-0.994167
-0.996308
-0.998014
-0.999078
-0.999662
-0.999902
-0.999977
-0.999995
-0.999999
-1
-1
-1
-1
-1
-1
-1
-1
-1
-0.995008
-0.994396
-0.993551
-0.99304
-0.993112
-0.993761
-0.995451
-0.997547
-0.999024
-0.999681
-0.999919
-0.999984
-0.999998
-1
-1
-1
-1
-1
-1
-1
-1
-1
-1
-0.994779
-0.994438
-0.993779
-0.993527
-0.993572
-0.99431
-0.996262
-0.998437
-0.999554
-0.999891
-0.999979
-0.999997
-1
-1
-1
-1
-1
-1
-1
-1
-1
-1
-1
-0.994704
-0.994506
-0.994331
-0.99481
-0.995207
-0.99632
-0.998254
-0.999492
-0.999892
-0.999982
-0.999998
-1
-1
-1
-1
-1
-1
-1
-1
-1
-1
-1
-1
-0.994781
-0.994739
-0.995097
-0.996297
-0.997421
-0.998522
-0.999475
-0.999874
-0.999979
-0.999998
-1
-1
-1
-1
-1
-1
-1
-1
-1
-1
-1
-1
-1
-0.995293
-0.995483
-0.99628
-0.997741
-0.998873
-0.999537
-0.999873
-0.999976
-0.999997
-1
-1
-1
-1
-1
-1
-1
-1
-1
-1
-1
-1
-1
-1
-0.996901
-0.997196
-0.998037
-0.999042
-0.999629
-0.999889
-0.999977
-0.999997
-1
-1
-1
-1
-1
-1
-1
-1
-1
-1
-1
-1
-1
-1
-1
-0.998896
-0.999018
-0.999384
-0.999751
-0.999923
-0.999983
-0.999998
-1
-1
-1
-1
-1
-1
-1
-1
-1
-1
-1
-1
-1
-1
-1
-1
-0.999754
-0.999777
-0.999877
-0.99996
-0.999991
-0.999999
-1
-1
-1
-1
-1
-1
-1
-1
-1
-1
-1
-1
-1
-1
-1
-1
-1
-0.999963
-0.999967
-0.999984
-0.999996
-1
-1
-1
-1
-1
-1
-1
-1
-1
-1
-1
-1
-1
-1
-1
-1
-1
-1
-1
-0.999996
-0.999997
-0.999999
-1
-1
-1
-1
-1
-1
-1
-1
-1
-1
-1
-1
-1
-1
-1
-1
-1
-1
-1
-1
-1
-1
-1
-1
-1
-1
-1
-1
-1
-1
-1
-1
-1
-1
-1
-1
-1
-1
-1
-1
-1
-1
-1
-1
-1
-1
-1
-1
-1
-1
-1
-1
-1
-1
-1
-1
-1
-1
-1
-1
-1
-1
-1
-1
-1
-1
-1
-1
-1
-1
-1
-1
-1
-1
-1
-1
-1
-1
-1
-1
-1
-1
-1
-1
-1
-1
-1
-1
-1
-1
-1
-1
-1
-1
-1
-1
-1
-1
-1
-1
-1
-1
-1
-1
-1
-1
-1
-1
-1
-1
-1
-1
-1
-1
-1
-1
-1
-1
-1
-1
-1
-1
-1
-1
-1
-1
-1
-1
-1
-1
-1
-1
-1
-1
-1
-1
-1
-1
-1
-1
-1
-1
-1
-1
-1
-1
-1
-1
-1
-1
-1
-1
-1
-1
-1
-1
-1
-1
-1
-1
-1
-1
-1
-1
-1
-1
-1
-1
-1
-1
-1
-1
-1
-1
-1
-1
-1
-1
-1
-1
-1
0.680563
0.575067
0.387311
0.0545605
0.0829634
-0.112285
-0.159566
-0.185865
-0.163997
-0.416575
-0.449104
-0.40599
-0.257832
-0.505998
-0.598069
-0.609543
-0.0113276
-0.290045
-0.470179
-0.526291
-0.101457
-0.12548
-0.18675
-0.222696
-0.42467
-0.413496
-0.422817
-0.429791
-0.540951
-0.519574
-0.497556
-0.474521
-0.575462
-0.553993
-0.534199
-0.517732
-0.801691
-0.788224
-0.770182
-0.749918
-0.906858
-0.897888
-0.885074
-0.867762
-0.948232
-0.944018
-0.939057
-0.930926
-0.976998
-0.976867
-0.97765
-0.97798
-0.98735
-0.987537
-0.987738
-0.987739
-0.994337
-0.994207
-0.994522
-0.995069
-0.998385
-0.998165
-0.998109
-0.998219
-0.999827
-0.999743
-0.999662
-0.999601
-1.00003
-1.00003
-1.00001
-0.999998
-1.00001
-1.00001
-1.00002
-1.00002
-1
-1
-1
-1
-1
-0.999999
-0.999999
-1
-1
-1
-1
-1
-1
-1
-1
-1
-1
-1
-1
-1
-1
-1
-1
-1
-1
-1
-1
-1
-1
-1
-1
-1
-1
-1
-1
-1
-1
-1
-1
-1
-1
-1
-1
-1
-1
-1
-1
-1
-1
-1
-1
-1
-1
-1
-1
-1
-1
-1
-1
-1
-1
-1
-1
-1
-1
-1
-1
-1
-1
-1
-1
-1
-1
-1
-1
-1
-1
-1
-1
-1.00001
-1
-1
-1.00001
-1.00001
-1
-1.00001
-1.00001
-1.00001
-1
-1.00001
-1.00001
-1.00001
-0.418026
-0.543016
-0.775551
-0.786038
-0.373971
0.234993
0.354416
0.392638
0.419267
0.360866
0.281705
0.310481
0.270972
0.0828318
-0.348426
-0.699027
-0.790693
-0.564693
0.019437
-0.462753
-0.645947
-0.782659
-0.618797
-0.0338024
0.389772
0.18332
0.149922
0.131833
0.0616269
-0.397187
-0.300045
-0.0222029
-0.0993899
-0.398035
-0.726044
-0.821281
-0.559029
0.0230128
-0.534842
-0.739484
-0.619591
-0.188576
0.0769894
0.126477
-0.0960357
-0.153976
-0.289518
-0.432873
-0.71537
-0.682368
-0.315595
-0.311554
-0.491044
-0.798476
-0.782825
-0.448153
0.0900661
-0.619843
-0.611843
-0.270252
0.122495
0.060178
-0.138404
-0.259445
-0.414653
-0.648272
-0.752771
-0.824541
-0.767896
-0.411142
-0.454259
-0.606739
-0.813629
-0.542349
-0.1309
0.177464
-0.54087
-0.195386
0.00955051
-0.1918
-0.30681
-0.347323
-0.369993
-0.6615
-0.825088
-0.862627
-0.854125
-0.686942
-0.492903
-0.605452
-0.732983
-0.80221
-0.356769
-0.0252218
0.187789
-0.256346
-0.310159
-0.363737
-0.39701
-0.3984
-0.414587
-0.55946
-0.82287
-0.852481
-0.833096
-0.77248
-0.641378
-0.582102
-0.700512
-0.76635
-0.668237
-0.201942
0.0358301
0.173288
-0.43837
-0.42815
-0.353295
-0.354746
-0.485192
-0.629418
-0.759134
-0.854636
-0.809943
-0.737088
-0.695387
-0.676827
-0.680237
-0.75251
-0.765094
-0.423941
-0.102224
0.171204
0.192669
-0.43731
-0.393313
-0.372937
-0.47621
-0.711926
-0.848577
-0.873593
-0.857297
-0.804169
-0.778271
-0.764589
-0.760474
-0.767189
-0.748962
-0.708175
-0.33757
-0.0966839
0.1912
0.191771
-0.495204
-0.466457
-0.46414
-0.526527
-0.702692
-0.864099
-0.884856
-0.828819
-0.759679
-0.718602
-0.703909
-0.708201
-0.681683
-0.621529
-0.501585
-0.380549
-0.219247
0.13168
0.189753
-0.709931
-0.609065
-0.530473
-0.518341
-0.619412
-0.779346
-0.839465
-0.826778
-0.72015
-0.56754
-0.448811
-0.392158
-0.375879
-0.37829
-0.400568
-0.539668
-0.307456
0.0683924
0.185341
-0.825317
-0.711299
-0.564946
-0.469538
-0.443337
-0.483173
-0.612539
-0.675346
-0.64108
-0.534124
-0.427404
-0.399114
-0.466879
-0.562198
-0.617186
-0.629908
-0.368317
-0.081096
0.134224
-0.907066
-0.83431
-0.721053
-0.596759
-0.528801
-0.48857
-0.478976
-0.487822
-0.511013
-0.559792
-0.635182
-0.706885
-0.735749
-0.751166
-0.754103
-0.688318
-0.456265
-0.188982
0.0545686
-0.975591
-0.96155
-0.92318
-0.855216
-0.801028
-0.764017
-0.747295
-0.746446
-0.774494
-0.826447
-0.853444
-0.861929
-0.863263
-0.847189
-0.822138
-0.773845
-0.566742
-0.33169
-0.128421
-0.986199
-0.979495
-0.963068
-0.94774
-0.933332
-0.922562
-0.917927
-0.907935
-0.905355
-0.926829
-0.937142
-0.924334
-0.924069
-0.908145
-0.880522
-0.854072
-0.674165
-0.51992
-0.421482
-0.995627
-0.994287
-0.988223
-0.982225
-0.974203
-0.968073
-0.965118
-0.961006
-0.959755
-0.966515
-0.970073
-0.961852
-0.956634
-0.949569
-0.920751
-0.888824
-0.759423
-0.672725
-0.608983
-0.998438
-0.998078
-0.995744
-0.99211
-0.986589
-0.983472
-0.982299
-0.982223
-0.984539
-0.986551
-0.98686
-0.982813
-0.978993
-0.974323
-0.951215
-0.920709
-0.826362
-0.754132
-0.695942
-0.999498
-0.999155
-0.997652
-0.995327
-0.992256
-0.991914
-0.991585
-0.992029
-0.994011
-0.995092
-0.994375
-0.992314
-0.990251
-0.984966
-0.971617
-0.947668
-0.890372
-0.813464
-0.743624
-0.999958
-0.999856
-0.999423
-0.998619
-0.996447
-0.997323
-0.996806
-0.996542
-0.997443
-0.998191
-0.997801
-0.997266
-0.996563
-0.994331
-0.988811
-0.975831
-0.936579
-0.855086
-0.776062
-1.00002
-1.00001
-0.999903
-0.999666
-0.99873
-0.999076
-0.998848
-0.9986
-0.998998
-0.999335
-0.999209
-0.999034
-0.998874
-0.998305
-0.996581
-0.990002
-0.960565
-0.884689
-0.801791
-1.00001
-1.00002
-1.00001
-0.999964
-0.999733
-0.999734
-0.999691
-0.999576
-0.99965
-0.999756
-0.999755
-0.999701
-0.999618
-0.999574
-0.99914
-0.995257
-0.969038
-0.896956
-0.824198
-1
-1.00001
-1.00001
-1.00001
-0.999987
-0.999967
-0.99995
-0.999912
-0.999915
-0.999933
-0.999931
-0.999916
-0.999868
-0.99992
-0.99978
-0.996707
-0.972922
-0.90609
-0.844976
-1
-1
-1
-1.00001
-1.00001
-1.00001
-1
-0.999994
-0.999989
-0.999993
-0.999989
-0.999982
-0.999973
-0.999998
-0.999884
-0.997061
-0.976873
-0.921742
-0.862512
-1
-1
-1
-1
-1
-1
-1
-1
-1
-1
-1
-0.999998
-0.999999
-1.00001
-0.999874
-0.997404
-0.982933
-0.940967
-0.875381
-1
-1
-1
-1
-1
-1
-1
-1
-1
-1
-1
-1
-1
-1.00001
-0.999871
-0.99827
-0.989016
-0.953128
-0.883935
-1
-1
-1
-1
-1
-1
-1
-1
-1
-1
-1
-1
-1
-1
-0.99991
-0.998846
-0.991582
-0.957474
-0.88962
-1
-1
-1
-1
-1
-1
-1
-1
-1
-1
-1
-1
-1
-0.999994
-0.999898
-0.998937
-0.991786
-0.95795
-0.894099
-1
-1
-1
-1
-1
-1
-1
-1
-1
-1
-1
-1
-0.999999
-0.999979
-0.999879
-0.998988
-0.991511
-0.958019
-0.898981
-1
-1
-1
-1
-1
-1
-1
-1
-1
-1
-1
-1
-0.999999
-0.999973
-0.999844
-0.998963
-0.991923
-0.960359
-0.907813
-1
-1
-1
-1
-1
-1
-1
-1
-1
-1
-1
-1
-0.999996
-0.999973
-0.999877
-0.99916
-0.992995
-0.96503
-0.920467
-1
-1
-1
-1
-1
-1
-1
-1
-1
-1
-1
-0.999999
-0.99999
-0.999961
-0.999872
-0.999282
-0.993927
-0.969023
-0.934721
-1
-1
-1
-1
-1
-1
-1
-1
-1
-1
-1
-1
-0.999998
-0.999985
-0.999953
-0.999509
-0.994554
-0.973262
-0.948604
-1
-1
-1
-1
-1
-1
-1
-1
-1
-1
-1
-1
-1
-0.999999
-0.999965
-0.999352
-0.994362
-0.978705
-0.960013
-1
-1
-1
-1
-1
-1
-1
-1
-1
-1
-1
-1
-1
-0.999991
-0.99992
-0.999213
-0.995075
-0.984593
-0.968681
-1
-1
-1
-1
-1
-1
-1
-1
-1
-1
-1
-1.00001
-1
-0.999994
-0.999938
-0.999504
-0.997054
-0.989415
-0.975049
-1
-1
-1
-1
-1
-1
-1
-0.999999
-0.999998
-0.999999
-1
-1
-1
-0.999999
-0.999976
-0.99983
-0.998575
-0.992612
-0.979624
-1
-1
-1.00001
-1
-1
-0.999995
-0.999987
-0.999984
-0.999977
-0.999981
-0.999989
-0.999997
-1
-1
-0.99999
-0.999868
-0.998839
-0.994178
-0.982874
-1
-1.00001
-1
-1
-0.999991
-0.999981
-0.999966
-0.99995
-0.999941
-0.99995
-0.999966
-0.999984
-0.999997
-1
-0.999996
-0.999948
-0.999592
-0.996823
-0.984744
-1.00001
-1.00001
-1
-0.999989
-0.999968
-0.999945
-0.99992
-0.999887
-0.99989
-0.999903
-0.99993
-0.99996
-0.999985
-0.999997
-1
-0.999998
-0.999771
-0.99686
-0.984315
-1.00001
-1.00001
-0.999995
-0.999969
-0.999936
-0.999892
-0.999857
-0.999825
-0.999832
-0.999846
-0.999873
-0.999906
-0.999949
-0.999982
-0.999995
-0.999999
-0.999792
-0.997358
-0.986864
-1.00001
-1
-0.999987
-0.999951
-0.999911
-0.999862
-0.99981
-0.999783
-0.99979
-0.999807
-0.999838
-0.999885
-0.999937
-0.999971
-0.999984
-1
-0.999905
-0.998206
-0.989505
-1.00001
-1
-0.999978
-0.999941
-0.999897
-0.99985
-0.999795
-0.999764
-0.999774
-0.999796
-0.999826
-0.999863
-0.999909
-0.99995
-0.999972
-0.999997
-0.99999
-0.999355
-0.994196
-1.00001
-1
-0.999972
-0.999935
-0.999889
-0.999842
-0.999787
-0.999759
-0.999773
-0.999798
-0.999827
-0.999857
-0.999895
-0.999932
-0.99995
-0.999969
-1.00002
-0.999932
-0.998068
)
;

boundaryField
{
    leftWall
    {
        type            zeroGradient;
    }
    rightWall
    {
        type            zeroGradient;
    }
    lowerWall
    {
        type            zeroGradient;
    }
    atmosphere
    {
        type            zeroGradient;
    }
    defaultFaces
    {
        type            empty;
    }
}


// ************************************************************************* //
