/*--------------------------------*- C++ -*----------------------------------*\
| =========                 |                                                 |
| \\      /  F ield         | foam-extend: Open Source CFD                    |
|  \\    /   O peration     | Version:     4.1                                |
|   \\  /    A nd           | Web:         http://www.foam-extend.org         |
|    \\/     M anipulation  |                                                 |
\*---------------------------------------------------------------------------*/
FoamFile
{
    version     2.0;
    format      ascii;
    class       volScalarField;
    location    "0.65";
    object      C_0;
}
// * * * * * * * * * * * * * * * * * * * * * * * * * * * * * * * * * * * * * //

dimensions      [0 0 0 0 0 0 0];

internalField   nonuniform List<scalar> 
2268
(
1.00996
1.00977
1.00823
1.00735
1.0068
1.00733
1.00748
1.00508
1.00054
0.996097
0.993848
0.993481
0.994427
0.996012
0.997592
0.998872
0.999745
1.00019
1.0004
1.00041
1.00027
0.999978
0.999766
1.00606
1.00626
1.00467
1.00425
1.00414
1.00513
1.00509
1.00211
0.997424
0.993427
0.99182
0.991948
0.993283
0.99516
0.996945
0.99837
0.999378
0.999919
1.0002
1.00023
1.00014
1.00003
0.999978
0.992269
0.993685
0.992584
0.994114
0.995574
0.998117
0.998115
0.994572
0.990243
0.987624
0.987542
0.988699
0.990841
0.993281
0.995465
0.997185
0.998506
0.99926
0.999729
0.999881
1.00005
1.00056
1.00101
0.95721
0.961651
0.963004
0.969971
0.97553
0.982144
0.983604
0.98102
0.978783
0.978998
0.981267
0.983869
0.987041
0.990166
0.99288
0.995073
0.996934
0.998057
0.998917
0.999458
1.00032
1.00217
1.00366
0.878224
0.889745
0.898367
0.918143
0.933481
0.950145
0.957262
0.959804
0.962867
0.967643
0.972845
0.977123
0.981333
0.985153
0.988511
0.991436
0.994204
0.995952
0.997553
0.999007
1.00119
1.00514
1.00822
0.718485
0.744609
0.769469
0.815344
0.8522
0.891914
0.914165
0.929057
0.942166
0.95279
0.961318
0.967272
0.972571
0.977086
0.98119
0.985248
0.989545
0.992292
0.995081
0.998187
1.00222
1.00839
1.01252
0.439515
0.487938
0.539524
0.629136
0.707409
0.794645
0.849134
0.886195
0.914407
0.932117
0.944364
0.952081
0.958868
0.96421
0.969153
0.974945
0.981648
0.9861
0.990403
0.995886
1.00164
1.0088
1.00926
0.0533661
0.118136
0.194166
0.334213
0.473368
0.642842
0.753605
0.823911
0.87323
0.901003
0.918091
0.928015
0.937179
0.9438
0.949706
0.958045
0.968232
0.975276
0.981325
0.989745
0.996123
1.00073
0.982919
-0.320494
-0.226133
-0.182673
-0.158075
-0.148841
-0.172012
-0.191536
-0.213774
-0.153496
-0.0912141
-0.0163728
0.0115625
0.0271892
0.0446886
0.0457324
0.0728444
0.033157
0.00819701
0.0048578
-0.323618
-0.232254
-0.179567
-0.088129
0.0221396
0.0731617
0.069043
-0.0373679
-0.0960883
-0.181614
-0.151511
-0.124958
-0.145994
-0.0782346
-0.0396776
0.0078586
0.0130071
-7.21691e-06
0.00678148
-0.329234
-0.264897
-0.268124
-0.169556
0.0966358
0.303247
0.403656
0.33098
0.235156
-0.118836
-0.293461
-0.303135
-0.373905
-0.304223
-0.209432
-0.134533
-0.0974383
-0.0312691
0.0124065
-0.343492
-0.325122
-0.430757
-0.372559
-0.0414011
0.334459
0.570747
0.611484
0.572291
0.17904
-0.215241
-0.371835
-0.512256
-0.501674
-0.401852
-0.319379
-0.310788
-0.107048
0.0147457
-0.360896
-0.398056
-0.597624
-0.586343
-0.301635
0.223367
0.586359
0.701443
0.717402
0.526973
0.11077
-0.280851
-0.494918
-0.587941
-0.553748
-0.48387
-0.509523
-0.238891
0.0126303
-0.378125
-0.463478
-0.714582
-0.726908
-0.463768
0.159029
0.535599
0.684844
0.723717
0.687917
0.446551
-0.0754983
-0.332745
-0.560813
-0.635691
-0.606845
-0.626625
-0.365522
0.0111268
-0.393244
-0.503805
-0.772357
-0.804109
-0.507858
0.161046
0.490471
0.624179
0.650599
0.670662
0.614358
0.263584
-0.0137313
-0.425366
-0.645582
-0.685066
-0.689271
-0.450063
0.0119945
-0.411355
-0.517185
-0.783856
-0.826447
-0.485727
0.192166
0.451925
0.546208
0.563754
0.56748
0.585487
0.44688
0.240184
-0.22742
-0.595596
-0.723307
-0.745637
-0.519473
0.0143057
-0.543086
-0.491374
-0.419694
-0.242426
-0.0160478
0.316965
0.544976
0.680355
0.775369
0.826531
0.854657
0.869202
0.88385
0.894325
0.902258
0.915957
0.934213
0.946185
0.954835
0.967378
0.973899
0.967608
0.871163
-0.866371
-0.840628
-0.793489
-0.658795
-0.420771
-0.1094
0.139676
0.320092
0.505371
0.6145
0.672547
0.697917
0.716712
0.745025
0.761824
0.782747
0.813647
0.833034
0.842902
0.871196
0.89268
0.881024
0.646721
-0.94378
-0.918155
-0.863205
-0.777454
-0.67193
-0.564729
-0.422028
-0.289501
-0.0908834
0.062364
0.159564
0.242761
0.231234
0.317161
0.353164
0.368567
0.402778
0.413665
0.519758
0.543299
0.664309
0.752798
0.5831
-0.958184
-0.931906
-0.898041
-0.869236
-0.831448
-0.7705
-0.703606
-0.641106
-0.605209
-0.540696
-0.492154
-0.439263
-0.450611
-0.428736
-0.410291
-0.417158
-0.395666
-0.37765
-0.219073
-0.155927
0.122946
0.409511
0.399573
-0.966814
-0.951126
-0.937383
-0.921841
-0.890451
-0.84981
-0.830824
-0.819437
-0.833496
-0.830574
-0.830106
-0.823694
-0.823985
-0.835005
-0.830238
-0.812746
-0.796431
-0.777896
-0.737827
-0.697367
-0.528159
-0.0773725
0.205949
-0.975026
-0.967594
-0.960979
-0.948931
-0.930837
-0.915978
-0.915639
-0.922872
-0.932782
-0.932695
-0.928235
-0.920609
-0.91302
-0.903337
-0.882699
-0.856964
-0.832287
-0.801545
-0.77497
-0.755082
-0.673825
-0.51949
-0.241292
-0.980723
-0.977647
-0.972713
-0.965054
-0.957387
-0.955026
-0.956639
-0.960525
-0.948621
-0.922257
-0.893089
-0.863878
-0.836739
-0.810326
-0.784512
-0.759955
-0.736658
-0.715237
-0.696666
-0.681755
-0.656646
-0.59886
-0.506297
-0.984921
-0.984919
-0.981447
-0.979205
-0.976497
-0.975479
-0.975168
-0.974109
-0.952586
-0.926728
-0.898279
-0.866518
-0.835649
-0.806868
-0.782054
-0.761283
-0.737686
-0.707683
-0.674733
-0.646124
-0.628633
-0.604295
-0.578614
-0.988518
-0.990309
-0.988956
-0.989167
-0.985638
-0.978828
-0.971838
-0.959787
-0.92999
-0.902596
-0.880912
-0.864636
-0.854863
-0.847426
-0.841178
-0.835447
-0.811913
-0.794972
-0.764381
-0.727599
-0.700853
-0.648194
-0.60108
-0.991294
-0.992858
-0.989405
-0.98426
-0.97656
-0.9683
-0.952117
-0.934466
-0.921493
-0.915478
-0.914924
-0.925532
-0.940055
-0.945808
-0.946836
-0.942453
-0.929489
-0.925406
-0.914022
-0.894868
-0.875763
-0.836226
-0.811109
-0.993143
-0.994302
-0.989641
-0.982051
-0.971316
-0.963583
-0.955665
-0.949431
-0.945111
-0.945502
-0.950544
-0.963837
-0.981043
-0.987142
-0.987687
-0.984355
-0.977163
-0.973004
-0.966864
-0.958228
-0.946631
-0.927088
-0.915311
-0.994487
-0.99465
-0.989174
-0.981451
-0.974125
-0.970299
-0.970095
-0.971077
-0.968454
-0.969166
-0.975058
-0.98797
-0.995653
-0.997801
-0.997823
-0.996194
-0.992604
-0.988983
-0.98493
-0.980262
-0.973555
-0.963461
-0.955396
-0.995935
-0.99557
-0.990465
-0.984278
-0.980749
-0.979975
-0.979603
-0.978601
-0.978414
-0.983998
-0.991382
-0.996938
-0.999283
-0.999731
-0.999404
-0.998042
-0.995992
-0.99396
-0.992033
-0.990079
-0.987399
-0.98301
-0.979188
-0.997537
-0.997176
-0.993509
-0.989645
-0.9889
-0.989814
-0.986667
-0.98331
-0.984578
-0.992914
-0.997628
-0.999507
-0.999979
-1.00001
-0.99953
-0.997961
-0.996666
-0.996034
-0.99542
-0.99417
-0.9919
-0.989039
-0.987592
-0.99836
-0.99834
-0.99664
-0.994451
-0.994698
-0.994938
-0.99001
-0.986043
-0.989313
-0.996938
-0.999339
-0.999932
-1.00005
-1.00008
-1.00008
-0.999939
-0.999613
-0.999323
-0.998922
-0.998436
-0.998031
-0.996862
-0.99523
-0.998386
-0.998646
-0.998009
-0.997216
-0.997448
-0.996295
-0.990713
-0.98759
-0.993343
-0.998643
-0.999747
-0.999952
-0.999994
-1.00002
-1.00004
-1.00009
-1.0001
-1.00006
-0.999935
-0.999752
-0.9997
-0.999487
-0.998927
-0.998106
-0.998672
-0.998768
-0.998662
-0.998365
-0.996105
-0.990822
-0.989485
-0.996439
-0.99928
-0.999764
-0.999901
-0.999971
-1
-1.00001
-1.00002
-1.00003
-1.00005
-1.00004
-1.00001
-1
-0.999991
-0.999935
-0.997881
-0.998724
-0.999211
-0.998998
-0.99816
-0.994942
-0.991005
-0.99199
-0.997621
-0.999431
-0.999758
-0.999888
-0.999964
-0.999997
-1.00001
-1.00001
-1.00001
-1.00001
-1.00001
-1.00002
-1.00002
-1.00002
-1.00003
-0.997853
-0.998859
-0.999244
-0.998818
-0.997124
-0.993505
-0.991898
-0.995302
-0.998747
-0.999587
-0.999792
-0.999895
-0.999968
-0.999995
-1
-1
-1
-1
-1
-1
-1
-1
-1.00001
-0.997805
-0.998862
-0.998955
-0.997975
-0.995194
-0.992982
-0.993675
-0.997309
-0.999073
-0.999615
-0.999858
-0.999947
-0.999987
-0.999999
-1
-1
-1
-1
-1
-1
-1
-1
-1
-0.99757
-0.998679
-0.99804
-0.996275
-0.994
-0.993195
-0.995144
-0.997799
-0.999083
-0.999702
-0.999925
-0.999979
-0.999996
-1
-1
-1
-1
-1
-1
-1
-1
-1
-1
-0.99709
-0.998064
-0.996635
-0.994742
-0.99355
-0.994108
-0.996205
-0.998229
-0.999337
-0.999803
-0.999946
-0.99999
-0.999998
-1
-1
-1
-1
-1
-1
-1
-1
-1
-1
-0.996469
-0.99698
-0.995221
-0.993799
-0.993377
-0.994748
-0.996566
-0.998486
-0.999521
-0.999886
-0.999974
-0.999995
-0.999999
-1
-1
-1
-1
-1
-1
-1
-1
-1
-1
-0.995759
-0.99542
-0.994059
-0.9932
-0.993239
-0.994676
-0.996889
-0.998823
-0.999545
-0.999834
-0.999951
-0.999989
-0.999998
-1
-1
-1
-1
-1
-1
-1
-1
-1
-1
-0.995242
-0.994547
-0.993525
-0.992954
-0.993072
-0.994151
-0.996345
-0.998078
-0.99915
-0.999699
-0.999916
-0.999981
-0.999996
-0.999999
-1
-1
-1
-1
-1
-1
-1
-1
-1
-0.994932
-0.994383
-0.993558
-0.993062
-0.993133
-0.993854
-0.995673
-0.997764
-0.999147
-0.999731
-0.999934
-0.999988
-0.999998
-1
-1
-1
-1
-1
-1
-1
-1
-1
-1
-0.994741
-0.994436
-0.99386
-0.993707
-0.993756
-0.994592
-0.996633
-0.998691
-0.99964
-0.999915
-0.999984
-0.999998
-1
-1
-1
-1
-1
-1
-1
-1
-1
-1
-1
-0.994704
-0.99453
-0.994486
-0.995151
-0.995627
-0.996816
-0.998618
-0.999619
-0.999922
-0.999988
-0.999999
-1
-1
-1
-1
-1
-1
-1
-1
-1
-1
-1
-1
-0.994814
-0.99483
-0.99532
-0.996648
-0.9978
-0.998821
-0.999611
-0.999913
-0.999986
-0.999999
-1
-1
-1
-1
-1
-1
-1
-1
-1
-1
-1
-1
-1
-0.995479
-0.995729
-0.996623
-0.998071
-0.999091
-0.999653
-0.999911
-0.999985
-0.999998
-1
-1
-1
-1
-1
-1
-1
-1
-1
-1
-1
-1
-1
-1
-0.997281
-0.997586
-0.998388
-0.999249
-0.999725
-0.999923
-0.999985
-0.999998
-1
-1
-1
-1
-1
-1
-1
-1
-1
-1
-1
-1
-1
-1
-1
-0.999123
-0.999225
-0.999536
-0.999822
-0.999948
-0.999989
-0.999999
-1
-1
-1
-1
-1
-1
-1
-1
-1
-1
-1
-1
-1
-1
-1
-1
-0.999818
-0.999837
-0.999914
-0.999974
-0.999994
-0.999999
-1
-1
-1
-1
-1
-1
-1
-1
-1
-1
-1
-1
-1
-1
-1
-1
-1
-0.999975
-0.999977
-0.99999
-0.999998
-1
-1
-1
-1
-1
-1
-1
-1
-1
-1
-1
-1
-1
-1
-1
-1
-1
-1
-1
-0.999998
-0.999998
-0.999999
-1
-1
-1
-1
-1
-1
-1
-1
-1
-1
-1
-1
-1
-1
-1
-1
-1
-1
-1
-1
-1
-1
-1
-1
-1
-1
-1
-1
-1
-1
-1
-1
-1
-1
-1
-1
-1
-1
-1
-1
-1
-1
-1
-1
-1
-1
-1
-1
-1
-1
-1
-1
-1
-1
-1
-1
-1
-1
-1
-1
-1
-1
-1
-1
-1
-1
-1
-1
-1
-1
-1
-1
-1
-1
-1
-1
-1
-1
-1
-1
-1
-1
-1
-1
-1
-1
-1
-1
-1
-1
-1
-1
-1
-1
-1
-1
-1
-1
-1
-1
-1
-1
-1
-1
-1
-1
-1
-1
-1
-1
-1
-1
-1
-1
-1
-1
-1
-1
-1
-1
-1
-1
-1
-1
-1
-1
-1
-1
-1
-1
-1
-1
-1
-1
-1
-1
-1
-1
-1
-1
-1
-1
-1
-1
-1
-1
-1
-1
-1
-1
-1
-1
-1
-1
-1
-1
-1
-1
-1
-1
-1
-1
-1
-1
-1
-1
-1
-1
-1
-1
-1
-1
-1
-1
-1
-1
-1
-1
-1
-1
-1
0.683254
0.572197
0.376327
0.0375439
0.0935516
-0.115441
-0.172906
-0.197483
-0.137583
-0.4165
-0.462865
-0.425107
-0.211309
-0.483575
-0.593574
-0.615587
0.0432575
-0.241383
-0.445943
-0.512519
-0.0994158
-0.111944
-0.170635
-0.206521
-0.435886
-0.420172
-0.424654
-0.431149
-0.548903
-0.527556
-0.505321
-0.482168
-0.579879
-0.558198
-0.537006
-0.518996
-0.804236
-0.791504
-0.773871
-0.754095
-0.908635
-0.900262
-0.888168
-0.871846
-0.94932
-0.945119
-0.940268
-0.932476
-0.977179
-0.976925
-0.977668
-0.977986
-0.987302
-0.987427
-0.987609
-0.987593
-0.994332
-0.994171
-0.994442
-0.994966
-0.998398
-0.998164
-0.99809
-0.998189
-0.999831
-0.999746
-0.999663
-0.999598
-1.00003
-1.00003
-1.00001
-0.999999
-1.00001
-1.00001
-1.00002
-1.00002
-1
-1
-1
-1
-1
-0.999999
-0.999999
-1
-1
-1
-1
-1
-1
-1
-1
-1
-1
-1
-1
-1
-1
-1
-1
-1
-1
-1
-1
-1
-1
-1
-1
-1
-1
-1
-1
-1
-1
-1
-1
-1
-1
-1
-1
-1
-1
-1
-1
-1
-1
-1
-1
-1
-1
-1
-1
-1
-1
-1
-1
-1
-1
-1
-1
-1
-1
-1
-1
-1
-1
-1
-1
-1
-1
-1
-1
-1
-1
-1
-1
-1.00001
-1
-1
-1.00001
-1.00001
-1
-1.00001
-1.00001
-1.00001
-1
-1.00001
-1.00001
-1.00001
-0.423069
-0.546388
-0.778504
-0.78819
-0.375357
0.242252
0.368681
0.408528
0.431298
0.365087
0.275594
0.302729
0.260269
0.0607358
-0.37438
-0.708073
-0.792907
-0.565898
0.0193623
-0.468216
-0.651436
-0.784859
-0.620828
-0.0271817
0.40018
0.198004
0.169704
0.152495
0.0734377
-0.403371
-0.307718
-0.0296477
-0.118608
-0.421829
-0.734661
-0.823543
-0.559305
0.0240183
-0.540804
-0.74302
-0.621764
-0.182219
0.0886701
0.144721
-0.0879434
-0.133104
-0.266552
-0.422437
-0.715588
-0.684214
-0.319691
-0.324936
-0.511006
-0.805454
-0.784865
-0.446497
0.0920588
-0.623753
-0.61684
-0.264048
0.134582
0.0735779
-0.129233
-0.2534
-0.390463
-0.634846
-0.749117
-0.824351
-0.769022
-0.416029
-0.463472
-0.62073
-0.816135
-0.548581
-0.135789
0.177596
-0.535332
-0.180576
0.0226644
-0.181677
-0.30472
-0.345306
-0.3583
-0.641948
-0.823309
-0.86351
-0.857213
-0.692348
-0.497975
-0.609621
-0.738402
-0.804835
-0.369549
-0.0331536
0.187588
-0.243265
-0.306554
-0.366481
-0.398844
-0.393436
-0.407019
-0.533909
-0.81676
-0.855008
-0.837142
-0.777135
-0.646782
-0.585144
-0.703254
-0.768119
-0.685651
-0.212968
0.0272409
0.172642
-0.442337
-0.436921
-0.352647
-0.345824
-0.459723
-0.604181
-0.741313
-0.85637
-0.819061
-0.74428
-0.700124
-0.679411
-0.67946
-0.753661
-0.770725
-0.437029
-0.101123
0.171474
0.192363
-0.443444
-0.393962
-0.367614
-0.45418
-0.690181
-0.842176
-0.874536
-0.865753
-0.811621
-0.783403
-0.768346
-0.763602
-0.768421
-0.750639
-0.714384
-0.334436
-0.0879537
0.193711
0.19122
-0.494379
-0.462459
-0.45713
-0.51288
-0.681279
-0.860825
-0.887891
-0.841352
-0.771252
-0.727677
-0.709344
-0.710476
-0.68409
-0.624041
-0.504541
-0.365652
-0.205008
0.14048
0.189439
-0.715558
-0.615544
-0.531061
-0.513317
-0.605002
-0.770836
-0.839614
-0.834451
-0.736655
-0.58488
-0.457941
-0.393788
-0.372655
-0.373045
-0.392372
-0.529225
-0.301489
0.07762
0.186325
-0.831639
-0.723032
-0.574394
-0.471046
-0.440386
-0.472274
-0.602785
-0.674255
-0.647462
-0.544228
-0.428377
-0.393256
-0.451387
-0.547406
-0.606448
-0.626889
-0.365554
-0.074718
0.137511
-0.909596
-0.838652
-0.725529
-0.597817
-0.526956
-0.48471
-0.4737
-0.481545
-0.503238
-0.547616
-0.621696
-0.697684
-0.728607
-0.745512
-0.748862
-0.685459
-0.44981
-0.181947
0.0621992
-0.975819
-0.962399
-0.925505
-0.857424
-0.800636
-0.761722
-0.74308
-0.740691
-0.766802
-0.820563
-0.849058
-0.858686
-0.860589
-0.843753
-0.817947
-0.769056
-0.55608
-0.315634
-0.10779
-0.986175
-0.979706
-0.963621
-0.948119
-0.933102
-0.921939
-0.916911
-0.90623
-0.902984
-0.924831
-0.935498
-0.922728
-0.922338
-0.905484
-0.877659
-0.851521
-0.665702
-0.501535
-0.394311
-0.995558
-0.99431
-0.988388
-0.982428
-0.97427
-0.967908
-0.964689
-0.960322
-0.958861
-0.965597
-0.969195
-0.960908
-0.955536
-0.948361
-0.91924
-0.887002
-0.753763
-0.660965
-0.590637
-0.998411
-0.998093
-0.995835
-0.992293
-0.986728
-0.983392
-0.982006
-0.981789
-0.983995
-0.98605
-0.986405
-0.982409
-0.978616
-0.97387
-0.950198
-0.918642
-0.821704
-0.745381
-0.684433
-0.999495
-0.999173
-0.997717
-0.995438
-0.992313
-0.991819
-0.991412
-0.991758
-0.993745
-0.994867
-0.994192
-0.992182
-0.990118
-0.984527
-0.970437
-0.945017
-0.885782
-0.806337
-0.735319
-0.999958
-0.999859
-0.999437
-0.998643
-0.996501
-0.997323
-0.996763
-0.996435
-0.997328
-0.998104
-0.997718
-0.997199
-0.996456
-0.99394
-0.987793
-0.973812
-0.932962
-0.849572
-0.769287
-1.00002
-1.00001
-0.999905
-0.999667
-0.99874
-0.999071
-0.99883
-0.998553
-0.998958
-0.999306
-0.999172
-0.998995
-0.99882
-0.998138
-0.996138
-0.989099
-0.959122
-0.881843
-0.795829
-1.00001
-1.00002
-1.00001
-0.999964
-0.999732
-0.999732
-0.999685
-0.999563
-0.999638
-0.999748
-0.999744
-0.999685
-0.999597
-0.999529
-0.999012
-0.99501
-0.968839
-0.895452
-0.818649
-1
-1.00001
-1.00001
-1.00001
-0.999987
-0.999966
-0.999947
-0.999909
-0.999912
-0.999931
-0.999928
-0.99991
-0.99986
-0.999909
-0.99975
-0.996677
-0.973013
-0.904518
-0.839931
-1
-1
-1
-1.00001
-1.00001
-1
-1
-0.999993
-0.999989
-0.999992
-0.999989
-0.999981
-0.999971
-0.999995
-0.999874
-0.997038
-0.976497
-0.918494
-0.858358
-1
-1
-1
-1
-1
-1
-1
-1
-1
-1
-1
-0.999998
-0.999998
-1.00001
-0.999868
-0.9973
-0.981896
-0.937766
-0.872291
-1
-1
-1
-1
-1
-1
-1
-1
-1
-1
-1
-1
-1
-1.00001
-0.99986
-0.998131
-0.988257
-0.951343
-0.881669
-1
-1
-1
-1
-1
-1
-1
-1
-1
-1
-1
-1
-1
-1
-0.999901
-0.998773
-0.991315
-0.956793
-0.887776
-1
-1
-1
-1
-1
-1
-1
-1
-1
-1
-1
-1
-1
-0.999994
-0.999891
-0.998907
-0.991728
-0.957639
-0.892313
-1
-1
-1
-1
-1
-1
-1
-1
-1
-1
-1
-1
-0.999999
-0.999978
-0.999872
-0.998969
-0.991498
-0.957673
-0.89685
-1
-1
-1
-1
-1
-1
-1
-1
-1
-1
-1
-1
-0.999998
-0.999971
-0.999834
-0.998934
-0.99183
-0.959653
-0.904877
-1
-1
-1
-1
-1
-1
-1
-1
-1
-1
-1
-1
-0.999996
-0.999971
-0.999868
-0.999132
-0.992892
-0.964226
-0.916958
-1
-1
-1
-1
-1
-1
-1
-1
-1
-1
-1
-0.999999
-0.999989
-0.999958
-0.999863
-0.999261
-0.993836
-0.96815
-0.931071
-1
-1
-1
-1
-1
-1
-1
-1
-1
-1
-1
-1
-0.999998
-0.999984
-0.999948
-0.999496
-0.99445
-0.972284
-0.945545
-1
-1
-1
-1
-1
-1
-1
-1
-1
-1
-1
-1
-1
-0.999998
-0.999961
-0.999332
-0.994205
-0.977701
-0.957683
-1
-1
-1
-1
-1
-1
-1
-1
-1
-1
-1
-1
-1
-0.99999
-0.999915
-0.999188
-0.994896
-0.983815
-0.966969
-1
-1
-1
-1
-1
-1
-1
-1
-1
-1
-1.00001
-1.00001
-1
-0.999993
-0.999935
-0.999491
-0.99694
-0.988886
-0.973792
-1
-1
-1
-1
-1
-1
-1
-1
-0.999998
-0.999999
-1
-1
-1
-0.999998
-0.999974
-0.999821
-0.998502
-0.992229
-0.978687
-1
-1
-1.00001
-1
-1
-0.999995
-0.999987
-0.999984
-0.999977
-0.999982
-0.999989
-0.999997
-1
-1
-0.999989
-0.999858
-0.998768
-0.993873
-0.982172
-1
-1.00001
-1
-1
-0.999991
-0.999981
-0.999967
-0.99995
-0.999942
-0.999951
-0.999967
-0.999985
-0.999997
-1
-0.999995
-0.999943
-0.999565
-0.996677
-0.98417
-1.00001
-1.00001
-1
-0.999989
-0.999968
-0.999945
-0.999921
-0.999888
-0.999891
-0.999904
-0.999931
-0.999962
-0.999986
-0.999998
-1
-0.999997
-0.999759
-0.996755
-0.983816
-1.00001
-1.00001
-0.999995
-0.999969
-0.999936
-0.999892
-0.999857
-0.999825
-0.999833
-0.999847
-0.999874
-0.999908
-0.999951
-0.999983
-0.999995
-0.999998
-0.999785
-0.997291
-0.986478
-1.00001
-1
-0.999987
-0.999951
-0.999911
-0.999862
-0.99981
-0.999783
-0.99979
-0.999807
-0.999839
-0.999886
-0.999938
-0.999972
-0.999985
-1
-0.999903
-0.99816
-0.989173
-1.00001
-1
-0.999978
-0.999941
-0.999896
-0.999849
-0.999794
-0.999764
-0.999774
-0.999796
-0.999826
-0.999864
-0.99991
-0.999951
-0.999972
-0.999997
-0.999989
-0.999337
-0.994011
-1.00001
-1
-0.999972
-0.999934
-0.999889
-0.999841
-0.999787
-0.999759
-0.999772
-0.999797
-0.999826
-0.999857
-0.999895
-0.999932
-0.99995
-0.999969
-1.00002
-0.999931
-0.998013
)
;

boundaryField
{
    leftWall
    {
        type            zeroGradient;
    }
    rightWall
    {
        type            zeroGradient;
    }
    lowerWall
    {
        type            zeroGradient;
    }
    atmosphere
    {
        type            zeroGradient;
    }
    defaultFaces
    {
        type            empty;
    }
}


// ************************************************************************* //
