/*--------------------------------*- C++ -*----------------------------------*\
| =========                 |                                                 |
| \\      /  F ield         | foam-extend: Open Source CFD                    |
|  \\    /   O peration     | Version:     4.1                                |
|   \\  /    A nd           | Web:         http://www.foam-extend.org         |
|    \\/     M anipulation  |                                                 |
\*---------------------------------------------------------------------------*/
FoamFile
{
    version     2.0;
    format      ascii;
    class       volScalarField;
    location    "0.65";
    object      p;
}
// * * * * * * * * * * * * * * * * * * * * * * * * * * * * * * * * * * * * * //

dimensions      [1 -1 -2 0 0 0 0];

internalField   nonuniform List<scalar> 
2268
(
547.661
557.581
574.175
594.694
629.891
665.578
697.717
730.702
761.95
784.693
811.243
827.188
833.79
844.722
854.49
859.028
868.467
868.821
877.542
876.981
879.881
877.108
875.719
487.639
495.905
513.808
537.541
570.647
607.004
638.9
672.183
702.795
726.706
755.366
767.549
773.965
786.198
796.843
801.056
808.414
812.237
816.378
817.731
821.007
818.514
816.265
427.861
434.013
453.024
478.641
511.381
548.211
580.922
615.349
646.342
666.557
697.015
707.847
716.892
727.65
738.082
741.813
752.839
753.005
760.856
761.344
763.651
758.217
756.992
365.499
372.206
391.919
419.276
452.007
489.644
522.299
558.353
588.072
618.491
635.047
649.589
659.375
672.062
681.207
686.195
693.568
695.781
701.111
701.338
704.714
702.346
697.063
303.559
312.836
331.425
360.355
393.287
432.609
466.307
509.48
532.386
554.908
578.098
591.752
601.578
612.166
620.59
630.791
636.98
637.558
642.142
646.929
643.368
641.3
635.919
244.997
254.763
273.875
302.676
334.962
376.005
408.994
443.246
480.565
500.926
518.866
533.529
544.057
557.582
568.468
571.878
581.568
579.879
581.305
589.513
589.342
580.498
574.925
192.197
202.208
222.368
250.503
281.066
322.162
357.52
390.96
418.63
444.803
462.337
477.424
487.499
498.3
507.825
519.483
520.897
522.312
520.594
538.23
517.872
523.228
510.465
149.299
156.751
177.207
201.679
230.787
270.591
302.64
338.222
366.992
390.596
406.133
419.581
431.591
443.22
452.045
467.088
459.004
467.571
468.344
479.904
480.815
458.864
449.474
1066.77
909.794
539.123
481.866
661.89
826.955
1035.47
1104.04
1148.83
1154.65
1062.75
847.573
701.798
795.161
563.055
612.678
849.568
1094.18
1379.16
1016.85
779.289
479.517
410.084
602.116
806.778
984.112
1056.96
1137.74
1152.95
1064.63
827.391
585.136
703.117
560.087
618.212
678.491
1012.42
1316.89
872.188
602.939
420.484
342.418
567.535
723.113
915.059
1045.79
1099.11
1138.98
1028.92
748.804
580.577
621.618
582.213
668.745
653.004
946.083
1210.73
766.739
439.357
341.974
322.588
468.921
612.446
783.337
954.186
1030.13
1082.95
967.673
662.427
490.49
606.324
579.568
655.73
594.109
826.29
1045.05
669.748
344.285
301.23
304.587
381.26
499.65
760.799
835.565
923.324
994.021
828.535
584.438
503.28
595.193
600.369
593.476
571.278
730.254
844.037
578.398
297.782
281.823
282.049
318.875
444.011
634.856
740.129
791.738
850.195
756.22
601.899
498.809
614.457
613.452
566.543
546.259
663.164
733.554
503.051
264.144
267.17
260.328
291.972
494.851
589.126
688.53
685.411
690.147
601.241
522.335
495.698
592.962
611.046
547.899
514.175
587.619
733.772
412.001
241.053
252.681
253.521
270.218
430.317
507.279
545.692
568.905
544.367
442.183
417.072
490.966
573.072
598.732
531.922
489.61
555.679
712.266
112.279
116.153
128.102
153.625
177.618
206.463
233.516
265.813
283.051
308.224
318.873
335.295
346.495
349.574
359.848
376.153
365.376
391.304
385.072
375.784
383.021
361.607
328.21
89.9512
89.7486
97.5579
107.466
115.513
130.474
140.236
174.234
190.264
210.074
219.42
229.676
242.402
255.701
257.766
257.27
279.048
256.625
276.009
257.036
235.76
244.308
125.819
80.9755
78.3342
86.0946
82.8201
64.915
93.2452
85.1315
133.068
118.08
143.543
98.1955
162.976
150.887
160.722
160.847
166.765
176.41
155.422
204.866
155.118
215.312
174.008
145.254
74.3525
70.728
68.0554
70.1177
48.5691
63.6543
56.9326
93.7236
84.3111
91.9195
94.3209
68.4541
113.753
106.077
105.985
103.178
99.7597
96.4169
106.571
92.1847
111.141
124.168
120.649
62.0058
59.6224
55.2549
54.3476
47.6139
64.7267
56.4855
62.2234
62.5687
64.5426
63.1257
65.9455
70.6905
81.5223
67.8941
80.7247
73.6986
95.7858
96.8103
53.2415
68.2234
126.725
135.904
51.1638
50.8391
48.1094
42.8683
41.5954
45.107
55.4296
53.2652
53.132
55.8661
54.889
62.2449
76.0533
76.515
71.2865
73.5312
72.0352
80.1917
25.5697
16.6806
64.0536
74.7485
95.4753
43.211
45.4686
43.8385
43.9045
42.9189
43.9714
45.4643
45.2531
47.096
47.9289
41.5528
43.2017
51.584
54.3513
62.0223
71.9419
53.7611
45.8673
4.46427
24.8657
59.5493
59.6594
52.7877
35.012
34.5677
36.3038
36.2963
38.3523
36.1844
34.02
40.1093
38.8988
34.4137
32.357
35.4301
38.2448
39.0073
41.7889
45.9705
-40.1134
4.23491
-18.7772
90.6019
58.994
32.1982
32.3973
31.0949
30.6177
31.0842
31.4975
35.2072
33.7891
30.5491
31.8912
28.5286
21.4073
19.8953
13.5474
11.1899
8.10577
4.03761
7.93497
-3.45499
11.4328
3.29853
24.584
5.75503
-36.106
62.9899
27.3182
27.3524
27.2442
26.7298
27.2452
24.6606
21.1333
15.8115
8.3334
-2.74911
-3.21049
-3.26292
-2.76669
-1.08796
-0.0578517
-0.884862
1.23274
0.939986
2.24037
4.97535
9.76322
3.09892
2.71992
21.4292
22.0889
20.0353
18.233
17.7173
14.5707
10.6812
-9.08344
-3.30358
-6.79517
1.15937
-4.23387
-3.25827
-2.60259
-2.13563
-1.98097
-0.899362
0.226719
1.78841
2.26396
2.0241
4.64908
7.1129
16.9626
14.7799
14.9596
11.8391
2.22017
1.94387
6.16316
1.96401
-0.344122
-2.61794
-3.94333
-3.25582
-3.0172
-2.62368
-2.38306
-2.21152
-2.00765
-1.50935
-0.948665
-0.275702
0.096826
0.674554
0.408337
13.2429
11.743
9.8344
8.28956
3.178
-3.13963
-4.11926
-4.00932
-4.39174
-4.30516
-3.7607
-3.28432
-2.87448
-2.71102
-2.52862
-2.36567
-2.93792
-2.36522
-2.03128
-1.69287
-1.3953
-1.03929
-0.387068
9.38919
7.50652
4.35506
-1.02124
-3.74531
-4.31077
-5.66105
-5.17911
-4.31789
-4.57677
-3.7335
-3.26807
-3.00144
-2.85097
-2.64636
-2.68545
-2.9481
-2.78995
-2.56118
-2.35336
-2.22564
-2.17121
-2.67268
5.2341
4.44145
2.34305
-2.233
-4.53842
-5.10024
-4.72677
-4.05709
-4.96835
-4.56055
-3.807
-3.31429
-3.22909
-3.11375
-3.01767
-3.03232
-2.99313
-2.91371
-2.85168
-2.86709
-2.84143
-2.95058
-3.18803
3.51276
3.38544
1.65384
-0.961362
-2.77018
-3.86197
-4.15778
-5.01204
-4.96874
-4.25969
-3.83581
-3.49186
-3.36625
-3.23947
-3.17052
-3.15121
-3.15384
-3.13804
-3.08324
-3.06539
-3.04495
-3.07073
-3.0984
3.51316
2.39739
1.13908
0.0450198
-1.84299
-2.4135
-3.02015
-4.58012
-4.79019
-4.18676
-3.90154
-3.6734
-3.59811
-3.45681
-3.36177
-3.35857
-3.33177
-3.28144
-3.22952
-3.23235
-3.20408
-3.20434
-3.21605
2.12735
0.478126
0.273302
-0.65827
-1.77404
-1.63888
-2.42595
-4.18481
-4.59823
-4.30629
-4.16335
-3.92979
-3.78416
-3.58343
-3.48297
-3.49334
-3.43139
-3.38302
-3.38172
-3.34752
-3.33686
-3.33636
-3.34303
0.570775
-0.401842
0.554525
-1.43603
-1.13084
-0.964817
-2.19713
-3.36043
-4.14404
-4.21062
-4.11881
-4.10785
-3.88967
-3.78035
-3.77963
-3.6071
-3.60979
-3.55903
-3.49806
-3.47594
-3.45957
-3.44741
-3.41388
-0.0258438
-0.249891
-0.514832
-0.446568
-0.591385
0.148618
-2.90604
-4.05376
-4.38409
-4.30667
-4.23081
-4.15816
-4.19992
-3.92454
-3.804
-3.7759
-3.72352
-3.70652
-3.66133
-3.63737
-3.56534
-3.57669
-3.57159
-0.310427
0.142555
-1.54977
0.991893
-2.60388
-3.92201
-4.29047
-4.38007
-4.40085
-4.52109
-4.44454
-4.3445
-4.12945
-4.08452
-3.96927
-3.86644
-3.84594
-3.77699
-3.79039
-3.78364
-3.76932
-3.72709
-3.68449
-0.0201713
0.664103
1.33741
1.73942
-2.75506
-3.63945
-4.35036
-4.79377
-4.85338
-4.64795
-4.69629
-4.32532
-4.36265
-4.24744
-4.14009
-4.10814
-3.98229
-3.96502
-3.875
-3.86957
-3.80459
-3.81186
-3.85089
-0.0878006
0.816913
1.23561
0.744213
-2.56055
-3.46434
-4.53894
-4.99131
-4.91225
-4.86234
-4.63704
-4.53267
-4.42981
-4.4091
-4.28045
-4.18338
-4.12571
-4.02882
-4.0466
-3.96928
-3.95589
-3.94008
-3.87055
-1.18505
-2.76749
-0.507594
-0.99307
-3.34694
-5.5012
-5.47572
-5.90141
-5.62567
-5.38167
-4.94562
-4.67034
-4.52226
-4.34201
-4.35599
-4.22852
-4.34009
-4.1932
-4.09696
-4.10491
-4.08659
-4.06418
-4.02056
-1.19897
-4.28895
-4.54735
-1.93735
-5.39622
-6.84391
-6.1296
-6.67634
-5.98119
-5.46614
-5.11533
-4.77826
-4.60766
-4.51328
-4.52502
-4.31675
-4.37042
-4.35159
-4.22919
-4.19499
-4.18569
-4.14161
-4.0903
-1.19382
-3.94493
-5.59369
-4.42903
-4.50145
-7.95019
-7.1068
-6.47391
-5.66709
-5.29211
-5.1277
-4.85364
-4.64395
-4.53226
-4.48198
-4.42967
-4.49211
-4.4038
-4.23689
-4.30285
-4.38845
-4.32062
-4.24686
-1.92383
-4.259
-4.82806
-6.9544
-7.89114
-6.87389
-5.74821
-5.7092
-5.32348
-5.05193
-4.99787
-4.82422
-4.75142
-4.58435
-4.54647
-4.5731
-4.51309
-4.49748
-4.34574
-4.35586
-4.47447
-4.40575
-4.3388
-5.53896
-5.60059
-5.04281
-5.6215
-6.16032
-5.29055
-5.26872
-5.2748
-5.13778
-5.00073
-4.88591
-4.75906
-4.69582
-4.65941
-4.58624
-4.62303
-4.576
-4.56578
-4.45108
-4.41651
-4.42154
-4.62124
-4.54422
-6.9647
-5.92771
-5.26322
-5.37427
-4.82133
-4.82925
-5.04016
-4.98323
-4.98948
-4.89851
-4.82619
-4.74455
-4.69911
-4.73071
-4.65972
-4.62403
-4.5757
-4.55889
-4.58525
-4.52949
-4.44477
-4.60888
-4.63848
-4.69491
-4.25223
-4.20168
-4.76988
-4.72805
-4.67524
-4.72664
-4.73133
-4.78387
-4.79061
-4.75678
-4.71176
-4.67722
-4.68014
-4.75422
-4.67392
-4.64433
-4.6293
-4.62347
-4.64626
-4.57911
-4.61093
-4.74503
-3.92079
-3.88375
-3.9546
-4.25704
-4.31676
-4.36552
-4.47497
-4.54153
-4.61908
-4.65416
-4.69994
-4.67024
-4.70077
-4.6463
-4.84834
-4.76458
-4.74325
-4.64554
-4.67553
-4.78137
-4.6791
-4.71147
-4.86909
-4.08111
-3.98816
-3.97076
-4.09291
-4.15792
-4.24406
-4.37196
-4.46119
-4.5493
-4.60866
-4.67349
-4.6575
-4.71188
-4.69067
-4.93627
-4.90566
-4.70585
-4.71962
-4.83168
-4.85156
-4.75542
-4.71015
-4.86369
-3.96901
-3.92543
-3.94789
-4.06727
-4.15929
-4.25056
-4.35758
-4.45073
-4.53556
-4.60492
-4.67354
-4.69293
-4.74854
-4.82609
-4.84995
-4.83029
-4.7765
-4.96999
-4.84749
-4.8189
-4.97041
-4.82688
-4.92667
-4.05793
-4.04372
-4.08096
-4.17457
-4.25669
-4.3423
-4.42843
-4.51266
-4.58754
-4.65756
-4.71146
-4.74578
-4.69082
-4.92165
-4.93855
-4.89803
-4.98507
-4.91338
-4.92043
-4.94328
-4.97468
-4.95064
-4.95889
-4.24962
-4.24578
-4.2781
-4.33747
-4.39894
-4.46665
-4.5324
-4.60235
-4.66216
-4.72835
-4.76581
-4.78373
-4.82086
-5.04613
-5.03145
-4.92511
-5.00055
-5.00951
-5.02801
-4.96624
-5.08936
-5.107
-5.02456
-4.45721
-4.45844
-4.48407
-4.523
-4.56822
-4.62167
-4.67476
-4.73416
-4.79552
-4.86349
-4.83998
-4.8619
-5.00451
-5.16044
-4.97831
-5.02631
-5.04719
-5.11985
-5.11817
-5.14128
-5.07949
-5.22087
-5.20289
-4.6715
-4.6741
-4.69224
-4.71678
-4.74565
-4.77914
-4.81665
-4.84908
-4.89614
-4.90737
-4.97821
-4.95671
-5.15751
-5.15013
-5.0875
-5.10932
-5.20291
-5.19593
-5.23778
-5.20563
-5.19303
-5.23815
-5.18273
-4.87932
-4.8806
-4.89393
-4.91249
-4.9308
-4.95201
-4.98283
-5.00157
-5.05248
-5.05248
-5.15214
-5.19693
-5.26112
-5.19098
-5.19907
-5.24094
-5.26518
-5.24707
-5.27717
-5.25947
-5.31406
-5.36273
-5.2542
-5.09303
-5.09433
-5.09675
-5.11153
-5.11878
-5.12556
-5.14846
-5.14591
-5.22158
-5.24899
-5.27653
-5.31026
-5.30664
-5.28399
-5.3359
-5.33584
-5.33409
-5.34415
-5.37038
-5.34229
-5.41916
-5.45343
-5.38875
-5.28711
-5.28719
-5.29136
-5.30225
-5.30957
-5.31785
-5.33554
-5.34642
-5.36323
-5.35034
-5.37235
-5.36338
-5.39636
-5.37817
-5.43777
-5.45619
-5.44071
-5.44338
-5.48661
-5.46777
-5.46207
-5.55323
-5.52087
-5.56422
-5.51982
-5.50396
-5.55984
-5.48525
-5.46733
-5.50839
-5.5371
-5.51339
-5.52032
-5.51235
-5.53151
-5.52021
-5.55294
-5.54219
-5.56818
-5.54975
-5.56704
-5.5833
-5.56471
-5.58508
-5.61228
-5.60757
-5.54907
-5.63202
-5.65069
-5.55836
-5.66511
-5.69291
-5.68287
-5.57976
-5.65908
-5.59605
-5.60846
-5.6216
-5.67244
-5.64824
-5.66671
-5.67142
-5.67873
-5.67298
-5.67992
-5.68599
-5.69328
-5.75734
-5.7263
227.731
181.582
120.858
161.446
68.8192
34.9822
29.9999
31.5876
125.283
115.267
120.758
131.565
132.472
171.27
181.746
227.186
150.249
163.794
215.463
252.333
146.73
177.354
168.234
234.217
103.543
149.864
162.768
197.449
87.3243
129.509
143.857
171.076
73.4489
90.9716
81.6694
85.1784
15.044
24.7028
26.4482
41.1818
11.4422
14.7714
18.9365
25.5037
1.55974
2.49475
3.55063
4.87891
-0.723789
-1.15444
0.610563
0.765823
-2.32466
-2.06318
-2.10213
-2.17415
-3.24152
-3.22717
-3.26784
-3.22124
-3.14911
-3.17866
-3.19637
-3.19033
-3.21915
-3.20652
-3.19132
-3.15933
-3.33994
-3.335
-3.33248
-3.31771
-3.42231
-3.41973
-3.42266
-3.42734
-3.56813
-3.57338
-3.56126
-3.53003
-3.66518
-3.65055
-3.66573
-3.68551
-3.85118
-3.82094
-3.77636
-3.84196
-3.93289
-3.92261
-3.92759
-3.94864
-4.09016
-4.07022
-4.06963
-4.06901
-4.18003
-4.13243
-4.11951
-4.12961
-4.28471
-4.29692
-4.25355
-4.23989
-4.31728
-4.33907
-4.37464
-4.36308
-4.44763
-4.45316
-4.44965
-4.43442
-4.57857
-4.56427
-4.57719
-4.54167
-4.67146
-4.66602
-4.67119
-4.72858
-4.84193
-4.80532
-4.77715
-4.75122
-4.90634
-4.90835
-4.94115
-4.86688
-4.90168
-4.90613
-4.87987
-4.92953
-4.96878
-4.95887
-5.07553
-5.07179
-5.09819
-5.1175
-5.20365
-5.26368
-5.17406
-5.24551
-5.22408
-5.27214
-5.28808
-5.29595
-5.22134
-5.21373
-5.37791
-5.38607
-5.39853
-5.36526
-5.47032
-5.47539
-5.5226
-5.4766
-5.51854
-5.58452
-5.5768
-5.61976
-5.61322
-5.65794
-5.68749
-5.71015
-5.7767
-5.79704
-5.7726
-5.78789
268.048
248.362
246.872
250.986
258.97
387.036
420.266
423.302
379.078
426.646
245.62
408.736
409.689
520.29
518.474
508.546
496.412
515.939
669.355
99.638
171.229
243.005
229.348
239.795
335.474
313.181
328.355
287.5
247.393
160.799
196.819
200.684
298.498
389.768
486.321
486.022
513.368
658.213
131.267
155.339
225.309
211.281
145.946
184.139
220.876
179.191
111.874
120.121
103.775
105.148
135.111
253.532
385.389
487.393
492.918
391.593
293.105
251.371
191.142
231.958
187.589
155.89
218.912
176.745
125.329
92.9491
75.2548
75.7494
85.8664
112.029
237.779
366.804
458.542
483.173
433.471
349.124
311.959
222.087
252.461
215.163
189.473
143.358
172.727
76.381
59.8153
47.637
47.0322
63.6373
98.851
209.817
344.256
436.03
402.969
527.819
606.069
304.896
275.561
201.128
179.367
148.216
144.479
103.406
63.3986
36.708
25.0857
31.3945
74.9369
148.701
244.026
300.296
356.194
421.161
332.766
502.703
260.055
216.005
190.557
170.822
123.596
78.1891
84.3725
65.7639
85.1541
52.525
42.8115
82.6806
206.37
223.725
267.752
294.619
320.007
302.411
227.229
228.906
107.006
125.636
147.443
56.3788
76.414
95.3391
76.7696
110.283
155.064
59.7871
114.35
201.949
233.268
237.957
259.035
283.016
382.388
289.47
146.356
107.364
80.7421
7.36572
48.7746
100.957
94.0276
77.6491
74.1224
94.2737
118.5
152.642
203.548
233.303
229.949
225.386
219.599
93.3488
181.88
89.5299
37.0696
27.7331
81.2646
37.992
54.4989
65.8801
53.3226
61.4173
76.0083
126.473
160.65
190.036
194.341
200.777
186.308
148.523
46.1697
145.892
33.7407
3.77866
-49.9494
42.6661
44.9101
65.2724
46.9774
20.8375
66.3598
68.8781
91.731
86.2436
89.4978
105.657
133.26
132.164
130.275
171.269
132.747
8.15692
1.31001
-3.53253
11.8317
21.3983
38.2744
42.3317
38.218
41.8861
49.3478
35.4631
11.787
46.904
95.5034
83.4633
125.392
136.741
97.2273
74.5051
0.407086
-0.683871
4.24023
10.5108
14.2814
14.8106
9.02176
9.75951
13.9147
19.0299
5.3974
24.4742
30.4129
44.6675
37.7162
67.3689
68.5077
54.4965
30.4698
-1.97098
-1.70984
-1.58956
-1.26884
2.83921
5.53783
-0.665313
0.233408
9.74757
8.87836
2.52112
8.90217
11.1789
13.227
14.5694
28.0333
-46.7159
24.8754
124.161
-2.72447
-2.52672
-1.9273
-1.896
-0.72534
1.01842
-1.94196
-0.982674
0.882946
0.281874
0.921658
0.0376313
2.05529
6.79163
7.01523
4.29552
-8.50676
22.0139
58.241
-2.98511
-2.73468
-2.93139
-3.02138
-1.38897
-1.63227
-2.26498
-2.89136
-1.58628
-2.2737
-1.77333
-2.1705
0.139252
-1.54411
-0.904939
-5.53199
-6.97222
20.8478
47.5739
-3.08109
-2.99224
-3.00903
-3.4822
-2.91377
-3.64311
-3.40204
-3.22377
-3.05274
-2.75931
-2.3958
-2.4047
-2.62307
-3.19508
-2.08967
-2.39395
11.9654
27.6682
42.4463
-3.2976
-3.23606
-3.39266
-3.32175
-3.48964
-4.02256
-3.58587
-3.50405
-3.27623
-3.16431
-3.33181
-3.18705
-3.4418
-3.93597
-4.12767
-4.49942
-2.03045
4.12183
13.3666
-3.45026
-3.37623
-3.52503
-3.4923
-3.71682
-4.00422
-3.83547
-3.80518
-3.62439
-3.41449
-3.30392
-3.24082
-3.38022
-3.34217
-3.24923
-3.21104
-2.14895
-2.13894
2.91618
-3.63817
-3.61292
-3.5493
-3.61908
-3.78547
-3.93739
-3.86168
-3.66611
-3.66556
-3.51492
-3.46171
-3.56722
-3.55789
-3.30225
-3.23274
-3.10036
-2.03425
1.90746
7.39086
-3.70341
-3.70671
-3.56469
-3.64295
-3.61973
-3.97249
-3.9943
-3.6543
-3.64761
-3.65249
-3.55137
-3.60486
-3.54821
-3.54102
-3.38195
-3.24717
-3.06221
-0.317354
-3.14949
-3.82025
-3.79059
-3.69487
-3.71323
-3.96811
-4.0337
-4.01975
-3.85024
-3.72618
-3.67871
-3.73288
-3.62833
-3.63429
-3.56996
-3.57228
-3.6278
-4.21002
-3.66221
-6.99204
-3.95426
-3.82952
-3.79584
-3.85076
-3.78493
-4.03747
-3.96842
-3.9825
-3.84709
-3.80739
-3.86229
-3.79737
-3.79603
-3.64014
-3.67485
-3.86654
-5.00448
-6.14345
-1.90149
-4.03904
-3.97234
-3.90971
-3.95483
-4.01263
-4.10645
-4.03505
-3.92387
-3.93426
-3.86601
-3.93453
-3.81076
-3.87218
-3.8213
-3.84461
-3.88407
-4.75817
-5.26501
-2.85902
-4.20423
-4.10977
-4.03567
-4.05779
-3.99581
-4.15095
-4.16172
-3.98637
-3.96058
-4.01681
-4.04741
-3.91849
-3.82081
-3.91717
-3.7862
-3.69455
-3.76687
-3.20764
-3.4629
-4.22891
-4.15964
-4.15724
-4.13275
-4.15456
-4.21022
-4.21844
-4.12359
-4.10394
-4.08357
-4.01187
-4.0391
-3.93285
-4.07098
-3.86611
-3.76147
-3.38722
-2.80785
-3.26619
-4.38204
-4.26639
-4.27304
-4.20505
-4.31888
-4.28936
-4.20304
-4.20766
-4.23092
-4.19053
-4.1546
-4.10872
-4.03971
-4.04699
-4.01274
-3.94357
-3.72286
-3.42319
-3.44516
-4.42168
-4.40494
-4.28955
-4.34081
-4.38653
-4.46887
-4.34577
-4.37754
-4.31877
-4.27434
-4.29632
-4.20488
-4.15831
-4.16095
-4.225
-4.12554
-4.11735
-4.35798
-3.54101
-4.48253
-4.51575
-4.48992
-4.40233
-4.55164
-4.5549
-4.40213
-4.52409
-4.43609
-4.35418
-4.34756
-4.39348
-4.30095
-4.25211
-4.28935
-4.19794
-4.46406
-4.72271
-3.44964
-4.54533
-4.57388
-4.5563
-4.52536
-4.57732
-4.55841
-4.58129
-4.66661
-4.59048
-4.45789
-4.4259
-4.47735
-4.48167
-4.36887
-4.38045
-4.55016
-4.41471
-4.85264
-3.63363
-4.65533
-4.70549
-4.72972
-4.70826
-4.5729
-4.64888
-4.7612
-4.79843
-4.63533
-4.58486
-4.55111
-4.55592
-4.55656
-4.47819
-4.61397
-4.67146
-4.55638
-5.03131
-4.75495
-4.87319
-4.76724
-4.79554
-4.80422
-4.79154
-4.79073
-4.79924
-4.80886
-4.79235
-4.78144
-4.63133
-4.67753
-4.67511
-4.72939
-4.73819
-4.70028
-4.75022
-5.34213
-4.67242
-4.92947
-4.8418
-4.91332
-4.86839
-4.9788
-4.97431
-4.95024
-4.79239
-4.93175
-4.96854
-4.69194
-4.76487
-4.72224
-4.89465
-4.85918
-4.93496
-5.19883
-5.34508
-4.4872
-5.04588
-4.94293
-5.00947
-4.97694
-5.08891
-5.03977
-5.1838
-4.85704
-5.00349
-4.99217
-4.92273
-4.83945
-5.04549
-5.02115
-5.10279
-4.99175
-4.9453
-5.15668
-4.29863
-5.15438
-5.05391
-5.07942
-5.17302
-5.21314
-5.29482
-5.41437
-5.04523
-5.111
-5.14342
-5.0481
-5.02404
-4.99478
-5.14951
-5.20811
-5.07333
-5.34527
-5.32387
-4.42928
-5.17505
-5.31461
-5.18718
-5.28842
-5.23551
-5.38867
-5.45474
-5.21433
-5.25548
-5.42413
-5.26038
-5.15574
-5.19224
-5.2372
-5.43833
-5.06569
-4.99409
-5.11915
-4.6554
-5.39253
-5.469
-5.33706
-5.2905
-5.5094
-5.64353
-5.63401
-5.43862
-5.43632
-5.75361
-5.59582
-5.26652
-5.23109
-5.49987
-5.4937
-5.11724
-5.17523
-5.44211
-6.26477
-5.43439
-5.37873
-5.4267
-5.47367
-5.58037
-5.66309
-5.686
-5.59758
-5.6718
-5.81043
-5.60476
-5.54846
-5.34284
-5.48538
-5.54668
-5.23711
-5.19584
-5.24762
-5.14682
-5.45038
-5.51126
-5.57803
-5.524
-5.69997
-5.71846
-5.8733
-5.81652
-5.92403
-5.89507
-5.93711
-5.63012
-5.68108
-5.59859
-5.55151
-5.40318
-5.3517
-5.39339
-5.12235
-5.61913
-5.71186
-5.8968
-6.04694
-5.9097
-6.04391
-5.96826
-6.04057
-5.99251
-5.99744
-5.98391
-5.8309
-5.75202
-5.77731
-5.70226
-5.50228
-5.54219
-5.62497
-5.40279
-5.74394
-5.78333
-6.01465
-6.109
-6.20969
-6.15832
-6.15813
-6.2174
-6.15764
-6.12871
-6.06833
-5.98995
-5.90378
-5.78606
-5.6822
-5.66963
-5.60009
-5.93455
-5.91933
-5.83836
-6.10079
-5.92928
-6.03059
-6.1228
-6.22667
-6.28098
-6.2851
-6.28055
-6.20861
-6.17451
-6.09677
-6.0165
-5.93905
-5.85795
-5.79336
-5.80431
-6.5041
-7.09213
)
;

boundaryField
{
    leftWall
    {
        type            calculated;
        value           nonuniform List<scalar> 
50
(
547.661
487.639
427.861
365.499
303.559
244.997
192.197
149.299
112.279
89.9512
80.9755
74.3525
62.0058
51.1638
43.211
35.012
31.0949
27.3182
21.4292
16.9626
13.2429
9.38919
5.2341
3.51276
3.51316
2.12735
0.570775
-0.0258438
-0.310427
-0.0201713
-0.0878006
-1.18505
-1.19897
-1.19382
-1.92383
-5.53896
-6.9647
-4.69491
-3.92079
-4.08111
-3.96901
-4.05793
-4.24962
-4.45721
-4.6715
-4.87932
-5.09303
-5.28711
-5.56422
-5.54907
)
;
    }
    rightWall
    {
        type            calculated;
        value           nonuniform List<scalar> 
50
(
1379.16
1316.89
1210.73
1045.05
844.037
733.554
733.772
712.266
669.355
658.213
293.105
349.124
606.069
502.703
227.229
289.47
181.88
145.892
132.747
74.5051
30.4698
124.161
58.241
47.5739
42.4463
13.3666
2.91618
7.39086
-3.14949
-6.99204
-1.90149
-2.85902
-3.4629
-3.26619
-3.44516
-3.54101
-3.44964
-3.63363
-4.75495
-4.67242
-4.4872
-4.29863
-4.42928
-4.6554
-6.26477
-5.14682
-5.12235
-5.40279
-5.91933
-7.09213
)
;
    }
    lowerWall
    {
        type            calculated;
        value           nonuniform List<scalar> 
62
(
577.091
587.011
603.605
624.124
659.32
695.008
727.146
760.132
791.38
814.064
840.581
856.521
863.137
874.093
883.884
888.441
897.893
898.25
906.972
906.411
909.311
906.537
905.145
875.719
816.265
756.992
697.063
635.919
574.925
510.465
449.474
280.34
230.892
164.298
194.482
1066.77
1016.85
872.188
766.739
669.748
578.398
503.051
412.001
1076.9
921.344
551.322
494.427
674.572
839.264
1047.47
1115.69
1161.35
1168.06
1077.25
862.477
716.918
810.54
578.45
628.463
864.764
1109.03
1393.97
)
;
    }
    atmosphere
    {
        type            calculated;
        value           nonuniform List<scalar> 
46
(
-5.72904
-5.72904
-5.72904
-5.72904
-5.72904
-5.72904
-5.72904
-5.72904
-5.72904
-5.72904
-5.72904
-5.72904
-5.72904
-5.72904
-5.72904
-5.72904
-5.72905
-5.72908
-5.73318
-5.73664
-5.74837
-5.79118
-5.77677
-5.80173
-5.83155
-5.83946
-5.84313
-5.89461
-6.05186
-6.09303
-6.14073
-6.24584
-6.32609
-6.36145
-6.41929
-6.38254
-6.31702
-6.23661
-6.14644
-6.02851
-5.92413
-5.87327
-5.81701
-5.72904
-5.92799
-11.2565
)
;
    }
    defaultFaces
    {
        type            empty;
    }
}


// ************************************************************************* //
