/*--------------------------------*- C++ -*----------------------------------*\
| =========                 |                                                 |
| \\      /  F ield         | foam-extend: Open Source CFD                    |
|  \\    /   O peration     | Version:     4.1                                |
|   \\  /    A nd           | Web:         http://www.foam-extend.org         |
|    \\/     M anipulation  |                                                 |
\*---------------------------------------------------------------------------*/
FoamFile
{
    version     2.0;
    format      ascii;
    class       volScalarField;
    location    "0.65";
    object      pd;
}
// * * * * * * * * * * * * * * * * * * * * * * * * * * * * * * * * * * * * * //

dimensions      [1 -1 -2 0 0 0 0];

internalField   nonuniform List<scalar> 
2268
(
577.091
587.011
603.605
624.124
659.32
695.008
727.146
760.132
791.38
814.064
840.581
856.521
863.137
874.093
883.884
888.441
897.893
898.25
906.972
906.411
909.311
906.537
905.145
575.927
584.193
602.096
625.829
658.935
695.292
727.188
760.471
790.964
814.701
843.291
855.481
861.956
874.273
884.996
889.272
896.674
900.521
904.667
906.019
909.295
906.803
904.553
574.433
580.69
599.622
625.353
658.2
695.213
727.917
762.084
792.764
812.792
843.247
854.163
863.366
874.303
884.895
888.752
899.875
900.097
907.983
908.482
910.797
905.364
904.139
567.082
574.251
594.112
622.187
655.49
693.796
726.593
762.391
791.891
822.341
839.131
853.939
864.05
877.056
886.479
891.692
899.257
901.586
907.005
907.29
910.719
908.352
903.069
552.299
563.114
582.866
614.412
649.37
690.87
725.501
769.036
792.359
815.517
839.388
853.602
863.979
875.067
883.932
894.52
901.076
901.886
906.683
911.668
908.233
906.164
900.783
523.283
537.306
560.487
596.697
634.943
682.348
718.909
755.591
795.017
817.078
836.375
851.984
863.358
877.6
889.143
893.211
903.599
902.355
904.234
912.953
913.065
904.22
898.648
468.034
487.373
517.518
562.79
608.344
665.969
711.622
752.089
785.057
814.543
834.365
850.896
862.243
874.039
884.495
897.266
899.966
902.231
901.336
920.032
900.454
905.809
893.047
382.71
404.611
442.161
497.717
557.707
634.638
690.724
741.531
780.909
810.462
829.658
845.231
859.211
872.253
882.355
899.247
893.415
903.528
905.629
919.055
921.322
900.264
886.768
1076.9
921.344
551.322
494.427
674.572
839.264
1047.47
1115.69
1161.35
1168.06
1077.25
862.477
716.918
810.54
578.45
628.463
864.764
1109.03
1393.97
1047.1
813.67
516.261
450.96
647.814
854.607
1031.67
1099.81
1177.95
1189.34
1102.23
866.119
622.899
743.8
602.511
662.727
723.22
1056.64
1361.44
922.181
657.796
475.091
404.615
649.448
819.748
1018.78
1144.26
1190.52
1204.45
1081.31
800.191
626.979
672.741
640.446
732.557
719.536
1017.52
1285.37
835.217
509.809
401.372
388.561
569.525
750.934
945.36
1120.49
1192.47
1205.15
1049.14
727.531
541.174
657.726
641.313
726.124
665.337
918.331
1149.72
755.41
424.941
355.184
360.67
475.72
662.945
970.693
1060.81
1150.76
1196.57
976.16
680.141
570.911
650.23
659.723
662.237
636.5
831.003
978.234
680.199
385.335
328.628
327.422
407.44
632.709
882.627
1012.12
1070.28
1123.2
990.5
751.811
608.07
686.794
673.017
630.691
607.101
766.203
897.323
620.333
359.551
311.237
298.753
387.716
717.229
872.716
997.691
1000.02
1009.35
910.003
764.009
686.126
705.824
680.231
608.81
574.239
693.684
927.609
543.121
348.247
300.947
292.645
384.784
692.734
825.386
884.519
912.249
889.839
792.512
736.928
766.979
748.518
690.656
594.036
546.516
662.665
936.474
235.252
253.256
285.009
358.932
444.405
561.902
648.543
715.977
757.761
796.083
813.948
834.077
849.041
854.815
867.142
887.106
881.191
910.28
906.331
900.372
909.226
885.807
826.273
135.148
143.784
167.801
223.633
312.331
430.785
521.672
613.799
689.097
743.526
771.196
789.267
807.699
830.097
837.517
843.795
875.633
859.52
882.107
872.571
858.161
862.192
664.309
104.315
112.206
142.429
173.906
198.266
268.976
316.921
416.524
478.671
562.865
554.299
650.792
632.847
675.621
689.178
700.519
723.159
706.466
798.444
758.348
865.923
857.745
755.58
94.9385
103.803
116.979
132.328
128.066
171.103
194.698
259.688
266.02
302.26
325.794
323.182
362.606
363.955
371.688
365.395
371.61
377.36
461.026
476.604
623.916
760.007
738.192
80.9667
87.0649
89.8364
96.941
106.576
144.451
145.53
157.152
149.739
152.758
151.396
157.35
161.989
167.67
156.904
178.718
180.219
212.305
234.814
213.185
318.957
609.372
756.732
67.5228
71.6378
72.6563
74.4779
83.7614
95.6143
105.735
99.1027
93.5442
96.5014
98.4297
110.392
128.891
135.42
142.946
160.638
173.587
199.34
159.999
162.742
259.891
367.092
548.772
57.5272
61.768
63.2963
68.396
72.2173
74.6411
75.0915
73.1119
84.7571
103.693
116.307
136.334
161.799
181.174
205.009
230.324
226.833
232.59
203.31
233.896
286.576
326.593
381.153
47.6485
47.1388
51.3592
53.0264
56.965
55.4063
53.5133
61.6069
77.0581
91.6897
110.371
135.873
160.021
180.315
199.545
217.368
147.68
213.292
213.632
343.322
324.232
315.371
334.878
41.9859
39.9924
41.4322
41.6833
48.223
52.29
54.8224
66.704
87.6604
101.145
115.427
120.16
124.002
125.627
125.294
132.629
139.706
168.495
185.531
235.548
237.278
236.223
372.437
36.6843
35.2526
38.0526
41.8722
49.0504
53.5206
64.4032
73.8575
76.3945
69.3931
68.3175
57.5242
46.2785
43.6997
44.0209
46.6411
59.5328
62.9614
74.5778
94.0969
115.394
141.476
162.389
29.7444
29.2957
31.69
37.0464
46.4321
50.3332
53.8674
39.5463
48.5908
43.8804
46.3159
27.553
13.8759
9.86021
10.0718
13.3484
20.8606
25.784
33.1283
41.7897
52.4867
72.4581
85.593
24.5734
22.3055
28.2179
32.9425
30.3496
33.6779
37.9985
32.2829
31.983
28.3296
20.3599
8.85668
2.49977
1.19402
1.53118
3.38077
7.0955
11.0545
15.5465
20.8839
28.0321
38.3671
45.9005
19.9723
18.9667
22.8079
27.9932
26.387
20.5478
19.4276
20.0056
19.3525
13.0517
6.19013
1.40797
-0.232203
-0.426179
0.18254
1.81419
3.31223
5.90085
8.18922
10.5825
13.7562
18.6604
23.1522
14.7825
13.4799
14.926
13.9908
11.8969
9.81444
11.5457
15.0905
14.0447
4.65757
0.690022
-0.671638
-0.831476
-0.681583
0.120065
1.78707
2.81054
3.63434
4.60058
6.30172
9.03131
12.0344
12.9016
9.64949
9.0302
9.30745
7.56692
4.74311
3.44037
9.24608
14.163
9.04805
0.957578
-0.847437
-0.963878
-0.942903
-0.827555
-0.73148
-0.646044
-0.241751
0.150075
0.668804
1.21891
1.76041
3.03902
4.60802
7.87102
7.56391
6.8425
5.55395
3.19159
3.08182
9.4151
12.3216
5.23171
-0.280991
-1.13362
-1.02354
-0.947175
-0.828084
-0.759138
-0.739827
-0.742452
-0.726656
-0.588878
-0.358194
-0.272136
-0.0210317
0.634595
8.35185
6.67932
5.50138
4.63591
2.87543
4.82934
11.0185
11.3975
2.30214
-0.736548
-1.07089
-1.012
-1.02415
-0.920226
-0.825193
-0.821995
-0.795187
-0.744861
-0.692938
-0.695771
-0.667503
-0.657003
-0.593866
7.54574
4.92437
4.12294
3.37695
3.21568
7.16558
12.1564
9.4537
1.41263
-0.868666
-1.18077
-1.11919
-1.07421
-0.917369
-0.821195
-0.831571
-0.769621
-0.721243
-0.719945
-0.68575
-0.675081
-0.674582
-0.681253
6.32233
4.05786
4.41115
2.88152
5.14317
10.3876
12.0877
6.43826
0.526231
-0.838111
-1.04333
-1.17477
-1.05842
-0.9865
-0.99266
-0.820133
-0.822818
-0.772057
-0.711087
-0.688974
-0.672605
-0.660439
-0.626912
6.03896
4.33641
3.79254
4.91451
8.62282
13.1291
9.66487
3.04774
-0.0878227
-0.830214
-1.11297
-1.16902
-1.26827
-1.01084
-0.891834
-0.863736
-0.811357
-0.794362
-0.749163
-0.724816
-0.652869
-0.664308
-0.659432
6.29493
5.09886
4.04592
8.84559
9.08973
9.46278
6.50512
2.13799
0.0573088
-1.02008
-1.29085
-1.27557
-1.08537
-1.04656
-0.93191
-0.829084
-0.808585
-0.739632
-0.753032
-0.74618
-0.731776
-0.689458
-0.646755
7.52343
6.62586
9.14397
12.5577
10.3703
9.06526
5.02865
1.24811
-0.612544
-1.16555
-1.44611
-1.14701
-1.19751
-1.0848
-0.977533
-0.945593
-0.819737
-0.802465
-0.712445
-0.707006
-0.642019
-0.649281
-0.688306
8.70984
8.65862
11.7094
13.7722
11.4757
8.54767
4.50213
0.858877
-0.805871
-1.3747
-1.30342
-1.23509
-1.14067
-1.12135
-0.992704
-0.895632
-0.837957
-0.741061
-0.758837
-0.681517
-0.668138
-0.652336
-0.582802
9.16945
8.04873
12.6054
13.7383
11.4872
7.02239
3.36406
-0.370351
-1.37701
-1.65273
-1.43481
-1.23434
-1.10534
-0.928531
-0.94296
-0.815543
-0.927112
-0.780224
-0.684001
-0.691959
-0.673644
-0.651237
-0.607617
10.5442
8.70913
10.3052
13.9748
10.3372
7.00203
3.93353
0.371606
-0.813381
-1.3309
-1.40427
-1.1993
-1.06126
-0.973805
-0.986679
-0.778568
-0.832257
-0.813438
-0.691046
-0.656851
-0.647554
-0.603472
-0.552163
11.6034
9.97314
9.86989
11.9692
11.7651
7.12929
4.88094
1.67867
-0.218047
-1.04498
-1.31665
-1.16163
-0.976467
-0.868482
-0.818604
-0.766319
-0.828772
-0.740467
-0.573562
-0.63952
-0.725122
-0.657287
-0.58353
11.7449
10.0552
10.7328
9.08369
8.06184
7.68174
5.11486
1.03684
-0.690793
-1.05753
-1.1703
-1.03044
-0.962462
-0.795826
-0.757941
-0.784572
-0.724562
-0.70895
-0.55721
-0.56733
-0.685948
-0.617223
-0.550279
8.72823
9.05359
9.95341
8.43815
7.12417
5.81761
2.05904
-0.367206
-1.01222
-1.05264
-0.968857
-0.84534
-0.782099
-0.745688
-0.672519
-0.709308
-0.662282
-0.652059
-0.537359
-0.502792
-0.507822
-0.707517
-0.6305
7.60278
8.72522
8.66812
6.13574
4.41982
2.19244
0.0581621
-0.690345
-0.907598
-0.855446
-0.787276
-0.705634
-0.660199
-0.691794
-0.620806
-0.585112
-0.536782
-0.51998
-0.546337
-0.490577
-0.405859
-0.569962
-0.599562
9.26049
9.30745
7.70042
4.09275
1.78039
0.451068
-0.297744
-0.517246
-0.613845
-0.626334
-0.592668
-0.547655
-0.51311
-0.516031
-0.590114
-0.509811
-0.480226
-0.465187
-0.459357
-0.482149
-0.415006
-0.446822
-0.580924
7.00766
6.41304
4.53972
2.0848
0.766408
0.162459
-0.136157
-0.245673
-0.329453
-0.364858
-0.41064
-0.380936
-0.411468
-0.356998
-0.559036
-0.475282
-0.453951
-0.356233
-0.386224
-0.492066
-0.389796
-0.42217
-0.579787
2.76683
2.59227
1.80141
0.870221
0.425453
0.207896
0.0477511
-0.0464495
-0.134806
-0.194161
-0.258988
-0.243002
-0.297383
-0.276173
-0.521773
-0.491161
-0.291356
-0.305125
-0.417184
-0.437062
-0.340925
-0.295652
-0.449187
1.12938
1.11884
0.871689
0.562218
0.401245
0.29204
0.182168
0.0889667
0.00412712
-0.0652275
-0.133847
-0.15324
-0.208849
-0.286395
-0.310259
-0.290602
-0.236806
-0.4303
-0.307801
-0.279208
-0.430714
-0.287187
-0.386967
0.692368
0.699205
0.62076
0.498851
0.409321
0.322589
0.236457
0.152226
0.0773504
0.0073266
-0.0465689
-0.0808954
-0.0259358
-0.256768
-0.27366
-0.23314
-0.320187
-0.248497
-0.255541
-0.278391
-0.309786
-0.285746
-0.293991
0.548986
0.552121
0.514804
0.452891
0.391136
0.323431
0.257681
0.18773
0.127919
0.0617323
0.0242703
0.0063495
-0.030781
-0.256049
-0.241373
-0.135029
-0.210468
-0.219428
-0.237928
-0.176154
-0.299266
-0.316898
-0.234473
0.458539
0.457276
0.431271
0.392279
0.347057
0.293602
0.240513
0.181119
0.119757
0.0517865
0.0753002
0.0533759
-0.0892311
-0.245169
-0.0630371
-0.111035
-0.131916
-0.204574
-0.202899
-0.225999
-0.164196
-0.30558
-0.28761
0.368966
0.366374
0.348233
0.323694
0.294816
0.261335
0.223823
0.191392
0.144334
0.133103
0.0622639
0.0837615
-0.117037
-0.109659
-0.0470282
-0.0688472
-0.162444
-0.15546
-0.197308
-0.16514
-0.152533
-0.197677
-0.14226
0.286342
0.285062
0.271739
0.253178
0.234868
0.213651
0.182835
0.164096
0.113184
0.113187
0.013529
-0.0312668
-0.0954546
-0.025313
-0.0334007
-0.0752766
-0.0995131
-0.0814068
-0.111491
-0.0937674
-0.148374
-0.197065
-0.0885307
0.197825
0.196532
0.194109
0.179327
0.172083
0.1653
0.142397
0.144951
0.0692743
0.0418711
0.0143287
-0.0193967
-0.0157808
0.00687326
-0.0450435
-0.0449817
-0.0432306
-0.053287
-0.079491
-0.0513649
-0.128301
-0.162567
-0.0978872
0.128945
0.128867
0.124689
0.113805
0.106487
0.0982057
0.0805127
0.0696352
0.0528236
0.065717
0.0437019
0.0526715
0.0196927
0.0378819
-0.0217174
-0.0401354
-0.0246554
-0.0273154
-0.0704909
-0.0516041
-0.04602
-0.137178
-0.104816
-0.0229715
0.0214331
0.0372844
-0.0185966
0.0559935
0.073915
0.0328563
0.00414665
0.0278571
0.0209279
0.028903
0.00973921
0.0210341
-0.011688
-0.000942682
-0.0269345
-0.00849478
-0.0257597
-0.0419512
-0.0233224
-0.0438337
-0.0710359
-0.0663197
0.117373
0.0344182
0.0157501
0.10808
0.00133373
-0.0264658
-0.0164233
0.0866828
0.00736561
0.0703962
0.0579786
0.0448435
-0.00600128
0.0182038
-0.000263522
-0.00498019
-0.0122768
-0.00649499
-0.0133602
-0.0193945
-0.0268365
-0.090899
-0.0598568
676.078
601.818
491.064
442.985
425.774
327.7
307.163
300.098
453.392
344.483
337.237
364.925
470.378
396.491
365.16
405.39
662.037
531.595
490.205
498.088
668.272
684.983
640.379
685.545
474.002
527.494
534.417
564.622
412.001
469.239
499.093
542.533
400.496
434.48
440.354
456.49
181.158
201.985
218.691
250.23
96.2932
107.621
123.215
145.221
52.8746
57.8318
63.6221
72.7098
24.7021
24.4051
25.3737
25.1934
13.4913
13.5511
13.2948
13.2212
5.51204
5.67449
5.27438
4.69611
1.20714
1.4435
1.49297
1.36661
-0.463442
-0.344821
-0.226935
-0.116682
-0.678169
-0.673225
-0.670704
-0.653734
-0.635341
-0.632761
-0.63569
-0.640369
-0.65597
-0.661217
-0.649098
-0.617866
-0.62722
-0.61243
-0.627594
-0.647801
-0.688549
-0.658221
-0.613496
-0.67896
-0.645142
-0.634858
-0.639824
-0.660826
-0.677218
-0.657274
-0.656687
-0.656071
-0.641896
-0.59429
-0.581372
-0.591478
-0.62138
-0.633591
-0.590219
-0.576558
-0.528758
-0.550544
-0.586111
-0.57455
-0.533906
-0.539438
-0.535927
-0.5207
-0.53966
-0.525354
-0.538274
-0.502751
-0.507353
-0.501913
-0.507077
-0.564465
-0.55262
-0.516011
-0.487839
-0.461894
-0.491835
-0.493835
-0.526633
-0.452358
-0.361976
-0.366416
-0.340143
-0.389831
-0.303871
-0.293954
-0.410628
-0.406903
-0.308107
-0.327421
-0.413569
-0.473598
-0.258785
-0.330238
-0.308809
-0.35686
-0.247608
-0.255476
-0.180866
-0.173262
-0.212249
-0.220403
-0.232863
-0.199598
-0.179463
-0.184527
-0.231738
-0.185746
-0.102487
-0.16847
-0.160743
-0.203704
-0.0719768
-0.116696
-0.146243
-0.168898
-0.110261
-0.130597
-0.106153
-0.121447
423.658
370.667
307.213
308.533
426.319
716.654
781.706
794.928
757.799
789.805
587.686
758.469
748.894
809.362
692.631
589.279
552.719
632.468
941.535
277.052
288.371
315.169
355.423
558.334
793.37
703.154
707.339
660.534
597.329
359.784
427.764
523.04
595.458
588.474
577.112
545.48
659.107
995.445
314.177
258.124
375.037
529.767
568.41
625.979
575.595
511.224
390.837
342.956
216.002
230.297
403.864
523.868
585.447
567.081
578.733
608.445
720.689
424.898
368.302
564.224
698.19
638.195
611.046
513.918
392.027
253.568
188.423
156.329
192.167
380.321
486.493
546.281
544.077
691.888
829.013
884.685
550.182
638.789
775.034
633.718
548.613
481.568
499.227
252.286
151.21
119.639
123.426
226.399
361.855
414.677
483.233
539.244
736.3
1032.43
1220.72
736.736
676.235
570.773
529.742
497.786
484.674
359.7
167.141
123.301
122.906
164.32
283.789
391.882
418.631
436.771
549.491
884.508
933.817
1183.36
621.723
584.231
606.816
586.15
455.221
317.267
240.215
160.325
208.394
222.514
239.559
291.337
412.838
383.817
419.77
665.546
897.372
1055.23
993.819
626.568
535.65
568.63
517.711
260.653
184.457
185.766
178.672
249.599
312.617
226.975
284.436
367.306
411.461
444.872
726.935
920.55
1222.65
1130.14
534.941
517.99
493.144
371.933
278.269
206.693
183.848
210.436
259.922
311.569
347.061
377.912
449.15
525.029
613.641
701.881
819.772
962.593
1095.65
331.738
362.924
418.762
482.354
355.266
239.143
200.668
198.632
295.152
436.299
585.222
666.381
709.267
711.572
699.534
569.712
724.496
933.825
1130.53
191.311
263.032
339.823
517.524
543.135
527.971
394.305
312.154
388.235
486.138
604.165
623.907
566.727
497.88
476.444
464.003
695.405
992.545
1146.05
98.7591
161.347
264.591
398.575
472.996
528.267
541.48
528.924
510.461
471.37
385.537
293.432
301.002
334.888
320.045
424.756
657.565
873.131
1082.84
27.2642
40.4506
84.3928
159.774
218.648
256.813
268.029
269.63
245.264
197.549
156.464
166.912
171.495
202.094
220.617
299.378
511.116
736.125
918.799
15.0867
22.5846
40.4365
57.3027
76.9633
91.2865
90.0867
101.771
114.07
90.0214
72.5321
92.7382
95.3008
114.538
145.697
187.712
307.157
545.243
750.785
4.55541
6.28316
13.8079
20.6883
31.0194
39.7641
40.1772
45.8327
49.1273
40.8062
37.3835
45.8866
53.863
66.6679
99.8005
133.54
268.507
398.032
507.05
1.30724
1.99193
4.60683
8.89376
17.1756
20.6868
21.4667
20.932
19.4474
16.3373
16.4651
20.9425
27.8539
31.7944
60.2677
92.3843
204.584
319.404
416.219
0.0913512
0.615335
2.50249
4.97562
9.43463
9.1391
9.79692
9.41287
7.07232
5.99576
7.26726
9.87018
12.2661
18.39
36.4083
66.4483
153.403
266.55
369.817
-0.58055
-0.382689
0.0356142
1.17648
3.89573
2.19821
3.32315
3.75586
2.78522
1.9023
2.25316
3.10927
3.79013
6.26298
13.4111
30.2968
84.9526
199.455
313.767
-0.663293
-0.589264
-0.603285
-0.240879
0.838579
0.0696209
0.554505
0.931111
0.557855
0.298189
0.583957
0.890661
0.974233
1.80466
4.29733
13.4941
55.5353
161.172
281.628
-0.726006
-0.700756
-0.637139
-0.655183
-0.484894
-0.63802
-0.499538
-0.137227
-0.243606
-0.248519
-0.193775
-0.220529
-0.0900939
0.229071
0.930529
6.71037
45.9159
154.71
266.029
-0.666053
-0.669354
-0.527337
-0.605592
-0.563057
-0.884706
-0.880342
-0.483824
-0.481373
-0.51387
-0.409132
-0.43988
-0.31072
-0.382696
-0.0105353
4.78671
41.057
145.197
235.084
-0.657298
-0.628038
-0.532319
-0.550676
-0.805555
-0.871146
-0.857193
-0.678085
-0.54658
-0.504496
-0.553635
-0.437594
-0.42902
-0.403864
-0.226236
4.17695
35.4855
123.124
213.359
-0.666323
-0.541476
-0.508091
-0.563009
-0.497185
-0.749728
-0.680669
-0.69475
-0.559347
-0.519646
-0.574547
-0.50687
-0.505873
-0.352392
-0.180762
3.68405
26.311
94.0907
206.038
-0.626073
-0.559291
-0.496579
-0.541894
-0.59969
-0.693507
-0.622106
-0.510926
-0.521322
-0.453067
-0.521585
-0.397814
-0.459239
-0.408359
-0.211167
2.47783
17.3794
78.0542
198.418
-0.666091
-0.571626
-0.49748
-0.519577
-0.457671
-0.612818
-0.623585
-0.448231
-0.422441
-0.478678
-0.509272
-0.38035
-0.282673
-0.379032
-0.0882728
1.88276
14.6486
75.4868
195.15
-0.565576
-0.496304
-0.493898
-0.469384
-0.491204
-0.546888
-0.555112
-0.460264
-0.440609
-0.420237
-0.348542
-0.375765
-0.269521
-0.397061
-0.0161171
1.84734
15.3067
77.7993
194.178
-0.593509
-0.47786
-0.484503
-0.41651
-0.530345
-0.500838
-0.414514
-0.419132
-0.44239
-0.402007
-0.366079
-0.320193
-0.249406
-0.219576
0.00568337
1.76035
16.1305
79.808
191.508
-0.507953
-0.491208
-0.375806
-0.427063
-0.472792
-0.555153
-0.432054
-0.463826
-0.405047
-0.360624
-0.382596
-0.291163
-0.241957
-0.194851
-0.00620444
1.81543
15.5865
77.0503
180.59
-0.443601
-0.476818
-0.450981
-0.363398
-0.512715
-0.515986
-0.363212
-0.485173
-0.39718
-0.31527
-0.308645
-0.354566
-0.253834
-0.159008
-0.00152426
1.53623
13.7071
69.8658
161.042
-0.381209
-0.409762
-0.392191
-0.361249
-0.413212
-0.394299
-0.417179
-0.502503
-0.42637
-0.293786
-0.261796
-0.310528
-0.295951
-0.123609
0.0499279
1.10659
12.3801
63.7426
136.31
-0.36601
-0.416185
-0.44042
-0.41896
-0.283601
-0.359576
-0.4719
-0.509131
-0.346031
-0.295553
-0.261806
-0.266613
-0.263246
-0.15727
-0.224116
0.668865
11.402
56.5447
109.65
-0.458688
-0.352746
-0.381043
-0.38972
-0.377044
-0.376232
-0.384741
-0.394365
-0.377852
-0.366942
-0.216828
-0.263029
-0.260611
-0.31261
-0.245718
1.1431
12.0962
46.0289
87.9152
-0.389775
-0.302108
-0.373629
-0.328699
-0.439109
-0.43462
-0.410553
-0.252693
-0.392062
-0.42885
-0.152252
-0.225176
-0.182546
-0.335408
-0.137397
1.38974
10.5082
34.1309
71.0699
-0.380997
-0.27804
-0.344585
-0.312055
-0.424023
-0.374888
-0.518909
-0.192156
-0.338602
-0.327281
-0.257846
-0.174562
-0.380608
-0.341286
-0.293021
0.82862
6.58399
24.1715
58.5057
-0.3643
-0.263828
-0.289334
-0.382937
-0.423062
-0.504736
-0.623624
-0.253554
-0.316011
-0.351286
-0.258021
-0.233955
-0.204699
-0.356547
-0.360655
0.124234
2.855
17.1422
49.1144
-0.259773
-0.399333
-0.271904
-0.37314
-0.320235
-0.461454
-0.507826
-0.259315
-0.282663
-0.462067
-0.317426
-0.233023
-0.276963
-0.32192
-0.499712
0.174783
2.77193
14.0913
42.307
-0.352062
-0.428534
-0.296589
-0.25003
-0.445996
-0.55475
-0.508307
-0.271606
-0.247644
-0.586638
-0.47087
-0.185057
-0.181902
-0.459395
-0.443008
0.0530422
0.892256
7.5963
37.1859
-0.268728
-0.213067
-0.261033
-0.280388
-0.331901
-0.355319
-0.314674
-0.140558
-0.22135
-0.393524
-0.257962
-0.280299
-0.138184
-0.312634
-0.381016
-0.0661205
0.561812
8.01945
40.4903
-0.159516
-0.220396
-0.272709
-0.152333
-0.238771
-0.142462
-0.203541
-0.0628935
-0.190197
-0.197488
-0.309394
-0.0902093
-0.256241
-0.260062
-0.24751
-0.108554
0.488094
6.87855
34.8844
-0.203079
-0.295809
-0.446491
-0.499054
-0.252926
-0.25559
-0.0390284
-0.0385215
-0.00894335
-0.0588068
-0.12874
-0.103548
-0.165409
-0.282277
-0.243735
-0.0862222
0.13133
4.64343
28.4047
-0.202693
-0.242084
-0.411698
-0.404012
-0.382116
-0.201191
-0.0483232
-0.0243219
0.00891894
-0.0227545
-0.0457366
-0.0707428
-0.111893
-0.10599
-0.0630031
-0.120871
-0.0298995
1.39236
15.6873
-0.171915
-0.434349
-0.184092
-0.179119
-0.142215
-0.111882
-0.0130061
0.0623959
0.0296017
0.0301993
-0.0177309
-0.0269685
-0.0539842
-0.0796497
-0.0488495
-0.0399069
-0.137866
-0.646334
4.04134
)
;

boundaryField
{
    leftWall
    {
        type            zeroGradient;
    }
    rightWall
    {
        type            zeroGradient;
    }
    lowerWall
    {
        type            zeroGradient;
    }
    atmosphere
    {
        type            totalPressure;
        rho             rho;
        psi             none;
        gamma           1;
        p0              uniform 0;
        value           nonuniform List<scalar> 
46
(
0
0
0
0
0
0
0
0
0
0
0
0
0
0
0
0
0
0
-0.00402512
-0.00744927
-0.0193334
-0.0621407
-0.0477326
-0.0726861
-0.102514
-0.110417
-0.114092
-0.165566
-0.322818
-0.284378
-0.224612
-0.19918
-0.143759
-0.0242368
-0.00167628
-0.0026833
-0.00928406
-0.0118191
-0.00958642
-0.000132582
0
0
0
0
-0.00551463
0
)
;
    }
    defaultFaces
    {
        type            empty;
    }
}


// ************************************************************************* //
