/*--------------------------------*- C++ -*----------------------------------*\
| =========                 |                                                 |
| \\      /  F ield         | foam-extend: Open Source CFD                    |
|  \\    /   O peration     | Version:     4.1                                |
|   \\  /    A nd           | Web:         http://www.foam-extend.org         |
|    \\/     M anipulation  |                                                 |
\*---------------------------------------------------------------------------*/
FoamFile
{
    version     2.0;
    format      ascii;
    class       surfaceScalarField;
    location    "0.65";
    object      phi;
}
// * * * * * * * * * * * * * * * * * * * * * * * * * * * * * * * * * * * * * //

dimensions      [0 3 -1 0 0 0 0];

internalField   nonuniform List<scalar> 
4432
(
5.99661e-08
-5.99661e-08
-1.50725e-06
1.56721e-06
-2.93942e-06
1.43217e-06
-3.35895e-06
4.19528e-07
-4.34621e-06
9.87248e-07
-5.47546e-06
1.12925e-06
-6.11155e-06
6.36087e-07
-6.60872e-06
4.97167e-07
-7.29369e-06
6.84961e-07
-7.80946e-06
5.15767e-07
-6.31788e-06
-1.49158e-06
-8.52041e-06
2.20252e-06
-7.31582e-06
-1.20459e-06
-6.54655e-06
-7.69262e-07
-5.66662e-06
-8.7993e-07
-5.26332e-06
-4.03302e-07
-5.14172e-06
-1.21604e-07
-3.253e-06
-1.88871e-06
-5.50962e-06
2.25662e-06
-3.39108e-06
-2.11854e-06
-2.69172e-06
-6.99356e-07
-1.18078e-06
-1.51093e-06
-1.18079e-06
-9.64546e-08
3.64833e-08
-1.14369e-06
2.61443e-06
-1.99208e-06
2.28056e-06
-3.2637e-06
1.69114e-06
-4.45102e-06
2.17456e-06
-5.47882e-06
2.15704e-06
-5.96106e-06
1.11831e-06
-6.36955e-06
9.05653e-07
-6.2078e-06
5.23202e-07
-5.48959e-06
-2.02445e-07
-8.00729e-06
1.02612e-06
-6.45927e-06
6.54494e-07
-6.06404e-06
-1.59982e-06
-5.1432e-06
-1.69011e-06
-3.91863e-06
-2.1045e-06
-3.48251e-06
-8.39421e-07
-1.52536e-06
-2.07875e-06
-3.07647e-06
-3.37591e-07
-1.82294e-06
1.00309e-06
-2.0485e-06
-1.89298e-06
-1.80604e-06
-9.4181e-07
7.25952e-08
-3.38957e-06
-1.10819e-06
-7.32146e-07
7.68625e-07
-1.2925e-06
3.17478e-06
-1.84243e-06
2.83049e-06
-3.19575e-06
3.04445e-06
-4.3937e-06
3.37251e-06
-5.14188e-06
2.90521e-06
-5.61866e-06
1.5951e-06
-6.0052e-06
1.29219e-06
-6.46667e-06
9.84665e-07
-6.61956e-06
-4.95533e-08
-1.0135e-05
4.5416e-06
-8.77889e-06
-7.01657e-07
-8.91102e-06
-1.46768e-06
-8.39931e-06
-2.20182e-06
-7.59699e-06
-2.90681e-06
-3.47638e-06
-4.96003e-06
-4.61813e-06
-9.36996e-07
-4.04767e-06
-9.08047e-07
-3.75003e-06
7.05455e-07
-1.52684e-06
-4.11616e-06
-2.90278e-06
4.3413e-07
-2.50166e-07
-6.04218e-06
-1.35836e-06
-1.25921e-06
2.02783e-06
-1.22015e-06
3.13573e-06
-1.68834e-06
3.29868e-06
-2.9697e-06
4.32581e-06
-4.02057e-06
4.42339e-06
-5.24477e-06
4.12941e-06
-6.43908e-06
2.78941e-06
-6.46433e-06
1.31744e-06
-6.331e-06
8.51338e-07
-1.17578e-05
5.37729e-06
-1.25621e-05
5.34588e-06
-1.44473e-05
1.18357e-06
-1.56214e-05
-2.93648e-07
-1.50176e-05
-2.80558e-06
-1.36431e-05
-4.28133e-06
-1.17788e-05
-6.82428e-06
-1.03686e-05
-2.34719e-06
-9.5161e-06
-1.76058e-06
-8.10765e-06
-7.02999e-07
-3.20789e-06
-9.01591e-06
-4.64343e-06
1.86967e-06
2.64467e-08
-1.07121e-05
-1.33191e-06
-6.44193e-07
2.67203e-06
-1.14839e-06
3.63992e-06
-1.67382e-06
3.82412e-06
-2.81583e-06
5.46782e-06
-4.2386e-06
5.84616e-06
-6.02774e-06
5.91856e-06
-7.0905e-06
3.85217e-06
-1.29937e-05
7.2207e-06
-1.42553e-05
2.11287e-06
-1.57628e-05
6.88479e-06
-1.77157e-05
7.29885e-06
-2.03075e-05
3.77532e-06
-2.10767e-05
4.75522e-07
-2.0701e-05
-3.18127e-06
-2.02192e-05
-4.7631e-06
-1.85379e-05
-8.50559e-06
-1.65735e-05
-4.31154e-06
-1.61941e-05
-2.13998e-06
-1.47576e-05
-2.13957e-06
-1.07135e-05
-1.306e-05
-4.23508e-06
-4.60872e-06
-9.50071e-07
-1.39971e-05
-2.28198e-06
-2.19903e-07
2.89193e-06
-9.0144e-07
4.32147e-06
-1.75966e-06
4.68236e-06
-3.03959e-06
6.74775e-06
-4.54664e-06
7.35322e-06
-6.2373e-06
7.60922e-06
-7.73086e-06
5.34573e-06
-8.83662e-06
8.32647e-06
-1.92418e-05
1.2518e-05
-2.19244e-05
9.56737e-06
-2.40339e-05
9.40837e-06
-2.50006e-05
4.742e-06
-2.52925e-05
7.67499e-07
-2.43969e-05
-4.07685e-06
-2.27217e-05
-6.43832e-06
-2.16754e-05
-9.55189e-06
-2.17558e-05
-4.23111e-06
-1.21487e-05
-1.17471e-05
-1.08758e-05
-3.41254e-06
-1.51845e-05
-8.75129e-06
-5.41072e-06
-1.43825e-05
-1.11751e-06
-1.82903e-05
-3.39949e-06
-3.71733e-07
3.26367e-06
-1.76946e-06
5.7192e-06
-3.99719e-06
6.9101e-06
-6.66642e-06
9.41699e-06
-1.04514e-05
1.11382e-05
-1.4988e-05
1.21458e-05
-1.98823e-05
1.02401e-05
-2.32533e-05
1.16974e-05
-2.51218e-05
1.43866e-05
-2.63147e-05
1.07603e-05
-2.73823e-05
1.04759e-05
-2.74683e-05
4.82803e-06
-2.74478e-05
7.46943e-07
-2.67514e-05
-4.77324e-06
-2.49423e-05
-8.24744e-06
-2.31273e-05
-1.13669e-05
-2.31789e-05
-4.17949e-06
-2.45504e-05
-1.03756e-05
-1.23502e-05
-1.56128e-05
-9.31433e-06
-1.17871e-05
-6.53954e-06
-1.71573e-05
-1.7987e-06
-2.30311e-05
-5.1982e-06
-9.45429e-07
4.20911e-06
-2.46165e-06
7.23543e-06
-6.49073e-06
1.09392e-05
-9.63703e-06
1.25633e-05
-1.30952e-05
1.45964e-05
-1.80375e-05
1.70881e-05
-2.48137e-05
1.70163e-05
-2.84784e-05
1.53622e-05
-2.96249e-05
1.55331e-05
-3.05227e-05
1.16581e-05
-3.06365e-05
1.05897e-05
-2.99454e-05
4.13686e-06
-2.92064e-05
7.98148e-09
-2.7783e-05
-6.19664e-06
-2.54909e-05
-1.05396e-05
-2.35858e-05
-1.3272e-05
-1.31019e-05
-1.46634e-05
-1.29438e-05
-1.05337e-05
-1.24231e-05
-1.61335e-05
-2.14285e-05
-2.78166e-06
-1.28343e-05
-2.57515e-05
-2.19494e-06
-3.36705e-05
-7.39314e-06
-0.000103483
0.000103483
-0.000189554
8.60713e-05
-0.00021222
2.26661e-05
-0.000228427
1.62062e-05
-0.000215733
-1.26933e-05
-0.000199739
-1.59941e-05
-0.000180596
-1.91431e-05
-0.000167169
-1.34276e-05
-0.000147549
-1.96196e-05
-0.000138737
-8.81181e-06
-0.000143771
5.03443e-06
-0.000155822
1.20506e-05
-0.000171991
1.61685e-05
-0.000162
-9.99004e-06
-0.000103369
-5.8631e-05
-9.3599e-05
-9.77045e-06
-0.000134507
4.0908e-05
-7.88148e-05
-5.56922e-05
-7.88148e-05
-9.32358e-05
0.000196719
-0.000161975
0.00015481
-0.000167665
2.83569e-05
-0.000164078
1.26189e-05
-0.00013129
-4.54811e-05
-0.000103856
-4.34283e-05
-8.286e-05
-4.01391e-05
-8.09549e-05
-1.53326e-05
-9.32271e-05
-7.34743e-06
-0.00011274
1.07011e-05
-0.00013218
2.44744e-05
-0.00016201
4.18803e-05
-0.000106547
-3.92938e-05
-0.000100074
-1.64638e-05
-0.000108583
-5.01213e-05
-0.000103416
-1.49376e-05
-8.08602e-05
1.83519e-05
-7.72693e-05
-5.92831e-05
-0.000156084
-7.59297e-05
0.000272649
-0.000130075
0.000208956
-0.000122952
2.12332e-05
-7.10757e-05
-3.9257e-05
-9.06767e-05
-2.58801e-05
-6.66826e-05
-6.74224e-05
-4.88513e-05
-5.79704e-05
-2.26906e-05
-4.14934e-05
2.11115e-06
-3.21491e-05
-1.25316e-05
2.53438e-05
-6.55804e-05
7.75231e-05
-0.000116118
9.24176e-05
-0.000156119
7.07005e-07
-9.35607e-05
-7.90216e-05
-0.000102527
-4.11553e-05
-9.49414e-05
-2.25228e-05
-7.11681e-05
-5.4215e-06
-5.91242e-05
-7.1327e-05
-0.000215208
-5.60484e-05
0.000328697
-8.53801e-05
0.000238287
-7.63984e-05
1.22515e-05
-9.06753e-05
-2.49802e-05
-6.68141e-05
-4.97413e-05
-3.94656e-05
-9.47709e-05
-1.05568e-05
-8.68792e-05
-1.09176e-06
-5.09585e-05
2.53026e-05
-5.85435e-05
1.83055e-05
3.23409e-05
-4.82209e-08
9.58768e-05
-1.00127e-05
0.000102382
-4.80348e-05
3.8729e-05
-8.88284e-05
-3.82279e-05
-7.32602e-05
-5.67235e-05
-0.00012287
2.70867e-05
-6.07192e-05
-6.75721e-05
-5.29226e-05
-7.91236e-05
-0.000268131
-4.27075e-05
0.000371404
-5.59011e-05
0.000251481
-5.37059e-05
1.00563e-05
-6.42601e-05
-1.44259e-05
-3.93008e-05
-7.47007e-05
-1.80301e-05
-0.000116042
8.18217e-06
-0.000113091
2.1091e-05
-6.38673e-05
3.4067e-05
-7.15195e-05
6.89933e-05
-2.58531e-06
9.45347e-05
7.03354e-05
4.54009e-05
0.000151516
2.4996e-05
5.91338e-05
-1.7989e-05
4.75711e-06
-5.72866e-05
-1.74259e-05
-5.93692e-05
2.91694e-05
-5.43026e-05
-7.26387e-05
-2.10204e-05
-0.000112406
-0.000289151
-3.01242e-05
0.000401529
-4.05049e-05
0.000261862
-4.71832e-05
1.67346e-05
-5.73412e-05
-4.26795e-06
-1.68269e-05
-0.000115215
-2.21515e-06
-0.000130653
2.21363e-05
-0.000137443
3.4119e-05
-7.585e-05
4.78296e-05
-8.52301e-05
7.814e-05
-3.28958e-05
5.38347e-05
9.46407e-05
5.88769e-05
0.000146474
6.16482e-05
5.63625e-05
-7.95338e-06
7.43587e-05
-4.55125e-05
2.01332e-05
-5.11488e-05
3.48058e-05
-4.37618e-05
-8.00258e-05
-1.40536e-05
-0.000142114
-0.000303205
-2.22934e-05
0.000423822
-2.40989e-05
0.000263667
-3.57653e-05
2.8401e-05
-2.1702e-05
-1.83313e-05
-8.14198e-06
-0.000128775
1.29305e-05
-0.000151726
1.69537e-05
-0.000141466
4.29915e-05
-0.000101888
5.64579e-05
-9.86964e-05
8.16535e-05
-5.80914e-05
9.9831e-05
7.64632e-05
0.000106012
0.000140292
9.37847e-05
6.85902e-05
6.07666e-05
0.000107377
-9.66387e-06
9.05636e-05
-3.90504e-05
6.41923e-05
-7.16955e-05
-4.73808e-05
-2.38673e-05
-0.000189942
-0.000327072
-1.35137e-05
0.000437336
3.81531e-06
0.000246338
-6.94881e-07
3.29112e-05
-8.50815e-07
-1.81753e-05
9.18045e-06
-0.000138806
1.66197e-05
-0.000159165
2.18367e-05
-0.000146683
4.51578e-05
-0.000125209
5.8377e-05
-0.000111916
4.68835e-05
-4.65979e-05
5.87337e-05
6.4613e-05
0.000106192
9.2834e-05
9.79285e-05
7.68538e-05
7.14214e-05
0.000133884
1.63166e-05
0.000145668
-1.74397e-05
9.79487e-05
-2.46284e-05
-4.01922e-05
-2.06085e-05
-0.000193962
-0.000347681
-6.43819e-06
1.06473e-05
-1.47099e-05
1.55071e-05
-2.02083e-05
1.64376e-05
-4.05867e-05
3.29417e-05
-4.52869e-05
1.92966e-05
-5.65863e-05
2.83875e-05
-6.81862e-05
2.86161e-05
-7.14748e-05
1.86507e-05
-7.24599e-05
1.65182e-05
-7.16702e-05
1.08684e-05
-7.00863e-05
9.00584e-06
-6.46643e-05
-1.28514e-06
-6.17572e-05
-2.89909e-06
-6.0102e-05
-7.8519e-06
-5.4897e-05
-1.57445e-05
-4.99289e-05
-1.82401e-05
-5.08679e-05
-1.37244e-05
-4.45767e-05
-1.68249e-05
-4.64531e-05
-1.42571e-05
-2.86181e-05
-2.06166e-05
-2.04378e-05
-3.39318e-05
-4.21478e-06
-4.98935e-05
-5.39302e-05
4.23223e-05
-2.04407e-05
3.1088e-05
-4.2248e-05
3.73144e-05
-4.87901e-05
2.29797e-05
-4.63918e-05
3.05434e-05
-8.72397e-05
6.01445e-05
-9.03308e-05
3.14786e-05
-9.11693e-05
2.94546e-05
-7.91415e-05
6.62297e-06
-7.13091e-05
8.68578e-06
-6.76218e-05
7.1811e-06
-6.6895e-05
8.27904e-06
-6.46212e-05
-3.55892e-06
-5.78617e-05
-9.65861e-06
-5.13002e-05
-1.44134e-05
-4.98892e-05
-1.71555e-05
-4.79008e-05
-2.02285e-05
-4.05684e-05
-2.10568e-05
-4.38406e-05
-1.35527e-05
-2.1482e-05
-3.66157e-05
-2.47372e-05
-1.73615e-05
-2.5989e-05
-3.26799e-05
-1.55852e-05
-6.02974e-05
-4.73334e-05
-2.2182e-05
-4.01861e-05
7.12741e-05
-7.13088e-05
6.84371e-05
-0.000126464
7.81345e-05
-0.000131882
3.5962e-05
-8.66035e-05
1.48658e-05
-7.53101e-05
2.01853e-05
-6.45202e-05
1.86646e-05
-7.75904e-05
1.96932e-05
-7.19329e-05
3.02824e-06
-6.63875e-05
1.63575e-06
-4.48339e-05
-1.32745e-05
-6.05751e-05
1.21823e-05
-5.27687e-05
-1.74651e-05
-5.29246e-05
-1.42575e-05
-5.29069e-05
-1.71731e-05
-5.11198e-05
-2.20156e-05
-5.06398e-05
-2.15368e-05
-3.11564e-05
-3.30361e-05
-5.62569e-05
-1.15152e-05
-4.30087e-05
-3.06097e-05
-3.7849e-05
-3.78396e-05
-4.22364e-05
-5.591e-05
-4.70607e-05
-4.25091e-05
-9.01787e-05
0.000161453
-0.000141028
0.000119287
-0.000150103
8.72091e-05
-0.000143156
2.9015e-05
-0.000115126
-1.31641e-05
-9.80514e-05
3.11098e-06
-8.24866e-05
3.09972e-06
-9.65758e-05
3.37825e-05
-9.46588e-05
1.11122e-06
-9.09949e-05
-2.02817e-06
-9.31555e-05
-1.11139e-05
-6.26928e-05
-1.82805e-05
-7.73588e-05
-2.79903e-06
-7.31646e-05
-1.84517e-05
-7.81281e-05
-1.22097e-05
-8.03534e-05
-1.97903e-05
-8.08676e-05
-2.10226e-05
-8.2213e-05
-3.16907e-05
-8.69931e-05
-6.73506e-06
-0.000101173
-1.64299e-05
-9.72406e-05
-4.17719e-05
-0.000102719
-5.04316e-05
-1.99181e-05
-0.000129862
-8.93893e-05
0.000250842
-0.000122304
0.000152201
-8.30367e-05
4.79422e-05
-9.74445e-05
4.34227e-05
-0.00011782
7.21097e-06
-0.000155534
4.08258e-05
-0.000157452
5.01688e-06
-0.000146676
2.30072e-05
-0.000146942
1.37645e-06
-0.000140618
-8.35184e-06
-0.000132073
-1.9659e-05
-0.000133451
-1.69023e-05
-0.000130792
-5.45825e-06
-0.000127252
-2.19912e-05
-9.86629e-05
-4.07992e-05
-9.35457e-05
-2.49074e-05
-8.36556e-05
-3.09128e-05
-0.000102569
-1.2777e-05
-0.000100494
-8.8107e-06
-8.70739e-05
-2.98495e-05
-7.81379e-05
-5.07079e-05
-0.000117772
-1.07972e-05
2.13586e-06
-0.000139826
-5.4961e-05
0.000305803
-8.2174e-05
0.000179414
-0.000126766
9.25341e-05
-0.000101636
1.82928e-05
-0.000115465
2.10399e-05
-0.000109941
3.53015e-05
-0.000150599
4.56755e-05
-0.000146229
1.86371e-05
-0.00016942
2.45674e-05
-0.0001882
1.04285e-05
-0.000210268
2.40905e-06
-0.000227235
6.44904e-08
-0.000227784
-4.90967e-06
-0.000238766
-1.10087e-05
-0.000259763
-1.98025e-05
-0.000253566
-3.11044e-05
-0.000256031
-2.8448e-05
-0.000239813
-2.89953e-05
-0.000161585
-8.70386e-05
-0.000139786
-5.16483e-05
-0.000166807
-2.36865e-05
-0.000154743
-2.28621e-05
4.58338e-06
-0.00015719
-6.93062e-05
0.00037511
-6.22702e-05
0.000172378
-0.000116229
0.000146493
-0.000185781
8.78447e-05
-0.000251606
8.68653e-05
-0.000305325
8.90209e-05
-0.000388921
0.000129271
-0.000434105
6.38215e-05
-0.000466638
5.70997e-05
-0.000494093
3.78834e-05
-0.00050583
1.41461e-05
-0.000499172
-6.59339e-06
-0.000477423
-2.66583e-05
-0.000448689
-3.97429e-05
-0.000424879
-4.36128e-05
-0.00040575
-5.02333e-05
-0.000407931
-2.62671e-05
-0.000392044
-4.48818e-05
-0.000386247
-9.28358e-05
-0.000346185
-9.17105e-05
-0.000320242
-4.96289e-05
-0.000297724
-4.53803e-05
-2.75165e-05
-0.000265624
-3.83405e-05
0.00041345
-5.69046e-05
0.000190942
-0.000103292
0.000192881
-0.000157436
0.000141988
-0.000202329
0.000131758
-0.000266489
0.000153181
-0.000229819
9.26004e-05
-0.000305904
0.000139907
-0.000347181
9.83766e-05
-0.000377138
6.78407e-05
-0.00038948
2.64878e-05
-0.000389547
-6.52637e-06
-0.000396696
-1.95097e-05
-0.000409747
-2.66917e-05
-0.000417009
-3.6351e-05
-0.000378558
-8.86839e-05
-0.000287376
-0.000117449
-0.000247041
-8.52165e-05
-0.000256298
-8.35788e-05
-0.000321442
-2.65665e-05
-0.000338807
-3.22636e-05
-0.000354357
-2.98303e-05
-6.49204e-05
-0.000316953
-3.62383e-05
0.000449688
-5.28316e-05
0.000207535
-7.95368e-05
0.000219586
-0.000132804
0.000195256
-0.000146931
0.000145885
-0.000231931
0.000238181
-0.000356773
0.000217443
-0.000400618
0.000183751
-0.000410605
0.000108364
-0.000409051
6.62869e-05
-0.000400461
1.78981e-05
-0.000398588
-8.39981e-06
-0.00038581
-3.22873e-05
-0.000366433
-4.60692e-05
-0.000338828
-6.3956e-05
-0.000312046
-0.000115466
-0.000345316
-8.41797e-05
-0.000345005
-8.55269e-05
-0.000353637
-7.49472e-05
-0.000330776
-4.94277e-05
-0.000289742
-7.32969e-05
-0.000246282
-7.32908e-05
-5.34131e-06
-0.000305861
-7.63836e-05
0.000526072
-0.000109918
0.00024107
-0.000194613
0.000304281
-0.000314161
0.000314804
-0.000365447
0.000197171
-0.000392623
0.000265357
-0.000413945
0.000238765
-0.000412099
0.000181905
-0.00038348
7.97447e-05
-0.000349652
3.24588e-05
-0.000309758
-2.1996e-05
-0.000263181
-5.49768e-05
-0.000194052
-0.000101416
-0.000143851
-9.62708e-05
-0.000119581
-8.82256e-05
-0.000135601
-9.94464e-05
-0.000147704
-7.20769e-05
-0.000160269
-7.29614e-05
-0.000176537
-5.86794e-05
-0.000188326
-3.76383e-05
-0.000211087
-5.05359e-05
-0.000255655
-2.87234e-05
-4.40476e-06
-0.000256591
-5.96735e-05
0.000585746
-0.000147608
0.000329004
-0.000203856
0.000360529
-0.000253906
0.000364854
-0.000427443
0.000370709
-0.000434818
0.000272732
-0.000351375
0.000155322
-0.000204401
3.49307e-05
-0.000145661
2.10051e-05
-0.000119574
6.37173e-06
-0.000138041
-3.52942e-06
-0.000120842
-7.21757e-05
-9.1388e-05
-0.000130869
-7.69436e-05
-0.000110715
-7.7684e-05
-8.74852e-05
-0.0001032
-7.393e-05
-0.000125921
-4.93562e-05
-0.000149973
-4.89096e-05
-0.000169753
-3.88993e-05
-0.000181088
-2.63031e-05
-0.000202968
-2.86557e-05
-0.000219218
-1.24739e-05
-2.84592e-06
-0.000220777
-6.59246e-05
0.00065167
-0.000259754
0.000522834
-0.000347563
0.000448338
-0.000351776
0.000369067
-0.000262045
0.000280978
-0.000211732
0.000222419
-0.000198978
0.000142568
-0.000213973
4.99252e-05
-0.000232944
3.9976e-05
-0.000217994
-8.57805e-06
-0.000165096
-5.64278e-05
-0.000105839
-0.000131432
-9.22079e-05
-0.000144501
-8.37985e-05
-0.000119125
-8.39387e-05
-8.73451e-05
-9.58789e-05
-6.19898e-05
-0.000119456
-2.5779e-05
-0.000142508
-2.5857e-05
-0.000161595
-1.98133e-05
-0.000180034
-7.8641e-06
-0.000206331
-2.35863e-06
-0.000223641
4.8364e-06
6.59731e-06
-0.000233084
-7.25476e-05
0.000724218
-0.000172308
0.000622595
-0.000201836
0.000477865
-0.000256752
0.000423983
-0.000307198
0.000331424
-0.000257708
0.000172929
-0.00022612
0.00011098
-0.000236164
5.99698e-05
-0.00022042
2.42316e-05
-0.000170455
-5.85434e-05
-0.000110896
-0.000115986
-0.00010697
-0.000135358
-0.000121735
-0.000129735
-0.000138958
-0.000101902
-0.000152521
-7.37821e-05
-0.000151172
-6.33389e-05
-0.000117808
-5.91426e-05
-0.000112768
-3.08978e-05
-0.000111923
-2.0658e-05
-0.00011074
-9.04707e-06
-0.000106802
-6.29631e-06
-0.000101979
1.33971e-08
1.13605e-07
-9.54955e-05
-4.84579e-06
0.000729063
-7.90098e-05
0.000696758
-0.000127052
0.000525907
-0.000145169
0.000442101
-0.000131038
0.000317293
-0.000110818
0.000152709
-9.4381e-05
9.4543e-05
-0.000114835
8.04235e-05
-0.000134213
4.36096e-05
-0.000108216
-8.45397e-05
-0.000113829
-0.000110374
-0.000120123
-0.000129064
-0.000132302
-0.000117557
-0.00015179
-8.24137e-05
-0.000177073
-4.84995e-05
-0.000214312
-2.60993e-05
-0.000242751
-3.07036e-05
-0.000233594
-4.00554e-05
-0.000225391
-2.88603e-05
-0.000224425
-1.00138e-05
-0.000229679
-1.04197e-06
-0.000236364
6.69813e-06
-6.81221e-06
-0.000229438
3.57385e-05
0.000693325
6.65497e-05
0.000665947
6.81099e-06
0.000585646
-4.92779e-05
0.000498189
-2.23496e-05
0.000290364
-2.016e-05
0.000150519
-6.43118e-05
0.000138695
-0.000140671
0.000156782
-0.000106613
9.55148e-06
-7.6875e-05
-0.000114277
-8.08812e-05
-0.000106368
-9.82407e-05
-0.000111705
-8.73657e-05
-0.000128432
-6.86117e-05
-0.000101168
-4.44443e-05
-7.2667e-05
-3.94102e-05
-3.11334e-05
-4.34316e-05
-2.66822e-05
-4.29037e-05
-4.05833e-05
-4.22486e-05
-2.95155e-05
-3.47845e-05
-1.74779e-05
-2.78858e-05
-7.94065e-06
-2.54934e-05
4.3058e-06
2.24206e-06
-3.45476e-05
9.43444e-05
0.000598981
0.000134799
0.000625493
0.000152471
0.000567974
0.000127803
0.000522856
8.26993e-05
0.000335468
3.2571e-05
0.000200648
-3.46616e-05
0.000205927
-7.90981e-05
0.000201219
-4.77098e-05
-2.18368e-05
-5.60283e-05
-0.000105959
-7.17945e-05
-9.06017e-05
-6.61022e-05
-0.000117397
-6.30086e-05
-0.000131525
-5.47327e-05
-0.000109444
-3.94326e-05
-8.7967e-05
-2.94907e-05
-4.10753e-05
-1.56924e-05
-4.04804e-05
-1.98584e-05
-3.64172e-05
-2.24527e-05
-2.69212e-05
-1.96143e-05
-2.03161e-05
-6.31285e-06
-2.12421e-05
3.71132e-06
-5.71834e-06
-3.05789e-06
9.01129e-06
0.00011479
0.000484191
0.000124824
0.000615458
0.000117151
0.000575648
0.000229304
0.000410703
0.000161041
0.000403731
6.39129e-05
0.000297776
-2.22662e-05
0.000292106
-2.33226e-05
0.000202275
-6.9416e-06
-3.82178e-05
-1.38461e-05
-9.90546e-05
-1.48779e-05
-8.957e-05
-2.65339e-05
-0.000105741
-2.47558e-05
-0.000133303
-1.94998e-05
-0.0001147
-2.15513e-05
-8.59156e-05
-1.29001e-05
-4.97264e-05
-1.54906e-05
-3.78899e-05
-2.00261e-05
-3.18817e-05
-3.11663e-08
-4.69161e-05
4.36269e-06
-2.471e-05
1.79365e-05
-3.48159e-05
2.61215e-05
-1.39033e-05
-1.42077e-05
3.72714e-05
0.000105666
0.000378524
0.000100581
0.000620543
0.000163447
0.000512782
0.00013096
0.00044319
0.000121686
0.000413006
3.17188e-05
0.000387742
-2.37124e-06
0.000326196
3.6283e-05
0.000163621
2.89047e-05
-3.08397e-05
1.18157e-05
-8.19655e-05
1.90259e-06
-7.96569e-05
9.48451e-06
-0.000113323
1.58305e-06
-0.000125402
-7.35689e-06
-0.00010576
-1.03175e-05
-8.29551e-05
-1.56214e-05
-4.44225e-05
8.56787e-07
-5.43681e-05
9.99242e-06
-4.10172e-05
6.07876e-06
-4.30024e-05
1.32462e-05
-3.18774e-05
1.89998e-05
-4.05694e-05
4.62983e-05
-4.12017e-05
-2.34341e-05
5.5525e-05
4.12914e-05
0.000337233
6.76986e-05
0.000594136
0.00018476
0.000395721
8.67909e-05
0.000541158
4.24622e-05
0.000457334
2.42684e-06
0.000427778
1.42779e-05
0.000314345
6.60845e-05
0.000111815
3.03004e-05
4.94423e-06
2.56815e-05
-7.73464e-05
5.88699e-05
-0.000112845
2.29099e-05
-7.73631e-05
1.93767e-05
-0.000121869
2.00601e-05
-0.000106443
-3.47312e-06
-5.9422e-05
1.47974e-05
-6.2693e-05
2.09025e-05
-6.04731e-05
1.10753e-05
-3.119e-05
2.02423e-05
-5.21694e-05
2.72756e-05
-3.89106e-05
3.23726e-05
-4.56664e-05
3.85229e-05
-4.73519e-05
-4.18994e-05
5.69883e-05
-6.05857e-06
0.000343291
8.97244e-05
0.000498353
6.97608e-05
0.000415684
3.63217e-05
0.000574597
-4.96693e-05
0.000543325
3.64659e-05
0.000341643
3.09656e-05
0.000319845
2.43557e-05
0.000118424
3.05941e-05
-1.29417e-06
3.47866e-05
-8.1539e-05
3.76448e-05
-0.000115703
4.23814e-05
-8.20998e-05
1.11117e-05
-9.0599e-05
1.54852e-05
-0.000110817
4.57743e-05
-8.9711e-05
4.36227e-05
-6.05414e-05
4.02859e-05
-5.71362e-05
4.47422e-05
-3.56463e-05
5.14513e-05
-5.88785e-05
4.23853e-05
-2.98446e-05
4.88773e-05
-5.21584e-05
5.86243e-05
-5.70989e-05
-5.56869e-05
7.24118e-05
-6.9722e-06
0.000350264
7.20232e-05
0.000419358
-1.99687e-05
0.000507676
1.76877e-06
0.000552859
-2.59575e-05
0.000571051
1.52437e-05
0.000300441
3.89779e-05
0.000296111
3.90253e-05
0.000118377
4.34648e-05
-5.73354e-06
1.8505e-05
-5.65793e-05
3.54924e-05
-0.000132691
3.59426e-05
-8.25502e-05
6.37231e-05
-0.00011838
6.32061e-05
-0.0001103
5.80922e-05
-8.45971e-05
6.0388e-05
-6.28371e-05
6.00736e-05
-5.68217e-05
7.12918e-05
-4.68645e-05
3.912e-05
-2.67066e-05
6.74153e-05
-5.814e-05
5.42776e-05
-3.90207e-05
3.13946e-05
-3.4216e-05
-6.18612e-05
3.7569e-05
-2.47026e-05
0.000374966
-8.76363e-07
0.000395532
-1.38008e-05
0.0005206
-3.78691e-06
0.000542845
-3.08757e-05
0.00059814
3.51552e-06
0.00026605
2.50648e-05
0.000274562
3.37704e-05
0.000109671
3.955e-05
-1.1513e-05
7.16615e-05
-8.86907e-05
2.12994e-05
-8.2329e-05
6.32567e-05
-0.000124508
6.6154e-05
-0.000121277
7.02307e-05
-0.000114377
7.85458e-05
-9.29121e-05
7.01356e-05
-5.44269e-05
7.65596e-05
-6.32457e-05
6.65635e-05
-3.68683e-05
6.27278e-05
-2.28709e-05
5.94322e-05
-5.48444e-05
7.22169e-05
-5.18054e-05
8.76908e-05
-4.96899e-05
-6.84284e-05
9.4258e-05
-6.22245e-05
0.000437191
-6.82491e-06
0.000340132
-3.57885e-06
0.000517354
-6.4219e-06
0.000545688
2.30603e-06
0.000589412
1.53937e-05
0.000252962
3.54499e-05
0.000254506
3.46961e-05
0.000110425
2.71012e-05
-3.91819e-06
2.82837e-05
-8.98734e-05
7.51473e-05
-0.000129193
7.9195e-05
-0.000128556
8.11457e-05
-0.000123228
4.10649e-05
-7.42958e-05
4.24521e-05
-9.42993e-05
4.35922e-05
-5.55669e-05
4.43478e-05
-6.40012e-05
5.02179e-05
-4.27384e-05
8.14017e-05
-5.40548e-05
8.28399e-05
-5.62826e-05
8.01595e-05
-4.91249e-05
7.81319e-05
-4.76623e-05
-5.19886e-05
6.16922e-05
-5.06439e-05
0.000487834
-7.00122e-05
0.000359501
6.72435e-06
0.000440618
1.14069e-05
0.000541006
2.7867e-05
0.000572952
2.51766e-05
0.000255653
3.88531e-05
0.000240829
4.26461e-05
0.000106632
8.06981e-05
-4.19703e-05
7.04679e-05
-7.96434e-05
8.67997e-05
-0.000145525
9.76507e-05
-0.000139407
0.000100905
-0.000126482
0.000114704
-8.80945e-05
0.000101198
-8.07932e-05
0.000126796
-8.11646e-05
0.000105743
-4.29485e-05
8.6218e-05
-2.32132e-05
8.64717e-05
-5.43085e-05
9.53143e-05
-6.51253e-05
9.83684e-05
-5.21789e-05
0.000101561
-5.08551e-05
-2.52263e-05
7.47989e-05
-3.11795e-05
0.000519014
-4.54985e-05
0.00037382
-1.59658e-05
0.000411085
7.25396e-05
0.0004525
8.88972e-05
0.000556595
5.72858e-05
0.000287264
0.000107676
0.000190439
0.000140656
7.36521e-05
0.000151479
-5.2793e-05
0.000154796
-8.29606e-05
0.000150343
-0.000141072
0.000143823
-0.000132887
0.000132325
-0.000114984
0.000124302
-8.00711e-05
9.7684e-05
-5.41752e-05
7.08875e-05
-5.43681e-05
7.56778e-05
-4.77388e-05
0.00010113
-4.86656e-05
8.61861e-05
-3.93643e-05
5.6261e-05
-3.52001e-05
5.86256e-05
-5.45436e-05
5.9483e-05
-5.17124e-05
-4.13268e-05
7.55836e-05
-1.50581e-06
0.00052052
-2.59936e-05
0.000398308
-1.58232e-05
0.000400915
3.8254e-05
0.000398423
0.000196396
0.000398453
0.000188982
0.000294679
0.000196574
0.000182847
0.000209492
6.07339e-05
0.000219623
-6.29241e-05
0.000214119
-7.74562e-05
0.000191012
-0.000117965
0.000163305
-0.00010518
0.00013177
-8.34493e-05
0.000114028
-6.23291e-05
0.000119686
-5.98326e-05
7.82447e-05
-1.29271e-05
6.41448e-05
-3.36389e-05
3.90945e-05
-2.36153e-05
5.1079e-05
-5.13488e-05
7.19041e-05
-5.60252e-05
6.64291e-05
-4.90686e-05
6.01078e-05
-4.53911e-05
-5.27639e-05
7.15449e-05
8.14976e-05
0.000439022
3.02643e-05
0.000449541
4.19612e-05
0.000389218
9.43902e-05
0.000345994
0.000158355
0.000334488
0.000180533
0.0002725
0.000209288
0.000154092
0.000234409
3.56133e-05
0.000237357
-6.58717e-05
0.000228637
-6.87363e-05
0.000191593
-8.09217e-05
0.000166191
-7.97777e-05
0.000125831
-4.30901e-05
0.000116879
-5.33766e-05
7.80046e-05
-2.09582e-05
8.77563e-05
-2.26788e-05
8.4856e-05
-3.07387e-05
0.000112168
-5.09275e-05
0.000102187
-4.1368e-05
7.0543e-05
-2.43807e-05
7.37022e-05
-5.22277e-05
7.06781e-05
-4.2367e-05
-5.12003e-05
6.91147e-05
4.0779e-05
0.000398243
4.26614e-05
0.000447658
4.57166e-05
0.000386163
7.97292e-05
0.000311982
0.000135567
0.00027865
0.000186126
0.000221941
0.000237936
0.000102281
0.000255623
1.79266e-05
0.000234366
-4.4615e-05
0.00021122
-4.55898e-05
0.000181479
-5.11814e-05
0.000156888
-5.51865e-05
0.000144094
-3.02955e-05
0.00013599
-4.52732e-05
0.000140906
-2.58741e-05
0.000137474
-1.92469e-05
0.000130882
-2.41461e-05
0.000111595
-3.16405e-05
0.000108316
-3.80893e-05
0.000115355
-3.14198e-05
8.89924e-05
-2.58651e-05
8.84702e-05
-4.18448e-05
-3.57213e-05
7.29912e-05
2.05525e-05
0.000377691
7.07132e-05
0.000397498
9.33014e-05
0.000363574
0.000120377
0.000284906
0.000178502
0.000220526
0.000244488
0.000155955
0.000280119
6.66494e-05
0.000280145
1.79012e-05
0.000244837
-9.30754e-06
0.000217423
-1.8176e-05
0.000188833
-2.25911e-05
0.000165392
-3.17462e-05
0.000155056
-1.9959e-05
0.000136925
-2.71419e-05
0.000134101
-2.30503e-05
0.000128771
-1.39172e-05
0.000121768
-1.71428e-05
0.000118836
-2.87091e-05
0.000102625
-2.1878e-05
9.58254e-05
-2.46201e-05
7.82849e-05
-8.32451e-06
8.77106e-05
-5.12704e-05
-3.23053e-05
8.42946e-05
3.50054e-05
0.000342685
8.73739e-05
0.000345129
0.000130137
0.000320811
0.000167395
0.000247648
0.00021714
0.000170781
0.000260261
0.000112834
0.000266071
6.08402e-05
0.000252009
3.19623e-05
0.000227466
1.52354e-05
0.000202802
6.48855e-06
0.000177933
2.27746e-06
0.000155206
-9.01863e-06
0.000146807
-1.15605e-05
0.000152081
-3.24156e-05
0.000139977
-1.09466e-05
0.000124731
1.32835e-06
0.000109848
-2.25989e-06
0.000106937
-2.57981e-05
0.000114931
-2.98717e-05
0.000107381
-1.70696e-05
0.00011786
-1.88037e-05
8.3917e-05
-1.73275e-05
-3.35158e-05
8.51274e-05
5.44139e-05
0.000288271
0.000104661
0.000294882
0.000162467
0.000263006
0.000209639
0.000200477
0.000236086
0.000144333
0.000247223
0.000101697
0.000238818
6.9245e-05
0.000222039
4.8741e-05
0.000203834
3.34407e-05
0.000185543
2.478e-05
0.000163677
2.41425e-05
0.000147467
7.19129e-06
0.00013232
3.58703e-06
9.28622e-05
7.04191e-06
8.41548e-05
-2.23918e-06
7.45337e-05
1.09494e-05
9.81407e-05
-2.58669e-05
8.72367e-05
-1.48941e-05
6.23105e-05
-4.94547e-06
6.1219e-05
-1.59781e-05
6.82133e-05
-2.5798e-05
9.12297e-05
-4.03438e-05
-3.91498e-05
9.68635e-05
5.47642e-05
0.000233507
0.000105678
0.000243968
0.000156609
0.000212075
0.000193349
0.000163737
0.000208144
0.000129538
0.000209594
0.000100246
0.000201905
7.69339e-05
0.000190523
6.01238e-05
0.000179995
4.39684e-05
0.000168296
3.64789e-05
0.000150089
4.2349e-05
0.000138466
1.88141e-05
0.00012962
1.24334e-05
9.73444e-05
3.93174e-05
9.057e-05
4.53522e-06
0.000112724
-1.12043e-05
0.000100521
-1.36644e-05
7.44247e-05
1.12026e-05
7.93732e-05
-9.89392e-06
0.000108705
-4.53094e-05
9.77686e-05
-1.48621e-05
7.51717e-05
-1.77469e-05
-5.32041e-05
8.9226e-05
4.39628e-05
0.000189545
8.98783e-05
0.000198052
0.000129024
0.000172929
0.000152254
0.000140507
0.000163354
0.000118438
0.000165889
9.7712e-05
0.000163416
7.94065e-05
0.000158212
6.53273e-05
0.000151819
5.03619e-05
0.000145234
4.30635e-05
0.000133059
5.45241e-05
0.000128353
2.35203e-05
0.000129988
1.07981e-05
0.000130487
3.88179e-05
0.000115258
1.97644e-05
0.000107428
-3.37358e-06
7.87711e-05
1.49921e-05
0.00010079
-1.08165e-05
0.000100727
-9.83065e-06
7.05938e-05
-1.51762e-05
0.000104679
-4.89475e-05
0.00012136
-3.44277e-05
-5.41727e-05
0.000122328
3.19963e-05
0.000157548
6.89062e-05
0.000161142
9.86699e-05
0.000143165
0.000116396
0.000122781
0.000127316
0.000107518
0.000133175
9.18531e-05
0.000135345
7.72357e-05
0.000135463
6.52092e-05
0.000132836
5.29888e-05
0.000129337
4.65631e-05
0.000118823
6.50378e-05
0.000104043
3.83007e-05
8.07469e-05
3.40941e-05
7.32921e-05
4.62728e-05
6.07011e-05
3.23555e-05
5.95094e-05
-2.18189e-06
9.04792e-05
-1.59776e-05
9.20864e-05
-1.24236e-05
0.000102876
-2.06199e-05
0.000112652
-2.49521e-05
0.000107742
-4.40375e-05
0.000108767
-3.54535e-05
-5.60638e-05
0.000110658
2.33674e-05
0.000134181
5.041e-05
0.0001341
7.23492e-05
0.000121226
8.64697e-05
0.000108661
9.63999e-05
9.75879e-05
0.000102779
8.54744e-05
0.000105732
7.42822e-05
0.000106762
6.41792e-05
0.00010584
5.39109e-05
0.000104797
4.76066e-05
9.91295e-05
7.07049e-05
9.89296e-05
3.85007e-05
7.82971e-05
5.47266e-05
7.31306e-05
5.14394e-05
9.64011e-05
9.08514e-06
9.19699e-05
2.24928e-06
9.3625e-05
-1.76326e-05
8.91345e-05
-7.9331e-06
8.03957e-05
-1.18811e-05
6.23653e-05
-6.92159e-06
6.341e-05
-4.50821e-05
5.45284e-05
-2.65719e-05
-6.54234e-05
6.38881e-05
1.82473e-05
0.000115934
3.8263e-05
0.000114084
5.45397e-05
0.000104949
6.6777e-05
9.64233e-05
7.60196e-05
8.83453e-05
8.388e-05
7.76141e-05
8.86925e-05
6.94697e-05
9.48305e-05
5.80412e-05
9.92218e-05
4.95197e-05
7.81682e-05
6.86603e-05
7.62165e-05
7.26567e-05
6.18074e-05
5.29099e-05
7.7954e-05
3.858e-05
0.000102695
2.66984e-05
9.1191e-05
2.05892e-05
8.94751e-05
3.96525e-06
5.70561e-05
1.47864e-05
6.10347e-05
-1.19116e-05
5.49455e-05
-5.7919e-06
8.46861e-05
-3.66622e-05
6.12354e-05
-2.16314e-05
0.000101712
-6.70482e-05
-5.63765e-05
9.26646e-05
1.35884e-05
0.000102345
2.77915e-05
9.98811e-05
3.9569e-05
9.31717e-05
4.86857e-05
8.73067e-05
5.59702e-05
8.10608e-05
6.16334e-05
7.1951e-05
6.479e-05
6.63132e-05
6.90433e-05
5.3788e-05
6.83071e-05
5.0256e-05
6.45543e-05
7.24131e-05
5.85859e-05
7.86253e-05
6.2446e-05
4.90499e-05
5.82638e-05
4.27623e-05
7.42957e-05
1.06665e-05
7.0702e-05