/*--------------------------------*- C++ -*----------------------------------*\
| =========                 |                                                 |
| \\      /  F ield         | foam-extend: Open Source CFD                    |
|  \\    /   O peration     | Version:     4.1                                |
|   \\  /    A nd           | Web:         http://www.foam-extend.org         |
|    \\/     M anipulation  |                                                 |
\*---------------------------------------------------------------------------*/
FoamFile
{
    version     2.0;
    format      ascii;
    class       surfaceScalarField;
    location    "0.65";
    object      phi_0;
}
// * * * * * * * * * * * * * * * * * * * * * * * * * * * * * * * * * * * * * //

dimensions      [0 3 -1 0 0 0 0];

internalField   nonuniform List<scalar> 
4432
(
1.2651e-07
-1.2651e-07
-1.29639e-06
1.4229e-06
-2.65886e-06
1.36247e-06
-3.14003e-06
4.81178e-07
-4.10821e-06
9.68178e-07
-5.23931e-06
1.1311e-06
-5.88383e-06
6.44526e-07
-6.39864e-06
5.14806e-07
-7.1085e-06
7.0987e-07
-7.66188e-06
5.53385e-07
-6.22287e-06
-1.43901e-06
-8.39224e-06
2.16937e-06
-7.19175e-06
-1.20048e-06
-6.43252e-06
-7.59233e-07
-5.56813e-06
-8.64383e-07
-5.18081e-06
-3.87324e-07
-5.07142e-06
-1.09388e-07
-3.22744e-06
-1.84398e-06
-5.48289e-06
2.25545e-06
-3.38429e-06
-2.09859e-06
-2.70706e-06
-6.77235e-07
-1.20136e-06
-1.50571e-06
-1.20136e-06
-2.97015e-08
-9.68067e-08
-1.03997e-06
2.43318e-06
-1.83091e-06
2.15341e-06
-3.04153e-06
1.69179e-06
-4.2106e-06
2.13725e-06
-5.24142e-06
2.16193e-06
-5.73377e-06
1.13688e-06
-6.16397e-06
9.45009e-07
-6.02222e-06
5.68125e-07
-5.33982e-06
-1.29007e-07
-7.81804e-06
1.03921e-06
-6.27702e-06
6.2835e-07
-5.92547e-06
-1.55203e-06
-5.01315e-06
-1.67155e-06
-3.82102e-06
-2.05652e-06
-3.39729e-06
-8.1105e-07
-1.49198e-06
-2.0147e-06
-3.0179e-06
-3.18069e-07
-1.80413e-06
1.04168e-06
-2.04005e-06
-1.86268e-06
-1.81566e-06
-9.01639e-07
5.11817e-08
-3.37256e-06
-1.15018e-06
-6.54989e-07
5.58184e-07
-1.18534e-06
2.96353e-06
-1.68621e-06
2.65428e-06
-2.9728e-06
2.97839e-06
-4.1514e-06
3.31585e-06
-4.89899e-06
2.90953e-06
-5.38813e-06
1.62602e-06
-5.79846e-06
1.35534e-06
-6.28389e-06
1.05357e-06
-6.474e-06
6.10998e-08
-9.93845e-06
4.50367e-06
-8.63279e-06
-6.77307e-07
-8.76456e-06
-1.42026e-06
-8.2695e-06
-2.16662e-06
-7.4767e-06
-2.84931e-06
-3.43186e-06
-4.85589e-06
-4.54759e-06
-8.98977e-07
-3.98572e-06
-8.79941e-07
-3.70658e-06
7.62537e-07
-1.52471e-06
-4.04455e-06
-2.93248e-06
5.06122e-07
-2.6404e-07
-6.04101e-06
-1.41422e-06
-1.14065e-06
1.69883e-06
-1.09363e-06
2.91652e-06
-1.51395e-06
3.0746e-06
-2.74783e-06
4.21226e-06
-3.76842e-06
4.33645e-06
-4.9936e-06
4.13472e-06
-6.19692e-06
2.82934e-06
-6.25954e-06
1.41796e-06
-6.13592e-06
9.29948e-07
-1.14839e-05
5.40909e-06
-1.23411e-05
5.36082e-06
-1.42584e-05
1.24003e-06
-1.54555e-05
-2.23179e-07
-1.48958e-05
-2.72626e-06
-1.35621e-05
-4.18303e-06
-1.16859e-05
-6.73206e-06
-1.03092e-05
-2.27571e-06
-9.47916e-06
-1.70999e-06
-8.05994e-06
-6.56688e-07
-3.19518e-06
-8.90931e-06
-4.64347e-06
1.95441e-06
1.54164e-08
-1.06999e-05
-1.39881e-06
-5.78125e-07
2.27696e-06
-9.69194e-07
3.30759e-06
-1.47424e-06
3.57965e-06
-2.58661e-06
5.32464e-06
-3.96764e-06
5.71748e-06
-5.75732e-06
5.92439e-06
-6.83554e-06
3.90757e-06
-1.25943e-05
7.17672e-06
-1.39338e-05
2.26948e-06
-1.54996e-05
6.97487e-06
-1.74892e-05
7.35042e-06
-2.01291e-05
3.87995e-06
-2.09293e-05
5.7701e-07
-2.05787e-05
-3.07685e-06
-2.01148e-05
-4.64694e-06
-1.84764e-05
-8.37045e-06
-1.65327e-05
-4.21944e-06
-1.61456e-05
-2.09705e-06
-1.47338e-05
-2.06847e-06
-1.07189e-05
-1.29242e-05
-4.26375e-06
-4.50076e-06
-9.70719e-07
-1.39929e-05
-2.36953e-06
-1.22075e-07
2.39903e-06
-7.14336e-07
3.89984e-06
-1.5479e-06
4.41321e-06
-2.79729e-06
6.57403e-06
-4.26416e-06
7.18435e-06
-5.97503e-06
7.63526e-06
-7.48669e-06
5.41923e-06
-8.60345e-06
8.29347e-06
-1.89065e-05
1.25725e-05
-2.16505e-05
9.71885e-06
-2.38057e-05
9.5056e-06
-2.48146e-05
4.88892e-06
-2.51215e-05
8.8392e-07
-2.42712e-05
-3.92716e-06
-2.26265e-05
-6.29172e-06
-2.15831e-05
-9.41385e-06
-2.16914e-05
-4.11107e-06
-1.21389e-05
-1.16496e-05
-1.08719e-05
-3.33542e-06
-1.51709e-05
-8.62525e-06
-5.45592e-06
-1.42158e-05
-1.15553e-06
-1.82933e-05
-3.52506e-06
-2.58508e-07
2.65754e-06
-1.45407e-06
5.0954e-06
-3.47281e-06
6.43194e-06
-5.9955e-06
9.09671e-06
-9.81854e-06
1.10074e-05
-1.43899e-05
1.22066e-05
-1.93424e-05
1.03717e-05
-2.28556e-05
1.18067e-05
-2.48471e-05
1.45641e-05
-2.60666e-05
1.09383e-05
-2.71847e-05
1.06237e-05
-2.73023e-05
5.00655e-06
-2.72973e-05
8.78855e-07
-2.66384e-05
-4.58597e-06
-2.4864e-05
-8.06616e-06
-2.307e-05
-1.12078e-05
-2.31032e-05
-4.07789e-06
-2.44751e-05
-1.02777e-05
-1.23501e-05
-1.54605e-05
-9.35435e-06
-1.1621e-05
-6.61319e-06
-1.69569e-05
-1.90545e-06
-2.30011e-05
-5.43051e-06
-8.40405e-07
3.49794e-06
-2.25326e-06
6.50825e-06
-5.88875e-06
1.00674e-05
-9.02123e-06
1.22292e-05
-1.24527e-05
1.44388e-05
-1.73856e-05
1.71395e-05
-2.42434e-05
1.72295e-05
-2.81002e-05
1.56635e-05
-2.93522e-05
1.5816e-05
-3.0306e-05
1.18921e-05
-3.04591e-05
1.07769e-05
-2.97838e-05
4.33119e-06
-2.90702e-05
1.65315e-07
-2.76863e-05
-5.9699e-06
-2.54279e-05
-1.03245e-05
-2.35296e-05
-1.31061e-05
-1.30904e-05
-1.45171e-05
-1.29493e-05
-1.04188e-05
-1.24373e-05
-1.59724e-05
-2.14097e-05
-2.64864e-06
-1.29902e-05
-2.53764e-05
-2.39423e-06
-3.3597e-05
-7.82474e-06
-0.000104587
0.000104587
-0.000191899
8.73116e-05
-0.000215028
2.31288e-05
-0.000231706
1.66779e-05
-0.000219305
-1.24009e-05
-0.000202925
-1.63802e-05
-0.000182801
-2.01236e-05
-0.000168458
-1.43429e-05
-0.00014831
-2.01485e-05
-0.00013948
-8.82974e-06
-0.000144299
4.81952e-06
-0.000156024
1.17248e-05
-0.000171822
1.57977e-05
-0.000161827
-9.99527e-06
-0.000103388
-5.84391e-05
-9.34669e-05
-9.92072e-06
-0.000134325
4.08581e-05
-7.86062e-05
-5.57187e-05
-7.86062e-05
-9.40757e-05
0.000198663
-0.0001633
0.000156536
-0.000169067
2.88955e-05
-0.000165192
1.28029e-05
-0.000132393
-4.52002e-05
-0.000104723
-4.40505e-05
-8.34114e-05
-4.14347e-05
-8.11941e-05
-1.65602e-05
-9.31726e-05
-8.17004e-06
-0.000113032
1.10295e-05
-0.00013227
2.40577e-05
-0.000161769
4.12239e-05
-0.000106393
-3.95786e-05
-9.99681e-05
-1.642e-05
-0.000108538
-4.98689e-05
-0.000103266
-1.51934e-05
-8.0822e-05
1.84144e-05
-7.72172e-05
-5.93235e-05
-0.000155823
-7.63019e-05
0.000274965
-0.000131088
0.000211322
-0.000123629
2.14369e-05
-7.11961e-05
-3.96304e-05
-9.04277e-05
-2.59686e-05
-6.67285e-05
-6.77497e-05
-4.90812e-05
-5.90821e-05
-2.27887e-05
-4.28527e-05
2.37046e-06
-3.33292e-05
-1.11567e-05
2.45567e-05
-6.50779e-05
7.79789e-05
-0.000115588
9.1734e-05
-0.00015593
7.63588e-07
-9.33509e-05
-7.89993e-05
-0.000102447
-4.07731e-05
-9.48765e-05
-2.27635e-05
-7.10324e-05
-5.42972e-06
-5.90875e-05
-7.12684e-05
-0.000214911
-5.61872e-05
0.000331152
-8.57823e-05
0.000240917
-7.62692e-05
1.19239e-05
-9.00289e-05
-2.58708e-05
-6.67579e-05
-4.92395e-05
-3.91598e-05
-9.53478e-05
-1.02661e-05
-8.79757e-05
-9.42985e-07
-5.21758e-05
2.58211e-05
-6.00933e-05
1.87279e-05
3.16499e-05
1.16709e-06
9.55397e-05
-8.91896e-06
0.00010182
-4.69338e-05
3.87784e-05
-8.86964e-05
-3.72367e-05
-7.32692e-05
-5.62003e-05
-0.000122867
2.68338e-05
-6.07833e-05
-6.75129e-05
-5.3646e-05
-7.84057e-05
-0.000268557
-4.2753e-05
0.000373905
-5.60487e-05
0.000254213
-5.34359e-05
9.31113e-06
-6.37747e-05
-1.5532e-05
-3.88765e-05
-7.41378e-05
-1.75669e-05
-0.000116657
8.16853e-06
-0.000113711
2.12841e-05
-6.52914e-05
3.46088e-05
-7.3418e-05
6.9502e-05
-3.24326e-06
9.59025e-05
6.91392e-05
4.68691e-05
0.000150854
2.62835e-05
5.9364e-05
-1.70892e-05
6.13603e-06
-5.7168e-05
-1.61214e-05
-5.94491e-05
2.91149e-05
-5.45031e-05
-7.2459e-05
-2.127e-05
-0.000111639
-0.000289827
-3.00043e-05
0.00040391
-4.00796e-05
0.000264288
-4.65859e-05
1.58174e-05
-5.65733e-05
-5.54456e-06
-1.68151e-05
-0.000113896
-2.21896e-06
-0.000131254
2.2762e-05
-0.000138692
3.44988e-05
-7.70282e-05
4.85805e-05
-8.74997e-05
7.86631e-05
-3.33259e-05
5.43519e-05
9.34504e-05
5.98193e-05
0.000145386
6.30442e-05
5.61391e-05
-7.36588e-06
7.65461e-05
-4.56295e-05
2.21422e-05
-5.1363e-05
3.48483e-05
-4.37811e-05
-8.00409e-05
-1.41001e-05
-0.00014132
-0.000303927
-2.20868e-05
0.000425996
-2.3383e-05
0.000265585
-3.54929e-05
2.79272e-05
-2.16815e-05
-1.93559e-05
-7.98101e-06
-0.000127597
1.30897e-05
-0.000152324
1.71631e-05
-0.000142766
4.3464e-05
-0.000103329
5.69482e-05
-0.000100984
8.24391e-05
-5.88169e-05
0.000100284
7.56056e-05
0.000106112
0.000139558
9.40005e-05
6.82511e-05
6.09823e-05
0.000109564
-1.01181e-05
9.32426e-05
-3.94948e-05
6.4225e-05
-7.16231e-05
-4.79126e-05
-2.39035e-05
-0.000189039
-0.00032783
-1.3305e-05
0.000439302
4.40862e-06
0.000247871
5.00865e-07
3.1835e-05
-5.91082e-07
-1.82639e-05
9.34835e-06
-0.000137536
1.65751e-05
-0.000159551
2.19667e-05
-0.000148157
4.55135e-05
-0.000126876
5.84968e-05
-0.000113967
4.71884e-05
-4.75084e-05
5.89433e-05
6.38506e-05
0.000106782
9.17185e-05
9.81137e-05
7.69199e-05
7.16743e-05
0.000136004
1.58383e-05
0.000149079
-1.81429e-05
9.82063e-05
-2.53392e-05
-4.07163e-05
-2.08004e-05
-0.000193578
-0.000348631
-6.16591e-06
9.66385e-06
-1.41317e-05
1.4474e-05
-1.94278e-05
1.53635e-05
-3.92699e-05
3.20713e-05
-4.40312e-05
1.92002e-05
-5.54722e-05
2.85805e-05
-6.71964e-05
2.89538e-05
-7.06925e-05
1.91596e-05
-7.18589e-05
1.69824e-05
-7.12334e-05
1.12666e-05
-6.9826e-05
9.36944e-06
-6.44454e-05
-1.04938e-06
-6.16382e-05
-2.64189e-06
-5.9991e-05
-7.61707e-06
-5.48181e-05
-1.54975e-05
-4.98729e-05
-1.80513e-05
-5.07903e-05
-1.35997e-05
-4.45365e-05
-1.66726e-05
-4.64369e-05
-1.4072e-05
-2.87443e-05
-2.03412e-05
-2.07908e-05
-3.333e-05
-5.39496e-06
-4.89928e-05
-5.41861e-05
4.09664e-05
-2.00658e-05
2.97296e-05
-4.14145e-05
3.58228e-05
-4.83089e-05
2.22578e-05
-4.63333e-05
3.00957e-05
-8.69679e-05
5.98348e-05
-9.00478e-05
3.16603e-05
-9.09732e-05
2.98792e-05
-7.8819e-05
7.00538e-06
-7.08986e-05
9.06199e-06
-6.72744e-05
7.64239e-06
-6.65625e-05
8.65763e-06
-6.44742e-05
-3.13776e-06
-5.77878e-05
-9.32831e-06
-5.12886e-05
-1.41162e-05
-4.98331e-05
-1.6953e-05
-4.7818e-05
-2.00664e-05
-4.05427e-05
-2.0875e-05
-4.37737e-05
-1.34416e-05
-2.15571e-05
-3.62886e-05
-2.48252e-05
-1.70731e-05
-2.62757e-05
-3.18795e-05
-1.64424e-05
-5.8826e-05
-4.6622e-05
-2.40065e-05
-3.99244e-05
6.9654e-05
-7.10475e-05
6.69459e-05
-0.000126067
7.72774e-05
-0.000131733
3.57612e-05
-8.68163e-05
1.49185e-05
-7.55408e-05
2.03848e-05
-6.47216e-05
1.906e-05
-7.78045e-05
2.00883e-05
-7.19997e-05
3.25718e-06
-6.62092e-05
1.85187e-06
-4.47012e-05
-1.28504e-05
-6.03339e-05
1.24949e-05
-5.25729e-05
-1.70892e-05
-5.26889e-05
-1.40002e-05
-5.2607e-05
-1.7035e-05
-5.07859e-05
-2.18875e-05
-5.01737e-05
-2.14872e-05
-3.07225e-05
-3.28928e-05
-5.5511e-05
-1.15001e-05
-4.25759e-05
-3.00082e-05
-3.7686e-05
-3.67693e-05
-4.21739e-05
-5.43381e-05
-4.60422e-05
-4.27537e-05
-8.98324e-05
0.000159486
-0.000140628
0.000117742
-0.000150099
8.67487e-05
-0.000143278
2.89393e-05
-0.000115453
-1.29065e-05
-9.83489e-05
3.28112e-06
-8.27094e-05
3.4205e-06
-9.6589e-05
3.39678e-05
-9.45099e-05
1.17815e-06
-9.07127e-05
-1.94533e-06
-9.246e-05
-1.11031e-05
-6.21136e-05
-1.78514e-05
-7.68218e-05
-2.38102e-06
-7.27604e-05
-1.80616e-05
-7.76552e-05
-1.21401e-05
-7.97418e-05
-1.9801e-05
-8.01881e-05
-2.10408e-05
-8.13396e-05
-3.17414e-05
-8.57118e-05
-7.12791e-06
-9.9699e-05
-1.60211e-05
-9.55627e-05
-4.09056e-05
-0.000100849
-4.90522e-05
-1.98689e-05
-0.000127022
-8.86599e-05
0.000248146
-0.000121837
0.000150918
-8.29647e-05
4.78768e-05
-9.74857e-05
4.34603e-05
-0.000117796
7.40357e-06
-0.000155511
4.09967e-05
-0.000157474
5.38327e-06
-0.000146633
2.31268e-05
-0.000146783
1.32799e-06
-0.00014053
-8.19801e-06
-0.000131135
-2.04986e-05
-0.00013247
-1.65165e-05
-0.000129605
-5.24599e-06
-0.000126137
-2.15292e-05
-9.75627e-05
-4.07147e-05
-9.31949e-05
-2.41688e-05
-8.41264e-05
-3.01093e-05
-0.000103494
-1.23739e-05
-0.000101512
-9.10968e-06
-8.73933e-05
-3.01399e-05
-7.69859e-05
-5.1313e-05
-0.000114956
-1.10819e-05
7.51353e-07
-0.000135577
-5.39449e-05
0.000302091
-8.1634e-05
0.000178607
-0.000126327
9.257e-05
-0.000101315
1.8448e-05
-0.000114899
2.09873e-05
-0.000109446
3.55433e-05
-0.00015191
4.78471e-05
-0.000144974
1.61914e-05
-0.000166842
2.31958e-05
-0.000185555
1.05151e-05
-0.000206936
8.81866e-07
-0.000224072
6.20187e-07
-0.000225064
-4.25459e-06
-0.000236264
-1.03291e-05
-0.000257709
-1.92699e-05
-0.000252122
-2.97559e-05
-0.000256012
-2.62194e-05
-0.000240028
-2.83571e-05
-0.000162049
-8.70888e-05
-0.000139724
-5.24656e-05
-0.000166244
-2.47929e-05
-0.000152413
-2.4913e-05
2.28984e-06
-0.000153951
-6.88889e-05
0.00037098
-6.13896e-05
0.000171108
-0.000112503
0.000143684
-0.000179888
8.5833e-05
-0.000243051
8.41502e-05
-0.000291821
8.43127e-05
-0.000373862
0.000129889
-0.000424222
6.65508e-05
-0.000457828
5.68023e-05
-0.000486255
3.8942e-05
-0.000504041
1.86677e-05
-0.000499708
-3.71258e-06
-0.000478122
-2.5841e-05
-0.000448267
-4.01838e-05
-0.000423837
-4.36998e-05
-0.000404628
-4.8965e-05
-0.000405287
-2.55601e-05
-0.000388937
-4.47075e-05
-0.000384529
-9.14964e-05
-0.000345255
-9.17396e-05
-0.00031999
-5.00583e-05
-0.000298151
-4.67517e-05
-2.91551e-05
-0.000266706
-3.81814e-05
0.000409162
-5.54355e-05
0.000188362
-9.84011e-05
0.000186649
-0.000148715
0.000136147
-0.000191365
0.0001268
-0.000258007
0.000150954
-0.000221634
9.3516e-05
-0.000300647
0.000145564
-0.000343099
9.92534e-05
-0.000374695
7.05386e-05
-0.000387874
3.1847e-05
-0.000386803
-4.78378e-06
-0.000393678
-1.89658e-05
-0.000407441
-2.64208e-05
-0.000415959
-3.51824e-05
-0.000378039
-8.68849e-05
-0.000288181
-0.000115418
-0.000248183
-8.47046e-05
-0.000257117
-8.25631e-05
-0.000322133
-2.67234e-05
-0.000339114
-3.30774e-05
-0.000355359
-3.05066e-05
-6.52295e-05
-0.000319285
-3.58602e-05
0.000445022
-5.24587e-05
0.000204961
-7.61989e-05
0.000210389
-0.000125461
0.000185409
-0.000142671
0.00014401
-0.000228742
0.000237025
-0.000355122
0.000219897
-0.000399459
0.000189901
-0.000412911
0.000112705
-0.00041158
6.92073e-05
-0.000402093
2.23603e-05
-0.000400064
-6.81274e-06
-0.000389054
-2.99761e-05
-0.000371221
-4.42535e-05
-0.000344248
-6.21551e-05
-0.000316842
-0.000114291
-0.000349465
-8.27951e-05
-0.000348358
-8.5812e-05
-0.000355142
-7.57787e-05
-0.000332153
-4.97123e-05
-0.000292393
-7.28376e-05
-0.000247731
-7.51687e-05
-5.0067e-06
-0.000307954
-7.66189e-05
0.000521641
-0.000111846
0.000240188
-0.000197631
0.000296174
-0.000322
0.000309778
-0.000373003
0.000195013
-0.000396675
0.000260696
-0.000419863
0.000243085
-0.000418918
0.000188955
-0.000390398
8.41861e-05
-0.000357372
3.6181e-05
-0.000318774
-1.62381e-05
-0.000276982
-4.8605e-05
-0.000208348
-9.86094e-05
-0.000154334
-9.8268e-05
-0.000126795
-8.96938e-05
-0.000141339
-9.97476e-05
-0.000151832
-7.23023e-05
-0.000162861
-7.47823e-05
-0.00017811
-6.05302e-05
-0.000189194
-3.86281e-05
-0.000210114
-5.19177e-05
-0.000255569
-2.97137e-05
-4.24225e-06
-0.000256333
-5.95019e-05
0.000581142
-0.000152237
0.000332922
-0.00020903
0.000352968
-0.000258759
0.000359507
-0.000431961
0.000368216
-0.000445139
0.000273874
-0.000359923
0.000157869
-0.00020852
3.75522e-05
-0.000147871
2.35365e-05
-0.000121212
9.52257e-06
-0.00014367
6.21924e-06
-0.000126192
-6.60823e-05
-9.4889e-05
-0.000129913
-7.89536e-05
-0.000114203
-7.84743e-05
-9.01731e-05
-0.000102941
-7.52806e-05
-0.000124313
-5.09309e-05
-0.000148687
-5.0408e-05
-0.000168058
-4.11591e-05
-0.000178495
-2.81914e-05
-0.000199674
-3.07389e-05
-0.000216873
-1.25145e-05
-1.96768e-06
-0.000219148
-6.53733e-05
0.000646516
-0.000249039
0.000516588
-0.000338003
0.000441932
-0.000349981
0.000371485
-0.000263926
0.000282161
-0.000214573
0.00022452
-0.000200882
0.000144178
-0.000216183
5.28534e-05
-0.000236744
4.40973e-05
-0.000224865
-2.35638e-06
-0.000172585
-4.60599e-05
-0.00010943
-0.000129238
-9.32384e-05
-0.000146104
-8.27751e-05
-0.000124667
-8.21664e-05
-9.07817e-05
-9.37751e-05
-6.3672e-05
-0.00011653
-2.81757e-05
-0.000138984
-2.79543e-05
-0.000158379
-2.1764e-05
-0.000176453
-1.01171e-05
-0.000203258
-3.93459e-06
-0.000220381
4.60884e-06
6.63642e-06
-0.000228985
-5.93752e-05
0.000705891
-0.000162608
0.00061982
-0.000196118
0.000475443
-0.000252274
0.000427641
-0.000302602
0.000332489
-0.000255504
0.000177422
-0.000225195
0.000113869
-0.000236255
6.39137e-05
-0.000223742
3.15842e-05
-0.000176546
-4.95532e-05
-0.000110501
-0.000112104
-0.000103013
-0.000136726
-0.000116364
-0.000132753
-0.000134425
-0.000106605
-0.000148164
-7.70432e-05
-0.000146818
-6.5018e-05
-0.000115857
-5.91369e-05
-0.000111464
-3.23468e-05
-0.000111245
-2.19831e-05
-0.000110456
-1.09063e-05
-0.000107119
-7.27117e-06
-0.000102385
-1.24889e-07
2.29936e-07
-9.59787e-05
1.03264e-05
0.000695565
-5.76173e-05
0.000687764
-0.000115936
0.000533762
-0.000135617
0.000447322
-0.00012274
0.000319612
-0.000102848
0.00015753
-9.03784e-05
0.0001014
-0.000114802
8.83377e-05
-0.000137356
5.41381e-05
-0.000105975
-8.09351e-05
-0.000107909
-0.00011017
-0.00011537
-0.000129266
-0.000127537
-0.000120586
-0.000147775
-8.63669e-05
-0.000172953
-5.18658e-05
-0.000211812
-2.61587e-05
-0.000241691
-2.92581e-05
-0.000233977
-4.00607e-05
-0.000225341
-3.06189e-05
-0.000223897
-1.23501e-05
-0.000228556
-2.61234e-06
-0.000235549
6.86772e-06
-4.41267e-06
-0.000230906
4.35961e-05
0.000651969
8.73294e-05
0.000644031
3.49829e-05
0.000586108
-2.33407e-05
0.000505646
-1.92675e-06
0.000298198
-9.8024e-06
0.000165405
-5.92914e-05
0.000150889
-0.000139885
0.000168932
-0.000105293
1.95458e-05
-7.40982e-05
-0.00011213
-7.78687e-05
-0.000106399
-9.49185e-05
-0.000112216
-8.52109e-05
-0.000130293
-6.8298e-05
-0.00010328
-4.50716e-05
-7.50922e-05
-3.93507e-05
-3.18796e-05
-4.20079e-05
-2.66008e-05
-4.05785e-05
-4.14901e-05
-4.1653e-05
-2.95442e-05
-3.55375e-05
-1.84656e-05
-2.90202e-05
-9.12967e-06
-2.69952e-05
4.84274e-06
3.68662e-06
-3.50945e-05
0.000103538
0.000548431
0.000135128
0.00061244
0.000150812
0.000570424
0.000140499
0.000515959
9.20662e-05
0.000346631
3.36347e-05
0.000223837
-3.84057e-05
0.000222929
-7.9195e-05
0.000209721
-4.22116e-05
-1.74377e-05
-5.17292e-05
-0.000102612
-6.87608e-05
-8.93676e-05
-6.45363e-05
-0.00011644
-6.16415e-05
-0.000133188
-5.37847e-05
-0.000111137
-3.91643e-05
-8.97126e-05
-2.95489e-05
-4.14951e-05
-1.52732e-05
-4.08765e-05
-1.99253e-05
-3.68381e-05
-2.17829e-05
-2.76865e-05
-1.96906e-05
-2.05579e-05
-7.08946e-06
-2.17308e-05
3.20095e-06
-5.44772e-06
-2.10212e-06
8.98957e-06
0.000106886
0.000441545
0.000114079
0.000605246
0.000113502
0.000571002
0.000217346
0.000412115
0.000152382
0.000411595
5.31765e-05
0.000323042
-2.8257e-05
0.000304363
-2.27159e-05
0.00020418
-4.21066e-06
-3.59429e-05
-1.09839e-05
-9.58389e-05
-1.2162e-05
-8.81894e-05
-2.63487e-05
-0.000102253
-2.39199e-05
-0.000135617
-1.90019e-05
-0.000116055
-2.10377e-05
-8.76767e-05
-1.25217e-05
-5.0011e-05
-1.5078e-05
-3.83203e-05
-1.9787e-05
-3.21292e-05
7.01643e-08
-4.75437e-05
4.36698e-06
-2.48548e-05
1.75911e-05
-3.49551e-05
2.58464e-05
-1.37031e-05
-1.37724e-05
3.75167e-05
9.00548e-05
0.000351491
8.56526e-05
0.000609648
0.00015017
0.000506484
0.0001181
0.000444185
0.000105896
0.000423799
1.75633e-05
0.000411375
-2.61804e-06
0.000324544
3.73833e-05
0.000164179
3.07595e-05
-2.9319e-05
1.29057e-05
-7.79853e-05
2.64903e-06
-7.79326e-05
1.26075e-05
-0.000112212
2.90537e-06
-0.000125914
-6.24166e-06
-0.000106907
-1.00897e-05
-8.38285e-05
-1.5164e-05
-4.49367e-05
1.4161e-06
-5.49003e-05
1.05896e-05
-4.13027e-05
6.2796e-06
-4.32338e-05
1.35129e-05
-3.20882e-05
1.91657e-05
-4.0608e-05
4.65001e-05
-4.10377e-05
-2.31416e-05
5.58691e-05
2.09599e-05
0.000330531
5.69959e-05
0.000573611
0.00017168
0.000391801
7.2367e-05
0.000543498
2.5294e-05
0.000470872
-3.03829e-06
0.000439707
1.13702e-05
0.000310136
6.16211e-05
0.000113928
2.85563e-05
3.74572e-06
2.69824e-05
-7.64116e-05
6.1259e-05
-0.000112209
2.58524e-05
-7.68049e-05
2.19183e-05
-0.00012198
2.18921e-05
-0.000106881
-2.46978e-06
-5.94665e-05
1.56456e-05
-6.30519e-05
2.15778e-05
-6.08324e-05
1.1607e-05
-3.13318e-05
2.06673e-05
-5.22941e-05
2.76135e-05
-3.90345e-05
3.27024e-05
-4.56969e-05
3.88956e-05
-4.7231e-05
-4.17039e-05
5.74578e-05
-9.759e-06
0.00034029
7.88114e-05
0.000485041
5.23973e-05
0.000418215
1.7702e-05
0.000578193
-6.41358e-05
0.00055271
3.19614e-05
0.00034361
2.68804e-05
0.000315217
2.17698e-05
0.000119038
3.09538e-05
-5.43826e-06
3.68925e-05
-8.23503e-05
3.91719e-05
-0.000114489
4.41489e-05
-8.17817e-05
1.23584e-05
-9.01895e-05
1.63528e-05
-0.000110875
4.65363e-05
-8.96499e-05
4.41186e-05
-6.06341e-05
4.06426e-05
-5.73563e-05
4.50522e-05
-3.57414e-05
5.17886e-05
-5.90304e-05
4.25983e-05
-2.98443e-05
4.9121e-05
-5.22196e-05
5.89794e-05
-5.70896e-05
-5.54736e-05
7.2749e-05
-8.07569e-06
0.000348366
5.76132e-05
0.000419352
-4.09659e-05
0.000516794
-1.08579e-05
0.000548085
-3.49586e-05
0.000576811
1.15218e-05
0.00029713
3.62707e-05
0.000290468
3.84756e-05
0.000116833
4.17446e-05
-8.70721e-06
1.84229e-05
-5.90285e-05
3.83451e-05
-0.00013441
3.91354e-05
-8.25718e-05
6.6432e-05
-0.000117486
6.54859e-05
-0.000109929
5.99825e-05
-8.41463e-05
6.18945e-05
-6.25461e-05
6.1133e-05
-5.65947e-05
7.19125e-05
-4.65207e-05
3.94565e-05
-2.65743e-05
6.78044e-05
-5.81922e-05
5.46008e-05
-3.9016e-05
3.16125e-05
-3.41012e-05
-6.16491e-05
3.7788e-05
-2.75343e-05
0.0003759
-6.11038e-06
0.000397928
-1.284e-05
0.000523523
-1.23738e-05
0.000547619
-3.9598e-05
0.000604035
-4.2669e-06
0.000261798
1.87486e-05
0.000267452
3.42441e-05
0.000101338
4.28488e-05
-1.73119e-05
7.57895e-05
-9.19689e-05
2.29521e-05
-8.15728e-05
6.57081e-05
-0.000125328
6.84484e-05
-0.000120226
7.23071e-05
-0.000113788
8.03992e-05
-9.22383e-05
7.18465e-05
-5.39931e-05
7.80975e-05
-6.28455e-05
6.73727e-05
-3.57958e-05
6.34032e-05
-2.26046e-05
5.98965e-05
-5.46853e-05
7.25692e-05
-5.16887e-05
8.79809e-05
-4.95129e-05
-6.81422e-05
9.4474e-05
-6.62901e-05
0.00044219
-9.25864e-06
0.000340896
-4.38734e-06
0.000518652
-1.08114e-05
0.000554043
-3.37189e-06
0.000596595
1.17161e-05
0.000246711
3.1931e-05
0.000247237
3.53508e-05
9.79184e-05
2.68912e-05
-8.85208e-06
3.01049e-05
-9.51823e-05
7.87616e-05
-0.000130229
8.12891e-05
-0.000127855
8.24701e-05
-0.000121407
4.20002e-05
-7.33179e-05
4.31556e-05
-9.33936e-05
4.41767e-05
-5.50141e-05
4.47456e-05
-6.34142e-05
5.09261e-05
-4.19762e-05
8.19061e-05
-5.35845e-05
8.32488e-05
-5.60279e-05
8.04808e-05
-4.89206e-05
7.83949e-05
-4.7427e-05
-5.1675e-05
6.19277e-05
-5.27194e-05
0.00049491
-7.20798e-05
0.000360256
4.95117e-06
0.000441621
1.31371e-05
0.000545857
2.72475e-05
0.000582484
2.41834e-05
0.000249775
3.81812e-05
0.00023324
4.33256e-05
9.2774e-05
8.76779e-05
-5.32041e-05
7.56961e-05
-8.32001e-05
9.05628e-05
-0.000145096
0.000100025
-0.000137317
0.000102988
-0.00012437
0.00011606
-8.63903e-05
0.000102172
-7.95049e-05
0.000127686
-8.05278e-05
0.000106457
-4.21853e-05
8.70141e-05
-2.25333e-05
8.71825e-05
-5.37528e-05
9.5999e-05
-6.48443e-05
9.88816e-05
-5.18031e-05
0.000101973
-5.05186e-05
-2.48285e-05
7.51268e-05
-3.17554e-05
0.000526665
-4.78769e-05
0.000376378
-1.65587e-05
0.000410303
8.1721e-05
0.000447578
9.72153e-05
0.00056699
6.82874e-05
0.000278702
0.000119585
0.000181942
0.000148024
6.43352e-05
0.000158471
-6.36507e-05
0.000159032
-8.37611e-05
0.000153497
-0.00013956
0.00014644
-0.00013026
0.000134408
-0.000112338
0.000125725
-7.7708e-05
9.90703e-05
-5.28497e-05
7.18435e-05
-5.33009e-05
7.64747e-05
-4.68164e-05
0.000101881
-4.7939e-05
8.68808e-05
-3.87529e-05
5.67453e-05
-3.47086e-05
5.90339e-05
-5.40917e-05
5.97618e-05
-5.12465e-05
-4.075e-05
7.56832e-05
1.81624e-06
0.000524849
-2.22726e-05
0.000400467
-1.39071e-05
0.000401937
4.02853e-05
0.000393385
0.000210319
0.000396956
0.00020118
0.000287842
0.000210247
0.000172875
0.000221599
5.29832e-05
0.000227259
-6.93108e-05
0.000219533
-7.60351e-05
0.000194433
-0.00011446
0.000165046
-0.000100873
0.000133408
-8.06986e-05
0.000115457
-5.97572e-05
0.000120457
-5.78501e-05
7.87837e-05
-1.1627e-05
6.42633e-05
-3.2296e-05
3.92857e-05
-2.29613e-05
5.12417e-05
-5.07087e-05
7.18783e-05
-5.53453e-05
6.648e-05
-4.86934e-05
6.03009e-05
-4.50674e-05
-5.21819e-05
7.17328e-05
8.40743e-05
0.000440774
3.31894e-05
0.000451352
4.55168e-05
0.00038961
9.65157e-05
0.000342386
0.000162603
0.000330868
0.000186054
0.000264392
0.000217469
0.000141459
0.000245356
2.50963e-05
0.000243891
-6.78451e-05
0.00023218
-6.43242e-05
0.000192789
-7.50695e-05
0.000166923
-7.50066e-05
0.000127014
-4.07891e-05
0.000117664
-5.04078e-05
7.91259e-05
-1.93115e-05
8.84631e-05
-2.09641e-05
8.53839e-05
-2.92167e-05
0.000112265
-4.98427e-05
0.000101964
-4.04075e-05
7.0578e-05
-2.3959e-05
7.38549e-05
-5.19703e-05
7.08462e-05
-4.20587e-05
-5.0678e-05
6.93423e-05
3.43254e-05
0.000406449
4.30582e-05
0.000442619
4.81565e-05
0.000384511
8.23921e-05
0.000308151
0.000141407
0.000271853
0.000196125
0.000209674
0.000247723
8.98618e-05
0.000261447
1.13725e-05
0.000235078
-4.14763e-05
0.000210822
-4.00681e-05
0.000181888
-4.61353e-05
0.000157847
-5.09658e-05
0.000145434
-2.83757e-05
0.000137168
-4.21421e-05
0.000141208
-2.33508e-05
0.000138002
-1.77581e-05
0.000131535
-2.27503e-05
0.000112575
-3.08827e-05
0.0001091
-3.69321e-05
0.00011569
-3.05493e-05
8.91636e-05
-2.54436e-05
8.85582e-05
-4.14533e-05
-3.53498e-05
7.32299e-05
2.30685e-05
0.000383381
7.37935e-05
0.000391894
0.000101259
0.000357045
0.000129734
0.000279677
0.000189345
0.000212241
0.000254285
0.000144735
0.00028373
6.04162e-05
0.000278055
1.70479e-05
0.000242248
-5.66927e-06
0.000216081
-1.39013e-05
0.000188187
-1.82409e-05
0.000164634
-2.74133e-05
0.000154416
-1.81577e-05
0.00013733
-2.50562e-05
0.000134552
-2.05724e-05
0.000129422
-1.26281e-05
0.000122385
-1.57136e-05
0.000119091
-2.75885e-05
0.00010306
-2.0901e-05
9.61321e-05
-2.36212e-05
7.85629e-05
-7.87439e-06
8.79516e-05
-5.0842e-05
-3.201e-05
8.46118e-05
4.09115e-05
0.000342469
9.15023e-05
0.000341303
0.000137439
0.000311108
0.000177388
0.000239728
0.000226122
0.000163507
0.000263389
0.000107468
0.000264268
5.95374e-05
0.000247745
3.35707e-05
0.000223956
1.81196e-05
0.000200974
9.08098e-06
0.000176441
6.29211e-06
0.000155112
-6.08416e-06
0.000146638
-9.68372e-06
0.000151625
-3.00432e-05
0.000140391
-9.33795e-06
0.000124486
3.27666e-06
0.000110269
-1.49664e-06
0.000107269
-2.45887e-05
0.000115142
-2.87737e-05
0.000107655
-1.61345e-05
0.000117926
-1.81452e-05
8.41265e-05
-1.70424e-05
-3.33758e-05
8.54922e-05
5.73974e-05
0.000285072
0.000108724
0.000289976
0.000166365
0.000253467
0.000213399
0.000192695
0.000236324
0.000140582
0.000244273
9.95186e-05
0.000233943
6.98667e-05
0.000217233
5.02807e-05
0.000200007
3.53458e-05
0.000182624
2.64647e-05
0.000161607
2.73092e-05
0.000146476
9.04611e-06
0.000131754
5.03892e-06
9.24813e-05
9.22932e-06
8.41664e-05
-1.0229e-06
7.47234e-05
1.27196e-05
9.77139e-05
-2.4487e-05
8.66819e-05
-1.35567e-05
6.22701e-05
-4.36187e-06
6.15259e-05
-1.53902e-05
6.85287e-05
-2.5148e-05
9.12244e-05
-3.97382e-05
-3.8767e-05
9.66156e-05
5.59607e-05
0.000229111
0.000107831
0.000238106
0.000156771
0.000204528
0.000190305
0.000159161
0.000203212
0.000127675
0.000203774
9.89563e-05
0.00019649
7.71513e-05
0.000186054
6.07169e-05
0.000176375
4.50243e-05
0.000165368
3.74714e-05
0.000148057
4.46206e-05
0.000136989
2.01139e-05
0.000128371
1.36568e-05
9.6606e-05
4.09947e-05
9.02472e-05
5.33594e-06
0.000112596
-9.62912e-06
0.000100618
-1.25088e-05
7.45774e-05
1.24838e-05
7.92286e-05
-9.01304e-06
0.000108401
-4.45628e-05
9.76526e-05
-1.43995e-05
7.5235e-05
-1.73206e-05
-5.27524e-05
8.92204e-05
4.34324e-05
0.000185679
8.87298e-05
0.000192808
0.000125764
0.000167494
0.000147449
0.000137475
0.000158402
0.000116722
0.000160779
9.65789e-05
0.000158926
7.90046e-05
0.000154368
6.52747e-05
0.0001486
5.07928e-05
0.000142555
4.35163e-05
0.000131193
5.59828e-05
0.000126684
2.46224e-05
0.000128559
1.17824e-05
0.000129438
4.0116e-05
0.000114297
2.04761e-05
0.000107267
-2.59862e-06
7.84253e-05
1.63329e-05
0.000100461
-9.55234e-06
0.000100676
-9.22775e-06
7.08554e-05
-1.47421e-05
0.000104845
-4.8389e-05
0.000121478
-3.3954e-05
-5.36567e-05
0.000122382
3.12892e-05
0.000154389
6.70419e-05
0.000157056
9.52825e-05
0.000139253
0.000112431
0.000120327
0.000123364
0.000105789
0.00012933
9.0613e-05
0.000131802
7.65319e-05
0.000132247
6.48303e-05
0.000130036
5.30034e-05
0.000126888
4.66639e-05
0.000117241
6.56299e-05
0.000102676
3.91876e-05
7.96582e-05
3.48003e-05
7.26891e-05
4.70851e-05
6.02598e-05
3.29055e-05
5.8927e-05
-1.26577e-06
9.02524e-05
-1.49925e-05
9.2505e-05
-1.18049e-05
0.000103148
-1.98713e-05
0.00011266
-2.42535e-05
0.000107726
-4.34555e-05
0.000108776
-3.50036e-05
-5.55026e-05
0.000110622
2.2835e-05
0.000131554
4.8911e-05
0.000130979
6.98617e-05
0.000118302
8.36288e-05
0.00010656
9.3464e-05
9.59541e-05
9.98603e-05
8.42167e-05
0.000102951
7.34413e-05
0.000104178
6.36034e-05
0.000103595
5.35857e-05
0.000102752
4.75077e-05
9.73596e-05
7.10218e-05
9.74904e-05
3.90568e-05
7.73418e-05
5.49489e-05
7.23932e-05
5.20337e-05
9.57199e-05
9.57877e-06
9.13863e-05
3.06784e-06
9.32384e-05
-1.68446e-05
8.88015e-05
-7.36794e-06
8.0097e-05
-1.11668e-05
6.23536e-05
-6.5102e-06
6.33889e-05
-4.44909e-05
5.45564e-05
-2.61711e-05
-6.48451e-05
6.38989e-05
1.78703e-05
0.000113684
3.72399e-05
0.00011161
5.28014e-05
0.000102741
6.47464e-05
9.46147e-05
7.38536e-05
8.68468e-05
8.16322e-05
7.64382e-05
8.64942e-05
6.85793e-05
9.27167e-05
5.73809e-05
9.7247e-05
4.90554e-05
7.64346e-05
6.83201e-05
7.47364e-05
7.272e-05
6.07814e-05
5.30117e-05
7.70137e-05
3.87167e-05
0.000101916
2.71312e-05
9.01137e-05
2.13813e-05
8.88842e-05
4.29736e-06
5.6746e-05
1.52936e-05
6.0735e-05
-1.1357e-05
5.49391e-05
-5.37084e-06
8.44649e-05
-3.6036e-05
6.12448e-05
-2.12708e-05
0.000101508
-6.64349e-05
-5.59838e-05
9.26471e-05
1.32774e-05
0.000100406
2.70249e-05
9.78624e-05
3.83883e-05
9.13774e-05
4.72771e-05
8.57259e-05
5.44329e-05
7.9691e-05
5.99887e-05
7.08824e-05
6.31749e-05
6.53931e-05
6.73888e-05
5.3167e-05
6.66944e-05
4.97497e-05
6.3081e-05
7.19335e-05
5.74123e-05
7.83886e-05
6.15764e-05
4.88475e-05
5.73885e-05
4.29046e-05
7.3446e-05
1.10737e-05
7.03049e-05
2.45223e-05