/*--------------------------------*- C++ -*----------------------------------*\
| =========                 |                                                 |
| \\      /  F ield         | foam-extend: Open Source CFD                    |
|  \\    /   O peration     | Version:     4.1                                |
|   \\  /    A nd           | Web:         http://www.foam-extend.org         |
|    \\/     M anipulation  |                                                 |
\*---------------------------------------------------------------------------*/
FoamFile
{
    version     2.0;
    format      ascii;
    class       volScalarField;
    location    "0.65";
    object      psi;
}
// * * * * * * * * * * * * * * * * * * * * * * * * * * * * * * * * * * * * * //

dimensions      [1 -1 -2 0 0 0 0];

internalField   nonuniform List<scalar> 
2268
(
0.233652
0.228173
0.195904
0.173639
0.153107
0.158518
0.173991
0.146155
0.0695968
-0.0144235
-0.0584819
-0.07108
-0.0618265
-0.0415009
-0.021031
-0.00458807
0.00566265
0.00941404
0.0109507
0.0104982
0.00685117
-0.00241575
-0.00948966
0.295473
0.290229
0.240725
0.2075
0.179157
0.181574
0.183736
0.131475
0.0399308
-0.0447569
-0.082504
-0.0888217
-0.0747977
-0.0498731
-0.0264059
-0.00821696
0.00322285
0.0079077
0.00970265
0.00719794
0.000748489
-0.0100342
-0.0179234
0.316912
0.318466
0.238178
0.201039
0.165622
0.167064
0.140366
0.0435748
-0.0652795
-0.13492
-0.146318
-0.137062
-0.107481
-0.0720659
-0.0419923
-0.0208128
-0.00523722
0.00144464
0.00427793
-0.000737736
-0.00860967
-0.0130096
-0.0155525
0.283603
0.29303
0.172568
0.146795
0.0945209
0.0901516
0.0173705
-0.12297
-0.227078
-0.255264
-0.227078
-0.196457
-0.148794
-0.102678
-0.0654638
-0.039861
-0.0182332
-0.00909913
-0.00340033
-0.00907215
-0.011498
0.00824137
0.0259338
0.1087
0.13512
-0.0230691
-0.00898702
-0.0989455
-0.113492
-0.23976
-0.372091
-0.431056
-0.385447
-0.317281
-0.262955
-0.204015
-0.150278
-0.104876
-0.0725277
-0.0408761
-0.0269733
-0.0124611
-0.00965983
0.00898749
0.0806959
0.150361
-0.256462
-0.17145
-0.357878
-0.286395
-0.45371
-0.488054
-0.642437
-0.687501
-0.626793
-0.519346
-0.415721
-0.347867
-0.284079
-0.227458
-0.174219
-0.130638
-0.0785885
-0.0606448
-0.0277849
0.00162799
0.0610318
0.200809
0.371927
-0.651071
-0.449225
-0.64582
-0.550618
-0.846352
-0.921456
-1.05964
-0.967754
-0.782925
-0.663145
-0.542712
-0.471734
-0.400538
-0.345964
-0.288775
-0.226037
-0.139784
-0.104787
-0.0539699
0.0206393
0.124884
0.342229
0.615457
-0.782143
-0.500224
-0.703756
-0.698184
-1.26703
-1.3865
-1.45579
-1.25262
-0.992326
-0.863669
-0.739162
-0.669828
-0.576338
-0.530497
-0.478952
-0.385536
-0.261328
-0.187205
-0.117373
0.0316606
0.129933
0.377936
0.581838
1.80022
1.85245
1.24417
-0.360825
-2.4394
-3.92487
-4.06205
-2.52306
-0.158168
2.41619
3.04701
2.7577
3.34431
2.28447
1.32913
1.04693
0.105871
0.0112931
-0.111317
1.81569
2.27969
2.99821
3.65342
1.93965
-0.0556913
-1.64771
-3.83801
-4.84084
-2.31075
1.21668
1.9765
1.81739
2.81748
2.00731
1.68755
1.8176
0.410248
-0.0808856
2.07984
2.62008
2.95225
3.0787
3.86288
2.40007
1.5897
-0.24234
-0.770693
-4.60772
-3.1566
-0.0779581
0.103576
1.30183
2.03099
2.00501
2.74417
1.27323
0.139846
2.21235
2.866
2.02239
1.56336
2.68067
1.21124
0.965619
1.3792
2.4234
-2.26983
-4.44979
-0.943686
-0.994514
0.11962
1.72182
1.99855
1.07084
2.22995
0.436762
2.44094
2.93595
0.9874
0.310935
-0.907946
-1.91685
-0.611702
-0.0733902
1.02261
1.857
-1.10269
-1.09596
-0.679091
0.0105502
1.23946
2.26012
-0.003305
1.56236
0.826092
2.66771
2.76946
0.469652
0.223219
-1.10332
-1.5645
-2.14763
-1.40266
-0.646552
1.68485
1.82556
-3.21601
-1.14437
-0.0141157
0.890269
2.10048
0.647074
1.05205
1.25797
2.94178
2.76485
0.454519
-0.250248
0.086774
-0.504318
-2.19499
-2.09707
-2.51584
-0.685098
2.26196
1.00182
1.90593
0.600339
0.852183
1.71546
1.65825
1.58465
1.60259
2.67504
3.49085
1.06484
-0.467786
0.474803
0.139065
-1.7593
-2.3615
-2.85823
-2.34898
1.21082
3.22286
4.20657
1.59362
-0.0428807
1.11217
0.988103
0.86756
1.86434
0.371152
0.477612
-0.0395649
-0.244515
-1.61245
-1.7373
-1.86992
-1.76466
-1.45781
-1.32373
-1.20407
-1.1567
-0.982532
-0.944005
-0.928867
-0.76952
-0.513676
-0.385864
-0.30026
-0.137305
-0.0902195
0.119283
-0.529669
0.373642
0.50894
0.404749
0.949259
1.5268
1.16563
-0.0460246
-1.03971
-0.959128
-1.05153
-1.06991
-1.33025
-1.18072
-1.13521
-1.1665
-1.0112
-0.663823
-0.456566
-0.953803
-0.48461
-0.545909
-0.269841
-1.17766
0.369548
0.667894
1.38242
2.12949
2.34107
1.5416
1.31323
0.448844
0.474834
0.0097343
-0.466252
-0.212908
-1.17534
-0.424982
-0.571545
-0.75153
-0.634416
-1.30774
-0.555764
-1.62429
-1.22052
-0.234819
1.34423
0.449862
0.936248
1.37721
1.38919
1.35644
1.73774
1.95861
2.132
1.40014
1.47792
1.30601
1.56152
1.1043
1.05054
1.07016
0.636602
0.665526
-0.0287747
0.993222
-0.588272
-0.367616
-0.506736
1.16514
0.412331
0.702381
0.790523
0.858105
1.26686
1.80405
1.74308
1.77765
1.20862
1.04138
0.771867
0.661424
0.696125
0.271352
0.204178
0.466739
0.504796
0.484882
0.324403
-0.124057
-0.710816
1.1697
2.31756
0.327717
0.453201
0.480505
0.640234
0.895373
1.04984
0.933911
0.710032
0.460939
0.354802
0.332206
0.351218
0.385163
0.479512
0.796356
1.12678
1.34754
1.70294
1.84295
1.53686
1.64264
0.713292
1.41789
0.271049
0.313424
0.375181
0.500762
0.595003
0.565119
0.517077
0.390091
0.681969
1.20007
1.63815
1.9943
2.28041
2.53493
2.72481
2.86962
2.97298
2.98312
2.95374
2.85307
2.60047
2.36074
1.93514
0.228674
0.204334
0.279882
0.293272
0.31334
0.284649
0.252995
0.183177
0.57417
0.902234
1.26119
1.68047
2.05913
2.37905
2.60419
2.72548
2.8263
3.06489
3.26906
3.3836
3.23649
2.99283
2.53011
0.183217
0.121215
0.14074
0.0763107
0.115836
0.252935
0.316912
0.476051
1.09719
1.50042
1.7654
1.94847
2.00109
2.00463
1.98392
1.8629
2.22326
2.26323
2.60298
2.97724
2.98416
3.45982
3.77516
0.139923
0.0804612
0.150919
0.232376
0.361074
0.44698
0.798553
1.11808
1.21441
1.19184
1.14124
0.825723
0.516479
0.423316
0.380469
0.416491
0.630417
0.546489
0.624076
0.85208
0.962907
1.49517
1.65618
0.110428
0.0550496
0.144014
0.269582
0.482355
0.587258
0.703894
0.764109
0.790475
0.744215
0.66324
0.414201
0.0766569
0.0147653
0.0168539
0.0720591
0.193593
0.230201
0.299452
0.387958
0.514036
0.767256
0.834729
0.0883461
0.0611893
0.172161
0.310749
0.425717
0.473595
0.429578
0.338879
0.404356
0.415613
0.319769
0.0613895
-0.0145613
-0.0165604
-0.0137165
0.00443611
0.0586096
0.113056
0.169781
0.225391
0.315135
0.460441
0.559761
0.0670307
0.0549656
0.161056
0.278377
0.320972
0.310092
0.287849
0.298856
0.315554
0.192107
0.0589533
-0.00264732
-0.010646
-0.00682739
-0.000942233
0.0203598
0.04964
0.07739
0.100222
0.115988
0.135129
0.191053
0.237877
0.0395514
0.034775
0.118338
0.189256
0.182185
0.121262
0.18675
0.254905
0.241405
0.0560859
-0.000766778
-0.00847797
-0.00412019
-0.00313183
0.00601727
0.0430024
0.0615303
0.0629714
0.0657111
0.0855658
0.130861
0.177439
0.180438
0.0228903
0.016562
0.0499262
0.100455
0.0765051
0.0380134
0.141942
0.231229
0.163264
0.00788753
-0.00439485
-0.00268547
-0.00155404
-0.00192387
-0.00489779
-0.00798366
-0.00478322
-0.00200725
0.00400586
0.00937257
0.00520781
0.0225182
0.055511
0.0225852
0.0150908
0.0286887
0.0512051
0.0288031
0.0263726
0.143115
0.223209
0.0873518
-0.00395336
-0.00194858
-0.000278845
0.000161853
-8.45821e-05
-0.000570848
-0.0025629
-0.00421105
-0.00473008
-0.00330516
-0.000678519
-0.00283832
-0.00368222
0.00334282
0.0286767
0.0178494
0.0193656
0.0189262
0.0110716
0.0349707
0.150281
0.196988
0.0258628
-0.00231065
0.00172381
0.00133757
0.000337283
-5.19542e-05
-8.77172e-05
-0.000154475
-0.000360406
-0.000917752
-0.00140381
-0.00125582
-0.00143703
-0.00232586
-0.00363922
0.0349723
0.0190682
0.00861297
0.00966636
0.0127165
0.0584695
0.157349
0.148188
0.0201592
0.0014345
0.00279801
0.00150769
0.000392494
-4.49552e-05
-0.000123343
-0.000107557
4.07109e-06
4.87131e-05
-3.69513e-05
-0.000315292
-0.000418269
-0.000497104
-0.000994615
0.035881
0.0151219
0.00643628
0.00899138
0.0218316
0.10111
0.14984
0.0715115
0.0038862
0.00233681
0.00271002
0.00162949
0.000322723
1.15893e-05
-6.14968e-05
-7.13215e-05
-4.00499e-05
6.24844e-06
4.55043e-05
2.72256e-05
1.34704e-05
1.45882e-05
-1.9308e-05
0.0360917
0.0125113
0.00755708
0.0119364
0.066262
0.118906
0.113219
0.0269828
0.00606075
0.00452289
0.00136605
0.000469344
3.06963e-05
-4.44447e-05
-2.92337e-05
-2.20706e-05
-1.96332e-05
-1.31838e-05
4.05579e-06
1.58538e-05
1.79197e-05
2.02609e-05
2.97837e-05
0.0387246
0.0100054
0.017662
0.0412891
0.0940424
0.116331
0.0788926
0.026696
0.0116274
0.00277922
0.000143099
3.00715e-05
-1.93366e-05
-1.01458e-05
-6.92325e-06
-6.51167e-06
-5.56249e-06
-4.27596e-06
-2.09143e-06
9.12087e-07
1.8514e-06
3.52087e-06
5.27592e-06
0.0448935
0.0139992
0.0392274
0.0761716
0.102377
0.0971213
0.0547208
0.0215592
0.00676706
0.0013692
0.000384868
-5.42168e-05
-1.58328e-05
-6.75776e-06
-2.27819e-06
-1.4132e-06
-8.50893e-07
-2.7634e-07
-3.58967e-08
-8.0972e-08
-2.94816e-07
-4.1552e-07
-7.63888e-07
0.0516368
0.0283499
0.0653244
0.0933437
0.105125
0.0774501
0.0518563
0.0193097
0.00343919
-0.000154719
-0.000176222
-4.10622e-05
-1.73524e-05
-6.13791e-06
-3.78363e-07
3.37593e-07
5.73181e-07
5.11387e-07
3.41451e-07
1.69921e-07
-4.37708e-09
-1.14622e-07
-2.59469e-07
0.0595128
0.0616588
0.0883506
0.10328
0.104795
0.0803523
0.0422531
0.00810154
0.00320665
0.00153163
0.000415219
4.09746e-05
-1.13543e-05
-3.90797e-06
-2.06439e-07
3.39932e-07
4.07903e-07
3.89487e-07
2.51441e-07
8.40522e-08
2.59398e-08
1.19226e-08
3.83789e-09
0.0662013
0.0807434
0.0992609
0.107951
0.106838
0.0911659
0.0509317
0.0277027
0.0131886
0.00420959
0.000953762
0.000161054
2.41685e-05
5.75602e-07
-1.50877e-07
1.63327e-07
1.68857e-07
1.16479e-07
4.79023e-08
3.97888e-09
-5.91325e-09
1.22388e-09
9.0983e-09
0.071292
0.0827885
0.0976251
0.106978
0.105915
0.100929
0.0765684
0.0396381
0.0133501
0.0036801
0.000596298
1.97379e-05
-2.03112e-05
-5.98969e-06
-8.27624e-07
4.855e-08
6.30194e-08
1.59291e-08
-7.69473e-09
-7.35504e-09
-3.95631e-09
-1.62667e-09
7.91909e-10
0.0760558
0.0805609
0.0948669
0.100191
0.103087
0.0960133
0.0616207
0.0190232
0.00215344
-7.51261e-05
-0.000205025
-7.51373e-05
-1.52069e-05
-2.12428e-06
-1.25069e-07
4.14395e-08
2.77584e-08
8.9433e-09
8.07594e-10
-1.24744e-09
-1.04637e-09
-1.05855e-09
-1.05622e-09
0.0778032
0.0817703
0.0874543
0.0770162
0.0766148
0.0590028
0.0191458
0.000620441
-0.000958447
-0.000428955
-0.000117865
-2.18626e-05
-2.72412e-06
-1.76693e-07
3.92847e-08
1.41282e-08
7.18329e-09
3.05809e-09
4.59632e-10
-4.68482e-11
-3.3877e-10
-8.18577e-10
-9.5949e-10
0.0786728
0.0816805
0.0780628
0.054144
0.0345503
0.015824
0.00148515
-0.000767705
-0.000389646
-0.000109983
-1.94521e-05
-1.79503e-06
7.83157e-08
9.33736e-08
1.4168e-08
-5.09524e-10
-1.10269e-09
-6.39028e-10
-3.86482e-10
-2.60218e-10
-5.43267e-10
-9.33618e-10
-1.05373e-09
0.0752873
0.0738357
0.0606135
0.0312586
0.0113873
0.00231796
-0.000517371
-0.000390169
-0.000114525
-1.94221e-05
-1.37845e-06
2.05547e-07
1.08273e-07
1.4874e-08
-6.62775e-10
-1.55684e-09
-9.95964e-10
-4.45883e-10
-2.37374e-10
-1.66554e-10
-1.09666e-09
-1.57005e-09
-1.72189e-09
0.048921
0.0444733
0.0279388
0.00958602
0.0018776
-0.000303672
-0.000351578
-0.000115757
-2.16905e-05
-1.99325e-06
7.95021e-08
7.39009e-08
9.85741e-09
-8.59657e-10
-8.2595e-10
-3.9943e-10
-1.34426e-10
-3.49361e-11
-5.49804e-11
-1.15215e-09
-2.76177e-09
-3.17528e-09
-3.18732e-09
0.0117312
0.010853
0.00523984
0.000517171
-0.00041446
-0.000313779
-0.000105839
-2.08988e-05
-2.15488e-06
1.90132e-08
5.14282e-08
7.43406e-09
-5.96103e-10
-4.52045e-10
-1.09329e-10
-4.50609e-11
6.81131e-11
1.25716e-10
-8.37721e-11
-2.40814e-09
-4.15659e-09
-5.44766e-09
1.82694e-09
0.000815573
0.00104782
8.65997e-06
-0.000448038
-0.000234739
-7.72444e-05
-1.5568e-05
-1.57979e-06
3.60012e-08
5.09234e-08
7.46711e-09
-1.23078e-10
-2.23578e-10
-5.88164e-11
-1.68264e-11
3.403e-11
1.18444e-10
2.52248e-10
-5.33564e-10
-4.11735e-09
-4.84307e-09
-7.77724e-12
1.53814e-08
-0.000246403
-0.000159736
-0.000214729
-0.000134521
-4.24934e-05
-8.57886e-06
-7.64293e-07
7.28654e-08
4.60659e-08
6.28432e-09
6.28079e-11
-1.53372e-10
-1.67224e-11
-5.87628e-13
1.27698e-11
1.12062e-10
2.34527e-10
7.28699e-11
-4.34279e-09
-8.69507e-09
-1.10841e-09
5.62385e-08
1.05042e-07
-8.12217e-05
-6.68592e-05
-4.85823e-05
-1.81271e-05
-3.52593e-06
-2.22441e-07
8.30277e-08
3.20047e-08
4.00003e-09
-1.16131e-10
-1.11409e-10
-1.64792e-11
-1.22577e-12
-1.88212e-12
4.64064e-11
1.80565e-10
3.05992e-10
-1.42773e-09
-7.13301e-09
-1.04135e-08
7.39228e-08
1.79999e-07
2.26981e-07
-1.15255e-05
-9.95753e-06
-5.26169e-06
-1.0976e-06
-8.14509e-09
5.62003e-08
1.66624e-08
1.76758e-09
-1.70672e-10
-8.18663e-11
-1.03019e-11
-1.37462e-12
-5.29182e-12
-9.77503e-13
1.0965e-10
3.32559e-10
-5.5793e-11
-5.84238e-09
-1.34e-08
5.93723e-09
1.79069e-07
3.1365e-07
5.42934e-07
-8.83835e-07
-7.73755e-07
-2.48208e-07
1.70434e-08
2.78338e-08
7.03811e-09
4.82768e-10
-1.64797e-10
-5.16372e-11
-4.21962e-12
-8.26294e-13
-4.22271e-12
-4.96047e-12
6.21348e-11
2.18174e-10
3.4123e-10
-2.29633e-09
-1.14784e-08
-1.68274e-08
7.35044e-08
3.53521e-07
5.70941e-07
1.1724e-07
-2.19399e-08
-2.01724e-08
8.36963e-09
9.20958e-09
2.29979e-09
4.05493e-11
-9.08327e-11
-2.49791e-11
-9.12301e-13
2.33295e-13
-2.99823e-12
-6.92791e-12
1.33732e-11
1.67364e-10
4.1999e-10
1.60239e-10
-6.84443e-09
-2.18923e-08
3.13149e-09
3.34255e-07
6.35087e-07
1.30828e-08
-1.69103e-06
2.57054e-09
1.97651e-09
1.88893e-09
5.74769e-10
-2.69531e-11
-4.60597e-11
-1.0145e-11
2.85656e-13
4.19558e-13
-1.41587e-12
-5.12861e-12
3.64177e-12
1.13544e-10
2.943e-10
3.14313e-10
-2.76879e-09
-1.5308e-08
-2.94155e-08
8.41157e-08
6.0413e-07
1.02111e-06
-1.86641e-06
-7.1499e-06
2.67125e-10
2.0925e-10
7.65041e-11
-1.2144e-11
-1.58158e-11
-2.75822e-12
3.90274e-13
4.23592e-13
-1.80314e-13
-2.70984e-12
-5.83824e-12
1.96545e-11
1.68287e-10
2.76044e-10
-1.41784e-09
-9.32365e-09
-2.16636e-08
1.22575e-08
3.50223e-07
1.03234e-06
1.37896e-06
-4.37503e-06
-2.05097e-05
6.37889e-12
2.79521e-12
-3.72886e-12
-3.69087e-12
-6.9191e-13
2.58044e-13
3.43794e-13
1.75607e-13
-1.1922e-12
-3.93418e-12
-2.15105e-13
6.76585e-11
2.07942e-10
-1.04197e-10
-4.25593e-09
-1.26393e-08
-1.19854e-08
9.94632e-08
6.00297e-07
1.33216e-06
1.24394e-06
-5.53958e-06
-2.93407e-05
-6.97093e-13
-6.95294e-13
-5.82488e-13
-8.64249e-14
1.19353e-13
1.10728e-13
3.47903e-13
3.93695e-14
-1.5701e-12
-2.6236e-12
1.54795e-11
1.08436e-10
2.01819e-10
-4.9479e-10
-5.34841e-09
-1.35449e-08
-2.07582e-09
1.39119e-07
6.82998e-07
1.46832e-06
1.30235e-06
-5.61772e-06
-3.27472e-05
-0.282334
1.97237
3.03927
-0.353284
-5.48767
-3.97492
-0.451332
4.10583
-3.84571
-2.9618
0.460922
4.91732
-2.79865
-1.8166
-0.0722256
1.42683
4.57303
0.173302
-0.547834
0.842886
3.8635
3.74838
3.18411
3.57238
2.27903
2.13841
1.7942
1.82319
2.44465
2.47635
2.58497
2.73995
3.59274
3.79628
3.81171
3.73741
1.39993
1.55407
1.72844
1.84111
0.814628
0.922984
1.05324
1.17658
0.64641
0.686855
0.688376
0.722393
0.267767
0.249437
0.181541
0.110033
0.17578
0.163691
0.159564
0.148661
0.0784158
0.082078
0.0709037
0.049216
0.0143308
0.0197385
0.0221506
0.0187578
-0.00341238
-0.00205076
-6.85443e-05
0.00145404
-0.00155556
-0.0018338
-0.00192126
-0.0018525
-9.78597e-05
-0.000192826
-0.000328479
-0.000481217
4.395e-05
4.96385e-05
4.63933e-05
1.69197e-05
1.046e-05
1.76308e-05
2.6137e-05
3.5171e-05
-1.33124e-06
-5.47021e-07
2.39201e-06
7.86109e-06
-5.92698e-07
-8.32131e-07
-9.14879e-07
-4.99486e-07
-4.41191e-08
-1.59409e-07
-2.83494e-07
-3.92276e-07
1.79488e-08
1.04268e-08
-1.53542e-08
-5.3322e-08
4.89959e-09
6.5404e-09
6.68827e-09
5.95215e-09
-1.19466e-09
-1.78443e-09
-2.76725e-09
-6.09782e-10
-2.29398e-09
-4.23623e-09
-5.9457e-09
-1.65821e-09
-3.26599e-09
-5.7798e-09
-6.6991e-09
8.37953e-09
-5.13902e-09
-2.86006e-09
8.8304e-09
4.58341e-08
-1.05272e-08
1.03013e-08
8.31288e-08
2.0466e-07
-2.16762e-09
6.02479e-08
2.15186e-07
3.96576e-07
1.95736e-08
1.80346e-07
5.97743e-07
9.98273e-07
2.54115e-07
6.53053e-07
1.46982e-06
2.22158e-06
5.63025e-07
8.05212e-07
1.77776e-06
1.32687e-06
8.02306e-07
8.28937e-07
1.93569e-07
-5.80381e-06
-3.84382e-06
-1.01151e-05
-1.56263e-05
-2.81854e-05
-1.13289e-05
-2.86404e-05
-4.51243e-05
-5.87398e-05
-2.2593e-05
-4.5974e-05
-8.14106e-05
-0.000100179
-5.05295e-05
-7.56679e-05
-0.000104885
-0.000128721
-6.60595e-05
-9.85232e-05
-0.000125435
-0.000144697
-6.79847e-05
-0.000103138
-0.000132402
-0.000148436
0.690903
3.54506
1.54541
0.129925
0.775382
-0.236336
-1.75275
-2.19667
-1.78059
-2.15331
-1.12558
0.0985093
0.15855
2.92046
3.6659
1.94281
0.864285
1.19643
2.04792
2.05856
2.57854
0.353984
0.0647072
1.89873
1.8027
-1.4676
-0.866316
-0.156822
1.8845
-1.23531
0.312528
1.49063
1.69356
2.79448
1.88739
0.335991
1.18047
1.71188
2.98291
0.268684
0.824052
2.5109
0.819818
0.0982409
-0.436256
1.20867
1.71317
2.33498
0.463065
0.108769
2.5615
2.45689
3.34758
0.681888
0.138938
0.958693
1.25246
2.00265
0.280629
1.98606
3.65321
1.65967
0.463442
1.68314
2.77887
1.47917
1.34227
1.1178
0.460602
3.96593
3.12354
3.09759
0.136318
2.56949
2.30443
0.225971
0.538351
4.3415
4.42249
0.552172
0.530061
1.5553
3.734
1.89523
0.804038
0.831556
0.615981
2.75463
3.94852
2.64743
1.8773
-0.356194
2.87693
0.832923
-0.437016
3.92968
2.09508
0.518228
1.2359
2.52182
3.70201
3.34254
0.509361
1.22801
1.43553
2.07065
3.44042
3.56127
2.25631
1.57859
0.869062
2.54221
-0.230148
-0.88947
1.71158
1.65823
2.71758
3.53016
3.44371
2.78741
1.87203
1.05483
2.13112
3.24101
3.41963
3.02487
2.91952
1.94733
0.781531
3.37435
1.36058
0.23236
-1.20484
2.92534
3.04886
3.17146
2.90378
1.16134
0.418668
0.911525
1.40762
2.03463
1.86421
1.80176
1.8017
1.46422
1.79255
0.707905
3.29448
1.11973
0.0669723
-1.36423
3.50072
3.12501
2.83177
2.98339
2.24845
0.643285
0.880976
1.99808
2.51256
2.26205
1.82126
1.30349
1.57952
2.08096
3.26435
2.79544
0.685336
0.149309
-1.1305
1.99449
2.74363
2.93301
3.05177
2.63107
0.935554
0.741252
0.910877
2.22204
3.51926
3.95801
4.08698
4.27513
4.4281
4.38082
1.14023
1.40628
0.853692
-0.679481
1.59724
2.58322
3.60038
3.77826
4.08337
4.45876
3.01872
2.20048
2.29985
3.10454
3.93109
4.22103
3.62448
2.72738
2.3158
1.65238
2.39148
0.676806
-0.0449934
0.986736
1.7508
2.73876
3.66134
3.78314
4.10698
4.64123
4.84737
4.69288
4.0517
2.84733
1.76973
1.81099
1.95995
1.84451
2.19239
2.65361
1.60031
0.975988
0.045386
-0.050602
0.162602
1.00051
1.55747
1.90414
2.0638
2.11917
1.78568
1.09392
1.03869
1.19617
1.26391
1.58214
1.84752
1.6881
2.73808
2.51786
2.19808
0.178368
0.244529
0.455342
0.455104
0.489946
0.527372
0.490073
0.717502
0.95337
0.651844
0.529515
0.932626
0.81516
1.04911
1.39048
0.935702
2.72518
2.86349
2.45955
0.0264245
0.0163201
0.0916665
0.137249
0.245563
0.32622
0.350046
0.411068
0.45691
0.370995
0.307106
0.470184
0.549241
0.536002
0.984484
1.00896
2.46245
2.4945
2.62417
0.0126543
0.00872402
0.0323674
0.0783449
0.173492
0.214914
0.224005
0.21388
0.15334
0.136953
0.132766
0.197279
0.248415
0.233575
0.598803
0.780378
2.01489
2.36659
2.70258
0.00396853
0.00649719
0.0310484
0.0664717
0.117114
0.104852
0.107742
0.0985744
0.0572442
0.040825
0.0591565
0.0920746
0.108091
0.182321
0.349497
0.598199
1.21564
1.98871
2.65921
-0.00136227
-0.00159302
0.00127491
0.0051357
0.0551455
0.0177171
0.0336687
0.0442455
0.0286934
0.0136243
0.0227982
0.0252797
0.0268398
0.0466139
0.0925833
0.18417
0.59511
1.66114
2.556
-0.000754952
-0.0011066
-0.00074626
-0.00107699
0.0177831
0.00658138
0.0115145
0.0182315
0.0105185
0.00484329
0.0076185
0.00935842
0.00802057
0.00847181
0.00863406
0.0203002
0.307384
1.32227
2.42021
-0.000110454
-0.000469529
-0.000809342
-0.00130293
0.00141563
0.00184831
0.00166551
0.0040758
0.00356497
0.00209653
0.00174192
0.00226235
0.00356478
0.00064773
-0.00886011
-0.0307856
0.246561
1.28493
2.22655
2.76854e-05
-9.31144e-05
-0.00025664
-0.00049875
-0.000864657
-0.000381763
-0.000270445
0.000291673
0.000446487
0.000378906
0.000446586
0.000450265
0.00166962
-0.000758662
-0.0101183
-0.0336175
0.225572
1.25527
2.00763
1.4357e-05
2.34176e-05
-7.51488e-07
-0.000113271
-0.000227346
-0.000261052
-0.000245777
-0.000231045
-9.1313e-05
-0.000144373
-7.28173e-05
2.92739e-05
0.000166887
-0.000782661
-0.00890065
-0.021412
0.210804
1.03021
1.8396
1.6402e-06
7.9721e-06
1.46464e-05
4.8361e-06
-4.26705e-05
-7.69261e-05
-8.932e-05
-9.94966e-05
-7.3177e-05
-6.97213e-05
-7.16112e-05
-2.73347e-05
-3.82192e-05
-0.000766425
-0.00682063
-0.00400505
0.144482
0.680167
1.74402
-2.69865e-07
6.1097e-07
3.32535e-06
6.18257e-06
2.06373e-06
-7.13897e-06
-1.99932e-05
-1.92546e-05
-2.71346e-05
-2.52168e-05
-2.60747e-05
-1.49228e-05
-3.36511e-05
-0.000601176
-0.00335391
-0.00426194
0.0449922
0.487939
1.68017
-1.11092e-07
-2.05287e-07
2.80216e-07
1.2898e-06
2.00676e-06
8.85152e-07
-3.57361e-07
-1.42255e-06
-3.44301e-06
-6.71259e-06
-6.90422e-06
-4.33245e-06
-3.67729e-05
-0.000395603
-0.00251125
-0.00824873
0.0124899
0.448197
1.62538
1.23577e-08
-3.27358e-10
2.31105e-08
2.2868e-07
5.33456e-07
8.45164e-07
6.59844e-07
-5.20203e-07
-2.81293e-06
-7.66552e-06
-1.00914e-05
-1.3586e-05
-3.95705e-05
-0.000280059
-0.0017492
-0.00751669
0.0187129
0.471706
1.57167
2.39984e-08
8.14333e-08
9.71979e-08
1.02862e-07
1.09508e-07
7.98241e-08
-2.66441e-07
-1.38872e-06
-4.58836e-06
-1.34229e-05
-2.35024e-05
-2.87745e-05
-4.46349e-05
4.04455e-05
-0.00121228
-0.00991743
0.0305136
0.49969
1.51872
3.563e-08
1.08627e-07
2.23708e-07
2.15527e-07
1.5605e-07
1.64232e-08
-2.8094e-07
-1.26609e-06
-4.94315e-06
-1.70044e-05
-2.84023e-05
-3.82083e-05
-7.4653e-05
3.86655e-05
-0.000181815
-0.00659984
0.0299835
0.486432
1.39895
1.02978e-07
1.86886e-07
3.44044e-07
3.6394e-07
5.00622e-07
3.9193e-07
-2.16134e-07
-7.62349e-07
-5.22093e-06
-2.27471e-05
-2.75356e-05
-3.10003e-05
-2.32235e-05
6.86208e-05
-0.000653492
-0.00820509
0.0209404
0.427324
1.21743
1.675e-07
2.0714e-07
3.31037e-07
1.53648e-07
2.05229e-07
-1.15163e-06
-1.7783e-06
-4.97005e-06
-1.4651e-05
-3.10801e-05
-2.38023e-05
1.83293e-05
0.000148988
0.000520072
0.000423277
-0.00666222
0.0150022
0.40488
1.00282
2.89828e-07
1.09777e-07
-8.21458e-07
-1.19631e-06
-3.81937e-06
-7.6443e-06
-8.03073e-06
-1.18556e-05
-1.66679e-05
-3.2045e-05
-3.71352e-05
-4.29526e-05
-2.698e-05
9.90625e-05
-0.00115549
-0.0113126
0.0155287
0.37419
0.786087
6.01883e-07
3.73401e-08
-3.48837e-06
-5.99677e-06
-1.82272e-05
-2.65283e-05
-2.67984e-05
-3.3232e-05
-3.44695e-05
-3.86692e-05
-4.79672e-05
-5.08363e-05
-6.22406e-05
-0.00019749
-0.00189073
-0.0066386
0.0473304
0.29689
0.6159
4.24645e-07
-2.29949e-06
-1.29784e-05
-2.46169e-05
-4.80218e-05
-5.43765e-05
-5.48277e-05
-5.66616e-05
-6.11404e-05
-6.46341e-05
-6.95974e-05
-7.06788e-05
-6.13486e-05
-5.45211e-05
-0.000890571
0.00083539
0.0546835
0.198399
0.492328
-1.13839e-06
-1.15334e-05
-3.93213e-05
-5.92994e-05
-6.82706e-05
-7.54204e-05
-7.52161e-05
-8.04908e-05
-8.7368e-05
-8.88913e-05
-9.54806e-05
-9.11246e-05
-7.64268e-05
-6.31367e-05
-0.000395773
-1.00658e-05
0.0221011
0.12217
0.402199
-4.24494e-06
-4.0333e-05
-7.20615e-05
-7.95364e-05
-8.30469e-05
-6.52456e-05
-2.60318e-05
-4.37431e-05
-2.97194e-05
-4.27193e-05
-5.87178e-05
-9.41372e-05
-8.09674e-05
-5.75629e-05
-0.000213225
-0.0029206
-0.00217574
0.0748289
0.335823
-2.52834e-05
-8.75541e-05
-8.94937e-05
-9.05835e-05
-3.4552e-05
2.94959e-05
0.00017082
0.000141022
0.000327396
0.000236379
0.000124987
4.6479e-06
-6.97961e-05
-9.54523e-05
-0.00031529
-0.00121727
0.00588489
0.0658448
0.283699
-6.42722e-05
-0.000102496
-9.91062e-05
-5.34041e-05
7.08045e-05
0.000169467
0.000382687
0.000645071
0.000865049
0.000703546
0.000434893
0.000178636
-7.38627e-06
-6.14969e-05
-0.000101333
-0.000530194
-0.00556875
0.00030888
0.255978
-0.000103037
-0.000107279
-6.89204e-05
8.42054e-05
0.000427764
0.000734419
0.0010702
0.00181205
0.00165152
0.00145568
0.000960706
0.000426264
6.95565e-05
-4.53278e-05
-8.11512e-05
-0.00103026
-0.00732116
0.0125519
0.287853
-0.000127159
-0.000115781
2.69255e-05
0.000429129
0.000957102
0.00173687
0.00222155
0.00284022
0.00258036
0.00241091
0.00201984
0.00159121
0.000818033
0.000213569
1.52985e-05
-0.000750975
-0.00481529
0.0105839
0.230819
-0.000137671
-9.97955e-05
0.000102729
0.000743128
0.00133572
0.00210775
0.00304938
0.00344444
0.00326917
0.00305022
0.00257695
0.00172322
0.000799137
0.000312871
0.000239402
-0.000482939
-0.00469088
0.00180086
0.195204
-0.00014437
-7.08366e-05
0.000299575
0.000869877
0.00155804
0.00222004
0.00318211
0.00370661
0.00346626
0.00311705
0.00266452
0.00213031
0.00138494
0.000689435
0.000386551
-0.000191737
-0.00242592
-0.00991615
0.100965
-0.000147948
-7.73714e-05
0.000403219
0.000968902
0.00167554
0.0023637
0.0032844
0.00374914
0.00342769
0.00300785
0.00257531
0.00216967
0.0016116
0.00102473
0.000856789
0.000704941
-0.000985807
-0.00825339
0.0179002
)
;

boundaryField
{
    leftWall
    {
        type            zeroGradient;
    }
    rightWall
    {
        type            zeroGradient;
    }
    lowerWall
    {
        type            zeroGradient;
    }
    atmosphere
    {
        type            zeroGradient;
    }
    defaultFaces
    {
        type            empty;
    }
}


// ************************************************************************* //
