/*--------------------------------*- C++ -*----------------------------------*\
| =========                 |                                                 |
| \\      /  F ield         | foam-extend: Open Source CFD                    |
|  \\    /   O peration     | Version:     4.1                                |
|   \\  /    A nd           | Web:         http://www.foam-extend.org         |
|    \\/     M anipulation  |                                                 |
\*---------------------------------------------------------------------------*/
FoamFile
{
    version     2.0;
    format      ascii;
    class       volVectorField;
    location    "0.65";
    object      U;
}
// * * * * * * * * * * * * * * * * * * * * * * * * * * * * * * * * * * * * * //

dimensions      [0 1 -1 0 0 0 0];

internalField   nonuniform List<vector> 
2268
(
(0.0170504 -0.000379582 0)
(-0.0145356 0.00307027 0)
(-0.0164403 0.00313263 0)
(-0.0455584 -0.00086447 0)
(-0.0522743 0.00310448 0)
(-0.0767944 0.000598874 0)
(-0.0879036 4.53252e-05 0)
(-0.0953641 0.00109468 0)
(-0.10247 -0.00372534 0)
(-0.118183 -0.00198187 0)
(-0.115316 -0.015173 0)
(-0.0754501 0.00122398 0)
(-0.0579927 -0.0115467 0)
(-0.0543053 -0.0101716 0)
(-0.0461918 -0.0122876 0)
(-0.0424665 -0.0104031 0)
(-0.03739 -0.0019203 0)
(-0.0441427 -0.0127461 0)
(-0.0522975 -0.00679805 0)
(-0.0334858 -0.00564543 0)
(-0.017442 -0.000346364 0)
(-0.0242695 -0.00315987 0)
(0.00649021 -0.00794385 0)
(0.0130193 3.28508e-05 0)
(-0.0155276 0.00842559 0)
(-0.0158705 0.00726003 0)
(-0.0434046 0.00460363 0)
(-0.0528166 0.00399486 0)
(-0.0792366 0.00770534 0)
(-0.0856495 0.0043422 0)
(-0.0926536 0.00581044 0)
(-0.0981318 0.00805351 0)
(-0.0899632 0.00706614 0)
(-0.0727818 0.00521613 0)
(-0.0531736 0.0147485 0)
(-0.0487875 0.00112527 0)
(-0.0441726 -0.00079233 0)
(-0.0350679 0.000375078 0)
(-0.026981 0.00780731 0)
(-0.0263676 -0.000343307 0)
(-0.0200711 -7.83799e-05 0)
(-0.0272221 0.0215553 0)
(-0.0284771 -0.0105608 0)
(-0.0328523 -0.00527853 0)
(-0.0227763 -0.00733417 0)
(0.0239115 -0.000648312 0)
(0.00421619 0.000780088 0)
(-0.0198705 0.0113164 0)
(-0.0152592 0.00993249 0)
(-0.0384912 0.00737299 0)
(-0.0556918 0.0119858 0)
(-0.0740625 0.00773569 0)
(-0.0804512 0.0121657 0)
(-0.0873549 0.00780055 0)
(-0.0920476 0.000362 0)
(-0.104611 -0.0108362 0)
(-0.090741 0.00977891 0)
(-0.068476 -0.0103609 0)
(-0.0677659 -0.0194108 0)
(-0.0701632 -0.0237871 0)
(-0.0595745 -0.0165041 0)
(-0.0597356 -0.0206157 0)
(-0.0431828 -0.0133537 0)
(-0.0303884 -0.00537625 0)
(-0.0306026 -0.00546759 0)
(-0.0282159 -0.0142131 0)
(-0.017018 -0.0069585 0)
(-0.028345 -0.0425008 0)
(0.0211015 -0.00695631 0)
(-0.000144167 0.00650573 0)
(-0.0215249 0.0123192 0)
(-0.0110104 0.011338 0)
(-0.0369741 0.0148001 0)
(-0.0505713 0.0126011 0)
(-0.0675555 0.0130116 0)
(-0.0899818 0.0101463 0)
(-0.101605 0.00595976 0)
(-0.092826 0.00569544 0)
(-0.0955725 0.0134031 0)
(-0.0897588 0.0215973 0)
(-0.105383 0.000576336 0)
(-0.119478 -0.00157428 0)
(-0.122084 -0.00484346 0)
(-0.10957 -0.00364192 0)
(-0.102005 -0.0151599 0)
(-0.0799666 -0.00110078 0)
(-0.0813773 -0.00510438 0)
(-0.0646082 0.00949878 0)
(-0.061301 -0.0185396 0)
(-0.034889 0.0133071 0)
(-0.0365721 -0.0415648 0)
(0.0367434 -0.00247686 0)
(0.00105549 0.0099068 0)
(-0.0175934 0.0122984 0)
(-0.0089811 0.0133325 0)
(-0.0361372 0.0169898 0)
(-0.0468133 0.0200349 0)
(-0.0771531 0.0172056 0)
(-0.104589 0.0309398 0)
(-0.103857 0.0166216 0)
(-0.10303 0.000450053 0)
(-0.121055 0.0209145 0)
(-0.122457 0.0190016 0)
(-0.151375 0.00796131 0)
(-0.1606 -0.00152367 0)
(-0.162184 -0.0217042 0)
(-0.157724 -0.031411 0)
(-0.155552 -0.0342051 0)
(-0.131485 -0.015973 0)
(-0.125312 -0.00836329 0)
(-0.123801 -0.018548 0)
(-0.103117 -0.0454445 0)
(-0.062835 -0.00174919 0)
(-0.0649141 -0.0379128 0)
(0.0364117 -0.0172173 0)
(0.00687594 0.0126163 0)
(-0.012211 0.015526 0)
(-0.00934796 0.0152606 0)
(-0.0377562 0.0225779 0)
(-0.0523987 0.022256 0)
(-0.0803309 0.0252142 0)
(-0.107436 0.0227614 0)
(-0.125051 0.0299239 0)
(-0.139302 0.0337894 0)
(-0.158678 0.0314896 0)
(-0.178011 0.0324222 0)
(-0.190437 0.0182624 0)
(-0.193489 0.00867026 0)
(-0.193699 -0.0173177 0)
(-0.181813 -0.0280663 0)
(-0.174551 -0.0321366 0)
(-0.163409 -0.0146922 0)
(-0.177906 -0.0217107 0)
(-0.188965 0.00201627 0)
(-0.137805 -0.0528935 0)
(-0.0967557 -0.0276556 0)
(-0.0684758 -0.0653304 0)
(0.035874 -0.0151823 0)
(0.00680256 0.0123638 0)
(-0.0160367 0.018687 0)
(-0.0195823 0.0208959 0)
(-0.0488675 0.0285155 0)
(-0.0651515 0.0326755 0)
(-0.0989786 0.0300063 0)
(-0.136812 0.0182753 0)
(-0.173562 0.034572 0)
(-0.19147 0.0528067 0)
(-0.19851 0.036063 0)
(-0.207 0.0354282 0)
(-0.21156 0.0161228 0)
(-0.209594 0.00296199 0)
(-0.210916 -0.015443 0)
(-0.202097 -0.0236858 0)
(-0.186806 -0.0377404 0)
(-0.177641 -0.0181778 0)
(-0.186819 -0.0655995 0)
(-0.200287 -0.0520463 0)
(-0.165926 -0.0680835 0)
(-0.122575 -0.103133 0)
(-0.0714803 -0.0661055 0)
(0.0423747 -0.0354359 0)
(0.00113928 0.0147788 0)
(-0.0297259 0.0244595 0)
(-0.0393633 0.0322526 0)
(-0.0677627 0.0391554 0)
(-0.0873223 0.046755 0)
(-0.116976 0.0565352 0)
(-0.168485 0.0526688 0)
(-0.222315 0.0496476 0)
(-0.228754 0.0560941 0)
(-0.234194 0.0416016 0)
(-0.23762 0.0396188 0)
(-0.233124 0.0168583 0)
(-0.225507 0.00836511 0)
(-0.220311 -0.0177366 0)
(-0.208952 -0.0355623 0)
(-0.18551 -0.0457178 0)
(-0.188615 -0.041297 0)
(-0.202564 -0.0819818 0)
(-0.189848 -0.0605912 0)
(-0.182447 -0.0188015 0)
(-0.149602 -0.113769 0)
(-0.0470361 -0.103582 0)
(0.0155752 -0.0336969 0)
(-1.36798 0.304949 0)
(-1.64591 0.168101 0)
(-1.80837 -0.00641245 0)
(-1.89649 -0.0128916 0)
(-1.7164 -0.114244 0)
(-1.59196 -0.0935915 0)
(-1.42183 -0.122138 0)
(-1.35169 -0.155298 0)
(-1.21763 -0.113224 0)
(-1.14172 -0.111862 0)
(-1.11854 -0.0604006 0)
(-1.28737 0.0255015 0)
(-1.381 0.0148684 0)
(-1.36519 -0.126493 0)
(-1.44975 -0.181287 0)
(-1.54751 -0.0931365 0)
(-1.16404 0.0107534 0)
(-0.929854 -0.33548 0)
(-0.232219 -0.0771204 0)
(-1.31209 0.458835 0)
(-1.4602 0.402725 0)
(-1.43998 0.159463 0)
(-1.47238 0.108592 0)
(-1.11421 -0.0676241 0)
(-0.919279 0.00940754 0)
(-0.718082 -0.0217581 0)
(-0.659996 -0.0431802 0)
(-0.643973 -0.00419477 0)
(-0.827447 0.0699465 0)
(-0.894253 0.143242 0)
(-1.17707 0.152122 0)
(-1.43389 0.0464702 0)
(-1.53958 -0.0183224 0)
(-1.47995 -0.232626 0)
(-1.6139 0.0200548 0)
(-1.46426 0.182844 0)
(-0.823143 -0.402827 0)
(-0.324241 -0.436613 0)
(-1.22165 0.786648 0)
(-1.15646 0.650362 0)
(-0.995604 0.097039 0)
(-1.11912 -0.0401809 0)
(-0.823814 -0.202922 0)
(-0.588483 -0.320134 0)
(-0.426685 -0.239476 0)
(-0.317613 -0.0272274 0)
(-0.0367568 -0.0467422 0)
(0.117405 0.0126459 0)
(-0.307257 0.0149879 0)
(-0.817415 0.108254 0)
(-1.06986 -0.227026 0)
(-1.34155 -0.213295 0)
(-1.4567 -0.341114 0)
(-1.5311 -0.0893335 0)
(-1.40815 0.0961823 0)
(-0.673334 -0.301683 0)
(-0.211924 -0.590304 0)
(-1.00929 0.995059 0)
(-0.813799 0.706546 0)
(-0.527457 0.0211836 0)
(-0.76439 -0.20657 0)
(-0.653566 -0.151751 0)
(-0.393574 -0.553192 0)
(-0.21501 -0.551177 0)
(-0.0868394 -0.256044 0)
(0.049567 -0.156239 0)
(0.351398 0.14717 0)
(0.22034 0.527403 0)
(-0.263779 0.507377 0)
(-0.0774215 0.156908 0)
(-0.545087 -0.291991 0)
(-1.00121 -0.198933 0)
(-1.06677 -0.0615391 0)
(-0.993358 -0.185415 0)
(-0.731434 -0.260011 0)
(-0.0674934 -0.868289 0)
(-0.890089 1.12919 0)
(-0.539523 0.871312 0)
(-0.292637 0.0767475 0)
(-0.599014 -0.0944914 0)
(-0.409784 -0.205905 0)
(-0.241564 -0.667737 0)
(-0.00449602 -0.496437 0)
(0.112768 -0.414961 0)
(0.214693 -0.218637 0)
(0.32859 0.0742216 0)
(0.716863 0.563625 0)
(0.690899 0.725766 0)
(0.662727 0.406773 0)
(0.168681 -0.0228852 0)
(-0.716363 -0.165784 0)
(-0.98634 0.200892 0)
(-0.858928 -0.233405 0)
(-0.662312 -0.290774 0)
(-0.00350697 -1.08085 0)
(-0.698886 1.26196 0)
(-0.334361 0.793396 0)
(-0.238478 0.0589342 0)
(-0.553791 -0.0102798 0)
(-0.358684 -0.318481 0)
(-0.129984 -0.80415 0)
(0.108573 -0.402835 0)
(0.23371 -0.409748 0)
(0.297007 -0.252918 0)
(0.456906 -0.114949 0)
(0.737683 0.375757 0)
(0.854089 0.493866 0)
(0.832571 0.315532 0)
(0.328102 0.1135 0)
(-0.584567 -0.0297147 0)
(-0.817108 0.188037 0)
(-0.781547 -0.238836 0)
(-0.443969 -0.451292 0)
(-0.00387215 -1.18048 0)
(-0.653351 1.37002 0)
(-0.12388 0.905791 0)
(-0.179859 0.083242 0)
(-0.462212 -0.0634857 0)
(-0.216285 -0.428049 0)
(0.128309 -0.63875 0)
(0.241005 -0.486725 0)
(0.278111 -0.359737 0)
(0.382657 -0.291662 0)
(0.497733 -0.162185 0)
(0.753052 0.244754 0)
(0.879538 0.496176 0)
(0.911689 0.382099 0)
(0.735962 0.342696 0)
(0.228336 0.287036 0)
(-0.569077 0.26536 0)
(-0.664747 -0.299972 0)
(-0.446981 -0.614727 0)
(0.00866006 -1.19145 0)
(-0.480399 1.4931 0)
(0.0137961 0.828635 0)
(0.140858 0.221306 0)
(-0.170176 -0.0402391 0)
(0.132523 -0.428026 0)
(0.184989 -0.538202 0)
(0.297404 -0.488313 0)
(0.339387 -0.402279 0)
(0.388421 -0.35041 0)
(0.528944 -0.238969 0)
(0.815318 0.276961 0)
(0.883968 0.480824 0)
(0.892791 0.485686 0)
(0.768188 0.421366 0)
(0.429487 0.343004 0)
(-0.221996 0.160512 0)
(-0.355349 -0.119507 0)
(-0.322914 -0.633653 0)
(0.0611933 -1.12161 0)
(-0.0126166 0.0217426 0)
(-0.0795918 0.0347597 0)
(-0.128678 0.0541753 0)
(-0.149232 0.0643761 0)
(-0.151655 0.0715814 0)
(-0.179835 0.0751139 0)
(-0.235259 0.0860909 0)
(-0.257354 0.0719861 0)
(-0.261928 0.0532387 0)
(-0.25837 0.0413336 0)
(-0.261036 0.0321362 0)
(-0.241517 0.0103283 0)
(-0.223369 -0.0170897 0)
(-0.223511 -0.0427752 0)
(-0.211943 -0.0518726 0)
(-0.186202 -0.0613287 0)
(-0.190071 -0.0864748 0)
(-0.178935 -0.0518043 0)
(-0.154526 -0.0588542 0)
(-0.18996 -0.0261647 0)
(-0.21108 -0.0692449 0)
(-0.0805801 -0.157857 0)
(0.061218 -0.101333 0)
(-0.0551822 0.0637666 0)
(-0.241747 0.0835023 0)
(-0.341647 0.0705104 0)
(-0.341423 0.174675 0)
(-0.31558 0.199006 0)
(-0.331658 0.12796 0)
(-0.350635 0.11832 0)
(-0.318068 0.0585006 0)
(-0.272952 0.0673041 0)
(-0.257851 0.0366186 0)
(-0.250255 0.0401764 0)
(-0.244983 -0.0290909 0)
(-0.224601 -0.0202026 0)
(-0.196053 -0.0582466 0)
(-0.180711 -0.0611584 0)
(-0.187512 -0.0754745 0)
(-0.156633 -0.0959825 0)
(-0.153579 -0.0809316 0)
(-0.159323 -0.146198 0)
(-0.149307 -0.124734 0)
(-0.205775 -0.201649 0)
(-0.141709 -0.208503 0)
(-0.0990464 -0.320865 0)
(-0.12278 0.171412 0)
(-0.467462 0.197355 0)
(-0.471399 0.271332 0)
(-0.471925 0.249411 0)
(-0.577712 0.237077 0)
(-0.574864 0.115856 0)
(-0.529923 0.0977334 0)
(-0.339799 0.0454677 0)
(-0.267335 0.055118 0)
(-0.244545 0.0213269 0)
(-0.295866 0.00545013 0)
(-0.284112 0.00995214 0)
(-0.184773 -0.0563925 0)
(-0.200367 -0.0531392 0)
(-0.192674 -0.0690324 0)
(-0.197703 -0.0715747 0)
(-0.174226 -0.0629055 0)
(-0.217758 -0.109967 0)
(-0.178015 -0.112093 0)
(-0.270328 -0.122264 0)
(-0.298141 -0.199739 0)
(-0.251266 -0.233149 0)
(-0.343976 -0.279591 0)
(-0.200185 0.3969 0)
(-0.483729 0.342685 0)
(-0.561427 0.292064 0)
(-0.532357 0.0693081 0)
(-0.733605 -0.020398 0)
(-0.775501 0.0124252 0)
(-0.656852 0.0280854 0)
(-0.433418 0.0955219 0)
(-0.343706 -0.00628648 0)
(-0.359952 -0.00458991 0)
(-0.316531 -0.0784557 0)
(-0.439001 0.0563881 0)
(-0.35453 -0.059222 0)
(-0.250022 -0.0513583 0)
(-0.290391 -0.0513917 0)
(-0.284339 -0.0950412 0)
(-0.302602 -0.10378 0)
(-0.30355 -0.143003 0)
(-0.299539 -0.0684322 0)
(-0.360419 -0.0983428 0)
(-0.375711 -0.115261 0)
(-0.346114 -0.189186 0)
(-0.413487 -0.0782414 0)
(-0.237923 0.760182 0)
(-0.417174 0.514992 0)
(-0.501291 0.35993 0)
(-0.623195 0.138681 0)
(-0.790134 -0.062094 0)
(-0.68158 0.0516999 0)
(-0.599277 0.0268892 0)
(-0.595056 0.140645 0)
(-0.519211 0.0102764 0)
(-0.54872 -0.0299391 0)
(-0.494981 -0.101406 0)
(-0.514791 -0.161315 0)
(-0.524593 0.00302203 0)
(-0.432445 -0.100881 0)
(-0.618483 -0.147374 0)
(-0.679975 -0.181211 0)
(-0.679801 -0.20007 0)
(-0.426815 -0.065256 0)
(-0.323495 0.0519916 0)
(-0.576639 -0.123616 0)
(-0.601309 -0.203633 0)
(-0.429577 -0.165298 0)
(-0.454828 -0.0495829 0)
(-0.115352 1.06115 0)
(-0.274964 0.587701 0)
(-0.329166 0.319718 0)
(-0.636438 0.153811 0)
(-0.769169 0.0968359 0)
(-0.830024 0.204425 0)
(-0.627574 0.057337 0)
(-0.550785 0.0736725 0)
(-0.555656 0.0114797 0)
(-0.666695 -0.0240856 0)
(-0.782944 -0.0222187 0)
(-0.880796 -2.64868e-05 0)
(-0.873135 -0.0077354 0)
(-0.92713 -0.0391976 0)
(-1.01964 -0.125935 0)
(-1.04961 -0.0608772 0)
(-0.994971 -0.0257936 0)
(-0.943267 -0.0616061 0)
(-1.11299 -0.221619 0)
(-1.1257 -0.332778 0)
(-0.69824 -0.169064 0)
(-0.572553 -0.00934591 0)
(-0.587382 0.066818 0)
(-0.205596 1.2034 0)
(-0.252823 0.811755 0)
(-0.286283 0.405273 0)
(-0.572062 0.160737 0)
(-0.846556 0.238524 0)
(-1.00988 0.354994 0)
(-1.25999 0.268642 0)
(-1.78508 0.142444 0)
(-1.94632 0.165156 0)
(-1.94292 0.125584 0)
(-1.85021 0.0393423 0)
(-1.81284 -0.0277928 0)
(-1.76375 -0.0876353 0)
(-1.69906 -0.142293 0)
(-1.63967 -0.157386 0)
(-1.58055 -0.160761 0)
(-1.56493 -0.174641 0)
(-1.55704 -0.354848 0)
(-1.54848 -0.403093 0)
(-1.34823 -0.390913 0)
(-1.254 -0.173473 0)
(-1.13048 -0.137585 0)
(-1.09704 -0.0292034 0)
(-0.218663 1.48416 0)
(-0.350292 1.33986 0)
(-0.357432 0.650316 0)
(-0.492608 0.437403 0)
(-0.657225 0.375832 0)
(-0.955836 0.648134 0)
(-1.2276 0.624624 0)
(-1.26044 0.405229 0)
(-1.29427 0.359686 0)
(-1.41153 0.293948 0)
(-1.42815 0.121904 0)
(-1.41788 -0.010112 0)
(-1.42822 -0.0794213 0)
(-1.46573 -0.118297 0)
(-1.49119 -0.153572 0)
(-1.49922 -0.237111 0)
(-1.7509 -0.270023 0)
(-1.81311 -0.2985 0)
(-1.7376 -0.341694 0)
(-1.49938 -0.236115 0)
(-1.40604 -0.194137 0)
(-1.45193 -0.186029 0)
(-1.36515 -0.242499 0)
(-0.214028 1.58929 0)
(-0.311695 1.40563 0)
(-0.307344 0.834008 0)
(-0.443095 0.688455 0)
(-0.500473 0.724402 0)
(-0.717933 0.759966 0)
(-1.21603 0.736589 0)
(-1.48978 0.702465 0)
(-1.60044 0.443703 0)
(-1.522 0.250791 0)
(-1.45385 0.0631595 0)
(-1.44313 -0.0942055 0)
(-1.38989 -0.22487 0)
(-1.34726 -0.297455 0)
(-1.29635 -0.401096 0)
(-1.25505 -0.498614 0)
(-1.32266 -0.5646 0)
(-1.34019 -0.312555 0)
(-1.42844 -0.268211 0)
(-1.43292 -0.190753 0)
(-1.40572 -0.282866 0)
(-1.58657 -0.284499 0)
(-1.47007 -0.198526 0)
(-0.16619 1.76658 0)
(-0.391758 1.47302 0)
(-0.453684 1.00548 0)
(-1.01871 1.01709 0)
(-1.33205 1.18611 0)
(-1.51798 1.07501 0)
(-1.67313 0.960125 0)
(-1.56779 0.666465 0)
(-1.49679 0.31232 0)
(-1.3412 0.172034 0)
(-1.15358 0.00739637 0)
(-1.03719 -0.0424217 0)
(-0.80165 -0.245813 0)
(-0.564306 -0.341967 0)
(-0.481334 -0.409389 0)
(-0.454983 -0.424839 0)
(-0.574544 -0.583897 0)
(-0.554384 -0.415899 0)
(-0.675728 -0.348201 0)
(-0.733594 -0.2105 0)
(-0.736832 -0.251902 0)
(-0.967681 -0.191098 0)
(-1.07452 0.0903265 0)
(-0.293668 2.05801 0)
(-0.370689 1.8293 0)
(-0.818552 1.24238 0)
(-1.55169 1.41726 0)
(-1.72535 1.48161 0)
(-1.72818 1.1097 0)
(-1.53306 0.912043 0)
(-1.41269 0.552262 0)
(-1.22189 0.22786 0)
(-0.931173 0.0683247 0)
(-0.648842 -0.122515 0)
(-0.447031 -0.345767 0)
(-0.421173 -0.474657 0)
(-0.303431 -0.377813 0)
(-0.301577 -0.300633 0)
(-0.323974 -0.327783 0)
(-0.444992 -0.445269 0)
(-0.527044 -0.547505 0)
(-0.616268 -0.463895 0)
(-0.676937 -0.26715 0)
(-0.741474 -0.197152 0)
(-0.847792 -0.232969 0)
(-0.900636 -0.0935477 0)
(-0.291459 2.27266 0)
(-0.707682 2.2991 0)
(-1.22441 1.65073 0)
(-1.5063 1.58233 0)
(-1.72365 1.47282 0)
(-1.67222 0.998848 0)
(-0.996704 0.468887 0)
(-0.806143 0.0734074 0)
(-0.875033 0.136284 0)
(-0.819782 0.0607386 0)
(-0.726553 0.0454687 0)
(-0.480813 -0.53633 0)
(-0.369744 -0.569582 0)
(-0.34325 -0.47811 0)
(-0.322793 -0.359597 0)
(-0.344193 -0.231351 0)
(-0.41186 -0.100332 0)
(-0.495674 -0.148193 0)
(-0.567232 -0.119398 0)
(-0.620636 -0.121716 0)
(-0.723577 0.00603757 0)
(-0.821078 0.0488685 0)
(-0.864944 0.0371683 0)
(-0.153103 2.53312 0)
(-0.593473 2.42891 0)
(-1.13827 1.81147 0)
(-1.34881 1.51347 0)
(-1.3929 1.15606 0)
(-1.11968 0.762218 0)
(-0.806612 0.521747 0)
(-0.871348 0.205318 0)
(-0.859609 0.0834542 0)
(-0.706656 -0.180253 0)
(-0.509761 -0.449419 0)
(-0.37803 -0.541409 0)
(-0.458332 -0.547381 0)
(-0.527738 -0.426948 0)
(-0.540387 -0.29935 0)
(-0.584174 -0.237348 0)
(-0.760933 -0.129347 0)
(-0.792863 -0.0432784 0)
(-0.75946 -0.0208377 0)
(-0.77386 -0.00892052 0)
(-0.769213 -0.0240878 0)
(-0.74498 0.0241897 0)
(-0.686535 0.079375 0)
(0.139929 3.08208 0)
(-0.192559 2.6468 0)
(-0.749046 1.88799 0)
(-0.983379 1.65607 0)
(-0.946573 1.22039 0)
(-0.499579 0.575906 0)
(-0.446476 0.365458 0)
(-0.848065 0.238971 0)
(-0.751045 0.107563 0)
(-0.328173 -0.284402 0)
(-0.488439 -0.467515 0)
(-0.447409 -0.512607 0)
(-0.499026 -0.441888 0)
(-0.547468 -0.317697 0)
(-0.579317 -0.219347 0)
(-0.795842 -0.24596 0)
(-0.918894 -0.28904 0)
(-0.901071 -0.191622 0)
(-0.824809 -0.133428 0)
(-0.848787 -0.0481604 0)
(-0.870032 -0.0180484 0)
(-0.891608 -0.0243956 0)
(-0.888196 -0.0984511 0)
(0.229002 3.24368 0)
(0.361579 2.8339 0)
(0.0951234 2.23484 0)
(-0.237298 1.7652 0)
(-0.292853 1.14519 0)
(0.0633776 0.485962 0)
(-0.241018 0.359534 0)
(-0.620115 0.38053 0)
(-0.459214 0.156163 0)
(-0.359318 -0.414848 0)
(-0.596916 -0.425502 0)
(-0.471923 -0.468144 0)
(-0.336146 -0.429928 0)
(-0.300437 -0.304149 0)
(-0.194704 -0.182029 0)
(-0.151466 -0.134133 0)
(-0.140345 -0.117056 0)
(-0.194282 -0.0852071 0)
(-0.187664 -0.0639553 0)
(-0.13591 -0.0254525 0)
(-0.105169 -0.00340676 0)
(-0.094824 0.0621241 0)
(-0.0937586 0.0461307 0)
(0.167763 2.83558 0)
(0.660734 2.76634 0)
(0.74015 2.5585 0)
(0.459566 1.95844 0)
(0.421347 1.07373 0)
(0.537068 0.603171 0)
(-0.034898 0.590962 0)
(-0.447906 0.677246 0)
(-0.124093 -0.118982 0)
(-0.220219 -0.462441 0)
(-0.23541 -0.379977 0)
(-0.303236 -0.384544 0)
(-0.218861 -0.474413 0)
(-0.236911 -0.397143 0)
(-0.16402 -0.32151 0)
(-0.126121 -0.283764 0)
(-0.0933901 -0.27646 0)
(-0.130345 -0.239464 0)
(-0.137696 -0.181041 0)
(-0.0806955 -0.0891662 0)
(-0.0564568 -0.0435851 0)
(0.0109095 0.0144158 0)
(0.0209127 0.00311213 0)
(0.0210994 2.02286 0)
(0.736269 2.78104 0)
(0.766256 2.66986 0)
(0.789386 2.20967 0)
(0.831819 1.33421 0)
(0.601259 0.804459 0)
(-0.0273949 0.853268 0)
(-0.296372 0.764398 0)
(0.108041 -0.158894 0)
(-0.141185 -0.357034 0)
(-0.0598498 -0.291348 0)
(-0.114978 -0.496356 0)
(-0.108188 -0.501879 0)
(-0.155787 -0.404583 0)
(-0.115251 -0.329075 0)
(-0.0891217 -0.320033 0)
(-0.0926651 -0.312971 0)
(-0.122099 -0.278744 0)
(-0.0188775 -0.199905 0)
(0.0140612 -0.208661 0)
(0.0536133 -0.112003 0)
(0.0766131 -0.0644534 0)
(0.109661 -0.0560081 0)
(-0.0988963 1.57812 0)
(0.730912 2.71888 0)
(0.640897 2.6257 0)
(0.767724 2.58693 0)
(0.764883 1.5986 0)
(0.31127 1.29413 0)
(-0.00246388 1.19396 0)
(-0.0464401 0.687729 0)
(0.300533 -0.142363 0)
(0.149778 -0.469871 0)
(0.00030847 -0.450396 0)
(0.0361255 -0.405746 0)
(0.0136772 -0.490772 0)
(0.0193619 -0.417345 0)
(-0.0793845 -0.275091 0)
(-0.0800999 -0.384809 0)
(-0.0267978 -0.210444 0)
(0.0332093 -0.160357 0)
(0.0301945 -0.145312 0)
(0.0619984 -0.140107 0)
(0.125099 -0.141138 0)
(0.144468 -0.136109 0)
(0.189333 -0.154177 0)
(-0.199721 1.40229 0)
(0.475696 2.48087 0)
(0.607916 2.39333 0)
(0.702756 2.49306 0)
(0.466584 1.62212 0)
(-0.00342634 1.43277 0)
(0.0113239 1.281 0)
(0.164215 0.58633 0)
(0.31261 -0.0443679 0)
(0.138838 -0.362936 0)
(0.240019 -0.458212 0)
(0.169083 -0.459781 0)
(0.0437516 -0.438166 0)
(0.092995 -0.396189 0)
(0.0237919 -0.395638 0)
(-0.0359957 -0.240371 0)
(0.122042 -0.203313 0)
(0.03389 -0.153415 0)
(0.0510716 -0.159019 0)
(0.090597 -0.0906578 0)
(0.106909 -0.157627 0)
(0.124997 -0.162875 0)
(0.160589 -0.158154 0)
(-0.224705 1.38286 0)
(0.222832 2.16796 0)
(0.454236 2.61851 0)
(0.501492 2.20801 0)
(-0.190025 1.86656 0)
(-0.0480724 1.80324 0)
(0.242432 1.31916 0)
(0.162166 0.810105 0)
(0.14324 0.0564185 0)
(0.116183 -0.234378 0)
(0.131832 -0.400234 0)
(0.150424 -0.585348 0)
(0.121718 -0.582488 0)
(0.0669421 -0.413724 0)
(0.150305 -0.384307 0)
(0.174113 -0.240744 0)
(0.157159 -0.238655 0)
(0.134777 -0.292094 0)
(0.203127 -0.233932 0)
(0.168366 -0.200318 0)
(0.158282 -0.167015 0)
(0.192083 -0.189107 0)
(0.239153 -0.160847 0)
(-0.281739 1.36195 0)
(0.297546 1.90416 0)
(0.0743895 2.54776 0)
(0.00904897 2.25544 0)
(-0.137076 2.09683 0)
(0.0102263 2.23494 0)
(0.193309 1.32359 0)
(0.117412 0.870718 0)
(0.18053 -0.0390558 0)
(0.123912 -0.396982 0)
(0.147429 -0.475314 0)
(0.0950905 -0.605231 0)
(0.192114 -0.559497 0)
(0.25 -0.43666 0)
(0.220832 -0.298125 0)
(0.207745 -0.188097 0)
(0.21938 -0.187664 0)
(0.233608 -0.181035 0)
(0.280348 -0.211334 0)
(0.268957 -0.22637 0)
(0.22407 -0.25616 0)
(0.177397 -0.249471 0)
(0.267454 -0.235229 0)
(-0.307585 1.384 0)
(0.0494591 1.80709 0)
(-0.0458523 2.21482 0)
(-0.0255111 2.28702 0)
(-0.123841 2.15233 0)
(-0.0101158 1.99777 0)
(0.0555275 1.10293 0)
(0.170633 0.531308 0)
(0.0692909 -0.0815857 0)
(0.245987 -0.384377 0)
(0.21398 -0.541349 0)
(0.142684 -0.496284 0)
(0.268337 -0.435113 0)
(0.253714 -0.425327 0)
(0.28826 -0.343536 0)
(0.270799 -0.327768 0)
(0.257498 -0.235157 0)
(0.273941 -0.202813 0)
(0.233023 -0.141205 0)
(0.214533 -0.199624 0)
(0.238605 -0.245 0)
(0.291418 -0.21866 0)
(0.361703 -0.259049 0)
(-0.378782 1.47289 0)
(-0.0490275 1.99113 0)
(-0.00326161 2.23688 0)
(-0.0112888 2.32559 0)
(-0.126947 2.21167 0)
(0.182002 1.76852 0)
(0.00819124 1.081 0)
(0.274667 0.50557 0)
(0.0684025 0.0606424 0)
(0.203152 -0.238658 0)
(0.227416 -0.523633 0)
(0.300077 -0.468747 0)
(0.2916 -0.473112 0)
(0.294901 -0.505587 0)
(0.290947 -0.375682 0)
(0.30236 -0.413982 0)
(0.302988 -0.223479 0)
(0.340986 -0.197863 0)
(0.335036 -0.197635 0)
(0.293699 -0.208866 0)
(0.319564 -0.16651 0)
(0.284568 -0.168642 0)
(0.337516 -0.234262 0)
(-0.428124 1.67377 0)
(-0.406732 2.42918 0)
(-0.0238796 2.35312 0)
(0.093675 2.21226 0)
(-0.0297227 2.32413 0)
(0.370918 1.74572 0)
(0.0410086 0.949465 0)
(0.374286 0.325472 0)
(0.266831 -0.163444 0)
(0.264781 -0.484995 0)
(0.270724 -0.50005 0)
(0.363584 -0.514628 0)
(0.359109 -0.476886 0)
(0.42122 -0.419453 0)
(0.398645 -0.332575 0)
(0.422984 -0.348448 0)
(0.492076 -0.289591 0)
(0.35796 -0.149001 0)
(0.30513 -0.195945 0)
(0.335243 -0.227642 0)
(0.38127 -0.208668 0)
(0.364766 -0.206989 0)
(0.427401 -0.184366 0)
(-0.269573 1.88174 0)
(-0.271637 2.70537 0)
(-0.25171 2.70479 0)
(0.214278 2.25739 0)
(0.220367 2.19434 0)
(0.44478 1.8495 0)
(0.140079 1.07541 0)
(0.55024 0.496492 0)
(0.54265 -0.10973 0)
(0.543014 -0.612784 0)
(0.617543 -0.62533 0)
(0.5593 -0.575694 0)
(0.496188 -0.492381 0)
(0.484522 -0.318578 0)
(0.406342 -0.329027 0)
(0.374145 -0.265547 0)
(0.570055 -0.247756 0)
(0.485896 -0.18305 0)
(0.301465 -0.254227 0)
(0.34179 -0.262061 0)
(0.442355 -0.168688 0)
(0.385903 -0.166924 0)
(0.470813 -0.141353 0)
(-0.128394 1.89558 0)
(0.0565871 2.70934 0)
(-0.243257 2.7143 0)
(0.168927 2.55412 0)
(0.410039 2.40073 0)
(0.885942 2.01669 0)
(0.660655 1.41154 0)
(0.732003 0.544304 0)
(0.773396 -0.192321 0)
(0.828256 -0.521792 0)
(0.81297 -0.528759 0)
(0.656738 -0.450699 0)
(0.533836 -0.348368 0)
(0.429888 -0.279101 0)
(0.419552 -0.310523 0)
(0.496331 -0.143423 0)
(0.571399 -0.138938 0)
(0.340889 -0.170439 0)
(0.237788 -0.260479 0)
(0.456373 -0.237955 0)
(0.535404 -0.26907 0)
(0.415064 -0.253015 0)
(0.441298 -0.190094 0)
(0.0527979 2.07421 0)
(0.467036 2.82212 0)
(0.0085566 2.67947 0)
(0.255878 2.54101 0)
(0.522675 2.50463 0)
(0.776435 1.98908 0)
(0.652416 1.18776 0)
(0.824603 0.319402 0)
(0.867475 -0.229082 0)
(0.854194 -0.365647 0)
(0.779139 -0.366334 0)
(0.623357 -0.329757 0)
(0.545532 -0.29822 0)
(0.410618 -0.209735 0)
(0.460185 -0.168661 0)
(0.617798 -0.0456398 0)
(0.628469 -0.104545 0)
(0.538657 -0.167308 0)
(0.341932 -0.14345 0)
(0.419119 -0.176487 0)
(0.525551 -0.421409 0)
(0.527928 -0.351663 0)
(0.471171 -0.188199 0)
(0.00133632 2.66484 0)
(0.417767 2.91002 0)
(0.172628 2.70113 0)
(0.364314 2.17292 0)
(0.590112 2.16323 0)
(0.60375 1.71054 0)
(0.740265 0.800682 0)
(0.942457 0.0682301 0)
(0.923969 -0.260365 0)
(0.816211 -0.279694 0)
(0.716362 -0.252322 0)
(0.589857 -0.260465 0)
(0.542428 -0.273689 0)
(0.512881 -0.213865 0)
(0.516249 -0.109381 0)
(0.518463 -0.126065 0)
(0.507931 -0.150246 0)
(0.452104 -0.226397 0)
(0.409015 -0.170552 0)
(0.392967 -0.159253 0)
(0.484445 -0.279299 0)
(0.690997 -0.277824 0)
(0.575355 -0.224482 0)
(-0.0503638 2.70565 0)
(0.322484 2.85157 0)
(0.256065 2.66253 0)
(0.379126 2.07287 0)
(0.524589 1.60316 0)
(0.716653 1.18454 0)
(0.996133 0.504885 0)
(1.04786 0.0802565 0)
(0.962158 -0.123239 0)
(0.816517 -0.165687 0)
(0.742732 -0.151871 0)
(0.61697 -0.171385 0)
(0.578113 -0.155395 0)
(0.54455 -0.163751 0)
(0.512775 -0.107792 0)
(0.494043 -0.122059 0)
(0.45057 -0.127521 0)
(0.442488 -0.170523 0)
(0.439017 -0.144021 0)
(0.34344 -0.0906759 0)
(0.416803 -0.0798747 0)
(0.613802 -0.267324 0)
(0.609883 -0.257258 0)
(-0.019537 2.53494 0)
(0.296284 2.58729 0)
(0.365416 2.40545 0)
(0.541361 1.92848 0)
(0.680874 1.37336 0)
(0.85756 0.90035 0)
(1.00281 0.423942 0)
(0.943612 0.176418 0)
(0.876972 0.0443538 0)
(0.768398 -0.0131897 0)
(0.694625 -0.0410559 0)
(0.589751 -0.103017 0)
(0.549061 -0.106976 0)
(0.57527 -0.169614 0)
(0.572219 -0.0962563 0)
(0.48374 -0.066899 0)
(0.432737 -0.0143773 0)
(0.382816 -0.0750132 0)
(0.418939 -0.139309 0)
(0.423918 -0.0984731 0)
(0.396039 -0.0472847 0)
(0.486321 -0.113519 0)
(0.639924 -0.192796 0)
(0.088119 2.14783 0)
(0.301423 2.18561 0)
(0.457655 1.98943 0)
(0.689927 1.54585 0)
(0.830777 1.07097 0)
(0.899819 0.713506 0)
(0.910993 0.446078 0)
(0.835953 0.294606 0)
(0.77109 0.191251 0)
(0.712659 0.124576 0)
(0.620862 0.0445572 0)
(0.576846 0.0162096 0)
(0.489611 -0.0172949 0)
(0.547468 -0.0804705 0)
(0.664177 -0.0201997 0)
(0.548738 0.0687202 0)
(0.476233 -0.0237794 0)
(0.278583 -0.11253 0)
(0.363758 -0.0786924 0)
(0.476784 -0.047358 0)
(0.418601 -0.095829 0)
(0.539237 -0.147232 0)
(0.700025 -0.294167 0)
(0.106225 1.87955 0)
(0.300955 1.92317 0)
(0.474049 1.65564 0)
(0.654842 1.26216 0)
(0.764107 0.963083 0)
(0.779815 0.713963 0)
(0.762416 0.543724 0)
(0.713844 0.408813 0)
(0.668948 0.295264 0)
(0.642264 0.235162 0)
(0.569411 0.114766 0)
(0.532377 0.0967363 0)
(0.469991 0.0765942 0)
(0.55103 0.125225 0)
(0.712929 -0.0135432 0)
(0.565419 -0.0119784 0)
(0.327207 -0.150629 0)
(0.407924 0.00718756 0)
(0.61591 -0.00413292 0)
(0.495511 -0.175586 0)
(0.353982 -0.0869858 0)
(0.407242 -0.136622 0)
(0.626787 -0.230659 0)
(0.0782452 1.47097 0)
(0.252677 1.53397 0)
(0.4117 1.32509 0)
(0.526436 1.06004 0)
(0.592357 0.87694 0)
(0.603265 0.707932 0)
(0.607202 0.564173 0)
(0.585831 0.459527 0)
(0.565148 0.343511 0)
(0.541467 0.295088 0)
(0.510149 0.181198 0)
(0.480537 0.172709 0)
(0.494165 0.0889362 0)
(0.507949 0.155679 0)
(0.495522 0.0970243 0)
(0.376896 -0.0518519 0)
(0.462806 0.0468465 0)
(0.490857 0.0422001 0)
(0.334805 -0.0570171 0)
(0.43425 -0.140453 0)
(0.462611 -0.14632 0)
(0.426629 -0.120296 0)
(0.45619 -0.180149 0)
(0.0558481 1.21762 0)
(0.184529 1.25394 0)
(0.322248 1.10521 0)
(0.397412 0.93595 0)
(0.457587 0.811216 0)
(0.473273 0.685563 0)
(0.499175 0.570667 0)
(0.486633 0.475412 0)
(0.499747 0.378624 0)
(0.465752 0.321508 0)
(0.480811 0.205559 0)
(0.39405 0.161162 0)
(0.446841 0.0854782 0)
(0.572128 0.144778 0)
(0.463321 0.146954 0)
(0.407023 -0.00395233 0)
(0.386885 0.036574 0)
(0.328496 -0.0966952 0)
(0.352873 -0.081305 0)
(0.406587 -0.0939142 0)
(0.43063 -0.196331 0)
(0.411624 -0.146353 0)
(0.414909 -0.224055 0)
(0.0444226 1.02154 0)
(0.130642 1.02701 0)
(0.237839 0.921849 0)
(0.291067 0.814206 0)
(0.342657 0.724826 0)
(0.361256 0.629098 0)
(0.3899 0.537317 0)
(0.379294 0.462257 0)
(0.399827 0.38743 0)
(0.371051 0.35029 0)
(0.405881 0.26935 0)
(0.343993 0.128547 0)
(0.424584 0.156652 0)
(0.59656 0.197352 0)
(0.44097 0.0767918 0)
(0.30077 -0.00894498 0)
(0.352997 -0.14175 0)
(0.361937 -0.0873153 0)
(0.302773 -0.0849123 0)
(0.340316 -0.0717242 0)
(0.480817 -0.193528 0)
(0.402296 -0.13765 0)
(0.386983 -0.193581 0)
(0.0360792 0.891432 0)
(0.0998744 0.880914 0)
(0.178862 0.805191 0)
(0.219694 0.736777 0)
(0.268816 0.668716 0)
(0.285283 0.591014 0)
(0.327266 0.522719 0)
(0.318115 0.451545 0)
(0.373934 0.374828 0)
(0.338602 0.311694 0)
(0.255868 0.255411 0)
(0.323747 0.155607 0)
(0.522633 0.244432 0)
(0.505799 0.175634 0)
(0.331596 0.0744791 0)
(0.314314 0.0173137 0)
(0.355001 0.0168095 0)
(0.434355 -0.0255137 0)
(0.435464 -0.00124721 0)
(0.321304 -0.0417088 0)
(0.356276 -0.12384 0)
(0.440798 -0.241526 0)
(0.348256 -0.351134 0)
(0.0265387 0.759127 0)
(0.0741652 0.742208 0)
(0.12818 0.692284 0)
(0.160822 0.640447 0)
(0.194857 0.594522 0)
(0.213435 0.520966 0)
(0.235054 0.474794 0)
(0.239054 0.385842 0)
(0.260598 0.341151 0)
(0.262282 0.2249 0)
(0.213944 0.283382 0)
(0.291978 0.259378 0)
(0.49499 0.299863 0)
(0.339032 0.0387723 0)
(0.227088 0.0593905 0)
(0.292148 0.0456722 0)
(0.404514 0.0737629 0)
(0.423331 -0.0640436 0)
(0.35901 -0.0888881 0)
(0.254176 -0.228168 0)
(0.319365 -0.188917 0)
(0.274211 -0.243921 0)
(0.344551 -0.387956 0)
(0.0188914 0.702097 0)
(0.0594829 0.683751 0)
(0.0945318 0.639747 0)
(0.123954 0.607634 0)
(0.146778 0.564051 0)
(0.168887 0.506974 0)
(0.180049 0.471083 0)
(0.203036 0.379129 0)
(0.177373 0.366406 0)
(0.234065 0.314511 0)
(0.258721 0.30467 0)
(0.330235 0.390727 0)
(0.333783 0.305191 0)
(0.192852 0.113123 0)
(0.217994 0.120452 0)
(0.267618 0.119849 0)
(0.291309 0.0515478 0)
(0.270491 -0.00903049 0)
(0.209546 -0.12356 0)
(0.234822 -0.21176 0)
(0.416688 -0.185855 0)
(0.261624 -0.250057 0)
(0.29386 -0.242687 0)
(0.0089871 0.600018 0)
(0.0307319 0.587258 0)
(0.0669862 0.564487 0)
(0.0792319 0.534167 0)
(0.0881201 0.50629 0)
(0.116367 0.454296 0)
(0.0972337 0.425727 0)
(0.154226 0.382877 0)
(0.191382 0.343957 0)
(0.209408 0.315415 0)
(0.2354 0.254626 0)
(0.289477 0.205421 0)
(0.151764 0.0456467 0)
(0.156128 0.0440326 0)
(0.208741 0.0618999 0)
(0.18148 0.0813072 0)
(0.164647 0.0158707 0)
(0.216332 -0.0266595 0)
(0.178687 -0.0472565 0)
(0.203858 -0.0644298 0)
(0.357476 -0.23086 0)
(0.235145 -0.317054 0)
(0.183343 -0.261742 0)
(0.00636633 0.624761 0)
(0.0258548 0.576974 0)
(0.0401813 0.539147 0)
(0.0595123 0.567713 0)
(0.0650284 0.484031 0)
(0.0903145 0.466573 0)
(0.0899271 0.422518 0)
(0.109395 0.445779 0)
(0.122604 0.346831 0)
(0.147778 0.316517 0)
(0.1557 0.257192 0)
(0.226285 0.170448 0)
(0.154071 0.0662758 0)
(0.172931 0.120142 0)
(0.252547 0.0350839 0)
(0.194053 0.0509656 0)
(0.0950053 0.00630727 0)
(0.171112 -0.0061883 0)
(0.181761 -0.0808946 0)
(0.082546 -0.110287 0)
(0.22861 -0.180464 0)