/*--------------------------------*- C++ -*----------------------------------*\
| =========                 |                                                 |
| \\      /  F ield         | foam-extend: Open Source CFD                    |
|  \\    /   O peration     | Version:     4.1                                |
|   \\  /    A nd           | Web:         http://www.foam-extend.org         |
|    \\/     M anipulation  |                                                 |
\*---------------------------------------------------------------------------*/
FoamFile
{
    version     2.0;
    format      ascii;
    class       volVectorField;
    location    "0.65";
    object      U_0;
}
// * * * * * * * * * * * * * * * * * * * * * * * * * * * * * * * * * * * * * //

dimensions      [0 1 -1 0 0 0 0];

internalField   nonuniform List<vector> 
2268
(
(0.0175783 -0.000510043 0)
(-0.0131362 0.00275965 0)
(-0.0143973 0.00297451 0)
(-0.0425796 -0.00067862 0)
(-0.0484434 0.00306143 0)
(-0.0731173 0.000642859 0)
(-0.0843979 4.78461e-05 0)
(-0.0919138 0.00114763 0)
(-0.0994557 -0.00376017 0)
(-0.115599 -0.00177968 0)
(-0.11336 -0.0149898 0)
(-0.0744948 0.00119596 0)
(-0.0571118 -0.0116884 0)
(-0.053274 -0.0101541 0)
(-0.045485 -0.012175 0)
(-0.0417806 -0.0103777 0)
(-0.036834 -0.00198956 0)
(-0.0436879 -0.0125442 0)
(-0.0519325 -0.00706186 0)
(-0.0335006 -0.00570727 0)
(-0.0174008 -0.000334663 0)
(-0.0245382 -0.00311951 0)
(0.00639143 -0.00802262 0)
(0.0134598 -0.00021344 0)
(-0.0141478 0.00777008 0)
(-0.0136213 0.00687706 0)
(-0.0403497 0.0047899 0)
(-0.0490152 0.00388798 0)
(-0.0755717 0.00775317 0)
(-0.082146 0.00445649 0)
(-0.0891986 0.00604872 0)
(-0.0952598 0.0082791 0)
(-0.0872284 0.00698907 0)
(-0.0708463 0.00546705 0)
(-0.0521487 0.0146253 0)
(-0.0478011 0.00122257 0)
(-0.0429737 -0.000725846 0)
(-0.0343124 0.000484627 0)
(-0.0263518 0.00789978 0)
(-0.0257648 -9.68936e-05 0)
(-0.0196195 5.5885e-05 0)
(-0.0268588 0.0218204 0)
(-0.028226 -0.0103324 0)
(-0.0328404 -0.00510781 0)
(-0.023017 -0.00731695 0)
(0.0238002 -0.000752275 0)
(0.00456144 0.000180264 0)
(-0.018548 0.0105679 0)
(-0.0128563 0.00938506 0)
(-0.0353259 0.00725185 0)
(-0.0519051 0.0118524 0)
(-0.0702974 0.00773934 0)
(-0.0768404 0.0122646 0)
(-0.0838296 0.00822848 0)
(-0.0892002 0.000732223 0)
(-0.102018 -0.0100146 0)
(-0.0887684 0.00960865 0)
(-0.0674756 -0.0103882 0)
(-0.066626 -0.0190264 0)
(-0.0690469 -0.0235067 0)
(-0.0587026 -0.0162669 0)
(-0.0588462 -0.0203336 0)
(-0.0426526 -0.0130932 0)
(-0.0299315 -0.00523945 0)
(-0.0301745 -0.0051919 0)
(-0.0280066 -0.0140647 0)
(-0.017142 -0.00667318 0)
(-0.0286836 -0.042342 0)
(0.0210099 -0.0071306 0)
(0.000248143 0.0053877 0)
(-0.0201116 0.0116024 0)
(-0.00843033 0.0105907 0)
(-0.0336867 0.0145078 0)
(-0.0467021 0.0123759 0)
(-0.0636687 0.0131205 0)
(-0.0861695 0.0104111 0)
(-0.0981706 0.00716236 0)
(-0.089594 0.00595051 0)
(-0.0931259 0.013806 0)
(-0.0879486 0.021572 0)
(-0.10382 0.000803895 0)
(-0.118125 -0.0013374 0)
(-0.120899 -0.00466672 0)
(-0.108801 -0.00343296 0)
(-0.10124 -0.014534 0)
(-0.0793477 -0.000849434 0)
(-0.0810968 -0.0050282 0)
(-0.0643524 0.00967915 0)
(-0.0609063 -0.0181401 0)
(-0.03485 0.0133349 0)
(-0.0365886 -0.0415256 0)
(0.0364672 -0.00282645 0)
(0.00159888 0.00858114 0)
(-0.0160129 0.0114385 0)
(-0.00629434 0.0124786 0)
(-0.0326785 0.0164763 0)
(-0.0427427 0.0196164 0)
(-0.0729651 0.0172483 0)
(-0.100458 0.0312435 0)
(-0.100347 0.016984 0)
(-0.100296 0.00101389 0)
(-0.118905 0.0208212 0)
(-0.120545 0.0191931 0)
(-0.149891 0.0082269 0)
(-0.159377 -0.000987436 0)
(-0.161092 -0.0210328 0)
(-0.156665 -0.0307351 0)
(-0.154815 -0.0341234 0)
(-0.131262 -0.0156387 0)
(-0.124919 -0.00806313 0)
(-0.1235 -0.0182631 0)
(-0.10308 -0.0451561 0)
(-0.0630819 -0.00125629 0)
(-0.065364 -0.0379587 0)
(0.0361296 -0.0177197 0)
(0.00749166 0.0110487 0)
(-0.0104462 0.0142985 0)
(-0.00645443 0.0144446 0)
(-0.0341692 0.0220873 0)
(-0.0481777 0.021789 0)
(-0.0760599 0.0252903 0)
(-0.103575 0.0231069 0)
(-0.121323 0.0293779 0)
(-0.136348 0.0340779 0)
(-0.156515 0.0321212 0)
(-0.176214 0.0326558 0)
(-0.189012 0.0187754 0)
(-0.192161 0.00950274 0)
(-0.192456 -0.0165722 0)
(-0.181214 -0.0274111 0)
(-0.173934 -0.0319224 0)
(-0.16249 -0.0143943 0)
(-0.177635 -0.0214673 0)
(-0.188997 0.00237033 0)
(-0.137599 -0.0520092 0)
(-0.0969649 -0.0273737 0)
(-0.0694038 -0.0652871 0)
(0.0355522 -0.0159622 0)
(0.00755189 0.0103753 0)
(-0.0139271 0.0168809 0)
(-0.0163179 0.0198081 0)
(-0.0450876 0.0276471 0)
(-0.0606552 0.0321624 0)
(-0.0941644 0.0302438 0)
(-0.132413 0.0185413 0)
(-0.16982 0.0346871 0)
(-0.189035 0.0532404 0)
(-0.19639 0.0366284 0)
(-0.205358 0.0359793 0)
(-0.210268 0.016746 0)
(-0.208478 0.00385202 0)
(-0.209867 -0.0149347 0)
(-0.201482 -0.0231508 0)
(-0.186344 -0.036935 0)
(-0.177158 -0.0174633 0)
(-0.186182 -0.0650235 0)
(-0.199785 -0.0513558 0)
(-0.166432 -0.0675103 0)
(-0.123348 -0.101715 0)
(-0.0727575 -0.0661241 0)
(0.0418779 -0.0363455 0)
(0.00187937 0.0124636 0)
(-0.0272412 0.0220431 0)
(-0.0355836 0.0298067 0)
(-0.0636938 0.0378864 0)
(-0.082545 0.0462839 0)
(-0.11213 0.0568519 0)
(-0.16318 0.0534859 0)
(-0.218718 0.0504665 0)
(-0.226133 0.0569361 0)
(-0.232233 0.0422535 0)
(-0.236318 0.0401455 0)
(-0.231993 0.017446 0)
(-0.224434 0.00931809 0)
(-0.219426 -0.0170203 0)
(-0.20849 -0.0348074 0)
(-0.185041 -0.0452431 0)
(-0.188312 -0.0406725 0)
(-0.202454 -0.0811314 0)
(-0.190175 -0.0601316 0)
(-0.182401 -0.0178504 0)
(-0.149561 -0.112529 0)
(-0.0494545 -0.103772 0)
(0.0148645 -0.036246 0)
(-1.37672 0.304452 0)
(-1.66898 0.172033 0)
(-1.83497 -0.0048297 0)
(-1.92332 -0.0115697 0)
(-1.7403 -0.114565 0)
(-1.61303 -0.0928226 0)
(-1.43886 -0.125053 0)
(-1.36365 -0.162773 0)
(-1.22774 -0.113335 0)
(-1.14898 -0.113034 0)
(-1.12493 -0.0622368 0)
(-1.28952 0.0234263 0)
(-1.38167 0.0140323 0)
(-1.36506 -0.126219 0)
(-1.45042 -0.180963 0)
(-1.54657 -0.0935909 0)
(-1.16157 0.00920281 0)
(-0.929213 -0.33507 0)
(-0.22984 -0.0747144 0)
(-1.32366 0.465995 0)
(-1.47476 0.40745 0)
(-1.45413 0.160997 0)
(-1.4858 0.109708 0)
(-1.12151 -0.0660689 0)
(-0.92746 0.00620581 0)
(-0.721458 -0.0255234 0)
(-0.661714 -0.0471074 0)
(-0.643178 -0.00680011 0)
(-0.829256 0.0710202 0)
(-0.89692 0.142132 0)
(-1.17369 0.150392 0)
(-1.4316 0.0455326 0)
(-1.53696 -0.0184643 0)
(-1.47964 -0.231231 0)
(-1.61284 0.0206559 0)
(-1.46199 0.183809 0)
(-0.823496 -0.403349 0)
(-0.323493 -0.436511 0)
(-1.22436 0.791964 0)
(-1.1668 0.657157 0)
(-1.00173 0.0998694 0)
(-1.1238 -0.0395703 0)
(-0.820706 -0.201484 0)
(-0.588019 -0.320852 0)
(-0.427997 -0.24498 0)
(-0.319241 -0.0307638 0)
(-0.0356118 -0.050224 0)
(0.125083 0.0112653 0)
(-0.304473 0.0129456 0)
(-0.808958 0.104845 0)
(-1.06855 -0.227677 0)
(-1.33856 -0.212408 0)
(-1.45458 -0.339551 0)
(-1.53319 -0.091855 0)
(-1.40645 0.0963577 0)
(-0.67289 -0.301238 0)
(-0.213263 -0.591101 0)
(-1.01046 1.00589 0)
(-0.818807 0.715608 0)
(-0.528007 0.0189471 0)
(-0.760892 -0.210125 0)
(-0.654615 -0.15427 0)
(-0.392297 -0.556514 0)
(-0.210291 -0.557504 0)
(-0.0849583 -0.262218 0)
(0.0527742 -0.160471 0)
(0.35602 0.144847 0)
(0.22787 0.529164 0)
(-0.247121 0.507245 0)
(-0.0585514 0.158249 0)
(-0.545554 -0.294625 0)
(-1.00009 -0.196661 0)
(-1.06744 -0.0609367 0)
(-0.992136 -0.185862 0)
(-0.733526 -0.259099 0)
(-0.0745302 -0.86487 0)
(-0.886299 1.13485 0)
(-0.546338 0.87925 0)
(-0.288487 0.074545 0)
(-0.59568 -0.100306 0)
(-0.408475 -0.206458 0)
(-0.235254 -0.669246 0)
(-0.00520817 -0.515283 0)
(0.113994 -0.424132 0)
(0.217188 -0.224981 0)
(0.333928 0.0721824 0)
(0.718318 0.561521 0)
(0.709308 0.719328 0)
(0.684452 0.405367 0)
(0.187291 -0.013874 0)
(-0.711041 -0.162424 0)
(-0.986915 0.199646 0)
(-0.859856 -0.23249 0)
(-0.670772 -0.289738 0)
(-0.000538427 -1.07999 0)
(-0.697569 1.27388 0)
(-0.333292 0.801463 0)
(-0.232656 0.0530339 0)
(-0.548075 -0.0176544 0)
(-0.355567 -0.311292 0)
(-0.132093 -0.808404 0)
(0.111165 -0.411096 0)
(0.238505 -0.419001 0)
(0.300515 -0.259 0)
(0.462763 -0.123213 0)
(0.740846 0.366491 0)
(0.865036 0.491317 0)
(0.842832 0.313898 0)
(0.34257 0.124015 0)
(-0.584383 -0.0202306 0)
(-0.82201 0.187764 0)
(-0.782425 -0.238999 0)
(-0.444436 -0.445123 0)
(-0.00139487 -1.1808 0)
(-0.647356 1.37444 0)
(-0.123375 0.914107 0)
(-0.171478 0.0835796 0)
(-0.460304 -0.0741437 0)
(-0.218424 -0.42484 0)
(0.132221 -0.649049 0)
(0.243992 -0.486067 0)
(0.281854 -0.368472 0)
(0.386583 -0.299511 0)
(0.502591 -0.170329 0)
(0.758214 0.241594 0)
(0.88492 0.493962 0)
(0.916087 0.38047 0)
(0.745657 0.35136 0)
(0.221137 0.298791 0)
(-0.576797 0.264984 0)
(-0.668805 -0.296746 0)
(-0.445722 -0.610692 0)
(0.00970526 -1.19226 0)
(-0.476703 1.50625 0)
(0.0173015 0.832273 0)
(0.157601 0.217225 0)
(-0.167828 -0.0364342 0)
(0.135464 -0.425417 0)
(0.186697 -0.539423 0)
(0.298841 -0.490716 0)
(0.342355 -0.408696 0)
(0.393035 -0.359388 0)
(0.530636 -0.240973 0)
(0.82001 0.274989 0)
(0.88729 0.478481 0)
(0.893102 0.485701 0)
(0.768772 0.429325 0)
(0.432985 0.352608 0)
(-0.233035 0.161184 0)
(-0.366224 -0.117736 0)
(-0.325932 -0.629044 0)
(0.063339 -1.12231 0)
(-0.0117071 0.0187458 0)
(-0.0766696 0.0315345 0)
(-0.123056 0.0500713 0)
(-0.144305 0.0629001 0)
(-0.147107 0.0709866 0)
(-0.175466 0.0751144 0)
(-0.231441 0.0866139 0)
(-0.254208 0.0734722 0)
(-0.25954 0.0544138 0)
(-0.256382 0.0425248 0)
(-0.25988 0.0332606 0)
(-0.240688 0.0118049 0)
(-0.222868 -0.0153594 0)
(-0.223055 -0.0415267 0)
(-0.211568 -0.0509972 0)
(-0.185921 -0.0606802 0)
(-0.189781 -0.0859341 0)
(-0.178707 -0.0512659 0)
(-0.154366 -0.0579961 0)
(-0.190274 -0.0255005 0)
(-0.212566 -0.0678898 0)
(-0.0832246 -0.156281 0)
(0.0557411 -0.106024 0)
(-0.0549155 0.0597418 0)
(-0.23632 0.0795231 0)
(-0.335871 0.0661504 0)
(-0.340662 0.170083 0)
(-0.315358 0.198178 0)
(-0.330199 0.129341 0)
(-0.349928 0.12023 0)
(-0.317071 0.0608144 0)
(-0.271446 0.0695522 0)
(-0.256194 0.0381971 0)
(-0.249045 0.041472 0)
(-0.243984 -0.0273751 0)
(-0.22427 -0.0187328 0)
(-0.19581 -0.0566509 0)
(-0.180484 -0.0601434 0)
(-0.187006 -0.0745482 0)
(-0.156645 -0.0948608 0)
(-0.153333 -0.0801414 0)
(-0.159319 -0.144379 0)
(-0.150213 -0.123306 0)
(-0.206172 -0.19804 0)
(-0.146109 -0.203748 0)
(-0.106145 -0.3168 0)
(-0.120781 0.165697 0)
(-0.465229 0.190214 0)
(-0.469292 0.265623 0)
(-0.472024 0.247358 0)
(-0.578438 0.236028 0)
(-0.576072 0.116152 0)
(-0.531733 0.0990349 0)
(-0.340749 0.048532 0)
(-0.267979 0.0578465 0)
(-0.244494 0.0232956 0)
(-0.29489 0.0068645 0)
(-0.28298 0.0111233 0)
(-0.184082 -0.0549537 0)
(-0.19945 -0.0522613 0)
(-0.191533 -0.0684691 0)
(-0.196623 -0.0713606 0)
(-0.172959 -0.0627999 0)
(-0.215422 -0.109287 0)
(-0.175583 -0.111792 0)
(-0.26682 -0.119709 0)
(-0.296396 -0.194928 0)
(-0.250245 -0.226839 0)
(-0.342634 -0.271299 0)
(-0.199359 0.390008 0)
(-0.482171 0.338272 0)
(-0.560359 0.290924 0)
(-0.533337 0.0689574 0)
(-0.735671 -0.0190745 0)
(-0.777158 0.0135889 0)
(-0.659136 0.0297232 0)
(-0.433681 0.0958802 0)
(-0.343688 -0.00540372 0)
(-0.3593 -0.00297086 0)
(-0.314699 -0.0773686 0)
(-0.435284 0.0572602 0)
(-0.351663 -0.0583238 0)
(-0.248381 -0.0505278 0)
(-0.288846 -0.0510563 0)
(-0.282443 -0.0941111 0)
(-0.299878 -0.103364 0)
(-0.301093 -0.142079 0)
(-0.295689 -0.0679323 0)
(-0.356417 -0.0965011 0)
(-0.371206 -0.111568 0)
(-0.339538 -0.183305 0)
(-0.404281 -0.0781835 0)
(-0.234147 0.753604 0)
(-0.415385 0.508937 0)
(-0.499978 0.358025 0)
(-0.623465 0.13826 0)
(-0.790471 -0.0616985 0)
(-0.680716 0.053229 0)
(-0.599772 0.0296875 0)
(-0.595455 0.1411 0)
(-0.519534 0.0100565 0)
(-0.54821 -0.0298371 0)
(-0.493051 -0.101219 0)
(-0.510606 -0.159801 0)
(-0.519658 0.00660961 0)
(-0.427439 -0.0986312 0)
(-0.611183 -0.146466 0)
(-0.676446 -0.178592 0)
(-0.679197 -0.201046 0)
(-0.430978 -0.0670708 0)
(-0.327978 0.0489012 0)
(-0.579299 -0.122739 0)
(-0.600855 -0.202022 0)
(-0.418601 -0.162389 0)
(-0.445621 -0.0553461 0)
(-0.11078 1.04935 0)
(-0.271713 0.584051 0)
(-0.328544 0.321142 0)
(-0.634358 0.156071 0)
(-0.765437 0.0985792 0)
(-0.824645 0.205769 0)
(-0.629023 0.0603648 0)
(-0.551873 0.0681539 0)
(-0.55309 0.0101645 0)
(-0.66078 -0.0289833 0)
(-0.766013 -0.0375218 0)
(-0.864791 -0.00991075 0)
(-0.859161 -0.00837821 0)
(-0.913209 -0.0341066 0)
(-1.01099 -0.123853 0)
(-1.04669 -0.054533 0)
(-0.998807 -0.0180974 0)
(-0.944386 -0.0536989 0)
(-1.11613 -0.223291 0)
(-1.12784 -0.337205 0)
(-0.696119 -0.176087 0)
(-0.568447 -0.0157322 0)
(-0.574632 0.0611945 0)
(-0.203831 1.18862 0)
(-0.250229 0.806926 0)
(-0.278836 0.402003 0)
(-0.553001 0.15907 0)
(-0.819086 0.234011 0)
(-0.972139 0.355099 0)
(-1.19865 0.2743 0)
(-1.69473 0.132257 0)
(-1.94959 0.160166 0)
(-1.95899 0.130416 0)
(-1.86295 0.0526468 0)
(-1.80809 -0.0170282 0)
(-1.76832 -0.0828935 0)
(-1.70426 -0.141314 0)
(-1.64176 -0.156334 0)
(-1.58108 -0.156764 0)
(-1.5651 -0.170265 0)
(-1.56173 -0.352681 0)
(-1.55427 -0.400677 0)
(-1.34958 -0.392033 0)
(-1.25406 -0.178211 0)
(-1.13621 -0.146228 0)
(-1.10156 -0.0457604 0)
(-0.220641 1.4687 0)
(-0.34682 1.32662 0)
(-0.346019 0.635782 0)
(-0.465868 0.427964 0)
(-0.616694 0.364229 0)
(-0.912055 0.629598 0)
(-1.20342 0.628205 0)
(-1.24646 0.41043 0)
(-1.28198 0.360528 0)
(-1.4076 0.30818 0)
(-1.42894 0.15088 0)
(-1.41625 0.00337002 0)
(-1.423 -0.079085 0)
(-1.45954 -0.120899 0)
(-1.48568 -0.152135 0)
(-1.49787 -0.231063 0)
(-1.75539 -0.265394 0)
(-1.82012 -0.294887 0)
(-1.74343 -0.338372 0)
(-1.50321 -0.237262 0)
(-1.41172 -0.196872 0)
(-1.46155 -0.190074 0)
(-1.37901 -0.251432 0)
(-0.209489 1.57352 0)
(-0.310937 1.38556 0)
(-0.296831 0.806857 0)
(-0.416604 0.65346 0)
(-0.474924 0.695646 0)
(-0.704582 0.753934 0)
(-1.20492 0.743942 0)
(-1.47852 0.726055 0)
(-1.61432 0.463743 0)
(-1.53985 0.265951 0)
(-1.46197 0.0832737 0)
(-1.45001 -0.0788038 0)
(-1.4015 -0.21763 0)
(-1.36351 -0.290152 0)
(-1.31447 -0.387277 0)
(-1.27626 -0.488196 0)
(-1.33992 -0.552219 0)
(-1.35059 -0.310576 0)
(-1.43405 -0.264593 0)
(-1.43709 -0.191189 0)
(-1.40536 -0.286472 0)
(-1.58502 -0.288311 0)
(-1.48146 -0.19829 0)
(-0.169501 1.74965 0)
(-0.394578 1.45445 0)
(-0.463039 0.963813 0)
(-1.04285 0.991439 0)
(-1.37823 1.17875 0)
(-1.57469 1.07779 0)
(-1.71289 0.98886 0)
(-1.59903 0.689283 0)
(-1.51971 0.322946 0)
(-1.37149 0.177836 0)
(-1.18549 0.0180431 0)
(-1.07223 -0.0288871 0)
(-0.857891 -0.22717 0)
(-0.603732 -0.338296 0)
(-0.510837 -0.410049 0)
(-0.47764 -0.428407 0)
(-0.593306 -0.581492 0)
(-0.565286 -0.426272 0)
(-0.681107 -0.354828 0)
(-0.73888 -0.212372 0)
(-0.736683 -0.248235 0)
(-0.962207 -0.199719 0)
(-1.07492 0.089878 0)
(-0.307343 2.0365 0)
(-0.389506 1.82643 0)
(-0.831452 1.2227 0)
(-1.56877 1.40264 0)
(-1.74533 1.46662 0)
(-1.7692 1.12043 0)
(-1.57773 0.931372 0)
(-1.44396 0.578332 0)
(-1.23889 0.249459 0)
(-0.941545 0.0940027 0)
(-0.662615 -0.0955216 0)
(-0.466164 -0.307348 0)
(-0.439922 -0.466432 0)
(-0.310391 -0.388489 0)
(-0.307431 -0.307313 0)
(-0.326447 -0.328852 0)
(-0.438566 -0.449946 0)
(-0.521539 -0.558486 0)
(-0.610465 -0.482656 0)
(-0.67566 -0.278667 0)
(-0.731631 -0.204256 0)
(-0.836361 -0.237069 0)
(-0.891565 -0.0878058 0)
(-0.288449 2.25531 0)
(-0.66646 2.32092 0)
(-1.20405 1.64937 0)
(-1.50556 1.57078 0)
(-1.72938 1.46558 0)
(-1.69235 1.00291 0)
(-1.01597 0.47909 0)
(-0.817186 0.08786 0)
(-0.889804 0.151217 0)
(-0.842013 0.0889788 0)
(-0.746498 0.082022 0)
(-0.496469 -0.506219 0)
(-0.376092 -0.57732 0)
(-0.34031 -0.495416 0)
(-0.318305 -0.372091 0)
(-0.338896 -0.241365 0)
(-0.405174 -0.105245 0)
(-0.483464 -0.159657 0)
(-0.555538 -0.132704 0)
(-0.608806 -0.134866 0)
(-0.709522 -0.00128416 0)
(-0.812898 0.0476444 0)
(-0.856659 0.0422444 0)
(-0.0838938 2.56695 0)
(-0.542033 2.42057 0)
(-1.09368 1.8115 0)
(-1.31327 1.49742 0)
(-1.36908 1.14493 0)
(-1.11512 0.769017 0)
(-0.80628 0.52133 0)
(-0.872149 0.21457 0)
(-0.86946 0.101043 0)
(-0.727055 -0.146404 0)
(-0.523715 -0.410776 0)
(-0.367462 -0.543057 0)
(-0.440177 -0.563554 0)
(-0.511851 -0.447026 0)
(-0.523684 -0.311084 0)
(-0.573098 -0.246139 0)
(-0.748768 -0.134844 0)
(-0.782205 -0.0458755 0)
(-0.752342 -0.023054 0)
(-0.770379 -0.0111165 0)
(-0.770004 -0.0269985 0)
(-0.745868 0.0212147 0)
(-0.691444 0.0725498 0)
(0.188542 3.07319 0)
(-0.0509916 2.66819 0)
(-0.638606 1.92517 0)
(-0.885606 1.65795 0)
(-0.891073 1.23377 0)
(-0.465191 0.589094 0)
(-0.410164 0.378783 0)
(-0.837006 0.257249 0)
(-0.76193 0.143018 0)
(-0.322081 -0.264241 0)
(-0.467927 -0.466826 0)
(-0.422608 -0.520412 0)
(-0.484664 -0.458634 0)
(-0.532315 -0.333811 0)
(-0.566674 -0.23016 0)
(-0.778502 -0.243655 0)
(-0.91827 -0.2832 0)
(-0.906492 -0.20073 0)
(-0.823303 -0.14211 0)
(-0.840916 -0.0590457 0)
(-0.866337 -0.0202436 0)
(-0.889695 -0.0214395 0)
(-0.889602 -0.0869796 0)
(0.225173 3.08997 0)
(0.472696 2.74904 0)
(0.250629 2.28776 0)
(-0.100444 1.81051 0)
(-0.187519 1.16166 0)
(0.119987 0.513081 0)
(-0.201932 0.395305 0)
(-0.606858 0.421251 0)
(-0.461609 0.194998 0)
(-0.345228 -0.404885 0)
(-0.569923 -0.422989 0)
(-0.457783 -0.471885 0)
(-0.340296 -0.43913 0)
(-0.297413 -0.314699 0)
(-0.195092 -0.193692 0)
(-0.154118 -0.142971 0)
(-0.136777 -0.11036 0)
(-0.194082 -0.081798 0)
(-0.190128 -0.0665634 0)
(-0.138251 -0.0309727 0)
(-0.10951 -0.009336 0)
(-0.0974518 0.0621073 0)
(-0.0985568 0.0533719 0)
(0.130569 2.49695 0)
(0.697462 2.7236 0)
(0.756366 2.55369 0)
(0.526848 1.9938 0)
(0.481985 1.11495 0)
(0.548716 0.679978 0)
(-0.0326922 0.643188 0)
(-0.440846 0.719659 0)
(-0.11877 -0.0825064 0)
(-0.194377 -0.452534 0)
(-0.219073 -0.380422 0)
(-0.295907 -0.384674 0)
(-0.213799 -0.479359 0)
(-0.231791 -0.401613 0)
(-0.16231 -0.326995 0)
(-0.126832 -0.28706 0)
(-0.0928392 -0.279649 0)
(-0.12744 -0.244236 0)
(-0.136797 -0.186147 0)
(-0.080921 -0.0906954 0)
(-0.0580601 -0.0450113 0)
(0.00885403 0.0200042 0)
(0.0179147 0.0182985 0)
(-0.0265699 1.82805 0)
(0.70161 2.74381 0)
(0.698786 2.65912 0)
(0.753634 2.22062 0)
(0.804325 1.37871 0)
(0.55823 0.887303 0)
(-0.0519083 0.925962 0)
(-0.288994 0.78796 0)
(0.112294 -0.138504 0)
(-0.126231 -0.346048 0)
(-0.0367129 -0.28761 0)
(-0.10842 -0.504848 0)
(-0.10778 -0.510761 0)
(-0.152759 -0.410017 0)
(-0.113482 -0.335164 0)
(-0.0882308 -0.322629 0)
(-0.0890358 -0.31586 0)
(-0.12043 -0.281316 0)
(-0.0183808 -0.203833 0)
(0.0150911 -0.210587 0)
(0.053211 -0.112303 0)
(0.0757587 -0.0634136 0)
(0.109153 -0.0529504 0)
(-0.146102 1.46088 0)
(0.67492 2.6403 0)
(0.541177 2.56848 0)
(0.703192 2.59502 0)
(0.711092 1.64078 0)
(0.214169 1.3828 0)
(-0.024838 1.24323 0)
(-0.0390389 0.690966 0)
(0.308359 -0.133906 0)
(0.165887 -0.464612 0)
(0.00555505 -0.443121 0)
(0.0433557 -0.413704 0)
(0.0270627 -0.497315 0)
(0.0265301 -0.422548 0)
(-0.0772169 -0.280213 0)
(-0.0783081 -0.387815 0)
(-0.0254863 -0.213702 0)
(0.0357861 -0.161932 0)
(0.0317414 -0.146119 0)
(0.0638693 -0.141118 0)
(0.126476 -0.141005 0)
(0.145061 -0.135182 0)
(0.190716 -0.151254 0)
(-0.230406 1.34426 0)
(0.370186 2.36989 0)
(0.571672 2.35189 0)
(0.632187 2.51951 0)
(0.326769 1.67706 0)
(-0.0559493 1.51198 0)
(-0.00954248 1.28897 0)
(0.15006 0.587947 0)
(0.291199 -0.0444461 0)
(0.140385 -0.361845 0)
(0.252512 -0.452502 0)
(0.176784 -0.453113 0)
(0.0549685 -0.437337 0)
(0.101038 -0.399336 0)
(0.0277188 -0.397071 0)
(-0.0337244 -0.243618 0)
(0.124039 -0.204208 0)
(0.0369051 -0.154161 0)
(0.0523963 -0.158945 0)
(0.0922123 -0.0907175 0)
(0.108168 -0.157459 0)
(0.126382 -0.16173 0)
(0.162213 -0.156803 0)
(-0.238103 1.36676 0)
(0.180044 2.13138 0)
(0.393604 2.63474 0)
(0.381213 2.23677 0)
(-0.251192 1.89006 0)
(-0.0769121 1.86176 0)
(0.236037 1.3032 0)
(0.128153 0.823073 0)
(0.133678 0.052893 0)
(0.122414 -0.231754 0)
(0.139041 -0.404504 0)
(0.154996 -0.584463 0)
(0.131002 -0.581522 0)
(0.0761827 -0.413981 0)
(0.15365 -0.383986 0)
(0.176352 -0.240308 0)
(0.158186 -0.23939 0)
(0.135761 -0.293599 0)
(0.204386 -0.23464 0)
(0.169727 -0.200294 0)
(0.158745 -0.166952 0)
(0.193469 -0.188907 0)
(0.240343 -0.160072 0)
(-0.282641 1.36805 0)
(0.263583 1.93711 0)
(0.0265314 2.55999 0)
(-0.0827071 2.29563 0)
(-0.192818 2.13256 0)
(-0.00444198 2.22558 0)
(0.173303 1.2979 0)
(0.112851 0.856395 0)
(0.176103 -0.0595823 0)
(0.117339 -0.405552 0)
(0.150759 -0.480618 0)
(0.109873 -0.604978 0)
(0.202236 -0.560461 0)
(0.258708 -0.436274 0)
(0.228837 -0.296904 0)
(0.212927 -0.188014 0)
(0.223898 -0.187002 0)
(0.23635 -0.181398 0)
(0.28239 -0.211541 0)
(0.271077 -0.227014 0)
(0.225022 -0.256382 0)
(0.179041 -0.249143 0)
(0.268959 -0.234297 0)
(-0.300697 1.39964 0)
(0.0299846 1.8249 0)
(-0.0409585 2.22014 0)
(-0.0893383 2.302 0)
(-0.190726 2.18497 0)
(-0.0227541 1.96933 0)
(0.009507 1.07468 0)
(0.163468 0.494532 0)
(0.0759371 -0.100655 0)
(0.25752 -0.402375 0)
(0.229495 -0.54182 0)
(0.15135 -0.496188 0)
(0.2764 -0.434124 0)
(0.262334 -0.423488 0)
(0.295692 -0.34098 0)
(0.276566 -0.325053 0)
(0.263781 -0.232645 0)
(0.278118 -0.201408 0)
(0.235548 -0.138949 0)
(0.216754 -0.198945 0)
(0.239855 -0.244534 0)
(0.292653 -0.217855 0)
(0.362669 -0.257837 0)
(-0.383646 1.48701 0)
(-0.0703156 1.99799 0)
(0.00614629 2.22485 0)
(-0.0527659 2.31343 0)
(-0.169004 2.23679 0)
(0.180873 1.73469 0)
(-0.0240912 1.0619 0)
(0.269703 0.471565 0)
(0.0719258 0.0345592 0)
(0.217041 -0.260379 0)
(0.243005 -0.5273 0)
(0.307634 -0.470255 0)
(0.294617 -0.46709 0)
(0.300322 -0.500728 0)
(0.297529 -0.372858 0)
(0.307055 -0.410167 0)
(0.306175 -0.222576 0)
(0.3449 -0.1975 0)
(0.33871 -0.196253 0)
(0.294827 -0.208051 0)
(0.32099 -0.165775 0)
(0.285383 -0.167827 0)
(0.338846 -0.233364 0)
(-0.438632 1.69826 0)
(-0.42891 2.43295 0)
(-0.0263092 2.34594 0)
(0.0991837 2.16839 0)
(-0.0441902 2.31686 0)
(0.365417 1.70992 0)
(0.0379046 0.907357 0)
(0.382415 0.266867 0)
(0.283847 -0.21123 0)
(0.290041 -0.50103 0)
(0.289234 -0.506826 0)
(0.376614 -0.509771 0)
(0.36676 -0.469008 0)
(0.426538 -0.41325 0)
(0.403191 -0.329258 0)
(0.426798 -0.344753 0)
(0.49549 -0.285151 0)
(0.360903 -0.144016 0)
(0.30742 -0.193137 0)
(0.337225 -0.226059 0)
(0.383249 -0.207208 0)
(0.366646 -0.205445 0)
(0.429131 -0.182009 0)
(-0.276185 1.91198 0)
(-0.276365 2.73122 0)
(-0.266468 2.72107 0)
(0.227499 2.25427 0)
(0.241979 2.16519 0)
(0.465731 1.81527 0)
(0.176304 1.04727 0)
(0.581886 0.455455 0)
(0.576077 -0.14838 0)
(0.566043 -0.621164 0)
(0.633245 -0.624073 0)
(0.57096 -0.56764 0)
(0.503975 -0.480912 0)
(0.489521 -0.309849 0)
(0.410075 -0.322189 0)
(0.380448 -0.26452 0)
(0.575298 -0.244343 0)
(0.490731 -0.179624 0)
(0.303466 -0.250926 0)
(0.344385 -0.259641 0)
(0.445875 -0.16772 0)
(0.388619 -0.165917 0)
(0.471996 -0.139156 0)
(-0.126078 1.92601 0)
(0.084795 2.73791 0)
(-0.243959 2.71949 0)
(0.17307 2.55572 0)
(0.453623 2.40226 0)
(0.917561 1.98711 0)
(0.706737 1.35916 0)
(0.778729 0.471645 0)
(0.818635 -0.233261 0)
(0.852861 -0.517901 0)
(0.829602 -0.515698 0)
(0.65817 -0.435383 0)
(0.539863 -0.340175 0)
(0.436369 -0.27024 0)
(0.423417 -0.303208 0)
(0.500081 -0.134664 0)
(0.573423 -0.134694 0)
(0.342195 -0.167121 0)
(0.239466 -0.257223 0)
(0.457079 -0.234394 0)
(0.534957 -0.265966 0)
(0.416085 -0.250591 0)
(0.442924 -0.187857 0)
(0.0554693 2.11812 0)
(0.482877 2.84237 0)
(0.0369999 2.6931 0)
(0.254028 2.52234 0)
(0.547085 2.47805 0)
(0.787458 1.93219 0)
(0.680314 1.10185 0)
(0.864353 0.255598 0)
(0.896482 -0.247618 0)
(0.867928 -0.353032 0)
(0.777473 -0.346379 0)
(0.625828 -0.313014 0)
(0.54949 -0.284322 0)
(0.414462 -0.199944 0)
(0.465096 -0.159374 0)
(0.62546 -0.037995 0)
(0.633217 -0.0990134 0)
(0.541547 -0.162614 0)
(0.340305 -0.140745 0)
(0.418397 -0.17432 0)
(0.526812 -0.419679 0)
(0.529033 -0.349443 0)
(0.472584 -0.185963 0)
(-0.0106013 2.71912 0)
(0.415129 2.92053 0)
(0.195694 2.70036 0)
(0.382368 2.1424 0)
(0.615958 2.12477 0)
(0.619994 1.63883 0)
(0.788117 0.704507 0)
(0.967298 0.0214546 0)
(0.932001 -0.259546 0)
(0.814607 -0.261393 0)
(0.717636 -0.232588 0)
(0.59155 -0.246845 0)
(0.544834 -0.259152 0)
(0.5153 -0.201117 0)
(0.518362 -0.0980766 0)
(0.519028 -0.117755 0)
(0.51054 -0.142677 0)
(0.455723 -0.22115 0)
(0.412722 -0.166484 0)
(0.395063 -0.156156 0)
(0.485582 -0.276902 0)
(0.691388 -0.275413 0)
(0.576484 -0.222059 0)
(-0.0384325 2.72507 0)
(0.323123 2.84413 0)
(0.278139 2.6456 0)
(0.411146 2.0527 0)
(0.558998 1.54721 0)
(0.757676 1.08235 0)
(1.02616 0.436812 0)
(1.04742 0.0673357 0)
(0.948944 -0.112749 0)
(0.810626 -0.145377 0)
(0.739502 -0.13394 0)
(0.614969 -0.157815 0)
(0.575525 -0.141686 0)
(0.544342 -0.15167 0)
(0.515849 -0.0995957 0)
(0.495624 -0.113062 0)
(0.45273 -0.120423 0)
(0.442421 -0.164156 0)
(0.439694 -0.137707 0)
(0.345487 -0.0868317 0)
(0.418316 -0.0763938 0)
(0.615504 -0.26518 0)
(0.611538 -0.255159 0)
(0.00812234 2.5134 0)
(0.304549 2.53832 0)
(0.389464 2.33946 0)
(0.57554 1.88326 0)
(0.722229 1.30821 0)
(0.888676 0.842672 0)
(1.00605 0.406519 0)
(0.928631 0.186402 0)
(0.861627 0.0645439 0)
(0.758704 0.00738542 0)
(0.689447 -0.0263183 0)
(0.587134 -0.0899377 0)
(0.549251 -0.094535 0)
(0.573625 -0.157982 0)
(0.569597 -0.0863347 0)
(0.482781 -0.0577159 0)
(0.433251 -0.00811547 0)
(0.383368 -0.0716023 0)
(0.420388 -0.134254 0)
(0.424722 -0.0947358 0)
(0.396804 -0.0443458 0)
(0.486717 -0.111717 0)
(0.64067 -0.191715 0)
(0.10807 2.13618 0)
(0.311575 2.15458 0)
(0.479759 1.92392 0)
(0.708742 1.48165 0)
(0.844408 1.03092 0)
(0.897839 0.697564 0)
(0.89106 0.451258 0)
(0.816346 0.308257 0)
(0.756177 0.208432 0)
(0.699612 0.140611 0)
(0.61268 0.0573814 0)
(0.571062 0.0295758 0)
(0.487359 -0.00742899 0)
(0.5453 -0.0723434 0)
(0.662803 -0.0141256 0)
(0.548845 0.0741591 0)
(0.476406 -0.0182784 0)
(0.275777 -0.107226 0)
(0.362095 -0.0744331 0)
(0.478457 -0.0432726 0)
(0.421181 -0.0937538 0)
(0.541044 -0.145313 0)
(0.69865 -0.291774 0)
(0.113595 1.8431 0)
(0.307024 1.87359 0)
(0.484558 1.58747 0)
(0.651504 1.22033 0)
(0.75358 0.944668 0)
(0.756153 0.708347 0)
(0.740688 0.548012 0)
(0.695366 0.415751 0)
(0.65506 0.305505 0)
(0.629481 0.24402 0)
(0.560528 0.124055 0)
(0.525947 0.107837 0)
(0.465846 0.0866733 0)
(0.545852 0.132418 0)
(0.709213 -0.00697841 0)
(0.564312 -0.00655311 0)
(0.327705 -0.145507 0)
(0.408753 0.0118771 0)
(0.616235 -7.03683e-06 0)
(0.494279 -0.172192 0)
(0.35245 -0.0835672 0)
(0.406961 -0.133589 0)
(0.627916 -0.22931 0)
(0.0790551 1.43978 0)
(0.249529 1.49378 0)
(0.406495 1.28245 0)
(0.510824 1.03668 0)
(0.574928 0.864032 0)
(0.584792 0.700904 0)
(0.589945 0.563663 0)
(0.57047 0.461366 0)
(0.552791 0.348673 0)
(0.529994 0.300465 0)
(0.501766 0.188241 0)
(0.474641 0.181126 0)
(0.488163 0.0974312 0)
(0.503072 0.161957 0)
(0.491359 0.103708 0)
(0.375149 -0.0453209 0)
(0.461304 0.0512823 0)
(0.48895 0.045993 0)
(0.333732 -0.0540443 0)
(0.4349 -0.137636 0)
(0.463665 -0.143426 0)
(0.427087 -0.117704 0)
(0.456512 -0.177709 0)
(0.0559573 1.19379 0)
(0.179651 1.22228 0)
(0.31323 1.07441 0)
(0.383269 0.917143 0)
(0.443203 0.798554 0)
(0.459202 0.676654 0)
(0.48583 0.566277 0)
(0.474404 0.473464 0)
(0.488865 0.380035 0)
(0.45622 0.323044 0)
(0.472959 0.209371 0)
(0.390407 0.16734 0)
(0.440776 0.0908249 0)
(0.565797 0.148926 0)
(0.459437 0.149814 0)
(0.40316 0.00024752 0)
(0.384979 0.0407873 0)
(0.328777 -0.0924893 0)
(0.354353 -0.0770551 0)
(0.406703 -0.0908519 0)
(0.430172 -0.194516 0)
(0.411478 -0.145021 0)
(0.414902 -0.222507 0)
(0.0443618 1.00036 0)
(0.127286 1.00151 0)
(0.230486 0.898646 0)
(0.28113 0.798229 0)
(0.332056 0.712795 0)
(0.35078 0.62005 0)
(0.379526 0.531692 0)
(0.369621 0.458929 0)
(0.391008 0.386293 0)
(0.363513 0.350223 0)
(0.398624 0.270453 0)
(0.338373 0.13052 0)
(0.419066 0.157585 0)
(0.589855 0.199954 0)
(0.436621 0.0792675 0)
(0.299122 -0.00628688 0)
(0.35066 -0.138299 0)
(0.360544 -0.0824044 0)
(0.301201 -0.0825599 0)
(0.339719 -0.0690435 0)
(0.480998 -0.191499 0)
(0.402312 -0.135108 0)
(0.387317 -0.190957 0)
(0.0353937 0.873453 0)
(0.097969 0.860775 0)
(0.173427 0.787499 0)
(0.213003 0.722764 0)
(0.261 0.657394 0)
(0.277573 0.582092 0)
(0.318959 0.516363 0)
(0.310561 0.446706 0)
(0.366453 0.371511 0)
(0.331735 0.31048 0)
(0.249966 0.256463 0)
(0.317882 0.157203 0)
(0.515125 0.245415 0)
(0.500408 0.177507 0)
(0.32943 0.0786764 0)
(0.31022 0.0194046 0)
(0.353417 0.0184165 0)
(0.432128 -0.0226589 0)
(0.434523 0.00189456 0)
(0.32115 -0.0385405 0)
(0.355643 -0.121296 0)
(0.44029 -0.238772 0)
(0.347667 -0.348596 0)
(0.0258748 0.744348 0)
(0.0726145 0.726605 0)
(0.124336 0.678257 0)
(0.15632 0.628532 0)
(0.18938 0.584328 0)
(0.207866 0.513011 0)
(0.228965 0.468364 0)
(0.233485 0.381304 0)
(0.254356 0.337905 0)
(0.256318 0.223486 0)
(0.208702 0.282813 0)
(0.287349 0.258642 0)
(0.488425 0.301132 0)
(0.333268 0.0411488 0)
(0.226243 0.0612863 0)
(0.290062 0.0478829 0)
(0.401783 0.0761514 0)
(0.42191 -0.0626375 0)
(0.358207 -0.0859271 0)
(0.253444 -0.225707 0)
(0.318997 -0.186433 0)
(0.273912 -0.241769 0)
(0.34437 -0.385578 0)
(0.0183513 0.689013 0)
(0.058029 0.670412 0)
(0.091768 0.627964 0)
(0.120577 0.596871 0)
(0.142867 0.554558 0)
(0.164659 0.499479 0)
(0.175357 0.464414 0)
(0.198106 0.374846 0)
(0.173101 0.362632 0)
(0.228928 0.311788 0)
(0.253459 0.303153 0)
(0.326539 0.389014 0)
(0.328754 0.305262 0)
(0.191772 0.114199 0)
(0.216952 0.121645 0)
(0.265129 0.120958 0)
(0.29043 0.0540794 0)
(0.268514 -0.00719446 0)
(0.208696 -0.121927 0)
(0.234129 -0.208978 0)
(0.416274 -0.183548 0)
(0.261519 -0.247652 0)
(0.293954 -0.240554 0)
(0.00866335 0.589239 0)
(0.0298987 0.576259 0)
(0.0650502 0.554159 0)
(0.0771828 0.524816 0)
(0.0859642 0.497312 0)
(0.113395 0.446795 0)
(0.0944208 0.419233 0)
(0.150318 0.377726 0)
(0.186741 0.339628 0)
(0.205113 0.312202 0)
(0.231153 0.253078 0)
(0.28665 0.204458 0)
(0.148909 0.0463026 0)
(0.154366 0.0465272 0)
(0.20744 0.0624289 0)
(0.180105 0.0833819 0)
(0.163994 0.017415 0)
(0.21536 -0.0245344 0)
(0.177594 -0.0455051 0)
(0.203066 -0.06292 0)
(0.356828 -0.229108 0)
(0.234733 -0.314982 0)
(0.183564 -0.259882 0)
(0.00624168 0.614501 0)
(0.0253355 0.56697 0)
(0.0390061 0.529908 0)
(0.0578366 0.558989 0)
(0.0629066 0.476159 0)
(0.0886051 0.461704 0)
(0.0882097 0.416103 0)
(0.107307 0.440015 0)
(0.119635 0.342036 0)
(0.144841 0.313195 0)
(0.152838 0.255005 0)
(0.22319 0.169139 0)
(0.151553 0.0662293 0)
(0.171025 0.121186 0)
(0.250024 0.0357893 0)
(0.192048 0.0515064 0)
(0.0942895 0.00762606 0)
(0.170329 -0.00527411 0)
(0.181267 -0.0794636 0)
(0.082425 -0.108946 0)
(0.228249 -0.178875 0)
(0.189705 -0.313891 0)