/*--------------------------------*- C++ -*----------------------------------*\
| =========                 |                                                 |
| \\      /  F ield         | foam-extend: Open Source CFD                    |
|  \\    /   O peration     | Version:     4.1                                |
|   \\  /    A nd           | Web:         http://www.foam-extend.org         |
|    \\/     M anipulation  |                                                 |
\*---------------------------------------------------------------------------*/
FoamFile
{
    version     2.0;
    format      ascii;
    class       volScalarField;
    location    "0.2";
    object      alpha1;
}
// * * * * * * * * * * * * * * * * * * * * * * * * * * * * * * * * * * * * * //

dimensions      [0 0 0 0 0 0 0];

internalField   nonuniform List<scalar> 
2268
(
1
1
1
1
1
1
1
0.999999
0.999997
0.999991
0.999982
0.999972
0.999966
0.999966
0.999971
1
1
1
1
1
1
0.998885
0.967244
1
1
1
1
1
1
1
0.999999
0.999997
0.999992
0.999983
0.999973
0.999967
0.999968
0.999978
1
1
1
1
1
1
0.998612
0.96609
1
1
1
1
1
1
1
1
0.999998
0.999993
0.999984
0.999974
0.99997
0.999973
0.999997
1
1
1
1
1
1
0.99827
0.964087
1
1
1
1
1
1
1
1
0.999999
0.999993
0.999984
0.999975
0.999974
0.999986
1
1
1
1
1
1
1
0.997921
0.96192
1
1
1
1
1
1
1
1
0.999999
0.999992
0.999982
0.999979
0.999983
1
1
1
1
1
1
1
1
0.997789
0.960358
1
1
1
1
1
1
1
1
0.999998
0.999986
0.99998
0.999984
1
1
1
1
1
1
1
1
1
0.997854
0.959626
1
1
1
1
1
1
1
0.999999
0.999987
0.999967
0.99997
0.999985
1
1
1
1
1
1
1
1
1
0.997703
0.960334
1
1
1
1
1
0.999998
0.999995
0.99998
0.999944
0.999906
0.99992
0.999944
1
1
1
1
1
1
1
1
1
0.998169
0.963834
0
0
0
0
7.35801e-07
1.18451e-07
0
0
0
2.43026e-11
4.53404e-12
0
0
1.05471e-15
1.16573e-15
0
1.72085e-15
3.94129e-15
2.60902e-15
9.87712e-05
1.3448e-06
0
0
6.58121e-08
1.70592e-07
1.98829e-08
0
0
0
4.14918e-12
2.5463e-13
0
0
1.66533e-15
0
1.33227e-15
3.55271e-15
2.66454e-15
0.000443765
0.000190261
0
0
0
6.03081e-08
5.13362e-08
4.45291e-09
0
0
1.28531e-12
8.70526e-13
0
0
1.55431e-15
0
7.77156e-16
3.55271e-15
2.55351e-15
0.000741495
0.00051596
0.000102036
0
0
0
4.11004e-08
1.24871e-08
4.2473e-10
0
0
1.82265e-12
7.05547e-14
0
0
2.22045e-16
1.11022e-16
2.83107e-15
2.27596e-15
0
0.000509917
0.000294275
2.90854e-05
0
0
0
1.39348e-08
2.12529e-09
0
0
2.55795e-12
4.56357e-13
0
0
2.22045e-16
1.05471e-15
3.16414e-15
2.16493e-15
0
0
0.000362656
0.000110004
6.97158e-06
0
0
0
3.54205e-09
9.87397e-11
0
5.21805e-13
1.24711e-12
3.25295e-14
0
0
1.60982e-15
3.05311e-15
1.94289e-15
0
0
0
0.000170078
3.2789e-05
1.29903e-06
0
0
2.2726e-09
4.86297e-10
0
0
2.01217e-12
2.53297e-13
0
0
1.88738e-15
3.44169e-15
2.38698e-15
0
0
0
0
4.765e-05
7.346e-06
1.82924e-07
0
0
1.16156e-09
0
0
1.00353e-12
6.46594e-13
1.69864e-14
0
1.55431e-15
3.71925e-15
2.77556e-15
0.999996
0.999994
0.999994
0.999988
0.999984
0.999971
0.999947
0.999883
0.999753
0.999662
0.999676
0.999651
0.999994
1
1
1
1
1
1
1
1
0.997631
0.974412
0.99994
0.999925
0.999919
0.999875
0.999847
0.999757
0.999596
0.999265
0.99869
0.998416
0.998148
0.997315
0.999022
0.999741
0.999154
0.998148
0.995242
0.994634
0.993753
0.993668
0.992159
0.99094
0.977849
0.999504
0.999436
0.999386
0.999184
0.998997
0.998554
0.997749
0.996371
0.99447
0.993548
0.99081
0.984772
0.992468
0.989174
0.98312
0.974611
0.959792
0.95734
0.959613
0.967747
0.96857
0.970647
0.970358
0.997296
0.997061
0.996816
0.996115
0.995286
0.993641
0.990763
0.986478
0.981878
0.977996
0.962527
0.937308
0.96257
0.9442
0.917009
0.885166
0.840282
0.833044
0.84003
0.866501
0.884016
0.903246
0.923672
0.988971
0.988314
0.987441
0.98541
0.982787
0.978066
0.970084
0.960262
0.951707
0.934726
0.872332
0.798525
0.867571
0.810857
0.732804
0.648033
0.546229
0.525449
0.539262
0.584775
0.655505
0.753332
0.793133
0.963629
0.962067
0.959657
0.954828
0.948449
0.937475
0.920244
0.904764
0.888309
0.82053
0.640422
0.520857
0.617886
0.526191
0.401019
0.297923
0.203207
0.199192
0.202809
0.245629
0.352844
0.464483
0.495782
0.897199
0.893911
0.888399
0.87817
0.865307
0.844337
0.81703
0.803548
0.759782
0.558689
0.316712
0.248083
0.306709
0.235423
0.142421
0.0835234
0.0450302
0.0655984
0.0577353
0.062207
0.0915445
0.115736
0.157163
0.738018
0.731441
0.720447
0.70111
0.67781
0.645922
0.625021
0.630187
0.519227
0.264504
0.132616
0.109249
0.127259
0.078469
0.0348636
0.0142107
0.00499837
0.0152772
0.0142101
0.0103747
0.0177033
0.0257165
0.043681
0.424009
0.415201
0.403402
0.382532
0.359282
0.335881
0.349645
0.380018
0.259837
0.117924
0.0645009
0.0499465
0.0456742
0.017553
0.00381202
2.24976e-05
0
0.00152714
0.00171632
0.00106698
0.00177288
0.00402895
0.012114
0.15872
0.154959
0.150239
0.141059
0.130883
0.122942
0.140102
0.167523
0.115509
0.0626732
0.0369223
0.0225319
0.0136317
0.00257036
0
0
0
0
1.86782e-05
0
0
0.000381715
0.00264979
0.0498398
0.0486887
0.0469956
0.0434508
0.0390871
0.0342226
0.0367817
0.046448
0.0434325
0.0358389
0.0223023
0.0093084
0.0034861
0
0
0
0
0
0
0
1.76165e-05
9.25288e-05
0.00048103
0.013612
0.013186
0.0125059
0.0111754
0.00933962
0.00646098
0.00494524
0.00739149
0.0129085
0.0184483
0.0144919
0.00521843
0.0013632
0
0
0
0
0
3.49528e-07
1.47944e-05
2.35841e-05
6.86691e-05
0.000362906
0.00230286
0.00216623
0.00195244
0.00156583
0.00101475
0
0
0
0.00188321
0.00694987
0.00730001
0.00261605
0.000346858
0
0
0
0
0
0
3.01662e-06
7.84683e-07
1.7371e-05
0.000156238
0
0
0
0
0
0
0
0
0
0.00121524
0.00271418
0.0011082
0
0
0
0
0
0
0
2.31199e-06
0
2.24443e-06
4.49853e-05
0
0
0
0
0
0
0
0
0
0
0.000163864
1.41994e-06
0
0
0
0
0
0
0
2.00523e-06
3.3366e-07
1.79788e-06
2.13748e-05
0
0
0
0
0
0
0
0
0
0
0
0
0
0
0
0
0
0
0
8.85634e-07
4.34682e-07
7.22875e-07
6.45241e-06
0
0
0
0
0
0
0
0
0
0
0
0
0
0
0
0
0
0
0
6.62762e-07
3.78292e-07
3.15923e-07
2.48885e-06
0
1.40058e-07
1.69186e-06
0
1.9824e-06
1.20248e-06
0
0
0
0
0
0
0
0
0
0
0
4.37218e-09
6.87507e-07
5.34005e-07
1.65389e-07
9.08303e-08
1.19262e-06
7.95984e-06
8.4117e-06
9.0047e-06
9.21803e-06
1.05017e-05
1.03776e-05
8.71701e-06
7.56538e-06
0
0
0
0
0
0
0
0
2.97605e-07
5.77222e-07
3.73805e-07
2.09977e-07
3.72536e-08
2.65173e-08
9.2736e-07
6.02585e-06
5.07586e-06
5.19403e-06
7.09509e-06
6.74298e-06
9.10373e-06
1.02624e-05
9.84407e-06
6.10517e-06
0
0
0
0
0
0
4.13811e-07
5.39766e-07
2.76143e-07
9.6837e-08
3.76893e-08
0
0
6.27128e-07
1.46783e-06
9.43763e-07
9.74633e-07
1.73757e-06
1.51441e-06
3.12082e-06
5.01808e-06
5.41237e-06
5.3597e-06
2.54269e-06
1.36344e-06
1.12603e-06
2.97064e-07
2.01038e-07
2.55989e-07
2.7624e-07
1.65107e-07
5.38781e-08
1.22851e-08
3.68604e-09
0
0
5.01467e-07
1.75511e-07
2.14612e-08
2.18754e-08
1.99371e-07
9.1438e-08
5.09099e-07
1.01106e-06
1.39319e-06
1.77336e-06
1.3055e-06
1.40876e-06
1.00111e-06
4.43255e-07
1.94245e-07
8.21301e-08
4.85521e-08
2.19039e-08
4.5846e-09
0
0
0
0
1.44671e-07
0
0
0
0
0
0
3.23105e-08
1.59381e-07
2.63384e-07
8.73003e-08
2.40229e-07
1.93157e-07
6.17194e-08
1.41134e-08
3.71883e-09
0
0
0
0
1.17533e-09
1.29344e-09
0
0
0
0
0
0
0
0
0
0
0
0
0
2.71375e-09
0
0
0
0
0
0
0
2.50694e-09
3.33119e-09
0
0
0
0
0
0
0
0
0
0
0
0
0
0
0
0
0
0
0
0
2.86045e-10
3.07129e-09
2.92689e-09
0
0
0
2.82447e-10
4.09528e-10
1.18336e-10
0
0
0
0
0
0
0
0
0
0
4.11475e-11
0
0
9.4309e-12
3.40178e-10
3.29192e-09
3.28614e-10
0
0
8.06549e-10
9.16502e-10
1.06835e-09
1.19585e-09
9.66862e-10
3.64637e-10
0
0
0
0
1.31507e-10
2.02173e-10
2.10439e-10
1.16501e-10
4.27736e-11
2.35267e-12
1.98902e-12
2.05734e-11
3.02447e-10
1.43251e-09
0
0
0
2.66888e-10
2.68397e-10
3.2166e-10
4.6008e-10
6.72408e-10
7.24415e-10
6.23605e-10
5.70962e-10
5.55865e-10
6.98506e-10
7.1509e-10
5.90844e-10
3.36641e-10
3.03034e-11
4.06064e-13
0
3.85858e-13
4.65588e-11
3.90466e-10
0
0
0
0
1.5825e-11
1.43144e-11
2.00744e-11
4.40508e-11
1.00156e-10
2.07259e-10
3.69597e-10
4.46537e-10
3.88205e-10
2.5316e-10
1.3827e-10
5.97843e-11
1.62314e-11
0
0
0
6.71907e-13
6.45994e-11
4.83178e-10
0
0
0
0
0
0
0
0
0
1.6592e-11
4.29494e-11
5.27379e-11
4.02266e-11
1.80045e-11
0
0
0
0
0
0
0
7.41315e-11
7.18328e-10
0
0
0
0
0
0
0
0
0
0
0
0
0
0
0
0
0
0
7.48845e-14
0
0
6.94909e-11
8.15535e-10
4.57777e-10
0
0
0
0
0
0
0
0
0
0
0
0
0
0
0
0
1.04305e-13
1.67089e-14
0
0
2.83266e-11
5.26958e-10
1.34345e-09
0
0
0
9.90874e-14
1.13687e-13
1.16684e-13
8.07132e-14
0
0
0
0
0
0
0
1.1785e-13
1.48437e-13
1.95399e-14
3.71925e-15
0
0
8.33533e-12
2.36863e-10
7.89746e-10
0
0
0
7.08322e-14
7.56062e-14
9.42579e-14
1.17795e-13
1.15186e-13
9.84768e-14
4.66294e-14
2.37588e-14
4.16334e-14
8.6986e-14
1.08857e-13
1.06026e-13
4.15779e-14
4.44089e-16
1.4988e-15
0
0
8.31074e-12
1.40336e-10
0
0
0
0
6.05072e-15
6.99441e-15
9.65894e-15
1.44884e-14
2.41474e-14
3.79141e-14
4.75175e-14
4.57412e-14
4.25771e-14
3.51941e-14
2.34257e-14
1.55986e-14
4.77396e-15
0
2.10942e-15
0
0
4.13153e-12
8.42261e-11
0
0
0
0
0
0
5.55112e-16
7.77156e-16
2.498e-15
3.94129e-15
4.82947e-15
4.60743e-15
2.9976e-15
2.10942e-15
1.94289e-15
2.83107e-15
1.9984e-15
2.16493e-15
1.66533e-15
0
0
0
3.22991e-11
4.09797e-10
0
0
0
0
7.77156e-16
6.10623e-16
5.55112e-16
1.83187e-15
2.16493e-15
1.88738e-15
1.05471e-15
4.44089e-16
0
7.21645e-16
2.72005e-15
3.10862e-15
2.498e-15
1.66533e-16
3.55271e-15
0
0
1.30246e-12
2.01973e-10
1.31544e-09
0
0
9.4369e-16
9.99201e-16
1.33227e-15
1.77636e-15
2.498e-15
3.94129e-15
3.71925e-15
1.66533e-15
2.77556e-15
2.66454e-15
3.44169e-15
2.88658e-15
2.77556e-15
1.88738e-15
5.55112e-17
0
1.12133e-14
0
0
1.94584e-11
3.5635e-10
0
0
1.4988e-15
1.44329e-15
1.27676e-15
1.83187e-15
1.88738e-15
3.9968e-15
3.9968e-15
2.05391e-15
2.9976e-15
2.66454e-15
3.9968e-15
2.94209e-15
1.05471e-15
1.16573e-15
0
0
3.94129e-15
2.42029e-14
0
0
3.6588e-11
1.0729e-09
5.59907e-09
4.16334e-15
1.88738e-15
1.94289e-15
1.38778e-15
5.55112e-16
4.27436e-15
4.16334e-15
2.10942e-15
1.22125e-15
2.83107e-15
2.66454e-15
1.77636e-15
1.05471e-15
9.4369e-16
0
0
1.05471e-15
9.71445e-15
4.25215e-14
0
0
4.02692e-11
1.73787e-09
4.44089e-15
1.44329e-15
9.99201e-16
1.16573e-15
6.66134e-16
4.55191e-15
6.43929e-15
2.66454e-15
1.33227e-15
2.10942e-15
1.72085e-15
2.33147e-15
2.05391e-15
4.44089e-16
0
0
8.32667e-16
3.27516e-15
1.5099e-14
9.99756e-14
0
0
3.3564e-11
5.66214e-15
1.77636e-15
1.38778e-15
3.88578e-16
4.44089e-16
4.27436e-15
7.66054e-15
4.38538e-15
9.4369e-16
6.10623e-16
2.33147e-15
2.38698e-15
2.72005e-15
4.44089e-16
0
0
3.88578e-16
3.77476e-15
1.77636e-15
2.80331e-14
2.22378e-13
0
0
0.98595
0.96611
0.815817
0.464281
0.982458
0.982109
0.959469
0.870958
0.97217
0.972883
0.971674
0.961601
0.935904
0.940113
0.945603
0.94567
0.826341
0.846406
0.86749
0.878047
0.546172
0.594153
0.651048
0.693983
0.204364
0.250671
0.307476
0.365929
0.0673514
0.0917958
0.120875
0.156981
0.0291608
0.0477725
0.070252
0.0913935
0.00773094
0.0152821
0.0282805
0.0407798
0.00121703
0.00302877
0.00796385
0.0144078
0.000847611
0.00170861
0.00375529
0.0064065
0.000268112
0.000526878
0.00119933
0.00211533
2.05125e-05
0
0
0
1.62402e-05
0
0
0
1.35091e-05
0
0
0
8.85615e-06
1.82696e-07
0
0
5.9399e-06
2.72484e-06
0
0
4.21493e-06
2.03572e-06
0
0
2.83571e-06
0
0
0
2.83771e-06
0
0
0
1.5027e-06
0
0
0
2.41064e-07
0
0
0
0
0
0
0
0
0
0
0
0
0
3.35729e-06
2.56565e-06
0
9.98387e-07
1.32524e-05
3.38023e-05
0
5.68095e-06
3.34918e-05
8.69893e-05
4.3968e-07
1.23279e-05
5.69315e-05
0.000150103
3.01465e-06
3.12626e-05
0.000127491
0.000327546
6.4864e-06
5.45733e-05
0.000212442
0.000577752
9.28127e-06
7.5987e-05
0.000283915
0.000734536
1.25149e-05
0.000101332
0.000382077
0.000972214
1.47831e-05
9.91574e-05
0.000377268
0.0010146
1.03605e-05
6.59555e-05
0.000257694
0.000743142
9.38399e-07
2.10666e-05
0.000107398
0.000355071
0
3.48914e-06
2.80648e-05
0.000115076
0
0
1.76623e-06
2.0263e-05
0
0
0
1.52877e-06
6.84178e-09
0
0
0
1.46359e-09
2.83126e-09
0
0
0
4.90193e-10
1.3744e-09
6.47985e-10
0.0264262
0
0
0
0
1.03704e-05
2.0835e-06
2.94509e-08
0
3.25538e-09
2.35925e-10
0
0
1.1609e-12
1.55376e-13
0
0
4.55191e-15
1.83187e-15
0.519648
0.140285
0.00756449
0
0
0
0
9.08484e-07
1.79875e-08
1.11341e-08
3.70417e-09
0
0
0
6.31328e-13
5.29021e-14
0
3.71925e-15
3.21965e-15
0.898251
0.697258
0.291839
0.0573162
0.00692205
0.000111532
0
0
0
1.16188e-09
1.50386e-08
1.86507e-09
0
0
0
2.0961e-13
1.38778e-14
2.33147e-15
4.44089e-16
0.936906
0.880396
0.639792
0.214992
0.0316282
0.000682796
0
0
0
0
4.53082e-09
8.73019e-09
8.61356e-10
0
0
0
4.61298e-14
2.38698e-15
3.33067e-16
0.89728
0.876143
0.800793
0.585518
0.209856
0.0356284
0.00451475
0.000185121
0
0
0
0
3.28527e-09
2.8478e-10
0
0
2.72005e-15
8.82627e-15
4.996e-16
0.791692
0.818726
0.780068
0.573439
0.232423
0.0515627
0.0069174
0.000427927
4.20959e-05
5.33401e-06
0
0
0
9.5353e-10
7.37497e-11
0
0
6.4948e-15
0
0.513954
0.679131
0.713388
0.592131
0.281785
0.0806429
0.0168422
0.00197571
0.000492139
0.000101069
2.88085e-06
0
0
0
2.36066e-10
1.02605e-11
0
0
3.71925e-15
0.243012
0.493362
0.619132
0.55951
0.356857
0.120273
0.0309257
0.00744542
0.00282053
0.000671268
6.52031e-05
1.34045e-06
0
0
0
4.38393e-11
9.78773e-13
0
5.88418e-15
0.116569
0.265581
0.489073
0.498333
0.375187
0.156537
0.0510252
0.0192634
0.00653005
0.00165954
0.000266714
2.48348e-05
9.67365e-07
0
0
0
1.72562e-12
1.16851e-13
1.47105e-14
0.0504458
0.151912
0.392773
0.424844
0.336567
0.164314
0.0657956
0.0217924
0.00558363
0.000826819
6.398e-05
1.12982e-06
0
0
0
4.056e-11
2.05558e-13
0
2.4758e-14
0.0185279
0.0739962
0.2863
0.331182
0.263192
0.135293
0.0541263
0.0182992
0.00478885
0.000923543
0.000119485
8.51665e-06
2.56894e-07
0
0
1.57289e-11
0
0
3.94129e-14
0.00830614
0.0425213
0.206436
0.224338
0.153764
0.0686524
0.0270021
0.00849838
0.00222009
0.000412456
5.02186e-05
3.38086e-06
7.45187e-08
0
1.13878e-10
5.20106e-11
0
0
3.34177e-14
0.00298438
0.0227678
0.138591
0.160739
0.104945
0.0343105
0.0107856
0.00228262
0.000430002
7.03229e-05
7.2873e-06
3.38571e-07
0
0
6.0675e-10
1.85384e-10
0
0
0
0.000176992
0.0129587
0.0977246
0.126051
0.0822744
0.0236632
0.00489145
0.000834327
9.05939e-05
8.89628e-06
3.01847e-07
0
0
0
5.34297e-10
6.34007e-10
5.16066e-11
0
0
0
0.00837798
0.0696857
0.105539
0.0810153
0.0305205
0.00421436
0.000481841
3.35755e-05
3.21877e-06
0
0
0
0
0
1.5213e-09
2.98928e-10
0
0
0
0.00672327
0.0527031
0.0917471
0.0759354
0.0361166
0.00818461
0.000966618
9.06924e-05
3.23067e-05
5.81344e-06
8.95359e-07
0
0
0
1.65037e-10
7.77118e-10
5.99716e-11
0
0.000189171
0.00708083
0.0485173
0.0821079
0.0660904
0.0312236
0.00768715
0.00077034
0.000124502
0.000166793
4.83275e-05
8.75457e-06
8.65845e-07
0
0
0
1.16176e-09
1.83748e-10
0
6.11219e-06
0.00408378
0.0384946
0.0728709
0.0610642
0.0287055
0.00615909
0.000655675
0.000379499
0.000561882
0.000188096
3.17883e-05
3.19336e-06
0
0
0
7.81653e-10
2.86068e-10
1.13724e-11
0
0.00202625
0.0251919
0.0616447
0.0560098
0.0283549
0.00565567
0.000790395
0.00105765
0.000696464
0.000175527
2.91392e-05
2.86164e-06
0
0
0
1.14034e-10
2.23291e-10
1.97318e-11
0
0.00218941
0.0214584
0.0564841
0.0503014
0.0242738
0.00449703
0.00122646
0.00155669
0.000528546
0.000104341
1.48976e-05
1.38077e-06
0
0
0
5.79996e-11
1.30325e-10
1.27576e-11
3.39808e-05
0.00251768
0.0204625
0.0525004
0.0448368
0.0192106
0.00310968
0.00140408
0.00105811
0.000216098
3.9842e-05
5.48565e-06
7.87155e-08
0
0
0
2.54899e-10
9.41161e-11
6.91469e-12
8.78064e-05
0.00288142
0.0209054
0.0491231
0.0389284
0.0146837
0.00222335
0.00165357
0.00129609
0.000301324
4.06742e-05
1.24547e-06
0
0
0
5.94325e-10
5.04139e-10
5.43255e-11
0
8.31108e-05
0.00239482
0.0188087
0.0441161
0.0357214
0.0131197
0.00207139
0.00216712
0.0021983
0.000834689
0.000129608
5.44294e-06
0
0
0
1.9963e-09
8.53634e-10
5.2452e-11
0
8.14254e-05
0.00230912
0.0187748
0.0409061
0.0322701
0.0113328
0.00184511
0.00234409
0.002889
0.00111754
0.000153334
7.80539e-06
0
0
0
0
1.38833e-09
2.67543e-10
0
2.19965e-05
0.00166818
0.0180199
0.037943
0.0293416
0.0106785
0.00161889
0.00223838
0.00264369
0.00110031
0.000159023
1.95631e-05
5.01736e-06
2.90502e-06
0
0
0
9.1552e-10
1.04614e-10
1.38128e-05
0.001313
0.0166074
0.0347429
0.026101
0.00974982
0.00183086
0.00210846
0.00282705
0.00135223
0.000392882
0.000159812
6.85916e-05
3.03187e-05
2.27784e-06
0
0
0
4.00483e-10
4.63338e-05
0.00114132
0.0156211
0.0311777
0.0213421
0.007559
0.00174192
0.0018649
0.00271858
0.00212224
0.00140546
0.00089875
0.000497368
0.00018127
1.89789e-05
8.05721e-08
0
0
2.51683e-10
0.000112922
0.00107413
0.0149552
0.028254
0.0190544
0.00613632
0.00161109
0.00168493
0.00257847
0.00254239
0.00257158
0.00263631
0.00185308
0.000510269
5.15394e-05
1.37074e-06
0
0
0
0.000218617
0.000971584
0.0126886
0.0252731
0.0186666
0.00696624
0.00194752
0.00175454
0.00232827
0.00279037
0.00306937
0.00324342
0.00213546
0.000537133
7.57419e-05
2.91936e-06
0
0
0
0.000626437
0.00100719
0.0066277
0.0216416
0.0181639
0.00867192
0.00345911
0.00219045
0.00250704
0.00308939
0.00355121
0.00404876
0.00363176
0.00176511
0.000405
4.40619e-05
1.93085e-06
0
0
0.00163912
0.00167905
0.00446171
0.0188011
0.0175708
0.0117101
0.00605528
0.00345578
0.00337226
0.00404543
0.00455821
0.00515066
0.00463174
0.00285019
0.000965906
0.000201066
1.65777e-05
8.1888e-07
0
0.00208047
0.00273179
0.00458995
0.0146353
0.0164234
0.0139085
0.00982057
0.00641888
0.00573406
0.0063377
0.00668431
0.00627255
0.0046337
0.0022899
0.000709903
0.000137171
1.41976e-05
4.18977e-07
0
0.00252374
0.00432764
0.00538318
0.0114203
0.0150831
0.0138981
0.0118354
0.0095718
0.00858058
0.0081344
0.00715223
0.00543687
0.00302709
0.00111246
0.000292243
5.04563e-05
5.19674e-06
1.3597e-07
0
0.00276688
0.00595076
0.0070168
0.0114
0.0142687
0.0137431
0.0125552
0.0109885
0.00956746
0.00811912
0.00629261
0.00322704
0.00105228
0.000276501
5.76654e-05
8.12962e-06
6.42587e-07
0
0
0.00229209
0.00620111
0.0085133
0.0117627
0.0137214
0.0134445
0.0124815
0.0110059
0.00925013
0.00724766
0.00445523
0.00161689
0.000364183
6.66104e-05
9.94439e-06
1.00727e-06
4.30278e-08
0
0
0.00127525
0.00498665
0.00845239
0.0115426
0.0129207
0.0126066
0.0116026
0.00980047
0.00726512
0.00457625
0.00209831
0.000654876
0.000125142
1.61154e-05
1.59701e-06
9.47491e-08
0
0
0
0.000499428
0.00244117
0.00669331
0.00973403
0.0108925
0.00987424
0.00840377
0.00607267
0.0034373
0.00167709
0.000636763
0.000171087
2.79785e-05
2.83108e-06
1.85983e-07
2.32106e-09
0
0
2.92805e-12
0.000127407
0.000748794
0.00318783
0.00566119
0.00666736
0.00484619
0.003747
0.00229966
0.00113268
0.000484055
0.000156402
3.61416e-05
5.00675e-06
3.80565e-07
1.11541e-08
0
0
0
1.36574e-12
2.00201e-05
0.000169591
0.000956872
0.00208241
0.00252367
0.00150051
0.00116384
0.000667967
0.000305471
0.000115255
3.18557e-05
6.27601e-06
7.14736e-07
3.44867e-08
0
0
0
6.29441e-13
2.34035e-13
9.43284e-07
2.10082e-05
0.000185652
0.000541954
0.000699913
0.000355841
0.000286985
0.000158907
6.89615e-05
2.30526e-05
5.48643e-06
9.12932e-07
8.04943e-08
8.60286e-10
0
0
0
2.87992e-13
2.45359e-14
0
9.54384e-07
2.22324e-05
9.91631e-05
0.000147363
6.86338e-05
5.82437e-05
3.17878e-05
1.31454e-05
3.91422e-06
7.95691e-07
1.08278e-07
6.11597e-09
0
0
0
2.86826e-13
4.53526e-14
1.11022e-15
0
0
1.19925e-06
1.16693e-05
2.19185e-05
9.92075e-06
8.95386e-06
4.88444e-06
1.91963e-06
5.11724e-07
8.74354e-08
9.13888e-09
9.11269e-11
0
0
9.63118e-14
6.43929e-14
5.9952e-15
1.05471e-15
)
;

boundaryField
{
    leftWall
    {
        type            zeroGradient;
    }
    rightWall
    {
        type            zeroGradient;
    }
    lowerWall
    {
        type            zeroGradient;
    }
    atmosphere
    {
        type            inletOutlet;
        inletValue      uniform 0;
        value           nonuniform List<scalar> 
46
(
5.66214e-15
1.77636e-15
1.38778e-15
3.88578e-16
4.44089e-16
4.27436e-15
7.66054e-15
4.38538e-15
9.4369e-16
6.10623e-16
2.33147e-15
2.38698e-15
2.72005e-15
4.44089e-16
0
0
3.88578e-16
3.77476e-15
1.77636e-15
2.80331e-14
2.22378e-13
0
0
0
4.90193e-10
1.3744e-09
6.47985e-10
0
0
1.19925e-06
1.16693e-05
2.19185e-05
9.92075e-06
8.95386e-06
4.88444e-06
1.91963e-06
5.11724e-07
8.74354e-08
9.13888e-09
9.11269e-11
0
0
9.63118e-14
6.43929e-14
5.9952e-15
1.05471e-15
)
;
    }
    defaultFaces
    {
        type            empty;
    }
}


// ************************************************************************* //
