/*--------------------------------*- C++ -*----------------------------------*\
| =========                 |                                                 |
| \\      /  F ield         | foam-extend: Open Source CFD                    |
|  \\    /   O peration     | Version:     4.1                                |
|   \\  /    A nd           | Web:         http://www.foam-extend.org         |
|    \\/     M anipulation  |                                                 |
\*---------------------------------------------------------------------------*/
FoamFile
{
    version     2.0;
    format      ascii;
    class       volScalarField;
    location    "0.2";
    object      C;
}
// * * * * * * * * * * * * * * * * * * * * * * * * * * * * * * * * * * * * * //

dimensions      [0 0 0 0 0 0 0];

internalField   nonuniform List<scalar> 
2268
(
1
1
1
1
1
1
1
0.999999
0.999994
0.999982
0.999964
0.999944
0.999933
0.999932
0.999942
1
1.00024
1.00092
1.00247
1.00525
1.00679
0.99777
0.934488
1
1
1
1
1
1
1
0.999999
0.999994
0.999984
0.999967
0.999946
0.999935
0.999936
0.999956
1.00005
1.00035
1.00117
1.00284
1.00549
1.00668
0.997223
0.93218
1
1
1
1
1
1
1
0.999999
0.999995
0.999986
0.999968
0.999947
0.999939
0.999947
0.999994
1.00015
1.00052
1.00137
1.00296
1.00542
1.00643
0.996539
0.928173
1
1
1
1
1
1
1
1
0.999997
0.999987
0.999967
0.99995
0.999948
0.999971
1.00008
1.00035
1.00085
1.0018
1.0033
1.00539
1.00614
0.995842
0.92384
1
1
1
1
1
1
1
1
0.999998
0.999984
0.999964
0.999957
0.999966
1.00003
1.00023
1.00067
1.00139
1.00246
1.00386
1.00542
1.00589
0.995578
0.920716
1
1
1
1
1
1
1
1
0.999995
0.999973
0.99996
0.999969
1.00001
1.00015
1.00052
1.00118
1.0021
1.00324
1.00443
1.00536
1.00557
0.995708
0.919251
1
1
1
1
1
1
1
0.999998
0.999974
0.999934
0.999939
0.99997
1.00007
1.00037
1.00098
1.00189
1.00294
1.004
1.00476
1.00506
1.00497
0.995407
0.920668
1
1
1
1
0.999999
0.999997
0.99999
0.99996
0.999888
0.999813
0.99984
0.999888
1.00011
1.00068
1.00155
1.00264
1.00357
1.00432
1.00452
1.00425
1.00386
0.996339
0.927668
-1.00007
-1.00009
-1.00003
-1
-0.999999
-1
-1
-1
-1
-1
-1
-1
-1
-1
-1
-1
-1
-1
-1
-0.999802
-0.999997
-1.00005
-1.00001
-1
-1
-1
-1
-1
-1
-1
-1
-1
-1
-1
-1
-1
-1
-1
-0.999112
-0.999619
-1
-1.00002
-1
-1
-1
-1
-1
-1
-1
-1
-1
-1
-1
-1
-1
-1
-1
-0.998517
-0.998968
-0.999796
-1.00002
-1.00001
-1
-1
-1
-1
-1
-1
-1
-1
-1
-1
-1
-1
-1
-1
-1.00069
-0.99898
-0.999411
-0.999942
-1.00001
-1
-1
-1
-1
-1
-1
-1
-1
-1
-1
-1
-1
-1
-1
-1.01153
-1.00231
-0.999275
-0.99978
-0.999986
-1
-1
-1
-1
-1
-1
-1
-1
-1
-1
-1
-1
-1
-1
-1.03506
-1.01158
-1.00043
-0.99966
-0.999934
-0.999997
-1
-1
-1
-1
-1
-1
-1
-1
-1
-1
-1
-1
-1
-1.05353
-1.02274
-1.00406
-1.00001
-0.999905
-0.999985
-1
-1
-1
-1
-1
-1
-1
-1
-1
-1
-1
-1
-1
0.999992
0.999988
0.999988
0.999976
0.999969
0.999942
0.999894
0.999766
0.999505
0.999325
0.999351
0.999302
0.999989
1.00109
1.00218
1.00324
1.00312
1.00307
1.00244
1.00126
1.00001
0.995262
0.948825
0.99988
0.999851
0.999839
0.999749
0.999694
0.999515
0.999192
0.998529
0.997381
0.996833
0.996296
0.994629
0.998044
0.999483
0.998307
0.996296
0.990484
0.989267
0.987505
0.987336
0.984318
0.98188
0.955697
0.999007
0.998873
0.998771
0.998368
0.997994
0.997108
0.995499
0.992743
0.98894
0.987095
0.981619
0.969543
0.984936
0.978349
0.96624
0.949222
0.919584
0.91468
0.919227
0.935494
0.93714
0.941293
0.940717
0.994591
0.994121
0.993632
0.992229
0.990572
0.987282
0.981526
0.972956
0.963756
0.955992
0.925054
0.874616
0.92514
0.888399
0.834018
0.770333
0.680563
0.666088
0.68006
0.733001
0.768033
0.806492
0.847345
0.977941
0.976629
0.974882
0.97082
0.965573
0.956133
0.940168
0.920523
0.903413
0.869452
0.744665
0.597051
0.735142
0.621714
0.465608
0.296065
0.0924589
0.0508978
0.0785249
0.169549
0.31101
0.506663
0.586267
0.927257
0.924134
0.919314
0.909655
0.896898
0.87495
0.840487
0.809528
0.776618
0.64106
0.280845
0.0417135
0.235773
0.0523819
-0.197962
-0.404154
-0.593587
-0.601616
-0.594382
-0.508743
-0.294311
-0.0710347
-0.00843651
0.794398
0.787823
0.776798
0.756339
0.730614
0.688674
0.63406
0.607097
0.519563
0.117377
-0.366575
-0.503835
-0.386581
-0.529155
-0.715158
-0.832953
-0.90994
-0.868803
-0.884529
-0.875586
-0.816911
-0.768529
-0.685674
0.476036
0.462882
0.440894
0.40222
0.35562
0.291843
0.250041
0.260374
0.0384536
-0.470991
-0.734767
-0.781503
-0.745482
-0.843062
-0.930273
-0.971579
-0.990003
-0.969446
-0.97158
-0.979251
-0.964593
-0.948567
-0.912638
-0.151982
-0.169598
-0.193195
-0.234936
-0.281436
-0.328237
-0.300711
-0.239964
-0.480326
-0.764152
-0.870998
-0.900107
-0.908652
-0.964894
-0.992376
-0.999955
-1.00083
-0.996946
-0.996567
-0.997866
-0.996454
-0.991942
-0.975772
-0.682559
-0.690081
-0.699522
-0.717882
-0.738233
-0.754116
-0.719796
-0.664955
-0.768981
-0.874654
-0.926155
-0.954936
-0.972737
-0.994859
-1.00202
-1.0023
-1.00097
-1.00018
-0.999963
-1.0001
-1.00004
-0.999237
-0.9947
-0.90032
-0.902623
-0.906009
-0.913098
-0.921826
-0.931555
-0.926437
-0.907104
-0.913135
-0.928322
-0.955395
-0.981383
-0.993028
-1.00084
-1.00264
-1.00164
-1.00055
-1.00018
-1.00005
-1
-0.999965
-0.999815
-0.999038
-0.972776
-0.973628
-0.974988
-0.977649
-0.981321
-0.987078
-0.99011
-0.985217
-0.974183
-0.963103
-0.971016
-0.989563
-0.997274
-1.00139
-1.00201
-1.00128
-1.00047
-1.0001
-0.999999
-0.99997
-0.999953
-0.999863
-0.999274
-0.995394
-0.995668
-0.996095
-0.996868
-0.997971
-1.00007
-1.00192
-1.00127
-0.996234
-0.9861
-0.9854
-0.994768
-0.999306
-1.00162
-1.00169
-1.00099
-1.00038
-1.0001
-1.00001
-0.999994
-0.999998
-0.999965
-0.999688
-1.0011
-1.00111
-1.00117
-1.00129
-1.00147
-1.00188
-1.00266
-1.00293
-1.00184
-0.99757
-0.994572
-0.997784
-1.00045
-1.00167
-1.0015
-1.00086
-1.00029
-1.00006
-1
-0.999995
-1
-0.999996
-0.99991
-1.00182
-1.00181
-1.00179
-1.0018
-1.0018
-1.00172
-1.00178
-1.00216
-1.00242
-1.0015
-0.999672
-0.999997
-1.00088
-1.00138
-1.00121
-1.00071
-1.00021
-1.00006
-1
-0.999996
-0.999999
-0.999996
-0.999957
-1.00098
-1.00095
-1.00089
-1.00084
-1.00075
-1.00062
-1.00064
-1.00081
-1.00137
-1.00175
-1.00128
-1.00105
-1.00115
-1.00114
-1.0008
-1.00043
-1.00015
-1.00005
-1
-0.999998
-0.999999
-0.999999
-0.999987
-1.00017
-1.00018
-1.00016
-1.00016
-1.00014
-1.00012
-1.00015
-1.00023
-1.00047
-1.00096
-1.00121
-1.00116
-1.00102
-1.00075
-1.00027
-1.00015
-1.00005
-1.00001
-1
-0.999999
-0.999999
-0.999999
-0.999995
-1
-1
-0.999997
-1
-0.999996
-0.999998
-1.00001
-1.00003
-1.0001
-1.00028
-1.00043
-1.00043
-1.00037
-1.00025
-1.00005
-1.00002
-1.00001
-1
-0.999999
-0.999999
-1
-1
-0.999998
-0.999984
-0.999983
-0.999982
-0.999982
-0.999979
-0.999979
-0.999983
-0.999985
-1
-1.00005
-1.00009
-1.00009
-1.00007
-1.00005
-1.00001
-1
-0.999999
-0.999999
-0.999999
-1
-1
-1
-0.999998
-0.999988
-0.99999
-0.99999
-0.999986
-0.999987
-0.999982
-0.999979
-0.99998
-0.999988
-1
-1.00001
-1.00001
-1.00001
-1
-1
-0.999999
-0.999999
-0.999999
-1
-1
-1
-1
-0.999999
-0.999997
-0.999998
-0.999998
-0.999997
-0.999997
-0.999994
-0.99999
-0.999989
-0.999989
-0.999995
-0.999997
-0.999998
-0.999999
-1
-0.999999
-0.999999
-1
-1
-1
-1
-1
-1
-0.999999
-1
-1
-1
-1
-1
-0.999999
-0.999998
-0.999997
-0.999996
-0.999997
-0.999997
-0.999998
-0.999999
-1
-1
-1
-1
-1
-1
-1
-1
-1
-1
-1
-1
-1
-1
-1
-1
-1
-1
-0.999999
-1
-1
-1
-1
-1
-1
-1
-1
-1
-1
-1
-1
-1
-1
-1
-1
-1
-1
-1
-1
-1
-1
-1
-1
-1
-1
-1
-1
-1
-1
-1
-1
-1
-1
-1
-1
-1
-1
-1
-1
-1
-1
-1
-1
-1
-1
-1
-1
-1
-1
-1
-1
-1
-1
-1
-1
-1
-1
-1
-1
-1
-1
-1
-1
-1
-1
-1
-1
-1
-1
-1
-1
-1
-1
-1
-1
-1
-1
-1
-1
-1
-1
-1
-1
-1
-1
-1
-1
-1
-1
-1
-1
-1
-1
-1
-1
-1
-1
-1
-1
-1
-1
-1
-1
-1
-1
-1
-1
-1
-1
-1
-1
-1
-1
-1
-1
-1
-1
-1
-1
-1
-1
-1
-1
-1
-1
-1
-1
-1
-1
-1
-1
-1
-1
-1
-1
-1
-1
-1
-1
-1
-1
-1
-1
-1
-1
-1
-1
-1
-1
-1
-1
-1
-1
-1
-1
-1
-1
-1
-1
-1
-1
-1
-1
-1
-1
-1
-1
-1
-1
-1
-1
-1
-1
-1
-1
-1
-1
-1
-1
-1
-1
-1
-1
-1
-1
-1
-1
-1
-1
-1
-1
-1
-1
-1
-1
-1
-1.00001
-1
-1
-1
-1
-1
-1
-1
-1
-1
-1
-1
-1
-1
-1
-1
-1
-1
-1
-1
-1
-1
-1
-1.00001
-1
-1
-1
-1
-1
-1
-1
-1
-1
-1
-1
-1
-1
-1
-1
-1
-1
-1
-1
-1
-1
-1
-1
-1
-1
-1
-1
-1
-1
-1
-1
-1
-1
-1
-1
-1
-1
-1
-1
-1
-1
-1
-1
-1
-1
-1
-1
-1
-1
-1
-1
-1
-1
-1
-1
-1
-1
-1
-1
-1
-1
-1
-1
-1
-1
-1
-1
-1
-1
-1
-1
-1
-1
-1
-1
-1
-1
-1
-1
-1
-1
-1
-1
-1
-1
-1
-1
-1
-1
-1
-1
-1
-1
-1
-1
-1
-1
-1
-1
-1
-1
-1
-1
-1
-1
-1
-1
-1
-1
-1
-1
-1
-1
-1
-1
-1
-1
-1
-1
-1
-1
-1
-1
-1
-1
-1
-1
-1
-1
-1
-1
-1
-1
-1
-1
-1
-1
-1
-1
-1
-1
-1
-1
-1
-1
-1
-1
-1
-1
-1
-1
-1
-1
-1
-1
-1
-1
-1
-1
-1
-1
-1
-1
-1
-1
-1
-1
-1
-1
-1
-1
-1
-1
-1
-1
-1
-1
-1
-1
-1
-1
-1
-1
-1
-1
-1
-1
-1
-1
-1
-1
-1
-1
-1
-1
-1
-1
-1
-1
-1
-1
-1
-1
-1
-1
-1
-1
-1
-1
-1
-1
-1
-1
-1
-1
-1
-1
-1
-1
-1
-1
-1
-1
-1
-1
-1
-1
-1
-1
-1
0.9719
0.932221
0.631634
-0.0714389
0.964915
0.964217
0.918937
0.741916
0.94434
0.945766
0.943348
0.923201
0.871808
0.880226
0.891206
0.891341
0.652682
0.692811
0.73498
0.756093
0.092345
0.188306
0.302095
0.387965
-0.591272
-0.498659
-0.385049
-0.268141
-0.865297
-0.816408
-0.758251
-0.686037
-0.941678
-0.904455
-0.859496
-0.817213
-0.984538
-0.969436
-0.943439
-0.91844
-0.997566
-0.993942
-0.984072
-0.971184
-0.998305
-0.996583
-0.992489
-0.987187
-0.999464
-0.998946
-0.997601
-0.995769
-0.999959
-1.00006
-1.00025
-1.00033
-0.999968
-1.00007
-1.00043
-1.00102
-0.999973
-1.00001
-1.0002
-1.00054
-0.999982
-1
-1.00011
-1.00031
-0.999988
-0.999995
-1.00006
-1.00023
-0.999992
-0.999996
-1.00004
-1.00018
-0.999994
-1
-1.00005
-1.00015
-0.999994
-1
-1.00004
-1.00012
-0.999997
-1
-1.00004
-1.00009
-1
-1.00001
-1.00004
-1.00008
-1
-1.00001
-1.00003
-1.00005
-1
-1
-1.00001
-1.00004
-1
-1
-0.999993
-0.999995
-1
-0.999998
-0.999973
-0.999932
-1
-0.999989
-0.999933
-0.999826
-0.999999
-0.999975
-0.999886
-0.9997
-0.999994
-0.999937
-0.999745
-0.999345
-0.999987
-0.999891
-0.999575
-0.998844
-0.999981
-0.999848
-0.999432
-0.998531
-0.999975
-0.999797
-0.999236
-0.998056
-0.99997
-0.999802
-0.999245
-0.997971
-0.999979
-0.999868
-0.999485
-0.998514
-0.999998
-0.999958
-0.999785
-0.99929
-1
-0.999993
-0.999944
-0.99977
-1
-1
-0.999996
-0.999959
-1
-1
-1
-0.999997
-1
-1
-1
-1
-1
-1
-1
-1
-1
-1
-1
-1
-0.947148
-1.015
-1.01236
-1.00211
-1.00011
-0.999979
-0.999996
-1
-1
-1
-1
-1
-1
-1
-1
-1
-1
-1
-1
0.0392955
-0.71943
-0.984871
-1.00613
-1.00153
-1.00018
-1
-0.999998
-1
-1
-1
-1
-1
-1
-1
-1
-1
-1
-1
0.796501
0.394516
-0.416323
-0.885368
-0.986156
-0.999777
-1.00015
-1.00001
-1
-1
-1
-1
-1
-1
-1
-1
-1
-1
-1
0.873812
0.760792
0.279584
-0.570015
-0.936744
-0.998634
-1.00056
-1.00008
-1.00001
-1
-1
-1
-1
-1
-1
-1
-1
-1
-1
0.794561
0.752287
0.601586
0.171036
-0.580288
-0.928743
-0.990971
-0.99963
-1.00002
-1
-1
-1
-1
-1
-1
-1
-1
-1
-1
0.583385
0.637452
0.560135
0.146878
-0.535154
-0.896875
-0.986165
-0.999144
-0.999916
-0.999989
-1
-1
-1
-1
-1
-1
-1
-1
-1
0.0279088
0.358262
0.426775
0.184262
-0.436429
-0.838714
-0.966316
-0.996049
-0.999016
-0.999798
-0.999994
-1
-1
-1
-1
-1
-1
-1
-1
-0.513977
-0.0132763
0.238263
0.11902
-0.286286
-0.759453
-0.938149
-0.985109
-0.994359
-0.998657
-0.99987
-0.999997
-1
-1
-1
-1
-1
-1
-1
-0.766863
-0.468838
-0.0218536
-0.00333383
-0.249626
-0.686926
-0.89795
-0.961473
-0.98694
-0.996681
-0.999467
-0.99995
-0.999998
-1
-1
-1
-1
-1
-1
-0.899108
-0.696175
-0.214455
-0.150312
-0.326865
-0.671371
-0.868409
-0.956415
-0.988833
-0.998346
-0.999872
-0.999998
-1
-1
-1
-1
-1
-1
-1
-0.962944
-0.852008
-0.427399
-0.337636
-0.473617
-0.729413
-0.891747
-0.963402
-0.990422
-0.998153
-0.999761
-0.999983
-0.999999
-1
-1
-1
-1
-1
-1
-0.983388
-0.914957
-0.587128
-0.551323
-0.692473
-0.862695
-0.945996
-0.983003
-0.99556
-0.999175
-0.9999
-0.999993
-1
-1
-1
-1
-1
-1
-1
-0.994031
-0.954464
-0.722818
-0.678523
-0.790111
-0.931379
-0.978429
-0.995435
-0.99914
-0.999859
-0.999985
-0.999999
-1
-1
-1
-1
-1
-1
-1
-0.999646
-0.974083
-0.804551
-0.747898
-0.835451
-0.952674
-0.990217
-0.998331
-0.999819
-0.999982
-0.999999
-1
-1
-1
-1
-1
-1
-1
-1
-1.00041
-0.983244
-0.860629
-0.788922
-0.837969
-0.938959
-0.991571
-0.999036
-0.999933
-0.999994
-1
-1
-1
-1
-1
-1
-1
-1
-1
-1.00001
-0.986553
-0.894594
-0.816506
-0.848129
-0.927767
-0.983631
-0.998067
-0.999819
-0.999935
-0.999988
-0.999998
-1
-1
-1
-1
-1
-1
-1
-0.999622
-0.985838
-0.902965
-0.835784
-0.867819
-0.937553
-0.984626
-0.998459
-0.999751
-0.999666
-0.999903
-0.999982
-0.999998
-1
-1
-1
-1
-1
-1
-0.999988
-0.991832
-0.923011
-0.854258
-0.877872
-0.942589
-0.987682
-0.998689
-0.999241
-0.998876
-0.999624
-0.999936
-0.999994
-1
-1
-1
-1
-1
-1
-1.00016
-0.995948
-0.949616
-0.876711
-0.88798
-0.94329
-0.988689
-0.998419
-0.997885
-0.998607
-0.999649
-0.999942
-0.999994
-1
-1
-1
-1
-1
-1
-1.00003
-0.995621
-0.957083
-0.887032
-0.899397
-0.951452
-0.991006
-0.997547
-0.996887
-0.998943
-0.999791
-0.99997
-0.999997
-1
-1
-1
-1
-1
-1
-0.999932
-0.994965
-0.959075
-0.894999
-0.910326
-0.961579
-0.993781
-0.997192
-0.997884
-0.999568
-0.99992
-0.999989
-1
-1
-1
-1
-1
-1
-1
-0.999824
-0.994237
-0.958189
-0.901754
-0.922143
-0.970633
-0.995553
-0.996693
-0.997408
-0.999397
-0.999919
-0.999998
-1
-1
-1
-1
-1
-1
-1
-0.999834
-0.99521
-0.962383
-0.911768
-0.928557
-0.973761
-0.995857
-0.995666
-0.995603
-0.998331
-0.999741
-0.999989
-1
-1
-1
-1
-1
-1
-1
-0.999837
-0.995382
-0.96245
-0.918188
-0.93546
-0.977334
-0.99631
-0.995312
-0.994222
-0.997765
-0.999693
-0.999984
-1
-1
-1
-1
-1
-1
-1
-0.999956
-0.996664
-0.96396
-0.924114
-0.941317
-0.978643
-0.996762
-0.995523
-0.994713
-0.997799
-0.999682
-0.999961
-0.99999
-0.999994
-1
-1
-1
-1
-1
-0.999972
-0.997374
-0.966785
-0.930514
-0.947798
-0.9805
-0.996338
-0.995783
-0.994346
-0.997296
-0.999214
-0.99968
-0.999863
-0.999939
-0.999995
-1
-1
-1
-1
-0.999907
-0.997717
-0.968758
-0.937645
-0.957316
-0.984882
-0.996516
-0.99627
-0.994563
-0.995756
-0.997189
-0.998203
-0.999005
-0.999637
-0.999962
-1
-1
-1
-1
-0.999774
-0.997852
-0.97009
-0.943492
-0.961891
-0.987727
-0.996778
-0.99663
-0.994843
-0.994915
-0.994857
-0.994727
-0.996294
-0.998979
-0.999897
-0.999997
-1
-1
-1
-0.999563
-0.998057
-0.974623
-0.949454
-0.962667
-0.986068
-0.996105
-0.996491
-0.995343
-0.994419
-0.993861
-0.993513
-0.995729
-0.998926
-0.999849
-0.999994
-1
-1
-1
-0.998747
-0.997986
-0.986745
-0.956717
-0.963672
-0.982656
-0.993082
-0.995619
-0.994986
-0.993821
-0.992898
-0.991902
-0.992736
-0.99647
-0.99919
-0.999912
-0.999996
-1
-1
-0.996722
-0.996642
-0.991077
-0.962398
-0.964858
-0.97658
-0.987889
-0.993088
-0.993255
-0.991909
-0.990884
-0.989699
-0.990737
-0.9943
-0.998068
-0.999598
-0.999967
-0.999998
-1
-0.995839
-0.994536
-0.99082
-0.970729
-0.967153
-0.972183
-0.980359
-0.987162
-0.988532
-0.987325
-0.986631
-0.987455
-0.990733
-0.99542
-0.99858
-0.999726
-0.999972
-0.999999
-1
-0.994953
-0.991345
-0.989234
-0.977159
-0.969834
-0.972204
-0.976329
-0.980856
-0.982839
-0.983731
-0.985696
-0.989126
-0.993946
-0.997775
-0.999416
-0.999899
-0.99999
-1
-1
-0.994466
-0.988098
-0.985966
-0.9772
-0.971463
-0.972514
-0.97489
-0.978023
-0.980865
-0.983762
-0.987415
-0.993546
-0.997895
-0.999447
-0.999885
-0.999984
-0.999999
-1
-1
-0.995416
-0.987598
-0.982973
-0.976475
-0.972557
-0.973111
-0.975037
-0.977988
-0.9815
-0.985505
-0.99109
-0.996766
-0.999272
-0.999867
-0.99998
-0.999998
-1
-1
-1
-0.997449
-0.990027
-0.983095
-0.976915
-0.974159
-0.974787
-0.976795
-0.980399
-0.98547
-0.990848
-0.995803
-0.99869
-0.99975
-0.999968
-0.999997
-1
-1
-1
-1
-0.999001
-0.995118
-0.986613
-0.980532
-0.978215
-0.980252
-0.983192
-0.987855
-0.993125
-0.996646
-0.998726
-0.999658
-0.999944
-0.999994
-1
-1
-1
-1
-1
-0.999745
-0.998502
-0.993624
-0.988678
-0.986665
-0.990308
-0.992506
-0.995401
-0.997735
-0.999032
-0.999687
-0.999928
-0.99999
-0.999999
-1
-1
-1
-1
-1
-0.99996
-0.999661
-0.998086
-0.995835
-0.994953
-0.996999
-0.997672
-0.998664
-0.999389
-0.999769
-0.999936
-0.999987
-0.999999
-1
-1
-1
-1
-1
-1
-0.999998
-0.999958
-0.999629
-0.998916
-0.9986
-0.999288
-0.999426
-0.999682
-0.999862
-0.999954
-0.999989
-0.999998
-1
-1
-1
-1
-1
-1
-1
-1
-0.999998
-0.999956
-0.999802
-0.999705
-0.999863
-0.999884
-0.999936
-0.999974
-0.999992
-0.999998
-1
-1
-1
-1
-1
-1
-1
-1
-1
-1
-0.999998
-0.999977
-0.999956
-0.99998
-0.999982
-0.99999
-0.999996
-0.999999
-1
-1
-1
-1
-1
-1
-1
-1
-1
)
;

boundaryField
{
    leftWall
    {
        type            zeroGradient;
    }
    rightWall
    {
        type            zeroGradient;
    }
    lowerWall
    {
        type            zeroGradient;
    }
    atmosphere
    {
        type            zeroGradient;
    }
    defaultFaces
    {
        type            empty;
    }
}


// ************************************************************************* //
