/*--------------------------------*- C++ -*----------------------------------*\
| =========                 |                                                 |
| \\      /  F ield         | foam-extend: Open Source CFD                    |
|  \\    /   O peration     | Version:     4.1                                |
|   \\  /    A nd           | Web:         http://www.foam-extend.org         |
|    \\/     M anipulation  |                                                 |
\*---------------------------------------------------------------------------*/
FoamFile
{
    version     2.0;
    format      ascii;
    class       volScalarField;
    location    "0.2";
    object      C_0;
}
// * * * * * * * * * * * * * * * * * * * * * * * * * * * * * * * * * * * * * //

dimensions      [0 0 0 0 0 0 0];

internalField   nonuniform List<scalar> 
2268
(
1
1
1
1
1
1
1
0.999999
0.999993
0.999981
0.999963
0.999943
0.999932
0.999932
0.999944
1.00001
1.00026
1.00098
1.00259
1.0054
1.00684
0.997533
0.932358
1
1
1
1
1
1
1
0.999999
0.999994
0.999984
0.999966
0.999944
0.999935
0.999936
0.999959
1.00006
1.00038
1.00124
1.00297
1.00563
1.00671
0.996937
0.929884
1
1
1
1
1
1
1
0.999999
0.999995
0.999986
0.999967
0.999946
0.999939
0.999948
0.999999
1.00017
1.00055
1.00144
1.00309
1.00554
1.00645
0.996195
0.925609
1
1
1
1
1
1
1
1
0.999997
0.999986
0.999966
0.999949
0.999948
0.999973
1.00008
1.00037
1.0009
1.00188
1.00343
1.00549
1.00615
0.995465
0.921028
1
1
1
1
1
1
1
1
0.999998
0.999983
0.999963
0.999956
0.999966
1.00003
1.00025
1.00071
1.00145
1.00255
1.00398
1.00548
1.00588
0.995205
0.917795
1
1
1
1
1
1
1
1
0.999995
0.999973
0.999959
0.999968
1.00001
1.00015
1.00054
1.00123
1.00218
1.00335
1.00452
1.00539
1.00554
0.995356
0.916416
1
1
1
1
1
1
1
0.999998
0.999975
0.999937
0.999941
0.999973
1.00007
1.00038
1.00101
1.00194
1.00302
1.00409
1.00482
1.00504
1.0049
0.995014
0.917799
1
1
1
1
0.999999
0.999997
0.999991
0.999963
0.999895
0.999825
0.999853
0.999907
1.00013
1.00071
1.0016
1.00271
1.00365
1.00438
1.00452
1.00417
1.00371
0.995916
0.925073
-1.00007
-1.00009
-1.00003
-1
-0.999999
-1
-1
-1
-1
-1
-1
-1
-1
-1
-1
-1
-1
-1
-1
-0.999828
-1.00001
-1.00005
-1.00001
-1
-1
-1
-1
-1
-1
-1
-1
-1
-1
-1
-1
-1
-1
-1
-0.999167
-0.999661
-1.00001
-1.00002
-1
-1
-1
-1
-1
-1
-1
-1
-1
-1
-1
-1
-1
-1
-1
-0.99853
-0.999017
-0.999822
-1.00002
-1.00001
-1
-1
-1
-1
-1
-1
-1
-1
-1
-1
-1
-1
-1
-1
-1.00041
-0.998914
-0.999449
-0.999952
-1.00001
-1
-1
-1
-1
-1
-1
-1
-1
-1
-1
-1
-1
-1
-1
-1.01056
-1.00189
-0.999268
-0.999799
-0.999989
-1
-1
-1
-1
-1
-1
-1
-1
-1
-1
-1
-1
-1
-1
-1.03342
-1.01074
-1.00029
-0.999672
-0.999941
-0.999998
-1
-1
-1
-1
-1
-1
-1
-1
-1
-1
-1
-1
-1
-1.05269
-1.02199
-1.00372
-0.999973
-0.999909
-0.999987
-1
-1
-1
-1
-1
-1
-1
-1
-1
-1
-1
-1
-1
0.999993
0.999989
0.999989
0.999979
0.999972
0.999947
0.999903
0.999783
0.999537
0.999372
0.999411
0.999401
1.00007
1.00117
1.0023
1.00334
1.00319
1.00307
1.00235
1.00102
0.999627
0.994752
0.947201
0.99989
0.999863
0.999852
0.999768
0.999717
0.999549
0.999246
0.99862
0.997533
0.99704
0.996635
0.995248
0.998423
0.999928
0.998778
0.996704
0.990757
0.989252
0.987229
0.986691
0.983182
0.980683
0.954025
0.999077
0.998951
0.998855
0.998474
0.998121
0.997281
0.99575
0.993117
0.989477
0.987873
0.983182
0.972368
0.986652
0.980396
0.968491
0.951387
0.921152
0.915402
0.919219
0.934498
0.935182
0.938865
0.938434
0.994921
0.994473
0.994005
0.992665
0.991078
0.987925
0.982373
0.974085
0.965182
0.958468
0.931142
0.884735
0.930983
0.896037
0.842438
0.778769
0.686617
0.668914
0.682483
0.732565
0.765231
0.802308
0.843086
0.979111
0.977849
0.976158
0.972233
0.967144
0.957983
0.942378
0.923127
0.906534
0.876716
0.764683
0.626916
0.750211
0.643261
0.488258
0.317415
0.10698
0.0607333
0.0812026
0.167373
0.305595
0.499894
0.578742
0.930658
0.927625
0.922908
0.913484
0.900951
0.879364
0.845144
0.81428
0.782907
0.662053
0.3301
0.0962621
0.273115
0.094996
-0.168681
-0.383845
-0.583431
-0.598025
-0.594787
-0.511512
-0.300501
-0.0761575
-0.0167811
0.803144
0.796719
0.785836
0.765706
0.740169
0.698319
0.642587
0.614775
0.532716
0.162487
-0.319633
-0.464999
-0.349561
-0.501892
-0.699434
-0.823778
-0.905731
-0.86683
-0.883285
-0.87463
-0.817515
-0.767023
-0.685126
0.497152
0.484307
0.462438
0.423878
0.376988
0.311815
0.26433
0.272608
0.0606587
-0.436009
-0.7127
-0.763971
-0.72804
-0.831621
-0.924762
-0.96901
-0.989156
-0.968197
-0.970662
-0.978762
-0.964375
-0.947162
-0.910035
-0.119445
-0.137514
-0.162465
-0.206539
-0.255754
-0.306589
-0.286032
-0.226952
-0.464468
-0.747718
-0.861659
-0.893206
-0.902399
-0.962196
-0.9915
-0.999709
-1.00074
-0.99675
-0.99639
-0.997736
-0.99631
-0.991474
-0.974272
-0.665319
-0.6733
-0.683734
-0.70367
-0.725711
-0.74382
-0.711544
-0.657372
-0.761904
-0.866495
-0.921315
-0.952292
-0.971106
-0.994346
-1.00196
-1.00231
-1.00096
-1.00017
-0.999949
-1.00009
-1.00002
-0.99914
-0.994051
-0.894394
-0.89684
-0.900574
-0.908223
-0.917564
-0.928001
-0.923491
-0.904273
-0.909938
-0.923636
-0.95251
-0.980358
-0.992625
-1.00079
-1.00266
-1.00164
-1.00054
-1.00018
-1.00004
-0.999999
-0.999956
-0.999783
-0.998882
-0.970941
-0.971833
-0.97332
-0.976184
-0.980079
-0.986122
-0.989424
-0.984369
-0.972683
-0.960282
-0.969069
-0.989041
-0.997125
-1.00139
-1.00205
-1.00126
-1.00046
-1.0001
-0.999997
-0.999967
-0.999948
-0.999846
-0.999179
-0.994915
-0.995209
-0.995681
-0.996521
-0.997688
-0.999894
-1.00188
-1.00115
-0.995705
-0.984737
-0.984254
-0.994487
-0.999264
-1.00164
-1.0017
-1.00098
-1.00037
-1.0001
-1.00001
-0.999994
-0.999998
-0.999961
-0.999645
-1.00105
-1.00107
-1.00113
-1.00126
-1.00145
-1.00189
-1.00268
-1.00296
-1.00174
-0.997041
-0.99392
-0.997582
-1.00044
-1.00169
-1.00151
-1.00085
-1.00027
-1.00006
-1
-0.999995
-1
-0.999995
-0.999901
-1.00184
-1.00182
-1.00181
-1.00183
-1.00183
-1.00178
-1.00185
-1.00226
-1.00246
-1.00142
-0.999426
-0.999878
-1.00087
-1.00141
-1.00123
-1.0007
-1.0002
-1.00005
-1
-0.999996
-0.999999
-0.999996
-0.999954
-1.00106
-1.00102
-1.00095
-1.0009
-1.0008
-1.00066
-1.00068
-1.00087
-1.00147
-1.00179
-1.00125
-1.00103
-1.00116
-1.00117
-1.00082
-1.00043
-1.00015
-1.00004
-1
-0.999998
-0.999999
-0.999998
-0.999985
-1.00019
-1.0002
-1.00018
-1.00017
-1.00015
-1.00013
-1.00017
-1.00025
-1.00051
-1.00103
-1.00126
-1.00119
-1.00106
-1.00078
-1.00028
-1.00016
-1.00005
-1.00001
-1
-0.999999
-0.999999
-0.999999
-0.999994
-1
-1
-0.999999
-1
-0.999998
-1
-1.00001
-1.00004
-1.00011
-1.00031
-1.00047
-1.00047
-1.0004
-1.00026
-1.00006
-1.00003
-1.00001
-1
-0.999999
-0.999999
-1
-1
-0.999997
-0.999984
-0.999983
-0.999982
-0.999982
-0.999979
-0.999979
-0.999983
-0.999985
-1
-1.00006
-1.0001
-1.0001
-1.00008
-1.00005
-1.00001
-1
-0.999999
-0.999999
-0.999999
-1
-1
-1
-0.999998
-0.999987
-0.999989
-0.999989
-0.999985
-0.999986
-0.999981
-0.999979
-0.99998
-0.999988
-1
-1.00001
-1.00001
-1.00001
-1
-1
-0.999999
-0.999999
-0.999999
-1
-1
-1
-1
-0.999999
-0.999997
-0.999998
-0.999998
-0.999996
-0.999997
-0.999993
-0.999989
-0.999988
-0.999989
-0.999995
-0.999997
-0.999998
-1
-1
-0.999999
-0.999999
-1
-1
-1
-1
-1
-1
-0.999999
-1
-1
-1
-1
-1
-0.999999
-0.999998
-0.999997
-0.999996
-0.999997
-0.999997
-0.999998
-0.999999
-1
-1
-1
-1
-1
-1
-1
-1
-1
-1
-1
-1
-1
-1
-1
-1
-1
-1
-0.999999
-1
-0.999999
-1
-1
-1
-1
-1
-1
-1
-1
-1
-1
-1
-1
-1
-1
-1
-1
-1
-1
-1
-1
-1
-1
-1
-1
-1
-1
-1
-1
-1
-1
-1
-1
-1
-1
-1
-1
-1
-1
-1
-1
-1
-1
-1
-1
-1
-1
-1
-1
-1
-1
-1
-1
-1
-1
-1
-1
-1
-1
-1
-1
-1
-1
-1
-1
-1
-1
-1
-1
-1
-1
-1
-1
-1
-1
-1
-1
-1
-1
-1
-1
-1
-1
-1
-1
-1
-1
-1
-1
-1
-1
-1
-1
-1
-1
-1
-1
-1
-1
-1
-1
-1
-1
-1
-1
-1
-1
-1
-1
-1
-1
-1
-1
-1
-1
-1
-1
-1
-1
-1
-1
-1
-1
-1
-1
-1
-1
-1
-1
-1
-1
-1
-1
-1
-1
-1
-1
-1
-1
-1
-1
-1
-1
-1
-1
-1
-1
-1
-1
-1
-1
-1
-1
-1
-1
-1
-1
-1
-1
-1
-1
-1
-1
-1
-1
-1
-1
-1
-1
-1
-1
-1
-1
-1
-1
-1
-1
-1
-1
-1
-1
-1
-1
-1
-1
-1
-1
-1
-1
-1
-1
-1
-1
-1
-1
-1
-1.00001
-1
-1
-1
-1
-1
-1
-1
-1
-1
-1
-1
-1
-1
-1
-1
-1
-1
-1
-1
-1
-1
-1
-1.00001
-1
-1
-1
-1
-1
-1
-1
-1
-1
-1
-1
-1
-1
-1
-1
-1
-1
-1
-1
-1
-1
-1
-1
-1
-1
-1
-1
-1
-1
-1
-1
-1
-1
-1
-1
-1
-1
-1
-1
-1
-1
-1
-1
-1
-1
-1
-1
-1
-1
-1
-1
-1
-1
-1
-1
-1
-1
-1
-1
-1
-1
-1
-1
-1
-1
-1
-1
-1
-1
-1
-1
-1
-1
-1
-1
-1
-1
-1
-1
-1
-1
-1
-1
-1
-1
-1
-1
-1
-1
-1
-1
-1
-1
-1
-1
-1
-1
-1
-1
-1
-1
-1
-1
-1
-1
-1
-1
-1
-1
-1
-1
-1
-1
-1
-1
-1
-1
-1
-1
-1
-1
-1
-1
-1
-1
-1
-1
-1
-1
-1
-1
-1
-1
-1
-1
-1
-1
-1
-1
-1
-1
-1
-1
-1
-1
-1
-1
-1
-1
-1
-1
-1
-1
-1
-1
-1
-1
-1
-1
-1
-1
-1
-1
-1
-1
-1
-1
-1
-1
-1
-1
-1
-1
-1
-1
-1
-1
-1
-1
-1
-1
-1
-1
-1
-1
-1
-1
-1
-1
-1
-1
-1
-1
-1
-1
-1
-1
-1
-1
-1
-1
-1
-1
-1
-1
-1
-1
-1
-1
-1
-1
-1
-1
-1
-1
-1
-1
-1
-1
-1
-1
-1
-1
-1
-1
-1
-1
-1
-1
-1
0.970361
0.928657
0.617474
-0.0999015
0.963451
0.962247
0.914128
0.729435
0.942191
0.943372
0.940589
0.919009
0.867967
0.876536
0.887825
0.887769
0.64529
0.686153
0.730199
0.751559
0.0827722
0.179444
0.296999
0.382115
-0.591435
-0.497991
-0.381526
-0.266022
-0.862109
-0.811455
-0.751363
-0.679512
-0.938513
-0.899635
-0.854542
-0.815353
-0.982803
-0.966771
-0.940314
-0.917801
-0.997178
-0.993187
-0.982706
-0.970566
-0.998062
-0.996115
-0.991662
-0.986731
-0.999393
-0.998808
-0.997309
-0.995651
-0.999958
-1.00008
-1.00028
-1.0004
-0.999969
-1.00009
-1.00049
-1.00109
-0.999973
-1.00002
-1.00023
-1.00058
-0.999981
-1
-1.00014
-1.00034
-0.999988
-0.999996
-1.00007
-1.00025
-0.999991
-0.999997
-1.00005
-1.0002
-0.999994
-1
-1.00006
-1.00016
-0.999994
-1
-1.00005
-1.00013
-0.999997
-1
-1.00004
-1.0001
-0.999999
-1.00001
-1.00005
-1.00008
-1
-1.00001
-1.00004
-1.00005
-1
-1
-1.00001
-1.00004
-1
-1
-0.999993
-0.999994
-1
-0.999997
-0.999971
-0.999926
-1
-0.999987
-0.999926
-0.999809
-0.999998
-0.99997
-0.999872
-0.99967
-0.999991
-0.999924
-0.99971
-0.999276
-0.999982
-0.999869
-0.999512
-0.998722
-0.999975
-0.99982
-0.999348
-0.998351
-0.999969
-0.999766
-0.999151
-0.997898
-0.999969
-0.999798
-0.999241
-0.997961
-0.99998
-0.999875
-0.999512
-0.998585
-0.999999
-0.999964
-0.999811
-0.999366
-1
-0.999995
-0.999955
-0.999811
-1
-1
-0.999998
-0.999971
-1
-1
-1
-0.999999
-1
-1
-1
-1
-1
-1
-1
-1
-1
-1
-1
-1
-0.952641
-1.01641
-1.01177
-1.0019
-1.00008
-0.999979
-0.999996
-1
-1
-1
-1
-1
-1
-1
-1
-1
-1
-1
-1
0.0152032
-0.733283
-0.987088
-1.00598
-1.0014
-1.00015
-1
-0.999999
-1
-1
-1
-1
-1
-1
-1
-1
-1
-1
-1
0.787331
0.370923
-0.445333
-0.895498
-0.988244
-0.999943
-1.00013
-1
-1
-1
-1
-1
-1
-1
-1
-1
-1
-1
-1
0.869008
0.748416
0.235942
-0.60888
-0.946393
-0.999281
-1.0005
-1.00006
-1.00001
-1
-1
-1
-1
-1
-1
-1
-1
-1
-1
0.786161
0.741363
0.575422
0.112678
-0.63298
-0.940713
-0.993097
-0.999811
-1.00002
-1
-1
-1
-1
-1
-1
-1
-1
-1
-1
0.576044
0.624962
0.535449
0.0858728
-0.587721
-0.912142
-0.989077
-0.999417
-0.999909
-0.999992
-1
-1
-1
-1
-1
-1
-1
-1
-1
0.0315407
0.354256
0.403
0.135808
-0.488339
-0.857544
-0.970531
-0.996291
-0.99902
-0.999831
-0.999997
-1
-1
-1
-1
-1
-1
-1
-1
-0.504662
0.00364219
0.218197
0.084628
-0.338345
-0.784786
-0.9434
-0.98575
-0.994741
-0.998887
-0.99991
-0.999999
-1
-1
-1
-1
-1
-1
-1
-0.763007
-0.440764
-0.0175054
-0.0248346
-0.297038
-0.718432
-0.907338
-0.965644
-0.988922
-0.997373
-0.999605
-0.999967
-0.999999
-1
-1
-1
-1
-1
-1
-0.898247
-0.678789
-0.208576
-0.174345
-0.371305
-0.707514
-0.885655
-0.963022
-0.991034
-0.998776
-0.999916
-0.999999
-1
-1
-1
-1
-1
-1
-1
-0.962452
-0.840186
-0.419797
-0.364837
-0.517159
-0.765341
-0.908071
-0.970472
-0.992776
-0.998719
-0.999852
-0.999991
-1
-1
-1
-1
-1
-1
-1
-0.983063
-0.906501
-0.582019
-0.574941
-0.729642
-0.88626
-0.956979
-0.987393
-0.996972
-0.999486
-0.999944
-0.999997
-1
-1
-1
-1
-1
-1
-1
-0.993871
-0.94853
-0.71477
-0.690569
-0.813007
-0.943737
-0.983398
-0.996799
-0.999469
-0.999923
-0.999993
-1
-1
-1
-1
-1
-1
-1
-1
-0.999578
-0.970328
-0.798111
-0.754915
-0.847143
-0.958273
-0.992257
-0.998809
-0.999886
-0.999991
-1
-1
-1
-1
-1
-1
-1
-1
-1
-1.00029
-0.980313
-0.852979
-0.79397
-0.843235
-0.943759
-0.992708
-0.999245
-0.999953
-0.999995
-1
-1
-1
-1
-1
-1
-1
-1
-1
-0.999892
-0.984025
-0.885741
-0.818474
-0.853564
-0.934556
-0.985785
-0.998442
-0.999864
-0.999933
-0.999988
-0.999998
-1
-1
-1
-1
-1
-1
-1
-0.999495
-0.983542
-0.894893
-0.837807
-0.873059
-0.943322
-0.98682
-0.998822
-0.999773
-0.999634
-0.999901
-0.999982
-0.999998
-1
-1
-1
-1
-1
-1
-0.999918
-0.990212
-0.915821
-0.855182
-0.882404
-0.948632
-0.989888
-0.998994
-0.999186
-0.99879
-0.999635
-0.999939
-0.999994
-1
-1
-1
-1
-1
-1
-1.00014
-0.995199
-0.944588
-0.875843
-0.891523
-0.949153
-0.990743
-0.998575
-0.997754
-0.998606
-0.999664
-0.999945
-0.999995
-1
-1
-1
-1
-1
-1
-1.00001
-0.994904
-0.952419
-0.886134
-0.902811
-0.956588
-0.992627
-0.997496
-0.996798
-0.998976
-0.999808
-0.999973
-0.999998
-1
-1
-1
-1
-1
-1
-0.999902
-0.994241
-0.954552
-0.894398
-0.913814
-0.965864
-0.994907
-0.997077
-0.997774
-0.999562
-0.99992
-0.99999
-1
-1
-1
-1
-1
-1
-1
-0.999782
-0.993472
-0.953972
-0.901891
-0.925619
-0.97403
-0.996193
-0.996496
-0.997214
-0.999323
-0.999907
-0.999997
-1
-1
-1
-1
-1
-1
-1
-0.999787
-0.994451
-0.957896
-0.91197
-0.931601
-0.976844
-0.996406
-0.995445
-0.995269
-0.998099
-0.999704
-0.999987
-1
-1
-1
-1
-1
-1
-1
-0.999788
-0.994694
-0.958602
-0.918858
-0.938165
-0.979698
-0.996822
-0.995283
-0.994032
-0.997544
-0.99966
-0.999981
-1
-1
-1
-1
-1
-1
-1
-0.999931
-0.99619
-0.960905
-0.925109
-0.94408
-0.981014
-0.997172
-0.995554
-0.994548
-0.997595
-0.999641
-0.999952
-0.999988
-0.999993
-1
-1
-1
-1
-1
-0.999962
-0.997142
-0.964504
-0.931934
-0.950765
-0.982912
-0.996859
-0.995868
-0.994227
-0.997028
-0.999079
-0.999622
-0.99985
-0.999935
-0.999995
-1
-1
-1
-1
-0.999899
-0.997586
-0.966663
-0.93929
-0.960301
-0.987096
-0.996947
-0.996403
-0.994478
-0.995465
-0.996827
-0.998019
-0.998969
-0.999628
-0.999962
-1
-1
-1
-1
-0.999761
-0.997794
-0.968404
-0.94508
-0.963615
-0.988988
-0.997007
-0.996631
-0.994766
-0.994741
-0.994573
-0.994521
-0.996284
-0.99901
-0.999901
-0.999997
-1
-1
-1
-0.999528
-0.998066
-0.974183
-0.95074
-0.963865
-0.987155
-0.996093
-0.99642
-0.995163
-0.994184
-0.993548
-0.993336
-0.995864
-0.999002
-0.999855
-0.999993
-1
-1
-1
-0.998615
-0.997889
-0.987062
-0.957862
-0.964519
-0.982794
-0.992437
-0.995271
-0.99471
-0.993424
-0.992425
-0.991616
-0.992608
-0.996679
-0.999285
-0.999926
-0.999997
-1
-1
-0.996519
-0.996399
-0.990815
-0.963427
-0.965609
-0.976195
-0.986674
-0.992238
-0.992522
-0.991117
-0.990114
-0.989358
-0.99092
-0.995015
-0.998417
-0.99969
-0.999976
-0.999999
-1
-0.995548
-0.994014
-0.990324
-0.971379
-0.96778
-0.972401
-0.979448
-0.985773
-0.987094
-0.986176
-0.986011
-0.987678
-0.991475
-0.996154
-0.998884
-0.999799
-0.999981
-0.999999
-1
-0.994696
-0.990602
-0.988579
-0.97696
-0.97028
-0.972453
-0.975999
-0.980016
-0.982105
-0.983518
-0.985893
-0.989891
-0.994986
-0.998291
-0.999582
-0.999933
-0.999994
-1
-1
-0.994416
-0.987728
-0.985197
-0.976764
-0.971718
-0.972747
-0.974956
-0.977956
-0.981001
-0.984095
-0.988371
-0.994698
-0.998415
-0.999609
-0.999924
-0.99999
-0.999999
-1
-1
-0.99559
-0.987671
-0.982742
-0.976266
-0.972841
-0.973407
-0.975319
-0.978352
-0.982159
-0.986697
-0.992611
-0.997556
-0.999493
-0.999913
-0.999988
-0.999999
-1
-1
-1
-0.997698
-0.990701
-0.983345
-0.977159
-0.974757
-0.97558
-0.977877
-0.981839
-0.987201
-0.992547
-0.996861
-0.999086
-0.999839
-0.999981
-0.999998
-1
-1
-1
-1
-0.999165
-0.995841
-0.987833
-0.981927
-0.979702
-0.982261
-0.985518
-0.990103
-0.994668
-0.997499
-0.999114
-0.999779
-0.999967
-0.999997
-1
-1
-1
-1
-1
-0.999807
-0.998821
-0.99484
-0.990577
-0.988827
-0.992355
-0.994291
-0.996566
-0.998355
-0.999326
-0.999797
-0.999957
-0.999995
-1
-1
-1
-1
-1
-1
-0.999974
-0.999761
-0.998584
-0.996798
-0.996088
-0.997804
-0.998346
-0.999064
-0.999583
-0.99985
-0.999962
-0.999993
-0.999999
-1
-1
-1
-1
-1
-1
-0.999999
-0.999975
-0.999752
-0.999234
-0.998989
-0.999512
-0.999618
-0.99979
-0.999912
-0.999972
-0.999994
-0.999999
-1
-1
-1
-1
-1
-1
-1
-1
-0.999999
-0.999973
-0.999872
-0.999801
-0.999911
-0.999927
-0.99996
-0.999984
-0.999996
-0.999999
-1
-1
-1
-1
-1
-1
-1
-1
-1
-1
-0.999999
-0.999986
-0.999972
-0.999988
-0.999989
-0.999994
-0.999998
-0.999999
-1
-1
-1
-1
-1
-1
-1
-1
-1
)
;

boundaryField
{
    leftWall
    {
        type            zeroGradient;
    }
    rightWall
    {
        type            zeroGradient;
    }
    lowerWall
    {
        type            zeroGradient;
    }
    atmosphere
    {
        type            zeroGradient;
    }
    defaultFaces
    {
        type            empty;
    }
}


// ************************************************************************* //
