/*--------------------------------*- C++ -*----------------------------------*\
| =========                 |                                                 |
| \\      /  F ield         | foam-extend: Open Source CFD                    |
|  \\    /   O peration     | Version:     4.1                                |
|   \\  /    A nd           | Web:         http://www.foam-extend.org         |
|    \\/     M anipulation  |                                                 |
\*---------------------------------------------------------------------------*/
FoamFile
{
    version     2.0;
    format      ascii;
    class       volScalarField;
    location    "0.2";
    object      p;
}
// * * * * * * * * * * * * * * * * * * * * * * * * * * * * * * * * * * * * * //

dimensions      [1 -1 -2 0 0 0 0];

internalField   nonuniform List<scalar> 
2268
(
1700.37
1704.58
1708.17
1707.47
1721.72
1717.55
1737.98
1740.57
1760.18
1786.94
1845
1921.27
1883.61
1907.35
1923.78
1939.68
2009.42
1919.06
2042.88
2147.06
2312.45
2379.93
2378.86
1640.75
1644.93
1648.29
1647.87
1661.57
1657.24
1678.4
1680.61
1700.35
1714.46
1829.28
1839.39
1811.25
1838.9
1861.92
1874.35
1990.03
1812.49
1974.96
2022.84
2247.88
2328.19
2317.89
1580.25
1584.46
1587.52
1587.76
1600.39
1596.08
1617.49
1618.52
1639.04
1650.17
1753.38
1756.82
1748.7
1778.76
1797.72
1811.91
1873.73
1798.7
1922.22
2030.68
2122.34
2200.02
2218.96
1519.12
1523.21
1525.5
1526.88
1537.95
1533.7
1557.06
1551.86
1576.28
1637.69
1657.93
1684.52
1676.95
1709.2
1727.43
1746.24
1784.06
1757.38
1865.46
1945.95
2005.62
2165.4
2109.81
1456.99
1461.1
1462.91
1465.26
1475.11
1470.87
1493.33
1502.36
1496.64
1583.52
1575.62
1608.97
1608.6
1643.52
1658.77
1676.21
1711.49
1721.52
1806.01
1884.28
1874.24
2038.55
1958.22
1394.4
1398.26
1398.85
1402.64
1409.66
1408.37
1421
1421.45
1467.94
1500.8
1501.27
1536.76
1535.01
1575.47
1587.61
1598.66
1642.34
1652.42
1704.39
1841
1698.95
1838.59
1795.19
1330.7
1334.53
1334.79
1339.78
1345.48
1337.1
1375.22
1345.44
1402.49
1422.92
1430.41
1459.66
1454.86
1503.04
1514.36
1522.06
1563.68
1580.89
1600.6
1765.09
1615.91
1565.21
1600.93
1266.75
1270.19
1268.45
1270.96
1274.55
1283.87
1285.37
1294.98
1326.64
1344.68
1356.21
1382.94
1388.33
1431.87
1429.4
1443.9
1474.4
1501.84
1543.75
1635.61
1462.14
1354.22
1325.23
18.1852
18.1659
18.1365
18.1167
18.074
18.0265
17.9652
17.8999
17.8322
17.773
17.7123
17.6625
17.6067
17.5593
17.5161
17.4565
17.4395
17.4034
17.3926
18.127
18.1083
18.0758
18.0628
18.0178
17.9687
17.907
17.8401
17.7715
17.7126
17.6509
17.6011
17.5471
17.5018
17.4527
17.3998
17.3751
17.3432
17.3324
18.0635
18.0454
18.0174
18.0116
17.9645
17.9122
17.8498
17.7799
17.7142
17.6536
17.5964
17.5409
17.4873
17.4439
17.392
17.3403
17.3119
17.2822
17.2709
17.9774
17.9727
17.9589
17.957
17.9157
17.8568
17.7944
17.7167
17.6484
17.5904
17.531
17.4813
17.4229
17.3804
17.3276
17.2799
17.2476
17.2197
17.2081
17.9081
17.8891
17.8916
17.9113
17.8606
17.7982
17.7332
17.6516
17.5941
17.5278
17.4742
17.4072
17.3621
17.3207
17.2642
17.2176
17.1826
17.1558
17.144
17.8819
17.8172
17.824
17.8537
17.8048
17.7479
17.6736
17.5915
17.5191
17.4589
17.4043
17.3444
17.2933
17.254
17.1995
17.1545
17.1169
17.0905
17.0785
17.8543
17.7462
17.7684
17.8114
17.7561
17.6874
17.6144
17.5212
17.458
17.3986
17.3421
17.2776
17.2302
17.1883
17.1354
17.0904
17.0498
17.0239
17.0116
17.8622
17.6714
17.7491
17.7925
17.7202
17.6294
17.5534
17.4373
17.3841
17.3304
17.2738
17.2072
17.1585
17.1253
17.0715
17.0249
16.982
16.9564
16.943
1163.76
1168.42
1161.07
1184.91
1176.63
1141.28
1203.53
1176.52
1211.89
1226.73
1234.32
1252.34
1222.03
1333.69
1300.18
1304.34
1346.63
1379.89
1414.32
1433.43
1422.32
627.43
307.077
1024.52
1026.09
1021.09
1010.25
1033.59
1017.79
1033.27
1033.26
1048.21
1059.39
1071.26
1075.25
1056.73
1126.3
1086.2
1102.54
1105.74
1119.42
1137.99
1310.12
603.954
161.795
-40.0738
880.082
877.935
875.274
868.229
876.328
865.212
875.072
868.656
880.331
889.031
889.086
877.515
848.987
923.758
880.916
875.553
837.899
831.545
868.944
785.848
692.819
-120.898
419.577
727.933
725.406
725.581
716.505
719.599
710.353
710.41
704.885
707.59
710.103
708.686
654.12
625.243
695.256
592.692
543.081
521.143
460.321
471.728
457
301.24
-100.504
-6.94905
577.302
572.811
572.401
560.874
561.761
547.325
549.015
535.681
532.426
519.143
510.939
445.489
427.984
398.463
252.042
210.48
166.453
119.003
123.232
177.889
154.399
-225.498
-266.558
425.686
421.546
419.205
409.808
405.671
392.668
383.489
373.771
347.12
326.963
219.469
190.936
194.641
131.007
32.3897
32.2899
15.2813
9.84321
-11.1455
4.67331
9.49235
-195.243
83.2448
279.596
274.112
270.69
262.442
259.138
251.633
235.812
226.417
179.543
128.355
61.5458
29.459
51.6418
34.454
-5.19522
-12.77
-10.2734
-4.28147
-5.81567
-12.376
3.85305
19.7992
37.483
165.22
157.791
150.025
139.892
132.606
131.044
118.366
120.43
70.5702
54.0172
36.4906
9.32341
15.0077
-10.8564
-6.8097
-6.6975
-5.68479
-5.84638
-5.74823
-6.6554
-4.79666
-6.89141
-15.5921
54.4286
52.2345
50.4106
46.6898
42.0232
41.7162
42.756
47.6196
24.2586
36.8915
29.7917
11.2894
-1.53105
-5.56525
-5.4107
-5.61248
-5.01623
-5.41383
-5.26836
-5.93558
-5.84763
-6.15462
-8.09252
2.10656
4.3443
5.05746
5.38481
4.52132
4.81896
7.00899
12.8805
10.7884
37.4946
20.6509
1.96472
-3.4896
-5.18361
-4.96075
-4.81476
-4.94556
-5.19958
-5.55425
-5.76337
-5.86916
-5.98766
-6.52757
-3.85431
-3.76565
-3.49527
-3.25
-3.40238
-3.57476
-4.76813
-4.28781
-7.52851
-6.30685
-7.9452
-4.30006
-4.85756
-5.09851
-5.08106
-5.2412
-5.22349
-5.29865
-5.60936
-5.89575
-5.92632
-6.43641
-6.26169
-4.55312
-5.0799
-5.04933
-4.95469
-4.96341
-5.06588
-5.07271
-5.40688
-5.73654
-4.98927
-4.24705
-3.85939
-5.00358
-5.02301
-5.47931
-5.68276
-5.82324
-5.81553
-5.78732
-6.07378
-6.58979
-6.68574
-6.93318
-5.1184
-5.1642
-5.11589
-5.0248
-4.9969
-4.9763
-5.04082
-5.3105
-5.32043
-5.72092
-5.93732
-4.324
-5.32785
-5.65278
-5.57815
-5.55832
-5.83647
-6.25063
-6.06923
-6.17126
-6.62501
-6.98839
-7.35088
-5.25038
-5.34161
-5.36084
-5.36125
-5.31051
-5.07693
-5.17255
-5.26232
-5.43323
-5.473
-6.15483
-6.22551
-5.6736
-5.83859
-5.80087
-6.01978
-6.11914
-6.61641
-6.89871
-6.73014
-6.93744
-7.29849
-7.85387
-5.33993
-5.26297
-5.26439
-5.33311
-5.41358
-5.64045
-5.49541
-5.69668
-5.84123
-5.86227
-6.23193
-6.06426
-6.17804
-6.12684
-6.17303
-6.47535
-6.04008
-6.42902
-6.89654
-7.05737
-7.21171
-7.34831
-7.82732
-5.88955
-5.752
-5.68458
-5.65954
-5.67346
-5.73515
-5.73579
-5.81491
-5.91953
-5.94551
-6.1537
-6.30981
-6.28907
-6.33082
-6.45607
-6.32041
-6.52965
-6.44224
-6.59035
-6.80947
-7.38251
-7.75857
-7.6348
-5.49342
-5.8611
-5.89808
-5.84581
-5.89603
-5.90838
-5.87468
-6.01319
-6.06194
-6.10581
-6.20994
-6.24252
-6.344
-6.23073
-6.36457
-6.72288
-7.19724
-7.01966
-7.10462
-7.31635
-7.43871
-7.70337
-7.61718
-5.59711
-5.47253
-5.53369
-5.85207
-5.97276
-6.1325
-6.22301
-6.27541
-6.32498
-6.22751
-6.28982
-6.4324
-6.33619
-6.56659
-6.90195
-6.92393
-6.90564
-6.94424
-6.86491
-7.38647
-7.61432
-8.11729
-7.88713
-5.72331
-5.74181
-5.81074
-6.11291
-5.74789
-6.11929
-6.23048
-6.00629
-6.31171
-6.50738
-6.47253
-6.56747
-6.83471
-6.8496
-6.74628
-6.67876
-6.6553
-7.1028
-7.15018
-7.36303
-7.54145
-7.48919
-7.97137
-5.84603
-5.80191
-5.86145
-5.74721
-5.87317
-5.85881
-6.22668
-6.18239
-6.11898
-6.52495
-6.51802
-6.38
-6.61764
-6.51995
-6.6061
-6.82733
-6.86291
-7.14218
-7.25418
-7.43348
-7.65783
-7.80173
-8.2359
-5.74957
-5.83001
-5.88051
-5.78752
-5.88698
-5.96172
-5.88251
-6.15875
-6.16738
-6.11123
-6.21217
-6.27442
-6.35239
-6.45391
-6.75766
-6.82484
-7.00504
-7.31248
-7.40597
-7.648
-7.74383
-7.71761
-7.90959
-6.3809
-6.03161
-5.99751
-6.34022
-5.97352
-6.1028
-5.9874
-6.0628
-6.04346
-6.09932
-6.17736
-6.29492
-6.37903
-6.65188
-6.86617
-6.89699
-7.12401
-7.33895
-7.19456
-7.27827
-7.85896
-8.31163
-8.35162
-6.81165
-7.00763
-6.94889
-6.79051
-6.93775
-6.95247
-6.91223
-6.90291
-6.85508
-6.43765
-6.83522
-6.82436
-6.58062
-6.63402
-6.88193
-7.19087
-7.04138
-7.40089
-7.89992
-7.75752
-7.82171
-8.22597
-7.96716
-6.90914
-6.94529
-6.93958
-6.93272
-6.93569
-6.98922
-7.01128
-7.02486
-7.21362
-7.41016
-7.20499
-7.28492
-7.53064
-7.26286
-7.34132
-8.09629
-7.94385
-7.77832
-8.20553
-8.69818
-9.16848
-8.69014
-8.38272
-7.0656
-7.0835
-7.0789
-7.09022
-7.07955
-7.10727
-7.13457
-7.25503
-7.28211
-7.29899
-7.4219
-7.38669
-7.40189
-7.6123
-7.64666
-7.85431
-8.08317
-8.35967
-8.27106
-8.44583
-9.06656
-8.80603
-8.62644
-7.16095
-7.16447
-7.19512
-7.20133
-7.21082
-7.22331
-7.27352
-7.35521
-7.40703
-7.48017
-7.55906
-7.64477
-7.74667
-7.79827
-7.98385
-7.91843
-7.96398
-8.1731
-8.48892
-9.02888
-9.24242
-9.09635
-9.02047
-7.26783
-7.27871
-7.28727
-7.29503
-7.30165
-7.33602
-7.37779
-7.44374
-7.50652
-7.58977
-7.6648
-7.79591
-7.88513
-8.04992
-8.07986
-8.25938
-8.48645
-8.19275
-8.5027
-8.91218
-9.55456
-9.26329
-9.26816
-7.32685
-7.32368
-7.35009
-7.37291
-7.43181
-7.43549
-7.47049
-7.52608
-7.57894
-7.65757
-7.73941
-7.83628
-7.91668
-8.05398
-8.06936
-8.12711
-9.35427
-8.64065
-8.58222
-9.16132
-10.2678
-10.0484
-9.76122
-7.411
-7.41032
-7.42631
-7.4474
-7.48606
-7.51148
-7.53514
-7.57909
-7.63344
-7.70516
-7.78383
-7.86438
-7.94551
-7.94781
-8.27761
-8.75876
-8.97679
-9.09492
-9.90265
-8.65191
-10.1064
-11.0939
-10.7579
-7.46875
-7.46734
-7.48157
-7.49499
-7.54063
-7.5653
-7.58749
-7.62394
-7.67082
-7.74052
-7.81958
-7.93027
-8.02717
-8.11518
-8.36726
-8.55379
-8.54379
-9.83817
-9.76572
-9.24825
-9.31545
-10.6641
-11.7097
-7.51614
-7.52577
-7.53976
-7.55288
-7.59434
-7.60923
-7.61512
-7.64368
-7.68308
-7.73356
-7.79858
-7.89322
-7.9512
-8.12806
-8.27541
-8.50226
-9.07626
-9.76021
-9.74154
-9.40207
-10.0283
-11.5538
-13.2809
-7.54413
-7.5689
-7.59167
-7.61783
-7.62343
-7.61876
-7.61508
-7.63086
-7.65223
-7.70551
-7.76873
-7.86846
-7.94407
-8.03091
-8.14045
-8.57543
-9.18115
-9.9828
-10.2304
-10.6128
-12.2041
-12.5502
-14.5676
-7.52821
-7.567
-7.58955
-7.62422
-7.60795
-7.59228
-7.58008
-7.58334
-7.58626
-7.67359
-7.72685
-7.82287
-7.95095
-8.0047
-8.19412
-8.40508
-8.92138
-9.22076
-10.5285
-11.9854
-12.2162
-13.0007
-13.0318
-7.43413
-7.48422
-7.51049
-7.53223
-7.51548
-7.50289
-7.50614
-7.54131
-7.57702
-7.67258
-7.73777
-7.83386
-7.88102
-7.99066
-8.21431
-8.4097
-8.85475
-9.60635
-10.5152
-11.2731
-10.7028
-12.8159
-13.1028
-7.2797
-7.30928
-7.35779
-7.36546
-7.33932
-7.31859
-7.36243
-7.49925
-7.63639
-7.68239
-7.74204
-7.86201
-7.85186
-7.97318
-8.2182
-8.58174
-8.80152
-9.30262
-9.20002
-10.4378
-10.8863
-12.1203
-13.0135
-7.10015
-7.11012
-7.16483
-7.20721
-7.18564
-7.16812
-7.25362
-7.43
-7.62123
-7.64394
-7.66673
-7.71611
-7.81848
-7.86609
-8.24827
-8.66939
-8.69959
-9.02957
-9.25495
-10.0201
-11.2196
-10.2544
-12.9955
-7.02525
-7.03261
-7.06646
-7.1164
-7.14176
-7.18708
-7.29482
-7.40844
-7.56
-7.60856
-7.65544
-7.63737
-7.68177
-7.71247
-8.21841
-8.36847
-8.43876
-8.71418
-8.9788
-9.54881
-10.2353
-10.4223
-11.147
-7.11469
-7.10146
-7.09567
-7.08512
-7.15201
-7.27834
-7.38774
-7.44206
-7.48018
-7.52715
-7.67047
-7.7293
-7.94331
-8.56184
-8.07358
-8.12326
-8.23925
-8.4057
-8.62837
-9.03585
-9.44376
-9.70914
-9.91352
-7.26462
-7.23275
-7.20115
-7.18573
-7.25936
-7.38239
-7.45615
-7.45107
-7.44823
-7.49034
-7.56137
-7.62091
-7.80351
-8.06264
-7.79971
-7.92137
-7.97406
-8.05853
-8.24263
-8.5484
-8.78604
-9.00579
-9.17058
-7.35445
-7.3311
-7.30645
-7.32544
-7.38398
-7.45262
-7.48881
-7.47934
-7.51787
-7.52291
-7.55542
-7.62478
-7.71717
-7.74183
-7.46685
-7.54725
-7.58149
-7.65874
-7.86875
-8.0808
-8.24008
-8.25905
-8.24737
-7.11526
-7.10774
-7.10035
-7.11534
-7.14848
-7.18465
-7.2085
-7.21545
-7.21008
-7.29262
-7.37497
-7.42112
-7.52454
-7.45166
-7.40676
-7.52841
-7.72025
-7.70184
-7.76249
-7.82744
-7.74472
-7.55018
-7.50106
-6.30158
-6.30111
-6.3002
-6.30877
-6.32432
-6.33851
-6.35328
-6.37729
-6.39347
-6.44404
-6.55044
-6.65418
-6.81056
-7.14308
-8.03472
-8.08791
-8.30399
-8.19796
-7.96932
-7.13953
-6.91183
-7.43387
-6.69917
-119.515
-349.515
-80.3276
30.0834
305.35
366.103
499.626
362.987
268.079
126.705
605.318
501.257
177.001
227.549
371.032
462.258
300.202
297.288
307.377
347.845
177.837
173.028
175.877
130.194
73.5542
78.913
71.4053
14.6326
20.2329
14.0712
4.34249
1.02515
-3.25522
-9.91486
-26.6372
-26.2264
-6.08955
-7.75379
-11.5878
-12.0919
-6.06084
-6.53771
-7.95357
-10.3435
-7.27114
-8.18139
-10.2237
-9.49099
-7.6133
-7.9807
-9.27752
-9.30103
-8.03752
-8.28929
-8.77597
-9.13043
-8.17266
-8.42596
-8.95887
-9.15974
-7.88174
-8.0958
-8.74629
-9.14168
-7.81909
-8.04149
-8.7032
-9.00389
-7.87084
-7.97673
-8.26664
-8.85251
-7.98656
-8.1589
-8.15818
-8.75356
-7.91972
-7.83918
-8.3438
-8.52866
-8.09069
-8.30779
-8.4787
-8.57041
-8.27201
-8.24203
-8.12575
-8.28631
-8.3914
-8.49621
-8.52193
-8.63408
-8.4463
-8.40747
-8.39567
-8.37793
-8.6233
-8.53433
-8.41135
-8.32973
-8.92657
-8.80035
-8.5995
-8.39572
-9.18577
-9.0135
-8.79074
-8.55379
-9.63718
-9.36553
-8.98367
-8.56648
-10.5373
-10.4017
-10.272
-9.62609
-11.5014
-11.6166
-11.7472
-11.4613
-13.4985
-13.624
-14.0472
-14.7625
-16.2961
-17.2429
-17.8954
-18.5633
-16.0873
-18.2387
-20.3016
-22.5308
-15.6476
-17.8058
-20.1697
-22.9143
-14.9555
-16.62
-18.5588
-20.8936
-13.4352
-14.2826
-15.9734
-17.8343
-12.4474
-13.5903
-14.3606
-15.1927
-11.058
-11.5315
-11.6258
-12.3465
-9.03514
-9.70997
-9.98003
-10.4037
-8.37339
-8.63502
-8.94149
-8.79334
-7.61882
-7.41225
-7.36252
-7.22689
-6.58476
-6.60998
-6.38417
-6.12453
15.7269
17.3059
17.6469
17.7905
17.7179
17.6401
17.5015
17.3285
17.2806
17.2044
17.165
17.1087
17.062
17.0112
16.9694
16.9206
16.874
16.8492
16.8334
10.0009
5.9764
17.613
17.3685
17.5073
17.0374
16.9952
17.1044
17.1067
17.0639
17.0076
16.9445
16.9258
16.8681
16.8301
16.7718
16.725
16.6955
16.6777
-35.7619
100.263
0.328908
11.6214
16.9517
18.023
17.7288
17.2217
17.0418
16.8864
16.8617
16.8191
16.7742
16.7143
16.6842
16.6183
16.569
16.5345
16.514
153.858
313.205
5.38742
37.0543
23.2454
16.3026
16.0908
16.3297
16.7394
16.6613
16.6547
16.6286
16.6164
16.5565
16.5677
16.4487
16.4082
16.3664
16.3431
308.012
-359.869
-116.356
-40.0183
21.5905
3.38354
16.3531
17.4208
16.7956
16.5629
16.4901
16.4885
16.4676
16.4096
16.4042
16.2893
16.2341
16.1902
16.1626
251.68
-444.815
-715.269
-279.32
-14.0514
18.5719
19.7332
17.1898
16.8998
16.2158
16.2916
16.3436
16.3121
16.2762
16.1879
16.1861
16.0559
16.0053
15.9725
-163.638
-126.803
-507.13
4.77799
176.755
55.2707
17.0907
15.2057
14.9618
15.1244
15.7966
16.1533
16.1414
16.204
16.0173
15.9563
15.8594
15.8019
15.7681
-151.821
-420.571
293.306
399.098
199.218
65.6226
8.8922
12.5836
13.3775
14.5506
15.457
16.0018
16.0225
15.9982
15.8741
15.7667
15.6586
15.5889
15.5507
-70.9631
-160.557
131.309
132.006
122.137
-6.77407
-5.04639
6.97151
12.9921
15.3404
15.8018
16.302
16.0026
15.9269
15.7229
15.5694
15.442
15.3592
15.3149
-17.6025
-65.2636
-99.4432
-96.982
-151.004
-53.2697
-28.0904
3.4791
15.3574
15.8078
16.1894
16.3225
15.9282
15.7648
15.5382
15.3496
15.206
15.1098
15.0605
-14.3768
-54.182
-190.817
-187.258
-1.93416
20.7717
12.7424
17.5985
17.0569
16.2094
16.4142
16.7025
15.9039
15.6431
15.3455
15.115
14.9465
14.8365
14.7812
-12.0473
-51.9192
-150.473
-74.1405
91.2912
40.9703
20.3498
19.1138
16.8073
16.5926
16.527
16.4981
15.7142
15.3956
15.1008
14.8457
14.6612
14.5374
14.4782
-12.0399
-42.4163
-138.878
5.1819
78.4611
36.5333
19.5435
15.821
16.0386
16.4858
16.3392
16.2309
15.487
15.1186
14.7919
14.5408
14.3392
14.2114
14.147
-11.1558
-24.5262
-72.2445
-14.111
30.0632
20.7654
14.4422
15.1561
16.3122
16.1083
15.713
15.5476
15.4661
14.7818
14.4503
14.2008
13.9855
13.8446
13.7802
-11.0511
-20.1097
-54.8301
-18.1023
32.1366
12.5528
16.5052
15.7117
15.8887
15.7186
15.2607
15.1886
15.0791
14.4009
14.0277
13.8419
13.6064
13.4531
13.3879
-10.7562
-18.5547
-43.9024
22.4483
16.9232
19.3
17.541
15.2758
15.3368
15.2714
14.8596
14.8229
14.3745
13.9339
13.6273
13.3375
13.1897
13.0236
12.9851
-10.4422
-18.1398
-46.2975
23.1234
27.9699
15.7221
15.2675
15.9593
15.6596
15.0257
14.4264
14.1944
13.9931
13.5047
13.1656
12.9109
12.7051
12.5888
12.5237
-9.86893
-17.2659
-43.4909
15.8708
20.8665
19.9733
16.9659
16.5049
15.7372
14.9368
14.2282
13.6007
13.3116
12.9203
12.6976
12.4021
12.208
12.1106
12.0458
-9.51634
-14.3934
-31.6161
-3.73413
11.8711
19.8563
18.4828
17.2192
15.8386
14.2384
13.3363
13.0347
12.7671
12.394
12.0938
11.8902
11.7132
11.5953
11.5312
-9.27759
-11.5775
-16.5794
-0.768032
19.156
17.1072
19.2655
17.3571
14.3017
13.5039
12.9709
12.4767
12.3864
11.7599
11.3809
11.3237
11.1216
11.0468
10.9687
-8.83843
-10.3631
-15.3762
1.78915
29.0009
20.7624
19.1213
16.0261
13.6987
13.0943
12.7687
11.7792
11.7696
11.163
10.7946
10.7129
10.4683
10.4025
10.3438
-8.65503
-9.98758
-13.8627
8.78859
28.0027
20.7782
19.5804
17.6041
14.1447
12.2124
11.3961
10.8646
11.0282
10.5629
10.2036
10.0801
9.80829
9.73852
9.69914
-8.71191
-10.8949
-18.013
8.0122
25.0036
18.0278
18.0917
16.0715
13.4092
10.9111
10.488
9.81777
9.67877
9.74604
9.57025
9.36195
9.18577
9.11424
9.08407
-8.64911
-10.6916
-17.286
-0.727309
3.09036
12.7033
16.512
11.5632
9.04594
8.11678
9.10918
8.81366
8.86023
8.77802
8.79905
8.62121
8.57487
8.51541
8.47217
-8.53632
-10.4152
-16.2576
3.44244
4.84744
14.9808
15.0153
11.2965
5.68894
6.62272
7.48444
7.59427
7.78416
7.5835
7.71585
7.82745
7.91625
7.88572
7.85861
-8.26762
-10.2106
-16.3408
3.43702
12.8826
14.8772
14.3889
10.6985
7.77651
5.20675
5.24889
5.37423
5.97309
6.17181
6.5454
7.03301
7.25282
7.28781
7.29919
-8.29001
-10.0011
-14.5279
4.56623
13.8299
14.0912
11.5331
8.48716
4.70791
0.337315
-0.0320064
2.37264
4.29365
5.02203
5.5146
6.17754
6.50702
6.68059
6.72055
-8.20027
-9.13871
-9.65046
9.07092
16.2517
11.1895
7.47428
5.25421
0.693308
-1.98449
-5.41824
-0.387387
2.04422
4.07072
4.77172
5.42249
5.86201
6.08982
6.11773
-8.16222
-7.2277
0.966219
13.93
25.6665
4.89275
-1.14333
-1.5266
-4.88838
0.13996
-1.70875
-0.161529
0.950091
2.77193
4.12378
4.82603
5.36403
5.48746
5.53904
-11.3954
-9.69909
-8.60217
-14.6477
-8.22812
-5.57903
-12.7268
-9.47504
-4.73444
-6.61422
-1.53321
2.14018
-1.65719
1.85709
3.39948
4.29977
4.62786
4.80653
4.91368
-15.6176
-17.2721
-13.7672
6.36232
-16.8113
-29.6463
-20.6894
-14.4699
-12.9947
-10.5212
-0.0541141
-2.52763
1.23402
0.341446
2.74814
4.15396
4.21733
4.402
4.40564
-20.3467
-22.8908
-28.7026
-36.0138
-46.8844
-33.2758
-18.8515
-16.3077
-15.785
-10.3599
-7.50315
-3.34112
-1.61029
0.754134
2.72591
3.50749
3.62712
3.61698
3.74358
-25.9282
-30.5221
-35.8751
-41.8483
-36.1809
-27.7688
-12.0547
-7.34974
-7.2109
-4.31294
-1.52821
0.281342
-1.73451
0.84826
1.66639
1.79925
2.08909
1.89432
1.96272
-29.1927
-36.5474
-39.4092
-42.8489
-23.8378
-19.6599
-9.51525
-9.57259
-5.74229
-5.42763
-0.0338619
0.23668
-0.292266
0.140103
0.481647
0.743228
0.814198
1.03895
1.1468
-27.8633
-31.1527
-41.9902
-38.8184
-24.0277
-13.8511
-5.49146
-9.50943
-12.4053
-6.14888
-2.12923
-0.83875
-1.06778
-0.757476
-0.405253
-0.222965
-0.107092
-0.0128411
0.037122
-21.7528
-24.0493
-29.0894
-24.5853
-15.9816
-8.00048
0.482063
-1.31236
-4.00957
-4.85439
-3.78781
-2.91399
-1.82376
-1.80029
-1.39513
-1.22948
-1.12913
-1.04559
-1.01654
-16.9744
-18.8574
-20.6287
-16.9302
-10.7733
-5.47784
-2.19908
-3.68593
-4.16792
-4.66382
-3.74893
-3.20152
-2.95415
-2.65119
-2.33806
-2.21813
-2.11806
-2.04222
-2.02821
-13.3457
-14.5544
-16.265
-15.6716
-11.8512
-9.01217
-8.033
-6.73334
-4.88949
-4.56332
-4.07543
-3.75913
-3.56538
-3.39704
-3.25035
-3.17297
-3.11103
-3.03503
-3.02394
-10.7183
-11.1769
-11.0802
-10.885
-9.58683
-8.13718
-6.44345
-5.60019
-5.17131
-4.94752
-4.66207
-4.49097
-4.342
-4.22406
-4.11059
-4.04574
-3.99682
-3.89799
-3.90046
-8.66673
-8.54883
-7.90921
-7.46755
-7.18544
-6.88023
-6.0152
-5.8463
-5.70922
-5.53131
-5.34745
-5.2488
-5.14778
-5.03156
-4.91546
-4.82954
-4.75687
-4.66481
-4.62704
-6.8987
-6.53093
-6.18362
-5.97921
-6.14982
-6.32725
-6.17346
-6.15578
-6.11011
-6.06487
-5.92654
-5.86837
-5.79993
-5.72682
-5.63128
-5.53261
-5.43732
-5.37005
-5.35924
-5.88179
-5.7051
-5.74912
-5.95579
-6.38393
-6.52704
-6.7451
-6.84911
-6.84538
-6.81646
-6.74287
-6.68695
-6.62435
-6.55187
-6.47361
-6.4034
-6.35217
-6.31406
-6.20573
)
;

boundaryField
{
    leftWall
    {
        type            calculated;
        value           nonuniform List<scalar> 
50
(
1700.37
1640.75
1580.25
1519.12
1456.99
1394.4
1330.7
1266.75
1163.76
1024.52
880.082
727.933
577.302
425.686
279.596
165.22
54.4286
2.10656
-3.85431
-4.55312
-5.1184
-5.25038
-5.33993
-5.88955
-5.49342
-5.59711
-5.72331
-5.84603
-5.74957
-6.3809
-6.81165
-6.90914
-7.0656
-7.16095
-7.26783
-7.32685
-7.411
-7.46875
-7.51614
-7.54413
-7.52821
-7.43413
-7.2797
-7.10015
-7.02525
-7.11469
-7.26462
-7.35445
-7.11526
-6.30158
)
;
    }
    rightWall
    {
        type            calculated;
        value           nonuniform List<scalar> 
50
(
17.3926
17.3324
17.2709
17.2081
17.144
17.0785
17.0116
16.943
16.8334
16.6777
16.514
16.3431
16.1626
15.9725
15.7681
15.5507
15.3149
15.0605
14.7812
14.4782
14.147
13.7802
13.3879
12.9851
12.5237
12.0458
11.5312
10.9687
10.3438
9.69914
9.08407
8.47217
7.85861
7.29919
6.72055
6.11773
5.53904
4.91368
4.40564
3.74358
1.96272
1.1468
0.037122
-1.01654
-2.02821
-3.02394
-3.90046
-4.62704
-5.35924
-6.20573
)
;
    }
    lowerWall
    {
        type            calculated;
        value           nonuniform List<scalar> 
62
(
1729.8
1734.01
1737.6
1736.9
1751.15
1746.98
1767.41
1770
1789.61
1816.37
1874.43
1950.7
1913.04
1936.78
1953.21
1969.11
2038.85
1948.49
2072.31
2176.49
2341.88
2409.32
2407.32
2378.86
2317.89
2218.96
2109.81
1958.22
1795.19
1600.93
1325.23
-57.7961
-289.037
-29.2481
59.1796
18.1852
18.127
18.0635
17.9774
17.9081
17.8819
17.8543
17.8622
18.2146
18.1953
18.1659
18.1461
18.1035
18.0559
17.9947
17.9294
17.8617
17.8024
17.7417
17.6919
17.6361
17.5887
17.5455
17.486
17.469
17.4328
17.422
)
;
    }
    atmosphere
    {
        type            calculated;
        value           nonuniform List<scalar> 
46
(
-6.65403
-6.66042
-6.66434
-6.66995
-6.67778
-6.68869
-6.70344
-6.72588
-6.75561
-6.7858
-6.83933
-6.90459
-7.03768
-7.16192
-7.53664
-7.55792
-7.60175
-7.51902
-7.35516
-7.00611
-6.88067
-6.95864
-6.52968
-6.50087
-6.36213
-6.13207
-5.97896
-5.77021
-5.72904
-5.7359
-5.79583
-5.85449
-5.78582
-5.78029
-5.757
-5.74003
-5.73197
-5.72954
-5.72909
-5.72904
-5.72904
-5.72904
-5.72904
-5.72904
-5.72904
-5.72904
)
;
    }
    defaultFaces
    {
        type            empty;
    }
}


// ************************************************************************* //
