/*--------------------------------*- C++ -*----------------------------------*\
| =========                 |                                                 |
| \\      /  F ield         | foam-extend: Open Source CFD                    |
|  \\    /   O peration     | Version:     4.1                                |
|   \\  /    A nd           | Web:         http://www.foam-extend.org         |
|    \\/     M anipulation  |                                                 |
\*---------------------------------------------------------------------------*/
FoamFile
{
    version     2.0;
    format      ascii;
    class       volScalarField;
    location    "0.2";
    object      pd;
}
// * * * * * * * * * * * * * * * * * * * * * * * * * * * * * * * * * * * * * //

dimensions      [1 -1 -2 0 0 0 0];

internalField   nonuniform List<scalar> 
2268
(
1729.8
1734.01
1737.6
1736.9
1751.15
1746.98
1767.41
1770
1789.61
1816.37
1874.43
1950.7
1913.04
1936.78
1953.21
1969.11
2038.85
1948.49
2072.31
2176.49
2341.88
2409.32
2407.32
1729.04
1733.21
1736.57
1736.15
1749.85
1745.53
1766.69
1768.89
1788.63
1802.75
1917.56
1927.68
1899.53
1927.18
1950.2
1962.64
2078.32
1900.78
2063.24
2111.12
2336.16
2416.35
2403.19
1727.39
1731.6
1734.67
1734.91
1747.54
1743.23
1764.64
1765.67
1786.19
1797.32
1900.53
1903.96
1895.84
1925.9
1944.87
1959.06
2020.88
1945.85
2069.37
2177.82
2269.48
2346.91
2360.83
1725.12
1729.21
1731.51
1732.89
1743.96
1739.7
1763.06
1757.87
1782.29
1843.69
1863.93
1890.52
1882.95
1915.2
1933.43
1952.25
1990.07
1963.39
2071.46
2151.95
2211.62
2370.97
2307.98
1721.85
1725.97
1727.78
1730.12
1739.97
1735.73
1758.2
1767.23
1761.5
1848.38
1840.48
1873.83
1873.46
1908.38
1923.64
1941.07
1976.35
1986.39
2070.87
2149.14
2139.1
2302.83
2212.6
1718.12
1721.98
1722.57
1726.36
1733.38
1732.1
1744.72
1745.17
1791.66
1824.51
1824.99
1860.48
1858.74
1899.2
1911.34
1922.39
1966.06
1976.15
2028.12
2164.72
2022.67
2161.62
2105.85
1713.29
1717.11
1717.37
1722.36
1728.07
1719.68
1757.81
1728.02
1785.07
1805.49
1812.98
1842.23
1837.44
1885.62
1896.95
1904.64
1946.26
1963.47
1983.18
2147.67
1998.49
1946.91
1968.35
1708.19
1711.63
1709.89
1712.4
1715.99
1725.31
1726.81
1736.41
1768.06
1786.08
1797.62
1824.36
1829.77
1873.31
1870.84
1885.34
1915.84
1943.28
1985.2
2077.05
1903.58
1794.86
1750.72
18.2146
18.1953
18.1659
18.1461
18.1035
18.0559
17.9947
17.9294
17.8617
17.8024
17.7417
17.6919
17.6361
17.5887
17.5455
17.486
17.469
17.4328
17.422
18.224
18.1968
18.1641
18.1511
18.1061
18.057
17.9953
17.9284
17.8598
17.8009
17.7392
17.6894
17.6354
17.5901
17.5409
17.4881
17.4633
17.4315
17.4206
18.2759
18.2205
18.1646
18.1587
18.1117
18.0593
17.997
17.9271
17.8613
17.8008
17.7436
17.688
17.6344
17.5911
17.5392
17.4874
17.459
17.4293
17.418
18.336
18.2849
18.1859
18.163
18.1217
18.0628
18.0005
17.9227
17.8544
17.7964
17.737
17.6873
17.6289
17.5864
17.5336
17.4859
17.4536
17.4257
17.4141
18.173
18.2889
18.2343
18.1838
18.1255
18.0631
17.9981
17.9165
17.859
17.7926
17.739
17.6721
17.627
17.5856
17.5291
17.4824
17.4475
17.4207
17.4089
18.2057
18.1409
18.265
18.213
18.1308
18.0716
17.9973
17.9152
17.8429
17.7826
17.728
17.6681
17.617
17.5777
17.5232
17.4782
17.4406
17.4142
17.4023
18.2369
18.1288
18.1509
18.259
18.1512
18.0705
17.997
17.9038
17.8406
17.7811
17.7247
17.6602
17.6128
17.5708
17.5179
17.473
17.4324
17.4065
17.3941
18.3036
18.1129
18.1905
18.234
18.1826
18.0741
17.9949
17.8787
17.8255
17.7718
17.7152
17.6486
17.6
17.5667
17.513
17.4663
17.4234
17.3978
17.3844
1697.22
1701.88
1694.53
1718.37
1710.09
1674.73
1736.97
1709.92
1745.23
1760.02
1767.61
1785.62
1755.5
1867.15
1833.65
1837.8
1880.1
1913.36
1947.79
1966.9
1955.79
1159.63
826.908
1683.15
1684.71
1679.69
1668.82
1692.15
1676.29
1691.67
1691.44
1706.01
1717.01
1728.7
1732.15
1714.75
1784.79
1744.31
1759.98
1761.27
1774.55
1792.54
1964.61
1257.46
814.495
604.012
1663.55
1661.35
1658.65
1651.45
1659.4
1647.94
1657.17
1649.67
1659.86
1667.83
1665.74
1649.45
1626.95
1699.14
1651.55
1639.53
1590.27
1582
1621.17
1544.45
1452.06
639.972
1180.22
1634.53
1631.79
1631.74
1622.03
1624.37
1613.63
1611.07
1601.66
1600.18
1599.17
1583.71
1506.24
1500.3
1553.63
1426.38
1347.85
1285.15
1217.75
1235.5
1244.81
1104.96
720.68
832.785
1600.15
1594.98
1593.67
1580.04
1578.22
1558.91
1552.35
1528.87
1516.77
1485.95
1413.28
1271.57
1325.4
1237.28
1010.22
881.068
731.858
662.936
681.438
783.119
832.708
553.887
553.951
1543
1537.05
1531.92
1516.93
1505.4
1479.69
1450.55
1422.9
1377.19
1278.53
962.417
795.394
911.486
741.643
498.041
378.527
251.811
241.723
224.923
290.339
419.344
343.918
658.658
1432.3
1422.6
1412.1
1390.73
1370.91
1336.5
1285.63
1258.93
1155.89
846.632
469.283
349.12
446.542
337.868
178.865
95.7044
48.8007
81.1888
69.5636
68.7419
122.621
169.613
240.463
1206.07
1189.38
1166.13
1128.76
1088.66
1042.18
1000.07
1009.41
803.269
427.96
224.68
164.601
195.651
101.071
43.7027
14.7269
2.76483
17.0802
15.6753
9.3663
21.5468
30.738
47.3388
706.176
690.475
670.558
634.833
594.513
558.321
580.467
631.908
424.25
219.261
130.238
89.4168
70.0448
22.887
1.97
-4.04296
-3.4812
-1.53696
-1.10139
-2.76436
-1.59392
1.55875
12.0191
267.014
263.013
255.897
241
223.259
210.385
241.037
292.387
204.027
143.102
83.5489
40.9954
20.7796
0.739688
-3.30054
-3.15455
-3.28534
-3.53936
-3.86305
-4.10315
-4.20894
-3.69435
-0.472523
86.8267
84.8622
82.1127
76.0354
68.0998
59.251
62.6221
80.3435
71.7243
59.4018
33.6192
14.0881
3.14575
-3.3131
-3.29565
-3.45578
-3.43808
-3.51324
-3.82395
-4.11034
-4.10949
-4.48596
-3.6183
23.3386
21.9987
20.7312
18.2863
14.7737
9.17677
6.27687
10.6118
20.8124
32.1336
25.3242
8.01162
-0.491051
-3.1124
-3.5687
-3.77216
-3.91263
-3.90492
-3.87604
-4.13494
-4.63417
-4.64407
-4.3299
1.60088
1.27721
0.890709
0.195533
-0.897342
-2.9405
-3.00502
-3.2747
0.545376
10.4493
10.945
3.03224
-2.58662
-3.61698
-3.54234
-3.52252
-3.80067
-4.21483
-4.03343
-4.12932
-4.58761
-4.91726
-4.99732
-3.08938
-3.18061
-3.19984
-3.20025
-3.14951
-2.91593
-3.01155
-3.10132
-3.27223
-0.6885
1.86563
-1.67211
-3.5126
-3.67759
-3.63988
-3.85878
-3.95815
-4.45541
-4.73772
-4.56416
-4.77644
-5.13265
-5.59576
-3.05374
-2.97678
-2.9782
-3.04692
-3.12739
-3.35426
-3.20922
-3.41049
-3.55504
-3.57608
-3.57149
-3.77482
-3.89185
-3.84065
-3.88684
-4.18916
-3.75389
-4.14282
-4.61035
-4.7666
-4.92475
-5.05802
-5.49231
-3.47816
-3.34061
-3.2732
-3.24816
-3.26208
-3.32376
-3.3244
-3.40353
-3.50815
-3.53413
-3.74231
-3.89842
-3.87769
-3.91943
-4.04468
-3.90903
-4.11826
-4.03085
-4.17896
-4.39595
-4.97008
-5.34544
-5.20787
-2.95684
-3.32452
-3.3615
-3.30923
-3.35945
-3.37181
-3.3381
-3.47661
-3.52536
-3.56923
-3.67336
-3.70594
-3.80742
-3.69415
-3.82799
-4.18631
-4.66066
-4.48308
-4.56804
-4.77809
-4.90117
-5.16599
-5.07429
-2.93534
-2.81038
-2.86741
-3.1903
-3.30572
-3.46752
-3.56124
-3.61363
-3.6632
-3.56574
-3.62804
-3.77062
-3.67442
-3.90481
-4.24018
-4.26216
-4.24386
-4.28246
-4.20131
-4.72328
-4.9521
-5.45528
-5.22218
-2.91418
-2.93142
-2.9987
-3.30028
-2.93168
-3.30343
-3.41925
-3.19826
-3.52474
-3.72041
-3.68556
-3.78051
-4.04774
-4.06263
-3.95931
-3.89179
-3.8675
-4.31423
-4.36217
-4.57548
-4.75437
-4.70215
-5.18182
-2.91634
-2.87498
-2.93418
-2.8144
-2.94139
-2.92016
-3.28467
-3.24159
-3.18906
-3.61279
-3.60586
-3.46783
-3.70548
-3.60779
-3.69394
-3.91396
-3.94917
-4.22921
-4.34174
-4.5212
-4.74566
-4.88956
-5.32191
-2.70776
-2.78979
-2.84019
-2.74489
-2.84503
-2.91489
-2.82993
-3.10497
-3.11376
-3.06615
-3.17068
-3.23365
-3.31413
-3.41595
-3.71952
-3.78665
-3.96718
-4.27496
-4.36857
-4.61063
-4.70647
-4.68025
-4.87071
-3.21779
-2.86899
-2.83489
-3.17704
-2.81068
-2.93864
-2.82165
-2.89584
-2.87531
-2.93265
-3.01036
-3.1292
-3.21508
-3.48871
-3.70336
-3.73428
-3.96139
-4.17638
-4.03201
-4.11572
-4.69641
-5.14908
-5.18861
-3.52391
-3.71989
-3.66114
-3.50277
-3.65
-3.66472
-3.62437
-3.61464
-3.56647
-3.14962
-3.54669
-3.53598
-3.29267
-3.34623
-3.59418
-3.90313
-3.75364
-4.11314
-4.61217
-4.46977
-4.53396
-4.93822
-4.67941
-3.4962
-3.53235
-3.52664
-3.51978
-3.52275
-3.57628
-3.59834
-3.61191
-3.80068
-3.99722
-3.79205
-3.87197
-4.1177
-3.84992
-3.92838
-4.68335
-4.53091
-4.36538
-4.79259
-5.28523
-5.75553
-5.2772
-4.96978
-3.52746
-3.54536
-3.54077
-3.55208
-3.54141
-3.56913
-3.59644
-3.7169
-3.74397
-3.76085
-3.88377
-3.84855
-3.86375
-4.07416
-4.10853
-4.31617
-4.54504
-4.82154
-4.73292
-4.90768
-5.52842
-5.2679
-5.0883
-3.49762
-3.50114
-3.53179
-3.538
-3.54749
-3.55998
-3.61019
-3.69188
-3.7437
-3.81684
-3.89573
-3.98144
-4.08334
-4.13494
-4.32052
-4.2551
-4.30065
-4.50977
-4.82559
-5.36554
-5.57909
-5.43302
-5.35714
-3.4793
-3.49018
-3.49875
-3.50651
-3.51312
-3.54749
-3.58927
-3.65522
-3.718
-3.80125
-3.87628
-4.00739
-4.0966
-4.2614
-4.29134
-4.47085
-4.69792
-4.40423
-4.71418
-5.12365
-5.76604
-5.47476
-5.47963
-3.41313
-3.40996
-3.43637
-3.45919
-3.51809
-3.52177
-3.55677
-3.61236
-3.66522
-3.74385
-3.82569
-3.92256
-4.00296
-4.14026
-4.15564
-4.21339
-5.44055
-4.72693
-4.6685
-5.2476
-6.35407
-6.1347
-5.8475
-3.37209
-3.37141
-3.3874
-3.40849
-3.44715
-3.47256
-3.49622
-3.54018
-3.59453
-3.66625
-3.74491
-3.82546
-3.90659
-3.9089
-4.2387
-4.71985
-4.93788
-5.056
-5.86373
-4.613
-6.0675
-7.055
-6.71897
-3.30464
-3.30323
-3.31746
-3.33088
-3.37652
-3.4012
-3.42339
-3.45983
-3.50671
-3.57642
-3.65547
-3.76616
-3.86306
-3.95107
-4.20315
-4.38968
-4.37968
-5.67407
-5.60161
-5.08414
-5.15135
-6.50002
-7.54554
-3.22683
-3.23646
-3.25045
-3.26357
-3.30503
-3.31993
-3.32582
-3.35438
-3.39378
-3.44426
-3.50928
-3.60391
-3.66189
-3.83875
-3.9861
-4.21296
-4.78696
-5.4709
-5.45224
-5.11277
-5.73896
-7.26454
-8.99157
-3.12963
-3.1544
-3.17717
-3.20333
-3.20893
-3.20426
-3.20058
-3.21637
-3.23774
-3.29102
-3.35423
-3.45396
-3.52957
-3.61641
-3.72596
-4.16093
-4.76665
-5.56831
-5.81586
-6.19833
-7.78956
-8.13568
-10.1531
-2.98852
-3.02731
-3.04985
-3.08453
-3.06826
-3.05259
-3.04039
-3.04365
-3.04657
-3.1339
-3.18716
-3.28318
-3.41126
-3.46501
-3.65443
-3.86539
-4.38169
-4.68107
-5.98877
-7.44574
-7.67655
-8.46105
-8.49211
-2.76924
-2.81933
-2.8456
-2.86734
-2.8506
-2.83801
-2.84125
-2.87642
-2.91213
-3.00769
-3.07288
-3.16898
-3.21613
-3.32577
-3.54942
-3.74481
-4.18986
-4.94146
-5.85026
-6.60821
-6.03788
-8.15101
-8.43794
-2.48961
-2.5192
-2.56771
-2.57538
-2.54924
-2.52851
-2.57234
-2.70917
-2.84631
-2.89231
-2.95196
-3.07193
-3.06178
-3.1831
-3.42812
-3.79166
-4.01144
-4.51254
-4.40994
-5.64776
-6.09618
-7.33026
-8.22346
-2.18488
-2.19485
-2.24955
-2.29193
-2.27037
-2.25284
-2.33834
-2.51473
-2.70595
-2.72866
-2.75145
-2.80084
-2.90321
-2.95081
-3.33299
-3.75412
-3.78431
-4.1143
-4.33968
-5.10484
-6.30437
-5.33916
-8.08023
-1.98478
-1.99214
-2.02599
-2.07593
-2.10129
-2.14661
-2.25435
-2.36797
-2.51953
-2.56809
-2.61497
-2.5969
-2.6413
-2.672
-3.17794
-3.328
-3.39829
-3.67371
-3.93833
-4.50834
-5.19484
-5.3818
-6.10653
-1.94903
-1.9358
-1.93001
-1.91945
-1.98634
-2.11268
-2.22207
-2.27639
-2.31452
-2.36149
-2.5048
-2.56363
-2.77765
-3.39617
-2.90792
-2.9576
-3.07359
-3.24003
-3.46271
-3.87018
-4.27809
-4.54348
-4.74785
-1.97376
-1.94189
-1.91029
-1.89487
-1.9685
-2.09153
-2.16529
-2.16021
-2.15737
-2.19948
-2.27051
-2.33005
-2.51265
-2.77178
-2.50885
-2.63051
-2.6832
-2.76767
-2.95177
-3.25754
-3.49518
-3.71492
-3.87969
-1.9384
-1.91505
-1.8904
-1.90938
-1.96793
-2.03657
-2.07276
-2.06329
-2.10182
-2.10686
-2.13936
-2.20873
-2.30112
-2.32578
-2.0508
-2.13119
-2.16543
-2.24269
-2.45269
-2.66475
-2.82402
-2.843
-2.83131
-1.57401
-1.5665
-1.55911
-1.57409
-1.60723
-1.6434
-1.66725
-1.67421
-1.66883
-1.75137
-1.83372
-1.87988
-1.98329
-1.91042
-1.86551
-1.98716
-2.179
-2.16059
-2.22124
-2.28619
-2.20347
-2.00893
-1.95982
-0.635135
-0.634662
-0.633758
-0.642325
-0.657879
-0.672066
-0.68684
-0.710847
-0.727031
-0.777592
-0.883994
-0.987741
-1.14412
-1.47664
-2.36827
-2.42147
-2.63755
-2.53152
-2.30288
-1.47309
-1.24538
-1.76743
-1.03273
406.465
165.891
354.982
278.048
952.468
1012.99
1131.62
936.739
1030.14
889.326
1366.99
1255.04
1027.84
1082.21
1230.68
1321.97
1155.02
1172.84
1204.71
1256.09
811.618
862.383
931.132
935.18
337.109
401.896
467.289
485.532
116.502
144.768
175.995
223.53
42.9975
64.8788
82.6285
115.459
8.39288
19.2526
36.9772
57.204
-2.10469
0.649897
8.03638
17.1401
-3.7427
-3.00955
-1.14543
4.64768
-5.03223
-4.87335
-4.80256
-2.96315
-5.83224
-6.12829
-6.61497
-6.96943
-5.84938
-6.13977
-6.67268
-6.87355
-5.43781
-5.68441
-6.33491
-6.7303
-5.26007
-5.50445
-6.16662
-6.46731
-5.19327
-5.30771
-5.60487
-6.19074
-5.18786
-5.36626
-5.37121
-5.96659
-4.99931
-4.92701
-5.43164
-5.6165
-5.04472
-5.27043
-5.44134
-5.53305
-5.10471
-5.07948
-4.9632
-5.12376
-5.10286
-5.20847
-5.23418
-5.34634
-5.03336
-4.99453
-4.98273
-4.96499
-5.08516
-4.99619
-4.87321
-4.79159
-5.26324
-5.13702
-4.92389
-4.723
-5.39725
-5.22119
-4.95206
-4.63733
-5.72346
-5.4296
-4.939
-4.31265
-6.49663
-6.31304
-6.0034
-4.98153
-7.32473
-7.32244
-7.0527
-5.93462
-9.18143
-9.10081
-8.84761
-7.99756
-11.8407
-12.4933
-12.2289
-10.9095
-11.4908
-13.2395
-14.0292
-13.5819
-10.9139
-12.6788
-13.7466
-13.5212
-10.1158
-11.5143
-12.5356
-12.5474
-8.51528
-9.26384
-10.5308
-11.1755
-7.40697
-8.53223
-9.17885
-9.57276
-5.89235
-6.36583
-6.45102
-7.07625
-3.74428
-4.41911
-4.68917
-5.10475
-2.9573
-3.21896
-3.52543
-3.37729
-2.07756
-1.87098
-1.82127
-1.68565
-0.918317
-0.943533
-0.717715
-0.458079
30.3438
17.8394
18.1804
18.3239
18.2514
18.1791
18.0361
17.862
17.8141
17.7379
17.6985
17.6422
17.5954
17.5446
17.5029
17.4541
17.4075
17.3826
17.3669
352.589
98.9431
23.2492
18.0271
18.166
17.6961
17.6539
17.7636
17.7654
17.7226
17.6663
17.6032
17.5844
17.5267
17.4888
17.4305
17.3837
17.3542
17.3364
668.417
647.051
229.644
57.288
23.156
18.8942
18.5127
18.0055
17.8256
17.6702
17.6455
17.603
17.558
17.4982
17.4681
17.4021
17.3528
17.3183
17.2978
1005.61
1113.64
587.318
233.207
52.8773
17.8317
16.9999
17.2388
17.6484
17.5704
17.5637
17.5377
17.5255
17.4655
17.4767
17.3577
17.3172
17.2755
17.2522
1236.13
546.406
712.066
565.98
239.45
41.2294
22.052
18.6463
17.8298
17.5972
17.5243
17.5228
17.5018
17.4438
17.4384
17.3235
17.2684
17.2245
17.1969
1169.84
504.658
189.427
386.043
256.319
79.4554
28.905
18.8449
18.108
17.3815
17.451
17.5031
17.4715
17.4356
17.3473
17.3456
17.2153
17.1647
17.1319
497.229
746.044
409.68
765.974
539.669
160.048
39.9897
19.0258
16.8781
16.5388
17.085
17.4379
17.426
17.4886
17.302
17.241
17.144
17.0865
17.0527
191.851
275.699
1166.71
1188.53
703.232
236.428
53.8584
24.4797
18.7598
16.9059
16.9586
17.4135
17.4323
17.408
17.2839
17.1765
17.0685
16.9987
16.9605
109.328
248.244
882.832
897.729
699.017
234.808
74.7351
38.0468
24.5409
19.4203
17.7458
17.8751
17.5391
17.4619
17.2579
17.1045
16.9771
16.8943
16.85
67.725
188.352
553.653
609.306
408.873
220.915
82.6956
41.2833
26.2784
18.8393
17.9557
17.9846
17.5884
17.425
17.1984
17.0099
16.8663
16.7701
16.7207
20.4554
79.585
321.621
405.233
469.287
263.87
111.069
52.0229
27.3838
19.6421
18.4127
18.5031
17.6898
17.4285
17.1309
16.9004
16.7319
16.6219
16.5666
5.71718
31.1516
245.462
355.964
386.69
173.918
73.7991
37.2452
22.9554
19.2905
18.5334
18.4152
17.625
17.3062
17.0114
16.7563
16.5718
16.448
16.3888
-3.93463
5.92392
145.019
334.122
293.93
108.349
43.5147
22.4991
18.9489
18.6646
18.3898
18.2674
17.5228
17.1544
16.8277
16.5766
16.375
16.2472
16.1828
-8.61271
5.61045
140.888
260.173
209.841
74.0113
27.163
19.1183
18.6688
18.2885
17.8746
17.7086
17.627
16.9428
16.6113
16.3618
16.1465
16.0056
15.9412
-8.76486
1.31099
106.612
225.225
219.454
84.5448
28.4166
19.0984
18.2516
18.0122
17.5469
17.4748
17.3653
16.6871
16.3139
16.1281
15.8926
15.7393
15.674
-8.34481
0.0528627
85.4694
245.876
202.261
108.715
39.6689
20.0157
17.9667
17.7607
17.2849
17.2365
16.7859
16.3453
16.0387
15.7488
15.6011
15.435
15.3965
-7.42626
2.33994
79.1839
233.725
197.982
97.3807
37.2837
20.448
18.5116
17.9849
17.0855
16.7532
16.5318
16.0413
15.7022
15.4475
15.2416
15.1254
15.0603
-7.1909
-3.74487
61.5323
212.304
185.905
98.9661
36.0054
20.9102
19.4081
19.0927
17.3901
16.347
15.9818
15.5821
15.3594
15.0638
14.8698
14.7724
14.7076
-6.72937
-5.96498
41.3098
170.683
170.6
101.588
37.0161
22.2067
21.5703
18.9645
16.612
15.9028
15.562
15.181
14.8808
14.6771
14.5002
14.3823
14.3181
-6.36543
-2.29583
48.7605
166.471
168.408
90.6381
35.2607
23.8373
21.7427
17.9537
16.1866
15.4322
15.3026
14.6721
14.2931
14.2359
14.0337
13.959
13.8808
-5.69796
0.31373
49.7509
164.13
168.087
82.0909
31.5945
23.3239
19.9467
16.7873
15.927
14.8332
14.8072
14.2004
13.8319
13.7503
13.5057
13.4399
13.3811
-5.21506
2.27849
55.348
167.15
154.155
70.3324
29.7674
25.9909
21.4021
16.3269
14.6872
14.0311
14.1908
13.7254
13.3661
13.2427
12.9708
12.9011
12.8617
-5.15119
0.258503
47.0512
156.197
145.617
64.4067
28.1828
26.4771
23.9172
16.9403
14.2014
13.1234
12.9665
13.0338
12.858
12.6497
12.4735
12.402
12.3718
-4.95855
0.594371
50.1401
142.156
116.529
54.7557
26.2159
22.9684
22.309
15.34
13.0449
12.2532
12.2732
12.191
12.212
12.0341
11.9878
11.9284
11.8851
-4.92044
-0.980736
50.9737
141.094
112.096
56.2632
24.2756
22.7464
18.5715
14.05
11.5847
11.2016
11.34
11.1319
11.254
11.3656
11.4544
11.4239
11.3968
-4.55374
-1.7421
48.1
134.248
112.067
54.2217
24.7526
22.0781
21.7859
13.8188
10.35
9.62242
9.88744
9.94609
10.2171
10.6963
10.9162
10.9511
10.9625
-4.32612
-1.89296
48.3824
126.354
98.3926
46.4886
21.9144
19.3339
18.7855
12.158
9.0758
9.5627
9.96459
9.49661
9.37495
9.96637
10.2955
10.4691
10.5091
-3.84505
-1.02533
52.7352
123.452
94.6645
39.0951
17.6871
15.7557
14.6883
11.8695
8.54986
13.8338
13.2031
9.97949
8.88695
9.34157
9.77573
10.0035
10.0314
-3.24121
0.731436
56.2022
119.943
105.023
37.0396
10.7536
9.59168
8.54482
15.4377
14.7147
16.9642
13.6053
8.9781
8.46831
8.87673
9.40294
9.52637
9.57796
-4.62531
-1.34513
23.1328
79.5444
71.4966
34.6598
5.82701
3.80123
9.85883
10.4016
17.4037
23.1469
17.6148
13.3639
9.24837
8.64717
8.8
8.97064
9.07779
-4.30466
-5.78804
9.6406
91.2146
62.7689
24.8208
9.54684
4.62744
5.74484
11.1028
23.7672
23.8323
25.3704
16.8439
11.1764
9.30483
8.57767
8.69481
8.69494
-6.75714
-6.42888
-4.04607
32.9434
29.9586
32.4762
28.8725
16.4146
13.9172
22.0044
26.3897
28.7358
23.2392
15.2673
10.2711
8.52692
8.10423
8.03333
8.15808
-9.94298
-6.35589
-6.92189
14.4841
36.7627
39.801
46.1606
40.5995
36.243
37.1175
35.448
29.478
16.5335
10.4331
7.53145
6.56777
6.65235
6.43463
6.50241
-11.6335
-4.1507
-2.0445
14.9425
47.3224
49.051
53.6595
46.3009
43.5091
37.0741
33.956
19.9403
9.27647
6.09355
5.41527
5.446
5.48208
5.70383
5.81169
-12.1049
3.31152
3.53846
22.2598
46.4234
55.2748
59.0261
47.9469
36.6494
33.3234
23.9804
11.6886
5.46502
4.35135
4.43241
4.57194
4.68319
4.77724
4.8272
-10.5756
5.35227
17.3301
37.0082
52.379
58.8177
62.3701
51.7268
36.5801
22.5319
11.4309
5.21696
3.70601
3.19412
3.52799
3.68626
3.78614
3.86969
3.89874
-9.41906
-1.52464
18.1155
37.1253
49.1156
49.2836
45.158
31.933
18.1808
8.8215
4.49792
2.70044
2.22721
2.40353
2.70334
2.82235
2.92241
2.99825
3.01226
-7.52252
-5.52462
5.3515
18.7087
27.7213
21.1623
16.4691
10.2997
6.12135
3.10031
1.89735
1.59304
1.62613
1.77059
1.91537
1.99269
2.05463
2.13064
2.14173
-5.32159
-4.9897
-0.731769
5.41258
9.04305
5.08475
4.99895
3.22125
1.73414
0.952531
0.797161
0.833057
0.952639
1.06698
1.18027
1.24512
1.29404
1.39287
1.3904
-3.24557
-3.01911
-1.48866
0.880821
2.01759
0.46115
0.953627
0.429539
0.0799609
0.00946946
0.0982879
0.172193
0.268712
0.384494
0.500595
0.586513
0.659184
0.75124
0.789015
-1.35745
-0.984401
-0.519302
0.110978
0.207185
-0.406061
-0.309792
-0.438565
-0.496097
-0.501957
-0.380882
-0.326521
-0.258648
-0.185574
-0.09003
0.00863694
0.103926
0.171203
0.182008
-0.215346
-0.0386594
-0.075893
-0.223292
-0.593411
-0.804437
-1.02797
-1.15502
-1.16807
-1.14712
-1.07593
-1.02046
-0.957911
-0.885428
-0.807169
-0.736961
-0.685732
-0.647616
-0.539284
)
;

boundaryField
{
    leftWall
    {
        type            zeroGradient;
    }
    rightWall
    {
        type            zeroGradient;
    }
    lowerWall
    {
        type            zeroGradient;
    }
    atmosphere
    {
        type            totalPressure;
        rho             rho;
        psi             none;
        gamma           1;
        p0              uniform 0;
        value           nonuniform List<scalar> 
46
(
-0.92499
-0.931376
-0.935301
-0.940911
-0.948744
-0.959652
-0.974405
-0.996836
-1.02657
-1.05676
-1.11029
-1.17555
-1.30864
-1.43288
-1.8076
-1.82888
-1.87271
-1.78998
-1.62612
-1.27707
-1.15163
-1.2296
-0.800643
-0.771832
-0.633087
-0.403022
-0.249914
-0.0411674
0
0
0
0
0
0
0
0
0
0
0
0
0
0
0
0
0
0
)
;
    }
    defaultFaces
    {
        type            empty;
    }
}


// ************************************************************************* //
