/*--------------------------------*- C++ -*----------------------------------*\
| =========                 |                                                 |
| \\      /  F ield         | foam-extend: Open Source CFD                    |
|  \\    /   O peration     | Version:     4.1                                |
|   \\  /    A nd           | Web:         http://www.foam-extend.org         |
|    \\/     M anipulation  |                                                 |
\*---------------------------------------------------------------------------*/
FoamFile
{
    version     2.0;
    format      ascii;
    class       surfaceScalarField;
    location    "0.2";
    object      phi;
}
// * * * * * * * * * * * * * * * * * * * * * * * * * * * * * * * * * * * * * //

dimensions      [0 3 -1 0 0 0 0];

internalField   nonuniform List<scalar> 
4432
(
4.01261e-06
-4.01261e-06
8.09873e-06
-4.08613e-06
1.26319e-05
-4.53314e-06
1.59647e-05
-3.33283e-06
2.11749e-05
-5.21018e-06
2.62341e-05
-5.05922e-06
3.04812e-05
-4.24704e-06
3.47161e-05
-4.23496e-06
3.77676e-05
-3.05147e-06
3.53263e-05
2.44126e-06
6.20653e-05
-2.6739e-05
6.9344e-05
-7.27867e-06
7.52674e-05
-5.92334e-06
8.03187e-05
-5.05132e-06
8.3062e-05
-2.74335e-06
8.36894e-05
-6.27319e-07
9.05053e-05
-6.81594e-06
8.59578e-05
4.54748e-06
8.09411e-05
5.01669e-06
6.2433e-05
1.85081e-05
5.20145e-05
1.04185e-05
3.39937e-05
1.80208e-05
3.39937e-05
4.0385e-06
-8.0511e-06
8.15352e-06
-8.20116e-06
1.27018e-05
-9.08138e-06
1.60142e-05
-6.64526e-06
2.14159e-05
-1.06118e-05
2.64651e-05
-1.01084e-05
3.05987e-05
-8.38065e-06
3.56465e-05
-9.28283e-06
3.82991e-05
-5.70403e-06
6.45087e-05
-2.37684e-05
6.40711e-05
-2.63014e-05
7.19191e-05
-1.51267e-05
7.76769e-05
-1.16812e-05
7.99099e-05
-7.28429e-06
7.99697e-05
-2.80318e-06
7.92342e-05
1.08191e-07
5.25422e-05
1.98761e-05
5.18606e-05
5.22902e-06
4.79664e-05
8.91097e-06
6.56755e-05
7.98918e-07
5.02672e-05
2.58269e-05
3.22902e-05
3.59978e-05
6.62839e-05
4.01215e-06
-1.20632e-05
8.10311e-06
-1.22921e-05
1.27348e-05
-1.3713e-05
1.58426e-05
-9.75305e-06
2.16738e-05
-1.64431e-05
2.63112e-05
-1.47459e-05
3.04824e-05
-1.25518e-05
3.65078e-05
-1.53083e-05
3.76428e-05
-6.83901e-06
6.13294e-05
-4.74549e-05
6.36559e-05
-2.8628e-05
7.04296e-05
-2.19003e-05
7.34935e-05
-1.47451e-05
7.63733e-05
-1.01641e-05
7.9573e-05
-6.00296e-06
8.11906e-05
-1.50942e-06
8.8132e-05
1.29348e-05
8.52878e-05
8.07326e-06
7.94286e-05
1.47702e-05
7.01972e-05
1.00303e-05
5.87805e-05
3.72436e-05
3.10476e-05
6.37307e-05
9.73315e-05
4.01837e-06
-1.60816e-05
8.13324e-06
-1.6407e-05
1.2728e-05
-1.83078e-05
1.64806e-05
-1.35057e-05
2.18198e-05
-2.17822e-05
2.56752e-05
-1.86013e-05
3.22011e-05
-1.90777e-05
3.53568e-05
-1.8464e-05
6.03696e-05
-3.18518e-05
5.77326e-05
-4.48179e-05
5.96816e-05
-3.0577e-05
6.52525e-05
-2.74712e-05
6.8085e-05
-1.75776e-05
7.25383e-05
-1.46174e-05
7.70472e-05
-1.05119e-05
8.01937e-05
-4.65592e-06
8.42843e-05
8.84421e-06
8.2102e-05
1.02555e-05
8.00246e-05
1.68476e-05
7.35538e-05
1.65011e-05
5.87196e-05
5.20777e-05
3.11807e-05
9.12695e-05
0.000128512
3.96568e-06
-2.00473e-05
8.09996e-06
-2.05413e-05
1.27181e-05
-2.2926e-05
1.68398e-05
-1.76273e-05
2.17038e-05
-2.66462e-05
2.54638e-05
-2.23613e-05
3.1973e-05
-2.5587e-05
3.36593e-05
-2.01502e-05
5.38152e-05
-5.20078e-05
5.27896e-05
-4.37923e-05
5.54577e-05
-3.32451e-05
6.20588e-05
-3.40723e-05
6.60604e-05
-2.15791e-05
7.2103e-05
-2.06601e-05
7.73737e-05
-1.57825e-05
8.1492e-05
-8.77421e-06
8.49491e-05
5.38715e-06
7.9786e-05
1.54186e-05
7.72806e-05
1.93529e-05
7.858e-05
1.52018e-05
6.10701e-05
6.95876e-05
3.34407e-05
0.000118899
0.000161953
3.98005e-06
-2.40273e-05
8.18948e-06
-2.47507e-05
1.27577e-05
-2.74942e-05
1.69639e-05
-2.18336e-05
2.16423e-05
-3.13246e-05
2.68794e-05
-2.75984e-05
2.91864e-05
-2.7894e-05
4.78775e-05
-3.88413e-05
4.5258e-05
-4.93883e-05
4.94674e-05
-4.80016e-05
5.4141e-05
-3.79187e-05
6.1656e-05
-4.15873e-05
6.75471e-05
-2.74703e-05
7.37521e-05
-2.6865e-05
8.05912e-05
-2.26217e-05
8.54329e-05
-1.36159e-05
8.83808e-05
2.43927e-06
8.39673e-05
1.98321e-05
8.10239e-05
2.22963e-05
5.11963e-05
4.50295e-05
7.93933e-05
4.13905e-05
3.56315e-05
0.000162661
0.000197584
3.88819e-06
-2.79155e-05
8.21741e-06
-2.908e-05
1.27257e-05
-3.20025e-05
1.68619e-05
-2.59697e-05
2.18011e-05
-3.62638e-05
2.39154e-05
-2.97127e-05
2.44764e-05
-2.8455e-05
4.1249e-05
-5.56139e-05
4.29171e-05
-5.10564e-05
4.81538e-05
-5.32383e-05
5.47327e-05
-4.44976e-05
6.35989e-05
-5.04534e-05
6.89502e-05
-3.28215e-05
7.59971e-05
-3.3912e-05
8.48208e-05
-3.14454e-05
8.85002e-05
-1.72952e-05
9.10667e-05
-1.27212e-07
9.049e-05
2.04088e-05
8.54666e-05
2.73197e-05
0.000100334
3.01625e-05
4.87386e-05
9.29854e-05
4.06206e-05
0.000170779
0.000238205
3.96271e-06
-3.18782e-05
8.36079e-06
-3.3478e-05
1.24955e-05
-3.61372e-05
1.63094e-05
-2.97837e-05
2.08145e-05
-4.07689e-05
2.09563e-05
-2.98545e-05
3.78534e-05
-4.53521e-05
3.90599e-05
-5.68204e-05
4.26573e-05
-5.46538e-05
4.85137e-05
-5.90947e-05
5.62948e-05
-5.22787e-05
6.5145e-05
-5.93037e-05
6.96449e-05
-3.73214e-05
7.84757e-05
-4.27427e-05
8.69075e-05
-3.98773e-05
8.95073e-05
-1.9895e-05
9.25798e-05
-3.19979e-06
9.28029e-05
2.01857e-05
9.05817e-05
2.95409e-05
6.0955e-05
5.97892e-05
0.000107406
4.65342e-05
7.68102e-05
0.000201375
0.000315015
1.01449e-06
-1.01449e-06
3.83528e-06
-2.82098e-06
6.46178e-07
3.18925e-06
-3.56959e-06
4.21577e-06
-5.41499e-06
1.84538e-06
-6.06755e-06
6.52568e-07
-6.08963e-06
2.21234e-08
-5.51045e-06
-5.79077e-07
-4.05726e-06
-1.4533e-06
-2.03747e-06
-2.01969e-06
1.61348e-07
-2.19899e-06
2.00158e-06
-1.84023e-06
3.48811e-06
-1.48652e-06
4.25995e-06
-7.71844e-07
3.38542e-06
8.74549e-07
4.52817e-06
-1.14267e-06
2.4095e-06
2.11865e-06
1.2946e-06
1.11494e-06
1.2947e-06
9.14201e-07
-1.92849e-06
2.79362e-06
-4.70058e-06
-8.52787e-07
6.8357e-06
-5.8477e-06
9.21074e-06
-7.73679e-06
3.73451e-06
-8.2532e-06
1.16905e-06
-7.91764e-06
-3.13499e-07
-7.02966e-06
-1.4669e-06
-5.29735e-06
-3.18593e-06
-2.89981e-06
-4.41708e-06
-9.21338e-07
-4.17751e-06
3.23365e-07
-3.08496e-06
8.02045e-07
-1.96519e-06
1.98492e-06
-1.95462e-06
2.85805e-06
1.41605e-09
2.41104e-06
-6.95569e-07
2.1665e-06
2.36327e-06
1.16765e-06
2.11385e-06
2.4624e-06
9.48959e-07
-2.87731e-06
2.81463e-06
-6.56631e-06
-1.45186e-06
1.11022e-05
-6.03371e-06
1.37926e-05
-8.0004e-06
5.70121e-06
-8.85142e-06
2.02011e-06
-8.33756e-06
-8.27537e-07
-7.13917e-06
-2.66502e-06
-5.74608e-06
-4.57921e-06
-3.83556e-06
-6.32755e-06
-1.44233e-06
-6.5708e-06
5.08786e-07
-5.03606e-06
1.88284e-06
-3.33925e-06
2.43878e-06
-2.51052e-06
3.08866e-06
-6.48473e-07
2.57414e-06
-1.80988e-07
2.16419e-06
2.77325e-06
1.17926e-06
3.09879e-06
3.64168e-06
5.34838e-07
-3.4121e-06
2.86991e-06
-8.90138e-06
-1.71591e-06
1.56879e-05
-7.24757e-06
1.93243e-05
-8.25562e-06
6.70923e-06
-9.13667e-06
2.90124e-06
-8.75352e-06
-1.21088e-06
-7.38925e-06
-4.02911e-06
-6.06617e-06
-5.90246e-06
-4.25207e-06
-8.14159e-06
-2.17287e-06
-8.65003e-06
7.95251e-07
-8.00418e-06
1.51862e-06
-4.06263e-06
2.63129e-06
-3.62313e-06
3.21789e-06
-1.23509e-06
2.75156e-06
2.85381e-07
2.22905e-06
3.29579e-06
1.21661e-06
4.11121e-06
4.85829e-06
-1.01476e-06
-2.39734e-06
1.79861e-06
-1.17147e-05
-2.87978e-06
2.03662e-05
-8.66007e-06
2.51046e-05
-1.03094e-05
8.35848e-06
-1.10295e-05
3.62142e-06
-1.03053e-05
-1.93521e-06
-8.1028e-06
-6.2315e-06
-5.71635e-06
-8.28906e-06
-4.70963e-06
-9.14825e-06
-9.58573e-07
-1.24011e-05
6.20953e-07
-9.5837e-06
2.76529e-06
-6.20694e-06
2.97359e-06
-3.83135e-06
3.46267e-06
-1.72412e-06
2.93463e-06
8.13468e-07
2.33803e-06
3.89242e-06
1.26175e-06
5.18744e-06
6.12003e-06
3.18401e-06
-5.58145e-06
4.97932e-06
-1.35099e-05
-3.05116e-06
2.83965e-05
-1.02221e-05
3.22756e-05
-1.24665e-05
1.0603e-05
-1.30678e-05
4.22272e-06
-1.13794e-05
-3.62366e-06
-8.53533e-06
-9.07547e-06
-7.26428e-06
-9.56022e-06
-2.23202e-06
-1.41805e-05
-5.55571e-07
-1.40775e-05
9.98394e-07
-1.11376e-05
2.01187e-06
-7.22037e-06
3.23741e-06
-5.05676e-06
3.57107e-06
-2.05772e-06
3.22818e-06
1.1564e-06
2.46871e-06
4.65192e-06
1.33107e-06
6.32504e-06
7.4511e-06
2.04226e-06
-7.62388e-06
5.50844e-06
-1.69759e-05
-4.09194e-06
3.79968e-05
-5.83144e-06
3.40151e-05
-1.37713e-05
1.85427e-05
-1.48216e-05
5.2731e-06
-1.39447e-05
-4.50064e-06
-1.30018e-05
-1.00183e-05
-4.79498e-06
-1.77671e-05
-1.93543e-06
-1.704e-05
1.94181e-07
-1.62071e-05
1.40104e-06
-1.23444e-05
2.35638e-06
-8.17568e-06
3.47697e-06
-6.17725e-06
3.85347e-06
-2.43417e-06
3.46184e-06
1.54805e-06
2.63449e-06
5.47931e-06
1.41345e-06
7.54607e-06
8.86457e-06
1.64944e-06
-9.2735e-06
5.73743e-06
-2.10639e-05
3.56667e-07
4.33773e-05
-7.49318e-06
4.18649e-05
-9.4736e-06
2.0523e-05
-9.50791e-06
5.30744e-06
-7.65739e-06
-6.35126e-06
-5.0125e-06
-1.26632e-05
-3.57695e-06
-1.92027e-05
-6.14538e-06
-1.44716e-05
-6.9651e-07
-2.1656e-05
1.1766e-06
-1.42175e-05
4.25684e-06
-1.12559e-05
3.89283e-06
-5.8132e-06
4.21188e-06
-2.75318e-06
3.84211e-06
1.91784e-06
2.83061e-06
6.49083e-06
1.52462e-06
8.8521e-06
1.03892e-05
8.03429e-06
-3.99125e-05
1.70294e-05
-4.24732e-05
2.31205e-05
-4.22282e-05
3.2837e-05
-3.95002e-05
3.78408e-05
-4.57727e-05
6.38354e-05
-5.58491e-05
7.47714e-05
-5.62881e-05
8.0366e-05
-6.24149e-05
8.9742e-05
-6.40299e-05
0.000103448
-7.28011e-05
0.00012584
-7.46706e-05
0.000149434
-8.2897e-05
0.000149166
-3.70541e-05
0.000167954
-6.15306e-05
0.000181519
-5.34419e-05
0.000192752
-3.11282e-05
0.000202298
-1.27459e-05
0.000213225
9.25846e-06
0.000221954
2.08125e-05
0.000245789
3.59539e-05
0.000191157
0.000101166
0.000275001
0.000117531
0.000334731
0.000255286
7.33991e-06
-4.72524e-05
1.62243e-05
-5.13576e-05
2.23968e-05
-4.84008e-05
4.224e-05
-5.93433e-05
5.14121e-05
-5.49448e-05
5.93163e-05
-6.37533e-05
6.75109e-05
-6.44827e-05
7.40058e-05
-6.89098e-05
8.65941e-05
-7.66181e-05
0.00010088
-8.70867e-05
0.000123793
-9.7584e-05
0.000147537
-0.000106641
0.000156442
-4.59598e-05
0.000177911
-8.2999e-05
0.000198239
-7.377e-05
0.000218797
-5.16864e-05
0.000243692
-3.76404e-05
0.000252952
-2.43177e-09
0.000248583
2.51819e-05
0.000187697
9.68402e-05
0.000248288
4.05748e-05
0.000266812
9.90072e-05
0.000207065
0.000394477
1.05992e-05
-5.78516e-05
2.05777e-05
-6.13361e-05
3.1625e-05
-5.9448e-05
3.92467e-05
-6.6965e-05
4.83119e-05
-6.401e-05
5.50038e-05
-7.04452e-05
6.39924e-05
-7.34713e-05
7.27321e-05
-7.76496e-05
8.25264e-05
-8.64124e-05
9.39086e-05
-9.84689e-05
0.000121795
-0.000125471
0.000149521
-0.000134366
0.000158712
-5.51512e-05
0.000188541
-0.000112827
0.000217057
-0.000102286
0.000257945
-9.25744e-05
0.000287079
-6.6775e-05
0.000299232
-1.21546e-05
0.000315287
9.12621e-06
0.000336249
7.5878e-05
0.00027616
0.000100664
0.000254021
0.000121146
0.000184549
0.000276537
1.07932e-05
-6.86448e-05
2.07344e-05
-7.12773e-05
3.05491e-05
-6.92627e-05
3.71787e-05
-7.35946e-05
4.58532e-05
-7.26845e-05
5.32979e-05
-7.78899e-05
5.809e-05
-7.82635e-05
6.29369e-05
-8.24964e-05
6.77278e-05
-9.12034e-05
8.12856e-05
-0.000112027
0.000116552
-0.000160737
0.00014482
-0.000162635
0.000162006
-7.23365e-05
0.00020424
-0.000155061
0.000252225
-0.000150271
0.000294782
-0.000135131
0.000317941
-8.99347e-05
0.000330866
-2.5079e-05
0.000343976
-3.98344e-06
0.000363422
5.64317e-05
0.000413307
5.07786e-05
0.000412757
0.000121697
0.000150336
0.00044697
9.66771e-06
-7.83125e-05
1.81173e-05
-7.97269e-05
2.71211e-05
-7.82665e-05
3.47448e-05
-8.12183e-05
4.24411e-05
-8.03808e-05
4.66252e-05
-8.20741e-05
4.94316e-05
-8.10698e-05
5.23977e-05
-8.54624e-05
5.31506e-05
-9.19563e-05
7.21369e-05
-0.000131013
0.000116743
-0.000205343
0.000145518
-0.000191411
0.000180182
-0.000107
0.000227535
-0.000202415
0.00026664
-0.000189376
0.000293754
-0.000162245
0.000308202
-0.000104383
0.000321975
-3.88524e-05
0.000306742
1.125e-05
0.000308505
5.46683e-05
0.000223559
0.000135725
0.000232784
0.000112471
4.49656e-05
0.000338155
9.37898e-06
-8.76915e-05
1.81584e-05
-8.85063e-05
2.71668e-05
-8.72748e-05
3.39742e-05
-8.80257e-05
3.97436e-05
-8.61502e-05
4.27402e-05
-8.50707e-05
4.29938e-05
-8.13234e-05
4.03898e-05
-8.28584e-05
3.70092e-05
-8.85758e-05
7.78188e-05
-0.000171823
0.000122762
-0.000250286
0.000151124
-0.000219772
0.000188785
-0.000144662
0.000221728
-0.000235357
0.000215426
-0.000183075
0.000177749
-0.000124567
0.000149073
-7.57062e-05
0.000109344
8.76095e-07
0.000133219
-1.26249e-05
0.000155013
3.28748e-05
0.000222045
6.86924e-05
0.00031453
1.99861e-05
6.34699e-05
0.000296026
9.20829e-06
-9.68998e-05
1.76935e-05
-9.69916e-05
2.58984e-05
-9.54797e-05
3.30698e-05
-9.51971e-05
3.84672e-05
-9.15477e-05
4.05712e-05
-8.71747e-05
3.61238e-05
-7.68759e-05
2.69456e-05
-7.36803e-05
3.21314e-05
-9.37615e-05
8.43251e-05
-0.000224016
0.000116765
-0.000282726
0.000136012
-0.00023902
0.000152308
-0.000160958
0.000100509
-0.000183558
4.98296e-05
-0.000132395
4.14904e-05
-0.000116228
7.32687e-05
-0.000107485
0.000101709
-2.75645e-05
0.000135662
-4.65771e-05
0.000248521
-7.9985e-05
0.00028328
3.39336e-05
0.000293945
9.32091e-06
4.75004e-05
0.000309915
9.54387e-06
-0.000106444
1.85906e-05
-0.000106038
2.79768e-05
-0.000104866
3.49748e-05
-0.000102195
4.10141e-05
-9.7587e-05
4.27468e-05
-8.89074e-05
3.36716e-05
-6.78008e-05
1.90793e-05
-5.90879e-05
3.15528e-05
-0.000106235
5.37447e-05
-0.000246208
6.41478e-05
-0.000293129
5.56269e-05
-0.000230499
4.18657e-05
-0.000147197
-3.14656e-06
-0.000138546
-2.02653e-05
-0.000115277
-1.26832e-05
-0.00012381
1.03455e-05
-0.000130513
7.72973e-05
-9.45164e-05
9.60255e-05
-6.53053e-05
8.93321e-05
-7.32915e-05
0.000153301
-3.0035e-05
0.000189977
-2.73559e-05
-3.18538e-05
0.000269332
1.01514e-05
-0.000116595
2.13934e-05
-0.00011728
3.03618e-05
-0.000113834
3.75485e-05
-0.000109382
4.27455e-05
-0.000102784
4.23263e-05
-8.84882e-05
3.09044e-05
-5.63789e-05
1.37766e-05
-4.19601e-05
1.0382e-05
-0.000102841
3.62555e-05
-0.000272082
5.3519e-05
-0.000310392
1.31317e-05
-0.000190112
-8.10714e-06
-0.000125958
-2.39507e-05
-0.000122702
-1.53195e-05
-0.000123908
-2.89689e-05
-0.000110161
-5.53417e-07
-0.000158929
2.08338e-05
-0.000115904
6.2526e-05
-0.000106998
6.42207e-05
-7.49864e-05
8.08286e-05
-4.6643e-05
0.000115375
-6.19018e-05
-4.41256e-05
0.000127646
7.10428e-06
-0.000123699
1.27268e-05
-0.000122903
1.7515e-05
-0.000118623
2.17376e-05
-0.000113604
2.52369e-05
-0.000106283
2.82731e-05
-9.15244e-05
2.9677e-05
-5.77828e-05
2.63438e-05
-3.86269e-05
1.27246e-05
-8.92213e-05
3.32261e-05
-0.000292583
4.39368e-05
-0.000321103
1.05496e-05
-0.000156724
-5.22884e-06
-0.000110179
-1.92213e-05
-0.00010871
-3.80264e-05
-0.000105103
-1.67312e-05
-0.000131456
3.56979e-05
-0.000211358
5.10115e-05
-0.000131217
3.1398e-05
-8.7384e-05
4.51319e-05
-8.87202e-05
0.000113083
-0.000114594
9.97372e-05
-4.85566e-05
-0.000103371
0.000158982
-5.94474e-07
-0.000123105
-8.1308e-07
-0.000122684
-8.11328e-07
-0.000118624
9.43493e-08
-0.00011451
2.94663e-06
-0.000109136
1.32152e-05
-0.000101793
4.32218e-05
-8.77894e-05
7.86684e-05
-7.40735e-05
7.94235e-05
-8.99764e-05
2.21736e-06
-0.000215377
-6.55136e-05
-0.000253372
-3.2264e-05
-0.000189974
-1.32656e-05
-0.000129178
-9.59447e-06
-0.000112381
2.1215e-05
-0.000135912
2.79124e-05
-0.000138154
3.67526e-05
-0.000220198
4.10033e-05
-0.000135468
4.27697e-05
-8.91504e-05
0.000115684
-0.000161635
0.000115042
-0.000113952
0.000200449
-0.000133963
-0.000111023
0.000208101
-9.44002e-07
-0.000122161
-1.45079e-06
-0.000122177
-1.58486e-06
-0.00011849
-1.33829e-06
-0.000114757
4.92317e-07
-0.000110966
1.11224e-05
-0.000112423
2.57502e-05
-0.000102417
4.23278e-05
-9.06511e-05
4.58503e-05
-9.3499e-05
9.10753e-06
-0.000178634
-1.53606e-05
-0.000228904
6.26749e-06
-0.000211602
1.14059e-05
-0.000134316
5.25364e-05
-0.000153512
7.28777e-05
-0.000156254
9.90081e-05
-0.000164284
3.86635e-05
-0.000159854
1.34854e-05
-0.00011029
8.80317e-05
-0.000163697
9.58097e-05
-0.000169413
0.000152846
-0.000170988
0.000172964
-0.000154082
-8.72382e-05
0.00014918
3.83706e-07
-0.000122545
-1.00374e-06
-0.00012079
-2.50485e-06
-0.000116989
-3.74845e-06
-0.000113513
3.20262e-07
-0.000115035
3.01609e-05
-0.000142264
6.4107e-05
-0.000136363
6.30928e-05
-8.96369e-05
7.48246e-05
-0.000105231
3.11606e-05
-0.00013497
-3.16105e-08
-0.000197712
3.53198e-05
-0.000246953
2.63143e-05
-0.000125311
3.07312e-05
-0.000157929
3.64768e-05
-0.000161999
0.000107996
-0.000235803
9.12189e-05
-0.000143077
0.000120483
-0.000139554
6.34922e-05
-0.000106706
9.15027e-05
-0.000197424
9.93024e-05
-0.000178788
9.97523e-05
-0.000154532
-0.000146494
0.000159008
1.1916e-05
-0.000134461
1.29828e-05
-0.000121857
2.13184e-05
-0.000125325
1.83403e-05
-0.000110535
1.31744e-05
-0.000109869
7.88075e-05
-0.000207897
7.29473e-05
-0.000130503
0.000119117
-0.000135807
0.000111751
-9.78648e-05
8.11287e-05
-0.000104348
4.79071e-05
-0.00016449
7.86817e-06
-0.000206915
3.66239e-05
-0.000154067
6.5961e-05
-0.000187266
6.57949e-05
-0.000161833
8.59266e-05
-0.000255935
8.48646e-05
-0.000142015
9.59598e-05
-0.000150649
0.00013987
-0.000150616
0.000175945
-0.000233499
0.00019059
-0.000193433
0.000185501
-0.000149443
-0.000102771
0.000141778
7.61365e-06
-0.000142074
2.61303e-05
-0.000140374
4.22988e-05
-0.000141493
7.16747e-05
-0.000139911
0.000101984
-0.000140178
4.92459e-05
-0.000155159
6.37619e-05
-0.000145019
7.59118e-05
-0.000147957
0.000125867
-0.00014782
0.000137391
-0.000115872
0.000107321
-0.00013442
6.55438e-05
-0.000165137
9.69854e-05
-0.000185508
0.00010189
-0.00019217
0.00011556
-0.000175504
4.19806e-05
-0.000182355
0.000126658
-0.000226693
0.000102965
-0.000126956
0.000109324
-0.000156975
0.000122328
-0.000246503
0.000121803
-0.000192908
0.000120052
-0.000147692
-0.000190195
0.000207477
1.59015e-05
-0.000157976
3.49459e-05
-0.000159418
5.11548e-05
-0.000157702
6.44502e-05
-0.000153206
7.84684e-05
-0.000154196
8.5005e-05
-0.000161696
9.32764e-05
-0.000153291
9.62072e-05
-0.000150888
0.000103812
-0.000155425
0.000133198
-0.000145259
0.000137588
-0.00013881
0.000126015
-0.000153564
0.000118976
-0.00017847
0.000112357
-0.000185552
0.000116347
-0.000179494
9.17663e-05
-0.000157774
0.00012337
-0.000258297
0.000118816
-0.000122402
0.000186414
-0.000224574
0.000146647
-0.000206736
0.000149064
-0.000195325
0.000203379
-0.000202008
-0.00018167
0.000194854
4.88774e-05
-0.000206853
4.66596e-05
-0.000157201
4.82365e-05
-0.000159279
5.61004e-05
-0.00016107
6.79237e-05
-0.000166019
6.98197e-05
-0.000163592
7.42598e-05
-0.000157731
8.01852e-05
-0.000156813
8.26875e-05
-0.000157927
9.00085e-05
-0.00015258
0.000102943
-0.000151745
0.000107587
-0.000158208
9.91889e-05
-0.000170071
7.28221e-05
-0.000159185
0.000168565
-0.000275236
0.000173321
-0.00016253
0.000116544
-0.00020152
0.000160339
-0.000166197
0.000208705
-0.00027294
0.000236759
-0.000234789
0.00024287
-0.000201436
0.000224565
-0.000183702
-0.000186999
0.000229894
-1.46903e-05
-0.000192163
2.7935e-05
-0.000199826
7.03201e-05
-0.000201664
6.02051e-05
-0.000150955
4.73751e-05
-0.000153189
4.49837e-05
-0.0001612
6.12083e-05
-0.000173955
5.91522e-05
-0.000154757
6.7147e-05
-0.000165922
6.81885e-05
-0.000153621
7.55426e-05
-0.000159099
8.07733e-05
-0.000163439
6.70697e-05
-0.000156368
7.55977e-05
-0.000167713
0.000109697
-0.000309335
0.000116315
-0.000169148
8.99834e-05
-0.000175189
0.000192123
-0.000268337
0.000152588
-0.000233405
0.000157495
-0.000239696
0.000182006
-0.000225947
0.000252603
-0.000254299
-0.00020458
0.000270183
5.70949e-07
-0.000192734
7.01947e-06
-0.000206275
1.47254e-05
-0.00020937
4.45321e-07
-0.000136675
6.21293e-05
-0.000214873
3.59e-05
-0.000134971
2.07385e-05
-0.000158794
8.15559e-05
-0.000215574
5.64846e-05
-0.000140851
6.28175e-05
-0.000159954
6.99581e-05
-0.00016624
5.80646e-05
-0.000151545
8.17716e-05
-0.000180075
9.01818e-05
-0.000176123
6.82436e-05
-0.000287397
0.000151874
-0.000252778
0.000212422
-0.000235737
0.000213015
-0.00026893
0.000238245
-0.000258635
0.000253222
-0.000254673
0.000260468
-0.000233193
0.000188806
-0.000182637
-0.000200675
0.000184901
-5.88211e-06
-0.000186852
-1.55873e-06
-0.000210598
-5.4782e-07
-0.000210381
2.16145e-05
-0.000158838
1.20788e-05
-0.000205338
5.9404e-05
-0.000182296
2.99318e-05
-0.000129322
1.6797e-05
-0.00020244
6.12411e-05
-0.000185295
5.09761e-05
-0.000149689
2.51153e-05
-0.000140379
7.63805e-05
-0.00020281
4.65613e-05
-0.000150256
0.000131135
-0.000260697
9.80224e-05
-0.000254285
0.000101295
-0.000256051
0.000119275
-0.000253717
0.000127906
-0.000277561
0.000143552
-0.000274281
0.00015917
-0.000270292
0.000179717
-0.00025374
0.000201185
-0.000204105
-0.000264755
0.000265265
-2.69069e-06
-0.000184161
4.20451e-06
-0.000217493
2.47729e-06
-0.000208654
3.81834e-06
-0.000160179
4.28237e-08
-0.000201562
1.49467e-06
-0.000183748
4.03239e-05
-0.000168151
2.35639e-05
-0.00018568
3.71283e-06
-0.000165444
5.62873e-05
-0.000202264
8.07973e-05
-0.000164889
4.20774e-05
-0.000164091
9.3379e-05
-0.000201557
8.50356e-05
-0.000252353
9.1725e-05
-0.000260974
0.000100916
-0.000265242
0.000120873
-0.000273674
0.000130535
-0.000287223
0.000152898
-0.000296643
0.00019169
-0.000309084
0.000176917
-0.000238967
0.000189361
-0.000216549
-0.000268645
0.000193251
-3.38499e-05
-0.000150312
-2.43395e-06
-0.000248909
1.37711e-05
-0.000224859
-8.33633e-06
-0.000138071
3.20906e-06
-0.000213108
3.6819e-06
-0.000184221
2.11062e-05
-0.000185576
1.4059e-05
-0.000178633
2.32514e-05
-0.000174637
3.23735e-05
-0.000211386
3.96708e-05
-0.000172186
6.60226e-05
-0.000190442
8.7166e-05
-0.000222701
0.000127301
-0.000292488
0.000150795
-0.000284468
0.000173092
-0.00028754
0.000192698
-0.00029328
0.000196891
-0.000291416
0.000194704
-0.000294456
0.000188692
-0.000303072
0.000204278
-0.000254553
0.000309725
-0.000321997
-0.000227159
0.00026824
3.79298e-05
-0.000188241
5.99058e-07
-0.000211579
-1.86438e-05
-0.000205616
2.60708e-05
-0.000182786
1.46488e-05
-0.000201686
1.99305e-05
-0.000189503
1.60726e-05
-0.000181718
1.0844e-05
-0.000173404
3.6717e-06
-0.000167464
6.7379e-05
-0.000275093
4.82267e-05
-0.000153034
1.21635e-05
-0.000154379
5.53918e-05
-0.000265929
6.82567e-05
-0.000305353
9.47709e-05
-0.000310982
0.000123345
-0.000316114
0.000118511
-0.000288446
0.000146625
-0.00031953
0.000236758
-0.00038459
0.000257132
-0.000323446
0.000175273
-0.000172694
0.00022083
-0.000367553
-0.000200677
0.000194347
6.09949e-06
-0.000194341
2.49687e-06
-0.000207976
2.18848e-06
-0.000205308
1.23875e-05
-0.000192985
1.22693e-05
-0.000201567
1.579e-05
-0.000193024
2.47145e-05
-0.000190642
3.98082e-05
-0.000188498
7.07018e-05
-0.000198358
1.87123e-05
-0.000223104
5.40041e-05
-0.000188326
9.20666e-05
-0.000192442
4.34669e-05
-0.00021733
9.3654e-05
-0.00035554
0.000157191
-0.00037452
8.98332e-05
-0.000248755
0.000157924
-0.000356537
0.000198254
-0.00035986
0.000231162
-0.000417498
0.000175593
-0.000267876
0.000267782
-0.000264883
0.00015171
-0.000251482
-0.000219901
0.000170935
6.22965e-06
-0.000200571
4.89815e-06
-0.000206644
4.02961e-06
-0.000204439
1.21302e-05
-0.000201086
1.11719e-05
-0.000200609
1.69034e-05
-0.000198755
2.32476e-05
-0.000196986
3.82428e-05
-0.000203493
4.43449e-05
-0.00020446
3.44856e-05
-0.000213245
5.41731e-05
-0.000208013
6.46313e-05
-0.0002029
5.61089e-05
-0.000208807
9.3725e-05
-0.000393156
0.00011187
-0.000392665
9.76465e-05
-0.000234532
0.000117597
-0.000376487
0.000169603
-0.000411866
0.000189906
-0.000437801
0.000171514
-0.000249484
0.000167108
-0.000260477
0.000169823
-0.000254198
-0.000233257
0.000183179
4.06811e-06
-0.000204639
5.46179e-06
-0.000208038
9.2099e-06
-0.000208187
1.59859e-05
-0.000207862
2.03484e-05
-0.000204972
2.89568e-05
-0.000207364
3.84175e-05
-0.000206447
4.56193e-05
-0.000210695
5.1222e-05
-0.000210063
5.2691e-05
-0.000214714
6.06319e-05
-0.000215954
7.32111e-05
-0.000215479
8.30564e-05
-0.000218653
9.39339e-05
-0.000404034
9.64642e-05
-0.000395195
8.67407e-05
-0.000224809
0.000100814
-0.000390561
9.68771e-05
-0.000407929
0.000118181
-0.000459105
0.000146344
-0.000277647
0.000164814
-0.000278947
0.000180079
-0.000269463
-0.000252813
0.000199635
4.62921e-06
-0.000209268
8.88944e-06
-0.000212298
1.29919e-05
-0.00021229
1.75092e-05
-0.000212379
2.23432e-05
-0.000209806
2.73189e-05
-0.000212339
3.36146e-05
-0.000212743
3.8006e-05
-0.000215087
4.42811e-05
-0.000216338
4.96519e-05
-0.000220084
5.50123e-05
-0.000221315
6.48505e-05
-0.000225317
7.56364e-05
-0.000229439
7.60523e-05
-0.000404449
7.49498e-05
-0.000394092
0.000101211
-0.00025107
0.000130173
-0.000419523
0.0001327
-0.000410455
0.000139399
-0.000465804
0.000137948
-0.000276196
0.000164711
-0.00030571
0.000184517
-0.000289269
-0.000272539
0.000204243
3.1429e-06
-0.000212411
5.09932e-06
-0.000214255
8.20854e-06
-0.000215399
1.18689e-05
-0.000216039
2.00588e-05
-0.000217995
2.52538e-05
-0.000217534
3.13424e-05
-0.000218832
3.67105e-05
-0.000220455
4.23429e-05
-0.00022197
4.64441e-05
-0.000224186
5.24012e-05
-0.000227272
5.72363e-05
-0.000230152
6.6465e-05
-0.000238667
7.24169e-05
-0.000410401
6.93531e-05
-0.000391029
0.000196603
-0.00037832
8.96766e-05
-0.000312597
0.00011801
-0.000438788
0.000106803
-0.000454597
0.000132454
-0.000301846
0.000156757
-0.000330013
0.000181659
-0.000314171
-0.000297155
0.000206275
4.11969e-06
-0.000216531
8.43197e-06
-0.000218567
1.23139e-05
-0.000219281
1.64044e-05
-0.00022013
1.99816e-05
-0.000221573
2.45174e-05
-0.00022207
2.84375e-05
-0.000222752
3.2148e-05
-0.000224165
3.64145e-05
-0.000226237
4.04001e-05
-0.000228171
4.44409e-05
-0.000231313
4.86323e-05
-0.000234344
5.25843e-05
-0.000242619
5.42191e-05
-0.000412036
6.69021e-05
-0.000403712
0.000118281
-0.000429699
0.000103972
-0.000298288
0.000134603
-0.00046942
1.84087e-05
-0.000338403
0.000166275
-0.000449713
0.000159567
-0.000323306
0.000196378
-0.000350982
-0.000330595
0.000229818
3.48081e-06
-0.000220011
7.56263e-06
-0.000222649
1.12592e-05
-0.000222977
1.52348e-05
-0.000224105
1.81079e-05
-0.000224446
2.18334e-05
-0.000225796
2.52214e-05
-0.00022614
2.87113e-05
-0.000227655
3.17846e-05
-0.00022931
3.50363e-05
-0.000231423
3.87551e-05
-0.000235031
4.49139e-05
-0.000240503
4.76308e-05
-0.000245336
5.56727e-05
-0.000420078
6.92997e-05
-0.000417339
6.96264e-05
-0.000430026
0.000189244
-0.000417905
4.69282e-05
-0.000327104
2.84139e-05
-0.000319889
6.91557e-05
-0.000490455
0.000244864
-0.000499014
0.000202352
-0.000308469
-0.000353813
0.00022557
3.31389e-06
-0.000223325
6.60118e-06
-0.000225936
9.9482e-06
-0.000226324
1.31753e-05
-0.000227332
1.68361e-05
-0.000228107
2.05809e-05
-0.00022954
2.31099e-05
-0.000228669
2.5662e-05
-0.000230207
2.81198e-05
-0.000231768
3.04566e-05
-0.00023376
3.33138e-05
-0.000237889
3.18835e-05
-0.000239072
3.26824e-05
-0.000246135
2.83275e-05
-0.000415723
4.55012e-05
-0.000434512
6.25204e-05
-0.000447045
0.000101206
-0.000456591
9.2059e-05
-0.000317957
7.82809e-05
-0.000306111
9.27672e-05
-0.000504941
0.000107836
-0.000514083
0.000145756
-0.00034639
-0.000399562
0.000191505
2.9824e-06
-0.000226308
5.73239e-06
-0.000228686
9.18248e-06
-0.000229774
1.18811e-05
-0.000230031
1.54137e-05
-0.000231639
1.79168e-05
-0.000232044
2.03142e-05
-0.000231066
2.25155e-05
-0.000232409
2.48281e-05
-0.000234081
2.63439e-05
-0.000235275
3.14055e-05
-0.00024295
3.04827e-05
-0.000238149
3.38708e-05
-0.000249523
2.42696e-05
-0.000406122
3.81624e-05
-0.000448405
6.6459e-05
-0.000475341
7.89562e-05
-0.000469088
7.85227e-05
-0.000317524
0.000101625
-0.000329213
0.000138587
-0.000541903
3.44244e-05
-0.000409921
0.000138272
-0.000450237
-0.000464237
0.000202947
2.39882e-06
-0.000228707
5.74759e-06
-0.000232035
8.31136e-06
-0.000232338
1.20638e-05
-0.000233783
1.45451e-05
-0.000234121
1.62034e-05
-0.000233702
1.84939e-05
-0.000233357
2.02551e-05
-0.00023417
2.25032e-05
-0.000236329
2.27392e-05
-0.000235511
2.70994e-05
-0.00024731
2.92642e-05
-0.000240314
2.74957e-05
-0.000247755
2.33557e-05
-0.000401982
3.93984e-05
-0.000464448
3.72737e-05
-0.000473217
2.24639e-05
-0.000454278
0.000142074
-0.000437134
0.000144784
-0.000331923
2.70383e-05
-0.000424157
4.00789e-05
-0.000422961
2.29736e-05
-0.000433132
-0.000635039
0.000193776
1.93963e-06
-0.000230646
5.54392e-06
-0.000235639
7.63869e-06
-0.000234433
1.10921e-05
-0.000237237
1.27225e-05
-0.000235751
1.49974e-05
-0.000235977
1.74758e-05
-0.000235835
1.96552e-05
-0.000236349
2.17687e-05
-0.000238442
2.29412e-05
-0.000236684
2.19749e-05
-0.000246344
2.44188e-05
-0.000242758
1.7282e-05
-0.000240618
2.09925e-05
-0.000405693
2.4588e-05
-0.000468044
1.98126e-05
-0.000468441
1.63361e-05
-0.000450802
4.14196e-05
-0.000462218
5.43044e-05
-0.000344807
-6.09828e-06
-0.000363754
4.77336e-05
-0.000476793
1.34929e-05
-0.000398891
-0.000625767
4.22083e-06
2.38426e-06
-0.00023303
4.57235e-06
-0.000237827
7.99171e-06
-0.000237852
9.09099e-06
-0.000238336
1.10211e-05
-0.000237681
1.35068e-05
-0.000238462
1.63467e-05
-0.000238675
1.93574e-05
-0.00023936
2.06078e-05
-0.000239693
2.32252e-05
-0.000239301
2.03868e-05
-0.000243506
2.17487e-05
-0.00024412
1.80492e-05
-0.000236918
2.32467e-05
-0.00041089
1.81242e-05
-0.000462921
5.03368e-06
-0.000455351
-9.95895e-08
-0.000445668
-3.54206e-06
-0.000458775
7.28465e-05
-0.000421196
1.44856e-05
-0.000305393
-1.73021e-05
-0.000445005
-5.81973e-05
-0.000357996
-0.00060798
-7.59848e-05
2.82273e-06
-0.000235853
4.26773e-06
-0.000239272
7.45835e-06
-0.000241043
7.81665e-06
-0.000238694
8.68235e-06
-0.000238547
1.15141e-05
-0.000241294
1.47849e-05
-0.000241946
1.8272e-05
-0.000242847
1.96587e-05
-0.000241079
2.28474e-05
-0.00024249
1.99718e-05
-0.00024063
1.90948e-05
-0.000243243
1.86317e-05
-0.000236455
1.8749e-05
-0.000411008
5.10153e-06
-0.000449274
-4.91103e-06
-0.000445338
-3.76326e-06
-0.000446816
-2.50515e-06
-0.000460033
1.95834e-05
-0.000443284
2.5097e-06
-0.000288319
-0.000101115
-0.000341381
-1.61053e-05
-0.000443005
-0.000410269
-0.000213816
2.55214e-06
-0.000238405
4.12294e-06
-0.000240843
5.90872e-06
-0.000242829
7.0629e-06
-0.000239848
7.95416e-06
-0.000239438
1.02645e-05
-0.000243604
1.30639e-05
-0.000244745
1.77104e-05
-0.000247493
2.01052e-05
-0.000243474
2.39849e-05
-0.00024637
2.41101e-05
-0.000240755
2.72452e-05
-0.000246378
2.42838e-05
-0.000233494
3.93988e-06
-0.000390664
-1.43061e-05
-0.000431028
-8.23751e-06
-0.000451407
-1.25398e-05
-0.000442514
-2.0412e-05
-0.000452161
-1.61165e-05
-0.00044758
-3.43099e-05
-0.000270126