/*--------------------------------*- C++ -*----------------------------------*\
| =========                 |                                                 |
| \\      /  F ield         | foam-extend: Open Source CFD                    |
|  \\    /   O peration     | Version:     4.1                                |
|   \\  /    A nd           | Web:         http://www.foam-extend.org         |
|    \\/     M anipulation  |                                                 |
\*---------------------------------------------------------------------------*/
FoamFile
{
    version     2.0;
    format      ascii;
    class       surfaceScalarField;
    location    "0.2";
    object      phi_0;
}
// * * * * * * * * * * * * * * * * * * * * * * * * * * * * * * * * * * * * * //

dimensions      [0 3 -1 0 0 0 0];

internalField   nonuniform List<scalar> 
4432
(
4.03564e-06
-4.03564e-06
8.14507e-06
-4.10943e-06
1.27018e-05
-4.5567e-06
1.60615e-05
-3.3597e-06
2.1314e-05
-5.25254e-06
2.63934e-05
-5.07942e-06
3.06544e-05
-4.26097e-06
3.49167e-05
-4.26234e-06
3.79865e-05
-3.06979e-06
3.55426e-05
2.44394e-06
6.24265e-05
-2.68839e-05
6.97636e-05
-7.33711e-06
7.57053e-05
-5.94167e-06
8.0769e-05
-5.06378e-06
8.35369e-05
-2.76786e-06
8.41516e-05
-6.1468e-07
9.09722e-05
-6.82058e-06
8.63892e-05
4.58293e-06
8.13066e-05
5.08263e-06
6.27121e-05
1.85945e-05
5.24024e-05
1.03097e-05
3.43124e-05
1.809e-05
3.43124e-05
4.0613e-06
-8.09695e-06
8.19976e-06
-8.24787e-06
1.27712e-05
-9.12812e-06
1.61119e-05
-6.70047e-06
2.1553e-05
-1.06936e-05
2.66217e-05
-1.01481e-05
3.07748e-05
-8.41402e-06
3.58517e-05
-9.33926e-06
3.85184e-05
-5.73653e-06
6.48565e-05
-2.38942e-05
6.44205e-05
-2.64479e-05
7.233e-05
-1.52466e-05
7.81217e-05
-1.17334e-05
8.03581e-05
-7.3002e-06
8.04199e-05
-2.8296e-06
7.96671e-05
1.38098e-07
5.2829e-05
2.00175e-05
5.21102e-05
5.30181e-06
4.81862e-05
9.00659e-06
6.59808e-05
7.99883e-07
5.05174e-05
2.57732e-05
3.24966e-05
3.61107e-05
6.6809e-05
4.03492e-06
-1.21319e-05
8.14986e-06
-1.23628e-05
1.28036e-05
-1.37818e-05
1.59366e-05
-9.83351e-06
2.18096e-05
-1.65666e-05
2.64694e-05
-1.48079e-05
3.06672e-05
-1.26118e-05
3.67187e-05
-1.53907e-05
3.78573e-05
-6.87513e-06
6.16729e-05
-4.77098e-05
6.40383e-05
-2.88133e-05
7.08513e-05
-2.20596e-05
7.3914e-05
-1.47961e-05
7.6839e-05
-1.02252e-05
8.00861e-05
-6.07668e-06
8.16766e-05
-1.4524e-06
8.8622e-05
1.30721e-05
8.57369e-05
8.18699e-06
7.98403e-05
1.49032e-05
7.05396e-05
1.01006e-05
5.89193e-05
3.73935e-05
3.11596e-05
6.38704e-05
9.79686e-05
4.04079e-06
-1.61727e-05
8.17944e-06
-1.65014e-05
1.27973e-05
-1.83997e-05
1.65687e-05
-1.36049e-05
2.19463e-05
-2.19442e-05
2.58325e-05
-1.86942e-05
3.24005e-05
-1.91799e-05
3.55776e-05
-1.85678e-05
6.07327e-05
-3.20303e-05
5.81173e-05
-4.50944e-05
6.0098e-05
-3.07941e-05
6.57009e-05
-2.76625e-05
6.85596e-05
-1.76548e-05
7.30845e-05
-1.47501e-05
7.76049e-05
-1.05971e-05
8.06807e-05
-4.52822e-06
8.476e-05
8.99277e-06
8.25094e-05
1.04376e-05
8.04124e-05
1.70002e-05
7.39649e-05
1.65481e-05
5.8944e-05
5.24143e-05
3.13091e-05
9.15054e-05
0.000129278
3.98803e-06
-2.01607e-05
8.14578e-06
-2.06592e-05
1.27872e-05
-2.30411e-05
1.69281e-05
-1.77458e-05
2.18263e-05
-2.68425e-05
2.56211e-05
-2.24889e-05
3.21743e-05
-2.5733e-05
3.38879e-05
-2.02814e-05
5.42192e-05
-5.23616e-05
5.32406e-05
-4.41157e-05
5.59252e-05
-3.34787e-05
6.25501e-05
-3.42874e-05
6.65896e-05
-2.16943e-05
7.26827e-05
-2.08432e-05
7.79377e-05
-1.58521e-05
8.20132e-05
-8.60373e-06
8.54397e-05
5.56623e-06
8.02203e-05
1.56571e-05
7.773e-05
1.94905e-05
7.90791e-05
1.51989e-05
6.14295e-05
7.00639e-05
3.36054e-05
0.000119329
0.000162883
4.00236e-06
-2.41631e-05
8.2335e-06
-2.48903e-05
1.28258e-05
-2.76334e-05
1.70552e-05
-2.19753e-05
2.17664e-05
-3.15536e-05
2.70513e-05
-2.77739e-05
2.93949e-05
-2.80766e-05
4.82575e-05
-3.91439e-05
4.56592e-05
-4.97633e-05
4.99243e-05
-4.83808e-05
5.46308e-05
-3.81852e-05
6.21882e-05
-4.18448e-05
6.8113e-05
-2.7619e-05
7.43315e-05
-2.70617e-05
8.12205e-05
-2.27411e-05
8.60648e-05
-1.34481e-05
8.89186e-05
2.71247e-06
8.44609e-05
2.01148e-05
8.15196e-05
2.24318e-05
5.15974e-05
4.51211e-05
8.00429e-05
4.16184e-05
3.58877e-05
0.000163485
0.000198771
3.9107e-06
-2.80738e-05
8.26131e-06
-2.92409e-05
1.27975e-05
-3.21696e-05
1.69598e-05
-2.61376e-05
2.19361e-05
-3.65299e-05
2.40877e-05
-2.99254e-05
2.468e-05
-2.86689e-05
4.16029e-05
-5.60668e-05
4.33147e-05
-5.14752e-05
4.86161e-05
-5.36821e-05
5.52415e-05
-4.48106e-05
6.4151e-05
-5.07542e-05
6.95456e-05
-3.30137e-05
7.66411e-05
-3.41572e-05
8.54807e-05
-3.15807e-05
8.9085e-05
-1.70523e-05
9.15801e-05
2.17364e-07
9.10736e-05
2.06212e-05
8.60676e-05
2.74378e-05
0.00010107
3.01191e-05
4.91754e-05
9.35127e-05
4.09015e-05
0.000171759
0.000239672
3.98572e-06
-3.20595e-05
8.406e-06
-3.36612e-05
1.25705e-05
-3.6334e-05
1.64146e-05
-2.99817e-05
2.09546e-05
-4.107e-05
2.11128e-05
-3.00836e-05
3.81587e-05
-4.57148e-05
3.94048e-05
-5.7313e-05
4.30658e-05
-5.51362e-05
4.90033e-05
-5.96196e-05
5.68223e-05
-5.26296e-05
6.571e-05
-5.9642e-05
7.0235e-05
-3.75387e-05
7.9108e-05
-4.30302e-05
8.75219e-05
-3.99946e-05
9.00224e-05
-1.95528e-05
9.31218e-05
-2.88212e-06
9.33595e-05
2.03836e-05
9.11834e-05
2.96139e-05
6.14681e-05
5.98344e-05
0.000108216
4.67643e-05
7.73633e-05
0.000202612
0.000317036
9.3793e-07
-9.3793e-07
3.59757e-06
-2.6596e-06
4.57499e-07
3.13999e-06
-3.97242e-06
4.42991e-06
-5.89959e-06
1.92707e-06
-6.60894e-06
7.09406e-07
-6.64468e-06
3.57329e-08
-6.05314e-06
-5.91597e-07
-4.56407e-06
-1.48894e-06
-2.51496e-06
-2.04921e-06
-3.25971e-07
-2.18895e-06
1.57875e-06
-1.9047e-06
3.09084e-06
-1.51209e-06
3.83899e-06
-7.48155e-07
3.11318e-06
7.25892e-07
4.20705e-06
-1.09392e-06
2.28114e-06
1.92594e-06
1.2318e-06
1.0494e-06
1.23178e-06
7.4167e-07
-1.67969e-06
2.51896e-06
-4.43687e-06
-1.27487e-06
6.9337e-06
-6.26821e-06
9.42328e-06
-8.22197e-06
3.88071e-06
-8.79889e-06
1.28634e-06
-8.47929e-06
-2.83739e-07
-7.57477e-06
-1.49628e-06
-5.80586e-06
-3.25763e-06
-3.36573e-06
-4.48938e-06
-1.35775e-06
-4.19696e-06
4.46559e-08
-3.30708e-06
5.54661e-07
-2.02198e-06
1.73737e-06
-1.93095e-06
2.64962e-06
-1.86265e-07
2.25495e-06
-6.99203e-07
2.06663e-06
2.11425e-06
1.10989e-06
2.00616e-06
2.34167e-06
9.22587e-07
-2.60235e-06
2.60533e-06
-6.11963e-06
-1.8206e-06
1.13595e-05
-6.46734e-06
1.407e-05
-8.50417e-06
5.91746e-06
-9.41027e-06
2.19242e-06
-8.90548e-06
-7.88292e-07
-7.67051e-06
-2.73137e-06
-6.23485e-06
-4.69321e-06
-4.29465e-06
-6.42957e-06
-1.87862e-06
-6.61299e-06
1.01862e-07
-5.2876e-06
1.53476e-06
-3.45477e-06
2.1878e-06
-2.58401e-06
2.86083e-06
-8.59216e-07
2.41155e-06
-2.49909e-07
2.03877e-06
2.48704e-06
1.12192e-06
2.92307e-06
3.46359e-06
4.67524e-07
-3.06991e-06
2.78773e-06
-8.43988e-06
-2.00671e-06
1.61539e-05
-7.67668e-06
1.974e-05
-8.78708e-06
7.02783e-06
-9.71119e-06
3.11645e-06
-9.35919e-06
-1.1401e-06
-7.92271e-06
-4.16796e-06
-6.54522e-06
-6.07065e-06
-4.69578e-06
-8.27899e-06
-2.61158e-06
-8.69717e-06
4.02938e-07
-8.30214e-06
1.27243e-06
-4.32415e-06
2.41335e-06
-3.72494e-06
2.99816e-06
-1.44395e-06
2.58436e-06
1.63923e-07
2.10179e-06
2.96962e-06
1.15796e-06
3.86696e-06
4.62155e-06
-1.19841e-06
-1.8715e-06
1.73564e-06
-1.1374e-05
-3.09426e-06
2.09838e-05
-9.12178e-06
2.57675e-05
-1.08854e-05
8.79144e-06
-1.16262e-05
3.85712e-06
-1.09198e-05
-1.84644e-06
-8.59385e-06
-6.49397e-06
-6.18275e-06
-8.48172e-06
-5.17519e-06
-9.28652e-06
-1.24515e-06
-1.26272e-05
3.17348e-07
-9.86465e-06
2.40428e-06
-6.41098e-06
2.71838e-06
-4.03903e-06
3.23943e-06
-1.96496e-06
2.76461e-06
6.38762e-07
2.21103e-06
3.52319e-06
1.20018e-06
4.87783e-06
5.8217e-06
2.71577e-06
-4.58726e-06
4.81997e-06
-1.34784e-05
-3.30471e-06
2.91084e-05
-1.06538e-05
3.31165e-05
-1.30354e-05
1.1173e-05
-1.36931e-05
4.51474e-06
-1.20208e-05
-3.51863e-06
-9.02192e-06
-9.49293e-06
-7.72998e-06
-9.77363e-06
-2.52183e-06
-1.44947e-05
-8.48585e-07
-1.43004e-05
7.10138e-07
-1.14234e-05
1.79274e-06
-7.4935e-06
3.07132e-06
-5.31759e-06
3.35578e-06
-2.24939e-06
3.05256e-06
9.42005e-07
2.34192e-06
4.2338e-06
1.26477e-06
5.95499e-06
7.08642e-06
1.27057e-06
-5.85778e-06
5.60207e-06
-1.78101e-05
-4.34801e-06
3.90586e-05
-5.89231e-06
3.46608e-05
-1.44257e-05
1.97064e-05
-1.54855e-05
5.5745e-06
-1.45368e-05
-4.4673e-06
-1.35221e-05
-1.05076e-05
-5.14682e-06
-1.81489e-05
-2.20022e-06
-1.74413e-05
-6.19494e-08
-1.64386e-05
1.14901e-06
-1.26343e-05
2.1355e-06
-8.4799e-06
3.23246e-06
-6.41451e-06
3.6335e-06
-2.65041e-06
3.33735e-06
1.23818e-06
2.50627e-06
5.06484e-06
1.34384e-06
7.11739e-06
8.43023e-06
1.83038e-06
-7.68808e-06
7.06366e-06
-2.30435e-05
6.9954e-07
4.54226e-05
-7.59686e-06
4.29572e-05
-9.948e-06
2.20576e-05
-1.01541e-05
5.78056e-06
-8.15037e-06
-6.47095e-06
-5.37601e-06
-1.3282e-05
-3.92387e-06
-1.9601e-05
-6.54591e-06
-1.48193e-05
-9.97526e-07
-2.1987e-05
9.096e-07
-1.45414e-05
3.83394e-06
-1.14042e-05
3.67013e-06
-6.2507e-06
4.00075e-06
-2.98103e-06
3.64557e-06
1.59339e-06
2.70054e-06
6.00982e-06
1.45291e-06
8.36498e-06
9.88312e-06
8.07903e-06
-4.01385e-05
1.71267e-05
-4.27088e-05
2.32605e-05
-4.24679e-05
3.30531e-05
-3.97743e-05
3.80932e-05
-4.61102e-05
6.43312e-05
-5.63216e-05
7.53927e-05
-5.67762e-05
8.11121e-05
-6.30325e-05
9.06758e-05
-6.46999e-05
0.000104593
-7.35373e-05
0.000127043
-7.50789e-05
0.000150727
-8.33266e-05
0.000150437
-3.72478e-05
0.000169191
-6.17851e-05
0.000182658
-5.34612e-05
0.000194028
-3.09225e-05
0.000203961
-1.28158e-05
0.000215175
9.1695e-06
0.000224032
2.07576e-05
0.000247837
3.60296e-05
0.000192748
0.000101853
0.000276734
0.000118625
0.000337613
0.000256156
7.3769e-06
-4.75154e-05
1.63226e-05
-5.16546e-05
2.2534e-05
-4.86793e-05
4.25157e-05
-5.97559e-05
5.17575e-05
-5.5352e-05
5.97739e-05
-6.43379e-05
6.80843e-05
-6.50867e-05
7.46923e-05
-6.96404e-05
8.75286e-05
-7.75362e-05
0.000102092
-8.81011e-05
0.000125099
-9.80855e-05
0.000148853
-0.000107081
0.000157741
-4.61357e-05
0.000179224
-8.32684e-05
0.000199641
-7.38774e-05
0.000220662
-5.19437e-05
0.000245924
-3.80777e-05
0.000255199
-1.05758e-07
0.000250698
2.52585e-05
0.000189341
9.73864e-05
0.000250116
4.10785e-05
0.000268323
0.000100418
0.000209909
0.000396028
1.06379e-05
-5.81533e-05
2.06561e-05
-6.16728e-05
3.17729e-05
-5.97961e-05
3.94471e-05
-6.74301e-05
4.85842e-05
-6.44891e-05
5.53116e-05
-7.10653e-05
6.44489e-05
-7.4224e-05
7.33813e-05
-7.85727e-05
8.34781e-05
-8.7633e-05
9.51242e-05
-9.97473e-05
0.000123134
-0.000126095
0.000150947
-0.000134894
0.000160163
-5.53512e-05
0.000190187
-0.000113292
0.000219138
-0.000102828
0.00026027
-9.30764e-05
0.000289256
-6.70634e-05
0.000301428
-1.22779e-05
0.000317415
9.27161e-06
0.000338007
7.67947e-05
0.000277139
0.000101946
0.000255457
0.0001221
0.000186094
0.000279272
1.08214e-05
-6.89747e-05
2.07924e-05
-7.16438e-05
3.06515e-05
-6.96552e-05
3.73038e-05
-7.40825e-05
4.60533e-05
-7.32386e-05
5.35091e-05
-7.8521e-05
5.84661e-05
-7.91811e-05
6.35238e-05
-8.36304e-05
6.8669e-05
-9.27782e-05
8.2445e-05
-0.000113523
0.000117707
-0.000161357
0.000146014
-0.000163201
0.000163247
-7.25851e-05
0.000205969
-0.000156014
0.000254379
-0.000151238
0.000296585
-0.000135282
0.000319695
-9.01737e-05
0.000332994
-2.55774e-05
0.000346061
-3.79516e-06
0.000364599
5.82568e-05
0.000414715
5.18306e-05
0.000412087
0.000124727
0.000154342
0.000443839
9.67184e-06
-7.86466e-05
1.81323e-05
-8.01042e-05
2.71478e-05
-7.86707e-05
3.47659e-05
-8.17006e-05
4.25319e-05
-8.10046e-05
4.67698e-05
-8.27589e-05
4.96769e-05
-8.20882e-05
5.27663e-05
-8.67199e-05
5.3765e-05
-9.37769e-05
7.26913e-05
-0.00013245
0.00011745
-0.000206116
0.000146189
-0.00019194
0.000180912
-0.000107309
0.000228574
-0.000203676
0.000267402
-0.000190065
0.000295512
-0.000163392
0.000309976
-0.000104638
0.000323622
-3.92235e-05
0.00030725
1.25769e-05
0.000309073
5.64338e-05
0.000223712
0.000137192
0.000232744
0.000115696
4.77451e-05
0.000339341
9.35566e-06
-8.80022e-05
1.81368e-05
-8.88854e-05
2.7144e-05
-8.76778e-05
3.39162e-05
-8.84728e-05
3.96358e-05
-8.67242e-05
4.26833e-05
-8.58065e-05
4.29314e-05
-8.23363e-05
4.03281e-05
-8.41165e-05
3.67412e-05
-9.019e-05
7.58531e-05
-0.000171562
0.000122765
-0.000253028
0.000151647
-0.000220823
0.000189783
-0.000145444
0.000223552
-0.000237444
0.000218346
-0.000184859
0.00018128
-0.000126326
0.000152304
-7.56623e-05
0.000111834
1.24639e-06
0.000134239
-9.82851e-06
0.000155904
3.47695e-05
0.000222557
7.05382e-05
0.000315471
2.27823e-05
6.66912e-05
0.000296524
9.14889e-06
-9.71511e-05
1.76191e-05
-9.73557e-05
2.58391e-05
-9.58978e-05
3.3009e-05
-9.56427e-05
3.82754e-05
-9.19905e-05
4.032e-05
-8.78511e-05
3.57017e-05
-7.77179e-05
2.62159e-05
-7.46308e-05
3.02258e-05
-9.41998e-05
8.43467e-05
-0.000225682
0.000119629
-0.00028831
0.000139208
-0.000240402
0.000156199
-0.000162435
0.00010825
-0.000189495
5.74131e-05
-0.000134023
4.64083e-05
-0.000115321
7.79932e-05
-0.000107247
0.000103524
-2.42843e-05
0.000138165
-4.44693e-05
0.000252124
-7.91903e-05
0.000287019
3.5644e-05
0.000297706
1.20946e-05
5.3207e-05
0.00031119
9.37296e-06
-0.000106524
1.83583e-05
-0.000106341
2.7707e-05
-0.000105247
3.47483e-05
-0.000102684
4.07069e-05
-9.79491e-05
4.24248e-05
-8.9569e-05
3.31432e-05
-6.84363e-05
1.82876e-05
-5.97753e-05
3.06122e-05
-0.000106524
5.66372e-05
-0.000251707
6.63071e-05
-0.00029798
5.96021e-05
-0.000233697
4.67106e-05
-0.000149544
-2.1309e-06
-0.000140653
-2.03131e-05
-0.00011584
-1.18634e-05
-0.00012377
1.20942e-05
-0.000131205
7.9661e-05
-9.1851e-05
9.91429e-05
-6.39512e-05
9.17351e-05
-7.17826e-05
0.000155338
-2.79591e-05
0.000192789
-2.53564e-05
-2.57415e-05
0.000271738
1.00284e-05
-0.000116552
2.13638e-05
-0.000117676
3.03557e-05
-0.000114238
3.76012e-05
-0.000109929
4.28295e-05
-0.000103177
4.24566e-05
-8.91962e-05
3.06406e-05
-5.66203e-05
1.3021e-05
-4.21556e-05
1.05304e-05
-0.000104034
3.63762e-05
-0.000277553
5.07626e-05
-0.000312366
1.11592e-05
-0.000194093
-9.3288e-06
-0.000129056
-2.6661e-05
-0.000123321
-2.092e-05
-0.000121582
-2.74686e-05
-0.000117222
-1.87769e-06
-0.000156796
2.22921e-05
-0.000116021
6.4806e-05
-0.000106465
6.66463e-05
-7.36227e-05
8.45543e-05
-4.58671e-05
0.0001187
-5.95021e-05
-3.79932e-05
0.000130952
7.67422e-06
-0.000124227
1.36635e-05
-0.000123666
1.87128e-05
-0.000119288
2.30444e-05
-0.000114261
2.65935e-05
-0.000106726
2.92891e-05
-9.18918e-05
2.98584e-05
-5.71896e-05
2.59989e-05
-3.82961e-05
1.27699e-05
-9.08048e-05
3.17472e-05
-0.000296531
4.233e-05
-0.000322949
8.38458e-06
-0.000160148
-8.08489e-06
-0.000112586
-2.14537e-05
-0.000109952
-3.73465e-05
-0.000105689
-2.34114e-05
-0.000131157
3.13175e-05
-0.000211524
4.82849e-05
-0.000132988
2.99833e-05
-8.81634e-05
4.54122e-05
-8.90517e-05
0.00011368
-0.000114135
0.000103691
-4.95133e-05
-9.67725e-05
0.00016247
-4.42298e-07
-0.000123784
-5.92963e-07
-0.000123515
-5.46381e-07
-0.000119334
3.7812e-07
-0.000115186
3.35714e-06
-0.000109705
1.39643e-05
-0.000102499
4.38274e-05
-8.70527e-05
7.96232e-05
-7.40919e-05
8.02963e-05
-9.14778e-05
1.88372e-06
-0.000218118
-6.64495e-05
-0.000254616
-3.54556e-05
-0.000191142
-1.74531e-05
-0.000130589
-1.58745e-05
-0.000111531
1.52026e-05
-0.000136766
2.44186e-05
-0.000140373
3.31616e-05
-0.000220268
3.67398e-05
-0.000136567
3.94338e-05
-9.08575e-05
0.00011148
-0.000161098
0.000113243
-0.000115897
0.000198617
-0.000134888
-0.000112742
0.000214587
-1.4611e-06
-0.000122323
-1.50409e-06
-0.000123472
-1.44086e-06
-0.000119398
-1.34121e-06
-0.000115285
3.04192e-07
-0.000111351
1.13924e-05
-0.000113587
2.57032e-05
-0.000101364
4.26983e-05
-9.1087e-05
4.5647e-05
-9.44265e-05
8.22338e-06
-0.000180694
-1.66608e-05
-0.000229732
3.23952e-06
-0.000211042
8.7527e-06
-0.000136102
4.85185e-05
-0.000151297
6.92112e-05
-0.000157459
9.54248e-05
-0.000166587
3.61608e-05
-0.000161004
1.06218e-05
-0.000111027
8.43113e-05
-0.000164547
9.28776e-05
-0.000169665
0.000148658
-0.000171678
0.000171721
-0.000157951
-9.04528e-05
0.000149432
-4.71056e-08
-0.000122276
-1.04198e-06
-0.000122477
-2.36814e-06
-0.000118071
-3.93139e-06
-0.000113722
-8.40925e-07
-0.000114441
2.87492e-05
-0.000143177
6.19016e-05
-0.000134516
6.5476e-05
-9.46615e-05
7.26367e-05
-0.000101587
2.86832e-05
-0.000136741
-2.93369e-06
-0.000198115
3.22583e-05
-0.000246234
2.27302e-05
-0.000126574
2.83451e-05
-0.000156912
3.47572e-05
-0.000163871
0.000104823
-0.000236652
8.80288e-05
-0.000144209
0.000116888
-0.000139886
6.05302e-05
-0.000108189
8.87637e-05
-0.000197898
9.57428e-05
-0.000178657
9.55815e-05
-0.00015779
-0.000146172
0.000151301
1.06294e-05
-0.000132905
1.20378e-05
-0.000123886
2.04445e-05
-0.000126478
1.70709e-05
-0.000110348
1.25421e-05
-0.000109913
7.64533e-05
-0.000207089
7.28413e-05
-0.000130904
0.000114528
-0.000136348
0.000109835
-9.68945e-05
7.8455e-05
-0.000105361
4.45582e-05
-0.000164218
5.57949e-06
-0.000207255
3.41315e-05
-0.000155126
6.6604e-05
-0.000189384
6.46286e-05
-0.000161896
8.37662e-05
-0.00025579
8.209e-05
-0.000142533
9.28234e-05
-0.00015062
0.00013415
-0.000149516
0.000169564
-0.000233312
0.000183361
-0.000192454
0.000174937
-0.000149366
-0.000103297
0.000132061
8.65848e-06
-0.000141564
2.56375e-05
-0.000140865
4.08383e-05
-0.000141679
7.03438e-05
-0.000139854
0.000100798
-0.000140367
4.89553e-05
-0.000155246
6.36782e-05
-0.000145627
7.60731e-05
-0.000148743
0.000126071
-0.000146893
0.000135221
-0.000114511
0.000104555
-0.000133552
6.27665e-05
-0.000165467
9.44146e-05
-0.000186774
9.80499e-05
-0.00019302
0.000112579
-0.000176425
3.97321e-05
-0.000182943
0.000123879
-0.00022668
0.000101309
-0.00012805
0.000106779
-0.000154986
0.00011856
-0.000245093
0.00011753
-0.000191425
0.000115033
-0.000146869
-0.000187207
0.000198943
1.65594e-05
-0.000158123
3.52262e-05
-0.000159531
5.13955e-05
-0.000157848
6.49849e-05
-0.000153443
7.89128e-05
-0.000154295
8.54568e-05
-0.00016179
9.32778e-05
-0.000153448
9.57608e-05
-0.000151226
0.000103969
-0.000155101
0.000133188
-0.00014373
0.000136739
-0.000137104
0.000124155
-0.000152883
0.00011722
-0.00017984
0.000110536
-0.000186335
0.000114076
-0.000179965
8.92087e-05
-0.000158076
0.000119348
-0.000256819
0.000112631
-0.000121333
0.000182355
-0.00022471
0.000142924
-0.000205662
0.000144968
-0.000193468
0.000198073
-0.000199974
-0.000179486
0.000190352
4.85807e-05
-0.000206704
4.58861e-05
-0.000156837
4.74475e-05
-0.00015941
5.53528e-05
-0.000161348
6.70411e-05
-0.000165983
6.90523e-05
-0.000163801
7.34186e-05
-0.000157815
7.94179e-05
-0.000157225
8.20586e-05
-0.000157742
9.05097e-05
-0.000152182
0.000104267
-0.000150861
0.000108812
-0.000157427
9.91347e-05
-0.000170163
7.23387e-05
-0.000159539
0.000166813
-0.000274439
0.000170944
-0.000162207
0.000114922
-0.000200797
0.0001585
-0.000164911
0.00020488
-0.000271091
0.000231716
-0.000232497
0.000237784
-0.000199537
0.000220523
-0.000182713
-0.000184774
0.000225811
-1.45929e-05
-0.000192111
2.7931e-05
-0.000199361
6.99784e-05
-0.000201457
5.98143e-05
-0.000151184
4.69241e-05
-0.000153093
4.44178e-05
-0.000161295
6.02954e-05
-0.000173692
5.71575e-05
-0.000154088
6.56852e-05
-0.00016627
6.71316e-05
-0.000153628
7.49023e-05
-0.000158632
8.05677e-05
-0.000163092
6.66844e-05
-0.000156279
7.4694e-05
-0.000167549
0.000108447
-0.000308192
0.000114685
-0.000168445
8.86154e-05
-0.000174727
0.000190314
-0.00026661
0.000150827
-0.000231604
0.000155186
-0.000236856
0.0001792
-0.000223551
0.000247923
-0.000251436
-0.000202192
0.000265341
5.31399e-07
-0.000192643
6.94493e-06
-0.000205774
1.44583e-05
-0.00020897
4.457e-07
-0.000137172
6.18877e-05
-0.000214535
3.55818e-05
-0.000134989
2.06272e-05
-0.000158738
8.12188e-05
-0.000214679
5.5887e-05
-0.000140938
6.18035e-05
-0.000159545
6.89529e-05
-0.000165781
5.72157e-05
-0.000151355
8.07988e-05
-0.000179862
8.88071e-05
-0.000175557
6.69575e-05
-0.000286342
0.000149605
-0.000251093
0.000209755
-0.000234877
0.000211105
-0.00026796
0.000236399
-0.000256899
0.000250139
-0.000250595
0.00025708
-0.000230492
0.000186241
-0.000180597
-0.000198951
0.000183
-5.67092e-06
-0.000186972
-1.65795e-06
-0.000209787
-8.97744e-07
-0.000209731
2.16191e-05
-0.000159689
1.20853e-05
-0.000205001
5.8883e-05
-0.000181787
2.95899e-05
-0.000129445
1.67692e-05
-0.000201859
6.09959e-05
-0.000185165
5.04667e-05
-0.000149015
2.47251e-05
-0.00014004
7.56666e-05
-0.000202296
4.6101e-05
-0.000150297
0.00012999
-0.000259446
9.68193e-05
-0.000253172
0.000100091
-0.000254365
0.000117622
-0.000252408
0.000126867
-0.000277205
0.000142094
-0.000272127
0.000156537
-0.000265038
0.000178268
-0.000252223
0.000198543
-0.000200872
-0.00026316
0.000262751
-2.87301e-06
-0.000184099
3.99744e-06
-0.000216658
2.43779e-06
-0.000208171
3.57161e-06
-0.000160822
-1.28293e-07
-0.000201302
1.22084e-06
-0.000183136
3.98684e-05
-0.000168092
2.349e-05
-0.00018548
3.49786e-06
-0.000165172
5.54956e-05
-0.000201013
7.98599e-05
-0.000164404
4.13883e-05
-0.000163825
9.23693e-05
-0.000201278
8.4429e-05
-0.000251506
9.0823e-05
-0.000259566
9.99152e-05
-0.000263457
0.00011988
-0.000272372
0.000129844
-0.000287169
0.000153009
-0.000295291
0.000194301
-0.00030633
0.000176665
-0.000234586
0.000188497
-0.000212704
-0.000267651
0.000192989
-3.34996e-05
-0.000150599
-2.29537e-06
-0.000247862
1.4004e-05
-0.00022447
-8.69272e-06
-0.000138126
2.88487e-06
-0.000212879
3.27018e-06
-0.000183521
2.05988e-05
-0.000185421
1.41476e-05
-0.000179029
2.26921e-05
-0.000173717
3.18082e-05
-0.000210129
3.9144e-05
-0.00017174
6.52318e-05
-0.000189912
8.58717e-05
-0.000221918
0.000126159
-0.000291793
0.000149399
-0.000282806
0.000171272
-0.00028533
0.000190969
-0.000292069
0.000194269
-0.00029047
0.000191061
-0.000292083
0.00018688
-0.000302149
0.000204474
-0.00025218
0.000311972
-0.000320202
-0.000222645
0.000266966
3.74872e-05
-0.000188086
4.72927e-07
-0.000210848
-1.85729e-05
-0.000205424
2.57022e-05
-0.000182401
1.42123e-05
-0.000201389
1.95828e-05
-0.000188892
1.55638e-05
-0.000181402
9.57673e-06
-0.000173042
2.92799e-06
-0.000167068
6.66692e-05
-0.000273871
4.76124e-05
-0.000152683
1.1998e-05
-0.000154298
5.48956e-05
-0.000264815
6.80496e-05
-0.000304948
9.45209e-05
-0.000309277
0.000123651
-0.00031446
0.000118249
-0.000286667
0.000146503
-0.000318725
0.000236677
-0.000382257
0.000256054
-0.000321525
0.000175112
-0.000171238
0.000221647
-0.000366738
-0.000197851
0.000196854
5.92777e-06
-0.000194014
2.59608e-06
-0.000207516
2.07483e-06
-0.000204903
1.21102e-05
-0.000192436
1.20212e-05
-0.0002013
1.55065e-05
-0.000192377
2.4241e-05
-0.000190136
3.9175e-05
-0.000187976
6.97887e-05
-0.000197682
1.83001e-05
-0.000222382
5.3356e-05
-0.000187739
9.13158e-05
-0.000192258
4.28814e-05
-0.000216381
9.18084e-05
-0.000353875
0.000155966
-0.000373435
8.95688e-05
-0.000248062
0.000158078
-0.000355176
0.00019921
-0.000359857
0.000231535
-0.000414582
0.000175752
-0.000265742
0.00026848
-0.000263967
0.000152019
-0.000250277
-0.000218172
0.000172339
6.06889e-06
-0.000200083
4.74055e-06
-0.000206188
3.86836e-06
-0.000204031
1.1851e-05
-0.000200419
1.09237e-05
-0.000200373
1.64521e-05
-0.000197906
2.26398e-05
-0.000196324
3.73815e-05
-0.000202718
4.34268e-05
-0.000203727
3.37976e-05
-0.000212753
5.34271e-05
-0.000207368
6.40532e-05
-0.000202884
5.55067e-05
-0.000207835
9.22867e-05
-0.000390655
0.000110859
-0.000392007
9.73075e-05
-0.000234511
0.000117489
-0.000375357
0.000169202
-0.000411571
0.000188425
-0.000433805
0.000171998
-0.000249314
0.00016751
-0.000259479
0.000170488
-0.000253254
-0.000232563
0.000184879
3.96207e-06
-0.000204045
5.19334e-06
-0.000207419
8.5781e-06
-0.000207416
1.51066e-05
-0.000206947
1.90279e-05
-0.000204294
2.79712e-05
-0.000206849
3.74161e-05
-0.000205769
4.45573e-05
-0.000209859
5.00648e-05
-0.000209235
5.13407e-05
-0.000214029
5.91972e-05
-0.000215225
7.15422e-05
-0.000215229
8.22212e-05
-0.000218514
9.33876e-05
-0.000401821
9.51885e-05
-0.000393808
8.64546e-05
-0.000225777
0.000100687
-0.000389589
9.68051e-05
-0.000407689
0.00011912
-0.00045612
0.000147807
-0.000278002
0.000166019
-0.000277691
0.000182071
-0.000269306
-0.000252815
0.000202323
4.47407e-06
-0.000208519
8.57793e-06
-0.000211523
1.26425e-05
-0.00021148
1.69891e-05
-0.000211294
2.17465e-05
-0.000209052
2.65161e-05
-0.000211619
3.26048e-05
-0.000211858
3.69604e-05
-0.000214214
4.3083e-05
-0.000215357
4.81275e-05
-0.000219073
5.31849e-05
-0.000220282
6.19883e-05
-0.000224032
7.13984e-05
-0.000227924
7.54945e-05
-0.000405917
7.46418e-05
-0.000392955
0.000100556
-0.000251691
0.000129467
-0.000418501
0.00013099
-0.000409212
0.00014048
-0.000465611
0.000139702
-0.000277223
0.000166884
-0.000304873
0.00018738
-0.000289802
-0.000273868
0.000208432
3.07181e-06
-0.000211591
4.92673e-06
-0.000213378
7.9457e-06
-0.000214499
1.16693e-05
-0.000215017
1.96288e-05
-0.000217011
2.46282e-05
-0.000216618
3.05135e-05
-0.000217743
3.57013e-05
-0.000219402
4.11445e-05
-0.000220801
4.51005e-05
-0.000223029
5.10577e-05
-0.000226239
5.61423e-05
-0.000229117
6.5874e-05
-0.000237655
7.20616e-05
-0.000412105
6.94461e-05
-0.00039034
0.000193444
-0.000375688
8.74623e-05
-0.000312519
0.000116628
-0.000438377
0.000106119
-0.000455101
0.000131549
-0.000302653
0.000158362
-0.000331686
0.000185403
-0.000316842
-0.000297451
0.000208986
4.02347e-06
-0.000215614
8.21541e-06
-0.00021757
1.19856e-05
-0.000218269
1.59152e-05
-0.000218947
1.94397e-05
-0.000220536
2.38998e-05
-0.000221078
2.77222e-05
-0.000221566
3.1342e-05
-0.000223022
3.54016e-05
-0.00022486
3.92147e-05
-0.000226842
4.33309e-05
-0.000230356
4.75551e-05
-0.000233341
5.19208e-05
-0.000242021
5.30881e-05
-0.000413272
6.46873e-05
-0.000401939
0.000116417
-0.000427418
0.000102049
-0.000298152
0.000132779
-0.000469106
1.66473e-05
-0.00033897
0.000164354
-0.000450361
0.000159379
-0.00032671
0.000198053
-0.000355517
-0.000332388
0.00023299
3.43212e-06
-0.000219046
7.34063e-06
-0.000221478
1.09837e-05
-0.000221912
1.45239e-05
-0.000222487
1.75623e-05
-0.000223574
2.13031e-05
-0.000224819
2.45133e-05
-0.000224776
2.79011e-05
-0.00022641
3.06653e-05
-0.000227624
3.36925e-05
-0.000229869
3.72004e-05
-0.000233863
4.30775e-05
-0.000239218
4.56213e-05
-0.000244565
5.225e-05
-0.000419901
6.6376e-05
-0.000416065
6.78823e-05
-0.000428924
0.000187838
-0.000418108
4.4315e-05
-0.000325583
2.51829e-05
-0.000319838
6.54764e-05
-0.000490654
0.000241218
-0.000502452
0.000200809
-0.000315108
-0.000359353
0.000227774
3.20468e-06
-0.000222251
6.33198e-06
-0.000224605
9.69461e-06
-0.000225275
1.25632e-05
-0.000225356
1.64207e-05
-0.000227432
2.01964e-05
-0.000228594
2.25169e-05
-0.000227096
2.48152e-05
-0.000228708
2.72495e-05
-0.000230059
2.92967e-05
-0.000231916
3.17928e-05
-0.00023636
3.03714e-05
-0.000237797
3.07529e-05
-0.000244946
2.61065e-05
-0.000415254
4.2996e-05
-0.000432955
6.00743e-05
-0.000446003
9.89309e-05
-0.000456964
8.75247e-05
-0.000314177
7.46854e-05
-0.000306999
8.88776e-05
-0.000504846
0.000101657
-0.000515232
0.000142779
-0.000356229
-0.000407253
0.000190679
2.5103e-06
-0.000224761
5.16183e-06
-0.000227257
8.60717e-06
-0.00022872
1.16438e-05
-0.000228392
1.52813e-05
-0.000231069
1.76301e-05
-0.000230943
2.00065e-05
-0.000229473
2.18362e-05
-0.000230538
2.3979e-05
-0.000232201
2.50641e-05
-0.000233002
3.00559e-05
-0.000241351
2.86725e-05
-0.000236414
3.23712e-05
-0.000248645
2.25763e-05
-0.00040546
3.60084e-05
-0.000446387
6.18664e-05
-0.00047186
7.32983e-05
-0.000468396
7.44441e-05
-0.000315323
9.74892e-05
-0.000330044
0.000130836
-0.000538193
2.80403e-05
-0.000412437
0.000131282
-0.000459471
-0.000465152
0.000189181
1.81383e-06
-0.000226575
5.41971e-06
-0.000230863
7.71431e-06
-0.000231015
1.17761e-05
-0.000232454
1.42988e-05
-0.000233592
1.58229e-05
-0.000232467
1.81949e-05
-0.000231845
1.98908e-05
-0.000232234
2.09944e-05
-0.000233305
2.13774e-05
-0.000233385
2.58133e-05
-0.000245787
2.6555e-05
-0.000237155
2.63178e-05
-0.000248408
2.25025e-05
-0.000401644
3.75757e-05
-0.00046146
3.16527e-05
-0.000465937
1.75985e-05
-0.000454342
0.000135842
-0.000433567
0.000138106
-0.000332307
2.32851e-05
-0.000423372
3.17073e-05
-0.000420859
9.43889e-06
-0.000437202
-0.000629711
0.000173997
1.34575e-06
-0.000227921
5.08662e-06
-0.000234604
7.2148e-06
-0.000233143
1.09729e-05
-0.000236212
1.25362e-05
-0.000235155
1.46845e-05
-0.000234615
1.62868e-05
-0.000233447
1.87848e-05
-0.000234732
2.01069e-05
-0.000234627
2.14715e-05
-0.000234749
2.06591e-05
-0.000244975
2.34171e-05
-0.000239913
1.58394e-05
-0.00024083
1.86086e-05
-0.000404413
2.2721e-05
-0.000465572
1.58162e-05
-0.000459033
9.71532e-06
-0.000448241
3.38538e-05
-0.000457705
4.37973e-05
-0.000342251
-1.98775e-05
-0.000359698
3.57671e-05
-0.000476503
-3.55744e-06
-0.000397878
-0.000615451
-1.78173e-05
1.78083e-06
-0.000229702
3.82855e-06
-0.000236651
7.49478e-06
-0.000236809
9.27063e-06
-0.000237988
1.11817e-05
-0.000237066
1.26898e-05
-0.000236123
1.3796e-05
-0.000234553
1.69905e-05
-0.000237926
1.95942e-05
-0.000237231
2.17815e-05
-0.000236936
1.79521e-05
-0.000241145
2.10304e-05
-0.000242992
1.58413e-05
-0.000235641
1.96125e-05
-0.000408185
1.35987e-05
-0.000459558
1.51697e-06
-0.000446951
-8.22126e-06
-0.000438503
-1.21189e-05
-0.000453807
6.10128e-05
-0.000415383
3.66264e-06
-0.000302347
-3.28967e-05
-0.000439944
-7.8019e-05
-0.000352756
-0.000603158
-9.03118e-05
2.45555e-06
-0.000232157
3.57732e-06
-0.000237773
6.45985e-06
-0.000239692
8.00851e-06
-0.000239537
8.83221e-06
-0.00023789
1.0462e-05
-0.000237753
1.23849e-05
-0.000236476
1.48311e-05
-0.000240372
1.85442e-05
-0.000240944
2.18343e-05
-0.000240227
1.80093e-05
-0.00023732
1.74822e-05
-0.000242464
1.6567e-05
-0.000234726
1.53528e-05
-0.00040697
4.85102e-07
-0.000444691
-6.52459e-06
-0.000439941
-9.41165e-06
-0.000435616
-7.27852e-06
-0.000455941
1.41433e-05
-0.000436804
-4.6952e-06
-0.000283509
-0.000110222
-0.000334417
-2.39097e-05
-0.000439068
-0.000399302
-0.000227765
2.34306e-06
-0.0002345
3.58723e-06
-0.000239017
5.06363e-06
-0.000241168
6.43566e-06
-0.000240909
7.01053e-06
-0.000238465
8.82974e-06
-0.000239573
1.15822e-05
-0.000239229
1.52502e-05
-0.00024404
1.83719e-05
-0.000244066
2.19818e-05
-0.000243836
2.26138e-05
-0.000237952
2.51617e-05
-0.000245012
2.19161e-05
-0.000231481
1.48747e-06
-0.000386542
-1.80684e-05
-0.000425135
-9.99415e-06
-0.000448015
-1.69592e-05
-0.000428651
-2.55634e-05
-0.000447336
-2.27806e-05
-0.000439587
-4.05501e-05
-0.000265739