/*--------------------------------*- C++ -*----------------------------------*\
| =========                 |                                                 |
| \\      /  F ield         | foam-extend: Open Source CFD                    |
|  \\    /   O peration     | Version:     4.1                                |
|   \\  /    A nd           | Web:         http://www.foam-extend.org         |
|    \\/     M anipulation  |                                                 |
\*---------------------------------------------------------------------------*/
FoamFile
{
    version     2.0;
    format      ascii;
    class       volScalarField;
    location    "0.2";
    object      psi;
}
// * * * * * * * * * * * * * * * * * * * * * * * * * * * * * * * * * * * * * //

dimensions      [1 -1 -2 0 0 0 0];

internalField   nonuniform List<scalar> 
2268
(
-9.4584e-09
-1.65738e-07
-9.92127e-08
1.23559e-06
5.7088e-06
1.10333e-05
1.09603e-05
-4.24193e-06
-8.01938e-05
-0.000286706
-0.000577595
-0.000908712
-0.00108727
-0.00114623
-0.00138014
-0.00162282
-0.00084096
0.00452526
0.0237433
0.0794387
0.152943
0.228194
-1.1232
-1.19471e-07
-3.053e-07
-3.21238e-07
8.29887e-07
4.89303e-06
1.08085e-05
8.8554e-06
-4.7794e-06
-6.88105e-05
-0.000198477
-0.000439274
-0.000860253
-0.00107372
-0.00118045
-0.00148237
-0.00141624
0.00157246
0.0146668
0.0426749
0.095206
0.152151
0.217825
-1.17151
-8.00467e-07
-1.05474e-06
-1.35876e-06
-6.71714e-07
2.60376e-06
8.25848e-06
4.51043e-06
-4.93918e-06
-4.89592e-05
-0.000141995
-0.000407458
-0.00086433
-0.00105056
-0.00125291
-0.00146238
-0.00067677
0.00203227
0.0120473
0.0356222
0.0868867
0.147263
0.218542
-1.26261
-2.58981e-06
-2.80601e-06
-3.61751e-06
-3.6429e-06
-1.20147e-06
3.33256e-06
7.49385e-07
1.4026e-06
-3.30545e-06
-7.84556e-05
-0.000469489
-0.000906108
-0.00107685
-0.00144041
-0.00122291
0.00125969
0.00669205
0.0194345
0.0423297
0.0855688
0.142292
0.213909
-1.36162
-4.16785e-06
-3.90692e-06
-4.69186e-06
-4.52163e-06
-9.34462e-07
6.55488e-06
2.24545e-05
4.95983e-05
9.43549e-05
-3.43487e-05
-0.000555391
-0.000797139
-0.00118258
-0.00158677
-0.000302863
0.00508263
0.0150828
0.0324032
0.0566143
0.0877636
0.139204
0.223991
-1.42005
2.41271e-06
4.09887e-06
6.11587e-06
1.23956e-05
2.42467e-05
5.35136e-05
0.000118127
0.000239763
0.000390705
0.000120376
-0.000347405
-0.000378938
-0.000902602
-0.00101384
0.00275525
0.0124481
0.0280322
0.0488247
0.0722798
0.0885945
0.135669
0.252314
-1.46935
3.35584e-05
4.28873e-05
5.22669e-05
8.36592e-05
0.000119917
0.000222137
0.000409769
0.000692179
0.00100045
0.000507406
0.000595868
0.000949592
0.00042301
0.00220856
0.0108317
0.0262994
0.0478809
0.0703613
0.0852354
0.0882287
0.128519
0.207035
-1.50097
0.000127919
0.000141632
0.000176978
0.000247842
0.000326869
0.000552373
0.000910283
0.00139491
0.00161522
0.000683549
0.00195385
0.00357122
0.00276126
0.00973807
0.0254988
0.0478406
0.0728242
0.090247
0.0919924
0.0867298
0.118528
0.261038
-1.41139
-0.00637676
-0.00360528
-0.000140778
0.000314601
6.17005e-05
-2.32972e-06
-1.99076e-06
-1.75059e-07
1.92827e-08
4.34273e-09
3.71353e-11
-4.75301e-11
-1.79934e-12
4.91629e-13
2.43882e-14
-3.13334e-14
6.46429e-14
1.59784e-13
6.50384e-14
-0.0051062
-0.00635292
-0.00217664
1.75158e-05
9.67382e-05
1.36732e-05
-7.07256e-07
-3.45904e-07
-1.95205e-08
3.48901e-09
3.99175e-10
-3.24342e-11
-4.64101e-12
6.06203e-13
1.08899e-13
-8.63358e-15
4.02086e-14
1.12866e-13
7.92884e-14
0.0170032
-0.000452882
-0.00480992
-0.000972741
3.8659e-05
3.45333e-05
3.52723e-06
-2.85224e-07
-8.17639e-08
-1.44779e-09
8.80152e-10
1.56644e-11
-1.20446e-11
1.1167e-13
2.16362e-13
-5.44103e-14
1.44145e-14
1.63634e-13
7.49071e-14
0.0807924
0.0303897
-0.00288125
-0.00244905
-0.000282698
2.89887e-05
9.95267e-06
5.19008e-07
-1.10085e-07
-1.26475e-08
1.06759e-09
1.41228e-10
-2.17025e-11
-2.30732e-12
4.0759e-13
2.78502e-14
-8.39816e-14
6.53144e-14
5.64891e-14
0.161962
0.0914464
0.0142108
-0.00266953
-0.000867128
-5.85339e-05
1.07755e-05
2.15149e-06
3.25976e-09
-2.64269e-08
2.05393e-10
4.10039e-10
-1.5178e-11
-7.8256e-12
3.14257e-14
8.80136e-14
3.75859e-14
1.35667e-13
6.1071e-14
0.0532681
0.111508
0.0506169
0.00300902
-0.00109064
-0.000237805
-8.68052e-06
2.99312e-06
3.2262e-07
-2.95735e-08
-2.93502e-09
8.07182e-10
5.25755e-11
-1.41112e-11
-1.26436e-12
1.1241e-13
6.56253e-14
8.90439e-14
2.19677e-14
-0.740267
-0.0902234
0.0833552
0.0186266
0.000636007
-0.000317723
-5.30691e-05
-1.7951e-07
6.67159e-07
-6.38414e-09
-9.74974e-09
9.62019e-10
2.38044e-10
-1.07188e-11
-3.85447e-12
1.62222e-14
1.02687e-13
1.26193e-13
6.54723e-14
-2.75903
-0.636121
0.0284858
0.0351661
0.00542054
0.000140458
-7.27416e-05
-9.43904e-06
5.00463e-07
4.80292e-08
-2.1646e-08
-3.84968e-10
5.37367e-10
2.3892e-11
-6.36098e-12
-5.1587e-13
1.19557e-13
1.22816e-13
1.16483e-13
0.000362531
0.000346718
0.00046045
0.00052547
0.000686801
0.000859532
0.00140021
0.00158735
-0.000392404
-0.00264276
0.00162197
0.00390663
0.00601858
0.0260951
0.054227
0.0892184
0.101103
0.103522
0.0942054
0.0639559
0.0639761
0.17649
-0.960967
0.00181743
0.00154262
0.00215211
0.00138586
0.00251107
0.00247999
0.00322622
0.00117497
-0.0127049
-0.0138381
0.00349797
-0.00945303
0.0310167
0.0933833
0.1073
0.145751
0.105142
0.1228
0.0537494
0.00148258
-0.0865489
-0.0283997
-0.693449
0.00205733
0.000339536
0.00173269
-0.00261625
-0.00123632
-0.00562435
-0.0142394
-0.0379484
-0.0942048
-0.0738127
-0.0441003
-0.239961
0.0954348
0.028008
0.00299308
-0.0385253
-0.401451
-0.359701
-0.332975
-0.113048
-0.302979
-0.345197
-0.47154
-0.0217274
-0.0283564
-0.0274165
-0.0432501
-0.0503899
-0.0766845
-0.128958
-0.233724
-0.355627
-0.251504
-0.336614
-1.1588
0.00562574
-0.503149
-0.765452
-0.858748
-1.46804
-1.21112
-1.24161
-0.790179
-1.04194
-1.35192
-0.974505
-0.155601
-0.173405
-0.180532
-0.227848
-0.266678
-0.351027
-0.527478
-0.787906
-0.852576
-0.510415
-1.06573
-2.90249
0.0605528
-1.25552
-1.30008
-0.818533
-0.980568
-0.525482
-0.546092
-0.931462
-1.65936
-0.994804
-1.38463
-0.576175
-0.611686
-0.638356
-0.730852
-0.815041
-0.986378
-1.36155
-1.64578
-1.22169
-0.422613
-1.64148
-2.34925
0.646134
-0.0237948
0.541535
1.19603
0.333372
1.02316
0.747907
0.786529
1.57802
1.81101
0.0967252
-1.30005
-1.33844
-1.36221
-1.46351
-1.5028
-1.66988
-2.13282
-1.90937
-0.345406
-0.187938
-0.513988
0.397604
2.43715
1.80871
0.902789
0.382788
-0.459206
1.08425
0.389601
0.0881396
0.355922
-0.181886
0.435813
-1.26123
-1.2577
-1.20095
-1.17641
-1.03265
-1.06576
-1.22046
-0.031977
1.21111
0.243778
0.452886
1.15225
2.18206
0.887138
0.0206263
-0.20378
-0.348962
0.204223
0.146774
-0.191979
-0.0361376
-0.00885732
0.254686
0.739287
0.73997
0.882012
0.966959
1.10369
0.946779
1.27751
2.7226
1.89461
0.71266
0.833165
0.883015
0.94427
-0.0571117
-0.218892
-0.148884
-0.0830815
-0.0492913
-0.0399977
-0.0555741
-0.0908192
-0.0999708
0.00646643
1.31536
1.2887
1.32645
1.28067
1.22792
1.05108
1.51235
2.65235
1.68208
1.01734
0.755254
0.444643
0.208702
-0.102519
-0.103026
-0.0553045
-0.0144117
-0.0149407
-0.0128819
-0.0130638
-0.0206145
-0.0365004
-0.0311272
0.614407
0.601401
0.595291
0.538962
0.467144
0.290224
0.257553
0.562211
0.790003
0.921308
0.551604
0.119429
0.0116291
-0.0647539
-0.0580693
-0.0233136
-0.00329256
-0.0019394
-0.000882844
0.00033157
0.000277721
-0.00256093
-0.0100612
0.164627
0.155368
0.145342
0.118847
0.0839386
-0.0182783
-0.128211
-0.0965148
0.190654
0.551704
0.455202
0.0890812
0.0136834
-0.0383266
-0.0348701
-0.0189974
-0.00507257
8.56299e-05
0.000625806
0.000739922
0.000628257
-6.28716e-06
0.00821924
-0.00792534
-0.011012
-0.0138606
-0.0196649
-0.0253215
-0.0530436
-0.0907145
-0.104789
-0.0428051
0.193019
0.234692
0.0448582
-0.00400025
-0.0352334
-0.0279865
-0.0135662
-0.00423731
-0.000843656
3.21226e-05
9.48351e-05
-0.000343293
-0.000940479
0.00364746
-0.0389833
-0.0380757
-0.0373178
-0.0366836
-0.0352893
-0.0353139
-0.0494557
-0.0611183
-0.0649912
0.00745964
0.0899986
0.026651
-0.0167589
-0.0326716
-0.0249575
-0.0127475
-0.00250622
-2.82769e-05
0.000300328
0.000120586
-0.000106688
-0.000432708
0.00123673
-0.0342987
-0.0340539
-0.0335016
-0.0337105
-0.0332946
-0.0292588
-0.0262369
-0.0355004
-0.0489823
-0.0432379
-0.00114729
-0.00269693
-0.0155665
-0.0233288
-0.0202194
-0.0109718
-0.00145716
-0.000421637
0.000166545
0.000115527
-9.36945e-06
-0.000107745
0.00080015
-0.0147011
-0.0139059
-0.0124031
-0.0114085
-0.00942415
-0.00570486
-0.00571164
-0.00674674
-0.0205614
-0.0347892
-0.0255767
-0.0183156
-0.019321
-0.0192109
-0.0124874
-0.00592541
-0.00148223
-0.000487659
5.47805e-05
5.34516e-05
7.53494e-06
-3.47529e-05
5.61964e-05
0.000509939
-4.32908e-05
0.000169377
-4.37389e-05
0.0001121
0.000119503
-0.000412155
-0.000949911
-0.00341845
-0.0148653
-0.0226656
-0.0213492
-0.0183091
-0.0125652
-0.000869034
-0.00150805
-0.000280754
-2.64152e-05
4.46038e-05
3.20681e-05
1.06155e-05
-1.28692e-05
-1.0056e-05
0.000685349
0.000729922
0.00077507
0.000603013
0.000655109
0.000568479
0.000383048
0.000392681
0.000231547
-0.00217219
-0.00518532
-0.00502377
-0.00415894
-0.00256981
0.000718136
0.000172993
0.000122242
8.61576e-05
4.17238e-05
1.96213e-05
1.42986e-06
-9.60594e-06
-2.32299e-05
0.000323485
0.000354339
0.000372334
0.0003677
0.000436786
0.000417612
0.000369593
0.00049304
0.000500592
5.16893e-05
-0.000367832
-0.000195927
-0.000106303
-9.96425e-05
0.000209718
0.000108659
4.5059e-05
2.95607e-05
1.04018e-05
4.93449e-06
-1.07723e-06
-7.73621e-06
-4.97625e-06
0.000211632
0.000148162
0.000141553
0.000260958
0.00018866
0.000324369
0.000381204
0.000384119
0.000277477
0.000169489
0.00012125
0.000257853
0.000132534
0.000114068
4.18427e-05
2.55422e-05
2.52431e-05
6.70567e-06
1.45707e-08
-2.0037e-07
-1.37405e-06
-7.05381e-06
-4.60251e-06
1.86454e-05
-6.34929e-06
-7.58266e-06
2.58656e-05
-6.57695e-06
5.92665e-05
0.000151592
0.000161093
0.000210541
9.78765e-05
8.72776e-05
8.03715e-05
3.8343e-05
2.61229e-05
1.29932e-05
1.02359e-05
2.79406e-06
-6.18509e-07
-5.91669e-07
-1.18096e-07
-1.0109e-07
-6.91092e-06
-7.18599e-06
-3.1264e-06
-8.36e-06
-8.74149e-06
-3.03851e-06
-1.33327e-05
-4.33727e-06
3.52095e-06
1.5998e-05
4.15475e-05
3.33364e-05
5.7612e-05
3.73425e-05
1.51302e-05
6.08801e-06
8.45352e-07
-2.54883e-07
-5.30239e-07
-3.64162e-07
-1.84141e-07
-1.79608e-08
3.08087e-07
-3.91648e-06
-1.22594e-05
-3.10602e-06
-3.21184e-06
-3.71365e-06
-3.96422e-06
-5.68933e-06
-6.63377e-06
-7.23846e-06
-4.29396e-06
-6.53553e-07
-1.02731e-05
6.06744e-07
8.83611e-07
-1.83617e-06
-1.41113e-06
-6.15348e-07
-4.45982e-07
-2.45601e-07
-1.42264e-07
-8.97339e-08
5.95811e-08
4.35161e-07
-9.38371e-07
-3.43096e-06
-2.19526e-06
-1.68239e-06
-1.76006e-06
-2.78706e-06
-3.25383e-06
-4.2682e-06
-4.10867e-06
-3.76078e-06
-3.08604e-06
-3.41177e-06
-2.11966e-06
-1.30384e-06
-6.22508e-07
-2.63847e-07
-1.01722e-07
-1.19522e-07
-7.73889e-08
-1.17158e-08
-7.48936e-09
9.73218e-08
7.71897e-07
1.70139e-06
-2.25291e-05
1.86376e-08
9.08812e-08
1.13783e-07
9.24554e-08
-4.94857e-08
-9.29448e-07
-2.23284e-06
-2.64242e-06
-2.31695e-06
-1.8208e-06
-1.36843e-06
-7.94243e-07
-3.40924e-07
-3.35519e-08
1.8067e-08
-1.27673e-08
6.16862e-09
1.4723e-09
-1.14022e-08
1.21337e-07
1.00399e-06
2.99386e-06
-3.51578e-05
7.74691e-08
8.27065e-08
9.44999e-08
1.22654e-07
1.38923e-07
9.99941e-08
4.24888e-09
-1.29338e-07
-2.13524e-07
-6.44359e-08
-5.64765e-08
-7.31202e-08
-2.31293e-08
2.71786e-08
7.73054e-09
9.0309e-10
2.1649e-09
-1.97115e-09
-1.32065e-08
1.71224e-07
1.09925e-06
3.8131e-06
-3.33558e-05
3.56867e-08
3.85227e-08
4.47676e-08
5.53314e-08
5.64725e-08
6.59122e-08
7.2891e-08
6.90858e-08
6.38906e-08
7.94373e-08
7.13531e-08
4.9328e-08
2.79243e-08
6.66072e-09
1.36458e-09
3.51179e-10
2.704e-12
-1.94998e-09
2.15176e-11
1.53505e-07
1.09782e-06
2.58663e-06
-3.36404e-05
5.28101e-09
3.90174e-09
4.71003e-09
1.00676e-08
2.39793e-08
3.09173e-08
3.06391e-08
3.36535e-08
3.27366e-08
3.54382e-08
3.31144e-08
2.713e-08
1.455e-08
-2.11076e-09
-6.18967e-10
-6.29276e-11
-4.21629e-10
-1.28782e-09
2.28153e-08
2.11634e-07
9.28764e-07
-2.43682e-07
-4.92814e-05
-1.55484e-09
-1.71214e-09
-2.01397e-09
-2.27315e-09
-1.76468e-09
2.66967e-09
1.24255e-08
1.69637e-08
1.38799e-08
5.41639e-09
-2.21026e-10
-2.75738e-09
-2.39635e-09
-7.2295e-10
-7.39257e-11
-3.98148e-11
-5.39006e-10
-1.27127e-09
3.5454e-08
3.07582e-07
1.04471e-06
-5.05067e-06
-5.60645e-05
-6.43062e-10
-6.88802e-10
-7.99201e-10
-9.25133e-10
-1.12386e-09
-1.0899e-09
-1.12586e-09
-1.31102e-09
-1.48e-09
-1.40317e-09
-1.29744e-09
-9.82414e-10
-7.46075e-10
1.75196e-11
3.79048e-11
-2.86599e-11
-7.08521e-10
-2.91486e-09
4.79222e-08
4.00882e-07
1.63628e-06
-3.5481e-06
-0.000134271
-1.43133e-10
-1.4213e-10
-1.98574e-10
-3.65211e-10
-4.49697e-10
-4.23103e-10
-4.97566e-10
-5.5476e-10
-5.23537e-10
-5.404e-10
-4.70382e-10
-3.61256e-10
-2.47204e-11
4.18798e-11
1.25204e-11
-2.05582e-11
-7.36265e-10
-3.8175e-09
3.79067e-08
5.42317e-07
2.48413e-06
-4.50917e-06
-0.000221098
2.62855e-11
2.99022e-11
3.52543e-11
3.4898e-11
-3.78742e-12
-1.27135e-10
-2.02195e-10
-2.17302e-10
-2.01149e-10
-9.7542e-11
4.62288e-12
3.82475e-11
2.87982e-11
7.72486e-12
2.48663e-12
1.16663e-11
-4.13338e-10
-3.65857e-09
1.27353e-08
3.78759e-07
3.49101e-06
-7.24487e-07
-0.000270366
8.09595e-12
9.12404e-12
1.10359e-11
1.4209e-11
1.70997e-11
2.1111e-11
2.06037e-11
1.65251e-11
2.09873e-11
1.88661e-11
1.66638e-11
1.35352e-11
8.91758e-12
-1.06051e-12
9.86707e-13
9.62273e-12
-1.46136e-10
-1.94909e-09
2.28142e-09
2.53087e-07
2.22552e-06
-1.92319e-06
-0.000232552
2.39225e-12
2.39583e-12
3.32139e-12
5.01938e-12
5.80086e-12
7.08234e-12
5.77501e-12
5.64205e-12
5.66428e-12
6.45725e-12
5.3595e-12
4.43293e-12
3.81052e-13
-5.42373e-13
4.95237e-13
2.67633e-12
-9.39732e-11
-8.50348e-10
9.37446e-09
1.5412e-07
1.10087e-06
-5.08057e-06
-0.000200747
-3.56657e-13
-3.69811e-13
-4.21384e-13
-4.31489e-13
4.62676e-14
9.22136e-13
1.91346e-12
1.94627e-12
1.6731e-12
9.15226e-13
7.60851e-14
-2.16814e-13
-2.20818e-13
-1.09184e-13
2.77243e-13
1.54889e-12
-4.78674e-11
-5.67457e-10
6.28625e-09
1.4803e-07
5.49019e-07
-5.14032e-06
-0.000139731
-1.05178e-13
-6.7788e-14
-6.35656e-14
-1.13702e-13
-1.14149e-13
-1.71195e-13
-2.09155e-13
-1.93077e-13
-2.55411e-13
-2.19928e-13
-1.36718e-13
-1.51641e-14
1.48742e-14
8.98244e-14
7.6231e-14
1.91035e-12
-2.75503e-12
-3.80358e-10
-2.40395e-09
5.95527e-08
5.9412e-07
3.55546e-06
-5.64987e-05
-1.4266e-14
3.78707e-14
1.06673e-14
-8.55767e-15
5.07261e-14
3.71829e-14
1.75432e-14
-8.91828e-15
-2.6613e-14
-9.82266e-14
-2.02437e-14
9.31247e-14
1.14735e-13
9.90649e-14
-5.99998e-14
5.74911e-13
9.42078e-12
-7.5352e-11
-2.03819e-09
-2.64197e-09
2.22276e-07
2.75076e-06
-2.52186e-06
3.24654e-14
2.47283e-14
4.60308e-14
6.04739e-14
7.95993e-14
1.48272e-13
1.41182e-13
2.26117e-14
1.13084e-13
1.01232e-13
1.34153e-13
8.30742e-14
1.02413e-13
6.56616e-14
-4.94093e-15
-1.4503e-13
2.44053e-12
2.0306e-11
-3.34828e-10
-3.75567e-09
2.0161e-08
7.1496e-07
4.50169e-06
2.56879e-14
4.36554e-14
2.49637e-14
6.33367e-14
4.36124e-14
1.36425e-13
1.37928e-13
3.77274e-14
1.18801e-13
6.2187e-14
1.58215e-13
1.05847e-13
-3.0144e-15
4.90063e-14
-4.85204e-14
-1.07487e-13
-5.98033e-14
6.9754e-12
4.7746e-11
-9.15058e-10
-1.05367e-08
2.78358e-08
1.5467e-06
1.66188e-13
4.25736e-14
7.80346e-14
4.13888e-14
-3.82198e-14
1.62297e-13
1.22124e-13
4.77659e-14
-3.80643e-15
1.0884e-13
8.21535e-14
3.51786e-14
1.63505e-14
3.96464e-14
1.82475e-14
-8.85798e-14
-4.89518e-14
-7.19519e-15
1.5895e-11
1.01593e-10
-1.49661e-09
-2.28597e-08
-1.62761e-08
1.50463e-13
1.20218e-14
1.15375e-14
4.58371e-14
-1.78252e-14
1.58475e-13
2.52739e-13
4.59171e-14
2.50893e-14
8.08861e-14
2.81376e-14
8.20156e-14
7.6595e-14
1.13247e-14
-7.5236e-14
-4.36447e-14
2.22907e-14
-5.19945e-14
-3.53048e-13
2.49682e-11
1.89265e-10
-1.72969e-09
-3.14016e-08
2.14799e-13
2.322e-14
5.00246e-14
-5.25624e-15
-2.34781e-14
1.2857e-13
2.99878e-13
1.47786e-13
-3.76043e-15
-1.4824e-14
9.01877e-14
6.90033e-14
1.10934e-13
9.74276e-15
-6.30892e-14
-4.36023e-14
-9.89078e-15
1.66073e-13
-3.29377e-13
-1.37227e-12
3.8854e-11
3.12533e-10
-1.92307e-09
0.755838
4.32888
4.1728
-6.90101
-0.295511
0.646319
2.85427
5.40322
-0.503366
-0.447086
-0.0564348
1.10341
-0.73464
-0.969011
-0.663292
-0.670166
-1.17458
-1.27141
-0.813646
-1.38093
-0.762808
-0.884456
-0.30332
-1.76866
0.327565
0.665541
0.9358
-0.471382
0.331608
0.783058
0.863289
0.760552
0.322531
0.957219
1.64357
2.13115
-0.0886482
0.0240509
0.593124
1.12356
-0.0752566
-0.139385
0.0217894
0.406454
0.00434118
0.000312792
0.0702688
0.215388
-0.00278199
-0.00712198
0.0142162
0.0604966
-9.73253e-05
-0.00433047
-0.0171027
-0.0328228
0.00241468
0.0040621
-0.00348364
-0.0402824
0.00141382
0.00301896
0.00105246
-0.0206073
0.000773532
0.0020223
0.000144907
-0.0163336
0.000423851
0.00134547
0.00141378
-0.00990137
0.000298957
0.000931154
0.00132906
-0.0054902
0.000263108
0.000807161
0.000463751
-0.00604003
0.000291444
0.000736295
0.000102725
-0.0057167
0.000194322
0.000613146
-0.000164908
-0.00579433
0.000175744
0.000410181
-0.000684647
-0.00483596
0.000118841
0.000253908
-0.00065072
-0.00388469
8.50726e-06
0.000153369
0.000160962
-0.00209807
-9.86108e-05
-0.000101
0.000267899
-0.000333652
-0.000186713
-0.000397915
-4.29517e-05
0.0013428
-0.000287296
-0.000727951
-9.41938e-05
0.00406057
-0.000446311
-0.00109542
-0.000742544
0.00556994
-0.000952231
-0.0019157
-0.000629206
0.00994824
-0.00154112
-0.00289071
-0.00212875
0.00691858
-0.00215884
-0.00360501
-0.00182973
0.00648023
-0.00291012
-0.00465761
-0.000489416
0.0167144
-0.00257562
-0.00476473
-0.00257986
0.016051
-0.00165698
-0.00355093
-0.00418811
0.00497393
-0.00082696
-0.00235425
-0.00411378
-0.00325448
-0.000246705
-0.000848187
-0.00222557
-0.00378077
-1.61906e-05
-0.000195677
-0.000820135
-0.00196678
1.12569e-05
-4.92509e-06
-0.000130777
-0.000481277
1.91427e-06
4.86246e-06
-1.562e-06
-5.8728e-05
-1.06709e-08
6.64711e-07
2.05045e-06
7.92647e-07
-3.40475e-08
-2.25506e-08
1.59582e-07
6.83768e-07
-7.4456
-1.79044
-0.391977
0.00450011
0.0105742
0.00180157
7.80886e-05
-2.07427e-05
-1.15269e-06
1.85945e-07
-4.04629e-08
-7.35371e-09
8.08002e-10
1.57191e-10
-4.32494e-12
-1.83103e-12
-3.25023e-14
2.10511e-13
9.51994e-15
-0.0939702
-2.99467
-3.1582
-0.757115
-0.0872551
-0.000988821
0.00118454
0.000100534
-5.1125e-06
4.97723e-07
1.10415e-08
-4.79049e-08
-2.81615e-09
5.91919e-10
6.26605e-11
-3.24465e-12
-6.91665e-13
1.64083e-13
1.30153e-13
1.77414
2.4609
0.699215
-0.840626
-0.279125
-0.0495051
-0.00294679
0.000706102
4.89944e-05
3.65672e-06
8.47656e-07
-7.31742e-08
-2.71619e-08
-7.30089e-10
2.48258e-10
1.727e-11
-1.10882e-12
-1.59703e-14
-2.50574e-14
-0.490335
0.703343
1.16571
-0.885528
-1.68523
-0.516939
-0.0629285
-0.00190622
0.000170803
2.08522e-05
5.73463e-06
5.32984e-07
-3.98335e-08
-1.06228e-08
-2.31965e-10
6.84058e-11
3.51735e-12
-2.98293e-13
-8.08992e-15
-1.21434
-1.53509
-0.148888
3.45268
2.77345
0.0529078
-0.0458172
-0.0255421
-0.00238155
-9.77139e-05
7.28389e-06
3.70859e-06
2.71745e-07
-1.4986e-08
-3.11236e-09
-4.63288e-11
1.41143e-11
4.49699e-13
-4.09733e-14
-0.46622
-1.57014
-1.18134
-0.344546
1.39578
0.166107
-0.152164
-0.0447598
-0.0049786
-0.000871724
-0.000140023
3.7382e-06
1.80385e-06
1.03065e-07
-4.56695e-09
-6.91569e-10
-2.78645e-12
2.1125e-12
-8.69387e-14
0.0483793
-0.920445
-1.17943
0.55748
1.5737
0.725474
0.0720617
-0.0773121
-0.0106853
-0.00351113
-0.00115118
-7.50911e-05
2.44602e-06
6.39397e-07
2.44604e-08
-1.50427e-09
-1.08419e-10
2.3917e-12
2.53154e-13
0.52298
1.41139
0.0415008
0.456699
2.72193
1.31826
0.288544
0.017597
0.0519889
0.00456616
-0.00337969
-0.000620779
-3.22547e-05
6.74804e-07
1.44696e-07
3.16566e-09
-2.77476e-10
-1.07476e-11
4.49824e-13
0.946869
1.11952
1.45331
1.12522
2.96991
2.10888
0.789454
0.482132
0.173916
0.039688
0.00301026
-0.000459286
-0.000120224
-7.28524e-06
-7.0881e-08
1.14885e-08
4.1313e-10
-4.19123e-12
-3.36473e-13
0.311138
1.29737
3.17005
2.17293
3.11121
2.52308
1.41943
0.452968
0.0762041
-0.0137886
-0.00567906
-0.00070877
-3.45987e-05
5.42309e-07
1.61923e-07
5.02162e-09
-2.83043e-10
-6.61098e-12
1.77557e-12
-0.0486076
0.13984
3.60057
3.18365
3.50346
2.5285
1.15839
0.404937
0.0843733
0.0100461
-0.000488031
-0.000399459
-4.58697e-05
-1.90075e-06
1.38273e-08
1.72984e-09
-2.24658e-10
4.62754e-12
4.70731e-12
-0.0395782
0.0314172
3.83668
3.11523
2.23187
1.01932
0.465924
0.12206
0.0250289
-9.39161e-05
-0.00110288
-0.000243577
-2.26399e-05
-7.1121e-07
3.01129e-08
6.18922e-10
-6.23186e-10
-7.4932e-12
1.27178e-11
-0.073637
-0.176769
3.01592
3.03653
2.07646
0.348853
0.103798
-0.0257745
-0.011615
-0.00268526
-0.000529919
-6.22373e-05
-4.01287e-06
5.99913e-08
6.50411e-08
8.80149e-10
-1.8673e-09
-1.36024e-10
3.45482e-11
-0.108669
-0.214899
2.41112
2.85575
1.78891
0.196721
-0.0142437
-0.0100041
-0.00482597
-0.000789692
-0.000111656
-1.34147e-05
-1.6136e-06
2.84298e-07
1.8831e-07
1.99204e-08
-4.11785e-09
-1.0081e-09
5.17499e-11
-0.0721599
-0.177605
1.74618
2.60114
2.08151
0.656075
-0.0872665
-0.0178563
-0.00316262
-0.000423127
-8.50383e-05
-1.66218e-05
-7.92014e-06
-1.25978e-06
4.40199e-07
1.29887e-07
-9.51886e-11
-2.8418e-09
-1.62239e-10
-0.0474432
-0.115649
1.26152
2.39221
1.99005
0.966106
0.123271
-0.0125004
-0.00319648
-0.000239617
-0.000322021
-6.44122e-05
-1.81132e-05
-5.5986e-06
-2.34966e-07
3.05544e-07
3.38528e-08
-3.60969e-09
-8.57364e-10
-0.0388008
-0.0213942
1.34972
2.23729
1.68751
0.736027
0.108415
-0.0247222
-0.00345636
0.00377478
-4.04712e-05
-0.000114836
-3.71171e-05
-1.91052e-05
-2.03113e-06
4.51745e-07
9.67652e-08
-2.45736e-10
-1.61324e-09
-0.0298726
-0.115156
1.04476
2.07685
1.64846
0.687501
0.0430082
-0.0218528
0.00397722
0.023185
0.0053488
0.000224959
-6.88265e-05
-3.34332e-05
-4.82707e-06
2.87271e-07
1.3975e-07
8.35242e-09
-1.6489e-09
-0.0192496
-0.117626
0.506156
1.76492
1.56465
0.768845
0.0379964
-0.017636
0.0376343
0.0245911
0.00294914
7.45715e-05
-7.8417e-05
-2.47512e-05
-4.05312e-06
1.44915e-07
1.00663e-07
9.24133e-09
-7.93448e-10
-0.0162431
-0.0642554
0.454281
1.70077
1.42189
0.631552
0.0106504
0.011772
0.0652496
0.0124824
0.000538354
-0.000168293
-5.0221e-05
-1.4994e-05
-1.49802e-06
1.23572e-07
5.90107e-08
4.77023e-09
-5.08893e-10
-0.0165635
-0.0415095
0.452608
1.61299
1.29594
0.462085
-0.0205142
0.0307209
0.0283109
-0.00218092
-0.000471611
-0.000100304
-3.9004e-05
-1.11136e-05
-4.52944e-07
1.86273e-07
3.67044e-08
2.27859e-09
-4.20977e-10
-0.0162989
-0.0210826
0.529535
1.55248
1.10483
0.302098
-0.0298503
0.0448733
0.0370426
-0.000624145
-0.00124652
-0.000318429
-4.99969e-05
-1.50473e-06
8.16814e-07
2.07363e-07
1.67422e-08
-1.67198e-09
-4.85647e-10
-0.0135444
-0.0382939
0.442283
1.37703
1.05815
0.290239
-0.0213602
0.067493
0.0771944
0.0220961
0.000106571
-0.000696908
-0.000112949
-1.9663e-06
1.57548e-06
4.29344e-07
2.11144e-08
-5.94935e-09
-8.08685e-10
-0.0125468
-0.0330993
0.490857
1.29721
0.954632
0.229429
-0.0200413
0.0713617
0.110879
0.0297893
-0.00139405
-0.00087463
-0.000149228
-2.91452e-05
-4.57421e-06
1.13484e-06
2.19404e-07
-2.36343e-09
-2.92248e-09
-0.0116848
-0.0630648
0.485923
1.21688
0.874137
0.237875
-0.0283892
0.0678499
0.0885278
0.0256222
-0.00334423
-0.00152284
-0.000468979
-0.000128245
-4.9895e-05
-2.72794e-06
9.22156e-07
1.02849e-07
-4.68175e-09
-0.00953954
-0.0672852
0.443821
1.12994
0.786899
0.229714
-0.00435596
0.0599676
0.10228
0.0314252
-0.000866106
-0.00177329
-0.00168822
-0.00030237
-0.000252413
-3.62185e-05
4.63741e-07
4.30428e-07
2.44162e-08
-0.0069759
-0.0670702
0.431452
1.02479
0.600755
0.152968
0.00751082
0.049042
0.091191
0.0667154
0.0385962
0.0167286
0.0056613
0.00260923
-0.00065119
-0.000145104
-7.50978e-06
6.19322e-07
9.17676e-08
-0.00390647
-0.064307
0.443358
0.937757
0.54438
0.0957209
0.00903093
0.0413939
0.0839273
0.0760128
0.0816122
0.0943117
0.0686905
0.0112874
-0.00144267
-0.00032441
-1.75646e-05
7.44937e-07
1.60609e-07
-0.00116847
-0.054319
0.39073
0.843786
0.562779
0.14473
0.01077
0.0427713
0.065586
0.0830784
0.0912469
0.10315
0.0556063
-0.00351018
-0.00343248
-0.000793318
-5.99086e-05
1.22066e-07
4.42461e-07
0.0133429
-0.0150862
0.0873174
0.732397
0.55611
0.206795
0.062341
0.0452328
0.0656542
0.0858109
0.0992896
0.122907
0.12203
0.0496658
0.00244402
-0.00212737
-0.000354681
-2.67489e-05
-5.78175e-08
0.0644663
0.0256716
0.0235673
0.655552
0.534252
0.341769
0.143116
0.0673123
0.0798479
0.107703
0.122728
0.158724
0.154173
0.0996924
0.027696
0.00365037
-0.00061176
-7.52365e-05
-6.078e-06
0.0706185
0.0665076
0.0672754
0.468707
0.497857
0.427864
0.293957
0.164968
0.153339
0.191093
0.215329
0.209801
0.155634
0.0674666
0.0149944
0.000923376
-0.000332973
-8.81761e-05
-4.14311e-06
0.0789941
0.132198
0.112458
0.316226
0.459263
0.403574
0.352421
0.282491
0.261195
0.256237
0.225451
0.176554
0.0887469
0.0216464
0.00268528
-0.00037323
-0.000186232
-3.39429e-05
-1.38409e-06
0.0826247
0.201908
0.180515
0.334883
0.42869
0.397729
0.369003
0.327331
0.288131
0.245913
0.20153
0.0827962
0.00897968
-0.00165993
-0.00125494
-0.00039337
-6.80252e-05
-6.22392e-06
-3.52588e-08
0.0595927
0.206025
0.253616
0.352052
0.409881
0.393358
0.368084
0.329383
0.284185
0.232894
0.13563
0.0300426
-0.000418938
-0.00127344
-0.000419885
-8.62083e-05
-1.06222e-05
-5.55405e-07
3.74147e-08
0.0174675
0.159857
0.262979
0.358279
0.392801
0.382778
0.359784
0.311028
0.229031
0.13455
0.0460406
0.0082311
-0.000718352
-0.000566041
-0.000112958
-1.51552e-05
-1.18985e-06
-1.31558e-08
1.03505e-08
0.000661375
0.0469471
0.219772
0.315391
0.349272
0.308926
0.263039
0.17976
0.0806132
0.0286282
0.00564004
-0.000509623
-0.000725983
-0.000182643
-2.41184e-05
-2.0855e-06
-7.13218e-08
1.04207e-08
1.41133e-09
-0.00214605
-0.00152709
0.0818938
0.17173
0.214427
0.121112
0.0937249
0.0462103
0.0161856
0.00444444
-0.000149277
-0.000549998
-0.000219467
-3.96552e-05
-3.8144e-06
-1.81296e-07
6.41902e-09
2.3313e-09
1.0998e-10
-0.0011333
-0.00365161
0.0125026
0.0479813
0.0641604
0.0191717
0.0200746
0.00856691
0.0023923
0.000102642
-0.000380677
-0.000186422
-4.85523e-05
-6.63538e-06
-4.25708e-07
-2.20183e-09
3.33125e-09
2.92797e-10
-4.40835e-12
-0.000273654
-0.00162704
-0.00146151
0.00754156
0.0128995
0.000684712
0.00304859
0.000950114
7.15042e-05
-0.000193108
-0.000131687
-4.23697e-05
-8.33246e-06
-8.53568e-07
-2.62011e-08
3.92316e-09
5.63057e-10
1.69601e-11
-2.93449e-12
-2.26767e-05
-0.000295629
-0.00105333
-8.08463e-05
0.00142776
-0.00055542
0.00021322
-2.80601e-05
-8.64039e-05
-7.28474e-05
-3.08237e-05
-7.58479e-06
-1.15531e-06
-7.81024e-08
2.38799e-09
8.75017e-10
5.22232e-11
-1.97895e-12
-5.10414e-13
1.10196e-06
-2.34616e-05
-0.000224524
-0.000449518
-0.000326789
-0.000323017
-0.000160331
-0.000108475
-5.69603e-05
-2.31658e-05
-6.44306e-06
-1.14932e-06
-1.18372e-07
-1.87384e-09
1.04326e-09
1.0113e-10
8.18566e-14
-5.80178e-13
-6.29304e-15
)
;

boundaryField
{
    leftWall
    {
        type            zeroGradient;
    }
    rightWall
    {
        type            zeroGradient;
    }
    lowerWall
    {
        type            zeroGradient;
    }
    atmosphere
    {
        type            zeroGradient;
    }
    defaultFaces
    {
        type            empty;
    }
}


// ************************************************************************* //
