/*--------------------------------*- C++ -*----------------------------------*\
| =========                 |                                                 |
| \\      /  F ield         | foam-extend: Open Source CFD                    |
|  \\    /   O peration     | Version:     4.1                                |
|   \\  /    A nd           | Web:         http://www.foam-extend.org         |
|    \\/     M anipulation  |                                                 |
\*---------------------------------------------------------------------------*/
FoamFile
{
    version     2.0;
    format      ascii;
    class       volVectorField;
    location    "0.2";
    object      U;
}
// * * * * * * * * * * * * * * * * * * * * * * * * * * * * * * * * * * * * * //

dimensions      [0 1 -1 0 0 0 0];

internalField   nonuniform List<vector> 
2268
(
(0.0514057 -0.00740396 0)
(0.0712323 -0.00737009 0)
(0.175768 -0.00830861 0)
(0.207603 -0.00467797 0)
(0.281636 -0.0120146 0)
(0.360762 -0.00564385 0)
(0.442697 -0.00680082 0)
(0.48395 -0.00914375 0)
(0.569309 -0.00499427 0)
(0.565616 0.0325524 0)
(0.492547 -0.0921592 0)
(0.505083 -0.0626068 0)
(0.571117 -0.0596439 0)
(0.595923 -0.0294729 0)
(0.637652 -0.0417616 0)
(0.649081 -0.0249119 0)
(0.711064 -0.0650892 0)
(0.738792 -0.017971 0)
(0.68046 -0.0303505 0)
(0.596165 0.0838056 0)
(0.398415 0.0636948 0)
(0.418447 0.0447973 0)
(0.597859 0.0795955 0)
(0.0514583 -0.0213364 0)
(0.0719795 -0.0219801 0)
(0.176638 -0.0242904 0)
(0.209 -0.0192417 0)
(0.281501 -0.0253599 0)
(0.367186 -0.0307346 0)
(0.442987 -0.0235839 0)
(0.486471 -0.0210499 0)
(0.593355 -0.0171768 0)
(0.548269 -0.017152 0)
(0.491246 -0.0922061 0)
(0.516062 -0.0434286 0)
(0.593457 -0.0281963 0)
(0.603519 -0.0115234 0)
(0.648625 0.00126544 0)
(0.630686 0.014593 0)
(0.681519 0.0295078 0)
(0.827033 0.0393169 0)
(0.763788 0.066726 0)
(0.654219 0.0263565 0)
(0.392857 0.0918303 0)
(0.383441 0.225575 0)
(0.577795 0.176981 0)
(0.0505969 -0.0364101 0)
(0.0720697 -0.036936 0)
(0.174931 -0.040903 0)
(0.211998 -0.0282962 0)
(0.273147 -0.0507099 0)
(0.38309 -0.0420265 0)
(0.422069 -0.036867 0)
(0.501953 -0.0453044 0)
(0.604941 -0.024595 0)
(0.51687 -0.167148 0)
(0.475914 -0.113255 0)
(0.510127 -0.0702977 0)
(0.560531 -0.0530601 0)
(0.568095 -0.0389048 0)
(0.610694 -0.0221615 0)
(0.620441 -0.0129158 0)
(0.688593 0.101564 0)
(0.723755 0.0468706 0)
(0.682763 0.0622228 0)
(0.593088 0.00066154 0)
(0.531252 0.090242 0)
(0.391875 0.242756 0)
(0.54404 0.305554 0)
(0.0497669 -0.0499879 0)
(0.0731305 -0.0513314 0)
(0.174596 -0.0577453 0)
(0.212314 -0.0415631 0)
(0.291707 -0.067347 0)
(0.369836 -0.0642902 0)
(0.416359 -0.0527027 0)
(0.546453 -0.0700447 0)
(0.510838 -0.0677855 0)
(0.452202 -0.174425 0)
(0.450948 -0.105155 0)
(0.469755 -0.0854591 0)
(0.517014 -0.0553231 0)
(0.531113 -0.0376962 0)
(0.584386 -0.0228276 0)
(0.603056 -0.00799471 0)
(0.669993 0.080073 0)
(0.681261 0.0482988 0)
(0.65323 0.0486406 0)
(0.602265 0.0604571 0)
(0.542351 0.196442 0)
(0.417269 0.268956 0)
(0.495696 0.408648 0)
(0.0479318 -0.0653663 0)
(0.0734084 -0.0665027 0)
(0.173169 -0.0736287 0)
(0.213665 -0.0552974 0)
(0.300873 -0.0885618 0)
(0.357469 -0.0693007 0)
(0.419052 -0.0841411 0)
(0.545369 -0.0585709 0)
(0.458521 -0.184803 0)
(0.394618 -0.160041 0)
(0.413486 -0.118611 0)
(0.445321 -0.112868 0)
(0.494958 -0.0702629 0)
(0.519738 -0.0674755 0)
(0.581433 -0.052777 0)
(0.600537 -0.0264066 0)
(0.64989 0.0456919 0)
(0.662989 0.0390013 0)
(0.631015 0.0860735 0)
(0.641368 0.0649203 0)
(0.608927 0.201352 0)
(0.412454 0.413517 0)
(0.564119 0.523493 0)
(0.0460498 -0.0782131 0)
(0.0757943 -0.0809379 0)
(0.173239 -0.0912808 0)
(0.215395 -0.0713885 0)
(0.302228 -0.103317 0)
(0.352697 -0.0903019 0)
(0.4597 -0.109071 0)
(0.412535 -0.0969005 0)
(0.350387 -0.188022 0)
(0.362133 -0.167058 0)
(0.392315 -0.122492 0)
(0.437741 -0.13113 0)
(0.499015 -0.0860057 0)
(0.537663 -0.0809003 0)
(0.577109 -0.0610668 0)
(0.645261 -0.0397069 0)
(0.661453 0.0343435 0)
(0.696013 0.0702755 0)
(0.646378 0.17248 0)
(0.70566 0.155556 0)
(0.751329 0.303309 0)
(0.544833 0.481626 0)
(0.510514 0.654897 0)
(0.0419519 -0.0941444 0)
(0.0771407 -0.0967328 0)
(0.172651 -0.105726 0)
(0.213752 -0.0851988 0)
(0.298039 -0.121257 0)
(0.354362 -0.115948 0)
(0.377452 -0.0833917 0)
(0.345146 -0.195294 0)
(0.320124 -0.18726 0)
(0.348813 -0.183237 0)
(0.38725 -0.149496 0)
(0.451108 -0.169832 0)
(0.520514 -0.11842 0)
(0.547007 -0.11256 0)
(0.60357 -0.099615 0)
(0.688039 -0.0596466 0)
(0.677383 0.00210386 0)
(0.736274 0.0770335 0)
(0.683886 0.124179 0)
(0.703797 0.18795 0)
(0.8333 0.304511 0)
(0.6246 0.708263 0)
(0.599104 0.790177 0)
(0.0390185 -0.105339 0)
(0.0828485 -0.111308 0)
(0.170133 -0.124495 0)
(0.20855 -0.107242 0)
(0.286029 -0.144119 0)
(0.344055 -0.0930697 0)
(0.286136 -0.140202 0)
(0.301018 -0.209686 0)
(0.308165 -0.193155 0)
(0.348575 -0.204184 0)
(0.387711 -0.170466 0)
(0.470942 -0.193509 0)
(0.530063 -0.115392 0)
(0.559546 -0.133627 0)
(0.637775 -0.129021 0)
(0.686887 -0.0657956 0)
(0.68208 -0.00499241 0)
(0.746488 0.0726988 0)
(0.720047 0.100155 0)
(0.757323 0.22437 0)
(1.00456 0.364202 0)
(0.790972 0.692475 0)
(0.509883 1.07173 0)
(0.00171928 -0.00386309 0)
(0.0247441 -0.00538766 0)
(0.0341962 0.00612996 0)
(-0.0177461 0.00545828 0)
(-0.0339608 -0.000864082 0)
(-0.0429353 0.00252831 0)
(-0.0446332 -0.00021913 0)
(-0.0424437 -0.000987846 0)
(-0.0365172 -0.00283765 0)
(-0.0194613 -0.00396466 0)
(-0.00737066 1.13693e-05 0)
(0.0134444 -0.0063125 0)
(0.0215078 -0.0310497 0)
(0.0365329 -0.00637451 0)
(0.03551 0.00200345 0)
(0.0479007 -0.00303743 0)
(0.0356098 0.00473531 0)
(0.031032 0.00197243 0)
(0.00874246 0.00231229 0)
(0.00107806 -0.00937587 0)
(0.0165056 -0.0139009 0)
(0.0265789 0.0144458 0)
(-0.0346036 0.0210459 0)
(-0.0517761 0.0125367 0)
(-0.0602803 0.00606319 0)
(-0.0599715 0.000253023 0)
(-0.0547818 -0.00664318 0)
(-0.047291 -0.00742617 0)
(-0.0273078 -0.00956127 0)
(-0.0129332 -0.017907 0)
(0.0035777 -0.0061309 0)
(0.00334083 0.0116987 0)
(0.0181228 -0.00287985 0)
(0.0393601 0.00327793 0)
(0.040855 -0.0038596 0)
(0.0332596 0.00876113 0)
(0.0277227 0.00548434 0)
(0.00795953 0.00633731 0)
(0.00319787 -0.0100976 0)
(0.0226871 -0.0221793 0)
(0.0203966 0.0292208 0)
(-0.0368112 0.0391833 0)
(-0.0527618 0.0112014 0)
(-0.0636133 0.00950285 0)
(-0.0652668 -0.00250643 0)
(-0.0564568 -0.0120894 0)
(-0.0468705 -0.0112537 0)
(-0.0354462 -0.0178003 0)
(-0.0182724 -0.0299261 0)
(0.000394495 -0.033462 0)
(0.0112588 -0.0235965 0)
(0.024481 -0.00913567 0)
(0.0459149 -0.00239981 0)
(0.043188 -0.000963388 0)
(0.0351323 0.00868754 0)
(0.0277595 0.00878508 0)
(0.00813526 0.0101719 0)
(-0.0101997 -0.0102392 0)
(0.018489 -0.0245581 0)
(0.0254205 0.042151 0)
(-0.0470701 0.0474638 0)
(-0.0601922 0.0278001 0)
(-0.0609868 0.0178287 0)
(-0.0712692 -0.00214841 0)
(-0.0577232 -0.0228656 0)
(-0.0497824 -0.022195 0)
(-0.0369625 -0.0236015 0)
(-0.0240772 -0.0166886 0)
(-0.00364089 -0.0281782 0)
(0.0190717 -0.0212948 0)
(0.0265616 -0.00882502 0)
(0.0489435 -0.0015731 0)
(0.0454853 0.000193898 0)
(0.0372166 0.0106979 0)
(0.0283708 0.0121379 0)
(0.00842562 0.0142576 0)
(-0.0261885 -0.0359945 0)
(0.0110593 -0.0362322 0)
(0.0162436 0.0576707 0)
(-0.0542652 0.0804452 0)
(-0.0772578 0.0587977 0)
(-0.0745429 0.0162491 0)
(-0.0865694 -0.0141807 0)
(-0.0680635 -0.0306774 0)
(-0.049136 -0.0112358 0)
(-0.03493 -0.0275955 0)
(-0.0307455 -0.0361857 0)
(-0.00278208 -0.028136 0)
(0.0180802 -0.0246094 0)
(0.0299603 -0.0125842 0)
(0.0550965 -0.00521616 0)
(0.0475063 0.0023689 0)
(0.040104 0.0123944 0)
(0.029214 0.0156442 0)
(0.00886835 0.0183148 0)
(-0.0104258 0.020735 0)
(0.0541311 -0.0398801 0)
(0.0275972 0.0733149 0)
(-0.0666891 0.0784004 0)
(-0.0915059 0.0482143 0)
(-0.0926986 0.0140627 0)
(-0.101505 -0.0104167 0)
(-0.0673229 -0.0066094 0)
(-0.0588619 -0.0503112 0)
(-0.0472257 -0.0934301 0)
(-0.0230498 -0.0470966 0)
(0.00288407 -0.03049 0)
(0.0232635 -0.0177626 0)
(0.0375368 -0.0127554 0)
(0.0533487 -0.00517472 0)
(0.053111 0.00389661 0)
(0.0427722 0.0148184 0)
(0.0307602 0.0193264 0)
(0.00937608 0.0227327 0)
(-0.0353196 -0.0899226 0)
(0.0619954 -0.0556811 0)
(0.0251826 0.105624 0)
(-0.0800255 0.134449 0)
(-0.101626 0.0890263 0)
(-0.103594 0.0376899 0)
(-0.114964 -0.0360468 0)
(-0.096038 -0.0503377 0)
(-0.0964605 -0.068622 0)
(-0.0523419 -0.0872538 0)
(-0.00892485 -0.0417418 0)
(0.0124621 -0.0409594 0)
(0.0279484 -0.0257751 0)
(0.0424891 -0.0190117 0)
(0.0590876 -0.00721229 0)
(0.0562717 0.00512061 0)
(0.0465993 0.0171968 0)
(0.0323711 0.0232546 0)
(0.0101014 0.0272586 0)
(0.0211615 0.00242934 0)
(-0.0124497 -0.0357918 0)
(0.0999733 0.156651 0)
(-0.0860129 0.17072 0)
(-0.14706 0.0268108 0)
(-0.145984 -0.0119996 0)
(-0.142695 -0.0255469 0)
(-0.100484 -0.0845533 0)
(-0.0505805 -0.0500781 0)
(-0.0608172 -0.0223028 0)
(-0.0292678 -0.0641262 0)
(0.0041017 -0.0402679 0)
(0.0283942 -0.029139 0)
(0.0506461 -0.0179486 0)
(0.0636353 -0.00728308 0)
(0.0630389 0.0066942 0)
(0.0504114 0.0204145 0)
(0.0347588 0.0275572 0)
(0.0108226 0.0322158 0)
(0.0335405 -0.132784 0)
(0.0830711 -0.136592 0)
(0.15554 -0.144901 0)
(0.179224 -0.100982 0)
(0.286855 -0.151452 0)
(0.239477 -0.167489 0)
(0.241108 -0.205144 0)
(0.287328 -0.212669 0)
(0.29554 -0.211862 0)
(0.347344 -0.2311 0)
(0.391682 -0.225919 0)
(0.512711 -0.261064 0)
(0.539492 -0.211511 0)
(0.555523 -0.194361 0)
(0.649682 -0.172563 0)
(0.663605 -0.0918684 0)
(0.71942 -0.0212943 0)
(0.723984 0.0859893 0)
(0.801097 0.132177 0)
(0.815225 0.217088 0)
(1.09304 0.32588 0)
(1.41087 0.884386 0)
(0.893729 1.41351 0)
(0.04316 -0.152523 0)
(0.0625877 -0.167482 0)
(0.1665 -0.161724 0)
(0.147966 -0.192265 0)
(0.166061 -0.18309 0)
(0.205528 -0.234453 0)
(0.234015 -0.212821 0)
(0.253086 -0.23413 0)
(0.279505 -0.249478 0)
(0.338381 -0.293003 0)
(0.381918 -0.310605 0)
(0.504994 -0.335093 0)
(0.540998 -0.313071 0)
(0.5899 -0.258691 0)
(0.664149 -0.220901 0)
(0.753309 -0.133047 0)
(0.807332 -0.0731567 0)
(0.953765 0.0400826 0)
(0.903299 0.149918 0)
(1.05358 0.325714 0)
(1.47424 0.32355 0)
(1.98045 0.784795 0)
(1.70251 1.14648 0)
(0.0282872 -0.185949 0)
(0.047289 -0.201437 0)
(0.100371 -0.191185 0)
(0.12655 -0.236884 0)
(0.159792 -0.218816 0)
(0.183865 -0.232776 0)
(0.212881 -0.253891 0)
(0.240697 -0.262946 0)
(0.279024 -0.299634 0)
(0.308367 -0.329179 0)
(0.359373 -0.394533 0)
(0.5138 -0.437599 0)
(0.556709 -0.348028 0)
(0.604856 -0.336888 0)
(0.739392 -0.303681 0)
(0.823731 -0.231389 0)
(1.03398 -0.195657 0)
(1.05441 -0.0374528 0)
(1.13276 0.0495318 0)
(1.22661 0.366035 0)
(1.46958 0.323242 0)
(1.87166 0.579164 0)
(1.78556 0.702233 0)
(0.0287779 -0.229487 0)
(0.0479403 -0.239222 0)
(0.10137 -0.238068 0)
(0.115644 -0.247517 0)
(0.152933 -0.242554 0)
(0.17397 -0.272475 0)
(0.209891 -0.275114 0)
(0.208844 -0.294761 0)
(0.245502 -0.31968 0)
(0.239804 -0.375806 0)
(0.346378 -0.508105 0)
(0.480996 -0.540244 0)
(0.551587 -0.444031 0)
(0.643309 -0.478805 0)
(0.813313 -0.440195 0)
(1.01883 -0.445954 0)
(1.13008 -0.294063 0)
(1.14502 -0.144565 0)
(1.22922 0.00553685 0)
(1.26612 0.210014 0)
(1.40497 0.383614 0)
(1.6494 0.449843 0)
(1.5964 0.623438 0)
(0.0200329 -0.262416 0)
(0.0484568 -0.27212 0)
(0.0823692 -0.259241 0)
(0.109727 -0.280831 0)
(0.141465 -0.280465 0)
(0.161181 -0.2891 0)
(0.178031 -0.289266 0)
(0.177128 -0.303433 0)
(0.202724 -0.334354 0)
(0.178084 -0.432702 0)
(0.347407 -0.646563 0)
(0.477523 -0.620346 0)
(0.570299 -0.584692 0)
(0.751366 -0.663876 0)
(0.902304 -0.675918 0)
(1.07754 -0.572828 0)
(1.05457 -0.391022 0)
(1.14381 -0.239898 0)
(1.16478 -0.075054 0)
(1.07847 0.190801 0)
(1.22557 0.363122 0)
(1.6712 0.476367 0)
(1.45326 0.449069 0)
(0.0239379 -0.299495 0)
(0.0428378 -0.299915 0)
(0.0881393 -0.302133 0)
(0.105372 -0.300606 0)
(0.139191 -0.295922 0)
(0.149343 -0.311083 0)
(0.165823 -0.298926 0)
(0.147626 -0.312911 0)
(0.142171 -0.326191 0)
(0.136155 -0.511757 0)
(0.418253 -0.885464 0)
(0.515754 -0.797917 0)
(0.638 -0.93551 0)
(0.768522 -0.865868 0)
(0.868806 -0.760744 0)
(0.778147 -0.650726 0)
(0.509951 -0.379247 0)
(0.570035 -0.036242 0)
(0.96405 0.138872 0)
(0.937699 0.521246 0)
(1.26074 0.62302 0)
(1.48194 0.389675 0)
(1.22962 0.277263 0)
(0.0167289 -0.33107 0)
(0.0487941 -0.337325 0)
(0.0788524 -0.325045 0)
(0.105637 -0.33131 0)
(0.13196 -0.320801 0)
(0.147579 -0.315866 0)
(0.147556 -0.289871 0)
(0.11968 -0.283411 0)
(0.0745274 -0.310736 0)
(0.170677 -0.760215 0)
(0.44041 -1.04937 0)
(0.455354 -0.922514 0)
(0.616771 -1.10844 0)
(0.509876 -0.892232 0)
(0.169762 -0.57173 0)
(0.174632 -0.289573 0)
(0.125081 -0.192858 0)
(0.430596 0.0581648 0)
(0.999434 -0.199967 0)
(0.853674 -0.0137591 0)
(1.14751 0.3796 0)
(1.13728 -0.0143513 0)
(1.09825 0.146339 0)
(0.0236936 -0.360208 0)
(0.0448053 -0.355663 0)
(0.0896729 -0.357529 0)
(0.112022 -0.353642 0)
(0.141852 -0.339527 0)
(0.159671 -0.321094 0)
(0.147434 -0.263435 0)
(0.105955 -0.242626 0)
(0.0257634 -0.370551 0)
(0.211027 -0.920206 0)
(0.190692 -1.10035 0)
(0.264278 -0.910324 0)
(0.17961 -1.15134 0)
(0.0837075 -0.515909 0)
(-0.0973125 -0.413659 0)
(-0.0690495 -0.534251 0)
(-0.0639207 -0.539948 0)
(0.236546 -0.260446 0)
(0.872847 -0.460585 0)
(0.482842 -0.550983 0)
(0.824823 -0.186167 0)
(1.31088 0.00316178 0)
(1.14158 0.108707 0)
(0.0195156 -0.410077 0)
(0.0530211 -0.410106 0)
(0.0995554 -0.398865 0)
(0.118582 -0.392832 0)
(0.153564 -0.376154 0)
(0.15947 -0.333059 0)
(0.14656 -0.224593 0)
(0.0837717 -0.181372 0)
(0.00754471 -0.409117 0)
(0.153097 -0.941425 0)
(0.11861 -1.07886 0)
(0.266859 -0.763224 0)
(-0.0867866 -0.961037 0)
(-0.0344142 -0.491025 0)
(-0.122679 -0.438505 0)
(-0.0953947 -0.503983 0)
(-0.0561344 -0.545252 0)
(0.00708869 -0.424416 0)
(0.32641 -0.409387 0)
(0.466817 -0.448388 0)
(0.468428 -0.225483 0)
(0.702913 -0.153989 0)
(0.834037 -0.272964 0)
(0.0203097 -0.437406 0)
(0.0300117 -0.434951 0)
(0.0569627 -0.423651 0)
(0.0646073 -0.404123 0)
(0.0849363 -0.373001 0)
(0.0895073 -0.307631 0)
(0.108474 -0.184978 0)
(0.112175 -0.119406 0)
(0.0616644 -0.328891 0)
(0.159887 -0.975558 0)
(0.0503441 -1.18343 0)
(0.239337 -0.643278 0)
(-0.0782012 -0.806545 0)
(-0.0164387 -0.47883 0)
(-0.0881101 -0.547283 0)
(-0.236133 -1.00068 0)
(0.115757 -0.893163 0)
(0.18694 -0.521046 0)
(0.19331 -0.477408 0)
(0.242992 -0.606913 0)
(0.392926 -0.398814 0)
(0.48707 -0.297147 0)
(0.919632 -0.322181 0)
(-0.00366824 -0.456801 0)
(-0.00423377 -0.45444 0)
(-0.00290487 -0.442021 0)
(-0.00320892 -0.424825 0)
(0.00272517 -0.39976 0)
(0.0206562 -0.345252 0)
(0.0668424 -0.243414 0)
(0.250726 -0.179291 0)
(0.323031 -0.374566 0)
(0.281515 -1.29689 0)
(-0.246693 -1.42663 0)
(-0.222065 -0.605161 0)
(-0.0816958 -0.759212 0)
(-0.0212366 -0.4077 0)
(-0.0144262 -0.968524 0)
(0.176669 -0.942763 0)
(0.217956 -0.753365 0)
(0.0864637 -0.466882 0)
(0.215233 -0.728478 0)
(0.342802 -0.667591 0)
(0.669772 -0.423761 0)
(0.801297 -0.439038 0)
(0.803251 -0.450981 0)
(-0.00606145 -0.459333 0)
(-0.00543243 -0.466305 0)
(-0.00511425 -0.457566 0)
(-0.00653868 -0.442777 0)
(-0.00362417 -0.424397 0)
(0.00923381 -0.39631 0)
(0.0755516 -0.374795 0)
(0.115589 -0.354839 0)
(0.20252 -0.831428 0)
(0.154364 -1.56274 0)
(-0.0282595 -1.84219 0)
(-0.0708441 -0.845568 0)
(0.106913 -1.02423 0)
(0.08341 -0.420002 0)
(0.27067 -0.977131 0)
(0.338908 -1.04811 0)
(0.427006 -1.05006 0)
(0.0689484 -0.580661 0)
(0.131867 -0.52796 0)
(0.526753 -0.567884 0)
(0.697234 -0.561343 0)
(0.60943 -0.574926 0)
(0.770246 -0.641834 0)
(0.0015476 -0.456018 0)
(0.000994981 -0.444609 0)
(-0.00763257 -0.437814 0)
(-0.00989826 -0.420724 0)
(-0.019196 -0.406727 0)
(0.0256415 -0.408547 0)
(0.21217 -0.406533 0)
(0.262337 -0.342946 0)
(0.260696 -0.471893 0)
(0.31111 -0.942466 0)
(0.0862873 -1.36777 0)
(-0.0526712 -0.788081 0)
(0.265681 -0.852303 0)
(0.0885122 -0.867018 0)
(0.194101 -1.15616 0)
(0.314254 -0.990332 0)
(0.535431 -1.08012 0)
(0.595975 -0.943939 0)
(0.410818 -0.649442 0)
(0.477966 -0.649333 0)
(0.673492 -0.670912 0)
(0.681621 -0.642584 0)
(0.676734 -0.534495 0)
(0.0288693 -0.463785 0)
(0.0528304 -0.479714 0)
(0.0655703 -0.493005 0)
(0.0927287 -0.515456 0)
(0.0405687 -0.542904 0)
(0.170447 -0.657747 0)
(0.402175 -0.891663 0)
(0.631857 -0.959202 0)
(0.351976 -0.495934 0)
(0.597186 -0.908183 0)
(0.453897 -1.38782 0)
(0.183984 -1.3098 0)
(-0.0454036 -0.876157 0)
(0.277446 -1.27713 0)
(0.454572 -1.09142 0)
(0.362451 -0.967825 0)
(0.397067 -0.966873 0)
(0.67128 -1.03715 0)
(0.621382 -0.948722 0)
(0.634487 -0.87466 0)
(0.679168 -0.681074 0)
(0.783356 -0.573732 0)
(0.672754 -0.645406 0)
(0.044003 -0.967786 0)
(0.0762372 -0.97417 0)
(0.117392 -0.991435 0)
(0.195871 -1.00248 0)
(0.345502 -0.991105 0)
(0.378399 -0.988759 0)
(0.356128 -0.98136 0)
(0.498754 -1.02661 0)
(0.554288 -0.923947 0)
(0.483979 -0.59082 0)
(0.54195 -0.922188 0)
(0.407832 -1.37913 0)
(0.425523 -1.28744 0)
(0.39402 -1.32208 0)
(0.510207 -1.1564 0)
(0.332621 -1.17269 0)
(0.32221 -0.893189 0)
(0.610631 -0.992823 0)
(0.750412 -1.07755 0)
(0.751677 -0.964019 0)
(0.916285 -0.764876 0)
(0.780325 -0.540908 0)
(0.808484 -0.735558 0)
(0.044055 -1.13992 0)
(0.0962515 -1.08957 0)
(0.159406 -1.07148 0)
(0.217909 -1.02181 0)
(0.256834 -1.0136 0)
(0.323274 -1.10371 0)
(0.338824 -1.05984 0)
(0.351312 -1.03708 0)
(0.371981 -1.06636 0)
(0.46654 -0.998008 0)
(0.523836 -0.913351 0)
(0.53139 -0.949051 0)
(0.508435 -1.233 0)
(0.42426 -1.347 0)
(0.43036 -1.25567 0)
(0.603672 -1.18641 0)
(0.560281 -0.893716 0)
(0.481967 -0.744912 0)
(0.652647 -0.930333 0)
(0.855661 -0.840779 0)
(1.05009 -0.750973 0)
(0.931652 -0.676699 0)
(0.760367 -0.72905 0)
(0.126088 -0.913153 0)
(0.194608 -1.15768 0)
(0.193738 -1.17257 0)
(0.205178 -1.11328 0)
(0.221891 -1.14349 0)
(0.310076 -1.11948 0)
(0.252292 -1.05837 0)
(0.292539 -1.08822 0)
(0.33359 -1.06116 0)
(0.31414 -1.02759 0)
(0.349997 -1.05152 0)
(0.41881 -1.11387 0)
(0.37981 -1.22748 0)
(0.442927 -1.1552 0)
(0.571348 -1.07946 0)
(0.708409 -1.05341 0)
(0.620039 -1.2418 0)
(0.514879 -1.04353 0)
(0.717575 -1.04946 0)
(0.905593 -0.854789 0)
(0.98694 -0.811662 0)
(0.937305 -0.804089 0)
(0.917498 -0.682295 0)
(-0.0584715 -0.733028 0)
(-0.0351094 -0.882182 0)
(0.261165 -0.883087 0)
(0.243763 -1.05881 0)
(0.24693 -1.17288 0)
(0.399744 -1.17496 0)
(0.226562 -1.1821 0)
(0.252149 -1.15068 0)
(0.341503 -1.14933 0)
(0.287359 -1.05581 0)
(0.226173 -1.08872 0)
(0.320104 -1.10664 0)
(0.377519 -1.06357 0)
(0.512071 -1.09249 0)
(0.463256 -1.16259 0)
(0.404538 -1.22532 0)
(0.504168 -1.36821 0)
(0.703862 -1.13709 0)
(0.877349 -1.00378 0)
(1.05614 -0.937409 0)
(1.10986 -0.881924 0)
(1.07704 -0.947831 0)
(1.04747 -0.829065 0)
(-0.0129766 -0.737522 0)
(0.021518 -0.772992 0)
(0.0863652 -0.76149 0)
(-0.0178541 -1.12148 0)
(0.0752818 -0.8903 0)
(0.33183 -1.09519 0)
(0.168507 -1.21323 0)
(0.166448 -0.903048 0)
(0.399651 -1.1344 0)
(0.368896 -1.11292 0)
(0.166911 -1.15418 0)
(0.37893 -1.18246 0)
(0.357405 -1.20051 0)
(0.283777 -1.2817 0)
(0.434369 -1.23594 0)
(0.496772 -1.04982 0)
(0.70937 -0.974433 0)
(0.871635 -1.00275 0)
(0.886021 -0.949014 0)
(0.974025 -0.925892 0)
(1.00106 -0.910387 0)
(1.15941 -0.90935 0)
(1.29201 -0.743899 0)
(-0.0301797 -0.723592 0)
(-0.00596155 -0.826567 0)
(-0.0242031 -0.839757 0)
(0.0338641 -0.691113 0)
(0.102471 -0.788299 0)
(0.0928087 -0.756359 0)
(0.303473 -1.0499 0)
(0.144526 -0.799956 0)
(0.118974 -0.780499 0)
(0.275792 -1.15021 0)
(0.148012 -1.17662 0)
(0.234859 -0.893624 0)
(0.292076 -1.21637 0)
(0.386996 -1.07164 0)
(0.622374 -1.04989 0)
(0.660665 -0.986999 0)
(0.751803 -0.919943 0)
(0.829254 -1.07888 0)
(0.935749 -1.1012 0)
(1.04428 -1.02307 0)
(1.14931 -0.953037 0)
(1.34104 -0.73154 0)
(1.29082 -0.904213 0)
(-0.0291691 -0.601394 0)
(-0.0149774 -0.78477 0)
(0.040276 -0.778571 0)
(0.00595115 -0.481091 0)
(0.0126917 -0.750436 0)
(-0.0171797 -0.649679 0)
(0.0525873 -0.704963 0)
(0.209949 -0.750709 0)
(-0.0171954 -0.651304 0)
(0.0784746 -0.868425 0)
(0.33827 -0.717566 0)
(0.29339 -0.657587 0)
(0.283207 -0.822022 0)
(0.45714 -0.92947 0)
(0.621661 -1.01445 0)
(0.662742 -0.997874 0)
(0.743141 -1.03058 0)
(0.858969 -1.14668 0)
(0.928947 -1.13763 0)
(1.04716 -1.19268 0)
(1.16082 -1.01884 0)
(1.31542 -0.761077 0)
(1.33175 -0.980915 0)
(-0.135218 -0.868398 0)
(-0.0760046 -0.813778 0)
(0.0563972 -0.772934 0)
(-0.00158387 -0.762125 0)
(-0.0181862 -0.718859 0)
(0.0238673 -0.657534 0)
(0.0424344 -0.534478 0)
(0.098394 -0.587227 0)
(0.0255843 -0.512886 0)
(0.145923 -0.683474 0)
(0.304541 -0.502385 0)
(0.239065 -0.563723 0)
(0.283325 -0.726949 0)
(0.345899 -0.991767 0)
(0.584149 -1.08951 0)
(0.634883 -1.00577 0)
(0.664727 -1.0712 0)
(0.821711 -1.16428 0)
(0.880838 -1.10975 0)
(1.06481 -1.19663 0)
(1.35507 -0.985688 0)
(1.34084 -1.0627 0)
(1.14887 -1.26055 0)
(0.120836 -1.25186 0)
(0.135523 -1.28459 0)
(-0.123354 -1.25057 0)
(0.0113 -1.21734 0)
(0.152819 -1.22244 0)
(0.0539936 -1.19788 0)
(0.1071 -1.13249 0)
(0.108475 -1.07891 0)
(-0.042426 -0.992377 0)
(0.127687 -0.885333 0)
(0.292575 -0.909748 0)
(0.0902899 -0.933207 0)
(0.107716 -0.903508 0)
(0.298476 -1.06295 0)
(0.618238 -1.10331 0)
(0.620138 -1.14414 0)
(0.640086 -1.08798 0)
(0.921087 -1.1556 0)
(0.995005 -1.35406 0)
(0.964926 -1.28497 0)
(1.14662 -0.986798 0)
(1.02211 -1.37853 0)
(1.09512 -1.39486 0)
(0.00991347 -1.37031 0)
(0.0303512 -1.4687 0)
(0.0064183 -1.44333 0)
(0.0257576 -1.3585 0)
(0.0687053 -1.41437 0)
(0.0849276 -1.37012 0)
(0.137939 -1.34683 0)
(0.223 -1.30276 0)
(0.298305 -1.30105 0)
(0.22293 -1.35281 0)
(0.0704531 -1.21991 0)
(0.329713 -1.23539 0)
(0.331882 -1.31592 0)
(0.321825 -1.28913 0)
(0.439529 -1.31186 0)
(0.638515 -1.50997 0)
(0.639351 -1.40137 0)
(0.721387 -1.40136 0)
(0.815181 -1.66828 0)
(1.05249 -1.6113 0)
(1.20519 -1.56009 0)
(1.02761 -1.633 0)
(1.0674 -1.40376 0)
(0.0161063 -1.41602 0)
(0.0267805 -1.43683 0)
(0.0212531 -1.41812 0)
(0.0297677 -1.40732 0)
(0.0645639 -1.39376 0)
(0.0894706 -1.37431 0)
(0.156145 -1.36535 0)
(0.147375 -1.39676 0)
(0.14879 -1.42141 0)
(0.206704 -1.49639 0)
(0.227657 -1.42656 0)
(0.198913 -1.40888 0)
(0.30241 -1.48519 0)
(0.420743 -1.42323 0)
(0.331937 -1.48372 0)
(0.518978 -1.62707 0)
(0.745845 -1.52149 0)
(0.761291 -1.59593 0)
(0.688591 -1.75194 0)
(0.883059 -1.7365 0)
(1.22914 -1.82385 0)
(1.1474 -1.77268 0)
(1.23477 -1.64367 0)
(0.00568117 -1.46055 0)
(0.0261192 -1.48574 0)
(0.0412847 -1.47846 0)
(0.0460611 -1.47315 0)
(0.0762192 -1.45146 0)
(0.0941456 -1.46575 0)
(0.120439 -1.45439 0)
(0.158014 -1.48831 0)
(0.183226 -1.48018 0)
(0.200941 -1.46599 0)
(0.201069 -1.51773 0)
(0.249511 -1.48916 0)
(0.292071 -1.48549 0)
(0.348205 -1.53646 0)
(0.347507 -1.61186 0)
(0.499043 -1.53434 0)
(0.677495 -1.47923 0)
(0.662308 -1.66316 0)
(0.675041 -1.7842 0)
(0.911028 -1.84981 0)
(1.17452 -1.85577 0)
(1.21354 -1.82058 0)
(1.35113 -1.70377 0)
(0.00553765 -1.48444 0)
(0.0272695 -1.50732 0)
(0.0382276 -1.50688 0)
(0.0563981 -1.50283 0)
(0.0748517 -1.47693 0)
(0.0877554 -1.50129 0)
(0.114329 -1.49858 0)
(0.129892 -1.52234 0)
(0.149754 -1.53037 0)
(0.172611 -1.55841 0)
(0.198921 -1.56695 0)
(0.198882 -1.57892 0)
(0.314934 -1.58585 0)
(0.312665 -1.63499 0)
(0.351676 -1.66133 0)
(0.666592 -1.59472 0)
(0.614848 -1.59054 0)
(0.591921 -1.61437 0)
(0.403114 -1.71543 0)
(0.646758 -1.95947 0)
(1.19857 -2.10257 0)
(1.24379 -1.97431 0)
(1.38893 -1.91437 0)
(0.00265586 -1.51568 0)
(0.0252699 -1.53321 0)
(0.0440822 -1.53896 0)
(0.0748981 -1.53362 0)
(0.0754269 -1.54205 0)
(0.0788106 -1.54216 0)
(0.10441 -1.55234 0)
(0.122835 -1.56716 0)
(0.147294 -1.57554 0)
(0.159684 -1.59039 0)
(0.180198 -1.61108 0)
(0.19845 -1.63428 0)
(0.229841 -1.63946 0)
(0.270464 -1.6549 0)
(0.347786 -1.65526 0)
(0.671226 -1.61673 0)
(0.70744 -1.90271 0)
(0.642168 -1.74218 0)
(0.26361 -1.74734 0)
(0.542051 -1.98296 0)
(1.04545 -2.33679 0)
(1.23976 -2.13663 0)
(1.35101 -2.00971 0)
(0.00978399 -1.53949 0)
(0.0217617 -1.55018 0)
(0.0386732 -1.55762 0)
(0.0518141 -1.56425 0)
(0.0660013 -1.58249 0)
(0.0806898 -1.57914 0)
(0.0992153 -1.58723 0)
(0.107503 -1.59587 0)
(0.12703 -1.61101 0)
(0.137721 -1.62795 0)
(0.156587 -1.65063 0)
(0.167557 -1.66618 0)
(0.191056 -1.67758 0)
(0.267917 -1.61358 0)
(0.385826 -1.6576 0)
(0.379524 -1.7369 0)
(0.621963 -2.02418 0)
(0.822743 -1.8111 0)
(0.0758871 -2.11567 0)
(0.297936 -1.91542 0)
(0.802128 -2.27082 0)
(1.32849 -2.37099 0)
(1.51878 -2.27206 0)
(0.00681402 -1.56905 0)
(0.0194458 -1.58706 0)
(0.0346773 -1.59017 0)
(0.0486481 -1.59548 0)
(0.0608444 -1.60119 0)
(0.0736991 -1.60786 0)
(0.0856038 -1.61402 0)
(0.0986419 -1.62289 0)
(0.111706 -1.63755 0)
(0.120557 -1.65043 0)
(0.140119 -1.66916 0)
(0.147467 -1.68275 0)
(0.196998 -1.6992 0)
(0.225656 -1.62053 0)
(0.232648 -1.72165 0)
(0.347267 -1.80935 0)
(0.681478 -1.77212 0)
(0.626726 -2.12834 0)
(0.0691719 -2.28685 0)
(0.372984 -1.77283 0)
(0.617834 -1.92383 0)
(1.13392 -2.27848 0)
(1.62943 -2.36345 0)
(0.00581741 -1.59008 0)
(0.0174467 -1.61091 0)
(0.0312308 -1.61111 0)
(0.0415409 -1.61627 0)
(0.0545246 -1.62238 0)
(0.0697386 -1.62786 0)
(0.0809297 -1.63407 0)
(0.0878842 -1.64607 0)
(0.100118 -1.65766 0)
(0.105239 -1.67159 0)
(0.121898 -1.68961 0)
(0.122692 -1.70021 0)
(0.17181 -1.70844 0)
(0.171475 -1.67188 0)
(0.21887 -1.74017 0)
(0.41447 -1.74143 0)
(0.376197 -1.74082 0)
(0.378209 -2.19345 0)
(0.497318 -2.08496 0)
(0.665637 -1.84115 0)
(0.580795 -1.91502 0)
(0.761145 -2.24505 0)
(1.16301 -2.81629 0)
(0.00604804 -1.61583 0)
(0.0164383 -1.63321 0)
(0.0293054 -1.63492 0)
(0.0382405 -1.63739 0)
(0.0509143 -1.63814 0)
(0.0612835 -1.64315 0)
(0.0722604 -1.65004 0)
(0.0751382 -1.65804 0)
(0.0909892 -1.67083 0)
(0.0892983 -1.67702 0)
(0.112745 -1.69579 0)
(0.113735 -1.69822 0)
(0.133776 -1.70255 0)
(0.137004 -1.65414 0)
(0.217252 -1.68132 0)
(0.298473 -1.70951 0)
(0.25042 -1.9304 0)
(0.347444 -2.21944 0)
(0.740389 -2.16131 0)
(0.701963 -2.12387 0)
(0.279117 -2.60239 0)
(0.295596 -2.59546 0)
(0.726593 -3.11139 0)
(0.00421079 -1.63193 0)
(0.0162745 -1.64743 0)
(0.0256509 -1.64952 0)
(0.0390873 -1.65076 0)
(0.0498373 -1.65355 0)
(0.0587258 -1.65776 0)
(0.0666335 -1.66813 0)
(0.0669344 -1.67013 0)
(0.0828422 -1.68121 0)
(0.080998 -1.68088 0)
(0.100946 -1.69178 0)
(0.103435 -1.69426 0)
(0.125347 -1.72135 0)
(0.13701 -1.63425 0)
(0.152816 -1.66967 0)
(0.173739 -1.76497 0)
(0.106157 -1.89407 0)
(0.250138 -1.8723 0)
(0.781883 -2.22558 0)
(0.327133 -2.54833 0)
(0.106936 -2.82229 0)
(0.162782 -2.81918 0)
(0.256897 -2.75691 0)
(0.00630825 -1.6452 0)
(0.0158826 -1.66164 0)
(0.0253483 -1.66293 0)
(0.0354181 -1.66323 0)
(0.0455237 -1.669 0)
(0.0497346 -1.67518 0)
(0.0628584 -1.68399 0)
(0.0663177 -1.68577 0)
(0.0814474 -1.68537 0)
(0.0805326 -1.68728 0)
(0.0995372 -1.68775 0)
(0.0703185 -1.68918 0)
(0.124373 -1.72112 0)
(0.120772 -1.63244 0)
(0.110981 -1.70175 0)
(0.107969 -1.73562 0)
(0.114197 -1.81744 0)
(0.0524091 -1.8303 0)
(0.284735 -2.34462 0)
(0.114678 -2.60465 0)
(-0.0398044 -2.16766 0)
(0.266203 -2.9171 0)
(0.0588559 -2.58814 0)
(0.00471867 -1.65854 0)
(0.0141483 -1.67349 0)
(0.0248515 -1.67583 0)
(0.0327233 -1.67555 0)
(0.0368809 -1.68016 0)
(0.0437139 -1.68835 0)
(0.0584731 -1.69223 0)
(0.0655143 -1.69943 0)
(0.0817813 -1.69487 0)
(0.0761059 -1.69982 0)
(0.103188 -1.69706 0)
(0.0608344 -1.69231 0)
(0.13324 -1.70793 0)
(0.117139 -1.63719 0)
(0.0669176 -1.68554 0)
(0.0665901 -1.76144 0)
(0.00335249 -1.79265 0)
(-0.0595206 -1.89222 0)
(0.100993 -1.88589 0)
(0.373625 -2.24207 0)
(-0.162118 -2.0103 0)
(-0.154834 -2.66464 0)
(-0.124538 -2.68191 0)
(0.00651384 -1.66555 0)
(0.0149866 -1.67925 0)
(0.0237839 -1.67997 0)
(0.0304381 -1.6838 0)
(0.0313796 -1.68603 0)
(0.0357169 -1.69042 0)
(0.0505467 -1.69564 0)
(0.0639533 -1.70397 0)
(0.0789056 -1.69989 0)
(0.0737836 -1.71032 0)
(0.102545 -1.68819 0)
(0.0650776 -1.69827 0)
(0.170675 -1.6744 0)
(0.107767 -1.60319 0)
(0.0205028 -1.71244 0)
(0.0135521 -1.77425 0)
(-0.0179931 -1.75855 0)
(-0.00981654 -1.79155 0)
(0.0278136 -1.76084 0)
(0.240911 -2.07824 0)
(-0.30368 -2.10703 0)
(-0.181657 -2.05883 0)
(-0.204165 -2.68675 0)
(0.00626998 -1.66723 0)
(0.0143074 -1.68227 0)
(0.0201411 -1.68529 0)
(0.0271976 -1.69322 0)
(0.0311422 -1.69845 0)
(0.0350323 -1.69749 0)
(0.0444184 -1.69927 0)
(0.0607961 -1.70556 0)
(0.0761475 -1.71005 0)
(0.0902969 -1.71713 0)
(0.114545 -1.67763 0)
(0.0879101 -1.69854 0)
(0.268893 -1.59323 0)
(0.0898279 -1.58333 0)
(-0.0772372 -1.75633 0)
(-0.00846709 -1.78229 0)
(-0.0336639 -1.75213 0)
(-0.0595806 -1.73889 0)
(-0.0584901 -1.78753 0)
(-0.0451841 -2.02457 0)
(-0.222219 -2.12892 0)
(-0.337907 -1.82618 0)
(-0.0678179 -2.42411 0)
(0.00496542 -1.66389 0)
(0.0108344 -1.67829 0)
(0.0151118 -1.68175 0)
(0.0206464 -1.68838 0)
(0.030948 -1.69451 0)
(0.0381775 -1.69528 0)
(0.0443049 -1.69887 0)
(0.0554575 -1.70665 0)
(0.0725697 -1.714 0)
(0.10303 -1.7166 0)
(0.136859 -1.71733 0)
(0.150053 -1.74489 0)
(0.390239 -1.67931 0)
(0.0135112 -1.92568 0)
(-0.112225 -1.77806 0)
(-0.00893636 -1.75934 0)
(-0.0334125 -1.73489 0)
(-0.0638677 -1.70665 0)
(-0.109483 -1.68352 0)
(-0.136756 -1.78319 0)
(-0.274374 -1.83852 0)
(-0.388479 -1.77334 0)
(-0.391056 -1.92327 0)
(0.00362758 -1.66845 0)
(0.00844137 -1.68058 0)
(0.0102606 -1.68272 0)
(0.0137425 -1.68642 0)
(0.0237035 -1.69041 0)
(0.0308263 -1.69723 0)
(0.035498 -1.70229 0)
(0.0446556 -1.71006 0)
(0.0583457 -1.71965 0)
(0.081611 -1.73386 0)
(0.0802327 -1.77175 0)
(0.12057 -1.78906 0)
(0.180669 -1.80408 0)
(0.0164317 -2.05258 0)
(0.0986537 -1.75979 0)
(-0.00336395 -1.75314 0)
(-0.0479197 -1.72688 0)
(-0.0769309 -1.69492 0)
(-0.140173 -1.65371 0)
(-0.136155 -1.67813 0)
(-0.169396 -1.72101 0)
(-0.247464 -1.62104 0)
(-0.378724 -1.67425 0)
(0.00323759 -1.71815 0)
(0.00751543 -1.72824 0)
(0.0100004 -1.73109 0)
(0.0137702 -1.73355 0)
(0.0208532 -1.73742 0)
(0.0265266 -1.74633 0)
(0.0318968 -1.75333 0)
(0.0416577 -1.7612 0)
(0.052199 -1.77272 0)
(0.0655178 -1.78865 0)
(0.0777853 -1.80361 0)
(0.11885 -1.81518 0)
(0.124374 -1.83094 0)
(0.116732 -1.85347 0)
(0.150414 -1.69566 0)
(-0.00770707 -1.7087 0)
(-0.0489849 -1.6725 0)
(-0.0895155 -1.65543 0)
(-0.17518 -1.61633 0)
(-0.185965 -1.63151 0)
(-0.19795 -1.65707 0)
(-0.239676 -1.54947 0)
(-0.319656 -1.56471 0)
(0.0010339 -1.70568 0)
(0.00278217 -1.71163 0)
(0.00473559 -1.71394 0)
(0.00788465 -1.71758 0)
(0.0109931 -1.72334 0)
(0.0143891 -1.73265 0)
(0.0180341 -1.74244 0)
(0.0244617 -1.75546 0)
(0.0360829 -1.76885 0)
(0.0526886 -1.78709 0)