/*--------------------------------*- C++ -*----------------------------------*\
| =========                 |                                                 |
| \\      /  F ield         | foam-extend: Open Source CFD                    |
|  \\    /   O peration     | Version:     4.1                                |
|   \\  /    A nd           | Web:         http://www.foam-extend.org         |
|    \\/     M anipulation  |                                                 |
\*---------------------------------------------------------------------------*/
FoamFile
{
    version     2.0;
    format      ascii;
    class       volScalarField;
    location    "0.75";
    object      alpha1;
}
// * * * * * * * * * * * * * * * * * * * * * * * * * * * * * * * * * * * * * //

dimensions      [0 0 0 0 0 0 0];

internalField   nonuniform List<scalar> 
2268
(
1
1
1
1
1
1
0.998592
0.996912
0.995807
0.995401
0.995573
0.996156
0.996962
0.997793
0.998539
0.999156
0.999625
0.999923
1
1
1
1
1
1
1
0.999533
0.998048
0.998283
0.997784
0.996822
0.99555
0.994818
0.99469
0.995069
0.995723
0.996558
0.997408
0.998225
0.998948
0.999531
0.999926
1
1
1
1
1
0.996703
0.995318
0.993148
0.991166
0.992364
0.99294
0.993116
0.992788
0.992809
0.993256
0.993966
0.994704
0.995583
0.996451
0.997423
0.998392
0.999229
0.999829
1
1
1
1
1
0.988336
0.985369
0.982267
0.980065
0.983262
0.985885
0.987919
0.989057
0.990084
0.991226
0.992187
0.992921
0.993783
0.994608
0.99579
0.997158
0.998396
0.99927
1
1
1
1
1
0.975402
0.9704
0.965968
0.964695
0.971469
0.977285
0.981821
0.984799
0.986809
0.988426
0.989387
0.98988
0.990565
0.991193
0.992533
0.994418
0.996186
0.997313
0.998612
0.999435
0.998597
1
1
0.955462
0.949176
0.943391
0.94565
0.958088
0.968036
0.975274
0.979916
0.98261
0.984193
0.984831
0.984639
0.984886
0.985003
0.986197
0.988527
0.990868
0.992005
0.992849
0.992393
0.985979
0.992629
1
0.92346
0.918897
0.913374
0.923927
0.944194
0.95848
0.967863
0.97345
0.976307
0.977239
0.977122
0.975542
0.974991
0.974126
0.974406
0.976602
0.979231
0.979854
0.978024
0.973988
0.953805
0.967625
0.994842
0.86935
0.872128
0.873044
0.898444
0.928066
0.946153
0.956772
0.962573
0.965376
0.965212
0.963719
0.959728
0.957956
0.955515
0.953492
0.953964
0.955536
0.954296
0.945375
0.933831
0.88769
0.913192
0.969195
0.540887
0.533042
0.491182
0.461102
0.442627
0.432215
0.43432
0.45746
0.472523
0.479767
0.484257
0.48854
0.493727
0.497891
0.499095
0.51813
0.511225
0.502989
0.502698
0.545366
0.549458
0.52994
0.512715
0.504074
0.469215
0.443241
0.42713
0.420893
0.417904
0.415018
0.410649
0.407855
0.422155
0.425872
0.471347
0.493202
0.495917
0.504691
0.553992
0.572592
0.576089
0.574592
0.581663
0.548106
0.505037
0.430642
0.365742
0.337535
0.322028
0.309013
0.300042
0.312874
0.32158
0.370129
0.425179
0.470034
0.506448
0.560528
0.580012
0.570021
0.568215
0.584153
0.587934
0.589806
0.513317
0.38222
0.307246
0.26404
0.243178
0.240442
0.252089
0.258267
0.272504
0.325555
0.419821
0.50782
0.560685
0.571319
0.500339
0.470673
0.480024
0.523599
0.602186
0.622238
0.477847
0.363661
0.274515
0.218859
0.225932
0.249516
0.259933
0.220883
0.265322
0.360358
0.510829
0.558358
0.544826
0.384354
0.328102
0.324613
0.397481
0.528216
0.672443
0.612074
0.502462
0.369008
0.235462
0.245477
0.296592
0.338867
0.241598
0.257862
0.326552
0.517175
0.553683
0.508993
0.27985
0.215241
0.221135
0.307152
0.43388
0.637049
0.686578
0.64056
0.506776
0.299763
0.309708
0.368599
0.450009
0.329736
0.297569
0.317554
0.524385
0.545148
0.477807
0.232031
0.164554
0.190648
0.276281
0.370541
0.543519
0.65984
0.696158
0.613151
0.413834
0.421397
0.46854
0.544882
0.452216
0.343487
0.33068
0.531941
0.732247
0.757378
0.784901
0.849737
0.89594
0.917613
0.927863
0.932246
0.935845
0.93246
0.928033
0.918271
0.913489
0.90856
0.899289
0.892445
0.887975
0.877926
0.847239
0.819296
0.72199
0.770315
0.888969
0.467371
0.522792
0.608223
0.745543
0.817384
0.828086
0.828375
0.82087
0.829654
0.814278
0.805316
0.786305
0.771053
0.76843
0.744012
0.708069
0.674394
0.644903
0.560184
0.549586
0.463722
0.515986
0.677526
0.279802
0.361899
0.503853
0.58553
0.606161
0.566507
0.543922
0.527024
0.501895
0.461716
0.437493
0.473029
0.441526
0.461636
0.444078
0.406569
0.388919
0.379238
0.372235
0.385211
0.405452
0.534018
0.645801
0.201604
0.289774
0.344907
0.301634
0.247419
0.244031
0.230691
0.214539
0.175056
0.16836
0.173155
0.193405
0.186387
0.216492
0.238382
0.260151
0.29491
0.317409
0.3496
0.409472
0.468875
0.506177
0.522986
0.164002
0.21328
0.204131
0.153825
0.111242
0.117046
0.111156
0.110944
0.103637
0.117794
0.130681
0.140105
0.148162
0.168616
0.18879
0.219098
0.274659
0.297613
0.305204
0.321031
0.34696
0.362733
0.341132
0.133886
0.152243
0.115289
0.0911664
0.0687044
0.0766083
0.103423
0.14149
0.178453
0.205885
0.227101
0.247335
0.266645
0.282337
0.291604
0.295667
0.296313
0.285087
0.279851
0.280593
0.284051
0.279033
0.251355
0.107179
0.0998089
0.0779837
0.0768501
0.0869432
0.121033
0.158997
0.189648
0.206448
0.2233
0.238657
0.254578
0.266726
0.274087
0.277928
0.278972
0.275656
0.26643
0.259951
0.254549
0.234412
0.193762
0.156221
0.0837445
0.0742716
0.0784055
0.0905575
0.113572
0.133911
0.1431
0.14259
0.124867
0.116037
0.12032
0.151477
0.17889
0.200538
0.21817
0.227786
0.232641
0.233702
0.222164
0.195468
0.161353
0.137106
0.129177
0.0720492
0.0799287
0.0898937
0.102914
0.112674
0.121461
0.110345
0.0775678
0.0548203
0.0484966
0.0546009
0.08241
0.111376
0.134318
0.157393
0.173599
0.186318
0.191734
0.192448
0.178732
0.160799
0.141954
0.132034
0.0725052
0.0881937
0.0963747
0.10116
0.103587
0.101487
0.0740741
0.0406318
0.0238478
0.019728
0.0238072
0.0375274
0.0560146
0.0773557
0.0987779
0.11847
0.137743
0.149795
0.158029
0.159439
0.157974
0.150479
0.145883
0.0724611
0.0885574
0.0947523
0.0960898
0.0858292
0.0753796
0.0449794
0.0211268
0.0109457
0.0115306
0.0199213
0.0327175
0.0437923
0.0491483
0.0503277
0.0508598
0.0578402
0.0683023
0.0816334
0.0916214
0.104081
0.112051
0.118153
0.071283
0.0865415
0.0911572
0.0843345
0.0621595
0.045478
0.0232384
0.0107975
0.00601705
0.00902835
0.016301
0.0225783
0.0242977
0.0227406
0.0187439
0.015348
0.0145611
0.014875
0.01801
0.0210793
0.0264374
0.0309544
0.0405906
0.0695557
0.0826784
0.0835854
0.0652425
0.0372182
0.0218577
0.0097765
0.00487568
0.00359673
0.00627352
0.0102667
0.0115274
0.0106757
0.0085557
0.00639807
0.00435263
0.00331176
0.00311263
0.00349511
0.00396456
0.00504284
0.00669803
0.0110188
0.0671698
0.0777159
0.0746533
0.0516137
0.0247728
0.00992513
0.00371018
0.002077
0.00240364
0.00433911
0.00584324
0.0057522
0.0046113
0.00302782
0.00186962
0.00111183
0.000799863
0.000887012
0.00104192
0.00135282
0.00208085
0.00339522
0.00528581
0.0641585
0.0721013
0.064065
0.0398636
0.0169308
0.0057021
0.00193025
0.00112678
0.00161515
0.00271028
0.00335692
0.0030275
0.00218517
0.00115766
0.000524442
0.000242922
0.000151501
0.000225333
0.000291306
0.000408473
0.000615431
0.000912004
0.00126979
0.0608739
0.0657949
0.0535375
0.0329074
0.0135897
0.00440583
0.00138304
0.000679395
0.000936281
0.00148553
0.00166348
0.0014465
0.00104385
0.000480651
0.000124537
1.34229e-05
0
1.49465e-05
3.88774e-05
6.58022e-05
0.000109798
0.000190241
0.000246538
0.0574173
0.0588458
0.0443239
0.0301882
0.0147913
0.00480192
0.00137963
0.000490836
0.000460544
0.000656225
0.000572219
0.000437341
0.000290216
0.000108918
6.23725e-06
0
0
0
0
0
0
1.97214e-05
2.99638e-05
0.0537393
0.0514736
0.0378268
0.0270933
0.0141223
0.00510946
0.00157013
0.000500995
0.000264914
0.000262663
0.000192095
0.000108867
4.64262e-05
7.92242e-06
0
0
0
0
0
0
0
0
0
0.0498862
0.0446924
0.0323077
0.0220778
0.0102571
0.00390034
0.00137607
0.000487372
0.000218484
0.000135433
8.30849e-05
3.78831e-05
1.06695e-05
4.4696e-07
0
0
0
0
0
0
0
0
0
0.0463089
0.0394872
0.0286289
0.0202278
0.00783844
0.00268792
0.0010996
0.000466679
0.000192541
7.83588e-05
3.39012e-05
1.16129e-05
3.64904e-06
1.35778e-06
3.57877e-07
5.25811e-09
0
0
0
0
0
0
0
0.0429291
0.0345157
0.0254323
0.0198865
0.00857042
0.00289194
0.00125801
0.000444888
0.000134295
3.48616e-05
1.95948e-05
1.22582e-05
8.07138e-06
4.9916e-06
1.65981e-06
3.11795e-07
3.79681e-08
1.12382e-08
3.04082e-08
5.14384e-08
9.0797e-08
1.12091e-07
1.01926e-07
0.0396337
0.0296203
0.0222303
0.0187762
0.00820126
0.00268386
0.0011336
0.000321524
9.10914e-05
4.6779e-05
4.74259e-05
3.35874e-05
2.21542e-05
1.07959e-05
3.54009e-06
8.69581e-07
1.75134e-07
3.59748e-08
6.92463e-09
8.62211e-09
1.73934e-08
2.75748e-08
2.39899e-08
0.0363117
0.0254319
0.0200325
0.0169444
0.00672389
0.00222407
0.000992218
0.00030809
0.000122381
0.00010674
0.000119368
6.66257e-05
3.08835e-05
1.13866e-05
3.49281e-06
9.36916e-07
2.48026e-07
7.88338e-08
2.37935e-08
7.53823e-09
3.18782e-09
2.69548e-09
8.46786e-10
0.0328833
0.0215236
0.0181324
0.0142463
0.00507355
0.00193026
0.00105137
0.00037731
0.000226661
0.000249682
0.000199448
8.40559e-05
2.90536e-05
9.28739e-06
2.7338e-06
7.14507e-07
1.98916e-07
7.78146e-08
2.63178e-08
7.66034e-09
2.3519e-09
6.62621e-10
0
0.0293406
0.0181771
0.0164569
0.0124411
0.00423822
0.00175442
0.00119014
0.000589629
0.000443568
0.000485285
0.000258896
9.40582e-05
3.30803e-05
1.28393e-05
3.85648e-06
5.82502e-07
2.9548e-08
0
0
0
0
7.52509e-11
2.36661e-12
0.0260837
0.0163223
0.0148261
0.0102533
0.00338707
0.00178958
0.00150417
0.000974934
0.00075203
0.000613773
0.000293461
0.000138105
6.92871e-05
3.18947e-05
9.60649e-06
1.47436e-06
6.14119e-08
0
0
0
0
0
1.0093e-12
0.0231003
0.0149665
0.0130551
0.00828854
0.00334563
0.00185615
0.00175402
0.00140288
0.00114254
0.000830335
0.000500693
0.000312295
0.000141541
6.15151e-05
1.75473e-05
3.16146e-06
3.75084e-07
0
0
0
0
0
0
0.0204875
0.0138605
0.0118237
0.00677891
0.00306141
0.0019501
0.00185718
0.00169789
0.00154915
0.00119965
0.000823063
0.000510433
0.000234341
0.000114065
3.15307e-05
5.16006e-06
6.04054e-07
3.36813e-08
0
0
0
0
0
0.0182625
0.0132331
0.0111505
0.00659206
0.00325376
0.00217683
0.00190016
0.00184136
0.00175001
0.00141331
0.00101333
0.000711221
0.000391251
0.000207642
5.29229e-05
7.32283e-06
6.9685e-07
1.80156e-08
0
0
0
0
0
0.0162807
0.0129614
0.0109085
0.00705662
0.0039192
0.00250558
0.0019015
0.00184929
0.00181105
0.00155004
0.00125581
0.00109166
0.000759685
0.000410298
9.92599e-05
1.11503e-05
7.27366e-07
0
0
0
0
0
1.21873e-11
0.0143774
0.01224
0.0105801
0.00773898
0.00495912
0.00300156
0.00195395
0.00179302
0.00180502
0.00169731
0.00162523
0.00164282
0.00135031
0.00069223
0.000159089
1.64479e-05
1.16402e-06
2.68523e-08
0
0
0
2.25759e-10
2.84029e-10
0.0127343
0.0111966
0.00988973
0.00765873
0.00527478
0.00322846
0.00204759
0.00177064
0.00179536
0.00180666
0.00191391
0.00197517
0.00169057
0.000900114
0.000201457
3.0225e-05
4.88399e-06
4.80654e-07
1.24993e-09
0
0
5.18372e-10
5.14702e-10
0.0114153
0.0100028
0.00851673
0.00686299
0.00490903
0.0030154
0.00201236
0.00179946
0.00182695
0.00192952
0.00212694
0.00209543
0.0015663
0.000690013
0.000201092
3.84578e-05
5.93189e-06
3.51573e-07
0
0
5.16986e-10
9.49357e-10
0
0.0102289
0.00877708
0.00659526
0.00506889
0.00363309
0.00242477
0.00197093
0.00194673
0.00203981
0.00222725
0.00228756
0.00209514
0.00130589
0.00038035
6.79378e-05
5.86613e-06
0
0
0
0
1.5973e-09
7.351e-10
0
0.00880419
0.00744616
0.00504985
0.00345426
0.00254993
0.00215248
0.00210599
0.00225151
0.00234481
0.0023269
0.00223224
0.00174736
0.000851411
0.000217055
3.03502e-05
3.35192e-06
1.13976e-07
0
0
8.31213e-10
2.46449e-09
0
0
0.00652233
0.00559916
0.00381924
0.00267427
0.00226779
0.00223575
0.00235827
0.00238636
0.00230077
0.00210724
0.0017653
0.000907434
0.000264228
5.23661e-05
7.32943e-06
4.14755e-07
0
0
1.07761e-10
3.06654e-09
2.55233e-09
0
0
0.00396192
0.00367655
0.00295015
0.0024217
0.00231675
0.00241875
0.00243921
0.00226325
0.00188808
0.00146901
0.000954313
0.000364094
7.40537e-05
7.4383e-06
1.14191e-07
0
0
0
1.84623e-09
4.94208e-09
5.70698e-10
0
0
0.00261059
0.0026763
0.00252329
0.00240119
0.00244531
0.00249155
0.0023835
0.00191213
0.00119372
0.000706109
0.000310507
8.96496e-05
1.34989e-05
6.63389e-07
0
0
0
7.58618e-10
3.77466e-09
7.70613e-09
0
0
0
0.00186073
0.00214334
0.00230385
0.00237378
0.00245212
0.00242446
0.00211239
0.0013155
0.000531271
0.000258652
7.95838e-05
1.30884e-05
1.42413e-07
0
0
0
7.42328e-10
1.7939e-09
7.33757e-09
1.06013e-08
0
0
0
0.00115369
0.00159504
0.00202296
0.00223845
0.00228785
0.00209739
0.00148843
0.000691718
0.000220848
8.9666e-05
2.36093e-05
3.49772e-06
1.21537e-07
0
0
8.52374e-10
7.15679e-10
3.56135e-09
1.20916e-08
1.26025e-08
0
0
0
0.000565423
0.000897606
0.001411
0.00175465
0.00168212
0.00125606
0.000627839
0.000230296
4.48164e-05
1.65641e-05
3.34494e-06
2.25964e-07
0
0
3.92783e-10
2.4515e-10
1.04763e-09
5.44598e-09
1.44831e-08
1.29265e-08
0
0
0
0.000188625
0.000284338
0.000529252
0.000830227
0.000651574
0.000334405
0.000115676
4.32612e-05
3.44621e-06
1.15662e-06
6.05178e-08
0
0
8.06306e-11
2.08225e-10
9.88182e-11
1.28993e-09
5.83218e-09
1.48974e-08
1.29923e-08
0
0
0
0.902742
0.878252
0.779753
0.630047
0.785886
0.782578
0.697924
0.581987
0.655158
0.601165
0.520648
0.447273
0.453227
0.405665
0.363036
0.329575
0.304847
0.285449
0.266341
0.236771
0.221411
0.202572
0.183997
0.166023
0.141932
0.140061
0.142069
0.14823
0.131432
0.139475
0.149973
0.161095
0.131115
0.134218
0.139623
0.146384
0.145127
0.145146
0.145499
0.146084
0.122596
0.121915
0.117884
0.114057
0.0528854
0.055972
0.0557708
0.0541752
0.0165954
0.0190578
0.0204736
0.0211256
0.00685843
0.00765224
0.00826827
0.00866882
0.00176602
0.00220655
0.00278274
0.00333644
0.000393342
0.000618584
0.000998233
0.00143
4.29212e-05
8.97218e-05
0.000195632
0.000352196
0
0
0
1.79298e-05
0
0
0
0
0
0
0
0
1.44438e-07
1.61813e-07
1.2479e-07
1.3219e-08
3.23844e-08
4.83952e-08
7.26063e-08
9.74709e-08
0
1.27256e-09
5.10914e-09
1.14418e-08
0
0
0
0
0
0
0
0
0
0
1.62388e-11
1.06588e-10
0
0
1.04047e-10
3.05502e-10
0
1.13785e-10
4.03212e-10
7.15088e-10
9.71561e-11
4.90061e-10
1.14682e-09
1.48468e-09
4.74957e-10
1.40723e-09
2.69932e-09
2.5956e-09
1.15737e-09
2.79015e-09
4.54757e-09
2.4858e-09
1.85625e-09
3.88257e-09
5.17485e-09
0
5.60493e-10
3.03604e-10
0
0
0
0
0
0
0
0
0
0
0
0
0
0
0
0
0
0
0
0
0
0
0
0
0
0
0
0
0
0
0
0
0
0
0
0
0
0
0.514715
0.426371
0.252693
0.171284
0.202657
0.269611
0.321261
0.393073
0.529674
0.64958
0.663012
0.621525
0.612758
0.618106
0.628926
0.575637
0.380078
0.372889
0.547374
0.440589
0.28523
0.232131
0.219945
0.242872
0.308706
0.314153
0.335042
0.397952
0.46494
0.514435
0.533491
0.567562
0.624263
0.644336
0.578873
0.364511
0.4242
0.567155
0.340783
0.245966
0.268345
0.231305
0.226327
0.22493
0.214823
0.225702
0.258534
0.296925
0.30288
0.328807
0.437179
0.581768
0.610103
0.449559
0.376314
0.475623
0.578662
0.270878
0.202939
0.201974
0.157675
0.155299
0.151064
0.144508
0.145397
0.17171
0.17263
0.206406
0.315089
0.468296
0.530432
0.446374
0.301987
0.390934
0.526763
0.593094
0.187313
0.150249
0.147747
0.140928
0.139398
0.125651
0.120518
0.121564
0.149147
0.195941
0.311647
0.413866
0.450518
0.395181
0.320006
0.277397
0.376427
0.486195
0.533824
0.149718
0.14572
0.163895
0.168787
0.164904
0.153121
0.151185
0.166209
0.225304
0.277916
0.342462
0.362208
0.322961
0.275389
0.242578
0.224956
0.220295
0.308056
0.395487
0.163153
0.181672
0.19055
0.193271
0.194912
0.197984
0.215226
0.24182
0.275629
0.288997
0.299216
0.256337
0.207276
0.177832
0.140283
0.116275
0.111053
0.139813
0.209583
0.17726
0.194446
0.202889
0.206289
0.207253
0.204353
0.219863
0.234812
0.241436
0.242169
0.232119
0.193137
0.143967
0.104355
0.0752354
0.0594233
0.057423
0.0649523
0.0936653
0.159058
0.18411
0.205366
0.215471
0.217984
0.203581
0.198134
0.197739
0.197719
0.191607
0.171006
0.133442
0.0889
0.0589077
0.0437509
0.0358268
0.0342084
0.0398566
0.0484558
0.14712
0.151358
0.175664
0.205193
0.218341
0.22189
0.219832
0.204455
0.183884
0.159042
0.123739
0.0853807
0.0563265
0.0388131
0.0295335
0.0244308
0.022364
0.0283984
0.0323414
0.10834
0.101979
0.100817
0.118058
0.129203
0.154667
0.173014
0.177401
0.150226
0.109102
0.078015
0.0530498
0.0372002
0.0274465
0.0208057
0.0171706
0.0152062
0.0208278
0.0241213
0.0519086
0.0505724
0.0480099
0.0608559
0.0719958
0.0898981
0.098108
0.0992668
0.0855587
0.0574792
0.0427062
0.0322176
0.0263295
0.0196481
0.0132607
0.0117476
0.0106778
0.0162535
0.018774
0.0215118
0.0219899
0.0235001
0.0271585
0.0329126
0.0413823
0.0450788
0.0453828
0.0392095
0.0259867
0.0187648
0.0153108
0.0125873
0.0121489
0.00689289
0.0067591
0.00794434
0.0137466
0.0151284
0.00912858
0.00967519
0.0110314
0.0117447
0.0150566
0.0180736
0.0189435
0.0199672
0.0173321
0.0100331
0.00636982
0.00616556
0.0039496
0.00439998
0.00280522
0.00292878
0.00623492
0.0121141
0.0125588
0.00401717
0.00448556
0.00490344
0.00515367
0.00661134
0.00745751
0.00732742
0.00799461
0.00662068
0.00346412
0.00197675
0.00205986
0.00119879
0.00112561
0.000934392
0.00116784
0.00493221
0.010805
0.0106431
0.00194607
0.00199805
0.00193919
0.0022554
0.00284554
0.00261459
0.00236856
0.00236036
0.00173303
0.000906303
0.000555789
0.000564877
0.000377307
0.000237437
0.000256842
0.000711895
0.0045686
0.00969348
0.00907521
0.000657743
0.00066305
0.000630853
0.000964889
0.00156332
0.0010863
0.00078469
0.000577586
0.000401636
0.000246673
0.00016019
0.000148698
0.000118277
5.10472e-05
4.08304e-05
0.000671016
0.00432667
0.00814732
0.00773389
8.3524e-05
0.000102398
0.0001462
0.000291384
0.000750613
0.000559475
0.000361082
0.000203202
0.000127538
9.05525e-05
5.59392e-05
4.64901e-05
4.0091e-05
1.1631e-05
0
0.000393706
0.0033545
0.00638539
0.00665906
0
0
2.74995e-06
3.32198e-05
0.000178219
0.000171225
0.000113773
7.34524e-05
4.24926e-05
2.934e-05
1.8387e-05
1.64266e-05
1.31427e-05
0
0
0.000359936
0.00265717
0.00509971
0.00584316
0
0
0
0
5.88333e-06
1.85687e-05
1.47694e-05
1.35698e-05
9.9506e-06
6.59204e-06
4.3776e-06
4.7971e-06
3.60835e-06
0
0
0.000289105
0.00199674
0.0042165
0.00520344
0
0
0
0
0
0
0
0
0
0
1.34208e-07
6.2323e-07
0
0
0
0.00025326
0.00157808
0.00356667
0.00467547
1.18984e-07
6.48883e-08
0
0
0
0
0
0
0
0
0
0
0
0
0
0.00021914
0.00126825
0.00308281
0.00422607
2.62743e-08
5.71789e-08
8.69571e-08
5.84024e-08
0
0
0
0
0
0
0
0
0
0
0
0.000185447
0.00103303
0.00269508
0.00382649
2.30284e-10
6.64324e-09
1.82108e-08
4.43884e-08
4.718e-08
3.58866e-08
1.25777e-08
0
0
0
0
0
0
0
0
0.000134894
0.000841228
0.00233515
0.00346544
0
0
7.47274e-10
6.71574e-09
1.55395e-08
2.03042e-08
1.59469e-08
1.15549e-08
0
0
0
0
0
0
0
9.34968e-05
0.000666482
0.0019779
0.0031441
3.69273e-10
3.07635e-10
0
0
0
0
0
0
0
0
0
0
0
0
0
6.85243e-05
0.000520214
0.00168677
0.00285816
7.08315e-10
4.20564e-10
0
0
0
0
0
0
0
0
0
0
0
0
0
4.29932e-05
0.000401948
0.00147197
0.00259278
7.83201e-10
0
0
0
0
0
0
0
0
0
0
0
0
0
0
3.35336e-05
0.000342772
0.00133802
0.00235427
1.36378e-11
0
0
0
0
0
0
0
0
0
0
0
0
0
0
2.94852e-05
0.000310155
0.00122186
0.00212364
0
0
0
0
0
0
0
0
0
0
0
0
0
0
0
3.21228e-05
0.000281846
0.00106901
0.00190332
0
0
0
0
0
0
0
0
0
0
0
0
0
0
0
1.84963e-05
0.000217763
0.000896876
0.00170509
0
0
0
0
0
0
0
0
0
0
0
0
0
0
0
1.76087e-05
0.00020239
0.00077185
0.0015329
0
0
0
0
0
0
1.21147e-06
3.00402e-06
2.93617e-06
2.72114e-06
1.85661e-06
8.89099e-07
0
0
0
2.60925e-05
0.000187983
0.000641212
0.00137646
0
0
0
0
1.70103e-07
3.16814e-06
8.66493e-06
1.06351e-05
1.03927e-05
9.84391e-06
8.10026e-06
5.26485e-06
2.16828e-06
0
0
1.90676e-05
0.000129357
0.000486376
0.00123932
0
0
0
0
2.87301e-06
8.76343e-06
1.99259e-05
2.20216e-05
2.42492e-05
2.3432e-05
2.09102e-05
1.5424e-05
9.38546e-06
3.61006e-06
0
5.62759e-06
6.12709e-05
0.000350416
0.00113275
0
0
0
1.62785e-06
9.06021e-06
1.78763e-05
3.29134e-05
3.79338e-05
4.70478e-05
4.68383e-05
4.25634e-05
3.36466e-05
2.34527e-05
1.28013e-05
2.7323e-06
1.55142e-06
3.52205e-05
0.000297861
0.00105424
0
0
0
5.65569e-06
1.63814e-05
2.80508e-05
4.58595e-05
5.97174e-05
7.13286e-05
7.19624e-05
6.73769e-05
5.54836e-05
3.85252e-05
2.01329e-05
8.28577e-06
0
5.18644e-06
0.000173012
0.000967155
0
0
2.52552e-06
1.24753e-05
2.90258e-05
4.67889e-05
6.55833e-05
8.24025e-05
8.84674e-05
8.77859e-05
8.12771e-05
6.86057e-05
4.94241e-05
2.86368e-05
1.52535e-05
0
1.62951e-05
0.00027153
0.00117661
0
0
5.87423e-06
1.97358e-05
3.83963e-05
6.01186e-05
8.03677e-05
9.68452e-05
9.87456e-05
9.28219e-05
8.36279e-05
7.52292e-05
6.233e-05
4.22397e-05
2.2223e-05
2.27874e-06
3.12857e-05
0.000299861
0.00111309
0
0
8.89267e-06
2.52695e-05
4.3506e-05
6.50657e-05
8.93452e-05
0.000103503
0.000100887
8.66803e-05
7.19616e-05
6.3333e-05
5.78233e-05
4.67805e-05
3.18131e-05
6.80111e-06
3.14349e-05
0.000238394
0.000795831
0
7.99909e-07
1.22005e-05
2.74393e-05
4.48622e-05
6.52961e-05
9.13489e-05
0.0001055
9.96505e-05
8.14043e-05
6.45665e-05
5.36844e-05
4.77907e-05
4.0982e-05
2.91124e-05
9.38261e-06
1.73107e-05
0.000110462
0.000480394
0
1.01503e-06
1.36673e-05
2.84521e-05
4.54964e-05
6.54135e-05
9.18025e-05
0.000106035
9.94e-05
8.06189e-05
6.31622e-05
5.07365e-05
4.2512e-05
3.59014e-05
2.77101e-05
1.37139e-05
4.44368e-06
2.78609e-05
0.000201159
)
;

boundaryField
{
    leftWall
    {
        type            zeroGradient;
    }
    rightWall
    {
        type            zeroGradient;
    }
    lowerWall
    {
        type            zeroGradient;
    }
    atmosphere
    {
        type            inletOutlet;
        inletValue      uniform 0;
        value           nonuniform List<scalar> 
46
(
0.000188625
0.000284338
0.000529252
0.000830227
0.000651574
0.000334405
0.000115676
4.32612e-05
3.44621e-06
1.15662e-06
6.05178e-08
0
0
8.06306e-11
2.08225e-10
9.88182e-11
1.28993e-09
5.83218e-09
1.48974e-08
1.29923e-08
0
0
0
0
0
0
0
0
1.01503e-06
1.36673e-05
2.84521e-05
4.54964e-05
6.54135e-05
9.18025e-05
0.000106035
9.94e-05
8.06189e-05
6.31622e-05
5.07365e-05
4.2512e-05
3.59014e-05
2.77101e-05
1.37139e-05
4.44368e-06
2.78609e-05
0.000201159
)
;
    }
    defaultFaces
    {
        type            empty;
    }
}


// ************************************************************************* //
