/*--------------------------------*- C++ -*----------------------------------*\
| =========                 |                                                 |
| \\      /  F ield         | foam-extend: Open Source CFD                    |
|  \\    /   O peration     | Version:     4.1                                |
|   \\  /    A nd           | Web:         http://www.foam-extend.org         |
|    \\/     M anipulation  |                                                 |
\*---------------------------------------------------------------------------*/
FoamFile
{
    version     2.0;
    format      ascii;
    class       volScalarField;
    location    "0.75";
    object      C;
}
// * * * * * * * * * * * * * * * * * * * * * * * * * * * * * * * * * * * * * //

dimensions      [0 0 0 0 0 0 0];

internalField   nonuniform List<scalar> 
2268
(
1.00751
1.00675
1.00429
1.00209
1.00185
1.00006
0.997185
0.993824
0.991614
0.990802
0.991147
0.992312
0.993923
0.995586
0.997079
0.998312
0.99925
0.999846
1.00027
1.00073
1.00138
1.00196
1.00205
1.00334
1.00214
0.999065
0.996097
0.996566
0.995567
0.993643
0.991101
0.989636
0.989379
0.990138
0.991446
0.993115
0.994817
0.99645
0.997896
0.999061
0.999853
1.00056
1.00134
1.00232
1.00311
1.00334
0.993406
0.990636
0.986295
0.982333
0.984729
0.985879
0.986232
0.985576
0.985617
0.986511
0.987931
0.989408
0.991167
0.992902
0.994847
0.996783
0.998457
0.999657
1.00095
1.00233
1.00381
1.00514
1.00603
0.976673
0.970737
0.964533
0.960131
0.966523
0.971769
0.975838
0.978114
0.980168
0.982451
0.984375
0.985843
0.987567
0.989215
0.991581
0.994317
0.996791
0.99854
1.00061
1.00254
1.00389
1.00651
1.0095
0.950804
0.940799
0.931937
0.929389
0.942937
0.954569
0.963642
0.969599
0.973619
0.976852
0.978774
0.979759
0.98113
0.982387
0.985067
0.988836
0.992372
0.994626
0.997224
0.998869
0.997195
1.00306
1.01182
0.910925
0.898352
0.886782
0.8913
0.916176
0.936073
0.950548
0.959831
0.965219
0.968387
0.969662
0.969279
0.969772
0.970005
0.972394
0.977055
0.981735
0.984009
0.985697
0.984786
0.971958
0.985259
1.0083
0.84692
0.837794
0.826749
0.847853
0.888387
0.916959
0.935727
0.946899
0.952614
0.954478
0.954244
0.951084
0.949982
0.948252
0.948812
0.953205
0.958462
0.959708
0.956048
0.947977
0.907609
0.93525
0.989684
0.738701
0.744256
0.746088
0.796888
0.856132
0.892306
0.913544
0.925146
0.930752
0.930423
0.927439
0.919457
0.915913
0.91103
0.906985
0.907929
0.911072
0.908592
0.890749
0.867662
0.77538
0.826384
0.938389
0.0817748
0.0660841
-0.0176353
-0.077795
-0.114746
-0.135569
-0.131361
-0.0850797
-0.0549544
-0.0404653
-0.0314869
-0.0229194
-0.0125461
-0.00421891
-0.00181006
0.0362596
0.0224492
0.00597844
0.00539573
0.0907311
0.098916
0.0598804
0.0254304
0.00814816
-0.0615692
-0.113518
-0.14574
-0.158213
-0.164192
-0.169965
-0.178703
-0.18429
-0.155689
-0.148256
-0.0573059
-0.0135958
-0.00816536
0.00938269
0.107985
0.145183
0.152179
0.149184
0.163326
0.0962112
0.0100736
-0.138717
-0.268517
-0.324929
-0.355944
-0.381974
-0.399915
-0.374251
-0.356841
-0.259741
-0.149642
-0.0599319
0.0128951
0.121055
0.160023
0.140041
0.13643
0.168306
0.175869
0.179612
0.0266343
-0.235559
-0.385508
-0.471921
-0.513643
-0.519117
-0.495822
-0.483465
-0.454992
-0.34889
-0.160358
0.0156406
0.12137
0.142638
0.000678267
-0.058655
-0.0399526
0.0471989
0.204372
0.244475
-0.0443066
-0.272679
-0.45097
-0.562282
-0.548136
-0.500968
-0.480134
-0.558235
-0.469355
-0.279283
0.0216572
0.116715
0.089652
-0.231292
-0.343795
-0.350774
-0.205039
0.0564325
0.344886
0.224149
0.00492436
-0.261983
-0.529077
-0.509045
-0.406816
-0.322267
-0.516803
-0.484277
-0.346897
0.0343505
0.107367
0.0179861
-0.4403
-0.569517
-0.55773
-0.385695
-0.13224
0.274099
0.373155
0.281121
0.0135519
-0.400474
-0.380585
-0.262801
-0.0999816
-0.340528
-0.404863
-0.364892
0.0487694
0.0902965
-0.0443854
-0.535938
-0.670893
-0.618705
-0.447439
-0.258917
0.0870388
0.31968
0.392316
0.226302
-0.172331
-0.157207
-0.0629208
0.0897636
-0.0955689
-0.313027
-0.33864
0.0638812
0.464495
0.514757
0.569802
0.699475
0.791879
0.835225
0.855726
0.864493
0.871689
0.86492
0.856066
0.836541
0.826978
0.817121
0.798578
0.78489
0.77595
0.755853
0.694478
0.638591
0.443979
0.54063
0.777937
-0.0652572
0.0455845
0.216446
0.491086
0.634769
0.656173
0.65675
0.64174
0.659308
0.628555
0.610632
0.57261
0.542106
0.536859
0.488024
0.416137
0.348789
0.289806
0.120368
0.0991727
-0.0725566
0.0319712
0.355051
-0.440397
-0.276202
0.00770693
0.17106
0.212321
0.133014
0.0878441
0.0540476
0.00378987
-0.0765685
-0.125015
-0.0539426
-0.116947
-0.0767278
-0.111844
-0.186863
-0.222162
-0.241523
-0.25553
-0.229579
-0.189095
0.0680351
0.291603
-0.596792
-0.420452
-0.310187
-0.396733
-0.505161
-0.511938
-0.538619
-0.570921
-0.649888
-0.663279
-0.65369
-0.61319
-0.627226
-0.567015
-0.523236
-0.479698
-0.41018
-0.365182
-0.3008
-0.181055
-0.0622503
0.0123542
0.0459713
-0.671996
-0.573441
-0.591738
-0.692351
-0.777515
-0.765908
-0.777687
-0.778112
-0.792726
-0.764412
-0.738637
-0.71979
-0.703677
-0.662768
-0.62242
-0.561805
-0.450682
-0.404773
-0.389593
-0.357938
-0.30608
-0.274535
-0.317736
-0.732228
-0.695513
-0.769423
-0.817667
-0.862591
-0.846783
-0.793154
-0.717019
-0.643094
-0.58823
-0.545798
-0.505329
-0.466709
-0.435326
-0.416793
-0.408667
-0.407374
-0.429826
-0.440297
-0.438814
-0.431898
-0.441935
-0.49729
-0.785642
-0.800382
-0.844033
-0.8463
-0.826114
-0.757934
-0.682007
-0.620704
-0.587104
-0.5534
-0.522686
-0.490843
-0.466549
-0.451825
-0.444143
-0.442055
-0.448689
-0.46714
-0.480098
-0.490902
-0.531175
-0.612477
-0.687559
-0.832511
-0.851457
-0.843189
-0.818885
-0.772856
-0.732178
-0.713799
-0.714821
-0.750266
-0.767926
-0.759359
-0.697046
-0.642219
-0.598924
-0.56366
-0.544428
-0.534717
-0.532597
-0.555673
-0.609063
-0.677294
-0.725787
-0.741645
-0.855902
-0.840143
-0.820213
-0.794172
-0.774652
-0.757078
-0.77931
-0.844864
-0.890359
-0.903007
-0.890798
-0.83518
-0.777249
-0.731365
-0.685215
-0.652802
-0.627365
-0.616533
-0.615103
-0.642537
-0.678402
-0.716092
-0.735933
-0.85499
-0.823613
-0.807251
-0.797681
-0.792827
-0.797026
-0.851852
-0.918736
-0.952304
-0.960544
-0.952386
-0.924945
-0.887971
-0.845289
-0.802444
-0.76306
-0.724514
-0.70041
-0.683942
-0.681122
-0.684051
-0.699042
-0.708233
-0.855078
-0.822885
-0.810495
-0.80782
-0.828342
-0.849241
-0.910041
-0.957746
-0.978109
-0.976939
-0.960157
-0.934565
-0.912415
-0.901703
-0.899345
-0.89828
-0.88432
-0.863395
-0.836733
-0.816757
-0.791838
-0.775898
-0.763694
-0.857434
-0.826917
-0.817686
-0.831331
-0.875681
-0.909044
-0.953523
-0.978405
-0.987966
-0.981943
-0.967398
-0.954843
-0.951405
-0.954519
-0.962512
-0.969304
-0.970878
-0.97025
-0.96398
-0.957841
-0.947125
-0.938091
-0.918819
-0.860889
-0.834643
-0.832829
-0.869515
-0.925564
-0.956285
-0.980447
-0.990249
-0.992807
-0.987453
-0.979467
-0.976945
-0.978649
-0.982889
-0.987204
-0.991295
-0.993376
-0.993775
-0.99301
-0.992071
-0.989914
-0.986604
-0.977962
-0.86566
-0.844568
-0.850693
-0.896773
-0.950454
-0.98015
-0.99258
-0.995846
-0.995193
-0.991322
-0.988314
-0.988496
-0.990777
-0.993944
-0.996261
-0.997776
-0.9984
-0.998226
-0.997916
-0.997294
-0.995838
-0.99321
-0.989428
-0.871683
-0.855797
-0.87187
-0.920273
-0.966138
-0.988596
-0.996139
-0.997746
-0.99677
-0.994579
-0.993286
-0.993945
-0.99563
-0.997685
-0.998951
-0.999514
-0.999697
-0.999549
-0.999417
-0.999183
-0.998769
-0.998176
-0.99746
-0.878252
-0.86841
-0.892925
-0.934185
-0.972821
-0.991188
-0.997234
-0.998641
-0.998127
-0.997029
-0.996673
-0.997107
-0.997912
-0.999039
-0.999751
-0.999973
-1.00002
-0.99997
-0.999922
-0.999868
-0.99978
-0.99962
-0.999507
-0.885165
-0.882308
-0.911352
-0.939624
-0.970417
-0.990396
-0.997241
-0.999018
-0.999079
-0.998688
-0.998856
-0.999125
-0.99942
-0.999782
-0.999988
-1.00006
-1.00007
-1.00005
-1.00003
-1.00002
-1.00001
-0.999961
-0.99994
-0.892521
-0.897053
-0.924346
-0.945813
-0.971755
-0.989781
-0.99686
-0.998998
-0.99947
-0.999475
-0.999616
-0.999782
-0.999907
-0.999984
-1.00002
-1.00002
-1.00002
-1.00002
-1.00002
-1.00002
-1.00002
-1.00001
-1.00001
-0.900228
-0.910615
-0.935385
-0.955844
-0.979486
-0.992199
-0.997248
-0.999025
-0.999563
-0.999729
-0.999834
-0.999924
-0.999979
-0.999999
-1
-1
-1
-1
-1
-1
-1
-1.00001
-1.00001
-0.907382
-0.921026
-0.942742
-0.959544
-0.984323
-0.994624
-0.997801
-0.999067
-0.999615
-0.999843
-0.999932
-0.999977
-0.999993
-0.999997
-0.999999
-1
-1
-1
-1
-1
-1
-1
-1
-0.914142
-0.930969
-0.949135
-0.960227
-0.982859
-0.994216
-0.997484
-0.99911
-0.999731
-0.99993
-0.999961
-0.999975
-0.999984
-0.99999
-0.999997
-0.999999
-1
-1
-1
-1
-1
-1
-1
-0.920733
-0.940759
-0.955539
-0.962448
-0.983597
-0.994632
-0.997733
-0.999357
-0.999818
-0.999906
-0.999905
-0.999933
-0.999956
-0.999978
-0.999993
-0.999998
-1
-1
-1
-1
-1
-1
-1
-0.927377
-0.949136
-0.959935
-0.966111
-0.986552
-0.995552
-0.998016
-0.999384
-0.999755
-0.999787
-0.999761
-0.999867
-0.999938
-0.999977
-0.999993
-0.999998
-1
-1
-1
-1
-1
-1
-1
-0.934233
-0.956953
-0.963735
-0.971507
-0.989853
-0.996139
-0.997897
-0.999245
-0.999547
-0.999501
-0.999601
-0.999832
-0.999942
-0.999981
-0.999995
-0.999999
-1
-1
-1
-1
-1
-1
-1
-0.941319
-0.963646
-0.967086
-0.975118
-0.991524
-0.996491
-0.99762
-0.998821
-0.999113
-0.999029
-0.999482
-0.999812
-0.999934
-0.999974
-0.999992
-0.999999
-1
-1
-1
-1
-1
-1
-1
-0.947833
-0.967355
-0.970348
-0.979493
-0.993226
-0.996421
-0.996992
-0.99805
-0.998496
-0.998772
-0.999413
-0.999724
-0.999861
-0.999936
-0.999981
-0.999997
-1
-1
-1
-1
-1
-1
-1
-0.953799
-0.970067
-0.97389
-0.983423
-0.993309
-0.996288
-0.996492
-0.997194
-0.997715
-0.998339
-0.998999
-0.999375
-0.999717
-0.999877
-0.999965
-0.999994
-0.999999
-1
-1
-1
-1
-1
-1
-0.959025
-0.972279
-0.976353
-0.986442
-0.993877
-0.9961
-0.996286
-0.996604
-0.996902
-0.997601
-0.998354
-0.998979
-0.999531
-0.999772
-0.999937
-0.99999
-0.999999
-1
-1
-1
-1
-1
-1
-0.963475
-0.973534
-0.977699
-0.986816
-0.993492
-0.995646
-0.9962
-0.996317
-0.9965
-0.997173
-0.997973
-0.998578
-0.999217
-0.999585
-0.999894
-0.999985
-0.999999
-1
-1
-1
-1
-1
-1
-0.967439
-0.974077
-0.978183
-0.985887
-0.992162
-0.994989
-0.996197
-0.996301
-0.996378
-0.9969
-0.997488
-0.997817
-0.998481
-0.999179
-0.999801
-0.999978
-0.999999
-1
-1
-1
-1
-1
-1
-0.971245
-0.97552
-0.97884
-0.984522
-0.990082
-0.993997
-0.996092
-0.996414
-0.99639
-0.996605
-0.99675
-0.996714
-0.997299
-0.998616
-0.999682
-0.999967
-0.999998
-1
-1
-1
-1
-1
-1
-0.974531
-0.977607
-0.980221
-0.984683
-0.98945
-0.993543
-0.995905
-0.996459
-0.996409
-0.996387
-0.996172
-0.99605
-0.996619
-0.9982
-0.999597
-0.99994
-0.99999
-0.999999
-1
-1
-1
-1
-1
-0.977169
-0.979994
-0.982967
-0.986274
-0.990182
-0.993969
-0.995975
-0.996401
-0.996346
-0.996141
-0.995746
-0.995809
-0.996867
-0.99862
-0.999598
-0.999923
-0.999988
-0.999999
-1
-1
-1
-1
-1
-0.979542
-0.982446
-0.986809
-0.989862
-0.992734
-0.99515
-0.996058
-0.996107
-0.99592
-0.995546
-0.995425
-0.99581
-0.997388
-0.999239
-0.999864
-0.999988
-1
-1
-1
-1
-1
-1
-1
-0.982392
-0.985108
-0.9899
-0.993091
-0.9949
-0.995695
-0.995788
-0.995497
-0.99531
-0.995346
-0.995536
-0.996505
-0.998297
-0.999566
-0.999939
-0.999993
-1
-1
-1
-1
-1
-1
-1
-0.986955
-0.988802
-0.992362
-0.994651
-0.995464
-0.995528
-0.995283
-0.995227
-0.995398
-0.995786
-0.996469
-0.998185
-0.999472
-0.999895
-0.999985
-0.999999
-1
-1
-1
-1
-1
-1
-1
-0.992076
-0.992647
-0.9941
-0.995157
-0.995367
-0.995162
-0.995122
-0.995473
-0.996224
-0.997062
-0.998091
-0.999272
-0.999852
-0.999985
-1
-1
-1
-1
-1
-1
-1
-1
-1
-0.994779
-0.994647
-0.994953
-0.995198
-0.995109
-0.995017
-0.995233
-0.996176
-0.997613
-0.998588
-0.999379
-0.999821
-0.999973
-0.999999
-1
-1
-1
-1
-1
-1
-1
-1
-1
-0.996279
-0.995713
-0.995392
-0.995252
-0.995096
-0.995151
-0.995775
-0.997369
-0.998937
-0.999483
-0.999841
-0.999974
-1
-1
-1
-1
-1
-1
-1
-1
-1
-1
-1
-0.997693
-0.99681
-0.995954
-0.995523
-0.995424
-0.995805
-0.997023
-0.998617
-0.999558
-0.999821
-0.999953
-0.999993
-1
-1
-1
-1
-1
-1
-1
-1
-1
-1
-1
-0.998869
-0.998205
-0.997178
-0.996491
-0.996636
-0.997488
-0.998744
-0.999539
-0.99991
-0.999967
-0.999993
-1
-1
-1
-1
-1
-1
-1
-1
-1
-1
-1
-1
-0.999623
-0.999431
-0.998941
-0.99834
-0.998697
-0.999331
-0.999769
-0.999913
-0.999993
-0.999998
-1
-1
-1
-1
-1
-1
-1
-1
-1
-1
-1
-1
-1
0.805483
0.756503
0.559505
0.260093
0.571772
0.565155
0.395848
0.163974
0.310315
0.20233
0.0412961
-0.105453
-0.0935459
-0.18867
-0.273929
-0.340851
-0.390307
-0.429101
-0.467318
-0.526458
-0.557179
-0.594857
-0.632006
-0.667955
-0.716135
-0.719878
-0.715862
-0.703541
-0.737137
-0.721049
-0.700054
-0.677809
-0.73777
-0.731563
-0.720754
-0.707233
-0.709745
-0.709708
-0.709002
-0.707833
-0.754808
-0.75617
-0.764232
-0.771885
-0.894229
-0.888056
-0.888458
-0.89165
-0.966809
-0.961884
-0.959053
-0.957749
-0.986283
-0.984696
-0.983463
-0.982662
-0.996468
-0.995587
-0.994435
-0.993327
-0.999213
-0.998763
-0.998004
-0.99714
-0.999914
-0.999821
-0.999609
-0.999296
-1.00002
-1.00002
-1.00001
-0.999964
-1.00001
-1.00001
-1.00002
-1.00002
-1
-1
-1
-1
-1
-1
-1
-1
-1
-1
-1
-1
-1
-1
-1
-1
-1
-1
-1
-1
-1
-1
-1
-1
-1
-1
-1
-1
-1
-1
-1
-1
-1
-1
-1
-1
-1
-1
-1
-1
-1
-1
-1
-1
-1
-1
-1
-1
-1
-1
-1
-1
-1
-1
-1
-1
-1
-1
-1
-1
-1
-1
-1
-1
-1
-1
-1
-1
-1
-1
-1
-1
-1
-1
-1
-1
-1
-1
-1
-1.00001
-1
-1
-1.00001
-1.00001
-1
-1.00001
-1.00001
-1.00001
-1
-1.00001
-1.00001
-1.00001
0.0294304
-0.147258
-0.494614
-0.657432
-0.594686
-0.460779
-0.357478
-0.213854
0.0593471
0.299161
0.326024
0.24305
0.225516
0.236212
0.257851
0.151274
-0.239844
-0.254222
0.094748
-0.118822
-0.429541
-0.535739
-0.56011
-0.514255
-0.382587
-0.371693
-0.329915
-0.204096
-0.0701201
0.0288691
0.0669826
0.135124
0.248526
0.288673
0.157745
-0.270978
-0.151599
0.134311
-0.318434
-0.508067
-0.463311
-0.537391
-0.547347
-0.55014
-0.570353
-0.548595
-0.482932
-0.40615
-0.39424
-0.342387
-0.125642
0.163536
0.220206
-0.100882
-0.247373
-0.0487535
0.157324
-0.458244
-0.594122
-0.596052
-0.68465
-0.689401
-0.697871
-0.710984
-0.709206
-0.656579
-0.65474
-0.587187
-0.369822
-0.0634075
0.0608637
-0.107251
-0.396025
-0.218131
0.0535251
0.186187
-0.625375
-0.699503
-0.704505
-0.718143
-0.721205
-0.748699
-0.758963
-0.756873
-0.701706
-0.608117
-0.376705
-0.172269
-0.0989635
-0.209639
-0.359988
-0.445207
-0.247145
-0.0276106
0.0676474
-0.700564
-0.70856
-0.67221
-0.662427
-0.670192
-0.693758
-0.69763
-0.667582
-0.549391
-0.444167
-0.315076
-0.275585
-0.354078
-0.449223
-0.514843
-0.550088
-0.559409
-0.383888
-0.209026
-0.673695
-0.636655
-0.618901
-0.613457
-0.610177
-0.604031
-0.569549
-0.516361
-0.448741
-0.422006
-0.401567
-0.487326
-0.585448
-0.644336
-0.719434
-0.76745
-0.777893
-0.720374
-0.580834
-0.645479
-0.611108
-0.594222
-0.587422
-0.585494
-0.591294
-0.560273
-0.530375
-0.517127
-0.515661
-0.535762
-0.613725
-0.712066
-0.79129
-0.849529
-0.881153
-0.885154
-0.870095
-0.812669
-0.681885
-0.63178
-0.589268
-0.569058
-0.564032
-0.592839
-0.603732
-0.604523
-0.604563
-0.616787
-0.657989
-0.733115
-0.8222
-0.882185
-0.912498
-0.928346
-0.931583
-0.920287
-0.903088
-0.705759
-0.697285
-0.648671
-0.589615
-0.563317
-0.55622
-0.560336
-0.59109
-0.632232
-0.681917
-0.752522
-0.829239
-0.887347
-0.922374
-0.940933
-0.951138
-0.955272
-0.943203
-0.935317
-0.783321
-0.796041
-0.798366
-0.763883
-0.741594
-0.690667
-0.653972
-0.645198
-0.699549
-0.781796
-0.84397
-0.8939
-0.9256
-0.945107
-0.958389
-0.965659
-0.969588
-0.958344
-0.951757
-0.896183
-0.898855
-0.90398
-0.878288
-0.856008
-0.820204
-0.803784
-0.801466
-0.828883
-0.885042
-0.914588
-0.935565
-0.947341
-0.960704
-0.973479
-0.976505
-0.978644
-0.967493
-0.962452
-0.956976
-0.95602
-0.953
-0.945683
-0.934175
-0.917235
-0.909842
-0.909234
-0.921581
-0.948027
-0.96247
-0.969378
-0.974825
-0.975702
-0.986214
-0.986482
-0.984111
-0.972507
-0.969743
-0.981743
-0.98065
-0.977937
-0.976511
-0.969887
-0.963853
-0.962113
-0.960066
-0.965336
-0.979934
-0.98726
-0.987669
-0.992101
-0.9912
-0.99439
-0.994142
-0.98753
-0.975772
-0.974882
-0.991966
-0.991029
-0.990193
-0.989693
-0.986777
-0.985085
-0.985345
-0.984011
-0.986759
-0.993072
-0.996046
-0.99588
-0.997602
-0.997749
-0.998131
-0.997664
-0.990136
-0.97839
-0.978714
-0.996108
-0.996004
-0.996122
-0.995489
-0.994309
-0.994771
-0.995263
-0.995279
-0.996534
-0.998187
-0.998888
-0.99887
-0.999245
-0.999525
-0.999486
-0.998576
-0.990863
-0.980613
-0.98185
-0.998685
-0.998674
-0.998738
-0.99807
-0.996873
-0.997827
-0.998431
-0.998845
-0.999197
-0.999507
-0.99968
-0.999703
-0.999763
-0.999898
-0.999918
-0.998658
-0.991347
-0.983705
-0.984532
-0.999833
-0.999795
-0.999708
-0.999417
-0.998499
-0.998881
-0.999278
-0.999594
-0.999745
-0.999819
-0.999888
-0.999907
-0.99992
-0.999977
-1.00005
-0.999213
-0.993291
-0.987229
-0.986682
-1.00002
-1.00001
-0.999995
-0.999934
-0.999644
-0.999658
-0.999772
-0.999853
-0.999915
-0.999941
-0.999963
-0.999967
-0.999974
-1
-1.00005
-0.99928
-0.994686
-0.989801
-0.988314
-1.00001
-1.00001
-1.00002
-1.00002
-0.999988
-0.999963
-0.99997
-0.999973
-0.99998
-0.999987
-0.999991
-0.99999
-0.999993
-1.00002
-1.00004
-0.999422
-0.996007
-0.991567
-0.989593
-1
-1
-1
-1.00001
-1.00001
-1.00001
-1.00001
-1
-1
-1
-1
-0.999999
-1
-1.00002
-1.00002
-0.999493
-0.996844
-0.992867
-0.990649
-1
-1
-1
-1
-1
-1
-1
-1
-1
-1
-1
-1
-1
-1.00002
-1
-0.999562
-0.997463
-0.993834
-0.991548
-1
-1
-1
-1
-1
-1
-1
-1
-1
-1
-1
-1
-1
-1.00002
-1
-0.999629
-0.997934
-0.99461
-0.992347
-1
-1
-1
-1
-1
-1
-1
-1
-1
-1
-1
-1
-1
-1.00001
-1
-0.99973
-0.998318
-0.99533
-0.993069
-1
-1
-1
-1
-1
-1
-1
-1
-1
-1
-1
-1
-1
-1.00001
-1.00001
-0.999813
-0.998667
-0.996044
-0.993712
-1
-1
-1
-1
-1
-1
-1
-1
-1
-1
-1
-1
-1
-1.00001
-1.00001
-0.999863
-0.99896
-0.996626
-0.994284
-1
-1
-1
-1
-1
-1
-1
-1
-1
-1
-1
-1
-1
-1.00001
-1.00001
-0.999914
-0.999196
-0.997056
-0.994814
-1
-1
-1
-1
-1
-1
-1
-1
-1
-1
-1
-1
-1
-1
-1.00001
-0.999933
-0.999314
-0.997324
-0.995291
-1
-1
-1
-1
-1
-1
-1
-1
-1
-1
-1
-1
-1
-1
-1.00001
-0.999941
-0.99938
-0.997556
-0.995753
-1
-1
-1
-1
-1
-1
-1
-1
-1
-1
-1
-1
-1
-1
-1
-0.999936
-0.999436
-0.997862
-0.996193
-1
-1
-1
-1
-1
-1
-1
-1
-1
-1
-1
-1
-1
-1
-1.00001
-0.999963
-0.999564
-0.998206
-0.99659
-1
-1
-1
-1
-1
-1
-1
-1
-1
-1
-1
-1
-1
-1
-1.00001
-0.999965
-0.999595
-0.998456
-0.996934
-1
-1
-1
-1
-1
-1
-0.999998
-0.999994
-0.999994
-0.999995
-0.999996
-0.999998
-1
-1.00001
-1
-0.999948
-0.999624
-0.998718
-0.997247
-1
-1
-1
-1
-1
-0.999994
-0.999983
-0.999979
-0.999979
-0.99998
-0.999984
-0.999989
-0.999996
-1
-1
-0.999962
-0.999741
-0.999027
-0.997521
-1
-1
-1
-1
-0.999994
-0.999982
-0.99996
-0.999956
-0.999952
-0.999953
-0.999958
-0.999969
-0.999981
-0.999993
-1
-0.999989
-0.999877
-0.999299
-0.997734
-1
-1
-1
-0.999997
-0.999982
-0.999964
-0.999934
-0.999924
-0.999906
-0.999906
-0.999915
-0.999933
-0.999953
-0.999974
-0.999995
-0.999997
-0.99993
-0.999404
-0.997892
-1
-1
-1
-0.999989
-0.999967
-0.999944
-0.999908
-0.999881
-0.999857
-0.999856
-0.999865
-0.999889
-0.999923
-0.99996
-0.999983
-1.00001
-0.99999
-0.999654
-0.998066
-1.00001
-1
-0.999995
-0.999975
-0.999942
-0.999906
-0.999869
-0.999835
-0.999823
-0.999824
-0.999837
-0.999863
-0.999901
-0.999943
-0.999969
-1
-0.999967
-0.999457
-0.997647
-1.00001
-1
-0.999988
-0.999961
-0.999923
-0.99988
-0.999839
-0.999806
-0.999803
-0.999814
-0.999833
-0.99985
-0.999875
-0.999916
-0.999956
-0.999995
-0.999937
-0.9994
-0.997774
-1.00001
-1
-0.999982
-0.999949
-0.999913
-0.99987
-0.999821
-0.999793
-0.999798
-0.999827
-0.999856
-0.999873
-0.999884
-0.999906
-0.999936
-0.999986
-0.999937
-0.999523
-0.998408
-1.00001
-0.999998
-0.999976
-0.999945
-0.99991
-0.999869
-0.999817
-0.999789
-0.999801
-0.999837
-0.999871
-0.999893
-0.999904
-0.999918
-0.999942
-0.999981
-0.999965
-0.999779
-0.999039
-1.00001
-0.999998
-0.999973
-0.999943
-0.999909
-0.999869
-0.999816
-0.999788
-0.999801
-0.999839
-0.999874
-0.999899
-0.999915
-0.999928
-0.999945
-0.999973
-0.999991
-0.999944
-0.999598
)
;

boundaryField
{
    leftWall
    {
        type            zeroGradient;
    }
    rightWall
    {
        type            zeroGradient;
    }
    lowerWall
    {
        type            zeroGradient;
    }
    atmosphere
    {
        type            zeroGradient;
    }
    defaultFaces
    {
        type            empty;
    }
}


// ************************************************************************* //
