/*--------------------------------*- C++ -*----------------------------------*\
| =========                 |                                                 |
| \\      /  F ield         | foam-extend: Open Source CFD                    |
|  \\    /   O peration     | Version:     4.1                                |
|   \\  /    A nd           | Web:         http://www.foam-extend.org         |
|    \\/     M anipulation  |                                                 |
\*---------------------------------------------------------------------------*/
FoamFile
{
    version     2.0;
    format      ascii;
    class       volScalarField;
    location    "0.75";
    object      C_0;
}
// * * * * * * * * * * * * * * * * * * * * * * * * * * * * * * * * * * * * * //

dimensions      [0 0 0 0 0 0 0];

internalField   nonuniform List<scalar> 
2268
(
1.00761
1.00688
1.00447
1.0023
1.00205
1.00026
0.997372
0.993965
0.991699
0.990848
0.991165
0.992317
0.993928
0.995595
0.997089
0.998318
0.999251
0.999841
1.00025
1.00069
1.00132
1.0019
1.002
1.0034
1.00226
0.999253
0.996326
0.996776
0.995759
0.993807
0.991216
0.9897
0.98941
0.990149
0.991448
0.993119
0.994827
0.996459
0.997899
0.999058
0.999842
1.00053
1.0013
1.00226
1.00305
1.00329
0.993335
0.990673
0.986471
0.982569
0.984919
0.98602
0.986332
0.985631
0.985635
0.986513
0.987929
0.989408
0.991175
0.99292
0.994863
0.99679
0.998455
0.999641
1.00091
1.00227
1.00374
1.00508
1.00597
0.976327
0.97058
0.964607
0.960275
0.966603
0.971786
0.975823
0.978077
0.980125
0.982421
0.984364
0.985852
0.987595
0.989261
0.99163
0.99436
0.996819
0.99854
1.00058
1.0025
1.00391
1.00647
1.00944
0.949931
0.940237
0.93172
0.929233
0.942743
0.95436
0.963457
0.969451
0.973513
0.976798
0.978769
0.979803
0.981211
0.982503
0.985211
0.988997
0.992508
0.99471
0.997308
0.998998
0.997546
1.00316
1.01177
0.909067
0.897022
0.885953
0.890526
0.915511
0.93555
0.950167
0.959576
0.96507
0.968332
0.969696
0.969406
0.96997
0.970273
0.972751
0.977501
0.982158
0.984358
0.986152
0.985458
0.973147
0.985719
1.00831
0.843181
0.835021
0.824782
0.846069
0.88709
0.916098
0.935187
0.946583
0.952461
0.954465
0.954382
0.951371
0.950395
0.948814
0.94959
0.954251
0.959578
0.960775
0.957547
0.949999
0.910381
0.936371
0.989808
0.73136
0.73873
0.742068
0.793646
0.854088
0.891136
0.912924
0.924865
0.930647
0.93055
0.927785
0.920012
0.91667
0.912114
0.908539
0.910148
0.913771
0.911398
0.894714
0.872425
0.780276
0.828342
0.938532
0.0824258
0.0720044
-0.0100806
-0.0725951
-0.112203
-0.135378
-0.133656
-0.0871928
-0.0550534
-0.0394935
-0.0301937
-0.0209046
-0.00984625
-0.00125068
0.0012525
0.0375011
0.022321
0.00551128
0.00479561
0.0913867
0.104247
0.0681362
0.0326123
0.0142197
-0.05662
-0.109885
-0.14346
-0.156576
-0.162491
-0.169326
-0.176975
-0.181313
-0.151217
-0.142955
-0.0549858
-0.0132797
-0.00839933
0.00848376
0.108308
0.149163
0.157953
0.155475
0.170883
0.105571
0.0216397
-0.126719
-0.262222
-0.321311
-0.354997
-0.381141
-0.39804
-0.370986
-0.353009
-0.256553
-0.149399
-0.0593788
0.0116746
0.120398
0.16089
0.140122
0.137194
0.172214
0.183625
0.19125
0.0470378
-0.222202
-0.377547
-0.468502
-0.513403
-0.519896
-0.498352
-0.487062
-0.453935
-0.351071
-0.159114
0.0140258
0.119778
0.141215
-0.00630594
-0.0645333
-0.043158
0.0509556
0.210331
0.262543
-0.0254227
-0.260278
-0.443475
-0.560986
-0.550252
-0.508769
-0.492182
-0.562062
-0.475664
-0.280282
0.0193133
0.114125
0.0849766
-0.24197
-0.35124
-0.354837
-0.200708
0.0583323
0.351721
0.240632
0.0202833
-0.251138
-0.525138
-0.508883
-0.416488
-0.340793
-0.528473
-0.494585
-0.351825
0.0312151
0.103877
0.010642
-0.44982
-0.574819
-0.558069
-0.378095
-0.127843
0.276078
0.381366
0.291845
0.0251603
-0.39196
-0.376432
-0.270655
-0.118051
-0.358425
-0.418366
-0.371627
0.0451815
0.0861132
-0.0524824
-0.543793
-0.674203
-0.616378
-0.437892
-0.251094
0.0869301
0.322569
0.39719
0.235616
-0.161014
-0.15044
-0.068045
0.0774872
-0.113401
-0.326474
-0.348184
0.0599492
0.447832
0.501987
0.560636
0.693311
0.7886
0.833688
0.855154
0.864534
0.871812
0.86551
0.856989
0.837755
0.828549
0.8193
0.802233
0.790387
0.783673
0.764168
0.705695
0.650239
0.451379
0.542898
0.777175
-0.0901014
0.0238715
0.198891
0.480165
0.629899
0.654624
0.656622
0.643201
0.660867
0.630902
0.613249
0.575349
0.545194
0.541382
0.49643
0.430714
0.369983
0.311523
0.141092
0.114031
-0.0700041
0.0311884
0.348191
-0.458337
-0.294217
-0.00796231
0.160942
0.204802
0.130518
0.088302
0.0572136
0.00930538
-0.0714508
-0.121582
-0.0500785
-0.115412
-0.0732472
-0.103631
-0.174599
-0.208914
-0.232692
-0.251796
-0.231944
-0.195085
0.0536479
0.285709
-0.609339
-0.433736
-0.322411
-0.402096
-0.507645
-0.511883
-0.536422
-0.56742
-0.648634
-0.662995
-0.654573
-0.614524
-0.62916
-0.569764
-0.525704
-0.481879
-0.41128
-0.367564
-0.309928
-0.197519
-0.0747498
0.00317282
0.0410967
-0.68117
-0.582845
-0.599626
-0.69543
-0.778395
-0.765902
-0.777908
-0.778619
-0.794358
-0.767036
-0.740987
-0.722613
-0.707103
-0.66675
-0.627265
-0.569695
-0.455262
-0.405744
-0.392042
-0.364354
-0.310968
-0.28016
-0.317481
-0.739259
-0.70321
-0.774395
-0.820301
-0.863665
-0.850247
-0.798782
-0.724783
-0.651814
-0.59597
-0.553453
-0.512707
-0.472275
-0.438461
-0.417673
-0.407823
-0.404824
-0.426861
-0.439555
-0.439187
-0.431848
-0.43854
-0.490548
-0.791305
-0.805734
-0.846851
-0.846389
-0.828155
-0.762631
-0.69053
-0.62896
-0.593963
-0.55995
-0.528905
-0.495764
-0.469371
-0.452424
-0.443227
-0.440384
-0.445654
-0.463917
-0.475771
-0.485349
-0.522005
-0.599404
-0.680417
-0.836335
-0.85321
-0.843691
-0.820022
-0.776575
-0.736564
-0.718406
-0.717137
-0.752819
-0.772487
-0.768194
-0.708425
-0.650458
-0.603669
-0.565722
-0.543794
-0.532349
-0.528919
-0.548059
-0.59818
-0.667433
-0.720974
-0.741933
-0.857713
-0.840128
-0.819329
-0.795581
-0.777871
-0.762446
-0.780517
-0.844442
-0.891654
-0.90607
-0.897789
-0.846078
-0.784922
-0.736838
-0.689584
-0.654524
-0.626845
-0.614189
-0.611266
-0.635909
-0.671298
-0.711804
-0.735411
-0.856465
-0.82415
-0.807782
-0.79963
-0.795912
-0.800236
-0.851907
-0.918012
-0.953012
-0.962392
-0.95586
-0.930466
-0.894172
-0.851184
-0.807791
-0.766312
-0.725243
-0.69885
-0.681242
-0.677632
-0.679417
-0.695079
-0.706312
-0.85676
-0.824049
-0.811593
-0.809939
-0.832419
-0.853243
-0.9118
-0.958041
-0.979014
-0.978729
-0.963467
-0.938871
-0.915313
-0.902211
-0.898252
-0.896653
-0.883723
-0.862781
-0.836055
-0.81576
-0.790802
-0.774764
-0.762154
-0.859393
-0.828675
-0.819197
-0.834245
-0.880256
-0.913516
-0.95566
-0.979155
-0.988911
-0.983748
-0.970119
-0.957002
-0.952246
-0.95388
-0.960876
-0.967887
-0.969955
-0.969713
-0.963717
-0.957587
-0.947192
-0.938646
-0.919835
-0.863131
-0.836939
-0.834919
-0.872833
-0.92865
-0.959097
-0.98199
-0.990984
-0.993517
-0.988848
-0.981084
-0.97796
-0.978879
-0.982455
-0.986448
-0.990617
-0.992924
-0.993436
-0.992804
-0.991964
-0.989972
-0.986866
-0.978546
-0.868145
-0.847297
-0.853256
-0.898755
-0.951802
-0.981323
-0.993313
-0.996236
-0.995692
-0.992203
-0.989081
-0.988891
-0.990715
-0.993677
-0.99599
-0.997574
-0.998264
-0.998123
-0.997856
-0.997306
-0.995947
-0.99339
-0.989602
-0.874342
-0.858926
-0.874777
-0.921479
-0.966669
-0.988896
-0.996365
-0.997951
-0.997121
-0.995142
-0.99374
-0.994166
-0.995634
-0.997607
-0.998888
-0.99947
-0.999668
-0.999523
-0.999402
-0.999184
-0.998783
-0.998197
-0.99749
-0.881033
-0.87189
-0.895565
-0.934401
-0.972625
-0.99114
-0.99727
-0.998748
-0.998372
-0.997403
-0.996949
-0.997279
-0.997994
-0.999057
-0.999751
-0.999971
-1.00002
-0.999968
-0.999921
-0.999869
-0.999781
-0.999616
-0.999505
-0.888062
-0.886114
-0.913521
-0.939613
-0.970064
-0.990265
-0.997217
-0.999052
-0.999212
-0.998896
-0.998988
-0.999204
-0.999459
-0.999799
-0.999993
-1.00006
-1.00007
-1.00005
-1.00003
-1.00002
-1.00001
-0.99996
-0.999937
-0.895558
-0.900948
-0.926195
-0.945746
-0.971341
-0.989626
-0.996789
-0.998994
-0.999513
-0.999556
-0.999672
-0.999809
-0.999915
-0.999987
-1.00002
-1.00002
-1.00002
-1.00002
-1.00002
-1.00002
-1.00002
-1.00002
-1.00001
-0.90322
-0.913905
-0.936755
-0.955669
-0.979131
-0.992064
-0.997183
-0.999003
-0.99957
-0.999756
-0.999854
-0.999934
-0.999981
-0.999999
-1
-1
-1
-1
-1
-1
-1
-1.00001
-1.00001
-0.9102
-0.924011
-0.943977
-0.959429
-0.98416
-0.994504
-0.997726
-0.999045
-0.999618
-0.999852
-0.99994
-0.999979
-0.999993
-0.999997
-0.999999
-1
-1
-1
-1
-1
-1
-1
-1
-0.916858
-0.93392
-0.950435
-0.960437
-0.982824
-0.994165
-0.997412
-0.999093
-0.999736
-0.999933
-0.999962
-0.999976
-0.999984
-0.99999
-0.999997
-0.999999
-1
-1
-1
-1
-1
-1
-1
-0.923414
-0.943546
-0.956619
-0.962875
-0.98372
-0.994634
-0.997666
-0.999342
-0.999815
-0.999904
-0.999902
-0.99993
-0.999955
-0.999978
-0.999993
-0.999998
-1
-1
-1
-1
-1
-1
-1
-0.930112
-0.951583
-0.960883
-0.966709
-0.986907
-0.995578
-0.997947
-0.999362
-0.999747
-0.999777
-0.999752
-0.999863
-0.999937
-0.999977
-0.999993
-0.999998
-1
-1
-1
-1
-1
-1
-1
-0.937013
-0.958854
-0.964589
-0.972426
-0.99031
-0.996169
-0.997816
-0.999211
-0.999525
-0.99948
-0.999585
-0.999825
-0.99994
-0.999981
-0.999994
-0.999999
-1
-1
-1
-1
-1
-1
-1
-0.943964
-0.964896
-0.967781
-0.976009
-0.991946
-0.996493
-0.997516
-0.998754
-0.999064
-0.998988
-0.999459
-0.999804
-0.999932
-0.999974
-0.999992
-0.999999
-1
-1
-1
-1
-1
-1
-1
-0.950286
-0.968254
-0.970906
-0.980356
-0.993541
-0.99643
-0.996886
-0.99793
-0.998402
-0.998711
-0.999385
-0.999713
-0.99986
-0.999937
-0.999981
-0.999997
-1
-1
-1
-1
-1
-1
-1
-0.955958
-0.970884
-0.974369
-0.984094
-0.993545
-0.996298
-0.996435
-0.997066
-0.997597
-0.998264
-0.998958
-0.999356
-0.999714
-0.999877
-0.999965
-0.999994
-0.999999
-1
-1
-1
-1
-1
-1
-0.960839
-0.972924
-0.976668
-0.986672
-0.993894
-0.996068
-0.996259
-0.99652
-0.996824
-0.997532
-0.998306
-0.998951
-0.999526
-0.999775
-0.999938
-0.99999
-0.999999
-1
-1
-1
-1
-1
-1
-0.965008
-0.974009
-0.977839
-0.98674
-0.993345
-0.995547
-0.996194
-0.996288
-0.996463
-0.997123
-0.997927
-0.998548
-0.999221
-0.9996
-0.999899
-0.999986
-0.999999
-1
-1
-1
-1
-1
-1
-0.968752
-0.974652
-0.978355
-0.985628
-0.991821
-0.994864
-0.996206
-0.9963
-0.996369
-0.99686
-0.997442
-0.997791
-0.998511
-0.999222
-0.999816
-0.999979
-0.999998
-1
-1
-1
-1
-1
-1
-0.97233
-0.976161
-0.979138
-0.984527
-0.989876
-0.99392
-0.996099
-0.996433
-0.996388
-0.996578
-0.996701
-0.99669
-0.997349
-0.998706
-0.999708
-0.999971
-0.999998
-1
-1
-1
-1
-1
-1
-0.975391
-0.978244
-0.980751
-0.984925
-0.989571
-0.993671
-0.995971
-0.996475
-0.996407
-0.996357
-0.996115
-0.996028
-0.996669
-0.998283
-0.99963
-0.999946
-0.999992
-0.999999
-1
-1
-1
-1
-1
-0.977883
-0.980631
-0.983799
-0.986923
-0.990623
-0.994238
-0.996073
-0.996403
-0.996326
-0.996082
-0.995682
-0.995807
-0.996979
-0.998726
-0.999636
-0.999931
-0.99999
-0.999999
-1
-1
-1
-1
-1
-0.980241
-0.983102
-0.987658
-0.990711
-0.993355
-0.995407
-0.9961
-0.996063
-0.995834
-0.995465
-0.995406
-0.99587
-0.99756
-0.999323
-0.999883
-0.99999
-1
-1
-1
-1
-1
-1
-1
-0.983303
-0.98593
-0.990606
-0.993617
-0.995175
-0.995745
-0.995746
-0.995413
-0.995271
-0.995343
-0.995576
-0.996682
-0.998492
-0.999632
-0.999951
-0.999995
-1
-1
-1
-1
-1
-1
-1
-0.988212
-0.989844
-0.99296
-0.994912
-0.995521
-0.995503
-0.995222
-0.995218
-0.995424
-0.99588
-0.99665
-0.998389
-0.999552
-0.999915
-0.999989
-0.999999
-1
-1
-1
-1
-1
-1
-1
-0.992857
-0.993279
-0.994431
-0.995242
-0.995348
-0.995109
-0.995115
-0.995524
-0.996356
-0.99725
-0.998295
-0.999382
-0.999879
-0.999989
-1
-1
-1
-1
-1
-1
-1
-1
-1
-0.995077
-0.994892
-0.995085
-0.995208
-0.995072
-0.99501
-0.995268
-0.99631
-0.997785
-0.998734
-0.999468
-0.999854
-0.999979
-0.999999
-1
-1
-1
-1
-1
-1
-1
-1
-1
-0.99644
-0.995837
-0.99545
-0.995257
-0.995093
-0.995184
-0.995914
-0.997575
-0.999057
-0.999554
-0.999869
-0.99998
-1
-1
-1
-1
-1
-1
-1
-1
-1
-1
-1
-0.997834
-0.996938
-0.99604
-0.995586
-0.995521
-0.995978
-0.997276
-0.998796
-0.999628
-0.999853
-0.999963
-0.999995
-1
-1
-1
-1
-1
-1
-1
-1
-1
-1
-1
-0.998969
-0.998357
-0.997372
-0.9967
-0.996901
-0.997786
-0.998939
-0.999621
-0.999929
-0.999974
-0.999995
-1
-1
-1
-1
-1
-1
-1
-1
-1
-1
-1
-1
-0.999663
-0.999497
-0.999073
-0.998539
-0.998893
-0.999447
-0.999814
-0.999932
-0.999995
-0.999998
-1
-1
-1
-1
-1
-1
-1
-1
-1
-1
-1
-1
-1
0.804645
0.757522
0.563009
0.261266
0.567096
0.563531
0.396095
0.162258
0.308495
0.200421
0.0373959
-0.11146
-0.0955673
-0.191458
-0.276573
-0.342647
-0.388017
-0.425751
-0.4621
-0.519341
-0.550423
-0.587724
-0.625021
-0.662951
-0.71522
-0.721074
-0.719189
-0.708998
-0.741095
-0.727583
-0.708108
-0.685937
-0.738853
-0.734468
-0.724904
-0.712263
-0.708632
-0.70898
-0.70856
-0.707442
-0.75152
-0.752081
-0.759729
-0.76685
-0.894083
-0.887139
-0.887005
-0.889688
-0.967317
-0.962194
-0.959094
-0.957462
-0.986377
-0.984734
-0.983431
-0.982543
-0.996522
-0.99566
-0.994512
-0.99337
-0.999232
-0.9988
-0.998054
-0.997175
-0.999914
-0.999826
-0.999619
-0.999305
-1.00002
-1.00002
-1.00001
-0.999965
-1.00001
-1.00001
-1.00002
-1.00002
-1
-1
-1
-1
-1
-1
-1
-1
-1
-1
-1
-1
-1
-1
-1
-1
-1
-1
-1
-1
-1
-1
-1
-1
-1
-1
-1
-1
-1
-1
-1
-1
-1
-1
-1
-1
-1
-1
-1
-1
-1
-1
-1
-1
-1
-1
-1
-1
-1
-1
-1
-1
-1
-1
-1
-1
-1
-1
-1
-1
-1
-1
-1
-1
-1
-1
-1
-1
-1
-1
-1
-1
-1
-1
-1
-1
-1
-1
-1
-1.00001
-1
-1
-1.00001
-1.00001
-1
-1.00001
-1.00001
-1.00001
-1
-1.00001
-1.00001
-1.00001
0.0248495
-0.154746
-0.502344
-0.660096
-0.591593
-0.451252
-0.348193
-0.207079
0.0619775
0.298502
0.329835
0.248847
0.230501
0.238474
0.256095
0.145019
-0.25051
-0.263482
0.0918558
-0.124311
-0.434343
-0.538925
-0.559922
-0.509521
-0.372757
-0.368956
-0.328209
-0.20465
-0.0766648
0.0231275
0.0649493
0.137352
0.250983
0.287531
0.154276
-0.278548
-0.15844
0.133259
-0.322926
-0.504989
-0.458421
-0.53285
-0.541853
-0.54602
-0.570795
-0.550918
-0.487969
-0.413914
-0.401676
-0.346622
-0.123233
0.166304
0.221001
-0.102049
-0.249618
-0.0503712
0.157816
-0.455701
-0.585359
-0.588565
-0.683288
-0.688255
-0.697171
-0.711756
-0.712015
-0.661051
-0.659428
-0.593225
-0.373685
-0.0640975
0.0613811
-0.102791
-0.398307
-0.218421
0.0566716
0.18931
-0.618668
-0.698612
-0.705339
-0.718522
-0.720616
-0.747654
-0.759794
-0.759553
-0.706971
-0.614395
-0.385021
-0.175968
-0.100127
-0.208845
-0.35766
-0.443055
-0.237736
-0.0124983
0.0871337
-0.699942
-0.712399
-0.676261
-0.664654
-0.670265
-0.693629
-0.698795
-0.674595
-0.559397
-0.450514
-0.317761
-0.276654
-0.349915
-0.446271
-0.507576
-0.537774
-0.537897
-0.352971
-0.161841
-0.680489
-0.640999
-0.621392
-0.61555
-0.612348
-0.607325
-0.574405
-0.521416
-0.453095
-0.424963
-0.402796
-0.48223
-0.57966
-0.637611
-0.710657
-0.757799
-0.761961
-0.696526
-0.536039
-0.652002
-0.614686
-0.596247
-0.588644
-0.586672
-0.593646
-0.566339
-0.534028
-0.519451
-0.516681
-0.533332
-0.607122
-0.704029
-0.783742
-0.843248
-0.875622
-0.877733
-0.859732
-0.794669
-0.687757
-0.637347
-0.592226
-0.569685
-0.562604
-0.591523
-0.604517
-0.605425
-0.604864
-0.614477
-0.651141
-0.723426
-0.814738
-0.877246
-0.908713
-0.924855
-0.92762
-0.915276
-0.896875
-0.705478
-0.697252
-0.650138
-0.588921
-0.560956
-0.553597
-0.556931
-0.587052
-0.627464
-0.675404
-0.743805
-0.82239
-0.883156
-0.919536
-0.938413
-0.948593
-0.95251
-0.939941
-0.931975
-0.777597
-0.790221
-0.79398
-0.761151
-0.740568
-0.690838
-0.652652
-0.641899
-0.693739
-0.77596
-0.838644
-0.890413
-0.923526
-0.943422
-0.956562
-0.963755
-0.967677
-0.956124
-0.949275
-0.893589
-0.895768
-0.901547
-0.87725
-0.856612
-0.820516
-0.802601
-0.799024
-0.824848
-0.881805
-0.911885
-0.933706
-0.946131
-0.959789
-0.972324
-0.975125
-0.977514
-0.966092
-0.960587
-0.956216
-0.954938
-0.952054
-0.945261
-0.934484
-0.917427
-0.909354
-0.908231
-0.9199
-0.946553
-0.961207
-0.968364
-0.974044
-0.975051
-0.985635
-0.985566
-0.983531
-0.971562
-0.968338
-0.98149
-0.980279
-0.977659
-0.976399
-0.969984
-0.963813
-0.961776
-0.959559
-0.964651
-0.979377
-0.986745
-0.987145
-0.991737
-0.990841
-0.994085
-0.993734
-0.987333
-0.975024
-0.973746
-0.991909
-0.990873
-0.99006
-0.98962
-0.986742
-0.984962
-0.985054
-0.983635
-0.986329
-0.992831
-0.995861
-0.995664
-0.99747
-0.997618
-0.998
-0.997567
-0.990184
-0.977702
-0.977715
-0.996075
-0.99591
-0.996024
-0.99541
-0.994244
-0.99471
-0.995171
-0.995153
-0.996403
-0.998117
-0.998828
-0.998803
-0.999199
-0.999491
-0.999446
-0.998603
-0.990929
-0.979824
-0.980957
-0.998683
-0.998637
-0.998697
-0.998021
-0.99681
-0.997799
-0.998406
-0.998818
-0.999169
-0.999489
-0.999663
-0.999685
-0.99975
-0.999889
-0.999912
-0.998715
-0.991306
-0.982711
-0.983771
-0.999834
-0.999789
-0.999695
-0.999396
-0.998445
-0.99886
-0.999265
-0.999584
-0.999737
-0.999813
-0.999884
-0.999903
-0.999916
-0.999974
-1.00005
-0.999223
-0.993098
-0.986394
-0.986072
-1.00002
-1.00001
-0.999993
-0.99993
-0.999627
-0.999648
-0.999767
-0.999848
-0.999912
-0.999939
-0.999962
-0.999966
-0.999972
-1
-1.00005
-0.999268
-0.99442
-0.989215
-0.987831
-1.00001
-1.00001
-1.00002
-1.00002
-0.999987
-0.999961
-0.999969
-0.999971
-0.999979
-0.999986
-0.999991
-0.99999
-0.999992
-1.00002
-1.00004
-0.9994
-0.995774
-0.991137
-0.989199
-1
-1
-1
-1.00001
-1.00001
-1.00001
-1.00001
-1
-1
-1
-1
-0.999999
-1
-1.00002
-1.00002
-0.999473
-0.996664
-0.992544
-0.99032
-1
-1
-1
-1
-1
-1
-1
-1
-1
-1
-1
-1
-1
-1.00002
-1.00001
-0.999543
-0.997332
-0.993592
-0.991267
-1
-1
-1
-1
-1
-1
-1
-1
-1
-1
-1
-1
-1
-1.00002
-1
-0.999612
-0.997845
-0.994418
-0.992101
-1
-1
-1
-1
-1
-1
-1
-1
-1
-1
-1
-1
-1
-1.00001
-1
-0.999719
-0.998253
-0.99516
-0.992851
-1
-1
-1
-1
-1
-1
-1
-1
-1
-1
-1
-1
-1
-1.00001
-1.00001
-0.999804
-0.99861
-0.995893
-0.993521
-1
-1
-1
-1
-1
-1
-1
-1
-1
-1
-1
-1
-1
-1.00001
-1.00001
-0.999856
-0.998913
-0.996507
-0.994117
-1
-1
-1
-1
-1
-1
-1
-1
-1
-1
-1
-1
-1
-1.00001
-1.00001
-0.99991
-0.999166
-0.996966
-0.994668
-1
-1
-1
-1
-1
-1
-1
-1
-1
-1
-1
-1
-1
-1
-1.00001
-0.99993
-0.999294
-0.997252
-0.99516
-1
-1
-1
-1
-1
-1
-1
-1
-1
-1
-1
-1
-1
-1
-1.00001
-0.999939
-0.999363
-0.997491
-0.995635
-1
-1
-1
-1
-1
-1
-1
-1
-1
-1
-1
-1
-1
-1
-1
-0.999934
-0.999419
-0.997797
-0.996089
-1
-1
-1
-1
-1
-1
-1
-1
-1
-1
-1
-1
-1
-1
-1.00001
-0.999961
-0.99955
-0.998152
-0.996499
-1
-1
-1
-1
-1
-1
-1
-1
-1
-1
-1
-1
-1
-1
-1.00001
-0.999963
-0.999582
-0.998415
-0.996856
-1
-1
-1
-1
-1
-1
-0.999998
-0.999994
-0.999995
-0.999995
-0.999997
-0.999999
-1
-1.00001
-1
-0.999946
-0.999613
-0.998685
-0.997178
-1
-1
-1
-1
-1
-0.999994
-0.999983
-0.99998
-0.99998
-0.999981
-0.999985
-0.99999
-0.999996
-1
-1
-0.99996
-0.999734
-0.999004
-0.997461
-1
-1
-1
-1
-0.999995
-0.999983
-0.999961
-0.999957
-0.999953
-0.999954
-0.999959
-0.99997
-0.999982
-0.999993
-1
-0.999989
-0.999875
-0.999284
-0.997681
-1
-1
-1
-0.999997
-0.999982
-0.999965
-0.999935
-0.999925
-0.999907
-0.999908
-0.999916
-0.999934
-0.999954
-0.999975
-0.999995
-0.999997
-0.999928
-0.999391
-0.997844
-1
-1
-1
-0.999989
-0.999968
-0.999945
-0.999909
-0.999882
-0.999859
-0.999857
-0.999867
-0.999891
-0.999924
-0.999961
-0.999984
-1.00001
-0.99999
-0.999648
-0.998023
-1.00001
-1
-0.999995
-0.999975
-0.999942
-0.999907
-0.99987
-0.999836
-0.999824
-0.999825
-0.999838
-0.999863
-0.999902
-0.999944
-0.99997
-1
-0.999967
-0.999446
-0.997594
-1.00001
-1
-0.999988
-0.999961
-0.999923
-0.99988
-0.99984
-0.999806
-0.999802
-0.999814
-0.999832
-0.999849
-0.999875
-0.999916
-0.999956
-0.999996
-0.999937
-0.999389
-0.997724
-1.00001
-1
-0.999982
-0.99995
-0.999913
-0.99987
-0.999821
-0.999793
-0.999798
-0.999825
-0.999855
-0.999872
-0.999884
-0.999907
-0.999937
-0.999987
-0.999937
-0.999517
-0.998377
-1.00001
-0.999998
-0.999976
-0.999945
-0.99991
-0.999869
-0.999817
-0.999789
-0.9998
-0.999836
-0.99987
-0.999892
-0.999904
-0.999918
-0.999942
-0.999981
-0.999966
-0.999778
-0.999023
-1.00001
-0.999998
-0.999973
-0.999943
-0.999909
-0.999869
-0.999816
-0.999787
-0.999801
-0.999838
-0.999873
-0.999898
-0.999915
-0.999928
-0.999944
-0.999972
-0.999992
-0.999945
-0.999592
)
;

boundaryField
{
    leftWall
    {
        type            zeroGradient;
    }
    rightWall
    {
        type            zeroGradient;
    }
    lowerWall
    {
        type            zeroGradient;
    }
    atmosphere
    {
        type            zeroGradient;
    }
    defaultFaces
    {
        type            empty;
    }
}


// ************************************************************************* //
