/*--------------------------------*- C++ -*----------------------------------*\
| =========                 |                                                 |
| \\      /  F ield         | foam-extend: Open Source CFD                    |
|  \\    /   O peration     | Version:     4.1                                |
|   \\  /    A nd           | Web:         http://www.foam-extend.org         |
|    \\/     M anipulation  |                                                 |
\*---------------------------------------------------------------------------*/
FoamFile
{
    version     2.0;
    format      ascii;
    class       volScalarField;
    location    "0.75";
    object      p;
}
// * * * * * * * * * * * * * * * * * * * * * * * * * * * * * * * * * * * * * //

dimensions      [1 -1 -2 0 0 0 0];

internalField   nonuniform List<scalar> 
2268
(
1017.81
1011.22
1016.2
997.69
999.818
994.063
985.962
984.813
978.063
971.085
968.856
962.675
957.301
948.754
939.947
929.293
912.872
892.004
873.49
846.312
831.017
824.065
820.168
957.771
951.07
954.156
941.259
940.973
935.698
926.996
926.422
919.877
912.319
910.6
904.476
897.946
889.33
882.487
870.536
854.164
832.679
813.606
793.277
769.238
764.951
758.75
899.169
891.697
895.165
883.53
882.382
877.396
868.632
867.43
859.813
854.231
853.878
846.531
840.073
834.086
824.831
816.754
797.418
773.592
749.853
725.134
708.408
701.009
699.96
837.677
832.438
836.006
826.747
824.477
819.464
809.87
809.203
801.228
800.154
794.387
788.76
782.131
775.323
765.873
756.371
740.704
715.203
693.001
665.173
645.676
636.087
633.043
775.122
775.773
777.068
770.932
766.725
762.078
749.719
752.621
745.73
740.053
736.61
730.069
724.227
714.115
709.474
699.486
685.617
658.36
636.239
597.838
572.331
563.234
578.376
716.255
715.577
721.983
716.083
710.806
705.312
694.641
687.071
694.871
683.872
676.758
672.306
663.775
663.392
651.139
643.596
639.02
606.753
569.409
529.139
517.38
495.997
497.58
655.933
659.722
662.651
662.358
654.22
649.349
638.964
635.691
629.583
625.353
619.128
613.962
606.672
601.005
593.94
587.898
582.098
532.465
519.107
464.121
437.884
429.309
434.738
597.349
585.082
609.207
610.076
600.644
593.872
583.132
580.357
575.02
569.401
561.991
554.736
545.225
547.007
536.502
530.97
529.779
479.836
464.878
394.439
361.682
354.193
341.463
925.586
902.557
725.346
561.343
605.916
574.489
592.443
644.182
566.263
423.173
388.694
449.918
411.604
438.661
270.196
432.995
706.013
918.12
1155.79
888.12
838.47
680.088
505.972
554.399
557.55
579.089
616.356
524.245
386.771
364.004
466.005
293.066
342.455
265.078
451.395
572.159
838.498
1101.28
811.982
752.243
609.233
412.017
527.977
534.654
547.977
588.426
490.075
390.5
327.193
373.347
293.28
240.247
283.286
476.121
576.04
787.619
988.318
747.536
649.023
513.476
401.24
454.003
494.731
513.897
549.346
467.179
379.008
286.19
319.178
252.633
203.593
280.872
468.738
529.331
705.314
845.766
666.903
527.819
419.822
365.995
394.277
414.653
482.997
475.678
417.827
358.84
306.712
277.375
191.964
157.129
293.561
458.646
509.625
646.612
747.291
584.845
446.556
372.498
322.794
327.712
381.216
434.325
458.764
405.759
335.136
299.446
241.475
141.313
118.923
293.784
436.03
489.059
611.787
707.73
500.68
384.541
340.667
297.651
302.277
345.102
400.999
397.557
351.163
327.263
279.834
247.014
142.169
130.933
286.759
422.109
472.325
567.791
654.529
411.969
349.615
321.019
285.673
279.913
320.723
360.572
357.071
342.691
322.478
232.905
226.553
172.632
166.517
293.725
425.338
469.95
547.102
624.67
514.846
518.254
491.76
536.75
512.583
512.457
497.369
496.039
486.695
480.218
472.343
468.401
464.853
453.487
448.895
450.386
442.129
412.889
347.767
309.615
270.58
242.398
262.471
418.198
406.378
427.652
412.062
424.804
405.903
388.07
388.211
371.835
373.008
358.456
354.434
358.66
363.657
355.697
337.654
331.176
257.131
252.833
183.775
152.249
137.624
154.687
346.991
333.603
327.724
320.587
279.957
310.864
277.647
303.835
285.218
293.744
254.984
286.537
277.475
288.475
273.673
279.451
262.791
211.764
174.995
112.8
24.9214
45.3843
88.3786
301.221
289.526
274.002
271.925
246.603
259.261
246.697
266.919
247.928
247.389
240.801
216.668
241.906
238.404
231.931
220.834
219.408
187.582
166.387
107.245
45.6107
9.1192
104.095
247.319
235.632
228.483
223.422
226.271
233.718
219.796
220.588
217.871
218.748
208.309
204.253
209.604
220.341
182.298
183.534
224.012
186.217
159.31
83.6446
92.2347
121.704
99.7557
211.097
209.2
197.528
213.045
219.662
217.587
234.826
237.552
224.145
202.09
185.567
174.423
178.959
181.326
168.451
148.943
147.498
151.59
3.31748
0.460657
139.263
143.621
121.207
197.348
201.219
187.373
200.074
209.987
202.761
178.201
158.288
138.21
119.967
105.356
110.436
113.849
134.119
134.869
131.39
103.916
76.4394
50.9977
35.6106
60.2168
76.2938
79.4256
180.735
176.816
173.714
183.999
174.797
139.69
105.43
59.1271
39.458
46.715
57.7797
73.9893
76.1794
74.9179
82.1312
87.4669
-29.0507
3.47118
90.8969
65.3714
56.1817
49.8302
55.5783
168.822
175.564
142.057
124.098
147.325
92.251
46.3357
22.121
21.0647
27.6364
32.1897
33.1741
32.4614
42.2116
55.0978
43.1539
10.108
22.547
58.5223
61.5623
-31.8715
-17.5095
51.9677
145.782
137.279
100.088
62.1088
61.148
45.0781
16.7097
13.0264
15.4371
16.5331
17.1773
16.6281
17.13
18.4429
24.4279
3.77405
9.52326
22.3952
30.3342
34.3619
10.5048
2.40709
18.8182
114.937
97.0739
69.8109
44.5556
22.4588
15.4986
7.47791
8.3842
10.0945
12.9738
12.654
12.3406
8.3818
1.65467
-2.29109
0.623104
7.06132
7.29277
10.6027
10.4123
8.22774
9.20134
10.2092
88.8819
60.7644
62.9291
40.4703
23.6737
11.4252
4.53134
7.37061
6.66931
5.94749
4.4778
1.66352
-1.50306
-3.16618
-2.90487
-1.21493
-0.888099
-0.693388
0.0434578
-0.347695
0.0913697
1.31653
3.00171
75.932
60.4862
39.4939
24.68
15.9674
8.08605
3.39142
4.53946
3.95411
2.60338
0.0801043
-2.00729
-3.14473
-3.51287
-3.55544
-3.01438
-2.5815
-1.7215
-1.79882
-1.84841
-1.5723
-1.20434
-0.994214
53.9205
34.4921
23.6997
16.871
7.28273
3.3061
1.55793
1.03631
1.08552
-0.0127422
-1.74145
-2.87887
-3.4389
-3.67267
-3.4448
-2.83026
-2.53666
-2.23179
-2.0624
-2.02773
-2.07864
-2.13781
-2.29274
39.7237
32.2259
17.968
10.0672
4.32117
1.52405
0.166372
-0.993371
-0.60754
-1.76775
-2.59978
-3.52275
-4.07316
-3.69825
-3.11872
-2.90884
-2.64629
-2.51743
-2.5163
-2.47571
-2.52189
-2.5426
-2.54945
28.9726
26.4928
13.9081
6.48999
2.0621
0.547612
-0.357427
-1.02172
-1.11089
-2.08821
-2.59985
-3.55395
-3.71629
-3.55207
-3.21868
-3.10535
-2.92931
-2.78051
-2.74637
-2.70034
-2.70365
-2.74066
-2.78955
19.7223
16.6767
9.60796
5.25361
0.934132
-0.441206
-0.99276
-1.36494
-1.52558
-2.37565
-3.03712
-3.40221
-3.43161
-3.21824
-3.20115
-3.08542
-2.97331
-2.91808
-2.87667
-2.8837
-2.85748
-2.9067
-2.90511
11.3915
10.8197
1.18285
-1.44238
-0.737722
-1.2939
-1.69405
-1.92881
-1.9373
-2.41838
-3.10228
-3.09038
-3.21397
-3.07478
-3.1436
-3.10415
-3.04555
-3.02002
-3.01823
-3.01692
-3.00734
-3.02706
-3.05286
3.84723
5.4653
0.79036
-4.82698
-2.2486
-2.17083
-2.16637
-2.31353
-2.04851
-2.3136
-2.7534
-2.90247
-3.0261
-3.05094
-3.17378
-3.16499
-3.19217
-3.16009
-3.15032
-3.14377
-3.14833
-3.1518
-3.14076
-1.9118
-2.48285
1.86288
-2.99484
-2.51013
-2.49081
-2.70585
-2.50789
-2.7506
-2.83256
-2.90522
-2.93259
-3.04595
-3.23145
-3.23003
-3.27651
-3.28178
-3.28739
-3.28462
-3.29329
-3.26479
-3.27705
-3.28969
-5.26601
-7.25338
0.788926
-5.39369
-3.88372
-3.12049
-2.93615
-3.07091
-3.16208
-3.14253
-2.93548
-3.14573
-3.22943
-3.27848
-3.3248
-3.40805
-3.41022
-3.41968
-3.42002
-3.43218
-3.44869
-3.4287
-3.41158
-9.33259
-11.1264
-16.6553
-6.89795
-3.96985
-3.28216
-3.1618
-3.291
-3.09637
-3.13433
-3.29185
-3.31519
-3.36283
-3.4534
-3.50724
-3.52069
-3.54556
-3.55639
-3.55698
-3.55901
-3.53377
-3.54062
-3.57596
-18.6989
-6.10278
-14.4092
-4.01869
-4.01454
-3.45008
-3.39683
-3.33537
-3.49496
-3.39152
-3.46673
-3.49769
-3.55735
-3.59904
-3.64415
-3.69006
-3.70056
-3.70436
-3.7164
-3.70222
-3.69175
-3.67947
-3.63907
-23.4492
-3.49605
-6.02709
-4.13858
-4.5507
-3.84919
-3.70332
-3.56217
-3.66079
-3.69758
-3.69694
-3.74197
-3.80444
-3.80178
-3.83066
-3.86853
-3.86678
-3.85271
-3.85063
-3.84186
-3.83325
-3.82999
-3.82432
-17.0948
-13.4106
1.65495
-3.65784
-4.14931
-3.70929
-3.97239
-3.8673
-4.02404
-4.11086
-4.04825
-4.01638
-4.01946
-4.05076
-4.0892
-4.04001
-4.03702
-4.00006
-4.00486
-4.03601
-3.94904
-3.92155
-3.88544
-7.09093
-10.6795
-9.90928
-4.65408
-4.22913
-4.74694
-5.12584
-4.99217
-4.77172
-4.44323
-4.47822
-4.3429
-4.406
-4.30359
-4.31892
-4.24651
-4.23825
-4.26812
-4.15874
-4.11312
-4.18539
-4.13997
-4.07196
-0.877117
-4.13079
-6.48702
-3.12412
-6.30118
-5.43643
-5.05733
-5.89926
-5.24488
-4.84826
-4.92739
-4.89456
-4.63677
-4.58985
-4.53778
-4.44536
-4.39212
-4.33673
-4.34207
-4.37032
-4.30955
-4.245
-4.16577
4.09321
-1.47615
-5.33736
-7.76067
-6.67346
-6.08809
-5.34587
-5.12602
-5.21619
-5.31889
-5.33984
-5.25842
-5.14407
-4.96824
-4.83116
-4.71719
-4.63562
-4.52666
-4.48785
-4.4122
-4.4485
-4.4538
-4.4338
5.26851
-3.95254
-6.96869
-7.58468
-7.26164
-6.4775
-6.07559
-5.69221
-6.66629
-6.21267
-5.93534
-5.77098
-5.55542
-5.32728
-5.12154
-4.89907
-4.75425
-4.66817
-4.63536
-4.57933
-4.55574
-4.45189
-4.51578
3.28597
-7.26432
-8.31364
-7.67174
-7.5524
-7.05372
-6.90435
-5.77414
-7.54793
-6.95727
-6.66382
-6.61751
-6.25704
-5.81534
-5.39555
-5.1746
-5.18686
-4.86144
-4.78169
-4.66333
-4.5953
-4.58664
-4.62755
-13.5634
-12.0448
-9.82929
-8.64965
-8.51379
-7.85578
-7.4951
-7.26047
-6.6021
-6.42075
-7.26001
-7.44327
-6.7648
-6.09301
-5.51126
-5.35786
-5.14943
-4.99616
-4.92146
-4.94985
-4.75618
-4.79933
-4.84549
-15.8927
-9.38048
-7.81493
-8.75649
-8.62669
-8.04009
-7.45084
-7.06032
-6.73874
-6.82807
-8.11275
-7.48302
-6.85804
-6.50649
-5.73124
-5.28422
-5.30046
-5.23765
-5.09149
-4.99934
-5.02015
-4.99085
-4.81136
-9.10262
-7.63776
-6.19396
-6.98133
-7.44756
-7.65646
-7.38023
-7.03858
-6.67177
-7.66436
-8.11541
-6.85709
-6.50088
-6.12371
-5.73288
-5.39577
-5.44875
-5.1957
-5.16829
-5.19543
-5.01274
-4.94189
-4.98408
-8.6638
-8.63485
-7.12365
-7.17054
-7.18315
-7.33129
-7.33648
-7.34645
-7.44053
-7.40478
-6.64969
-6.11787
-6.1205
-6.18312
-5.86942
-5.45034
-5.40198
-5.43605
-5.22415
-5.12167
-5.15254
-5.07679
-5.0386
-8.1005
-8.26407
-7.94461
-7.4888
-7.25984
-7.11502
-6.9942
-6.74524
-6.51991
-6.41708
-5.86335
-5.71143
-5.90413
-5.93823
-5.66667
-5.61381
-5.48598
-5.46059
-5.3316
-5.27827
-5.26002
-5.31646
-5.14387
-5.52631
-6.59706
-7.66347
-7.1111
-6.94853
-6.75935
-6.55856
-6.35149
-6.17101
-6.22532
-5.46028
-5.53892
-5.94944
-5.85262
-5.57223
-5.42946
-5.5726
-5.46944
-5.46037
-5.28049
-5.3805
-5.2915
-5.40614
-4.78417
-5.89434
-6.90239
-6.85778
-6.68635
-6.48115
-6.32064
-5.95998
-5.81915
-5.5331
-5.53768
-5.56916
-5.92586
-5.72858
-5.46281
-5.48222
-5.49023
-5.50518
-5.43469
-5.52486
-5.40654
-5.3692
-5.34653
-5.52428
-6.15896
-6.53073
-6.93204
-6.81915
-6.52907
-6.30892
-6.03031
-5.8695
-5.64517
-5.76914
-5.64774
-5.87232
-5.60248
-5.48669
-5.54062
-5.54755
-5.61982
-5.52374
-5.48938
-5.51669
-5.50069
-5.43731
-6.33098
-6.54931
-6.74616
-7.02687
-7.00719
-6.69545
-6.21991
-5.92322
-6.07616
-5.93777
-5.84023
-5.74655
-5.74273
-5.5415
-5.63976
-5.59438
-5.53805
-5.52016
-5.56742
-5.51837
-5.59476
-5.61069
-5.54517
-6.89633
-7.00204
-7.16926
-7.37135
-7.04855
-6.66496
-6.36908
-6.24827
-6.04547
-5.85117
-5.77267
-5.68373
-5.65435
-5.57781
-5.6604
-5.58805
-5.58362
-5.58148
-5.64165
-5.615
-5.60502
-5.6767
-5.65685
-7.23317
-7.36348
-7.67553
-7.81746
-7.55372
-6.84593
-6.46796
-6.24596
-6.01174
-5.79472
-5.73374
-5.68998
-5.67991
-5.61307
-5.66502
-5.66841
-5.66758
-5.63243
-5.67193
-5.69449
-5.70606
-5.71893
-5.73124
-7.40445
-7.8847
-8.61545
-9.29063
-8.74664
-7.64478
-6.61832
-5.98998
-5.80247
-5.74032
-5.65744
-5.72476
-5.71732
-5.74344
-5.68939
-5.74528
-5.71083
-5.75295
-5.79717
-5.74057
-5.76576
-5.89822
-5.79664
255.424
280.77
265.451
243.012
166.464
206.246
251.206
305.979
89.5953
95.1787
207.117
250.318
179.281
200.118
177.799
205.519
141.454
170.02
197.918
214.684
129.828
151.145
157.544
147.857
94.0746
104.318
115.17
131.951
72.2641
78.773
91.0154
97.5518
55.694
56.7479
58.1609
62.0517
35.5744
43.1025
43.5723
48.5034
11.4963
14.3021
19.4967
19.9088
2.94089
1.79433
2.3709
4.04967
-0.698188
-1.22119
0.539025
0.326218
-2.18074
-2.00046
-1.87449
-1.56448
-2.53388
-2.45594
-2.3957
-2.32022
-2.76102
-2.76372
-2.73428
-2.77405
-2.91686
-2.92935
-2.94984
-2.99054
-3.05591
-3.06568
-3.07334
-3.08714
-3.14986
-3.15398
-3.16129
-3.17777
-3.29237
-3.29315
-3.30581
-3.2817
-3.40163
-3.39482
-3.38187
-3.40195
-3.56296
-3.56492
-3.53581
-3.56235
-3.67298
-3.64069
-3.63998
-3.65378
-3.81592
-3.80757
-3.81759
-3.84695
-3.94729
-3.8927
-3.89043
-3.87817
-4.0958
-4.10703
-4.04882
-4.0277
-4.13297
-4.153
-4.17965
-4.16776
-4.31423
-4.31599
-4.30182
-4.27231
-4.4465
-4.43578
-4.43291
-4.43922
-4.56174
-4.53822
-4.52443
-4.5271
-4.84615
-4.80009
-4.76962
-4.7654
-4.86728
-4.83824
-4.75787
-4.75816
-4.96675
-4.95464
-4.91803
-4.92189
-5.06898
-5.05958
-5.1088
-5.09264
-5.15013
-5.1249
-5.20852
-5.25445
-5.38635
-5.37943
-5.33962
-5.35947
-5.39921
-5.38321
-5.37374
-5.3692
-5.41704
-5.44044
-5.43487
-5.45024
-5.60735
-5.63004
-5.61167
-5.56808
-5.6391
-5.67051
-5.70332
-5.70473
-5.71403
-5.76123
-5.81923
-5.84123
-5.89319
-5.90818
-5.8656
-5.87629
265.579
338.452
276.69
268.536
253.962
273.053
303.93
293.946
281.399
250.389
186.746
244.052
215.218
215.29
340.221
415.4
497.932
536.376
630.018
272.479
298.959
291.979
285.772
222.951
220.258
196.27
201.593
178.348
185.753
217.423
259.302
302.976
248.981
326.867
386.66
476.742
522.883
605.854
299.101
269.762
243.738
196.307
162.656
167.657
114.447
117.348
150.051
189.111
187.221
204.52
225.518
238.159
307.492
357.05
424.471
319.765
271.579
264.089
212.563
206.6
164.339
108.813
75.2329
78.2574
94.5965
120.943
135.003
164.208
169.998
194.768
245.558
244.928
285.091
264.895
264.439
185.82
207.88
204.82
160.351
144.571
84.2714
55.8085
56.1712
74.9767
93.9914
99.5192
137.508
148.985
121.891
190.876
208.172
198.908
200.424
182.835
313.336
155.762
200.7
152.611
135.795
97.408
77.2166
56.4559
51.2444
104.065
60.2403
65.36
155.03
124.965
132.56
131.152
136.946
131.675
120.942
226.633
144.636
130.346
144.128
135.098
115.734
-22.3481
2.66329
15.6356
153.901
103.04
55.0305
56.7843
80.9656
80.0242
82.4283
83.8214
67.4928
98.12
48.6687
90.2386
89.1647
115.302
80.6848
65.7061
60.6798
67.5843
32.8178
84.0872
90.322
-3.61683
18.0357
62.3823
60.7479
62.1459
58.3908
65.6042
75.1885
46.2124
64.4645
64.0476
58.23
13.7719
10.8368
78.5486
70.3049
66.644
60.725
51.7539
34.3385
30.9592
29.1479
34.1063
40.1535
42.4122
46.2342
59.4043
47.1846
60.6761
21.6481
26.6768
49.3727
11.7835
32.7392
31.6782
23.8683
27.9972
23.643
18.1018
17.9262
21.2178
19.8508
22.8656
24.2422
26.0453
35.7186
29.7697
18.6584
4.09113
-7.6568
13.4952
19.0613
24.5007
21.8491
4.67617
31.9728
15.6752
12.399
10.4695
9.27124
8.64745
9.14534
7.68999
12.8403
15.1702
14.7186
6.96284
4.23614
3.22413
7.15558
7.69507
10.9734
8.49443
3.43191
4.06662
4.4375
6.15876
1.51424
2.78382
1.38469
3.06683
1.83292
5.59466
2.85142
1.76834
0.944218
-0.700568
0.854005
1.78689
3.27766
3.73344
2.13387
1.46429
1.08747
-0.0143166
0.0252291
-0.994661
-0.58942
-0.499348
-1.62062
0.145467
2.68297
0.95349
-0.167945
-1.16511
-1.38312
-0.557016
-0.902793
-0.37028
1.08394
-1.84737
-1.37615
-1.41747
-1.94557
-1.64787
-1.13889
-1.76168
-1.488
-1.72476
-1.04761
-2.44865
1.43429
6.92998
-2.15217
-2.03791
-2.17876
-1.95881
-1.84087
-1.98288
-2.5856
-2.4143
-2.18448
-2.1175
-2.15009
-2.07424
-1.98436
-2.03166
-1.86016
-1.69907
-1.88047
1.05276
4.48735
-2.67039
-2.84565
-2.65562
-2.56408
-2.63672
-2.55794
-2.78777
-2.69347
-2.54889
-2.51998
-2.37426
-2.32622
-2.25951
-2.2229
-2.10558
-2.02839
-2.57064
-1.19418
1.60203
-3.03338
-3.06997
-2.94089
-2.80182
-2.79542
-2.93153
-2.79153
-2.74455
-2.73817
-2.62462
-2.64773
-2.52392
-2.44258
-2.45586
-2.45414
-2.43298
-1.96943
-3.60734
-1.7838
-3.07568
-3.11328
-3.06727
-3.04969
-3.02566
-2.93636
-3.04599
-2.89288
-2.84257
-2.74546
-2.71606
-2.66894
-2.58892
-2.56522
-2.61064
-2.73268
-3.08399
-4.52948
-2.91259
-3.23251
-3.17041
-3.20305
-3.11105
-3.18815
-3.20951
-3.15925
-3.00255
-3.02901
-3.02042
-2.87675
-2.88443
-2.86231
-2.71809
-2.76542
-2.82524
-3.24089
-3.81579
-3.0302
-3.29085
-3.28822
-3.2746
-3.17654
-3.30407
-3.32071
-3.30106
-3.03638
-3.11435
-3.079
-3.02062
-2.92712
-2.97803
-2.93249
-2.87394
-3.00604
-3.09125
-3.34129
-3.06504
-3.42183
-3.47058
-3.3617
-3.35915
-3.40841
-3.32904
-3.40197
-3.28588
-3.17629
-3.18084
-3.16791
-3.12362
-3.12016
-3.13595
-3.01961
-3.10688
-3.12525
-3.22205
-3.01325
-3.56044
-3.46583
-3.42647
-3.50936
-3.41349
-3.49033
-3.45451
-3.3735
-3.40337
-3.29528
-3.2934
-3.24647
-3.20755
-3.20654
-3.16014
-3.20853
-3.18144
-3.16686
-3.12514
-3.61872
-3.56677
-3.55914
-3.53871
-3.58746
-3.59105
-3.52552
-3.49578
-3.46198
-3.47935
-3.44857
-3.40354
-3.42377
-3.31063
-3.27283
-3.31217
-3.26207
-3.2318
-3.45665
-3.81995
-3.72809
-3.64565
-3.63914
-3.62586
-3.71655
-3.71405
-3.57196
-3.62277
-3.50901
-3.5754
-3.52646
-3.53906
-3.51242
-3.47497
-3.4345
-3.40637
-3.4457
-3.42722
-3.92367
-3.94448
-3.88144
-3.86944
-3.81339
-3.8212
-3.77094
-3.79686
-3.6324
-3.69531
-3.67781
-3.64994
-3.57757
-3.66622
-3.55564
-3.55636
-3.52875
-3.64352
-3.23159
-3.99231
-3.98101
-3.91544
-3.96618
-3.86472
-3.90418
-3.87448
-3.88502
-3.84174
-3.81455
-3.797
-3.77843
-3.70089
-3.77553
-3.73382
-3.66313
-3.66232
-3.68797
-3.40581
-4.21561
-4.04463
-4.05618
-3.99227
-4.07566
-4.03753
-3.95647
-3.92868
-3.96465
-3.93655
-3.90152
-3.88867
-3.85908
-3.9047
-3.83723
-3.82438
-3.75947
-3.78876
-3.60582
-4.24269
-4.32616
-4.18381
-4.20605
-4.15965
-4.1978
-4.11579
-4.17203
-4.06551
-4.06275
-4.11117
-4.02292
-3.96453
-3.97936
-4.01358
-3.90855
-3.90259
-3.8913
-3.78475
-4.36191
-4.36638
-4.4085
-4.31641
-4.4591
-4.45949
-4.30893
-4.28956
-4.27744
-4.1721
-4.14853
-4.2035
-4.15564
-4.10121
-4.11552
-4.07551
-4.02574
-4.05009
-3.93817
-4.46165
-4.50006
-4.5054
-4.44021
-4.47558
-4.41955
-4.53349
-4.42275
-4.37179
-4.30129
-4.30132
-4.33921
-4.27652
-4.20254
-4.21986
-4.27314
-4.1373
-4.20284
-4.13303
-4.60513
-4.59218
-4.56593
-4.58621
-4.50279
-4.48778
-4.52086
-4.64068
-4.56767
-4.39564
-4.38513
-4.4639
-4.44223
-4.32234
-4.38574
-4.41514
-4.2627
-4.3444
-4.24204
-4.79603
-4.71218
-4.74272
-4.76142
-4.73497
-4.68449
-4.65644
-4.71511
-4.74113
-4.65118
-4.51634
-4.57685
-4.5453
-4.56063
-4.50595
-4.49377
-4.38561
-4.44536
-4.36416
-4.8873
-4.81612
-4.83433
-4.75217
-4.88485
-4.85843
-4.86936
-4.65795
-4.81128
-4.90057
-4.6875
-4.69424
-4.63187
-4.7551
-4.65737
-4.66055
-4.60955
-4.53967
-4.522
-4.98454
-4.90518
-4.95216
-4.96502
-5.00341
-5.0364
-4.98912
-4.87197
-5.00525
-4.97726
-4.81754
-4.82984
-4.96339
-4.86937
-4.85294
-4.77668
-4.67022
-4.71983
-4.65987
-5.24884
-5.02391
-5.15223
-4.97747
-5.07752
-5.21699
-5.25993
-5.15155
-5.13041
-5.14005
-5.03948
-5.01128
-4.93927
-5.07388
-4.9929
-4.85547
-4.87776
-4.77902
-4.77382
-5.3604
-5.32871
-5.28235
-5.36627
-5.36548
-5.29063
-5.32233
-5.22036
-5.28723
-5.30131
-5.25729
-5.17159
-5.18883
-5.13722
-5.24428
-5.0167
-4.96758
-4.95194
-4.91951
-5.3974
-5.507
-5.43167
-5.34592
-5.55704
-5.65832
-5.64644
-5.47898
-5.46776
-5.4731
-5.41047
-5.32033
-5.28053
-5.39159
-5.32087
-5.07929
-5.10581
-5.11288
-5.14102
-5.4798
-5.43064
-5.36745
-5.46294
-5.53019
-5.65544
-5.70774
-5.58889
-5.66565
-5.59529
-5.61741
-5.54149
-5.52181
-5.46059
-5.42679
-5.27887
-5.29327
-5.25191
-5.16793
-5.54391
-5.54063
-5.56806
-5.54433
-5.84208
-5.64018
-5.86018
-5.80062
-5.70609
-5.6912
-5.65517
-5.72985
-5.67097
-5.61135
-5.51854
-5.44657
-5.37302
-5.39584
-5.33144
-5.71624
-5.77076
-5.98583
-6.09477
-5.91596
-6.03342
-5.83845
-5.91554
-5.83439
-5.9057
-5.84025
-5.79595
-5.79892
-5.70451
-5.65606
-5.56508
-5.56892
-5.51194
-5.49612
-5.84907
-5.86959
-6.05767
-6.12999
-6.12446
-6.10254
-6.04838
-6.02987
-6.07183
-6.00901
-5.86711
-5.91148
-5.87492
-5.79953
-5.71056
-5.69438
-5.6193
-5.73677
-5.69317
-5.90443
-6.1871
-5.96961
-6.05751
-6.06382
-6.13739
-6.18568
-6.18515
-6.23853
-6.17534
-6.11909
-6.09498
-5.94681
-5.89454
-5.85297
-5.78131
-5.76627
-5.93237
-5.95141
)
;

boundaryField
{
    leftWall
    {
        type            calculated;
        value           nonuniform List<scalar> 
50
(
1017.81
957.771
899.169
837.677
775.122
716.255
655.933
597.349
514.846
418.198
346.991
301.221
247.319
211.097
197.348
180.735
168.822
145.782
114.937
88.8819
75.932
53.9205
39.7237
28.9726
19.7223
11.3915
3.84723
-1.9118
-5.26601
-9.33259
-18.6989
-23.4492
-17.0948
-7.09093
-0.877117
4.09321
5.26851
3.28597
-13.5634
-15.8927
-9.10262
-8.6638
-8.1005
-5.52631
-4.78417
-5.52428
-6.33098
-6.89633
-7.23317
-7.40445
)
;
    }
    rightWall
    {
        type            calculated;
        value           nonuniform List<scalar> 
50
(
1155.79
1101.28
988.318
845.766
747.291
707.73
654.529
624.67
630.018
605.854
271.579
185.82
313.336
226.633
48.6687
46.2124
47.1846
29.7697
14.7186
1.76834
-0.167945
6.92998
4.48735
1.60203
-1.7838
-2.91259
-3.0302
-3.06504
-3.01325
-3.12514
-3.45665
-3.42722
-3.23159
-3.40581
-3.60582
-3.78475
-3.93817
-4.13303
-4.24204
-4.36416
-4.522
-4.65987
-4.77382
-4.91951
-5.14102
-5.16793
-5.33144
-5.49612
-5.69317
-5.95141
)
;
    }
    lowerWall
    {
        type            calculated;
        value           nonuniform List<scalar> 
62
(
1047.24
1040.65
1045.63
1027.12
1029.25
1023.49
1015.35
1014.15
1007.37
1000.38
998.155
991.991
986.641
978.118
969.334
958.698
942.291
921.431
902.919
875.742
860.447
853.494
849.598
820.168
758.75
699.96
633.043
578.376
497.58
434.738
341.463
311.94
335.754
314.275
282.474
925.586
888.12
811.982
747.536
666.903
584.845
500.68
411.969
941.518
918.258
739.817
574.928
618.959
587.225
605.241
657.661
580.185
437.308
402.96
464.311
426.149
453.328
284.899
448.258
721.072
932.937
1170.6
)
;
    }
    atmosphere
    {
        type            calculated;
        value           nonuniform List<scalar> 
46
(
-6.8086
-7.35639
-8.75811
-10.4807
-9.4582
-7.64294
-6.39109
-5.97664
-5.74876
-5.73566
-5.72939
-5.72904
-5.72904
-5.72904
-5.72904
-5.74589
-5.75094
-5.75851
-5.79868
-5.78991
-5.8188
-5.89337
-5.84833
-5.9015
-5.93353
-5.94322
-5.94567
-5.97434
-6.1414
-6.14053
-6.20196
-6.22403
-6.27427
-6.28062
-6.33591
-6.30245
-6.2208
-6.15041
-6.10174
-6.00855
-5.94406
-5.88763
-5.80753
-5.75447
-5.88913
-6.88034
)
;
    }
    defaultFaces
    {
        type            empty;
    }
}


// ************************************************************************* //
