/*--------------------------------*- C++ -*----------------------------------*\
| =========                 |                                                 |
| \\      /  F ield         | foam-extend: Open Source CFD                    |
|  \\    /   O peration     | Version:     4.1                                |
|   \\  /    A nd           | Web:         http://www.foam-extend.org         |
|    \\/     M anipulation  |                                                 |
\*---------------------------------------------------------------------------*/
FoamFile
{
    version     2.0;
    format      ascii;
    class       volScalarField;
    location    "0.75";
    object      pd;
}
// * * * * * * * * * * * * * * * * * * * * * * * * * * * * * * * * * * * * * //

dimensions      [1 -1 -2 0 0 0 0];

internalField   nonuniform List<scalar> 
2268
(
1047.24
1040.65
1045.63
1027.12
1029.25
1023.49
1015.35
1014.15
1007.37
1000.38
998.155
991.991
986.641
978.118
969.334
958.698
942.291
921.431
902.919
875.742
860.447
853.494
849.598
1046.06
1039.36
1042.4
1029.37
1029.11
1023.79
1015
1014.32
1007.71
1000.14
998.454
992.387
985.931
977.39
970.619
958.731
942.411
920.961
901.894
881.565
857.526
853.239
847.038
1045.83
1038.16
1041.3
1029.38
1028.41
1023.5
1014.77
1013.52
1005.9
1000.39
1000.14
992.9
986.571
980.711
971.599
963.664
944.451
920.713
897
872.281
855.554
848.156
847.107
1041.28
1035.43
1038.36
1028.65
1027.04
1022.56
1013.39
1012.96
1005.19
1004.35
998.784
993.309
986.857
980.219
971.012
961.792
946.379
921.058
899.007
871.179
851.682
842.093
839.049
1033.48
1032.8
1032.93
1026.45
1024.04
1020.93
1009.77
1013.46
1007.1
1001.85
998.666
992.256
986.595
976.649
972.362
962.873
949.472
922.514
900.736
862.552
836.824
828.098
843.24
1025.57
1022.86
1027.4
1022.23
1020.97
1018.7
1010.37
1004.3
1012.97
1002.48
995.575
991.061
982.61
982.265
970.398
963.609
959.789
927.891
890.819
850.402
836.568
817.337
821.303
1009.26
1011.31
1012.12
1015.86
1015.47
1016.06
1009.26
1008.13
1003.11
999.236
992.966
987.196
979.696
973.698
966.74
961.537
956.742
907.347
893.29
836.761
802.809
799.517
815.348
981.173
970.131
994.66
1006.73
1010.36
1011.57
1005.51
1005.29
1001.19
995.5
987.432
978.417
968.124
968.83
957.433
952.108
951.611
901.121
882.229
806.699
753.594
757.352
769.318
941.518
918.258
739.817
574.928
618.959
587.225
605.241
657.661
580.185
437.308
402.96
464.311
426.149
453.328
284.899
448.258
721.072
932.937
1170.6
936.309
887.02
726.917
551.282
598.947
599.023
618.271
654.117
561.456
423.718
400.697
502.312
329.127
379.778
302.728
493.056
615.747
882.326
1145.88
893.566
836.56
694.065
496.629
613.628
615.372
622.364
651.877
543.986
440.264
374.678
418.919
337.533
286.386
330.705
530.677
638.688
856.861
1062.91
863.098
768.595
630.992
518.385
574.427
615.934
635.484
655.193
546.046
442.445
340.735
369.43
302.321
255.679
334.229
525.026
596.536
791.919
950.481
815.524
679.255
552.476
490.8
521.556
553.462
642.6
640.587
544.53
455.33
379.614
335.55
252.01
223.415
362.604
517.356
580.094
742.228
882.72
765.741
623.076
497.122
429.226
433.015
510.084
605.473
676.555
604.027
497.956
419.107
317.947
221.024
215.164
403.697
514.487
572.775
717.717
875.308
712.68
579.46
448.008
380.298
387.177
462.878
567.211
641.42
613.955
572.467
473.906
361.966
260.922
272.194
459.135
548.517
586.438
689.542
855.331
652.821
560.769
423.786
358.683
364.43
443.004
524.422
597.204
634.121
629.924
503.745
409.495
358.909
373.584
534.458
625.206
621.868
693.373
859.697
905.619
922.42
910.593
990.137
990.593
1002.02
992.392
993.398
985.972
977.69
967.456
958.311
952.216
938.223
928.69
926.533
915.894
881.299
799.823
746.778
655.886
653.458
736.766
726.389
751.035
828.523
903.29
963.304
951.445
933.802
929.004
918.408
909.464
889.015
872.484
866.674
869.945
845.917
804.224
775.588
682.138
622.094
546.063
458.038
477.802
601.16
566.88
617.78
723.061
779.883
755.408
755.264
704.361
717.317
679.022
656.084
598.356
657.736
624.006
650.753
622.202
598.607
568.127
509.518
467.266
415.231
343.204
464.343
594.872
485.215
553.591
588.135
546.76
472.204
481.785
457.105
462.66
407.813
401.193
398.959
393.217
412.082
435.919
449.325
457.997
488.137
476.744
484.782
480.013
472.324
469.709
579.949
417.802
457.029
440.428
383.39
342.242
355.685
335.679
336.251
325.984
341.488
344.365
350.046
363.721
395.592
378.392
410.942
508.827
494.749
475.684
416.372
451.752
497.517
453.251
367.334
386.7
332.224
319.8
300.4
307.481
355.778
402.597
432.004
441.723
449.773
462.067
488.968
509.511
507.369
492.567
491.871
482.96
328.623
326.625
469.433
467.979
413.506
336.181
330.594
288.738
299.984
322.85
359.373
383.534
402.957
404.439
407.824
412.921
438.434
457.436
487.154
492.833
490.693
458.964
419.647
385.89
363.57
362.335
326.242
281.196
300.092
282.831
285.552
312.952
336.164
329.703
308.385
261.363
216.733
211.553
228.651
288.742
329.542
358.769
390.816
409.695
300.016
334.031
405.206
342.083
284.844
244.343
238.924
280.844
299.669
281.443
283.45
321.644
280.045
217.083
142.605
106.666
103.54
117.455
161.084
204.79
249.721
297.992
310.901
297.359
318.103
355.175
337.18
216.247
201.71
255.975
267.696
285.214
261.591
231.548
234.612
215.061
141.226
82.0768
56.6503
50.9133
58.3231
80.5296
111.694
148.402
189.917
201.923
239.638
272.499
294.095
300.461
274.175
253.646
262.434
245.966
256.813
240.599
217.729
177.332
151.733
89.4898
47.8519
31.403
35.3256
49.9716
72.4818
88.2763
91.1024
89.2602
93.1234
112.012
130.904
157.992
175.616
195.655
210.844
222.735
226.85
227.857
238.831
203.35
144.228
100.14
50.797
29.8903
20.0646
25.0905
37.5021
46.6693
46.7845
42.1493
34.7821
29.9904
28.8152
29.6091
36.3297
41.7969
52.4629
62.3098
82.3875
219.428
230.67
211.523
159.404
93.6962
54.5754
25.3103
16.4912
13.3048
17.398
22.996
23.4726
20.603
15.9232
11.4925
7.87366
6.18965
6.64467
7.34522
8.25038
10.7195
14.4537
23.4513
201.09
204.429
187.025
130.457
62.9241
26.8938
11.7286
7.68122
8.43558
11.5157
13.0341
11.7002
8.67715
5.0249
2.75239
1.73099
1.35111
1.84412
2.34794
3.05379
4.57457
7.35291
11.2794
188.542
199.185
166.573
103.398
45.2756
16.8333
6.86108
3.86628
5.3675
6.70846
7.35329
5.67795
3.20376
1.23193
0.365243
-0.0678386
-0.0140818
0.283396
0.435209
0.743394
1.16989
1.82652
2.63683
178.028
187.402
145.29
88.1745
37.2108
13.5725
5.38567
3.02631
3.55597
3.90177
3.81881
2.34201
1.2097
0.0171919
-0.507288
-0.661634
-0.517925
-0.333122
-0.241329
-0.130443
-0.0277593
0.129014
0.215736
167.757
168.331
124.463
84.2883
40.9525
14.2636
5.03985
2.41543
2.17804
1.82383
0.949486
0.242609
-0.159612
-0.40566
-0.648762
-0.548844
-0.436733
-0.381505
-0.340094
-0.347123
-0.320897
-0.320141
-0.292596
156.952
150.356
104.43
73.2636
39.4769
14.9545
5.14286
2.06516
1.4289
0.941845
0.0702959
-0.139114
-0.428739
-0.391941
-0.481822
-0.442375
-0.383777
-0.358248
-0.356452
-0.355147
-0.345563
-0.365284
-0.391086
145.527
132.684
93.528
59.4285
29.0959
11.4754
4.45181
1.83037
1.34676
0.850442
0.264892
-0.010029
-0.209421
-0.26273
-0.386815
-0.378024
-0.405205
-0.373123
-0.363354
-0.356805
-0.361365
-0.36483
-0.353792
135.724
115.307
88.0638
58.7651
23.206
8.24119
3.40532
1.76195
0.721713
0.307565
0.10557
0.0133626
-0.123171
-0.31534
-0.316823
-0.364328
-0.369613
-0.375229
-0.372452
-0.381123
-0.352625
-0.36489
-0.377529
128.032
100.516
80.996
57.9858
25.159
8.69195
3.91843
1.31638
0.282772
0.000610919
0.161335
-0.0711738
-0.167579
-0.225974
-0.282407
-0.369745
-0.372744
-0.382293
-0.38257
-0.394664
-0.411055
-0.391002
-0.373913
119.048
85.6183
56.7414
55.5859
25.1037
8.35976
3.58226
0.887371
0.353973
0.176019
0.0205439
-0.0465187
-0.130288
-0.256743
-0.333499
-0.355395
-0.382459
-0.393724
-0.394409
-0.39643
-0.371164
-0.377976
-0.413331
103.853
80.7148
54.6743
54.9222
21.3575
7.14255
3.14982
0.964282
0.194741
0.246807
0.213081
0.00888438
-0.168163
-0.273893
-0.344933
-0.39924
-0.412003
-0.41635
-0.428578
-0.414447
-0.403996
-0.391714
-0.35132
92.0803
73.3024
59.2088
47.8475
16.1606
6.14504
3.29432
1.13722
0.524961
0.566656
0.396022
-0.0424402
-0.29244
-0.357175
-0.408397
-0.453148
-0.453165
-0.439506
-0.4376
-0.428896
-0.420304
-0.417051
-0.411383
90.1505
54.3761
63.3616
43.8544
14.3692
6.03003
3.77242
1.75494
1.08193
1.14256
0.40498
-0.145787
-0.364395
-0.467241
-0.537429
-0.499818
-0.498781
-0.461925
-0.466728
-0.497879
-0.410906
-0.383409
-0.347306
92.0302
52.7179
48.0127
36.533
11.8298
5.46567
4.04226
2.2391
1.64379
1.46631
0.259082
-0.174147
-0.489099
-0.523532
-0.620436
-0.577788
-0.5747
-0.604793
-0.495406
-0.449785
-0.522059
-0.476644
-0.408632
90.3401
56.3018
46.7117
32.0343
10.1497
5.37715
5.36968
3.1988
2.86786
2.08286
0.756127
0.075921
-0.312554
-0.568507
-0.682839
-0.644873
-0.602173
-0.548208
-0.553547
-0.5818
-0.521025
-0.456475
-0.377247
88.1092
56.6294
44.8047
22.6573
9.20977
5.45014
5.82906
5.42612
4.75442
3.28522
1.7919
0.65099
-0.314118
-0.608547
-0.794161
-0.783296
-0.719542
-0.61281
-0.574131
-0.498482
-0.534785
-0.540081
-0.520078
82.9944
53.4802
42.0612
23.0524
9.90577
6.34463
5.63021
5.77635
4.43371
3.52879
2.19221
1.13762
0.0621427
-0.450555
-0.869087
-0.830614
-0.712528
-0.629182
-0.596448
-0.540412
-0.51683
-0.412971
-0.476862
75.1768
50.8186
41.2294
25.8475
12.9154
7.53344
5.1699
6.08289
4.15004
3.65492
2.72441
2.08784
1.06731
0.0555828
-0.818526
-0.964112
-1.01973
-0.697331
-0.617584
-0.499222
-0.431192
-0.422529
-0.463437
52.3332
44.693
39.7961
28.8013
17.0254
9.29526
5.1669
4.71197
5.42175
5.14153
3.99341
3.88556
3.31059
1.16251
-0.540254
-0.99808
-0.855136
-0.706743
-0.632156
-0.660549
-0.466877
-0.510026
-0.556188
44.6813
44.4117
40.2141
29.4336
19.05
10.6122
5.99371
5.16283
5.59343
5.55396
4.74223
5.64212
5.01199
1.87759
-0.428305
-0.736425
-0.864424
-0.821031
-0.676983
-0.584842
-0.605651
-0.576348
-0.396864
47.2074
42.2661
36.9704
28.6831
19.3553
10.5585
6.2858
5.66194
6.15342
5.62599
6.07029
7.18571
5.14222
1.5453
-0.281201
-0.681669
-0.882156
-0.654411
-0.628602
-0.655737
-0.473046
-0.402195
-0.444389
43.67
36.9332
28.2766
21.1165
14.4127
8.63356
6.5134
6.39064
6.73032
7.63957
8.67571
8.31083
4.63013
0.254281
-0.887928
-0.758112
-0.737094
-0.771164
-0.559266
-0.456783
-0.487651
-0.411901
-0.373713
38.8202
32.1581
21.0105
13.8309
9.73241
7.97528
7.87365
8.81898
9.49079
9.50791
9.60867
7.4403
2.9602
-0.10948
-0.731354
-0.807687
-0.695349
-0.670506
-0.541522
-0.488184
-0.46993
-0.526376
-0.353784
31.416
25.8121
16.0057
10.9358
9.10241
9.13428
9.93666
10.2817
10.0419
9.03725
8.12325
3.83219
0.263284
-0.680204
-0.620961
-0.51215
-0.657322
-0.554161
-0.545092
-0.365197
-0.46521
-0.376227
-0.490867
20.2063
17.6591
12.9933
10.377
10.0199
10.7388
11.0023
10.477
8.7286
6.90445
4.30817
1.30468
-0.512497
-0.650653
-0.421765
-0.441747
-0.449761
-0.464706
-0.39421
-0.48437
-0.36607
-0.328733
-0.306056
13.1133
12.8177
11.6564
10.625
10.9655
11.4942
11.1568
9.00292
5.45636
3.16437
0.998899
-0.019434
-0.636999
-0.433395
-0.321022
-0.374952
-0.381887
-0.454152
-0.358055
-0.323672
-0.351029
-0.335021
-0.271644
8.79487
10.0703
10.7219
10.8108
11.2445
11.4101
10.2361
6.32083
2.02277
0.720213
-0.128723
-0.386512
-0.451122
-0.250641
-0.348899
-0.303524
-0.247189
-0.229286
-0.276522
-0.227453
-0.3039
-0.319833
-0.254308
4.76192
7.04418
9.19228
10.1561
10.7462
10.0993
7.10032
2.91042
0.565507
0.0500374
-0.228875
-0.248748
-0.237642
-0.161756
-0.244351
-0.171996
-0.167558
-0.165402
-0.225535
-0.198875
-0.188968
-0.26065
-0.240793
1.4381
3.14665
5.67657
7.43704
7.29925
5.64848
2.54882
0.57014
-0.222397
-0.161776
-0.173974
-0.147477
-0.13866
-0.0718239
-0.12377
-0.12716
-0.126327
-0.0911522
-0.1306
-0.153166
-0.164811
-0.177681
-0.189994
-0.670242
-0.608679
0.0469697
1.07554
0.608219
-0.0853483
-0.297064
-0.0786415
-0.116522
-0.0673265
0.00934897
-0.0583143
-0.0508726
-0.0769958
-0.0229425
-0.0788333
-0.0443785
-0.0864763
-0.130645
-0.0740535
-0.0993166
-0.231776
-0.130198
737.059
749.353
681.541
579.319
684.238
721.843
711.101
689.587
603.415
566.718
615.606
601.349
591.784
569.428
508.396
505.729
457.459
465.984
474.139
460.353
387.443
386.939
371.824
341.317
277.508
285.35
298.779
323.466
258.785
276.623
303.65
325.851
258.293
264.105
273.806
288.064
277.937
285.496
286.551
292.452
231.947
233.538
231.543
225.13
105.794
110.538
110.731
109.364
35.0888
39.5737
44.2133
45.3264
14.7865
16.6805
18.1363
19.3111
3.78573
4.8698
6.246
7.58608
0.597916
1.13782
2.08183
3.08218
-0.271518
-0.165414
0.0824802
0.438523
-0.394134
-0.403904
-0.411567
-0.377688
-0.362891
-0.36701
-0.374322
-0.3908
-0.380205
-0.380986
-0.393642
-0.369533
-0.363834
-0.356972
-0.344131
-0.364553
-0.400307
-0.402212
-0.373027
-0.399488
-0.385232
-0.352935
-0.35222
-0.365999
-0.402983
-0.394634
-0.404646
-0.434006
-0.409155
-0.354565
-0.352292
-0.340032
-0.43247
-0.443703
-0.385485
-0.364369
-0.344441
-0.364474
-0.391124
-0.37923
-0.400507
-0.402274
-0.388098
-0.358585
-0.407584
-0.396867
-0.393987
-0.400302
-0.397626
-0.374104
-0.360309
-0.362983
-0.556841
-0.510777
-0.480293
-0.476084
-0.452772
-0.42373
-0.343354
-0.34366
-0.427054
-0.414949
-0.378337
-0.382198
-0.404097
-0.394693
-0.443909
-0.427752
-0.360047
-0.334821
-0.418441
-0.464368
-0.471074
-0.464157
-0.424344
-0.444199
-0.358736
-0.342745
-0.333272
-0.328733
-0.251377
-0.274776
-0.269204
-0.284573
-0.316493
-0.339178
-0.320806
-0.277224
-0.223046
-0.254461
-0.287264
-0.288676
-0.17278
-0.219981
-0.277977
-0.299987
-0.226751
-0.241738
-0.199157
-0.209843
540.422
566.212
411.892
360.352
362.499
417.271
475.674
503.962
564.214
597.106
540.621
575.817
542.311
545.233
675.93
722.71
701.022
735.635
922.265
563.047
487.3
445.381
431.155
383.421
424.047
403.643
422.711
440.86
492.343
556.581
610.999
677.092
660.406
751.501
768.219
717.25
802.667
979.702
566.743
463.156
454.655
378.219
340.67
344.577
283.454
294.873
353.285
422.408
425.181
462.783
568.644
694.509
786.031
709.871
719.935
692.997
725.497
510.993
397.769
390.93
308.439
250.756
213.33
210.4
227.547
277.789
292.685
352.564
457.052
620.956
728.174
651.208
560.247
620.828
743.723
725.342
402.448
361.093
314.039
291.214
229.333
186.666
181.726
201.612
249.126
303.002
460.54
577.629
588.406
600.216
539.84
486.551
590.387
686.211
865.923
330.337
370.644
343.607
332.457
289.572
255.733
232.73
244.92
366.19
383.305
463.186
575.728
500.204
452.697
413.285
398.667
387.999
478.917
685.877
355.303
364.78
389.955
384.417
367.158
233.02
280.158
327.259
508.914
475.209
440.314
387.039
348.258
309.53
263.745
234.328
211.298
278.834
318.922
341.305
364.436
402.464
372.636
359.015
349.904
378.654
364.942
425.541
432.808
324.714
291.464
266.558
209.133
169.519
143.494
147.89
168.078
179.542
309.913
347.913
374.691
345.729
346.648
392.272
375.676
371.409
365.459
347.115
298.109
237.127
167.01
125.975
108.78
98.8872
100.227
122.059
123.026
306.344
274.344
319.686
391.357
375.575
402.416
397.943
364.629
334.639
289.083
224.99
161.195
116.299
85.8848
73.5089
66.4224
64.7974
84.4791
85.0699
213.681
187.77
173.949
225.853
251.296
302.154
332.227
322.879
301.705
212.058
153.334
106.876
77.4079
59.3872
48.0403
40.1014
41.7479
54.1047
59.5275
107.951
102.674
96.771
125.222
147.024
184.472
197.663
194.813
169.283
116.058
89.5825
64.9184
54.9494
40.7975
30.2881
26.1662
27.886
35.7851
39.5129
46.73
46.0576
50.6834
59.0567
72.25
89.9311
95.8493
95.7981
82.8662
54.8723
40.2242
32.1797
27.0459
26.2445
14.4337
15.9277
20.8757
30.9467
32.6355
20.703
21.665
25.419
26.6131
34.2955
42.2628
41.2095
43.8908
38.1606
21.8752
14.2645
14.3325
8.92585
10.1718
6.49223
7.43613
13.1725
29.7477
36.2034
9.30886
10.4929
11.3064
12.0979
15.545
17.3356
16.4357
18.1308
15.2227
8.08041
4.65081
4.91647
3.03974
2.82531
2.56009
3.25436
11.6704
28.0164
31.0814
4.42904
4.37899
4.42723
5.2805
6.62949
6.15192
5.32942
5.40397
4.03731
2.07467
1.376
1.44594
1.0608
0.760465
0.92453
2.09793
10.8464
24.5685
25.8753
1.16995
1.14681
1.1943
2.17983
3.70268
2.35777
1.73349
1.25566
0.816173
0.537038
0.294781
0.389463
0.393717
0.210071
0.18591
1.80398
11.5311
19.5749
20.3508
-0.191809
-0.179214
-0.0167308
0.386907
1.63208
1.21312
0.575942
0.30923
0.158342
0.157107
0.0944619
0.116459
0.179459
0.127484
0.0511372
0.976007
8.49777
15.1118
17.4564
-0.445544
-0.383437
-0.408423
-0.231596
0.0950174
0.0541767
-0.0555182
-0.0110748
-0.123731
-0.151768
-0.038587
-0.0517266
-0.0387454
0.0688802
0.0215479
0.963857
6.94412
13.1697
16.0252
-0.378683
-0.376059
-0.362441
-0.264378
-0.374789
-0.354527
-0.345927
-0.084736
-0.173242
-0.147659
-0.0957207
-0.00100557
-0.0553662
-0.0203233
0.0382184
0.747198
5.62994
11.8377
14.9852
-0.384474
-0.433224
-0.324342
-0.321794
-0.37105
-0.291686
-0.364609
-0.248521
-0.138931
-0.143483
-0.130147
-0.0843707
-0.082806
-0.0985895
0.0177491
0.698945
4.70052
10.6377
14.211
-0.397507
-0.303073
-0.263919
-0.346805
-0.250938
-0.327777
-0.291954
-0.210943
-0.240816
-0.132726
-0.130846
-0.0839191
-0.0450028
-0.0439912
0.00240955
0.646373
3.98802
9.73548
13.3892
-0.330885
-0.27884
-0.271112
-0.250775
-0.299716
-0.303303
-0.237773
-0.208033
-0.17423
-0.191599
-0.160821
-0.115789
-0.136028
-0.0228811
0.014919
0.584671
3.41861
8.90782
12.399
-0.407003
-0.315124
-0.232646
-0.22605
-0.212761
-0.303486
-0.301064
-0.159014
-0.209832
-0.0960733
-0.162461
-0.113517
-0.126117
-0.0994831
-0.0620269
0.438367
2.87476
7.929
11.8012
-0.385534
-0.406346
-0.343299
-0.331284
-0.275196
-0.282997
-0.232751
-0.25868
-0.0942609
-0.157171
-0.139678
-0.111804
-0.0394321
-0.128085
-0.0175061
0.312245
2.36513
6.8857
11.4197
-0.328981
-0.317677
-0.252113
-0.302848
-0.201385
-0.24085
-0.21115
-0.221688
-0.178407
-0.151223
-0.133674
-0.115097
-0.0375584
-0.112201
-0.07049
0.250972
1.90482
6.14837
10.7175
-0.427083
-0.256099
-0.267654
-0.203741
-0.28713
-0.249007
-0.167947
-0.140157
-0.176128
-0.148025
-0.112999
-0.100141
-0.0705523
-0.116176
-0.0487085
0.126864
1.55033
5.57078
9.99568
-0.328969
-0.412438
-0.270094
-0.292331
-0.245936
-0.284081
-0.202067
-0.25831
-0.151787
-0.149029
-0.197448
-0.109204
-0.0508095
-0.0656454
-0.0998648
0.136276
1.35131
5.2538
9.33371
-0.322993
-0.327461
-0.369583
-0.277498
-0.420189
-0.420574
-0.270018
-0.250648
-0.238522
-0.133185
-0.109613
-0.164582
-0.116725
-0.0622941
-0.0766035
0.0823765
1.26461
4.91887
8.66936
-0.297542
-0.335947
-0.341289
-0.276101
-0.311469
-0.255441
-0.369378
-0.258641
-0.207679
-0.13718
-0.137209
-0.175101
-0.112413
-0.0384278
-0.0557488
0.0245946
1.19927
4.40829
7.94877
-0.315824
-0.302875
-0.276627
-0.296905
-0.213487
-0.198477
-0.23156
-0.351374
-0.278363
-0.106334
-0.0958247
-0.174592
-0.152925
-0.0330381
-0.0964381
-0.0465841
0.959722
3.78803
7.35358
-0.381528
-0.297681
-0.328223
-0.346922
-0.320476
-0.269997
-0.241947
-0.300612
-0.326631
-0.236687
-0.101842
-0.162348
-0.130802
-0.146137
-0.0914529
-0.00161262
0.921441
3.37306
6.81056
-0.347605
-0.276426
-0.294635
-0.212483
-0.345163
-0.318734
-0.32417
-0.104635
-0.25827
-0.348538
-0.139391
-0.150519
-0.0921759
-0.215408
-0.117682
-0.00252699
0.782671
2.90801
6.26016
-0.319657
-0.240293
-0.287274
-0.300136
-0.337728
-0.35675
-0.283853
-0.157523
-0.291935
-0.266496
-0.114905
-0.140422
-0.288398
-0.204485
-0.188054
-0.022931
0.597501
2.21167
5.78054
-0.458762
-0.233825
-0.362152
-0.187385
-0.273692
-0.384973
-0.374494
-0.256091
-0.224292
-0.237838
-0.14934
-0.147395
-0.104277
-0.266524
-0.202815
-0.0384569
0.205521
1.6879
5.4368
-0.445123
-0.413431
-0.367077
-0.442996
-0.405711
-0.28758
-0.245434
-0.118816
-0.140931
-0.156038
-0.133012
-0.0910995
-0.158397
-0.159081
-0.31559
-0.0938047
0.120645
1.42594
5.17246
-0.356933
-0.466526
-0.391198
-0.276969
-0.434078
-0.4766
-0.375053
-0.13781
-0.0681242
-0.0702646
-0.0307325
-0.000474671
-0.0460697
-0.24974
-0.23868
-0.0388241
-0.0392227
0.798782
4.76948
-0.31414
-0.264973
-0.188748
-0.232894
-0.214738
-0.248322
-0.20363
0.00200851
-0.0434509
0.0233972
-0.0323145
-0.0217831
-0.101096
-0.147148
-0.182412
-0.113209
-0.0435158
1.31498
6.06962
-0.253053
-0.249772
-0.246152
-0.149154
-0.348278
-0.0315599
-0.144534
0.00212461
0.106693
0.0902712
0.0777105
-0.0413597
-0.0506592
-0.0972327
-0.110217
-0.143666
0.0832058
1.47996
5.84275
-0.300185
-0.354706
-0.521659
-0.541988
-0.264512
-0.26532
0.0610147
0.060537
0.127524
-0.0206474
-0.0348428
-0.0372265
-0.0700084
-0.0353445
-0.0678726
-0.112224
0.0172208
1.19398
4.22589
-0.307823
-0.323912
-0.448879
-0.436846
-0.334867
-0.199835
-0.00145369
0.0953908
0.0210514
-0.0171304
0.0315578
-0.0730506
-0.0691201
-0.0314167
-0.00815861
-0.101188
0.0177751
0.415963
2.5074
-0.237987
-0.514916
-0.225799
-0.230002
-0.13983
-0.100651
0.000432717
0.0815336
-0.00940668
-0.0525341
-0.0951011
-0.141325
-0.039718
-0.0248715
-0.0296696
-0.0372393
-0.0746743
-0.108217
0.853747
)
;

boundaryField
{
    leftWall
    {
        type            zeroGradient;
    }
    rightWall
    {
        type            zeroGradient;
    }
    lowerWall
    {
        type            zeroGradient;
    }
    atmosphere
    {
        type            totalPressure;
        rho             rho;
        psi             none;
        gamma           1;
        p0              uniform 0;
        value           nonuniform List<scalar> 
46
(
0
0
0
0
0
0
0
0
0
0
0
0
0
0
0
-0.0168516
-0.0218966
-0.0294399
-0.0695567
-0.0607931
-0.0897578
-0.164333
-0.119293
-0.172456
-0.204488
-0.214176
-0.216629
-0.245298
-0.406554
-0.333266
-0.310083
-0.2346
-0.170849
-0.0261682
0
-0.00451353
-0.0303489
-0.0598721
-0.0823222
-0.0362048
-0.00954857
0
0
0
-0.000632271
0
)
;
    }
    defaultFaces
    {
        type            empty;
    }
}


// ************************************************************************* //
