/*--------------------------------*- C++ -*----------------------------------*\
| =========                 |                                                 |
| \\      /  F ield         | foam-extend: Open Source CFD                    |
|  \\    /   O peration     | Version:     4.1                                |
|   \\  /    A nd           | Web:         http://www.foam-extend.org         |
|    \\/     M anipulation  |                                                 |
\*---------------------------------------------------------------------------*/
FoamFile
{
    version     2.0;
    format      ascii;
    class       surfaceScalarField;
    location    "0.75";
    object      phi;
}
// * * * * * * * * * * * * * * * * * * * * * * * * * * * * * * * * * * * * * //

dimensions      [0 3 -1 0 0 0 0];

internalField   nonuniform List<scalar> 
4432
(
-6.02796e-06
6.02796e-06
-1.33983e-05
7.37037e-06
-1.66626e-05
3.26427e-06
-1.09309e-05
-5.73169e-06
-1.10938e-05
1.62864e-07
-1.08312e-05
-2.62585e-07
-1.10547e-05
2.23531e-07
-1.04396e-05
-6.15085e-07
-1.02792e-05
-1.60382e-07
-9.09957e-06
-1.17967e-06
-5.87748e-06
-3.22209e-06
-7.26683e-06
1.38935e-06
-5.57808e-06
-1.68874e-06
-3.94494e-06
-1.63315e-06
-1.94881e-06
-1.99613e-06
-2.70445e-07
-1.67836e-06
1.3456e-06
-1.61605e-06
2.1272e-06
-7.81593e-07
2.38737e-06
-2.60172e-07
6.09531e-06
-3.70794e-06
4.84553e-06
1.24978e-06
3.09025e-06
1.75528e-06
3.09025e-06
-2.55242e-06
8.58039e-06
-6.60165e-06
1.14196e-05
-8.50428e-06
5.1669e-06
-1.06142e-05
-3.62179e-06
-1.09131e-05
4.61808e-07
-1.0727e-05
-4.48675e-07
-1.08297e-05
3.26185e-07
-9.77285e-06
-1.67191e-06
-8.94557e-06
-9.87657e-07
-7.07972e-06
-3.04551e-06
-8.74999e-06
-1.55183e-06
-6.43697e-06
-9.23667e-07
-5.52609e-06
-2.59962e-06
-3.60415e-06
-3.55509e-06
-6.19567e-07
-4.98071e-06
1.22222e-06
-3.52015e-06
3.58104e-06
-3.97487e-06
4.79279e-06
-1.99334e-06
5.43462e-06
-9.02e-07
3.19456e-06
-1.46788e-06
4.1636e-06
2.80739e-07
4.21664e-06
1.70225e-06
7.30689e-06
-6.27565e-06
1.4856e-05
-7.09713e-06
1.22411e-05
-8.90253e-06
6.9723e-06
-1.07466e-05
-1.77767e-06
-1.08084e-05
5.23517e-07
-1.04887e-05
-7.68324e-07
-1.05528e-05
3.90278e-07
-9.71653e-06
-2.50818e-06
-9.42066e-06
-1.28353e-06
-7.97475e-06
-4.49142e-06
-1.06036e-05
1.077e-06
-9.42916e-06
-2.09809e-06
-9.49056e-06
-2.53822e-06
-7.83926e-06
-5.20638e-06
-5.9427e-06
-6.87727e-06
-9.99827e-07
-8.46302e-06
1.16535e-06
-6.14004e-06
2.77977e-06
-3.60776e-06
4.93271e-06
-3.05494e-06
6.90926e-06
-3.44443e-06
5.86123e-06
1.32877e-06
3.90675e-06
3.65673e-06
1.12136e-05
-7.70011e-06
2.25561e-05
-7.89693e-06
1.24379e-05
-9.34769e-06
8.42306e-06
-1.06372e-05
-4.88119e-07
-1.07359e-05
6.22209e-07
-1.08594e-05
-6.44841e-07
-1.14115e-05
9.42388e-07
-1.0368e-05
-3.55171e-06
-9.13413e-06
-2.51738e-06
-1.61587e-05
2.53317e-06
-1.59948e-05
9.13085e-07
-1.64452e-05
-1.64769e-06
-1.60636e-05
-2.91983e-06
-1.43133e-05
-6.95667e-06
-1.18681e-05
-9.32249e-06
-7.90343e-06
-1.24277e-05
-3.94657e-06
-1.00969e-05
-1.26999e-06
-6.28434e-06
7.73184e-07
-5.09811e-06
3.99421e-06
-6.66546e-06
5.13927e-06
1.83719e-07
2.30808e-06
6.48792e-06
1.35217e-05
-4.88875e-06
2.74449e-05
-8.37375e-06
1.59229e-05
-9.87689e-06
9.9262e-06
-1.1041e-05
6.75985e-07
-1.13387e-05
9.19944e-07
-1.16644e-05
-3.19208e-07
-1.15526e-05
8.30582e-07
-1.99814e-05
4.87718e-06
-1.97258e-05
-2.77301e-06
-2.05023e-05
3.30965e-06
-2.13886e-05
1.79942e-06
-2.10297e-05
-2.00665e-06
-2.01568e-05
-3.79266e-06
-1.98797e-05
-7.23383e-06
-1.76742e-05
-1.1528e-05
-1.40576e-05
-1.60442e-05
-1.04279e-05
-1.37266e-05
-7.70145e-06
-9.01078e-06
-3.84592e-06
-8.95364e-06
1.06944e-06
-1.15808e-05
3.49906e-06
-2.2459e-06
1.25087e-06
8.7361e-06
1.47726e-05
-5.24592e-06
3.26908e-05
-9.43782e-06
2.01148e-05
-1.05228e-05
1.10112e-05
-1.11735e-05
1.32672e-06
-1.11334e-05
8.79806e-07
-1.15233e-05
7.07319e-08
-1.30911e-05
2.39833e-06
-1.35166e-05
5.30267e-06
-2.37633e-05
7.4737e-06
-2.41041e-05
3.65053e-06
-2.55287e-05
3.22402e-06
-2.5237e-05
-2.29844e-06
-2.42365e-05
-4.79308e-06
-2.15841e-05
-9.88624e-06
-1.96478e-05
-1.34643e-05
-1.70861e-05
-1.86059e-05
-1.35641e-05
-1.72487e-05
-5.29497e-06
-1.72799e-05
-2.89659e-06
-1.1352e-05
6.1917e-08
-1.45393e-05
6.97313e-06
-9.15711e-06
7.90803e-06
7.8012e-06
2.26806e-05
-6.78071e-06
3.94715e-05
-2.25131e-05
3.58472e-05
-2.52944e-05
1.37925e-05
-2.57562e-05
1.78844e-06
-2.69617e-05
2.0854e-06
-2.82872e-05
1.3962e-06
-2.91652e-05
3.27636e-06
-2.83279e-05
4.46531e-06
-2.79005e-05
7.04636e-06
-2.75951e-05
3.34508e-06
-2.70012e-05
2.63013e-06
-2.58639e-05
-3.43572e-06
-2.49388e-05
-5.71819e-06
-2.36597e-05
-1.11654e-05
-2.03822e-05
-1.67418e-05
-1.66489e-05
-2.23391e-05
-1.41846e-05
-1.9713e-05
-1.21789e-05
-1.92856e-05
-1.48637e-06
-2.20446e-05
1.68249e-06
-1.77082e-05
4.82771e-06
-1.23023e-05
1.00554e-05
2.57349e-06
3.2736e-05
-7.2582e-06
4.67297e-05
-1.40668e-05
4.26559e-05
-2.82327e-05
2.79583e-05
-2.92492e-05
2.80498e-06
-3.1946e-05
4.78216e-06
-3.33361e-05
2.78639e-06
-3.3991e-05
3.93121e-06
-3.22835e-05
2.75787e-06
-3.03553e-05
5.11812e-06
-2.89878e-05
1.97761e-06
-2.75945e-05
1.23681e-06
-2.66754e-05
-4.35478e-06
-2.61016e-05
-6.29207e-06
-2.39107e-05
-1.33562e-05
-2.13121e-05
-1.93404e-05
-1.79562e-05
-2.5695e-05
-6.29838e-06
-3.13708e-05
-4.56368e-06
-2.10203e-05
-7.914e-07
-2.58168e-05
3.93949e-06
-2.24391e-05
1.75192e-05
-2.5882e-05
1.99115e-05
1.81113e-07
5.26476e-05
-4.93401e-05
4.93401e-05
-0.000101217
5.1877e-05
-0.000130841
2.96242e-05
-0.000160196
2.93551e-05
-0.000162757
2.56093e-06
-0.000159449
-3.30821e-06
-0.000163481
4.03164e-06
-0.000172661
9.17997e-06
-0.000183445
1.07843e-05
-0.000187414
3.96907e-06
-0.000188893
1.47879e-06
-0.000185912
-2.98067e-06
-0.000196991
1.10783e-05
-0.000185931
-1.10592e-05
-0.000122444
-6.34876e-05
-9.77126e-05
-2.47311e-05
-0.000129305
3.15924e-05
-7.07527e-05
-5.85523e-05
-7.07527e-05
-4.3938e-05
9.32781e-05
-9.03933e-05
9.83322e-05
-0.000111739
5.09695e-05
-0.000129911
4.75271e-05
-0.000133095
5.74519e-06
-0.000143641
7.23762e-06
-0.000153665
1.40558e-05
-0.0001605
1.60153e-05
-0.000170125
2.04092e-05
-0.00017337
7.2137e-06
-0.000186703
1.4812e-05
-0.000190273
5.89785e-07
-0.000130232
-4.89626e-05
-0.000128372
-1.29195e-05
-0.000129285
-6.25745e-05
-0.000102047
-5.19694e-05
-7.04012e-05
-5.32287e-08
-6.88812e-05
-6.00724e-05
-0.000139634
-4.18533e-05
0.000135131
-8.42276e-05
0.000140706
-9.27193e-05
5.94612e-05
-5.72264e-05
1.20341e-05
-8.13343e-05
2.98531e-05
-8.21299e-05
8.03314e-06
-9.32559e-05
2.51819e-05
-0.000109401
3.21608e-05
-0.000134231
4.52392e-05
-0.000142776
1.57583e-05
-0.000161265
3.33013e-05
-0.000166107
5.43113e-06
-0.000182628
-3.24411e-05
-0.000123369
-7.21786e-05
-0.00011991
-6.60336e-05
-9.71963e-05
-7.46829e-05
-6.52173e-05
-3.20322e-05
-4.75559e-05
-7.77339e-05
-0.00018719
-3.74878e-05
0.000172619
-7.03518e-05
0.00017357
-7.23962e-05
6.15056e-05
-7.88519e-05
1.84899e-05
-6.49969e-05
1.5998e-05
-4.68992e-05
-1.00646e-05
-2.55144e-05
3.79706e-06
-4.84428e-05
5.50892e-05
-6.8421e-05
6.52174e-05
-9.11315e-05
3.84689e-05
-7.0339e-05
1.25087e-05
-0.000111738
4.68306e-05
-0.000136888
-7.29158e-06
-0.000159465
-4.9602e-05
-9.74799e-05
-0.000128018
-0.000132935
-3.92278e-05
-5.27115e-05
-0.000112256
-4.08693e-05
-8.95762e-05
-0.000228059
-3.18197e-05
0.000204439
-4.7537e-05
0.000189288
-5.01365e-05
6.41051e-05
-5.33385e-05
2.16919e-05
-3.99653e-05
2.62479e-06
-2.07478e-05
-2.9282e-05
-3.74842e-06
-1.32023e-05
-8.79367e-06
6.01344e-05
-8.15527e-06
6.4579e-05
-3.42334e-05
6.4547e-05
-5.89186e-05
3.71938e-05
-8.14273e-05
6.93395e-05
-0.000113814
2.50947e-05
-7.49171e-05
-8.84984e-05
-8.2874e-05
-0.000120061
-6.33004e-05
-5.88015e-05
-4.48257e-05
-0.00013073
-1.57655e-05
-0.000118637
-0.000243824
-2.60143e-05
0.000230453
-3.53947e-05
0.000198668
-3.63793e-05
6.50897e-05
-3.83105e-05
2.36232e-05
-2.37216e-05
-1.19641e-05
-4.24491e-06
-4.87588e-05
3.81902e-06
-2.12663e-05
7.72974e-06
5.62237e-05
2.62422e-05
4.60665e-05
3.42463e-05
5.6543e-05
-9.35837e-07
7.23759e-05
-2.61092e-05
9.45129e-05
-1.75212e-05
1.65066e-05
-3.39286e-05
-7.2091e-05
-3.44536e-05
-0.000119536
-3.58316e-05
-5.74235e-05
-2.60687e-05
-0.000140493
-1.28601e-05
-0.000131845
-0.000256685
-2.15337e-05
0.000251987
-1.97788e-05
0.000196913
-1.56646e-05
6.09755e-05
-1.4181e-05
2.21396e-05
3.50379e-06
-2.96489e-05
1.74057e-05
-6.26608e-05
1.13587e-05
-1.52192e-05
2.84111e-05
3.91712e-05
3.90018e-05
3.54758e-05
4.73204e-05
4.82244e-05
3.1634e-05
8.80623e-05
3.59662e-05
9.01807e-05
3.82401e-05
1.42328e-05
1.17106e-05
-4.55615e-05
-1.41387e-05
-9.36869e-05
-1.69744e-05
-5.45878e-05
-2.63334e-05
-0.000131134
-7.1115e-06
-0.000151067
-0.000263796
-1.86342e-05
0.000270621
-6.16482e-06
0.000184444
5.07129e-06
4.97393e-05
7.36158e-06
1.98492e-05
1.59414e-05
-3.82288e-05
2.05028e-05
-6.72222e-05
2.27386e-05
-1.7455e-05
4.20523e-05
1.98575e-05
4.48611e-05
3.2667e-05
3.25046e-05
6.05809e-05
3.0007e-05
9.05599e-05
5.97301e-05
6.04576e-05
6.28377e-05
1.11253e-05
4.94059e-05
-3.21298e-05
3.33871e-05
-7.7668e-05
1.15365e-05
-3.27372e-05
-2.98144e-06
-0.000116616
3.68617e-06
-0.000157735
-0.00026011
-1.87678e-05
6.54975e-05
-3.47938e-05
5.86819e-05
-4.43192e-05
3.74837e-05
-7.1042e-05
2.95278e-05
-7.3047e-05
6.78715e-06
-7.64388e-05
6.17815e-06
-7.54979e-05
2.99033e-06
-6.92543e-05
-3.48573e-06
-6.42865e-05
1.50351e-07
-5.98123e-05
-2.49666e-06
-5.58747e-05
-2.7008e-06
-5.24153e-05
-7.81414e-06
-5.03884e-05
-8.31894e-06
-5.16287e-05
-1.21159e-05
-4.61558e-05
-2.48133e-05
-3.86192e-05
-3.32316e-05
-2.85022e-05
-4.14878e-05
-8.06128e-06
-4.14613e-05
3.74133e-06
-3.76194e-05
2.28328e-05
-4.15306e-05
2.3464e-05
-2.65131e-05
2.69458e-05
-3.30074e-06
2.8749e-05
5.08443e-05
-2.82018e-05
9.36992e-05
-4.47909e-05
7.52711e-05
-4.18581e-05
3.45509e-05
-3.91342e-05
2.68039e-05
-7.15988e-05
3.92517e-05
-7.42081e-05
8.78746e-06
-7.24124e-05
1.19466e-06
-6.33676e-05
-1.25305e-05
-5.94742e-05
-3.74306e-06
-5.51181e-05
-6.85282e-06
-5.58924e-05
-1.92648e-06
-5.56778e-05
-8.02877e-06
-5.31566e-05
-1.08401e-05
-5.12375e-05
-1.40351e-05
-5.45452e-05
-2.15056e-05
-5.01343e-05
-3.76425e-05
-3.05964e-05
-6.10258e-05
-2.7869e-05
-4.41887e-05
1.75454e-05
-8.30337e-05
1.50296e-05
-3.90148e-05
2.10924e-05
-3.2576e-05
2.48826e-05
-7.09087e-06
4.44639e-05
9.16768e-06
-2.75584e-05
0.000121258
-3.89725e-05
8.66852e-05
-7.58644e-05
7.14428e-05
-8.25762e-05
3.35158e-05
-5.04312e-05
7.10672e-06
-4.50676e-05
3.42386e-06
-4.20305e-05
-1.84248e-06
-5.66449e-05
2.08393e-06
-5.58574e-05
-4.53058e-06
-5.82437e-05
-4.46646e-06
-4.21857e-05
-1.79846e-05
-6.24875e-05
1.22731e-05
-6.70735e-05
-6.25407e-06
-8.44362e-05
3.32763e-06
-0.000101268
-4.67429e-06
-9.9685e-05
-3.92251e-05
-8.90056e-05
-7.17051e-05
-4.12863e-05
-9.1908e-05
-6.27612e-05
-6.15588e-05
-3.96873e-05
-6.20887e-05
-5.02596e-05
-2.20038e-05
-9.55982e-05
3.82477e-05
9.32869e-05
-0.000144421
-3.55544e-05
0.000156812
-5.97241e-05
0.000110855
-6.38656e-05
7.55842e-05
-6.89006e-05
3.85507e-05
-5.74986e-05
-4.29525e-06
-5.93932e-05
5.31841e-06
-5.79244e-05
-3.31126e-06
-6.62544e-05
1.04139e-05
-6.01651e-05
-1.06199e-05
-6.01286e-05
-4.50296e-06
-7.33458e-05
-4.76738e-06
-6.50499e-05
3.97726e-06
-8.41112e-05
1.28072e-05
-8.6335e-05
5.5515e-06
-0.000108228
1.72186e-05
-0.000131755
-1.56981e-05
-0.000145848
-5.76117e-05
-0.000187115
-5.06412e-05
-0.000224011
-2.46635e-05
-0.000248276
-3.78236e-05
-0.000254601
-1.56781e-05
-0.00024842
3.20664e-05
5.50152e-05
-0.000210148
-2.81597e-05
0.000184972
-4.77482e-05
0.000130443
-2.2156e-05
4.9992e-05
-3.19223e-05
4.8317e-05
-5.21241e-05
1.59066e-05
-9.18577e-05
4.50521e-05
-0.000102392
7.22353e-06
-0.000102674
1.06952e-05
-0.000113007
-2.86965e-07
-0.000119607
2.09746e-06
-0.000124279
-9.55146e-08
-0.000119765
-5.37067e-07
-0.000110685
3.72762e-06
-0.000107514
2.38082e-06
-8.98444e-05
-4.51249e-07
-0.000105056
-4.86741e-07
-0.000160792
-1.87503e-06
-0.000205791
-5.64252e-06
-0.000225838
-4.61688e-06
-0.000254271
-9.39036e-06
-0.000254667
-1.52816e-05
-0.000245419
2.28176e-05
3.61794e-05
-0.000226583
-7.36009e-06
0.000192332
1.60153e-06
0.000121482
8.44899e-06
4.31446e-05
2.19388e-05
3.48272e-05
-1.20232e-05
4.98685e-05
-5.83948e-05
9.14237e-05
-0.000162422
0.000111251
-0.000250895
9.91685e-05
-0.000308068
5.68858e-05
-0.000325361
1.93908e-05
-0.000322519
-2.93737e-06
-0.000313756
-9.29981e-06
-0.000298684
-1.13445e-05
-0.000284187
-1.21165e-05
-0.00027203
-1.26081e-05
-0.000258263
-1.42536e-05
-0.000250423
-9.71492e-06
-0.000236837
-1.92285e-05
-0.000180019
-6.14355e-05
-0.000180491
-8.91809e-06
-0.000215666
1.98931e-05
-0.000194828
1.97989e-06
1.28901e-06
-0.000159938
1.71427e-06
0.000190618
5.03822e-05
7.28139e-05
1.25455e-05
8.09813e-05
-7.40321e-05
0.000121405
-0.000203522
0.000179359
-0.0003072
0.000195101
-0.000375893
0.000179944
-0.000400392
0.000123668
-0.000400332
5.68261e-05
-0.000394867
1.3925e-05
-0.000388529
-9.27542e-06
-0.000377196
-2.06327e-05
-0.000364901
-2.36388e-05
-0.000335844
-4.11737e-05
-0.000305132
-4.33205e-05
-0.000278546
-4.08399e-05
-0.000270722
-1.75389e-05
-0.00025795
-3.19999e-05
-0.000249923
-6.94625e-05
-0.000244724
-1.41171e-05
-0.000232848
8.01651e-06
-0.000235506
4.63807e-06
6.27465e-06
-0.000240491
5.6084e-06
0.000185009
5.56139e-06
7.28609e-05
-9.14623e-05
0.000178005
-0.000214428
0.000244371
-0.000272095
0.000237026
-0.00032155
0.000244555
-0.000336565
0.000194959
-0.000326375
0.000113478
-0.000324897
5.53481e-05
-0.000336479
2.5507e-05
-0.000353395
7.64051e-06
-0.000354477
-1.95506e-05
-0.000343686
-3.44298e-05
-0.000323896
-6.09638e-05
-0.00032555
-4.16673e-05
-0.000299614
-6.67754e-05
-0.000231776
-8.53765e-05
-0.000206813
-5.69636e-05
-0.000257768
-1.85067e-05
-0.00026009
-1.17956e-05
-0.000274961
2.28871e-05
-0.000290355
2.00323e-05
1.0876e-05
-0.000294956
-4.05442e-05
0.000225554
-0.00011125
0.000143567
-0.000215764
0.000282519
-0.000279891
0.000308498
-0.000239695
0.00019683
-0.000257253
0.000262113
-0.000233867
0.000171573
-0.000195868
7.5479e-05
-0.000195042
5.4523e-05
-0.000223321
5.37858e-05
-0.000275011
5.93301e-05
-0.000320481
2.59198e-05
-0.000338305
-1.66061e-05
-0.000339312
-5.99569e-05
-0.000336933
-4.40467e-05
-0.000323675
-8.00326e-05
-0.000352399
-5.66526e-05
-0.000346216
-6.31467e-05
-0.000319785
-4.49376e-05
-0.000291893
-3.9688e-05
-0.000217057
-5.19489e-05
-0.000197405
3.80613e-07
3.55815e-05
-0.000222111
-9.0775e-05
0.000316329
-0.000163901
0.000216692
-0.000200571
0.000319189
-0.000218568
0.000326495
-0.000206268
0.00018453
-0.000173577
0.000229422
-0.000130501
0.000128497
-9.83857e-05
4.33639e-05
-9.95916e-05
5.57289e-05
-0.000133747
8.79413e-05
-0.000175832
0.000101415
-0.000206388
5.64756e-05
-0.000235088
1.20935e-05
-0.000286855
-8.1893e-06
-0.000310086
-2.08158e-05
-0.000340485
-4.96339e-05
-0.000347097
-5.00404e-05
-0.00034109
-6.91542e-05
-0.000344364
-4.16633e-05
-0.000339374
-4.4678e-05
-0.000346111
-4.52115e-05
-0.000324189
-2.15415e-05
-1.86222e-05
-0.000269985
-8.99971e-05
0.000406326
-0.000127923
0.000254619
-0.000102168
0.000293434
-9.54196e-05
0.000319747
-0.000148286
0.000237397
-8.40214e-05
0.000165157
-4.20319e-05
8.65074e-05
-4.01509e-05
4.14829e-05
-8.37056e-05
9.92836e-05
-0.000179378
0.000183613
-0.00022358
0.000145617
-0.000255101
8.79966e-05
-0.000283452
4.04441e-05
-0.000288246
-3.39487e-06
-0.000265969
-4.30932e-05
-0.000254993
-6.06098e-05
-0.000257565
-4.74682e-05
-0.000283064
-4.36551e-05
-0.000290441
-3.42868e-05
-0.000290373
-4.47459e-05
-0.00030532
-3.02644e-05
-0.000299536
-2.73252e-05
-4.23012e-05
-0.000275857
-4.24976e-05
0.000448823
-0.000138201
0.000350322
-0.000150517
0.00030575
-0.000111503
0.000280732
-3.98754e-05
0.00016577
-4.56875e-06
0.00012985
2.02443e-05
6.16945e-05
-3.50516e-05
9.67789e-05
-0.000137928
0.00020216
-0.000187366
0.000233052
-0.000202444
0.000160696
-0.000204924
9.04765e-05
-0.000187374
2.28938e-05
-0.000159324
-3.14454e-05
-0.000138804
-6.3613e-05
-0.000122509
-7.69046e-05
-0.000109224
-6.07534e-05
-9.0228e-05
-6.26511e-05
-7.73108e-05
-4.7204e-05
-8.14457e-05
-4.0611e-05
-8.4143e-05
-2.75671e-05
-8.78756e-05
-2.35927e-05
-2.49791e-05
-0.000105198
-4.56487e-05
0.000494472
-0.000108966
0.000413639
-0.000109377
0.000306162
-4.91073e-05
0.000220462
-8.45969e-07
0.000117509
6.07479e-05
6.82567e-05
3.51081e-05
8.73344e-05
-1.36155e-06
0.000133249
-9.41195e-05
0.000294918
-0.000132633
0.000271565
-0.00014472
0.000172783
-0.000131352
7.71085e-05
-0.000117542
9.08336e-06
-0.000112322
-3.66656e-05
-0.000120702
-5.52325e-05
-0.000126119
-7.1488e-05
-7.27656e-05
-0.000114107
-5.31289e-05
-8.22877e-05
-4.93862e-05
-5.09468e-05
-5.2109e-05
-3.78882e-05
-4.99495e-05
-2.97266e-05
-5.14117e-05
-2.21304e-05
-1.63794e-05
-6.00114e-05
-3.25819e-05
0.000527054
-5.85505e-05
0.000439608
-4.55649e-05
0.000293176
-1.33408e-05
0.000188238
2.8771e-05
7.5397e-05
6.18868e-05
3.51409e-05
2.54423e-05
0.000123779
-3.23362e-05
0.000191027
-7.87151e-05
0.000341297
-0.000107687
0.000300537
-0.000113841
0.000178937
-0.000112173
7.54407e-05
-0.00012368
2.05903e-05
-0.000128007
-3.23388e-05
-0.000113306
-6.99338e-05
-8.10721e-05
-0.000103721
-9.50332e-05
-0.000100146
-0.000108345
-6.89759e-05
-0.000112034
-4.72578e-05
-0.000138192
-1.17298e-05
-0.000162468
-5.45132e-06
-0.000170912
-1.3687e-05
-3.07101e-05
-0.000156581
-3.07501e-05
0.000557804
-5.03213e-05
0.000459179
-3.43458e-05
0.0002772
-1.24982e-05
0.00016639
1.85108e-05
4.43878e-05
2.70835e-05
2.65682e-05
2.4342e-05
0.00012652
-3.99792e-05
0.000255348
-3.95757e-05
0.000340893
-3.45338e-05
0.000295495
-3.1135e-05
0.000175538
-5.7482e-05
0.000101788
-6.43651e-05
2.74733e-05
-3.50551e-05
-6.16488e-05
-2.15957e-07
-0.000104773
-9.09428e-06
-9.48431e-05
-2.62455e-05
-8.29945e-05
-3.81735e-05
-5.7048e-05
-4.89013e-05
-3.653e-05
-4.28815e-05
-1.77497e-05
-3.84707e-05
-9.86218e-06
-3.47226e-05
-1.74351e-05
-2.67302e-05
-3.87026e-05
-2.80733e-05
0.000585877
-3.87718e-05
0.000469877
-2.65502e-05
0.000264979
-2.28022e-05
0.000162642
-2.39775e-05
4.5563e-05
-8.52938e-06
1.11198e-05
-1.75852e-06
0.000119749
-1.29284e-05
0.000266518
-1.23812e-05
0.000340346
-2.76035e-05
0.000310718
2.82005e-05
0.000119734
6.69352e-05
6.30529e-05
7.14239e-05
2.29846e-05
5.7495e-05
-4.772e-05
5.06695e-05
-9.79474e-05
1.62751e-05
-6.04488e-05
-1.45331e-05
-5.21863e-05
-3.2466e-05
-3.91152e-05
-3.94103e-05
-2.95858e-05
-3.11817e-05
-2.59783e-05
-9.23741e-06
-3.18065e-05
-8.81148e-06
-1.78611e-05
-1.6392e-05
-1.91497e-05
-2.58407e-05
0.000611718
-3.33115e-05
0.000477348
-3.87537e-05
0.000270421
-6.90597e-07
0.000124579
-2.79462e-05
7.28186e-05
-3.25367e-05
1.57102e-05
-9.92006e-06
9.71325e-05
1.20105e-05
0.000244587
4.07528e-05
0.000311604
7.19307e-05
0.00027954
6.57532e-05
0.000125912
7.40926e-05
5.47135e-05
0.000104226
-7.14919e-06
9.02365e-05
-3.37303e-05
3.24945e-05
-4.02054e-05
1.15637e-05
-3.95181e-05
-6.14035e-06
-3.44823e-05
-1.39229e-05
-3.13327e-05
-1.30442e-06
-4.22043e-05
-4.37106e-06
-2.29117e-05
-7.07321e-07
-3.54703e-05
1.74164e-06
-2.03101e-05
-1.87231e-05
4.07269e-06
-2.39817e-05
0.000635699
-2.4253e-05
0.000477619
-2.3252e-05
0.00026942
-3.56712e-05
0.000136998
-2.24878e-05
5.9635e-05
-3.68781e-05
3.01003e-05
-2.59146e-05
8.61689e-05
6.86375e-06
0.000211809
7.69678e-05
0.000241499
0.000136241
0.000220266
0.000109277
0.000152876
8.17186e-05
8.22716e-05
8.95324e-05
-1.49631e-05
8.23306e-05
-2.65286e-05
5.92152e-05
-1.70901e-05
3.83716e-05
-1.86745e-05
2.59181e-05
-2.20289e-05
1.72217e-05
-2.26364e-05
4.70234e-06
-2.9685e-05
6.10282e-06
-2.43122e-05
6.73729e-06
-3.61048e-05
2.29002e-05
-3.6473e-05
-2.41259e-05
2.8303e-05
-2.2332e-05
0.000658031
-2.75895e-05
0.000482877
-2.01537e-05
0.000261984
-8.88953e-05
0.00020574
-5.22521e-05
2.29917e-05
-4.92481e-05
2.70961e-05
-7.32401e-05
0.000110161
-3.96791e-05
0.000178247
4.9141e-05
0.000152679
0.00011979
0.000149616
0.000115217
0.000157448
0.000118481
7.90082e-05
8.21442e-05
2.13733e-05
4.53548e-05
1.02607e-05
3.59242e-05
-7.65964e-06
2.83907e-05
-1.11411e-05
2.96367e-05
-2.3275e-05
1.88051e-05
-1.18049e-05
1.86934e-05
-2.95733e-05
2.04326e-05
-2.60515e-05
1.86841e-05
-3.43563e-05
1.83231e-05
-3.6112e-05
-3.78592e-05
3.20563e-05
-1.45841e-05
0.000672616
-5.91339e-06
0.000474206
-4.14872e-06
0.000260219
-3.10107e-05
0.000232602
-6.05588e-05
5.25401e-05
-7.79086e-05
4.44459e-05
-8.50238e-05
0.000117276
-1.24519e-05
0.000105675
6.79255e-06
0.000133434
3.39123e-05
0.000122497
6.23823e-05
0.000128978
6.11005e-05
8.02899e-05
3.94521e-05
4.30216e-05
5.10418e-05
-1.32909e-06
4.75889e-05
-4.20681e-06
3.97299e-05
-3.28224e-06
3.37364e-05
-1.72815e-05
3.47273e-05
-1.27959e-05
3.51153e-05
-2.99613e-05
2.79884e-05
-1.89247e-05
3.07331e-05
-3.71009e-05
3.63985e-05
-4.17776e-05
-4.8696e-05
4.72353e-05
-1.03353e-05
0.000682951
3.37866e-06
0.000460492
4.85213e-05
0.000215076
1.17114e-07
0.000281007
-3.90223e-05
9.16796e-05
-3.51137e-05
4.05374e-05
-4.93201e-05
0.000131482
-3.11087e-05
8.74637e-05
-4.5925e-05
0.00014825
-6.47279e-05
0.000141299
-2.531e-06
6.6781e-05
1.42141e-05
6.35446e-05
2.74765e-05
2.9759e-05
2.68384e-05
-6.91085e-07
2.03851e-05
2.24638e-06
2.66726e-05
-9.56973e-06
2.57977e-05
-1.64067e-05
3.34131e-05
-2.04113e-05
2.01856e-05
-1.67339e-05
4.20082e-05
-4.07473e-05
3.39128e-05
-2.90057e-05
1.84942e-05
-2.6359e-05
-5.69196e-05
2.67177e-05
-8.4205e-06
0.000691371
2.95926e-05
0.000422479
1.18532e-05
0.000232816
-1.14504e-06
0.000294005
-2.02103e-05
0.000110745
-5.10087e-05
7.13358e-05
-6.57932e-05
0.000146266
-9.94722e-05
0.000121142
-4.8377e-05
9.71549e-05
-2.8612e-05
0.000121534
-2.56786e-05
6.38474e-05
-6.32754e-06
4.41934e-05
6.16738e-06
1.7264e-05
9.29292e-06
-3.8167e-06
1.99654e-05
-8.42616e-06
2.0347e-05
-9.9514e-06
2.33486e-05
-1.94084e-05
2.72846e-05
-2.43475e-05
2.78785e-05
-1.73278e-05
2.83072e-05
-4.11761e-05
4.17465e-05
-4.24449e-05
5.79601e-05
-4.25727e-05
-6.15481e-05
6.25886e-05
1.85574e-06
0.000689516
5.51527e-05
0.000369182
-7.80911e-06
0.000295778
-7.52164e-06
0.000293717
-2.4742e-05
0.000127965
-5.16523e-05
9.82458e-05
-7.0486e-05
0.0001651
-7.88228e-05
0.000129479
-0.000114576
0.000132908
-8.05053e-05
8.74627e-05
-5.01294e-05
3.34714e-05
-3.30089e-05
2.70728e-05
-2.33709e-05
7.626e-06
-1.18392e-05
-1.53486e-05
2.56954e-07
-2.05223e-05
4.19875e-06
-1.38933e-05
1.12787e-05
-2.64884e-05
1.67112e-05
-2.978e-05
3.64673e-05
-3.7084e-05
4.16471e-05
-4.63559e-05
4.25482e-05
-4.3346e-05
4.4458e-05
-4.44825e-05
-5.38459e-05
3.67557e-05
-5.50214e-06
0.000695018
5.66268e-05
0.000307054
3.41298e-06
0.000348992
3.79617e-06
0.000293334
-7.61928e-06
0.000139381
-3.25302e-05
0.000123156
-5.87857e-05
0.000191355
-8.22483e-05
0.000152941
-9.33642e-05
0.000144024
-8.862e-05
8.27184e-05
-7.45265e-05
1.93779e-05
-6.95833e-05
2.21295e-05
-6.13169e-05
-6.40478e-07
-3.86121e-05
-3.80534e-05
-1.6919e-05
-4.22155e-05
4.03634e-06
-3.48486e-05
1.94808e-05
-4.19329e-05
2.47247e-05
-3.50239e-05
3.26269e-05
-4.49863e-05
4.44736e-05
-5.82026e-05
5.11214e-05
-4.99939e-05
5.80231e-05
-5.13843e-05
-3.55436e-05
3.97208e-05
-1.11343e-05
0.000706152
2.30872e-06
0.00029361
4.77628e-05
0.000303538
1.98987e-05
0.000321198
-1.41787e-05
0.000173457
-6.94459e-05
0.000178423
-4.18558e-05
0.000163764
-5.63476e-05
0.000167433
-9.15736e-05
0.00017925
-6.32387e-05
5.43835e-05
-9.40693e-05
5.02084e-05
-8.49253e-05
1.29855e-05
-7.37679e-05
-1.1798e-05
-5.16679e-05
-6.01535e-05
-2.18672e-05
-7.20163e-05
-1.39188e-05
-4.27971e-05
3.59906e-06
-5.94507e-05
2.07473e-05
-5.21722e-05
3.68827e-05
-6.11217e-05
2.31704e-05
-4.44903e-05
2.56405e-05
-5.2464e-05
3.11857e-05
-5.69296e-05
-5.51764e-05
5.08185e-05
2.02033e-06
0.000704132
5.87816e-06
0.000289753
3.25711e-07
0.000309091
1.15604e-05
0.000309963
2.07371e-05
0.000164281
-8.32912e-06
0.000207489
-3.32712e-05
0.000188706
-7.2984e-05
0.000207145
-7.00617e-05
0.000176327
-0.000124743
0.000109065
-0.000119942
4.54072e-05
-0.000111295
4.33804e-06
-5.82649e-05
-6.48279e-05
-3.56884e-05
-8.273e-05
-2.55223e-05
-8.21824e-05
-1.55169e-05
-5.28025e-05
3.80619e-06
-7.87739e-05
1.38435e-06
-4.97504e-05
1.49926e-05
-7.473e-05
4.03824e-05
-6.98802e-05
3.68392e-05
-4.89208e-05
3.08681e-05
-5.09585e-05
-6.61264e-05
4.18181e-05
2.07748e-05
0.000683357
7.80257e-06
0.000302725
-2.25766e-05
0.000339469
5.5614e-05
0.000231773
1.70479e-05
0.000202847
1.38515e-06
0.000223151
-6.05708e-06
0.000196148
-9.35918e-05
0.00029468
-7.29892e-05
0.000155725
-9.32929e-05
0.000129369
-0.000106606
5.87202e-05
-6.93335e-05
-3.29344e-05
-9.36669e-05
-4.04945e-05
-6.37954e-05
-0.000112601
-5.03625e-05
-9.56153e-05
-1.95659e-05
-8.35992e-05
-1.40092e-05
-8.43306e-05
1.97739e-05
-8.35335e-05
3.52771e-05
-9.02331e-05
1.88344e-05
-5.34376e-05
2.66295e-05
-5.67158e-05
3.03519e-05
-5.46809e-05
-6.81562e-05
3.23816e-05
3.01701e-05
0.000653187
1.3457e-05
0.000319438
-2.05985e-06
0.000354986
-6.06346e-06
0.000235776
-3.61389e-05
0.000232922
-2.6396e-05
0.000213408
-2.4899e-05
0.000194651
-3.4368e-05
0.000304149
-3.30041e-05
0.000154361
-2.35989e-05
0.000119964
-6.95084e-05
0.00010463
-9.37192e-05
-8.72361e-06
-8.50875e-05
-4.91262e-05
-5.82615e-05
-0.000139427
-2.25328e-05
-0.000131344
-3.44948e-05
-7.16372e-05
-1.21845e-05
-0.000106641
2.09923e-06
-9.78172e-05
1.14422e-05
-9.95761e-05
4.05476e-05
-8.2543e-05
3.91244e-05
-5.52927e-05
4.86442e-05
-6.42007e-05
-5.48355e-05
3.53235e-05
3.80785e-05
0.000615108
1.25936e-05
0.000344922
-5.10892e-06
0.000372688
-3.53842e-05
0.000266051
-4.80346e-05
0.000245572
-3.54631e-05
0.000200837
-2.37483e-05
0.000182936
-3.21262e-06
0.000283613
-2.95098e-05
0.000180658
-5.60933e-05
0.000146547
-6.53471e-05
0.000113883
-8.77695e-05
1.36987e-05
-8.25844e-05
-5.43113e-05
-5.70326e-05
-0.000164979
-2.42168e-05
-0.00016416
-1.26945e-05
-8.31596e-05
-9.79513e-07
-0.000118356
1.37255e-05
-0.000112522
2.5659e-05
-0.00011151
2.73807e-05
-8.42647e-05
2.46733e-05
-5.25854e-05
5.07433e-05
-9.02707e-05
-5.43066e-05
5.02144e-05
8.2728e-05
0.00053238
3.94109e-05
0.000388239
1.27725e-05
0.000399327
-2.81046e-05
0.000306928
-4.18568e-05
0.000259324
-3.34683e-05
0.000192448
-1.7668e-05
0.000167135
7.97252e-05
0.000186219
6.48119e-06
0.000253902
-5.07934e-05
0.000203822
-5.74485e-05
0.000120539
-6.38685e-05
2.01188e-05
-5.1879e-05
-6.63008e-05
-2.98358e-05
-0.000187022
-1.21866e-05
-0.000181809
2.76836e-06
-9.81146e-05
-4.94446e-06
-0.000110643
1.27997e-05
-0.000130266
2.4487e-05
-0.000123197
3.01231e-05
-8.99009e-05
5.84185e-05
-8.08808e-05
5.05656e-05
-8.24178e-05
-5.83425e-05
5.46015e-05
4.00649e-05
0.000492315
3.91651e-05
0.000389139
3.50137e-05
0.000403479
6.45014e-06
0.000335492
-1.33697e-05
0.000279144
-1.44994e-05
0.000193578
8.59615e-06
0.00014404
4.29844e-05
0.000151831
4.09464e-05
0.00025594
1.97398e-05
0.000225028
4.04521e-05
9.98263e-05
2.3748e-05
3.68228e-05
1.47787e-05
-5.73315e-05
7.99282e-06
-0.000180237
2.98719e-06
-0.000176803
9.32768e-06
-0.000104455
4.68566e-05
-0.000148172
4.68399e-05
-0.00013025
3.42914e-05
-0.000110648
2.04431e-05
-7.60526e-05
2.87757e-05
-8.92134e-05
4.99272e-05
-0.000103569
-7.69535e-05
6.85382e-05
1.76305e-05
0.000474685
2.9322e-05
0.000377448
5.11383e-05
0.000381662
5.0221e-05
0.000336409
4.63355e-05
0.00028303
4.79155e-05
0.000191998
5.49963e-05
0.000136959
6.65278e-05
0.0001403
8.38791e-05
0.000238589
0.000137921
0.000170986
0.000121182
0.000116565
0.000111268
4.67373e-05
0.000105981
-5.20448e-05
3.5643e-05
-0.000109898
2.67375e-05
-0.000167898
7.30114e-05
-0.000150729
6.34464e-05
-0.000138607
2.20617e-05
-8.88651e-05
2.90599e-05
-0.000117647
7.19492e-05
-0.000118942
6.02372e-05
-7.75014e-05
2.95804e-05
-7.29125e-05
-0.00010647
5.90969e-05
7.80452e-06
0.000466881
4.79533e-06
0.000380457
3.9338e-05
0.00034712
6.31649e-05
0.000312582
8.59758e-05
0.000260219
9.7802e-05
0.000180172
8.97678e-05
0.000144993
7.90135e-05
0.000151054
0.000157045
0.000160557
0.000185207
0.000142824
0.000126656
0.000175117
0.000110396
6.29978e-05
0.000135625
-7.72747e-05
0.000138584
-0.000112857
9.66661e-05
-0.00012598
8.64781e-05
-0.000140541
3.43533e-05
-8.64823e-05
6.67817e-05
-0.000121293
6.36803e-05
-0.000114545
2.64463e-05
-8.17079e-05
5.8618e-05
-0.000109673
8.33803e-05
-9.76748e-05
-0.000112278
8.91877e-05
1.26728e-05
0.000454208
-1.4849e-06
0.000394615
3.33451e-05
0.00031229
7.8235e-05
0.000267692
0.000114146
0.000224308
0.000124154
0.000170163
0.000120609
0.000148538
0.00012566
0.000146004
0.000144693
0.000141524
0.000161007
0.00012651
0.000154409
0.000181715
0.0001633
5.4106e-05
0.000110913
-2.48874e-05
9.50704e-05
-9.70147e-05
5.34663e-05
-8.43755e-05
5.02428e-05
-0.000137317
9.88588e-05
-0.000135098
5.92735e-05
-8.17081e-05
5.66089e-05
-0.000111881
8.15324e-05
-0.000106631
7.7906e-05
-0.000106047
7.45573e-05
-9.43261e-05
-0.000122807
8.50871e-05
2.45683e-05
0.000429639
3.49201e-05
0.000384263
6.72332e-05
0.000279977
9.72712e-05
0.000237654
0.000112261
0.000209318
0.000114219
0.000168205
0.000110683
0.000152074
0.000114562
0.000142125
0.000119035
0.00013705
0.000132619
0.000112926
0.000160185
0.000154149
0.000185568
2.87229e-05
0.00016352
-2.83928e-06
0.000105187
-3.86818e-05
0.000149309
-0.000128497
0.000106464
-9.44724e-05
0.000100021
-0.000128655
9.25831e-05
-7.42705e-05
8.86222e-05
-0.00010792
4.78976e-05
-6.59068e-05
5.16172e-05
-0.000109766
3.55425e-05
-7.82514e-05
-0.000130274
4.3009e-05
5.99531e-05
0.000369686
9.65893e-05
0.000347627
0.000104839
0.000271727
0.00010879
0.000233703
0.000103018
0.000215091
8.8105e-05
0.000183118
7.44409e-05
0.000165738
9.01735e-05
0.000126393
0.000114086
0.000113138
9.56725e-05
0.00013134
0.00013504
0.000114782
0.00012052
4.32427e-05
0.000138247
-2.05667e-05
0.000177871
-7.83059e-05
0.000112982
-6.36079e-05
0.000119554
-0.000101045
6.14986e-05
-7.05988e-05
8.40614e-05
-9.68333e-05
4.35427e-05
-6.7401e-05
7.60402e-05
-9.84043e-05
3.61766e-05
-6.99027e-05
8.85036e-05
-0.000130578
-9.15239e-05
4.97536e-05
9.13236e-05
0.000278363
0.000133404
0.000305547
0.000125506
0.000279624
0.00011518
0.000244029
9.85876e-05
0.000231683
7.36086e-05
0.000208097
5.81104e-05
0.000181236
7.13306e-05
0.000113172
9.30442e-05
9.1424e-05
0.000118381
0.000106003
0.000140903
9.22601e-05
0.000119497
6.46494e-05
0.00010281
-3.88049e-06
0.000107576
-8.30712e-05