/*--------------------------------*- C++ -*----------------------------------*\
| =========                 |                                                 |
| \\      /  F ield         | foam-extend: Open Source CFD                    |
|  \\    /   O peration     | Version:     4.1                                |
|   \\  /    A nd           | Web:         http://www.foam-extend.org         |
|    \\/     M anipulation  |                                                 |
\*---------------------------------------------------------------------------*/
FoamFile
{
    version     2.0;
    format      ascii;
    class       surfaceScalarField;
    location    "0.75";
    object      phi_0;
}
// * * * * * * * * * * * * * * * * * * * * * * * * * * * * * * * * * * * * * //

dimensions      [0 3 -1 0 0 0 0];

internalField   nonuniform List<scalar> 
4432
(
-5.99793e-06
5.99793e-06
-1.33757e-05
7.37781e-06
-1.66786e-05
3.30285e-06
-1.09649e-05
-5.71369e-06
-1.11355e-05
1.70578e-07
-1.08751e-05
-2.60422e-07
-1.11006e-05
2.25563e-07
-1.0488e-05
-6.12647e-07
-1.03341e-05
-1.53878e-07
-9.1708e-06
-1.16329e-06
-5.95075e-06
-3.22005e-06
-7.38439e-06
1.43364e-06
-5.70835e-06
-1.67604e-06
-4.10079e-06
-1.60756e-06
-2.13469e-06
-1.9661e-06
-5.29465e-07
-1.60522e-06
1.0587e-06
-1.58816e-06
1.83398e-06
-7.75289e-07
2.20508e-06
-3.71101e-07
5.86154e-06
-3.65646e-06
4.70943e-06
1.15211e-06
3.02645e-06
1.68298e-06
3.02645e-06
-2.55802e-06
8.55595e-06
-6.60653e-06
1.14263e-05
-8.52195e-06
5.21828e-06
-1.06477e-05
-3.58793e-06
-1.09553e-05
4.78121e-07
-1.07714e-05
-4.44327e-07
-1.08788e-05
3.32985e-07
-9.82765e-06
-1.66377e-06
-9.0022e-06
-9.79337e-07
-7.14053e-06
-3.02495e-06
-8.86149e-06
-1.49909e-06
-6.54259e-06
-8.85262e-07
-5.64053e-06
-2.57809e-06
-3.73761e-06
-3.51048e-06
-7.92362e-07
-4.91135e-06
9.98695e-07
-3.39628e-06
3.26292e-06
-3.85239e-06
4.5137e-06
-2.02607e-06
5.10812e-06
-9.65514e-07
3.05127e-06
-1.59961e-06
4.01291e-06
1.9048e-07
4.15273e-06
1.54316e-06
7.17918e-06
-6.27978e-06
1.48357e-05
-7.10096e-06
1.22475e-05
-8.9194e-06
7.03672e-06
-1.0783e-05
-1.7243e-06
-1.08533e-05
5.48356e-07
-1.05348e-05
-7.62827e-07
-1.06016e-05
3.99862e-07
-9.7652e-06
-2.5002e-06
-9.47562e-06
-1.26891e-06
-8.03742e-06
-4.46316e-06
-1.07026e-05
1.16608e-06
-9.50794e-06
-2.07991e-06
-9.56935e-06
-2.51668e-06
-7.93956e-06
-5.14026e-06
-6.08499e-06
-6.76592e-06
-1.11634e-06
-8.36493e-06
9.68463e-07
-5.93719e-06
2.44406e-06
-3.50167e-06
4.52573e-06
-3.04718e-06
6.67595e-06
-3.74984e-06
5.73305e-06
1.13338e-06
3.85195e-06
3.42426e-06
1.10311e-05
-7.693e-06
2.25287e-05
-7.89702e-06
1.24515e-05
-9.36475e-06
8.50444e-06
-1.0676e-05
-4.13054e-07
-1.07781e-05
6.50457e-07
-1.09046e-05
-6.36339e-07
-1.14607e-05
9.5602e-07
-1.04198e-05
-3.54112e-06
-9.18603e-06
-2.50271e-06
-1.62385e-05
2.58928e-06
-1.60693e-05
9.9689e-07
-1.65341e-05
-1.61506e-06
-1.6168e-05
-2.88276e-06
-1.44256e-05
-6.88275e-06
-1.20011e-05
-9.1904e-06
-8.09997e-06
-1.2266e-05
-4.26678e-06
-9.77038e-06
-1.60317e-06
-6.16527e-06
4.55645e-07
-5.106e-06
3.71839e-06
-7.01258e-06
4.98711e-06
-1.3535e-07
2.27681e-06
6.13456e-06
1.33079e-05
-4.88088e-06
2.74096e-05
-8.36998e-06
1.59406e-05
-9.89117e-06
1.00256e-05
-1.10782e-05
7.73932e-07
-1.13855e-05
9.57783e-07
-1.17199e-05
-3.01957e-07
-1.1605e-05
8.41174e-07
-2.00609e-05
4.91479e-06
-1.9799e-05
-2.76465e-06
-2.05714e-05
3.36174e-06
-2.14637e-05
1.88911e-06
-2.11261e-05
-1.95263e-06
-2.0266e-05
-3.74287e-06
-2.00095e-05
-7.13921e-06
-1.78317e-05
-1.13682e-05
-1.42769e-05
-1.58208e-05
-1.07884e-05
-1.32589e-05
-8.09777e-06
-8.85591e-06
-4.28317e-06
-8.9206e-06
8.67419e-07
-1.21632e-05
3.40623e-06
-2.67416e-06
1.28847e-06
8.25232e-06
1.45964e-05
-5.23412e-06
3.26437e-05
-9.43328e-06
2.01398e-05
-1.05453e-05
1.11376e-05
-1.12253e-05
1.45399e-06
-1.1191e-05
9.23426e-07
-1.15694e-05
7.64237e-08
-1.31294e-05
2.40119e-06
-1.35662e-05
5.35163e-06
-2.38485e-05
7.51763e-06
-2.41792e-05
3.6924e-06
-2.56157e-05
3.32563e-06
-2.53431e-05
-2.22516e-06
-2.4361e-05
-4.72504e-06
-2.17424e-05
-9.75778e-06
-1.9829e-05
-1.32816e-05
-1.73418e-05
-1.8308e-05
-1.40434e-05
-1.65573e-05
-5.57455e-06
-1.73248e-05
-3.20562e-06
-1.12895e-05
-3.86707e-07
-1.49821e-05
6.83344e-06
-9.89431e-06
7.89353e-06
7.19223e-06
2.24899e-05
-6.75225e-06
3.9396e-05
-2.24754e-05
3.58629e-05
-2.53337e-05
1.3996e-05
-2.58356e-05
1.95587e-06
-2.70232e-05
2.11098e-06
-2.83658e-05
1.41904e-06
-2.92743e-05
3.3097e-06
-2.8432e-05
4.50933e-06
-2.80049e-05
7.0906e-06
-2.77086e-05
3.39608e-06
-2.71283e-05
2.74527e-06
-2.59922e-05
-3.36122e-06
-2.50725e-05
-5.6448e-06
-2.3814e-05
-1.10162e-05
-2.05843e-05
-1.65113e-05
-1.68986e-05
-2.19937e-05
-1.47437e-05
-1.87122e-05
-1.27922e-05
-1.92763e-05
-1.84313e-06
-2.22386e-05
1.49254e-06
-1.83178e-05
4.74784e-06
-1.31496e-05
1.00779e-05
1.8622e-06
3.25678e-05
-7.23088e-06
4.66269e-05
-1.40436e-05
4.26757e-05
-2.82212e-05
2.81735e-05
-2.92704e-05
3.00509e-06
-3.19984e-05
4.83904e-06
-3.34536e-05
2.87423e-06
-3.41474e-05
4.00351e-06
-3.24555e-05
2.81744e-06
-3.05204e-05
5.15551e-06
-2.91505e-05
2.02612e-06
-2.77598e-05
1.35461e-06
-2.68153e-05
-4.30577e-06
-2.62282e-05
-6.23184e-06
-2.4049e-05
-1.31954e-05
-2.14912e-05
-1.90691e-05
-1.82608e-05
-2.52241e-05
-6.57652e-06
-3.03965e-05
-4.86369e-06
-2.09892e-05
-1.19062e-06
-2.59116e-05
3.31748e-06
-2.28259e-05
1.73323e-05
-2.71644e-05
1.9997e-05
-8.02497e-07
5.25648e-05
-4.96184e-05
4.96184e-05
-0.000101662
5.20436e-05
-0.000130473
2.88108e-05
-0.000159633
2.91606e-05
-0.000161886
2.25312e-06
-0.0001585
-3.38634e-06
-0.000162276
3.7758e-06
-0.000171174
8.89795e-06
-0.000182292
1.11178e-05
-0.000187029
4.73733e-06
-0.00018901
1.9809e-06
-0.000185307
-3.70258e-06
-0.000195469
1.01619e-05
-0.000184525
-1.09446e-05
-0.000122561
-6.19633e-05
-9.81046e-05
-2.44567e-05
-0.000130271
3.21663e-05
-7.14555e-05
-5.88155e-05
-7.14555e-05
-4.4051e-05
9.36694e-05
-9.04111e-05
9.84037e-05
-0.000111134
4.95333e-05
-0.000128896
4.69226e-05
-0.000131856
5.21331e-06
-0.000142164
6.92169e-06
-0.000151782
1.33937e-05
-0.000158413
1.5529e-05
-0.000168604
2.13087e-05
-0.000172522
8.65576e-06
-0.000185801
1.52592e-05
-0.000189229
-2.74021e-07
-0.000129399
-4.96679e-05
-0.000127847
-1.24967e-05
-0.000129147
-6.06631e-05
-0.000102527
-5.10768e-05
-7.09405e-05
5.79639e-07
-6.94882e-05
-6.02679e-05
-0.000140944
-4.21669e-05
0.000135836
-8.46044e-05
0.000140841
-9.29362e-05
5.78651e-05
-5.71192e-05
1.11056e-05
-8.04193e-05
2.85134e-05
-8.04372e-05
6.93962e-06
-9.10749e-05
2.40314e-05
-0.000107228
3.16824e-05
-0.000132493
4.65738e-05
-0.000141867
1.80297e-05
-0.000159949
3.33413e-05
-0.00016495
4.7265e-06
-0.000181943
-3.2675e-05
-0.000123238
-7.1201e-05
-0.000120126
-6.37752e-05
-9.77572e-05
-7.3446e-05
-6.58939e-05
-3.12837e-05
-4.84418e-05
-7.77199e-05
-0.000189385
-3.77445e-05
0.000173581
-7.04584e-05
0.000173555
-7.24637e-05
5.98704e-05
-7.90452e-05
1.76872e-05
-6.48213e-05
1.42894e-05
-4.59579e-05
-1.19237e-05
-2.47544e-05
2.82787e-06
-4.6783e-05
5.37109e-05
-6.67607e-05
6.65516e-05
-8.98693e-05
4.11383e-05
-6.9219e-05
1.2691e-05
-0.000110832
4.63391e-05
-0.000136434
-7.07238e-06
-0.000159666
-4.79697e-05
-9.84857e-05
-0.000124955
-0.000133958
-3.79742e-05
-5.36581e-05
-0.000111583
-4.26673e-05
-8.87108e-05
-0.000232053
-3.19768e-05
0.000205558
-4.74802e-05
0.000189059
-5.01431e-05
6.25334e-05
-5.33322e-05
2.08763e-05
-3.97318e-05
6.88949e-07
-2.04967e-05
-3.11588e-05
-3.37887e-06
-1.429e-05
-8.16474e-06
5.84968e-05
-7.08819e-06
6.5475e-05
-3.20391e-05
6.60892e-05
-5.77886e-05
3.84405e-05
-8.09007e-05
6.94512e-05
-0.000114049
2.60762e-05
-7.60972e-05
-8.59217e-05
-8.48372e-05
-0.000116215
-6.45806e-05
-5.82308e-05
-4.5999e-05
-0.000130165
-1.6476e-05
-0.000118234
-0.000248529
-2.61357e-05
0.000231693
-3.5732e-05
0.000198655
-3.70133e-05
6.38147e-05
-3.89949e-05
2.28579e-05
-2.34853e-05
-1.48207e-05
-3.71229e-06
-5.09318e-05
4.69138e-06
-2.26936e-05
8.14322e-06
5.5045e-05
2.70576e-05
4.65606e-05
3.52942e-05
5.78525e-05
-6.59802e-07
7.43945e-05
-2.70102e-05
9.58015e-05
-1.95021e-05
1.85682e-05
-3.73449e-05
-6.80789e-05
-3.54319e-05
-0.000118128
-3.67989e-05
-5.68638e-05
-2.69014e-05
-0.000140062
-1.37316e-05
-0.000131404
-0.00026226
-2.16166e-05
0.00025331
-2.01085e-05
0.000197147
-1.61417e-05
5.9848e-05
-1.45053e-05
2.12215e-05
3.64646e-06
-3.29724e-05
1.78355e-05
-6.51208e-05
1.1817e-05
-1.66751e-05
2.8738e-05
3.8124e-05
3.91627e-05
3.61359e-05
4.76527e-05
4.93625e-05
3.22327e-05
8.98145e-05
3.59207e-05
9.21135e-05
3.80759e-05
1.6413e-05
1.14737e-05
-4.14768e-05
-1.48893e-05
-9.1765e-05
-1.77542e-05
-5.39989e-05
-2.70982e-05
-0.000130718
-7.65477e-06
-0.000150847
-0.000269915
-1.86637e-05
0.000271974
-6.38754e-06
0.000184871
4.55556e-06
4.89049e-05
7.13152e-06
1.86455e-05
1.59864e-05
-4.18273e-05
2.05923e-05
-6.97266e-05
2.30304e-05
-1.91133e-05
4.21586e-05
1.89958e-05
4.46965e-05
3.35981e-05
3.2538e-05
6.15209e-05
3.02593e-05
9.20933e-05
6.00517e-05
6.23211e-05
6.34478e-05
1.30169e-05
5.00666e-05
-2.80956e-05
3.31902e-05
-7.48885e-05
1.05735e-05
-3.13822e-05
-3.22294e-06
-0.000116922
3.01568e-06
-0.000157086
-0.000266899
-1.87692e-05
6.5396e-05
-3.47781e-05
5.86846e-05
-4.43515e-05
3.7747e-05
-7.11173e-05
2.97708e-05
-7.32112e-05
6.93303e-06
-7.67149e-05
6.37784e-06
-7.58658e-05
3.15444e-06
-6.97024e-05
-3.34595e-06
-6.47195e-05
1.7256e-07
-6.01706e-05
-2.52272e-06
-5.61259e-05
-2.69007e-06
-5.26402e-05
-7.79148e-06
-5.0634e-05
-8.23808e-06
-5.18298e-05
-1.19996e-05
-4.64459e-05
-2.4453e-05
-3.8834e-05
-3.2836e-05
-3.00372e-05
-3.91933e-05
-9.50826e-06
-4.15181e-05
2.62476e-06
-3.80447e-05
2.14175e-05
-4.16186e-05
2.32382e-05
-2.89851e-05
2.71314e-05
-4.69574e-06
2.84489e-05
5.12473e-05
-2.83593e-05
9.37553e-05
-4.49996e-05
7.53249e-05
-4.20091e-05
3.47565e-05
-3.92596e-05
2.70214e-05
-7.20377e-05
3.97111e-05
-7.4798e-05
9.13815e-06
-7.30752e-05
1.43161e-06
-6.38982e-05
-1.2523e-05
-5.99029e-05
-3.82275e-06
-5.53798e-05
-7.04582e-06
-5.60514e-05
-2.0184e-06
-5.56443e-05
-8.1986e-06
-5.29418e-05
-1.09406e-05
-5.10068e-05
-1.39346e-05
-5.44614e-05
-2.09985e-05
-5.07867e-05
-3.65106e-05
-3.12795e-05
-5.87005e-05
-2.90279e-05
-4.37697e-05
1.63169e-05
-8.33894e-05
1.45504e-05
-3.98521e-05
2.13772e-05
-3.58119e-05
2.54215e-05
-8.73996e-06
4.40693e-05
9.80103e-06
-2.7564e-05
0.000121319
-3.90987e-05
8.68596e-05
-7.60927e-05
7.17504e-05
-8.2997e-05
3.39257e-05
-5.06065e-05
7.32065e-06
-4.54093e-05
3.94087e-06
-4.23538e-05
-1.62382e-06
-5.69111e-05
2.03424e-06
-5.61815e-05
-4.55228e-06
-5.85986e-05
-4.6288e-06
-4.21667e-05
-1.84502e-05
-6.2124e-05
1.17587e-05
-6.63549e-05
-6.70975e-06
-8.36205e-05
3.331e-06
-0.000100707
-3.91182e-06
-0.000100119
-3.70985e-05
-9.00336e-05
-6.87862e-05
-4.1527e-05
-9.22762e-05
-6.18513e-05
-6.30652e-05
-3.86927e-05
-6.30107e-05
-4.96893e-05
-2.48153e-05
-9.53374e-05
3.69082e-05
9.31941e-05
-0.000144462
-3.53175e-05
0.000156637
-5.98684e-05
0.00011141
-6.3821e-05
7.57031e-05
-6.90109e-05
3.91156e-05
-5.75986e-05
-4.09171e-06
-5.94744e-05
5.81668e-06
-5.82634e-05
-2.83478e-06
-6.77851e-05
1.1556e-05
-6.15282e-05
-1.08092e-05
-6.06653e-05
-5.49176e-06
-7.35756e-05
-5.53995e-06
-6.50539e-05
3.23707e-06
-8.35309e-05
1.17673e-05
-8.55415e-05
5.34157e-06
-0.000107377
1.79234e-05
-0.000129895
-1.45799e-05
-0.000143232
-5.54499e-05
-0.000182726
-5.27819e-05
-0.000221695
-2.40956e-05
-0.000248718
-3.59885e-05
-0.000255309
-1.82241e-05
-0.000250584
3.21832e-05
5.53158e-05
-0.000212706
-2.78688e-05
0.000184506
-4.73719e-05
0.000130914
-2.12926e-05
4.96238e-05
-3.10861e-05
4.89091e-05
-5.17296e-05
1.65517e-05
-9.27001e-05
4.67872e-05
-0.000103561
8.02571e-06
-0.000103262
1.12576e-05
-0.000113843
-2.28828e-07
-0.000120993
1.65892e-06
-0.000125142
-1.39091e-06
-0.000120252
-1.65289e-06
-0.000111671
3.18552e-06
-0.000107838
1.50871e-06
-8.95257e-05
-3.88662e-07
-0.00010353
-5.75582e-07
-0.000156581
-2.3989e-06
-0.000204047
-5.31539e-06
-0.000223548
-4.59549e-06
-0.000249809
-9.72697e-06
-0.000253856
-1.41776e-05
-0.000244896
2.3224e-05
3.74161e-05
-0.000226997
-6.99271e-06
0.000191498
4.15201e-06
0.000119769
1.09127e-05
4.2863e-05
2.46559e-05
3.5166e-05
-1.04308e-05
5.16384e-05
-5.61322e-05
9.24886e-05
-0.000158748
0.000110642
-0.000248192
0.000100701
-0.00030654
5.81189e-05
-0.000324765
1.98845e-05
-0.000323221
-2.93527e-06
-0.000315127
-9.74719e-06
-0.000299645
-1.22964e-05
-0.000285265
-1.28712e-05
-0.000272616
-1.30371e-05
-0.000258604
-1.45873e-05
-0.000251064
-9.93965e-06
-0.000237147
-1.92323e-05
-0.000180445
-6.12969e-05
-0.000181856
-8.31629e-06
-0.000218255
2.22209e-05
-0.000196514
1.48341e-06
4.50721e-07
-0.000159548
2.18041e-06
0.000189318
5.15947e-05
7.03546e-05
1.41997e-05
8.0258e-05
-7.24478e-05
0.000121813
-0.000201313
0.000180503
-0.000303964
0.000195139
-0.000374736
0.000181414
-0.00040157
0.000127535
-0.000402506
5.90544e-05
-0.000397889
1.52677e-05
-0.000391609
-9.2153e-06
-0.000380558
-2.07987e-05
-0.000368029
-2.48248e-05
-0.000339355
-4.15457e-05
-0.000308283
-4.41092e-05
-0.000280973
-4.18966e-05
-0.000273179
-1.77342e-05
-0.00026021
-3.22015e-05
-0.000251985
-6.95215e-05
-0.000245203
-1.50986e-05
-0.000230026
7.04461e-06
-0.000230046
1.50275e-06
1.90089e-06
-0.000231496
4.941e-06
0.000184377
1.53366e-06
7.37619e-05
-9.7405e-05
0.000179197
-0.000218911
0.000243319
-0.000272012
0.000233605
-0.000321212
0.000244339
-0.000337156
0.000197358
-0.000326671
0.00011705
-0.000324236
5.662e-05
-0.00033518
2.62116e-05
-0.000352604
8.20867e-06
-0.000352857
-2.05459e-05
-0.000342985
-3.4697e-05
-0.000325005
-5.95252e-05
-0.000326906
-4.22079e-05
-0.000301974
-6.68287e-05
-0.000233333
-8.63756e-05
-0.000208455
-5.70795e-05
-0.000259258
-1.87187e-05
-0.000261611
-1.2745e-05
-0.000274142
1.9575e-05
-0.00028959
1.6951e-05
9.71631e-06
-0.000297405
-4.44304e-05
0.000228807
-0.000116656
0.000145987
-0.000218757
0.000281298
-0.000280957
0.000305519
-0.000240822
0.000193469
-0.00025931
0.000262827
-0.000235338
0.000173387
-0.000194427
7.61391e-05
-0.000189721
5.1914e-05
-0.000214024
5.05146e-05
-0.000263576
5.77604e-05
-0.000314412
3.02896e-05
-0.000336702
-1.24064e-05
-0.000337847
-5.83807e-05
-0.000335381
-4.46738e-05
-0.000322981
-7.92287e-05
-0.000352584
-5.6772e-05
-0.000347051
-6.2613e-05
-0.000321412
-4.43573e-05
-0.00029265
-4.15077e-05
-0.000217908
-5.51667e-05
-0.000198673
-2.28392e-06
3.35864e-05
-0.000222543
-9.45369e-05
0.000323344
-0.000166993
0.000218443
-0.00020379
0.000318096
-0.000223136
0.000324865
-0.000209111
0.000179445
-0.000172968
0.000226684
-0.000128999
0.000129418
-9.56508e-05
4.27912e-05
-9.38093e-05
5.00724e-05
-0.000128308
8.50131e-05
-0.000172726
0.000102178
-0.000203143
6.07069e-05
-0.000229542
1.39924e-05
-0.0002809
-7.02299e-06
-0.000306277
-1.92964e-05
-0.000338367
-4.71388e-05
-0.000345956
-4.91832e-05
-0.00033973
-6.88384e-05
-0.000341479
-4.26085e-05
-0.000337005
-4.59818e-05
-0.000346747
-4.54245e-05
-0.000327311
-2.172e-05
-1.98346e-05
-0.00027389
-9.13645e-05
0.000414709
-0.000129111
0.000256189
-0.000104029
0.000293014
-9.47383e-05
0.000315574
-0.000145193
0.000229899
-8.05539e-05
0.000162044
-3.79279e-05
8.67918e-05
-3.78595e-05
4.27229e-05
-8.00215e-05
9.22343e-05
-0.000177282
0.000182274
-0.00022327
0.000148166
-0.000253862
9.12992e-05
-0.000282993
4.3123e-05
-0.000292149
2.13304e-06
-0.000274787
-3.66582e-05
-0.000262418
-5.95076e-05
-0.000261243
-5.03591e-05
-0.000284723
-4.53583e-05
-0.000291141
-3.61904e-05
-0.000291326
-4.57968e-05
-0.000307251
-2.94994e-05
-0.000301951
-2.70202e-05
-4.3434e-05
-0.000278351
-4.33244e-05
0.000458033
-0.000139685
0.00035255
-0.000151327
0.000304656
-0.000110638
0.000274885
-3.97907e-05
0.000159052
-3.94151e-06
0.000126195
2.27314e-05
6.0119e-05
-2.9574e-05
9.50283e-05
-0.000134505
0.000197165
-0.000186556
0.000234324
-0.000202771
0.000164382
-0.000205776
9.43038e-05
-0.000191068
2.8415e-05
-0.000164366
-2.45689e-05
-0.000142036
-5.89886e-05
-0.000125097
-7.64468e-05
-0.00011397
-6.14856e-05
-9.34764e-05
-6.5852e-05
-7.99826e-05
-4.96843e-05
-8.36661e-05
-4.21132e-05
-8.51272e-05
-2.80383e-05
-8.75875e-05
-2.456e-05
-2.64472e-05
-0.000104574
-4.63947e-05
0.000504428
-0.000109745
0.0004159
-0.000109944
0.000304855
-5.10865e-05
0.000216027
-3.73899e-06
0.000111705
5.83365e-05
6.41197e-05
3.58422e-05
8.26134e-05
-2.01399e-06
0.000132885
-9.43461e-05
0.000289498
-0.000132742
0.00027272
-0.000144896
0.000176536
-0.000133088
8.24951e-05
-0.000120438
1.57657e-05
-0.000113354
-3.1653e-05
-0.000120997
-5.13457e-05
-0.000127324
-7.01203e-05
-7.35086e-05
-0.000115301
-5.44301e-05
-8.49306e-05
-5.07797e-05
-5.33346e-05
-5.31559e-05
-3.97372e-05
-5.01773e-05
-3.1017e-05
-5.17082e-05
-2.30291e-05
-1.75065e-05
-6.06489e-05
-3.29918e-05
0.000537419
-5.86927e-05
0.000441601
-4.73185e-05
0.000293481
-1.61875e-05
0.000184896
2.27027e-05
7.28148e-05
5.45262e-05
3.22963e-05
1.96259e-05
0.000117514
-3.62689e-05
0.000188779
-8.14548e-05
0.000334683
-0.000109212
0.000300477
-0.000115416
0.000182739
-0.000114069
8.11489e-05
-0.000125583
2.72796e-05
-0.000129978
-2.72588e-05
-0.000114755
-6.65682e-05
-8.24541e-05
-0.000102421
-9.58836e-05
-0.000101871
-0.000108531
-7.22837e-05
-0.000111017
-5.08486e-05
-0.000136824
-1.39299e-05
-0.000161183
-6.65767e-06
-0.000170624
-1.35879e-05
-2.93517e-05
-0.000158779
-3.12944e-05
0.000568714
-5.06635e-05
0.00046097
-3.65112e-05
0.000279329
-1.79155e-05
0.000166301
1.07925e-05
4.41067e-05
1.90111e-05
2.40776e-05
1.37679e-05
0.000122757
-4.56326e-05
0.00024818
-4.49431e-05
0.000333994
-3.54329e-05
0.000290967
-3.1624e-05
0.00017893
-5.73736e-05
0.000106898
-6.28228e-05
3.27287e-05
-3.38178e-05
-5.62639e-05
2.62835e-06
-0.000103014
-5.73075e-06
-9.40624e-05
-2.34736e-05
-8.41286e-05
-3.70976e-05
-5.86599e-05
-4.90066e-05
-3.89398e-05
-4.35319e-05
-1.94048e-05
-3.96014e-05
-1.05883e-05
-3.58449e-05
-1.73444e-05
-2.62982e-05
-3.88984e-05
-2.81058e-05
0.00059682
-3.93304e-05
0.000472195
-2.84095e-05
0.000268408
-2.69881e-05
0.000164879
-3.04497e-05
4.75683e-05
-1.54296e-05
9.05748e-06
-5.52993e-06
0.000112857
-1.5411e-05
0.000258061
-1.33392e-05
0.000331922
-2.93736e-05
0.000307001
2.81806e-05
0.000121376
6.95964e-05
6.54825e-05
7.47948e-05
2.75303e-05
6.2065e-05
-4.35341e-05
5.46852e-05
-9.56348e-05
2.00813e-05
-5.94588e-05
-1.17822e-05
-5.22653e-05
-3.05034e-05
-3.99388e-05
-3.91021e-05
-3.03411e-05
-3.16907e-05
-2.68163e-05
-9.73068e-06
-3.25484e-05
-9.11302e-06
-1.79622e-05
-1.62894e-05
-1.91219e-05
-2.55207e-05
0.00062234
-3.49124e-05
0.000481586
-4.10789e-05
0.000274574
-3.57886e-06
0.000127379
-3.16643e-05
7.56538e-05
-3.6978e-05
1.43712e-05
-1.41489e-05
9.00276e-05
9.61312e-06
0.000234299
3.93405e-05
0.000302195
7.36427e-05
0.000272699
6.6051e-05
0.000128968
7.46961e-05
5.68373e-05
0.000104998
-2.77166e-06
9.17082e-05
-3.02445e-05
3.36279e-05
-3.75547e-05
1.26699e-05
-3.8501e-05
-5.46703e-06
-3.41286e-05
-1.37815e-05
-3.16245e-05
-1.30622e-06
-4.28166e-05
-4.75971e-06
-2.33629e-05
-1.11065e-06
-3.61976e-05
1.40511e-06
-2.0478e-05
-1.85909e-05
3.70654e-06
-2.40102e-05
0.000646351
-2.55755e-05
0.000483152
-2.42528e-05
0.000273252
-3.77492e-05
0.000140876
-2.3749e-05
6.16536e-05
-3.89045e-05
2.95266e-05
-2.99349e-05
8.10579e-05
8.85531e-07
0.000203478
7.07017e-05
0.000232379
0.000130459
0.000212942
0.000107954
0.000151472
8.10758e-05
8.37157e-05
8.82505e-05
-9.94644e-06
8.13964e-05
-2.33906e-05
5.92374e-05
-1.5396e-05
3.85407e-05
-1.78045e-05
2.61288e-05
-2.17169e-05
1.72337e-05
-2.27296e-05
4.62156e-06
-3.02046e-05
5.93696e-06
-2.46784e-05
6.44241e-06
-3.67031e-05
2.23968e-05
-3.64324e-05
-2.40829e-05
2.78887e-05
-2.08265e-05
0.000667177
-2.57047e-05
0.00048803
-1.99973e-05
0.000267544
-9.02976e-05
0.000211176
-5.31134e-05
2.44695e-05
-5.04385e-05
2.68517e-05
-7.58425e-05
0.000106462
-4.3637e-05
0.000171272
4.30265e-05
0.000145715
0.000110423
0.000145545
0.000106724
0.000155172
0.000112364
7.80753e-05
7.84202e-05
2.39971e-05
4.40336e-05
1.09958e-05
3.53182e-05
-6.68084e-06
2.81048e-05
-1.05913e-05
2.95695e-05
-2.31819e-05
1.87265e-05
-1.18868e-05
1.84591e-05
-2.99373e-05
2.01625e-05
-2.6382e-05
1.82129e-05
-3.47535e-05
1.8e-05
-3.62195e-05
-3.79003e-05
3.18173e-05
-1.23644e-05
0.000679541
-3.418e-06
0.000479083
-1.6514e-06
0.000265777
-2.91762e-05
0.0002387
-6.01733e-05
5.54669e-05
-7.79265e-05
4.46052e-05
-8.64694e-05
0.000115005
-1.69947e-05
0.000101798
-7.76346e-08
0.000128798
2.75194e-05
0.000117949
5.469e-05
0.000128001
5.4426e-05
7.83393e-05
3.66687e-05
4.17543e-05
4.92469e-05
-1.58256e-06
4.6345e-05
-3.77914e-06
3.92164e-05
-3.46294e-06
3.35059e-05
-1.74716e-05
3.46144e-05
-1.29955e-05
3.50328e-05
-3.03559e-05
2.78329e-05
-1.91822e-05
3.05348e-05
-3.74555e-05
3.62452e-05
-4.19301e-05
-4.88468e-05
4.71916e-05
-8.32099e-06
0.000687862
5.02012e-06
0.000465742
5.49341e-05
0.000215864
4.79388e-06
0.000288841
-3.53564e-05
9.56172e-05
-3.33211e-05
4.25699e-05
-5.00228e-05
0.000131707
-3.40666e-05
8.58417e-05
-5.0033e-05
0.000144765
-7.02747e-05
0.00013819
-5.54804e-06
6.32748e-05
1.18833e-05
6.09081e-05
2.53184e-05
2.83192e-05
2.46384e-05
-9.02636e-07
1.93822e-05
1.47685e-06
2.59102e-05
-9.99107e-06
2.54738e-05
-1.70354e-05
3.34369e-05
-2.09587e-05
2.0165e-05
-1.70842e-05
4.21014e-05
-4.11187e-05
3.38997e-05
-2.92538e-05
1.8498e-05
-2.65285e-05
-5.71517e-05
2.68028e-05
-5.57739e-06
0.00069344
3.39174e-05
0.000426247
1.37843e-05
0.000235997
3.11028e-06
0.000299515
-1.80922e-05
0.000116819
-4.94731e-05
7.39504e-05
-6.60533e-05
0.000148286
-9.99816e-05
0.00011977
-5.03681e-05
9.5151e-05
-3.12874e-05
0.00011911
-2.84236e-05
6.04111e-05
-9.27404e-06
4.17586e-05
3.92739e-06
1.51179e-05
8.28307e-06
-5.25837e-06
1.9229e-05
-9.46916e-06
1.96829e-05
-1.04451e-05
2.29582e-05
-2.03109e-05
2.70746e-05
-2.50753e-05
2.77605e-05
-1.77702e-05
2.83023e-05
-4.16606e-05
4.18364e-05
-4.2788e-05
5.81923e-05
-4.28845e-05
-6.18409e-05
6.28813e-05
4.98549e-06
0.000688454
6.23902e-05
0.000368843
-7.3511e-06
0.000305738
-4.87972e-06
0.000297044
-2.22758e-05
0.000134215
-4.99629e-05
0.000101637
-7.04985e-05
0.000168822
-7.9767e-05
0.000129038
-0.000116361
0.000131745
-8.33592e-05
8.61082e-05
-5.32838e-05
3.03359e-05
-3.53235e-05
2.37984e-05
-2.5301e-05
5.09532e-06
-1.33242e-05
-1.72352e-05
-3.04876e-07
-2.24886e-05
3.91725e-06
-1.46674e-05
1.1238e-05
-2.76318e-05
1.67548e-05
-3.05923e-05
3.67576e-05
-3.77731e-05
4.19863e-05
-4.68895e-05
4.28925e-05
-4.36943e-05
4.47711e-05
-4.47632e-05
-5.40654e-05
3.69956e-05
1.7132e-06
0.000686741
6.06974e-05
0.000309859
7.09678e-06
0.000359338
7.74209e-06
0.000296398
-4.15378e-06
0.000146111
-3.0471e-05
0.000127955
-5.70841e-05
0.000195435
-8.29796e-05
0.000154934
-9.44609e-05
0.000143226
-8.9402e-05
8.10493e-05
-7.63601e-05
1.7294e-05
-7.14687e-05
1.8907e-05
-6.26866e-05
-3.68673e-06
-3.96395e-05
-4.02823e-05
-1.74963e-05
-4.4632e-05
4.25008e-06
-3.64138e-05
1.983e-05
-4.32119e-05
2.5162e-05
-3.59244e-05
3.29667e-05
-4.55779e-05
4.48045e-05
-5.87274e-05
5.14698e-05
-5.03597e-05
5.83959e-05
-5.16893e-05
-3.56275e-05
3.99579e-05
-4.98768e-06
0.000691729
4.26768e-06
0.000300603
5.08544e-05
0.000312752
2.20095e-05
0.000325243
-1.23155e-05
0.000180436
-6.98773e-05
0.000185517
-4.06941e-05
0.000166252
-5.50909e-05
0.000169331
-9.09356e-05
0.000179071
-6.3965e-05
5.40788e-05
-9.35307e-05
4.68597e-05
-8.60123e-05
1.13885e-05
-7.45454e-05
-1.51537e-05
-5.19439e-05
-6.28839e-05
-2.14277e-05
-7.51484e-05
-1.32585e-05
-4.45832e-05
4.04228e-06
-6.05128e-05
2.14311e-05
-5.33133e-05
3.7559e-05
-6.17058e-05
2.35598e-05
-4.47283e-05
2.60728e-05
-5.28728e-05
3.153e-05
-5.71465e-05
-5.53628e-05
5.12653e-05
5.96311e-06
0.000685766
6.2709e-06
0.000300295
6.52165e-07
0.000318371
1.11619e-05
0.000314733
2.06176e-05
0.00017098
-6.58706e-06
0.000212721
-3.04953e-05
0.000190161
-7.04252e-05
0.000209261
-6.84734e-05
0.000177119
-0.000124093
0.000109699
-0.000120427
4.31932e-05
-0.000110849
1.8103e-06
-5.833e-05
-6.76725e-05
-3.54423e-05
-8.57717e-05
-2.44476e-05
-8.61433e-05
-1.44686e-05
-5.45623e-05
5.10725e-06
-8.00887e-05
1.9173e-06
-5.01235e-05
1.54906e-05
-7.52792e-05
4.11088e-05
-7.03466e-05
3.74381e-05
-4.92022e-05
3.13802e-05
-5.10886e-05
-6.63171e-05
4.23344e-05
2.0628e-05
0.000665138
5.26076e-06
0.000315663
-2.65983e-05
0.000350229
5.41088e-05
0.000234026
1.63919e-05
0.000208697
2.54932e-06
0.000226564
-3.9488e-06
0.000196659
-8.91306e-05
0.000294443
-7.00819e-05
0.000158071
-9.03775e-05
0.000129994
-0.000105128
5.79436e-05
-6.75011e-05
-3.58165e-05
-9.25053e-05
-4.26684e-05
-6.09938e-05
-0.000117283
-4.81968e-05
-9.89404e-05
-1.84953e-05
-8.4264e-05
-1.25384e-05
-8.60456e-05
2.10916e-05
-8.37535e-05
3.64307e-05
-9.06184e-05
1.96704e-05
-5.35864e-05
2.74348e-05
-5.69666e-05
3.10743e-05
-5.47282e-05
-6.81897e-05
3.29469e-05
2.40694e-05
0.000641068
1.02696e-05
0.000329462
-3.38238e-06
0.000363881
-1.09475e-05
0.000241591
-4.08949e-05
0.000238645
-2.64579e-05
0.000212127
-2.24876e-05
0.000192689
-3.19469e-05
0.000303903
-2.95062e-05
0.00015563
-2.01434e-05
0.000120631
-6.67364e-05
0.000104536
-9.06973e-05
-1.18556e-05
-8.20393e-05
-5.13265e-05
-5.55037e-05
-0.000143819
-2.07304e-05
-0.000133714
-3.25153e-05
-7.24792e-05
-1.08357e-05
-0.000107725
3.83388e-06
-9.84232e-05
1.27475e-05
-9.95321e-05
4.1636e-05
-8.24749e-05
3.99046e-05
-5.52353e-05
4.94276e-05
-6.42512e-05
-5.46046e-05
3.58424e-05
3.02194e-05
0.000610848
1.07049e-05
0.000348977
-4.92301e-06
0.000379509
-3.57651e-05
0.000272434
-4.68828e-05
0.000249763
-3.38682e-05
0.000199113
-2.14506e-05
0.000180271
-7.38661e-07
0.000283191
-2.53518e-05
0.000180243
-5.23512e-05
0.000147631
-6.08357e-05
0.000113021
-8.30497e-05
1.03583e-05
-7.86601e-05
-5.57162e-05
-5.34965e-05
-0.000168983
-2.13859e-05
-0.000165825
-1.01217e-05
-8.37435e-05
1.49382e-06
-0.000119341
1.56615e-05
-0.000112591
2.70657e-05
-0.000110936
2.86573e-05
-8.40666e-05
2.56023e-05
-5.21803e-05
5.12558e-05
-8.99048e-05
-5.40864e-05
5.07376e-05
8.05032e-05
0.000530345
3.97832e-05
0.000389697
1.69902e-05
0.000402302
-2.41166e-05
0.000313541
-3.76699e-05
0.000263316
-2.98922e-05
0.000191335
-1.45513e-05
0.000164931
8.47034e-05
0.000183936
8.59558e-06
0.000256351
-4.85316e-05
0.000204758
-5.36348e-05
0.000118124
-5.93321e-05
1.60555e-05
-4.63197e-05
-6.87287e-05
-2.4748e-05
-0.000190555
-8.38527e-06
-0.000182187
6.78609e-06
-9.8915e-05
-2.90691e-06
-0.000109648
1.48193e-05
-0.000130317
2.62031e-05
-0.00012232
3.1717e-05
-8.95805e-05
6.03407e-05
-8.08041e-05
5.09191e-05
-8.04832e-05
-5.83149e-05
5.51475e-05
4.26727e-05
0.000487673
4.01314e-05
0.000392238
4.04783e-05
0.000401955
1.66929e-05
0.000337326
-2.20367e-06
0.000282213
-5.44631e-06
0.000194578
1.56031e-05
0.000143881
4.84476e-05
0.000151092
4.69961e-05
0.000257802
2.71262e-05
0.000224628
4.62719e-05
9.89781e-05
2.84993e-05
3.38281e-05
1.90924e-05
-5.93219e-05
1.096e-05
-0.000182422
6.53711e-06
-0.000177765
1.1138e-05
-0.000103516
4.92498e-05
-0.00014776
4.90591e-05
-0.000130127
3.41064e-05
-0.000107368
2.07602e-05
-7.62343e-05
2.88355e-05
-8.88794e-05
5.12977e-05
-0.000102945
-7.66263e-05
6.96092e-05
1.41497e-05
0.000473523
2.56514e-05
0.000380737
5.21897e-05
0.000375417
5.52729e-05
0.000334243
5.58059e-05
0.00028168
5.90027e-05
0.000191381
6.39438e-05
0.00013894
7.26037e-05
0.000142431
8.85341e-05
0.000241872
0.000143173
0.000169989
0.00012535
0.000116801
0.000115391
4.37864e-05
0.00010995
-5.3881e-05
3.80346e-05
-0.000110507
2.84391e-05
-0.000168169
7.51059e-05
-0.000150183
6.52943e-05
-0.000137948
2.27098e-05
-8.75421e-05
3.14886e-05
-0.000116146
7.3458e-05
-0.000118204
6.14693e-05
-7.68907e-05
3.05526e-05
-7.20288e-05
-0.000105912
5.98383e-05
8.06475e-06
0.000465458
2.88213e-06
0.000385919
3.83977e-05
0.000339901
6.62895e-05
0.000306351
9.23452e-05
0.000255624
0.000104296
0.00017943
9.54438e-05
0.000147792
8.33457e-05
0.000154529
0.00016261
0.000162607
0.000188064
0.000144535
0.000128956
0.000175909
0.000114386
5.83556e-05
0.000140843
-8.03373e-05
0.000143114
-0.000112778
0.000100047
-0.000125103
8.87532e-05
-0.000138889
3.56e-05
-8.47953e-05
6.82305e-05
-0.000120173
6.50629e-05
-0.000112979
2.73712e-05
-8.05121e-05
5.95221e-05
-0.000109042
8.42933e-05
-9.68001e-05
-0.000111455
8.9836e-05
1.40644e-05
0.000451394
4.69216e-06
0.000395291
3.92705e-05
0.000305323
8.36719e-05
0.00026195
0.000118055
0.00022124
0.000125965
0.00017152
0.000122261
0.000151496
0.000127639
0.000149151
0.000146057
0.000144189
0.000163
0.000127592
0.000157125
0.000181783
0.000166574
4.89073e-05
0.0001143
-2.80641e-05
9.70515e-05
-9.55292e-05
5.46991e-05
-8.27503e-05
5.08926e-05
-0.000135082
9.97742e-05
-0.000133677
6.03922e-05
-8.07908e-05
5.74502e-05
-0.000110037
8.24769e-05
-0.000105539
7.87955e-05
-0.00010536
7.54671e-05
-9.34717e-05
-0.00012199
8.60025e-05
3.00599e-05
0.000421334
4.69788e-05
0.000378373
7.81408e-05
0.000274161
0.000103295
0.000236795
0.000113627
0.000210908
0.000113732
0.000171415
0.000109966
0.000155261
0.000114693
0.000144424
0.000119927
0.000138956
0.000134405
0.000113114
0.000163903
0.000152285
0.000188256
2.45542e-05
0.000162739
-2.54694e-06
0.000105707
-3.84968e-05
0.000150293
-0.000127337
0.00010768
-9.24686e-05
0.000101079
-0.000127077
9.41083e-05
-7.38197e-05
8.94242e-05
-0.000105353
4.86444e-05
-6.4759e-05
5.20793e-05
-0.000108795
3.58984e-05
-7.72908e-05
-0.000129722
4.36299e-05
6.85083e-05
0.000352826
0.000107836
0.000339044
0.000110818
0.000271179
0.000110456
0.000237156
0.000103089
0.000218275
8.63968e-05
0.000188107
7.34678e-05
0.00016819
9.08652e-05
0.000127026
0.00011669
0.000113131
9.8605e-05
0.0001312
0.000138754
0.000112135
0.000122778
4.053e-05
0.000140029
-1.97972e-05
0.000178294
-7.67624e-05
0.000113342
-6.23848e-05
0.000120164
-9.9291e-05
6.18345e-05
-6.8747e-05
8.23484e-05
-9.43336e-05
4.38705e-05
-6.68748e-05
7.65641e-05
-9.74527e-05
3.68556e-05
-6.90867e-05
8.91006e-05
-0.000129536
-9.09743e-05
5.03531e-05
9.05289e-05
0.000262297
0.000132606
0.000296967
0.000126077
0.000277708
0.000115326
0.000247907
9.8103e-05
0.000235498
7.31892e-05
0.000213021
6.00719e-05
0.000181308
7.45004e-05
0.000112598
9.67941e-05
9.08373e-05
0.000122478
0.000105516
0.000144097
9.05161e-05
0.000120967
6.36596e-05
0.000104093
-2.92299e-06
0.000108699
-8.13688e-05
9.09508e-05