/*--------------------------------*- C++ -*----------------------------------*\
| =========                 |                                                 |
| \\      /  F ield         | foam-extend: Open Source CFD                    |
|  \\    /   O peration     | Version:     4.1                                |
|   \\  /    A nd           | Web:         http://www.foam-extend.org         |
|    \\/     M anipulation  |                                                 |
\*---------------------------------------------------------------------------*/
FoamFile
{
    version     2.0;
    format      ascii;
    class       volScalarField;
    location    "0.75";
    object      psi;
}
// * * * * * * * * * * * * * * * * * * * * * * * * * * * * * * * * * * * * * //

dimensions      [1 -1 -2 0 0 0 0];

internalField   nonuniform List<scalar> 
2268
(
0.202019
0.204065
0.170674
0.145925
0.143693
0.0986435
0.0336508
-0.0400014
-0.0886111
-0.110688
-0.112704
-0.0970302
-0.0729846
-0.0484638
-0.0290126
-0.0150576
-0.00564414
-0.00163984
-0.00206299
-0.00275011
0.00124107
0.00774326
0.00443189
0.17458
0.182906
0.141252
0.0867093
0.0911904
0.0459905
-0.0108354
-0.0775761
-0.114967
-0.13008
-0.122077
-0.102899
-0.0778129
-0.0524284
-0.0314894
-0.0154711
-0.00364652
0.0024093
0.00570158
0.0114873
0.0244724
0.0305885
0.0221031
0.0559464
0.0431924
-0.0156188
-0.110676
-0.0845295
-0.110388
-0.134087
-0.172829
-0.183425
-0.174097
-0.148425
-0.124571
-0.0952519
-0.0687271
-0.0415972
-0.0184069
0.00123964
0.01351
0.0286861
0.0503499
0.0864007
0.0925327
0.0781657
-0.118604
-0.207331
-0.283806
-0.430713
-0.356156
-0.332479
-0.300439
-0.291677
-0.264154
-0.220348
-0.182331
-0.155014
-0.122332
-0.0960499
-0.058158
-0.0203106
0.012723
0.0345579
0.0724142
0.120549
0.191791
0.195288
0.180791
-0.342463
-0.549826
-0.67992
-0.862666
-0.701862
-0.590805
-0.477915
-0.396316
-0.334594
-0.26675
-0.228515
-0.202597
-0.170328
-0.146706
-0.0947898
-0.0319977
0.0221352
0.0575134
0.131286
0.213312
0.306282
0.328504
0.339314
-0.595725
-0.918156
-1.17368
-1.34376
-1.04848
-0.82247
-0.621238
-0.477784
-0.392868
-0.326418
-0.292505
-0.280302
-0.253604
-0.242184
-0.178595
-0.0802383
0.00787398
0.0531399
0.177892
0.302808
0.287275
0.405289
0.542223
-0.823815
-1.16523
-1.66536
-1.70423
-1.24296
-0.924353
-0.677553
-0.519741
-0.445731
-0.411616
-0.385173
-0.406399
-0.390517
-0.401332
-0.3441
-0.208938
-0.0630049
0.013043
0.145342
0.332792
-0.100912
0.220371
0.773941
-1.13222
-1.34965
-2.01963
-1.96443
-1.40884
-1.03679
-0.77253
-0.610795
-0.568416
-0.547628
-0.551361
-0.634377
-0.618888
-0.682809
-0.650096
-0.505075
-0.318675
-0.145555
-0.0996699
0.0917859
-1.31141
-0.702392
0.742517
-0.729255
-0.911794
-1.55577
-1.64151
-1.75414
-0.631601
0.433459
1.9385
2.59483
2.87235
3.09116
3.37635
3.64296
3.17746
2.90079
1.85452
0.586756
0.188038
-0.124465
-0.869772
-0.828115
-0.764991
-0.676153
-0.53066
-1.33887
-1.42269
-0.410558
1.26633
1.94877
2.21626
2.25211
2.09928
2.59066
2.04649
2.84578
2.30629
0.791365
0.00561545
-0.844934
-0.294323
1.08754
1.66854
2.22075
0.974542
-0.788638
-2.32627
-1.37871
-0.00276002
0.845515
0.915249
0.342899
0.419857
0.324258
1.60169
2.46575
1.50997
0.191862
-0.767962
-0.273059
1.54355
2.63401
3.27453
3.04559
2.28036
-0.872633
-2.03178
-1.37674
-0.267385
0.95972
0.84824
0.415844
0.0100539
0.491458
0.342595
1.5883
0.473217
-0.86471
0.305906
1.59664
2.00017
2.15607
1.93762
2.54477
1.94264
-1.48941
-1.71132
-1.04831
0.698624
1.31896
0.83629
-0.0750384
-0.753905
0.162642
0.439809
0.824601
-0.656968
0.821664
0.373949
0.63157
-0.428178
-0.449921
0.321757
2.80183
1.25054
0.170395
0.0272562
-0.210406
0.650136
1.55815
1.85706
-0.816239
0.415391
0.332219
1.13238
-0.295164
1.05146
-0.930919
-0.233854
-0.756013
-0.318744
-0.884487
1.66263
2.5045
2.13591
1.74087
-1.17577
0.0934314
0.496146
2.91129
0.160954
1.8678
0.0413691
1.16815
0.288479
1.73127
-1.01217
-0.227652
0.81643
1.49511
-0.106571
-0.107391
0.79738
1.94831
2.34639
-1.07654
0.401469
0.423936
2.29647
2.61902
2.30918
0.0561004
0.934247
-2.22172
-2.11569
-2.68321
-2.13489
-1.64886
-1.30777
-1.09846
-0.975119
-0.888062
-0.936837
-0.972634
-1.22146
-1.19245
-1.28084
-1.42692
-1.34134
-1.13167
-1.0383
-1.29468
-1.13037
-3.68881
-2.94203
-0.426861
-0.732971
-1.28611
-2.66906
-1.65464
-1.04108
-1.10958
-1.01476
-1.28886
-0.524546
-0.74519
-0.515895
-1.239
-1.25265
-1.11682
-1.33534
-1.50766
-1.65762
-1.16458
-2.4672
-0.996022
-2.56016
-3.72711
-3.80999
0.882066
0.533466
0.99572
0.459007
0.39503
-0.57214
-0.437178
-0.154351
0.102126
-0.121652
-0.580393
0.710129
-0.2973
0.351262
0.144612
-0.257972
-0.251041
-0.194502
0.0820309
-0.172131
-0.753721
0.0700448
-0.237647
1.67039
2.91405
2.82235
1.342
0.296057
1.1141
1.09875
1.16764
0.15641
0.438611
0.614268
1.02861
0.505127
1.13349
1.39911
1.66169
1.97351
1.87724
1.97464
2.33209
2.3538
1.1511
1.22538
2.21401
3.25488
2.76073
1.82886
0.983435
1.66939
1.21028
1.12168
0.656002
1.10664
1.25762
1.12435
1.09454
1.28852
1.34803
1.54958
2.58483
2.58816
2.20401
1.78634
1.61521
1.68429
1.53642
2.32149
3.09709
1.7426
1.55596
0.805241
0.831021
1.50335
2.43625
3.31474
3.55786
3.62795
3.71395
3.82324
3.79086
3.66697
3.40925
3.01781
2.60241
2.53053
2.4744
2.56562
2.86344
2.94766
2.27077
2.02362
1.26774
1.42416
1.65006
2.64659
3.42736
3.82869
3.85508
4.00097
3.99961
3.80714
3.55561
3.29759
3.09303
2.99538
2.91895
2.81447
2.8961
3.20338
3.23359
2.552
1.90371
1.87737
1.32884
1.63468
1.91513
2.58634
2.85555
2.84253
2.91778
2.24775
1.85631
1.65965
2.38494
2.66945
2.82185
2.93849
2.91528
2.90008
3.03295
2.91782
2.52687
1.96988
1.83903
2.10383
1.51609
1.7919
2.01039
2.33618
2.38375
2.65119
2.50367
1.44683
0.862546
0.769513
0.847218
1.64446
2.22925
2.43994
2.74235
2.82206
2.91244
2.88059
3.01485
2.86318
2.74787
2.47461
2.32459
1.56758
2.10817
2.193
2.20598
2.30712
2.44759
1.72528
0.7512
0.376952
0.28858
0.32319
0.582893
0.974835
1.52879
2.04475
2.48433
2.90772
3.04497
3.14822
3.17986
3.22349
3.0553
2.96702
1.56882
2.08546
2.12736
2.25159
1.98586
1.97624
1.03361
0.378613
0.142591
0.20685
0.513734
0.942818
1.25368
1.27354
1.12875
0.935746
1.06521
1.34944
1.77732
2.02086
2.45075
2.69892
2.8181
1.55023
2.05627
2.15351
2.11489
1.47704
1.16588
0.477019
0.199596
0.0808311
0.223953
0.491877
0.67611
0.646499
0.541019
0.344816
0.18748
0.111563
0.0163807
0.0591816
0.0787851
0.21888
0.270293
0.560052
1.53975
2.00252
2.08433
1.61424
0.75437
0.470424
0.148306
0.0808466
0.0580347
0.163214
0.306065
0.301961
0.249752
0.169023
0.114074
0.0476266
0.00996201
-0.000729681
-0.00805924
-0.021494
-0.0258656
-0.0206582
0.0691853
1.51941
1.92913
1.94441
1.32156
0.529478
0.136219
0.0276715
0.0263914
0.0523599
0.12838
0.16754
0.149754
0.105966
0.0518397
0.0225016
0.00717677
0.00303013
0.0113895
0.0138867
0.0209686
0.0423663
0.087027
0.136586
1.48367
1.85391
1.70095
0.990671
0.328702
0.0710748
0.0184076
0.0168647
0.0411459
0.0802857
0.100457
0.0833946
0.0544636
0.0197503
0.00369207
-0.00037196
-0.00144371
0.0026453
0.00362994
0.00580319
0.00866721
0.0103872
0.00736849
1.44734
1.74935
1.40888
0.832216
0.25251
0.0569307
0.0145801
0.00892676
0.0231825
0.0437367
0.0473045
0.0392695
0.0288481
0.00956284
-0.00112747
-0.00209855
-0.00214952
-0.00108989
-0.000684753
-0.000642795
-0.000661312
0.00084315
-0.00135664
1.41158
1.60202
1.11816
0.832024
0.387216
0.0808676
0.0156945
0.0048346
0.00902286
0.0180545
0.0109499
0.00687807
0.00427787
4.09247e-05
-0.0013897
-0.00166333
-0.00151772
-0.00118073
-0.000952265
-0.000968595
-0.00116996
-0.000610684
-0.000826408
1.37036
1.40019
0.96337
0.77854
0.394484
0.112827
0.0271595
0.00739851
0.00434671
0.0059957
0.00334639
0.000692963
-0.000738657
-0.000825983
-0.00053771
-0.000288518
-0.000250105
-0.000295375
-0.000251754
-0.000362707
-0.000518935
-0.000490245
-0.0004447
1.31253
1.20652
0.831869
0.59868
0.231782
0.0792047
0.0263814
0.00880731
0.00458551
0.00309805
0.00185558
0.000551548
-0.000101681
-0.000137501
-3.28593e-05
2.15948e-05
2.74412e-05
2.14356e-07
1.30085e-05
-3.15513e-06
-1.73195e-05
-6.40618e-05
-8.53447e-05
1.25118
1.0725
0.751572
0.58776
0.131928
0.0334522
0.0197818
0.0105449
0.00453575
0.00156044
0.000484478
-3.24935e-05
-4.82195e-05
3.60023e-06
1.16415e-05
9.98224e-06
1.32817e-05
1.21355e-05
1.40384e-05
1.545e-05
1.92464e-05
1.628e-05
1.48016e-05
1.19218
0.92684
0.666108
0.616006
0.206122
0.0516381
0.032237
0.00949117
0.00190422
-0.000245427
0.000124658
0.000146433
0.000141425
0.000130773
2.57444e-05
-2.92729e-06
-1.68463e-06
6.32701e-07
1.54808e-06
2.57207e-06
4.90441e-06
6.97634e-06
6.70036e-06
1.1333
0.77244
0.571412
0.598788
0.201115
0.0448122
0.026906
0.00317866
0.000310652
0.00053684
0.00113955
0.00086848
0.00070602
0.000330349
8.04649e-05
1.20916e-05
6.71441e-07
-1.11254e-07
-4.45531e-07
-1.89598e-07
-3.61671e-08
4.02019e-07
7.48285e-08
1.06497
0.645594
0.535648
0.551539
0.144552
0.0339911
0.0225052
0.00379589
0.00140089
0.00215197
0.00407184
0.00196397
0.000863719
0.000255779
6.10421e-05
1.32662e-05
3.69045e-06
1.68963e-06
4.80093e-07
1.03201e-07
-6.27669e-08
-1.15753e-07
-1.81143e-07
0.988054
0.520004
0.512079
0.445747
0.0854115
0.0350573
0.0285129
0.00506601
0.00410007
0.00723971
0.00670818
0.00200706
0.000484748
0.000102565
2.22588e-05
6.54215e-06
3.36956e-06
2.46226e-06
7.81508e-07
1.84616e-07
5.07293e-08
3.42736e-12
-1.99718e-08
0.896413
0.410148
0.485622
0.397866
0.0717288
0.0322217
0.0339552
0.0117162
0.0105911
0.0178379
0.00734264
0.00152536
0.000313634
0.000136224
1.97459e-05
-1.7104e-05
-5.68591e-06
-1.25443e-06
-3.1121e-07
-6.78497e-08
-1.01924e-08
-3.82876e-11
4.40662e-09
0.802523
0.380572
0.450546
0.314302
0.0436483
0.0404885
0.0473019
0.0256585
0.0207559
0.0190688
0.00561366
0.00211597
0.00143912
0.000711657
0.000134898
-2.53676e-05
-1.28336e-05
-2.97118e-06
-2.98705e-07
-4.06151e-08
-5.00103e-09
1.23342e-09
1.17972e-09
0.71079
0.365118
0.394049
0.237545
0.0687625
0.0417875
0.0554491
0.0418638
0.0341466
0.0233662
0.0124965
0.00888509
0.00317855
0.00128532
0.000193473
-1.58142e-05
-1.02982e-05
-3.34146e-06
-5.03351e-07
-1.0371e-07
-2.49564e-10
2.69074e-09
-8.99786e-10
0.629081
0.348025
0.361411
0.172959
0.0617304
0.0469837
0.0560087
0.0514527
0.0495195
0.0371682
0.0249986
0.0147751
0.00493468
0.0026646
0.00035135
-4.92278e-05
-1.75381e-05
-3.44391e-06
-4.25404e-07
-3.65897e-08
-2.50037e-09
8.7672e-10
-2.24012e-09
0.557135
0.347145
0.339037
0.174739
0.0705432
0.0559239
0.0544828
0.0559194
0.0552353
0.04308
0.0286248
0.0196038
0.00842111
0.00490214
0.000338752
-0.000156768
-3.3527e-05
-4.84671e-06
-4.92252e-07
-1.92718e-08
6.59533e-09
1.52515e-09
-4.42524e-09
0.490016
0.36253
0.330804
0.196587
0.0957343
0.0648704
0.0505999
0.0550731
0.0561574
0.04603
0.0347998
0.0323041
0.0206447
0.0110941
0.000770173
-0.000397986
-7.08298e-05
-1.11024e-05
-1.11839e-06
-2.46539e-08
1.94116e-08
1.30907e-09
-6.64019e-09
0.426064
0.348806
0.318495
0.230916
0.144122
0.082411
0.0491451
0.0510621
0.0544526
0.0501684
0.0479415
0.0534014
0.0455902
0.0200396
0.00128404
-0.000762181
-0.000125697
-1.24736e-05
-1.79692e-06
-4.17951e-08
4.23724e-08
1.10808e-08
-1.5802e-09
0.375079
0.320677
0.299791
0.230186
0.157285
0.0909916
0.0532849
0.0490599
0.0527799
0.0523578
0.0576274
0.0634322
0.0588485
0.0296252
0.00150987
-0.000395967
-2.34887e-05
-1.65615e-05
-4.01614e-06
-1.89883e-07
-3.41581e-10
2.32277e-08
9.1822e-09
0.339302
0.289181
0.253053
0.211512
0.151394
0.0839818
0.0521805
0.0498586
0.0516163
0.0545042
0.0653515
0.0675243
0.0507378
0.017789
0.00417318
0.000315555
-8.19827e-06
-3.43433e-05
-3.16336e-06
-1.20336e-07
4.50662e-08
5.07684e-08
1.84184e-08
0.310072
0.261527
0.182544
0.145786
0.102871
0.0616357
0.0526209
0.0549612
0.0584996
0.0686816
0.0717684
0.0704986
0.0416563
0.00429975
-0.00116043
-0.000617583
-0.000109612
-1.20198e-05
-7.0577e-07
9.48708e-08
1.0159e-07
1.22882e-07
-2.29783e-08
0.274932
0.230495
0.137462
0.0875474
0.063178
0.0570377
0.0593123
0.068446
0.0733554
0.0722424
0.0731991
0.0598967
0.0240209
0.00233059
-0.000702893
-0.000115498
-2.24207e-05
-1.63386e-06
1.59786e-07
9.13324e-08
1.46272e-07
2.32719e-07
-4.61919e-07
0.200974
0.172087
0.102984
0.0671732
0.060424
0.0636207
0.0719743
0.0737641
0.0722138
0.0673702
0.0600393
0.0221943
0.000247319
-0.0010739
-0.00027765
-6.87899e-05
-7.17966e-06
-1.21166e-08
1.12487e-07
1.26348e-07
2.57138e-07
2.26625e-07
-3.65833e-07
0.107874
0.10364
0.0809853
0.065382
0.0656939
0.0730689
0.0749671
0.0706738
0.0587284
0.0454527
0.0274321
0.00558413
-0.00104138
-0.000673196
-0.000124614
-1.43708e-05
2.04963e-08
2.50517e-07
5.11338e-08
2.07466e-07
5.12959e-07
-1.85376e-07
-2.46613e-06
0.070835
0.0765997
0.0721957
0.0693302
0.0731805
0.0761399
0.075592
0.0609765
0.0329077
0.0172023
0.00383867
-0.000475607
-0.000612761
-0.000143641
-1.87809e-05
1.15616e-07
4.28108e-07
4.20128e-08
8.87656e-08
4.08852e-07
6.87404e-07
-2.02727e-06
-6.17154e-06
0.0519586
0.0645098
0.0693434
0.0709032
0.0748257
0.0764706
0.0700216
0.0390455
0.00782978
0.00427481
-0.000269243
-0.00071525
-0.000232528
-2.64376e-05
6.16791e-08
7.35755e-07
1.02336e-07
5.21555e-09
2.2806e-07
6.37159e-07
8.2648e-07
-4.08643e-06
-1.32951e-05
0.0289954
0.0486272
0.0646902
0.0707399
0.0737151
0.0704424
0.047894
0.0160181
0.00219971
0.00118802
-4.77593e-05
-0.000107917
-2.46914e-05
-8.74727e-07
7.04408e-07
1.28492e-07
-9.49094e-09
5.23269e-08
4.54522e-07
8.14499e-07
8.30052e-07
-5.21328e-06
-2.25919e-05
0.0117753
0.024149
0.0457506
0.0596883
0.0568348
0.0397573
0.0133088
0.00237933
-0.00134548
-0.00017262
-0.000148526
-4.68121e-05
-5.9196e-06
1.80966e-07
1.40267e-07
-5.67476e-09
-1.19803e-09
1.32663e-07
5.45753e-07
8.91362e-07
5.89953e-07
-5.31628e-06
-2.64241e-05
0.00128151
0.00147122
0.00713734
0.0205855
0.0111932
0.000611363
-0.00258337
-0.000720988
-0.000620559
-0.000117122
-3.71888e-05
-5.61692e-06
2.31799e-07
1.90081e-07
6.68473e-09
-1.03809e-08
9.6444e-09
1.35059e-07
5.47275e-07
9.1356e-07
6.12002e-07
-5.21381e-06
-2.81338e-05
0.339989
1.52284
0.00465
-4.69816
0.274578
1.28135
-0.317834
-1.6958
1.04197
-0.218161
-0.779983
0.214195
0.315215
0.461051
0.94761
2.07454
1.70372
2.24696
3.01263
2.62223
2.80077
2.65717
2.42483
1.92382
1.66019
1.8504
1.96565
2.24523
2.13413
2.51154
2.79106
3.03268
2.21318
2.2822
2.36751
2.45997
2.92749
2.91291
2.91369
2.91016
2.98716
2.93168
2.66625
2.55331
1.2237
1.26453
1.20252
1.10222
0.272571
0.344637
0.39217
0.417823
0.16606
0.175064
0.18712
0.191041
0.0132223
0.02433
0.0491386
0.0729423
-0.00305685
0.00231144
0.0184548
0.0398369
-0.00301782
-0.00367221
-0.00177975
0.00260514
-0.000965998
-0.00165802
-0.0024892
-0.00296283
-8.85516e-05
-0.000192621
-0.00045075
-0.000757128
3.3903e-05
4.51806e-05
3.23473e-05
-1.25112e-05
1.04948e-05
1.5609e-05
2.06498e-05
2.38332e-05
-2.02435e-07
4.94557e-07
2.26896e-06
4.94327e-06
-3.62921e-07
-4.67429e-07
-5.00849e-07
-4.27784e-07
-6.34456e-08
-1.10542e-07
-1.65972e-07
-2.22088e-07
6.11566e-09
2.99669e-09
-4.39115e-09
-1.84725e-08
1.10327e-09
8.69053e-10
1.7386e-09
5.4428e-09
-3.1022e-09
-4.50563e-09
-2.53606e-09
5.54496e-09
-6.23952e-09
-5.23791e-09
6.99655e-09
2.91426e-08
-1.14528e-08
-1.26133e-09
3.98379e-08
9.11344e-08
-1.48754e-08
2.27035e-08
1.35047e-07
2.26186e-07
-1.00066e-08
8.037e-08
3.03728e-07
5.23269e-07
2.52476e-08
1.88176e-07
5.67556e-07
1.10623e-06
1.82173e-07
4.7453e-07
1.32766e-06
1.41532e-06
3.89114e-07
8.64955e-07
1.90063e-06
1.37776e-06
-5.60793e-07
-1.68387e-06
-1.70054e-06
-6.79244e-06
-3.94003e-06
-6.73743e-06
-1.16507e-05
-2.71255e-05
-1.51792e-05
-2.68396e-05
-3.55014e-05
-4.90856e-05
-2.33363e-05
-4.52113e-05
-6.40597e-05
-7.55703e-05
-3.35566e-05
-5.59594e-05
-8.45816e-05
-9.83661e-05
-5.13592e-05
-7.19615e-05
-9.37743e-05
-0.000110738
-5.76907e-05
-8.4191e-05
-0.000105039
-0.000118048
-5.77736e-05
-8.72956e-05
-0.000108444
-0.000118757
-0.468395
2.35536
2.52903
1.56952
2.37058
2.36978
1.61804
-0.305344
-0.728044
-0.121973
0.219657
1.43657
1.09106
0.102243
-0.406762
1.46573
0.868216
0.465316
0.61618
0.782625
0.90868
2.013
2.93198
3.00569
3.99576
3.104
2.33707
1.49194
0.497038
0.587195
0.456409
-0.377143
-1.01429
-0.873656
1.17775
-0.430738
0.477233
0.163168
1.44436
1.95811
4.08028
3.37327
3.31636
2.823
2.43595
2.41872
2.22833
2.36155
1.27385
-0.112366
-0.82465
-0.233454
1.03469
0.256298
0.41071
0.33587
-0.396806
2.70476
2.44233
3.06589
1.86899
2.19711
2.23352
2.13242
1.91251
2.37697
1.18626
0.458311
1.01228
1.5944
1.40598
0.896772
-0.383554
1.45816
0.958556
-0.16742
2.1668
1.95525
2.02515
2.13595
2.28315
1.89635
1.84467
1.57792
1.60112
1.79617
3.17924
3.10199
2.41504
1.49519
1.63715
1.8471
2.934
1.9229
0.576406
2.04245
2.085
2.73903
2.85633
2.75887
2.43969
2.22792
2.13633
3.13176
3.20448
3.11669
2.82528
2.2532
2.34933
2.92268
3.26436
1.73635
2.34243
2.57036
2.74365
3.09425
3.01146
2.95325
2.994
3.09367
3.32875
3.511
3.58398
3.12671
3.11447
2.41603
2.23294
2.63876
2.13617
1.72924
1.52001
1.41548
2.74021
3.13131
3.11874
2.98161
2.90957
2.9004
2.78292
3.09861
3.16639
2.94353
2.92508
2.9974
2.88445
2.45971
1.86257
1.35003
1.05635
1.07441
0.957551
1.6185
2.59736
3.05116
3.2325
3.09094
3.07632
2.6138
2.415
2.44604
2.62107
2.78132
2.77058
2.46369
1.66411
1.11056
0.922354
0.794075
0.756151
0.899547
1.03554
2.85395
2.66175
3.16227
3.67877
3.74284
3.67374
3.57816
3.20195
3.03039
2.94512
2.43196
1.71029
1.19202
0.880916
0.719696
0.612881
0.517087
0.753058
0.82676
2.39582
2.14475
1.81111
2.1347
2.07993
2.71255
3.13917
3.49751
3.03898
2.19722
1.66222
1.16075
0.863785
0.693465
0.546646
0.454754
0.350615
0.570502
0.663751
1.05872
1.08279
0.854032
1.28918
1.4828
1.91711
1.96536
2.01809
1.86621
1.14112
0.974822
0.796196
0.753367
0.54465
0.331181
0.329419
0.241065
0.463376
0.529847
0.43447
0.454595
0.523666
0.559701
0.669256
0.886426
0.943277
0.958638
0.860563
0.526179
0.392912
0.357818
0.296229
0.385994
0.141477
0.176279
0.186546
0.416592
0.429608
0.198161
0.208047
0.263842
0.236772
0.343563
0.408306
0.397498
0.462691
0.421285
0.17636
0.0868016
0.148802
0.042338
0.10342
0.0495742
0.0435971
0.158806
0.384415
0.3564
0.0937832
0.107168
0.115896
0.108018
0.154369
0.171197
0.146206
0.189208
0.152943
0.0527832
0.0195397
0.0440408
0.0120034
0.012441
0.0136232
-0.00368941
0.120021
0.3538
0.301686
0.0553381
0.0493032
0.0393595
0.0498264
0.0672723
0.0469331
0.0372973
0.0391092
0.0202652
0.00598199
0.00444605
0.00837943
0.00570865
-0.000540656
0.000162468
-0.00807532
0.123252
0.326391
0.255546
0.0161448
0.0128723
0.00845668
0.020974
0.0499566
0.0217162
0.0119654
0.00405026
0.00211721
0.00221858
0.00153908
0.00169282
0.00213729
-0.000249744
-0.0049278
-0.000536739
0.132259
0.269649
0.218868
-0.00137261
-0.00127477
0.000472452
0.0025154
0.0249049
0.0153784
0.00880222
0.00318707
0.00177387
0.00180553
0.000865102
0.00069996
0.000887995
0.000177821
-0.00479641
-0.00950748
0.0955944
0.202255
0.193513
-0.00111678
-0.00116783
-0.00128009
-0.00183232
0.00277691
0.00331112
0.00189772
0.00147407
0.000650207
0.000504161
0.000264268
0.000329627
0.000319594
-6.02499e-05
-0.00385988
-0.00325298
0.0768648
0.158156
0.174445
-0.000116916
-0.00028072
-0.000484421
-0.000835363
-0.00126259
-0.000506712
-0.000321655
9.95089e-06
9.09993e-05
4.1656e-05
2.13079e-05
8.6492e-05
0.000134645
-0.000297375
-0.00299595
-0.00218347
0.0529192
0.130717
0.158477
2.53433e-05
1.6888e-05
-1.89042e-05
-0.00010882
-0.00038569
-0.000365751
-0.000261944
-0.000160166
-9.08953e-05
-6.09503e-05
-2.84901e-05
-1.60075e-06
3.80429e-05
-0.000393591
-0.00218174
-0.000430798
0.0406989
0.109847
0.144472
8.71088e-06
1.29072e-05
1.90201e-05
1.54245e-05
-2.78441e-05
-5.03818e-05
-5.94096e-05
-6.83286e-05
-6.11896e-05
-4.24766e-05
-2.99893e-05
-7.78999e-06
9.49638e-06
-0.000404426
-0.00162271
0.000322457
0.0311288
0.0948434
0.131999
9.71629e-08
2.097e-06
5.20835e-06
8.64872e-06
9.74736e-06
6.42511e-06
2.89572e-06
3.74092e-07
-4.47009e-06
-1.11447e-05
-1.58121e-05
-4.97473e-06
7.36117e-06
-0.000360094
-0.0013016
0.000718918
0.0241097
0.0831006
0.120433
-2.47944e-07
-2.36648e-07
-3.57736e-08
1.70852e-06
3.17688e-06
3.59476e-06
3.04841e-06
2.39815e-06
1.0617e-06
-1.90216e-06
-2.79571e-06
1.9853e-06
1.21475e-05
-0.000298415
-0.00105593
-0.000326733
0.0188866
0.0715549
0.109924
-4.67143e-08
-9.55786e-08
-1.62405e-07
-9.42962e-08
3.69044e-07
7.94718e-07
9.13595e-07
9.13368e-07
5.07904e-07
-2.90841e-08
-8.97925e-07
2.12308e-06
3.18466e-06
-0.000260476
-0.000862189
-0.000921433
0.013983
0.0588736
0.100877
2.16286e-08
1.98522e-08
-8.28947e-10
-3.55667e-08
-4.7096e-08
-9.86715e-08
-7.7507e-07
-6.56646e-08
-5.19175e-08
-1.24891e-07
-1.11944e-06
-6.86358e-08
6.6069e-06
-0.000124132
-0.000598749
-0.000796626
0.00983479
0.0491092
0.092712
2.98103e-08
5.38516e-08
3.61006e-08
8.72284e-09
-1.20913e-07
-2.14956e-07
-2.71838e-06
-1.52521e-06
-1.6975e-06
-2.05467e-06
-3.53273e-06
-5.0199e-06
-4.82761e-06
-9.19994e-05
-0.000533647
-0.00119239
0.0060771
0.0424063
0.0845236
5.2925e-08
9.16484e-08
-9.77189e-08
-2.95805e-07
-1.48606e-06
-3.48528e-06
-9.53881e-06
-5.58402e-06
-5.88905e-06
-6.96045e-06
-8.5848e-06
-1.10034e-05
-6.35668e-06
-4.73864e-05
-0.00041895
-0.00108098
0.00480722
0.0392587
0.0769383
1.16976e-07
-1.01945e-07
-4.64317e-07
-2.61797e-06
-3.91706e-06
-1.05901e-05
-2.25256e-05
-1.62501e-05
-1.59478e-05
-1.90019e-05
-2.06348e-05
-2.10652e-05
-1.50609e-05
-4.37006e-05
-0.000343233
-0.00103724
0.00445361
0.036563
0.069304
3.02951e-07
-6.08344e-07
-1.92199e-06
-7.97599e-06
-1.36571e-05
-2.77663e-05
-3.12993e-05
-2.75536e-05
-2.91265e-05
-3.11822e-05
-3.13871e-05
-3.20496e-05
-2.94105e-05
-7.00958e-05
-0.000287065
-0.000506136
0.00467831
0.0314702
0.0622286
3.2665e-07
-3.02878e-06
-1.06826e-05
-1.85657e-05
-3.25912e-05
-3.55395e-05
-3.79825e-05
-3.37083e-05
-3.75349e-05
-3.93741e-05
-3.94967e-05
-3.88899e-05
-3.60078e-05
-6.65817e-05
-0.000351857
-0.000882044
0.00243759
0.0251712
0.0561743
1.0594e-06
-4.44723e-06
-2.45217e-05
-3.70999e-05
-4.04208e-05
-4.16519e-05
-4.31384e-05
-1.52218e-05
-2.56503e-05
-3.52561e-05
-3.82642e-05
-3.8839e-05
-3.91224e-05
-6.33508e-05
-0.000304091
-0.000781279
0.00312715
0.021491
0.0508522
-1.74378e-06
-1.62313e-05
-4.63116e-05
-5.13384e-05
-4.98784e-05
-3.49712e-05
-1.60513e-05
6.14365e-05
4.87552e-05
4.93889e-05
2.19352e-05
6.01468e-06
-2.84385e-05
-0.000112833
-0.000219736
-8.74643e-05
0.00380844
0.0171222
0.0460217
-8.67961e-06
-4.11175e-05
-5.97572e-05
-6.21942e-05
-1.76055e-05
5.55806e-05
0.000248935
0.00029811
0.000252571
0.000242312
0.000188841
0.000105575
2.44337e-05
-9.31513e-05
-0.000145822
-5.31531e-05
0.00208502
0.0112965
0.0420102
-2.24286e-05
-6.50186e-05
-6.78752e-05
-4.56938e-05
3.53881e-05
0.000188835
0.000643664
0.000611716
0.00066131
0.000619053
0.000562457
0.000388653
0.000214307
5.11022e-05
-9.69914e-05
-0.000290738
-0.000306672
0.00595454
0.0391098
-5.8653e-05
-7.14218e-05
-7.48395e-05
-1.13346e-08
0.000248401
0.000474762
0.00105252
0.00104236
0.00145312
0.00140551
0.00126974
0.000975729
0.000690713
0.000392774
-9.93792e-06
-0.000201249
-0.000626714
0.00581226
0.0369337
-8.06741e-05
-7.56729e-05
-4.94199e-05
0.000106282
0.000430903
0.000709094
0.00132946
0.00178175
0.00226495
0.00226046
0.00215463
0.00176477
0.00119276
0.000538345
0.000235898
-0.000357115
-0.00140564
-0.00157549
0.0318631
-9.38596e-05
-7.63616e-05
2.64922e-05
0.000317198
0.000882745
0.00143098
0.00200712
0.00260204
0.00273955
0.00274827
0.00256452
0.0021449
0.00146129
0.000748649
0.000470511
-0.000250655
-0.00133121
0.00384728
0.044064
-0.000103699
-6.31597e-05
0.00012463
0.000566014
0.00115618
0.00187253
0.00246732
0.00305509
0.00306431
0.00288222
0.00260486
0.00243613
0.00206319
0.00133637
0.000635515
-0.000313745
-0.000723643
0.00565113
0.0413299
-0.000109139
-4.88721e-05
0.000206278
0.000767201
0.00130131
0.00195468
0.00279183
0.00324064
0.00311259
0.00256953
0.00205229
0.00183676
0.00180864
0.00151267
0.00113174
-0.000150855
-0.000297161
0.00506508
0.0277224
-0.000112976
-2.69198e-05
0.000350464
0.000809083
0.00131627
0.00189791
0.00281515
0.00329478
0.00304212
0.00236554
0.00181808
0.00149577
0.0013826
0.00124818
0.000911345
5.62647e-05
-0.000133448
0.000800411
0.0166773
-0.000116177
-3.22138e-05
0.000403338
0.000837284
0.00133533
0.00189507
0.00282051
0.0033087
0.00303952
0.00237664
0.00182512
0.00144833
0.00120221
0.00103158
0.000853421
0.000411483
-0.000229306
-0.00104438
0.00471803
)
;

boundaryField
{
    leftWall
    {
        type            zeroGradient;
    }
    rightWall
    {
        type            zeroGradient;
    }
    lowerWall
    {
        type            zeroGradient;
    }
    atmosphere
    {
        type            zeroGradient;
    }
    defaultFaces
    {
        type            empty;
    }
}


// ************************************************************************* //
