/*--------------------------------*- C++ -*----------------------------------*\
| =========                 |                                                 |
| \\      /  F ield         | foam-extend: Open Source CFD                    |
|  \\    /   O peration     | Version:     4.1                                |
|   \\  /    A nd           | Web:         http://www.foam-extend.org         |
|    \\/     M anipulation  |                                                 |
\*---------------------------------------------------------------------------*/
FoamFile
{
    version     2.0;
    format      ascii;
    class       volVectorField;
    location    "0.75";
    object      U;
}
// * * * * * * * * * * * * * * * * * * * * * * * * * * * * * * * * * * * * * //

dimensions      [0 1 -1 0 0 0 0];

internalField   nonuniform List<vector> 
2268
(
(-0.00365033 0.0167601 0)
(-0.0906637 0.0176336 0)
(-0.110858 0.00349258 0)
(-0.150595 -0.0212242 0)
(-0.176294 0.000848641 0)
(-0.159935 -0.00084143 0)
(-0.169531 0.00178603 0)
(-0.164631 -0.00362358 0)
(-0.152643 -0.00676579 0)
(-0.15973 -0.0085896 0)
(-0.115943 -0.0163634 0)
(-0.0638824 0.000175237 0)
(-0.0454495 -0.00734925 0)
(-0.0386656 -0.0112599 0)
(-0.0198109 -0.019353 0)
(-0.00775433 -0.0086582 0)
(0.00554098 -0.00732301 0)
(0.0200144 -0.00565656 0)
(0.0199791 -0.00812278 0)
(0.0466266 -0.00724438 0)
(0.0494822 0.00582103 0)
(0.0266019 0.00459664 0)
(0.0210483 0.00337886 0)
(0.00476751 0.0262653 0)
(-0.0841094 0.0352356 0)
(-0.11302 0.0186142 0)
(-0.147569 -0.0197738 0)
(-0.17115 0.000290476 0)
(-0.159163 -0.0023786 0)
(-0.167397 -0.000318721 0)
(-0.159804 -0.000617793 0)
(-0.13776 0.00597595 0)
(-0.135184 -0.00845571 0)
(-0.0793658 -0.00731166 0)
(-0.0542825 0.00968854 0)
(-0.0429078 -0.00550026 0)
(-0.0406343 -0.0131666 0)
(-0.012258 -0.00872062 0)
(0.00428716 -0.00712374 0)
(0.0180982 -0.00500478 0)
(0.0391805 -0.000326654 0)
(0.0375229 0.00707255 0)
(0.0500356 -0.0157077 0)
(0.0413762 0.00274758 0)
(0.0268541 0.0100698 0)
(0.037218 0.0179447 0)
(-0.00679208 0.0372285 0)
(-0.0919007 0.0476934 0)
(-0.120172 0.01942 0)
(-0.152528 -0.00733348 0)
(-0.170809 0.0029575 0)
(-0.156149 -0.000954553 0)
(-0.163129 0.00524852 0)
(-0.1555 -0.0118835 0)
(-0.140138 -0.0143376 0)
(-0.145462 -0.0355711 0)
(-0.0946373 -0.00321662 0)
(-0.0688167 -0.0224293 0)
(-0.0754558 -0.0311177 0)
(-0.0685351 -0.0350146 0)
(-0.050483 -0.0272151 0)
(-0.0372061 -0.0345811 0)
(0.00505944 -0.0237074 0)
(0.0234214 -0.0139689 0)
(0.03411 -0.0219924 0)
(0.0449484 -0.00930612 0)
(0.0628742 0.00146906 0)
(0.0285914 0.0121022 0)
(0.0326678 0.0386575 0)
(-0.0148482 0.0702297 0)
(-0.104311 0.0408166 0)
(-0.132206 0.0306956 0)
(-0.15332 -0.00583525 0)
(-0.167294 0.000932917 0)
(-0.157192 -0.00470026 0)
(-0.172855 -0.00190839 0)
(-0.170687 -0.0241769 0)
(-0.145898 -0.0042562 0)
(-0.130193 0.0049176 0)
(-0.120269 0.00977705 0)
(-0.12637 -0.00709815 0)
(-0.124698 -0.00506137 0)
(-0.119465 -0.00333299 0)
(-0.0986268 -0.0239927 0)
(-0.0805779 -0.0297515 0)
(-0.0379533 -0.0219699 0)
(-0.02048 -0.0130428 0)
(0.00476571 -0.0194556 0)
(0.00944814 -0.0113796 0)
(0.0543718 0.018721 0)
(0.0262678 0.0408805 0)
(0.0434863 0.0391915 0)
(-0.034222 0.0915144 0)
(-0.113876 0.0513477 0)
(-0.13892 0.029191 0)
(-0.161367 0.000962248 0)
(-0.17241 0.0031542 0)
(-0.169555 -7.55665e-05 0)
(-0.186684 0.0075281 0)
(-0.16025 0.000446109 0)
(-0.151631 -0.0312069 0)
(-0.154653 0.0113093 0)
(-0.158513 -0.00280735 0)
(-0.166882 -0.0169005 0)
(-0.154577 -0.0351201 0)
(-0.157505 -0.0507928 0)
(-0.145526 -0.042783 0)
(-0.124491 -0.0601871 0)
(-0.0889561 -0.0544974 0)
(-0.0697447 -0.0337107 0)
(-0.0419749 -0.014923 0)
(-0.0159049 -0.0367135 0)
(0.0430993 -0.0203047 0)
(0.0106519 0.0453339 0)
(0.0309765 0.0782009 0)
(-0.0318593 0.108391 0)
(-0.128727 0.0617453 0)
(-0.154302 0.0448821 0)
(-0.165461 0.00352979 0)
(-0.17242 0.00419079 0)
(-0.164353 -0.00296784 0)
(-0.186148 0.00549182 0)
(-0.211696 0.0303849 0)
(-0.192697 0.014696 0)
(-0.179628 0.0146431 0)
(-0.195083 0.014393 0)
(-0.196863 -0.0111509 0)
(-0.190719 -0.0201379 0)
(-0.178693 -0.042512 0)
(-0.155929 -0.0427284 0)
(-0.148843 -0.0587053 0)
(-0.112742 -0.0437735 0)
(-0.0959351 -0.0265707 0)
(-0.0671197 -0.0589444 0)
(-0.0264388 -0.0458488 0)
(0.0312395 0.0116212 0)
(0.0732423 0.0454847 0)
(0.0513079 0.115704 0)
(-0.0525357 0.129018 0)
(-0.152671 0.0906449 0)
(-0.194733 0.032963 0)
(-0.196421 0.00555487 0)
(-0.198707 0.001241 0)
(-0.211207 0.00359578 0)
(-0.222764 0.0118731 0)
(-0.224673 0.0182158 0)
(-0.218008 0.034575 0)
(-0.215669 0.0108323 0)
(-0.206563 0.00891893 0)
(-0.203111 -0.00564126 0)
(-0.190934 -0.0129419 0)
(-0.189037 -0.0363617 0)
(-0.17107 -0.0557121 0)
(-0.141953 -0.0803362 0)
(-0.110932 -0.0948279 0)
(-0.114545 -0.113666 0)
(-0.0611945 -0.0950687 0)
(0.00815164 -0.0567277 0)
(0.0386963 -0.0818227 0)
(0.107966 0.0195042 0)
(0.0503975 0.217471 0)
(-0.0399542 0.16059 0)
(-0.186063 0.157136 0)
(-0.226651 0.0787961 0)
(-0.216203 0.00615936 0)
(-0.238978 0.0157832 0)
(-0.259044 0.00599838 0)
(-0.264674 0.0118237 0)
(-0.257803 0.0130429 0)
(-0.236504 0.0208247 0)
(-0.226103 0.0146239 0)
(-0.215157 0.00999095 0)
(-0.20503 -0.0205083 0)
(-0.203369 -0.0331563 0)
(-0.190777 -0.0411047 0)
(-0.174261 -0.0658957 0)
(-0.153243 -0.0875502 0)
(-0.11274 -0.101666 0)
(-0.0893034 -0.15472 0)
(-0.0357812 -0.0598287 0)
(0.00324626 -0.0738405 0)
(0.0761444 -0.099343 0)
(0.204167 0.00165151 0)
(0.105834 0.22108 0)
(-0.726426 0.138565 0)
(-0.701415 0.108905 0)
(-0.956266 -0.00890024 0)
(-1.18446 0.0609456 0)
(-1.30868 -0.0294854 0)
(-1.36185 -0.0461602 0)
(-1.41202 -0.0226354 0)
(-1.39832 -0.00135538 0)
(-1.46294 0.000439856 0)
(-1.63684 -0.0374669 0)
(-1.6889 -0.0521948 0)
(-1.69064 -0.0548698 0)
(-1.69343 -0.00571695 0)
(-1.70109 -0.149247 0)
(-1.77012 -0.193881 0)
(-1.76967 -0.120911 0)
(-1.13988 -0.0517914 0)
(-0.854165 -0.37019 0)
(-0.179583 -0.0480391 0)
(-0.656656 0.218284 0)
(-0.628988 0.240684 0)
(-0.838459 0.221267 0)
(-1.04633 0.144444 0)
(-1.06753 0.0356263 0)
(-1.09106 0.0309308 0)
(-1.17529 0.0854032 0)
(-1.19205 0.124565 0)
(-1.3659 0.117614 0)
(-1.53561 0.0496045 0)
(-1.60138 0.0751397 0)
(-1.579 0.0660215 0)
(-1.74056 0.0351261 0)
(-1.90602 -0.00257374 0)
(-1.89781 -0.270484 0)
(-1.80742 -0.0259213 0)
(-1.31006 0.186035 0)
(-0.794767 -0.414271 0)
(-0.209968 -0.398034 0)
(-0.659889 0.395285 0)
(-0.594346 0.426088 0)
(-0.737005 0.236075 0)
(-0.842009 0.143571 0)
(-0.716352 0.0533646 0)
(-0.632186 0.0630313 0)
(-0.697811 0.0808959 0)
(-0.720925 0.0845942 0)
(-1.02018 0.13786 0)
(-1.16054 0.0645688 0)
(-1.2583 0.104404 0)
(-1.25694 -0.104665 0)
(-1.48659 -0.283691 0)
(-1.72155 -0.183643 0)
(-1.84542 -0.443294 0)
(-1.59844 -0.298604 0)
(-1.38989 -0.136275 0)
(-0.596915 -0.302411 0)
(-0.107589 -0.537042 0)
(-0.596775 0.508367 0)
(-0.553822 0.505443 0)
(-0.568458 0.167123 0)
(-0.64152 0.0349986 0)
(-0.621779 0.132844 0)
(-0.407627 0.00679362 0)
(-0.335385 0.0860941 0)
(-0.388606 0.33511 0)
(-0.399801 0.181752 0)
(-0.674382 0.0292637 0)
(-0.843686 0.0775009 0)
(-0.882922 0.179416 0)
(-0.961826 -0.118115 0)
(-1.31886 -0.297923 0)
(-1.40013 -0.399586 0)
(-1.30771 -0.232293 0)
(-0.860412 -0.309368 0)
(-0.66681 -0.296108 0)
(0.0258268 -0.770518 0)
(-0.577864 0.603551 0)
(-0.414954 0.620958 0)
(-0.34181 0.237028 0)
(-0.458103 0.095882 0)
(-0.357833 -0.0066224 0)
(-0.285601 -0.16244 0)
(-0.0116103 -0.0334254 0)
(-0.10333 0.294014 0)
(-0.04592 0.205799 0)
(-0.1936 0.209181 0)
(-0.363434 0.121235 0)
(-0.545762 0.416294 0)
(-0.799598 0.00685589 0)
(-1.03734 -0.332198 0)
(-1.0819 -0.510622 0)
(-1.22518 -0.242604 0)
(-0.715762 -0.417307 0)
(-0.581218 -0.324159 0)
(0.0584515 -0.872786 0)
(-0.499096 0.72373 0)
(-0.326196 0.643647 0)
(-0.222182 0.224483 0)
(-0.36255 0.14549 0)
(-0.224924 0.0158472 0)
(-0.129113 -0.184886 0)
(0.0661021 -0.0704727 0)
(-0.0108011 0.166331 0)
(0.117479 0.252872 0)
(0.263833 0.198182 0)
(0.270337 0.239931 0)
(-0.284211 0.415367 0)
(-0.170498 0.122735 0)
(-0.176974 -0.34706 0)
(-0.264845 -0.495475 0)
(-0.732539 -0.310732 0)
(-0.398357 -0.460782 0)
(-0.332794 -0.441857 0)
(0.0803856 -0.892683 0)
(-0.476456 0.782463 0)
(-0.202839 0.652742 0)
(-0.0887696 0.217259 0)
(-0.211622 0.150725 0)
(0.00284274 -0.0676963 0)
(0.114036 -0.140037 0)
(0.173217 -0.0535224 0)
(0.16769 0.182393 0)
(0.255972 0.288341 0)
(0.362178 0.182195 0)
(0.380366 0.243673 0)
(0.15319 0.313087 0)
(0.368886 0.11601 0)
(0.220431 -0.132077 0)
(0.166169 -0.332818 0)
(-0.359185 -0.420206 0)
(-0.190084 -0.491678 0)
(-0.209258 -0.476743 0)
(0.12347 -0.86119 0)
(-0.416618 0.923082 0)
(-0.142515 0.651432 0)
(0.059006 0.216062 0)
(0.00678577 0.01059 0)
(0.211928 -0.117684 0)
(0.29537 -0.248808 0)
(0.339042 -0.046485 0)
(0.343002 0.091017 0)
(0.312002 0.193275 0)
(0.416813 0.165576 0)
(0.515577 0.32559 0)
(0.401321 0.259435 0)
(0.540795 0.0884437 0)
(0.430035 -0.174077 0)
(0.383244 -0.307795 0)
(0.179934 -0.245271 0)
(-0.00888857 -0.422144 0)
(-0.0306391 -0.543401 0)
(0.143625 -0.855122 0)
(-0.0601787 0.194894 0)
(-0.197663 0.177986 0)
(-0.309509 0.12929 0)
(-0.289606 0.0300621 0)
(-0.255854 0.0161158 0)
(-0.280562 0.0209077 0)
(-0.277452 0.0192549 0)
(-0.264757 0.00346725 0)
(-0.239936 0.0123943 0)
(-0.226044 -0.0105562 0)
(-0.207349 -0.00864595 0)
(-0.196991 -0.0504661 0)
(-0.181082 -0.0621145 0)
(-0.182857 -0.073424 0)
(-0.187441 -0.0828949 0)
(-0.144177 -0.11043 0)
(-0.135288 -0.152851 0)
(-0.0621103 -0.118187 0)
(-0.00116594 -0.194434 0)
(0.0507808 -0.0848236 0)
(0.117022 -0.0683582 0)
(0.211011 1.36818e-05 0)
(0.183129 0.171249 0)
(-0.107557 0.280545 0)
(-0.296078 0.246519 0)
(-0.316099 0.175422 0)
(-0.287384 0.182831 0)
(-0.25916 0.0920956 0)
(-0.264074 0.0248697 0)
(-0.278774 0.00730965 0)
(-0.248519 -0.0292205 0)
(-0.223833 -0.011534 0)
(-0.210062 -0.0233616 0)
(-0.20207 -0.00894025 0)
(-0.211611 -0.0634911 0)
(-0.200643 -0.0561623 0)
(-0.189011 -0.0919052 0)
(-0.18748 -0.0953347 0)
(-0.218218 -0.143199 0)
(-0.130673 -0.204693 0)
(-0.128434 -0.215031 0)
(-0.0475913 -0.33269 0)
(0.161706 -0.227939 0)
(0.0515168 -0.109499 0)
(0.0960513 -0.0162285 0)
(0.0911419 0.0360713 0)
(-0.127926 0.397382 0)
(-0.270385 0.311738 0)
(-0.277062 0.290276 0)
(-0.273756 0.199458 0)
(-0.350362 0.169739 0)
(-0.33257 0.0350567 0)
(-0.333837 -0.0047938 0)
(-0.237957 -0.0669717 0)
(-0.192971 -0.0439946 0)
(-0.194835 -0.0249239 0)
(-0.267187 -0.0265364 0)
(-0.281758 0.014375 0)
(-0.197793 -0.0268815 0)
(-0.282361 -0.00882642 0)
(-0.340246 -0.0692197 0)
(-0.37776 -0.125063 0)
(-0.344628 -0.256614 0)
(-0.330033 -0.383298 0)
(-0.236406 -0.306115 0)
(-0.234212 -0.336157 0)
(-0.358933 -0.183082 0)
(-0.320796 -0.0500747 0)
(-0.36207 0.286962 0)
(-0.0660295 0.498572 0)
(-0.197723 0.335951 0)
(-0.247738 0.255823 0)
(-0.215444 0.0680621 0)
(-0.33293 -0.051319 0)
(-0.432313 0.0162831 0)
(-0.430319 -0.000360464 0)
(-0.335229 0.106211 0)
(-0.188149 0.0195762 0)
(-0.233338 -0.0165454 0)
(-0.2065 -0.077723 0)
(-0.418273 0.0566355 0)
(-0.364503 -0.0091721 0)
(-0.286371 0.0265273 0)
(-0.355101 0.0420619 0)
(-0.448052 -0.185394 0)
(-0.524135 -0.318799 0)
(-0.587498 -0.298243 0)
(-0.774534 -0.121479 0)
(-0.8827 -0.0930973 0)
(-0.941525 0.0578023 0)
(-0.953052 0.311145 0)
(-0.82697 0.427033 0)
(-0.041967 0.619562 0)
(-0.175691 0.454796 0)
(-0.175101 0.306505 0)
(-0.138115 0.191595 0)
(-0.302136 -0.0163525 0)
(-0.386227 0.0595803 0)
(-0.35566 -0.0657037 0)
(-0.401908 -0.0700459 0)
(-0.383218 -0.200028 0)
(-0.430961 -0.0617999 0)
(-0.442928 -0.00937164 0)
(-0.463581 0.0136126 0)
(-0.441159 0.0956712 0)
(-0.350376 0.0634576 0)
(-0.532345 0.0562718 0)
(-0.70285 -0.0344986 0)
(-0.663947 -0.0885084 0)
(-0.661817 -0.071491 0)
(-0.931402 -0.0319657 0)
(-0.988791 -0.182938 0)
(-0.91899 -0.158001 0)
(-0.931265 0.193671 0)
(-0.952374 0.341867 0)
(-0.00184095 0.71374 0)
(-0.0937564 0.497418 0)
(0.084942 0.39115 0)
(0.0664582 0.199472 0)
(0.0903087 0.253161 0)
(-0.2783 0.268423 0)
(-0.449598 0.212511 0)
(-0.789231 0.27923 0)
(-1.11458 0.243669 0)
(-1.18479 0.107896 0)
(-1.17134 0.0270697 0)
(-1.15053 -0.0132026 0)
(-1.09018 -0.0387123 0)
(-1.04327 -0.0512483 0)
(-1.01583 -0.0469094 0)
(-1.00602 0.0253855 0)
(-0.963601 0.0461131 0)
(-0.917089 -0.0018217 0)
(-1.15536 -0.0832349 0)
(-1.32466 0.0153873 0)
(-0.924612 0.0696445 0)
(-0.747385 -0.00559011 0)
(-0.731874 -0.0247672 0)
(-0.0228926 0.744863 0)
(0.0586962 0.449686 0)
(0.258932 0.242261 0)
(-0.0478174 0.284175 0)
(-0.49752 0.485481 0)
(-1.00806 0.494105 0)
(-1.30248 0.564434 0)
(-1.47834 0.401754 0)
(-1.46617 0.130839 0)
(-1.4352 0.00512802 0)
(-1.44927 -0.0839324 0)
(-1.38622 -0.135835 0)
(-1.34851 -0.14251 0)
(-1.24445 -0.120282 0)
(-1.1829 -0.128693 0)
(-1.12579 -0.111116 0)
(-1.10668 -0.0903757 0)
(-1.06191 -0.268977 0)
(-1.01549 -0.319413 0)
(-0.993054 -0.0564642 0)
(-0.956328 0.0291094 0)
(-0.900005 -0.00161993 0)
(-0.934922 0.0184983 0)
(-0.0129825 0.748225 0)
(0.0544275 0.398246 0)
(-0.0115044 0.390371 0)
(-0.609587 0.701217 0)
(-0.938341 0.786676 0)
(-1.11194 0.904147 0)
(-1.29738 0.749343 0)
(-1.28658 0.461006 0)
(-1.18118 0.222281 0)
(-1.26532 0.0671641 0)
(-1.3683 -0.0454131 0)
(-1.32392 -0.129655 0)
(-1.305 -0.161185 0)
(-1.32573 -0.198 0)
(-1.34148 -0.217994 0)
(-1.33134 -0.22155 0)
(-1.50359 -0.212835 0)
(-1.54404 -0.204217 0)
(-1.09623 -0.175808 0)
(-0.974394 -0.0358155 0)
(-1.03999 0.120345 0)
(-1.11805 0.0776237 0)
(-1.20759 0.0460204 0)
(-0.0877727 0.776595 0)
(-0.153835 0.711494 0)
(-0.71237 0.927916 0)
(-0.980268 1.07516 0)
(-0.967669 1.07658 0)
(-0.922151 0.972166 0)
(-1.07346 0.744473 0)
(-0.790806 0.424599 0)
(-0.769542 0.310465 0)
(-0.779442 0.321009 0)
(-0.945342 0.164291 0)
(-1.15119 -0.065014 0)
(-1.31408 -0.168501 0)
(-1.30223 -0.297691 0)
(-1.31007 -0.34477 0)
(-1.33606 -0.356908 0)
(-1.41031 -0.38512 0)
(-1.4467 -0.193367 0)
(-1.30966 -0.113633 0)
(-1.24219 -0.132569 0)
(-1.43053 -0.0153978 0)
(-1.50612 0.0256008 0)
(-0.986061 0.128639 0)
(-0.146631 0.956474 0)
(-0.497065 1.28691 0)
(-0.742212 1.24005 0)
(-0.871679 1.3146 0)
(-0.79824 1.33046 0)
(-0.75214 0.946095 0)
(-0.593979 0.558195 0)
(-0.376741 0.185157 0)
(-0.359035 0.151958 0)
(-0.438926 0.370142 0)
(-0.62168 0.464752 0)
(-0.747689 0.239364 0)
(-0.791074 0.0487835 0)
(-0.978768 -0.157976 0)
(-1.11558 -0.282846 0)
(-1.28102 -0.389186 0)
(-1.39395 -0.394977 0)
(-1.3987 -0.309882 0)
(-1.38777 -0.281562 0)
(-1.30454 -0.289248 0)
(-1.27942 -0.283723 0)
(-1.26882 0.0168699 0)
(-1.11264 0.113718 0)
(-0.274322 1.38042 0)
(-0.422186 1.65177 0)
(-0.646196 1.29678 0)
(-0.762898 1.30695 0)
(-0.57183 1.16521 0)
(-0.525808 0.726725 0)
(-0.153032 0.404745 0)
(-0.15662 0.135939 0)
(-0.383372 0.288711 0)
(-0.627176 0.495214 0)
(-0.812612 0.499516 0)
(-0.912621 0.275337 0)
(-1.00219 0.141128 0)
(-1.06393 0.0652595 0)
(-1.05093 -0.049102 0)
(-0.993763 -0.233815 0)
(-0.969887 -0.247431 0)
(-1.02112 -0.260765 0)
(-1.13136 -0.297154 0)
(-1.12744 -0.336634 0)
(-1.15644 -0.364838 0)
(-1.11945 -0.314561 0)
(-1.09068 -0.228041 0)
(-0.15239 1.56133 0)
(-0.456809 1.6265 0)
(-0.646661 1.26696 0)
(-0.590486 1.1703 0)
(-0.246329 0.765357 0)
(-0.322291 0.551175 0)
(0.241478 0.239289 0)
(0.10659 0.204383 0)
(-0.397902 0.670714 0)
(-0.6738 0.835822 0)
(-0.768417 0.590234 0)
(-0.786151 0.324592 0)
(-0.733732 0.113849 0)
(-0.627158 -0.0977713 0)
(-0.548263 -0.251069 0)
(-0.482511 -0.244201 0)
(-0.455301 -0.166423 0)
(-0.370415 -0.105128 0)
(-0.312877 -0.0338658 0)
(-0.302039 -0.0368426 0)
(-0.328189 -0.0677004 0)
(-0.310474 -0.0920496 0)
(-0.355133 -0.0888529 0)
(-0.186779 1.67533 0)
(-0.408193 1.61046 0)
(-0.525577 1.17162 0)
(-0.275175 0.898583 0)
(-0.0692273 0.48457 0)
(0.0638788 0.432656 0)
(0.343275 0.301794 0)
(0.224765 0.510635 0)
(-0.24449 0.959101 0)
(-0.457958 0.964416 0)
(-0.561933 0.630518 0)
(-0.504526 0.336468 0)
(-0.432961 0.0515359 0)
(-0.400342 -0.141966 0)
(-0.431567 -0.268049 0)
(-0.463824 -0.418738 0)
(-0.510837 -0.432096 0)
(-0.432509 -0.342596 0)
(-0.330307 -0.321897 0)
(-0.364332 -0.267933 0)
(-0.351614 -0.137545 0)
(-0.341485 -0.0833971 0)
(-0.38399 -0.115561 0)
(-0.13916 1.82231 0)
(-0.349695 1.68022 0)
(-0.476792 1.10979 0)
(-0.163301 0.734289 0)
(-0.0574506 0.371902 0)
(0.322163 0.327334 0)
(0.272549 0.488222 0)
(0.0474672 1.20483 0)
(-0.220805 1.20858 0)
(-0.362622 1.03799 0)
(-0.436637 0.636823 0)
(-0.376998 0.220104 0)
(-0.420871 0.00171055 0)
(-0.480814 -0.275149 0)
(-0.480274 -0.475472 0)
(-0.34389 -0.483969 0)
(-0.294733 -0.411408 0)
(-0.426254 -0.301651 0)
(-0.409631 -0.327051 0)
(-0.456498 -0.234879 0)
(-0.606501 -0.0877974 0)
(-0.6561 -0.0860173 0)
(-0.63205 -0.0954575 0)
(-0.126534 1.94389 0)
(-0.315725 1.6603 0)
(-0.424903 1.01523 0)
(-0.0690737 0.639825 0)
(-0.0129316 0.215525 0)
(0.194223 0.172724 0)
(0.164733 0.499506 0)
(0.0166289 1.29526 0)
(-0.208824 1.35076 0)
(-0.214882 1.12843 0)
(-0.252646 0.633237 0)
(-0.205335 0.289426 0)
(-0.244381 0.0934124 0)
(-0.210672 -0.168331 0)
(-0.0227432 -0.404649 0)
(0.00446769 -0.323533 0)
(-0.0741004 -0.340261 0)
(-0.144058 -0.194132 0)
(-0.170086 -0.0485059 0)
(-0.179237 0.0350058 0)
(-0.144079 0.0449883 0)
(-0.129215 -0.0108292 0)
(-0.121345 -0.116305 0)
(-0.129842 2.0371 0)
(-0.253134 1.67037 0)
(-0.327321 0.978461 0)
(-0.065172 0.606144 0)
(-0.115705 0.10962 0)
(-0.0250272 0.058482 0)
(-0.121868 0.472841 0)
(0.0801644 1.11238 0)
(-0.123418 1.36851 0)
(-0.0967833 1.12526 0)
(-0.0659667 0.678252 0)
(0.228615 0.439521 0)
(0.261933 0.124694 0)
(0.248874 -0.319122 0)
(0.196091 -0.45038 0)
(0.13641 -0.457113 0)
(-0.0245728 -0.349045 0)
(-0.132109 -0.238949 0)
(-0.1516 -0.211853 0)
(-0.128266 -0.157353 0)
(-0.0975471 -0.106266 0)
(-0.0387982 -0.114694 0)
(-0.0958008 -0.115957 0)
(-0.129221 2.1452 0)
(-0.235848 1.71434 0)
(-0.249756 0.964471 0)
(-0.0427123 0.673272 0)
(0.0121499 0.234724 0)
(-0.203825 0.0323698 0)
(-0.269242 0.42914 0)
(0.103026 0.960276 0)
(0.0963234 1.34334 0)
(0.170319 1.20223 0)
(0.347289 0.954699 0)
(0.577365 0.466682 0)
(0.485212 0.0248437 0)
(0.319416 -0.264045 0)
(0.300248 -0.275582 0)
(0.176942 -0.356986 0)
(-0.00186866 -0.355374 0)
(-0.0849696 -0.311358 0)
(-0.0127443 -0.201368 0)
(-0.0106341 -0.220665 0)
(-0.0113321 -0.120486 0)
(-0.00487994 -0.147766 0)
(0.033792 -0.107102 0)
(-0.128605 2.22397 0)
(-0.182393 1.74072 0)
(-0.19697 1.04844 0)
(-0.122525 1.02776 0)
(-0.115888 0.29354 0)
(-0.218837 0.103099 0)
(-0.31552 0.307088 0)
(-0.0801025 0.878407 0)
(0.183356 1.06412 0)
(0.417971 0.943369 0)
(0.533701 0.765392 0)
(0.541177 0.337692 0)
(0.44335 -0.109143 0)
(0.298733 -0.2128 0)
(0.266542 -0.173772 0)
(0.175546 -0.2048 0)
(0.110241 -0.132514 0)
(0.0759921 -0.124314 0)
(0.0458725 -0.10559 0)
(0.0198055 -0.104198 0)
(0.0310615 -0.133425 0)
(0.0580137 -0.137277 0)
(0.108691 -0.169475 0)
(-0.124414 2.31861 0)
(-0.158982 1.75641 0)
(-0.0961729 1.02694 0)
(-0.210483 0.857636 0)
(-0.421253 0.147668 0)
(-0.327504 0.112964 0)
(-0.364511 0.379763 0)
(-0.199035 0.70794 0)
(-0.0257944 0.926642 0)
(0.395568 0.892576 0)
(0.514114 0.540968 0)
(0.522322 0.271641 0)
(0.353676 -0.00100243 0)
(0.290123 0.0114996 0)
(0.303547 -0.0701192 0)
(0.219491 -0.0559941 0)
(0.168776 -0.0755325 0)
(0.0597932 -0.0483756 0)
(0.0758083 -0.107237 0)
(0.0632536 -0.068579 0)
(0.0860718 -0.128938 0)
(0.0530881 -0.133618 0)
(0.0898335 -0.153795 0)
(-0.109455 2.39478 0)
(-0.102392 1.78451 0)
(0.0656159 0.946495 0)
(-0.141109 0.817863 0)
(-0.211899 0.05009 0)
(-0.236889 0.120851 0)
(-0.376646 0.429992 0)
(-0.198402 0.687719 0)
(-0.0375754 1.01184 0)
(0.117318 1.01524 0)
(0.297137 0.601568 0)
(0.231755 0.310784 0)
(0.249077 0.138224 0)
(0.240225 0.0364366 0)
(0.170721 -0.0298103 0)
(0.167466 -0.031729 0)
(0.128199 -0.0839244 0)
(0.117613 -0.118008 0)
(0.140285 -0.109387 0)
(0.112828 -0.125361 0)
(0.107227 -0.114373 0)
(0.117767 -0.13194 0)
(0.150304 -0.135271 0)
(-0.0738974 2.43941 0)
(-0.0896941 1.80849 0)
(0.171106 1.10684 0)
(0.0995509 0.951426 0)
(-0.0517681 0.303101 0)
(-0.238625 0.184353 0)
(-0.250717 0.470748 0)
(-0.144558 0.692678 0)
(-0.0874409 0.762587 0)
(-0.258284 0.646477 0)
(-0.141482 0.422076 0)
(0.0765326 0.255333 0)
(0.127276 0.153609 0)
(0.0869718 -0.0355552 0)
(0.130534 0.00264782 0)
(0.130422 -0.00440262 0)
(0.0826797 -0.0465429 0)
(0.105703 -0.0653465 0)
(0.138555 -0.108067 0)
(0.14743 -0.145305 0)
(0.155525 -0.1879 0)
(0.101936 -0.188501 0)
(0.15923 -0.213114 0)
(-0.0630019 2.48413 0)
(-0.0182965 1.80997 0)
(0.179368 1.63644 0)
(0.0442928 1.13469 0)
(-0.0719615 0.37382 0)
(-0.164994 0.418348 0)
(-0.215111 0.492902 0)
(-0.318296 0.521987 0)
(-0.384254 0.567391 0)
(-0.318328 0.469181 0)
(-0.124237 0.358386 0)
(-0.0349702 0.222968 0)
(0.00185013 0.0865394 0)
(0.0449857 0.018996 0)
(0.0836466 0.00830449 0)
(0.0715131 -0.0566226 0)
(0.07536 -0.069449 0)
(0.0963624 -0.0802207 0)
(0.104445 -0.130431 0)
(0.0970866 -0.15012 0)
(0.120931 -0.19183 0)
(0.187731 -0.175266 0)
(0.233701 -0.231598 0)
(-0.0521943 2.56112 0)
(0.132892 1.73098 0)
(0.161907 1.62338 0)
(-0.169204 1.18727 0)
(0.0439902 0.424981 0)
(-0.218206 0.621095 0)
(-0.206274 0.568392 0)
(-0.303094 0.487878 0)
(-0.404142 0.588359 0)
(-0.4099 0.406986 0)
(-0.192909 0.172065 0)
(-0.147334 0.115275 0)
(-0.0839703 0.0499732 0)
(-0.0735389 -0.0354044 0)
(-0.00509829 -0.0563221 0)
(0.00572294 -0.0929492 0)
(0.0562304 -0.0685625 0)
(0.106372 -0.09472 0)
(0.127821 -0.124615 0)
(0.139579 -0.154859 0)
(0.167588 -0.139592 0)
(0.14885 -0.145915 0)
(0.200292 -0.202807 0)
(-0.1242 2.62063 0)
(0.149344 1.80977 0)
(0.209066 1.54684 0)
(-0.131203 1.18727 0)
(0.138997 0.471417 0)
(-0.184866 0.776379 0)
(-0.288991 0.625398 0)
(-0.33404 0.532487 0)
(-0.342401 0.521516 0)
(-0.369045 0.266658 0)
(-0.279037 0.105788 0)
(-0.25399 0.0969037 0)
(-0.244551 0.00721166 0)
(-0.178294 -0.0683539 0)
(-0.0956488 -0.0808919 0)
(-0.0302412 -0.110933 0)
(0.0666074 -0.118749 0)
(0.0746854 -0.11711 0)
(0.0990802 -0.13552 0)
(0.13621 -0.177111 0)
(0.188406 -0.18622 0)
(0.188654 -0.199414 0)
(0.24009 -0.232527 0)
(-0.127112 2.66564 0)
(-0.0214915 1.9912 0)
(0.137037 1.68352 0)
(0.123003 1.32326 0)
(0.174641 0.555561 0)
(-0.25599 1.05078 0)
(-0.311014 0.827102 0)
(-0.221597 0.725501 0)
(-0.256364 0.636203 0)
(-0.494134 0.352747 0)
(-0.381132 0.156852 0)
(-0.300318 0.0907762 0)
(-0.308722 0.00367937 0)
(-0.237269 -0.201649 0)
(-0.158316 -0.224018 0)
(-0.119736 -0.132807 0)
(0.00823939 -0.174393 0)
(0.0503764 -0.121362 0)
(0.0963734 -0.191816 0)
(0.156915 -0.272678 0)
(0.187278 -0.169272 0)
(0.164313 -0.162072 0)
(0.2917 -0.206976 0)
(-0.0795426 2.68952 0)
(0.0619826 2.00647 0)
(0.00474852 2.18995 0)
(0.0370964 1.30718 0)
(0.0383724 0.780683 0)
(0.0961186 1.38464 0)
(-0.220368 1.36055 0)
(-0.204563 1.41207 0)
(-0.379548 0.732841 0)
(-0.548959 0.425355 0)
(-0.420859 0.217816 0)
(-0.41424 0.104883 0)
(-0.445226 -0.13982 0)
(-0.334823 -0.232177 0)
(-0.189007 -0.302533 0)
(-0.116521 -0.181331 0)
(-0.00522728 -0.261478 0)
(0.0176173 -0.30321 0)
(0.0119895 -0.256756 0)
(0.211515 -0.252442 0)
(0.308067 -0.261982 0)
(0.222006 -0.297406 0)
(0.226585 -0.237508 0)
(-0.0269379 2.72914 0)
(0.150792 1.99647 0)
(-0.105894 2.27153 0)
(0.0113397 1.3843 0)
(0.29807 1.35995 0)
(0.00301831 1.56112 0)
(0.0339858 1.36303 0)
(-0.156163 1.33367 0)
(-0.51125 0.639022 0)
(-0.447782 0.393086 0)
(-0.325342 0.122646 0)
(-0.476354 -0.0781023 0)
(-0.432962 -0.28811 0)
(-0.286528 -0.358663 0)
(-0.220532 -0.292687 0)
(-0.149264 -0.190179 0)
(-0.128089 -0.295138 0)
(0.0220502 -0.333037 0)
(0.115111 -0.314446 0)
(0.129587 -0.323847 0)
(0.147727 -0.408204 0)
(0.228439 -0.388613 0)
(0.206233 -0.23022 0)
(0.0074197 2.84312 0)
(0.203106 2.09324 0)
(-0.0480258 2.36644 0)
(0.00602864 1.67091 0)
(-0.00703589 1.55533 0)
(-0.25105 1.55393 0)
(-0.0822876 1.37143 0)
(-0.148524 1.1109 0)
(-0.319549 0.745165 0)
(-0.043444 0.607699 0)
(-0.187451 0.336883 0)
(-0.33936 -0.127042 0)
(-0.371479 -0.321333 0)
(-0.267525 -0.462238 0)
(-0.173347 -0.412274 0)
(-0.135768 -0.441701 0)
(-0.131261 -0.338619 0)
(-0.0224193 -0.312772 0)
(0.0257238 -0.359916 0)
(0.0881964 -0.353191 0)
(0.192911 -0.397024 0)
(0.35735 -0.41455 0)
(0.310717 -0.343903 0)
(0.0400649 2.89913 0)
(0.229872 2.275 0)
(-0.0420839 2.57919 0)
(-0.0274951 1.77397 0)
(-0.22006 1.67007 0)
(-0.385746 1.44478 0)
(-0.105788 1.34467 0)
(-0.0358404 1.05127 0)
(-0.0552451 1.28744 0)
(-0.129646 1.02979 0)
(-0.328945 0.449886 0)
(-0.281002 0.0825618 0)
(-0.385381 -0.328355 0)
(-0.2378 -0.537313 0)
(-0.196335 -0.536672 0)
(-0.120008 -0.561999 0)
(-0.00439646 -0.388022 0)
(-0.00917629 -0.396607 0)
(0.0956635 -0.382533 0)
(0.096031 -0.306043 0)
(0.0929888 -0.385392 0)
(0.278928 -0.381042 0)
(0.366675 -0.39023 0)
(0.133238 2.99932 0)
(0.454152 2.55124 0)
(0.13911 2.7658 0)
(-0.0409847 2.08096 0)
(-0.194015 1.71163 0)
(-0.289883 1.32425 0)
(-0.20515 1.19477 0)
(0.139709 1.13043 0)
(0.302945 1.15827 0)
(-0.166297 0.934943 0)
(-0.365607 0.409415 0)
(-0.129691 0.00995081 0)
(-0.345867 -0.480574 0)
(-0.130047 -0.685842 0)
(-0.092639 -0.659302 0)
(-0.0239179 -0.641254 0)
(0.0102669 -0.615029 0)
(-0.0303595 -0.46551 0)
(0.0983711 -0.45178 0)
(0.0882265 -0.30312 0)
(0.133307 -0.320933 0)
(0.297298 -0.30713 0)
(0.382949 -0.359037 0)
(0.157991 3.27291 0)
(0.390631 2.72816 0)
(0.170127 2.76104 0)
(0.0691941 2.32937 0)
(-0.0692905 1.8748 0)
(-0.065063 1.35559 0)
(-0.0831461 1.08519 0)
(0.110631 1.17656 0)
(0.238337 0.997574 0)
(0.067367 0.779535 0)
(0.0117672 0.55019 0)
(0.255036 0.125701 0)
(-0.0033622 -0.475886 0)
(0.0981895 -0.637813 0)
(0.0471416 -0.636107 0)
(-0.0608201 -0.75622 0)
(0.19754 -0.664285 0)
(0.156385 -0.520993 0)
(0.199849 -0.493095 0)
(0.192462 -0.466509 0)
(0.132033 -0.3001 0)
(0.228463 -0.350729 0)
(0.459241 -0.493124 0)
(0.0701872 3.26533 0)
(0.206345 2.72069 0)
(0.162409 2.69949 0)
(0.205023 2.37218 0)
(0.168417 2.0159 0)
(0.141289 1.42308 0)
(0.162688 0.969454 0)
(0.205674 0.987775 0)
(0.294179 0.914343 0)
(0.348921 0.886571 0)
(0.536751 0.784335 0)
(0.448589 0.387368 0)
(0.358507 -0.347914 0)
(0.357078 -0.726033 0)
(0.200872 -0.702669 0)
(0.196522 -0.64643 0)
(0.302331 -0.552683 0)
(0.174001 -0.551686 0)
(0.14885 -0.471995 0)
(0.259791 -0.493816 0)
(0.274524 -0.457203 0)
(0.168192 -0.466845 0)
(0.283922 -0.456049 0)
(0.0455654 3.1805 0)
(0.0347342 2.64892 0)
(0.0393648 2.51262 0)
(0.229765 2.26042 0)
(0.26162 1.91963 0)
(0.349093 1.34729 0)
(0.339493 0.987633 0)
(0.296757 0.979556 0)
(0.403945 0.958557 0)
(0.723816 0.993442 0)
(0.707278 0.794195 0)
(0.369609 0.281169 0)
(0.390812 -0.384772 0)
(0.57879 -0.578044 0)
(0.508695 -0.595488 0)
(0.295057 -0.569468 0)
(0.295636 -0.575352 0)
(0.234861 -0.502248 0)
(0.244225 -0.449493 0)
(0.210103 -0.507396 0)
(0.189538 -0.481145 0)
(0.255882 -0.443487 0)
(0.347224 -0.414083 0)
(0.0538928 3.16237 0)
(0.0207686 2.64539 0)
(-0.00513871 2.31966 0)
(0.205508 2.00649 0)
(0.345139 1.65773 0)
(0.460071 1.21754 0)
(0.478756 1.03049 0)
(0.478132 1.03001 0)
(0.511615 1.04843 0)
(0.602371 0.979461 0)
(0.677383 0.71395 0)
(0.472669 0.273688 0)
(0.689684 -0.154145 0)
(0.82585 -0.371613 0)
(0.527173 -0.515501 0)
(0.253473 -0.532413 0)
(0.376251 -0.559264 0)
(0.346606 -0.510897 0)
(0.18723 -0.444874 0)
(0.249614 -0.477431 0)
(0.343505 -0.411267 0)
(0.28419 -0.330815 0)
(0.281017 -0.412292 0)
(0.0995701 3.09336 0)
(0.0665011 2.63586 0)
(0.179945 2.07454 0)
(0.264351 1.76203 0)
(0.410099 1.4821 0)
(0.43176 1.1504 0)
(0.438527 1.05176 0)
(0.420094 1.02444 0)
(0.47151 0.977558 0)
(0.4109 0.834953 0)
(0.611367 0.661382 0)
(0.556593 0.159706 0)
(0.767797 -0.00445253 0)
(0.906214 -0.325652 0)
(0.628775 -0.570545 0)
(0.45346 -0.63443 0)
(0.384484 -0.524325 0)
(0.368251 -0.573053 0)
(0.372 -0.442909 0)
(0.303076 -0.413343 0)
(0.364527 -0.415634 0)
(0.281445 -0.484151 0)
(0.25502 -0.49506 0)
(0.18414 2.78946 0)
(0.232743 2.50649 0)
(0.427339 1.91137 0)
(0.389028 1.62443 0)
(0.42708 1.43152 0)
(0.361505 1.21078 0)
(0.291658 1.13347 0)
(0.254459 0.972568 0)
(0.410216 0.913184 0)
(0.381729 0.701418 0)
(0.395134 0.50924 0)
(0.572037 0.101139 0)
(1.02048 -0.0444477 0)
(0.927483 -0.235395 0)
(0.450934 -0.417838 0)
(0.411567 -0.516852 0)
(0.438695 -0.524544 0)
(0.444722 -0.42759 0)
(0.398606 -0.441548 0)
(0.251465 -0.388256 0)
(0.271905 -0.448073 0)
(0.27101 -0.533609 0)
(0.361861 -0.578791 0)
(0.159823 2.24305 0)
(0.478947 2.23798 0)
(0.54535 1.87306 0)
(0.467834 1.65274 0)
(0.418138 1.55753 0)
(0.307666 1.42828 0)
(0.230328 1.22783 0)
(0.20338 0.854813 0)
(0.283699 0.709096 0)
(0.400478 0.361849 0)
(0.454851 0.359431 0)
(0.627579 0.226527 0)
(0.917654 -0.110594 0)
(0.578802 -0.383475 0)
(0.294391 -0.444785 0)
(0.353176 -0.308187 0)
(0.404359 -0.358174 0)
(0.393594 -0.330783 0)
(0.337077 -0.434149 0)
(0.275103 -0.470254 0)
(0.252224 -0.498463 0)
(0.219086 -0.483567 0)
(0.259668 -0.605367 0)
(0.0565897 1.59797 0)
(0.483625 1.99204 0)
(0.521531 1.85544 0)
(0.477714 1.76778 0)
(0.394148 1.72972 0)
(0.29962 1.56806 0)
(0.259638 1.26841 0)
(0.307688 0.742685 0)
(0.287774 0.585347 0)
(0.421881 0.41377 0)
(0.586217 0.316154 0)
(0.748475 0.261317 0)
(0.765647 0.0542987 0)
(0.3931 -0.24841 0)
(0.333787 -0.189711 0)
(0.365171 -0.216446 0)
(0.330512 -0.255309 0)
(0.304421 -0.407253 0)
(0.196436 -0.399316 0)
(0.227142 -0.513625 0)
(0.359085 -0.474122 0)
(0.221422 -0.503543 0)
(0.175242 -0.469711 0)
(0.0146885 1.234 0)
(0.282067 1.63949 0)
(0.381428 1.88321 0)
(0.394284 1.85927 0)
(0.341817 1.80429 0)
(0.302529 1.6094 0)
(0.278485 1.20589 0)
(0.399245 0.754837 0)
(0.525217 0.547731 0)
(0.510329 0.480451 0)
(0.556062 0.262769 0)
(0.618465 0.134774 0)
(0.414375 -0.249823 0)
(0.292787 -0.336762 0)
(0.359339 -0.25527 0)
(0.287889 -0.257565 0)
(0.168461 -0.310214 0)
(0.225235 -0.378756 0)
(0.230618 -0.353765 0)
(0.202309 -0.355577 0)
(0.320896 -0.474306 0)
(0.208056 -0.529391 0)
(0.121291 -0.496089 0)
(-0.015935 1.12934 0)
(0.119805 1.34896 0)
(0.171629 1.75238 0)
(0.274709 1.84948 0)
(0.301337 1.79049 0)
(0.318358 1.53996 0)
(0.323697 1.08496 0)
(0.381257 0.864509 0)
(0.400635 0.621154 0)
(0.465349 0.485156 0)
(0.465389 0.284538 0)
(0.525856 0.165551 0)
(0.44094 -0.0289895 0)
(0.417025 -0.0736312 0)
(0.443712 -0.195148 0)
(0.328884 -0.210689 0)
(0.173093 -0.205681 0)
(0.234754 -0.211588 0)
(0.200408 -0.31548 0)
(0.0696345 -0.348984 0)
(0.211281 -0.424218 0)