/*--------------------------------*- C++ -*----------------------------------*\
| =========                 |                                                 |
| \\      /  F ield         | foam-extend: Open Source CFD                    |
|  \\    /   O peration     | Version:     4.1                                |
|   \\  /    A nd           | Web:         http://www.foam-extend.org         |
|    \\/     M anipulation  |                                                 |
\*---------------------------------------------------------------------------*/
FoamFile
{
    version     2.0;
    format      ascii;
    class       volVectorField;
    location    "0.75";
    object      U_0;
}
// * * * * * * * * * * * * * * * * * * * * * * * * * * * * * * * * * * * * * //

dimensions      [0 1 -1 0 0 0 0];

internalField   nonuniform List<vector> 
2268
(
(-0.00346486 0.0166471 0)
(-0.0904213 0.0175986 0)
(-0.110791 0.00368798 0)
(-0.151018 -0.0211433 0)
(-0.176769 0.000869826 0)
(-0.160628 -0.000825862 0)
(-0.170117 0.00179643 0)
(-0.165315 -0.00351049 0)
(-0.15337 -0.00669404 0)
(-0.160598 -0.00856716 0)
(-0.117184 -0.0164113 0)
(-0.0648024 0.000237637 0)
(-0.0463797 -0.00739664 0)
(-0.0397906 -0.0113017 0)
(-0.0210355 -0.0192209 0)
(-0.00940489 -0.0086723 0)
(0.00331531 -0.00731225 0)
(0.0176784 -0.00572048 0)
(0.0172709 -0.00826599 0)
(0.0441946 -0.00642056 0)
(0.0481835 0.00550824 0)
(0.0258064 0.00456085 0)
(0.0208411 0.00308581 0)
(0.00461454 0.0261606 0)
(-0.0840925 0.0353273 0)
(-0.1131 0.018712 0)
(-0.147975 -0.0197085 0)
(-0.171637 0.000324406 0)
(-0.159859 -0.00231996 0)
(-0.167991 -0.00032288 0)
(-0.160573 -0.000718752 0)
(-0.138606 0.00594452 0)
(-0.135997 -0.00823506 0)
(-0.0803531 -0.00725029 0)
(-0.0550698 0.00994697 0)
(-0.0437945 -0.00536564 0)
(-0.041561 -0.012752 0)
(-0.0133223 -0.00837233 0)
(0.00270951 -0.00642766 0)
(0.0159508 -0.00466827 0)
(0.0368536 -0.000385307 0)
(0.0351896 0.00641679 0)
(0.0475061 -0.0163053 0)
(0.0396136 0.00222692 0)
(0.0261968 0.00943058 0)
(0.0369222 0.0178075 0)
(-0.0069129 0.0371787 0)
(-0.091856 0.0476844 0)
(-0.120253 0.0196832 0)
(-0.152935 -0.00717637 0)
(-0.17137 0.00304504 0)
(-0.156855 -0.000965106 0)
(-0.16377 0.00535061 0)
(-0.156227 -0.0117324 0)
(-0.140844 -0.014311 0)
(-0.146354 -0.0355048 0)
(-0.0955769 -0.00290284 0)
(-0.0694634 -0.0221602 0)
(-0.0760518 -0.0309477 0)
(-0.0692124 -0.034767 0)
(-0.0513058 -0.0270799 0)
(-0.0385778 -0.0341068 0)
(0.00269697 -0.0231485 0)
(0.0207665 -0.0139339 0)
(0.0313306 -0.0223669 0)
(0.0427377 -0.0104859 0)
(0.0615366 0.000785735 0)
(0.0278313 0.0108176 0)
(0.0326018 0.0378783 0)
(-0.014916 0.0701638 0)
(-0.104189 0.0408833 0)
(-0.132234 0.0309147 0)
(-0.153791 -0.00558613 0)
(-0.167861 0.0010129 0)
(-0.15782 -0.0046589 0)
(-0.173508 -0.00190075 0)
(-0.171418 -0.024201 0)
(-0.146693 -0.00405137 0)
(-0.130914 0.00506888 0)
(-0.120858 0.0100828 0)
(-0.126992 -0.00708235 0)
(-0.125459 -0.0049076 0)
(-0.120333 -0.00315454 0)
(-0.0994095 -0.0233426 0)
(-0.0817752 -0.0294504 0)
(-0.0399593 -0.021002 0)
(-0.0230611 -0.012664 0)
(0.00203016 -0.018965 0)
(0.00692276 -0.0124007 0)
(0.0528366 0.0165861 0)
(0.0252574 0.0386685 0)
(0.0435222 0.0387098 0)
(-0.0340993 0.0914334 0)
(-0.113706 0.0514483 0)
(-0.138879 0.0295874 0)
(-0.161794 0.00134035 0)
(-0.172994 0.00328489 0)
(-0.170319 -8.54064e-05 0)
(-0.18748 0.0076353 0)
(-0.160963 0.000546434 0)
(-0.152227 -0.0311944 0)
(-0.155284 0.0115391 0)
(-0.159003 -0.00254876 0)
(-0.167567 -0.0164371 0)
(-0.155408 -0.0346903 0)
(-0.158399 -0.0503018 0)
(-0.146615 -0.0423821 0)
(-0.125717 -0.0593533 0)
(-0.0912856 -0.052845 0)
(-0.0725393 -0.0329108 0)
(-0.0454101 -0.0154389 0)
(-0.0194757 -0.0387285 0)
(0.0411373 -0.0217912 0)
(0.0108087 0.0428576 0)
(0.0318637 0.0770822 0)
(-0.0316789 0.108312 0)
(-0.128486 0.0618072 0)
(-0.154287 0.0452056 0)
(-0.166098 0.00388247 0)
(-0.17323 0.00432886 0)
(-0.165187 -0.00288129 0)
(-0.186642 0.00549615 0)
(-0.212263 0.0304931 0)
(-0.193504 0.0147613 0)
(-0.180414 0.0147842 0)
(-0.195736 0.014782 0)
(-0.197681 -0.0107617 0)
(-0.19156 -0.0198344 0)
(-0.179825 -0.0419701 0)
(-0.157283 -0.0421208 0)
(-0.150126 -0.0578366 0)
(-0.115707 -0.0416443 0)
(-0.09993 -0.0263691 0)
(-0.0718609 -0.0581081 0)
(-0.0303306 -0.0478385 0)
(0.0293448 0.0103388 0)
(0.0730396 0.0434826 0)
(0.0514172 0.114495 0)
(-0.0522057 0.128821 0)
(-0.152046 0.0908284 0)
(-0.19476 0.0335947 0)
(-0.197047 0.00614108 0)
(-0.199336 0.00140119 0)
(-0.211683 0.00352038 0)
(-0.223596 0.0119489 0)
(-0.225581 0.0183962 0)
(-0.218889 0.0347742 0)
(-0.216584 0.011018 0)
(-0.20751 0.00921927 0)
(-0.204127 -0.00558997 0)
(-0.191886 -0.0128301 0)
(-0.190106 -0.0358693 0)
(-0.172382 -0.054863 0)
(-0.143421 -0.0791941 0)
(-0.11426 -0.093443 0)
(-0.119276 -0.113505 0)
(-0.0666597 -0.0950462 0)
(0.00334206 -0.0589862 0)
(0.0361206 -0.0871786 0)
(0.108109 0.0173354 0)
(0.0504991 0.215999 0)
(-0.0396806 0.160411 0)
(-0.185399 0.15723 0)
(-0.226431 0.0795354 0)
(-0.216501 0.00671313 0)
(-0.23888 0.0157791 0)
(-0.259815 0.00620374 0)
(-0.265746 0.0119463 0)
(-0.259165 0.013164 0)
(-0.237795 0.0209517 0)
(-0.227334 0.014804 0)
(-0.216493 0.0105037 0)
(-0.206257 -0.0200292 0)
(-0.204225 -0.0326742 0)
(-0.191851 -0.0405981 0)
(-0.175592 -0.0651952 0)
(-0.154685 -0.0859947 0)
(-0.116269 -0.0999931 0)
(-0.0943637 -0.154358 0)
(-0.0415171 -0.0611238 0)
(-0.00359657 -0.0760413 0)
(0.0727783 -0.104717 0)
(0.204764 -0.00156251 0)
(0.1066 0.220381 0)
(-0.730321 0.139098 0)
(-0.706803 0.108434 0)
(-0.959051 -0.0117427 0)
(-1.17501 0.0607618 0)
(-1.29823 -0.0282954 0)
(-1.35129 -0.0464835 0)
(-1.40212 -0.0232824 0)
(-1.38565 -0.00200972 0)
(-1.44536 0.00220038 0)
(-1.62799 -0.0343322 0)
(-1.6789 -0.0506171 0)
(-1.68133 -0.0550361 0)
(-1.68376 -0.00603651 0)
(-1.69223 -0.146252 0)
(-1.76344 -0.189882 0)
(-1.76611 -0.122171 0)
(-1.1471 -0.0506083 0)
(-0.862973 -0.371287 0)
(-0.181584 -0.0485206 0)
(-0.659188 0.219597 0)
(-0.631405 0.241921 0)
(-0.833061 0.225502 0)
(-1.03972 0.144632 0)
(-1.05992 0.0328303 0)
(-1.08213 0.0300039 0)
(-1.16284 0.0821097 0)
(-1.17702 0.121629 0)
(-1.34584 0.122054 0)
(-1.52799 0.0535058 0)
(-1.59264 0.0737784 0)
(-1.57055 0.0607876 0)
(-1.72803 0.0306317 0)
(-1.89464 -0.00200061 0)
(-1.89099 -0.264496 0)
(-1.81384 -0.0235268 0)
(-1.31688 0.187862 0)
(-0.801185 -0.41628 0)
(-0.214532 -0.40245 0)
(-0.664477 0.397539 0)
(-0.599625 0.426386 0)
(-0.738573 0.23197 0)
(-0.845455 0.137637 0)
(-0.711493 0.0489489 0)
(-0.622754 0.061819 0)
(-0.682722 0.0793283 0)
(-0.701664 0.0825298 0)
(-1.00199 0.139512 0)
(-1.15453 0.0756898 0)
(-1.24879 0.109362 0)
(-1.24296 -0.107843 0)
(-1.47552 -0.286388 0)
(-1.71756 -0.179243 0)
(-1.84458 -0.428271 0)
(-1.6049 -0.294313 0)
(-1.39774 -0.131365 0)
(-0.604417 -0.303216 0)
(-0.113141 -0.541143 0)
(-0.600422 0.510488 0)
(-0.558341 0.506145 0)
(-0.568229 0.162108 0)
(-0.643418 0.0293149 0)
(-0.622316 0.127608 0)
(-0.403503 -0.00484772 0)
(-0.323649 0.0768014 0)
(-0.377114 0.329373 0)
(-0.382607 0.18991 0)
(-0.671852 0.0391465 0)
(-0.833563 0.0730911 0)
(-0.87458 0.173173 0)
(-0.951844 -0.117208 0)
(-1.31986 -0.291043 0)
(-1.40942 -0.386727 0)
(-1.3193 -0.228044 0)
(-0.87234 -0.305957 0)
(-0.675711 -0.29487 0)
(0.0212906 -0.769609 0)
(-0.584363 0.606841 0)
(-0.415064 0.620541 0)
(-0.340708 0.232854 0)
(-0.461205 0.0950423 0)
(-0.354345 -0.0161326 0)
(-0.285477 -0.175835 0)
(-0.00719031 -0.0373852 0)
(-0.0970769 0.283687 0)
(-0.0383407 0.208219 0)
(-0.173711 0.217321 0)
(-0.348167 0.129875 0)
(-0.541855 0.416768 0)
(-0.788295 0.00938072 0)
(-1.0535 -0.320318 0)
(-1.10544 -0.510713 0)
(-1.24409 -0.232916 0)
(-0.734633 -0.415284 0)
(-0.592295 -0.321569 0)
(0.0594716 -0.874379 0)
(-0.502459 0.726498 0)
(-0.32752 0.642891 0)
(-0.225227 0.219218 0)
(-0.371794 0.13927 0)
(-0.224672 0.00597733 0)
(-0.126288 -0.193573 0)
(0.0716284 -0.0750509 0)
(-0.00433067 0.162861 0)
(0.118995 0.254714 0)
(0.273884 0.202189 0)
(0.276429 0.250532 0)
(-0.285029 0.417048 0)
(-0.178518 0.128044 0)
(-0.210259 -0.343053 0)
(-0.285493 -0.500346 0)
(-0.74617 -0.305993 0)
(-0.41201 -0.457925 0)
(-0.336232 -0.440934 0)
(0.0827971 -0.901629 0)
(-0.480586 0.78646 0)
(-0.202474 0.652845 0)
(-0.0932065 0.213422 0)
(-0.219442 0.146581 0)
(0.00663593 -0.0761472 0)
(0.116091 -0.147154 0)
(0.17846 -0.0573112 0)
(0.17497 0.178658 0)
(0.255543 0.291069 0)
(0.364178 0.186496 0)
(0.384329 0.249812 0)
(0.157102 0.319147 0)
(0.36602 0.133182 0)
(0.216174 -0.115048 0)
(0.165914 -0.327732 0)
(-0.373684 -0.417029 0)
(-0.199115 -0.489944 0)
(-0.215483 -0.473984 0)
(0.121507 -0.869811 0)
(-0.418446 0.92639 0)
(-0.142986 0.652865 0)
(0.0570025 0.213328 0)
(-0.000406597 0.00725947 0)
(0.214441 -0.129027 0)
(0.294827 -0.256759 0)
(0.342843 -0.0508709 0)
(0.347143 0.0884809 0)
(0.311245 0.198153 0)
(0.415315 0.169869 0)
(0.517705 0.330556 0)
(0.406141 0.266922 0)
(0.543115 0.101169 0)
(0.433837 -0.160706 0)
(0.391989 -0.29953 0)
(0.16728 -0.239137 0)
(-0.0125483 -0.422331 0)
(-0.0309514 -0.540781 0)
(0.143826 -0.849268 0)
(-0.0603213 0.194166 0)
(-0.197404 0.177907 0)
(-0.309357 0.130273 0)
(-0.289927 0.0306664 0)
(-0.256274 0.01674 0)
(-0.281579 0.0214569 0)
(-0.278889 0.0198171 0)
(-0.266542 0.003792 0)
(-0.241532 0.0125494 0)
(-0.22761 -0.010432 0)
(-0.208541 -0.00834573 0)
(-0.197945 -0.0501226 0)
(-0.182056 -0.0614832 0)
(-0.183773 -0.0726112 0)
(-0.188148 -0.0817646 0)
(-0.14479 -0.109244 0)
(-0.138489 -0.153232 0)
(-0.0684174 -0.119397 0)
(-0.00801741 -0.194392 0)
(0.0426728 -0.0845843 0)
(0.113272 -0.0733922 0)
(0.211288 -0.00433758 0)
(0.184988 0.171352 0)
(-0.107993 0.28081 0)
(-0.297365 0.247019 0)
(-0.317296 0.17658 0)
(-0.288036 0.184034 0)
(-0.260172 0.0936651 0)
(-0.266003 0.0258623 0)
(-0.281099 0.00747713 0)
(-0.250861 -0.0293917 0)
(-0.225569 -0.0116879 0)
(-0.21142 -0.0236876 0)
(-0.202916 -0.00930447 0)
(-0.211939 -0.0636983 0)
(-0.200361 -0.0557767 0)
(-0.188812 -0.0909496 0)
(-0.187373 -0.0938808 0)
(-0.219807 -0.141152 0)
(-0.134454 -0.203901 0)
(-0.132837 -0.212861 0)
(-0.0508916 -0.33397 0)
(0.156544 -0.230503 0)
(0.0501651 -0.121821 0)
(0.0986044 -0.0210011 0)
(0.0922386 0.0344684 0)
(-0.126761 0.398168 0)
(-0.271076 0.312454 0)
(-0.277692 0.291752 0)
(-0.275148 0.201118 0)
(-0.351876 0.171294 0)
(-0.334162 0.0361183 0)
(-0.336754 -0.0037174 0)
(-0.239121 -0.0662552 0)
(-0.194043 -0.0443205 0)
(-0.196387 -0.0259695 0)
(-0.267798 -0.0274992 0)
(-0.281072 0.0136506 0)
(-0.195959 -0.0276119 0)
(-0.278994 -0.00852038 0)
(-0.337946 -0.0669826 0)
(-0.37744 -0.11986 0)
(-0.347448 -0.243715 0)
(-0.33662 -0.380063 0)
(-0.234532 -0.310549 0)
(-0.227045 -0.342836 0)
(-0.35411 -0.190261 0)
(-0.319267 -0.0592549 0)
(-0.362462 0.28583 0)
(-0.0636956 0.498772 0)
(-0.198558 0.336877 0)
(-0.247956 0.256469 0)
(-0.215437 0.069761 0)
(-0.333918 -0.0497861 0)
(-0.431945 0.0160872 0)
(-0.430553 9.78383e-06 0)
(-0.339775 0.104203 0)
(-0.194133 0.0188215 0)
(-0.2364 -0.0196377 0)
(-0.207899 -0.0814782 0)
(-0.41889 0.0529439 0)
(-0.363717 -0.0126166 0)
(-0.286214 0.0257608 0)
(-0.354929 0.0445044 0)
(-0.441263 -0.17326 0)
(-0.523495 -0.314258 0)
(-0.57209 -0.308542 0)
(-0.761082 -0.122517 0)
(-0.883792 -0.0984249 0)
(-0.946234 0.0452688 0)
(-0.961027 0.311928 0)
(-0.837035 0.429634 0)
(-0.0415489 0.617707 0)
(-0.175026 0.45812 0)
(-0.172011 0.306711 0)
(-0.130917 0.194671 0)
(-0.295446 -0.0150449 0)
(-0.387782 0.0648445 0)
(-0.360743 -0.0533176 0)
(-0.405647 -0.060067 0)
(-0.383928 -0.200875 0)
(-0.435499 -0.0712965 0)
(-0.448321 -0.0187605 0)
(-0.465476 0.00738259 0)
(-0.444132 0.0924552 0)
(-0.354771 0.0622641 0)
(-0.530946 0.060346 0)
(-0.697717 -0.0341027 0)
(-0.659915 -0.0946502 0)
(-0.641197 -0.0720083 0)
(-0.93553 -0.0277006 0)
(-1.00733 -0.189856 0)
(-0.916926 -0.16392 0)
(-0.928867 0.192016 0)
(-0.960747 0.34199 0)
(-0.000850567 0.716149 0)
(-0.0904795 0.497931 0)
(0.0978409 0.388383 0)
(0.085961 0.200676 0)
(0.101444 0.263158 0)
(-0.2658 0.277421 0)
(-0.440212 0.215003 0)
(-0.768645 0.278331 0)
(-1.10776 0.245531 0)
(-1.18936 0.111558 0)
(-1.17907 0.0260952 0)
(-1.15708 -0.014947 0)
(-1.09599 -0.0424645 0)
(-1.04939 -0.0550011 0)
(-1.02282 -0.0514992 0)
(-1.01161 0.0228943 0)
(-0.971471 0.042907 0)
(-0.927659 -0.00209987 0)
(-1.15673 -0.087513 0)
(-1.32526 0.0170381 0)
(-0.935869 0.0845565 0)
(-0.752382 0.000124014 0)
(-0.735581 -0.0197624 0)
(-0.0221324 0.744022 0)
(0.0648402 0.438827 0)
(0.266739 0.23629 0)
(-0.0347688 0.283441 0)
(-0.495938 0.494592 0)
(-0.989014 0.4929 0)
(-1.29742 0.565371 0)
(-1.47688 0.41463 0)
(-1.47566 0.136404 0)
(-1.4395 0.00448696 0)
(-1.457 -0.0845473 0)
(-1.3939 -0.139587 0)
(-1.35952 -0.153024 0)
(-1.2572 -0.129655 0)
(-1.19246 -0.131686 0)
(-1.13677 -0.112347 0)
(-1.11849 -0.0909424 0)
(-1.07413 -0.268444 0)
(-1.0255 -0.316451 0)
(-0.996055 -0.0535834 0)
(-0.951805 0.0263114 0)
(-0.88825 -0.0153085 0)
(-0.918762 -0.00263047 0)
(-0.0143421 0.742379 0)
(0.0492038 0.393137 0)
(-0.0314265 0.396101 0)
(-0.630507 0.707243 0)
(-0.944521 0.785391 0)
(-1.10527 0.901866 0)
(-1.29916 0.75931 0)
(-1.28673 0.477904 0)
(-1.18078 0.229018 0)
(-1.24203 0.0763558 0)
(-1.36487 -0.0470013 0)
(-1.32666 -0.133634 0)
(-1.30523 -0.165118 0)
(-1.32072 -0.197737 0)
(-1.33908 -0.220087 0)
(-1.33283 -0.225433 0)
(-1.51386 -0.215495 0)
(-1.55614 -0.20579 0)
(-1.10548 -0.177238 0)
(-0.981513 -0.0450689 0)
(-1.03939 0.107455 0)
(-1.10084 0.0640213 0)
(-1.20181 0.0307711 0)
(-0.0933794 0.777042 0)
(-0.176727 0.732283 0)
(-0.731686 0.924631 0)
(-0.992369 1.06735 0)
(-0.976566 1.07158 0)
(-0.927649 0.978154 0)
(-1.07527 0.750664 0)
(-0.788054 0.428588 0)
(-0.75455 0.305839 0)
(-0.748393 0.322375 0)
(-0.897626 0.178948 0)
(-1.11102 -0.0553669 0)
(-1.29806 -0.159923 0)
(-1.30272 -0.293846 0)
(-1.30556 -0.346818 0)
(-1.3369 -0.362065 0)
(-1.41135 -0.389315 0)
(-1.45095 -0.193376 0)
(-1.31842 -0.114851 0)
(-1.24995 -0.136068 0)
(-1.43702 -0.0275961 0)
(-1.51483 0.0121618 0)
(-0.990796 0.118911 0)
(-0.155954 0.975774 0)
(-0.515721 1.29469 0)
(-0.752147 1.23482 0)
(-0.881632 1.30107 0)
(-0.79963 1.31522 0)
(-0.758061 0.943453 0)
(-0.585703 0.566618 0)
(-0.368933 0.18181 0)
(-0.341131 0.134694 0)
(-0.408609 0.334699 0)
(-0.605152 0.464313 0)
(-0.736725 0.260129 0)
(-0.777153 0.0714795 0)
(-0.953985 -0.14815 0)
(-1.0993 -0.283303 0)
(-1.2546 -0.385583 0)
(-1.37936 -0.394691 0)
(-1.396 -0.309859 0)
(-1.39118 -0.283256 0)
(-1.31788 -0.292828 0)
(-1.29478 -0.291546 0)
(-1.2799 0.00928826 0)
(-1.12943 0.109005 0)
(-0.278212 1.40656 0)
(-0.429147 1.6624 0)
(-0.657178 1.29407 0)
(-0.770107 1.29634 0)
(-0.550854 1.13243 0)
(-0.518778 0.716218 0)
(-0.138778 0.406518 0)
(-0.141358 0.136484 0)
(-0.357642 0.272333 0)
(-0.609334 0.483906 0)
(-0.811095 0.501307 0)
(-0.911985 0.291079 0)
(-1.00078 0.147925 0)
(-1.06636 0.0717313 0)
(-1.06701 -0.0244213 0)
(-1.01214 -0.21944 0)
(-0.983184 -0.245574 0)
(-1.02181 -0.26142 0)
(-1.13463 -0.299454 0)
(-1.13518 -0.337164 0)
(-1.16251 -0.360369 0)
(-1.12557 -0.313888 0)
(-1.10372 -0.232181 0)
(-0.159956 1.59184 0)
(-0.461428 1.63704 0)
(-0.65553 1.26074 0)
(-0.588709 1.15309 0)
(-0.243256 0.740088 0)
(-0.321446 0.54396 0)
(0.250762 0.241286 0)
(0.126652 0.205406 0)
(-0.37126 0.654327 0)
(-0.667397 0.839784 0)
(-0.769681 0.606468 0)
(-0.786919 0.335901 0)
(-0.742979 0.127279 0)
(-0.646487 -0.0697013 0)
(-0.559889 -0.233165 0)
(-0.492583 -0.243351 0)
(-0.469423 -0.183676 0)
(-0.386439 -0.118092 0)
(-0.323061 -0.0435227 0)
(-0.311865 -0.0416088 0)
(-0.33346 -0.0654518 0)
(-0.311009 -0.0918506 0)
(-0.353918 -0.0937558 0)
(-0.19467 1.70938 0)
(-0.411327 1.62188 0)
(-0.529626 1.1593 0)
(-0.272354 0.876174 0)
(-0.085948 0.460332 0)
(0.0622592 0.417302 0)
(0.336932 0.303688 0)
(0.229399 0.501068 0)
(-0.2436 0.947899 0)
(-0.460117 0.977582 0)
(-0.561101 0.645481 0)
(-0.509875 0.354977 0)
(-0.443539 0.0776697 0)
(-0.406473 -0.11504 0)
(-0.428569 -0.240775 0)
(-0.462179 -0.412262 0)
(-0.515828 -0.447371 0)
(-0.440744 -0.355712 0)
(-0.340427 -0.335496 0)
(-0.372967 -0.276494 0)
(-0.35367 -0.140932 0)
(-0.342879 -0.0872193 0)
(-0.387218 -0.120889 0)
(-0.144404 1.85858 0)
(-0.350361 1.69537 0)
(-0.481634 1.10636 0)
(-0.174037 0.721554 0)
(-0.0873494 0.355405 0)
(0.307284 0.306803 0)
(0.229595 0.495876 0)
(0.0219754 1.18483 0)
(-0.228441 1.19041 0)
(-0.367862 1.04252 0)
(-0.439863 0.65302 0)
(-0.386369 0.244098 0)
(-0.42696 0.0267636 0)
(-0.485557 -0.239315 0)
(-0.483999 -0.454314 0)
(-0.349251 -0.478061 0)
(-0.297761 -0.417386 0)
(-0.427085 -0.314846 0)
(-0.409723 -0.341727 0)
(-0.445355 -0.250123 0)
(-0.599176 -0.0920038 0)
(-0.656823 -0.087465 0)
(-0.638544 -0.0902379 0)
(-0.130122 1.98181 0)
(-0.316024 1.67829 0)
(-0.433216 1.02187 0)
(-0.0881054 0.639986 0)
(-0.0411678 0.21109 0)
(0.154097 0.160251 0)
(0.0950353 0.485168 0)
(-0.0016427 1.26176 0)
(-0.218598 1.33654 0)
(-0.219619 1.12656 0)
(-0.253345 0.645468 0)
(-0.210905 0.309098 0)
(-0.240398 0.115482 0)
(-0.206704 -0.136485 0)
(-0.0156775 -0.38354 0)
(0.0145499 -0.318412 0)
(-0.0597081 -0.348896 0)
(-0.137819 -0.207067 0)
(-0.16867 -0.0640255 0)
(-0.181017 0.0237801 0)
(-0.147383 0.0406994 0)
(-0.133107 -0.00827481 0)
(-0.123951 -0.111033 0)
(-0.131844 2.07761 0)
(-0.251681 1.68809 0)
(-0.334137 0.990897 0)
(-0.0879901 0.62003 0)
(-0.143286 0.113115 0)
(-0.0537224 0.0512261 0)
(-0.179565 0.454738 0)
(0.0684255 1.06719 0)
(-0.129222 1.35448 0)
(-0.100548 1.13192 0)
(-0.0734414 0.695541 0)
(0.234549 0.458787 0)
(0.272823 0.142046 0)
(0.265672 -0.301291 0)
(0.212317 -0.451273 0)
(0.15149 -0.455462 0)
(-0.00744742 -0.353735 0)
(-0.122869 -0.24502 0)
(-0.148806 -0.218149 0)
(-0.129149 -0.163542 0)
(-0.101425 -0.108052 0)
(-0.0435773 -0.115835 0)
(-0.0971547 -0.116472 0)
(-0.131339 2.18502 0)
(-0.233871 1.73434 0)
(-0.257528 0.978086 0)
(-0.0609085 0.688429 0)
(-0.00236694 0.244641 0)
(-0.225862 0.0254917 0)
(-0.302981 0.402848 0)
(0.0750615 0.925045 0)
(0.0946423 1.30501 0)
(0.172944 1.18486 0)
(0.349803 0.953096 0)
(0.576352 0.484687 0)
(0.490245 0.0433218 0)
(0.326714 -0.235671 0)
(0.305981 -0.262852 0)
(0.186932 -0.347337 0)
(0.00551463 -0.350892 0)
(-0.0825403 -0.314746 0)
(-0.0134564 -0.204924 0)
(-0.00977415 -0.225863 0)
(-0.0141286 -0.123011 0)
(-0.00866833 -0.149058 0)
(0.0313934 -0.105938 0)
(-0.127841 2.26191 0)
(-0.180746 1.7607 0)
(-0.204801 1.06264 0)
(-0.132288 1.05102 0)
(-0.122291 0.304023 0)
(-0.228258 0.0995444 0)
(-0.333417 0.284575 0)
(-0.120664 0.833966 0)
(0.167183 1.00509 0)
(0.400575 0.911747 0)
(0.517518 0.753989 0)
(0.531575 0.343549 0)
(0.438624 -0.086085 0)
(0.298656 -0.193752 0)
(0.263314 -0.158774 0)
(0.177542 -0.198604 0)
(0.11231 -0.13167 0)
(0.0767837 -0.125467 0)
(0.0453735 -0.107142 0)
(0.0195583 -0.105949 0)
(0.0293167 -0.135839 0)
(0.0557891 -0.137175 0)
(0.107693 -0.169067 0)
(-0.118187 2.3576 0)
(-0.15206 1.7704 0)
(-0.0877534 1.03967 0)
(-0.215786 0.881177 0)
(-0.426288 0.152616 0)
(-0.331927 0.111683 0)
(-0.37559 0.36448 0)
(-0.210865 0.680386 0)
(-0.0449317 0.885978 0)
(0.366017 0.871481 0)
(0.485612 0.531031 0)
(0.499199 0.274823 0)
(0.336793 0.0147404 0)
(0.279634 0.0171182 0)
(0.297575 -0.0628728 0)
(0.216233 -0.051391 0)
(0.168173 -0.0746203 0)
(0.0605197 -0.0484974 0)
(0.0754509 -0.108833 0)
(0.0627924 -0.0691445 0)
(0.0848992 -0.130499 0)
(0.0516496 -0.133685 0)
(0.0892237 -0.153642 0)
(-0.0991778 2.4249 0)
(-0.0838355 1.79258 0)
(0.0821302 0.95985 0)
(-0.137088 0.836466 0)
(-0.206756 0.0543615 0)
(-0.238955 0.116092 0)
(-0.379184 0.41379 0)
(-0.208147 0.662885 0)
(-0.05514 0.978303 0)
(0.0778875 0.988977 0)
(0.257112 0.594817 0)
(0.205482 0.303853 0)
(0.229271 0.138181 0)
(0.228156 0.0357482 0)
(0.167155 -0.025134 0)
(0.164492 -0.0315801 0)
(0.127369 -0.0839071 0)
(0.117435 -0.119368 0)
(0.140467 -0.110343 0)
(0.112561 -0.127251 0)
(0.106934 -0.115353 0)
(0.117195 -0.132355 0)
(0.150192 -0.13546 0)
(-0.0658822 2.4622 0)
(-0.0730734 1.81426 0)
(0.192046 1.12436 0)
(0.111642 0.973237 0)
(-0.0313177 0.318446 0)
(-0.227065 0.189933 0)
(-0.241216 0.46767 0)
(-0.153159 0.673141 0)
(-0.104426 0.734665 0)
(-0.272629 0.62134 0)
(-0.166435 0.411327 0)
(0.0532767 0.245859 0)
(0.116683 0.147776 0)
(0.0810092 -0.0355381 0)
(0.123608 0.00167207 0)
(0.125564 -0.00398448 0)
(0.0812862 -0.0477984 0)
(0.10592 -0.0670624 0)
(0.138617 -0.109818 0)
(0.147226 -0.146889 0)
(0.156501 -0.189503 0)
(0.101503 -0.189516 0)
(0.159409 -0.213955 0)
(-0.0606514 2.5025 0)
(0.00284025 1.8224 0)
(0.194101 1.66903 0)
(0.0584033 1.17135 0)
(-0.0480244 0.389297 0)
(-0.152092 0.44024 0)
(-0.210361 0.495281 0)
(-0.321198 0.515968 0)
(-0.393326 0.560282 0)
(-0.339272 0.463727 0)
(-0.137313 0.341438 0)
(-0.0435673 0.21725 0)
(-0.00773061 0.0818959 0)
(0.0369181 0.0150219 0)
(0.0800375 0.0044535 0)
(0.0695441 -0.0590208 0)
(0.0736539 -0.071892 0)
(0.0958179 -0.0822698 0)
(0.104058 -0.134017 0)
(0.0973587 -0.151504 0)
(0.121397 -0.193314 0)
(0.188451 -0.176581 0)
(0.235072 -0.232551 0)
(-0.0404578 2.57236 0)
(0.174509 1.74862 0)
(0.166724 1.66734 0)
(-0.158675 1.21329 0)
(0.0638607 0.444547 0)
(-0.210286 0.644778 0)
(-0.203069 0.577556 0)
(-0.304091 0.489341 0)
(-0.409894 0.584595 0)
(-0.420573 0.405154 0)
(-0.204179 0.163469 0)
(-0.156093 0.106572 0)
(-0.0912553 0.0408313 0)
(-0.0783152 -0.0400512 0)
(-0.00972544 -0.0601249 0)
(0.00276172 -0.0984704 0)
(0.0555955 -0.0723009 0)
(0.106031 -0.0974302 0)
(0.128551 -0.127536 0)
(0.141227 -0.156793 0)
(0.169111 -0.140763 0)
(0.150303 -0.146842 0)
(0.201735 -0.203745 0)
(-0.109321 2.65529 0)
(0.198493 1.83354 0)
(0.217434 1.58854 0)
(-0.112138 1.20561 0)
(0.153074 0.495115 0)
(-0.169185 0.806375 0)
(-0.283285 0.637248 0)
(-0.335816 0.536178 0)
(-0.344746 0.516702 0)
(-0.372874 0.25784 0)
(-0.282797 0.0923372 0)
(-0.261968 0.0856262 0)
(-0.249867 -0.000931961 0)
(-0.180858 -0.0762337 0)
(-0.0994602 -0.0897154 0)
(-0.0305402 -0.11607 0)
(0.0684532 -0.122603 0)
(0.0763299 -0.11954 0)
(0.100819 -0.137489 0)
(0.13764 -0.178682 0)
(0.189899 -0.18752 0)
(0.19021 -0.200519 0)
(0.241827 -0.233146 0)
(-0.109482 2.71784 0)
(0.00652551 2.0329 0)
(0.144975 1.73514 0)
(0.141872 1.34258 0)
(0.178864 0.579509 0)
(-0.243419 1.08241 0)
(-0.312764 0.844162 0)
(-0.215327 0.733822 0)
(-0.248555 0.632463 0)
(-0.498756 0.34871 0)
(-0.382224 0.141845 0)
(-0.302008 0.0776827 0)
(-0.312643 -0.00508879 0)
(-0.239768 -0.210447 0)
(-0.156234 -0.233265 0)
(-0.117542 -0.138785 0)
(0.0115248 -0.178954 0)
(0.053556 -0.125644 0)
(0.0989463 -0.193772 0)
(0.159385 -0.275482 0)
(0.1904 -0.170559 0)
(0.16665 -0.162983 0)
(0.293967 -0.20767 0)
(-0.064427 2.7402 0)
(0.0788405 2.06734 0)
(-0.00294987 2.24879 0)
(0.0469446 1.32088 0)
(0.0309065 0.815838 0)
(0.102454 1.41393 0)
(-0.207298 1.3738 0)
(-0.189329 1.42741 0)
(-0.369409 0.73734 0)
(-0.539621 0.426757 0)
(-0.424699 0.20762 0)
(-0.411151 0.090872 0)
(-0.444389 -0.146019 0)
(-0.336369 -0.241448 0)
(-0.185215 -0.316205 0)
(-0.111902 -0.189674 0)
(-0.00102863 -0.264303 0)
(0.0223712 -0.306545 0)
(0.0161647 -0.259043 0)
(0.21505 -0.255823 0)
(0.312806 -0.264005 0)
(0.225485 -0.298284 0)
(0.230086 -0.238148 0)
(-0.0155835 2.78487 0)
(0.143351 2.04881 0)
(-0.114264 2.32438 0)
(0.0112626 1.40302 0)
(0.2846 1.3976 0)
(0.0066243 1.56711 0)
(0.0422044 1.36937 0)
(-0.140445 1.34738 0)
(-0.488452 0.648968 0)
(-0.429837 0.394681 0)
(-0.324777 0.116587 0)
(-0.461773 -0.0912738 0)
(-0.427235 -0.301631 0)
(-0.286225 -0.373989 0)
(-0.217225 -0.308318 0)
(-0.14063 -0.195492 0)
(-0.121582 -0.301619 0)
(0.0274098 -0.334333 0)
(0.119091 -0.316442 0)
(0.134902 -0.324383 0)
(0.153661 -0.410311 0)
(0.233759 -0.389829 0)
(0.210664 -0.231116 0)
(0.00644038 2.89516 0)
(0.182874 2.14578 0)
(-0.0665711 2.41154 0)
(-0.0074428 1.696 0)
(-0.0237661 1.59738 0)
(-0.261257 1.55247 0)
(-0.0789799 1.36666 0)
(-0.130244 1.10794 0)
(-0.302805 0.754435 0)
(-0.0229935 0.608861 0)
(-0.177223 0.338699 0)
(-0.327894 -0.133827 0)
(-0.362357 -0.338391 0)
(-0.256054 -0.479992 0)
(-0.160646 -0.422064 0)
(-0.12508 -0.445708 0)
(-0.124863 -0.343015 0)
(-0.0142458 -0.315 0)
(0.0296037 -0.361453 0)
(0.0916791 -0.35362 0)
(0.197505 -0.398021 0)
(0.363157 -0.413431 0)
(0.314991 -0.342803 0)
(0.0252664 2.91431 0)
(0.205565 2.30832 0)
(-0.0392524 2.62731 0)
(-0.0318358 1.83114 0)
(-0.2156 1.70691 0)
(-0.37565 1.4376 0)
(-0.0980795 1.3286 0)
(-0.024234 1.05276 0)
(-0.0403496 1.28625 0)
(-0.112645 1.03685 0)
(-0.322322 0.45017 0)
(-0.265946 0.0706913 0)
(-0.372936 -0.339721 0)
(-0.225228 -0.550694 0)
(-0.179054 -0.541954 0)
(-0.103619 -0.569496 0)
(0.0041231 -0.391357 0)
(-0.00117769 -0.3944 0)
(0.10064 -0.381886 0)
(0.101139 -0.305254 0)
(0.0993036 -0.382546 0)
(0.285084 -0.378598 0)
(0.369348 -0.388137 0)
(0.128195 2.9833 0)
(0.448858 2.57711 0)
(0.15414 2.78711 0)
(-0.0268081 2.12962 0)
(-0.175928 1.73631 0)
(-0.25899 1.31218 0)
(-0.190462 1.17405 0)
(0.146664 1.12117 0)
(0.314927 1.16192 0)
(-0.146418 0.940936 0)
(-0.360794 0.403666 0)
(-0.114023 -0.000978081 0)
(-0.33355 -0.496909 0)
(-0.114742 -0.699324 0)
(-0.0720638 -0.663616 0)
(-0.0111348 -0.644914 0)
(0.0204891 -0.617014 0)
(-0.0201776 -0.465588 0)
(0.103313 -0.447952 0)
(0.0949879 -0.301459 0)
(0.140292 -0.319627 0)
(0.303121 -0.312152 0)
(0.384378 -0.359567 0)
(0.164745 3.27129 0)
(0.397163 2.75058 0)
(0.184828 2.76766 0)
(0.0997548 2.35353 0)
(-0.0262256 1.90747 0)
(-0.0208388 1.36627 0)
(-0.0482623 1.07727 0)
(0.129231 1.17113 0)
(0.251931 0.988305 0)
(0.0960777 0.780507 0)
(0.0342688 0.543086 0)
(0.272441 0.11162 0)
(0.0083142 -0.488604 0)
(0.115256 -0.649999 0)
(0.0678806 -0.638879 0)
(-0.0498949 -0.753034 0)
(0.205871 -0.664249 0)
(0.166336 -0.520971 0)
(0.206712 -0.497417 0)
(0.196883 -0.466571 0)
(0.132201 -0.299649 0)
(0.233775 -0.353926 0)
(0.469403 -0.493744 0)
(0.0743383 3.28853 0)
(0.190571 2.74831 0)
(0.154814 2.69622 0)
(0.213861 2.37284 0)
(0.195259 2.02854 0)
(0.183034 1.42166 0)
(0.201815 0.974227 0)
(0.236907 0.990298 0)
(0.312252 0.91896 0)
(0.367417 0.886566 0)
(0.555411 0.776476 0)
(0.464414 0.362509 0)
(0.373003 -0.365274 0)
(0.371044 -0.729494 0)
(0.219997 -0.706555 0)
(0.205679 -0.64305 0)
(0.309579 -0.549844 0)
(0.179129 -0.54948 0)
(0.155678 -0.472832 0)
(0.270142 -0.492548 0)
(0.279739 -0.455116 0)
(0.17433 -0.461437 0)
(0.291205 -0.453896 0)
(0.0467528 3.19846 0)
(0.0266762 2.65994 0)
(0.018057 2.48202 0)
(0.227478 2.22945 0)
(0.2803 1.8847 0)
(0.37251 1.32851 0)
(0.36539 0.99523 0)
(0.32337 0.991474 0)
(0.427777 0.972291 0)
(0.738236 1.00744 0)
(0.717524 0.800223 0)
(0.376986 0.265097 0)
(0.407968 -0.394082 0)
(0.600328 -0.58209 0)
(0.526179 -0.595361 0)
(0.304698 -0.56595 0)
(0.303794 -0.567401 0)
(0.242224 -0.497263 0)
(0.248553 -0.441741 0)
(0.216864 -0.50304 0)
(0.194587 -0.478093 0)
(0.258785 -0.439075 0)
(0.351649 -0.412093 0)
(0.059646 3.16291 0)
(0.0290588 2.65088 0)
(0.018708 2.28656 0)
(0.215344 1.97515 0)
(0.36792 1.6302 0)
(0.471231 1.20961 0)
(0.48697 1.04947 0)
(0.485716 1.05414 0)
(0.518473 1.06902 0)
(0.606619 0.991268 0)
(0.687939 0.718938 0)
(0.481592 0.260006 0)
(0.704777 -0.165625 0)
(0.845035 -0.368637 0)
(0.539351 -0.506734 0)
(0.259216 -0.522647 0)
(0.379884 -0.549837 0)
(0.3504 -0.504684 0)
(0.19042 -0.437978 0)
(0.252906 -0.472867 0)
(0.347203 -0.408804 0)
(0.288065 -0.327906 0)
(0.284224 -0.409056 0)
(0.113074 3.07158 0)
(0.0886067 2.63104 0)
(0.23713 2.02945 0)
(0.296449 1.72565 0)
(0.429416 1.46116 0)
(0.436052 1.15564 0)
(0.436343 1.0819 0)
(0.415618 1.04903 0)
(0.473114 0.998888 0)
(0.411836 0.844668 0)
(0.619253 0.655125 0)
(0.56351 0.135768 0)
(0.78851 -0.0123386 0)
(0.920423 -0.323554 0)
(0.632136 -0.561981 0)
(0.455009 -0.62211 0)
(0.385914 -0.515665 0)
(0.374057 -0.567778 0)
(0.37719 -0.433568 0)
(0.307467 -0.408142 0)
(0.368382 -0.412909 0)
(0.285821 -0.479077 0)
(0.256601 -0.491984 0)
(0.193622 2.7112 0)
(0.28313 2.4627 0)
(0.466067 1.88921 0)
(0.416741 1.62138 0)
(0.433686 1.43807 0)
(0.354296 1.24932 0)
(0.282909 1.16054 0)
(0.250564 0.987183 0)
(0.411493 0.921726 0)
(0.393035 0.697132 0)
(0.400797 0.495927 0)
(0.591472 0.0905243 0)
(1.0351 -0.036175 0)
(0.935436 -0.228849 0)
(0.448886 -0.413689 0)
(0.413548 -0.509315 0)
(0.439159 -0.51432 0)
(0.453358 -0.419964 0)
(0.407708 -0.433428 0)
(0.252041 -0.383402 0)
(0.275302 -0.442883 0)
(0.27591 -0.528198 0)
(0.362937 -0.576633 0)
(0.142808 2.1182 0)
(0.492426 2.18862 0)
(0.54571 1.85989 0)
(0.473174 1.66419 0)
(0.417048 1.59896 0)
(0.304314 1.45688 0)
(0.233612 1.23858 0)
(0.214567 0.855138 0)
(0.292858 0.706744 0)
(0.416452 0.36056 0)
(0.467905 0.354341 0)
(0.642634 0.218893 0)
(0.923755 -0.106008 0)
(0.587433 -0.378715 0)
(0.297917 -0.434418 0)
(0.355935 -0.301 0)
(0.407576 -0.350183 0)
(0.399618 -0.321165 0)
(0.342907 -0.430015 0)
(0.276363 -0.465777 0)
(0.255995 -0.493254 0)
(0.221495 -0.479851 0)
(0.264839 -0.602755 0)
(0.0426253 1.50634 0)
(0.459413 1.94161 0)
(0.497683 1.85652 0)
(0.461951 1.79413 0)
(0.389444 1.74968 0)
(0.303152 1.57641 0)
(0.270582 1.2634 0)
(0.325151 0.735369 0)
(0.304899 0.582244 0)
(0.440411 0.414409 0)
(0.602341 0.313622 0)
(0.752052 0.261518 0)
(0.764741 0.0647731 0)
(0.393121 -0.239456 0)
(0.334909 -0.18173 0)
(0.366266 -0.208436 0)
(0.332322 -0.247376 0)
(0.307383 -0.398517 0)
(0.198957 -0.394264 0)
(0.229442 -0.507797 0)
(0.362906 -0.469364 0)
(0.222283 -0.501094 0)
(0.181209 -0.465864 0)
(0.0084113 1.19445 0)
(0.250818 1.59491 0)
(0.343696 1.88387 0)
(0.372956 1.86772 0)
(0.338322 1.80794 0)
(0.312524 1.59766 0)
(0.299536 1.17859 0)
(0.416656 0.74937 0)
(0.545554 0.550303 0)
(0.526639 0.485593 0)
(0.568215 0.263528 0)
(0.620288 0.13834 0)
(0.414979 -0.241985 0)
(0.292499 -0.329632 0)
(0.358329 -0.247275 0)
(0.287003 -0.247782 0)
(0.170349 -0.302752 0)
(0.226545 -0.37099 0)
(0.231279 -0.346678 0)
(0.204005 -0.349515 0)
(0.322944 -0.469452 0)
(0.210588 -0.525926 0)
(0.123661 -0.490939 0)
(-0.0209672 1.1151 0)
(0.0994895 1.32095 0)
(0.144277 1.72123 0)
(0.259707 1.83374 0)
(0.301073 1.77545 0)
(0.330126 1.50808 0)
(0.340031 1.06955 0)
(0.396105 0.866736 0)
(0.416168 0.629728 0)
(0.477647 0.493403 0)
(0.472136 0.291127 0)
(0.529691 0.171373 0)
(0.441819 -0.0226317 0)
(0.415327 -0.0683237 0)
(0.444529 -0.185854 0)
(0.329358 -0.201299 0)
(0.172569 -0.198838 0)
(0.235354 -0.205725 0)
(0.20166 -0.310035 0)
(0.0702549 -0.343689 0)