/*--------------------------------*- C++ -*----------------------------------*\
| =========                 |                                                 |
| \\      /  F ield         | foam-extend: Open Source CFD                    |
|  \\    /   O peration     | Version:     4.1                                |
|   \\  /    A nd           | Web:         http://www.foam-extend.org         |
|    \\/     M anipulation  |                                                 |
\*---------------------------------------------------------------------------*/
FoamFile
{
    version     2.0;
    format      ascii;
    class       regIOobject;
    location    "0.45/uniform";
    object      profilingInfo;
}
// * * * * * * * * * * * * * * * * * * * * * * * * * * * * * * * * * * * * * //

profilingInfo
(

    {
        id              11;
        parentId        9;
        description     "Foam::Time::writeObject - outputTime";
        calls           9;
        totalTime       0.111211;
        childTime       0;
        onStack         1;
    }

    {
        id              9;
        parentId        1;
        description     "Foam::Time::writeObject";
        calls           492;
        totalTime       0.111681;
        childTime       0.111211;
        onStack         1;
    }

    {
        id              1;
        description     "application::main";
        calls           1;
        totalTime       14.4085;
        childTime       12.5071;
        onStack         1;
    }

    {
        id              10;
        parentId        1;
        description     "FO::DataSummary::execute";
        calls           491;
        totalTime       0.024678;
        childTime       0;
        onStack         0;
    }

    {
        id              5;
        parentId        1;
        description     "MULES::explicitSolve";
        calls           984;
        totalTime       0.159572;
        childTime       0;
        onStack         0;
    }

    {
        id              4;
        parentId        1;
        description     "functionObjectList::read";
        calls           1;
        totalTime       8.69895;
        childTime       0;
        onStack         0;
    }

    {
        id              2;
        parentId        1;
        description     "fvMatrix::solve_pcorr";
        calls           1;
        totalTime       0.000119;
        childTime       5.7e-05;
        onStack         0;
    }

    {
        id              6;
        parentId        1;
        description     "fvMatrix::solve_pd";
        calls           1968;
        totalTime       3.51211;
        childTime       3.44471;
        onStack         0;
    }

    {
        id              8;
        parentId        7;
        description     "lduMatrix::solver_coarsestLevelCorr";
        calls           19042;
        totalTime       0.1218;
        childTime       0;
        onStack         0;
    }

    {
        id              3;
        parentId        2;
        description     "lduMatrix::solver_pcorr";
        calls           1;
        totalTime       5.7e-05;
        childTime       0;
        onStack         0;
    }

    {
        id              7;
        parentId        6;
        description     "lduMatrix::solver_pd";
        calls           1968;
        totalTime       3.44471;
        childTime       0.1218;
        onStack         0;
    }
);


// ************************************************************************* //
