/*--------------------------------*- C++ -*----------------------------------*\
| =========                 |                                                 |
| \\      /  F ield         | foam-extend: Open Source CFD                    |
|  \\    /   O peration     | Version:     4.1                                |
|   \\  /    A nd           | Web:         http://www.foam-extend.org         |
|    \\/     M anipulation  |                                                 |
\*---------------------------------------------------------------------------*/
FoamFile
{
    version     2.0;
    format      ascii;
    class       volScalarField;
    location    "1";
    object      p;
}
// * * * * * * * * * * * * * * * * * * * * * * * * * * * * * * * * * * * * * //

dimensions      [1 -1 -2 0 0 0 0];

internalField   nonuniform List<scalar> 
2268
(
1077.38
1071.23
1061.17
1046.31
1023.1
988.16
940.649
888.758
839.259
781.699
741.768
705.769
689.667
690.893
707.864
739.709
769.471
789.021
803.95
818.001
831.407
835.834
832.22
1020.07
1013.94
1003.86
987.426
964.721
932.381
881.493
830.019
778.844
729.073
680.085
641.963
619.474
627.24
647.576
679.595
713.923
731.346
744.34
758.035
774.343
778.447
773.246
963.006
957.428
948.603
930.835
907.27
876.995
824.909
773.246
722.83
668.345
611.367
577.388
559.34
561.762
588.405
617.879
656.421
671.265
689.175
701.409
718.247
719.987
713.994
907.379
901.561
894.575
870.503
850.39
814.708
770.207
713.109
674.694
604.922
547.645
507.051
485.892
489.55
523.89
564.512
598.373
616.686
625.124
652.014
659.31
663.816
653.989
852.835
846.148
840.065
822.112
802.412
760.305
712.887
659.569
612.851
547.022
482.145
433.68
403.723
417.696
451.565
494.468
539.201
557.4
572.848
589.062
605.413
604.002
593.813
799.408
792.136
784.605
763.574
746.822
705.78
656.218
606.985
552.011
490.964
415.06
355.627
320.122
326.523
381.476
434.249
484.004
498.659
518.989
534.951
549.98
548.941
533.309
746.84
739.341
733.277
711.866
691.612
656.896
599.199
558.922
499.663
437.68
350.899
278.716
246.079
251.036
312.26
361.918
426.864
435.981
460.73
480.426
494.754
485.305
468.996
694.864
688.058
679.727
661.377
637.611
600.19
538.851
507.219
446.794
375.282
272.674
203.477
174.138
187.489
266.483
278.074
369.694
363.485
409.828
424.888
438.685
416.114
400.149
497.87
415.259
377.875
419.15
468.888
448.228
399.426
327.192
297.421
287.082
280.716
300.747
327.298
345.476
392.951
434.055
491.928
532.765
546.864
436.575
346.721
313.997
366.422
416.264
409.655
347.413
262.812
230.02
221.328
211.016
245.851
272.267
298.78
338.397
384.077
440.895
478.951
491.337
361.061
291.813
278.622
320.534
368.329
354.034
305.467
228.689
191.569
168.57
155.525
193.337
211.156
253.175
291.94
329.324
397.889
430.412
454.98
315.832
246.9
245.756
288.964
316.012
307.788
267.524
196.112
157.598
128.447
106.782
144.087
168.143
201.539
238.155
275.669
353.394
388.092
413.203
277.666
223.934
177.353
230.761
245.757
247.828
221.267
161.456
131.561
97.1918
84.554
108.233
128.326
159.509
195.562
225.018
302.329
344.878
372.375
244.033
200.01
144.453
136.126
176.836
188.618
184.705
129.252
108.605
76.4167
67.1822
65.2641
84.7309
118.982
160.416
190.825
258.168
300.592
333.143
185.269
167.569
99.2491
57.9577
119.29
110.918
137.263
123.027
83.7158
55.2801
52.8185
50.2568
54.2292
86.5039
134.239
161.258
212.123
254.587
289.792
110.2
127.622
49.3751
36.354
57.5153
102.761
132.444
129.319
58.9005
44.9404
47.597
47.003
46.766
55.4839
96.0553
127.669
163.274
220.276
254.765
615.698
607.744
601.211
579.087
553.997
529.705
487.031
438.466
378.065
291.672
184.35
124.401
120.403
157.887
165.881
229.226
275.284
276.011
294.261
337.514
344.78
341.691
295.62
513.551
513.918
490.148
489.7
446.056
430.223
379.341
332.343
244.844
167.331
68.821
41.9184
59.2964
41.0257
77.741
127.606
148.116
150.936
169.876
193.714
138.379
129.621
116.887
416.378
412.795
412.471
388.985
354.511
325.082
278.294
235.532
176.99
49.0053
22.5842
14.0277
11.0769
11.5624
22.3163
37.1699
48.6576
58.5526
49.8377
76.1602
109.946
118.121
50.8105
307.316
316.108
289.36
305.723
269.212
255.378
207.64
162.991
73.5136
21.6708
10.8016
7.84959
7.04051
6.31099
5.43323
8.45042
17.369
16.648
14.9982
22.0671
81.0136
47.4131
15.9431
222.407
213.911
237.8
214.69
216.152
167.261
138.694
92.235
71.46
14.5885
7.03264
5.66895
5.6203
5.41475
5.68112
5.90796
11.3497
10.6055
9.45427
8.32004
14.2422
-12.7388
6.12686
152.977
163.097
165.987
157.7
125.243
95.8663
67.1694
45.1803
24.7886
6.85763
3.95489
3.582
4.17302
4.2013
4.19428
4.21985
5.8176
7.07125
7.87267
6.90543
5.29841
-0.624867
10.7366
135.168
129.957
134.15
101.992
67.9996
37.5359
18.4405
6.30002
1.93454
-2.97541
-0.430991
1.97566
2.86742
2.79276
2.56051
2.88877
3.07635
4.88455
6.38175
4.96042
0.756277
-8.58386
5.83805
117.898
113.358
94.5174
70.8691
31.8068
1.07738
-2.77457
-3.03511
-4.2189
-5.71462
-2.7654
0.316626
1.63062
1.55026
1.38574
1.09143
0.752749
1.00529
1.47075
2.20475
3.64108
8.95943
0.00513774
88.7022
75.9284
60.0673
22.1427
-0.531129
-2.37799
-3.04753
-3.22259
-3.95184
-5.10016
-2.96099
-0.579167
0.183061
0.431065
0.363884
0.23574
-0.109582
-0.194897
-0.428271
-0.585159
-0.876779
-0.824352
-2.91754
45.1685
18.3597
-2.99979
-0.724761
-2.59273
-2.47495
-2.97256
-2.84974
-3.39517
-3.85152
-2.5775
-1.67044
-1.11146
-0.415634
-0.510592
-0.496262
-0.749952
-0.915494
-1.02762
-1.19936
-1.44479
-1.78099
-1.77786
11.0362
1.12579
-1.77986
-2.35303
-2.3428
-2.46908
-2.58574
-2.65667
-3.04258
-3.12473
-2.59831
-2.18467
-1.94582
-1.54135
-1.28777
-1.27522
-1.27409
-1.38704
-1.37916
-1.55886
-1.43465
-1.6249
-1.40929
1.09056
-0.374351
-1.42223
-1.88028
-1.90598
-2.28059
-2.42207
-2.42968
-2.77503
-2.91173
-2.88272
-2.58711
-2.4969
-2.26265
-2.23155
-2.02431
-1.90423
-1.80333
-1.80315
-1.90567
-1.80755
-1.6025
-1.47876
-0.79414
-1.3131
-1.77763
-1.93633
-1.86191
-2.16985
-2.35434
-2.51311
-2.84504
-3.12557
-3.25042
-3.22094
-3.02985
-3.08185
-2.70848
-2.43824
-2.32666
-2.31065
-2.4418
-2.09215
-2.01991
-1.80852
-1.64222
-1.55731
-1.649
-1.87212
-1.95941
-1.99609
-2.02808
-2.25025
-2.74156
-3.11756
-3.52378
-3.87205
-3.84086
-3.71132
-3.6029
-3.33364
-3.00137
-2.96857
-2.92934
-3.03409
-3.1406
-2.52676
-2.02445
-1.86574
-1.5362
-1.66891
-2.13281
-2.10323
-2.18293
-2.31228
-2.56751
-3.08948
-3.38974
-3.67624
-4.2929
-4.52834
-4.27661
-4.05781
-3.65191
-3.46871
-3.41176
-3.07796
-2.78826
-2.74316
-2.47919
-2.11952
-1.92937
-1.83417
-1.88264
-2.49708
-2.48075
-2.37222
-2.42415
-2.66082
-3.20506
-3.88595
-4.26354
-4.43217
-4.79771
-4.84689
-4.54761
-4.13843
-4.00817
-3.71373
-2.98337
-2.49117
-2.24123
-2.22376
-2.0874
-1.98147
-2.0223
-2.04186
-2.20803
-2.7762
-2.52553
-2.61458
-2.78189
-3.23171
-3.84564
-4.34286
-4.69065
-4.97886
-5.32865
-5.07905
-4.5264
-4.44782
-3.84518
-2.75882
-2.0999
-2.03996
-2.02588
-1.97469
-1.96016
-2.18823
-2.20042
-2.37082
-2.62768
-2.50995
-2.82587
-2.98386
-3.30327
-3.86602
-4.34901
-4.77656
-5.14638
-5.28264
-5.17352
-4.75061
-4.40677
-3.74773
-2.80984
-1.86537
-2.24313
-2.13287
-2.0268
-1.98782
-2.37904
-2.44541
-2.6198
-2.85562
-2.94892
-2.99895
-3.1422
-3.47756
-3.69405
-4.41766
-4.50038
-4.83751
-4.83464
-4.84887
-4.9235
-4.41139
-3.55297
-3.42663
-2.53791
-2.29028
-2.17177
-2.16444
-2.19854
-2.50219
-2.59777
-2.74033
-2.94973
-3.03723
-2.87179
-3.05926
-3.67625
-3.93437
-3.98411
-3.84759
-4.12973
-4.2907
-4.31479
-4.55303
-4.32393
-3.61863
-3.13628
-2.29064
-2.3076
-2.17603
-2.20867
-2.28605
-2.59574
-2.64524
-2.85502
-3.08634
-3.226
-3.10909
-3.46113
-3.58217
-3.53123
-3.44725
-3.58184
-3.82061
-4.00132
-4.01663
-4.25037
-4.20617
-3.55998
-2.6535
-2.20878
-2.33068
-2.25587
-2.27459
-2.32612
-2.70431
-3.22217
-3.20435
-3.02826
-3.08238
-3.24866
-3.24478
-3.23519
-3.22311
-3.40426
-3.572
-3.69474
-3.85834
-3.80552
-3.86511
-4.18945
-4.41016
-2.90021
-2.15552
-2.40858
-2.43026
-2.44428
-2.47162
-3.6434
-3.74495
-3.08221
-2.829
-2.84438
-2.98598
-2.93162
-3.13811
-3.22719
-3.42299
-3.55333
-3.68377
-3.99612
-4.0525
-3.617
-3.40099
-3.17497
-2.7567
-2.52786
-2.51953
-2.50447
-2.56511
-2.61673
-2.40596
-3.42755
-2.67853
-2.81226
-2.8662
-3.07874
-3.10751
-3.1793
-3.27443
-3.45439
-3.56286
-3.80455
-4.32805
-4.10487
-3.53253
-1.82575
-2.57861
-2.83376
-2.85813
-2.77991
-2.78076
-2.77909
-2.77481
-1.51082
-3.28596
-2.58017
-2.86644
-3.0492
-3.07618
-3.25062
-3.25859
-3.45124
-3.5466
-3.4482
-3.66365
-3.77606
-3.23204
-3.20666
-2.68882
-2.37231
-2.62858
-2.74355
-2.84015
-2.94704
-2.9157
-2.94487
-2.56372
-3.22031
-2.62687
-3.16057
-2.93867
-3.22433
-3.23441
-3.30231
-3.56282
-4.00983
-3.83043
-3.74479
-3.91793
-3.46159
-4.11087
-3.56332
-2.63305
-2.99177
-2.97323
-2.98911
-3.00327
-3.09755
-3.14607
0.34453
-3.30153
-2.52249
-3.08135
-2.58272
-3.12011
-3.29557
-3.4498
-3.79234
-4.59825
-5.06028
-4.45572
-4.3126
-4.32299
-4.03109
-3.51469
-3.20225
-3.2053
-3.38711
-3.2969
-3.2323
-3.29995
-3.33392
-1.43477
-3.34644
-2.85117
-3.40078
-3.36656
-3.51177
-3.66074
-3.81496
-4.26426
-4.79688
-4.83898
-4.88049
-4.9381
-4.56065
-4.18402
-3.88031
-3.72679
-3.71945
-3.5629
-3.44251
-3.49023
-3.48902
-3.49638
3.59813
-4.39
-3.43939
-3.60397
-3.60683
-3.74024
-3.92884
-4.06958
-4.42326
-4.72563
-4.91269
-5.15159
-5.15936
-4.83481
-4.42356
-4.21282
-4.0695
-3.80641
-3.6583
-3.55544
-3.59599
-3.66658
-3.66246
-0.845074
-3.67557
-3.86796
-3.85904
-3.87037
-3.90558
-4.05476
-4.30983
-4.56876
-4.86266
-5.01354
-5.12935
-5.08654
-4.91944
-4.60383
-4.45887
-4.29766
-3.94727
-3.81822
-3.76892
-3.84839
-3.85941
-3.88868
-4.14331
-4.54639
-4.26522
-4.19942
-4.16124
-4.13582
-4.44698
-4.52451
-4.80181
-4.9742
-5.07928
-5.12373
-5.08638
-4.95026
-5.02797
-4.89109
-4.74086
-4.45206
-4.16468
-4.08733
-4.13084
-4.09618
-4.06923
-4.62005
-4.60555
-4.57576
-4.39539
-4.39197
-4.4034
-4.54062
-4.71713
-4.88936
-4.98948
-5.15062
-5.16771
-5.13636
-4.93002
-5.28107
-5.01391
-4.89585
-4.69983
-4.62521
-4.42534
-4.3487
-4.32516
-4.27853
-4.64905
-4.67152
-4.66545
-4.60067
-4.59702
-4.65077
-4.70189
-4.81561
-4.83974
-5.03732
-5.14109
-5.22907
-5.24273
-4.97342
-4.81342
-4.96809
-4.95614
-5.15936
-5.03204
-4.65358
-4.60251
-4.52135
-4.48313
-4.65158
-4.71063
-4.75755
-4.70761
-4.75635
-4.7694
-4.79037
-4.87478
-4.95822
-5.03683
-5.13294
-5.17225
-5.26155
-5.19004
-5.20896
-5.23226
-5.41382
-5.44722
-5.2119
-4.99505
-4.78225
-4.67408
-4.63988
-4.85056
-4.81308
-4.81664
-4.80563
-4.86292
-4.91759
-4.9333
-5.00112
-5.00187
-5.03477
-5.0378
-5.07744
-5.15083
-5.19159
-5.19856
-5.36233
-5.54444
-5.44389
-5.30053
-5.06045
-4.93247
-4.87338
-4.78536
-5.15924
-5.04082
-4.94595
-4.95578
-4.98301
-5.01293
-5.02234
-5.06702
-5.09893
-5.10337
-5.09367
-5.04818
-5.08854
-5.04118
-5.02802
-5.18236
-5.61901
-5.41825
-5.33036
-5.18751
-5.04407
-4.9904
-4.95459
-5.06051
-5.09479
-5.07969
-5.08414
-5.09287
-5.11913
-5.15947
-5.16196
-5.15377
-5.14342
-5.12477
-5.09033
-5.0812
-5.04896
-4.97397
-5.0605
-5.31899
-5.33896
-5.28163
-5.22683
-5.10599
-5.08926
-5.10071
-5.31914
-5.29216
-5.28055
-5.24202
-5.21295
-5.2664
-5.21585
-5.28843
-5.24528
-5.23337
-5.20607
-5.18962
-5.14242
-5.12478
-5.0995
-5.19425
-5.34158
-5.34999
-5.2438
-5.23755
-5.20642
-5.1682
-5.22949
-5.4731
-5.44675
-5.32596
-5.34342
-5.33986
-5.36551
-5.35035
-5.33098
-5.34902
-5.33938
-5.31748
-5.30801
-5.28284
-5.24199
-5.19633
-5.25603
-5.30303
-5.3526
-5.32483
-5.35869
-5.32126
-5.29913
-5.30504
-5.46684
-5.48212
-5.39781
-5.50496
-5.46744
-5.44763
-5.46153
-5.47406
-5.43127
-5.4359
-5.42386
-5.43096
-5.39975
-5.39874
-5.37649
-5.3516
-5.34666
-5.4587
-5.45239
-5.47808
-5.41343
-5.39974
-5.47579
-5.72111
-5.76356
-5.60415
-5.62493
-5.62242
-5.58661
-5.57719
-5.59182
-5.60105
-5.55943
-5.5688
-5.55131
-5.53414
-5.52207
-5.5103
-5.48731
-5.50348
-5.53201
-5.56298
-5.55934
-5.55719
-5.58295
-5.58107
-5.90371
-5.9311
-5.78915
-5.74187
-5.71382
-5.75333
-5.74296
-5.70219
-5.69001
-5.69674
-5.67135
-5.67255
-5.66342
-5.65758
-5.64197
-5.65518
-5.65417
-5.64339
-5.67775
-5.67168
-5.69064
-5.69564
-5.67607
238.075
227.379
210.495
182.364
76.0125
65.946
73.7181
66.0494
29.3905
22.698
24.0978
27.3938
12.6451
12.2128
12.1787
11.7951
7.42363
6.53091
4.74143
3.24371
4.33189
3.12034
2.36647
2.24135
2.6112
3.00582
2.54694
2.22654
1.93035
2.02454
1.77267
1.69342
-2.53361
-0.553251
0.357778
0.696369
-1.38931
-0.884182
-0.34213
-0.423114
-1.11449
-1.01997
-0.888804
-0.864172
-1.28739
-1.21238
-1.25008
-1.20714
-1.67484
-1.68519
-1.49614
-1.42252
-1.80982
-1.71949
-1.66729
-1.5899
-1.88761
-1.84492
-1.82848
-1.76708
-1.95461
-1.91973
-1.88988
-1.86086
-1.93694
-1.99111
-1.96385
-1.95943
-2.00195
-1.9995
-2.01051
-1.99626
-2.18603
-2.14869
-2.11209
-2.12159
-2.33723
-2.33979
-2.32526
-2.30394
-2.36294
-2.4002
-2.42114
-2.46392
-2.49004
-2.50495
-2.53241
-2.55638
-2.65114
-2.66915
-2.68613
-2.6819
-2.79699
-2.8162
-2.8616
-2.87978
-2.9783
-2.97826
-2.9918
-3.02702
-3.15902
-3.17227
-3.16436
-3.1652
-3.32165
-3.34526
-3.35842
-3.34715
-3.53314
-3.54293
-3.56332
-3.55794
-3.70578
-3.71052
-3.711
-3.7081
-3.88321
-3.90763
-3.90611
-3.91367
-4.06198
-4.06374
-4.0658
-4.05749
-4.27422
-4.26211
-4.25585
-4.2496
-4.46738
-4.4432
-4.42296
-4.41156
-4.59936
-4.59861
-4.57912
-4.56431
-4.77198
-4.76227
-4.74668
-4.74534
-4.8979
-4.89174
-4.87354
-4.86382
-5.02522
-4.99877
-5.0041
-4.9795
-5.19905
-5.15948
-5.16558
-5.16123
-5.25745
-5.24894
-5.25335
-5.28268
-5.4474
-5.39876
-5.40636
-5.40275
-5.48138
-5.4863
-5.47417
-5.50486
-5.66682
-5.66988
-5.68281
-5.68825
97.9269
70.9887
36.8709
30.9707
37.2403
52.283
98.0225
91.6246
45.2381
41.4034
44.2823
42.8233
43.2651
47.0236
60.278
98.594
130.993
153.477
194.447
50.2242
34.2894
22.1414
20.1044
27.299
54.1786
43.1861
46.5981
30.1791
36.2853
38.4521
37.7313
37.6103
40.4686
42.9136
62.2733
102.745
141.28
150.373
29.793
23.4969
18.6065
21.253
19.0625
25.7013
26.6863
18.3281
20.8113
24.4013
28.2247
28.961
29.4013
31.499
31.1166
38.1147
47.7389
95.6038
104.899
11.8939
13.7941
3.33726
9.12718
17.1421
14.3676
16.4548
15.9956
15.551
13.4331
15.8707
17.5446
23.2252
23.2253
22.2287
29.3087
21.6913
54.8105
48.7207
2.90431
4.62943
5.51441
10.1633
9.50674
9.59687
7.11256
9.06654
7.20438
6.91507
6.74179
11.3089
16.2451
18.0979
18.2538
19.3546
9.33349
30.6309
29.5861
1.78548
1.62336
1.31849
1.03774
1.73695
2.85168
4.51731
3.93665
3.07756
2.47519
2.41632
2.62923
5.97467
7.19117
8.53605
7.46707
1.04176
3.57619
14.5211
1.72003
1.32097
0.896104
0.482881
0.378332
0.612566
0.369575
0.941824
0.584616
0.923847
0.879934
0.81902
1.58146
2.12146
0.564139
-0.825818
-1.27643
-1.27475
-0.582452
1.31589
0.558048
0.225198
0.128
-0.219062
-0.223679
-0.143872
-0.17623
-0.0467128
0.178239
0.25696
0.248693
0.155426
0.290001
-0.799114
-1.63265
-1.79988
-1.71299
-1.38455
0.204273
-0.222797
-0.242334
-0.347356
-0.427731
-0.440584
-0.484841
-0.37167
-0.265446
-0.100556
-0.00725583
-0.0432842
-0.128985
-0.479642
-1.47363
-1.90488
-1.98156
-1.92606
-1.59118
-0.340966
-0.623031
-0.58766
-0.597807
-0.563257
-0.595325
-0.598215
-0.50241
-0.416572
-0.317479
-0.191764
-0.205816
-0.425846
-1.05596
-1.43859
-1.64876
-1.74583
-1.73488
-1.57554
-0.882886
-0.918902
-0.850969
-0.82039
-0.797377
-0.792274
-0.718948
-0.665907
-0.629317
-0.590322
-0.421995
-0.71499
-0.972463
-1.46592
-1.4956
-1.6005
-1.67768
-1.63101
-1.5045
-1.0472
-1.10417
-1.08309
-1.06019
-1.05192
-0.996454
-0.935707
-0.921973
-0.877369
-0.870366
-0.85324
-1.36215
-1.45289
-2.3583
-2.23983
-1.88855
-1.58575
-1.63084
-1.536
-1.40015
-1.32519
-1.33635
-1.28494
-1.14044
-1.17387
-1.12399
-1.16487
-1.10641
-1.12014
-1.23504
-1.23493
-1.86138
-2.92198
-2.24563
-1.5929
-1.5729
-1.56312
-1.58478
-1.57509
-1.48932
-1.48085
-1.42762
-1.34187
-1.33248
-1.31783
-1.2987
-1.3102
-1.37726
-1.46244
-1.49571
-1.89815
-2.57927
-1.99292
-1.30281
-1.60242
-1.5912
-1.67993
-1.7169
-1.59821
-1.60921
-1.56134
-1.52842
-1.50006
-1.48876
-1.49089
-1.49131
-1.53414
-1.612
-1.72624
-1.82997
-1.98576
-1.77562
-1.60812
-1.6196
-1.54186
-1.29995
-1.83428
-1.75658
-1.72905
-1.69427
-1.68693
-1.65976
-1.65378
-1.6531
-1.6532
-1.6871
-1.72386
-1.77927
-1.85805
-1.86108
-1.79696
-1.82148
-1.61138
-1.54997
-1.2815
-1.8862
-1.88213
-1.92904
-1.83561
-1.84817
-1.8204
-1.81805
-1.81442
-1.81626
-1.85127
-1.8826
-1.91938
-1.95245
-2.00516
-1.94083
-1.9041
-1.90332
-1.89168
-1.95854
-2.01961
-2.01669
-2.031
-1.99228
-1.99516
-1.98384
-1.97165
-1.96756
-1.95882
-1.97874
-1.99532
-2.02767
-2.0749
-2.11228
-2.13323
-2.14062
-2.10524
-2.15098
-2.15065
-2.14152
-2.15618
-2.16757
-2.15514
-2.13658
-2.12849
-2.13534
-2.11791
-2.11657
-2.1273
-2.13271
-2.15828
-2.23339
-2.21748
-2.28038
-2.25832
-2.23616
-2.30809
-2.39094
-2.27959
-2.26474
-2.3173
-2.31835
-2.30714
-2.28668
-2.27617
-2.2793
-2.26185
-2.27522
-2.25841
-2.28823
-2.32702
-2.40826
-2.5292
-2.40569
-2.36756
-2.45124
-2.44791
-2.50039
-2.49466
-2.41018
-2.45307
-2.4517
-2.44529
-2.42756
-2.48554
-2.43412
-2.44611
-2.43673
-2.4403
-2.50567
-2.57796
-2.69121
-2.6873
-2.56442
-2.57772
-2.60697
-2.5893
-2.63391
-2.62402
-2.6069
-2.61095
-2.62464
-2.58595
-2.58724
-2.60856
-2.62333
-2.59195
-2.59296
-2.67523
-2.74436
-2.83985
-2.87856
-2.92883
-2.7818
-2.76957
-2.68367
-2.75961
-2.81202
-2.77989
-2.78279
-2.80253
-2.83352
-2.76497
-2.7711
-2.75425
-2.82643
-2.76914
-2.78664
-2.96867
-3.06048
-3.00572
-3.05865
-2.99146
-2.9304
-2.90183
-2.87477
-2.91767
-2.94725
-2.99297
-2.99759
-2.9912
-3.06643
-2.95967
-2.94095
-2.96238
-2.91111
-2.97608
-3.1377
-3.09174
-3.12917
-3.13177
-3.12459
-3.05714
-3.06188
-3.10404
-3.09183
-3.09543
-3.07935
-3.09081
-3.14018
-3.23142
-3.18748
-3.22223
-3.28988
-3.14221
-3.18412
-3.31969
-3.23613
-3.18065
-3.18908
-3.23134
-3.19036
-3.19218
-3.21019
-3.24885
-3.25691
-3.29709
-3.27992
-3.29041
-3.4245
-3.39813
-3.46964
-3.56484
-3.40975
-3.4636
-3.4877
-3.31587
-3.34161
-3.35551
-3.33567
-3.32299
-3.3628
-3.37504
-3.39171
-3.36326
-3.36443
-3.38903
-3.36897
-3.57445
-3.58764
-3.59265
-3.75402
-3.70489
-3.61594
-3.55434
-3.51634
-3.52247
-3.52756
-3.48974
-3.48597
-3.581
-3.55819
-3.56181
-3.66958
-3.67038
-3.69682
-3.64505
-3.75582
-3.82036
-3.85277
-3.84473
-3.91772
-3.81978
-3.7505
-3.75648
-3.68761
-3.67766
-3.62554
-3.6174
-3.75605
-3.79887
-3.84522
-3.88199
-3.92226
-3.9221
-3.88014
-3.95467
-4.03542
-4.1005
-4.13161
-4.13331
-3.9811
-3.88374
-3.87704
-3.76793
-3.76627
-3.7538
-3.75139
-3.91328
-3.91835
-3.95219
-3.97411
-3.96251
-3.98669
-4.11801
-4.1721
-4.28728
-4.30305
-4.3253
-4.283
-4.15782
-4.09255
-3.93749
-3.88952
-3.90959
-3.92251
-3.8947
-4.06432
-4.11938
-4.15949
-4.19285
-4.17396
-4.26414
-4.49572
-4.40901
-4.46017
-4.43428
-4.45646
-4.41942
-4.33957
-4.20159
-4.06501
-3.99046
-4.02867
-4.02763
-4.01057
-4.23416
-4.24917
-4.24285
-4.2076
-4.28908
-4.39187
-4.57016
-4.57516
-4.61871
-4.64614
-4.6114
-4.56822
-4.47075
-4.32988
-4.16216
-4.28898
-4.25183
-4.19896
-4.18146
-4.38471
-4.37723
-4.28738
-4.36804
-4.41206
-4.50644
-4.52479
-4.73415
-4.81308
-4.84116
-4.74013
-4.74408
-4.60121
-4.45967
-4.44318
-4.39993
-4.40674
-4.32077
-4.31291
-4.56134
-4.54534
-4.61602
-4.514
-4.5541
-4.56578
-4.65874
-4.73353
-4.85374
-4.97308
-4.84473
-4.79099
-4.60805
-4.53024
-4.48436
-4.46722
-4.37557
-4.49168
-4.43699
-4.716
-4.70292
-4.75866
-4.68526
-4.66696
-4.7023
-4.77696
-4.81702
-4.8901
-4.88569
-4.9349
-4.9105
-4.81449
-4.61022
-4.57597
-4.57735
-4.62562
-4.59625
-4.593
-4.84518
-4.83178
-4.775
-4.82629
-4.80784
-4.95089
-4.88254
-4.98194
-4.97752
-4.84919
-4.95789
-4.97454
-4.88775
-4.80443
-4.84769
-4.88779
-4.90511
-4.92508
-4.84728
-4.96224
-4.9505
-4.93812
-4.94878
-4.97515
-4.95236
-4.98405
-4.95076
-5.02757
-4.9732
-5.02277
-5.10915
-5.04187
-5.01828
-4.99716
-5.04686
-5.0454
-5.01894
-4.99237
-5.1668
-5.09654
-5.06586
-5.04692
-5.06653
-5.04175
-5.11752
-5.06176
-5.10769
-5.17767
-5.17959
-5.27226
-5.22074
-5.14176
-5.16926
-5.16788
-5.17897
-5.1593
-5.0746
-5.24641
-5.24326
-5.18555
-5.2597
-5.19381
-5.21441
-5.18535
-5.19711
-5.20161
-5.23715
-5.3208
-5.3585
-5.39243
-5.31711
-5.26425
-5.29955
-5.27665
-5.30661
-5.33464
-5.39325
-5.38571
-5.39955
-5.36974
-5.36548
-5.37692
-5.32329
-5.37757
-5.33224
-5.38601
-5.38721
-5.44816
-5.44082
-5.44204
-5.38109
-5.3568
-5.36869
-5.39354
-5.45695
-5.51398
-5.49267
-5.52769
-5.53377
-5.5086
-5.49803
-5.49419
-5.49516
-5.4803
-5.52398
-5.53032
-5.55511
-5.54751
-5.56419
-5.53935
-5.54439
-5.46865
-5.48092
-5.45727
-5.66483
-5.68767
-5.67663
-5.66782
-5.68697
-5.67107
-5.65812
-5.65485
-5.63781
-5.64867
-5.64831
-5.66428
-5.68284
-5.66853
-5.6901
-5.69835
-5.69589
-5.64306
-5.63378
)
;

boundaryField
{
    leftWall
    {
        type            calculated;
        value           nonuniform List<scalar> 
50
(
1077.38
1020.07
963.006
907.379
852.835
799.408
746.84
694.864
615.698
513.551
416.378
307.316
222.407
152.977
135.168
117.898
88.7022
45.1685
11.0362
1.09056
-0.79414
-1.55731
-1.5362
-1.83417
-2.0223
-2.18823
-2.37904
-2.50219
-2.59574
-2.70431
-3.6434
-2.40596
-1.51082
-2.56372
0.34453
-1.43477
3.59813
-0.845074
-4.14331
-4.62005
-4.64905
-4.65158
-4.85056
-5.15924
-5.06051
-5.31914
-5.4731
-5.46684
-5.72111
-5.90371
)
;
    }
    rightWall
    {
        type            calculated;
        value           nonuniform List<scalar> 
50
(
546.864
491.337
454.98
413.203
372.375
333.143
289.792
254.765
194.447
150.373
104.899
48.7207
29.5861
14.5211
-0.582452
-1.38455
-1.59118
-1.57554
-1.5045
-1.536
-1.58478
-1.67993
-1.29995
-1.2815
-1.95854
-2.15065
-2.39094
-2.44791
-2.60697
-2.76957
-2.9304
-3.05714
-3.19036
-3.32299
-3.48597
-3.6174
-3.75139
-3.8947
-4.01057
-4.18146
-4.31291
-4.43699
-4.593
-4.84728
-4.99237
-5.0746
-5.33464
-5.45695
-5.45727
-5.63378
)
;
    }
    lowerWall
    {
        type            calculated;
        value           nonuniform List<scalar> 
62
(
1106.81
1100.65
1090.6
1075.74
1052.53
1017.59
970.078
918.187
868.688
811.129
771.198
735.198
719.097
720.322
737.294
769.138
798.901
818.45
833.379
847.43
860.836
865.264
861.649
832.22
773.246
713.994
653.989
593.813
533.309
468.996
400.149
299.919
289.363
272.786
242.986
497.87
436.575
361.061
315.832
277.666
244.033
185.269
110.2
526.625
444.014
406.468
446.367
494.057
473.407
425.763
353.529
323.758
313.419
307.053
326.321
354.859
373.482
420.193
462.101
520.714
561.908
575.919
)
;
    }
    atmosphere
    {
        type            calculated;
        value           nonuniform List<scalar> 
46
(
-5.94757
-6.09127
-5.86368
-5.80632
-5.80712
-5.79562
-5.77991
-5.7655
-5.76078
-5.74635
-5.73927
-5.73101
-5.72939
-5.72904
-5.72911
-5.72904
-5.72904
-5.72904
-5.73251
-5.73629
-5.736
-5.7563
-5.74842
-5.73539
-5.72904
-5.73176
-5.73813
-5.73984
-5.75356
-5.76234
-5.7616
-5.75674
-5.74701
-5.73724
-5.73129
-5.72904
-5.72905
-5.72911
-5.72954
-5.72929
-5.7386
-5.74641
-5.94912
-5.7811
-5.72912
-5.72905
)
;
    }
    defaultFaces
    {
        type            empty;
    }
}


// ************************************************************************* //
