/*--------------------------------*- C++ -*----------------------------------*\
| =========                 |                                                 |
| \\      /  F ield         | foam-extend: Open Source CFD                    |
|  \\    /   O peration     | Version:     4.1                                |
|   \\  /    A nd           | Web:         http://www.foam-extend.org         |
|    \\/     M anipulation  |                                                 |
\*---------------------------------------------------------------------------*/
FoamFile
{
    version     2.0;
    format      ascii;
    class       surfaceScalarField;
    location    "1";
    object      phi_0;
}
// * * * * * * * * * * * * * * * * * * * * * * * * * * * * * * * * * * * * * //

dimensions      [0 3 -1 0 0 0 0];

internalField   nonuniform List<scalar> 
4432
(
-1.00017e-06
1.00017e-06
-8.34563e-07
-1.65617e-07
-1.02793e-08
-8.24283e-07
4.51754e-07
-4.62037e-07
-7.63906e-08
5.28147e-07
-9.26594e-07
8.50204e-07
-2.01137e-07
-7.25457e-07
1.58102e-06
-1.78216e-06
4.87302e-06
-3.292e-06
1.30318e-05
-8.15874e-06
1.63238e-05
-3.29207e-06
1.93474e-05
-3.02358e-06
2.01735e-05
-8.26084e-07
1.68301e-05
3.34343e-06
1.17483e-05
5.08174e-06
8.9734e-06
2.77494e-06
6.68046e-06
2.29294e-06
3.6155e-06
3.06496e-06
8.41367e-07
2.77413e-06
-1.10597e-06
1.94734e-06
-1.34231e-06
2.36344e-07
1.48678e-06
-2.82909e-06
1.48678e-06
3.62782e-07
6.37391e-07
5.80171e-07
-3.83018e-07
3.05325e-07
-5.49433e-07
4.14526e-08
-1.98166e-07
1.60736e-07
4.08867e-07
-1.78958e-07
1.1899e-06
6.0332e-07
-1.50773e-06
2.98307e-06
-4.16191e-06
6.43848e-06
-6.74741e-06
1.07974e-05
-1.25176e-05
1.51126e-05
-7.60731e-06
1.79754e-05
-5.8864e-06
1.75691e-05
-4.19693e-07
1.27974e-05
8.1151e-06
7.9773e-06
9.90184e-06
2.773e-06
7.97924e-06
3.02809e-06
2.03784e-06
1.61442e-07
5.93162e-06
-1.02637e-06
3.96195e-06
-1.36893e-06
2.28989e-06
-1.86619e-06
7.33606e-07
1.09786e-06
-5.79314e-06
2.58464e-06
-4.42627e-07
1.08002e-06
-1.43871e-06
6.13056e-07
-2.28879e-06
3.00652e-07
-2.72341e-06
2.36456e-07
-2.62691e-06
3.12363e-07
-1.22819e-06
-2.08826e-07
-6.16977e-07
-2.11895e-06
4.70537e-07
-5.24942e-06
1.24008e-06
-7.51695e-06
3.78079e-06
-1.50584e-05
1.06747e-05
-1.45012e-05
1.38193e-05
-9.031e-06
8.21652e-06
5.18313e-06
1.1196e-05
5.13563e-06
5.54799e-06
1.55498e-05
2.70062e-07
1.32572e-05
-2.48469e-06
4.79258e-06
-2.33153e-06
5.77846e-06
-4.57286e-06
6.20328e-06
-2.81835e-06
5.35378e-07
-3.41979e-06
1.33505e-06
8.60087e-07
-1.0073e-05
3.44473e-06
-8.89806e-07
1.96983e-06
-1.61515e-06
1.33839e-06
-9.09904e-07
-4.04588e-07
-7.53479e-07
8.0031e-08
-6.29612e-07
1.88497e-07
-1.54577e-06
7.07331e-07
-9.86107e-07
-2.67861e-06
-2.95584e-06
-3.27967e-06
-4.02522e-07
-1.00703e-05
2.5561e-06
-1.8017e-05
8.40456e-06
-2.03497e-05
1.16358e-05
-1.22622e-05
1.32969e-05
3.52205e-06
9.01992e-06
9.4126e-06
3.14031e-06
2.14295e-05
-1.59162e-06
1.79891e-05
-7.65321e-06
1.08542e-05
-1.04874e-05
8.61261e-06
-5.48103e-06
1.19695e-06
-7.84146e-06
2.89581e-06
-5.13263e-06
-1.37377e-06
1.08602e-06
-1.62917e-05
4.53075e-06
-9.60157e-07
2.92999e-06
-9.05582e-07
1.28381e-06
-1.71218e-06
4.0201e-07
-2.44668e-06
8.14536e-07
-1.95814e-06
-3.00042e-07
-3.671e-06
2.42019e-06
-3.10385e-06
-3.24575e-06
-3.09805e-06
-3.28547e-06
-1.56174e-06
-1.16066e-05
1.91666e-06
-2.14954e-05
5.09349e-06
-2.35265e-05
9.71317e-06
-1.68819e-05
1.19001e-05
1.33509e-06
9.43327e-06
1.18795e-05
2.0742e-06
2.87885e-05
-4.69302e-06
2.47563e-05
-1.11261e-05
1.72873e-05
-1.58465e-05
1.3333e-05
-1.50718e-05
4.22284e-07
-1.26562e-05
4.80192e-07
-8.45143e-06
-5.57854e-06
2.60153e-07
-2.50033e-05
4.7909e-06
-1.03918e-06
3.96917e-06
-2.89652e-06
3.14116e-06
-3.23554e-06
7.41029e-07
-3.85533e-06
1.43432e-06
-2.47161e-06
-1.68376e-06
-3.99065e-06
3.93923e-06
-4.01394e-06
-3.22246e-06
-3.64293e-06
-3.65647e-06
-6.30128e-06
-8.94822e-06
-3.88479e-06
-2.39119e-05
-3.6491e-06
-2.37622e-05
3.13854e-07
-2.08449e-05
5.36537e-06
-3.71643e-06
3.89827e-06
1.33466e-05
-2.31895e-06
3.50057e-05
-1.00504e-05
3.24878e-05
-1.68715e-05
2.41084e-05
-2.26028e-05
1.90643e-05
-2.14719e-05
-7.08568e-07
-1.8481e-05
-2.51075e-06
-5.76151e-06
-1.8298e-05
1.83388e-06
-3.25986e-05
6.62478e-06
-1.78408e-06
5.75326e-06
-2.55655e-06
3.91362e-06
-1.75418e-06
-6.13387e-08
-1.75543e-06
1.43558e-06
-2.75223e-06
-6.86958e-07
-5.19272e-06
6.37972e-06
-1.19087e-05
3.4935e-06
-1.08009e-05
-4.76423e-06
-1.27336e-05
-7.0156e-06
-1.6905e-05
-1.97404e-05
-2.20826e-05
-1.85846e-05
-2.10319e-05
-2.18956e-05
-1.20424e-05
-1.27059e-05
-9.33832e-06
1.06425e-05
-1.12875e-05
3.69549e-05
-1.78437e-05
3.9044e-05
-2.43055e-05
3.05701e-05
-2.92819e-05
2.40406e-05
-2.67419e-05
-3.24854e-06
-1.96808e-05
-9.57185e-06
-1.07985e-05
-2.71804e-05
1.48526e-06
-4.48824e-05
8.11004e-06
-1.07328e-06
6.82654e-06
-4.93786e-06
7.77821e-06
-7.65845e-06
2.65925e-06
-9.92282e-06
3.69994e-06
-1.28603e-05
2.2505e-06
-7.47608e-06
9.95527e-07
-7.79459e-06
3.81201e-06
-1.43756e-05
1.81679e-06
-2.14197e-05
2.8505e-08
-3.38476e-05
-7.31252e-06
-4.3603e-05
-8.82916e-06
-4.76879e-05
-1.78107e-05
-4.15781e-05
-1.88157e-05
-2.84563e-05
-2.47931e-06
-1.83806e-05
2.68793e-05
-2.69769e-05
4.76403e-05
-2.99161e-05
3.35093e-05
-1.93549e-05
1.34794e-05
-2.87258e-05
6.12241e-06
-1.93773e-05
-1.89204e-05
-1.27029e-05
-3.38547e-05
1.04228e-06
-5.86276e-05
9.15232e-06
-2.86262e-05
2.86262e-05
-4.1227e-05
1.26008e-05
-4.12832e-05
5.62081e-08
-3.16256e-05
-9.65752e-06
-2.42616e-05
-7.36405e-06
-2.76764e-05
3.41486e-06
-3.37978e-05
6.12133e-06
-3.62713e-05
2.47351e-06
-2.99617e-05
-6.30954e-06
-1.38869e-05
-1.60749e-05
4.55091e-06
-1.84378e-05
6.92585e-06
-2.37494e-06
-8.03566e-06
1.49615e-05
-1.04287e-05
2.39302e-06
-1.76326e-05
7.2039e-06
-1.74223e-05
-2.1025e-07
-1.32781e-05
-4.14424e-06
-3.30417e-06
-9.97392e-06
-3.30417e-06
-1.84309e-05
4.70571e-05
-2.51969e-05
1.93668e-05
-1.6901e-05
-8.23966e-06
3.21511e-06
-2.97737e-05
1.14322e-05
-1.55811e-05
1.37201e-06
1.3475e-05
-7.53875e-06
1.50321e-05
-2.55588e-05
2.04936e-05
-2.37723e-05
-8.09608e-06
-1.31418e-05
-2.67054e-05
6.06965e-06
-3.76492e-05
1.01761e-05
-6.48135e-06
1.49787e-05
1.01589e-05
3.11974e-07
1.70597e-05
-2.48157e-06
9.99744e-06
7.29331e-07
-3.42115e-06
-1.52408e-06
-1.89082e-06
-3.03487e-06
-8.46314e-06
-6.33904e-06
-3.33192e-06
5.0389e-05
1.36011e-06
1.46747e-05
7.93203e-06
-1.48116e-05
2.32137e-05
-4.50553e-05
2.78519e-05
-2.02194e-05
3.17496e-05
9.57739e-06
1.68131e-05
2.99685e-05
-4.14542e-07
3.77213e-05
5.44405e-06
-1.39547e-05
6.13779e-06
-2.73991e-05
2.06558e-06
-3.3577e-05
1.53837e-05
-1.97994e-05
8.87912e-06
1.66634e-05
1.19986e-05
1.39402e-05
9.32575e-06
1.26703e-05
4.46849e-06
1.43611e-06
4.70575e-06
-2.12809e-06
-1.55019e-06
-2.2072e-06
-7.88923e-06
9.28664e-06
4.11024e-05
3.06618e-05
-6.70047e-06
3.99843e-05
-2.4134e-05
4.63895e-05
-5.14606e-05
4.37691e-05
-1.75989e-05
4.2626e-05
1.07204e-05
4.27211e-05
2.98734e-05
2.1986e-05
5.84564e-05
1.93901e-05
-1.13588e-05
1.4317e-05
-2.2326e-05
2.11863e-06
-2.13787e-05
5.07976e-06
-2.27606e-05
2.06406e-05
1.10254e-06
1.55695e-05
1.90114e-05
8.97416e-06
1.92657e-05
3.32754e-06
7.08273e-06
6.34138e-06
-5.14192e-06
4.01862e-06
1.1556e-07
-3.8706e-06
1.96182e-05
2.14842e-05
2.64426e-05
-1.35249e-05
5.25577e-05
-5.0249e-05
5.65047e-05
-5.54076e-05
4.85889e-05
-9.68308e-06
4.1167e-05
1.81423e-05
4.52309e-05
2.58095e-05
3.23063e-05
7.1381e-05
2.93297e-05
-8.38218e-06
3.24336e-05
-2.54299e-05
3.61774e-06
7.43714e-06
2.66855e-06
-2.18114e-05
1.43456e-05
-1.05745e-05
1.41655e-05
1.91914e-05
9.17714e-06
2.42541e-05
3.40333e-06
1.28565e-05
2.22868e-06
-3.96727e-06
1.44157e-06
9.02668e-07
-2.42903e-06
2.57832e-05
-4.29897e-06
3.0677e-05
-1.84188e-05
5.78871e-05
-7.74591e-05
5.83354e-05
-5.58559e-05
5.08383e-05
-2.18598e-06
3.6933e-05
3.20477e-05
2.48463e-05
3.78961e-05
3.5447e-05
6.07803e-05
3.89052e-05
-1.18403e-05
4.54357e-05
-3.19604e-05
2.07686e-05
3.21042e-05
-4.98265e-07
-5.44493e-07
4.58424e-06
-1.5657e-05
7.46802e-06
1.63076e-05
5.04816e-06
2.66739e-05
2.44493e-06
1.54598e-05
5.80587e-06
-7.32822e-06
3.16329e-06
3.54524e-06
7.34264e-07
3.87292e-05
-4.30281e-05
5.37795e-05
-3.34691e-05
5.90077e-05
-8.26874e-05
4.98444e-05
-4.66926e-05
2.31287e-05
2.45297e-05
3.09357e-05
2.42407e-05
1.80081e-05
5.08237e-05
3.57951e-05
4.29934e-05
3.8579e-05
-1.46243e-05
4.71976e-05
-4.0579e-05
3.26681e-05
4.66338e-05
-7.43904e-07
3.28675e-05
-1.90763e-06
-1.44933e-05
9.7997e-06
4.60028e-06
1.39533e-05
2.25203e-05
1.33079e-05
1.61052e-05
5.56943e-06
4.10244e-07
3.27898e-06
5.83569e-06
4.01325e-06
2.60044e-05
-6.90326e-05
5.69575e-05
-6.44222e-05
2.99193e-05
-5.56491e-05
3.96559e-05
-5.64292e-05
2.8022e-05
3.61636e-05
1.1457e-05
4.08058e-05
2.38575e-05
3.84232e-05
3.36159e-05
3.32349e-05
3.69198e-05
-1.79281e-05
2.09764e-05
-2.46356e-05
3.36708e-05
3.39394e-05
1.64362e-05
5.0102e-05
-1.03966e-05
1.23395e-05
6.24261e-06
-1.20389e-05
1.06955e-05
1.80674e-05
1.90383e-05
7.76244e-06
1.25306e-05
6.91792e-06
5.0602e-06
1.33061e-05
9.07344e-06
-1.05386e-06
7.8804e-06
-2.12239e-06
8.84673e-06
-9.6071e-06
1.0144e-05
-1.49445e-05
9.03732e-06
-2.90929e-05
1.63989e-05
-3.23653e-05
4.26788e-06
-4.31258e-05
1.45726e-05
-6.03101e-05
1.9001e-05
-8.20354e-05
2.17538e-05
-0.000109481
2.01329e-05
-0.000147608
2.92976e-05
-0.000170526
5.10756e-06
-0.000168206
-2.11351e-05
-0.000131776
-3.89095e-05
-0.000107966
3.06948e-06
-8.81293e-05
2.78032e-05
-7.14486e-05
1.68286e-05
-7.10414e-05
1.30723e-05
-6.89082e-05
3.9892e-06
-4.53605e-05
-4.24681e-05
-1.6641e-05
-6.25742e-05
-7.6296e-06
-6.7639e-05
-4.19185e-05
4.34412e-05
-4.16775e-06
1.20482e-05
-1.5881e-05
2.056e-05
-1.24002e-05
6.66322e-06
-1.49808e-05
1.16179e-05
-1.69946e-05
1.84127e-05
-2.88178e-05
1.60911e-05
-3.74048e-05
2.31596e-05
-5.49247e-05
3.65209e-05
-7.55671e-05
4.23961e-05
-9.99732e-05
4.45391e-05
-0.000172098
0.000101422
-0.000218169
5.11787e-05
-0.000203255
-3.60492e-05
-0.00018276
-5.94044e-05
-0.000135902
-4.37886e-05
-0.000103982
-4.11705e-06
-8.32612e-05
-3.89185e-06
-6.9044e-05
-1.14501e-06
-5.64833e-05
-8.57143e-06
-3.7604e-05
-6.13475e-05
-3.74696e-05
-6.27085e-05
-4.07955e-05
-6.43131e-05
-7.38615e-05
-8.85251e-06
-8.99593e-06
2.10441e-05
-1.11549e-05
2.27189e-05
-2.75646e-05
2.3073e-05
-3.06974e-05
1.47507e-05
-1.94456e-05
7.16092e-06
-1.56449e-05
1.22904e-05
-1.96778e-05
2.71925e-05
-1.87855e-05
3.56286e-05
-6.56589e-06
3.01765e-05
-6.28151e-05
0.000100788
-0.000163872
0.000202479
-0.000199598
8.69052e-05
-0.000191541
-4.41062e-05
-0.000179712
-7.12334e-05
-0.000140133
-8.33681e-05
-0.000104578
-3.96722e-05
-8.69586e-05
-2.15108e-05
-8.38805e-05
-4.22307e-06
-5.3948e-05
-3.8504e-05
-4.70219e-05
-6.82735e-05
-5.24506e-05
-5.72799e-05
-2.41455e-05
-9.26182e-05
-6.69399e-05
-3.10671e-05
-1.19847e-05
3.30288e-05
-2.39262e-05
3.46603e-05
-1.68681e-05
1.60149e-05
-2.49898e-05
2.28724e-05
-2.35946e-05
5.76568e-06
-1.85101e-05
7.20593e-06
-5.70842e-06
1.43908e-05
-2.76027e-07
3.01962e-05
-1.1675e-05
4.15755e-05
2.73578e-06
8.63775e-05
-7.59244e-06
0.000212807
-0.000125509
0.000204822
-0.000207496
3.78809e-05
-0.000206271
-7.2458e-05
-0.000157448
-0.000132192
-0.000104891
-9.22286e-05
-8.77215e-05
-3.86806e-05
-6.05401e-05
-3.14045e-05
-0.000113659
1.4615e-05
-9.41902e-05
-8.77424e-05
-5.86632e-05
-9.2807e-05
-5.05144e-05
-0.000100767
-5.1471e-05
-6.59833e-05
-2.47896e-05
5.78184e-05
-1.37164e-05
2.35872e-05
-1.74659e-05
1.97644e-05
-1.48267e-05
2.02332e-05
-2.48425e-05
1.57814e-05
-1.90309e-05
1.39437e-06
-1.30013e-05
8.36122e-06
-8.75885e-06
2.59538e-05
-1.27707e-06
3.40937e-05
2.70908e-05
5.80096e-05
6.92228e-05
0.000170675
-2.37529e-05
0.000297797
-0.000115252
0.00012938
-0.000189117
1.40674e-06
-0.000256209
-6.50997e-05
-0.000258126
-9.03111e-05
-0.000145892
-0.000150915
-2.69613e-05
-0.000150335
-3.17353e-05
1.93892e-05
-7.05798e-05
-4.88981e-05
-4.11089e-05
-0.000122278
-6.34321e-05
-7.84438e-05
-3.33071e-05
-8.15961e-05
-7.32791e-06
6.51463e-05
-3.04132e-05
4.66725e-05
-2.49358e-05
1.4287e-05
-2.23545e-05
1.76519e-05
-2.53717e-05
1.87987e-05
-2.1875e-05
-2.10225e-06
-1.52886e-05
1.77476e-06
2.94867e-06
7.71652e-06
2.34328e-05
1.36095e-05
3.64461e-05
4.49963e-05
4.70727e-05
0.000160049
-0.000103113
0.000447983
-0.000141369
0.000167636
-0.000231699
9.17362e-05
-0.000230325
-6.64735e-05
-0.000208723
-0.000111913
-0.000162516
-0.000197122
-0.000120255
-0.000192596
1.89618e-06
-0.000102762
5.71115e-07
-4.75731e-05
-4.64514e-05
-7.52552e-05
-5.12286e-05
-7.36666e-05
-7.08522e-05
-1.36835e-05
4.45618e-05
2.05845e-05
-3.53835e-06
9.47726e-05
-2.64866e-05
3.72352e-05
-3.23601e-05
2.35254e-05
-3.66014e-05
2.304e-05
-1.19499e-05
-2.67537e-05
2.74062e-05
-3.75813e-05
6.29812e-05
-2.78585e-05
3.85607e-05
3.80301e-05
1.01188e-05
7.34381e-05
-3.64134e-05
0.000206581
-0.000127358
0.000538928
-0.000158015
0.000198293
-0.000171873
0.000105594
-0.000207927
-3.04194e-05
-0.000179717
-0.000140123
-0.000178797
-0.000198043
-0.000160245
-0.000211148
-0.0001057
-0.000157307
-4.14036e-05
-0.000111869
-3.2053e-05
-8.46058e-05
-3.35051e-05
-7.22146e-05
-7.87414e-05
-2.56159e-05
2.23728e-05
-1.78835e-06
-8.14118e-06
0.000125287
-3.04458e-05
5.95399e-05
-4.03711e-05
3.34506e-05
2.46211e-05
-4.19522e-05
4.87346e-05
-5.08673e-05
0.00010066
-8.9507e-05
6.14917e-05
1.131e-05
8.853e-06
9.06689e-05
-7.87604e-05
0.000161052
-0.000192807
0.000320627
-0.000151406
0.000497527
-0.00017128
0.000218166
-0.00017682
0.000111134
-0.000190622
-1.66171e-05
-0.000170024
-0.000160721
-0.000169559
-0.000198508
-0.00017819
-0.000202516
-0.000158855
-0.000176643
-0.000126821
-0.000143902
-6.3531e-05
-0.000147896
-3.11948e-05
-0.000104551
-0.00010077
-9.16604e-06
-1.36573e-05
1.18689e-05
-6.66486e-05
0.000178278
-6.36156e-05
5.65069e-05
-1.27004e-05
-1.74646e-05
6.59513e-05
-0.000120604
4.34261e-05
-2.8342e-05
-4.31824e-05
-2.89843e-06
-0.00012313
9.12575e-05
-0.000205224
0.000172763
-0.000304946
0.000260773
-0.000355712
0.000371393
-0.000253707
0.000395522
-0.000218927
0.000183386
-0.000198723
9.09298e-05
-0.000145251
-7.00891e-05
-9.5312e-05
-0.000210659
-9.78236e-05
-0.000195997
-0.000128048
-0.000172292
-0.000138974
-0.000165717
-0.000107392
-0.000175484
-0.000101757
-0.000153531
-5.1625e-05
-0.000154683
-0.000114814
-3.75808e-05
-6.14952e-06
1.80184e-05
-5.41139e-05
0.000226242
-7.71185e-05
7.95115e-05
4.09512e-05
-0.000135534
-6.17862e-05
-1.78665e-05
-0.000173306
8.3178e-05
-0.000287413
0.000111209
-0.000294179
9.80236e-05
-0.000372461
0.000251045
-0.000421729
0.000310041
-0.000353626
0.00030329
-0.000310571
0.000352467
-0.000267094
0.000139909
-0.000175365
-7.99289e-07
-9.78308e-05
-0.000147623
-4.48917e-05
-0.000263598
-2.86298e-05
-0.000212259
2.43858e-06
-0.00020336
-1.19636e-05
-0.000151315
-3.24953e-05
-0.000154953
-6.79233e-05
-0.000118103
-0.000114667
-0.000107939
-0.000111298
-0.000118184
1.75388e-06
1.62646e-05
-2.74742e-05
0.00025547
-0.000113235
0.000165273
-0.000179405
-6.93645e-05
-0.000223622
2.63501e-05
-0.00026744
0.000126995
-0.000326098
0.000169867
-0.00036214
0.000134067
-0.000384523
0.000273428
-0.000376158
0.000301677
-0.000343413
0.000270545
-0.000293483
0.000302536
-0.000220178
6.66044e-05
-0.000149612
-7.13647e-05
-6.45102e-05
-0.000232725
-4.24727e-05
-0.000285636
-2.77547e-05
-0.000226977
1.2658e-06
-0.000232381
1.9028e-05
-0.000169077
-4.81556e-05
-8.77695e-05
-9.22613e-05
-7.39977e-05
-0.000131293
-6.89074e-05
-0.0001101
-0.000132491
-2.89694e-06
1.91616e-05
-3.7783e-05
0.000290357
-4.34835e-05
0.000170973
-0.000132651
1.9803e-05
-0.000175513
6.92123e-05
-0.000136449
8.79311e-05
-0.000170573
0.000203991
-0.000328297
0.000291791
-0.000336996
0.000282126
-0.000366534
0.000331215
-0.000377554
0.000281565
-0.000159133
8.41159e-05
-0.000112839
2.03104e-05
-6.82465e-05
-0.000115958
-0.000117648
-0.000183323
-0.00010593
-0.000297354
-5.9927e-05
-0.000272979
-1.8907e-05
-0.000273401
1.50256e-05
-0.00020301
1.78927e-05
-9.06366e-05
-1.2811e-05
-4.32942e-05
-3.07783e-05
-5.09401e-05
-8.98212e-05
-5.10567e-05
-1.27763e-05
3.19378e-05
-2.03515e-05
0.000297932
-4.02636e-05
0.000190885
-8.66998e-05
6.62387e-05
-0.000139409
0.000121922
-0.000230354
0.000178876
-0.000257912
0.000231549
-0.000261433
0.000295312
-0.000291352
0.000312045
-0.000283888
0.000323751
-0.000249183
0.00024686
-0.000215423
5.03555e-05
-0.000166131
-2.8981e-05
-0.00016988
-0.000112209
-9.68292e-05
-0.000256374
-0.00011828
-0.000275903
-9.2163e-05
-0.000299096
-4.31296e-05
-0.000322434
-3.76175e-06
-0.000242378
3.99411e-05
-0.000134339
5.57098e-05
-5.90629e-05
5.38428e-07
4.23112e-06
-5.20441e-05
-3.72387e-05
-1.35513e-05
4.54891e-05
-6.50445e-06
0.000290885
-3.72774e-05
0.000221658
-8.64988e-05
0.00011546
-0.000137989
0.000173412
-9.22503e-05
0.000133137
-0.000168554
0.000307853
-0.000213368
0.000340126
-0.00023421
0.000332887
-0.000207664
0.000297205
-0.00010244
0.000141636
-0.000158963
0.000106878
-0.000156076
-3.18677e-05
-0.000178193
-9.00929e-05
-0.000177228
-0.000257338
-0.000162925
-0.000290206
-0.000143386
-0.000318636
-0.000117509
-0.000348311
-5.94474e-05
-0.000300439
-2.57019e-05
-0.000168085
-3.01182e-05
-5.46468e-05
-4.8779e-05
2.2892e-05
-2.83285e-05
-7.24947e-05
-7.15556e-06
5.26446e-05
-3.88881e-06
0.000287618
-3.19152e-05
0.000249685
-3.33049e-05
0.00011685
-4.76001e-05
0.000187707
-4.99195e-05
0.000135457
-7.09016e-05
0.000328835
-8.77498e-05
0.000356974
-0.000132956
0.000378093
-4.20835e-05
0.000206332
-0.000145108
0.00024466
-0.000117249
7.90194e-05
-0.000161239
1.21221e-05
-0.000111848
-0.000139484
-0.000172332
-0.000196853
-0.000172831
-0.000289708
-0.000169095
-0.000322372
-0.000157364
-0.000360042
-0.000148217
-0.000309586
-0.000132683
-0.000183618
-0.000142665
-4.46651e-05
-0.000106809
-1.2964e-05
-7.06466e-05
-6.44911e-05
-2.68671e-07
5.29132e-05
-3.62594e-06
0.000290975
-1.82024e-05
0.000264261
-3.96853e-05
0.000138333
-1.44189e-05
0.000162441
-1.0681e-05
0.000131719
-2.40553e-05
0.000342209
-3.06194e-05
0.000363538
-2.63423e-05
0.000373816
-2.36147e-05
0.000203605
-3.55902e-05
0.000256636
-6.21249e-05
0.000105554
-9.30429e-05
4.30405e-05
-9.61803e-05
-0.000136347
-0.000138563
-0.000154471
-0.000190229
-0.000238041
-0.000179664
-0.000332937
-0.000196576
-0.000343131
-0.000189673
-0.000316488
-0.000186403
-0.000186889
-0.000106786
-0.000124282
-6.98969e-05
-4.98531e-05
-7.93897e-05
-6.11536e-05
1.28823e-05
4.00309e-05
1.53453e-05
0.000288512
-6.11679e-06
0.000285723
-5.14465e-05
0.000183663
-9.83965e-06
0.000120834
6.69556e-06
0.000115184
1.77568e-05
0.000331148
2.57206e-05
0.000355574
4.21643e-05
0.000357372
3.92396e-05
0.00020653
1.02757e-05
0.0002856
1.53746e-05
0.000100455
1.50883e-05
4.3327e-05
2.6115e-05
-0.000147373
8.28286e-06
-0.000136638
-3.7529e-05
-0.000192229
-6.69809e-05
-0.000303485
-0.000126885
-0.000283227
-0.000141087
-0.000302286
-0.000155736
-0.000172239
-0.000123172
-0.000156846
-4.24632e-05
-0.000130562
-9.56918e-05
-2.6161e-05
2.33368e-05
1.6694e-05
3.58555e-05
0.000275993
1.89593e-05
0.00030262
-2.03267e-05
0.000222948
1.55273e-06
9.89547e-05
1.7867e-05
9.88692e-05
5.51848e-05
0.00029383
6.02212e-05
0.000350538
0.000118891
0.000298702
0.000124118
0.000201303
0.000136455
0.000273263
0.000120924
0.000115987
0.000124878
3.93731e-05
9.70412e-05
-0.000119536
0.000101038
-0.000140635
8.65197e-05
-0.000177711
5.02653e-05
-0.00026723
1.54194e-05
-0.000248381
-2.75559e-05
-0.000259311
-5.58001e-05
-0.000143995
-3.14876e-05
-0.000181159
-2.86405e-05
-0.000133409
-0.000101975
-2.23569e-05
3.10578e-05
-1.4364e-05
4.49946e-05
0.000262056
4.95421e-05
0.000298072
3.10463e-05
0.000241444
2.32273e-05
0.000106774
2.37348e-05
9.83616e-05
7.73784e-05
0.000240186
0.000119969
0.000307947
0.000228785
0.000189886
0.000174081
0.000256007
0.00023509
0.000212254
0.000212653
0.000138424
0.000230564
2.14622e-05
0.000200817
-8.97891e-05
0.000239548
-0.000179366
0.000179633
-0.000117796
0.00011713
-0.000204727
0.000108056
-0.000239307
3.92221e-05
-0.000190477
1.9148e-05
-0.000123921
1.12706e-05
-0.000173282
1.41624e-05
-0.000136301
-8.59522e-05
-1.86066e-06
2.244e-05
-3.68041e-05
6.24971e-05
0.000221999
8.22068e-05
0.000278362
7.38001e-05
0.000249851
4.55186e-05
0.000135055
3.26317e-05
0.000111249
0.000120826
0.000151992
0.000160891
0.000267882
0.00011876
0.000232017
0.000191382
0.000183385
0.00024644
0.000157195
0.000276273
0.000108591
0.000290441
7.29487e-06
0.000228163
-2.75109e-05
0.000190773
-0.000141976
0.000257475
-0.000184498
0.000250168
-0.000197421
0.000201239
-0.000190378
0.00010585
-9.5088e-05
0.000110608
-0.00012868
4.0138e-05
-0.000102811
2.79264e-05
-0.000124089
-8.10635e-05
2.30377e-05
3.21085e-05
-6.89127e-05
8.31534e-05
0.000170954
8.16e-05
0.000279915
0.000115598
0.000215852
5.81439e-05
0.00019251
5.3067e-05
0.000116325
9.30101e-05
0.000112049
0.000138905
0.000221987
0.000163839
0.000207083
0.00020073
0.000146494
0.00025324
0.000104686
0.000295741
6.60892e-05
0.000310309
-7.27243e-06
0.000351471
-6.86734e-05
0.000334848
-0.000125352
0.000294948
-0.000144599
0.000262214
-0.000164687
0.000215434
-0.000143597
0.000177708
-5.7362e-05
9.61642e-05
-4.71361e-05
4.05982e-05
-4.72451e-05
1.67222e-05
-0.000100213
-0.000103797
3.94554e-05
2.50194e-05
-9.39322e-05
4.9231e-05
0.000146742
6.81001e-05
0.000261046
7.85987e-05
0.000205354
7.92196e-05
0.000191889
4.75087e-05
0.000148036
3.78283e-05
0.00012173
0.000110181
0.000149634
0.000162794
0.00015447
0.000192049
0.00011724
0.000216483
8.02505e-05
0.000251374
3.11991e-05
0.000291988
-4.78862e-05
0.000324704
-0.00010139
0.000309536
-0.000110184
0.000303267
-0.00013833
0.000229689
-9.11084e-05
0.000159824
-7.37318e-05
0.00012246
-1.99987e-05
5.96571e-05
1.56671e-05
3.99291e-05
-2.7517e-05
3.64223e-05
-9.67061e-05
-0.000100592
3.32176e-05
-1.38552e-05
-8.0077e-05
1.28761e-05
0.000120011
5.12438e-05
0.000222679
4.1927e-05
0.000214671
4.84852e-05
0.000185331
5.38096e-05
0.000142712
5.06756e-05
0.000124864
9.85813e-05
0.000101728
0.000148076
0.000104975
0.000186012
7.93039e-05
0.000227561
3.87016e-05
0.000271487
-1.27269e-05
0.00029161
-6.80093e-05
0.000274879
-8.46584e-05
0.000263078
-9.83831e-05
0.000241786
-0.000117038
0.000207752
-5.70749e-05
0.000170217
-3.61968e-05
0.000117397
3.28215e-05
7.35906e-05
5.94737e-05
4.99262e-05
-3.85269e-06
4.31131e-05
-8.9893e-05
-9.84165e-05
4.09375e-05
-1.46892e-05
-6.53877e-05
-8.17035e-06
0.000113492
2.58975e-05
0.000188611
3.9563e-05
0.000201005
5.00874e-05
0.000174806
5.47827e-05
0.000138017
0.000111539
6.81074e-05
0.000143865
6.94019e-05
0.000209059
3.97814e-05
0.000267945
2.04183e-05
0.000314534
-7.88796e-06
0.000325811
-2.40035e-05
0.000307983
-5.01816e-05
0.000285517
-6.21928e-05
0.000225958
-3.88238e-05
0.000136667
-2.77473e-05
9.46906e-05
-1.50982e-05
5.43963e-05
4.09753e-06
3.57473e-05
5.14705e-05
3.78784e-05
5.73425e-05
4.00833e-05
-6.05769e-06
4.17573e-05
-9.1567e-05
-9.00774e-05
3.34181e-05
-1.63564e-05
-4.90314e-05
-2.02202e-05
0.000117356
-5.86065e-08
0.000168449
7.20375e-05
0.000128909
9.0516e-05
0.000156328
0.00016114
6.73925e-05
0.000194332
3.49151e-05
0.000234374
2.93601e-05
0.000271131
3.02431e-06
0.000295745
-4.19583e-06
0.000301832
-1.39752e-05
0.000309828
-3.19995e-05
0.000296454
-3.68081e-05
0.000272237
-3.79757e-05
0.00024352
-1.01061e-05
0.000191251
2.45218e-05
0.000151693
2.44596e-05
0.000106554
4.92364e-05
6.83075e-05
8.97165e-05
4.65976e-05
7.90524e-05
4.29661e-05
-2.42616e-06
3.06492e-05
-7.92502e-05
-8.12184e-05
2.17902e-05
-4.42243e-05
-4.80714e-06
-6.94213e-05
0.000142553
5.2376e-06
9.37903e-05
5.03947e-05
8.37521e-05
0.00013594
7.07826e-05
0.0001806
2.27323e-05
0.000224258
-8.74293e-06
0.000261219
-7.60005e-06
0.000302017
-3.77746e-05
0.000318773
-2.09518e-05
0.000316301
-1.15029e-05
0.000300905
-1.6603e-05
0.000272901
-8.80405e-06
0.00018634
4.85853e-05
0.00013239
4.3843e-05
0.000117176
3.97367e-05
0.000102261
3.93738e-05
7.27612e-05
7.87366e-05
3.47407e-05
0.000127737
4.68173e-05
6.69758e-05
3.8375e-05
6.01618e-06
3.28897e-05
-7.37649e-05
-8.16928e-05
3.3364e-05
-8.03114e-06
3.22399e-06
-1.30885e-05
0.000147611
-1.60933e-06
8.2311e-05
6.10302e-05
2.11126e-05
0.000126032
5.78093e-06
0.000187012
-3.82475e-05
0.000235403
-5.71343e-05
0.00028413
-5.6327e-05
0.00026417
-1.78144e-05
0.000282099
-3.88813e-05
0.000351298
-8.07016e-05
0.000357346
-2.26512e-05
0.000305227
4.33152e-05
0.000245478
0.000108334
0.000159095
0.000130225
0.000107881
9.0951e-05
9.87675e-05
4.84875e-05
5.69246e-05
0.000120579
3.77487e-05
0.000146913
1.78307e-05
8.68939e-05
2.61599e-05
-2.31297e-06
2.48118e-05
-7.24168e-05
-8.57025e-05
2.88216e-05
-1.09713e-08
3.23496e-06
4.57312e-05
0.000101869
6.39051e-05
6.41371e-05
0.00010061
-1.55918e-05
0.000127074
-2.06837e-05
0.000143666
-5.48391e-05
0.000160135
-7.36035e-05
0.000146381
-4.25734e-05
0.000194712
-6.61454e-05
0.000248907
-9.30764e-05
0.000222461
-5.42557e-05
0.000219638
-1.98283e-05
0.000181001
8.19524e-05
0.000113835
0.000175501
8.8505e-05
0.000155555
9.80035e-05
8.14524e-05
4.66463e-05
9.98448e-05
1.84126e-05
0.000148813
3.08032e-06
0.000162245
2.58475e-05
6.41268e-05
4.27755e-05
-1.92408e-05
4.08892e-05
-7.05304e-05
-8.63729e-05
4.15597e-05
3.11483e-06
1.20131e-07
6.46311e-05
4.03523e-05
9.40674e-05
3.47007e-05
7.61008e-05
2.37476e-06
5.06293e-05
4.78786e-06
4.92995e-05
-5.35092e-05
6.32844e-05
-8.75885e-05
9.89112e-05
-7.82003e-05
0.00010933
-7.65639e-05
8.9776e-05
-7.35226e-05
8.95698e-05
-5.40493e-05
6.03159e-05
9.42542e-06
1.62265e-05
0.000126042
1.61383e-05
0.000175589
4.50735e-05
0.00012662
4.72497e-05
7.92763e-05
1.60354e-05
0.000131059
-4.05448e-06
0.000168903
-1.51026e-06
0.000159701
3.64667e-05
2.615e-05
3.09041e-05
-1.36781e-05
3.23259e-05
-7.19521e-05
-7.72998e-05
2.32529e-05
6.5456e-06
-6.42548e-06
5.0811e-05
-3.91316e-06
4.75024e-05
3.80093e-05
4.12188e-05
8.6583e-06
3.47289e-05
1.12778e-05
2.74302e-05
-4.62105e-05
2.55384e-05
-8.56966e-05
4.35035e-05
-9.61651e-05
5.79418e-05
-9.10021e-05
3.55279e-05
-5.11086e-05
1.445e-05
-3.29714e-05
-1.12219e-06
2.49977e-05
-1.24648e-05
0.000137385
9.38449e-06
0.00015374
6.64875e-05
6.95173e-05
2.31473e-05
0.000122617
-7.40453e-05
0.000228252
-6.79854e-05
0.000162843
-2.24319e-05
0.000114148
1.24335e-05
-8.71532e-06
2.91522e-05
-3.03967e-05
2.82688e-05
-7.10686e-05
-7.87957e-05
2.97649e-05
-2.73027e-05
2.08772e-05
-4.57509e-05
1.45352e-05
-5.42387e-05
4.64971e-05
-4.20628e-05
-3.51753e-06
-2.00021e-05
-1.07828e-05
3.46012e-06
-6.96727e-05
-1.32083e-05
-6.90283e-05
1.72368e-05
-0.00012661
1.0761e-05
-8.45262e-05
1.41742e-05
-5.45218e-05
4.30765e-06
-2.31048e-05
-9.64153e-06
3.8947e-05
1.13717e-06
0.000126606
3.60342e-05
0.000118843
1.91947e-05
8.63568e-05
-4.95642e-05
0.000191375
-8.53628e-05
0.00026405
-0.000130782
0.000208263
-5.4183e-05
3.75487e-05
-6.60852e-06
-5.62898e-05
1.06835e-05
-4.76886e-05
2.0113e-05
-8.04981e-05
-7.2945e-05
1.42624e-05
-4.09788e-05
6.18561e-05
-6.59443e-05
3.95009e-05
-5.18757e-05
3.24285e-05
-6.27995e-05
7.4063e-06
-4.34335e-05
-3.01487e-05
-3.62544e-05
-7.68518e-05
-4.28919e-05
-6.23907e-05
-5.55946e-05
-0.000113907
-6.19019e-05
-7.82188e-05
-1.52558e-05
-0.000101168
-1.71694e-05
-2.11911e-05
-1.19925e-05
3.37702e-05
-2.06752e-06
0.000116681
8.79145e-06
0.000107984
-6.55138e-05
0.000160662
-0.000105081
0.000230942
-9.76382e-05
0.000256608
-8.5889e-05
0.000196513
-5.24033e-05
4.06302e-06
-2.40309e-05
-8.46622e-05
1.90213e-05
-9.07407e-05
2.60275e-05
-8.75042e-05
-7.15692e-05
2.46518e-05
-6.99791e-06
6.88541e-05
-1.49705e-05
4.74736e-05
-1.73939e-05
3.4852e-05
-3.62063e-05
2.62188e-05
-6.47977e-05
-1.55718e-06
-7.63407e-05
-6.53087e-05
-8.71718e-05
-5.15595e-05
-0.000104986
-9.60935e-05
-9.32445e-05
-8.99597e-05
-9.56614e-05
-9.87508e-05
-7.31166e-05
-4.37359e-05
-5.72341e-05
1.78877e-05
-5.14294e-05
0.000110877
-2.59022e-05
8.24568e-05
-8.04109e-05
0.000215171
-0.000142453
0.000292985
-8.82952e-05
0.000202449
-3.09042e-05
0.000139122
-5.9e-06
-2.09412e-05
6.12462e-06
-9.66868e-05
1.63616e-05
-0.000100978
2.03315e-05
-9.14741e-05
-6.76345e-05
1.6397e-05
3.61814e-05
3.26728e-05
2.32759e-05
6.03792e-05
2.37957e-06
5.57484e-05
-1.49173e-05
4.35158e-05
-3.13085e-05
1.48341e-05
-6.81876e-05
-2.84295e-05
-9.06298e-05
-2.91171e-05
-0.000113394
-7.33296e-05
-0.000118565
-8.47887e-05
-0.000124907
-9.24078e-05
-0.000127529
-4.1114e-05
-0.000116192
6.55049e-06
-5.65698e-05
5.12546e-05
-6.64624e-05
9.23494e-05
-4.9115e-05
0.000197823
-5.08704e-05
0.00029474
-3.16153e-05
0.000183194
2.17149e-05
8.57923e-05
5.41602e-05
-5.33865e-05
1.83897e-05
-6.09162e-05
2.30717e-05
-0.00010566
2.06313e-05
-8.90336e-05
-5.80992e-05
1.10961e-05
3.2589e-05
8.39003e-08
1.18952e-05
8.1073e-05
-9.79551e-06
7.74391e-05
-1.71329e-05
5.08531e-05
-2.51947e-05
2.28961e-05
-3.69897e-05
-1.66344e-05
-4.02826e-05
-2.58241e-05
-6.62791e-05
-4.7333e-05
-9.09765e-05
-6.00912e-05
-0.000121667
-6.17176e-05
-0.00012107
-4.171e-05
-0.000115561
1.04097e-06
-9.80602e-05
3.3754e-05
-6.76378e-05
6.19271e-05
-5.79212e-05
0.000188107
-2.51004e-05
0.00026192
1.64024e-05
0.000141691
7.59611e-05
2.62336e-05
7.87832e-05
-5.62087e-05
6.67944e-05
-4.89273e-05
5.6792e-05
-9.56571e-05
1.96994e-05
-5.19411e-05
-5.97362e-05
2.13364e-05
-3.26568e-06
3.3496e-06
-2.66859e-05
0.000104493
-4.28224e-05
9.35755e-05
-3.33505e-05
4.13812e-05
-2.87684e-05
1.8314e-05
-3.57594e-05
-9.64341e-06
-1.77654e-05
-4.38181e-05
-1.46449e-05
-5.04533e-05
-4.32768e-05
-3.14592e-05
-7.45468e-05
-3.04474e-05
-9.59689e-05
-2.02878e-05
-9.29605e-05
-1.96737e-06
-8.47943e-05
2.55879e-05
-5.66278e-05
3.37607e-05
-2.60612e-05
0.00015754
2.77947e-05
0.000208064
3.27869e-05
0.000136699
6.0232e-05
-1.21142e-06
6.23573e-05
-5.83339e-05
8.79648e-05
-7.45348e-05
6.65513e-05
-7.42436e-05
5.64166e-05
-4.18063e-05
-3.09274e-05
2.76078e-05
-1.64095e-05
1.97591e-05
-5.03083e-05
0.000138392
-6.07542e-05
0.000104021
-5.91301e-05
3.9757e-05
-4.54416e-05
4.62553e-06
-1.96656e-05
-3.54194e-05
-3.34812e-05
-3.00025e-05
-3.07562e-05
-5.31783e-05
-3.36324e-05
-2.85828e-05
-3.78701e-05
-2.62098e-05
-4.1011e-05
-1.71466e-05
-4.07181e-05
-2.26024e-06
-3.0498e-05
1.53679e-05
-3.19837e-05
3.52464e-05
3.11946e-06
0.000122437
5.72286e-05
0.000153955
0.000159407
3.45212e-05
0.000158975
-7.80222e-07
0.000137922
-3.72808e-05
9.58886e-05