/*--------------------------------*- C++ -*----------------------------------*\
| =========                 |                                                 |
| \\      /  F ield         | foam-extend: Open Source CFD                    |
|  \\    /   O peration     | Version:     4.1                                |
|   \\  /    A nd           | Web:         http://www.foam-extend.org         |
|    \\/     M anipulation  |                                                 |
\*---------------------------------------------------------------------------*/
FoamFile
{
    version     2.0;
    format      ascii;
    class       volScalarField;
    location    "0.45";
    object      alpha1;
}
// * * * * * * * * * * * * * * * * * * * * * * * * * * * * * * * * * * * * * //

dimensions      [0 0 0 0 0 0 0];

internalField   nonuniform List<scalar> 
2268
(
1
1
1
0.999999
0.999999
0.999999
1
1
1
1
1
1
1
1
1
1
1
1
1
1
1
1
0.99997
0.999999
0.999999
0.999999
0.999999
1
1
1
1
1
1
1
1
1
1
1
1
1
1
1
1
1
1
0.999974
0.999999
0.999999
1
1
1
1
1
1
1
1
1
1
1
1
1
1
1
1
1
1
1
1
0.999985
1
1
1
1
1
1
1
1
1
1
1
1
1
1
1
1
1
1
1
1
1
1
0.999992
1
1
1
1
1
1
1
1
1
1
1
1
1
1
1
1
1
1
1
1
1
1
0.999989
1
1
1
1
1
1
1
1
1
1
1
1
1
1
1
1
1
1
1
1
1
1
0.999981
1
1
1
1
1
1
1
1
1
1
1
1
1
1
1
1
1
1
1
1
1
1
0.999928
1
1
1
1
1
1
1
1
1
1
1
1
1
1
1
1
1
1
1
1
1
1
0.999698
0.255017
0.275993
0.253325
0.187464
0.137207
0.136807
0.164288
0.215259
0.216982
0.118045
0.0298243
0.236035
0.600218
0.63962
0.669011
0.894774
0.946205
0.956821
0.935378
0.00824593
0.00392789
0.00244762
0.00152271
0.000623653
0.00084675
0.00121483
0.00239499
0.00926618
0.0356334
0.0334977
0.109026
0.109843
0.0363949
0.292609
0.915055
0.985159
0.990548
0.99378
0.000204503
1.04517e-05
2.808e-06
2.65592e-06
5.0851e-06
1.23477e-05
1.92159e-05
2.96069e-05
0.000104242
0.00331271
0.0205357
0.0543149
0.0111259
0.00525004
0.170912
0.722054
0.910133
0.957266
0.99383
4.79582e-05
1.85097e-05
2.11845e-06
9.12299e-07
6.46857e-06
5.88381e-06
5.93781e-06
7.62913e-06
9.24785e-06
0.000122772
0.0083351
0.046711
0.00449348
0.000241251
0.0126074
0.161661
0.602484
0.953018
0.993862
5.32899e-05
0.000929393
3.06955e-05
2.22111e-07
3.97825e-07
1.91431e-07
5.26421e-07
1.58335e-06
1.60808e-06
3.01481e-06
0.00259298
0.0389015
0.00600818
0.000209794
0.0022825
0.0479744
0.35533
0.965674
0.993888
0.00763724
0.0150972
0.000310814
1.54573e-07
1.20327e-07
1.20327e-07
1.0137e-06
1.22137e-05
3.40477e-06
2.89722e-06
0.000458299
0.028103
0.0156239
0.000288193
0.00031618
0.0132961
0.352845
0.964095
0.993893
0.155706
0.130601
0.00554137
2.4839e-07
1.20327e-07
1.3451e-07
3.63166e-06
3.63154e-05
1.47842e-05
4.37363e-06
0.000205318
0.0143465
0.0206287
0.000724864
0.000865687
0.00558296
0.612119
0.96155
0.993893
0.680898
0.503968
0.0304784
1.20327e-07
1.20327e-07
1.20327e-07
5.05072e-06
4.91568e-05
0.000111926
3.51868e-05
0.00061069
0.00439193
0.0200376
0.000631484
0.001136
0.010593
0.663504
0.972434
0.993893
0.966549
0.963121
0.957973
0.948095
0.945528
0.921246
0.913549
0.892638
0.88053
0.897444
0.920592
0.952659
0.980877
0.995185
0.998868
0.999789
0.999958
0.999991
0.999995
0.999998
1
1
0.999689
0.576323
0.561683
0.541805
0.461796
0.480644
0.396653
0.378781
0.328918
0.294397
0.321661
0.375197
0.490062
0.680663
0.881449
0.964572
0.985934
0.993499
0.997955
0.999636
0.999944
0.999994
1
0.999975
0.0439781
0.0421455
0.0374255
0.0228832
0.0267608
0.0179674
0.0149301
0.0105476
0.00850431
0.0105526
0.0166037
0.0404615
0.0961818
0.251643
0.50092
0.745786
0.914799
0.975771
0.991381
0.994967
0.997789
0.999037
0.999632
0.000578118
0.000731691
0.000547572
0.000421287
0.000475631
0.000310375
0.000245465
0.000144336
0.000115421
0.000178748
0.000404053
0.00140741
0.00679759
0.0305157
0.0847239
0.157955
0.290431
0.413795
0.511352
0.648947
0.867471
0.964861
0.9915
1.25819e-05
1.99914e-05
7.54195e-06
6.2234e-06
7.24836e-06
5.1954e-06
5.6272e-06
2.38834e-06
2.21663e-06
3.20535e-06
1.10094e-05
8.02939e-05
0.000453388
0.00225257
0.00563473
0.00992647
0.0189962
0.041532
0.0438645
0.0607896
0.102579
0.231169
0.595067
5.66929e-07
6.33388e-07
6.36955e-08
3.90243e-08
8.27673e-08
1.69303e-07
3.4952e-07
1.81719e-07
1.24395e-07
1.12199e-07
1.18124e-06
7.50497e-06
2.31229e-05
6.27267e-05
8.42221e-05
0.000118003
0.000281725
0.0012184
0.000590633
0.00115639
0.00717714
0.0453529
0.0789987
1.80694e-08
1.62926e-08
4.19144e-10
1.52454e-10
5.90315e-10
3.66607e-09
1.7138e-08
1.43912e-08
1.21243e-08
2.34278e-08
3.32146e-07
1.84927e-06
1.41827e-05
2.35049e-05
5.15923e-05
3.91435e-05
1.98397e-05
2.27813e-05
2.92683e-05
5.10001e-05
0.000112882
0.000408289
0.00158466
3.15817e-10
2.06309e-10
1.16678e-11
6.24337e-13
2.82781e-12
3.40597e-11
4.67299e-10
5.91156e-10
7.55482e-10
1.78773e-08
5.44943e-07
1.27532e-06
2.1556e-05
4.32444e-05
2.90583e-05
1.80788e-05
5.9218e-06
2.57881e-06
4.02656e-06
1.23362e-05
3.3381e-05
5.93897e-05
0.000140279
4.8191e-12
2.23199e-12
1.96025e-13
2.21387e-14
2.35833e-13
1.66865e-12
1.29019e-11
2.0436e-11
2.27425e-10
1.44104e-08
4.52781e-07
5.03615e-07
1.40892e-06
1.86898e-05
7.76727e-06
3.70219e-06
1.35826e-06
3.5514e-07
5.14098e-07
2.28866e-06
1.23468e-05
3.25597e-05
4.54918e-05
2.41532e-13
1.09596e-13
7.71207e-15
5.50806e-15
2.05539e-13
1.35509e-12
6.12897e-12
1.33677e-11
2.51056e-10
2.59895e-09
7.44278e-08
7.83678e-08
3.13333e-07
2.93661e-07
1.3002e-07
8.06296e-08
1.91681e-08
8.8601e-08
2.63933e-07
2.64175e-07
3.61229e-07
1.42012e-06
5.62444e-06
3.4414e-14
1.55582e-14
1.43043e-15
2.61328e-15
2.61081e-13
1.31703e-12
5.82736e-12
9.53639e-12
4.51552e-10
1.07772e-09
4.60267e-09
4.36988e-09
5.66644e-09
4.01072e-09
1.75435e-09
1.17972e-09
4.80821e-10
6.40821e-10
3.67373e-10
2.45079e-10
4.18602e-10
2.43794e-08
7.12154e-08
5.9003e-15
2.87851e-15
3.58891e-16
1.48853e-15
2.95893e-13
6.89717e-13
2.02723e-12
1.6753e-12
5.42501e-10
4.8739e-10
1.18845e-09
7.17673e-10
7.35355e-10
4.97208e-10
4.68452e-10
4.07918e-10
3.29505e-10
2.05027e-10
9.37776e-11
3.00557e-11
1.69544e-11
8.02654e-11
6.14299e-11
1.41535e-15
8.50104e-16
1.03505e-16
9.05741e-16
2.96636e-13
1.63975e-13
1.51271e-13
1.42931e-13
1.03259e-10
1.19395e-10
5.81917e-10
2.99419e-10
3.00791e-10
2.57396e-10
3.49092e-10
3.37378e-10
2.53599e-10
1.3868e-10
8.93628e-11
4.25936e-11
1.61056e-11
3.62684e-12
6.43289e-13
4.38975e-16
2.38687e-16
3.19662e-17
5.30443e-16
1.26488e-13
2.8251e-14
1.92242e-14
2.26319e-14
2.08878e-11
2.96041e-11
3.28091e-11
1.27915e-11
3.89847e-11
1.03724e-10
1.73705e-10
1.13758e-10
6.7517e-11
2.52719e-11
1.6907e-11
7.39633e-12
4.26772e-12
1.28384e-12
1.86854e-13
1.16664e-16
5.53613e-17
7.76914e-18
2.80241e-16
3.40959e-14
4.44213e-15
4.5828e-15
5.05968e-15
5.29622e-15
1.04449e-14
3.83365e-14
5.03256e-13
3.31629e-11
5.33205e-11
3.74744e-11
1.98791e-11
6.34016e-12
2.10414e-12
6.83556e-13
1.66535e-13
1.99935e-14
2.58194e-15
9.99884e-14
2.63785e-17
1.11964e-17
1.89901e-18
1.478e-16
9.95328e-15
1.28471e-15
1.74726e-15
1.39668e-15
1.24644e-15
1.71964e-15
1.21182e-14
4.4668e-13
5.24619e-12
5.03558e-12
2.39521e-12
1.67122e-12
4.6472e-13
2.13728e-13
4.83737e-14
1.096e-14
1.8064e-15
5.23288e-16
8.38898e-14
4.9249e-18
2.12738e-18
6.31796e-19
9.95859e-17
1.65476e-15
3.97695e-16
6.95684e-16
4.62887e-16
3.31695e-16
2.3801e-16
2.16424e-15
1.21841e-14
2.29014e-13
1.82359e-13
1.02932e-13
8.04763e-14
4.02352e-14
2.48975e-14
7.4862e-15
2.20629e-15
7.23139e-16
5.03126e-16
3.48898e-14
7.442e-19
3.91577e-19
4.40305e-19
3.06986e-17
3.83954e-16
6.24601e-17
2.04338e-16
1.28126e-16
6.78837e-17
3.61185e-17
8.552e-16
2.62465e-15
1.51608e-14
1.02769e-14
7.70125e-15
5.11258e-15
3.73347e-15
1.87392e-15
9.70147e-16
5.29035e-16
3.38674e-16
3.77586e-16
5.47329e-15
1.038e-19
9.22413e-20
2.84848e-19
1.10942e-17
2.54481e-17
1.66393e-17
5.97637e-17
1.45543e-17
1.00498e-17
5.82149e-18
1.89987e-16
6.47766e-16
9.40666e-16
7.69513e-16
4.60133e-16
5.74655e-16
3.432e-16
2.42238e-16
1.59074e-16
1.19864e-16
7.80924e-17
1.32374e-15
2.74137e-15
1.18946e-24
3.85796e-24
6.34138e-20
2.71668e-19
5.66915e-19
1.49195e-18
3.30693e-18
4.27247e-18
1.40793e-18
9.23398e-19
2.47231e-17
1.11975e-16
5.84867e-17
7.82354e-17
6.75576e-17
6.71909e-17
3.47006e-17
2.21258e-17
1.62977e-17
1.11538e-17
1.14349e-17
8.86047e-12
3.15646e-11
4.4702e-25
1.17531e-24
8.53087e-23
2.77262e-21
2.84085e-20
1.6654e-19
3.23078e-19
5.21871e-19
1.71856e-19
1.22251e-19
3.40091e-18
7.09792e-18
8.77474e-18
1.04878e-17
8.6955e-18
7.02455e-18
3.15781e-18
1.73405e-18
1.43812e-18
9.20046e-18
8.22925e-15
4.11676e-09
1.48078e-08
1.42939e-25
2.23375e-25
5.07017e-24
9.97608e-23
1.70176e-21
8.39126e-21
2.04249e-20
5.80765e-21
3.78207e-21
2.46524e-20
1.20148e-18
1.35037e-18
1.19829e-18
7.98088e-19
6.31911e-19
4.77136e-19
2.87589e-19
1.53274e-19
1.40981e-18
6.76317e-15
5.09304e-12
1.76047e-07
8.57689e-07
3.60368e-26
3.83975e-26
1.6265e-25
3.2894e-25
6.16417e-26
4.47844e-24
2.59352e-24
7.11087e-24
1.26884e-23
7.82911e-21
3.37986e-20
5.87275e-20
5.25919e-20
2.38605e-20
1.48777e-20
7.23868e-21
3.28921e-21
4.95883e-20
2.51419e-18
7.91102e-13
2.75587e-10
1.32453e-06
1.2774e-05
3.58797e-29
2.68034e-28
2.71815e-27
8.68395e-28
2.08809e-27
9.71979e-27
1.8917e-26
1.10278e-25
1.19521e-25
7.33461e-23
1.00232e-22
9.76024e-23
4.94622e-23
2.14451e-23
7.75129e-24
1.59909e-23
8.30301e-23
1.92946e-19
6.63602e-18
6.23967e-12
2.83513e-09
4.02215e-06
9.68897e-05
7.52029e-37
1.11515e-37
2.73301e-36
7.28639e-34
3.34438e-32
2.5197e-31
9.13554e-29
4.52896e-28
9.26953e-27
2.67901e-26
1.5867e-26
1.82573e-26
1.25936e-26
6.08149e-25
8.42723e-24
5.52246e-23
2.27768e-22
7.73796e-19
2.05563e-17
1.39977e-11
7.01591e-09
4.47491e-06
0.000381734
1.14461e-38
5.17827e-39
1.86033e-37
6.88415e-35
2.9813e-34
3.15936e-33
4.48209e-29
1.74573e-28
2.28996e-28
5.51753e-28
5.33337e-28
7.58856e-28
5.25119e-27
2.00314e-24
1.7584e-23
2.63979e-22
6.32785e-22
2.67232e-18
8.12791e-17
9.44274e-11
1.29194e-08
6.22856e-06
0.000924286
1.54989e-40
4.27437e-41
6.04972e-39
1.90194e-38
4.81219e-36
4.41259e-34
9.16211e-34
2.6652e-33
2.34331e-32
5.01217e-31
1.30625e-29
4.72759e-28
1.2034e-26
4.29826e-24
4.11616e-23
7.70766e-22
3.36346e-21
7.20791e-18
5.52324e-16
3.25598e-09
4.4964e-08
5.998e-06
0.000431925
1.905e-45
8.3222e-42
4.01989e-39
1.01717e-38
7.13369e-38
1.60798e-36
6.01789e-35
1.48484e-33
4.44376e-32
1.58461e-30
4.2733e-29
1.55679e-27
3.65902e-26
8.80145e-24
9.1982e-23
1.99868e-21
2.53385e-20
1.55767e-17
7.74879e-15
2.51734e-08
1.1066e-06
2.88122e-05
0.000150989
3.29367e-49
1.18572e-44
1.05583e-41
7.28677e-40
4.12576e-38
2.28948e-36
9.73038e-35
3.58561e-33
1.2739e-31
5.01092e-30
1.39839e-28
4.8322e-27
1.08077e-25
1.73314e-23
2.07262e-22
4.83498e-21
2.32561e-19
2.65779e-17
3.20159e-13
6.87072e-08
1.37538e-05
0.000165162
0.000158436
6.35744e-49
1.142e-44
1.92419e-41
1.27047e-39
6.46309e-38
3.59882e-36
1.95376e-34
9.32309e-33
3.71603e-31
1.47944e-29
4.42471e-28
1.3956e-26
3.07399e-25
3.38527e-23
4.37775e-22
1.07715e-20
1.04599e-18
5.22898e-17
4.45914e-12
1.2322e-07
4.45973e-05
0.000383172
0.000571923
1.10967e-48
9.54662e-45
4.81059e-42
8.24196e-40
7.78045e-38
6.7637e-36
4.3921e-34
2.36583e-32
1.01206e-30
3.99233e-29
1.27294e-27
3.69846e-26
8.94724e-25
6.1876e-23
8.60918e-22
2.4388e-20
2.8242e-18
2.76959e-15
4.04702e-11
1.54312e-07
5.97083e-05
0.000450849
0.000711426
1.72637e-48
1.41325e-44
8.02572e-42
1.43131e-39
1.43335e-37
1.34731e-35
9.59894e-34
5.47211e-32
2.46659e-30
9.78642e-29
3.28515e-27
9.52292e-26
2.52929e-24
8.39409e-23
1.319e-21
1.63093e-19
3.68037e-16
7.71761e-12
3.48043e-09
6.69703e-07
2.47026e-05
0.000289291
0.000710923
2.19545e-48
1.61547e-44
8.39978e-42
1.78685e-39
2.25748e-37
2.27261e-35
1.77884e-33
1.06977e-31
5.19746e-30
2.13782e-28
7.86329e-27
2.37062e-25
6.96289e-24
1.84704e-22
1.92652e-21
2.98636e-18
2.67275e-13
2.19017e-09
5.31242e-07
2.29666e-05
0.000161746
0.000506088
0.000492153
1.74796e-48
1.8523e-44
1.0386e-41
2.10552e-39
2.73829e-37
2.76749e-35
2.24391e-33
1.57951e-31
9.465e-30
4.50821e-28
1.81195e-26
6.06306e-25
1.47897e-23
2.22572e-22
1.58606e-21
5.80843e-17
1.52281e-11
6.87512e-08
1.02822e-05
0.000177228
0.000571539
0.000608002
0.000256223
3.37711e-49
2.83678e-45
1.84458e-42
4.87804e-40
8.32556e-38
1.11594e-35
1.24497e-33
1.15329e-31
8.6557e-30
5.06042e-28
2.44589e-26
8.43158e-25
1.82419e-23
2.17273e-22
1.26799e-21
4.75063e-16
9.61207e-11
3.19649e-07
3.91769e-05
0.000371842
0.000593076
0.00054355
5.60323e-05
6.71075e-49
1.2973e-45
6.19989e-43
1.76638e-40
3.32313e-38
4.93285e-36
5.81361e-34
5.52839e-32
4.28569e-30
2.67149e-28
1.24927e-26
3.92568e-25
7.85947e-24
9.27075e-23
7.21738e-22
9.7194e-17
1.44091e-11
4.91854e-08
8.06855e-06
0.000125636
0.000370304
0.00022758
7.0174e-06
8.16388e-51
1.80936e-47
1.60743e-44
8.34105e-42
2.72208e-39
6.29578e-37
1.05688e-34
1.31443e-32
1.22236e-30
8.25493e-29
3.79371e-27
1.24157e-25
2.76533e-24
4.03846e-23
3.73472e-22
2.7557e-21
1.43682e-15
8.37152e-11
1.26355e-07
1.0861e-05
0.000122183
0.000334638
0.000188616
1.9475e-52
7.77199e-49
8.25137e-46
4.86147e-43
1.89282e-40
5.26075e-38
1.06282e-35
1.55914e-33
1.70676e-31
1.41529e-29
8.08638e-28
3.55939e-26
9.85828e-25
2.12528e-23
2.13526e-22
2.64721e-21
4.61818e-15
3.34709e-10
5.46577e-07
4.13503e-05
0.000317505
0.000482329
0.000318813
5.75276e-56
1.33932e-51
2.61491e-48
2.6248e-45
1.61101e-42
7.04191e-40
2.15184e-37
4.79594e-35
7.7407e-33
9.7787e-31
9.0324e-29
6.57798e-27
2.87503e-25
7.42186e-24
9.68513e-23
6.84217e-22
6.05224e-20
1.21431e-13
3.23341e-09
2.25613e-06
9.23584e-05
0.000446096
0.000423841
2.2551e-69
2.24524e-56
8.45573e-53
1.49584e-49
1.58217e-46
1.26969e-43
6.85218e-41
3.48691e-38
1.0505e-35
2.40558e-33
4.59419e-31
5.67982e-29
6.25153e-27
3.49843e-25
1.5878e-23
2.40091e-22
8.40041e-21
3.25463e-14
1.84072e-09
2.00563e-06
9.83632e-05
0.000531284
0.000695712
5.78598e-106
9.98338e-61
1.2482e-56
5.48822e-53
1.42814e-49
2.66493e-46
3.70511e-43
4.71499e-40
4.76134e-37
3.26808e-34
1.48708e-31
3.38594e-29
4.16083e-27
2.56483e-25
8.8294e-24
1.49259e-22
1.18917e-21
1.55948e-17
9.91197e-12
8.84007e-08
2.11151e-05
0.000345335
0.000735606
0
0
0
0
0
0
0
0
0
0
0
0
0
0
1.19728e-24
1.36325e-22
1.37095e-21
6.69503e-21
4.15079e-15
3.38351e-10
5.94649e-07
4.64154e-05
0.000291921
0.999815
0.999962
0.999979
0.99934
0.999969
0.999989
0.99999
0.999973
0.999902
0.999964
0.999989
0.99999
0.998651
0.999152
0.99945
0.999751
0.875067
0.96308
0.990706
0.997066
0.135797
0.220666
0.495074
0.795381
0.00893807
0.0200716
0.0523725
0.0766011
0.000722784
0.0022582
0.00653068
0.0131721
5.6946e-05
5.47782e-05
6.20754e-05
8.42026e-05
1.16681e-05
9.71824e-06
5.30595e-06
2.79392e-06
1.75908e-07
2.97905e-07
3.14272e-07
2.62248e-07
1.00761e-10
1.42722e-10
1.99062e-10
3.2883e-10
5.6688e-13
6.35981e-13
7.5919e-13
9.5312e-13
9.62065e-14
9.62066e-14
1.19269e-13
2.66321e-13
3.73773e-13
9.27645e-13
2.43587e-12
5.3819e-12
2.94629e-13
6.21723e-13
1.15254e-12
1.92447e-12
7.93789e-14
1.19333e-13
1.92298e-13
2.98149e-13
1.29196e-14
2.36207e-14
4.68776e-14
9.37301e-14
4.97365e-15
1.02868e-14
1.93182e-14
4.82411e-14
3.47074e-11
1.32052e-10
1.39727e-10
7.63486e-11
3.35255e-08
1.00818e-07
2.52685e-07
6.38338e-07
1.8335e-06
5.98423e-06
2.24427e-05
7.39029e-05
3.42889e-05
0.000135459
0.00030076
0.000700121
0.000329636
0.000889987
0.00110975
0.00110453
0.00120314
0.00120648
0.00111416
0.000676783
0.00092422
0.000578981
0.000142384
1.24533e-05
0.000400747
0.000216641
5.19904e-05
4.36596e-06
0.000124782
5.64076e-05
1.00146e-05
6.64942e-07
4.9145e-05
6.86771e-06
5.33832e-07
4.95814e-07
5.24582e-05
1.51056e-06
4.97314e-07
5.19911e-07
3.32343e-05
1.77136e-06
4.97638e-07
2.30787e-06
1.83967e-05
1.55622e-06
1.29593e-06
7.90328e-06
4.5432e-06
8.04334e-07
3.65108e-06
1.50391e-05
1.20942e-06
8.00117e-07
7.57618e-06
2.64978e-05
8.00117e-07
8.00117e-07
4.98605e-06
3.64312e-05
8.00117e-07
8.00113e-07
8.00117e-07
5.11945e-06
8.49191e-07
8.00113e-07
8.00113e-07
8.00117e-07
9.70973e-07
8.00113e-07
8.00113e-07
8.00113e-07
2.12135e-06
8.00113e-07
8.00113e-07
8.00113e-07
2.34187e-05
2.80611e-06
4.8505e-06
3.41682e-05
0.000639413
0.000181139
9.02289e-05
0.000240898
0.000372839
0.000573862
0.000702479
0.000730242
0.975337
0.868374
0.0835464
0.000186089
4.15431e-06
2.40506e-07
4.90765e-06
3.99895e-05
0.000200404
0.000445753
0.00109786
0.0011086
0.00758666
0.00070099
0.000932929
0.0436809
0.691568
0.982056
0.993893
0.999596
0.991718
0.503307
0.00821096
0.00201268
1.20124e-05
4.84849e-06
1.94837e-05
8.47693e-05
0.000234919
0.000473693
0.000323387
0.000508656
0.000624037
0.00252695
0.152491
0.829575
0.991455
0.993893
0.999989
0.999839
0.963339
0.355401
0.114453
0.00479354
1.02571e-05
8.89049e-06
3.04814e-05
0.000135131
0.000176609
0.000266413
0.000318797
0.00127547
0.0242456
0.537044
0.959243
0.994557
0.990303
0.999898
0.999899
0.999627
0.981685
0.820999
0.170523
0.00772276
1.97945e-05
2.66494e-05
7.2107e-05
0.000381294
0.000589533
0.000588113
0.0101333
0.202639
0.826263
0.990739
0.99454
0.955197
0.997308
0.997718
0.997281
0.997114
0.991279
0.794684
0.334012
0.0250798
0.00134309
9.49253e-05
0.000144003
0.00022731
0.000468252
0.0327049
0.597655
0.970103
0.987391
0.986076
0.901969
0.947197
0.911056
0.883207
0.912513
0.954598
0.954955
0.93552
0.62194
0.139202
0.0101958
0.000269379
0.000191305
0.00110463
0.101558
0.724663
0.93637
0.91311
0.970146
0.878702
0.495478
0.376661
0.232854
0.33109
0.541242
0.660509
0.862114
0.862312
0.839361
0.542818
0.0504504
0.000651427
0.00154436
0.205788
0.761745
0.743581
0.805774
0.955131
0.895331
0.0833437
0.0392356
0.0222198
0.0336674
0.050367
0.0707307
0.143571
0.25405
0.622227
0.622098
0.42237
0.0404342
0.0449634
0.629998
0.780874
0.619372
0.819451
0.913018
0.913037
0.000336023
0.000409012
0.000640419
0.00103388
0.000736586
0.00106488
0.00070309
0.0119028
0.105903
0.294068
0.332396
0.341048
0.617697
0.779232
0.748421
0.673424
0.819403
0.720355
0.841119
2.31889e-06
3.31849e-06
6.42083e-06
1.40241e-05
6.3253e-05
0.000127673
0.000128316
0.000197193
0.00486687
0.0309445
0.101852
0.238697
0.588321
0.77994
0.398247
0.49015
0.417775
0.428734
0.732598
1.21248e-07
8.12611e-08
2.01261e-07
7.75912e-06
8.38161e-05
0.000129927
9.15236e-05
2.8696e-05
5.67684e-05
0.000978946
0.0218906
0.0903277
0.217046
0.313887
0.133294
0.145103
0.0723127
0.192283
0.773557
8.38832e-10
5.67589e-10
5.52701e-09
1.13373e-06
1.93849e-05
9.16545e-05
8.88398e-05
2.6339e-05
3.08396e-05
0.000720757
0.00634469
0.0208711
0.0474193
0.0631444
0.05659
0.0493433
0.0662737
0.394096
0.777906
6.99846e-12
9.20924e-12
5.85117e-11
2.78659e-08
8.25287e-07
2.22358e-05
6.82569e-05
2.89338e-05
4.69876e-05
0.00040766
0.00198924
0.00687777
0.0138409
0.0192026
0.0271345
0.055784
0.166876
0.481099
0.607299
5.71925e-12
4.23002e-11
7.23002e-11
2.88354e-10
7.2273e-08
5.17289e-06
2.84163e-05
4.29723e-05
7.41527e-05
0.000579168
0.00217789
0.00378707
0.00392406
0.00867304
0.0462096
0.131066
0.166404
0.31423
0.217703
1.42043e-11
8.42976e-11
3.01459e-10
2.84222e-10
4.61582e-10
2.76823e-07
7.41674e-06
2.91421e-05
6.00139e-05
0.000534589
0.00193415
0.00193341
0.00104098
0.00184697
0.0144746
0.11111
0.116148
0.145133
0.134798
4.93368e-12
4.06711e-11
7.84493e-10
5.82648e-10
4.08366e-10
1.56644e-09
1.00673e-06
1.11557e-05
2.74228e-05
0.000167549
0.000790408
0.000635319
0.000259875
0.000302086
0.000285767
0.00627541
0.0836052
0.125548
0.248693
1.48747e-12
4.21599e-11
8.82147e-11
9.80553e-09
6.51298e-09
2.1615e-09
2.47166e-08
1.42562e-06
4.07837e-06
1.4801e-05
0.000105385
0.000111665
7.89665e-05
4.66156e-05
4.42852e-05
0.0013585
0.0298085
0.0921951
0.407052
3.27936e-13
3.15574e-10
8.8839e-10
1.67967e-08
2.4751e-07
1.24212e-07
3.00728e-08
7.8588e-08
1.50717e-07
9.15452e-07
1.29504e-05
3.31896e-05
2.8987e-05
1.27409e-05
2.29456e-05
0.00459602
0.0190157
0.0462407
0.387381
1.65162e-13
2.53652e-10
2.84385e-09
1.0633e-07
5.94995e-07
3.78647e-07
1.41388e-07
5.95351e-08
5.95185e-08
1.0425e-07
3.86049e-06
5.84752e-06
4.19583e-06
3.23504e-06
0.00010574
0.0044228
0.00694693
0.0160627
0.354156
6.42438e-12
1.83421e-10
5.68159e-09
6.35883e-08
5.82528e-07
8.04678e-07
4.54241e-07
8.37424e-08
5.95351e-08
2.98705e-07
4.69559e-06
5.53568e-06
2.91189e-06
2.8199e-06
0.00134807
0.0079751
0.0069579
0.0100605
0.518441
1.75495e-07
1.61101e-08
7.81536e-09
1.73949e-08
3.86577e-07
1.9111e-06
1.00607e-06
1.55446e-07
1.4135e-07
1.75351e-06
3.50058e-05
0.000120099
7.94771e-05
2.47512e-05
0.007813
0.0189346
0.0244522
0.0256434
0.583051
3.53389e-05
4.96169e-06
5.01813e-07
6.41175e-08
1.90598e-07
1.89874e-06
2.02298e-06
2.65657e-07
4.38009e-07
8.6445e-06
0.000207172
0.00426549
0.00747867
0.00179367
0.0365064
0.0203149
0.0537099
0.100431
0.572163
0.000569293
0.000107498
1.17338e-05
1.01289e-06
3.86029e-07
2.05742e-06
4.63968e-06
9.04941e-07
4.06599e-06
2.27786e-05
0.0115552
0.0772431
0.104202
0.0286228
0.036871
0.00898025
0.0184507
0.0535292
0.195561
0.00109322
0.000612729
0.000237787
3.4406e-05
1.90417e-06
3.3469e-06
8.67767e-06
3.87015e-06
3.00312e-05
0.00143419
0.0418169
0.160092
0.160092
0.130681
0.0260799
0.00721736
0.0063789
0.00788691
0.0261613
0.000275518
0.000385238
0.000387903
0.000196931
1.2196e-05
9.93085e-06
1.99936e-05
1.10865e-05
0.000206641
0.00670458
0.0652935
0.154501
0.160092
0.126258
0.0246617
0.016177
0.00659736
0.00642956
0.00755571
1.46767e-06
1.28357e-06
0.000166173
0.000177324
3.35702e-05
9.67372e-05
5.02808e-05
2.6556e-05
0.000614173
0.0126603
0.0494598
0.0567447
0.0767956
0.0478264
0.0229815
0.035177
0.0485544
0.00957545
0.034763
4.98541e-07
5.55574e-07
1.47559e-05
6.30038e-05
0.000185749
0.000405604
5.16501e-05
8.09376e-05
0.00207939
0.0151442
0.0195979
0.00861532
0.00787423
0.00972407
0.0310881
0.101215
0.182581
0.126409
0.249012
4.91147e-07
1.8356e-06
2.08108e-06
1.74047e-05
0.000252726
0.00042345
5.61995e-05
0.000362934
0.00338973
0.0149802
0.00491213
0.00188235
0.00205137
0.00702027
0.0167128
0.0520256
0.245788
0.489184
0.489184
6.63863e-07
3.72169e-06
3.98308e-06
7.6315e-06
0.000148262
0.000414744
0.000154279
0.00114423
0.00665132
0.00914212
0.000925469
0.000507476
0.00116419
0.00144967
0.00205427
0.0122892
0.0500316
0.245281
0.44956
3.66332e-06
7.33514e-06
7.5048e-06
4.14916e-06
3.77984e-05
0.000253842
0.000731765
0.00465265
0.00664346
0.003609
0.00021545
0.000130764
0.000306721
7.77713e-05
4.33509e-05
0.000354316
0.00468455
0.0909976
0.26684
9.56642e-06
1.29522e-05
7.54845e-06
3.93563e-06
1.32729e-05
0.00025767
0.00164799
0.00561878
0.00563716
0.000653266
0.000107865
4.4326e-05
4.43722e-05
3.62614e-05
3.6259e-05
6.17874e-05
0.000930177
0.0854573
0.407611
1.56976e-05
1.23396e-05
3.93566e-06
3.93448e-06
1.80445e-05
0.000347444
0.00239922
0.00559943
0.00298868
0.000141905
6.54254e-05
4.44162e-05
3.87998e-05
3.6259e-05
3.62571e-05
0.000165645
0.00123605
0.0696378
0.407611
2.57138e-05
6.53241e-06
3.93448e-06
3.93441e-06
5.05063e-05
0.001056
0.00486112
0.00493167
0.000848589
1.94973e-05
1.41645e-05
2.00079e-05
2.31506e-05
4.98478e-05
0.000150859
0.000650623
0.0026616
0.0327048
0.393777
4.23351e-05
1.02964e-05
3.93566e-06
1.72739e-05
0.000330209
0.00258018
0.00486306
0.00197542
0.000125922
1.22721e-05
1.43396e-05
1.33711e-05
0.000328024
0.000735267
0.000564222
0.00113281
0.00325701
0.0150443
0.269037
8.23745e-05
5.27267e-05
2.31933e-05
0.000302775
0.0020493
0.00316307
0.00324325
0.000262094
3.20803e-05
3.16151e-05
8.26404e-05
0.000980606
0.0029296
0.00269453
0.00087208
0.00110663
0.00286372
0.00994313
0.22283
0.000154219
0.000444087
0.000732824
0.00235488
0.00299084
0.0029731
0.000837137
4.23882e-05
4.2052e-05
0.000325299
0.00392514
0.0061736
0.00619771
0.00273832
0.000273984
0.000177608
0.00108568
0.00762512
0.211106
0.000170649
0.00127897
0.00293536
0.00296451
0.00299349
0.00133682
0.000197429
0.000191642
0.00111166
0.00596781
0.00629667
0.0048775
0.00147397
0.000192281
1.31184e-05
1.07882e-05
7.34447e-05
0.00234959
0.20432
9.34075e-05
0.000846539
0.00241307
0.00286593
0.00124306
0.000527064
0.000421307
0.00201925
0.0028319
0.0028209
0.00153026
0.000367218
2.94088e-05
7.06824e-07
4.80376e-07
8.61438e-07
9.84429e-06
0.0011143
0.307272
5.10982e-05
0.000308879
0.000839108
0.00102826
0.000468974
0.000639923
0.00131524
0.00160812
0.00147373
0.000315826
1.2118e-05
2.60564e-07
1.56946e-08
5.59433e-09
2.30974e-07
9.9156e-07
8.39182e-06
0.00178656
0.371795
0.000155705
0.000360494
0.000511924
0.000353564
0.00033671
0.000582533
0.000692617
0.000280162
9.86014e-05
3.71132e-08
6.06448e-13
6.31041e-11
7.89664e-10
1.13549e-09
3.06191e-07
1.38349e-06
2.65715e-06
0.00177712
0.290028
0.000437128
0.000473535
0.000357131
0.000142919
0.000134956
0.000168002
0.000117521
5.28782e-06
4.41123e-07
5.71729e-15
5.27237e-14
6.93624e-12
1.49241e-10
2.44173e-10
3.35407e-08
9.24473e-08
5.16597e-07
0.000940913
0.0802211
0.000666819
0.000132991
6.5348e-05
1.69399e-05
1.02117e-05
8.17509e-06
3.25915e-06
7.82901e-09
5.64335e-11
2.77644e-19
4.95804e-19
2.24146e-18
1.4693e-16
1.75343e-16
1.38668e-15
5.94161e-16
2.19265e-10
0.00012461
0.00446169
)
;

boundaryField
{
    leftWall
    {
        type            zeroGradient;
    }
    rightWall
    {
        type            zeroGradient;
    }
    lowerWall
    {
        type            zeroGradient;
    }
    atmosphere
    {
        type            inletOutlet;
        inletValue      uniform 0;
        value           nonuniform List<scalar> 
46
(
0
0
0
0
0
0
0
0
0
0
0
0
0
0
0
0
0
0
4.15079e-15
3.38351e-10
5.94649e-07
4.64154e-05
0.000291921
0.000372839
0.000573862
0.000702479
0.000730242
0.000666819
0.000132991
6.5348e-05
1.69399e-05
1.02117e-05
8.17509e-06
3.25915e-06
7.82901e-09
0
0
0
0
0
0
0
0
0
0.00012461
0.00446169
)
;
    }
    defaultFaces
    {
        type            empty;
    }
}


// ************************************************************************* //
