/*--------------------------------*- C++ -*----------------------------------*\
| =========                 |                                                 |
| \\      /  F ield         | foam-extend: Open Source CFD                    |
|  \\    /   O peration     | Version:     4.1                                |
|   \\  /    A nd           | Web:         http://www.foam-extend.org         |
|    \\/     M anipulation  |                                                 |
\*---------------------------------------------------------------------------*/
FoamFile
{
    version     2.0;
    format      ascii;
    class       volScalarField;
    location    "0.45";
    object      pd;
}
// * * * * * * * * * * * * * * * * * * * * * * * * * * * * * * * * * * * * * //

dimensions      [1 -1 -2 0 0 0 0];

internalField   nonuniform List<scalar> 
2268
(
680.127
679.074
678.702
670.693
671.49
661.644
665.747
665.32
665.293
694.087
687.59
769.242
737.566
769.755
784.872
807.046
829.93
850.244
869.202
890.014
916.316
937.259
952.156
679.942
678.853
678.342
670.344
671.107
661.334
664.776
664.532
663.285
699.492
673.746
762.219
738.214
769.07
784.967
808.329
829.037
852.939
869.145
886.893
916.397
936.308
952.902
679.52
678.41
677.768
670.009
670.28
660.261
664.572
663.35
663.952
684.219
703.251
743.38
736.478
764.639
784.073
806.023
828.668
849.467
869.566
887.63
912.497
932.853
947.005
679.03
677.776
676.713
669.101
669.006
659.626
661.194
659.248
658.271
708.754
688.035
734.079
735.636
762.304
786.235
804.13
831.153
848.526
868.901
885.697
910.883
930.658
941.52
678.25
676.966
675.597
668.474
667.101
656.84
661.407
661.045
652.737
694.508
693.832
728.215
734.333
760.835
784.536
805.868
831.223
849.013
871.882
886.254
907.37
925.822
932.719
677.575
676.003
673.63
666.948
664.88
656.816
652.409
651.527
669.276
684.396
687.801
717.981
733.082
757.811
787.214
805.47
831.123
850.012
872.372
888.338
908.343
925.675
922.664
676.372
674.862
672.054
665.97
663.014
650.016
661.825
641.833
666.148
673.754
685.041
714.41
729.286
755.938
784.441
804.834
835.637
848.87
880.52
888.482
912.381
922.622
903.922
675.516
673.635
669.742
661.94
658.807
655.661
643.084
649.917
654.633
664.751
675.414
705.598
725.272
753.423
788.961
808.234
832.237
854.873
879.432
891.779
913.409
913.718
904.429
240.883
242.047
240.339
235.477
232.552
231.477
233.35
237.317
244.005
331.719
330.075
339.644
378.822
352.343
10.4713
153.936
1511.96
2510.31
2681.94
224.828
224.428
224.038
223.358
223.33
222.848
222.673
222.8
225.607
249.016
276.169
217.657
196.26
205.827
197.058
301.779
954.873
2446.72
2623.21
223.851
223.869
223.614
223.162
223.404
222.511
222.923
223.059
224.177
227.929
225.372
199.846
199.428
206.209
242.81
404.501
1007.26
2235.57
2411.79
223.787
223.777
223.652
223.013
223.211
222.32
222.724
222.188
223.037
223.924
219.717
208.187
209.85
207.628
216.644
310.701
915.756
2036.13
2245.5
223.734
223.606
223.579
223.102
223.089
222.31
222.322
221.557
222.012
222.534
219.858
219.508
215.271
209.469
214.614
250.583
585.176
1702.84
2041.5
225.88
227.979
223.719
223.033
223.02
222.52
222.115
221.096
221.04
221.092
219.852
226.851
220.287
210.741
213.387
229.027
454.952
1512.7
1871.9
277.701
264.659
225.366
223.026
222.922
222.375
221.838
220.761
219.967
220.414
220.293
225.628
221.164
211.249
213.586
222.767
490.957
1403.73
1760.16
463.571
466
234.596
222.976
222.804
222.245
221.685
220.377
219.506
219.459
220.439
221.814
224.203
212.258
213.987
226.599
561.979
1388.57
1669.59
656.902
653.762
644.757
639.874
632.93
592.874
613.627
583.999
585.049
600.758
626.592
664.045
702.852
747.85
779.801
800.501
849.241
851.276
889.228
888.588
931.252
887.91
880.095
422.647
412.161
396.751
336.219
351.802
289.265
276.28
240.042
215.265
235.494
275.438
364.105
512.229
675.411
759.878
820.067
841.357
872.158
907.73
886.209
924.057
901.352
952.295
38.4208
36.9067
32.8517
20.5463
23.8918
16.411
13.8875
10.1752
8.52348
10.318
15.4999
35.8995
83.5897
216.486
433.122
645.934
802.904
867.304
898.53
906.693
950.483
966.225
990.653
1.71146
1.85186
1.70005
1.57336
1.64415
1.50124
1.45725
1.38113
1.3395
1.45333
1.67068
2.80201
7.8989
30.8374
83.7876
155.556
284.513
405.86
502.2
638.8
854.175
961.765
1017.49
1.15287
1.15944
1.15171
1.15759
1.17643
1.17731
1.20349
1.21137
1.23286
1.25377
1.25978
1.36388
1.74552
3.6971
7.33149
12.0658
21.9637
46.5968
49.3593
68.174
115.729
260.166
654.191
1.12559
1.12193
1.13269
1.14001
1.1567
1.16083
1.18048
1.1946
1.20025
1.2157
1.23116
1.22648
1.21051
1.23746
1.24568
1.32235
1.50469
2.61302
1.94275
2.71486
9.94833
56.759
98.3487
1.109
1.10744
1.11653
1.12379
1.14099
1.14449
1.15407
1.17046
1.18235
1.1848
1.2056
1.19856
1.2137
1.22032
1.24198
1.2308
1.21217
1.22877
1.28774
1.33699
1.47921
1.92415
3.46499
1.09345
1.09288
1.10212
1.10651
1.12038
1.12775
1.13547
1.1482
1.15152
1.16421
1.17329
1.15876
1.20176
1.2243
1.20036
1.20842
1.19404
1.22047
1.23883
1.2782
1.31322
1.37526
1.57459
1.07747
1.07692
1.0875
1.08715
1.0998
1.10291
1.10961
1.11976
1.12142
1.1325
1.12013
1.14502
1.14252
1.18195
1.16913
1.17056
1.18763
1.20603
1.25421
1.28027
1.34069
1.36948
1.3929
1.05662
1.05553
1.06523
1.06515
1.07161
1.08063
1.08716
1.09791
1.10865
1.10984
1.12866
1.1133
1.1355
1.11567
1.14012
1.15565
1.16789
1.21808
1.22504
1.27919
1.2753
1.32632
1.39651
1.03593
1.03418
1.04339
1.03968
1.04275
1.05295
1.05436
1.07419
1.06604
1.09195
1.073
1.10387
1.09322
1.11996
1.13382
1.13748
1.16105
1.17445
1.24174
1.23578
1.30799
1.32883
1.37266
1.01057
1.01333
1.01717
1.01794
1.01496
1.02778
1.03803
1.05128
1.07387
1.05723
1.10913
1.05484
1.12712
1.05353
1.12748
1.11125
1.15464
1.20024
1.20654
1.28197
1.24893
1.35537
1.3912
0.986343
0.989042
0.98273
0.987023
0.979785
0.999822
1.00448
1.01993
1.00887
1.044
1.00058
1.0689
1.04867
1.07728
1.06189
1.13362
1.08864
1.12689
1.22121
1.16603
1.32282
1.3436
1.38667
0.966279
0.970486
0.956816
0.963853
0.965552
0.97802
0.981143
0.989664
1.0003
1.00659
1.05393
1.02056
1.05691
1.04797
1.04538
1.06057
1.14552
1.12996
1.21474
1.17977
1.20802
1.40295
1.39122
0.930197
0.931396
0.922252
0.93379
0.927501
0.945051
0.937261
0.967177
0.92741
0.984129
0.875991
1.00714
0.9928
1.05103
0.974608
1.06771
0.984272
1.17182
1.05108
1.25315
1.18486
1.3435
1.33877
0.926182
0.923154
0.92824
0.913115
0.917091
0.927409
0.931486
0.923718
0.944308
0.946676
0.986077
0.922828
0.981924
0.95614
0.989984
1.06361
0.974973
1.03899
1.09911
1.11797
1.13729
1.29043
1.33486
0.855999
0.852226
0.875741
0.848746
0.878432
0.861007
0.881233
0.886516
0.886359
0.884687
0.89931
0.909462
0.928302
0.940587
0.98257
0.898563
1.00889
0.988891
1.00732
1.09419
1.10566
1.25053
1.3014
0.884524
0.929354
0.862129
0.903893
0.874179
0.916472
0.888541
0.863292
0.853138
0.833833
0.902519
0.866449
0.889497
0.882934
0.929434
0.900597
1.01591
0.868868
1.08043
0.94701
1.01623
1.18082
1.20598
0.781461
0.751578
0.895945
0.766332
0.822443
0.767268
0.809208
0.849187
0.832994
0.801469
0.784028
0.819517
0.797312
0.887983
0.815653
0.964609
0.81298
0.910455
0.903406
0.99994
0.853516
0.996406
1.44479
0.740352
0.706834
0.650117
0.719758
0.726624
0.727526
0.744651
0.714736
0.764992
0.768597
0.774207
0.812507
0.759745
0.814483
0.679515
0.749894
0.830722
0.811095
0.916218
0.803616
0.847247
0.973358
0.932552
0.669448
0.677059
0.677737
0.673751
0.69337
0.695839
0.69418
0.650607
0.707966
0.716569
0.72017
0.69557
0.703114
0.720003
0.776051
0.706905
0.695131
0.65736
0.797407
0.700837
0.713975
0.787924
0.998668
0.640024
0.621189
0.608932
0.621395
0.562596
0.620346
0.573249
0.64463
0.652324
0.589109
0.663408
0.645842
0.621508
0.614652
0.63594
0.610851
0.698439
0.663223
0.642947
0.874398
0.60754
0.648972
0.563131
0.551808
0.558482
0.609036
0.503904
0.63977
0.534132
0.635409
0.625759
0.551362
0.607067
0.530749
0.598788
0.553172
0.460563
0.565343
0.419916
0.539576
0.353561
0.463233
0.229606
0.526891
0.440182
0.758693
0.5644
0.500687
0.493132
0.620586
0.598936
0.623637
0.618083
0.612977
0.652395
0.596911
0.549931
0.563543
0.488276
0.529925
0.507069
0.528304
0.296163
0.438606
0.468593
0.109635
0.280988
0.338285
0.497833
0.581631
0.616799
0.634392
0.528338
0.534712
0.542442
0.554202
0.46963
0.439896
0.469092
0.445693
0.417032
0.387667
0.363652
0.219713
0.440887
0.166967
0.311149
0.394407
0.0538729
-0.052084
-0.487066
1.25821
0.462446
0.475456
0.507818
0.563077
0.61933
0.598959
0.443413
0.500791
0.444657
0.44313
0.44112
0.397085
0.387911
0.415995
0.328675
0.287987
0.0517564
0.174799
0.0633709
-0.443189
-0.359223
-0.826206
2.84327
0.543818
0.570338
0.565768
0.409846
0.366419
0.340689
0.361155
0.363464
0.355984
0.352538
0.341864
0.304105
0.323484
0.265114
0.220654
0.114892
0.154682
-0.170217
-0.118616
-0.162037
-0.492804
-1.03373
0.797222
0.327301
0.271671
0.276761
0.339557
0.356932
0.359532
0.349797
0.342015
0.337058
0.311085
0.30295
0.29735
0.259267
0.227455
0.200308
-0.044538
0.0483564
-0.243824
-0.253169
-0.67681
-1.44311
-1.43549
-1.41119
0.358118
0.350347
0.332347
0.316267
0.299002
0.28797
0.280813
0.27362
0.262729
0.247891
0.233242
0.239044
0.161314
0.154051
0.0437482
-0.0638379
-0.0280772
-0.609702
-0.0812138
-0.536572
-1.19746
-0.727572
-1.46419
0.25749
0.25184
0.252686
0.257616
0.25493
0.251432
0.244767
0.242259
0.227448
0.227222
0.198289
0.192114
0.223341
0.249249
0.0530674
-0.0409438
-0.237681
-0.540831
-0.397876
-1.00878
-0.58539
-0.119069
-0.0347242
0.240476
0.240305
0.227934
0.224708
0.21615
0.206338
0.197998
0.188578
0.168301
0.171041
0.109744
0.119244
0.00863064
-0.15995
-0.0318145
-0.139345
-0.252393
-0.239973
-1.05004
-0.985881
-1.52862
0.622417
0.689029
0.185129
0.183539
0.182609
0.179818
0.173616
0.167048
0.159959
0.151263
0.140903
0.129099
0.120237
0.084553
0.0358284
-0.0124533
-0.0268525
-0.116734
-0.185958
-0.379082
-1.0159
-1.27318
-1.6004
-0.343406
0.444651
0.154096
0.152805
0.149474
0.145039
0.138343
0.132222
0.124648
0.116814
0.104541
0.0885353
0.0698888
0.0456351
0.0076983
-0.0327055
-0.0466477
-0.104685
-0.199745
-0.4034
-0.704463
-0.348357
-0.0941841
0.460553
0.0583415
0.114387
0.113994
0.11162
0.108076
0.104194
0.0988491
0.0937938
0.0847035
0.0762328
0.0643237
0.0475797
0.0343449
0.0103553
-0.0141026
-0.05145
-0.0839547
-0.232168
-0.276434
-0.14469
-0.047054
1.14292
1.22142
-1.10876
0.0800398
0.078885
0.0780548
0.0747433
0.0726973
0.0674733
0.0641573
0.0572866
0.0503918
0.0423197
0.0297843
0.0231236
0.00248054
-0.00622185
-0.0325175
-0.0504061
-0.119918
-0.189067
0.0502226
1.52566
1.85042
1.72441
-1.50696
0.0486959
0.0473389
0.0463338
0.0440657
0.0425155
0.0395433
0.0367239
0.0332361
0.0284206
0.0254732
0.0173578
0.0141434
0.00324433
-0.000148726
-0.0164103
-0.0169781
-0.0714689
-0.129736
0.0154527
-0.0853321
1.34858
0.850359
-0.756807
0.0164174
0.0155064
0.0149994
0.0135243
0.0129348
0.011051
0.0101671
0.00822811
0.00691497
0.00671412
0.00520193
0.00706331
0.0162686
-0.00910092
0.000962786
-0.0108256
-0.0442508
-0.0572047
-0.144687
-0.270093
0.190588
1.7097
0.0512104
-0.00541814
-0.00557418
-0.00564794
-0.00574906
-0.00584177
-0.0055895
-0.00541688
-0.003771
-0.00361102
0.00191909
-0.00197863
0.0164549
-0.0249408
0.0264642
0.0083414
0.0339175
0.0303685
0.0393351
-0.0432064
0.210822
1.50169
2.55948
0.967025
-0.0559529
-0.0560281
-0.0560071
-0.0558581
-0.0555453
-0.0550527
-0.0529511
-0.0539815
-0.0533737
-0.0423148
-0.0503703
-0.0172753
-0.0212397
0.0420181
0.0263602
0.049552
0.0227825
0.0613423
0.0470328
0.0820415
0.497419
2.31389
2.73952
-0.0385435
-0.0385295
-0.0385212
-0.0377214
-0.0380905
-0.0352678
-0.0373546
-0.0290235
-0.0311962
-0.0254947
-0.0237965
-0.0227082
-0.0166927
-0.00194406
0.0110116
0.0343862
0.0772596
0.0890528
0.0702367
0.183766
0.556689
3.0733
3.97589
-0.179142
-0.179528
-0.179364
-0.178758
-0.178441
-0.176472
-0.176583
-0.171674
-0.168403
-0.158504
-0.149552
-0.123222
-0.0970972
-0.033549
0.0232755
0.0120195
0.0681458
0.0726561
0.0552999
0.174134
0.167305
1.98402
3.64946
0.0417655
0.0416839
0.0416423
0.0416745
0.041517
0.0416557
0.0411539
0.0412593
0.0393559
0.0365376
0.0319983
0.0221565
0.00911241
-0.00984272
-0.0432645
0.0055813
0.0253906
0.0350465
0.00908265
-0.028791
-0.156267
0.127418
0.720116
818.871
666.391
731.363
837.617
905.396
912.034
936.109
909.251
989.259
977.367
975.346
977.002
1034.95
1038.77
1048.56
1055.99
960.761
1057.34
1094.48
1108.83
167.533
271.759
596.414
955.481
13.4527
28.2295
71.0488
102.322
2.33903
4.46847
10.3849
19.8589
1.41682
1.41527
1.441
1.40991
1.43432
1.45527
1.45003
1.5149
1.425
1.43931
1.47742
1.50788
1.4662
1.50203
1.55815
1.58996
1.45014
1.49047
1.53105
1.56838
1.48944
1.53135
1.57592
1.60987
1.47936
1.48435
1.56632
1.58119
1.49922
1.47846
1.65315
1.61446
1.52046
1.50979
1.55622
1.58171
1.51205
1.53158
1.58383
1.64055
1.39714
1.42563
1.49044
1.51877
1.43872
1.52043
1.53888
1.5932
0.930954
1.36855
1.34887
1.43934
0.982099
0.977773
0.945
1.19979
0.92752
1.26434
1.80855
2.82603
1.81019
3.7374
4.14975
3.78529
3.25054
3.11426
3.32887
1.4135
2.01128
0.609694
-1.2532
-1.51232
0.341618
-1.05018
-1.96784
-2.43134
-1.57339
-1.97044
-2.28075
-2.48795
-2.27273
-2.71683
-3.10849
-3.19383
-2.59196
-3.03908
-3.26791
-3.53205
-2.73241
-3.16581
-3.51108
-3.93473
-3.07517
-3.47607
-3.80877
-4.11334
-2.83561
-3.07767
-3.44971
-3.72182
-2.42125
-2.7834
-3.17588
-3.48275
-2.2865
-2.64432
-3.0275
-3.13941
-2.6926
-2.73461
-2.83163
-3.11447
-1.39416
-1.72169
-2.03922
-2.36171
-1.18621
-1.46068
-1.49927
-1.61207
-1.11505
-1.29692
-1.31477
-1.36317
0.0454889
-0.29534
-0.682293
-0.624273
3.26435
0.719265
-0.253284
0.0365578
0.566913
1.61956
2.19498
2.47322
733.01
669.154
268.385
223.137
222.576
222.122
221.595
220.347
218.893
219.403
219.88
219.252
225.948
215.557
215.133
238.661
571.022
1287.03
1627.42
912.546
775.876
539.123
227.746
223.896
222.076
221.95
221.335
220.268
220.71
220.545
219.538
217.978
217.399
217.885
319.327
789.185
1418.14
1623.89
990.5
956.743
916.348
481.52
307.485
225.921
222.124
222.061
221.332
221.071
221.139
220.428
218.939
219.363
237.531
697.338
1227.5
1411.57
1649.5
1050.37
1048.48
971.701
1055.81
941.312
368.394
229.558
222.412
222.347
222.292
221.851
220.914
220.193
228.067
408.371
1074.59
1664.3
1491.04
1702.59
1111.54
1153.06
1118.72
1099.09
1202.51
984.902
553.096
247.053
223.19
222.675
221.865
220.482
218.754
252.005
854.52
1433.49
1514.47
1594.36
1618.5
1139.84
1060.39
1071.39
1143.76
1157.21
1168.68
1285.66
904.065
376.395
233.872
221.25
221.394
221.172
343.512
1147.9
1531.07
1500.77
1698.78
1664.55
649.696
487.935
318.91
448.433
723.881
889.187
1172.39
1154.27
1245.96
894.541
282.386
220.248
222.01
483.383
1319.61
1350.2
1435.52
1620.88
1705.15
123.873
58.8416
34.1475
50.9331
75.5729
106.073
212.681
381.459
973.533
1016.01
778.654
274.414
280.125
1094.37
1376.99
1212.44
1464.26
1656.81
1740.13
1.84413
2.15121
2.69739
3.34689
3.03341
3.60043
3.24804
20.8377
168.949
458.432
583.271
707.678
1064.53
1289.69
1532.41
1291.21
1510
1352.53
1612.93
1.50207
1.54561
1.67682
1.80465
1.97405
2.2627
2.36257
2.42185
10.3649
54.8826
188.126
440.37
928.842
1536.93
832.656
1040.5
810.86
878.435
1476.75
1.58128
1.69635
1.70676
1.90521
2.12894
2.37005
2.32443
2.18082
2.09778
3.49688
41.9206
166.202
402.868
609.59
358.345
341.102
225.837
388.44
1548.63
1.67978
1.74789
1.75558
1.95844
2.03694
2.37893
2.41585
2.32712
1.93665
3.11304
16.2088
46.6509
106.075
136.447
171.246
162.84
212.033
818.95
1707.53
1.70346
1.7464
1.89832
2.03074
2.09894
2.40376
2.52315
2.7542
2.97808
2.84211
6.85076
20.4496
35.3963
41.5989
86.7843
152.166
403.854
1000.57
1431.06
1.71422
1.80251
1.95449
2.10583
2.25442
2.56776
2.64348
2.78468
2.91445
3.50185
8.551
12.1861
12.1369
23.7898
114.699
312.687
396.343
724.137
574.939
1.70819
1.80465
1.99704
2.2099
2.42909
2.63877
2.73202
2.96008
3.08349
4.21417
7.61987
8.28454
6.2095
7.80085
37.7963
265.479
280.427
340.483
361.171
1.73177
1.7961
2.04398
2.19282
2.52465
2.61258
2.73931
2.90375
2.99774
3.62627
5.26654
5.06017
4.34561
4.43347
4.36768
19.3914
207.544
313.191
633.001
1.72208
1.702
1.99632
2.22187
2.46559
2.68427
2.87131
2.97099
3.1868
3.37325
3.84259
3.84657
4.02148
3.8708
4.20696
7.1742
81.1002
245.297
1061.99
1.6839
1.93678
1.81241
2.13414
2.44125
2.65909
2.78646
2.83868
3.26792
3.16559
3.5945
3.68877
3.92612
3.99793
4.31839
16.4512
56.8684
129.514
1053.15
1.59746
1.70649
1.94358
2.05469
2.42446
2.64994
2.86695
2.85829
2.98032
3.37502
3.62767
3.71323
3.92591
3.96217
4.58207
16.5005
25.5451
49.7446
994.056
1.61067
2.01483
1.61222
1.87644
2.23342
2.41515
2.51671
2.68501
3.00572
3.11073
3.43032
3.69639
3.98182
4.04104
8.10118
27.2046
25.0359
34.5955
1513.86
1.35261
1.46384
1.21333
2.00244
2.14512
2.61041
2.51818
2.6769
2.67108
3.07926
3.5647
4.18829
4.37694
4.37928
28.2057
63.1487
79.5062
81.9848
1778.31
1.24766
1.43533
0.942613
1.30914
1.81377
2.32233
2.32837
2.6117
3.08477
2.95467
4.10139
17.0045
27.558
10.1624
119.909
71.6433
179.603
324.257
1828.79
1.96081
1.28518
0.191127
0.64677
2.18516
2.09188
2.21546
2.3942
2.69188
3.21992
40.4851
254.661
344.29
97.4557
129.719
37.2892
70.1302
181.441
660.129
2.22756
0.998987
0.73934
1.54537
1.99262
1.85673
2.12721
2.34737
2.51682
7.82828
146.307
548.967
557.281
451.17
95.9618
33.4677
32.4152
35.7255
100.086
-0.115833
-0.289149
1.12392
0.96585
0.951705
1.2185
1.63239
1.84411
2.89989
26.1688
230.745
560.264
572.403
456.008
98.3697
67.6001
32.742
30.1111
34.1918
-1.69356
-1.7095
-0.721562
0.0903413
0.26015
0.576153
1.11992
1.37655
3.95521
48.1211
181.961
209.2
282.25
183.432
94.7482
142.11
187.507
41.0867
136.185
-2.01964
-2.48619
-1.89542
-0.837096
-0.243834
0.463689
0.540712
1.0719
9.08461
58.0419
71.1076
33.8431
30.2408
33.2504
121.771
398.165
679.586
479.336
954.081
-2.60008
-3.10953
-2.71055
-1.28152
-0.210801
2.44846
-0.599043
2.36285
14.8703
59.0071
16.2126
5.98029
6.42794
28.8596
61.485
210.097
979.673
1892.24
1946.67
-3.37151
-3.58914
-4.28199
-4.05053
-1.8992
1.78806
1.42267
4.51859
25.6192
36.2712
0.284132
-0.883883
1.72949
2.86399
5.77118
48.4975
204.648
987.932
1858.7
-3.99826
-4.69414
-4.49673
-4.16368
-2.59026
0.198174
3.37443
18.3112
26.6762
13.3542
-1.68166
-1.87833
-2.07051
-2.73285
-2.87431
-1.39885
15.1508
375.425
1145.77
-4.58984
-5.3645
-4.84979
-5.07763
-2.39989
0.0429116
6.44006
23.4273
20.8057
-0.146654
-2.22564
-3.01691
-3.09836
-3.29226
-3.42344
-2.57758
0.633274
362.493
1777.27
-4.68977
-5.69778
-4.94522
-3.02968
-2.25574
0.285784
11.7096
24.5327
12.2026
-1.34365
-2.28827
-3.02437
-3.28947
-2.81446
-2.48153
-1.62162
4.14467
305.259
1813.32
-4.24695
-5.58592
-4.1826
-3.82459
-2.45558
4.60984
25.6891
21.9128
2.28895
-1.7705
-2.21021
-2.76806
-3.25787
-2.55477
-1.5853
0.898707
10.6144
148.272
1785.4
-3.74965
-4.93146
-4.69407
-3.85599
-1.00103
8.1371
20.8363
7.48029
-1.56068
-2.08079
-1.83072
-2.51513
-1.45231
0.349314
0.0508018
3.63079
14.4831
71.1777
1257.13
-3.65177
-3.63521
-3.756
-1.4624
6.55151
10.6989
13.1623
-0.360604
-1.77631
-1.99153
-1.43818
2.46413
11.9879
11.277
2.58179
4.35171
13.1111
45.9192
1073.29
-3.06559
-0.544049
0.462302
11.9115
13.0643
14.5799
2.7253
-1.15748
-1.00637
-0.233519
17.5044
28.0965
30.0524
12.2063
-0.166922
-0.2897
4.69873
36.6956
1041.17
-2.03128
2.39807
11.9355
15.6903
14.4534
4.54743
-0.658342
-0.395197
4.21145
28.9504
31.0961
24.1967
6.53669
-0.152332
-1.37327
-1.07849
-0.689108
10.985
1029.44
-1.42645
-0.0278114
13.2498
14.8422
7.93699
2.73283
1.39399
9.61136
14.1997
13.6974
7.38778
1.35274
-0.657677
-1.31314
-0.55083
-0.877802
-1.0764
4.98085
1585.9
-1.24483
-0.759382
2.71447
4.55194
2.08052
3.05166
6.40933
8.03947
7.50483
1.26599
-0.504475
-0.428426
-0.441819
-0.454062
-0.708735
-0.895797
-1.02478
8.39782
1965.95
-0.981828
0.451018
1.43992
1.14359
1.65774
2.98073
3.48539
1.27135
0.313536
-0.360406
-0.277843
-0.51531
-0.59734
-0.52762
-0.381735
-0.617732
-0.724276
8.64152
1569.8
1.14569
1.37444
0.783802
0.695007
0.664349
0.845641
0.621159
-0.0591846
-0.0885782
-0.207342
-0.383487
-0.396451
-0.417988
-0.425782
-0.749679
-0.555882
-0.34269
4.32337
443.708
2.71272
0.272538
-0.349278
-0.310927
-0.328752
-0.225687
-0.137891
-0.0580532
-0.0832159
-0.081827
-0.0522447
-0.149948
-0.149823
-0.607809
-0.190801
-0.907181
-0.447411
-0.369842
20.1625
)
;

boundaryField
{
    leftWall
    {
        type            zeroGradient;
    }
    rightWall
    {
        type            zeroGradient;
    }
    lowerWall
    {
        type            zeroGradient;
    }
    atmosphere
    {
        type            totalPressure;
        rho             rho;
        psi             none;
        gamma           1;
        p0              uniform 0;
        value           nonuniform List<scalar> 
46
(
-0.0930225
-0.0942371
-0.0941054
-0.0938073
-0.0935807
-0.0926724
-0.0926797
-0.0906369
-0.089589
-0.0874907
-0.0848152
-0.080683
-0.0741061
-0.061732
-0.0534535
-0.0299369
-0.00345484
-1.75974e-05
0
0
0
0
0
0
0
0
0
0
0
0
0
0
0
0
0
-0.00014103
-0.0729998
-0.114502
-0.15517
-0.182916
-0.36371
-0.311996
-0.494447
-0.257083
0
0
)
;
    }
    defaultFaces
    {
        type            empty;
    }
}


// ************************************************************************* //
