/*--------------------------------*- C++ -*----------------------------------*\
| =========                 |                                                 |
| \\      /  F ield         | foam-extend: Open Source CFD                    |
|  \\    /   O peration     | Version:     4.1                                |
|   \\  /    A nd           | Web:         http://www.foam-extend.org         |
|    \\/     M anipulation  |                                                 |
\*---------------------------------------------------------------------------*/
FoamFile
{
    version     2.0;
    format      ascii;
    class       surfaceScalarField;
    location    "0.45";
    object      phi;
}
// * * * * * * * * * * * * * * * * * * * * * * * * * * * * * * * * * * * * * //

dimensions      [0 3 -1 0 0 0 0];

internalField   nonuniform List<scalar> 
4432
(
3.12558e-06
-3.12558e-06
5.2688e-06
-2.14323e-06
9.15698e-06
-3.88817e-06
1.20273e-05
-2.87032e-06
1.51109e-05
-3.08361e-06
1.74224e-05
-2.31148e-06
1.98178e-05
-2.39542e-06
2.15946e-05
-1.77675e-06
2.22464e-05
-6.51833e-07
2.21215e-05
1.2487e-07
3.65141e-05
-1.43926e-05
3.75669e-05
-1.05277e-06
3.83774e-05
-8.10483e-07
3.80761e-05
3.01268e-07
3.72377e-05
8.38447e-07
3.61419e-05
1.09574e-06
3.48592e-05
1.28268e-06
3.31523e-05
1.70693e-06
3.08343e-05
2.31802e-06
2.61838e-05
4.65051e-06
1.96918e-05
6.49199e-06
1.15554e-05
8.13639e-06
1.15554e-05
3.12511e-06
-6.25069e-06
5.49031e-06
-4.50842e-06
9.31707e-06
-7.71494e-06
1.20017e-05
-5.55498e-06
1.51901e-05
-6.27203e-06
1.76504e-05
-4.7717e-06
2.01785e-05
-4.92359e-06
2.17329e-05
-3.33112e-06
2.2768e-05
-1.68692e-06
2.22703e-05
6.22531e-07
3.32842e-05
-2.54064e-05
3.47348e-05
-2.50338e-06
3.57535e-05
-1.82919e-06
3.57369e-05
3.17826e-07
3.55586e-05
1.01681e-06
3.49151e-05
1.7392e-06
3.31755e-05
3.02227e-06
3.1653e-05
3.22944e-06
3.01683e-05
3.80268e-06
2.58127e-05
9.00612e-06
1.98223e-05
1.24824e-05
1.04752e-05
1.74835e-05
2.20306e-05
2.9654e-06
-9.21608e-06
5.68273e-06
-7.22576e-06
9.28038e-06
-1.13126e-05
1.16372e-05
-7.91182e-06
1.51458e-05
-9.78058e-06
1.78402e-05
-7.46616e-06
2.01715e-05
-7.25486e-06
2.25731e-05
-5.73274e-06
2.23551e-05
-1.46887e-06
3.80193e-05
-1.50417e-05
3.21057e-05
-1.94928e-05
3.33106e-05
-3.7083e-06
3.3886e-05
-2.40463e-06
3.3403e-05
8.00875e-07
3.29151e-05
1.50472e-06
3.20184e-05
2.63593e-06
3.1088e-05
3.9526e-06
3.03541e-05
3.96334e-06
2.90568e-05
5.09997e-06
2.54516e-05
1.26114e-05
2.06041e-05
1.733e-05
1.28109e-05
2.52766e-05
3.48415e-05
2.77806e-06
-1.19941e-05
5.8652e-06
-1.03129e-05
9.27584e-06
-1.47232e-05
1.16888e-05
-1.03248e-05
1.53902e-05
-1.3482e-05
1.79591e-05
-1.00351e-05
2.06795e-05
-9.97523e-06
2.08328e-05
-5.88607e-06
3.39885e-05
-1.46246e-05
3.21775e-05
-1.32307e-05
2.79965e-05
-1.53117e-05
2.66401e-05
-2.35189e-06
2.54569e-05
-1.22144e-06
2.44291e-05
1.82863e-06
2.44821e-05
1.4518e-06
2.35135e-05
3.60445e-06
2.30816e-05
4.38456e-06
2.29759e-05
4.06902e-06
2.28998e-05
5.17612e-06
2.12669e-05
1.42443e-05
1.87649e-05
1.98319e-05
1.15583e-05
3.24832e-05
4.63999e-05
2.54419e-06
-1.45383e-05
5.9045e-06
-1.36732e-05
9.41159e-06
-1.82303e-05
1.20402e-05
-1.29535e-05
1.5101e-05
-1.65428e-05
1.70922e-05
-1.20262e-05
2.02203e-05
-1.31033e-05
1.99201e-05
-5.58589e-06
3.05612e-05
-2.52657e-05
2.78982e-05
-1.05677e-05
2.46714e-05
-1.2085e-05
2.4297e-05
-1.97753e-06
2.37249e-05
-6.49339e-07
2.23067e-05
3.24689e-06
2.03371e-05
3.42136e-06
1.8682e-05
5.25956e-06
1.80326e-05
5.034e-06
1.65695e-05
5.53212e-06
1.65325e-05
5.21311e-06
1.58445e-05
1.49323e-05
1.5316e-05
2.03604e-05
1.26962e-05
3.5103e-05
5.9096e-05
2.65724e-06
-1.71956e-05
6.24417e-06
-1.72601e-05
9.54416e-06
-2.15303e-05
1.18008e-05
-1.52101e-05
1.45289e-05
-1.92709e-05
1.74508e-05
-1.49481e-05
1.78995e-05
-1.3552e-05
2.9347e-05
-1.70334e-05
2.68706e-05
-2.27893e-05
2.65581e-05
-1.02553e-05
2.38224e-05
-9.34931e-06
2.26636e-05
-8.18708e-07
2.1253e-05
7.61331e-07
1.91282e-05
5.37163e-06
1.79988e-05
4.5508e-06
1.66934e-05
6.56496e-06
1.5611e-05
6.11638e-06
1.47027e-05
6.44037e-06
1.47341e-05
5.18178e-06
1.30478e-05
1.66186e-05
1.32722e-05
2.0136e-05
1.17998e-05
3.65754e-05
7.08958e-05
2.96004e-06
-2.01556e-05
6.31944e-06
-2.06195e-05
9.02069e-06
-2.42316e-05
1.14345e-05
-1.76239e-05
1.43872e-05
-2.22236e-05
1.58043e-05
-1.63652e-05
1.58054e-05
-1.35531e-05
2.67363e-05
-2.79643e-05
2.58547e-05
-2.19077e-05
2.5583e-05
-9.98352e-06
2.34506e-05
-7.21688e-06
2.28497e-05
-2.17848e-07
2.159e-05
2.02105e-06
1.95925e-05
7.36913e-06
1.76374e-05
6.50591e-06
1.61911e-05
8.01129e-06
1.56896e-05
6.6179e-06
1.38994e-05
8.23055e-06
1.42393e-05
4.84183e-06
1.2994e-05
1.78639e-05
1.46169e-05
1.8513e-05
7.86672e-06
4.33257e-05
7.87625e-05
3.25084e-06
-2.34065e-05
6.41622e-06
-2.37849e-05
9.01376e-06
-2.68291e-05
1.12153e-05
-1.98254e-05
1.42648e-05
-2.52731e-05
1.4494e-05
-1.65943e-05
2.57993e-05
-2.48585e-05
2.58793e-05
-2.80443e-05
2.59068e-05
-2.19352e-05
2.62793e-05
-1.0356e-05
2.50657e-05
-6.00332e-06
2.388e-05
9.67911e-07
2.13506e-05
4.55046e-06
1.78445e-05
1.08752e-05
1.72662e-05
7.08414e-06
1.77153e-05
7.56222e-06
1.72375e-05
7.09567e-06
1.67162e-05
8.75192e-06
1.63709e-05
5.18712e-06
1.49206e-05
1.93142e-05
1.66077e-05
1.6826e-05
8.13415e-06
5.17992e-05
8.68967e-05
1.66412e-05
-1.66412e-05
2.78309e-05
-1.11897e-05
4.06544e-05
-1.28235e-05
5.4954e-05
-1.42996e-05
6.80208e-05
-1.30667e-05
8.27942e-05
-1.47735e-05
0.000101521
-1.87269e-05
0.000119725
-1.82035e-05
0.000115708
4.01661e-06
3.5457e-06
0.000112162
-0.000257562
0.000261108
-0.00035869
0.000101128
-0.00040364
4.49502e-05
-0.000367583
-3.60571e-05
-0.00018553
-0.000182052
-0.000148077
-3.74533e-05
-0.000170202
2.21252e-05
-6.69767e-05
-0.000103226
-6.69767e-05
-7.66749e-06
-8.97367e-06
4.052e-05
-5.93771e-05
8.30382e-05
-5.53417e-05
0.000104875
-3.61363e-05
0.000140324
-4.85159e-05
8.32925e-05
4.22581e-05
8.56065e-05
-2.10408e-05
7.65689e-05
-9.16584e-06
5.58214e-05
2.4764e-05
-3.22957e-05
0.000200279
-0.000238381
0.000467193
-0.000338861
0.000201608
-0.000344048
5.0137e-05
-0.000158962
-0.000221143
-0.000162116
-0.000178898
-0.00015423
-4.53396e-05
-0.000101153
-3.09513e-05
-6.2732e-05
-0.000141647
-0.000129709
-1.2305e-05
3.33138e-06
6.09197e-05
-0.000132602
0.000113874
-0.000108296
0.000127876
-5.01383e-05
0.000105963
-2.66029e-05
0.000201418
-5.31971e-05
0.000214158
-3.3781e-05
0.000204536
4.5638e-07
0.000113416
0.000115884
3.66406e-06
0.00031003
-4.51255e-05
0.000515983
-0.000191365
0.000347847
-0.000265147
0.000123919
-0.00015261
-0.00033368
-0.000212892
-0.000118617
-0.000179804
-7.84282e-05
-0.000117759
-9.29955e-05
-5.28307e-05
-0.000206575
-0.000182539
-2.95643e-06
6.28793e-06
4.01691e-05
-0.000175727
3.83344e-05
-0.000106461
5.76958e-05
-6.94995e-05
9.10565e-05
-5.99635e-05
0.000146641
-0.000108782
0.000193592
-8.0732e-05
0.000217432
-2.33838e-05
0.000132566
0.00020075
5.77664e-05
0.00038483
5.65001e-05
0.000517249
5.92833e-06
0.000398419
-0.000106076
0.000235924
-0.000210613
-0.000229143
-0.000178281
-0.000150949
-0.000192355
-6.43538e-05
-0.000100631
-0.00018472
-3.7859e-05
-0.000269347
-0.000220398
3.48746e-05
-2.85865e-05
4.69858e-06
-0.00014555
1.96365e-05
-0.000121399
3.164e-05
-8.15029e-05
7.7893e-05
-0.000106216
9.25856e-05
-0.000123474
8.85507e-05
-7.66972e-05
0.000112299
-4.71336e-05
9.31837e-05
0.000219866
0.000111046
0.000366969
9.78636e-05
0.000530431
7.9082e-05
0.000417201
-6.91749e-05
0.00038418
-0.000211891
-8.64268e-05
-0.000305298
-5.75424e-05
-0.000169354
-0.000200298
-6.73013e-05
-0.000286773
-2.43586e-05
-0.00031229
-0.000244757
1.25208e-05
-4.11073e-05
-4.073e-06
-0.000128957
2.78903e-06
-0.000128261
5.38053e-06
-8.40944e-05
3.06659e-05
-0.000131502
6.35472e-05
-0.000156355
0.000114586
-0.000127736
0.000158415
-9.0963e-05
0.000167578
0.000210703
8.15695e-05
0.000452977
0.000112709
0.000499291
7.5328e-05
0.000454582
-4.56058e-05
0.000505114
-0.000138087
6.05477e-06
-0.000103584
-9.20451e-05
-7.43048e-05
-0.000229578
-2.75516e-05
-0.000333526
-1.1028e-05
-0.000328813
-0.000255785
1.21555e-05
-5.32628e-05
-3.11566e-06
-0.000113685
-3.5197e-06
-0.000127857
-9.89036e-06
-7.77238e-05
5.01656e-06
-0.000146409
1.27118e-05
-0.00016405
5.90966e-05
-0.000174121
6.21976e-05
-9.40648e-05
0.000142291
0.00013061
9.01761e-05
0.000505091
0.000117253
0.000472214
6.59334e-05
0.000505901
-1.1156e-05
0.000582203
-0.00010541
0.000100309
-4.95513e-05
-0.000147903
-1.07482e-05
-0.000268381
3.25835e-06
-0.000347533
-2.78035e-09
-0.000325552
-0.000255788
9.542e-06
-6.28048e-05
2.36556e-05
-0.000127799
-6.69593e-06
-9.7505e-05
-1.8354e-05
-6.60658e-05
-4.80671e-06
-0.000159956
1.52345e-06
-0.00017038
7.5594e-06
-0.000180156
3.69778e-05
-0.000123484
6.39686e-05
0.000103619
0.000118785
0.000450274
0.000108476
0.000482522
3.5554e-05
0.000578823
1.4826e-05
0.000602931
-1.53133e-05
0.000130448
1.8474e-05
-0.00018169
1.6471e-05
-0.000266377
1.69219e-05
-0.000347984
2.86992e-06
-0.0003115
-0.000252918
6.73355e-06
-3.014e-05
1.27549e-05
-2.98063e-05
1.77249e-05
-3.1799e-05
2.37614e-05
-2.5862e-05
2.72324e-05
-2.87441e-05
4.76644e-05
-3.70264e-05
5.31333e-05
-3.03274e-05
5.60972e-05
-3.10082e-05
5.71963e-05
-2.30343e-05
5.96011e-05
-1.27608e-05
5.87e-05
-5.10218e-06
5.57891e-05
3.87884e-06
4.9183e-05
1.11566e-05
4.50176e-05
1.50406e-05
4.14023e-05
1.06994e-05
3.37945e-05
1.517e-05
3.42697e-05
6.62053e-06
3.7362e-05
5.65955e-06
3.94319e-05
3.11731e-06
4.03042e-05
1.84418e-05
3.07876e-05
2.63426e-05
3.2521e-05
5.00658e-05
3.35072e-05
8.59105e-05
6.55656e-06
-3.66966e-05
1.33406e-05
-3.65903e-05
1.87985e-05
-3.7257e-05
3.56923e-05
-4.27557e-05
4.12243e-05
-3.4276e-05
4.82784e-05
-4.40805e-05
5.47356e-05
-3.67846e-05
6.27728e-05
-3.90454e-05
6.88804e-05
-2.9142e-05
7.16451e-05
-1.55256e-05
7.02765e-05
-3.73354e-06
6.25417e-05
1.16137e-05
5.72562e-05
1.6442e-05
5.10146e-05
2.12822e-05
4.07355e-05
2.09785e-05
4.1389e-05
1.45165e-05
3.89757e-05
9.03379e-06
3.82023e-05
6.43294e-06
2.72759e-05
1.40437e-05
3.43024e-05
1.14153e-05
3.85498e-05
2.20952e-05
7.69351e-05
1.16805e-05
1.40256e-05
9.64166e-05
8.22199e-06
-4.49186e-05
1.54602e-05
-4.38285e-05
2.80541e-05
-4.98508e-05
3.61912e-05
-5.08928e-05
4.29847e-05
-4.10695e-05
5.0577e-05
-5.16728e-05
6.13911e-05
-4.75986e-05
7.20006e-05
-4.96549e-05
7.50144e-05
-3.21557e-05
7.34661e-05
-1.39773e-05
6.52925e-05
4.44006e-06
5.23326e-05
2.45736e-05
4.30395e-05
2.57351e-05
3.78166e-05
2.65052e-05
3.51627e-05
2.36323e-05
3.87882e-05
1.0891e-05
4.35469e-05
4.2751e-06
4.66809e-05
3.29893e-06
5.18937e-05
8.83101e-06
5.60574e-05
7.25164e-06
6.40569e-05
1.40957e-05
7.06985e-05
5.03886e-06
3.00511e-06
8.1719e-05
3.66334e-06
-4.85819e-05
5.74444e-06
-4.59096e-05
9.76213e-06
-5.38685e-05
1.11997e-05
-5.23304e-05
1.90346e-05
-4.89044e-05
2.08471e-05
-5.34854e-05
1.68583e-05
-4.36098e-05
7.84786e-06
-4.06445e-05
4.11629e-06
-2.84241e-05
3.96807e-06
-1.38291e-05
3.99877e-06
4.40937e-06
2.00189e-06
2.65705e-05
-9.65826e-06
3.73953e-05
-6.69968e-07
1.75169e-05
1.07506e-05
1.22118e-05
2.19058e-05
-2.64311e-07
3.51097e-05
-8.92876e-06
4.08139e-05
-2.40529e-06
4.53523e-05
4.29262e-06
5.38464e-05
-1.24248e-06
6.47199e-05
3.22223e-06
7.37512e-05
-3.99248e-06
-6.08236e-06
8.28387e-05
-8.60562e-06
-3.99763e-05
-1.42706e-05
-4.02446e-05
-1.17248e-05
-5.64144e-05
-2.86164e-06
-6.11936e-05
2.77416e-06
-5.45402e-05
-5.45625e-06
-4.5255e-05
-1.816e-05
-3.09061e-05
-3.18338e-05
-2.69707e-05
-4.1986e-05
-1.82719e-05
-4.64196e-05
-9.3955e-06
-4.41056e-05
2.09537e-06
-3.86752e-05
2.11401e-05
-1.54742e-05
1.41944e-05
-1.6348e-05
1.83907e-05
-4.81649e-06
6.80345e-07
6.47469e-06
-1.15555e-05
1.49949e-05
-1.7449e-05
8.96857e-06
3.62104e-06
1.22898e-05
9.71355e-07
2.28275e-05
-1.17801e-05
4.24786e-05
-1.64289e-05
5.97156e-05
-2.12295e-05
-2.45422e-05
7.81754e-05
-8.57067e-06
-3.14056e-05
-1.3429e-05
-3.53863e-05
-7.04951e-06
-6.27938e-05
7.27886e-07
-6.89709e-05
2.77326e-06
-5.65855e-05
-2.45516e-06
-4.00266e-05
-8.62273e-06
-2.47385e-05
-1.36326e-05
-2.19608e-05
-1.92961e-05
-1.26084e-05
-2.12637e-05
-7.4279e-06
-2.67415e-05
7.57325e-06
-8.2456e-06
2.64417e-06
7.37066e-06
-1.4219e-06
1.82482e-05
7.51316e-06
2.65697e-05
-7.64123e-06
2.0148e-05
-5.13372e-06
6.64886e-06
-3.94983e-06
1.75281e-07
1.00946e-05
-7.19396e-06
8.3406e-06
-2.38871e-05
4.913e-06
-2.05556e-05
-1.97604e-05
2.66229e-05
-6.84079e-05
-4.89713e-05
5.1052e-05
-5.80077e-07
-3.08255e-05
-6.71712e-07
-3.52947e-05
3.61367e-06
-6.70792e-05
6.45884e-06
-7.18161e-05
5.17384e-06
-5.53005e-05
1.81764e-06
-3.66704e-05
-2.20249e-06
-2.07184e-05
-7.17625e-06
-1.6987e-05
-1.03405e-05
-9.44409e-06
-9.23715e-06
-8.53124e-06
-6.10915e-06
4.44526e-06
2.18689e-07
-3.68366e-06
1.03162e-05
-1.15194e-05
2.12382e-05
-3.40887e-06
3.03768e-05
-1.67798e-05
3.13875e-05
-6.14442e-06
2.86306e-05
-1.19292e-06
2.91009e-05
9.62435e-06
3.66055e-05
8.36017e-07
3.96255e-05
1.89297e-06
4.04568e-05
-2.05916e-05
1.79243e-05
-4.58754e-05
-3.40422e-05
2.99514e-06
5.25074e-07
-3.13506e-05
3.05714e-06
-3.78267e-05
9.09522e-06
-7.31173e-05
1.29322e-05
-7.56531e-05
1.00207e-05
-5.23891e-05
6.75377e-06
-3.34034e-05
2.42292e-06
-1.63875e-05
6.98087e-07
-1.52622e-05
-1.58089e-06
-7.1651e-06
-1.28786e-06
-8.82426e-06
4.18865e-06
-1.03124e-06
7.70376e-06
-7.19875e-06
5.2118e-06
-9.0274e-06
8.50442e-06
-6.70148e-06
1.24599e-05
-2.07353e-05
1.75209e-05
-1.12054e-05
2.43183e-05
-7.99033e-06
3.24629e-05
1.47981e-06
3.91566e-05
-5.8577e-06
4.94231e-05
-8.37352e-06
4.87223e-05
-1.98909e-05
3.18429e-05
-2.89959e-05
-2.28381e-05
2.06388e-05
8.71485e-07
-3.22221e-05
3.62588e-06
-4.05811e-05
1.1721e-05
-8.12124e-05
1.58581e-05
-7.97901e-05
1.2006e-05
-4.8537e-05
9.6345e-06
-3.10319e-05
7.70485e-06
-1.44579e-05
7.70642e-06
-1.52638e-05
4.11641e-06
-3.57508e-06
5.34026e-06
-1.00481e-05
1.01728e-05
-5.86374e-06
1.30361e-05
-1.00621e-05
1.44247e-05
-1.0416e-05
1.65804e-05
-8.85714e-06
1.91628e-05
-2.33177e-05
2.26653e-05
-1.47079e-05
3.01998e-05
-1.55248e-05
3.41045e-05
-2.42494e-06
3.33285e-05
-5.08162e-06
3.81057e-05
-1.31507e-05
3.43344e-05
-1.61196e-05
3.47293e-05
-2.93908e-05
-3.24432e-05
4.43343e-05
9.51631e-07
-3.31737e-05
4.11144e-06
-4.37409e-05
1.43567e-05
-9.14576e-05
1.81555e-05
-8.3589e-05
1.20813e-05
-4.24627e-05
9.82185e-06
-2.87725e-05
1.06096e-05
-1.52456e-05
1.00535e-05
-1.47076e-05
1.10807e-05
-4.60227e-06
8.9146e-06
-7.88202e-06
1.11198e-05
-8.06895e-06
1.01516e-05
-9.09385e-06
1.24926e-05
-1.27569e-05
2.05533e-05
-1.69178e-05
2.01543e-05
-2.29187e-05
1.60073e-05
-1.05609e-05
2.08112e-05
-2.03287e-05
2.16324e-05
-3.24614e-06
3.95245e-05
-2.29737e-05
4.46964e-05
-1.83225e-05
3.83402e-05
-9.76351e-06
1.89834e-05
-1.0034e-05
-2.3033e-05
9.57321e-06
1.20392e-06
-3.43776e-05
4.16423e-06
-4.67012e-05
1.44887e-05
-0.000101782
1.72203e-05
-8.63207e-05
9.22417e-06
-3.44665e-05
7.64788e-06
-2.71962e-05
1.06522e-05
-1.82499e-05
1.37728e-05
-1.78282e-05
1.59194e-05
-6.74891e-06
2.24305e-05
-1.43931e-05
2.08166e-05
-6.4551e-06
2.29796e-05
-1.12568e-05
2.34916e-05
-1.32689e-05
2.65168e-05
-1.9943e-05
1.75981e-05
-1.39999e-05
2.26432e-05
-1.5606e-05
2.18947e-05
-1.95802e-05
3.37321e-05
-1.50836e-05
3.71241e-05
-2.63656e-05
3.3068e-05
-1.42665e-05
2.5886e-05
-2.58146e-06
2.99229e-05
-1.4071e-05
-2.97483e-05
3.66383e-05
1.76944e-06
-3.6147e-05
2.53582e-06
-4.74676e-05
1.36461e-05
-0.000112892
1.4158e-05
-8.68325e-05
3.6873e-06
-2.39959e-05
3.45642e-06
-2.69653e-05
5.55297e-06
-2.03465e-05
1.32263e-05
-2.55014e-05
1.0346e-05
-3.86863e-06
2.61683e-05
-3.02153e-05
1.72358e-05
2.4774e-06
2.9998e-05
-2.4019e-05
2.45606e-05
-7.83149e-06
3.94463e-05
-3.48287e-05
3.47828e-05
-9.33633e-06
3.79899e-05
-1.88131e-05
4.04943e-05
-2.20846e-05
4.28148e-05
-1.7404e-05
4.94854e-05
-3.30363e-05
3.60687e-05
-8.49797e-07
3.23687e-05
1.11857e-06
2.38702e-05
-5.5725e-06
-2.19898e-05
1.61116e-05
2.02548e-06
-3.81725e-05
3.51291e-06
-4.8955e-05
1.22458e-05
-0.000121625
8.31623e-06
-8.29029e-05
-2.54152e-07
-1.54255e-05
1.82227e-06
-2.90417e-05
1.03304e-05
-2.88546e-05
1.71504e-05
-3.23215e-05
2.77402e-05
-1.44583e-05
1.92611e-05
-2.17362e-05
3.19623e-05
-1.02238e-05
3.88956e-05
-3.09522e-05
4.34231e-05
-1.2359e-05
4.1622e-05
-3.30276e-05
3.57237e-05
-3.43791e-06
3.38184e-05
-1.69078e-05
3.50033e-05
-2.32696e-05
5.54817e-05
-3.78823e-05
3.99291e-05
-1.74837e-05
6.3834e-05
-2.47547e-05
5.18207e-05
1.31319e-05
5.10884e-05
-4.84017e-06
6.67202e-06
2.24266e-05
2.67399e-06
-4.08465e-05
6.27898e-06
-5.256e-05
9.19751e-06
-0.000124544
1.85386e-06
-7.55592e-05
-1.21985e-06
-1.23518e-05
2.85117e-06
-3.31127e-05
1.05596e-05
-3.65629e-05
1.22499e-05
-3.40118e-05
2.1027e-05
-2.32354e-05
2.36759e-05
-2.43852e-05
3.23018e-05
-1.88497e-05
4.86538e-05
-4.73041e-05
4.99245e-05
-1.36297e-05
3.36159e-05
-1.67191e-05
3.5873e-05
-5.69493e-06
6.2675e-05
-4.37098e-05
6.51966e-05
-2.57912e-05
6.77392e-05
-4.04248e-05
5.04933e-05
-2.37816e-07
5.37148e-05
-2.79762e-05
6.91355e-05
-2.28881e-06
6.17206e-05
2.57474e-06
1.20595e-05
5.63331e-05
3.83424e-07
-4.12299e-05
4.87148e-06
-5.7048e-05
7.76729e-06
-0.00012744
1.90185e-06
-6.96938e-05
-1.23625e-06
-9.21364e-06
4.4454e-06
-3.87944e-05
7.79319e-06
-3.99107e-05
1.09538e-05
-3.71725e-05
4.09893e-05
-5.32708e-05
3.678e-05
-2.01759e-05
5.62197e-05
-3.82894e-05
3.61846e-05
-2.7269e-05
3.91124e-05
-1.65576e-05
3.17321e-05
-9.33871e-06
6.66483e-05
-4.06112e-05
4.41964e-05
-2.12579e-05
7.61937e-05
-5.77885e-05
4.51324e-05
-9.36355e-06
7.43128e-05
-2.94181e-05
5.02669e-05
-3.93043e-06
5.46453e-05
-6.66715e-06
5.18786e-05
5.3414e-06
2.74788e-05
3.64593e-05
-1.80365e-06
-3.94263e-05
3.33383e-06
-6.21855e-05
4.20812e-06
-0.000128314
9.09702e-07
-6.63954e-05
-5.61382e-07
-7.74255e-06
7.30882e-06
-4.66646e-05
8.83845e-06
-4.14403e-05
2.0533e-05
-4.8867e-05
1.65337e-05
-4.92716e-05
4.11208e-05
-4.4763e-05
3.09651e-05
-2.81337e-05
2.92773e-05
-2.55812e-05
2.88298e-05
-1.611e-05
5.0612e-05
-3.11209e-05
5.71458e-05
-4.7145e-05
4.49334e-05
-9.04548e-06
4.19025e-05
-5.47575e-05
4.02267e-05
-7.68778e-06
5.44621e-05
-4.36535e-05
6.40391e-05
-1.35074e-05
6.31789e-05
-5.80699e-06
6.11753e-05
7.34502e-06
3.29321e-05
5.5722e-05
-4.38889e-06
-3.50374e-05
5.01534e-07
-6.70759e-05
2.24276e-06
-0.000130055
-4.07463e-06
-6.0078e-05
1.94074e-06
-1.37579e-05
5.46866e-06
-5.01925e-05
8.87564e-06
-4.48473e-05
1.60177e-05
-5.6009e-05
2.42515e-05
-5.75054e-05
4.40579e-05
-6.45694e-05
3.95678e-05
-2.36435e-05
3.85825e-05
-2.45959e-05
3.80219e-05
-1.55493e-05
5.34642e-05
-4.65632e-05
3.89999e-05
-3.26806e-05
6.74884e-05
-3.7534e-05
4.50779e-05
-3.23471e-05
5.10251e-05
-1.3635e-05
5.34496e-05
-4.6078e-05
6.73369e-05
-2.73947e-05
7.6915e-05
-1.53851e-05
7.23021e-05
1.19579e-05
1.73713e-05
8.78629e-05
-6.19199e-06
-2.88454e-05
4.8199e-06
-7.80878e-05
-1.35832e-06
-0.000123877
-2.90266e-06
-5.85336e-05
3.10954e-08
-1.66917e-05
1.1696e-05
-6.18574e-05
1.63882e-05
-4.95395e-05
1.64043e-05
-5.6025e-05
2.15486e-05
-6.26497e-05
3.17108e-05
-7.47316e-05
3.62867e-05
-2.82194e-05
4.17416e-05
-3.00508e-05
4.90849e-05
-2.28926e-05
6.0587e-05
-5.80653e-05
6.57518e-05
-3.78453e-05
6.97653e-05
-4.15475e-05
4.79033e-05
-1.04851e-05
7.767e-05
-4.34017e-05
6.57567e-05
-3.41646e-05
7.94453e-05
-4.10833e-05
8.42302e-05
-2.017e-05
8.59484e-05
1.02397e-05
-8.54672e-06
0.000111866
1.26372e-06
-3.01091e-05
-1.0756e-05
-6.60681e-05
-2.16512e-06
-0.000132468
-1.13118e-05
-4.93869e-05
8.69726e-06
-3.67007e-05
1.43576e-06
-5.45958e-05
-5.50649e-06
-4.25973e-05
1.69247e-05
-7.84562e-05
1.90691e-05
-6.47941e-05
2.09913e-05
-7.66538e-05
3.2152e-05
-3.93801e-05
3.36306e-05
-3.15294e-05
4.52925e-05
-3.45545e-05
4.01895e-05
-5.29623e-05
7.47155e-05
-7.23713e-05
4.86202e-05
-1.54521e-05
8.9775e-05
-5.16399e-05
9.18987e-05
-4.55253e-05
0.000106551
-4.88174e-05
9.1472e-05
-2.60039e-05
0.000103953
-3.2651e-05
0.000159206
-4.50136e-05
-6.83296e-06
0.000157492
1.11564e-05
-4.12655e-05
2.23567e-05
-7.72684e-05
-2.04224e-05
-8.96885e-05
-1.07504e-05
-5.90589e-05
3.74441e-06
-5.11955e-05
1.09844e-05
-6.18358e-05
2.80931e-05
-5.97059e-05
9.109e-06
-5.94721e-05
2.37004e-05
-7.93855e-05
2.66242e-05
-7.95776e-05
2.80351e-05
-4.07909e-05
2.75043e-05
-3.09986e-05
7.45248e-05
-8.15749e-05
4.96482e-05
-2.80857e-05
3.28831e-05
-5.56062e-05
5.23857e-05
-3.49547e-05
7.69474e-05
-7.62016e-05
9.0625e-05
-5.92029e-05
7.8724e-05
-3.69163e-05
9.79285e-05
-4.52084e-05
0.000106884
-4.16068e-05
0.000119784
-5.79132e-05
-5.53993e-05
0.00016835
2.32598e-06
-4.35914e-05
2.33144e-06
-7.72739e-05
-1.36926e-06
-8.59878e-05
-1.24279e-06
-5.91854e-05
6.26222e-06
-5.87005e-05
7.54845e-06
-6.31221e-05
1.58674e-05
-6.80248e-05
1.39831e-05
-5.75879e-05
2.09339e-05
-8.63363e-05
3.91581e-05
-9.78017e-05
4.05858e-05
-4.22187e-05
5.63165e-05
-4.67293e-05
2.38574e-05
-4.91158e-05
3.98454e-05
-4.40737e-05
3.677e-05
-5.25307e-05
4.77507e-05
-4.59353e-05
5.92185e-05
-8.76695e-05
6.49186e-05
-6.4903e-05
8.05698e-05
-5.25675e-05
9.44111e-05
-5.90498e-05
0.000106059
-5.32549e-05
0.000124292
-7.61462e-05
-7.62611e-05
0.000145154
3.25585e-06
-4.68473e-05
4.46722e-06
-7.84852e-05
-1.38941e-06
-8.01312e-05
4.58984e-06
-6.51646e-05
4.05064e-06
-5.81613e-05
1.01066e-05
-6.9178e-05
8.46592e-06
-6.63841e-05
4.15271e-05
-9.0649e-05
4.54258e-05
-9.02349e-05
1.12231e-05
-6.3599e-05
2.01715e-05
-5.11671e-05
2.94538e-05
-5.60116e-05
3.5539e-05
-5.5201e-05
5.73005e-05
-6.58353e-05
6.33102e-05
-5.85404e-05
7.63193e-05
-5.89444e-05
6.23118e-05
-7.3662e-05
7.06499e-05
-7.32411e-05
0.000126063
-0.000107981
9.05445e-05
-2.35309e-05
0.000114504
-7.72141e-05
0.000130175
-9.18173e-05
-0.000149661
0.000203575
-4.41017e-06
-4.24371e-05
-2.21374e-06
-8.06816e-05
-4.46314e-06
-7.78818e-05
-7.26553e-06
-6.23622e-05
1.51409e-05
-8.05678e-05
9.48218e-06
-6.35193e-05
3.7808e-05
-9.47099e-05
2.28903e-05
-7.57313e-05
3.00453e-05
-9.739e-05
2.04471e-05
-5.40008e-05
3.0317e-05
-6.1037e-05
2.65885e-05
-5.2283e-05
2.87553e-05
-5.73678e-05
4.22256e-05
-7.93055e-05
4.34095e-05
-5.97243e-05
5.91526e-05
-7.46874e-05
6.8359e-05
-8.28684e-05
0.000119532
-0.000124414
8.87684e-05
-7.72174e-05
0.000159331
-9.40932e-05
0.000195957
-0.00011384
0.000210828
-0.000106689
-0.000166847
0.000228014
9.54476e-06
-5.19819e-05
7.29914e-07
-7.18668e-05
-4.47395e-06
-7.26779e-05
1.47115e-05
-8.15477e-05
9.12884e-06
-7.49851e-05
3.41458e-05
-8.85362e-05
1.96829e-05
-8.02471e-05
2.36878e-05
-7.97361e-05
2.46351e-05
-9.83374e-05
1.62047e-05
-4.55703e-05
1.83503e-05
-6.31826e-05
1.99797e-05
-5.39124e-05
3.01558e-05
-6.7544e-05
2.56415e-05
-7.47912e-05
8.28209e-05
-0.000116904
6.94335e-05
-6.13e-05
0.000106816
-0.000120251
0.000108714
-0.000126312
9.59813e-05
-6.44849e-05
0.0001126
-0.000110712
0.00013678
-0.000138019
0.000145628
-0.000115537
-0.000224987
0.000203768
-2.43434e-05
-2.76384e-05
2.84565e-06
-9.90559e-05
2.99135e-05
-9.97458e-05
2.31512e-05
-7.47854e-05
2.20799e-05
-7.39138e-05
1.83925e-05
-8.48487e-05
4.26121e-05
-0.000104467
2.14539e-05
-5.85779e-05
-6.83243e-06
-7.0051e-05
5.98549e-06
-5.83882e-05
1.29213e-05
-7.01184e-05
2.51709e-05
-6.6162e-05
3.78636e-05
-8.02366e-05
3.72861e-05
-7.42136e-05
7.08624e-05
-0.00015048
6.45631e-05
-5.50007e-05
9.46678e-05
-0.000150356
0.000107512
-0.000139156
9.68618e-05
-5.38343e-05
0.000128809
-0.00014266
0.000154718
-0.000163928
0.000234457
-0.000195276
-0.000136431
0.000145902
-1.64456e-06
-2.59939e-05
1.88158e-06
-0.000102582
2.3082e-07
-9.80951e-05
3.45861e-06
-7.80132e-05
1.24811e-05
-8.29363e-05
2.57412e-05
-9.81087e-05
-6.23192e-06
-7.24936e-05
-6.52082e-07
-6.41578e-05
3.11164e-06
-7.38147e-05
1.0579e-05
-6.58556e-05
9.9861e-06
-6.95255e-05
1.4244e-05
-7.04199e-05
1.07102e-05
-7.67028e-05
6.24384e-05
-0.000125942
5.02918e-05
-0.000138333
0.000116998
-0.000121707
6.14995e-05
-9.48577e-05
8.5106e-05
-0.000162763
0.000116972
-8.57003e-05
0.00019579
-0.000221477
0.000140215
-0.000108353
0.000188064
-0.000243125
-0.000135962
0.000187594
2.77945e-06
-2.87733e-05
1.9618e-05
-0.000119421
3.13363e-05
-0.000109813
1.79894e-05
-6.46662e-05
7.53025e-06
-7.24772e-05
-1.34693e-05
-7.71091e-05
-6.21008e-06
-7.97529e-05
2.46776e-06
-7.28356e-05
3.64107e-06
-7.4988e-05
1.0897e-05
-7.31115e-05
1.42102e-05
-7.28387e-05
2.13047e-05
-7.75144e-05
1.94968e-05
-7.48949e-05
3.44347e-05
-0.00014088
3.63616e-05
-0.00014026
7.47019e-05
-0.000160047
6.88451e-05
-8.9001e-05
0.000109223
-0.000203141
0.000139693
-0.00011617
0.000136037
-0.000217822
0.000134542
-0.000106858
0.000169922
-0.000278505
-0.000129117
0.000163076
3.44623e-05
-6.32356e-05
1.32614e-06
-8.62844e-05
-2.55678e-05
-8.29194e-05
-8.60617e-06
-8.16278e-05
-1.68807e-06
-7.93953e-05
1.69427e-06
-8.04915e-05
4.89458e-07
-7.8548e-05
4.161e-06
-7.65071e-05
4.77214e-06
-7.55992e-05
1.05797e-05
-7.89191e-05
1.30615e-05
-7.53204e-05
1.48884e-05
-7.93413e-05
1.9296e-05
-7.93025e-05
2.89797e-05
-0.000150563
3.58319e-05
-0.000147112
6.36245e-05
-0.00018784
5.49969e-05
-8.03733e-05
8.59505e-05
-0.000234094
9.04582e-05
-0.000120677
0.000120684
-0.000248048
0.000181629
-0.000167803
9.48838e-05
-0.00019176
-0.000162629
0.000128397
7.3621e-06
-7.05977e-05
3.88368e-06
-8.2806e-05
4.52808e-06
-8.35638e-05
3.59768e-06
-8.06974e-05
3.02226e-06
-7.88199e-05
1.94457e-06
-7.94138e-05
2.48831e-06
-7.90918e-05
5.36822e-06
-7.9387e-05
7.83837e-06
-7.80693e-05
1.14209e-05
-8.25016e-05
1.28824e-05
-7.67819e-05
1.45429e-05
-8.10018e-05
1.82239e-05
-8.29835e-05
1.93088e-05
-0.000151648
3.55457e-05
-0.000163349
4.12085e-05
-0.000193502
0.000114442
-0.000153607
3.59733e-05
-0.000155626
0.000103318
-0.000188022
0.000114281
-0.000259011
0.000115049
-0.000168571
8.76427e-05
-0.000164354
-0.000148756
7.37693e-05
3.26837e-06
-7.3866e-05
1.13143e-06
-8.06691e-05
-1.33263e-06
-8.10998e-05
-1.02115e-06
-8.10089e-05
2.35607e-07
-8.00766e-05
1.76133e-06
-8.09395e-05
2.73509e-06
-8.00655e-05
4.44929e-06
-8.11012e-05
6.9053e-06
-8.05253e-05
7.41545e-06
-8.30117e-05
1.1931e-05
-8.12975e-05
1.63806e-05
-8.54514e-05
1.41322e-05
-8.07351e-05
2.24572e-05
-0.000159973
2.39327e-05
-0.000164825
1.86555e-05
-0.000188225
4.89008e-05
-0.000183852
4.50786e-05
-0.000151804
0.000105362
-0.000248305
2.07885e-05
-0.000174438
7.26207e-05
-0.000220403
4.37957e-05
-0.000135529
-0.00013028
2.53198e-05
1.66036e-06
-7.55264e-05
1.63541e-06
-8.06441e-05
1.98026e-06
-8.14446e-05
2.15284e-06
-8.11815e-05
2.53796e-06
-8.04617e-05
2.8332e-06
-8.12347e-05
3.9347e-06
-8.1167e-05
5.14135e-06
-8.23079e-05
7.70743e-06
-8.30914e-05
8.97101e-06
-8.42753e-05
1.70974e-05
-8.94239e-05
2.29153e-05
-9.12692e-05
3.79162e-05
-9.5736e-05
-6.21301e-06
-0.000115844
1.26725e-06
-0.000172305
6.56873e-06
-0.000193527
1.90158e-05
-0.000196299
9.48341e-05
-0.000227622
3.65811e-05
-0.000190052
3.55418e-05
-0.000173399
-1.71638e-05
-0.000167697
3.22714e-05
-0.000184964
-0.000114067
1.60583e-05
7.07325e-07
-7.62337e-05
6.1676e-07
-8.05535e-05
2.17162e-07
-8.1045e-05
3.22191e-07
-8.12865e-05
8.30051e-07
-8.09696e-05
1.19065e-06
-8.15953e-05
1.76676e-06
-8.17431e-05
2.50568e-06
-8.30468e-05
3.22555e-06
-8.38113e-05
4.49749e-06
-8.55472e-05
3.7325e-06
-8.86589e-05
5.13766e-06
-9.26743e-05
7.26485e-06
-9.78632e-05
1.56435e-07
-0.000108736
1.43625e-06
-0.000173585
1.15183e-06
-0.000193242
-6.73646e-06
-0.000188411
2.36844e-06
-0.000236727
-5.41299e-07
-0.000187143
-8.02918e-07
-0.000173137
5.43039e-06
-0.00017393
-4.93685e-06
-0.000174597
-9.5125e-05
-2.38789e-05
5.3485e-07
-7.67686e-05
7.01063e-07
-8.07198e-05
5.51321e-07
-8.08953e-05
5.00963e-07
-8.12361e-05
3.42929e-07
-8.08115e-05
2.26194e-07
-8.14786e-05
8.84307e-08
-8.16054e-05
1.87955e-07
-8.31463e-05
4.46648e-07
-8.40699e-05
9.53455e-07
-8.6054e-05
3.02669e-07
-8.80081e-05
6.34862e-07
-9.30065e-05
-1.54568e-06
-9.56827e-05
-1.10755e-05
-9.92056e-05
-1.2805e-05
-0.000171855
-2.52304e-05
-0.000180817
-2.50082e-05
-0.000188633
-3.23917e-05
-0.000229343
-6.58354e-05
-0.000153699
-1.47292e-05
-0.000224243
-1.0526e-06
-0.000187607
-6.79974e-05
-0.000107652
-0.000100163
-6.29593e-05
3.24802e-07
-7.70934e-05
9.79745e-08
-8.04929e-05
-2.30699e-07
-8.05666e-05
-5.01496e-07
-8.09653e-05
-7.70918e-07
-8.05421e-05
-1.00664e-06
-8.12429e-05
-1.17453e-06
-8.14375e-05
-1.56497e-06
-8.27559e-05
-2.46065e-06
-8.31743e-05
-3.53364e-06
-8.4981e-05
-4.96932e-06
-8.65724e-05
-7.42151e-06
-9.05543e-05
-1.12019e-05
-9.19023e-05
-1.67724e-05
-9.3635e-05
-2.50665e-05
-0.000163561
-4.0353e-05
-0.00016553
-4.20385e-05
-0.000186947
-8.1317e-05
-0.000190065
-2.56217e-05
-0.000209394
-0.000114154
-0.000135711
-9.28958e-05
-0.000208865
-9.82701e-05
-0.000102277
-5.55386e-05
-0.000142895
3.59637e-07
-7.7453e-05
-2.48056e-08
-8.01085e-05
-4.82142e-07
-8.01092e-05
-9.20446e-07
-8.0527e-05
-1.21857e-06
-8.0244e-05
-1.58282e-06
-8.08786e-05
-2.17076e-06
-8.08495e-05
-3.15006e-06
-8.17766e-05
-4.69427e-06
-8.16301e-05
-6.40229e-06
-8.3273e-05
-9.35555e-06
-8.36191e-05
-1.35705e-05
-8.63394e-05
-1.9283e-05
-8.61898e-05
-2.60588e-05
-8.68592e-05
-4.01424e-05
-0.000149478
-5.85339e-05
-0.000147139
-8.92071e-05
-0.000156274
-0.000117904
-0.000161368
-0.000157521
-0.000169777
-0.000198925
-9.4307e-05
-0.000233447
-0.000174343
-0.000255465
-8.02596e-05
-0.000126787
-0.000184216
-8.29554e-08
-7.737e-05
-6.01731e-07
-7.95897e-05
-1.12e-06
-7.9591e-05
-1.80656e-06
-7.98405e-05
-2.37287e-06
-7.96777e-05
-3.15299e-06
-8.00985e-05
-4.13502e-06
-7.98675e-05
-5.37094e-06
-8.05406e-05
-6.87688e-06
-8.01241e-05
-9.03595e-06
-8.11139e-05
-1.23623e-05
-8.02928e-05
-1.64437e-05
-8.2258e-05
-2.1582e-05
-8.10515e-05
-2.59789e-05
-8.24622e-05
-3.77558e-05
-0.000137701
-5.38933e-05
-0.000131001
-7.86512e-05
-0.000131516
-9.97355e-05
-0.000140284
-0.000133019
-0.000136493
-0.000135569
-9.17576e-05
-0.000249511
-6.04e-05
-0.000275438
-5.43327e-05
-3.48313e-05
-0.000367394
-1.80222e-07
-7.71898e-05
-5.42494e-07
-7.92274e-05
-9.75766e-07
-7.91577e-05
-1.59002e-06
-7.92262e-05
-2.26963e-06
-7.8998e-05
-3.14731e-06
-7.92208e-05
-4.21536e-06
-7.87994e-05
-5.53418e-06
-7.92218e-05
-7.35431e-06
-7.8304e-05
-1.02594e-05
-7.82089e-05
-1.33569e-05
-7.71953e-05
-1.77139e-05
-7.79009e-05
-2.32802e-05
-7.54852e-05
-2.95857e-05
-7.61567e-05
-4.15723e-05
-0.000125714
-5.7869e-05
-0.000114705
-7.78249e-05
-0.00011156
-0.000110901
-0.000107208
-0.000132344
-0.000115051
-0.000154524
-6.95769e-05