/*--------------------------------*- C++ -*----------------------------------*\
| =========                 |                                                 |
| \\      /  F ield         | foam-extend: Open Source CFD                    |
|  \\    /   O peration     | Version:     4.1                                |
|   \\  /    A nd           | Web:         http://www.foam-extend.org         |
|    \\/     M anipulation  |                                                 |
\*---------------------------------------------------------------------------*/
FoamFile
{
    version     2.0;
    format      ascii;
    class       volScalarField;
    location    "0.6";
    object      alpha1;
}
// * * * * * * * * * * * * * * * * * * * * * * * * * * * * * * * * * * * * * //

dimensions      [0 0 0 0 0 0 0];

internalField   nonuniform List<scalar> 
2268
(
1
1
1
0.999999
0.999999
0.999999
0.999999
1
1
1
1
1
1
1
1
1
1
1
1
1
1
1
0.999988
0.999999
0.999999
0.999999
1
1
1
1
1
1
1
1
1
1
1
1
1
1
1
1
1
1
1
0.999978
1
1
1
1
1
1
1
1
1
1
1
1
1
1
1
1
1
1
1
1
1
1
0.999979
1
1
1
1
1
1
1
1
1
1
1
1
1
1
1
1
1
1
1
1
1
1
0.999987
0.999997
0.999998
0.999995
0.999999
1
1
1
1
1
1
1
1
1
1
1
1
1
1
1
1
1
1
0.999994
0.998755
0.999035
0.998618
0.999516
0.999724
0.999961
0.999999
1
0.999999
1
1
1
1
1
1
1
1
1
1
1
1
1
0.999998
0.950186
0.957438
0.952266
0.97411
0.980275
0.994915
0.999598
0.999505
0.999751
0.99997
1
1
1
1
1
1
1
1
1
1
1
1
0.999999
0.63227
0.664919
0.655711
0.750418
0.784264
0.914453
0.972393
0.987943
0.995431
0.999415
0.999988
1
1
1
1
1
1
1
1
1
1
1
1
0.985995
0.985995
0.977073
0.971065
0.969685
0.986903
0.994457
0.994965
0.994965
0.994977
0.994988
0.994988
0.994988
0.994988
0.994988
0.994406
0.988022
0.985371
0.980401
0.982801
0.892802
0.714293
0.65917
0.674036
0.889465
0.954807
0.989232
0.992884
0.992913
0.992423
0.9914
0.992195
0.994407
0.994966
0.994982
0.994983
0.99498
0.99436
0.976349
0.658391
0.165085
0.165134
0.326468
0.797876
0.763239
0.748662
0.882802
0.75648
0.773741
0.879893
0.82045
0.942555
0.994982
0.994983
0.994982
0.994983
0.994971
0.95937
0.490263
0.165134
0.211123
0.717949
0.976494
0.991975
0.559059
0.272312
0.187984
0.188676
0.309912
0.157532
0.665918
0.99453
0.994982
0.992822
0.988871
0.994971
0.893841
0.210029
0.203516
0.483414
0.827745
0.983504
0.991957
0.901279
0.617786
0.325
0.107493
0.0390033
0.0269216
0.33381
0.968869
0.971098
0.962685
0.96125
0.990995
0.886947
0.165144
0.256856
0.300433
0.781781
0.983958
0.991975
0.988045
0.943767
0.882023
0.785258
0.44384
0.0540518
0.336288
0.890743
0.743727
0.878912
0.937617
0.971488
0.932765
0.164312
0.175301
0.203642
0.711616
0.980653
0.991957
0.975898
0.830947
0.780041
0.72314
0.494415
0.0671721
0.236816
0.744319
0.278288
0.666292
0.943898
0.944512
0.944119
0.201455
0.183808
0.249151
0.740431
0.981028
0.991975
0.958881
0.956498
0.962666
0.962464
0.923707
0.25441
0.202952
0.379455
0.122208
0.400077
0.944026
0.925741
0.125046
0.141985
0.145078
0.202465
0.238592
0.335165
0.568551
0.81212
0.944552
0.983615
0.994007
0.996303
0.996923
0.998629
0.999441
0.999763
0.999946
0.99996
0.999986
0.999997
1
1
0.999999
0.00244747
0.00274491
0.00348759
0.00376155
0.00796354
0.0219122
0.10168
0.28146
0.588536
0.799947
0.894317
0.923889
0.933148
0.952194
0.959626
0.969995
0.989079
0.990822
0.995424
0.998412
0.999877
0.999999
0.999995
5.37391e-05
5.05322e-05
3.95166e-05
5.99483e-05
0.000253619
0.00102601
0.0110689
0.0564377
0.143947
0.265463
0.366351
0.411923
0.427639
0.45627
0.488175
0.571209
0.72148
0.776208
0.838884
0.909356
0.971956
0.995039
0.999093
3.05156e-06
1.62213e-06
5.01919e-07
1.52036e-06
5.09357e-06
9.75945e-05
0.00195293
0.00941463
0.0179359
0.0253106
0.0331526
0.0327725
0.034185
0.0239167
0.0230643
0.0504259
0.0947214
0.14957
0.191131
0.306931
0.459777
0.659723
0.85212
4.70886e-07
7.92451e-08
6.98284e-09
6.58568e-08
2.88026e-07
2.82334e-06
0.000121753
0.000758414
0.000991569
0.000733518
0.00101105
0.000789107
0.000939124
0.000832122
0.0018478
0.00515019
0.00896355
0.00988281
0.00867031
0.0163634
0.0300883
0.0902596
0.168055
8.6205e-08
9.43914e-09
3.85542e-11
1.85155e-09
2.79412e-08
1.2039e-07
1.19511e-06
1.73551e-05
3.42671e-05
3.65544e-05
3.02307e-05
1.7246e-05
2.72179e-05
4.48135e-05
8.97792e-05
0.000349868
0.000679082
0.000735923
0.00120066
0.00203777
0.00267051
0.00443482
0.00171974
1.10116e-08
1.17743e-09
5.45116e-13
1.36863e-11
2.02605e-09
1.50484e-08
2.00596e-08
8.29902e-08
3.93709e-07
1.49674e-06
2.51529e-06
6.13643e-06
2.00241e-05
2.56247e-05
1.35345e-05
2.06697e-05
2.02908e-05
5.35508e-05
0.000174706
0.000261448
0.000206875
5.87407e-05
5.01611e-06
6.23981e-10
6.5286e-11
4.22675e-14
3.51729e-14
6.53595e-11
1.73985e-09
3.17017e-09
1.7948e-09
2.09505e-09
6.23271e-08
2.17775e-06
1.18694e-05
1.98718e-05
8.76385e-06
2.17496e-06
1.80868e-06
1.89602e-06
3.73035e-06
6.17623e-06
6.95943e-06
4.65367e-06
1.59945e-06
2.11643e-07
1.49977e-11
1.44461e-12
1.55033e-15
2.57568e-15
1.18039e-12
1.2504e-10
5.4194e-10
4.79375e-10
1.02812e-09
3.66027e-08
9.4971e-07
6.13437e-06
1.14258e-05
6.3781e-06
7.6294e-07
2.36433e-07
3.34883e-07
9.33486e-07
1.47971e-06
1.38207e-06
7.03765e-07
1.22965e-07
1.41371e-08
4.25247e-13
5.64941e-14
3.37955e-16
1.68915e-15
1.69315e-13
4.07049e-12
4.52714e-11
1.50711e-10
6.55524e-09
8.94798e-08
4.24374e-07
8.27943e-07
1.35361e-06
1.01936e-06
1.86677e-07
5.66417e-08
1.06641e-07
1.81513e-07
1.17266e-07
5.42224e-08
2.07024e-08
4.64215e-09
5.25572e-09
5.15299e-14
9.38621e-15
2.55316e-16
4.41547e-15
2.00946e-13
1.84419e-12
7.71871e-12
5.62657e-11
6.09065e-09
8.12585e-08
1.44168e-07
3.80251e-08
4.42445e-08
3.68108e-08
1.63061e-08
1.16376e-08
2.25053e-08
2.20888e-08
5.0962e-09
2.77494e-09
2.11333e-09
1.15825e-09
1.54484e-09
1.15395e-14
2.737e-15
5.09036e-16
3.23073e-14
3.70377e-13
1.91174e-12
6.46379e-12
6.24491e-11
4.696e-09
2.91394e-08
2.67774e-08
1.36912e-09
6.18318e-10
5.20299e-10
5.17677e-10
9.33055e-10
1.40433e-09
5.14085e-10
8.01317e-11
5.83376e-11
7.46147e-11
5.19121e-11
9.1414e-11
3.01725e-15
8.82687e-16
2.38598e-15
7.7738e-14
3.94111e-13
1.84502e-12
1.25402e-11
1.33366e-10
1.2159e-09
3.30048e-09
1.87045e-09
4.33979e-10
2.9212e-10
2.66793e-10
2.8134e-10
2.22436e-10
1.113e-10
4.09072e-11
1.57385e-11
5.28236e-12
3.90197e-12
4.911e-12
5.57954e-12
8.60361e-16
3.35932e-16
2.04747e-15
7.44378e-14
3.24238e-13
1.18717e-12
1.49085e-11
1.11403e-10
2.34201e-10
2.04006e-10
2.32964e-10
2.67039e-10
2.09394e-10
2.01978e-10
2.81329e-10
2.31465e-10
1.15467e-10
4.6656e-11
1.67919e-11
5.82745e-12
3.90228e-12
9.70535e-12
1.85234e-11
3.63029e-16
1.25857e-16
1.98935e-15
7.19123e-14
1.84918e-13
2.97054e-13
8.69777e-12
5.75897e-11
6.73189e-11
2.16429e-11
5.89401e-11
1.07618e-10
8.36215e-11
1.47465e-10
2.40248e-10
1.95672e-10
8.12348e-11
3.09457e-11
1.26488e-11
5.01911e-12
1.0136e-11
4.74563e-10
2.67957e-09
1.80304e-16
3.52618e-17
6.13787e-16
3.35551e-14
5.91789e-14
2.5662e-14
1.35401e-12
1.13536e-11
1.04355e-11
1.92898e-12
7.57972e-12
1.67838e-11
2.22302e-11
9.77227e-11
1.43023e-10
1.14789e-10
3.18598e-11
1.21324e-11
5.02211e-12
2.64034e-12
6.35813e-12
2.68079e-09
7.15539e-08
8.08537e-17
1.72341e-17
4.54067e-16
1.00006e-14
1.82796e-14
8.29543e-16
3.76659e-14
4.99876e-13
4.37388e-13
5.01251e-14
2.15425e-13
7.72535e-13
1.10975e-11
4.90953e-11
4.6582e-11
4.96848e-11
4.68085e-12
2.06883e-12
1.02109e-12
9.77286e-13
1.24438e-12
5.4872e-10
3.98272e-08
3.27948e-17
2.18467e-17
4.09399e-16
2.31434e-15
3.91851e-15
2.28631e-16
3.77324e-16
2.80026e-15
2.95754e-15
2.49303e-16
1.16162e-15
6.10921e-14
4.48897e-12
2.00565e-11
7.95684e-12
1.09266e-11
3.11599e-13
2.46604e-13
1.78072e-13
1.88874e-13
1.63619e-12
1.09203e-10
4.39323e-09
1.2891e-17
4.90814e-18
6.92278e-17
4.29845e-16
5.80572e-16
1.25824e-16
1.29915e-16
6.25592e-17
4.63897e-17
2.86293e-17
1.98759e-16
7.19701e-15
1.33e-12
5.00096e-12
5.54586e-13
7.60226e-13
2.75981e-14
1.38132e-13
1.44732e-11
1.96421e-10
6.57557e-10
2.97123e-09
3.04817e-08
5.20784e-18
1.10959e-18
1.93289e-17
1.61997e-16
1.81934e-16
3.43152e-17
5.82635e-17
3.84761e-17
3.05852e-17
2.89191e-17
1.55697e-16
1.94765e-15
1.46714e-13
4.90664e-13
1.0372e-14
1.64173e-14
4.56594e-15
2.94445e-14
5.34418e-12
1.20347e-10
2.0627e-09
6.14704e-08
5.65341e-07
2.00658e-18
1.65334e-19
3.7585e-18
5.86014e-17
8.58004e-17
6.61249e-18
2.06068e-17
1.68146e-17
1.59642e-17
1.48358e-17
9.44349e-17
2.53508e-16
3.77678e-15
1.23535e-14
1.08265e-16
3.07808e-16
9.50971e-16
3.42026e-15
4.57126e-13
2.31262e-11
2.88713e-09
4.08113e-07
1.0409e-05
7.17267e-19
2.41843e-20
8.13375e-19
1.67712e-17
3.3151e-17
1.04704e-18
5.33874e-18
5.44634e-18
6.38175e-18
5.03555e-18
4.42358e-17
7.07717e-17
5.4776e-17
7.27348e-17
4.52827e-17
1.12089e-16
3.39861e-16
1.05895e-15
3.8127e-14
1.56733e-12
6.1569e-10
2.21789e-07
1.31178e-05
2.32128e-19
2.96048e-21
1.03683e-19
3.74346e-18
1.00025e-17
4.29865e-19
1.13526e-18
1.3611e-18
2.04274e-18
1.41987e-18
1.7265e-17
2.14554e-17
2.54659e-17
1.72267e-17
2.97759e-17
8.16745e-17
2.00695e-16
6.14447e-16
2.51863e-14
4.93553e-13
1.31488e-11
3.41035e-08
6.44747e-06
6.80318e-20
9.01866e-22
1.43534e-20
6.62053e-19
2.40444e-18
9.77321e-20
1.85105e-19
2.73557e-19
5.24178e-19
3.54982e-19
5.56645e-18
5.8021e-18
1.4069e-17
1.07069e-17
1.56408e-17
4.86457e-17
1.11643e-16
3.15157e-16
1.49901e-14
2.70168e-13
1.40603e-12
7.23918e-10
6.59148e-07
1.76485e-20
1.1306e-22
1.48066e-21
9.54173e-20
4.63324e-19
1.89664e-20
2.6517e-20
3.59682e-20
1.13489e-19
8.13744e-20
1.40455e-18
1.69646e-18
5.70143e-18
5.29265e-18
7.2127e-18
2.36953e-17
5.45417e-17
1.39175e-16
4.39003e-15
1.0282e-13
8.43063e-13
3.34805e-11
7.6148e-09
4.16876e-21
2.24223e-22
2.56586e-22
1.24348e-20
7.66578e-20
4.09609e-21
2.57591e-21
4.19015e-21
2.16432e-20
1.70352e-20
3.17163e-19
4.21904e-19
1.91102e-18
2.18221e-18
2.73672e-18
9.83798e-18
2.28069e-17
5.68565e-17
5.02742e-16
1.50197e-14
2.85158e-13
4.44479e-11
1.32809e-10
7.16126e-22
3.14622e-23
3.45728e-23
1.32455e-21
8.39196e-21
6.80984e-22
2.9944e-22
4.12882e-22
3.69977e-21
3.36778e-21
4.96231e-20
1.03099e-19
4.05332e-19
7.79827e-19
1.00449e-18
2.69954e-18
8.80761e-18
2.2532e-17
5.52149e-17
7.0284e-15
1.30916e-13
3.74471e-11
1.53757e-10
1.14016e-22
3.52247e-24
2.89989e-24
7.96206e-23
7.94241e-22
7.30296e-23
2.29096e-23
4.83964e-23
5.24503e-22
6.01437e-22
6.75794e-21
1.44344e-20
1.02128e-19
2.43344e-19
3.47319e-19
1.69534e-18
8.42199e-17
3.45784e-16
7.5313e-16
8.98242e-15
6.60972e-14
1.20614e-11
9.40739e-11
2.21702e-23
6.21524e-25
2.02426e-25
3.78331e-24
7.84206e-23
6.39065e-24
1.52203e-24
5.12551e-24
6.82011e-23
8.83826e-23
7.40976e-22
1.87446e-21
2.25303e-20
4.24502e-20
1.19418e-18
4.47532e-17
1.00938e-15
2.71369e-14
2.89601e-14
4.39993e-14
1.12601e-13
2.57277e-12
3.93037e-11
3.61146e-24
7.89212e-26
1.23617e-26
1.6265e-25
6.43774e-24
5.13635e-25
9.17607e-26
4.9243e-25
5.21604e-24
1.09062e-23
1.00769e-22
2.09729e-22
2.5043e-21
9.3075e-21
7.9303e-18
7.06175e-16
2.2668e-14
1.99101e-13
1.24029e-12
2.16769e-12
5.87761e-12
5.33324e-09
4.04453e-09
4.98465e-25
6.50042e-27
7.04593e-28
6.4918e-27
3.43309e-25
3.40263e-26
5.51184e-27
3.04308e-26
3.38112e-25
1.29678e-24
6.90176e-24
2.34846e-23
3.41072e-22
9.07714e-22
2.74907e-17
1.67431e-15
2.08929e-13
9.60254e-13
1.6578e-11
2.64188e-11
1.061e-08
4.90553e-08
4.59649e-08
6.01671e-26
8.34683e-28
3.54157e-29
2.35394e-28
1.66971e-26
1.75725e-27
2.66069e-28
1.52905e-27
1.69897e-26
1.27701e-25
4.08062e-25
2.19743e-24
4.0265e-23
1.99805e-22
6.89943e-17
1.70363e-14
2.38777e-12
6.04738e-12
1.70905e-11
4.53335e-11
5.40707e-09
3.22523e-08
9.26949e-08
6.06896e-27
9.99904e-29
2.5736e-30
7.47404e-30
6.22353e-28
7.44964e-29
1.06033e-29
6.0082e-29
6.67336e-28
1.05258e-26
3.57077e-26
2.46994e-25
3.78199e-24
4.6213e-22
7.45539e-17
6.52685e-15
1.07468e-12
4.2378e-12
1.32272e-11
3.01921e-11
6.14036e-10
8.25025e-09
4.72612e-08
4.916e-28
8.51652e-30
1.80996e-31
2.05244e-31
1.93505e-29
2.52525e-30
3.38732e-31
1.96145e-30
2.70957e-29
9.43463e-28
1.02557e-26
1.74176e-25
6.647e-24
3.13181e-21
1.44076e-15
3.75914e-13
5.92155e-09
3.19972e-08
2.50033e-08
1.43974e-08
4.04325e-09
6.61574e-09
9.9914e-09
3.12792e-29
7.95018e-31
1.60783e-32
4.94146e-33
5.16521e-31
7.01573e-32
9.69227e-33
1.35551e-31
6.88637e-30
3.42987e-28
8.64318e-27
1.69338e-25
3.15704e-22
6.97214e-21
2.99482e-11
6.71223e-08
2.00768e-06
2.93664e-06
5.15669e-06
4.21791e-06
2.362e-06
7.13752e-07
8.72863e-08
1.28082e-30
3.03485e-32
6.28047e-34
1.07763e-34
1.18439e-32
1.62149e-33
8.00902e-34
6.41787e-32
4.60038e-30
2.25677e-28
6.49314e-27
1.39214e-25
4.58918e-21
8.79209e-18
1.98887e-08
8.18545e-06
2.81916e-05
1.5443e-05
1.44252e-05
2.94955e-05
8.13408e-05
5.69175e-05
1.65864e-05
4.09339e-32
9.07891e-34
1.8571e-35
2.041e-36
2.29446e-34
3.26858e-35
2.6531e-34
2.86377e-32
2.10585e-30
1.0972e-28
3.37345e-27
4.19389e-25
3.0298e-20
2.84352e-13
1.23241e-06
5.18767e-05
5.23097e-05
1.85518e-05
9.3543e-06
3.66656e-05
0.000145392
0.000168239
9.76452e-05
1.03319e-33
2.11536e-35
4.17415e-37
3.32312e-38
3.76065e-36
9.45837e-37
7.09345e-35
8.13116e-33
5.74004e-31
3.35716e-29
1.13761e-27
9.38446e-24
1.28738e-17
6.93737e-10
1.00241e-05
6.37401e-05
1.35779e-05
6.71048e-07
6.12185e-07
1.77428e-06
1.50566e-05
0.000167732
0.000101386
2.13755e-35
4.02875e-37
7.6282e-39
4.69755e-40
5.28359e-38
6.53249e-38
8.91274e-36
1.10033e-33
7.41614e-32
5.16272e-30
2.1121e-28
2.91455e-22
7.3918e-14
9.40832e-08
1.92809e-05
3.35965e-05
4.11999e-07
2.56383e-08
3.70837e-07
4.26299e-06
1.48811e-05
0.000128816
0.000121324
3.69136e-37
6.31819e-39
1.14482e-40
5.75118e-42
6.50266e-40
4.35537e-39
6.21989e-37
7.79722e-35
5.16994e-33
3.87313e-31
2.16779e-29
7.6545e-21
1.90461e-11
1.17753e-06
1.37194e-05
5.66922e-06
8.84696e-07
2.60536e-08
5.54263e-07
7.19749e-06
4.50214e-05
0.00025827
0.00025232
5.43269e-39
8.09156e-41
1.44779e-42
6.26872e-44
7.47785e-42
1.99728e-40
2.80847e-38
3.33411e-36
2.52394e-34
2.24193e-32
2.78819e-30
1.38242e-19
2.60292e-10
4.14714e-07
5.42613e-06
9.95996e-06
2.88777e-06
3.23757e-08
1.88939e-08
1.13392e-06
4.68741e-05
0.000305053
0.000363539
7.24467e-41
8.84696e-43
1.51359e-44
6.4257e-46
9.6122e-44
6.17114e-42
9.91856e-40
8.89855e-38
9.78394e-36
8.98655e-34
1.56637e-31
1.32498e-18
1.53243e-11
1.09746e-07
7.26833e-06
1.37771e-05
3.44433e-06
3.36751e-08
3.47213e-11
2.27382e-08
5.32409e-06
0.000162002
0.000363539
0.999954
0.992817
0.920506
0.807298
0.999923
0.994443
0.944809
0.825777
0.999686
0.999515
0.989713
0.922107
0.954943
0.972254
0.983602
0.967109
0.322035
0.436837
0.569548
0.621571
0.00251178
0.00651767
0.0306655
0.0620712
7.92233e-06
7.89085e-05
0.000346225
0.000876535
1.94275e-08
3.59561e-08
1.02428e-07
2.24471e-07
1.00483e-08
1.00515e-08
2.56293e-08
5.45022e-08
1.24038e-08
1.23053e-08
6.20107e-09
3.08932e-09
7.91075e-10
1.23315e-10
1.02793e-11
6.45651e-15
2.65172e-11
4.39426e-12
3.02142e-13
6.45651e-15
1.72227e-12
1.9451e-13
1.1263e-14
6.45651e-15
1.13459e-11
1.07361e-12
8.85723e-15
6.45651e-15
2.43152e-09
2.10884e-10
3.14298e-13
6.45657e-15
2.00642e-07
7.60639e-08
2.73756e-10
6.45653e-15
3.40791e-07
5.43907e-07
2.24921e-07
8.07883e-07
5.47983e-08
1.90412e-07
4.03692e-07
4.65952e-07
1.38001e-07
2.24333e-07
2.21716e-07
2.21626e-07
2.30476e-06
5.33459e-05
0.000865295
0.00451164
5.27656e-05
0.000326944
0.00160018
0.00393235
0.000116302
0.000694051
0.00211224
0.00351894
7.56932e-05
0.000470994
0.00117018
0.00157639
1.37061e-05
0.000101606
0.000157686
0.000277336
3.71017e-07
4.23791e-06
3.86509e-06
1.14046e-05
7.06697e-10
2.00507e-08
1.28731e-08
5.82736e-08
2.69103e-10
3.32712e-10
6.33816e-10
6.40277e-10
1.9364e-10
2.84433e-10
4.7556e-10
4.32031e-10
9.20966e-11
1.87812e-10
2.67284e-10
2.7249e-10
1.97587e-09
9.94227e-10
4.91582e-10
2.75729e-10
3.48566e-08
2.09839e-08
2.19318e-08
2.00084e-08
1.26104e-07
2.93947e-07
6.82233e-07
6.61473e-07
9.27282e-08
1.91424e-07
3.72934e-07
9.37407e-07
2.69464e-08
6.85662e-08
1.25073e-07
5.04239e-07
4.08062e-08
4.46271e-08
4.80051e-08
6.27528e-08
1.19996e-06
7.39293e-08
5.09444e-08
5.29339e-08
2.7688e-05
6.1142e-06
4.67775e-07
1.91669e-07
3.94324e-05
1.032e-05
9.8851e-07
7.49173e-08
5.73566e-05
1.46765e-05
1.23621e-06
7.49102e-08
0.000103064
2.01643e-05
2.36945e-06
3.82937e-07
0.00027296
9.13806e-05
3.29022e-05
2.35227e-05
0.000363539
0.00028098
0.000162562
0.000244
0.681715
0.524271
0.369381
0.586823
0.898132
0.985848
0.985292
0.987154
0.987545
0.967181
0.838833
0.882703
0.839972
0.461183
0.107633
0.102734
0.24685
0.930147
0.921137
0.611735
0.621832
0.824236
0.931546
0.929443
0.863549
0.766474
0.829117
0.876535
0.670354
0.244369
0.130997
0.309704
0.452445
0.182916
0.102632
0.295346
0.611518
0.91221
0.772323
0.891465
0.892512
0.531133
0.446732
0.28414
0.16095
0.280258
0.313045
0.259011
0.138632
0.12857
0.123645
0.342808
0.330751
0.102734
0.29392
0.177073
0.750903
0.941814
0.910755
0.669045
0.143311
0.0341527
0.0196918
0.0118817
0.0196654
0.0777219
0.324406
0.607133
0.544998
0.153762
0.126303
0.175005
0.158171
0.122766
0.126012
0.67836
0.782351
0.524769
0.0611117
0.00162661
0.00383327
0.0049421
0.00492531
0.0205987
0.199483
0.655325
0.654959
0.416192
0.11444
0.0375668
0.10614
0.160035
0.0995905
0.141277
0.707822
0.162656
0.0448689
0.000235414
0.000645955
0.000978028
0.00101586
0.00710277
0.0580036
0.168737
0.242643
0.357601
0.0384211
0.0140738
0.0157542
0.0579815
0.150795
0.310917
0.46084
0.352037
0.00156519
0.000373498
3.64558e-05
6.77588e-05
0.000162934
0.00335446
0.0264524
0.0551057
0.0088013
0.00466562
0.0098264
0.00723396
0.00725686
0.00801426
0.0612096
0.296868
0.689991
0.689623
0.01418
6.71155e-07
1.86143e-06
3.51503e-06
4.53904e-06
0.000158792
0.00543782
0.0283674
0.0312653
0.00138611
0.000608176
0.00105924
0.00406077
0.0119463
0.0545768
0.266049
0.62574
0.630526
0.650887
0.0068844
9.89436e-08
1.30206e-07
1.38185e-07
4.84452e-06
0.000539879
0.00867492
0.0254098
0.0102691
0.00115543
0.000609151
0.00107512
0.0195412
0.131546
0.365339
0.422194
0.354475
0.0863654
0.17225
0.00670487
1.97038e-08
7.71949e-08
1.64319e-07
1.06321e-06
0.000121232
0.00297471
0.0223338
0.0509344
0.0101803
0.000608176
0.00277826
0.0345401
0.149229
0.33904
0.200059
0.0399499
0.00493592
0.00851558
0.00541611
8.33008e-08
1.42635e-06
6.08972e-06
1.64691e-05
9.77143e-05
0.000389394
0.0237813
0.0949177
0.0300925
0.000609151
0.00564875
0.0874005
0.270987
0.215633
0.00771364
0.00483799
0.00483705
0.00531607
0.0507821
1.25154e-08
2.66687e-06
0.000136028
0.00229197
0.012943
0.0292264
0.0812344
0.0959085
0.0413202
0.000703053
0.0127239
0.155109
0.378247
0.221659
0.00509626
0.00483705
0.00483883
0.0137424
0.334866
3.18674e-07
8.81548e-05
0.00340111
0.0293782
0.0877668
0.110112
0.109612
0.0732393
0.00967905
0.000751776
0.00674488
0.117756
0.379057
0.27844
0.0195475
0.00483883
0.0048371
0.0129278
0.489184
4.72957e-05
0.0030058
0.0277986
0.0715981
0.0806193
0.0581149
0.0233339
0.016337
0.00274492
0.00115285
0.0163125
0.194738
0.378247
0.278623
0.0477971
0.0353244
0.00509263
0.0263059
0.489184
0.00416743
0.0281246
0.0421447
0.0290647
0.0033416
0.00177697
0.00177743
0.00177697
0.00207859
0.00899738
0.0895955
0.253375
0.236088
0.0898156
0.107523
0.150588
0.0534854
0.183464
0.489184
0.00130867
0.00657242
0.0125942
0.0138317
0.00322889
0.00177743
0.00277747
0.00793765
0.0247364
0.0888313
0.163117
0.138208
0.0434341
0.0882878
0.207883
0.210219
0.215854
0.32296
0.179195
6.80782e-05
0.000218913
0.00155992
0.00957243
0.0216488
0.0398099
0.0647644
0.0999121
0.142052
0.14243
0.111215
0.0467446
0.0422634
0.125713
0.196178
0.0847049
0.219858
0.15986
0.00513778
2.40111e-05
0.00020583
0.00694885
0.0561189
0.156177
0.171858
0.172183
0.147212
0.0392485
0.0272348
0.0274628
0.0274692
0.037905
0.0096065
0.0389038
0.00283318
0.059424
0.00548316
0.00020405
0.015698
0.0684349
0.0968528
0.0961734
0.0748736
0.0659234
0.0904622
0.107902
0.0964083
0.0672836
0.0359614
0.0205487
0.00731289
0.000460345
0.0017019
0.000497933
0.00131689
9.70121e-05
8.4566e-05
0.0108937
0.0089837
0.000759434
0.000547181
0.00257953
0.0173752
0.0860749
0.150213
0.150213
0.150213
0.0855488
0.014861
0.00101207
0.000448239
0.000644701
0.000499077
0.000362396
8.4566e-05
8.4566e-05
0.00512085
0.000562334
1.41445e-05
1.41646e-05
0.000511106
0.0112662
0.0617844
0.132262
0.0968183
0.0330255
0.0306724
0.00135262
0.00047534
0.00075171
0.000561038
0.00163334
0.000486909
8.6724e-05
8.4566e-05
0.000970068
6.69962e-05
1.39936e-05
2.23461e-05
0.0025907
0.0219187
0.0324122
0.0138108
0.00507357
0.000557862
0.000379388
0.00012444
0.000307198
0.00135753
0.000470503
0.00166067
0.00115084
9.93905e-05
0.000782567
0.000458673
0.000114827
1.45438e-05
1.38148e-05
0.00420378
0.0172127
0.00407528
0.000315149
8.65177e-05
3.96547e-05
2.46517e-05
0.000121126
0.00102269
0.00136624
8.78986e-05
0.00116104
0.000544209
8.5178e-05
0.0171934
0.000116105
1.80728e-05
1.68287e-06
8.63931e-07
0.00408797
0.00781096
0.00156295
6.51843e-05
2.17191e-05
2.172e-05
2.24104e-05
0.000352579
0.00123191
0.000685914
6.54153e-05
6.97388e-05
2.30978e-05
5.07517e-05
0.0908978
6.55132e-06
8.21652e-07
3.5833e-07
4.67694e-07
0.00107532
0.00260004
0.00144332
0.00064799
0.000132677
2.17191e-05
5.60077e-05
0.000769799
0.00108339
4.48192e-05
5.6454e-05
1.68533e-06
2.02731e-06
0.000185862
0.14421
4.18205e-08
2.09644e-07
4.27865e-07
3.47582e-06
9.74245e-05
0.000558996
0.0020093
0.00451394
0.000349583
2.172e-05
0.00015483
0.000854663
0.000140078
5.17602e-06
7.06174e-06
4.78232e-07
8.4448e-06
0.00155953
0.14421
2.24189e-09
3.71143e-07
8.12038e-06
1.64507e-05
2.84822e-05
0.000126032
0.00275836
0.0107551
0.000383008
3.11611e-05
0.000511845
0.000822559
6.88288e-06
5.60458e-07
2.6381e-07
4.13541e-07
8.43932e-05
0.00389855
0.0672167
6.7039e-09
5.89437e-07
1.53127e-05
0.000147828
7.90163e-05
7.94936e-05
0.00169668
0.0111393
0.000635237
0.000197284
0.00159582
0.000246546
1.6469e-06
3.61863e-08
6.13715e-09
1.83431e-07
0.000195084
0.00437427
0.00333306
4.99762e-09
4.06117e-07
2.64055e-05
0.000153324
8.44001e-05
9.57978e-05
0.000781399
0.0110169
0.00365979
0.00103855
0.00197163
8.6318e-05
1.26153e-06
5.13434e-09
1.69802e-10
7.0042e-09
0.000156921
0.00129391
0.000157459
2.19281e-09
2.03231e-07
1.06218e-05
5.90168e-05
0.000131039
0.000152206
0.000400085
0.00553448
0.00597971
0.00334373
0.0017943
7.60057e-05
1.24928e-06
3.64709e-09
1.6031e-11
3.79624e-11
1.64613e-05
8.51164e-05
4.58108e-05
7.61263e-09
3.9843e-08
1.52814e-06
1.67938e-05
8.13793e-05
0.000120796
0.000242958
0.00276208
0.0059525
0.00521583
0.00129969
0.000146787
5.72557e-06
1.79374e-08
9.81803e-12
3.13387e-12
1.75898e-08
1.26928e-05
7.02351e-05
3.01303e-07
5.93152e-08
1.03198e-07
2.44235e-06
2.1023e-05
5.85802e-05
0.000134959
0.000422208
0.00415817
0.00515034
0.00233388
0.000497369
2.79937e-05
1.44666e-07
4.05101e-11
8.86181e-13
6.83104e-10
1.06661e-05
0.00116803
1.71154e-06
7.61548e-07
2.30124e-07
3.39167e-07
3.98735e-06
2.73241e-05
4.86411e-05
0.000114163
0.00158456
0.00474284
0.00298079
0.000876781
5.44866e-05
3.77814e-07
1.64552e-10
9.04983e-13
9.60286e-09
1.46953e-05
0.00886112
1.97724e-05
1.199e-05
4.44282e-06
8.99265e-07
9.11734e-07
5.94985e-06
9.45404e-06
2.56178e-05
0.000264238
0.00401381
0.0032888
0.000931225
5.59227e-05
4.1472e-07
2.12644e-10
1.36217e-12
3.87057e-07
2.72204e-05
0.0471625
1.40684e-05
8.13368e-05
4.05993e-05
7.00781e-06
1.38861e-06
1.45015e-06
6.41304e-06
6.10719e-05
0.000728273
0.00409201
0.00276058
0.000446424
1.4091e-05
7.01196e-08
3.66917e-11
3.89737e-12
4.52587e-06
0.000185296
0.143685
2.20244e-05
8.73922e-05
8.88618e-05
1.90683e-05
1.40873e-05
7.429e-06
1.31602e-05
0.000107935
0.00309526
0.00299855
0.00096371
7.36318e-05
7.2164e-07
6.31222e-10
3.52913e-14
5.63402e-15
2.21971e-05
0.00108278
0.186722
8.56587e-06
7.72847e-05
4.99489e-05
2.78477e-05
0.000114681
6.57093e-05
7.35468e-05
0.000426953
0.00334909
0.00296931
0.000617275
3.03559e-05
3.12878e-07
3.80866e-10
2.93106e-14
2.01946e-15
6.25306e-05
0.00251649
0.165066
1.97659e-06
2.26524e-05
2.17177e-05
5.75166e-05
0.000548914
0.00040722
0.000156842
0.000448107
0.00335028
0.00232133
0.000545514
3.61206e-05
4.57144e-07
6.1527e-10
3.49757e-14
3.76172e-16
0.000118867
0.00575536
0.109267
1.64707e-07
3.21916e-06
3.98873e-05
0.000429018
0.000675278
0.000417197
0.000306153
0.000729894
0.00177848
0.000753059
9.32649e-05
1.44971e-06
2.37459e-09
2.04307e-13
6.67475e-17
5.36683e-17
0.000134619
0.00306365
0.0122756
5.13661e-07
4.96909e-06
0.000170562
0.000675278
0.000671234
0.000230878
0.000368234
0.000957335
0.000806636
0.000218104
1.22193e-05
1.03933e-07
5.81222e-11
5.1595e-16
8.95596e-18
2.59607e-18
4.34402e-12
1.72041e-06
0.000471641
3.66435e-05
5.16533e-05
0.000171911
0.000422159
0.000375873
0.000208331
0.000618388
0.000791514
0.000139503
2.54319e-06
2.80929e-09
1.03903e-13
5.21842e-18
9.54573e-19
8.95957e-19
7.71944e-20
9.12014e-20
8.37573e-17
8.04082e-05
0.000284781
0.000126087
4.37038e-05
7.26723e-05
9.78964e-05
0.000329033
0.000291555
0.000130608
8.51776e-08
5.74246e-13
2.0394e-19
2.25741e-23
9.49719e-23
5.67211e-23
2.50921e-23
8.13679e-24
8.04091e-24
1.49617e-21
2.6376e-05
)
;

boundaryField
{
    leftWall
    {
        type            zeroGradient;
    }
    rightWall
    {
        type            zeroGradient;
    }
    lowerWall
    {
        type            zeroGradient;
    }
    atmosphere
    {
        type            inletOutlet;
        inletValue      uniform 0;
        value           nonuniform List<scalar> 
46
(
7.24467e-41
8.84696e-43
1.51359e-44
6.4257e-46
9.6122e-44
6.17114e-42
9.91856e-40
8.89855e-38
9.78394e-36
8.98655e-34
1.56637e-31
1.32498e-18
1.53243e-11
1.09746e-07
7.26833e-06
0
0
0
0
0
0
0
0.000363539
0.000363539
0.00028098
0.000162562
0.000244
0.000284781
0.000126087
4.37038e-05
7.26723e-05
9.78964e-05
0.000329033
0.000291555
0.000130608
0
0
0
0
0
0
0
0
0
0
0
)
;
    }
    defaultFaces
    {
        type            empty;
    }
}


// ************************************************************************* //
