/*--------------------------------*- C++ -*----------------------------------*\
| =========                 |                                                 |
| \\      /  F ield         | foam-extend: Open Source CFD                    |
|  \\    /   O peration     | Version:     4.1                                |
|   \\  /    A nd           | Web:         http://www.foam-extend.org         |
|    \\/     M anipulation  |                                                 |
\*---------------------------------------------------------------------------*/
FoamFile
{
    version     2.0;
    format      ascii;
    class       volScalarField;
    location    "0.6";
    object      pd;
}
// * * * * * * * * * * * * * * * * * * * * * * * * * * * * * * * * * * * * * //

dimensions      [1 -1 -2 0 0 0 0];

internalField   nonuniform List<scalar> 
2268
(
483.556
488.9
494.747
510.51
530.32
557.012
597.134
631.063
671.155
695.645
726.337
736.187
753.453
766.229
779.428
791.317
802.837
812.539
821.446
830.613
837.554
844.262
846.788
482.997
488.315
494.013
509.75
529.392
556.368
596.849
631.645
672.41
696.373
725.288
735.992
752.641
765.683
779.411
791.5
803.731
813.233
821.594
830.74
837.838
844.614
847.186
481.878
487.148
492.424
508.368
527.211
554.968
595.248
631.775
671.551
698.458
722.434
738.16
754.684
767.721
781.209
791.747
804.341
813.471
821.718
831.279
838.379
845.034
848.131
480.287
485.521
490.159
506.221
524.43
553.023
594.764
634.057
675.07
696.946
721.102
738.93
753.445
767.004
780.741
792.224
804.533
814.336
824.663
832.081
838.841
846.413
848.945
478.064
483.316
486.829
503.506
519.758
549.867
590.384
633.782
673.462
700.444
722.73
739.552
754.872
768.351
781.281
792.743
806.909
816.158
823.635
833.935
841.69
847.709
850.762
475.145
480.315
482.577
499.41
515.146
544.823
590.948
639.422
671.17
699.199
722.798
739.981
755.34
769.415
783.921
793.357
805.287
816.523
827.486
836.525
843.003
850.901
854.589
454.697
462.248
461.923
485.856
501.34
537.147
579.893
638.365
672.204
700.718
725.232
743.172
758.184
770.768
784.082
790.979
811.102
818.919
832.097
839.329
848.305
852.356
854.321
320.422
338.279
334.912
388.351
412.9
495.875
576.238
626.489
673.459
701.958
726.99
744.412
758.127
770.437
787.495
789.699
818.489
816.39
835.872
838.471
852.003
857.952
867.082
2212.58
944.038
238.102
220.871
589.956
1088.53
1307.79
1261.27
1159.66
952.097
865.666
1001.78
1037.18
1109.45
1020.55
1129.59
1427.08
1516.88
1478.23
1878.48
664.704
142.389
119.8
486.896
1118.18
1351.39
1287.49
1165.99
979.326
820.677
1017.4
1076.59
915.193
1042.86
1135.06
1383.91
1534.83
1476.12
1191.47
384.987
-11.5291
1.74618
405.392
1089.12
1337.36
1251.29
1181
939.297
694.281
999.15
962.816
827.05
1025.39
1085.9
1402.38
1490.47
1476.03
914.155
112.326
-89.5928
41.8764
459.572
1035.33
1290.26
1200.59
977.55
799.597
690.712
812.261
777.632
815.365
979.889
1135.07
1370.14
1467.54
1493.89
726.067
-11.9696
-53.1833
119.328
492.48
982.389
1187.73
1273.2
1029.16
824.396
679.971
751.014
757.879
820.994
1025.95
1038.34
1273.2
1453.18
1452.83
622.804
-17.4378
9.49369
56.9781
470.49
938.669
1131.76
1216.57
1089.17
992.071
892.899
876.583
767.232
876.269
925.684
835.355
1141.81
1366.51
1424.66
542.658
-10.6934
12.5533
50.5324
387.533
728.277
1059.07
1146.25
1053.39
967.432
961.529
932.27
737.213
776.908
776.282
591.114
883.571
1263.76
1395.28
431.188
24.006
56.163
101.819
463.455
779.415
1008.18
1069.18
1000.56
1040.06
962.123
1011.56
781.524
717.976
584.666
428.586
661.372
1155.8
1361.96
79.5726
89.7491
91.656
125.984
148.248
211.518
364.19
536.665
648.561
706.298
731.6
749.425
763.622
772.179
791.842
779.157
826.648
822.342
848.555
848.581
860.581
855.04
849.517
6.5066
6.73428
7.21067
7.58171
10.5795
21.5311
80.0056
214.127
441.021
602.662
684.457
715.181
730.378
752.806
757.248
778.596
816.909
815.872
843.467
856.622
877.162
869.36
909.242
4.77289
4.8065
4.76375
4.86243
5.04953
5.50571
13.6253
55.6668
128.175
232.195
317.737
356.858
371.21
394.851
422.217
494.937
626.525
681.144
740.084
809.16
871.76
911.717
943.628
4.69341
4.729
4.6561
4.77344
4.7137
4.76304
6.47445
13.4539
22.714
28.2749
36.9304
36.4164
38.4724
28.9915
27.6226
54.4348
96.8478
153.813
192.867
306.733
455.889
652.561
854.033
4.6512
4.66073
4.64585
4.71676
4.65486
4.65442
4.5934
5.19812
5.41548
5.14906
5.79208
5.62863
5.68876
6.14876
7.16464
10.104
15.6739
16.9465
15.8656
24.6177
36.6756
106.658
191.155
4.57642
4.57602
4.57469
4.56532
4.55642
4.5773
4.55028
4.4801
4.57286
4.67706
4.74259
4.85502
4.97598
5.12661
5.06321
5.76607
6.30436
6.77868
7.02504
8.46151
9.41286
12.1182
9.08092
4.49803
4.47314
4.50736
4.51837
4.52884
4.52237
4.49591
4.49604
4.52248
4.64959
4.71067
4.78979
4.93238
4.92244
5.27105
5.35607
5.57184
5.85514
6.0794
6.37588
6.58809
6.84228
6.68736
4.42926
4.44004
4.44009
4.44891
4.44989
4.47085
4.47175
4.46904
4.55573
4.67621
4.76487
4.73461
5.01056
5.02467
5.20369
5.29143
5.50959
5.68295
5.87589
6.02949
6.30406
6.65244
6.80935
4.35093
4.35368
4.36128
4.37485
4.38823
4.41553
4.42503
4.42225
4.52437
4.58385
4.68
4.75149
4.78104
4.94287
5.21305
5.3109
5.3774
5.6394
5.94144
5.69654
6.03946
6.79518
6.92996
4.27457
4.27805
4.28769
4.30163
4.31289
4.32668
4.37638
4.3849
4.43213
4.52597
4.65732
4.67527
4.87808
4.86811
5.01929
5.28544
5.21689
5.6516
5.74799
5.92487
6.15674
6.55726
6.86919
4.19568
4.19545
4.2212
4.25705
4.24328
4.26846
4.29399
4.35554
4.38279
4.4301
4.45795
4.63866
4.704
4.84563
4.87499
5.16762
5.19982
5.30177
5.48791
5.73585
6.22608
6.39622
6.74215
4.11315
4.1135
4.12702
4.14015
4.15718
4.18119
4.21303
4.21555
4.33447
4.39789
4.41171
4.50876
4.68038
4.73254
4.8929
5.01309
5.15378
5.34879
5.42383
5.63411
5.67665
6.14962
6.59106
4.0283
4.0327
4.04572
4.05015
4.07911
4.09906
4.1353
4.17619
4.25389
4.29806
4.37334
4.47101
4.42444
4.68671
4.6846
4.93906
5.00162
5.04909
5.11393
5.51787
5.54303
6.02578
6.32205
3.93586
3.94009
3.94988
3.95802
3.98383
3.99683
4.02041
4.0284
4.00123
4.06268
4.24141
4.29056
4.37218
4.43531
4.41777
4.53362
4.74644
4.89449
5.11227
5.16985
5.34185
5.69248
6.07695
3.83586
3.83211
3.86676
3.79437
3.93676
3.91667
3.90872
3.98507
4.01475
4.01076
4.03288
4.1144
4.2769
4.26077
4.31688
4.55592
4.59124
4.71354
4.76052
5.0175
5.227
5.16656
5.49055
3.73359
3.74735
3.7887
3.76866
3.69129
3.77285
3.87677
3.85151
3.88386
3.92194
4.00795
4.04737
4.10828
4.15619
4.22727
4.29445
4.33019
4.53057
4.40064
4.6983
4.76627
4.7005
4.85278
3.61185
3.61273
3.61485
3.64864
3.74602
3.68037
3.60641
3.67015
3.74253
3.73494
3.86683
3.68712
3.79749
3.84873
3.93978
3.88471
3.98887
3.93733
4.19892
4.01463
4.29006
4.44706
4.53684
3.4859
3.4873
3.44681
3.57268
3.52282
3.5593
3.66999
3.59118
3.59145
3.59109
3.6181
3.6946
3.73197
3.69127
3.58417
3.73259
3.69861
3.72677
3.7485
3.69979
3.70324
3.96107
4.02976
3.36341
3.34445
3.37099
3.26439
3.28111
3.47121
3.37721
3.43203
3.43473
3.42533
3.34807
3.61823
3.37248
3.55582
3.61232
3.70312
3.69506
3.71884
3.65813
3.67383
3.40476
2.98351
3.04631
3.27973
3.29776
3.29365
3.3108
3.30262
3.264
3.20387
3.28851
3.33686
3.38361
3.39305
3.36607
3.39622
3.44875
3.36882
3.3601
3.37841
3.42244
3.2995
3.35591
2.93712
2.55369
2.46371
3.18338
3.18612
3.17454
3.1827
3.17412
3.20089
3.22501
3.21695
3.21621
3.23455
3.23231
3.19766
3.26042
3.30167
3.25362
3.18755
3.18972
3.01929
2.99948
3.0277
2.95479
2.20969
1.72116
3.08186
3.07407
3.09194
3.08139
3.0795
3.06729
3.07723
3.09555
3.08586
3.07498
3.06238
3.03175
3.05096
2.77603
3.07604
3.00765
2.93376
2.82459
2.71695
2.72829
2.56209
1.87679
0.414458
2.97365
2.96649
2.97167
2.95914
2.96236
2.87811
2.95694
2.97016
2.96146
2.94352
2.94739
2.88259
2.91065
2.87398
2.63324
2.73806
2.70117
2.62286
2.38836
2.05699
1.50785
0.703969
0.182314
2.85495
2.83647
2.84519
2.84943
2.86874
2.8849
2.86594
2.92834
2.82487
2.8073
2.80073
2.63604
2.77671
2.74019
2.71621
2.64074
2.50649
2.40173
2.1928
2.13429
1.60946
1.09525
0.104128
2.74379
2.74023
2.73019
2.73625
2.7425
2.71218
2.79215
2.66749
2.66273
2.65136
2.70087
2.67975
2.63487
2.5921
2.50595
2.46165
2.32244
2.14065
1.80029
1.38221
0.935015
0.669022
-0.155043
2.70434
2.59301
2.61368
2.62461
2.68967
2.63069
2.50524
2.54352
2.56116
2.50864
2.63593
2.51983
2.55941
2.40531
2.38737
2.3782
2.09833
1.98977
1.64899
1.00753
0.617774
0.491668
-0.428798
2.39568
2.50479
2.46005
2.52137
2.40762
2.34905
2.5236
2.30385
2.42749
2.3291
2.26156
2.36141
2.08872
2.22151
2.18191
1.97883
1.88402
1.5168
1.11899
0.876695
0.838615
0.30165
-0.855367
2.19086
2.376
2.30349
2.28973
2.22571
2.40543
2.27829
2.30384
2.30285
2.19264
2.15106
2.1359
2.06866
2.07934
1.64427
1.70258
1.51254
1.49151
1.11727
1.09909
0.674569
0.065624
-0.309181
2.23563
2.1631
2.20054
2.18925
2.21349
2.15103
2.15507
2.14149
2.17396
2.04835
1.91131
1.97897
1.90828
1.7107
1.73296
1.55447
1.31732
1.27833
1.09417
0.89057
0.352609
0.36717
-0.0730224
2.04801
2.04167
2.06252
2.0364
2.09999
2.05478
2.04159
2.05427
1.90735
1.9357
1.88145
1.71472
1.68003
1.71523
1.48494
1.42564
1.54033
1.12912
1.05436
0.893849
0.655713
0.59948
-0.0533188
1.91964
1.88964
1.99029
1.87384
1.85319
1.84492
1.81545
1.77341
1.76278
1.73461
1.69801
1.73781
1.65358
1.5866
1.55423
1.50056
1.28549
0.833701
0.997923
0.935302
0.427488
0.00673939
-0.386522
1.74566
1.72438
1.7219
1.70844
1.69935
1.69913
1.67377
1.66295
1.62002
1.61676
1.49864
1.65946
1.47609
1.39809
1.40905
1.28025
1.0395
0.867758
0.810059
0.735772
0.515034
-0.0572979
-0.292826
1.6152
1.58935
1.5826
1.56344
1.55826
1.53833
1.51974
1.50939
1.48229
1.48448
1.42226
1.40615
1.3858
1.41829
1.34934
1.19712
1.03222
0.870133
0.828669
0.647833
0.354056
0.0845404
-0.00497865
1.44046
1.41855
1.4149
1.39927
1.38909
1.37866
1.36319
1.35616
1.33247
1.33249
1.27927
1.2728
1.23284
1.21081
1.12063
1.14635
0.950015
0.823026
0.333212
0.677785
0.323918
0.169221
-0.147009
1.37046
1.28118
1.2685
1.24336
1.23229
1.22247
1.21198
1.21522
1.1986
1.25452
1.13592
1.13608
1.09694
1.08757
1.06782
1.02657
0.902206
0.756988
0.590338
0.535026
0.475211
0.120697
-0.218846
1.06514
1.07752
1.07884
1.07225
1.06616
1.05874
1.04963
1.04451
1.03024
1.01179
0.996818
0.972061
0.956168
0.930756
0.914042
0.962331
1.18907
0.673618
0.514232
-0.0346244
0.738752
0.0827988
-0.304176
0.918849
0.914501
0.910044
0.903078
0.895467
0.88967
0.882499
0.880404
0.879304
0.877427
0.913401
0.78991
0.775395
0.767002
0.715576
1.0008
1.01245
0.570535
0.151659
0.166136
0.932322
0.0252673
-0.597566
0.748092
0.745519
0.742469
0.737715
0.731814
0.727932
0.720527
0.719859
0.712682
0.713577
0.699315
0.67766
0.621981
0.603152
0.662884
0.926532
0.644849
0.368057
0.224405
-0.323202
-0.493764
-0.0459977
-1.24265
0.565966
0.566253
0.563567
0.560489
0.555184
0.551623
0.545337
0.545215
0.544343
0.545812
0.548234
0.580543
0.485618
0.44337
0.499852
0.504819
0.228544
0.0661202
-0.216744
-0.539365
-1.04977
-1.21293
-0.858181
0.413097
0.411049
0.411894
0.411749
0.404599
0.397684
0.386565
0.383134
0.368043
0.379438
0.369809
0.363136
0.360033
0.302457
0.30921
0.183223
0.0191192
-0.116824
-0.314233
-0.499795
-1.04901
-0.706776
-0.137636
0.217131
0.237175
0.231895
0.229445
0.20873
0.214162
0.182785
0.196518
0.165758
0.195465
0.174297
0.161912
0.17474
0.174259
0.0847135
-0.0221439
-0.158455
-0.28378
-0.456694
-0.702218
-1.00056
0.0353676
0.275226
0.0519541
0.0279132
0.0324399
0.0350003
0.0713861
0.0286817
0.0936504
0.0337161
0.0947134
0.056713
0.0724523
0.0778239
0.0549831
0.0644231
-0.00232983
-0.220839
-0.451792
-0.774629
-1.01921
-1.26245
-1.32677
-0.65007
0.458082
841.778
796.26
699.526
570.049
901.973
891.758
834.828
798.735
905.573
932.755
964.172
889.424
980.606
1008.69
1038.72
1048.73
359.244
484.908
628.962
706.598
9.99247
14.7758
43.6662
81.9831
6.50798
6.97418
7.34717
8.08465
6.95609
7.14279
7.368
7.53066
7.22498
7.19339
6.85281
7.19662
7.12162
7.2411
7.33479
7.52761
6.88342
7.00779
7.30489
7.62074
6.65945
6.7737
6.95676
7.24709
6.17228
6.46115
6.78752
7.06421
6.21044
6.33324
6.4629
6.60031
5.69699
5.9535
6.16316
6.21331
5.03597
5.28029
5.62519
5.73344
4.5743
4.76295
4.79508
4.82078
4.23157
4.32953
4.71594
5.06592
3.25943
3.71707
4.388
4.71809
2.13026
2.35131
4.26691
14.1588
0.908395
0.733072
3.50495
8.50856
-0.228188
0.584444
3.44633
5.34935
-0.933001
-0.66168
0.32484
-1.76333
-1.50909
-2.49094
-3.44013
-4.47387
-1.74878
-2.55846
-3.595
-4.61853
-1.37306
-2.23405
-2.99794
-2.97201
-1.56783
-1.70208
-1.71319
-2.0981
-0.767701
-1.0774
-1.51447
-1.90944
-0.798862
-1.24851
-1.6691
-1.75992
-0.941764
-1.29036
-1.53661
-1.61169
-0.500108
-0.849839
-1.17609
-1.43621
-0.593146
-0.739099
-0.842123
-0.759675
-0.558011
-0.600952
-0.781289
-1.14299
-0.588524
-0.743949
-0.899132
-1.26382
-0.32577
-0.471252
-0.821814
-0.995647
-0.402867
-0.569736
-0.828798
-1.01194
-0.723984
-1.00043
-1.19214
-1.0418
-1.27264
-0.875639
-0.67893
-0.614717
-0.872764
-0.746641
-0.760479
-0.697576
-0.972027
-1.23629
-1.23096
-1.15626
-0.205249
-0.975783
-1.23419
-1.19683
0.370448
-0.0323955
-0.577249
0.0409797
311.635
121.86
187.846
256.066
534.741
902.88
876.345
1061.05
1117.43
963.408
796.103
836.368
927.779
709.189
445.119
472.66
638.869
1153.87
1328.86
589.659
356.937
582.311
657.898
678.349
692.584
657.749
788.741
837.703
707.556
412.069
320.749
440.673
541.35
477.067
522.303
672.217
911.601
1248.36
815.972
654.176
679.321
435.448
396.804
262.136
169.026
290.654
393.285
393.534
275.33
263.386
229.281
367.138
545.734
486.834
710.292
568.403
1099.71
1079.12
928.923
633.866
151.872
51.0378
41.2262
43.6112
60.8854
136.183
304.727
580.502
542.739
168.979
133.32
294.686
457.66
552.657
465.542
1010.9
930.389
586.331
78.0661
15.7797
19.7319
24.0136
31.4508
50.445
230.675
618.391
764.207
417.466
79.384
18.1865
140.307
368.543
508.313
451.474
1008.58
201.4
64.8032
12.5652
13.7148
15.2601
17.8929
27.0594
80.2828
219.98
298.558
434.744
10.1133
-12.9681
14.6473
77.5042
298.65
681.994
891.435
530.441
9.50271
9.9209
11.5604
12.102
12.8931
19.1977
49.3426
89.7222
22.3441
5.34951
7.0905
0.96301
-3.57245
9.6701
125.047
573.344
1071.95
966.089
124.255
7.31478
8.886
10.5039
11.2575
11.7293
19.8009
59.2719
54.8982
9.58891
5.66918
3.77648
5.97039
19.4302
92.6456
505.326
1206.79
1045.69
1024.6
122.242
8.28653
8.8126
9.60761
10.5108
11.212
23.7966
57.9677
24.1467
8.78884
6.86486
5.97103
32.7732
203.309
604.271
826.338
687.69
237.224
371.599
119.691
8.00291
8.80607
9.44458
9.77708
9.99637
14.2584
46.3696
93.1922
26.4964
6.50975
8.8179
61.764
240.657
607.371
428.631
164.958
105.048
113.203
112.181
7.95727
8.60744
9.40114
9.72134
9.97196
10.2921
51.2052
177.001
60.1648
3.88123
12.438
157.389
497.842
465.698
102.589
100.344
101.218
106.972
190.5
7.77257
8.31773
9.91025
14.3586
34.2473
63.5427
161.061
180.57
81.2737
3.73899
25.9288
295.841
809.706
508.525
97.0028
96.2845
96.1602
115.718
745.869
7.42157
8.67283
15.7517
66.9668
184.222
206.21
217.227
159.5
24.0177
5.65922
15.7314
243.7
816.762
602.792
124.089
93.5392
92.0606
103.993
1090.51
6.99238
14.2831
68.6127
145.802
181.672
133.941
55.1307
42.5283
13.3002
8.83549
39.053
419.408
828.041
734.634
192.512
158.904
92.1393
130.935
1110.26
15.7651
71.6035
101.396
64.6435
11.6871
10.2498
10.2951
11.9969
13.5702
29.3617
205.567
577.832
611.436
313.734
331.689
418.875
187.42
471.613
1113.28
8.6867
22.0523
30.4729
35.0811
14.8789
10.9451
14.4496
28.7646
66.9628
220.793
389.301
360.358
144.97
258.778
490.831
534.891
566.195
807.489
431.23
5.06566
5.38889
7.17213
27.0255
58.3785
105.372
171.723
262.963
390.401
368.077
284.695
126.76
111.918
334.496
491.118
212.063
563.247
409.934
12.7597
5.38331
5.42965
22.1946
150.37
418.952
469.536
481.842
412.745
133.271
82.218
71.5418
76.5922
100.315
22.3276
100.753
4.2923
157.018
12.1893
-0.124048
48.733
191.611
268.665
267.664
210.141
195.615
272.112
327.06
291.36
192.711
100.478
56.5488
18.9042
-2.19961
1.82336
-0.440492
1.93915
-1.0777
-0.914938
26.8379
18.5967
-5.62182
-5.44361
1.68688
47.1104
258.368
483.898
473.578
436.431
245.66
41.7907
1.17133
-1.45351
0.680413
-0.391541
0.589951
-1.38446
-0.976482
5.95524
-6.07822
-7.89873
-6.52947
-4.31077
29.306
181.097
400.279
290.003
98.9776
90.8324
2.14644
-0.00268932
0.0295863
0.0955288
2.05084
0.549231
-1.47652
-1.23236
-5.9237
-9.03461
-7.75273
-6.47338
2.10423
61.5591
96.9992
38.7625
11.4587
-1.88787
-2.2806
-1.97658
-0.959314
2.33146
-0.708284
2.7723
1.19298
-1.7725
0.79489
-7.83514
-7.61154
-7.34226
-5.83555
8.22194
51.6794
8.07597
-2.91014
-3.71819
-3.42932
-3.3651
-2.49996
0.952946
2.09976
-2.21058
1.13614
-0.676394
-1.96049
54.7835
-6.80759
-6.71225
-5.86242
-5.19305
9.78111
21.8294
1.17091
-3.57936
-3.72335
-3.62901
-3.22875
-1.79232
1.77811
-0.359838
-2.48226
-2.62229
-2.62425
-2.21839
308.311
-5.32475
-5.17504
-4.55772
-4.40911
0.227284
5.78125
1.40595
-1.1191
-3.05879
-3.52103
-3.34194
-0.3072
0.955751
-2.5709
-2.62635
-2.72334
-1.88015
-1.59545
508.06
-3.35141
-3.43633
-4.20535
-3.62796
-2.93753
-1.15272
4.16514
13.1216
-2.15931
-3.58044
-2.91383
0.27691
-2.38333
-2.65515
-2.47018
-1.9799
-1.91355
3.53637
526.693
-2.84151
-2.99092
-3.45637
-2.82895
-2.81309
-2.27725
7.68141
37.6803
-2.21876
-3.55186
-1.66919
0.0170521
-2.64431
-2.60708
-2.38891
-2.18194
-1.79735
12.7177
255.413
-2.37955
-2.82728
-2.29864
-1.95524
-2.33393
-2.72997
3.87513
39.7315
-0.771822
-2.99667
2.81911
-2.14255
-2.76416
-2.59852
-2.37475
-2.24549
-1.3584
14.9051
10.9614
-2.00788
-1.84037
-1.92551
-1.71952
-2.16789
-2.15364
0.731128
41.6142
11.3279
0.445494
4.78144
-2.65594
-2.75664
-2.48396
-2.27983
-2.22034
-1.32491
3.01971
-1.27499
-1.73722
-1.44776
-1.79528
-1.81397
-1.62101
-1.63816
-0.524884
20.4405
21.5804
9.92129
3.98446
-2.59043
-2.63536
-2.37417
-2.16971
-2.07516
-1.81221
-1.60949
-1.50246
-1.0808
-1.10501
-1.64454
-1.88328
-1.71208
-1.76737
-1.03376
9.3525
22.3924
18.7945
1.83145
-2.08439
-2.52349
-2.2528
-2.07963
-1.94984
-1.81645
-1.76634
-1.31288
-1.00065
-0.919803
-1.72553
-2.271
-1.57535
-1.4687
-1.35432
-0.4063
15.7971
19.8118
7.64737
-0.190156
-2.04259
-2.07356
-2.04053
-1.85059
-1.85469
-1.68826
3.53815
-1.17883
-0.934155
-1.53119
-1.90887
-1.39752
-1.19977
-1.71188
-1.22056
5.64854
18.3453
10.3463
1.72794
-1.72946
-1.87217
-1.86906
-1.71124
-1.73064
-1.46014
38.7388
-1.31347
-0.884338
-0.97365
-1.45163
-1.75648
-1.28013
-1.39838
-1.46624
-0.472068
16.9034
12.9644
1.68863
-1.69576
-1.72969
-1.6362
-1.31699
-1.40635
-1.26848
218.483
-1.0608
-0.349157
-0.921542
-1.04698
-1.41199
-1.09208
-0.82947
-1.17832
1.96704
16.9369
11.6218
0.149676
-1.69298
-1.54956
-1.55648
-1.39443
-1.50613
-1.04316
686.645
-0.743717
-0.27326
-0.687411
-1.23687
-1.16652
-1.09699
-0.999073
-0.577215
14.6497
14.3501
3.46031
-0.764476
-1.399
-1.38172
-1.78104
-2.33819
-2.36786
3.55326
918.515
-0.685707
-0.495113
-0.839292
-0.991291
-0.422656
-0.814089
-0.577721
1.24397
15.7784
13.1504
1.90634
-0.905278
-1.18761
-1.32689
-1.45482
-1.76108
-1.5115
10.8953
820.135
-0.574191
-0.93896
-0.85961
-0.641667
2.24887
0.846585
-0.231469
1.23092
17.1257
10.8545
2.11281
-0.462495
-0.758232
-0.881238
-1.02795
-0.709603
-0.491027
28.0684
559.151
-1.15724
-1.03951
-0.634081
1.14795
2.21944
1.03236
0.681636
3.57389
8.94887
3.04614
0.207922
-0.439638
-0.418047
-0.684265
-0.741643
-0.675535
0.0384881
16.0078
64.8227
-1.40149
-1.17899
0.183023
3.04529
2.37373
0.0266408
1.21289
5.15793
4.55747
1.04311
-0.625735
-0.731098
-0.785423
-0.563511
-0.55219
-0.761197
-1.15293
-1.3373
1.79231
-1.23918
-0.724427
0.327891
1.32214
1.07874
0.532135
3.24815
4.51087
0.92527
0.0398633
-0.23705
-0.499343
-0.48063
-0.51852
-0.552492
-0.784194
-0.987298
-1.16902
-0.159508
0.468245
0.193692
-0.455183
-0.338354
-0.297928
0.631808
0.653348
0.432379
0.0382173
-0.00110061
-0.160289
-0.274944
-0.538893
-1.00858
-1.21628
-1.31138
-0.728892
-0.738725
-0.454896
)
;

boundaryField
{
    leftWall
    {
        type            zeroGradient;
    }
    rightWall
    {
        type            zeroGradient;
    }
    lowerWall
    {
        type            zeroGradient;
    }
    atmosphere
    {
        type            totalPressure;
        rho             rho;
        psi             none;
        gamma           1;
        p0              uniform 0;
        value           nonuniform List<scalar> 
46
(
0
0
0
0
0
0
0
0
0
0
0
0
0
0
0
-0.0128371
-0.363889
-0.561309
-0.718572
-0.837368
-0.72398
-0.020519
0
0
0
0
0
0
0
0
0
0
0
0
0
-0.00133555
-0.0695234
-0.1921
-0.349094
-0.501835
-0.849427
-0.9099
-1.00141
-0.821657
-0.961807
-0.134826
)
;
    }
    defaultFaces
    {
        type            empty;
    }
}


// ************************************************************************* //
