/*--------------------------------*- C++ -*----------------------------------*\
| =========                 |                                                 |
| \\      /  F ield         | foam-extend: Open Source CFD                    |
|  \\    /   O peration     | Version:     4.1                                |
|   \\  /    A nd           | Web:         http://www.foam-extend.org         |
|    \\/     M anipulation  |                                                 |
\*---------------------------------------------------------------------------*/
FoamFile
{
    version     2.0;
    format      ascii;
    class       volScalarField;
    location    "0.4";
    object      alpha1;
}
// * * * * * * * * * * * * * * * * * * * * * * * * * * * * * * * * * * * * * //

dimensions      [0 0 0 0 0 0 0];

internalField   nonuniform List<scalar> 
2268
(
1
1
1
1
1
1
1
1
1
0.999997
0.999999
0.999999
1
1
1
0.999999
0.999991
0.999951
0.999866
0.997526
0.994101
0.958441
0.519535
1
1
1
1
1
1
1
0.999999
0.999999
0.999982
0.999991
0.999992
0.999994
0.999996
0.999998
0.999996
0.99998
0.99934
0.999039
0.996259
0.989344
0.967973
0.954717
1
1
1
1
0.999999
0.999999
0.999999
0.999989
0.999993
0.999934
0.999772
0.999839
0.999904
0.999967
0.999935
0.999848
0.999607
0.998319
0.995806
0.986856
0.912954
0.943932
0.941351
1
1
1
0.999999
0.999992
0.999991
0.999992
0.999946
0.999947
0.999658
0.998875
0.998698
0.999247
0.999656
0.999777
0.99975
0.999594
0.999007
0.997
0.985298
0.870764
0.901762
0.924765
1
1
1
0.99999
0.999949
0.999947
0.999939
0.999776
0.999656
0.998398
0.993996
0.99543
0.997591
0.997816
0.998695
0.999324
0.99925
0.998615
0.996477
0.983692
0.870644
0.874518
0.910787
1
0.999999
0.999997
0.999932
0.999764
0.999757
0.999565
0.99921
0.997685
0.993666
0.985097
0.988714
0.989561
0.992601
0.993295
0.996463
0.998367
0.998488
0.997717
0.986433
0.889062
0.845603
0.895048
0.999998
0.99999
0.999974
0.999635
0.999149
0.999054
0.998069
0.996925
0.991024
0.97576
0.966159
0.956214
0.966356
0.980266
0.97634
0.985439
0.993791
0.997274
0.997776
0.992345
0.935988
0.844694
0.887498
0.999982
0.999897
0.999806
0.998484
0.997471
0.996778
0.993302
0.990915
0.97915
0.944842
0.902205
0.903704
0.926679
0.927073
0.933337
0.961415
0.986604
0.995319
0.997471
0.995168
0.970689
0.860604
0.869761
0.00748579
0.00857693
0.00863355
0.00877956
0.0122979
0.0179217
0.0272945
0.0516933
0.137902
0.203623
0.25204
0.299192
0.363866
0.383622
0.383892
0.348821
0.275088
0.189622
0.0996765
0.00643827
0.00342486
0.000965869
0.00130065
0.00334447
0.00768016
0.0123937
0.0184289
0.0848521
0.214989
0.275201
0.207932
0.29546
0.349764
0.409566
0.378491
0.318829
0.236606
0.141316
0.00490678
0.00147751
0.000716265
0.000903701
0.0016152
0.00610352
0.0152364
0.0331668
0.0567876
0.150204
0.18647
0.222112
0.232081
0.302515
0.408724
0.408272
0.375167
0.293916
0.167099
0.00391266
0.00105172
0.00319915
0.00441424
0.001509
0.00256455
0.014161
0.046714
0.0667573
0.150112
0.183636
0.17074
0.217531
0.305246
0.414171
0.42683
0.408867
0.337866
0.18822
0.00324315
0.0014426
0.00872425
0.0273861
0.00881455
0.00308204
0.0154822
0.0747162
0.303872
0.247119
0.328051
0.277199
0.398025
0.444502
0.460384
0.453431
0.435155
0.367205
0.20054
0.00293093
0.0032961
0.0230385
0.130346
0.0437301
0.00941414
0.0297828
0.18737
0.519562
0.468625
0.560546
0.497923
0.549942
0.524869
0.493382
0.471581
0.452175
0.396635
0.218457
0.00281569
0.00830883
0.0649783
0.31265
0.121234
0.0404645
0.0511973
0.121591
0.414702
0.545604
0.651291
0.630822
0.62757
0.586353
0.520945
0.487791
0.462815
0.413842
0.233237
0.00245339
0.0649037
0.164313
0.445594
0.239606
0.160618
0.123986
0.169468
0.362104
0.604481
0.69356
0.688916
0.667168
0.605608
0.52456
0.488159
0.463327
0.421177
0.247537
0.999803
0.99846
0.998247
0.99296
0.991192
0.986916
0.976137
0.968599
0.940944
0.850268
0.74685
0.766996
0.759709
0.77225
0.807076
0.791679
0.839962
0.931785
0.981668
0.99239
0.989164
0.94529
0.886186
0.998167
0.982906
0.986794
0.968425
0.96698
0.944017
0.914484
0.900898
0.843442
0.710314
0.608996
0.544171
0.502804
0.495974
0.495436
0.484946
0.537987
0.706835
0.894883
0.956505
0.979766
0.972264
0.94462
0.986034
0.911101
0.939312
0.886938
0.887567
0.828807
0.78658
0.779441
0.755834
0.691426
0.642022
0.566959
0.497513
0.449358
0.415046
0.384262
0.383141
0.450182
0.696908
0.869499
0.95498
0.967242
0.960149
0.934407
0.651564
0.823619
0.669261
0.693254
0.606488
0.584325
0.528489
0.500619
0.549755
0.66063
0.654517
0.580053
0.478883
0.421748
0.390026
0.342605
0.348427
0.4783
0.759921
0.883601
0.91725
0.919886
0.794177
0.41997
0.582875
0.42312
0.350935
0.349357
0.369407
0.257984
0.25756
0.273697
0.435106
0.540669
0.496985
0.397499
0.361
0.393204
0.39685
0.332549
0.384597
0.487369
0.609567
0.665317
0.60542
0.547349
0.321229
0.301003
0.217355
0.148514
0.175255
0.207307
0.132894
0.156513
0.127913
0.147559
0.292716
0.23761
0.13371
0.14962
0.227314
0.317486
0.273034
0.28534
0.303871
0.335386
0.33646
0.306487
0.309428
0.232264
0.153875
0.105281
0.0735228
0.0809895
0.110376
0.0807432
0.0944205
0.066344
0.0510357
0.110894
0.0651866
0.0538397
0.0688498
0.124022
0.224836
0.120435
0.0996977
0.128781
0.138738
0.133072
0.131662
0.153508
0.140346
0.0881536
0.0557081
0.0355035
0.0352396
0.0689093
0.0516607
0.0489701
0.0503706
0.0395766
0.0248305
0.0216119
0.0308833
0.0290094
0.0169839
0.0838119
0.0226519
0.0107101
0.0176402
0.0296478
0.0573198
0.0723456
0.0868796
0.0735299
0.041388
0.0251476
0.0123553
0.0188378
0.0457863
0.0272057
0.0318629
0.0460228
0.0383161
0.0136612
0.0119812
0.00616885
0.00237546
0.000927113
0.00730381
0.00229867
0.00502807
0.00871421
0.0165731
0.0352532
0.0366803
0.0513663
0.0316364
0.0177468
0.00917118
0.00360969
0.0108872
0.016468
0.014441
0.0275802
0.0410372
0.0402042
0.0100475
0.00540346
0.00191385
0.000453195
0.00066105
0.00111128
0.00209395
0.00903729
0.00686931
0.0103662
0.0161516
0.0114485
0.0273952
0.0101136
0.0083509
0.00339866
0.00111582
0.00443896
0.0063692
0.00754521
0.0175597
0.0296651
0.0407776
0.00820569
0.00220654
0.000442708
0.000293301
0.000844245
0.00191857
0.0026112
0.00264429
0.00206317
0.00348936
0.00466404
0.00475287
0.0160801
0.00376923
0.00442356
0.00181187
0.000469115
0.000751947
0.00129425
0.00167418
0.00461313
0.0124676
0.0328922
0.00642476
0.00081407
0.000218569
0.000150356
0.000500062
0.000899506
0.00114525
0.00124478
0.00138341
0.00141129
0.00154416
0.00264554
0.0105613
0.00173556
0.0020348
0.0008927
0.000204205
5.72533e-05
0.00011401
0.000122609
0.000407949
0.0032547
0.0253751
0.00788421
0.000545187
9.81716e-05
4.40914e-05
0.000196792
0.000573344
0.000723685
0.000806609
0.000764388
0.000343971
0.000179926
0.00016222
0.00702051
0.00119015
0.000786475
0.000245335
2.52986e-05
5.78013e-06
7.80936e-06
6.15596e-05
0.000244159
0.00186035
0.0168331
0.0150099
0.00173571
8.72516e-05
1.75296e-05
5.88255e-05
0.00024414
0.000378851
0.000453734
0.000361158
0.000107489
1.76265e-05
9.60368e-06
0.00298861
0.00017497
0.00031269
4.69438e-05
1.2629e-06
7.83747e-07
1.49787e-06
6.20146e-05
0.000526346
0.00200875
0.0150845
0.0223994
0.00398531
9.20605e-05
5.95807e-06
1.72676e-05
6.00585e-05
9.50623e-05
0.000160448
0.000177695
5.58504e-05
6.20119e-06
1.795e-06
0.0011927
7.08339e-05
0.000136274
1.07428e-05
2.21037e-07
3.07244e-07
6.65392e-07
3.74803e-05
0.00105537
0.00630352
0.0226444
0.0519063
0.0171895
0.00096776
2.52332e-06
1.91949e-06
3.3835e-06
6.55381e-06
1.43382e-05
1.91316e-05
4.64818e-06
9.90124e-07
1.0651e-06
0.000256572
2.51567e-05
5.3027e-05
1.61831e-06
3.44921e-08
1.17205e-07
2.48153e-07
6.48707e-06
0.0010969
0.0111904
0.0480895
0.138749
0.0464915
0.00463463
1.37281e-06
5.94442e-07
2.5014e-07
1.73194e-07
2.31689e-07
2.37382e-07
2.43406e-07
8.47832e-08
2.62601e-07
1.64839e-05
7.82832e-06
1.95571e-05
2.3592e-07
6.6296e-09
3.48236e-08
9.32083e-08
1.6321e-06
1.90508e-05
0.000382373
0.00510276
0.0342396
0.00152033
5.01511e-07
2.64594e-07
2.03309e-07
5.3662e-08
2.43987e-08
2.10434e-08
2.35588e-08
2.85167e-08
1.50785e-08
3.34873e-08
9.3364e-08
3.47576e-07
6.43546e-06
2.86703e-08
1.57383e-09
2.04502e-09
8.97435e-10
2.31921e-09
1.19855e-08
7.79286e-08
3.70196e-07
1.98674e-06
9.97288e-08
2.56783e-08
2.39803e-08
3.736e-08
1.84522e-08
6.44757e-09
3.63481e-09
3.61568e-09
2.85356e-09
2.52282e-09
4.16436e-09
1.35815e-08
8.57117e-08
2.01445e-06
7.35729e-09
3.70782e-10
3.97836e-10
3.36676e-10
4.51265e-10
7.56539e-10
2.22065e-10
4.13387e-10
9.08356e-10
1.11656e-09
1.98765e-09
2.64453e-09
3.14286e-09
3.36094e-09
3.05042e-09
9.44414e-10
4.2627e-10
2.39105e-10
1.94345e-10
2.80532e-10
1.50821e-09
4.71309e-09
8.72328e-09
7.34758e-11
3.32376e-11
2.25297e-11
9.76728e-11
1.2744e-10
4.95381e-10
9.34141e-11
4.68072e-11
4.08359e-11
1.45288e-10
2.17791e-10
2.81317e-10
2.66488e-10
2.83522e-10
1.96738e-10
1.22753e-10
2.10309e-11
1.21472e-11
8.0822e-12
2.50548e-11
8.70021e-11
4.18635e-11
1.19094e-10
2.96529e-12
2.60642e-12
3.45862e-12
1.89082e-11
1.90829e-11
5.9103e-11
9.00333e-11
2.73154e-11
1.69142e-13
8.29115e-13
2.27718e-12
5.20611e-12
1.1039e-11
1.64743e-11
9.90324e-12
8.98071e-12
9.9043e-13
6.4404e-13
9.82936e-13
3.01359e-12
1.87027e-11
1.10584e-12
1.26343e-13
7.76046e-14
3.94684e-14
4.67015e-13
7.4124e-13
8.32112e-14
5.94524e-14
1.87073e-14
1.05471e-14
1.26565e-14
4.63518e-14
1.20237e-13
2.34923e-13
8.65141e-13
1.15175e-12
8.63254e-13
5.95746e-13
1.10578e-13
3.9968e-14
4.9627e-14
2.32425e-13
2.46986e-12
2.79277e-13
1.60982e-14
1.59872e-14
1.21014e-14
8.03801e-14
1.09412e-13
7.60503e-15
6.77236e-15
7.82707e-15
6.66134e-15
5.93969e-15
9.82547e-15
1.21014e-14
1.91513e-14
3.82472e-14
6.4726e-14
5.64548e-14
3.68594e-14
9.76996e-15
1.9984e-15
6.82787e-15
1.79301e-14
1.83242e-13
5.45675e-14
8.10463e-15
8.21565e-15
2.74225e-14
7.99361e-15
1.02696e-14
8.21565e-15
4.66294e-15
7.99361e-15
8.21565e-15
6.38378e-15
6.32827e-15
7.93809e-15
4.94049e-15
7.77156e-15
4.94049e-15
7.49401e-15
3.60822e-15
1.77636e-15
0
1.83187e-15
7.21645e-15
5.05151e-15
0
8.04912e-15
5.44009e-15
8.38218e-15
9.10383e-15
4.94049e-15
8.99281e-15
9.21485e-15
6.16174e-15
8.04912e-15
6.32827e-15
9.54792e-15
8.21565e-15
5.4956e-15
7.32747e-15
3.9968e-15
3.38618e-15
2.498e-15
2.22045e-15
0
0
6.88338e-15
6.05072e-15
0
7.27196e-15
8.16014e-15
6.99441e-15
8.60423e-15
7.99361e-15
6.27276e-15
4.996e-15
6.16174e-15
4.44089e-15
7.04992e-15
7.38298e-15
7.93809e-15
6.16174e-15
7.71605e-15
5.4956e-15
3.9968e-15
2.60902e-15
1.88738e-15
1.66533e-16
7.21645e-16
5.93969e-15
7.99361e-15
0
5.82867e-15
8.99281e-15
7.21645e-15
8.49321e-15
8.99281e-15
5.4956e-15
5.60663e-15
5.9952e-15
9.4369e-15
7.32747e-15
7.38298e-15
9.49241e-15
7.43849e-15
5.82867e-15
7.10543e-15
5.55112e-15
4.996e-15
5.16254e-15
5.66214e-15
9.4369e-16
4.4964e-15
8.10463e-15
0
7.10543e-15
7.71605e-15
9.71445e-15
7.32747e-15
7.43849e-15
6.66134e-15
5.60663e-15
8.99281e-15
6.55032e-15
8.21565e-15
8.88178e-15
9.04832e-15
8.77076e-15
8.43769e-15
6.05072e-15
4.10783e-15
2.55351e-15
1.16573e-15
2.38698e-15
0
4.88498e-15
7.71605e-15
0
7.49401e-15
6.82787e-15
8.27116e-15
1.06581e-14
9.49241e-15
6.16174e-15
3.77476e-15
5.71765e-15
6.66134e-15
7.38298e-15
8.77076e-15
7.71605e-15
7.32747e-15
8.10463e-15
8.16014e-15
5.71765e-15
2.44249e-15
3.33067e-16
1.05471e-15
7.77156e-16
5.10703e-15
9.27036e-15
0
8.88178e-15
6.99441e-15
8.21565e-15
7.66054e-15
9.38138e-15
8.04912e-15
4.71845e-15
7.71605e-15
6.55032e-15
6.10623e-15
7.66054e-15
9.15934e-15
5.44009e-15
6.99441e-15
7.60503e-15
6.21725e-15
4.44089e-15
1.16573e-15
0
0
5.32907e-15
9.04832e-15
0
8.65974e-15
6.60583e-15
6.43929e-15
5.82867e-15
8.71525e-15
7.88258e-15
5.93969e-15
5.05151e-15
1.01585e-14
7.93809e-15
8.27116e-15
1.08802e-14
8.54872e-15
8.32667e-15
1.12688e-14
8.54872e-15
6.16174e-15
1.05471e-15
1.77636e-15
0
3.33067e-15
7.82707e-15
0
8.99281e-15
4.996e-15
5.82867e-15
6.16174e-15
8.43769e-15
9.54792e-15
6.27276e-15
9.38138e-15
5.60663e-15
7.38298e-15
7.99361e-15
8.38218e-15
9.32587e-15
8.43769e-15
9.49241e-15
7.66054e-15
6.32827e-15
4.27436e-15
0
0
3.05311e-15
6.16174e-15
0
6.27276e-15
4.996e-15
7.32747e-15
3.21965e-15
7.77156e-15
1.04916e-14
4.77396e-15
1.04916e-14
8.49321e-15
7.49401e-15
7.04992e-15
6.71685e-15
7.54952e-15
7.54952e-15
7.54952e-15
6.60583e-15
5.88418e-15
2.33147e-15
0
0
9.32587e-15
4.77396e-15
0
3.55271e-15
5.71765e-15
5.82867e-15
2.27596e-15
1.08802e-14
8.21565e-15
4.27436e-15
8.99281e-15
6.82787e-15
8.71525e-15
7.66054e-15
7.49401e-15
6.4948e-15
6.27276e-15
7.82707e-15
7.43849e-15
6.88338e-15
2.10942e-15
0
0
6.99441e-15
1.44329e-15
0
2.66454e-15
3.38618e-15
3.10862e-15
5.10703e-15
5.66214e-15
6.82787e-15
5.32907e-15
6.10623e-15
9.49241e-15
9.15934e-15
5.9952e-15
5.4956e-15
4.27436e-15
7.43849e-15
4.60743e-15
1.04361e-14
5.88418e-15
4.60743e-15
3.88578e-15
0
4.77396e-15
0
0
2.22045e-15
1.22125e-15
4.10783e-15
7.43849e-15
5.38458e-15
2.16493e-15
5.21805e-15
6.38378e-15
2.77556e-15
4.44089e-15
2.66454e-15
1.94289e-15
1.33227e-15
6.66134e-15
3.94129e-15
9.4369e-15
7.60503e-15
5.05151e-15
5.55112e-16
0
6.99441e-15
0
0
2.77556e-15
1.33227e-15
4.21885e-15
8.10463e-15
2.38698e-15
0
2.72005e-15
1.88738e-15
1.27676e-15
1.38778e-15
3.83027e-15
0
1.94289e-15
5.16254e-15
1.38778e-15
5.82867e-15
3.71925e-15
4.27436e-15
2.77556e-16
2.05391e-15
8.54872e-15
0
0
3.27516e-15
2.55351e-15
3.16414e-15
3.27516e-15
2.44249e-15
0
3.05311e-15
0
0
3.9968e-15
0
2.38698e-15
0
2.55351e-15
0
2.77556e-15
3.33067e-16
3.77476e-15
2.22045e-15
0
6.93889e-15
0
0
5.21805e-15
1.38778e-15
2.94209e-15
5.05151e-15
1.4988e-15
0
3.55271e-15
0
7.21645e-16
6.66134e-16
0
5.38458e-15
5.55112e-16
2.94209e-15
0
1.88738e-15
2.10942e-15
4.44089e-16
4.55191e-15
4.44089e-16
2.9976e-15
0
0
1.00475e-14
5.71765e-15
5.05151e-15
9.27036e-15
5.21805e-15
0
4.38538e-15
5.55112e-17
4.55191e-15
1.11022e-16
0
4.32987e-15
1.77636e-15
4.44089e-15
1.22125e-15
4.77396e-15
4.996e-16
1.11022e-16
4.05231e-15
7.66054e-15
1.60982e-15
0
7.21645e-16
1.42664e-14
1.09357e-14
1.09357e-14
1.08247e-14
4.4964e-15
4.4964e-15
4.77396e-15
4.66294e-15
4.4964e-15
2.55351e-15
4.38538e-15
8.9373e-15
5.71765e-15
5.32907e-15
5.66214e-15
1.06026e-14
5.55112e-15
7.04992e-15
5.9952e-15
1.07692e-14
0
0.883881
0.884299
0.853823
0.103621
0.918275
0.909411
0.890968
0.880845
0.95398
0.946507
0.943311
0.942061
0.914637
0.906093
0.903052
0.90711
0.572946
0.573119
0.592967
0.653473
0.289777
0.288879
0.294704
0.31702
0.13625
0.145553
0.161125
0.190366
0.0839698
0.0918234
0.10139
0.107714
0.0369186
0.0372078
0.0382863
0.0390243
0.0119072
0.0137959
0.0295739
0.0464135
0.0181694
0.0251061
0.0261879
0.0118898
0.00640292
0.00564816
0.00267419
0.00113769
0.000277319
0.000145023
5.61513e-05
2.78883e-05
7.19653e-06
7.0291e-06
6.68354e-06
7.39818e-06
8.32216e-07
1.01285e-06
1.45653e-06
2.15868e-06
1.86042e-07
1.81871e-07
2.96055e-07
4.20301e-07
5.69256e-08
4.8595e-08
5.20294e-08
8.86307e-08
1.29887e-08
1.12262e-08
1.15153e-08
1.86002e-08
2.29008e-09
2.41951e-09
3.02517e-09
3.79574e-09
2.72908e-10
2.98881e-10
3.47754e-10
3.2618e-10
2.92587e-11
2.46703e-11
3.96567e-11
4.58248e-11
3.31779e-12
3.61117e-12
5.68429e-12
7.63356e-12
3.54383e-13
5.66214e-13
8.6875e-13
1.19693e-12
2.38698e-14
5.12923e-14
7.9603e-14
1.18461e-13
4.996e-15
1.16018e-14
1.36557e-14
1.82632e-14
1.94289e-15
6.10623e-15
4.05231e-15
3.16414e-15
1.88738e-15
5.44009e-15
3.66374e-15
2.60902e-15
7.77156e-16
4.94049e-15
5.60663e-15
4.77396e-15
1.38778e-15
2.55351e-15
4.38538e-15
3.44169e-15
3.33067e-16
5.38458e-15
4.82947e-15
2.498e-15
4.44089e-16
3.88578e-15
1.9984e-15
9.99201e-16
2.77556e-16
3.77476e-15
5.55112e-15
4.27436e-15
9.4369e-16
1.66533e-15
3.83027e-15
2.88658e-15
0
2.94209e-15
2.55351e-15
2.77556e-16
0
1.22125e-15
3.83027e-15
3.83027e-15
0
0
3.16414e-15
4.16334e-15
0
0
8.88178e-16
2.88658e-15
0
0
9.4369e-16
9.99201e-16
0
0
1.05471e-15
3.44169e-15
0
5.55112e-16
2.77556e-15
2.9976e-15
2.9976e-15
4.55191e-15
6.21725e-15
1.11577e-14
5.16254e-15
0
0
0
0.143477
0.259447
0.405455
0.63862
0.573115
0.556923
0.578881
0.588723
0.650711
0.714806
0.731448
0.721127
0.681267
0.610509
0.500077
0.455396
0.442497
0.413274
0.269144
0.873932
0.829568
0.810548
0.839885
0.830602
0.810985
0.786746
0.763169
0.760536
0.759031
0.752169
0.734807
0.668985
0.552396
0.395617
0.306271
0.344974
0.367949
0.263126
0.939224
0.932664
0.926033
0.914464
0.882242
0.837361
0.79762
0.743217
0.733126
0.703452
0.679236
0.647811
0.586698
0.454523
0.333571
0.222375
0.191584
0.268113
0.242692
0.91568
0.916088
0.910881
0.893528
0.86293
0.814534
0.698949
0.593032
0.458179
0.464414
0.490548
0.505557
0.441783
0.2407
0.139629
0.124383
0.0835433
0.172757
0.217116
0.735259
0.770242
0.82379
0.812315
0.781669
0.668283
0.42084
0.34573
0.259226
0.309716
0.363138
0.342171
0.206351
0.10901
0.0672643
0.0738536
0.0536666
0.104091
0.190071
0.395871
0.440765
0.554209
0.575713
0.570232
0.509805
0.262529
0.219355
0.17192
0.184354
0.246155
0.189902
0.0600032
0.0340059
0.0306964
0.0424841
0.0391812
0.0626805
0.161745
0.221965
0.226622
0.248542
0.304069
0.346779
0.2745
0.133014
0.130816
0.106745
0.0774909
0.0735194
0.0417487
0.0146039
0.0100997
0.0139775
0.0204945
0.0319026
0.0411242
0.137969
0.111924
0.146018
0.16935
0.169191
0.192241
0.128613
0.0603506
0.0696744
0.054385
0.0327884
0.0258543
0.0205848
0.0164001
0.0099927
0.00946767
0.0106581
0.0262136
0.0295422
0.117697
0.0559284
0.120685
0.124729
0.0642987
0.0724268
0.0502523
0.0192316
0.023198
0.0171143
0.0108433
0.00834861
0.00549363
0.00561651
0.00662917
0.00663294
0.00710898
0.0181911
0.0225533
0.100388
0.0470289
0.0650757
0.0623737
0.0269174
0.0200041
0.00983369
0.00191525
0.00199155
0.00185782
0.00180934
0.00215458
0.00219196
0.00269335
0.00430011
0.00486387
0.00455674
0.0116522
0.0176166
0.0855777
0.0036047
0.0109322
0.011604
0.00586328
0.00425035
0.00165035
0.000386636
0.000227129
0.000192229
0.00025951
0.000497465
0.000935085
0.00150756
0.00263822
0.00358018
0.00327406
0.00778587
0.0140325
0.0731247
0.000206443
0.000575545
0.00076363
0.000892701
0.000516362
0.000214781
9.21148e-05
8.01182e-05
9.82945e-05
0.000153249
0.000292107
0.000606859
0.00102318
0.00174787
0.00268661
0.00262641
0.00499799
0.0111301
0.0625826
2.13307e-05
2.99202e-05
5.97819e-05
9.09755e-05
8.0255e-05
3.58265e-05
3.20034e-05
5.14421e-05
0.000111683
0.000242167
0.000602858
0.00166943
0.00201054
0.00212065
0.00239753
0.00233327
0.00348233
0.00881663
0.0536408
7.72805e-06
9.29098e-06
1.13909e-05
7.54694e-06
1.89332e-05
1.43201e-05
2.43606e-05
6.12732e-05
0.000139028
0.000316268
0.000746235
0.00206111
0.00258507
0.00239872
0.00238185
0.00220241
0.00261628
0.00723752
0.0462881
2.05927e-06
1.89867e-06
2.2793e-06
1.97751e-06
4.98948e-06
9.085e-06
2.51789e-05
7.95428e-05
0.000226305
0.000412075
0.000768705
0.00194282
0.002961
0.00282721
0.00255043
0.00224995
0.00211807
0.00560312
0.0399993
4.24981e-07
4.1857e-07
8.65561e-07
1.19927e-06
4.03038e-06
6.85474e-06
2.04195e-05
3.57099e-05
8.37225e-05
0.000292995
0.000746441
0.00204392
0.0030244
0.00297226
0.00268673
0.00234283
0.00192526
0.00422529
0.0345853
1.33586e-07
1.85866e-07
5.06563e-07
7.9313e-07
2.61523e-06
2.31936e-06
4.83405e-06
1.25287e-05
3.6939e-05
0.000180787
0.000293125
0.000594412
0.00191819
0.002539
0.00224775
0.00228457
0.00186567
0.00329984
0.0299001
3.57074e-08
5.25583e-08
2.35968e-07
3.26503e-07
5.15212e-07
5.83651e-07
1.35391e-06
5.38689e-06
1.22465e-05
3.58112e-05
6.21539e-05
6.48109e-05
0.000122602
0.000713732
0.000949057
0.001999
0.00175441
0.00259963
0.0256864
1.05778e-08
1.93622e-08
3.06604e-08
3.65355e-08
1.21032e-07
2.34914e-07
6.78778e-07
2.98381e-06
6.03091e-06
1.46142e-05
2.17569e-05
2.01136e-05
2.48201e-05
8.05731e-05
0.000189026
0.00118744
0.00152054
0.00201834
0.0220622
5.35033e-10
1.43025e-09
3.70446e-09
9.53674e-09
2.98277e-08
1.03024e-07
3.4116e-07
1.14028e-06
2.44386e-06
4.50423e-06
6.36478e-06
6.13362e-06
1.2347e-05
3.76103e-05
9.63602e-05
0.000470884
0.00110865
0.00143498
0.0190124
9.44955e-11
2.25751e-10
5.9104e-10
1.54074e-09
6.4024e-09
7.26128e-08
2.38436e-07
4.17501e-07
8.90408e-07
1.47154e-06
2.44391e-06
3.98381e-06
1.34047e-05
4.42783e-05
8.88287e-05
0.000223126
0.000642297
0.000989129
0.0164164
1.32789e-11
2.36741e-11
9.57427e-11
3.74909e-10
1.7023e-09
7.05547e-09
3.25744e-08
1.17556e-07
3.65099e-07
5.52672e-07
1.0454e-06
3.45632e-06
1.65255e-05
6.88869e-05
0.000210778
0.00026334
0.000435922
0.000732806
0.0139719
1.72679e-12
4.55136e-12
1.92827e-11
8.29658e-11
5.30328e-10
2.41412e-09
8.45443e-09
3.57908e-08
9.50506e-08
1.71157e-07
6.72489e-07
3.94072e-06
2.20569e-05
9.17621e-05
0.00018491
0.000355418
0.000420469
0.00063073
0.0118367
2.16049e-13
7.56728e-13
3.09841e-12
1.12401e-11
6.26201e-11
3.023e-10
1.04501e-09
4.57764e-09
1.5559e-08
4.08255e-08
5.31147e-07
5.0543e-06
2.79204e-05
0.000183598
0.00049918
0.000614809
0.000457972
0.00063987
0.0100365
2.88658e-14
9.72e-14
4.17e-13
2.36144e-12
1.26207e-11
5.34024e-11
2.00331e-10
9.53579e-10
3.98345e-09
1.67231e-08
1.90566e-07
2.46684e-06
2.96948e-05
0.000223202
0.000599432
0.00118279
0.000568276
0.000685501
0.00899073
4.82947e-15
2.02616e-14
5.80092e-14
3.13971e-13
1.94572e-12
1.14942e-11
6.13731e-11
2.13557e-10
8.44171e-10
5.28433e-09
8.7689e-08
1.0417e-06
8.96416e-06
6.04087e-05
0.000305389
0.00131392
0.000781431
0.000872378
0.00857854
5.32907e-15
8.82627e-15
1.11022e-14
7.25531e-14
4.91107e-13
3.00338e-12
1.55397e-11
7.23715e-11
3.38015e-10
4.56713e-09
8.017e-08
9.54812e-07
9.27459e-06
6.44415e-05
0.000389515
0.00134197
0.00133063
0.0015355
0.00822918
2.66454e-15
5.82867e-15
5.4956e-15
1.29896e-14
6.02851e-14
3.65208e-13
2.37488e-12
2.11191e-11
5.63301e-10
8.37152e-09
7.82827e-08
8.76818e-07
9.13116e-06
5.37693e-05
0.000314295
0.00129761
0.00215172
0.00265064
0.00783794
5.05151e-15
6.21725e-15
5.93969e-15
5.77316e-15
8.38218e-15
5.42344e-14
4.70846e-13
9.17599e-12
2.70431e-10
8.63215e-09
2.19392e-07
2.21773e-06
1.389e-05
6.59899e-05
0.000278969
0.00110519
0.00255393
0.00345692
0.0073739
2.72005e-15
5.66214e-15
4.27436e-15
4.55191e-15
3.55271e-15
1.19904e-14
2.2421e-13
1.18146e-11
4.64591e-10
1.41843e-08
2.9826e-07
4.4057e-06
4.92958e-05
0.000225663
0.000751593
0.00160975
0.0029464
0.00403005
0.00686312
3.4972e-15
5.16254e-15
4.05231e-15
4.10783e-15
1.83187e-15
4.05231e-15
2.07057e-14
8.87235e-13
3.9485e-11
1.29467e-09
3.15692e-08
5.65378e-07
6.9096e-06
5.08821e-05
0.000243375
0.00109725
0.00292338
0.00420651
0.00633662
1.72085e-15
5.55112e-15
5.4956e-15
5.27356e-15
4.996e-16
1.77636e-15
6.55032e-15
4.92384e-14
2.0744e-12
7.3329e-11
2.08762e-09
4.88132e-08
8.29831e-07
1.06877e-05
9.8049e-05
0.000608713
0.00231062
0.00388008
0.00550708
2.55351e-15
8.99281e-15
6.71685e-15
3.27516e-15
3.21965e-15
4.38538e-15
2.10942e-15
8.16014e-15
1.85185e-13
7.14645e-12
2.18829e-10
5.35024e-09
1.01289e-07
1.58098e-06
1.92942e-05
0.000163171
0.000905886
0.00234272
0.00359932
0
3.71925e-15
6.10623e-16
1.66533e-15
3.60822e-15
3.10862e-15
5.60663e-15
4.60743e-15
2.61458e-14
6.15952e-13
1.9658e-11
5.27344e-10
1.17171e-08
2.07583e-07
2.8558e-06
2.93281e-05
0.000194961
0.000705332
0.00123651
2.38698e-15
7.60503e-15
1.44329e-15
2.83107e-15
4.88498e-15
4.94049e-15
3.05311e-15
5.21805e-15
6.38378e-15
7.39964e-14
1.8277e-12
4.88025e-11
1.11686e-09
2.15552e-08
3.29116e-07
3.8341e-06
2.95158e-05
0.000135659
0.000254986
1.94289e-15
5.16254e-15
1.77636e-15
6.32827e-15
6.93889e-15
4.10783e-15
3.38618e-15
5.93969e-15
7.54952e-15
6.16174e-15
7.31637e-14
2.8007e-12
7.41331e-11
1.66268e-09
2.83405e-08
3.71374e-07
3.22631e-06
1.75296e-05
3.46474e-05
0
6.16174e-15
5.10703e-15
5.05151e-15
5.21805e-15
7.04992e-15
4.21885e-15
6.82787e-15
5.32907e-15
7.04992e-15
1.23235e-14
1.78635e-13
4.49046e-12
1.06869e-10
1.96204e-09
2.82974e-08
2.69763e-07
1.63821e-06
3.30214e-06
0
6.38378e-15
8.38218e-15
9.27036e-15
7.32747e-15
4.996e-15
5.38458e-15
5.05151e-15
4.16334e-15
4.05231e-15
3.16414e-15
7.54952e-15
2.08555e-13
5.41556e-12
1.10275e-10
1.74304e-09
1.79674e-08
1.17581e-07
2.39868e-07
0
6.55032e-15
3.33067e-15
5.10703e-15
5.9952e-15
3.10862e-15
2.22045e-15
4.55191e-15
3.83027e-15
2.44249e-15
3.21965e-15
3.60822e-15
1.17129e-14
2.31037e-13
5.21633e-12
8.93851e-11
9.91058e-10
6.83073e-09
1.41487e-08
2.60902e-15
7.16094e-15
5.77316e-15
8.32667e-15
6.82787e-15
4.55191e-15
4.16334e-15
4.44089e-15
6.77236e-15
5.27356e-15
3.83027e-15
4.94049e-15
6.77236e-15
1.41553e-14
2.14162e-13
3.88189e-12
4.66149e-11
3.36221e-10
7.11953e-10
1.11022e-14
2.44249e-15
0
1.11022e-15
2.83107e-15
0
2.77556e-15
4.21885e-15
4.44089e-16
1.77636e-15
2.83107e-15
1.88738e-15
3.38618e-15
2.94209e-15
1.12688e-14
1.54265e-13
1.95344e-12
1.47277e-11
3.20697e-11
5.60663e-15
7.27196e-15
0
2.60902e-15
3.77476e-15
9.4369e-16
3.33067e-16
2.05391e-15
3.88578e-15
3.9968e-15
3.66374e-15
6.10623e-16
4.21885e-15
4.44089e-16
2.05391e-15
9.32587e-15
7.80487e-14
5.74485e-13
1.28259e-12
)
;

boundaryField
{
    leftWall
    {
        type            zeroGradient;
    }
    rightWall
    {
        type            zeroGradient;
    }
    lowerWall
    {
        type            zeroGradient;
    }
    atmosphere
    {
        type            inletOutlet;
        inletValue      uniform 0;
        value           nonuniform List<scalar> 
46
(
0
7.21645e-16
1.42664e-14
1.09357e-14
1.09357e-14
1.08247e-14
4.4964e-15
4.4964e-15
4.77396e-15
4.66294e-15
4.4964e-15
2.55351e-15
4.38538e-15
8.9373e-15
5.71765e-15
5.32907e-15
5.66214e-15
1.06026e-14
5.55112e-15
7.04992e-15
5.9952e-15
1.07692e-14
0
5.16254e-15
0
0
0
5.60663e-15
7.27196e-15
0
2.60902e-15
3.77476e-15
9.4369e-16
3.33067e-16
2.05391e-15
3.88578e-15
3.9968e-15
3.66374e-15
6.10623e-16
4.21885e-15
4.44089e-16
2.05391e-15
9.32587e-15
7.80487e-14
5.74485e-13
1.28259e-12
)
;
    }
    defaultFaces
    {
        type            empty;
    }
}


// ************************************************************************* //
