/*--------------------------------*- C++ -*----------------------------------*\
| =========                 |                                                 |
| \\      /  F ield         | foam-extend: Open Source CFD                    |
|  \\    /   O peration     | Version:     4.1                                |
|   \\  /    A nd           | Web:         http://www.foam-extend.org         |
|    \\/     M anipulation  |                                                 |
\*---------------------------------------------------------------------------*/
FoamFile
{
    version     2.0;
    format      ascii;
    class       volScalarField;
    location    "0.4";
    object      C;
}
// * * * * * * * * * * * * * * * * * * * * * * * * * * * * * * * * * * * * * //

dimensions      [0 0 0 0 0 0 0];

internalField   nonuniform List<scalar> 
2268
(
1
1
1
1
1
1
1
1
1
0.999995
0.999997
0.999998
0.999999
1
1
0.999997
0.999981
0.999903
0.999733
0.995052
0.988203
0.916881
0.039069
1
1
1
1
1
1
1
0.999997
0.999998
0.999964
0.999982
0.999983
0.999987
0.999992
0.999996
0.999993
0.99996
0.99868
0.998078
0.992517
0.978689
0.935946
0.909435
1
1
1
1
0.999998
0.999998
0.999999
0.999979
0.999985
0.999869
0.999544
0.999678
0.999808
0.999934
0.999871
0.999695
0.999215
0.996638
0.991613
0.973713
0.825907
0.887864
0.882702
1
1
1
0.999998
0.999984
0.999982
0.999984
0.999893
0.999893
0.999316
0.997751
0.997396
0.998495
0.999313
0.999555
0.9995
0.999188
0.998013
0.994001
0.970597
0.741528
0.803523
0.849529
1
1
0.999999
0.999981
0.999898
0.999895
0.999878
0.999552
0.999312
0.996795
0.987992
0.990859
0.995183
0.995632
0.99739
0.998648
0.998499
0.99723
0.992954
0.967384
0.741287
0.749037
0.821574
1
0.999998
0.999994
0.999864
0.999529
0.999514
0.999131
0.99842
0.99537
0.987333
0.970194
0.977429
0.979121
0.985202
0.98659
0.992927
0.996734
0.996976
0.995434
0.972865
0.778125
0.691205
0.790097
0.999996
0.99998
0.999947
0.999269
0.998298
0.998108
0.996138
0.993849
0.982049
0.95152
0.932317
0.912428
0.932712
0.960531
0.952679
0.970878
0.987581
0.994549
0.995551
0.984689
0.871975
0.689388
0.774997
0.999965
0.999794
0.999612
0.996969
0.994943
0.993556
0.986603
0.981829
0.9583
0.889684
0.804411
0.807408
0.853358
0.854146
0.866674
0.922831
0.973207
0.990638
0.994942
0.990336
0.941378
0.721209
0.739523
-0.985028
-0.982846
-0.982733
-0.982441
-0.975404
-0.964157
-0.945411
-0.896613
-0.724197
-0.592754
-0.495919
-0.401615
-0.272269
-0.232755
-0.232215
-0.302359
-0.449824
-0.620756
-0.800647
-0.987123
-0.99315
-0.998068
-0.997399
-0.993311
-0.98464
-0.975213
-0.963142
-0.830296
-0.570022
-0.449599
-0.584135
-0.409079
-0.300473
-0.180867
-0.243018
-0.362341
-0.526788
-0.717367
-0.990186
-0.997045
-0.998567
-0.998193
-0.99677
-0.987793
-0.969527
-0.933666
-0.886425
-0.699593
-0.62706
-0.555777
-0.535838
-0.394969
-0.182553
-0.183455
-0.249666
-0.412167
-0.665801
-0.992175
-0.997897
-0.993602
-0.991172
-0.996982
-0.994871
-0.971678
-0.906572
-0.866485
-0.699776
-0.632729
-0.658521
-0.564939
-0.389508
-0.171657
-0.14634
-0.182265
-0.324267
-0.62356
-0.993514
-0.997115
-0.982551
-0.945228
-0.982371
-0.993836
-0.969036
-0.850568
-0.392257
-0.505762
-0.343898
-0.445602
-0.20395
-0.110997
-0.0792311
-0.0931389
-0.129691
-0.265591
-0.598919
-0.994138
-0.993408
-0.953923
-0.739308
-0.91254
-0.981172
-0.940434
-0.62526
0.039125
-0.0627508
0.121092
-0.00415366
0.0998846
0.049738
-0.0132353
-0.0568372
-0.0956498
-0.206729
-0.563086
-0.994369
-0.983382
-0.870043
-0.3747
-0.757532
-0.919071
-0.897605
-0.756819
-0.170597
0.0912086
0.302583
0.261643
0.25514
0.172706
0.0418899
-0.0244186
-0.0743697
-0.172317
-0.533525
-0.995093
-0.870193
-0.671373
-0.108812
-0.520789
-0.678764
-0.752029
-0.661063
-0.275793
0.208961
0.38712
0.377832
0.334336
0.211217
0.0491198
-0.0236811
-0.0733457
-0.157646
-0.504927
0.999605
0.99692
0.996494
0.985921
0.982383
0.973831
0.952274
0.937199
0.881888
0.700535
0.493701
0.533993
0.519419
0.544501
0.614153
0.583357
0.679924
0.863571
0.963336
0.98478
0.978327
0.89058
0.772372
0.996335
0.965812
0.973587
0.936851
0.933961
0.888033
0.828967
0.801795
0.686884
0.420628
0.217992
0.0883418
0.00560761
-0.0080512
-0.00912739
-0.0301072
0.075974
0.413671
0.789766
0.913009
0.959533
0.944528
0.88924
0.972068
0.822203
0.878624
0.773876
0.775134
0.657614
0.57316
0.558881
0.511668
0.382853
0.284045
0.133919
-0.00497322
-0.101284
-0.169908
-0.231476
-0.233719
-0.099635
0.393816
0.738998
0.90996
0.934484
0.920299
0.868815
0.303127
0.647238
0.338521
0.386509
0.212976
0.168649
0.0569789
0.00123819
0.0995104
0.321259
0.309034
0.160107
-0.0422343
-0.156504
-0.219947
-0.314791
-0.303146
-0.0434005
0.519842
0.767202
0.8345
0.839771
0.588354
-0.16006
0.165749
-0.153761
-0.298131
-0.301285
-0.261186
-0.484031
-0.48488
-0.452606
-0.129789
0.0813381
-0.00603084
-0.205001
-0.278
-0.213592
-0.2063
-0.334901
-0.230807
-0.0252619
0.219134
0.330633
0.210839
0.094698
-0.357542
-0.397993
-0.565289
-0.702972
-0.64949
-0.585386
-0.734211
-0.686975
-0.744174
-0.704883
-0.414569
-0.52478
-0.73258
-0.700761
-0.545373
-0.365029
-0.453933
-0.42932
-0.392257
-0.329229
-0.32708
-0.387027
-0.381144
-0.535471
-0.692251
-0.789437
-0.852954
-0.838021
-0.779248
-0.838514
-0.811159
-0.867312
-0.897929
-0.778212
-0.869627
-0.892321
-0.8623
-0.751955
-0.550329
-0.75913
-0.800605
-0.742438
-0.722523
-0.733855
-0.736676
-0.692983
-0.719308
-0.823693
-0.888584
-0.928993
-0.929521
-0.862181
-0.896679
-0.90206
-0.899259
-0.920847
-0.950339
-0.956776
-0.938233
-0.941981
-0.966032
-0.832376
-0.954696
-0.97858
-0.96472
-0.940704
-0.88536
-0.855309
-0.826241
-0.85294
-0.917224
-0.949705
-0.975289
-0.962324
-0.908427
-0.945589
-0.936274
-0.907954
-0.923368
-0.972678
-0.976038
-0.987662
-0.995249
-0.998146
-0.985392
-0.995403
-0.989944
-0.982572
-0.966854
-0.929494
-0.926639
-0.897267
-0.936727
-0.964506
-0.981658
-0.992781
-0.978226
-0.967064
-0.971118
-0.94484
-0.917926
-0.919592
-0.979905
-0.989193
-0.996172
-0.999094
-0.998678
-0.997777
-0.995812
-0.981925
-0.986261
-0.979268
-0.967697
-0.977103
-0.94521
-0.979773
-0.983298
-0.993203
-0.997768
-0.991122
-0.987262
-0.98491
-0.964881
-0.94067
-0.918445
-0.983589
-0.995587
-0.999115
-0.999413
-0.998312
-0.996163
-0.994778
-0.994711
-0.995874
-0.993021
-0.990672
-0.990494
-0.96784
-0.992462
-0.991153
-0.996376
-0.999062
-0.998496
-0.997411
-0.996652
-0.990774
-0.975065
-0.934216
-0.98715
-0.998372
-0.999563
-0.999699
-0.999
-0.998201
-0.997709
-0.99751
-0.997233
-0.997177
-0.996912
-0.994709
-0.978877
-0.996529
-0.99593
-0.998215
-0.999592
-0.999885
-0.999772
-0.999755
-0.999184
-0.993491
-0.94925
-0.984232
-0.99891
-0.999804
-0.999912
-0.999606
-0.998853
-0.998553
-0.998387
-0.998471
-0.999312
-0.99964
-0.999676
-0.985959
-0.99762
-0.998427
-0.999509
-0.999949
-0.999988
-0.999984
-0.999877
-0.999512
-0.996279
-0.966334
-0.96998
-0.996529
-0.999825
-0.999965
-0.999882
-0.999512
-0.999242
-0.999093
-0.999278
-0.999785
-0.999965
-0.999981
-0.994023
-0.99965
-0.999375
-0.999906
-0.999997
-0.999998
-0.999997
-0.999876
-0.998947
-0.995982
-0.969831
-0.955201
-0.992029
-0.999816
-0.999988
-0.999965
-0.99988
-0.99981
-0.999679
-0.999645
-0.999888
-0.999988
-0.999996
-0.997615
-0.999858
-0.999727
-0.999979
-1
-0.999999
-0.999999
-0.999925
-0.997889
-0.987393
-0.954711
-0.896187
-0.965621
-0.998064
-0.999995
-0.999996
-0.999993
-0.999987
-0.999971
-0.999962
-0.999991
-0.999998
-0.999998
-0.999487
-0.99995
-0.999894
-0.999997
-1
-1
-1
-0.999987
-0.997806
-0.977619
-0.903821
-0.722502
-0.907017
-0.990731
-0.999997
-0.999999
-0.999999
-1
-1
-1
-1
-1
-0.999999
-0.999967
-0.999984
-0.999961
-1
-1
-1
-1
-0.999997
-0.999962
-0.999235
-0.989794
-0.931521
-0.996959
-0.999999
-0.999999
-1
-1
-1
-1
-1
-1
-1
-1
-1
-0.999999
-0.999987
-1
-1
-1
-1
-1
-1
-1
-0.999999
-0.999996
-1
-1
-1
-1
-1
-1
-1
-1
-1
-1
-1
-1
-1
-0.999996
-1
-1
-1
-1
-1
-1
-1
-1
-1
-1
-1
-1
-1
-1
-1
-1
-1
-1
-1
-1
-1
-1
-1
-1
-1
-1
-1
-1
-1
-1
-1
-1
-1
-1
-1
-1
-1
-1
-1
-1
-1
-1
-1
-1
-1
-1
-1
-1
-1
-1
-1
-1
-1
-1
-1
-1
-1
-1
-1
-1
-1
-1
-1
-1
-1
-1
-1
-1
-1
-1
-1
-1
-1
-1
-1
-1
-1
-1
-1
-1
-1
-1
-1
-1
-1
-1
-1
-1
-1
-1
-1
-1
-1
-1
-1
-1
-1
-1
-1
-1
-1
-1
-1
-1
-1
-1
-1
-1
-1
-1
-1
-1
-1
-1
-1
-1
-1
-1
-1
-1
-1
-1
-1
-1
-1
-1
-1
-1
-1
-1
-1
-1
-1
-1
-1
-1
-1
-1
-1
-1
-1
-1
-1
-1
-1
-1
-1
-1
-1
-1
-1
-1
-1
-1
-1
-1
-1
-1
-1
-1
-1
-1
-1
-1
-1
-1
-1
-1
-1
-1
-1
-1
-1
-1
-1
-1
-1
-1
-1
-1
-1
-1
-1
-1
-1
-1
-1
-1
-1
-1
-1
-1
-1
-1
-1
-1
-1
-1
-1
-1
-1
-1
-1
-1
-1
-1
-1
-1
-1
-1
-1
-1
-1
-1
-1
-1
-1
-1
-1
-1
-1
-1
-1
-1
-1
-1
-1
-1
-1
-1
-1
-1
-1
-1
-1
-1
-1
-1
-1
-1
-1
-1
-1
-1
-1
-1
-1
-1
-1
-1
-1
-1
-1
-1
-1
-1
-1
-1
-1
-1
-1
-1
-1
-1
-1
-1
-1
-1
-1
-1
-1
-1
-1
-1
-1
-1
-1
-1
-1
-1
-1
-1
-1
-1
-1
-1
-1
-1
-1
-1
-1
-1
-1
-1
-1
-1
-1
-1
-1
-1
-1
-1
-1
-1
-1
-1
-1
-1
-1
-1
-1
-1
-1
-1
-1
-1
-1
-1
-1
-1
-1
-1
-1
-1
-1
-1
-1
-1
-1
-1
-1
-1
-1
-1
-1
-1
-1
-1
-1
-1
-1
-1
-1
-1
-1
-1
-1
-1
-1
-1
-1
-1
-1
-1
-1
-1
-1
-1
-1
-1
-1
-1
-1
-1
-1
-1
-1
-1
-1
-1
-1
-1
-1
-1
-1
-1
-1
-1
-1
-1
-1
-1
-1
-1
-1
-1
-1
-1
-1
-1
-1
-1
-1
-1
-1
-1
-1
-1
-1
-1
-1
-1
-1
-1
-1
-1
-1
-1
-1
-1
-1
-1
-1
-1
-1
-1
-1
-1
-1
-1
-1
-1
-1
-1
-1
-1
-1
-1
-1
-1
-1
-1
-1
-1
-1
-1
-1
-1
-1
-1
-1
-1
-1
-1
-1
-1
-1
-1
-1
-1
-1
-1
-1
-1
-1
-1
-1
-1
-1
-1
-1
-1
-1
-1
-1
-1
-1
-1
-1
-1
-1
-1
-1
-1
-1
-1
-1
-1
-1
-1
-1
-1
-1
-1
-1
-1
-1
-1
-1
-1
-1
-1
-1
-1
-1
-1
-1
-1
-1
-1
-1
-1
-1
-1
-1
-1
-1
-1
-1
-1
-1
-1
-1
-1
-1
-1
-1
-1
-1
-1
-1
-1
-1
-1
-1
-1
0.767761
0.768598
0.707647
-0.792759
0.836549
0.818822
0.781936
0.761689
0.90796
0.893014
0.886621
0.884121
0.829274
0.812186
0.806104
0.814219
0.145892
0.146239
0.185934
0.306946
-0.420446
-0.422242
-0.410591
-0.365959
-0.7275
-0.708893
-0.67775
-0.619268
-0.83206
-0.816353
-0.79722
-0.784572
-0.926163
-0.925584
-0.923427
-0.921951
-0.976186
-0.972408
-0.940852
-0.907173
-0.963661
-0.949788
-0.947624
-0.97622
-0.987194
-0.988704
-0.994652
-0.997725
-0.999445
-0.99971
-0.999888
-0.999944
-0.999986
-0.999986
-0.999987
-0.999985
-0.999998
-0.999998
-0.999997
-0.999996
-1
-1
-0.999999
-0.999999
-1
-1
-1
-1
-1
-1
-1
-1
-1
-1
-1
-1
-1
-1
-1
-1
-1
-1
-1
-1
-1
-1
-1
-1
-1
-1
-1
-1
-1
-1
-1
-1
-1
-1
-1
-1
-1
-1
-1
-1
-1
-1
-1
-1
-1
-1
-1
-1
-1
-1
-1
-1
-1
-1
-1
-1
-1
-1
-1
-1
-1
-1
-1
-1
-1
-1
-1
-1
-1
-1
-1
-1
-1
-1
-1
-1
-1
-1
-1
-1
-1
-1
-1
-1
-1
-1
-1
-1
-1
-1
-1
-1
-1
-1
-1
-1
-1
-1
-1
-1
-1
-1
-1
-1
-0.713045
-0.481107
-0.18909
0.277239
0.14623
0.113846
0.157763
0.177445
0.301421
0.429611
0.462896
0.442254
0.362534
0.221018
0.000154722
-0.089207
-0.115005
-0.173452
-0.461712
0.747863
0.659136
0.621096
0.67977
0.661204
0.62197
0.573491
0.526337
0.521073
0.518061
0.504338
0.469614
0.33797
0.104791
-0.208766
-0.387458
-0.310052
-0.264102
-0.473748
0.878449
0.865327
0.852065
0.828929
0.764484
0.674722
0.595239
0.486435
0.466252
0.406904
0.358472
0.295622
0.173395
-0.0909539
-0.332859
-0.55525
-0.616831
-0.463773
-0.514616
0.83136
0.832177
0.821763
0.787055
0.725859
0.629068
0.397899
0.186065
-0.0836424
-0.0711728
-0.0189031
0.0111145
-0.116433
-0.518601
-0.720742
-0.751234
-0.832913
-0.654487
-0.565769
0.470518
0.540484
0.64758
0.62463
0.563338
0.336566
-0.158319
-0.30854
-0.481548
-0.380568
-0.273723
-0.315658
-0.587299
-0.781981
-0.865471
-0.852293
-0.892667
-0.791818
-0.619859
-0.208259
-0.11847
0.108418
0.151426
0.140465
0.019611
-0.474941
-0.56129
-0.65616
-0.631292
-0.50769
-0.620197
-0.879994
-0.931988
-0.938607
-0.915032
-0.921638
-0.874639
-0.676509
-0.55607
-0.546757
-0.502916
-0.391862
-0.306443
-0.451
-0.733973
-0.738368
-0.786511
-0.845018
-0.852961
-0.916503
-0.970792
-0.979801
-0.972045
-0.959011
-0.936195
-0.917752
-0.724062
-0.776151
-0.707964
-0.6613
-0.661618
-0.615518
-0.742774
-0.879299
-0.860651
-0.89123
-0.934423
-0.948291
-0.95883
-0.9672
-0.980015
-0.981065
-0.978684
-0.947573
-0.940916
-0.764606
-0.888143
-0.75863
-0.750542
-0.871403
-0.855146
-0.899495
-0.961537
-0.953604
-0.965771
-0.978313
-0.983303
-0.989013
-0.988767
-0.986742
-0.986734
-0.985782
-0.963618
-0.954893
-0.799224
-0.905942
-0.869849
-0.875253
-0.946165
-0.959992
-0.980333
-0.996169
-0.996017
-0.996284
-0.996381
-0.995691
-0.995616
-0.994613
-0.9914
-0.990272
-0.990887
-0.976696
-0.964767
-0.828845
-0.992791
-0.978136
-0.976792
-0.988273
-0.991499
-0.996699
-0.999227
-0.999546
-0.999616
-0.999481
-0.999005
-0.99813
-0.996985
-0.994724
-0.99284
-0.993452
-0.984428
-0.971935
-0.853751
-0.999587
-0.998849
-0.998473
-0.998215
-0.998967
-0.99957
-0.999816
-0.99984
-0.999803
-0.999694
-0.999416
-0.998786
-0.997954
-0.996504
-0.994627
-0.994747
-0.990004
-0.97774
-0.874835
-0.999957
-0.99994
-0.99988
-0.999818
-0.999839
-0.999928
-0.999936
-0.999897
-0.999777
-0.999516
-0.998794
-0.996661
-0.995979
-0.995759
-0.995205
-0.995333
-0.993035
-0.982367
-0.892718
-0.999985
-0.999981
-0.999977
-0.999985
-0.999962
-0.999971
-0.999951
-0.999877
-0.999722
-0.999367
-0.998508
-0.995878
-0.99483
-0.995203
-0.995236
-0.995595
-0.994767
-0.985525
-0.907424
-0.999996
-0.999996
-0.999995
-0.999996
-0.99999
-0.999982
-0.99995
-0.999841
-0.999547
-0.999176
-0.998463
-0.996114
-0.994078
-0.994346
-0.994899
-0.9955
-0.995764
-0.988794
-0.920001
-0.999999
-0.999999
-0.999998
-0.999998
-0.999992
-0.999986
-0.999959
-0.999929
-0.999833
-0.999414
-0.998507
-0.995912
-0.993951
-0.994055
-0.994627
-0.995314
-0.996149
-0.991549
-0.930829
-1
-1
-0.999999
-0.999998
-0.999995
-0.999995
-0.99999
-0.999975
-0.999926
-0.999638
-0.999414
-0.998811
-0.996164
-0.994922
-0.995505
-0.995431
-0.996269
-0.9934
-0.9402
-1
-1
-1
-0.999999
-0.999999
-0.999999
-0.999997
-0.999989
-0.999976
-0.999928
-0.999876
-0.99987
-0.999755
-0.998573
-0.998102
-0.996002
-0.996491
-0.994801
-0.948627
-1
-1
-1
-1
-1
-1
-0.999999
-0.999994
-0.999988
-0.999971
-0.999956
-0.99996
-0.99995
-0.999839
-0.999622
-0.997625
-0.996959
-0.995963
-0.955876
-1
-1
-1
-1
-1
-1
-0.999999
-0.999998
-0.999995
-0.999991
-0.999987
-0.999988
-0.999975
-0.999925
-0.999807
-0.999058
-0.997783
-0.99713
-0.961975
-1
-1
-1
-1
-1
-1
-1
-0.999999
-0.999998
-0.999997
-0.999995
-0.999992
-0.999973
-0.999911
-0.999822
-0.999554
-0.998715
-0.998022
-0.967167
-1
-1
-1
-1
-1
-1
-1
-1
-0.999999
-0.999999
-0.999998
-0.999993
-0.999967
-0.999862
-0.999578
-0.999473
-0.999128
-0.998534
-0.972056
-1
-1
-1
-1
-1
-1
-1
-1
-1
-1
-0.999999
-0.999992
-0.999956
-0.999816
-0.99963
-0.999289
-0.999159
-0.998739
-0.976327
-1
-1
-1
-1
-1
-1
-1
-1
-1
-1
-0.999999
-0.99999
-0.999944
-0.999633
-0.999002
-0.99877
-0.999084
-0.99872
-0.979927
-1
-1
-1
-1
-1
-1
-1
-1
-1
-1
-1
-0.999995
-0.999941
-0.999554
-0.998801
-0.997634
-0.998863
-0.998629
-0.982019
-1
-1
-1
-1
-1
-1
-1
-1
-1
-1
-1
-0.999998
-0.999982
-0.999879
-0.999389
-0.997372
-0.998437
-0.998255
-0.982843
-1
-1
-1
-1
-1
-1
-1
-1
-1
-1
-1
-0.999998
-0.999981
-0.999871
-0.999221
-0.997316
-0.997339
-0.996929
-0.983542
-1
-1
-1
-1
-1
-1
-1
-1
-1
-1
-1
-0.999998
-0.999982
-0.999892
-0.999371
-0.997405
-0.995697
-0.994699
-0.984324
-1
-1
-1
-1
-1
-1
-1
-1
-1
-1
-1
-0.999996
-0.999972
-0.999868
-0.999442
-0.99779
-0.994892
-0.993086
-0.985252
-1
-1
-1
-1
-1
-1
-1
-1
-1
-1
-0.999999
-0.999991
-0.999901
-0.999549
-0.998497
-0.996781
-0.994107
-0.99194
-0.986274
-1
-1
-1
-1
-1
-1
-1
-1
-1
-1
-1
-0.999999
-0.999986
-0.999898
-0.999513
-0.997806
-0.994153
-0.991587
-0.987327
-1
-1
-1
-1
-1
-1
-1
-1
-1
-1
-1
-1
-0.999998
-0.999979
-0.999804
-0.998783
-0.995379
-0.99224
-0.988986
-1
-1
-1
-1
-1
-1
-1
-1
-1
-1
-1
-1
-1
-0.999997
-0.999961
-0.999674
-0.998188
-0.995315
-0.992801
-1
-1
-1
-1
-1
-1
-1
-1
-1
-1
-1
-1
-1
-1
-0.999994
-0.999941
-0.99961
-0.998589
-0.997527
-1
-1
-1
-1
-1
-1
-1
-1
-1
-1
-1
-1
-1
-1
-0.999999
-0.999992
-0.999941
-0.999729
-0.99949
-1
-1
-1
-1
-1
-1
-1
-1
-1
-1
-1
-1
-1
-1
-1
-0.999999
-0.999994
-0.999965
-0.999931
-1
-1
-1
-1
-1
-1
-1
-1
-1
-1
-1
-1
-1
-1
-1
-1
-0.999999
-0.999997
-0.999993
-1
-1
-1
-1
-1
-1
-1
-1
-1
-1
-1
-1
-1
-1
-1
-1
-1
-1
-1
-1
-1
-1
-1
-1
-1
-1
-1
-1
-1
-1
-1
-1
-1
-1
-1
-1
-1
-1
-1
-1
-1
-1
-1
-1
-1
-1
-1
-1
-1
-1
-1
-1
-1
-1
-1
-1
-1
-1
-1
-1
-1
-1
-1
-1
-1
-1
-1
-1
-1
-1
-1
-1
-1
-1
-1
-1
-1
-1
-1
-1
-1
-1
-1
-1
-1
-1
-1
-1
-1
-1
-1
-1
-1
-1
-1
)
;

boundaryField
{
    leftWall
    {
        type            zeroGradient;
    }
    rightWall
    {
        type            zeroGradient;
    }
    lowerWall
    {
        type            zeroGradient;
    }
    atmosphere
    {
        type            zeroGradient;
    }
    defaultFaces
    {
        type            empty;
    }
}


// ************************************************************************* //
