/*--------------------------------*- C++ -*----------------------------------*\
| =========                 |                                                 |
| \\      /  F ield         | foam-extend: Open Source CFD                    |
|  \\    /   O peration     | Version:     4.1                                |
|   \\  /    A nd           | Web:         http://www.foam-extend.org         |
|    \\/     M anipulation  |                                                 |
\*---------------------------------------------------------------------------*/
FoamFile
{
    version     2.0;
    format      ascii;
    class       volScalarField;
    location    "0.4";
    object      C_0;
}
// * * * * * * * * * * * * * * * * * * * * * * * * * * * * * * * * * * * * * //

dimensions      [0 0 0 0 0 0 0];

internalField   nonuniform List<scalar> 
2268
(
1
1
1
1
1
1
1
1
1
0.999995
0.999998
0.999998
0.999999
1
1
0.999997
0.99998
0.999898
0.999724
0.994811
0.98778
0.916284
0.0371466
1
1
1
1
1
1
1
0.999997
0.999999
0.999966
0.999983
0.999984
0.999988
0.999993
0.999996
0.999992
0.999957
0.998616
0.997993
0.992168
0.977493
0.934361
0.908117
1
1
1
1
0.999998
0.999998
0.999999
0.99998
0.999986
0.999875
0.999561
0.999692
0.999818
0.999935
0.999864
0.999673
0.999173
0.996469
0.991181
0.972211
0.81984
0.885183
0.88091
1
1
1
0.999998
0.999985
0.999983
0.999986
0.999898
0.999899
0.999344
0.997827
0.997493
0.998558
0.999339
0.999555
0.999489
0.999144
0.997861
0.993522
0.968152
0.732249
0.800033
0.847393
1
1
0.999999
0.999982
0.999905
0.999902
0.999886
0.999574
0.999342
0.996906
0.988339
0.991158
0.995335
0.995779
0.997502
0.998664
0.99847
0.997078
0.992503
0.965087
0.733429
0.745003
0.819787
1
0.999998
0.999994
0.999871
0.999559
0.999546
0.999182
0.998492
0.995495
0.987639
0.970947
0.978036
0.979649
0.98563
0.987095
0.993321
0.996851
0.99698
0.995266
0.971122
0.772312
0.687576
0.788811
0.999996
0.999981
0.999949
0.999307
0.998401
0.998226
0.996357
0.994109
0.982342
0.952095
0.933564
0.914901
0.933827
0.961372
0.954332
0.972437
0.988342
0.994784
0.995586
0.984028
0.86932
0.686492
0.773616
0.999966
0.999806
0.999629
0.997113
0.995223
0.993915
0.987347
0.982582
0.958643
0.889342
0.80667
0.810461
0.855563
0.856404
0.869823
0.927101
0.975457
0.991234
0.995032
0.990049
0.94034
0.719592
0.737877
-0.985202
-0.982862
-0.982748
-0.982667
-0.976086
-0.965206
-0.947364
-0.901027
-0.731282
-0.59953
-0.502812
-0.410876
-0.273551
-0.23126
-0.234318
-0.307542
-0.453943
-0.620268
-0.801137
-0.987352
-0.993198
-0.99809
-0.997509
-0.99354
-0.985013
-0.975756
-0.965522
-0.841946
-0.575078
-0.44538
-0.587545
-0.399225
-0.286206
-0.178703
-0.244426
-0.366057
-0.528402
-0.719754
-0.990422
-0.9971
-0.998577
-0.998289
-0.996847
-0.98811
-0.969901
-0.934556
-0.888581
-0.701406
-0.625447
-0.553281
-0.530997
-0.38454
-0.177506
-0.182942
-0.252842
-0.415664
-0.669236
-0.992356
-0.997889
-0.993372
-0.991568
-0.997232
-0.994926
-0.97208
-0.90759
-0.866016
-0.69971
-0.642385
-0.661139
-0.569108
-0.385099
-0.166559
-0.145113
-0.183734
-0.328814
-0.628602
-0.993613
-0.997115
-0.98166
-0.948205
-0.983566
-0.993888
-0.96999
-0.86023
-0.404455
-0.52672
-0.371152
-0.462126
-0.222333
-0.118056
-0.0811692
-0.0935855
-0.131092
-0.270054
-0.60438
-0.994175
-0.993181
-0.95124
-0.748136
-0.915816
-0.980685
-0.942508
-0.630485
0.0472952
-0.0762791
0.106117
-0.0208807
0.0812031
0.0354707
-0.0201978
-0.0592411
-0.097183
-0.210465
-0.568929
-0.994387
-0.982498
-0.864284
-0.384067
-0.758857
-0.915392
-0.897406
-0.756967
-0.151959
0.0958005
0.296998
0.250588
0.242282
0.158065
0.0325893
-0.028647
-0.0776736
-0.176738
-0.540019
-0.995126
-0.863851
-0.655207
-0.112987
-0.518077
-0.671624
-0.757249
-0.670194
-0.275266
0.216278
0.385548
0.371902
0.323715
0.196735
0.0392049
-0.0285556
-0.0774726
-0.16409
-0.510918
0.999616
0.997107
0.996643
0.986569
0.983282
0.975049
0.954628
0.939553
0.881718
0.695687
0.49263
0.535672
0.522341
0.548211
0.619918
0.595639
0.695526
0.874122
0.966126
0.985055
0.978289
0.891058
0.771818
0.996427
0.967576
0.974538
0.939876
0.937162
0.892205
0.836163
0.808352
0.687432
0.412725
0.211449
0.0828235
0.00286492
-0.00895131
-0.00751434
-0.0246671
0.090206
0.43608
0.798455
0.915465
0.959777
0.944725
0.889478
0.972649
0.82879
0.882057
0.784755
0.78516
0.667307
0.587625
0.574128
0.521936
0.383331
0.277227
0.123195
-0.0127263
-0.106478
-0.174259
-0.233625
-0.232877
-0.0868939
0.412668
0.744783
0.910043
0.934062
0.919888
0.8712
0.316462
0.655399
0.365421
0.409062
0.231305
0.190089
0.081368
0.0317228
0.135029
0.336441
0.307277
0.145902
-0.0491584
-0.159444
-0.223639
-0.317901
-0.302425
-0.032455
0.526159
0.766175
0.831319
0.836684
0.592656
-0.152235
0.185371
-0.127966
-0.274777
-0.282895
-0.242253
-0.469196
-0.467686
-0.426258
-0.0960186
0.0874241
-0.0118722
-0.211858
-0.271611
-0.207215
-0.205254
-0.339747
-0.23077
-0.0244783
0.210385
0.316052
0.19624
0.0991882
-0.352448
-0.377952
-0.548696
-0.691266
-0.638523
-0.575309
-0.726375
-0.677655
-0.73231
-0.690236
-0.403561
-0.529657
-0.730837
-0.691825
-0.528405
-0.360445
-0.455277
-0.432878
-0.397971
-0.340821
-0.340605
-0.397246
-0.375635
-0.530062
-0.684007
-0.781527
-0.847427
-0.832967
-0.774536
-0.833644
-0.805673
-0.863571
-0.89549
-0.781298
-0.873213
-0.890704
-0.855307
-0.742376
-0.549352
-0.761461
-0.800223
-0.744164
-0.727659
-0.737027
-0.736407
-0.687701
-0.714523
-0.819924
-0.884523
-0.926422
-0.927634
-0.85927
-0.893486
-0.899791
-0.898415
-0.920754
-0.95071
-0.956986
-0.935827
-0.939499
-0.965287
-0.839615
-0.956143
-0.978276
-0.964642
-0.939974
-0.882416
-0.851733
-0.822176
-0.849
-0.914363
-0.947338
-0.974229
-0.96157
-0.905444
-0.944252
-0.936075
-0.907165
-0.923556
-0.972728
-0.976098
-0.987751
-0.995181
-0.998129
-0.986671
-0.995403
-0.989887
-0.98215
-0.965679
-0.927363
-0.925045
-0.894103
-0.934079
-0.962958
-0.980676
-0.992414
-0.977793
-0.966161
-0.97083
-0.944658
-0.916496
-0.91951
-0.979774
-0.989298
-0.996254
-0.999106
-0.998683
-0.997806
-0.99579
-0.981712
-0.98604
-0.978876
-0.967209
-0.976803
-0.943519
-0.978878
-0.982651
-0.992959
-0.997675
-0.990866
-0.986912
-0.984603
-0.963147
-0.937806
-0.917567
-0.983197
-0.995501
-0.999116
-0.999418
-0.998327
-0.996174
-0.994748
-0.994606
-0.995833
-0.992941
-0.990516
-0.990607
-0.967079
-0.992201
-0.990796
-0.996286
-0.999031
-0.998432
-0.997281
-0.996411
-0.989723
-0.973003
-0.932318
-0.986869
-0.998327
-0.999561
-0.999698
-0.998993
-0.998195
-0.997696
-0.997487
-0.997211
-0.997132
-0.99688
-0.994761
-0.978408
-0.996467
-0.995728
-0.998132
-0.99958
-0.99988
-0.999757
-0.999741
-0.999131
-0.993004
-0.947115
-0.98405
-0.99887
-0.999802
-0.999911
-0.999603
-0.998847
-0.998547
-0.998373
-0.998446
-0.999287
-0.999627
-0.999667
-0.985547
-0.997603
-0.998353
-0.999477
-0.999947
-0.999988
-0.999983
-0.999875
-0.999507
-0.996232
-0.965781
-0.969955
-0.996499
-0.999825
-0.999965
-0.999882
-0.999511
-0.999238
-0.999086
-0.999266
-0.999779
-0.999964
-0.99998
-0.993776
-0.999635
-0.999345
-0.999899
-0.999997
-0.999998
-0.999997
-0.999871
-0.998984
-0.996105
-0.969937
-0.955538
-0.992224
-0.999823
-0.999988
-0.999965
-0.99988
-0.999808
-0.999675
-0.999639
-0.999884
-0.999987
-0.999996
-0.997488
-0.999852
-0.999714
-0.999977
-1
-0.999999
-0.999999
-0.999918
-0.997873
-0.987685
-0.955796
-0.897848
-0.966092
-0.998122
-0.999995
-0.999996
-0.999993
-0.999987
-0.999971
-0.999961
-0.99999
-0.999998
-0.999998
-0.999452
-0.999947
-0.999888
-0.999996
-1
-1
-0.999999
-0.999986
-0.997731
-0.977535
-0.902795
-0.720408
-0.906732
-0.990812
-0.999997
-0.999999
-0.999999
-1
-1
-1
-1
-1
-0.999999
-0.999965
-0.999983
-0.999959
-0.999999
-1
-1
-1
-0.999996
-0.999959
-0.999183
-0.98931
-0.928353
-0.996775
-0.999999
-0.999999
-1
-1
-1
-1
-1
-1
-1
-1
-1
-0.999999
-0.999986
-1
-1
-1
-1
-1
-1
-1
-0.999999
-0.999996
-1
-1
-1
-1
-1
-1
-1
-1
-1
-1
-1
-1
-1
-0.999996
-1
-1
-1
-1
-1
-1
-1
-1
-1
-1
-1
-1
-1
-1
-1
-1
-1
-1
-1
-1
-1
-1
-1
-1
-1
-1
-1
-1
-1
-1
-1
-1
-1
-1
-1
-1
-1
-1
-1
-1
-1
-1
-1
-1
-1
-1
-1
-1
-1
-1
-1
-1
-1
-1
-1
-1
-1
-1
-1
-1
-1
-1
-1
-1
-1
-1
-1
-1
-1
-1
-1
-1
-1
-1
-1
-1
-1
-1
-1
-1
-1
-1
-1
-1
-1
-1
-1
-1
-1
-1
-1
-1
-1
-1
-1
-1
-1
-1
-1
-1
-1
-1
-1
-1
-1
-1
-1
-1
-1
-1
-1
-1
-1
-1
-1
-1
-1
-1
-1
-1
-1
-1
-1
-1
-1
-1
-1
-1
-1
-1
-1
-1
-1
-1
-1
-1
-1
-1
-1
-1
-1
-1
-1
-1
-1
-1
-1
-1
-1
-1
-1
-1
-1
-1
-1
-1
-1
-1
-1
-1
-1
-1
-1
-1
-1
-1
-1
-1
-1
-1
-1
-1
-1
-1
-1
-1
-1
-1
-1
-1
-1
-1
-1
-1
-1
-1
-1
-1
-1
-1
-1
-1
-1
-1
-1
-1
-1
-1
-1
-1
-1
-1
-1
-1
-1
-1
-1
-1
-1
-1
-1
-1
-1
-1
-1
-1
-1
-1
-1
-1
-1
-1
-1
-1
-1
-1
-1
-1
-1
-1
-1
-1
-1
-1
-1
-1
-1
-1
-1
-1
-1
-1
-1
-1
-1
-1
-1
-1
-1
-1
-1
-1
-1
-1
-1
-1
-1
-1
-1
-1
-1
-1
-1
-1
-1
-1
-1
-1
-1
-1
-1
-1
-1
-1
-1
-1
-1
-1
-1
-1
-1
-1
-1
-1
-1
-1
-1
-1
-1
-1
-1
-1
-1
-1
-1
-1
-1
-1
-1
-1
-1
-1
-1
-1
-1
-1
-1
-1
-1
-1
-1
-1
-1
-1
-1
-1
-1
-1
-1
-1
-1
-1
-1
-1
-1
-1
-1
-1
-1
-1
-1
-1
-1
-1
-1
-1
-1
-1
-1
-1
-1
-1
-1
-1
-1
-1
-1
-1
-1
-1
-1
-1
-1
-1
-1
-1
-1
-1
-1
-1
-1
-1
-1
-1
-1
-1
-1
-1
-1
-1
-1
-1
-1
-1
-1
-1
-1
-1
-1
-1
-1
-1
-1
-1
-1
-1
-1
-1
-1
-1
-1
-1
-1
-1
-1
-1
-1
-1
-1
-1
-1
-1
-1
-1
-1
-1
-1
-1
-1
-1
-1
-1
-1
-1
-1
-1
-1
-1
-1
-1
-1
-1
-1
-1
-1
-1
-1
-1
-1
-1
-1
-1
-1
-1
-1
-1
-1
-1
-1
-1
-1
-1
-1
-1
-1
-1
-1
-1
-1
-1
-1
-1
-1
-1
-1
-1
-1
-1
-1
-1
-1
-1
-1
-1
-1
-1
-1
-1
-1
-1
-1
-1
-1
-1
-1
-1
-1
-1
-1
-1
-1
-1
-1
-1
-1
-1
-1
-1
-1
-1
-1
-1
-1
-1
-1
-1
-1
-1
-1
-1
-1
-1
-1
-1
-1
-1
-1
-1
-1
-1
-1
-1
-1
-1
-1
-1
-1
-1
-1
-1
-1
-1
-1
-1
-1
-1
0.767547
0.768667
0.708203
-0.792913
0.836681
0.819016
0.782871
0.762856
0.907628
0.892708
0.886956
0.884223
0.826561
0.81157
0.808702
0.817605
0.143828
0.148915
0.198458
0.324359
-0.423099
-0.422154
-0.405726
-0.350697
-0.723921
-0.702667
-0.668449
-0.607465
-0.828772
-0.813157
-0.794676
-0.784283
-0.925189
-0.925227
-0.923356
-0.922304
-0.976179
-0.972221
-0.939333
-0.906489
-0.964143
-0.949818
-0.946931
-0.975742
-0.987066
-0.988351
-0.994479
-0.997654
-0.999432
-0.999693
-0.999882
-0.999942
-0.999985
-0.999986
-0.999986
-0.999985
-0.999998
-0.999998
-0.999997
-0.999996
-1
-1
-0.999999
-0.999999
-1
-1
-1
-1
-1
-1
-1
-1
-1
-1
-1
-1
-1
-1
-1
-1
-1
-1
-1
-1
-1
-1
-1
-1
-1
-1
-1
-1
-1
-1
-1
-1
-1
-1
-1
-1
-1
-1
-1
-1
-1
-1
-1
-1
-1
-1
-1
-1
-1
-1
-1
-1
-1
-1
-1
-1
-1
-1
-1
-1
-1
-1
-1
-1
-1
-1
-1
-1
-1
-1
-1
-1
-1
-1
-1
-1
-1
-1
-1
-1
-1
-1
-1
-1
-1
-1
-1
-1
-1
-1
-1
-1
-1
-1
-1
-1
-1
-1
-1
-1
-1
-1
-1
-1
-0.708803
-0.475773
-0.173587
0.272731
0.150338
0.115824
0.146574
0.166287
0.299416
0.432054
0.461001
0.438603
0.352708
0.20717
-0.0116203
-0.094873
-0.121536
-0.18121
-0.470985
0.74577
0.654839
0.625192
0.678012
0.657004
0.61431
0.566285
0.523803
0.520911
0.517959
0.504569
0.466199
0.325598
0.0871751
-0.225491
-0.394021
-0.322258
-0.277286
-0.485005
0.877941
0.864237
0.850214
0.825074
0.756635
0.667063
0.590073
0.48582
0.468947
0.415099
0.367168
0.297281
0.156714
-0.12397
-0.357335
-0.57317
-0.635407
-0.484565
-0.526604
0.832289
0.831773
0.819567
0.782439
0.720111
0.621233
0.386791
0.184255
-0.0701595
-0.0538273
0.000707023
0.0247244
-0.125715
-0.543436
-0.732031
-0.762303
-0.842114
-0.673449
-0.577741
0.477576
0.542867
0.645721
0.621864
0.559194
0.320371
-0.173593
-0.305578
-0.466492
-0.363011
-0.264076
-0.31619
-0.599226
-0.788963
-0.869639
-0.857863
-0.896875
-0.80512
-0.63231
-0.193245
-0.110211
0.11165
0.151975
0.139816
0.00104837
-0.491138
-0.556437
-0.646989
-0.61662
-0.496535
-0.625604
-0.884964
-0.933242
-0.940247
-0.918389
-0.923621
-0.882621
-0.688559
-0.55378
-0.546811
-0.500583
-0.382014
-0.309871
-0.474266
-0.739438
-0.732395
-0.781339
-0.839845
-0.851135
-0.919366
-0.971758
-0.97994
-0.972678
-0.960736
-0.937369
-0.92254
-0.734787
-0.776148
-0.70319
-0.660891
-0.662464
-0.626032
-0.760709
-0.879224
-0.855821
-0.887888
-0.932452
-0.947458
-0.958937
-0.967639
-0.980405
-0.981471
-0.979477
-0.948931
-0.94358
-0.773995
-0.885056
-0.754302
-0.75192
-0.874804
-0.864546
-0.907359
-0.961515
-0.951288
-0.964154
-0.977238
-0.982888
-0.988941
-0.988738
-0.986889
-0.987034
-0.986234
-0.965304
-0.956538
-0.807361
-0.904782
-0.870359
-0.878573
-0.949008
-0.963816
-0.982863
-0.996409
-0.995838
-0.996041
-0.996119
-0.995517
-0.995552
-0.994571
-0.991476
-0.990502
-0.991167
-0.977879
-0.965879
-0.835859
-0.992535
-0.97844
-0.977905
-0.988979
-0.992407
-0.997164
-0.999296
-0.999545
-0.999601
-0.999457
-0.998971
-0.998086
-0.996939
-0.994735
-0.992994
-0.993618
-0.985223
-0.972729
-0.859722
-0.99958
-0.998842
-0.998525
-0.99832
-0.999073
-0.999613
-0.999819
-0.999838
-0.999799
-0.999684
-0.999395
-0.998749
-0.997883
-0.996427
-0.994683
-0.994845
-0.990483
-0.978297
-0.879903
-0.999957
-0.99994
-0.999881
-0.999828
-0.999848
-0.99993
-0.999936
-0.999895
-0.999773
-0.999507
-0.998764
-0.996598
-0.995929
-0.995719
-0.995222
-0.995384
-0.993321
-0.98275
-0.897004
-0.999984
-0.999981
-0.999977
-0.999985
-0.999963
-0.999971
-0.99995
-0.999875
-0.999719
-0.999358
-0.998478
-0.995805
-0.9948
-0.995173
-0.995238
-0.99561
-0.99496
-0.985854
-0.911086
-0.999996
-0.999996
-0.999995
-0.999996
-0.99999
-0.999982
-0.999948
-0.999837
-0.99954
-0.999165
-0.998439
-0.99606
-0.994048
-0.99431
-0.994874
-0.995497
-0.995871
-0.989104
-0.923184
-0.999999
-0.999999
-0.999998
-0.999998
-0.999992
-0.999986
-0.999958
-0.999926
-0.999827
-0.999398
-0.998477
-0.995856
-0.993945
-0.99405
-0.994639
-0.995325
-0.9962
-0.99178
-0.933601
-1
-1
-0.999999
-0.999998
-0.999995
-0.999995
-0.99999
-0.999974
-0.999922
-0.999625
-0.999399
-0.998794
-0.996205
-0.995011
-0.995611
-0.995456
-0.996316
-0.99357
-0.942668
-1
-1
-1
-0.999999
-0.999999
-0.999999
-0.999997
-0.999989
-0.999975
-0.999926
-0.999873
-0.999867
-0.999757
-0.998702
-0.998258
-0.996115
-0.996559
-0.994946
-0.950811
-1
-1
-1
-1
-1
-1
-0.999999
-0.999994
-0.999988
-0.99997
-0.999956
-0.999959
-0.99995
-0.999855
-0.999659
-0.997845
-0.997078
-0.996119
-0.957761
-1
-1
-1
-1
-1
-1
-0.999999
-0.999998
-0.999995
-0.999991
-0.999987
-0.999988
-0.999975
-0.999923
-0.999805
-0.999149
-0.997961
-0.997273
-0.963597
-1
-1
-1
-1
-1
-1
-1
-0.999999
-0.999998
-0.999997
-0.999995
-0.999992
-0.999973
-0.999908
-0.999816
-0.999557
-0.998829
-0.998113
-0.968634
-1
-1
-1
-1
-1
-1
-1
-1
-0.999999
-0.999999
-0.999998
-0.999993
-0.999966
-0.999856
-0.999556
-0.99945
-0.999154
-0.998568
-0.97338
-1
-1
-1
-1
-1
-1
-1
-1
-1
-1
-0.999999
-0.999992
-0.999956
-0.999817
-0.999617
-0.999231
-0.999152
-0.998726
-0.977474
-1
-1
-1
-1
-1
-1
-1
-1
-1
-1
-0.999999
-0.99999
-0.999943
-0.999626
-0.99898
-0.998678
-0.99906
-0.998685
-0.980743
-1
-1
-1
-1
-1
-1
-1
-1
-1
-1
-1
-0.999995
-0.999938
-0.999536
-0.998765
-0.997522
-0.998807
-0.998566
-0.982434
-1
-1
-1
-1
-1
-1
-1
-1
-1
-1
-1
-0.999998
-0.999982
-0.999879
-0.999382
-0.997328
-0.998243
-0.998021
-0.98315
-1
-1
-1
-1
-1
-1
-1
-1
-1
-1
-1
-0.999998
-0.999983
-0.999878
-0.999268
-0.997323
-0.996913
-0.996392
-0.983876
-1
-1
-1
-1
-1
-1
-1
-1
-1
-1
-1
-0.999999
-0.999984
-0.999902
-0.999418
-0.997508
-0.995389
-0.994189
-0.984703
-1
-1
-1
-1
-1
-1
-1
-1
-1
-1
-1
-0.999997
-0.999979
-0.999891
-0.999498
-0.99795
-0.994805
-0.992837
-0.985675
-1
-1
-1
-1
-1
-1
-1
-1
-1
-1
-1
-0.999993
-0.999922
-0.999623
-0.99867
-0.996986
-0.994212
-0.991869
-0.986703
-1
-1
-1
-1
-1
-1
-1
-1
-1
-1
-1
-0.999999
-0.99999
-0.999922
-0.999605
-0.998098
-0.994427
-0.99172
-0.987819
-1
-1
-1
-1
-1
-1
-1
-1
-1
-1
-1
-1
-0.999999
-0.999986
-0.99986
-0.99907
-0.996066
-0.992855
-0.989848
-1
-1
-1
-1
-1
-1
-1
-1
-1
-1
-1
-1
-1
-0.999998
-0.999976
-0.999781
-0.998717
-0.996382
-0.994231
-1
-1
-1
-1
-1
-1
-1
-1
-1
-1
-1
-1
-1
-1
-0.999997
-0.999964
-0.99975
-0.999054
-0.99832
-1
-1
-1
-1
-1
-1
-1
-1
-1
-1
-1
-1
-1
-1
-1
-0.999996
-0.999966
-0.999838
-0.999693
-1
-1
-1
-1
-1
-1
-1
-1
-1
-1
-1
-1
-1
-1
-1
-1
-0.999997
-0.999981
-0.999963
-1
-1
-1
-1
-1
-1
-1
-1
-1
-1
-1
-1
-1
-1
-1
-1
-1
-0.999998
-0.999997
-1
-1
-1
-1
-1
-1
-1
-1
-1
-1
-1
-1
-1
-1
-1
-1
-1
-1
-1
-1
-1
-1
-1
-1
-1
-1
-1
-1
-1
-1
-1
-1
-1
-1
-1
-1
-1
-1
-1
-1
-1
-1
-1
-1
-1
-1
-1
-1
-1
-1
-1
-1
-1
-1
-1
-1
-1
-1
-1
-1
-1
-1
-1
-1
-1
-1
-1
-1
-1
-1
-1
-1
-1
-1
-1
-1
-1
-1
-1
-1
-1
-1
-1
-1
-1
-1
-1
-1
-1
-1
-1
-1
-1
-1
-1
)
;

boundaryField
{
    leftWall
    {
        type            zeroGradient;
    }
    rightWall
    {
        type            zeroGradient;
    }
    lowerWall
    {
        type            zeroGradient;
    }
    atmosphere
    {
        type            zeroGradient;
    }
    defaultFaces
    {
        type            empty;
    }
}


// ************************************************************************* //
