/*--------------------------------*- C++ -*----------------------------------*\
| =========                 |                                                 |
| \\      /  F ield         | foam-extend: Open Source CFD                    |
|  \\    /   O peration     | Version:     4.1                                |
|   \\  /    A nd           | Web:         http://www.foam-extend.org         |
|    \\/     M anipulation  |                                                 |
\*---------------------------------------------------------------------------*/
FoamFile
{
    version     2.0;
    format      ascii;
    class       volScalarField;
    location    "0.4";
    object      p;
}
// * * * * * * * * * * * * * * * * * * * * * * * * * * * * * * * * * * * * * //

dimensions      [1 -1 -2 0 0 0 0];

internalField   nonuniform List<scalar> 
2268
(
1312.17
1312.21
1309.69
1308.63
1301.21
1288.93
1240.29
1259.06
1154.56
1081.91
1339.1
1267.68
1258.15
1255.08
1330.27
1167.03
1177.93
1267.35
1452.88
1466.5
1660.6
1714.13
2314.16
1253.32
1253.43
1250.3
1249.37
1241.4
1225.86
1180.3
1198
1093
998.491
1244.79
1204.28
1187.56
1158.04
1194.88
1212.97
1087.2
1180.88
1420.97
1436.79
1540.35
1578.74
1632.44
1194.17
1194.55
1190.2
1189.67
1179.48
1169.46
1122.68
1119.02
1020.24
1014.6
1044.81
1193.4
1111.4
1169.93
1104.35
1104.41
1058.1
1156.67
1263.85
1419.08
1602.95
1595.53
1626.4
1135.94
1136.21
1130.12
1129.99
1117.6
1096.72
1075.73
1068.3
959.598
984.458
977.773
1055.82
1118.42
921.409
1027.3
1026.58
1056.89
1142.32
1281.91
1317.02
1715.05
1617.53
1563.11
1075.76
1076.83
1068.83
1068.89
1052.24
1027.14
977.468
1002.58
853.943
951.492
889.136
1032.67
877.821
1020.96
928.92
984.689
1055.18
1106.57
1147.34
1236.94
1643.47
1616.32
1510.41
1019.91
1019.93
1008.3
1010.2
984.313
968.132
919.16
976.782
793.858
910.581
844.764
882.781
888.976
953.262
704.411
914.482
1034.08
1077.15
1102.2
1156.79
1494.96
1664.59
1475.17
959.709
959.328
944.866
946.54
920.12
901.419
874.618
885.678
676.173
863.958
821.374
766.771
907.317
815.239
747.957
675.958
1035.05
1029.08
1059.73
1003.08
1213.01
1568.82
1387.5
903.156
907.462
886.485
890.863
848.506
838.092
758.469
835.148
666.4
823.474
972.661
950.881
747.473
955.603
855.925
707.989
875.957
1003.87
928.608
939.039
1023.99
1366.88
1247.55
337.78
332.205
330.751
330.907
333.743
339.454
358.151
406.062
763.699
1193.6
1473.85
1832.72
2228.76
2565.59
2616.72
2548.45
2225.5
1880.67
1471.76
334.321
329.255
327.974
328.161
329.282
330.829
339.655
346.655
528.322
1211.75
1592.7
1306.44
1871.41
2370.07
2626.23
2614.4
2429.75
2122.47
1667.09
330.663
328.53
327.84
327.837
328.755
329.304
339.126
367.278
439.147
836.325
1087.98
1385.95
1518.54
2118.12
2576.67
2672.35
2619.85
2424.21
1808.38
330.461
328.814
327.825
328.066
328.549
327.647
336.161
392.67
473.117
834.971
1068.48
1067.18
1429.52
2131.27
2539.1
2680.36
2706.14
2599.64
1919.36
330.444
328.927
329.225
346.287
330.515
326.991
335.935
470.585
1462.69
1343.18
1792.72
1618.32
2191.58
2540.16
2577.17
2682.98
2708.58
2681.55
1978.31
330.382
329.454
340.787
669.278
374.545
328.347
351.378
955.683
1892.14
2064.35
2070.51
2201.23
2273.89
2530.93
2542.25
2631.6
2671.51
2730.81
2055.07
330.603
331.694
430.476
1520.14
630.736
365.323
393.577
608.743
1696.45
1946.67
1768.87
1909.69
2035.53
2363.08
2461.95
2557.39
2602.52
2712.44
2096.39
328.114
432.633
841.547
1921.64
1207.97
811.592
655.698
863.007
1584.07
1739.78
1549.11
1633.35
1835.74
2210.18
2382.78
2471.62
2504.94
2645.72
2109.77
808.709
806.654
782.644
788.148
695.434
710.852
671.473
665.08
634.095
982.914
1521.06
1462.94
1517.44
1508.19
1067.5
1148.55
1280.23
827.625
767.986
702.397
882.236
737.76
745.948
697.31
721
665.741
686.384
681.509
645.263
690.016
713.505
884.256
1551.16
1945.12
1999.8
2130.98
2046.51
2044.42
2029.45
2077.36
1524.64
778.248
741.59
676.638
257.592
73.6975
567.868
719.337
613.525
855.434
749.14
966.37
1133.52
1165.13
1297.54
1589.45
1632.52
1962.5
2042.63
1911.56
1871.21
1778.08
1836.49
1989.35
1606.8
725.03
529.004
296.789
-60.7656
640.083
1711.36
929.998
1735.9
1606.4
1906.35
1878.09
1870.61
1755.45
1813
1477.13
1593.82
1861.32
1777.57
1770.6
1677.61
1632.06
1633.45
1931.71
1252.89
339.759
260.338
381.071
1089.57
1751.19
1719.13
1664.79
1468.84
1506.84
1629.22
1108.4
1119.49
1134.83
1601.84
1743.48
1698.42
1630.12
1523.86
1625.85
1742.51
1440.2
1596.71
1691.26
1446.27
1339.28
1648.98
1796.06
1416.32
1303.34
864.069
490.098
625.755
830.422
424.417
557.638
384.53
453.517
1207.03
943.061
413.712
486.81
895.729
1385.31
1077.97
1118.2
1239.29
1408.01
1398.44
1271.83
1346.69
926.998
511.709
272.926
148.339
168.095
310.108
197.872
236.789
128.797
78.4889
288.325
127.288
94.1137
118.139
325.602
863.898
308.513
230.325
358.577
422.692
407.059
395.773
545.931
448.191
206.872
89.5938
42.2489
45.9971
135.838
70.8121
71.3307
78.5749
52.6961
23.0456
20.1859
31.1144
24.8702
6.81828
165.336
16.1517
5.63226
11.9535
31.9064
87.1327
126.138
191.941
139.646
48.7246
16.0468
6.10474
11.2814
58.9389
26.5871
36.5623
63.0921
42.2184
6.20508
5.49649
1.17248
-0.324509
-1.10503
1.08641
0.640133
1.15285
3.42125
9.70826
33.9212
34.1639
72.5262
28.3827
10.1455
0.719772
-0.239697
2.71743
7.11475
6.92068
24.1442
45.788
43.6687
2.09164
-0.215736
-0.769422
-0.743311
-0.852331
-0.608641
-0.250144
2.19624
0.668358
1.98811
5.99565
2.10401
20.16
1.58936
1.22093
-0.60946
-0.761787
-0.607612
-0.330616
0.0516854
6.80486
22.7318
43.4207
0.276835
-1.43309
-1.33904
-1.30339
-1.29808
-1.02122
-0.909708
-1.05263
-1.33347
-1.40544
-1.27047
-2.10409
5.67252
-2.06668
-1.30486
-2.05974
-2.09029
-1.98656
-2.26377
-2.45933
-2.4433
0.728518
28.8979
-0.168289
-1.65711
-1.55139
-1.57741
-1.64981
-1.66224
-1.79494
-1.95095
-2.04073
-2.06431
-2.45633
-2.40609
0.350163
-1.66694
-2.52803
-1.84494
-2.15237
-2.10453
-2.11085
-2.14997
-2.26725
-2.48132
15.3568
-0.422251
-1.95765
-1.85432
-1.83859
-1.96234
-2.0687
-2.05482
-2.27766
-2.35701
-2.57513
-2.57371
-2.83928
0.00603706
-2.09652
-1.92611
-2.30154
-2.15623
-2.2843
-2.29254
-2.37272
-2.31918
-1.94769
6.04658
4.11899
-2.03601
-1.97953
-2.14921
-2.20781
-2.32074
-2.41457
-2.48022
-2.64005
-2.62447
-2.80107
-2.76524
-2.11924
-2.37509
-2.3256
-2.41054
-2.40854
-2.50663
-2.49723
-2.55919
-2.63116
-2.86354
3.93796
11.5687
-1.878
-2.14634
-2.37144
-2.41701
-2.53222
-2.57143
-2.6482
-2.73084
-2.80479
-2.87129
-2.98345
-2.38298
-2.44664
-2.4796
-2.57149
-2.50886
-2.64339
-2.68361
-2.65033
-2.58907
-1.65606
9.88386
66.8778
5.23627
-2.2783
-2.71206
-2.60416
-2.71611
-2.76448
-2.82204
-2.88274
-2.98676
-2.97409
-3.06321
-2.83067
-2.61906
-2.70738
-2.72273
-2.73635
-2.92205
-2.68543
-3.17609
-2.99504
-0.102878
56.3632
402.037
52.6752
-2.30848
-2.85527
-2.84456
-2.88097
-2.88932
-2.9729
-2.99639
-3.02375
-3.14431
-3.19956
-2.87928
-2.94121
-2.74788
-2.80745
-2.8157
-2.89747
-3.03455
-3.32594
-3.37473
-3.52892
-3.16207
28.1674
-3.34478
-3.15661
-3.0591
-3.03888
-3.03465
-3.11044
-3.07881
-3.19704
-3.256
-3.2932
-3.35167
-3.10441
-3.09095
-3.21716
-2.85087
-3.24515
-3.16588
-3.13691
-3.13648
-3.17226
-3.25967
-3.33698
-3.4343
-3.14469
-3.24868
-3.1719
-3.14445
-3.20172
-3.19262
-3.30381
-3.33339
-3.31199
-3.42988
-3.45645
-3.24984
-3.26627
-3.27363
-3.37532
-3.37213
-3.28768
-3.17669
-3.22698
-3.33946
-3.335
-3.30368
-3.22288
-3.44216
-3.318
-3.26839
-3.27912
-3.30041
-3.3495
-3.36739
-3.41423
-3.56312
-3.55283
-3.56528
-3.3808
-3.39084
-3.39088
-3.40891
-3.43285
-3.1987
-3.50409
-3.36511
-3.268
-3.38635
-3.4795
-3.62502
-3.41713
-3.44513
-3.40362
-3.42889
-3.47245
-3.456
-3.56219
-3.5816
-3.57305
-3.66353
-3.78498
-3.50107
-3.51308
-3.5182
-3.61947
-3.51015
-3.35799
-3.49466
-3.59864
-3.55564
-3.54728
-3.53611
-3.57281
-3.58306
-3.54186
-3.55374
-3.54026
-3.56812
-3.67566
-3.68852
-3.72084
-3.76252
-3.79163
-3.8552
-3.67787
-3.71346
-3.72602
-3.58174
-3.6963
-3.73928
-3.65747
-3.66094
-3.69973
-3.6893
-3.68094
-3.74461
-3.62887
-3.67855
-3.64055
-3.76127
-3.71271
-3.77573
-3.74222
-3.79054
-3.85314
-3.93509
-4.0341
-3.70802
-3.63027
-3.57571
-3.68936
-3.60196
-3.84544
-3.77056
-3.76288
-3.75133
-3.74966
-3.74241
-3.75411
-3.76706
-3.73823
-3.82338
-3.75173
-3.82901
-3.89494
-3.85449
-4.0159
-3.9846
-4.05492
-4.05254
-3.69715
-3.75303
-3.76102
-3.77248
-3.7708
-3.74819
-3.74592
-3.88987
-3.8502
-3.89131
-3.9328
-3.95347
-3.95653
-3.93745
-3.92052
-4.0226
-3.98482
-3.88477
-4.0712
-4.05786
-4.10328
-4.16354
-4.21436
-3.88143
-3.87887
-3.87456
-3.8883
-3.87962
-3.89914
-3.90794
-3.85291
-3.90823
-3.92669
-3.89608
-3.91106
-3.93361
-3.98618
-4.00118
-4.08031
-3.98236
-4.16538
-4.13887
-4.1907
-4.22021
-4.26812
-4.31936
-3.9868
-3.99655
-3.99804
-4.00192
-4.00671
-4.00773
-4.01778
-4.03743
-4.04949
-4.06534
-4.07623
-4.076
-4.11804
-4.05258
-4.13558
-4.08631
-4.22857
-4.13845
-4.26754
-4.28736
-4.29447
-4.3706
-4.41735
-4.11692
-4.11763
-4.11873
-4.11905
-4.11996
-4.11932
-4.12826
-4.1255
-4.13289
-4.14293
-4.12176
-4.14962
-4.19052
-4.23178
-4.2532
-4.23623
-4.28206
-4.28404
-4.29262
-4.29658
-4.47776
-4.47107
-4.527
-4.23541
-4.23748
-4.23918
-4.23966
-4.24681
-4.25246
-4.26288
-4.26721
-4.29132
-4.30057
-4.32269
-4.30758
-4.3189
-4.32583
-4.27503
-4.45304
-4.32064
-4.48726
-4.45228
-4.45956
-4.5522
-4.55367
-4.61739
-4.35411
-4.35203
-4.34914
-4.34684
-4.34119
-4.30583
-4.32156
-4.36385
-4.37773
-4.39165
-4.38178
-4.41216
-4.4223
-4.44658
-4.47901
-4.50476
-4.5116
-4.51846
-4.53698
-4.54815
-4.55767
-4.72036
-4.7248
-4.47392
-4.47076
-4.47255
-4.48225
-4.49895
-4.55089
-4.55825
-4.51507
-4.50768
-4.50438
-4.52718
-4.51691
-4.53228
-4.5423
-4.54058
-4.53573
-4.58018
-4.63885
-4.63373
-4.67443
-4.78976
-4.78621
-4.82011
-4.58648
-4.58194
-4.58129
-4.58356
-4.58303
-4.58645
-4.59663
-4.62485
-4.66396
-4.65706
-4.64418
-4.64936
-4.63823
-4.65748
-4.68349
-4.69414
-4.80764
-4.67567
-4.81999
-4.76622
-4.77072
-4.78806
-4.93902
-4.69836
-4.69275
-4.69787
-4.70271
-4.71791
-4.76341
-4.7322
-4.72214
-4.67831
-4.66882
-4.71537
-4.69108
-4.739
-4.75315
-4.77166
-4.77696
-4.76731
-4.83183
-4.87038
-4.8645
-4.89636
-4.99613
-5.00023
-4.80178
-4.80257
-4.80592
-4.80824
-4.81276
-4.7658
-4.8137
-4.78644
-4.81988
-4.84592
-4.84891
-4.90258
-4.87976
-4.87807
-4.89357
-4.90408
-4.9419
-4.93531
-4.91861
-5.01785
-5.0577
-4.99068
-5.08803
-4.90919
-4.91556
-4.91703
-4.92139
-4.88446
-4.93147
-4.93797
-4.98686
-4.94273
-4.93362
-4.94305
-4.95369
-4.9698
-4.97604
-4.98766
-4.99931
-5.00733
-5.03425
-5.04381
-5.06841
-5.03952
-5.13963
-5.10459
-5.02501
-5.03124
-5.04413
-5.04036
-5.1003
-5.04375
-5.05679
-5.05293
-5.06299
-5.08073
-5.0972
-5.08854
-5.06917
-5.07982
-5.09912
-5.10752
-5.12724
-5.14525
-5.15562
-5.18956
-5.19707
-5.20786
-5.25774
-5.13944
-5.1455
-5.15247
-5.15174
-5.15995
-5.16121
-5.15958
-5.1735
-5.15484
-5.12448
-5.12835
-5.17478
-5.21892
-5.19655
-5.20266
-5.20565
-5.2183
-5.22923
-5.2464
-5.22942
-5.25432
-5.26254
-5.31273
-5.25895
-5.26134
-5.26134
-5.26694
-5.2761
-5.27209
-5.2719
-5.28243
-5.28639
-5.34741
-5.29204
-5.3031
-5.30099
-5.30001
-5.30646
-5.31324
-5.32427
-5.33201
-5.34776
-5.3498
-5.35722
-5.39696
-5.35745
-5.36597
-5.37231
-5.38161
-5.38895
-5.39384
-5.3989
-5.4201
-5.40341
-5.38804
-5.38683
-5.38341
-5.39251
-5.40435
-5.39842
-5.40146
-5.40279
-5.41019
-5.41583
-5.43658
-5.41967
-5.47723
-5.41813
-5.44421
-5.49702
-5.49157
-5.49115
-5.45391
-5.48018
-5.48866
-5.45122
-5.49476
-5.49887
-5.5131
-5.5086
-5.51141
-5.51698
-5.51543
-5.51779
-5.52229
-5.52711
-5.53339
-5.53257
-5.53614
-5.54399
-5.54223
-5.58011
-5.54916
-5.55937
-5.58138
-5.68275
-5.63815
-5.58769
-5.57607
-5.61577
-5.57478
-5.61225
-5.58331
-5.60394
-5.61272
-5.57889
-5.57296
-5.57133
-5.57284
-5.57828
-5.59531
-5.60238
-5.61537
-5.6423
-5.58737
-5.8361
-5.83001
-5.80366
-5.73606
-5.72712
-5.77231
-5.77771
-5.70658
-5.79742
-5.69504
-5.7899
-5.71353
-5.74049
-5.77005
-5.79352
-5.78425
-5.78924
-5.77951
-5.75533
-5.75828
-5.71043
-5.70516
-5.72996
40.3104
-385.434
43.6741
450.398
-113.851
-244.586
-130.833
292.101
277.445
114.561
623.447
887.275
836.611
810.957
748.29
622.542
1766.78
1760.32
1707.75
1525.2
1219.3
1214.45
1241.55
1377.53
427.511
476.492
555.874
715.102
190.002
218.127
256.014
282.105
40.267
40.1174
43.5943
45.9593
2.2684
3.15536
22.1435
56.646
8.08456
16.0612
17.4616
2.28461
-1.23785
-1.77675
-2.65228
-2.75058
-2.8333
-2.8646
-2.83399
-2.83164
-2.81942
-2.87415
-2.88846
-2.91822
-3.01758
-3.02059
-3.04885
-3.07747
-3.09095
-3.10849
-3.15651
-3.18806
-3.27331
-3.31676
-3.34378
-3.31682
-3.41017
-3.38125
-3.41324
-3.43242
-3.49831
-3.56849
-3.57935
-3.59871
-3.67695
-3.66945
-3.72089
-3.76977
-3.81023
-3.84601
-3.84186
-3.85167
-3.83644
-3.89187
-3.9119
-3.97353
-4.10535
-4.12676
-4.14463
-4.18621
-4.10272
-4.18687
-4.22691
-4.25321
-4.27377
-4.27881
-4.3225
-4.40424
-4.33673
-4.42452
-4.43592
-4.44976
-4.461
-4.53415
-4.59297
-4.5921
-4.57653
-4.66802
-4.6544
-4.68041
-4.68338
-4.69619
-4.75577
-4.81957
-4.82617
-4.81978
-4.81723
-4.81696
-4.82632
-4.92952
-4.92756
-4.96292
-5.00231
-4.96009
-4.99987
-5.04093
-5.04622
-5.05838
-5.12441
-5.12915
-5.10807
-5.12594
-5.11143
-5.16795
-5.1279
-5.19663
-5.24114
-5.29037
-5.3031
-5.26434
-5.29771
-5.30871
-5.29332
-5.33108
-5.35377
-5.37996
-5.43069
-5.44065
-5.46496
-5.42633
-5.44247
-5.45809
-5.49957
-5.52782
-5.5676
-5.59172
-5.55745
-5.57829
-5.61175
-5.59831
-5.64247
-5.6342
-5.72823
-5.71937
-5.72081
-5.69037
551.978
1195.46
1880.29
1789.21
2144.33
2028.76
1787.69
2112.96
1983.1
1222.92
1311.84
1433.98
1703.21
1982.9
2228.99
2286.54
2299.71
2469.41
2075.09
649.707
1057.24
1125.33
814.482
868.466
1060.36
1076.2
1305.25
1542.48
888.639
1088.26
1333.79
1681.18
2102.23
1945.26
1609.29
1766.36
2117.03
1799.07
813.927
817.32
828.089
894.203
207.899
748.616
965.627
1328.28
1463.21
1490.67
1468.73
1191.12
1750.93
1920.53
1551.3
1075.11
849.706
1431.51
1411.86
519.918
695.676
962.496
246.972
483.5
791.133
1331.99
1752.15
1736.3
1904.36
1815.59
1914.88
1698.45
1012.48
475.801
409.673
223.769
689.991
1064.94
1236.82
1149.36
1041.88
625.803
1027.14
1600.69
1656.15
1510.51
1060.6
1298.04
1532.76
1408.35
734.352
289.408
133.208
180.378
122.172
334.271
811.539
1735.75
1824.01
1781.89
1615.81
1763.14
1916.81
1062.47
908.951
570.99
668.876
902.477
660.234
97.0477
40.7119
33.9209
75.6761
75.4961
150.013
595.58
898.019
925.933
1052.79
1325.85
1631.04
1175.53
383.508
397.544
272.039
150.916
137.436
51.4668
7.62185
7.21444
7.881
17.4139
39.5522
64.2983
434.05
299.307
498.883
559.549
504.197
695.168
373.093
91.3655
126.214
77.0642
30.1853
18.2907
13.4638
8.94491
6.77623
8.994
7.81863
31.9747
38.3452
325.49
82.668
324.419
361.291
89.3032
126.325
67.4875
7.60815
13.9092
6.25325
1.30526
0.722681
0.228713
0.91376
2.24091
5.21416
9.9196
17.4665
25.8638
245.726
57.369
103.023
99.0347
17.6364
7.73732
1.84722
-0.924467
-1.31874
-1.69156
-1.82694
-1.43083
-0.91253
-0.0184577
1.13601
3.48622
4.34138
8.06869
14.6037
182.782
-2.39005
0.794843
1.66568
-1.40734
-2.40345
-2.11837
-1.76936
-1.57822
-2.043
-1.87685
-1.43371
-1.13243
-0.412099
0.31917
2.25347
0.203692
6.23638
8.38301
137.652
-2.9183
-2.90987
-2.83999
-2.8233
-2.44223
-2.24377
-2.06988
-2.3747
-2.04326
-2.09505
-1.93781
-1.51708
-0.747789
-0.177089
1.50308
2.20165
3.87109
5.39666
104.172
-2.82969
-2.88708
-2.88234
-2.83161
-2.65396
-2.4371
-2.30231
-2.23531
-2.14726
-2.15915
-2.4693
-2.19761
-1.67195
-1.55718
0.303664
0.374778
1.67896
2.73278
77.6897
-2.9923
-2.9748
-2.98837
-2.9593
-2.88778
-2.74145
-2.63233
-2.66628
-2.71798
-2.74097
-2.8768
-3.24039
-2.04719
-1.97292
-0.828048
-0.437671
0.428572
0.883292
58.205
-3.12136
-3.12082
-3.13022
-3.07184
-3.05443
-2.91038
-2.93517
-2.99314
-3.05946
-3.0247
-3.22091
-3.37418
-2.76669
-2.57123
-0.406767
-1.00928
-0.288029
-0.406835
43.6203
-3.20835
-3.23406
-3.2795
-3.26479
-3.23001
-3.25616
-3.24441
-3.31106
-3.38918
-3.37926
-3.49273
-3.86731
-3.53001
-3.23338
-3.03253
-2.62126
-1.26056
-1.26068
32.3221
-3.40091
-3.43321
-3.38465
-3.4479
-3.44173
-3.4696
-3.55161
-3.56287
-3.7263
-3.92379
-3.96908
-4.01039
-4.01466
-3.76089
-3.9654
-2.78728
-2.03786
-1.84454
23.2919
-3.44003
-3.46809
-3.60838
-3.59433
-3.63664
-3.67283
-3.77821
-3.87051
-3.9657
-4.06075
-4.16408
-4.20152
-4.06359
-3.77282
-3.307
-2.77401
-2.65314
-2.4957
15.9994
-3.67764
-3.72434
-3.65977
-3.83592
-3.89037
-3.86304
-4.0395
-4.12728
-4.24731
-4.39306
-4.50171
-4.42789
-4.46415
-4.14767
-4.1473
-3.54573
-3.37634
-3.42045
10.2367
-3.73957
-3.8638
-3.93542
-4.0117
-4.16181
-4.1864
-4.23516
-4.52286
-4.56431
-4.68663
-4.70445
-4.79176
-4.85559
-4.62857
-4.67547
-4.40154
-4.50684
-4.57628
5.67424
-4.03353
-3.92918
-4.07511
-4.16522
-4.29256
-4.55054
-4.64715
-4.6301
-4.81294
-4.86707
-5.25397
-5.44658
-5.54424
-5.39193
-5.46601
-5.2935
-5.68397
-5.71057
2.00239
-3.9907
-4.15836
-4.2035
-4.36293
-4.41158
-4.54425
-4.92358
-4.84048
-5.25678
-5.43068
-5.46064
-5.82893
-6.0409
-6.12479
-6.42993
-6.57373
-7.02285
-7.16958
-1.65751
-4.16863
-4.21526
-4.39862
-4.54623
-4.68865
-4.79603
-4.92593
-5.42747
-5.55304
-5.9248
-5.97317
-6.49177
-7.12346
-7.72213
-7.94215
-8.17283
-8.80411
-9.08121
-5.17704
-4.35235
-4.48747
-4.53883
-4.56129
-4.77643
-5.05448
-5.14792
-5.49384
-5.77033
-5.91374
-6.35502
-6.89857
-7.43426
-8.27326
-9.28508
-9.94225
-10.7429
-11.0733
-7.39213
-4.46539
-4.56016
-4.64588
-4.88445
-4.97046
-5.14259
-5.25792
-5.7485
-5.95388
-6.22408
-6.95449
-7.56433
-7.99708
-9.83966
-11.152
-13.4369
-13.3476
-13.2801
-9.02568
-4.49399
-4.71013
-4.7557
-4.90117
-5.08532
-5.22541
-5.45853
-5.76555
-6.04431
-6.34407
-6.92386
-7.66561
-8.60795
-10.8107
-12.9638
-16.1694
-15.9207
-15.1352
-11.1006
-4.66836
-4.6852
-4.9038
-5.01285
-5.19436
-5.35329
-5.57058
-6.04873
-5.99058
-6.44955
-7.33277
-7.78638
-8.86145
-11.1011
-13.2615
-15.3676
-15.4675
-15.1807
-10.5149
-4.7372
-4.86066
-4.86964
-5.08735
-5.25269
-5.40316
-5.67848
-5.8376
-6.30492
-6.83822
-6.98119
-7.66834
-9.28833
-10.6415
-13.0677
-14.6803
-13.4337
-13.0556
-9.25497
-4.82626
-4.92187
-5.03521
-5.1689
-5.34756
-5.47027
-5.54877
-5.91545
-6.04497
-6.74519
-7.22816
-8.13198
-8.80802
-10.6631
-12.8259
-13.6559
-11.5144
-10.6066
-4.54974
-4.99849
-5.01521
-5.10339
-5.20642
-5.37076
-5.40589
-5.62233
-5.86195
-6.12234
-6.55507
-6.88637
-7.46575
-8.25259
-9.27044
-10.7847
-13.8757
-10.5135
-6.06063
0.493991
-4.99623
-5.07651
-5.19178
-5.31007
-5.34178
-5.54806
-5.57906
-5.87843
-6.05921
-6.35289
-6.59159
-7.27422
-7.03718
-8.09553
-9.7726
-12.0957
-12.0054
-0.429999
-4.21836
-5.0966
-5.22815
-5.26379
-5.26753
-5.4452
-5.46534
-5.67178
-5.70167
-6.01324
-6.15436
-6.35732
-6.95736
-7.03376
-7.30962
-8.35445
-9.6632
-6.113
-3.70509
0.483332
-5.09452
-5.21772
-5.29334
-5.36701
-5.43599
-5.5523
-5.56663
-5.68645
-5.82859
-5.95112
-6.18276
-6.62499
-6.70246
-6.76276
-7.15492
-7.40641
-7.48634
-4.94905
3.67225
-5.20466
-5.28545
-5.39165
-5.4003
-5.48589
-5.55159
-5.56511
-5.62918
-5.69086
-5.93844
-6.05267
-6.18162
-6.05811
-5.93939
-5.80776
-5.57212
-5.5574
-5.31134
-4.58799
-5.27612
-5.32815
-5.46673
-5.40332
-5.49894
-5.49677
-5.60165
-5.5043
-5.60512
-5.49672
-5.9359
-5.88038
-5.67991
-5.44365
-5.0832
-4.56731
-3.83136
-2.78336
-2.9333
-5.34686
-5.37742
-5.43516
-5.46936
-5.48184
-5.60119
-5.44923
-5.66695
-5.56333
-5.65408
-5.51708
-5.61681
-5.36959
-5.12873
-4.70017
-4.16137
-3.44857
-2.07906
-1.26418
-5.40772
-5.44148
-5.48019
-5.51733
-5.48014
-5.54352
-5.57272
-5.53843
-5.45392
-5.55652
-5.35594
-5.71526
-5.30411
-5.02439
-4.59991
-4.10982
-3.51636
-2.6675
-2.20049
-5.47261
-5.48738
-5.51769
-5.5622
-5.55494
-5.56984
-5.55271
-5.58351
-5.59787
-5.44822
-5.35523
-5.4776
-5.25481
-5.00722
-4.67565
-4.29366
-3.85617
-3.32957
-3.07209
-5.57475
-5.54514
-5.57417
-5.59696
-5.62335
-5.61501
-5.6547
-5.58288
-5.64663
-5.58309
-5.48011
-5.37213
-5.29036
-5.0648
-4.82889
-4.55097
-4.2539
-3.92932
-3.76875
-5.5848
-5.59999
-5.59894
-5.6182
-5.63019
-5.67602
-5.60078
-5.60912
-5.61064
-5.54024
-5.53508
-5.38005
-5.47718
-5.25402
-5.1216
-4.9408
-4.7627
-4.57307
-4.47836
-5.64587
-5.61409
-5.65241
-5.66231
-5.67969
-5.67382
-5.69783
-5.6356
-5.70059
-5.63681
-5.57874
-5.55215
-5.53689
-5.42965
-5.36333
-5.27767
-5.20668
-5.14657
-5.13571
-5.70437
-5.70529
-5.70709
-5.69733
-5.744
-5.67637
-5.68803
-5.73986
-5.65245
-5.68122
-5.66462
-5.72659
-5.71616
-5.74769
-5.82385
-5.87421
-5.92029
-5.94878
-5.9576
)
;

boundaryField
{
    leftWall
    {
        type            calculated;
        value           nonuniform List<scalar> 
50
(
1312.17
1253.32
1194.17
1135.94
1075.76
1019.91
959.709
903.156
808.709
697.31
567.868
640.083
1089.57
1796.06
1346.69
545.931
191.941
72.5262
20.16
5.67252
0.350163
0.00603706
-2.11924
-2.38298
-2.83067
-2.87928
-3.10441
-3.24984
-3.3808
-3.50107
-3.67787
-3.70802
-3.69715
-3.88143
-3.9868
-4.11692
-4.23541
-4.35411
-4.47392
-4.58648
-4.69836
-4.80178
-4.90919
-5.02501
-5.13944
-5.25895
-5.36597
-5.49702
-5.54916
-5.8361
)
;
    }
    rightWall
    {
        type            calculated;
        value           nonuniform List<scalar> 
50
(
1471.76
1667.09
1808.38
1919.36
1978.31
2055.07
2096.39
2109.77
2075.09
1799.07
1411.86
1064.94
811.539
595.58
434.05
325.49
245.726
182.782
137.652
104.172
77.6897
58.205
43.6203
32.3221
23.2919
15.9994
10.2367
5.67424
2.00239
-1.65751
-5.17704
-7.39213
-9.02568
-11.1006
-10.5149
-9.25497
-4.54974
0.493991
-4.21836
0.483332
3.67225
-4.58799
-2.9333
-1.26418
-2.20049
-3.07209
-3.76875
-4.47836
-5.13571
-5.9576
)
;
    }
    lowerWall
    {
        type            calculated;
        value           nonuniform List<scalar> 
62
(
1341.6
1341.64
1339.12
1338.06
1330.64
1318.36
1269.71
1288.49
1183.99
1111.34
1368.53
1297.1
1287.58
1284.51
1359.7
1196.46
1207.36
1296.78
1482.31
1495.86
1689.85
1742.34
2329.46
2314.16
1632.44
1626.4
1563.11
1510.41
1475.17
1387.5
1247.55
95.6462
-330.072
97.1303
456.941
337.78
334.321
330.663
330.461
330.444
330.382
330.603
328.114
338.029
332.486
331.034
331.194
334.134
340.01
358.983
407.611
767.782
1199.61
1481.28
1841.55
2239.49
2576.89
2628.03
2558.73
2233.61
1886.27
1474.72
)
;
    }
    atmosphere
    {
        type            calculated;
        value           nonuniform List<scalar> 
46
(
-5.80072
-5.8033
-5.80369
-5.81719
-5.7929
-5.78853
-5.7838
-5.77072
-5.78836
-5.76264
-5.78497
-5.76521
-5.77605
-5.7734
-5.77637
-5.76866
-5.76675
-5.76025
-5.75543
-5.75397
-5.74592
-5.74953
-5.73717
-5.74019
-5.73651
-5.7394
-5.73316
-5.73625
-5.7295
-5.72904
-5.72904
-5.72904
-5.72904
-5.72904
-5.72904
-5.72904
-5.72904
-5.72904
-5.72904
-5.72904
-5.72904
-5.72904
-5.72904
-5.72904
-5.72904
-5.72904
)
;
    }
    defaultFaces
    {
        type            empty;
    }
}


// ************************************************************************* //
