/*--------------------------------*- C++ -*----------------------------------*\
| =========                 |                                                 |
| \\      /  F ield         | foam-extend: Open Source CFD                    |
|  \\    /   O peration     | Version:     4.1                                |
|   \\  /    A nd           | Web:         http://www.foam-extend.org         |
|    \\/     M anipulation  |                                                 |
\*---------------------------------------------------------------------------*/
FoamFile
{
    version     2.0;
    format      ascii;
    class       volScalarField;
    location    "0.4";
    object      pd;
}
// * * * * * * * * * * * * * * * * * * * * * * * * * * * * * * * * * * * * * //

dimensions      [1 -1 -2 0 0 0 0];

internalField   nonuniform List<scalar> 
2268
(
1341.6
1341.64
1339.12
1338.06
1330.64
1318.36
1269.71
1288.49
1183.99
1111.34
1368.53
1297.1
1287.58
1284.51
1359.7
1196.46
1207.36
1296.78
1482.31
1495.86
1689.85
1742.34
2329.46
1341.61
1341.72
1338.59
1337.66
1329.69
1314.14
1268.58
1286.28
1181.29
1086.78
1333.08
1292.57
1275.84
1246.33
1283.17
1301.26
1175.49
1269.11
1509.18
1524.75
1627.7
1664.21
1716.74
1341.31
1341.7
1337.35
1336.82
1326.63
1316.61
1269.82
1266.17
1167.39
1161.74
1191.92
1340.52
1258.53
1317.07
1251.49
1251.54
1205.19
1303.57
1410.38
1564.3
1737.3
1734.44
1764.93
1341.95
1342.21
1336.13
1335.99
1323.6
1302.73
1281.73
1274.3
1165.59
1190.39
1183.55
1261.56
1324.27
1127.34
1233.26
1232.54
1262.81
1348.12
1487.3
1520
1894.46
1803.31
1753.63
1340.63
1341.69
1333.7
1333.76
1317.09
1291.99
1242.32
1267.39
1118.72
1215.93
1152.41
1296.32
1142.05
1285.25
1193.44
1249.37
1319.85
1371.07
1411.27
1497.49
1874.11
1847.99
1751.67
1343.64
1343.65
1332.02
1333.9
1307.96
1291.78
1242.74
1300.25
1116.83
1232.26
1163.67
1202.85
1209.32
1274.59
1025.97
1237.06
1357.27
1400.39
1425.19
1476.13
1782.81
1938.38
1764.96
1342.29
1341.91
1327.44
1328.98
1302.38
1283.64
1256.46
1267.08
1055.32
1237.28
1191.02
1132.62
1277.04
1190.28
1121.5
1052.97
1415.26
1410.62
1441.46
1382.73
1571.12
1892.05
1727.08
1344.59
1348.86
1327.84
1331.64
1288.83
1278.11
1196.96
1272.58
1098.65
1240.59
1370.97
1349.86
1156.58
1364.88
1267.97
1132.41
1311.49
1443.24
1368.93
1378.35
1452.51
1746.85
1631.55
338.029
332.486
331.034
331.194
334.134
340.01
358.983
407.611
767.782
1199.61
1481.28
1841.55
2239.49
2576.89
2628.03
2558.73
2233.61
1886.27
1474.72
334.977
329.646
328.147
328.364
329.665
331.595
340.837
348.368
535.894
1230.8
1617.06
1324.87
1897.56
2401.01
2662.44
2647.87
2457.96
2143.43
1679.64
331.531
328.895
328.092
328.117
329.14
330.348
341.513
372.301
447.642
858.552
1115.54
1418.74
1552.8
2162.73
2636.9
2732.52
2675.15
2467.57
1833.09
331.472
329.236
328.689
329.18
329.066
328.38
339.281
402.49
487.062
866.07
1106.48
1102.53
1474.5
2194.3
2624.54
2768.41
2790.49
2669.38
1958.3
331.567
329.573
331.798
353.798
333.113
328.071
340.296
490.62
1543.36
1408.83
1879.79
1691.94
2297.16
2658.04
2699.26
2803.22
2823.98
2778.98
2031.64
331.654
330.843
348.561
711.755
389.011
331.715
361.334
1016.6
2060.49
2216.23
2252.12
2362.58
2452.06
2700.99
2702.13
2784.43
2818.07
2859.4
2126.04
332.062
335.252
455.693
1640.02
677.455
381.171
413.527
655.597
1855.33
2155.58
2018.17
2151.17
2275.77
2587.57
2661.43
2744.2
2779.79
2870.99
2185.91
329.638
461.697
914.451
2118.59
1314.08
882.866
710.817
938.184
1744.2
2006.8
1855.41
1937.6
2130.4
2477.7
2614.55
2687.34
2709.71
2831.9
2219.38
1342.07
1339.3
1315.18
1317.86
1224.21
1237.35
1192.22
1181.81
1136.09
1436.58
1919.62
1872.23
1922.85
1920.28
1498.15
1570.99
1728.41
1324.74
1291.68
1231.81
1409.93
1242.07
1218.76
1354.77
1368.41
1315.71
1324.27
1318.44
1267.09
1292.41
1306.96
1439.9
2019.21
2346.5
2358.52
2462.49
2373.52
2371.07
2349.21
2432.01
1990.4
1367.74
1371.63
1321.99
898.004
695.919
1340.79
1433.58
1349.86
1550.75
1444.95
1616.17
1750.25
1776.27
1890.2
2131.67
2136.06
2407.26
2433
2264.22
2197.01
2079.77
2137.31
2342.66
2153.31
1406.69
1277.61
1054.99
691.885
1489.57
2303.98
1678.87
2344.6
2236.89
2458.04
2409.65
2351.46
2211
2313.17
2077.99
2189.13
2389
2213.38
2154.52
2032.72
1944.11
1950.78
2366.98
1943.92
1143.1
1094.24
1217.37
1911.15
2186.14
2322.4
2102.99
1832.46
1868.83
2011.93
1375.98
1386.64
1418.65
2052.43
2303.14
2212.94
2041.85
1897.88
2033.14
2153.58
1784.82
1995.11
2195.85
2077.12
2027.72
2275.54
2431.21
1789.55
1653.15
1116.99
663.278
829.909
1071.7
579.506
740.083
533.848
625.59
1547.24
1219.44
569.745
661.271
1160.18
1754.21
1395.38
1449.86
1592.42
1797.64
1789.32
1627.98
1745.08
1226.36
710.469
409.324
243.979
273.318
453.044
302.778
359.248
215.224
145.27
431.926
212.23
164.493
207.782
486.051
1153.73
464.358
359.557
525.133
602.027
579.122
566.026
763.544
647.267
332.439
169.464
93.6625
97.039
234.301
144.982
141.711
150.928
109.846
59.4272
52.0344
76.0208
67.1374
32.1485
284.788
49.4649
22.1264
38.2081
75.0727
169.273
229.44
326.705
253.938
113.728
56.1453
26.5865
41.704
130.687
69.8417
86.9586
135.203
102.511
28.6893
25.4046
12.1674
4.85326
1.85171
13.8217
5.70014
10.3984
18.3194
36.6579
89.5166
91.9478
159.38
82.5137
41.2397
17.5909
7.4074
22.4347
36.0882
32.5322
71.5478
115.511
112.01
20.4163
10.4064
4.06503
1.66856
1.90428
2.8947
4.88301
18.8453
13.7217
20.8412
34.4442
22.7521
70.8082
21.4137
17.9012
7.2379
3.01383
9.09525
12.8151
15.2949
39.9102
77.4287
117.938
16.6981
4.28798
1.236
1.00516
1.99315
4.1862
5.53312
5.44922
4.13186
6.60369
8.83385
8.15867
38.2751
7.03823
9.04897
3.30919
0.715719
1.35928
2.11717
2.64677
8.27237
26.436
93.5896
14.0052
1.80731
0.776398
0.620185
1.21526
1.96525
2.30161
2.33556
2.51039
2.54002
2.4016
4.55405
23.8653
3.89858
3.64607
2.0064
0.298741
0.0477145
0.156818
0.135193
0.598224
6.17377
68.9996
17.6482
1.18693
0.381139
0.286884
0.473691
1.13315
1.45279
1.39859
1.23338
0.16023
-0.171982
-0.473559
17.3232
2.63381
1.93276
0.389089
0.0593797
-0.110821
-0.114688
-0.0788301
0.368918
4.22951
44.5475
38.684
3.87209
0.369827
0.0496272
0.0801813
0.36731
0.564306
0.660312
0.300632
-0.231424
-0.602025
-0.583516
6.99264
0.310712
0.67474
-0.0171334
-0.119463
-0.218646
-0.207623
-0.131365
0.857155
4.01044
40.6758
65.0129
9.51025
0.350108
-0.0716427
-0.0913867
-0.108858
-0.0681243
0.0044344
-0.0388076
-0.391041
-0.570936
-0.693159
2.9016
0.13538
0.260061
-0.134225
-0.0969451
-0.231263
-0.270619
-0.148655
2.36467
15.9403
66.8451
194.33
49.0566
2.46439
-0.294593
-0.188152
-0.296571
-0.337309
-0.376117
-0.425272
-0.564178
-0.560318
-0.649258
0.356071
-0.018734
-0.0364267
-0.182052
-0.199684
-0.385174
-0.148226
-0.62307
2.32112
30.7906
180.761
756.169
173.023
11.9724
-0.315212
-0.306477
-0.343761
-0.352304
-0.435731
-0.459209
-0.486555
-0.607511
-0.662319
-0.173671
-0.258623
-0.034104
-0.145048
-0.153909
-0.235599
-0.372531
-0.659828
-0.662295
0.149629
13.0685
121.876
3.35974
-0.493507
-0.396621
-0.376562
-0.372732
-0.4486
-0.416981
-0.535207
-0.594153
-0.631391
-0.689808
-0.317184
-0.303009
-0.412274
-0.0638236
-0.458174
-0.37891
-0.349943
-0.349509
-0.385258
-0.472488
-0.548984
-0.641803
-0.35744
-0.461636
-0.384864
-0.357378
-0.414705
-0.405633
-0.516832
-0.546412
-0.525018
-0.642901
-0.669467
-0.337632
-0.353862
-0.355611
-0.463139
-0.459969
-0.375511
-0.264528
-0.314812
-0.427296
-0.422839
-0.391513
-0.310709
-0.529994
-0.405832
-0.356215
-0.366951
-0.388233
-0.437323
-0.45522
-0.50207
-0.65096
-0.640666
-0.653113
-0.343436
-0.353468
-0.353497
-0.371553
-0.395497
-0.161337
-0.466732
-0.327747
-0.230641
-0.348995
-0.442146
-0.587665
-0.379771
-0.407768
-0.366261
-0.391535
-0.435092
-0.418642
-0.524836
-0.544245
-0.535691
-0.626172
-0.747627
-0.338521
-0.350528
-0.355649
-0.456921
-0.347599
-0.195439
-0.332112
-0.436083
-0.393088
-0.384723
-0.373555
-0.410254
-0.420512
-0.379304
-0.391188
-0.377712
-0.405567
-0.513106
-0.525964
-0.558284
-0.599967
-0.629082
-0.692647
-0.390123
-0.42571
-0.438269
-0.293996
-0.408552
-0.451537
-0.369722
-0.373195
-0.411984
-0.401554
-0.393193
-0.456862
-0.341128
-0.390801
-0.3528
-0.473523
-0.424963
-0.487987
-0.45447
-0.502796
-0.565398
-0.647348
-0.746355
-0.295078
-0.217326
-0.162764
-0.276423
-0.189019
-0.4325
-0.357617
-0.349941
-0.338384
-0.336716
-0.329473
-0.341165
-0.354121
-0.325289
-0.410435
-0.338786
-0.41607
-0.482002
-0.441548
-0.602957
-0.571662
-0.641979
-0.639595
-0.159011
-0.214895
-0.222881
-0.234344
-0.23266
-0.210055
-0.207784
-0.351736
-0.312064
-0.353175
-0.394667
-0.415338
-0.418398
-0.399318
-0.382388
-0.484464
-0.446688
-0.346634
-0.533066
-0.519722
-0.565147
-0.625405
-0.676224
-0.218095
-0.215542
-0.211231
-0.224966
-0.216291
-0.235808
-0.244612
-0.189581
-0.244896
-0.263355
-0.232747
-0.247727
-0.270278
-0.322849
-0.337849
-0.416979
-0.319026
-0.50205
-0.475544
-0.527371
-0.556879
-0.604786
-0.656026
-0.198274
-0.208029
-0.209512
-0.2134
-0.218184
-0.219208
-0.229259
-0.248909
-0.260967
-0.276813
-0.287704
-0.287475
-0.329511
-0.264052
-0.347052
-0.297783
-0.440046
-0.349923
-0.479017
-0.498831
-0.50595
-0.582074
-0.628829
-0.203204
-0.203914
-0.205009
-0.205331
-0.206242
-0.205602
-0.214541
-0.211778
-0.219172
-0.229207
-0.208036
-0.235898
-0.276801
-0.318061
-0.339482
-0.322512
-0.368343
-0.370321
-0.378903
-0.382856
-0.56404
-0.557355
-0.613279
-0.196496
-0.198568
-0.200271
-0.200746
-0.207899
-0.213543
-0.223961
-0.228297
-0.252408
-0.261655
-0.283772
-0.268669
-0.279991
-0.286914
-0.236114
-0.414123
-0.281722
-0.448345
-0.413364
-0.420643
-0.513287
-0.514753
-0.578481
-0.190002
-0.187923
-0.18503
-0.182731
-0.177079
-0.141723
-0.157454
-0.199743
-0.213619
-0.227544
-0.217675
-0.248053
-0.258195
-0.282471
-0.314899
-0.340656
-0.347491
-0.354349
-0.372876
-0.384041
-0.393564
-0.55625
-0.560689
-0.184612
-0.181455
-0.183247
-0.192947
-0.209647
-0.261589
-0.268949
-0.225765
-0.218378
-0.215078
-0.237875
-0.22761
-0.242978
-0.252995
-0.25128
-0.246432
-0.290877
-0.349552
-0.344424
-0.385124
-0.50046
-0.496909
-0.530812
-0.171982
-0.167442
-0.166796
-0.169066
-0.16853
-0.171949
-0.182131
-0.210355
-0.249464
-0.242566
-0.229681
-0.23486
-0.223729
-0.242985
-0.268991
-0.279638
-0.39314
-0.261171
-0.405493
-0.351727
-0.35622
-0.373565
-0.524523
-0.158672
-0.153061
-0.158175
-0.163014
-0.178219
-0.223716
-0.192509
-0.182447
-0.138619
-0.129127
-0.17568
-0.151386
-0.199309
-0.213457
-0.231967
-0.237268
-0.227613
-0.292138
-0.330692
-0.324813
-0.356668
-0.456435
-0.460539
-0.13689
-0.137684
-0.141031
-0.143354
-0.147878
-0.100915
-0.14881
-0.121558
-0.154992
-0.181032
-0.184022
-0.237698
-0.214872
-0.213188
-0.228679
-0.239195
-0.27701
-0.270419
-0.253726
-0.352961
-0.392815
-0.325795
-0.423141
-0.119109
-0.125475
-0.126949
-0.131308
-0.0943775
-0.141388
-0.147886
-0.196775
-0.152654
-0.143537
-0.152974
-0.16361
-0.179722
-0.185962
-0.197583
-0.209234
-0.217252
-0.244167
-0.253727
-0.27833
-0.249442
-0.349554
-0.314507
-0.109735
-0.115963
-0.12885
-0.125087
-0.185029
-0.128476
-0.141515
-0.137651
-0.147719
-0.16545
-0.181928
-0.173262
-0.15389
-0.164541
-0.183846
-0.192247
-0.211963
-0.229971
-0.24034
-0.274281
-0.281792
-0.292588
-0.342468
-0.0989674
-0.105035
-0.111998
-0.111273
-0.11948
-0.120742
-0.119109
-0.133032
-0.114369
-0.0840066
-0.087875
-0.134308
-0.178446
-0.156079
-0.162189
-0.165181
-0.177827
-0.188762
-0.205933
-0.188952
-0.21385
-0.222069
-0.272256
-0.0932836
-0.0956756
-0.0956785
-0.101271
-0.110436
-0.106422
-0.106238
-0.11677
-0.120724
-0.181748
-0.126376
-0.137437
-0.135329
-0.134345
-0.140799
-0.147573
-0.158607
-0.166344
-0.182093
-0.184132
-0.191557
-0.231292
-0.191783
-0.0751061
-0.081448
-0.0907472
-0.0980951
-0.102984
-0.108041
-0.129242
-0.112555
-0.0971851
-0.0959726
-0.0925505
-0.101651
-0.113489
-0.107564
-0.110603
-0.111931
-0.119336
-0.124973
-0.145719
-0.128809
-0.186371
-0.127268
-0.153351
-0.0809641
-0.0755123
-0.0750977
-0.0378529
-0.0641228
-0.0726052
-0.0351632
-0.0787068
-0.0828123
-0.0970497
-0.0925434
-0.0953613
-0.100924
-0.0993732
-0.101741
-0.106236
-0.11106
-0.117333
-0.116515
-0.120082
-0.127935
-0.126173
-0.164055
-0.00790996
-0.0181264
-0.0401349
-0.141505
-0.0968992
-0.0464424
-0.0348211
-0.0745176
-0.0335309
-0.0710015
-0.0420604
-0.0626888
-0.071471
-0.0376428
-0.0317078
-0.0300848
-0.0315922
-0.0370326
-0.0540663
-0.0611343
-0.0741196
-0.101051
-0.0461171
-0.169659
-0.16357
-0.137216
-0.069613
-0.0606811
-0.105871
-0.111271
-0.0401422
-0.13098
-0.0285988
-0.12346
-0.0470828
-0.0740469
-0.10361
-0.127078
-0.117803
-0.122793
-0.113064
-0.0888918
-0.0918415
-0.0439871
-0.0387146
-0.0635134
511.893
86.372
499.239
506.155
491.035
354.468
456.085
872.358
1025.26
856.528
1362.91
1625.76
1668.14
1634.73
1569.3
1447.24
2359.79
2353.5
2321.44
2201.41
1556.1
1550.22
1584.06
1745.89
603.652
664.573
763.938
960.692
309.677
348.863
400.224
435.221
98.4163
98.7101
103.841
107.338
23.6774
27.6969
72.8538
135.286
42.2774
62.6264
65.9565
25.2771
12.894
10.9145
4.36254
1.33154
-0.233497
-0.533858
-0.683985
-0.739123
-0.642888
-0.69798
-0.713039
-0.741252
-0.729485
-0.732085
-0.759328
-0.786354
-0.679115
-0.69667
-0.744416
-0.775663
-0.736588
-0.780057
-0.807072
-0.780018
-0.748366
-0.719442
-0.751435
-0.770596
-0.711339
-0.781519
-0.792375
-0.81173
-0.764786
-0.75729
-0.808724
-0.857607
-0.772871
-0.808652
-0.804506
-0.814307
-0.67389
-0.729317
-0.749351
-0.810981
-0.817603
-0.839008
-0.856886
-0.898465
-0.689784
-0.773926
-0.813966
-0.840268
-0.73563
-0.740675
-0.784364
-0.866102
-0.673403
-0.761194
-0.772587
-0.786432
-0.67248
-0.745622
-0.804441
-0.803574
-0.662814
-0.754305
-0.740685
-0.766687
-0.644465
-0.657274
-0.716854
-0.780655
-0.662057
-0.655671
-0.653119
-0.652855
-0.537014
-0.640216
-0.638261
-0.67362
-0.587817
-0.545591
-0.585377
-0.62643
-0.506531
-0.518687
-0.584713
-0.589462
-0.443179
-0.461051
-0.446543
-0.50306
-0.337823
-0.406551
-0.451055
-0.500287
-0.387824
-0.349069
-0.382433
-0.39343
-0.252853
-0.290608
-0.313301
-0.339491
-0.265029
-0.27499
-0.2993
-0.260668
-0.15161
-0.16723
-0.208709
-0.236962
-0.15155
-0.175671
-0.141398
-0.162236
-0.0705031
-0.0570582
-0.101224
-0.0929539
-0.0617859
-0.0529319
-0.0543636
-0.023925
628.975
1334.26
2096.91
2130.08
2450.29
2326.1
2096.73
2427.25
2330.42
1604.4
1702.19
1818.83
2066.81
2308.79
2496.03
2529.77
2536.07
2690.19
2219.06
1225.42
1603.75
1659.33
1367.79
1415.66
1594.65
1594.54
1808.07
2043.57
1388.74
1583.85
1817.95
2122.04
2466.37
2206.24
1811.48
1994.01
2359.8
1972.87
1550.19
1548.45
1554.02
1611.08
899.542
1405.11
1591
1911.06
2038.09
2042.3
2001.4
1699.19
2211.14
2277.24
1813.3
1250.03
1000.51
1642.24
1602.69
1352.39
1528.52
1790.61
1059.33
1268.07
1531.75
1967.64
2291.62
2153.3
2327.02
2261.99
2374.91
2100.56
1231.97
603.513
523.539
300.547
847.787
1263.02
1997.53
1946.21
1894.06
1466.13
1835.8
2292.2
2092
1868.76
1329.47
1619.08
1908.99
1762.92
948.59
403.072
203.74
257.718
178.655
442.854
1008.96
2195.44
2335.7
2424.98
2283.81
2424.79
2508.47
1367.71
1164.19
771.282
883.569
1188.75
881.353
167.708
81.2597
70.6353
126.044
122.038
223.775
784.086
1184.16
1218.05
1373.04
1717.36
2077.36
1529.1
555.495
566.711
410.314
251.649
233.072
106.33
27.6484
21.4606
27.1037
45.0001
81.779
118.36
612.397
458.353
705.948
799.475
743.899
967.333
555.644
177.774
225.755
155.071
77.7749
56.1141
43.8656
33.4529
22.26
23.7383
24.2395
70.3043
81.3629
492.666
169.969
511.024
554.097
189.44
238.926
146.084
38.6347
51.0182
34.0328
19.4683
15.0602
10.1882
11.0616
13.9417
16.9207
22.3562
46.8974
61.9841
401.205
137.029
212.616
204.145
63.9407
42.5756
19.8172
3.91231
3.64458
3.04996
2.83417
3.80288
4.38318
6.10884
9.92821
13.2134
13.5592
29.0547
45.4821
326.378
5.8248
22.0793
24.1483
10.836
6.96301
2.61065
0.705668
0.612305
0.0852769
0.371433
1.239
2.32083
4.06224
6.81017
10.4246
7.8288
21.9089
35.1972
269.864
-0.613651
0.0992725
0.528153
0.791199
0.453955
0.0767862
0.016545
-0.311176
0.054959
0.10806
0.530337
1.55184
3.11575
5.06967
8.54162
9.12528
15.3213
28.5512
225.534
-0.750503
-0.790423
-0.724958
-0.610786
-0.45494
-0.328437
-0.201419
-0.0948836
0.115678
0.369158
0.792576
3.23342
4.45281
4.79152
7.21548
7.15589
10.797
22.6995
188.818
-0.814622
-0.793744
-0.802784
-0.782014
-0.685909
-0.549543
-0.418741
-0.373005
-0.256843
0.1028
0.895196
3.37019
5.69455
5.36652
6.47498
6.47797
8.23769
18.6689
160.294
-0.830467
-0.830296
-0.838822
-0.781135
-0.756843
-0.603443
-0.591471
-0.525281
-0.256412
0.20263
0.820929
3.34923
6.28214
6.17204
7.70436
6.41557
6.83563
14.6763
137.261
-0.79594
-0.82167
-0.866035
-0.850517
-0.808919
-0.828258
-0.783832
-0.813651
-0.776108
-0.262061
0.716815
3.46782
6.16707
6.33811
5.85113
5.43395
5.78872
11.3293
118.049
-0.86399
-0.896163
-0.846789
-0.909308
-0.898525
-0.927145
-1.00278
-0.994545
-1.09612
-0.92909
-0.68971
0.0324571
3.3827
5.20964
4.26706
5.53849
5.2264
9.05398
101.597
-0.778161
-0.806181
-0.945979
-0.931688
-0.973497
-1.0095
-1.11284
-1.19441
-1.27136
-1.30375
-1.33703
-1.3674
-1.0758
0.786843
1.87842
5.20333
4.67379
7.07879
86.9643
-0.89064
-0.937315
-0.872716
-1.04885
-1.10306
-1.07542
-1.25064
-1.332
-1.44355
-1.5654
-1.65417
-1.58493
-1.60808
-1.13637
-0.834047
2.54729
3.64408
4.98593
74.4489
-0.827401
-0.951632
-1.02325
-1.09951
-1.24956
-1.27394
-1.322
-1.60738
-1.64504
-1.76136
-1.77377
-1.86175
-1.90751
-1.60699
-1.48298
-0.11946
1.63066
2.51059
63.8981
-0.996172
-0.891818
-1.03775
-1.12785
-1.25519
-1.51296
-1.60907
-1.59148
-1.77288
-1.82525
-2.20919
-2.39714
-2.46621
-2.22022
-2.15912
-1.5791
-0.697675
0.328126
54.8524
-0.828148
-0.995807
-1.04095
-1.20038
-1.24902
-1.38168
-1.76092
-1.67755
-2.09308
-2.26639
-2.29479
-2.65546
-2.82614
-2.74459
-2.60145
-2.57918
-2.48305
-1.6918
45.6479
-0.880881
-0.927518
-1.11087
-1.25849
-1.4009
-1.50828
-1.63815
-2.1396
-2.26498
-2.63649
-2.68321
-3.19108
-3.76327
-4.13299
-4.04707
-3.71772
-4.13536
-3.72185
36.9878
-0.939408
-1.07453
-1.12589
-1.14835
-1.36349
-1.64153
-1.73498
-2.08088
-2.35733
-2.50066
-2.94027
-3.4684
-3.92613
-4.23434
-4.17017
-4.4331
-5.76847
-5.47868
30.2404
-0.927256
-1.02202
-1.10774
-1.34632
-1.43232
-1.60445
-1.71979
-2.21036
-2.41573
-2.68588
-3.41568
-4.01748
-4.35398
-5.51259
-5.49507
-5.71809
-7.80081
-7.31896
26.2911
-0.83066
-1.0468
-1.09237
-1.23784
-1.42199
-1.56208
-1.7952
-2.10222
-2.38098
-2.68072
-3.26021
-3.99847
-4.91181
-6.9263
-8.18281
-7.69754
-9.39764
-8.27929
23.9573
-0.879839
-0.896677
-1.11528
-1.22432
-1.40583
-1.56476
-1.78206
-2.2602
-2.20205
-2.661
-3.54394
-3.99424
-5.03782
-7.06867
-7.99873
-6.50012
-6.64284
-5.58076
24.4189
-0.82348
-0.946945
-0.95592
-1.17364
-1.33897
-1.48944
-1.76477
-1.92388
-2.3912
-2.92446
-3.06716
-3.75119
-5.33891
-6.51756
-7.92515
-5.69315
-1.10713
1.22162
25.3036
-0.787348
-0.882954
-0.996291
-1.12998
-1.30865
-1.43136
-1.50986
-1.87653
-2.00606
-2.70624
-3.18836
-4.08412
-4.71306
-6.35796
-7.66135
-5.15765
2.82931
7.3806
29.2419
-0.834383
-0.851105
-0.939282
-1.04231
-1.20665
-1.24179
-1.45822
-1.69784
-1.95823
-2.3909
-2.72102
-3.28331
-3.88341
-4.16759
-3.49402
-3.01513
5.9075
14.8683
33.2083
-0.706928
-0.787204
-0.902482
-1.02077
-1.05248
-1.25876
-1.28976
-1.58913
-1.76991
-2.06358
-2.30215
-2.98249
-2.71827
-3.5882
-4.44043
-3.10465
4.81069
21.8842
27.2235
-0.6821
-0.813655
-0.849288
-0.853028
-1.0307
-1.05084
-1.25729
-1.28717
-1.59874
-1.73987
-1.94282
-2.54265
-2.61561
-2.84799
-3.50755
-2.56423
8.49152
17.8209
29.1845
-0.554824
-0.678025
-0.753653
-0.827317
-0.896303
-1.01261
-1.02693
-1.14676
-1.28889
-1.41143
-1.64306
-2.08527
-2.16231
-2.21589
-2.52773
-2.12671
1.16168
10.2153
24.5354
-0.53977
-0.620565
-0.726762
-0.735415
-0.821008
-0.8867
-0.900222
-0.96429
-1.02597
-1.27355
-1.38778
-1.51673
-1.39317
-1.27353
-1.12956
-0.770556
0.016051
2.64055
5.83933
-0.486042
-0.538071
-0.676644
-0.613236
-0.70886
-0.706691
-0.811571
-0.714221
-0.81504
-0.706637
-1.14582
-1.0903
-0.889825
-0.65347
-0.291545
0.241121
1.09996
2.65589
3.07696
-0.431581
-0.462146
-0.519883
-0.554083
-0.566561
-0.685918
-0.533955
-0.751678
-0.648056
-0.738806
-0.601807
-0.701539
-0.454316
-0.213441
0.215245
0.755728
1.48255
2.92229
3.82122
-0.367247
-0.401007
-0.439723
-0.476862
-0.439667
-0.50305
-0.532248
-0.497961
-0.413448
-0.516052
-0.315472
-0.674785
-0.263639
0.0160761
0.440565
0.930788
1.52547
2.38121
2.8566
-0.30695
-0.321719
-0.352023
-0.396534
-0.389279
-0.404178
-0.387048
-0.417844
-0.432203
-0.282554
-0.189565
-0.311932
-0.0891472
0.158443
0.490019
0.872017
1.30958
1.8367
2.09481
-0.283892
-0.254285
-0.283307
-0.306106
-0.332495
-0.324154
-0.363842
-0.292023
-0.355769
-0.292227
-0.189251
-0.0812679
0.000499747
0.226059
0.461972
0.73989
1.03697
1.36158
1.52218
-0.168745
-0.183939
-0.182891
-0.202148
-0.214134
-0.259969
-0.184729
-0.193068
-0.194582
-0.124187
-0.119029
0.0360084
-0.0611291
0.162039
0.294458
0.475253
0.653355
0.842988
0.937699
-0.104618
-0.0728413
-0.111162
-0.121059
-0.13844
-0.132574
-0.156584
-0.0943511
-0.159339
-0.0955636
-0.0374965
-0.0109001
0.00435583
0.111603
0.177915
0.263581
0.334569
0.394678
0.405541
-0.037931
-0.0388443
-0.0406441
-0.0308858
-0.077559
-0.0099284
-0.0215898
-0.0734218
0.0139964
-0.01478
0.00182497
-0.0601443
-0.0497149
-0.0812522
-0.157411
-0.207771
-0.253851
-0.282334
-0.291159
)
;

boundaryField
{
    leftWall
    {
        type            zeroGradient;
    }
    rightWall
    {
        type            zeroGradient;
    }
    lowerWall
    {
        type            zeroGradient;
    }
    atmosphere
    {
        type            totalPressure;
        rho             rho;
        psi             none;
        gamma           1;
        p0              uniform 0;
        value           nonuniform List<scalar> 
46
(
-0.0716792
-0.0742626
-0.0746508
-0.0881521
-0.0638631
-0.0594873
-0.0547625
-0.0416811
-0.0593186
-0.0336014
-0.055928
-0.0361728
-0.0470107
-0.0443575
-0.0473257
-0.0396187
-0.0377077
-0.0312138
-0.0263866
-0.0249267
-0.0168815
-0.0204879
-0.00812551
-0.0111502
-0.00746665
-0.0103579
-0.00411774
-0.00721403
-0.000463634
-2.26812e-06
0
0
0
0
0
0
0
0
0
0
0
0
0
0
0
0
)
;
    }
    defaultFaces
    {
        type            empty;
    }
}


// ************************************************************************* //
