/*--------------------------------*- C++ -*----------------------------------*\
| =========                 |                                                 |
| \\      /  F ield         | foam-extend: Open Source CFD                    |
|  \\    /   O peration     | Version:     4.1                                |
|   \\  /    A nd           | Web:         http://www.foam-extend.org         |
|    \\/     M anipulation  |                                                 |
\*---------------------------------------------------------------------------*/
FoamFile
{
    version     2.0;
    format      ascii;
    class       surfaceScalarField;
    location    "0.4";
    object      phi;
}
// * * * * * * * * * * * * * * * * * * * * * * * * * * * * * * * * * * * * * //

dimensions      [0 3 -1 0 0 0 0];

internalField   nonuniform List<scalar> 
4432
(
8.95445e-07
-8.95445e-07
3.13034e-06
-2.2349e-06
6.25605e-06
-3.12571e-06
1.13054e-05
-5.04934e-06
1.97363e-05
-8.43088e-06
2.82537e-05
-8.51745e-06
3.21979e-05
-3.94424e-06
4.62226e-05
-1.40246e-05
5.43624e-05
-8.13978e-06
8.48929e-05
-3.05306e-05
8.45957e-05
2.97176e-07
8.75024e-05
-2.90669e-06
8.76972e-05
-1.94807e-07
8.75606e-05
1.36619e-07
5.79372e-05
2.96234e-05
6.12312e-05
-3.29403e-06
5.4344e-05
6.88724e-06
4.32707e-05
1.10733e-05
3.55835e-05
7.68721e-06
5.15575e-05
-1.5974e-05
4.675e-05
4.80746e-06
-2.57933e-06
4.93294e-05
-2.57933e-06
1.03881e-06
-1.93426e-06
3.24925e-06
-4.44535e-06
6.18298e-06
-6.05945e-06
1.11484e-05
-1.00148e-05
1.97903e-05
-1.70727e-05
2.80978e-05
-1.6825e-05
3.23413e-05
-8.18774e-06
4.71906e-05
-2.88739e-05
5.49985e-05
-1.59477e-05
8.18429e-05
-5.73749e-05
8.32494e-05
-1.10935e-06
8.52563e-05
-4.91357e-06
8.89142e-05
-3.85273e-06
8.87851e-05
2.6568e-07
9.29529e-05
2.54556e-05
5.80847e-05
3.15742e-05
5.58913e-05
9.08059e-06
8.28894e-05
-1.59248e-05
7.0254e-05
2.03226e-05
6.4974e-05
-1.0694e-05
6.31095e-05
6.67199e-06
6.10289e-05
5.141e-05
5.84495e-05
9.63059e-07
-2.89732e-06
3.23681e-06
-6.7191e-06
5.91494e-06
-8.73759e-06
1.06446e-05
-1.47445e-05
1.86034e-05
-2.50314e-05
2.76967e-05
-2.59183e-05
3.41458e-05
-1.46368e-05
4.61414e-05
-4.08695e-05
5.11867e-05
-2.09931e-05
4.68109e-05
-5.29991e-05
7.58593e-05
-3.01577e-05
7.59743e-05
-5.02859e-06
7.45016e-05
-2.38005e-06
4.53473e-05
2.942e-05
5.29499e-05
1.7853e-05
5.92996e-05
2.52245e-05
5.46048e-05
1.37754e-05
4.3961e-05
-5.28096e-06
6.55901e-05
-1.30652e-06
5.55912e-05
-6.95012e-07
4.92077e-05
1.30555e-05
2.9466e-05
7.11517e-05
8.79155e-05
1.38847e-06
-4.28579e-06
3.56165e-06
-8.89229e-06
5.51409e-06
-1.069e-05
1.03624e-05
-1.95929e-05
1.98821e-05
-3.45511e-05
2.92838e-05
-3.532e-05
3.59089e-05
-2.12619e-05
4.38858e-05
-4.88464e-05
4.4863e-05
-2.19703e-05
4.32813e-05
-5.14174e-05
3.83489e-05
-2.52254e-05
7.03009e-05
-3.69805e-05
4.62499e-05
2.16709e-05
8.63756e-05
-1.07057e-05
9.11674e-05
1.30612e-05
9.74711e-05
1.89208e-05
9.99587e-05
1.12878e-05
9.03732e-05
4.3045e-06
8.00696e-05
8.99709e-06
5.86462e-05
2.07284e-05
4.49127e-05
2.6789e-05
2.73023e-05
8.87621e-05
0.000115218
1.10363e-06
-5.38942e-06
3.26079e-06
-1.10495e-05
5.07693e-06
-1.25062e-05
1.06853e-05
-2.52013e-05
2.12952e-05
-4.51611e-05
2.83374e-05
-4.23622e-05
3.17646e-05
-2.46892e-05
4.08361e-05
-5.7918e-05
4.11082e-05
-2.22423e-05
4.23059e-05
-5.2615e-05
7.20906e-05
-5.50101e-05
4.47845e-05
-9.67433e-06
7.89919e-05
-1.25365e-05
8.89952e-05
-2.0709e-05
9.06071e-05
1.14493e-05
8.89999e-05
2.05279e-05
8.53036e-05
1.49842e-05
7.97104e-05
9.89772e-06
7.20923e-05
1.66151e-05
4.83034e-05
4.45172e-05
3.43077e-05
4.07847e-05
2.25894e-05
0.00010048
0.000137807
1.62457e-06
-7.01399e-06
3.39923e-06
-1.28241e-05
5.09738e-06
-1.42043e-05
1.19934e-05
-3.20973e-05
2.07945e-05
-5.39621e-05
2.60573e-05
-4.7625e-05
5.28476e-05
-5.14795e-05
4.04526e-05
-4.55229e-05
7.44979e-05
-5.62876e-05
7.6353e-05
-5.44701e-05
7.64204e-05
-5.50776e-05
7.71193e-05
-1.03732e-05
8.0061e-05
-1.54783e-05
5.73243e-05
2.02771e-06
0.000101333
-3.25594e-05
9.58646e-05
2.59963e-05
9.47373e-05
1.61115e-05
8.63892e-05
1.82457e-05
7.40012e-05
2.90032e-05
5.05683e-05
6.79501e-05
3.24255e-05
5.89275e-05
1.91938e-05
0.000113712
0.000157001
1.26753e-06
-8.28151e-06
3.20954e-06
-1.47661e-05
5.54431e-06
-1.65391e-05
1.26996e-05
-3.92526e-05
2.03573e-05
-6.16198e-05
2.53823e-05
-5.26499e-05
3.14888e-05
-5.7586e-05
4.19202e-05
-5.59544e-05
6.73396e-05
-8.1707e-05
7.43779e-05
-6.15084e-05
4.43017e-05
-2.50014e-05
7.95621e-05
-4.56336e-05
4.8879e-05
1.52048e-05
5.87366e-05
-7.82984e-06
6.47177e-05
-3.85405e-05
0.000104656
-1.39423e-05
9.72557e-05
2.35122e-05
8.95346e-05
2.59668e-05
8.52087e-05
3.33291e-05
6.72352e-05
8.59236e-05
4.46021e-05
8.15605e-05
3.66484e-05
0.000121666
0.000193649
1.91572e-06
-1.01972e-05
3.47775e-06
-1.63282e-05
6.72926e-06
-1.97906e-05
1.40533e-05
-4.65766e-05
2.05566e-05
-6.81231e-05
2.68795e-05
-5.89729e-05
5.45939e-05
-8.53004e-05
6.86535e-05
-7.0014e-05
6.97112e-05
-8.27647e-05
7.56689e-05
-6.74661e-05
8.17195e-05
-3.1052e-05
4.75205e-05
-1.14346e-05
7.45658e-05
-1.18405e-05
8.77501e-05
-2.10141e-05
5.46929e-05
-5.48336e-06
5.14316e-05
-1.06809e-05
8.73227e-05
-1.2379e-05
8.44539e-05
2.88356e-05
4.20179e-05
7.57652e-05
6.88036e-05
5.91379e-05
5.31167e-05
9.72474e-05
3.83102e-05
0.000136472
0.00023196
-0.000108501
0.000108501
-0.000137979
2.94782e-05
-0.000138052
7.27621e-08
-0.000128962
-9.09008e-06
-0.000117406
-1.1556e-05
-0.00010725
-1.01556e-05
-9.33685e-05
-1.38819e-05
-6.29299e-05
-3.04386e-05
-6.89802e-05
6.05032e-06
-0.000109869
4.08892e-05
-6.40985e-05
-4.57709e-05
-9.45654e-05
3.04669e-05
-4.86072e-05
-4.59582e-05
1.74178e-05
-6.60249e-05
6.83433e-05
-5.09256e-05
3.95398e-05
2.88035e-05
1.66362e-05
2.29036e-05
-1.5429e-05
3.20652e-05
-1.5429e-05
-2.93514e-05
0.000137852
-5.76693e-05
5.77962e-05
-7.15618e-05
1.39651e-05
-7.08674e-05
-9.78439e-06
-6.32897e-05
-1.91338e-05
-6.30925e-05
-1.03529e-05
-3.68453e-05
-4.01291e-05
-4.61088e-05
-2.11751e-05
-6.56231e-05
2.55646e-05
-4.0393e-05
1.56591e-05
-5.20842e-05
-3.40797e-05
-2.47316e-05
3.11434e-06
2.78532e-05
-9.85431e-05
7.75483e-05
-0.00011572
5.38003e-05
-2.71775e-05
6.05371e-05
2.20667e-05
5.08463e-05
3.25944e-05
3.04504e-05
5.2461e-05
1.50214e-05
-1.50659e-05
0.000152918
-3.88046e-05
8.1535e-05
-5.55631e-05
3.07233e-05
-3.98798e-05
-2.54677e-05
-1.96299e-05
-3.93838e-05
-3.86875e-05
8.70464e-06
-1.67093e-05
-6.21073e-05
-1.7705e-05
-2.01794e-05
-1.89514e-05
2.68111e-05
7.96764e-06
-1.126e-05
2.83217e-05
-5.44337e-05
5.9202e-05
-2.7766e-05
6.93939e-05
-0.000108735
5.55532e-05
-0.000101879
6.79092e-05
-3.95335e-05
7.28902e-05
1.70858e-05
6.10499e-05
4.44347e-05
4.03281e-05
7.31829e-05
5.53495e-05
5.89658e-06
0.000147022
2.65905e-05
6.08413e-05
3.78394e-05
1.94741e-05
2.7428e-05
-1.50564e-05
1.39715e-05
-2.59274e-05
-9.59246e-06
3.22685e-05
-1.22786e-05
-5.94212e-05
-1.79156e-05
-1.45424e-05
1.35858e-05
-4.69043e-06
3.54947e-05
-3.31689e-05
7.64285e-05
-9.53674e-05
8.82426e-05
-3.95801e-05
9.63336e-05
-0.000116826
7.03704e-05
-7.59161e-05
7.8693e-05
-4.78561e-05
7.85856e-05
1.71931e-05
6.6363e-05
5.66573e-05
4.5577e-05
9.39689e-05
0.000100926
1.65598e-05
0.000130462
3.56692e-05
4.17321e-05
3.67303e-05
1.84128e-05
5.30178e-05
-3.13439e-05
2.44249e-05
2.66553e-06
1.4364e-06
5.52569e-05
-1.01125e-05
-4.78723e-05
-2.18017e-05
-2.85316e-06
1.26486e-05
-3.91407e-05
5.35677e-05
-7.4088e-05
4.56689e-05
-8.74687e-05
6.35678e-05
-5.7479e-05
7.50999e-05
-0.000128358
8.63983e-05
-8.72145e-05
9.16868e-05
-5.31446e-05
9.00234e-05
1.88565e-05
7.24962e-05
7.41846e-05
4.54055e-05
0.00012106
0.000146332
2.3511e-05
0.00010695
3.76089e-05
2.76344e-05
3.73448e-05
1.86769e-05
4.91427e-05
-4.31417e-05
2.81388e-05
2.36694e-05
1.43876e-05
6.9008e-05
-1.58155e-05
-1.76692e-05
-7.61389e-06
-1.10547e-05
6.58179e-05
-0.000112573
5.21145e-05
-6.03846e-05
6.97307e-05
-0.000105085
7.99923e-05
-6.77405e-05
8.65385e-05
-0.000134904
9.58945e-05
-9.65706e-05
9.93749e-05
-5.6625e-05
9.70987e-05
2.11327e-05
8.12144e-05
9.00689e-05
5.11464e-05
0.000151128
0.000197478
2.49833e-05
8.1967e-05
2.71446e-05
2.54732e-05
2.05068e-05
2.53147e-05
3.20578e-05
-5.46927e-05
1.27496e-05
4.29776e-05
3.50771e-05
4.66805e-05
4.64052e-06
1.27674e-05
1.31035e-06
-7.72456e-06
5.8357e-05
-0.000169619
7.34189e-05
-7.54464e-05
9.03039e-05
-0.00012197
0.000102202
-7.96384e-05
0.000107813
-0.000140515
0.000109977
-9.87347e-05
0.00010829
-5.4938e-05
0.000104069
2.53534e-05
8.49919e-05
0.000109146
5.37616e-05
0.000182358
0.00025124
1.38389e-05
6.8128e-05
5.9821e-05
-2.05089e-05
3.73891e-05
4.77466e-05
2.90906e-05
-4.63942e-05
2.39323e-05
4.81359e-05
3.95567e-05
3.10561e-05
6.41449e-05
-1.18208e-05
0.000102469
-4.60489e-05
7.57764e-05
-0.000142926
9.84261e-05
-9.80962e-05
0.000110861
-0.000134405
0.000116982
-8.57594e-05
0.000117874
-0.000141407
0.000112876
-9.37367e-05
0.000109793
-5.18549e-05
0.000109294
2.58521e-05
9.20382e-05
0.000126402
5.67632e-05
0.000217633
0.000308003
5.97936e-06
-1.61766e-05
2.13088e-05
-3.16577e-05
3.37109e-05
-3.21927e-05
6.08675e-05
-7.37333e-05
7.96089e-05
-8.68645e-05
0.000102383
-8.1747e-05
0.000126244
-0.000109161
0.000158174
-0.000101944
0.000166359
-9.09502e-05
0.000174105
-7.52116e-05
0.000168998
-2.5945e-05
0.000155517
2.04599e-06
0.000154545
-1.08688e-05
0.000126236
7.29517e-06
0.000138198
-1.74455e-05
0.000195044
-6.75268e-05
0.000199318
-1.66527e-05
0.000207949
2.0205e-05
0.000205239
7.84743e-05
0.000177606
8.67715e-05
0.000179895
9.49587e-05
0.000157403
0.000158964
0.000150102
0.000239261
-1.03479e-06
-1.51418e-05
2.46587e-05
-5.73511e-05
3.48624e-05
-4.23963e-05
5.42161e-05
-9.3087e-05
5.03046e-05
-8.29529e-05
6.56315e-05
-9.70739e-05
7.62645e-05
-0.000119794
8.31619e-05
-0.000108841
8.11031e-05
-8.88914e-05
9.05346e-05
-8.46431e-05
9.99828e-05
-3.53932e-05
0.000155978
-5.39497e-05
0.000167944
-2.2834e-05
0.000179257
-4.01852e-06
0.000172009
-1.0197e-05
0.000136192
-3.17098e-05
0.000145296
-2.57566e-05
0.000161675
3.82548e-06
0.000169965
7.01847e-05
0.000197965
5.87709e-05
0.000143306
0.000149618
0.00017191
0.000130361
0.000117687
0.000204325
1.14615e-05
-2.66033e-05
7.69977e-06
-5.35894e-05
2.27752e-05
-5.74718e-05
3.95126e-05
-0.000109824
5.90866e-05
-0.000102527
6.81487e-05
-0.000106136
7.54198e-05
-0.000127065
7.79098e-05
-0.000111331
8.8308e-05
-9.92896e-05
0.000106261
-0.000102596
0.000154299
-8.34312e-05
0.000137909
-3.75602e-05
0.000154668
-3.95931e-05
0.00016524
-1.459e-05
0.000178173
-2.31304e-05
0.000156952
-1.0489e-05
0.000143227
-1.20313e-05
0.000139133
7.91951e-06
0.000153395
5.59223e-05
9.10284e-05
0.000121138
0.000136442
0.000104204
0.000185269
8.15336e-05
0.000103092
0.000199863
-4.4164e-06
-2.21869e-05
4.30018e-06
-6.2306e-05
1.18805e-05
-6.50521e-05
7.88104e-05
-0.000176754
6.29736e-05
-8.66901e-05
7.59502e-05
-0.000119113
8.84159e-05
-0.000139531
9.61637e-05
-0.000119079
0.000160944
-0.00016407
0.000192891
-0.000134543
0.000180282
-7.08218e-05
0.000176209
-3.34873e-05
0.000111477
2.51386e-05
0.000101651
-4.76374e-06
0.000100828
-2.23072e-05
0.000151182
-6.08435e-05
0.000157128
-1.79767e-05
0.000155675
9.37184e-06
8.44341e-05
0.000127164
0.000113068
9.25046e-05
0.000130895
8.63765e-05
0.000144184
6.82452e-05
4.49677e-06
0.000242779
-4.51634e-06
-1.76706e-05
1.73661e-05
-8.41884e-05
7.44423e-05
-0.000122128
6.24935e-05
-0.000164806
0.000119577
-0.000143773
0.000101567
-0.000101103
5.35227e-05
-9.14867e-05
9.95012e-05
-0.000165058
9.52844e-05
-0.000159853
0.000126325
-0.000165584
0.000112028
-5.65248e-05
9.91766e-05
-2.06355e-05
0.000125487
-1.17228e-06
0.000121967
-1.24368e-06
0.000144944
-4.52836e-05
0.00013494
-5.08396e-05
0.000164673
-4.77099e-05
0.000173766
2.78497e-07
0.000197647
0.000103283
0.000221009
6.91432e-05
0.00021352
9.38649e-05
0.000206172
7.55938e-05
1.79391e-05
0.000192729
6.74852e-06
-2.44191e-05
1.73413e-05
-9.47812e-05
3.58967e-05
-0.000140684
3.99076e-05
-0.000168816
4.96622e-05
-0.000153528
5.00231e-05
-0.000101464
5.37449e-05
-9.52085e-05
9.03638e-05
-0.000201677
5.76638e-05
-0.000127153
7.21339e-05
-0.000180054
0.000145549
-0.00012994
8.43629e-05
4.05511e-05
5.3179e-05
3.00116e-05
0.000114001
-6.2066e-05
0.000160373
-9.16557e-05
0.000150714
-4.11798e-05
9.33927e-05
9.61108e-06
9.43066e-05
-6.35419e-07
0.000182628
1.49617e-05
0.000193432
5.83389e-05
0.000223835
6.34619e-05
0.000259004
4.04248e-05
6.12292e-06
0.00027082
2.1149e-05
-4.55681e-05
2.45325e-05
-9.81647e-05
2.76515e-05
-0.000143803
3.45511e-05
-0.000175716
3.00624e-05
-0.000149039
1.93038e-05
-9.07052e-05
2.77466e-05
-0.000103651
1.86433e-05
-0.000192573
-6.2635e-06
-0.000102246
2.28988e-06
-0.000188608
4.08304e-05
-0.000168481
7.53793e-05
6.00214e-06
9.10229e-05
1.4368e-05
0.000136273
-0.000107316
0.000142246
-9.7629e-05
0.000109765
-8.69814e-06
3.68862e-05
8.24897e-05
5.26299e-05
-1.63792e-05
0.000102854
-3.52624e-05
0.000146631
1.4562e-05
0.000190436
1.96572e-05
0.000231772
-9.11373e-07
-1.93832e-05
0.000257278
6.70345e-05
-0.000112603
6.51171e-05
-9.62473e-05
6.54951e-05
-0.000144181
6.04654e-05
-0.000170686
1.19917e-05
-0.000100565
3.60865e-05
-0.0001148
4.52683e-05
-0.000112833
-4.17762e-05
-0.000105529
-2.58646e-05
-0.000118158
-2.60147e-06
-0.000211871
3.5978e-05
-0.00020706
7.0696e-05
-2.87159e-05
9.22074e-05
-7.14341e-06
2.2289e-05
-3.73979e-05
-1.78256e-05
-5.75144e-05
2.28574e-05
-4.93812e-05
6.41349e-05
4.12122e-05
5.17467e-05
-3.99096e-06
6.43185e-05
-4.78342e-05
9.97665e-05
-2.08859e-05
0.000113539
5.88512e-06
0.000144352
-3.17244e-05
-7.69091e-05
0.000201878
1.64904e-05
-0.000129093
3.73673e-05
-0.000117124
4.6509e-05
-0.000153322
1.79242e-05
-0.000142102
2.26018e-05
-0.000105243
-7.25509e-06
-8.49431e-05
-3.33587e-05
-8.67296e-05
-3.68971e-05
-0.00010199
-2.2781e-05
-0.000132274
-7.44833e-06
-0.000227203
1.37005e-05
-0.000228209
6.65348e-05
-8.15501e-05
6.0236e-05
-8.4461e-07
3.80568e-05
-1.52187e-05
8.421e-06
-2.78786e-05
6.18246e-06
-4.71426e-05
3.59937e-05
1.1401e-05
5.66493e-05
-2.46466e-05
7.79996e-05
-6.91846e-05
0.000105847
-4.87336e-05
0.000146453
-3.47209e-05
0.000146235
-3.15063e-05
-4.40821e-05
0.000113408
7.51653e-06
-0.00013661
6.21899e-06
-0.000115827
-3.11038e-06
-0.000143993
-3.35465e-05
-0.000111665
-2.0653e-05
-0.000118136
-1.28716e-05
-9.27244e-05
-3.18724e-05
-6.77288e-05
-6.04432e-05
-7.34197e-05
-2.93498e-05
-0.000163367
-1.92696e-05
-0.000237284
-1.19929e-05
-0.000235486
3.61699e-05
-0.000129713
5.59196e-05
-2.05943e-05
2.87401e-05
1.19607e-05
-1.79706e-06
2.65861e-06
-1.68791e-05
-3.20606e-05
1.94668e-05
-2.49449e-05
1.57313e-05
-2.09111e-05
8.19573e-06
-6.16489e-05
1.6463e-05
-5.70009e-05
3.13948e-05
-4.96526e-05
4.52829e-05
-4.53944e-05
-5.15859e-05
5.27867e-05
-7.66684e-06
-0.000128943
-1.42997e-05
-0.000109194
-1.64612e-05
-0.000141831
-3.2592e-05
-9.55347e-05
-2.06006e-05
-0.000130128
-5.01432e-05
-6.31818e-05
-4.87581e-05
-6.9114e-05
-3.53493e-05
-8.68285e-05
-1.53255e-05
-0.000183391
-1.90294e-05
-0.00023358
-1.51185e-05
-0.000239397
-2.23076e-05
-0.000122524
-3.09463e-05
-1.19555e-05
-3.80276e-05
1.90421e-05
-3.47239e-05
-6.45099e-07
-2.57761e-05
-4.10084e-05
-2.24295e-05
-2.82915e-05
-5.95829e-06
-3.73823e-05
-1.0602e-05
-5.70052e-05
-9.09916e-06
-5.85037e-05
-2.01139e-05
-3.86378e-05
-2.26495e-05
-4.28589e-05
-4.6358e-05
-2.78774e-05
-6.41531e-06
-0.000122527
-1.49055e-05
-0.000100704
-5.63678e-06
-0.0001511
2.95515e-06
-0.000104127
-1.50107e-05
-0.000112162
-4.37101e-06
-7.38215e-05
1.69717e-05
-9.04568e-05
5.34835e-05
-0.00012334
1.22781e-05
-0.000142186
-3.56033e-05
-0.000185698
-4.96126e-05
-0.000225388
-4.24826e-05
-0.000129654
-5.52826e-05
8.44519e-07
-6.192e-05
2.56795e-05
-2.35833e-05
-3.89819e-05
-1.57449e-05
-4.88468e-05
-1.14876e-05
-3.25489e-05
-2.08203e-05
-2.80495e-05
-1.9782e-05
-5.80435e-05
-5.17066e-05
-2.65791e-05
-5.058e-05
-3.97645e-05
-6.12508e-05
-3.21881e-05
-5.49764e-05
-5.26324e-05
-1.75409e-05
-0.000104986
5.73657e-06
-0.000123981
-1.08113e-05
-0.000134552
3.06018e-05
-0.00014554
1.33255e-05
-9.48856e-05
1.90698e-05
-7.95658e-05
2.42532e-05
-9.56401e-05
6.19955e-05
-0.000161082
4.89927e-05
-0.000129183
1.00224e-05
-0.000146728
-3.25244e-05
-0.000182841
-7.0856e-05
-9.13223e-05
-6.21281e-05
-7.88332e-06
-3.25067e-05
-3.942e-06
-1.7949e-05
-5.35396e-05
-1.50825e-05
-5.17133e-05
-1.95516e-05
-2.80798e-05
-2.19317e-05
-2.56694e-05
-5.57833e-05
-2.41919e-05
-5.80878e-05
-2.42746e-05
-6.49308e-05
-3.29215e-05
-2.64837e-05
-7.06352e-05
-4.07292e-05
-4.07308e-05
1.9447e-05
-0.000124433
5.02559e-06
-0.00010956
1.50747e-05
-0.000144601
8.821e-06
-0.000139286
2.53424e-05
-0.000111407
1.92174e-05
-7.34409e-05
1.92021e-05
-9.56248e-05
4.30813e-05
-0.000184962
2.27816e-05
-0.000108883
2.00758e-05
-0.000144022
-3.31805e-05
-0.000129584
-5.01249e-05
-7.43779e-05
-1.18463e-05
-4.6162e-05
-4.17771e-06
-1.16106e-05
-1.826e-05
-3.94573e-05
-2.0586e-05
-4.93873e-05
-3.13433e-05
-1.73225e-05
-3.55384e-05
-2.14743e-05
-3.82736e-05
-2.14567e-05
-3.67248e-05
-2.58235e-05
-2.15895e-05
-4.80568e-05
-5.09267e-05
-4.1298e-05
-5.16862e-05
-3.99697e-05
-9.67147e-06
-0.000114762
-3.07049e-06
-0.000116161
-6.19464e-06
-0.000141477
8.18347e-07
-0.000146299
2.01767e-05
-0.000130765
3.00782e-05
-8.33424e-05
3.54634e-05
-0.00010101
3.09906e-05
-0.000180489
4.89146e-05
-0.000126807
1.22519e-05
-0.00010736
-1.87982e-05
-9.85344e-05
-4.19824e-05
-5.11936e-05
-2.25975e-05
-6.55469e-05
-7.33004e-06
-2.68781e-05
-1.51631e-05
-3.16243e-05
-3.65453e-05
-2.80051e-05
-3.67671e-05
-1.71007e-05
-2.36128e-05
-3.46287e-05
-1.56666e-05
-2.9403e-05
-1.6946e-05
-2.45441e-05
-1.70858e-05
-4.7917e-05
-2.27656e-05
-3.56181e-05
-3.26719e-05
-4.17799e-05
-1.13479e-05
-0.000103414
-5.22795e-06
-0.000122281
-8.54846e-06
-0.000138157
-5.36166e-06
-0.000149486
7.59723e-06
-0.000143724
1.97201e-05
-9.54652e-05
1.64727e-05
-9.77626e-05
2.02614e-05
-0.000184278
1.45964e-05
-0.000121142
9.3607e-06
-0.000102124
-1.61265e-05
-7.30473e-05
-2.46105e-05
-4.27096e-05
-2.77252e-05
-6.24322e-05
-3.56265e-06
-5.10406e-05
-1.89709e-05
-1.6216e-05
-2.48495e-05
-2.21265e-05
-2.36006e-05
-1.83496e-05
-2.54238e-05
-3.28055e-05
-1.8749e-05
-3.60778e-05
-2.11847e-05
-2.21084e-05
-3.66265e-05
-3.24752e-05
-1.70444e-05
-5.52001e-05
-3.09631e-05
-1.87532e-05
-3.32842e-05
-7.01298e-05
-1.39259e-05
-0.000141639
-1.62725e-05
-0.00013581
-1.95033e-05
-0.000146255
-1.16407e-05
-0.000151587
1.00719e-06
-0.000108113
6.28616e-05
-0.000159617
1.48787e-05
-0.000136295
-3.50219e-06
-0.000102761
-2.42778e-05
-8.13483e-05
-1.1877e-05
-8.5448e-05
1.1789e-05
-6.63756e-05
8.28662e-06
-5.89299e-05
-1.47186e-05
-2.80354e-05
-2.10386e-05
-9.89608e-06
-2.87986e-05
-1.43665e-05
-3.00423e-05
-1.71059e-05
-2.96415e-05
-3.32063e-05
-4.23497e-05
-2.33696e-05
-2.36968e-05
-4.07613e-05
-1.591e-05
-4.0262e-05
-1.0221e-05
-6.0889e-05
-3.38734e-05
-7.31075e-06
1.79617e-05
-8.80915e-05
-2.79237e-05
-9.57537e-05
-1.71012e-05
-0.000146633
-3.10149e-05
-0.000132341
-1.66816e-05
-0.00016592
-2.74547e-05
-9.73401e-05
-8.60217e-06
-0.00017847
-9.00059e-06
-0.000135896
5.97357e-06
-0.000117736
6.9859e-06
-8.23606e-05
-1.00181e-05
-6.8444e-05
-1.98603e-05
-5.65334e-05
-3.15143e-05
-4.72759e-05
-4.19991e-05
-1.75506e-05
-3.39734e-05
-1.79218e-05
-3.19943e-05
-1.63456e-05
-3.16211e-05
-1.74791e-05
-4.01731e-05
-2.46542e-05
-1.33498e-05
-5.01929e-05
-2.08287e-05
-3.32824e-05
-2.76134e-05
-3.34773e-05
-2.35548e-05
-6.49476e-05
-3.4574e-05
-2.28541e-05
1.24097e-05
-0.000100501
1.67722e-05
-0.000100116
-2.16525e-05
-0.000108208
-1.71759e-05
-0.000136818
-6.95488e-05
-0.000113547
-6.49268e-05
-0.000101962
-7.32923e-05
-0.000170104
-3.70749e-05
-0.000172114
-4.87168e-05
-0.000106094
-4.31921e-05
-8.78852e-05
-1.05996e-05
-0.000101037
-3.42429e-05
-3.28901e-05
-6.05945e-05
-2.09243e-05
-5.41765e-05
-2.39686e-05
-3.67931e-05
-3.53052e-05
-2.62378e-05
-2.69009e-05
-2.63267e-05
-1.73902e-05
-1.99782e-05
-3.10028e-05
-4.1582e-05
-2.85891e-05
-4.14848e-05
-3.33796e-05
-1.65743e-05
-5.83878e-05
-2.17252e-05
-5.97966e-05
-4.77648e-05
-8.5344e-06
1.72519e-06
-0.000102226
4.39639e-06
-0.000102787
1.36434e-06
-0.000105176
-2.95336e-05
-0.00010592
-3.78365e-05
-0.000105244
-4.49298e-05
-9.48688e-05
-5.90513e-05
-0.000155983
-8.71541e-05
-0.000144011
-0.000108756
-8.44913e-05
-0.000122146
-7.44961e-05
-0.000123216
-9.99656e-05
-0.000116107
-3.99996e-05
-7.29499e-05
-6.40814e-05
-5.39916e-05
-4.29269e-05
-6.03455e-05
-2.89512e-05
-5.30765e-05
-3.41699e-05
-3.11901e-05
-3.92767e-05
-3.32396e-05
-2.89533e-05
-2.21627e-05
-3.9666e-05
-1.19443e-05
-4.35981e-05
-3.20113e-05
-3.83208e-05
-3.1275e-05
-6.05329e-05
-4.79536e-05
-3.10862e-05
-2.33108e-06
-9.98954e-05
-4.04623e-06
-0.000101072
-1.30284e-05
-9.61937e-05
-1.82416e-05
-0.000100707
-3.24927e-05
-9.09932e-05
2.38436e-06
-0.000129746
-5.06699e-05
-0.000102928
-4.5753e-05
-0.000148928
-6.39612e-05
-6.62832e-05
-6.85262e-05
-6.99311e-05
-9.97762e-05
-6.87156e-05
-7.07576e-05
-6.90182e-05
-9.41049e-05
-4.07341e-05
-7.3146e-05
-6.38858e-05
-6.18797e-05
-4.02175e-05
-5.06776e-05
-4.53721e-05
-5.71463e-05
-3.2808e-05
-3.11967e-05
-5.4903e-05
-3.6829e-05
-3.40337e-05
-3.13082e-05
-4.91189e-05
-1.32862e-05
-5.63428e-05
-1.25873e-05
-6.12319e-05
-3.73157e-05
-2.32251e-05
-1.69019e-06
-9.82052e-05
-4.19617e-06
-9.85662e-05
-4.91911e-06
-9.54708e-05
-1.62843e-05
-8.93416e-05
-1.52298e-05
-9.20478e-05
-4.00323e-06
-0.000140972
-9.12552e-06
-9.78062e-05
-6.29027e-05
-9.51506e-05
-4.85514e-05
-8.06344e-05
-4.59429e-05
-7.25396e-05
-4.41448e-05
-7.05136e-05
-4.67404e-05
-6.64226e-05
-3.85923e-05
-4.88822e-05
-5.92941e-05
-4.3184e-05
-3.37167e-05
-6.57948e-05
-2.50659e-05
-5.4023e-05
-2.20057e-05
-3.58682e-05
-3.45167e-05
-4.2392e-05
-3.02015e-05
-3.83489e-05
-2.47962e-05
-5.45241e-05
-2.32128e-05
-5.79262e-05
-2.32002e-05
-6.12445e-05
-4.00351e-05
-2.04808e-05
-5.61322e-06
-9.2592e-05
-1.58717e-05
-8.83077e-05
-2.2425e-05
-8.89175e-05
1.89555e-05
-0.000130722
1.06111e-05
-8.37033e-05
-3.06247e-05
-9.97365e-05
-3.88353e-05
-8.95957e-05
-4.15051e-05
-9.24808e-05
-3.2734e-05
-8.94055e-05
-3.16702e-05
-7.36034e-05
-3.53161e-05
-6.68678e-05
-4.0194e-05
-6.15446e-05
-4.53043e-05
-4.3772e-05
-4.21614e-05
-4.63269e-05
-2.749e-05
-8.04663e-05
-3.75141e-05
-4.39989e-05
-3.48441e-05
-3.85382e-05
-3.08761e-05
-4.636e-05
-2.09552e-05
-4.82698e-05
-1.97797e-05
-5.56997e-05
-1.76172e-05
-6.00886e-05
-1.14306e-05
-6.74311e-05
-4.40195e-05
-7.44619e-06
-2.36987e-05
-6.88933e-05
-1.17883e-06
-0.000110828
1.09737e-05
-0.00010107
-7.84281e-06
-0.000111906
1.04621e-05
-0.000102008
-3.43825e-06
-8.58361e-05
-1.94719e-05
-7.3562e-05
-2.8671e-05
-8.32817e-05
-4.28917e-05
-7.51848e-05
-4.78454e-05
-6.86497e-05
-4.83471e-05
-6.6366e-05
-4.76006e-05
-6.22911e-05
-4.06644e-05
-5.07082e-05
-3.68943e-05
-5.00971e-05
-6.23817e-05
-5.49789e-05
-2.79062e-05
-7.84744e-05
-2.37333e-05
-4.27111e-05
-2.52119e-05
-4.48815e-05
-1.8463e-05
-5.50187e-05
-3.02134e-05
-4.39492e-05
-2.91121e-05
-6.119e-05
-2.83301e-05
-6.8213e-05
-6.06488e-05
-1.17008e-05
1.70084e-05
-8.59016e-05
2.37245e-06
-9.61916e-05
-8.07723e-06
-9.06203e-05
-1.95169e-05
-0.000100466
-2.77632e-05
-9.3762e-05
-1.65701e-05
-9.70291e-05
1.43622e-06
-9.15683e-05
-1.26701e-05
-6.91753e-05
-2.72032e-05
-6.06517e-05
-3.34323e-05
-6.24207e-05
-3.79385e-05
-6.18597e-05
-3.85768e-05
-6.16529e-05
-3.10572e-05
-5.82277e-05
-1.89841e-05
-6.21702e-05
-1.62677e-05
-5.76953e-05
-3.67897e-05
-5.79524e-05
-3.25581e-05
-4.69427e-05
-1.31346e-05
-6.4305e-05
-2.33647e-05
-4.47886e-05
-2.42487e-05
-4.30652e-05
-2.10434e-05
-6.43952e-05
-2.15899e-05
-6.76666e-05
-5.81125e-05
-2.41261e-05
-1.56791e-06
-8.43337e-05
-4.59691e-06
-9.31626e-05
-2.6832e-06
-9.2534e-05
-1.00979e-05
-9.30512e-05
-1.36805e-05
-9.01794e-05
-2.38763e-05
-8.68333e-05
-3.15027e-05
-8.39419e-05
-1.96659e-05
-8.10121e-05
-3.33219e-05
-4.69958e-05
-4.88782e-05
-4.68643e-05
-3.69039e-05
-7.3834e-05
-2.25955e-05
-7.59613e-05
-6.77163e-06
-7.40515e-05
-1.72655e-05
-5.16763e-05
-2.82612e-05
-4.66997e-05
-3.19329e-05
-5.42807e-05
-8.82959e-06
-7.0046e-05
-2.38472e-05
-4.92874e-05
-2.25298e-05
-4.61059e-05
-2.00997e-05
-4.54953e-05
-2.22785e-05
-6.22165e-05
-2.29022e-05
-6.70428e-05
-6.19924e-05
-1.90224e-05
8.82804e-07
-8.52165e-05
-2.81198e-06
-8.94678e-05
-5.90725e-06
-8.94387e-05
-9.97828e-06
-8.89802e-05
-1.30859e-05
-8.70718e-05
-1.44224e-05
-8.54967e-05
-1.63873e-05
-8.1977e-05
-1.84453e-05
-7.8954e-05
-2.24016e-05
-4.30395e-05
-2.73463e-05
-4.19197e-05
-3.22133e-05
-6.8967e-05
-3.68138e-05
-7.13608e-05
-3.81302e-05
-7.27351e-05
-2.05459e-05
-6.92605e-05
-2.20243e-05
-4.52213e-05
-1.02059e-05
-6.60991e-05
-3.46609e-05
-4.55911e-05
-1.31648e-05
-7.07836e-05
-1.56652e-05
-4.36055e-05
-1.70903e-05
-4.40702e-05
-1.8652e-05
-6.06548e-05
-2.14292e-05
-6.42656e-05
-6.04936e-05
-2.2928e-05
-1.62898e-06
-8.35875e-05
-3.39787e-06
-8.76989e-05
-5.18436e-06
-8.76522e-05
-7.91608e-06
-8.62485e-05
-1.05114e-05
-8.44764e-05
-1.43409e-05
-8.16672e-05
-1.85596e-05
-7.77583e-05
-1.91562e-05
-7.83574e-05
-2.20052e-05
-4.01905e-05
-2.48701e-05
-3.90547e-05
-2.64313e-05
-6.74058e-05
-2.91931e-05
-6.85991e-05
-2.81126e-05
-7.38156e-05
-2.64833e-05
-7.08898e-05
-2.69553e-05
-4.47492e-05
-2.46263e-05
-6.84282e-05
-2.67542e-05
-4.34633e-05
-3.6648e-05
-6.08897e-05
-1.41599e-05
-6.60937e-05
-2.80232e-06
-5.54278e-05
-1.91927e-05
-4.42644e-05
-2.6221e-05
-5.72373e-05
-6.3074e-05
-2.36407e-05
-2.92407e-07
-8.32951e-05
-1.03887e-06
-8.69524e-05
-3.24742e-06
-8.54436e-05
-5.35974e-06
-8.41361e-05
-7.41374e-06
-8.24224e-05
-1.04326e-05
-7.86484e-05
-1.36108e-05
-7.45801e-05
-1.29329e-05
-7.90353e-05
-9.81799e-06
-4.33054e-05
-5.65898e-06
-4.32137e-05
-2.9086e-05
-4.39788e-05
-2.22119e-05
-7.54731e-05
-2.16742e-05
-7.43533e-05
-2.42467e-05
-6.83173e-05
-4.12928e-06
-6.48667e-05
-2.31287e-05
-4.94288e-05
-3.62313e-06
-6.29688e-05
-1.99103e-05
-4.46026e-05
-1.74544e-05
-6.85496e-05
-1.36038e-05
-5.92784e-05
-1.67377e-05
-4.11305e-05
-1.96178e-05
-5.43572e-05
-5.76399e-05
-2.50519e-05
-4.65806e-07
-8.28293e-05
-1.18712e-06
-8.62311e-05
-3.349e-06
-8.32817e-05
-5.54211e-06
-8.1943e-05
-8.30933e-06
-7.96552e-05
-1.05112e-05
-7.64465e-05
-1.41612e-05
-7.09301e-05
-1.55869e-05
-7.76097e-05
-1.67411e-05
-4.21512e-05
-1.56593e-05
-4.42955e-05
-1.74266e-05
-4.22115e-05
-1.4733e-05
-7.81667e-05
-1.60747e-05
-7.30115e-05
-1.51843e-05
-6.92077e-05
-1.28182e-05
-6.72328e-05
-1.78917e-05
-4.43553e-05
-1.7564e-05
-6.32965e-05
-1.86276e-05
-4.35391e-05
-2.31266e-05
-6.40505e-05
-1.39749e-05
-6.84302e-05
-7.03568e-06
-4.80697e-05
-2.08884e-05
-4.05045e-05
-5.28523e-05
-2.5676e-05
2.62661e-07
-8.3092e-05
1.58e-07
-8.61264e-05
5.89106e-07
-8.37128e-05
2.72158e-06
-8.40755e-05
9.23572e-06
-8.61693e-05
-1.16026e-05
-5.56082e-05
-3.03535e-05
-5.21791e-05
-2.33986e-05
-8.45646e-05
-1.77003e-05
-4.78495e-05
-1.40867e-05
-4.79092e-05
-1.08962e-05
-4.54019e-05
-1.4495e-05
-7.45679e-05
-1.75326e-05
-6.9974e-05
-1.76294e-05
-6.91109e-05
-2.38432e-05
-6.1019e-05
-5.71946e-06
-6.2479e-05
-7.45275e-06
-6.15632e-05
-1.10879e-05
-3.9904e-05
-1.16064e-05
-6.3532e-05
-1.02017e-05
-6.98349e-05
-2.06214e-05
-3.76499e-05
-2.30133e-05
-3.81126e-05
-5.44661e-05
-2.13995e-05
-4.30586e-07
-8.26614e-05
-1.00379e-06
-8.55532e-05
-1.84348e-06
-8.28731e-05
-4.41242e-06
-8.15065e-05
-7.42626e-06
-8.31555e-05
-8.77585e-06
-5.42586e-05
-1.06651e-05
-5.02899e-05
-1.05327e-05
-8.4697e-05
-8.15616e-06
-5.0226e-05
-8.10306e-06
-4.79623e-05
-6.45092e-06
-4.7054e-05
-1.00727e-05
-7.09462e-05
-1.27692e-05
-6.72774e-05
-1.35845e-05
-6.82956e-05
-1.04423e-05
-6.41612e-05
-8.64698e-06
-6.42744e-05
-2.57217e-05
-4.44885e-05
-4.48393e-06
-6.11418e-05
-2.36362e-05
-4.43797e-05
-3.31024e-05
-6.03686e-05
-1.17697e-05
-5.89827e-05
-7.50479e-06
-4.23775e-05
-3.36087e-05
-2.83622e-05
-7.63851e-08
-8.2585e-05
-5.12833e-08
-8.55783e-05
-2.63059e-07
-8.26614e-05
-2.06928e-06
-7.97003e-05
-3.5916e-06
-8.16332e-05
-9.33613e-06
-4.8514e-05
-1.33715e-05
-4.62546e-05
-2.70264e-05
-7.1042e-05
-1.05117e-05
-6.67407e-05
4.09806e-06
-6.25721e-05
-3.11955e-06
-3.98364e-05
-1.27457e-05
-6.13201e-05
-1.30046e-05
-6.70185e-05
-1.54323e-05
-6.58679e-05
-1.55167e-05
-6.40769e-05
-2.16146e-05
-5.81764e-05
-5.71989e-06
-6.03833e-05
-7.81909e-06
-5.90426e-05
-1.18079e-05
-4.0391e-05
-1.54211e-05
-5.67554e-05
-1.38e-05
-6.06038e-05
-2.25293e-05
-3.36482e-05
-3.4113e-05
-2.2025e-05
-2.01855e-07
-8.23831e-05
-6.31276e-07
-8.51489e-05
-1.39979e-06
-8.18928e-05
-5.76518e-06
-7.53349e-05
-1.48985e-05
-7.24998e-05
4.50012e-06
-6.79127e-05
1.55877e-07
-4.19103e-05
-5.42318e-06
-6.5463e-05
-5.63345e-06
-6.65304e-05
-2.06033e-06
-6.61452e-05
-9.3657e-07
-4.09602e-05
-2.03819e-05
-4.18748e-05
-1.41165e-05
-7.32838e-05
-1.22185e-05
-6.77659e-05
-1.13064e-05
-6.4989e-05
-1.04932e-05
-5.89896e-05
-1.22073e-05
-5.86692e-05
-1.43427e-05
-5.69072e-05
7.79621e-07
-5.55133e-05
-1.98483e-05
-3.61274e-05
-4.13097e-05
-3.91424e-05
-1.71516e-05
-5.78063e-05
-3.0796e-05
-2.04685e-05
-6.01502e-08
-8.2323e-05
-7.5463e-07
-8.44544e-05
3.58202e-08
-8.26833e-05
-2.31894e-06
-7.29801e-05
-2.84682e-06
-7.19719e-05
1.3739e-06
-7.21334e-05
8.15862e-07
-4.13523e-05
-1.9591e-05
-4.50561e-05
-9.87365e-06
-7.62478e-05
-6.25418e-06
-6.97647e-05
-3.61996e-06
-4.35944e-05
-5.1788e-06
-4.0316e-05
-9.83335e-06
-6.86293e-05
-1.07695e-05
-6.68298e-05
-1.15718e-05
-6.41867e-05
-1.02039e-05
-6.03575e-05
-1.26858e-05
-5.61873e-05
-1.29913e-05
-5.66018e-05
-1.6845e-05
-5.16596e-05
-1.74723e-05
-3.55001e-05
-4.99003e-06
-5.16247e-05
-2.97811e-05
-3.30153e-05
-4.9055e-05
-1.15221e-05
2.84428e-07
-8.26074e-05
2.05169e-07
-8.43751e-05
3.08242e-06
-8.55605e-05
5.46619e-06
-7.53639e-05
-1.55392e-05
-5.09666e-05
-6.89826e-06
-8.07743e-05
-4.05435e-06
-4.41962e-05
-6.71798e-06
-4.23924e-05
-3.9973e-06
-7.89685e-05
-5.24512e-06
-6.85168e-05
-4.36338e-06
-4.44761e-05
-6.25358e-06
-3.84258e-05
-8.95041e-06
-6.59324e-05
-9.03062e-06
-6.67496e-05
-8.5029e-06
-6.47144e-05
-8.2398e-06
-6.06206e-05
-8.29707e-06
-5.61301e-05
-6.85932e-06
-5.80395e-05
-6.98216e-06
-5.15368e-05
-1.03682e-05
-3.21141e-05
-1.00008e-05
-5.1992e-05
-1.14189e-05
-3.15973e-05
-3.65589e-05
-2.39149e-05
-6.68055e-07
-8.19393e-05
-9.31264e-07
-8.41119e-05
-1.34287e-06
-8.51489e-05