/*--------------------------------*- C++ -*----------------------------------*\
| =========                 |                                                 |
| \\      /  F ield         | foam-extend: Open Source CFD                    |
|  \\    /   O peration     | Version:     4.1                                |
|   \\  /    A nd           | Web:         http://www.foam-extend.org         |
|    \\/     M anipulation  |                                                 |
\*---------------------------------------------------------------------------*/
FoamFile
{
    version     2.0;
    format      ascii;
    class       surfaceScalarField;
    location    "0.4";
    object      phi_0;
}
// * * * * * * * * * * * * * * * * * * * * * * * * * * * * * * * * * * * * * //

dimensions      [0 3 -1 0 0 0 0];

internalField   nonuniform List<scalar> 
4432
(
8.94586e-07
-8.94586e-07
3.12465e-06
-2.23006e-06
6.26778e-06
-3.14313e-06
1.13384e-05
-5.07059e-06
1.97781e-05
-8.43971e-06
2.82943e-05
-8.51623e-06
3.22613e-05
-3.96701e-06
4.63198e-05
-1.40585e-05
5.44527e-05
-8.1329e-06
8.49991e-05
-3.05464e-05
8.46919e-05
3.07164e-07
8.76097e-05
-2.9178e-06
8.78323e-05
-2.22566e-07
8.77386e-05
9.36553e-08
5.80917e-05
2.96469e-05
6.13887e-05
-3.29703e-06
5.44465e-05
6.94221e-06
4.33809e-05
1.10657e-05
3.58073e-05
7.57355e-06
5.20273e-05
-1.622e-05
4.72103e-05
4.81702e-06
-2.65343e-06
4.98637e-05
-2.65343e-06
1.03775e-06
-1.93234e-06
3.24239e-06
-4.4347e-06
6.19371e-06
-6.09445e-06
1.11799e-05
-1.00568e-05
1.98347e-05
-1.70945e-05
2.81424e-05
-1.68239e-05
3.24041e-05
-8.22872e-06
4.729e-05
-2.89445e-05
5.50935e-05
-1.59363e-05
8.19443e-05
-5.73971e-05
8.33484e-05
-1.09701e-06
8.53842e-05
-4.95362e-06
8.9088e-05
-3.92627e-06
8.89977e-05
1.83918e-07
9.32225e-05
2.54221e-05
5.82426e-05
3.16829e-05
5.60063e-05
9.17857e-06
8.30187e-05
-1.59467e-05
7.04217e-05
2.01705e-05
6.5217e-05
-1.10153e-05
6.34346e-05
6.59939e-06
6.13358e-05
5.19625e-05
5.86823e-05
9.59953e-07
-2.89229e-06
3.22656e-06
-6.70131e-06
5.92256e-06
-8.79045e-06
1.06709e-05
-1.48052e-05
1.86416e-05
-2.50652e-05
2.7733e-05
-2.59152e-05
3.42065e-05
-1.47023e-05
4.6246e-05
-4.0984e-05
5.12951e-05
-2.09854e-05
4.68908e-05
-5.29928e-05
7.5967e-05
-3.01733e-05
7.60671e-05
-5.05367e-06
7.46708e-05
-2.53003e-06
4.55058e-05
2.93489e-05
5.31392e-05
1.77887e-05
5.94717e-05
2.53503e-05
5.47232e-05
1.39271e-05
4.40131e-05
-5.23662e-06
6.56723e-05
-1.48865e-06
5.56996e-05
-1.04263e-06
4.94203e-05
1.28788e-05
2.95949e-05
7.17879e-05
8.82772e-05
1.38547e-06
-4.27776e-06
3.54906e-06
-8.8649e-06
5.51912e-06
-1.07605e-05
1.038e-05
-1.9666e-05
1.99095e-05
-3.45948e-05
2.93132e-05
-3.53188e-05
3.59688e-05
-2.13579e-05
4.39837e-05
-4.89989e-05
4.49622e-05
-2.19639e-05
4.33436e-05
-5.13742e-05
3.84221e-05
-2.52518e-05
7.04193e-05
-3.70509e-05
4.63992e-05
2.149e-05
8.6686e-05
-1.09378e-05
9.15739e-05
1.29007e-05
9.78323e-05
1.90919e-05
0.000100225
1.15346e-05
9.05382e-05
4.45002e-06
7.99778e-05
9.07177e-06
5.81945e-05
2.07407e-05
4.45803e-05
2.6493e-05
2.72934e-05
8.90748e-05
0.000115571
1.09676e-06
-5.37451e-06
3.24179e-06
-1.10099e-05
5.07294e-06
-1.25917e-05
1.06829e-05
-2.5276e-05
2.13023e-05
-4.52142e-05
2.8353e-05
-4.23695e-05
3.18113e-05
-2.48162e-05
4.0921e-05
-5.81086e-05
4.11892e-05
-2.2232e-05
4.23736e-05
-5.25587e-05
7.21806e-05
-5.50587e-05
4.48781e-05
-9.74834e-06
7.9215e-05
-1.28469e-05
8.93411e-05
-2.10639e-05
9.10212e-05
1.12207e-05
8.92837e-05
2.08294e-05
8.5458e-05
1.53602e-05
7.97131e-05
1.01949e-05
7.18951e-05
1.68898e-05
4.78186e-05
4.48172e-05
3.38635e-05
4.04481e-05
2.25064e-05
0.000100432
0.000138077
1.61649e-06
-6.991e-06
3.37555e-06
-1.2769e-05
5.08076e-06
-1.42969e-05
1.19694e-05
-3.21647e-05
2.07709e-05
-5.40157e-05
2.60377e-05
-4.76363e-05
5.29056e-05
-5.16841e-05
4.05222e-05
-4.57251e-05
7.46174e-05
-5.63272e-05
7.6481e-05
-5.44223e-05
7.65668e-05
-5.51446e-05
7.72626e-05
-1.04441e-05
8.03066e-05
-1.58909e-05
5.7616e-05
1.62668e-06
0.000101813
-3.2976e-05
9.61708e-05
2.64713e-05
9.48831e-05
1.66479e-05
8.62654e-05
1.88127e-05
7.37027e-05
2.94524e-05
5.01743e-05
6.83456e-05
3.20435e-05
5.85789e-05
1.91353e-05
0.00011334
0.000157212
1.25329e-06
-8.24429e-06
3.17251e-06
-1.46882e-05
5.50521e-06
-1.66296e-05
1.26685e-05
-3.9328e-05
2.03417e-05
-6.16889e-05
2.53633e-05
-5.26579e-05
3.14926e-05
-5.78134e-05
4.1948e-05
-5.61805e-05
6.74364e-05
-8.18156e-05
7.4412e-05
-6.13979e-05
4.44354e-05
-2.51679e-05
7.97604e-05
-4.57691e-05
4.90774e-05
1.4792e-05
5.9071e-05
-8.36687e-06
6.52362e-05
-3.91413e-05
0.000105145
-1.34378e-05
9.72024e-05
2.45908e-05
8.90989e-05
2.69161e-05
8.48783e-05
3.3673e-05
6.71359e-05
8.6088e-05
4.45667e-05
8.11482e-05
3.64854e-05
0.000121421
0.000193698
1.89499e-06
-1.01393e-05
3.42645e-06
-1.62197e-05
6.67695e-06
-1.98801e-05
1.40097e-05
-4.66607e-05
2.05118e-05
-6.81911e-05
2.68624e-05
-5.90085e-05
5.45819e-05
-8.55329e-05
6.86744e-05
-7.0273e-05
6.97704e-05
-8.29116e-05
7.57694e-05
-6.73969e-05
8.17651e-05
-3.11636e-05
4.76504e-05
-1.16544e-05
7.48449e-05
-1.24025e-05
8.82845e-05
-2.18064e-05
5.50525e-05
-5.90927e-06
5.1803e-05
-1.01883e-05
8.73093e-05
-1.09154e-05
8.40977e-05
3.01277e-05
4.18831e-05
7.58876e-05
6.88004e-05
5.91707e-05
5.35097e-05
9.64389e-05
3.84263e-05
0.000136505
0.000232124
-0.000108896
0.000108896
-0.000139119
3.02235e-05
-0.000139235
1.15154e-07
-0.000129233
-1.00016e-05
-0.000117681
-1.15519e-05
-0.000106487
-1.11946e-05
-9.09245e-05
-1.55621e-05
-6.08896e-05
-3.00348e-05
-6.80913e-05
7.20165e-06
-0.000109462
4.13711e-05
-6.36069e-05
-4.58555e-05
-9.40782e-05
3.04714e-05
-4.78053e-05
-4.62729e-05
1.89111e-05
-6.67164e-05
7.03389e-05
-5.14278e-05
4.08781e-05
2.94608e-05
1.79837e-05
2.28944e-05
-1.38309e-05
3.18146e-05
-1.38309e-05
-2.93865e-05
0.000138282
-5.87099e-05
5.95468e-05
-7.30034e-05
1.44085e-05
-6.99127e-05
-1.30923e-05
-6.1925e-05
-1.95397e-05
-6.22396e-05
-1.08801e-05
-3.46715e-05
-4.31302e-05
-4.31343e-05
-2.15721e-05
-6.47184e-05
2.87858e-05
-3.88227e-05
1.54754e-05
-4.99933e-05
-3.46849e-05
-2.36593e-05
4.13734e-06
2.96259e-05
-9.95581e-05
7.95329e-05
-0.000116623
5.49424e-05
-2.68374e-05
6.1887e-05
2.25162e-05
5.24371e-05
3.23443e-05
3.15657e-05
5.2686e-05
1.77348e-05
-1.48892e-05
0.000153171
-4.00581e-05
8.47157e-05
-5.5589e-05
2.99391e-05
-4.08525e-05
-2.78288e-05
-1.96454e-05
-4.0747e-05
-3.81053e-05
7.57973e-06
-1.52459e-05
-6.59895e-05
-1.47822e-05
-2.20358e-05
-1.70477e-05
3.10512e-05
1.00249e-05
-1.15973e-05
2.99402e-05
-5.46002e-05
6.24437e-05
-2.83662e-05
7.23197e-05
-0.000109434
5.69001e-05
-0.000101204
6.89478e-05
-3.88851e-05
7.39237e-05
1.75403e-05
6.20316e-05
4.42364e-05
4.09726e-05
7.3745e-05
5.87074e-05
6.05241e-06
0.000147119
2.6242e-05
6.45261e-05
3.65803e-05
1.96005e-05
2.84631e-05
-1.97117e-05
1.52858e-05
-2.75698e-05
-7.51705e-06
3.03825e-05
-1.15315e-05
-6.19752e-05
-1.5665e-05
-1.79023e-05
1.48744e-05
5.11814e-07
3.72024e-05
-3.39253e-05
7.94759e-05
-9.68737e-05
9.12146e-05
-4.01049e-05
9.83156e-05
-0.000116535
7.14809e-05
-7.43691e-05
7.95447e-05
-4.69489e-05
7.93656e-05
1.77194e-05
6.70906e-05
5.65115e-05
4.6041e-05
9.47945e-05
0.000104748
1.68131e-05
0.000130306
3.545e-05
4.58892e-05
3.62405e-05
1.88099e-05
5.22858e-05
-3.57571e-05
2.46695e-05
4.64793e-08
1.69959e-06
5.33524e-05
-9.60004e-06
-5.06755e-05
-2.29776e-05
-4.52468e-06
1.55424e-05
-3.80082e-05
5.59143e-05
-7.42972e-05
4.70751e-05
-8.80345e-05
6.48124e-05
-5.78421e-05
7.6095e-05
-0.000127818
8.7254e-05
-8.55281e-05
9.2391e-05
-5.20859e-05
9.06457e-05
1.94647e-05
7.31615e-05
7.39957e-05
4.5868e-05
0.000122088
0.000150616
2.50493e-05
0.000105256
3.83577e-05
3.25808e-05
3.78573e-05
1.93103e-05
4.99678e-05
-4.78676e-05
2.96843e-05
2.033e-05
1.59719e-05
6.70648e-05
-1.33831e-05
-2.13206e-05
-8.65009e-06
-9.25769e-06
6.50681e-05
-0.000111726
5.19037e-05
-6.11328e-05
6.97585e-05
-0.000105889
7.98324e-05
-6.7916e-05
8.64003e-05
-0.000134386
9.6253e-05
-9.53807e-05
0.000100039
-5.58722e-05
9.76732e-05
2.18308e-05
8.17851e-05
8.98838e-05
5.16611e-05
0.000152212
0.000202278
2.61899e-05
7.90663e-05
2.75961e-05
3.11746e-05
2.3203e-05
2.37033e-05
3.28566e-05
-5.75211e-05
1.36358e-05
3.95508e-05
3.52843e-05
4.54162e-05
2.62307e-06
1.13407e-05
-3.39725e-07
-6.29489e-06
5.85115e-05
-0.000170578
7.33943e-05
-7.60157e-05
9.03892e-05
-0.000122884
0.000102259
-7.97861e-05
0.000107869
-0.000139995
0.000110236
-9.77478e-05
0.000108782
-5.44185e-05
0.000104416
2.6197e-05
8.54549e-05
0.000108845
5.41974e-05
0.000183469
0.000256475
1.38965e-05
6.51698e-05
6.02674e-05
-1.51963e-05
3.88611e-05
4.51096e-05
2.98023e-05
-4.84623e-05
2.55082e-05
4.38449e-05
4.09555e-05
2.99688e-05
6.44117e-05
-1.21155e-05
0.000102975
-4.48586e-05
7.63115e-05
-0.000143914
9.85079e-05
-9.82121e-05
0.000111097
-0.000135474
0.000117333
-8.6022e-05
0.000118106
-0.000140768
0.00011317
-9.28116e-05
0.000110267
-5.15153e-05
0.000109545
2.69188e-05
9.23895e-05
0.000126
5.73572e-05
0.000218502
0.000313832
5.90902e-06
-1.60483e-05
2.10659e-05
-3.13765e-05
3.34694e-05
-3.22836e-05
6.06188e-05
-7.38101e-05
7.92543e-05
-8.68266e-05
0.000102233
-8.19871e-05
0.000126121
-0.000109421
0.000158103
-0.000102255
0.000166406
-9.12144e-05
0.000174205
-7.5196e-05
0.000169145
-2.61037e-05
0.000155894
1.59671e-06
0.000154773
-1.12811e-05
0.000126637
6.32915e-06
0.000138959
-1.82312e-05
0.000196654
-6.78836e-05
0.000201572
-1.58331e-05
0.000209016
2.26835e-05
0.000205417
7.94867e-05
0.000177208
8.73796e-05
0.000181894
9.17534e-05
0.000158876
0.000159522
0.000150498
0.000240502
-1.16253e-06
-1.48858e-05
2.43651e-05
-5.69042e-05
3.47477e-05
-4.26662e-05
5.37879e-05
-9.28503e-05
4.98451e-05
-8.28837e-05
6.53235e-05
-9.74656e-05
7.58604e-05
-0.000119958
8.27075e-05
-0.000109102
8.04068e-05
-8.89136e-05
9.01358e-05
-8.4925e-05
9.98493e-05
-3.58173e-05
0.000155823
-5.43771e-05
0.000167753
-2.32104e-05
0.000179305
-5.22297e-06
0.00017202
-1.09469e-05
0.000136667
-3.25301e-05
0.000146127
-2.52937e-05
0.000163921
4.88967e-06
0.000171728
7.16799e-05
0.000200174
5.89341e-05
0.000143098
0.000148829
0.00017229
0.00013033
0.000117533
0.000205255
1.12434e-05
-2.61292e-05
7.81146e-06
-5.34722e-05
2.30996e-05
-5.79543e-05
3.89645e-05
-0.000108715
5.8268e-05
-0.000102187
6.74464e-05
-0.000106644
7.4869e-05
-0.00012738
7.745e-05
-0.000111683
8.76556e-05
-9.91193e-05
0.000105712
-0.000102982
0.000153172
-8.32773e-05
0.000136339
-3.75433e-05
0.000153406
-4.02781e-05
0.000165448
-1.72644e-05
0.000179382
-2.48806e-05
0.000157702
-1.08508e-05
0.000144196
-1.1787e-05
0.000140081
9.00426e-06
0.000154212
5.75483e-05
9.17816e-05
0.000121365
0.000136727
0.000103884
0.000186079
8.0978e-05
0.000102586
0.000201027
-3.37232e-06
-2.27569e-05
5.54953e-06
-6.23941e-05
1.17286e-05
-6.41334e-05
7.79944e-05
-0.000174981
6.26063e-05
-8.67991e-05
7.53211e-05
-0.000119359
8.7708e-05
-0.000139767
9.58448e-05
-0.00011982
0.000160965
-0.00016424
0.000193077
-0.000135094
0.00018003
-7.02302e-05
0.000175387
-3.29006e-05
0.000111036
2.40731e-05
0.00010158
-7.80861e-06
0.000102236
-2.55361e-05
0.000152934
-6.15486e-05
0.000158684
-1.75379e-05
0.00015621
1.14792e-05
8.43671e-05
0.000129391
0.000112848
9.28843e-05
0.000131142
8.55896e-05
0.000145593
6.6527e-05
2.60559e-06
0.000245573
-4.39896e-06
-1.83579e-05
1.6942e-05
-8.3735e-05
7.46106e-05
-0.000121802
6.38062e-05
-0.000164177
0.000121309
-0.000144301
0.000102927
-0.000100977
5.43672e-05
-9.12073e-05
0.000100739
-0.000166192
9.66539e-05
-0.000160154
0.000125656
-0.000164096
0.000111367
-5.59407e-05
9.86394e-05
-2.01734e-05
0.000125312
-2.59933e-06
0.000122431
-4.92812e-06
0.000147017
-5.01221e-05
0.000136618
-5.11491e-05
0.000164651
-4.55709e-05
0.000173883
2.24663e-06
0.000197812
0.000105462
0.000221245
6.9451e-05
0.000213734
9.31006e-05
0.000205034
7.5227e-05
1.70253e-05
0.000190615
6.27635e-06
-2.46342e-05
1.671e-05
-9.41687e-05
3.59912e-05
-0.000141083
4.08683e-05
-0.000169054
5.08821e-05
-0.000154315
5.10597e-05
-0.000101155
5.4897e-05
-9.50445e-05
9.23917e-05
-0.000203687
6.07453e-05
-0.000128508
7.5787e-05
-0.000179137
0.000148283
-0.000128436
8.39898e-05
4.41193e-05
5.42574e-05
2.71331e-05
0.000117185
-6.78556e-05
0.00016108
-9.40176e-05
0.000149724
-3.9793e-05
9.19295e-05
1.22239e-05
9.34718e-05
7.04334e-07
0.000183601
1.53327e-05
0.000194183
5.88685e-05
0.000225139
6.21448e-05
0.000262372
3.79945e-05
4.93269e-06
0.000274464
1.98903e-05
-4.45246e-05
2.37051e-05
-9.79834e-05
2.74613e-05
-0.000144839
3.48922e-05
-0.000176485
3.04926e-05
-0.000149916
2.06597e-05
-9.13221e-05
2.93482e-05
-0.000103733
2.15647e-05
-0.000195903
-4.94878e-06
-0.000101994
1.99824e-06
-0.000186085
4.00989e-05
-0.000166537
7.73926e-05
6.82563e-06
9.2541e-05
1.19847e-05
0.000138142
-0.000113456
0.000141745
-9.76204e-05
0.000107959
-6.00763e-06
3.61021e-05
8.4081e-05
5.37141e-05
-1.69076e-05
0.000104004
-3.49569e-05
0.000148857
1.40152e-05
0.000194439
1.65631e-05
0.000235357
-2.9241e-06
-2.00822e-05
0.000260372
6.60362e-05
-0.000110561
6.39207e-05
-9.58679e-05
6.46435e-05
-0.000145562
6.08021e-05
-0.000172643
1.3031e-05
-0.000102145
3.81136e-05
-0.000116405
4.8195e-05
-0.000113814
-4.02173e-05
-0.000107491
-2.54329e-05
-0.000116779
-2.36743e-06
-0.00020915
3.56336e-05
-0.000204538
7.0479e-05
-2.80197e-05
9.20062e-05
-9.54248e-06
1.87723e-05
-4.02226e-05
-1.99497e-05
-5.88984e-05
2.28831e-05
-4.88404e-05
6.52319e-05
4.17321e-05
5.33762e-05
-5.05188e-06
6.71029e-05
-4.86836e-05
0.000103058
-2.19399e-05
0.000115178
4.4431e-06
0.000144097
-3.1843e-05
-7.52169e-05
0.000199232
1.75862e-05
-0.000128147
3.84141e-05
-0.000116696
4.80781e-05
-0.000155226
1.97108e-05
-0.000144276
2.53946e-05
-0.000107828
-5.53338e-06
-8.54768e-05
-3.21746e-05
-8.71732e-05
-3.6811e-05
-0.000102855
-2.33872e-05
-0.000130203
-7.06137e-06
-0.000225476
1.4386e-05
-0.000225985
6.66627e-05
-8.02964e-05
5.87258e-05
-1.60562e-06
3.68382e-05
-1.8335e-05
6.92593e-06
-2.89862e-05
5.40528e-06
-4.73197e-05
3.67229e-05
1.04145e-05
5.96432e-05
-2.79722e-05
8.09003e-05
-6.99408e-05
0.000108568
-4.96074e-05
0.00014758
-3.45686e-05
0.000146639
-3.09022e-05
-4.29809e-05
0.000114403
8.18873e-06
-0.000136336
8.02742e-06
-0.000116535
-2.18413e-06
-0.000145015
-3.29001e-05
-0.00011356
-2.03719e-05
-0.000120357
-1.24702e-05
-9.33784e-05
-3.13717e-05
-6.82716e-05
-6.08789e-05
-7.33474e-05
-2.98106e-05
-0.000161271
-1.93036e-05
-0.000235983
-1.18492e-05
-0.00023344
3.71319e-05
-0.000129277
5.68837e-05
-2.13575e-05
2.81079e-05
1.04409e-05
-1.88452e-06
1.00623e-06
-1.58316e-05
-3.33727e-05
2.23662e-05
-2.77833e-05
1.6446e-05
-2.2052e-05
8.31518e-06
-6.181e-05
1.66584e-05
-5.79506e-05
3.19938e-05
-4.99041e-05
4.59735e-05
-4.48819e-05
-5.0521e-05
5.35136e-05
-7.64431e-06
-0.000128691
-1.40108e-05
-0.000110168
-1.69297e-05
-0.000142096
-3.42284e-05
-9.62613e-05
-2.16271e-05
-0.000132958
-5.13241e-05
-6.36815e-05
-5.09103e-05
-6.86854e-05
-3.81651e-05
-8.60927e-05
-1.60013e-05
-0.000183435
-1.88439e-05
-0.00023314
-1.49264e-05
-0.000237357
-2.08647e-05
-0.000123339
-2.96809e-05
-1.25413e-05
-3.78271e-05
1.8587e-05
-3.36341e-05
-3.18678e-06
-2.44781e-05
-4.25287e-05
-2.27221e-05
-2.95393e-05
-6.1362e-06
-3.86379e-05
-1.16384e-05
-5.63078e-05
-9.51539e-06
-6.00737e-05
-2.03876e-05
-3.90319e-05
-2.27238e-05
-4.25457e-05
-4.48561e-05
-2.83887e-05
-6.5568e-06
-0.000122135
-1.50587e-05
-0.000101666
-5.70581e-06
-0.000151449
2.45136e-06
-0.000104418
-1.69193e-05
-0.000113587
-5.70539e-06
-7.48955e-05
1.56887e-05
-9.00795e-05
4.97148e-05
-0.000120119
8.1994e-06
-0.000141919
-3.6864e-05
-0.000188077
-5.00467e-05
-0.000224175
-4.30878e-05
-0.000130298
-5.59672e-05
3.38133e-07
-6.24272e-05
2.50469e-05
-2.42445e-05
-4.13695e-05
-1.62964e-05
-5.04767e-05
-1.22719e-05
-3.35639e-05
-2.21865e-05
-2.87233e-05
-1.98278e-05
-5.86665e-05
-5.27404e-05
-2.7161e-05
-5.18687e-05
-3.99036e-05
-6.25593e-05
-3.1855e-05
-5.41367e-05
-5.32788e-05
-1.75378e-05
-0.000104597
5.42742e-06
-0.000124631
-1.04935e-05
-0.000135528
3.1188e-05
-0.0001461
1.32011e-05
-9.56003e-05
1.85847e-05
-8.02791e-05
2.472e-05
-9.62147e-05
6.4093e-05
-0.000159492
5.01689e-05
-0.000127995
9.63895e-06
-0.000147547
-3.13343e-05
-0.000183201
-7.04566e-05
-9.11757e-05
-6.21906e-05
-7.92795e-06
-3.2856e-05
-4.28769e-06
-1.86837e-05
-5.55418e-05
-1.57522e-05
-5.34082e-05
-2.04128e-05
-2.89033e-05
-2.28916e-05
-2.62445e-05
-5.71723e-05
-2.43859e-05
-5.99359e-05
-2.43974e-05
-6.69466e-05
-3.2893e-05
-2.81439e-05
-7.06577e-05
-4.01125e-05
-4.21681e-05
1.93348e-05
-0.000123932
4.70788e-06
-0.000110004
1.50978e-05
-0.000145918
8.91328e-06
-0.000139916
2.4907e-05
-0.000111594
1.87632e-05
-7.41354e-05
1.88598e-05
-9.63113e-05
4.47207e-05
-0.000185353
2.52241e-05
-0.000108499
1.99864e-05
-0.000142309
-3.30046e-05
-0.00013021
-5.01366e-05
-7.40436e-05
-1.20991e-05
-4.59655e-05
-4.73302e-06
-1.16538e-05
-1.93534e-05
-4.09214e-05
-2.16058e-05
-5.11559e-05
-3.25977e-05
-1.79115e-05
-3.69254e-05
-2.19168e-05
-3.9761e-05
-2.15504e-05
-3.84306e-05
-2.57278e-05
-2.34028e-05
-4.79208e-05
-5.25478e-05
-4.15127e-05
-5.13163e-05
-4.13439e-05
-9.48562e-06
-0.000114446
-2.80693e-06
-0.000116683
-6.22986e-06
-0.000142495
4.97526e-07
-0.000146643
1.96659e-05
-0.000130762
2.91341e-05
-8.36036e-05
3.44524e-05
-0.00010163
3.08898e-05
-0.00018179
4.93139e-05
-0.000126923
1.33456e-05
-0.000106341
-1.87782e-05
-9.80866e-05
-4.20153e-05
-5.08065e-05
-2.31529e-05
-6.48278e-05
-8.10059e-06
-2.67062e-05
-1.57685e-05
-3.32535e-05
-3.80243e-05
-2.89e-05
-3.82899e-05
-1.7646e-05
-2.49906e-05
-3.52161e-05
-1.69367e-05
-2.96043e-05
-1.81801e-05
-2.44844e-05
-1.8204e-05
-4.78969e-05
-2.40847e-05
-3.5632e-05
-3.26812e-05
-4.27199e-05
-1.12502e-05
-0.000103196
-5.12552e-06
-0.000122808
-8.64194e-06
-0.000138978
-5.43344e-06
-0.000149851
7.61798e-06
-0.000143814
1.96675e-05
-9.56531e-05
1.62337e-05
-9.81959e-05
1.97156e-05
-0.000185272
1.42132e-05
-0.00012142
9.71698e-06
-0.000101845
-1.63222e-05
-7.20474e-05
-2.5654e-05
-4.14747e-05
-2.84573e-05
-6.20245e-05
-4.12049e-06
-5.1043e-05
-2.03144e-05
-1.70597e-05
-2.59704e-05
-2.3244e-05
-2.47812e-05
-1.88351e-05
-2.65578e-05
-3.34395e-05
-1.98752e-05
-3.62869e-05
-2.21507e-05
-2.22089e-05
-3.7494e-05
-3.25535e-05
-1.76991e-05
-5.54268e-05
-3.09764e-05
-1.94038e-05
-3.32081e-05
-6.99878e-05
-1.37633e-05
-0.000142252
-1.63441e-05
-0.000136397
-1.9623e-05
-0.000146573
-1.15771e-05
-0.00015186
1.14509e-06
-0.000108375
6.27713e-05
-0.000159822
1.42359e-05
-0.000136737
-4.42954e-06
-0.000102755
-2.48517e-05
-8.14224e-05
-1.1863e-05
-8.50361e-05
1.19206e-05
-6.52583e-05
9.22233e-06
-5.93263e-05
-1.41959e-05
-2.76248e-05
-2.09369e-05
-1.03187e-05
-2.92637e-05
-1.49172e-05
-3.06511e-05
-1.74477e-05
-3.04141e-05
-3.36765e-05
-4.31845e-05
-2.35165e-05
-2.42829e-05
-4.11105e-05
-1.65533e-05
-4.02831e-05
-1.08448e-05
-6.11354e-05
-3.39562e-05
-7.86496e-06
1.81913e-05
-8.81791e-05
-2.7928e-05
-9.61332e-05
-1.72411e-05
-0.000147084
-3.12901e-05
-0.000132524
-1.68009e-05
-0.000166349
-2.75716e-05
-9.76047e-05
-8.63571e-06
-0.000178758
-9.1817e-06
-0.000136191
5.62899e-06
-0.000117566
6.65883e-06
-8.24523e-05
-1.01296e-05
-6.82477e-05
-1.86926e-05
-5.66953e-05
-3.09869e-05
-4.7032e-05
-4.14374e-05
-1.71743e-05
-3.37322e-05
-1.8024e-05
-3.22045e-05
-1.64449e-05
-3.19818e-05
-1.76705e-05
-4.0886e-05
-2.47723e-05
-1.38766e-05
-5.05259e-05
-2.14506e-05
-3.35365e-05
-2.82476e-05
-3.34861e-05
-2.42122e-05
-6.51707e-05
-3.47121e-05
-2.34563e-05
1.25895e-05
-0.000100769
1.6826e-05
-0.00010037
-2.18296e-05
-0.000108429
-1.73012e-05
-0.000137052
-6.97953e-05
-0.000113855
-6.51298e-05
-0.00010227
-7.34403e-05
-0.000170447
-3.7041e-05
-0.00017259
-4.82175e-05
-0.000106389
-4.26764e-05
-8.79934e-05
-1.03676e-05
-0.000100556
-3.40944e-05
-3.29685e-05
-6.06586e-05
-2.04679e-05
-5.42032e-05
-2.36297e-05
-3.68782e-05
-3.53489e-05
-2.64516e-05
-2.68715e-05
-2.66568e-05
-1.74653e-05
-2.04436e-05
-3.09855e-05
-4.2329e-05
-2.86405e-05
-4.24002e-05
-3.34652e-05
-1.72178e-05
-5.86685e-05
-2.24766e-05
-5.99119e-05
-4.78382e-05
-9.35049e-06
1.67834e-06
-0.000102447
4.32099e-06
-0.000103012
1.23491e-06
-0.000105343
-2.96482e-05
-0.000106169
-3.79945e-05
-0.000105509
-4.51829e-05
-9.50819e-05
-5.94892e-05
-0.000156141
-8.78569e-05
-0.000144222
-0.000109541
-8.47048e-05
-0.000122884
-7.46505e-05
-0.00012383
-9.96107e-05
-0.000116791
-4.00077e-05
-7.31525e-05
-6.41061e-05
-5.41432e-05
-4.26391e-05
-6.0668e-05
-2.88241e-05
-5.34624e-05
-3.40772e-05
-3.15295e-05
-3.93981e-05
-3.3649e-05
-2.8866e-05
-2.26551e-05
-3.96344e-05
-1.25065e-05
-4.36139e-05
-3.29054e-05
-3.82695e-05
-3.23148e-05
-6.05025e-05
-4.79583e-05
-3.21947e-05
-2.37443e-06
-0.000100073
-4.12349e-06
-0.000101263
-1.31285e-05
-9.63378e-05
-1.83594e-05
-0.000100938
-3.27643e-05
-9.11037e-05
2.16763e-06
-0.000130014
-5.09625e-05
-0.000103011
-4.60279e-05
-0.000149157
-6.44939e-05
-6.62389e-05
-6.91443e-05
-7.00002e-05
-0.0001001
-6.86553e-05
-7.10512e-05
-6.90562e-05
-9.45392e-05
-4.06182e-05
-7.35003e-05
-6.3678e-05
-6.23246e-05
-3.99999e-05
-5.11711e-05
-4.52306e-05
-5.77629e-05
-3.28064e-05
-3.16695e-05
-5.49595e-05
-3.72589e-05
-3.4045e-05
-3.17771e-05
-4.90957e-05
-1.38627e-05
-5.6184e-05
-1.32093e-05
-6.11559e-05
-3.72911e-05
-2.38764e-05
-1.74586e-06
-9.83267e-05
-4.27454e-06
-9.87346e-05
-4.98489e-06
-9.56275e-05
-1.64297e-05
-8.94931e-05
-1.54168e-05
-9.21167e-05
-4.16794e-06
-0.000141263
-9.30105e-06
-9.7878e-05
-6.3225e-05
-9.52331e-05
-4.8804e-05
-8.06598e-05
-4.62251e-05
-7.25791e-05
-4.44028e-05
-7.04776e-05
-4.7062e-05
-6.6397e-05
-3.88416e-05
-4.88387e-05
-5.94839e-05
-4.30357e-05
-3.39288e-05
-6.5555e-05
-2.53476e-05
-5.38118e-05
-2.23492e-05
-3.58049e-05
-3.49541e-05
-4.23546e-05
-3.06728e-05
-3.83263e-05
-2.5315e-05
-5.44534e-05
-2.37393e-05
-5.77597e-05
-2.37606e-05
-6.11346e-05
-3.99802e-05
-2.10715e-05
-5.63699e-06
-9.26897e-05
-1.59448e-05
-8.84268e-05
-2.25463e-05
-8.9026e-05
1.8814e-05
-0.000130853
1.04924e-05
-8.37951e-05
-3.09029e-05
-9.98675e-05
-3.91138e-05
-8.96671e-05
-4.18159e-05
-9.25311e-05
-3.29851e-05
-8.94907e-05
-3.19385e-05
-7.36257e-05
-3.55601e-05
-6.6856e-05
-4.04752e-05
-6.1482e-05
-4.56359e-05
-4.3678e-05
-4.25016e-05
-4.617e-05
-2.78006e-05
-8.0256e-05
-3.78148e-05
-4.37976e-05
-3.51705e-05
-3.84492e-05
-3.12952e-05
-4.62299e-05
-2.13949e-05
-4.82267e-05
-2.02826e-05
-5.55657e-05
-1.81655e-05
-5.98768e-05
-1.20786e-05
-6.72214e-05
-4.38965e-05
-8.16222e-06
-2.37233e-05
-6.89665e-05
-1.25164e-06
-0.000110898
1.08685e-05
-0.000101146
-8.01572e-06
-0.000111969
1.02394e-05
-0.00010205
-3.74009e-06
-8.5888e-05
-1.9779e-05
-7.36281e-05
-2.90084e-05
-8.33017e-05
-4.32888e-05
-7.52103e-05
-4.82712e-05
-6.86434e-05
-4.87951e-05
-6.63321e-05
-4.8064e-05
-6.22131e-05
-4.10946e-05
-5.06474e-05
-3.73161e-05
-4.99486e-05
-6.27571e-05
-5.4815e-05
-2.82275e-05
-7.83272e-05
-2.40817e-05
-4.25951e-05
-2.54857e-05
-4.48259e-05
-1.89358e-05
-5.47765e-05
-3.06761e-05
-4.38255e-05
-2.96087e-05
-6.09442e-05
-2.88856e-05
-6.79445e-05
-6.04324e-05
-1.23496e-05
1.69825e-05
-8.5949e-05
2.33261e-06
-9.62486e-05
-8.17867e-06
-9.06349e-05
-1.96577e-05
-0.00010049
-2.79163e-05
-9.37916e-05
-1.6817e-05
-9.69874e-05
1.15087e-06
-9.1596e-05
-1.29948e-05
-6.91561e-05
-2.75441e-05
-6.06611e-05
-3.38062e-05
-6.23813e-05
-3.83286e-05
-6.18097e-05
-3.89644e-05
-6.15774e-05
-3.13161e-05
-5.82956e-05
-1.93626e-05
-6.19022e-05
-1.65783e-05
-5.75993e-05
-3.71046e-05
-5.78009e-05
-3.28668e-05
-4.68329e-05
-1.36519e-05
-6.40409e-05
-2.37773e-05
-4.46511e-05
-2.47035e-05
-4.28993e-05
-2.1555e-05
-6.40927e-05
-2.21601e-05
-6.73394e-05
-5.7824e-05
-2.47685e-05
-1.59735e-06
-8.43517e-05
-4.66128e-06
-9.31847e-05
-2.72832e-06
-9.25679e-05
-1.02107e-05
-9.30079e-05
-1.38414e-05
-9.01609e-05
-2.40582e-05
-8.67706e-05
-3.17271e-05
-8.39272e-05
-1.99629e-05
-8.09202e-05
-3.36211e-05
-4.70029e-05
-4.91607e-05
-4.68417e-05
-3.72634e-05
-7.37069e-05
-2.30664e-05
-7.57744e-05
-7.66448e-06
-7.36976e-05
-1.78251e-05
-5.17416e-05
-2.87515e-05
-4.6673e-05
-3.23941e-05
-5.41582e-05
-9.21608e-06
-7.0011e-05
-2.41059e-05
-4.9151e-05
-2.29317e-05
-4.58254e-05
-2.05697e-05
-4.52613e-05
-2.27862e-05
-6.18762e-05
-2.34453e-05
-6.66803e-05
-6.16284e-05
-1.96409e-05
8.4482e-07
-8.51965e-05
-2.88057e-06
-8.94593e-05
-5.97887e-06
-8.94696e-05
-1.00792e-05
-8.89076e-05
-1.32393e-05
-8.70008e-05
-1.46065e-05
-8.54035e-05
-1.66237e-05
-8.191e-05
-1.8688e-05
-7.88559e-05
-2.26636e-05
-4.30274e-05
-2.76122e-05
-4.18931e-05
-3.25262e-05
-6.8793e-05
-3.71677e-05
-7.11328e-05
-3.84147e-05
-7.24507e-05
-2.10129e-05
-6.91434e-05
-2.2545e-05
-4.51409e-05
-1.05391e-05
-6.61642e-05
-3.51594e-05
-4.53906e-05
-1.35871e-05
-7.07233e-05
-1.61229e-05
-4.32896e-05
-1.75678e-05
-4.38164e-05
-1.91788e-05
-6.02651e-05
-2.19687e-05
-6.38904e-05
-5.97876e-05
-2.38094e-05
-1.69591e-06
-8.35006e-05
-3.44818e-06
-8.77071e-05
-5.27464e-06
-8.76432e-05
-8.03354e-06
-8.61487e-05
-1.06626e-05
-8.43717e-05
-1.4519e-05
-8.15471e-05
-1.8774e-05
-7.76551e-05
-1.93902e-05
-7.82397e-05
-2.22512e-05
-4.01664e-05
-2.50645e-05
-3.90798e-05
-2.67474e-05
-6.71101e-05
-2.95488e-05
-6.83314e-05
-2.84445e-05
-7.35549e-05
-2.68701e-05
-7.07179e-05
-2.73546e-05
-4.46564e-05
-2.51289e-05
-6.83899e-05
-2.72443e-05
-4.32752e-05
-3.71351e-05
-6.08326e-05
-1.46038e-05
-6.58208e-05
-3.39241e-06
-5.50278e-05
-1.96326e-05
-4.4025e-05
-2.67145e-05
-5.68085e-05
-6.27997e-05
-2.37024e-05
-3.14695e-07
-8.31859e-05
-1.02318e-06
-8.69986e-05
-3.32446e-06
-8.53419e-05
-5.45997e-06
-8.40133e-05
-7.53628e-06
-8.22954e-05
-1.05739e-05
-7.85095e-05
-1.38008e-05
-7.44281e-05
-1.31855e-05
-7.8855e-05
-1.01404e-05
-4.32115e-05
-6.2083e-06
-4.3012e-05
-2.93764e-05
-4.3942e-05
-2.24395e-05
-7.52684e-05
-2.18717e-05
-7.41227e-05
-2.46311e-05
-6.79585e-05
-4.37189e-06
-6.49157e-05
-2.35738e-05
-4.91881e-05
-3.88996e-06
-6.2959e-05
-2.03994e-05
-4.43232e-05
-1.78242e-05
-6.83961e-05
-1.41605e-05
-5.86915e-05
-1.72332e-05
-4.09522e-05
-2.0194e-05
-5.38477e-05
-5.7266e-05
-2.57275e-05
-4.34235e-07
-8.27517e-05
-1.20512e-06
-8.62277e-05
-3.43644e-06
-8.31106e-05
-5.64915e-06
-8.18006e-05
-8.43224e-06
-7.95123e-05
-1.06489e-05
-7.62928e-05
-1.43134e-05
-7.07637e-05
-1.57517e-05
-7.74168e-05
-1.69265e-05
-4.20367e-05
-1.57776e-05
-4.41609e-05
-1.76277e-05
-4.20919e-05
-1.48927e-05
-7.80033e-05
-1.62644e-05
-7.27511e-05
-1.54003e-05
-6.88226e-05
-1.3041e-05
-6.7275e-05
-1.8241e-05
-4.39881e-05
-1.79704e-05
-6.32296e-05
-1.9048e-05
-4.32456e-05
-2.35751e-05
-6.38689e-05
-1.41489e-05
-6.81178e-05
-7.5762e-06
-4.75249e-05
-2.12089e-05
-4.0215e-05
-5.22209e-05
-2.6254e-05
3.2191e-07
-8.30736e-05
1.49824e-07
-8.60557e-05
5.46727e-07
-8.35075e-05
2.64992e-06
-8.39038e-05
9.08193e-06
-8.59444e-05
-1.17229e-05
-5.5488e-05
-3.04375e-05
-5.20491e-05
-2.35116e-05
-8.43427e-05
-1.78333e-05
-4.7715e-05
-1.42054e-05
-4.77888e-05
-1.10083e-05
-4.5289e-05
-1.46356e-05
-7.43761e-05
-1.77108e-05
-6.96759e-05
-1.77297e-05
-6.88037e-05
-2.42263e-05
-6.07784e-05
-6.01625e-06
-6.21982e-05
-7.95619e-06
-6.12897e-05
-1.15173e-05
-3.96845e-05
-1.21557e-05
-6.32305e-05
-1.06908e-05
-6.95827e-05
-2.10233e-05
-3.71924e-05
-2.34763e-05
-3.7762e-05
-5.38525e-05
-2.18447e-05
-3.68679e-07
-8.27049e-05
-1.04045e-06
-8.53839e-05
-1.91699e-06
-8.2631e-05
-4.5098e-06
-8.1311e-05
-7.52978e-06
-8.29244e-05
-8.88503e-06
-5.41328e-05
-1.07608e-05
-5.01734e-05
-1.06171e-05
-8.44864e-05
-8.23929e-06
-5.00928e-05
-8.18217e-06
-4.78459e-05
-6.53274e-06
-4.69385e-05
-1.0177e-05
-7.07318e-05
-1.29228e-05
-6.69301e-05
-1.37369e-05
-6.79896e-05
-1.06932e-05
-6.38221e-05
-8.87887e-06
-6.40126e-05
-2.60015e-05
-4.4167e-05
-4.73495e-06
-6.09511e-05
-2.3958e-05
-4.40075e-05
-3.34725e-05
-6.00681e-05
-1.22217e-05
-5.84432e-05
-8.16683e-06
-4.18168e-05
-3.3184e-05
-2.88353e-05
-5.26191e-08
-8.26523e-05
-1.16001e-07
-8.53205e-05
-3.3049e-07
-8.24165e-05
-2.14841e-06
-7.94931e-05
-3.64854e-06
-8.14243e-05
-9.38716e-06
-4.83942e-05
-1.34185e-05
-4.6142e-05
-2.70503e-05
-7.08546e-05
-1.06523e-05
-6.64908e-05
3.88356e-06
-6.23818e-05
-3.36891e-06
-3.9686e-05
-1.29784e-05
-6.11224e-05
-1.31703e-05
-6.67382e-05
-1.56219e-05
-6.5538e-05
-1.57086e-05
-6.37354e-05
-2.19412e-05
-5.778e-05
-6.16357e-06
-5.99446e-05
-8.32446e-06
-5.87902e-05
-1.22652e-05
-4.00668e-05
-1.59924e-05
-5.63408e-05
-1.42379e-05
-6.01977e-05
-2.2942e-05
-3.31127e-05
-3.35928e-05
-2.25332e-05
-1.94636e-07
-8.24577e-05
-6.84351e-07
-8.48308e-05
-1.45059e-06
-8.16503e-05
-5.813e-06
-7.51307e-05
-1.49492e-05
-7.22881e-05
4.36265e-06
-6.7706e-05
6.32508e-08
-4.18426e-05
-5.57714e-06
-6.52142e-05
-5.79961e-06
-6.62683e-05
-2.27728e-06
-6.59042e-05
-1.0872e-06
-4.08761e-05
-2.05093e-05
-4.17003e-05
-1.4235e-05
-7.30125e-05
-1.23823e-05
-6.73907e-05
-1.14909e-05
-6.46268e-05
-1.07024e-05
-5.85684e-05
-1.23823e-05
-5.82647e-05
-1.47333e-05
-5.64392e-05
3.25486e-07
-5.51255e-05
-2.02693e-05
-3.57461e-05
-4.18567e-05
-3.86103e-05
-1.7615e-05
-5.73544e-05
-3.02574e-05
-2.09504e-05
-1.69669e-07
-8.2288e-05
-8.08943e-07
-8.41916e-05
-1.84866e-08
-8.24408e-05
-2.39078e-06
-7.27584e-05
-2.9009e-06
-7.1778e-05
1.2779e-06
-7.18848e-05
6.50535e-07
-4.12153e-05
-1.96396e-05
-4.49241e-05
-9.93266e-06
-7.59753e-05
-6.31092e-06
-6.95259e-05
-3.72909e-06
-4.34579e-05
-5.26676e-06
-4.01626e-05
-9.94396e-06
-6.83353e-05
-1.09089e-05
-6.64257e-05
-1.17487e-05
-6.37871e-05
-1.03943e-05
-5.99228e-05
-1.29751e-05
-5.5684e-05
-1.33137e-05
-5.61006e-05
-1.71754e-05
-5.12638e-05
-1.77309e-05
-3.51906e-05
-5.23238e-06
-5.11088e-05
-3.00019e-05
-3.25848e-05
-4.82775e-05
-1.19818e-05
2.09544e-07
-8.24976e-05
1.43321e-07
-8.41254e-05
3.02215e-06
-8.53196e-05
5.36922e-06
-7.51055e-05
-1.55738e-05
-5.0835e-05
-6.9478e-06
-8.05109e-05
-4.09683e-06
-4.40663e-05
-6.7679e-06
-4.2253e-05
-4.04917e-06
-7.86941e-05
-5.31154e-06
-6.82636e-05
-4.45454e-06
-4.43149e-05
-6.3325e-06
-3.82847e-05
-9.04657e-06
-6.56212e-05
-9.14358e-06
-6.63287e-05
-8.6455e-06
-6.42851e-05
-8.41126e-06
-6.0157e-05
-8.48246e-06
-5.56128e-05
-7.0366e-06
-5.75465e-05
-7.32883e-06
-5.09715e-05
-1.06773e-05
-3.18421e-05
-1.05691e-05
-5.1217e-05
-1.19875e-05
-3.11664e-05
-3.60682e-05
-2.41969e-05
-7.20246e-07
-8.17773e-05
-9.6055e-07
-8.38851e-05
-1.38968e-06
-8.48905e-05
-8.74023e-07