/*--------------------------------*- C++ -*----------------------------------*\
| =========                 |                                                 |
| \\      /  F ield         | foam-extend: Open Source CFD                    |
|  \\    /   O peration     | Version:     4.1                                |
|   \\  /    A nd           | Web:         http://www.foam-extend.org         |
|    \\/     M anipulation  |                                                 |
\*---------------------------------------------------------------------------*/
FoamFile
{
    version     2.0;
    format      ascii;
    class       volScalarField;
    location    "0.4";
    object      psi;
}
// * * * * * * * * * * * * * * * * * * * * * * * * * * * * * * * * * * * * * //

dimensions      [1 -1 -2 0 0 0 0];

internalField   nonuniform List<scalar> 
2268
(
-4.81112e-10
-4.17693e-09
-5.08767e-08
-2.93964e-06
-4.89614e-05
-8.67457e-05
-3.5669e-05
-0.00246059
-0.0011618
-0.0768332
-0.038613
-0.0240786
-0.0106082
-0.00429191
-0.00471895
-0.0393076
-0.275738
-1.44156
-3.96636
-72.9324
-172.095
-1084.63
-289.652
-7.47909e-09
-2.646e-07
-2.34391e-06
-0.000118912
-0.00163066
-0.00240088
-0.00119724
-0.0412096
-0.0228328
-0.530305
-0.265131
-0.246569
-0.187691
-0.11454
-0.061915
-0.1054
-0.594258
-19.5648
-28.452
-109.87
-306.411
-861.712
-1167.63
-3.83038e-07
-8.01338e-06
-5.32904e-05
-0.00235592
-0.0247923
-0.0321019
-0.0211183
-0.312992
-0.221312
-1.94535
-6.76634
-4.77342
-2.84427
-0.985425
-1.91658
-4.52553
-11.645
-49.6656
-122.979
-375.092
-1949.24
-1395.52
-1447.3
-1.26077e-05
-0.000157157
-0.000801896
-0.0305573
-0.236347
-0.267941
-0.230669
-1.5939
-1.58641
-10.149
-33.2884
-38.5179
-22.3028
-10.1928
-6.60381
-7.41907
-12.0426
-29.4134
-88.2852
-417.55
-2478.26
-2114
-1755.36
-0.000272023
-0.00232927
-0.00944943
-0.287455
-1.51971
-1.56359
-1.807
-6.64177
-10.2015
-47.3623
-175.109
-133.875
-71.017
-64.4379
-38.6019
-20.03
-22.2313
-40.9587
-103.528
-460.891
-2479.42
-2441.1
-1982.56
-0.00447297
-0.0278934
-0.0921915
-2.02646
-6.99538
-7.21776
-12.8899
-23.41
-68.2809
-184.542
-423.007
-323.905
-300.394
-214.884
-195.134
-103.923
-48.2606
-44.695
-67.3368
-386.679
-2279.27
-2680.08
-2204.2
-0.0541375
-0.302776
-0.785518
-10.8358
-25.204
-28.0092
-57.0201
-90.4906
-259.43
-668.39
-905.3
-1134.55
-900.585
-551.835
-653.589
-413.738
-180.986
-80.2889
-65.6226
-222.158
-1551.58
-2685.88
-2298.05
-0.52585
-3.06423
-5.76373
-44.8106
-74.531
-94.7694
-194.954
-262.511
-581.018
-1377.01
-2107.81
-2086.7
-1721.96
-1715.02
-1601.44
-1016.67
-382.001
-137.066
-74.5344
-141.431
-795.437
-2569.5
-2487.86
217.349
248.205
249.801
253.913
351.864
503.973
745.439
1305.34
2556.92
2854.66
2776.47
2500.89
1871.64
1634.5
1631.14
2039.67
2664
2832.9
2133.86
187.53
100.67
28.6014
38.4765
98.331
222.861
354.501
517.42
1914.79
2857.05
2663.35
2857.14
2528.99
2029.48
1298.94
1697.76
2337.04
2825.82
2585.24
143.586
43.6854
21.2262
26.7657
47.7368
177.96
432.024
889.163
1410.06
2652.01
2825.04
2851.83
2836.11
2475.02
1310.22
1316.24
1738.13
2540.32
2751.99
114.84
31.1359
94.0999
129.364
44.6121
75.5779
402.861
1198.97
1603.19
2651.37
2817.03
2769.03
2855.76
2453.19
1236.93
1063.25
1308.3
2154.41
2829.54
95.3816
42.6578
252.355
747.722
254.896
90.687
438.662
1746.35
2464.25
2794.55
2251.34
2651.49
1451.27
813.959
584.569
685.522
946.71
1832.81
2851.68
86.2802
96.9229
637.645
2488.88
1133.3
271.738
807.043
2827.41
-290.028
464.071
-885.871
30.8416
-734.203
-368.372
98.2501
420.631
703.667
1469.29
2855.14
82.9167
240.64
1569.87
2391.42
2396.8
1059.78
1294.92
2400.61
1229.75
-671.555
-2040.87
-1809.61
-1771
-1244.03
-310.47
181.191
549.114
1241.4
2833.66
72.3224
1568.46
2737.88
798.324
2817.94
2717.73
2425.77
2763.25
1891.9
-1483.71
-2443.48
-2404.79
-2204.84
-1498.24
-363.816
175.725
541.635
1141.37
2793.11
-5.85724
-45.5275
-51.7869
-204.669
-254.723
-373.468
-658.772
-846.543
-1455.37
-2648.72
-2772.1
-2834.17
-2816.02
-2844.12
-2839.95
-2857.27
-2714.42
-1630.14
-514.857
-220.872
-311.437
-1367.85
-2313.57
-54.1252
-481.933
-376.804
-850.762
-885.628
-1393.8
-1925.29
-2125.97
-2693.69
-2570.46
-1541.6
-650.788
-41.6357
59.7711
67.7598
223.329
-560.825
-2545.77
-2206.34
-1128.08
-564.925
-756.438
-1381.54
-397.554
-1977.76
-1487.47
-2304.71
-2297.24
-2771.05
-2857.51
-2853.4
-2804.36
-2425.89
-1938.77
-976.463
36.9223
744.283
1225.08
1626.53
1640.48
732.406
-2470.46
-2490.35
-1161.86
-879.347
-1045.77
-1581.44
-2043.81
-2792.39
-2225.37
-2440.98
-1509.54
-1216.54
-421.673
-9.19388
-731.51
-2139.05
-2075.33
-1158.26
313.015
1133.53
1554.02
2105.6
2043.9
321.623
-2816.62
-2343.41
-1881.12
-1837.97
-2856.17
1157.94
-1196.81
1114.62
2016.77
2033.88
1806.92
2751.78
2753.65
2672.03
947.402
-599.907
44.7772
1458.09
1904.53
1513.49
1466.51
2207.63
1622.36
187.439
-1548.86
-2186.47
-1495.81
-696.79
2315.25
2486.89
2855.88
2640.08
2788.03
2856.9
2512.66
2693.41
2465.37
2633.18
2549.01
2823.28
2520.09
2647.92
2844.83
2349.08
2675.82
2600.03
2464.25
2179.45
2168.64
2443.1
2418.76
2835.73
2676.7
2208.46
1725.51
1852.42
2272.44
1848.36
2059.84
1595.51
1291.52
2278.74
1573.8
1349.96
1641.78
2426.16
2848.5
2388.2
2134.15
2473.85
2564
2514.29
2501.27
2674.31
2577.35
1966.35
1388.22
944.752
938.521
1642.87
1304.65
1247.66
1277.47
1039.5
683.405
600.825
833.959
788.007
478.985
1898.21
627.7
307.925
496.487
803.726
1420.77
1704.73
1946.65
1725.63
1080.75
691.446
353.445
528.235
1178.71
743.22
857.747
1183.89
1010.47
389.24
343.137
179.829
70.0455
27.4571
212.182
67.7967
147.081
252.072
467.994
938.842
972.407
1298.47
852.26
499.323
264.922
106.044
312.85
465.178
410.475
752.565
1072.81
1053.85
289.462
157.882
56.5125
13.4409
19.5933
32.8933
61.797
261.161
199.823
298.352
456.685
328.413
747.952
291.307
241.83
99.9083
33.0272
130.08
185.557
219.035
494.345
804.153
1066.91
237.73
65.0978
13.1303
8.70292
25.0093
56.6511
76.9424
77.9096
60.8941
102.546
136.583
139.147
454.763
110.678
129.635
53.5178
13.9124
22.2813
38.2882
49.471
135.113
356.534
882.569
187.143
24.1176
6.48689
4.46332
14.8288
26.6419
33.8955
36.8301
40.9148
41.7358
45.6468
77.946
303.788
51.2752
60.0621
26.4409
6.06086
1.70004
3.38474
3.63995
12.1006
95.7176
697.204
228.64
16.1647
2.91468
1.30927
5.84098
16.9982
21.4457
23.8971
22.6491
10.2049
5.34065
4.81532
204.128
35.2194
23.302
7.2807
0.751271
0.171657
0.231919
1.82789
7.24581
54.9416
474.956
425.901
51.2796
2.59055
0.520573
1.74672
7.24529
11.2385
13.4569
10.7142
3.19123
0.52345
0.285205
87.9629
5.19359
9.27771
1.39396
0.0375056
0.023276
0.0444836
1.84139
15.607
59.2977
427.919
621.194
116.946
2.73326
0.176942
0.512795
1.78333
2.8224
4.76278
5.27446
1.65839
0.184162
0.0533085
35.2948
2.1032
4.04547
0.319032
0.00656435
0.00912468
0.0197607
1.11297
31.2437
183.68
627.509
1309.8
484.477
28.6574
0.0749293
0.0570054
0.100483
0.194634
0.425802
0.568146
0.138042
0.029405
0.0316317
7.61393
0.747057
1.57457
0.0480605
0.00102435
0.00348081
0.00736971
0.192642
32.469
321.264
1228.75
2564.09
1194.12
135.733
0.0407276
0.017654
0.00742873
0.00514355
0.00688068
0.00704971
0.00722873
0.00251792
0.00779885
0.489522
0.232484
0.580782
0.00700628
0.000196887
0.00103421
0.00276813
0.0484706
0.565735
11.3427
149.232
914.798
44.9452
0.0148378
0.00785803
0.00603797
0.00159368
0.000724603
0.000624955
0.000699659
0.0008469
0.000447808
0.000994522
0.00277262
0.0103224
0.19112
0.000851403
4.67402e-05
6.07338e-05
2.66516e-05
6.8862e-05
0.000355778
0.00231087
0.0109477
0.0586906
0.00294792
0.000762603
0.000712177
0.00110954
0.000548003
0.000191483
0.000107948
0.00010738
8.47461e-05
7.49237e-05
0.000123675
0.000403347
0.00254549
0.0598259
0.000218482
1.10116e-05
1.18151e-05
9.99876e-06
1.34019e-05
2.2468e-05
6.59428e-06
1.22736e-05
2.69587e-05
3.31593e-05
5.903e-05
7.85383e-05
9.33378e-05
9.98146e-05
9.05928e-05
2.80476e-05
1.26595e-05
7.10103e-06
5.77175e-06
8.33134e-06
4.47914e-05
0.000139971
0.00025905
2.18198e-06
9.87102e-07
6.69094e-07
2.90073e-06
3.78478e-06
1.47121e-05
2.77425e-06
1.3901e-06
1.21276e-06
4.31481e-06
6.46805e-06
8.35468e-06
7.91427e-06
8.42015e-06
5.84281e-06
3.64557e-06
6.24581e-07
3.60751e-07
2.40027e-07
7.44089e-07
2.58382e-06
1.24324e-06
3.53684e-06
8.80629e-08
7.74059e-08
1.02715e-07
5.61544e-07
5.66732e-07
1.75527e-06
2.67385e-06
8.11226e-07
5.02251e-09
2.46223e-08
6.76272e-08
1.54612e-07
3.2784e-07
4.8926e-07
2.9411e-07
2.66712e-07
2.94137e-08
1.91266e-08
2.9192e-08
8.94987e-08
5.5544e-07
3.28413e-08
3.75148e-09
2.30463e-09
1.17231e-09
1.38698e-08
2.20133e-08
2.47092e-09
1.76479e-09
5.5488e-10
3.12617e-10
3.7562e-10
1.37697e-09
3.57066e-09
6.97669e-09
2.56931e-08
3.42051e-08
2.56377e-08
1.76923e-08
3.28417e-09
1.18688e-09
1.47428e-09
6.90304e-09
7.33506e-08
8.29366e-09
4.78391e-10
4.74756e-10
3.59249e-10
2.38742e-09
3.24962e-09
2.25553e-10
2.00998e-10
2.32831e-10
1.9827e-10
1.76442e-10
2.91948e-10
3.59249e-10
5.68432e-10
1.13595e-09
1.92266e-09
1.67619e-09
1.09503e-09
2.90128e-10
5.91167e-11
2.02817e-10
5.32053e-10
5.4424e-09
1.62072e-09
2.41016e-10
2.43744e-10
8.13998e-10
2.37377e-10
3.0468e-10
2.43745e-10
1.38243e-10
2.37378e-10
2.43745e-10
1.89175e-10
1.88265e-10
2.35559e-10
1.46428e-10
2.31011e-10
1.46428e-10
2.22826e-10
1.0732e-10
5.27506e-11
-7.27597e-11
5.45696e-11
2.14641e-10
1.50065e-10
-2.14642e-10
2.39197e-10
1.6189e-10
2.49201e-10
2.7012e-10
1.46428e-10
2.67392e-10
2.73758e-10
1.82808e-10
2.39197e-10
1.88265e-10
2.83762e-10
2.43745e-10
1.628e-10
2.17369e-10
1.19144e-10
1.00954e-10
7.45785e-11
6.63931e-11
-3.27418e-11
-1.36425e-11
2.04636e-10
1.8008e-10
-1.71895e-10
2.1555e-10
2.41926e-10
2.07365e-10
2.55568e-10
2.37378e-10
1.86446e-10
1.48248e-10
1.82808e-10
1.31877e-10
2.09184e-10
2.19188e-10
2.35559e-10
1.82808e-10
2.29193e-10
1.628e-10
1.19144e-10
7.7307e-11
5.63886e-11
4.54741e-12
2.18278e-11
1.76442e-10
2.37378e-10
-2.77396e-10
1.72804e-10
2.67392e-10
2.14641e-10
2.5193e-10
2.67392e-10
1.628e-10
1.66438e-10
1.78261e-10
2.80124e-10
2.17369e-10
2.19188e-10
2.81943e-10
2.21007e-10
1.72804e-10
2.11003e-10
1.64619e-10
1.48248e-10
1.53705e-10
1.68257e-10
2.81943e-11
1.33696e-10
2.41016e-10
-2.21007e-10
2.11003e-10
2.29193e-10
2.8831e-10
2.17369e-10
2.21007e-10
1.9827e-10
1.66438e-10
2.67392e-10
1.94632e-10
2.43745e-10
2.63753e-10
2.68301e-10
2.60116e-10
2.51021e-10
1.8008e-10
1.21872e-10
7.5488e-11
3.45607e-11
7.09406e-11
-2.0009e-11
1.45519e-10
2.29193e-10
-2.37378e-10
2.22826e-10
2.02817e-10
2.45564e-10
3.16504e-10
2.81943e-10
1.82808e-10
1.11868e-10
1.70075e-10
1.9827e-10
2.19188e-10
2.60116e-10
2.29193e-10
2.17369e-10
2.41016e-10
2.41926e-10
1.70076e-10
7.27595e-11
1.00044e-11
3.09228e-11
2.27374e-11
1.51886e-10
2.75577e-10
-2.60116e-10
2.63754e-10
2.07365e-10
2.43745e-10
2.27374e-10
2.78305e-10
2.39197e-10
1.40062e-10
2.29193e-10
1.94632e-10
1.80989e-10
2.27374e-10
2.71939e-10
1.6189e-10
2.07365e-10
2.25555e-10
1.84627e-10
1.31877e-10
3.45608e-11
-3.63801e-12
-4.27463e-11
1.58252e-10
2.68301e-10
-2.37378e-10
2.57387e-10
1.96451e-10
1.90994e-10
1.72804e-10
2.59206e-10
2.3374e-10
1.76442e-10
1.50067e-10
3.01952e-10
2.35559e-10
2.45564e-10
3.22871e-10
2.53749e-10
2.47383e-10
3.34694e-10
2.53749e-10
1.82808e-10
3.09227e-11
5.27508e-11
-3.63799e-11
9.9135e-11
2.32831e-10
-1.58252e-10
2.67392e-10
1.48248e-10
1.72804e-10
1.82808e-10
2.51021e-10
2.83762e-10
1.86446e-10
2.78305e-10
1.66437e-10
2.19188e-10
2.37378e-10
2.49202e-10
2.77396e-10
2.51021e-10
2.81943e-10
2.27374e-10
1.88265e-10
1.27329e-10
-6.36651e-12
-6.36647e-12
9.09495e-11
1.82809e-10
-2.41016e-10
1.86447e-10
1.48248e-10
2.17369e-10
9.54968e-11
2.31012e-10
3.11957e-10
1.41881e-10
3.11957e-10
2.5193e-10
2.22826e-10
2.09184e-10
1.99179e-10
2.24645e-10
2.24645e-10
2.24645e-10
1.96451e-10
1.74623e-10
6.91216e-11
-5.27508e-11
-6.63932e-11
2.77396e-10
1.41881e-10
-1.51886e-10
1.05501e-10
1.70076e-10
1.72804e-10
6.73025e-11
3.22871e-10
2.43745e-10
1.27329e-10
2.67392e-10
2.02817e-10
2.59206e-10
2.27374e-10
2.22826e-10
1.92813e-10
1.86446e-10
2.32831e-10
2.21007e-10
2.04636e-10
6.27551e-11
-6.3665e-12
-4.63843e-11
2.07365e-10
4.27463e-11
-2.00998e-10
7.91261e-11
1.00954e-10
9.27684e-11
1.51886e-10
1.68256e-10
2.02817e-10
1.58252e-10
1.80989e-10
2.81943e-10
2.71939e-10
1.78261e-10
1.628e-10
1.27329e-10
2.21007e-10
1.36424e-10
3.10138e-10
1.74623e-10
1.36424e-10
1.15506e-10
-5.63888e-11
1.41881e-10
-6.3664e-12
-2.41016e-10
6.63932e-11
3.63797e-11
1.21872e-10
2.21007e-10
1.60071e-10
6.45741e-11
1.54614e-10
1.89175e-10
8.27639e-11
1.31877e-10
7.9126e-11
5.72982e-11
4.00177e-11
1.9827e-10
1.17325e-10
2.80124e-10
2.25555e-10
1.50067e-10
1.63708e-11
-2.0009e-11
2.07365e-10
-2.00088e-11
-2.17369e-10
8.27641e-11
4.00177e-11
1.2551e-10
2.41016e-10
7.09405e-11
-3.00134e-11
8.0945e-11
5.63886e-11
3.81988e-11
4.09272e-11
1.13687e-10
-4.91129e-11
5.72982e-11
1.53705e-10
4.09272e-11
1.72804e-10
1.10049e-10
1.27329e-10
8.18538e-12
6.09361e-11
2.53749e-10
-3.00133e-11
-1.45519e-10
9.7316e-11
7.54881e-11
9.3678e-11
9.73159e-11
7.27596e-11
-1.0914e-10
9.09496e-11
-6.3665e-12
-2.63754e-11
1.19144e-10
-2.0009e-11
7.09407e-11
-5.27508e-11
7.54881e-11
-5.87122e-17
8.2764e-11
1.00043e-11
1.11868e-10
6.63931e-11
-6.36658e-12
2.06455e-10
-3.00133e-11
-1.09139e-10
1.54614e-10
4.09272e-11
8.73115e-11
1.50067e-10
4.45652e-11
-3.27419e-11
1.05501e-10
-3.00134e-11
2.18279e-11
2.00089e-11
-6.3665e-12
1.60071e-10
1.63708e-11
8.73115e-11
-1.00045e-11
5.63887e-11
6.27552e-11
1.36423e-11
1.35515e-10
1.36423e-11
8.91305e-11
-1.63709e-11
-6.27553e-11
2.98314e-10
1.70075e-10
1.50067e-10
2.75577e-10
1.54614e-10
-2.63755e-11
1.30058e-10
1.81888e-12
1.35515e-10
3.63793e-12
-5.27508e-11
1.28239e-10
5.27506e-11
1.31877e-10
3.63797e-11
1.41881e-10
1.45518e-11
3.63787e-12
1.20053e-10
2.27374e-10
4.82032e-11
-2.63754e-11
2.18278e-11
4.23825e-10
3.2469e-10
3.2469e-10
3.21052e-10
1.33696e-10
1.33696e-10
1.41881e-10
1.38243e-10
1.33696e-10
7.5488e-11
1.30058e-10
2.65573e-10
1.70076e-10
1.58252e-10
1.68257e-10
3.14685e-10
1.64619e-10
2.09184e-10
1.78261e-10
3.20142e-10
-3.638e-11
-2340.23
-2335.44
-2622.96
2186.78
-1864.47
-2003.36
-2255.91
-2374.24
-1183.83
-1342.81
-1408.08
-1433.17
-1922.87
-2052.39
-2095.93
-2037.54
-1060.14
-1062.55
-1332.77
-2064.24
2569.82
2576.05
2534.55
2353.21
2542.68
2618.32
2720.6
2834.6
1900.74
2021.79
2157.14
2239.46
977.979
984.729
1009.78
1026.81
341.094
392.915
801.913
1192.42
510.547
690.394
717.707
340.614
186.52
164.91
78.7831
33.6724
8.22905
4.30504
1.6673
0.828159
0.213719
0.208748
0.198487
0.21971
0.0247154
0.0300799
0.0432566
0.0641091
0.00552513
0.00540129
0.00879237
0.0124823
0.0016906
0.0014432
0.00154519
0.0026322
0.000385745
0.0003334
0.000341987
0.000552397
6.80119e-05
7.18556e-05
8.98429e-05
0.000112727
8.10493e-06
8.87629e-06
1.03277e-05
9.68701e-06
8.68938e-07
7.32667e-07
1.17774e-06
1.36093e-06
9.85335e-08
1.07246e-07
1.68815e-07
2.26705e-07
1.05246e-08
1.68156e-08
2.58005e-08
3.55466e-08
7.08493e-10
1.5234e-09
2.36377e-09
3.51792e-09
1.48247e-10
3.44698e-10
4.05634e-10
5.42058e-10
5.72978e-11
1.8099e-10
1.20053e-10
9.36777e-11
5.63884e-11
1.6189e-10
1.09139e-10
7.73069e-11
2.27371e-11
1.46429e-10
1.66438e-10
1.41881e-10
4.09271e-11
7.5488e-11
1.30058e-10
1.01863e-10
1.00041e-11
1.60071e-10
1.437e-10
7.45785e-11
1.36422e-11
1.15506e-10
5.91171e-11
3.00132e-11
8.18522e-12
1.11868e-10
1.64619e-10
1.27329e-10
2.81943e-11
4.91126e-11
1.13687e-10
8.54925e-11
-1.36428e-11
8.73117e-11
7.54881e-11
8.18532e-12
-2.27377e-11
3.63798e-11
1.13687e-10
1.13687e-10
-1.36425e-11
-2.63755e-11
9.36781e-11
1.23691e-10
-5.27509e-11
-1.19144e-10
2.63754e-11
8.54927e-11
-3.2742e-11
-6.91218e-11
2.81945e-11
3.00134e-11
-5.63889e-11
-5.91173e-11
3.09228e-11
1.01864e-10
-1.36426e-11
1.63708e-11
8.27641e-11
8.91304e-11
8.91305e-11
1.35515e-10
1.84627e-10
3.31056e-10
1.53705e-10
-6.63935e-11
-5.63887e-11
-9.91353e-11
2602.39
2745.24
1353.72
-1900.18
-1062.49
-834.308
-1142.17
-1275.98
-2034.61
-2600.99
-2700.41
-2641.34
-2337.91
-1560.82
-1.14859
657.058
842.576
1249.07
2697.25
-2447.03
-2767.65
-2832.5
-2714.86
-2762.93
-2831.47
-2857.55
-2825.26
-2818.33
-2814.08
-2792.07
-2717.76
-2222.67
-769.489
1482.45
2444.86
2080.72
1824.09
2727.96
-1489.19
-1613.95
-1733.3
-1925.6
-2358.74
-2728.95
-2853.58
-2757.02
-2709.19
-2520.9
-2319.51
-2003.06
-1248.69
669.713
2197.54
2851.54
2837.23
2702.73
2808.96
-1906.33
-1899.8
-1981.12
-2223.74
-2549.8
-2822.31
-2486.52
-1333.63
616.666
525.753
140.298
-82.5098
852.756
2814.86
2571.43
2429.88
1893.9
2777.81
2856.03
-2720.02
-2840.63
-2791.74
-2828.21
-2855.23
-2215.81
1145.99
2072.72
2746.23
2416.34
1880.02
2110.12
2856.46
2255.63
1612.61
1731.31
1346.39
2192.99
2833.93
1479.18
867.251
-795.502
-1098.5
-1022.32
-145.546
2730.84
2854.45
2774.23
2819.15
2797.85
2833.55
1474.06
909.229
829.401
1105.46
1030.42
1526.1
2724.06
2851.99
2845.91
2789.55
2462.67
2061.56
2667.42
2513.75
2493.33
2227.21
1794
1725.45
1088.9
414.897
290.92
397.866
571.744
858.708
1074.78
2557.49
2291.16
2621.81
2762.72
2761.98
2838.59
2472.22
1480.87
1656.8
1361.19
880.075
709.303
574.102
463.356
287.931
273.24
306.48
718.352
801.132
2358.06
1392.69
2390.9
2433.43
1557.01
1706.17
1274.96
538.62
641.742
482.469
311.629
241.766
160.473
164.002
192.978
193.086
206.644
511.123
625.162
2143.58
1205.81
1571.71
1520.19
736.011
558.915
283.486
56.5535
58.793
54.8672
53.4433
63.5747
64.6705
79.3433
126.064
142.349
133.484
334.05
495.861
1926.26
105.899
314.099
332.717
171.079
124.624
48.7703
11.4692
6.74078
5.70561
7.70103
14.7519
27.6928
44.57
77.732
105.187
96.2815
225.856
399.364
1718.51
6.12722
17.0632
22.6266
26.4409
15.3114
6.37456
2.73491
2.37882
2.91833
4.54916
8.66754
17.99
30.2936
51.6372
79.1464
77.3869
146.215
319.591
1524.22
0.633448
0.8885
1.77511
2.70109
2.38287
1.06388
0.950359
1.52752
3.31571
7.18678
17.8716
49.3316
59.3502
62.58
70.6916
68.8101
102.342
254.955
1345.86
0.229506
0.27592
0.338282
0.224127
0.562255
0.425268
0.72342
1.81939
4.12719
9.38378
22.1125
60.8337
76.1784
70.7265
70.2328
64.9768
77.0908
210.299
1189.68
0.0611568
0.0563872
0.0676913
0.0587285
0.148178
0.269803
0.747719
2.36174
6.71636
12.2229
22.7768
57.363
87.1577
83.2532
75.1654
66.3696
62.5043
163.617
1049.17
0.0126213
0.0124309
0.0257058
0.0356165
0.119695
0.203571
0.60639
1.06042
2.4858
8.69385
22.1186
60.3295
89.0067
87.4862
79.15
69.0904
56.8474
123.898
923.017
0.0039673
0.00551995
0.0150441
0.0235547
0.0776678
0.0688809
0.143562
0.372069
1.09691
5.3662
8.69772
17.6217
56.64
74.8312
66.3052
67.3839
55.0977
97.032
809.922
0.00106045
0.0015609
0.00700789
0.00969664
0.015301
0.0173335
0.0402088
0.15998
0.363688
1.06342
1.84553
1.92441
3.63974
21.1514
28.1054
59.0117
51.8293
76.6039
705.071
0.000314145
0.000575027
0.000910566
0.00108504
0.00359446
0.00697659
0.0201586
0.0886137
0.179105
0.433999
0.646106
0.597306
0.737065
2.39231
5.61059
35.1396
44.9519
59.5789
612.486
1.58896e-05
4.24761e-05
0.000110017
0.000283227
0.000885836
0.00305967
0.0101319
0.0338645
0.0725783
0.133767
0.189021
0.182156
0.366674
1.11684
2.86092
13.9648
32.8158
42.4332
532.841
2.80637e-06
6.70446e-06
1.7553e-05
4.57574e-05
0.000190141
0.00215649
0.00708118
0.0123991
0.0264437
0.0437023
0.0725798
0.118312
0.398082
1.31482
2.63737
6.62205
19.0385
29.2884
463.795
3.94364e-07
7.03084e-07
2.84341e-06
1.11342e-05
5.05556e-05
0.000209536
0.000967408
0.00349123
0.0108429
0.0164135
0.0310467
0.102646
0.490758
2.04541
6.25583
7.81461
12.9293
21.7153
397.715
5.12827e-08
1.35168e-07
5.72666e-07
2.46395e-06
1.57499e-05
7.16957e-05
0.000251084
0.00106293
0.00282286
0.00508309
0.0199718
0.117032
0.655013
2.72445
5.48849
10.5441
12.4715
18.6962
339.147
6.41647e-09
2.24736e-08
9.2018e-08
3.33814e-07
1.85972e-06
8.97783e-06
3.10352e-05
0.000135949
0.000462077
0.00121245
0.0157742
0.150103
0.829122
5.44957
14.8027
18.2252
13.5824
18.9666
289.153
8.57652e-10
2.88673e-09
1.23846e-08
7.0131e-08
3.74815e-07
1.58597e-06
5.94952e-06
2.83198e-05
0.000118302
0.000496651
0.00565951
0.0732606
0.881811
6.62433
17.7702
35.0026
16.8482
20.3164
259.852
1.437e-10
6.02085e-10
1.72258e-09
9.32411e-09
5.77846e-08
3.41361e-07
1.82269e-06
6.34232e-06
2.50706e-05
0.000156936
0.00260422
0.0309368
0.266214
1.79372
9.06127
38.8678
23.1529
25.8405
248.25
1.58252e-10
2.61934e-10
3.30146e-10
2.15459e-09
1.45855e-08
8.91958e-08
4.61506e-07
2.14932e-06
1.00385e-05
0.000135636
0.00238092
0.0283563
0.275433
1.91344
11.5545
39.694
39.3601
45.3921
238.394
7.91259e-11
1.72804e-10
1.62799e-10
3.85625e-10
1.79079e-09
1.08457e-08
7.05302e-08
6.272e-07
1.67291e-05
0.000248621
0.00232487
0.02604
0.271174
1.59661
9.32527
38.3871
63.491
78.0951
227.33
1.50067e-10
1.84627e-10
1.76442e-10
1.71894e-10
2.49201e-10
1.61071e-09
1.39834e-08
2.72511e-07
8.03132e-06
0.00025636
0.00651561
0.0658628
0.412494
1.95941
8.27801
32.7137
75.2677
101.603
214.173
8.0945e-11
1.68257e-10
1.27329e-10
1.35515e-10
1.05501e-10
3.5652e-10
6.65833e-09
3.50873e-07
1.37976e-05
0.000421251
0.00885784
0.130841
1.46379
6.69732
22.2709
47.5765
86.7317
118.243
199.647
1.03682e-10
1.53705e-10
1.20053e-10
1.21872e-10
5.45696e-11
1.20053e-10
6.1481e-10
2.63495e-08
1.17263e-06
3.84496e-05
0.000937551
0.0167908
0.2052
1.51089
7.22259
32.4793
86.0601
123.355
184.626
5.09316e-11
1.64619e-10
1.628e-10
1.56433e-10
1.45518e-11
5.27506e-11
1.94631e-10
1.46245e-09
6.16056e-08
2.17773e-06
6.19987e-05
0.00144967
0.0246446
0.317396
2.91105
18.0448
68.147
113.895
160.86
7.5488e-11
2.67392e-10
1.99179e-10
9.73159e-11
9.5497e-11
1.30058e-10
6.2755e-11
2.41924e-10
5.49965e-09
2.12237e-07
6.49883e-06
0.000158893
0.00300811
0.0469523
0.572974
4.84356
26.8304
69.0872
105.743
-1.00045e-11
1.10049e-10
1.81898e-11
4.91127e-11
1.0732e-10
9.27684e-11
1.66438e-10
1.36424e-10
7.76703e-10
1.82925e-08
5.83808e-07
1.56612e-05
0.000347977
0.00616486
0.0848119
0.870921
5.78665
20.903
36.5865
7.09406e-11
2.25555e-10
4.27462e-11
8.36735e-11
1.45519e-10
1.46429e-10
9.09494e-11
1.54614e-10
1.89174e-10
2.19732e-09
5.428e-08
1.44935e-06
3.31689e-05
0.000640153
0.0097742
0.113865
0.876494
4.02722
7.56689
5.72981e-11
1.53705e-10
5.27506e-11
1.88265e-10
2.06455e-10
1.21872e-10
1.00954e-10
1.76442e-10
2.24645e-10
1.82807e-10
2.17275e-09
8.3176e-08
2.20162e-06
4.93786e-05
0.000841664
0.0110292
0.0958153
0.520574
1.02887
-5.74908e-17
1.82808e-10
1.51886e-10
1.50067e-10
1.54614e-10
2.09184e-10
1.2551e-10
2.02817e-10
1.58252e-10
2.09184e-10
3.65615e-10
5.30503e-09
1.33359e-07
3.17382e-06
5.82693e-05
0.000840385
0.0080115
0.0486521
0.0980673
-1.19144e-10
1.89175e-10
2.49202e-10
2.75577e-10
2.17369e-10
1.48248e-10
1.60071e-10
1.50067e-10
1.23691e-10
1.20053e-10
9.36778e-11
2.24642e-10
6.19358e-09
1.60833e-07
3.27498e-06
5.17654e-05
0.000533602
0.00349198
0.00712368
-3.27419e-11
1.94632e-10
9.91348e-11
1.51886e-10
1.78261e-10
9.27684e-11
6.6393e-11
1.35515e-10
1.13687e-10
7.27595e-11
9.54969e-11
1.0732e-10
3.47424e-10
6.86115e-09
1.54915e-07
2.65458e-06
2.94327e-05
0.000202861
0.000420193
7.7307e-11
2.12822e-10
1.71895e-10
2.47383e-10
2.02817e-10
1.35515e-10
1.23691e-10
1.31877e-10
2.00998e-10
1.56433e-10
1.13687e-10
1.46429e-10
2.00998e-10
4.20183e-10
6.36003e-09
1.15286e-07
1.38438e-06
9.98519e-06
2.11438e-05
3.30147e-10
7.27595e-11
-1.21872e-10
3.27418e-11
8.36735e-11
-5.91173e-11
8.27641e-11
1.2551e-10
1.36423e-11
5.27506e-11
8.36735e-11
5.63886e-11
1.00954e-10
8.73113e-11
3.34691e-10
4.58108e-09
5.80135e-08
4.37387e-07
9.52415e-07
1.66438e-10
2.1555e-10
-8.54926e-11
7.73071e-11
1.11868e-10
2.81943e-11
1.00044e-11
6.09361e-11
1.15506e-10
1.19144e-10
1.09139e-10
1.81898e-11
1.2551e-10
1.36424e-11
6.0936e-11
2.77394e-10
2.31828e-09
1.70611e-08
3.80903e-08
)
;

boundaryField
{
    leftWall
    {
        type            zeroGradient;
    }
    rightWall
    {
        type            zeroGradient;
    }
    lowerWall
    {
        type            zeroGradient;
    }
    atmosphere
    {
        type            zeroGradient;
    }
    defaultFaces
    {
        type            empty;
    }
}


// ************************************************************************* //
