/*--------------------------------*- C++ -*----------------------------------*\
| =========                 |                                                 |
| \\      /  F ield         | foam-extend: Open Source CFD                    |
|  \\    /   O peration     | Version:     4.1                                |
|   \\  /    A nd           | Web:         http://www.foam-extend.org         |
|    \\/     M anipulation  |                                                 |
\*---------------------------------------------------------------------------*/
FoamFile
{
    version     2.0;
    format      ascii;
    class       volVectorField;
    location    "0.4";
    object      U;
}
// * * * * * * * * * * * * * * * * * * * * * * * * * * * * * * * * * * * * * //

dimensions      [0 1 -1 0 0 0 0];

internalField   nonuniform List<vector> 
2268
(
(-0.016602 -0.0103706 0)
(0.0440469 -0.00633281 0)
(0.0508379 -0.00758748 0)
(0.140063 -0.0111978 0)
(0.20387 -0.01556 0)
(0.398733 -0.0146715 0)
(0.453246 -0.00150246 0)
(0.537805 -0.0208998 0)
(0.834387 -0.0174065 0)
(0.76682 -0.0586058 0)
(0.639767 -0.00022117 0)
(0.671994 -0.00814042 0)
(0.711246 0.0139263 0)
(0.685785 0.0470177 0)
(0.761548 0.13765 0)
(0.918785 -0.0250558 0)
(0.909483 0.0135178 0)
(0.712455 0.115004 0)
(0.616635 0.0496164 0)
(0.437239 -0.0887305 0)
(0.392866 -0.0288524 0)
(0.310709 0.128198 0)
(-0.350628 -0.244505 0)
(-0.0141001 -0.00245748 0)
(0.0459443 -0.00974779 0)
(0.0524041 -0.0148404 0)
(0.136399 -0.025097 0)
(0.202925 -0.0450366 0)
(0.400199 -0.0485414 0)
(0.447167 -0.0557171 0)
(0.545699 -0.0783262 0)
(0.857306 -0.0418487 0)
(0.748089 -0.19161 0)
(0.649193 0.00838644 0)
(0.68093 -0.0380507 0)
(0.713067 -0.0151911 0)
(0.731113 -0.0559979 0)
(0.740638 0.0759106 0)
(0.793806 0.0170479 0)
(0.909301 0.0272881 0)
(0.769654 -0.0422286 0)
(0.57894 0.0740539 0)
(0.527344 -0.0290881 0)
(0.520501 0.0560925 0)
(0.466219 0.210071 0)
(0.496929 0.201071 0)
(-0.0165172 -0.0255034 0)
(0.0461779 -0.0224206 0)
(0.0515239 -0.0288156 0)
(0.129396 -0.0469665 0)
(0.193856 -0.078314 0)
(0.37407 -0.0696732 0)
(0.460684 -0.0631442 0)
(0.585185 -0.139531 0)
(0.79126 -0.0807936 0)
(0.737547 -0.231239 0)
(0.639957 -0.0377693 0)
(0.576991 0.0168695 0)
(0.606904 -0.0476088 0)
(0.611239 0.0855204 0)
(0.735158 0.129748 0)
(0.85567 0.197482 0)
(0.893416 0.105263 0)
(0.74523 -0.0690025 0)
(0.569482 0.0441109 0)
(0.462539 -0.0388056 0)
(0.385128 0.0321773 0)
(0.400707 0.210602 0)
(0.483781 0.244835 0)
(-0.0111296 -0.0156468 0)
(0.0536927 -0.0258893 0)
(0.0534865 -0.0337945 0)
(0.115539 -0.0588121 0)
(0.199692 -0.101382 0)
(0.399389 -0.121218 0)
(0.482718 -0.0353197 0)
(0.596936 -0.154945 0)
(0.691935 -0.0668868 0)
(0.654292 -0.183147 0)
(0.621531 -0.163703 0)
(0.531077 -0.106345 0)
(0.597956 0.0474887 0)
(0.725639 0.074712 0)
(0.708824 0.125972 0)
(0.774375 0.155145 0)
(0.798389 0.0934243 0)
(0.757565 0.0358427 0)
(0.639638 -0.0334839 0)
(0.589297 0.0223273 0)
(0.339708 0.0715638 0)
(0.368717 0.304189 0)
(0.456467 0.380261 0)
(-0.0180596 -0.0467504 0)
(0.0518188 -0.0391316 0)
(0.0455581 -0.0433684 0)
(0.110562 -0.0826522 0)
(0.214115 -0.14729 0)
(0.422584 -0.139933 0)
(0.417606 -0.138348 0)
(0.539998 -0.224576 0)
(0.640686 -0.118544 0)
(0.616458 -0.206137 0)
(0.599082 -0.197474 0)
(0.615974 -0.139956 0)
(0.654558 0.065859 0)
(0.666538 -0.11446 0)
(0.736953 0.0684466 0)
(0.710205 0.117795 0)
(0.70909 0.0692601 0)
(0.649569 0.0214715 0)
(0.614148 0.0761764 0)
(0.517304 0.132676 0)
(0.252706 0.127015 0)
(0.274428 0.344225 0)
(0.420934 0.454586 0)
(-0.00847894 -0.029136 0)
(0.0580711 -0.0404284 0)
(0.0425739 -0.0462592 0)
(0.115218 -0.097574 0)
(0.247001 -0.178331 0)
(0.381813 -0.170801 0)
(0.38237 -0.201402 0)
(0.504032 -0.201506 0)
(0.649626 -0.165809 0)
(0.599726 -0.195857 0)
(0.635038 -0.223408 0)
(0.63058 -0.0103428 0)
(0.62105 -0.131297 0)
(0.700735 -0.0564191 0)
(0.917138 -0.0145269 0)
(0.803824 0.184731 0)
(0.760237 0.135477 0)
(0.731601 0.124877 0)
(0.638965 0.0722528 0)
(0.537141 0.204963 0)
(0.2795 0.188276 0)
(0.211754 0.395062 0)
(0.383156 0.540461 0)
(-0.0168278 -0.0230043 0)
(0.0555461 -0.0552326 0)
(0.0386248 -0.0576641 0)
(0.132585 -0.135726 0)
(0.251214 -0.207871 0)
(0.367647 -0.178822 0)
(0.393622 -0.170785 0)
(0.562919 -0.162121 0)
(0.610807 -0.287457 0)
(0.552206 -0.22441 0)
(0.634758 -0.19595 0)
(0.663774 -0.157067 0)
(0.646852 0.0433624 0)
(0.793187 0.0600734 0)
(0.943979 -0.196818 0)
(0.936031 -0.0373148 0)
(0.761682 0.115669 0)
(0.711998 0.130803 0)
(0.688946 0.168141 0)
(0.632712 0.275102 0)
(0.45653 0.2464 0)
(0.231878 0.450139 0)
(0.358087 0.618983 0)
(-0.0225927 -0.0360043 0)
(0.0550618 -0.0491762 0)
(0.0454645 -0.0595791 0)
(0.164021 -0.143889 0)
(0.252791 -0.235916 0)
(0.374113 -0.200702 0)
(0.416708 -0.27691 0)
(0.475363 -0.241112 0)
(0.600154 -0.3256 0)
(0.582835 -0.256209 0)
(0.632287 -0.121202 0)
(0.703969 -0.150402 0)
(0.646729 0.0232629 0)
(0.62087 -0.0935022 0)
(0.768513 -0.0659608 0)
(0.846076 -0.0369723 0)
(0.727341 0.0146261 0)
(0.641953 0.107955 0)
(0.656456 0.281618 0)
(0.595417 0.404799 0)
(0.529483 0.360498 0)
(0.318427 0.474011 0)
(0.2995 0.835722 0)
(-0.791628 0.194781 0)
(-1.09276 -0.11626 0)
(-1.12393 -0.146387 0)
(-1.02005 -0.189586 0)
(-0.948259 -0.142811 0)
(-0.908976 -0.101503 0)
(-0.759198 -0.0808939 0)
(-0.820787 -0.0449811 0)
(-1.03619 0.0245902 0)
(-0.954584 0.0247812 0)
(-0.88752 -0.15298 0)
(-0.988181 -0.0291409 0)
(-0.489182 -0.0792769 0)
(-0.203768 -0.0835487 0)
(0.428936 -0.125338 0)
(0.605512 0.0386521 0)
(0.565616 -0.0212399 0)
(-0.0146885 0.0160867 0)
(-0.294948 -0.115749 0)
(-0.567008 0.514154 0)
(-0.374005 0.306986 0)
(-0.517946 0.134196 0)
(-0.603051 0.0577751 0)
(-0.530065 -0.00601645 0)
(-0.640167 -0.0323867 0)
(-0.299201 -0.0652076 0)
(-0.460098 -0.141242 0)
(-0.865429 0.0630911 0)
(-0.685196 0.217529 0)
(0.0208332 -0.145637 0)
(-0.840184 0.202122 0)
(0.122995 -0.277404 0)
(0.391997 -0.38371 0)
(0.732282 -0.229393 0)
(0.924904 0.133813 0)
(0.907621 0.193837 0)
(0.666779 0.177153 0)
(0.265239 0.0110827 0)
(-0.384016 1.02262 0)
(-0.0895112 0.407038 0)
(-0.496638 0.0666257 0)
(-0.409991 -0.167619 0)
(-0.153535 -0.133778 0)
(-0.492106 -0.103479 0)
(-0.0736658 -0.216508 0)
(-0.235251 -0.131413 0)
(-0.188482 0.159242 0)
(-0.382617 -0.0161534 0)
(0.478329 -0.302302 0)
(0.400536 -0.141534 0)
(0.458993 -0.347641 0)
(0.693364 -0.371082 0)
(0.962761 -0.112551 0)
(1.11131 0.158156 0)
(1.05535 0.188843 0)
(0.819948 0.20333 0)
(0.404518 0.0913008 0)
(-0.345146 0.975283 0)
(0.459864 0.209012 0)
(0.311785 0.134357 0)
(0.307822 -0.11715 0)
(0.329118 -0.136632 0)
(-0.194902 0.183454 0)
(0.0760626 -0.178065 0)
(-0.375343 -0.0807916 0)
(-0.0501215 0.117775 0)
(0.417668 -0.0357281 0)
(0.64109 -0.361317 0)
(0.58995 -0.229124 0)
(0.797267 -0.388221 0)
(0.878796 -0.274438 0)
(1.18862 -0.151218 0)
(1.23475 0.0621319 0)
(1.14237 0.140187 0)
(0.899707 0.263096 0)
(0.497275 0.249259 0)
(-0.263286 0.89504 0)
(0.497704 0.152942 0)
(0.555195 0.104071 0)
(0.545818 -0.0768623 0)
(0.384159 0.0074411 0)
(-0.075845 0.220933 0)
(0.133684 -0.194005 0)
(-0.430947 0.0211508 0)
(0.107214 -0.118613 0)
(0.145026 -0.220923 0)
(0.644742 -0.281165 0)
(0.740056 -0.284971 0)
(1.13445 -0.425054 0)
(1.1734 -0.274557 0)
(1.39525 -0.158786 0)
(1.42132 0.0545975 0)
(1.29548 0.219772 0)
(0.93692 0.34944 0)
(0.45345 0.398901 0)
(-0.142535 0.772966 0)
(0.48953 0.110625 0)
(0.596965 0.120118 0)
(0.483443 -0.117402 0)
(0.345747 0.0117578 0)
(0.0599005 0.202015 0)
(0.283812 -0.123787 0)
(-0.69365 -0.0843784 0)
(0.565768 -0.379448 0)
(0.524291 -0.236335 0)
(1.02818 -0.319545 0)
(1.07678 -0.420508 0)
(1.29587 -0.448381 0)
(1.31573 -0.310763 0)
(1.50777 -0.193525 0)
(1.51714 0.0604871 0)
(1.41999 0.266958 0)
(1.08593 0.437346 0)
(0.486017 0.536911 0)
(0.1724 0.682263 0)
(0.234847 0.0791407 0)
(0.404966 0.0739436 0)
(0.312435 -0.192892 0)
(0.182625 0.151383 0)
(0.210367 0.233456 0)
(0.89181 0.0312019 0)
(-0.853753 0.016124 0)
(0.857522 -0.556162 0)
(0.911163 -0.224823 0)
(1.27475 -0.373179 0)
(1.42795 -0.46711 0)
(1.59523 -0.488513 0)
(1.6015 -0.352224 0)
(1.61484 -0.194556 0)
(1.66986 0.0706522 0)
(1.47787 0.316556 0)
(1.14372 0.539981 0)
(0.519019 0.733336 0)
(-0.0357497 0.413695 0)
(0.531685 0.0501359 0)
(0.368254 0.20868 0)
(0.271235 -0.145904 0)
(0.179295 0.145316 0)
(0.193473 0.0910289 0)
(0.466818 0.0453836 0)
(0.569942 -0.11 0)
(0.944611 -0.511915 0)
(1.37425 -0.276051 0)
(1.60474 -0.437911 0)
(1.67681 -0.534204 0)
(1.69686 -0.520066 0)
(1.70226 -0.341853 0)
(1.6154 -0.164703 0)
(1.71875 0.0968124 0)
(1.55002 0.399731 0)
(1.2462 0.648317 0)
(0.495345 0.912629 0)
(-0.0170588 -0.0419175 0)
(0.0622204 -0.0889372 0)
(0.0883387 -0.0996585 0)
(0.166546 -0.220992 0)
(0.259012 -0.300948 0)
(0.334945 -0.259094 0)
(0.412182 -0.37282 0)
(0.524504 -0.342854 0)
(0.631966 -0.337878 0)
(0.630045 -0.273049 0)
(0.651208 -0.154452 0)
(0.597328 0.0549487 0)
(0.559522 -0.119967 0)
(0.647213 -0.0647338 0)
(1.06067 -0.0291641 0)
(0.862628 -0.183743 0)
(0.675845 -0.126054 0)
(0.754465 0.0537047 0)
(0.809658 0.290558 0)
(0.688354 0.349916 0)
(0.678261 0.411932 0)
(0.599461 0.596646 0)
(0.654116 1.03924 0)
(-0.0478642 -0.0725401 0)
(0.0441175 -0.131076 0)
(0.125861 -0.130895 0)
(0.132593 -0.316041 0)
(0.272029 -0.311021 0)
(0.427496 -0.338408 0)
(0.500272 -0.430561 0)
(0.577897 -0.401607 0)
(0.573534 -0.351001 0)
(0.56796 -0.301896 0)
(0.70798 -0.0311882 0)
(0.655162 -0.0514626 0)
(0.567665 -0.0515007 0)
(0.657973 0.103417 0)
(0.716151 -0.0546024 0)
(0.570064 -0.283381 0)
(0.471676 -0.134316 0)
(0.557491 0.0731653 0)
(0.614573 0.273908 0)
(0.641807 0.354447 0)
(0.826496 0.50145 0)
(1.13665 0.545984 0)
(1.28724 1.03014 0)
(0.0035255 -0.151439 0)
(0.0770114 -0.30001 0)
(0.0308647 -0.173925 0)
(0.150757 -0.359017 0)
(0.391862 -0.318071 0)
(0.438765 -0.391942 0)
(0.506497 -0.469248 0)
(0.547098 -0.422033 0)
(0.542355 -0.285713 0)
(0.700548 -0.305272 0)
(0.721126 -0.251814 0)
(0.516915 -0.3098 0)
(0.541844 -0.266678 0)
(0.574459 -0.118506 0)
(0.667108 -0.106949 0)
(0.652686 -0.0443855 0)
(0.549252 -0.0494553 0)
(0.479135 0.00106305 0)
(0.550161 0.250832 0)
(0.552919 0.403455 0)
(0.760725 0.65201 0)
(1.12874 0.502202 0)
(1.39867 0.606901 0)
(-0.0605905 -0.202626 0)
(0.0272815 -0.440988 0)
(0.000166867 -0.24097 0)
(0.170854 -0.41771 0)
(0.400052 -0.394386 0)
(0.490253 -0.35553 0)
(0.558722 -0.478337 0)
(0.664107 -0.418233 0)
(0.612284 -0.540521 0)
(0.681227 -0.496631 0)
(0.741083 -0.353077 0)
(0.613254 -0.21958 0)
(0.717667 -0.00765173 0)
(0.756153 -0.0334305 0)
(0.725635 -0.0765 0)
(0.661662 -0.121561 0)
(0.53196 -0.0345654 0)
(0.602441 0.111533 0)
(0.560056 0.529655 0)
(0.654149 0.552891 0)
(0.851102 0.727445 0)
(1.00412 0.593201 0)
(1.00844 0.172475 0)
(-0.00349214 -0.126237 0)
(-0.0216065 -0.489631 0)
(0.144728 -0.694659 0)
(0.375035 -0.976931 0)
(0.52077 -0.887058 0)
(0.361973 -0.638807 0)
(0.395966 -0.601073 0)
(0.332903 -0.526834 0)
(0.464338 -0.671482 0)
(0.851258 -0.551561 0)
(0.865223 -0.174307 0)
(0.780495 -0.0467816 0)
(0.573263 0.160845 0)
(0.40081 0.0318073 0)
(0.496893 -0.0623733 0)
(0.54408 -0.323881 0)
(0.517681 -0.228272 0)
(0.671507 -0.0643717 0)
(0.635612 0.396097 0)
(0.83328 0.617089 0)
(0.822145 0.514997 0)
(0.801184 0.379758 0)
(0.722535 -0.100809 0)
(0.0261666 -0.142749 0)
(0.0664309 -0.670083 0)
(0.0567233 -1.02088 0)
(0.212758 -1.21062 0)
(0.357352 -1.09866 0)
(0.326294 -0.754171 0)
(0.404246 -0.678607 0)
(0.327785 -0.719875 0)
(0.373434 -0.531359 0)
(0.435676 -0.668719 0)
(0.57852 -0.379745 0)
(0.470979 -0.0917221 0)
(0.15872 -0.146879 0)
(0.244141 -0.0960616 0)
(0.565227 -0.271771 0)
(0.597756 -0.368271 0)
(0.559916 -0.130512 0)
(0.716201 0.0584123 0)
(0.631321 0.357911 0)
(0.720407 0.40296 0)
(0.740642 0.273422 0)
(0.889477 0.19367 0)
(0.94345 0.1994 0)
(0.0529318 -0.194321 0)
(0.0938365 -0.705221 0)
(0.120855 -0.991407 0)
(0.240427 -1.15743 0)
(0.254628 -1.08786 0)
(0.0783697 -0.706841 0)
(0.219724 -0.65995 0)
(0.190384 -0.734735 0)
(-0.0862831 -0.407253 0)
(0.0109291 -0.68792 0)
(0.0139051 -0.543502 0)
(0.30584 0.354226 0)
(0.278751 0.329622 0)
(0.407362 -0.270216 0)
(0.577146 -0.404838 0)
(0.470774 -0.221721 0)
(0.34609 0.197064 0)
(0.158301 -0.0524554 0)
(0.256304 -0.120841 0)
(0.470675 0.0047457 0)
(0.593309 0.153744 0)
(0.777833 0.0887962 0)
(0.847567 -0.103967 0)
(0.173793 -0.118341 0)
(0.294114 -0.650436 0)
(0.211671 -1.02143 0)
(0.266817 -1.27456 0)
(0.178607 -1.03318 0)
(0.00538038 -0.521576 0)
(0.264939 -0.789233 0)
(0.0168316 -0.756791 0)
(-0.295186 -0.373755 0)
(-0.0590176 -0.733852 0)
(0.0403447 -0.740735 0)
(0.204624 -0.261944 0)
(0.34805 -0.124362 0)
(0.32612 -0.52422 0)
(-0.144951 -0.286347 0)
(0.0195292 0.11872 0)
(0.307085 0.380486 0)
(0.188021 -0.0496244 0)
(0.182344 -0.176721 0)
(0.27953 0.0771633 0)
(0.477164 0.0790869 0)
(1.09374 -0.116417 0)
(0.896699 -0.201135 0)
(-0.0322742 -0.774715 0)
(0.145183 -0.751721 0)
(0.128091 -1.07234 0)
(0.178047 -1.18525 0)
(0.111243 -0.429812 0)
(0.0246691 -0.420568 0)
(-0.08254 -0.817932 0)
(-0.366896 -0.61926 0)
(-0.135599 -0.486469 0)
(-0.0453002 -0.870498 0)
(-0.0631147 -0.83261 0)
(0.260849 -0.155831 0)
(0.244196 0.0548028 0)
(0.191197 -0.0272968 0)
(0.123154 -0.1914 0)
(-0.0818693 -0.434807 0)
(0.188997 0.236788 0)
(0.106796 -0.0189961 0)
(0.266542 -0.21598 0)
(0.303729 -0.200794 0)
(0.477222 0.012712 0)
(0.603837 -0.100116 0)
(0.463412 -0.352293 0)
(-0.0800603 -0.999118 0)
(0.127879 -0.878461 0)
(-0.0203753 -1.0966 0)
(-0.0356897 -0.84309 0)
(-0.176855 -0.36701 0)
(-0.0325759 -0.763738 0)
(-0.149923 -0.410636 0)
(-0.291161 -0.180981 0)
(-0.132744 -0.520596 0)
(-0.115649 -0.894254 0)
(-0.142966 -0.905409 0)
(0.0593763 -0.437016 0)
(0.197859 -0.0707381 0)
(0.207485 -0.0600237 0)
(0.0452209 -0.113088 0)
(-0.0825388 -0.199957 0)
(-0.0312504 -0.126846 0)
(0.161291 -0.16613 0)
(0.068221 -0.266978 0)
(0.0396894 -0.163614 0)
(0.078393 -0.298119 0)
(0.371778 -0.351438 0)
(0.277103 -0.248388 0)
(-0.172074 -0.92637 0)
(0.0553022 -0.749642 0)
(-0.157061 -0.960959 0)
(-0.083681 -0.699626 0)
(-0.133827 -0.446737 0)
(-0.177614 -0.536295 0)
(-0.1874 -0.535579 0)
(-0.15564 -0.36532 0)
(-0.0887036 -0.683272 0)
(-0.125578 -0.908454 0)
(-0.140069 -0.92279 0)
(-0.0741193 -0.519769 0)
(-0.092443 -0.0649545 0)
(-0.125658 0.177002 0)
(-0.15588 0.123992 0)
(-0.122539 -0.125559 0)
(-0.143726 -0.199686 0)
(-0.0165822 -0.133171 0)
(-0.0695771 -0.189993 0)
(-0.0820458 -0.234041 0)
(-0.0534604 -0.392012 0)
(-0.082121 -0.284971 0)
(-0.10535 -0.180459 0)
(-0.153819 -0.888742 0)
(0.0471596 -0.807601 0)
(-0.136371 -1.0491 0)
(0.0431972 -0.715099 0)
(-0.00863823 -0.644197 0)
(-0.0795515 -0.391811 0)
(0.00317979 -0.465073 0)
(0.238104 -0.304484 0)
(0.168464 -0.651596 0)
(-0.0766431 -0.840142 0)
(-0.154486 -0.860689 0)
(-0.222848 -0.384673 0)
(-0.102838 -0.0103179 0)
(-0.278043 0.106071 0)
(-0.174309 -0.115329 0)
(-0.168807 -0.163995 0)
(-0.0483554 -0.212525 0)
(-0.0364658 -0.14781 0)
(-0.111103 -0.28162 0)
(-0.171797 -0.197831 0)
(-0.18451 -0.152559 0)
(-0.203688 -0.137817 0)
(-0.239465 -0.15117 0)
(-0.170005 -0.877932 0)
(0.0753486 -0.534801 0)
(-0.0665772 -1.11907 0)
(0.0262267 -0.681657 0)
(0.152723 -0.866277 0)
(0.0513358 -0.616792 0)
(0.092364 -0.719754 0)
(0.25532 -0.574134 0)
(0.236389 -0.414107 0)
(0.115346 -0.570511 0)
(0.0229844 -0.786088 0)
(-0.365712 -0.62982 0)
(-0.179098 0.00982582 0)
(-0.292802 0.0691551 0)
(-0.164932 -0.152362 0)
(-0.102803 -0.190614 0)
(-0.118337 -0.258481 0)
(-0.00751675 -0.229879 0)
(-0.165118 -0.138665 0)
(-0.228081 -0.172963 0)
(-0.20934 -0.180808 0)
(-0.236937 -0.27414 0)
(-0.169082 -0.29432 0)
(-0.0450426 -0.585288 0)
(0.159284 -0.442861 0)
(-0.0669357 -0.673743 0)
(0.144789 -0.473637 0)
(0.00512063 -0.444954 0)
(0.163186 -0.515537 0)
(0.118709 -0.652375 0)
(0.130724 -0.692484 0)
(0.173935 -0.725622 0)
(0.075136 -0.537539 0)
(0.0732821 -0.531272 0)
(-0.316899 -0.648652 0)
(-0.0591902 -0.120023 0)
(-0.010945 -0.0888535 0)
(-0.0643572 -0.237302 0)
(-0.183675 -0.183884 0)
(-0.115777 -0.140795 0)
(-0.106875 -0.151673 0)
(-0.14043 -0.200977 0)
(-0.147166 -0.182581 0)
(-0.094913 -0.236434 0)
(-0.113665 -0.280272 0)
(-0.232655 -0.221757 0)
(-0.177618 -0.393777 0)
(0.0387814 -0.395249 0)
(-0.0566001 -0.492526 0)
(-0.0393341 -0.554932 0)
(0.0543794 -0.422115 0)
(0.0818293 -0.54682 0)
(0.162143 -0.705162 0)
(0.104728 -0.692509 0)
(0.219691 -0.83376 0)
(0.111913 -0.703569 0)
(0.00169181 -0.411273 0)
(-0.271675 -0.403625 0)
(-0.0552923 -0.230233 0)
(-0.0877472 -0.0832232 0)
(-0.0403076 -0.317869 0)
(-0.123484 -0.172002 0)
(-0.148243 -0.109549 0)
(-0.105173 -0.141522 0)
(-0.0617381 -0.102493 0)
(-0.0473661 -0.168449 0)
(-0.0705373 -0.12982 0)
(-0.0464794 -0.292537 0)
(-0.122244 -0.210532 0)
(-0.18178 -0.444688 0)
(0.0216506 -0.473216 0)
(-0.0593455 -0.553562 0)
(-0.071864 -0.549501 0)
(0.0484004 -0.519286 0)
(-0.00705951 -0.625857 0)
(0.151521 -0.732767 0)
(0.0832346 -0.62451 0)
(0.0800126 -0.915501 0)
(0.0434006 -0.76807 0)
(0.00937272 -0.333549 0)
(-0.122446 -0.334697 0)
(-0.0547246 -0.270964 0)
(-0.114933 -0.108404 0)
(0.0365906 -0.159107 0)
(-0.134475 -0.226212 0)
(-0.0648457 -0.13695 0)
(-0.0966818 -0.11726 0)
(-0.0819445 -0.113731 0)
(-0.0465558 -0.188145 0)
(-0.115561 -0.236119 0)
(-0.135451 -0.211233 0)
(-0.117845 -0.237617 0)
(-0.146258 -0.37538 0)
(-0.0729589 -0.439327 0)
(-0.142001 -0.492011 0)
(-0.0815527 -0.575507 0)
(-0.0504604 -0.553821 0)
(-0.139601 -0.754704 0)
(0.190216 -0.595696 0)
(0.201488 -0.83004 0)
(0.0473637 -0.824218 0)
(-0.113344 -0.688666 0)
(-0.0641743 -0.195496 0)
(-0.0162865 0.0348484 0)
(0.0945822 -0.181309 0)
(-0.0209705 -0.306715 0)
(-0.186285 -0.0486511 0)
(-0.113232 -0.0999513 0)
(-0.0994379 -0.126385 0)
(-0.109398 -0.108442 0)
(-0.112728 -0.150039 0)
(-0.187684 -0.118143 0)
(-0.143997 -0.160306 0)
(-0.0943059 -0.202535 0)
(-0.0426288 -0.206976 0)
(0.104526 -0.580463 0)
(0.00836439 -0.638256 0)
(-0.184212 -0.475464 0)
(-0.0743306 -0.510449 0)
(-0.14514 -0.533131 0)
(-0.0917449 -0.711695 0)
(-0.10635 -0.651336 0)
(-0.0326749 -1.08983 0)
(-0.0171321 -0.667753 0)
(0.0636251 -0.435495 0)
(-0.0230295 -0.414934 0)
(-0.0462441 -0.523714 0)
(-0.136775 -0.208956 0)
(-0.259336 -0.0818209 0)
(-0.337921 -0.102902 0)
(-0.14807 -0.110721 0)
(-0.0792895 -0.116995 0)
(-0.165622 -0.152291 0)
(-0.1068 -0.169526 0)
(-0.0965701 -0.192145 0)
(-0.199587 -0.17137 0)
(-0.192008 -0.243638 0)
(-0.144999 -0.28134 0)
(-0.00207534 -0.686782 0)
(0.109208 -0.701037 0)
(-0.0170348 -0.687856 0)
(-0.0877809 -0.440483 0)
(-0.204289 -0.75371 0)
(-0.279353 -0.684503 0)
(-0.222795 -0.701524 0)
(-0.343554 -0.772319 0)
(-0.169676 -0.903214 0)
(-0.200785 -0.730067 0)
(-0.124319 -0.459977 0)
(-0.0420956 -0.221733 0)
(-0.460595 -0.16385 0)
(-0.43537 -0.180313 0)
(-0.319172 -0.147551 0)
(-0.200823 -0.112792 0)
(-0.183379 -0.139259 0)
(-0.177248 -0.179906 0)
(-0.120653 -0.220997 0)
(-0.17929 -0.28009 0)
(-0.108148 -0.227402 0)
(-0.143541 -0.228797 0)
(-0.15934 -0.208509 0)
(0.0167036 -0.734362 0)
(-0.00515861 -0.717845 0)
(0.0723661 -0.801253 0)
(-0.0683723 -0.679189 0)
(-0.348465 -0.836078 0)
(-0.182066 -0.757047 0)
(-0.140615 -0.579551 0)
(-0.313118 -0.56664 0)
(-0.360509 -0.634167 0)
(-0.438397 -0.539816 0)
(-0.463292 -0.361691 0)
(-0.4128 -0.265385 0)
(-0.484651 -0.177665 0)
(-0.509883 -0.154109 0)
(-0.253523 -0.108627 0)
(-0.194697 -0.0873255 0)
(-0.192302 -0.0972377 0)
(-0.256608 -0.0561265 0)
(-0.214111 -0.15034 0)
(-0.0997459 -0.18122 0)
(-0.0856925 -0.241986 0)
(-0.132917 -0.207739 0)
(-0.0834243 -0.134354 0)
(-0.0103754 -0.717312 0)
(-0.00878385 -0.728339 0)
(-0.0190966 -0.687299 0)
(-0.0785572 -0.762184 0)
(-0.197518 -0.654742 0)
(-0.000250232 -0.544858 0)
(-0.00806265 -0.658159 0)
(-0.337145 -0.528198 0)
(-0.287267 -0.49583 0)
(-0.207382 -0.503341 0)
(-0.294377 -0.417622 0)
(-0.483461 -0.35924 0)
(-0.45874 -0.25932 0)
(-0.259829 -0.173224 0)
(-0.268238 -0.108359 0)
(-0.189591 -0.171917 0)
(-0.187169 -0.202678 0)
(-0.214747 -0.144414 0)
(-0.244206 -0.15462 0)
(-0.275198 -0.148672 0)
(-0.159265 -0.252683 0)
(-0.0365822 -0.236852 0)
(-0.15229 -0.240955 0)
(-0.0071412 -0.692205 0)
(-0.0110911 -0.69087 0)
(-0.0141645 -0.664774 0)
(-0.0692811 -0.705271 0)
(-0.0378309 -0.637778 0)
(-0.0549997 -0.425775 0)
(-0.0144264 -0.745953 0)
(-0.120934 -0.61623 0)
(-0.334428 -0.470113 0)
(-0.350042 -0.493324 0)
(-0.293348 -0.533845 0)
(-0.335247 -0.539182 0)
(-0.33052 -0.342862 0)
(-0.212068 -0.296099 0)
(-0.223131 -0.195544 0)
(-0.249361 -0.154939 0)
(-0.101352 -0.253863 0)
(-0.223087 -0.275087 0)
(-0.259364 -0.330496 0)
(-0.171715 -0.217136 0)
(-0.181773 -0.189175 0)
(-0.144061 -0.217986 0)
(-0.194532 -0.266359 0)
(-0.0197877 -0.716 0)
(-0.0276952 -0.730156 0)
(-0.101287 -0.715124 0)
(-0.0386994 -0.54569 0)
(0.158102 -0.697124 0)
(-0.01225 -0.665817 0)
(-0.19932 -0.651492 0)
(-0.0918002 -0.707685 0)
(-0.222204 -0.673601 0)
(-0.240279 -0.544269 0)
(-0.205263 -0.476376 0)
(-0.312753 -0.429996 0)
(-0.224991 -0.337327 0)
(-0.126794 -0.326689 0)
(-0.162441 -0.273656 0)
(-0.248386 -0.278357 0)
(-0.257191 -0.261011 0)
(-0.25042 -0.316239 0)
(-0.173143 -0.20531 0)
(-0.131024 -0.168781 0)
(-0.150637 -0.230748 0)
(-0.100869 -0.239747 0)
(-0.0647495 -0.321007 0)
(-0.0883801 -0.596562 0)
(-0.0780037 -0.479866 0)
(0.0744187 -0.472564 0)
(-0.0122578 -0.429845 0)
(-0.0228025 -0.440449 0)
(0.0725086 -0.740397 0)
(-0.0838576 -0.628919 0)
(-0.0634224 -0.599368 0)
(-0.145265 -0.593932 0)
(-0.163895 -0.494595 0)
(-0.181062 -0.456749 0)
(-0.173054 -0.412929 0)
(-0.179863 -0.287388 0)
(-0.105277 -0.312986 0)
(-0.185766 -0.32911 0)
(-0.247621 -0.277519 0)
(-0.160056 -0.279881 0)
(-0.183534 -0.352335 0)
(-0.109603 -0.145596 0)
(-0.175594 -0.270407 0)
(-0.222924 -0.219153 0)
(-0.20169 -0.258693 0)
(-0.189761 -0.276958 0)
(0.0717165 -0.369153 0)
(0.0477525 -0.36506 0)
(-0.0118525 -0.316466 0)
(-0.0492608 -0.391264 0)
(-0.0942486 -0.348976 0)
(-0.108861 -0.435702 0)
(-0.00369082 -0.395769 0)
(0.00671128 -0.594901 0)
(-0.0839541 -0.491536 0)
(-0.117733 -0.494846 0)
(-0.127746 -0.510958 0)
(-0.147526 -0.501643 0)
(-0.131845 -0.452521 0)
(-0.0917616 -0.419292 0)
(-0.0369384 -0.449097 0)
(-0.209735 -0.341971 0)
(-0.304277 -0.338667 0)
(-0.112147 -0.236771 0)
(-0.0994688 -0.282213 0)
(-0.204706 -0.328178 0)
(-0.142824 -0.235378 0)
(-0.157379 -0.248024 0)
(-0.146126 -0.189678 0)
(0.00143129 -0.291774 0)
(-0.0128337 -0.35334 0)
(-0.0193685 -0.351094 0)
(-0.0212576 -0.345942 0)
(-0.0480312 -0.342935 0)
(-0.0551767 -0.314681 0)
(-0.125977 -0.306478 0)
(-0.0936193 -0.353164 0)
(-0.0608292 -0.368286 0)
(-0.180481 -0.372491 0)
(-0.169701 -0.325353 0)
(-0.100254 -0.335589 0)
(-0.0605706 -0.337031 0)
(-0.0309951 -0.450614 0)
(-0.0861872 -0.368338 0)
(-0.139999 -0.466613 0)
(-0.0656092 -0.283356 0)
(-0.0818953 -0.299238 0)
(-0.193186 -0.335208 0)
(-0.134031 -0.291675 0)
(-0.14848 -0.248058 0)
(-0.168927 -0.256334 0)
(-0.158729 -0.238492 0)
(0.00642531 -0.327379 0)
(-0.00081535 -0.336361 0)
(-0.0189855 -0.326612 0)
(-0.0233922 -0.328314 0)
(-0.0483141 -0.320196 0)
(-0.0459593 -0.330865 0)
(-0.0600144 -0.315979 0)
(-0.0616727 -0.277585 0)
(-0.0719821 -0.312698 0)
(-0.0900884 -0.304553 0)
(-0.107829 -0.244589 0)
(-0.122802 -0.253676 0)
(-0.160816 -0.244168 0)
(-0.101747 -0.275135 0)
(-0.0820571 -0.301443 0)
(-0.0581243 -0.286244 0)
(-0.107151 -0.276313 0)
(-0.119085 -0.342372 0)
(-0.0857621 -0.330363 0)
(-0.130252 -0.357489 0)
(-0.107263 -0.202577 0)
(-0.164424 -0.243389 0)
(-0.135959 -0.220878 0)
(-0.00293511 -0.308946 0)
(-0.0087008 -0.326888 0)
(-0.0161814 -0.320539 0)
(-0.0206679 -0.318507 0)
(-0.0363816 -0.313956 0)
(-0.0392042 -0.305234 0)
(-0.0678684 -0.293998 0)
(-0.0670304 -0.300417 0)
(-0.0730409 -0.29108 0)
(-0.0882587 -0.282286 0)
(-0.0853482 -0.237527 0)
(-0.107848 -0.265715 0)
(-0.107897 -0.287838 0)
(-0.101087 -0.257004 0)
(-0.0940304 -0.34549 0)
(-0.0951753 -0.206645 0)
(-0.0913579 -0.354803 0)
(-0.10014 -0.195653 0)
(-0.169459 -0.267197 0)
(-0.0150358 -0.24604 0)
(-0.0383977 -0.263718 0)
(-0.195487 -0.235536 0)
(-0.181757 -0.23504 0)
(-0.00140516 -0.311473 0)
(-0.00290422 -0.322558 0)
(-0.0119256 -0.31871 0)
(-0.0109211 -0.316915 0)
(-0.0286367 -0.313659 0)
(-0.0252038 -0.311581 0)
(-0.0521599 -0.294125 0)
(-0.0450798 -0.286848 0)
(-0.0509667 -0.291724 0)
(-0.016897 -0.284565 0)
(-0.0545274 -0.277976 0)
(-0.150427 -0.257824 0)
(-0.16558 -0.269887 0)
(-0.144442 -0.263298 0)
(-0.0139754 -0.262933 0)
(-0.0630119 -0.316065 0)
(-0.0711089 -0.247762 0)
(0.00256289 -0.277333 0)
(-0.131846 -0.236145 0)
(-0.113977 -0.181789 0)
(-0.091465 -0.361623 0)
(-0.133943 -0.18162 0)
(-0.148303 -0.229527 0)
(-0.00335854 -0.307169 0)
(-0.00315805 -0.320883 0)
(-0.0134381 -0.311357 0)
(-0.0111225 -0.304236 0)
(-0.0314718 -0.292803 0)
(-0.0240321 -0.252344 0)
(-0.0543917 -0.241352 0)
(-0.0528116 -0.285998 0)
(-0.0580139 -0.314994 0)
(-0.0652455 -0.323041 0)
(-0.0443195 -0.328338 0)
(-0.0867488 -0.300876 0)
(-0.119981 -0.277695 0)
(-0.108705 -0.249901 0)
(-0.107543 -0.242304 0)
(-0.0758503 -0.374065 0)
(-0.0519436 -0.235112 0)
(-0.0734845 -0.332272 0)
(-0.062835 -0.264307 0)
(-0.105751 -0.248479 0)
(-0.0429336 -0.192634 0)
(-0.0726987 -0.237693 0)
(-0.169278 -0.19972 0)
(-0.00274584 -0.306845 0)
(0.0046266 -0.320504 0)
(-0.00220793 -0.31041 0)
(0.0101626 -0.309936 0)
(0.0296668 -0.310984 0)
(0.0337028 -0.347377 0)
(-0.118308 -0.316354 0)
(-0.0984417 -0.294041 0)
(-0.0750121 -0.285611 0)
(-0.0521394 -0.304642 0)
(-0.0550072 -0.280701 0)
(-0.0945113 -0.275699 0)
(-0.114484 -0.256387 0)
(-0.134947 -0.262142 0)
(-0.114115 -0.236461 0)
(-0.0546414 -0.242973 0)
(-0.0298733 -0.211995 0)
(-0.0286244 -0.298618 0)
(-0.0434803 -0.202315 0)
(-0.0373719 -0.263966 0)
(-0.119996 -0.2208 0)
(-0.16057 -0.333381 0)
(-0.171008 -0.19148 0)
(-0.00610678 -0.304958 0)
(0.00301827 -0.319333 0)
(-0.0103758 -0.310811 0)
(-0.00325927 -0.311482 0)
(-0.028359 -0.321849 0)
(-0.0252328 -0.414918 0)
(-0.0372365 -0.399124 0)
(-0.0413478 -0.333866 0)
(-0.0406087 -0.407682 0)
(-0.0721163 -0.390016 0)
(-0.0414135 -0.367758 0)
(-0.0525801 -0.283793 0)
(-0.0871657 -0.254524 0)
(-0.095688 -0.255014 0)
(-0.098359 -0.225216 0)
(-0.037255 -0.235936 0)
(-0.102431 -0.284488 0)
(-0.0554208 -0.251827 0)
(-0.0257961 -0.282102 0)
(-0.128698 -0.251849 0)
(-0.115593 -0.262584 0)
(-0.0423528 -0.18028 0)
(-0.076617 -0.220248 0)
(-0.00629439 -0.30452 0)
(0.00604423 -0.316498 0)
(-0.0072581 -0.307436 0)
(0.00604586 -0.297099 0)
(-0.0197216 -0.304827 0)
(-0.0372034 -0.38288 0)
(-0.0828496 -0.326569 0)
(-0.109716 -0.299296 0)
(-0.0834226 -0.284704 0)
(0.00868609 -0.265677 0)
(0.0153864 -0.294504 0)
(-0.0307796 -0.218722 0)
(-0.069976 -0.239088 0)
(-0.112528 -0.245807 0)
(-0.10829 -0.244087 0)
(-0.111615 -0.232724 0)
(-0.0394861 -0.280106 0)
(-0.0117852 -0.21374 0)
(-0.0445377 -0.338169 0)
(-0.0345344 -0.191677 0)
(-0.0737861 -0.182773 0)
(-0.133591 -0.181718 0)
(-0.1752 -0.249297 0)
(-0.00596131 -0.30495 0)
(0.00356524 -0.314799 0)
(-0.0122753 -0.30682 0)
(-0.0074424 -0.290669 0)
(-0.077115 -0.300969 0)
(-0.0217042 -0.283834 0)
(0.0464768 -0.324388 0)
(-0.0399928 -0.211217 0)
(-0.013659 -0.220522 0)
(-0.027921 -0.218124 0)
(0.0175125 -0.280917 0)
(-0.0354659 -0.257608 0)
(-0.105284 -0.26616 0)
(-0.0951066 -0.241134 0)
(-0.0806866 -0.23413 0)
(-0.0776272 -0.205703 0)
(-0.0761733 -0.197636 0)
(-0.0942713 -0.220123 0)
(-0.000517283 -0.229676 0)
(0.00270001 -0.241113 0)
(-0.148884 -0.283539 0)
(-0.13404 -0.241533 0)
(-0.124616 -0.24138 0)
(-0.00591859 -0.304599 0)
(0.00539612 -0.311469 0)
(-0.0101677 -0.298989 0)
(0.00899217 -0.263106 0)
(-0.020135 -0.221216 0)
(-0.0261513 -0.234462 0)
(0.0490388 -0.276427 0)
(-0.0468117 -0.290304 0)
(-0.0871157 -0.272556 0)
(-0.0533041 -0.261071 0)
(-0.0365763 -0.296011 0)
(-0.0150728 -0.317748 0)
(-0.0592501 -0.273871 0)
(-0.0789104 -0.255587 0)
(-0.0742626 -0.242563 0)
(-0.0904712 -0.228045 0)
(-0.0530202 -0.225624 0)
(-0.0414604 -0.201348 0)
(-0.0501958 -0.188407 0)
(-0.0771384 -0.25651 0)
(-0.0376696 -0.233713 0)
(-0.0452342 -0.204644 0)
(-0.157996 -0.174998 0)
(-0.00415182 -0.306976 0)
(0.00782306 -0.311095 0)
(-0.00680222 -0.314334 0)
(0.054345 -0.276482 0)
(-0.0235529 -0.331444 0)
(-0.078117 -0.296535 0)
(-0.02438 -0.313347 0)
(-0.0306959 -0.335968 0)
(-0.0189621 -0.296968 0)
(-0.0382878 -0.269441 0)
(-0.0378983 -0.338485 0)
(-0.0233872 -0.265828 0)
(-0.0615381 -0.231979 0)
(-0.0667681 -0.23992 0)
(-0.0627022 -0.234761 0)
(-0.0568003 -0.217626 0)
(-0.061701 -0.197827 0)
(-0.0570539 -0.220482 0)
(-0.0386611 -0.195063 0)
(-0.0138592 -0.259481 0)
(-0.0577682 -0.172295 0)
(-0.0098808 -0.259276 0)
(-0.0723743 -0.20805 0)
(-0.000319302 -0.30276 0)
(-0.00460444 -0.310913 0)
(-0.00922625 -0.318963 0)
(0.000730564 -0.277915 0)
(-0.00834212 -0.376355 0)
(-0.0258406 -0.300606 0)
(-0.0122259 -0.313844 0)
(-0.0365023 -0.272686 0)
(-0.0433617 -0.285582 0)
(-0.0678376 -0.215863 0)
(-0.0188376 -0.273096 0)
(0.0955782 -0.274249 0)
(-0.0219708 -0.26538 0)
(-0.079963 -0.257763 0)
(-0.0658394 -0.244101 0)
(-0.051361 -0.225105 0)
(-0.0654759 -0.213984 0)
(-0.0361721 -0.202508 0)
(-0.0636485 -0.184545 0)
(-0.0353857 -0.184653 0)
(-0.0182123 -0.203716 0)
(-0.0224529 -0.181993 0)
(-0.0795151 -0.305275 0)
(-0.00377362 -0.30108 0)
(-0.00861246 -0.312506 0)
(-0.00957248 -0.309432 0)
(-0.00149561 -0.277191 0)
(-0.0166398 -0.29702 0)
(-0.0228837 -0.304131 0)
(-0.0130877 -0.307146 0)
(-0.004696 -0.293706 0)
(0.0305804 -0.290385 0)
(-0.0013666 -0.289772 0)
(-0.0747796 -0.241858 0)
(-0.0330793 -0.273496 0)
(-0.0492516 -0.305394 0)
(-0.0418447 -0.27148 0)
(-0.042861 -0.249598 0)
(-0.0370776 -0.22529 0)
(-0.0474245 -0.208865 0)
(-0.0416377 -0.181512 0)
(-0.0272332 -0.191607 0)
(-0.0302907 -0.145155 0)
(-0.0310941 -0.162197 0)
(-0.0715193 -0.188077 0)
(-0.00154569 -0.207893 0)
(-0.00233611 -0.295623 0)
(-0.00692358 -0.309082 0)
(-0.0098145 -0.315257 0)
(-0.0123464 -0.289455 0)
(-0.0169729 -0.312758 0)
(-0.0186964 -0.315784 0)
(-0.0203977 -0.383281 0)
(-0.0143481 -0.317104 0)
(-0.0287746 -0.303417 0)
(-0.0205014 -0.361228 0)
(-0.0181417 -0.282638 0)
(-0.0100495 -0.283619 0)
(-0.0232195 -0.265758 0)
(-0.0346244 -0.260497 0)
(-0.0400156 -0.243344 0)
(-0.0372158 -0.219558 0)
(-0.041803 -0.205839 0)
(-0.0360629 -0.175097 0)