/*--------------------------------*- C++ -*----------------------------------*\
| =========                 |                                                 |
| \\      /  F ield         | foam-extend: Open Source CFD                    |
|  \\    /   O peration     | Version:     4.1                                |
|   \\  /    A nd           | Web:         http://www.foam-extend.org         |
|    \\/     M anipulation  |                                                 |
\*---------------------------------------------------------------------------*/
FoamFile
{
    version     2.0;
    format      ascii;
    class       volVectorField;
    location    "0.4";
    object      U_0;
}
// * * * * * * * * * * * * * * * * * * * * * * * * * * * * * * * * * * * * * //

dimensions      [0 1 -1 0 0 0 0];

internalField   nonuniform List<vector> 
2268
(
(-0.0166038 -0.0103763 0)
(0.0440117 -0.00632225 0)
(0.0507527 -0.00762198 0)
(0.140494 -0.0112369 0)
(0.204511 -0.0155454 0)
(0.399316 -0.0147109 0)
(0.453967 -0.00153326 0)
(0.539046 -0.0209549 0)
(0.835965 -0.0173539 0)
(0.767991 -0.0586992 0)
(0.640426 -0.000135233 0)
(0.672748 -0.00817078 0)
(0.712242 0.013831 0)
(0.686997 0.0470007 0)
(0.76346 0.137864 0)
(0.921197 -0.0249592 0)
(0.911641 0.013567 0)
(0.71315 0.115039 0)
(0.619465 0.048467 0)
(0.440883 -0.0893779 0)
(0.397024 -0.0285348 0)
(0.31344 0.129404 0)
(-0.35416 -0.246968 0)
(-0.0140926 -0.00244182 0)
(0.0458933 -0.00971988 0)
(0.0523022 -0.0149314 0)
(0.136814 -0.0252117 0)
(0.203543 -0.0451167 0)
(0.400886 -0.0484957 0)
(0.447879 -0.0560243 0)
(0.546906 -0.0785139 0)
(0.858982 -0.0418711 0)
(0.749247 -0.191674 0)
(0.649946 0.00843011 0)
(0.681469 -0.0381496 0)
(0.714002 -0.0156908 0)
(0.732704 -0.0565167 0)
(0.742801 0.0758111 0)
(0.796284 0.0169335 0)
(0.911352 0.0275911 0)
(0.770962 -0.0423036 0)
(0.579727 0.0736749 0)
(0.529115 -0.0300199 0)
(0.522956 0.0557199 0)
(0.469261 0.212459 0)
(0.498951 0.202418 0)
(-0.016517 -0.0255023 0)
(0.0460689 -0.0223662 0)
(0.0513808 -0.0289766 0)
(0.129754 -0.0471498 0)
(0.194378 -0.0783982 0)
(0.37466 -0.0696887 0)
(0.461239 -0.0634193 0)
(0.586486 -0.139881 0)
(0.793107 -0.0806674 0)
(0.738987 -0.231317 0)
(0.640998 -0.0377411 0)
(0.577608 0.0167342 0)
(0.607942 -0.0481185 0)
(0.612939 0.0852691 0)
(0.738235 0.129596 0)
(0.858251 0.198434 0)
(0.895636 0.106331 0)
(0.74629 -0.0690966 0)
(0.570217 0.0432845 0)
(0.464285 -0.0411872 0)
(0.386285 0.0313282 0)
(0.403508 0.212633 0)
(0.484712 0.245687 0)
(-0.011096 -0.0155888 0)
(0.0535518 -0.02581 0)
(0.0533136 -0.0340144 0)
(0.115841 -0.0590701 0)
(0.200019 -0.101541 0)
(0.399795 -0.121182 0)
(0.483272 -0.0354703 0)
(0.598171 -0.155413 0)
(0.693606 -0.0669905 0)
(0.655627 -0.182989 0)
(0.622488 -0.163798 0)
(0.532112 -0.106641 0)
(0.599368 0.0472816 0)
(0.72809 0.074276 0)
(0.711442 0.125351 0)
(0.777751 0.155822 0)
(0.801354 0.0945905 0)
(0.759864 0.0362076 0)
(0.639474 -0.0345646 0)
(0.587061 0.0195761 0)
(0.334368 0.0712128 0)
(0.369111 0.306636 0)
(0.455796 0.382076 0)
(-0.0180617 -0.046696 0)
(0.0515793 -0.0390019 0)
(0.0452945 -0.0436485 0)
(0.110682 -0.0829102 0)
(0.214013 -0.147469 0)
(0.422756 -0.139958 0)
(0.417893 -0.139083 0)
(0.541104 -0.225253 0)
(0.641975 -0.118406 0)
(0.617542 -0.205889 0)
(0.599875 -0.197525 0)
(0.616845 -0.140151 0)
(0.656188 0.0647692 0)
(0.66888 -0.115441 0)
(0.740508 0.0671443 0)
(0.713234 0.119732 0)
(0.711278 0.0714516 0)
(0.649966 0.0234005 0)
(0.613096 0.0774689 0)
(0.515009 0.133948 0)
(0.248162 0.125543 0)
(0.272339 0.344294 0)
(0.420446 0.455546 0)
(-0.00843351 -0.02905 0)
(0.0577659 -0.0402705 0)
(0.0422422 -0.0466019 0)
(0.115022 -0.0978665 0)
(0.246582 -0.178534 0)
(0.381437 -0.170803 0)
(0.38225 -0.202241 0)
(0.50497 -0.202363 0)
(0.65075 -0.165702 0)
(0.600721 -0.195679 0)
(0.63623 -0.22444 0)
(0.631753 -0.0111996 0)
(0.622785 -0.132418 0)
(0.703359 -0.0587604 0)
(0.922356 -0.0151845 0)
(0.807805 0.187393 0)
(0.762189 0.139347 0)
(0.731655 0.127261 0)
(0.636756 0.072638 0)
(0.534892 0.206535 0)
(0.276445 0.187009 0)
(0.209962 0.395445 0)
(0.382983 0.541655 0)
(-0.0168083 -0.0228542 0)
(0.0550928 -0.0549399 0)
(0.0380727 -0.0579698 0)
(0.131937 -0.135949 0)
(0.251046 -0.208042 0)
(0.367287 -0.178893 0)
(0.393455 -0.171553 0)
(0.563321 -0.162658 0)
(0.611589 -0.28767 0)
(0.552545 -0.224131 0)
(0.635469 -0.193849 0)
(0.665915 -0.15724 0)
(0.649482 0.0416177 0)
(0.796194 0.0582443 0)
(0.950618 -0.198897 0)
(0.943214 -0.0375243 0)
(0.764679 0.119059 0)
(0.709427 0.136066 0)
(0.68628 0.171592 0)
(0.631327 0.276716 0)
(0.457778 0.245526 0)
(0.231536 0.449716 0)
(0.357351 0.619589 0)
(-0.0224778 -0.0358891 0)
(0.0545526 -0.0489292 0)
(0.0445657 -0.0599332 0)
(0.163337 -0.144186 0)
(0.252007 -0.236491 0)
(0.373552 -0.200545 0)
(0.416771 -0.277543 0)
(0.475261 -0.242264 0)
(0.600358 -0.325949 0)
(0.583395 -0.255924 0)
(0.632749 -0.1195 0)
(0.704819 -0.151079 0)
(0.648749 0.0220322 0)
(0.624316 -0.0953916 0)
(0.773825 -0.0692068 0)
(0.85221 -0.0327076 0)
(0.731191 0.0185727 0)
(0.640032 0.111227 0)
(0.652898 0.281941 0)
(0.594824 0.405552 0)
(0.531457 0.357866 0)
(0.32126 0.473691 0)
(0.299565 0.836879 0)
(-0.791887 0.195713 0)
(-1.10199 -0.115506 0)
(-1.13447 -0.14625 0)
(-1.0245 -0.192297 0)
(-0.948283 -0.146559 0)
(-0.910429 -0.106677 0)
(-0.74896 -0.0848369 0)
(-0.786368 -0.0458516 0)
(-1.01369 0.0293155 0)
(-0.949135 0.0281024 0)
(-0.883603 -0.156997 0)
(-0.984088 -0.0329673 0)
(-0.484812 -0.0820764 0)
(-0.194603 -0.0850767 0)
(0.441172 -0.127821 0)
(0.623472 0.0391957 0)
(0.586177 -0.0205266 0)
(0.00671583 0.0132347 0)
(-0.289315 -0.112948 0)
(-0.562523 0.515538 0)
(-0.380432 0.311053 0)
(-0.535323 0.135914 0)
(-0.601713 0.0511383 0)
(-0.522259 -0.0042618 0)
(-0.640934 -0.0378363 0)
(-0.289141 -0.0775586 0)
(-0.402367 -0.139704 0)
(-0.848861 0.0738104 0)
(-0.680574 0.215437 0)
(0.043519 -0.153145 0)
(-0.827721 0.213027 0)
(0.136441 -0.277949 0)
(0.407155 -0.387146 0)
(0.747569 -0.229265 0)
(0.943585 0.137271 0)
(0.92896 0.193096 0)
(0.693661 0.178092 0)
(0.272545 0.0189037 0)
(-0.383628 1.02565 0)
(-0.0882705 0.421704 0)
(-0.520442 0.0709364 0)
(-0.42542 -0.178416 0)
(-0.15649 -0.137215 0)
(-0.494309 -0.10716 0)
(-0.0618263 -0.230362 0)
(-0.212604 -0.134341 0)
(-0.148727 0.186734 0)
(-0.371362 -0.0182646 0)
(0.500186 -0.300159 0)
(0.425334 -0.140809 0)
(0.485964 -0.353544 0)
(0.716758 -0.372457 0)
(0.978049 -0.1099 0)
(1.12674 0.160558 0)
(1.0704 0.18738 0)
(0.834422 0.204354 0)
(0.410586 0.100858 0)
(-0.343675 0.975605 0)
(0.451903 0.218909 0)
(0.314274 0.126704 0)
(0.297954 -0.138082 0)
(0.32837 -0.143136 0)
(-0.18249 0.173557 0)
(0.096346 -0.188263 0)
(-0.356177 -0.085664 0)
(-0.032169 0.164717 0)
(0.443821 -0.0353922 0)
(0.664665 -0.36701 0)
(0.61897 -0.234724 0)
(0.821586 -0.389584 0)
(0.898387 -0.269771 0)
(1.20079 -0.149184 0)
(1.24777 0.0645666 0)
(1.15339 0.140374 0)
(0.910421 0.265599 0)
(0.501546 0.261137 0)
(-0.261772 0.893237 0)
(0.49731 0.165601 0)
(0.54833 0.0988494 0)
(0.546638 -0.0954841 0)
(0.37808 -0.00688971 0)
(-0.0741565 0.211586 0)
(0.155155 -0.206668 0)
(-0.450738 0.00217646 0)
(0.120548 -0.108973 0)
(0.165252 -0.221642 0)
(0.660751 -0.28444 0)
(0.764591 -0.286112 0)
(1.14951 -0.424514 0)
(1.1866 -0.268319 0)
(1.40716 -0.154619 0)
(1.43111 0.0568987 0)
(1.30473 0.219182 0)
(0.947459 0.352495 0)
(0.457735 0.41185 0)
(-0.13323 0.777706 0)
(0.503737 0.130076 0)
(0.604773 0.12295 0)
(0.493057 -0.135705 0)
(0.350638 -0.0038041 0)
(0.0742465 0.192563 0)
(0.340664 -0.135588 0)
(-0.688984 -0.0882774 0)
(0.554373 -0.374427 0)
(0.519711 -0.237118 0)
(1.02745 -0.321601 0)
(1.07904 -0.42165 0)
(1.29512 -0.445182 0)
(1.3198 -0.304134 0)
(1.51783 -0.190391 0)
(1.52703 0.0618165 0)
(1.42719 0.265918 0)
(1.09657 0.440872 0)
(0.491867 0.551536 0)
(0.181776 0.651999 0)
(0.244768 0.091248 0)
(0.459134 0.0637179 0)
(0.326925 -0.2033 0)
(0.186824 0.142004 0)
(0.229096 0.230385 0)
(0.885622 0.0210789 0)
(-0.871165 0.0305808 0)
(0.865546 -0.556542 0)
(0.908347 -0.227366 0)
(1.27643 -0.37646 0)
(1.42793 -0.468362 0)
(1.59725 -0.486228 0)
(1.60191 -0.347628 0)
(1.62312 -0.1918 0)
(1.67673 0.073675 0)
(1.48177 0.316899 0)
(1.1537 0.543134 0)
(0.523037 0.750459 0)
(-0.0352394 0.404843 0)
(0.531489 0.0725139 0)
(0.378613 0.201495 0)
(0.27807 -0.155281 0)
(0.186607 0.130915 0)
(0.208532 0.086832 0)
(0.481513 0.0410507 0)
(0.56768 -0.107021 0)
(0.962389 -0.513064 0)
(1.37783 -0.276089 0)
(1.60543 -0.441298 0)
(1.67918 -0.533802 0)
(1.70024 -0.517673 0)
(1.70421 -0.338131 0)
(1.62364 -0.164032 0)
(1.72513 0.0997353 0)
(1.55027 0.397793 0)
(1.25582 0.652765 0)
(0.504086 0.930425 0)
(-0.0169998 -0.041454 0)
(0.0616184 -0.0880044 0)
(0.0872023 -0.0998571 0)
(0.165847 -0.221297 0)
(0.258058 -0.300994 0)
(0.333267 -0.259534 0)
(0.412116 -0.374161 0)
(0.523682 -0.34392 0)
(0.631478 -0.338992 0)
(0.630113 -0.2725 0)
(0.650948 -0.15489 0)
(0.598745 0.0512292 0)
(0.560608 -0.122918 0)
(0.648296 -0.0691061 0)
(1.06515 -0.0319913 0)
(0.868333 -0.182113 0)
(0.684057 -0.118944 0)
(0.762704 0.0619715 0)
(0.811811 0.294006 0)
(0.688247 0.35041 0)
(0.680125 0.415856 0)
(0.607397 0.598213 0)
(0.660384 1.04046 0)
(-0.047509 -0.0719433 0)
(0.0429131 -0.130095 0)
(0.125034 -0.131232 0)
(0.132374 -0.31603 0)
(0.269407 -0.310325 0)
(0.423125 -0.339656 0)
(0.49779 -0.432991 0)
(0.574556 -0.402754 0)
(0.568947 -0.351782 0)
(0.563253 -0.302484 0)
(0.706786 -0.0327201 0)
(0.65442 -0.0526279 0)
(0.567003 -0.0544226 0)
(0.657686 0.100666 0)
(0.716323 -0.0578192 0)
(0.570507 -0.286887 0)
(0.471795 -0.129724 0)
(0.564416 0.082399 0)
(0.622432 0.277152 0)
(0.650348 0.357283 0)
(0.82996 0.507106 0)
(1.13865 0.548039 0)
(1.29081 1.03392 0)
(0.00330889 -0.148286 0)
(0.0759571 -0.29753 0)
(0.0331898 -0.175807 0)
(0.150064 -0.357963 0)
(0.386336 -0.31825 0)
(0.432178 -0.394081 0)
(0.501496 -0.471777 0)
(0.543478 -0.423152 0)
(0.538472 -0.284596 0)
(0.696586 -0.305814 0)
(0.716979 -0.252422 0)
(0.511621 -0.311617 0)
(0.535621 -0.268647 0)
(0.572159 -0.124032 0)
(0.671784 -0.113494 0)
(0.657221 -0.0473494 0)
(0.550059 -0.0507414 0)
(0.482983 0.00865593 0)
(0.550782 0.260331 0)
(0.558268 0.404781 0)
(0.764461 0.649166 0)
(1.13021 0.501081 0)
(1.40922 0.604932 0)
(-0.0593478 -0.201932 0)
(0.0335197 -0.441341 0)
(0.00252625 -0.241569 0)
(0.167245 -0.409458 0)
(0.397732 -0.391467 0)
(0.486704 -0.356377 0)
(0.553736 -0.479732 0)
(0.6593 -0.419405 0)
(0.611934 -0.540387 0)
(0.683234 -0.498671 0)
(0.740535 -0.35153 0)
(0.611501 -0.21771 0)
(0.715209 -0.0095252 0)
(0.751583 -0.0393645 0)
(0.73135 -0.0853981 0)
(0.672605 -0.124431 0)
(0.537311 -0.0317092 0)
(0.608312 0.119768 0)
(0.559189 0.537296 0)
(0.651773 0.554782 0)
(0.849942 0.723594 0)
(1.01197 0.585234 0)
(1.01934 0.164629 0)
(-0.00242391 -0.132735 0)
(-0.0221317 -0.49056 0)
(0.142837 -0.683087 0)
(0.37886 -0.972129 0)
(0.531752 -0.890601 0)
(0.368655 -0.639666 0)
(0.399887 -0.600511 0)
(0.338287 -0.530203 0)
(0.470943 -0.673246 0)
(0.856146 -0.552349 0)
(0.855994 -0.170813 0)
(0.778932 -0.0457918 0)
(0.567263 0.154254 0)
(0.402994 0.0185996 0)
(0.502138 -0.077783 0)
(0.552841 -0.328615 0)
(0.519153 -0.224815 0)
(0.671527 -0.0583203 0)
(0.636411 0.407329 0)
(0.834003 0.61939 0)
(0.822695 0.51057 0)
(0.803107 0.369932 0)
(0.729852 -0.114708 0)
(0.0249516 -0.147381 0)
(0.0620484 -0.664154 0)
(0.0553617 -1.02363 0)
(0.21559 -1.21009 0)
(0.36762 -1.1048 0)
(0.334451 -0.752016 0)
(0.411275 -0.677294 0)
(0.335292 -0.724232 0)
(0.384716 -0.532676 0)
(0.46224 -0.661502 0)
(0.603838 -0.372852 0)
(0.466874 -0.08627 0)
(0.158718 -0.148806 0)
(0.252189 -0.129495 0)
(0.576028 -0.289448 0)
(0.597222 -0.365647 0)
(0.553008 -0.11814 0)
(0.703596 0.0667232 0)
(0.633343 0.363955 0)
(0.72398 0.405354 0)
(0.745073 0.27183 0)
(0.898024 0.196111 0)
(0.960555 0.200338 0)
(0.0497883 -0.192466 0)
(0.0879085 -0.702484 0)
(0.119455 -0.997758 0)
(0.241519 -1.16163 0)
(0.258836 -1.09249 0)
(0.0902946 -0.70551 0)
(0.229346 -0.657852 0)
(0.201546 -0.744942 0)
(-0.0756573 -0.413958 0)
(0.0138969 -0.689703 0)
(0.00982667 -0.537633 0)
(0.306936 0.368385 0)
(0.288961 0.313045 0)
(0.409514 -0.291558 0)
(0.585919 -0.413752 0)
(0.460962 -0.204602 0)
(0.339825 0.203528 0)
(0.156904 -0.0459553 0)
(0.261209 -0.120922 0)
(0.475634 0.00633262 0)
(0.605055 0.144282 0)
(0.790073 0.0699599 0)
(0.857348 -0.114776 0)
(0.173087 -0.112441 0)
(0.288266 -0.650016 0)
(0.208151 -1.02798 0)
(0.264622 -1.28116 0)
(0.184364 -1.04194 0)
(0.01319 -0.529594 0)
(0.27319 -0.793393 0)
(0.0292674 -0.772921 0)
(-0.295524 -0.367936 0)
(-0.0558108 -0.723876 0)
(0.039404 -0.733114 0)
(0.203793 -0.262856 0)
(0.351539 -0.143989 0)
(0.317193 -0.545645 0)
(-0.158347 -0.274718 0)
(0.0173439 0.132206 0)
(0.309776 0.385078 0)
(0.191707 -0.058008 0)
(0.192529 -0.188538 0)
(0.293916 0.0712423 0)
(0.491478 0.0572592 0)
(1.09726 -0.123512 0)
(0.895731 -0.196059 0)
(-0.0277514 -0.765518 0)
(0.148883 -0.746116 0)
(0.131547 -1.08578 0)
(0.187808 -1.20566 0)
(0.126795 -0.443992 0)
(0.0283305 -0.425338 0)
(-0.0719418 -0.824938 0)
(-0.363073 -0.62899 0)
(-0.13863 -0.480035 0)
(-0.0454146 -0.865749 0)
(-0.0574121 -0.823301 0)
(0.265475 -0.148619 0)
(0.241147 0.044911 0)
(0.184041 -0.0450529 0)
(0.119022 -0.210048 0)
(-0.088178 -0.43606 0)
(0.184697 0.239042 0)
(0.11693 -0.028599 0)
(0.279211 -0.220853 0)
(0.315366 -0.204003 0)
(0.485662 0.0135043 0)
(0.603837 -0.0986638 0)
(0.468003 -0.349059 0)
(-0.0777001 -0.995668 0)
(0.129759 -0.878846 0)
(-0.0129963 -1.1076 0)
(-0.0313459 -0.860922 0)
(-0.174267 -0.372337 0)
(-0.0294726 -0.766418 0)
(-0.145601 -0.413447 0)
(-0.288342 -0.181516 0)
(-0.137678 -0.512042 0)
(-0.116209 -0.889561 0)
(-0.143856 -0.896758 0)
(0.0623902 -0.432305 0)
(0.200705 -0.0732203 0)
(0.212197 -0.0662153 0)
(0.0439541 -0.123728 0)
(-0.0800317 -0.197272 0)
(-0.0224632 -0.123028 0)
(0.170098 -0.176353 0)
(0.0705804 -0.265694 0)
(0.0385607 -0.166215 0)
(0.0807217 -0.297483 0)
(0.377892 -0.343082 0)
(0.281081 -0.236407 0)
(-0.173962 -0.926834 0)
(0.0574071 -0.758661 0)
(-0.157164 -0.967771 0)
(-0.088444 -0.705662 0)
(-0.143169 -0.458089 0)
(-0.181752 -0.540123 0)
(-0.193134 -0.537671 0)
(-0.168735 -0.362741 0)
(-0.0956661 -0.672199 0)
(-0.125993 -0.900248 0)
(-0.139896 -0.917806 0)
(-0.0680853 -0.522176 0)
(-0.0882526 -0.0672657 0)
(-0.121955 0.173774 0)
(-0.155343 0.113572 0)
(-0.118293 -0.130428 0)
(-0.143252 -0.205362 0)
(-0.0174692 -0.139364 0)
(-0.0729267 -0.196083 0)
(-0.0863475 -0.239766 0)
(-0.0558206 -0.394847 0)
(-0.0825348 -0.2849 0)
(-0.108205 -0.18239 0)
(-0.155968 -0.886347 0)
(0.0470333 -0.812895 0)
(-0.138377 -1.04584 0)
(0.0407769 -0.719112 0)
(-0.0147364 -0.656588 0)
(-0.0879805 -0.397198 0)
(-0.00716707 -0.459707 0)
(0.232863 -0.298912 0)
(0.144482 -0.665774 0)
(-0.0811085 -0.846156 0)
(-0.157364 -0.856751 0)
(-0.224296 -0.38851 0)
(-0.10586 -0.0124904 0)
(-0.278962 0.104493 0)
(-0.178063 -0.121232 0)
(-0.173368 -0.169253 0)
(-0.0509896 -0.220724 0)
(-0.0412255 -0.152009 0)
(-0.114347 -0.292455 0)
(-0.171602 -0.203967 0)
(-0.190237 -0.154956 0)
(-0.209319 -0.135384 0)
(-0.24392 -0.145544 0)
(-0.169679 -0.87535 0)
(0.0755117 -0.539681 0)
(-0.0685229 -1.1247 0)
(0.030368 -0.683315 0)
(0.152456 -0.874969 0)
(0.0492205 -0.622277 0)
(0.0914947 -0.720875 0)
(0.265254 -0.554195 0)
(0.242411 -0.404875 0)
(0.117742 -0.57566 0)
(0.0159873 -0.783779 0)
(-0.364815 -0.629578 0)
(-0.178689 0.00800009 0)
(-0.291514 0.0668779 0)
(-0.170614 -0.160774 0)
(-0.108511 -0.197505 0)
(-0.121654 -0.264958 0)
(-0.0100451 -0.234355 0)
(-0.169736 -0.138161 0)
(-0.234159 -0.174413 0)
(-0.216078 -0.181458 0)
(-0.248057 -0.272509 0)
(-0.180374 -0.292651 0)
(-0.0454991 -0.582365 0)
(0.15869 -0.444461 0)
(-0.0714112 -0.682513 0)
(0.148724 -0.476663 0)
(0.00321485 -0.44649 0)
(0.161093 -0.521438 0)
(0.114218 -0.657497 0)
(0.132281 -0.698516 0)
(0.183836 -0.720482 0)
(0.079208 -0.536684 0)
(0.0781473 -0.536129 0)
(-0.318821 -0.647554 0)
(-0.058743 -0.120557 0)
(-0.0114097 -0.089508 0)
(-0.072982 -0.245313 0)
(-0.191462 -0.190773 0)
(-0.121818 -0.145162 0)
(-0.110581 -0.154869 0)
(-0.146459 -0.201581 0)
(-0.152644 -0.182166 0)
(-0.100634 -0.236033 0)
(-0.11934 -0.282915 0)
(-0.238437 -0.217541 0)
(-0.178714 -0.392519 0)
(0.0419625 -0.397739 0)
(-0.0575817 -0.495732 0)
(-0.0392357 -0.556083 0)
(0.0511631 -0.422891 0)
(0.0819044 -0.550831 0)
(0.160905 -0.709948 0)
(0.101758 -0.698644 0)
(0.220825 -0.836104 0)
(0.112922 -0.694984 0)
(0.00633152 -0.409957 0)
(-0.274761 -0.398164 0)
(-0.0557807 -0.227036 0)
(-0.0898225 -0.0835117 0)
(-0.0505997 -0.331461 0)
(-0.128496 -0.17763 0)
(-0.154586 -0.113055 0)
(-0.109705 -0.144106 0)
(-0.0666461 -0.103051 0)
(-0.0519341 -0.166688 0)
(-0.0746085 -0.130008 0)
(-0.0509887 -0.291592 0)
(-0.127256 -0.211436 0)
(-0.183691 -0.443878 0)
(0.0244316 -0.474908 0)
(-0.060793 -0.558401 0)
(-0.0722869 -0.550448 0)
(0.0487036 -0.519142 0)
(-0.00709392 -0.6261 0)
(0.150942 -0.736595 0)
(0.0806374 -0.629828 0)
(0.077705 -0.916022 0)
(0.0430113 -0.76477 0)
(0.0115868 -0.333321 0)
(-0.126059 -0.336324 0)
(-0.0585731 -0.270269 0)
(-0.115798 -0.107239 0)
(0.0280611 -0.167543 0)
(-0.135542 -0.234565 0)
(-0.0700313 -0.140591 0)
(-0.10053 -0.119591 0)
(-0.0860537 -0.115069 0)
(-0.050654 -0.188374 0)
(-0.118259 -0.236135 0)
(-0.13922 -0.212028 0)
(-0.123188 -0.236846 0)
(-0.147865 -0.374248 0)
(-0.0707889 -0.442005 0)
(-0.14183 -0.493982 0)
(-0.0830588 -0.577147 0)
(-0.0495521 -0.555051 0)
(-0.139822 -0.75668 0)
(0.19211 -0.597187 0)
(0.198578 -0.833147 0)
(0.0403305 -0.827335 0)
(-0.119694 -0.686861 0)
(-0.0639282 -0.18801 0)
(-0.0159293 0.0463058 0)
(0.0948583 -0.178313 0)
(-0.0151598 -0.307737 0)
(-0.1845 -0.0524792 0)
(-0.114367 -0.106085 0)
(-0.10107 -0.129096 0)
(-0.112133 -0.111058 0)
(-0.115246 -0.15056 0)
(-0.191209 -0.119004 0)
(-0.148774 -0.160582 0)
(-0.0986898 -0.203869 0)
(-0.0468217 -0.207352 0)
(0.105423 -0.579197 0)
(0.00907615 -0.64085 0)
(-0.184993 -0.478137 0)
(-0.0754667 -0.511279 0)
(-0.146165 -0.534226 0)
(-0.0923663 -0.713147 0)
(-0.106506 -0.652156 0)
(-0.0332366 -1.09226 0)
(-0.017855 -0.664671 0)
(0.0633781 -0.439514 0)
(-0.0246714 -0.418529 0)
(-0.0461209 -0.527408 0)
(-0.132053 -0.215083 0)
(-0.251137 -0.0775509 0)
(-0.335419 -0.104895 0)
(-0.148507 -0.112332 0)
(-0.0800681 -0.11892 0)
(-0.167529 -0.153502 0)
(-0.10996 -0.171122 0)
(-0.100998 -0.194281 0)
(-0.204 -0.171773 0)
(-0.1967 -0.244388 0)
(-0.149544 -0.281997 0)
(-0.00157768 -0.689044 0)
(0.109729 -0.703206 0)
(-0.01719 -0.688846 0)
(-0.0886872 -0.441378 0)
(-0.205356 -0.755866 0)
(-0.280156 -0.686648 0)
(-0.223397 -0.703196 0)
(-0.344394 -0.774101 0)
(-0.167703 -0.903711 0)
(-0.199509 -0.727163 0)
(-0.121987 -0.453203 0)
(-0.0416201 -0.221813 0)
(-0.459861 -0.15462 0)
(-0.436901 -0.177364 0)
(-0.319107 -0.147421 0)
(-0.202163 -0.112589 0)
(-0.185177 -0.139751 0)
(-0.180448 -0.18046 0)
(-0.123896 -0.222047 0)
(-0.181803 -0.281067 0)
(-0.112266 -0.228916 0)
(-0.149097 -0.229689 0)
(-0.164123 -0.209034 0)
(0.0168364 -0.735874 0)
(-0.00572229 -0.719155 0)
(0.0719623 -0.80283 0)
(-0.0686958 -0.680614 0)
(-0.349726 -0.838219 0)
(-0.182946 -0.758786 0)
(-0.141733 -0.580867 0)
(-0.315405 -0.5681 0)
(-0.363474 -0.637483 0)
(-0.441563 -0.542756 0)
(-0.465339 -0.362947 0)
(-0.414995 -0.266936 0)
(-0.486562 -0.179304 0)
(-0.510942 -0.152661 0)
(-0.254581 -0.10868 0)
(-0.195961 -0.0872146 0)
(-0.194086 -0.0976561 0)
(-0.259547 -0.0554581 0)
(-0.21705 -0.149922 0)
(-0.104135 -0.181318 0)
(-0.0892476 -0.242647 0)
(-0.135949 -0.207657 0)
(-0.0878512 -0.134883 0)
(-0.0105119 -0.718647 0)
(-0.00903911 -0.72975 0)
(-0.0192657 -0.688014 0)
(-0.0794015 -0.763859 0)
(-0.198306 -0.656022 0)
(-0.00133504 -0.545891 0)
(-0.00930547 -0.658562 0)
(-0.338325 -0.52907 0)
(-0.289268 -0.495383 0)
(-0.209929 -0.503397 0)
(-0.296057 -0.416781 0)
(-0.484792 -0.358765 0)
(-0.460617 -0.257987 0)
(-0.261271 -0.172634 0)
(-0.269494 -0.107723 0)
(-0.191473 -0.171667 0)
(-0.188701 -0.203072 0)
(-0.217864 -0.144762 0)
(-0.247671 -0.154817 0)
(-0.278179 -0.148808 0)
(-0.162882 -0.251667 0)
(-0.0411454 -0.236868 0)
(-0.156634 -0.240732 0)
(-0.00709116 -0.693085 0)
(-0.0110668 -0.691996 0)
(-0.0146569 -0.665859 0)
(-0.0698096 -0.706594 0)
(-0.0381991 -0.637915 0)
(-0.0560087 -0.427219 0)
(-0.0158773 -0.746338 0)
(-0.122047 -0.616961 0)
(-0.335814 -0.469797 0)
(-0.352209 -0.493621 0)
(-0.295231 -0.533117 0)
(-0.337336 -0.538858 0)
(-0.332949 -0.342337 0)
(-0.212936 -0.295191 0)
(-0.224043 -0.194517 0)
(-0.251368 -0.154316 0)
(-0.10336 -0.253296 0)
(-0.226047 -0.275199 0)
(-0.262569 -0.330134 0)
(-0.175359 -0.217018 0)
(-0.18537 -0.189033 0)
(-0.147958 -0.217781 0)
(-0.198584 -0.266077 0)
(-0.0198298 -0.716699 0)
(-0.0278303 -0.7311 0)
(-0.101636 -0.715958 0)
(-0.0391747 -0.546359 0)
(0.15762 -0.697832 0)
(-0.0134265 -0.66674 0)
(-0.200174 -0.651935 0)
(-0.0927985 -0.708073 0)
(-0.22365 -0.674122 0)
(-0.242427 -0.544414 0)
(-0.206961 -0.476291 0)
(-0.314806 -0.429754 0)
(-0.226683 -0.336748 0)
(-0.127523 -0.325358 0)
(-0.164377 -0.273273 0)
(-0.250785 -0.277232 0)
(-0.259268 -0.26035 0)
(-0.253129 -0.315365 0)
(-0.176214 -0.205154 0)
(-0.134372 -0.168783 0)
(-0.154339 -0.22998 0)
(-0.105093 -0.239301 0)
(-0.0696916 -0.319982 0)
(-0.0883814 -0.596986 0)
(-0.078155 -0.480348 0)
(0.0741727 -0.473063 0)
(-0.0126865 -0.430202 0)
(-0.0234362 -0.440794 0)
(0.0717951 -0.741063 0)
(-0.0849172 -0.62917 0)
(-0.0645482 -0.599543 0)
(-0.146545 -0.594243 0)
(-0.165428 -0.494462 0)
(-0.182645 -0.456285 0)
(-0.174832 -0.412094 0)
(-0.181422 -0.286486 0)
(-0.106874 -0.311879 0)
(-0.186978 -0.327904 0)
(-0.249374 -0.276907 0)
(-0.162589 -0.279008 0)
(-0.186545 -0.351281 0)
(-0.1136 -0.145527 0)
(-0.178748 -0.26957 0)
(-0.226357 -0.21852 0)
(-0.205493 -0.257869 0)
(-0.19382 -0.276235 0)
(0.0717212 -0.369514 0)
(0.047553 -0.365388 0)
(-0.0122183 -0.316694 0)
(-0.0496715 -0.391469 0)
(-0.0948063 -0.349205 0)
(-0.109389 -0.435634 0)
(-0.00485425 -0.396062 0)
(0.00546536 -0.594775 0)
(-0.084904 -0.491393 0)
(-0.119166 -0.49457 0)
(-0.12909 -0.510499 0)
(-0.149067 -0.501013 0)
(-0.132979 -0.452254 0)
(-0.0926246 -0.417629 0)
(-0.0387574 -0.447835 0)
(-0.212388 -0.341321 0)
(-0.306129 -0.337505 0)
(-0.115762 -0.236311 0)
(-0.103191 -0.281055 0)
(-0.207644 -0.326982 0)
(-0.146352 -0.234421 0)
(-0.16117 -0.24698 0)
(-0.150228 -0.188966 0)
(0.00136442 -0.292016 0)
(-0.0129488 -0.353613 0)
(-0.0197119 -0.351272 0)
(-0.0216179 -0.345981 0)
(-0.0484498 -0.343091 0)
(-0.0558187 -0.314605 0)
(-0.126675 -0.30664 0)
(-0.0945012 -0.352851 0)
(-0.0620172 -0.36824 0)
(-0.181457 -0.372032 0)
(-0.170754 -0.324912 0)
(-0.102088 -0.334992 0)
(-0.0609779 -0.336638 0)
(-0.0317426 -0.449561 0)
(-0.0885081 -0.368069 0)
(-0.141483 -0.464958 0)
(-0.0674873 -0.28326 0)
(-0.0860102 -0.297622 0)
(-0.196459 -0.333686 0)
(-0.136993 -0.290184 0)
(-0.152065 -0.246943 0)
(-0.172661 -0.2552 0)
(-0.16241 -0.237394 0)
(0.00638399 -0.327513 0)
(-0.00100003 -0.336384 0)
(-0.0192239 -0.326721 0)
(-0.023618 -0.328158 0)
(-0.0487363 -0.320098 0)
(-0.0465394 -0.330676 0)
(-0.0607793 -0.315891 0)
(-0.0625722 -0.277416 0)
(-0.0728127 -0.312557 0)
(-0.0910143 -0.304446 0)
(-0.108754 -0.244172 0)
(-0.124079 -0.252995 0)
(-0.16197 -0.242905 0)
(-0.102802 -0.275352 0)
(-0.0832791 -0.300847 0)
(-0.0608021 -0.286016 0)
(-0.10915 -0.275792 0)
(-0.121189 -0.341749 0)
(-0.0894218 -0.327792 0)
(-0.133342 -0.355283 0)
(-0.110991 -0.201495 0)
(-0.168325 -0.24208 0)
(-0.138404 -0.218816 0)
(-0.00300714 -0.308837 0)
(-0.00893313 -0.326683 0)
(-0.0163621 -0.320358 0)
(-0.0209735 -0.318245 0)
(-0.0368236 -0.313724 0)
(-0.0397757 -0.304909 0)
(-0.0685724 -0.293755 0)
(-0.0678397 -0.300128 0)
(-0.0739238 -0.290834 0)
(-0.0889121 -0.282265 0)
(-0.0861637 -0.236793 0)
(-0.109084 -0.264861 0)
(-0.109281 -0.286923 0)
(-0.102228 -0.25672 0)
(-0.0955664 -0.344439 0)
(-0.0967256 -0.207738 0)
(-0.0932749 -0.352382 0)
(-0.101941 -0.196193 0)
(-0.171289 -0.265366 0)
(-0.0195471 -0.244588 0)
(-0.0429993 -0.262117 0)
(-0.198559 -0.234186 0)
(-0.187944 -0.2333 0)
(-0.00141872 -0.311184 0)
(-0.00305185 -0.322063 0)
(-0.0120093 -0.318263 0)
(-0.0112123 -0.316536 0)
(-0.029018 -0.313286 0)
(-0.0257036 -0.311169 0)
(-0.0526658 -0.293641 0)
(-0.0459522 -0.286403 0)
(-0.0521839 -0.291164 0)
(-0.0171614 -0.283872 0)
(-0.0543537 -0.277149 0)
(-0.151885 -0.256926 0)
(-0.167586 -0.269034 0)
(-0.145148 -0.262408 0)
(-0.0162569 -0.262435 0)
(-0.0647165 -0.314952 0)
(-0.0727399 -0.247367 0)
(0.000208629 -0.27615 0)
(-0.133279 -0.235954 0)
(-0.11782 -0.179887 0)
(-0.0953397 -0.359443 0)
(-0.137598 -0.180139 0)
(-0.152964 -0.22875 0)
(-0.003302 -0.306806 0)
(-0.00323448 -0.320288 0)
(-0.0136144 -0.310783 0)
(-0.0114881 -0.303793 0)
(-0.0318804 -0.292433 0)
(-0.0244931 -0.251992 0)
(-0.0549165 -0.240987 0)
(-0.0533289 -0.285432 0)
(-0.0586806 -0.314154 0)
(-0.06575 -0.32166 0)
(-0.0447323 -0.327574 0)
(-0.0876646 -0.300374 0)
(-0.121394 -0.276882 0)
(-0.110062 -0.248436 0)
(-0.109478 -0.242353 0)
(-0.0775316 -0.371167 0)
(-0.0530554 -0.235465 0)
(-0.0751512 -0.329692 0)
(-0.0639925 -0.263585 0)
(-0.108723 -0.24653 0)
(-0.0477894 -0.191607 0)
(-0.0766504 -0.23577 0)
(-0.173833 -0.198001 0)
(-0.00254034 -0.306303 0)
(0.00473164 -0.319813 0)
(-0.00235842 -0.309742 0)
(0.00966239 -0.309398 0)
(0.0291453 -0.310326 0)
(0.0331419 -0.346595 0)
(-0.11861 -0.315489 0)
(-0.098714 -0.293289 0)
(-0.0755298 -0.284536 0)
(-0.0524579 -0.303677 0)
(-0.0556047 -0.279659 0)
(-0.0954874 -0.275122 0)
(-0.115646 -0.255421 0)
(-0.136369 -0.26101 0)
(-0.114668 -0.235134 0)
(-0.0567687 -0.241139 0)
(-0.0318604 -0.211629 0)
(-0.0302229 -0.296363 0)
(-0.0450067 -0.202194 0)
(-0.0401705 -0.263324 0)
(-0.12362 -0.217882 0)
(-0.163312 -0.330403 0)
(-0.175064 -0.18936 0)
(-0.00592505 -0.3041 0)
(0.00311202 -0.318416 0)
(-0.0105417 -0.31002 0)
(-0.00359127 -0.310853 0)
(-0.0287346 -0.320985 0)
(-0.0255791 -0.413941 0)
(-0.0376871 -0.398109 0)
(-0.0415327 -0.333135 0)
(-0.0410709 -0.406599 0)
(-0.0727594 -0.388981 0)
(-0.0420681 -0.366873 0)
(-0.0530938 -0.282977 0)
(-0.0882141 -0.253397 0)
(-0.0968526 -0.254001 0)
(-0.0996888 -0.224009 0)
(-0.0396423 -0.235517 0)
(-0.103272 -0.282596 0)
(-0.0569337 -0.250788 0)
(-0.0279858 -0.27997 0)
(-0.129137 -0.250964 0)
(-0.117762 -0.259575 0)
(-0.0468561 -0.178722 0)
(-0.0816556 -0.21768 0)
(-0.00610549 -0.3033 0)
(0.00614254 -0.315488 0)
(-0.00745982 -0.306534 0)
(0.0057546 -0.29637 0)
(-0.0200607 -0.304089 0)
(-0.03766 -0.381752 0)
(-0.0834045 -0.325649 0)
(-0.109839 -0.298608 0)
(-0.0835836 -0.283812 0)
(0.00804924 -0.264921 0)
(0.014499 -0.293383 0)
(-0.0314722 -0.218301 0)
(-0.0709801 -0.237986 0)
(-0.113946 -0.244806 0)
(-0.109743 -0.242938 0)
(-0.112844 -0.231475 0)
(-0.0406651 -0.278032 0)
(-0.0135005 -0.213507 0)
(-0.0463361 -0.334838 0)
(-0.0362345 -0.190734 0)
(-0.0764793 -0.181755 0)
(-0.136798 -0.178636 0)
(-0.178401 -0.245771 0)
(-0.00599373 -0.303594 0)
(0.00339056 -0.313882 0)
(-0.0125501 -0.305959 0)
(-0.00782975 -0.290016 0)
(-0.0773588 -0.300252 0)
(-0.0218636 -0.283144 0)
(0.0457151 -0.323618 0)
(-0.0401914 -0.210687 0)
(-0.0138716 -0.219689 0)
(-0.0283654 -0.217478 0)
(0.0161545 -0.279931 0)
(-0.0362857 -0.25655 0)
(-0.105746 -0.265324 0)
(-0.0963044 -0.239905 0)
(-0.0818858 -0.232844 0)
(-0.0790816 -0.204256 0)
(-0.0777349 -0.196516 0)
(-0.0951181 -0.218766 0)
(-0.00254796 -0.228071 0)
(6.8319e-06 -0.238905 0)
(-0.149709 -0.281036 0)
(-0.136913 -0.238474 0)
(-0.128541 -0.236919 0)
(-0.00620669 -0.303601 0)
(0.00501567 -0.310752 0)
(-0.0104589 -0.29819 0)
(0.00874235 -0.262406 0)
(-0.020434 -0.22069 0)
(-0.0266337 -0.233708 0)
(0.0482719 -0.275594 0)
(-0.046902 -0.289235 0)
(-0.087331 -0.271619 0)
(-0.053758 -0.26025 0)
(-0.0371356 -0.295093 0)
(-0.0158483 -0.316311 0)
(-0.0598924 -0.27289 0)
(-0.0798607 -0.254292 0)
(-0.0753342 -0.241226 0)
(-0.0919931 -0.226592 0)
(-0.0541819 -0.223993 0)
(-0.042398 -0.19958 0)
(-0.0514784 -0.187333 0)
(-0.078082 -0.253789 0)
(-0.0399681 -0.231057 0)
(-0.0469707 -0.203248 0)
(-0.159526 -0.171738 0)
(-0.00449948 -0.306441 0)
(0.00741388 -0.310368 0)
(-0.00708446 -0.313528 0)
(0.0539056 -0.275674 0)
(-0.0237723 -0.330568 0)
(-0.0782329 -0.295634 0)
(-0.0249119 -0.312274 0)
(-0.0308394 -0.334784 0)
(-0.0191956 -0.296039 0)
(-0.0387385 -0.268578 0)
(-0.0384571 -0.337144 0)
(-0.024059 -0.264772 0)
(-0.0621253 -0.231125 0)
(-0.0675139 -0.2384 0)
(-0.0636373 -0.2333 0)
(-0.0579368 -0.216076 0)
(-0.0629939 -0.195987 0)
(-0.0584337 -0.218837 0)
(-0.0398314 -0.19337 0)
(-0.0150191 -0.25714 0)
(-0.0594178 -0.170022 0)
(-0.0117588 -0.255761 0)
(-0.0752243 -0.205291 0)
(-0.000463733 -0.302255 0)
(-0.00481278 -0.310133 0)
(-0.00944613 -0.318116 0)
(0.000558644 -0.277026 0)
(-0.00849747 -0.375287 0)
(-0.025991 -0.29973 0)
(-0.0126188 -0.312751 0)
(-0.0367455 -0.271617 0)
(-0.0437084 -0.284698 0)
(-0.0679971 -0.215197 0)
(-0.0191779 -0.272019 0)
(0.0945076 -0.272982 0)
(-0.0225459 -0.264023 0)
(-0.0803822 -0.256362 0)
(-0.0667956 -0.242517 0)
(-0.0522735 -0.223451 0)
(-0.0666703 -0.212181 0)
(-0.0371076 -0.200784 0)
(-0.0644443 -0.182321 0)
(-0.0357365 -0.182479 0)
(-0.0191448 -0.201332 0)
(-0.0239057 -0.179134 0)
(-0.0809888 -0.301133 0)
(-0.00386689 -0.30046 0)
(-0.00875361 -0.311774 0)
(-0.0097753 -0.308597 0)
(-0.00166864 -0.276359 0)
(-0.0168049 -0.296145 0)
(-0.0229271 -0.303242 0)
(-0.013335 -0.306108 0)
(-0.00511715 -0.292549 0)
(0.0301052 -0.289365 0)
(-0.00159862 -0.28838 0)
(-0.0748757 -0.240805 0)
(-0.033737 -0.272088 0)
(-0.0495567 -0.303733 0)
(-0.0423265 -0.270087 0)
(-0.0434488 -0.247957 0)
(-0.0377071 -0.223562 0)
(-0.0483616 -0.206964 0)
(-0.0426168 -0.1794 0)
(-0.0278671 -0.189648 0)
(-0.0311027 -0.142676 0)
(-0.0320869 -0.160805 0)
(-0.0716557 -0.18474 0)
(-0.00385958 -0.205737 0)
(-0.00240237 -0.294909 0)
(-0.00700855 -0.308297 0)
(-0.00996072 -0.314324 0)
(-0.0124512 -0.288584 0)
(-0.0170824 -0.311745 0)
(-0.0187721 -0.314757 0)
(-0.0205055 -0.3819 0)
(-0.0146234 -0.315827 0)
(-0.0291464 -0.302251 0)
(-0.0206821 -0.359589 0)
(-0.0182875 -0.281496 0)
(-0.0105875 -0.282199 0)
(-0.0234955 -0.264337 0)
(-0.0349994 -0.258941 0)
(-0.0405202 -0.241644 0)
(-0.0377446 -0.21772 0)
(-0.0423768 -0.203866 0)
(-0.036768 -0.172749 0)
(-0.0272122 -0.187169 0)