/*--------------------------------*- C++ -*----------------------------------*\
| =========                 |                                                 |
| \\      /  F ield         | foam-extend: Open Source CFD                    |
|  \\    /   O peration     | Version:     4.1                                |
|   \\  /    A nd           | Web:         http://www.foam-extend.org         |
|    \\/     M anipulation  |                                                 |
\*---------------------------------------------------------------------------*/
FoamFile
{
    version     2.0;
    format      ascii;
    class       volScalarField;
    location    "0.1";
    object      alpha1;
}
// * * * * * * * * * * * * * * * * * * * * * * * * * * * * * * * * * * * * * //

dimensions      [0 0 0 0 0 0 0];

internalField   nonuniform List<scalar> 
2268
(
1
1
1
1
1
1
1
1
1
0.999987
0.999498
0.986844
0.898969
0.66203
0.327055
0.125895
0.050092
0.0210288
0.00901047
0.00326492
0.000803205
8.99064e-05
3.1604e-06
1
1
1
1
1
1
1
1
1
0.999986
0.999341
0.989403
0.942087
0.717521
0.342232
0.152552
0.0771747
0.0408007
0.0202371
0.00639649
0.00114225
9.48352e-05
2.29927e-06
1
1
1
1
1
1
1
1
1
0.999989
0.999362
0.987137
0.954257
0.841716
0.514237
0.246453
0.109031
0.0505869
0.0345653
0.0201843
0.00763679
0.00218384
0.000304848
1
1
1
1
1
1
1
1
1
0.999992
0.999265
0.952946
0.812907
0.735712
0.503759
0.155184
0.0291435
0.00789682
0.00538275
0.00728764
0.00568794
0.00209657
0.000282491
1
1
1
1
1
1
1
1
1
0.999994
0.999607
0.893994
0.351337
0.237419
0.170592
0.00810216
0.000715076
0.00037638
0.000614757
0.00168245
0.00249021
0.00126822
0.000151019
1
1
1
1
1
1
1
1
1
0.999995
0.999604
0.87193
0.154116
0.0279406
0.0153318
0.00323701
0.00082568
0.000170628
0.000180579
0.000456024
0.000900123
0.000424263
3.95621e-05
1
1
1
1
1
1
1
1
1
0.999996
0.999605
0.901325
0.151891
0.0277401
0.0371137
0.0172908
0.00314187
0.000250808
6.7275e-05
0.000137577
0.000295964
0.000119563
9.50737e-06
1
1
1
1
1
1
1
1
1
0.999996
0.999654
0.89231
0.149167
0.115827
0.10363
0.0315276
0.00554937
0.000461797
2.10737e-05
2.84792e-05
7.65047e-05
2.7153e-05
2.01349e-06
0
0
9.99201e-16
0
0
2.60902e-15
1.83187e-15
9.99201e-16
3.88578e-16
1.22125e-15
1.66533e-15
1.11022e-16
7.77156e-16
1.44329e-15
2.77556e-16
1.72085e-15
3.05311e-15
1.72085e-15
1.66533e-16
8.88178e-16
1.66533e-16
2.16493e-15
7.77156e-16
1.66533e-16
1.72085e-15
1.55431e-15
2.77556e-16
1.4988e-15
1.9984e-15
9.4369e-16
1.4988e-15
2.05391e-15
8.88178e-16
5.55112e-16
4.44089e-16
2.38698e-15
1.66533e-16
1.16573e-15
0
0
0
0
0
0
0
5.55112e-16
0
6.10623e-16
8.32667e-16
3.33067e-16
2.77556e-16
0
0
0
0
0
0
3.88578e-16
0
7.21645e-16
0
5.55112e-17
0
3.88578e-16
8.32667e-16
1.66533e-16
0
1.55431e-15
0
0
1.22125e-15
0
0
4.44089e-16
1.94289e-15
3.33067e-16
0
0
0
2.77556e-16
0
0
6.10623e-16
0
8.32667e-16
1.27676e-15
1.11022e-16
1.66533e-16
0
0
0
0
0
0
0
1.11022e-15
1.55431e-15
6.66134e-16
2.77556e-16
7.21645e-16
2.77556e-16
1.11022e-16
0
0
4.44089e-16
0
0
0
0
8.32667e-16
3.33067e-16
2.22045e-16
8.32667e-16
1.55431e-15
1.9984e-15
1.66533e-15
1.66533e-15
8.32667e-16
3.88578e-16
1.11022e-15
1.22125e-15
6.66134e-16
5.55112e-17
4.996e-16
0
1.38778e-15
1.66533e-16
1.11022e-16
7.21645e-16
2.33147e-15
0
1.66533e-15
1.22125e-15
5.04596e-14
2.66454e-15
6.66134e-16
1.44329e-15
1.33227e-15
4.996e-16
1.77636e-15
9.4369e-16
1.9984e-15
3.88578e-16
9.4369e-16
1.33227e-15
1.22125e-15
1.88738e-15
2.9976e-15
2.498e-15
4.44089e-16
1.4988e-15
8.88178e-16
1
1
1
1
1
1
1
1
1
0.999994
0.999065
0.943649
0.689624
0.544914
0.202307
0.0333947
0.00636071
0.000594282
8.96764e-06
3.00833e-06
1.07158e-05
3.72702e-06
3.03975e-07
1
1
1
1
1
1
1
1
1
0.99999
0.996126
0.812525
0.29629
0.146361
0.0278084
0.0030983
0.000218674
1.5731e-05
7.77819e-07
2.71099e-07
7.7398e-07
3.17049e-07
2.78684e-08
1
1
1
1
1
1
1
1
1
0.999978
0.993424
0.878271
0.265786
0.0494255
0.0135983
0.00334912
0.000409667
2.24072e-05
6.07802e-07
2.98237e-08
2.96949e-08
1.77258e-08
1.71677e-09
1
1
1
1
1
1
1
1
1
0.999958
0.985998
0.779832
0.326893
0.132944
0.0311312
0.00673269
0.0013369
0.000125469
4.93302e-06
1.20012e-07
3.17253e-09
7.94527e-10
8.0697e-11
1
1
1
1
1
1
1
1
1
0.999927
0.99318
0.920211
0.617095
0.246764
0.0479818
0.00615386
0.000507806
2.81685e-05
1.23269e-06
4.1538e-08
1.52329e-09
6.69368e-11
4.66177e-12
1
1
1
1
1
1
1
1
1
0.999973
0.997532
0.906693
0.290373
0.110879
0.0185837
0.00334619
0.000371284
2.75107e-05
1.49408e-06
5.4788e-08
1.64887e-09
4.44476e-11
1.3467e-12
1
1
1
1
1
1
1
1
1
0.999983
0.998821
0.906417
0.167033
0.00578853
0.00348761
0.000583324
4.14151e-05
3.71047e-06
2.65536e-07
1.21259e-08
4.30343e-10
1.23581e-11
3.57381e-13
1
1
1
1
1
1
1
1
0.999999
0.999918
0.995972
0.828537
0.23376
0.0697056
0.0358268
0.00742971
0.000893746
7.72173e-05
3.28869e-06
1.3015e-07
4.49356e-09
1.3428e-10
3.65646e-12
1
1
1
1
1
1
1
1
0.999999
0.999874
0.992713
0.876252
0.439513
0.192417
0.0619916
0.0137291
0.00211068
0.000235391
1.82488e-05
9.73949e-07
4.10957e-08
1.42632e-09
4.17922e-11
1
1
1
1
1
1
1
1
0.999999
0.999869
0.989662
0.895203
0.579403
0.237622
0.0560491
0.00937133
0.00130909
0.00011884
9.30692e-06
6.22677e-07
3.37546e-08
1.47294e-09
5.28104e-11
1
1
1
1
1
1
1
1
0.999999
0.999873
0.987828
0.860378
0.508005
0.151983
0.0172944
0.000873253
0.000103269
1.329e-05
1.55255e-06
1.61931e-07
1.27574e-08
7.20186e-10
2.98469e-11
1
1
1
1
1
1
1
1
0.999997
0.999837
0.996333
0.858544
0.488076
0.232183
0.061009
0.0090916
0.00204806
0.000112205
6.5097e-06
4.58207e-07
2.74729e-08
1.23192e-09
4.19464e-11
0.999998
0.999999
1
1
1
0.999997
0.999999
0.999998
0.999965
0.998651
0.987899
0.933328
0.68739
0.396201
0.130552
0.037545
0.0139263
0.00257478
0.000340019
3.01596e-05
1.94841e-06
7.7733e-08
1.95332e-09
0.999954
0.999986
0.999997
0.999997
0.999998
0.999969
0.999975
0.999979
0.999646
0.989768
0.951263
0.785862
0.291669
0.180647
0.0652897
0.0282894
0.0162845
0.0147536
0.00930567
0.00273421
0.000324856
1.2707e-05
1.48024e-07
0.999071
0.999752
0.99995
0.999964
0.999972
0.9997
0.999618
0.999727
0.996533
0.932512
0.77525
0.72578
0.243721
0.0411401
0.00875289
0.0012056
0.000307521
0.00070963
0.00148407
0.000663524
5.65954e-05
1.29836e-06
9.66612e-09
0.985899
0.996343
0.99932
0.999635
0.999707
0.997628
0.99545
0.996958
0.969133
0.670862
0.368087
0.696174
0.186468
0.0424824
0.00698984
0.000908943
5.16379e-05
8.43509e-05
0.000192053
9.81342e-05
6.7663e-06
1.01733e-07
5.3382e-10
0.865477
0.962604
0.992824
0.996796
0.997429
0.981262
0.968831
0.972937
0.775491
0.253122
0.102011
0.542921
0.124175
0.0206581
0.00494612
0.000540284
9.29801e-06
9.35437e-06
2.43353e-05
9.33282e-06
5.18818e-07
5.88941e-09
2.43274e-11
0.419603
0.801905
0.951038
0.971172
0.980937
0.882699
0.841891
0.908015
0.58384
0.155903
0.0409928
0.256498
0.0381347
0.00322725
0.000490915
3.99089e-05
1.0447e-06
1.01935e-06
1.8118e-06
5.29158e-07
2.7493e-08
2.57175e-10
9.20874e-13
0.118292
0.580786
0.674685
0.720259
0.772677
0.540946
0.543247
0.714075
0.493261
0.147178
0.017989
0.0320314
0.00160412
0.00069072
0.000525278
0.000126042
2.53564e-06
7.49209e-08
2.49876e-08
2.25569e-08
1.04739e-09
8.69821e-12
2.96985e-14
0.0418271
0.222642
0.179813
0.201127
0.159472
0.207759
0.142647
0.311894
0.122615
0.0147214
0.00218187
0.00186956
0.000153906
2.01264e-05
2.02685e-05
3.60421e-05
9.00822e-07
7.92249e-09
1.00965e-09
6.44497e-10
2.2768e-11
2.12996e-13
7.21645e-16
0.0186251
0.0312292
0.020822
0.00566006
0.0180611
0.0798567
0.0353061
0.0954996
0.0449606
0.00644376
0.000461205
2.46263e-05
2.24532e-06
1.13359e-06
3.14712e-06
3.49604e-06
4.5155e-08
6.76985e-10
2.8112e-11
1.40958e-11
5.47395e-13
3.38618e-15
5.55112e-16
0.00712337
0.000783588
0.00049523
0.000173073
0.000547495
0.0143548
0.00773978
0.00138916
0.0103532
0.00203711
0.000181451
5.75409e-06
1.73879e-07
1.12547e-08
1.16493e-08
2.4652e-09
1.13873e-09
7.88847e-12
5.02487e-13
2.22322e-13
1.04916e-14
0
5.55112e-16
0.00271162
0.000194394
3.60503e-05
1.12312e-05
0.000107035
0.00170361
0.00129665
0
0.00110932
0.000298655
6.22811e-05
4.78417e-06
1.58e-08
1.84581e-10
1.44966e-11
1.25355e-12
1.6448e-13
9.11493e-14
7.66054e-15
3.33067e-15
1.16573e-15
0
8.32667e-16
0.000414498
7.23253e-05
3.93746e-06
5.62635e-07
1.18015e-06
2.69396e-05
9.03684e-05
5.63108e-06
3.10089e-05
1.0547e-06
2.30418e-08
2.73014e-09
1.5849e-10
9.65616e-13
6.63913e-14
3.83027e-15
1.16573e-15
1.60982e-15
2.10942e-15
8.32667e-16
2.10942e-15
2.77556e-16
5.55112e-16
1.31399e-05
1.4606e-06
1.1013e-07
1.91704e-08
4.78014e-09
3.43424e-08
7.33483e-07
4.68207e-09
1.39441e-09
5.49276e-11
4.97963e-12
1.85436e-11
7.69718e-13
5.77316e-15
1.16573e-15
1.88738e-15
1.60982e-15
1.22125e-15
1.05471e-15
1.83187e-15
1.22125e-15
0
7.77156e-16
1.61828e-07
2.23883e-08
2.77739e-09
5.06384e-10
6.57181e-11
1.61743e-11
1.91319e-10
2.77856e-12
6.80567e-14
3.38618e-15
8.10463e-15
3.77476e-14
2.05391e-15
1.11022e-15
1.66533e-15
4.996e-16
1.88738e-15
2.44249e-15
1.55431e-15
1.05471e-15
1.05471e-15
1.27676e-15
9.99201e-16
1.2857e-09
3.39348e-10
5.27625e-11
9.77091e-12
9.60509e-13
8.08242e-14
1.38778e-14
8.32667e-16
1.22125e-15
1.60982e-15
1.33227e-15
1.16573e-15
4.44089e-16
1.44329e-15
1.66533e-15
8.88178e-16
3.33067e-16
1.83187e-15
1.33227e-15
8.32667e-16
1.9984e-15
1.66533e-16
1.11022e-16
8.53134e-12
3.90571e-12
7.17537e-13
1.33782e-13
1.28786e-14
2.22045e-15
4.44089e-16
8.88178e-16
1.22125e-15
1.94289e-15
0
1.33227e-15
9.99201e-16
8.88178e-16
0
7.21645e-16
0
8.32667e-16
8.32667e-16
1.4988e-15
7.21645e-16
0
1.11022e-15
5.87863e-14
3.58602e-14
8.04912e-15
2.88658e-15
1.72085e-15
1.11022e-15
1.66533e-16
9.4369e-16
2.83107e-15
2.77556e-15
1.77636e-15
3.33067e-16
1.11022e-15
1.16573e-15
3.33067e-16
1.83187e-15
1.27676e-15
9.4369e-16
8.88178e-16
1.27676e-15
8.88178e-16
3.88578e-16
6.10623e-16
9.99201e-16
5.55112e-16
2.33147e-15
2.05391e-15
2.94209e-15
1.94289e-15
1.55431e-15
1.4988e-15
2.16493e-15
2.66454e-15
8.88178e-16
7.21645e-16
1.9984e-15
1.11022e-15
1.72085e-15
2.33147e-15
0
1.22125e-15
1.72085e-15
7.21645e-16
1.11022e-16
0
2.22045e-15
0
7.21645e-16
3.10862e-15
1.22125e-15
6.10623e-16
1.60982e-15
7.21645e-16
1.33227e-15
3.05311e-15
6.66134e-16
1.94289e-15
1.66533e-15
2.16493e-15
2.05391e-15
9.4369e-16
1.38778e-15
2.05391e-15
3.33067e-16
2.38698e-15
1.05471e-15
2.10942e-15
0
1.16573e-15
1.77636e-15
7.77156e-16
1.88738e-15
1.27676e-15
7.21645e-16
1.11022e-16
1.4988e-15
1.16573e-15
2.60902e-15
1.38778e-15
1.33227e-15
1.44329e-15
1.88738e-15
1.27676e-15
9.4369e-16
8.32667e-16
1.11022e-16
1.16573e-15
0
1.72085e-15
8.88178e-16
0
0
0
0
2.05391e-15
1.72085e-15
0
8.32667e-16
9.99201e-16
2.10942e-15
1.77636e-15
1.88738e-15
1.38778e-15
2.05391e-15
6.10623e-16
1.22125e-15
1.27676e-15
8.88178e-16
1.4988e-15
2.22045e-15
1.77636e-15
5.55112e-16
1.9984e-15
2.22045e-16
0
0
1.66533e-16
1.22125e-15
1.16573e-15
7.77156e-16
1.55431e-15
2.72005e-15
1.60982e-15
0
1.33227e-15
1.33227e-15
8.88178e-16
2.22045e-16
1.60982e-15
7.21645e-16
1.33227e-15
1.11022e-15
1.11022e-15
9.99201e-16
9.99201e-16
1.27676e-15
6.66134e-16
0
0
0
2.10942e-15
3.05311e-15
1.72085e-15
1.44329e-15
2.60902e-15
2.77556e-15
1.94289e-15
1.55431e-15
1.4988e-15
7.21645e-16
3.88578e-16
0
0
1.66533e-16
2.77556e-16
8.88178e-16
7.21645e-16
6.10623e-16
3.33067e-16
0
1.22125e-15
9.4369e-16
9.99201e-16
1.44329e-15
1.60982e-15
1.88738e-15
2.66454e-15
1.77636e-15
1.55431e-15
7.21645e-16
2.10942e-15
7.21645e-16
1.55431e-15
1.38778e-15
8.32667e-16
1.94289e-15
1.83187e-15
3.05311e-15
1.94289e-15
2.10942e-15
7.77156e-16
7.21645e-16
0
3.88578e-16
8.88178e-16
0
1.44329e-15
1.16573e-15
1.9984e-15
8.32667e-16
2.22045e-16
2.05391e-15
1.44329e-15
2.10942e-15
1.66533e-15
9.4369e-16
1.60982e-15
1.66533e-15
6.66134e-16
9.99201e-16
1.83187e-15
9.4369e-16
0
7.77156e-16
2.77556e-16
0
2.77556e-16
6.66134e-16
0
8.88178e-16
7.21645e-16
1.55431e-15
2.77556e-16
8.32667e-16
4.996e-16
1.77636e-15
2.05391e-15
1.60982e-15
7.77156e-16
2.10942e-15
7.21645e-16
1.27676e-15
1.94289e-15
6.10623e-16
2.77556e-15
1.66533e-15
1.88738e-15
2.22045e-16
1.66533e-16
4.44089e-16
9.4369e-16
6.10623e-16
1.27676e-15
2.88658e-15
1.72085e-15
8.88178e-16
1.60982e-15
7.21645e-16
1.94289e-15
2.55351e-15
6.66134e-16
1.11022e-15
1.27676e-15
8.32667e-16
1.66533e-15
5.55112e-16
1.33227e-15
1.27676e-15
9.99201e-16
2.10942e-15
1.44329e-15
6.66134e-16
5.55112e-16
1.05471e-15
8.32667e-16
1.55431e-15
7.77156e-16
0
1.83187e-15
8.88178e-16
9.4369e-16
2.9976e-15
2.55351e-15
1.66533e-15
2.44249e-15
1.77636e-15
1.16573e-15
1.11022e-16
7.77156e-16
1.77636e-15
1.05471e-15
2.16493e-15
2.27596e-15
1.11022e-15
2.77556e-16
0
1.11022e-16
6.10623e-16
6.10623e-16
7.77156e-16
9.4369e-16
7.77156e-16
1.11022e-16
6.66134e-16
5.55112e-16
1.38778e-15
0
8.32667e-16
5.55112e-16
9.99201e-16
8.32667e-16
6.10623e-16
8.88178e-16
1.27676e-15
1.33227e-15
2.77556e-16
2.05391e-15
1.05471e-15
0
1.94289e-15
8.88178e-16
5.55112e-17
0
0
0
0
0
0
3.88578e-16
5.55112e-17
0
0
0
0
0
0
2.22045e-16
0
0
1.66533e-16
4.996e-16
6.66134e-16
2.52568e-08
2.31023e-09
1.76745e-10
1.26001e-11
3.6062e-09
4.12665e-10
3.85154e-11
3.10474e-12
2.26709e-10
2.68494e-11
2.52581e-12
1.96676e-13
1.02337e-11
1.26515e-12
1.25622e-13
1.04916e-14
4.93328e-13
6.30607e-14
6.82787e-15
0
6.7002e-14
6.82787e-15
8.88178e-16
6.66134e-16
1.4877e-14
2.77556e-15
7.21645e-16
0
1.26565e-13
7.66054e-15
1.66533e-16
4.996e-16
1.46083e-12
7.36633e-14
3.10862e-15
5.55112e-17
2.15161e-12
1.20404e-13
5.05151e-15
9.99201e-16
1.29541e-12
7.54952e-14
3.21965e-15
3.33067e-16
1.47765e-12
6.97775e-14
2.83107e-15
5.55112e-16
4.42962e-11
1.27354e-12
3.18634e-14
1.77636e-15
1.23652e-09
1.20388e-11
1.02363e-13
1.55431e-15
6.59951e-11
9.73388e-13
6.43929e-15
1.66533e-16
3.14271e-12
3.64153e-14
0
1.44329e-15
1.29452e-13
2.44249e-15
0
1.33227e-15
4.66294e-15
5.55112e-16
0
0
8.32667e-16
7.77156e-16
5.55112e-17
3.33067e-16
1.11022e-15
0
0
5.55112e-17
1.66533e-15
1.05471e-15
9.4369e-16
1.38778e-15
9.4369e-16
7.77156e-16
0
1.05471e-15
1.11022e-16
1.11022e-15
0
4.996e-16
0
1.38778e-15
4.996e-16
1.4988e-15
2.10942e-15
5.55112e-16
0
7.21645e-16
6.10623e-16
7.21645e-16
0
1.11022e-16
5.55112e-16
9.99201e-16
0
2.77556e-16
1.22125e-15
1.11022e-16
0
8.88178e-16
2.16493e-15
2.05391e-15
0
7.77156e-16
9.4369e-16
3.33067e-16
0
7.77156e-16
0
9.4369e-16
0
1.4988e-15
1.22125e-15
1.27676e-15
1.11022e-16
3.33067e-16
1.66533e-15
1.27676e-15
9.4369e-16
1.77636e-15
0
1.66533e-15
0
1.05471e-15
4.44089e-16
1.60982e-15
0
0
9.4369e-16
3.88578e-16
0
1.66533e-16
1.4988e-15
1.83187e-15
0
7.21645e-16
1.83187e-15
1.94289e-15
0
8.88178e-16
8.88178e-16
2.77556e-16
0
1.4988e-15
0
2.22045e-16
0
1.60982e-15
9.99201e-16
3.33067e-16
0
6.66134e-16
1.88738e-15
0
9.99201e-16
1.11022e-16
5.34128e-13
9.76996e-15
0
0
7.77156e-16
8.32667e-16
1.55431e-15
3.88578e-16
3.88578e-16
0
0
3.88578e-16
0
0
0
0
0
9.4369e-16
3.88578e-16
1.34948e-13
3.05311e-15
4.996e-16
1.11022e-16
0
0
3.33067e-16
9.4369e-16
1.66533e-16
4.44089e-16
7.77156e-16
7.77156e-16
2.22045e-16
1.16573e-15
6.10623e-16
0
7.21645e-16
4.44089e-16
0
7.88258e-15
1.11022e-16
2.77556e-16
0
0
1.66533e-15
1.11022e-15
9.99201e-16
8.32667e-16
1.11022e-15
1.55431e-15
0
1.66533e-16
3.88578e-16
1.44329e-15
7.77156e-16
1.4988e-15
3.33067e-16
9.99201e-16
3.88578e-16
0
4.44089e-16
9.4369e-16
1.05471e-15
0
0
4.44089e-16
5.55112e-16
5.55112e-16
2.44249e-15
0
1.11022e-15
1.4988e-15
9.4369e-16
1.94289e-15
6.10623e-16
1.05471e-15
1.4988e-15
1.11022e-15
0
2.22045e-16
1.33227e-15
6.66134e-16
7.77156e-16
6.10623e-16
4.996e-16
9.4369e-16
4.44089e-16
8.88178e-16
3.88578e-16
4.996e-16
1.66533e-15
1.22125e-15
1.16573e-15
1.11022e-15
6.66134e-16
9.4369e-16
4.996e-16
0
5.55112e-17
2.38698e-15
6.66134e-16
6.10623e-16
7.77156e-16
8.32667e-16
9.99201e-16
1.55431e-15
1.16573e-15
1.77636e-15
1.66533e-16
6.66134e-16
6.66134e-16
2.10942e-15
1.83187e-15
1.66533e-16
6.10623e-16
1.66533e-16
5.55112e-17
0
9.99201e-16
1.16573e-15
1.16573e-15
1.4988e-15
1.11022e-15
1.38778e-15
1.66533e-15
6.10623e-16
1.72085e-15
6.10623e-16
3.88578e-16
3.33067e-16
1.94289e-15
1.27676e-15
0
5.55112e-16
0
0
0
0
4.44089e-16
1.11022e-15
1.55431e-15
2.66454e-15
2.22045e-16
1.55431e-15
1.38778e-15
1.4988e-15
9.4369e-16
5.55112e-17
1.83187e-15
6.66134e-16
2.38698e-15
0
1.05471e-15
1.55431e-15
1.11022e-16
1.55431e-15
1.33227e-15
1.11022e-15
9.99201e-16
5.55112e-16
7.77156e-16
1.77636e-15
1.22125e-15
7.21645e-16
1.55431e-15
0
6.66134e-16
1.16573e-15
0
2.94209e-15
0
1.38778e-15
1.05471e-15
0
1.66533e-16
7.77156e-16
8.32667e-16
1.11022e-15
6.10623e-16
1.55431e-15
1.83187e-15
1.55431e-15
1.05471e-15
2.72005e-15
2.33147e-15
2.22045e-16
1.27676e-15
1.27676e-15
0
2.22045e-16
0
2.22045e-16
0
8.32667e-16
1.60982e-15
7.77156e-16
8.88178e-16
6.10623e-16
1.94289e-15
5.55112e-16
1.22125e-15
1.44329e-15
4.996e-16
1.16573e-15
8.32667e-16
2.94209e-15
1.05471e-15
8.32667e-16
0
0
3.33067e-16
0
9.99201e-16
8.32667e-16
9.4369e-16
1.4988e-15
7.77156e-16
1.33227e-15
1.16573e-15
6.10623e-16
1.05471e-15
1.11022e-15
1.55431e-15
1.11022e-15
1.83187e-15
6.66134e-16
9.99201e-16
0
1.11022e-15
6.10623e-16
0
1.66533e-16
6.66134e-16
4.996e-16
1.27676e-15
4.996e-16
6.66134e-16
1.88738e-15
1.77636e-15
1.11022e-15
1.44329e-15
1.16573e-15
1.11022e-15
2.66454e-15
1.83187e-15
1.60982e-15
0
1.66533e-16
1.38778e-15
0
0
8.32667e-16
1.38778e-15
8.32667e-16
0
8.88178e-16
2.9976e-15
1.4988e-15
1.11022e-15
1.83187e-15
2.55351e-15
1.4988e-15
9.99201e-16
6.10623e-16
0
0
6.10623e-16
0
0
6.66134e-16
0
2.16493e-15
1.4988e-15
7.21645e-16
2.72005e-15
9.99201e-16
2.22045e-16
8.32667e-16
1.05471e-15
9.4369e-16
7.77156e-16
1.05471e-15
0
1.11022e-15
0
1.33227e-15
0
0
3.88578e-16
8.32667e-16
4.996e-16
1.9984e-15
9.4369e-16
1.94289e-15
5.55112e-16
0
2.38698e-15
7.77156e-16
2.44249e-15
1.38778e-15
1.77636e-15
1.11022e-16
1.55431e-15
0
7.21645e-16
0
0
0
7.77156e-16
1.66533e-16
9.4369e-16
2.77556e-16
1.22125e-15
1.60982e-15
1.55431e-15
9.4369e-16
0
1.11022e-15
6.10623e-16
1.55431e-15
6.10623e-16
8.88178e-16
0
1.94289e-15
6.10623e-16
6.66134e-16
3.05311e-15
6.10623e-16
1.88738e-15
0
0
6.10623e-16
1.11022e-15
1.11022e-15
1.77636e-15
1.27676e-15
1.05471e-15
1.55431e-15
9.4369e-16
6.10623e-16
7.77156e-16
5.55112e-17
1.33227e-15
0
0
9.99201e-16
1.4988e-15
0
0
2.22045e-16
3.88578e-16
1.38778e-15
1.16573e-15
1.94289e-15
1.05471e-15
1.77636e-15
1.55431e-15
5.55112e-16
6.10623e-16
1.77636e-15
9.99201e-16
1.88738e-15
2.22045e-16
0
1.05471e-15
1.9984e-15
4.44089e-16
1.4988e-15
1.88738e-15
7.21645e-16
1.16573e-15
1.83187e-15
1.4988e-15
1.60982e-15
6.66134e-16
7.77156e-16
0
1.94289e-15
8.88178e-16
3.88578e-16
1.88738e-15
1.66533e-16
7.21645e-16
2.33147e-15
1.60982e-15
1.77636e-15
1.27676e-15
4.996e-16
6.66134e-16
1.38778e-15
2.44249e-15
9.99201e-16
1.11022e-15
2.16493e-15
1.11022e-15
6.66134e-16
8.32667e-16
1.55431e-15
0
1.55431e-15
0
3.88578e-16
7.21645e-16
1.77636e-15
6.10623e-16
1.22125e-15
2.05391e-15
6.66134e-16
2.60902e-15
6.66134e-16
2.38698e-15
1.11022e-15
6.10623e-16
2.27596e-15
1.22125e-15
1.4988e-15
2.10942e-15
0
1.66533e-16
7.21645e-16
0
1.77636e-15
1.66533e-15
6.10623e-16
0
5.55112e-16
1.11022e-15
1.05471e-15
1.22125e-15
2.498e-15
9.4369e-16
1.16573e-15
1.33227e-15
8.32667e-16
1.16573e-15
2.22045e-15
5.55112e-17
1.16573e-15
6.10623e-16
0
1.66533e-15
5.55112e-16
1.11022e-16
4.44089e-16
1.94289e-15
0
2.22045e-16
1.05471e-15
8.88178e-16
6.10623e-16
6.10623e-16
2.22045e-16
1.55431e-15
6.10623e-16
1.05471e-15
7.21645e-16
1.05471e-15
4.44089e-16
6.10623e-16
2.498e-15
2.38698e-15
3.33067e-16
1.66533e-15
7.77156e-16
9.4369e-16
0
9.99201e-16
0
4.996e-16
9.4369e-16
1.55431e-15
6.66134e-16
1.05471e-15
7.21645e-16
8.32667e-16
1.16573e-15
2.22045e-16
2.77556e-16
1.11022e-15
1.27676e-15
7.21645e-16
1.55431e-15
1.60982e-15
7.77156e-16
9.4369e-16
9.99201e-16
0
1.27676e-15
2.22045e-15
1.88738e-15
0
1.4988e-15
1.16573e-15
1.11022e-15
9.4369e-16
0
0
1.16573e-15
1.33227e-15
7.77156e-16
2.38698e-15
0
1.66533e-16
6.66134e-16
1.55431e-15
8.88178e-16
1.16573e-15
6.10623e-16
1.88738e-15
1.33227e-15
6.66134e-16
7.77156e-16
0
4.996e-16
1.66533e-16
1.66533e-16
2.77556e-16
1.27676e-15
8.88178e-16
3.10862e-15
7.21645e-16
6.10623e-16
9.4369e-16
9.99201e-16
1.66533e-16
7.77156e-16
9.4369e-16
1.33227e-15
1.05471e-15
7.77156e-16
5.55112e-16
6.10623e-16
8.32667e-16
1.66533e-16
0
0
5.55112e-17
1.05471e-15
2.38698e-15
1.05471e-15
1.4988e-15
2.88658e-15
5.55112e-16
1.11022e-15
2.22045e-15
1.22125e-15
1.05471e-15
1.16573e-15
1.33227e-15
6.66134e-16
1.33227e-15
9.4369e-16
0
0
6.10623e-16
1.44329e-15
0
1.11022e-15
2.22045e-16
1.38778e-15
1.38778e-15
1.05471e-15
1.11022e-15
1.33227e-15
6.66134e-16
1.05471e-15
8.88178e-16
1.22125e-15
1.38778e-15
0
1.83187e-15
3.88578e-16
0
2.77556e-15
2.27596e-15
9.99201e-16
1.33227e-15
0
7.21645e-16
9.4369e-16
1.77636e-15
1.83187e-15
6.10623e-16
1.4988e-15
5.55112e-16
1.16573e-15
9.4369e-16
1.55431e-15
0
1.22125e-15
0
0
1.94289e-15
1.9984e-15
1.16573e-15
2.94209e-15
3.88578e-16
9.99201e-16
6.10623e-16
1.22125e-15
2.22045e-16
9.4369e-16
1.72085e-15
1.60982e-15
1.60982e-15
2.22045e-16
0
0
8.88178e-16
0
0
2.10942e-15
1.11022e-15
8.88178e-16
7.77156e-16
0
1.66533e-15
6.66134e-16
8.88178e-16
1.66533e-16
1.05471e-15
8.88178e-16
4.996e-16
1.44329e-15
1.33227e-15
2.27596e-15
2.22045e-16
9.4369e-16
1.60982e-15
0
1.38778e-15
1.16573e-15
0
2.60902e-15
7.77156e-16
1.4988e-15
4.44089e-16
2.22045e-16
2.33147e-15
2.33147e-15
1.22125e-15
2.05391e-15
2.22045e-15
2.16493e-15
1.33227e-15
2.22045e-16
1.4988e-15
0
0
4.996e-16
1.88738e-15
0
0
5.55112e-16
3.33067e-16
3.33067e-16
7.77156e-16
2.60902e-15
6.10623e-16
1.88738e-15
1.05471e-15
7.77156e-16
6.66134e-16
2.66454e-15
0
7.21645e-16
9.4369e-16
0
7.77156e-16
1.05471e-15
6.66134e-16
1.72085e-15
0
1.44329e-15
3.05311e-15
1.16573e-15
2.22045e-16
1.05471e-15
1.4988e-15
1.66533e-16
2.38698e-15
1.55431e-15
1.60982e-15
1.22125e-15
3.33067e-16
1.33227e-15
0
6.66134e-16
6.10623e-16
7.77156e-16
1.55431e-15
3.88578e-16
1.4988e-15
4.44089e-16
2.10942e-15
1.33227e-15
7.21645e-16
1.83187e-15
1.05471e-15
6.66134e-16
3.88578e-16
9.99201e-16
0
1.11022e-15
5.55112e-16
0
7.77156e-16
1.55431e-15
6.10623e-16
2.44249e-15
1.05471e-15
1.94289e-15
0
1.27676e-15
1.05471e-15
1.16573e-15
0
1.44329e-15
1.11022e-15
1.16573e-15
0
0
0
0
0
1.27676e-15
0
1.72085e-15
1.77636e-15
9.99201e-16
7.21645e-16
0
6.10623e-16
1.16573e-15
1.16573e-15
5.55112e-16
1.05471e-15
3.88578e-16
1.05471e-15
1.11022e-16
0
1.33227e-15
7.77156e-16
0
2.22045e-15
1.22125e-15
1.55431e-15
6.66134e-16
4.996e-16
6.66134e-16
1.94289e-15
5.55112e-16
1.16573e-15
5.55112e-17
2.72005e-15
1.55431e-15
1.88738e-15
1.16573e-15
2.38698e-15
0
1.66533e-15
0
1.4988e-15
6.10623e-16
3.33067e-16
8.88178e-16
4.44089e-16
0
2.22045e-16
9.4369e-16
3.88578e-16
1.11022e-15
6.10623e-16
2.44249e-15
0
2.77556e-16
9.4369e-16
1.16573e-15
0
0
1.66533e-16
2.22045e-16
1.4988e-15
1.94289e-15
1.55431e-15
8.88178e-16
6.10623e-16
1.94289e-15
6.10623e-16
2.05391e-15
9.99201e-16
1.38778e-15
7.77156e-16
1.44329e-15
1.66533e-16
1.60982e-15
2.33147e-15
4.44089e-16
0
)
;

boundaryField
{
    leftWall
    {
        type            zeroGradient;
    }
    rightWall
    {
        type            zeroGradient;
    }
    lowerWall
    {
        type            zeroGradient;
    }
    atmosphere
    {
        type            inletOutlet;
        inletValue      uniform 0;
        value           nonuniform List<scalar> 
46
(
1.94289e-15
8.88178e-16
5.55112e-17
0
0
0
0
0
0
3.88578e-16
5.55112e-17
0
0
0
0
0
0
2.22045e-16
0
0
1.66533e-16
4.996e-16
6.66134e-16
1.88738e-15
0
9.99201e-16
1.11022e-16
1.66533e-16
2.22045e-16
1.4988e-15
1.94289e-15
1.55431e-15
8.88178e-16
6.10623e-16
1.94289e-15
6.10623e-16
2.05391e-15
9.99201e-16
1.38778e-15
7.77156e-16
1.44329e-15
1.66533e-16
1.60982e-15
2.33147e-15
4.44089e-16
0
)
;
    }
    defaultFaces
    {
        type            empty;
    }
}


// ************************************************************************* //
