/*--------------------------------*- C++ -*----------------------------------*\
| =========                 |                                                 |
| \\      /  F ield         | foam-extend: Open Source CFD                    |
|  \\    /   O peration     | Version:     4.1                                |
|   \\  /    A nd           | Web:         http://www.foam-extend.org         |
|    \\/     M anipulation  |                                                 |
\*---------------------------------------------------------------------------*/
FoamFile
{
    version     2.0;
    format      ascii;
    class       volScalarField;
    location    "0.1";
    object      p;
}
// * * * * * * * * * * * * * * * * * * * * * * * * * * * * * * * * * * * * * //

dimensions      [1 -1 -2 0 0 0 0];

internalField   nonuniform List<scalar> 
2268
(
1709.49
1709.21
1693.14
1670.79
1630.75
1579.89
1500.09
1419.96
1308.22
1105.68
1056.13
838.62
845.794
1622.54
1388.73
324.46
69.633
19.1217
8.18065
9.6864
7.92373
7.17141
7.49997
1651.31
1650.65
1634.88
1611.64
1572.78
1522.42
1440.87
1363.65
1252.94
1047.07
990.685
825.993
621.432
1373.27
1345.97
453.847
151.901
48.1034
16.5543
11.6409
7.16005
6.64961
7.22518
1593.77
1592.42
1577.14
1553.76
1515.76
1466.58
1389.09
1311.55
1202.63
1034.95
950.337
756.085
442.498
723.681
1561.62
951.835
277.294
65.0242
35.3926
16.6916
5.37305
5.4607
7.78834
1537.38
1534.58
1519.8
1496.86
1459.16
1411.35
1323.38
1261.46
1149.62
1002.9
911.559
696.406
919.931
881.417
1487.56
445.601
27.5299
2.54312
0.868648
-1.03231
0.0596583
3.29951
6.59199
1480.33
1476.93
1462.8
1440.32
1403.6
1356.63
1270.33
1219.21
1099.78
981.588
837.217
948.619
1305.69
724.993
504.763
12.0074
4.75973
1.8684
0.497802
-1.95405
-1.78097
1.08463
4.33667
1428.63
1419.76
1406.33
1384.42
1348.82
1302.61
1200.11
1176
1034.65
979.182
772.695
929.133
439.34
-10.1486
0.380273
5.33782
3.8653
2.29536
0.725166
-1.50572
-1.56257
0.31661
2.45002
1366.43
1361.72
1349.8
1328.91
1295.4
1251.81
1167.91
1128.38
981.285
928.853
779.273
785.968
395.652
-12.3821
25.3309
9.45673
3.29078
2.10551
0.771557
-0.817071
-0.772251
0.481869
1.50096
1305.16
1306.72
1294.65
1275.37
1244.03
1201.62
1106.19
1103.87
962.421
892.13
728.055
794.609
380.845
245.667
200.929
24.8803
3.30707
1.77356
0.852727
-0.160625
-0.0551668
0.713453
1.41171
1.10402
1.10679
1.0856
1.05927
1.02973
1.00183
0.973103
0.946167
0.918338
0.893553
0.864166
0.840047
0.816143
0.77403
0.750931
0.732928
0.720641
0.712631
0.708772
1.04644
1.05456
1.02752
1.00096
0.97116
0.942795
0.91375
0.886913
0.859064
0.834609
0.807485
0.7939
0.746543
0.714932
0.691501
0.673761
0.661525
0.653552
0.649705
0.989662
0.994608
0.970256
0.943001
0.912783
0.883827
0.854957
0.827303
0.799017
0.773738
0.745625
0.730913
0.684092
0.654887
0.631608
0.614228
0.602093
0.594196
0.590379
0.934186
0.939819
0.914862
0.885038
0.854347
0.824127
0.793805
0.767173
0.738307
0.711993
0.696475
0.658361
0.621731
0.593745
0.571299
0.554363
0.542394
0.534604
0.530828
0.880163
0.888652
0.860745
0.82729
0.796183
0.765293
0.733001
0.707458
0.675202
0.64895
0.632748
0.592071
0.559075
0.532098
0.510661
0.494181
0.482432
0.474774
0.471052
0.83292
0.838119
0.808268
0.769211
0.737345
0.703352
0.670662
0.645691
0.609864
0.594273
0.55776
0.525719
0.495713
0.47001
0.449672
0.433692
0.42221
0.414704
0.411047
0.764237
0.786569
0.755079
0.710099
0.677993
0.642626
0.607635
0.584674
0.542253
0.520782
0.490667
0.459266
0.432147
0.407626
0.388374
0.372917
0.361737
0.354402
0.350819
0.743647
0.730588
0.706249
0.64915
0.61687
0.578522
0.542354
0.526473
0.476797
0.453575
0.422191
0.393049
0.368698
0.344965
0.326814
0.31189
0.301033
0.293882
0.290379
1221.29
1213.57
1205.45
1186.85
1156.01
1119.28
1059.38
1016.95
919.114
848.903
748.674
647.196
1365.48
1452.58
621.166
26.3658
2.79737
1.32929
1.00287
0.610076
0.642932
0.922896
1.54926
1079.79
1102.68
1092.59
1076.73
1075.37
1027.94
978.556
946.069
876.99
817.425
726.542
1166.53
1189.52
444.28
33.3495
3.20561
1.65328
1.35437
1.14029
0.975509
0.996383
0.935316
0.915472
985.322
966.057
1008.09
987.745
967.339
933.094
890.033
869.143
814.371
753.139
655.762
924.333
959.111
73.3637
10.5456
3.52132
1.71751
1.38111
1.13985
0.883735
0.841815
0.877406
0.870053
875.862
881.448
860.302
876.209
836.784
865.985
834.962
809.507
760.539
676.356
619.638
1338.53
1349.28
371.315
29.0826
2.27673
1.21881
1.06524
0.871812
0.694088
0.595637
0.683702
0.634648
794.406
786.78
775.207
719.589
734.747
708.467
677.635
716.514
745.869
689.541
703.344
731.469
1489.91
917.315
59.029
-0.333251
0.694716
0.799488
0.584843
0.500202
0.411511
0.456152
0.398864
725.884
724.326
712.607
713.419
699.968
698.138
684.397
688.333
684.284
699.599
759.803
1018.06
1039.99
248.18
8.88922
-0.407016
-0.0894572
0.27224
0.332602
0.31111
0.276159
0.250848
0.192195
663.167
661.85
654.921
658.822
642.484
626.896
615.803
620.736
589.434
634.611
680.421
960.601
441.092
-6.45609
0.04362
-0.0916415
0.127142
0.144485
0.0840954
0.0747777
0.0411046
0.00887877
-0.0296169
608.401
605.904
609.599
596.405
594.481
641.825
628.146
580.275
570.768
581.149
601.87
1019.18
848.701
108.96
32.8061
0.979839
0.0735992
0.00883504
-0.16075
-0.125191
-0.182804
-0.214875
-0.235438
552.07
551.119
554.184
537.301
612.345
490.461
537.526
516.147
510.018
511.582
531.136
774.953
1571.89
656.621
99.9524
4.21166
-0.587124
-0.359893
-0.306049
-0.339405
-0.396525
-0.420817
-0.441694
497.121
494.086
498.174
494.985
510.065
480.096
470.598
452.3
434.413
379.704
373.515
575.666
1489.56
890.522
81.6994
1.38946
-0.819803
-0.603515
-0.575823
-0.58884
-0.618973
-0.637893
-0.655479
442.689
436.43
422.599
396.122
327.157
383.698
393.154
363.143
364.015
326.042
339.353
658.457
1459.77
425.285
6.74358
-0.872223
-0.780464
-0.643829
-0.702015
-0.772332
-0.826489
-0.852945
-0.869447
394.61
391.273
374.808
346.609
347.067
322.21
330.241
336.208
307.709
264.644
233.966
534.626
1565.84
829.561
91.7251
1.59272
-0.663981
-0.797265
-0.824396
-0.949424
-1.04173
-1.07681
-1.09034
357.129
361.651
355.024
422.084
309.667
393.221
316.771
319.754
281.413
229.599
207.147
262.318
1170.44
1487.92
364.899
35.8357
4.09696
-0.617768
-1.03017
-1.21839
-1.37782
-1.35962
-1.33505
312.151
308.412
306.967
297.657
342.549
257.462
230.352
132.466
239.862
165.648
223.354
841.692
1093.32
565.576
89.2578
13.1421
0.439006
2.26326
0.120408
-1.7702
-1.77003
-1.6361
-1.57358
271.947
261.508
251.594
248.179
237.704
213.06
142.899
93.2877
9.71268
199.747
788.634
962.463
853.548
44.2114
-4.65514
-5.53929
-4.75519
-4.23601
-4.97689
-3.25875
-2.39342
-2.02524
-1.84374
257.092
216.65
177.989
165.557
174.062
79.6354
176.075
83.7795
145.469
1090.92
1211.55
886.12
637.22
46.4071
-1.42193
-3.13831
-3.18589
-3.48034
-3.57354
-3.22318
-2.75588
-2.29381
-2.08925
577.05
213.698
160.084
104.931
87.0461
107.078
92.4928
115.657
680.473
863.227
220.315
1098.49
318.759
8.47817
-2.72983
-3.5093
-3.4038
-3.24757
-3.15813
-3.10831
-2.72111
-2.45665
-2.27849
1332.29
587.015
54.5676
-8.28415
-40.5235
298.292
437.706
169.899
1161.83
439.144
47.2396
814.519
30.7446
-3.77328
-3.87407
-3.52953
-3.27406
-3.34055
-3.352
-3.01945
-2.80309
-2.59647
-2.45171
306.626
1151.6
878.766
765.104
495.884
1432.45
1288.92
1038.01
1293.77
385.192
0.698662
21.3105
-4.82368
-3.99191
-3.81968
-3.65428
-3.48357
-3.39202
-3.10143
-3.05478
-3.00208
-2.76763
-2.62399
44.1987
737.438
535.169
607.467
458.792
716.009
413.829
1184.31
327.735
-1.7765
-5.39749
-4.64665
-3.93621
-3.87838
-3.62706
-3.64455
-3.68324
-3.48674
-3.32486
-3.15444
-2.97424
-2.88413
-2.78442
6.1631
23.0129
9.28534
-1.63516
4.25505
145.543
30.3813
200.009
46.78
-1.56104
-3.90842
-3.98386
-3.82943
-3.85661
-3.66592
-3.66718
-3.56193
-3.61677
-3.40356
-3.28218
-3.15142
-3.03128
-2.91586
-2.35336
-3.98635
-3.93062
-3.65505
-4.09523
1.0098
-2.85293
-3.41525
-1.18462
-3.80001
-4.04752
-3.99419
-3.91057
-3.78855
-3.87496
-3.7331
-3.66277
-3.57834
-3.47714
-3.37021
-3.25133
-3.14905
-3.05972
-3.76477
-3.97749
-3.89853
-3.74995
-3.84719
-3.91775
-3.99558
-3.87099
-4.00085
-3.90095
-3.96622
-3.92999
-3.80113
-3.81182
-3.89641
-3.80474
-3.74434
-3.68091
-3.55409
-3.44613
-3.36567
-3.27247
-3.20002
-3.99692
-3.91779
-3.86041
-3.88755
-3.80289
-3.95814
-3.97516
-3.92321
-3.912
-3.91574
-3.91411
-3.93469
-3.90746
-3.88279
-3.87228
-3.91391
-3.81491
-3.74472
-3.66115
-3.58061
-3.48899
-3.40575
-3.33094
-3.94824
-3.95707
-3.96385
-3.95161
-3.93231
-3.90445
-3.90466
-3.93709
-3.96487
-3.97098
-3.98375
-3.9789
-3.96678
-3.94597
-4.00953
-3.94924
-3.89258
-3.82602
-3.75464
-3.70042
-3.60783
-3.53862
-3.46411
-4.07048
-4.07662
-4.05805
-4.05211
-4.04112
-4.04391
-4.04672
-3.98859
-4.01063
-4.01752
-3.98211
-3.97276
-4.00085
-3.96861
-4.01616
-3.98043
-3.99312
-3.91634
-3.86286
-3.79161
-3.72526
-3.66123
-3.59583
-4.16476
-4.15836
-4.15606
-4.15172
-4.1449
-4.13961
-4.14168
-4.13138
-4.12863
-4.12354
-4.11579
-4.10626
-4.09616
-4.05983
-4.08165
-4.0341
-4.04335
-4.03916
-3.98173
-3.9122
-3.84916
-3.7898
-3.73073
-4.25698
-4.25606
-4.25421
-4.2522
-4.24663
-4.24209
-4.23605
-4.22361
-4.21678
-4.207
-4.19779
-4.19407
-4.18394
-4.16374
-4.17291
-4.13807
-4.12497
-4.08849
-4.10846
-4.02
-3.9722
-3.91654
-3.8634
-4.35845
-4.35758
-4.35297
-4.35353
-4.34942
-4.34729
-4.34201
-4.33374
-4.32834
-4.31969
-4.33695
-4.33875
-4.29539
-4.23591
-4.2607
-4.21098
-4.21028
-4.19506
-4.20842
-4.15272
-4.09402
-4.04643
-3.99924
-4.45937
-4.45904
-4.45346
-4.45372
-4.4477
-4.44155
-4.43831
-4.43323
-4.42752
-4.4175
-4.41171
-4.43802
-4.39465
-4.36871
-4.35409
-4.2882
-4.30149
-4.29078
-4.27581
-4.28151
-4.20707
-4.17438
-4.13309
-4.55991
-4.5594
-4.559
-4.56008
-4.55886
-4.58856
-4.58867
-4.54619
-4.53876
-4.53085
-4.55112
-4.52587
-4.50613
-4.47621
-4.42587
-4.44311
-4.3995
-4.40147
-4.38192
-4.3853
-4.3474
-4.29976
-4.2643
-4.66113
-4.66036
-4.65882
-4.65891
-4.65224
-4.6503
-4.64886
-4.64171
-4.65274
-4.62972
-4.62995
-4.62184
-4.60936
-4.58261
-4.55527
-4.53881
-4.49226
-4.49002
-4.49671
-4.47308
-4.47732
-4.41664
-4.39786
-4.76279
-4.76186
-4.76332
-4.76445
-4.76412
-4.77436
-4.7565
-4.72865
-4.71045
-4.70818
-4.72154
-4.70036
-4.72509
-4.68651
-4.66994
-4.62594
-4.63356
-4.60661
-4.60883
-4.58839
-4.59166
-4.55699
-4.52887
-4.8667
-4.86729
-4.86731
-4.86341
-4.85164
-4.83368
-4.83946
-4.84235
-4.83638
-4.85086
-4.83597
-4.83367
-4.83833
-4.80018
-4.78099
-4.75455
-4.74092
-4.70967
-4.70942
-4.70587
-4.6939
-4.68954
-4.6546
-4.96953
-4.97019
-4.97138
-4.96579
-4.95879
-4.96872
-4.96573
-4.98343
-4.96576
-4.95042
-4.93554
-4.92981
-4.93103
-4.90939
-4.88868
-4.86977
-4.83775
-4.8379
-4.82884
-4.81856
-4.80634
-4.78953
-4.78841
-5.07313
-5.07338
-5.07586
-5.07046
-5.09965
-5.07511
-5.06851
-5.05832
-5.07413
-5.06146
-5.04589
-5.03857
-5.03404
-5.01774
-5.00066
-4.98513
-4.96498
-4.95297
-4.93599
-4.93661
-4.92689
-4.91382
-4.92263
-5.17561
-5.17549
-5.17486
-5.17472
-5.16897
-5.17735
-5.16929
-5.16878
-5.16476
-5.1491
-5.13601
-5.14341
-5.14631
-5.14093
-5.11384
-5.09942
-5.08209
-5.06251
-5.06387
-5.05674
-5.05126
-5.0416
-5.04522
-5.2793
-5.27937
-5.27908
-5.27728
-5.27956
-5.27937
-5.27982
-5.27229
-5.27063
-5.28129
-5.26723
-5.25382
-5.24694
-5.23756
-5.22526
-5.21344
-5.20213
-5.181
-5.18404
-5.17853
-5.17372
-5.16529
-5.16931
-5.38367
-5.38377
-5.38235
-5.38351
-5.37925
-5.38085
-5.3841
-5.37561
-5.37039
-5.36136
-5.36619
-5.35754
-5.35595
-5.35004
-5.33923
-5.32911
-5.3193
-5.30826
-5.2978
-5.30114
-5.29506
-5.29076
-5.28466
-5.48826
-5.48806
-5.48537
-5.4794
-5.48107
-5.47104
-5.44687
-5.47275
-5.46981
-5.47379
-5.4726
-5.46323
-5.46051
-5.45945
-5.45279
-5.44592
-5.43924
-5.4303
-5.42148
-5.42398
-5.41888
-5.41632
-5.4116
-5.58473
-5.58583
-5.58353
-5.62487
-5.59828
-5.577
-5.57557
-5.57906
-5.57564
-5.57867
-5.57197
-5.57133
-5.56941
-5.56531
-5.56359
-5.55572
-5.55367
-5.54564
-5.54527
-5.54454
-5.54308
-5.54068
-5.54129
-5.73119
-5.72867
-5.71593
-5.68659
-5.6841
-5.70738
-5.70564
-5.67621
-5.70969
-5.67164
-5.70002
-5.67496
-5.67671
-5.69092
-5.6877
-5.68512
-5.68332
-5.67566
-5.66952
-5.66912
-5.66683
-5.66424
-5.66419
0.667608
0.63457
0.767213
0.736812
0.801158
0.800962
0.804391
0.773246
0.84117
0.774522
0.722189
0.670741
0.58617
0.551285
0.516443
0.482048
0.369956
0.349171
0.325199
0.302656
0.161197
0.14143
0.121804
0.100883
-0.0476024
-0.0616665
-0.0777577
-0.0941449
-0.252211
-0.265741
-0.279142
-0.292784
-0.458227
-0.469123
-0.479652
-0.490252
-0.667105
-0.674812
-0.682298
-0.689918
-0.876874
-0.881541
-0.885766
-0.89007
-1.0913
-1.09207
-1.09206
-1.09224
-1.3169
-1.30819
-1.30094
-1.29521
-1.53718
-1.52228
-1.50903
-1.49803
-1.77401
-1.73831
-1.71496
-1.69754
-1.99566
-1.94247
-1.92116
-1.89541
-2.19036
-2.14186
-2.10184
-2.07174
-2.36851
-2.32259
-2.2823
-2.25267
-2.53866
-2.49519
-2.43179
-2.42002
-2.71332
-2.67857
-2.64123
-2.60425
-2.84108
-2.8017
-2.76659
-2.73483
-2.99349
-2.95648
-2.9219
-2.89089
-3.1141
-3.07968
-3.06762
-3.04118
-3.2816
-3.24821
-3.19306
-3.15907
-3.42746
-3.4246
-3.38805
-3.3609
-3.55814
-3.53221
-3.53314
-3.49922
-3.71936
-3.68324
-3.663
-3.65951
-3.83643
-3.80153
-3.78845
-3.77287
-3.97068
-3.95225
-3.92411
-3.91809
-4.10434
-4.09917
-4.07814
-4.04995
-4.23835
-4.21516
-4.21786
-4.19822
-4.37087
-4.36458
-4.33628
-4.33549
-4.50485
-4.49069
-4.48645
-4.46727
-4.63516
-4.62348
-4.61054
-4.59849
-4.75918
-4.75489
-4.74561
-4.73562
-4.89891
-4.88926
-4.87934
-4.86844
-5.03089
-5.01492
-5.00963
-5.00025
-5.15385
-5.1481
-5.14089
-5.13404
-5.28584
-5.28042
-5.27201
-5.26601
-5.41369
-5.40593
-5.40192
-5.39745
-5.53575
-5.53327
-5.53018
-5.52476
-5.66368
-5.66103
-5.66062
-5.66122
0.732896
0.625487
0.628418
0.558365
0.522942
0.479566
0.441142
0.410255
0.372279
0.344312
0.31626
0.277538
0.26865
0.246395
0.230083
0.216054
0.20574
0.198898
0.195534
0.725409
0.525469
0.513379
0.430612
0.38769
0.338632
0.297289
0.264386
0.227089
0.201053
0.159163
0.151983
0.131529
0.113024
0.0976466
0.0847627
0.0751585
0.0687565
0.065598
0.621551
0.443425
0.376565
0.309913
0.248795
0.202482
0.158483
0.121165
0.0879427
0.042449
0.0365962
0.0119004
-0.0041786
-0.0213368
-0.0355351
-0.0473474
-0.0562554
-0.0622173
-0.0651668
0.424798
0.382177
0.237602
0.170214
0.0948841
0.0372396
-0.00925354
-0.0447586
-0.0747721
-0.080997
-0.106431
-0.123947
-0.140433
-0.156095
-0.169294
-0.18018
-0.188429
-0.193963
-0.196705
0.258651
0.231452
0.0960772
0.0288228
-0.0309851
-0.0820752
-0.125602
-0.161452
-0.193736
-0.221606
-0.242513
-0.260652
-0.27667
-0.291234
-0.303559
-0.313634
-0.321271
-0.326399
-0.328941
0.0646343
0.013519
-0.00896833
-0.120542
-0.177961
-0.229509
-0.273395
-0.308016
-0.338171
-0.359965
-0.380262
-0.397833
-0.413191
-0.426806
-0.43831
-0.44765
-0.454717
-0.45946
-0.46181
-0.120385
-0.161696
-0.176614
-0.272963
-0.326381
-0.373033
-0.415008
-0.447353
-0.476208
-0.498538
-0.518313
-0.535326
-0.55001
-0.562783
-0.573513
-0.582171
-0.588703
-0.593081
-0.595249
-0.315857
-0.347842
-0.384264
-0.395261
-0.479459
-0.517787
-0.558739
-0.588692
-0.616651
-0.638271
-0.656898
-0.673302
-0.687191
-0.699163
-0.709143
-0.717154
-0.723176
-0.727205
-0.729198
-0.50826
-0.53031
-0.559818
-0.567016
-0.639921
-0.666063
-0.706182
-0.732202
-0.758848
-0.778804
-0.795951
-0.811762
-0.824748
-0.83594
-0.845179
-0.852561
-0.858088
-0.86178
-0.863602
-0.702847
-0.720512
-0.741368
-0.764017
-0.775093
-0.822975
-0.854643
-0.874639
-0.90187
-0.920111
-0.93561
-0.950804
-0.962701
-0.973097
-0.981579
-0.988339
-0.99338
-0.996743
-0.9984
-0.89725
-0.90757
-0.922177
-0.934336
-0.961743
-0.96223
-1.00815
-1.02162
-1.04662
-1.06215
-1.07442
-1.09018
-1.10096
-1.11066
-1.11838
-1.12453
-1.12908
-1.13211
-1.1336
-1.09251
-1.09488
-1.10198
-1.11047
-1.12434
-1.14074
-1.1593
-1.15834
-1.19223
-1.20538
-1.21629
-1.23058
-1.23977
-1.24849
-1.25533
-1.26084
-1.26489
-1.2676
-1.26893
-1.28701
-1.28041
-1.27974
-1.28263
-1.29069
-1.2996
-1.31459
-1.32513
-1.33783
-1.34929
-1.34997
-1.37106
-1.3787
-1.38698
-1.39302
-1.39793
-1.40145
-1.40384
-1.405
-1.48057
-1.46448
-1.45586
-1.45293
-1.45487
-1.45997
-1.4679
-1.47414
-1.48605
-1.49641
-1.50363
-1.51266
-1.51859
-1.525
-1.53003
-1.53426
-1.53726
-1.53934
-1.54033
-1.67111
-1.64361
-1.62786
-1.62
-1.617
-1.62484
-1.62266
-1.62742
-1.63394
-1.64134
-1.64574
-1.65439
-1.65967
-1.66503
-1.66923
-1.67303
-1.67526
-1.677
-1.6778
-1.85477
-1.82121
-1.79764
-1.78651
-1.77939
-1.77168
-1.77612
-1.77756
-1.78244
-1.79207
-1.79128
-1.79756
-1.80132
-1.8052
-1.80825
-1.81139
-1.81315
-1.81469
-1.81535
-2.03461
-1.99457
-1.96726
-1.94738
-1.9381
-1.93299
-1.93076
-1.9254
-1.93039
-1.9324
-1.93561
-1.93997
-1.94317
-1.94604
-1.94834
-1.95265
-1.95219
-1.95351
-1.95382
-2.2125
-2.16289
-2.12697
-2.10939
-2.09751
-2.0855
-2.08253
-2.07826
-2.07826
-2.07721
-2.0807
-2.08281
-2.0871
-2.08637
-2.08768
-2.0898
-2.09087
-2.09189
-2.09227
-2.3825
-2.33132
-2.31118
-2.26522
-2.24568
-2.23909
-2.2328
-2.22659
-2.2249
-2.22463
-2.22426
-2.22516
-2.22471
-2.22734
-2.22836
-2.23016
-2.23073
-2.23137
-2.23169
-2.57354
-2.48929
-2.45484
-2.41252
-2.40469
-2.39416
-2.37976
-2.37374
-2.369
-2.3687
-2.3679
-2.36779
-2.3682
-2.36859
-2.36867
-2.36932
-2.36974
-2.37006
-2.37025
-2.69332
-2.64365
-2.60964
-2.57497
-2.55454
-2.53357
-2.52858
-2.52191
-2.51457
-2.51263
-2.51039
-2.51012
-2.50924
-2.50924
-2.50903
-2.5088
-2.50945
-2.50955
-2.50968
-2.84602
-2.79489
-2.75798
-2.72512
-2.70456
-2.68708
-2.67494
-2.66436
-2.65699
-2.65579
-2.65371
-2.65197
-2.65065
-2.64964
-2.64915
-2.64891
-2.64875
-2.64869
-2.64878
-2.99828
-2.94922
-2.90317
-2.87332
-2.85103
-2.83252
-2.82068
-2.80685
-2.80354
-2.79813
-2.7961
-2.79431
-2.79176
-2.79026
-2.78902
-2.78848
-2.78819
-2.78796
-2.78789
-3.11019
-3.09784
-3.05615
-3.02491
-2.99493
-2.97795
-2.9647
-2.95462
-2.94577
-2.94074
-2.93588
-2.93501
-2.93304
-2.92953
-2.92843
-2.92805
-2.92746
-2.92708
-2.92679
-3.31434
-3.21664
-3.16908
-3.17257
-3.14629
-3.12735
-3.10652
-3.09703
-3.08843
-3.08403
-3.07864
-3.07591
-3.07245
-3.06876
-3.06867
-3.06744
-3.067
-3.06604
-3.0659
-3.46612
-3.41688
-3.37721
-3.296
-3.26114
-3.27073
-3.25527
-3.24372
-3.2286
-3.22557
-3.21913
-3.2173
-3.21316
-3.20948
-3.20811
-3.20671
-3.20563
-3.20493
-3.20485
-3.63288
-3.60645
-3.53672
-3.49911
-3.46362
-3.39991
-3.3705
-3.39146
-3.37699
-3.369
-3.35903
-3.35778
-3.35297
-3.3488
-3.34844
-3.34632
-3.34455
-3.3439
-3.34446
-3.74921
-3.70462
-3.71605
-3.65434
-3.62454
-3.59087
-3.56727
-3.51025
-3.49201
-3.51597
-3.50889
-3.50192
-3.49243
-3.48644
-3.48908
-3.48585
-3.48373
-3.48354
-3.48567
-3.89283
-3.86017
-3.82408
-3.83622
-3.78234
-3.75525
-3.72728
-3.70405
-3.68584
-3.63433
-3.62235
-3.64694
-3.64137
-3.63276
-3.63142
-3.62471
-3.62173
-3.62176
-3.62565
-4.03351
-4.00064
-3.97863
-3.94731
-3.96139
-3.91422
-3.89429
-3.86826
-3.84873
-3.82958
-3.81197
-3.76438
-3.75353
-3.74801
-3.77899
-3.7714
-3.76821
-3.76715
-3.77158
-4.1726
-4.13764
-4.1179
-4.09935
-4.074
-4.08941
-4.05336
-4.03912
-4.01732
-3.99304
-3.97524
-3.96057
-3.94822
-3.92877
-3.90154
-3.8872
-3.88235
-3.88607
-3.90883
-4.28839
-4.27686
-4.25552
-4.23904
-4.22415
-4.20555
-4.21789
-4.20811
-4.18704
-4.16252
-4.14102
-4.1206
-4.10628
-4.09637
-4.09342
-4.08598
-4.07803
-4.06211
-4.04049
-4.44666
-4.39571
-4.39545
-4.379
-4.36741
-4.35722
-4.34275
-4.36211
-4.35747
-4.32871
-4.30681
-4.28666
-4.27129
-4.25863
-4.24751
-4.24016
-4.23531
-4.23235
-4.22935
-4.58451
-4.55914
-4.53756
-4.50789
-4.4976
-4.49641
-4.49257
-4.4871
-4.50991
-4.49447
-4.4661
-4.44795
-4.4332
-4.42126
-4.41078
-4.40284
-4.39647
-4.3912
-4.38744
-4.73239
-4.69864
-4.67894
-4.66218
-4.65758
-4.64262
-4.63831
-4.63512
-4.63664
-4.65092
-4.63507
-4.60883
-4.59397
-4.58138
-4.57161
-4.56437
-4.55891
-4.5546
-4.55204
-4.85803
-4.83165
-4.7945
-4.79946
-4.8089
-4.77064
-4.78198
-4.77997
-4.78187
-4.77251
-4.7669
-4.75706
-4.74746
-4.73793
-4.72978
-4.72347
-4.71869
-4.71527
-4.71339
-4.9886
-4.97136
-4.95372
-4.94398
-4.93199
-4.93726
-4.92462
-4.92596
-4.92542
-4.92598
-4.94319
-4.9228
-4.90552
-4.89566
-4.88747
-4.88175
-4.87751
-4.87462
-4.87311
-5.12433
-5.10956
-5.09452
-5.0885
-5.08347
-5.07589
-5.06931
-5.07041
-5.06762
-5.06695
-5.06121
-5.06288
-5.05391
-5.04852
-5.04279
-5.03847
-5.03516
-5.0329
-5.03175
-5.25699
-5.24471
-5.22979
-5.22939
-5.22383
-5.21005
-5.19145
-5.21356
-5.20985
-5.21238
-5.21476
-5.20988
-5.20521
-5.20133
-5.1974
-5.19422
-5.19176
-5.19009
-5.18924
-5.39022
-5.38057
-5.36464
-5.3539
-5.36643
-5.36566
-5.3622
-5.35827
-5.35672
-5.35575
-5.35683
-5.35854
-5.35931
-5.35603
-5.35373
-5.3516
-5.34994
-5.3488
-5.34821
-5.52697
-5.5191
-5.51324
-5.52072
-5.51678
-5.50873
-5.50428
-5.51031
-5.50917
-5.50896
-5.50913
-5.50467
-5.50119
-5.50042
-5.49907
-5.49817
-5.49731
-5.4967
-5.49639
-5.65442
-5.66417
-5.66097
-5.65536
-5.64328
-5.65994
-5.65726
-5.63433
-5.62994
-5.62957
-5.63607
-5.6596
-5.66946
-5.67267
-5.67364
-5.67419
-5.67431
-5.67439
-5.67436
)
;

boundaryField
{
    leftWall
    {
        type            calculated;
        value           nonuniform List<scalar> 
50
(
1709.49
1651.31
1593.77
1537.38
1480.33
1428.63
1366.43
1305.16
1221.29
1079.79
985.322
875.862
794.406
725.884
663.167
608.401
552.07
497.121
442.689
394.61
357.129
312.151
271.947
257.092
577.05
1332.29
306.626
44.1987
6.1631
-2.35336
-3.76477
-3.99692
-3.94824
-4.07048
-4.16476
-4.25698
-4.35845
-4.45937
-4.55991
-4.66113
-4.76279
-4.8667
-4.96953
-5.07313
-5.17561
-5.2793
-5.38367
-5.48826
-5.58473
-5.73119
)
;
    }
    rightWall
    {
        type            calculated;
        value           nonuniform List<scalar> 
50
(
0.708772
0.649705
0.590379
0.530828
0.471052
0.411047
0.350819
0.290379
0.195534
0.065598
-0.0651668
-0.196705
-0.328941
-0.46181
-0.595249
-0.729198
-0.863602
-0.9984
-1.1336
-1.26893
-1.405
-1.54033
-1.6778
-1.81535
-1.95382
-2.09227
-2.23169
-2.37025
-2.50968
-2.64878
-2.78789
-2.92679
-3.0659
-3.20485
-3.34446
-3.48567
-3.62565
-3.77158
-3.90883
-4.04049
-4.22935
-4.38744
-4.55204
-4.71339
-4.87311
-5.03175
-5.18924
-5.34821
-5.49639
-5.67436
)
;
    }
    lowerWall
    {
        type            calculated;
        value           nonuniform List<scalar> 
62
(
1738.92
1738.64
1722.56
1700.22
1660.18
1609.31
1529.52
1449.39
1337.65
1135.11
1085.54
867.663
872.253
1642.03
1398.37
328.191
71.1352
19.7693
8.47499
9.81182
7.97678
7.20348
7.52949
7.49997
7.22518
7.78834
6.59199
4.33667
2.45002
1.50096
1.41171
0.730207
0.697167
0.829811
0.799409
1.10402
1.04644
0.989662
0.934186
0.880163
0.83292
0.764237
0.743647
1.13345
1.13622
1.11503
1.0887
1.05916
1.03125
1.00253
0.975597
0.947768
0.922982
0.893595
0.869477
0.845573
0.803459
0.78036
0.762357
0.750071
0.742061
0.738202
)
;
    }
    atmosphere
    {
        type            calculated;
        value           nonuniform List<scalar> 
46
(
-5.74155
-5.74142
-5.74015
-5.73953
-5.73691
-5.73756
-5.7365
-5.73436
-5.73586
-5.73327
-5.73415
-5.73219
-5.73174
-5.73187
-5.73132
-5.73055
-5.72993
-5.72938
-5.72916
-5.72907
-5.72904
-5.72904
-5.72904
-5.72904
-5.72904
-5.72904
-5.72904
-5.72904
-5.72904
-5.72904
-5.72904
-5.72904
-5.72904
-5.72904
-5.72904
-5.72904
-5.72904
-5.72904
-5.72904
-5.72904
-5.72904
-5.72904
-5.72904
-5.72904
-5.72904
-5.72904
)
;
    }
    defaultFaces
    {
        type            empty;
    }
}


// ************************************************************************* //
