/*--------------------------------*- C++ -*----------------------------------*\
| =========                 |                                                 |
| \\      /  F ield         | foam-extend: Open Source CFD                    |
|  \\    /   O peration     | Version:     4.1                                |
|   \\  /    A nd           | Web:         http://www.foam-extend.org         |
|    \\/     M anipulation  |                                                 |
\*---------------------------------------------------------------------------*/
FoamFile
{
    version     2.0;
    format      ascii;
    class       volScalarField;
    location    "0.1";
    object      pd;
}
// * * * * * * * * * * * * * * * * * * * * * * * * * * * * * * * * * * * * * //

dimensions      [1 -1 -2 0 0 0 0];

internalField   nonuniform List<scalar> 
2268
(
1738.92
1738.64
1722.56
1700.22
1660.18
1609.31
1529.52
1449.39
1337.65
1135.11
1085.54
867.663
872.253
1642.03
1398.37
328.191
71.1352
19.7693
8.47499
9.81182
7.97678
7.20348
7.52949
1739.6
1738.94
1723.17
1699.93
1661.06
1610.7
1529.15
1451.94
1341.23
1135.36
1078.92
913.347
704.612
1436.64
1376.24
467.39
158.796
51.7903
18.4275
12.2933
7.34908
6.74626
7.31367
1740.91
1739.57
1724.29
1700.91
1662.91
1613.73
1536.23
1458.7
1349.78
1182.09
1097.39
901.341
582.921
847.56
1637.36
988.21
293.469
72.6076
40.6208
19.8058
6.6428
5.92887
7.9803
1743.39
1740.59
1725.8
1702.86
1665.17
1617.35
1529.38
1467.47
1355.62
1208.9
1117.41
892.728
1087.43
1033.03
1591.44
477.744
33.7336
4.37428
2.18242
0.673489
1.43624
3.93699
6.85613
1745.19
1741.8
1727.66
1705.18
1668.47
1621.5
1535.2
1484.07
1364.65
1246.45
1101.98
1185.43
1398.92
788.078
550.166
14.4161
5.2138
2.23285
0.92533
-1.244
-0.857199
1.68506
4.64149
1752.35
1743.48
1730.05
1708.14
1672.54
1626.33
1523.83
1499.73
1358.38
1302.9
1096.29
1211.44
489.504
-0.788925
5.66228
6.70839
4.45605
2.67426
1.10729
-1.03452
-0.947748
0.777539
2.78654
1749.01
1744.3
1732.38
1711.49
1677.98
1634.39
1550.49
1510.97
1363.87
1311.43
1161.7
1130.84
454.087
-1.39733
39.8983
16.4478
4.87418
2.58395
1.17985
-0.381907
-0.276552
0.910148
1.88717
1746.61
1748.16
1736.1
1716.81
1685.47
1643.06
1547.63
1545.31
1403.86
1333.57
1169.34
1188.56
447.069
297.188
247.071
39.2254
6.19577
2.41865
1.30346
0.293375
0.420012
1.16687
1.85404
1.13345
1.13622
1.11503
1.0887
1.05916
1.03125
1.00253
0.975597
0.947768
0.922982
0.893595
0.869477
0.845573
0.803459
0.78036
0.762357
0.750071
0.742061
0.738202
1.13472
1.14285
1.11581
1.08925
1.05945
1.03108
1.00204
0.975201
0.947352
0.922897
0.895773
0.882188
0.834831
0.80322
0.779789
0.762049
0.749813
0.74184
0.737993
1.13681
1.14175
1.1174
1.09015
1.05993
1.03097
1.0021
0.97445
0.946164
0.920884
0.892772
0.87806
0.831239
0.802034
0.778755
0.761374
0.74924
0.741343
0.737525
1.14019
1.14582
1.12087
1.09104
1.06035
1.03013
0.999811
0.973178
0.944313
0.917998
0.902481
0.864367
0.827737
0.799751
0.777304
0.760369
0.748399
0.740609
0.736834
1.14503
1.15352
1.12561
1.09215
1.06105
1.03016
0.997865
0.972322
0.940067
0.913814
0.897612
0.856935
0.823939
0.796962
0.775525
0.759045
0.747296
0.739638
0.735916
1.15664
1.16184
1.13199
1.09293
1.06107
1.02707
0.994385
0.969414
0.933587
0.917996
0.881483
0.849442
0.819436
0.793733
0.773395
0.757415
0.745933
0.738427
0.73477
1.14682
1.16915
1.13766
1.09268
1.06057
1.02521
0.990216
0.967256
0.924834
0.903364
0.873248
0.841847
0.814728
0.790208
0.770955
0.755499
0.744319
0.736984
0.7334
1.18509
1.17203
1.14769
1.09059
1.05831
1.01996
0.983794
0.967914
0.918238
0.895016
0.863631
0.834489
0.810139
0.786406
0.768255
0.753331
0.742474
0.735322
0.73182
1754.75
1747.04
1738.92
1720.32
1689.48
1652.74
1592.85
1550.42
1452.58
1382.37
1281.64
1150.63
1733.54
1743.52
729.516
44.6964
6.72067
2.17947
1.54111
1.14515
1.18211
1.45835
2.08289
1738.46
1761.34
1751.25
1735.4
1734.04
1686.6
1637.22
1604.73
1535.65
1476.08
1382.65
1701.83
1385.14
541.245
52.3061
5.90296
2.45583
2.02339
1.79946
1.63435
1.65555
1.59419
1.57415
1769.18
1749.91
1791.94
1771.6
1751.19
1716.95
1673.89
1653
1598.23
1536.98
1434.47
1612.87
1168.02
112.851
21.9779
6.92779
2.82217
2.18251
1.92418
1.66761
1.62569
1.66128
1.65391
1784.91
1790.5
1769.35
1785.26
1745.83
1775.04
1744.01
1718.56
1669.59
1585.37
1515.97
2047.63
1647.06
492.955
58.2631
9.30001
3.34195
2.08824
1.78534
1.60325
1.50469
1.59275
1.5437
1828.65
1821.03
1809.45
1753.83
1768.99
1742.71
1711.88
1750.76
1780.11
1723.71
1730.54
1683.27
2128.53
1173.31
109.639
7.05923
2.25363
1.86284
1.62036
1.53449
1.44576
1.4904
1.43311
1885.32
1883.77
1872.05
1872.86
1859.41
1857.58
1843.84
1847.77
1843.72
1859.01
1916.38
2069.43
1377.49
377.769
31.5738
4.62825
1.50003
1.46354
1.49377
1.47061
1.4356
1.41029
1.35163
1947.8
1946.48
1939.56
1943.46
1927.12
1911.53
1900.44
1905.37
1874.07
1919.22
1963.54
2125.14
656.738
2.25726
5.80408
1.9416
1.46493
1.43388
1.36907
1.35943
1.32574
1.29351
1.25502
2018.23
2015.73
2019.43
2006.23
2004.31
2051.65
2037.98
1990.1
1980.6
1990.86
2006.03
2187.52
1179.34
208.544
84.6751
12.8538
2.7422
1.52742
1.25371
1.28482
1.22703
1.19495
1.17439
2087.09
2086.14
2089.21
2072.32
2147.37
2025.48
2072.55
2051.17
2045.04
2046.41
2054.99
2120.21
2247.41
953.225
196.551
26.8001
4.1846
1.5361
1.25696
1.19711
1.13856
1.11421
1.09333
2157.34
2154.3
2158.39
2155.2
2170.28
2140.31
2130.82
2112.52
2094.63
2039.7
2016.59
2062.07
2452.19
1286.29
176.32
18.5926
3.01161
1.25381
1.09983
1.07241
1.0413
1.02233
1.00474
2228.1
2221.84
2208.01
2181.53
2112.57
2169.11
2178.57
2148.56
2149.43
2111.23
2103.06
2194.83
2367.64
698.151
39.3758
2.47075
1.18914
1.16529
1.08617
1.01337
0.958946
0.932469
0.915965
2305.22
2301.88
2285.41
2257.22
2257.67
2232.82
2240.85
2246.81
2218.31
2174.94
2137.57
2175.24
2499.34
1274.64
210.083
20.8564
5.15574
1.32751
1.09864
0.962058
0.868927
0.833798
0.82027
2392.93
2397.45
2390.83
2457.88
2345.47
2429.02
2352.57
2355.55
2317.14
2262.66
2218.34
2162.52
2570.46
2295.74
632.448
114.229
34.4557
6.65454
1.69715
0.878746
0.661946
0.676342
0.700754
2473.05
2469.38
2467.96
2458.65
2503.54
2418.39
2391.29
2293.42
2400.09
2304.56
2279.14
2540.4
1725.15
957.725
232.368
76.3754
37.7556
36.2747
22.3708
6.29351
1.09227
0.552332
0.587736
2556.02
2547.13
2537.67
2534.29
2523.83
2498.57
2428.22
2378.86
2287.98
2331.8
2561.52
2622.36
1412.47
140.458
17.6218
-0.499621
-1.76665
-0.329094
0.698779
0.542862
0.022025
0.263911
0.442472
2634.51
2619.23
2587.73
2576.06
2584.74
2485.31
2576.5
2487.84
2482.5
2709.42
2100.67
2565.6
1088.83
151.157
17.8278
1.46269
-0.650107
-0.865751
-0.699501
-0.575387
-0.328198
0.117824
0.32214
2772.74
2655.52
2678.48
2633.39
2617.11
2596.18
2550.09
2583.66
2648.14
1507.18
481.352
2476.82
635.961
63.3631
12.3404
0.396384
-0.843657
-0.687288
-0.559882
-0.548077
-0.183213
0.0799473
0.258092
2450.72
2722.03
2586.15
2576.83
2570.56
2648.15
2679.05
2587.08
2716.99
856.371
158.906
1499.24
134.811
7.47012
0.0931066
-0.76163
-0.609507
-0.676067
-0.685408
-0.356272
-0.141243
0.0653067
0.210063
638.759
2771.4
2760
2773.22
2649.94
2941.32
2804.2
3028.91
2669.89
797.749
53.5703
113.279
2.42946
0.718149
0.429754
-0.516389
-0.689543
-0.604842
-0.31439
-0.267753
-0.215104
0.0193425
0.162983
168.796
1388.07
1061.2
1195.51
925.648
1323.35
831.736
2094.6
687.364
43.964
3.86227
3.70454
-0.576293
-0.907665
-0.655932
-0.627533
-0.768458
-0.574552
-0.412692
-0.242274
-0.0620774
0.0280288
0.12774
65.715
120.81
75.5033
18.5766
62.0954
390.891
140.549
492.823
186.242
21.0287
0.528375
-0.871777
-0.785261
-0.815811
-0.619012
-0.619217
-0.524434
-0.579415
-0.366206
-0.244819
-0.114058
0.00607615
0.121496
23.3147
1.65187
0.796559
0.0543049
0.797071
49.5247
24.7626
4.13619
34.6877
5.79857
-0.311697
-0.813456
-0.747466
-0.62596
-0.71237
-0.570541
-0.500218
-0.41579
-0.314588
-0.207659
-0.0887733
0.0135058
0.102835
8.42916
-0.0512626
-0.492378
-0.425316
-0.20789
4.96545
3.55098
-0.583241
2.93041
0.367714
-0.473919
-0.626527
-0.513336
-0.524068
-0.608663
-0.516991
-0.456593
-0.393163
-0.266343
-0.158385
-0.0779268
0.0152719
0.0877242
0.829267
-0.258256
-0.434042
-0.472692
-0.385926
-0.453351
-0.254105
-0.491066
-0.393334
-0.499206
-0.501085
-0.521739
-0.494519
-0.469847
-0.459344
-0.500964
-0.401966
-0.331776
-0.248207
-0.167668
-0.0760458
0.00719101
0.0819988
-0.363657
-0.41377
-0.425322
-0.413411
-0.394158
-0.366191
-0.363928
-0.398935
-0.426733
-0.432839
-0.445615
-0.440764
-0.42864
-0.407838
-0.471391
-0.411109
-0.354445
-0.287884
-0.216508
-0.162285
-0.0696956
-0.000486048
0.0740232
-0.406557
-0.413212
-0.394706
-0.388775
-0.377789
-0.38058
-0.383394
-0.325261
-0.347296
-0.354192
-0.318777
-0.309429
-0.337515
-0.305278
-0.352829
-0.317102
-0.329786
-0.253013
-0.199529
-0.128284
-0.0619321
0.00210092
0.0674991
-0.376228
-0.369837
-0.367538
-0.363196
-0.35638
-0.35109
-0.353153
-0.342851
-0.340102
-0.335011
-0.327266
-0.317731
-0.307639
-0.271306
-0.293121
-0.245572
-0.254827
-0.250637
-0.193201
-0.123675
-0.060636
-0.00127288
0.0577973
-0.343263
-0.342346
-0.34049
-0.338485
-0.33291
-0.328375
-0.322334
-0.309892
-0.303058
-0.293286
-0.284071
-0.28035
-0.270221
-0.250019
-0.259186
-0.224347
-0.211255
-0.174771
-0.194745
-0.106283
-0.0584805
-0.00282529
0.0503238
-0.319533
-0.318664
-0.31406
-0.314612
-0.31051
-0.308375
-0.303096
-0.294826
-0.289429
-0.280775
-0.29804
-0.299841
-0.256479
-0.196993
-0.221788
-0.172064
-0.171365
-0.156149
-0.169502
-0.113805
-0.0551088
-0.00752071
0.0396753
-0.295257
-0.29493
-0.289352
-0.289613
-0.283595
-0.277445
-0.274206
-0.269117
-0.263408
-0.253392
-0.247603
-0.273912
-0.230546
-0.2046
-0.189982
-0.124095
-0.137379
-0.126667
-0.111699
-0.117403
-0.0429626
-0.0102709
0.0310179
-0.270608
-0.270092
-0.269701
-0.270774
-0.269558
-0.299256
-0.299366
-0.256888
-0.249461
-0.241548
-0.261815
-0.23657
-0.21683
-0.186911
-0.136565
-0.153811
-0.110199
-0.112169
-0.092622
-0.0959994
-0.058095
-0.0104552
0.0250069
-0.246635
-0.245866
-0.244325
-0.244416
-0.237738
-0.235802
-0.234358
-0.227211
-0.238242
-0.215224
-0.215452
-0.207347
-0.194864
-0.168111
-0.140775
-0.124309
-0.0777576
-0.0755199
-0.082212
-0.0585792
-0.0628226
-0.00214642
0.0166381
-0.223103
-0.222164
-0.223628
-0.224757
-0.224425
-0.234666
-0.216808
-0.188956
-0.170759
-0.168489
-0.181847
-0.160672
-0.185402
-0.146817
-0.130248
-0.0862471
-0.0938692
-0.0669192
-0.0691363
-0.0486989
-0.0519649
-0.0172963
0.0108229
-0.201811
-0.202407
-0.202424
-0.198521
-0.186755
-0.16879
-0.174571
-0.177462
-0.171495
-0.185976
-0.171086
-0.168786
-0.173442
-0.135291
-0.116106
-0.0896673
-0.0760287
-0.0447804
-0.0445379
-0.0409805
-0.0290127
-0.0246516
0.0102904
-0.179451
-0.180114
-0.181301
-0.175714
-0.16871
-0.178639
-0.175653
-0.193353
-0.175682
-0.160334
-0.145456
-0.139727
-0.140949
-0.11931
-0.0986023
-0.0796902
-0.0476697
-0.0478149
-0.0387602
-0.0284794
-0.0162556
0.00054883
0.00167037
-0.157859
-0.1581
-0.160584
-0.155182
-0.184379
-0.159839
-0.153233
-0.143044
-0.158853
-0.146183
-0.130617
-0.123299
-0.118763
-0.102463
-0.0853851
-0.0698526
-0.049704
-0.0376988
-0.0207152
-0.0213386
-0.0116131
0.00145418
-0.00735831
-0.135136
-0.135016
-0.13439
-0.134254
-0.128501
-0.136883
-0.12882
-0.128309
-0.124285
-0.108626
-0.0955395
-0.102942
-0.105837
-0.100455
-0.0733703
-0.0589509
-0.0416173
-0.0220381
-0.0234016
-0.016266
-0.010788
-0.00113088
-0.00475018
-0.113636
-0.113701
-0.11342
-0.111612
-0.113892
-0.113701
-0.114156
-0.106625
-0.104966
-0.115629
-0.101567
-0.0881536
-0.0812751
-0.0718948
-0.0595973
-0.0477744
-0.0364677
-0.0153353
-0.0183761
-0.0128642
-0.00805297
0.000378803
-0.00364208
-0.092811
-0.0929138
-0.0914862
-0.0926493
-0.0883895
-0.089988
-0.0932363
-0.0847495
-0.0795335
-0.0705055
-0.0753298
-0.0666821
-0.0650904
-0.0591858
-0.0483732
-0.0382459
-0.0284392
-0.0173974
-0.00693739
-0.0102767
-0.00420412
9.72789e-05
0.00619479
-0.072206
-0.0720047
-0.0693185
-0.0633493
-0.0650148
-0.0549896
-0.0308204
-0.0566957
-0.0537602
-0.0577379
-0.0565417
-0.0471788
-0.0444552
-0.0433965
-0.0367354
-0.0298692
-0.0231829
-0.014248
-0.00542305
-0.00792441
-0.00282654
-0.000263261
0.00445639
-0.0434795
-0.0445849
-0.0422826
-0.0836194
-0.0570317
-0.0357549
-0.0343178
-0.0378128
-0.0343966
-0.0374178
-0.0307178
-0.030078
-0.0281622
-0.0240581
-0.02234
-0.0144731
-0.012418
-0.0043888
-0.00402301
-0.00329371
-0.00182821
0.000569346
-4.63224e-05
-0.0647516
-0.0622257
-0.049486
-0.0201512
-0.0176562
-0.0409359
-0.0391999
-0.00976346
-0.0432521
-0.00520198
-0.0335819
-0.00851991
-0.0102678
-0.0244806
-0.0212544
-0.0186766
-0.0168802
-0.00921706
-0.00307519
-0.00268154
-0.000385727
0.00220738
0.00225231
1.20109
1.16804
1.30068
1.27028
1.45982
1.45962
1.46305
1.43191
1.62503
1.55838
1.50605
1.4546
1.49522
1.46034
1.42549
1.3911
1.4042
1.38342
1.35944
1.3369
1.32064
1.30087
1.28124
1.26032
1.23703
1.22297
1.20688
1.19049
1.15762
1.14409
1.13069
1.11704
1.0768
1.0659
1.05537
1.04477
0.993113
0.985406
0.97792
0.9703
0.908538
0.903871
0.899646
0.895342
0.819303
0.818537
0.818547
0.818366
0.718904
0.727611
0.734859
0.740589
0.623822
0.638714
0.651963
0.66297
0.512179
0.547876
0.571232
0.588655
0.415723
0.468916
0.490223
0.515975
0.346217
0.394722
0.434739
0.464843
0.293269
0.339181
0.379477
0.409104
0.248308
0.291776
0.355178
0.366953
0.198844
0.233594
0.270931
0.30791
0.196281
0.235654
0.270767
0.302524
0.169059
0.206076
0.240654
0.271663
0.173642
0.208071
0.220132
0.246565
0.131344
0.164733
0.219886
0.253874
0.110675
0.113531
0.150085
0.177231
0.105195
0.131121
0.130195
0.164108
0.0691613
0.105282
0.125529
0.129013
0.0772855
0.112188
0.12527
0.140844
0.0682289
0.0866653
0.114799
0.120824
0.059767
0.06494
0.0859664
0.114163
0.0509538
0.0741435
0.0714387
0.0910784
0.0436302
0.0499201
0.0782125
0.0790056
0.0348467
0.049003
0.053246
0.0724239
0.0297265
0.0414042
0.0543482
0.066393
0.0309058
0.0351915
0.044467
0.054466
0.0163665
0.0260158
0.035932
0.0468319
0.0095778
0.0255545
0.0308379
0.0402241
0.0118116
0.0175651
0.0247792
0.0316202
0.00502014
0.010443
0.018852
0.0248449
0.0023654
0.010126
0.014138
0.0186042
0.00549756
0.00798071
0.0110667
0.0164856
0.00276401
0.00540783
0.00582599
0.00522041
1.26636
1.15895
1.16189
1.09183
1.05641
1.01303
0.974609
0.943722
0.905747
0.877779
0.849727
0.811005
0.802117
0.779862
0.76355
0.749521
0.739207
0.732365
0.729001
1.38407
1.18413
1.17204
1.08927
1.04635
0.997293
0.95595
0.923048
0.885751
0.859714
0.817825
0.810645
0.79019
0.771685
0.756308
0.743424
0.73382
0.727418
0.72426
1.40541
1.22728
1.16042
1.09377
1.03265
0.986339
0.942339
0.905021
0.871799
0.826305
0.820452
0.795757
0.779678
0.762519
0.748321
0.736509
0.727601
0.721639
0.718689
1.33385
1.29123
1.14665
1.07926
1.00393
0.94629
0.899797
0.864292
0.834279
0.828054
0.80262
0.785104
0.768618
0.752955
0.739757
0.728871
0.720622
0.715088
0.712346
1.2929
1.2657
1.13032
1.06307
1.00326
0.95217
0.908643
0.872793
0.840509
0.812639
0.791732
0.773593
0.757575
0.743011
0.730686
0.720611
0.712974
0.707846
0.705304
1.22407
1.17296
1.15047
1.0389
0.981479
0.92993
0.886045
0.851424
0.821269
0.799475
0.779177
0.761607
0.746249
0.732633
0.72113
0.71179
0.704723
0.69998
0.69763
1.16425
1.12294
1.10802
1.01167
0.958253
0.911601
0.869627
0.837281
0.808426
0.786096
0.766321
0.749308
0.734624
0.721851
0.711121
0.702463
0.695931
0.691553
0.689386
1.09397
1.06199
1.02556
1.01457
0.93037
0.892041
0.851089
0.821137
0.793178
0.771558
0.752931
0.736527
0.722638
0.710666
0.700685
0.692675
0.686653
0.682624
0.680631
1.02676
1.00471
0.975206
0.968007
0.895102
0.86896
0.828841
0.802821
0.776176
0.756219
0.739073
0.723262
0.710276
0.699084
0.689844
0.682463
0.676935
0.673244
0.671421
0.957371
0.939706
0.91885
0.896201
0.885125
0.837243
0.805575
0.785579
0.758347
0.740107
0.724608
0.709414
0.697517
0.687121
0.678639
0.671879
0.666838
0.663475
0.661818
0.888162
0.877842
0.863235
0.851076
0.82367
0.823182
0.77726
0.763796
0.738797
0.723262
0.710995
0.695232
0.684451
0.67475
0.66703
0.660887
0.656337
0.653305
0.651815
0.818101
0.815732
0.808625
0.800135
0.786271
0.769863
0.751308
0.752266
0.718381
0.705224
0.694321
0.680025
0.670842
0.662119
0.655274
0.649767
0.645718
0.643005
0.641675
0.748796
0.755394
0.756065
0.753171
0.745113
0.736206
0.721208
0.710667
0.697975
0.686509
0.685832
0.66474
0.657096
0.648825
0.64278
0.637869
0.634351
0.63196
0.630797
0.680426
0.696515
0.705134
0.708067
0.706121
0.701022
0.693091
0.686852
0.674951
0.664583
0.657365
0.648337
0.642405
0.635994
0.630968
0.626735
0.623736
0.621654
0.620668
0.615084
0.642577
0.658335
0.66619
0.669195
0.661347
0.663534
0.658768
0.652247
0.64485
0.640453
0.631797
0.62652
0.621157
0.616964
0.613161
0.610935
0.609186
0.608388
0.556617
0.590171
0.613747
0.624874
0.631992
0.639704
0.635261
0.633827
0.628945
0.619313
0.620106
0.613822
0.610061
0.606188
0.603134
0.599998
0.598231
0.59669
0.596039
0.50197
0.542012
0.569319
0.589201
0.598479
0.603588
0.605817
0.61118
0.606193
0.604179
0.600965
0.596608
0.593409
0.590537
0.588236
0.583931
0.584393
0.583071
0.58276
0.449271
0.498879
0.534801
0.552383
0.56426
0.576274
0.579241
0.583513
0.583511
0.584561
0.581076
0.578961
0.574674
0.575407
0.574098
0.571975
0.570905
0.569881
0.569508
0.40447
0.45565
0.475787
0.521744
0.541286
0.547875
0.554164
0.560381
0.562069
0.562336
0.562706
0.561809
0.562262
0.55963
0.558604
0.556812
0.556235
0.555598
0.555275
0.338628
0.422869
0.457321
0.499646
0.507476
0.518005
0.532403
0.538427
0.543159
0.543468
0.544261
0.544371
0.543963
0.543577
0.543496
0.542846
0.54242
0.5421
0.541917
0.344036
0.393707
0.427715
0.462387
0.482821
0.503786
0.50878
0.515444
0.522792
0.524731
0.526964
0.527233
0.528114
0.528122
0.528332
0.52856
0.527908
0.527805
0.527673
0.316531
0.36766
0.404573
0.437429
0.457991
0.475475
0.487615
0.498188
0.505558
0.506766
0.508846
0.510579
0.511901
0.51291
0.513404
0.513642
0.513806
0.513858
0.513777
0.289468
0.338527
0.384577
0.414431
0.436715
0.455229
0.46707
0.480899
0.48421
0.489619
0.491646
0.49344
0.495982
0.497487
0.498724
0.499271
0.499552
0.499791
0.499853
0.302754
0.315101
0.356793
0.388027
0.418011
0.434989
0.448237
0.458318
0.467176
0.472199
0.477057
0.477927
0.479905
0.483407
0.484513
0.484891
0.485482
0.485858
0.486153
0.223793
0.321494
0.369054
0.365566
0.391846
0.41079
0.431616
0.441108
0.449708
0.454102
0.459491
0.462224
0.465684
0.469377
0.469464
0.470693
0.471136
0.472099
0.472239
0.197207
0.246446
0.286119
0.367334
0.402193
0.392596
0.408058
0.419607
0.434732
0.437764
0.444205
0.446034
0.450169
0.453846
0.45522
0.45662
0.457702
0.458397
0.458481
0.155645
0.182079
0.251808
0.289419
0.324909
0.388617
0.418027
0.397068
0.411531
0.41953
0.429495
0.430746
0.435554
0.439725
0.440085
0.44221
0.443974
0.444621
0.44407
0.164511
0.209099
0.197672
0.259376
0.289175
0.322853
0.346454
0.403471
0.421706
0.397752
0.404833
0.411804
0.421294
0.427283
0.424639
0.427872
0.429988
0.43018
0.428054
0.146082
0.178744
0.214834
0.202694
0.256575
0.283663
0.311629
0.334866
0.353071
0.404586
0.41656
0.391979
0.397544
0.406151
0.407494
0.414202
0.417183
0.417158
0.413266
0.130601
0.163473
0.185482
0.216802
0.202721
0.249887
0.269814
0.295848
0.315379
0.334525
0.352142
0.399732
0.410581
0.4161
0.385121
0.392711
0.395899
0.39696
0.392525
0.116699
0.151668
0.171406
0.189956
0.215302
0.199896
0.235939
0.250185
0.271983
0.296258
0.314062
0.328734
0.341084
0.360537
0.387758
0.402103
0.406951
0.403228
0.380473
0.126105
0.137638
0.158977
0.175459
0.190351
0.208948
0.196607
0.20639
0.227453
0.251979
0.273477
0.293894
0.308217
0.318131
0.321078
0.328514
0.336464
0.35239
0.374011
0.0930324
0.143978
0.144245
0.160697
0.172285
0.18247
0.196946
0.17758
0.182224
0.210981
0.232883
0.253028
0.268398
0.281061
0.292186
0.299531
0.304386
0.307342
0.310338
0.0803797
0.105749
0.127322
0.157
0.167289
0.168478
0.172321
0.177788
0.154973
0.170418
0.19879
0.216938
0.231688
0.243626
0.254103
0.262042
0.26842
0.273683
0.277444
0.0576919
0.0914439
0.111142
0.127901
0.132504
0.147461
0.151772
0.154965
0.153442
0.139163
0.155012
0.181252
0.196114
0.208702
0.218472
0.22571
0.231169
0.235479
0.238038
0.0572413
0.083626
0.120773
0.115817
0.106377
0.144632
0.133298
0.135303
0.13341
0.142765
0.148374
0.15822
0.167819
0.177342
0.1855
0.191803
0.196584
0.200008
0.201887
0.051871
0.0691134
0.0867504
0.0964906
0.10848
0.103208
0.115845
0.114508
0.115046
0.114492
0.0972763
0.117666
0.134955
0.144808
0.152997
0.158717
0.162958
0.165854
0.167357
0.0413304
0.0561051
0.0711423
0.077167
0.0821916
0.0897783
0.0963558
0.0952512
0.098046
0.0987153
0.104451
0.102788
0.111751
0.117148
0.122878
0.127196
0.130504
0.132762
0.133916
0.0338739
0.046145
0.0610648
0.0614722
0.0670334
0.0808051
0.0994067
0.0773008
0.081013
0.0784801
0.0760953
0.0809797
0.0856507
0.0895339
0.0934628
0.0966385
0.0990947
0.100772
0.10162
0.0258364
0.0354787
0.0514105
0.0621492
0.049624
0.0503948
0.0538523
0.0577806
0.0593309
0.0603028
0.0592194
0.0575125
0.0567456
0.0600222
0.0623271
0.0644497
0.0661107
0.0672514
0.0678408
0.014274
0.0221467
0.0280033
0.0205274
0.0244685
0.0325216
0.0369687
0.0309402
0.0320787
0.0322861
0.0321165
0.0365772
0.0400572
0.0408307
0.0421797
0.0430781
0.043943
0.0445528
0.0448587
0.0120216
0.00227661
0.00547084
0.0110788
0.0231622
0.00650345
0.00918315
0.0321092
0.0365013
0.0368724
0.0303691
0.00684107
-0.00301634
-0.00622795
-0.00720083
-0.00774746
-0.00786607
-0.00794911
-0.00792098
)
;

boundaryField
{
    leftWall
    {
        type            zeroGradient;
    }
    rightWall
    {
        type            zeroGradient;
    }
    lowerWall
    {
        type            zeroGradient;
    }
    atmosphere
    {
        type            totalPressure;
        rho             rho;
        psi             none;
        gamma           1;
        p0              uniform 0;
        value           nonuniform List<scalar> 
46
(
-0.0125139
-0.0123765
-0.0111064
-0.0104887
-0.00786534
-0.00852261
-0.00746025
-0.00531831
-0.00682203
-0.004229
-0.00510964
-0.0031539
-0.00270212
-0.00283066
-0.00228114
-0.00151463
-0.00089191
-0.000342972
-0.000120983
-3.0805e-05
-3.65476e-09
0
0
0
0
0
0
0
0
0
0
0
0
0
0
0
0
0
0
0
0
0
0
0
0
0
)
;
    }
    defaultFaces
    {
        type            empty;
    }
}


// ************************************************************************* //
