/*--------------------------------*- C++ -*----------------------------------*\
| =========                 |                                                 |
| \\      /  F ield         | foam-extend: Open Source CFD                    |
|  \\    /   O peration     | Version:     4.1                                |
|   \\  /    A nd           | Web:         http://www.foam-extend.org         |
|    \\/     M anipulation  |                                                 |
\*---------------------------------------------------------------------------*/
FoamFile
{
    version     2.0;
    format      ascii;
    class       surfaceScalarField;
    location    "0.1";
    object      phi;
}
// * * * * * * * * * * * * * * * * * * * * * * * * * * * * * * * * * * * * * //

dimensions      [0 3 -1 0 0 0 0];

internalField   nonuniform List<scalar> 
4432
(
1.29966e-06
-1.29966e-06
3.56594e-06
-2.26628e-06
5.95625e-06
-2.3903e-06
8.64489e-06
-2.68864e-06
1.17584e-05
-3.1135e-06
1.53776e-05
-3.61915e-06
1.83633e-05
-2.98573e-06
2.45891e-05
-6.22581e-06
3.16832e-05
-7.09406e-06
5.48242e-05
-2.3141e-05
6.64171e-05
-1.1593e-05
7.75028e-05
-1.10857e-05
0.000108022
-3.05188e-05
0.000135651
-2.76291e-05
0.000103318
3.23324e-05
9.29571e-05
1.03612e-05
9.97296e-05
-6.77252e-06
0.000103584
-3.85425e-06
0.000123517
-1.9933e-05
0.000137258
-1.37409e-05
8.43986e-05
5.28593e-05
1.36148e-05
7.07847e-05
1.36127e-05
1.31951e-06
-2.61917e-06
3.55165e-06
-4.49842e-06
5.94114e-06
-4.77979e-06
8.60073e-06
-5.34821e-06
1.16793e-05
-6.19207e-06
1.52974e-05
-7.23725e-06
1.81908e-05
-5.87905e-06
2.41616e-05
-1.21966e-05
3.13594e-05
-1.42919e-05
5.37e-05
-4.54816e-05
6.58709e-05
-2.37639e-05
9.84197e-05
-4.36345e-05
0.000101499
-3.35982e-05
9.09672e-05
-1.70972e-05
8.13982e-05
4.19013e-05
8.53609e-05
6.39858e-06
0.000103311
-2.47228e-05
0.00014002
-4.0563e-05
0.000161417
-4.13306e-05
0.000136296
1.13812e-05
5.87284e-05
0.000130425
1.79841e-06
0.000127715
1.54111e-05
1.35627e-06
-3.97544e-06
3.53259e-06
-6.67474e-06
5.88372e-06
-7.13092e-06
8.49562e-06
-7.9601e-06
1.14218e-05
-9.11819e-06
1.49016e-05
-1.07171e-05
1.79533e-05
-8.93074e-06
2.30541e-05
-1.72973e-05
2.80443e-05
-1.92821e-05
3.00551e-05
-4.74924e-05
5.36242e-05
-4.73329e-05
0.000104378
-9.43879e-05
0.000125849
-5.50699e-05
7.26747e-05
3.60774e-05
6.97309e-05
4.48451e-05
8.44444e-05
-8.3149e-06
0.000102218
-4.24964e-05
0.000187778
-0.000126123
0.000213562
-6.71152e-05
0.000228557
-3.61351e-06
0.000219246
0.000139735
0.000155397
0.000191564
0.000170808
1.42782e-06
-5.40326e-06
3.50904e-06
-8.75595e-06
5.78921e-06
-9.41108e-06
8.36233e-06
-1.05332e-05
1.13238e-05
-1.20796e-05
1.49066e-05
-1.42998e-05
1.727e-05
-1.12942e-05
2.19956e-05
-2.20229e-05
2.59649e-05
-2.32514e-05
3.00222e-05
-5.15497e-05
3.4033e-05
-5.13437e-05
6.24068e-05
-0.000122762
0.000100961
-9.36243e-05
0.000110137
2.6902e-05
8.53138e-05
6.96678e-05
6.39845e-05
1.30144e-05
7.57701e-05
-5.42819e-05
6.15694e-05
-0.000111922
0.000135435
-0.00014098
0.000186075
-5.4254e-05
0.000192107
0.000133704
0.000147454
0.000236217
0.000318261
1.50318e-06
-6.90644e-06
3.46886e-06
-1.07216e-05
5.66116e-06
-1.16034e-05
8.17539e-06
-1.30474e-05
1.12232e-05
-1.51274e-05
1.47498e-05
-1.78264e-05
1.66435e-05
-1.3188e-05
2.09915e-05
-2.63708e-05
2.37312e-05
-2.59911e-05
2.66975e-05
-5.45161e-05
3.64746e-05
-6.11208e-05
-4.74763e-06
-8.15395e-05
-2.29872e-06
-9.60732e-05
1.40947e-05
1.05087e-05
2.80302e-05
5.57323e-05
2.50374e-05
1.60071e-05
2.81441e-05
-5.73888e-05
3.29858e-05
-0.000116763
6.24241e-05
-0.000170418
0.000104165
-9.59948e-05
0.000107518
0.000130349
6.71807e-05
0.000276555
0.000385442
1.76083e-06
-8.66727e-06
3.4757e-06
-1.24365e-05
5.49853e-06
-1.36262e-05
7.92667e-06
-1.54756e-05
1.11853e-05
-1.8386e-05
1.49313e-05
-2.15724e-05
2.85552e-05
-2.68119e-05
2.00812e-05
-1.78968e-05
3.27623e-05
-3.86722e-05
2.56476e-05
-4.74014e-05
3.37781e-05
-6.92512e-05
2.97072e-05
-7.74686e-05
-5.36672e-05
-1.26989e-05
-0.000102542
5.93834e-05
-7.94744e-05
3.26647e-05
1.39228e-06
-6.48594e-05
5.51236e-05
-0.00011112
7.10759e-05
-0.000132716
5.83404e-05
-0.000157683
4.64115e-05
-8.40661e-05
4.03061e-05
0.000136454
-4.97214e-07
0.000317358
0.000384947
1.65801e-06
-1.03253e-05
3.33831e-06
-1.41168e-05
5.26686e-06
-1.55548e-05
7.60211e-06
-1.78108e-05
1.05984e-05
-2.13823e-05
1.37508e-05
-2.47248e-05
1.54169e-05
-2.84779e-05
2.00173e-05
-2.24972e-05
3.53654e-05
-5.40203e-05
4.08003e-05
-5.28363e-05
2.54146e-05
-5.38656e-05
2.61837e-05
-7.82377e-05
-3.05476e-05
4.40324e-05
-6.16381e-05
9.04738e-05
-1.20951e-05
-1.68785e-05
1.87234e-05
-9.56777e-05
3.60257e-05
-0.000128421
2.98842e-05
-0.000126574
-4.79605e-06
-0.000123003
-3.30101e-05
-5.58515e-05
-3.40338e-05
0.000137477
-1.63347e-05
0.000299659
0.000368612
2.32477e-06
-1.265e-05
3.03566e-06
-1.48277e-05
4.96993e-06
-1.7489e-05
7.18767e-06
-2.00285e-05
1.02734e-05
-2.4468e-05
1.3322e-05
-2.77734e-05
2.38989e-05
-3.90547e-05
3.37102e-05
-3.23085e-05
3.50823e-05
-5.53924e-05
3.99887e-05
-5.77426e-05
3.62845e-05
-5.01614e-05
7.4287e-06
-4.93819e-05
-2.35327e-05
7.49938e-05
1.07288e-05
5.62123e-05
4.4171e-05
-5.03207e-05
4.30036e-05
-9.45102e-05
4.5385e-05
-0.000130802
1.92078e-05
-0.000100397
-2.63514e-05
-7.74459e-05
-6.14168e-05
-2.07856e-05
-5.12389e-05
0.000127298
-2.99372e-05
0.000278357
0.000338675
3.30282e-06
-3.30282e-06
8.00961e-06
-4.70675e-06
1.14763e-05
-3.46674e-06
1.3171e-05
-1.69469e-06
1.34854e-05
-3.14399e-07
1.3294e-05
1.91359e-07
1.28469e-05
4.47083e-07
1.23423e-05
5.04563e-07
1.16519e-05
6.90447e-07
1.09547e-05
6.9717e-07
1.07338e-05
2.20813e-07
1.12875e-05
-5.53756e-07
6.20844e-06
5.07902e-06
4.65918e-06
1.54921e-06
3.43324e-06
1.22589e-06
2.46329e-06
9.69906e-07
1.59517e-06
8.68066e-07
7.83397e-07
8.1173e-07
7.83351e-07
3.27516e-06
-6.57801e-06
8.80747e-06
-1.0239e-05
1.22168e-05
-6.87609e-06
1.3749e-05
-3.22687e-06
1.40484e-05
-6.139e-07
1.38172e-05
4.22575e-07
1.32901e-05
9.74084e-07
1.27412e-05
1.05348e-06
1.19652e-05
1.46629e-06
1.10647e-05
1.59758e-06
1.0706e-05
5.79499e-07
6.93455e-06
3.21758e-06
6.16875e-06
5.84473e-06
4.67816e-06
3.03971e-06
3.49673e-06
2.40724e-06
2.51483e-06
1.95172e-06
1.63068e-06
1.75213e-06
8.01249e-07
1.64107e-06
1.58456e-06
3.50679e-06
-1.00848e-05
9.52178e-06
-1.62539e-05
1.29965e-05
-1.03509e-05
1.4178e-05
-4.40837e-06
1.43236e-05
-7.59531e-07
1.39821e-05
7.64003e-07
1.34794e-05
1.47681e-06
1.28856e-05
1.64722e-06
1.1931e-05
2.42082e-06
1.11131e-05
2.41535e-06
1.11079e-05
5.84606e-07
6.96086e-06
7.36459e-06
5.98973e-06
6.81578e-06
4.56613e-06
4.46323e-06
3.45657e-06
3.51672e-06
2.49331e-06
2.91491e-06
1.61998e-06
2.62538e-06
7.96689e-07
2.46429e-06
2.38121e-06
4.28482e-06
-1.43697e-05
1.03429e-05
-2.23119e-05
1.38515e-05
-1.38596e-05
1.47832e-05
-5.34005e-06
1.47726e-05
-7.48962e-07
1.43167e-05
1.21987e-06
1.36097e-05
2.18376e-06
1.29998e-05
2.25703e-06
1.17272e-05
3.69335e-06
1.0806e-05
3.33655e-06
6.64027e-06
4.75024e-06
6.80047e-06
7.20433e-06
5.69487e-06
7.9213e-06
4.42806e-06
5.72997e-06
3.3972e-06
4.54751e-06
2.46156e-06
3.85048e-06
1.60352e-06
3.48335e-06
7.895e-07
3.27824e-06
3.17068e-06
5.28626e-06
-1.9656e-05
1.18201e-05
-2.88457e-05
1.52024e-05
-1.72419e-05
1.55974e-05
-5.73506e-06
1.52934e-05
-4.45032e-07
1.47517e-05
1.76154e-06
1.38361e-05
3.09933e-06
1.32139e-05
2.87918e-06
1.18531e-05
5.05406e-06
1.11861e-05
4.00346e-06
6.80223e-06
9.13409e-06
6.52904e-06
7.47745e-06
5.4414e-06
9.00888e-06
4.30429e-06
6.86701e-06
3.32685e-06
5.52487e-06
2.42266e-06
4.7546e-06
1.58266e-06
4.32329e-06
7.80291e-07
4.08053e-06
3.95094e-06
7.36422e-06
-2.70203e-05
1.38613e-05
-3.53427e-05
1.69925e-05
-2.03731e-05
1.6699e-05
-5.44158e-06
1.60552e-05
1.98649e-07
1.51483e-05
2.66841e-06
1.396e-05
4.28766e-06
1.33441e-05
3.49503e-06
1.18915e-05
6.50655e-06
6.65504e-06
9.23987e-06
6.67986e-06
9.1092e-06
6.11249e-06
8.04475e-06
5.16799e-06
9.9533e-06
4.1677e-06
7.86723e-06
3.2476e-06
6.4449e-06
2.37789e-06
5.62424e-06
1.55807e-06
5.14304e-06
7.69332e-07
4.8692e-06
4.72023e-06
1.2092e-05
-3.91123e-05
1.70752e-05
-4.03259e-05
1.92055e-05
-2.25034e-05
1.79889e-05
-4.225e-06
1.68804e-05
1.3071e-06
1.54587e-05
4.09011e-06
1.40103e-05
5.73606e-06
7.55515e-06
9.95007e-06
6.70303e-06
7.35862e-06
6.55846e-06
9.38437e-06
6.44509e-06
9.22251e-06
5.76725e-06
8.72252e-06
4.93077e-06
1.07897e-05
4.02836e-06
8.76957e-06
3.16325e-06
7.30994e-06
2.3287e-06
6.45871e-06
1.53047e-06
5.94121e-06
7.5689e-07
5.64271e-06
5.47709e-06
2.90131e-05
-6.81254e-05
2.44356e-05
-3.57484e-05
1.15609e-05
-9.6287e-06
1.01007e-05
-2.76478e-06
9.16092e-06
2.24681e-06
8.26355e-06
4.98744e-06
7.37565e-06
6.62392e-06
7.82277e-06
9.50291e-06
6.94372e-06
8.23761e-06
6.66862e-06
9.65941e-06
6.27424e-06
9.61683e-06
5.41556e-06
9.58115e-06
4.66371e-06
1.15415e-05
3.88989e-06
9.54333e-06
3.07783e-06
8.12194e-06
2.27801e-06
7.25847e-06
1.50152e-06
6.71763e-06
7.43722e-07
6.40045e-06
6.22078e-06
4.97176e-06
-1.76218e-05
1.07195e-05
-2.05754e-05
1.78951e-05
-2.46646e-05
2.60199e-05
-2.81534e-05
3.56253e-05
-3.40733e-05
4.45152e-05
-3.66634e-05
5.00315e-05
-4.4571e-05
6.48191e-05
-4.70961e-05
6.77929e-05
-5.83662e-05
7.17757e-05
-6.17254e-05
8.67356e-05
-6.51214e-05
0.000105985
-6.86318e-05
0.000196276
-1.52965e-05
0.000146753
0.000105735
0.000113622
-1.71898e-05
0.000141865
-0.000122753
9.742e-05
-8.63567e-05
3.28449e-05
-3.58219e-05
-2.82863e-05
-1.63159e-05
-8.1868e-05
3.27967e-05
-6.24721e-05
0.000107903
1.11717e-06
0.000214768
0.000166209
0.000173583
-4.28694e-07
-1.71931e-05
6.36219e-06
-2.73663e-05
1.2604e-05
-3.09064e-05
1.89106e-05
-3.44599e-05
1.77881e-05
-3.29509e-05
2.19128e-05
-4.0788e-05
2.38756e-05
-4.65338e-05
2.94605e-05
-5.2681e-05
3.26231e-05
-6.15288e-05
3.43685e-05
-6.34708e-05
2.62205e-05
-5.69733e-05
5.18279e-05
-9.42392e-05
8.08512e-05
-4.43198e-05
0.00017093
1.5656e-05
0.000157934
-4.19347e-06
8.23372e-05
-4.71559e-05
6.27069e-05
-6.6726e-05
3.38619e-05
-6.97721e-06
4.86011e-06
1.26851e-05
-2.52243e-05
6.2881e-05
1.92091e-05
6.34695e-05
8.79247e-05
0.000146052
0.000126588
0.000127545
5.56141e-06
-2.27545e-05
1.48974e-06
-2.32946e-05
5.6116e-06
-3.50283e-05
1.04472e-05
-3.92955e-05
1.47511e-05
-3.72547e-05
1.79632e-05
-4.40002e-05
2.02221e-05
-4.87926e-05
2.56558e-05
-5.81148e-05
3.13243e-05
-6.71972e-05
3.44496e-05
-6.65961e-05
4.73201e-05
-6.98438e-05
2.68986e-06
-4.9609e-05
2.59082e-05
-6.75382e-05
7.87624e-05
-3.71982e-05
0.000132166
-5.75977e-05
0.000140825
-5.58145e-05
0.000105135
-3.10361e-05
6.08281e-05
3.73301e-05
3.80506e-05
3.54624e-05
3.2969e-05
6.79625e-05
3.81874e-05
5.82503e-05
7.13489e-05
0.00011289
0.000102557
9.53801e-05
6.32e-06
-2.90745e-05
1.26816e-05
-2.96562e-05
7.84643e-06
-3.01931e-05
1.75233e-05
-4.89724e-05
9.6472e-06
-2.93786e-05
1.45611e-05
-4.8914e-05
1.65906e-05
-5.08222e-05
2.11864e-05
-6.27105e-05
2.76839e-05
-7.36947e-05
3.6929e-05
-7.58413e-05
1.15753e-05
-4.44901e-05
7.95401e-05
-0.000117574
4.98756e-05
-3.78737e-05
8.38254e-05
-7.1148e-05
8.33875e-05
-5.71598e-05
9.27614e-05
-6.51887e-05
7.29753e-05
-1.125e-05
4.74302e-05
6.28751e-05
3.84881e-05
4.44041e-05
3.12568e-05
7.51935e-05
4.44896e-05
4.50169e-05
6.47428e-05
9.26368e-05
8.67099e-05
8.05897e-05
5.22413e-06
-3.42987e-05
1.07488e-05
-3.51809e-05
1.74614e-05
-3.69057e-05
1.00934e-05
-4.16044e-05
2.04433e-05
-3.97286e-05
1.46798e-05
-4.31505e-05
9.72981e-06
-4.58722e-05
2.46999e-05
-7.76806e-05
2.56088e-05
-7.46036e-05
3.09499e-05
-8.11823e-05
6.88193e-05
-8.23595e-05
9.5676e-05
-0.00014443
0.000169175
-0.000111373
0.000157548
-5.95212e-05
0.000161458
-6.10699e-05
0.000150918
-5.46485e-05
9.79274e-05
4.174e-05
7.81352e-05
8.26668e-05
5.50665e-05
6.74725e-05
6.04466e-05
6.9813e-05
4.00553e-05
6.54077e-05
5.57487e-05
7.69432e-05
7.69622e-05
6.54962e-05
3.47171e-06
-3.77704e-05
6.5686e-06
-3.82778e-05
9.32833e-06
-3.96654e-05
8.98862e-06
-4.12647e-05
1.17414e-05
-4.24814e-05
1.32687e-05
-4.46777e-05
1.36706e-05
-4.62741e-05
1.7268e-05
-8.1278e-05
2.16484e-05
-7.89841e-05
2.26298e-05
-8.21637e-05
2.8016e-05
-8.77457e-05
-4.76173e-05
-6.87972e-05
-4.03154e-05
-0.000118675
-4.80968e-05
-5.17398e-05
-9.92155e-06
-9.92452e-05
1.75849e-05
-8.21552e-05
4.44393e-05
1.4885e-05
6.54928e-05
6.1613e-05
6.1074e-05
7.18909e-05
5.75162e-05
7.33705e-05
5.31287e-05
6.9795e-05
5.63533e-05
7.37185e-05
7.4359e-05
5.89565e-05
2.5915e-06
-4.03619e-05
4.93969e-06
-4.0626e-05
7.23966e-06
-4.19654e-05
7.35213e-06
-4.13771e-05
1.00852e-05
-4.52144e-05
1.24808e-05
-4.70734e-05
1.48501e-05
-4.86434e-05
1.9668e-05
-8.60959e-05
3.01271e-05
-8.94432e-05
3.7116e-05
-8.91526e-05
4.48605e-05
-9.54902e-05
4.9091e-05
-7.30278e-05
-5.09278e-05
-1.86558e-05
-6.2721e-05
-3.99466e-05
-3.24076e-05
-0.000129559
-1.59444e-05
-9.86186e-05
2.67146e-05
-2.77744e-05
6.06337e-05
2.76935e-05
5.81004e-05
7.44239e-05
5.76225e-05
7.38483e-05
5.39622e-05
7.34551e-05
5.40341e-05
7.36467e-05
7.39505e-05
5.44426e-05
1.68761e-06
-4.20495e-05
3.2823e-06
-4.22207e-05
3.95579e-06
-4.26389e-05
5.10845e-06
-4.25298e-05
6.54753e-06
-4.66535e-05
2.22058e-05
-6.27317e-05
1.63443e-05
-4.27819e-05
1.70683e-05
-8.68199e-05
1.6831e-05
-8.92058e-05
1.86295e-05
-9.0951e-05
1.26121e-05
-8.94728e-05
-1.01014e-05
-5.03142e-05
-7.52116e-06
-2.12361e-05
1.66952e-05
-6.41629e-05
5.00798e-05
-0.000162943
6.96949e-05
-0.000118234
9.14109e-05
-4.94907e-05
5.58733e-05
6.32309e-05
6.12262e-05
6.90709e-05
5.84743e-05
7.66e-05
5.44906e-05
7.74388e-05
5.1989e-05
7.61483e-05
7.54398e-05
5.04998e-05
1.68862e-06
-4.37381e-05
3.11237e-06
-4.36444e-05
3.90672e-06
-4.34333e-05
4.00422e-06
-4.26273e-05
2.69868e-05
-6.96361e-05
1.03751e-05
-4.61199e-05
1.20097e-05
-4.44165e-05
1.40393e-05
-8.88495e-05
1.52985e-05
-9.0465e-05
1.43231e-05
-8.99756e-05
6.59795e-06
-8.17477e-05
-2.60686e-05
-1.76477e-05
3.63789e-05
-8.36836e-05
9.82608e-05
-0.000126045
9.72856e-05
-0.000161968
7.89208e-05
-9.98689e-05
8.73924e-05
-5.79625e-05
8.18963e-05
6.8727e-05
6.70257e-05
8.39413e-05
6.08465e-05
8.27792e-05
5.55717e-05
8.27136e-05
5.05916e-05
8.11283e-05
7.87376e-05
4.72938e-05
1.81822e-06
-4.55563e-05
3.88597e-06
-4.57122e-05
4.71592e-06
-4.42632e-05
5.98936e-06
-4.39008e-05
7.87095e-06
-7.15177e-05
8.5493e-06
-4.67983e-05
1.13064e-05
-4.71736e-05
1.36996e-05
-9.12428e-05
1.7032e-05
-9.37974e-05
2.59974e-05
-9.89409e-05
4.27486e-05
-9.8499e-05
7.92273e-05
-5.41264e-05
0.000106312
-0.000110768
0.000107961
-0.000127694
7.94227e-05
-0.00013343
5.47972e-05
-7.52434e-05
3.5387e-05
-3.85523e-05
4.19137e-05
6.22003e-05
5.23044e-05
7.35506e-05
5.4617e-05
8.04666e-05
5.19561e-05
8.53746e-05
4.75286e-05
8.55558e-05
8.29941e-05
4.32722e-05
1.71301e-06
-4.72693e-05
4.16145e-06
-4.81606e-05
7.91241e-06
-4.80142e-05
1.70881e-05
-5.30765e-05
2.87443e-06
-5.7304e-05
9.22846e-06
-5.31523e-05
1.26338e-05
-5.05789e-05
1.82078e-05
-9.68168e-05
2.26191e-05
-9.82087e-05
2.4412e-05
-0.000100734
2.06455e-05
-9.47324e-05
6.29793e-05
-9.64602e-05
9.07281e-05
-0.000138517
2.25717e-05
-5.95375e-05
-1.62745e-05
-9.45843e-05
-2.22117e-05
-6.93062e-05
-1.65767e-05
-4.41872e-05
3.45384e-05
1.10854e-05
5.58012e-05
5.22879e-05
5.72695e-05
7.89984e-05
5.1146e-05
9.14981e-05
4.42489e-05
9.2453e-05
8.85902e-05
3.86528e-05
1.11791e-06
-4.83872e-05
2.06866e-06
-4.91113e-05
4.21376e-06
-5.01593e-05
8.913e-06
-5.77757e-05
7.18147e-06
-5.55724e-05
1.2798e-05
-5.87688e-05
1.48348e-05
-5.26157e-05
1.08663e-05
-9.28482e-05
1.3449e-05
-0.000100792
2.18857e-05
-0.00010917
3.62951e-05
-0.000109142
-6.89066e-07
-5.94761e-05
1.85626e-05
-0.000157768
4.56314e-05
-8.66062e-05
4.41944e-05
-9.31473e-05
2.75411e-05
-5.26528e-05
5.00532e-05
-6.66992e-05
5.66926e-05
4.446e-06
7.49188e-05
3.40618e-05
6.77333e-05
8.61839e-05
5.23875e-05
0.000106844
4.15467e-05
0.000103294
9.71123e-05
3.30246e-05
3.70896e-07
-4.87581e-05
-1.57589e-06
-4.71646e-05
-5.21701e-06
-4.65181e-05
1.03882e-05
-7.3381e-05
5.21278e-06
-5.0397e-05
2.26796e-05
-7.62357e-05
1.83485e-05
-4.82846e-05
8.80872e-06
-8.33084e-05
8.98023e-06
-0.000100963
1.72231e-05
-0.000117413
2.9805e-05
-0.000121724
5.42189e-05
-8.389e-05
3.39329e-05
-0.000137482
7.15654e-05
-0.000124239
3.63425e-05
-5.79243e-05
5.61667e-05
-7.24771e-05
5.12368e-05
-6.17693e-05
6.70902e-05
-1.14074e-05
7.15277e-05
2.96244e-05
7.0143e-05
8.75687e-05
4.85773e-05
0.00012841
3.32606e-05
0.000118611
0.000106081
2.42916e-05
2.83184e-06
-5.159e-05
3.19628e-06
-4.7529e-05
7.02973e-08
-4.33922e-05
4.99871e-07
-7.38105e-05
1.73413e-05
-6.72384e-05
1.99229e-05
-7.88173e-05
2.45566e-05
-5.29183e-05
1.94282e-06
-6.06946e-05
7.08809e-07
-9.9729e-05
1.47862e-05
-0.000131491
1.93905e-05
-0.000126328
-3.98357e-05
-2.46637e-05
-4.64341e-05
-0.000130884
-0.00010254
-6.81332e-05
-3.27975e-05
-0.000127666
2.72053e-05
-0.00013248
0.000109972
-0.000144536
0.000149084
-5.05196e-05
0.000151661
2.70478e-05
0.00010324
0.00013599
4.7805e-05
0.000183844
1.80532e-05
0.000148362
0.000113423
1.07113e-05
8.45091e-06
-6.00409e-05
1.02332e-05
-4.93113e-05
8.80727e-06
-4.19662e-05
3.91028e-06
-6.89135e-05
6.62355e-07
-6.39904e-05
2.58731e-07
-7.84137e-05
6.16083e-06
-5.88205e-05
1.09574e-05
-6.54912e-05
-8.16315e-06
-8.06085e-05
2.16428e-05
-0.000161297
6.78757e-05
-0.000172561
5.88321e-05
-1.56201e-05
2.65051e-05
-9.8557e-05
4.53278e-05
-8.69559e-05
1.13179e-05
-9.36566e-05
-1.76138e-05
-0.000103548
-3.10372e-05
-0.000131113
2.56816e-06
-8.4125e-05
6.36576e-06
2.32502e-05
-1.04356e-05
0.000152791
-1.6993e-05
0.000190402
-1.01106e-05
0.00014148
0.000110505
-7.19234e-06
2.07907e-05
-8.08315e-05
2.48673e-05
-5.33879e-05
1.88756e-05
-3.59745e-05
4.93632e-06
-5.49743e-05
-4.59663e-06
-5.44575e-05
-3.15339e-05
-5.14764e-05
-6.73972e-06
-8.36147e-05
-1.79665e-05
-5.42643e-05
-2.46691e-05
-7.39059e-05
1.62511e-05
-0.000202217
2.52516e-05
-0.000181562
1.51344e-05
-5.50285e-06
5.21443e-05
-0.000135567
4.54524e-05
-8.0264e-05
3.89546e-05
-8.71589e-05
6.49145e-07
-6.52427e-05
-7.2802e-05
-5.76615e-05
-0.000128449
-2.84776e-05
-0.000157916
5.27168e-05
-0.000120844
0.000115719
-5.97376e-05
0.000129295
-3.20883e-05
0.000113831
9.77142e-05
-1.92975e-05
4.13364e-05
-0.000122168
4.31312e-05
-5.51827e-05
3.60963e-05
-2.89396e-05
4.9318e-06
-2.38097e-05
-2.44636e-05
-2.5062e-05
-2.72953e-05
-4.86447e-05
-3.8276e-05
-7.26339e-05
-5.18336e-05
-4.07067e-05
-9.45569e-05
-3.11827e-05
-5.72198e-05
-0.000239554
-1.94778e-05
-0.000219304
5.16309e-05
-7.66116e-05
-1.89786e-05
-6.49573e-05
-4.97111e-05
-4.95316e-05
-4.61395e-05
-9.07305e-05
-7.22061e-05
-3.91761e-05
-0.000119513
-1.03548e-05
-0.000155896
7.90584e-06
-0.000147663
4.44841e-05
-9.79643e-05
6.60202e-05
-6.36226e-05
9.49534e-05
-3.97746e-05
8.99825e-05
8.40453e-05
-2.61056e-05
5.61573e-05
-0.000178325
2.2071e-05
-2.10963e-05
1.70414e-05
-2.39101e-05
-3.63813e-06
-3.13016e-06
-2.69288e-05
-1.77139e-06
-2.67833e-06
-7.28952e-05
-1.31685e-05
-6.21438e-05
-3.21057e-05
-2.17695e-05
2.99085e-05
-9.3197e-05
1.67093e-05
-0.000226355
6.70101e-06
-0.000209295
-2.32998e-05
-4.66108e-05
-1.76758e-05
-7.05813e-05
-1.89364e-05
-4.8271e-05
-5.63312e-05
-5.33357e-05
-8.32376e-05
-1.22697e-05
-0.000118608
2.50159e-05
-0.000130969
2.02665e-05
-9.25209e-05
6.03583e-06
-7.71623e-05
5.06616e-05
-5.71675e-05
7.49586e-05
-4.05592e-05
7.33742e-05
7.27711e-05
-2.92851e-05
-2.0804e-05
-0.000157521
7.83204e-06
-4.97324e-05
-1.39593e-05
-2.11879e-06
-5.69168e-05
3.98274e-05
-2.0018e-05
-3.86702e-05
3.48514e-05
-0.000127765
-8.16825e-06
-1.91242e-05
2.96915e-05
-5.96292e-05
7.92343e-05
-0.00014274
-7.63674e-07
-0.000146357
-7.6893e-05
-0.000133166
-4.03704e-05
-8.31334e-05
-5.19074e-05
-5.90443e-05
-5.36841e-05
-4.64943e-05
-5.89018e-05
-4.8118e-05
-6.74931e-05
-3.67846e-06
-7.31873e-05
3.07101e-05
-7.97466e-05
2.68258e-05
-0.000108562
3.4851e-05
-9.74535e-05
3.95533e-05
-6.13354e-05
3.88404e-05
-4.3896e-05
5.59347e-05
6.19843e-05
-3.31092e-05
1.2407e-05
-0.000169928
-4.59248e-05
8.59938e-06
-3.78081e-05
-1.02355e-05
-2.75892e-05
2.96085e-05
-7.47365e-06
-5.87858e-05
-7.32606e-06
-0.000127912
4.70385e-05
-7.34887e-05
-1.94981e-05
6.90732e-06
-7.8764e-06
-0.000154361
-4.76905e-05
-0.000106543
-8.2383e-05
-9.84735e-05
-8.23414e-05
-8.3175e-05
-5.46513e-05
-8.67344e-05
-6.55798e-05
-3.55658e-05
-0.000103985
-9.71236e-06
-0.000106058
-1.6056e-06
-7.53416e-05
-6.63205e-09
-7.37092e-05
2.51934e-05
-6.71565e-05
2.82982e-05
-6.13466e-05
3.37434e-05
-6.91442e-05
4.66381e-05
-6.5833e-05
5.26235e-05
5.09537e-05
-5.48025e-05
-6.18157e-05
-0.000108113
-2.66412e-05
-2.65751e-05
-1.97383e-05
-1.71383e-05
5.3456e-06
4.52454e-06
-5.29288e-06
-4.81473e-05
-3.86507e-05
-9.45543e-05
1.25478e-06
-0.000113394
1.52142e-05
-7.0521e-06
-4.93124e-05
-8.98348e-05
-2.71071e-05
-0.000128748
-5.53943e-05
-7.01863e-05
-7.26428e-05
-6.59265e-05
-0.000108294
-5.10832e-05
-9.36396e-05
-5.02203e-05
-0.000106345
2.99342e-06
-0.00010461
-3.34107e-06
-0.000101007
-3.61008e-06
-7.43128e-05
-1.50038e-06
-6.39863e-05
1.79717e-05
-5.55644e-05
2.53215e-05
-4.74582e-05
3.85319e-05
-3.90103e-05
4.41755e-05
4.42409e-05
-3.22975e-05
-3.33635e-05
-7.47491e-05
-2.08384e-05
-3.91003e-05
-9.06911e-08
-3.7886e-05
4.12087e-05
-3.67748e-05
3.49536e-05
-4.18923e-05
1.01317e-05
-6.97323e-05
-1.55104e-05
-8.77521e-05
1.19438e-05
-3.45064e-05
-6.2985e-06
-7.15925e-05
-5.20417e-05
-8.30047e-05
-5.40386e-05
-6.81894e-05
-6.12691e-05
-5.86961e-05
-6.0586e-05
-5.17664e-05
-8.59572e-05
-2.48492e-05
-6.76384e-05
-1.53254e-05
-6.23321e-05
-8.64742e-06
-5.99095e-05
-6.03273e-06
-5.97761e-05
-1.63379e-06
-5.51785e-05
1.3374e-05
-4.99419e-05
2.00849e-05
-4.37306e-05
3.23205e-05
-3.71856e-05
3.76305e-05
3.93713e-05
-3.2316e-05
-2.0854e-05
-5.38952e-05
-1.31844e-05
-4.67699e-05
-9.34248e-06
-4.1728e-05
1.50628e-05
-6.11801e-05
2.08597e-05
-4.76893e-05
6.77578e-06
-5.56484e-05
-1.23598e-05
-6.86166e-05
4.41606e-07
-4.73078e-05
-9.20433e-06
-6.19465e-05
-2.77879e-05
-6.44212e-05
-3.5087e-05
-6.08903e-05
-4.65498e-05
-4.72333e-05
-6.81296e-05
-3.01866e-05
-6.6086e-05
-2.68927e-05
-5.3298e-05
-2.81134e-05
-5.43398e-05
-7.60572e-06
-5.40495e-05
-6.32307e-06
-5.60484e-05
3.65133e-07
-5.05799e-05
7.90551e-06
-4.38677e-05
1.33726e-05
-4.05033e-05
2.89562e-05
-3.6994e-05
3.41212e-05
3.74114e-05
-3.50341e-05
-9.27508e-06
-4.46201e-05
-7.09381e-06
-4.89512e-05
3.03939e-06
-5.18612e-05
1.3961e-06
-5.95369e-05
1.20586e-05
-5.83518e-05
3.79752e-06
-4.73874e-05
-1.32919e-05
-5.15272e-05
-1.1247e-05
-4.93528e-05
-2.47577e-05
-4.84358e-05
-4.09088e-05
-4.82701e-05
-5.56799e-05
-4.61194e-05
-6.2951e-05
-3.99622e-05
-6.20873e-05
-3.10503e-05
-6.12007e-05
-2.77793e-05
-6.8636e-05
-2.06782e-05
-5.16292e-05
-2.46126e-05
-5.04049e-05
-7.54742e-06
-4.77141e-05
-2.32571e-06
-4.52289e-05
5.4203e-06
-4.22823e-05
1.0426e-05
-3.80306e-05
2.47044e-05
-3.42941e-05
3.03847e-05
3.50041e-05
-3.18869e-05
9.15185e-07
-4.55353e-05
1.32345e-06
-4.93595e-05
-1.36934e-06
-4.91685e-05
-7.7669e-06
-5.31394e-05
-1.30207e-05
-5.3098e-05
-7.66872e-06
-5.27394e-05
-4.03523e-06
-5.51607e-05
-1.4309e-05
-3.90791e-05
-2.59698e-05
-3.67751e-05
-3.55701e-05
-3.86698e-05
-4.31761e-05
-3.85135e-05
-4.7881e-05
-3.52573e-05
-4.88985e-05
-3.00328e-05
-4.66584e-05
-3.00195e-05
-3.71493e-05
-3.01873e-05
-4.03827e-05
-2.13792e-05
-4.12982e-05
-6.63189e-06
-4.11636e-05
-2.46037e-06
-3.94882e-05
3.74483e-06
-3.98359e-05
1.07737e-05
-3.53199e-05
2.01885e-05
-3.07332e-05
2.5798e-05
2.99709e-05
-2.57e-05
4.22799e-07
-4.59582e-05
-2.24078e-06
-4.6696e-05
-3.44321e-06
-4.79661e-05
-7.7269e-06
-4.88557e-05
-1.16408e-05
-4.91842e-05
-1.60471e-05
-4.83332e-05
-2.31481e-05
-4.80598e-05
-1.7516e-05
-4.47112e-05
-2.75226e-05
-2.67685e-05
-3.96447e-05
-2.65478e-05
-3.83711e-05
-3.97871e-05
-3.72916e-05
-3.63369e-05
-2.92373e-05
-3.80871e-05
-3.9287e-05
-1.99699e-05
-4.69462e-05
-2.25282e-05
-5.12715e-05
-1.70538e-05
-3.63403e-05
-2.15631e-05
-3.71075e-05
-1.6932e-06
-3.67302e-05
3.36743e-06
-3.52538e-05
9.29735e-06
-3.19037e-05
1.68383e-05
-2.78438e-05
2.1738e-05
2.52766e-05
-2.31494e-05
-1.41721e-06
-4.4541e-05
-2.93237e-06
-4.51809e-05
-5.06278e-06
-4.58357e-05
-7.93046e-06
-4.59881e-05
-1.12869e-05
-4.58278e-05
-1.46489e-05
-4.49713e-05
-1.85606e-05
-4.41482e-05
-2.09571e-05
-4.23147e-05
-2.50786e-05
-2.26471e-05
-3.00246e-05
-2.16018e-05
-3.51916e-05
-3.46202e-05
-4.05887e-05
-3.09399e-05
-4.62965e-05
-3.23794e-05
-3.67596e-05
-2.95068e-05
-4.45357e-05
-1.47522e-05
-3.84363e-05
-2.31532e-05
-4.75072e-05
-1.24923e-05
-3.34139e-05
-1.57865e-05
-3.50734e-05
5.02683e-06
-3.24046e-05
6.6286e-06
-2.92781e-05
1.37118e-05
-2.53714e-05
1.78313e-05
2.11118e-05
-2.12066e-05
-1.64511e-06
-4.28959e-05
-3.40375e-06
-4.34223e-05
-5.13598e-06
-4.41035e-05
-7.69749e-06
-4.34266e-05
-1.06421e-05
-4.28832e-05
-1.44032e-05
-4.12102e-05
-1.84946e-05
-4.00567e-05
-2.13162e-05
-3.94932e-05
-2.40782e-05
-1.98852e-05
-2.71591e-05
-1.85209e-05
-3.21352e-05
-2.96441e-05
-3.80982e-05
-2.49769e-05
-4.17692e-05
-2.87084e-05
-4.02952e-05
-3.09809e-05
-4.1637e-05
-1.34104e-05
-3.94598e-05
-2.53304e-05
-4.10271e-05
-1.0925e-05
-4.15957e-05
-1.52179e-05
-3.22387e-05
-4.33013e-06
-2.99503e-05
4.3401e-06
-2.68867e-05
1.06483e-05
-2.45329e-05
1.54774e-05
1.87103e-05
-2.21315e-05
-1.09236e-06
-4.18036e-05
-2.41856e-06
-4.20962e-05
-4.66063e-06
-4.18615e-05
-6.9061e-06
-4.11812e-05
-9.48537e-06
-4.0304e-05
-1.30187e-05
-3.7677e-05
-1.65061e-05
-3.65693e-05
-1.84051e-05
-3.75941e-05
-1.91317e-05
-1.91587e-05
-1.91434e-05
-1.85092e-05
-2.97577e-05
-1.90298e-05
-2.34422e-05
-3.12924e-05
-2.44005e-05
-2.77501e-05
-3.36324e-05
-2.1749e-05
-2.19344e-05
-2.51084e-05
-3.42317e-05
-1.30331e-05
-2.52147e-05
-1.9942e-05
-3.36415e-05
-6.79122e-06
-2.51368e-05
-1.28348e-05
-2.74724e-05
6.6757e-06
-2.49188e-05
8.09461e-06
-2.26544e-05
1.3213e-05
1.65783e-05
-2.05224e-05
-9.99801e-07
-4.08038e-05
-2.11955e-06
-4.09765e-05
-4.1489e-06
-3.98322e-05
-5.82211e-06
-3.9508e-05
-8.1657e-06
-3.79604e-05
-1.20199e-05
-3.38228e-05
-1.65415e-05
-3.20478e-05
-1.85565e-05
-3.55792e-05
-1.97808e-05
-1.79344e-05
-2.0679e-05
-1.7611e-05
-2.32067e-05
-1.65022e-05
-2.00457e-05
-3.44534e-05
-2.13039e-05
-2.6492e-05
-2.1099e-05
-2.19539e-05
-2.26745e-05
-2.35329e-05
-2.86836e-05
-7.02407e-06
-2.93729e-05
-1.92527e-05
-2.96879e-05
-6.47624e-06
-3.31038e-05
-9.41894e-06
-2.54468e-05
-9.81272e-07
-2.28368e-05
5.48462e-06
-2.04169e-05
1.07931e-05
1.45326e-05
-1.83712e-05
-1.25886e-06
-3.9545e-05
-2.81194e-06
-3.94234e-05
-3.48873e-06
-3.91554e-05
-3.37065e-06
-3.96262e-05
-1.60462e-06
-3.97265e-05
-1.13451e-05
-2.40823e-05
-1.9911e-05
-2.34819e-05
-1.77553e-05
-3.7735e-05
-1.72582e-05
-1.84315e-05
-1.63297e-05
-1.85395e-05
-1.431e-05
-1.8522e-05
-1.70346e-05
-3.17289e-05
-1.92129e-05
-2.43137e-05
-2.02515e-05
-2.09154e-05
-2.83594e-05
-1.5425e-05
-1.78621e-05
-1.75214e-05
-2.69201e-05
-1.01948e-05
-2.5171e-05
-8.22528e-06
-2.65515e-05
-8.03846e-06
-1.95539e-05
-7.97888e-06
-2.14071e-05
7.3378e-06
-1.92726e-05
8.65854e-06
1.30783e-05
-1.78182e-05
-1.4983e-06
-3.80467e-05
-2.9672e-06
-3.79545e-05
-4.30181e-06
-3.78208e-05
-6.05774e-06
-3.78703e-05
-7.55817e-06
-3.82261e-05
-1.06192e-05
-2.10213e-05
-1.31685e-05
-2.09327e-05
-1.35744e-05
-3.73291e-05
-9.67042e-06
-2.23355e-05
-9.80891e-06
-1.8401e-05
-1.12485e-05
-1.70824e-05
-1.36946e-05
-2.92828e-05
-1.66143e-05
-2.13941e-05
-1.75734e-05
-1.99562e-05
-1.73731e-05
-1.56253e-05
-1.75743e-05
-1.73203e-05
-2.32751e-05
-4.49392e-06
-1.97754e-05
-1.1725e-05
-2.32069e-05
-4.60699e-06
-2.58376e-05
-5.34812e-06
-1.97587e-05
1.25889e-06
-1.7076e-05
5.97584e-06
1.15972e-05
-1.55949e-05
-1.34609e-06
-3.67006e-05
-2.58869e-06
-3.6712e-05
-3.87782e-06
-3.65317e-05
-5.75663e-06
-3.59915e-05
-7.00928e-06
-3.69735e-05
-6.53814e-06
-2.14925e-05
-8.19281e-06
-1.9278e-05
-1.49976e-05
-3.05243e-05
-1.38193e-05
-2.35139e-05
-7.13638e-06
-2.50839e-05
-9.72531e-06
-1.44935e-05
-1.71832e-05
-2.18249e-05
-1.56769e-05
-2.29003e-05
-1.65613e-05
-1.90719e-05
-1.6482e-05
-1.57045e-05
-2.32707e-05
-1.05316e-05
-1.64204e-05
-1.13443e-05
-1.90305e-05
-9.11486e-06
-1.87423e-05
-4.89524e-06
-1.99781e-05
-4.11228e-06
-1.49398e-05
-3.7794e-06
-1.57696e-05
6.8056e-06
1.02492e-05
-1.44216e-05
-6.85624e-07
-3.6015e-05
-1.39912e-06
-3.59985e-05
-3.02514e-06
-3.49057e-05
-4.65639e-06
-3.43602e-05
-1.04539e-05
-3.1176e-05
-3.68355e-06
-2.82628e-05
-7.34662e-06
-1.5615e-05
-1.05501e-05
-2.73208e-05
-1.16194e-05
-2.24446e-05
-7.97656e-06
-2.87268e-05
-8.08046e-06
-1.43896e-05
-1.61334e-05
-1.3772e-05
-1.40166e-05
-2.50172e-05
-1.42038e-05
-1.88847e-05
-1.4265e-05
-1.56433e-05
-1.35076e-05
-1.1289e-05
-1.27175e-05
-1.21344e-05
-1.68954e-05
-4.93693e-06
-1.57169e-05
-6.07372e-06
-1.75036e-05
-2.32558e-06
-1.96347e-05
-1.6483e-06
-1.36012e-05
7.72053e-07
9.96513e-06
-1.33171e-05
-7.0081e-07
-3.53142e-05
-1.43339e-06
-3.52659e-05
-1.89135e-06
-3.44478e-05
-2.84558e-06
-3.3406e-05
-5.91001e-06
-2.81116e-05
-4.30855e-06
-2.98643e-05
-3.92208e-06
-1.60015e-05
-1.29042e-05
-1.83387e-05
-7.11332e-06
-2.82355e-05
-7.31755e-06
-2.85226e-05
-7.56649e-06
-1.41406e-05
-8.34103e-06
-1.29975e-05
-1.09294e-05
-2.24288e-05
-1.22395e-05
-1.75747e-05
-1.27817e-05
-1.5101e-05
-1.25996e-05
-1.14711e-05
-1.76249e-05
-7.10915e-06
-1.60193e-05
-6.54245e-06
-1.53505e-05
-6.74255e-06
-1.58205e-05
-1.85563e-06
-1.68112e-05
-6.57575e-07
-1.82702e-05
2.23105e-06
4.41111e-06
-1.27161e-05
-7.23077e-07
-3.45912e-05
-1.26881e-06
-3.47202e-05
-1.07133e-06
-3.46453e-05
-6.29249e-07
-3.38481e-05
-8.56118e-06
-2.01796e-05
-5.4014e-06
-3.30241e-05
-5.04191e-06
-1.6361e-05
-7.32426e-06
-1.60563e-05
-5.95068e-06
-2.96091e-05
-6.63102e-06
-2.78422e-05
-6.57546e-06
-1.41962e-05
-7.24657e-06
-1.23264e-05
-9.06389e-06
-2.06115e-05
-1.0364e-05
-1.62745e-05
-1.06211e-05
-1.48439e-05
-1.05446e-05
-1.15476e-05
-9.6747e-06
-7.97907e-06
-8.4209e-06
-7.79625e-06
-1.17131e-05
-3.45034e-06
-1.22103e-05
-1.35845e-06
-1.29416e-05
7.37238e-08
-1.22469e-05
1.53639e-06
2.96557e-06
-1.08013e-05
-7.60728e-07
-3.38304e-05
-1.48147e-06
-3.39995e-05
-2.30499e-06
-3.38218e-05
-2.14638e-06
-3.40067e-05
-4.28086e-06
-1.80452e-05
-3.69871e-06
-3.36063e-05
-3.93195e-06
-1.61277e-05
-4.52474e-06
-1.54635e-05
-5.84217e-06
-2.82916e-05
-1.08312e-05
-2.28532e-05
-4.06186e-06
-2.09656e-05
-4.56503e-06
-1.18232e-05
-1.35462e-05
-1.16303e-05