/*--------------------------------*- C++ -*----------------------------------*\
| =========                 |                                                 |
| \\      /  F ield         | foam-extend: Open Source CFD                    |
|  \\    /   O peration     | Version:     4.1                                |
|   \\  /    A nd           | Web:         http://www.foam-extend.org         |
|    \\/     M anipulation  |                                                 |
\*---------------------------------------------------------------------------*/
FoamFile
{
    version     2.0;
    format      ascii;
    class       surfaceScalarField;
    location    "0.1";
    object      phi_0;
}
// * * * * * * * * * * * * * * * * * * * * * * * * * * * * * * * * * * * * * //

dimensions      [0 3 -1 0 0 0 0];

internalField   nonuniform List<scalar> 
4432
(
1.28317e-06
-1.28317e-06
3.49886e-06
-2.21569e-06
5.81988e-06
-2.32101e-06
8.4479e-06
-2.62802e-06
1.14655e-05
-3.01761e-06
1.49696e-05
-3.50409e-06
1.79367e-05
-2.96712e-06
2.39087e-05
-5.97194e-06
3.09086e-05
-6.99994e-06
5.32699e-05
-2.23612e-05
6.44598e-05
-1.119e-05
7.30626e-05
-8.60279e-06
0.000106956
-3.38932e-05
0.000130964
-2.40086e-05
0.000100958
3.00064e-05
9.26636e-05
8.29441e-06
9.9258e-05
-6.5944e-06
0.000102862
-3.60383e-06
0.000124057
-2.11953e-05
0.000128002
-3.94422e-06
7.10711e-05
5.69302e-05
1.51743e-05
5.58977e-05
1.51724e-05
1.3019e-06
-2.58507e-06
3.48165e-06
-4.39544e-06
5.80833e-06
-4.64768e-06
8.4e-06
-5.21968e-06
1.13902e-05
-6.00781e-06
1.48871e-05
-7.00098e-06
1.77693e-05
-5.84923e-06
2.34615e-05
-1.16641e-05
3.0498e-05
-1.40365e-05
5.21201e-05
-4.39833e-05
6.45572e-05
-2.36271e-05
9.64581e-05
-4.05037e-05
9.61636e-05
-3.35987e-05
8.87955e-05
-1.66405e-05
8.07706e-05
3.80314e-05
8.79482e-05
1.11684e-06
0.000109709
-2.83555e-05
0.000146921
-4.08157e-05
0.000162707
-3.69813e-05
0.000126434
3.23293e-05
5.15955e-05
0.000131767
9.53607e-07
0.000106541
1.61262e-05
1.33694e-06
-3.92201e-06
3.46162e-06
-6.52011e-06
5.75638e-06
-6.94243e-06
8.29354e-06
-7.75683e-06
1.11454e-05
-8.85962e-06
1.45076e-05
-1.03632e-05
1.75444e-05
-8.88604e-06
2.24089e-05
-1.65286e-05
2.7296e-05
-1.89237e-05
2.91623e-05
-4.58496e-05
5.17437e-05
-4.62085e-05
0.00010486
-9.36204e-05
0.000122396
-5.1134e-05
7.38328e-05
3.19224e-05
7.09178e-05
4.09463e-05
8.78623e-05
-1.58277e-05
0.000109839
-5.03323e-05
0.00018885
-0.000119827
0.000217573
-6.5704e-05
0.000229538
2.03644e-05
0.000219409
0.000141894
0.000142919
0.000183032
0.000159044
1.40338e-06
-5.32539e-06
3.43832e-06
-8.55505e-06
5.66506e-06
-9.16917e-06
8.16395e-06
-1.02557e-05
1.10329e-05
-1.17285e-05
1.44948e-05
-1.38251e-05
1.68725e-05
-1.12637e-05
2.13611e-05
-2.10172e-05
2.53155e-05
-2.28781e-05
2.9304e-05
-4.9838e-05
3.41155e-05
-5.102e-05
6.55917e-05
-0.000125097
0.000100682
-8.6224e-05
0.000106964
2.56399e-05
8.10189e-05
6.68917e-05
6.66499e-05
-1.4587e-06
8.15311e-05
-6.52134e-05
7.49818e-05
-0.000113277
0.000146622
-0.000137344
0.000189475
-2.24882e-05
0.000190103
0.000141267
0.000133703
0.000239433
0.000292746
1.47637e-06
-6.80176e-06
3.40061e-06
-1.04793e-05
5.54102e-06
-1.13096e-05
7.98377e-06
-1.26985e-05
1.09376e-05
-1.46824e-05
1.43443e-05
-1.72318e-05
1.62392e-05
-1.31585e-05
2.03814e-05
-2.51594e-05
2.31066e-05
-2.56033e-05
2.59992e-05
-5.27306e-05
3.52079e-05
-6.02287e-05
-3.0745e-06
-8.68142e-05
-4.83451e-06
-8.4464e-05
1.06209e-05
1.01845e-05
1.64149e-05
6.10976e-05
1.48616e-05
9.44617e-08
2.15634e-05
-7.19154e-05
3.18073e-05
-0.000123521
6.52783e-05
-0.000170815
0.000109047
-6.62577e-05
0.000100331
0.000149982
5.35941e-05
0.000286169
0.000346341
1.71231e-06
-8.51407e-06
3.40306e-06
-1.217e-05
5.38347e-06
-1.329e-05
7.7431e-06
-1.50581e-05
1.08827e-05
-1.78219e-05
1.45263e-05
-2.08753e-05
2.71992e-05
-2.58314e-05
1.94704e-05
-1.74306e-05
3.10621e-05
-3.71951e-05
2.48437e-05
-4.65122e-05
3.08156e-05
-6.62006e-05
1.82218e-05
-7.42204e-05
-5.79701e-05
-8.27214e-06
-0.000115736
6.79505e-05
-7.73813e-05
2.27426e-05
-4.25259e-07
-7.68616e-05
4.87885e-05
-0.000121129
6.52736e-05
-0.000140006
4.81898e-05
-0.000153731
3.99063e-05
-5.7974e-05
2.47742e-05
0.000165113
-5.738e-06
0.000316682
0.000340604
1.64082e-06
-1.01549e-05
3.27949e-06
-1.38087e-05
5.16059e-06
-1.51711e-05
7.4323e-06
-1.73298e-05
1.03362e-05
-2.07259e-05
1.34148e-05
-2.39539e-05
1.50017e-05
-2.74182e-05
1.94353e-05
-2.18643e-05
3.39892e-05
-5.17489e-05
3.85574e-05
-5.10803e-05
2.41765e-05
-5.18197e-05
2.7962e-05
-7.80059e-05
-3.77123e-05
5.74021e-05
-6.43389e-05
9.45769e-05
-1.1838e-05
-2.97585e-05
1.95429e-05
-0.000108242
3.30109e-05
-0.000134596
2.02075e-05
-0.000127203
-1.80104e-05
-0.000115514
-4.31701e-05
-3.28137e-05
-3.98928e-05
0.000161835
-1.47095e-05
0.000291498
0.000325895
2.28051e-06
-1.24354e-05
2.99314e-06
-1.45213e-05
4.87213e-06
-1.70501e-05
7.03602e-06
-1.94937e-05
1.00074e-05
-2.36972e-05
1.30041e-05
-2.69507e-05
2.31415e-05
-3.75555e-05
3.23514e-05
-3.10742e-05
3.36748e-05
-5.30723e-05
3.80113e-05
-5.54169e-05
3.35046e-05
-4.7313e-05
1.37208e-06
-4.58734e-05
-1.90745e-05
7.78488e-05
9.90375e-06
6.55986e-05
4.71181e-05
-6.69728e-05
4.42162e-05
-0.00010534
4.31467e-05
-0.000133525
1.0697e-05
-9.47531e-05
-3.49836e-05
-6.98358e-05
-6.27163e-05
-5.08082e-06
-4.67929e-05
0.000145911
-2.06236e-05
0.000265328
0.000305271
3.25877e-06
-3.25877e-06
7.7702e-06
-4.5114e-06
1.11065e-05
-3.33634e-06
1.2728e-05
-1.62143e-06
1.30268e-05
-2.98821e-07
1.28388e-05
1.88023e-07
1.2406e-05
4.32735e-07
1.19089e-05
4.97099e-07
1.12305e-05
6.78347e-07
1.05451e-05
6.85283e-07
1.03169e-05
2.28169e-07
1.06103e-05
-2.93435e-07
5.99497e-06
4.6153e-06
4.50513e-06
1.48979e-06
3.32943e-06
1.17565e-06
2.39059e-06
9.38787e-07
1.54919e-06
8.41356e-07
7.61086e-07
7.88053e-07
7.61038e-07
3.25764e-06
-6.51641e-06
8.52674e-06
-9.78044e-06
1.18104e-05
-6.62004e-06
1.3289e-05
-3.10006e-06
1.35771e-05
-5.86856e-07
1.33436e-05
4.21438e-07
1.28302e-05
9.46083e-07
1.22908e-05
1.03638e-06
1.15348e-05
1.43431e-06
1.06919e-05
1.52805e-06
1.02874e-05
6.32598e-07
6.81687e-06
3.17702e-06
5.95333e-06
5.47875e-06
4.53074e-06
2.9123e-06
3.3901e-06
2.3162e-06
2.44006e-06
1.88874e-06
1.5832e-06
1.69813e-06
7.78174e-07
1.59298e-06
1.53917e-06
3.42911e-06
-9.94553e-06
9.2677e-06
-1.5619e-05
1.25709e-05
-9.92327e-06
1.37047e-05
-4.23388e-06
1.38431e-05
-7.25282e-07
1.35033e-05
7.61222e-07
1.30117e-05
1.43769e-06
1.24268e-05
1.62119e-06
1.15043e-05
2.35671e-06
1.07185e-05
2.31378e-06
1.06915e-05
6.59572e-07
6.78026e-06
7.08814e-06
5.78043e-06
6.4785e-06
4.4221e-06
4.27056e-06
3.35123e-06
3.38699e-06
2.4195e-06
2.82038e-06
1.57289e-06
2.54467e-06
7.73774e-07
2.39202e-06
2.31291e-06
4.21942e-06
-1.4165e-05
1.00626e-05
-2.14621e-05
1.33995e-05
-1.32602e-05
1.42875e-05
-5.12188e-06
1.42723e-05
-7.10089e-07
1.38241e-05
1.20936e-06
1.31425e-05
2.11921e-06
1.25462e-05
2.21742e-06
1.13279e-05
3.575e-06
1.04279e-05
3.21371e-06
6.4454e-06
4.64198e-06
6.59831e-06
6.93516e-06
5.51101e-06
7.56573e-06
4.29191e-06
5.48958e-06
3.29456e-06
4.38427e-06
2.38915e-06
3.72573e-06
1.55704e-06
3.3767e-06
7.66847e-07
3.18214e-06
3.07972e-06
5.21282e-06
-1.93778e-05
1.14977e-05
-2.77469e-05
1.46966e-05
-1.64591e-05
1.50732e-05
-5.49843e-06
1.4773e-05
-4.09964e-07
1.42433e-05
1.73902e-06
1.33571e-05
3.00533e-06
1.2751e-05
2.82353e-06
1.14554e-05
4.87056e-06
1.07478e-05
3.92119e-06
6.61073e-06
8.77899e-06
6.32818e-06
7.21764e-06
5.27174e-06
8.6221e-06
4.17326e-06
6.58799e-06
3.2273e-06
5.33015e-06
2.35183e-06
4.60112e-06
1.53697e-06
4.19149e-06
7.57973e-07
3.96107e-06
3.83766e-06
7.17422e-06
-2.6552e-05
1.34695e-05
-3.40421e-05
1.64146e-05
-1.94042e-05
1.61282e-05
-5.21202e-06
1.54976e-05
2.20649e-07
1.46318e-05
2.60479e-06
1.34836e-05
4.15341e-06
1.28816e-05
3.42555e-06
1.14649e-05
6.28716e-06
6.4777e-06
8.90833e-06
6.48458e-06
8.77205e-06
5.93142e-06
7.77073e-06
5.01245e-06
9.54101e-06
4.04285e-06
7.55751e-06
3.15156e-06
6.22137e-06
2.30885e-06
5.44377e-06
1.51331e-06
4.98695e-06
7.47415e-07
4.72689e-06
4.58504e-06
1.15934e-05
-3.81454e-05
1.65531e-05
-3.90017e-05
1.85462e-05
-2.13973e-05
1.73708e-05
-4.03659e-06
1.62932e-05
1.29818e-06
1.49209e-05
3.97711e-06
1.3515e-05
5.55928e-06
7.375e-06
9.56547e-06
6.53849e-06
7.12361e-06
6.39288e-06
9.05387e-06
6.26193e-06
8.90293e-06
5.60235e-06
8.43025e-06
4.78505e-06
1.03582e-05
3.9095e-06
8.43299e-06
3.07085e-06
7.05995e-06
2.26161e-06
6.25294e-06
1.48676e-06
5.76173e-06
7.35435e-07
5.47815e-06
5.32044e-06
2.78022e-05
-6.59476e-05
2.34822e-05
-3.46816e-05
1.12791e-05
-9.19421e-06
9.86741e-06
-2.62489e-06
8.95088e-06
2.2147e-06
8.08553e-06
4.84243e-06
7.21521e-06
6.42956e-06
7.61941e-06
9.16122e-06
6.76177e-06
7.9812e-06
6.49424e-06
9.32134e-06
6.10672e-06
9.29039e-06
5.25854e-06
9.27837e-06
4.52659e-06
1.10901e-05
3.77645e-06
9.18307e-06
2.98905e-06
7.84729e-06
2.21288e-06
7.02904e-06
1.4589e-06
6.51565e-06
7.22744e-07
6.21424e-06
6.04316e-06
4.77302e-06
-1.72084e-05
1.04079e-05
-2.01562e-05
1.73285e-05
-2.39706e-05
2.51682e-05
-2.73334e-05
3.44413e-05
-3.29703e-05
4.29696e-05
-3.54789e-05
4.82779e-05
-4.28639e-05
6.24967e-05
-4.5293e-05
6.51694e-05
-5.57449e-05
6.83761e-05
-5.86236e-05
8.26562e-05
-6.15931e-05
0.000101766
-6.49833e-05
0.000194498
-1.48829e-05
0.000149446
0.000110651
0.000113536
-3.10626e-05
0.000136099
-0.000127904
9.03067e-05
-8.77316e-05
2.39158e-05
-2.83621e-05
-3.47438e-05
-1.11771e-05
-7.81179e-05
3.82934e-05
-4.73478e-05
0.000115141
1.13749e-05
0.000206605
0.000149676
0.00016697
-2.38695e-07
-1.69697e-05
6.29074e-06
-2.66857e-05
1.23089e-05
-2.99888e-05
1.83286e-05
-3.33531e-05
1.74716e-05
-3.21133e-05
2.14035e-05
-3.94109e-05
2.3452e-05
-4.49123e-05
2.88087e-05
-5.06497e-05
3.19117e-05
-5.8848e-05
3.38955e-05
-6.06074e-05
2.54343e-05
-5.31318e-05
5.04717e-05
-9.00208e-05
8.11791e-05
-4.55903e-05
0.000173336
1.84939e-05
0.000150779
-8.50569e-06
7.50979e-05
-5.22231e-05
5.29326e-05
-6.5566e-05
2.69529e-05
-2.38263e-06
2.31663e-06
1.34584e-05
-2.45655e-05
6.51753e-05
2.49703e-05
6.56046e-05
9.13058e-05
0.000140269
0.000117385
0.000123596
5.41732e-06
-2.2387e-05
1.56712e-06
-2.28355e-05
5.39476e-06
-3.38164e-05
1.02183e-05
-3.81766e-05
1.44658e-05
-3.63607e-05
1.76515e-05
-4.25966e-05
1.99611e-05
-4.7222e-05
2.52536e-05
-5.59422e-05
3.07375e-05
-6.43318e-05
3.41683e-05
-6.40382e-05
4.75574e-05
-6.65209e-05
4.43288e-06
-4.68963e-05
2.11543e-05
-6.23118e-05
8.02913e-05
-4.06431e-05
0.000130547
-5.87616e-05
0.000135792
-5.74686e-05
9.68979e-05
-2.6671e-05
5.49575e-05
3.95579e-05
3.42261e-05
3.41896e-05
3.1728e-05
6.76734e-05
3.83475e-05
5.89842e-05
7.11787e-05
0.000107438
9.689e-05
9.16734e-05
6.13608e-06
-2.85231e-05
1.24424e-05
-2.91418e-05
8.43128e-06
-2.98052e-05
1.71278e-05
-4.68731e-05
9.68226e-06
-2.89152e-05
1.43966e-05
-4.7311e-05
1.63709e-05
-4.91963e-05
2.08072e-05
-6.03784e-05
2.69312e-05
-7.04558e-05
3.44256e-05
-7.15326e-05
9.2432e-06
-4.13385e-05
7.35732e-05
-0.000111226
4.23398e-05
-3.10784e-05
7.63949e-05
-7.46983e-05
7.69431e-05
-5.931e-05
8.65965e-05
-6.71224e-05
6.68086e-05
-6.88324e-06
4.50981e-05
6.12683e-05
3.63812e-05
4.29061e-05
3.03367e-05
7.37176e-05
4.49455e-05
4.43748e-05
6.34718e-05
8.89113e-05
8.26974e-05
7.76643e-05
5.01071e-06
-3.35338e-05
1.02644e-05
-3.43955e-05
1.65224e-05
-3.60633e-05
9.93385e-06
-4.02846e-05
1.96123e-05
-3.85937e-05
1.4459e-05
-4.21576e-05
9.98752e-06
-4.47248e-05
2.42823e-05
-7.46732e-05
2.55133e-05
-7.16868e-05
3.09818e-05
-7.70011e-05
6.68262e-05
-7.71829e-05
9.60325e-05
-0.000140432
0.000179028
-0.000114074
0.000158244
-5.39147e-05
0.000156992
-5.80582e-05
0.000138754
-4.88846e-05
8.27495e-05
4.91211e-05
6.97771e-05
7.42402e-05
5.07512e-05
6.19315e-05
5.74577e-05
6.70108e-05
3.92644e-05
6.25676e-05
5.42535e-05
7.39221e-05
7.35745e-05
6.33764e-05
3.38288e-06
-3.69167e-05
6.40914e-06
-3.74218e-05
9.07112e-06
-3.87252e-05
8.945e-06
-4.01584e-05
1.17756e-05
-4.14242e-05
1.32455e-05
-4.36276e-05
1.35901e-05
-4.50693e-05
1.73894e-05
-7.84725e-05
2.21301e-05
-7.64275e-05
2.4065e-05
-7.8936e-05
3.1691e-05
-8.4809e-05
-3.70694e-05
-7.16721e-05
-3.30726e-05
-0.000118071
-3.20055e-05
-5.49818e-05
8.03887e-06
-9.81026e-05
2.72551e-05
-6.81012e-05
5.19845e-05
2.43911e-05
6.59546e-05
6.02696e-05
5.92285e-05
6.86572e-05
5.56767e-05
7.05623e-05
5.13928e-05
6.68514e-05
5.44868e-05
7.0828e-05
7.10931e-05
5.69682e-05
2.53861e-06
-3.94553e-05
4.85186e-06
-3.9735e-05
7.06299e-06
-4.09364e-05
7.36853e-06
-4.0464e-05
9.99401e-06
-4.40497e-05
1.24558e-05
-4.60894e-05
1.48157e-05
-4.74292e-05
1.96613e-05
-8.33181e-05
2.98603e-05
-8.66265e-05
3.77252e-05
-8.6801e-05
4.74482e-05
-9.45319e-05
5.51544e-05
-7.93783e-05
-5.22159e-05
-1.07002e-05
-6.95901e-05
-3.76077e-05
-4.24682e-05
-0.000125225
-1.65072e-05
-9.40624e-05
2.75514e-05
-1.96679e-05
5.91168e-05
2.87038e-05
5.64698e-05
7.13039e-05
5.58759e-05
7.1156e-05
5.22794e-05
7.04477e-05
5.23964e-05
7.0711e-05
7.08155e-05
5.26741e-05
1.67884e-06
-4.11342e-05
3.25238e-06
-4.13086e-05
3.92611e-06
-4.16101e-05
5.20723e-06
-4.17451e-05
6.8558e-06
-4.56983e-05
2.14501e-05
-6.06837e-05
1.60725e-05
-4.20516e-05
1.70539e-05
-8.42994e-05
1.72399e-05
-8.68125e-05
1.9587e-05
-8.91481e-05
1.20415e-05
-8.69864e-05
-1.7945e-05
-4.93918e-05
-9.23956e-06
-1.94056e-05
1.572e-05
-6.25673e-05
4.79137e-05
-0.000157418
6.92034e-05
-0.000115352
9.17039e-05
-4.21688e-05
5.50929e-05
6.53146e-05
5.94814e-05
6.69151e-05
5.69429e-05
7.36944e-05
5.2872e-05
7.45185e-05
5.04322e-05
7.31509e-05
7.23485e-05
4.88992e-05
1.68152e-06
-4.28157e-05
3.11033e-06
-4.27374e-05
4.06031e-06
-4.25601e-05
4.01102e-06
-4.16958e-05
2.58989e-05
-6.75862e-05
1.02778e-05
-4.50626e-05
1.20062e-05
-4.37801e-05
1.4059e-05
-8.63522e-05
1.53203e-05
-8.80737e-05
1.42533e-05
-8.80812e-05
6.45278e-06
-7.91859e-05
-2.72045e-05
-1.57346e-05
3.63193e-05
-8.29294e-05
9.58151e-05
-0.000122063
9.5116e-05
-0.000156719
7.74727e-05
-9.77089e-05
8.43523e-05
-4.90484e-05
7.9184e-05
7.04828e-05
6.51059e-05
8.09931e-05
5.89048e-05
7.98954e-05
5.38089e-05
7.96144e-05
4.90266e-05
7.79333e-05
7.55829e-05
4.57923e-05
1.77098e-06
-4.45867e-05
3.77818e-06
-4.47446e-05
4.66137e-06
-4.34432e-05
6.02965e-06
-4.30641e-05
7.64315e-06
-6.91997e-05
8.46123e-06
-4.58807e-05
1.11937e-05
-4.65125e-05
1.34718e-05
-8.86304e-05
1.65927e-05
-9.11946e-05
2.48306e-05
-9.6319e-05
4.08867e-05
-9.5242e-05
7.70316e-05
-5.18794e-05
0.000103813
-0.000109711
0.000101676
-0.000119926
7.58683e-05
-0.000130912
5.54501e-05
-7.72907e-05
3.57032e-05
-2.93016e-05
4.24785e-05
6.37075e-05
5.15661e-05
7.19055e-05
5.33717e-05
7.80899e-05
5.05658e-05
8.24203e-05
4.61355e-05
8.23636e-05
7.9752e-05
4.19665e-05
1.62252e-06
-4.62092e-05
3.95896e-06
-4.7081e-05
7.50881e-06
-4.69931e-05
1.62061e-05
-5.17613e-05
2.91458e-06
-5.59082e-05
9.01204e-06
-5.19781e-05
1.21984e-05
-4.96989e-05
1.76934e-05
-9.41253e-05
2.20095e-05
-9.55107e-05
2.34561e-05
-9.77656e-05
1.98776e-05
-9.16636e-05
6.3036e-05
-9.50378e-05
8.25031e-05
-0.000129178
2.04439e-05
-5.78666e-05
-1.85617e-05
-9.19066e-05
-2.80009e-05
-6.78514e-05
-1.65142e-05
-4.07883e-05
3.41126e-05
1.30809e-05
5.41202e-05
5.18979e-05
5.5251e-05
7.69592e-05
4.94179e-05
8.82535e-05
4.28995e-05
8.8882e-05
8.51425e-05
3.7509e-05
1.04832e-06
-4.72575e-05
1.94982e-06
-4.79825e-05
3.88915e-06
-4.89324e-05
8.70979e-06
-5.6582e-05
6.92285e-06
-5.41213e-05
1.25416e-05
-5.75968e-05
1.44562e-05
-5.16135e-05
1.05784e-05
-9.02475e-05
1.31755e-05
-9.81079e-05
2.12477e-05
-0.000105838
3.50872e-05
-0.000105503
-1.71366e-06
-5.8237e-05
2.10749e-05
-0.000151966
4.57776e-05
-8.25693e-05
4.49492e-05
-9.10782e-05
2.75727e-05
-5.04748e-05
4.98239e-05
-6.30395e-05
5.50409e-05
7.86393e-06
7.22192e-05
3.47198e-05
6.45905e-05
8.4588e-05
5.02069e-05
0.000102637
4.00769e-05
9.9012e-05
9.31925e-05
3.20269e-05
3.70304e-07
-4.76278e-05
-1.44875e-06
-4.61635e-05
-4.86271e-06
-4.55185e-05
9.91121e-06
-7.13559e-05
5.0865e-06
-4.92965e-05
2.18576e-05
-7.4368e-05
1.77729e-05
-4.75288e-05
8.46732e-06
-8.09419e-05
8.94593e-06
-9.85865e-05
1.70474e-05
-0.000113939
3.04896e-05
-0.000118945
5.61022e-05
-8.38496e-05
3.99208e-05
-0.000135785
7.25932e-05
-0.000115242
3.57788e-05
-5.42639e-05
5.53619e-05
-7.00579e-05
5.11275e-05
-5.8805e-05
6.73698e-05
-8.37834e-06
7.12506e-05
3.0839e-05
6.82991e-05
8.75395e-05
4.72859e-05
0.00012365
3.27631e-05
0.000113535
0.000102055
2.39006e-05
2.63759e-06
-5.02654e-05
2.93841e-06
-4.64643e-05
-7.60386e-09
-4.25725e-05
4.49429e-07
-7.18129e-05
1.65052e-05
-6.53523e-05
1.90306e-05
-7.68934e-05
2.35649e-05
-5.20631e-05
2.42958e-06
-5.98065e-05
7.87502e-07
-9.69444e-05
1.40282e-05
-0.00012718
1.86566e-05
-0.000123574
-4.12644e-05
-2.39287e-05
-4.39243e-05
-0.000133125
-9.95977e-05
-5.95682e-05
-2.86606e-05
-0.000125201
3.11196e-05
-0.000129838
0.000116104
-0.00014379
0.000154512
-4.67859e-05
0.000153374
3.19768e-05
0.00010038
0.000140534
4.58535e-05
0.000178177
1.71707e-05
0.000142218
0.000108722
1.05041e-05
7.94799e-06
-5.82134e-05
9.6721e-06
-4.81884e-05
8.21765e-06
-4.1118e-05
3.60987e-06
-6.72051e-05
4.77134e-07
-6.22195e-05
-4.96651e-08
-7.63666e-05
5.97667e-06
-5.80895e-05
1.03551e-05
-6.4185e-05
-7.73773e-06
-7.88516e-05
1.91271e-05
-0.000154045
6.19836e-05
-0.00016643
5.75208e-05
-1.94659e-05
1.79273e-05
-9.35313e-05
4.05257e-05
-8.21666e-05
1.18684e-05
-9.65436e-05
-1.67357e-05
-0.000101234
-2.97458e-05
-0.00013078
1.68802e-06
-7.82197e-05
5.52109e-06
2.81438e-05
-1.10684e-05
0.000157123
-1.5767e-05
0.000182875
-9.02892e-06
0.00013548
0.000106123
-6.43024e-06
1.93539e-05
-7.75673e-05
2.34222e-05
-5.22567e-05
1.78912e-05
-3.5587e-05
4.52914e-06
-5.38431e-05
-4.70085e-06
-5.29896e-05
-3.06639e-05
-5.04035e-05
-6.67253e-06
-8.20808e-05
-1.58304e-05
-5.50271e-05
-2.04159e-05
-7.42661e-05
2.26634e-05
-0.000197124
2.32089e-05
-0.000166976
8.98442e-06
-5.24143e-06
5.10301e-05
-0.000135577
4.88257e-05
-7.99622e-05
3.96644e-05
-8.73823e-05
1.36275e-06
-6.29324e-05
-7.49554e-05
-5.44616e-05
-0.000127158
-2.60174e-05
-0.000154341
5.53272e-05
-0.000112062
0.000114845
-5.54974e-05
0.00012631
-2.99269e-05
0.000109909
9.42211e-05
-1.80249e-05
3.98156e-05
-0.000117383
4.16386e-05
-5.40797e-05
3.46962e-05
-2.86445e-05
4.68817e-06
-2.38351e-05
-2.39736e-05
-2.43278e-05
-2.74142e-05
-4.6963e-05
-3.7405e-05
-7.20901e-05
-5.23477e-05
-4.00844e-05
-9.70314e-05
-2.95823e-05
-5.36418e-05
-0.000240514
2.32024e-06
-0.000222938
5.45949e-05
-5.75161e-05
-2.24826e-05
-5.84995e-05
-5.22166e-05
-5.02283e-05
-4.76619e-05
-9.19369e-05
-6.99565e-05
-4.06378e-05
-0.000115001
-9.41707e-06
-0.000151224
1.02051e-05
-0.000142078
4.61813e-05
-9.44845e-05
6.72515e-05
-6.03256e-05
9.21514e-05
-3.76904e-05
8.72738e-05
8.12487e-05
-2.4718e-05
5.53797e-05
-0.000172763
2.18402e-05
-2.05402e-05
1.68174e-05
-2.36217e-05
-4.06143e-06
-2.95631e-06
-2.64823e-05
-1.9069e-06
-5.30204e-06
-6.81432e-05
-1.37144e-05
-6.36778e-05
-3.36116e-05
-2.01872e-05
2.04352e-05
-8.36291e-05
1.2082e-05
-0.00023216
8.35349e-06
-0.000219209
-1.35698e-05
-3.55928e-05
-8.7693e-06
-6.33e-05
-1.36011e-05
-4.53965e-05
-5.30731e-05
-5.2465e-05
-8.16621e-05
-1.20488e-05
-0.000116211
2.51315e-05
-0.000127604
2.15986e-05
-8.89033e-05
7.48043e-06
-7.38905e-05
5.22387e-05
-5.46837e-05
7.29446e-05
-3.8735e-05
7.13251e-05
7.04448e-05
-2.7931e-05
-8.92931e-06
-0.000163833
9.68156e-06
-3.91511e-05
-1.00508e-05
-3.88927e-06
-5.75095e-05
4.45023e-05
-1.57605e-05
-4.36559e-05
3.70075e-05
-0.000120911
-6.89428e-06
-1.9776e-05
2.75074e-05
-5.45889e-05
9.03876e-05
-0.000146509
5.79204e-06
-0.000147565
-7.79292e-05
-0.000135488
-4.00134e-05
-7.35087e-05
-4.80661e-05
-5.52473e-05
-4.98075e-05
-4.36551e-05
-5.69381e-05
-4.53344e-05
-6.69819e-05
-2.00493e-06
-7.14659e-05
2.96155e-05
-7.71592e-05
2.72919e-05
-0.000104697
3.5018e-05
-9.16504e-05
3.91923e-05
-5.87802e-05
4.00743e-05
-4.19098e-05
5.44547e-05
6.01465e-05
-3.16115e-05
1.53471e-05
-0.00017918
-4.55613e-05
2.17573e-05
-4.45786e-05
-4.872e-06
-1.73718e-05
1.72956e-05
-6.39549e-06
-5.46322e-05
-5.98355e-06
-0.000121323
4.75049e-05
-7.32644e-05
-2.17833e-05
1.46992e-05
-1.02278e-05
-0.000158065
-4.63303e-05
-0.000111462
-8.88432e-05
-9.2975e-05
-8.11348e-05
-8.12172e-05
-5.30421e-05
-8.33399e-05
-6.2833e-05
-3.38642e-05
-9.92224e-05
-8.94499e-06
-0.000101074
-1.53751e-07
-7.29877e-05
1.52962e-06
-7.13854e-05
2.56896e-05
-6.49845e-05
2.86172e-05
-5.92658e-05
3.34736e-05
-6.53553e-05
4.61639e-05
-6.25271e-05
5.16264e-05
4.97084e-05
-5.2089e-05
-6.5473e-05
-0.000113707
-2.65491e-05
-1.71666e-05
-1.78129e-05
-1.36082e-05
3.73263e-06
-4.24994e-06
-7.28295e-06
-4.36166e-05
-4.02429e-05
-8.83632e-05
1.08652e-08
-0.000113518
1.85643e-05
-3.85424e-06
-4.99587e-05
-8.95417e-05
-2.97074e-05
-0.000131714
-5.41326e-05
-6.85498e-05
-7.16609e-05
-6.36889e-05
-0.000104579
-5.04218e-05
-9.16778e-05
-4.67655e-05
-0.000103879
3.25607e-06
-0.000102059
-1.97385e-06
-9.80368e-05
-2.4923e-06
-7.20655e-05
-2.81749e-07
-6.20525e-05
1.86041e-05
-5.39603e-05
2.53814e-05
-4.58361e-05
3.80397e-05
-3.75684e-05
4.33587e-05
4.32003e-05
-3.10603e-05
-4.00234e-05
-7.36839e-05
-2.13117e-05
-3.58784e-05
7.33335e-07
-3.56532e-05
3.60023e-05
-3.95189e-05
3.38141e-05
-4.14285e-05
1.09583e-05
-6.55073e-05
-1.54025e-05
-8.71574e-05
1.38054e-05
-3.30621e-05
-5.75887e-06
-6.99775e-05
-5.32874e-05
-8.41852e-05
-5.4709e-05
-6.71282e-05
-6.11731e-05
-5.72248e-05
-6.14598e-05
-5.0135e-05
-8.44085e-05
-2.38168e-05
-6.69319e-05
-1.42205e-05
-6.12614e-05
-7.64445e-06
-5.88474e-05
-4.90622e-06
-5.8457e-05
-6.72165e-07
-5.36915e-05
1.38386e-05
-4.84425e-05
2.01324e-05
-4.23221e-05
3.19193e-05
-3.59459e-05
3.69825e-05
3.84789e-05
-3.12244e-05
-2.15734e-05
-5.21105e-05
-1.26251e-05
-4.48268e-05
-7.55495e-06
-4.07233e-05
1.2583e-05
-5.96569e-05
1.95952e-05
-4.84407e-05
7.24923e-06
-5.31614e-05
-1.25908e-05
-6.73174e-05
1.24861e-06
-4.69015e-05
-7.92047e-06
-6.08085e-05
-2.82803e-05
-6.38254e-05
-3.58225e-05
-5.95859e-05
-4.67522e-05
-4.62951e-05
-6.73489e-05
-2.95383e-05
-6.50151e-05
-2.61507e-05
-5.29018e-05
-2.63337e-05
-5.36399e-05
-6.90644e-06
-5.30773e-05
-5.46879e-06
-5.46385e-05
8.89033e-07
-4.92527e-05
8.45274e-06
-4.26992e-05
1.35789e-05
-3.9377e-05
2.85971e-05
-3.58005e-05
3.3406e-05
3.6577e-05
-3.38987e-05
-8.52622e-06
-4.35843e-05
-5.95562e-06
-4.73974e-05
3.52013e-06
-5.01991e-05
1.64795e-06
-5.77847e-05
1.0572e-05
-5.73647e-05
3.80804e-06
-4.63975e-05
-1.29377e-05
-5.05716e-05
-1.08341e-05
-4.90052e-05
-2.41417e-05
-4.75008e-05
-4.02577e-05
-4.77095e-05
-5.4712e-05
-4.51316e-05
-6.19215e-05
-3.90857e-05
-6.10886e-05
-3.03712e-05
-6.04178e-05
-2.68215e-05
-6.67857e-05
-1.99659e-05
-5.09885e-05
-2.27036e-05
-4.94255e-05
-7.03187e-06
-4.68461e-05
-1.69035e-06
-4.41e-05
5.70664e-06
-4.11254e-05
1.06043e-05
-3.69351e-05
2.44068e-05
-3.32548e-05
2.97257e-05
3.41499e-05
-3.08277e-05
6.41541e-07
-4.42259e-05
1.21221e-06
-4.79681e-05
-1.10689e-06
-4.788e-05
-7.03004e-06
-5.18616e-05
-1.22206e-05
-5.21742e-05
-7.373e-06
-5.12451e-05
-4.2716e-06
-5.36731e-05
-1.4547e-05
-3.87298e-05
-2.57732e-05
-3.62747e-05
-3.5294e-05
-3.81887e-05
-4.25676e-05
-3.78581e-05
-4.7239e-05
-3.44143e-05
-4.8533e-05
-2.90772e-05
-4.60997e-05
-2.92549e-05
-3.70704e-05
-2.89952e-05
-3.958e-05
-2.0194e-05
-4.05146e-05
-6.09731e-06
-4.03423e-05
-1.86269e-06
-3.85868e-05
3.9512e-06
-3.88218e-05
1.08393e-05
-3.43171e-05
1.9902e-05
-2.99052e-05
2.53138e-05
2.929e-05
-2.50453e-05
4.28922e-07
-4.46548e-05
-1.96307e-06
-4.55761e-05
-3.15565e-06
-4.66875e-05
-7.37645e-06
-4.76408e-05
-1.14617e-05
-4.80889e-05
-1.53939e-05
-4.73129e-05
-2.21896e-05
-4.68774e-05
-1.71648e-05
-4.37547e-05
-2.69889e-05
-2.64505e-05
-3.88966e-05
-2.6281e-05
-3.78336e-05
-3.89211e-05
-3.66495e-05
-3.55984e-05
-2.88746e-05
-3.68521e-05
-3.89529e-05
-1.91766e-05
-4.61741e-05
-2.1774e-05
-5.00062e-05
-1.63619e-05
-3.57999e-05
-2.03036e-05
-3.62714e-05
-1.39116e-06
-3.58447e-05
3.52451e-06
-3.4417e-05
9.41161e-06
-3.10577e-05
1.65428e-05
-2.705e-05
2.13061e-05
2.46731e-05
-2.24331e-05
-1.27171e-06
-4.33831e-05
-2.81794e-06
-4.40299e-05
-4.85334e-06
-4.46521e-05
-7.65591e-06
-4.48382e-05
-1.10179e-05
-4.47269e-05
-1.44186e-05
-4.39123e-05
-1.82101e-05
-4.30859e-05
-2.04857e-05
-4.14791e-05
-2.45334e-05
-2.24029e-05
-2.94639e-05
-2.13506e-05
-3.44618e-05
-3.39231e-05
-3.97085e-05
-3.03517e-05
-4.51954e-05
-3.13653e-05
-3.57856e-05
-2.85864e-05
-4.33919e-05
-1.41677e-05
-3.77965e-05
-2.19573e-05
-4.62396e-05
-1.18606e-05
-3.28195e-05
-1.48112e-05
-3.42842e-05
4.98916e-06
-3.15685e-05
6.69598e-06
-2.85376e-05
1.35118e-05
-2.47002e-05
1.74687e-05
2.05992e-05
-2.06263e-05
-1.60342e-06
-4.17797e-05
-3.31129e-06
-4.2322e-05
-4.99691e-06
-4.29665e-05
-7.47817e-06
-4.2357e-05
-1.03701e-05
-4.1835e-05
-1.40249e-05
-4.02576e-05
-1.79762e-05
-3.91346e-05
-2.08454e-05
-3.861e-05
-2.35598e-05
-1.96885e-05
-2.66247e-05
-1.82857e-05
-3.14939e-05
-2.9054e-05
-3.72949e-05
-2.45508e-05
-4.07849e-05
-2.78752e-05
-3.93596e-05
-3.00118e-05
-4.05805e-05
-1.29468e-05
-3.85424e-05
-2.39954e-05
-4.01107e-05
-1.02923e-05
-4.04101e-05
-1.45118e-05
-3.15391e-05
-3.88187e-06
-2.91857e-05
4.34262e-06
-2.62158e-05
1.05419e-05
-2.38522e-05
1.51051e-05
1.82048e-05
-2.14577e-05
-1.06699e-06
-4.07127e-05
-2.37936e-06
-4.10097e-05
-4.55204e-06
-4.07938e-05
-6.76111e-06
-4.01479e-05
-9.31023e-06
-3.92859e-05
-1.27305e-05
-3.68373e-05
-1.61006e-05
-3.57645e-05
-1.80517e-05
-3.66588e-05
-1.87909e-05
-1.89493e-05
-1.87175e-05
-1.83591e-05
-2.90373e-05
-1.87342e-05
-2.30854e-05
-3.05026e-05
-2.40537e-05
-2.6907e-05
-3.28944e-05
-2.11711e-05
-2.18148e-05
-2.40264e-05
-3.31636e-05
-1.26466e-05
-2.43257e-05
-1.91302e-05
-3.25016e-05
-6.33592e-06
-2.45889e-05
-1.17947e-05
-2.67721e-05
6.52587e-06
-2.42455e-05
8.01533e-06
-2.20643e-05
1.29238e-05
1.60974e-05
-1.99569e-05
-9.90683e-07
-3.9722e-05
-2.10466e-06
-3.98957e-05
-4.04697e-06
-3.88515e-05
-5.67835e-06
-3.85166e-05
-7.99531e-06
-3.69689e-05
-1.16728e-05
-3.31599e-05
-1.62019e-05
-3.12353e-05
-1.81607e-05
-3.47001e-05
-1.93584e-05
-1.77516e-05
-2.04079e-05
-1.73095e-05
-2.28107e-05
-1.63315e-05
-2.00735e-05
-3.32398e-05
-2.10594e-05
-2.59211e-05
-2.07811e-05
-2.14493e-05
-2.23902e-05
-2.24173e-05
-2.80871e-05
-6.94968e-06
-2.89272e-05
-1.82901e-05
-2.90603e-05
-6.2028e-06
-3.20827e-05
-8.77224e-06
-2.48637e-05
-6.93147e-07
-2.22411e-05
5.39277e-06
-1.99412e-05
1.06239e-05
1.41161e-05
-1.79599e-05
-1.23031e-06
-3.84917e-05
-2.76766e-06
-3.83584e-05
-3.48568e-06
-3.81335e-05
-3.43675e-06
-3.85655e-05
-1.75064e-06
-3.8655e-05
-1.10587e-05
-2.38519e-05
-1.91686e-05
-2.31254e-05
-1.72551e-05
-3.66136e-05
-1.68932e-05
-1.81135e-05
-1.59289e-05
-1.82738e-05
-1.40902e-05
-1.81702e-05
-1.67677e-05
-3.05623e-05
-1.90429e-05
-2.36459e-05
-2.03303e-05
-2.0162e-05
-2.76736e-05
-1.5074e-05
-1.77133e-05
-1.691e-05
-2.63363e-05
-9.66707e-06
-2.46662e-05
-7.87296e-06
-2.57931e-05
-7.64526e-06
-1.91622e-05
-7.32411e-06
-2.08413e-05
7.07187e-06
-1.87591e-05
8.54174e-06
1.26865e-05
-1.73294e-05
-1.46447e-06
-3.70273e-05
-2.89618e-06
-3.69267e-05
-4.21665e-06
-3.6813e-05
-5.80988e-06
-3.69723e-05
-7.19098e-06
-3.72739e-05
-1.03919e-05
-2.06509e-05
-1.29899e-05
-2.05275e-05
-1.33483e-05
-3.62551e-05
-9.51186e-06
-2.195e-05
-9.74999e-06
-1.80357e-05
-1.12171e-05
-1.6703e-05
-1.35744e-05
-2.82051e-05
-1.63819e-05
-2.08384e-05
-1.7235e-05
-1.93089e-05
-1.70759e-05
-1.52331e-05
-1.74997e-05
-1.64862e-05
-2.27829e-05
-4.38393e-06
-1.94268e-05
-1.1229e-05
-2.26544e-05
-4.41762e-06
-2.49969e-05
-4.9816e-06
-1.93516e-05
1.42651e-06
-1.66387e-05
5.82889e-06
1.12411e-05
-1.51934e-05
-1.31053e-06
-3.57168e-05
-2.47517e-06
-3.57621e-05
-3.65208e-06
-3.56361e-05
-5.61896e-06
-3.50054e-05
-6.95114e-06
-3.59418e-05
-6.4874e-06
-2.11147e-05
-8.01128e-06
-1.90037e-05
-1.4414e-05
-2.98524e-05
-1.3579e-05
-2.2785e-05
-7.21861e-06
-2.43961e-05
-9.67174e-06
-1.42499e-05
-1.69107e-05
-2.09662e-05
-1.54415e-05
-2.23076e-05
-1.62068e-05
-1.85436e-05
-1.62466e-05
-1.51933e-05
-2.2477e-05
-1.02557e-05
-1.59094e-05
-1.09516e-05
-1.84761e-05
-8.66229e-06
-1.8279e-05
-4.61469e-06
-1.9392e-05
-3.86865e-06
-1.4602e-05
-3.36348e-06
-1.53634e-05
6.59031e-06
9.88112e-06
-1.40033e-05
-6.89027e-07
-3.50277e-05
-1.42812e-06
-3.5023e-05
-3.09459e-06
-3.39697e-05
-4.65668e-06
-3.34434e-05
-1.01009e-05
-3.04975e-05
-3.71196e-06
-2.75036e-05
-7.25988e-06
-1.54557e-05
-1.02664e-05
-2.68459e-05
-1.16235e-05
-2.1428e-05
-7.95166e-06
-2.80679e-05
-8.02914e-06
-1.41724e-05
-1.54251e-05
-1.35702e-05
-1.36768e-05
-2.40559e-05
-1.39027e-05
-1.83177e-05
-1.40021e-05
-1.5094e-05
-1.32611e-05
-1.09967e-05
-1.26616e-05
-1.15511e-05
-1.64969e-05
-4.82701e-06
-1.53933e-05
-5.71824e-06
-1.71094e-05
-2.15253e-06
-1.89524e-05
-1.52052e-06
-1.3234e-05
8.7197e-07
9.59489e-06
-1.29478e-05
-6.80515e-07
-3.43472e-05
-1.42549e-06
-3.4278e-05
-1.8576e-06
-3.35376e-05
-2.85316e-06
-3.24478e-05
-5.90741e-06
-2.74433e-05
-4.30632e-06
-2.91047e-05
-3.95117e-06
-1.58109e-05
-1.26917e-05
-1.81053e-05
-6.80459e-06
-2.73151e-05
-7.19842e-06
-2.76741e-05
-7.5072e-06
-1.38637e-05
-8.31189e-06
-1.27655e-05
-1.07349e-05
-2.16329e-05
-1.19933e-05
-1.70593e-05
-1.24964e-05
-1.45909e-05
-1.23976e-05
-1.10954e-05
-1.70485e-05
-6.90025e-06
-1.56265e-05
-6.24897e-06
-1.4907e-05
-6.43775e-06
-1.52886e-05
-1.77091e-06
-1.62448e-05
-5.64339e-07
-1.767e-05
2.29725e-06
4.31414e-06
-1.23893e-05
-7.21596e-07
-3.36256e-05
-1.26814e-06
-3.37315e-05
-1.17587e-06
-3.36299e-05
-7.11091e-07
-3.29126e-05
-8.26849e-06
-1.98859e-05
-5.29296e-06
-3.20803e-05
-5.01261e-06
-1.60913e-05
-7.36353e-06
-1.57544e-05
-5.96283e-06
-2.87158e-05
-6.68306e-06
-2.69538e-05
-6.5219e-06
-1.40248e-05
-7.17986e-06
-1.21075e-05
-8.89354e-06
-1.99192e-05
-1.01687e-05
-1.57841e-05
-1.04125e-05
-1.43471e-05
-1.03431e-05
-1.11648e-05
-9.47114e-06
-7.77218e-06
-8.33576e-06
-7.38434e-06
-1.13844e-05
-3.38911e-06
-1.18718e-05
-1.28351e-06
-1.25667e-05
1.30618e-07
-1.18044e-05
1.5349e-06
2.9759e-06
-1.04661e-05
-7.48132e-07
-3.28775e-05
-1.45213e-06
-3.30275e-05
-2.22559e-06
-3.28564e-05
-2.10686e-06
-3.30313e-05
-4.32452e-06
-1.76682e-05
-3.7276e-06
-3.26772e-05
-3.91596e-06
-1.59029e-05
-4.45461e-06
-1.52158e-05
-5.72821e-06
-2.74422e-05
-1.04683e-05
-2.22137e-05
-4.09641e-06
-2.03967e-05
-4.6011e-06
-1.16028e-05