/*--------------------------------*- C++ -*----------------------------------*\
| =========                 |                                                 |
| \\      /  F ield         | foam-extend: Open Source CFD                    |
|  \\    /   O peration     | Version:     4.1                                |
|   \\  /    A nd           | Web:         http://www.foam-extend.org         |
|    \\/     M anipulation  |                                                 |
\*---------------------------------------------------------------------------*/
FoamFile
{
    version     2.0;
    format      ascii;
    class       volScalarField;
    location    "0.1";
    object      psi;
}
// * * * * * * * * * * * * * * * * * * * * * * * * * * * * * * * * * * * * * //

dimensions      [1 -1 -2 0 0 0 0];

internalField   nonuniform List<scalar> 
2268
(
-2.63754e-11
1.00045e-11
6.36653e-12
-5.72983e-11
-4.09273e-11
-4.82904e-10
-1.24628e-07
-2.87148e-05
-0.00497025
-0.396447
-14.8783
-375.417
-2152.29
-2153.36
2260.85
2445.29
1271.56
585.677
260.407
96.0155
23.7965
2.66936
0.0938573
1.03576e-16
-1.6371e-11
-2.81944e-11
2.27376e-11
6.27555e-11
-3.18291e-10
-1.03633e-07
-2.42989e-05
-0.00455278
-0.401645
-19.5461
-304.777
-1432.65
-2618.71
2109.47
2667.99
1788.63
1067.44
565.015
186.336
33.8067
2.81556
0.068271
-4.45654e-11
1.36426e-11
-3.27418e-11
-3.00134e-11
-3.45608e-11
-3.08297e-10
-7.18379e-08
-1.60559e-05
-0.00299705
-0.329801
-18.9153
-367.391
-1177.76
-2704.15
-211.228
2796.85
2255.9
1282.05
922.545
563.635
221.632
64.4325
9.04524
-2.00088e-11
-4.45654e-11
-3.81988e-11
-1.00043e-11
-5.45697e-11
-1.80978e-10
-3.64889e-08
-8.58781e-06
-0.00173609
-0.25119
-21.7924
-1206.35
-2826.68
-2722.25
-55.8057
2685.1
791.313
228.995
157.286
211.723
166.052
61.8739
8.38242
-4.00179e-11
-2.45563e-11
-6.63932e-11
-6.91218e-11
-4.91127e-11
-2.27357e-10
-5.55658e-08
-1.12221e-05
-0.00170141
-0.183014
-11.6715
-2217.77
2012.36
2823.75
2768.37
234.797
21.1899
11.165
18.2235
49.7143
73.4038
37.521
4.483
1.44014e-16
-6.36644e-12
-4.45653e-11
-8.18529e-12
-3.09227e-11
-2.60097e-10
-6.00774e-08
-1.26265e-05
-0.00156529
-0.140331
-11.7372
-2466.92
2678.25
761.524
434.594
95.2018
24.4606
5.06478
5.35999
13.5247
26.6601
12.5839
1.17479
-6.27553e-11
5.99181e-17
-2.00088e-11
-5.45698e-11
-2.45562e-11
-1.70061e-10
-4.67396e-08
-9.50114e-06
-0.00122949
-0.117914
-11.7153
-2120.05
2663.56
756.541
982.534
487.181
92.4311
7.44297
1.99756
4.08413
8.78186
3.54957
0.282344
-1.63708e-11
-1.81899e-11
-5.27508e-11
-3.27418e-11
-6.27552e-11
-1.78249e-10
-3.75037e-08
-6.75151e-06
-0.00102348
-0.125416
-10.2592
-2239.16
2644.71
2336.88
2186.95
849.623
162.074
13.6956
0.625813
0.845713
2.27155
0.806335
0.0597966
-3.63802e-12
-6.36649e-12
3.00133e-11
-2.27374e-11
-3.63801e-12
7.73071e-11
5.45697e-11
3.00134e-11
1.18234e-11
3.63798e-11
4.91128e-11
3.6379e-12
2.27373e-11
4.27463e-11
8.18542e-12
5.09318e-11
9.09495e-11
5.09318e-11
4.54742e-12
2.63755e-11
4.54749e-12
6.45743e-11
2.27375e-11
4.54748e-12
5.09318e-11
4.63844e-11
8.18539e-12
4.45654e-11
5.91173e-11
2.81943e-11
4.45653e-11
6.09363e-11
2.63754e-11
1.63709e-11
1.36424e-11
7.09407e-11
4.5474e-12
3.45609e-11
-2.27375e-11
-6.36642e-12
-6.3666e-12
-1.36425e-11
-5.84483e-18
-2.19181e-17
-4.9113e-11
1.63709e-11
-6.27554e-11
1.81899e-11
2.45563e-11
1.00044e-11
8.1854e-12
-8.90846e-17
-9.59585e-18
-1.6371e-11
-6.3666e-12
-6.36656e-12
-2.0009e-11
1.18235e-11
-4.91129e-11
2.1828e-11
-1.6371e-11
1.81903e-12
-2.63754e-11
1.18235e-11
2.45564e-11
4.54754e-12
-1.00046e-11
4.63843e-11
-1.36425e-11
-3.638e-12
3.63799e-11
-6.36645e-12
-1.63709e-11
1.36425e-11
5.72984e-11
1.00045e-11
-6.36654e-12
-1.36425e-11
-6.36654e-12
8.1855e-12
-2.0009e-11
-1.63709e-11
1.81899e-11
-1.36425e-11
2.45564e-11
3.81989e-11
3.63793e-12
4.54756e-12
-6.36644e-12
-1.00045e-11
-2.63754e-11
-4.27464e-11
-1.00045e-11
-1.00046e-11
-1.36425e-11
3.27418e-11
4.63843e-11
2.00089e-11
8.18542e-12
2.1828e-11
8.18545e-12
3.63791e-12
-6.36649e-12
-3.63803e-12
1.36424e-11
-1.00044e-11
-4.0018e-11
-2.63754e-11
-1.00045e-11
2.45564e-11
1.00044e-11
6.36649e-12
2.45564e-11
4.63843e-11
5.91152e-11
4.91127e-11
4.91128e-11
2.45564e-11
1.18234e-11
3.27419e-11
3.63798e-11
2.00089e-11
1.81891e-12
1.45519e-11
-2.63755e-11
4.09274e-11
4.54746e-12
3.63792e-12
2.18278e-11
6.91217e-11
-5.73078e-17
4.91128e-11
3.63798e-11
1.49884e-09
7.91256e-11
2.00088e-11
4.27463e-11
4.00178e-11
1.45519e-11
5.27507e-11
2.81943e-11
5.91173e-11
1.18234e-11
2.81944e-11
4.00178e-11
3.63799e-11
5.63888e-11
8.91307e-11
7.45787e-11
1.36424e-11
4.45653e-11
2.63753e-11
-2.00089e-11
-1.81897e-12
-2.81943e-11
-2.18279e-11
3.63807e-12
-1.58239e-10
-4.1524e-08
-8.67598e-06
-0.00139488
-0.177215
-27.6907
-1401.25
-2410.77
-661.546
2853.51
894.623
185.314
17.6178
0.266313
0.0893417
0.318231
0.110685
0.00902753
-3.09228e-11
-8.18544e-12
-1.45519e-11
2.18373e-17
-8.18538e-12
-2.30995e-10
-5.47594e-08
-1.30088e-05
-0.00193504
-0.296391
-113.719
-2827.67
2522.82
2624.36
758.244
91.1609
6.48995
0.467157
0.0230998
0.00805118
0.0229859
0.00941582
0.000827646
3.63802e-12
-3.45608e-11
-5.63887e-11
-2.63753e-11
-4.45652e-11
-1.03676e-10
-2.19079e-08
-5.7875e-06
-0.00142482
-0.653502
-191.458
-2402.09
2714.76
1257.38
387.521
98.4666
12.1515
0.66541
0.0180505
0.00088571
0.000881888
0.000526428
5.09852e-05
-6.63932e-11
-4.82032e-11
-7.27596e-11
-8.54925e-11
-3.09228e-11
-6.09339e-11
-7.35893e-09
-2.26723e-06
-0.00136408
-1.23628
-398.535
-2853.76
2262.39
2513.11
839.993
195.93
39.5447
3.72483
0.1465
0.00356414
9.4218e-05
2.35961e-05
2.39656e-06
-3.63794e-12
-5.63887e-11
-4.27462e-11
-7.45786e-11
-4.09273e-11
-2.27369e-11
-1.50127e-09
-9.81137e-07
-0.00205027
-2.17897
-198.421
-1832.58
-1643.4
2795.78
1226.43
179.4
15.0581
0.836486
0.0366087
0.0012336
4.52392e-05
1.9879e-06
1.38447e-07
-1.00044e-11
-4.09273e-11
-2.45563e-11
-4.09273e-11
-5.91172e-11
-7.27591e-11
-1.55517e-09
-3.12598e-06
-0.00158977
-0.800657
-72.7598
-2043.65
2565.65
2278.55
521.519
98.3814
11.0143
0.816956
0.0443715
0.00162711
4.89684e-05
1.32001e-06
3.99946e-08
-7.09401e-11
-6.09358e-11
-4.27462e-11
-3.45607e-11
-8.54923e-11
-2.96487e-10
-1.73124e-08
-1.98349e-05
-0.00536486
-0.503735
-34.9041
-2047.67
2751.66
168.934
102.495
17.2934
1.2298
0.110193
0.00788594
0.000360118
1.27804e-05
3.67012e-07
1.06137e-08
-1.63889e-09
-1.16596e-09
-3.77436e-10
-3.87441e-10
-6.95755e-10
-9.0803e-09
-1.21153e-07
-8.06369e-05
-0.020282
-2.4227
-118.169
-2772.24
2832.51
1657.36
952.374
215.757
26.4717
2.2927
0.0976674
0.00386521
0.00013345
3.98787e-06
1.0859e-07
-6.41014e-08
-3.86905e-08
-1.25591e-08
-1.12003e-08
-2.2126e-08
-2.31385e-07
-4.33772e-07
-0.000130416
-0.027243
-3.74352
-211.69
-2423.31
885.043
2838.95
1512.82
391.094
62.2876
6.98582
0.541931
0.0289246
0.00122047
4.23593e-05
1.24115e-06
-2.30157e-06
-1.25733e-06
-3.85727e-07
-3.87567e-07
-4.8284e-07
-7.26759e-06
-3.44213e-06
-7.78879e-05
-0.0209872
-3.90248
-297.565
-2202.19
-1149.33
2823.25
1395.14
270.538
38.7252
3.52809
0.276393
0.0184925
0.00100246
4.37439e-05
1.56838e-06
-7.46794e-05
-3.60706e-05
-1.06455e-05
-1.21833e-05
-9.21378e-06
-0.000200852
-8.674e-05
-0.000434417
-0.023274
-3.76979
-348.397
-2571.38
-118.831
2664.18
487.275
25.8661
3.06594
0.394675
0.046108
0.00480908
0.000378873
2.13883e-05
8.86402e-07
-0.00218378
-0.000899258
-0.00024692
-0.000298263
-0.000190798
-0.00442227
-0.00195185
-0.00482282
-0.103301
-4.83475
-107.718
-2586.37
176.956
2835.9
1493.74
262.686
60.4508
3.33117
0.193321
0.0136077
0.000815881
3.65852e-05
1.24572e-06
-0.0575939
-0.0198692
-0.00490129
-0.00603794
-0.00369654
-0.0775095
-0.0383972
-0.054879
-1.03191
-39.8949
-346.437
-1601.61
-2391.75
1474.91
2490.84
992.583
396.472
75.8773
10.0877
0.895587
0.0578614
0.00230842
5.80088e-05
-1.3691
-0.408645
-0.0902386
-0.0874616
-0.0682732
-0.911329
-0.731434
-0.621015
-10.507
-294.6
-1242.65
-2857.33
2556.49
2807.61
1575.74
770.196
460.255
418.956
268.697
80.5371
9.63832
0.377363
0.00439596
-27.5276
-7.37222
-1.48968
-1.05942
-0.843377
-8.90846
-11.343
-8.08807
-101.909
-1616.74
-2848.61
-2669.03
2805.77
1075.14
253.161
35.6748
9.12434
21.03
43.8786
19.6664
1.68051
0.0385586
0.000287056
-401.22
-107.406
-20.1677
-10.841
-8.68256
-69.9407
-133.296
-89.5055
-833.57
-2240.89
1822.46
-2464.61
2825.04
1105.42
203.255
26.9206
1.53332
2.50445
5.70037
2.91358
0.200943
0.00302124
1.58526e-05
-2527.41
-989.102
-208.559
-94.2317
-75.7641
-525.589
-840.91
-739.649
-2848.93
2772.21
2165.47
-632.639
2427.73
576.014
144.72
16.0196
0.276124
0.277802
0.722669
0.277162
0.015408
0.000174901
7.22428e-07
1162.96
-2848.59
-1247.49
-783.519
-534.164
-2353.61
-2703.11
-2024.18
-1209.95
2689.62
1071.8
2758.25
1006.27
94.9181
14.5579
1.18508
0.0310253
0.0302731
0.0538073
0.0157151
0.000816493
7.6374e-06
2.7346e-08
2364.69
-1168.29
-2277.32
-2635.98
-2844.81
-603.935
-637.378
-2596.12
100.057
2630.4
505.759
861.822
47.4104
20.4708
15.5754
3.74183
0.0753031
0.00222501
0.000742079
0.000669902
3.11056e-05
2.58312e-07
8.82122e-10
1090.67
2851.24
2804.8
2852.32
2711.15
2857.08
2595.87
2397.89
2411.47
418.083
64.3744
55.2119
4.56862
0.597681
0.601902
1.07028
0.0267527
0.000235277
2.99849e-05
1.91404e-05
6.76159e-07
6.32525e-09
2.18256e-11
522.614
842.376
580.289
165.25
507.671
1833.7
940.091
2075.36
1160.56
187.686
13.6781
0.731288
0.0666805
0.0336657
0.0934637
0.103826
0.001341
2.0105e-05
8.3487e-07
4.18618e-07
1.62569e-08
1.00947e-10
1.63709e-11
207.054
23.2164
14.6856
5.13728
16.2328
408.131
224.55
41.0831
297.99
60.1298
5.38586
0.170883
0.00516386
0.000334237
0.000345939
7.31807e-05
3.38181e-05
2.34259e-07
1.49227e-08
6.60281e-09
3.1195e-10
-3.63811e-12
1.63709e-11
79.877
5.76982
1.07052
0.333536
3.17774
50.3364
38.359
-0.100928
32.8354
8.86163
1.84931
0.14208
0.00046919
5.48152e-06
4.3042e-07
3.72058e-08
4.87451e-09
2.70659e-09
2.27368e-10
9.91329e-11
3.45607e-11
-1.00045e-11
2.45564e-11
12.2946
2.14748
0.116934
0.0167092
0.0350474
0.799984
2.68307
0.167231
0.920822
0.0313198
0.000683729
8.10373e-05
4.70674e-06
2.86742e-08
1.97165e-09
1.13675e-10
3.45593e-11
4.82024e-11
6.27551e-11
2.45563e-11
6.27552e-11
8.18544e-12
1.63709e-11
0.390216
0.0433766
0.00327065
0.000569325
0.000141952
0.00101967
0.0217825
0.000138992
4.11292e-05
1.62164e-06
1.47677e-07
5.50693e-07
2.28577e-08
1.71879e-10
3.45602e-11
5.63887e-11
4.82032e-11
3.63798e-11
3.09228e-11
5.45697e-11
3.63798e-11
-6.3665e-12
2.27374e-11
0.00480592
0.000664884
8.24833e-05
1.50387e-05
1.95168e-06
4.80038e-07
5.6752e-06
8.24741e-08
2.00816e-09
1.00453e-10
2.40971e-10
1.12124e-09
6.09288e-11
3.27417e-11
4.91127e-11
1.45519e-11
5.63887e-11
7.27596e-11
4.63842e-11
3.09228e-11
3.09228e-11
3.81988e-11
3.00133e-11
3.8182e-05
1.00779e-05
1.56694e-06
2.90177e-07
2.85247e-08
2.4e-09
4.10257e-10
2.45309e-11
3.63792e-11
4.82032e-11
4.00177e-11
3.45605e-11
1.36424e-11
4.27463e-11
4.91127e-11
2.63753e-11
1.00044e-11
5.45697e-11
4.00178e-11
2.45563e-11
5.91172e-11
4.54745e-12
3.63796e-12
2.53356e-07
1.1599e-07
2.1309e-08
3.97258e-09
3.82888e-10
6.63923e-11
1.36423e-11
2.63753e-11
3.63798e-11
5.72982e-11
-2.27375e-11
4.00178e-11
3.00133e-11
2.63753e-11
-3.30513e-17
2.18279e-11
-6.3665e-12
2.45564e-11
2.45563e-11
4.45653e-11
2.18279e-11
-6.36649e-12
3.27418e-11
1.74615e-09
1.06498e-09
2.3919e-10
8.54913e-11
5.09316e-11
3.27418e-11
4.54744e-12
2.81943e-11
8.36736e-11
8.2764e-11
5.27507e-11
1.00044e-11
3.27418e-11
3.45608e-11
1.00044e-11
5.45697e-11
3.81988e-11
2.81943e-11
2.63753e-11
3.81988e-11
2.63754e-11
1.18234e-11
1.81899e-11
3.00128e-11
1.63706e-11
6.91216e-11
6.09361e-11
8.73115e-11
5.72982e-11
4.63842e-11
4.45652e-11
6.45741e-11
7.91261e-11
2.63753e-11
2.18279e-11
5.91172e-11
3.27418e-11
5.09317e-11
6.91216e-11
-1.6371e-11
3.63798e-11
5.09317e-11
2.18279e-11
3.63795e-12
-1.00045e-11
6.63932e-11
-6.3665e-12
2.18279e-11
9.27685e-11
3.63798e-11
1.81899e-11
4.82032e-11
2.18278e-11
4.00178e-11
9.09495e-11
2.00088e-11
5.72982e-11
4.91127e-11
6.45741e-11
6.09362e-11
2.81943e-11
4.09273e-11
6.09362e-11
1.00044e-11
7.09406e-11
3.09228e-11
6.27552e-11
-6.3665e-12
3.45608e-11
5.27507e-11
2.27374e-11
5.63887e-11
3.81988e-11
2.18279e-11
3.63794e-12
4.45653e-11
3.45608e-11
7.73071e-11
4.09273e-11
4.00178e-11
4.27462e-11
5.63887e-11
3.81988e-11
2.81943e-11
2.45564e-11
3.63793e-12
3.45608e-11
-1.00045e-11
5.09317e-11
2.63753e-11
-1.02283e-18
-2.27374e-11
-3.638e-12
-2.65036e-17
6.09362e-11
5.09317e-11
-3.71903e-17
2.45564e-11
3.00133e-11
6.27552e-11
5.27507e-11
5.63887e-11
4.09273e-11
6.09362e-11
1.81899e-11
3.63798e-11
3.81988e-11
2.63753e-11
4.45653e-11
6.63931e-11
5.27507e-11
1.63709e-11
5.91172e-11
6.36646e-12
-4.27463e-11
-1.00044e-11
4.54747e-12
3.63798e-11
3.45608e-11
2.27374e-11
4.63842e-11
8.09451e-11
4.82032e-11
-1.6371e-11
4.00178e-11
4.00178e-11
2.63753e-11
6.36644e-12
4.82033e-11
2.18279e-11
4.00178e-11
3.27418e-11
3.27418e-11
3.00133e-11
3.00133e-11
3.81988e-11
2.00089e-11
-3.27419e-11
-1.63709e-11
-6.3665e-12
6.27552e-11
9.09495e-11
5.09317e-11
4.27462e-11
7.73071e-11
8.2764e-11
5.72982e-11
4.63842e-11
4.45653e-11
2.18279e-11
1.18234e-11
-2.38034e-17
-6.3665e-12
4.54745e-12
8.18541e-12
2.63753e-11
2.18279e-11
1.81899e-11
1.00044e-11
-4.27463e-11
3.63799e-11
2.81943e-11
3.00133e-11
4.27462e-11
4.82032e-11
5.63887e-11
7.91261e-11
5.27507e-11
4.63842e-11
2.18278e-11
6.27552e-11
2.18278e-11
4.63843e-11
4.09273e-11
2.45563e-11
5.72982e-11
5.45697e-11
9.09495e-11
5.72982e-11
6.27552e-11
2.27374e-11
2.18279e-11
-1.36424e-11
1.18234e-11
2.63754e-11
-2.75529e-17
4.27463e-11
3.45608e-11
5.91172e-11
2.45563e-11
6.36642e-12
6.09362e-11
4.27462e-11
6.27551e-11
4.91127e-11
2.81943e-11
4.82032e-11
4.91127e-11
2.00089e-11
3.00133e-11
5.45697e-11
2.81943e-11
-1.6371e-11
2.27374e-11
8.18545e-12
-2.58357e-18
8.18544e-12
2.00089e-11
-1.00045e-11
2.63754e-11
2.18278e-11
4.63842e-11
8.18542e-12
2.45564e-11
1.45519e-11
5.27507e-11
6.09361e-11
4.82032e-11
2.27373e-11
6.27552e-11
2.18278e-11
3.81988e-11
5.72982e-11
1.81898e-11
8.27641e-11
4.91127e-11
5.63887e-11
6.36644e-12
4.54747e-12
1.36424e-11
2.81943e-11
1.81899e-11
3.81988e-11
8.54926e-11
5.09317e-11
2.63753e-11
4.82032e-11
2.18279e-11
5.72982e-11
7.54881e-11
2.00088e-11
3.27418e-11
3.81988e-11
2.45563e-11
4.91127e-11
1.63709e-11
4.00178e-11
3.81988e-11
3.00133e-11
6.27552e-11
4.27463e-11
2.00089e-11
1.63709e-11
3.09228e-11
2.45564e-11
4.63843e-11
2.27374e-11
-3.27419e-11
5.45697e-11
2.63753e-11
2.81943e-11
8.91305e-11
7.54881e-11
4.91127e-11
7.27596e-11
5.27507e-11
3.45608e-11
3.63794e-12
2.27374e-11
5.27507e-11
3.09228e-11
6.45742e-11
6.73026e-11
3.27418e-11
8.18544e-12
-2.00089e-11
3.63795e-12
1.81899e-11
1.81899e-11
2.27374e-11
2.81944e-11
2.27374e-11
3.63796e-12
2.00089e-11
1.63709e-11
4.09273e-11
-3.63802e-12
2.45564e-11
1.63709e-11
3.00133e-11
2.45564e-11
1.81899e-11
2.63753e-11
3.81988e-11
4.00178e-11
8.18541e-12
6.09362e-11
3.09228e-11
-1.63709e-11
5.72982e-11
2.63753e-11
1.819e-12
-6.27552e-11
1.18526e-17
-3.63799e-12
-3.63798e-12
-1.00045e-11
-5.5726e-18
1.18234e-11
1.819e-12
-2.63754e-11
-2.00089e-11
-3.63798e-12
-6.36648e-12
-1.47597e-18
-6.36648e-12
6.36646e-12
-1.1124e-17
-1.00045e-11
4.54746e-12
1.45519e-11
2.00089e-11
0.000750083
6.86095e-05
5.24898e-06
3.74199e-07
0.000107098
1.22554e-05
1.14383e-06
9.22049e-08
6.73286e-06
7.97376e-07
7.50112e-08
5.84066e-09
3.03922e-07
3.75725e-08
3.73068e-09
3.11951e-10
1.46509e-08
1.87262e-09
2.02814e-10
-4.10711e-16
1.98994e-09
2.02815e-10
2.63751e-11
2.00089e-11
4.42004e-10
8.27635e-11
2.18278e-11
-6.36653e-12
3.75884e-09
2.27369e-10
4.54712e-12
1.4552e-11
4.33837e-08
2.18728e-09
9.27657e-11
1.81881e-12
6.3898e-08
3.57605e-09
1.50062e-10
3.00132e-11
3.84709e-08
2.24186e-09
9.54941e-11
1.00043e-11
4.38826e-08
2.07267e-09
8.36706e-11
1.63708e-11
1.31547e-06
3.78204e-08
9.45824e-10
5.27495e-11
3.67188e-05
3.57483e-07
3.03995e-09
4.63801e-11
1.95969e-06
2.89056e-08
1.90953e-10
4.5472e-12
9.33188e-08
1.08125e-09
-1.36441e-11
4.27464e-11
3.84377e-09
7.27542e-11
-1.00046e-11
4.00179e-11
1.38218e-10
1.63708e-11
-1.00045e-11
-3.638e-12
2.45556e-11
2.27374e-11
1.81896e-12
1.00045e-11
3.27419e-11
-1.00045e-11
-1.00045e-11
1.81899e-12
4.91128e-11
3.09228e-11
2.81943e-11
4.09273e-11
2.81944e-11
2.27374e-11
-2.27375e-11
3.09229e-11
3.63791e-12
3.27419e-11
-6.36655e-12
1.45519e-11
-1.00046e-11
4.09274e-11
1.45519e-11
4.45653e-11
6.27553e-11
1.63709e-11
-5.63889e-11
2.1828e-11
1.81899e-11
2.1828e-11
-4.91129e-11
3.63804e-12
1.63709e-11
3.00134e-11
-6.36651e-12
8.18548e-12
3.63798e-11
3.63795e-12
-2.63755e-11
2.63754e-11
6.45742e-11
6.09363e-11
-1.63711e-11
2.27374e-11
2.81943e-11
1.00045e-11
-3.2742e-11
2.27375e-11
-1.36425e-11
2.81945e-11
-2.63755e-11
4.45654e-11
3.63798e-11
3.81988e-11
3.63792e-12
1.00044e-11
4.91128e-11
3.81988e-11
2.81943e-11
5.27508e-11
-3.63805e-12
4.91129e-11
-3.63811e-12
3.09229e-11
1.36424e-11
4.82034e-11
-1.36425e-11
-6.36647e-12
2.81944e-11
1.18234e-11
-2.27375e-11
4.54749e-12
4.45653e-11
5.45698e-11
-2.0009e-11
2.18279e-11
5.45697e-11
5.72983e-11
-1.36426e-11
2.63754e-11
2.63754e-11
8.18545e-12
-2.0009e-11
4.45654e-11
-8.73062e-18
6.36648e-12
-6.44294e-17
4.82033e-11
3.00134e-11
1.00045e-11
-1.6371e-11
2.0009e-11
5.63888e-11
-3.63811e-12
3.00134e-11
3.63794e-12
1.58624e-08
2.90125e-10
-6.36655e-12
-1.00045e-11
2.27374e-11
2.45564e-11
4.63843e-11
1.18234e-11
1.18234e-11
-3.00134e-11
-6.36649e-12
1.18234e-11
-3.27419e-11
-6.63932e-11
-1.63709e-11
-6.36649e-12
-1.36425e-11
2.81943e-11
1.18234e-11
4.00811e-09
9.09485e-11
1.45519e-11
3.63799e-12
-6.36647e-12
-3.63801e-12
1.00044e-11
2.81944e-11
4.54746e-12
1.36424e-11
2.27374e-11
2.27374e-11
6.36646e-12
3.45608e-11
1.81899e-11
-1.00045e-11
2.18279e-11
1.36424e-11
-1.36424e-11
2.33737e-10
3.63791e-12
8.18545e-12
-1.00045e-11
-1.36425e-11
4.91128e-11
3.27418e-11
3.00133e-11
2.45564e-11
3.27418e-11
4.63842e-11
-2.00089e-11
4.54747e-12
1.18234e-11
4.27463e-11
2.27374e-11
4.45653e-11
1.00044e-11
3.00133e-11
1.18233e-11
-4.00178e-11
1.36424e-11
2.81943e-11
3.09228e-11
-6.3665e-12
-3.638e-12
1.36424e-11
1.63709e-11
1.63709e-11
7.27596e-11
-3.27419e-11
3.27418e-11
4.45653e-11
2.81943e-11
5.72982e-11
1.81899e-11
3.09228e-11
4.45653e-11
3.27418e-11
-3.63797e-12
6.36646e-12
4.00178e-11
2.00089e-11
2.27374e-11
1.81899e-11
1.45519e-11
2.81943e-11
1.36424e-11
2.63753e-11
1.18234e-11
1.45519e-11
4.91127e-11
3.63798e-11
3.45608e-11
3.27418e-11
2.00089e-11
2.81943e-11
1.45519e-11
-3.27418e-11
1.81898e-12
7.09406e-11
2.00089e-11
1.81899e-11
2.27374e-11
2.45564e-11
3.00133e-11
4.63842e-11
3.45608e-11
5.27507e-11
4.54745e-12
2.00089e-11
2.00089e-11
6.27552e-11
5.45697e-11
4.54746e-12
1.81899e-11
4.54748e-12
1.819e-12
-6.36647e-12
3.00133e-11
3.45608e-11
3.45608e-11
4.45653e-11
3.27418e-11
4.09273e-11
4.91127e-11
1.81899e-11
5.09317e-11
1.81899e-11
1.18234e-11
1.00044e-11
5.72982e-11
3.81988e-11
-1.36424e-11
1.63709e-11
-1.84358e-17
-1.00045e-11
-1.36424e-11
-2.1257e-17
1.36424e-11
3.27418e-11
4.63842e-11
7.91261e-11
6.36641e-12
4.63842e-11
4.09273e-11
4.45652e-11
2.81944e-11
1.81896e-12
5.45697e-11
2.00089e-11
7.09406e-11
-3.638e-12
3.09228e-11
4.63843e-11
3.63796e-12
4.63843e-11
4.00178e-11
3.27418e-11
3.00133e-11
1.63709e-11
2.27373e-11
5.27507e-11
3.63798e-11
2.18279e-11
4.63842e-11
-1.00045e-11
2.00089e-11
3.45608e-11
-1.6371e-11
8.73116e-11
-1.6371e-11
4.09273e-11
3.09228e-11
-3.63799e-12
4.54745e-12
2.27374e-11
2.45564e-11
3.27418e-11
1.81899e-11
4.63842e-11
5.45697e-11
4.63842e-11
3.09228e-11
8.09451e-11
6.91216e-11
6.36643e-12
3.81988e-11
3.81988e-11
-3.63803e-12
6.36648e-12
-1.00045e-11
6.36646e-12
-1.36424e-11
2.45564e-11
4.82032e-11
2.27374e-11
2.63753e-11
1.81899e-11
5.72982e-11
1.63709e-11
3.63798e-11
4.27463e-11
1.45519e-11
3.45608e-11
2.45563e-11
8.73115e-11
3.09228e-11
2.45564e-11
-1.00045e-11
-3.63798e-11
1.00044e-11
-1.63709e-11
3.00133e-11
2.45563e-11
2.81943e-11
4.45653e-11
2.27374e-11
4.00178e-11
3.45608e-11
1.81899e-11
3.09228e-11
3.27418e-11
4.63842e-11
3.27418e-11
5.45697e-11
2.00089e-11
3.00133e-11
-5.60058e-19
3.27418e-11
1.81899e-11
-1.36424e-11
4.54747e-12
2.00089e-11
1.45519e-11
3.81988e-11
1.45519e-11
2.00089e-11
5.63887e-11
5.27507e-11
3.27418e-11
4.27463e-11
3.45608e-11
3.27418e-11
7.91261e-11
5.45697e-11
4.82033e-11
-4.00178e-11
4.54747e-12
4.09273e-11
-2.63754e-11
-6.36648e-12
2.45564e-11
4.09273e-11
2.45564e-11
-1.63709e-11
2.63753e-11
8.91305e-11
4.45652e-11
3.27418e-11
5.45697e-11
7.54881e-11
4.45652e-11
3.00133e-11
1.81899e-11
-1.63709e-11
-4.63843e-11
1.81899e-11
-3.63798e-12
-4.91128e-11
2.00089e-11
-1.00045e-11
6.45742e-11
4.45652e-11
2.18279e-11
8.09451e-11
3.00133e-11
6.36644e-12
2.45563e-11
3.09228e-11
2.81943e-11
2.27374e-11
3.09228e-11
-1.00045e-11
3.27418e-11
-3.63798e-12
4.00178e-11
-1.00045e-11
-3.63798e-11
1.18234e-11
2.45564e-11
1.45519e-11
5.91172e-11
2.81943e-11
5.72982e-11
1.63709e-11
-3.63802e-12
7.09406e-11
2.27374e-11
7.27596e-11
4.09273e-11
5.27507e-11
3.63796e-12
4.63843e-11
-1.63709e-11
2.18279e-11
-1.23395e-17
-1.63709e-11
-1.00045e-11
2.27374e-11
4.54744e-12
2.81943e-11
8.18544e-12
3.63798e-11
4.82032e-11
4.63843e-11
2.81943e-11
-1.6371e-11
3.27418e-11
1.81899e-11
4.63842e-11
1.81899e-11
2.63754e-11
-4.00178e-11
5.72982e-11
1.81899e-11
2.00089e-11
9.09496e-11
1.81899e-11
5.63887e-11
-3.638e-12
-6.36648e-12
1.81899e-11
3.27418e-11
3.27418e-11
5.27507e-11
3.81988e-11
3.09228e-11
4.63842e-11
2.81943e-11
1.81899e-11
2.27374e-11
1.81898e-12
4.00178e-11
-1.36424e-11
-1.36424e-11
3.00133e-11
4.45653e-11
-1.36425e-11
-1.00045e-11
6.36645e-12
1.18234e-11
4.09273e-11
3.45608e-11
5.72982e-11
3.09228e-11
5.27507e-11
4.63842e-11
1.63709e-11
1.81899e-11
5.27507e-11
3.00133e-11
5.63887e-11
6.36648e-12
-1.00045e-11
3.09228e-11
5.91172e-11
1.36424e-11
4.45653e-11
5.63887e-11
2.18279e-11
3.45608e-11
5.45697e-11
4.45652e-11
4.82032e-11
2.00089e-11
2.27374e-11
-3.14356e-17
5.72982e-11
2.63753e-11
1.18234e-11
5.63887e-11
4.54746e-12
2.18279e-11
6.91216e-11
4.82032e-11
5.27507e-11
3.81988e-11
1.45519e-11
2.00089e-11
4.09272e-11
7.27596e-11
3.00133e-11
3.27418e-11
6.45742e-11
3.27418e-11
2.00089e-11
2.45563e-11
4.63843e-11
-1.36425e-11
4.63843e-11
-1.36425e-11
1.18234e-11
2.18278e-11
5.27507e-11
1.81899e-11
3.63798e-11
6.09362e-11
2.00089e-11
7.73071e-11
2.00088e-11
7.09406e-11
3.27418e-11
1.81899e-11
6.73026e-11
3.63798e-11
4.45652e-11
6.27552e-11
-1.36424e-11
4.54746e-12
2.18279e-11
-4.27463e-11
5.27507e-11
4.91127e-11
1.81899e-11
-1.36425e-11
1.63709e-11
3.27418e-11
3.09228e-11
3.63798e-11
7.45786e-11
2.81943e-11
3.45608e-11
4.00178e-11
2.45563e-11
3.45608e-11
6.63931e-11
1.81896e-12
3.45608e-11
1.81899e-11
-6.36648e-12
4.91127e-11
1.63709e-11
3.63797e-12
1.36424e-11
5.72982e-11
-3.63802e-12
6.36645e-12
3.09228e-11
2.63754e-11
1.81899e-11
1.81899e-11
6.36643e-12
4.63843e-11
1.81899e-11
3.09228e-11
2.18279e-11
3.09228e-11
1.36424e-11
1.81899e-11
7.45786e-11
7.09406e-11
1.00044e-11
4.91127e-11
2.27373e-11
2.81944e-11
-3.63801e-12
3.00133e-11
-3.27419e-11
1.45519e-11
2.81943e-11
4.63843e-11
2.00089e-11
3.09228e-11
2.18279e-11
2.45564e-11
3.45608e-11
6.36646e-12
8.18545e-12
3.27418e-11
3.81988e-11
2.18279e-11
4.63842e-11
4.82032e-11
2.27374e-11
2.81943e-11
3.00133e-11
-3.638e-12
3.81988e-11
6.63931e-11
5.63887e-11
-1.36425e-11
4.45653e-11
3.45608e-11
3.27418e-11
2.81943e-11
-3.13505e-18
-1.36424e-11
3.45608e-11
4.00178e-11
2.27374e-11
7.09406e-11
-3.63802e-12
4.54746e-12
2.00089e-11
4.63843e-11
2.63754e-11
3.45608e-11
1.81899e-11
5.63887e-11
4.00178e-11
2.00089e-11
2.27374e-11
-1.00045e-11
1.45519e-11
4.54747e-12
4.54748e-12
8.18544e-12
3.81988e-11
2.63753e-11
9.27685e-11
2.18279e-11
1.81899e-11
2.81943e-11
3.00133e-11
4.54745e-12
2.27374e-11
2.81943e-11
4.00178e-11
3.09228e-11
2.27374e-11
1.63709e-11
1.81899e-11
2.45564e-11
4.54748e-12
-6.36647e-12
-6.85497e-18
1.81896e-12
3.09228e-11
7.09406e-11
3.09228e-11
4.45652e-11
8.54926e-11
1.63709e-11
3.27418e-11
6.63932e-11
3.63798e-11
3.09228e-11
3.45608e-11
4.00178e-11
2.00089e-11
4.00178e-11
2.81943e-11
-1.63709e-11
-3.63798e-12
1.81899e-11
4.27463e-11
-6.36651e-12
3.27418e-11
6.36644e-12
4.09273e-11
4.09273e-11
3.09228e-11
3.27418e-11
4.00178e-11
2.00089e-11
3.09228e-11
2.63753e-11
3.63798e-11
4.09273e-11
-3.00134e-11
5.45697e-11
1.18234e-11
-1.63709e-11
8.27641e-11
6.73026e-11
3.00133e-11
4.00178e-11
-6.36649e-12
2.18279e-11
2.81943e-11
5.27507e-11
5.45697e-11
1.81899e-11
4.45653e-11
1.63709e-11
3.45608e-11
2.81943e-11
4.63843e-11
-7.55619e-18
3.63798e-11
8.25142e-18
-5.27508e-11
5.72982e-11
5.91172e-11
3.45608e-11
8.73116e-11
1.18234e-11
3.00133e-11
1.81899e-11
3.63798e-11
6.36644e-12
2.81943e-11
5.09317e-11
4.82032e-11
4.82032e-11
6.36644e-12
-1.6371e-11
-1.36424e-11
2.63754e-11
-6.3665e-12
7.17058e-18
6.27552e-11
3.27418e-11
2.63754e-11
2.27373e-11
-2.63754e-11
4.91127e-11
2.00089e-11
2.63754e-11
4.54744e-12
3.09228e-11
2.63753e-11
1.45519e-11
4.27463e-11
4.00178e-11
6.73027e-11
6.36645e-12
2.81943e-11
4.82033e-11
-1.63709e-11
4.09273e-11
3.45608e-11
-1.36425e-11
7.73071e-11
2.27374e-11
4.45653e-11
1.36424e-11
6.36643e-12
6.91216e-11
6.91216e-11
3.63798e-11
6.09362e-11
6.63931e-11
6.45742e-11
4.00177e-11
6.36645e-12
4.45653e-11
-1.92989e-17
-6.36647e-12
1.45519e-11
5.63887e-11
-1.61109e-17
-4.36203e-17
1.63709e-11
1.00044e-11
1.00044e-11
2.27374e-11
7.73071e-11
1.81898e-11
5.63887e-11
3.09228e-11
2.27373e-11
2.00088e-11
7.91261e-11
-1.6371e-11
2.18279e-11
2.81944e-11
-6.36648e-12
2.27374e-11
3.09228e-11
2.00089e-11
5.09317e-11
-3.63801e-12
4.27463e-11
9.09495e-11
3.45608e-11
6.36642e-12
3.09228e-11
4.45652e-11
4.54743e-12
7.09406e-11
4.63842e-11
4.82032e-11
3.63798e-11
1.00044e-11
4.00178e-11
-3.63799e-12
2.00089e-11
1.81899e-11
2.27374e-11
4.63842e-11
1.18234e-11
4.45653e-11
1.36424e-11
6.27552e-11
4.00178e-11
2.18279e-11
5.45697e-11
3.09228e-11
2.00089e-11
1.18234e-11
3.00133e-11
-2.27374e-11
3.27418e-11
1.63709e-11
-2.00089e-11
2.27374e-11
4.63843e-11
1.81899e-11
7.27596e-11
3.09228e-11
5.72982e-11
-3.63801e-12
3.81988e-11
3.09228e-11
3.45608e-11
-1.00045e-11
4.27463e-11
3.27418e-11
3.45608e-11
-3.63799e-12
-2.63754e-11
-1.00045e-11
-6.3665e-12
-6.36646e-12
3.81988e-11
-1.00045e-11
5.09317e-11
5.27507e-11
3.00133e-11
2.18279e-11
-2.66452e-17
1.81899e-11
3.45608e-11
3.45608e-11
1.63709e-11
3.09228e-11
1.18234e-11
3.09228e-11
3.63796e-12
-3.00134e-11
4.00178e-11
2.27374e-11
-3.00134e-11
6.63932e-11
3.63798e-11
4.63842e-11
2.00089e-11
1.45519e-11
2.00089e-11
5.72982e-11
1.63709e-11
3.45608e-11
1.81895e-12
8.09451e-11
4.63842e-11
5.63887e-11
3.45608e-11
7.09407e-11
-3.00134e-11
4.91128e-11
-3.00134e-11
4.45653e-11
1.81899e-11
1.00044e-11
2.63753e-11
1.36424e-11
-2.00089e-11
6.36644e-12
2.81943e-11
1.18234e-11
3.27418e-11
1.81899e-11
7.27596e-11
-1.6371e-11
8.18544e-12
2.81943e-11
3.45608e-11
-3.27418e-11
-6.36647e-12
4.54748e-12
6.36644e-12
4.45653e-11
5.72982e-11
4.63842e-11
2.63753e-11
1.81899e-11
5.72982e-11
1.81899e-11
6.09362e-11
3.00133e-11
4.09273e-11
2.27373e-11
4.27463e-11
4.54745e-12
4.82032e-11
6.91216e-11
1.36424e-11
-1.36424e-11
)
;

boundaryField
{
    leftWall
    {
        type            zeroGradient;
    }
    rightWall
    {
        type            zeroGradient;
    }
    lowerWall
    {
        type            zeroGradient;
    }
    atmosphere
    {
        type            zeroGradient;
    }
    defaultFaces
    {
        type            empty;
    }
}


// ************************************************************************* //
