/*--------------------------------*- C++ -*----------------------------------*\
| =========                 |                                                 |
| \\      /  F ield         | foam-extend: Open Source CFD                    |
|  \\    /   O peration     | Version:     4.1                                |
|   \\  /    A nd           | Web:         http://www.foam-extend.org         |
|    \\/     M anipulation  |                                                 |
\*---------------------------------------------------------------------------*/
FoamFile
{
    version     2.0;
    format      ascii;
    class       volVectorField;
    location    "0.1";
    object      U;
}
// * * * * * * * * * * * * * * * * * * * * * * * * * * * * * * * * * * * * * //

dimensions      [0 1 -1 0 0 0 0];

internalField   nonuniform List<vector> 
2268
(
(0.00663774 -0.00464577 0)
(0.0344436 -0.00416633 0)
(0.0721538 -0.00438149 0)
(0.109082 -0.00525675 0)
(0.150992 -0.0057424 0)
(0.205807 -0.00671172 0)
(0.254102 -0.00994941 0)
(0.302619 -0.0116981 0)
(0.444053 -0.0132272 0)
(0.459875 -0.0448935 0)
(0.478081 -0.0329379 0)
(0.580836 -0.00682595 0)
(0.750018 -0.103048 0)
(0.937049 -0.149566 0)
(1.381 0.0591427 0)
(1.50155 0.0439181 0)
(1.31062 0.0120072 0)
(1.32992 0.0349459 0)
(1.33264 -0.0475063 0)
(1.19129 -0.119084 0)
(1.04674 0.144624 0)
(0.37974 0.221896 0)
(0.0230018 0.0834082 0)
(0.0069168 -0.0139873 0)
(0.0346594 -0.0124193 0)
(0.0717623 -0.0131665 0)
(0.108614 -0.0148644 0)
(0.15053 -0.0171963 0)
(0.204037 -0.0200293 0)
(0.252119 -0.0345049 0)
(0.300179 -0.0351304 0)
(0.432016 -0.0392207 0)
(0.455207 -0.146322 0)
(0.472077 -0.132571 0)
(0.610878 -0.0655211 0)
(0.933418 -0.0939187 0)
(0.955936 -0.137759 0)
(1.17967 0.149994 0)
(1.21991 0.0531774 0)
(1.38574 -0.0991926 0)
(1.67258 -0.0941024 0)
(1.81817 -0.0989223 0)
(1.65381 0.0933049 0)
(0.896191 0.518785 0)
(0.176897 0.513421 0)
(-0.0605447 -0.0849136 0)
(0.00752524 -0.0236951 0)
(0.0349715 -0.0205164 0)
(0.0711103 -0.0218971 0)
(0.10735 -0.0241878 0)
(0.148715 -0.0282037 0)
(0.197798 -0.0330498 0)
(0.247665 -0.0389427 0)
(0.297521 -0.0552695 0)
(0.39832 -0.0640208 0)
(0.419067 -0.184904 0)
(0.491445 -0.179118 0)
(0.623923 -0.284637 0)
(0.979106 -0.229053 0)
(1.07057 0.0768535 0)
(1.03322 0.214855 0)
(1.09756 0.00809697 0)
(1.45078 -0.258665 0)
(1.57488 -0.507522 0)
(1.75063 -0.463043 0)
(2.23041 -0.133052 0)
(2.448 0.480097 0)
(2.101 0.801121 0)
(0.669891 0.501962 0)
(0.00869223 -0.0328013 0)
(0.035601 -0.028299 0)
(0.0700084 -0.0303931 0)
(0.105617 -0.0339671 0)
(0.146297 -0.0389388 0)
(0.198593 -0.0459382 0)
(0.241706 -0.0363361 0)
(0.288153 -0.0751242 0)
(0.370959 -0.0794086 0)
(0.390677 -0.184144 0)
(0.518347 -0.179765 0)
(0.441831 -0.492957 0)
(0.623633 -0.512443 0)
(0.956563 0.0796979 0)
(1.06429 0.182448 0)
(1.16491 -0.0312239 0)
(0.80238 -0.396459 0)
(0.435666 -0.593253 0)
(0.633989 -0.51233 0)
(1.78499 -0.0237111 0)
(2.24456 0.552808 0)
(1.95998 0.955969 0)
(0.689859 1.36392 0)
(0.010211 -0.045774 0)
(0.0361608 -0.0358645 0)
(0.0684223 -0.0386449 0)
(0.103271 -0.0433588 0)
(0.143111 -0.0498034 0)
(0.198682 -0.0595483 0)
(0.234316 -0.0389851 0)
(0.27795 -0.0868179 0)
(0.343173 -0.0870572 0)
(0.369402 -0.207392 0)
(0.415484 -0.224786 0)
(0.179449 -0.415089 0)
(-0.209062 -0.417772 0)
(0.0350909 0.107629 0)
(0.444544 0.299033 0)
(0.108934 0.236581 0)
(0.299139 -0.184248 0)
(0.440179 -0.539635 0)
(0.565373 -0.554332 0)
(1.27796 -0.350782 0)
(1.77442 0.49568 0)
(1.37126 1.01039 0)
(0.0488421 2.14546 0)
(0.0135436 -0.048115 0)
(0.0390508 -0.0423522 0)
(0.0664466 -0.0462448 0)
(0.100274 -0.0523281 0)
(0.138762 -0.0615743 0)
(0.203609 -0.0726766 0)
(0.225023 -0.0784837 0)
(0.265299 -0.110206 0)
(0.30428 -0.111595 0)
(0.340355 -0.187814 0)
(0.372998 -0.255402 0)
(0.29132 -0.2928 0)
(0.102753 -0.249325 0)
(-0.780105 0.134325 0)
(-0.706614 0.531345 0)
(-0.51096 -0.16835 0)
(0.385298 -0.79142 0)
(0.754034 -0.860068 0)
(0.569526 -0.887377 0)
(0.30027 -0.55969 0)
(0.821144 0.450411 0)
(0.320675 1.34351 0)
(-0.176119 2.37855 0)
(0.012872 -0.0368765 0)
(0.0376102 -0.0497255 0)
(0.0636401 -0.0539202 0)
(0.0959637 -0.0616385 0)
(0.133394 -0.0739296 0)
(0.189782 -0.0855592 0)
(0.212666 -0.104497 0)
(0.266431 -0.149588 0)
(0.293261 -0.187122 0)
(0.309353 -0.185958 0)
(0.355118 -0.245439 0)
(0.341524 -0.320706 0)
(0.0829209 0.0189052 0)
(-0.549833 0.257193 0)
(-0.387868 -0.163662 0)
(0.0767056 -0.55431 0)
(0.213293 -0.719926 0)
(0.455478 -0.571241 0)
(0.0967502 -0.580232 0)
(-0.270861 -0.322278 0)
(-0.10575 0.486955 0)
(-0.268611 1.3916 0)
(-0.124465 2.20475 0)
(0.00729796 -0.0407996 0)
(0.0307023 -0.0514651 0)
(0.0606294 -0.0589402 0)
(0.0905716 -0.0674999 0)
(0.126674 -0.0816499 0)
(0.187754 -0.0957866 0)
(0.188528 -0.128798 0)
(0.225291 -0.153876 0)
(0.281414 -0.210414 0)
(0.301039 -0.213629 0)
(0.333617 -0.267697 0)
(0.27918 -0.307937 0)
(-0.144498 0.370264 0)
(-0.222033 0.307316 0)
(0.500482 -0.195369 0)
(0.372171 -0.667968 0)
(0.295491 -0.804751 0)
(0.396332 -0.530774 0)
(-0.0355299 -0.434392 0)
(-0.423742 -0.19888 0)
(-0.484634 0.472825 0)
(-0.386519 1.28355 0)
(-0.169399 1.64991 0)
(0.0106831 -0.01047 0)
(0.0434313 -0.0159562 0)
(0.0795139 -0.0057408 0)
(0.0994247 -0.00284529 0)
(0.105938 -0.000884591 0)
(0.105783 0.000282289 0)
(0.103002 0.000844603 0)
(0.0987554 0.00159226 0)
(0.0939916 0.00215601 0)
(0.089413 0.00215688 0)
(0.0817421 0.000491159 0)
(0.088732 -0.00637693 0)
(0.0989208 0.0104508 0)
(0.0819529 0.0027428 0)
(0.0591759 0.00206969 0)
(0.044016 0.00160696 0)
(0.0302492 0.00143569 0)
(0.0177657 0.0013386 0)
(0.0058435 0.00129033 0)
(0.00897782 -0.0319976 0)
(0.0467355 -0.0397117 0)
(0.0870603 -0.0173989 0)
(0.104104 -0.00844999 0)
(0.110172 -0.00306261 0)
(0.109668 0.000924669 0)
(0.106232 0.00189497 0)
(0.102022 0.00488696 0)
(0.0968287 0.00680458 0)
(0.0911611 0.00719608 0)
(0.0804526 0.00319207 0)
(0.0952553 0.00446106 0)
(0.105459 0.020694 0)
(0.0802795 0.00781207 0)
(0.0603149 0.00610581 0)
(0.044888 0.00485169 0)
(0.0309239 0.00433999 0)
(0.0181713 0.0040548 0)
(0.00597944 0.0039117 0)
(0.00936945 -0.0528159 0)
(0.0504853 -0.0470816 0)
(0.0947776 -0.0286986 0)
(0.108185 -0.0129911 0)
(0.112829 -0.00467651 0)
(0.111078 0.0020396 0)
(0.10737 0.00612558 0)
(0.1036 0.00870296 0)
(0.0976241 0.0120038 0)
(0.0900492 0.0128615 0)
(0.0833944 -0.00167317 0)
(0.0984819 0.0341531 0)
(0.10313 0.0215044 0)
(0.0774426 0.0126592 0)
(0.0596182 0.00992911 0)
(0.0444279 0.0080957 0)
(0.0307126 0.00726429 0)
(0.0180647 0.00680176 0)
(0.00594767 0.00656671 0)
(0.0141792 -0.07702 0)
(0.0567809 -0.0616643 0)
(0.101561 -0.0403525 0)
(0.114253 -0.0165112 0)
(0.116566 -0.00507485 0)
(0.11434 0.00259438 0)
(0.109051 0.0118264 0)
(0.104542 0.0122336 0)
(0.0986769 0.0194061 0)
(0.0848645 0.0178314 0)
(0.089963 0.0120272 0)
(0.106051 0.0468044 0)
(0.0965953 0.0248269 0)
(0.0746839 0.0171538 0)
(0.0584854 0.0134821 0)
(0.0437772 0.0112541 0)
(0.0303879 0.0101398 0)
(0.0178976 0.00951692 0)
(0.00589708 0.00919535 0)
(0.0201554 -0.108848 0)
(0.0672884 -0.0865614 0)
(0.113605 -0.0524778 0)
(0.123003 -0.0190367 0)
(0.120939 -0.00404799 0)
(0.118262 0.00676989 0)
(0.111438 0.0165886 0)
(0.1068 0.0173434 0)
(0.099697 0.0275351 0)
(0.0873629 0.0174493 0)
(0.0950984 0.0480549 0)
(0.104418 0.0460549 0)
(0.0910492 0.0285672 0)
(0.0724292 0.0211669 0)
(0.0571179 0.0168028 0)
(0.0430093 0.0143067 0)
(0.0299753 0.0129515 0)
(0.0176844 0.0121915 0)
(0.0058319 0.011792 0)
(0.035881 -0.135457 0)
(0.0841793 -0.105999 0)
(0.129292 -0.0624812 0)
(0.134522 -0.0191139 0)
(0.12755 -0.00157766 0)
(0.123118 0.013618 0)
(0.113453 0.0227529 0)
(0.108851 0.0184993 0)
(0.098442 0.0366983 0)
(0.0939697 0.0387965 0)
(0.102549 0.0603049 0)
(0.097828 0.0489712 0)
(0.0854391 0.0317111 0)
(0.0699445 0.024687 0)
(0.0555791 0.0199517 0)
(0.0421422 0.0172494 0)
(0.0294895 0.0157012 0)
(0.0174315 0.0148256 0)
(0.00575395 0.0143568 0)
(0.0889982 -0.224931 0)
(0.113682 -0.129825 0)
(0.149196 -0.0758079 0)
(0.148212 -0.0170925 0)
(0.134851 0.00441501 0)
(0.1287 0.0216579 0)
(0.11282 0.0322781 0)
(0.112805 0.0256131 0)
(0.108621 0.0449475 0)
(0.0960539 0.0615762 0)
(0.0994587 0.0573528 0)
(0.0928123 0.0535475 0)
(0.0805867 0.0348033 0)
(0.0674562 0.0278286 0)
(0.0539604 0.0229007 0)
(0.0412044 0.0200683 0)
(0.0289456 0.0183771 0)
(0.0171454 0.0174091 0)
(0.005665 0.0168804 0)
(0.252207 -0.262426 0)
(0.211391 -0.138848 0)
(0.176039 -0.0737898 0)
(0.166226 -0.0128228 0)
(0.141993 0.0115282 0)
(0.133593 0.0295039 0)
(0.113792 0.0402689 0)
(0.113962 0.0513415 0)
(0.112728 0.0496947 0)
(0.0988713 0.0596581 0)
(0.0992481 0.0589178 0)
(0.0881604 0.0594024 0)
(0.0746128 0.0376148 0)
(0.064989 0.030729 0)
(0.052285 0.0257387 0)
(0.0402214 0.022815 0)
(0.0283598 0.0210139 0)
(0.0168335 0.0199686 0)
(0.00556725 0.0193864 0)
(0.00835485 -0.0499662 0)
(0.027415 -0.0639996 0)
(0.05203 -0.0765436 0)
(0.0793254 -0.0886883 0)
(0.111984 -0.116574 0)
(0.153305 -0.120075 0)
(0.170289 -0.163918 0)
(0.209781 -0.158868 0)
(0.256587 -0.206806 0)
(0.254845 -0.227682 0)
(0.29898 -0.273248 0)
(0.362802 -0.307446 0)
(0.481248 -0.0617664 0)
(0.925062 0.123773 0)
(0.983376 -0.111776 0)
(0.702532 -0.603985 0)
(0.361202 -0.651282 0)
(0.300916 -0.311985 0)
(0.0021178 -0.218299 0)
(-0.240815 0.0229073 0)
(-0.357254 0.345988 0)
(-0.186664 0.937909 0)
(0.314011 1.22832 0)
(-0.00716302 -0.0909494 0)
(0.0056837 -0.0814474 0)
(0.0373152 -0.107039 0)
(0.0529158 -0.120715 0)
(0.0965134 -0.130152 0)
(0.149563 -0.147517 0)
(0.159212 -0.169091 0)
(0.186308 -0.184412 0)
(0.226534 -0.222318 0)
(0.237904 -0.238915 0)
(0.229246 -0.238329 0)
(0.118033 -0.355465 0)
(0.221502 -0.15459 0)
(0.6529 0.500027 0)
(0.721656 0.124955 0)
(0.651653 -0.329265 0)
(0.449727 -0.263832 0)
(0.188828 -0.0758818 0)
(0.123178 0.0298337 0)
(-0.0731453 0.205768 0)
(-0.0858319 0.407072 0)
(0.189956 0.637364 0)
(0.441335 0.772321 0)
(0.0198557 -0.146199 0)
(0.0136242 -0.130089 0)
(0.0139383 -0.112051 0)
(0.0573865 -0.128901 0)
(0.09132 -0.116027 0)
(0.115737 -0.159402 0)
(0.133763 -0.181938 0)
(0.159833 -0.208173 0)
(0.201692 -0.238959 0)
(0.240961 -0.253003 0)
(0.221369 -0.266291 0)
(0.103639 -0.33084 0)
(-0.00770651 -0.269569 0)
(0.120695 -0.193365 0)
(0.468888 -0.291033 0)
(0.799528 -0.417444 0)
(0.935256 -0.268367 0)
(0.507033 0.0226535 0)
(0.316545 0.163233 0)
(0.174231 0.207078 0)
(0.0992104 0.43686 0)
(0.198828 0.469158 0)
(0.31281 0.406253 0)
(0.0109701 -0.184243 0)
(0.0427022 -0.194328 0)
(0.0426884 -0.174347 0)
(0.0507252 -0.158252 0)
(0.064838 -0.167291 0)
(0.0841817 -0.155925 0)
(0.112027 -0.167508 0)
(0.125763 -0.218413 0)
(0.174441 -0.268011 0)
(0.199198 -0.276374 0)
(0.0749879 -0.291101 0)
(0.113237 -0.398699 0)
(0.416201 -0.182691 0)
(0.269293 -0.344847 0)
(0.45561 -0.470147 0)
(0.467826 -0.410974 0)
(0.341818 -0.179351 0)
(0.322222 0.204979 0)
(0.277423 0.299894 0)
(0.242307 0.276927 0)
(0.179547 0.355979 0)
(0.197101 0.373949 0)
(0.265165 0.337949 0)
(0.00977392 -0.229323 0)
(0.0284445 -0.233929 0)
(0.0561789 -0.250205 0)
(0.062731 -0.254843 0)
(0.0910159 -0.255915 0)
(0.119643 -0.252179 0)
(0.0781843 -0.259919 0)
(0.0684119 -0.269322 0)
(0.136902 -0.281781 0)
(0.200761 -0.300919 0)
(0.255087 -0.288716 0)
(0.301994 -0.550169 0)
(0.404014 -0.338269 0)
(0.823854 -0.260824 0)
(1.16891 -0.290891 0)
(1.05396 -0.269457 0)
(0.37629 0.0903988 0)
(0.328527 0.302025 0)
(0.27157 0.307155 0)
(0.243616 0.280559 0)
(0.196159 0.286271 0)
(0.172393 0.314783 0)
(0.226166 0.306502 0)
(0.00634046 -0.259352 0)
(0.0200426 -0.264381 0)
(0.0252836 -0.27353 0)
(0.0477155 -0.298575 0)
(0.0775673 -0.297537 0)
(0.0923973 -0.322482 0)
(0.0918411 -0.331637 0)
(0.103325 -0.31246 0)
(0.140216 -0.281104 0)
(0.169714 -0.3041 0)
(0.160175 -0.342914 0)
(0.013307 -0.53217 0)
(-0.31331 -0.600042 0)
(-0.193421 -0.494373 0)
(-0.221995 -0.519346 0)
(0.0605993 -0.425559 0)
(0.066691 0.121281 0)
(0.228773 0.290198 0)
(0.242388 0.271585 0)
(0.227045 0.269187 0)
(0.21303 0.246736 0)
(0.203996 0.28276 0)
(0.219192 0.280208 0)
(0.00482941 -0.279877 0)
(0.0144755 -0.282574 0)
(0.019528 -0.292427 0)
(0.0389138 -0.288356 0)
(0.0622056 -0.309348 0)
(0.0805013 -0.326408 0)
(0.0954282 -0.336524 0)
(0.120058 -0.316097 0)
(0.140838 -0.322335 0)
(0.122476 -0.333012 0)
(0.157195 -0.368202 0)
(0.183091 -0.327119 0)
(0.140019 -0.285103 0)
(-0.394234 -0.202346 0)
(-0.394139 -0.676703 0)
(-0.178766 -0.289961 0)
(-0.0302239 0.0834259 0)
(0.204414 0.219705 0)
(0.238682 0.293173 0)
(0.220855 0.286604 0)
(0.214558 0.27686 0)
(0.205542 0.287908 0)
(0.203411 0.277037 0)
(0.00371639 -0.294932 0)
(0.00752071 -0.29656 0)
(0.019748 -0.301346 0)
(0.0305829 -0.299855 0)
(0.0382104 -0.336566 0)
(0.0644954 -0.29234 0)
(0.102243 -0.317687 0)
(0.11729 -0.323458 0)
(0.124992 -0.347423 0)
(0.110855 -0.351108 0)
(0.10502 -0.36015 0)
(-0.0130043 -0.236883 0)
(-0.0922164 0.0965936 0)
(0.0208124 -0.421833 0)
(0.243139 -0.575096 0)
(0.34164 -0.579032 0)
(0.25727 -0.293156 0)
(0.413031 0.197051 0)
(0.3142 0.274582 0)
(0.212244 0.286523 0)
(0.215175 0.286095 0)
(0.200293 0.287102 0)
(0.188087 0.274916 0)
(0.00333102 -0.305685 0)
(0.00826559 -0.305745 0)
(0.0167729 -0.305026 0)
(0.00287708 -0.303579 0)
(0.0693665 -0.290232 0)
(0.0992292 -0.2909 0)
(0.0662475 -0.301159 0)
(0.091307 -0.325592 0)
(0.107926 -0.335921 0)
(0.107331 -0.335531 0)
(0.103718 -0.319556 0)
(-0.0735634 -0.0870088 0)
(-0.0733271 -0.278688 0)
(0.314678 -0.449559 0)
(0.509259 -0.683071 0)
(0.630228 -0.704852 0)
(0.497983 -0.413696 0)
(0.332267 0.230026 0)
(0.267334 0.289626 0)
(0.230265 0.306953 0)
(0.219294 0.299712 0)
(0.193927 0.29304 0)
(0.177257 0.282459 0)
(0.00385432 -0.318666 0)
(0.0083729 -0.317253 0)
(0.0223754 -0.309422 0)
(0.0414982 -0.292297 0)
(0.0495736 -0.241078 0)
(0.0519251 -0.328154 0)
(0.0731741 -0.328059 0)
(0.0861182 -0.332889 0)
(0.111019 -0.347009 0)
(0.115809 -0.365406 0)
(0.125727 -0.360022 0)
(0.222537 -0.170022 0)
(0.348803 -0.339957 0)
(0.524994 -0.57127 0)
(0.614152 -0.643022 0)
(0.510196 -0.644155 0)
(0.238982 -0.253103 0)
(0.102646 0.265018 0)
(0.182627 0.313807 0)
(0.208859 0.322362 0)
(0.203127 0.318212 0)
(0.183363 0.309295 0)
(0.164405 0.297369 0)
(0.00534622 -0.331944 0)
(0.0185548 -0.333506 0)
(0.0404209 -0.324807 0)
(0.0731079 -0.342513 0)
(0.0393268 -0.355207 0)
(0.0111677 -0.346412 0)
(0.0606203 -0.346595 0)
(0.0762009 -0.366618 0)
(0.0775912 -0.370015 0)
(0.0872498 -0.387312 0)
(0.131165 -0.374961 0)
(0.156956 -0.400725 0)
(0.301836 -0.642555 0)
(0.376675 -0.51707 0)
(0.00143343 -0.492302 0)
(-0.16086 -0.30681 0)
(-0.138041 -0.0928225 0)
(0.0390395 0.211891 0)
(0.193821 0.257051 0)
(0.224405 0.308358 0)
(0.206497 0.328045 0)
(0.173844 0.326908 0)
(0.149808 0.315584 0)
(0.00287318 -0.341956 0)
(0.0135371 -0.345864 0)
(0.0151268 -0.355468 0)
(0.0314921 -0.415536 0)
(0.0420293 -0.409774 0)
(0.0474688 -0.414351 0)
(0.0525613 -0.370735 0)
(0.0656634 -0.372668 0)
(0.0835067 -0.384738 0)
(0.097411 -0.396817 0)
(0.212072 -0.377815 0)
(0.0375107 -0.390062 0)
(-0.0211018 -0.716267 0)
(0.147432 -0.328781 0)
(0.205348 -0.356317 0)
(0.154169 -0.297503 0)
(0.206189 -0.255561 0)
(0.190544 -0.161008 0)
(0.261583 0.143116 0)
(0.288139 0.307948 0)
(0.22208 0.371706 0)
(0.171488 0.363746 0)
(0.134074 0.340032 0)
(0.000471221 -0.345344 0)
(0.00575866 -0.34174 0)
(-0.033109 -0.346782 0)
(0.00998438 -0.331029 0)
(0.0412627 -0.391865 0)
(0.0521905 -0.342633 0)
(0.0959041 -0.34948 0)
(0.0669256 -0.317912 0)
(0.0542888 -0.364212 0)
(0.0634186 -0.414309 0)
(0.179541 -0.45472 0)
(0.236582 -0.357134 0)
(0.151582 -0.581602 0)
(0.153472 -0.50624 0)
(0.303565 -0.361516 0)
(0.234217 -0.389041 0)
(0.245476 -0.24941 0)
(0.187412 0.277292 0)
(0.284852 0.361515 0)
(0.284874 0.394056 0)
(0.245065 0.425473 0)
(0.140462 0.398951 0)
(0.100744 0.37458 0)
(0.00732239 -0.351552 0)
(0.0133173 -0.332432 0)
(0.0122485 -0.316773 0)
(-0.0149008 -0.265561 0)
(0.0303774 -0.294068 0)
(0.082014 -0.281617 0)
(0.101266 -0.339366 0)
(0.0557267 -0.375989 0)
(-0.00922426 -0.3676 0)
(0.00253952 -0.454357 0)
(0.14839 -0.461336 0)
(-0.0228942 -0.26456 0)
(-0.233432 -0.577355 0)
(-0.401884 -0.515656 0)
(-0.374295 -0.459929 0)
(0.0188878 -0.670504 0)
(0.303561 -0.690097 0)
(0.47256 -0.475491 0)
(0.571334 -0.185114 0)
(0.546365 0.273393 0)
(0.255419 0.587206 0)
(0.107329 0.517146 0)
(0.0609004 0.416512 0)
(0.0219915 -0.385175 0)
(0.0399148 -0.345011 0)
(0.035508 -0.302301 0)
(0.0329019 -0.269202 0)
(0.0228355 -0.234738 0)
(-0.0124492 -0.287474 0)
(0.0115843 -0.42581 0)
(0.0679109 -0.464238 0)
(-0.00244382 -0.503247 0)
(-0.0347627 -0.513306 0)
(0.268375 -0.546492 0)
(0.270731 -0.0962864 0)
(0.192598 -0.510909 0)
(0.0908717 -0.290515 0)
(0.248271 -0.481566 0)
(-0.047426 -0.460281 0)
(-0.122205 -0.480918 0)
(-0.208769 -0.240373 0)
(0.140937 0.27701 0)
(0.0135944 0.658316 0)
(-0.172468 0.786706 0)
(-0.0854352 0.576942 0)
(-0.0626242 0.427084 0)
(0.056896 -0.462582 0)
(0.0962548 -0.357251 0)
(0.0861726 -0.30542 0)
(0.0553624 -0.241841 0)
(0.0229463 -0.232144 0)
(-0.104398 -0.334481 0)
(-0.0962073 -0.363558 0)
(-0.0197793 -0.463427 0)
(-0.101748 -0.538635 0)
(-0.0958174 -0.717387 0)
(0.198919 -0.74617 0)
(0.13074 -0.00193679 0)
(0.0138022 -0.683002 0)
(0.349828 -0.540941 0)
(0.323008 -0.694376 0)
(0.21825 -0.951684 0)
(-0.189393 -0.883271 0)
(-0.418183 -0.363784 0)
(-0.579356 0.184874 0)
(-0.608372 0.595807 0)
(-0.516314 0.630058 0)
(-0.292095 0.482343 0)
(-0.175074 0.392276 0)
(0.128638 -0.687952 0)
(0.179575 -0.250937 0)
(0.148151 -0.173223 0)
(0.109257 -0.148729 0)
(-0.0587719 -0.16638 0)
(-0.114859 -0.337238 0)
(-0.102164 -0.280137 0)
(-0.162165 -0.264953 0)
(-0.342545 -0.29142 0)
(-0.328724 -0.879293 0)
(-0.217611 -0.744789 0)
(0.0928611 -0.117822 0)
(0.213746 -0.441907 0)
(-0.336171 -0.531364 0)
(-0.252548 -0.558229 0)
(-0.393553 -0.0860283 0)
(-0.588809 -0.0573738 0)
(-0.650577 -0.051899 0)
(-0.570093 0.175756 0)
(-0.644964 0.299171 0)
(-0.559603 0.381612 0)
(-0.338166 0.368319 0)
(-0.223758 0.336296 0)
(0.15258 -0.864863 0)
(0.232307 -0.184829 0)
(0.108392 -0.080667 0)
(0.0816443 -0.0374187 0)
(-0.110217 -0.0201359 0)
(-0.068303 -0.38042 0)
(0.0263327 -0.244898 0)
(-0.09731 -0.103953 0)
(-0.156096 -0.177956 0)
(0.335849 -0.992099 0)
(-0.0113412 -0.977052 0)
(-0.0423399 -0.327299 0)
(-0.084699 -0.0657852 0)
(-0.135454 -0.111827 0)
(-0.166758 -0.230207 0)
(-0.592546 -0.177178 0)
(-0.524611 0.0149924 0)
(-0.459541 0.0811568 0)
(-0.582285 0.0659908 0)
(-0.630799 0.192346 0)
(-0.462375 0.320495 0)
(-0.335568 0.300891 0)
(-0.238978 0.287246 0)
(-0.176895 -0.634607 0)
(0.0875403 -0.172841 0)
(-0.00201418 -0.104422 0)
(-0.148316 0.0170416 0)
(-0.282454 -0.0080874 0)
(0.0807396 -0.509645 0)
(0.0773093 -0.208435 0)
(-0.0749621 -0.196458 0)
(0.201312 -0.459053 0)
(0.408177 -0.895375 0)
(-0.374997 -0.953435 0)
(-0.428615 -0.242328 0)
(-0.143494 -0.396267 0)
(-0.340649 -0.575047 0)
(-0.443968 -0.530205 0)
(-0.374969 -0.0140068 0)
(-0.495664 0.140832 0)
(-0.546706 0.0771594 0)
(-0.464733 0.0623502 0)
(-0.420716 0.172029 0)
(-0.446838 0.202393 0)
(-0.361834 0.232503 0)
(-0.259021 0.252071 0)
(0.0347481 -0.68919 0)
(0.0109702 -0.0871794 0)
(-0.281181 0.0553555 0)
(-0.156731 0.254796 0)
(0.00108876 -0.280131 0)
(-0.149961 -0.51337 0)
(0.138882 -0.0950832 0)
(0.117724 -0.215214 0)
(-0.194009 -0.638849 0)
(0.0142965 -0.411745 0)
(-0.295882 -0.543803 0)
(-0.489144 -0.435778 0)
(-0.430018 -0.403898 0)
(-0.397235 -0.057155 0)
(-0.437177 -0.101593 0)
(-0.434994 -0.00773083 0)
(-0.454025 0.0620941 0)
(-0.545654 0.122598 0)
(-0.481118 0.144408 0)
(-0.455754 0.123162 0)
(-0.391597 0.144266 0)
(-0.280099 0.201483 0)
(-0.22192 0.210031 0)
(-0.252743 -0.644691 0)
(-0.203511 0.0695426 0)
(-0.168645 -0.0877117 0)
(0.0364068 0.0124159 0)
(-0.0137185 -0.335579 0)
(-0.0811599 -0.429031 0)
(-0.143341 -0.414943 0)
(0.11652 0.230492 0)
(0.0325296 -0.561931 0)
(-0.355173 -0.67612 0)
(-0.0994733 -0.63939 0)
(-0.371776 -0.567643 0)
(-0.444298 -0.363999 0)
(-0.552394 -0.244877 0)
(-0.479504 0.0163888 0)
(-0.388692 -0.0093546 0)
(-0.376454 -0.0330027 0)
(-0.472083 0.0436594 0)
(-0.495553 0.0827105 0)
(-0.40967 0.116808 0)
(-0.368597 0.169612 0)
(-0.29678 0.185215 0)
(-0.247819 0.174093 0)
(-0.0489318 -0.63402 0)
(-0.184174 -0.255988 0)
(-0.104892 -0.218743 0)
(0.145349 0.0501425 0)
(0.166247 -0.256698 0)
(0.0940453 -0.347471 0)
(-0.0230426 -0.467481 0)
(-0.0446087 -0.265053 0)
(0.0828627 -0.54587 0)
(-0.114521 -0.49335 0)
(-0.327546 -0.438298 0)
(-0.416904 -0.425914 0)
(-0.44769 -0.394924 0)
(-0.347555 -0.144797 0)
(-0.422102 -0.0124632 0)
(-0.46806 -0.0353889 0)
(-0.410894 -0.0281748 0)
(-0.427093 -0.0431612 0)
(-0.412325 0.0462222 0)
(-0.368131 0.0690275 0)
(-0.332934 0.125147 0)
(-0.282716 0.145806 0)
(-0.243377 0.149876 0)
(-0.0727564 -0.41399 0)
(-0.0792946 -0.338874 0)
(-0.0749925 -0.320621 0)
(0.0220363 -0.263573 0)
(0.087394 -0.401154 0)
(0.0638223 -0.423731 0)
(-0.0183086 -0.559193 0)
(-0.0454733 -0.293618 0)
(0.0242882 -0.468546 0)
(-0.0753646 -0.532336 0)
(-0.199846 -0.485197 0)
(-0.297148 -0.381119 0)
(-0.295168 -0.251642 0)
(-0.225202 -0.205767 0)
(-0.319965 -0.175981 0)
(-0.393448 -0.0284233 0)
(-0.373362 -0.0299372 0)
(-0.398601 0.0157121 0)
(-0.385472 0.0519562 0)
(-0.330109 0.087209 0)
(-0.296589 0.110111 0)
(-0.27259 0.12987 0)
(-0.256662 0.140185 0)
(-0.0102312 -0.352496 0)
(-0.0512124 -0.302719 0)
(-0.00399402 -0.231763 0)
(0.0125641 -0.22008 0)
(0.0217695 -0.256921 0)
(0.0425356 -0.398371 0)
(-0.0074756 -0.42606 0)
(-0.0798025 -0.333512 0)
(-0.0802631 -0.423384 0)
(-0.105582 -0.375962 0)
(-0.189003 -0.356373 0)
(-0.22643 -0.295111 0)
(-0.22989 -0.19901 0)
(-0.226691 -0.1765 0)
(-0.216028 -0.149681 0)
(-0.322546 -0.0872371 0)
(-0.376628 -0.0541996 0)
(-0.341552 -0.00627942 0)
(-0.333076 0.0509269 0)
(-0.308739 0.09354 0)
(-0.286812 0.0984737 0)
(-0.251627 0.118257 0)
(-0.231947 0.139003 0)
(0.00512897 -0.261701 0)
(0.00471389 -0.220878 0)
(0.00360429 -0.181898 0)
(-0.0196228 -0.210608 0)
(-0.040885 -0.201357 0)
(-0.0527115 -0.260043 0)
(-0.0280627 -0.286584 0)
(-0.0341388 -0.341257 0)
(-0.0716024 -0.289219 0)
(-0.112465 -0.321108 0)
(-0.145229 -0.321893 0)
(-0.166465 -0.282462 0)
(-0.185817 -0.233499 0)
(-0.164489 -0.217736 0)
(-0.217225 -0.168629 0)
(-0.285059 -0.167496 0)
(-0.286954 -0.0433101 0)
(-0.297782 -0.0204659 0)
(-0.283767 0.0312103 0)
(-0.282918 0.0549274 0)
(-0.272881 0.0811235 0)
(-0.230883 0.102693 0)
(-0.199697 0.119656 0)
(0.00465888 -0.17371 0)
(-0.00352343 -0.168856 0)
(-0.010811 -0.183642 0)
(-0.0200638 -0.184552 0)
(-0.0349117 -0.185938 0)
(-0.0510166 -0.17866 0)
(-0.0815709 -0.185124 0)
(-0.0763799 -0.206116 0)
(-0.0712596 -0.225448 0)
(-0.134251 -0.223591 0)
(-0.150087 -0.197302 0)
(-0.133522 -0.185162 0)
(-0.16144 -0.174851 0)
(-0.159092 -0.180194 0)
(-0.156561 -0.199041 0)
(-0.173468 -0.128912 0)
(-0.22373 -0.0561798 0)
(-0.271876 0.00237262 0)
(-0.257593 0.0237894 0)
(-0.260264 0.0340189 0)
(-0.239919 0.0666864 0)
(-0.212742 0.0874331 0)
(-0.179103 0.101173 0)
(-0.00178878 -0.164707 0)
(-0.00806275 -0.170666 0)
(-0.0142318 -0.170858 0)
(-0.0231992 -0.173388 0)
(-0.0343658 -0.173065 0)
(-0.0469317 -0.170848 0)
(-0.0616448 -0.166946 0)
(-0.0719334 -0.151727 0)
(-0.0834435 -0.167464 0)
(-0.0993137 -0.163918 0)
(-0.118766 -0.126788 0)
(-0.139649 -0.116207 0)
(-0.16644 -0.12465 0)
(-0.174031 -0.107748 0)
(-0.170615 -0.120763 0)
(-0.146745 -0.106325 0)
(-0.143886 -0.0981719 0)
(-0.213088 -0.0315731 0)
(-0.252943 0.0248898 0)
(-0.240443 0.0279699 0)
(-0.21948 0.0551769 0)
(-0.195491 0.0708631 0)
(-0.157572 0.0845782 0)
(-0.00249277 -0.160529 0)
(-0.00952787 -0.162308 0)
(-0.0150859 -0.165168 0)
(-0.0227552 -0.163325 0)
(-0.0328247 -0.161835 0)
(-0.0448749 -0.158257 0)
(-0.060516 -0.155516 0)
(-0.0730858 -0.152417 0)
(-0.0831479 -0.14985 0)
(-0.0919641 -0.138514 0)
(-0.105356 -0.115447 0)
(-0.131738 -0.103096 0)
(-0.152443 -0.118515 0)
(-0.156714 -0.122425 0)
(-0.157224 -0.0898949 0)
(-0.14877 -0.0880373 0)
(-0.154125 -0.0798425 0)
(-0.142241 -0.0751663 0)
(-0.196238 0.00847688 0)
(-0.231979 0.0254652 0)
(-0.196963 0.0443826 0)
(-0.18255 0.0605294 0)
(-0.162173 0.0722943 0)
(-0.0036277 -0.154949 0)
(-0.0122709 -0.156173 0)
(-0.0152809 -0.157705 0)
(-0.0200128 -0.155221 0)
(-0.0294139 -0.152895 0)
(-0.0401263 -0.146478 0)
(-0.0553968 -0.141689 0)
(-0.0654544 -0.141966 0)
(-0.0695198 -0.138796 0)
(-0.0665674 -0.130751 0)
(-0.0816438 -0.120269 0)
(-0.141836 -0.0999344 0)
(-0.183322 -0.102964 0)
(-0.144395 -0.100753 0)
(-0.13689 -0.0955001 0)
(-0.13686 -0.102105 0)
(-0.130268 -0.0728252 0)
(-0.123808 -0.0487994 0)
(-0.145766 -0.0440684 0)
(-0.19979 0.0314783 0)
(-0.186552 0.031927 0)
(-0.167996 0.0524384 0)
(-0.151819 0.0652271 0)
(-0.00326839 -0.151451 0)
(-0.0115298 -0.15247 0)
(-0.0142479 -0.148806 0)
(-0.0178086 -0.148334 0)
(-0.0243971 -0.142486 0)
(-0.0351826 -0.12585 0)
(-0.0550975 -0.122678 0)
(-0.0671528 -0.135583 0)
(-0.0699933 -0.13254 0)
(-0.0737593 -0.129114 0)
(-0.0740802 -0.1279 0)
(-0.112961 -0.129787 0)
(-0.152296 -0.101527 0)
(-0.149637 -0.0773739 0)
(-0.154561 -0.0993767 0)
(-0.127206 -0.0610295 0)
(-0.102495 -0.0768135 0)
(-0.112069 -0.0435468 0)
(-0.104302 -0.0468675 0)
(-0.157135 0.0154569 0)
(-0.179399 0.0326814 0)
(-0.149318 0.0440146 0)
(-0.138548 0.0571225 0)
(-0.00408814 -0.147591 0)
(-0.00891215 -0.147815 0)
(-0.0113389 -0.14481 0)
(-0.0139847 -0.147007 0)
(-0.00725867 -0.145337 0)
(-0.0200655 -0.146507 0)
(-0.0662567 -0.144039 0)
(-0.0744158 -0.13644 0)
(-0.0631261 -0.124369 0)
(-0.0612416 -0.125125 0)
(-0.0831409 -0.11983 0)
(-0.114907 -0.123952 0)
(-0.130044 -0.096009 0)
(-0.144646 -0.0822284 0)
(-0.118645 -0.0703596 0)
(-0.115207 -0.0500959 0)
(-0.115342 -0.0716007 0)
(-0.0914646 -0.0513572 0)
(-0.0879302 -0.030419 0)
(-0.117467 -0.0260432 0)
(-0.154715 0.0352069 0)
(-0.145161 0.0338187 0)
(-0.12939 0.050667 0)
(-0.00285775 -0.142417 0)
(-0.00799754 -0.141474 0)
(-0.0133214 -0.141344 0)
(-0.0186904 -0.143888 0)
(-0.0248392 -0.146734 0)
(-0.0334098 -0.159609 0)
(-0.0451783 -0.162251 0)
(-0.0481748 -0.146379 0)
(-0.0590206 -0.14444 0)
(-0.069995 -0.138986 0)
(-0.0732241 -0.132213 0)
(-0.0869199 -0.114442 0)
(-0.109335 -0.0809809 0)
(-0.124304 -0.0745739 0)
(-0.122913 -0.0556045 0)
(-0.127034 -0.0758916 0)
(-0.104881 -0.0407331 0)
(-0.0715621 -0.0536398 0)
(-0.0785009 -0.0315887 0)
(-0.0845219 -0.0301653 0)
(-0.120048 0.0187978 0)
(-0.135883 0.033855 0)
(-0.112228 0.0452082 0)
(-0.00240813 -0.13645 0)
(-0.00703149 -0.13657 0)
(-0.0137603 -0.136798 0)
(-0.0192951 -0.135883 0)
(-0.0216895 -0.141692 0)
(-0.0348714 -0.153224 0)
(-0.0539764 -0.143357 0)
(-0.0575098 -0.126541 0)
(-0.0537291 -0.127679 0)
(-0.0476378 -0.110801 0)
(-0.0596169 -0.1096 0)
(-0.0646037 -0.0951918 0)
(-0.0900174 -0.0791179 0)
(-0.118375 -0.0719281 0)
(-0.121998 -0.0586799 0)
(-0.0988686 -0.0492026 0)
(-0.092396 -0.0299661 0)
(-0.0838038 -0.0399518 0)
(-0.064797 -0.0343587 0)
(-0.0669348 -0.0155551 0)
(-0.0886112 -0.0103418 0)
(-0.11647 0.0356173 0)
(-0.108012 0.039995 0)
(-0.0023335 -0.13321 0)
(-0.00767315 -0.133402 0)
(-0.0126942 -0.131206 0)
(-0.0241011 -0.129879 0)
(-0.0400713 -0.128377 0)
(-0.0342207 -0.127537 0)
(-0.0210735 -0.121896 0)
(-0.0332359 -0.0999127 0)
(-0.0413937 -0.101601 0)
(-0.0495859 -0.0979276 0)
(-0.0570536 -0.101865 0)
(-0.0591094 -0.0911318 0)
(-0.0864514 -0.0916843 0)
(-0.103474 -0.0701676 0)
(-0.100985 -0.0574205 0)
(-0.0985098 -0.0382804 0)
(-0.0961281 -0.0517899 0)
(-0.0750629 -0.024275 0)
(-0.0544173 -0.0275473 0)
(-0.0612153 -0.0163631 0)
(-0.0644202 -0.0165057 0)
(-0.0856349 0.0121299 0)
(-0.100816 0.0382033 0)
(-0.00190067 -0.130939 0)
(-0.0043835 -0.130632 0)
(-0.0100096 -0.127692 0)
(-0.0162089 -0.124624 0)
(-0.0210419 -0.101116 0)
(-0.0265624 -0.101006 0)
(-0.0225906 -0.108171 0)
(-0.0382934 -0.115604 0)
(-0.0520539 -0.104756 0)
(-0.0483732 -0.109016 0)
(-0.0537783 -0.100393 0)
(-0.0545231 -0.098253 0)
(-0.0678696 -0.0901371 0)
(-0.0844233 -0.0686751 0)
(-0.0890975 -0.0576154 0)
(-0.0940073 -0.0434646 0)
(-0.0778133 -0.0345744 0)
(-0.0599826 -0.0193926 0)
(-0.0567634 -0.0257574 0)
(-0.0558722 -0.0147532 0)
(-0.0605145 -0.00500387 0)
(-0.0607734 0.00225232 0)
(-0.0813789 0.0349195 0)
(-0.0013496 -0.128441 0)
(-0.00360214 -0.128639 0)
(-0.00695377 -0.128851 0)
(0.00238205 -0.125112 0)
(-0.0153493 -0.123628 0)
(-0.0407438 -0.119468 0)
(-0.0377547 -0.117389 0)
(-0.0294595 -0.124457 0)
(-0.0339268 -0.108315 0)
(-0.0451114 -0.107683 0)
(-0.0459219 -0.104841 0)
(-0.048518 -0.0890351 0)
(-0.0563627 -0.0762388 0)
(-0.0709791 -0.0591965 0)
(-0.0757813 -0.0544473 0)
(-0.0757562 -0.0415143 0)
(-0.0720708 -0.025599 0)
(-0.0667789 -0.0287764 0)
(-0.0497175 -0.0209221 0)
(-0.0404685 -0.0116711 0)
(-0.0478776 -0.000675027 0)
(-0.0438653 0.0116799 0)
(-0.0625833 0.0261963 0)
(-0.00139228 -0.125458 0)
(-0.00415691 -0.126086 0)
(-0.00646652 -0.126829 0)
(-0.0115425 -0.127394 0)
(-0.0149058 -0.139847 0)
(-0.0202304 -0.126326 0)
(-0.0281225 -0.114851 0)
(-0.0291772 -0.108686 0)
(-0.0358493 -0.109095 0)
(-0.0444465 -0.0916948 0)
(-0.0337177 -0.088002 0)
(-0.0269138 -0.0856164 0)
(-0.03888 -0.0798634 0)
(-0.0628202 -0.066984 0)
(-0.0717642 -0.0556046 0)
(-0.0648158 -0.0437408 0)
(-0.0657355 -0.0316265 0)
(-0.0553482 -0.0279978 0)
(-0.0397312 -0.00947531 0)
(-0.035436 -0.0075428 0)
(-0.0370739 0.000724266 0)
(-0.0330561 0.00894807 0)
(-0.048376 0.0178191 0)
(-0.00130471 -0.123407 0)
(-0.00436784 -0.123852 0)
(-0.0081243 -0.12413 0)
(-0.00943246 -0.123179 0)
(-0.0141781 -0.122583 0)
(-0.0168594 -0.122738 0)
(-0.0195236 -0.117732 0)
(-0.0239498 -0.11159 0)
(-0.016523 -0.105166 0)
(-0.0240847 -0.0932188 0)
(-0.0394467 -0.0796498 0)
(-0.0402469 -0.084326 0)
(-0.0390527 -0.0832971 0)
(-0.0461585 -0.0754583 0)
(-0.0523233 -0.0558715 0)
(-0.0517316 -0.0433823 0)
(-0.0562871 -0.0311509 0)
(-0.0444724 -0.0185871 0)
(-0.0293797 -0.0150552 0)
(-0.0302391 -0.0068888 0)
(-0.0312782 -0.000268639 0)
(-0.0266783 0.00652031 0)
(-0.0385303 0.00847419 0)
(-0.00115909 -0.122501 0)
(-0.0040639 -0.122609 0)
(-0.00583362 -0.122256 0)
(-0.0101396 -0.117306 0)
(-0.0139844 -0.122741 0)
(-0.016145 -0.121889 0)
(-0.01688 -0.135673 0)
(-0.016217 -0.114633 0)
(-0.0182147 -0.106866 0)
(-0.0185288 -0.106063 0)
(-0.0245899 -0.0957008 0)