/*--------------------------------*- C++ -*----------------------------------*\
| =========                 |                                                 |
| \\      /  F ield         | foam-extend: Open Source CFD                    |
|  \\    /   O peration     | Version:     4.1                                |
|   \\  /    A nd           | Web:         http://www.foam-extend.org         |
|    \\/     M anipulation  |                                                 |
\*---------------------------------------------------------------------------*/
FoamFile
{
    version     2.0;
    format      ascii;
    class       volVectorField;
    location    "0.1";
    object      U_0;
}
// * * * * * * * * * * * * * * * * * * * * * * * * * * * * * * * * * * * * * //

dimensions      [0 1 -1 0 0 0 0];

internalField   nonuniform List<vector> 
2268
(
(0.00664426 -0.0045571 0)
(0.0336388 -0.00411928 0)
(0.0702327 -0.0043004 0)
(0.105965 -0.0052807 0)
(0.146547 -0.00562551 0)
(0.199381 -0.00655547 0)
(0.246199 -0.00997291 0)
(0.293996 -0.0113436 0)
(0.429673 -0.0133428 0)
(0.446194 -0.0437496 0)
(0.465732 -0.0317276 0)
(0.566138 -0.00192796 0)
(0.736347 -0.114377 0)
(0.939351 -0.13411 0)
(1.42106 0.0613253 0)
(1.45773 0.0429475 0)
(1.29203 0.013546 0)
(1.33122 0.0299728 0)
(1.31305 -0.0659383 0)
(1.16378 -0.0803588 0)
(0.904774 0.155063 0)
(0.308075 0.173958 0)
(0.0377773 0.0567189 0)
(0.00689925 -0.0137266 0)
(0.0338467 -0.0122749 0)
(0.0698022 -0.0129317 0)
(0.105507 -0.0147542 0)
(0.14616 -0.0168423 0)
(0.197537 -0.0195768 0)
(0.244267 -0.0338094 0)
(0.29173 -0.0338427 0)
(0.417426 -0.0389069 0)
(0.442494 -0.140993 0)
(0.461635 -0.127595 0)
(0.610036 -0.0519983 0)
(0.92089 -0.107358 0)
(0.931972 -0.127864 0)
(1.19795 0.148132 0)
(1.24619 0.0271628 0)
(1.44133 -0.0974427 0)
(1.72216 -0.0966989 0)
(1.85228 -0.083262 0)
(1.5771 0.140947 0)
(0.758748 0.536079 0)
(0.152674 0.415328 0)
(-0.0308841 -0.040649 0)
(0.00746291 -0.0232063 0)
(0.0341476 -0.0202653 0)
(0.0691679 -0.0215335 0)
(0.104281 -0.0237911 0)
(0.144428 -0.0276705 0)
(0.191545 -0.0322087 0)
(0.240055 -0.0391601 0)
(0.289211 -0.0533799 0)
(0.385094 -0.0630326 0)
(0.407769 -0.17861 0)
(0.478493 -0.176277 0)
(0.625492 -0.275229 0)
(0.994916 -0.206357 0)
(1.05496 0.062864 0)
(1.03399 0.195218 0)
(1.14551 -0.0328028 0)
(1.49247 -0.291683 0)
(1.64293 -0.495434 0)
(1.86044 -0.422859 0)
(2.37435 -0.0382571 0)
(2.47915 0.531629 0)
(2.06708 0.74928 0)
(0.395406 0.465527 0)
(0.0085369 -0.0322066 0)
(0.0347234 -0.0279596 0)
(0.0681166 -0.0299253 0)
(0.10259 -0.0333906 0)
(0.142131 -0.0382139 0)
(0.191759 -0.044774 0)
(0.234305 -0.0367793 0)
(0.280302 -0.0722343 0)
(0.358503 -0.0781549 0)
(0.380449 -0.178125 0)
(0.504828 -0.177451 0)
(0.450483 -0.500362 0)
(0.665634 -0.498609 0)
(0.940171 0.0809497 0)
(1.03469 0.159276 0)
(1.14974 -0.0851478 0)
(0.805537 -0.483238 0)
(0.491841 -0.655839 0)
(0.780154 -0.536153 0)
(1.97525 0.0246061 0)
(2.20298 0.584947 0)
(1.91509 0.920188 0)
(0.387964 1.32436 0)
(0.00998928 -0.04467 0)
(0.0352765 -0.0354247 0)
(0.0665908 -0.0380615 0)
(0.100326 -0.0426495 0)
(0.139086 -0.0488398 0)
(0.191887 -0.0581008 0)
(0.227253 -0.0392828 0)
(0.270338 -0.0832799 0)
(0.331886 -0.0867402 0)
(0.357524 -0.199799 0)
(0.406319 -0.223625 0)
(0.167628 -0.431593 0)
(-0.19057 -0.391008 0)
(0.00746385 0.0820917 0)
(0.381843 0.301403 0)
(-0.0479701 0.16284 0)
(0.235545 -0.250844 0)
(0.383961 -0.522533 0)
(0.57449 -0.519283 0)
(1.37056 -0.205731 0)
(1.6954 0.556532 0)
(1.14376 1.07881 0)
(-0.0397511 1.976 0)
(0.0130626 -0.047785 0)
(0.0379055 -0.0419408 0)
(0.0646836 -0.0455959 0)
(0.0974292 -0.0514861 0)
(0.134929 -0.0603201 0)
(0.196071 -0.0709648 0)
(0.219037 -0.076451 0)
(0.257493 -0.106535 0)
(0.295054 -0.109663 0)
(0.329741 -0.184276 0)
(0.353286 -0.248875 0)
(0.246453 -0.296932 0)
(-0.0257168 -0.252228 0)
(-0.838033 0.181715 0)
(-0.839755 0.539608 0)
(-0.525443 -0.288634 0)
(0.346067 -0.909123 0)
(0.668121 -0.873377 0)
(0.447577 -0.901553 0)
(0.302997 -0.421575 0)
(0.640301 0.587793 0)
(0.078633 1.38893 0)
(-0.113178 2.10591 0)
(0.0126749 -0.0375415 0)
(0.0368301 -0.0491343 0)
(0.0620187 -0.0531254 0)
(0.0933062 -0.0605416 0)
(0.129781 -0.0722918 0)
(0.183434 -0.0834894 0)
(0.20704 -0.10137 0)
(0.25774 -0.144924 0)
(0.283611 -0.179651 0)
(0.299415 -0.181869 0)
(0.338015 -0.239666 0)
(0.332012 -0.310826 0)
(0.0772354 0.0559336 0)
(-0.573089 0.328402 0)
(-0.380173 -0.27451 0)
(0.0750261 -0.593108 0)
(0.220567 -0.753963 0)
(0.386316 -0.605847 0)
(-0.0165281 -0.58964 0)
(-0.331442 -0.20564 0)
(-0.212806 0.607596 0)
(-0.306178 1.38818 0)
(-0.0504447 1.93815 0)
(0.00744505 -0.0404145 0)
(0.0302858 -0.0510326 0)
(0.0591154 -0.0581556 0)
(0.0881443 -0.0664605 0)
(0.123411 -0.0799865 0)
(0.181105 -0.0937888 0)
(0.184661 -0.124696 0)
(0.219461 -0.150874 0)
(0.271829 -0.203035 0)
(0.290809 -0.206416 0)
(0.316425 -0.259027 0)
(0.253667 -0.294726 0)
(-0.20247 0.398112 0)
(-0.134996 0.328356 0)
(0.465221 -0.284419 0)
(0.396304 -0.721944 0)
(0.314391 -0.809421 0)
(0.349079 -0.528883 0)
(-0.132129 -0.419397 0)
(-0.463278 -0.0857804 0)
(-0.482445 0.557282 0)
(-0.324589 1.25629 0)
(-0.0806233 1.45714 0)
(0.0108994 -0.0102901 0)
(0.0427634 -0.0150604 0)
(0.0774853 -0.00556058 0)
(0.0968972 -0.00274152 0)
(0.103214 -0.000826811 0)
(0.103047 0.000271895 0)
(0.100253 0.000799263 0)
(0.0960496 0.00155555 0)
(0.0913896 0.00211232 0)
(0.0867139 0.00213843 0)
(0.0790964 0.000738436 0)
(0.0864955 -0.00497188 0)
(0.0958531 0.00942062 0)
(0.0785909 0.00265914 0)
(0.0570869 0.00200216 0)
(0.0424942 0.00157107 0)
(0.0292324 0.00140629 0)
(0.0171725 0.00131353 0)
(0.00565077 0.00126707 0)
(0.00945589 -0.0315022 0)
(0.0460243 -0.0388918 0)
(0.0846338 -0.0168809 0)
(0.101418 -0.0081634 0)
(0.107286 -0.0028986 0)
(0.106753 0.000929359 0)
(0.103361 0.00187486 0)
(0.0992033 0.00478987 0)
(0.094124 0.00663684 0)
(0.0884657 0.00693389 0)
(0.0783287 0.00307346 0)
(0.0924082 0.00558574 0)
(0.101546 0.0190979 0)
(0.0772764 0.00756647 0)
(0.0581604 0.0059168 0)
(0.0433297 0.00473742 0)
(0.0298757 0.00424492 0)
(0.0175595 0.00397319 0)
(0.00578044 0.0038359 0)
(0.00960404 -0.0519594 0)
(0.0498073 -0.0464361 0)
(0.0924478 -0.0277788 0)
(0.105402 -0.0125833 0)
(0.10987 -0.00445033 0)
(0.108124 0.00201334 0)
(0.104469 0.00591946 0)
(0.100715 0.00851203 0)
(0.0948365 0.0116867 0)
(0.0872906 0.0122689 0)
(0.0811686 -0.00104597 0)
(0.0956056 0.0326144 0)
(0.0993115 0.0205768 0)
(0.074574 0.0122023 0)
(0.0574933 0.00963663 0)
(0.0428919 0.00790075 0)
(0.0296728 0.00710238 0)
(0.0174577 0.00666184 0)
(0.00574998 0.00643659 0)
(0.0143844 -0.0756632 0)
(0.0560847 -0.0596309 0)
(0.0990294 -0.0389154 0)
(0.111282 -0.0159795 0)
(0.113497 -0.00478634 0)
(0.111235 0.00263473 0)
(0.106111 0.0114131 0)
(0.101685 0.0120321 0)
(0.0957834 0.0187684 0)
(0.0826321 0.0169918 0)
(0.0873402 0.0126054 0)
(0.102446 0.0446269 0)
(0.0931475 0.0238016 0)
(0.0720205 0.0165437 0)
(0.0564291 0.0131018 0)
(0.0422729 0.0109843 0)
(0.0293621 0.00991734 0)
(0.0172982 0.00932304 0)
(0.00570152 0.00901472 0)
(0.0203526 -0.106374 0)
(0.0664966 -0.083694 0)
(0.110663 -0.0504676 0)
(0.119751 -0.0183925 0)
(0.117772 -0.00374301 0)
(0.11501 0.00658858 0)
(0.108441 0.0160491 0)
(0.103831 0.0169575 0)
(0.0966783 0.0264147 0)
(0.0850691 0.0173023 0)
(0.0923893 0.0461357 0)
(0.100753 0.0442733 0)
(0.0878247 0.0274662 0)
(0.0698818 0.0204477 0)
(0.0551377 0.0163429 0)
(0.0415402 0.0139649 0)
(0.0289677 0.0126692 0)
(0.0170944 0.0119432 0)
(0.00563905 0.0115602 0)
(0.0351376 -0.133578 0)
(0.082832 -0.102791 0)
(0.125853 -0.0600633 0)
(0.130858 -0.0184841 0)
(0.124129 -0.00133737 0)
(0.119654 0.0132631 0)
(0.110457 0.0219439 0)
(0.105739 0.0178485 0)
(0.0956872 0.0352297 0)
(0.0913595 0.0377848 0)
(0.099204 0.0576495 0)
(0.0945607 0.0470813 0)
(0.0824928 0.0305733 0)
(0.0675281 0.0238832 0)
(0.0536823 0.019415 0)
(0.0407131 0.0168392 0)
(0.0285034 0.0153602 0)
(0.0168526 0.0145235 0)
(0.00556436 0.0140741 0)
(0.0846913 -0.219236 0)
(0.11108 -0.126173 0)
(0.145121 -0.0726955 0)
(0.144103 -0.0165425 0)
(0.131268 0.00447076 0)
(0.124985 0.0210994 0)
(0.109765 0.0311667 0)
(0.109532 0.0254305 0)
(0.105388 0.0434153 0)
(0.0934179 0.0590519 0)
(0.0963547 0.0551763 0)
(0.08975 0.0517638 0)
(0.0778339 0.0336316 0)
(0.0651631 0.0269587 0)
(0.0521474 0.0222981 0)
(0.0398184 0.0195962 0)
(0.0279839 0.017981 0)
(0.016579 0.0170556 0)
(0.00547918 0.0165489 0)
(0.245148 -0.254866 0)
(0.203505 -0.135354 0)
(0.170972 -0.0704253 0)
(0.161464 -0.0124638 0)
(0.13827 0.0113616 0)
(0.129735 0.0285365 0)
(0.111106 0.0389545 0)
(0.110684 0.0498849 0)
(0.109062 0.0479967 0)
(0.0960449 0.0574213 0)
(0.096202 0.056753 0)
(0.0853468 0.0567628 0)
(0.0720284 0.0363742 0)
(0.0628027 0.0297799 0)
(0.050557 0.0250698 0)
(0.0388799 0.0222827 0)
(0.0274241 0.0205631 0)
(0.0162806 0.0195637 0)
(0.00538555 0.0190059 0)
(0.00802574 -0.0500185 0)
(0.0267848 -0.0631676 0)
(0.0509225 -0.075398 0)
(0.0774266 -0.0872173 0)
(0.109289 -0.11352 0)
(0.148811 -0.117495 0)
(0.165482 -0.158349 0)
(0.203899 -0.155684 0)
(0.249238 -0.19979 0)
(0.246731 -0.219051 0)
(0.289096 -0.262167 0)
(0.345435 -0.288632 0)
(0.47179 -0.0591352 0)
(0.916328 0.124016 0)
(0.999098 -0.167499 0)
(0.690938 -0.654882 0)
(0.342287 -0.647593 0)
(0.268797 -0.282705 0)
(-0.0390478 -0.193992 0)
(-0.254119 0.10687 0)
(-0.318246 0.406352 0)
(-0.0880298 0.898686 0)
(0.361165 1.13442 0)
(-0.00594176 -0.0896557 0)
(0.00648001 -0.0808038 0)
(0.0365511 -0.10392 0)
(0.0522127 -0.11782 0)
(0.0944391 -0.127141 0)
(0.144928 -0.143741 0)
(0.155371 -0.164587 0)
(0.181887 -0.17843 0)
(0.220737 -0.214146 0)
(0.229648 -0.230077 0)
(0.218083 -0.228935 0)
(0.100731 -0.339284 0)
(0.223021 -0.155348 0)
(0.631697 0.532783 0)
(0.725744 0.0940817 0)
(0.652885 -0.364469 0)
(0.382003 -0.263647 0)
(0.155741 -0.0527693 0)
(0.101725 0.0520938 0)
(-0.0745147 0.235739 0)
(-0.0736166 0.434395 0)
(0.21905 0.629031 0)
(0.439651 0.718802 0)
(0.0187008 -0.14308 0)
(0.0145886 -0.127519 0)
(0.014859 -0.110402 0)
(0.0553837 -0.125723 0)
(0.0886922 -0.114834 0)
(0.112892 -0.154862 0)
(0.131397 -0.176508 0)
(0.157049 -0.201696 0)
(0.196848 -0.231013 0)
(0.233912 -0.245913 0)
(0.218831 -0.257372 0)
(0.113048 -0.318708 0)
(0.0165606 -0.255388 0)
(0.0744117 -0.187318 0)
(0.49124 -0.308174 0)
(0.802859 -0.443074 0)
(0.884825 -0.243442 0)
(0.444251 0.042234 0)
(0.284485 0.167001 0)
(0.161891 0.20858 0)
(0.102952 0.430707 0)
(0.205432 0.458323 0)
(0.308994 0.385016 0)
(0.0114108 -0.180314 0)
(0.0418421 -0.18966 0)
(0.0419401 -0.171518 0)
(0.0493132 -0.157296 0)
(0.0644647 -0.164865 0)
(0.0837549 -0.15313 0)
(0.109546 -0.164266 0)
(0.124478 -0.211724 0)
(0.169611 -0.257124 0)
(0.191119 -0.264947 0)
(0.0671008 -0.274728 0)
(0.0842012 -0.376087 0)
(0.388209 -0.139128 0)
(0.198908 -0.372748 0)
(0.434502 -0.489678 0)
(0.423852 -0.422039 0)
(0.330317 -0.165741 0)
(0.300982 0.207974 0)
(0.255506 0.285824 0)
(0.227549 0.270589 0)
(0.179626 0.34515 0)
(0.199205 0.359982 0)
(0.260009 0.320691 0)
(0.00942023 -0.223058 0)
(0.0276954 -0.228135 0)
(0.0528547 -0.243957 0)
(0.0607657 -0.247786 0)
(0.0906983 -0.248397 0)
(0.116732 -0.244602 0)
(0.0784081 -0.251328 0)
(0.0712075 -0.260593 0)
(0.136809 -0.272433 0)
(0.200005 -0.285634 0)
(0.252799 -0.264151 0)
(0.300037 -0.526703 0)
(0.418508 -0.312578 0)
(0.871263 -0.245372 0)
(1.15246 -0.276266 0)
(0.974298 -0.237189 0)
(0.314668 0.133644 0)
(0.320098 0.280793 0)
(0.252474 0.290954 0)
(0.232905 0.272929 0)
(0.192935 0.281206 0)
(0.171429 0.302676 0)
(0.221911 0.29348 0)
(0.0063185 -0.252202 0)
(0.0194733 -0.256903 0)
(0.0250919 -0.265888 0)
(0.0473831 -0.288359 0)
(0.0771595 -0.288294 0)
(0.0918358 -0.312966 0)
(0.0911628 -0.320889 0)
(0.102369 -0.302884 0)
(0.141184 -0.274903 0)
(0.176061 -0.29267 0)
(0.167614 -0.329058 0)
(0.0334074 -0.518241 0)
(-0.265447 -0.624743 0)
(-0.132979 -0.468673 0)
(-0.153784 -0.513956 0)
(0.0944033 -0.399525 0)
(0.101437 0.129896 0)
(0.250041 0.269619 0)
(0.243898 0.255564 0)
(0.222596 0.258631 0)
(0.209688 0.238835 0)
(0.199722 0.272205 0)
(0.213584 0.269411 0)
(0.004793 -0.272083 0)
(0.0141745 -0.274875 0)
(0.0194394 -0.283928 0)
(0.0384277 -0.280817 0)
(0.0613613 -0.300524 0)
(0.0796867 -0.3166 0)
(0.0950261 -0.326162 0)
(0.118947 -0.307886 0)
(0.142492 -0.312591 0)
(0.128821 -0.324312 0)
(0.167916 -0.36384 0)
(0.191641 -0.333545 0)
(0.165806 -0.255226 0)
(-0.411525 -0.182573 0)
(-0.454825 -0.656605 0)
(-0.222249 -0.234458 0)
(-0.0193065 0.111117 0)
(0.204339 0.220727 0)
(0.235253 0.281907 0)
(0.217292 0.276613 0)
(0.210841 0.266495 0)
(0.201368 0.276495 0)
(0.199042 0.266417 0)
(0.00359662 -0.286876 0)
(0.00767168 -0.288512 0)
(0.0193111 -0.292828 0)
(0.0305478 -0.292459 0)
(0.0403449 -0.325051 0)
(0.0652207 -0.285868 0)
(0.100234 -0.308976 0)
(0.11522 -0.315224 0)
(0.126025 -0.338554 0)
(0.112576 -0.344938 0)
(0.102693 -0.356662 0)
(-0.0202834 -0.251582 0)
(-0.12596 0.11698 0)
(0.0154905 -0.411796 0)
(0.238945 -0.566802 0)
(0.326985 -0.564269 0)
(0.260773 -0.250687 0)
(0.409363 0.2045 0)
(0.306467 0.267667 0)
(0.208986 0.277625 0)
(0.210365 0.27616 0)
(0.19635 0.277048 0)
(0.184791 0.265647 0)
(0.00327835 -0.29765 0)
(0.00838365 -0.297771 0)
(0.0159417 -0.297229 0)
(0.00547774 -0.295466 0)
(0.0675152 -0.2836 0)
(0.0959173 -0.285467 0)
(0.0673889 -0.295701 0)
(0.0905072 -0.318781 0)
(0.107656 -0.329324 0)
(0.108188 -0.331977 0)
(0.100319 -0.3169 0)
(-0.0729974 -0.0771026 0)
(-0.0803467 -0.272367 0)
(0.311551 -0.440686 0)
(0.502028 -0.668834 0)
(0.616465 -0.683441 0)
(0.489968 -0.361404 0)
(0.334696 0.246992 0)
(0.261983 0.283646 0)
(0.225062 0.296213 0)
(0.213951 0.289764 0)
(0.190354 0.283673 0)
(0.173912 0.273192 0)
(0.00365789 -0.31048 0)
(0.00828323 -0.309289 0)
(0.0219454 -0.302328 0)
(0.0414449 -0.285568 0)
(0.0489824 -0.240399 0)
(0.0515447 -0.319554 0)
(0.0718012 -0.321563 0)
(0.0847644 -0.32601 0)
(0.108676 -0.339906 0)
(0.113681 -0.359837 0)
(0.122977 -0.355551 0)
(0.214766 -0.156259 0)
(0.343902 -0.345922 0)
(0.51706 -0.571391 0)
(0.60456 -0.644367 0)
(0.492019 -0.624968 0)
(0.239679 -0.209422 0)
(0.108232 0.274063 0)
(0.182842 0.307249 0)
(0.205829 0.313084 0)
(0.199582 0.308799 0)
(0.180167 0.299683 0)
(0.161454 0.287914 0)
(0.00502489 -0.323372 0)
(0.0174933 -0.324755 0)
(0.0385997 -0.317319 0)
(0.0687386 -0.333962 0)
(0.0383882 -0.346393 0)
(0.0137005 -0.339136 0)
(0.0602112 -0.339567 0)
(0.0753643 -0.358441 0)
(0.0753631 -0.362234 0)
(0.0852051 -0.379363 0)
(0.12466 -0.367946 0)
(0.151388 -0.40134 0)
(0.306386 -0.63165 0)
(0.362065 -0.516961 0)
(-0.0162074 -0.482721 0)
(-0.185382 -0.301295 0)
(-0.142163 -0.0620384 0)
(0.0431374 0.21407 0)
(0.190038 0.254692 0)
(0.219037 0.302734 0)
(0.201504 0.319606 0)
(0.170347 0.317671 0)
(0.147053 0.306022 0)
(0.00275584 -0.332629 0)
(0.012658 -0.336218 0)
(0.0144093 -0.345145 0)
(0.0303379 -0.401713 0)
(0.0407433 -0.397084 0)
(0.0464575 -0.401139 0)
(0.0522552 -0.361276 0)
(0.0645049 -0.364171 0)
(0.0804759 -0.376092 0)
(0.0945441 -0.38772 0)
(0.208732 -0.367241 0)
(0.0307751 -0.383552 0)
(-0.0202315 -0.698234 0)
(0.160258 -0.314524 0)
(0.208249 -0.358747 0)
(0.156218 -0.282584 0)
(0.211255 -0.249059 0)
(0.190146 -0.143396 0)
(0.257511 0.148781 0)
(0.277784 0.302399 0)
(0.21424 0.359483 0)
(0.166574 0.351112 0)
(0.131201 0.329104 0)
(0.000654622 -0.335876 0)
(0.00557143 -0.332541 0)
(-0.0304392 -0.337067 0)
(0.00886485 -0.324116 0)
(0.0399857 -0.380241 0)
(0.051282 -0.336128 0)
(0.0919253 -0.341578 0)
(0.0649106 -0.313567 0)
(0.0530988 -0.354866 0)
(0.0624346 -0.404383 0)
(0.179211 -0.442699 0)
(0.241024 -0.347925 0)
(0.166551 -0.569786 0)
(0.180602 -0.497326 0)
(0.291932 -0.340151 0)
(0.229465 -0.374958 0)
(0.248031 -0.230501 0)
(0.187415 0.295001 0)
(0.287317 0.360362 0)
(0.284454 0.392329 0)
(0.238781 0.411618 0)
(0.13898 0.385037 0)
(0.100771 0.363335 0)
(0.00679403 -0.341774 0)
(0.01256 -0.323981 0)
(0.0107293 -0.309177 0)
(-0.013959 -0.261224 0)
(0.0288386 -0.287739 0)
(0.0781949 -0.277571 0)
(0.0961473 -0.334053 0)
(0.0556903 -0.370359 0)
(-0.0071346 -0.363309 0)
(0.00170461 -0.445162 0)
(0.141593 -0.456419 0)
(-0.0223781 -0.264613 0)
(-0.240714 -0.593649 0)
(-0.377396 -0.495339 0)
(-0.364258 -0.442854 0)
(0.0403725 -0.652294 0)
(0.335915 -0.668845 0)
(0.499677 -0.455709 0)
(0.594551 -0.173056 0)
(0.548347 0.29183 0)
(0.242789 0.576347 0)
(0.108899 0.499263 0)
(0.0628231 0.402914 0)
(0.0205817 -0.372835 0)
(0.0376656 -0.335551 0)
(0.0338204 -0.295489 0)
(0.0306408 -0.262977 0)
(0.0208734 -0.230313 0)
(-0.0119006 -0.281449 0)
(0.00810825 -0.415524 0)
(0.0622294 -0.453122 0)
(-0.000760176 -0.493127 0)
(-0.0329249 -0.501839 0)
(0.255227 -0.531197 0)
(0.259149 -0.0988403 0)
(0.185441 -0.501212 0)
(0.0248708 -0.238424 0)
(0.249936 -0.4665 0)
(-0.0359592 -0.448882 0)
(-0.121527 -0.477616 0)
(-0.209713 -0.214003 0)
(0.137268 0.297594 0)
(0.00560916 0.683801 0)
(-0.169552 0.762416 0)
(-0.0748013 0.555516 0)
(-0.0561649 0.412231 0)
(0.0527499 -0.445942 0)
(0.0904195 -0.348068 0)
(0.081749 -0.297491 0)
(0.0536105 -0.237609 0)
(0.0197141 -0.227429 0)
(-0.103525 -0.326422 0)
(-0.0945997 -0.357621 0)
(-0.0179699 -0.453148 0)
(-0.0857872 -0.537174 0)
(-0.0712903 -0.678262 0)
(0.213791 -0.708183 0)
(0.115155 -0.0195998 0)
(-0.0245664 -0.658276 0)
(0.369001 -0.518998 0)
(0.335793 -0.680069 0)
(0.225247 -0.912576 0)
(-0.190387 -0.839934 0)
(-0.426484 -0.338173 0)
(-0.566783 0.232239 0)
(-0.605343 0.605381 0)
(-0.493773 0.61049 0)
(-0.269573 0.467985 0)
(-0.162958 0.380479 0)
(0.124219 -0.653535 0)
(0.175035 -0.246418 0)
(0.143345 -0.171286 0)
(0.104047 -0.147903 0)
(-0.0570345 -0.164884 0)
(-0.116898 -0.328209 0)
(-0.104163 -0.280561 0)
(-0.165289 -0.263719 0)
(-0.33821 -0.286524 0)
(-0.354336 -0.879839 0)
(-0.102159 -0.703327 0)
(0.1123 -0.0946592 0)
(0.216772 -0.461919 0)
(-0.341246 -0.53169 0)
(-0.250582 -0.567013 0)
(-0.388675 -0.0932943 0)
(-0.572113 -0.0510942 0)
(-0.642148 -0.0429537 0)
(-0.559289 0.183899 0)
(-0.623302 0.305183 0)
(-0.528701 0.379749 0)
(-0.320161 0.360484 0)
(-0.210737 0.327885 0)
(0.160281 -0.842126 0)
(0.230989 -0.191104 0)
(0.111573 -0.0852706 0)
(0.080022 -0.0375994 0)
(-0.108282 -0.0196773 0)
(-0.0748745 -0.361379 0)
(0.0220964 -0.250911 0)
(-0.0976564 -0.0988013 0)
(-0.187343 -0.175883 0)
(0.310114 -1.00579 0)
(-0.00717963 -0.984702 0)
(-0.0390988 -0.234961 0)
(-0.0284585 -0.0306384 0)
(-0.0860078 -0.0896077 0)
(-0.139748 -0.230306 0)
(-0.569911 -0.177046 0)
(-0.520518 0.0165422 0)
(-0.455757 0.0887862 0)
(-0.560524 0.077847 0)
(-0.601604 0.201085 0)
(-0.441199 0.312247 0)
(-0.319604 0.294768 0)
(-0.227037 0.280369 0)
(-0.0776721 -0.634851 0)
(0.121046 -0.17245 0)
(0.0128597 -0.110945 0)
(-0.132466 0.0213483 0)
(-0.276654 -0.0081877 0)
(0.0910049 -0.477235 0)
(0.092331 -0.213841 0)
(-0.0787986 -0.178779 0)
(0.198704 -0.441393 0)
(0.454528 -0.916986 0)
(-0.321696 -1.00538 0)
(-0.433369 -0.180142 0)
(-0.131411 -0.376626 0)
(-0.305979 -0.567986 0)
(-0.428455 -0.524447 0)
(-0.354361 -0.0175515 0)
(-0.479755 0.1361 0)
(-0.529119 0.083371 0)
(-0.448858 0.0721844 0)
(-0.40873 0.175168 0)
(-0.43129 0.202978 0)
(-0.343986 0.228156 0)
(-0.246448 0.246208 0)
(0.0335619 -0.704644 0)
(0.0238339 -0.0282102 0)
(-0.288594 0.0488399 0)
(-0.150135 0.274771 0)
(0.0254672 -0.298633 0)
(-0.144698 -0.493378 0)
(0.140291 -0.103041 0)
(0.116291 -0.189452 0)
(-0.205716 -0.679227 0)
(-0.0141545 -0.435206 0)
(-0.284987 -0.540694 0)
(-0.540501 -0.403126 0)
(-0.407546 -0.365702 0)
(-0.379589 -0.0278446 0)
(-0.426991 -0.0845947 0)
(-0.43713 0.000868363 0)
(-0.440277 0.0654883 0)
(-0.527622 0.124119 0)
(-0.464138 0.143432 0)
(-0.438617 0.12332 0)
(-0.379217 0.147686 0)
(-0.269985 0.198558 0)
(-0.211723 0.206116 0)
(-0.268921 -0.678535 0)
(-0.208129 0.0941564 0)
(-0.168514 -0.0225322 0)
(0.051237 -0.0969898 0)
(-0.0338253 -0.328126 0)
(-0.0861506 -0.40123 0)
(-0.15464 -0.408835 0)
(0.116108 0.246808 0)
(0.0447605 -0.563063 0)
(-0.366819 -0.670448 0)
(-0.136499 -0.605754 0)
(-0.377618 -0.544374 0)
(-0.433931 -0.35678 0)
(-0.54775 -0.245533 0)
(-0.473589 0.0174889 0)
(-0.384647 0.00157972 0)
(-0.369865 -0.0209669 0)
(-0.45915 0.0480553 0)
(-0.478592 0.0864196 0)
(-0.396582 0.116755 0)
(-0.355665 0.167684 0)
(-0.285579 0.183587 0)
(-0.237155 0.1718 0)
(-0.0503346 -0.632799 0)
(-0.212391 -0.223304 0)
(-0.1003 -0.204327 0)
(0.141382 0.0315084 0)
(0.157968 -0.230787 0)
(0.097321 -0.329463 0)
(-0.0209276 -0.468615 0)
(-0.0389355 -0.236784 0)
(0.0843978 -0.529243 0)
(-0.11015 -0.499597 0)
(-0.336602 -0.434177 0)
(-0.410314 -0.412217 0)
(-0.440885 -0.388635 0)
(-0.346809 -0.138315 0)
(-0.417707 -0.00940068 0)
(-0.458499 -0.0293873 0)
(-0.401775 -0.0238533 0)
(-0.417056 -0.0348826 0)
(-0.400652 0.049979 0)
(-0.356193 0.0723785 0)
(-0.320551 0.12492 0)
(-0.272663 0.14504 0)
(-0.234196 0.147677 0)
(-0.0726847 -0.404569 0)
(-0.0769713 -0.325608 0)
(-0.0644774 -0.304124 0)
(0.0250941 -0.263319 0)
(0.0765644 -0.377949 0)
(0.0634998 -0.402623 0)
(-0.016202 -0.547643 0)
(-0.0449176 -0.304012 0)
(0.0304738 -0.466637 0)
(-0.0718379 -0.527826 0)
(-0.199322 -0.468901 0)
(-0.290099 -0.369608 0)
(-0.294129 -0.243036 0)
(-0.228622 -0.198128 0)
(-0.317192 -0.167366 0)
(-0.385919 -0.0243683 0)
(-0.366012 -0.0251204 0)
(-0.387778 0.0190726 0)
(-0.373137 0.0545566 0)
(-0.320479 0.0887665 0)
(-0.287152 0.110048 0)
(-0.263456 0.128882 0)
(-0.246802 0.138767 0)
(-0.0089102 -0.340584 0)
(-0.0451006 -0.289595 0)
(-0.0032396 -0.223843 0)
(0.0167649 -0.218193 0)
(0.0208355 -0.251896 0)
(0.0364328 -0.387095 0)
(-0.00537563 -0.415863 0)
(-0.0776475 -0.322494 0)
(-0.0787029 -0.412817 0)
(-0.104547 -0.370717 0)
(-0.189372 -0.346691 0)
(-0.227028 -0.288838 0)
(-0.228055 -0.195204 0)
(-0.225986 -0.170259 0)
(-0.215791 -0.143666 0)
(-0.316134 -0.0825398 0)
(-0.367897 -0.0492558 0)
(-0.333587 -0.0019398 0)
(-0.324225 0.0521174 0)
(-0.29948 0.0928696 0)
(-0.277508 0.0984232 0)
(-0.242976 0.116699 0)
(-0.223553 0.137414 0)
(0.00443905 -0.254931 0)
(0.00333031 -0.218307 0)
(0.00425333 -0.178875 0)
(-0.0174753 -0.206379 0)
(-0.0380737 -0.200847 0)
(-0.0501759 -0.254415 0)
(-0.0280675 -0.281652 0)
(-0.0365635 -0.33339 0)
(-0.0733336 -0.283047 0)
(-0.11251 -0.314498 0)
(-0.145587 -0.31414 0)
(-0.165826 -0.273479 0)
(-0.184723 -0.225968 0)
(-0.166181 -0.209602 0)
(-0.216374 -0.162753 0)
(-0.279392 -0.159862 0)
(-0.280221 -0.0401243 0)
(-0.290155 -0.0170738 0)
(-0.276782 0.0330491 0)
(-0.274626 0.0562691 0)
(-0.264088 0.0811682 0)
(-0.223231 0.10178 0)
(-0.192956 0.118001 0)
(0.00444035 -0.172323 0)
(-0.00271692 -0.166057 0)
(-0.00928661 -0.180595 0)
(-0.0190228 -0.182298 0)
(-0.0344654 -0.184285 0)
(-0.0510592 -0.178205 0)
(-0.0787231 -0.184867 0)
(-0.0741908 -0.205264 0)
(-0.0720043 -0.221985 0)
(-0.132147 -0.220398 0)
(-0.148446 -0.193768 0)
(-0.134179 -0.180735 0)
(-0.161342 -0.169573 0)
(-0.159901 -0.173276 0)
(-0.15686 -0.190766 0)
(-0.171744 -0.122053 0)
(-0.219553 -0.0523166 0)
(-0.264749 0.00400879 0)
(-0.250643 0.0248236 0)
(-0.252621 0.0356299 0)
(-0.23279 0.0665173 0)
(-0.205781 0.0868634 0)
(-0.172774 0.0996701 0)
(-0.00136661 -0.161319 0)
(-0.00753378 -0.166821 0)
(-0.0137893 -0.168066 0)
(-0.0224976 -0.170882 0)
(-0.0336499 -0.170912 0)
(-0.0467305 -0.168245 0)
(-0.0612178 -0.16406 0)
(-0.0710995 -0.150749 0)
(-0.0827807 -0.165355 0)
(-0.0985484 -0.161425 0)
(-0.117712 -0.125729 0)
(-0.137942 -0.115049 0)
(-0.163767 -0.121555 0)
(-0.173595 -0.104126 0)
(-0.16971 -0.116459 0)
(-0.144805 -0.101636 0)
(-0.143147 -0.0927389 0)
(-0.208546 -0.0288569 0)
(-0.245965 0.0251309 0)
(-0.233281 0.0288789 0)
(-0.212845 0.0548772 0)
(-0.189374 0.0701205 0)
(-0.153384 0.0833759 0)
(-0.00241435 -0.157539 0)
(-0.00930872 -0.159647 0)
(-0.0148387 -0.162366 0)
(-0.0223379 -0.160865 0)
(-0.0322626 -0.15956 0)
(-0.0442643 -0.156211 0)
(-0.059424 -0.15307 0)
(-0.0719814 -0.149931 0)
(-0.0822252 -0.147349 0)
(-0.0910603 -0.136007 0)
(-0.104626 -0.114201 0)
(-0.130277 -0.101997 0)
(-0.149984 -0.115734 0)
(-0.156197 -0.119215 0)
(-0.156165 -0.0859935 0)
(-0.146136 -0.0839303 0)
(-0.151718 -0.0753304 0)
(-0.140546 -0.071405 0)
(-0.191197 0.00882223 0)
(-0.224637 0.0258463 0)
(-0.191467 0.0443147 0)
(-0.176695 0.059819 0)
(-0.157223 0.0712076 0)
(-0.00356587 -0.15243 0)
(-0.0119369 -0.153654 0)
(-0.0150557 -0.155067 0)
(-0.0198569 -0.152719 0)
(-0.0291274 -0.150428 0)
(-0.0397894 -0.14428 0)
(-0.0545886 -0.139598 0)
(-0.0646566 -0.139913 0)
(-0.0687583 -0.136714 0)
(-0.0668952 -0.128653 0)
(-0.0823374 -0.118359 0)
(-0.138948 -0.0991573 0)
(-0.178275 -0.100792 0)
(-0.142766 -0.0988292 0)
(-0.135236 -0.0915052 0)
(-0.134154 -0.0970381 0)
(-0.129929 -0.0693239 0)
(-0.123569 -0.0462667 0)
(-0.14261 -0.0405597 0)
(-0.193362 0.0308489 0)
(-0.180798 0.0325957 0)
(-0.162798 0.0517217 0)
(-0.147063 0.0639119 0)
(-0.00324083 -0.148856 0)
(-0.0112378 -0.149871 0)
(-0.0139976 -0.146504 0)
(-0.0175784 -0.145995 0)
(-0.0241106 -0.140296 0)
(-0.0348245 -0.125027 0)
(-0.0542927 -0.122058 0)
(-0.0663766 -0.133494 0)
(-0.0691433 -0.130479 0)
(-0.0729887 -0.126996 0)
(-0.0748639 -0.12596 0)
(-0.111371 -0.126569 0)
(-0.148752 -0.0997721 0)
(-0.147339 -0.0764974 0)
(-0.150842 -0.0954804 0)
(-0.12477 -0.0599074 0)
(-0.102363 -0.0740355 0)
(-0.110832 -0.0410304 0)
(-0.103279 -0.0434469 0)
(-0.152539 0.0157681 0)
(-0.173577 0.0324433 0)
(-0.145352 0.043633 0)
(-0.134196 0.0560954 0)
(-0.00406263 -0.145029 0)
(-0.00889773 -0.145219 0)
(-0.0113756 -0.142377 0)
(-0.0139362 -0.144533 0)
(-0.00843011 -0.142752 0)
(-0.0213215 -0.143963 0)
(-0.0639751 -0.141549 0)
(-0.0723214 -0.134012 0)
(-0.0623326 -0.12274 0)
(-0.0617261 -0.122873 0)
(-0.0827113 -0.117907 0)
(-0.112445 -0.120524 0)
(-0.127343 -0.0944706 0)
(-0.140544 -0.0803134 0)
(-0.117005 -0.0682043 0)
(-0.113607 -0.049607 0)
(-0.1132 -0.0685691 0)
(-0.0908522 -0.0489566 0)
(-0.0868367 -0.0288283 0)
(-0.11496 -0.023503 0)
(-0.149868 0.0340919 0)
(-0.140625 0.0341485 0)
(-0.12545 0.0496738 0)
(-0.00283172 -0.139938 0)
(-0.00788271 -0.138934 0)
(-0.0132015 -0.138867 0)
(-0.0182436 -0.141444 0)
(-0.0243657 -0.144246 0)
(-0.0331282 -0.156016 0)
(-0.0446085 -0.157882 0)
(-0.0482338 -0.142864 0)
(-0.0583102 -0.140199 0)
(-0.0688625 -0.135186 0)
(-0.0728202 -0.128004 0)
(-0.086149 -0.110793 0)
(-0.107336 -0.079485 0)
(-0.121339 -0.0726123 0)
(-0.120424 -0.0550235 0)
(-0.123931 -0.0726595 0)
(-0.102711 -0.039813 0)
(-0.0716798 -0.0514033 0)
(-0.0775391 -0.0303257 0)
(-0.0831621 -0.0280471 0)
(-0.116429 0.0186565 0)
(-0.131506 0.033421 0)
(-0.109238 0.0442501 0)
(-0.00235958 -0.134092 0)
(-0.00705736 -0.134239 0)
(-0.0138985 -0.134577 0)
(-0.0192274 -0.13353 0)
(-0.0218757 -0.139139 0)
(-0.0343785 -0.1497 0)
(-0.0516419 -0.140433 0)
(-0.055289 -0.124459 0)
(-0.052855 -0.124569 0)
(-0.0482621 -0.109442 0)
(-0.0591959 -0.107289 0)
(-0.0647992 -0.0932858 0)
(-0.0889905 -0.0779546 0)
(-0.115318 -0.0702383 0)
(-0.11882 -0.0573802 0)
(-0.097086 -0.0476999 0)
(-0.0913295 -0.0296706 0)
(-0.0826348 -0.0383189 0)
(-0.0638452 -0.0324037 0)
(-0.0658497 -0.0147032 0)
(-0.086515 -0.00890147 0)
(-0.112919 0.0343186 0)
(-0.104675 0.0395619 0)
(-0.002371 -0.130874 0)
(-0.00773608 -0.131129 0)
(-0.0125164 -0.128966 0)
(-0.0232467 -0.127212 0)
(-0.0387495 -0.125803 0)
(-0.0337187 -0.125037 0)
(-0.021551 -0.119859 0)
(-0.0329693 -0.0999692 0)
(-0.0416751 -0.101839 0)
(-0.0495207 -0.0972764 0)
(-0.0561098 -0.0998979 0)
(-0.0591565 -0.0899381 0)
(-0.084516 -0.0892744 0)
(-0.100419 -0.0687687 0)
(-0.0986123 -0.0558791 0)
(-0.0963023 -0.0377845 0)
(-0.0938088 -0.0494457 0)
(-0.0736205 -0.023291 0)
(-0.0541388 -0.0259509 0)
(-0.0603307 -0.0152529 0)
(-0.0633701 -0.0146911 0)
(-0.0831146 0.0126925 0)
(-0.097375 0.0376865 0)
(-0.00194767 -0.128577 0)
(-0.00452231 -0.128215 0)
(-0.00983228 -0.12536 0)
(-0.0159366 -0.122296 0)
(-0.0212303 -0.100792 0)
(-0.0267117 -0.10016 0)
(-0.0232447 -0.106883 0)
(-0.0382501 -0.113603 0)
(-0.0505251 -0.103975 0)
(-0.0466915 -0.106843 0)
(-0.0526765 -0.0981356 0)
(-0.0542576 -0.095785 0)
(-0.066844 -0.0872944 0)
(-0.0822085 -0.0670398 0)
(-0.086973 -0.0560406 0)
(-0.0912881 -0.0424151 0)
(-0.0763488 -0.033385 0)
(-0.0594842 -0.0188989 0)
(-0.0557003 -0.0244929 0)
(-0.0546099 -0.0137573 0)
(-0.0588738 -0.00412049 0)
(-0.0595671 0.0033816 0)
(-0.0789431 0.0338349 0)
(-0.00136783 -0.126064 0)
(-0.00375364 -0.126176 0)
(-0.00680338 -0.126265 0)
(0.00133767 -0.12276 0)
(-0.0155305 -0.121034 0)
(-0.0393726 -0.117031 0)
(-0.0368936 -0.114777 0)
(-0.0297575 -0.121052 0)
(-0.0340276 -0.105455 0)
(-0.0435637 -0.105084 0)
(-0.044739 -0.102206 0)
(-0.0480144 -0.0871056 0)
(-0.0553979 -0.0744214 0)
(-0.0691344 -0.0581676 0)
(-0.0739951 -0.0531022 0)
(-0.0738802 -0.0404983 0)
(-0.0703023 -0.0252347 0)
(-0.0652443 -0.0273571 0)
(-0.0489228 -0.0201646 0)
(-0.039952 -0.0110482 0)
(-0.0465943 -0.000457047 0)
(-0.0435557 0.0114949 0)
(-0.0610746 0.02569 0)
(-0.00138552 -0.123083 0)
(-0.00410592 -0.123663 0)
(-0.00639582 -0.12427 0)
(-0.0112287 -0.124995 0)
(-0.0150533 -0.13613 0)
(-0.0203126 -0.123827 0)
(-0.0277218 -0.112696 0)
(-0.0289377 -0.106646 0)
(-0.0350307 -0.106223 0)
(-0.04306 -0.0899884 0)
(-0.033398 -0.0865326 0)
(-0.0273735 -0.0836777 0)
(-0.0386384 -0.0778107 0)
(-0.0610414 -0.0652753 0)
(-0.0695494 -0.0542217 0)
(-0.0631363 -0.0425849 0)
(-0.0637358 -0.030906 0)
(-0.0544782 -0.0268741 0)
(-0.0394622 -0.00936675 0)
(-0.0347401 -0.00710202 0)
(-0.036239 0.000864059 0)
(-0.0326666 0.00884621 0)
(-0.0472881 0.017931 0)
(-0.00131007 -0.12111 0)
(-0.00435504 -0.121544 0)
(-0.00802458 -0.121769 0)
(-0.00946777 -0.120962 0)
(-0.0142905 -0.12035 0)
(-0.016902 -0.120173 0)
(-0.019185 -0.115567 0)
(-0.0235038 -0.109149 0)
(-0.0169924 -0.10266 0)
(-0.0239495 -0.0910437 0)
(-0.0380889 -0.0783125 0)
(-0.03915 -0.0823036 0)
(-0.0381634 -0.081066 0)
(-0.0450527 -0.0732276 0)
(-0.0511039 -0.0545538 0)
(-0.0505127 -0.0422886 0)
(-0.0545528 -0.0304744 0)
(-0.0435822 -0.0183895 0)
(-0.0292504 -0.0141603 0)
(-0.0296654 -0.00659158 0)
(-0.0305576 4.90696e-05 0)
(-0.0263961 0.00658317 0)
(-0.0374925 0.00901372 0)
(-0.00116949 -0.120258 0)
(-0.00399704 -0.120323 0)
(-0.00586409 -0.119843 0)
(-0.00995568 -0.114881 0)
(-0.0137821 -0.120103 0)
(-0.0161695 -0.118693 0)
(-0.0166179 -0.131192 0)
(-0.0156827 -0.111907 0)