/*--------------------------------*- C++ -*----------------------------------*\
| =========                 |                                                 |
| \\      /  F ield         | foam-extend: Open Source CFD                    |
|  \\    /   O peration     | Version:     4.1                                |
|   \\  /    A nd           | Web:         http://www.foam-extend.org         |
|    \\/     M anipulation  |                                                 |
\*---------------------------------------------------------------------------*/
FoamFile
{
    version     2.0;
    format      ascii;
    class       volScalarField;
    location    "0.3";
    object      alpha1;
}
// * * * * * * * * * * * * * * * * * * * * * * * * * * * * * * * * * * * * * //

dimensions      [0 0 0 0 0 0 0];

internalField   nonuniform List<scalar> 
2268
(
0.999999
0.999999
0.999999
0.999999
0.999999
0.999999
1
1
1
1
1
1
1
1
1
0.999994
0.999967
0.999952
0.999958
1
1
1
0.997906
1
1
1
1
1
1
1
1
1
1
1
1
1
1
1
1
1
0.999994
0.999994
1
1
1
0.997925
1
1
1
1
1
1
1
1
1
1
1
1
1
1
1
1
1
1
1
1
1
1
0.997936
1
1
1
1
1
1
1
1
0.999991
0.999993
1
1
1
1
1
1
1
1
1
1
1
1
0.99795
1
1
1
1
1
1
1
0.999985
0.999824
0.999838
0.999898
0.999763
0.999729
0.99984
1
1
1
1
1
1
1
1
0.997959
1
0.999994
0.999986
1
0.999972
0.999969
0.9999
0.999647
0.999358
0.999385
0.999392
0.998847
0.99857
0.998744
0.999199
0.999758
1
1
1
1
1
1
0.997981
0.999809
0.999745
0.999719
0.99971
0.999611
0.999529
0.999291
0.998699
0.998275
0.9983
0.998128
0.996662
0.995888
0.995993
0.996566
0.997489
0.9985
0.999504
1
1
1
1
0.998079
0.99915
0.998993
0.99893
0.998817
0.998578
0.998251
0.99769
0.996667
0.99604
0.996005
0.995388
0.992248
0.990695
0.990316
0.990618
0.991839
0.993699
0.995888
0.998092
1
1
1
0.998467
0
0
0
0.000486261
0.000139497
7.58031e-06
7.7176e-07
1.90755e-05
7.37676e-06
8.72446e-07
0
0
0
1.98631e-08
6.763e-09
2.14345e-09
7.47819e-10
0
0
0
0
0
0.000273607
0.000150858
0
0
1.15659e-05
1.5247e-05
6.26927e-06
1.26327e-06
0
0
0
4.54523e-09
1.68461e-09
1.9469e-09
7.7799e-10
0
0
0
0
0
0.000168861
0
0
0
5.55032e-07
8.62692e-06
5.51e-06
7.70197e-07
0
0
0
0
0
1.85601e-09
6.0183e-10
0
0
0
0
0.000172514
0
0
0
0
0
4.61471e-06
3.17144e-06
0
0
0
0
0
0
1.71583e-09
0
0
0
0
0.000160487
0
0.000139133
0
0
0
0
4.2814e-06
9.47779e-07
0
0
0
0
0
1.30753e-10
0
0
0.00479336
0
0.000111747
0.000428026
0.00139211
0
0
0
0
0
2.80008e-06
7.76598e-07
5.49503e-07
3.71776e-07
6.24262e-08
0
0
0.0182863
0.00295455
0.0404143
0
0
0.0010859
0.00439624
0.00240009
0.00017965
8.55731e-05
0
0
3.88534e-06
3.2604e-06
1.52703e-06
1.07671e-06
6.02751e-07
4.44124e-08
0
0.148552
0.0704443
0.11141
0
0
0.000293109
0.00955496
0.00926708
0.00419396
0.00239164
0.000159711
0
4.94106e-08
5.29728e-06
1.30059e-08
1.73668e-08
1.17868e-06
5.25096e-07
0
0.996698
0.996267
0.996115
0.995539
0.994994
0.993764
0.992548
0.9907
0.989592
0.989248
0.987189
0.980001
0.976973
0.974692
0.973005
0.974037
0.97756
0.982558
0.988936
0.995694
0.999752
1
0.999828
0.985415
0.984062
0.983714
0.980799
0.980041
0.976279
0.973751
0.969888
0.967211
0.964904
0.957383
0.93993
0.934512
0.925317
0.913385
0.902767
0.909826
0.921992
0.944173
0.973746
0.990038
0.99671
0.998998
0.944953
0.94175
0.941308
0.934015
0.932784
0.924421
0.919825
0.912393
0.904304
0.890935
0.864642
0.826527
0.818531
0.789045
0.742901
0.679501
0.682002
0.709728
0.775928
0.871833
0.926129
0.952674
0.97863
0.823684
0.817933
0.818217
0.80472
0.803306
0.788934
0.78472
0.769643
0.740357
0.688924
0.613616
0.535545
0.524615
0.466928
0.384608
0.303773
0.294335
0.312598
0.380416
0.525039
0.674943
0.740289
0.830288
0.522462
0.515671
0.517852
0.500465
0.5038
0.492904
0.494199
0.46582
0.410249
0.338315
0.25487
0.189771
0.182738
0.148729
0.111665
0.091262
0.0959749
0.106851
0.138315
0.199189
0.302402
0.4072
0.492036
0.194571
0.192572
0.194551
0.190271
0.196783
0.199873
0.203416
0.183612
0.152313
0.113506
0.0699426
0.0435502
0.0454438
0.0384705
0.0333805
0.0338576
0.0372245
0.0393657
0.0494946
0.0720393
0.137253
0.112198
0.119444
0.0604122
0.0602113
0.0609426
0.0610018
0.0648444
0.0690897
0.0716109
0.0634307
0.0513471
0.0354947
0.018137
0.00930678
0.0121111
0.0120528
0.0138744
0.0162422
0.0183075
0.0152916
0.0131273
0.0127726
0.0281946
0.0148217
0.0163279
0.0186266
0.0186416
0.0186511
0.0186938
0.0198501
0.0216328
0.0230191
0.0208574
0.0164129
0.0103028
0.00428912
0.00206536
0.00378778
0.00467173
0.00657914
0.00797202
0.00841564
0.0062646
0.00296079
0
0.0019522
0
0
0.00523064
0.00527939
0.00512822
0.00495099
0.00501435
0.0052655
0.00585232
0.00572139
0.00440789
0.00237275
0.000642388
0.000349012
0.00110551
0.00160212
0.00217802
0.00284026
0.00222511
0.00140966
6.79104e-05
0
0
0
0
0.00100224
0.0010657
0.000959159
0.000820052
0.000718596
0.000606208
0.000747811
0.000916726
0.000709507
0.000236523
0
0
6.67066e-05
0.00014441
0.000136034
0.000125332
0
0
0
0
0
0
0
0
0
0
0
0
0
0
0
0
0
0
0
0
0
0
0
0
0
0
0
0
0
0
0
0
0
0
0
0
0
0
0
0
0
0
0
0
0
0
0
0
0
0
0
0
0
0
0
0
0
0
0
0
0
0
0
0
0
0
0
0
0
0
0
0
0
0
0
0
0
0
0
0
0
0
0
0
0
0
0
0
0
0
0
0
0
0
0
0
0
0
0
0
0
0
0
0
2.17366e-06
3.69827e-06
2.40383e-06
0
0
0
0
0
0
0
0
0
0
0
0
0
0
0
1.4351e-06
1.05821e-06
1.50001e-06
1.65882e-06
1.90013e-06
2.80669e-06
3.64436e-06
4.27332e-06
4.13782e-06
2.84056e-06
1.06183e-07
0
0
0
0
0
0
0
0
0
0
2.49207e-08
3.88922e-08
4.57757e-07
5.30673e-07
7.03952e-07
1.16806e-06
1.27119e-06
1.33032e-06
1.60821e-06
2.06071e-06
2.46343e-06
2.38488e-06
1.5479e-06
4.54692e-07
0
0
0
0
0
0
0
2.14791e-08
3.00321e-08
3.29727e-08
2.72876e-08
4.23281e-08
3.71511e-08
7.00442e-08
2.19522e-07
2.42864e-07
3.00817e-07
4.17651e-07
5.62793e-07
6.95618e-07
6.95999e-07
6.23642e-07
5.62371e-07
2.81829e-07
1.37319e-07
1.74684e-07
1.23835e-07
9.26711e-08
4.88539e-08
3.90025e-08
2.95485e-08
1.69287e-08
9.4506e-09
6.39406e-09
0
0
0
2.39169e-08
3.12926e-09
2.6763e-08
6.49634e-08
7.58623e-08
1.14922e-07
1.16197e-07
1.31152e-07
1.77919e-07
2.0357e-07
1.55577e-07
5.24257e-08
2.80016e-08
2.03297e-08
9.74586e-09
6.25042e-09
3.52648e-09
1.91409e-09
9.35449e-10
8.13383e-10
0
0
0
0
0
0
0
0
0
2.8262e-09
9.56397e-09
2.40503e-08
4.21211e-08
2.50302e-08
5.35785e-09
9.28418e-10
5.03648e-10
0
0
0
0
0
3.85041e-10
0
0
0
0
0
0
0
0
0
0
0
0
1.6375e-09
1.04801e-10
0
0
0
0
0
0
0
1.21251e-10
1.27483e-09
0
1.56997e-11
0
0
0
0
0
0
0
0
0
0
0
0
0
0
0
0
0
0
2.0553e-12
2.17279e-10
1.6324e-09
0
9.68627e-11
1.08368e-10
0
7.90707e-11
0
0
0
0
0
0
0
0
0
0
3.03596e-12
5.39574e-12
2.16732e-12
0
0
4.47165e-12
3.82697e-10
3.76625e-09
5.27597e-11
7.72463e-11
9.73209e-11
9.46316e-11
1.62728e-10
9.33574e-11
6.09062e-11
0
0
6.82951e-11
0
0
0
1.51654e-11
1.22866e-11
1.1778e-11
5.0997e-12
0
0
0
0
5.16167e-10
6.15701e-09
1.84687e-11
1.30735e-11
1.54151e-11
2.04219e-11
3.56254e-11
6.15238e-11
8.21018e-11
6.44232e-11
5.79971e-11
6.65156e-11
5.23488e-11
3.51955e-11
3.1362e-11
1.62847e-11
3.04878e-12
1.60588e-12
6.07625e-13
0
0
0
0
5.94235e-10
7.4962e-09
1.38867e-12
0
0
3.22964e-13
1.52139e-12
6.56464e-12
1.12577e-11
1.48213e-11
1.54557e-11
1.39409e-11
1.35213e-11
1.42926e-11
1.16774e-11
2.5896e-12
5.51226e-14
1.70586e-13
3.30846e-13
0
0
0
0
9.66132e-10
1.21468e-08
0
0
0
0
0
0
0
7.96252e-13
1.17467e-12
6.8201e-13
7.83762e-13
1.15852e-12
9.67781e-13
0
0
1.61871e-13
9.73222e-13
0
0
0
0
1.64823e-09
1.65562e-08
0
0
0
0
0
0
0
0
0
0
0
0
0
0
0
2.04059e-13
1.18372e-12
0
0
0
0
2.67781e-09
2.12091e-08
0
0
0
0
0
0
0
0
0
0
0
0
0
0
0
2.33591e-13
1.71824e-12
0
0
0
0
3.06701e-09
2.25978e-08
1.14908e-14
1.53766e-14
1.44329e-14
1.52101e-14
1.23235e-14
8.9373e-15
3.83027e-15
0
0
0
0
0
0
0
0
2.6007e-13
2.21878e-12
1.50258e-12
0
0
0
3.07849e-09
2.10467e-08
3.27516e-15
5.44009e-15
5.38458e-15
6.32827e-15
6.38378e-15
7.27196e-15
8.04912e-15
6.66134e-15
6.55032e-15
5.9952e-15
6.66134e-15
7.32747e-15
7.04992e-15
0
0
3.10252e-13
2.43955e-12
2.76962e-12
0
0
0
4.0402e-09
2.18316e-08
1.38778e-15
2.94209e-15
3.27516e-15
2.33147e-15
1.11022e-15
1.83187e-15
3.71925e-15
2.60902e-15
3.21965e-15
4.10783e-15
1.22125e-15
3.66374e-15
2.10942e-15
0
0
5.19196e-13
3.20405e-12
2.22872e-12
0
0
0
3.44879e-09
1.97815e-08
1.16573e-15
3.60822e-15
2.10942e-15
1.11022e-15
2.16493e-15
3.10862e-15
3.27516e-15
1.83187e-15
2.498e-15
2.60902e-15
1.11022e-16
1.27676e-15
0
0
1.82077e-14
1.01313e-12
4.36634e-12
0
0
0
7.04764e-10
7.5356e-09
2.55081e-08
3.10862e-15
3.55271e-15
2.9976e-15
2.27596e-15
2.38698e-15
2.9976e-15
3.66374e-15
5.66214e-15
6.16174e-15
3.38618e-15
2.66454e-15
3.33067e-15
0
0
8.02691e-14
1.75987e-12
5.41422e-12
0
0
0
2.13667e-09
1.7132e-08
3.13929e-08
2.55351e-15
4.05231e-15
4.05231e-15
3.16414e-15
2.16493e-15
2.77556e-15
3.38618e-15
6.66134e-15
6.60583e-15
4.996e-15
1.83187e-15
3.66374e-15
0
0
1.37002e-13
2.44338e-12
6.35847e-12
0
0
0
5.31173e-09
4.69918e-08
2.94626e-08
3.44169e-15
4.38538e-15
4.10783e-15
3.44169e-15
2.88658e-15
2.9976e-15
3.94129e-15
8.49321e-15
6.4948e-15
3.4972e-15
1.11022e-15
4.16334e-15
0
0
2.09777e-13
3.25562e-12
7.1978e-12
0
0
0
7.8108e-09
7.65157e-08
1.32849e-08
4.38538e-15
3.88578e-15
4.66294e-15
2.83107e-15
2.33147e-15
1.66533e-15
3.94129e-15
8.16014e-15
6.43929e-15
1.9984e-15
2.22045e-15
4.10783e-15
0
0
2.91878e-13
4.06181e-12
7.35734e-12
0
0
0
1.00469e-08
8.7688e-08
8.34009e-09
4.32987e-15
2.38698e-15
3.66374e-15
2.94209e-15
2.72005e-15
2.9976e-15
4.77396e-15
8.04912e-15
6.55032e-15
1.16573e-15
2.38698e-15
4.996e-15
0
0
3.61045e-13
4.77512e-12
7.18536e-12
0
0
0
1.19899e-08
9.34776e-08
7.93511e-09
4.4964e-15
2.27596e-15
2.9976e-15
2.44249e-15
3.10862e-15
5.32907e-15
4.94049e-15
7.99361e-15
3.9968e-15
0
3.10862e-15
4.71845e-15
0
0
3.90299e-13
5.43721e-12
5.48583e-12
0
0
0
1.3195e-08
9.53298e-08
0
5.21805e-15
2.16493e-15
7.77156e-16
1.9984e-15
1.60982e-15
5.4956e-15
6.55032e-15
8.43769e-15
2.33147e-15
4.44089e-16
2.44249e-15
1.05471e-15
0
0
4.27547e-13
6.01508e-12
4.45044e-12
0
0
0
1.42981e-08
9.91839e-08
0
6.93889e-15
2.60902e-15
5.55112e-16
3.44169e-15
1.11022e-15
6.4948e-15
6.43929e-15
8.43769e-15
1.88738e-15
1.11022e-15
1.9984e-15
0
0
0
3.77864e-13
6.16274e-12
3.86352e-12
0
0
0
1.31274e-08
1.02003e-07
0
7.10543e-15
2.44249e-15
6.10623e-16
1.9984e-15
0
7.32747e-15
7.54952e-15
8.88178e-15
6.10623e-16
0
1.33227e-15
0
0
0
3.38285e-13
6.16612e-12
3.60639e-12
0
0
0
1.16214e-08
9.56349e-08
0
1
1
1
0.960631
1
1
1
1
0.988502
0.991777
0.994812
0.997481
0.879897
0.898839
0.917802
0.93445
0.565676
0.61469
0.666659
0.706966
0.138456
0.162409
0.197441
0.245185
0.0212018
0.0286119
0.0412092
0.0615359
0
0.00123972
0.00397613
0.00610979
0
0
0
0
0
0
0
0
0
0
0
0
0
0
0
0
0
0
0
0
0
0
0
0
0
0
0
0
4.69293e-08
4.84753e-08
4.55555e-08
4.15136e-08
2.17063e-08
1.86561e-08
1.56118e-08
1.33828e-08
4.58789e-09
4.03009e-09
3.61651e-09
2.79834e-09
7.7983e-10
1.22352e-09
2.02942e-09
1.80332e-10
1.63762e-09
4.39216e-09
7.44308e-09
0
4.87657e-09
1.1154e-08
1.43872e-08
0
6.47009e-09
1.60066e-08
2.04507e-08
0
1.42135e-08
2.74278e-08
2.76405e-08
0
2.03407e-08
3.24112e-08
2.55518e-08
0
2.5118e-08
3.25222e-08
1.40002e-08
0
3.65862e-08
3.2164e-08
0
0
4.44356e-08
3.64696e-08
0
0
4.88793e-08
4.17811e-08
0
0
4.92035e-08
5.43489e-08
3.21768e-08
0
5.03386e-08
8.40351e-08
1.08381e-07
1.10132e-08
6.04196e-08
1.1513e-07
1.52671e-07
0
6.07837e-08
1.27779e-07
2.00939e-07
7.873e-08
5.40491e-08
1.1175e-07
1.37453e-07
0
3.92246e-08
6.99256e-08
5.86498e-08
0
0
0
0
0
0
0
0
0
0
0
0
0
0
0
0
0
0
0
0
0
0
0
0
0
0
0
0
0
0
0
0
0
0.642587
0.333553
0.315964
0.00424968
0
0
0.0228551
0.0299007
0.0222225
0.0135309
0.00264493
0
0
0
0
0
0
1.47131e-06
3.97599e-07
0.981892
0.909603
0.83255
0.177512
0.0185325
0.0323213
0.10471
0.117739
0.115132
0.067949
0.0173693
0.00186558
0
0
0
0
0
0
3.34768e-06
0.99823
1
0.988594
0.720334
0.570691
0.467967
0.486735
0.463124
0.338907
0.170764
0.0560773
0.0118706
0.000470325
0
0.000161493
0.000987343
0
0
0
0.947684
0.970474
0.983242
0.962015
0.910079
0.879524
0.824801
0.57441
0.270528
0.170866
0.0165152
0
0
0.00394921
0.0137078
0.0134358
0.00564086
0.00025352
0
0.791733
0.831642
0.891178
0.919037
0.925975
0.940087
0.932659
0.8241
0.707584
0.488429
0.108974
0.0164118
0.017791
0.0865916
0.110215
0.10796
0.0721181
0.0207108
0
0.450522
0.45703
0.613097
0.635528
0.691803
0.78899
0.851018
0.87285
0.869817
0.818219
0.668702
0.468153
0.351579
0.440361
0.467696
0.451728
0.35906
0.151735
0.0156074
0.162777
0.174815
0.208533
0.194906
0.228192
0.338346
0.520141
0.628232
0.774685
0.822734
0.827958
0.806033
0.77576
0.778664
0.716807
0.542773
0.317726
0.145654
0.0322172
0.0174922
0.0423442
0.0388129
0.0393506
0.0505896
0.0895793
0.196722
0.279435
0.477545
0.590132
0.711173
0.768862
0.755279
0.694067
0.485953
0.21647
0.110282
0.0841677
0.0287292
0
0.00286832
0.00383574
0.00349989
0.00570172
0.0136487
0.0399707
0.0812712
0.115208
0.143949
0.212445
0.469355
0.623885
0.611012
0.526904
0.336252
0.124897
0.0354445
0.0206215
0
0
0
0
0
0
0.00118099
0.00597749
0.0131332
0.0206982
0.0499213
0.173128
0.420689
0.53844
0.534987
0.458281
0.246127
0.061986
0.0141869
0
0
0
0
0
0
0
0
0
0.00518268
0.0329401
0.127646
0.312303
0.483811
0.508816
0.455776
0.293902
0.100681
0.0174409
1.46535e-06
1.37127e-06
0
0
0
0
0
0
0.000470971
0.00583473
0.0263154
0.0928557
0.244099
0.451306
0.465393
0.40807
0.253944
0.099722
0.0189902
0
2.18544e-06
2.50323e-06
2.35485e-06
0
2.32208e-06
5.00803e-05
0.000274784
0.000958879
0.00403477
0.0207563
0.0913582
0.262243
0.411993
0.411952
0.347868
0.207647
0.0930976
0.0201355
0
0
0
0
0
0
1.75435e-05
0.000343121
0.00222308
0.0088692
0.0291147
0.0819378
0.219069
0.362676
0.369063
0.310479
0.166723
0.0809848
0.0200101
0
0
0
0
0
0
4.18942e-05
0.00054689
0.00320156
0.0104857
0.0284193
0.0744092
0.171989
0.300783
0.345024
0.301517
0.160182
0.0633
0.0188739
3.8061e-08
2.64235e-08
0
0
0
0
1.12883e-05
0.000257479
0.0019259
0.00999696
0.0392048
0.116814
0.240403
0.333853
0.344573
0.305651
0.175261
0.0618758
0.0178828
9.98944e-09
0
0
0
0
0
1.1016e-05
0.000183383
0.0013896
0.00825382
0.0326397
0.0895791
0.198927
0.318412
0.330966
0.294971
0.178944
0.0613407
0.0165532
0
0
0
0
0
0
2.51675e-06
0.000143577
0.0013031
0.00793861
0.0342086
0.0987904
0.188013
0.254622
0.277241
0.25971
0.172839
0.0625504
0.0166138
0
0
0
3.2409e-07
1.9256e-06
0
5.55609e-06
0.000150072
0.00142813
0.00905423
0.0367717
0.0871514
0.142145
0.140423
0.165135
0.190129
0.145418
0.0605106
0.016505
0
0
0
6.39531e-07
3.6212e-06
6.34157e-06
4.81867e-06
4.03543e-05
0.00046907
0.00408111
0.0211341
0.0590779
0.0855959
0.0850739
0.0853323
0.114543
0.102602
0.0534644
0.015873
0
0
9.69334e-08
1.92352e-06
7.27185e-06
1.96099e-05
1.97194e-05
2.58549e-05
0.000152357
0.00157331
0.00937897
0.0348757
0.0600633
0.0612588
0.0491208
0.0633109
0.0682255
0.043727
0.0147891
0
0
5.74592e-07
5.03202e-06
1.91757e-05
4.68532e-05
9.42757e-05
0.000142219
0.000410206
0.00181894
0.00751853
0.0258415
0.0484375
0.0509828
0.0407091
0.0366998
0.0451136
0.0358485
0.0139137
0
0
1.81344e-06
9.46847e-06
3.0307e-05
8.17152e-05
0.00024297
0.000742234
0.00208049
0.0054338
0.0150022
0.0339692
0.0455523
0.0454808
0.0365203
0.0229873
0.0321691
0.0284134
0.0129853
0
2.58217e-07
4.24965e-06
2.17409e-05
5.54639e-05
0.000105844
0.000277625
0.00104784
0.0041744
0.0116958
0.0255119
0.0374885
0.0420541
0.0408148
0.0327407
0.0180078
0.0232228
0.022626
0.0120577
0
8.57023e-07
7.47516e-06
3.10402e-05
8.40766e-05
0.00016429
0.000340742
0.00099523
0.00419199
0.0145317
0.029514
0.0362298
0.0359682
0.0320448
0.0249354
0.0131074
0.01651
0.0183272
0.0110098
0
1.3555e-06
8.61448e-06
3.67474e-05
0.000114592
0.000196779
0.000368889
0.00109339
0.00400649
0.0138031
0.0285308
0.0324885
0.02896
0.021432
0.015341
0.0081375
0.0112564
0.0150355
0.0100856
0
8.82158e-07
8.22403e-06
4.77262e-05
0.000193701
0.000407207
0.000782282
0.00181138
0.00503075
0.0149914
0.0277374
0.0294737
0.024896
0.0144534
0.00838648
0.00478216
0.00742795
0.0122849
0.00915731
0
0
8.27401e-06
5.96247e-05
0.000284728
0.000804236
0.00165568
0.00315693
0.00710477
0.0176886
0.0267234
0.0250543
0.0180826
0.00917269
0.00424281
0.00286035
0.00482771
0.0101806
0.00835623
0
0
1.72546e-06
4.34703e-05
0.000241573
0.000973718
0.00287636
0.0060177
0.0122555
0.0243274
0.0271975
0.022603
0.0133585
0.00538072
0.00240257
0.00171142
0.00331262
0.00835513
0.00761367
0
0
0
3.31419e-05
0.000309771
0.00148151
0.0049222
0.0125168
0.0207809
0.0275901
0.026971
0.0180634
0.00848135
0.00257255
0.000911477
0.000938825
0.00257236
0.00726714
0.00690692
0
0
0
1.37646e-05
0.000317667
0.00187848
0.00716003
0.0170101
0.0255844
0.0276709
0.0258286
0.0148756
0.00515418
0.00141685
0.000475204
0.000945995
0.0025957
0.00641602
0.00619589
0
0
0
0
0.000193123
0.00128471
0.00592411
0.0167759
0.0258812
0.0265689
0.0234238
0.0139235
0.00437471
0.000849115
0.000637182
0.00125542
0.00323663
0.00570064
0.00544259
0
0
0
0
0.000143925
0.00111072
0.00591657
0.0177686
0.0254175
0.0241742
0.0186627
0.0097091
0.00281564
0.000476587
0.000606647
0.00146608
0.00332019
0.00497077
0.00463952
0
0
0
5.10304e-06
0.000239426
0.00156239
0.00615032
0.0171461
0.0235186
0.0211978
0.0144148
0.00657388
0.00181066
0.000304008
0.000525973
0.0014068
0.00309266
0.00426516
0.0039164
0
0
0
1.08233e-05
0.00018415
0.00164087
0.0070781
0.0179503
0.022264
0.0191415
0.0110492
0.00450833
0.00115551
0.000203815
0.000411966
0.00125723
0.00272514
0.00352903
0.00324458
0
0
0
4.71848e-05
0.000194212
0.00145636
0.00716565
0.0181809
0.0216577
0.0183792
0.00959782
0.00340724
0.000781221
0.000139592
0.000311514
0.00104834
0.00225763
0.00284098
0.00258751
0
0
1.47456e-05
9.26211e-05
0.000195161
0.0010851
0.0064569
0.0179363
0.0211237
0.0170082
0.00748296
0.00237782
0.00046762
0.000101835
0.000234155
0.000799281
0.0016965
0.0021109
0.00194428
0
0
2.62489e-05
0.000126766
0.00025884
0.000765336
0.0045971
0.0162487
0.0203255
0.0162575
0.00630849
0.00157614
0.000268249
7.25178e-05
0.00015383
0.000516469
0.00107947
0.00134412
0.00126893
0
0
4.04594e-05
0.000156468
0.000310828
0.000750334
0.00397145
0.0149144
0.0196705
0.0156655
0.00565639
0.00115035
0.000174449
4.88336e-05
8.25759e-05
0.00026829
0.000562635
0.000708776
0.000673474
0
0
5.15723e-05
0.000170323
0.000302271
0.000394579
0.00171703
0.0112158
0.0183463
0.0152432
0.00547252
0.000754067
0.000109721
3.41217e-05
4.14921e-05
0.000118263
0.000243639
0.000312012
0.000290736
0
7.53301e-07
7.42796e-05
0.000170067
0.000285512
0.000339116
0.00065892
0.0055793
0.015484
0.0147632
0.00608154
0.000647082
7.29015e-05
2.09142e-05
1.81186e-05
4.46474e-05
9.13373e-05
0.00012116
0.000104571
0
2.01822e-06
8.44095e-05
0.000181887
0.000298009
0.000371737
0.000346449
0.000970419
0.00685952
0.0120053
0.00442502
0.000377973
2.66983e-05
9.80684e-06
7.72492e-06
1.29071e-05
2.50772e-05
3.41885e-05
2.67339e-05
)
;

boundaryField
{
    leftWall
    {
        type            zeroGradient;
    }
    rightWall
    {
        type            zeroGradient;
    }
    lowerWall
    {
        type            zeroGradient;
    }
    atmosphere
    {
        type            inletOutlet;
        inletValue      uniform 0;
        value           nonuniform List<scalar> 
46
(
7.10543e-15
2.44249e-15
6.10623e-16
1.9984e-15
0
7.32747e-15
7.54952e-15
8.88178e-15
6.10623e-16
0
1.33227e-15
0
0
0
3.38285e-13
6.16612e-12
3.60639e-12
0
0
0
1.16214e-08
9.56349e-08
0
0
0
0
0
0
2.01822e-06
8.44095e-05
0.000181887
0.000298009
0.000371737
0.000346449
0.000970419
0.00685952
0.0120053
0.00442502
0.000377973
2.66983e-05
9.80684e-06
7.72492e-06
1.29071e-05
2.50772e-05
3.41885e-05
2.67339e-05
)
;
    }
    defaultFaces
    {
        type            empty;
    }
}


// ************************************************************************* //
