/*--------------------------------*- C++ -*----------------------------------*\
| =========                 |                                                 |
| \\      /  F ield         | foam-extend: Open Source CFD                    |
|  \\    /   O peration     | Version:     4.1                                |
|   \\  /    A nd           | Web:         http://www.foam-extend.org         |
|    \\/     M anipulation  |                                                 |
\*---------------------------------------------------------------------------*/
FoamFile
{
    version     2.0;
    format      ascii;
    class       volScalarField;
    location    "0.3";
    object      C;
}
// * * * * * * * * * * * * * * * * * * * * * * * * * * * * * * * * * * * * * //

dimensions      [0 0 0 0 0 0 0];

internalField   nonuniform List<scalar> 
2268
(
0.999998
0.999998
0.999998
0.999998
0.999998
0.999998
1
1.00001
1.00002
1.00002
1.00002
1.00004
1.00006
1.00005
1.00003
0.999989
0.999935
0.999904
0.999916
1.00009
1.00089
1.00011
0.995812
1
1
1.00001
1.00001
1.00001
1.00001
1.00002
1.00003
1.00003
1.00004
1.00006
1.00009
1.00013
1.00014
1.00013
1.00009
1.00003
0.999987
0.999989
1.00016
1.00088
1.00016
0.995851
1.00002
1.00002
1.00003
1.00003
1.00004
1.00005
1.00007
1.00008
1.00005
1.00005
1.0001
1.00016
1.00023
1.00027
1.00032
1.00034
1.00028
1.00023
1.00019
1.00032
1.00089
1.00025
0.995871
1.00006
1.00006
1.00006
1.00007
1.00008
1.0001
1.00013
1.00011
0.999983
0.999986
1.00009
1.0001
1.00016
1.00028
1.00049
1.00068
1.00069
1.00066
1.00058
1.00065
1.00104
1.00036
0.995899
1.00009
1.00008
1.00008
1.0001
1.0001
1.00013
1.00012
0.99997
0.999649
0.999675
0.999797
0.999526
0.999457
0.999679
1.00019
1.00074
1.00101
1.00115
1.00113
1.00115
1.00138
1.00055
0.995919
1.00003
0.999987
0.999973
1
0.999943
0.999939
0.999801
0.999293
0.998717
0.99877
0.998785
0.997695
0.99714
0.997489
0.998398
0.999517
1.0004
1.00109
1.00148
1.00167
1.00191
1.00083
0.995963
0.999618
0.99949
0.999437
0.99942
0.999222
0.999058
0.998583
0.997398
0.996549
0.996599
0.996257
0.993324
0.991777
0.991986
0.993132
0.994977
0.997
0.999007
1.00059
1.00166
1.00241
1.00117
0.996158
0.998299
0.997985
0.997859
0.997634
0.997156
0.996502
0.99538
0.993335
0.99208
0.992009
0.990775
0.984495
0.981391
0.980632
0.981235
0.983678
0.987397
0.991776
0.996183
1.00002
1.00233
1.00161
0.996934
-1.01243
-1.00631
-1.00087
-0.999027
-0.999721
-0.999985
-0.999998
-0.999962
-0.999985
-0.999998
-1
-1
-1
-1
-1
-1
-1
-1
-1
-1.02208
-1.01134
-1.00401
-0.999453
-0.999698
-1.00002
-1.00007
-0.999977
-0.99997
-0.999987
-0.999997
-1
-1
-1
-1
-1
-1
-1
-1
-1.03438
-1.01892
-1.01031
-1.00051
-0.999662
-1.00012
-1.00023
-1.00012
-0.999999
-0.999983
-0.999989
-0.999998
-1
-1
-1
-1
-1
-1
-1
-1.04273
-1.02716
-1.01712
-1.0023
-0.999655
-1.00019
-1.00031
-1.00054
-1.00019
-1.00004
-0.999991
-0.999994
-1
-1
-1
-1
-1
-1
-1
-1.04652
-1.03338
-1.01629
-1.00525
-0.999679
-1
-0.999722
-1.00095
-1.00067
-1.00025
-1.00005
-0.999991
-0.999998
-1
-1
-1
-1
-1
-1
-1.03503
-1.02789
-0.990413
-1.00951
-0.999777
-0.999144
-0.997216
-1.00018
-1.00107
-1.0005
-1.00022
-1.00001
-0.999994
-0.999998
-0.999999
-0.999999
-1
-1
-1
-0.963427
-0.994091
-0.919171
-1.0146
-1.0009
-0.997828
-0.991208
-0.9952
-0.999641
-0.999829
-1.00036
-1.00008
-0.999992
-0.999993
-0.999997
-0.999998
-0.999999
-1
-1
-0.702895
-0.859111
-0.77718
-1.01641
-1.00659
-0.999414
-0.98089
-0.981466
-0.991612
-0.995217
-0.999681
-1.00018
-1
-0.999989
-1
-1
-0.999998
-0.999999
-1
0.993395
0.992533
0.992229
0.991079
0.989988
0.987527
0.985096
0.981401
0.979185
0.978496
0.974379
0.960001
0.953946
0.949383
0.94601
0.948075
0.95512
0.965117
0.977873
0.991387
0.999504
1.00184
0.999655
0.970831
0.968124
0.967428
0.961599
0.960081
0.952558
0.947502
0.939775
0.934423
0.929809
0.914766
0.87986
0.869025
0.850633
0.82677
0.805534
0.819652
0.843984
0.888346
0.947491
0.980077
0.99342
0.997996
0.889905
0.883499
0.882615
0.86803
0.865568
0.848841
0.839651
0.824787
0.808608
0.78187
0.729285
0.653053
0.637061
0.57809
0.485803
0.359001
0.364004
0.419456
0.551856
0.743665
0.852259
0.905348
0.957261
0.647367
0.635867
0.636433
0.60944
0.606612
0.577869
0.56944
0.539286
0.480714
0.377848
0.227233
0.0710899
0.0492308
-0.0661433
-0.230783
-0.392454
-0.411329
-0.374803
-0.239167
0.0500783
0.349886
0.480578
0.660577
0.0449241
0.0313421
0.0357035
0.000930341
0.0075998
-0.0141917
-0.0116015
-0.0683599
-0.179503
-0.32337
-0.49026
-0.620458
-0.634525
-0.702542
-0.776671
-0.817476
-0.80805
-0.786298
-0.723371
-0.601622
-0.395196
-0.185599
-0.0159271
-0.610857
-0.614856
-0.610898
-0.619458
-0.606435
-0.600253
-0.593168
-0.632775
-0.695373
-0.772988
-0.860115
-0.9129
-0.909112
-0.923059
-0.933239
-0.932285
-0.925551
-0.921269
-0.901011
-0.855921
-0.725495
-0.775604
-0.761112
-0.879176
-0.879577
-0.878115
-0.877996
-0.870311
-0.861821
-0.856778
-0.873139
-0.897306
-0.929011
-0.963726
-0.981386
-0.975778
-0.975894
-0.972251
-0.967516
-0.963385
-0.969417
-0.973745
-0.974455
-0.943611
-0.970357
-0.967344
-0.962747
-0.962717
-0.962698
-0.962612
-0.9603
-0.956734
-0.953962
-0.958285
-0.967174
-0.979394
-0.991422
-0.995869
-0.992424
-0.990657
-0.986842
-0.984056
-0.983169
-0.987471
-0.994078
-1.00025
-0.996096
-1.00065
-1.00122
-0.989539
-0.989441
-0.989744
-0.990098
-0.989971
-0.989469
-0.988295
-0.988557
-0.991184
-0.995254
-0.998715
-0.999302
-0.997789
-0.996796
-0.995644
-0.994319
-0.99555
-0.997181
-0.999864
-1.00189
-1.00151
-1.00174
-1.00218
-0.997996
-0.997869
-0.998082
-0.99836
-0.998563
-0.998788
-0.998504
-0.998167
-0.998581
-0.999527
-1.00042
-1.00038
-0.999867
-0.999711
-0.999728
-0.999749
-1.00062
-1.00088
-1.00127
-1.00133
-1.00114
-1.00085
-1.00066
-1.00014
-1.00011
-1.0002
-1.00031
-1.00037
-1.00043
-1.00042
-1.00037
-1.00045
-1.00057
-1.0008
-1.00074
-1.00059
-1.00063
-1.00081
-1.00101
-1.00113
-1.00108
-1.00104
-1.00085
-1.00065
-1.00042
-1.00027
-1.00043
-1.00048
-1.0005
-1.00054
-1.00054
-1.00045
-1.00046
-1.00056
-1.00071
-1.00078
-1.00086
-1.00078
-1.00074
-1.00075
-1.00082
-1.00079
-1.00069
-1.00059
-1.00052
-1.0004
-1.00028
-1.00016
-1.00011
-1.00026
-1.00035
-1.0003
-1.00031
-1.00024
-1.00011
-1.00009
-1.00018
-1.00038
-1.00052
-1.00057
-1.00047
-1.00062
-1.00063
-1.00059
-1.00041
-1.00033
-1.00028
-1.00023
-1.00015
-1.00008
-1.00004
-1.00003
-1.00004
-1.00008
-1.00007
-1.00008
-1.00005
-1.00001
-1.00001
-1.00004
-1.00009
-1.00013
-1.00019
-1.00018
-1.0003
-1.00032
-1.0003
-1.00016
-1.00011
-1.00009
-1.00007
-1.00004
-1.00002
-1.00001
-1.00001
-1
-1.00001
-1
-1.00001
-1
-0.999996
-0.999993
-0.999995
-1
-1.00001
-1.00003
-1.00005
-1.00009
-1.0001
-1.0001
-1.00005
-1.00002
-1.00002
-1.00001
-1.00001
-1
-1
-1
-0.999997
-0.999998
-0.999997
-0.999997
-0.999996
-0.999994
-0.999993
-0.999991
-0.999992
-0.999994
-1
-1.00001
-1.00002
-1.00002
-1.00002
-1.00001
-1
-1
-1
-1
-1
-1
-1
-0.999999
-0.999999
-0.999999
-0.999998
-0.999997
-0.999997
-0.999997
-0.999996
-0.999995
-0.999995
-0.999997
-0.999999
-1
-1
-1
-1
-1
-1
-1
-1
-1
-1
-1
-1
-1
-1
-1
-1
-0.999999
-0.999999
-0.999999
-0.999999
-0.999999
-0.999999
-0.999999
-0.999999
-1
-1
-1
-1
-1
-1
-1
-1
-1
-1
-1
-1
-1
-1
-1
-1
-1
-1
-1
-1
-1
-1
-1
-1
-1
-1
-1
-1
-1
-1
-1
-1
-1
-1
-1
-1
-1
-1
-1
-1
-1
-1
-1
-1
-1
-1
-1
-1
-1
-1
-1
-1
-1
-1
-1
-1
-1
-1
-1
-1
-1
-1
-1
-1
-1
-1
-1
-1
-1
-1
-1
-1
-1
-1
-1
-1
-1
-1
-1
-1
-1
-1
-1
-1
-1
-1
-1
-1
-1
-1
-1
-1
-1
-1
-1
-1
-1
-1
-1
-1
-1
-1
-1
-1
-1
-1
-1
-1
-1
-1
-1
-1
-1
-1
-1
-1
-1
-1
-1
-1
-1
-1
-1
-1
-1
-1
-1
-1
-1
-1
-1
-1
-1
-1
-1
-1
-1
-1
-1
-1
-1
-1
-1
-1
-1
-1
-1
-1
-1
-1
-1
-1
-1
-1
-1
-1
-1
-1
-1
-1
-1
-1
-1
-1
-1
-1
-1
-1
-1
-1
-1
-1
-1
-1
-1
-1
-1
-1
-1
-1
-1
-1
-1
-1
-1
-1
-1
-1
-1
-1
-1
-1
-1
-1
-1
-1
-1
-1
-1
-1
-1
-1
-1
-1
-1
-1
-1
-1
-1
-1
-1
-1
-1
-1
-1
-1
-1
-1
-1
-1
-1
-1
-1
-1
-1
-1
-1
-1
-1
-1
-1
-1
-1
-1
-1
-1
-1
-1
-1
-1
-1
-1
-1
-1
-1
-1
-1
-1
-1
-1
-1
-1
-1
-1
-1
-1
-1
-1
-1
-1
-1
-1
-1
-1
-1
-1
-1
-1
-1
-1
-1
-1
-1
-1
-1
-1
-1
-1
-1
-1
-1
-1
-1
-1
-1
-1
-1
-1
-1
-1
-1
-1
-1
-1
-1
-1
-1
-1
-1
-1
-1
-1
-1
-1
-1
-1
-1
-1
-1
-1
-1
-1
-1
-1
-1
-1
-1
-1
-1
-1
-1
-1
-1
-1
-1
-1
-1
-1
-1
-1
-1
-1
-1
-1
-1
-1
-1
-1
-1
-1
-1
-1
-1
-1
-1
-1
-1
-1
-1
-1
-1
-1
-1
-1
-1
-1
-1
-1
-1
-1
-1
-1
-1
-1
-1
-1
-1
-1
-1
-1
-1
-1
-1
-1
-1
-1
-1
-1
-1
-1
-1
-1
-1
-1
-1
-1
-1
-1
-1
-1
-1
-1
-1
-1
-1
-1
-1
-1
-1
-1
-1
-1
-1
-1
-1
-1
-1
-1
-1
-1
-1
-1
-1
-1
-1
-1
-1
-1
-1
-1
-1
-1
-1
-1
-1
-1
-1
-1
-1
-1
-1
-1
-1
-1
-1
-1
-1
-1
-1
-1
-1
-1
-1
-1
-1
-1
-1
-1
-1
-1
-1
-1
-1
-1
-1
-1
-1
-1
-1
-1
-1
-1
-1
-1
-1
-1
-1
-1
-1
-1
-1
-1
-1
-1
-1
-1
-1
-1
-1
-1
-1
-1
-1
-1
-1
-1
-1
-1
-1
-1
-1
-1
-1
-1
-1
-1
-1
-1
-1
-1
-1
-1
-1
-1
-1
-1
-1
-1
-1
-1
-1
-1
-1
-1
-1
-1
-1
-1
-1
-1
-1
-1
-1
-1
-1
-1
-1
-1
-1
-1
-1
-1
-1
-1
-1
-1
-1
-1
-1
-1
-1
-1
-1
-1
-1
-1
-1
-1
-1
-1
-1
-1
-1
-1
-1
-1
-1
-1
-1
-1
-1
-1
1.00446
1.01753
1.01894
0.921262
1.00192
1.00835
1.01636
1.00938
0.977004
0.983554
0.989624
0.994962
0.759793
0.797677
0.835605
0.868899
0.131353
0.229381
0.333318
0.413932
-0.723089
-0.675183
-0.605119
-0.509629
-0.957596
-0.942776
-0.917582
-0.876928
-1.00032
-0.997521
-0.992048
-0.98778
-1.00268
-1.00295
-1.00307
-1.00328
-1.0007
-1.00078
-1.00096
-1.00131
-1.0002
-1.00017
-1.00014
-1.00015
-1.00007
-1.00005
-1.00003
-1.00002
-1.00002
-1.00002
-1.00001
-1.00001
-1.00001
-1
-1
-1
-1
-1
-1
-1
-1
-1
-1
-1
-1
-1
-1
-1
-1
-1
-1
-1
-1
-1
-1
-1
-1
-1
-1
-1
-1
-1
-1
-1
-1
-1
-1
-1
-1
-1
-1
-1
-1
-1
-1
-1
-1
-1
-1
-1
-1
-1
-1
-1
-1
-1
-1
-1
-1
-1
-1
-1
-1
-1
-1
-1
-1
-1
-1
-1
-1
-1
-1
-1
-1
-1
-1
-1
-1
-1
-1
-1
-1
-1
-1
-1
-1
-1
-1
-1
-1
-1
-1
-1.00001
-1
-1
-1.00001
-1.00001
-1
-1.00001
-1.00001
-1.00001
-1
-1.00001
-1.00001
-1.00002
-1
-1.00001
-1.00001
-1.00002
-1
-1.00001
-1.00002
-1.00002
-1
-1.00001
-1.00002
-1.00002
0.285174
-0.332893
-0.368071
-0.991501
-1.02821
-1.00668
-0.95429
-0.940199
-0.955555
-0.972938
-0.99471
-1.00009
-1.00004
-1.00002
-1.00004
-1.00003
-1.00001
-0.999997
-0.999999
0.963784
0.819206
0.665099
-0.644977
-0.962935
-0.935357
-0.790581
-0.764523
-0.769735
-0.864102
-0.965261
-0.996269
-1.00004
-1.00043
-1.00036
-1.00012
-1.00017
-1.00003
-0.999993
0.996459
1.0075
0.977188
0.440667
0.141383
-0.0640668
-0.0265309
-0.0737516
-0.322186
-0.658472
-0.887845
-0.976259
-0.999059
-1.002
-0.999677
-0.998025
-1.00043
-1.00041
-1.00003
0.895368
0.940947
0.966484
0.92403
0.820158
0.759048
0.649602
0.14882
-0.458944
-0.658267
-0.96697
-1.01761
-1.01064
-0.992102
-0.972584
-0.973128
-0.988718
-0.999493
-1.00057
0.583466
0.663283
0.782357
0.838073
0.85195
0.880173
0.865317
0.6482
0.415168
-0.0231427
-0.782052
-0.967176
-0.964418
-0.826817
-0.779571
-0.784081
-0.855764
-0.958578
-1.00059
-0.098956
-0.0859395
0.226194
0.271056
0.383605
0.57798
0.702035
0.7457
0.739634
0.636439
0.337404
-0.0636932
-0.296843
-0.119277
-0.0646087
-0.0965441
-0.28188
-0.696529
-0.968785
-0.674446
-0.65037
-0.582933
-0.610188
-0.543616
-0.323308
0.0402828
0.256463
0.54937
0.645468
0.655917
0.612065
0.551521
0.557328
0.433614
0.0855465
-0.364548
-0.708692
-0.935566
-0.965016
-0.915312
-0.922374
-0.921299
-0.898821
-0.820841
-0.606557
-0.441131
-0.0449101
0.180264
0.422346
0.537725
0.510557
0.388135
-0.0280938
-0.56706
-0.779435
-0.831665
-0.942542
-1.00208
-0.994263
-0.992329
-0.993
-0.988597
-0.972703
-0.920059
-0.837458
-0.769584
-0.712102
-0.575111
-0.0612899
0.247769
0.222025
0.053808
-0.327495
-0.750206
-0.929111
-0.958757
-1.00195
-1.00201
-1.0018
-1.00168
-1.00129
-1.00056
-0.997638
-0.988045
-0.973734
-0.958604
-0.900157
-0.653745
-0.158622
0.0768797
0.069973
-0.0834384
-0.507745
-0.876028
-0.971626
-1.00019
-1.00032
-1.00052
-1.00052
-1.00055
-1.00076
-1.00144
-1.00221
-1.00085
-0.989635
-0.93412
-0.744709
-0.375393
-0.0323788
0.0176325
-0.0884482
-0.412197
-0.798638
-0.965118
-0.999997
-0.999997
-1.00002
-1.00002
-1.00004
-1.00006
-1.00015
-1.00025
-0.999058
-0.988331
-0.947369
-0.814289
-0.511803
-0.0973883
-0.0692133
-0.18386
-0.492113
-0.800556
-0.96202
-1
-0.999996
-0.999995
-0.999995
-1
-0.999995
-0.9999
-0.99945
-0.998082
-0.99193
-0.958487
-0.817284
-0.475515
-0.176014
-0.176097
-0.304265
-0.584706
-0.813805
-0.959729
-1
-1
-1
-1
-1.00001
-1.00001
-0.999965
-0.999314
-0.995554
-0.982262
-0.941771
-0.836124
-0.561861
-0.274647
-0.261874
-0.379042
-0.666554
-0.83803
-0.95998
-1
-1
-1
-1
-1.00001
-1.00001
-0.999916
-0.998906
-0.993597
-0.979029
-0.943161
-0.851182
-0.656022
-0.398434
-0.309951
-0.396967
-0.679636
-0.8734
-0.962252
-1
-1
-1
-1
-1
-1.00001
-0.999977
-0.999485
-0.996148
-0.980006
-0.92159
-0.766371
-0.519193
-0.332295
-0.310854
-0.388697
-0.649477
-0.876248
-0.964234
-1
-1
-1
-1
-1.00001
-1.00001
-0.999978
-0.999633
-0.997221
-0.983492
-0.934721
-0.820842
-0.602146
-0.363176
-0.338068
-0.410058
-0.642113
-0.877319
-0.966894
-1
-1
-1
-1
-1
-1.00001
-0.999995
-0.999713
-0.997394
-0.984123
-0.931583
-0.802419
-0.623974
-0.490755
-0.445518
-0.48058
-0.654323
-0.874899
-0.966772
-1
-1
-1
-0.999999
-0.999996
-1
-0.999989
-0.9997
-0.997144
-0.981892
-0.926457
-0.825697
-0.71571
-0.719153
-0.66973
-0.619742
-0.709164
-0.878979
-0.96699
-1
-1
-1
-0.999999
-0.999993
-0.999987
-0.99999
-0.999919
-0.999062
-0.991838
-0.957732
-0.881844
-0.828808
-0.829852
-0.829335
-0.770913
-0.794795
-0.893071
-0.968254
-1
-1
-1
-0.999996
-0.999985
-0.999961
-0.999961
-0.999948
-0.999695
-0.996853
-0.981242
-0.930249
-0.879873
-0.877482
-0.901758
-0.873378
-0.863549
-0.912546
-0.970422
-1
-1
-0.999999
-0.99999
-0.999962
-0.999906
-0.999811
-0.999716
-0.99918
-0.996362
-0.984963
-0.948317
-0.903125
-0.898034
-0.918582
-0.9266
-0.909773
-0.928303
-0.972173
-1
-1
-0.999996
-0.999981
-0.999939
-0.999837
-0.999514
-0.998516
-0.995839
-0.989132
-0.969996
-0.932062
-0.908895
-0.909038
-0.926959
-0.954025
-0.935662
-0.943173
-0.974029
-1
-0.999999
-0.999992
-0.999957
-0.999889
-0.999788
-0.999445
-0.997904
-0.991651
-0.976608
-0.948976
-0.925023
-0.915892
-0.91837
-0.934519
-0.963984
-0.953554
-0.954748
-0.975885
-1
-0.999998
-0.999985
-0.999938
-0.999832
-0.999671
-0.999319
-0.99801
-0.991616
-0.970937
-0.940972
-0.92754
-0.928064
-0.93591
-0.950129
-0.973785
-0.96698
-0.963346
-0.97798
-1
-0.999997
-0.999983
-0.999927
-0.999771
-0.999606
-0.999262
-0.997813
-0.991987
-0.972394
-0.942938
-0.935023
-0.94208
-0.957136
-0.969318
-0.983725
-0.977487
-0.969929
-0.979829
-1
-0.999998
-0.999984
-0.999905
-0.999613
-0.999186
-0.998435
-0.996377
-0.989938
-0.970017
-0.944525
-0.941053
-0.950208
-0.971093
-0.983227
-0.990436
-0.985144
-0.97543
-0.981685
-1
-1
-0.999983
-0.999881
-0.999431
-0.998392
-0.996689
-0.993686
-0.98579
-0.964623
-0.946553
-0.949891
-0.963835
-0.981655
-0.991514
-0.994279
-0.990345
-0.979639
-0.983288
-1
-1.00001
-0.999997
-0.999913
-0.999517
-0.998053
-0.994247
-0.987965
-0.975489
-0.951345
-0.945605
-0.954794
-0.973283
-0.989239
-0.995195
-0.996577
-0.993375
-0.98329
-0.984773
-1
-1.00002
-1.00002
-0.999934
-0.99938
-0.997037
-0.990156
-0.974966
-0.958438
-0.94482
-0.946058
-0.963873
-0.983037
-0.994855
-0.998177
-0.998122
-0.994855
-0.985466
-0.986186
-1
-1.00002
-1.00003
-0.999972
-0.999365
-0.996243
-0.98568
-0.96598
-0.948831
-0.944658
-0.948343
-0.970249
-0.989692
-0.997166
-0.99905
-0.998108
-0.994809
-0.987168
-0.987608
-1
-1.00002
-1.00004
-1
-0.999614
-0.997431
-0.988152
-0.966448
-0.948238
-0.946862
-0.953152
-0.972153
-0.991251
-0.998302
-0.998726
-0.997489
-0.993527
-0.988599
-0.989115
-1
-1.00003
-1.00004
-1.00001
-0.999712
-0.997779
-0.988167
-0.964463
-0.949165
-0.951652
-0.962675
-0.980582
-0.994369
-0.999047
-0.998787
-0.997068
-0.99336
-0.990058
-0.990721
-1.00001
-1.00003
-1.00004
-0.99999
-0.999521
-0.996875
-0.987699
-0.965708
-0.952963
-0.957604
-0.97117
-0.986852
-0.996379
-0.999392
-0.998948
-0.997186
-0.993815
-0.99147
-0.992167
-1.00001
-1.00003
-1.00002
-0.999978
-0.999632
-0.996718
-0.985844
-0.964099
-0.955472
-0.961717
-0.977902
-0.990983
-0.997689
-0.999592
-0.999176
-0.997486
-0.99455
-0.992942
-0.993511
-1.00002
-1.00002
-1
-0.999906
-0.999612
-0.997087
-0.985669
-0.963638
-0.956685
-0.963242
-0.980804
-0.993186
-0.998438
-0.999721
-0.999377
-0.997903
-0.995485
-0.994318
-0.994825
-1.00002
-1.00002
-0.999971
-0.999815
-0.99961
-0.99783
-0.987086
-0.964127
-0.957753
-0.965984
-0.985034
-0.995244
-0.999065
-0.999796
-0.999532
-0.998401
-0.996607
-0.995778
-0.996111
-1.00003
-1.00002
-0.999948
-0.999746
-0.999482
-0.998469
-0.990806
-0.967503
-0.959349
-0.967485
-0.987383
-0.996848
-0.999464
-0.999855
-0.999692
-0.998967
-0.997841
-0.997312
-0.997462
-1.00003
-1.00001
-0.999919
-0.999687
-0.999378
-0.998499
-0.992057
-0.970171
-0.960659
-0.968669
-0.988687
-0.997699
-0.999651
-0.999902
-0.999835
-0.999463
-0.998875
-0.998582
-0.998653
-1.00003
-1.00001
-0.999897
-0.999659
-0.999395
-0.999211
-0.996566
-0.977568
-0.963307
-0.969514
-0.989055
-0.998492
-0.999781
-0.999932
-0.999917
-0.999763
-0.999513
-0.999376
-0.999419
-1.00003
-0.999998
-0.999851
-0.99966
-0.999429
-0.999322
-0.998682
-0.988841
-0.969032
-0.970474
-0.987837
-0.998706
-0.999854
-0.999958
-0.999964
-0.999911
-0.999817
-0.999758
-0.999791
-1.00003
-0.999996
-0.999831
-0.999636
-0.999404
-0.999257
-0.999307
-0.998059
-0.986281
-0.975989
-0.99115
-0.999244
-0.999947
-0.99998
-0.999985
-0.999974
-0.99995
-0.999932
-0.999947
)
;

boundaryField
{
    leftWall
    {
        type            zeroGradient;
    }
    rightWall
    {
        type            zeroGradient;
    }
    lowerWall
    {
        type            zeroGradient;
    }
    atmosphere
    {
        type            zeroGradient;
    }
    defaultFaces
    {
        type            empty;
    }
}


// ************************************************************************* //
