/*--------------------------------*- C++ -*----------------------------------*\
| =========                 |                                                 |
| \\      /  F ield         | foam-extend: Open Source CFD                    |
|  \\    /   O peration     | Version:     4.1                                |
|   \\  /    A nd           | Web:         http://www.foam-extend.org         |
|    \\/     M anipulation  |                                                 |
\*---------------------------------------------------------------------------*/
FoamFile
{
    version     2.0;
    format      ascii;
    class       volScalarField;
    location    "0.3";
    object      C_0;
}
// * * * * * * * * * * * * * * * * * * * * * * * * * * * * * * * * * * * * * //

dimensions      [0 0 0 0 0 0 0];

internalField   nonuniform List<scalar> 
2268
(
0.999998
0.999998
0.999998
0.999998
0.999998
0.999998
1
1.00001
1.00002
1.00002
1.00002
1.00004
1.00006
1.00005
1.00003
0.999986
0.999933
0.999903
0.999917
1.0001
1.0009
1.00012
0.995765
1
1
1.00001
1.00001
1.00001
1.00001
1.00002
1.00003
1.00003
1.00003
1.00006
1.00009
1.00013
1.00014
1.00012
1.00009
1.00002
0.999985
0.999988
1.00016
1.00089
1.00016
0.995803
1.00002
1.00002
1.00003
1.00003
1.00003
1.00005
1.00007
1.00008
1.00005
1.00005
1.0001
1.00016
1.00023
1.00027
1.00032
1.00034
1.00027
1.00022
1.00019
1.00032
1.0009
1.00025
0.995824
1.00006
1.00006
1.00006
1.00007
1.00008
1.0001
1.00012
1.00011
0.999984
0.999988
1.00009
1.0001
1.00017
1.00028
1.00049
1.00068
1.00068
1.00065
1.00057
1.00065
1.00105
1.00037
0.995852
1.00009
1.00008
1.00008
1.0001
1.0001
1.00013
1.00012
0.999973
0.999658
0.999685
0.999807
0.999534
0.999472
0.999694
1.00021
1.00075
1.00102
1.00114
1.00112
1.00115
1.00139
1.00056
0.995872
1.00003
0.99999
0.999976
1
0.999947
0.999943
0.999808
0.999311
0.998745
0.998798
0.99881
0.997711
0.997172
0.997526
0.99844
0.99955
1.00042
1.00109
1.00148
1.00167
1.00191
1.00083
0.995916
0.99963
0.999505
0.999454
0.999437
0.999244
0.999083
0.998616
0.997452
0.996617
0.996664
0.996314
0.993349
0.991828
0.992057
0.99321
0.995047
0.997053
0.999046
1.00061
1.00167
1.00241
1.00117
0.996111
0.998341
0.998033
0.997909
0.997688
0.997219
0.996577
0.995472
0.993459
0.992222
0.992147
0.990895
0.984538
0.981455
0.980738
0.981336
0.983781
0.98749
0.991865
0.996262
1.00006
1.00235
1.00161
0.996894
-1.01213
-1.00614
-1.0008
-0.999024
-0.999721
-0.999984
-0.999998
-0.999963
-0.999986
-0.999999
-1
-1
-1
-1
-1
-1
-1
-1
-1
-1.02187
-1.01126
-1.00392
-0.999452
-0.999697
-1.00002
-1.00007
-0.999976
-0.99997
-0.999988
-0.999998
-1
-1
-1
-1
-1
-1
-1
-1
-1.03428
-1.01896
-1.01022
-1.00051
-0.99966
-1.00011
-1.00023
-1.00011
-0.999996
-0.999982
-0.999989
-0.999999
-1
-1
-1
-1
-1
-1
-1
-1.04264
-1.02723
-1.01717
-1.00229
-0.999652
-1.00019
-1.0003
-1.00053
-1.00018
-1.00004
-0.99999
-0.999994
-1
-1
-1
-1
-1
-1
-1
-1.04635
-1.03352
-1.01689
-1.00524
-0.999673
-1.00001
-0.999705
-1.00095
-1.00064
-1.00024
-1.00004
-0.999991
-0.999998
-1
-1
-1
-1
-1
-1
-1.03466
-1.02782
-0.991938
-1.00951
-0.999767
-0.999156
-0.997157
-1.00024
-1.00106
-1.00049
-1.00021
-1.00001
-0.999995
-0.999999
-0.999999
-0.999999
-1
-1
-1
-0.962309
-0.993448
-0.921612
-1.0147
-1.00087
-0.997815
-0.990998
-0.995442
-0.999748
-0.999914
-1.00036
-1.00008
-0.999992
-0.999994
-0.999997
-0.999998
-0.999999
-1
-1
-0.700109
-0.85707
-0.779827
-1.0167
-1.00652
-0.999363
-0.980273
-0.981969
-0.992094
-0.995645
-0.99978
-1.00017
-0.999998
-0.999989
-1
-1
-0.999998
-0.999999
-1
0.993533
0.992686
0.992388
0.991258
0.990184
0.987763
0.985364
0.98172
0.979536
0.978843
0.974688
0.960109
0.954014
0.949489
0.946068
0.948184
0.955247
0.965304
0.978089
0.991536
0.999573
1.00183
0.999659
0.971353
0.96869
0.968005
0.962269
0.960768
0.953352
0.948343
0.94072
0.935466
0.930905
0.915841
0.8804
0.869074
0.850385
0.82612
0.805112
0.819375
0.844125
0.888786
0.947881
0.980252
0.993524
0.998023
0.891671
0.885356
0.88448
0.870115
0.867657
0.851124
0.842028
0.827435
0.811661
0.785375
0.732981
0.65574
0.637628
0.576637
0.482711
0.355236
0.361421
0.418647
0.552055
0.744116
0.852504
0.905624
0.957374
0.652599
0.641228
0.641768
0.615124
0.61224
0.583758
0.575592
0.546369
0.489378
0.387669
0.236844
0.0788068
0.0522721
-0.0680896
-0.235224
-0.396734
-0.414825
-0.377511
-0.24094
0.048796
0.349068
0.480576
0.66074
0.0562381
0.0426881
0.0469825
0.0122888
0.0187543
-0.00302108
0.000504294
-0.0553566
-0.166265
-0.311922
-0.482195
-0.615393
-0.63219
-0.702831
-0.777406
-0.818553
-0.809331
-0.787472
-0.724462
-0.602764
-0.39609
-0.184474
-0.0148658
-0.604149
-0.608205
-0.604248
-0.612982
-0.599906
-0.593549
-0.585569
-0.624985
-0.688285
-0.767901
-0.857515
-0.911579
-0.9084
-0.922809
-0.93304
-0.932404
-0.92588
-0.921864
-0.901953
-0.857001
-0.726207
-0.774942
-0.760215
-0.877014
-0.877419
-0.875943
-0.875828
-0.868036
-0.859296
-0.853791
-0.870128
-0.894706
-0.927371
-0.963048
-0.981069
-0.975492
-0.975672
-0.972046
-0.967497
-0.963626
-0.969881
-0.974314
-0.975011
-0.944143
-0.970255
-0.967207
-0.962074
-0.962041
-0.962018
-0.961918
-0.959556
-0.955859
-0.952921
-0.957211
-0.966267
-0.978882
-0.991244
-0.995774
-0.992301
-0.99053
-0.986709
-0.98404
-0.983312
-0.987776
-0.994342
-1.00033
-0.99615
-1.00061
-1.00119
-0.989329
-0.989231
-0.989534
-0.989887
-0.989753
-0.989215
-0.987994
-0.988226
-0.990904
-0.995106
-0.99867
-0.999268
-0.997742
-0.996738
-0.995585
-0.99431
-0.995621
-0.997341
-0.999957
-1.0019
-1.00151
-1.00173
-1.00217
-0.997941
-0.997812
-0.998027
-0.998308
-0.998515
-0.998739
-0.998447
-0.998095
-0.998515
-0.999489
-1.0004
-1.00037
-0.999851
-0.999692
-0.999715
-0.999746
-1.00064
-1.00092
-1.00129
-1.00132
-1.00113
-1.00084
-1.00065
-1.00014
-1.0001
-1.00019
-1.0003
-1.00036
-1.00043
-1.00042
-1.00037
-1.00044
-1.00056
-1.0008
-1.00074
-1.00059
-1.00063
-1.0008
-1.00101
-1.00113
-1.00108
-1.00103
-1.00085
-1.00065
-1.00042
-1.00027
-1.00043
-1.00048
-1.0005
-1.00054
-1.00054
-1.00045
-1.00046
-1.00057
-1.00071
-1.00078
-1.00087
-1.00078
-1.00074
-1.00075
-1.00082
-1.00079
-1.00069
-1.00059
-1.00052
-1.0004
-1.00028
-1.00016
-1.00011
-1.00026
-1.00035
-1.00031
-1.00032
-1.00024
-1.00012
-1.0001
-1.00018
-1.00039
-1.00052
-1.00058
-1.00047
-1.00062
-1.00064
-1.00059
-1.00041
-1.00033
-1.00028
-1.00023
-1.00015
-1.00008
-1.00004
-1.00003
-1.00005
-1.00008
-1.00007
-1.00008
-1.00005
-1.00001
-1.00001
-1.00004
-1.00009
-1.00014
-1.00019
-1.00018
-1.00031
-1.00033
-1.0003
-1.00017
-1.00012
-1.00009
-1.00007
-1.00004
-1.00002
-1.00001
-1.00001
-1
-1.00001
-1
-1.00001
-1
-0.999996
-0.999993
-0.999995
-1
-1.00001
-1.00003
-1.00005
-1.00009
-1.0001
-1.0001
-1.00005
-1.00002
-1.00002
-1.00001
-1.00001
-1
-1
-1
-0.999997
-0.999998
-0.999997
-0.999997
-0.999996
-0.999994
-0.999993
-0.999991
-0.999992
-0.999994
-1
-1.00001
-1.00002
-1.00002
-1.00002
-1.00001
-1
-1
-1
-1
-1
-1
-1
-0.999999
-0.999999
-0.999999
-0.999998
-0.999997
-0.999997
-0.999997
-0.999996
-0.999995
-0.999995
-0.999997
-0.999999
-1
-1
-1
-1
-1
-1
-1
-1
-1
-1
-1
-1
-1
-1
-1
-1
-0.999999
-0.999999
-0.999999
-0.999999
-0.999999
-0.999999
-0.999999
-0.999999
-1
-1
-1
-1
-1
-1
-1
-1
-1
-1
-1
-1
-1
-1
-1
-1
-1
-1
-1
-1
-1
-1
-1
-1
-1
-1
-1
-1
-1
-1
-1
-1
-1
-1
-1
-1
-1
-1
-1
-1
-1
-1
-1
-1
-1
-1
-1
-1
-1
-1
-1
-1
-1
-1
-1
-1
-1
-1
-1
-1
-1
-1
-1
-1
-1
-1
-1
-1
-1
-1
-1
-1
-1
-1
-1
-1
-1
-1
-1
-1
-1
-1
-1
-1
-1
-1
-1
-1
-1
-1
-1
-1
-1
-1
-1
-1
-1
-1
-1
-1
-1
-1
-1
-1
-1
-1
-1
-1
-1
-1
-1
-1
-1
-1
-1
-1
-1
-1
-1
-1
-1
-1
-1
-1
-1
-1
-1
-1
-1
-1
-1
-1
-1
-1
-1
-1
-1
-1
-1
-1
-1
-1
-1
-1
-1
-1
-1
-1
-1
-1
-1
-1
-1
-1
-1
-1
-1
-1
-1
-1
-1
-1
-1
-1
-1
-1
-1
-1
-1
-1
-1
-1
-1
-1
-1
-1
-1
-1
-1
-1
-1
-1
-1
-1
-1
-1
-1
-1
-1
-1
-1
-1
-1
-1
-1
-1
-1
-1
-1
-1
-1
-1
-1
-1
-1
-1
-1
-1
-1
-1
-1
-1
-1
-1
-1
-1
-1
-1
-1
-1
-1
-1
-1
-1
-1
-1
-1
-1
-1
-1
-1
-1
-1
-1
-1
-1
-1
-1
-1
-1
-1
-1
-1
-1
-1
-1
-1
-1
-1
-1
-1
-1
-1
-1
-1
-1
-1
-1
-1
-1
-1
-1
-1
-1
-1
-1
-1
-1
-1
-1
-1
-1
-1
-1
-1
-1
-1
-1
-1
-1
-1
-1
-1
-1
-1
-1
-1
-1
-1
-1
-1
-1
-1
-1
-1
-1
-1
-1
-1
-1
-1
-1
-1
-1
-1
-1
-1
-1
-1
-1
-1
-1
-1
-1
-1
-1
-1
-1
-1
-1
-1
-1
-1
-1
-1
-1
-1
-1
-1
-1
-1
-1
-1
-1
-1
-1
-1
-1
-1
-1
-1
-1
-1
-1
-1
-1
-1
-1
-1
-1
-1
-1
-1
-1
-1
-1
-1
-1
-1
-1
-1
-1
-1
-1
-1
-1
-1
-1
-1
-1
-1
-1
-1
-1
-1
-1
-1
-1
-1
-1
-1
-1
-1
-1
-1
-1
-1
-1
-1
-1
-1
-1
-1
-1
-1
-1
-1
-1
-1
-1
-1
-1
-1
-1
-1
-1
-1
-1
-1
-1
-1
-1
-1
-1
-1
-1
-1
-1
-1
-1
-1
-1
-1
-1
-1
-1
-1
-1
-1
-1
-1
-1
-1
-1
-1
-1
-1
-1
-1
-1
-1
-1
-1
-1
-1
-1
-1
-1
-1
-1
-1
-1
-1
-1
-1
-1
-1
-1
-1
-1
-1
-1
-1
-1
-1
-1
-1
-1
-1
-1
-1
-1
-1
-1
-1
-1
-1
-1
-1
-1
-1
-1
-1
-1
-1
-1
-1
-1
-1
-1
-1
-1
-1
-1
-1
-1
-1
-1
-1
-1
-1
-1
-1
-1
-1
-1
-1
-1
-1
-1
-1
-1
-1
-1
-1
-1
-1
-1
-1
-1
-1
-1
-1
-1
-1
-1
-1
-1
-1
-1
-1
-1
-1
-1
-1
-1
-1
-1
-1
-1
-1
-1
-1
-1
-1
-1
-1
-1
-1
-1
-1
-1
-1
-1
-1
-1
-1
-1
-1
-1
-1
-1
1.00439
1.01737
1.01891
0.922243
1.00188
1.00824
1.01621
1.00944
0.977023
0.98353
0.989547
0.994878
0.759959
0.797933
0.835872
0.869152
0.132941
0.231475
0.33578
0.416585
-0.722135
-0.67403
-0.603565
-0.507623
-0.957392
-0.942536
-0.917244
-0.876474
-1.00029
-0.997511
-0.992061
-0.987715
-1.00267
-1.00294
-1.00308
-1.00327
-1.00069
-1.00077
-1.00096
-1.00131
-1.0002
-1.00016
-1.00014
-1.00014
-1.00007
-1.00005
-1.00003
-1.00002
-1.00002
-1.00002
-1.00001
-1.00001
-1.00001
-1
-1
-1
-1
-1
-1
-1
-1
-1
-1
-1
-1
-1
-1
-1
-1
-1
-1
-1
-1
-1
-1
-1
-1
-1
-1
-1
-1
-1
-1
-1
-1
-1
-1
-1
-1
-1
-1
-1
-1
-1
-1
-1
-1
-1
-1
-1
-1
-1
-1
-1
-1
-1
-1
-1
-1
-1
-1
-1
-1
-1
-1
-1
-1
-1
-1
-1
-1
-1
-1
-1
-1
-1
-1
-1
-1
-1
-1
-1
-1
-1
-1
-1
-1
-1
-1
-1
-1
-1
-1
-1.00001
-1
-1
-1.00001
-1.00001
-1
-1.00001
-1.00001
-1.00001
-1
-1.00001
-1.00001
-1.00002
-1
-1.00001
-1.00001
-1.00002
-1
-1.00001
-1.00002
-1.00002
-1
-1.00001
-1.00002
-1.00002
0.290404
-0.328342
-0.36988
-0.992106
-1.02806
-1.00631
-0.952629
-0.940924
-0.95723
-0.974665
-0.995246
-1.0001
-1.00003
-1.00001
-1.00004
-1.00003
-1.00001
-0.999997
-0.999999
0.964763
0.823065
0.664399
-0.647004
-0.963267
-0.933373
-0.784575
-0.765183
-0.774994
-0.871003
-0.967572
-0.996604
-1.00005
-1.00042
-1.00035
-1.00014
-1.00016
-1.00002
-0.999994
0.996455
1.00779
0.977285
0.44014
0.144089
-0.0557996
-0.0209595
-0.0750987
-0.336551
-0.67061
-0.893693
-0.97801
-0.999322
-1.00199
-0.999669
-0.998248
-1.00047
-1.00039
-1.00002
0.895622
0.941082
0.966536
0.924374
0.821063
0.759748
0.646292
0.134045
-0.468381
-0.664487
-0.968812
-1.01778
-1.01072
-0.99175
-0.972519
-0.974132
-0.989845
-0.999903
-1.00051
0.585416
0.664083
0.782484
0.838965
0.853194
0.881156
0.865334
0.639202
0.403956
-0.0365795
-0.787553
-0.967156
-0.963107
-0.82158
-0.779139
-0.786747
-0.863775
-0.964254
-1.00067
-0.0968781
-0.0834827
0.228371
0.274283
0.387808
0.581686
0.706393
0.747774
0.740069
0.633799
0.333234
-0.0677549
-0.284148
-0.109372
-0.0631443
-0.100679
-0.30324
-0.720883
-0.973448
-0.674062
-0.649256
-0.581593
-0.607046
-0.540074
-0.318109
0.0476738
0.263998
0.555711
0.647955
0.655838
0.6115
0.554388
0.5563
0.422743
0.0618665
-0.387026
-0.722621
-0.940266
-0.964985
-0.915195
-0.921786
-0.920465
-0.897792
-0.81912
-0.60339
-0.435107
-0.0355094
0.192209
0.4324
0.538623
0.506544
0.372151
-0.0558811
-0.582922
-0.785661
-0.837896
-0.946078
-1.00204
-0.99422
-0.992258
-0.992908
-0.988439
-0.972353
-0.919395
-0.835901
-0.767782
-0.708468
-0.565048
-0.0489925
0.247606
0.217319
0.0443962
-0.340304
-0.757932
-0.932134
-0.960979
-1.00194
-1.002
-1.00179
-1.00167
-1.00128
-1.00053
-0.99759
-0.98797
-0.973859
-0.958152
-0.896799
-0.643702
-0.147819
0.0804684
0.0693316
-0.0913261
-0.519507
-0.88005
-0.972866
-1.00019
-1.00032
-1.00052
-1.00052
-1.00054
-1.00076
-1.00144
-1.00219
-1.00083
-0.989299
-0.932216
-0.737709
-0.363472
-0.0267201
0.0162677
-0.0960077
-0.426458
-0.805289
-0.966407
-0.999997
-0.999997
-1.00002
-1.00002
-1.00004
-1.00006
-1.00015
-1.00023
-0.998969
-0.987856
-0.945569
-0.808414
-0.500386
-0.0924049
-0.0713877
-0.193466
-0.505829
-0.806937
-0.963504
-1
-0.999996
-0.999995
-0.999995
-1
-0.999995
-0.999894
-0.999416
-0.997968
-0.99155
-0.956945
-0.811283
-0.464286
-0.174105
-0.178993
-0.31372
-0.596454
-0.819774
-0.961304
-1
-1
-1
-1
-1.00001
-1.00001
-0.999963
-0.999284
-0.995369
-0.981524
-0.93958
-0.830761
-0.551668
-0.272022
-0.263741
-0.386686
-0.676709
-0.843544
-0.961573
-1
-1
-1
-1
-1.00001
-1.00001
-0.99991
-0.998841
-0.99324
-0.977879
-0.940263
-0.844938
-0.64417
-0.389029
-0.31015
-0.400768
-0.688115
-0.878133
-0.963821
-1
-1
-1
-1
-1
-1.00001
-0.999975
-0.999454
-0.995942
-0.978977
-0.918065
-0.758494
-0.509689
-0.328197
-0.310781
-0.393082
-0.657235
-0.880143
-0.965641
-1
-1
-1
-1
-1.00001
-1.00001
-0.999975
-0.999604
-0.997037
-0.982558
-0.931649
-0.813766
-0.592571
-0.360023
-0.339583
-0.415641
-0.650683
-0.88128
-0.968091
-1
-1
-1
-1
-1
-1.00001
-0.999993
-0.99969
-0.997224
-0.983249
-0.928789
-0.797278
-0.619463
-0.491376
-0.45055
-0.486888
-0.663092
-0.879372
-0.968003
-1
-1
-1
-0.999999
-0.999996
-1
-0.999988
-0.999676
-0.996966
-0.980915
-0.923416
-0.822077
-0.715817
-0.721801
-0.674023
-0.627984
-0.717756
-0.883596
-0.968246
-1
-1
-1
-0.999999
-0.999992
-0.999987
-0.99999
-0.999914
-0.998997
-0.991302
-0.955388
-0.878661
-0.828725
-0.831145
-0.832623
-0.777247
-0.801628
-0.897382
-0.96951
-1
-1
-1
-0.999996
-0.999985
-0.99996
-0.99996
-0.999946
-0.999666
-0.996596
-0.979986
-0.927391
-0.879098
-0.878123
-0.904031
-0.876969
-0.86829
-0.916021
-0.97163
-1
-1
-0.999999
-0.99999
-0.999961
-0.999904
-0.999807
-0.999701
-0.999116
-0.996089
-0.984022
-0.946023
-0.902113
-0.898373
-0.919928
-0.929
-0.91272
-0.930962
-0.973315
-1
-1
-0.999996
-0.99998
-0.999938
-0.999832
-0.999495
-0.998438
-0.995586
-0.988531
-0.968685
-0.930361
-0.90852
-0.909426
-0.928303
-0.95546
-0.937691
-0.945241
-0.975098
-1
-0.999999
-0.999991
-0.999955
-0.999886
-0.999783
-0.999421
-0.997792
-0.991189
-0.975508
-0.947346
-0.924156
-0.915969
-0.918912
-0.935906
-0.965259
-0.95509
-0.956347
-0.976915
-1
-0.999998
-0.999985
-0.999936
-0.999827
-0.999663
-0.999292
-0.997908
-0.991176
-0.969578
-0.939735
-0.927333
-0.928508
-0.937039
-0.951745
-0.974992
-0.968211
-0.964572
-0.978935
-1
-0.999997
-0.999982
-0.999923
-0.999763
-0.999598
-0.99924
-0.997707
-0.991574
-0.971146
-0.941956
-0.935166
-0.942762
-0.958466
-0.970739
-0.984606
-0.978416
-0.970915
-0.980691
-1
-0.999998
-0.999982
-0.999899
-0.999597
-0.999164
-0.998392
-0.996227
-0.989441
-0.968644
-0.943827
-0.941197
-0.951033
-0.972181
-0.984133
-0.990931
-0.985795
-0.976238
-0.982444
-1
-1
-0.999982
-0.999875
-0.999407
-0.998336
-0.996587
-0.993462
-0.985175
-0.963179
-0.946154
-0.950279
-0.964949
-0.982567
-0.992032
-0.994581
-0.990692
-0.980258
-0.983974
-1
-1.00001
-0.999995
-0.999906
-0.999491
-0.997963
-0.994021
-0.987527
-0.974666
-0.95038
-0.945472
-0.955353
-0.974233
-0.989819
-0.995532
-0.996764
-0.99353
-0.983745
-0.985418
-1
-1.00002
-1.00001
-0.999926
-0.999347
-0.9969
-0.989799
-0.974295
-0.957557
-0.94453
-0.946104
-0.964565
-0.983711
-0.995175
-0.998329
-0.998191
-0.994886
-0.985819
-0.986823
-1
-1.00002
-1.00003
-0.999966
-0.999326
-0.996071
-0.985184
-0.965161
-0.948303
-0.94463
-0.94862
-0.971106
-0.9902
-0.997364
-0.999083
-0.998106
-0.994811
-0.987521
-0.988262
-1
-1.00002
-1.00004
-0.999998
-0.999583
-0.997281
-0.98765
-0.9656
-0.947892
-0.946971
-0.953673
-0.973035
-0.991722
-0.998439
-0.998728
-0.997435
-0.993574
-0.98894
-0.98981
-1
-1.00003
-1.00004
-1.00001
-0.999691
-0.99765
-0.987671
-0.963706
-0.949046
-0.951941
-0.963374
-0.98131
-0.994701
-0.999116
-0.998798
-0.997086
-0.993499
-0.990352
-0.991382
-1.00001
-1.00003
-1.00004
-0.999989
-0.999495
-0.996722
-0.98718
-0.964873
-0.952949
-0.957953
-0.971883
-0.987349
-0.996575
-0.999429
-0.998973
-0.997227
-0.993987
-0.991743
-0.99273
-1.00001
-1.00003
-1.00003
-0.99998
-0.999618
-0.99657
-0.985289
-0.963314
-0.955483
-0.962034
-0.978565
-0.991349
-0.997832
-0.999614
-0.999209
-0.997572
-0.994764
-0.99325
-0.993986
-1.00002
-1.00002
-1
-0.999907
-0.999604
-0.996979
-0.985154
-0.962963
-0.956678
-0.963548
-0.981421
-0.993486
-0.99854
-0.999734
-0.999412
-0.998019
-0.995738
-0.994666
-0.995228
-1.00002
-1.00002
-0.999971
-0.999815
-0.999605
-0.997757
-0.986634
-0.963562
-0.957699
-0.966333
-0.985507
-0.995447
-0.999122
-0.999806
-0.99957
-0.99854
-0.9969
-0.996155
-0.996472
-1.00003
-1.00002
-0.999948
-0.999745
-0.999477
-0.998431
-0.990509
-0.967047
-0.959297
-0.967774
-0.987747
-0.996984
-0.999489
-0.999864
-0.99973
-0.999101
-0.998111
-0.997644
-0.997776
-1.00003
-1.00001
-0.999919
-0.999686
-0.999372
-0.99847
-0.991855
-0.969835
-0.960706
-0.968832
-0.988931
-0.997785
-0.999665
-0.999908
-0.999859
-0.999552
-0.999054
-0.998802
-0.998862
-1.00003
-1.00001
-0.999897
-0.999658
-0.999392
-0.999201
-0.996493
-0.977349
-0.963319
-0.969664
-0.989211
-0.998537
-0.999788
-0.999936
-0.999929
-0.999808
-0.999604
-0.99949
-0.999525
-1.00003
-0.999999
-0.999852
-0.99966
-0.999428
-0.999319
-0.998668
-0.988735
-0.969017
-0.970595
-0.987957
-0.998739
-0.999861
-0.999961
-0.999969
-0.99993
-0.999856
-0.999807
-0.999834
-1.00003
-0.999996
-0.999832
-0.999636
-0.999403
-0.999254
-0.999298
-0.997998
-0.986171
-0.976029
-0.991257
-0.99926
-0.999952
-0.999982
-0.999986
-0.99998
-0.999961
-0.999947
-0.999958
)
;

boundaryField
{
    leftWall
    {
        type            zeroGradient;
    }
    rightWall
    {
        type            zeroGradient;
    }
    lowerWall
    {
        type            zeroGradient;
    }
    atmosphere
    {
        type            zeroGradient;
    }
    defaultFaces
    {
        type            empty;
    }
}


// ************************************************************************* //
