/*--------------------------------*- C++ -*----------------------------------*\
| =========                 |                                                 |
| \\      /  F ield         | foam-extend: Open Source CFD                    |
|  \\    /   O peration     | Version:     4.1                                |
|   \\  /    A nd           | Web:         http://www.foam-extend.org         |
|    \\/     M anipulation  |                                                 |
\*---------------------------------------------------------------------------*/
FoamFile
{
    version     2.0;
    format      ascii;
    class       volScalarField;
    location    "0.3";
    object      p;
}
// * * * * * * * * * * * * * * * * * * * * * * * * * * * * * * * * * * * * * //

dimensions      [1 -1 -2 0 0 0 0];

internalField   nonuniform List<scalar> 
2268
(
1086.44
1086.28
1088.02
1074.81
1081.32
1059.02
1067.15
1041.52
1043.99
1028.6
1065.25
1099.1
1056.49
1059.45
1064.81
1053.56
1125.23
1045.62
1144.69
1163.86
1253.97
1276.05
1292.84
1027.21
1027
1028.55
1015.75
1021.78
999.896
1006.73
981.969
984.994
959.113
1043.71
1015.87
990.25
991.792
1003.23
994.681
1088.31
961.617
1083.79
1068.38
1201.82
1220.79
1228.56
967.505
967.29
968.793
956.502
962.817
939.027
949.094
921.741
924.139
893.979
974.845
944.723
933.008
931.126
938.595
922.392
1001.75
918.785
1023.75
1054.1
1111.86
1119.68
1181.54
907.535
907.165
907.947
897.22
901.725
880.133
886.448
857.549
864.393
883.648
885.185
875.241
864.482
865.731
876.394
862.497
914.013
882.642
955.589
967.55
1030.27
1099.95
1103.06
846.977
846.647
847.341
837.315
842.387
816.643
830.272
808.859
784.721
830.166
816.425
811.324
801.716
804.508
804.887
802.989
839.57
832.442
903.747
929.665
949.041
986.707
1013.82
786.298
785.671
785.318
776.315
779.451
760.433
756.693
733.601
760.684
752.908
751.16
744.91
735.581
735.712
738.76
739.635
762.894
770.209
799.314
842.671
857.365
906.922
945.038
724.901
724.434
723.997
717.292
719.781
689.669
720.94
660.412
704.07
687.409
685.271
679.06
668.485
672.575
667.133
673.3
670.363
723.979
716.525
823.403
795.682
763.529
849.563
663.597
662.66
660.768
650.523
652.867
645.392
629.157
624.058
634.731
618.97
621.153
612.087
601.388
601.797
592.307
605.855
615.796
640.021
648.577
685.736
734.731
722.561
788.432
838.026
837.796
838.72
838.31
838.619
838.699
838.825
839.014
839.708
840.25
840.764
841.281
841.697
842.012
842.555
842.839
843.03
843.182
843.289
837.898
837.588
838.6
838.211
838.54
838.599
838.722
838.88
839.636
840.204
840.691
841.242
841.637
842
842.455
842.814
842.991
843.137
843.246
837.941
837.394
838.661
838.164
838.399
838.534
838.566
838.64
839.511
840.119
840.583
841.199
841.566
841.972
842.397
842.705
842.984
843.107
843.22
837.8
837.333
838.36
838.108
838.388
838.261
838.29
838.285
839.479
840.127
840.597
841.205
841.534
841.924
842.371
842.621
842.937
843.097
843.208
837.665
837.34
838.568
838.107
838.167
837.958
838.031
838.213
839.346
840.019
840.536
841.186
841.475
841.997
842.288
842.59
842.89
843.071
843.214
837.649
837.034
837.978
838.079
838.096
837.286
837.313
837.799
839.064
840.045
840.545
841.187
841.497
841.999
842.225
842.561
842.856
843.075
843.236
836.649
836.203
836.766
838.208
837.866
837.428
835.962
837.197
839.149
840.057
840.577
841.179
841.514
841.971
842.14
842.484
842.9
843.095
843.277
827.632
831.139
833.452
837.719
837.665
837.315
833.92
835.845
839.046
839.892
840.641
841.176
841.545
841.918
842.054
842.515
842.849
843.132
843.339
566.201
566.052
559.816
571.698
563.206
506.064
569.32
512.865
540.356
519.767
518.475
502.608
492.996
501.495
478.076
496.861
498.02
559.069
569.7
595.014
649.698
385.104
425.454
435.325
433.573
431.078
407.708
433.66
408.557
416.271
400.983
401.522
382.619
377.032
363.13
340.798
341.737
317.975
323.329
318.324
336.669
281.707
464.215
361.898
358.094
292.349
302.855
299.549
298.55
288.234
294.976
278.455
285.229
269.599
266.171
259.608
233.151
218.393
203.675
199.972
179.339
175.536
170.183
162.977
236.85
217.144
335.722
108.166
409.794
181.303
179.336
180.133
173.52
178.982
168.65
172.092
160.049
150.922
118.044
104.432
82.7764
75.4089
81.0264
61.1774
64.6632
68.8802
75.2731
81.2214
94.0456
146.238
37.3384
189.736
78.0414
77.0639
78.2532
74.4554
77.4632
73.9329
76.8671
65.8383
54.407
35.5436
26.047
15.0775
19.445
22.9247
20.6991
21.8444
30.163
33.6591
30.6038
38.4528
41.9334
46.0491
24.5781
23.1496
23.3916
23.9238
23.6901
24.6014
25.1887
25.0235
22.5459
17.5583
11.7729
7.1218
5.68733
7.51969
9.54101
9.25489
11.4291
10.5225
13.4104
12.9563
13.008
17.6132
-6.53953
26.728
9.40379
9.4231
9.29619
9.71496
9.87416
9.58108
9.5537
7.91294
6.44282
6.17668
5.58173
4.97862
5.85584
6.20901
5.9567
7.46011
8.96984
10.3732
7.44297
6.52372
8.69636
7.36108
6.58292
5.06502
5.14108
5.1302
5.19811
5.0658
4.99313
4.84104
4.85856
4.50693
4.38044
4.40894
4.37478
4.50314
4.55071
5.09395
5.21473
5.25799
5.9778
5.6225
5.71559
6.14746
6.20143
6.47003
3.77495
3.82712
3.83068
3.81524
3.82109
3.76517
3.78803
3.86173
3.89217
4.0346
3.99384
4.16351
4.23919
4.32182
4.38478
4.46745
4.82343
5.17866
5.33234
5.46121
5.72506
5.59977
6.19297
3.37284
3.3913
3.41968
3.44884
3.50538
3.56926
3.61337
3.65254
3.76464
3.88141
4.05916
4.07877
4.07848
4.03014
4.33777
4.4385
4.61584
5.01602
5.13231
5.33112
5.4234
6.04819
5.92931
3.32956
3.3384
3.36688
3.39175
3.44127
3.475
3.53322
3.54941
3.65791
3.59832
3.7002
3.80781
4.0323
4.02901
4.23385
4.32252
4.53371
4.73466
4.92816
5.0885
5.50797
5.16631
5.85592
3.12181
3.08909
3.11129
3.13168
3.19694
3.2752
3.27996
3.44219
3.35013
3.51746
3.53772
3.67675
3.70833
3.90396
3.9927
4.11121
4.1952
4.546
4.6577
4.96105
4.821
5.42992
5.66031
3.01766
3.09903
3.15688
3.17672
3.19004
3.10919
3.30141
3.1642
3.20192
3.24653
3.34839
3.55131
3.59355
3.68677
3.79252
3.95493
4.04486
4.29249
4.50092
4.63794
4.86508
5.03734
5.18108
2.78815
2.65277
2.64024
2.76614
2.63072
3.06929
2.71865
2.90596
2.97435
3.00865
3.14783
3.12767
3.30631
3.36955
3.57322
3.72229
3.77145
3.91274
4.1509
4.50843
4.47309
4.78948
5.03591
2.43245
2.47118
2.47258
2.50286
2.54958
2.44923
2.63367
2.64132
2.81504
2.78244
2.92144
2.94368
3.11536
3.10769
3.37185
3.22635
3.72937
3.63329
3.72504
3.89215
4.18195
4.52286
4.57224
2.04601
2.15795
2.23024
2.25522
2.27361
2.33318
2.36191
2.41785
2.49239
2.52794
2.65197
2.66907
2.81615
2.82888
2.9562
3.12925
3.36534
3.65793
3.80227
3.91407
3.83878
4.04315
4.62234
2.04104
1.80199
1.8576
1.95002
2.00456
2.05377
2.16568
2.17064
2.26425
2.28528
2.38293
2.40435
2.53165
2.52581
2.86858
2.69912
2.84613
2.88253
3.21759
3.30731
3.58393
3.71456
4.24306
1.86552
1.94911
1.90755
1.81579
1.76549
1.82589
1.87546
1.80658
1.98223
2.02078
2.09364
2.12857
2.27512
2.30489
2.38814
2.48782
2.64843
2.84226
3.22125
3.0095
3.26091
3.12421
3.56258
1.57498
1.57252
1.57155
1.47545
1.66336
1.50549
1.67721
1.71322
1.63501
1.7713
1.82846
1.75826
1.94643
1.91914
2.10232
2.3025
2.48905
2.35358
2.67365
2.75904
2.94121
3.38949
3.29925
1.41138
1.4154
1.41421
1.40498
1.42726
1.39807
1.34377
1.4499
1.53166
1.38199
1.46277
1.62829
1.59206
1.80468
1.89152
1.96724
2.15686
2.22095
2.43127
2.5086
2.53613
2.70777
2.73353
1.13616
1.12117
1.14195
1.27361
1.17113
1.30974
1.22889
1.31156
1.25628
1.40554
1.39731
1.47015
1.51722
1.58434
1.61088
1.73366
1.8697
1.87639
1.98354
1.97275
2.14023
2.62875
2.54993
0.989156
1.07236
1.19446
0.878614
1.24583
0.866704
1.21984
0.950175
1.17409
1.02065
1.19511
1.14112
1.16252
1.14928
1.21425
1.27752
1.40909
1.61085
1.85665
2.11051
1.59283
1.94099
2.40993
0.414679
0.324439
0.363045
0.498056
0.398226
0.583165
0.523753
0.72584
0.718896
0.984437
0.846445
0.960816
1.08445
1.17496
1.09519
1.32368
1.3148
1.32667
1.10565
1.54899
1.8317
1.39475
1.95595
0.253038
0.247499
0.266764
0.24604
0.271358
0.270856
0.290105
0.324764
0.264113
0.18988
0.414976
0.400035
0.29457
0.547199
0.524909
0.253272
0.514029
0.915927
0.687441
0.553422
0.385737
0.980282
1.25266
-0.165663
-0.16638
-0.157921
-0.121993
-0.115572
-0.058077
-0.0622224
-0.0020218
0.00383762
0.106415
0.0731155
0.166869
0.259887
0.138875
0.2559
0.257837
0.155468
0.246209
0.415028
0.701569
0.361095
0.577695
0.696502
-0.444546
-0.442837
-0.438721
-0.428857
-0.425904
-0.405547
-0.393882
-0.374067
-0.35678
-0.344722
-0.301182
-0.284898
-0.249243
-0.173874
-0.26119
-0.0417665
-0.198733
0.113066
-0.0431275
-0.241133
-0.122888
0.0333258
0.16651
-0.811572
-0.815076
-0.801648
-0.79011
-0.748338
-0.748752
-0.734849
-0.714179
-0.707732
-0.67905
-0.66026
-0.6312
-0.588353
-0.571656
-0.516632
-0.743458
-0.344244
-0.493525
-0.25591
-0.195927
-0.664511
-0.454304
-0.371136
-1.13419
-1.12835
-1.13148
-1.11383
-1.13032
-1.09303
-1.10034
-1.07394
-1.0681
-1.04142
-1.03488
-1.01048
-1.00031
-0.972878
-0.876746
-0.760783
-1.51158
-0.897963
-0.363586
-1.18977
-0.942301
-1.13116
-0.828149
-1.48743
-1.48031
-1.48168
-1.47083
-1.48086
-1.45624
-1.45525
-1.43736
-1.43288
-1.41757
-1.41135
-1.39894
-1.39393
-1.40707
-1.36068
-1.47234
-1.3856
-1.3583
-1.5474
-0.811031
-1.41548
-1.82292
-1.4628
-1.83988
-1.83763
-1.83743
-1.82898
-1.8283
-1.81549
-1.81542
-1.79964
-1.79909
-1.78225
-1.78661
-1.77109
-1.78403
-1.80439
-1.72111
-1.56535
-1.47352
-2.128
-2.05718
-1.60999
-1.42312
-1.57061
-2.14761
-2.19601
-2.19295
-2.19461
-2.18871
-2.19027
-2.18003
-2.17862
-2.16671
-2.16709
-2.14938
-2.16073
-2.12252
-2.17391
-2.07465
-2.16328
-1.94175
-2.28278
-2.40931
-2.07755
-1.92702
-2.04468
-2.43466
-2.49759
-2.55923
-2.55837
-2.55643
-2.55325
-2.54975
-2.54408
-2.54064
-2.53134
-2.52963
-2.51229
-2.51797
-2.46785
-2.5136
-2.35965
-2.55735
-2.62269
-2.6676
-2.75173
-2.73033
-2.45193
-2.3326
-2.49968
-3.28944
-2.92248
-2.92129
-2.92163
-2.91868
-2.91778
-2.91445
-2.91087
-2.90808
-2.90506
-2.89778
-2.90642
-2.88467
-2.95296
-2.83857
-2.871
-2.85802
-2.7455
-2.57483
-3.23573
-3.52984
-2.97752
-2.66813
-3.01282
-3.2901
-3.28974
-3.2882
-3.28686
-3.28345
-3.28136
-3.27495
-3.27411
-3.26115
-3.26459
-3.23968
-3.25305
-3.20523
-3.21136
-3.12976
-3.25559
-3.49008
-3.48862
-4.01346
-3.54292
-3.81096
-3.4712
-3.53749
-3.65914
-3.65809
-3.65927
-3.65651
-3.65693
-3.65449
-3.65112
-3.65051
-3.63962
-3.6443
-3.60983
-3.66059
-3.49405
-3.52863
-3.6602
-3.62886
-3.70429
-3.51895
-3.30658
-3.23112
-3.73119
-4.06298
-3.90635
-4.0292
-4.02871
-4.0298
-4.02757
-4.03005
-4.02613
-4.02845
-4.01986
-4.02126
-4.00335
-4.00952
-3.97543
-4.02295
-3.97715
-3.98331
-4.04059
-3.97094
-4.03058
-4.13363
-4.65164
-5.12542
-3.57906
-5.58975
-4.40375
-4.40291
-4.40537
-4.40231
-4.40603
-4.40167
-4.40308
-4.39766
-4.39557
-4.40375
-4.3495
-4.20329
-4.14384
-3.91897
-4.20136
-4.21178
-4.31685
-4.31744
-4.55805
-4.67395
-4.50282
-4.64399
-4.85986
-4.76052
-4.76037
-4.76391
-4.76232
-4.77146
-4.76911
-4.78736
-4.79509
-4.80508
-4.73654
-4.83133
-4.84688
-4.97282
-5.30049
-4.68226
-4.7435
-4.74471
-4.7941
-4.98822
-5.0337
-5.2003
-5.07258
-5.13775
-5.14333
-5.14261
-5.14622
-5.14404
-5.15092
-5.14089
-5.15586
-5.11605
-5.17081
-5.13455
-5.19109
-5.14305
-5.26718
-5.15638
-5.17956
-4.98977
-5.15509
-5.1906
-5.26301
-5.37329
-5.55374
-5.70631
-5.82114
-5.42589
-5.4269
-5.43215
-5.43389
-5.44465
-5.44627
-5.46583
-5.4634
-5.49394
-5.48199
-5.54488
-5.5404
-5.58913
-5.59201
-5.54299
-5.40021
-5.43514
-5.46823
-5.59708
-5.8672
-5.82742
-5.95274
-6.14107
-6.05647
-6.05876
-6.06522
-6.06844
-6.07887
-6.08628
-6.1095
-6.12249
-6.15835
-6.17582
-6.22058
-6.20872
-6.21974
-5.91148
-5.78944
-5.58297
-5.51792
-5.59981
-5.8159
-6.45602
-6.46739
-6.25883
-6.63765
-5.58306
-5.58381
-5.58442
-5.58623
-5.59217
-5.59148
-5.59998
-5.59829
-5.62019
-5.64147
-5.68679
-5.78172
-5.91892
-6.4048
-6.8643
-7.31362
-7.43445
-7.45988
-7.46529
-6.85399
-6.57735
-7.72099
-6.57751
446.92
150.79
548.823
676.16
433.183
469.78
750.081
646.63
363.923
86.9147
577.984
499.68
230.125
229.229
298.78
398.188
164.125
110.129
136.79
122.838
29.6258
27.7744
43.5881
30.308
6.23246
7.42591
10.0153
10.4286
6.69739
6.43728
7.04266
8.21067
6.21406
6.47084
6.62722
6.7495
6.14657
6.3162
6.45626
6.63497
5.86514
6.0134
6.14628
6.2726
5.54473
5.7032
5.74409
5.86487
5.51188
5.66417
5.39839
5.68909
5.22688
5.25709
5.20631
5.33607
4.81422
4.8293
4.88804
5.05147
4.58046
4.80809
4.42595
4.49009
4.29381
4.41529
4.48048
4.69895
3.77379
3.8165
3.9866
4.04726
3.56005
3.64738
3.52552
3.70851
3.18417
3.46637
3.13442
3.25431
2.62985
2.67226
2.68443
2.70196
2.41272
2.50169
2.74607
2.38488
1.72077
1.694
1.73023
1.6899
1.29347
1.38025
1.49056
1.54507
0.68035
0.702793
0.69048
0.69793
0.21278
0.281311
0.323788
0.381771
-0.299619
-0.219861
-0.150477
-0.0592205
-0.860787
-0.841138
-0.814647
-0.7363
-1.30795
-1.20642
-1.04394
-0.851818
-2.10871
-2.30452
-2.49994
-2.94878
-2.42116
-2.48906
-2.49167
-2.5044
-3.1221
-3.12192
-3.2118
-3.13322
-3.37466
-3.39707
-3.32366
-3.2081
-3.51241
-3.31539
-3.71338
-3.44858
-4.41075
-4.78877
-5.0663
-5.72331
-4.52047
-5.12122
-5.11338
-5.0046
-4.90175
-4.89781
-5.20143
-5.64669
-5.15276
-5.11419
-5.01479
-5.53896
-6.00673
-6.45495
-5.88944
-5.89126
-6.09576
-6.06495
-6.66106
-6.53927
-6.44784
-6.60246
-6.98706
-7.16181
-7.36159
-7.29049
-7.10476
-6.99619
757.186
787.065
794.343
835.21
837.477
835.122
828.532
832.551
836.635
839.118
840.857
841.373
841.539
841.729
842.065
842.413
842.823
843.223
843.488
579.238
641.092
743.882
795.454
832.406
823.274
792.456
821.547
822.756
823.945
840.876
841.792
841.641
841.573
841.374
841.948
842.955
843.287
843.908
394.184
563.316
565.622
495.471
760.939
778.664
736.512
777.554
874.712
860.454
828.223
837.252
840.666
840.911
840.456
841.678
842.93
843.855
844.87
304.254
351.193
685.499
154.819
676.725
703.694
500.894
642.746
803.206
837.142
829.471
833.588
835.206
837.626
836.517
839.221
842.143
844.214
846.429
325.126
-233.28
395.752
108.564
606.942
629.277
75.0225
-119.907
886.165
904.867
786.714
828.191
826.867
820.564
835.974
829.904
842.369
843.646
848.143
94.0907
-32.4984
161.849
-129.209
299.519
192.95
191.745
433.921
652.749
603.078
745.748
767.616
783.684
724.379
737.087
753.755
845.446
891.845
850.499
14.158
51.6848
-45.9571
72.295
66.4788
66.4605
233.951
-188.272
38.3189
-104.822
685.824
901.437
794.519
1254.25
139.048
680.899
700.391
775.185
847.911
7.49555
5.40474
14.8286
10.5462
11.7407
19.2086
39.4167
98.4787
-9.39189
70.5345
-73.4089
677.687
667.745
725.36
847.103
580.13
668.448
723.23
790.482
6.67972
7.33038
7.30257
8.23035
9.08789
9.61922
9.14839
14.3901
24.7938
37.2212
47.1317
208.556
288.785
580.804
284.647
565.957
688.064
708.562
748.568
6.76741
7.15811
8.14409
7.6967
8.54457
8.81862
9.33933
9.9028
11.4287
16.5217
21.035
9.98709
133.807
337.284
228.179
631.585
681.323
710.034
743.833
6.48073
6.8573
7.05081
7.70659
8.18014
8.8337
9.1897
10.0816
10.2188
11.8965
15.1498
45.9861
157.761
268.477
128.909
567.51
620.349
668.325
709.309
6.07414
6.6289
6.80491
7.97687
7.97417
8.35763
8.8117
9.38375
9.39015
10.1313
13.6623
25.8828
76.7544
61.375
210.535
511.61
543.275
616.04
643.292
5.76874
6.15591
6.32718
7.44564
7.61246
8.17445
8.42325
8.94471
8.79309
10.6662
8.83258
16.1688
-9.97357
142.152
208.378
475.829
493.914
557.921
579.564
5.77697
5.37795
6.19717
6.86352
6.92095
7.92965
7.86041
8.2901
8.25604
9.32321
12.8876
20.5165
92.8371
142.004
146.216
432.753
445.068
493.923
521.689
5.48412
5.03953
5.97613
6.0224
7.03472
7.45416
7.46728
7.92265
5.71239
4.7914
16.9111
16.6457
22.7895
111.655
104.754
396.817
410.235
444.677
469.508
4.51817
4.5178
5.80872
5.81823
6.30464
6.9752
6.81456
7.10877
6.45679
5.42381
3.81773
21.2239
-38.3654
28.4276
134.948
364.036
373.159
402.027
425.806
4.31376
4.48082
5.29005
5.32574
5.4888
6.73696
6.47987
6.8115
5.56928
6.47492
-9.58753
26.9841
61.1933
20.6867
164.113
322.389
300.675
349.276
385.419
4.26425
3.83201
4.86055
4.94267
4.87616
6.27081
6.09388
6.51312
5.76386
4.11917
-0.535395
-13.3378
-11.1242
16.2708
184.249
352.983
219.28
278.081
333.203
3.92339
4.04092
4.61041
4.5001
4.67508
4.80908
5.64531
5.8768
4.81842
4.19967
-12.6781
4.27905
10.7148
119.373
102.49
151.112
159.239
216.447
243.425
3.44631
3.5069
4.39321
4.13381
4.24927
4.49355
5.09204
4.85306
4.41347
2.32752
-2.80079
7.16448
41.5468
57.4648
67.6547
67.3763
159.725
155.506
167.277
2.97966
2.81791
3.79698
3.53496
3.57046
3.04301
3.21378
4.30126
4.51073
3.85078
-0.707509
-0.564483
26.8902
45.6884
56.8955
64.3777
90.2005
105.531
131.738
2.55506
2.97483
3.18008
3.2498
3.63782
2.44002
3.67981
3.51948
3.67344
2.51134
-2.82016
3.33298
21.9022
35.8766
48.761
47.0011
55.0466
90.7542
102.675
1.8669
2.74957
2.98603
2.80124
2.86547
2.46361
1.96462
3.11695
2.2202
6.009
-8.14925
-0.612075
29.7362
24.0791
37.0633
35.6482
48.7143
62.0069
66.3559
1.84203
1.81434
1.91509
2.06517
2.26072
1.48147
2.79915
2.04024
3.58839
-6.18969
-9.17264
23.4649
8.20542
18.0314
29.3918
26.3498
34.1589
43.5941
44.3257
0.483359
0.898352
1.69144
1.98348
1.64956
1.08036
0.992562
2.30468
1.94323
-10.2304
8.72312
20.6498
-4.03784
0.963597
21.7736
17.1693
23.1262
32.9286
27.3031
0.470258
0.435586
0.859125
0.645163
1.0612
0.998903
1.41288
1.21632
0.114494
-3.02775
9.57498
7.7403
-15.291
7.99226
9.02017
9.81986
14.4341
23.1169
18.0385
0.0393834
0.321217
-0.0203281
-0.233519
-0.393346
0.492109
0.422953
-0.00839216
-1.27276
-5.49287
4.04591
4.01073
4.85997
-6.04222
-3.50724
4.27141
5.59576
14.5268
10.9916
-0.941082
-0.066211
-0.266819
-0.131763
-1.25949
-0.942492
0.235913
-0.282673
-2.8949
-8.84218
1.07013
-22.2721
-2.12973
-2.07557
-5.08746
-0.0141981
0.175109
7.98427
7.68606
-0.698691
-1.12747
-0.770671
-1.12828
-1.11033
-2.46421
-1.03034
-4.80978
-2.24796
-15.6651
0.285364
-18.0684
-4.03872
-7.62926
-6.66373
-5.44514
-3.83233
1.04455
6.23332
-2.09004
-1.7929
-1.3114
-1.44431
-1.84255
-2.05794
-2.81752
-7.73037
-11.9752
-1.53748
-19.9546
-8.98948
-11.337
-9.09142
-9.35455
-9.13323
-8.57346
-8.10928
-2.24266
-2.388
-2.40879
-2.66337
-2.00153
-3.00537
-2.47694
-7.19321
-10.0296
-0.591454
-7.30591
-24.7246
-10.6483
-10.804
-12.7431
-14.2389
-13.4431
-8.6384
-10.3948
-12.9989
-3.24005
-2.99621
-3.09761
-3.09137
-3.08697
-3.54285
-5.27722
-2.3688
-5.39929
-6.26805
-11.4312
-13.3997
-15.5948
-15.5584
-16.7456
-13.7237
-29.7307
-8.80384
-4.26711
-2.64394
-2.80026
-3.18525
-3.93546
-4.70254
-5.45169
-5.31367
-3.36191
-12.7666
-24.3874
-16.5916
-17.9342
-16.9585
-18.3785
-20.0074
-21.2832
-29.7004
-18.7519
-2.91108
-3.58489
-4.2119
-3.66701
-3.23498
-4.51089
-6.10936
-10.5076
-3.34056
-8.34907
-6.78577
-12.583
-13.8472
-17.4671
-17.4686
-19.6505
-17.9653
-30.9573
-41.3844
-14.5739
-5.59244
-5.49202
-5.98331
-4.93755
-5.21803
-7.93242
-10.7095
-1.86136
-12.1808
-12.6555
-16.048
-17.4388
-17.1576
-18.1406
-19.1471
-17.6828
-23.921
-33.663
-7.86608
-4.71492
-4.55227
-6.13051
-7.31851
-5.65364
-7.63102
-11.4948
-3.89726
-11.2452
-12.8955
-16.6582
-17.3305
-17.2963
-18.0216
-20.2765
-19.3383
-25.0656
-38.2761
-35.6392
-5.42094
-5.95392
-6.25588
-6.1168
-6.88131
-7.40667
-9.47213
-7.35819
-3.02433
-15.5093
-18.4469
-16.7039
-16.8884
-17.2195
-19.7307
-18.9709
-23.7013
-28.8389
-37.1175
-5.62459
-5.51911
-5.18193
-6.43043
-6.82246
-7.25749
-8.14761
-10.5644
-10.299
-18.8402
-16.1698
-16.1313
-15.7101
-15.9428
-17.3136
-16.9473
-20.2128
-18.9628
-21.6401
-5.96633
-5.94394
-5.67843
-5.43417
-6.61565
-7.48821
-8.46105
-8.84247
-18.6184
-17.3992
-14.8556
-14.7053
-14.2517
-14.3971
-14.997
-14.7321
-17.1701
-15.183
-16.8419
-6.5624
-6.94491
-8.12999
-8.50825
-8.35514
-7.48567
-8.68407
-8.57668
-6.74176
-17.9011
-14.1855
-13.2483
-13.1314
-13.0809
-13.3837
-12.9974
-14.089
-12.8998
-15.195
-7.18865
-7.09234
-8.23425
-8.73204
-8.5957
-9.03671
-7.54384
-6.53518
-13.6151
-32.0133
-14.3681
-10.9928
-11.369
-11.1469
-11.157
-10.6998
-11.1472
-10.893
-11.3442
-7.05711
-8.75392
-7.28539
-7.85229
-7.93028
-8.83528
-9.37746
-16.9117
-31.8042
-29.1249
-19.1645
-12.7369
-11.2365
-10.5932
-10.1488
-10.025
-10.8162
-11.499
-11.4177
)
;

boundaryField
{
    leftWall
    {
        type            calculated;
        value           nonuniform List<scalar> 
50
(
1086.44
1027.21
967.505
907.535
846.977
786.298
724.901
663.597
566.201
435.325
302.855
181.303
78.0414
23.1496
9.40379
5.06502
3.77495
3.37284
3.32956
3.12181
3.01766
2.78815
2.43245
2.04601
2.04104
1.86552
1.57498
1.41138
1.13616
0.989156
0.414679
0.253038
-0.165663
-0.444546
-0.811572
-1.13419
-1.48743
-1.83988
-2.19601
-2.55923
-2.92248
-3.2901
-3.65914
-4.0292
-4.40375
-4.76052
-5.14333
-5.42589
-6.05647
-5.58306
)
;
    }
    rightWall
    {
        type            calculated;
        value           nonuniform List<scalar> 
50
(
843.289
843.246
843.22
843.208
843.214
843.236
843.277
843.339
843.488
843.908
844.87
846.429
848.143
850.499
847.911
790.482
748.568
743.833
709.309
643.292
579.564
521.689
469.508
425.806
385.419
333.203
243.425
167.277
131.738
102.675
66.3559
44.3257
27.3031
18.0385
10.9916
7.68606
6.23332
-2.24266
-12.9989
-4.26711
-2.91108
-14.5739
-7.86608
-35.6392
-37.1175
-21.6401
-16.8419
-15.195
-11.3442
-11.4177
)
;
    }
    lowerWall
    {
        type            calculated;
        value           nonuniform List<scalar> 
62
(
1115.87
1115.71
1117.45
1104.24
1110.74
1088.45
1096.58
1070.95
1073.42
1058.03
1094.68
1128.53
1085.92
1088.88
1094.24
1082.99
1154.66
1075.05
1174.12
1193.29
1283.4
1305.48
1322.21
1292.84
1228.56
1181.54
1103.06
1013.82
945.038
849.563
788.432
509.517
213.388
611.42
736.296
838.026
837.898
837.941
837.8
837.665
837.649
836.649
827.632
838.056
837.826
838.749
838.353
838.653
838.729
838.855
839.044
839.737
840.279
840.793
841.311
841.726
842.042
842.585
842.869
843.06
843.212
843.318
)
;
    }
    atmosphere
    {
        type            calculated;
        value           nonuniform List<scalar> 
46
(
-6.12875
-6.13257
-6.13623
-6.13954
-6.14834
-6.15296
-6.16954
-6.17573
-6.20382
-6.22311
-6.26754
-6.30785
-6.40289
-6.48713
-6.65128
-6.83738
-6.89107
-6.94104
-7.04438
-7.02431
-6.89173
-7.30478
-6.9642
-7.19692
-7.32138
-7.39769
-7.42222
-7.45682
-8.17368
-8.1394
-8.54569
-8.6144
-9.18
-8.47248
-11.72
-44.9882
-74.4394
-31.0548
-7.8923
-5.88184
-5.78517
-5.77325
-5.80291
-5.87256
-5.92471
-5.88205
)
;
    }
    defaultFaces
    {
        type            empty;
    }
}


// ************************************************************************* //
