/*--------------------------------*- C++ -*----------------------------------*\
| =========                 |                                                 |
| \\      /  F ield         | foam-extend: Open Source CFD                    |
|  \\    /   O peration     | Version:     4.1                                |
|   \\  /    A nd           | Web:         http://www.foam-extend.org         |
|    \\/     M anipulation  |                                                 |
\*---------------------------------------------------------------------------*/
FoamFile
{
    version     2.0;
    format      ascii;
    class       volScalarField;
    location    "0.3";
    object      pd;
}
// * * * * * * * * * * * * * * * * * * * * * * * * * * * * * * * * * * * * * //

dimensions      [1 -1 -2 0 0 0 0];

internalField   nonuniform List<scalar> 
2268
(
1115.87
1115.71
1117.45
1104.24
1110.74
1088.45
1096.58
1070.95
1073.42
1058.03
1094.68
1128.53
1085.92
1088.88
1094.24
1082.99
1154.66
1075.05
1174.12
1193.29
1283.4
1305.48
1322.21
1115.5
1115.29
1116.84
1104.04
1110.07
1088.18
1095.01
1070.26
1073.28
1047.4
1132
1104.16
1078.54
1080.08
1091.52
1082.97
1176.6
1049.9
1172.08
1156.67
1290.11
1309.08
1316.66
1114.65
1114.44
1115.94
1103.65
1109.96
1086.17
1096.24
1068.89
1071.29
1041.13
1121.99
1091.87
1080.16
1078.27
1085.74
1069.54
1148.9
1065.93
1170.9
1201.25
1259
1266.83
1328.38
1113.54
1113.17
1113.95
1103.23
1107.73
1086.14
1092.45
1063.55
1070.4
1089.65
1091.19
1081.25
1070.49
1071.74
1082.4
1068.5
1120.02
1088.65
1161.6
1173.56
1236.28
1305.96
1308.64
1111.84
1111.51
1112.2
1102.18
1107.25
1081.51
1095.14
1073.72
1049.54
1094.99
1081.26
1076.13
1066.51
1069.33
1069.75
1067.85
1104.43
1097.31
1168.61
1194.53
1213.91
1251.57
1278.14
1110.02
1109.39
1109.04
1100.04
1103.16
1084.15
1080.38
1057.21
1084.2
1076.43
1074.69
1068.26
1058.84
1059.03
1062.22
1063.28
1086.62
1093.93
1123.04
1166.39
1181.09
1230.65
1268.11
1107.41
1106.92
1106.47
1099.76
1102.21
1072.07
1103.25
1042.5
1085.99
1069.34
1067.14
1060.37
1049.5
1053.63
1048.4
1054.92
1052.37
1106.37
1099.11
1205.98
1178.26
1146.11
1231.41
1104.66
1103.66
1101.74
1091.44
1093.68
1086.06
1069.58
1064.03
1074.43
1058.65
1060.56
1050.11
1038.73
1038.97
1029.61
1043.7
1054.46
1079.65
1089.18
1127.18
1176.17
1164
1229.2
838.056
837.826
838.749
838.353
838.653
838.729
838.855
839.044
839.737
840.279
840.793
841.311
841.726
842.042
842.585
842.869
843.06
843.212
843.318
837.987
837.676
838.688
838.323
838.642
838.687
838.81
838.969
839.725
840.293
840.779
841.33
841.725
842.088
842.543
842.902
843.08
843.226
843.335
838.088
837.541
838.809
838.311
838.571
838.681
838.713
838.787
839.658
840.268
840.731
841.346
841.713
842.119
842.544
842.853
843.132
843.254
843.368
838.006
837.539
838.566
838.314
838.63
838.467
838.496
838.491
839.685
840.333
840.804
841.411
841.74
842.13
842.577
842.827
843.143
843.303
843.414
837.93
837.605
838.833
838.372
838.474
838.222
838.332
838.478
839.611
840.284
840.8
841.452
841.74
842.262
842.553
842.855
843.155
843.336
843.479
837.973
837.358
839.851
838.403
838.456
837.748
838.087
838.123
839.388
840.369
840.868
841.511
841.821
842.323
842.549
842.884
843.179
843.399
843.559
844.021
837.715
852.595
838.59
838.248
838.226
838.025
838.497
839.6
840.472
840.959
841.562
841.898
842.355
842.523
842.867
843.282
843.477
843.66
893.585
862.646
883.025
838.16
838.107
837.885
838.576
840.373
841.337
841.388
841.153
841.618
841.986
842.361
842.495
842.956
843.291
843.573
843.781
1097.91
1097.53
1091.21
1102.79
1094
1036.21
1098.82
1041.38
1068.28
1047.5
1045.12
1025.42
1014.19
1021.47
997.157
1016.49
1019.53
1083.24
1097.27
1126.19
1183.03
918.571
958.829
1084.39
1081.75
1079.02
1053.74
1079.19
1051.61
1057.66
1039.83
1038.61
1018.19
1007.65
982.265
956.368
951.257
919.644
918.011
917.651
944.001
903.634
1105.6
1014
1014.59
950.352
1043.6
1037.79
1036.45
1020.42
1026.2
1003.13
1006.3
984.853
975.091
958.058
911.012
866.407
845.428
818.635
761.868
708.418
705.023
719.53
845.242
900.636
1061.73
854.963
1176.92
930.234
923.044
924.099
905.228
909.406
886.023
885.638
859.903
824.18
744.594
662.591
570.036
552.743
505.973
411.365
341.441
337.087
360.066
427.602
571.765
760.091
710.534
944.665
618.889
610.895
614.338
592.576
599.029
584.241
588.513
548.163
479.315
386.129
290.416
212.185
209.286
177.628
137.106
117.172
130.36
145.093
174.546
245.291
355.412
467.807
533.99
249.677
247.603
250.428
245.237
253.69
257.858
261.796
236.38
195.139
144.404
89.2944
57.2901
61.3158
55.26
49.0784
51.8051
54.7983
60.1663
71.4444
97.6092
177.75
124.577
166.237
88.2184
87.9799
88.7915
89.2862
94.3769
99.532
102.74
90.6014
73.6237
53.0134
30.1425
18.2071
22.6832
22.9616
25.0471
29.5891
33.7494
31.2823
25.5746
24.2001
46.1646
27.6671
28.8219
32.7089
32.8061
32.8086
32.9366
34.4329
36.8709
38.6714
35.6443
29.033
20.3009
11.8596
8.6935
11.2477
12.5403
15.77
17.8525
18.5206
16.2108
11.2024
7.12542
10.3068
7.61126
7.87986
13.3311
13.458
13.2298
12.9425
13.0456
13.3748
14.2975
14.1704
12.1866
9.20821
6.51396
6.23374
7.4695
8.31368
9.25977
10.358
9.77063
8.87538
6.97151
6.99623
7.26009
7.13479
7.728
6.69534
6.81903
6.67072
6.46916
6.35743
6.23491
6.51388
6.8332
6.60161
5.93392
5.71938
5.73898
5.84934
5.92987
6.22361
6.30659
6.27606
6.67624
6.79253
6.99134
7.08362
7.70841
7.58953
5.11497
5.12381
5.15229
5.17716
5.22668
5.26041
5.31864
5.33482
5.44332
5.38373
5.48562
5.59322
5.81771
5.81443
6.01926
6.10793
6.31913
6.52007
6.71357
6.87392
7.29338
6.95172
7.64133
5.03241
4.9997
5.02189
5.04229
5.10755
5.18581
5.19056
5.3528
5.26073
5.42807
5.44832
5.58736
5.61894
5.81457
5.90331
6.02182
6.10581
6.45661
6.56831
6.87165
6.73161
7.34053
7.57092
5.05346
5.13483
5.19268
5.21252
5.22585
5.14499
5.33721
5.2
5.23773
5.28233
5.38419
5.58711
5.62935
5.72258
5.82832
5.99073
6.08066
6.32829
6.53672
6.67374
6.90088
7.07314
7.21688
4.94914
4.81376
4.80124
4.92713
4.79172
5.23028
4.87965
5.06696
5.13535
5.16965
5.30882
5.28866
5.46731
5.53055
5.73422
5.88329
5.93245
6.07373
6.3119
6.66942
6.63408
6.95048
7.19691
4.71864
4.75737
4.75878
4.78905
4.83578
4.74039
4.92831
4.933
5.10123
5.06863
5.20763
5.22987
5.40155
5.39388
5.65804
5.51254
6.01556
5.91948
6.01123
6.17834
6.46814
6.80905
6.85843
4.46085
4.57188
4.64524
4.6706
4.68958
4.75132
4.78207
4.83953
4.91374
4.94617
5.06361
5.08046
5.22754
5.24026
5.36758
5.54063
5.77672
6.06931
6.21365
6.32545
6.25017
6.45459
7.03382
4.57878
4.33992
4.39597
4.48956
4.54436
4.59372
4.70634
4.71244
4.80707
4.82791
4.92343
4.94208
5.06823
5.06239
5.40515
5.2357
5.38271
5.41911
5.75417
5.84394
6.12059
6.25122
6.77971
4.5274
4.61098
4.56951
4.47815
4.42791
4.48847
4.53835
4.46985
4.64585
4.68441
4.75707
4.79184
4.93764
4.96703
5.05038
5.14992
5.31045
5.50417
5.88312
5.67136
5.92273
5.78601
6.22437
4.36195
4.35948
4.35852
4.26248
4.45034
4.29254
4.46435
4.5004
4.4223
4.55859
4.6158
4.54573
4.73397
4.70654
4.88944
5.08955
5.27608
5.14058
5.46064
5.54602
5.72818
6.17646
6.08622
4.32354
4.32756
4.32638
4.31714
4.33942
4.31023
4.25593
4.36206
4.44382
4.29417
4.37496
4.54052
4.50434
4.71692
4.8037
4.87941
5.06902
5.13311
5.34343
5.42077
5.44829
5.61993
5.6457
4.17352
4.15853
4.1793
4.31097
4.20849
4.3471
4.26625
4.34891
4.29364
4.4429
4.43467
4.50751
4.55458
4.6217
4.64823
4.77102
4.90706
4.91375
5.0209
5.01011
5.17759
5.6661
5.58729
4.15171
4.23491
4.35701
4.04117
4.40839
4.02926
4.38239
4.11273
4.33664
4.1832
4.35766
4.30367
4.32507
4.31183
4.3768
4.44008
4.57164
4.77341
5.0192
5.27307
4.75539
5.10355
5.57249
3.70243
3.61219
3.65079
3.7858
3.68597
3.87091
3.8115
4.01359
4.00664
4.27218
4.13419
4.24856
4.3722
4.4627
4.38294
4.61142
4.60255
4.61442
4.3934
4.83674
5.11945
4.6825
5.24371
3.66598
3.66044
3.67971
3.65898
3.6843
3.6838
3.70305
3.73771
3.67705
3.60282
3.82792
3.81298
3.70751
3.96014
3.93785
3.66621
3.92697
4.32887
4.10038
3.96636
3.79868
4.39322
4.66562
3.37247
3.37176
3.38021
3.41614
3.42256
3.48006
3.47591
3.53611
3.54197
3.64455
3.61125
3.70501
3.79802
3.67701
3.79404
3.79597
3.6936
3.78434
3.95316
4.2397
3.89923
4.11583
4.23466
3.21878
3.22049
3.22461
3.23447
3.23743
3.25778
3.26945
3.28926
3.30655
3.31861
3.36215
3.37843
3.41409
3.48946
3.40214
3.62156
3.4646
3.7764
3.6202
3.4222
3.54044
3.69666
3.82988
2.97695
2.97345
2.98688
2.99841
3.04019
3.03977
3.05368
3.07435
3.08079
3.10947
3.12826
3.15733
3.20017
3.21687
3.27189
3.04507
3.44428
3.295
3.53261
3.5926
3.12401
3.33423
3.41745
2.77953
2.78537
2.78224
2.79989
2.7834
2.82069
2.81338
2.83977
2.84562
2.8723
2.87884
2.90324
2.91341
2.94084
3.03697
3.15294
2.40214
3.01576
3.55013
2.72395
2.97142
2.78257
3.08565
2.55148
2.55861
2.55723
2.56809
2.55805
2.58267
2.58366
2.60156
2.60604
2.62135
2.62756
2.63998
2.64498
2.63184
2.67824
2.56657
2.65332
2.68061
2.49152
3.22788
2.62343
2.216
2.5762
2.32423
2.32647
2.32668
2.33513
2.33581
2.34862
2.34869
2.36447
2.36502
2.38185
2.3775
2.39302
2.38007
2.35971
2.443
2.59876
2.69059
2.03611
2.10693
2.55412
2.74099
2.59351
2.01659
2.09329
2.09635
2.09469
2.1006
2.09904
2.10927
2.11069
2.1226
2.12221
2.13992
2.12857
2.16679
2.1154
2.21465
2.12602
2.34755
2.00653
1.88
2.21176
2.36228
2.24463
1.85466
1.79181
1.85527
1.85612
1.85807
1.86125
1.86475
1.87041
1.87386
1.88315
1.88487
1.90221
1.89653
1.94664
1.9009
2.05485
1.85714
1.79181
1.7469
1.66277
1.68417
1.96257
2.0819
1.91483
1.12514
1.61721
1.6184
1.61806
1.62101
1.62191
1.62525
1.62882
1.63161
1.63463
1.64191
1.63327
1.65503
1.58673
1.70112
1.66869
1.68167
1.7942
1.96486
1.30397
1.00985
1.56218
1.8716
1.52699
1.37479
1.37514
1.37669
1.37803
1.38144
1.38353
1.38993
1.39077
1.40374
1.4003
1.42521
1.41184
1.45965
1.45353
1.53513
1.40929
1.17481
1.17627
0.651429
1.12197
0.853933
1.19377
1.12754
1.13094
1.13199
1.13081
1.13357
1.13315
1.1356
1.13896
1.13957
1.15046
1.14578
1.18025
1.12949
1.29603
1.26145
1.12988
1.16122
1.0858
1.27113
1.4835
1.55896
1.05892
0.727323
0.883869
0.886079
0.886567
0.885479
0.887707
0.88523
0.889143
0.886825
0.89542
0.894018
0.911921
0.905751
0.939847
0.892327
0.938128
0.931967
0.874681
0.94434
0.884699
0.781644
0.26364
-0.210105
1.33659
-0.674412
0.636722
0.637561
0.635095
0.638161
0.634443
0.638803
0.637389
0.642814
0.644897
0.636723
0.690974
0.83718
0.896632
1.1215
0.839114
0.82869
0.72362
0.723031
0.482417
0.366518
0.537706
0.396921
0.180649
0.405143
0.405293
0.401753
0.403343
0.394203
0.396557
0.378302
0.370572
0.360581
0.429122
0.334336
0.318787
0.192846
-0.134828
0.4834
0.422161
0.420955
0.371564
0.17744
0.131962
-0.0345688
0.0935628
0.0279539
0.147525
0.148248
0.144637
0.146815
0.139939
0.149966
0.135
0.174808
0.120047
0.156312
0.0997706
0.147812
0.0236748
0.134476
0.111301
0.301087
0.135774
0.100259
0.0278487
-0.0824291
-0.262809
-0.414948
-0.530283
-0.00983509
-0.0108454
-0.0160921
-0.0178316
-0.0285953
-0.0302128
-0.0497717
-0.0473416
-0.0778864
-0.0659379
-0.128823
-0.124348
-0.173079
-0.175952
-0.126932
0.0158472
-0.0190876
-0.0521771
-0.181025
-0.451148
-0.411291
-0.536152
-0.72502
-0.515217
-0.517507
-0.523969
-0.527191
-0.537626
-0.545031
-0.568248
-0.581237
-0.617098
-0.634572
-0.679332
-0.667475
-0.678488
-0.370235
-0.248197
-0.0417228
0.0233259
-0.0585618
-0.274655
-0.914773
-0.926073
-0.717016
-1.09641
0.0833841
0.0826358
0.0820253
0.0802173
0.074277
0.0749673
0.0664581
0.0681523
0.0462553
0.0249751
-0.0203452
-0.115274
-0.25248
-0.738359
-1.19786
-1.64718
-1.76801
-1.79344
-1.79885
-1.18755
-0.910843
-2.05401
-0.911069
980.387
684.257
1082.29
1188.65
1091.84
1128.44
1408.74
1305.29
1138.78
864.332
1357.78
1281.56
1030.1
1046.41
1133.18
1247.71
749.622
746.268
826.624
854.318
191.155
217.048
273.439
315.461
34.7264
45.4296
64.1857
90.6853
8.10722
9.59316
14.0525
18.2256
7.74908
8.00586
8.16224
8.28452
7.80679
7.97642
8.11648
8.29519
7.65056
7.79881
7.9317
8.05802
7.45534
7.61381
7.6547
7.77548
7.54768
7.69997
7.43419
7.72489
7.38787
7.41808
7.36731
7.49707
7.10041
7.11549
7.17423
7.33766
6.99196
7.21959
6.83745
6.90157
6.83045
6.95192
7.0171
7.23556
6.43558
6.47829
6.64838
6.70904
6.34702
6.43436
6.31249
6.49548
6.09633
6.37854
6.04661
6.16647
5.66722
5.70965
5.72183
5.73932
5.57529
5.66429
5.90869
5.54743
5.00856
4.98184
5.01806
4.97764
4.70648
4.7933
4.90359
4.95801
4.21857
4.24104
4.22867
4.23607
3.87624
3.94476
3.98712
4.0451
3.48907
3.5688
3.63805
3.7293
3.05312
3.07275
3.09907
3.17742
2.73116
2.83271
2.99511
3.1871
2.05561
1.85994
1.66462
1.21537
1.8684
1.80073
1.79829
1.7849
1.29267
1.29314
1.20358
1.28163
1.16528
1.14313
1.21665
1.33159
1.15266
1.34982
0.951784
1.21631
0.379334
0.00131175
-0.276217
-0.933226
0.394804
-0.205948
-0.1981
-0.08932
0.138725
0.142658
-0.160963
-0.606218
0.0129014
0.0514745
0.15087
-0.373293
-0.715867
-1.16409
-0.598577
-0.600405
-0.679709
-0.648893
-1.245
-1.12322
-0.906589
-1.06121
-1.44581
-1.62056
-1.69514
-1.62405
-1.43832
-1.32974
1100.18
965.36
963.265
838.008
838.01
835.655
841.246
849.019
849.011
846.863
842.8
841.907
842.072
842.262
842.599
842.947
843.356
843.757
844.022
1225.98
1240.27
1292.36
912.916
845.259
845.2
862.014
899.678
899.172
869.315
852.964
843.679
842.3
842.232
842.033
842.606
843.614
843.946
844.568
1176.65
1347.17
1340.55
1060.33
1208.62
1145.9
1118.44
1141
1140.88
994.958
872.92
847.331
841.818
841.695
841.366
843.235
843.714
844.639
845.653
1165.79
1233.43
1579.33
1029.37
1504.11
1503.34
1250.84
1165.3
1049.79
993.222
845.379
834.497
836.115
842.122
849.875
852.331
848.174
845.353
847.338
1144.19
627.016
1317.56
1059.16
1564.7
1601.62
1039.69
732.596
1618.28
1410.55
900.341
846.182
846.283
911.065
950.884
942.483
917.917
866.079
849.177
617.081
498.03
873.147
608.07
1101.98
1107.98
1178.62
1446.09
1661.4
1551.96
1521.45
1311.03
1192.07
1235.6
1279.97
1278.14
1262.5
1068.76
869.736
224.342
277.318
222.949
323.712
360.614
501.961
902.759
619.254
1033.79
952.318
1749.67
1937.14
1791.38
2254.83
1060.25
1378.75
1109.43
963.394
890.542
33.5417
66.453
70.9033
67.3781
84.4018
146.784
317.893
493.45
664.601
903.097
929.63
1761.98
1732.9
1704.31
1532.94
886.42
825.182
843.183
832.355
8.21474
13.2639
14.7197
15.1324
19.3664
32.0844
71.9781
140.554
202.999
259.5
374.448
929.841
1247.04
1519.32
1094.18
1083.13
881.127
764.451
781.726
8.42763
8.81832
9.80431
9.35692
10.2048
10.4788
12.9583
21.477
34.8711
52.511
105.492
298.79
833.205
1231.98
1117.15
1393.33
1091.2
814.501
769.023
8.26615
8.64271
8.83622
9.49201
9.96555
10.6191
10.9751
11.867
12.0042
22.9259
75.6881
275.444
716.579
1133.2
1038.23
1382.23
1146.35
849.688
742.202
7.98754
8.54213
8.71552
9.88747
9.88477
10.2682
10.7223
11.2944
12.1997
23.1786
65.8009
205.027
544.575
924.691
1100.74
1292.4
1029.89
808.289
681.449
7.80454
8.19616
8.36807
9.48623
9.64826
10.215
10.5609
11.5394
12.779
20.9077
53.0819
204.006
525.403
982.084
1048.23
1185.35
918.255
749.295
622.55
7.93797
7.53894
8.35817
9.02452
9.08195
10.0906
10.0593
11.1918
15.2163
30.6313
77.9024
199.568
567.933
927.123
945.123
1105.19
807.156
670.916
567.048
7.77031
7.32572
8.26232
8.30859
9.32091
9.74035
9.84915
11.4579
15.3106
31.026
84.1042
188.875
417.882
800.9
895.043
1087.74
778.361
591.534
514.9
6.92965
6.92925
8.22011
8.22962
8.71603
9.38658
9.25314
10.1404
13.5076
31.9176
100.672
305.038
543.172
835.081
967.426
1102.75
797.771
553.495
471.297
6.85037
7.0174
7.82663
7.86232
8.02538
9.27354
9.04436
9.81277
11.6272
29.927
75.6595
256.518
567.82
830.093
1005.33
1072.4
756.663
507.252
429.902
6.92602
6.49379
7.52232
7.60444
7.53794
8.93258
8.76235
9.55668
11.8907
27.8906
93.0908
252.019
491.485
696.002
924.125
1046.24
681.539
447.071
380.043
6.71036
6.82789
7.39738
7.28797
7.46741
7.59604
8.44775
9.0816
11.5816
32.1953
92.488
249.711
409.259
513.124
565.043
683.253
566.896
387.706
292.165
6.35847
6.41907
7.30537
7.04783
7.17197
7.42417
8.01822
7.88262
8.69027
17.1127
61.5959
181.949
293.479
307.878
318.82
403.524
461.133
313.96
216.367
6.01702
5.85527
6.83463
6.57815
6.62988
6.13987
6.31097
7.41707
8.01039
11.6621
30.7886
108.297
212.179
234.605
208.981
259.521
300.256
241.25
179.65
5.71761
6.13739
6.34445
6.42825
6.86095
5.7506
7.14021
7.13136
8.132
11.4206
24.0963
88.1389
178.098
200.114
180.54
166.113
200.741
207.176
149.797
5.15465
6.03732
6.27974
6.12008
6.25276
6.01974
6.05039
8.84253
12.3412
27.1438
44.4127
114.246
182.638
176.747
160.3
114.437
157.66
158.617
112.293
5.25497
5.22816
5.34252
5.55224
5.86277
5.25529
7.15866
9.02584
21.2341
37.1003
81.2239
154.696
155.003
160.604
144.435
91.1609
116.751
124.151
88.8498
4.02149
4.43952
5.256
5.63133
5.48487
5.1992
5.73508
9.36055
20.2984
44.6716
116.581
152.246
126.633
117.767
113.448
67.0366
85.0205
101.246
69.7565
4.13359
4.10388
4.55398
4.44298
5.14389
5.38238
6.42622
8.88108
18.4403
51.1502
117.652
130.301
94.3562
90.0897
68.8265
43.2637
59.2921
81.8053
58.6119
3.82791
4.11308
3.79932
3.73564
4.12829
5.8218
7.17221
10.6357
21.5558
55.0342
112.813
119.349
102.873
52.4488
32.0219
26.1591
37.4971
64.8104
49.4381
2.97264
3.84751
3.67925
4.01508
3.76746
6.11563
10.623
15.974
28.7971
64.2304
109.467
79.5992
72.4834
37.7016
15.4148
15.0829
22.9642
51.7023
44.271
3.34022
2.91144
3.27521
3.08603
3.9033
5.50353
14.6143
23.5098
51.2403
86.5317
114.063
77.1706
53.9001
18.1202
7.06925
5.49914
13.5726
38.7954
40.9925
2.07406
2.37121
2.85271
2.85767
3.61019
8.26917
21.8227
48.503
78.6363
117.4
96.4072
70.3176
28.1091
5.77436
-1.39875
-1.06366
6.29153
26.2857
30.6538
1.9013
1.88051
1.62593
2.34675
2.64514
9.8617
27.7769
67.1481
113.327
115.554
90.2407
57.3832
15.5711
-2.38259
-7.91331
-5.10015
6.77354
21.3872
17.8399
1.17445
1.41829
1.31688
1.32312
2.17921
6.53734
25.2631
76.029
113.154
115.317
96.284
52.4184
8.11251
-7.39926
-9.52105
-3.77266
-11.0424
20.7509
24.1497
1.89576
1.73944
1.35444
0.604234
0.489878
4.12529
26.0586
81.7612
107.045
89.7859
72.5864
30.6377
0.350541
-11.6774
-12.7165
-10.0946
-10.1032
8.33102
22.6695
1.07999
0.452984
0.997873
1.45369
1.26977
5.83662
22.8192
81.2288
105.918
96.6657
59.2581
21.4534
-4.36414
-11.387
-12.5345
-6.74441
-11.8799
-16.8429
8.34229
-0.802361
-0.70194
-1.19323
-0.0956764
0.453261
4.70972
27.9514
88.826
99.1491
83.7325
41.6155
8.92493
-6.83804
-12.3752
-12.3857
-6.87652
-6.09039
-11.9856
12.4503
0.200353
0.363001
-1.21524
-2.17154
0.215284
4.4355
28.6064
90.2928
100.017
82.2681
35.3859
4.31552
-8.54492
-12.4209
-13.8316
-9.27531
-9.06453
-19.4106
-18.0183
-0.38047
-0.913446
-1.14116
-0.609939
-0.858125
3.09773
28.0816
87.9991
108.383
75.1749
24.2735
0.309888
-9.49323
-11.6663
-13.5112
-9.90574
-10.1182
-13.1692
-22.2867
-0.458927
-0.353447
0.119191
-0.61059
-0.321054
1.85769
20.7414
78.4528
99.7565
70.2224
21.5508
-2.832
-9.16017
-10.4029
-11.3541
-9.11644
-9.47657
-6.86084
-9.92616
-0.675467
-0.653085
-0.173722
0.683716
0.318112
1.76859
17.8212
75.2794
90.6423
70.6929
20.3325
-3.33418
-8.03878
-8.84811
-9.2697
-8.02317
-8.90537
-6.14581
-7.99131
-1.14635
-1.52885
-2.43489
-2.17064
-1.30361
0.0653095
6.02222
57.5241
97.9396
69.9903
20.8404
-3.7523
-7.12173
-7.48025
-7.74316
-6.94147
-7.35476
-5.79554
-8.20593
-1.6474
-1.54692
-2.28181
-2.24935
-1.47394
-1.61821
1.645
29.8915
77.6412
55.2525
24.8388
-1.86949
-5.42415
-5.48985
-5.51545
-4.9114
-5.10038
-4.68101
-5.22407
-1.39067
-3.07605
-1.14112
-1.15623
-0.576874
-1.06452
-1.74985
-5.75197
12.6924
44.5011
11.551
-4.93081
-5.41888
-4.87121
-4.43861
-4.28548
-5.00781
-5.639
-5.59993
)
;

boundaryField
{
    leftWall
    {
        type            zeroGradient;
    }
    rightWall
    {
        type            zeroGradient;
    }
    lowerWall
    {
        type            zeroGradient;
    }
    atmosphere
    {
        type            totalPressure;
        rho             rho;
        psi             none;
        gamma           1;
        p0              uniform 0;
        value           nonuniform List<scalar> 
46
(
-0.399711
-0.403531
-0.407194
-0.410499
-0.4193
-0.423917
-0.440496
-0.446691
-0.47478
-0.494074
-0.5385
-0.578806
-0.673849
-0.758085
-0.922235
-1.10834
-1.16203
-1.212
-1.31534
-1.29527
-1.16263
-1.5752
-1.23516
-1.46788
-1.59234
-1.66865
-1.69318
-1.72778
-2.43309
-1.92726
-1.77566
-1.17976
-1.3234
-0.760609
-0.436906
0
0
0
0
0
0
0
0
0
0
0
)
;
    }
    defaultFaces
    {
        type            empty;
    }
}


// ************************************************************************* //
