/*--------------------------------*- C++ -*----------------------------------*\
| =========                 |                                                 |
| \\      /  F ield         | foam-extend: Open Source CFD                    |
|  \\    /   O peration     | Version:     4.1                                |
|   \\  /    A nd           | Web:         http://www.foam-extend.org         |
|    \\/     M anipulation  |                                                 |
\*---------------------------------------------------------------------------*/
FoamFile
{
    version     2.0;
    format      ascii;
    class       surfaceScalarField;
    location    "0.3";
    object      phi;
}
// * * * * * * * * * * * * * * * * * * * * * * * * * * * * * * * * * * * * * //

dimensions      [0 3 -1 0 0 0 0];

internalField   nonuniform List<scalar> 
4432
(
3.67385e-06
-3.67385e-06
7.28014e-06
-3.60628e-06
1.15951e-05
-4.31495e-06
1.47974e-05
-3.20227e-06
1.84871e-05
-3.68974e-06
2.23597e-05
-3.87256e-06
2.6768e-05
-4.40834e-06
3.04934e-05
-3.7254e-06
3.25968e-05
-2.10344e-06
2.91571e-05
3.43976e-06
5.12314e-05
-2.20743e-05
5.5239e-05
-4.00759e-06
5.76453e-05
-2.40635e-06
5.8528e-05
-8.82639e-07
5.78881e-05
6.3986e-07
5.66488e-05
1.23931e-06
6.03272e-05
-3.67842e-06
5.55955e-05
4.73168e-06
5.06927e-05
4.90288e-06
3.94795e-05
1.12132e-05
3.12305e-05
8.24898e-06
1.76143e-05
1.36161e-05
1.76143e-05
3.70745e-06
-7.3813e-06
7.3172e-06
-7.21604e-06
1.16832e-05
-8.68093e-06
1.47146e-05
-6.23366e-06
1.87733e-05
-7.74846e-06
2.30518e-05
-8.15104e-06
2.6972e-05
-8.32856e-06
3.1101e-05
-7.85445e-06
3.28186e-05
-3.82098e-06
5.58378e-05
-1.95795e-05
5.452e-05
-2.07564e-05
5.87244e-05
-8.21202e-06
6.05766e-05
-4.25856e-06
6.06118e-05
-9.17792e-07
5.81269e-05
3.1247e-06
5.55231e-05
3.84312e-06
3.33218e-05
1.85229e-05
3.29487e-05
5.1048e-06
2.96702e-05
8.18136e-06
4.09105e-05
-2.70246e-08
3.07554e-05
1.8404e-05
1.94075e-05
2.49641e-05
3.70219e-05
3.65049e-06
-1.10318e-05
7.22174e-06
-1.07873e-05
1.16269e-05
-1.30861e-05
1.47371e-05
-9.34382e-06
1.93683e-05
-1.23797e-05
2.31281e-05
-1.19108e-05
2.65177e-05
-1.17182e-05
3.1538e-05
-1.28747e-05
3.21043e-05
-4.38735e-06
5.20283e-05
-3.95035e-05
5.22163e-05
-2.09444e-05
5.58195e-05
-1.18153e-05
5.65189e-05
-4.95794e-06
5.67896e-05
-1.18851e-06
5.58371e-05
4.07724e-06
5.40444e-05
5.63581e-06
5.82122e-05
1.43551e-05
5.40224e-05
9.29462e-06
4.81973e-05
1.40064e-05
4.23593e-05
5.81098e-06
3.60296e-05
2.47336e-05
1.7307e-05
4.36867e-05
5.43289e-05
3.63286e-06
-1.46646e-05
7.33883e-06
-1.44933e-05
1.15728e-05
-1.73201e-05
1.5301e-05
-1.3072e-05
2.00807e-05
-1.71594e-05
2.30779e-05
-1.4908e-05
2.78655e-05
-1.65058e-05
2.97985e-05
-1.48078e-05
5.10796e-05
-2.56685e-05
4.69174e-05
-3.53413e-05
4.76385e-05
-2.16655e-05
4.93928e-05
-1.35696e-05
4.96722e-05
-5.2373e-06
4.99194e-05
-1.43577e-06
5.0283e-05
3.71362e-06
4.98076e-05
6.11121e-06
5.21252e-05
1.20376e-05
4.99706e-05
1.14492e-05
4.73849e-05
1.65921e-05
4.08652e-05
1.23306e-05
3.29885e-05
3.26104e-05
1.78733e-05
5.88019e-05
7.22021e-05
3.47708e-06
-1.81417e-05
7.34087e-06
-1.8357e-05
1.15579e-05
-2.15371e-05
1.54182e-05
-1.69323e-05
2.00076e-05
-2.17488e-05
2.27414e-05
-1.76418e-05
2.76558e-05
-2.14202e-05
2.83888e-05
-1.55407e-05
4.54561e-05
-4.27358e-05
4.20749e-05
-3.196e-05
4.33665e-05
-2.29571e-05
4.54272e-05
-1.56303e-05
4.61156e-05
-5.9257e-06
4.73529e-05
-2.67308e-06
4.78209e-05
3.24556e-06
4.70905e-05
6.84168e-06
4.71843e-05
1.19437e-05
4.34903e-05
1.51432e-05
4.24212e-05
1.76612e-05
4.1961e-05
1.27909e-05
3.50668e-05
3.95046e-05
1.73836e-05
7.64851e-05
8.95857e-05
3.42086e-06
-2.15626e-05
7.54788e-06
-2.24841e-05
1.17131e-05
-2.57024e-05
1.50857e-05
-2.03049e-05
1.93435e-05
-2.60066e-05
2.35825e-05
-2.18809e-05
2.45965e-05
-2.24342e-05
4.0901e-05
-3.18452e-05
3.925e-05
-4.10848e-05
4.03404e-05
-3.30505e-05
4.22391e-05
-2.48558e-05
4.49046e-05
-1.82957e-05
4.61976e-05
-7.21873e-06
4.78967e-05
-4.37218e-06
4.86872e-05
2.45502e-06
4.80486e-05
7.48027e-06
4.81544e-05
1.1838e-05
4.5827e-05
1.74706e-05
4.48387e-05
1.86495e-05
2.41724e-05
3.34572e-05
4.02382e-05
2.34387e-05
1.82141e-05
9.85092e-05
0.0001078
3.304e-06
-2.48666e-05
7.4662e-06
-2.66463e-05
1.12377e-05
-2.94739e-05
1.47078e-05
-2.3775e-05
1.90437e-05
-3.03425e-05
2.09726e-05
-2.38098e-05
2.1424e-05
-2.28855e-05
3.69738e-05
-4.7395e-05
3.80688e-05
-4.21798e-05
4.0187e-05
-3.51686e-05
4.27801e-05
-2.74489e-05
4.61175e-05
-2.16332e-05
4.81672e-05
-9.26841e-06
4.92585e-05
-5.46349e-06
5.02415e-05
1.47206e-06
5.02614e-05
7.46031e-06
4.88721e-05
1.32273e-05
4.74316e-05
1.89112e-05
4.28188e-05
2.32623e-05
4.96586e-05
2.66174e-05
2.36223e-05
4.9475e-05
1.91293e-05
0.000103002
0.000126929
3.56359e-06
-2.84302e-05
7.63475e-06
-3.07174e-05
1.09441e-05
-3.27832e-05
1.40661e-05
-2.68969e-05
1.85261e-05
-3.48025e-05
1.89479e-05
-2.42316e-05
3.47667e-05
-3.87044e-05
3.57e-05
-4.83284e-05
3.85175e-05
-4.49973e-05
4.11489e-05
-3.77999e-05
4.46729e-05
-3.09729e-05
4.85506e-05
-2.55109e-05
5.04996e-05
-1.12175e-05
5.16284e-05
-6.59222e-06
5.22216e-05
8.78832e-07
5.23273e-05
7.35466e-06
5.19239e-05
1.36306e-05
5.17321e-05
1.9103e-05
4.90155e-05
2.59789e-05
2.7581e-05
4.80518e-05
5.14475e-05
2.56086e-05
3.72175e-05
0.000117232
0.000164147
2.35478e-05
-2.35478e-05
4.96539e-06
1.85825e-05
6.69033e-06
-1.72496e-06
-1.80173e-05
2.47077e-05
-4.61254e-05
2.8108e-05
-5.94932e-05
1.33679e-05
-6.93606e-05
9.8674e-06
-7.64149e-05
7.05436e-06
-6.26549e-05
-1.376e-05
-4.74882e-05
-1.51667e-05
-3.98619e-05
-7.62624e-06
-3.38079e-05
-6.05394e-06
-3.2367e-05
-1.44093e-06
-2.14232e-05
-1.09438e-05
-2.50133e-05
3.59015e-06
-1.81743e-05
-6.83899e-06
-1.1036e-05
-7.13826e-06
-5.09421e-06
-5.94181e-06
-5.0942e-06
3.50386e-05
-5.85864e-05
1.32411e-06
5.22971e-05
4.72799e-07
-8.73648e-07
-2.25283e-05
4.77089e-05
-4.9703e-05
5.52828e-05
-6.32133e-05
2.68782e-05
-7.39206e-05
2.05748e-05
-8.0545e-05
1.36788e-05
-6.3301e-05
-3.1004e-05
-4.62948e-05
-3.21727e-05
-4.05236e-05
-1.33975e-05
-1.86662e-05
-2.79113e-05
-1.75951e-05
-2.51202e-06
-1.68921e-05
-1.16467e-05
-1.40316e-05
7.29654e-07
-1.71351e-05
-3.73543e-06
-1.18751e-05
-1.23983e-05
-5.42556e-06
-1.23913e-05
-1.05197e-05
1.25153e-05
-7.11017e-05
-2.30789e-06
6.71204e-05
1.44126e-06
-4.6228e-06
-2.02284e-05
6.93786e-05
-2.92929e-05
6.43473e-05
-6.60514e-05
6.36367e-05
-7.70719e-05
3.15953e-05
-8.69308e-05
2.35378e-05
-6.74944e-05
-5.04404e-05
-4.77215e-05
-5.19456e-05
-2.1471e-05
-3.9648e-05
-3.09602e-05
-1.8422e-05
-1.80196e-05
-1.54526e-05
-1.66488e-05
-1.30174e-05
-1.26826e-05
-3.23662e-06
-1.124e-05
-5.178e-06
-1.12396e-05
-1.23986e-05
-4.95579e-06
-1.86751e-05
-1.54755e-05
-1.85934e-05
-5.25083e-05
-1.72064e-06
5.02477e-05
-2.31642e-06
-4.027e-06
-2.07149e-05
8.77771e-05
-2.46133e-05
6.82458e-05
-6.85708e-05
0.000107594
-8.85912e-05
5.16157e-05
-5.35164e-05
-1.1537e-05
-7.09509e-05
-3.30059e-05
-4.63209e-05
-7.65755e-05
-3.79669e-05
-4.8002e-05
-2.84089e-05
-2.798e-05
-2.72818e-05
-1.65797e-05
-1.62364e-05
-2.40628e-05
-1.84885e-05
-9.84449e-07
-1.28789e-05
-1.07876e-05
-9.06582e-06
-1.62116e-05
-5.25363e-06
-2.24872e-05
-2.07291e-05
-3.12478e-05
-2.12605e-05
-2.40226e-05
4.30226e-05
-5.56047e-07
-2.74936e-05
-1.35548e-05
0.000100776
-5.78223e-05
0.000112513
-8.33185e-05
0.00013309
-5.54415e-05
2.37388e-05
-5.61827e-05
-1.07958e-05
-3.93299e-05
-4.98586e-05
-4.9158e-05
-6.67474e-05
-1.97578e-05
-7.74022e-05
-1.49446e-05
-3.27932e-05
-1.76443e-05
-1.388e-05
-2.72843e-05
-1.44228e-05
-2.28257e-05
-5.44308e-06
-1.79768e-05
-1.56365e-05
-1.25043e-05
-2.1684e-05
-5.44858e-06
-2.95429e-05
-2.61777e-05
-3.57444e-05
1.44838e-05
-4.19147e-05
4.9193e-05
-1.57251e-06
-6.78357e-05
7.8451e-07
9.84188e-05
-3.84994e-05
0.000151797
-6.89749e-05
0.000163566
-9.27668e-05
4.75307e-05
-5.76414e-05
-4.59211e-05
-4.32278e-05
-6.42721e-05
-4.41291e-05
-6.58461e-05
-1.55778e-05
-0.000105954
-1.36071e-05
-3.47638e-05
-1.6604e-05
-1.08831e-05
-2.50226e-05
-6.00414e-06
-2.43026e-05
-6.16303e-06
-2.19556e-05
-1.79835e-05
-1.21064e-05
-3.15332e-05
-5.46398e-06
-3.61853e-05
-3.16417e-05
-1.83243e-05
3.28081e-05
-1.33659e-05
4.42347e-05
-8.22379e-06
-7.29778e-05
-3.362e-06
9.35571e-05
-2.78274e-05
0.000176263
-3.88597e-05
0.000174598
-5.79429e-05
6.66139e-05
-4.0829e-05
-6.30351e-05
-6.06418e-05
-4.44593e-05
-2.9436e-05
-9.70519e-05
-1.08761e-05
-0.000124513
-1.14116e-05
-3.42282e-05
-1.56846e-05
-6.61011e-06
-2.47891e-05
3.10032e-06
-2.58877e-05
-5.06438e-06
-1.41872e-05
-2.96839e-05
-1.4039e-05
-3.16814e-05
-5.86439e-06
-4.43598e-05
-3.75061e-05
-3.06794e-06
3.5876e-05
-3.80719e-06
4.4974e-05
-1.88036e-05
-5.79814e-05
-9.47885e-06
8.42323e-05
2.24906e-06
0.000164535
1.57893e-05
0.000161058
-1.36925e-05
9.60957e-05
-1.67624e-05
-5.99651e-05
-5.79027e-06
-5.54314e-05
-1.01771e-05
-9.2665e-05
-6.35845e-06
-0.000128332
-8.3573e-06
-3.22294e-05
-1.58659e-05
8.9852e-07
-2.55976e-05
1.2832e-05
-1.57807e-05
-1.48813e-05
-2.60003e-05
-1.94642e-05
-1.60066e-05
-4.16751e-05
-5.48046e-06
-5.4886e-05
-4.29865e-05
7.46176e-06
-3.58919e-05
1.51834e-05
-3.8439e-05
2.08277e-05
-3.84275e-05
2.96641e-05
-3.57333e-05
3.47549e-05
-3.98934e-05
6.02123e-05
-4.96889e-05
7.01239e-05
-4.86159e-05
7.58477e-05
-5.40522e-05
8.24616e-05
-5.16113e-05
9.04335e-05
-4.57718e-05
0.000103416
-4.39559e-05
0.000112243
-3.43375e-05
0.00011117
-1.01448e-05
0.000114231
-9.65315e-06
0.000116032
-9.21436e-07
0.000115815
7.57133e-06
0.000109614
1.98314e-05
0.000109024
1.96928e-05
0.000106434
2.85688e-05
0.000123668
3.08186e-05
8.91355e-05
6.01407e-05
0.000154093
5.22745e-05
0.000159796
0.000158444
6.96408e-06
-4.2856e-05
1.50168e-05
-4.64918e-05
2.09637e-05
-4.43744e-05
3.9681e-05
-5.44507e-05
4.89726e-05
-4.91849e-05
5.8288e-05
-5.90044e-05
6.56082e-05
-5.59361e-05
7.4216e-05
-6.26599e-05
8.64104e-05
-6.38057e-05
9.90469e-05
-5.84083e-05
0.000115069
-5.99782e-05
0.000125553
-4.48213e-05
0.000128539
-1.31311e-05
0.000129371
-1.04844e-05
0.000130539
-2.08971e-06
0.000130452
7.6581e-06
0.000132456
1.78276e-05
0.000131434
2.07149e-05
0.000118305
4.16974e-05
7.46118e-05
7.4512e-05
0.000105855
2.88972e-05
0.000113335
4.47949e-05
9.44892e-05
0.000178642
1.03125e-05
-5.31685e-05
2.00668e-05
-5.6246e-05
3.02701e-05
-5.45777e-05
3.81452e-05
-6.23258e-05
4.69593e-05
-5.79991e-05
5.35378e-05
-6.55829e-05
6.42735e-05
-6.66718e-05
7.57966e-05
-7.41831e-05
8.78207e-05
-7.58298e-05
0.000108525
-7.91125e-05
0.000128342
-7.97957e-05
0.000139723
-5.62022e-05
0.000144001
-1.74087e-05
0.000149779
-1.62626e-05
0.000153236
-5.54671e-06
0.000153944
6.95048e-06
0.000150262
2.15093e-05
0.000139722
3.12549e-05
0.000137331
4.40889e-05
0.000145337
6.65054e-05
0.000106559
6.76756e-05
0.000117376
3.39777e-05
7.35347e-05
0.00013833
1.02056e-05
-6.33742e-05
1.90315e-05
-6.50718e-05
2.80507e-05
-6.35969e-05
3.45489e-05
-6.88239e-05
4.29415e-05
-6.63917e-05
5.06069e-05
-7.32482e-05
5.91313e-05
-7.51962e-05
7.07151e-05
-8.57669e-05
9.13368e-05
-9.64515e-05
0.000116807
-0.000104583
0.000135643
-9.86315e-05
0.00014911
-6.9669e-05
0.000158155
-2.64541e-05
0.000165801
-2.3908e-05
0.000172559
-1.23053e-05
0.000167784
1.17261e-05
0.000157236
3.20572e-05
0.000150097
3.83941e-05
0.000141539
5.26465e-05
0.00014922
5.88242e-05
0.000177807
3.90891e-05
0.000180618
3.1166e-05
5.37278e-05
0.000200425
8.92407e-06
-7.22982e-05
1.71976e-05
-7.33453e-05
2.56917e-05
-7.20911e-05
3.26615e-05
-7.57938e-05
3.96939e-05
-7.34241e-05
4.46199e-05
-7.81742e-05
5.48464e-05
-8.54227e-05
7.18723e-05
-0.000102793
9.39554e-05
-0.000118534
0.000104782
-0.00011541
0.000101383
-9.52327e-05
0.000101653
-6.99386e-05
0.000102002
-2.68025e-05
9.88559e-05
-2.07623e-05
9.8347e-05
-1.17964e-05
9.60448e-05
1.40283e-05
0.000102665
2.54369e-05
0.000114763
2.62963e-05
0.000118622
4.87872e-05
0.000126378
5.10679e-05
9.34153e-05
7.20522e-05
0.000105875
1.87064e-05
-7.15582e-06
0.000166759
6.11269e-06
-7.84109e-05
1.15441e-05
-7.87767e-05
1.72788e-05
-7.78258e-05
1.96499e-05
-7.81649e-05
2.24681e-05
-7.62423e-05
2.49717e-05
-8.06779e-05
3.26e-05
-9.3051e-05
4.22514e-05
-0.000112444
4.15918e-05
-0.000117875
3.40011e-05
-0.000107819
2.70675e-05
-8.8299e-05
3.05296e-05
-7.34006e-05
4.15713e-05
-3.78443e-05
6.06905e-05
-3.98815e-05
8.27223e-05
-3.38282e-05
8.8589e-05
8.16159e-06
6.53078e-05
4.87181e-05
3.81645e-05
5.34396e-05
4.03375e-05
4.66142e-05
6.84335e-05
2.29719e-05
0.000116781
2.37042e-05
0.000204075
-6.85875e-05
6.11615e-06
0.000190803
8.20462e-07
-7.92314e-05
1.66619e-06
-7.96225e-05
2.75132e-06
-7.89109e-05
4.28961e-06
-7.97032e-05
7.03762e-06
-7.89903e-05
9.89876e-06
-8.3539e-05
1.27546e-05
-9.59069e-05
1.44407e-05
-0.00011413
1.74113e-05
-0.000120846
1.67761e-05
-0.000107184
1.45495e-05
-8.60725e-05
2.26565e-05
-8.15076e-05
3.78983e-05
-5.30861e-05
6.23932e-05
-6.43763e-05
4.99404e-05
-2.13754e-05
5.50207e-05
3.08123e-06
4.32399e-05
6.04989e-05
5.06022e-05
4.60774e-05
3.0163e-05
6.70534e-05
4.89768e-05
4.15816e-06
7.34811e-05
-8.00187e-07
3.43441e-05
-2.94504e-05
-3.02298e-05
7.069e-05
6.37966e-07
-7.98693e-05
1.26911e-06
-8.02536e-05
2.81137e-06
-8.04532e-05
4.66703e-06
-8.15588e-05
6.74611e-06
-8.10694e-05
9.79488e-06
-8.65878e-05
9.00184e-06
-9.51138e-05
6.91271e-06
-0.000112041
7.51207e-06
-0.000121445
4.44843e-06
-0.000104121
1.64822e-06
-8.32723e-05
1.51656e-05
-9.50251e-05
3.20627e-05
-6.99832e-05
3.69748e-05
-6.92884e-05
6.25452e-05
-4.69458e-05
6.54501e-05
1.7635e-07
0.000103509
2.24398e-05
5.1442e-05
9.81446e-05
4.35846e-05
7.49108e-05
1.56689e-05
3.20739e-05
-2.20426e-06
1.70729e-05
-2.25042e-05
-9.15043e-06
-5.3721e-05
9.8701e-07
8.61447e-07
-8.07308e-05
1.44576e-06
-8.08379e-05
2.89134e-06
-8.18988e-05
5.04578e-06
-8.37132e-05
6.44291e-06
-8.24665e-05
9.67042e-06
-8.98153e-05
7.0192e-06
-9.24626e-05
-2.66598e-06
-0.000102356
-1.2968e-05
-0.000111143
-2.2954e-05
-9.41346e-05
-1.54861e-05
-9.07402e-05
-7.95849e-06
-0.000102553
8.17299e-07
-7.8759e-05
-3.44136e-06
-6.50298e-05
1.48296e-05
-6.52167e-05
2.4161e-05
-9.15506e-06
3.3399e-05
1.32019e-05
4.94561e-05
8.20875e-05
6.56889e-05
5.86779e-05
7.20659e-05
2.56969e-05
7.96163e-05
9.52259e-06
0.000104123
-3.36575e-05
-1.08274e-05
6.12297e-05
2.24139e-06
-8.29722e-05
-1.32595e-06
-7.72706e-05
-1.5779e-06
-8.16468e-05
-1.86085e-06
-8.34303e-05
-3.91382e-06
-8.04135e-05
3.9289e-06
-9.7658e-05
7.75806e-06
-9.62918e-05
-1.43732e-06
-9.31605e-05
-1.75353e-05
-9.50448e-05
-2.00224e-05
-9.16475e-05
-1.62956e-05
-9.4467e-05
-2.58229e-05
-9.30253e-05
-3.68998e-05
-6.7682e-05
-3.00854e-05
-7.18441e-05
-5.96589e-05
-3.56433e-05
-6.14566e-05
-7.35727e-06
-3.60989e-05
-1.21559e-05
2.53653e-05
2.06233e-05
6.23656e-05
2.16776e-05
8.97815e-05
-1.71904e-06
0.00011936
-2.00555e-05
8.21707e-05
3.53147e-06
-2.85999e-05
9.99431e-05
1.99515e-06
-8.49673e-05
-6.10964e-06
-6.91658e-05
-5.52059e-06
-8.22359e-05
-3.88556e-06
-8.50653e-05
-2.77626e-06
-8.15228e-05
1.32676e-05
-0.000113702
2.7251e-05
-0.000110275
2.57921e-05
-9.17016e-05
2.29591e-05
-9.22118e-05
-1.12798e-05
-5.74086e-05
-3.61535e-05
-6.95932e-05
-2.3698e-05
-0.000105481
-3.7162e-05
-5.4218e-05
-4.19396e-05
-6.70665e-05
-4.02285e-05
-3.73544e-05
-2.72411e-05
-2.03446e-05
3.8412e-06
-4.32382e-05
5.4175e-05
-2.97105e-05
7.77534e-05
-1.90085e-06
0.000108691
-3.26565e-05
9.27246e-05
-4.08924e-06
0.000149387
-5.31314e-05
-4.33703e-05
0.000164158
5.46021e-06
-9.04275e-05
-2.55998e-06
-6.11456e-05
3.74168e-06
-8.85375e-05
7.13688e-06
-8.84605e-05
1.51516e-05
-8.95375e-05
2.76421e-05
-0.000126192
3.6751e-05
-0.000119384
4.46881e-05
-9.96387e-05
1.04667e-05
-5.79904e-05
9.30159e-06
-5.62435e-05
8.80044e-06
-6.90921e-05
6.50132e-06
-0.000103182
8.28936e-07
-4.85456e-05
2.76132e-06
-6.89989e-05
3.85397e-06
-3.84471e-05
2.08045e-05
-3.72952e-05
2.43018e-05
-4.67355e-05
2.9861e-05
-3.52697e-05
7.05624e-05
-4.26022e-05
7.147e-05
-3.35642e-05
0.000124633
-5.72522e-05
0.000132219
-6.07176e-05
-1.02434e-05
9.90921e-05
-9.46242e-06
-8.09651e-05
-2.03849e-06
-6.85695e-05
1.72902e-05
-0.000107866
1.74967e-05
-8.8667e-05
3.06054e-05
-0.000102646
2.92776e-05
-0.000124865
4.42415e-05
-0.000134348
1.17492e-05
-6.71464e-05
1.57181e-05
-6.19593e-05
1.93009e-05
-5.98262e-05
6.98135e-06
-5.67725e-05
1.41732e-05
-0.000110374
1.05379e-05
-4.49103e-05
-1.27103e-05
-4.57508e-05
-5.49255e-06
-4.56648e-05
3.59085e-05
-7.86962e-05
4.84874e-05
-5.93144e-05
5.83075e-05
-4.50898e-05
4.66397e-05
-3.09344e-05
6.93691e-05
-5.62935e-05
8.54338e-05
-7.33169e-05
8.38696e-05
-5.91533e-05
-4.80018e-05
0.000121628
3.05918e-05
-0.000111557
3.96351e-05
-7.76127e-05
2.78546e-05
-9.60858e-05
1.31003e-05
-7.39127e-05
3.53644e-08
-8.95812e-05
1.7225e-05
-0.000142054
-1.55383e-05
-0.000101585
-4.39759e-06
-7.82871e-05
4.3558e-06
-7.07127e-05
1.6161e-05
-7.16313e-05
2.1877e-05
-6.24886e-05
-1.22703e-05
-7.62263e-05
-4.6484e-06
-5.25322e-05
7.72116e-06
-5.81203e-05
1.42866e-05
-5.22302e-05
4.05922e-05
-0.000105002
4.2863e-05
-6.15852e-05
5.30521e-05
-5.52789e-05
9.16329e-05
-6.95152e-05
0.000128374
-9.30348e-05
0.000149441
-9.43837e-05
0.000151154
-6.08668e-05
-4.53845e-05
0.000148537
-2.54801e-05
-8.60768e-05
1.10182e-06
-0.000104195
1.3436e-05
-0.00010842
2.89172e-05
-8.93939e-05
3.59703e-05
-9.66342e-05
-3.46316e-06
-0.000102621
-5.2321e-06
-9.98157e-05
-1.18436e-06
-8.23348e-05
5.78468e-07
-7.24755e-05
2.66522e-06
-7.37181e-05
1.06123e-05
-7.04357e-05
1.26036e-05
-7.82175e-05
2.14281e-05
-6.13566e-05
2.84089e-05
-6.51011e-05
3.88727e-05
-6.26941e-05
8.94877e-06
-7.5078e-05
6.17722e-05
-0.000114409
5.41586e-05
-4.76653e-05
6.3456e-05
-7.88126e-05
7.95412e-05
-0.00010912
9.65349e-05
-0.000111377
9.39416e-05
-5.82735e-05
-0.000110493
0.00015905
2.49301e-06
-8.85698e-05
1.34322e-05
-0.000115134
1.49793e-05
-0.000109967
1.75179e-05
-9.19325e-05
1.71051e-05
-9.62215e-05
1.30268e-05
-9.85423e-05
6.19002e-06
-9.2979e-05
4.95225e-06
-8.1097e-05
4.10209e-06
-7.16254e-05
6.51676e-06
-7.61327e-05
1.46337e-05
-7.85526e-05
1.45351e-05
-7.8119e-05
2.25342e-05
-6.93557e-05
2.51274e-05
-6.76943e-05
3.7187e-05
-7.47537e-05
3.58357e-05
-7.37266e-05
7.15539e-05
-0.000150127
6.98749e-05
-4.59863e-05
0.000111764
-0.000120701
0.000100009
-9.73658e-05
0.000109542
-0.00012091
0.000156119
-0.00010485
-0.000100484
0.000146109
3.45333e-05
-0.000123103
2.80753e-05
-0.000108676
1.76724e-05
-9.95641e-05
1.50095e-05
-8.92697e-05
1.78176e-05
-9.90295e-05
9.74779e-06
-9.04725e-05
6.94335e-06
-9.01745e-05
5.15364e-06
-7.93073e-05
5.00255e-06
-7.14743e-05
7.94541e-06
-7.90756e-05
1.4807e-05
-8.54142e-05
1.71407e-05
-8.04526e-05
1.48177e-05
-6.70326e-05
1.54825e-05
-6.83592e-05
8.57483e-05
-0.00014502
0.00010218
-9.01586e-05
5.5155e-05
-0.000103102
0.000100848
-9.16792e-05
0.000136655
-0.000156508
0.000179284
-0.000139996
0.00019479
-0.000136416
0.000170525
-8.05856e-05
-0.000110764
0.000180805
-2.95375e-05
-9.35656e-05
8.65881e-06
-0.000146872
3.98823e-05
-0.000130788
3.04655e-05
-7.98528e-05
1.57106e-05
-8.42747e-05
1.14337e-05
-8.61956e-05
9.71353e-06
-8.84543e-05
1.2616e-06
-7.08554e-05
4.07873e-06
-7.42914e-05
1.06378e-05
-8.56346e-05
1.64035e-05
-9.11799e-05
1.9246e-05
-8.3295e-05
1.95284e-05
-6.7315e-05
2.88439e-05
-7.76747e-05
5.1688e-05
-0.000167864
5.75641e-05
-9.60347e-05
4.64023e-05
-9.19398e-05
0.000121381
-0.000166658
9.91074e-05
-0.000134234
0.000113549
-0.000154437
0.000119433
-0.0001423
0.000201934
-0.000163087
-0.000108048
0.000199218
-4.33864e-06
-8.9227e-05
-6.04616e-06
-0.000145165
-8.82805e-06
-0.000128006
-2.10076e-05
-6.76733e-05
1.89206e-05
-0.000124203
2.29228e-06
-6.95672e-05
-3.97757e-06
-8.21845e-05
2.24405e-05
-9.72734e-05
1.52187e-05
-6.70696e-05
2.29121e-05
-9.3328e-05
2.63507e-05
-9.46185e-05
1.67431e-05
-7.36874e-05
2.54407e-05
-7.60126e-05
3.36772e-05
-8.59112e-05
3.33941e-05
-0.000167581
0.000100963
-0.000163604
0.000148099
-0.000139076
0.000150583
-0.000169141
0.000167163
-0.000150814
0.000179222
-0.000166496
0.000182904
-0.000145981
0.00011522
-9.54031e-05
-9.96539e-05
0.000106825
-1.09558e-05
-7.82711e-05
-7.58016e-06
-0.00014854
-6.51282e-06
-0.000129073
5.57705e-06
-7.97631e-05
2.5753e-06
-0.000121201
1.5826e-05
-8.28179e-05
4.08541e-06
-7.04438e-05
-1.177e-05
-8.1418e-05
1.64523e-05
-9.52919e-05
1.51355e-05
-9.20112e-05
1.0232e-06
-8.05062e-05
2.17801e-05
-9.44443e-05
1.30077e-05
-6.72402e-05
6.54996e-05
-0.000138403
5.2238e-05
-0.000154319
5.85206e-05
-0.000169886
7.23154e-05
-0.000152871
8.12275e-05
-0.000178054
9.63795e-05
-0.000165966
0.000114145
-0.000184262
0.000123223
-0.000155059
0.000123836
-9.60166e-05
-0.000145577
0.000169759
-4.69018e-06
-7.3581e-05
-7.57047e-06
-0.00014566
-1.74404e-05
-0.000119203
-1.96135e-06
-9.52422e-05
-1.10944e-05
-0.000112068
-2.75229e-06
-9.11601e-05
9.38618e-06
-8.25823e-05
2.88847e-06
-7.49203e-05
-1.31771e-05
-7.92263e-05
3.19543e-05
-0.000137143
4.52415e-05
-9.37934e-05
1.82929e-05
-6.74956e-05
4.57697e-05
-9.47169e-05
4.12795e-05
-0.000133913
5.29312e-05
-0.000165971
5.89433e-05
-0.000175898
7.40886e-05
-0.000168016
8.41723e-05
-0.000188137
9.47824e-05
-0.000176576
0.000108969
-0.000198449
0.000106238
-0.000152328
0.000111496
-0.000101275
-0.000151874
0.000117793
-1.53431e-05
-5.82379e-05
-2.41531e-06
-0.000158588
7.34446e-06
-0.000128963
-1.6659e-06
-8.62318e-05
1.16985e-05
-0.000125432
1.13142e-06
-8.0593e-05
1.38656e-05
-9.53164e-05
1.78129e-06
-6.28359e-05
1.28109e-05
-9.02559e-05
1.61029e-05
-0.000140435
1.80738e-05
-9.57643e-05
3.23845e-05
-8.18063e-05
4.91996e-05
-0.000111532
7.58432e-05
-0.000160557
0.000100084
-0.000190211
0.000109894
-0.000185709
0.000125528
-0.00018365
0.000136737
-0.000199347
0.000148486
-0.000188325
0.000125004
-0.000174967
0.000121146
-0.000148469
0.000183144
-0.000163273
-0.00016116
0.00019243
3.87215e-05
-9.69593e-05
-2.20921e-06
-0.000117657
-2.02454e-05
-0.000110927
-5.90306e-07
-0.000105887
-1.36736e-05
-0.000112349
1.28223e-06
-9.55488e-05
3.84396e-06
-9.78782e-05
2.44717e-05
-8.34636e-05
1.44626e-05
-8.02468e-05
4.02084e-05
-0.00016618
1.95265e-05
-7.50824e-05
1.80634e-06
-6.40861e-05
3.78685e-05
-0.000147594
4.24709e-05
-0.000165159
5.20212e-05
-0.000199761
6.27728e-05
-0.00019646
8.03014e-05
-0.000201178
9.73043e-05
-0.00021635
0.000159101
-0.000250122
0.000185996
-0.000201862
0.000123599
-8.60725e-05
0.000190393
-0.000230067
-0.00010026
0.000129493
4.47392e-06
-0.000101433
2.25837e-06
-0.000115442
4.28703e-06
-0.000112955
5.98204e-06
-0.000107582
5.57137e-06
-0.000111938
1.12372e-05
-0.000101215
1.92889e-05
-0.00010593
3.18156e-05
-9.59904e-05
5.8317e-05
-0.000106748
1.0598e-05
-0.000118462
3.29147e-05
-9.73991e-05
6.65039e-05
-9.76752e-05
3.10541e-05
-0.000112144
7.16667e-05
-0.000205772
0.000107983
-0.000236077
5.88094e-05
-0.000147287
0.000112043
-0.000254412
0.000137518
-0.000241824
0.000165073
-0.000277677
0.000110514
-0.000147304
0.000178321
-0.000153879
9.28799e-05
-0.000144626
-0.000118207
0.000110827
4.27929e-06
-0.000105713
2.09051e-06
-0.000113253
1.66044e-06
-0.000112525
5.75533e-06
-0.000111677
3.73996e-06
-0.000109923
9.93651e-06
-0.000107411
1.22486e-05
-0.000108242
2.34377e-05
-0.000107179
2.77157e-05
-0.000111026
2.18286e-05
-0.000112574
3.31663e-05
-0.000108737
4.29296e-05
-0.000107438
3.83065e-05
-0.000107521
6.33491e-05
-0.000230814
7.80771e-05
-0.000250805
6.91346e-05
-0.000138345
7.94584e-05
-0.000264736
0.000120861
-0.000283226
0.000122757
-0.000279573
0.000107204
-0.000131751
0.000112751
-0.000159426
0.000115029
-0.000146903
-0.000136055
0.000132877
3.65422e-06
-0.000109367
6.82109e-06
-0.00011642
1.04449e-05
-0.000116149
1.41018e-05
-0.000115334
1.76001e-05
-0.000113421
2.33657e-05
-0.000113177
2.79628e-05
-0.000112839
3.41951e-05
-0.000113412
3.64898e-05
-0.000113321
3.65594e-05
-0.000112644
4.17894e-05
-0.000113967
4.93698e-05
-0.000115019
5.37071e-05
-0.000111859
6.21789e-05
-0.000239286
7.49228e-05
-0.000263549
6.75411e-05
-0.000130963
7.18817e-05
-0.000269077
6.67971e-05
-0.000278142
7.388e-05
-0.000286656
9.30263e-05
-0.000150897
0.000102044
-0.000168444
0.000109902
-0.000154762
-0.0001489
0.000122747
3.37486e-06
-0.000112742
6.23758e-06
-0.000119282
9.19832e-06
-0.00011911
1.21178e-05
-0.000118253
1.56621e-05
-0.000116966
1.99885e-05
-0.000117503
2.38841e-05
-0.000116734
2.81322e-05
-0.00011766
3.26202e-05
-0.000117809
3.81265e-05
-0.00011815
4.13191e-05
-0.000117159
4.58987e-05
-0.000119598
5.19672e-05
-0.000117927
5.94427e-05
-0.000246761
5.19071e-05
-0.000256014
6.63702e-05
-0.000145426
7.88779e-05
-0.000281584
9.04145e-05
-0.000289678
8.34277e-05
-0.00027967
8.97333e-05
-0.000157203
0.000108382
-0.000187092
0.000119656
-0.000166036
-0.000159211
0.000129967
2.92366e-06
-0.000115665
4.5068e-06
-0.000120866
7.50487e-06
-0.000122108
1.03382e-05
-0.000121086
1.7458e-05
-0.000124085
2.14475e-05
-0.000121493
2.68635e-05
-0.00012215
3.09947e-05
-0.000121791
3.48126e-05
-0.000121627
3.79074e-05
-0.000121245
4.20494e-05
-0.000121301
4.61865e-05
-0.000123736
4.90112e-05
-0.000120752
5.41556e-05
-0.000251906
4.91166e-05
-0.000250975
0.000162527
-0.000258836
7.25943e-05
-0.000191652
8.15586e-05
-0.000298643
8.81829e-05
-0.000286294
0.000116038
-0.000185058
0.000111485
-0.00018254
0.000126664
-0.000181214
-0.00016643
0.000133883
3.7249e-06
-0.00011939
7.24224e-06
-0.000124383
1.06461e-05
-0.000125512
1.49241e-05
-0.000125364
1.78863e-05
-0.000127048
2.22312e-05
-0.000125838
2.57709e-05
-0.00012569
2.95797e-05
-0.0001256
3.37456e-05
-0.000125792
3.8637e-05
-0.000126136
4.41057e-05
-0.00012677
5.0304e-05
-0.000129934
5.679e-05
-0.000127238
6.44143e-05
-0.00025953
7.56862e-05
-0.000262247
0.000102672
-0.000285822
8.48459e-05
-0.000173826
9.94315e-05
-0.000313228
8.56139e-06
-0.000195424
0.000126378
-0.000302874
0.000118388
-0.00017455
0.000126361
-0.000189188
-0.000173651
0.000133582
4.26075e-06
-0.000123651
8.84716e-06
-0.000128969
1.2745e-05
-0.00012941
1.67288e-05
-0.000129348
1.92427e-05
-0.000129562
2.26599e-05
-0.000129255
2.62236e-05
-0.000129254
3.01079e-05
-0.000129484
3.41727e-05
-0.000129857
3.75313e-05
-0.000129495
4.22471e-05
-0.000131486
4.54575e-05
-0.000133144
5.03177e-05
-0.000132098
5.66698e-05
-0.000265882
6.64408e-05
-0.000272018
6.11839e-05
-0.000280565
0.00016621
-0.000278853
4.66675e-05
-0.000193685
5.16827e-05
-0.000200439
5.55205e-05
-0.000306712
0.000167879
-0.000286908
0.000139967
-0.000161277
-0.000188868
0.000155184
4.11901e-06
-0.00012777
7.7864e-06
-0.000132637
1.13517e-05
-0.000132975
1.51068e-05
-0.000133103
1.86034e-05
-0.000133058
2.27035e-05
-0.000133355
2.62865e-05
-0.000132837
3.00076e-05
-0.000133205
3.35268e-05
-0.000133376
3.65601e-05
-0.000132528
4.07682e-05
-0.000135694
4.09172e-05
-0.000133293
4.51804e-05
-0.000136361
3.95957e-05
-0.000260298
4.65968e-05
-0.000279019
5.31671e-05
-0.000287135
8.55997e-05
-0.000311285
9.42567e-05
-0.000202342
6.66012e-05
-0.000172783
7.38323e-05
-0.000313943
8.31044e-05
-0.000296181
0.000104715
-0.000182887
-0.000202613
0.000118461
4.34538e-06
-0.000132115
8.34779e-06
-0.000136639
1.20001e-05
-0.000136627
1.57661e-05
-0.000136869
1.92814e-05
-0.000136573
2.28323e-05
-0.000136906
2.63588e-05
-0.000136363
3.008e-05
-0.000136926
3.3193e-05
-0.000136489
3.65772e-05
-0.000135912
3.9874e-05
-0.000138991
4.14048e-05
-0.000134824
4.59954e-05
-0.000140952
4.16769e-05
-0.000255979
4.45885e-05
-0.00028193
7.11201e-05
-0.000313667
8.33555e-05
-0.000323521
7.10991e-05
-0.000190086
7.91141e-05
-0.000180798
0.000107195
-0.000342024
0.000109769
-0.000298755
0.000110216
-0.000183333
-0.000210643
0.000118245
4.08898e-06
-0.000136204
7.63358e-06
-0.000140184
1.11984e-05
-0.000140192
1.48053e-05
-0.000140476
1.84972e-05
-0.000140265
2.2325e-05
-0.000140733
2.5908e-05
-0.000139946
3.00021e-05
-0.000141021
3.33131e-05
-0.0001398
3.7576e-05
-0.000140175
4.11348e-05
-0.00014255
4.68006e-05
-0.00014049
5.17513e-05
-0.000145903
6.04577e-05
-0.000264685
6.56001e-05
-0.000287073
5.90935e-05
-0.00030716
3.89885e-05
-0.000303416
0.000157149
-0.000308247
0.000177196
-0.000200845
6.02283e-05
-0.000225056
7.46529e-05
-0.00031318
7.15871e-05
-0.000180268
-0.000338335
0.000199279
4.17372e-06
-0.000140378
7.70207e-06
-0.000143712
1.11934e-05
-0.000143683
1.45419e-05
-0.000143825
1.79755e-05
-0.000143699
2.15746e-05
-0.000144333
2.48338e-05
-0.000143206
2.85016e-05
-0.000144688
3.11591e-05
-0.000142458
3.49299e-05
-0.000143946
3.51585e-05
-0.000142778
4.09768e-05
-0.000146308
3.32641e-05
-0.00013819
3.34622e-05
-0.000264884
3.82145e-05
-0.000291825
4.17248e-05
-0.000310671
6.565e-05
-0.000327341
8.99363e-05
-0.000332533
0.000105941
-0.00021685
8.2393e-05
-0.000201508
0.000113267
-0.000344053
0.000138924
-0.000205925
-0.000346087
0.000146676
3.71505e-06
-0.000144093
6.92327e-06
-0.00014692
1.02729e-05
-0.000147033
1.36246e-05
-0.000147176
1.73928e-05
-0.000147467
2.07928e-05
-0.000147733
2.47378e-05
-0.000147151
2.84339e-05
-0.000148384
3.24857e-05
-0.00014651
3.67295e-05
-0.00014819
3.81524e-05
-0.000144201
4.39739e-05
-0.000152129
3.64697e-05
-0.000130686
3.34669e-05
-0.000261881
4.69631e-05
-0.000305321
4.99795e-05
-0.000313687
4.74663e-05
-0.000324828
3.60962e-05
-0.000321163
0.000137242
-0.000317996
8.81221e-05
-0.000152388
7.10973e-05
-0.000327029
7.81453e-05
-0.000212973
-0.000371182
0.000103241
3.44743e-06
-0.00014754
6.41251e-06
-0.000149885
9.53162e-06
-0.000150152
1.25917e-05
-0.000150236
1.57502e-05
-0.000150626
1.89555e-05
-0.000150938
2.25385e-05
-0.000150734
2.62659e-05
-0.000152112
3.07141e-05
-0.000150958
3.48141e-05
-0.00015229
3.92306e-05
-0.000148618
3.50745e-05
-0.000147973
3.76249e-05
-0.000133236
4.90458e-05
-0.000273302
4.53382e-05
-0.000301614
4.89727e-05
-0.000317322
3.77727e-05
-0.000313628
5.23921e-05
-0.000335782
8.20307e-05
-0.000347635
0.000121534
-0.000191891
3.3181e-05
-0.000238676
0.000144007
-0.000323799
-0.000265736
3.85612e-05
3.04069e-06
-0.000150581
5.65785e-06
-0.000152502
8.47397e-06
-0.000152968
1.13995e-05
-0.000153162
1.48619e-05
-0.000154088
1.82608e-05
-0.000154337
2.27221e-05
-0.000155195
2.69518e-05
-0.000156341
3.19599e-05
-0.000155966
3.55066e-05
-0.000155837
3.93084e-05
-0.000152419
3.52164e-05
-0.000143881
3.54508e-05
-0.00013347
4.65355e-05
-0.000284386
3.75829e-05
-0.000292661
2.82284e-05
-0.000307967
3.13841e-05
-0.000316783
3.56127e-05
-0.000340011
6.91508e-05