/*--------------------------------*- C++ -*----------------------------------*\
| =========                 |                                                 |
| \\      /  F ield         | foam-extend: Open Source CFD                    |
|  \\    /   O peration     | Version:     4.1                                |
|   \\  /    A nd           | Web:         http://www.foam-extend.org         |
|    \\/     M anipulation  |                                                 |
\*---------------------------------------------------------------------------*/
FoamFile
{
    version     2.0;
    format      ascii;
    class       surfaceScalarField;
    location    "0.3";
    object      phi_0;
}
// * * * * * * * * * * * * * * * * * * * * * * * * * * * * * * * * * * * * * //

dimensions      [0 3 -1 0 0 0 0];

internalField   nonuniform List<scalar> 
4432
(
3.67691e-06
-3.67691e-06
7.28744e-06
-3.61053e-06
1.16053e-05
-4.31784e-06
1.48063e-05
-3.20106e-06
1.84999e-05
-3.69359e-06
2.2381e-05
-3.88107e-06
2.67917e-05
-4.41074e-06
3.05118e-05
-3.72001e-06
3.26125e-05
-2.10079e-06
2.91694e-05
3.4431e-06
5.12519e-05
-2.20824e-05
5.52599e-05
-4.00805e-06
5.76776e-05
-2.41761e-06
5.85701e-05
-8.92551e-07
5.7936e-05
6.34145e-07
5.6709e-05
1.22692e-06
6.04044e-05
-3.69538e-06
5.56875e-05
4.71687e-06
5.07945e-05
4.89309e-06
3.95703e-05
1.12242e-05
3.13179e-05
8.25241e-06
1.76744e-05
1.36435e-05
1.76744e-05
3.71054e-06
-7.38745e-06
7.32472e-06
-7.22472e-06
1.16936e-05
-8.68676e-06
1.47243e-05
-6.23167e-06
1.87877e-05
-7.75707e-06
2.30711e-05
-8.16444e-06
2.69928e-05
-8.33246e-06
3.11204e-05
-7.84753e-06
3.28359e-05
-3.81635e-06
5.5861e-05
-1.95819e-05
5.45372e-05
-2.07587e-05
5.87368e-05
-8.20767e-06
6.05893e-05
-4.27008e-06
6.06334e-05
-9.36665e-07
5.81607e-05
3.10688e-06
5.55684e-05
3.81925e-06
3.33639e-05
1.85091e-05
3.30073e-05
5.0735e-06
2.97359e-05
8.16445e-06
4.10118e-05
-5.16917e-08
3.08374e-05
1.84267e-05
1.94643e-05
2.50167e-05
3.71387e-05
3.65388e-06
-1.10413e-05
7.22919e-06
-1.08e-05
1.16382e-05
-1.30957e-05
1.47473e-05
-9.34076e-06
1.93819e-05
-1.23918e-05
2.31451e-05
-1.19276e-05
2.65366e-05
-1.17239e-05
3.15576e-05
-1.28685e-05
3.21228e-05
-4.38153e-06
5.2056e-05
-3.95152e-05
5.22429e-05
-2.09456e-05
5.58386e-05
-1.18034e-05
5.65351e-05
-4.96656e-06
5.6812e-05
-1.21359e-06
5.58689e-05
4.04997e-06
5.40929e-05
5.59523e-06
5.82721e-05
1.433e-05
5.40953e-05
9.25024e-06
4.82914e-05
1.39684e-05
4.24654e-05
5.77422e-06
3.6132e-05
2.47602e-05
1.73633e-05
4.37853e-05
5.4502e-05
3.63671e-06
-1.4678e-05
7.3459e-06
-1.45092e-05
1.15836e-05
-1.73334e-05
1.53143e-05
-1.30715e-05
2.00947e-05
-1.71722e-05
2.30922e-05
-1.49251e-05
2.78855e-05
-1.65172e-05
2.98212e-05
-1.48043e-05
5.11127e-05
-2.5673e-05
4.69401e-05
-3.53426e-05
4.76562e-05
-2.16616e-05
4.94016e-05
-1.35488e-05
4.96877e-05
-5.25268e-06
4.99525e-05
-1.47842e-06
5.03199e-05
3.68256e-06
4.98615e-05
6.05364e-06
5.2199e-05
1.19925e-05
5.00581e-05
1.13912e-05
4.74874e-05
1.65391e-05
4.09909e-05
1.22708e-05
3.30979e-05
3.26531e-05
1.79339e-05
5.89493e-05
7.24359e-05
3.48175e-06
-1.81598e-05
7.34773e-06
-1.83752e-05
1.1568e-05
-2.15536e-05
1.5433e-05
-1.69365e-05
2.00245e-05
-2.17637e-05
2.27577e-05
-1.76583e-05
2.76771e-05
-2.14366e-05
2.84121e-05
-1.55392e-05
4.54842e-05
-4.27452e-05
4.2088e-05
-3.19463e-05
4.33754e-05
-2.29491e-05
4.54304e-05
-1.56037e-05
4.61281e-05
-5.95043e-06
4.73856e-05
-2.73588e-06
4.78681e-05
3.20003e-06
4.71618e-05
6.76e-06
4.72808e-05
1.18734e-05
4.36067e-05
1.50653e-05
4.25491e-05
1.75966e-05
4.21034e-05
1.27165e-05
3.519e-05
3.95665e-05
1.74475e-05
7.66918e-05
8.98834e-05
3.42584e-06
-2.15856e-05
7.55481e-06
-2.25042e-05
1.17234e-05
-2.57222e-05
1.51015e-05
-2.03146e-05
1.93634e-05
-2.60256e-05
2.36018e-05
-2.18968e-05
2.46163e-05
-2.24512e-05
4.09308e-05
-3.18537e-05
3.92687e-05
-4.10831e-05
4.03488e-05
-3.30264e-05
4.22469e-05
-2.48472e-05
4.49077e-05
-1.82646e-05
4.62146e-05
-7.25733e-06
4.79339e-05
-4.45517e-06
4.87382e-05
2.3957e-06
4.81286e-05
7.36958e-06
4.82539e-05
1.17481e-05
4.59355e-05
1.73837e-05
4.49781e-05
1.85541e-05
2.42893e-05
3.34053e-05
4.04175e-05
2.34382e-05
1.82916e-05
9.88178e-05
0.000108175
3.30821e-06
-2.48938e-05
7.47347e-06
-2.66694e-05
1.12495e-05
-2.94982e-05
1.47244e-05
-2.37895e-05
1.90637e-05
-3.03649e-05
2.09892e-05
-2.38223e-05
2.14382e-05
-2.29001e-05
3.69943e-05
-4.74097e-05
3.80863e-05
-4.2175e-05
4.01961e-05
-3.51362e-05
4.27891e-05
-2.74402e-05
4.6133e-05
-2.16085e-05
4.81818e-05
-9.30618e-06
4.92815e-05
-5.55485e-06
5.028e-05
1.39725e-06
5.03339e-05
7.31562e-06
4.89913e-05
1.30908e-05
4.75842e-05
1.87908e-05
4.29872e-05
2.31511e-05
4.98526e-05
2.65399e-05
2.37312e-05
4.95596e-05
1.92155e-05
0.000103334
0.00012739
3.56666e-06
-2.84605e-05
7.64203e-06
-3.07448e-05
1.09556e-05
-3.28118e-05
1.40818e-05
-2.69157e-05
1.8544e-05
-3.48271e-05
1.89643e-05
-2.42426e-05
3.47953e-05
-3.87311e-05
3.57242e-05
-4.83386e-05
3.85386e-05
-4.49895e-05
4.11639e-05
-3.77615e-05
4.46868e-05
-3.09631e-05
4.85604e-05
-2.54821e-05
5.05041e-05
-1.12499e-05
5.16426e-05
-6.69329e-06
5.22728e-05
7.66972e-07
5.24091e-05
7.17939e-06
5.20419e-05
1.34579e-05
5.18687e-05
1.8964e-05
4.91664e-05
2.58534e-05
2.77237e-05
4.79826e-05
5.17135e-05
2.55697e-05
3.73885e-05
0.000117659
0.000164779
2.34207e-05
-2.34207e-05
5.7247e-06
1.76959e-05
7.37824e-06
-1.65344e-06
-1.74002e-05
2.47785e-05
-4.53094e-05
2.79092e-05
-5.85073e-05
1.31979e-05
-6.78816e-05
9.37427e-06
-7.41875e-05
6.30596e-06
-6.03914e-05
-1.37961e-05
-4.53671e-05
-1.50243e-05
-3.76601e-05
-7.70694e-06
-3.19478e-05
-5.71227e-06
-3.05515e-05
-1.39632e-06
-2.0377e-05
-1.01745e-05
-2.33106e-05
2.93364e-06
-1.68135e-05
-6.49716e-06
-1.01294e-05
-6.68408e-06
-4.61099e-06
-5.5184e-06
-4.61099e-06
3.54972e-05
-5.89178e-05
1.6512e-06
5.15419e-05
1.13711e-06
-1.13924e-06
-2.19487e-05
4.78643e-05
-4.8906e-05
5.48665e-05
-6.23199e-05
2.66119e-05
-7.24129e-05
1.94672e-05
-7.81292e-05
1.20223e-05
-6.09429e-05
-3.09823e-05
-4.4126e-05
-3.18411e-05
-3.82475e-05
-1.35854e-05
-1.76748e-05
-2.62849e-05
-1.66619e-05
-2.40926e-06
-1.59696e-05
-1.08667e-05
-1.37798e-05
7.43856e-07
-1.56462e-05
-4.63082e-06
-1.10172e-05
-1.1313e-05
-4.94998e-06
-1.15857e-05
-9.56096e-06
1.44552e-05
-7.3373e-05
-1.14109e-06
6.71381e-05
2.82161e-06
-5.10184e-06
-1.98714e-05
7.05573e-05
-2.89556e-05
6.39508e-05
-6.54135e-05
6.30699e-05
-7.58491e-05
2.99028e-05
-8.4268e-05
2.04413e-05
-6.48851e-05
-5.03652e-05
-4.55582e-05
-5.11679e-05
-2.02857e-05
-3.88579e-05
-2.88103e-05
-1.77603e-05
-1.71691e-05
-1.40505e-05
-1.56745e-05
-1.23613e-05
-1.19441e-05
-2.98653e-06
-1.09698e-05
-5.60511e-06
-1.03894e-05
-1.18934e-05
-4.46732e-06
-1.75078e-05
-1.40283e-05
-1.84028e-05
-5.497e-05
-7.25021e-07
4.94602e-05
-1.9193e-06
-3.90747e-06
-2.04321e-05
8.90701e-05
-2.44434e-05
6.79621e-05
-6.83704e-05
0.000106997
-8.71128e-05
4.86452e-05
-5.16741e-05
-1.49974e-05
-6.82e-05
-3.38394e-05
-4.40742e-05
-7.52937e-05
-3.57065e-05
-4.72255e-05
-2.64809e-05
-2.69858e-05
-2.45929e-05
-1.59386e-05
-1.52218e-05
-2.17324e-05
-1.71497e-05
-1.05861e-06
-1.24981e-05
-1.02567e-05
-8.54482e-06
-1.58467e-05
-4.73558e-06
-2.1317e-05
-1.87638e-05
-3.13578e-05
-2.36122e-05
-2.21615e-05
4.02639e-05
6.10295e-07
-2.66792e-05
-1.32298e-05
0.00010291
-5.7502e-05
0.000112234
-8.31288e-05
0.000132624
-5.45018e-05
2.00182e-05
-5.4505e-05
-1.49941e-05
-3.75581e-05
-5.07863e-05
-4.67958e-05
-6.6056e-05
-1.85364e-05
-7.54849e-05
-1.39437e-05
-3.15784e-05
-1.6743e-05
-1.31393e-05
-2.56379e-05
-1.28375e-05
-2.09263e-05
-5.77023e-06
-1.61559e-05
-1.50271e-05
-1.13454e-05
-2.06572e-05
-4.80107e-06
-2.78614e-05
-2.35649e-05
-3.7223e-05
1.36109e-05
-4.40616e-05
4.71024e-05
-3.45612e-06
-6.72846e-05
8.25601e-07
9.86285e-05
-3.83119e-05
0.000151372
-6.86761e-05
0.000162988
-9.06461e-05
4.19883e-05
-5.5571e-05
-5.00691e-05
-4.12975e-05
-6.50597e-05
-4.20493e-05
-6.53041e-05
-1.44211e-05
-0.000103113
-1.26082e-05
-3.33912e-05
-1.58271e-05
-9.92041e-06
-2.34547e-05
-5.20989e-06
-2.26162e-05
-6.60875e-06
-1.98974e-05
-1.77458e-05
-1.07892e-05
-2.97654e-05
-4.71515e-06
-3.39354e-05
-2.828e-05
-1.84943e-05
3.21053e-05
-1.39611e-05
4.25692e-05
-8.1895e-06
-7.30562e-05
-3.406e-06
9.38451e-05
-2.78298e-05
0.000175795
-3.8727e-05
0.000173885
-5.67434e-05
6.00047e-05
-4.06705e-05
-6.6142e-05
-5.97107e-05
-4.60196e-05
-2.72279e-05
-9.77869e-05
-9.51966e-06
-0.000120821
-1.0418e-05
-3.24929e-05
-1.50104e-05
-5.32795e-06
-2.3457e-05
3.2367e-06
-2.43002e-05
-5.7656e-06
-1.36128e-05
-2.84331e-05
-1.27642e-05
-3.0614e-05
-5.09204e-06
-4.16076e-05
-3.33721e-05
-3.01553e-06
3.51208e-05
-3.9643e-06
4.35179e-05
-1.82978e-05
-5.87227e-05
-9.80007e-06
8.53474e-05
1.8814e-06
0.000164114
1.49174e-05
0.000160849
-1.33337e-05
8.82557e-05
-1.65241e-05
-6.29516e-05
-5.76795e-06
-5.67757e-05
-9.79381e-06
-9.3761e-05
-5.36658e-06
-0.000125249
-7.3716e-06
-3.04878e-05
-1.51634e-05
2.46384e-06
-2.42583e-05
1.23316e-05
-1.4875e-05
-1.51489e-05
-2.40355e-05
-1.92726e-05
-1.44447e-05
-4.02047e-05
-4.54153e-06
-5.15107e-05
-3.79136e-05
7.46763e-06
-3.59281e-05
1.51997e-05
-3.84769e-05
2.08497e-05
-3.84617e-05
2.96946e-05
-3.57607e-05
3.47933e-05
-3.99258e-05
6.02747e-05
-4.97239e-05
7.01907e-05
-4.86471e-05
7.5914e-05
-5.4062e-05
8.25234e-05
-5.15988e-05
9.04787e-05
-4.57168e-05
0.000103442
-4.39266e-05
0.000112215
-3.42547e-05
0.000111111
-1.01462e-05
0.000114196
-9.77766e-06
0.0001161
-1.1371e-06
0.000115994
7.28481e-06
0.000109911
1.95408e-05
0.000109344
1.95308e-05
0.000106738
2.84602e-05
0.000124023
3.06977e-05
8.95924e-05
6e-05
0.000154925
5.23262e-05
0.000160254
0.00015945
6.97066e-06
-4.28988e-05
1.50332e-05
-4.65395e-05
2.09887e-05
-4.44172e-05
3.97318e-05
-5.45038e-05
4.90351e-05
-4.92291e-05
5.83645e-05
-5.90534e-05
6.56975e-05
-5.59801e-05
7.43062e-05
-6.26706e-05
8.64866e-05
-6.37793e-05
9.91252e-05
-5.83554e-05
0.00011509
-5.98913e-05
0.000125496
-4.46608e-05
0.000128421
-1.30708e-05
0.000129246
-1.06026e-05
0.000130495
-2.38655e-06
0.00013052
7.26033e-06
0.000132627
1.74336e-05
0.000131623
2.05348e-05
0.000118631
4.14515e-05
7.50463e-05
7.42827e-05
0.000106354
2.86921e-05
0.000113922
4.47585e-05
9.44648e-05
0.000179711
1.03259e-05
-5.32247e-05
2.00954e-05
-5.63089e-05
3.03106e-05
-5.46324e-05
3.82065e-05
-6.23997e-05
4.7038e-05
-5.80607e-05
5.364e-05
-6.56553e-05
6.4393e-05
-6.67331e-05
7.59338e-05
-7.42113e-05
8.79584e-05
-7.58039e-05
0.000108625
-7.90225e-05
0.000128415
-7.96813e-05
0.000139706
-5.59512e-05
0.000143948
-1.7313e-05
0.000149722
-1.6377e-05
0.000153209
-5.87365e-06
0.00015401
6.45944e-06
0.000150412
2.10318e-05
0.000140053
3.08944e-05
0.000137758
4.37459e-05
0.000145811
6.62298e-05
0.000107085
6.74177e-05
0.000118012
3.38322e-05
7.33156e-05
0.000139161
1.02166e-05
-6.34413e-05
1.90631e-05
-6.51555e-05
2.81047e-05
-6.3674e-05
3.46277e-05
-6.89227e-05
4.30445e-05
-6.64774e-05
5.07194e-05
-7.33302e-05
5.92203e-05
-7.5234e-05
7.07566e-05
-8.57477e-05
9.13389e-05
-9.63861e-05
0.000116836
-0.00010452
0.000135756
-9.86011e-05
0.000149192
-6.93869e-05
0.000158218
-2.63396e-05
0.000165885
-2.40432e-05
0.00017258
-1.25685e-05
0.000167804
1.1235e-05
0.00015748
3.13562e-05
0.000150547
3.78267e-05
0.000142143
5.215e-05
0.000149982
5.83912e-05
0.000178576
3.88233e-05
0.000181505
3.09039e-05
5.33957e-05
0.000201424
8.94158e-06
-7.23829e-05
1.72248e-05
-7.34387e-05
2.57297e-05
-7.21788e-05
3.27347e-05
-7.59277e-05
3.97979e-05
-7.35405e-05
4.47319e-05
-7.82643e-05
5.49046e-05
-8.54067e-05
7.19133e-05
-0.000102756
9.42575e-05
-0.00011873
0.000105441
-0.000115704
0.000102336
-9.54959e-05
0.000102532
-6.9583e-05
0.000102675
-2.64825e-05
9.93471e-05
-2.07153e-05
9.86155e-05
-1.18369e-05
9.60673e-05
1.37831e-05
0.000102455
2.49684e-05
0.000114618
2.56644e-05
0.000118809
4.79589e-05
0.000126659
5.05408e-05
9.38913e-05
7.15909e-05
0.000106503
1.82927e-05
-7.83578e-06
0.000167734
6.22836e-06
-7.86113e-05
1.17687e-05
-7.89791e-05
1.76084e-05
-7.80186e-05
2.0062e-05
-7.83813e-05
2.29296e-05
-7.64081e-05
2.54565e-05
-8.07912e-05
3.31756e-05
-9.31257e-05
4.31539e-05
-0.000112735
4.25631e-05
-0.000118139
3.4716e-05
-0.000107857
2.76545e-05
-8.84343e-05
3.11699e-05
-7.30984e-05
4.22313e-05
-3.75439e-05
6.13814e-05
-3.98654e-05
8.32194e-05
-3.36749e-05
8.86867e-05
8.31577e-06
6.51563e-05
4.84988e-05
3.80899e-05
5.27309e-05
4.01499e-05
4.5899e-05
6.86107e-05
2.20799e-05
0.000117448
2.27539e-05
0.000204862
-6.91218e-05
5.28444e-06
0.000191742
8.47316e-07
-7.94586e-05
1.71131e-06
-7.98431e-05
2.82045e-06
-7.91277e-05
4.34133e-06
-7.99022e-05
7.07916e-06
-7.91459e-05
9.92321e-06
-8.36353e-05
1.28639e-05
-9.60664e-05
1.47024e-05
-0.000114573
1.76483e-05
-0.000121085
1.6987e-05
-0.000107195
1.49012e-05
-8.63486e-05
2.32233e-05
-8.14205e-05
3.85771e-05
-5.28977e-05
6.31005e-05
-6.43888e-05
5.04336e-05
-2.1008e-05
5.55079e-05
3.24147e-06
4.34166e-05
6.05901e-05
5.04848e-05
4.56626e-05
2.98045e-05
6.65793e-05
4.82904e-05
3.59405e-06
7.32465e-05
-2.20216e-06
3.42001e-05
-3.00755e-05
-3.11548e-05
7.06394e-05
6.58496e-07
-8.01171e-05
1.28235e-06
-8.04669e-05
2.84378e-06
-8.06891e-05
4.64045e-06
-8.16988e-05
6.73186e-06
-8.12373e-05
9.82054e-06
-8.6724e-05
9.04557e-06
-9.52914e-05
6.97536e-06
-0.000112503
7.73289e-06
-0.000121843
4.90054e-06
-0.000104363
2.3075e-06
-8.37555e-05
1.5898e-05
-9.5011e-05
3.29369e-05
-6.99366e-05
3.76692e-05
-6.91211e-05
6.29321e-05
-4.62709e-05
6.54884e-05
6.85208e-07
0.000103521
2.25571e-05
5.15936e-05
9.75904e-05
4.33367e-05
7.48362e-05
1.64241e-05
3.05067e-05
-1.85621e-06
1.60781e-05
-2.18603e-05
-1.00714e-05
-5.41594e-05
1.14423e-06
8.86873e-07
-8.1004e-05
1.49756e-06
-8.10776e-05
2.96601e-06
-8.21576e-05
5.12514e-06
-8.3858e-05
6.59194e-06
-8.27041e-05
9.88664e-06
-9.00187e-05
7.22798e-06
-9.26328e-05
-2.42845e-06
-0.000102847
-1.25924e-05
-0.000111679
-2.23526e-05
-9.46028e-05
-1.50744e-05
-9.10338e-05
-7.30271e-06
-0.000102783
1.69675e-06
-7.8936e-05
-2.75804e-06
-6.46664e-05
1.58396e-05
-6.48685e-05
2.45722e-05
-8.04743e-06
3.36196e-05
1.35097e-05
5.03907e-05
8.08193e-05
6.74366e-05
5.77903e-05
7.32846e-05
2.46586e-05
8.08715e-05
8.49133e-06
0.000105578
-3.47782e-05
-1.12792e-05
6.26981e-05
2.35408e-06
-8.3358e-05
-1.13268e-06
-7.75909e-05
-1.38528e-06
-8.1905e-05
-1.5409e-06
-8.37023e-05
-3.5744e-06
-8.06706e-05
4.24126e-06
-9.78343e-05
8.06449e-06
-9.6456e-05
-1.26883e-06
-9.35133e-05
-1.72601e-05
-9.56877e-05
-1.97803e-05
-9.20826e-05
-1.59881e-05
-9.4826e-05
-2.53448e-05
-9.34261e-05
-3.61431e-05
-6.81378e-05
-2.93061e-05
-7.15033e-05
-5.83203e-05
-3.58544e-05
-5.94839e-05
-6.88385e-06
-3.35091e-05
-1.24651e-05
2.7156e-05
2.01542e-05
6.37024e-05
2.12439e-05
9.13511e-05
-2.99002e-06
0.000121308
-2.14656e-05
8.34939e-05
3.03597e-06
-2.95086e-05
0.000101723
2.08619e-06
-8.54442e-05
-5.96602e-06
-6.95386e-05
-5.40242e-06
-8.24685e-05
-3.76057e-06
-8.53442e-05
-2.68238e-06
-8.17488e-05
1.34433e-05
-0.00011396
2.75116e-05
-0.000110524
2.59948e-05
-9.19965e-05
2.33001e-05
-9.2993e-05
-1.10167e-05
-5.77658e-05
-3.57351e-05
-7.01076e-05
-2.32963e-05
-0.000105865
-3.65554e-05
-5.48787e-05
-4.11066e-05
-6.69522e-05
-3.90393e-05
-3.79216e-05
-2.54371e-05
-2.04861e-05
6.07841e-06
-4.39806e-05
5.66689e-05
-3.04363e-05
8.03036e-05
-2.39089e-06
0.000111163
-3.38498e-05
9.4386e-05
-4.68815e-06
0.000151936
-5.45143e-05
-4.47588e-05
0.000167186
5.5797e-06
-9.10239e-05
-2.4697e-06
-6.14892e-05
3.84187e-06
-8.87801e-05
7.26004e-06
-8.87623e-05
1.54377e-05
-8.99265e-05
2.81187e-05
-0.000126641
3.73456e-05
-0.000119751
4.5261e-05
-9.9912e-05
1.08223e-05
-5.85543e-05
9.72522e-06
-5.66687e-05
9.31605e-06
-6.96985e-05
7.31132e-06
-0.00010386
1.40879e-06
-4.89762e-05
4.24114e-06
-6.97845e-05
5.17276e-06
-3.88532e-05
2.24479e-05
-3.77613e-05
2.55896e-05
-4.71222e-05
3.10304e-05
-3.58771e-05
7.23836e-05
-4.37441e-05
7.30489e-05
-3.4515e-05
0.000127021
-5.86599e-05
0.00013451
-6.20037e-05
-1.07322e-05
0.000100483
-9.34653e-06
-8.16774e-05
-1.96317e-06
-6.88726e-05
1.74681e-05
-0.000108211
1.77559e-05
-8.90501e-05
3.11712e-05
-0.000103342
3.00769e-05
-0.000125547
4.51903e-05
-0.000134865
1.31043e-05
-6.7826e-05
1.67119e-05
-6.2162e-05
2.0364e-05
-6.03209e-05
7.77522e-06
-5.71097e-05
1.53517e-05
-0.000111437
1.17947e-05
-4.54192e-05
-1.15435e-05
-4.64463e-05
-4.27646e-06
-4.61203e-05
3.76823e-05
-7.97201e-05
5.03575e-05
-5.97974e-05
6.02606e-05
-4.57802e-05
4.78712e-05
-3.13547e-05
7.07699e-05
-5.74138e-05
8.67539e-05
-7.46439e-05
8.52565e-05
-6.05064e-05
-4.94111e-05
0.000123935
3.07769e-05
-0.000112454
3.9888e-05
-7.79836e-05
2.81914e-05
-9.65147e-05
1.3539e-05
-7.43978e-05
3.34436e-07
-9.01372e-05
1.77096e-05
-0.000142922
-1.49638e-05
-0.000102191
-3.9279e-06
-7.88619e-05
5.17382e-06
-7.12637e-05
1.71369e-05
-7.2284e-05
2.28934e-05
-6.28662e-05
-1.16121e-05
-7.69311e-05
-4.03937e-06
-5.29919e-05
8.39711e-06
-5.88828e-05
1.50284e-05
-5.27516e-05
4.19215e-05
-0.000106613
4.4104e-05
-6.19799e-05
5.44508e-05
-5.6127e-05
9.35333e-05
-7.04372e-05
0.000130509
-9.43893e-05
0.000151728
-9.58629e-05
0.0001536
-6.23788e-05
-4.63734e-05
0.000150563
-2.56605e-05
-8.67937e-05
1.15706e-06
-0.000104801
1.3717e-05
-0.000109075
2.93501e-05
-9.00309e-05
3.64839e-05
-9.72709e-05
-3.09415e-06
-0.000103344
-4.88139e-06
-0.000100404
-6.99393e-07
-8.30439e-05
1.21596e-06
-7.3179e-05
3.15751e-06
-7.42255e-05
1.14718e-05
-7.11805e-05
1.3515e-05
-7.89743e-05
2.25496e-05
-6.20265e-05
2.95747e-05
-6.59079e-05
4.02586e-05
-6.34356e-05
9.60203e-06
-7.59566e-05
6.30845e-05
-0.000115462
5.51709e-05
-4.82133e-05
6.45725e-05
-7.98388e-05
8.08687e-05
-0.000110685
9.78441e-05
-0.000112838
9.51241e-05
-5.96589e-05
-0.000112427
0.000161177
2.55149e-06
-8.93452e-05
1.36384e-05
-0.000115888
1.52869e-05
-0.000110723
1.7893e-05
-9.2637e-05
1.75623e-05
-9.69402e-05
1.35132e-05
-9.92948e-05
6.75477e-06
-9.36455e-05
5.58264e-06
-8.18718e-05
4.81077e-06
-7.24072e-05
7.37495e-06
-7.67897e-05
1.54507e-05
-7.92562e-05
1.53778e-05
-7.89015e-05
2.35432e-05
-7.01919e-05
2.62159e-05
-6.85806e-05
3.83609e-05
-7.55806e-05
3.67917e-05
-7.43874e-05
7.31204e-05
-0.000151791
7.14402e-05
-4.65331e-05
0.000113523
-0.000121921
0.000101371
-9.85341e-05
0.000110991
-0.000122458
0.000157972
-0.00010664
-0.000102177
0.000147723
3.48246e-05
-0.00012417
2.83814e-05
-0.000109445
1.80115e-05
-0.000100353
1.5382e-05
-9.00075e-05
1.82586e-05
-9.98167e-05
1.02461e-05
-9.12823e-05
7.4853e-06
-9.08847e-05
5.79822e-06
-8.01847e-05
5.6537e-06
-7.22627e-05
8.60558e-06
-7.97416e-05
1.55179e-05
-8.61686e-05
1.79094e-05
-8.1293e-05
1.56646e-05
-6.79471e-05
1.61401e-05
-6.90562e-05
8.72085e-05
-0.000146649
0.000103741
-9.09199e-05
5.6108e-05
-0.000104158
0.000102265
-9.26903e-05
0.000138473
-0.000158129
0.000181413
-0.000141474
0.000197043
-0.000138088
0.000172225
-8.18213e-05
-0.000112588
0.000182635
-2.9634e-05
-9.45358e-05
8.81249e-06
-0.000147891
4.02845e-05
-0.000131825
3.08212e-05
-8.05442e-05
1.5986e-05
-8.49816e-05
1.1722e-05
-8.70183e-05
1.01282e-05
-8.92908e-05
1.55585e-06
-7.16124e-05
4.55339e-06
-7.52602e-05
1.11706e-05
-8.63589e-05
1.70342e-05
-9.20321e-05
1.99422e-05
-8.4201e-05
2.01376e-05
-6.81425e-05
2.95406e-05
-7.84592e-05
5.26861e-05
-0.000169794
5.86545e-05
-9.68883e-05
4.73012e-05
-9.28048e-05
0.000122895
-0.000168284
0.000100271
-0.000135505
0.000114634
-0.000155838
0.000120509
-0.000143963
0.000203797
-0.000165109
-0.000109979
0.000201188
-4.33297e-06
-9.02029e-05
-5.96512e-06
-0.000146259
-8.76097e-06
-0.000129029
-2.09972e-05
-6.8308e-05
1.92255e-05
-0.000125204
2.45801e-06
-7.02508e-05
-3.81228e-06
-8.30206e-05
2.29683e-05
-9.83929e-05
1.55855e-05
-6.78774e-05
2.34e-05
-9.41734e-05
2.69467e-05
-9.55788e-05
1.72659e-05
-7.45203e-05
2.61902e-05
-7.70668e-05
3.4541e-05
-8.681e-05
3.40508e-05
-0.000169304
0.000102315
-0.000165152
0.000149859
-0.000140349
0.000152191
-0.000170616
0.000168897
-0.000152211
0.000181053
-0.000167993
0.000184632
-0.000147543
0.000116382
-9.68591e-05
-0.000101427
0.00010783
-1.09505e-05
-7.92523e-05
-7.59045e-06
-0.000149619
-6.52414e-06
-0.000130096
5.70527e-06
-8.05374e-05
2.65259e-06
-0.000122152
1.61332e-05
-8.37315e-05
4.27435e-06
-7.11617e-05
-1.1597e-05
-8.25216e-05
1.68405e-05
-9.63149e-05
1.55167e-05
-9.28497e-05
1.21171e-06
-8.12738e-05
2.24347e-05
-9.57432e-05
1.34471e-05
-6.80792e-05
6.65658e-05
-0.000139929
5.30092e-05
-0.000155748
5.93032e-05
-0.000171446
7.32222e-05
-0.000154268
8.21399e-05
-0.000179534
9.7363e-05
-0.000167434
0.000115177
-0.000185807
0.00012429
-0.000156655
0.000125143
-9.77117e-05
-0.000147844
0.00017156
-4.65383e-06
-7.45985e-05
-7.53762e-06
-0.000146735
-1.74053e-05
-0.000120228
-1.91355e-06
-9.60292e-05
-1.09866e-05
-0.000113078
-2.71021e-06
-9.20079e-05
9.60914e-06
-8.3481e-05
3.0177e-06
-7.59302e-05
-1.30782e-05
-8.0219e-05
3.23331e-05
-0.000138261
4.58154e-05
-9.47561e-05
1.86219e-05
-6.85497e-05
4.64524e-05
-9.59097e-05
4.1833e-05
-0.000135309
5.36435e-05
-0.000167558
5.96612e-05
-0.000177464
7.49225e-05
-0.000169529
8.50826e-05
-0.000189694
9.57512e-05
-0.000178103
0.000110073
-0.000200129
0.000107316
-0.000153899
0.000112597
-0.000102992
-0.000154067
0.000118819
-1.55608e-05
-5.90377e-05
-2.45222e-06
-0.000159844
7.47129e-06
-0.000130151
-1.61434e-06
-8.69436e-05
1.18694e-05
-0.000126562
1.18244e-06
-8.1321e-05
1.41814e-05
-9.648e-05
1.76381e-06
-6.35125e-05
1.29674e-05
-9.14227e-05
1.63171e-05
-0.000141611
1.83596e-05
-9.67985e-05
3.28613e-05
-8.30515e-05
4.97659e-05
-0.000112814
7.66302e-05
-0.000162174
0.000101244
-0.000192172
0.000111115
-0.000187335
0.00012686
-0.000185274
0.00013817
-0.000201004
0.000149903
-0.000189836
0.000126184
-0.00017641
0.000122316
-0.000150031
0.000184732
-0.000165407
-0.000163424
0.000194089
3.89411e-05
-9.79788e-05
-2.17981e-06
-0.000118723
-2.03119e-05
-0.000112019
-4.44609e-07
-0.000106811
-1.35539e-05
-0.000113453
1.6028e-06
-9.64777e-05
4.002e-06
-9.88792e-05
2.488e-05
-8.43905e-05
1.46526e-05
-8.11952e-05
4.07717e-05
-0.00016773
1.99388e-05
-7.59656e-05
1.9069e-06
-6.50196e-05
3.82166e-05
-0.000149124
4.28991e-05
-0.000166856
5.25833e-05
-0.000201856
6.33745e-05
-0.000198127
8.1009e-05
-0.000202908
9.82513e-05
-0.000218246
0.000160604
-0.000252189
0.000187699
-0.000203504
0.000124788
-8.71206e-05
0.00019191
-0.000232529
-0.000101871
0.000130357
4.4981e-06
-0.000102477
2.27913e-06
-0.000116504
4.27518e-06
-0.000114015
6.07642e-06
-0.000108612
5.64816e-06
-0.000113025
1.13759e-05
-0.000102205
1.94821e-05
-0.000106985
3.20926e-05
-9.70011e-05
5.87838e-05
-0.000107886
1.07383e-05
-0.000119684
3.32685e-05
-9.84959e-05
6.7055e-05
-9.88061e-05
3.13025e-05
-0.000113372
7.22704e-05
-0.000207824
0.000108783
-0.000238369
5.92828e-05
-0.000148626
0.000112953
-0.000256578
0.000138723
-0.000244016
0.000166392
-0.000279858
0.0001116
-0.000148712
0.000179995
-0.000155516
9.37588e-05
-0.000146292
-0.00011987
0.000111757
4.3135e-06
-0.00010679
2.12902e-06
-0.00011432
1.70674e-06
-0.000113593
5.84697e-06
-0.000112752
3.82198e-06
-0.000111
1.00844e-05
-0.000108468
1.24262e-05
-0.000109327
2.37237e-05
-0.000108299
2.80232e-05
-0.000112186
2.20885e-05
-0.00011375
3.35367e-05
-0.000109944
4.33517e-05
-0.000108621
3.86826e-05
-0.000108702
6.38173e-05
-0.000232959
7.86077e-05
-0.000253159
6.96356e-05
-0.000139654
8.00348e-05
-0.000266978
0.000121952
-0.000285934
0.000123864
-0.000281769
0.000108177
-0.000133025
0.000113651
-0.000160991
0.00011592
-0.000148561
-0.000137745
0.000133796
3.68268e-06
-0.000110473
6.88089e-06
-0.000117518
1.05393e-05
-0.000117252
1.42224e-05
-0.000116435
1.77561e-05
-0.000114533
2.35704e-05
-0.000114282
2.82127e-05
-0.00011397
3.44698e-05
-0.000114556
3.67828e-05
-0.000114499
3.68859e-05
-0.000113853
4.21681e-05
-0.000115226
4.98666e-05
-0.00011632
5.44042e-05
-0.00011324
6.23799e-05
-0.000240935
7.52614e-05
-0.000266041
6.79753e-05
-0.000132368
7.23664e-05
-0.000271369
6.72536e-05
-0.000280821
7.44643e-05
-0.00028898
9.37872e-05
-0.000152348
0.000102873
-0.000170076
0.000110729
-0.000156418
-0.000150628
0.000123612
3.4024e-06
-0.000113875
6.29265e-06
-0.000120408
9.28149e-06
-0.00012024
1.22331e-05
-0.000119387
1.58039e-05
-0.000118104
2.01613e-05
-0.00011864
2.40829e-05
-0.000117891
2.83587e-05
-0.000118831
3.28694e-05
-0.00011901
3.84102e-05
-0.000119394
4.16242e-05
-0.00011844
4.62513e-05
-0.000120947
5.24119e-05
-0.000119401
5.93697e-05
-0.000247892
5.21055e-05
-0.000258777
6.67903e-05
-0.000147053
7.93844e-05
-0.000283963
9.08388e-05
-0.000292276
8.39754e-05
-0.000282117
9.03135e-05
-0.000158686
0.000109034
-0.000188797
0.000120375
-0.000167758
-0.000161045
0.000130791
2.94126e-06
-0.000116817
4.53931e-06
-0.000122006
7.55302e-06
-0.000123254
1.04044e-05
-0.000122238
1.75625e-05
-0.000125262
2.15803e-05
-0.000122657
2.70169e-05
-0.000123328
3.11816e-05
-0.000122996
3.50101e-05
-0.000122838
3.8107e-05
-0.000122491
4.22342e-05
-0.000122567
4.63336e-05
-0.000125046
4.90236e-05
-0.000122091
5.45341e-05
-0.000253403
4.93761e-05
-0.000253619
0.000163506
-0.000261183
7.29852e-05
-0.000193442
8.18858e-05
-0.000301176
8.86043e-05
-0.000288835
0.000116657
-0.000186739
0.000112114
-0.000184253
0.000127299
-0.000182943
-0.000168296
0.00013455
3.74371e-06
-0.00012056
7.28608e-06
-0.000125548
1.071e-05
-0.000126678
1.50095e-05
-0.000126538
1.79822e-05
-0.000128235
2.23588e-05
-0.000127034
2.59173e-05
-0.000126886
2.97344e-05
-0.000126813
3.39067e-05
-0.000127011
3.87935e-05
-0.000127377
4.42472e-05
-0.000128021
5.04239e-05
-0.000131223
5.68458e-05
-0.000128513
6.4984e-05
-0.000261541
7.6074e-05
-0.000264709
0.000103186
-0.000288295
8.52706e-05
-0.000175526
9.99428e-05
-0.000315848
8.45492e-06
-0.000197347
0.000126921
-0.000305205
0.000118984
-0.000176316
0.000126989
-0.000190949
-0.000175527
0.000134221
4.27578e-06
-0.000124836
8.88283e-06
-0.000130155
1.27988e-05
-0.000130594
1.68003e-05
-0.00013054
1.9323e-05
-0.000130757
2.27509e-05
-0.000130462
2.6329e-05
-0.000130464
3.02218e-05
-0.000130706
3.42896e-05
-0.000131078
3.76466e-05
-0.000130734
4.23684e-05
-0.000132743
4.5589e-05
-0.000134444
5.04935e-05
-0.000133417
5.69766e-05
-0.000268024
6.67067e-05
-0.000274439
6.14151e-05
-0.000283004
0.000166975
-0.000281086
4.66446e-05
-0.000195518
5.14797e-05
-0.000202182
5.55837e-05
-0.000309309
0.000168619
-0.000289352
0.000140517
-0.000162846
-0.000190713
0.000155702
4.13383e-06
-0.00012897
7.81479e-06
-0.000133836
1.13961e-05
-0.000134175
1.51673e-05
-0.000134311
1.8677e-05
-0.000134267
2.27885e-05
-0.000134573
2.63785e-05
-0.000134054
3.01126e-05
-0.00013444
3.36386e-05
-0.000134604
3.6681e-05
-0.000133777
4.08976e-05
-0.000136959
4.1041e-05
-0.000134587
4.52739e-05
-0.00013765
3.98084e-05
-0.000262559
4.67686e-05
-0.000281399
5.33822e-05
-0.000289617
8.59304e-05
-0.000313634
9.44949e-05
-0.000204082
6.67022e-05
-0.00017439
7.39194e-05
-0.000316526
8.32774e-05
-0.00029871
0.00010503
-0.000184599
-0.000204616
0.000118934
4.36029e-06
-0.00013333
8.37831e-06
-0.000137854
1.20468e-05
-0.000137844
1.58254e-05
-0.000138089
1.93515e-05
-0.000137793
2.29162e-05
-0.000138138
2.64559e-05
-0.000137594
3.0185e-05
-0.000138169
3.33109e-05
-0.00013773
3.67117e-05
-0.000137178
4.00169e-05
-0.000140265
4.15452e-05
-0.000136115
4.61138e-05
-0.000142219
4.18431e-05
-0.000258288
4.47335e-05
-0.000284289
7.12412e-05
-0.000316125
8.35681e-05
-0.000325961
7.12979e-05
-0.000191812
7.93381e-05
-0.00018243
0.000107259
-0.000344447
0.000109731
-0.000301182
0.000110246
-0.000185113
-0.000212424
0.000118054
4.10027e-06
-0.000137431
7.65894e-06
-0.000141413
1.12375e-05
-0.000141422
1.48581e-05
-0.00014171
1.85646e-05
-0.0001415
2.23969e-05
-0.00014197
2.59913e-05
-0.000141188
3.0091e-05
-0.000142269
3.34087e-05
-0.000141048
3.76757e-05
-0.000141445
4.12475e-05
-0.000143836
4.69132e-05
-0.000141781
5.18999e-05
-0.000147206
6.0573e-05
-0.000266961
6.57562e-05
-0.000289473
5.91598e-05
-0.000309528
3.89855e-05
-0.000305787
0.000157716
-0.000310543
0.000177778
-0.000202491
6.02036e-05
-0.000226873
7.44994e-05
-0.000315478
7.13782e-05
-0.000181992
-0.000340735
0.000199688
4.18894e-06
-0.00014162
7.73159e-06
-0.000144956
1.12376e-05
-0.000144928
1.45978e-05
-0.00014507
1.80452e-05
-0.000144947
2.16573e-05
-0.000145582
2.49303e-05
-0.000144461
2.86082e-05
-0.000145947
3.12768e-05
-0.000143717
3.50387e-05
-0.000145207
3.52804e-05
-0.000144078
4.10897e-05
-0.00014759
3.33732e-05
-0.000139489
3.35178e-05
-0.000267105
3.82837e-05
-0.000294238
4.17983e-05
-0.000313043
6.57002e-05
-0.000329689
9.01103e-05
-0.000334953
0.000106134
-0.000218515
8.24614e-05
-0.0002032
0.00011333
-0.000346346
0.000138876
-0.000207539
-0.000348725
0.000146867
3.73117e-06
-0.000145351
6.95374e-06
-0.000148178
1.03162e-05
-0.000148291
1.36794e-05
-0.000148433
1.74621e-05
-0.00014873
2.08753e-05
-0.000148996
2.48342e-05
-0.00014842
2.85437e-05
-0.000149656
3.26088e-05
-0.000147782
3.68497e-05
-0.000149447
3.8266e-05
-0.000145494
4.41052e-05
-0.000153429
3.65929e-05
-0.000131977
3.35293e-05
-0.000264042
4.70344e-05
-0.000307744
5.00451e-05
-0.000316054
4.7494e-05
-0.000327138
3.61224e-05
-0.000323582
0.000137744
-0.000320136
8.83407e-05
-0.000153797
7.11176e-05
-0.000329123
7.81636e-05
-0.000214585
-0.00037378
0.000103219
3.45994e-06
-0.000148811
6.4377e-06
-0.000151156
9.56813e-06
-0.000151421
1.26397e-05
-0.000151505
1.58078e-05
-0.000151898
1.90303e-05
-0.000152218
2.26224e-05
-0.000152013
2.63685e-05
-0.000153403
3.08262e-05
-0.000152239
3.49449e-05
-0.000153566
3.9344e-05
-0.000149893
3.51732e-05
-0.000149259
3.77223e-05
-0.000134526
4.91409e-05
-0.00027546
4.53758e-05
-0.000303978
4.90386e-05
-0.000319717
3.78382e-05
-0.000315937
5.24854e-05
-0.000338229
8.22816e-05
-0.000349933
0.00012182
-0.000193335
3.31624e-05
-0.000240465
0.000144445
-0.000325867
-0.000267662
3.83264e-05
3.05256e-06
-0.000151863
5.68174e-06
-0.000153785
8.51065e-06
-0.00015425
1.14498e-05
-0.000154444
1.49212e-05
-0.000155369
1.83398e-05
-0.000155637
2.28179e-05
-0.000156491
2.70683e-05
-0.000157653
3.21087e-05
-0.00015728
3.56989e-05
-0.000157156
3.9511e-05
-0.000153706
3.53987e-05
-0.000145146
3.55842e-05
-0.000134711
4.65728e-05
-0.000286449
3.75599e-05
-0.000294966
2.82929e-05
-0.00031045
3.14526e-05
-0.000319097
3.565e-05
-0.000342426
6.93977e-05
-0.00038368