/*--------------------------------*- C++ -*----------------------------------*\
| =========                 |                                                 |
| \\      /  F ield         | foam-extend: Open Source CFD                    |
|  \\    /   O peration     | Version:     4.1                                |
|   \\  /    A nd           | Web:         http://www.foam-extend.org         |
|    \\/     M anipulation  |                                                 |
\*---------------------------------------------------------------------------*/
FoamFile
{
    version     2.0;
    format      ascii;
    class       volScalarField;
    location    "0.3";
    object      psi;
}
// * * * * * * * * * * * * * * * * * * * * * * * * * * * * * * * * * * * * * //

dimensions      [1 -1 -2 0 0 0 0];

internalField   nonuniform List<scalar> 
2268
(
-0.000162
-0.000163027
-0.000172175
-0.000205317
-0.00023808
-0.000312344
-0.000400815
-0.000327423
-0.000101512
-0.000164184
-0.00037447
-0.000527987
-0.000499392
-0.000880207
-0.00146095
-0.002257
-0.0029873
-0.00335756
-0.00349142
-0.00272202
0.0205749
0.0171036
-0.082398
-0.000206738
-0.000197686
-0.000196823
-0.00024584
-0.000258711
-0.000312737
-0.00026135
0.000140605
0.000567866
0.000521859
0.000501531
0.0010529
0.00157223
0.00111195
-2.97888e-05
-0.00146314
-0.00297351
-0.00362102
-0.00361687
-0.00220056
0.0190274
0.0178647
-0.0807034
6.84644e-06
5.67391e-05
9.93976e-05
7.1562e-05
0.000168686
0.000266043
0.00079188
0.00178374
0.00232599
0.00208465
0.00274287
0.00504762
0.00677958
0.00673466
0.00550465
0.00354958
0.000818577
-0.000575275
-0.00178586
-0.000774621
0.0162608
0.0202834
-0.0812355
0.000920918
0.00105097
0.00116343
0.00131908
0.00160044
0.00211519
0.00344363
0.00544627
0.00464719
0.00440055
0.0075573
0.0117133
0.0154502
0.0163223
0.0168665
0.0167946
0.0122526
0.00877428
0.00461839
0.00458694
0.016637
0.0213625
-0.0809102
0.00333166
0.00356511
0.00377256
0.00449124
0.00499553
0.00654277
0.00889548
0.0114877
0.00552617
0.00702021
0.0136205
0.017984
0.023828
0.0266767
0.0335156
0.038568
0.0350562
0.0290343
0.0206986
0.0159323
0.0214883
0.0238609
-0.0820813
0.00786651
0.00799656
0.0081968
0.0101971
0.0105396
0.0139366
0.0172649
0.0149508
0.00356099
0.00806377
0.0183432
0.0158033
0.0163658
0.0285729
0.0469383
0.0623554
0.0644469
0.0591619
0.0483597
0.0353781
0.0350219
0.0286749
-0.085131
0.0136269
0.0128844
0.0129902
0.0170992
0.0160684
0.0220285
0.0232191
0.00467546
-0.00762321
0.00144951
0.0175702
-0.0126069
-0.0250987
-0.00118712
0.0325851
0.0645888
0.0835902
0.0935078
0.0837215
0.0596833
0.0568671
0.0326615
-0.0918159
0.0137529
0.0101845
0.0104806
0.0157712
0.0106932
0.0161548
0.00569928
-0.02801
-0.04376
-0.0282929
-0.00860119
-0.0985098
-0.131641
-0.107554
-0.0600147
-0.00575278
0.0410931
0.081761
0.0969392
0.0874148
0.0844225
0.0480744
-0.0867016
-0.011651
0.0118746
0.065171
0.0326608
0.00206892
0.000102216
0.0012479
0.00110017
-0.000144339
-0.000233991
-0.000111097
-1.11518e-05
5.52724e-06
1.86525e-06
2.29039e-07
5.85224e-08
-3.19673e-08
-3.83284e-08
-7.17225e-09
-0.324519
-0.1061
0.015781
0.0390475
0.00450425
-0.00032003
0.000360966
0.00329293
0.00147795
0.000281907
-8.56158e-05
-5.59851e-05
-3.01361e-06
3.25936e-06
1.19595e-06
5.44661e-07
2.5738e-07
8.53602e-09
-2.7595e-08
-0.675983
-0.250031
-0.149736
0.0410362
0.0104585
-0.00340136
-0.00572796
0.00394904
0.00381634
0.00170492
0.000387856
-6.34646e-05
-2.69316e-05
3.79215e-08
7.75209e-07
3.52292e-07
7.16226e-07
2.92392e-07
-1.22774e-08
-0.828142
-0.440681
-0.435995
0.0351218
0.017637
-0.00978447
-0.0178395
-0.010583
0.00361722
0.00274495
0.00156307
0.000160545
-5.54766e-05
-1.75521e-05
-6.05701e-06
-3.9718e-06
-4.25866e-07
7.37324e-07
1.89998e-07
-1.10381
-0.776991
-0.741693
-0.0314495
0.0282912
-0.0161677
-0.0298513
-0.0441094
-0.0118928
-0.00211391
0.00200899
0.00085761
-2.46232e-05
-5.12609e-05
-1.89261e-05
-1.34778e-05
-7.62875e-06
-3.91661e-07
6.64965e-07
-1.81425
-1.12857
-0.584309
-0.233541
0.0583488
-0.00155401
-0.0127939
-0.0974229
-0.0589131
-0.0255429
-0.00368907
0.00157907
0.000197664
-5.37665e-05
-1.5443e-06
-1.64685e-06
-1.73496e-05
-7.41403e-06
4.11393e-07
-3.2686
-2.39393
0.235121
-0.696171
0.120639
0.0787258
0.0795737
-0.108037
-0.146719
-0.0773878
-0.0250832
-5.08319e-05
0.000668636
0.000123536
0.00013855
0.000104929
1.70617e-05
-1.82216e-05
-3.72059e-06
-4.43717
-3.37555
1.01535
-1.5453
0.0789991
0.0294252
0.208863
0.0422211
-0.211472
-0.125031
-0.0616445
-0.00847516
0.000990142
0.000658005
0.000430755
0.000305363
0.000204731
9.66031e-06
-1.49948e-05
-0.020677
-0.0347481
-0.0319986
-0.0372381
-0.0482546
-0.0781446
-0.102961
-0.159593
-0.182452
-0.155168
-0.14863
-0.383684
-0.427308
-0.444613
-0.437887
-0.30598
-0.218467
-0.117028
-0.0266666
0.0451874
0.0903136
0.0880421
-0.0207977
-0.135859
-0.185708
-0.16307
-0.265502
-0.235558
-0.353107
-0.386659
-0.491626
-0.513986
-0.434613
-0.443134
-0.917653
-0.87433
-0.928306
-0.943846
-0.876977
-0.584565
-0.511923
-0.332888
0.132042
0.295701
0.306753
0.14501
-0.608499
-0.72171
-0.649423
-0.892361
-0.796369
-1.03354
-1.07269
-1.17455
-1.1083
-0.96986
-0.982759
-1.43926
-0.990039
-1.00983
-0.884329
-1.53902
-1.11954
-1.23532
-1.05109
0.148134
0.231549
0.328068
0.687866
-1.09847
-1.24083
-1.06809
-1.36038
-1.17695
-1.48757
-1.33987
-1.24005
-1.02535
-0.830068
-0.592414
-0.644151
0.503433
0.680162
0.830374
0.31914
0.556074
0.190399
-0.432136
-0.610483
-0.394281
-1.87067
-0.824455
-0.0271537
-0.125153
0.124642
-0.14366
0.143166
-0.0343113
0.361901
0.558618
0.782506
1.10892
1.01131
0.478887
1.19755
0.773897
0.359748
0.36788
0.752481
0.778295
0.891935
0.648358
0.570433
1.1672
0.291486
1.09511
1.06357
1.17113
1.0854
1.28192
1.36747
1.62011
1.44562
1.30443
1.01534
0.289742
-0.152239
0.305027
0.232272
0.307095
0.516292
0.633237
0.565268
0.666242
0.687272
2.87159
0.195019
-0.250642
0.641723
0.641777
0.666065
0.665881
0.770935
0.902321
1.03156
0.868859
0.730748
0.476839
0.0850484
-0.084647
0.145068
0.154226
0.278695
0.376701
0.478733
0.288483
0.119088
-0.203176
0.278063
-0.466019
-0.371394
0.263675
0.265924
0.2607
0.253729
0.274141
0.32156
0.383319
0.352083
0.269992
0.13831
-0.00217741
-0.0257716
0.0675094
0.0880669
0.169904
0.211256
0.233815
0.155149
0.0188468
-0.161554
-0.116841
-0.160987
-0.176647
0.0688795
0.072746
0.0649229
0.0550085
0.0488582
0.0440768
0.0674013
0.0837113
0.0600951
0.0143342
-0.0196937
-0.0100462
0.0201333
0.0319254
0.0419569
0.0733675
0.0341716
0.0191303
-0.020977
-0.049194
-0.0459483
-0.0339835
-0.0425478
0.000336453
0.00491032
0.000340001
-0.00484538
-0.00955007
-0.0193821
-0.0159193
-0.00313695
-0.00174264
-0.00797645
-0.0164164
-0.011182
-0.00253418
-0.0040233
-0.00964543
-0.0113614
-0.0329112
-0.028372
-0.0279794
-0.0205641
-0.0178706
-0.00997326
-0.00355613
-0.0108059
-0.00957787
-0.0111444
-0.0125833
-0.0128663
-0.0140212
-0.0148593
-0.0141604
-0.0136991
-0.0116951
-0.0148472
-0.012723
-0.0105667
-0.0123833
-0.0167094
-0.0221414
-0.0219227
-0.0191914
-0.0173175
-0.0126694
-0.00938028
-0.00518323
-0.00260462
-0.00827293
-0.00951722
-0.0094859
-0.0102075
-0.0106487
-0.00775599
-0.00818302
-0.0108011
-0.0136741
-0.013606
-0.0152307
-0.0129401
-0.011935
-0.011879
-0.0136438
-0.0128958
-0.00988133
-0.00785095
-0.00687813
-0.00489541
-0.00335626
-0.00151447
-0.00117497
-0.00362561
-0.00647232
-0.00441673
-0.00500123
-0.00326438
-0.000181218
0.000390957
-0.00110502
-0.00585949
-0.00857104
-0.00973031
-0.0056821
-0.0106251
-0.0106134
-0.0096315
-0.00498213
-0.00416194
-0.00360005
-0.0028511
-0.00162873
-0.000488522
-0.000138697
-0.000234153
0.000281851
-0.0005223
-9.76338e-05
-0.000600053
-0.000265372
0.000442573
0.000427491
6.77711e-05
-0.000483515
-0.000777278
-0.00200724
-0.00138557
-0.00454821
-0.0045785
-0.00450291
-0.00141788
-0.00101791
-0.000769524
-0.000616983
-0.000268061
-7.34349e-05
-5.71301e-05
-5.0131e-05
0.000197885
0.000160125
0.000225295
0.000152542
0.00011686
0.000146522
0.000193559
0.000258262
0.000345148
0.000348977
2.52462e-05
-0.000120333
-0.000800931
-0.000908088
-0.00103312
-0.000437752
0.000116228
-5.77958e-05
1.09394e-05
7.53555e-05
5.86995e-05
2.84533e-05
2.09239e-05
7.16012e-05
6.81302e-05
8.5596e-05
9.88789e-05
8.99945e-05
0.000103221
0.000128227
0.000171171
0.000195726
0.000182752
0.000144694
8.43252e-05
-1.36262e-05
-2.83697e-05
-6.07673e-06
-4.4221e-05
8.05839e-05
1.45749e-05
1.88217e-05
1.52915e-05
1.04114e-05
6.65286e-06
4.74126e-06
7.79975e-06
1.45254e-05
1.67485e-05
4.21892e-05
4.17988e-05
3.34187e-05
3.84427e-05
5.51424e-05
7.84451e-05
8.90577e-05
6.99023e-05
4.36928e-05
3.28196e-05
3.39373e-05
6.33792e-05
2.946e-05
1.34798e-05
9.45834e-06
7.38928e-06
3.49577e-06
1.55088e-06
1.34658e-06
9.12552e-07
-1.98516e-06
-3.24254e-06
-4.04275e-06
8.16721e-07
-2.96105e-07
1.50361e-06
4.50358e-06
7.60991e-06
1.10556e-05
1.12283e-05
1.44825e-05
2.32086e-05
1.63689e-05
1.22849e-05
1.26556e-05
9.19722e-06
4.69192e-06
2.42049e-06
1.84666e-06
1.21754e-06
4.72813e-07
1.03108e-07
4.47201e-08
-8.15195e-07
-1.27497e-06
-1.27379e-06
-3.10568e-07
-2.31956e-06
-1.46585e-06
-4.06195e-07
-1.67728e-06
-4.85148e-07
-9.27839e-07
2.20269e-07
3.37612e-06
7.48269e-06
6.48527e-06
1.46124e-07
5.03526e-08
1.51784e-07
-4.30785e-08
-6.21151e-08
-1.08702e-07
-6.67421e-08
-4.84614e-08
-2.35245e-08
-4.3674e-07
-9.8094e-08
-4.21763e-07
-2.12161e-07
-9.05751e-07
-8.65321e-07
-5.50624e-07
-1.08345e-06
-8.99227e-07
-8.93235e-07
-7.4912e-07
-4.68176e-07
4.71978e-07
-1.95855e-07
-3.54293e-07
-2.4032e-07
-1.54592e-07
-9.26135e-08
-5.91978e-08
-4.18092e-08
-2.62582e-08
-1.69721e-08
-1.19445e-08
-1.11462e-07
4.82635e-08
-9.88281e-09
-2.124e-07
-2.02441e-07
-5.35308e-07
-3.81688e-07
-6.13364e-07
-4.6998e-07
-3.24312e-07
-3.8173e-07
-3.82028e-07
-2.21044e-07
-2.18975e-07
-9.06067e-08
-4.75258e-08
-3.21255e-08
-1.65404e-08
-1.24315e-08
-5.62039e-09
-3.93651e-09
-4.08591e-09
8.27444e-09
-1.51342e-08
2.0714e-08
1.93207e-08
-9.27115e-09
3.27674e-08
-5.47211e-08
-1.05111e-07
-2.66492e-07
-1.82041e-07
-1.26762e-08
-1.41913e-07
-1.95141e-07
-1.10373e-07
-4.65899e-08
-1.63843e-08
1.20514e-10
2.08485e-09
2.12124e-09
1.43361e-09
8.03074e-10
-9.43431e-10
-5.23423e-09
-1.52095e-08
3.36868e-09
5.17966e-09
7.0162e-09
7.03671e-09
1.86394e-08
1.19693e-08
1.34292e-08
-2.29146e-08
-9.11305e-09
2.68651e-08
-1.63251e-09
-1.93252e-08
2.83504e-09
6.0545e-09
4.06149e-09
2.07974e-09
1.00261e-09
4.54683e-10
1.2871e-10
-1.02737e-11
-3.10415e-09
-1.60308e-08
9.96168e-09
2.72653e-09
2.74098e-09
3.74605e-09
3.72787e-09
8.02086e-09
7.01912e-09
9.71793e-09
9.67557e-09
7.45992e-09
6.49927e-09
5.83731e-09
3.4942e-09
3.31287e-09
2.0219e-09
7.93143e-10
5.79075e-10
1.85793e-10
3.94686e-12
-4.99774e-10
-2.95772e-10
-5.01002e-09
-3.12674e-08
6.69376e-08
4.41276e-10
-1.44579e-10
-1.67623e-10
1.92071e-11
1.11582e-10
2.08703e-09
3.62992e-09
3.52845e-09
2.92749e-09
2.64753e-09
2.55431e-09
2.31852e-09
1.66163e-09
6.01735e-10
-7.50335e-11
-3.60608e-11
6.37444e-12
1.28851e-11
-7.11552e-10
-2.91692e-10
-7.27291e-09
-4.2664e-08
3.55286e-08
-7.71923e-11
-1.46906e-10
-1.65455e-10
-1.61745e-10
-2.7448e-10
-2.34287e-10
-1.95603e-10
1.42785e-10
2.21149e-10
4.54751e-11
1.52717e-10
3.84838e-10
3.24606e-10
-8.39075e-11
-4.83669e-11
-8.35327e-12
3.97021e-11
9.43366e-11
-7.55301e-10
-1.82112e-09
-1.54977e-08
-6.6932e-08
1.60151e-07
-4.57838e-11
-5.4601e-11
-6.12852e-11
-5.90884e-11
-8.2714e-11
-1.01833e-10
-1.16078e-10
-8.54741e-11
-7.2454e-11
-9.51669e-11
-8.3663e-11
-6.54434e-11
-4.87709e-11
-3.51851e-11
-9.49992e-12
-4.25868e-13
7.16378e-11
2.5182e-10
-3.38002e-10
-6.27883e-09
-2.25729e-08
-7.4733e-08
2.77982e-07
-5.25052e-12
8.97213e-13
1.44345e-12
-2.3139e-12
-6.69155e-12
-2.27887e-11
-3.19897e-11
-2.94806e-11
-2.98063e-11
-3.04155e-11
-3.01245e-11
-3.14794e-11
-2.58955e-11
-1.00737e-11
-1.50749e-12
-5.48664e-13
6.78997e-11
3.59748e-10
7.11645e-12
-1.09799e-08
-3.07362e-08
-5.90866e-08
4.84143e-07
1.32311e-12
2.01914e-12
2.09919e-12
2.16169e-12
2.44066e-12
2.37998e-12
1.67732e-12
-1.66934e-12
-3.83224e-12
-2.54756e-12
-2.20399e-12
-1.97848e-12
-1.81568e-12
1.27759e-12
-2.24119e-12
-4.42538e-12
8.29549e-11
4.8969e-10
-6.88676e-12
-1.36957e-08
-3.32754e-08
-5.56984e-08
5.44954e-07
6.38793e-13
7.39905e-13
6.40383e-13
8.13801e-13
8.27557e-13
1.00871e-12
1.03818e-12
9.08459e-13
7.65168e-13
8.86907e-13
9.15352e-13
9.52518e-13
8.64838e-13
2.51262e-13
-3.47824e-12
-7.93115e-12
9.30893e-11
4.66933e-10
4.63585e-10
-1.20426e-08
-3.11778e-08
-5.34309e-08
4.02785e-07
2.00569e-14
1.14285e-13
8.74019e-14
1.51938e-13
1.75437e-13
2.51266e-13
3.36807e-13
3.26496e-13
3.94976e-13
3.23281e-13
3.67107e-13
3.52827e-13
4.39573e-13
-2.21351e-14
-4.34949e-12
-8.72517e-12
8.40691e-11
4.45213e-10
9.74686e-10
-1.23997e-08
-3.50377e-08
7.68764e-09
3.55295e-07
1.1353e-14
6.94439e-14
1.00858e-13
4.65291e-14
-4.27344e-14
-1.78011e-14
1.02322e-13
3.15567e-14
6.95786e-14
1.52914e-13
-5.21579e-14
1.34427e-13
1.66115e-13
-4.89329e-13
-5.80036e-12
-6.95879e-12
1.25249e-10
4.83875e-10
1.19784e-09
-1.41482e-08
-3.73924e-08
-5.86173e-08
1.54011e-07
-7.60196e-15
1.5036e-13
3.97316e-14
-7.82288e-15
7.25634e-14
1.12183e-13
1.04939e-13
-7.26273e-15
3.97378e-14
8.05572e-14
-6.36045e-14
2.12274e-14
1.54676e-13
-1.15452e-12
-8.49598e-12
6.05746e-12
2.47863e-10
4.40163e-10
1.05737e-09
-1.89668e-08
-3.88658e-08
7.0917e-08
5.64568e-07
1.11055e-13
1.09838e-13
8.88337e-14
6.23609e-14
7.05005e-14
8.93187e-14
1.03045e-13
2.07486e-13
2.42493e-13
7.385e-14
9.71357e-14
1.53145e-13
2.38155e-13
-2.17681e-12
-1.20309e-11
3.46491e-11
4.95757e-10
6.51294e-10
-3.61608e-09
-4.7035e-08
-6.53238e-08
3.30807e-07
1.03697e-06
4.85279e-14
1.35231e-13
1.37197e-13
1.00737e-13
4.05138e-14
7.85516e-14
6.82244e-14
2.21157e-13
2.15668e-13
1.90988e-13
7.13919e-15
1.69609e-13
2.3666e-13
-2.97689e-12
-1.57364e-11
5.65705e-11
8.16548e-10
1.07972e-09
-1.17421e-08
-8.48864e-08
-1.631e-07
1.94414e-06
2.57992e-06
9.29403e-14
1.49405e-13
1.20705e-13
1.09216e-13
9.1657e-14
9.53179e-14
8.90587e-14
3.32328e-13
2.01434e-13
9.82913e-14
-3.39581e-14
2.17504e-13
1.98859e-13
-3.85074e-12
-1.96164e-11
8.84844e-11
1.11178e-09
2.09622e-09
-1.92488e-08
-1.33445e-07
-3.13993e-07
3.65522e-06
5.78504e-06
1.44275e-13
1.12811e-13
1.76764e-13
6.55234e-14
6.22082e-14
-1.66074e-15
9.17482e-14
2.9517e-13
2.14499e-13
1.04756e-14
5.89867e-14
1.89789e-13
2.32479e-13
-4.67661e-12
-2.28717e-11
1.25847e-10
1.42253e-09
2.51553e-09
-2.70277e-08
-1.66075e-07
-3.06088e-07
4.09959e-06
9.74436e-06
1.44661e-13
2.87392e-14
1.2462e-13
8.8006e-14
7.62215e-14
6.58995e-14
1.34374e-13
2.82396e-13
2.54604e-13
-2.01462e-14
5.32077e-14
2.47429e-13
2.90995e-13
-5.31957e-12
-2.58521e-11
1.60742e-10
1.7123e-09
3.30994e-09
-3.472e-08
-1.94589e-07
-2.59309e-07
4.35087e-06
1.26767e-05
1.48622e-13
4.03965e-14
1.14752e-13
6.10734e-14
9.52589e-14
2.01871e-13
1.01683e-13
2.97538e-13
1.13987e-13
-1.02119e-13
1.219e-13
2.76557e-13
2.14849e-13
-6.27293e-12
-3.08736e-11
2.08293e-10
2.11291e-09
2.8719e-09
-4.50755e-08
-2.181e-07
-2.21387e-07
4.6072e-06
1.38183e-05
1.73561e-13
4.35452e-14
-1.91642e-14
5.7131e-14
-5.2754e-16
1.81915e-13
2.02529e-13
3.28159e-13
1.92757e-14
-2.14642e-14
1.02003e-13
8.69631e-14
1.49183e-13
-6.6931e-12
-3.3503e-11
2.48453e-10
2.52094e-09
2.39381e-09
-5.28052e-08
-2.40256e-07
-1.81281e-07
5.34647e-06
1.74517e-05
2.60119e-13
6.18708e-14
-3.11712e-14
1.76532e-13
-2.15224e-14
2.44372e-13
1.60901e-13
3.25175e-13
1.03597e-14
3.47281e-14
9.93772e-14
-5.09707e-15
1.53701e-13
-6.59548e-12
-3.80795e-11
2.58817e-10
2.80134e-09
2.05069e-09
-5.59718e-08
-2.45305e-07
-2.78378e-07
5.09972e-06
2.37704e-05
2.55864e-13
4.523e-14
-1.13925e-14
8.87964e-14
-1.66093e-13
3.01908e-13
2.23715e-13
3.56313e-13
-6.34298e-14
-3.46325e-14
7.99221e-14
-5.64243e-14
2.81386e-13
-6.31717e-12
-4.02662e-11
2.60429e-10
2.96319e-09
1.73693e-09
-5.80434e-08
-2.3548e-07
-3.07924e-07
4.45296e-06
2.46598e-05
-0.127675
0.549314
2.34465
4.37923
0.0498183
0.164196
0.668193
1.02596
0.67312
0.506037
0.443627
0.526376
0.0221438
-0.41163
-0.188942
0.27958
-0.000245253
-0.202408
0.269532
-0.834845
-0.749185
-0.63307
-0.53036
-2.82066
-0.460742
-0.406101
-0.327085
-1.31915
-0.234381
-0.243336
-0.147655
-0.448764
-0.061074
-0.0813417
-0.104195
-0.147564
-0.00247782
-0.00230806
-0.00501686
-0.0152999
-0.00132767
3.01336e-05
0.00182209
0.00297812
-0.000613809
-0.000266604
2.78746e-05
0.000347708
-0.00016913
-0.000146523
-9.84981e-05
-8.22206e-05
-8.8609e-06
-1.11974e-05
-1.37942e-05
-1.28507e-05
1.72935e-05
1.47625e-05
1.03403e-05
8.39703e-06
3.68737e-06
3.1962e-06
2.70892e-06
2.24613e-06
5.48799e-07
4.15297e-07
2.66372e-07
2.29071e-07
-9.9145e-09
5.97602e-09
2.91979e-08
1.1325e-07
-3.8571e-08
-3.3083e-08
1.05959e-07
3.28699e-07
-5.35351e-08
8.54538e-08
6.4068e-07
1.14272e-06
-3.75296e-09
4.74236e-07
1.61491e-06
2.59932e-06
-1.29213e-07
6.25542e-07
2.51318e-06
4.35347e-06
1.68366e-07
1.40958e-06
3.04303e-06
4.82701e-06
4.9402e-07
1.78783e-06
2.47034e-06
2.08145e-06
8.46102e-07
2.03959e-06
2.35531e-06
-9.04128e-07
1.94903e-06
2.81041e-06
1.57197e-06
-7.96463e-06
2.41746e-06
3.26147e-06
1.85173e-06
-7.24744e-06
2.5146e-06
3.12074e-06
2.4297e-06
-2.45582e-06
1.94604e-06
2.58485e-06
4.48623e-06
8.6594e-06
7.98977e-07
2.86857e-06
8.53043e-06
2.49108e-05
6.47835e-07
4.29559e-06
1.29046e-05
2.69832e-05
1.91946e-07
3.80203e-06
1.50454e-05
3.5931e-05
5.44572e-08
4.87389e-06
1.83153e-05
3.44387e-05
1.32504e-06
6.40992e-06
2.32319e-05
5.24455e-05
1.13587e-06
1.04997e-06
1.37047e-05
3.42293e-05
-8.40816e-06
-1.09633e-05
-1.21033e-05
-4.34924e-05
-6.13133e-06
-4.08368e-05
-5.60247e-05
-0.000110469
3.6731e-06
-5.43444e-05
-0.000120471
-0.000176679
8.55431e-06
-3.93598e-05
-0.000168739
-0.000273009
-2.03991e-05
-8.99916e-05
-0.00017488
-0.000326909
-2.3829e-07
-0.000136779
-0.000257922
-0.000372204
1.84974e-05
-0.000152403
-0.000289217
-0.000378725
0.0648234
-1.96609
2.38502
-3.49007
-1.08588
-0.585382
0.1945
0.3749
0.000712522
0.0440706
-0.0866479
-0.0386006
-0.000666737
0.00169157
0.000461328
-0.000149024
0.000602429
0.000257569
-1.79046e-05
2.73649
2.42881
4.84726
-4.27512
-5.50596
-3.21537
-0.092701
0.127056
1.46846
1.20935
0.00881512
-0.120323
-0.0176793
-0.00286985
-0.0105162
-0.0108038
-0.0028063
0.00150815
0.000439883
0.524163
1.42857
3.03334
-0.776126
0.561029
-0.213418
0.913922
3.42986
5.13532
3.30665
1.58331
0.37494
-0.00292037
-0.101627
-0.113107
-0.0595518
-0.0700375
-0.0134076
0.0032275
-0.388818
0.23646
0.571366
1.82175
0.796521
0.991899
0.771457
-1.94312
-3.44268
0.283362
-1.70028
-0.901712
-0.467155
-0.596133
-0.291011
-0.309084
-0.405973
-0.211002
-0.0147831
-0.578306
-0.754863
-0.320871
0.497159
0.492139
0.618245
0.868479
-0.899106
0.720563
1.25663
-4.1463
-4.12628
-2.83527
-0.192641
0.0841915
0.220756
-0.193202
-0.657602
-0.310604
2.34183
-1.32528
0.5571
-0.684753
-0.642486
0.135787
-0.0710475
0.402503
0.221639
0.885194
1.81222
0.882376
-0.347097
1.47263
1.78893
3.58675
5.77533
3.38119
-0.580401
2.40122
1.25919
1.06954
-0.1056
-0.337959
-0.22577
0.183512
-1.11538
-0.271612
-0.314214
-0.0553343
0.639848
0.957287
1.48644
2.59916
3.55538
3.46604
2.6866
0.202922
-0.729388
0.466284
-0.23694
-0.136956
-0.135031
-0.0963491
1.50932
0.403228
1.5655
0.589314
1.37873
0.0857701
-1.43588
-1.36527
-1.81171
-2.42951
-0.350927
2.00639
0.409444
-0.223429
-0.218206
-0.153405
-0.203382
-0.227807
-0.313537
-0.138773
0.791746
-0.00436288
-0.634957
-1.61387
1.18755
0.17738
-1.13109
0.696508
2.30478
0.55328
-0.299854
0.449174
-0.0396654
-0.0739094
-0.0753558
-0.0708728
-0.0818542
-0.142581
-0.326253
-0.465169
-0.435289
-0.56685
-0.760473
-0.434889
1.25249
0.173576
0.342033
2.76152
3.2586
0.384317
-0.0415139
0.00449921
0.00170095
-0.00500478
-0.00465488
-0.00632032
-0.0135712
-0.0444467
-0.114335
-0.181224
-0.161185
0.289634
1.69391
2.12619
1.13184
0.608919
1.87595
3.57427
1.68826
-0.114534
0.00106698
0.00159064
0.00186158
0.00178239
0.00167095
0.00214176
0.00247924
-0.00329137
-0.0178865
0.0797928
0.36743
1.10131
1.59961
2.21963
1.13574
2.15537
2.82741
1.63766
-0.0666004
-6.6091e-05
0.00011733
0.000208954
0.000256308
0.000169805
0.000127302
0.00161985
0.00775548
0.00346651
-0.0439524
0.0495527
1.33865
3.44901
2.47552
1.64867
2.41016
2.61646
1.78023
0.0293925
-2.79881e-05
-2.32906e-05
-2.01446e-05
-6.11836e-05
-0.000234176
-0.000516776
-0.00224478
-0.00265619
0.0326157
0.184275
0.630012
1.22145
2.84197
3.02415
2.12402
2.78642
2.00364
1.71832
0.113208
4.51426e-06
-1.66013e-07
1.27144e-06
1.84461e-06
-0.000120241
-0.000408845
-0.00168395
0.00466767
0.0801701
0.241396
0.459339
0.900707
1.48855
2.25384
2.52005
3.09359
2.18636
0.998226
0.196291
2.24924e-06
2.0031e-06
3.05819e-06
9.98798e-06
-2.5531e-05
-0.000299887
-0.0016583
-0.00493705
0.0023394
0.141733
0.82791
2.63991
4.04257
3.25447
2.5754
3.26766
2.76505
0.984564
0.177685
3.11672e-07
1.11041e-07
-1.55329e-06
-1.55467e-05
-0.000170928
-0.000236045
-0.000768888
-0.00258552
-0.00523246
0.0952986
0.559375
1.26467
2.49541
3.57969
2.95128
3.35402
2.90278
0.940835
0.120516
1.5627e-07
-8.62829e-07
-1.9446e-06
-2.73768e-06
-2.19223e-05
-0.00033103
-0.00102125
-0.00376123
-0.00424921
0.0705934
0.619053
2.12786
3.31649
3.55405
3.48318
3.57448
3.14727
1.07294
0.127782
7.5073e-08
-3.48774e-06
-3.0714e-06
3.06989e-06
9.89237e-05
-6.94893e-05
-0.000836659
-0.00294567
0.00473753
0.167199
0.971352
2.06627
3.11257
1.84414
2.44551
3.40904
3.05766
1.22438
0.142507
-8.06254e-07
-5.29388e-06
-6.82832e-06
-7.00562e-06
9.16685e-05
0.0001581
-0.000276058
-0.00260432
-0.0157041
-0.00307066
0.397103
1.50579
1.84557
1.62497
1.30887
2.40718
2.37404
1.28057
0.172753
-6.12092e-06
-1.13908e-05
-1.12141e-05
1.42064e-05
8.85429e-05
0.000546203
-3.28002e-06
-0.00132369
-0.0103769
-0.0262515
0.0485018
0.793923
1.52751
1.47468
0.800917
1.38294
1.74716
1.14942
0.202041
-1.24742e-05
-1.74799e-05
-1.65888e-05
6.50407e-05
0.00047549
0.00117444
0.00211923
-0.00183004
-0.00922411
-0.00901794
0.038869
0.520618
1.30619
1.34255
0.9801
0.762541
1.20318
1.0434
0.232903
-1.637e-05
-1.98719e-05
4.41403e-07
0.000111353
0.000543958
0.00170425
0.00572757
0.0184166
0.0425004
0.0882333
0.327958
1.00548
1.26615
1.23073
0.999055
0.387179
0.925255
0.845362
0.255595
-1.02325e-05
-2.04859e-05
1.82549e-05
0.000551589
0.00149109
0.00192347
0.00351229
0.0167012
0.108555
0.319509
0.773725
1.09014
1.16271
1.15619
0.965327
0.35666
0.66539
0.687882
0.267469
-1.25674e-05
-1.55143e-05
0.000114534
0.000734554
0.00227614
0.00439515
0.00686021
0.00911985
0.0714747
0.41079
0.90759
1.03656
0.99144
0.902729
0.737596
0.261055
0.464831
0.573726
0.260513
-1.50778e-05
6.19944e-06
0.000113986
0.00067214
0.00292657
0.00354713
0.00330814
0.0103796
0.055156
0.33883
0.854827
0.922106
0.789793
0.5523
0.419085
0.144043
0.305172
0.486809
0.253621
-1.72e-05
-1.48867e-05
1.92013e-07
0.000614155
0.00513662
0.00917144
0.0141028
0.0314345
0.0872741
0.390854
0.840663
0.859377
0.753909
0.362675
0.198827
0.0802741
0.188007
0.405204
0.24003
-1.77137e-05
-3.92349e-05
-1.44785e-05
0.000729419
0.00747488
0.0234243
0.0409109
0.0607953
0.128946
0.473398
0.797471
0.710717
0.50366
0.221686
0.0769282
0.0521728
0.106144
0.344204
0.227831
-3.47195e-06
-0.000175437
-0.000190426
7.07443e-05
0.0021681
0.017013
0.0679196
0.119221
0.276386
0.77007
0.805118
0.680184
0.372912
0.110945
0.0505869
0.0300259
0.0646557
0.278394
0.215116
1.60399e-05
-0.00037976
-0.000543828
-0.000692598
0.00306037
0.0278794
0.111277
0.371181
0.62401
0.837265
0.80756
0.500447
0.203963
0.0290434
0.00477679
0.00870606
0.0459972
0.246709
0.198245
8.6464e-06
-0.000376006
-0.000734593
-0.00168864
0.0012518
0.0367377
0.205671
0.53231
0.792007
0.794931
0.788165
0.392688
0.0828218
0.0156732
-0.00190345
0.0164604
0.0546582
0.215812
0.179345
2.65676e-05
-0.000329008
-0.000774445
-0.00142792
-0.00165576
0.00770089
0.115257
0.475276
0.779742
0.767669
0.716443
0.426498
0.0903767
-0.00135792
0.0144465
0.0278718
0.0966703
0.186864
0.157535
-1.60103e-05
-0.000398216
-0.000770961
-0.00123473
-0.00315652
-0.00148025
0.117818
0.546002
0.77773
0.703866
0.544621
0.254786
0.043872
-0.0061175
0.0129972
0.0383864
0.10198
0.16
0.132674
-3.25602e-05
-0.000488209
-0.000823063
-0.00138524
0.000355152
0.0252179
0.125147
0.504815
0.708965
0.61499
0.409615
0.158678
0.0259872
-0.00454109
0.0109825
0.0364183
0.0961049
0.136685
0.111877
-0.000128618
-0.000605659
-0.000560414
-0.00107793
-0.00470838
0.0211814
0.172863
0.55891
0.66729
0.561542
0.288313
0.0994982
0.0137166
-0.00293512
0.00734099
0.0330908
0.0861395
0.111384
0.0931659
-0.000301688
-0.000434819
-0.00038188
0.000584677
-0.00247513
0.0115744
0.175915
0.571448
0.651775
0.562725
0.263599
0.0729005
0.00778299
-0.00216929
0.00481612
0.0278766
0.07212
0.0902837
0.0742318
-0.000401881
-0.000440927
8.08097e-05
0.00266881
-0.000656061
-0.00179884
0.152973
0.579402
0.645058
0.514358
0.175705
0.044193
0.00129994
-0.000771139
0.00374599
0.0215097
0.0542406
0.0669649
0.0564552
-0.000488276
-0.000465685
0.000260637
0.00356829
0.00499331
-0.00491948
0.0650345
0.512607
0.626811
0.501976
0.140124
0.0176024
-0.0013029
3.41392e-05
0.00238405
0.0135035
0.0332679
0.0410955
0.0362524
-0.000524229
-0.000469451
0.000710248
0.00450295
0.00764633
0.00458
0.0737631
0.491044
0.621652
0.486871
0.119805
0.00742993
-0.00143302
0.000178907
0.00104246
0.00625572
0.0159836
0.0201838
0.0177579
-0.000533135
-0.00044533
0.000949406
0.00508589
0.00933949
-0.000214462
-0.0212002
0.357314
0.605639
0.482497
0.114931
-0.0107006
-0.00124182
0.000380306
0.000552655
0.00245158
0.00613601
0.00804933
0.00667583
-0.000561087
-0.000389933
0.00215403
0.00479133
0.00866683
0.00727109
-0.0216043
0.116364
0.570552
0.499398
0.173752
-0.0156163
-0.00164722
0.00023479
0.00020086
0.000793511
0.00205325
0.00299622
0.00199314
-0.000569506
-0.000423107
0.00248596
0.00536742
0.00927283
0.0120641
0.00258365
-0.0525811
0.126459
0.413639
0.0882031
-0.0188243
-0.00212407
7.94392e-05
8.04348e-05
4.17621e-05
0.000163407
0.000345928
2.85857e-05
)
;

boundaryField
{
    leftWall
    {
        type            zeroGradient;
    }
    rightWall
    {
        type            zeroGradient;
    }
    lowerWall
    {
        type            zeroGradient;
    }
    atmosphere
    {
        type            zeroGradient;
    }
    defaultFaces
    {
        type            empty;
    }
}


// ************************************************************************* //
