/*--------------------------------*- C++ -*----------------------------------*\
| =========                 |                                                 |
| \\      /  F ield         | foam-extend: Open Source CFD                    |
|  \\    /   O peration     | Version:     4.1                                |
|   \\  /    A nd           | Web:         http://www.foam-extend.org         |
|    \\/     M anipulation  |                                                 |
\*---------------------------------------------------------------------------*/
FoamFile
{
    version     2.0;
    format      ascii;
    class       volVectorField;
    location    "0.3";
    object      U;
}
// * * * * * * * * * * * * * * * * * * * * * * * * * * * * * * * * * * * * * //

dimensions      [0 1 -1 0 0 0 0];

internalField   nonuniform List<vector> 
2268
(
(0.0498998 -0.00696062 0)
(0.0618353 -0.00651707 0)
(0.160382 -0.00826065 0)
(0.191152 -0.00397566 0)
(0.261198 -0.00587176 0)
(0.29916 -0.0079734 0)
(0.383809 -0.00486685 0)
(0.428544 -0.00437077 0)
(0.499499 -0.00313842 0)
(0.484663 0.0275129 0)
(0.397579 -0.0839131 0)
(0.40164 -0.0410234 0)
(0.45002 -0.0314161 0)
(0.447612 -0.0189962 0)
(0.46472 -0.0133159 0)
(0.43409 -0.0132083 0)
(0.46056 -0.0498484 0)
(0.467878 -0.0114539 0)
(0.408123 -0.0224244 0)
(0.368426 0.0652883 0)
(0.241709 0.065418 0)
(0.232969 0.017759 0)
(0.303125 0.00607705 0)
(0.0497763 -0.019445 0)
(0.0629861 -0.0194364 0)
(0.160338 -0.0228319 0)
(0.194 -0.01908 0)
(0.255863 -0.0207714 0)
(0.313271 -0.0197365 0)
(0.390683 -0.0272636 0)
(0.42772 -0.0224504 0)
(0.518189 -0.0119726 0)
(0.468884 -0.00351221 0)
(0.407708 -0.0716275 0)
(0.432519 -0.0187509 0)
(0.472546 -0.00410095 0)
(0.466684 0.00539448 0)
(0.476775 0.0181724 0)
(0.424372 0.031705 0)
(0.452502 0.0279394 0)
(0.534977 0.0421105 0)
(0.477914 0.0589539 0)
(0.409718 0.00741498 0)
(0.230348 0.0561857 0)
(0.239203 0.179994 0)
(0.349182 0.118776 0)
(0.0479047 -0.033641 0)
(0.0631299 -0.032495 0)
(0.157277 -0.039594 0)
(0.195409 -0.0257875 0)
(0.255181 -0.0347034 0)
(0.331714 -0.03921 0)
(0.375182 -0.0320191 0)
(0.428773 -0.033907 0)
(0.530785 -0.0160437 0)
(0.434632 -0.143956 0)
(0.382182 -0.0831516 0)
(0.416727 -0.0401956 0)
(0.437846 -0.0253576 0)
(0.431145 -0.0112991 0)
(0.450565 0.00443976 0)
(0.414755 0.0196324 0)
(0.440127 0.103358 0)
(0.454977 0.0332722 0)
(0.396635 0.058527 0)
(0.345253 -0.00129421 0)
(0.313472 0.0743488 0)
(0.240422 0.163477 0)
(0.28716 0.154328 0)
(0.0455482 -0.0456446 0)
(0.0649727 -0.0451279 0)
(0.158896 -0.0547091 0)
(0.192259 -0.0414097 0)
(0.275026 -0.0546705 0)
(0.333657 -0.0459671 0)
(0.370892 -0.0532714 0)
(0.469878 -0.0609355 0)
(0.431019 -0.0440464 0)
(0.36513 -0.138867 0)
(0.361903 -0.0734986 0)
(0.3677 -0.0455283 0)
(0.384648 -0.0118965 0)
(0.375163 0.00198768 0)
(0.396419 0.0268901 0)
(0.381606 0.0232658 0)
(0.400987 0.098957 0)
(0.403553 0.0374874 0)
(0.377319 0.0420161 0)
(0.346224 0.0362784 0)
(0.285384 0.107602 0)
(0.229652 0.174368 0)
(0.308787 0.23948 0)
(0.0409445 -0.0598226 0)
(0.0648536 -0.0591461 0)
(0.159056 -0.0697971 0)
(0.191478 -0.0527337 0)
(0.279253 -0.0684629 0)
(0.326438 -0.0624415 0)
(0.367327 -0.0638668 0)
(0.469122 -0.0435234 0)
(0.386739 -0.151371 0)
(0.320352 -0.121809 0)
(0.323511 -0.0823587 0)
(0.339659 -0.0516905 0)
(0.352577 -0.0250114 0)
(0.352548 -0.0113957 0)
(0.375248 0.0243966 0)
(0.364781 0.0224001 0)
(0.371718 0.0731339 0)
(0.357853 0.046923 0)
(0.3239 0.0862592 0)
(0.333045 0.0648838 0)
(0.315314 0.132172 0)
(0.226551 0.245892 0)
(0.301969 0.280715 0)
(0.0362267 -0.0705443 0)
(0.0678904 -0.0729322 0)
(0.162238 -0.0853446 0)
(0.19326 -0.0696223 0)
(0.26695 -0.0888823 0)
(0.319246 -0.0630642 0)
(0.396637 -0.0964048 0)
(0.344185 -0.0723467 0)
(0.298257 -0.155955 0)
(0.312994 -0.115171 0)
(0.309098 -0.0834717 0)
(0.335901 -0.0612585 0)
(0.347651 -0.0177758 0)
(0.357354 -0.0088113 0)
(0.374076 0.0227406 0)
(0.371203 0.0280814 0)
(0.374503 0.0973577 0)
(0.374426 0.0626504 0)
(0.339899 0.156527 0)
(0.358427 0.100934 0)
(0.370311 0.152542 0)
(0.248065 0.318608 0)
(0.306755 0.369679 0)
(0.0313639 -0.0845248 0)
(0.0692212 -0.0887594 0)
(0.158357 -0.0993117 0)
(0.182399 -0.0762621 0)
(0.265219 -0.098204 0)
(0.307853 -0.099017 0)
(0.334147 -0.0587986 0)
(0.304895 -0.16408 0)
(0.281225 -0.150751 0)
(0.307611 -0.125142 0)
(0.309174 -0.096429 0)
(0.343337 -0.0704321 0)
(0.358287 -0.0341145 0)
(0.377511 -0.021325 0)
(0.374647 0.0120205 0)
(0.396308 0.0267277 0)
(0.37458 0.064598 0)
(0.382712 0.0712269 0)
(0.341246 0.108672 0)
(0.330214 0.164181 0)
(0.431573 0.184677 0)
(0.277561 0.380824 0)
(0.309357 0.406995 0)
(0.0319837 -0.0939384 0)
(0.0766697 -0.102667 0)
(0.155321 -0.11316 0)
(0.17534 -0.0984605 0)
(0.250351 -0.124049 0)
(0.310424 -0.0681454 0)
(0.262584 -0.117673 0)
(0.273551 -0.177993 0)
(0.278352 -0.161097 0)
(0.309364 -0.130113 0)
(0.317801 -0.101044 0)
(0.361761 -0.0852629 0)
(0.376574 -0.0321333 0)
(0.392962 -0.0188563 0)
(0.392111 0.00795886 0)
(0.403818 0.0281566 0)
(0.39565 0.0383356 0)
(0.409085 0.0624915 0)
(0.396795 0.0633386 0)
(0.371178 0.189186 0)
(0.46302 0.176765 0)
(0.332674 0.398278 0)
(0.259156 0.546104 0)
(0.450042 0.056221 0)
(0.189316 0.070959 0)
(0.00999862 -0.00247555 0)
(0.0498747 0.0423666 0)
(-0.30768 0.00752514 0)
(-0.413731 0.0655472 0)
(-0.508348 0.0257222 0)
(-0.595287 0.021268 0)
(-0.576939 -0.0250318 0)
(-0.409943 -0.0256839 0)
(-0.339289 0.0186356 0)
(-0.290776 -0.0023607 0)
(-0.249935 -0.0244583 0)
(-0.282951 -0.0271698 0)
(-0.243285 0.00414872 0)
(-0.166551 -0.0202526 0)
(-0.132506 -0.013429 0)
(-0.0478828 -0.00977434 0)
(-0.0327259 -0.00822047 0)
(0.360327 -0.374812 0)
(0.125078 0.136411 0)
(-0.0462749 -0.0272967 0)
(0.021849 0.113285 0)
(-0.344346 0.179183 0)
(-0.437321 0.0982683 0)
(-0.538687 0.100381 0)
(-0.633277 0.0524994 0)
(-0.597932 -0.0609183 0)
(-0.403477 -0.0695897 0)
(-0.335175 -0.0663161 0)
(-0.302075 -0.071623 0)
(-0.25792 0.00994211 0)
(-0.270245 -0.0427861 0)
(-0.223229 0.0159893 0)
(-0.169547 -0.0176538 0)
(-0.140571 -0.035368 0)
(-0.051491 -0.0308691 0)
(-0.0333602 -0.027509 0)
(-0.002319 -0.342589 0)
(0.12865 0.19662 0)
(-0.117331 0.0417905 0)
(0.104303 0.20348 0)
(-0.393864 0.173335 0)
(-0.4873 0.264269 0)
(-0.539334 0.165578 0)
(-0.689816 0.115274 0)
(-0.65459 -0.154599 0)
(-0.419803 -0.155354 0)
(-0.34765 -0.117967 0)
(-0.271387 -0.132389 0)
(-0.247916 -0.0445953 0)
(-0.285793 -0.0365615 0)
(-0.204054 -0.0111156 0)
(-0.17955 -0.0109205 0)
(-0.146702 -0.0440531 0)
(-0.0442847 -0.0537888 0)
(-0.0325865 -0.0452547 0)
(-0.759427 -0.136081 0)
(0.151492 0.247949 0)
(-0.141487 -0.130653 0)
(0.0462074 0.245588 0)
(-0.34727 0.286852 0)
(-0.413346 0.538626 0)
(-0.631468 0.220251 0)
(-0.789806 0.022804 0)
(-0.722034 -0.165452 0)
(-0.412807 -0.170734 0)
(-0.331065 -0.127608 0)
(-0.258684 -0.0942996 0)
(-0.21937 -0.06285 0)
(-0.261718 -0.0709112 0)
(-0.208917 -0.00562265 0)
(-0.180036 -0.0233894 0)
(-0.154351 -0.0430158 0)
(-0.0516413 -0.069412 0)
(-0.03215 -0.0633381 0)
(-0.963984 -0.213193 0)
(-0.0368955 0.172656 0)
(-0.265309 0.140116 0)
(0.213165 0.345845 0)
(-0.415149 0.558644 0)
(-0.518366 0.842036 0)
(-0.80295 0.185312 0)
(-0.89194 -0.0582966 0)
(-0.71849 -0.044661 0)
(-0.459494 -0.358498 0)
(-0.332221 -0.20014 0)
(-0.231284 -0.0962978 0)
(-0.231365 -0.0623683 0)
(-0.26247 -0.0814368 0)
(-0.18631 -0.0106603 0)
(-0.188872 -0.0451892 0)
(-0.16098 -0.0640307 0)
(-0.0539334 -0.0865524 0)
(-0.0328144 -0.0813614 0)
(-0.750341 0.0993161 0)
(-0.388555 0.204853 0)
(-0.225422 -0.348887 0)
(0.2161 0.312255 0)
(-0.184529 0.921563 0)
(-0.464242 0.69637 0)
(-0.607234 0.0722944 0)
(-0.884249 -0.107082 0)
(-0.783248 -0.350133 0)
(-0.500373 -0.4793 0)
(-0.224098 -0.308033 0)
(-0.209602 -0.120003 0)
(-0.211672 -0.0978071 0)
(-0.235986 -0.0264132 0)
(-0.185417 -0.020697 0)
(-0.198896 -0.0544572 0)
(-0.169104 -0.0890545 0)
(-0.0592481 -0.111166 0)
(-0.030431 -0.104836 0)
(-0.159223 -0.0124007 0)
(-0.140113 0.154339 0)
(-0.0510923 -0.513598 0)
(-0.0387958 0.485955 0)
(-0.0915967 1.02893 0)
(-0.318655 0.461867 0)
(-0.31718 0.263473 0)
(-0.569971 -0.179249 0)
(-0.581945 -0.41512 0)
(-0.399028 -0.358165 0)
(-0.143533 -0.395224 0)
(-0.155416 -0.113859 0)
(-0.195325 -0.0393628 0)
(-0.226484 -0.0183513 0)
(-0.191851 -0.0198697 0)
(-0.217152 -0.0789197 0)
(-0.18344 -0.108886 0)
(-0.0620333 -0.134525 0)
(-0.0302183 -0.123772 0)
(0.0297559 0.222819 0)
(-0.12007 0.124682 0)
(0.0670171 -0.419197 0)
(-0.269158 0.600814 0)
(0.051087 1.21829 0)
(0.0454658 1.22572 0)
(0.144198 0.235018 0)
(-0.345265 -0.234196 0)
(-0.138605 -0.13455 0)
(-0.0479586 -0.286755 0)
(-0.105596 -0.442822 0)
(-0.0794088 -0.126687 0)
(-0.171766 -0.0286663 0)
(-0.221424 0.0417792 0)
(-0.21384 -0.0545241 0)
(-0.232842 -0.102904 0)
(-0.193652 -0.114974 0)
(-0.0670093 -0.166038 0)
(-0.0247035 -0.153985 0)
(0.0331587 -0.119286 0)
(0.0739618 -0.126081 0)
(0.141568 -0.130497 0)
(0.157212 -0.0910889 0)
(0.265563 -0.131726 0)
(0.221245 -0.14336 0)
(0.225325 -0.178569 0)
(0.273183 -0.1793 0)
(0.276669 -0.165749 0)
(0.312227 -0.147879 0)
(0.337426 -0.133715 0)
(0.402305 -0.106903 0)
(0.400801 -0.0576851 0)
(0.396786 -0.0313739 0)
(0.417719 0.00260186 0)
(0.415231 0.0249514 0)
(0.41089 0.07178 0)
(0.381645 0.101443 0)
(0.405885 0.180328 0)
(0.374363 0.172616 0)
(0.549534 0.202493 0)
(0.688967 0.455946 0)
(0.468896 0.711143 0)
(0.0431127 -0.138332 0)
(0.0565037 -0.15006 0)
(0.157904 -0.147335 0)
(0.137796 -0.171667 0)
(0.153455 -0.158929 0)
(0.198275 -0.213376 0)
(0.226901 -0.179625 0)
(0.24577 -0.209321 0)
(0.289408 -0.206872 0)
(0.327767 -0.18274 0)
(0.381436 -0.182493 0)
(0.441861 -0.139765 0)
(0.455525 -0.0888035 0)
(0.466955 -0.0388515 0)
(0.457554 -0.00887043 0)
(0.479968 0.0294307 0)
(0.456983 0.0714724 0)
(0.509789 0.169775 0)
(0.438546 0.201705 0)
(0.446494 0.271221 0)
(0.599153 0.220612 0)
(0.910904 0.313633 0)
(0.684877 0.472407 0)
(0.0255781 -0.169927 0)
(0.0479168 -0.184749 0)
(0.0961764 -0.174403 0)
(0.120413 -0.221483 0)
(0.156007 -0.199257 0)
(0.178481 -0.215997 0)
(0.206074 -0.225285 0)
(0.251719 -0.245013 0)
(0.290572 -0.252995 0)
(0.33814 -0.235887 0)
(0.438401 -0.250153 0)
(0.484601 -0.183849 0)
(0.518008 -0.0986833 0)
(0.515697 -0.0355493 0)
(0.557993 -0.00422374 0)
(0.545106 0.028284 0)
(0.565543 0.0601781 0)
(0.517953 0.12229 0)
(0.507742 0.127507 0)
(0.487746 0.268839 0)
(0.605014 0.20657 0)
(0.86035 0.304636 0)
(0.834382 0.257932 0)
(0.0298259 -0.211754 0)
(0.0429146 -0.21918 0)
(0.0936998 -0.218384 0)
(0.106116 -0.228807 0)
(0.14292 -0.218393 0)
(0.163464 -0.254848 0)
(0.200115 -0.253292 0)
(0.222038 -0.287781 0)
(0.286641 -0.292569 0)
(0.367854 -0.338289 0)
(0.475251 -0.328792 0)
(0.501822 -0.227448 0)
(0.571426 -0.154408 0)
(0.5651 -0.0832709 0)
(0.619128 -0.0399059 0)
(0.620359 0.0201634 0)
(0.583546 0.0952382 0)
(0.550809 0.108944 0)
(0.538343 0.184076 0)
(0.494394 0.22781 0)
(0.61967 0.286547 0)
(0.678536 0.182373 0)
(0.685629 0.276827 0)
(0.0220431 -0.244489 0)
(0.0413894 -0.249317 0)
(0.0817925 -0.239584 0)
(0.100736 -0.267916 0)
(0.133594 -0.261243 0)
(0.148391 -0.272989 0)
(0.171212 -0.287962 0)
(0.218979 -0.331133 0)
(0.295383 -0.406866 0)
(0.3812 -0.426198 0)
(0.38432 -0.392765 0)
(0.343314 -0.283843 0)
(0.388248 -0.22538 0)
(0.344192 -0.0917941 0)
(0.363012 -0.046184 0)
(0.341999 0.0642151 0)
(0.35554 0.142602 0)
(0.38672 0.172969 0)
(0.442632 0.209079 0)
(0.4368 0.214006 0)
(0.498784 0.259728 0)
(0.827036 0.0626387 0)
(0.649098 0.116642 0)
(0.0181461 -0.277859 0)
(0.0252644 -0.279224 0)
(0.0567354 -0.280246 0)
(0.065469 -0.278764 0)
(0.0741445 -0.268599 0)
(0.0854399 -0.29002 0)
(0.0920981 -0.32807 0)
(0.139377 -0.407386 0)
(0.160043 -0.4479 0)
(0.13783 -0.420699 0)
(0.106147 -0.302448 0)
(0.0884571 -0.222794 0)
(0.13461 -0.154223 0)
(0.165111 -0.0560286 0)
(0.264695 -0.0389387 0)
(0.334298 0.0440035 0)
(0.296497 0.202712 0)
(0.186058 0.188196 0)
(0.352163 0.152209 0)
(0.218214 0.162318 0)
(0.765568 0.281534 0)
(0.866053 0.0563327 0)
(0.66269 -0.151366 0)
(0.00162156 -0.289103 0)
(0.00434077 -0.289037 0)
(0.00721294 -0.283008 0)
(0.0131203 -0.28593 0)
(0.0179778 -0.281896 0)
(0.0326441 -0.295651 0)
(0.0406273 -0.346787 0)
(0.0510451 -0.407688 0)
(0.052605 -0.415366 0)
(0.0758501 -0.373348 0)
(0.0445304 -0.3329 0)
(0.0545974 -0.313853 0)
(0.117581 -0.376973 0)
(0.15436 -0.230852 0)
(0.287787 -0.206107 0)
(0.432631 0.0158717 0)
(0.355559 0.178584 0)
(0.270561 0.229835 0)
(0.423361 0.193937 0)
(-0.00382022 0.0123101 0)
(0.384898 -0.0990317 0)
(0.168288 -0.490463 0)
(0.0819491 0.177106 0)
(0.00184742 -0.291729 0)
(0.00303278 -0.294535 0)
(0.00592196 -0.294525 0)
(0.0149872 -0.293929 0)
(0.0182664 -0.293373 0)
(0.030936 -0.315646 0)
(0.0400381 -0.358409 0)
(0.0266906 -0.423212 0)
(0.0226373 -0.474527 0)
(0.0316433 -0.418911 0)
(-0.00104378 -0.294237 0)
(0.0088037 -0.292474 0)
(0.10044 -0.391506 0)
(0.123006 -0.243677 0)
(0.41401 -0.0923341 0)
(0.48052 0.0255063 0)
(0.452139 0.242618 0)
(0.30811 0.394706 0)
(0.405301 0.297718 0)
(0.201751 0.0542734 0)
(0.0392289 0.0821615 0)
(-0.0754444 0.0472 0)
(-0.0899696 -0.336622 0)
(0.00605828 -0.289741 0)
(0.00688575 -0.295292 0)
(0.00320763 -0.292141 0)
(0.0171121 -0.296304 0)
(0.0197748 -0.298269 0)
(0.0257013 -0.314118 0)
(0.0434546 -0.341459 0)
(0.00629013 -0.389544 0)
(-0.0276414 -0.417264 0)
(-0.0655581 -0.343244 0)
(-0.114773 -0.316807 0)
(-0.0919418 -0.405161 0)
(0.0290371 -0.602818 0)
(-0.0263592 -0.247601 0)
(-0.0190171 -0.256457 0)
(0.119731 -0.0256239 0)
(0.0558562 0.0919389 0)
(0.186612 0.344079 0)
(0.50379 0.278047 0)
(0.420427 0.173143 0)
(0.6256 0.162777 0)
(0.45152 -0.21068 0)
(0.367685 -0.146973 0)
(0.0131863 -0.300694 0)
(0.00297656 -0.302132 0)
(-0.0138762 -0.309126 0)
(-0.000817838 -0.316455 0)
(-0.0144175 -0.31135 0)
(-0.01554 -0.337471 0)
(0.042402 -0.339986 0)
(0.0105782 -0.345374 0)
(-0.0202992 -0.388345 0)
(-0.109205 -0.345581 0)
(-0.162131 -0.324523 0)
(-0.0729548 -0.343856 0)
(-0.117762 -0.528148 0)
(-0.170752 -0.239433 0)
(-0.220722 -0.212225 0)
(-0.230552 -0.0352039 0)
(-0.228037 -0.00132468 0)
(-0.0238624 0.276197 0)
(0.186034 0.15369 0)
(0.713995 0.0301625 0)
(0.541809 -0.101305 0)
(0.38041 0.0308196 0)
(0.727061 -0.0155246 0)
(0.0180758 -0.299109 0)
(-0.0043058 -0.254958 0)
(-0.0402774 -0.281588 0)
(-0.00219239 -0.288638 0)
(-0.0254071 -0.273157 0)
(0.00293017 -0.377528 0)
(0.0949862 -0.367047 0)
(0.0966274 -0.333273 0)
(0.103626 -0.304028 0)
(0.0512818 -0.346873 0)
(-0.130264 -0.395331 0)
(-0.140498 -0.357715 0)
(-0.173768 -0.427785 0)
(-0.122504 -0.274816 0)
(-0.173768 -0.298366 0)
(-0.133907 -0.0315817 0)
(-0.0649602 -0.0770102 0)
(0.0836088 -0.0050842 0)
(0.295731 0.154399 0)
(0.248285 -0.0451779 0)
(0.584151 -0.00869625 0)
(0.628255 -0.0408769 0)
(0.546435 -0.17948 0)
(0.0194574 -0.338873 0)
(0.0166655 -0.275023 0)
(-0.0335511 -0.349183 0)
(0.0587055 -0.362384 0)
(0.0442216 -0.34524 0)
(0.0687509 -0.459553 0)
(0.122988 -0.463897 0)
(0.163475 -0.331662 0)
(0.140874 -0.391231 0)
(0.0210506 -0.457725 0)
(0.09558 -0.590519 0)
(0.0386808 -0.413584 0)
(-0.00273308 -0.368204 0)
(0.0206846 -0.215338 0)
(-0.00944059 -0.245021 0)
(0.0337798 -0.267607 0)
(0.0986912 -0.249547 0)
(0.268921 -0.200551 0)
(0.143013 -0.186812 0)
(0.390026 -0.178779 0)
(0.563504 -0.074167 0)
(0.402271 -0.288199 0)
(0.563469 -0.1259 0)
(-0.042114 -0.312623 0)
(-0.023149 -0.142861 0)
(-0.00494037 -0.26384 0)
(0.127973 -0.253991 0)
(0.124681 -0.281091 0)
(0.0847616 -0.474841 0)
(0.167151 -0.380589 0)
(0.1327 -0.403441 0)
(0.0433716 -0.430911 0)
(0.0642004 -0.3566 0)
(0.0699213 -0.398199 0)
(0.0400258 -0.326451 0)
(0.0506543 -0.313462 0)
(0.0206504 -0.279807 0)
(-0.120478 -0.305459 0)
(0.0815926 -0.264901 0)
(0.160453 -0.406233 0)
(0.190732 -0.303346 0)
(0.223391 -0.105985 0)
(0.439746 -0.0778269 0)
(0.554294 -0.300687 0)
(0.6559 -0.196171 0)
(0.51919 -0.0390634 0)
(0.0183576 -0.275886 0)
(0.193058 -0.388181 0)
(0.093616 -0.560921 0)
(0.127404 -0.417173 0)
(-0.0557673 -0.519634 0)
(0.0828153 -0.415467 0)
(0.00654077 -0.655879 0)
(-0.101572 -0.557476 0)
(0.0384075 -0.463312 0)
(-0.0137676 -0.499657 0)
(0.137252 -0.413158 0)
(0.00504366 -0.496245 0)
(-0.0861191 -0.341397 0)
(0.0151534 -0.387343 0)
(0.103487 -0.352653 0)
(0.104764 -0.292968 0)
(0.176762 -0.454585 0)
(0.435812 -0.351411 0)
(0.320948 -0.339121 0)
(0.364962 -0.302606 0)
(0.536138 -0.254155 0)
(0.563227 -0.229447 0)
(0.53829 -0.284447 0)
(-0.138717 -0.537615 0)
(-0.0413038 -0.709222 0)
(0.0468589 -0.789154 0)
(0.0506371 -0.631764 0)
(0.165673 -0.723758 0)
(0.0792176 -0.672251 0)
(-0.0952482 -0.76281 0)
(0.0131835 -0.564622 0)
(-0.0185898 -0.539438 0)
(0.0156326 -0.526323 0)
(0.0323757 -0.484283 0)
(0.0333878 -0.580271 0)
(0.0723801 -0.40461 0)
(0.0632845 -0.446159 0)
(0.17499 -0.385936 0)
(0.067642 -0.491691 0)
(0.088526 -0.39894 0)
(0.32708 -0.447972 0)
(0.448474 -0.675246 0)
(0.449895 -0.435798 0)
(0.681652 -0.423593 0)
(0.702042 -0.205358 0)
(0.607115 -0.39359 0)
(-0.0213802 -0.709652 0)
(0.0612554 -0.78746 0)
(0.0364029 -0.752194 0)
(0.0704249 -0.640318 0)
(0.0542401 -0.659578 0)
(0.0717727 -0.762219 0)
(0.0190503 -0.670693 0)
(0.0239084 -0.610247 0)
(0.0111462 -0.510284 0)
(0.0120106 -0.537884 0)
(0.0383597 -0.53117 0)
(0.0559662 -0.541518 0)
(0.0581766 -0.480657 0)
(0.0922545 -0.486255 0)
(0.0886978 -0.53025 0)
(0.176589 -0.55208 0)
(0.33613 -0.439984 0)
(0.187794 -0.15331 0)
(0.312038 -0.39069 0)
(0.509029 -0.316604 0)
(0.879046 -0.402824 0)
(0.664232 -0.232463 0)
(0.508437 -0.371994 0)
(0.0945924 -0.532384 0)
(0.137701 -0.877123 0)
(0.0782067 -0.836444 0)
(0.0526049 -0.680179 0)
(0.0542696 -0.712195 0)
(0.0715019 -0.652719 0)
(0.00551825 -0.648405 0)
(0.0369253 -0.546084 0)
(0.0044087 -0.51345 0)
(0.0246447 -0.558461 0)
(0.035386 -0.600343 0)
(0.0620281 -0.574522 0)
(0.0694698 -0.514651 0)
(0.0200709 -0.487083 0)
(0.227008 -0.50734 0)
(0.358153 -0.523456 0)
(0.402012 -0.674118 0)
(0.361831 -0.549158 0)
(0.40138 -0.56222 0)
(0.583793 -0.438362 0)
(0.747959 -0.489818 0)
(0.680189 -0.516023 0)
(0.619533 -0.365488 0)
(-0.11503 -0.372641 0)
(-0.0936078 -0.622234 0)
(0.155053 -0.546804 0)
(0.131358 -0.576691 0)
(0.0868367 -0.704685 0)
(0.142278 -0.635869 0)
(0.0259181 -0.645645 0)
(0.032154 -0.605015 0)
(-0.00695218 -0.511944 0)
(0.0298831 -0.583288 0)
(0.0464605 -0.632435 0)
(0.0638206 -0.572303 0)
(0.0834717 -0.442998 0)
(0.188595 -0.480969 0)
(0.224901 -0.567957 0)
(0.145849 -0.756228 0)
(0.270816 -0.781287 0)
(0.381496 -0.694892 0)
(0.538739 -0.546068 0)
(0.810251 -0.579623 0)
(0.822894 -0.532039 0)
(0.806182 -0.662937 0)
(0.723497 -0.481984 0)
(-0.0317497 -0.319324 0)
(-0.0297708 -0.495795 0)
(-0.0114668 -0.436563 0)
(-0.125633 -0.583227 0)
(-0.00773289 -0.48748 0)
(0.12423 -0.61496 0)
(-0.0817285 -0.608213 0)
(0.0514534 -0.392157 0)
(0.0978609 -0.565442 0)
(0.130015 -0.641187 0)
(0.0361154 -0.672108 0)
(0.139279 -0.633651 0)
(0.115931 -0.524908 0)
(0.0510081 -0.647978 0)
(0.196822 -0.657701 0)
(0.280045 -0.608525 0)
(0.464545 -0.518547 0)
(0.592261 -0.580884 0)
(0.566783 -0.494619 0)
(0.677225 -0.574964 0)
(0.66792 -0.532566 0)
(0.729767 -0.473548 0)
(0.856274 -0.281736 0)
(-0.0486658 -0.317666 0)
(-0.0306212 -0.555775 0)
(-0.0770746 -0.486871 0)
(0.0287292 -0.373333 0)
(0.0156064 -0.428637 0)
(0.0201662 -0.380227 0)
(0.0862831 -0.582619 0)
(-0.0217316 -0.327717 0)
(-0.0574755 -0.37905 0)
(0.159837 -0.714314 0)
(-0.0463883 -0.698403 0)
(0.066358 -0.412288 0)
(0.0739952 -0.57584 0)
(0.124065 -0.565721 0)
(0.344946 -0.576019 0)
(0.390727 -0.596741 0)
(0.449046 -0.511957 0)
(0.555261 -0.664361 0)
(0.597188 -0.617101 0)
(0.757866 -0.664412 0)
(0.844095 -0.564167 0)
(0.907127 -0.314025 0)
(0.806314 -0.478234 0)
(-0.048637 -0.258875 0)
(-0.0196782 -0.541373 0)
(-0.0905743 -0.468898 0)
(-0.023958 -0.195086 0)
(-0.0123758 -0.477343 0)
(-0.0551833 -0.203329 0)
(0.00761166 -0.424071 0)
(0.136365 -0.247596 0)
(-0.123131 -0.328826 0)
(0.0373524 -0.559856 0)
(0.18708 -0.435681 0)
(0.142733 -0.263112 0)
(0.116935 -0.361608 0)
(0.21723 -0.445258 0)
(0.360204 -0.563564 0)
(0.393093 -0.634489 0)
(0.447847 -0.603871 0)
(0.58062 -0.688062 0)
(0.604818 -0.650826 0)
(0.711557 -0.748225 0)
(0.812184 -0.581257 0)
(0.720344 -0.344088 0)
(0.809192 -0.591581 0)
(-0.0817248 -0.253243 0)
(-0.0282392 -0.489047 0)
(0.0200243 -0.355959 0)
(0.00915282 -0.505226 0)
(0.00113481 -0.29456 0)
(0.0501338 -0.477353 0)
(-0.0112545 -0.144496 0)
(0.0823012 -0.306451 0)
(-0.0451277 -0.22306 0)
(0.117132 -0.476359 0)
(0.129824 -0.242814 0)
(0.112715 -0.236525 0)
(0.124626 -0.350521 0)
(0.227153 -0.572068 0)
(0.332288 -0.6776 0)
(0.399011 -0.695043 0)
(0.416829 -0.668482 0)
(0.528417 -0.735973 0)
(0.504657 -0.642565 0)
(0.640043 -0.67521 0)
(1.01437 -0.603493 0)
(0.713152 -0.428974 0)
(0.684272 -0.542784 0)
(0.136782 -0.611201 0)
(0.136179 -0.741261 0)
(-0.166014 -0.667858 0)
(0.0310135 -0.733281 0)
(-0.0475485 -0.700666 0)
(-0.0362138 -0.667365 0)
(0.0370607 -0.599016 0)
(0.0287082 -0.578727 0)
(0.131264 -0.443195 0)
(0.0948519 -0.502583 0)
(0.171344 -0.452441 0)
(-0.0190849 -0.334767 0)
(0.0467783 -0.420627 0)
(0.23082 -0.561623 0)
(0.351104 -0.684316 0)
(0.405639 -0.620887 0)
(0.467173 -0.660862 0)
(0.671626 -0.767001 0)
(0.655357 -0.810702 0)
(0.579051 -0.661158 0)
(0.859695 -0.417471 0)
(0.769689 -0.781473 0)
(0.76032 -0.677933 0)
(0.0125096 -0.744998 0)
(0.0189477 -0.888377 0)
(0.0151761 -0.863262 0)
(0.03331 -0.76945 0)
(0.0137285 -0.856428 0)
(0.0641795 -0.700306 0)
(0.0955491 -0.772074 0)
(0.18272 -0.624225 0)
(0.263748 -0.706693 0)
(0.150447 -0.771066 0)
(0.0153225 -0.627323 0)
(0.218031 -0.606901 0)
(0.249575 -0.715642 0)
(0.211662 -0.683943 0)
(0.312305 -0.803213 0)
(0.446235 -0.944209 0)
(0.397211 -0.895319 0)
(0.486575 -0.856105 0)
(0.527798 -1.05079 0)
(0.73271 -0.968095 0)
(0.780208 -0.900982 0)
(0.61616 -0.963232 0)
(0.684608 -0.762021 0)
(0.00651304 -0.719158 0)
(0.0241901 -0.775708 0)
(0.00479498 -0.765413 0)
(0.0206967 -0.773913 0)
(0.0181554 -0.752071 0)
(0.0390472 -0.752386 0)
(0.0956854 -0.745069 0)
(0.083192 -0.74491 0)
(0.0809159 -0.800759 0)
(0.132108 -0.864957 0)
(0.16553 -0.76154 0)
(0.0821723 -0.760517 0)
(0.241432 -0.820726 0)
(0.275882 -0.830057 0)
(0.209044 -0.914035 0)
(0.368601 -1.07673 0)
(0.576205 -1.01512 0)
(0.536105 -1.01021 0)
(0.383114 -1.0742 0)
(0.595511 -0.966142 0)
(0.840737 -1.16457 0)
(0.76295 -1.05732 0)
(0.868398 -0.928117 0)
(0.00276414 -0.78654 0)
(0.0234767 -0.836162 0)
(0.0255035 -0.834888 0)
(0.0503535 -0.817625 0)
(0.0512087 -0.81078 0)
(0.077663 -0.792901 0)
(0.0892901 -0.805439 0)
(0.111642 -0.797759 0)
(0.13461 -0.788476 0)
(0.130045 -0.756379 0)
(0.138292 -0.798948 0)
(0.162603 -0.782774 0)
(0.197206 -0.734268 0)
(0.20379 -0.868294 0)
(0.238362 -0.977114 0)
(0.354596 -0.87651 0)
(0.5321 -1.00953 0)
(0.513105 -1.03907 0)
(0.411085 -1.10204 0)
(0.615593 -0.973531 0)
(0.701284 -1.09411 0)
(0.735704 -1.02817 0)
(0.830383 -1.02727 0)
(0.00192403 -0.790833 0)
(0.0214706 -0.841156 0)
(0.0240942 -0.836995 0)
(0.0408763 -0.833636 0)
(0.0502598 -0.80698 0)
(0.0603202 -0.835254 0)
(0.0829327 -0.81708 0)
(0.0886661 -0.833109 0)
(0.111079 -0.83769 0)
(0.124506 -0.848183 0)
(0.14959 -0.835347 0)
(0.149189 -0.853872 0)
(0.187852 -0.844235 0)
(0.190425 -0.897959 0)
(0.266396 -0.988822 0)
(0.414699 -1.02364 0)
(0.558577 -0.971976 0)
(0.494472 -1.03747 0)
(0.23054 -1.09418 0)
(0.422944 -1.08125 0)
(0.747941 -1.28833 0)
(0.813892 -1.17244 0)
(0.888949 -1.12101 0)
(-0.00372687 -0.828274 0)
(0.0252704 -0.867867 0)
(0.0378472 -0.873324 0)
(0.0710497 -0.854477 0)
(0.0722434 -0.873455 0)
(0.0572819 -0.855911 0)
(0.0931468 -0.866301 0)
(0.100858 -0.863895 0)
(0.118566 -0.860843 0)
(0.131491 -0.851917 0)
(0.13791 -0.851 0)
(0.165118 -0.861458 0)
(0.169012 -0.837607 0)
(0.186258 -0.90374 0)
(0.213523 -0.946157 0)
(0.507447 -0.969768 0)
(0.619374 -1.25236 0)
(0.448245 -1.13949 0)
(0.239537 -0.971363 0)
(0.332842 -1.2447 0)
(0.60248 -1.33073 0)
(0.922665 -1.20044 0)
(0.895376 -1.14668 0)
(0.00750764 -0.83893 0)
(0.0197697 -0.872043 0)
(0.0312036 -0.885644 0)
(0.0461326 -0.88819 0)
(0.0584984 -0.907877 0)
(0.0721794 -0.895739 0)
(0.0849269 -0.894987 0)
(0.10003 -0.893939 0)
(0.11002 -0.894458 0)
(0.131728 -0.897986 0)
(0.143942 -0.898298 0)
(0.173621 -0.916031 0)
(0.190918 -0.889987 0)
(0.221566 -0.948749 0)
(0.267206 -0.963596 0)
(0.290532 -1.0444 0)
(0.499479 -1.36902 0)
(0.691828 -1.11744 0)
(-0.00281889 -1.24545 0)
(0.16284 -1.24233 0)
(0.713359 -1.2755 0)
(0.919915 -1.39963 0)
(0.89338 -1.22438 0)
(0.00408606 -0.882282 0)
(0.0265589 -0.920069 0)
(0.0363631 -0.924305 0)
(0.0553438 -0.920628 0)
(0.0632711 -0.921365 0)
(0.0750652 -0.919059 0)
(0.0855669 -0.918968 0)
(0.102856 -0.918481 0)
(0.110991 -0.920203 0)
(0.135258 -0.918823 0)
(0.133295 -0.925683 0)
(0.175522 -0.94033 0)
(0.156172 -0.930814 0)
(0.208764 -0.989564 0)
(0.215153 -1.00198 0)
(0.291223 -1.09857 0)
(0.591989 -1.04871 0)
(0.58981 -1.26752 0)
(0.0744099 -1.52067 0)
(0.338352 -1.09547 0)
(0.437662 -1.13067 0)
(0.828821 -1.1766 0)
(1.10024 -1.26085 0)
(0.00817523 -0.901044 0)
(0.0215588 -0.938909 0)
(0.0335539 -0.942186 0)
(0.0480827 -0.945663 0)
(0.0589961 -0.948851 0)
(0.0746236 -0.946359 0)
(0.0867044 -0.946395 0)
(0.101901 -0.950365 0)
(0.11127 -0.952953 0)
(0.130657 -0.945623 0)
(0.129297 -0.962818 0)
(0.173401 -0.949178 0)
(0.116786 -0.958499 0)
(0.229194 -0.989756 0)
(0.297203 -1.03716 0)
(0.38633 -1.02606 0)
(0.309143 -1.10234 0)
(0.323677 -1.43476 0)
(0.407351 -1.28291 0)
(0.52392 -1.1914 0)
(0.499922 -1.08834 0)
(0.640654 -1.1924 0)
(0.841789 -1.38869 0)
(0.00525134 -0.942712 0)
(0.0257805 -0.975393 0)
(0.0338172 -0.976464 0)
(0.0518943 -0.974974 0)
(0.0606293 -0.970319 0)
(0.0772954 -0.977283 0)
(0.0854852 -0.969825 0)
(0.103311 -0.971034 0)
(0.11089 -0.969095 0)
(0.128515 -0.961393 0)
(0.132444 -0.979407 0)
(0.164504 -0.942138 0)
(0.126136 -0.983559 0)
(0.23772 -0.93976 0)
(0.312558 -1.06482 0)
(0.313631 -1.16099 0)
(0.23205 -1.26041 0)
(0.39967 -1.43311 0)
(0.59056 -1.2068 0)
(0.531726 -1.18469 0)
(0.293918 -1.13727 0)
(0.562321 -1.34827 0)
(0.883554 -1.53733 0)
(0.00737439 -0.963321 0)
(0.0219474 -0.995755 0)
(0.032375 -0.99484 0)
(0.047799 -0.999679 0)
(0.0577346 -1.00035 0)
(0.0744167 -0.998175 0)
(0.0850636 -0.998123 0)
(0.0999205 -1.0054 0)
(0.114429 -0.999163 0)
(0.124672 -0.999169 0)
(0.145029 -1.00695 0)
(0.16024 -0.990785 0)
(0.169574 -1.04043 0)
(0.224709 -0.969727 0)
(0.22089 -1.08027 0)
(0.277572 -1.19193 0)
(0.179727 -1.19228 0)
(0.40359 -1.16799 0)
(0.708584 -1.31514 0)
(0.615658 -1.50023 0)
(0.260675 -1.16903 0)
(0.329757 -1.21647 0)
(0.646446 -1.34427 0)
(0.00501391 -1.00201 0)
(0.024754 -1.02699 0)
(0.0302954 -1.02741 0)
(0.0495571 -1.02685 0)
(0.0544833 -1.02223 0)
(0.0738576 -1.03044 0)
(0.0810498 -1.01838 0)
(0.0962065 -1.02636 0)
(0.109313 -1.01273 0)
(0.112644 -1.01851 0)
(0.144102 -1.01287 0)
(0.109868 -1.0144 0)
(0.194278 -1.03402 0)
(0.264006 -1.00384 0)
(0.215272 -1.06563 0)
(0.309061 -1.17058 0)
(0.248803 -1.21084 0)
(0.301335 -1.21462 0)
(0.316173 -1.58077 0)
(0.583937 -1.60873 0)
(0.460617 -1.31975 0)
(0.462032 -1.36448 0)
(0.573937 -1.28381 0)
(0.0061145 -1.02333 0)
(0.020531 -1.04626 0)
(0.0286322 -1.04545 0)
(0.0449739 -1.04786 0)
(0.0520621 -1.05028 0)
(0.0722358 -1.0505 0)
(0.0765407 -1.04507 0)
(0.10015 -1.05691 0)
(0.105088 -1.03755 0)
(0.126286 -1.05229 0)
(0.14592 -1.01203 0)
(0.12338 -1.07347 0)
(0.221517 -0.925674 0)
(0.280724 -0.994873 0)
(0.168078 -1.12077 0)
(0.196002 -1.19354 0)
(0.168234 -1.27533 0)
(0.206205 -1.26122 0)
(0.303462 -1.30457 0)
(0.748244 -1.09706 0)
(0.453642 -1.25939 0)
(0.517463 -1.57114 0)
(0.62118 -1.30699 0)
(0.00350557 -1.05538 0)
(0.0211926 -1.07326 0)
(0.0244032 -1.07513 0)
(0.0440123 -1.07491 0)
(0.0455359 -1.07598 0)
(0.067654 -1.07836 0)
(0.0675163 -1.07437 0)
(0.095002 -1.07751 0)
(0.0924069 -1.06995 0)
(0.130738 -1.07009 0)
(0.119284 -1.04814 0)
(0.172663 -1.08221 0)
(0.312889 -0.951812 0)
(0.221345 -1.02679 0)
(0.146994 -1.15047 0)
(0.188142 -1.21506 0)
(0.199464 -1.1974 0)
(0.327665 -1.19911 0)
(0.418013 -1.19287 0)
(0.715393 -1.16811 0)
(0.147687 -1.48736 0)
(0.432479 -1.28531 0)
(0.439361 -1.70078 0)
(0.00502066 -1.07398 0)
(0.0168533 -1.08981 0)
(0.0231849 -1.09143 0)
(0.0377942 -1.09271 0)
(0.0430066 -1.0963 0)
(0.0637309 -1.09708 0)
(0.0664346 -1.09502 0)
(0.0975958 -1.10243 0)
(0.0985774 -1.0935 0)
(0.131726 -1.10331 0)
(0.127175 -1.06744 0)
(0.168263 -0.991173 0)
(0.316253 -0.884993 0)
(0.206778 -0.95089 0)
(0.112459 -1.09392 0)
(0.189199 -1.17806 0)
(0.194404 -1.17852 0)
(0.264403 -1.24056 0)
(0.225534 -1.38487 0)
(0.275198 -1.46491 0)
(0.292417 -1.64435 0)
(0.279625 -1.26067 0)
(0.3261 -1.79878 0)
(0.0033691 -1.0875 0)
(0.0158836 -1.09931 0)
(0.019576 -1.10404 0)
(0.0349322 -1.1056 0)
(0.0362309 -1.11476 0)
(0.0588856 -1.11672 0)
(0.0557694 -1.12901 0)
(0.0927344 -1.13087 0)
(0.0723671 -1.13104 0)
(0.148306 -1.10952 0)
(0.221587 -1.1132 0)
(0.299766 -1.08178 0)
(0.480988 -1.05123 0)
(0.133432 -1.32209 0)
(0.0307283 -1.12174 0)
(0.145308 -1.18354 0)
(0.142568 -1.20258 0)
(0.195575 -1.2476 0)
(0.142395 -1.39469 0)
(0.264412 -1.31582 0)
(0.322916 -1.35172 0)
(0.205728 -1.45717 0)
(0.237624 -1.47079 0)
(0.00346169 -1.10017 0)
(0.0132435 -1.11067 0)
(0.0174532 -1.11463 0)
(0.0286948 -1.11559 0)
(0.0300565 -1.12461 0)
(0.0455703 -1.12376 0)
(0.036288 -1.13948 0)
(0.0692618 -1.12877 0)
(0.0934233 -1.15645 0)
(0.123017 -1.11134 0)
(0.14049 -1.18987 0)
(0.217502 -1.20637 0)
(0.198012 -1.27737 0)
(0.148018 -1.46491 0)
(0.228904 -1.20576 0)
(0.140338 -1.20167 0)
(0.136602 -1.22706 0)
(0.162658 -1.28188 0)
(0.100346 -1.39487 0)
(0.113107 -1.30642 0)
(0.321279 -1.47187 0)
(0.223448 -1.50645 0)
(0.208754 -1.60448 0)
(0.00332612 -1.08535 0)
(0.0108576 -1.09368 0)
(0.0146599 -1.09822 0)
(0.0241958 -1.10019 0)
(0.0273859 -1.10953 0)
(0.0405073 -1.10902 0)
(0.0430206 -1.12658 0)
(0.0642405 -1.10431 0)
(0.071663 -1.14611 0)
(0.100726 -1.15247 0)
(0.124764 -1.18862 0)
(0.16294 -1.17976 0)
(0.16173 -1.24062 0)
(0.178201 -1.23951 0)
(0.259154 -1.21994 0)
(0.12838 -1.15856 0)
(0.0609146 -1.2125 0)
(0.101761 -1.2363 0)
(0.0453692 -1.34803 0)
(-0.0170827 -1.37176 0)
(0.216385 -1.44034 0)
(0.128537 -1.54993 0)
(0.0353689 -1.6489 0)