/*--------------------------------*- C++ -*----------------------------------*\
| =========                 |                                                 |
| \\      /  F ield         | foam-extend: Open Source CFD                    |
|  \\    /   O peration     | Version:     4.1                                |
|   \\  /    A nd           | Web:         http://www.foam-extend.org         |
|    \\/     M anipulation  |                                                 |
\*---------------------------------------------------------------------------*/
FoamFile
{
    version     2.0;
    format      ascii;
    class       volVectorField;
    location    "0.3";
    object      U_0;
}
// * * * * * * * * * * * * * * * * * * * * * * * * * * * * * * * * * * * * * //

dimensions      [0 1 -1 0 0 0 0];

internalField   nonuniform List<vector> 
2268
(
(0.0499084 -0.00696558 0)
(0.0619171 -0.00652452 0)
(0.160527 -0.00826581 0)
(0.19131 -0.00396595 0)
(0.261321 -0.00590382 0)
(0.299419 -0.00796907 0)
(0.384207 -0.00486737 0)
(0.428861 -0.00437294 0)
(0.499739 -0.00313158 0)
(0.484881 0.0275211 0)
(0.397738 -0.0839446 0)
(0.401818 -0.0410327 0)
(0.45013 -0.0315688 0)
(0.447764 -0.0190463 0)
(0.465031 -0.0132898 0)
(0.4345 -0.0132074 0)
(0.461105 -0.0499373 0)
(0.468552 -0.0114024 0)
(0.408916 -0.0223933 0)
(0.369227 0.0653201 0)
(0.242327 0.0653865 0)
(0.233695 0.0178789 0)
(0.304226 0.00620082 0)
(0.0497869 -0.0194621 0)
(0.0630668 -0.0194597 0)
(0.160491 -0.0228478 0)
(0.194159 -0.0190813 0)
(0.256006 -0.0207685 0)
(0.313558 -0.0198017 0)
(0.39099 -0.0272792 0)
(0.428039 -0.0224112 0)
(0.518458 -0.0119639 0)
(0.469122 -0.00349814 0)
(0.407858 -0.0716485 0)
(0.432635 -0.0187482 0)
(0.472636 -0.00412683 0)
(0.466853 0.00529413 0)
(0.47705 0.0180904 0)
(0.424675 0.0315214 0)
(0.452915 0.027923 0)
(0.53581 0.0419295 0)
(0.478885 0.0588749 0)
(0.410698 0.00744795 0)
(0.230971 0.0562775 0)
(0.239849 0.180278 0)
(0.350269 0.119088 0)
(0.0479225 -0.0336687 0)
(0.0632129 -0.0325347 0)
(0.157425 -0.0396206 0)
(0.195597 -0.0257722 0)
(0.255311 -0.0347657 0)
(0.331986 -0.0392434 0)
(0.375431 -0.0320347 0)
(0.429088 -0.0338938 0)
(0.531066 -0.0160083 0)
(0.434887 -0.143992 0)
(0.382385 -0.0831551 0)
(0.416928 -0.0401672 0)
(0.437889 -0.0254018 0)
(0.431235 -0.0113338 0)
(0.450751 0.00439622 0)
(0.415096 0.0194848 0)
(0.440577 0.103253 0)
(0.455517 0.0330354 0)
(0.397267 0.0583432 0)
(0.346146 -0.00158851 0)
(0.314264 0.0744251 0)
(0.241223 0.163889 0)
(0.28808 0.154846 0)
(0.0455785 -0.0456855 0)
(0.065057 -0.0451802 0)
(0.15903 -0.0547526 0)
(0.192445 -0.0414037 0)
(0.275251 -0.0546987 0)
(0.33385 -0.0460538 0)
(0.37114 -0.0532969 0)
(0.470224 -0.0609099 0)
(0.431349 -0.0440181 0)
(0.365328 -0.138908 0)
(0.362068 -0.0735057 0)
(0.367811 -0.0454638 0)
(0.384674 -0.0119194 0)
(0.375383 0.00185217 0)
(0.396687 0.0267314 0)
(0.381929 0.0231171 0)
(0.401516 0.0987029 0)
(0.404216 0.0373834 0)
(0.377993 0.0419285 0)
(0.347153 0.0363352 0)
(0.286343 0.107685 0)
(0.230454 0.174744 0)
(0.30981 0.240224 0)
(0.040992 -0.0598793 0)
(0.0649461 -0.0592099 0)
(0.159175 -0.0698504 0)
(0.191658 -0.0527369 0)
(0.279533 -0.068522 0)
(0.326662 -0.0624813 0)
(0.367603 -0.0639264 0)
(0.469484 -0.0435175 0)
(0.387072 -0.151432 0)
(0.320478 -0.121783 0)
(0.323602 -0.0823243 0)
(0.339706 -0.0516044 0)
(0.35259 -0.0250851 0)
(0.352739 -0.0115667 0)
(0.375557 0.0241149 0)
(0.365221 0.0221375 0)
(0.372374 0.0727426 0)
(0.358716 0.0466057 0)
(0.324843 0.0859698 0)
(0.334139 0.0643183 0)
(0.316418 0.132496 0)
(0.227359 0.246609 0)
(0.303095 0.281632 0)
(0.0362825 -0.0706179 0)
(0.0679842 -0.0729996 0)
(0.162358 -0.085411 0)
(0.193446 -0.0696508 0)
(0.267253 -0.0889318 0)
(0.319538 -0.0631409 0)
(0.396929 -0.096472 0)
(0.34447 -0.072354 0)
(0.298466 -0.155965 0)
(0.313087 -0.115108 0)
(0.309164 -0.0834453 0)
(0.335952 -0.0611475 0)
(0.347665 -0.0178695 0)
(0.357621 -0.00907427 0)
(0.374355 0.0223923 0)
(0.371694 0.0277623 0)
(0.375195 0.0967175 0)
(0.375298 0.062419 0)
(0.340695 0.155877 0)
(0.359922 0.100729 0)
(0.372175 0.152469 0)
(0.24908 0.319467 0)
(0.308079 0.370938 0)
(0.0314034 -0.0846184 0)
(0.0693081 -0.0888375 0)
(0.158494 -0.0993891 0)
(0.182615 -0.0763043 0)
(0.265511 -0.0982891 0)
(0.308151 -0.099065 0)
(0.334362 -0.0588478 0)
(0.30508 -0.164141 0)
(0.281402 -0.150743 0)
(0.307716 -0.125044 0)
(0.309249 -0.0963943 0)
(0.343413 -0.0703108 0)
(0.358465 -0.0342956 0)
(0.377611 -0.0216394 0)
(0.374859 0.0114393 0)
(0.396662 0.0262401 0)
(0.375265 0.0639886 0)
(0.383793 0.0707857 0)
(0.342492 0.108013 0)
(0.331496 0.163774 0)
(0.43335 0.185014 0)
(0.278977 0.381979 0)
(0.310713 0.408325 0)
(0.0319927 -0.0940429 0)
(0.0767528 -0.102758 0)
(0.155462 -0.113259 0)
(0.175539 -0.0985306 0)
(0.250631 -0.124134 0)
(0.310676 -0.0681803 0)
(0.262828 -0.11776 0)
(0.273759 -0.178047 0)
(0.278542 -0.161076 0)
(0.309488 -0.129977 0)
(0.317926 -0.101015 0)
(0.361838 -0.0852078 0)
(0.376636 -0.0322045 0)
(0.392939 -0.0191911 0)
(0.39232 0.00716948 0)
(0.404339 0.0276248 0)
(0.396341 0.0379077 0)
(0.410168 0.062096 0)
(0.397716 0.063112 0)
(0.372745 0.188876 0)
(0.465591 0.176713 0)
(0.334366 0.399778 0)
(0.260349 0.548328 0)
(0.446936 0.0570754 0)
(0.199146 0.0647187 0)
(0.019038 -0.0051399 0)
(0.0502332 0.0424486 0)
(-0.300709 0.00762379 0)
(-0.408553 0.063924 0)
(-0.499238 0.0245739 0)
(-0.580506 0.018945 0)
(-0.558048 -0.0247573 0)
(-0.393942 -0.0255197 0)
(-0.321757 0.0180818 0)
(-0.275031 -0.000998506 0)
(-0.236484 -0.0244932 0)
(-0.267868 -0.0253029 0)
(-0.229156 0.0024078 0)
(-0.158486 -0.0187972 0)
(-0.126808 -0.0125938 0)
(-0.0433134 -0.00915516 0)
(-0.0308342 -0.0075266 0)
(0.359357 -0.373883 0)
(0.133857 0.132911 0)
(-0.0351623 -0.0249812 0)
(0.0236974 0.113548 0)
(-0.337743 0.177962 0)
(-0.432594 0.0977551 0)
(-0.530074 0.0959148 0)
(-0.61682 0.0441139 0)
(-0.577865 -0.0614258 0)
(-0.387076 -0.0689737 0)
(-0.317375 -0.0685583 0)
(-0.285989 -0.0699618 0)
(-0.244231 0.00980669 0)
(-0.255756 -0.0399029 0)
(-0.208769 0.0143586 0)
(-0.160128 -0.0182009 0)
(-0.135151 -0.0322413 0)
(-0.0470144 -0.0289949 0)
(-0.0314274 -0.0253897 0)
(0.00974839 -0.3475 0)
(0.142998 0.195295 0)
(-0.103435 0.0369481 0)
(0.104466 0.205613 0)
(-0.387128 0.17167 0)
(-0.483588 0.26148 0)
(-0.533954 0.155167 0)
(-0.672434 0.103864 0)
(-0.629716 -0.153957 0)
(-0.40329 -0.153632 0)
(-0.329861 -0.117118 0)
(-0.254167 -0.130289 0)
(-0.233928 -0.0439289 0)
(-0.271381 -0.0347462 0)
(-0.191044 -0.00975806 0)
(-0.169136 -0.0139996 0)
(-0.139935 -0.0412569 0)
(-0.040078 -0.0504045 0)
(-0.0305666 -0.0418087 0)
(-0.764624 -0.145829 0)
(0.162311 0.251217 0)
(-0.127389 -0.130547 0)
(0.0477354 0.248888 0)
(-0.342546 0.286251 0)
(-0.413705 0.534404 0)
(-0.628117 0.211607 0)
(-0.767017 0.0144984 0)
(-0.696034 -0.167042 0)
(-0.395173 -0.167234 0)
(-0.313012 -0.124412 0)
(-0.243094 -0.0904823 0)
(-0.205931 -0.0616409 0)
(-0.247007 -0.0651599 0)
(-0.196532 -0.00520457 0)
(-0.170012 -0.0231007 0)
(-0.146127 -0.0418095 0)
(-0.046798 -0.0658409 0)
(-0.0301767 -0.058507 0)
(-0.982751 -0.220619 0)
(-0.0247023 0.164062 0)
(-0.245324 0.144224 0)
(0.214829 0.352306 0)
(-0.409838 0.557425 0)
(-0.522159 0.838124 0)
(-0.793787 0.167031 0)
(-0.87154 -0.0738203 0)
(-0.690832 -0.0471154 0)
(-0.43752 -0.352337 0)
(-0.314825 -0.197192 0)
(-0.214887 -0.0922117 0)
(-0.216735 -0.0586386 0)
(-0.248796 -0.0742927 0)
(-0.175637 -0.011674 0)
(-0.178082 -0.0424778 0)
(-0.152815 -0.0621683 0)
(-0.0481663 -0.0823035 0)
(-0.0302639 -0.0750587 0)
(-0.799637 0.0932915 0)
(-0.389275 0.19948 0)
(-0.250663 -0.345431 0)
(0.218328 0.320049 0)
(-0.184302 0.919997 0)
(-0.467982 0.697773 0)
(-0.59573 0.0524519 0)
(-0.860649 -0.136554 0)
(-0.747339 -0.346631 0)
(-0.480143 -0.474672 0)
(-0.208712 -0.299802 0)
(-0.193032 -0.115396 0)
(-0.197035 -0.0919409 0)
(-0.223449 -0.0226232 0)
(-0.175275 -0.0218347 0)
(-0.187538 -0.0535776 0)
(-0.16025 -0.0832539 0)
(-0.0524962 -0.104869 0)
(-0.0275834 -0.0969987 0)
(-0.156423 -0.0140524 0)
(-0.146099 0.150235 0)
(-0.053478 -0.510682 0)
(-0.0371102 0.481433 0)
(-0.0936502 1.02331 0)
(-0.323537 0.454136 0)
(-0.303394 0.248925 0)
(-0.565466 -0.189504 0)
(-0.577102 -0.43033 0)
(-0.395032 -0.360498 0)
(-0.125516 -0.382303 0)
(-0.139341 -0.109811 0)
(-0.180927 -0.0326593 0)
(-0.215654 -0.0168262 0)
(-0.182428 -0.0215966 0)
(-0.203396 -0.0754215 0)
(-0.172934 -0.103863 0)
(-0.0553489 -0.126705 0)
(-0.0270192 -0.114078 0)
(0.0312132 0.221435 0)
(-0.120486 0.119039 0)
(0.0650852 -0.423764 0)
(-0.262199 0.613214 0)
(0.0491138 1.21664 0)
(0.0266151 1.22303 0)
(0.152687 0.223576 0)
(-0.346097 -0.243409 0)
(-0.132892 -0.138552 0)
(-0.0535185 -0.288523 0)
(-0.0926812 -0.431391 0)
(-0.0649467 -0.114622 0)
(-0.157862 -0.0231099 0)
(-0.212418 0.0401559 0)
(-0.20286 -0.0522158 0)
(-0.218591 -0.0989498 0)
(-0.182826 -0.111293 0)
(-0.0582021 -0.156364 0)
(-0.0210388 -0.142128 0)
(0.0331449 -0.119399 0)
(0.0740591 -0.126189 0)
(0.141703 -0.130606 0)
(0.15739 -0.0911459 0)
(0.26582 -0.131826 0)
(0.221506 -0.143446 0)
(0.225559 -0.178669 0)
(0.273434 -0.179339 0)
(0.276918 -0.165719 0)
(0.312409 -0.147742 0)
(0.337589 -0.133665 0)
(0.402337 -0.106677 0)
(0.400602 -0.0578651 0)
(0.3966 -0.0317381 0)
(0.417834 0.00176672 0)
(0.415561 0.0241182 0)
(0.411831 0.0708157 0)
(0.382733 0.100569 0)
(0.407136 0.179407 0)
(0.375263 0.172139 0)
(0.551634 0.202302 0)
(0.692748 0.457208 0)
(0.471874 0.713774 0)
(0.0431265 -0.138493 0)
(0.0565824 -0.15024 0)
(0.158062 -0.147484 0)
(0.137984 -0.17183 0)
(0.153642 -0.159077 0)
(0.198539 -0.213544 0)
(0.227207 -0.17979 0)
(0.246122 -0.209371 0)
(0.289724 -0.206799 0)
(0.328022 -0.182457 0)
(0.381742 -0.182334 0)
(0.441748 -0.139384 0)
(0.455258 -0.0886623 0)
(0.466384 -0.0393673 0)
(0.457316 -0.00963306 0)
(0.480094 0.0282432 0)
(0.457472 0.070312 0)
(0.510593 0.16839 0)
(0.439267 0.200918 0)
(0.4488 0.270045 0)
(0.602584 0.219359 0)
(0.914798 0.313435 0)
(0.68917 0.473292 0)
(0.0255922 -0.170048 0)
(0.0480023 -0.184884 0)
(0.096291 -0.174553 0)
(0.120599 -0.221676 0)
(0.156259 -0.199407 0)
(0.178782 -0.216183 0)
(0.206526 -0.225429 0)
(0.25213 -0.245071 0)
(0.291146 -0.252973 0)
(0.338569 -0.235864 0)
(0.438627 -0.249665 0)
(0.484821 -0.183109 0)
(0.517673 -0.0979874 0)
(0.515666 -0.0358409 0)
(0.557816 -0.00550105 0)
(0.545353 0.0266235 0)
(0.56596 0.0585124 0)
(0.518584 0.121065 0)
(0.509413 0.126514 0)
(0.489153 0.268288 0)
(0.607513 0.205203 0)
(0.864648 0.303797 0)
(0.839376 0.257064 0)
(0.0298137 -0.212086 0)
(0.0430031 -0.219552 0)
(0.0938367 -0.218693 0)
(0.10636 -0.229142 0)
(0.143201 -0.218702 0)
(0.163896 -0.255217 0)
(0.200482 -0.253628 0)
(0.222297 -0.287941 0)
(0.28671 -0.292249 0)
(0.367703 -0.337589 0)
(0.475534 -0.328291 0)
(0.502377 -0.226297 0)
(0.57147 -0.153706 0)
(0.565539 -0.0837831 0)
(0.619423 -0.0409578 0)
(0.620248 0.0183193 0)
(0.583776 0.0934282 0)
(0.5522 0.107491 0)
(0.540082 0.182498 0)
(0.497091 0.226362 0)
(0.622681 0.285651 0)
(0.681536 0.181455 0)
(0.689306 0.276135 0)
(0.0220719 -0.244582 0)
(0.0414977 -0.249458 0)
(0.081879 -0.239762 0)
(0.100904 -0.268101 0)
(0.133897 -0.26143 0)
(0.148807 -0.273153 0)
(0.171613 -0.287835 0)
(0.218998 -0.330835 0)
(0.295666 -0.406535 0)
(0.382673 -0.426381 0)
(0.387194 -0.392874 0)
(0.347372 -0.283142 0)
(0.390672 -0.224374 0)
(0.346484 -0.092123 0)
(0.364384 -0.0469092 0)
(0.342548 0.0625407 0)
(0.355199 0.139324 0)
(0.385178 0.170158 0)
(0.441263 0.206268 0)
(0.43611 0.211895 0)
(0.499811 0.257523 0)
(0.832434 0.0612684 0)
(0.652467 0.11426 0)
(0.018413 -0.278534 0)
(0.0258318 -0.279871 0)
(0.0577847 -0.280805 0)
(0.0667825 -0.27956 0)
(0.0757984 -0.26932 0)
(0.0871185 -0.2906 0)
(0.0938844 -0.328216 0)
(0.141753 -0.407506 0)
(0.1642 -0.449505 0)
(0.140723 -0.422313 0)
(0.108169 -0.303855 0)
(0.0907075 -0.221031 0)
(0.13702 -0.150985 0)
(0.167445 -0.0555208 0)
(0.267373 -0.0386343 0)
(0.335276 0.0441614 0)
(0.296275 0.19976 0)
(0.185088 0.183114 0)
(0.352154 0.148495 0)
(0.215766 0.159534 0)
(0.770876 0.279798 0)
(0.869724 0.0548211 0)
(0.665638 -0.153278 0)
(0.00167262 -0.289865 0)
(0.00445926 -0.289804 0)
(0.00743356 -0.283774 0)
(0.0133687 -0.286669 0)
(0.0181 -0.282389 0)
(0.0328552 -0.295894 0)
(0.0405317 -0.347225 0)
(0.0519934 -0.409158 0)
(0.0533847 -0.415863 0)
(0.0768598 -0.373054 0)
(0.0450569 -0.331904 0)
(0.056261 -0.313302 0)
(0.120199 -0.37542 0)
(0.156625 -0.231103 0)
(0.290708 -0.205079 0)
(0.436778 0.0167578 0)
(0.358228 0.179326 0)
(0.270458 0.228802 0)
(0.421827 0.191989 0)
(-0.00654599 0.00881206 0)
(0.382932 -0.104307 0)
(0.168189 -0.492817 0)
(0.0804411 0.17382 0)
(0.00190393 -0.292613 0)
(0.00307532 -0.295365 0)
(0.00604157 -0.295255 0)
(0.014995 -0.29496 0)
(0.0181739 -0.294061 0)
(0.030987 -0.316079 0)
(0.0401365 -0.359117 0)
(0.0267615 -0.423786 0)
(0.0229424 -0.475591 0)
(0.0331496 -0.420259 0)
(0.000609857 -0.297122 0)
(0.0118337 -0.292678 0)
(0.102587 -0.390557 0)
(0.127554 -0.243744 0)
(0.418996 -0.0885256 0)
(0.481199 0.0265525 0)
(0.452031 0.242463 0)
(0.308314 0.390503 0)
(0.405469 0.295391 0)
(0.205985 0.0484203 0)
(0.0428018 0.0783395 0)
(-0.0737421 0.0396394 0)
(-0.086001 -0.338326 0)
(0.00614867 -0.290419 0)
(0.00715478 -0.296123 0)
(0.00342086 -0.29295 0)
(0.0174044 -0.297427 0)
(0.0201848 -0.298988 0)
(0.0264618 -0.314674 0)
(0.0442091 -0.341702 0)
(0.00710329 -0.391445 0)
(-0.0267458 -0.418986 0)
(-0.0637311 -0.344579 0)
(-0.112169 -0.317194 0)
(-0.0892859 -0.405172 0)
(0.0315171 -0.602744 0)
(-0.0221565 -0.246144 0)
(-0.0136043 -0.25529 0)
(0.122492 -0.0228616 0)
(0.0564965 0.09412 0)
(0.186363 0.342747 0)
(0.525072 0.279541 0)
(0.428208 0.168882 0)
(0.633524 0.15566 0)
(0.458395 -0.217066 0)
(0.374672 -0.152714 0)
(0.0133794 -0.300859 0)
(0.00353786 -0.303047 0)
(-0.0130806 -0.309964 0)
(0.000124149 -0.317429 0)
(-0.0130587 -0.312366 0)
(-0.0144548 -0.338166 0)
(0.0436802 -0.340387 0)
(0.0114781 -0.346958 0)
(-0.0199193 -0.390485 0)
(-0.10753 -0.347662 0)
(-0.159928 -0.325988 0)
(-0.0712225 -0.345449 0)
(-0.115792 -0.530806 0)
(-0.16665 -0.238533 0)
(-0.215227 -0.210859 0)
(-0.226002 -0.030533 0)
(-0.218441 -0.00159884 0)
(-0.0163105 0.269491 0)
(0.192208 0.147747 0)
(0.725192 0.0263894 0)
(0.551338 -0.103285 0)
(0.387333 0.0297749 0)
(0.737961 -0.0170255 0)
(0.018391 -0.299851 0)
(-0.00387629 -0.25656 0)
(-0.0397193 -0.28271 0)
(-0.00181846 -0.289726 0)
(-0.0250061 -0.273929 0)
(0.00330389 -0.377901 0)
(0.0960217 -0.367813 0)
(0.0974541 -0.334408 0)
(0.104639 -0.306785 0)
(0.0528014 -0.348365 0)
(-0.129737 -0.397348 0)
(-0.137778 -0.359102 0)
(-0.171091 -0.431926 0)
(-0.120615 -0.272826 0)
(-0.169772 -0.302749 0)
(-0.128873 -0.0318677 0)
(-0.0578641 -0.079329 0)
(0.0922463 -0.00844687 0)
(0.304682 0.151126 0)
(0.257966 -0.0500266 0)
(0.594174 -0.015098 0)
(0.638402 -0.0457718 0)
(0.557757 -0.184514 0)
(0.02001 -0.340644 0)
(0.0170082 -0.27643 0)
(-0.0332529 -0.350014 0)
(0.0591783 -0.363764 0)
(0.0453742 -0.346324 0)
(0.0698803 -0.461408 0)
(0.125379 -0.465601 0)
(0.165508 -0.332592 0)
(0.143117 -0.395522 0)
(0.0240825 -0.46107 0)
(0.0993151 -0.595713 0)
(0.0419174 -0.415255 0)
(0.000439849 -0.372746 0)
(0.0263746 -0.21663 0)
(-0.00439834 -0.248331 0)
(0.0377463 -0.269847 0)
(0.106689 -0.252219 0)
(0.279255 -0.203318 0)
(0.149678 -0.191008 0)
(0.398113 -0.182572 0)
(0.57436 -0.0782393 0)
(0.411228 -0.292868 0)
(0.572355 -0.130358 0)
(-0.0415966 -0.315296 0)
(-0.0227345 -0.143814 0)
(-0.00450769 -0.264759 0)
(0.129114 -0.254672 0)
(0.126894 -0.282871 0)
(0.0868029 -0.476682 0)
(0.171359 -0.381738 0)
(0.13401 -0.406363 0)
(0.0450749 -0.433161 0)
(0.0681491 -0.359714 0)
(0.0752026 -0.400962 0)
(0.0453586 -0.329932 0)
(0.0547102 -0.316169 0)
(0.0249339 -0.284283 0)
(-0.116781 -0.308535 0)
(0.0864772 -0.267879 0)
(0.167177 -0.409274 0)
(0.197953 -0.308099 0)
(0.230739 -0.108921 0)
(0.44971 -0.0809834 0)
(0.563782 -0.305779 0)
(0.665167 -0.201358 0)
(0.528537 -0.0423982 0)
(0.0189356 -0.278411 0)
(0.193709 -0.389838 0)
(0.0948966 -0.562793 0)
(0.128651 -0.419748 0)
(-0.0541605 -0.52322 0)
(0.0846588 -0.418442 0)
(0.00764566 -0.659481 0)
(-0.0983474 -0.562849 0)
(0.0413714 -0.464636 0)
(-0.0106977 -0.503489 0)
(0.141369 -0.415545 0)
(0.00767555 -0.501001 0)
(-0.0829961 -0.345236 0)
(0.0202377 -0.392918 0)
(0.109083 -0.355379 0)
(0.109209 -0.298443 0)
(0.182478 -0.458045 0)
(0.447072 -0.357426 0)
(0.329236 -0.343552 0)
(0.372299 -0.307481 0)
(0.544105 -0.259628 0)
(0.573036 -0.234609 0)
(0.546903 -0.291168 0)
(-0.139339 -0.541937 0)
(-0.0418926 -0.712694 0)
(0.0477481 -0.793204 0)
(0.0518067 -0.63627 0)
(0.167673 -0.727803 0)
(0.0805401 -0.676643 0)
(-0.0939644 -0.767043 0)
(0.016412 -0.568486 0)
(-0.0162472 -0.544475 0)
(0.0177289 -0.530707 0)
(0.0357962 -0.488612 0)
(0.0368769 -0.585314 0)
(0.0757259 -0.408193 0)
(0.067642 -0.451192 0)
(0.179256 -0.39086 0)
(0.0731156 -0.498056 0)
(0.0930841 -0.401237 0)
(0.33238 -0.453119 0)
(0.456709 -0.683457 0)
(0.457872 -0.44213 0)
(0.69181 -0.42911 0)
(0.710449 -0.211124 0)
(0.614835 -0.401282 0)
(-0.0211492 -0.715617 0)
(0.0619088 -0.79268 0)
(0.0372973 -0.757221 0)
(0.0717266 -0.645213 0)
(0.0557327 -0.66443 0)
(0.073593 -0.767399 0)
(0.0208054 -0.675155 0)
(0.0262697 -0.615609 0)
(0.0133794 -0.516101 0)
(0.01511 -0.542518 0)
(0.0412306 -0.535903 0)
(0.0591707 -0.546711 0)
(0.0612785 -0.486145 0)
(0.0962865 -0.492873 0)
(0.0924699 -0.535889 0)
(0.182033 -0.557443 0)
(0.343301 -0.44568 0)
(0.193177 -0.156394 0)
(0.318037 -0.395798 0)
(0.516714 -0.321281 0)
(0.889433 -0.408459 0)
(0.673607 -0.237134 0)
(0.513704 -0.377808 0)
(0.0953797 -0.536871 0)
(0.138847 -0.88271 0)
(0.0794667 -0.842351 0)
(0.0539423 -0.685495 0)
(0.0556443 -0.717568 0)
(0.0733988 -0.658246 0)
(0.00729908 -0.653126 0)
(0.0390042 -0.55202 0)
(0.00689647 -0.518555 0)
(0.0268938 -0.563243 0)
(0.0376872 -0.605651 0)
(0.0650673 -0.580124 0)
(0.0716328 -0.521305 0)
(0.0241872 -0.492552 0)
(0.23245 -0.51291 0)
(0.363401 -0.527896 0)
(0.408677 -0.681159 0)
(0.367803 -0.554691 0)
(0.407227 -0.567944 0)
(0.591432 -0.443517 0)
(0.757062 -0.496074 0)
(0.688087 -0.524602 0)
(0.626496 -0.372599 0)
(-0.11521 -0.376437 0)
(-0.0940193 -0.626715 0)
(0.156596 -0.551388 0)
(0.132692 -0.581503 0)
(0.0882218 -0.71034 0)
(0.144843 -0.641738 0)
(0.0272997 -0.651115 0)
(0.034078 -0.611421 0)
(-0.00438723 -0.518566 0)
(0.0311869 -0.587898 0)
(0.048631 -0.637843 0)
(0.0661783 -0.578568 0)
(0.0867251 -0.448565 0)
(0.193749 -0.485663 0)
(0.22943 -0.574956 0)
(0.148806 -0.762352 0)
(0.276154 -0.788527 0)
(0.387949 -0.70215 0)
(0.545104 -0.551917 0)
(0.818585 -0.585479 0)
(0.83013 -0.539221 0)
(0.813407 -0.671852 0)
(0.73119 -0.489409 0)
(-0.0315673 -0.323247 0)
(-0.0298337 -0.499619 0)
(-0.0107371 -0.440126 0)
(-0.125563 -0.588539 0)
(-0.00746369 -0.491639 0)
(0.125971 -0.620937 0)
(-0.0808168 -0.614435 0)
(0.0520822 -0.396484 0)
(0.10082 -0.572218 0)
(0.132411 -0.647015 0)
(0.0371701 -0.678891 0)
(0.142811 -0.640115 0)
(0.119595 -0.531872 0)
(0.0530556 -0.654408 0)
(0.201094 -0.665116 0)
(0.284888 -0.614478 0)
(0.470227 -0.523474 0)
(0.599191 -0.586592 0)
(0.573319 -0.499606 0)
(0.684418 -0.580475 0)
(0.675186 -0.538738 0)
(0.737263 -0.479358 0)
(0.864111 -0.288023 0)
(-0.0485395 -0.321804 0)
(-0.0306942 -0.560077 0)
(-0.0772197 -0.490891 0)
(0.028931 -0.376771 0)
(0.0161861 -0.432232 0)
(0.020633 -0.38404 0)
(0.0881652 -0.588484 0)
(-0.0208451 -0.331826 0)
(-0.0566964 -0.38349 0)
(0.16146 -0.720586 0)
(-0.0450183 -0.705151 0)
(0.068077 -0.417578 0)
(0.076955 -0.583146 0)
(0.127411 -0.571778 0)
(0.349784 -0.581789 0)
(0.39631 -0.602395 0)
(0.454802 -0.516767 0)
(0.561604 -0.669958 0)
(0.603655 -0.622852 0)
(0.764925 -0.670467 0)
(0.850985 -0.570241 0)
(0.915477 -0.319964 0)
(0.814681 -0.486324 0)
(-0.0484405 -0.262175 0)
(-0.0194062 -0.545165 0)
(-0.0903957 -0.472542 0)
(-0.0237222 -0.197211 0)
(-0.0118806 -0.481083 0)
(-0.0551181 -0.206034 0)
(0.00857909 -0.427792 0)
(0.137644 -0.251685 0)
(-0.123191 -0.33221 0)
(0.0379974 -0.564801 0)
(0.189152 -0.439669 0)
(0.145024 -0.267281 0)
(0.119246 -0.366228 0)
(0.22012 -0.450696 0)
(0.365003 -0.56896 0)
(0.398178 -0.640628 0)
(0.45294 -0.60974 0)
(0.586769 -0.694332 0)
(0.610988 -0.656922 0)
(0.718408 -0.75474 0)
(0.819996 -0.587801 0)
(0.72789 -0.350402 0)
(0.81606 -0.600635 0)
(-0.0827039 -0.257809 0)
(-0.0286979 -0.493029 0)
(0.0202853 -0.359527 0)
(0.00948146 -0.509228 0)
(0.00174131 -0.297848 0)
(0.0502199 -0.481289 0)
(-0.0102233 -0.147656 0)
(0.0828103 -0.309628 0)
(-0.0455147 -0.22654 0)
(0.118352 -0.480072 0)
(0.131805 -0.245748 0)
(0.1146 -0.24009 0)
(0.126417 -0.355034 0)
(0.229527 -0.577776 0)
(0.335843 -0.683634 0)
(0.403571 -0.701069 0)
(0.42173 -0.674539 0)
(0.53417 -0.742396 0)
(0.510325 -0.648249 0)
(0.646317 -0.681154 0)
(1.02276 -0.609346 0)
(0.720502 -0.435929 0)
(0.690536 -0.550533 0)
(0.137292 -0.618109 0)
(0.137189 -0.747817 0)
(-0.166718 -0.674526 0)
(0.0316247 -0.73947 0)
(-0.0468888 -0.707346 0)
(-0.0358037 -0.673593 0)
(0.0382966 -0.605157 0)
(0.0298763 -0.585101 0)
(0.132931 -0.448899 0)
(0.096257 -0.507344 0)
(0.173664 -0.457513 0)
(-0.0182348 -0.34048 0)
(0.0475603 -0.425418 0)
(0.23277 -0.567618 0)
(0.355305 -0.690969 0)
(0.409676 -0.626996 0)
(0.471313 -0.667159 0)
(0.677429 -0.773844 0)
(0.661737 -0.817822 0)
(0.585424 -0.667494 0)
(0.867424 -0.423166 0)
(0.776541 -0.790829 0)
(0.766567 -0.68835 0)
(0.0125292 -0.752255 0)
(0.0190887 -0.896051 0)
(0.0154106 -0.871007 0)
(0.0337041 -0.77652 0)
(0.0140904 -0.86432 0)
(0.0649811 -0.70712 0)
(0.0966984 -0.77955 0)
(0.18434 -0.630935 0)
(0.265845 -0.714286 0)
(0.151814 -0.778794 0)
(0.0161385 -0.634652 0)
(0.219879 -0.614532 0)
(0.251541 -0.723388 0)
(0.213609 -0.690928 0)
(0.314736 -0.811166 0)
(0.449421 -0.952713 0)
(0.40075 -0.903506 0)
(0.490892 -0.864144 0)
(0.5327 -1.05971 0)
(0.738952 -0.976274 0)
(0.788023 -0.911116 0)
(0.622512 -0.973951 0)
(0.690612 -0.774162 0)
(0.00658652 -0.726686 0)
(0.0243708 -0.783112 0)
(0.00517809 -0.772789 0)
(0.0209397 -0.781449 0)
(0.0186394 -0.759511 0)
(0.039765 -0.759821 0)
(0.0970048 -0.752538 0)
(0.084338 -0.752633 0)
(0.0819184 -0.808887 0)
(0.133695 -0.873455 0)
(0.167157 -0.769783 0)
(0.0835495 -0.768661 0)
(0.243533 -0.829174 0)
(0.278266 -0.837849 0)
(0.210516 -0.922693 0)
(0.371079 -1.08576 0)
(0.580081 -1.02416 0)
(0.540428 -1.01917 0)
(0.387325 -1.08339 0)
(0.601241 -0.97527 0)
(0.84703 -1.17534 0)
(0.76914 -1.06883 0)
(0.87446 -0.939685 0)
(0.00282134 -0.79433 0)
(0.0236288 -0.843903 0)
(0.0257946 -0.842625 0)
(0.0507569 -0.825371 0)
(0.0517134 -0.818448 0)
(0.0783413 -0.800707 0)
(0.0901084 -0.813425 0)
(0.112647 -0.805978 0)
(0.135668 -0.796735 0)
(0.131255 -0.76463 0)
(0.13967 -0.807814 0)
(0.164205 -0.791564 0)
(0.199848 -0.743172 0)
(0.205569 -0.877871 0)
(0.239096 -0.986408 0)
(0.356407 -0.885897 0)
(0.535704 -1.01852 0)
(0.516645 -1.0488 0)
(0.41411 -1.11155 0)
(0.62058 -0.982777 0)
(0.706687 -1.1049 0)
(0.741658 -1.03962 0)
(0.83603 -1.03964 0)
(0.00197581 -0.798895 0)
(0.0216162 -0.849152 0)
(0.0243493 -0.84503 0)
(0.0412362 -0.841645 0)
(0.0507709 -0.814941 0)
(0.0608496 -0.843308 0)
(0.083669 -0.825289 0)
(0.0893906 -0.841337 0)
(0.112002 -0.846209 0)
(0.125469 -0.856926 0)
(0.150764 -0.844394 0)
(0.150432 -0.863266 0)
(0.189908 -0.854251 0)
(0.192489 -0.90944 0)
(0.267328 -0.999356 0)
(0.417073 -1.03448 0)
(0.562048 -0.980899 0)
(0.497143 -1.04766 0)
(0.232236 -1.10379 0)
(0.425682 -1.09154 0)
(0.75237 -1.30004 0)
(0.818794 -1.1844 0)
(0.894218 -1.13352 0)
(-0.00371152 -0.836461 0)
(0.0254002 -0.875977 0)
(0.0381581 -0.881466 0)
(0.0714508 -0.862546 0)
(0.0726992 -0.881733 0)
(0.0576635 -0.864133 0)
(0.0936976 -0.874674 0)
(0.101431 -0.872478 0)
(0.119348 -0.869486 0)
(0.132136 -0.860858 0)
(0.13867 -0.860134 0)
(0.165673 -0.870889 0)
(0.169475 -0.847611 0)
(0.188073 -0.914742 0)
(0.215301 -0.957267 0)
(0.51047 -0.979815 0)
(0.62274 -1.26367 0)
(0.450922 -1.14988 0)
(0.240533 -0.980735 0)
(0.334533 -1.25595 0)
(0.606474 -1.34237 0)
(0.927252 -1.21283 0)
(0.899722 -1.15978 0)
(0.00756598 -0.847279 0)
(0.0198548 -0.88031 0)
(0.0314282 -0.893957 0)
(0.0463777 -0.896574 0)
(0.0588525 -0.916348 0)
(0.0725393 -0.904222 0)
(0.0854756 -0.903503 0)
(0.100523 -0.902646 0)
(0.110617 -0.90322 0)
(0.132243 -0.906909 0)
(0.144519 -0.907309 0)
(0.174037 -0.925183 0)
(0.191166 -0.899145 0)
(0.222822 -0.957779 0)
(0.269307 -0.973754 0)
(0.292097 -1.05408 0)
(0.501936 -1.38109 0)
(0.695621 -1.12719 0)
(-0.00374509 -1.25804 0)
(0.162777 -1.25219 0)
(0.716742 -1.28776 0)
(0.924454 -1.41194 0)
(0.897711 -1.23752 0)
(0.00412289 -0.890752 0)
(0.0266305 -0.928529 0)
(0.036546 -0.932771 0)
(0.0555461 -0.929116 0)
(0.0635736 -0.929904 0)
(0.0753394 -0.927754 0)
(0.0859327 -0.927647 0)
(0.103232 -0.927215 0)
(0.111406 -0.928995 0)
(0.135644 -0.927715 0)
(0.133714 -0.934673 0)
(0.175998 -0.949362 0)
(0.156765 -0.939988 0)
(0.209871 -0.998555 0)
(0.216596 -1.01169 0)
(0.292102 -1.10842 0)
(0.594825 -1.05894 0)
(0.591824 -1.27959 0)
(0.0728145 -1.53382 0)
(0.338412 -1.10529 0)
(0.438852 -1.14146 0)
(0.833166 -1.18815 0)
(1.10366 -1.27378 0)
(0.00822926 -0.909613 0)
(0.0216115 -0.947481 0)
(0.0337016 -0.950753 0)
(0.0482512 -0.954309 0)
(0.0592541 -0.95751 0)
(0.0748845 -0.955021 0)
(0.0870443 -0.955113 0)
(0.102197 -0.959197 0)
(0.111701 -0.961788 0)
(0.130965 -0.954512 0)
(0.129823 -0.971802 0)
(0.173786 -0.958123 0)
(0.117249 -0.967616 0)
(0.229895 -0.999123 0)
(0.29833 -1.0467 0)
(0.387614 -1.03606 0)
(0.310347 -1.11145 0)
(0.325083 -1.44708 0)
(0.408227 -1.29429 0)
(0.52447 -1.20201 0)
(0.500297 -1.09805 0)
(0.642652 -1.20349 0)
(0.844194 -1.40239 0)
(0.00528648 -0.951409 0)
(0.0258503 -0.984076 0)
(0.0339643 -0.985163 0)
(0.0520751 -0.983699 0)
(0.0608699 -0.979041 0)
(0.0775472 -0.98614 0)
(0.0858263 -0.978622 0)
(0.103643 -0.979972 0)
(0.111291 -0.978004 0)
(0.12891 -0.970464 0)
(0.132998 -0.98845 0)
(0.164931 -0.951263 0)
(0.126669 -0.992567 0)
(0.238415 -0.948803 0)
(0.313288 -1.07443 0)
(0.314561 -1.17092 0)
(0.232679 -1.27034 0)
(0.400634 -1.44526 0)
(0.592502 -1.21809 0)
(0.532897 -1.19447 0)
(0.293517 -1.14736 0)
(0.562555 -1.36037 0)
(0.883644 -1.55094 0)
(0.00740923 -0.972098 0)
(0.0219933 -1.00455 0)
(0.0325067 -1.00364 0)
(0.0479441 -1.0085 0)
(0.0579599 -1.00917 0)
(0.0746646 -1.00704 0)
(0.0853244 -1.00703 0)
(0.100231 -1.01435 0)
(0.114752 -1.00811 0)
(0.124993 -1.00831 0)
(0.145401 -1.01597 0)
(0.160637 -1.00005 0)
(0.170012 -1.04955 0)
(0.225347 -0.978372 0)
(0.221391 -1.08976 0)
(0.278392 -1.20173 0)
(0.179593 -1.20243 0)
(0.40423 -1.17835 0)
(0.711741 -1.3266 0)
(0.616998 -1.51183 0)
(0.259751 -1.17893 0)
(0.328722 -1.22911 0)
(0.645614 -1.35423 0)
(0.00504729 -1.01088 0)
(0.0248294 -1.03589 0)
(0.0304277 -1.03632 0)
(0.049738 -1.03579 0)
(0.0546968 -1.03116 0)
(0.0741337 -1.03938 0)
(0.0813545 -1.02734 0)
(0.0965741 -1.03535 0)
(0.109706 -1.02169 0)
(0.113078 -1.02757 0)
(0.144498 -1.02186 0)
(0.110349 -1.02341 0)
(0.194899 -1.0432 0)
(0.264522 -1.01273 0)
(0.215601 -1.07511 0)
(0.30937 -1.18031 0)
(0.249305 -1.22071 0)
(0.301861 -1.22364 0)
(0.316917 -1.59232 0)
(0.585716 -1.62066 0)
(0.460391 -1.32911 0)
(0.462479 -1.37622 0)
(0.57385 -1.29281 0)
(0.00616526 -1.03232 0)
(0.0205953 -1.05525 0)
(0.0287799 -1.05445 0)
(0.0451364 -1.05684 0)
(0.0522808 -1.05929 0)
(0.0725094 -1.05955 0)
(0.0768493 -1.05417 0)
(0.100521 -1.06599 0)
(0.105508 -1.04665 0)
(0.126746 -1.06129 0)
(0.146384 -1.02117 0)
(0.123742 -1.08247 0)
(0.222493 -0.934786 0)
(0.281183 -1.00391 0)
(0.168336 -1.13026 0)
(0.196432 -1.20334 0)
(0.168492 -1.28479 0)
(0.206303 -1.27127 0)
(0.303989 -1.31397 0)
(0.751593 -1.10764 0)
(0.453333 -1.26895 0)
(0.51768 -1.58186 0)
(0.621602 -1.31631 0)
(0.00353764 -1.06451 0)
(0.02125 -1.08239 0)
(0.0245208 -1.08423 0)
(0.0441602 -1.08403 0)
(0.0457161 -1.08515 0)
(0.0678932 -1.08748 0)
(0.0678004 -1.08351 0)
(0.0953197 -1.08665 0)
(0.0928189 -1.07905 0)
(0.131131 -1.07905 0)
(0.119824 -1.0571 0)
(0.173071 -1.09114 0)
(0.313741 -0.960761 0)
(0.221862 -1.0353 0)
(0.147137 -1.15984 0)
(0.188518 -1.22452 0)
(0.1998 -1.20671 0)
(0.328178 -1.20846 0)
(0.418646 -1.20166 0)
(0.71809 -1.17799 0)
(0.146761 -1.49798 0)
(0.433947 -1.29459 0)
(0.43951 -1.71209 0)
(0.00504405 -1.08311 0)
(0.0169149 -1.09895 0)
(0.0232916 -1.10056 0)
(0.037951 -1.10183 0)
(0.0431964 -1.10541 0)
(0.0639915 -1.10622 0)
(0.0667474 -1.10414 0)
(0.0980009 -1.11158 0)
(0.099076 -1.10262 0)
(0.13231 -1.11253 0)
(0.128019 -1.07648 0)
(0.169054 -0.999967 0)
(0.317822 -0.893602 0)
(0.207196 -0.958864 0)
(0.112171 -1.10308 0)
(0.189735 -1.18717 0)
(0.194893 -1.18774 0)
(0.264779 -1.24969 0)
(0.225502 -1.39437 0)
(0.277165 -1.47482 0)
(0.291792 -1.65557 0)
(0.279932 -1.26981 0)
(0.325888 -1.81066 0)
(0.00339907 -1.09668 0)
(0.0159261 -1.10849 0)
(0.019676 -1.11322 0)
(0.0350584 -1.11482 0)
(0.0364242 -1.12395 0)
(0.0591584 -1.12587 0)
(0.0560672 -1.13817 0)
(0.0931136 -1.14016 0)
(0.0728625 -1.14034 0)
(0.148883 -1.11891 0)
(0.222464 -1.12241 0)
(0.300872 -1.09098 0)
(0.483194 -1.06033 0)
(0.133582 -1.33229 0)
(0.0304122 -1.13103 0)
(0.145544 -1.19313 0)
(0.14296 -1.21247 0)
(0.195571 -1.25824 0)
(0.142297 -1.40459 0)
(0.26495 -1.32503 0)
(0.322493 -1.36253 0)
(0.205891 -1.46781 0)
(0.237259 -1.48213 0)
(0.0034829 -1.10901 0)
(0.0132712 -1.11952 0)
(0.0175272 -1.12349 0)
(0.0287641 -1.12448 0)
(0.030214 -1.13353 0)
(0.0456773 -1.13274 0)
(0.0365232 -1.14847 0)
(0.0695001 -1.13792 0)
(0.0938658 -1.16558 0)
(0.123512 -1.12029 0)
(0.141128 -1.19919 0)
(0.218374 -1.21596 0)
(0.198998 -1.28708 0)
(0.148267 -1.47582 0)
(0.229583 -1.21493 0)
(0.140434 -1.21151 0)
(0.136796 -1.23663 0)
(0.163205 -1.29204 0)
(0.100361 -1.40456 0)
(0.112988 -1.3163 0)
(0.320806 -1.48192 0)
(0.223048 -1.51636 0)
(0.209178 -1.61514 0)
(0.00334483 -1.09467 0)
(0.0108805 -1.103 0)
(0.0147264 -1.10755 0)
(0.0242673 -1.10956 0)
(0.0275156 -1.11893 0)
(0.0406256 -1.1185 0)
(0.0431998 -1.13615 0)
(0.0644583 -1.11388 0)
(0.0718385 -1.1558 0)
(0.101094 -1.16241 0)
(0.125192 -1.19846 0)
(0.163641 -1.18969 0)
(0.16222 -1.25044 0)
(0.178846 -1.2498 0)
(0.259982 -1.22908 0)
(0.128456 -1.16802 0)
(0.0606473 -1.22094 0)
(0.101839 -1.24528 0)
(0.0451119 -1.3565 0)
(-0.0172122 -1.38118 0)
(0.21631 -1.45013 0)