/*--------------------------------*- C++ -*----------------------------------*\
| =========                 |                                                 |
| \\      /  F ield         | foam-extend: Open Source CFD                    |
|  \\    /   O peration     | Version:     4.1                                |
|   \\  /    A nd           | Web:         http://www.foam-extend.org         |
|    \\/     M anipulation  |                                                 |
\*---------------------------------------------------------------------------*/
FoamFile
{
    version     2.0;
    format      ascii;
    class       volScalarField;
    location    "0.8";
    object      alpha1;
}
// * * * * * * * * * * * * * * * * * * * * * * * * * * * * * * * * * * * * * //

dimensions      [0 0 0 0 0 0 0];

internalField   nonuniform List<scalar> 
2268
(
0.645329
0.554728
0.847141
0.830359
0.77523
0.602872
0.627701
0.606573
0.725353
0.982058
0.999002
0.999034
0.999655
0.999818
0.999874
0.999933
0.999976
0.999965
0.99957
0.99808
0.996294
0.979978
0.596625
0.610069
0.497357
0.7949
0.50823
0.685485
0.704964
0.684952
0.683728
0.809097
0.97196
0.993171
0.995478
0.998771
0.999552
0.999787
0.999858
0.999927
0.999965
0.999883
0.999847
0.999724
0.995859
0.975968
0.582995
0.417098
0.780986
0.392683
0.421848
0.637775
0.684169
0.75694
0.829893
0.76601
0.986089
0.989252
0.997808
0.99934
0.999625
0.99968
0.999863
0.999945
0.999967
0.999953
0.999507
0.997046
0.990958
0.563859
0.375681
0.596544
0.38757
0.360399
0.592731
0.683513
0.770586
0.766867
0.28581
0.810287
0.975882
0.995488
0.998692
0.998739
0.998335
0.999354
0.999615
0.999884
0.999869
0.99958
0.996641
0.992066
0.573252
0.362006
0.458192
0.387966
0.2843
0.612255
0.636626
0.740344
0.755055
0.43858
0.801576
0.959822
0.988819
0.996433
0.995182
0.992619
0.99797
0.998675
0.999438
0.99937
0.998275
0.991928
0.990196
0.618003
0.23299
0.307482
0.274444
0.243855
0.364904
0.482395
0.670612
0.743146
0.659473
0.816337
0.955579
0.979287
0.990698
0.986708
0.976131
0.992013
0.991096
0.995887
0.995673
0.990576
0.974148
0.976785
0.35176
0.121773
0.204385
0.190482
0.217081
0.396156
0.413917
0.561233
0.706028
0.768559
0.871681
0.953001
0.959475
0.979123
0.972032
0.927605
0.966167
0.949908
0.972147
0.964506
0.967033
0.950469
0.930359
0.113612
0.111767
0.133089
0.160064
0.175879
0.235781
0.343199
0.620619
0.637841
0.482259
0.803792
0.938287
0.912966
0.97077
0.959264
0.839986
0.924014
0.841064
0.904369
0.856915
0.868294
0.889174
0.835712
0.658033
0.660699
0.660775
0.660815
0.660578
0.659664
0.654794
0.646209
0.64333
0.620082
0.576488
0.527168
0.511254
0.508669
0.523022
0.570186
0.606719
0.616998
0.678254
0.656492
0.660272
0.66068
0.656864
0.649386
0.630712
0.613235
0.601577
0.590321
0.558795
0.529545
0.514802
0.499179
0.516795
0.56833
0.639158
0.681939
0.700787
0.715758
0.651798
0.645722
0.632571
0.627833
0.608667
0.528965
0.491666
0.485325
0.508614
0.520376
0.49409
0.526912
0.539233
0.594851
0.62744
0.640492
0.623704
0.645638
0.706476
0.64363
0.619944
0.603236
0.600917
0.563308
0.44048
0.364024
0.342219
0.372739
0.354146
0.40401
0.489077
0.560528
0.586045
0.576817
0.545428
0.509124
0.558912
0.694563
0.631934
0.593073
0.572101
0.55694
0.451971
0.346174
0.271456
0.275019
0.242279
0.223466
0.252648
0.294089
0.49936
0.543754
0.468652
0.368185
0.413398
0.510928
0.688456
0.618221
0.558898
0.513807
0.469111
0.439109
0.286597
0.180075
0.260176
0.186638
0.190337
0.192238
0.160515
0.235294
0.290639
0.346643
0.225109
0.303621
0.490483
0.68464
0.599908
0.509466
0.431893
0.341071
0.390732
0.25114
0.156878
0.183255
0.177484
0.170715
0.162269
0.154973
0.156418
0.149827
0.185643
0.203513
0.25928
0.496598
0.683189
0.569193
0.383624
0.311998
0.281473
0.342222
0.221586
0.247073
0.214381
0.206038
0.198213
0.194312
0.220129
0.240615
0.215927
0.265433
0.283232
0.33368
0.559123
0.685424
0.0583432
0.108514
0.132862
0.178864
0.281958
0.361006
0.416596
0.604404
0.451826
0.655588
0.748786
0.820425
0.692695
0.950358
0.913698
0.683709
0.814728
0.695358
0.715254
0.771372
0.720313
0.555269
0.501482
0.0461247
0.126179
0.221943
0.231658
0.326983
0.427649
0.296991
0.539612
0.314245
0.577315
0.356152
0.561048
0.405164
0.744745
0.752657
0.517715
0.676119
0.676268
0.718107
0.741733
0.62311
0.49473
0.435668
0.0270485
0.121801
0.241306
0.240477
0.272261
0.361385
0.260981
0.305004
0.303104
0.421435
0.325957
0.500276
0.353311
0.657135
0.737323
0.485625
0.552739
0.670343
0.698466
0.68156
0.562559
0.485576
0.46099
0.0332013
0.15506
0.26982
0.264371
0.165205
0.254972
0.314675
0.431667
0.408447
0.231577
0.271991
0.46469
0.331874
0.544392
0.389157
0.264046
0.338136
0.559955
0.649401
0.627368
0.531016
0.460388
0.418732
0.0146668
0.0325299
0.122812
0.277838
0.0983772
0.142049
0.141861
0.22493
0.233472
0.0726173
0.152518
0.438279
0.228811
0.176621
0.133509
0.109515
0.182922
0.364166
0.517145
0.517024
0.432611
0.38547
0.212705
0.0128832
0.0198066
0.0419556
0.11969
0.0384925
0.0679105
0.035868
0.0640058
0.0798419
0.0347576
0.239152
0.537249
0.236735
0.0593919
0.0358217
0.0414017
0.0990007
0.197169
0.276807
0.290392
0.261739
0.184018
0.0981198
0.0124711
0.0147412
0.0179457
0.0257734
0.0199778
0.0320905
0.012833
0.0210815
0.0212466
0.00968228
0.0484745
0.337202
0.0596404
0.016681
0.0165312
0.0374104
0.0642247
0.0976939
0.115989
0.135195
0.126357
0.0805367
0.0673936
0.0120464
0.012464
0.0116677
0.0126212
0.0108278
0.0104464
0.00631377
0.00876204
0.0062397
0.00453285
0.0152141
0.0513672
0.0113886
0.0126511
0.0190502
0.0259208
0.0327922
0.0409995
0.0489242
0.0546247
0.0481619
0.0288802
0.0511075
0.0113442
0.00992076
0.00982005
0.0111576
0.0100042
0.00863213
0.00631039
0.00451291
0.00319532
0.00371114
0.00704512
0.00891631
0.00879587
0.0110198
0.0119485
0.0117339
0.0119582
0.0138076
0.0178532
0.0187335
0.0229916
0.024663
0.0284455
0.00933283
0.00633972
0.00617632
0.00644324
0.00442636
0.00413302
0.00510429
0.00380958
0.00208653
0.0016789
0.00282093
0.00515118
0.00641534
0.00699048
0.00633814
0.00630072
0.00788095
0.0133445
0.0225211
0.0308129
0.0358885
0.0385034
0.0402352
0.00739666
0.00357652
0.00236664
0.00161156
0.000954964
0.00131992
0.00284835
0.00303341
0.00186735
0.00199124
0.00330296
0.0038281
0.00394573
0.00364526
0.00340346
0.00355668
0.00578873
0.0123157
0.0234273
0.0349105
0.0387401
0.0395956
0.0407674
0.00538351
0.00229993
0.000725625
0.00043403
0.000470416
0.00135255
0.00211858
0.00210543
0.00139192
0.00149384
0.00230934
0.00256463
0.00262039
0.00324925
0.00365735
0.00446097
0.0077565
0.0167735
0.0219768
0.0226847
0.0185761
0.0143358
0.0144392
0.0030979
0.00147064
0.000355047
0.000210986
0.00038987
0.00100865
0.00138989
0.00149376
0.00111203
0.00223903
0.00568512
0.00817451
0.00931932
0.00984411
0.0135442
0.0146842
0.0136166
0.0164161
0.0129356
0.00751279
0.00487389
0.00424773
0.00587582
0.00128761
0.000898253
0.000237764
0.000117378
0.000224077
0.000883257
0.00158574
0.00242605
0.0049546
0.00999231
0.0132485
0.0145166
0.0148076
0.0150426
0.0148218
0.013356
0.0109719
0.00836793
0.00253417
0.00102087
0.00105733
0.00194385
0.00365429
0.000424685
0.000526648
0.000171738
9.63185e-05
0.000448337
0.00132069
0.00276709
0.00570813
0.00905863
0.010445
0.0110455
0.00930526
0.00772147
0.00651363
0.00555034
0.00458771
0.0038662
0.00232643
0.00207155
0.00421433
0.00550129
0.0071114
0.0114219
0.000129028
0.00025551
9.21073e-05
7.56955e-05
0.000332221
0.00112386
0.00268856
0.00527559
0.00816184
0.00887123
0.00735671
0.00404336
0.00198098
0.0012199
0.000978433
0.00096259
0.00112739
0.000956552
0.0010855
0.0017444
0.00314108
0.00688094
0.0111574
4.31024e-05
0.000126375
4.80778e-05
3.41228e-05
0.000160542
0.000740108
0.00211325
0.0045507
0.00625432
0.00575456
0.00335309
0.00231274
0.00127282
0.000911467
0.000714448
0.000483442
0.000353356
0.000391712
0.000617196
0.00158012
0.00477408
0.00733099
0.00791932
1.51164e-05
5.72021e-05
2.40352e-05
1.29211e-05
5.18788e-05
0.000328692
0.00126977
0.00249788
0.00306247
0.00393224
0.00187048
0.0018106
0.00105074
0.000513282
0.000362882
0.000373993
0.00019688
0.000141073
0.00043157
0.00187702
0.0047477
0.00627033
0.00475158
6.3048e-06
2.26662e-05
1.22251e-05
4.77668e-06
1.00732e-05
8.8702e-05
0.000463788
0.00059817
0.000892936
0.0025436
0.000996504
0.000556521
0.000597494
0.000350877
0.000130073
0.000197778
0.00012897
8.76423e-05
0.000315988
0.00145789
0.00381673
0.00510594
0.00481461
2.16444e-06
6.69723e-06
5.27382e-06
2.24252e-06
1.52586e-06
2.07716e-05
0.000140154
0.000110226
0.000239275
0.00100225
0.000521254
0.000219669
0.000224834
0.000168741
8.40548e-05
7.11254e-05
7.593e-05
4.93363e-05
7.72836e-05
0.000536748
0.00164651
0.00268091
0.00280808
6.69733e-07
1.81883e-06
1.62204e-06
9.82804e-07
3.03662e-07
4.31069e-06
2.95683e-05
2.16939e-05
4.62982e-05
0.000275388
0.000171086
8.25689e-05
7.06118e-05
5.94943e-05
3.80246e-05
1.8511e-05
3.24868e-05
2.88141e-05
1.6437e-05
0.000124222
0.000383387
0.000627764
0.000664807
1.91283e-07
4.30684e-07
4.22847e-07
3.60028e-07
7.39043e-08
7.73854e-07
4.79e-06
3.33139e-06
8.01051e-06
4.01847e-05
4.83594e-05
2.43442e-05
2.28723e-05
2.2396e-05
1.51077e-05
4.93887e-06
1.03213e-05
1.23993e-05
6.36702e-06
2.3798e-05
4.45461e-05
6.92498e-05
9.5427e-05
4.68942e-08
9.51374e-08
1.0076e-07
1.21031e-07
1.71524e-08
1.25902e-07
5.00211e-07
5.2481e-07
9.2323e-07
5.19543e-06
1.33361e-05
6.75281e-06
7.2509e-06
6.07483e-06
4.36894e-06
1.71176e-06
1.88654e-06
4.23293e-06
1.94281e-06
4.91503e-06
4.4622e-06
5.61861e-06
8.25248e-06
8.34959e-09
2.46674e-08
2.54345e-08
3.40278e-08
4.44776e-09
1.68301e-08
5.35701e-08
5.7794e-08
1.23931e-07
5.82411e-07
3.18575e-06
2.14395e-06
2.13938e-06
1.23274e-06
9.49833e-07
5.08286e-07
3.4138e-07
9.41238e-07
5.66223e-07
8.11808e-07
5.62246e-07
4.85074e-07
2.59817e-07
1.40225e-09
5.97378e-09
6.0798e-09
8.81792e-09
1.21866e-09
1.70094e-09
8.21334e-09
6.33737e-09
1.69597e-08
5.09337e-08
6.95792e-07
5.98934e-07
5.61226e-07
2.91864e-07
2.13593e-07
1.06652e-07
7.88915e-08
1.44821e-07
1.26901e-07
1.46725e-07
8.65424e-08
5.5313e-08
2.34285e-08
2.88806e-10
1.31829e-09
1.38476e-09
2.08425e-09
3.20719e-10
2.09792e-10
1.20119e-09
8.22218e-10
2.30055e-09
5.26356e-09
1.37411e-07
1.3128e-07
1.21825e-07
5.96777e-08
4.20972e-08
2.13035e-08
1.77766e-08
1.36889e-08
1.96926e-08
2.16489e-08
1.15381e-08
5.97035e-09
2.13296e-09
5.06846e-11
2.45334e-10
2.91583e-10
4.42123e-10
7.53185e-11
3.42965e-11
1.55639e-10
1.17203e-10
2.37692e-10
4.99305e-10
2.63332e-08
2.51701e-08
2.26176e-08
1.20794e-08
7.17314e-09
2.98988e-09
3.16091e-09
2.28943e-09
1.96725e-09
2.4172e-09
1.8217e-09
5.62205e-10
2.32151e-10
8.51036e-12
4.22884e-11
5.72582e-11
8.51627e-11
1.65423e-11
5.10303e-12
2.02126e-11
2.06614e-11
1.95442e-11
3.72505e-11
4.73696e-09
4.27165e-09
4.05062e-09
1.81123e-09
9.56591e-10
5.31998e-10
4.26257e-10
3.07669e-10
2.51334e-10
1.15638e-10
1.86421e-10
8.67481e-11
2.0349e-11
1.36857e-12
6.74866e-12
1.03922e-11
1.4852e-11
3.35182e-12
7.10598e-13
2.66404e-12
2.98722e-12
1.82887e-12
2.51188e-12
6.87513e-10
5.96893e-10
6.02337e-10
3.1898e-10
8.57371e-11
7.68066e-11
5.46638e-11
4.18623e-11
2.27753e-11
1.01723e-11
1.7887e-11
7.0795e-12
1.99885e-12
2.1777e-13
9.79938e-13
1.74344e-12
2.35523e-12
5.99965e-13
1.07858e-13
3.47278e-13
4.10727e-13
1.78024e-13
2.02671e-13
7.78064e-11
7.32717e-11
8.73664e-11
4.27811e-11
1.13292e-11
7.96846e-12
5.79425e-12
4.89547e-12
1.86384e-12
1.19238e-12
8.39662e-13
3.23852e-13
1.25844e-13
4.40203e-14
1.22125e-13
2.79943e-13
3.54383e-13
1.06415e-13
2.79221e-14
5.12923e-14
6.4504e-14
2.83662e-14
2.93099e-14
4.91818e-12
9.30145e-12
9.99872e-12
4.82392e-12
1.54388e-12
4.84279e-13
5.60774e-13
5.07594e-13
2.39142e-13
8.37108e-14
5.66769e-14
3.51941e-14
1.21569e-14
1.7486e-14
4.94049e-15
5.46785e-14
6.2228e-14
2.67009e-14
1.58207e-14
1.63758e-14
1.92624e-14
1.43774e-14
1.4988e-14
3.56715e-13
1.09307e-12
1.01036e-12
5.18474e-13
1.83187e-13
4.64628e-14
5.92859e-14
5.76206e-14
3.45279e-14
1.55431e-14
1.13243e-14
7.16094e-15
7.38298e-15
1.45439e-14
0
2.28706e-14
1.96509e-14
1.33782e-14
1.33227e-14
1.54876e-14
1.61537e-14
1.60982e-14
1.53211e-14
4.81837e-14
1.05027e-13
1.0153e-13
5.77316e-14
3.11973e-14
1.85407e-14
2.07057e-14
1.95954e-14
1.70974e-14
1.36557e-14
1.16573e-14
7.21645e-15
9.04832e-15
1.22125e-14
0
1.31561e-14
1.49325e-14
1.34337e-14
1.25455e-14
1.37113e-14
1.59872e-14
1.53211e-14
1.59317e-14
1.87628e-14
2.28706e-14
2.43694e-14
1.93734e-14
1.81521e-14
1.74305e-14
1.87628e-14
1.82632e-14
1.52101e-14
1.31561e-14
1.19904e-14
7.21645e-15
1.04361e-14
7.82707e-15
0
1.24345e-14
1.45439e-14
1.32672e-14
1.17129e-14
1.37668e-14
1.52101e-14
1.36557e-14
1.43774e-14
1.53211e-14
1.62648e-14
1.69309e-14
1.59872e-14
1.37113e-14
1.34337e-14
1.54876e-14
1.57652e-14
1.36557e-14
1.2601e-14
1.2268e-14
7.77156e-15
1.10467e-14
6.43929e-15
0
1.17129e-14
1.5099e-14
1.13243e-14
1.15463e-14
1.22125e-14
1.34892e-14
1.35447e-14
1.44329e-14
1.34892e-14
1.45994e-14
1.57097e-14
1.25455e-14
9.9365e-15
1.32672e-14
1.31561e-14
1.44884e-14
1.30451e-14
1.29896e-14
1.16573e-14
6.55032e-15
1.14908e-14
7.43849e-15
0
8.32667e-15
1.23235e-14
1.2379e-14
1.37113e-14
1.2379e-14
1.09357e-14
1.27676e-14
1.40998e-14
1.2601e-14
1.28786e-14
1.55431e-14
1.17684e-14
9.76996e-15
1.08247e-14
1.12688e-14
1.13243e-14
1.4877e-14
1.40998e-14
1.32117e-14
5.88418e-15
1.33227e-14
7.60503e-15
0
9.32587e-15
1.10467e-14
1.24345e-14
1.4988e-14
1.13243e-14
8.60423e-15
1.18794e-14
1.19904e-14
1.25455e-14
1.37668e-14
1.30451e-14
8.54872e-15
8.43769e-15
1.14353e-14
1.2268e-14
1.17684e-14
1.37113e-14
1.21569e-14
1.33227e-14
8.77076e-15
1.38778e-14
6.16174e-15
0
9.04832e-15
1.13243e-14
1.11022e-14
1.37113e-14
1.04361e-14
7.60503e-15
8.77076e-15
8.77076e-15
1.2268e-14
1.16573e-14
1.12688e-14
9.38138e-15
9.71445e-15
9.65894e-15
1.02696e-14
9.49241e-15
1.20459e-14
9.60343e-15
1.14353e-14
5.44009e-15
1.31561e-14
5.32907e-15
3.33067e-16
1.36557e-14
1.22125e-14
1.44329e-14
1.47105e-14
1.17129e-14
1.06581e-14
8.32667e-15
1.11577e-14
1.21569e-14
1.08247e-14
1.16573e-14
1.28231e-14
1.11022e-14
1.12688e-14
1.09912e-14
1.14908e-14
1.45994e-14
1.10467e-14
1.2379e-14
5.66214e-15
1.2601e-14
5.93969e-15
2.22045e-15
1.53766e-14
1.19349e-14
1.40443e-14
1.56541e-14
1.05471e-14
1.08247e-14
1.13243e-14
1.21014e-14
1.21014e-14
7.88258e-15
1.2268e-14
1.42664e-14
1.16573e-14
1.12133e-14
1.03251e-14
1.32117e-14
1.37668e-14
1.16018e-14
8.99281e-15
6.10623e-15
1.04361e-14
4.996e-15
5.9952e-15
2.04281e-14
1.44329e-14
1.4766e-14
1.85407e-14
1.21014e-14
8.88178e-15
1.18794e-14
1.05471e-14
1.2379e-14
9.4369e-15
1.03251e-14
1.39888e-14
1.15463e-14
1.11022e-14
1.35447e-14
1.25455e-14
1.37113e-14
9.38138e-15
9.9365e-15
1.12688e-14
6.88338e-15
0.409397
0.408522
0.414438
0.419116
0.431627
0.465862
0.494052
0.515284
0.464956
0.490239
0.52463
0.557499
0.413121
0.437317
0.474175
0.492126
0.178931
0.200043
0.250204
0.26357
0.0964581
0.0970882
0.107011
0.142153
0.127046
0.145343
0.144216
0.129544
0.0800483
0.0898106
0.0868687
0.0714225
0.0311586
0.0360932
0.0414499
0.046629
0.0412015
0.0418123
0.0426623
0.043821
0.0427479
0.0434245
0.0443522
0.045237
0.0165527
0.0183614
0.0193716
0.0200994
0.0076722
0.0081466
0.00845496
0.00883182
0.00565921
0.00716972
0.00911331
0.0114087
0.0163574
0.0191961
0.0218525
0.0239398
0.0149185
0.0161053
0.0171193
0.0191696
0.00505829
0.00392006
0.00357354
0.00354342
0.00161092
0.0011126
0.000828748
0.000685258
0.00256161
0.00125222
0.000703679
0.000499905
0.0022554
0.00174719
0.00119469
0.000826307
0.00056987
0.000475194
0.000384055
0.000259137
8.44118e-05
7.99901e-05
7.20614e-05
5.49048e-05
6.52248e-06
7.5635e-06
6.92416e-06
5.30733e-06
4.05395e-07
4.27183e-07
3.97477e-07
3.21071e-07
1.35875e-08
1.29787e-08
1.48798e-08
1.71118e-08
1.5202e-09
1.24353e-09
1.16326e-09
1.15694e-09
1.55611e-10
1.57938e-10
1.39746e-10
1.12027e-10
1.10673e-11
8.82444e-12
7.64389e-12
6.57979e-12
6.54199e-13
4.85223e-13
4.17888e-13
3.19522e-13
4.9849e-14
2.9865e-14
2.5091e-14
2.28706e-14
1.11577e-14
7.99361e-15
7.10543e-15
7.77156e-15
9.49241e-15
7.38298e-15
8.10463e-15
8.43769e-15
1.33227e-14
1.08802e-14
1.04361e-14
8.9373e-15
1.40998e-14
1.33227e-14
1.31006e-14
1.06581e-14
1.42664e-14
1.08802e-14
1.0103e-14
7.54952e-15
1.03251e-14
4.77396e-15
5.16254e-15
4.66294e-15
1.08802e-14
4.82947e-15
3.33067e-15
1.9984e-15
1.28231e-14
4.10783e-15
2.77556e-15
0
1.07692e-14
2.55351e-15
1.22125e-15
0
8.82627e-15
4.32987e-15
2.9976e-15
0
4.44089e-15
3.38618e-15
5.82867e-15
4.21885e-15
1.83187e-15
0
4.94049e-15
1.05471e-15
0.432949
0.304735
0.286714
0.341296
0.315548
0.311771
0.410851
0.402223
0.548424
0.415669
0.413404
0.378068
0.399718
0.437513
0.49476
0.516316
0.552284
0.609548
0.686554
0.564753
0.659361
0.644881
0.741578
0.709997
0.748126
0.68415
0.719747
0.770287
0.747198
0.747084
0.740651
0.722338
0.696502
0.684482
0.672642
0.659084
0.641813
0.660543
0.625572
0.755674
0.708715
0.610985
0.600576
0.553187
0.387514
0.439064
0.557193
0.511226
0.544118
0.461759
0.510524
0.58799
0.6589
0.667052
0.656069
0.555077
0.59447
0.488049
0.649981
0.448594
0.315592
0.336665
0.315394
0.241595
0.231655
0.197682
0.19343
0.196277
0.242663
0.344535
0.462111
0.441776
0.388599
0.370199
0.35954
0.496439
0.230058
0.366925
0.259634
0.179939
0.217179
0.215324
0.195606
0.138092
0.0885776
0.110102
0.136853
0.241532
0.216706
0.219538
0.198652
0.191979
0.191458
0.240636
0.503583
0.196186
0.222511
0.157925
0.134912
0.157997
0.187257
0.138957
0.0776404
0.0689344
0.108615
0.131034
0.145755
0.119413
0.201878
0.305713
0.176438
0.125997
0.252096
0.574566
0.112607
0.106583
0.130031
0.125984
0.140921
0.186101
0.0884227
0.0631181
0.0984797
0.161733
0.195025
0.223866
0.236758
0.361359
0.436166
0.284193
0.169616
0.274699
0.590623
0.0708764
0.100366
0.11685
0.126392
0.142642
0.108818
0.0699462
0.0735279
0.135979
0.176903
0.207062
0.283564
0.374025
0.4501
0.496375
0.425766
0.213233
0.28314
0.59166
0.0615815
0.0784609
0.0970545
0.133087
0.178512
0.175975
0.0729141
0.0778048
0.117499
0.129606
0.184611
0.315896
0.427317
0.502301
0.533595
0.488497
0.301867
0.307724
0.597041
0.0464504
0.0551819
0.0762055
0.0936285
0.108301
0.108798
0.0930556
0.10151
0.105661
0.113931
0.181335
0.277656
0.395584
0.505119
0.556032
0.56404
0.487459
0.336657
0.617686
0.048744
0.0552962
0.0650455
0.0760346
0.0784357
0.0700009
0.0629196
0.0589015
0.0706091
0.133636
0.164724
0.208228
0.328737
0.430058
0.533389
0.585727
0.605087
0.567314
0.645305
0.0212598
0.0250552
0.0375387
0.0471258
0.0490828
0.0409353
0.0439903
0.0935682
0.181974
0.267303
0.302591
0.319052
0.327021
0.390563
0.476425
0.550758
0.600637
0.624106
0.628351
0.00998435
0.0137128
0.0209448
0.0298799
0.0428481
0.0557948
0.0798253
0.139454
0.23093
0.311625
0.344904
0.35594
0.362032
0.384753
0.459389
0.52004
0.550953
0.584319
0.598539
0.0143985
0.0176799
0.0206879
0.0225058
0.0313101
0.0422631
0.0645142
0.116663
0.224204
0.311429
0.338302
0.345798
0.34901
0.376841
0.449862
0.492278
0.516985
0.573453
0.590658
0.0270853
0.0322397
0.0388598
0.0453537
0.0538035
0.066626
0.0865535
0.126375
0.191468
0.258365
0.279213
0.252442
0.237923
0.257424
0.356483
0.400176
0.437207
0.551111
0.575633
0.0222048
0.0255212
0.036608
0.0472592
0.0595765
0.0780011
0.0980205
0.128707
0.166245
0.171433
0.149465
0.125995
0.113268
0.157308
0.228601
0.288825
0.316791
0.458859
0.513839
0.00366782
0.00376233
0.00758334
0.0126381
0.0196653
0.0336605
0.04965
0.0600396
0.0693436
0.0756892
0.0626612
0.0604845
0.0552737
0.0937646
0.147162
0.228619
0.262385
0.370337
0.437587
0.0005875
0.000541371
0.00089506
0.0019005
0.00408949
0.00750988
0.0129648
0.0223552
0.0269713
0.0332973
0.0257323
0.0276055
0.0320747
0.0596134
0.106015
0.193817
0.239474
0.328632
0.402151
0.000352794
0.000231201
0.000390794
0.000882978
0.00196801
0.00317323
0.00514083
0.00870627
0.0097866
0.0129874
0.00899476
0.0108829
0.0134801
0.025845
0.0633456
0.172477
0.222554
0.306971
0.375125
0.000367008
0.000103196
8.54799e-05
9.04767e-05
0.000177654
0.000487645
0.000918966
0.00205658
0.00293754
0.00374336
0.00230219
0.00294714
0.00271818
0.00542691
0.0248282
0.136656
0.164665
0.269276
0.31862
0.000107771
2.81078e-05
2.44344e-05
2.99433e-05
5.1334e-05
0.00011094
0.00022312
0.000303246
0.000720865
0.000875047
0.000489387
0.000603648
0.000500866
0.000976362
0.00846812
0.06546
0.0686752
0.168314
0.194764
2.21019e-05
6.30014e-06
6.74926e-06
1.02674e-05
1.46674e-05
2.55835e-05
5.6315e-05
7.89129e-05
0.000240066
0.000248704
0.00012155
0.000115781
0.000105301
0.000150577
0.000595034
0.0140673
0.0195639
0.0632743
0.0819646
1.90896e-06
8.14273e-07
1.00581e-06
2.00115e-06
2.76042e-06
5.96407e-06
1.57393e-05
2.35248e-05
5.37455e-05
5.15009e-05
3.13063e-05
2.78204e-05
3.47508e-05
4.08294e-05
0.000143157
0.00208375
0.00439012
0.0207182
0.0331627
1.49433e-07
1.2579e-07
1.41961e-07
2.90979e-07
5.08264e-07
1.11524e-06
4.19549e-06
5.33206e-06
6.27555e-06
8.26406e-06
6.19647e-06
7.35631e-06
1.49714e-05
1.762e-05
4.94651e-05
0.00029533
0.001823
0.0109393
0.0165665
1.53436e-08
1.44865e-08
1.80706e-08
2.38818e-08
3.76798e-08
6.7424e-08
1.84291e-07
4.10668e-07
8.19642e-07
2.87861e-06
1.47644e-06
2.4076e-06
7.10965e-06
9.89138e-06
1.93705e-05
0.000114608
0.00173014
0.00810944
0.0106297
1.72327e-09
9.34392e-10
1.10489e-09
1.8919e-09
3.92414e-09
8.67785e-09
2.8859e-08
9.16102e-08
1.46233e-07
1.67194e-07
2.16179e-07
8.3534e-07
2.89398e-06
5.4935e-06
7.23844e-06
0.000100936
0.00150464
0.00593508
0.00829581
5.7162e-11
4.51681e-11
1.63982e-10
3.50772e-10
6.06519e-10
7.6141e-10
1.63998e-09
3.41631e-09
6.84562e-09
1.7259e-08
6.08103e-08
5.01215e-07
1.61541e-06
2.64501e-06
3.85449e-06
1.68562e-05
0.00079669
0.00340529
0.00716779
3.52207e-12
2.74025e-12
3.9671e-11
4.89236e-11
5.02048e-11
6.35143e-11
1.50405e-10
5.35274e-10
1.4961e-09
6.69568e-09
1.5619e-08
2.85212e-07
7.78419e-07
9.10502e-07
2.23977e-06
1.5578e-05
0.000239027
0.00130542
0.00638678
1.65146e-13
1.92235e-13
4.31877e-13
1.31789e-12
2.95031e-12
3.60023e-12
5.38558e-12
1.75961e-11
1.28765e-10
7.95975e-10
4.27607e-09
2.2291e-07
3.16408e-07
4.02739e-07
1.86273e-06
1.48773e-05
9.15992e-05
0.000492772
0.00574619
1.07137e-14
1.49325e-14
4.4631e-14
7.46625e-14
1.09746e-13
1.55154e-13
7.52676e-13
5.91915e-12
9.12487e-11
4.0139e-10
3.43088e-09
4.47894e-08
1.22372e-07
2.53786e-07
1.84614e-06
2.46116e-05
8.40461e-05
0.00031606
0.00533421
2.16493e-15
3.9968e-15
9.32587e-15
9.27036e-15
1.08247e-14
3.88023e-14
3.52218e-13
4.54958e-12
5.90735e-11
3.74354e-10
5.53752e-09
3.5381e-08
8.16105e-08
2.14081e-07
2.06941e-06
2.7809e-05
9.55342e-05
0.000277138
0.00508079
2.44249e-15
4.38538e-15
5.9952e-15
4.77396e-15
7.71605e-15
9.48686e-14
5.38236e-13
3.62499e-12
1.0444e-10
9.43686e-10
4.33314e-09
2.38033e-08
8.05036e-08
2.54894e-07
1.5001e-06
2.46413e-05
9.96079e-05
0.000252238
0.00468831
1.05471e-15
4.4964e-15
4.10783e-15
5.10703e-15
1.19349e-14
1.68088e-13
2.04892e-12
1.11694e-11
2.85196e-10
1.60729e-09
8.63983e-09
4.63362e-08
1.01449e-07
1.461e-07
1.19252e-06
2.3663e-05
0.000100931
0.000220994
0.00397051
1.27676e-15
5.10703e-15
4.60743e-15
7.66054e-15
2.29261e-14
1.74527e-13
2.75535e-12
2.19428e-11
4.74734e-10
1.62036e-09
6.5942e-09
4.81555e-08
3.36624e-08
4.78798e-08
1.46982e-06
1.84713e-05
6.41147e-05
0.000280582
0.00610919
1.55431e-15
3.60822e-15
5.10703e-15
1.08247e-14
4.14113e-14
2.14995e-13
2.6425e-12
2.07203e-11
5.58451e-10
9.1012e-10
5.53471e-09
2.45251e-08
1.06941e-08
1.4176e-08
3.87102e-07
1.12278e-05
2.89175e-05
0.000252989
0.00375534
0
3.21965e-15
6.77236e-15
1.5099e-14
7.59393e-14
3.66984e-13
1.83015e-12
1.26827e-11
6.67665e-10
2.57972e-10
3.55204e-09
5.51251e-09
3.59347e-09
6.95448e-09
1.60942e-07
5.35807e-06
4.881e-06
0.000142907
0.00262945
0
3.66374e-15
7.77156e-15
1.72085e-14
3.80251e-14
4.33154e-13
1.28908e-12
6.95921e-12
6.0086e-11
2.29206e-11
1.20823e-09
6.6157e-10
2.43939e-09
5.69341e-09
3.9329e-08
3.13519e-07
5.57989e-07
6.27504e-05
0.00174318
0
4.10783e-15
4.32987e-15
7.60503e-15
2.12608e-14
1.34392e-13
5.68545e-13
3.3023e-12
1.42503e-12
2.5403e-12
4.60721e-10
3.01368e-10
2.91071e-09
6.48587e-09
2.05069e-08
3.20462e-08
2.04178e-07
8.77365e-06
0.0012975
0
5.44009e-15
1.27676e-15
4.44089e-15
1.24345e-14
4.58522e-14
1.57652e-13
2.75058e-13
2.12774e-13
1.44806e-12
1.04088e-11
1.73552e-10
5.59143e-09
1.21601e-08
1.76182e-08
2.4089e-08
2.4522e-07
2.36389e-06
0.000915106
2.22045e-15
7.54952e-15
1.44329e-15
3.71925e-15
5.27356e-15
8.10463e-15
1.20459e-14
9.71445e-15
1.60427e-14
1.38223e-12
7.99261e-12
1.89088e-10
7.31212e-09
1.58535e-08
1.8642e-08
2.64848e-08
3.76489e-07
7.15545e-07
0.000599999
1.17684e-14
1.01585e-14
0
0
2.60902e-15
4.77396e-15
7.66054e-15
1.66533e-16
7.71605e-15
1.79867e-12
9.26936e-12
2.2042e-10
9.5458e-09
1.82932e-08
2.10903e-08
2.9662e-08
3.79411e-07
5.23431e-07
0.000556478
1.09357e-14
1.07137e-14
0
7.88258e-15
1.07137e-14
9.99201e-15
9.76996e-15
0
8.9373e-15
2.28612e-12
9.75159e-12
1.94541e-10
1.04165e-08
1.91789e-08
2.17072e-08
3.23698e-08
4.50239e-07
5.16001e-07
0.000251704
)
;

boundaryField
{
    leftWall
    {
        type            zeroGradient;
    }
    rightWall
    {
        type            zeroGradient;
    }
    lowerWall
    {
        type            zeroGradient;
    }
    atmosphere
    {
        type            inletOutlet;
        inletValue      uniform 0;
        value           nonuniform List<scalar> 
46
(
4.996e-15
5.9952e-15
2.04281e-14
1.44329e-14
1.4766e-14
1.85407e-14
1.21014e-14
8.88178e-15
1.18794e-14
1.05471e-14
1.2379e-14
9.4369e-15
1.03251e-14
1.39888e-14
1.15463e-14
1.11022e-14
1.35447e-14
1.25455e-14
1.37113e-14
9.38138e-15
9.9365e-15
1.12688e-14
6.88338e-15
1.83187e-15
0
4.94049e-15
1.05471e-15
1.09357e-14
1.07137e-14
0
7.88258e-15
1.07137e-14
9.99201e-15
9.76996e-15
0
8.9373e-15
2.28612e-12
9.75159e-12
1.94541e-10
1.04165e-08
1.91789e-08
2.17072e-08
3.23698e-08
4.50239e-07
5.16001e-07
0.000251704
)
;
    }
    defaultFaces
    {
        type            empty;
    }
}


// ************************************************************************* //
