/*--------------------------------*- C++ -*----------------------------------*\
| =========                 |                                                 |
| \\      /  F ield         | foam-extend: Open Source CFD                    |
|  \\    /   O peration     | Version:     4.1                                |
|   \\  /    A nd           | Web:         http://www.foam-extend.org         |
|    \\/     M anipulation  |                                                 |
\*---------------------------------------------------------------------------*/
FoamFile
{
    version     2.0;
    format      ascii;
    class       volScalarField;
    location    "0.8";
    object      C;
}
// * * * * * * * * * * * * * * * * * * * * * * * * * * * * * * * * * * * * * //

dimensions      [0 0 0 0 0 0 0];

internalField   nonuniform List<scalar> 
2268
(
0.290658
0.109457
0.694282
0.660718
0.55046
0.205745
0.255402
0.213147
0.450706
0.964115
0.998005
0.998067
0.999311
0.999637
0.999749
0.999866
0.999952
0.99993
0.99914
0.99616
0.992588
0.959956
0.19325
0.220138
-0.00528612
0.589801
0.0164602
0.37097
0.409927
0.369904
0.367455
0.618194
0.94392
0.986343
0.990957
0.997543
0.999103
0.999573
0.999716
0.999854
0.999931
0.999767
0.999694
0.999448
0.991718
0.951937
0.16599
-0.165804
0.561973
-0.214634
-0.156304
0.275549
0.368338
0.513881
0.659786
0.532021
0.972177
0.978505
0.995616
0.998679
0.99925
0.99936
0.999726
0.99989
0.999935
0.999906
0.999014
0.994092
0.981917
0.127718
-0.248639
0.193089
-0.224859
-0.279201
0.185462
0.367027
0.541173
0.533735
-0.428379
0.620574
0.951764
0.990975
0.997385
0.997478
0.99667
0.998708
0.99923
0.999767
0.999738
0.99916
0.993281
0.984132
0.146505
-0.275989
-0.0836166
-0.224069
-0.431401
0.22451
0.273251
0.480688
0.510109
-0.12284
0.603152
0.919644
0.977638
0.992866
0.990364
0.985238
0.995941
0.99735
0.998876
0.99874
0.99655
0.983855
0.980392
0.236006
-0.53402
-0.385037
-0.451113
-0.51229
-0.270192
-0.0352102
0.341224
0.486291
0.318946
0.632674
0.911159
0.958574
0.981395
0.973416
0.952261
0.984026
0.982192
0.991774
0.991347
0.981152
0.948297
0.953571
-0.296481
-0.756454
-0.59123
-0.619037
-0.565837
-0.207688
-0.172165
0.122467
0.412055
0.537118
0.743363
0.906002
0.91895
0.958246
0.944065
0.85521
0.932334
0.899816
0.944293
0.929011
0.934066
0.900939
0.860719
-0.772777
-0.776465
-0.733823
-0.679873
-0.648241
-0.528438
-0.313603
0.241237
0.275681
-0.0354821
0.607583
0.876574
0.825931
0.941539
0.918527
0.679971
0.848028
0.682128
0.808739
0.713829
0.736589
0.778349
0.671424
0.316066
0.321397
0.321551
0.32163
0.321156
0.319329
0.309588
0.292418
0.28666
0.240164
0.152975
0.0543356
0.022509
0.0173389
0.0460443
0.140372
0.213439
0.233997
0.356507
0.312985
0.320543
0.321361
0.313728
0.298773
0.261423
0.22647
0.203154
0.180642
0.117589
0.0590895
0.029604
-0.00164246
0.0335896
0.13666
0.278317
0.363878
0.401573
0.431515
0.303596
0.291444
0.265141
0.255667
0.217335
0.0579309
-0.0166676
-0.0293505
0.0172275
0.0407512
-0.0118192
0.0538242
0.0784653
0.189702
0.254881
0.280985
0.247408
0.291276
0.412953
0.28726
0.239888
0.206473
0.201833
0.126617
-0.11904
-0.271952
-0.315561
-0.254523
-0.291708
-0.191981
-0.021847
0.121057
0.172091
0.153634
0.0908567
0.0182472
0.117824
0.389127
0.263868
0.186146
0.144203
0.113879
-0.0960588
-0.307653
-0.457089
-0.449962
-0.515442
-0.553068
-0.494705
-0.411822
-0.00127911
0.0875077
-0.062695
-0.26363
-0.173203
0.0218566
0.376913
0.236441
0.117796
0.0276145
-0.0617786
-0.121783
-0.426805
-0.63985
-0.479648
-0.626725
-0.619325
-0.615524
-0.67897
-0.529413
-0.418722
-0.306714
-0.549782
-0.392757
-0.0190331
0.369279
0.199815
0.0189313
-0.136214
-0.317858
-0.218536
-0.49772
-0.686244
-0.63349
-0.645033
-0.658569
-0.675462
-0.690055
-0.687164
-0.700345
-0.628714
-0.592975
-0.48144
-0.00680456
0.366378
0.138386
-0.232752
-0.376005
-0.437053
-0.315556
-0.556828
-0.505854
-0.571238
-0.587925
-0.603573
-0.611375
-0.559741
-0.51877
-0.568146
-0.469135
-0.433536
-0.33264
0.118246
0.370848
-0.883314
-0.782972
-0.734277
-0.642271
-0.436084
-0.277987
-0.166809
0.208807
-0.0963471
0.311176
0.497573
0.640849
0.38539
0.900716
0.827396
0.367417
0.629455
0.390717
0.430507
0.542743
0.440625
0.110539
0.0029642
-0.907751
-0.747641
-0.556113
-0.536685
-0.346034
-0.144701
-0.406019
0.0792237
-0.37151
0.15463
-0.287695
0.122096
-0.189673
0.489491
0.505314
0.0354299
0.352239
0.352537
0.436215
0.483465
0.24622
-0.0105391
-0.128663
-0.945903
-0.756399
-0.517389
-0.519045
-0.455478
-0.277229
-0.478038
-0.389992
-0.393792
-0.15713
-0.348085
0.000552202
-0.293378
0.314269
0.474647
-0.0287507
0.105478
0.340686
0.396931
0.363121
0.125118
-0.0288488
-0.0780201
-0.933597
-0.689879
-0.460361
-0.471258
-0.669589
-0.490056
-0.370651
-0.136666
-0.183105
-0.536847
-0.456017
-0.070619
-0.336251
0.0887836
-0.221686
-0.471908
-0.323728
0.11991
0.298802
0.254736
0.062033
-0.079225
-0.162536
-0.970666
-0.93494
-0.754376
-0.444324
-0.803246
-0.715901
-0.716278
-0.55014
-0.533057
-0.854765
-0.694965
-0.123442
-0.542378
-0.646759
-0.732981
-0.780969
-0.634156
-0.271668
0.0342896
0.034048
-0.134778
-0.229061
-0.574589
-0.974234
-0.960387
-0.916089
-0.76062
-0.923015
-0.864179
-0.928264
-0.871988
-0.840316
-0.930485
-0.521697
0.0744978
-0.526529
-0.881216
-0.928357
-0.917197
-0.801999
-0.605663
-0.446386
-0.419216
-0.476522
-0.631964
-0.80376
-0.975058
-0.970518
-0.964109
-0.948453
-0.960044
-0.935819
-0.974334
-0.957837
-0.957507
-0.980635
-0.903051
-0.325597
-0.880719
-0.966638
-0.966938
-0.925179
-0.871551
-0.804612
-0.768022
-0.729609
-0.747285
-0.838927
-0.865213
-0.975907
-0.975072
-0.976665
-0.974758
-0.978344
-0.979107
-0.987372
-0.982476
-0.987521
-0.990934
-0.969572
-0.897266
-0.977223
-0.974698
-0.9619
-0.948158
-0.934416
-0.918001
-0.902152
-0.890751
-0.903676
-0.94224
-0.897785
-0.977312
-0.980158
-0.98036
-0.977685
-0.979992
-0.982736
-0.987379
-0.990974
-0.993609
-0.992578
-0.98591
-0.982167
-0.982408
-0.97796
-0.976103
-0.976532
-0.976084
-0.972385
-0.964294
-0.962533
-0.954017
-0.950674
-0.943109
-0.981334
-0.987321
-0.987647
-0.987114
-0.991147
-0.991734
-0.989791
-0.992381
-0.995827
-0.996642
-0.994358
-0.989698
-0.987169
-0.986019
-0.987324
-0.987399
-0.984238
-0.973311
-0.954958
-0.938374
-0.928223
-0.922993
-0.91953
-0.985207
-0.992847
-0.995267
-0.996777
-0.99809
-0.99736
-0.994303
-0.993933
-0.996265
-0.996018
-0.993394
-0.992344
-0.992109
-0.992709
-0.993193
-0.992887
-0.988423
-0.975369
-0.953145
-0.930179
-0.92252
-0.920809
-0.918465
-0.989233
-0.9954
-0.998549
-0.999132
-0.999059
-0.997295
-0.995763
-0.995789
-0.997216
-0.997012
-0.995381
-0.994871
-0.994759
-0.993502
-0.992685
-0.991078
-0.984487
-0.966453
-0.956046
-0.954631
-0.962848
-0.971328
-0.971122
-0.993804
-0.997059
-0.99929
-0.999578
-0.99922
-0.997983
-0.99722
-0.997012
-0.997776
-0.995522
-0.98863
-0.983651
-0.981361
-0.980312
-0.972912
-0.970632
-0.972767
-0.967168
-0.974129
-0.984974
-0.990252
-0.991505
-0.988248
-0.997425
-0.998203
-0.999524
-0.999765
-0.999552
-0.998233
-0.996829
-0.995148
-0.990091
-0.980015
-0.973503
-0.970967
-0.970385
-0.969915
-0.970356
-0.973288
-0.978056
-0.983264
-0.994932
-0.997958
-0.997885
-0.996112
-0.992691
-0.999151
-0.998947
-0.999657
-0.999807
-0.999103
-0.997359
-0.994466
-0.988584
-0.981883
-0.97911
-0.977909
-0.981389
-0.984557
-0.986973
-0.988899
-0.990825
-0.992268
-0.995347
-0.995857
-0.991571
-0.988997
-0.985777
-0.977156
-0.999742
-0.999489
-0.999816
-0.999849
-0.999336
-0.997752
-0.994623
-0.989449
-0.983676
-0.982258
-0.985287
-0.991913
-0.996038
-0.99756
-0.998043
-0.998075
-0.997745
-0.998087
-0.997829
-0.996511
-0.993718
-0.986238
-0.977685
-0.999914
-0.999747
-0.999904
-0.999932
-0.999679
-0.99852
-0.995774
-0.990899
-0.987491
-0.988491
-0.993294
-0.995375
-0.997454
-0.998177
-0.998571
-0.999033
-0.999293
-0.999217
-0.998766
-0.99684
-0.990452
-0.985338
-0.984161
-0.99997
-0.999886
-0.999952
-0.999974
-0.999896
-0.999343
-0.99746
-0.995004
-0.993875
-0.992136
-0.996259
-0.996379
-0.997899
-0.998973
-0.999274
-0.999252
-0.999606
-0.999718
-0.999137
-0.996246
-0.990505
-0.987459
-0.990497
-0.999987
-0.999955
-0.999976
-0.99999
-0.99998
-0.999823
-0.999072
-0.998804
-0.998214
-0.994913
-0.998007
-0.998887
-0.998805
-0.999298
-0.99974
-0.999604
-0.999742
-0.999825
-0.999368
-0.997084
-0.992367
-0.989788
-0.990371
-0.999996
-0.999987
-0.999989
-0.999996
-0.999997
-0.999958
-0.99972
-0.99978
-0.999521
-0.997996
-0.998957
-0.999561
-0.99955
-0.999663
-0.999832
-0.999858
-0.999848
-0.999901
-0.999845
-0.998927
-0.996707
-0.994638
-0.994384
-0.999999
-0.999996
-0.999997
-0.999998
-0.999999
-0.999991
-0.999941
-0.999957
-0.999907
-0.999449
-0.999658
-0.999835
-0.999859
-0.999881
-0.999924
-0.999963
-0.999935
-0.999942
-0.999967
-0.999752
-0.999233
-0.998744
-0.99867
-1
-0.999999
-0.999999
-0.999999
-1
-0.999998
-0.99999
-0.999993
-0.999984
-0.99992
-0.999903
-0.999951
-0.999954
-0.999955
-0.99997
-0.99999
-0.999979
-0.999975
-0.999987
-0.999952
-0.999911
-0.999862
-0.999809
-1
-1
-1
-1
-1
-1
-0.999999
-0.999999
-0.999998
-0.99999
-0.999973
-0.999986
-0.999985
-0.999988
-0.999991
-0.999997
-0.999996
-0.999992
-0.999996
-0.99999
-0.999991
-0.999989
-0.999983
-1
-1
-1
-1
-1
-1
-1
-1
-1
-0.999999
-0.999994
-0.999996
-0.999996
-0.999998
-0.999998
-0.999999
-0.999999
-0.999998
-0.999999
-0.999998
-0.999999
-0.999999
-0.999999
-1
-1
-1
-1
-1
-1
-1
-1
-1
-1
-0.999999
-0.999999
-0.999999
-0.999999
-1
-1
-1
-1
-1
-1
-1
-1
-1
-1
-1
-1
-1
-1
-1
-1
-1
-1
-1
-1
-1
-1
-1
-1
-1
-1
-1
-1
-1
-1
-1
-1
-1
-1
-1
-1
-1
-1
-1
-1
-1
-1
-1
-1
-1
-1
-1
-1
-1
-1
-1
-1
-1
-1
-1
-1
-1
-1
-1
-1
-1
-1
-1
-1
-1
-1
-1
-1
-1
-1
-1
-1
-1
-1
-1
-1
-1
-1
-1
-1
-1
-1
-1
-1
-1
-1
-1
-1
-1
-1
-1
-1
-1
-1
-1
-1
-1
-1
-1
-1
-1
-1
-1
-1
-1
-1
-1
-1
-1
-1
-1
-1
-1
-1
-1
-1
-1
-1
-1
-1
-1
-1
-1
-1
-1
-1
-1
-1
-1
-1
-1
-1
-1
-1
-1
-1
-1
-1
-1
-1
-1
-1
-1
-1
-1
-1
-1
-1
-1
-1
-1
-1
-1
-1
-1
-1
-1
-1
-1
-1
-1
-1
-1
-1
-1
-1
-1
-1
-1
-1
-1
-1
-1
-1
-1
-1
-1
-1
-1
-1
-1
-1
-1
-1
-1
-1
-1
-1
-1
-1
-1
-1
-1
-1
-1
-1
-1
-1
-1
-1
-1
-1
-1
-1
-1
-1
-1
-1
-1
-1
-1
-1
-1
-1
-1
-1
-1
-1
-1
-1
-1
-1
-1
-1
-1
-1
-1
-1
-1
-1
-1
-1
-1
-1
-1
-1
-1
-1
-1
-1
-1
-1
-1
-1
-1
-1
-1
-1
-1
-1
-1
-1
-1
-1
-1
-1
-1
-1
-1
-1
-1
-1
-1
-1
-1
-1
-1
-1
-1
-1
-1
-1
-1
-1
-1
-1
-1
-1
-1
-1
-1
-1
-1
-1
-1
-1
-1
-1
-1
-1
-1
-1
-1
-1
-1
-1
-1
-1
-1
-1
-1
-1
-1
-1
-1
-1
-1
-1
-1
-1
-1
-1
-1
-1
-1
-1
-1
-1
-1
-1
-1
-1
-1
-1
-1
-1
-1
-1
-1
-1
-1
-1
-1
-1
-1
-1
-1
-1
-1
-1
-1
-1
-1
-1
-1
-1
-1
-1
-1
-1
-1
-1
-1
-1
-1
-1
-1
-1
-1
-1
-1
-1
-1
-1
-1
-1
-1
-1
-1
-1
-1
-1
-1
-1
-1
-1
-1
-1
-1
-1
-1
-1
-1
-1
-1
-1
-1
-1
-1
-1
-1
-1
-1
-1
-1
-1
-1
-1
-1
-1
-0.181207
-0.182956
-0.171124
-0.161768
-0.136747
-0.0682751
-0.0118956
0.0305673
-0.0700872
-0.0195229
0.0492594
0.114998
-0.173758
-0.125366
-0.0516498
-0.0157484
-0.642138
-0.599913
-0.499592
-0.47286
-0.807084
-0.805824
-0.785978
-0.715695
-0.745907
-0.709313
-0.711567
-0.740911
-0.839903
-0.820379
-0.826263
-0.857155
-0.937683
-0.927814
-0.9171
-0.906742
-0.917597
-0.916375
-0.914675
-0.912358
-0.914504
-0.913151
-0.911296
-0.909526
-0.966895
-0.963277
-0.961257
-0.959801
-0.984656
-0.983707
-0.98309
-0.982336
-0.988682
-0.985661
-0.981773
-0.977183
-0.967285
-0.961608
-0.956295
-0.95212
-0.970163
-0.967789
-0.965761
-0.961661
-0.989883
-0.99216
-0.992853
-0.992913
-0.996778
-0.997775
-0.998343
-0.998629
-0.994877
-0.997496
-0.998593
-0.999
-0.995489
-0.996506
-0.997611
-0.998347
-0.99886
-0.99905
-0.999232
-0.999482
-0.999831
-0.99984
-0.999856
-0.99989
-0.999987
-0.999985
-0.999986
-0.999989
-0.999999
-0.999999
-0.999999
-0.999999
-1
-1
-1
-1
-1
-1
-1
-1
-1
-1
-1
-1
-1
-1
-1
-1
-1
-1
-1
-1
-1
-1
-1
-1
-1
-1
-1
-1
-1
-1
-1
-1
-1
-1
-1
-1
-1
-1
-1
-1
-1
-1
-1
-1
-1
-1
-1
-1
-1
-1
-1
-1
-1
-1
-1
-1
-1
-1
-1
-1
-1
-1
-1
-1
-1
-1
-1
-1
-1
-1
-1
-1
-0.134102
-0.390529
-0.426571
-0.317408
-0.368904
-0.376458
-0.178298
-0.195555
0.0968483
-0.168662
-0.173192
-0.243864
-0.200564
-0.124975
-0.0104806
0.0326311
0.104568
0.219096
0.373107
0.129506
0.318723
0.289763
0.483156
0.419994
0.496253
0.3683
0.439493
0.540575
0.494396
0.494167
0.481302
0.444676
0.393005
0.368964
0.345285
0.318168
0.283626
0.321086
0.251145
0.511348
0.417429
0.22197
0.201153
0.106375
-0.224973
-0.121873
0.114387
0.0224519
0.088236
-0.076481
0.0210484
0.175981
0.317801
0.334104
0.312138
0.110153
0.18894
-0.0239018
0.299962
-0.102812
-0.368817
-0.32667
-0.369211
-0.516809
-0.536689
-0.604636
-0.61314
-0.607446
-0.514675
-0.310931
-0.0757784
-0.116449
-0.222802
-0.259602
-0.28092
-0.00712181
-0.539883
-0.26615
-0.480732
-0.640122
-0.565641
-0.569351
-0.608787
-0.723816
-0.822845
-0.779796
-0.726294
-0.516936
-0.566589
-0.560923
-0.602696
-0.616042
-0.617084
-0.518728
0.00716687
-0.607628
-0.554979
-0.684149
-0.730175
-0.684006
-0.625486
-0.722086
-0.844719
-0.862131
-0.782769
-0.737933
-0.708489
-0.761173
-0.596244
-0.388573
-0.647125
-0.748007
-0.495808
0.149132
-0.774786
-0.786833
-0.739939
-0.748032
-0.718157
-0.627798
-0.823155
-0.873764
-0.803041
-0.676535
-0.609949
-0.552268
-0.526485
-0.277282
-0.127667
-0.431613
-0.660768
-0.450602
0.181246
-0.858247
-0.799267
-0.766299
-0.747216
-0.714716
-0.782364
-0.860108
-0.852944
-0.728042
-0.646194
-0.585877
-0.432873
-0.251949
-0.0998007
-0.00724913
-0.148468
-0.573534
-0.43372
0.18332
-0.876837
-0.843078
-0.805891
-0.733825
-0.642976
-0.648051
-0.854172
-0.84439
-0.765003
-0.740789
-0.630779
-0.368207
-0.145367
0.0046011
0.0671902
-0.0230056
-0.396265
-0.384551
0.194082
-0.907099
-0.889636
-0.847589
-0.812743
-0.783398
-0.782403
-0.813889
-0.79698
-0.788677
-0.772138
-0.63733
-0.444688
-0.208832
0.0102381
0.112064
0.128081
-0.0250817
-0.326687
0.235372
-0.902512
-0.889408
-0.869909
-0.847931
-0.843129
-0.859998
-0.874161
-0.882197
-0.858782
-0.732728
-0.670552
-0.583544
-0.342526
-0.139883
0.0667789
0.171453
0.210174
0.134629
0.290611
-0.95748
-0.94989
-0.924923
-0.905748
-0.901834
-0.918129
-0.912019
-0.812864
-0.636053
-0.465394
-0.394818
-0.361897
-0.345958
-0.218874
-0.0471496
0.101516
0.201274
0.248211
0.256701
-0.980031
-0.972574
-0.95811
-0.94024
-0.914304
-0.88841
-0.840349
-0.721091
-0.53814
-0.37675
-0.310191
-0.28812
-0.275935
-0.230495
-0.0812213
0.04008
0.101907
0.168638
0.197078
-0.971203
-0.96464
-0.958624
-0.954988
-0.93738
-0.915474
-0.870972
-0.766673
-0.551593
-0.377142
-0.323397
-0.308404
-0.301979
-0.246319
-0.100275
-0.0154431
0.0339696
0.146906
0.181316
-0.945829
-0.935521
-0.92228
-0.909293
-0.892393
-0.866748
-0.826893
-0.747251
-0.617064
-0.483269
-0.441574
-0.495116
-0.524153
-0.485151
-0.287034
-0.199649
-0.125586
0.102221
0.151267
-0.95559
-0.948958
-0.926784
-0.905482
-0.880847
-0.843998
-0.803959
-0.742586
-0.667509
-0.657135
-0.701069
-0.74801
-0.773463
-0.685384
-0.542799
-0.422349
-0.366419
-0.082282
0.0276775
-0.992664
-0.992475
-0.984833
-0.974724
-0.960669
-0.932679
-0.9007
-0.879921
-0.861313
-0.848622
-0.874678
-0.879031
-0.889453
-0.812471
-0.705676
-0.542762
-0.475229
-0.259326
-0.124825
-0.998825
-0.998917
-0.99821
-0.996199
-0.991821
-0.98498
-0.97407
-0.95529
-0.946057
-0.933405
-0.948535
-0.944789
-0.935851
-0.880773
-0.78797
-0.612367
-0.521052
-0.342737
-0.195698
-0.999294
-0.999538
-0.999218
-0.998234
-0.996064
-0.993654
-0.989718
-0.982587
-0.980427
-0.974025
-0.98201
-0.978234
-0.97304
-0.94831
-0.873309
-0.655046
-0.554891
-0.386058
-0.249749
-0.999266
-0.999794
-0.999829
-0.999819
-0.999645
-0.999025
-0.998162
-0.995887
-0.994125
-0.992513
-0.995396
-0.994106
-0.994564
-0.989146
-0.950344
-0.726687
-0.67067
-0.461447
-0.36276
-0.999784
-0.999944
-0.999951
-0.99994
-0.999897
-0.999778
-0.999554
-0.999394
-0.998558
-0.99825
-0.999021
-0.998793
-0.998998
-0.998047
-0.983064
-0.86908
-0.86265
-0.663371
-0.610472
-0.999956
-0.999987
-0.999987
-0.999979
-0.999971
-0.999949
-0.999887
-0.999842
-0.99952
-0.999503
-0.999757
-0.999768
-0.999789
-0.999699
-0.99881
-0.971865
-0.960872
-0.873451
-0.836071
-0.999996
-0.999998
-0.999998
-0.999996
-0.999994
-0.999988
-0.999969
-0.999953
-0.999893
-0.999897
-0.999937
-0.999944
-0.99993
-0.999918
-0.999714
-0.995832
-0.99122
-0.958564
-0.933675
-1
-1
-1
-0.999999
-0.999999
-0.999998
-0.999992
-0.999989
-0.999987
-0.999983
-0.999988
-0.999985
-0.99997
-0.999965
-0.999901
-0.999409
-0.996354
-0.978121
-0.966867
-1
-1
-1
-1
-1
-1
-1
-0.999999
-0.999998
-0.999994
-0.999997
-0.999995
-0.999986
-0.99998
-0.999961
-0.999771
-0.99654
-0.983781
-0.978741
-1
-1
-1
-1
-1
-1
-1
-1
-1
-1
-1
-0.999998
-0.999994
-0.999989
-0.999986
-0.999798
-0.996991
-0.98813
-0.983408
-1
-1
-1
-1
-1
-1
-1
-1
-1
-1
-1
-0.999999
-0.999997
-0.999995
-0.999992
-0.999966
-0.998407
-0.993189
-0.985664
-1
-1
-1
-1
-1
-1
-1
-1
-1
-1
-1
-0.999999
-0.999998
-0.999998
-0.999996
-0.999969
-0.999522
-0.997389
-0.987226
-1
-1
-1
-1
-1
-1
-1
-1
-1
-1
-1
-1
-0.999999
-0.999999
-0.999996
-0.99997
-0.999817
-0.999014
-0.988508
-1
-1
-1
-1
-1
-1
-1
-1
-1
-1
-1
-1
-1
-0.999999
-0.999996
-0.999951
-0.999832
-0.999368
-0.989332
-1
-1
-1
-1
-1
-1
-1
-1
-1
-1
-1
-1
-1
-1
-0.999996
-0.999944
-0.999809
-0.999446
-0.989838
-1
-1
-1
-1
-1
-1
-1
-1
-1
-1
-1
-1
-1
-0.999999
-0.999997
-0.999951
-0.999801
-0.999496
-0.990623
-1
-1
-1
-1
-1
-1
-1
-1
-1
-1
-1
-1
-1
-1
-0.999998
-0.999953
-0.999798
-0.999558
-0.992059
-1
-1
-1
-1
-1
-1
-1
-1
-1
-1
-1
-1
-1
-1
-0.999997
-0.999963
-0.999872
-0.999439
-0.987782
-1
-1
-1
-1
-1
-1
-1
-1
-1
-1
-1
-1
-1
-1
-0.999999
-0.999978
-0.999942
-0.999494
-0.992489
-1
-1
-1
-1
-1
-1
-1
-1
-1
-1
-1
-1
-1
-1
-1
-0.999989
-0.99999
-0.999714
-0.994741
-1
-1
-1
-1
-1
-1
-1
-1
-1
-1
-1
-1
-1
-1
-1
-0.999999
-0.999999
-0.999874
-0.996514
-1
-1
-1
-1
-1
-1
-1
-1
-1
-1
-1
-1
-1
-1
-1
-1
-1
-0.999982
-0.997405
-1
-1
-1
-1
-1
-1
-1
-1
-1
-1
-1
-1
-1
-1
-1
-1
-1
-0.999995
-0.99817
-1
-1
-1
-1
-1
-1
-1
-1
-1
-1
-1
-1
-1
-1
-1
-1
-0.999999
-0.999999
-0.9988
-1
-1
-1
-1
-1
-1
-1
-1
-1
-1
-1
-1
-1
-1
-1
-1
-0.999999
-0.999999
-0.998887
-1
-1
-1
-1
-1
-1
-1
-1
-1
-1
-1
-1
-1
-1
-1
-1
-0.999999
-0.999999
-0.999497
)
;

boundaryField
{
    leftWall
    {
        type            zeroGradient;
    }
    rightWall
    {
        type            zeroGradient;
    }
    lowerWall
    {
        type            zeroGradient;
    }
    atmosphere
    {
        type            zeroGradient;
    }
    defaultFaces
    {
        type            empty;
    }
}


// ************************************************************************* //
