/*--------------------------------*- C++ -*----------------------------------*\
| =========                 |                                                 |
| \\      /  F ield         | foam-extend: Open Source CFD                    |
|  \\    /   O peration     | Version:     4.1                                |
|   \\  /    A nd           | Web:         http://www.foam-extend.org         |
|    \\/     M anipulation  |                                                 |
\*---------------------------------------------------------------------------*/
FoamFile
{
    version     2.0;
    format      ascii;
    class       volScalarField;
    location    "0.8";
    object      C_0;
}
// * * * * * * * * * * * * * * * * * * * * * * * * * * * * * * * * * * * * * //

dimensions      [0 0 0 0 0 0 0];

internalField   nonuniform List<scalar> 
2268
(
0.290975
0.108009
0.69473
0.668394
0.554992
0.205024
0.252559
0.212351
0.455173
0.965142
0.998004
0.998087
0.999316
0.999638
0.999749
0.999867
0.999952
0.99993
0.999136
0.996152
0.992566
0.959862
0.193008
0.220742
-0.00731211
0.592867
0.0231051
0.379219
0.41046
0.369751
0.365964
0.616539
0.942808
0.98617
0.991015
0.997559
0.999107
0.999575
0.999717
0.999855
0.999931
0.999766
0.999699
0.999447
0.991738
0.95211
0.167339
-0.166393
0.561838
-0.213939
-0.152554
0.278347
0.368573
0.512337
0.661268
0.532488
0.971814
0.978743
0.995657
0.998684
0.999254
0.999371
0.999728
0.99989
0.999935
0.999906
0.999004
0.994059
0.981961
0.130058
-0.250205
0.173881
-0.226503
-0.275314
0.190544
0.366839
0.541234
0.538004
-0.424009
0.619381
0.95182
0.991088
0.997409
0.997503
0.996745
0.99872
0.999229
0.999767
0.999739
0.999154
0.993235
0.984117
0.151984
-0.274923
-0.0893115
-0.223095
-0.431326
0.224694
0.270561
0.478545
0.514247
-0.134638
0.603635
0.919196
0.977953
0.992937
0.990474
0.985586
0.995983
0.997343
0.998866
0.99876
0.996526
0.983723
0.980265
0.237261
-0.534389
-0.386844
-0.449628
-0.511685
-0.272729
-0.0382158
0.337613
0.485721
0.306099
0.629137
0.910675
0.959236
0.981588
0.973702
0.953626
0.984265
0.982028
0.991701
0.991496
0.981164
0.947893
0.952638
-0.301922
-0.754947
-0.592404
-0.618366
-0.567951
-0.20749
-0.173319
0.121521
0.407666
0.530685
0.739343
0.905974
0.920907
0.958463
0.944463
0.858902
0.93277
0.898348
0.943813
0.930492
0.935134
0.899742
0.856658
-0.774836
-0.776317
-0.733185
-0.678818
-0.647399
-0.527748
-0.31463
0.242805
0.268229
-0.0410991
0.605618
0.87814
0.831665
0.941882
0.919237
0.686008
0.848828
0.677469
0.808185
0.716496
0.740497
0.777432
0.658777
0.315845
0.321386
0.321545
0.321644
0.321282
0.31974
0.31086
0.294068
0.287983
0.243267
0.157306
0.0572463
0.0230835
0.016497
0.0404335
0.130808
0.206459
0.22749
0.352739
0.312568
0.320458
0.321556
0.31442
0.300036
0.263972
0.230549
0.208058
0.18335
0.121402
0.0616024
0.0308446
-0.00253829
0.028746
0.127451
0.271927
0.362984
0.401177
0.432266
0.302781
0.290059
0.263464
0.256497
0.221357
0.0648813
-0.0106632
-0.0255528
0.016856
0.0399843
-0.0130675
0.0517362
0.0762602
0.183952
0.253041
0.28164
0.255711
0.295046
0.415306
0.28592
0.23793
0.205111
0.20342
0.130732
-0.110961
-0.265649
-0.310033
-0.254249
-0.292904
-0.201069
-0.0342301
0.117533
0.172284
0.158598
0.0998819
0.0291285
0.121003
0.390812
0.261834
0.183198
0.142496
0.115613
-0.0901029
-0.301276
-0.451555
-0.446405
-0.515184
-0.55309
-0.501937
-0.430511
-0.0101299
0.0868406
-0.051547
-0.249879
-0.161612
0.0232505
0.378099
0.23364
0.113109
0.0235947
-0.0632433
-0.118092
-0.42451
-0.638978
-0.475956
-0.626756
-0.619535
-0.615737
-0.681011
-0.542563
-0.416538
-0.298773
-0.547375
-0.388954
-0.0208951
0.370199
0.196062
0.0122752
-0.141744
-0.321511
-0.222253
-0.498871
-0.688761
-0.634155
-0.645157
-0.658559
-0.675805
-0.69009
-0.68829
-0.701291
-0.62949
-0.594519
-0.48118
-0.0136147
0.367184
0.133419
-0.241336
-0.381212
-0.437469
-0.317568
-0.557544
-0.512209
-0.576318
-0.585908
-0.601971
-0.609628
-0.557469
-0.518926
-0.572783
-0.477272
-0.443355
-0.343802
0.114782
0.371917
-0.883245
-0.783382
-0.733793
-0.641593
-0.43593
-0.275512
-0.168818
0.209444
-0.103088
0.308896
0.503066
0.648229
0.399585
0.902959
0.830468
0.369902
0.632181
0.388677
0.429025
0.543732
0.446273
0.111316
-0.00505157
-0.907995
-0.747876
-0.556131
-0.53709
-0.347784
-0.14464
-0.407312
0.0767429
-0.37495
0.149981
-0.286878
0.125756
-0.185835
0.500795
0.510317
0.0308442
0.351971
0.351082
0.434652
0.487061
0.259127
-0.0036413
-0.128218
-0.945935
-0.759161
-0.517102
-0.519288
-0.455902
-0.277825
-0.478334
-0.390131
-0.393959
-0.162543
-0.349334
0.00605571
-0.293423
0.312579
0.474395
-0.0323433
0.0960601
0.336826
0.396703
0.370217
0.135678
-0.023871
-0.0773896
-0.935929
-0.6967
-0.459986
-0.467726
-0.66868
-0.490853
-0.375208
-0.135276
-0.178267
-0.533674
-0.449409
-0.0649739
-0.332747
0.0871589
-0.2214
-0.482046
-0.337226
0.107323
0.296065
0.257676
0.0680967
-0.0744001
-0.164361
-0.97133
-0.93581
-0.756993
-0.444337
-0.805613
-0.715644
-0.722134
-0.551629
-0.530635
-0.855346
-0.691962
-0.116684
-0.538659
-0.645669
-0.730926
-0.78498
-0.642731
-0.288386
0.0250485
0.0293039
-0.138279
-0.224952
-0.573187
-0.974274
-0.960488
-0.916303
-0.76019
-0.92301
-0.863954
-0.929311
-0.872599
-0.838901
-0.931503
-0.526758
0.0796896
-0.529796
-0.878523
-0.928201
-0.918721
-0.806988
-0.616958
-0.459053
-0.428706
-0.485281
-0.633533
-0.804583
-0.975081
-0.97057
-0.964161
-0.948331
-0.960029
-0.93578
-0.974656
-0.957792
-0.956995
-0.980819
-0.910302
-0.337499
-0.885461
-0.966553
-0.967474
-0.926665
-0.875064
-0.811215
-0.775531
-0.735877
-0.752419
-0.841202
-0.865291
-0.975932
-0.975108
-0.976656
-0.974737
-0.978334
-0.979063
-0.98744
-0.98248
-0.987405
-0.991161
-0.970991
-0.902187
-0.978021
-0.97509
-0.962566
-0.949274
-0.936368
-0.921189
-0.905667
-0.894277
-0.905699
-0.942698
-0.899355
-0.977359
-0.980246
-0.980372
-0.977665
-0.979948
-0.982682
-0.987341
-0.990915
-0.993645
-0.992952
-0.9865
-0.982761
-0.982754
-0.978261
-0.976404
-0.976877
-0.976843
-0.973791
-0.965794
-0.963826
-0.954852
-0.951096
-0.943707
-0.981427
-0.987419
-0.987672
-0.987088
-0.991134
-0.991734
-0.989831
-0.992291
-0.99581
-0.996747
-0.994648
-0.989973
-0.987352
-0.986176
-0.987555
-0.987811
-0.985175
-0.974974
-0.956874
-0.939622
-0.92888
-0.923365
-0.919781
-0.985309
-0.992895
-0.995271
-0.996762
-0.998108
-0.99744
-0.994405
-0.993865
-0.996297
-0.996171
-0.993521
-0.99244
-0.992182
-0.992786
-0.993324
-0.993127
-0.989116
-0.976914
-0.955222
-0.93102
-0.922724
-0.921012
-0.918701
-0.989355
-0.995427
-0.998546
-0.999137
-0.999109
-0.997431
-0.995817
-0.995756
-0.997272
-0.99714
-0.995487
-0.994929
-0.994828
-0.993552
-0.992743
-0.99132
-0.985394
-0.967546
-0.956241
-0.954536
-0.962549
-0.971425
-0.971339
-0.993936
-0.997075
-0.999289
-0.999588
-0.999278
-0.998072
-0.997258
-0.997051
-0.997815
-0.995787
-0.988919
-0.983554
-0.981048
-0.979931
-0.972474
-0.970186
-0.97264
-0.967155
-0.973562
-0.98459
-0.990364
-0.991757
-0.988807
-0.997511
-0.998226
-0.999522
-0.999774
-0.999588
-0.998318
-0.996921
-0.995344
-0.990675
-0.980496
-0.973697
-0.970989
-0.970316
-0.9698
-0.970157
-0.973062
-0.97792
-0.982975
-0.994631
-0.997919
-0.998043
-0.996475
-0.993373
-0.999188
-0.998973
-0.999661
-0.999819
-0.999188
-0.997543
-0.99479
-0.989174
-0.982277
-0.97927
-0.977994
-0.981232
-0.984625
-0.987057
-0.988958
-0.990776
-0.992099
-0.995439
-0.996315
-0.992214
-0.989363
-0.986379
-0.978466
-0.999755
-0.999506
-0.999822
-0.999864
-0.999411
-0.997941
-0.994998
-0.990066
-0.983984
-0.982438
-0.985031
-0.991613
-0.995916
-0.997542
-0.998079
-0.998128
-0.997813
-0.998167
-0.998021
-0.996897
-0.994402
-0.987379
-0.978962
-0.999919
-0.999759
-0.999908
-0.999941
-0.99973
-0.998698
-0.996161
-0.991471
-0.987828
-0.988516
-0.99316
-0.995161
-0.997383
-0.998148
-0.998539
-0.999005
-0.999322
-0.999267
-0.998882
-0.997212
-0.991192
-0.985527
-0.983826
-0.999972
-0.999892
-0.999954
-0.999977
-0.999916
-0.999447
-0.997785
-0.995474
-0.994243
-0.992231
-0.996323
-0.996363
-0.997851
-0.998958
-0.999283
-0.999246
-0.999607
-0.999734
-0.999239
-0.996702
-0.99099
-0.987656
-0.989635
-0.999988
-0.999958
-0.999977
-0.999992
-0.999984
-0.999855
-0.999212
-0.998953
-0.998383
-0.995129
-0.998057
-0.998905
-0.998829
-0.999302
-0.999744
-0.999611
-0.999744
-0.999838
-0.999462
-0.997476
-0.992999
-0.990003
-0.99019
-0.999996
-0.999988
-0.99999
-0.999996
-0.999998
-0.999967
-0.99977
-0.999814
-0.999573
-0.998139
-0.999028
-0.999584
-0.999562
-0.999671
-0.999836
-0.999862
-0.999852
-0.999905
-0.999874
-0.999102
-0.997143
-0.995034
-0.994541
-0.999999
-0.999997
-0.999997
-0.999998
-1
-0.999993
-0.999953
-0.999965
-0.999918
-0.999499
-0.99969
-0.999846
-0.999864
-0.999885
-0.999927
-0.999965
-0.999938
-0.999945
-0.999971
-0.999796
-0.999353
-0.998891
-0.998734
-1
-0.999999
-0.999999
-0.999999
-1
-0.999999
-0.999993
-0.999995
-0.999986
-0.999929
-0.999913
-0.999955
-0.999956
-0.999957
-0.999972
-0.999991
-0.999981
-0.999977
-0.999988
-0.999961
-0.999925
-0.99988
-0.999824
-1
-1
-1
-1
-1
-1
-0.999999
-0.999999
-0.999998
-0.999991
-0.999976
-0.999988
-0.999986
-0.999989
-0.999992
-0.999997
-0.999996
-0.999992
-0.999996
-0.999992
-0.999992
-0.99999
-0.999985
-1
-1
-1
-1
-1
-1
-1
-1
-1
-0.999999
-0.999994
-0.999996
-0.999996
-0.999998
-0.999998
-0.999999
-0.999999
-0.999998
-0.999999
-0.999999
-0.999999
-0.999999
-0.999999
-1
-1
-1
-1
-1
-1
-1
-1
-1
-1
-0.999999
-0.999999
-0.999999
-0.999999
-1
-1
-1
-1
-1
-1
-1
-1
-1
-1
-1
-1
-1
-1
-1
-1
-1
-1
-1
-1
-1
-1
-1
-1
-1
-1
-1
-1
-1
-1
-1
-1
-1
-1
-1
-1
-1
-1
-1
-1
-1
-1
-1
-1
-1
-1
-1
-1
-1
-1
-1
-1
-1
-1
-1
-1
-1
-1
-1
-1
-1
-1
-1
-1
-1
-1
-1
-1
-1
-1
-1
-1
-1
-1
-1
-1
-1
-1
-1
-1
-1
-1
-1
-1
-1
-1
-1
-1
-1
-1
-1
-1
-1
-1
-1
-1
-1
-1
-1
-1
-1
-1
-1
-1
-1
-1
-1
-1
-1
-1
-1
-1
-1
-1
-1
-1
-1
-1
-1
-1
-1
-1
-1
-1
-1
-1
-1
-1
-1
-1
-1
-1
-1
-1
-1
-1
-1
-1
-1
-1
-1
-1
-1
-1
-1
-1
-1
-1
-1
-1
-1
-1
-1
-1
-1
-1
-1
-1
-1
-1
-1
-1
-1
-1
-1
-1
-1
-1
-1
-1
-1
-1
-1
-1
-1
-1
-1
-1
-1
-1
-1
-1
-1
-1
-1
-1
-1
-1
-1
-1
-1
-1
-1
-1
-1
-1
-1
-1
-1
-1
-1
-1
-1
-1
-1
-1
-1
-1
-1
-1
-1
-1
-1
-1
-1
-1
-1
-1
-1
-1
-1
-1
-1
-1
-1
-1
-1
-1
-1
-1
-1
-1
-1
-1
-1
-1
-1
-1
-1
-1
-1
-1
-1
-1
-1
-1
-1
-1
-1
-1
-1
-1
-1
-1
-1
-1
-1
-1
-1
-1
-1
-1
-1
-1
-1
-1
-1
-1
-1
-1
-1
-1
-1
-1
-1
-1
-1
-1
-1
-1
-1
-1
-1
-1
-1
-1
-1
-1
-1
-1
-1
-1
-1
-1
-1
-1
-1
-1
-1
-1
-1
-1
-1
-1
-1
-1
-1
-1
-1
-1
-1
-1
-1
-1
-1
-1
-1
-1
-1
-1
-1
-1
-1
-1
-1
-1
-1
-1
-1
-1
-1
-1
-1
-1
-1
-1
-1
-1
-1
-1
-1
-1
-1
-1
-1
-1
-1
-1
-1
-1
-1
-1
-1
-1
-1
-1
-1
-1
-1
-1
-1
-1
-1
-1
-1
-1
-1
-1
-1
-1
-1
-1
-1
-1
-1
-1
-1
-1
-1
-1
-1
-1
-1
-1
-1
-1
-1
-1
-1
-1
-1
-1
-1
-1
-1
-1
-1
-1
-1
-1
-0.181036
-0.183497
-0.172147
-0.163483
-0.138881
-0.0721479
-0.0126837
0.0311069
-0.0724192
-0.0257126
0.0425643
0.108546
-0.179259
-0.134395
-0.0596612
-0.0221834
-0.649589
-0.612201
-0.511726
-0.481254
-0.807359
-0.806399
-0.7884
-0.718592
-0.747199
-0.709249
-0.710594
-0.739145
-0.842784
-0.822293
-0.826677
-0.857436
-0.938731
-0.929318
-0.918603
-0.90811
-0.917829
-0.91663
-0.914986
-0.912736
-0.914648
-0.913284
-0.911425
-0.909647
-0.967075
-0.963343
-0.961262
-0.959781
-0.984925
-0.98389
-0.983297
-0.982658
-0.989696
-0.986952
-0.983486
-0.978971
-0.968975
-0.963342
-0.957827
-0.953439
-0.970838
-0.967932
-0.965745
-0.961822
-0.98871
-0.991531
-0.992446
-0.992614
-0.996396
-0.997568
-0.998214
-0.998551
-0.9944
-0.997216
-0.998474
-0.998953
-0.995529
-0.996518
-0.997628
-0.998368
-0.998916
-0.999071
-0.999237
-0.999494
-0.999832
-0.999839
-0.999857
-0.999894
-0.999987
-0.999985
-0.999986
-0.99999
-0.999999
-0.999999
-0.999999
-0.999999
-1
-1
-1
-1
-1
-1
-1
-1
-1
-1
-1
-1
-1
-1
-1
-1
-1
-1
-1
-1
-1
-1
-1
-1
-1
-1
-1
-1
-1
-1
-1
-1
-1
-1
-1
-1
-1
-1
-1
-1
-1
-1
-1
-1
-1
-1
-1
-1
-1
-1
-1
-1
-1
-1
-1
-1
-1
-1
-1
-1
-1
-1
-1
-1
-1
-1
-1
-1
-1
-1
-1
-1
-0.139276
-0.392853
-0.426771
-0.316758
-0.369342
-0.380386
-0.181978
-0.202516
0.101633
-0.163562
-0.168297
-0.242055
-0.202063
-0.13187
-0.0186801
0.0249875
0.0988984
0.218484
0.375147
0.129762
0.318396
0.287592
0.485353
0.42233
0.498343
0.372902
0.445925
0.540954
0.49663
0.496315
0.482602
0.444356
0.392381
0.368332
0.344522
0.317364
0.284214
0.323532
0.245354
0.511843
0.426499
0.227169
0.205941
0.111483
-0.216904
-0.109163
0.116168
0.0242488
0.0898169
-0.0668045
0.0317452
0.19004
0.325277
0.336864
0.309739
0.105352
0.190583
-0.0288494
0.302879
-0.0924368
-0.364239
-0.322715
-0.365454
-0.513634
-0.530711
-0.603811
-0.611851
-0.6059
-0.510902
-0.301578
-0.0687075
-0.114244
-0.2209
-0.260713
-0.281033
-0.00476858
-0.541285
-0.261701
-0.475539
-0.63837
-0.563926
-0.567934
-0.605324
-0.718458
-0.822701
-0.780524
-0.728246
-0.513317
-0.563843
-0.560125
-0.605217
-0.615931
-0.616828
-0.516284
0.0108492
-0.606872
-0.554323
-0.682511
-0.729792
-0.684185
-0.62496
-0.71511
-0.843535
-0.86401
-0.786378
-0.74009
-0.71017
-0.763386
-0.605732
-0.399967
-0.650605
-0.748251
-0.499235
0.151558
-0.77365
-0.78756
-0.739378
-0.74829
-0.719609
-0.623764
-0.819777
-0.874324
-0.809976
-0.681292
-0.613809
-0.558409
-0.53566
-0.287452
-0.134366
-0.43534
-0.659989
-0.45473
0.181438
-0.858887
-0.799789
-0.766217
-0.747979
-0.714163
-0.776123
-0.860218
-0.857649
-0.733384
-0.649006
-0.588727
-0.442134
-0.262935
-0.107007
-0.0114914
-0.14815
-0.572272
-0.436484
0.183326
-0.877848
-0.843879
-0.807984
-0.737098
-0.642752
-0.642665
-0.854167
-0.847417
-0.766014
-0.74189
-0.637062
-0.379473
-0.153283
0.00152067
0.0653434
-0.020926
-0.394824
-0.386093
0.194008
-0.907652
-0.890605
-0.848864
-0.81427
-0.784423
-0.781616
-0.813936
-0.797104
-0.788607
-0.778136
-0.648592
-0.45363
-0.213455
0.00848964
0.111249
0.127904
-0.0234166
-0.325268
0.23493
-0.902587
-0.890026
-0.871301
-0.848869
-0.843831
-0.859723
-0.87472
-0.88384
-0.868328
-0.749137
-0.682572
-0.592673
-0.350477
-0.145339
0.0639219
0.170244
0.210398
0.132424
0.290852
-0.957638
-0.951318
-0.927502
-0.907041
-0.901377
-0.918671
-0.917005
-0.826331
-0.656422
-0.482576
-0.405193
-0.369337
-0.352946
-0.225568
-0.0527559
0.100416
0.201824
0.249584
0.258379
-0.980778
-0.974303
-0.960731
-0.943553
-0.918503
-0.893215
-0.848308
-0.734885
-0.55553
-0.385282
-0.312701
-0.288558
-0.276779
-0.234598
-0.0858745
0.0415279
0.10364
0.168818
0.197763
-0.972789
-0.965936
-0.959701
-0.956015
-0.939758
-0.918824
-0.876656
-0.777679
-0.566214
-0.38096
-0.32024
-0.302576
-0.295719
-0.243392
-0.0983545
-0.0089957
0.0398
0.147329
0.182372
-0.947019
-0.936826
-0.923715
-0.910773
-0.894243
-0.869207
-0.830483
-0.75266
-0.623389
-0.476976
-0.427119
-0.476032
-0.504835
-0.471947
-0.277554
-0.184209
-0.113934
0.107616
0.155384
-0.955764
-0.949248
-0.927551
-0.906103
-0.881523
-0.844924
-0.80501
-0.743515
-0.661676
-0.643297
-0.685156
-0.733675
-0.762467
-0.676124
-0.532936
-0.411936
-0.359727
-0.0708164
0.0385771
-0.992433
-0.992281
-0.984661
-0.974446
-0.96023
-0.931564
-0.897956
-0.875625
-0.855542
-0.842148
-0.86846
-0.872154
-0.885444
-0.807325
-0.700965
-0.538569
-0.472938
-0.253682
-0.117805
-0.998766
-0.998876
-0.998205
-0.996192
-0.99174
-0.984698
-0.973478
-0.953602
-0.943424
-0.930435
-0.945743
-0.941466
-0.933081
-0.876855
-0.786135
-0.611315
-0.519243
-0.340207
-0.190764
-0.999274
-0.999513
-0.999207
-0.998207
-0.995968
-0.993459
-0.989397
-0.981775
-0.979229
-0.972662
-0.980677
-0.976475
-0.971083
-0.945301
-0.87071
-0.652455
-0.550493
-0.382485
-0.242377
-0.999267
-0.999785
-0.99982
-0.999811
-0.999624
-0.998959
-0.998034
-0.995589
-0.993705
-0.992043
-0.994925
-0.993469
-0.993976
-0.987837
-0.946682
-0.717055
-0.655331
-0.449919
-0.34564
-0.99979
-0.999944
-0.999949
-0.999937
-0.999892
-0.999763
-0.999526
-0.999353
-0.998467
-0.998143
-0.998922
-0.998646
-0.998878
-0.997769
-0.980746
-0.85744
-0.848482
-0.63918
-0.582927
-0.999959
-0.999988
-0.999986
-0.999978
-0.999969
-0.999946
-0.999881
-0.999832
-0.999491
-0.999473
-0.999737
-0.999742
-0.999767
-0.99966
-0.998642
-0.967727
-0.955506
-0.860023
-0.820928
-0.999996
-0.999998
-0.999998
-0.999996
-0.999994
-0.999987
-0.999966
-0.99995
-0.999884
-0.99989
-0.999933
-0.999939
-0.999924
-0.999911
-0.999685
-0.995265
-0.990256
-0.955247
-0.928295
-1
-1
-1
-0.999999
-0.999999
-0.999998
-0.999991
-0.999989
-0.999987
-0.999983
-0.999987
-0.999984
-0.999968
-0.999963
-0.999894
-0.999362
-0.996336
-0.977509
-0.965009
-1
-1
-1
-1
-1
-1
-1
-0.999999
-0.999998
-0.999994
-0.999997
-0.999995
-0.999985
-0.999979
-0.999959
-0.999779
-0.996652
-0.983506
-0.978004
-1
-1
-1
-1
-1
-1
-1
-1
-1
-1
-1
-0.999998
-0.999994
-0.999988
-0.999985
-0.999808
-0.997004
-0.9878
-0.983059
-1
-1
-1
-1
-1
-1
-1
-1
-1
-1
-1
-0.999999
-0.999997
-0.999994
-0.999992
-0.999965
-0.998325
-0.992821
-0.985434
-1
-1
-1
-1
-1
-1
-1
-1
-1
-1
-1
-0.999999
-0.999998
-0.999998
-0.999995
-0.999968
-0.999491
-0.99718
-0.987028
-1
-1
-1
-1
-1
-1
-1
-1
-1
-1
-1
-1
-0.999999
-0.999999
-0.999996
-0.99997
-0.99981
-0.998956
-0.988336
-1
-1
-1
-1
-1
-1
-1
-1
-1
-1
-1
-1
-1
-0.999999
-0.999996
-0.99995
-0.999829
-0.999351
-0.989202
-1
-1
-1
-1
-1
-1
-1
-1
-1
-1
-1
-1
-1
-1
-0.999996
-0.999943
-0.999806
-0.999437
-0.989714
-1
-1
-1
-1
-1
-1
-1
-1
-1
-1
-1
-1
-1
-0.999999
-0.999997
-0.999949
-0.999797
-0.999489
-0.990457
-1
-1
-1
-1
-1
-1
-1
-1
-1
-1
-1
-1
-1
-1
-0.999998
-0.999951
-0.999793
-0.99955
-0.991861
-1
-1
-1
-1
-1
-1
-1
-1
-1
-1
-1
-1
-1
-1
-0.999997
-0.999962
-0.999866
-0.999427
-0.987629
-1
-1
-1
-1
-1
-1
-1
-1
-1
-1
-1
-1
-1
-1
-0.999999
-0.999977
-0.999939
-0.99948
-0.992231
-1
-1
-1
-1
-1
-1
-1
-1
-1
-1
-1
-1
-1
-1
-1
-0.999989
-0.99999
-0.999702
-0.994583
-1
-1
-1
-1
-1
-1
-1
-1
-1
-1
-1
-1
-1
-1
-1
-0.999999
-0.999999
-0.999868
-0.996439
-1
-1
-1
-1
-1
-1
-1
-1
-1
-1
-1
-1
-1
-1
-1
-1
-1
-0.999982
-0.997357
-1
-1
-1
-1
-1
-1
-1
-1
-1
-1
-1
-1
-1
-1
-1
-1
-1
-0.999995
-0.998135
-1
-1
-1
-1
-1
-1
-1
-1
-1
-1
-1
-1
-1
-1
-1
-1
-0.999999
-0.999999
-0.998779
-1
-1
-1
-1
-1
-1
-1
-1
-1
-1
-1
-1
-1
-1
-1
-1
-0.999999
-0.999999
-0.998873
-1
-1
-1
-1
-1
-1
-1
-1
-1
-1
-1
-1
-1
-1
-1
-1
-0.999999
-0.999999
-0.999492
)
;

boundaryField
{
    leftWall
    {
        type            zeroGradient;
    }
    rightWall
    {
        type            zeroGradient;
    }
    lowerWall
    {
        type            zeroGradient;
    }
    atmosphere
    {
        type            zeroGradient;
    }
    defaultFaces
    {
        type            empty;
    }
}


// ************************************************************************* //
