/*--------------------------------*- C++ -*----------------------------------*\
| =========                 |                                                 |
| \\      /  F ield         | foam-extend: Open Source CFD                    |
|  \\    /   O peration     | Version:     4.1                                |
|   \\  /    A nd           | Web:         http://www.foam-extend.org         |
|    \\/     M anipulation  |                                                 |
\*---------------------------------------------------------------------------*/
FoamFile
{
    version     2.0;
    format      ascii;
    class       volScalarField;
    location    "0.8";
    object      p;
}
// * * * * * * * * * * * * * * * * * * * * * * * * * * * * * * * * * * * * * //

dimensions      [1 -1 -2 0 0 0 0];

internalField   nonuniform List<scalar> 
2268
(
1693.74
1967.5
894.458
1061.73
1241.13
1954.03
1931.66
2001.33
1564.71
671.634
743.068
722.56
771.796
759.943
779.918
774.749
782.223
778.344
794.95
784.176
787.148
803.744
1556.89
1774.53
1983.38
1090.27
1963.45
1643.48
1488.92
1640.51
1662.17
1071.61
602.729
672.608
659.26
715.698
704.997
719.949
715.523
725.518
715.279
744.198
724.703
727.051
733.092
740.545
1809.57
1838.58
1128.8
1768.79
1933.27
1745.97
1608.28
1243.96
887.421
1299.76
611.843
607.375
653.471
648.395
665.04
656.773
663.508
659.575
682.565
659.403
669.287
671.726
667.027
1819.95
1728.42
1840.46
1745.67
1716.34
1839.43
1574.35
1129.54
1174.82
1368.02
1109.29
559.094
593.666
607.646
600.253
593.854
606.396
599.172
628.531
605.924
609.752
609.639
612.118
1744.59
1638.18
1920.86
1733.28
1362.64
1757.41
1737.37
1275.7
1177.49
1862.02
1076.78
566.923
532.68
545.339
551.546
531.172
549.434
537.34
572.146
544.79
545.91
557.392
541.794
1570.96
1015.79
1428.85
1256.8
1114.75
1652.49
1959.01
1572.77
1187.66
1600.14
944.672
520.96
485.812
496.964
522.306
481.256
493.049
485.266
518.686
497.472
488.763
518.65
515.347
1426.77
419.584
860.871
790.665
955.144
1743.92
1818.43
1888.94
1345.32
1059.5
591.293
460.152
514.303
490.177
461.1
525.745
457.338
474.19
493.15
460.55
439.454
493.354
504.801
380.065
367.781
461.259
612.01
705.451
1034.62
1577.13
1687.91
1538.69
1795.87
967.61
418.436
537.46
449.528
453.291
848.539
497.898
869.974
641.723
810.54
726.011
603.714
913.47
2485.8
2416.52
2245.33
1983.08
2100.54
2064.78
2094.97
1894
1953.8
2102.97
2171.36
2275.95
2337.29
2344.76
2239.32
2475.05
2206.35
2543.64
2560.48
2430.79
2371.31
2207.04
1879.64
2133.85
2179.09
2084.58
2046.82
2069.37
2251.71
2283.63
2146.67
2315.03
2343.56
2054.43
2242.31
1891.38
2104.01
2232.07
2208.07
2341.75
2240.12
2012.85
2201.8
2309.25
2279.39
2186.95
2191.56
2213.18
2245.74
2188.51
2168.53
2104.45
1959.5
2035.09
2178.33
2247.89
2194.87
2167.85
2265.86
2257.21
2104.87
2185.6
2218.29
1965.85
1822.6
2020.75
1856.99
2119.27
2197.94
2058.31
2085.36
2094.13
2227.14
2360.82
2457.66
2146.25
2089.28
2253.44
2288.32
2165.02
2230.03
1859.48
1502.28
1543.66
1331.87
1269.39
1442.61
1646.07
2108.64
2050.15
2143.74
1956.69
2141.29
2426.85
2102.19
1974.54
2192.33
2258.46
2193.18
2175.25
1546.81
978.485
1464.5
1033.39
1049.29
1083.26
916.743
1318.61
1574.55
1825.95
1301.54
1724.75
2382.54
2086.59
1931.41
2143.89
2164.57
1846.24
2016.89
1369.93
852.331
1007.98
952.417
955.285
901.233
872.298
871.386
823.103
1023.26
1169.51
1505.04
2348.1
2068.02
1790.29
1918.8
1715.64
1540.72
1841.47
1192.12
1351.33
1185.51
1084.21
1082.31
1060.34
1214.75
1330.78
1186.41
1468.22
1576.11
1850.32
2295.61
2043.82
150.092
337.378
443.86
701.874
1262.73
1636.4
1795.52
1724.19
1914.9
1606.88
1157.31
806.569
1441.43
442.388
556.256
1563.65
880.78
1537.75
1425.92
1162.29
1359.97
1845.35
2046.2
97.4155
384.367
894.053
968.266
1450.25
1793.24
1325.68
1777.98
1389.34
1688.5
1471.06
1723.21
1674.07
1152.32
1157.65
1874.77
1518.51
1579.08
1407.53
1257.69
1815.71
1799.09
1920.49
52.8531
347.808
979.788
987.008
1160.91
1578.86
1092.44
1312.47
1322.78
1718.3
1341.89
1772.73
1494.9
1445.79
1185.85
1822.18
1842.43
1508.93
1380.67
1473.99
1893.18
1868.21
1898.78
61.162
498.589
1117.33
1074.8
554.192
1055.21
1337.84
1683.35
1642.43
889.973
1093.45
1728.8
1365.4
1574.25
1515
1074.47
1487.04
1762.56
1498.97
1703.11
1936.85
1884.7
1744.92
27.8066
51.7133
352.962
1120.56
237.852
445.094
433.981
851.843
904.703
138.055
444.433
1563.03
830.205
614.568
402.945
295.877
679.368
1547.4
1761.31
1816.59
1800.11
1605.17
929.466
20.8183
26.8239
62.0214
328.423
52.154
128.993
48.1653
120.53
175.287
47.9269
833.447
1514.72
876.959
114.345
51.5519
61.0553
250.887
729.38
1164.64
1250.54
1136.9
704.254
299.074
18.7048
19.5052
19.9981
28.0863
20.4351
37.4828
14.8648
23.405
24.229
13.2821
74.1825
1079.09
105.972
24.674
21.5488
47.7391
116.023
243.21
347.523
426.183
406.365
206.244
165.826
14.5142
14.2309
12.7283
12.67
11.2693
10.8716
9.73448
11.4293
10.2039
9.4682
14.2146
77.7863
17.1424
18.4369
21.3246
29.1911
40.5885
48.3526
88.898
118.844
111.088
73.2452
114.508
12.2366
11.0631
9.82715
10.159
9.18206
8.31572
8.03041
9.03024
8.89714
8.02908
8.72322
9.92887
12.038
14.9448
14.4029
14.8214
15.0008
14.1985
31.7137
35.6934
54.3296
57.2179
62.787
7.79625
6.68532
6.46812
6.41859
5.85485
5.42198
7.24354
6.99217
8.28398
6.21727
6.3957
8.5704
7.60928
13.0259
9.42285
10.1127
13.1974
17.2576
28.7286
46.6083
64.6432
73.0582
76.4264
6.34397
4.72061
4.66812
4.44276
4.57274
4.45191
5.40506
7.01419
8.60835
5.67435
5.58948
9.48027
6.84121
9.44537
5.31201
8.03018
11.8764
17.9267
14.5894
33.9831
71.1005
63.8201
70.0215
4.87551
4.18678
4.00505
3.95321
3.98733
4.32754
4.48849
4.51336
6.30575
4.50058
5.42495
6.84085
7.30499
5.98245
5.60962
7.00228
8.86045
17.7333
21.6112
19.2462
19.2591
18.8442
26.664
3.68909
3.5435
3.46673
3.56271
3.56158
4.68378
3.59765
3.71232
4.94728
6.3598
6.65593
8.29523
7.48784
0.863768
7.56601
10.1886
8.45662
11.1524
8.5856
6.06402
7.58117
9.48417
11.7083
2.87008
3.0213
3.09443
3.18784
2.97466
3.35385
4.02433
3.29237
6.1808
5.43832
8.1554
13.0154
13.6085
10.239
8.24757
1.13551
4.83101
3.01393
1.47702
2.39006
4.65911
7.72055
9.22719
2.41003
2.46185
2.54182
2.57809
2.50316
2.402
2.6219
2.39839
5.17858
4.8239
2.65236
1.119
2.72851
2.17851
2.32482
2.36123
1.90441
-0.214649
2.25779
1.92373
5.34257
5.08223
0.787131
2.03892
2.09748
2.15736
2.25603
1.53245
1.81129
3.4705
-0.0597547
4.37737
4.60903
-3.94606
-1.97375
0.474736
-0.00812447
0.452994
0.54363
1.2543
-0.477052
-2.13059
0.822974
4.23371
1.08218
-12.2298
1.53306
1.55358
1.58811
1.52495
1.40194
0.535142
0.0254918
-0.731936
-2.74691
1.072
-1.3328
-2.35889
-1.51262
-0.791629
-0.484966
-0.37891
0.0267405
-0.256316
-2.37957
-2.19395
2.33134
0.329373
-9.59063
1.02591
1.10197
1.05822
1.00567
0.704138
-0.192319
-0.962326
-1.80864
-3.29095
-4.44828
-2.99877
-3.06579
-1.512
-1.41616
-1.00363
-0.686369
-0.622718
-0.844682
-1.34197
-2.75103
-4.55995
-8.97306
-16.5376
0.51571
0.760777
0.541564
0.224166
0.421035
-0.625969
-2.15322
-3.54559
-3.87217
-3.52407
-4.20282
-2.83632
-2.29417
-1.96388
-1.44175
-1.19132
-1.1975
-1.20491
-1.31467
-2.64161
-5.59332
-13.2256
-16.0795
-0.262646
-0.502651
0.0898348
-0.577608
-1.06593
-1.13503
-1.88123
-2.51884
-2.49536
-2.77986
-3.61422
-2.92015
-2.55908
-2.0673
-2.14016
-1.58092
-1.73313
-1.78182
-1.70308
-3.36618
-6.4044
-10.4958
-13.8263
-0.889768
-1.05109
-1.31746
-1.22298
-1.79398
-1.44049
-1.56794
-2.07563
-2.30346
-2.37394
-2.90835
-3.27229
-2.49793
-2.40816
-2.35569
-1.9702
-2.33089
-2.5959
-3.1839
-3.97197
-6.01335
-7.9916
-9.95008
-1.3038
-1.34496
-1.41677
-1.255
-1.12211
-1.40802
-1.68873
-2.08323
-2.54233
-2.62757
-3.28917
-2.84193
-2.76657
-2.73353
-2.51047
-2.5148
-2.8111
-3.08469
-3.6162
-4.36811
-5.67601
-6.77201
-7.1943
-1.78292
-1.99688
-2.0593
-1.77042
-1.79177
-1.94826
-2.35739
-2.48679
-2.94268
-2.91135
-2.90509
-2.65835
-2.95831
-2.80049
-2.9238
-3.12353
-3.19855
-3.65144
-3.65842
-4.2596
-4.58597
-5.85272
-6.44114
-1.70644
-1.5624
-1.60861
-1.91392
-2.12544
-2.01212
-2.87952
-2.85074
-2.74988
-3.05721
-2.84679
-3.1115
-3.03641
-2.80632
-3.25998
-3.30168
-3.32575
-3.67076
-3.68133
-3.82354
-4.77956
-5.43154
-5.64785
-2.14381
-2.09431
-2.11235
-2.2532
-2.36362
-2.60011
-2.56108
-2.55076
-2.84648
-2.75647
-3.07714
-3.29181
-3.08759
-3.27942
-3.3411
-3.14162
-3.59525
-3.80846
-3.9727
-4.4067
-4.79566
-5.0064
-5.14286
-2.62405
-2.4646
-2.43004
-2.44402
-2.56141
-2.91206
-2.71532
-2.80805
-3.15557
-3.11684
-3.21437
-3.13665
-3.2495
-3.38009
-3.59945
-3.44968
-3.85343
-3.79467
-4.23578
-4.26637
-4.36411
-5.1481
-4.72889
-2.36066
-2.50579
-2.57861
-2.60277
-2.55236
-2.71066
-2.85315
-3.18612
-3.13132
-3.1692
-3.27659
-3.31709
-3.29367
-3.58277
-3.62596
-3.77821
-4.04673
-3.92851
-3.99197
-4.60186
-4.55182
-4.54694
-5.18552
-2.76471
-2.75011
-2.79356
-2.82009
-2.92708
-2.88455
-3.01649
-3.12087
-3.07337
-3.30155
-3.5381
-3.48229
-3.63774
-3.78554
-3.76046
-3.88986
-3.89609
-4.07177
-4.15645
-4.33356
-4.74862
-4.96442
-4.70109
-2.97185
-2.95935
-2.99962
-3.03534
-3.1227
-3.17977
-3.2465
-3.25157
-3.41626
-3.35424
-3.64227
-3.58486
-3.6027
-3.97504
-3.852
-4.13821
-4.05615
-4.2123
-4.32667
-4.29965
-4.79547
-4.54968
-4.79436
-3.17164
-3.16827
-3.20871
-3.23197
-3.27337
-3.31724
-3.38852
-3.44238
-3.54326
-3.55372
-3.70478
-3.71276
-4.03637
-3.89863
-3.87553
-4.14422
-4.12929
-4.27617
-4.2572
-4.62713
-4.62221
-4.55296
-4.9588
-3.39194
-3.38744
-3.42835
-3.4318
-3.48779
-3.47277
-3.67077
-3.66248
-3.74678
-3.84384
-3.82008
-4.03735
-3.9705
-4.09202
-4.33006
-4.24026
-4.32185
-4.37222
-4.4697
-4.46031
-4.69119
-4.85921
-4.72913
-3.59974
-3.5984
-3.64528
-3.63455
-3.68936
-3.68298
-3.67368
-3.77831
-3.96143
-4.11795
-4.10357
-4.16718
-4.13996
-4.22033
-4.24481
-4.31807
-4.37715
-4.47951
-4.45476
-4.82301
-4.72613
-4.75464
-4.83309
-3.8183
-3.82882
-3.81392
-3.85555
-3.95146
-3.96783
-4.07309
-4.07933
-4.09179
-4.06801
-4.08148
-4.14927
-4.17445
-4.36821
-4.5011
-4.43032
-4.54685
-4.51797
-4.74704
-4.61962
-4.91942
-4.75374
-4.88785
-4.01897
-4.03225
-4.0499
-4.05178
-4.07299
-4.09906
-4.16492
-4.20986
-4.33659
-4.36086
-4.26409
-4.33322
-4.55308
-4.41499
-4.52642
-4.64454
-4.58947
-4.82617
-4.73529
-4.83645
-4.86132
-4.85355
-4.93688
-4.19397
-4.19897
-4.21034
-4.19174
-4.2561
-4.2266
-4.32702
-4.37615
-4.28032
-4.44696
-4.5786
-4.49711
-4.52132
-4.7221
-4.65208
-4.61504
-4.75126
-4.83458
-4.77637
-4.90908
-5.0149
-4.90927
-5.10239
-4.40309
-4.401
-4.41785
-4.4185
-4.45102
-4.46164
-4.46401
-4.44775
-4.54267
-4.56189
-4.65938
-4.64869
-4.81856
-4.72451
-4.78039
-4.86475
-4.80674
-4.92828
-4.97025
-5.04528
-5.00845
-5.06641
-5.06823
-4.58356
-4.57201
-4.587
-4.6268
-4.50962
-4.64634
-4.75122
-4.75819
-4.74573
-4.72786
-4.7587
-4.92498
-4.84535
-4.90575
-4.93133
-4.95602
-4.99557
-4.99161
-5.09245
-5.15695
-5.07357
-5.21414
-5.19253
-4.77705
-4.77473
-4.80426
-4.85736
-4.90505
-4.92721
-4.86033
-4.91257
-4.9344
-4.943
-5.00368
-4.96172
-4.97567
-5.00983
-5.06344
-5.1256
-5.05909
-5.18794
-5.2318
-5.17765
-5.2219
-5.20226
-5.30115
-4.95588
-4.86868
-4.97329
-5.01539
-5.03464
-5.04205
-5.06292
-5.08008
-5.09874
-5.11676
-5.15783
-5.17544
-5.18914
-5.23669
-5.22003
-5.19528
-5.25284
-5.21913
-5.32451
-5.2842
-5.30251
-5.37012
-5.38485
-5.19376
-5.2962
-5.22054
-5.19472
-5.2082
-5.24092
-5.22595
-5.27471
-5.26593
-5.30544
-5.30828
-5.31248
-5.30853
-5.35481
-5.3033
-5.36192
-5.35526
-5.42399
-5.41242
-5.43671
-5.4658
-5.45269
-5.46746
-5.42536
-5.42811
-5.42656
-5.43075
-5.45635
-5.44385
-5.47576
-5.61436
-5.30974
-5.62142
-5.34541
-5.52868
-5.5563
-5.49037
-5.43193
-5.50785
-5.4582
-5.49194
-5.52933
-5.51594
-5.58542
-5.5506
-5.59042
-5.44523
-5.61008
-5.44743
-5.47504
-5.6329
-5.47738
-5.65905
-5.44927
-5.77063
-5.49037
-5.71673
-5.64943
-5.55216
-5.61705
-5.71497
-5.73393
-5.73582
-5.72646
-5.71669
-5.67224
-5.66316
-5.67127
-5.66648
1877.16
1876.42
1782.56
1720.41
1944.6
1997.24
1969.91
1941.09
1865.53
1918.1
1919.65
1854.17
1759.25
1796.55
1906.49
1883.21
730.573
858.135
1135.23
1213.24
306.878
315.487
361.704
534.62
431.756
530.215
526.321
454.711
212.806
256.091
246.626
194.783
69.9676
80.9832
95.4677
110.853
82.6782
87.0675
90.3032
92.0619
82.8861
86.1087
79.6461
76.049
10.0323
15.2255
17.4895
19.6254
16.4243
19.3486
16.8411
16.4952
15.3118
19.6127
24.168
23.5631
7.09405
12.9577
14.1855
16.7626
-5.21188
-2.85452
-1.78992
-0.138073
-11.6295
-10.7775
-10.2541
-9.29727
-12.804
-10.977
-9.96451
-8.5604
-12.4989
-12.0842
-10.9615
-9.74986
-13.2898
-11.9824
-11.0203
-9.38926
-9.38316
-9.22681
-8.98047
-8.36762
-6.95256
-6.95281
-6.97967
-6.94327
-5.69709
-5.74556
-5.84597
-5.94909
-5.79599
-5.43338
-5.47113
-5.56618
-5.18674
-5.2155
-5.36198
-5.48392
-4.8409
-4.85451
-5.22582
-5.28687
-4.95339
-4.99851
-5.06819
-5.09839
-4.84488
-4.88035
-4.89504
-4.90391
-4.80913
-4.82159
-4.83093
-4.85384
-4.76601
-4.80158
-4.82251
-4.84494
-4.80034
-4.81075
-4.82024
-4.85985
-4.85165
-4.86985
-4.88178
-4.90868
-4.88187
-4.90069
-4.90836
-4.93158
-4.94609
-4.96943
-4.96737
-5.00055
-5.01203
-5.03832
-5.04824
-5.06402
-5.14805
-5.18093
-5.10763
-5.15956
-5.20681
-5.21736
-5.2151
-5.22676
-5.26547
-5.28853
-5.29685
-5.30993
-5.37275
-5.3889
-5.3873
-5.39327
-5.47234
-5.47236
-5.47825
-5.47356
-5.5744
-5.59832
-5.57893
-5.59941
-5.6767
-5.66981
-5.67699
-5.6725
2117.2
1677.36
1603.09
1800.15
1714.79
1669.13
2062.32
2050.64
2157.91
2082.5
2037.88
1976.33
2029.53
2136.62
2276.49
2368.8
2373.9
2212.72
2031.36
2083.96
1770.43
1770.29
1453.25
1575.71
1444.47
1766.52
1614.54
1326.36
1425.09
1438.19
1532.07
1640.54
1729.13
1841
1911.19
2006.15
2030.07
2087.43
1689.67
1183.66
1446.12
1885
1919.63
2036.2
1910.58
1966.17
1908.62
1986.7
1980.6
2050.79
2193.98
2072.95
1860.17
1860.04
1989.53
2367.11
2277.34
1872.6
1641.36
1909.39
1548.19
1686.81
1622.32
1258.02
1214.36
1051.03
1064.73
1134.61
1363.37
1849.31
2110.47
2126
1999.21
1996.83
1973.6
2276.66
1036.52
1681.02
1228.24
815.645
1044.84
1081.66
978.611
685.387
478.551
602.669
772.295
1354.86
1214.25
1279.32
1180.52
1108.75
1153.32
1457.11
2242.53
823.242
988.161
648.411
553.426
701.843
895.697
624.424
415.298
402.028
550.01
728.427
796.237
679.798
1146.69
1715.57
1003.61
766.772
1434.11
2068.2
369.33
364.068
476.39
493.137
584.484
878.571
407.239
340.282
496.818
801.983
994.461
1232.99
1287.48
1889.13
2125.49
1564.82
971.236
1570.6
2050.91
183.184
315.29
405.337
457.207
592.829
448.206
312.886
348.011
650.959
892.211
1018.74
1553.43
1929.64
2047.5
2110.21
2027.76
1203.01
1589.84
2027.87
152.03
213.119
291.327
423.355
748.445
744.015
310.505
387.962
552.53
602.043
831.205
1638.95
2020.7
2107.6
2148.66
2081.71
1631.34
1696.41
2011.22
80.7145
121.224
180.582
222.003
383.706
383.152
363.243
421.525
462.921
480.864
847.85
1476.18
1997.71
2185.31
2146.76
2020.06
2159.52
1806.19
1959.25
91.3712
120.067
95.4826
200.847
222.921
210.117
236.935
244.214
300.253
593.541
733.227
980.525
1543.67
1870.13
1857.11
1915.59
1971.35
2091.17
1872.32
44.8032
49.4684
68.2189
42.4185
118.626
109.71
192.502
338.986
788.524
1289.93
1287.87
1383.2
1431.62
1694.79
1890.02
2006.98
1973.27
1913.18
1904.79
20.501
26.9993
33.8738
56.839
93.2613
132.153
221.574
516.893
1095.93
1444.37
1465.5
1656.51
1736.45
1865.73
2143.78
2083.34
2120.41
2047.43
2007.52
3.77438
18.679
22.6919
70.3024
74.3004
92.7146
153.209
372.97
917.765
1345.76
1369.28
1646.05
1635.96
1801.42
1974.49
2018.71
1958.09
1820.5
1900.45
29.3716
42.804
56.341
81.4624
105.281
146.243
212.19
360.088
749.406
1017.4
1229.13
1100.85
1047.09
1105.22
1567.22
1853.69
1897.02
2074.84
1975.13
18.8393
14.4283
33.1269
60.9286
86.9703
153.654
226.648
342.968
561.958
512.573
467.985
376.513
327.762
514.127
1008.07
1180.98
1468.46
1906.07
1971.1
-6.93762
-5.92913
-2.90348
1.05861
8.52157
32.2074
51.0003
92.9682
141.262
135.287
108.053
110.238
81.7392
218.302
478.394
924.326
1147.22
1664.22
1880.6
-7.0344
-6.01438
-4.9088
-3.91532
-4.05504
-2.95268
0.280725
13.6232
20.1885
24.9262
16
13.6391
26.9461
110.335
283.599
824.332
1026.81
1482.12
1768.15
-7.84796
-5.82123
-4.96171
-4.54756
-4.61129
-4.49178
-3.81755
-1.51313
0.00439126
0.0821149
-3.32939
-2.09716
-1.03749
10.7664
109.35
656.357
938.243
1349.04
1650.97
-7.22773
-5.71438
-5.16189
-4.8233
-4.90323
-5.31755
-5.98474
-5.89326
-5.60181
-5.15887
-5.12014
-4.90716
-5.38422
-5.50814
17.5668
355.633
553.581
1135.74
1391.51
-7.69734
-6.07878
-5.73463
-5.14844
-5.10882
-4.93925
-4.99461
-5.10601
-4.86655
-4.77675
-4.65899
-4.23053
-4.26835
-5.35734
-6.57083
88.0173
98.6685
559.643
688.381
-6.61021
-6.04618
-5.48171
-5.09629
-5.16169
-5.14537
-4.84578
-5.17816
-5.13797
-4.95272
-4.64131
-4.5345
-4.12612
-4.09514
-6.39358
-6.48043
-2.20792
87.4593
144.752
-5.67257
-5.73289
-5.44795
-5.13459
-5.20668
-4.98659
-4.77359
-5.2887
-4.90757
-4.44029
-4.62732
-4.2574
-4.24055
-4.07432
-3.88438
-4.07885
-4.63371
5.46833
25.1942
-5.43423
-5.67036
-5.5776
-5.08089
-5.10973
-5.01563
-4.79905
-4.79367
-4.9441
-4.58404
-4.44835
-4.33266
-3.97928
-3.98533
-3.45992
-3.41493
-3.37448
0.662479
6.4377
-5.50799
-5.28514
-5.13097
-5.14259
-5.10254
-5.1296
-4.86536
-4.74448
-5.0472
-4.89143
-4.51813
-4.50292
-4.04766
-3.83806
-3.64556
-3.48709
-3.22611
-1.69524
1.05055
-5.42393
-5.1267
-5.0134
-5.32468
-5.18844
-4.7989
-5.16338
-4.83504
-4.82169
-4.68997
-4.34094
-4.62511
-4.4613
-4.52089
-4.08141
-4.31058
-3.45736
-2.9389
-0.824968
-5.15142
-5.01092
-5.02988
-5.00823
-5.06762
-4.85173
-5.03464
-4.74067
-5.00146
-5.02849
-4.75272
-4.67128
-4.61308
-4.57019
-4.42679
-4.66407
-4.76164
-4.5254
-2.27381
-4.89584
-4.89313
-5.01869
-5.06063
-5.16263
-4.93845
-4.78912
-4.91945
-4.75635
-4.75591
-4.4929
-4.86816
-4.66021
-4.49215
-4.50991
-4.81119
-4.90407
-5.03173
-2.88013
-4.91123
-4.91074
-4.94542
-4.9507
-4.95253
-4.79749
-4.95344
-4.86826
-4.84096
-4.84253
-4.68764
-4.69845
-4.52282
-4.60571
-4.47328
-4.58388
-4.88986
-4.73603
-3.24552
-4.86954
-4.9477
-4.91269
-5.13632
-4.95584
-4.91817
-4.93534
-4.91091
-4.97366
-4.79043
-5.06119
-4.82144
-5.01777
-4.68895
-4.79663
-4.61905
-4.82229
-4.62473
-3.44527
-4.95623
-4.94738
-4.93555
-4.94548
-5.0366
-5.05608
-4.89802
-5.02027
-4.91269
-5.11886
-4.95616
-4.93221
-4.81755
-5.05458
-4.80197
-4.82379
-4.83082
-4.73917
-3.71457
-4.88031
-5.03802
-4.90907
-5.02785
-5.12392
-4.99156
-5.12151
-4.93065
-4.97679
-4.83764
-5.14849
-5.13507
-4.95786
-5.11305
-4.95379
-4.96146
-4.98393
-5.11742
-3.44244
-4.91687
-5.08462
-5.00868
-4.97618
-5.01361
-5.14547
-5.00456
-5.09471
-5.05586
-5.16932
-4.83978
-4.86714
-4.99501
-4.96003
-5.32092
-5.08512
-5.14609
-5.27639
-6.39122
-4.96984
-5.13292
-5.05858
-5.12992
-5.09753
-5.06707
-5.14688
-4.96799
-5.07617
-4.98357
-5.04388
-5.08863
-5.16268
-5.11326
-5.11875
-5.26717
-5.36255
-5.35984
-4.65996
-5.06954
-5.1389
-5.14958
-5.13783
-5.15284
-5.19599
-5.13919
-5.19131
-5.12489
-5.174
-5.15361
-5.13668
-5.1544
-5.21552
-5.36314
-5.29082
-5.49514
-5.51756
-4.98055
-5.15993
-5.19414
-5.1738
-5.25617
-5.24849
-5.19227
-5.35062
-5.19865
-5.38475
-5.21081
-5.20016
-5.22161
-5.30838
-5.21518
-5.11182
-5.3672
-5.16335
-5.39132
-4.9994
-5.23316
-5.26203
-5.28963
-5.23716
-5.32745
-5.36536
-5.2365
-5.46577
-5.23474
-5.39527
-5.52283
-5.33898
-5.35897
-5.23963
-5.16678
-5.13073
-5.26971
-5.2462
-5.19106
-5.30461
-5.34129
-5.35992
-5.3582
-5.48675
-5.33104
-5.52073
-5.30283
-5.44374
-5.37063
-5.3124
-5.414
-5.47927
-5.63161
-5.59396
-5.43008
-5.44974
-5.37828
-5.47807
-5.40934
-5.42511
-5.42968
-5.45203
-5.39502
-5.46966
-5.39019
-5.51412
-5.46067
-5.51215
-5.54688
-5.55398
-5.53179
-5.55932
-5.51868
-5.3773
-5.47423
-5.55707
-5.48614
-5.49079
-5.49944
-5.54593
-5.53065
-5.52309
-5.53318
-5.54507
-5.51326
-5.53212
-5.5682
-5.50773
-5.59579
-5.66317
-5.65985
-5.78686
-5.86367
-5.53046
-5.52533
-5.59215
-5.59196
-5.60094
-5.61127
-5.6125
-5.62948
-5.72088
-5.6068
-5.76446
-5.63446
-5.64274
-5.93622
-5.631
-5.73065
-5.88847
-5.99602
-6.06882
-6.17865
-6.13393
-5.95021
-5.67742
-5.69475
-5.68921
-5.69408
-5.75899
-5.68001
-5.84637
-5.72003
-5.90176
-5.93595
-5.79728
-6.00671
-6.02803
-5.83636
-5.7816
-5.8006
-5.88042
-6.05365
-6.29352
)
;

boundaryField
{
    leftWall
    {
        type            calculated;
        value           nonuniform List<scalar> 
50
(
1693.74
1774.53
1809.57
1819.95
1744.59
1570.96
1426.77
380.065
150.092
97.4155
52.8531
61.162
27.8066
20.8183
18.7048
14.5142
12.2366
7.79625
6.34397
4.87551
3.68909
2.87008
2.41003
2.03892
1.53306
1.02591
0.51571
-0.262646
-0.889768
-1.3038
-1.78292
-1.70644
-2.14381
-2.62405
-2.36066
-2.76471
-2.97185
-3.17164
-3.39194
-3.59974
-3.8183
-4.01897
-4.19397
-4.40309
-4.58356
-4.77705
-4.95588
-5.19376
-5.42536
-5.44523
)
;
    }
    rightWall
    {
        type            calculated;
        value           nonuniform List<scalar> 
50
(
2560.48
2232.07
2194.87
2146.25
2102.19
2086.59
2068.02
2043.82
2031.36
2087.43
2277.34
2276.66
2242.53
2068.2
2050.91
2027.87
2011.22
1959.25
1872.32
1904.79
2007.52
1900.45
1975.13
1971.1
1880.6
1768.15
1650.97
1391.51
688.381
144.752
25.1942
6.4377
1.05055
-0.824968
-2.27381
-2.88013
-3.24552
-3.44527
-3.71457
-3.44244
-6.39122
-4.65996
-4.98055
-4.9994
-5.19106
-5.47807
-5.48614
-5.59215
-5.95021
-6.29352
)
;
    }
    lowerWall
    {
        type            calculated;
        value           nonuniform List<scalar> 
62
(
1712.74
1983.84
919.394
1086.17
1263.95
1971.78
1950.14
2019.2
1586.06
700.536
772.468
751.961
801.215
789.367
809.344
804.177
811.652
807.772
824.366
813.549
816.468
832.585
1574.46
1556.89
740.545
667.027
612.118
541.794
515.347
504.801
913.47
1902.82
1902.03
1808.54
1746.68
2485.8
2430.79
2208.07
2167.85
2089.28
1974.54
1931.41
1790.29
2505.18
2435.97
2264.78
2002.53
2119.99
2084.2
2114.25
1913.03
1972.74
2121.23
2188.34
2291.48
2352.35
2359.75
2254.73
2491.84
2224.22
2561.81
2580.45
)
;
    }
    atmosphere
    {
        type            calculated;
        value           nonuniform List<scalar> 
46
(
-5.72904
-5.72904
-5.72904
-5.72904
-5.72904
-5.72904
-5.72904
-5.72904
-5.72904
-5.72904
-5.72904
-5.72904
-5.72904
-5.72904
-5.72904
-5.72904
-5.72904
-5.72904
-5.72904
-5.72904
-5.72904
-5.72904
-5.72904
-5.72904
-5.72904
-5.72904
-5.72904
-5.72932
-5.73419
-5.73754
-5.74366
-5.76795
-5.78228
-5.8152
-5.83719
-5.85118
-5.87839
-5.96566
-5.9268
-5.97456
-5.96305
-5.99456
-6.01038
-6.16357
-6.15435
-7.16962
)
;
    }
    defaultFaces
    {
        type            empty;
    }
}


// ************************************************************************* //
