/*--------------------------------*- C++ -*----------------------------------*\
| =========                 |                                                 |
| \\      /  F ield         | foam-extend: Open Source CFD                    |
|  \\    /   O peration     | Version:     4.1                                |
|   \\  /    A nd           | Web:         http://www.foam-extend.org         |
|    \\/     M anipulation  |                                                 |
\*---------------------------------------------------------------------------*/
FoamFile
{
    version     2.0;
    format      ascii;
    class       volScalarField;
    location    "0.8";
    object      pd;
}
// * * * * * * * * * * * * * * * * * * * * * * * * * * * * * * * * * * * * * //

dimensions      [1 -1 -2 0 0 0 0];

internalField   nonuniform List<scalar> 
2268
(
1712.74
1983.84
919.394
1086.17
1263.95
1971.78
1950.14
2019.2
1586.06
700.536
772.468
751.961
801.215
789.367
809.344
804.177
811.652
807.772
824.366
813.549
816.468
832.585
1574.46
1828.42
2027.34
1160.47
2008.36
1704.03
1551.19
1701.01
1722.56
1143.06
688.544
760.294
747.15
803.878
793.245
808.218
803.799
813.799
803.564
832.475
812.978
815.314
821.015
826.714
1895.42
1900.04
1243.76
1826.66
1995.43
1839.87
1709
1355.38
1009.56
1412.52
756.945
752.942
800.296
795.445
812.131
803.873
810.634
806.714
829.707
806.543
816.362
818.439
812.845
1936.19
1805.94
1963.44
1825.64
1790.71
1961.62
1715.22
1288.34
1332.85
1427.04
1276.25
760.136
798.743
813.383
805.999
799.517
812.268
805.099
834.512
811.902
815.671
814.953
816.491
1896.53
1734.23
2042.37
1836.2
1438.13
1919.68
1906.08
1471.86
1377.54
1978.33
1289.14
821.156
794.586
809.26
815.136
794.083
813.761
801.854
836.862
809.488
810.318
820.12
804.064
1771.14
1091.47
1528.61
1345.87
1193.94
1770.83
2115.34
1789.97
1428.32
1813.74
1209
830.318
802.836
817.678
841.73
797.259
814.189
806.109
841.078
819.796
809.439
834.012
831.562
1561.59
466.508
939.37
863.85
1038.49
1895.72
1977.02
2103.83
1615.54
1353.62
924.832
824.771
881.396
864.779
832.992
880.658
826.989
837.626
865.087
829.566
809.435
857.005
860.766
430.609
417.512
520.392
683.04
783.455
1139.04
1728.92
1962.05
1820.41
2008.99
1322.52
832.661
940.519
878.078
876.767
1219.41
905.828
1241.32
1040.99
1188.88
1109.37
996.28
1282.46
2505.18
2435.97
2264.78
2002.53
2119.99
2084.2
2114.25
1913.03
1972.74
2121.23
2188.34
2291.48
2352.35
2359.75
2254.73
2491.84
2224.22
2561.81
2580.45
2488.78
2429.63
2265.4
1937.66
2191.21
2234.81
2138.75
2099.97
2121.52
2301.08
2330.42
2192.16
2359.15
2389.23
2104.65
2298.77
1951.61
2165.9
2295.29
2304.03
2436.82
2333.25
2105.29
2291.42
2387.15
2351.82
2258.44
2266.48
2289.82
2318.52
2266.11
2247.94
2192.04
2051.88
2129.39
2270.16
2342.95
2298.87
2300.52
2393.65
2381.56
2228.74
2301.73
2309.15
2040.97
1893.23
2097.67
1930.08
2202.62
2298.8
2173.87
2206.18
2213.04
2339.6
2465.8
2572.89
2289.4
2256.76
2410.63
2439.96
2312.65
2349.89
1951.34
1574.37
1616.69
1396.24
1328.78
1509.72
1724.15
2241.03
2194.3
2268.01
2054.38
2250.94
2562.31
2284.62
2174.79
2373.4
2424.95
2345.21
2317.58
1639.82
1037.05
1548.97
1094.08
1111.17
1145.75
968.977
1395.03
1668.87
1938.38
1374.67
1823.26
2541.49
2308.33
2161.07
2338.99
2330.03
1976.98
2166.6
1466.3
912.673
1078.4
1020.63
1020.92
963.635
931.911
931.551
880.75
1094.59
1247.67
1604.52
2538.28
2329.51
2041.74
2088.42
1853.67
1665.29
1992.83
1290.28
1460.73
1280.49
1175.51
1170.17
1146.48
1312.27
1437.33
1282.07
1585.72
1701.45
1997.92
2542.62
2346.53
181.719
395.742
515.2
797.73
1413.52
1829.33
2018.07
2046.83
2156.23
1956.8
1556.89
1244.33
1811.13
949.399
1043.73
1928.55
1315.51
1908.86
1807.63
1573.92
1744.38
2141.81
2313.99
128.424
468.052
1040.75
1121.36
1666.06
2075.3
1521.76
2133.7
1596.77
2069.03
1706.07
2093.04
1941.33
1643.02
1653.56
2216.09
1964.06
2024.72
1880.71
1746.41
2226.37
2125.29
2207.82
74.8179
443.97
1169.53
1176.1
1374.9
1862.63
1297.59
1552.09
1560.92
2049.1
1597.92
2165.26
1772.35
1961.16
1764.01
2203.24
2276.05
2034.64
1928.4
2008.48
2334.49
2249.24
2260.55
92.2225
640.315
1363.28
1315.8
705.131
1287.67
1624.52
2076.27
2014.27
1101.19
1341.37
2151.71
1667.7
2069.54
1869.32
1315.17
1795.02
2271.99
2089.63
2273.76
2420
2303.7
2126.1
43.9947
86.3578
480.888
1408.65
340.531
592.895
581.587
1085.28
1146.96
214.118
603.05
2016.9
1067.65
798.089
541.922
410.064
869.4
1924.69
2296.66
2351.82
2248.13
2004.48
1150.27
36.9001
50.9249
111.777
468.217
97.8985
208.812
90.8698
195.826
268.926
89.3453
1111.61
2138.16
1152.32
184.297
94.2029
110.17
366.717
958.917
1486.42
1588.05
1441.23
918.558
413.883
35.9942
39.708
44.3133
62.4472
47.3583
79.9507
32.6187
51.7446
52.7805
26.9924
137.677
1513.12
183.796
47.3662
44.0488
97.0344
199.73
369.87
497.662
600.97
569.81
310.885
253.6
32.8905
33.1952
30.5712
31.8557
27.9292
26.9943
20.0367
25.1798
20.4018
17.2622
37.0523
151.543
34.5922
37.6648
49.5651
67.1083
88.1835
107.507
159.214
197.188
180.33
115.33
187.899
31.1677
27.8115
26.4211
28.8041
26.0584
23.088
19.2424
17.4858
15.3322
15.2551
21.0618
25.1369
27.0614
33.3786
34.2608
34.3502
34.8735
36.9074
60.6264
65.9561
91.122
96.5733
107.943
24.9355
18.8603
18.3721
18.7653
14.8564
13.937
17.3695
14.9708
13.4048
10.662
12.7346
18.7742
19.9097
26.2803
21.5952
22.223
27.9287
41.0505
67.7413
99.3735
125.827
138.579
144.819
21.3223
12.8852
10.6747
9.10261
8.06145
8.59158
12.2709
14.2101
13.7244
11.0114
13.2661
18.0936
15.6643
17.7326
13.1679
16.1594
23.9867
41.6787
58.1604
98.0358
141.984
136.229
144.521
17.0616
10.4873
7.30065
6.69225
6.79582
8.81975
10.4428
10.4426
10.8731
9.26248
11.7434
13.6466
14.2171
14.0949
14.501
17.4275
25.5759
51.6594
65.4689
64.4551
56.6259
48.1176
56.1346
12.0253
8.57024
6.22461
6.02761
6.39028
8.77094
8.46016
8.78609
9.24469
12.9493
20.2539
26.9561
28.477
22.9202
37.1476
42.0887
38.1853
46.5747
36.9294
23.3791
19.5293
20.1589
25.6942
7.81081
7.12148
5.76872
5.60223
5.6194
7.42165
9.60868
10.6908
19.038
29.1711
38.9177
46.5154
47.7366
44.8745
42.4064
32.1299
30.6786
23.2399
9.10888
6.75495
9.10272
14.078
19.2772
5.66616
5.95085
5.22024
5.08426
5.81331
7.70452
11.2279
17.7214
28.1538
30.9656
30.1655
24.6575
22.6498
19.3412
17.2875
15.1253
13.0206
7.38488
9.2752
13.835
20.1932
23.6102
29.1598
4.76113
5.12439
4.79062
4.84976
4.74415
6.93003
12.3586
15.0604
26.4504
28.391
16.1874
10.178
7.65824
5.34197
5.2214
5.27387
6.38155
4.23864
2.89574
7.43657
14.2119
20.0696
17.0594
4.17886
4.4104
4.24652
4.148
4.34534
4.94719
7.91713
13.3363
15.6384
18.1909
9.70066
6.03828
4.24934
4.05465
3.86206
3.38273
3.45874
3.27288
1.72101
4.34671
16.9656
21.443
13.0138
3.72788
3.91585
3.78391
3.7018
3.50386
3.34348
5.07592
7.49529
7.51428
8.66977
4.63681
4.41057
3.94382
2.61049
2.62309
2.96989
2.56258
2.19222
2.4674
4.90195
10.7265
10.3622
-1.24085
3.32023
3.61085
3.36257
3.02443
3.23605
2.40796
1.92502
0.90679
1.40089
6.34474
1.3586
1.50011
2.15633
1.79999
1.70736
2.14629
1.94854
1.82607
2.35207
4.20437
7.82011
3.77727
0.11226
2.65581
2.429
3.01734
2.34108
1.85067
1.83756
1.43867
0.713995
1.11291
3.04809
0.814405
0.631081
1.00719
1.33577
1.01653
1.53817
1.39994
1.27387
1.43392
1.10752
1.29787
0.215802
-2.74469
2.14962
1.99179
1.72482
1.81736
1.2443
1.60995
1.55914
1.02755
0.874384
1.49903
0.648134
0.015604
0.753682
0.809722
0.797046
1.12333
0.805038
0.528892
-0.0966712
-0.557681
-1.81267
-3.0494
-4.89548
1.85936
1.81896
1.74712
1.90869
2.04067
1.75698
1.48896
1.08985
0.645527
0.661944
0.0261681
0.397532
0.468248
0.499777
0.699816
0.663355
0.38406
0.117038
-0.433533
-1.13038
-2.37272
-3.39067
-3.73025
1.50498
1.29118
1.22878
1.51773
1.49604
1.3399
0.932005
0.80268
0.348101
0.393463
0.426454
0.651574
0.353257
0.507213
0.378293
0.169838
0.0953975
-0.349794
-0.364294
-0.955711
-1.28357
-2.54652
-3.12629
1.70653
1.85063
1.80442
1.49913
1.28752
1.40088
0.533601
0.562397
0.663482
0.35772
0.577014
0.308754
0.383825
0.610821
0.156198
0.112991
0.0883564
-0.254608
-0.266456
-0.407826
-1.36471
-2.01695
-2.23402
1.39433
1.44385
1.4258
1.28497
1.17452
0.938029
0.977086
0.987401
0.691718
0.781842
0.463455
0.24844
0.452532
0.259749
0.197796
0.396893
-0.0568333
-0.26981
-0.434116
-0.868047
-1.25722
-1.46807
-1.60464
1.03928
1.19873
1.2333
1.21932
1.10193
0.751274
0.948013
0.855282
0.507765
0.546505
0.449459
0.527161
0.414279
0.283459
0.0640306
0.213727
-0.190034
-0.131287
-0.57238
-0.602965
-0.700734
-1.48475
-1.06555
1.42787
1.28274
1.20991
1.18576
1.23617
1.07787
0.935375
0.602406
0.657202
0.619324
0.51203
0.471531
0.494941
0.205796
0.162592
0.0103234
-0.258191
-0.139977
-0.203442
-0.813325
-0.763284
-0.75841
-1.39699
1.14901
1.16361
1.12016
1.09363
0.986638
1.02917
0.897232
0.792854
0.840347
0.612174
0.375636
0.431447
0.275995
0.128186
0.153261
0.0238621
0.0176341
-0.15805
-0.242728
-0.419844
-0.834899
-1.0507
-0.787368
1.06707
1.07956
1.03929
1.00358
0.916218
0.859141
0.792418
0.787342
0.622649
0.684669
0.396652
0.454058
0.436219
0.0638784
0.186917
-0.0992915
-0.0172334
-0.173386
-0.287755
-0.260734
-0.756556
-0.51077
-0.755448
0.992465
0.995834
0.955397
0.932139
0.890737
0.846866
0.775592
0.721728
0.620849
0.610384
0.459331
0.451344
0.127737
0.265482
0.288574
0.019893
0.0348224
-0.112065
-0.0930868
-0.463023
-0.458101
-0.388854
-0.794696
0.897367
0.901859
0.860952
0.857499
0.801517
0.816535
0.618538
0.626827
0.54252
0.445468
0.469221
0.251953
0.318807
0.197278
-0.0407603
0.0490441
-0.0325468
-0.0829128
-0.1804
-0.171011
-0.401888
-0.569908
-0.439831
0.814759
0.816098
0.769218
0.779943
0.725138
0.731521
0.740818
0.636183
0.453064
0.296545
0.310924
0.247315
0.274535
0.194166
0.169689
0.0964257
0.0373473
-0.0650098
-0.0402639
-0.408511
-0.31163
-0.340143
-0.41859
0.721393
0.710875
0.725772
0.684143
0.588232
0.571867
0.466597
0.460358
0.447907
0.471681
0.458211
0.390418
0.365242
0.171485
0.0385871
0.109368
-0.00715977
0.0217203
-0.207343
-0.0799312
-0.379729
-0.214049
-0.348156
0.645916
0.63264
0.614989
0.613109
0.591892
0.565828
0.499966
0.455022
0.328299
0.304023
0.400796
0.331666
0.111806
0.249901
0.138468
0.020342
0.0754115
-0.161284
-0.0704043
-0.171566
-0.196437
-0.188664
-0.271989
0.596114
0.591113
0.579744
0.598336
0.533982
0.563477
0.463057
0.413935
0.509762
0.343119
0.211483
0.292974
0.268761
0.0679858
0.138
0.175046
0.0388214
-0.0444957
0.0137152
-0.119
-0.224821
-0.119188
-0.312311
0.512184
0.51428
0.497427
0.496774
0.464253
0.453635
0.451265
0.46753
0.372607
0.353382
0.255893
0.26659
0.09672
0.190769
0.134889
0.0505216
0.108539
-0.0130004
-0.0549707
-0.130001
-0.0931714
-0.15113
-0.152958
0.456911
0.468464
0.453468
0.413673
0.530851
0.394128
0.289249
0.282279
0.294739
0.312609
0.281766
0.115495
0.195124
0.134716
0.109138
0.0844496
0.0448983
0.0488644
-0.0519831
-0.116476
-0.033099
-0.173671
-0.152064
0.388617
0.390934
0.361403
0.308308
0.260616
0.238457
0.305336
0.253092
0.231266
0.222661
0.161987
0.203948
0.189993
0.155839
0.102227
0.0400654
0.106576
-0.0222728
-0.0661393
-0.0119807
-0.0562372
-0.036595
-0.135487
0.334976
0.422176
0.317572
0.275469
0.256217
0.248807
0.227937
0.210778
0.192119
0.174099
0.133025
0.115415
0.101723
0.0541715
0.0708312
0.0955821
0.0380211
0.0717319
-0.0336491
0.00665659
-0.0116477
-0.0792639
-0.0939916
0.222291
0.119856
0.195511
0.221332
0.207856
0.175129
0.190108
0.141345
0.150128
0.110613
0.10777
0.103569
0.107523
0.0612426
0.112754
0.054134
0.0607975
-0.00793342
0.00363446
-0.0206531
-0.0497492
-0.0366353
-0.0514064
0.115889
0.113142
0.114687
0.110503
0.0849004
0.0974021
0.0654866
-0.0731144
0.231504
-0.0801768
0.195834
0.0125707
-0.0150534
0.0508742
0.109322
0.0333948
0.0830527
0.0493048
0.0119147
0.0253066
-0.0441714
-0.00934786
-0.0491763
0.221215
0.0563673
0.219015
0.191402
0.033539
0.189066
0.00738792
0.217169
-0.104188
0.176068
-0.0502875
0.0170146
0.114286
0.0493935
-0.0485259
-0.06749
-0.0693741
-0.06002
-0.0502501
-0.00579569
0.0032813
-0.00482936
-3.90082e-05
2095.87
2094.67
2003.96
1944.3
2229.27
2304.44
2295.65
2280.81
2230.41
2302.78
2331.25
2291.51
2135.33
2194.6
2338.01
2331.04
916.481
1065.86
1394.77
1486.6
419.763
429.101
486.812
700.432
596.085
718.026
712.686
622.246
326.958
383.992
370.384
296.785
119.284
137.867
160.566
183.893
152.673
158.076
162.721
166.402
160.918
165.347
160.539
158.52
43.537
52.1825
56.3746
59.8996
34.0635
37.9527
36.0723
36.4929
29.6901
37.2519
46.0031
50.3536
46.739
59.0859
66.3807
73.7251
33.1378
38.3541
41.8614
48.4523
3.72497
1.69269
1.33794
2.21849
-5.8586
-5.35672
-5.09901
-4.07645
-2.5799
-5.81088
-6.21538
-5.57106
-3.81615
-3.98719
-4.6325
-4.07316
-4.61663
-4.74756
-4.77776
-4.54396
-3.52331
-3.53753
-3.58945
-3.60725
-2.38792
-2.43297
-2.53548
-2.64391
-2.38166
-2.01898
-2.05684
-2.15214
-1.64856
-1.67732
-1.82379
-1.94573
-1.17757
-1.19117
-1.56248
-1.62354
-1.16486
-1.20999
-1.27966
-1.30986
-0.931162
-0.96663
-0.981321
-0.990186
-0.770218
-0.782677
-0.792017
-0.814929
-0.601902
-0.637476
-0.658404
-0.680831
-0.511033
-0.521451
-0.530935
-0.570548
-0.437157
-0.455354
-0.467285
-0.494182
-0.342178
-0.361003
-0.368672
-0.391891
-0.281208
-0.304541
-0.302484
-0.33566
-0.22195
-0.248238
-0.258158
-0.273939
-0.232778
-0.265657
-0.192357
-0.244287
-0.166339
-0.176893
-0.17463
-0.186291
-0.099808
-0.122869
-0.131182
-0.144266
-0.0818885
-0.0980359
-0.0964396
-0.102415
-0.0562887
-0.056304
-0.0621945
-0.0575058
-0.0331502
-0.057073
-0.0376783
-0.0581572
-0.0102561
-0.00336857
-0.010552
-0.00606025
2348.46
1840.3
1756.42
1982.57
1883.49
1835.81
2281.81
2265.53
2450.72
2304.55
2258.73
2178.35
2243.08
2370.32
2540.7
2644.5
2668.77
2538.1
2397.78
2456.23
2204.95
2195.29
1941.87
2043.55
1937.4
2217.35
2088.79
1833.87
1917.41
1930.43
2020.08
2116.5
2188.08
2292.05
2354.45
2440.49
2453.05
2522.73
2180.33
1776.19
2001.88
2364.23
2390.71
2470.17
2214.82
2310.78
2345.73
2387.81
2407.46
2413.16
2594.54
2534.18
2376.92
2383.18
2504.07
2802.55
2743.63
2316.73
2232.54
2317.68
1835.7
1993.46
1909.66
1478.33
1425.65
1231.46
1241.31
1313.76
1584.65
2163.11
2531.04
2528.1
2353.02
2333.94
2301.02
2728.4
1275.26
2061.16
1497.53
1002.59
1270.27
1305.17
1181.75
829.099
571.104
717.462
914.727
1605.45
1439.18
1507.18
1386.8
1308.14
1352.17
1706.77
2763.87
1051.64
1247.05
832.492
710.852
886.007
1113.75
786.535
506.387
483.032
676.977
881.361
966.222
819.272
1381.68
2070.83
1209.13
913.871
1727.26
2734.87
515.129
502.136
644.549
656.103
766.62
1118.69
522.001
422.569
624.486
1010.83
1246.03
1521.57
1592.61
2354.17
2686.53
1930.82
1190.2
1924.42
2810.17
284.417
458.058
571.321
636.63
795.139
602.877
412.81
452.979
843.884
1142.77
1311.78
1954.22
2457.83
2682.84
2810.72
2628.83
1504.74
1990.03
2862.59
248
334.973
441.694
628.978
1023.73
1015.41
423.853
508.81
734.248
802.327
1115.84
2124.91
2677.52
2879.41
2968.46
2832.35
2095.79
2169.83
2928.31
159.415
214.407
308.634
378.952
564.99
565.261
519.241
591.546
639.826
671.486
1150.27
1938.34
2655.47
3024.74
3070.63
2957.22
2969.66
2366.22
2985.38
180.098
220.48
213.285
338.249
364.607
336.758
350.945
351.058
427.979
833.683
1028.82
1353.71
2131.8
2638.98
2810.26
2962.09
3052.39
3104.83
3025.09
87.2922
99.2018
141.779
134.278
214.221
189.754
278.377
519.49
1137.77
1802.04
1867.34
1994.09
2057.72
2442.17
2801.28
3060.12
3121.62
3106.31
3106.03
42.8426
56.9238
78.5065
119.643
182.44
247.663
385.956
802.546
1567.63
2080.17
2168.99
2382.44
2474.77
2650.26
3080.11
3143.02
3242.96
3237.83
3226.84
37.0193
59.008
69.5146
121.05
144.055
186.115
294.646
626.988
1403.94
2020.24
2101.78
2394.73
2391.57
2617.11
2947.83
3083.62
3076.34
3060.65
3177.75
93.5179
118.723
147.379
187.332
230.449
300.696
412.156
651.002
1188.99
1609.77
1869.11
1679.69
1592.77
1695.44
2383.68
2769.94
2897.85
3335.81
3292.11
74.7413
78.3195
123.726
177.186
232.9
343.968
465.188
655.431
964.85
927.961
830.455
682.443
603.033
895.489
1561.17
1879.16
2234.01
3013.86
3211.34
4.89338
6.14135
18.8496
35.6207
60.8907
120.041
179.352
247.648
319.518
329.623
269.376
266.045
224.342
458.442
853.845
1506.19
1814.65
2605.21
2992
-2.8104
-1.91304
0.133035
3.80011
9.48114
19.6787
37.4173
75.7298
94.5698
116.129
87.0869
89.7069
114.898
271.515
568.166
1342.37
1666.26
2358.65
2840.18
-4.07875
-2.39056
-1.0867
0.697778
3.65499
7.13003
13.2824
25.5137
30.039
39.0283
24.5006
30.9898
39.2806
85.5105
288.502
1139.35
1560.66
2206.49
2698.18
-3.24785
-2.50199
-2.00105
-1.64792
-1.47422
-0.986708
-0.399075
3.00201
5.85641
8.64367
4.48967
6.57896
5.4358
13.1923
92.7105
756.113
1035.54
1922.04
2321.37
-4.33297
-2.95613
-2.62313
-2.02023
-1.9157
-1.56526
-1.28024
-1.14851
0.358146
0.915779
-0.136679
0.638491
0.288794
0.642611
22.1615
289.681
310.088
1073.4
1282.39
-3.37783
-2.86372
-2.29783
-1.9013
-1.9528
-1.90199
-1.50531
-1.7663
-1.21696
-1.00441
-1.09474
-1.00615
-0.630882
-0.456859
-1.35108
41.1261
62.7645
290.53
406.872
-2.37856
-2.44247
-2.1569
-1.84027
-1.90987
-1.67925
-1.43415
-1.92369
-1.4433
-0.983391
-1.23675
-0.878277
-0.838668
-0.652472
-0.126437
6.05289
13.0732
76.8041
137.403
-2.02078
-2.25699
-2.16418
-1.66695
-1.69506
-1.59888
-1.3718
-1.36255
-1.50976
-1.14292
-1.01428
-0.894632
-0.515292
-0.512315
0.121673
1.00495
6.25403
41.3733
66.3345
-1.9698
-1.74695
-1.59277
-1.60437
-1.56427
-1.59123
-1.32658
-1.2049
-1.50617
-1.34312
-0.974773
-0.956273
-0.484394
-0.264965
-0.038954
0.456139
6.42736
30.5065
42.1605
-1.7606
-1.46336
-1.35007
-1.66134
-1.5251
-1.13554
-1.49995
-1.17137
-1.15783
-1.02603
-0.676818
-0.958719
-0.787381
-0.837457
-0.391585
-0.277852
5.71246
22.4448
33.1983
-1.36289
-1.2224
-1.24136
-1.2197
-1.27909
-1.0632
-1.24611
-0.952134
-1.21291
-1.2399
-0.963965
-0.880861
-0.818437
-0.771653
-0.623672
-0.811746
2.04215
12.1512
28.6429
-0.982116
-0.979413
-1.10497
-1.14691
-1.24891
-1.02473
-0.875405
-1.00573
-0.842628
-0.842166
-0.579116
-0.953326
-0.743449
-0.574868
-0.587431
-0.836568
-0.0557966
3.98594
26.0047
-0.872314
-0.87183
-0.906504
-0.911784
-0.913617
-0.758577
-0.914528
-0.829346
-0.802049
-0.803612
-0.648709
-0.658639
-0.482628
-0.565171
-0.426845
-0.484937
-0.481352
1.29115
23.9786
-0.705431
-0.783596
-0.748581
-0.972207
-0.79173
-0.754059
-0.771234
-0.746797
-0.809554
-0.626316
-0.897064
-0.657143
-0.853156
-0.52379
-0.624837
-0.35256
-0.308556
0.854168
22.9088
-0.666925
-0.658074
-0.646245
-0.656177
-0.7473
-0.766774
-0.608722
-0.730963
-0.623384
-0.829557
-0.666831
-0.642757
-0.527902
-0.764363
-0.503798
-0.415321
-0.132155
0.737673
22.346
-0.465811
-0.623525
-0.494572
-0.613356
-0.709427
-0.577065
-0.707015
-0.516152
-0.562296
-0.423143
-0.733972
-0.720468
-0.543007
-0.69743
-0.532675
-0.438297
-0.130155
0.409468
21.6479
-0.377176
-0.544928
-0.468984
-0.436492
-0.473915
-0.605781
-0.464871
-0.555021
-0.516169
-0.629618
-0.30005
-0.327239
-0.454854
-0.419675
-0.775822
-0.438116
-0.148655
0.265542
16.1553
-0.304955
-0.468037
-0.393693
-0.465033
-0.432648
-0.40218
-0.481996
-0.303108
-0.41128
-0.318677
-0.378964
-0.423523
-0.497634
-0.448152
-0.447011
-0.516206
-0.398871
0.612621
28.4751
-0.279464
-0.348818
-0.359503
-0.347752
-0.362757
-0.405911
-0.34911
-0.401234
-0.334804
-0.383914
-0.363507
-0.346479
-0.364272
-0.425369
-0.571202
-0.447015
-0.566683
0.483141
17.7799
-0.244656
-0.278864
-0.258528
-0.340897
-0.333215
-0.276997
-0.435349
-0.283371
-0.469476
-0.29553
-0.284862
-0.30631
-0.393089
-0.299866
-0.195753
-0.42561
-0.224107
0.225681
12.8274
-0.192686
-0.221563
-0.249157
-0.196688
-0.286977
-0.324886
-0.196031
-0.4253
-0.194274
-0.354795
-0.48235
-0.298508
-0.318492
-0.199133
-0.126111
-0.088678
-0.226432
0.110242
8.62709
-0.138942
-0.175624
-0.194251
-0.192537
-0.321086
-0.165373
-0.355068
-0.137168
-0.278077
-0.204961
-0.146731
-0.24833
-0.313586
-0.46591
-0.428187
-0.264253
-0.283021
-0.16734
6.38336
-0.118484
-0.134253
-0.138824
-0.161172
-0.104157
-0.178804
-0.0993277
-0.223259
-0.169815
-0.221295
-0.256021
-0.263123
-0.240901
-0.268397
-0.227732
-0.0863123
-0.182071
-0.253716
4.64158
-0.0747352
-0.0833822
-0.129874
-0.114601
-0.107041
-0.117129
-0.12902
-0.0972039
-0.116069
-0.15215
-0.0916736
-0.179735
-0.247078
-0.243708
-0.370709
-0.44747
-0.112364
-0.105408
3.07028
-0.0507152
-0.059691
-0.0700204
-0.0712486
-0.0882341
-0.179635
-0.065551
-0.22321
-0.0932118
-0.101493
-0.394967
-0.089749
-0.189347
-0.347116
-0.454655
-0.527408
-0.635301
-0.589787
2.67154
-0.0109754
-0.0283095
-0.0227667
-0.0276325
-0.0925499
-0.0135668
-0.179923
-0.0535922
-0.235316
-0.269512
-0.13084
-0.340266
-0.361525
-0.169809
-0.115034
-0.133975
-0.211429
-0.384284
0.797757
)
;

boundaryField
{
    leftWall
    {
        type            zeroGradient;
    }
    rightWall
    {
        type            zeroGradient;
    }
    lowerWall
    {
        type            zeroGradient;
    }
    atmosphere
    {
        type            totalPressure;
        rho             rho;
        psi             none;
        gamma           1;
        p0              uniform 0;
        value           nonuniform List<scalar> 
46
(
0
0
0
0
0
0
0
0
0
0
0
0
0
0
0
0
0
0
0
0
0
0
0
0
0
0
-5.74237e-07
-0.000281371
-0.005147
-0.00849987
-0.0146192
-0.0389075
-0.0532382
-0.0861569
-0.108153
-0.122141
-0.149353
-0.23662
-0.197762
-0.245465
-0.233901
-0.265396
-0.28115
-0.431952
-0.422358
0
)
;
    }
    defaultFaces
    {
        type            empty;
    }
}


// ************************************************************************* //
