/*--------------------------------*- C++ -*----------------------------------*\
| =========                 |                                                 |
| \\      /  F ield         | foam-extend: Open Source CFD                    |
|  \\    /   O peration     | Version:     4.1                                |
|   \\  /    A nd           | Web:         http://www.foam-extend.org         |
|    \\/     M anipulation  |                                                 |
\*---------------------------------------------------------------------------*/
FoamFile
{
    version     2.0;
    format      ascii;
    class       surfaceScalarField;
    location    "0.8";
    object      phi;
}
// * * * * * * * * * * * * * * * * * * * * * * * * * * * * * * * * * * * * * //

dimensions      [0 3 -1 0 0 0 0];

internalField   nonuniform List<scalar> 
4432
(
1.10585e-05
-1.10585e-05
6.16039e-08
1.09969e-05
-4.01575e-05
4.02191e-05
-2.06196e-05
-1.95379e-05
-1.22237e-05
-8.39586e-06
-2.0834e-05
8.61027e-06
1.11007e-05
-3.19347e-05
2.2348e-05
-1.12473e-05
5.27101e-06
1.7077e-05
-9.59327e-06
1.48643e-05
-1.59541e-05
6.36084e-06
-6.42484e-06
-9.52927e-06
3.54253e-06
-9.96737e-06
5.20005e-06
-1.65752e-06
6.54181e-06
-1.34177e-06
9.80242e-06
-3.26061e-06
1.1489e-05
-1.68659e-06
3.72949e-06
7.75952e-06
3.78252e-06
-5.30345e-08
1.7349e-06
2.04762e-06
3.97708e-06
-2.24218e-06
3.74404e-07
3.60268e-06
3.74404e-07
4.72344e-06
-1.57819e-05
9.1716e-06
6.54871e-06
-7.03777e-06
5.64285e-05
6.48809e-07
-2.72245e-05
1.56048e-05
-2.33518e-05
5.54907e-06
1.8666e-05
7.3464e-07
-2.71202e-05
-5.11534e-06
-5.39733e-06
-1.96357e-05
3.15973e-05
-1.14227e-05
6.65126e-06
-1.77528e-05
1.2691e-05
-6.68785e-06
-2.05942e-05
3.21483e-06
-1.98701e-05
5.85885e-06
-4.30154e-06
7.20987e-06
-2.69278e-06
9.81818e-06
-5.86893e-06
5.7497e-06
2.38189e-06
9.90146e-06
3.60776e-06
5.8913e-06
3.95712e-06
5.0421e-06
2.89683e-06
6.61778e-06
-3.81787e-06
6.32837e-06
3.89209e-06
6.70277e-06
-7.2436e-06
-8.53832e-06
-3.35067e-06
2.65578e-06
-6.04441e-06
5.91222e-05
6.55673e-06
-3.98256e-05
1.38038e-05
-3.05989e-05
1.22897e-05
2.01801e-05
-4.2212e-06
-1.06094e-05
-1.24244e-05
2.80585e-06
-2.23561e-05
4.15291e-05
-9.34705e-06
-6.35783e-06
-1.83931e-05
2.1737e-05
-8.8436e-06
-3.01437e-05
-1.03638e-06
-2.76773e-05
2.3059e-06
-7.64382e-06
5.55651e-06
-5.94339e-06
9.34746e-06
-9.65987e-06
9.8977e-06
1.83166e-06
9.33983e-06
4.16563e-06
6.02168e-06
7.27528e-06
9.47554e-06
-5.57038e-07
6.55357e-06
-8.95898e-07
6.20823e-06
4.23743e-06
1.2911e-05
-1.72477e-05
8.70934e-06
-1.28364e-05
-1.75544e-06
9.60682e-06
3.66789e-05
6.70996e-06
-3.69287e-05
1.31513e-05
-3.70402e-05
1.07107e-05
2.26207e-05
-7.75086e-06
7.85221e-06
-1.91934e-05
1.42484e-05
-2.36389e-05
4.59745e-05
7.21634e-06
-3.7213e-05
-4.30712e-06
3.32604e-05
-1.77689e-05
-1.66818e-05
-8.53151e-06
-3.69147e-05
-1.99034e-06
-1.4185e-05
4.61837e-07
-8.39556e-06
7.34741e-06
-1.65454e-05
9.41733e-06
-2.38265e-07
8.1937e-06
5.38925e-06
5.43041e-06
1.00386e-05
8.80105e-06
-3.92768e-06
6.93206e-06
9.7309e-07
6.29892e-06
4.87057e-06
1.92099e-05
-1.73677e-05
2.60771e-05
-4.24912e-06
-1.48741e-05
1.67228e-05
1.5707e-05
2.0966e-06
-2.23025e-05
-6.00172e-06
-2.89419e-05
1.67761e-06
1.49413e-05
-1.02218e-05
1.97516e-05
-2.87996e-05
3.28263e-05
-2.34859e-05
4.06607e-05
1.98074e-06
-6.26796e-05
-4.20337e-06
3.94445e-05
-1.29211e-05
-7.96411e-06
-4.68591e-06
-4.51499e-05
-8.17901e-06
-1.06919e-05
-3.71303e-06
-1.28615e-05
3.35798e-06
-2.36165e-05
6.53236e-06
-3.41264e-06
5.58041e-06
6.3412e-06
4.24275e-06
1.13762e-05
7.74598e-06
-7.43091e-06
8.55596e-06
1.63106e-07
8.45577e-06
4.97076e-06
2.76657e-05
1.4035e-05
1.20421e-05
2.96247e-05
-3.04637e-05
2.97717e-05
1.55599e-05
2.13722e-05
-1.3903e-05
1.15288e-05
-1.90985e-05
3.58231e-06
2.28878e-05
7.16815e-06
1.61657e-05
-1.40108e-06
4.13955e-05
-1.05178e-05
4.97775e-05
-2.93696e-05
-4.38279e-05
-9.92692e-06
2.00019e-05
-1.06034e-05
-7.28765e-06
-9.69834e-06
-4.60549e-05
-5.59697e-06
-1.47933e-05
-2.04168e-06
-1.64168e-05
5.67568e-06
-3.13338e-05
7.97883e-06
-5.71578e-06
3.64515e-06
1.06749e-05
5.18234e-06
9.83904e-06
3.7882e-06
-6.03677e-06
9.20631e-06
-5.25501e-06
3.81261e-06
1.03645e-05
3.14783e-05
-2.91578e-06
1.49579e-05
9.35733e-06
-4.27369e-05
1.3101e-05
1.18163e-05
8.09194e-06
-8.89395e-06
-1.23552e-05
1.34867e-06
-4.92303e-06
1.54557e-05
3.43377e-06
7.80894e-06
5.5077e-06
3.93216e-05
-1.53909e-05
7.06761e-05
-5.35185e-05
-5.70032e-06
-2.32304e-05
-1.02863e-05
-9.33442e-06
-2.11836e-05
-6.53881e-06
-4.88505e-05
-2.11695e-06
-1.92151e-05
-7.59709e-07
-1.77741e-05
6.6579e-06
-3.87514e-05
9.6733e-06
-8.73119e-06
1.32528e-06
1.90229e-05
3.66092e-06
7.5034e-06
1.10973e-05
-1.34731e-05
1.92254e-05
-1.33831e-05
1.65246e-05
1.30652e-05
4.80029e-05
1.83795e-05
-3.42164e-06
1.92434e-05
-4.36007e-05
3.43525e-05
-3.29294e-06
3.46082e-05
-9.14961e-06
2.68859e-05
9.07092e-06
1.23687e-06
4.11048e-05
-3.04043e-06
1.20862e-05
1.28751e-05
2.3406e-05
2.98803e-05
5.36709e-05
-3.79994e-06
2.79799e-05
-9.50101e-06
-4.58519e-06
-7.01453e-06
-2.36701e-05
-8.48436e-06
-4.73807e-05
-6.91277e-06
-2.07867e-05
9.24599e-07
-2.56114e-05
1.20228e-06
-3.90291e-05
-8.94907e-07
-6.634e-06
-8.33585e-06
2.64638e-05
-5.46771e-06
4.63525e-06
2.9105e-06
-2.18513e-05
1.31783e-05
-2.36509e-05
2.11316e-05
5.11184e-06
6.91345e-05
-6.50757e-05
6.50757e-05
-8.25078e-05
1.74321e-05
-0.000104167
2.16595e-05
-0.000121299
1.71319e-05
-0.000114496
-6.80327e-06
-0.000113901
-5.94605e-07
-0.000116088
2.18627e-06
-7.3678e-05
-4.24096e-05
-6.81363e-05
-5.54173e-06
-5.70729e-05
-1.10633e-05
-5.81172e-05
1.04425e-06
-0.00011249
5.43728e-05
-0.000119161
6.67123e-06
-0.000127156
7.99483e-06
-0.000140194
1.30375e-05
-0.000124255
-1.59382e-05
-7.03964e-05
-5.38591e-05
-7.59931e-05
5.59676e-06
-7.59931e-05
-3.10008e-05
9.60765e-05
-7.69703e-05
6.34016e-05
-9.44416e-05
3.91308e-05
-6.4656e-05
-1.26536e-05
-0.000104532
3.3073e-05
-0.000106776
1.64919e-06
-6.86965e-05
-3.58933e-05
-7.51743e-05
-3.59318e-05
-7.18706e-05
-8.84542e-06
-0.000114312
3.13782e-05
-0.000112785
-4.83119e-07
-6.87979e-05
1.0386e-05
-0.000118878
5.67517e-05
-0.000115431
4.54766e-06
-7.33007e-05
-2.90929e-05
-9.56655e-05
6.42663e-06
-9.32592e-05
-5.62654e-05
-5.58209e-05
-3.18416e-05
-0.000131814
-3.22108e-05
0.000128287
-4.4829e-05
7.60198e-05
-3.4624e-05
2.89258e-05
-5.59422e-05
8.66454e-06
-9.85682e-05
7.56989e-05
-9.93517e-05
2.43273e-06
-0.000113648
-2.15968e-05
-0.000125175
-2.44051e-05
-0.000119889
-1.41312e-05
-0.000112831
2.43195e-05
-0.00011096
-2.35368e-06
-0.000113732
1.31577e-05
-0.00011203
5.50499e-05
-0.000107104
-3.78731e-07
-0.000108962
-2.72344e-05
-9.60045e-05
-6.53086e-06
-7.14898e-05
-8.07801e-05
-2.50183e-05
-7.8313e-05
-0.000156832
-2.82192e-05
0.000156506
-5.22624e-05
0.000100063
-7.5133e-05
5.17964e-05
-0.000101825
3.53562e-05
-5.47007e-05
2.85751e-05
-0.000104203
5.19355e-05
-0.000109045
-1.67557e-05
-6.28015e-05
-7.06481e-05
-0.000103776
2.6843e-05
-5.45386e-05
-2.49176e-05
-9.0996e-05
3.41037e-05
-9.52327e-05
1.73944e-05
-5.59753e-05
1.57925e-05
-9.04374e-05
3.40834e-05
-8.68919e-05
-3.07799e-05
-4.35886e-05
-4.98342e-05
-3.27523e-05
-9.16165e-05
-1.72218e-05
-9.38435e-05
-0.000174054
-2.6802e-05
0.000183308
-4.87178e-05
0.000121979
-6.36214e-05
6.67e-05
-4.5912e-05
1.76468e-05
-8.01e-05
6.2763e-05
-7.1357e-05
4.31924e-05
-3.7482e-05
-5.06307e-05
-8.35292e-05
-2.4601e-05
-4.90553e-05
-7.63099e-06
-7.75224e-05
3.54954e-06
-5.75236e-05
1.4105e-05
-5.91086e-05
1.89794e-05
-8.12947e-05
3.79785e-05
-3.79529e-05
-9.2584e-06
-4.27094e-05
-2.60234e-05
-3.17192e-05
-6.08244e-05
-3.48701e-05
-8.84655e-05
-7.30636e-06
-0.000121407
-0.000181361
-2.48209e-05
0.000208129
-3.64485e-05
0.000133606
-3.9015e-05
6.92665e-05
-4.97611e-05
2.8393e-05
-3.49876e-05
4.79895e-05
-1.22952e-05
2.05e-05
-1.05464e-05
-5.23795e-05
-9.20136e-06
-2.5946e-05
-2.613e-05
9.29767e-06
-2.6574e-05
3.99353e-06
-4.01407e-05
2.76716e-05
-2.89212e-05
7.75991e-06
-1.40326e-05
2.30899e-05
-9.74915e-06
-1.35418e-05
-1.35492e-05
-2.22234e-05
-2.71694e-06
-7.16567e-05
-1.73975e-05
-7.37849e-05
3.6586e-06
-0.000142463
-0.000177702
-4.49225e-05
0.000253052
-1.91944e-05
0.000107878
-1.81615e-05
6.82336e-05
-7.74463e-06
1.79761e-05
-2.90565e-06
4.31505e-05
1.24536e-05
5.14078e-06
8.51153e-06
-4.84375e-05
2.07681e-05
-3.82026e-05
1.32005e-06
2.87457e-05
-1.38012e-05
1.91148e-05
-1.07061e-05
2.45764e-05
-2.0029e-05
1.70828e-05
2.39184e-06
6.69038e-07
1.20524e-05
-2.32024e-05
2.29021e-05
-3.30731e-05
1.33701e-05
-6.21246e-05
1.28476e-06
-6.16997e-05
8.09435e-06
-0.000149273
-0.000169608
-6.09663e-05
0.000314018
-4.50023e-05
9.19143e-05
-9.90755e-06
3.31389e-05
-8.95558e-06
1.70241e-05
5.30525e-06
2.88896e-05
9.99274e-06
4.53285e-07
1.82401e-05
-5.66848e-05
2.53471e-05
-4.53096e-05
1.35397e-05
4.05531e-05
3.70651e-07
3.22838e-05
9.42024e-07
2.4005e-05
-1.42431e-07
1.81673e-05
3.24874e-06
-2.72214e-06
1.54581e-05
-3.54118e-05
3.92538e-05
-5.68688e-05
2.28617e-05
-4.57325e-05
2.01195e-05
-5.89575e-05
1.60493e-05
-0.000145203
-0.000153558
3.42987e-06
-6.85151e-06
3.28506e-05
-7.30215e-05
3.23754e-05
-2.81769e-06
-6.45801e-06
2.96838e-05
-1.92458e-05
2.18587e-05
-9.2154e-06
3.10744e-05
-1.77528e-05
2.06236e-05
-2.09488e-05
2.6602e-05
-1.06235e-05
4.33456e-05
-5.82613e-05
7.56177e-05
-3.01597e-05
-3.26868e-05
-5.1419e-06
-4.86878e-05
4.58833e-06
-5.71109e-05
1.88755e-07
-1.63872e-05
-3.14271e-06
-2.228e-05
-2.2994e-05
-1.91778e-05
-3.04794e-05
8.51396e-07
-2.40654e-05
2.00498e-05
-2.0698e-05
1.26787e-06
-3.41865e-05
-8.36282e-06
-3.9366e-05
-1.84714e-05
-7.9371e-05
4.51168e-05
5.64892e-05
-6.67257e-05
-9.71076e-06
2.85924e-06
-2.33529e-06
-8.0397e-05
-1.79717e-05
1.28187e-05
-3.82026e-05
4.99146e-05
-2.56866e-05
9.34273e-06
-1.08698e-05
1.62575e-05
6.07959e-07
9.1459e-06
1.75797e-05
9.63026e-06
7.71416e-06
5.32112e-05
2.56229e-05
5.7709e-05
2.62019e-05
-3.32658e-05
7.16765e-06
-2.96536e-05
4.8365e-05
-9.83083e-05
8.9139e-06
2.3064e-05
-3.1918e-05
1.85519e-05
-4.84922e-05
-2.60352e-06
-5.38848e-05
6.24395e-06
-7.28917e-05
3.90567e-05
-0.000100605
2.89813e-05
-0.000114224
5.25569e-06
-0.000137981
5.28654e-06
-0.000110408
1.75434e-05
0.000104407
-0.000158326
1.16834e-05
-8.82419e-06
-4.32555e-05
-2.5458e-05
-5.46915e-05
2.42546e-05
-6.35489e-05
5.87721e-05
-2.32852e-05
-3.0921e-05
-9.53201e-06
2.50434e-06
-5.52888e-06
5.14277e-06
-1.99654e-05
2.40668e-05
1.70993e-05
1.61465e-05
6.10719e-05
1.37364e-05
4.93459e-05
-2.15399e-05
1.15858e-05
8.10649e-06
-6.46885e-06
-8.02536e-05
-5.37775e-06
2.19729e-05
7.43966e-06
5.73447e-06
-4.49795e-05
4.98157e-05
-8.90217e-05
5.02862e-05
-0.000112675
6.27102e-05
-0.000137353
5.36587e-05
-0.000146125
1.40281e-05
-0.000162831
2.19923e-05
-0.000182523
3.72359e-05
8.80924e-05
-0.000166208
-5.7073e-05
4.82488e-05
-6.97701e-05
-1.27609e-05
-6.3577e-05
1.80615e-05
-3.87077e-05
3.39028e-05
-2.60249e-05
-4.36038e-05
-1.53866e-05
-8.13401e-06
-5.51476e-05
4.49038e-05
-4.7704e-05
1.66232e-05
-2.16813e-05
-9.87618e-06
3.17922e-05
-3.97372e-05
6.43354e-05
-5.4083e-05
1.29613e-05
5.94806e-05
-5.00126e-06
-6.22911e-05
-1.05909e-05
2.75626e-05
4.38528e-06
-9.24174e-06
-8.21134e-06
6.24123e-05
-4.39161e-05
8.5991e-05
-4.99701e-05
6.87641e-05
-7.22102e-05
7.58988e-05
-0.00011762
5.94377e-05
-0.000128646
3.30182e-05
-0.000163418
7.20082e-05
1.82175e-05
-9.35432e-05
-1.50672e-05
6.3316e-05
-3.03526e-05
2.52458e-06
-4.02222e-06
-8.26897e-06
3.23553e-05
-2.47464e-06
4.95632e-06
-1.62048e-05
-1.10167e-06
-2.07602e-06
2.50093e-05
1.87928e-05
2.98352e-05
1.17973e-05
4.55713e-05
-2.56123e-05
8.22415e-05
-7.64074e-05
4.33993e-06
2.38185e-05
-5.98778e-05
0.000123698
-0.000115017
-7.15223e-06
-4.37196e-05
-4.37345e-05
-4.3777e-05
-9.18432e-06
-1.5975e-05
3.46102e-05
-2.07472e-05
9.07632e-05
-4.61091e-05
9.4126e-05
-3.89132e-05
6.87029e-05
-3.80284e-05
5.85529e-05
-9.86383e-05
9.36281e-05
-8.69778e-05
6.03476e-05
2.65305e-05
-9.52909e-05
1.11165e-06
6.22043e-05
-9.93699e-06
1.35732e-05
-1.13114e-05
-6.89461e-06
-5.83285e-06
-7.95314e-06
-1.71582e-05
-4.87948e-06
-2.12743e-05
2.04007e-06
-2.08195e-05
1.8338e-05
-2.49304e-06
-6.5291e-06
-8.35162e-06
-1.97537e-05
-4.05762e-05
-4.41828e-05
-3.01606e-05
1.3403e-05
2.34151e-05
7.01226e-05
-2.09579e-05
3.72208e-05
-3.40551e-05
-3.06373e-05
-3.84945e-05
-4.74491e-06
-3.29627e-05
2.90785e-05
-2.44848e-05
8.22852e-05
-3.84334e-05
0.000108075
-5.76433e-05
8.79128e-05
-7.13711e-05
7.22808e-05
-8.36126e-05
0.00010587
-9.15594e-05
6.82945e-05
-2.14348e-06
-6.28854e-05
-5.77198e-06
6.79763e-05
-1.0574e-05
1.83752e-05
-1.32689e-05
-4.19969e-06
-1.63222e-05
-4.89991e-06
-1.51656e-05
-6.03603e-06
-7.34422e-06
-5.78132e-06
-2.1731e-05
3.27248e-05
-2.65694e-05
-1.69078e-06
-9.07385e-06
-3.72492e-05
-3.58908e-05
-1.73659e-05
-2.98516e-05
7.36374e-06
-1.11371e-05
5.14081e-05
-1.40296e-05
4.01133e-05
-4.7677e-05
3.0101e-06
-8.04678e-05
2.80459e-05
-8.89955e-05
3.76062e-05
-7.34803e-05
6.67701e-05
-7.30745e-05
0.000107669
-5.78866e-05
7.27249e-05
-8.80062e-05
0.0001024
-7.45812e-05
9.24445e-05
-3.37492e-05
2.74626e-05
-2.1691e-05
-1.42017e-05
-1.11276e-05
7.91039e-05
-3.15468e-05
3.87944e-05
-2.79595e-05
-7.78695e-06
-1.94753e-05
-1.33842e-05
-2.02932e-05
-5.21813e-06
-1.12721e-05
-1.48024e-05
1.37865e-06
2.0074e-05
-1.25758e-05
1.22637e-05
-3.88793e-05
-1.09457e-05
-7.25014e-05
1.62563e-05
-8.57783e-05
2.06406e-05
-7.71985e-05
4.28284e-05
-0.000107399
7.03133e-05
-0.000148838
4.44499e-05
-0.000161769
4.09764e-05
-0.000161715
3.75523e-05
-0.000162171
6.72264e-05
-0.000104444
4.99415e-05
-0.000163229
0.00013151
-0.000126701
6.58722e-05
-9.56049e-05
6.13484e-05
-7.88221e-05
1.06797e-05
-1.11371e-05
-8.93759e-05
1.05389e-05
6.8565e-05
4.00251e-06
4.53307e-05
-1.17659e-05
7.98142e-06
-2.27381e-05
-2.41194e-06
-1.71673e-05
-1.07889e-05
-2.37161e-05
-8.25361e-06
-3.56192e-05
3.19771e-05
-9.36139e-05
7.02584e-05
-0.000158383
5.38239e-05
-0.000224856
8.27289e-05
-0.000243228
3.90121e-05
-0.000244851
4.4452e-05
-0.000233017
5.84788e-05
-0.000229674
4.11071e-05
-0.000260417
7.17195e-05
-0.000301116
7.82509e-05
-0.000315259
8.13701e-05
-0.000354685
8.93673e-05
-0.000294575
7.14004e-05
-0.000253664
2.49607e-05
-0.000195101
2.78517e-06
-0.000179061
-5.36002e-06
-2.19008e-05
-0.000168297
-1.50129e-05
8.35779e-05
-1.17457e-05
4.20635e-05
-1.52165e-05
1.14523e-05
-1.71235e-05
-5.05028e-07
-3.79582e-05
1.00458e-05
-4.8122e-05
1.91014e-06
-8.30347e-05
6.68898e-05
-0.000104426
9.16494e-05
-0.000144784
9.41818e-05
-0.00016256
0.000100506
-0.000187965
6.44171e-05
-0.00017671
3.31966e-05
-0.000187409
6.91775e-05
-0.000290928
0.000144627
-0.000349877
0.000130668
-0.000380448
0.000108822
-0.000348233
4.91556e-05
-0.000325075
6.62084e-05
-0.000315905
6.22312e-05
-0.000295423
4.47869e-06
-0.000267679
-2.49589e-05
-0.000257078
-1.59611e-05
-3.26493e-05
-0.00024633
-5.1179e-06
8.86958e-05
-2.28291e-05
5.97746e-05
-1.97742e-05
8.39735e-06
-2.39345e-05
3.65519e-06
-4.09331e-05
2.70444e-05
-8.83842e-05
4.93611e-05
-0.000104207
8.27125e-05
-0.000198149
0.000185592
-0.000258294
0.000154326
-0.000249619
9.18301e-05
-0.000259917
7.47155e-05
-0.000350268
0.000123547
-0.000384384
0.000103293
-0.000339946
0.00010019
-0.000257891
4.86124e-05
-0.000213656
6.45876e-05
-0.000274042
0.000109541
-0.000258935
5.1101e-05
-0.000200373
3.66966e-06
-0.000209641
1.37471e-05
-0.000285005
5.0405e-05
-0.000303465
2.4987e-06
-1.72415e-05
-0.000318873
-4.9182e-06
9.3614e-05
-1.65238e-05
7.13802e-05
-3.43595e-05
2.6233e-05
-8.26474e-05
5.1943e-05
-0.000147585
9.19815e-05
-0.000198364
0.000100141
-0.000251188
0.000135536
-0.000300723
0.000235128
-0.000280595
0.000134198
-0.000215836
2.70715e-05
-0.000181201
4.00799e-05
-0.00012118
6.35268e-05
-8.81891e-05
7.03023e-05
-0.000170286
0.000182287
-0.000227413
0.000105739
-0.000232125
6.93e-05
-0.000229055
0.000106471
-0.000238894
6.09396e-05
-0.000262365
2.71406e-05
-0.000273231
2.46132e-05
-0.000258478
3.56517e-05
-0.000276617
2.06372e-05
4.84596e-07
-0.000294343
-4.42324e-06
9.80372e-05
-3.32998e-05
0.000100257
-9.41853e-05
8.71183e-05
-0.000140825
9.85827e-05
-0.000179132
0.000130288
-0.000181852
0.00010286
-0.00026751
0.000221193
-0.000155013
0.000122632
-0.000128776
0.000107961
-0.000219705
0.000118
-0.000300651
0.000121026
-0.000343386
0.000106261
-0.000363263
9.01792e-05
-0.000236518
5.55425e-05
-0.000195624
6.48446e-05
-0.000265929
0.000139606
-0.000247868
8.84103e-05
-0.000223566
3.66377e-05
-0.000205558
9.13235e-06
-0.000205934
2.49893e-05
-0.000240919
7.06364e-05
-0.000329372
0.000109089
4.85938e-05
-0.000377482
-2.20284e-06
0.00010024
-3.72794e-05
0.000135333
-8.62604e-05
0.000136099
-0.000140027
0.000152349
-0.000108023
9.82844e-05
-0.000248622
0.000243459
-0.000278438
0.00025101
-0.000364858
0.000209052
-0.00034935
9.24528e-05
-0.000378796
0.000147445
-0.000396617
0.000138848
-0.000378521
8.81647e-05
-0.000355291
6.69496e-05
-0.00033878
3.90311e-05
-0.000309174
3.52389e-05
-0.000183348
1.37796e-05
-0.000132845
3.7907e-05
-0.000174223
7.80162e-05
-0.000194161
2.90724e-05
-0.000252321
8.31507e-05
-0.000302535
0.000120849
-0.00038058
0.000187132
0.000176394
-0.000508383
-2.87292e-06
0.000103113
-2.15195e-05
0.00015398
-5.40811e-05
0.000168661
-9.88354e-05
0.000197103
-0.000277098
0.000276547
-0.000332741
0.000299102
-0.000343973
0.000262241
-0.000373466
0.000238545
-0.00038032
9.93067e-05
-0.00037924
0.000146366
-0.000366012
0.00012562
-0.0003369
5.90528e-05
-0.000301491
3.15404e-05
-0.000299399
3.69392e-05
-0.000292071
2.79115e-05
-0.000306329
2.80372e-05
-0.000351638
8.32163e-05
-0.000356644
8.30229e-05
-0.000539791
0.00021222
-0.000625735
0.000169095
-0.000619415
0.000114528
-0.000621161
0.000188877
0.000144447
-0.000589214
-1.35558e-05
0.000116669
-5.42531e-05
0.000194677
-9.58231e-05
0.000210231
-0.000160954
0.000262234
-0.000163634
0.000279227
-0.000202705
0.000338173
-0.000296659
0.000356195
-0.000198341
0.000140226
-0.000363346
0.000264312
-0.000343518
0.000126538
-0.000240092
2.21939e-05
-0.000224117
4.30773e-05
-0.00029342
0.000100844
-0.000320561
6.40803e-05
-0.000337749
4.50992e-05
-0.00036379
5.40796e-05
-0.000373858
9.3286e-05
-0.00045836
0.000167527
-0.000386383
0.000140243
-0.000388345
0.000171057
-0.000438663
0.000164845
-0.000429043
0.000179257
3.99471e-05
-0.000324542
-1.43627e-05
0.000131031
-3.69535e-05
0.000217268
-7.03857e-05
0.000243663
-8.83304e-05
0.000280179
-0.000115186
0.000306082
-0.000138757
0.000361744
-0.00014434
0.000361779
-0.00028836
0.000284246
-0.000175687
0.000151639
-0.000234125
0.000184975
-0.000276354
6.44233e-05
-0.000309999
7.67217e-05
-0.000271439
6.22845e-05
-0.000247438
4.00788e-05
-0.000245529
4.31896e-05
-0.000255156
6.37076e-05
-0.000276587
0.000114718
-0.000183242
7.4184e-05
-0.000250054
0.000207055
-0.000271952
0.000192956
-0.000422818
0.000315711
-0.000455408
0.000211845
2.05157e-05
-0.000435978
-1.59745e-05
0.000147006
-2.67476e-05
0.000228041
-4.31833e-05
0.000260099
-6.79506e-05
0.000304947
-6.15795e-05
0.000299711
-8.59307e-05
0.000386096
-0.000145998
0.000421847
-6.94221e-05
0.000207669
-9.03157e-05
0.000172533
-0.000125994
0.000220654
-0.000179299
0.000117728
-0.000123297
2.07192e-05
-0.000136404
7.5392e-05
-0.000126674
3.03479e-05
-0.000127573
4.4089e-05
-0.000130628
6.67623e-05
-7.01115e-05
5.42011e-05
-0.000112131
0.000116204
-0.000161585
0.00025651
-0.000346315
0.000377686
-0.000373417
0.000342813
-0.000401258
0.000239686
2.22303e-05
-0.000402973
-3.16115e-05
0.000178617
9.24735e-06
0.000187182
-4.38054e-06
0.000273727
-3.61124e-05
0.000336679
3.6573e-05
0.000227026
3.99461e-05
0.000382722
4.601e-05
0.000415783
7.96804e-05
0.000173999
-9.0637e-06
0.000261276
-1.93191e-05
0.000230909
-3.2455e-06
0.000101654
-9.16184e-06
2.66352e-05
-6.68361e-06
7.29136e-05
-3.80452e-06
2.74686e-05
-9.72878e-06
5.00132e-05
-2.07135e-05
7.77471e-05
-9.56806e-05
0.000129168
-0.000160712
0.000181235
-0.000178534
0.000274333
-0.00017803
0.000377181
-0.000181667
0.00034645
-0.000160035
0.000218053
5.95699e-05
-0.000197375
-1.3706e-05
0.000192323
-2.55757e-05
0.000199052
3.73513e-05
0.0002108
3.83402e-05
0.00033569
2.91363e-05
0.00023623
5.83581e-05
0.000353501
0.000151747
0.000322393
8.16672e-05
0.000244079
0.000138483
0.000204461
0.000156348
0.000213044
0.000149609
0.000108393
6.63572e-05
0.000109887
7.89596e-05
6.03112e-05
5.96592e-05
4.6769e-05
9.62915e-06
0.000100043
-8.44144e-07
8.82204e-05
-2.2198e-05
0.000150522
-5.53439e-05
0.000214381
3.72118e-05
0.000181778
4.57514e-05
0.000368642
4.44452e-05
0.000347755
4.19184e-05
0.000220579
5.33676e-05
4.81204e-05
4.66933e-06
0.000187654
1.38627e-05
0.000189858
1.99854e-05
0.000204677
5.89764e-05
0.000296699
1.1691e-05
0.000283516
4.62727e-05
0.000318919
9.49276e-05
0.000273738
0.000143755
0.000195252
0.00014728
0.000200936
0.000225115
0.000135208
0.000144582
0.000188925
0.000172483
8.19863e-05
0.000142568
9.02263e-05
6.42292e-05
0.000125108
6.00941e-05
0.000104178
7.70812e-05
7.12334e-05
6.39993e-05
0.000163604
7.0097e-05
0.000208283
9.74696e-05
0.000154406
0.000122205
0.000343906
0.000304119
0.000165841
0.000402566
0.000122131
6.89378e-05
0.000386996
1.15543e-05
0.0001761
1.21353e-05
0.000189277
1.84318e-05
0.000198381
1.51152e-05
0.000300015
2.10995e-05
0.000277531
3.54793e-05
0.000304539
0.000128354
0.000180864
8.70281e-05
0.000236577
0.000158886
0.000129077
0.000141308
0.000152787
0.000120043
0.00021019
0.000102115
9.99146e-05
8.30943e-05
0.000109247
0.000105278
0.000102924
9.51608e-05
0.000114295
7.03449e-05
9.60494e-05
0.00014218
9.17689e-05
0.000145189
0.000205275
0.000186591
0.000113003
0.000280184
0.000250313
0.000349305
9.67203e-05
0.000397545
7.38899e-05
5.53107e-05
0.000411171
4.63289e-05
0.000129771
-1.14453e-06
0.000236751
-3.77052e-05
0.000234942
1.897e-07
0.00026212
1.12061e-05
0.000266515
6.00411e-05
0.000255704
5.33667e-05
0.000187538
0.000148665
0.000141279
0.000154188
0.000123554
0.000177418
0.000129557
0.000181348
0.00020626
0.000107697
0.000173566
8.56546e-05
0.000131289
0.000134348
5.42314e-05
0.000129999
0.000118644
7.84314e-05
0.000147617
9.33492e-05
7.68512e-05
0.000149391
0.000149233
0.000106337
0.000156057
0.000206817
0.000149834
0.00019638
0.000107157
0.000218578
5.16914e-05
-1.31883e-05
0.000287077
1.66046e-06
0.00012811
5.02289e-06
0.000233388
1.03292e-05
0.000229635
1.33268e-05
0.000259123
1.93651e-05
0.000260476
0.000120421
0.000154648
4.5271e-05
0.000262688
7.6834e-05
0.000109716
7.92536e-05
0.000121135
0.000122313
8.6498e-05
0.000146486
0.000182087
0.00013729
0.000182761
0.000127777
0.000140803
9.63646e-05
8.56436e-05
8.27926e-05
0.000132216
0.000132931
9.74787e-05
8.37141e-05
0.000126068
0.000123592
0.000109356
0.00014229
0.000137359
0.000140162
0.000151962
0.000177294
7.00252e-05
0.0001822
4.6785e-05
-5.15124e-06
0.000174164
-3.50922e-06
0.00013162
5.68395e-06
0.000224195
1.06896e-05
0.000224629
2.15545e-05
0.000248258
4.18914e-05
0.000240139
4.45361e-05
0.000152003
8.58065e-05
0.000221418
8.41007e-05
0.000111422
8.94719e-05
0.000115764
7.62896e-05
9.96802e-05
8.25175e-05
0.000175859
0.000114785
0.000150494
0.000122029
0.000133559
0.000128575
7.90972e-05
0.000119184
0.000141607
9.6044e-05
0.000120619
9.05687e-05
0.000131544
0.000149226
5.06987e-05
0.000170058
0.000116527
0.000213988
0.000108032
0.000242663
4.13503e-05
0.000241516
4.79328e-05
1.27243e-05
0.00022364
-3.2655e-05
0.000164275
-4.2525e-06
0.000195793
8.70946e-06
0.000211667
2.63561e-05
0.000230611
6.54383e-05
0.000201057
2.19703e-05
0.000195471
6.12439e-05
0.000182144
5.63611e-05
0.000116305
8.79995e-05
8.41252e-05
0.000102671
8.50086e-05
0.000111701
0.000166829
0.000117805
0.00014439
0.000125926
0.000125437
6.98243e-05
0.000135199
9.7333e-05
0.000114098
0.000142541
7.54103e-05
0.000145853
0.000128232
9.7129e-05
9.94226e-05
0.000156958
5.6698e-05
0.000179681
8.5308e-05
0.000141765
7.9267e-05
0.000186875
2.82238e-06
2.87661e-05
0.000170833
2.5011e-07
0.000164024
5.79207e-06
0.00019025
1.65883e-05
0.000200871
3.22192e-05
0.00021498
3.44703e-05
0.000198806
6.95838e-05
0.000160357
8.86235e-05
0.000163105
3.89593e-05
0.000165969
6.07447e-05
6.23398e-05
8.01395e-05
6.56137e-05
8.75477e-05
0.000159421
9.00277e-05
0.00014191
7.32957e-05
0.000142169
0.000130785
7.77097e-05
0.000132757
0.000112126
8.28732e-05
0.000125294
0.000119404
9.1701e-05
0.000128701
9.01254e-05
0.00010732
7.80796e-05
0.000173033
1.95944e-05
0.000181157
7.11433e-05
0.000126575
5.74042e-05
-2.50269e-06
0.000157844
-7.01278e-07
0.000164726
5.51313e-06
0.000184036
1.72763e-05
0.000189108
3.3473e-05
0.000198783
4.4232e-05
0.000188047
3.81128e-05
0.000166477
4.07962e-05
0.000160421
6.53597e-05
0.000141405
5.16699e-05
7.60296e-05
5.96743e-05
5.76094e-05
8.31787e-05
0.000135916
9.81467e-05
0.000126942
0.000114134
0.000126182
5.83115e-05
0.000133532
0.00011545
5.49881e-05
0.000117523
0.00012322
0.000118343
9.08811e-05
0.000118965
8.95034e-05
0.00014928
4.7765e-05
0.000111495
5.73794e-05
0.000114535
6.81035e-05
0.000161623
1.03157e-05
5.40873e-06
0.000153712
-1.36037e-11
0.000164726
9.1926e-06
0.000174843
2.08663e-05
0.000177434
3.76789e-05
0.00018197
4.76307e-05
0.000178095
6.02728e-05
0.000153834
6.64943e-05
0.0001542
6.82883e-05
0.000139611
6.98331e-05
7.44848e-05
5.96146e-05
6.78279e-05
8.39469e-05
0.000111584
9.27799e-05
0.000118109
7.69374e-05
0.000142024
0.000109209
0.00010126
6.73438e-05
9.68535e-05
0.000101246
8.93178e-05
0.000109833
8.22948e-05
0.000116978
8.23578e-05
0.000131593
3.31503e-05
0.000102974
8.59977e-05
0.000150873
2.02045e-05
0.000153414
7.77483e-06
1.33134e-05
0.000145509
1.76995e-06
0.000162956
1.17683e-05
0.000164845
1.99373e-05
0.000169265
3.29901e-05
0.000168918
4.38187e-05
0.000167267
5.33269e-05
0.000144326
6.10001e-05
0.000146526
6.30311e-05
0.00013758
6.25566e-05
7.49592e-05
4.3922e-05
8.64625e-05
8.75956e-05
6.79106e-05
6.77654e-05
0.000137939
9.39704e-05
0.000115819
9.19771e-05
0.000103253
6.55689e-05
0.000123262
0.000110705
4.4182e-05
0.000109969
8.30305e-05
0.000114429
7.78981e-05
8.48318e-05
6.27471e-05
0.000142261
2.85689e-05
0.000134009
2.84562e-05
9.30142e-05
4.87696e-05
-5.52722e-06
0.000111855
3.71256e-06
0.000159243
1.20078e-05
0.00015655
1.99866e-05
0.000161286
2.93227e-05
0.000159582
3.81716e-05
0.000158418
3.57884e-05
0.000146709
5.67283e-05
0.000125587
6.18585e-05
0.00013245
6.24436e-05
7.43741e-05
6.40522e-05
8.48538e-05
5.08423e-05
8.11205e-05
5.10566e-05
0.000137725
6.07611e-05
0.000106115
6.4662e-05
9.93527e-05
9.11529e-05
9.67707e-05
9.03101e-05
4.50248e-05
9.67987e-05
7.65418e-05
0.000105061
6.96356e-05
0.000109769
5.8039e-05
7.82181e-05
6.012e-05
8.35431e-05
2.31311e-05
0.000118815
1.34973e-05
3.64879e-06
0.000109639
3.17414e-06
0.000156069
8.29531e-06
0.000151428
1.71375e-05
0.000152444
2.37305e-05
0.000152989
2.59729e-05
0.000156175
2.10886e-05
0.000151594
6.37522e-05
8.29229e-05
5.02499e-05
0.000145952
5.19601e-05
7.26638e-05
7.13841e-05
6.54298e-05
3.88199e-05
0.000113685
7.38502e-05
0.000102694
8.47816e-05
9.51833e-05
9.29058e-05
9.12284e-05
9.29853e-05
9.66911e-05
9.14915e-05
4.65186e-05
9.14319e-05
7.66014e-05
9.39821e-05
6.70854e-05
7.37297e-05
7.82914e-05
0.00011481
1.90397e-05
0.000108992
2.89493e-05
0.000108962
1.35269e-05
9.31016e-06
0.000103301
5.62099e-06
0.000150448
9.84695e-06
0.000147202
1.22731e-05
0.000150018
1.76131e-05
0.000147649
3.03147e-05
0.000143474
4.31264e-05
0.000138782
5.12182e-05
7.4831e-05
5.87069e-05
0.000138464
6.04889e-05
7.08817e-05
5.73876e-05
6.85311e-05
5.92228e-05
0.000111849
7.00428e-05
9.18744e-05
5.43903e-05
0.000110836
5.75152e-05
8.81035e-05
7.88713e-05
7.5335e-05
3.96813e-05
8.57085e-05
7.96227e-05
3.66601e-05
5.58498e-05
9.08582e-05
0.000101622
3.25191e-05
7.07631e-05
4.98988e-05
8.43378e-05
1.53746e-05
8.41311e-05
1.37336e-05
1.06582e-05
8.2783e-05
7.16159e-06
0.000143286
1.21798e-05
0.000142184
1.97537e-05
0.000142444
2.72159e-05
0.000140186
3.22292e-05
0.000138461
4.21733e-05
0.000128838
5.47504e-05
6.2254e-05
7.20371e-05
0.000121177
4.74253e-05
9.54935e-05
1.04819e-05
0.000105474
5.29558e-05
6.93755e-05
4.6099e-05
9.87312e-05
6.4654e-05
9.22808e-05
4.91723e-05
0.000103585
4.98271e-05
7.46802e-05
7.59682e-05
5.95674e-05
5.18219e-05
6.08063e-05
7.72847e-05
6.53955e-05
8.53245e-05
2.44793e-05
8.8407e-05
4.68162e-05
7.81357e-05
2.56458e-05
7.84613e-05
1.3408e-05
1.02263e-05
7.88931e-05
3.50442e-06
0.000139782
9.23391e-06
0.000136455
1.44143e-05
0.000137264
1.38573e-05
0.000140743
2.69478e-05
0.00012537
2.50833e-05
0.000130702
2.56621e-05
6.16752e-05
4.16577e-05
0.000105181
3.37116e-05
0.00010344
5.02671e-05
8.89189e-05
1.72909e-05
0.000102352
5.83019e-05
5.77202e-05
4.60576e-05
0.000104525
6.37042e-05
8.59386e-05
5.9239e-05
7.91454e-05
4.52923e-05
7.35141e-05
5.02723e-05
5.58263e-05
7.61969e-05
3.94709e-05
4.74279e-05
5.32483e-05
4.55454e-05
4.86988e-05
6.41371e-05
7.05408e-06
4.71581e-05
3.0387e-05
-4.26674e-06
6.16511e-05
3.24468e-06
0.000136537
9.88487e-06
0.000129815
1.50079e-05
0.000132141
1.21175e-05
0.000143634
2.42105e-05
0.000113277
2.336e-05
0.000131553
1.40435e-05
7.09917e-05
4.95778e-05
6.96472e-05
3.25741e-05
0.000120443
2.85711e-05
9.29218e-05
4.30237e-05
8.78992e-05
3.82098e-05
6.25341e-05
5.64795e-05
8.62554e-05
5.9412e-05
8.30062e-05
6.01089e-05
7.84485e-05
5.93797e-05
7.42433e-05
4.4922e-05
7.0284e-05
4.45226e-05
3.98702e-05
4.08339e-05
5.6937e-05
6.61174e-05
2.34153e-05
6.15808e-05
1.15907e-05
6.35178e-05
2.845e-05
1.15365e-05
4.77147e-05
1.59857e-06
0.000134939
9.56137e-06
0.000121852
7.65213e-06
0.00013405
2.97054e-06
0.000148315
3.56144e-05
8.06333e-05
2.46805e-05
0.000142487
2.9306e-05
6.63663e-05
2.67489e-05
7.22043e-05
1.8823e-05
0.000128369
5.11138e-05
6.0631e-05
3.41334e-05
0.00010488
4.52222e-05
5.14452e-05
4.9778e-05
8.16997e-05
5.21033e-05
8.06808e-05
5.32927e-05
7.7259e-05
5.29939e-05
7.45421e-05
5.86341e-05
6.46438e-05
4.38107e-05
5.46936e-05
4.20879e-05
5.86598e-05
5.23968e-05
1.31065e-05
3.29399e-05
3.10476e-05
5.54305e-05
5.95936e-06
1.80387e-05
4.89283e-05
1.35843e-06
0.00013358
6.65025e-06
0.00011656
7.25616e-06
0.000133444
1.51153e-05
0.000140456
1.52611e-05
8.04876e-05
2.36088e-05
0.000134139
2.39397e-05
6.60354e-05
2.70965e-05
6.90475e-05
3.03616e-05
0.000125104
2.2433e-05
6.85596e-05
1.61413e-05
0.000111171