/*--------------------------------*- C++ -*----------------------------------*\
| =========                 |                                                 |
| \\      /  F ield         | foam-extend: Open Source CFD                    |
|  \\    /   O peration     | Version:     4.1                                |
|   \\  /    A nd           | Web:         http://www.foam-extend.org         |
|    \\/     M anipulation  |                                                 |
\*---------------------------------------------------------------------------*/
FoamFile
{
    version     2.0;
    format      ascii;
    class       surfaceScalarField;
    location    "0.8";
    object      phi_0;
}
// * * * * * * * * * * * * * * * * * * * * * * * * * * * * * * * * * * * * * //

dimensions      [0 3 -1 0 0 0 0];

internalField   nonuniform List<scalar> 
4432
(
1.11721e-05
-1.11721e-05
9.00789e-09
1.11631e-05
-4.05532e-05
4.05622e-05
-2.1319e-05
-1.92342e-05
-1.24646e-05
-8.85434e-06
-2.09205e-05
8.45584e-06
1.14099e-05
-3.23304e-05
2.26607e-05
-1.12508e-05
5.12329e-06
1.75374e-05
-9.36536e-06
1.44886e-05
-1.57291e-05
6.36375e-06
-6.20544e-06
-9.52367e-06
3.64467e-06
-9.85012e-06
5.24678e-06
-1.60211e-06
6.57505e-06
-1.32826e-06
9.83966e-06
-3.26461e-06
1.15099e-05
-1.67026e-06
3.74801e-06
7.7619e-06
3.74842e-06
-4.08363e-10
1.74339e-06
2.00503e-06
4.00885e-06
-2.26547e-06
4.40561e-07
3.56829e-06
4.4056e-07
4.89718e-06
-1.60693e-05
9.30705e-06
6.75324e-06
-6.66922e-06
5.65385e-05
8.91543e-07
-2.6795e-05
1.59146e-05
-2.38774e-05
5.71995e-06
1.86505e-05
9.99843e-07
-2.76103e-05
-4.78039e-06
-5.47056e-06
-1.89322e-05
3.16893e-05
-1.11597e-05
6.71611e-06
-1.74618e-05
1.26658e-05
-6.63294e-06
-2.03525e-05
3.34077e-06
-1.98238e-05
5.90215e-06
-4.16348e-06
7.23868e-06
-2.6648e-06
9.85065e-06
-5.87658e-06
5.7703e-06
2.4101e-06
9.94463e-06
3.58757e-06
5.89337e-06
4.05085e-06
5.03788e-06
2.86052e-06
6.60767e-06
-3.83526e-06
6.30557e-06
3.87039e-06
6.74613e-06
-7.22471e-06
-8.84458e-06
-3.27818e-06
2.80671e-06
-5.015e-06
5.82753e-05
7.60687e-06
-3.94169e-05
1.42891e-05
-3.05597e-05
1.27123e-05
2.02274e-05
-4.04873e-06
-1.08493e-05
-1.22848e-05
2.76548e-06
-2.20672e-05
4.14717e-05
-9.18703e-06
-6.16409e-06
-1.81816e-05
2.16604e-05
-8.77733e-06
-2.97568e-05
-9.56632e-07
-2.76445e-05
2.38323e-06
-7.50334e-06
5.57738e-06
-5.85896e-06
9.38124e-06
-9.68043e-06
9.92837e-06
1.86296e-06
9.3675e-06
4.14844e-06
6.01814e-06
7.4002e-06
9.44784e-06
-5.69173e-07
6.5434e-06
-9.30818e-07
6.17782e-06
4.23598e-06
1.29239e-05
-1.69773e-05
8.13267e-06
-1.2416e-05
-1.7546e-06
1.00523e-05
3.58071e-05
7.06748e-06
-3.6432e-05
1.38761e-05
-3.73684e-05
1.12722e-05
2.28313e-05
-7.55093e-06
7.97386e-06
-1.91765e-05
1.4391e-05
-2.41189e-05
4.64142e-05
6.90506e-06
-3.71881e-05
-4.15364e-06
3.27191e-05
-1.75538e-05
-1.63566e-05
-8.4289e-06
-3.67694e-05
-1.97053e-06
-1.39617e-05
4.67736e-07
-8.29722e-06
7.42856e-06
-1.66413e-05
9.46339e-06
-1.71867e-07
8.23085e-06
5.38098e-06
5.42996e-06
1.02011e-05
8.74878e-06
-3.888e-06
6.91534e-06
9.02625e-07
6.30791e-06
4.84341e-06
1.92319e-05
-1.71724e-05
2.53051e-05
-3.73748e-06
-1.51895e-05
1.70648e-05
1.50047e-05
2.44813e-06
-2.18153e-05
-5.26585e-06
-2.96544e-05
2.31533e-06
1.52501e-05
-9.5676e-06
1.98568e-05
-2.82849e-05
3.31083e-05
-2.31758e-05
4.1305e-05
2.50472e-06
-6.28686e-05
-4.05233e-06
3.92762e-05
-1.27099e-05
-7.69908e-06
-4.64388e-06
-4.48354e-05
-8.16041e-06
-1.04452e-05
-3.75879e-06
-1.26988e-05
3.37242e-06
-2.37725e-05
6.57544e-06
-3.37489e-06
5.62266e-06
6.33377e-06
4.23062e-06
1.15931e-05
7.71394e-06
-7.37132e-06
8.54894e-06
6.76275e-08
8.43357e-06
4.95878e-06
2.76654e-05
1.41028e-05
1.12023e-05
2.98804e-05
-3.09671e-05
2.99967e-05
1.48885e-05
2.16782e-05
-1.34969e-05
1.17307e-05
-1.97068e-05
3.80123e-06
2.31796e-05
7.45125e-06
1.62068e-05
-1.06199e-06
4.16216e-05
-9.76848e-06
5.00115e-05
-2.86575e-05
-4.39795e-05
-9.73053e-06
2.03492e-05
-1.02829e-05
-7.14668e-06
-9.56931e-06
-4.5549e-05
-5.62222e-06
-1.43923e-05
-2.11964e-06
-1.62014e-05
5.65204e-06
-3.15441e-05
8.04849e-06
-5.77134e-06
3.6935e-06
1.06888e-05
5.13105e-06
1.01556e-05
3.76098e-06
-6.00125e-06
9.1822e-06
-5.35359e-06
3.90743e-06
1.02335e-05
3.15729e-05
-3.12273e-06
1.4325e-05
9.47683e-06
-4.35666e-05
1.32692e-05
1.10961e-05
8.5624e-06
-8.79012e-06
-1.21918e-05
1.04738e-06
-4.67836e-06
1.56661e-05
3.55638e-06
7.97203e-06
5.84193e-06
3.9336e-05
-1.39479e-05
6.98013e-05
-5.28939e-05
-5.03344e-06
-2.30479e-05
-9.49686e-06
-9.1728e-06
-2.10218e-05
-6.44282e-06
-4.8279e-05
-2.23203e-06
-1.86031e-05
-1.10687e-06
-1.73266e-05
6.65501e-06
-3.9306e-05
9.82526e-06
-8.94158e-06
1.37662e-06
1.91374e-05
3.60411e-06
7.92809e-06
1.10477e-05
-1.34448e-05
1.92038e-05
-1.35097e-05
1.64561e-05
1.29812e-05
4.80289e-05
1.85947e-05
-4.26975e-06
1.94388e-05
-4.44107e-05
3.4511e-05
-3.97613e-06
3.49804e-05
-9.25946e-06
2.70691e-05
8.95862e-06
1.28093e-06
4.14543e-05
-3.12669e-06
1.23797e-05
1.27546e-05
2.34547e-05
2.99496e-05
5.26064e-05
-4.07523e-06
2.89914e-05
-9.36579e-06
-4.2063e-06
-6.86758e-06
-2.352e-05
-8.37968e-06
-4.67669e-05
-7.0686e-06
-1.99142e-05
6.53613e-07
-2.50488e-05
1.25135e-06
-3.99038e-05
-7.79386e-07
-6.91085e-06
-8.22886e-06
2.65869e-05
-5.62075e-06
5.31997e-06
2.87468e-06
-2.19403e-05
1.32873e-05
-2.39223e-05
2.12339e-05
5.03468e-06
6.92628e-05
-6.53635e-05
6.53635e-05
-8.28113e-05
1.74478e-05
-0.000104351
2.15393e-05
-0.000121477
1.7126e-05
-0.000114599
-6.87754e-06
-0.000114
-5.9864e-07
-0.000116287
2.28642e-06
-7.3898e-05
-4.23889e-05
-6.82918e-05
-5.60618e-06
-5.71197e-05
-1.11721e-05
-5.79693e-05
8.49638e-07
-0.000111941
5.39718e-05
-0.000118162
6.22089e-06
-0.000126201
8.03918e-06
-0.000139765
1.35635e-05
-0.000124173
-1.55912e-05
-7.06199e-05
-5.35535e-05
-7.6278e-05
5.6581e-06
-7.6278e-05
-3.10931e-05
9.64566e-05
-7.72606e-05
6.36154e-05
-9.47489e-05
3.90276e-05
-6.48627e-05
-1.27602e-05
-0.000104711
3.2971e-05
-0.000106837
1.52739e-06
-6.87841e-05
-3.57667e-05
-7.53432e-05
-3.58298e-05
-7.19916e-05
-8.95774e-06
-0.000114476
3.13125e-05
-0.000112865
-7.61674e-07
-6.86839e-05
9.79063e-06
-0.000118392
5.5929e-05
-0.000115178
4.82513e-06
-7.34103e-05
-2.82043e-05
-9.59652e-05
6.96371e-06
-9.35298e-05
-5.59888e-05
-5.61314e-05
-3.17404e-05
-0.000132409
-3.22458e-05
0.000128702
-4.49616e-05
7.63312e-05
-3.47247e-05
2.87907e-05
-5.60444e-05
8.55957e-06
-9.86011e-05
7.55277e-05
-9.93722e-05
2.29846e-06
-0.000113693
-2.14458e-05
-0.000125322
-2.42007e-05
-0.000120001
-1.42791e-05
-0.000112919
2.42303e-05
-0.000110901
-2.77951e-06
-0.000113597
1.24868e-05
-0.000111957
5.42891e-05
-0.000107064
-6.79003e-08
-0.000108984
-2.62847e-05
-9.61464e-05
-5.87343e-06
-7.16429e-05
-8.04923e-05
-2.50974e-05
-7.82859e-05
-0.000157507
-2.81207e-05
0.000156823
-5.22106e-05
0.000100421
-7.51395e-05
5.17195e-05
-0.000101716
3.51356e-05
-5.46132e-05
2.84254e-05
-0.00010435
5.20356e-05
-0.000109475
-1.6321e-05
-6.3196e-05
-7.04798e-05
-0.000104005
2.65302e-05
-5.45626e-05
-2.52125e-05
-9.06622e-05
3.33201e-05
-9.48445e-05
1.66691e-05
-5.59723e-05
1.54168e-05
-9.06368e-05
3.45966e-05
-8.70543e-05
-2.98672e-05
-4.3665e-05
-4.92628e-05
-3.26892e-05
-9.14681e-05
-1.71308e-05
-9.38443e-05
-0.000174638
-2.65695e-05
0.000183393
-4.83708e-05
0.000122222
-6.34409e-05
6.67896e-05
-4.57747e-05
1.74694e-05
-8.00083e-05
6.2659e-05
-7.17124e-05
4.37397e-05
-3.79643e-05
-5.00691e-05
-8.40517e-05
-2.43925e-05
-4.9175e-05
-8.34645e-06
-7.80353e-05
3.64777e-06
-5.80698e-05
1.33546e-05
-5.83455e-05
1.69448e-05
-8.0736e-05
3.78074e-05
-3.80175e-05
-8.1219e-06
-4.30466e-05
-2.48381e-05
-3.19111e-05
-6.03982e-05
-3.44695e-05
-8.89098e-05
-7.05404e-06
-0.00012126
-0.000181692
-2.45074e-05
0.0002079
-3.57906e-05
0.000133506
-3.83805e-05
6.93796e-05
-4.91894e-05
2.82783e-05
-3.48276e-05
4.82971e-05
-1.24992e-05
2.14113e-05
-1.07907e-05
-5.17776e-05
-9.36839e-06
-2.58149e-05
-2.56094e-05
7.8946e-06
-2.63861e-05
4.42446e-06
-3.97384e-05
2.67068e-05
-2.9335e-05
6.54144e-06
-1.45418e-05
2.30141e-05
-9.87607e-06
-1.27876e-05
-1.35911e-05
-2.1123e-05
-2.48463e-06
-7.15047e-05
-1.64576e-05
-7.49368e-05
3.84587e-06
-0.000141563
-0.000177846
-4.45103e-05
0.00025241
-1.88704e-05
0.000107866
-1.8039e-05
6.85482e-05
-7.65257e-06
1.78919e-05
-2.90961e-06
4.35542e-05
1.22164e-05
6.28528e-06
8.47666e-06
-4.80378e-05
2.09348e-05
-3.8273e-05
1.6391e-06
2.71903e-05
-1.33172e-05
1.93807e-05
-1.04245e-05
2.38141e-05
-2.02561e-05
1.63731e-05
2.29036e-06
4.67676e-07
1.21068e-05
-2.26041e-05
2.34816e-05
-3.24978e-05
1.44042e-05
-6.24274e-05
1.34445e-06
-6.1877e-05
8.18356e-06
-0.000148402
-0.000169662
-6.04888e-05
0.000312899
-4.45044e-05
9.18814e-05
-9.88502e-06
3.39289e-05
-9.01136e-06
1.70183e-05
4.98326e-06
2.95595e-05
9.9722e-06
1.29634e-06
1.84902e-05
-5.65558e-05
2.56015e-05
-4.53843e-05
1.44481e-05
3.83437e-05
7.25245e-07
3.31036e-05
1.27151e-06
2.32679e-05
-7.39939e-08
1.77186e-05
3.2301e-06
-2.83642e-06
1.55659e-05
-3.49399e-05
3.95844e-05
-5.65162e-05
2.31906e-05
-4.60336e-05
1.97707e-05
-5.84572e-05
1.59151e-05
-0.000144547
-0.000153747
3.69347e-06
-7.96323e-06
3.37393e-05
-7.44566e-05
3.27421e-05
-2.97894e-06
-6.34988e-06
2.98326e-05
-1.93964e-05
2.20051e-05
-9.38e-06
3.14379e-05
-1.78809e-05
2.08805e-05
-2.14945e-05
2.70683e-05
-1.09302e-05
4.20421e-05
-5.83869e-05
7.64481e-05
-3.05093e-05
-3.20839e-05
-6.69442e-06
-4.73349e-05
3.75518e-06
-5.72165e-05
-1.48432e-07
-1.60105e-05
-2.66769e-06
-2.25295e-05
-2.26016e-05
-1.99699e-05
-3.03388e-05
8.26418e-07
-2.40202e-05
2.02682e-05
-2.05245e-05
1.82428e-06
-3.42994e-05
-8.16528e-06
-4.00002e-05
-1.82215e-05
-7.9929e-05
4.49634e-05
5.59764e-05
-6.66425e-05
-9.99335e-06
2.03012e-06
-1.94671e-06
-8.25032e-05
-1.75565e-05
1.26308e-05
-3.81143e-05
5.03903e-05
-2.58448e-05
9.73563e-06
-1.10211e-05
1.66142e-05
6.74774e-07
9.18467e-06
1.8045e-05
9.69808e-06
7.59332e-06
5.24938e-05
2.61116e-05
5.79297e-05
2.64897e-05
-3.24619e-05
7.44092e-06
-2.82861e-05
4.93552e-05
-9.91307e-05
1.05476e-05
2.2797e-05
-3.10984e-05
1.91165e-05
-4.74881e-05
-3.58019e-06
-5.23997e-05
5.73803e-06
-7.16506e-05
3.95191e-05
-0.000100106
3.02798e-05
-0.000114317
6.04539e-06
-0.000138139
5.60092e-06
-0.000110167
1.69914e-05
0.000103596
-0.000157787
1.2056e-05
-1.00259e-05
-4.23715e-05
-2.80756e-05
-5.41523e-05
2.44116e-05
-6.35913e-05
5.98293e-05
-2.35063e-05
-3.03494e-05
-1.0225e-05
3.333e-06
-6.0664e-06
5.02602e-06
-2.06337e-05
2.42654e-05
1.62968e-05
1.55632e-05
6.12098e-05
1.30168e-05
4.9405e-05
-2.06572e-05
1.18348e-05
9.28413e-06
-6.28723e-06
-8.10088e-05
-3.88772e-06
2.03975e-05
9.66455e-06
5.56425e-06
-4.3059e-05
4.91434e-05
-8.80368e-05
5.07158e-05
-0.000111698
6.31808e-05
-0.000136435
5.50159e-05
-0.000145527
1.51374e-05
-0.000162366
2.24398e-05
-0.0001821
3.67257e-05
8.74304e-05
-0.000165934
-5.65671e-05
4.65412e-05
-6.99067e-05
-1.47361e-05
-6.36862e-05
1.81911e-05
-3.84762e-05
3.46193e-05
-2.60744e-05
-4.27512e-05
-1.56807e-05
-7.06069e-06
-5.57067e-05
4.50521e-05
-4.81509e-05
1.67095e-05
-2.31114e-05
-9.47629e-06
3.1095e-05
-4.11895e-05
6.47424e-05
-5.43046e-05
1.26965e-05
6.133e-05
-5.47906e-06
-6.28332e-05
-8.81839e-06
2.37368e-05
8.44346e-06
-1.16976e-05
-5.66475e-06
6.32516e-05
-4.20008e-05
8.70518e-05
-4.88141e-05
6.99942e-05
-7.13789e-05
7.75807e-05
-0.0001165
6.02587e-05
-0.000127482
3.34215e-05
-0.00016347
7.27136e-05
1.77702e-05
-9.38095e-05
-1.38603e-05
6.04015e-05
-3.02184e-05
1.62199e-06
-4.25978e-06
-7.76745e-06
3.17795e-05
-1.41999e-06
4.53255e-06
-1.55042e-05
-1.88429e-06
-6.43849e-07
2.43239e-05
1.88439e-05
2.9517e-05
1.15163e-05
4.49881e-05
-2.49473e-05
8.13055e-05
-7.7507e-05
6.04693e-06
2.09541e-05
-5.74379e-05
0.000124815
-0.000112311
-7.95983e-06
-4.27742e-05
-4.58002e-05
-4.37651e-05
-1.07067e-05
-1.53543e-05
3.48407e-05
-1.92362e-05
9.09337e-05
-4.46575e-05
9.54155e-05
-3.75239e-05
7.04471e-05
-3.67691e-05
5.95039e-05
-9.67981e-05
9.34504e-05
-8.5942e-05
6.18575e-05
2.68367e-05
-9.50086e-05
8.7362e-07
5.95279e-05
-1.04276e-05
1.29232e-05
-1.17103e-05
-6.48468e-06
-5.80497e-06
-7.32535e-06
-1.71417e-05
-4.16754e-06
-2.10657e-05
3.28019e-06
-2.07492e-05
1.85274e-05
-2.38782e-06
-6.84502e-06
-7.25139e-06
-2.00838e-05
-3.85143e-05
-4.6244e-05
-3.02446e-05
1.26843e-05
2.56404e-05
6.89299e-05
-2.08829e-05
3.85635e-05
-3.51344e-05
-3.15487e-05
-3.91035e-05
-6.73768e-06
-3.32989e-05
2.90362e-05
-2.48964e-05
8.25312e-05
-3.81611e-05
0.00010868
-5.63364e-05
8.86223e-05
-6.99372e-05
7.31048e-05
-8.22426e-05
0.000105756
-8.98347e-05
6.94496e-05
-2.49814e-06
-6.04998e-05
-6.95325e-06
6.64811e-05
-1.15191e-05
1.7489e-05
-1.3819e-05
-4.18473e-06
-1.64954e-05
-4.64899e-06
-1.5208e-05
-5.45495e-06
-6.77622e-06
-5.15157e-06
-2.0903e-05
3.26542e-05
-2.64737e-05
-1.2744e-06
-8.57209e-06
-3.79854e-05
-3.44448e-05
-2.03713e-05
-2.85462e-05
6.78573e-06
-9.12228e-06
4.95059e-05
-1.32757e-05
4.27169e-05
-4.68401e-05
2.01561e-06
-8.16376e-05
2.80599e-05
-9.09926e-05
3.83911e-05
-7.52348e-05
6.67734e-05
-7.40204e-05
0.000107466
-5.76885e-05
7.22904e-05
-8.73231e-05
0.000102739
-7.42046e-05
9.26374e-05
-3.26283e-05
2.78733e-05
-2.27291e-05
-1.23973e-05
-1.18607e-05
7.83418e-05
-3.23513e-05
3.79797e-05
-2.8489e-05
-8.04703e-06
-1.97536e-05
-1.33844e-05
-2.01329e-05
-5.07569e-06
-1.03103e-05
-1.49741e-05
2.78494e-06
1.9559e-05
-1.26522e-05
1.41627e-05
-3.86322e-05
-1.20053e-05
-7.3573e-05
1.45695e-05
-8.76319e-05
2.08446e-05
-7.84405e-05
4.03146e-05
-0.000107315
7.1591e-05
-0.000149858
4.45592e-05
-0.000163303
4.15051e-05
-0.000163711
3.87989e-05
-0.00016384
6.69019e-05
-0.000105973
4.95998e-05
-0.000165362
0.000131679
-0.00012828
6.56575e-05
-9.69195e-05
6.12773e-05
-7.91414e-05
1.00952e-05
-1.2576e-05
-8.92945e-05
9.96712e-06
6.83747e-05
2.9175e-06
4.50293e-05
-1.23122e-05
7.18262e-06
-2.30982e-05
-2.59837e-06
-1.70641e-05
-1.11098e-05
-2.29409e-05
-9.09733e-06
-3.43651e-05
3.09832e-05
-9.03318e-05
7.01295e-05
-0.00015729
5.49526e-05
-0.000225878
8.31574e-05
-0.000243784
3.87514e-05
-0.000247085
4.36155e-05
-0.000233767
5.82734e-05
-0.000230481
4.12725e-05
-0.000259302
7.03261e-05
-0.000299618
7.91155e-05
-0.000314317
8.16008e-05
-0.000355208
9.04907e-05
-0.000295979
7.24496e-05
-0.000255457
2.5135e-05
-0.000195751
1.57157e-06
-0.000178992
-6.66442e-06
-2.34998e-05
-0.000168068
-1.53406e-05
8.37152e-05
-1.19497e-05
4.16383e-05
-1.53825e-05
1.06155e-05
-1.70816e-05
-8.99354e-07
-3.70514e-05
8.86001e-06
-4.6942e-05
7.93288e-07
-8.12852e-05
6.53263e-05
-0.00010266
9.15048e-05
-0.000144345
9.6637e-05
-0.000162751
0.000101564
-0.000187943
6.39429e-05
-0.000176579
3.22514e-05
-0.000186451
6.81459e-05
-0.000287948
0.000142769
-0.00034626
0.000128638
-0.000374716
0.000107572
-0.000345794
5.26787e-05
-0.000324922
6.96185e-05
-0.000315642
6.31694e-05
-0.000294081
3.5749e-06
-0.000266389
-2.61207e-05
-0.000256166
-1.68873e-05
-3.42093e-05
-0.000245457
-5.23334e-06
8.89486e-05
-2.29411e-05
5.93461e-05
-1.98366e-05
7.51096e-06
-2.34205e-05
2.68452e-06
-3.98674e-05
2.53069e-05
-8.63742e-05
4.73001e-05
-0.000102477
8.1429e-05
-0.000195641
0.000184669
-0.000256839
0.000157835
-0.000249124
9.38485e-05
-0.000260062
7.48819e-05
-0.000350161
0.000122349
-0.000383778
0.000101764
-0.000339964
9.8955e-05
-0.000258662
4.73362e-05
-0.000214924
6.38338e-05
-0.000274078
0.000111832
-0.000257307
5.28473e-05
-0.000198335
4.19805e-06
-0.000207799
1.30384e-05
-0.00028291
4.89902e-05
-0.000301577
1.78031e-06
-1.67252e-05
-0.000319061
-4.8319e-06
9.37805e-05
-1.66462e-05
7.11603e-05
-3.44388e-05
2.53035e-05
-8.08019e-05
4.90476e-05
-0.000143882
8.83867e-05
-0.000193008
9.64259e-05
-0.00024649
0.000134911
-0.000299235
0.000237414
-0.000281243
0.000139844
-0.000215618
2.82229e-05
-0.000180769
4.00328e-05
-0.000120951
6.25312e-05
-8.73694e-05
6.81822e-05
-0.000169807
0.000181393
-0.000227098
0.000104627
-0.000231652
6.83874e-05
-0.000227176
0.000107357
-0.000236959
6.26296e-05
-0.000260749
2.79884e-05
-0.000270594
2.28832e-05
-0.000255681
3.40777e-05
-0.000273683
1.97824e-05
1.21457e-06
-0.000291624
-4.08374e-06
9.78642e-05
-3.24715e-05
9.95481e-05
-9.18657e-05
8.46977e-05
-0.000137432
9.46143e-05
-0.000175109
0.000126063
-0.000178723
0.000100041
-0.000266874
0.000223061
-0.000155511
0.000126051
-0.000128865
0.000113198
-0.000218179
0.000117536
-0.000298817
0.000120671
-0.000343792
0.000107506
-0.000364925
8.93153e-05
-0.000237876
5.43435e-05
-0.000197047
6.37984e-05
-0.000267392
0.000138732
-0.000249381
8.93467e-05
-0.00022417
3.74185e-05
-0.000204322
8.14032e-06
-0.00019955
1.8112e-05
-0.000229837
6.43647e-05
-0.000313961
0.000103905
5.05775e-05
-0.000363324
-1.19493e-06
9.90591e-05
-3.54168e-05
0.00013377
-8.40549e-05
0.000133336
-0.000138242
0.000148801
-0.000107526
9.53475e-05
-0.000247623
0.000240137
-0.000277317
0.000252756
-0.00036448
0.000213214
-0.000345734
9.44517e-05
-0.000376997
0.0001488
-0.000396894
0.000140569
-0.00037752
8.81322e-05
-0.00035374
6.55352e-05
-0.000338778
3.93814e-05
-0.000310283
3.5303e-05
-0.000185136
1.35853e-05
-0.000133491
3.77018e-05
-0.000172941
7.68686e-05
-0.000189028
2.42286e-05
-0.000242565
7.16501e-05
-0.000295216
0.000117015
-0.000375705
0.000184393
0.000181486
-0.000506616
-2.72782e-06
0.000101787
-2.104e-05
0.000152082
-5.31976e-05
0.000165493
-9.77164e-05
0.00019332
-0.000273609
0.000271241
-0.000329495
0.000296022
-0.000341148
0.000264409
-0.000370605
0.000242671
-0.000377349
0.000101197
-0.000379796
0.000151246
-0.000367415
0.000128187
-0.000338777
5.94944e-05
-0.000303608
3.0366e-05
-0.000300756
3.653e-05
-0.000291518
2.6065e-05
-0.000303196
2.52636e-05
-0.00034332
7.78261e-05
-0.000346055
7.96043e-05
-0.000530972
0.000209148
-0.000628913
0.000169591
-0.000626201
0.000114303
-0.00063036
0.000188551
0.00015068
-0.000599557
-1.27783e-05
0.000114565
-5.25388e-05
0.000191843
-9.33644e-05
0.000206319
-0.000156939
0.000256894
-0.000160453
0.000274755
-0.000199718
0.000335287
-0.000295392
0.000360083
-0.000195885
0.000143164
-0.000363051
0.000268362
-0.000343727
0.000131922
-0.000238501
2.29618e-05
-0.00022461
4.56035e-05
-0.00029382
9.95753e-05
-0.000318964
6.16739e-05
-0.000334591
4.16927e-05
-0.000358422
4.90949e-05
-0.000365117
8.45225e-05
-0.000446572
0.000161061
-0.000375794
0.00013837
-0.000378581
0.000172378
-0.000432822
0.000168544
-0.000425923
0.000181651
4.94013e-05
-0.000324642
-1.39242e-05
0.000128489
-3.53582e-05
0.000213277
-6.78459e-05
0.000238807
-8.39447e-05
0.000272994
-0.000109904
0.000300714
-0.000133422
0.000358805
-0.000139825
0.000366487
-0.000286255
0.000289593
-0.000172216
0.000154323
-0.000231419
0.000191125
-0.00027469
6.62324e-05
-0.000305914
7.68273e-05
-0.000269253
6.29144e-05
-0.000243657
3.60774e-05
-0.00024015
3.81859e-05
-0.000248369
5.73141e-05
-0.000271237
0.000107391
-0.000178824
6.86501e-05
-0.000240211
0.000199757
-0.000264816
0.000196983
-0.000417319
0.000321046
-0.000451772
0.000216103
4.06482e-05
-0.00044302
-1.56562e-05
0.000144146
-2.58816e-05
0.000223502
-4.21682e-05
0.000255094
-6.65029e-05
0.000297328
-5.94102e-05
0.000293622
-8.14669e-05
0.000380862
-0.000140004
0.000425024
-6.37283e-05
0.000213317
-8.45891e-05
0.000175184
-0.000120391
0.000226927
-0.000173121
0.000118962
-0.00011894
2.26465e-05
-0.000129834
7.3808e-05
-0.000120661
2.69044e-05
-0.000122156
3.96803e-05
-0.000126864
6.20225e-05
-6.99666e-05
5.04928e-05
-0.000110527
0.000109211
-0.000158706
0.000247937
-0.0003417
0.000379977
-0.000367696
0.000347042
-0.000400061
0.000248468
4.18032e-05
-0.000401217
-3.10107e-05
0.000175156
9.01285e-06
0.000183479
-4.57328e-06
0.00026868
-3.64266e-05
0.000329182
3.53342e-05
0.000221861
4.17854e-05
0.000374411
5.24684e-05
0.000414341
9.09883e-05
0.000174797
-1.7834e-06
0.000267955
-1.38621e-05
0.000239005
2.34921e-06
0.000102751
-1.03386e-06
2.60293e-05
9.85124e-07
7.17889e-05
8.16429e-09
2.78812e-05
-6.67434e-06
4.63626e-05
-1.91383e-05
7.44864e-05
-9.1898e-05
0.000123252
-0.000157153
0.000174466
-0.000173517
0.000264301
-0.000170145
0.000376605
-0.000174293
0.000351189
-0.000154216
0.000228391
7.4555e-05
-0.000186968
-1.35169e-05
0.000188673
-2.5457e-05
0.000195419
3.64118e-05
0.000206811
3.67446e-05
0.000328849
2.72957e-05
0.00023131
5.54706e-05
0.000346236
0.000152333
0.000317479
8.30378e-05
0.000244092
0.0001426
0.000208393
0.000164038
0.000217567
0.000156237
0.000110552
7.07942e-05
0.000111472
8.26851e-05
5.98981e-05
6.39145e-05
4.66518e-05
1.18114e-05
9.84656e-05
2.42165e-06
8.38763e-05
-2.00964e-05
0.000145771
-5.2594e-05
0.000206964
3.6082e-05
0.000175625
4.90094e-05
0.000363678
4.93346e-05
0.000350863
4.7624e-05
0.000230101
6.84955e-05
5.36828e-05
4.51507e-06
0.000184158
1.3347e-05
0.000186587
1.90944e-05
0.000201064
5.62531e-05
0.000291691
9.47504e-06
0.000278088
4.21231e-05
0.000313587
8.98792e-05
0.000269723
0.00013933
0.000194641
0.000145844
0.000201879
0.000226334
0.000137076
0.000146268
0.000190618
0.000174184
8.35557e-05
0.000143752
9.03297e-05
6.6272e-05
0.000124132
6.24905e-05
0.000102247
7.75653e-05
6.88015e-05
6.37977e-05
0.000159538
6.75682e-05
0.000203194
9.24844e-05
0.000150709
0.000118559
0.000337603
0.000302547
0.000166875
0.000404385
0.000128262
8.04727e-05
0.000392407
1.11252e-05
0.000173033
1.13398e-05
0.000186372
1.7645e-05
0.000194759
1.39184e-05
0.000295417
1.81676e-05
0.000273839
3.28724e-05
0.000298883
0.000123638
0.000178957
8.37194e-05
0.00023456
0.000156697
0.000128901
0.000140026
0.000153747
0.000120136
0.000210508
0.000102564
0.000101128
8.35266e-05
0.000109367
0.000105551
0.000102108
9.52083e-05
0.00011259
6.98085e-05
9.42015e-05
0.000139605
8.97419e-05
0.000141067
0.000201732
0.000180284
0.000111492
0.000270897
0.000246991
0.000340472
9.72993e-05
0.000391167
7.75665e-05
5.99792e-05
0.00041166
4.53726e-05
0.00012766
-1.40276e-06
0.000233148
-3.81072e-05
0.000231463
-5.88272e-07
0.000257898
9.91429e-06
0.000263336
5.6819e-05
0.000251978
5.02809e-05
0.000185496
0.000144363
0.000140478
0.000149162
0.000124102
0.000174473
0.000128436
0.000179136
0.000205845
0.000106989
0.000173275
8.52934e-05
0.000131063
0.000133681
5.37203e-05
0.000128832
0.000117439
7.71547e-05
0.000145878
9.124e-05
7.56567e-05
0.000146219
0.000146753
0.000102423
0.000155288
0.000199778
0.000149636
0.000192668
0.00010441
0.000214625
5.56093e-05
-7.55623e-06
0.00028216
1.43556e-06
0.000126225
4.64846e-06
0.000229935
9.49402e-06
0.000226617
1.24197e-05
0.000254972
1.84361e-05
0.00025732
0.000117455
0.000152959
4.36449e-05
0.000259305
7.48273e-05
0.000109295
7.77516e-05
0.000121178
0.000120106
8.60815e-05
0.000144459
0.000181492
0.000135707
0.000182027
0.000126511
0.000140259
9.52988e-05
8.49326e-05
8.16137e-05
0.000131125
0.000130935
9.65569e-05
8.18354e-05
0.000124757
0.000120533
0.000108056
0.000139201
0.00013662
0.000137655
0.000151183
0.00017243
6.96343e-05
0.000179112
4.89278e-05
-7.18297e-07
0.000172274
-3.63433e-06
0.000129859
5.38622e-06
0.000220914
1.01117e-05
0.000221892
2.05522e-05
0.000244532
4.0542e-05
0.00023733
4.29556e-05
0.000150546
8.35936e-05
0.000218667
8.20464e-05
0.000110843
8.80104e-05
0.000115214
7.50219e-05
9.90701e-05
8.13017e-05
0.000175212
0.000113367
0.000149962
0.000120574
0.000133052
0.00012697
7.85365e-05
0.000117598
0.000140496
9.45028e-05
0.000119652
8.87475e-05
0.000130512
0.000146421
5.03825e-05
0.000166852
0.000116188
0.000209806
0.000108229
0.000238047
4.13935e-05
0.00023642
5.05554e-05
1.44662e-05
0.000221236
-3.2626e-05
0.000162485
-4.3281e-06
0.000192616
8.44082e-06
0.000209123
2.5584e-05
0.000227389
6.38725e-05
0.000199041
2.11021e-05
0.000193316
5.95129e-05
0.000180256
5.4979e-05
0.000115376
8.653e-05
8.3663e-05
0.000100921
8.46786e-05
0.00011006
0.000166074
0.000116331
0.000143691
0.000124462
0.000124921
6.87073e-05
0.000134291
9.58248e-05
0.000113379
0.000140541
7.49361e-05
0.000143658
0.000127395
9.54373e-05
9.86032e-05
0.000153964
5.76614e-05
0.00017688
8.53135e-05
0.000138719
7.95544e-05
0.000185121
4.15307e-06
3.1046e-05
0.000168541
1.4698e-07
0.000162338
5.67307e-06
0.00018709
1.63201e-05
0.000198476
3.15425e-05
0.000212166
3.35595e-05
0.000197024
6.83232e-05
0.000158552
8.70332e-05
0.000161546
3.79757e-05
0.000164434
5.9465e-05
6.21737e-05
7.87362e-05
6.54075e-05
8.62001e-05
0.00015861
8.87108e-05
0.00014118
7.2331e-05
0.0001413
0.000129208
7.74137e-05
0.000131159
0.000111428
8.15765e-05
0.000124519
0.000117383
9.15885e-05
0.000126154
8.98324e-05
0.000105452
7.83635e-05
0.000170841
1.99243e-05
0.000178721
7.16744e-05
0.000124518
5.83562e-05
-8.0704e-07
0.000156371
-7.59829e-07
0.000163098
5.16955e-06
0.00018116
1.66932e-05
0.000186952
3.2583e-05
0.000196276
4.34287e-05
0.000186179
3.73251e-05
0.000164656
3.98857e-05
0.000158986
6.40756e-05
0.000140244
5.07296e-05
7.55197e-05
5.86735e-05
5.74636e-05
8.19807e-05
0.000135302
9.68246e-05
0.000126337
0.00011246
0.000125665
5.73341e-05
0.000132539
0.000113844
5.49184e-05
0.000115729
0.000122633
0.000116675
9.06428e-05
0.000116618
8.98896e-05
0.000146719
4.82616e-05
0.000110711
5.59322e-05
0.000113186
6.91994e-05
0.000160505
1.1038e-05
7.54756e-06
0.00015215
4.25796e-08
0.000163055
8.70057e-06
0.000172502
2.02379e-05
0.000175415
3.67406e-05
0.000179774
4.6762e-05
0.000176157
5.91028e-05
0.000152315
6.51947e-05
0.000152894
6.69295e-05
0.000138509
6.85463e-05
7.3903e-05
5.85381e-05
6.74718e-05
8.27336e-05
0.000111107
9.15831e-05
0.000117487
7.59941e-05
0.000141254
0.000107915
0.000100619
6.62406e-05
9.65927e-05
9.99044e-05
8.89692e-05
0.000108503
8.20437e-05
0.000115692
8.27012e-05
0.00013077
3.31834e-05
0.0001008
8.59018e-05
0.000149171
2.0829e-05
0.000151515
8.69341e-06
1.50165e-05
0.000144046
1.76876e-06
0.000161287
1.13989e-05
0.000162872
1.94489e-05
0.000167365
3.21634e-05
0.000167059
4.28937e-05
0.000165427
5.22686e-05
0.00014294
5.99308e-05
0.000145231
6.18686e-05
0.000136571
6.13471e-05
7.44244e-05
4.29977e-05
8.58212e-05
8.64406e-05
6.7664e-05
6.67618e-05
0.000137166
9.27664e-05
0.000115249
9.06629e-05
0.000102722
6.4604e-05
0.000122652
0.000109436
4.4137e-05
0.00010856
8.29193e-05
0.000113189
7.80725e-05
8.34794e-05
6.2893e-05
0.000140695
2.86864e-05
0.000132445
2.90787e-05
9.19127e-05
4.92257e-05
-4.04065e-06
0.00011097
3.67973e-06
0.000157607
1.17325e-05
0.000154819
1.95737e-05
0.000159523
2.86533e-05
0.000157979
3.73512e-05
0.000156729
3.49124e-05
0.000145379
5.57191e-05
0.000124425
6.08067e-05
0.000131484
6.14091e-05
7.38219e-05
6.30834e-05
8.41468e-05
5.0108e-05
8.06394e-05
5.03902e-05
0.000136884
6.00084e-05
0.000105631
6.3798e-05
9.89324e-05
8.99637e-05
9.64858e-05
8.91179e-05
4.49828e-05
9.5585e-05
7.64522e-05
0.00010393
6.97279e-05
0.000108698
5.81244e-05
7.71865e-05
6.01981e-05
8.2655e-05
2.36102e-05
0.000117778
1.41028e-05
4.83705e-06
0.0001089
3.13526e-06
0.000154472
8.128e-06
0.000149827
1.67838e-05
0.000150868
2.32035e-05
0.00015156
2.53236e-05
0.000154609
2.05646e-05
0.000150138
6.27793e-05
8.22101e-05
4.95171e-05
0.000144746
5.12095e-05
7.21295e-05
7.03522e-05
6.50041e-05
3.81461e-05
0.000112845
7.28323e-05
0.000102197
8.36215e-05
9.48419e-05
9.16604e-05
9.08935e-05
9.18286e-05
9.63176e-05
9.03588e-05
4.64526e-05
9.03095e-05
7.65015e-05
9.27951e-05
6.72423e-05
7.27196e-05
7.81999e-05
0.0001136
1.93173e-05
0.000108083
2.9128e-05
0.000107905
1.42807e-05
1.01312e-05
0.00010261
5.52734e-06
0.000148944
9.67883e-06
0.000145675
1.20452e-05
0.000148501
1.72733e-05
0.000146332
2.97077e-05
0.000142175
4.23988e-05
0.000137447
5.03617e-05
7.42472e-05
5.77287e-05
0.000137379
5.94956e-05
7.03626e-05
5.64219e-05
6.80778e-05
5.82559e-05
0.000111011
6.90964e-05
9.13568e-05
5.36789e-05
0.000110259
5.6778e-05
8.77944e-05
7.78761e-05
7.52195e-05
3.89607e-05
8.5368e-05
7.87243e-05
3.67378e-05
5.51779e-05
9.07887e-05
0.000100737
3.26403e-05
6.98817e-05
5.0173e-05
8.34096e-05
1.56002e-05
8.3323e-05
1.43673e-05
1.13522e-05
8.2102e-05
7.04334e-06
0.000141901
1.19613e-05
0.000140757
1.93946e-05
0.000141068
2.6706e-05
0.00013902
3.16272e-05
0.000137253
4.14633e-05
0.000127611
5.39381e-05
6.17724e-05
7.11756e-05
0.000120141
4.6613e-05
9.49252e-05
1.00862e-05
0.000104605
5.2156e-05
6.89417e-05
4.54617e-05
9.80511e-05
6.37961e-05
9.1925e-05
4.85398e-05
0.000103051
4.92628e-05
7.44965e-05
7.51555e-05
5.94753e-05
5.11047e-05
6.07886e-05
7.64277e-05
6.54657e-05
8.44431e-05
2.46249e-05
8.76541e-05
4.6962e-05
7.73371e-05
2.59173e-05
7.77531e-05
1.39513e-05
1.0842e-05
7.82633e-05
3.44187e-06
0.000138459
9.11218e-06
0.000135087
1.41869e-05
0.000135993
1.35949e-05
0.000139612
2.65615e-05
0.000124287
2.46611e-05
0.000129511
2.5197e-05
6.12366e-05
4.10802e-05
0.000104258
3.32337e-05
0.000102772
4.95464e-05
8.82918e-05
1.68597e-05
0.000101628
5.75051e-05
5.74057e-05
4.54694e-05
0.000103961
6.29205e-05
8.55995e-05
5.85524e-05
7.88646e-05
4.47526e-05
7.32751e-05
4.97263e-05
5.58148e-05
7.54723e-05
3.97198e-05
4.68113e-05
5.32858e-05
4.50107e-05
4.87626e-05
6.3563e-05
7.36497e-06
4.68151e-05
3.06992e-05
-3.6434e-06
6.13005e-05
3.20778e-06
0.000135251
9.7551e-06
0.00012854
1.47551e-05
0.000130993
1.18911e-05
0.000142476
2.38279e-05
0.00011235
2.28738e-05
0.000130465
1.37342e-05
7.03761e-05
4.8884e-05
6.91081e-05
3.21133e-05
0.000119542
2.80949e-05
9.23102e-05
4.23488e-05
8.73745e-05
3.75946e-05
6.21599e-05
5.57466e-05
8.58086e-05
5.86986e-05
8.26475e-05
5.94125e-05
7.81506e-05
5.86891e-05
7.39985e-05
4.43623e-05
7.01415e-05
4.39939e-05
4.00882e-05
4.03181e-05
5.69615e-05
6.55171e-05
2.35636e-05
6.10046e-05
1.18774e-05
6.29468e-05
2.8757e-05
1.19908e-05
4.73126e-05
1.57432e-06
0.000133677
9.38424e-06
0.00012073
7.4305e-06
0.000132947
2.81972e-06
0.000147087
3.51684e-05
8.00013e-05
2.43491e-05
0.000141284
2.88497e-05
6.58755e-05
2.62502e-05
7.17076e-05
1.8449e-05
0.000127344
5.04383e-05
6.03208e-05
3.36166e-05
0.000104196
4.4564e-05
5.12125e-05
4.91276e-05
8.1245e-05
5.14446e-05
8.03306e-05
5.2652e-05
7.69432e-05
5.23761e-05
7.42743e-05
5.79947e-05
6.45229e-05
4.33749e-05
5.4708e-05
4.16769e-05
5.86594e-05
5.19106e-05
1.33299e-05
3.24502e-05
3.13379e-05
5.49501e-05
6.25712e-06
1.84255e-05
4.85154e-05
1.29481e-06
0.000132382
6.48831e-06
0.000115536
7.07479e-06
0.000132361
1.48293e-05
0.000139333
1.49826e-05
7.9848e-05
2.32113e-05
0.000133056
2.35272e-05
6.55596e-05
2.6655e-05
6.85798e-05
2.98654e-05
0.000124133
2.20573e-05
6.81289e-05
1.58263e-05
0.000110427