/*--------------------------------*- C++ -*----------------------------------*\
| =========                 |                                                 |
| \\      /  F ield         | foam-extend: Open Source CFD                    |
|  \\    /   O peration     | Version:     4.1                                |
|   \\  /    A nd           | Web:         http://www.foam-extend.org         |
|    \\/     M anipulation  |                                                 |
\*---------------------------------------------------------------------------*/
FoamFile
{
    version     2.0;
    format      ascii;
    class       volScalarField;
    location    "0.8";
    object      psi;
}
// * * * * * * * * * * * * * * * * * * * * * * * * * * * * * * * * * * * * * //

dimensions      [1 -1 -2 0 0 0 0];

internalField   nonuniform List<scalar> 
2268
(
-1975.71
-802.939
-2670.03
-2764.04
-2848.58
-1462.92
-1772.57
-1510.64
-2666.57
-504.522
-29.5426
-28.6151
-10.2229
-5.39374
-3.73023
-1.98447
-0.714174
-1.03874
-12.755
-56.6899
-108.839
-559.383
-1381.25
-1555.23
39.2435
-2855.73
-122.191
-2375.26
-2532.11
-2370.61
-2359.84
-2835.78
-763.997
-198.662
-132.469
-36.3508
-13.2947
-6.33652
-4.22105
-2.16626
-1.03004
-3.45986
-4.54199
-8.19645
-121.456
-663.057
-1198.45
1197.18
-2854.71
1520.15
1132.13
-1890.51
-2363.74
-2807.83
-2766.18
-2832
-396.059
-308.969
-64.6732
-19.5719
-11.1314
-9.49097
-4.06313
-1.63786
-0.97012
-1.39283
-14.6234
-86.9568
-261.282
-932.79
1731.92
-1380.16
1585.08
1911.37
-1329.62
-2357.95
-2841.26
-2833.89
2596.86
-2833.12
-665.281
-132.201
-38.6844
-37.3009
-49.206
-19.1449
-11.4257
-3.45581
-3.88763
-12.4565
-98.7672
-230.053
-1064.4
1893.03
616.483
1580.11
2606.88
-1582.87
-1877.3
-2744.28
-2801.85
898.267
-2849.05
-1053.26
-320.997
-104.808
-141.032
-214.376
-59.9102
-39.2006
-16.6691
-18.6725
-50.9632
-233.961
-282.662
-1654.64
2834.19
2434.93
2667.74
2805.35
1859.61
261.094
-2238.47
-2756.71
-2127.16
-2817.12
-1148.63
-577.452
-268.607
-379.154
-658.931
-231.544
-257.41
-120.642
-126.827
-272.012
-709.237
-642.166
2007.77
2402.56
2855.24
2834.85
2856.04
1475.5
1240.37
-895.638
-2539.91
-2837.39
-2469.34
-1205.16
-1061.16
-581.718
-762.205
-1705.6
-905.101
-1271.56
-759.36
-944.533
-884.369
-1259.62
-1656.18
2311.18
2289.27
2514.44
2714.57
2790.46
2827.83
2099.39
-1686.86
-1891.27
263.089
-2845.78
-1507.42
-1949.05
-793.457
-1065.97
-2714.29
-1768.3
-2708.02
-2077.23
-2599.33
-2501.67
-2277.9
-2737.75
-2112.24
-2139.76
-2140.55
-2140.96
-2138.53
-2129.13
-2078.26
-1985.45
-1953.44
-1680.28
-1109.2
-402.23
-167.036
-128.697
-341.139
-1021.67
-1512.51
-1642.21
-2310.52
-2096.16
-2135.38
-2139.57
-2100.05
-2020.26
-1808.32
-1595.21
-1446.08
-1297.43
-860.984
-437.186
-219.607
12.1922
-249.112
-995.699
-1906.33
-2343.93
-2500.72
-2607.26
-2046.33
-1980.06
-1830.18
-1774.15
-1537.41
-428.672
123.716
217.729
-127.867
-302.054
87.7424
-398.464
-578.988
-1357.78
-1769.45
-1921.49
-1724.47
-1979.13
-2543.17
-1956.8
-1678.58
-1467.63
-1437.49
-925.008
871.304
1869.81
2109.61
1767.31
1981.52
1372.85
162.135
-885.627
-1239.87
-1113.75
-669.004
-135.435
-862.657
-2451.65
-1822.72
-1334.17
-1048.39
-834.541
706.615
2068
2684.66
2664.4
2810.21
2850.26
2774.09
2539.06
9.50645
-644.727
463.658
1821.31
1247.39
-162.201
-2400.88
-1657.35
-862.452
-204.87
456.933
890.781
2591.62
2805.69
2741.91
2825.49
2834.53
2838.58
2717.14
2829
2563.78
2063.01
2848.11
2466.24
141.261
-2367.87
-1424.32
-140.504
992.573
2121.54
1545.06
2779.94
2695.66
2815.89
2796.52
2768.93
2726.94
2683.76
2692.82
2649.37
2822.8
2854.57
2745.99
50.517
-2355.08
-1007.78
1634.47
2397
2625.11
2109.59
2852.38
2794.72
2857.26
2856.28
2848.76
2842.55
2853.79
2815.1
2856.65
2716.55
2613.85
2196.45
-865.657
-2374.73
1441.22
2249.47
2512.36
2801.5
2622.04
1904.46
1204.03
-1482.72
708.696
-2086.64
-2779.66
-2803.98
-2436.39
-1262
-1937.63
-2359.68
-2821.77
-2458.07
-2603.95
-2842.64
-2636.32
-810.685
-22.0108
1186.11
2448.15
2852.01
2836.97
2261.54
1051.86
2517.58
-584.508
2377.61
-1120.61
1959.22
-893
1357.58
-2763.5
-2793.78
-262.728
-2290.76
-2292.15
-2622.45
-2750.53
-1717.27
78.239
939.462
739.29
2402.85
2813.1
2815.49
2680.17
1900.13
2738.17
2455.15
2470.36
1137.83
2271.26
-4.09716
1990.74
-2102.88
-2730.13
213.286
-774.424
-2235.87
-2482.74
-2340.54
-914.409
214.013
575.744
889.988
2684.32
2693.62
2721.86
2742.5
2764.68
2373.88
995.743
1313.91
2837.13
2681.68
521.708
2214.26
-653.983
1565.04
2723.46
2151.66
-877.483
-2020.42
-1768.59
-458.798
584.523
1174.89
416.603
873.852
2413.55
2647.65
2115.93
2591.13
2589.62
2848.37
2833.15
1709.54
2667.76
902.545
2842.32
2793.3
2518.27
2261.88
2814.88
1868.17
-254.285
-252.499
982.498
1611.46
2857.64
367.952
553.734
1093.57
2380.1
1014.54
1624.55
953.341
1551.45
1833.46
927.104
2819.19
-550.04
2825.5
1462.02
952.252
1081.06
2124.57
2847.26
2653.85
2565.52
2734.61
2818.17
2112.35
356.631
418.622
504.61
707.264
558.226
863.252
366.574
587.048
591.342
279.25
1237.03
2161.16
1466.92
470.885
466.873
989.45
1555.61
2106.41
2338.74
2533.4
2449.94
1844.96
1615.01
344.935
356.436
334.479
360.757
311.2
300.587
183.973
253.419
181.855
132.793
431.422
1298.49
326.756
361.579
533.839
710.981
880.166
1071.95
1246.67
1366.1
1230.31
784.816
1293.03
325.525
285.921
283.105
320.356
288.252
249.761
183.876
132.218
93.9885
108.991
204.828
257.759
254.371
316.532
342.234
336.308
342.501
393.236
502.153
525.48
636.44
679.15
774.064
269.459
184.714
180.043
187.672
129.716
121.227
149.276
111.849
61.5795
49.6098
83.0696
150.626
186.875
203.273
184.669
183.6
228.548
380.588
624.331
832.244
953.827
1014.8
1054.56
214.819
105.08
69.7873
47.6299
28.2798
39.0446
83.8703
89.2696
55.1471
58.7839
97.1231
112.386
115.799
107.078
100.048
104.504
168.942
352.355
647.619
930.733
1020.26
1039.93
1066.68
157.309
67.834
21.5031
12.8732
13.9509
40.0059
62.5194
62.1336
41.1655
44.1662
68.1093
75.5805
77.211
95.559
107.429
130.716
225.024
473.36
610.278
628.547
521.319
407.617
410.424
91.1498
43.4834
10.5331
6.26198
11.565
29.8649
41.1056
44.1639
32.9154
66.0496
165.971
236.85
269.08
283.778
386.046
417.076
388.022
463.787
369.388
218.115
142.638
124.548
171.439
38.0924
26.6049
7.05618
3.48471
6.65028
26.1619
46.8703
71.5263
144.964
287.92
377.961
412.529
420.421
426.784
420.805
380.902
315.202
242.311
74.6898
30.2254
31.3016
57.3932
107.34
12.5964
15.616
5.09773
2.85968
13.297
39.0673
81.4975
166.631
261.761
300.55
317.246
268.686
224.031
189.681
162.102
134.379
113.492
68.6099
61.1401
123.581
160.693
206.713
327.677
3.83046
7.58244
2.73469
2.24753
9.85664
33.2645
79.2033
154.206
236.492
256.492
213.685
118.629
58.4828
36.0967
28.9727
28.5049
33.3687
28.3267
32.1328
51.5352
92.408
200.154
320.348
1.27991
3.75172
1.42763
1.01329
4.76556
21.9313
62.3629
133.309
182.273
167.963
98.5822
68.2092
37.6567
26.9952
21.1726
14.3367
10.483
11.6196
18.2958
46.7048
139.759
212.954
229.634
0.448914
1.69852
0.713759
0.383722
1.54048
9.75202
37.5668
73.6284
90.1169
115.408
55.239
53.4803
31.1072
15.2202
10.7653
11.0946
5.84359
4.18788
12.8004
55.4311
138.998
182.731
139.109
0.187239
0.673106
0.363053
0.141858
0.299148
2.63361
13.7546
17.7329
26.4478
74.9656
29.5062
16.5002
17.7129
10.4095
3.86145
5.87021
3.82874
2.60216
9.37548
43.1078
112.056
149.324
140.928
0.0642801
0.198894
0.156622
0.066599
0.0453152
0.616846
4.16063
3.27245
7.10098
29.6758
15.4563
6.51952
6.67272
5.00881
2.49567
2.11187
2.25449
1.465
2.29467
15.9149
48.6576
78.9799
82.6946
0.01989
0.0540161
0.0481718
0.0291877
0.00901825
0.128019
0.878055
0.644233
1.37479
8.17185
5.0784
2.45156
2.09662
1.76657
1.12914
0.549716
0.964714
0.855662
0.488127
3.68783
11.3729
18.6085
19.7044
0.00568079
0.0127906
0.0125579
0.0106923
0.00219483
0.0229822
0.142254
0.0989359
0.237894
1.19328
1.43599
0.722932
0.679226
0.665084
0.448656
0.146674
0.306519
0.368227
0.189087
0.706713
1.32277
2.05618
2.83322
0.00139269
0.00282543
0.00299241
0.00359444
0.000509399
0.0037391
0.0148555
0.015586
0.0274183
0.154294
0.396046
0.200544
0.215336
0.18041
0.129749
0.0508363
0.0560269
0.12571
0.0576981
0.145967
0.132518
0.166861
0.245079
0.00024797
0.000732585
0.000755365
0.00101057
0.000132091
0.000499827
0.00159095
0.00171639
0.00368056
0.0172966
0.0946109
0.0636715
0.063536
0.0366103
0.0282085
0.0150953
0.0101385
0.0279533
0.0168159
0.0241094
0.0166978
0.0144059
0.0077161
4.16445e-05
0.000177412
0.000180561
0.000261879
3.61924e-05
5.05151e-05
0.000243923
0.00018821
0.000503677
0.00151264
0.0206639
0.0177874
0.0166675
0.00866791
0.00634339
0.0031674
0.00234295
0.00430096
0.00376876
0.0043575
0.00257017
0.00164271
0.000695788
8.57708e-06
3.91513e-05
4.11253e-05
6.18991e-05
9.52484e-06
6.2305e-06
3.56735e-05
2.44186e-05
6.83226e-05
0.000156318
0.00408089
0.0038988
0.00361801
0.00177234
0.00125022
0.000632681
0.000527939
0.000406539
0.000584841
0.000642939
0.000342663
0.00017731
6.33454e-05
1.50525e-06
7.28605e-06
8.65957e-06
1.31304e-05
2.23684e-06
1.01855e-06
4.62223e-06
3.48074e-06
7.05909e-06
1.48283e-05
0.000782056
0.000747512
0.000671709
0.000358738
0.000213031
8.87948e-05
9.38741e-05
6.79925e-05
5.84243e-05
7.17872e-05
5.41017e-05
1.66966e-05
6.89453e-06
2.52744e-07
1.2559e-06
1.70048e-06
2.5292e-06
4.91279e-07
1.51551e-07
6.00283e-07
6.13611e-07
5.80431e-07
1.10624e-06
0.00014068
0.000126861
0.000120297
5.37908e-05
2.84092e-05
1.57995e-05
1.26592e-05
9.13728e-06
7.46423e-06
3.43426e-06
5.53642e-06
2.57628e-06
6.04332e-07
4.06443e-08
2.00425e-07
3.08634e-07
4.41082e-07
9.9544e-08
2.11038e-08
7.91177e-08
8.87156e-08
5.43149e-08
7.4592e-08
2.04181e-05
1.77268e-05
1.78885e-05
9.4732e-06
2.54625e-06
2.28104e-06
1.62343e-06
1.24324e-06
6.76391e-07
3.02099e-07
5.31216e-07
2.1025e-07
5.93625e-08
6.4674e-09
2.91029e-08
5.17775e-08
6.99464e-08
1.78179e-08
3.20323e-09
1.03137e-08
1.21981e-08
5.28688e-09
6.0183e-09
2.31073e-06
2.17605e-06
2.59465e-06
1.27053e-06
3.36458e-07
2.36651e-07
1.72081e-07
1.45388e-07
5.53535e-08
3.5412e-08
2.49364e-08
9.61784e-09
3.7371e-09
1.30694e-09
3.62706e-09
8.31368e-09
1.05247e-08
3.16049e-09
8.29458e-10
1.5234e-09
1.91539e-09
8.42191e-10
8.7034e-10
1.46062e-07
2.76239e-07
2.96947e-07
1.43262e-07
4.58503e-08
1.43827e-08
1.66537e-08
1.50748e-08
7.10223e-09
2.48564e-09
1.68347e-09
1.04501e-09
3.61068e-10
5.19321e-10
1.46427e-10
1.62345e-09
1.84809e-09
7.93079e-10
4.70209e-10
4.86579e-10
5.72072e-10
4.26553e-10
4.4474e-10
1.05938e-08
3.24625e-08
3.0006e-08
1.53977e-08
5.44058e-09
1.3797e-09
1.76078e-09
1.71167e-09
1.025e-09
4.62023e-10
3.36513e-10
2.12821e-10
2.19188e-10
4.3201e-10
-1.54615e-10
6.79393e-10
5.83895e-10
3.97449e-10
3.9563e-10
4.60204e-10
4.79304e-10
4.78394e-10
4.54747e-10
1.43063e-09
3.11956e-09
3.01497e-09
1.71439e-09
9.26774e-10
5.50244e-10
6.14818e-10
5.82076e-10
5.07498e-10
4.05635e-10
3.46518e-10
2.14641e-10
2.68301e-10
3.62889e-10
-1.68257e-10
3.91083e-10
4.43833e-10
3.99268e-10
3.72893e-10
4.07454e-10
4.74756e-10
4.54747e-10
4.72937e-10
5.5752e-10
6.79392e-10
7.23957e-10
5.7571e-10
5.3933e-10
5.17502e-10
5.5752e-10
5.42059e-10
4.52019e-10
3.91083e-10
3.56522e-10
2.14641e-10
3.10138e-10
2.32831e-10
-2.00999e-10
3.69255e-10
4.3201e-10
3.93811e-10
3.47427e-10
4.09273e-10
4.52019e-10
4.05635e-10
4.26553e-10
4.54747e-10
4.82942e-10
5.02951e-10
4.74756e-10
4.07454e-10
3.99268e-10
4.60204e-10
4.6839e-10
4.05635e-10
3.73802e-10
3.64707e-10
2.31012e-10
3.28328e-10
1.90994e-10
-2.67392e-10
3.47427e-10
4.48381e-10
3.36513e-10
3.42879e-10
3.62888e-10
4.00178e-10
4.01997e-10
4.28372e-10
4.00178e-10
4.33829e-10
4.66571e-10
3.72893e-10
2.94676e-10
3.93811e-10
3.91083e-10
4.30191e-10
3.87445e-10
3.85626e-10
3.46517e-10
1.94632e-10
3.41061e-10
2.21007e-10
-3.065e-10
2.47383e-10
3.65617e-10
3.67436e-10
4.07454e-10
3.67436e-10
3.2469e-10
3.79259e-10
4.18368e-10
3.73802e-10
3.82897e-10
4.62023e-10
3.49246e-10
2.90129e-10
3.21052e-10
3.34694e-10
3.36513e-10
4.42014e-10
4.18368e-10
3.91992e-10
1.74623e-10
3.9563e-10
2.25555e-10
-2.57387e-10
2.77396e-10
3.28328e-10
3.69255e-10
4.44743e-10
3.36513e-10
2.55568e-10
3.52884e-10
3.56522e-10
3.72893e-10
4.09273e-10
3.87445e-10
2.53749e-10
2.5102e-10
3.39242e-10
3.64707e-10
3.49246e-10
4.07454e-10
3.61069e-10
3.9563e-10
2.60115e-10
4.12001e-10
1.82809e-10
-2.21008e-10
2.68301e-10
3.36513e-10
3.30147e-10
4.07454e-10
3.10138e-10
2.25555e-10
2.60115e-10
2.60115e-10
3.64707e-10
3.46517e-10
3.34694e-10
2.78305e-10
2.8831e-10
2.86491e-10
3.04681e-10
2.81943e-10
3.57431e-10
2.85581e-10
3.39242e-10
1.6189e-10
3.91083e-10
1.58252e-10
1.00043e-11
4.05635e-10
3.62888e-10
4.28372e-10
4.36557e-10
3.47427e-10
3.16504e-10
2.47382e-10
3.31056e-10
3.61069e-10
3.21052e-10
3.46517e-10
3.81078e-10
3.30147e-10
3.34694e-10
3.26509e-10
3.4106e-10
4.33829e-10
3.28328e-10
3.67436e-10
1.68256e-10
3.73802e-10
1.76442e-10
6.63929e-11
4.56566e-10
3.54703e-10
4.17458e-10
4.64752e-10
3.12866e-10
3.21052e-10
3.36513e-10
3.5925e-10
3.5925e-10
2.3374e-10
3.64707e-10
4.23825e-10
3.46517e-10
3.32875e-10
3.065e-10
3.91992e-10
4.09273e-10
3.44699e-10
2.67391e-10
1.80989e-10
3.10138e-10
1.48248e-10
1.78261e-10
6.06633e-10
4.28372e-10
4.38376e-10
5.50244e-10
3.5925e-10
2.63753e-10
3.52884e-10
3.12866e-10
3.67436e-10
2.80124e-10
3.065e-10
4.15639e-10
3.42879e-10
3.30147e-10
4.01997e-10
3.72893e-10
4.07454e-10
2.78305e-10
2.94676e-10
3.34694e-10
2.04636e-10
1301.21
1312.91
1233.33
1169.64
996.306
504.554
88.3083
-226.739
517.815
144.895
-364.844
-842.527
1251.13
916.169
382.46
116.9
2801.74
2851.1
2783.47
2725.8
2089.01
2097.9
2230.59
2591.95
2456.82
2616.73
2608.13
2481.22
1836.88
1991.63
1946.48
1688.29
840.66
958.639
1082.15
1197.12
1076.53
1090.34
1109.46
1135.33
1111.38
1126.5
1147.11
1166.65
467.448
515.636
542.305
561.41
222.635
236.061
244.766
255.383
165.227
208.372
263.297
327.313
462.211
537.685
607.06
660.73
423.425
455.442
482.604
536.985
147.952
115.054
104.993
104.118
47.6109
32.9323
24.5514
20.3093
75.4923
37.0493
20.8541
14.8242
66.5295
51.6173
35.3534
24.4793
16.8953
14.0924
11.3927
7.69
2.50626
2.37501
2.13965
1.63032
0.193703
0.224619
0.205632
0.157617
0.0120395
0.0126866
0.0118044
0.00953526
0.000403524
0.000385443
0.000441903
0.000508191
4.51476e-05
3.69308e-05
3.45469e-05
3.43591e-05
4.6214e-06
4.6905e-06
4.15024e-06
3.32702e-06
3.28679e-07
2.62071e-07
2.27011e-07
1.95409e-07
1.94285e-08
1.441e-08
1.24109e-08
9.48961e-09
1.48065e-09
8.86753e-10
7.44873e-10
6.7939e-10
3.31056e-10
2.37378e-10
2.11003e-10
2.31012e-10
2.81943e-10
2.19188e-10
2.41016e-10
2.51021e-10
3.9563e-10
3.22871e-10
3.10138e-10
2.65573e-10
4.18368e-10
3.9563e-10
3.89264e-10
3.16504e-10
4.23825e-10
3.22871e-10
3.00133e-10
2.24645e-10
3.065e-10
1.41881e-10
1.53705e-10
1.38243e-10
3.22871e-10
1.437e-10
9.91349e-11
5.91172e-11
3.81079e-10
1.21872e-10
8.27642e-11
-7.27599e-11
3.20142e-10
7.54877e-11
3.63798e-11
-6.36646e-12
2.61935e-10
1.28239e-10
8.91307e-11
-9.54974e-11
1.31877e-10
1.00954e-10
1.72804e-10
1.2551e-10
5.45696e-11
-1.63713e-11
1.46429e-10
3.09224e-11
977.749
2457.31
2590.82
2119.21
2366.22
2398.94
1281.71
1396.39
-712.313
1216.63
1247.31
1702.92
1429.21
913.399
77.807
-242.014
-767.89
-1548.62
-2384.54
-945.403
-2126
-1970.74
-2749.84
-2568.24
-2777.11
-2363.56
-2632.79
-2840.71
-2773.48
-2773.02
-2745.68
-2648.71
-2467.23
-2366.49
-2257.97
-2123.14
-1936.41
-2138.17
-1747.04
-2803.85
-2559.21
-1566.84
-1433.05
-780.855
1585.79
891.419
-838.164
-166.612
-650.016
564.52
-156.208
-1266.13
-2121.24
-2203.69
-2091.71
-807.921
-1352.73
177.36
-2026.71
755.271
2365.84
2166.58
2367.57
2812.25
2836.98
2848.01
2840.92
2845.88
2809.05
2085.36
559.398
852.865
1572.1
1797.55
1921.13
52.8741
2840.07
1836.09
2744.39
2805.23
2855.99
2856.92
2844.8
2558.54
1972.86
2269.08
2547.92
2812.44
2856.26
2854.3
2849.35
2838.05
2836.97
2815.04
-53.2072
2845.74
2851.39
2702.01
2530.89
2702.44
2827.11
2565.83
1796.53
1643.33
2250.74
2495.38
2619.84
2377.07
2853.1
2449.4
2792.61
2446.31
2776.25
-1082.62
2299.31
2225.15
2485.88
2446.19
2582.04
2824.06
1970.48
1534.5
2117.36
2723.98
2843.82
2849.77
2825.44
1900.43
932.434
2607.59
2763.94
2666.26
-1301.48
1678.5
2143.29
2348.54
2450.29
2595.84
2253.26
1661.72
1725.6
2540.31
2794.37
2856.8
2611.7
1751.88
733.602
53.8203
1078.02
2857.55
2614.44
-1315.34
1504.87
1810.38
2097.43
2514.43
2800.26
2790.84
1714.79
1799.31
2355.84
2481.81
2819.9
2363.16
1056.49
-34.1599
-496.609
170.718
2480.13
2432.93
-1386.7
1193.22
1377.5
1772.07
2048.34
2246.82
2253.01
2039.96
2158.76
2213.36
2314.93
2809.87
2648.75
1482.88
-76.0046
-821.582
-935.349
186.106
2166.66
-1650.73
1242.81
1379.83
1571.14
1769.14
1809.95
1662.72
1530.69
1452.32
1673.69
2519.42
2740.02
2857.24
2244.76
1018.26
-493.596
-1235.55
-1491.53
-981.45
-1975.45
591.684
689.104
992.435
1207.91
1250.07
1070.49
1139.09
2047.46
2811.92
2706.97
2474.43
2335.04
2261.18
1547.21
349.289
-745.952
-1433.84
-1729.34
-1780.32
287.697
390.649
583.49
809.427
1113.62
1389.98
1833.18
2569.99
2838.42
2400.19
2081.46
1961.6
1892.72
1620.42
599.059
-297.101
-748.763
-1216.47
-1406.4
409.319
497.545
576.793
623.938
844.343
1100.49
1561.1
2346.42
2849.33
2401.86
2149.98
2072
2037.62
1717.86
737.022
114.633
-251.92
-1067.18
-1301.95
740.21
866.856
1023.02
1169.21
1349.22
1600.76
1941.56
2450.11
2836.99
2750.1
2639.25
2774.9
2822.46
2754.24
1955.54
1423.23
917.721
-751.023
-1097.4
616.169
700.897
970.717
1210.81
1465.66
1802.63
2110.97
2473.13
2747.76
2772.11
2646.84
2446.29
2307.14
2698.28
2842.69
2576.43
2355.25
606.777
-205.337
107.733
110.477
220.116
361.221
550.024
900.982
1262.17
1474.77
1650.79
1763.19
1525.73
1483.5
1379.37
2050.32
2630.28
2842.66
2731.53
1795.92
912.338
17.4171
16.0518
26.5105
56.1206
119.965
218.032
370.188
620.052
737.358
892.29
706.228
753.194
862.869
1466.39
2217.9
2841.65
2818.3
2245.77
1397.34
10.4663
6.86154
11.5924
26.1537
58.1024
93.3448
150.328
251.849
282.17
370.808
259.966
312.73
384.295
709.07
1538.85
2776.63
2851.34
2439.13
1738.63
10.8876
3.06381
2.53797
2.68628
5.27322
14.4611
27.2167
60.701
86.4732
109.927
67.9
86.7531
80.0686
158.556
683.347
2546.22
2739.71
2696.55
2338.93
3.19959
0.834687
0.725612
0.88919
1.52431
3.29366
6.62189
8.99773
21.3623
25.9194
14.5127
17.895
14.8526
28.9115
245.137
1578.95
1638.59
2757.85
2843.36
0.656349
0.187101
0.200439
0.304917
0.43558
0.759733
1.67219
2.34304
7.12447
7.38063
3.60852
3.43733
3.12628
4.46989
17.6399
400.31
547.36
1537.49
1868.37
0.0566927
0.0241826
0.0298708
0.0594308
0.0819795
0.177121
0.46741
0.6986
1.5959
1.52926
0.929661
0.826155
1.03194
1.21242
4.24971
61.4979
128.667
577.583
889.064
0.00443792
0.00373576
0.004216
0.00864161
0.0150946
0.0331206
0.124598
0.158352
0.18637
0.245424
0.184022
0.218466
0.444608
0.523258
1.46882
8.76307
53.8445
314.297
467.817
0.000455682
0.000430227
0.00053667
0.000709249
0.00111903
0.00200238
0.00547311
0.0121962
0.024342
0.0854896
0.0438477
0.0715016
0.211141
0.29375
0.57524
3.4025
51.116
235.011
305.691
5.11784e-05
2.77499e-05
3.28135e-05
5.61863e-05
0.000116541
0.000257718
0.000857068
0.00272068
0.00434288
0.00496538
0.00642018
0.0248082
0.0859459
0.163146
0.214965
2.99674
44.4841
173.137
240.275
1.69761e-06
1.34142e-06
4.87001e-06
1.04174e-05
1.80127e-05
2.26127e-05
4.87046e-05
0.000101458
0.000203303
0.000512564
0.00180597
0.0148853
0.0479749
0.0785522
0.114471
0.500571
23.6039
100.101
208.317
1.046e-07
8.13809e-08
1.17817e-06
1.45296e-06
1.491e-06
1.88627e-06
4.46678e-06
1.58968e-05
4.44319e-05
0.000198851
0.000463859
0.00847034
0.0231178
0.0270404
0.0665172
0.462621
7.09365
38.6173
186.059
4.90487e-09
5.70888e-09
1.28253e-08
3.91388e-08
8.76194e-08
1.06921e-07
1.59942e-07
5.22574e-07
3.8241e-06
2.36392e-05
0.000126991
0.00662009
0.00939684
0.0119607
0.0553199
0.441812
2.71961
14.6129
167.723
3.18322e-10
4.43832e-10
1.32513e-09
2.21734e-09
3.2596e-09
4.60747e-09
2.23535e-08
1.75789e-07
2.70995e-06
1.19206e-05
0.000101891
0.00133017
0.00363427
0.00753704
0.0548272
0.730872
2.49541
9.37757
155.892
6.4574e-11
1.19144e-10
2.77396e-10
2.75576e-10
3.21051e-10
1.15233e-09
1.04601e-08
1.35115e-07
1.75439e-06
1.11177e-05
0.000164456
0.00105076
0.00242371
0.00635787
0.0614578
0.825816
2.83641
8.2237
148.6
7.27595e-11
1.30058e-10
1.78261e-10
1.41881e-10
2.29192e-10
2.81761e-09
1.59843e-08
1.07656e-07
3.1017e-06
2.8026e-05
0.000128688
0.00070692
0.00239083
0.00756995
0.0445504
0.731754
2.95732
7.48538
137.283
3.09227e-11
1.33696e-10
1.21872e-10
1.51886e-10
3.54702e-10
4.9922e-09
6.08497e-08
3.31713e-07
8.46987e-06
4.7734e-05
0.00025659
0.00137611
0.00301287
0.00433895
0.0354157
0.702706
2.9966
6.5588
116.517
3.81987e-11
1.51886e-10
1.36424e-10
2.27374e-10
6.8121e-10
5.18319e-09
8.18299e-08
6.51666e-07
1.40989e-05
4.81222e-05
0.000195838
0.00143015
0.000999721
0.00142195
0.0436512
0.54854
1.90374
8.32582
178.122
4.63842e-11
1.0732e-10
1.51886e-10
3.21051e-10
1.22964e-09
6.38463e-09
7.84784e-08
6.15357e-07
1.65852e-05
2.70291e-05
0.000164372
0.000728357
0.000317597
0.000421001
0.0114962
0.333438
0.858729
7.50765
110.275
-4.63844e-11
9.54969e-11
2.00998e-10
4.48381e-10
2.25555e-09
1.08985e-08
5.43522e-08
3.76653e-07
1.98287e-05
7.66134e-06
0.00010549
0.000163713
0.00010672
0.000206536
0.00477968
0.159124
0.144955
4.2423
77.4758
-3.27419e-11
1.09139e-10
2.31012e-10
5.11136e-10
1.12959e-09
1.28639e-08
3.82833e-08
2.06678e-07
1.78446e-06
6.80695e-07
3.58825e-05
1.96476e-05
7.24463e-05
0.000169085
0.00116801
0.009311
0.0165709
1.86323
51.4995
-1.36424e-11
1.21872e-10
1.28239e-10
2.25555e-10
6.31189e-10
3.99086e-09
1.68847e-08
9.80736e-08
4.2321e-08
7.54399e-08
1.36827e-05
8.95014e-06
8.64438e-05
0.000192621
0.000609024
0.00095172
0.00606371
0.260547
38.384
-2.0009e-11
1.6189e-10
3.81987e-11
1.31877e-10
3.69255e-10
1.36151e-09
4.68208e-09
8.16906e-09
6.31915e-09
4.30054e-08
3.09122e-07
5.15418e-06
0.000166057
0.000361138
0.000523233
0.000715404
0.00728263
0.0701967
27.1027
6.63931e-11
2.24645e-10
4.27462e-11
1.10049e-10
1.56433e-10
2.41016e-10
3.5743e-10
2.88307e-10
4.76563e-10
4.105e-08
2.37367e-07
5.61557e-06
0.000217159
0.000470826
0.000553638
0.000786556
0.0111811
0.0212461
17.787
3.49246e-10
3.01952e-10
-9.91351e-11
-1.05502e-10
7.7307e-11
1.41881e-10
2.27374e-10
4.54729e-12
2.29179e-10
5.34182e-08
2.75284e-07
6.54607e-06
0.000283496
0.00054328
0.000626349
0.000880914
0.0112679
0.0155409
16.499
3.2469e-10
3.18323e-10
-4.27464e-11
2.3374e-10
3.18323e-10
2.96495e-10
2.90129e-10
-3.638e-11
2.65556e-10
6.78937e-08
2.89606e-07
5.77751e-06
0.000309356
0.000569585
0.000644672
0.00096133
0.0133714
0.0153225
7.46957
)
;

boundaryField
{
    leftWall
    {
        type            zeroGradient;
    }
    rightWall
    {
        type            zeroGradient;
    }
    lowerWall
    {
        type            zeroGradient;
    }
    atmosphere
    {
        type            zeroGradient;
    }
    defaultFaces
    {
        type            empty;
    }
}


// ************************************************************************* //
