/*--------------------------------*- C++ -*----------------------------------*\
| =========                 |                                                 |
| \\      /  F ield         | foam-extend: Open Source CFD                    |
|  \\    /   O peration     | Version:     4.1                                |
|   \\  /    A nd           | Web:         http://www.foam-extend.org         |
|    \\/     M anipulation  |                                                 |
\*---------------------------------------------------------------------------*/
FoamFile
{
    version     2.0;
    format      ascii;
    class       volVectorField;
    location    "0.8";
    object      U;
}
// * * * * * * * * * * * * * * * * * * * * * * * * * * * * * * * * * * * * * //

dimensions      [0 1 -1 0 0 0 0];

internalField   nonuniform List<vector> 
2268
(
(0.0145458 -0.0427782 0)
(0.33015 0.0213639 0)
(-0.337944 0.0812541 0)
(-0.256439 -0.0668949 0)
(-0.0819533 -0.011137 0)
(-0.292145 -0.0111142 0)
(-0.0135412 -0.131125 0)
(0.171803 -0.0442028 0)
(0.185789 0.0358724 0)
(-0.120362 0.0529216 0)
(-0.107744 0.0445723 0)
(-0.153305 -0.01776 0)
(0.00448159 -0.0123222 0)
(0.0437359 -0.000543702 0)
(0.0390723 -0.002768 0)
(0.0583656 -0.00924994 0)
(0.0923767 -0.00415232 0)
(0.0815444 0.0372207 0)
(0.0343575 -0.000576647 0)
(0.0212448 -0.0167151 0)
(0.032168 -0.0215926 0)
(0.0281721 0.00747764 0)
(-0.0220465 -0.0127004 0)
(-0.106373 -0.0387411 0)
(0.259793 0.0639848 0)
(-0.131554 0.198356 0)
(-0.0845861 -0.0699679 0)
(0.115178 -0.0592487 0)
(0.0995823 0.067912 0)
(0.0803454 -0.106787 0)
(-0.0773065 -0.0379041 0)
(-0.0750275 0.0938337 0)
(-0.229782 0.0496528 0)
(-0.107309 0.042827 0)
(-0.183306 -0.0531452 0)
(-0.00117592 -0.0589745 0)
(0.0443186 -0.0221088 0)
(0.0474244 -0.0079947 0)
(0.0604272 -0.0143586 0)
(0.0914367 -0.00722592 0)
(0.0792473 0.017566 0)
(0.0780852 0.0012454 0)
(0.0957548 0.0322334 0)
(0.0584154 -0.011079 0)
(0.0441469 0.0185718 0)
(0.0515217 0.0194749 0)
(-0.171041 -0.0748208 0)
(-0.0132892 -0.0317424 0)
(-0.10704 0.231117 0)
(0.0226763 -0.143536 0)
(0.080543 -0.103791 0)
(0.107202 0.0751079 0)
(0.0901529 -0.083341 0)
(-0.222743 -0.00125617 0)
(-0.150046 0.13091 0)
(-0.194447 0.0179684 0)
(-0.0875394 0.0529721 0)
(-0.205107 -0.0955521 0)
(-0.0502267 -0.0855186 0)
(0.016024 -0.0412098 0)
(0.0213719 -0.0281938 0)
(0.0608863 -0.0273569 0)
(0.0831666 0.0231053 0)
(0.0659274 0.010683 0)
(0.0818154 0.0249026 0)
(0.0950835 0.00523077 0)
(0.0531306 -0.016021 0)
(0.0473953 0.00964302 0)
(0.0468872 0.0271685 0)
(-0.347903 0.0213017 0)
(-0.163735 0.0841073 0)
(-0.0365384 0.194374 0)
(0.162126 -0.141297 0)
(0.0653556 -0.126794 0)
(0.114352 0.0642631 0)
(0.0598606 0.007316 0)
(-0.296649 0.0204068 0)
(-0.28468 0.173666 0)
(-0.042408 -0.069307 0)
(0.122361 0.107693 0)
(-0.183125 -0.134005 0)
(-0.0872582 -0.113756 0)
(-0.0452951 -0.0599838 0)
(-0.0162609 -0.0202121 0)
(0.0291265 -0.0427004 0)
(0.0851077 0.0038736 0)
(0.0552679 0.0191434 0)
(0.0760429 0.0285073 0)
(0.0829024 -0.00773308 0)
(0.054141 0.00350991 0)
(0.0515252 0.0197325 0)
(0.045028 0.0693173 0)
(-0.37927 0.0853016 0)
(-0.129781 -0.11844 0)
(0.0660327 0.090512 0)
(0.165888 -0.139814 0)
(-0.0890121 -0.12991 0)
(-0.0131921 0.111672 0)
(0.0378319 0.0484513 0)
(-0.20149 0.0925891 0)
(-0.267068 0.165452 0)
(-0.0746721 -0.243242 0)
(0.0855458 0.131628 0)
(-0.138528 -0.0871499 0)
(-0.0733211 -0.156742 0)
(-0.0662262 -0.0496016 0)
(-0.058699 -0.0990639 0)
(-0.0025997 -0.0767187 0)
(0.0599875 -0.00638898 0)
(0.0349798 0.0187891 0)
(0.0583855 0.0427902 0)
(0.0624133 -0.0244883 0)
(0.0574997 0.00806295 0)
(0.0758583 0.017391 0)
(0.0520458 0.0647183 0)
(-0.0983205 0.110634 0)
(0.278515 -0.0792244 0)
(0.230764 0.0236975 0)
(0.221775 -0.155556 0)
(0.1323 -0.108884 0)
(0.0225731 0.0718143 0)
(0.102346 0.0996144 0)
(-0.00302448 0.136458 0)
(-0.0384482 0.129942 0)
(-0.275391 -0.202806 0)
(-0.178305 0.167049 0)
(-0.107904 -0.0289104 0)
(-0.0741922 -0.184726 0)
(-0.0776214 -0.104941 0)
(-0.0860849 -0.073592 0)
(0.017268 -0.0923368 0)
(0.0789556 -0.0175254 0)
(0.0380843 0.0753472 0)
(0.0261701 0.0377095 0)
(0.0494523 -0.0252144 0)
(0.0644084 -0.00486173 0)
(0.0796006 0.0557826 0)
(0.035731 0.158836 0)
(-0.127712 0.0478239 0)
(0.080997 -0.159067 0)
(0.202281 0.095848 0)
(0.194214 -0.0394197 0)
(-0.0718804 -0.0143987 0)
(-0.123079 0.105705 0)
(0.0484173 0.11023 0)
(0.0115267 0.172235 0)
(0.142047 0.251024 0)
(-0.373603 -0.122013 0)
(-0.479796 -0.0325536 0)
(-0.200633 -0.0243503 0)
(-0.0828048 -0.136612 0)
(-0.0202254 -0.0900849 0)
(-0.0469185 -0.0662696 0)
(0.0271813 -0.135604 0)
(0.0891408 -0.0645539 0)
(0.0502416 0.0674306 0)
(-0.00260238 0.0326336 0)
(0.0517365 -0.0674598 0)
(0.118155 -0.0754661 0)
(0.184368 0.0946465 0)
(0.0642911 0.236479 0)
(0.0181996 0.0637314 0)
(0.265187 -0.142575 0)
(0.300775 0.028269 0)
(0.245828 -0.0387088 0)
(0.294257 0.0200141 0)
(0.116995 0.111913 0)
(-0.0762658 0.0147491 0)
(0.0340402 0.103656 0)
(0.326873 0.240455 0)
(0.15091 0.0515075 0)
(-0.223669 -0.0263841 0)
(-0.061117 -0.139136 0)
(-0.0524584 -0.264631 0)
(-0.0721764 -0.0615186 0)
(-0.036141 -0.179738 0)
(0.047162 -0.143364 0)
(-0.00540838 -0.0649861 0)
(-0.0252905 0.0825599 0)
(-0.0917686 0.0205879 0)
(-0.00542984 -0.102876 0)
(0.0953622 -0.106485 0)
(0.299289 -0.0156108 0)
(0.0501438 0.167301 0)
(-0.476406 0.129076 0)
(-0.526505 0.0116794 0)
(-0.750053 0.0604878 0)
(-0.945555 0.0506446 0)
(-0.974307 -0.0530913 0)
(-0.905631 -0.01543 0)
(-0.919757 0.0261431 0)
(-1.03259 -0.14901 0)
(-1.12538 -0.0756465 0)
(-0.901035 -0.130469 0)
(-0.840199 -0.000597078 0)
(-0.888556 0.16453 0)
(-0.89869 -0.0323044 0)
(-0.990231 0.0546085 0)
(-1.13925 0.0542164 0)
(-1.08261 -0.0956646 0)
(-1.07149 -0.105714 0)
(-0.960369 0.0996399 0)
(-0.191049 -0.161086 0)
(-0.417272 0.343822 0)
(-0.512149 0.110489 0)
(-0.675989 0.0952476 0)
(-0.894916 0.0360348 0)
(-0.921267 0.0194612 0)
(-0.745054 0.0234471 0)
(-0.953415 -0.0346796 0)
(-1.07924 -0.135585 0)
(-1.1595 -0.005953 0)
(-0.958533 0.0712265 0)
(-0.884242 0.0294576 0)
(-0.99311 0.145561 0)
(-0.997799 0.132192 0)
(-0.914755 0.0673556 0)
(-1.0886 -0.00491517 0)
(-0.895779 0.0136119 0)
(-0.776643 -0.273849 0)
(-0.684213 -0.0660552 0)
(-0.177294 -0.370343 0)
(-0.534493 0.803788 0)
(-0.402307 0.31289 0)
(-0.317233 0.160215 0)
(-0.757635 -0.100491 0)
(-0.853751 0.207387 0)
(-0.721947 -0.0224096 0)
(-0.848477 -0.161049 0)
(-0.96489 -0.0977376 0)
(-0.990017 -0.0503829 0)
(-0.940086 0.125814 0)
(-0.863116 -0.0514171 0)
(-0.907301 0.0166032 0)
(-0.920517 0.221182 0)
(-0.869947 -0.0572465 0)
(-0.884115 -0.149283 0)
(-0.86336 0.000537576 0)
(-0.706819 -0.329637 0)
(-0.407328 -0.1817 0)
(0.0400982 -0.487686 0)
(-0.492684 0.891551 0)
(-0.352594 0.631143 0)
(-0.459072 0.196159 0)
(-0.768488 0.160355 0)
(-0.848797 0.260628 0)
(-0.779404 0.0630305 0)
(-0.847327 -0.133134 0)
(-0.910555 -0.237048 0)
(-0.902401 -0.00735149 0)
(-0.793713 0.00559797 0)
(-0.773623 0.049595 0)
(-0.704769 0.0704188 0)
(-0.85773 0.150708 0)
(-0.781899 0.0694492 0)
(-0.679943 -0.0861374 0)
(-0.698311 -0.0276231 0)
(-0.609318 -0.211039 0)
(-0.365492 -0.309108 0)
(0.0972547 -0.561507 0)
(-0.477953 1.12301 0)
(-0.320859 0.68199 0)
(-0.437581 0.184002 0)
(-0.622152 0.0614907 0)
(-0.697392 0.139146 0)
(-0.617611 0.25308 0)
(-0.499907 -0.0817056 0)
(-0.607756 -0.199154 0)
(-0.74282 0.123783 0)
(-0.68303 -0.11676 0)
(-0.553334 0.154596 0)
(-0.344864 0.0465933 0)
(-0.607572 0.0703731 0)
(-0.679232 0.120604 0)
(-0.443469 -0.312005 0)
(-0.229617 -0.412218 0)
(-0.288688 -0.480751 0)
(-0.240256 -0.326488 0)
(0.118881 -0.603319 0)
(-0.458709 1.21511 0)
(-0.277914 0.840275 0)
(-0.307076 0.237938 0)
(-0.333154 0.0816366 0)
(-0.42716 0.271497 0)
(-0.15659 0.295385 0)
(-0.026144 -0.265695 0)
(-0.271742 -0.11631 0)
(-0.0246609 -0.137838 0)
(-0.388971 0.113286 0)
(-0.395321 0.0283604 0)
(-0.229504 0.0763909 0)
(-0.216105 0.162261 0)
(-0.00854219 -0.160482 0)
(-0.293572 0.000326387 0)
(0.100111 -0.29427 0)
(-0.203079 -0.611273 0)
(-0.0452307 -0.463454 0)
(0.163486 -0.59369 0)
(-0.443597 1.43648 0)
(-0.291369 0.826909 0)
(-0.246003 0.253475 0)
(-0.0595958 0.106503 0)
(-0.166296 0.328704 0)
(0.0691754 -0.00425852 0)
(0.129347 -0.383895 0)
(0.13869 -0.244709 0)
(0.153139 0.183527 0)
(-0.0964105 -0.0374256 0)
(-0.151698 0.163819 0)
(-0.155349 0.0261266 0)
(-0.15546 -0.00670372 0)
(0.185688 -0.0326292 0)
(0.172188 -0.176646 0)
(0.200964 -0.197002 0)
(-0.0333569 -0.273769 0)
(0.080932 -0.477813 0)
(0.175999 -0.563598 0)
(-0.498566 1.42056 0)
(-0.47977 0.505506 0)
(-0.245631 0.179203 0)
(-0.0701355 0.116644 0)
(-0.0527199 0.245964 0)
(0.117298 0.0233572 0)
(0.195699 -0.210166 0)
(0.113763 -0.194848 0)
(0.243836 0.191265 0)
(6.58449e-05 0.126906 0)
(-0.00566925 0.146786 0)
(0.0397283 0.0805468 0)
(-0.0433034 0.0224479 0)
(0.132898 -0.104764 0)
(0.334776 -0.200009 0)
(0.273983 -0.267654 0)
(0.0649001 -0.16798 0)
(0.272726 -0.500743 0)
(0.225434 -0.52446 0)
(-0.0360869 -0.155027 0)
(0.0907598 -0.199685 0)
(0.128352 -0.0890291 0)
(0.120611 -0.016019 0)
(-0.216502 0.167897 0)
(0.0843423 0.233948 0)
(-0.161543 0.0835523 0)
(-0.101352 0.0817092 0)
(-0.0304078 0.19667 0)
(-0.133789 0.214574 0)
(-0.292757 -0.0684508 0)
(-0.125137 -0.222923 0)
(0.0467065 -0.446768 0)
(0.0052307 -0.100605 0)
(-0.00257377 -0.169125 0)
(-0.0325238 -0.132695 0)
(-0.139116 0.067473 0)
(-0.0762845 0.108099 0)
(-0.106452 -0.00218046 0)
(-0.0301403 -0.0508077 0)
(-0.227114 -0.0732532 0)
(-0.359892 0.173707 0)
(-0.17754 0.421558 0)
(-0.0398199 0.0347005 0)
(-0.0393681 -0.347157 0)
(0.00635641 0.0458419 0)
(-0.12708 0.224135 0)
(-0.160383 0.144277 0)
(-0.0202465 0.211119 0)
(-0.0560174 0.0776332 0)
(0.0571755 0.0997609 0)
(0.0820391 0.27252 0)
(-0.0324235 0.307363 0)
(0.20693 -0.158894 0)
(-0.00885032 -0.136702 0)
(0.115692 -0.378553 0)
(0.220282 -0.022059 0)
(-0.0929009 -0.0108278 0)
(-0.155929 -0.151841 0)
(-0.195105 -0.0542377 0)
(-0.198504 0.0520137 0)
(-0.334443 0.0287943 0)
(-0.414783 -0.00569387 0)
(-0.396337 -0.0407961 0)
(-0.712889 0.124691 0)
(-0.730656 0.382213 0)
(0.241041 -0.00758164 0)
(-0.166581 -0.219185 0)
(-0.146043 0.0488615 0)
(-0.249836 0.145824 0)
(-0.220248 -0.0715665 0)
(-0.102391 0.0283701 0)
(0.0276488 -0.019825 0)
(-0.0674148 0.0488777 0)
(-0.0607671 0.16261 0)
(0.181234 0.170637 0)
(0.245744 -0.098562 0)
(0.132888 -0.0790233 0)
(-0.0422041 -0.335247 0)
(-0.0610554 0.194066 0)
(0.0325102 0.154129 0)
(0.002203 0.143994 0)
(-0.321745 0.117135 0)
(-0.342221 0.225831 0)
(-0.493297 0.166351 0)
(-0.519051 0.0346834 0)
(-0.528769 0.0666598 0)
(-0.683018 0.14204 0)
(-0.669011 0.427281 0)
(-0.164906 -0.0361004 0)
(-0.248676 0.0396789 0)
(-0.25672 0.301641 0)
(-0.216661 0.276688 0)
(-0.0532256 -0.172038 0)
(-0.133522 -0.0165037 0)
(-0.0900178 0.0984483 0)
(-0.325253 0.113207 0)
(-0.340614 -0.0609058 0)
(0.187028 -0.0878469 0)
(0.252541 -0.187869 0)
(0.22486 0.141822 0)
(-0.0255265 -0.262076 0)
(-0.0679844 0.110352 0)
(0.00165422 -0.0706539 0)
(0.0246558 0.200689 0)
(-0.118008 0.250135 0)
(-0.222073 0.228924 0)
(-0.489721 0.21946 0)
(-0.495594 0.0988462 0)
(-0.378157 0.118127 0)
(-0.576783 0.157439 0)
(-0.660289 0.22926 0)
(-0.000112118 0.36932 0)
(-0.126687 -0.11933 0)
(-0.0779613 -0.0388841 0)
(0.014052 0.209942 0)
(0.202726 -0.135654 0)
(-0.122514 -0.0404302 0)
(0.117226 0.218214 0)
(0.0495003 0.130188 0)
(0.201576 -0.000521684 0)
(0.412808 -0.210472 0)
(0.132099 -0.18638 0)
(-0.0378375 0.268049 0)
(-0.426584 -0.199329 0)
(-0.414707 0.0678625 0)
(-0.210493 -0.0320244 0)
(-0.115217 0.275564 0)
(-0.110221 0.372197 0)
(-0.106449 0.281483 0)
(-0.263454 0.338849 0)
(-0.265129 0.323246 0)
(-0.247909 0.335038 0)
(-0.533322 0.341026 0)
(-0.596326 0.0534551 0)
(0.0435299 0.282463 0)
(-0.0344436 0.133294 0)
(-0.108417 -0.0237193 0)
(-0.0587086 -0.223165 0)
(-0.0229719 -0.0821478 0)
(-0.103687 0.0182698 0)
(-0.0499756 0.0564355 0)
(-0.101751 0.0245513 0)
(0.0686841 -0.185206 0)
(-0.206569 -0.311283 0)
(-0.265865 0.331487 0)
(0.0357241 0.652229 0)
(0.142118 0.160556 0)
(-0.298118 -0.33755 0)
(-0.198124 -0.0824918 0)
(-0.355031 0.213931 0)
(-0.0967944 0.306179 0)
(-0.094948 0.391016 0)
(-0.190503 0.650585 0)
(-0.238857 0.521965 0)
(-0.277441 0.366112 0)
(-0.364221 0.544074 0)
(-0.308717 0.105703 0)
(0.0454153 0.230191 0)
(-0.0812008 0.0723821 0)
(-0.0808414 -0.0326713 0)
(-0.109868 0.0965608 0)
(-0.121974 0.00551836 0)
(-0.096813 -0.00790956 0)
(-0.00203243 0.0788582 0)
(-0.162538 -0.0670068 0)
(-0.0256479 -0.109902 0)
(-0.114896 -0.0565898 0)
(-0.179617 -0.0995635 0)
(-0.0178439 0.320885 0)
(-0.0461469 0.10683 0)
(-0.162494 -0.11886 0)
(-0.224548 0.0593672 0)
(-0.373266 0.187169 0)
(-0.264702 0.298451 0)
(-0.277813 0.439485 0)
(-0.234401 0.603471 0)
(-0.268391 0.489153 0)
(-0.358045 0.409657 0)
(-0.217482 0.415953 0)
(-0.0251556 -0.115592 0)
(-0.0360453 0.25481 0)
(-0.0426912 0.0524187 0)
(-0.184322 -0.0267971 0)
(-0.217459 -0.125636 0)
(-0.0590057 -0.0475112 0)
(-0.0946922 -0.0661932 0)
(0.0162685 0.163147 0)
(-0.00942888 0.0478336 0)
(-0.0843048 -0.159168 0)
(-0.187031 -0.0578318 0)
(-0.366848 0.129857 0)
(-0.25454 0.116382 0)
(-0.290538 0.199126 0)
(-0.533458 0.149619 0)
(-0.588559 0.139581 0)
(-0.605081 0.105169 0)
(-0.563532 0.21088 0)
(-0.711299 0.3257 0)
(-0.690755 0.384588 0)
(-0.503259 0.328007 0)
(-0.426644 0.296801 0)
(-0.278149 0.00831922 0)
(-0.332128 -0.0273955 0)
(-0.0184769 0.350181 0)
(0.108337 0.254371 0)
(-0.083247 -0.0283775 0)
(-0.0839778 -0.0197028 0)
(-0.0782671 -0.0317349 0)
(-0.170911 -0.0491699 0)
(-0.165763 0.098322 0)
(-0.294713 0.140429 0)
(-0.396144 0.0887441 0)
(-0.802587 0.256763 0)
(-0.908905 0.176028 0)
(-0.95995 0.234097 0)
(-0.907784 0.313813 0)
(-0.885373 0.173055 0)
(-0.873866 0.192644 0)
(-1.03013 0.18124 0)
(-1.16354 0.287571 0)
(-1.36932 0.395987 0)
(-1.29766 0.633578 0)
(-0.957979 0.445816 0)
(-0.829212 0.151046 0)
(-0.666667 0.0480964 0)
(-0.689367 -0.0459351 0)
(-0.0778219 0.602698 0)
(-0.0254323 0.366746 0)
(-0.146971 0.0855794 0)
(-0.0725179 0.00301363 0)
(-0.0451606 -0.0411417 0)
(-0.302269 -0.0101139 0)
(-0.29983 0.175807 0)
(-0.360535 0.33259 0)
(-0.337605 0.285928 0)
(-0.946478 0.34921 0)
(-1.26877 0.113093 0)
(-1.25072 0.0959994 0)
(-1.28328 0.465331 0)
(-1.11562 0.444077 0)
(-1.21754 0.516037 0)
(-1.44139 0.366534 0)
(-1.4333 0.331707 0)
(-1.31913 0.312396 0)
(-1.26517 0.356685 0)
(-1.17517 -0.0450889 0)
(-1.09033 -0.133799 0)
(-1.00228 -0.0754853 0)
(-0.994548 -0.120809 0)
(-0.0325108 0.609554 0)
(-0.0483589 0.232592 0)
(-0.105093 0.00737842 0)
(-0.052652 -0.0124794 0)
(-0.106159 0.119747 0)
(-0.498055 0.0256378 0)
(-0.736081 0.30347 0)
(-0.719416 0.444916 0)
(-0.678308 0.497307 0)
(-1.55779 0.450513 0)
(-1.88287 0.374424 0)
(-1.49008 0.414445 0)
(-1.3993 0.510995 0)
(-1.43677 0.646479 0)
(-1.61868 0.439017 0)
(-1.81555 0.487933 0)
(-1.11948 0.38 0)
(-0.90012 0.192841 0)
(-1.25267 0.0437869 0)
(-1.54949 0.0557774 0)
(-1.21026 -0.0123528 0)
(-1.11332 -0.0549442 0)
(-1.25858 -0.123512 0)
(0.0169789 0.662684 0)
(-0.051184 0.222294 0)
(-0.0685302 0.11434 0)
(-0.180785 0.0633041 0)
(-0.430914 0.251286 0)
(-0.639659 0.336881 0)
(-0.870123 0.839647 0)
(-1.08649 0.865517 0)
(-1.05276 0.595229 0)
(-1.38846 0.190552 0)
(-1.51012 0.196536 0)
(-0.973438 0.44459 0)
(-0.67296 0.37713 0)
(-0.571243 0.746737 0)
(-0.826613 0.292789 0)
(-0.979739 0.403946 0)
(-0.882656 0.43649 0)
(-0.856365 0.174218 0)
(-0.964807 0.0434471 0)
(-1.01869 0.170636 0)
(-1.04472 0.333414 0)
(-0.95321 0.0885124 0)
(-0.969265 0.0217365 0)
(0.0210471 0.685444 0)
(-0.0506139 0.29221 0)
(-0.205516 0.237514 0)
(-0.473508 0.32009 0)
(-0.657496 0.447868 0)
(-0.569744 0.568086 0)
(-0.944552 0.976906 0)
(-1.14719 0.936339 0)
(-0.935628 0.400917 0)
(-0.75846 0.279122 0)
(-1.02135 0.391624 0)
(-1.20729 0.475247 0)
(-1.26385 0.49913 0)
(-1.52712 0.56311 0)
(-1.64749 0.506944 0)
(-1.06471 0.572603 0)
(-0.925074 0.35469 0)
(-0.895752 0.261548 0)
(-0.769685 0.124966 0)
(-0.805197 0.0545122 0)
(-0.785611 0.201391 0)
(-1.08004 0.188194 0)
(-1.48349 -0.0630618 0)
(0.026981 0.712399 0)
(-0.0429258 0.44472 0)
(-0.238625 0.421088 0)
(-0.376995 0.450116 0)
(-0.720171 0.517845 0)
(-0.787011 0.776324 0)
(-1.03475 0.871929 0)
(-1.34805 0.780186 0)
(-1.3839 0.581432 0)
(-1.42938 0.542645 0)
(-1.52615 0.524034 0)
(-1.45255 0.359417 0)
(-1.35205 0.298435 0)
(-1.31736 0.287695 0)
(-1.24705 0.404563 0)
(-1.23737 0.429013 0)
(-1.21915 0.29873 0)
(-0.695249 0.268418 0)
(-0.636352 -0.0766446 0)
(-0.863647 0.124974 0)
(-1.0697 0.299271 0)
(-1.25603 0.729142 0)
(-2.01495 0.81689 0)
(0.00795714 0.707291 0)
(-0.0490928 0.528144 0)
(-0.252121 0.55385 0)
(-0.50213 0.663369 0)
(-0.900949 0.901311 0)
(-1.12563 1.01252 0)
(-1.30567 0.981233 0)
(-1.39419 0.861909 0)
(-1.39853 0.678928 0)
(-1.44305 0.592626 0)
(-1.41364 0.537646 0)
(-1.32157 0.232267 0)
(-1.12231 0.143166 0)
(-1.09887 -0.0368997 0)
(-1.1214 -0.135249 0)
(-1.12405 -0.173902 0)
(-1.20551 0.255343 0)
(-1.61474 0.320098 0)
(-2.50919 0.534091 0)
(-2.61415 0.683629 0)
(-2.63758 0.716019 0)
(-2.5394 0.740994 0)
(-2.50195 0.450718 0)
(-0.0136786 0.752914 0)
(-0.0875437 0.61125 0)
(-0.314606 0.702312 0)
(-0.345173 0.848235 0)
(-0.945619 1.1284 0)
(-1.2688 1.26052 0)
(-1.24995 1.16373 0)
(-1.2729 0.934148 0)
(-1.37637 0.79834 0)
(-1.26454 0.502831 0)
(-1.46776 0.341541 0)
(-1.71957 0.252841 0)
(-1.25898 0.339554 0)
(-1.15251 0.308551 0)
(-1.30617 0.34664 0)
(-1.36425 0.341406 0)
(-1.30791 0.427507 0)
(-1.67107 0.782675 0)
(-2.28845 1.01075 0)
(-2.37365 0.862788 0)
(-1.89432 0.795713 0)
(-1.8027 0.771685 0)
(-2.21388 0.564168 0)
(-0.0343088 0.893547 0)
(-0.0716808 0.799428 0)
(-0.19522 0.833674 0)
(-0.3325 1.05411 0)
(-0.674908 1.14434 0)
(-0.916545 1.37714 0)
(-0.914288 1.40908 0)
(-1.04891 1.04662 0)
(-1.24754 1.05081 0)
(-1.01893 0.43297 0)
(-0.907346 0.0451677 0)
(-1.28792 0.297265 0)
(-1.12923 0.379882 0)
(-0.995307 0.19347 0)
(-0.913064 0.223633 0)
(-0.973614 0.339215 0)
(-0.940209 0.568313 0)
(-1.11088 0.582452 0)
(-1.56211 0.908079 0)
(-1.83761 1.3246 0)
(-1.48027 0.951447 0)
(-1.67436 0.683698 0)
(-1.82701 0.126211 0)
(-0.0362866 0.967643 0)
(-0.0710814 0.813422 0)
(-0.140211 0.968663 0)
(-0.167178 1.09132 0)
(-0.322931 1.10818 0)
(-0.567584 1.45638 0)
(-0.597929 1.41626 0)
(-0.531653 1.12344 0)
(-0.420594 1.14576 0)
(-0.849029 0.84175 0)
(-0.666488 0.384439 0)
(-0.843799 0.250912 0)
(-0.661717 0.178272 0)
(-0.469885 0.130142 0)
(-0.463143 0.184636 0)
(-0.479889 0.218268 0)
(-0.491509 0.345888 0)
(-0.498469 0.345722 0)
(-1.01139 0.899653 0)
(-1.27597 1.42242 0)
(-1.26497 1.24771 0)
(-1.49635 0.751803 0)
(-1.64535 -0.110546 0)
(-0.174702 1.12606 0)
(-0.0282236 0.993096 0)
(0.08188 0.99073 0)
(-0.162343 1.23082 0)
(-0.0282601 1.22075 0)
(0.258394 1.45725 0)
(-0.00158168 1.68321 0)
(0.284319 1.48908 0)
(0.256623 1.23577 0)
(-0.339018 0.867052 0)
(0.0478693 0.449957 0)
(-0.0361936 0.0749832 0)
(-0.0750872 0.339339 0)
(-0.00494292 0.0865022 0)
(-0.024 0.222563 0)
(-0.0903652 0.277175 0)
(-0.210902 0.415078 0)
(-0.489064 0.575967 0)
(-0.655095 1.05058 0)
(-0.715747 1.44653 0)
(-0.63875 1.30282 0)
(-1.00287 0.950393 0)
(-1.28513 0.227151 0)
(-0.037213 1.37124 0)
(-0.192355 1.45945 0)
(0.0757114 1.18939 0)
(0.143048 1.35161 0)
(0.138879 1.74646 0)
(0.311143 1.44634 0)
(0.448463 1.45393 0)
(0.625816 1.10993 0)
(0.580713 0.791638 0)
(0.438132 0.804005 0)
(0.621475 0.34879 0)
(0.523608 0.309902 0)
(0.421957 0.199401 0)
(0.180131 0.199998 0)
(0.183691 0.379328 0)
(-0.00322348 0.304797 0)
(-0.029391 0.549996 0)
(-0.278392 0.782219 0)
(-0.0494054 1.0803 0)
(0.284816 1.33335 0)
(0.320459 1.23162 0)
(0.290752 0.706573 0)
(0.215184 0.148517 0)
(0.054697 1.34023 0)
(0.0060395 1.35245 0)
(0.0771004 1.52725 0)
(0.239438 1.21349 0)
(0.13648 1.48471 0)
(0.064517 1.29399 0)
(0.408412 1.02827 0)
(0.607308 0.718811 0)
(0.535113 0.71292 0)
(0.654661 0.810307 0)
(1.01285 0.534086 0)
(0.924962 0.433804 0)
(0.503294 0.287116 0)
(0.513763 0.436336 0)
(0.365143 0.388915 0)
(0.198586 0.368534 0)
(0.313574 0.554449 0)
(0.179772 0.769334 0)
(0.330559 1.28091 0)
(0.612236 1.36683 0)
(0.985584 1.35198 0)
(1.24296 0.927024 0)
(1.52715 0.235758 0)
(0.0413767 1.30455 0)
(0.0463754 1.35883 0)
(0.0336154 1.44445 0)
(0.150436 1.16562 0)
(0.0752466 0.962276 0)
(0.0693516 1.16362 0)
(0.397169 1.08666 0)
(0.603683 0.774715 0)
(0.540897 0.826262 0)
(0.774297 1.02961 0)
(1.00901 0.795141 0)
(0.743516 0.279053 0)
(0.663521 0.355898 0)
(0.50153 0.478173 0)
(0.316395 0.424329 0)
(0.395955 0.629179 0)
(0.572281 0.665849 0)
(0.502066 0.802165 0)
(0.578576 0.937115 0)
(0.842966 1.16035 0)
(1.21343 0.952865 0)
(1.36027 0.770039 0)
(1.55702 0.245771 0)
(0.159109 1.10477 0)
(0.166734 1.18317 0)
(-0.189506 1.17181 0)
(-0.0559412 1.07008 0)
(0.0526446 1.07479 0)
(0.10932 1.02 0)
(0.312045 1.36454 0)
(0.455599 1.01619 0)
(0.625156 0.915362 0)
(0.670174 1.06035 0)
(0.692052 0.874345 0)
(0.717779 0.501903 0)
(0.713758 0.444419 0)
(0.530156 0.317061 0)
(0.470678 0.423916 0)
(0.493228 0.682021 0)
(0.63159 0.612833 0)
(0.588373 0.707468 0)
(0.62619 0.683208 0)
(0.75202 0.748658 0)
(0.952401 0.522764 0)
(1.5677 0.313366 0)
(1.3915 0.0524959 0)
(-0.023412 0.785627 0)
(0.0546521 0.817742 0)
(-0.00864116 0.805867 0)
(0.0726496 0.966423 0)
(0.0203786 1.03358 0)
(0.29973 0.962223 0)
(0.509034 1.18825 0)
(0.158649 0.914179 0)
(0.473962 0.881148 0)
(0.530045 0.681179 0)
(0.506726 0.703552 0)
(0.576369 0.737226 0)
(0.483489 0.541171 0)
(0.533817 0.483297 0)
(0.690773 0.459742 0)
(0.488762 0.454152 0)
(0.557316 0.486638 0)
(0.538401 0.473209 0)
(0.446865 0.522571 0)
(0.707945 0.497845 0)
(1.14939 0.634522 0)
(1.33162 0.396982 0)
(1.25218 -0.202772 0)
(-0.0478868 0.975244 0)
(0.0259413 0.907668 0)
(0.0233435 0.889025 0)
(0.119867 0.948379 0)
(0.0652006 0.979514 0)
(0.232511 1.12566 0)
(0.40851 0.878882 0)
(0.264146 0.692207 0)
(0.335587 0.822014 0)
(0.416318 0.596935 0)
(0.569415 0.687062 0)
(0.534797 0.661327 0)
(0.409563 0.532949 0)
(0.483246 0.631614 0)
(0.48441 0.569259 0)
(0.498734 0.355051 0)
(0.660466 0.479031 0)
(0.599562 0.337366 0)
(0.571763 0.515541 0)
(0.731289 0.565838 0)
(0.908512 0.341918 0)
(0.912165 0.307744 0)
(0.887797 0.141352 0)
(-0.170427 0.807068 0)
(-0.0604978 0.819945 0)
(-0.0022532 0.84775 0)
(0.130708 0.894321 0)
(0.245852 0.815435 0)
(0.203187 0.971709 0)
(0.138756 0.750655 0)
(0.324166 0.835154 0)
(0.387258 0.759595 0)
(0.326344 0.704232 0)
(0.438916 0.672967 0)
(0.427894 0.507718 0)
(0.444821 0.470101 0)
(0.526069 0.500758 0)
(0.393981 0.477193 0)
(0.438905 0.529664 0)
(0.589432 0.535819 0)
(0.610993 0.39234 0)
(0.655123 0.331386 0)
(0.592144 0.414297 0)
(0.85067 0.294776 0)
(0.878889 -0.0228996 0)
(0.658765 0.0753507 0)
(-0.0355627 0.549279 0)
(0.0317184 0.701965 0)
(0.0516605 0.756976 0)
(0.0689665 0.819189 0)
(0.193002 0.717907 0)
(0.266757 0.580172 0)
(0.275496 0.631114 0)
(0.358659 0.750861 0)
(0.210131 0.440654 0)
(0.244719 0.50914 0)
(0.345431 0.601043 0)
(0.317247 0.551813 0)
(0.403378 0.521454 0)
(0.558512 0.529322 0)
(0.480716 0.426874 0)
(0.549762 0.500736 0)
(0.552665 0.422561 0)
(0.409059 0.357096 0)
(0.609127 0.201775 0)
(0.744507 0.16791 0)
(0.638032 0.269566 0)
(0.798265 0.106017 0)
(0.775709 0.0604738 0)
(-0.0255174 0.637514 0)
(0.023258 0.692036 0)
(0.0460131 0.708603 0)
(0.0882892 0.750104 0)
(0.145558 0.738662 0)
(0.217855 0.609808 0)
(0.298193 0.598955 0)
(0.263556 0.526814 0)
(0.255823 0.466347 0)
(0.443936 0.406948 0)
(0.364271 0.573912 0)
(0.317611 0.534947 0)
(0.420243 0.517588 0)
(0.434363 0.555439 0)
(0.394548 0.428254 0)
(0.46827 0.48977 0)
(0.444923 0.315735 0)
(0.436128 0.33301 0)
(0.496696 0.357203 0)
(0.656778 0.144408 0)
(0.849579 0.262126 0)
(0.725385 0.231388 0)
(0.550082 -0.0418906 0)
(-0.0159447 0.616295 0)
(0.0179436 0.663178 0)
(0.0473472 0.664048 0)
(0.109187 0.692125 0)
(0.162912 0.690218 0)
(0.195987 0.613929 0)
(0.248352 0.58657 0)
(0.264838 0.513495 0)
(0.225784 0.551902 0)
(0.355969 0.423135 0)
(0.40632 0.450335 0)
(0.2696 0.446914 0)
(0.464605 0.509913 0)
(0.486569 0.445743 0)
(0.420506 0.339366 0)
(0.437864 0.411633 0)
(0.372398 0.342426 0)
(0.444371 0.346975 0)
(0.44191 0.287655 0)
(0.601093 0.360059 0)
(0.700996 0.239722 0)
(0.537816 -0.0442161 0)
(0.576843 0.0586196 0)
(-0.0025126 0.594186 0)
(0.0301231 0.613358 0)
(0.0522838 0.623389 0)
(0.0952459 0.629875 0)
(0.144372 0.630545 0)
(0.18047 0.549342 0)
(0.218823 0.583623 0)
(0.250115 0.541155 0)
(0.219921 0.512079 0)
(0.265559 0.537866 0)
(0.325493 0.387733 0)
(0.370623 0.469169 0)
(0.453488 0.512625 0)
(0.318605 0.374684 0)
(0.397068 0.426255 0)
(0.467171 0.279111 0)
(0.407758 0.300154 0)
(0.408018 0.283512 0)
(0.492568 0.206889 0)
(0.623408 0.238952 0)
(0.473325 0.0709227 0)
(0.580977 0.148443 0)
(0.572981 0.014104 0)
(0.000459088 0.584891 0)
(0.0308353 0.581975 0)
(0.0519737 0.609834 0)
(0.101225 0.595719 0)
(0.105195 0.582853 0)
(0.196021 0.533084 0)
(0.242275 0.501467 0)
(0.218727 0.506423 0)
(0.247212 0.537451 0)
(0.211403 0.678078 0)
(0.295125 0.577986 0)
(0.355732 0.552912 0)
(0.38723 0.407802 0)
(0.456853 0.389461 0)
(0.406268 0.442919 0)
(0.317476 0.33644 0)
(0.345293 0.310766 0)
(0.376268 0.291523 0)
(0.38642 0.226933 0)
(0.448278 0.211475 0)
(0.628927 0.124297 0)
(0.527296 0.175344 0)
(0.400022 -0.0372293 0)
(-0.00280251 0.571786 0)
(0.0494206 0.569846 0)
(0.0547748 0.569116 0)
(0.0812543 0.578189 0)
(0.0881943 0.589742 0)
(0.112438 0.573505 0)
(0.189013 0.501745 0)
(0.286868 0.525332 0)
(0.409928 0.504694 0)
(0.308228 0.497609 0)
(0.240805 0.531851 0)
(0.289543 0.485489 0)
(0.27666 0.356887 0)
(0.348373 0.365407 0)
(0.353031 0.34776 0)
(0.329723 0.304046 0)
(0.354698 0.278361 0)
(0.321264 0.2208 0)
(0.428572 0.248052 0)
(0.509411 0.176556 0)
(0.399047 0.213906 0)
(0.412853 0.0405618 0)
(0.39435 0.0489484 0)
(0.00633022 0.564592 0)
(0.0326261 0.564433 0)
(0.0492044 0.549458 0)
(0.117734 0.571327 0)
(0.113464 0.57212 0)
(0.131625 0.568076 0)
(0.183572 0.603748 0)
(0.211824 0.560118 0)
(0.228025 0.535759 0)
(0.223759 0.467399 0)
(0.20151 0.348888 0)
(0.232312 0.302733 0)
(0.307328 0.394602 0)
(0.431129 0.314817 0)
(0.362329 0.329593 0)
(0.250526 0.359975 0)
(0.275239 0.279129 0)
(0.349002 0.304926 0)
(0.375565 0.300032 0)
(0.445085 0.133931 0)
(0.424364 0.138228 0)
(0.268235 0.0567166 0)
(0.32804 0.0190399 0)
(0.0130763 0.536123 0)
(0.0387138 0.537436 0)
(0.0497244 0.534308 0)
(0.097555 0.538222 0)
(0.103342 0.511253 0)
(0.136676 0.479717 0)
(0.170129 0.475907 0)
(0.242542 0.507787 0)
(0.286945 0.434996 0)
(0.0638023 0.461866 0)
(0.0959024 0.479232 0)
(0.300346 0.37003 0)
(0.279849 0.40111 0)
(0.271886 0.377843 0)
(0.397797 0.252118 0)
(0.286727 0.257491 0)
(0.314797 0.254171 0)
(0.346142 0.333315 0)
(0.270476 0.180547 0)
(0.349128 0.20545 0)
(0.307385 0.102201 0)
(0.274107 0.0336689 0)
(0.293422 0.0656415 0)
(0.0140598 0.510567 0)
(0.035919 0.509007 0)
(0.0289859 0.51598 0)
(0.0851193 0.513277 0)
(0.0875734 0.507202 0)
(0.130224 0.477534 0)
(0.209342 0.40442 0)
(0.145948 0.399225 0)
(0.206378 0.323964 0)
(0.24219 0.337456 0)
(0.122133 0.469489 0)
(0.135842 0.37358 0)
(0.305317 0.360927 0)
(0.290262 0.371378 0)
(0.210797 0.298353 0)
(0.238009 0.223559 0)
(0.383577 0.179938 0)
(0.319624 0.174143 0)
(0.262678 0.17395 0)
(0.38627 0.157047 0)
(0.238266 0.0650765 0)
(0.273822 0.0722065 0)
(0.30388 -0.0071415 0)
(0.0111009 0.506026 0)
(0.0359585 0.486367 0)
(0.0347716 0.491003 0)
(0.0801749 0.533474 0)
(0.0840528 0.421755 0)
(0.099933 0.486654 0)
(0.0742611 0.480914 0)
(0.130123 0.412649 0)
(0.226411 0.423124 0)
(0.240256 0.322901 0)
(0.146608 0.317721 0)
(0.200676 0.449705 0)
(0.261402 0.391588 0)
(0.19576 0.309015 0)
(0.240781 0.296835 0)
(0.200979 0.294354 0)
(0.268584 0.24673 0)
(0.347165 0.106213 0)
(0.289449 0.20213 0)
(0.277099 0.196719 0)
(0.223136 0.0468699 0)
(0.221742 0.143139 0)
(0.256982 -0.0133278 0)
(0.00127074 0.507871 0)
(0.0229191 0.4849 0)
(0.0489952 0.49448 0)
(5.18481e-05 0.554849 0)
(0.053678 0.464228 0)
(0.194349 0.521217 0)
(0.143169 0.498947 0)
(0.0798723 0.543678 0)
(0.119495 0.473901 0)
(0.14926 0.363156 0)
(0.23359 0.350594 0)
(0.20276 0.405972 0)
(0.171642 0.285812 0)
(0.18836 0.289824 0)
(0.20054 0.28885 0)
(0.197707 0.277688 0)
(0.188146 0.251393 0)
(0.250682 0.195161 0)
(0.358143 0.220434 0)
(0.228882 0.133499 0)
(0.180667 0.121154 0)
(0.246775 0.0557291 0)
(0.174896 0.0866592 0)
(-0.0028247 0.499063 0)
(0.0232503 0.42234 0)
(0.0708114 0.486657 0)
(0.0299103 0.553721 0)
(0.081898 0.629767 0)
(0.126077 0.540999 0)
(0.0673697 0.456997 0)
(0.101653 0.488613 0)
(0.0995716 0.465931 0)
(0.127615 0.492164 0)
(0.17548 0.416281 0)
(0.0602654 0.347026 0)
(0.127955 0.320992 0)
(0.197197 0.318637 0)
(0.222711 0.289579 0)
(0.148082 0.262177 0)
(0.166195 0.237361 0)
(0.300795 0.190808 0)
(0.262221 0.207198 0)
(0.159432 0.0644723 0)
(0.145393 0.0964602 0)
(0.205375 0.0434299 0)
(0.194342 0.0426575 0)
(-0.0625026 0.510932 0)
(0.017533 0.48242 0)
(0.141109 0.510848 0)
(0.0689072 0.504598 0)
(0.0697084 0.528631 0)
(0.101694 0.487967 0)
(0.0774059 0.469439 0)
(0.0819414 0.487919 0)
(0.083057 0.453847 0)
(0.115123 0.4827 0)
(0.149133 0.41026 0)
(0.0890896 0.40088 0)
(0.130223 0.395487 0)
(0.153515 0.36742 0)
(0.135716 0.294917 0)
(0.117272 0.209857 0)
(0.114964 0.255281 0)
(0.225572 0.199202 0)
(0.239617 0.11097 0)
(0.126347 0.122064 0)
(0.164686 0.117964 0)
(0.219535 0.10324 0)
(0.119764 0.00802353 0)
(0.00434741 0.553779 0)
(0.0277021 0.678061 0)
(0.0457004 0.55144 0)
(0.0457227 0.528699 0)
(0.0754711 0.553263 0)
(0.0809016 0.509649 0)
(0.0667757 0.51393 0)
(0.0734766 0.632283 0)
(0.0718744 0.358245 0)
(0.098103 0.600792 0)
(0.0944846 0.311828 0)
(0.0494174 0.412073 0)
(0.0762642 0.470928 0)
(0.117776 0.343248 0)
(0.0577783 0.200901 0)
(0.113888 0.247489 0)
(0.122694 0.181408 0)
(0.161901 0.212326 0)
(0.150871 0.110262 0)
(0.133116 0.118868 0)
(0.112728 0.165359 0)
(0.141225 0.0908335 0)
(0.105914 0.021342 0)
(0.00408632 0.457134 0)
(0.0243883 0.569606 0)
(0.0351704 0.456768 0)
(0.0508388 0.460156 0)
(0.0506707 0.586434 0)
(0.0643749 0.429582 0)
(0.176244 0.558569 0)
(-0.067434 0.438934 0)
(0.0562879 0.484789 0)
(0.0800675 0.415236 0)
(-0.0267919 0.409327 0)
(0.203428 0.42255 0)
(0.0374852 0.373194 0)
(-0.0687842 0.311315 0)
(0.0337514 0.343254 0)
(0.060144 0.434969 0)