/*--------------------------------*- C++ -*----------------------------------*\
| =========                 |                                                 |
| \\      /  F ield         | foam-extend: Open Source CFD                    |
|  \\    /   O peration     | Version:     4.1                                |
|   \\  /    A nd           | Web:         http://www.foam-extend.org         |
|    \\/     M anipulation  |                                                 |
\*---------------------------------------------------------------------------*/
FoamFile
{
    version     2.0;
    format      ascii;
    class       volScalarField;
    location    "0.35";
    object      pd;
}
// * * * * * * * * * * * * * * * * * * * * * * * * * * * * * * * * * * * * * //

dimensions      [1 -1 -2 0 0 0 0];

internalField   nonuniform List<scalar> 
2268
(
915.774
916.134
916.128
908.766
910.538
897.566
901.568
894.297
882.578
908.206
872.015
1001.04
926.676
955.457
962.442
988.245
1018.12
1049.27
1080.65
1113.51
1171.33
1212.19
1246.47
915.484
915.793
915.6
908.574
910.064
897.489
900.769
893.647
884.784
915.889
852.752
989.503
927.253
953.658
961.234
986.67
1015.46
1051.42
1080.88
1107.02
1170.37
1207.87
1246.13
914.87
915.102
914.864
908.22
909.492
896.13
900.583
891.324
877.337
895.52
901.423
952.831
922.033
947.756
958.529
984.649
1012.54
1043.26
1077.24
1106.03
1162.82
1198.68
1232.24
914.029
914.086
913.364
907.756
907.972
896.352
897.785
888.78
883.598
928.416
883.492
936.162
918.585
941.392
953.604
977.379
1011.74
1039.54
1075.23
1098.28
1155.38
1189.26
1216.2
912.826
912.785
911.977
906.835
906.446
893.016
898.431
892.048
865.604
912.791
892.465
923.95
913.928
936.205
951.777
975.68
1006.87
1032.95
1074.43
1096.76
1145.87
1173.1
1197.95
911.486
911.159
909.496
905.116
903.609
894.298
887.868
879.398
894.847
901.091
886.957
909.854
908.194
928.032
946.799
970.085
1002.14
1029.46
1068.42
1089.47
1141.3
1165.15
1165.15
909.689
909.35
907.596
904.662
902.298
886.552
902.381
866.614
895.439
888.875
887.097
897.131
901.592
919.538
941.648
966.361
1000.53
1013.33
1079.76
1077.67
1141.34
1142.64
1132.04
907.877
907.176
904.339
898.968
896.68
895.033
879.517
879.454
885.53
881.594
879.907
885.427
891.544
911.122
932.92
962.883
992.46
1014.13
1058.18
1072.05
1135.18
1094.97
1111.69
603.805
592.917
562.324
536.417
525.407
525.109
526.505
526.03
525.895
525.786
525.909
526.195
526.59
528.125
528.782
529.595
530.404
530.758
530.984
605.005
585.082
542.678
529.036
520.513
523.431
525.682
525.673
525.707
525.716
525.844
526.132
526.403
528.155
528.714
529.58
530.475
530.766
530.998
631.037
583.732
531.932
523.267
521.452
523.279
524.563
525.338
525.375
525.45
525.683
526.106
526.28
527.969
528.609
529.754
530.501
530.83
531.05
692.786
557.448
524.457
522.972
521.935
523.087
524.546
525.126
525.132
525.119
525.522
526.065
525.784
527.965
528.762
529.797
530.492
530.823
531.103
685.421
529.214
523.375
522.94
522.106
523.286
524.232
525.039
524.561
524.64
525.393
525.964
525.91
527.494
528.759
529.781
530.591
530.925
531.18
569.589
522.792
523.286
522.904
521.725
523.31
523.836
524.884
524.225
525.157
524.873
525.815
525.346
527.174
528.876
529.889
530.599
531.026
531.275
547.683
523.427
523.637
523.66
522.028
522.745
523.419
524.731
524.084
525.031
524.546
525.292
524.949
527.144
528.652
530.205
530.706
531.137
531.37
540.535
524.545
524.048
523.905
522.536
522.514
523.368
524.424
523.786
524.613
524.174
525.318
524.546
528.006
529.292
530.448
530.798
531.242
531.518
903.999
903.413
897.987
907.056
897.436
860.561
898.467
862.011
878.721
863.026
867.441
863.992
874.788
890.528
918.08
944.128
997.437
1004.9
1082.48
1022.66
1165.21
971.706
1104.65
897.786
895.253
892.946
875.085
890.823
873.258
873.494
861.725
846.189
831.496
817.882
803.818
813.266
847.914
895.523
928.212
968.041
974.238
1097
945.92
1039.39
1006.84
1067.9
826.074
811.597
816.78
783.511
798.074
766.98
758.957
722.159
635.408
547.006
480.31
391.643
412.797
519.721
701.345
850.48
934.174
963.232
1017.89
963.863
1066.69
967.036
1164.63
356.025
329.927
343.277
287.614
312.952
265.865
243.342
187.047
104.892
59.0119
36.3778
23.4173
30.252
51.1646
110
330.045
693.236
792.793
773.637
850.116
929.128
1026.76
1024.53
18.2871
17.0523
17.292
13.693
16.0439
12.9724
10.4874
7.2811
5.18282
3.9386
3.26811
3.1434
3.49884
5.85074
10.1454
19.7816
45.8678
171.474
215.598
279.291
327.574
526.812
765.874
2.78801
2.82162
2.75129
2.73438
2.843
2.80261
2.75326
2.68309
2.66162
2.67407
2.69366
2.78894
2.849
2.96413
3.09849
3.29374
4.05007
14.0302
21.9196
33.3925
35.4711
79.5187
132.52
2.41604
2.42449
2.42768
2.43743
2.45338
2.47017
2.49856
2.52974
2.6065
2.66345
2.74145
2.80253
2.88957
2.90151
2.93302
2.90147
2.90839
3.35641
3.84765
4.66166
4.71185
5.66287
5.89054
2.38539
2.39053
2.39852
2.40869
2.42471
2.4383
2.46147
2.49265
2.50146
2.56521
2.54674
2.65377
2.751
2.85337
2.81303
2.81665
2.856
2.94423
2.98063
3.0884
3.23525
3.11778
4.07769
2.36239
2.36438
2.37468
2.37929
2.39741
2.40777
2.43349
2.46016
2.52329
2.49966
2.62238
2.61178
2.73456
2.75094
2.77594
2.69959
2.77725
2.93155
3.19792
3.35973
3.39389
2.9669
2.74669
2.3346
2.33379
2.34392
2.35111
2.3587
2.37647
2.39965
2.42138
2.44578
2.4924
2.49577
2.54199
2.57932
2.63978
2.59442
2.68809
2.64298
2.73901
2.76291
2.97008
2.884
2.84578
2.98994
2.29804
2.28401
2.3211
2.30704
2.31503
2.30899
2.348
2.41784
2.40712
2.47473
2.46956
2.52798
2.50113
2.57234
2.6514
2.5814
2.63809
2.61355
2.79842
2.70814
2.87697
2.50946
2.233
2.25155
2.26299
2.26659
2.28052
2.23886
2.30322
2.30819
2.30832
2.36321
2.37608
2.47693
2.40872
2.54573
2.37716
2.52877
2.461
2.53906
2.67985
2.73021
2.82489
2.63502
2.65759
2.53551
2.21658
2.2294
2.20876
2.2129
2.22297
2.23809
2.24648
2.26035
2.24005
2.21966
2.21413
2.36852
2.38239
2.35625
2.38633
2.57137
2.39167
2.25757
2.50915
2.28218
2.67991
2.72822
2.65799
2.17651
2.19054
2.15584
2.20328
2.13761
2.22489
2.14487
2.19113
2.13651
2.2304
2.29812
2.30342
2.38379
2.30047
2.41748
2.29717
2.55201
2.423
2.62999
2.13513
2.00783
2.60062
2.44443
2.1081
2.12216
2.10063
2.13155
2.12634
2.15899
2.12838
2.18341
2.1213
2.13977
1.83147
2.12665
2.22876
2.34619
2.0571
2.09613
2.05639
2.28212
2.269
2.42121
1.91572
2.31484
2.15292
2.09642
2.11417
2.09171
2.08261
2.07161
2.10061
2.09021
2.08744
2.11121
2.23757
2.20931
2.02597
2.1484
2.01952
2.04767
2.21687
1.88794
2.07275
2.12936
2.11156
1.89179
2.00142
2.13742
1.92908
1.97307
1.96182
1.97789
2.01181
1.97219
1.9957
2.01293
2.01003
1.96879
2.01082
2.00275
2.05506
2.03581
2.17179
2.01549
2.04456
1.7488
1.83591
1.83021
1.69801
1.78029
1.63042
2.19739
2.16823
2.01632
2.18467
1.9679
2.18549
2.05344
1.98168
1.93341
1.87475
2.03655
1.93328
1.96319
1.91699
2.06029
2.01733
2.29144
1.92883
2.07063
1.34729
1.27176
1.74554
1.31453
1.66262
1.62673
2.05238
1.61871
1.801
1.63027
1.77354
1.98133
1.87985
1.77838
1.7151
1.77534
1.69994
1.98706
1.87125
2.00993
1.76894
1.78135
1.58078
1.66301
0.96995
0.561788
1.47473
1.57944
1.55601
1.369
1.53787
1.57243
1.57418
1.63077
1.49203
1.72954
1.73175
1.7793
1.85035
1.85708
1.67114
1.24704
1.59584
1.62273
1.61028
1.81977
1.29841
0.98605
0.611181
0.0683266
1.45539
1.4694
1.45113
1.48968
1.50733
1.52959
1.51443
1.3294
1.58742
1.67658
1.58203
1.50683
1.369
1.57444
1.54812
1.48738
1.37872
1.38628
1.59218
1.19591
0.808474
0.53953
0.0563264
1.40111
1.36914
1.33811
1.35255
1.16288
1.36157
1.2079
1.4642
1.4527
1.17397
1.51712
1.39049
1.37993
1.32181
1.29978
1.26107
1.47185
1.47248
1.27716
1.60932
0.58492
0.154124
-1.2833
1.11381
1.21544
1.34474
1.09208
1.53649
1.18069
1.55033
1.49501
1.33453
1.36162
1.27655
1.34711
1.21878
1.06821
1.05376
0.873655
1.18764
0.788737
0.32223
0.557353
0.351038
0.0536062
-0.4597
1.43909
1.18224
1.16342
1.53853
1.46234
1.57574
1.53558
1.54828
1.62944
1.41875
1.34213
1.28509
1.28573
1.15802
1.48973
1.11277
0.90637
0.942567
0.740833
0.565006
0.563591
0.346561
0.288544
1.42346
1.56068
1.58378
1.34852
1.35764
1.38887
1.41864
1.14514
1.00265
1.11728
1.08278
1.08205
0.965124
0.770758
0.791568
0.948862
0.783719
0.811324
0.674717
0.556651
0.389235
-0.789047
-2.28151
1.39721
1.359
1.40403
1.46363
1.61514
1.53838
1.02809
1.14802
1.09711
1.09734
1.10206
1.08735
1.0682
1.316
0.87031
1.15744
0.041152
0.658182
0.312947
-0.0806084
-0.978397
-0.772075
-1.773
1.23473
1.44599
1.41288
0.992663
0.889465
0.786245
0.854923
0.914601
0.922161
0.93229
0.930752
0.922378
0.91513
0.908998
0.882785
0.811013
0.54049
0.482423
0.185615
0.0404554
-0.0439324
-0.0864395
-0.976433
0.782085
0.603519
0.619036
0.773598
0.852363
0.855357
0.868174
0.870049
0.870164
0.87117
0.878658
0.860136
0.871325
0.846919
0.81534
0.639787
0.222232
0.647948
-0.00960427
-0.0893623
-0.441767
-1.70476
-1.3719
0.804683
0.78479
0.786133
0.749941
0.726626
0.740424
0.73415
0.738522
0.731527
0.739389
0.737403
0.750213
0.73216
0.734792
0.791424
0.271504
1.09636
-0.41003
1.12195
0.222828
-0.514213
-0.896787
-1.17155
0.617276
0.601052
0.605184
0.622288
0.653673
0.648183
0.661932
0.661991
0.668852
0.66505
0.688199
0.710169
0.769603
0.998014
0.709272
0.338635
0.591158
-0.440186
1.10767
-0.611518
0.434711
-0.40942
-1.19696
0.562886
0.556758
0.557247
0.539124
0.564218
0.556816
0.562397
0.563437
0.560571
0.562793
0.566476
0.474097
0.506228
0.0879429
0.392463
0.443015
0.470964
0.684844
-0.153056
-0.0956416
-0.380341
0.473919
-0.385632
0.44518
0.43884
0.442554
0.457242
0.460274
0.465063
0.473381
0.477323
0.487691
0.485263
0.467778
0.488567
0.452736
0.451919
0.443692
0.379362
0.450334
0.334102
-0.0126761
-0.255321
-0.0254966
-0.114817
-0.227446
0.347998
0.343229
0.348686
0.355266
0.357749
0.357648
0.367303
0.369416
0.381644
0.376232
0.384579
0.368502
0.389555
0.320962
0.382218
0.344214
0.429501
0.165108
0.296643
0.822149
0.877495
0.0272818
0.120471
0.263599
0.249588
0.262693
0.26774
0.26865
0.270393
0.287307
0.294315
0.306731
0.305533
0.312803
0.305607
0.320363
0.296829
0.323978
0.332777
0.297353
0.344141
0.711787
0.196452
0.272241
0.21803
0.385987
0.20482
0.200781
0.206109
0.204782
0.204761
0.202467
0.216126
0.221548
0.229434
0.229786
0.240296
0.23578
0.257435
0.247212
0.272016
0.281884
0.307979
0.350332
0.440315
0.571218
0.200943
0.540704
0.442494
0.134805
0.151124
0.139835
0.143428
0.146918
0.145776
0.143116
0.137327
0.146707
0.151425
0.163546
0.16522
0.187703
0.191365
0.224174
0.266649
0.285129
0.321753
0.402578
0.295768
0.270179
0.697285
0.929927
0.0608137
0.0746739
0.064856
0.0665785
0.0699028
0.0717279
0.0644977
0.05591
0.0687032
0.0686127
0.0833008
0.0854759
0.116156
0.109108
0.156506
0.197195
0.218772
0.268336
0.270116
0.191117
0.379133
0.541297
0.656654
-0.0295499
-0.0248703
-0.0275501
-0.0290605
-0.0270534
-0.0255387
-0.0251493
-0.0295647
-0.0202653
-0.0233594
-0.0064374
0.00468748
0.0301096
0.0654729
0.109165
0.169383
0.192781
0.251807
0.222401
0.349553
0.523056
0.436993
0.660282
-0.142697
-0.142106
-0.142436
-0.143566
-0.143206
-0.143087
-0.144029
-0.138747
-0.140479
-0.136059
-0.116096
-0.0998958
-0.05769
-0.0626823
0.0400036
0.12082
0.109617
0.178917
0.17984
0.217028
0.239462
0.24043
0.410188
-0.195022
-0.195404
-0.195753
-0.195826
-0.194494
-0.194345
-0.19307
-0.190322
-0.187455
-0.182917
-0.173949
-0.157675
-0.157042
-0.110565
-0.0774966
0.0217366
0.0493186
0.0788663
0.111541
0.166146
0.232604
0.297441
0.298103
-0.47766
-0.478658
-0.478839
-0.479058
-0.479176
-0.479166
-0.479411
-0.478867
-0.481437
-0.479539
-0.465737
-0.449302
-0.381
-0.256337
-0.0646687
0.116172
0.175185
0.164578
0.17756
0.0935001
0.0221953
0.00107472
0.240989
0.0031109
0.00274356
0.00265567
0.00249447
0.0024297
0.00206387
0.00158452
-0.00017212
-0.00294444
-0.012075
-0.0255019
-0.0660797
-0.125665
-0.32181
-0.522742
-0.626178
-0.560361
-0.540295
-0.429243
-0.402636
-0.120029
-0.0690752
0.00631849
942.733
840.657
1015.77
1001.5
958.69
1044.7
1159.54
1078.62
1125.59
1125.64
1102.34
1199.04
1172.45
1157.92
1184.76
1246.83
909.17
969.082
1031.88
1063.41
208.651
265.373
347.869
377.223
10.2886
14.4698
23.4843
23.7441
4.53514
5.04186
4.45593
4.19625
3.61655
3.49886
3.16703
3.01064
3.05226
2.98876
2.96487
2.88832
2.91766
2.86517
2.85953
2.87457
2.61696
2.54456
2.5842
2.49172
2.27051
2.45654
2.27566
2.25925
2.24814
2.31601
2.32268
2.25419
2.09468
2.1274
2.3253
2.45995
2.0107
1.58291
2.13014
2.02525
2.341
2.18367
2.15377
1.60824
2.14611
2.04687
1.94613
1.90134
1.46565
1.37157
1.32613
1.12994
0.634838
0.360661
-0.0949198
-0.665449
-1.05508
-1.19832
-2.112
-2.01372
-1.34489
-1.61984
-2.06487
-2.00462
-0.900179
-1.21294
-1.22014
-1.66662
-0.844997
-1.36944
-0.359107
1.31584
-2.58221
-1.43615
1.3665
2.44384
-2.53836
-2.98572
-1.85189
2.41701
-2.05867
-2.4158
-1.93805
-0.248344
-1.824
-2.03311
-1.68638
-0.803067
-1.42492
-1.58957
-1.19332
0.345761
-1.19915
-1.32053
-0.813775
1.64537
-0.481318
-0.644712
-0.453301
0.822627
-0.246655
-0.321657
-0.284612
0.451789
0.00699812
0.0647505
0.0768732
0.209659
0.608372
0.613202
0.457499
0.472144
0.361542
0.332679
0.543403
0.705554
0.453464
0.57547
0.622633
0.680777
0.51116
0.432576
0.592104
0.675608
0.348224
0.481592
0.638934
0.666543
0.235172
0.394839
0.459296
0.592471
0.352399
0.300286
0.305985
0.154648
0.135892
0.296598
0.291907
0.38818
0.0408327
0.0621988
0.0328695
-0.00247781
538.737
523.845
524.048
524.157
522.867
522.085
527.881
523.188
526.344
525.332
525.381
528.502
531.967
536.294
532.134
530.626
531.072
531.482
531.751
986.902
653.885
555.772
523.567
523.068
521.166
520.97
528.193
579.436
548.391
573.035
580.582
592.357
573.195
537.396
531.019
531.355
531.905
532.344
1195.12
1156.05
992.722
770.691
629.943
539.802
532.009
588.029
906.371
757.226
1086.65
828.482
710.544
617.196
533.029
531.25
531.24
532.322
532.752
1207.83
1182
1046.43
1152.21
1285.38
910.423
763.352
853.232
1401.1
1020.61
1156.83
1240.7
1191.02
778.71
573.466
559.428
544.558
533.896
534.305
1086.12
1162.3
1242.25
1072.31
1464.74
1261.26
1324.21
1364.9
1469.56
1477.56
970.665
1270.33
1349.08
1309.04
1273.65
985.76
756.06
567.948
536.144
537.706
594.345
668.315
882.115
1013.29
728.801
997.82
994.524
1040.35
1451.29
993.615
1246.61
1377.47
1272.81
1516.24
1579.48
1443.61
905.011
557.256
74.0528
33.7165
47.9624
151.868
229.424
109.695
217.252
204.344
238.059
462.617
578.884
1009.13
1629.69
1068.65
1577.26
1584.89
1579.54
1235.61
583.356
6.87786
3.49838
5.20334
8.50098
11.6441
7.20873
13.8338
10.8245
13.063
34.8612
55.6461
119.205
780.477
1189.13
1641.39
1603.11
1409.63
914.444
308.927
3.46027
4.71521
4.33328
3.57793
3.58236
4.25444
4.53019
4.56528
5.25972
5.89586
18.4234
93.1446
725.137
1395.04
1688.07
1502.91
584.705
142.646
149.647
2.93173
3.3046
3.53434
3.60499
3.60209
3.88372
4.18183
5.29311
5.09067
4.9403
10.9
36.7975
360.117
1299.64
1717.56
1138.16
251.138
81.9704
120.048
2.77531
3.57211
3.30603
3.87888
3.71026
3.70447
4.05323
4.92342
4.80596
5.06632
8.66068
21.683
134.056
981.839
1794.05
1315.7
299.63
78.7487
99.4965
2.42339
2.15924
3.30964
3.42197
3.84178
4.03039
4.2264
4.87328
5.23817
4.95005
5.39236
5.38839
22.7355
538.076
1649.99
846.374
133.861
76.7888
87.6097
2.11729
3.3302
2.92126
2.43721
2.78688
3.34682
4.26775
4.09741
4.27974
4.6242
3.61243
3.25892
11.8156
459.82
1497.38
612.331
80.0544
73.862
90.5425
2.10926
2.11575
2.20652
2.89352
2.54917
2.80178
3.94396
3.44818
3.75645
4.00654
3.58761
3.30249
4.04488
28.2075
939.387
529.539
44.2212
65.7235
203.188
1.97925
1.49001
0.502077
-0.640028
1.95505
3.28944
4.00372
3.00538
3.32267
3.0065
2.78215
3.72026
3.93228
5.02723
714.457
358.288
18.5974
11.4315
607.001
2.06261
0.344828
0.463977
0.879132
2.25801
3.4026
2.92403
2.47265
3.21447
2.84982
4.07764
4.23368
4.19979
9.02425
788.091
102.107
3.77987
-3.78384
1102.21
1.18938
-0.808747
-2.2091
-3.49391
1.07298
2.8825
2.39246
2.76455
3.68562
3.27283
4.2861
4.17593
4.50211
65.8569
804.079
0.0432319
11.1619
131.034
1431.76
1.00575
-0.380826
-2.17311
-4.32939
-1.73762
2.02079
1.14334
2.03397
3.87528
4.01129
4.05262
4.70395
76.6973
377.517
466.016
-9.5287
328.474
1346.12
1466.86
0.872111
0.573453
-0.600383
-4.89518
-3.17419
-1.20449
-0.0893641
0.400741
0.516634
3.151
4.66301
7.57092
121.132
353.787
186.426
241.153
695.53
1849.38
1953.74
-0.650244
2.73631
2.31312
-1.46777
-2.53765
-4.96453
-3.35676
-2.754
-1.17822
0.306495
2.56942
10.1555
77.9751
110.53
75.7195
356.201
255.183
804.121
2013.65
0.438713
3.08737
-0.304942
-2.58892
-3.86693
-5.65789
-3.82818
-3.2873
-2.45723
-0.00313958
1.31112
9.19362
23.5054
19.5325
21.3582
182.195
46.296
133.994
1796.38
1.56981
-0.435706
-4.72543
-8.61704
-6.52743
-5.90859
-4.82667
-3.66987
-0.664053
-1.53605
-1.49143
1.07543
1.67963
1.85493
5.55685
21.9915
17.0903
40.3065
1781.99
1.20501
-2.9395
-7.50305
-9.68076
-9.08628
-8.38632
-7.03072
-3.56966
0.0405908
0.701416
-1.71917
-1.65172
-0.184799
3.20179
8.61578
12.9328
11.6965
19.2434
1656.06
-1.50301
-4.35773
-5.50205
-9.36104
-9.39445
-9.05117
-7.31805
-3.75465
-0.600789
0.189806
0.957505
0.389579
0.700849
4.25031
8.80158
8.1231
8.55538
10.3592
881.178
0.580286
-3.82817
-4.99999
-7.35125
-8.08088
-7.54191
-6.67715
-3.30684
-0.538213
-1.06239
0.377042
-0.192403
-0.0418505
5.74951
32.6816
15.2192
9.36853
8.19115
229.771
3.45894
-3.45326
-5.82099
-5.53965
-5.8166
-6.02152
-5.80769
-5.5831
-4.08865
-1.90544
-0.703656
-0.192547
4.90883
15.0951
46.9433
33.6438
9.67453
8.66024
378.581
1.08847
-2.81589
-3.48741
-3.51634
-5.39534
-5.64364
-4.24298
-3.15557
-2.65482
-1.15413
1.51619
4.29614
4.67282
6.13318
41.8259
97.1765
11.4727
8.14716
1210.31
-0.653188
0.658517
0.824841
1.85002
-1.85475
-3.97025
-2.87922
-0.981111
0.116453
0.11388
4.90128
3.62885
-0.214975
-1.19601
14.7511
143.941
48.9132
9.66288
1590.68
1.71955
2.29559
0.563701
1.67215
0.166088
-1.86298
-1.01156
4.23204
4.91383
3.0497
2.41818
-0.647225
-2.3449
-1.97828
3.01823
117.445
272.552
52.0656
1711.78
3.51397
3.74152
1.47226
1.10321
1.27415
0.39053
0.363218
2.47226
2.54643
2.74961
1.1336
-2.00961
-2.33356
-1.63369
1.93457
303.986
755.767
283.358
1032.25
3.70307
6.39633
0.693969
1.83593
2.09522
2.21928
1.58544
0.0325118
1.08481
1.48455
-1.6699
-1.97094
-1.34635
1.92251
58.1478
1148.95
1567.26
845.511
355.915
3.51392
7.46796
1.59979
1.91266
1.98012
3.78407
2.56399
0.349945
0.711011
1.98954
3.11587
4.35737
13.369
213.412
1238.87
1629.17
1643.13
839.352
159.028
1.94391
5.50374
2.11779
1.22774
1.79218
2.92747
4.16485
5.34014
24.6775
30.6503
122.098
115.544
705.788
1548.89
1751.65
1354.11
750.642
300.505
38.4475
1.222
4.71756
5.71276
2.10133
4.99781
9.58996
15.1875
42.0653
102.94
127.667
142.228
312.547
939.663
1332.9
1224.94
450.023
89.3537
53.3064
17.7891
0.962248
3.38067
8.74936
9.6268
9.78404
11.2791
23.4416
49.1016
51.6791
45.3746
59.9992
162.734
312.623
241.716
155.587
27.8364
-6.77055
-3.97742
10.4027
0.80281
1.58619
4.45707
7.51451
4.48528
4.67486
11.334
12.2037
5.08409
0.91413
2.37196
6.52394
16.1129
1.76486
-7.74411
-9.11463
-7.67382
-11.0569
-1.11323
0.773868
0.995863
1.45911
2.68791
1.00906
0.745139
1.30735
0.0767654
-1.04039
-1.74824
-2.43097
-3.91494
-5.62497
-7.70895
-9.04618
-9.4229
-9.57096
-10.7165
-5.66588
0.712966
0.789277
1.10239
1.51252
0.652025
0.479357
0.103546
-0.354989
-0.878061
-1.69025
-2.64951
-3.78541
-5.08092
-6.5028
-8.02752
-9.64045
-9.93507
-11.9717
-13.1707
0.558319
0.739259
0.719382
0.720259
0.407267
0.250075
-0.0109262
-0.331231
-0.785005
-1.3829
-2.10397
-3.1014
-4.18528
-5.42035
-6.7533
-8.52047
-8.41394
-9.42829
-11.3409
0.287688
0.515591
0.440297
0.44052
0.259516
0.142202
-0.0472262
-0.304177
-0.632831
-1.07836
-1.65943
-2.41457
-3.22743
-4.1716
-5.26047
-6.67694
-6.57319
-1.81555
-1.85466
0.313245
0.355839
0.206722
0.252433
0.146424
0.0844915
-0.0404027
-0.187703
-0.384298
-0.638981
-0.956474
-1.34971
-1.77713
-2.30304
-2.93193
-3.78456
-4.18217
-1.46835
-2.29352
0.00499265
0.0581936
-0.0484692
-0.0386336
-0.0698624
-0.0852376
-0.0907955
-0.0958371
-0.110456
-0.140031
-0.212453
-0.36081
-0.579032
-0.899743
-1.25389
-1.92475
-3.20897
-4.93711
-6.98131
)
;

boundaryField
{
    leftWall
    {
        type            zeroGradient;
    }
    rightWall
    {
        type            zeroGradient;
    }
    lowerWall
    {
        type            zeroGradient;
    }
    atmosphere
    {
        type            totalPressure;
        rho             rho;
        psi             none;
        gamma           1;
        p0              uniform 0;
        value           nonuniform List<scalar> 
46
(
-0.31578
-0.318126
-0.31811
-0.318049
-0.317799
-0.317728
-0.318087
-0.318886
-0.322076
-0.326918
-0.328328
-0.347847
-0.341093
-0.3967
-0.413925
-0.403856
-0.361636
-0.346864
-0.2817
-0.280141
-0.20508
-0.237187
-0.0830921
-0.0554799
-0.0216
-0.0185015
-0.012457
-0.00808527
0
0
0
0
0
0
0
0
0
0
0
0
0
0
0
0
0
0
)
;
    }
    defaultFaces
    {
        type            empty;
    }
}


// ************************************************************************* //
