/*--------------------------------*- C++ -*----------------------------------*\
| =========                 |                                                 |
| \\      /  F ield         | foam-extend: Open Source CFD                    |
|  \\    /   O peration     | Version:     4.1                                |
|   \\  /    A nd           | Web:         http://www.foam-extend.org         |
|    \\/     M anipulation  |                                                 |
\*---------------------------------------------------------------------------*/
FoamFile
{
    version     2.0;
    format      ascii;
    class       surfaceScalarField;
    location    "0.35";
    object      phi;
}
// * * * * * * * * * * * * * * * * * * * * * * * * * * * * * * * * * * * * * //

dimensions      [0 3 -1 0 0 0 0];

internalField   nonuniform List<scalar> 
4432
(
3.21393e-06
-3.21393e-06
6.03552e-06
-2.82159e-06
1.0349e-05
-4.31345e-06
1.31896e-05
-2.84064e-06
1.67007e-05
-3.51107e-06
1.96811e-05
-2.98045e-06
2.35238e-05
-3.84268e-06
2.70242e-05
-3.50043e-06
2.94629e-05
-2.43862e-06
3.00349e-05
-5.72077e-07
4.88065e-05
-1.87715e-05
5.12604e-05
-2.45391e-06
5.36898e-05
-2.42941e-06
5.44619e-05
-7.72065e-07
5.42137e-05
2.4816e-07
5.34776e-05
7.36088e-07
5.21478e-05
1.32979e-06
5.0236e-05
1.91181e-06
4.72396e-05
2.99645e-06
4.06869e-05
6.55263e-06
3.10303e-05
9.6566e-06
1.80776e-05
1.29527e-05
1.80776e-05
3.24146e-06
-6.45539e-06
6.1825e-06
-5.76262e-06
1.04308e-05
-8.56175e-06
1.31712e-05
-5.58105e-06
1.68303e-05
-7.17014e-06
2.00043e-05
-6.15443e-06
2.38886e-05
-7.72702e-06
2.70382e-05
-6.65008e-06
2.99453e-05
-5.34569e-06
3.03983e-05
-1.02506e-06
4.62806e-05
-3.46539e-05
4.95123e-05
-5.68563e-06
5.23154e-05
-5.23244e-06
5.36495e-05
-2.10617e-06
5.38575e-05
4.01344e-08
5.3089e-05
1.50453e-06
5.09897e-05
3.42912e-06
4.89287e-05
3.97286e-06
4.66815e-05
5.24357e-06
4.01512e-05
1.3083e-05
3.10972e-05
1.87106e-05
1.61159e-05
2.79341e-05
3.41935e-05
3.16604e-06
-9.62143e-06
6.2606e-06
-8.85719e-06
1.02319e-05
-1.2533e-05
1.29313e-05
-8.28045e-06
1.70901e-05
-1.13289e-05
2.04002e-05
-9.46454e-06
2.37566e-05
-1.10834e-05
2.80348e-05
-1.09282e-05
2.90897e-05
-6.40066e-06
5.19471e-05
-2.38824e-05
4.67526e-05
-2.94593e-05
4.96271e-05
-8.56012e-06
5.09761e-05
-6.58143e-06
5.16675e-05
-2.79766e-06
5.19446e-05
-2.36893e-07
5.10322e-05
2.41694e-06
4.90804e-05
5.3809e-06
4.7184e-05
5.86923e-06
4.48013e-05
7.62633e-06
3.89155e-05
1.89687e-05
3.08169e-05
2.68091e-05
1.88281e-05
3.99229e-05
5.30216e-05
3.10746e-06
-1.27289e-05
6.38177e-06
-1.21315e-05
1.00802e-05
-1.62314e-05
1.31921e-05
-1.13923e-05
1.7571e-05
-1.57078e-05
2.04779e-05
-1.23715e-05
2.42449e-05
-1.48504e-05
2.49557e-05
-1.1639e-05
4.3051e-05
-2.44959e-05
4.30134e-05
-2.38449e-05
4.0155e-05
-2.66009e-05
4.13385e-05
-9.74364e-06
4.22124e-05
-7.45534e-06
4.30771e-05
-3.66235e-06
4.34877e-05
-6.47485e-07
4.26468e-05
3.25781e-06
4.11049e-05
6.92281e-06
3.95247e-05
7.44941e-06
3.84287e-05
8.72236e-06
3.40377e-05
2.33598e-05
2.89208e-05
3.1926e-05
1.75076e-05
5.13361e-05
7.05292e-05
2.91928e-06
-1.56482e-05
6.35599e-06
-1.55682e-05
1.00454e-05
-1.99208e-05
1.32788e-05
-1.46258e-05
1.73028e-05
-1.97319e-05
1.98893e-05
-1.49579e-05
2.39318e-05
-1.88929e-05
2.39807e-05
-1.16879e-05
3.79489e-05
-3.84641e-05
3.74284e-05
-2.33243e-05
3.63883e-05
-2.55608e-05
3.83209e-05
-1.16763e-05
3.92189e-05
-8.35333e-06
3.95714e-05
-4.01481e-06
3.94447e-05
-5.20835e-07
3.9199e-05
3.50351e-06
3.89192e-05
7.20259e-06
3.74231e-05
8.94559e-06
3.64297e-05
9.71571e-06
3.12723e-05
2.85172e-05
2.65376e-05
3.66607e-05
1.9345e-05
5.85286e-05
8.98742e-05
2.86852e-06
-1.85167e-05
6.58194e-06
-1.92816e-05
1.01727e-05
-2.35115e-05
1.283e-05
-1.7283e-05
1.63909e-05
-2.32928e-05
2.02271e-05
-1.87942e-05
2.09258e-05
-1.95916e-05
3.46285e-05
-2.53907e-05
3.29198e-05
-3.67554e-05
3.55788e-05
-2.59834e-05
3.57939e-05
-2.57759e-05
3.74094e-05
-1.32918e-05
3.83588e-05
-9.30269e-06
3.87679e-05
-4.42396e-06
3.89872e-05
-7.40126e-07
3.88488e-05
3.64194e-06
3.86311e-05
7.42032e-06
3.7385e-05
1.01916e-05
3.66038e-05
1.04969e-05
3.05169e-05
3.46042e-05
2.60067e-05
4.11709e-05
1.8534e-05
6.60013e-05
0.000108408
2.87387e-06
-2.13906e-05
6.51652e-06
-2.29243e-05
9.55163e-06
-2.65466e-05
1.24543e-05
-2.01857e-05
1.60842e-05
-2.69227e-05
1.79918e-05
-2.07018e-05
1.84169e-05
-2.00167e-05
3.17974e-05
-3.87712e-05
3.16718e-05
-3.66298e-05
3.46897e-05
-2.90012e-05
3.61005e-05
-2.71868e-05
3.80946e-05
-1.52858e-05
3.94104e-05
-1.06185e-05
4.00813e-05
-5.09484e-06
4.08597e-05
-1.51853e-06
4.15084e-05
2.99332e-06
4.16678e-05
7.26092e-06
3.92859e-05
1.25735e-05
3.96171e-05
1.01657e-05
3.27802e-05
4.14411e-05
2.99368e-05
4.40143e-05
1.28958e-05
8.30423e-05
0.000121304
3.13925e-06
-2.45298e-05
6.59741e-06
-2.63824e-05
9.21027e-06
-2.91595e-05
1.19818e-05
-2.29573e-05
1.56712e-05
-3.06121e-05
1.6133e-05
-2.11636e-05
2.92697e-05
-3.31534e-05
3.00229e-05
-3.95245e-05
3.21877e-05
-3.87945e-05
3.57173e-05
-3.25309e-05
3.79214e-05
-2.93909e-05
4.03309e-05
-1.76953e-05
4.1775e-05
-1.20626e-05
4.23649e-05
-5.68479e-06
4.29975e-05
-2.1511e-06
4.37896e-05
2.20125e-06
4.4582e-05
6.46845e-06
4.36971e-05
1.34584e-05
4.12538e-05
1.2609e-05
3.51198e-05
4.75751e-05
3.30568e-05
4.60773e-05
1.24407e-05
0.000103658
0.000133745
3.14949e-05
-3.14949e-05
0.000105185
-7.36896e-05
0.000162126
-5.69418e-05
0.000219603
-5.74763e-05
0.000227042
-7.43935e-06
0.000132754
9.42885e-05
-6.32976e-06
0.000139083
-0.000105751
9.94216e-05
-0.000141596
3.58452e-05
-0.000159385
1.77882e-05
-0.00016747
8.08499e-06
-0.000168983
1.51344e-06
-0.000169517
5.34244e-07
-0.00013223
-3.72878e-05
-0.000117609
-1.46212e-05
-8.78332e-05
-2.97753e-05
-4.74881e-05
-4.03451e-05
-2.34855e-05
-2.40026e-05
-2.34855e-05
8.54618e-05
-0.000116957
8.22186e-05
-7.04464e-05
8.45669e-05
-5.92902e-05
0.00011318
-8.60891e-05
0.000111321
-5.58032e-06
2.66609e-05
0.000178948
-7.089e-05
0.000236634
-0.000116888
0.00014542
-0.000148328
6.72851e-05
-0.000162365
3.18256e-05
-0.00017136
1.70796e-05
-0.00017222
2.37293e-06
-0.000175654
3.96886e-06
-0.00013253
-8.0412e-05
-6.85003e-05
-7.86506e-05
-5.17715e-05
-4.6504e-05
-4.5845e-05
-4.62717e-05
-2.16971e-05
-4.81502e-05
-4.51827e-05
4.14108e-05
-0.000158368
6.78007e-05
-9.68363e-05
8.32446e-05
-7.47341e-05
3.78117e-05
-4.06562e-05
-3.79287e-05
7.01601e-05
-4.37252e-05
0.000184745
-0.000116402
0.000309311
-0.000134718
0.000163736
-0.000161111
9.3678e-05
-0.000169887
4.06008e-05
-0.000169473
1.66664e-05
-0.000167264
1.63533e-07
-0.000179441
1.61458e-05
-0.000141855
-0.000117997
-6.85817e-05
-0.000151924
-4.7386e-05
-6.76996e-05
-2.42946e-05
-6.93632e-05
-1.198e-05
-6.04647e-05
-5.71627e-05
1.98909e-05
-0.000178258
6.55062e-05
-0.000142452
3.24402e-05
-4.16681e-05
-5.582e-05
4.76039e-05
-0.000148118
0.000162458
-0.000139494
0.000176121
-0.000122981
0.000292798
-0.000130023
0.000170778
-0.000157817
0.000121472
-0.000178623
6.14065e-05
-0.00017768
1.57242e-05
-0.000173702
-3.81445e-06
-0.000118528
-3.90282e-05
-0.000137342
-9.91838e-05
-0.000110995
-0.000178271
-7.81628e-05
-0.000100532
-4.27268e-05
-0.000104799
-1.25201e-05
-9.06713e-05
-6.96828e-05
8.54973e-06
-0.000186808
-1.01422e-05
-0.00012376
-1.0326e-05
-4.14843e-05
-8.86e-05
0.000125878
-0.000173014
0.000246872
-0.000155662
0.000158769
-0.00013408
0.000271215
-0.000129457
0.000166156
-0.000168565
0.00016058
-0.000107677
5.17638e-07
-0.000179392
8.74399e-05
-0.000176654
-6.55294e-06
-0.000199202
-1.648e-05
-0.000154948
-0.000143438
-0.000108639
-0.00022458
-4.04688e-05
-0.000168702
-2.38459e-05
-0.000121422
-1.13795e-05
-0.000103138
-8.10623e-05
-8.4873e-05
-0.000101935
-6.44618e-05
-0.000144171
-3.9242e-05
-6.67043e-05
-0.000121017
0.000207653
-0.00011883
0.000244685
-0.000162271
0.000202209
-0.000140613
0.000249557
-0.000130609
0.000156152
-0.000104159
0.00013413
-0.000163379
5.97372e-05
-0.000176236
0.000100297
-0.000168577
-1.42121e-05
-0.000105515
-7.95423e-05
-8.52995e-05
-0.000163653
-9.73362e-05
-0.000212543
-5.95813e-05
-0.000206457
-2.02924e-05
-0.000160711
-1.09e-05
-0.00011253
-9.19623e-05
-2.28252e-05
-7.911e-05
-4.2132e-05
-0.000124864
-9.88889e-05
-9.9475e-06
-0.000107407
0.000216171
-0.000122081
0.00025936
-0.00018796
0.000268089
-9.29589e-05
0.000154555
-0.000123599
0.000186792
-9.64444e-05
0.000106976
-0.00013877
0.000102063
-0.000111324
7.28516e-05
-7.73458e-05
-4.81904e-05
-9.69278e-05
-5.99603e-05
-9.9322e-05
-0.000161259
-5.86384e-05
-0.000253227
-5.25949e-05
-0.0002125
-2.97152e-05
-0.000183591
-1.54655e-05
-0.00012678
-0.000107428
8.56371e-06
-8.76737e-05
-5.91517e-05
-5.71485e-05
-0.000106786
3.76868e-05
-0.000123354
0.000232738
-0.000182082
0.000318088
-0.000195299
0.000281305
-0.000101166
6.04219e-05
-7.42947e-05
0.000159921
-9.29414e-05
0.000125622
-8.83972e-05
9.75183e-05
-1.33392e-05
-2.20633e-06
5.54889e-06
-6.70785e-05
-7.22892e-06
-4.71826e-05
-1.04398e-05
-0.000158048
-3.48848e-05
-0.000228782
-4.32572e-05
-0.000204128
-2.52963e-05
-0.000201552
-7.67352e-06
-0.000144402
-0.000115101
6.32006e-06
-3.08499e-05
1.28329e-05
-3.28953e-05
1.75529e-05
-3.38794e-05
2.50739e-05
-3.04783e-05
2.9189e-05
-3.47272e-05
5.09418e-05
-4.29163e-05
5.88622e-05
-4.10738e-05
6.39601e-05
-4.46224e-05
7.05834e-05
-4.54178e-05
7.8433e-05
-4.03805e-05
8.53967e-05
-3.63545e-05
9.28246e-05
-2.51232e-05
9.64986e-05
-1.57367e-05
9.7004e-05
-6.19019e-06
9.6075e-05
-1.22205e-06
9.48995e-05
3.37677e-06
9.5833e-05
5.53492e-06
9.70011e-05
1.22902e-05
9.85048e-05
1.11053e-05
8.98614e-05
5.62185e-05
5.68249e-05
7.91138e-05
4.28772e-05
0.000117606
7.06214e-05
0.000106
5.80226e-06
-3.66521e-05
1.26507e-05
-3.97438e-05
1.77468e-05
-3.89755e-05
3.35091e-05
-4.62406e-05
4.11785e-05
-4.23966e-05
4.93022e-05
-5.10399e-05
5.55575e-05
-4.73291e-05
6.33735e-05
-5.24385e-05
7.48028e-05
-5.68471e-05
8.66203e-05
-5.2198e-05
9.69528e-05
-4.6687e-05
0.000106063
-3.42331e-05
0.000109461
-1.91353e-05
0.000109101
-5.82994e-06
0.000107716
1.62871e-07
0.000108809
2.28413e-06
0.000105173
9.17099e-06
9.89628e-05
1.85e-05
6.6091e-05
4.39772e-05
6.70163e-05
5.52931e-05
6.57498e-05
8.03803e-05
0.000131983
5.13726e-05
5.66704e-05
0.000145934
8.81803e-06
-4.54702e-05
1.68417e-05
-4.77674e-05
2.58374e-05
-4.79713e-05
3.25854e-05
-5.29886e-05
3.9928e-05
-4.97392e-05
4.56605e-05
-5.67724e-05
5.58912e-05
-5.75598e-05
6.92795e-05
-6.58268e-05
8.08353e-05
-6.8403e-05
9.22591e-05
-6.36218e-05
0.000107483
-6.19113e-05
0.000120599
-4.73484e-05
0.000119175
-1.77116e-05
0.000109819
3.52595e-06
0.000104686
5.29563e-06
0.000108156
-1.18509e-06
0.000113261
4.06557e-06
0.000120287
1.14745e-05
0.000136491
2.77722e-05
0.00013735
5.44345e-05
0.000141917
7.58137e-05
0.000123836
6.94533e-05
5.07953e-05
0.000129711
9.77301e-06
-5.52432e-05
1.66455e-05
-5.46399e-05
2.47106e-05
-5.60364e-05
3.06861e-05
-5.89641e-05
3.75194e-05
-5.65725e-05
4.40469e-05
-6.32999e-05
5.37765e-05
-6.72894e-05
6.90831e-05
-8.11334e-05
8.50916e-05
-8.44114e-05
9.97245e-05
-7.82546e-05
0.000115297
-7.74836e-05
0.000128878
-6.09294e-05
0.000121136
-9.96964e-06
0.000100428
2.42338e-05
0.00010473
9.93887e-07
0.000121207
-1.76627e-05
0.000138313
-1.30404e-05
0.000151682
-1.89471e-06
0.000147206
3.2249e-05
0.00014168
5.99602e-05
0.00013773
7.97638e-05
0.000135646
7.15369e-05
7.23618e-05
0.00011408
5.82662e-06
-6.10698e-05
9.4488e-06
-5.82621e-05
1.95611e-05
-6.61487e-05
2.88428e-05
-6.82459e-05
3.59427e-05
-6.36724e-05
4.14485e-05
-6.88056e-05
5.1077e-05
-7.69178e-05
6.30418e-05
-9.30982e-05
6.8089e-05
-8.94587e-05
6.67056e-05
-7.68712e-05
6.02476e-05
-7.10256e-05
5.34052e-05
-5.4087e-05
5.95259e-05
-1.60904e-05
7.16159e-05
1.21438e-05
9.31241e-05
-2.05143e-05
0.000112642
-3.71802e-05
0.000124503
-2.49018e-05
8.19334e-05
4.06748e-05
8.53135e-05
2.8869e-05
7.91103e-05
6.61634e-05
0.000133163
2.57106e-05
0.00012729
7.74106e-05
7.54693e-05
0.000124182
2.00466e-06
-6.30745e-05
5.72944e-06
-6.19869e-05
1.72045e-05
-7.76238e-05
2.71653e-05
-7.82067e-05
3.42229e-05
-7.07299e-05
3.63472e-05
-7.09299e-05
3.41019e-05
-7.46725e-05
2.66925e-05
-8.56887e-05
1.8679e-05
-8.14452e-05
1.50717e-05
-7.32639e-05
1.04856e-05
-6.64395e-05
1.72895e-05
-6.0891e-05
4.67135e-05
-4.55143e-05
7.4107e-05
-1.52498e-05
9.32297e-05
-3.9637e-05
0.000100575
-4.45257e-05
0.000127351
-5.16776e-05
0.000150805
1.72209e-05
0.000150501
2.91733e-05
0.000141956
7.4708e-05
7.32023e-05
9.44642e-05
7.31268e-05
7.74862e-05
2.39868e-05
0.000124609
-6.3255e-07
-6.24419e-05
1.46687e-06
-6.40863e-05
1.11713e-05
-8.73283e-05
2.64661e-05
-9.35015e-05
3.56375e-05
-7.99013e-05
3.73406e-05
-7.26329e-05
3.22683e-05
-6.96002e-05
2.28878e-05
-7.63082e-05
1.69865e-05
-7.55439e-05
1.69806e-05
-7.3258e-05
1.38178e-05
-6.32768e-05
3.20764e-05
-7.91496e-05
5.07087e-05
-6.41467e-05
6.51855e-05
-2.97266e-05
7.33841e-05
-4.78357e-05
6.47489e-05
-3.58905e-05
5.14376e-05
-3.83663e-05
7.23743e-05
-3.71589e-06
8.99259e-05
1.16218e-05
0.000126375
3.8259e-05
0.000168663
5.21757e-05
0.000175024
7.1126e-05
5.23718e-05
0.000146639
2.15294e-06
-6.45949e-05
6.93058e-06
-6.8864e-05
1.77787e-05
-9.81764e-05
2.87551e-05
-0.000104478
3.2655e-05
-8.38012e-05
3.55897e-05
-7.55675e-05
3.57136e-05
-6.97241e-05
3.68571e-05
-7.74517e-05
3.75435e-05
-7.62302e-05
4.56535e-05
-8.13681e-05
2.53217e-05
-4.2945e-05
4.21806e-05
-9.60085e-05
2.8065e-05
-5.00311e-05
3.82078e-05
-3.98695e-05
5.66067e-05
-6.62346e-05
7.14169e-05
-5.07008e-05
7.66686e-05
-4.3618e-05
8.96326e-05
-1.668e-05
0.000106764
-5.50989e-06
0.000135823
9.20013e-06
0.000173108
1.48912e-05
0.000187114
5.71193e-05
9.03489e-05
0.000149137
6.00313e-06
-7.0598e-05
1.50083e-05
-7.78691e-05
2.26993e-05
-0.000105867
3.02756e-05
-0.000112054
3.11554e-05
-8.4681e-05
3.40958e-05
-7.85078e-05
3.31739e-05
-6.88022e-05
3.31719e-05
-7.74497e-05
1.95954e-05
-6.26537e-05
1.9881e-05
-8.16536e-05
5.25624e-05
-7.56265e-05
5.25658e-05
-9.60119e-05
5.42392e-05
-5.17045e-05
6.0427e-05
-4.60574e-05
7.66088e-05
-8.24165e-05
9.54316e-05
-6.95237e-05
0.000110748
-5.8934e-05
0.000118293
-2.42253e-05
0.000125097
-1.2314e-05
0.000150993
-1.6696e-05
0.000150919
1.49656e-05
0.000194977
1.30607e-05
1.2103e-05
0.000273223
8.23985e-06
-7.88379e-05
1.74011e-05
-8.70304e-05
2.63004e-05
-0.000114767
3.47559e-05
-0.00012051
3.51448e-05
-8.50698e-05
3.96864e-05
-8.30494e-05
4.25463e-05
-7.16622e-05
3.92089e-05
-7.41123e-05
4.05346e-05
-6.39794e-05
2.91978e-05
-7.03168e-05
2.86156e-05
-7.50442e-05
2.33825e-05
-9.07788e-05
2.52644e-05
-5.35865e-05
5.98257e-05
-8.06186e-05
6.82807e-05
-9.08715e-05
5.96363e-05
-6.08793e-05
7.94279e-05
-7.87257e-05
7.98464e-05
-2.46438e-05
0.000136383
-6.88511e-05
0.000164809
-4.51212e-05
0.0002033
-2.35259e-05
0.000219637
-3.27601e-06
-1.34313e-05
0.000245171
8.38745e-06
-8.72253e-05
1.72453e-05
-9.58882e-05
2.80294e-05
-0.000125551
3.36887e-05
-0.000126169
3.55498e-05
-8.69309e-05
4.15194e-05
-8.9019e-05
4.38635e-05
-7.40063e-05
4.58533e-05
-7.61021e-05
4.7541e-05
-6.56671e-05
5.60246e-05
-7.88004e-05
5.23604e-05
-7.138e-05
5.40321e-05
-9.24504e-05
5.2748e-05
-5.23024e-05
5.83656e-05
-8.62362e-05
4.59535e-05
-7.84594e-05
6.31904e-05
-7.81162e-05
7.19748e-05
-8.75101e-05
0.000127152
-7.98215e-05
0.000141819
-8.3518e-05
0.000158506
-6.1808e-05
0.000150827
-1.58465e-05
0.00019581
-4.82591e-05
-0.000105007
0.000287385
7.6183e-06
-9.48436e-05
1.18038e-05
-0.000100074
2.68497e-05
-0.000140597
2.83169e-05
-0.000127636
3.0659e-05
-8.9273e-05
2.79949e-05
-8.63549e-05
3.27129e-05
-7.87244e-05
5.41063e-05
-9.74955e-05
2.94871e-05
-4.10479e-05
5.98957e-05
-0.000109209
2.79036e-05
-3.93879e-05
4.65604e-05
-0.000111107
4.14952e-05
-4.72372e-05
6.90311e-05
-0.000113772
7.74142e-05
-8.68426e-05
0.000101574
-0.000102276
0.00011717
-0.000103106
0.000123096
-8.57468e-05
0.000139819
-0.000100241
0.000112104
-3.40933e-05
0.000138882
-4.26245e-05
0.00015516
-6.4537e-05
-0.000119954
0.000170107
5.268e-06
-0.000100112
1.05726e-05
-0.000105378
2.34209e-05
-0.000153445
2.60464e-05
-0.000130262
2.00842e-05
-8.33108e-05
2.36334e-05
-8.99041e-05
4.14325e-05
-9.65236e-05
5.35443e-05
-0.000109607
7.0504e-05
-5.80076e-05
3.3882e-05
-7.2587e-05
4.88899e-05
-5.43957e-05
5.22748e-05
-0.000114492
6.02113e-05
-5.51736e-05
6.7745e-05
-0.000121306
7.5705e-05
-9.48026e-05
7.3096e-05
-9.96674e-05
8.50589e-05
-0.000115069
0.000136038
-0.000136726
0.000108102
-7.23055e-05
0.000209532
-0.000135523
0.000216133
-4.9225e-05
0.000254015
-0.000102419
-4.84903e-05
0.000182551
3.65591e-06
-0.000103767
9.53479e-06
-0.000111257
1.93265e-05
-0.000163237
1.6244e-05
-0.000127179
1.39791e-05
-8.1046e-05
1.99332e-05
-9.58582e-05
3.41865e-05
-0.000110777
3.43925e-05
-0.000109813
4.52631e-05
-6.88782e-05
4.34716e-05
-7.07956e-05
5.0644e-05
-6.15681e-05
6.05979e-05
-0.000124446
6.14036e-05
-5.59794e-05
5.10498e-05
-0.000110952
6.69269e-05
-0.00011068
0.000112053
-0.000144794
0.000121372
-0.000124388
0.000127092
-0.000142447
0.000123031
-6.82442e-05
0.000149918
-0.00016241
0.000265964
-0.000165271
0.000304272
-0.000140727
-0.000110017
0.000365799
4.7467e-06
-0.000108514
9.93925e-06
-0.000116449
2.04061e-05
-0.000173703
2.14975e-05
-0.000128271
1.05011e-05
-7.00496e-05
2.48084e-05
-0.000110166
2.14409e-05
-0.000107409
1.93062e-05
-0.000107679
7.9953e-05
-0.000129525
7.22719e-05
-6.31144e-05
0.000102486
-9.17821e-05
5.45005e-05
-7.64604e-05
6.22002e-05
-6.3679e-05
6.33174e-05
-0.000112069
0.000123401
-0.000170763
7.39315e-05
-9.53245e-05
0.000132837
-0.000183293
7.28597e-05
-8.24697e-05
0.0001763
-0.000171684
0.000149154
-0.000135265
0.00016296
-0.000179077
0.000191174
-0.000168941
-0.000145546
0.000226702
4.71767e-06
-0.000113232
6.15745e-06
-0.000117889
1.08036e-05
-0.000178349
1.26037e-05
-0.000130071
9.43904e-06
-6.68849e-05
2.05738e-05
-0.0001213
1.86062e-05
-0.000105442
3.10757e-05
-0.000120148
2.63073e-05
-0.000124757
7.98796e-05
-0.000116687
5.71251e-05
-6.90276e-05
5.38809e-05
-7.32161e-05
5.58782e-05
-6.56763e-05
9.42168e-05
-0.000150408
9.5698e-05
-0.000172244
7.90388e-05
-7.86653e-05
8.23791e-05
-0.000186633
9.42659e-05
-9.43565e-05
0.000120141
-0.000197559
0.000151715
-0.000166839
0.000177652
-0.000205014
0.000200338
-0.000191627
-0.000164677
0.000219469
2.96474e-06
-0.000116196
4.41294e-06
-0.000119337
1.38709e-05
-0.000187807
7.30389e-06
-0.000123504
1.68379e-05
-7.6419e-05
1.67358e-05
-0.000121198
1.69275e-05
-0.000105634
2.60622e-05
-0.000129283
4.43938e-05
-0.000143088
8.47807e-05
-0.000157074
8.2093e-05
-6.63398e-05
8.08968e-05
-7.20199e-05
8.32374e-05
-6.80169e-05
9.28492e-05
-0.000160019
6.30484e-05
-0.000142443
0.000121394
-0.000137011
8.86644e-05
-0.000153903
0.000101221
-0.000106913
0.000118576
-0.000214914
0.000154198
-0.000202461
0.000192784
-0.000243601
0.000200865
-0.000199707
-0.000243718
0.000279905
5.8893e-06
-0.000122086
9.92504e-06
-0.000123373
8.03124e-06
-0.000185914
2.28117e-05
-0.000138284
5.39999e-06
-5.90073e-05
1.91662e-05
-0.000134964
2.11829e-05
-0.00010765
2.46755e-05
-0.000132775
3.76551e-05
-0.000156068
5.75723e-05
-0.000176991
6.87587e-05
-7.75263e-05
8.02181e-05
-8.34793e-05
9.5445e-05
-8.32438e-05
0.000104173
-0.000168747
0.000102208
-0.000140479
9.77983e-05
-0.000132601
8.02651e-05
-0.00013637
0.000158589
-0.000185238
0.000137152
-0.000193476
0.00017346
-0.00023877
0.000195798
-0.000265938
0.000211394
-0.000215303
-0.000352103
0.000319779
-1.44782e-05
-0.000107608
-2.29286e-05
-0.000114923
5.50782e-06
-0.00021435
-1.43853e-05
-0.000118391
2.1937e-05
-9.53296e-05
2.92938e-06
-0.000115957
-1.39813e-05
-9.07396e-05
2.52196e-05
-0.000171976
3.08276e-05
-0.000161676
3.62919e-05
-0.000182455
5.7812e-05
-9.90464e-05
6.54425e-05
-9.11098e-05
8.36253e-05
-0.000101427
7.04615e-05
-0.000155583
0.000121157
-0.000191175
7.06029e-05
-8.2047e-05
0.000138332
-0.0002041
0.000153847
-0.000200752
0.000187805
-0.000227434
0.000178055
-0.000229021
0.000211872
-0.000299754
0.000332249
-0.000335681
-0.0003813
0.000361446
1.23403e-05
-0.000119948
3.34002e-05
-0.000135983
-2.16777e-05
-0.000159272
-1.24232e-05
-0.000127646
1.34964e-05
-0.000121249
2.29541e-05
-0.000125414
5.68076e-05
-0.000124593
1.42723e-05
-0.000129441
3.77225e-05
-0.000185126
4.219e-05
-0.000186923
4.25439e-05
-9.94003e-05
3.99983e-05
-8.85642e-05
0.000134197
-0.000195625
8.04106e-05
-0.000101797
4.07617e-05
-0.000151526
7.70892e-05
-0.000118375
0.000112775
-0.000239786
0.000135528
-0.000223504
0.000123566
-0.000215472
0.000153567
-0.000259022
0.00018166
-0.000327847
0.000217045
-0.000371066
-0.000499466
0.00033521
4.94391e-07
-0.000120442
4.09677e-06
-0.000139585
1.26172e-07
-0.000155301
2.34896e-06
-0.000129868
1.14407e-05
-0.000130341
1.3541e-05
-0.000127515
2.73859e-05
-0.000138438
2.29673e-05
-0.000125022
3.32692e-05
-0.000195428
5.6756e-05
-0.000210409
6.72674e-05
-0.000109912
9.38995e-05
-0.000115196
3.14846e-05
-0.00013321
5.56566e-05
-0.000125969
4.77678e-05
-0.000143637
6.23484e-05
-0.000132955
7.79759e-05
-0.000255413
8.86628e-05
-0.000234191
0.000110459
-0.000237268
0.000133893
-0.000282457
0.000156931
-0.000350885
0.000186103
-0.000400238
-0.000511602
0.000198239
2.23437e-06
-0.000122677
9.59813e-06
-0.000146949
3.01129e-06
-0.000148715
1.26974e-05
-0.000139555
8.7512e-06
-0.000126395
1.94387e-05
-0.000138202
1.48726e-05
-0.000133872
7.64338e-05
-0.000186584
7.78188e-05
-0.000196813
1.11144e-05
-0.000143705
2.36968e-05
-0.000122494
4.04392e-05
-0.000131939
4.61808e-05
-0.000138952
6.84592e-05
-0.000148247
7.43192e-05
-0.000149497
9.11672e-05
-0.000149803
8.04331e-05
-0.000244679
8.94322e-05
-0.00024319
0.000141257
-0.000289093
0.00012906
-0.000270259
0.000139527
-0.000361351
0.000175956
-0.000436667
-0.000564741
0.000229095
-8.17971e-06
-0.000114497
-4.61862e-06
-0.00015051
-7.45101e-06
-0.000145882
-1.83421e-05
-0.000128663
2.66426e-05
-0.000171379
1.66853e-05
-0.000128245
6.67671e-05
-0.000183954
3.66951e-05
-0.000156511
4.30432e-05
-0.000203161
2.46946e-05
-0.000125356
3.35505e-05
-0.00013135
2.92176e-05
-0.000127606
2.71768e-05
-0.000136911
4.10771e-05
-0.000162148
4.83923e-05
-0.000156812
6.76267e-05
-0.000169038
8.64569e-05
-0.000263509
0.000159563
-0.000316297
7.98338e-05
-0.000209363
0.00016045
-0.000350876
0.000181122
-0.000382023
0.000215628
-0.000471173
-0.00055982
0.000210706
2.98849e-05
-0.000144382
1.03558e-05
-0.000130981
3.30625e-07
-0.000135857
2.80514e-05
-0.000156384
1.3403e-05
-0.000156731
5.649e-05
-0.000171332
3.35083e-05
-0.000160972
3.65353e-05
-0.000159538
3.26099e-05
-0.000199236
1.47915e-05
-0.000107538
1.29821e-05
-0.000129541
1.35425e-05
-0.000128166
1.66756e-05
-0.000140044
1.00818e-05
-0.000155554
9.50717e-05
-0.000241802
7.73658e-05
-0.000151332
0.000108193
-0.000294337
9.97234e-05
-0.000307827
8.07552e-05
-0.000190395
9.34238e-05
-0.000363544
9.82204e-05
-0.000386819
0.000104624
-0.000477577
-0.000533081
7.78858e-05
-3.37262e-05
-0.000110656
5.03018e-06
-0.000169737
5.05939e-05
-0.000181421
3.4237e-05
-0.000140027
3.17951e-05
-0.000154289
2.91431e-05
-0.00016868
7.00201e-05
-0.000201849
2.78108e-05
-0.000117329
-2.80075e-05
-0.000143417
-1.01049e-05
-0.00012544
1.61281e-06
-0.000141258
9.73906e-06
-0.000136292
2.48158e-05
-0.000155121
2.40685e-05
-0.000154807
6.46897e-05
-0.000282423
5.98083e-05
-0.000146451
7.96752e-05
-0.000314204
8.06343e-05
-0.000308786
7.54623e-05
-0.000185223
8.94626e-05
-0.000377545
0.000103252
-0.000400609
0.000161212
-0.000535537
-0.000403656
3.17862e-05
-1.77727e-06
-0.000108878
2.88318e-06
-0.000174398
5.45664e-06
-0.000183994
7.23947e-06
-0.00014181
1.82054e-05
-0.000165255
3.52507e-05
-0.000185725
-2.47803e-05
-0.000141818
-1.16516e-05
-0.000130458
-1.1436e-05
-0.000143633
-5.20899e-06
-0.000131667
-6.71762e-06
-0.00013975
-1.04434e-05
-0.000132567
-1.97596e-05
-0.000145805
4.25384e-05
-0.000217105
4.14468e-05
-0.000281332
0.000138274
-0.000243278
3.69024e-05
-0.000212832
4.61078e-05
-0.000317992
7.61066e-05
-0.000215222
0.000130647
-0.000432085
3.5605e-05
-0.000305567
5.9546e-05
-0.000559478
-0.000379731
3.56208e-05
-1.88247e-05
-9.00538e-05
1.59466e-05
-0.000209169
4.47484e-05
-0.000212796
2.39445e-05
-0.000121006
-9.01127e-07
-0.000140409
-3.77376e-05
-0.000148889
-2.69708e-05
-0.000152584
-1.53989e-05
-0.00014203
-1.57836e-05
-0.000143248
-9.4821e-06
-0.000137969
-6.89718e-06
-0.000142335
-9.96255e-07
-0.000138468
-2.51966e-06
-0.000144281
2.27775e-05
-0.000242402
1.6826e-05
-0.00027538
5.20244e-05
-0.000278476
3.30878e-05
-0.000193895
5.19327e-05
-0.000336836
6.52408e-05
-0.00022853
6.48315e-05
-0.000431676
2.4277e-05
-0.000265012
-1.68943e-05
-0.000518306
-0.000336438
-6.01871e-05
4.72304e-05
-0.000137284
-6.67096e-07
-0.000161272
-5.24739e-05
-0.000160989
-2.0905e-05
-0.000152575
-1.06657e-05
-0.000150649
-7.67891e-06
-0.000151875
-1.2808e-05
-0.000147455
-1.10897e-05
-0.000143748
-1.10612e-05
-0.000143277
-7.79221e-06
-0.000141238
-8.12493e-06
-0.000142002
-3.64229e-06
-0.00014295
-3.60878e-06
-0.000144315
1.09871e-05
-0.000256998
9.50009e-06
-0.000273893
2.85451e-05
-0.000297521
1.54264e-05
-0.000180777
3.66348e-05
-0.000358045
2.66458e-05
-0.000218541
3.3283e-05
-0.000438313
3.74133e-05
-0.000269142
-0.000116174
-0.000364719
-0.000347071
-0.000105541
5.19615e-06
-0.00014248
1.1761e-07
-0.000156193
-3.42272e-06
-0.000157449
-5.10977e-06
-0.000150888
-6.19154e-06
-0.000149567
-1.10111e-05
-0.000147056
-1.16997e-05
-0.000146767
-1.00075e-05
-0.00014544
-9.56499e-06
-0.000143719
-6.78635e-06
-0.000144017
-5.60633e-06
-0.000143182
-4.3272e-06
-0.000144229
-4.13597e-06
-0.000144506
5.61377e-07
-0.000261695
-7.37799e-06
-0.000265954
6.92604e-06
-0.000311825
5.49911e-05
-0.000228842
-5.46296e-05
-0.000248424
2.6698e-07
-0.000273437
-3.57694e-05
-0.000402277
-3.7013e-05
-0.000267899
-0.000100383
-0.000301349
-0.000325801
-0.000121652
2.53517e-06
-0.000145015
-2.13235e-06
-0.000151526
-7.46247e-06
-0.000152119
-8.3621e-06
-0.000149988
-1.00823e-05
-0.000147847
-9.16612e-06
-0.000147972
-9.29621e-06
-0.000146637
-8.14586e-06
-0.00014659
-8.07037e-06
-0.000143795
-6.42592e-06
-0.000145661
-5.09757e-06
-0.00014451
-3.04674e-06
-0.00014628
-5.77516e-06
-0.000141778
-8.00032e-06
-0.00025947
-1.36234e-05
-0.000260331
-2.00881e-05
-0.000305361
-2.37796e-06
-0.000246552
-1.02106e-05
-0.000240591
5.02652e-06
-0.000288675
-0.000137923
-0.000259328
-5.56169e-05
-0.000350205
-0.000118676
-0.00023829
-0.000298442
-0.000146035
-9.45942e-08
-0.000144921
-1.45818e-06
-0.000150162
-3.29351e-06
-0.000150284
-4.62882e-06
-0.000148653
-6.22533e-06
-0.00014625
-6.54489e-06
-0.000147653
-6.5964e-06
-0.000146585
-5.78495e-06
-0.000147402
-3.38125e-06
-0.000146198
-1.24778e-06
-0.000147794
2.38206e-06
-0.00014814
1.34712e-05
-0.000157369
2.60681e-05
-0.000154374
-4.59272e-05
-0.000187475
-2.95835e-05
-0.000276674
-4.80891e-05
-0.000286855
-2.17884e-05
-0.000272853
3.208e-05
-0.00029446
-2.90685e-05
-0.000227526
-6.04543e-05
-0.000227942
-0.000186336
-0.000224323
-9.42762e-05
-0.00033035
-0.000243222
-0.000149496
-6.49045e-07
-0.000144272
-1.99166e-06
-0.000148819
-3.75643e-06
-0.000148519
-6.12736e-06
-0.000146282
-6.03378e-06
-0.000146344
-6.91621e-06
-0.00014677
-7.2854e-06
-0.000146216
-7.61214e-06
-0.000147075
-7.76675e-06
-0.000146044
-7.96777e-06
-0.000147593
-7.43909e-06
-0.000148669
-1.08283e-05
-0.00015398
-1.05321e-05
-0.000154671
-3.03724e-05
-0.000167635
-3.2671e-05
-0.000274376
-3.74057e-05
-0.00028212
-4.50787e-05
-0.00026518
-5.40974e-05
-0.000285441
-7.43455e-05
-0.000207278
-0.000104153
-0.000198134
-0.000127543
-0.000200934
-0.000123699
-0.000334193
-0.00019327
-0.000173651
-5.37976e-07
-0.000143734
-2.18754e-06
-0.00014717
-3.96833e-06
-0.000146738
-4.71321e-06
-0.000145537
-5.44368e-06
-0.000145613
-6.33267e-06
-0.000145881
-7.12612e-06
-0.000145423
-8.31746e-06
-0.000145884
-9.48297e-06
-0.000144878
-1.09237e-05
-0.000146153
-1.33186e-05
-0.000146274
-1.68363e-05
-0.000150462
-2.2502e-05
-0.000149005
-3.752e-05
-0.000152617
-3.98873e-05
-0.000272008
-4.46771e-05
-0.000277331
-5.44943e-05
-0.000255362
-5.81269e-05
-0.000281808
-0.000107921
-0.000157483
-6.88747e-05
-0.000237181
-5.41232e-05
-0.000215685
-0.000198124
-0.000190192
-0.000254163
-0.000137231
-2.54752e-07
-0.000143479
-1.75477e-06
-0.00014567
-3.533e-06
-0.00014496
-4.08785e-06
-0.000144983
-4.93896e-06
-0.000144762
-5.85498e-06
-0.000144965
-7.00127e-06
-0.000144276
-8.71955e-06
-0.000144166
-1.04152e-05
-0.000143183
-1.29378e-05
-0.00014363
-1.62554e-05
-0.000142956
-2.11429e-05
-0.000145575
-2.59021e-05
-0.000144246
-3.22094e-05
-0.000146309
-3.57769e-05
-0.000268441
-4.3856e-05
-0.000269251
-3.7749e-05
-0.000261469
-7.02923e-05
-0.000249265
-1.54967e-05
-0.000212279
-9.83292e-05
-0.000154348
-9.21246e-05
-0.00022189
-0.000121547
-0.00016077
-0.000213316
-0.000162394
-5.25347e-07
-0.000142954
-1.50149e-06
-0.000144694
-2.47523e-06
-0.000143986
-3.41678e-06
-0.000144041
-4.46658e-06
-0.000143713
-5.54018e-06
-0.000143892
-6.78156e-06
-0.000143035
-8.10724e-06
-0.00014284
-9.7213e-06
-0.000141569
-1.17752e-05
-0.000141576
-1.47899e-05
-0.000139942
-2.01549e-05
-0.00014021
-2.5815e-05
-0.000138586
-3.26521e-05
-0.000139472
-3.99919e-05
-0.000261101
-4.78525e-05
-0.000261391
-5.47327e-05
-0.000254589
-6.54447e-05
-0.000238553
-6.39863e-05
-0.000213737
-8.46174e-05
-0.000133717
-8.25235e-05
-0.000223984
-0.000134205
-0.000109088
-0.000199229
-0.000148291
-9.18127e-07
-0.000142036
-1.69523e-06
-0.000143917
-2.31951e-06
-0.000143362
-3.05221e-06
-0.000143308
-3.97106e-06
-0.000142794
-5.06445e-06
-0.000142798
-6.06176e-06
-0.000142038
-7.08592e-06
-0.000141816
-8.26235e-06
-0.000140392
-1.0129e-05
-0.00013971
-1.26387e-05
-0.000137432
-1.60277e-05
-0.000136821
-2.02843e-05
-0.000134329
-2.46434e-05
-0.000135113
-3.1843e-05
-0.000253901
-4.24777e-05
-0.000250756
-5.15299e-05
-0.000245537
-5.78915e-05
-0.000232191
-5.41937e-05
-0.000217435
-6.01517e-05
-0.000127759
-0.00016462
-0.000119516
-0.000129744
-0.000143964
-0.000152563
-0.00017641
-5.63104e-07
-0.000141473
-1.06884e-06
-0.000143411
-1.49659e-06
-0.000142934
-1.89664e-06
-0.000142908
-2.27628e-06
-0.000142414
-2.84507e-06
-0.00014223
-3.40799e-06
-0.000141475
-4.11528e-06
-0.000141109
-4.95104e-06
-0.000139556
-7.05117e-06
-0.00013761
-9.17258e-06
-0.000135311
-1.1827e-05
-0.000134167
-1.52801e-05
-0.000130876