/*--------------------------------*- C++ -*----------------------------------*\
| =========                 |                                                 |
| \\      /  F ield         | foam-extend: Open Source CFD                    |
|  \\    /   O peration     | Version:     4.1                                |
|   \\  /    A nd           | Web:         http://www.foam-extend.org         |
|    \\/     M anipulation  |                                                 |
\*---------------------------------------------------------------------------*/
FoamFile
{
    version     2.0;
    format      ascii;
    class       volVectorField;
    location    "0.35";
    object      U;
}
// * * * * * * * * * * * * * * * * * * * * * * * * * * * * * * * * * * * * * //

dimensions      [0 1 -1 0 0 0 0];

internalField   nonuniform List<vector> 
2268
(
(0.0430124 -0.00610232 0)
(0.0548474 -0.00509736 0)
(0.12921 -0.00801767 0)
(0.185098 -0.00375371 0)
(0.217639 -0.00491165 0)
(0.289199 -0.00826651 0)
(0.31083 -0.00402411 0)
(0.403855 -0.0054594 0)
(0.414898 -0.00765376 0)
(0.482062 -0.0435152 0)
(0.414531 -0.0380352 0)
(0.356752 0.00133252 0)
(0.423694 -0.00184145 0)
(0.423028 0.000166302 0)
(0.426588 0.00169149 0)
(0.418087 0.00131513 0)
(0.404208 0.0121568 0)
(0.390088 0.00579396 0)
(0.375206 -0.00144558 0)
(0.345656 0.0105031 0)
(0.277759 0.0292794 0)
(0.193752 0.014675 0)
(0.083548 0.039402 0)
(0.0426596 -0.0170004 0)
(0.0560428 -0.0151933 0)
(0.132454 -0.0230679 0)
(0.184398 -0.0166863 0)
(0.217693 -0.0203777 0)
(0.292938 -0.0130406 0)
(0.316709 -0.0238264 0)
(0.409025 -0.0196685 0)
(0.409528 -0.00887279 0)
(0.502549 0.0412525 0)
(0.397809 -0.108598 0)
(0.349454 -0.0178291 0)
(0.410623 -0.0153852 0)
(0.409369 -0.00562772 0)
(0.420082 0.00183751 0)
(0.414844 0.00399916 0)
(0.401423 0.00664293 0)
(0.377212 0.0227722 0)
(0.369789 0.0234945 0)
(0.344207 0.0356651 0)
(0.274821 0.0410248 0)
(0.197696 0.0783882 0)
(0.0512386 0.0925007 0)
(0.0403521 -0.0294194 0)
(0.0560526 -0.0262533 0)
(0.134798 -0.0385051 0)
(0.176038 -0.0234697 0)
(0.21882 -0.0310972 0)
(0.299754 -0.0315534 0)
(0.322297 -0.0315292 0)
(0.398862 -0.0284624 0)
(0.449504 -0.0328267 0)
(0.433016 -0.059966 0)
(0.372179 -0.134375 0)
(0.3619 -0.0335862 0)
(0.399852 -0.0238261 0)
(0.392954 -0.0101325 0)
(0.401856 -0.00127762 0)
(0.395148 0.0180638 0)
(0.386164 0.0179791 0)
(0.365024 0.0323643 0)
(0.355506 0.051369 0)
(0.324741 0.0604772 0)
(0.270963 0.0936638 0)
(0.197064 0.12173 0)
(0.0911494 0.153373 0)
(0.0372383 -0.0397354 0)
(0.0573996 -0.037453 0)
(0.137061 -0.0517938 0)
(0.169276 -0.0360644 0)
(0.233196 -0.0504677 0)
(0.30023 -0.0360197 0)
(0.323636 -0.0490033 0)
(0.409122 -0.0512796 0)
(0.342298 -0.0530847 0)
(0.333496 -0.105072 0)
(0.327742 -0.0944947 0)
(0.30587 -0.0275084 0)
(0.331393 -0.0238773 0)
(0.326358 -0.0102993 0)
(0.33704 -0.00255285 0)
(0.330373 0.0151506 0)
(0.32275 0.0217506 0)
(0.304754 0.0525747 0)
(0.299854 0.0582637 0)
(0.284445 0.0748286 0)
(0.237605 0.0998515 0)
(0.201778 0.165755 0)
(0.0654618 0.228078 0)
(0.0316196 -0.0517917 0)
(0.0572993 -0.0497889 0)
(0.136368 -0.0648764 0)
(0.168736 -0.0459398 0)
(0.235827 -0.0625299 0)
(0.288902 -0.0539369 0)
(0.316562 -0.0567685 0)
(0.408065 -0.0312856 0)
(0.311338 -0.134171 0)
(0.288779 -0.0771818 0)
(0.290595 -0.0975103 0)
(0.280425 -0.0431827 0)
(0.308039 -0.0304774 0)
(0.298946 -0.0157839 0)
(0.30818 -0.00148529 0)
(0.296697 0.00973909 0)
(0.304947 0.0279664 0)
(0.288832 0.0536732 0)
(0.283277 0.0677213 0)
(0.268874 0.0949649 0)
(0.20939 0.129269 0)
(0.193084 0.201529 0)
(0.102189 0.280149 0)
(0.0262081 -0.0606553 0)
(0.0611963 -0.0621676 0)
(0.139281 -0.0785985 0)
(0.169903 -0.0597221 0)
(0.220663 -0.0801391 0)
(0.276782 -0.0525727 0)
(0.336318 -0.0843497 0)
(0.294785 -0.0556405 0)
(0.249142 -0.142625 0)
(0.265497 -0.0937895 0)
(0.282876 -0.0930647 0)
(0.274409 -0.0422892 0)
(0.299808 -0.0299539 0)
(0.292046 -0.0133767 0)
(0.302912 -0.00234944 0)
(0.29353 0.0152436 0)
(0.302601 0.0241222 0)
(0.293383 0.0753273 0)
(0.289552 0.0685012 0)
(0.274362 0.111088 0)
(0.199242 0.136245 0)
(0.200815 0.223196 0)
(0.080775 0.365282 0)
(0.02164 -0.0724847 0)
(0.0659282 -0.07642 0)
(0.132502 -0.0902619 0)
(0.157565 -0.0644546 0)
(0.220732 -0.087696 0)
(0.264197 -0.0862411 0)
(0.285378 -0.0514867 0)
(0.2658 -0.133251 0)
(0.233762 -0.131001 0)
(0.255128 -0.0963144 0)
(0.280292 -0.0943056 0)
(0.277306 -0.0543172 0)
(0.305561 -0.0366966 0)
(0.298033 -0.0183038 0)
(0.314994 -0.00235787 0)
(0.308922 0.0115652 0)
(0.331085 0.0312461 0)
(0.307769 0.0662157 0)
(0.300706 0.0864818 0)
(0.29869 0.139153 0)
(0.217599 0.167045 0)
(0.246187 0.258764 0)
(0.141751 0.414621 0)
(0.0238944 -0.0810266 0)
(0.0718968 -0.0881738 0)
(0.128486 -0.101057 0)
(0.150188 -0.0838432 0)
(0.211492 -0.109449 0)
(0.26326 -0.0595611 0)
(0.223479 -0.102166 0)
(0.228808 -0.145057 0)
(0.234862 -0.138491 0)
(0.257522 -0.112766 0)
(0.286313 -0.103668 0)
(0.292181 -0.0557947 0)
(0.321796 -0.0394775 0)
(0.316213 -0.0174213 0)
(0.331623 -0.00834587 0)
(0.327896 0.0115142 0)
(0.347557 0.0203281 0)
(0.340905 0.0286134 0)
(0.335522 0.0492739 0)
(0.29707 0.165614 0)
(0.257893 0.155101 0)
(0.250196 0.351447 0)
(0.127584 0.467213 0)
(-0.0710206 0.182687 0)
(0.534637 -0.310529 0)
(1.03951 -0.410252 0)
(1.42794 -0.392503 0)
(1.97743 -0.0669142 0)
(1.87932 0.157023 0)
(0.321993 0.350013 0)
(-0.587185 0.137659 0)
(-1.01566 0.0882859 0)
(-1.16973 0.00733382 0)
(-1.27565 -0.000774714 0)
(-1.34713 -0.0145228 0)
(-1.43738 -0.0190991 0)
(-1.1971 -0.180052 0)
(-0.967261 -0.0302855 0)
(-0.882054 -0.106424 0)
(-0.478221 -0.10963 0)
(-0.282698 -0.024112 0)
(-0.0797379 -0.0369906 0)
(0.710403 -0.363529 0)
(0.595441 -0.192625 0)
(0.699449 -0.36705 0)
(0.712824 -0.360416 0)
(1.06167 -0.0489045 0)
(1.03083 0.39359 0)
(-0.569029 1.35685 0)
(-0.702437 0.487359 0)
(-1.12168 0.356904 0)
(-1.20539 0.131861 0)
(-1.31509 0.0855843 0)
(-1.37107 0.021104 0)
(-1.49765 0.0117272 0)
(-1.24933 -0.230677 0)
(-1.00613 -0.155277 0)
(-0.99969 -0.289368 0)
(-0.496271 -0.147919 0)
(-0.25219 -0.141237 0)
(-0.0793346 -0.121716 0)
(0.267171 -0.51069 0)
(0.374117 -0.263157 0)
(0.666459 -0.38129 0)
(0.688927 -0.235872 0)
(-0.136763 0.0655271 0)
(-0.34243 1.01481 0)
(-0.931713 1.35689 0)
(-0.953271 0.497471 0)
(-1.19443 0.47148 0)
(-1.2913 0.250389 0)
(-1.37077 0.0950126 0)
(-1.37924 0.0108594 0)
(-1.49792 0.0557089 0)
(-1.34507 -0.392338 0)
(-1.03158 -0.4336 0)
(-0.963461 -0.235482 0)
(-0.459298 -0.162209 0)
(-0.280195 -0.16486 0)
(-0.0731499 -0.174946 0)
(0.0978469 -0.562615 0)
(0.194831 -0.406722 0)
(0.751689 -0.19459 0)
(0.262162 0.0153203 0)
(-1.12582 0.776504 0)
(-1.17382 1.29336 0)
(-1.02303 1.03632 0)
(-1.05273 0.642916 0)
(-1.1602 0.733116 0)
(-1.44629 0.267882 0)
(-1.4659 0.0252918 0)
(-1.44819 -0.00820193 0)
(-1.66121 0.00459139 0)
(-1.42252 -0.355619 0)
(-0.966017 -0.55994 0)
(-0.807715 -0.227834 0)
(-0.434451 -0.318547 0)
(-0.263823 -0.259485 0)
(-0.0905369 -0.208131 0)
(0.0342112 -0.638774 0)
(0.0777533 -0.579893 0)
(-0.215956 -0.035488 0)
(-0.113622 0.59084 0)
(-1.29177 1.30756 0)
(-1.38278 1.00536 0)
(-1.09834 0.954195 0)
(-1.04362 0.621997 0)
(-1.23493 0.655686 0)
(-1.54943 0.0755209 0)
(-1.53915 0.196829 0)
(-1.37402 -0.0117221 0)
(-1.59637 -0.17916 0)
(-1.4898 -0.437712 0)
(-1.02295 -0.719853 0)
(-0.719172 -0.478681 0)
(-0.46835 -0.363502 0)
(-0.259894 -0.338432 0)
(-0.0630875 -0.255313 0)
(0.0165197 -0.661735 0)
(-1.30718 -0.93009 0)
(-0.643338 -0.252179 0)
(-0.55001 0.878019 0)
(-1.56187 1.57949 0)
(-1.61497 1.05594 0)
(-1.13384 0.930646 0)
(-1.07624 0.551496 0)
(-1.29012 0.466886 0)
(-1.43816 0.00919301 0)
(-1.42754 0.363056 0)
(-1.33304 -0.00684786 0)
(-1.54857 -0.0922262 0)
(-1.48284 -0.507784 0)
(-1.0488 -0.753372 0)
(-0.603401 -0.692823 0)
(-0.345267 -0.465456 0)
(-0.266512 -0.352365 0)
(-0.0553636 -0.283223 0)
(-0.0321343 -0.626533 0)
(-0.257859 -0.87583 0)
(-1.04794 -0.150576 0)
(-0.568683 0.794535 0)
(-1.53903 1.46909 0)
(-1.78992 1.27497 0)
(-1.33478 0.797501 0)
(-1.184 0.575872 0)
(-1.24378 0.521207 0)
(-1.32022 0.390431 0)
(-1.02151 0.376833 0)
(-0.638722 -0.231661 0)
(-0.840211 -0.413346 0)
(-0.601673 -0.544724 0)
(-1.03082 -0.820096 0)
(-0.619361 -0.745908 0)
(-0.260072 -0.587281 0)
(-0.205127 -0.392385 0)
(-0.0398745 -0.336709 0)
(-0.0484964 -0.36048 0)
(0.147611 -0.633263 0)
(-1.00817 0.119954 0)
(-0.72793 0.708258 0)
(-1.49723 1.06783 0)
(-1.77748 1.09061 0)
(-1.58681 0.385841 0)
(-1.19877 0.813095 0)
(-1.08904 0.680569 0)
(-1.12707 0.711917 0)
(-0.383562 0.0585071 0)
(0.264121 -0.368491 0)
(-0.24481 -0.369805 0)
(0.192356 -0.535633 0)
(-0.477042 -0.85389 0)
(-0.55061 -0.697993 0)
(-0.204015 -0.632046 0)
(-0.181973 -0.451154 0)
(-0.0420567 -0.375616 0)
(0.027234 -0.102876 0)
(0.0635076 -0.108206 0)
(0.118442 -0.11504 0)
(0.133572 -0.0782801 0)
(0.22303 -0.115734 0)
(0.186185 -0.125008 0)
(0.191819 -0.150826 0)
(0.227846 -0.147763 0)
(0.235693 -0.142916 0)
(0.268045 -0.127475 0)
(0.294861 -0.109287 0)
(0.313883 -0.0805875 0)
(0.349413 -0.0501624 0)
(0.340053 -0.0269446 0)
(0.357009 -0.00574026 0)
(0.33714 0.0201456 0)
(0.357397 0.0364277 0)
(0.336609 0.0922789 0)
(0.384969 0.0504048 0)
(0.318834 0.186918 0)
(0.364731 0.217305 0)
(0.40283 0.426494 0)
(0.236739 0.55294 0)
(0.0357881 -0.11865 0)
(0.0471454 -0.128121 0)
(0.133392 -0.13024 0)
(0.116927 -0.145991 0)
(0.129038 -0.137608 0)
(0.167489 -0.183886 0)
(0.191901 -0.152089 0)
(0.209325 -0.172539 0)
(0.245958 -0.184544 0)
(0.289144 -0.161613 0)
(0.329993 -0.151195 0)
(0.363291 -0.0977471 0)
(0.394358 -0.0611625 0)
(0.388219 -0.0148019 0)
(0.394943 -0.000608267 0)
(0.384556 0.00730744 0)
(0.414142 0.0387973 0)
(0.351076 0.0794365 0)
(0.394527 0.111407 0)
(0.513576 0.219396 0)
(0.456699 0.341882 0)
(0.469498 0.440057 0)
(0.49416 0.442748 0)
(0.0223739 -0.144791 0)
(0.0403348 -0.157873 0)
(0.0809354 -0.152262 0)
(0.10354 -0.18804 0)
(0.132863 -0.171063 0)
(0.152196 -0.187755 0)
(0.17572 -0.190741 0)
(0.223388 -0.207424 0)
(0.272179 -0.224384 0)
(0.305198 -0.216371 0)
(0.354306 -0.188072 0)
(0.412602 -0.154635 0)
(0.449624 -0.0820458 0)
(0.404373 -0.0323312 0)
(0.38026 0.000143953 0)
(0.372598 0.00962111 0)
(0.412827 0.0300967 0)
(0.406 0.0592117 0)
(0.472434 0.205609 0)
(0.511674 0.193084 0)
(0.527785 0.266852 0)
(0.489714 0.28584 0)
(0.446786 0.383215 0)
(0.0288982 -0.182714 0)
(0.0403519 -0.186078 0)
(0.0793902 -0.194514 0)
(0.0956024 -0.194457 0)
(0.124799 -0.187594 0)
(0.142719 -0.221871 0)
(0.173772 -0.223 0)
(0.209332 -0.265491 0)
(0.281398 -0.267579 0)
(0.325735 -0.240538 0)
(0.394813 -0.259683 0)
(0.446442 -0.192231 0)
(0.488542 -0.0483734 0)
(0.37843 0.0568959 0)
(0.345214 0.037915 0)
(0.414316 -0.0189979 0)
(0.451431 -0.00276689 0)
(0.542322 0.0202266 0)
(0.554197 0.187156 0)
(0.523037 0.212313 0)
(0.515454 0.293959 0)
(0.519472 0.244475 0)
(0.460954 0.312843 0)
(0.0195555 -0.213726 0)
(0.021417 -0.205509 0)
(0.0461627 -0.207973 0)
(0.0907235 -0.228486 0)
(0.11654 -0.218219 0)
(0.137323 -0.233095 0)
(0.158617 -0.259466 0)
(0.202327 -0.317111 0)
(0.247618 -0.334787 0)
(0.23981 -0.317224 0)
(0.235883 -0.294568 0)
(0.193356 -0.237993 0)
(0.174623 -0.091703 0)
(0.258818 0.132887 0)
(0.250515 -0.0264118 0)
(0.420495 -0.103897 0)
(0.389828 -0.0889249 0)
(0.53285 -0.0323994 0)
(0.627651 0.0495087 0)
(0.594318 0.218184 0)
(0.514084 0.293557 0)
(0.472769 0.284784 0)
(0.469698 0.239862 0)
(0.0263963 -0.227954 0)
(-0.0121445 -0.214498 0)
(0.0533206 -0.266997 0)
(0.0694389 -0.257196 0)
(0.123705 -0.236994 0)
(0.123059 -0.26304 0)
(0.142555 -0.293313 0)
(0.105597 -0.354453 0)
(0.0879368 -0.321273 0)
(0.0468295 -0.253209 0)
(0.0562534 -0.237001 0)
(0.020874 -0.164322 0)
(0.0984016 -0.13927 0)
(0.234379 0.00388031 0)
(0.304327 -0.117016 0)
(0.357235 -0.171846 0)
(0.380804 -0.25513 0)
(0.549717 0.296483 0)
(0.577563 0.165921 0)
(0.561825 0.271194 0)
(0.504208 0.0980137 0)
(0.530528 0.29191 0)
(0.483865 0.303758 0)
(0.00396251 -0.231657 0)
(-0.00853286 -0.234417 0)
(0.018676 -0.293923 0)
(0.06097 -0.307624 0)
(0.128378 -0.275819 0)
(0.127781 -0.257946 0)
(0.142991 -0.25659 0)
(0.0895858 -0.279596 0)
(0.0792937 -0.265394 0)
(0.0409639 -0.268777 0)
(0.0833283 -0.220749 0)
(0.112338 -0.261711 0)
(0.122704 -0.174659 0)
(0.235898 -0.20388 0)
(0.24139 -0.161395 0)
(0.286229 -0.138647 0)
(0.177827 -0.134911 0)
(0.20726 -0.0148834 0)
(0.300547 0.0515362 0)
(0.359469 0.296172 0)
(0.557974 0.560739 0)
(0.675415 0.720095 0)
(0.627523 0.082037 0)
(0.00167688 -0.222459 0)
(0.0140054 -0.228147 0)
(0.035696 -0.335791 0)
(0.0912632 -0.368141 0)
(0.116865 -0.307925 0)
(0.118787 -0.270335 0)
(0.13795 -0.254173 0)
(0.123483 -0.281717 0)
(0.14031 -0.298426 0)
(0.140044 -0.276525 0)
(0.183534 -0.267734 0)
(0.184169 -0.328065 0)
(0.114244 -0.312507 0)
(0.0961412 -0.224143 0)
(0.173755 -0.193369 0)
(0.236982 -0.121527 0)
(0.279825 -0.142095 0)
(0.273321 -0.0556701 0)
(0.368133 0.00519814 0)
(0.400786 0.199759 0)
(0.601594 0.190589 0)
(0.631011 0.30071 0)
(0.811857 0.304558 0)
(-0.0101729 -0.242917 0)
(0.0527752 -0.266349 0)
(0.0554013 -0.369854 0)
(0.106167 -0.387558 0)
(0.114197 -0.309252 0)
(0.110835 -0.277863 0)
(0.136433 -0.256302 0)
(0.104152 -0.288184 0)
(0.144177 -0.245451 0)
(0.120368 -0.321417 0)
(0.174114 -0.315058 0)
(0.198454 -0.367441 0)
(0.189686 -0.388241 0)
(0.198427 -0.35057 0)
(0.245867 -0.280595 0)
(0.298596 -0.253965 0)
(0.395476 -0.171437 0)
(0.400396 -0.131451 0)
(0.44917 -0.0312119 0)
(0.468586 -0.0458694 0)
(0.660811 0.0478383 0)
(1.42612 0.134938 0)
(1.24656 0.290071 0)
(-0.00761051 -0.263589 0)
(0.0656024 -0.293871 0)
(0.0596554 -0.392442 0)
(0.128383 -0.420525 0)
(0.123327 -0.315682 0)
(0.132013 -0.288618 0)
(0.154173 -0.245538 0)
(0.155571 -0.28485 0)
(0.130238 -0.219574 0)
(0.168183 -0.268932 0)
(0.240511 -0.255373 0)
(0.168413 -0.339561 0)
(0.160335 -0.355392 0)
(0.203995 -0.303501 0)
(0.222986 -0.337641 0)
(0.293568 -0.246 0)
(0.540288 -0.265052 0)
(0.597205 -0.0541793 0)
(0.518133 -0.160069 0)
(0.516425 -0.0836489 0)
(0.674333 0.0368482 0)
(0.798718 0.0656437 0)
(0.821478 -0.0653722 0)
(-0.000865236 -0.304196 0)
(0.0580921 -0.339525 0)
(0.0718441 -0.430953 0)
(0.125032 -0.45135 0)
(0.121757 -0.311841 0)
(0.135139 -0.319117 0)
(0.166499 -0.277397 0)
(0.157342 -0.250833 0)
(0.167794 -0.246231 0)
(0.185296 -0.238966 0)
(0.216409 -0.292556 0)
(0.176322 -0.318624 0)
(0.210508 -0.412311 0)
(0.182674 -0.284409 0)
(0.255332 -0.312408 0)
(0.379485 -0.206785 0)
(0.525941 -0.299773 0)
(0.47466 -0.300395 0)
(0.50259 -0.336259 0)
(0.530835 -0.282614 0)
(0.685955 -0.183077 0)
(1.3949 -0.130715 0)
(1.29322 -0.182833 0)
(-0.0203868 -0.32995 0)
(0.0768034 -0.35556 0)
(0.0909602 -0.474234 0)
(0.106621 -0.464646 0)
(0.0923097 -0.333537 0)
(0.139381 -0.323547 0)
(0.25562 -0.260583 0)
(0.206288 -0.312306 0)
(0.191445 -0.229176 0)
(0.219856 -0.336268 0)
(0.231296 -0.217814 0)
(0.135197 -0.367493 0)
(0.234071 -0.3146 0)
(0.297176 -0.372365 0)
(0.248436 -0.277217 0)
(0.307791 -0.381023 0)
(0.450238 -0.350756 0)
(0.434382 -0.265251 0)
(0.483375 -0.294466 0)
(0.580833 -0.13006 0)
(0.97586 -0.0636275 0)
(1.004 -0.200639 0)
(1.14513 -0.542217 0)
(0.00809859 -0.35717 0)
(0.0695566 -0.36838 0)
(0.07869 -0.541352 0)
(0.092883 -0.485806 0)
(0.097567 -0.308615 0)
(0.188151 -0.312241 0)
(0.147047 -0.313947 0)
(0.156156 -0.394944 0)
(0.231991 -0.360667 0)
(0.283696 -0.476436 0)
(0.185769 -0.371454 0)
(0.189594 -0.438791 0)
(0.187751 -0.378379 0)
(0.24702 -0.459398 0)
(0.248894 -0.380108 0)
(0.340015 -0.341633 0)
(0.653622 -0.442281 0)
(0.516567 -0.460406 0)
(0.560848 -0.495466 0)
(0.864303 -0.389127 0)
(0.782121 -0.210327 0)
(0.837419 -0.271997 0)
(1.0652 -0.334235 0)
(0.0131261 -0.366122 0)
(0.0178825 -0.39482 0)
(0.0453114 -0.57153 0)
(0.106195 -0.478945 0)
(0.0949915 -0.298447 0)
(0.117855 -0.335509 0)
(0.143071 -0.400853 0)
(0.119044 -0.410505 0)
(0.120004 -0.469436 0)
(0.220115 -0.540277 0)
(0.397173 -0.333539 0)
(0.310765 -0.403413 0)
(0.143513 -0.393373 0)
(0.286184 -0.441527 0)
(0.456191 -0.290979 0)
(0.446855 -0.416773 0)
(0.437686 -0.373778 0)
(0.436122 -0.527351 0)
(0.581648 -0.466521 0)
(1.02891 -0.641441 0)
(1.03912 -0.538147 0)
(1.02201 -0.498016 0)
(1.19882 -0.367623 0)
(0.0297308 -0.395903 0)
(0.00864214 -0.427572 0)
(0.060363 -0.619492 0)
(0.0928556 -0.47273 0)
(0.0596908 -0.280671 0)
(0.0951824 -0.357444 0)
(0.0779584 -0.411556 0)
(0.0912466 -0.383266 0)
(0.166302 -0.504136 0)
(0.448566 -0.481013 0)
(0.510875 -0.600662 0)
(0.298214 -0.53132 0)
(0.0913477 -0.416999 0)
(0.387995 -0.353185 0)
(0.454881 -0.563665 0)
(0.474939 -0.676659 0)
(0.540383 -0.621156 0)
(0.472548 -0.545761 0)
(0.530399 -0.533086 0)
(0.825083 -0.539636 0)
(1.14335 -0.67526 0)
(1.22483 -0.542973 0)
(1.47161 -0.460092 0)
(0.0402502 -0.393371 0)
(-0.000950046 -0.42436 0)
(0.0439825 -0.640852 0)
(0.10854 -0.477685 0)
(0.066601 -0.228703 0)
(0.0712337 -0.436718 0)
(0.076951 -0.382091 0)
(0.0577509 -0.407344 0)
(0.164447 -0.45458 0)
(0.218887 -0.383281 0)
(0.366112 -0.593688 0)
(0.411145 -0.551785 0)
(0.374194 -0.484357 0)
(0.38672 -0.517856 0)
(0.319498 -0.694913 0)
(0.435495 -0.64077 0)
(0.596453 -0.754168 0)
(0.591698 -0.622215 0)
(0.717159 -0.732252 0)
(0.970502 -0.511176 0)
(1.13235 -0.650502 0)
(1.3884 -0.696815 0)
(1.45359 -0.56333 0)
(0.0440437 -0.47734 0)
(0.00164127 -0.474839 0)
(0.0273342 -0.697927 0)
(0.0766121 -0.510089 0)
(0.0299617 -0.255063 0)
(0.0847986 -0.480095 0)
(0.0424636 -0.410388 0)
(0.0829529 -0.475973 0)
(0.287857 -0.47493 0)
(0.332286 -0.507512 0)
(0.299324 -0.422868 0)
(0.299747 -0.48011 0)
(0.30319 -0.449478 0)
(0.3031 -0.581551 0)
(0.41665 -0.574251 0)
(0.437058 -0.500534 0)
(0.496484 -0.622264 0)
(0.713727 -0.748991 0)
(0.725317 -0.818734 0)
(0.932205 -0.723031 0)
(1.24852 -0.846902 0)
(1.4656 -0.752913 0)
(1.22402 -0.696301 0)
(0.0610348 -0.317622 0)
(0.0270252 -0.356069 0)
(0.0305276 -0.706736 0)
(0.104303 -0.347416 0)
(0.0289352 -0.286623 0)
(0.0674502 -0.36049 0)
(0.0562481 -0.348385 0)
(0.1023 -0.483285 0)
(0.253229 -0.568637 0)
(0.265277 -0.654006 0)
(0.186118 -0.486613 0)
(0.296672 -0.539563 0)
(0.305896 -0.505497 0)
(0.384204 -0.627359 0)
(0.409557 -0.499049 0)
(0.336186 -0.522894 0)
(0.473856 -0.483635 0)
(0.548319 -0.715875 0)
(0.730457 -0.752599 0)
(1.05918 -0.8583 0)
(1.3552 -0.962317 0)
(1.42229 -0.724586 0)
(1.3365 -1.11904 0)
(-0.0620115 -0.648272 0)
(-0.161074 -0.628642 0)
(0.035604 -0.653603 0)
(-0.0253525 -0.737978 0)
(-0.048783 -0.562447 0)
(0.180661 -0.703861 0)
(-0.131166 -0.474587 0)
(0.0444716 -0.472363 0)
(0.126169 -0.562464 0)
(0.299199 -0.683296 0)
(0.202693 -0.648906 0)
(0.238156 -0.657276 0)
(0.224701 -0.697348 0)
(0.449814 -0.591251 0)
(0.504259 -0.526287 0)
(0.434648 -0.461265 0)
(0.517889 -0.601978 0)
(0.537098 -0.693177 0)
(0.600892 -0.810317 0)
(0.901676 -0.889185 0)
(1.47058 -1.08622 0)
(1.3714 -1.14863 0)
(1.31171 -1.38179 0)
(-0.0217971 -0.854153 0)
(0.200674 -0.967522 0)
(0.024178 -1.03664 0)
(-0.165394 -0.918677 0)
(-0.0118992 -0.817436 0)
(0.103249 -0.912956 0)
(0.233935 -0.812903 0)
(0.156559 -0.836943 0)
(0.0668637 -0.63551 0)
(0.198567 -0.696214 0)
(0.11655 -0.715255 0)
(0.202917 -0.5932 0)
(0.371913 -0.670335 0)
(0.61056 -0.601503 0)
(0.437417 -0.962539 0)
(0.176796 -0.729448 0)
(0.384308 -0.896408 0)
(0.460223 -0.822388 0)
(0.631817 -0.867321 0)
(1.02555 -0.914215 0)
(1.15174 -1.14071 0)
(1.39819 -1.35595 0)
(1.54264 -1.67406 0)
(-0.0427594 -0.853814 0)
(0.0513708 -0.963634 0)
(-0.000509459 -1.1587 0)
(0.00373825 -0.891173 0)
(0.025059 -0.894165 0)
(0.139357 -0.861161 0)
(0.0588159 -0.949703 0)
(0.116502 -1.00206 0)
(0.231436 -0.73846 0)
(0.236572 -0.690825 0)
(0.175936 -0.707271 0)
(0.330134 -0.690165 0)
(0.345907 -0.830437 0)
(0.121529 -0.816457 0)
(0.281223 -1.06445 0)
(0.386921 -0.912419 0)
(0.463961 -0.976645 0)
(0.614237 -0.893179 0)
(0.662989 -0.780372 0)
(0.821679 -1.07517 0)
(1.07328 -1.23679 0)
(1.17328 -1.3945 0)
(1.48474 -1.90512 0)
(-0.0425637 -0.837756 0)
(0.0585431 -1.02534 0)
(0.00861016 -1.06442 0)
(0.0414615 -0.95791 0)
(0.0302261 -1.01028 0)
(0.115843 -0.961662 0)
(-0.00165867 -1.061 0)
(0.236125 -0.756155 0)
(0.326985 -0.726324 0)
(0.212675 -0.951439 0)
(-0.0256683 -0.828281 0)
(0.178481 -0.944275 0)
(0.401429 -1.02552 0)
(0.247732 -0.971604 0)
(0.267195 -0.977576 0)
(0.280168 -0.95077 0)
(0.439412 -0.96162 0)
(0.685976 -0.814877 0)
(0.517963 -0.971909 0)
(0.712041 -1.00265 0)
(0.903773 -1.32943 0)
(1.12462 -1.59475 0)
(1.08523 -2.18609 0)
(-0.0762392 -0.946362 0)
(0.0182629 -1.06715 0)
(-0.0404367 -1.04289 0)
(-0.0920037 -1.06597 0)
(0.00248439 -0.717934 0)
(0.142212 -1.03128 0)
(0.13038 -0.785188 0)
(0.343343 -0.638442 0)
(0.151705 -0.781693 0)
(0.188679 -1.02858 0)
(0.140055 -0.937209 0)
(0.126594 -0.934159 0)
(0.279095 -0.975424 0)
(0.101338 -1.13643 0)
(0.224114 -1.15773 0)
(0.393563 -1.19373 0)
(0.600628 -0.935351 0)
(0.567139 -1.09849 0)
(0.588116 -1.34652 0)
(0.564878 -1.28414 0)
(0.678541 -1.4725 0)
(0.737034 -1.68112 0)
(0.946148 -2.26989 0)
(0.0242622 -0.627237 0)
(0.172547 -1.07478 0)
(-0.103018 -1.06598 0)
(0.126932 -0.675899 0)
(0.0544682 -0.584047 0)
(0.149123 -0.715763 0)
(0.256705 -0.606716 0)
(0.211568 -0.500975 0)
(0.0832784 -0.673508 0)
(0.138546 -0.729997 0)
(0.0752988 -0.903418 0)
(0.106062 -0.876187 0)
(0.0937161 -0.946616 0)
(0.00855598 -1.09946 0)
(0.164971 -0.919602 0)
(0.495892 -1.11818 0)
(0.589072 -1.04649 0)
(0.268434 -1.22167 0)
(0.478824 -1.44325 0)
(0.613401 -1.41644 0)
(0.6742 -1.51905 0)
(0.667526 -1.69566 0)
(0.853181 -2.07685 0)
(-0.175137 -0.457691 0)
(-0.0626858 -0.717833 0)
(0.137951 -0.777612 0)
(0.216207 -0.549109 0)
(0.054375 -0.616816 0)
(0.18554 -0.608946 0)
(0.23877 -0.589927 0)
(0.256082 -0.728158 0)
(-0.0580124 -0.909549 0)
(-0.130289 -0.824682 0)
(-0.0200743 -0.968666 0)
(0.0473366 -0.965292 0)
(0.022701 -1.08451 0)
(0.146361 -1.16354 0)
(0.194212 -1.00375 0)
(0.319797 -1.04523 0)
(0.495795 -1.07664 0)
(0.158575 -1.16731 0)
(0.456808 -1.22755 0)
(0.596857 -1.35726 0)
(0.679097 -1.48246 0)
(0.685678 -1.98655 0)
(0.462186 -2.63229 0)
(-0.0797896 -0.345392 0)
(0.0505487 -0.584188 0)
(-0.00672759 -0.61768 0)
(0.0705277 -0.452194 0)
(0.0429319 -0.465877 0)
(0.219565 -0.593051 0)
(-0.00194427 -0.934012 0)
(-0.149628 -0.903327 0)
(-0.0253697 -1.05726 0)
(-0.057322 -0.939071 0)
(-0.0160978 -1.00343 0)
(-0.0346271 -0.950399 0)
(-0.122756 -1.07031 0)
(0.00935966 -0.889843 0)
(0.253888 -1.09706 0)
(0.396762 -0.948841 0)
(0.518318 -1.3682 0)
(0.0815932 -1.24348 0)
(0.536894 -1.41762 0)
(0.550054 -1.58732 0)
(0.374849 -1.91682 0)
(0.189679 -2.21301 0)
(0.229635 -2.86546 0)
(-0.170099 -0.436821 0)
(0.0526652 -0.635416 0)
(0.0725377 -0.699912 0)
(0.227061 -0.648711 0)
(0.124143 -0.857308 0)
(-0.140073 -0.914192 0)
(-0.131863 -1.06652 0)
(-0.0642753 -0.971655 0)
(-0.0529173 -0.988737 0)
(-0.0624213 -0.954883 0)
(-0.00886255 -0.986048 0)
(-0.0428751 -0.940354 0)
(0.0359311 -1.00823 0)
(-0.0518345 -0.835419 0)
(0.239225 -1.01359 0)
(0.0062315 -0.926056 0)
(0.35926 -1.48488 0)
(0.12839 -1.28431 0)
(0.256305 -1.59633 0)
(0.242584 -1.63274 0)
(0.254875 -1.96688 0)
(0.110726 -2.11782 0)
(-0.365693 -2.35655 0)
(0.151986 -0.877068 0)
(0.178294 -1.01145 0)
(-0.180525 -0.997699 0)
(-0.20067 -1.05224 0)
(-0.0923589 -1.08201 0)
(-0.0615236 -1.12499 0)
(-0.0450966 -1.06675 0)
(-0.0505354 -1.02279 0)
(-0.0321994 -1.02038 0)
(-0.0497285 -1.00922 0)
(-0.00708083 -1.01223 0)
(-0.0567877 -1.0105 0)
(0.0329193 -1.02648 0)
(-0.0583928 -0.992462 0)
(0.229147 -0.997438 0)
(-0.0824406 -1.13992 0)
(0.258387 -1.35585 0)
(0.0104527 -1.22916 0)
(0.20456 -1.6735 0)
(0.202526 -1.59852 0)
(0.286841 -1.78847 0)
(-0.0763687 -2.36944 0)
(-0.71036 -2.36009 0)
(0.0185462 -1.0275 0)
(0.0182733 -1.17676 0)
(-0.0156108 -1.18621 0)
(-0.0346611 -1.08246 0)
(-0.038199 -1.05112 0)
(-0.0448487 -1.02842 0)
(-0.0386459 -1.02529 0)
(-0.0468697 -1.01507 0)
(-0.027721 -1.01605 0)
(-0.0411922 -1.01848 0)
(-0.00985467 -1.01184 0)
(-0.0622478 -1.01548 0)
(0.0258229 -1.02922 0)
(-0.0712062 -1.00235 0)
(0.0927918 -0.967002 0)
(-0.233213 -1.17695 0)
(0.393884 -1.02464 0)
(-0.138659 -1.61209 0)
(-0.113698 -1.19275 0)
(0.0558718 -1.55207 0)
(-0.329836 -2.00238 0)
(-0.057533 -2.5024 0)
(-0.694957 -2.35791 0)
(0.0111725 -1.00386 0)
(0.00604384 -1.05182 0)
(-0.035518 -1.05836 0)
(-0.0693018 -1.05428 0)
(-0.0449027 -1.05886 0)
(-0.0331468 -1.04663 0)
(-0.0332116 -1.04016 0)
(-0.0368661 -1.03761 0)
(-0.0213231 -1.02873 0)
(-0.0397736 -1.0396 0)
(-0.00596122 -1.02037 0)
(-0.0668543 -1.00631 0)
(0.0191041 -0.983649 0)
(-0.0431177 -0.906468 0)
(-0.0838517 -0.96859 0)
(-0.129898 -1.21327 0)
(0.0347632 -0.816862 0)
(-0.15118 -1.87667 0)
(0.179273 -0.87863 0)
(-0.265287 -1.678 0)
(-0.622837 -1.51807 0)
(-0.205552 -1.75419 0)
(-0.729581 -2.28608 0)
(0.00170607 -1.03434 0)
(-0.00336253 -1.07494 0)
(-0.0153053 -1.07683 0)
(-0.0337751 -1.06365 0)
(-0.0240133 -1.03626 0)
(-0.025021 -1.04227 0)
(-0.0228042 -1.03388 0)
(-0.0264817 -1.03617 0)
(-0.0171418 -1.03144 0)
(-0.0305681 -1.04444 0)
(0.0240465 -1.03399 0)
(-0.0128714 -1.08049 0)
(0.222667 -1.04116 0)
(-0.0705373 -1.20862 0)
(-0.232517 -1.04072 0)
(-0.186488 -1.11397 0)
(-0.194086 -1.04823 0)
(0.073778 -1.29363 0)
(0.0999656 -1.48865 0)
(-0.271115 -1.80232 0)
(-0.619538 -1.45952 0)
(-0.685353 -1.47691 0)
(-0.730078 -1.87676 0)
(-0.000252003 -1.01742 0)
(-0.00558681 -1.05 0)
(-0.0224987 -1.04903 0)
(-0.0291788 -1.04541 0)
(-0.0170586 -1.03686 0)
(-0.027968 -1.04024 0)
(-0.0232969 -1.0389 0)
(-0.0318036 -1.04437 0)
(-0.0237279 -1.04902 0)
(-0.0326491 -1.06 0)
(-0.0292252 -1.06781 0)
(-0.0583997 -1.11667 0)
(-0.0276237 -1.12863 0)
(-0.114615 -1.30534 0)
(-0.113814 -1.06992 0)
(-0.148517 -1.06785 0)
(-0.11832 -1.03632 0)
(-0.223432 -1.06589 0)
(-0.212097 -1.64043 0)
(-0.373978 -1.5009 0)
(-0.377394 -1.6029 0)
(-0.633766 -1.28667 0)
(-1.10999 -1.60969 0)
(-0.00253764 -1.02974 0)
(-0.00534003 -1.05553 0)
(-0.0110467 -1.05408 0)
(-0.0178425 -1.0446 0)
(-0.0164653 -1.04228 0)
(-0.0240182 -1.04331 0)
(-0.021805 -1.03983 0)
(-0.0317907 -1.04521 0)
(-0.0274104 -1.0457 0)
(-0.0427234 -1.05732 0)
(-0.0342033 -1.06035 0)
(-0.0653673 -1.06979 0)
(-0.051917 -1.07145 0)
(-0.126067 -1.08549 0)
(-0.14007 -1.00802 0)
(-0.169684 -1.03854 0)
(-0.143189 -0.969061 0)
(-0.337971 -1.12486 0)
(-0.472888 -1.26805 0)
(-0.299302 -1.05207 0)
(-0.205894 -1.00138 0)
(-0.60183 -1.32867 0)
(-0.88975 -1.09993 0)
(0.000513513 -1.01927 0)
(-0.00273987 -1.03935 0)
(-0.0100175 -1.04215 0)
(-0.0154916 -1.03851 0)
(-0.0146174 -1.03555 0)
(-0.0216662 -1.03691 0)
(-0.0210299 -1.03373 0)
(-0.0313908 -1.03753 0)
(-0.0311349 -1.03337 0)
(-0.0455198 -1.04206 0)
(-0.0466071 -1.0413 0)
(-0.0728891 -1.06875 0)
(-0.0774763 -1.06371 0)
(-0.114678 -1.08245 0)
(-0.114865 -0.985074 0)
(-0.143601 -1.00318 0)
(-0.186943 -0.964617 0)
(-0.353394 -0.964609 0)
(-0.126902 -0.898067 0)
(-0.130319 -0.968074 0)
(-0.584747 -0.820492 0)
(-0.715245 -1.31765 0)
(-0.960527 -0.849335 0)
(0.000326624 -1.01458 0)
(-0.00424913 -1.03591 0)
(-0.00646808 -1.03858 0)
(-0.0115407 -1.03338 0)
(-0.0133562 -1.03115 0)
(-0.0197006 -1.03038 0)
(-0.0206931 -1.02563 0)
(-0.0296204 -1.02741 0)
(-0.0287114 -1.019 0)
(-0.0425348 -1.02163 0)
(-0.0411564 -1.01163 0)
(-0.0677022 -1.01665 0)
(-0.0748358 -1.00655 0)
(-0.115176 -1.01233 0)
(-0.118939 -0.956355 0)
(-0.172669 -0.963878 0)
(-0.174476 -0.945463 0)
(-0.226757 -0.888639 0)
(-0.26508 -0.788677 0)
(-0.196664 -1.0691 0)
(-0.541101 -0.883464 0)
(-0.507214 -0.937537 0)
(-0.505497 -0.789456 0)
(-0.000176946 -1.01518 0)
(-0.00604654 -1.03414 0)
(-0.00699564 -1.03418 0)
(-0.00937097 -1.03312 0)
(-0.0122549 -1.03039 0)
(-0.0169546 -1.03008 0)
(-0.0184777 -1.02428 0)
(-0.0257618 -1.02449 0)
(-0.0240938 -1.01478 0)
(-0.0359882 -1.01348 0)
(-0.0358994 -0.999693 0)
(-0.05665 -0.99775 0)
(-0.0569177 -0.983416 0)
(-0.0918953 -0.98621 0)
(-0.0845574 -0.927186 0)
(-0.142845 -0.917663 0)
(-0.165419 -0.894464 0)
(-0.209791 -0.851706 0)
(-0.204869 -0.815271 0)
(-0.220117 -0.848053 0)
(-0.626268 -0.833136 0)
(-0.592578 -0.610591 0)
(-0.355887 -0.64473 0)
(-0.0004877 -1.01036 0)
(-0.00364637 -1.02505 0)
(-0.0047177 -1.0205 0)
(-0.00608218 -1.0216 0)
(-0.00751405 -1.01841 0)
(-0.00950167 -1.01703 0)
(-0.0106089 -1.01093 0)
(-0.0150248 -1.00745 0)
(-0.0134808 -0.996338 0)
(-0.0243389 -0.994786 0)
(-0.0249776 -0.97823 0)
(-0.0430851 -0.970813 0)
(-0.0390106 -0.945273 0)
(-0.0762646 -0.958308 0)
(-0.0617627 -0.902843 0)
(-0.131154 -0.886925 0)
(-0.144858 -0.877148 0)
(-0.186881 -0.829623 0)
(-0.241806 -0.8098 0)
(-0.29182 -0.964318 0)
(-0.292877 -0.853635 0)
(-0.385404 -0.490163 0)
(-0.330952 -0.557645 0)
(-0.00028419 -0.99854 0)
(-0.00247008 -1.0114 0)
(-0.00372794 -1.00896 0)
(-0.00520177 -1.00833 0)
(-0.00669139 -1.0051 0)
(-0.0082035 -1.00378 0)
(-0.00919458 -0.997646 0)
(-0.0124886 -0.99619 0)
(-0.0106459 -0.984608 0)
(-0.0184964 -0.980828 0)
(-0.0128193 -0.967894 0)
(-0.0214406 -0.959871 0)
(-0.0184103 -0.934075 0)
(-0.0580936 -0.917313 0)
(-0.0122328 -0.868886 0)
(-0.0991902 -0.833591 0)
(-0.120118 -0.818527 0)
(-0.186769 -0.751855 0)
(-0.264722 -0.731638 0)
(-0.293612 -0.638814 0)
(-0.152043 -0.676339 0)
(-0.314769 -0.528802 0)
(-0.323786 -0.619506 0)
(0.000512844 -1.00203 0)
(-0.000612776 -1.01185 0)
(-0.00200206 -1.0102 0)
(-0.00273822 -1.00951 0)
(-0.00366896 -1.00726 0)
(-0.00349692 -1.00549 0)
(-0.00485305 -1.001 0)
(-0.00602146 -0.9979 0)
(-0.0012061 -0.987812 0)
(-0.00413943 -0.981876 0)
(0.00982062 -0.969985 0)
(0.00699658 -0.954417 0)
(0.024393 -0.937145 0)
(-0.0110305 -0.911027 0)
(0.0248919 -0.863182 0)
(-0.0658224 -0.789319 0)
(-0.0788419 -0.790221 0)
(-0.139563 -0.71381 0)
(-0.168472 -0.686007 0)
(-0.224668 -0.563787 0)
(-0.208163 -0.56864 0)
(-0.292739 -0.552594 0)
(-0.178935 -0.640185 0)
(0.000742992 -0.9781 0)
(0.000384352 -0.986005 0)
(-0.000746698 -0.984929 0)
(-0.00150288 -0.984334 0)
(-0.00172525 -0.982855 0)
(-0.000977901 -0.98128 0)
(-0.000707779 -0.978934 0)
(0.000986492 -0.974348 0)
(0.00607903 -0.965262 0)
(0.00394405 -0.958882 0)
(0.0199901 -0.947708 0)
(0.0207572 -0.934141 0)
(0.0367526 -0.92447 0)
(0.0444898 -0.87259 0)
(0.0839853 -0.860748 0)
(-0.0483236 -0.773539 0)
(-0.0783399 -0.749214 0)
(-0.11918 -0.699183 0)
(-0.160161 -0.645723 0)
(-0.218485 -0.579159 0)