/*--------------------------------*- C++ -*----------------------------------*\
| =========                 |                                                 |
| \\      /  F ield         | foam-extend: Open Source CFD                    |
|  \\    /   O peration     | Version:     4.1                                |
|   \\  /    A nd           | Web:         http://www.foam-extend.org         |
|    \\/     M anipulation  |                                                 |
\*---------------------------------------------------------------------------*/
FoamFile
{
    version     2.0;
    format      ascii;
    class       volVectorField;
    location    "0.35";
    object      U_0;
}
// * * * * * * * * * * * * * * * * * * * * * * * * * * * * * * * * * * * * * //

dimensions      [0 1 -1 0 0 0 0];

internalField   nonuniform List<vector> 
2268
(
(0.0430343 -0.00610675 0)
(0.0549081 -0.00510784 0)
(0.129406 -0.00802291 0)
(0.185252 -0.00374505 0)
(0.217798 -0.00493983 0)
(0.289475 -0.00826041 0)
(0.31116 -0.00402207 0)
(0.40443 -0.00550594 0)
(0.415509 -0.00763777 0)
(0.482776 -0.0436572 0)
(0.415002 -0.0379754 0)
(0.357327 0.00128592 0)
(0.424535 -0.00189395 0)
(0.42392 0.000137133 0)
(0.427521 0.00167249 0)
(0.419068 0.00134221 0)
(0.405263 0.0121316 0)
(0.391234 0.00570918 0)
(0.376326 -0.00142543 0)
(0.346697 0.0105659 0)
(0.278614 0.0293404 0)
(0.194332 0.01468 0)
(0.0838368 0.0395123 0)
(0.0426845 -0.0170136 0)
(0.0561027 -0.0152244 0)
(0.132641 -0.0230824 0)
(0.184553 -0.0166888 0)
(0.217851 -0.0203791 0)
(0.293228 -0.0130828 0)
(0.317045 -0.0238899 0)
(0.409586 -0.019674 0)
(0.410044 -0.00894804 0)
(0.503275 0.0414271 0)
(0.398368 -0.108855 0)
(0.349998 -0.0179125 0)
(0.411479 -0.0155386 0)
(0.410304 -0.00565801 0)
(0.421113 0.00177919 0)
(0.415862 0.00391183 0)
(0.402486 0.00659539 0)
(0.378309 0.0227605 0)
(0.370868 0.0234892 0)
(0.34524 0.0357473 0)
(0.275636 0.0411745 0)
(0.198236 0.0786525 0)
(0.0514695 0.0927993 0)
(0.040385 -0.0294425 0)
(0.0561158 -0.0263021 0)
(0.13496 -0.0385297 0)
(0.176211 -0.0234565 0)
(0.219018 -0.0311491 0)
(0.30005 -0.0315892 0)
(0.322594 -0.0315917 0)
(0.399373 -0.028565 0)
(0.450242 -0.0328807 0)
(0.433765 -0.0599965 0)
(0.372858 -0.134579 0)
(0.362703 -0.0336258 0)
(0.400578 -0.0240982 0)
(0.393835 -0.0102776 0)
(0.402886 -0.00136671 0)
(0.396175 0.0180025 0)
(0.387244 0.0179223 0)
(0.366024 0.032307 0)
(0.356486 0.0514832 0)
(0.325563 0.0606762 0)
(0.271781 0.0939658 0)
(0.197624 0.122011 0)
(0.0915227 0.153846 0)
(0.0372866 -0.0397694 0)
(0.057467 -0.0375144 0)
(0.13721 -0.0518327 0)
(0.169456 -0.0360767 0)
(0.233467 -0.0505058 0)
(0.300506 -0.0360798 0)
(0.323937 -0.049123 0)
(0.409628 -0.0513973 0)
(0.342726 -0.0532647 0)
(0.334171 -0.105266 0)
(0.328482 -0.0947017 0)
(0.306559 -0.0276923 0)
(0.332279 -0.0241987 0)
(0.327273 -0.0105152 0)
(0.3381 -0.00269219 0)
(0.331497 0.0151072 0)
(0.323909 0.0217459 0)
(0.305779 0.0526803 0)
(0.300942 0.0583423 0)
(0.285524 0.0749911 0)
(0.238463 0.100117 0)
(0.202379 0.166224 0)
(0.0656683 0.228818 0)
(0.0316844 -0.0518412 0)
(0.0573704 -0.0498606 0)
(0.136497 -0.0649256 0)
(0.168882 -0.0459567 0)
(0.236171 -0.0625909 0)
(0.289191 -0.0539935 0)
(0.316849 -0.0568824 0)
(0.408622 -0.0314256 0)
(0.31175 -0.134446 0)
(0.289285 -0.0773233 0)
(0.291113 -0.0978046 0)
(0.281071 -0.0433143 0)
(0.308755 -0.0308609 0)
(0.299803 -0.016021 0)
(0.309226 -0.00160673 0)
(0.297879 0.00966363 0)
(0.306335 0.0279691 0)
(0.29019 0.0536587 0)
(0.284617 0.0678111 0)
(0.270032 0.0952902 0)
(0.210146 0.129792 0)
(0.193762 0.202119 0)
(0.102523 0.281005 0)
(0.0262766 -0.0607203 0)
(0.0612583 -0.0622432 0)
(0.139414 -0.0786539 0)
(0.170048 -0.0597864 0)
(0.220922 -0.0802216 0)
(0.27718 -0.0526124 0)
(0.33663 -0.0845443 0)
(0.29505 -0.0557767 0)
(0.2494 -0.14297 0)
(0.26602 -0.0940179 0)
(0.283328 -0.0933334 0)
(0.275021 -0.0424799 0)
(0.300511 -0.0304454 0)
(0.292929 -0.0137931 0)
(0.304046 -0.00264488 0)
(0.294831 0.0151422 0)
(0.304157 0.024045 0)
(0.294877 0.07538 0)
(0.291009 0.0686606 0)
(0.275642 0.111494 0)
(0.200189 0.136733 0)
(0.201685 0.223869 0)
(0.0811444 0.366518 0)
(0.0216779 -0.0725642 0)
(0.0659706 -0.0765036 0)
(0.132652 -0.0903297 0)
(0.157741 -0.0645025 0)
(0.220967 -0.0878109 0)
(0.264517 -0.086333 0)
(0.285612 -0.0515723 0)
(0.266083 -0.13351 0)
(0.233974 -0.13137 0)
(0.255556 -0.0965541 0)
(0.280698 -0.0945805 0)
(0.277837 -0.0545517 0)
(0.306311 -0.0372384 0)
(0.298989 -0.0187813 0)
(0.316346 -0.00266916 0)
(0.310448 0.0114179 0)
(0.33279 0.0312128 0)
(0.309317 0.0662485 0)
(0.302261 0.0867232 0)
(0.300109 0.139707 0)
(0.218681 0.167811 0)
(0.247391 0.259621 0)
(0.142471 0.41602 0)
(0.0238911 -0.0811099 0)
(0.0719592 -0.0882725 0)
(0.128607 -0.101156 0)
(0.150357 -0.0839285 0)
(0.2117 -0.109576 0)
(0.263574 -0.0596119 0)
(0.223669 -0.102321 0)
(0.229032 -0.145297 0)
(0.23511 -0.138918 0)
(0.2579 -0.113105 0)
(0.286641 -0.103995 0)
(0.292768 -0.0560878 0)
(0.322614 -0.0401488 0)
(0.317233 -0.0181388 0)
(0.333107 -0.00901176 0)
(0.329446 0.0110962 0)
(0.34924 0.020217 0)
(0.342468 0.028608 0)
(0.337045 0.0495012 0)
(0.298277 0.166376 0)
(0.259262 0.155755 0)
(0.251499 0.352672 0)
(0.128351 0.469139 0)
(-0.149515 0.198794 0)
(0.519988 -0.336594 0)
(1.05554 -0.427461 0)
(1.4772 -0.38966 0)
(2.01408 -0.0514224 0)
(1.86798 0.177049 0)
(0.223404 0.335306 0)
(-0.58731 0.12959 0)
(-1.00838 0.0846498 0)
(-1.16039 0.00740523 0)
(-1.25997 -0.00317388 0)
(-1.32196 -0.0168926 0)
(-1.40777 -0.0203879 0)
(-1.16916 -0.181764 0)
(-0.938937 -0.0322672 0)
(-0.856109 -0.102241 0)
(-0.462778 -0.106096 0)
(-0.273662 -0.0234094 0)
(-0.0759126 -0.035654 0)
(0.756432 -0.340807 0)
(0.575834 -0.205515 0)
(0.689478 -0.394122 0)
(0.706346 -0.372292 0)
(1.09226 -0.0260833 0)
(0.98505 0.407455 0)
(-0.60494 1.3517 0)
(-0.695953 0.471012 0)
(-1.11025 0.347922 0)
(-1.19661 0.123016 0)
(-1.29921 0.0785606 0)
(-1.34527 0.020015 0)
(-1.46647 0.00914895 0)
(-1.21723 -0.229559 0)
(-0.973768 -0.153156 0)
(-0.967893 -0.283719 0)
(-0.478699 -0.144315 0)
(-0.243859 -0.137202 0)
(-0.0751277 -0.117285 0)
(0.285763 -0.503815 0)
(0.373775 -0.26252 0)
(0.652925 -0.40387 0)
(0.674912 -0.250595 0)
(-0.157673 0.150118 0)
(-0.373807 1.03348 0)
(-0.910203 1.3307 0)
(-0.939877 0.477481 0)
(-1.18074 0.457587 0)
(-1.27922 0.235786 0)
(-1.35241 0.0917821 0)
(-1.35589 0.00355056 0)
(-1.46594 0.0516759 0)
(-1.31255 -0.389405 0)
(-0.997858 -0.424364 0)
(-0.933227 -0.229303 0)
(-0.441374 -0.157672 0)
(-0.269529 -0.160085 0)
(-0.0686599 -0.168382 0)
(0.107053 -0.555899 0)
(0.199559 -0.403656 0)
(0.749595 -0.20508 0)
(0.264398 0.017166 0)
(-1.1323 0.812062 0)
(-1.17015 1.30397 0)
(-0.996272 1.01139 0)
(-1.03664 0.627214 0)
(-1.1456 0.720399 0)
(-1.42924 0.257991 0)
(-1.44665 0.01531 0)
(-1.42391 -0.0167809 0)
(-1.62841 -0.000740637 0)
(-1.39062 -0.354532 0)
(-0.931146 -0.551533 0)
(-0.784238 -0.221529 0)
(-0.417709 -0.309852 0)
(-0.252874 -0.250926 0)
(-0.0850462 -0.200158 0)
(0.0367485 -0.635112 0)
(0.0877673 -0.576741 0)
(-0.209708 -0.0493956 0)
(-0.111521 0.59001 0)
(-1.29577 1.36274 0)
(-1.36583 1.0096 0)
(-1.08087 0.93356 0)
(-1.0298 0.605139 0)
(-1.21757 0.644181 0)
(-1.53389 0.0665201 0)
(-1.52267 0.18648 0)
(-1.34876 -0.0145752 0)
(-1.56193 -0.18606 0)
(-1.45728 -0.445845 0)
(-0.985627 -0.709434 0)
(-0.698889 -0.460734 0)
(-0.449882 -0.355586 0)
(-0.248337 -0.327225 0)
(-0.0585295 -0.24515 0)
(0.019068 -0.659422 0)
(-1.30023 -0.928005 0)
(-0.634552 -0.264148 0)
(-0.542225 0.880582 0)
(-1.56512 1.61927 0)
(-1.61294 1.0535 0)
(-1.12134 0.910463 0)
(-1.06467 0.537019 0)
(-1.27147 0.460871 0)
(-1.42455 0.000305399 0)
(-1.41228 0.352712 0)
(-1.3144 -0.0332763 0)
(-1.53087 -0.122986 0)
(-1.45476 -0.513699 0)
(-1.00754 -0.750823 0)
(-0.580133 -0.667322 0)
(-0.330649 -0.454339 0)
(-0.253891 -0.340453 0)
(-0.0508408 -0.271703 0)
(-0.0273791 -0.623538 0)
(-0.263885 -0.877447 0)
(-1.04896 -0.16037 0)
(-0.566775 0.796772 0)
(-1.53482 1.49086 0)
(-1.79386 1.2712 0)
(-1.34452 0.772928 0)
(-1.17425 0.557424 0)
(-1.22578 0.512538 0)
(-1.31208 0.381773 0)
(-1.02106 0.367542 0)
(-0.644163 -0.243647 0)
(-0.844262 -0.436123 0)
(-0.597847 -0.556618 0)
(-1.00873 -0.813852 0)
(-0.589212 -0.723381 0)
(-0.248488 -0.57311 0)
(-0.193698 -0.379642 0)
(-0.0355696 -0.321981 0)
(-0.0490945 -0.355236 0)
(0.148872 -0.631398 0)
(-1.0153 0.108963 0)
(-0.741425 0.708566 0)
(-1.48256 1.05762 0)
(-1.76627 1.08576 0)
(-1.57536 0.337041 0)
(-1.18558 0.788037 0)
(-1.07295 0.67097 0)
(-1.12265 0.712319 0)
(-0.378272 0.0546407 0)
(0.251511 -0.370345 0)
(-0.246086 -0.400032 0)
(0.186211 -0.549243 0)
(-0.509205 -0.851342 0)
(-0.517454 -0.684679 0)
(-0.19195 -0.615398 0)
(-0.169043 -0.435432 0)
(-0.0369015 -0.357941 0)
(0.0272 -0.102977 0)
(0.0635949 -0.10833 0)
(0.118533 -0.115135 0)
(0.133671 -0.0783594 0)
(0.223312 -0.115883 0)
(0.186337 -0.125095 0)
(0.191986 -0.151051 0)
(0.228053 -0.148002 0)
(0.235873 -0.143324 0)
(0.268327 -0.127825 0)
(0.295171 -0.109664 0)
(0.314489 -0.0811493 0)
(0.350232 -0.0508015 0)
(0.341107 -0.0277098 0)
(0.358454 -0.00619871 0)
(0.338736 0.0197169 0)
(0.359365 0.0365192 0)
(0.338247 0.0926866 0)
(0.386786 0.0505342 0)
(0.320249 0.187505 0)
(0.366246 0.218144 0)
(0.405102 0.428248 0)
(0.238429 0.554505 0)
(0.0357749 -0.118763 0)
(0.0471856 -0.128283 0)
(0.133533 -0.130349 0)
(0.11701 -0.146171 0)
(0.129138 -0.137745 0)
(0.167633 -0.184074 0)
(0.19207 -0.152222 0)
(0.209398 -0.17279 0)
(0.24599 -0.185032 0)
(0.289435 -0.16207 0)
(0.330354 -0.151844 0)
(0.363944 -0.0984322 0)
(0.395198 -0.0622193 0)
(0.38965 -0.0159955 0)
(0.396535 -0.00208913 0)
(0.38602 0.00645046 0)
(0.416176 0.038727 0)
(0.352618 0.0799269 0)
(0.396083 0.112231 0)
(0.515604 0.22055 0)
(0.458638 0.343101 0)
(0.471804 0.441084 0)
(0.496624 0.443115 0)
(0.0223354 -0.144897 0)
(0.0403562 -0.158064 0)
(0.0810077 -0.152351 0)
(0.10357 -0.188247 0)
(0.13305 -0.171214 0)
(0.152294 -0.187915 0)
(0.175936 -0.190862 0)
(0.223426 -0.207587 0)
(0.271703 -0.22492 0)
(0.304906 -0.216922 0)
(0.35458 -0.188736 0)
(0.413465 -0.155729 0)
(0.450101 -0.083317 0)
(0.404747 -0.0336019 0)
(0.381993 -0.00129396 0)
(0.375078 0.00850496 0)
(0.415845 0.0301649 0)
(0.408383 0.0599827 0)
(0.475399 0.20651 0)
(0.513376 0.193986 0)
(0.529219 0.267578 0)
(0.491402 0.286019 0)
(0.448748 0.38332 0)
(0.028741 -0.182806 0)
(0.0403689 -0.186376 0)
(0.0793959 -0.194615 0)
(0.0957448 -0.194766 0)
(0.124912 -0.187841 0)
(0.142701 -0.222095 0)
(0.173623 -0.223118 0)
(0.209304 -0.264956 0)
(0.280413 -0.267836 0)
(0.324735 -0.241496 0)
(0.394752 -0.261337 0)
(0.448496 -0.19335 0)
(0.489152 -0.0492503 0)
(0.379237 0.0542373 0)
(0.349058 0.0351281 0)
(0.419439 -0.0209671 0)
(0.455066 -0.00280791 0)
(0.545245 0.0214812 0)
(0.555935 0.191097 0)
(0.523998 0.214698 0)
(0.516122 0.294397 0)
(0.520386 0.244207 0)
(0.462227 0.312531 0)
(0.019639 -0.213628 0)
(0.0218767 -0.205899 0)
(0.0467059 -0.208128 0)
(0.090991 -0.228829 0)
(0.116802 -0.218168 0)
(0.137079 -0.23301 0)
(0.158725 -0.259583 0)
(0.203273 -0.31666 0)
(0.250789 -0.335205 0)
(0.2438 -0.31845 0)
(0.241177 -0.29675 0)
(0.198432 -0.239737 0)
(0.18116 -0.0930103 0)
(0.262194 0.130994 0)
(0.254766 -0.0315179 0)
(0.424964 -0.104777 0)
(0.396852 -0.0871275 0)
(0.537629 -0.0294492 0)
(0.630302 0.0517615 0)
(0.594839 0.219271 0)
(0.514105 0.293411 0)
(0.473812 0.284387 0)
(0.471292 0.238799 0)
(0.0268625 -0.228443 0)
(-0.0117603 -0.215094 0)
(0.054367 -0.266962 0)
(0.0703821 -0.257111 0)
(0.124166 -0.236675 0)
(0.123941 -0.263119 0)
(0.143951 -0.294405 0)
(0.107381 -0.356726 0)
(0.0905165 -0.32468 0)
(0.0489722 -0.256676 0)
(0.059032 -0.240163 0)
(0.0234176 -0.165893 0)
(0.101812 -0.138782 0)
(0.237681 0.000387564 0)
(0.306306 -0.122108 0)
(0.358639 -0.176509 0)
(0.381802 -0.253586 0)
(0.552992 0.302833 0)
(0.581072 0.170936 0)
(0.563106 0.274666 0)
(0.506288 0.0974945 0)
(0.533261 0.291146 0)
(0.485763 0.30283 0)
(0.00419677 -0.232667 0)
(-0.00836303 -0.235372 0)
(0.0191769 -0.294466 0)
(0.0614098 -0.307358 0)
(0.129561 -0.275541 0)
(0.128968 -0.258684 0)
(0.144754 -0.257976 0)
(0.0911885 -0.28122 0)
(0.081423 -0.267152 0)
(0.0422531 -0.270921 0)
(0.0850144 -0.223524 0)
(0.113907 -0.263616 0)
(0.12434 -0.176125 0)
(0.239209 -0.206444 0)
(0.243143 -0.163155 0)
(0.28632 -0.139728 0)
(0.178591 -0.135515 0)
(0.210961 -0.00144581 0)
(0.304571 0.0586059 0)
(0.363586 0.298943 0)
(0.564977 0.561147 0)
(0.683093 0.721045 0)
(0.640527 0.0764113 0)
(0.00191035 -0.223434 0)
(0.013788 -0.229119 0)
(0.0358604 -0.336315 0)
(0.0915748 -0.368745 0)
(0.117883 -0.308413 0)
(0.120044 -0.271161 0)
(0.139431 -0.255465 0)
(0.124809 -0.28349 0)
(0.142178 -0.301106 0)
(0.141614 -0.279345 0)
(0.185801 -0.270003 0)
(0.186333 -0.33155 0)
(0.115606 -0.314622 0)
(0.0975083 -0.226617 0)
(0.174594 -0.195275 0)
(0.238287 -0.123389 0)
(0.280002 -0.143665 0)
(0.274072 -0.0557761 0)
(0.37238 0.00675725 0)
(0.407998 0.197951 0)
(0.608652 0.183205 0)
(0.638112 0.289639 0)
(0.82262 0.300636 0)
(-0.0100004 -0.243842 0)
(0.0526475 -0.267225 0)
(0.0556132 -0.370809 0)
(0.106347 -0.388274 0)
(0.114748 -0.309968 0)
(0.111609 -0.279045 0)
(0.137526 -0.257922 0)
(0.105094 -0.290295 0)
(0.145716 -0.247374 0)
(0.122068 -0.324223 0)
(0.175736 -0.317755 0)
(0.200178 -0.371107 0)
(0.19141 -0.391123 0)
(0.200459 -0.353149 0)
(0.247718 -0.282308 0)
(0.301434 -0.255633 0)
(0.398021 -0.172539 0)
(0.403579 -0.132331 0)
(0.455264 -0.0301958 0)
(0.475334 -0.0453318 0)
(0.670338 0.0481476 0)
(1.44211 0.134363 0)
(1.25176 0.289802 0)
(-0.00765069 -0.264617 0)
(0.0659069 -0.294946 0)
(0.0600208 -0.393283 0)
(0.128755 -0.421433 0)
(0.123986 -0.316698 0)
(0.132909 -0.290017 0)
(0.155285 -0.247096 0)
(0.156625 -0.287035 0)
(0.131211 -0.221382 0)
(0.169128 -0.271168 0)
(0.242523 -0.258239 0)
(0.169564 -0.342799 0)
(0.161625 -0.358324 0)
(0.205363 -0.30585 0)
(0.224418 -0.340335 0)
(0.295771 -0.24776 0)
(0.544676 -0.267127 0)
(0.601743 -0.0547875 0)
(0.522267 -0.162112 0)
(0.520548 -0.0865247 0)
(0.680016 0.0352187 0)
(0.801884 0.059432 0)
(0.828621 -0.0786539 0)
(-0.000828127 -0.305376 0)
(0.0583865 -0.340861 0)
(0.0721386 -0.431849 0)
(0.125449 -0.45247 0)
(0.122462 -0.313029 0)
(0.136036 -0.320824 0)
(0.167601 -0.279095 0)
(0.158187 -0.252731 0)
(0.168885 -0.248386 0)
(0.186586 -0.240778 0)
(0.217852 -0.295168 0)
(0.177353 -0.321486 0)
(0.211728 -0.415333 0)
(0.183593 -0.286766 0)
(0.256885 -0.315027 0)
(0.382547 -0.208127 0)
(0.53048 -0.301894 0)
(0.478505 -0.302457 0)
(0.506327 -0.338994 0)
(0.534911 -0.285282 0)
(0.690973 -0.185931 0)
(1.404 -0.132953 0)
(1.30167 -0.184968 0)
(-0.0204954 -0.331422 0)
(0.0773373 -0.356827 0)
(0.0913382 -0.475289 0)
(0.106819 -0.465905 0)
(0.0927886 -0.335232 0)
(0.140509 -0.325286 0)
(0.257839 -0.262035 0)
(0.207677 -0.314691 0)
(0.192685 -0.231352 0)
(0.221047 -0.339123 0)
(0.232785 -0.220539 0)
(0.135671 -0.371108 0)
(0.23512 -0.316705 0)
(0.298472 -0.375238 0)
(0.2496 -0.279585 0)
(0.309502 -0.384142 0)
(0.452919 -0.353571 0)
(0.437023 -0.267612 0)
(0.486501 -0.297159 0)
(0.584438 -0.132579 0)
(0.982317 -0.0658476 0)
(1.00981 -0.20349 0)
(1.15112 -0.547417 0)
(0.00821332 -0.358783 0)
(0.07038 -0.369592 0)
(0.0792718 -0.54263 0)
(0.0928705 -0.487225 0)
(0.0981939 -0.31059 0)
(0.19028 -0.31385 0)
(0.148206 -0.315699 0)
(0.15721 -0.397744 0)
(0.233601 -0.36335 0)
(0.284902 -0.480159 0)
(0.186394 -0.37531 0)
(0.189285 -0.442316 0)
(0.188033 -0.381025 0)
(0.247432 -0.462904 0)
(0.24958 -0.383447 0)
(0.341187 -0.344766 0)
(0.657295 -0.445615 0)
(0.519043 -0.464067 0)
(0.563481 -0.499518 0)
(0.869237 -0.392998 0)
(0.786535 -0.213186 0)
(0.842097 -0.275107 0)
(1.07008 -0.337716 0)
(0.0129882 -0.367981 0)
(0.0182428 -0.396272 0)
(0.0458598 -0.572579 0)
(0.106493 -0.480306 0)
(0.0959673 -0.300757 0)
(0.119131 -0.337279 0)
(0.144248 -0.403292 0)
(0.11971 -0.413062 0)
(0.120463 -0.472435 0)
(0.22072 -0.543919 0)
(0.398176 -0.336407 0)
(0.310785 -0.4063 0)
(0.143172 -0.396617 0)
(0.286445 -0.444829 0)
(0.457705 -0.293508 0)
(0.447513 -0.419664 0)
(0.438803 -0.376613 0)
(0.437296 -0.531391 0)
(0.583384 -0.471118 0)
(1.03366 -0.646888 0)
(1.04447 -0.543589 0)
(1.02651 -0.502363 0)
(1.20319 -0.371539 0)
(0.0297257 -0.39795 0)
(0.00875591 -0.429638 0)
(0.0608986 -0.62041 0)
(0.09304 -0.474188 0)
(0.0604746 -0.282882 0)
(0.0959596 -0.359341 0)
(0.0785311 -0.413943 0)
(0.0918048 -0.38543 0)
(0.167039 -0.507008 0)
(0.45056 -0.483257 0)
(0.512963 -0.604127 0)
(0.298461 -0.534713 0)
(0.0904059 -0.420828 0)
(0.388845 -0.356474 0)
(0.456218 -0.567839 0)
(0.475759 -0.680995 0)
(0.541831 -0.625801 0)
(0.473387 -0.55053 0)
(0.531678 -0.537761 0)
(0.828545 -0.5442 0)
(1.1488 -0.680124 0)
(1.23073 -0.547071 0)
(1.47912 -0.463883 0)
(0.0405573 -0.395306 0)
(-0.00117323 -0.426491 0)
(0.0443388 -0.641747 0)
(0.109277 -0.479463 0)
(0.0673597 -0.230805 0)
(0.0715823 -0.439414 0)
(0.077634 -0.38426 0)
(0.0579572 -0.409549 0)
(0.165047 -0.456899 0)
(0.219352 -0.384695 0)
(0.367018 -0.597022 0)
(0.412429 -0.555446 0)
(0.37487 -0.488472 0)
(0.387567 -0.522154 0)
(0.320004 -0.699558 0)
(0.436055 -0.645571 0)
(0.597697 -0.759417 0)
(0.593161 -0.628406 0)
(0.719247 -0.738391 0)
(0.974549 -0.515632 0)
(1.1376 -0.65596 0)
(1.3952 -0.701938 0)
(1.46068 -0.567093 0)
(0.0446143 -0.479888 0)
(0.00160369 -0.477296 0)
(0.0274199 -0.699301 0)
(0.0770789 -0.512009 0)
(0.0300529 -0.256827 0)
(0.0852174 -0.482928 0)
(0.0428876 -0.412738 0)
(0.0829403 -0.478232 0)
(0.289018 -0.477279 0)
(0.33386 -0.509539 0)
(0.300425 -0.424627 0)
(0.300879 -0.483082 0)
(0.304058 -0.452866 0)
(0.303959 -0.585892 0)
(0.417844 -0.577983 0)
(0.437785 -0.503985 0)
(0.497525 -0.626628 0)
(0.715892 -0.756026 0)
(0.727189 -0.824966 0)
(0.935356 -0.729146 0)
(1.25316 -0.853358 0)
(1.47188 -0.758333 0)
(1.22914 -0.701935 0)
(0.0623149 -0.318831 0)
(0.0273752 -0.357673 0)
(0.0306882 -0.708016 0)
(0.105446 -0.348048 0)
(0.0293474 -0.289116 0)
(0.0675007 -0.362578 0)
(0.0565443 -0.350152 0)
(0.102132 -0.485505 0)
(0.254635 -0.571351 0)
(0.266509 -0.657298 0)
(0.187114 -0.488569 0)
(0.298238 -0.542951 0)
(0.307479 -0.508729 0)
(0.385675 -0.631692 0)
(0.410973 -0.502373 0)
(0.336399 -0.525883 0)
(0.47448 -0.487327 0)
(0.549237 -0.721948 0)
(0.73264 -0.758611 0)
(1.06236 -0.864811 0)
(1.36024 -0.970114 0)
(1.42843 -0.729294 0)
(1.34324 -1.12696 0)
(-0.0616759 -0.652348 0)
(-0.16243 -0.631224 0)
(0.0358675 -0.654601 0)
(-0.0247591 -0.741822 0)
(-0.0485457 -0.565567 0)
(0.181811 -0.70736 0)
(-0.131974 -0.476613 0)
(0.0438813 -0.474358 0)
(0.127008 -0.565246 0)
(0.300764 -0.686708 0)
(0.203842 -0.651986 0)
(0.239191 -0.66103 0)
(0.225695 -0.701429 0)
(0.451438 -0.594724 0)
(0.505923 -0.529055 0)
(0.43565 -0.463745 0)
(0.519754 -0.606546 0)
(0.538233 -0.698173 0)
(0.601795 -0.816611 0)
(0.90303 -0.896327 0)
(1.4751 -1.09486 0)
(1.37557 -1.15801 0)
(1.31847 -1.3956 0)
(-0.0213605 -0.859578 0)
(0.201302 -0.971762 0)
(0.0245062 -1.04063 0)
(-0.165658 -0.922929 0)
(-0.0118656 -0.821588 0)
(0.10391 -0.917308 0)
(0.235501 -0.816538 0)
(0.157245 -0.84127 0)
(0.067425 -0.638828 0)
(0.199234 -0.699617 0)
(0.11697 -0.718984 0)
(0.20369 -0.596717 0)
(0.373973 -0.673776 0)
(0.613103 -0.60456 0)
(0.439136 -0.967929 0)
(0.176568 -0.733999 0)
(0.385418 -0.901687 0)
(0.461104 -0.827652 0)
(0.63232 -0.873898 0)
(1.02667 -0.921808 0)
(1.15406 -1.14907 0)
(1.3999 -1.36752 0)
(1.54601 -1.69203 0)
(-0.0424108 -0.858841 0)
(0.0511143 -0.967184 0)
(-0.000357521 -1.16286 0)
(0.00344094 -0.89443 0)
(0.0253368 -0.898968 0)
(0.140243 -0.8646 0)
(0.0587029 -0.954072 0)
(0.116719 -1.00729 0)
(0.232672 -0.742144 0)
(0.237409 -0.694116 0)
(0.176734 -0.710433 0)
(0.331428 -0.693366 0)
(0.346692 -0.834599 0)
(0.120519 -0.820632 0)
(0.281969 -1.07021 0)
(0.387886 -0.917382 0)
(0.465067 -0.982126 0)
(0.61635 -0.897987 0)
(0.66346 -0.786307 0)
(0.821908 -1.08283 0)
(1.07501 -1.24431 0)
(1.17205 -1.40482 0)
(1.47988 -1.92257 0)
(-0.0422283 -0.84276 0)
(0.0584058 -1.02894 0)
(0.00904226 -1.06821 0)
(0.0416404 -0.962715 0)
(0.0309388 -1.01537 0)
(0.116598 -0.965872 0)
(-0.00211897 -1.06562 0)
(0.237163 -0.760047 0)
(0.328351 -0.729843 0)
(0.213233 -0.956538 0)
(-0.0264767 -0.83188 0)
(0.17876 -0.949119 0)
(0.403237 -1.03063 0)
(0.248036 -0.976988 0)
(0.267799 -0.982615 0)
(0.280356 -0.955713 0)
(0.440103 -0.966888 0)
(0.687935 -0.818649 0)
(0.517568 -0.977615 0)
(0.711825 -1.00893 0)
(0.90355 -1.33649 0)
(1.12146 -1.60425 0)
(1.07889 -2.19895 0)
(-0.0760972 -0.952122 0)
(0.0178162 -1.07149 0)
(-0.0399431 -1.04669 0)
(-0.0926866 -1.07196 0)
(0.00269976 -0.720937 0)
(0.143409 -1.03544 0)
(0.13154 -0.788251 0)
(0.345012 -0.64128 0)
(0.152028 -0.785399 0)
(0.189162 -1.03416 0)
(0.140464 -0.941515 0)
(0.126706 -0.938912 0)
(0.280686 -0.979781 0)
(0.100848 -1.14227 0)
(0.224206 -1.16353 0)
(0.394225 -1.19999 0)
(0.601934 -0.940641 0)
(0.568187 -1.10357 0)
(0.587892 -1.35396 0)
(0.563698 -1.29013 0)
(0.675104 -1.47981 0)
(0.73485 -1.69037 0)
(0.939868 -2.28204 0)
(0.0252849 -0.630959 0)
(0.173645 -1.07918 0)
(-0.103053 -1.06975 0)
(0.127798 -0.679079 0)
(0.0551167 -0.586723 0)
(0.149921 -0.718529 0)
(0.258142 -0.608697 0)
(0.21255 -0.503283 0)
(0.0835342 -0.67603 0)
(0.139406 -0.733691 0)
(0.0757568 -0.907418 0)
(0.106179 -0.880495 0)
(0.0938736 -0.950289 0)
(0.00762025 -1.10457 0)
(0.164189 -0.923373 0)
(0.497045 -1.12307 0)
(0.5898 -1.05176 0)
(0.267788 -1.22678 0)
(0.4776 -1.45118 0)
(0.612574 -1.4228 0)
(0.669176 -1.52588 0)
(0.665738 -1.70327 0)
(0.845692 -2.08703 0)
(-0.175135 -0.460885 0)
(-0.0632797 -0.719875 0)
(0.139218 -0.780203 0)
(0.217107 -0.551582 0)
(0.0543506 -0.619916 0)
(0.186457 -0.611589 0)
(0.240296 -0.591847 0)
(0.257751 -0.731466 0)
(-0.0584226 -0.913809 0)
(-0.130831 -0.828749 0)
(-0.0206909 -0.972894 0)
(0.0476751 -0.96973 0)
(0.0221063 -1.08914 0)
(0.14692 -1.16856 0)
(0.193476 -1.00825 0)
(0.320141 -1.04887 0)
(0.496259 -1.08124 0)
(0.157606 -1.17125 0)
(0.455374 -1.23378 0)
(0.59478 -1.36305 0)
(0.672553 -1.48859 0)
(0.680294 -1.98922 0)
(0.455781 -2.63843 0)
(-0.0794828 -0.348622 0)
(0.0506811 -0.585831 0)
(-0.00672078 -0.619297 0)
(0.0710282 -0.454636 0)
(0.0426983 -0.4677 0)
(0.220709 -0.595331 0)
(-0.00212614 -0.938208 0)
(-0.150158 -0.907089 0)
(-0.0254588 -1.06227 0)
(-0.0573506 -0.942981 0)
(-0.0165801 -1.00795 0)
(-0.0345665 -0.95442 0)
(-0.124004 -1.07494 0)
(0.00939564 -0.892368 0)
(0.253746 -1.10202 0)
(0.39812 -0.95191 0)
(0.518669 -1.37453 0)
(0.0800219 -1.2469 0)
(0.535342 -1.42333 0)
(0.549444 -1.59113 0)
(0.36955 -1.92236 0)
(0.185223 -2.21366 0)
(0.224399 -2.86996 0)
(-0.171681 -0.440072 0)
(0.0516902 -0.637337 0)
(0.0730462 -0.70262 0)
(0.228718 -0.650672 0)
(0.125005 -0.861459 0)
(-0.141165 -0.918432 0)
(-0.132475 -1.07117 0)
(-0.0643354 -0.975569 0)
(-0.0532344 -0.993272 0)
(-0.0626356 -0.958497 0)
(-0.00910874 -0.990658 0)
(-0.0428194 -0.943563 0)
(0.0357699 -1.01267 0)
(-0.0522662 -0.837472 0)
(0.239188 -1.01794 0)
(0.00557359 -0.929038 0)
(0.358829 -1.49144 0)
(0.128157 -1.28774 0)
(0.254194 -1.60165 0)
(0.24305 -1.63521 0)
(0.249197 -1.97192 0)
(0.106284 -2.1165 0)
(-0.370801 -2.35764 0)
(0.152067 -0.882297 0)
(0.179556 -1.01595 0)
(-0.181823 -1.00271 0)
(-0.202085 -1.05692 0)
(-0.0928344 -1.08711 0)
(-0.0618216 -1.13013 0)
(-0.0452286 -1.07159 0)
(-0.0506823 -1.02745 0)
(-0.0322886 -1.02529 0)
(-0.0498629 -1.01341 0)
(-0.00713584 -1.01703 0)
(-0.0568124 -1.01433 0)
(0.0329885 -1.03079 0)
(-0.0588966 -0.995422 0)
(0.230262 -1.00142 0)
(-0.0833839 -1.14439 0)
(0.258313 -1.36063 0)
(0.0107952 -1.2323 0)
(0.203524 -1.67797 0)
(0.202659 -1.59815 0)
(0.28327 -1.79009 0)
(-0.0792503 -2.37096 0)
(-0.714486 -2.36012 0)
(0.0183283 -1.0327 0)
(0.0183169 -1.18217 0)
(-0.0156154 -1.19204 0)
(-0.0347211 -1.08739 0)
(-0.0381503 -1.05577 0)
(-0.0451253 -1.03285 0)
(-0.0388801 -1.02983 0)
(-0.0473287 -1.01944 0)
(-0.0278337 -1.02068 0)
(-0.0413074 -1.0228 0)
(-0.00957692 -1.01638 0)
(-0.0623097 -1.01952 0)
(0.0258169 -1.03353 0)
(-0.0717172 -1.00533 0)
(0.0932725 -0.970246 0)
(-0.234331 -1.18138 0)
(0.394864 -1.02796 0)
(-0.138283 -1.61788 0)
(-0.11617 -1.19285 0)
(0.0556971 -1.5533 0)
(-0.331995 -2.00352 0)
(-0.058158 -2.50423 0)
(-0.694121 -2.35634 0)
(0.0111373 -1.00878 0)
(0.00613734 -1.05652 0)
(-0.0357376 -1.06327 0)
(-0.0695665 -1.05911 0)
(-0.0450138 -1.06367 0)
(-0.0332874 -1.05133 0)
(-0.0332683 -1.04467 0)
(-0.0371862 -1.0419 0)
(-0.0213625 -1.03273 0)
(-0.0395472 -1.0437 0)
(-0.00598898 -1.02392 0)
(-0.0669756 -1.01032 0)
(0.0186255 -0.98717 0)
(-0.043296 -0.908303 0)
(-0.0833735 -0.972398 0)
(-0.129951 -1.21781 0)
(0.0349316 -0.818776 0)
(-0.151351 -1.88376 0)
(0.179314 -0.877435 0)
(-0.264025 -1.6823 0)
(-0.622621 -1.51957 0)
(-0.203742 -1.75603 0)
(-0.726121 -2.27931 0)
(0.00163005 -1.03937 0)
(-0.00341082 -1.07996 0)
(-0.0154392 -1.08198 0)
(-0.0337569 -1.06836 0)
(-0.0239235 -1.04114 0)
(-0.0249532 -1.04689 0)
(-0.0226158 -1.03837 0)
(-0.026345 -1.04044 0)
(-0.0169662 -1.03516 0)
(-0.03054 -1.04817 0)
(0.0239659 -1.03809 0)
(-0.0125367 -1.08441 0)
(0.224159 -1.04528 0)
(-0.0705985 -1.21359 0)
(-0.232878 -1.04453 0)
(-0.186061 -1.11833 0)
(-0.194547 -1.05175 0)
(0.0753639 -1.29634 0)
(0.100303 -1.4932 0)
(-0.26818 -1.80767 0)
(-0.617925 -1.46222 0)
(-0.685105 -1.48155 0)
(-0.722524 -1.87603 0)
(-0.000319973 -1.02236 0)
(-0.00565604 -1.05506 0)
(-0.0224886 -1.05399 0)
(-0.0291338 -1.05013 0)
(-0.0169047 -1.04174 0)
(-0.0278075 -1.04504 0)
(-0.0230309 -1.04365 0)
(-0.031452 -1.0491 0)
(-0.0234434 -1.05349 0)
(-0.0329445 -1.06465 0)
(-0.028991 -1.07235 0)
(-0.0585937 -1.12109 0)
(-0.027388 -1.1327 0)
(-0.114345 -1.31126 0)
(-0.113696 -1.07398 0)
(-0.148076 -1.07254 0)
(-0.117513 -1.04066 0)
(-0.222339 -1.06842 0)
(-0.208536 -1.64616 0)
(-0.374098 -1.50266 0)
(-0.374268 -1.61033 0)
(-0.630326 -1.28785 0)
(-1.10481 -1.61381 0)
(-0.00272 -1.03456 0)
(-0.00539832 -1.06069 0)
(-0.0107656 -1.05884 0)
(-0.0177687 -1.04941 0)
(-0.0164308 -1.04714 0)
(-0.023831 -1.04826 0)
(-0.0215082 -1.04454 0)
(-0.0314527 -1.04988 0)
(-0.0270573 -1.05045 0)
(-0.0424231 -1.0621 0)
(-0.0339405 -1.06467 0)
(-0.0650779 -1.07442 0)
(-0.0518749 -1.07541 0)
(-0.12634 -1.09027 0)
(-0.13982 -1.01227 0)
(-0.169554 -1.04311 0)
(-0.142743 -0.973283 0)
(-0.337079 -1.12863 0)
(-0.471041 -1.27445 0)
(-0.30008 -1.05508 0)
(-0.199925 -1.004 0)
(-0.598878 -1.33238 0)
(-0.886996 -1.10251 0)
(0.00011975 -1.02329 0)
(-0.00274389 -1.04312 0)
(-0.00964728 -1.04591 0)
(-0.0155216 -1.04252 0)
(-0.0146227 -1.03961 0)
(-0.0213223 -1.04111 0)
(-0.0204425 -1.03786 0)
(-0.0309658 -1.04162 0)
(-0.0308083 -1.03772 0)
(-0.0453783 -1.04643 0)
(-0.0463687 -1.04578 0)
(-0.0727282 -1.07332 0)
(-0.0769746 -1.06831 0)
(-0.114808 -1.08691 0)
(-0.114546 -0.989527 0)
(-0.143256 -1.00743 0)
(-0.185173 -0.968515 0)
(-0.353453 -0.969962 0)
(-0.122673 -0.900423 0)
(-0.1266 -0.973937 0)
(-0.583649 -0.821262 0)
(-0.711929 -1.32274 0)
(-0.95522 -0.852377 0)
(0.000246396 -1.01785 0)
(-0.00416424 -1.03842 0)
(-0.0064207 -1.04177 0)
(-0.0116363 -1.03649 0)
(-0.0134318 -1.03419 0)
(-0.019473 -1.03348 0)
(-0.0202466 -1.02925 0)
(-0.0293861 -1.03148 0)
(-0.0285874 -1.0232 0)
(-0.0424433 -1.02596 0)
(-0.0411058 -1.016 0)
(-0.0675238 -1.02127 0)
(-0.0746294 -1.01116 0)
(-0.115212 -1.01692 0)
(-0.118563 -0.960792 0)
(-0.171977 -0.968385 0)
(-0.173192 -0.949066 0)
(-0.224864 -0.893659 0)
(-0.26421 -0.790019 0)
(-0.194019 -1.07881 0)
(-0.537502 -0.88535 0)
(-0.503669 -0.944315 0)
(-0.499605 -0.791969 0)
(0.000235849 -1.01895 0)
(-0.00593319 -1.03747 0)
(-0.00721952 -1.03802 0)
(-0.00929819 -1.03676 0)
(-0.0123044 -1.03396 0)
(-0.017242 -1.03358 0)
(-0.0188673 -1.02831 0)
(-0.0259545 -1.02899 0)
(-0.0240068 -1.01918 0)
(-0.0359104 -1.018 0)
(-0.0357907 -1.0042 0)
(-0.0565011 -1.00238 0)
(-0.0567627 -0.988073 0)
(-0.0917554 -0.990994 0)
(-0.0843844 -0.931948 0)
(-0.142428 -0.922576 0)
(-0.164471 -0.899111 0)
(-0.207977 -0.856383 0)
(-0.204323 -0.819402 0)
(-0.214363 -0.853447 0)
(-0.624371 -0.837934 0)
(-0.590556 -0.615174 0)
(-0.352711 -0.647947 0)
(-0.000144688 -1.01508 0)
(-0.00363728 -1.03011 0)
(-0.00499986 -1.02534 0)
(-0.00605318 -1.02659 0)
(-0.007507 -1.02345 0)
(-0.00982703 -1.02203 0)
(-0.0112021 -1.01585 0)
(-0.0152198 -1.01234 0)
(-0.0134589 -1.00125 0)
(-0.0243323 -0.999813 0)
(-0.0249485 -0.98304 0)
(-0.042907 -0.975557 0)
(-0.0389229 -0.949929 0)
(-0.0759421 -0.962937 0)
(-0.0615955 -0.907725 0)
(-0.130857 -0.892153 0)
(-0.144226 -0.882214 0)
(-0.185206 -0.834996 0)
(-0.240711 -0.815141 0)
(-0.289064 -0.971988 0)
(-0.289331 -0.861231 0)
(-0.382908 -0.494735 0)
(-0.326455 -0.564014 0)
(-0.000197909 -1.00355 0)
(-0.00249145 -1.01674 0)
(-0.00389769 -1.01404 0)
(-0.00528304 -1.01348 0)
(-0.00671838 -1.01028 0)
(-0.00833452 -1.00902 0)
(-0.00945726 -1.00267 0)
(-0.0125961 -1.00095 0)
(-0.0108364 -0.989663 0)
(-0.0184967 -0.986053 0)
(-0.0128651 -0.97297 0)
(-0.0214276 -0.964774 0)
(-0.018305 -0.938528 0)
(-0.0573705 -0.922509 0)
(-0.0122067 -0.87318 0)
(-0.0991406 -0.838851 0)
(-0.11971 -0.824446 0)
(-0.186565 -0.758086 0)
(-0.264701 -0.738541 0)
(-0.290299 -0.643298 0)
(-0.147315 -0.684841 0)
(-0.313071 -0.533481 0)
(-0.325309 -0.62646 0)
(0.000518979 -1.00714 0)
(-0.000644253 -1.01705 0)
(-0.00208612 -1.01533 0)
(-0.00280418 -1.01459 0)
(-0.00373095 -1.01233 0)
(-0.00361269 -1.01059 0)
(-0.00490184 -1.00599 0)
(-0.00621409 -1.00276 0)
(-0.00141101 -0.992789 0)
(-0.00409326 -0.986652 0)
(0.0100556 -0.974909 0)
(0.00744899 -0.959249 0)
(0.0244876 -0.942185 0)
(-0.0105125 -0.916217 0)
(0.0260535 -0.86817 0)
(-0.0653998 -0.794541 0)
(-0.0782328 -0.796102 0)
(-0.139029 -0.719712 0)
(-0.167907 -0.692162 0)
(-0.223694 -0.567603 0)
(-0.206233 -0.577555 0)
(-0.291957 -0.557692 0)
(-0.177575 -0.654852 0)
(0.000738378 -0.983076 0)
(0.000355819 -0.990997 0)
(-0.000786151 -0.989892 0)
(-0.00152005 -0.989265 0)
(-0.0017482 -0.987785 0)
(-0.00100826 -0.986182 0)
(-0.000718133 -0.983768 0)
(0.000916434 -0.979197 0)
(0.00604444 -0.969882 0)
(0.00402911 -0.963443 0)
(0.0202493 -0.952413 0)
(0.0210097 -0.938774 0)
(0.0371547 -0.929589 0)
(0.0448104 -0.877229 0)
(0.0847778 -0.866394 0)
(-0.0473043 -0.779039 0)
(-0.0779149 -0.755024 0)
(-0.119085 -0.705041 0)
(-0.160008 -0.651686 0)
(-0.218604 -0.584738 0)