/*--------------------------------*- C++ -*----------------------------------*\
| =========                 |                                                 |
| \\      /  F ield         | foam-extend: Open Source CFD                    |
|  \\    /   O peration     | Version:     4.1                                |
|   \\  /    A nd           | Web:         http://www.foam-extend.org         |
|    \\/     M anipulation  |                                                 |
\*---------------------------------------------------------------------------*/
FoamFile
{
    version     2.0;
    format      ascii;
    class       volScalarField;
    location    "0.45";
    object      p;
}
// * * * * * * * * * * * * * * * * * * * * * * * * * * * * * * * * * * * * * //

dimensions      [1 -1 -2 0 0 0 0];

internalField   nonuniform List<scalar> 
2268
(
650.698
649.644
649.273
641.263
642.061
632.215
636.318
635.89
635.864
664.658
658.16
739.813
708.136
740.325
755.443
777.617
800.5
820.814
839.773
860.585
886.886
907.83
922.728
591.654
590.565
590.054
582.056
582.819
573.046
576.488
576.244
574.997
611.204
585.458
673.93
649.926
680.782
696.679
720.041
740.749
764.65
780.857
798.604
828.109
848.02
864.616
532.373
531.263
530.621
522.862
523.133
513.114
517.425
516.203
516.805
537.072
556.104
596.234
589.331
617.492
636.926
658.876
681.521
702.32
722.419
740.484
765.351
785.706
799.86
473.024
471.77
470.708
463.096
463.001
453.621
455.189
453.243
452.266
502.748
482.03
528.073
529.63
556.299
580.23
598.124
625.148
642.52
662.895
679.691
704.878
724.653
735.516
413.386
412.101
410.733
403.609
402.236
391.976
396.542
396.18
387.873
429.644
428.968
463.351
469.469
495.971
519.672
541.004
566.359
584.149
607.017
621.39
642.506
660.958
667.858
353.852
352.28
349.907
343.225
341.157
333.093
328.686
327.804
345.553
360.673
364.078
394.258
409.359
434.088
463.491
481.747
507.4
526.289
548.649
564.615
584.62
601.952
598.947
293.79
292.28
289.472
283.388
280.433
267.434
279.243
259.251
283.566
291.173
302.459
331.829
346.704
373.356
401.859
422.253
453.055
466.288
497.938
505.901
529.799
540.04
521.368
234.075
232.194
228.302
220.5
217.366
214.221
201.644
208.477
213.193
223.311
233.973
264.158
283.832
311.982
347.52
366.793
390.796
413.432
437.992
450.339
471.968
472.277
463.121
233.357
233.903
232.861
229.936
228.488
227.425
228.491
230.959
237.596
328.219
329.169
332.676
361.146
333.508
-9.22696
127.6
1484.11
2482.15
2654.41
224.012
223.993
223.734
223.135
223.186
222.685
222.478
222.5
224.701
245.785
273.126
207.953
186.484
202.529
171.162
220.983
867.894
2359.26
2535.47
223.674
223.72
223.467
223.015
223.256
222.362
222.773
222.908
224.015
227.295
222.206
191.715
197.646
205.291
217.539
298.213
873.323
2094.7
2265.55
223.571
223.567
223.445
222.807
223.003
222.113
222.517
221.98
222.829
223.693
217.796
198.368
208.719
207.372
213.843
277.225
791.559
1839.79
2040.75
223.455
223.096
223.306
222.837
222.824
222.045
222.057
221.292
221.747
222.268
218.907
208.95
213.416
209.149
213.745
237.624
490.891
1447.06
1778.26
223.086
222.773
223.295
222.71
222.696
222.196
221.791
220.768
220.716
220.767
219.38
217.439
214.91
210.324
212.961
224.403
340.518
1200.59
1550.15
217.808
214.361
222.865
222.643
222.539
221.993
221.454
220.364
219.578
220.029
219.832
219.762
212.897
210.589
212.873
220.25
256.623
1035.85
1379.91
162.854
243.309
220.714
222.535
222.363
221.803
221.241
219.913
219.015
219.002
219.728
219.436
214.925
211.538
213.045
221.486
268.933
959.282
1230.84
141.262
139.949
133.688
134.069
128.493
101.377
126.233
107.749
115.251
121.947
135.444
155.807
179.576
216.949
246.937
267.146
315.796
317.813
355.763
355.122
397.785
354.443
346.794
42.7662
41.9136
39.5831
31.6973
34.8788
27.6075
26.3824
22.9542
20.8926
23.1814
27.8988
40.9844
63.6922
94.7565
124.528
170.661
186.973
214.842
249.307
227.584
265.4
242.691
293.649
3.19886
3.11993
2.76095
1.8432
2.15234
1.55738
1.41232
1.13177
1.08014
1.27067
1.71417
3.43138
7.48857
18.6476
40.0817
61.1454
85.7668
102.421
121.423
126.778
168.358
183.124
207.085
0.277396
0.278329
0.293728
0.28172
0.303163
0.310323
0.325282
0.340999
0.325634
0.381952
0.394692
0.61484
0.816675
2.21583
5.93729
11.2016
19.8516
29.1667
36.9107
48.5554
65.4795
84.6251
116.158
0.105624
0.104541
0.109668
0.116917
0.134692
0.137694
0.163434
0.174659
0.196322
0.216212
0.214161
0.246675
0.242834
0.335476
0.475387
0.775457
1.30234
2.65123
3.00371
4.33128
8.70906
20.2855
38.3272
-0.0345098
-0.0382435
-0.0268215
-0.0194763
-0.00283556
0.00119343
0.0206355
0.0349547
0.0406701
0.0561336
0.0703564
0.0583515
0.0242916
0.00536541
-0.0113086
0.0262261
0.0189323
0.0423289
0.0991924
0.215989
0.475754
3.06822
5.6867
-0.175657
-0.177212
-0.168103
-0.160844
-0.143646
-0.140146
-0.130582
-0.114196
-0.102301
-0.0998595
-0.0794616
-0.0884468
-0.0891362
-0.094479
-0.108869
-0.104069
-0.0979241
-0.0851047
-0.0344603
-0.013093
0.0497058
0.115536
0.146682
-0.316376
-0.316944
-0.307705
-0.30332
-0.289448
-0.282083
-0.274358
-0.261628
-0.258311
-0.245646
-0.237304
-0.252868
-0.23843
-0.246432
-0.250399
-0.226872
-0.224129
-0.192989
-0.176667
-0.149007
-0.143628
-0.11821
-0.0328143
-0.457555
-0.458104
-0.447524
-0.447876
-0.435221
-0.432116
-0.425412
-0.415263
-0.413602
-0.402546
-0.41559
-0.390772
-0.394662
-0.381737
-0.377809
-0.370145
-0.349474
-0.329541
-0.281603
-0.258264
-0.213272
-0.215478
-0.21188
-0.603597
-0.604684
-0.594984
-0.595071
-0.588612
-0.579584
-0.57306
-0.562305
-0.551568
-0.550383
-0.531677
-0.547046
-0.525233
-0.545035
-0.520313
-0.504699
-0.492362
-0.442289
-0.435612
-0.381466
-0.385513
-0.336248
-0.273037
-0.749484
-0.75123
-0.742024
-0.745729
-0.742661
-0.732458
-0.731056
-0.711226
-0.719372
-0.693468
-0.712418
-0.681554
-0.692201
-0.665463
-0.651597
-0.64793
-0.624362
-0.610967
-0.543677
-0.549633
-0.477426
-0.456628
-0.412878
-0.900038
-0.897276
-0.893433
-0.892663
-0.895642
-0.882827
-0.872577
-0.859331
-0.836738
-0.853382
-0.801479
-0.855769
-0.783489
-0.85708
-0.783127
-0.79936
-0.755965
-0.710369
-0.70407
-0.628638
-0.66168
-0.555233
-0.519405
-1.04946
-1.04676
-1.05307
-1.04878
-1.05602
-1.03598
-1.03132
-1.01587
-1.02693
-0.991804
-1.03523
-0.966906
-0.987136
-0.958521
-0.973913
-0.902186
-0.947159
-0.908916
-0.81459
-0.869774
-0.712983
-0.692197
-0.649133
-1.19472
-1.19051
-1.20418
-1.19714
-1.19544
-1.18298
-1.17985
-1.17133
-1.1607
-1.1544
-1.10706
-1.14043
-1.10409
-1.11303
-1.11562
-1.10043
-1.01547
-1.03104
-0.946252
-0.98123
-0.952971
-0.758047
-0.769777
-1.35599
-1.35479
-1.36394
-1.3524
-1.35869
-1.34114
-1.34893
-1.31901
-1.35878
-1.30206
-1.4102
-1.27905
-1.29339
-1.23516
-1.31158
-1.21848
-1.30192
-1.11437
-1.23511
-1.03304
-1.10133
-0.942687
-0.947417
-1.4852
-1.48823
-1.48314
-1.49827
-1.49429
-1.48398
-1.4799
-1.48767
-1.46708
-1.46471
-1.42531
-1.48856
-1.42946
-1.45525
-1.4214
-1.34778
-1.43641
-1.37239
-1.31228
-1.29342
-1.27409
-1.12096
-1.07653
-1.68058
-1.68435
-1.66084
-1.68783
-1.65815
-1.67557
-1.65535
-1.65006
-1.65022
-1.65189
-1.63727
-1.62712
-1.60828
-1.59599
-1.55401
-1.63802
-1.52769
-1.54769
-1.52926
-1.44239
-1.43092
-1.28605
-1.23518
-1.77725
-1.73242
-1.79965
-1.75788
-1.78759
-1.7453
-1.77323
-1.79848
-1.80864
-1.82794
-1.75926
-1.79533
-1.77228
-1.77884
-1.73234
-1.76118
-1.64587
-1.79291
-1.58134
-1.71476
-1.64555
-1.48096
-1.45579
-2.00551
-2.03539
-1.89102
-2.02064
-1.96453
-2.0197
-1.97776
-1.93778
-1.95397
-1.9855
-2.00294
-1.96745
-1.98966
-1.89899
-1.97132
-1.82236
-1.97399
-1.87651
-1.88356
-1.78703
-1.93345
-1.79056
-1.34218
-2.17181
-2.20533
-2.26205
-2.19241
-2.18554
-2.18464
-2.16751
-2.19743
-2.14717
-2.14357
-2.13796
-2.09966
-2.15242
-2.09768
-2.23265
-2.16227
-2.08144
-2.10107
-1.99595
-2.10855
-2.06492
-1.93881
-1.97961
-2.36791
-2.3603
-2.35962
-2.36361
-2.34399
-2.34152
-2.34318
-2.38675
-2.32939
-2.32079
-2.31719
-2.34179
-2.33424
-2.31735
-2.26131
-2.33045
-2.34223
-2.38
-2.23995
-2.33652
-2.32338
-2.24945
-2.03873
-2.52253
-2.54136
-2.55362
-2.54116
-2.59996
-2.54221
-2.5893
-2.51792
-2.51023
-2.57344
-2.49914
-2.51671
-2.54104
-2.5479
-2.52661
-2.5517
-2.46411
-2.49933
-2.51961
-2.28815
-2.55501
-2.51414
-2.60213
-2.73594
-2.72926
-2.67871
-2.78384
-2.64798
-2.75361
-2.65234
-2.66199
-2.73638
-2.68068
-2.757
-2.68896
-2.73458
-2.82718
-2.7224
-2.86783
-2.74817
-2.93419
-2.82451
-3.05814
-2.76086
-2.85191
-2.57101
-2.84854
-2.91225
-2.91981
-2.79235
-2.81401
-2.7893
-2.79486
-2.79996
-2.76055
-2.81603
-2.86301
-2.8494
-2.92467
-2.88302
-2.90587
-2.88464
-3.11678
-2.97434
-2.94435
-3.30331
-3.13196
-3.08837
-3.24546
-2.9565
-2.92134
-2.90374
-3.0098
-3.00342
-2.99569
-2.98393
-3.06851
-3.09824
-3.06904
-3.09244
-3.1211
-3.15047
-3.17448
-3.31842
-3.09725
-3.37117
-3.22699
-3.14373
-3.48426
-3.59024
-4.04102
-3.6292
-3.20088
-3.18787
-3.15551
-3.10025
-3.044
-3.06437
-3.21992
-3.16254
-3.21867
-3.2202
-3.22221
-3.26625
-3.27542
-3.24734
-3.33466
-3.37534
-3.61157
-3.48853
-3.59996
-4.10652
-4.0226
-4.51233
-4.20264
-3.24471
-3.21819
-3.22276
-3.37868
-3.42211
-3.44784
-3.42737
-3.42506
-3.43254
-3.43599
-3.44666
-3.48442
-3.46504
-3.52341
-3.56787
-3.67363
-3.63384
-3.95874
-3.90714
-3.95057
-4.2815
-4.84495
-4.62603
-3.58642
-3.64205
-3.63696
-3.57416
-3.55679
-3.55419
-3.56392
-3.5717
-3.57666
-3.60263
-3.61077
-3.61637
-3.65445
-3.68626
-3.71341
-3.95826
-3.86536
-4.15754
-4.16689
-4.59063
-5.36116
-5.46186
-5.91525
-3.6808
-3.68857
-3.70657
-3.72265
-3.73991
-3.75094
-3.7581
-3.76529
-3.77619
-3.79102
-3.80567
-3.79987
-3.8776
-3.88486
-3.99517
-4.10275
-4.06699
-4.64862
-4.12013
-4.57576
-5.29187
-5.4329
-6.14237
-3.90662
-3.91227
-3.91142
-3.90649
-3.90918
-3.91268
-3.91934
-3.92185
-3.93666
-3.93689
-3.96582
-3.97199
-3.94077
-3.91486
-4.11104
-4.20505
-4.40179
-4.70494
-4.56198
-5.17341
-4.93502
-5.87715
-6.578
-4.04883
-4.049
-4.06137
-4.0646
-4.07315
-4.08296
-4.0913
-4.10072
-4.121
-4.11826
-4.17956
-4.17006
-4.28067
-4.44925
-4.32112
-4.42865
-4.5417
-4.52928
-5.33934
-5.27585
-6.07378
-5.59878
-6.64874
-4.22937
-4.23096
-4.23189
-4.23468
-4.24088
-4.24745
-4.25454
-4.26323
-4.27359
-4.2854
-4.29426
-4.32994
-4.37867
-4.42695
-4.44135
-4.53123
-4.60046
-4.79358
-5.43042
-5.69063
-6.12383
-6.0337
-7.10508
-4.3856
-4.38689
-4.39022
-4.39465
-4.40135
-4.40747
-4.41504
-4.42288
-4.43515
-4.45116
-4.4698
-4.49406
-4.53199
-4.5724
-4.58634
-4.64438
-4.73944
-4.9431
-5.24656
-4.99221
-5.36742
-6.37433
-6.71334
-4.5505
-4.55089
-4.55327
-4.55681
-4.56069
-4.56604
-4.57109
-4.58018
-4.58865
-4.60056
-4.61731
-4.63054
-4.65453
-4.67899
-4.71634
-4.74884
-4.89705
-4.94164
-4.85749
-5.53786
-6.18546
-6.2769
-6.9677
-4.71004
-4.7112
-4.71203
-4.71534
-4.71738
-4.72261
-4.72592
-4.73279
-4.73969
-4.74776
-4.7603
-4.76696
-4.7876
-4.7963
-4.8226
-4.84049
-4.91
-4.98068
-4.92733
-5.04379
-5.77771
-5.66672
-6.56517
-4.86658
-4.86794
-4.86894
-4.87121
-4.87276
-4.87573
-4.87855
-4.88204
-4.88685
-4.8898
-4.89792
-4.90113
-4.91203
-4.91542
-4.93169
-4.93225
-4.98674
-5.04525
-4.93944
-5.61753
-5.38503
-5.18241
-5.70654
-5.02405
-5.02496
-5.02547
-5.02695
-5.02754
-5.02942
-5.0303
-5.03224
-5.03356
-5.03376
-5.03527
-5.03341
-5.0242
-5.04957
-5.03951
-5.0513
-5.08472
-5.09768
-5.18579
-5.36525
-5.46513
-5.01581
-5.93902
-5.17108
-5.17124
-5.17131
-5.17141
-5.17151
-5.17125
-5.17108
-5.16944
-5.16928
-5.16375
-5.16764
-5.14921
-5.19061
-5.1392
-5.15732
-5.13175
-5.1353
-5.12633
-5.21169
-5.16823
-5.30246
-5.09524
-5.84387
-5.34681
-5.34689
-5.34687
-5.34672
-5.3464
-5.34591
-5.34381
-5.34484
-5.34423
-5.33317
-5.34123
-5.30813
-5.3121
-5.24884
-5.2645
-5.24131
-5.26808
-5.22952
-5.24384
-5.22074
-5.28161
-5.33484
-4.79158
-5.4546
-5.45458
-5.45457
-5.45378
-5.45414
-5.45132
-5.45341
-5.44508
-5.44725
-5.44155
-5.43985
-5.43876
-5.43275
-5.418
-5.40504
-5.38167
-5.33879
-5.327
-5.34583
-5.24314
-5.39157
-5.21734
-5.20441
-5.72039
-5.72078
-5.72061
-5.72001
-5.71969
-5.71772
-5.71783
-5.71292
-5.70965
-5.69975
-5.6908
-5.66447
-5.63835
-5.5748
-5.51797
-5.52923
-5.4731
-5.46859
-5.48595
-5.3676
-5.49083
-5.46891
-5.96388
-5.62468
-5.62476
-5.6248
-5.62477
-5.62493
-5.62479
-5.62529
-5.62518
-5.62709
-5.62991
-5.63444
-5.64429
-5.65733
-5.67629
-5.70971
-5.66086
-5.64105
-5.6314
-5.65736
-5.69524
-5.82608
-5.80177
-6.59882
285.503
132.944
197.907
304.502
246.755
253.38
277.454
250.608
205.48
193.54
191.498
193.154
127.129
130.491
140.007
147.168
55.5978
61.2365
69.8346
77.6112
9.08317
15.0065
21.82
33.0482
0.697422
1.18597
2.55203
2.7312
-0.0887808
-0.121847
-0.222868
-0.10273
-0.205528
-0.203754
-0.189216
-0.254237
-0.24525
-0.221067
-0.218986
-0.14995
-0.360728
-0.346629
-0.30855
-0.278005
-0.44441
-0.408579
-0.352461
-0.320644
-0.585657
-0.545329
-0.504748
-0.467418
-0.671557
-0.629651
-0.585075
-0.551129
-0.806834
-0.801844
-0.719873
-0.705002
-0.912168
-0.932926
-0.758231
-0.796927
-1.01612
-1.02679
-0.980356
-0.954867
-1.14973
-1.1302
-1.07794
-1.02123
-1.38983
-1.36134
-1.29652
-1.2682
-1.47344
-1.39173
-1.37328
-1.31896
-2.10651
-1.66912
-1.68926
-1.59995
-2.18625
-2.20369
-2.28846
-2.19625
-2.47285
-2.46831
-2.46703
-2.76124
-2.72666
-2.70998
-3.04691
-3.3936
-4.54022
-4.68828
-4.14735
-4.51679
-5.03439
-5.17251
-5.43761
-5.22123
-4.96363
-5.65863
-5.95313
-6.23638
-5.97499
-6.1047
-6.23363
-6.40427
-6.50993
-6.78345
-7.14956
-7.23475
-6.9743
-7.20947
-7.43409
-7.69832
-7.16412
-7.4627
-7.80251
-8.23392
-7.5708
-7.89743
-8.22898
-8.56269
-7.3959
-7.62101
-8.00596
-8.32971
-7.09177
-7.45201
-7.87607
-8.27112
-7.08041
-7.43823
-7.84144
-8.10382
-7.61181
-7.65381
-7.75084
-8.05489
-6.43891
-6.76619
-7.08372
-7.40621
-6.35689
-6.63047
-6.66906
-6.78186
-6.41713
-6.59201
-6.60986
-6.65826
-5.49727
-5.72658
-6.12459
-6.2252
-5.8165
-5.82472
-6.29401
-6.83823
-7.21008
-7.29538
-7.44804
-7.32696
212.687
205.834
223.326
222.504
222.04
221.589
221.059
219.793
218.252
218.632
218.761
218.128
221.372
214.65
214.102
214.848
201.929
763.126
1097.2
254.151
122.664
207.287
221.684
221.913
221.409
221.288
220.664
219.553
219.896
219.575
218.666
216.984
216.33
215.564
218.329
242.664
765.099
969.25
206.653
173.013
161.2
202.431
217.076
221.384
221.332
221.27
220.525
220.181
220.217
219.436
217.906
217.58
217.761
276.01
475.563
631.975
873.242
141.415
139.525
62.9896
163.389
194.82
212.625
221.636
221.485
221.414
221.318
220.596
219.47
218.75
217.956
223.437
323.317
763.655
586.947
834.227
80.0757
121.168
87.2813
67.8293
177.272
162.792
206.957
220.106
220.768
221.543
220.682
219.213
217.236
217.18
235.982
430.139
493.256
574.497
685.544
41.5592
3.97237
47.2248
85.6523
50.356
61.4126
200.909
182.524
214.001
220.903
219.779
220.013
218.733
224.72
307.381
445.328
441.971
573.919
645.605
12.5405
3.26329
18.7928
22.2441
27.9941
40.2379
64.7151
46.3369
167.48
196.631
216.356
218.128
218.743
218
340.743
394.641
400.149
393.832
554.842
5.08016
2.17171
1.44291
2.10546
3.22523
5.04457
9.06345
22.2408
95.767
138.422
182.37
216.056
215.388
205.663
275.785
338.692
308.718
369.493
452.78
-0.20618
-0.0110259
0.180295
0.226418
0.368842
0.432415
0.634838
1.04987
5.01266
5.94607
72.0105
183.149
115.766
93.2125
383.179
256.99
251.921
246.341
321.545
-0.161994
-0.120107
0.00595486
0.12117
0.20892
0.390728
0.48953
0.434575
0.632685
1.89911
17.5386
42.8171
-48.583
241.692
170.481
225.897
116.296
165.694
260.036
-0.204346
-0.0892116
-0.0790157
0.105955
0.194027
0.352894
0.375772
0.344223
0.211111
-0.034605
1.09047
3.30617
13.9529
47.9476
118.812
80.5075
95.0725
43.6923
167.103
-0.230827
-0.162715
-0.155033
0.0456644
0.089331
0.293387
0.335677
0.366243
-0.0328252
-0.173273
2.18807
4.90374
13.6554
14.0127
61.3222
66.7482
83.6258
64.831
220.833
-0.33234
-0.289406
-0.137481
-0.0051146
0.0614561
0.322734
0.348531
0.659558
0.846717
-0.0227714
0.769308
4.42607
5.21131
0.509451
29.5632
36.6788
62.4328
20.0948
193.916
-0.44678
-0.358491
-0.206506
-0.0551648
0.0932719
0.395596
0.421137
0.530914
0.593367
0.0905225
1.68831
1.84942
1.50447
2.90513
12.7787
27.5759
34.9435
43.6061
102.793
-0.577998
-0.481538
-0.289151
-0.0762897
0.142903
0.351948
0.428893
0.60733
0.660233
0.707026
0.916266
1.58263
1.5458
1.29637
2.45152
9.42893
12.871
6.72722
51.0178
-0.67962
-0.615285
-0.367407
-0.218565
0.11326
0.201192
0.325503
0.465491
0.520298
0.811268
0.951079
1.11832
1.3082
1.29437
1.26789
1.86273
3.73007
8.33769
31.4962
-0.814498
-0.834583
-0.54026
-0.314729
-0.0710033
0.147685
0.334668
0.430794
0.639882
0.799162
1.03896
1.02703
1.2848
1.2161
1.55816
1.19513
3.02766
9.13447
27.9693
-0.977872
-0.724992
-0.849369
-0.52768
-0.221187
-0.00301184
0.124611
0.176701
0.605749
0.501386
0.898292
0.938745
1.18726
1.30227
1.5956
1.5681
3.6416
3.89269
20.3977
-1.1895
-1.08048
-0.8434
-0.732577
-0.364161
-0.138086
0.0795906
0.0711606
0.19319
0.587762
0.829949
0.909982
1.12726
1.1662
1.5007
1.39963
3.41659
2.23605
5.23332
-1.30149
-0.897333
-1.29996
-1.03591
-0.680437
-0.499351
-0.396777
-0.227395
0.0933861
0.197698
0.504492
0.768123
1.06119
1.12067
1.26716
1.09088
1.88148
2.41486
2.67772
-1.68528
-1.57357
-1.82405
-1.03497
-0.893406
-0.432742
-0.522225
-0.360929
-0.366705
0.0365816
0.421123
0.786515
1.09843
1.26682
1.46116
2.65775
2.27309
1.13731
6.10777
-2.02654
-1.7429
-2.22153
-1.85362
-1.34939
-0.846218
-0.840577
-0.55169
-0.0791649
-0.235189
0.284298
0.365571
0.767413
1.33294
1.40855
4.29812
6.75056
3.79417
17.9466
-3.19676
-2.35564
-3.13516
-2.6443
-1.10386
-1.20262
-1.08753
-0.896522
-0.609225
-0.142639
-0.755148
-2.32885
-1.24519
0.157692
5.33022
4.50615
6.24199
2.33834
14.5284
-4.91275
-4.50307
-3.48434
-1.98488
-1.42682
-1.56762
-1.31532
-1.07877
-0.998511
-0.474581
0.317734
-0.284754
8.0294
2.19713
3.62884
5.44698
7.25318
5.42194
7.47516
-4.62781
-5.18895
-3.7853
-3.26836
-2.62954
-2.35474
-1.97641
-1.73321
-1.36864
-1.06732
-3.57903
10.6289
3.00353
6.19876
7.66227
6.88294
5.88489
3.84707
3.9473
-5.36226
-5.37752
-4.99303
-4.22193
-3.52604
-3.4412
-2.72742
-2.38397
-1.95579
-1.87492
-2.70847
-2.12998
-2.45951
4.74033
6.98033
9.71081
6.15056
2.38037
5.301
-5.81005
-6.27681
-5.73979
-4.86407
-4.73537
-4.85994
-3.4433
-3.02295
-2.57385
-3.06352
-6.85367
-2.55211
-3.34964
-7.34113
0.322373
11.3062
-15.2223
-2.87923
7.84855
-6.51572
-7.03043
-6.63241
-5.26329
-5.11263
-3.12087
-4.73249
-2.96987
-2.29656
-3.47617
-6.90656
-5.29306
-5.50625
-2.50202
-7.77274
2.77304
14.7756
-24.2865
30.1436
-7.41311
-7.64307
-8.33698
-8.12023
-6.53633
-3.9243
-3.23874
-4.13713
-5.25695
-4.65506
-7.48893
-6.9704
-7.00678
-7.02416
-6.55645
-5.1269
-1.26249
-5.78666
40.7392
-8.17761
-8.88877
-8.69206
-8.34505
-6.9116
-5.0219
-3.83378
-5.20764
-5.12432
-5.82314
-6.74202
-6.58641
-7.51056
-7.22048
-7.21875
-7.03689
-8.50074
-7.28441
31.5637
-8.92013
-9.7093
-9.17144
-9.3838
-6.74606
-5.35051
-4.91091
-4.93852
-7.63894
-7.23521
-6.97714
-7.49615
-7.57779
-7.73694
-7.86811
-7.13164
-7.64185
-7.98183
26.3622
-9.1735
-10.1667
-9.37708
-7.46153
-6.74981
-5.66097
-3.28569
-4.57573
-5.3922
-6.38396
-6.9913
-7.63475
-7.87507
-7.38887
-7.05592
-6.76662
-5.72092
-6.26386
11.3073
-8.90326
-10.1552
-8.74014
-8.38213
-7.22433
-4.71896
-0.896454
-4.99277
-6.09922
-6.39862
-6.81414
-7.39849
-7.90255
-7.32053
-6.80916
-6.59166
-5.99611
-4.58903
-4.97633
-8.61183
-9.64433
-9.37729
-8.60138
-7.20476
-8.55198
-6.49159
-6.3905
-6.81239
-6.80287
-6.56244
-7.24233
-7.64586
-7.74208
-7.24349
-6.31323
-5.36015
-3.59696
-1.30481
-8.83604
-8.6776
-8.65707
-7.70135
-8.04505
-9.22739
-7.14765
-6.40488
-6.71991
-6.9329
-6.62372
-7.01844
-6.82117
-6.40715
-6.38145
-5.73394
-5.38268
-6.45165
2.19398
-8.73813
-7.63995
-8.0514
-4.56711
-6.5371
-4.93438
-6.30061
-6.2809
-6.12814
-6.74613
-6.6847
-7.13336
-5.29588
-6.15507
-6.42756
-6.07709
-5.54763
-5.66178
-0.347856
-7.93104
-9.08256
-7.88584
-4.27774
-5.66055
-7.22452
-6.69295
-6.40066
-6.42673
-6.1405
-5.65086
-5.40408
-5.92587
-6.16102
-6.4798
-6.17329
-6.0994
-5.88669
-4.44171
-7.07415
-9.56204
-4.36849
-5.11311
-3.64348
-5.15275
-5.94583
-5.97463
-5.57995
-6.02554
-5.67478
-5.70795
-5.97511
-6.48245
-5.71897
-6.04791
-6.29286
-5.93516
-4.94578
-6.80577
-7.68284
-7.01155
-6.17387
-5.68914
-5.62156
-5.83332
-5.7512
-5.57553
-5.69418
-5.85939
-5.72066
-5.73276
-5.74495
-6.00081
-6.1919
-6.35999
-6.33603
-4.49209
-7.24035
-6.91554
-6.74597
-6.18547
-5.58012
-5.5872
-5.67816
-5.66056
-5.63601
-5.77666
-5.6939
-5.93136
-6.0134
-5.94368
-5.79945
-6.04127
-6.15471
-6.3899
-4.84793
-6.81537
-6.78816
-6.73442
-5.6374
-5.62398
-5.62562
-5.57065
-5.6297
-5.63227
-5.74859
-5.92474
-5.9377
-5.95924
-5.96703
-6.29111
-6.09764
-5.8868
-6.4265
-5.91335
-6.72844
-6.14674
-6.38564
-6.07326
-6.053
-5.93841
-5.82278
-5.72454
-5.74966
-5.74827
-5.71869
-5.81639
-5.81627
-6.27425
-5.85724
-6.57362
-6.11385
-6.74167
-10.7606
)
;

boundaryField
{
    leftWall
    {
        type            calculated;
        value           nonuniform List<scalar> 
50
(
650.698
591.654
532.373
473.024
413.386
353.852
293.79
234.075
141.262
42.7662
3.19886
0.277396
0.105624
-0.0345098
-0.175657
-0.316376
-0.457555
-0.603597
-0.749484
-0.900038
-1.04946
-1.19472
-1.35599
-1.4852
-1.68058
-1.77725
-2.00551
-2.17181
-2.36791
-2.52253
-2.73594
-2.84854
-2.9565
-3.20088
-3.24471
-3.58642
-3.6808
-3.90662
-4.04883
-4.22937
-4.3856
-4.5505
-4.71004
-4.86658
-5.02405
-5.17108
-5.34681
-5.4546
-5.72039
-5.62468
)
;
    }
    rightWall
    {
        type            calculated;
        value           nonuniform List<scalar> 
50
(
2654.41
2535.47
2265.55
2040.75
1778.26
1550.15
1379.91
1230.84
1097.2
969.25
873.242
834.227
685.544
645.605
554.842
452.78
321.545
260.036
167.103
220.833
193.916
102.793
51.0178
31.4962
27.9693
20.3977
5.23332
2.67772
6.10777
17.9466
14.5284
7.47516
3.9473
5.301
7.84855
30.1436
40.7392
31.5637
26.3622
11.3073
-4.97633
-1.30481
2.19398
-0.347856
-4.44171
-4.94578
-4.49209
-4.84793
-5.91335
-10.7606
)
;
    }
    lowerWall
    {
        type            calculated;
        value           nonuniform List<scalar> 
62
(
680.127
679.074
678.702
670.693
671.49
661.644
665.747
665.32
665.293
694.087
687.59
769.242
737.566
769.755
784.872
807.046
829.93
850.244
869.202
890.014
916.316
937.259
952.156
922.728
864.616
799.86
735.516
667.858
598.947
521.368
463.121
348.089
195.539
260.503
367.058
233.357
224.012
223.674
223.571
223.455
223.086
217.808
162.854
240.883
242.047
240.339
235.477
232.552
231.477
233.35
237.317
244.005
331.719
330.075
339.644
378.822
352.343
10.4713
153.936
1511.96
2510.31
2681.94
)
;
    }
    atmosphere
    {
        type            calculated;
        value           nonuniform List<scalar> 
46
(
-5.82206
-5.82328
-5.82315
-5.82285
-5.82262
-5.82171
-5.82172
-5.81968
-5.81863
-5.81653
-5.81386
-5.80972
-5.80315
-5.79077
-5.78249
-5.75898
-5.73249
-5.72906
-5.72904
-5.72904
-5.73244
-5.99469
-7.39979
-7.86291
-9.01343
-9.74954
-9.90844
-9.54545
-6.49019
-6.10305
-5.82599
-5.78748
-5.77583
-5.74769
-5.72908
-5.72918
-5.80204
-5.84354
-5.88421
-5.91196
-6.09275
-6.04104
-6.22349
-5.98612
-6.44222
-31.2647
)
;
    }
    defaultFaces
    {
        type            empty;
    }
}


// ************************************************************************* //
