/*--------------------------------*- C++ -*----------------------------------*\
| =========                 |                                                 |
| \\      /  F ield         | foam-extend: Open Source CFD                    |
|  \\    /   O peration     | Version:     4.1                                |
|   \\  /    A nd           | Web:         http://www.foam-extend.org         |
|    \\/     M anipulation  |                                                 |
\*---------------------------------------------------------------------------*/
FoamFile
{
    version     2.0;
    format      ascii;
    class       surfaceScalarField;
    location    "0.45";
    object      phi_0;
}
// * * * * * * * * * * * * * * * * * * * * * * * * * * * * * * * * * * * * * //

dimensions      [0 3 -1 0 0 0 0];

internalField   nonuniform List<scalar> 
4432
(
3.12489e-06
-3.12489e-06
5.2721e-06
-2.14721e-06
9.16364e-06
-3.89154e-06
1.20354e-05
-2.87179e-06
1.51235e-05
-3.0881e-06
1.744e-05
-2.31644e-06
1.98486e-05
-2.40868e-06
2.16399e-05
-1.79121e-06
2.23078e-05
-6.67892e-07
2.21965e-05
1.11224e-07
3.66381e-05
-1.44416e-05
3.76964e-05
-1.05831e-06
3.85054e-05
-8.09011e-07
3.82067e-05
2.98765e-07
3.73668e-05
8.39855e-07
3.62666e-05
1.10023e-06
3.49764e-05
1.29017e-06
3.32606e-05
1.71578e-06
3.09344e-05
2.32625e-06
2.62682e-05
4.66623e-06
1.97591e-05
6.50911e-06
1.1594e-05
8.16509e-06
1.1594e-05
3.12477e-06
-6.24966e-06
5.49295e-06
-4.51539e-06
9.32276e-06
-7.72135e-06
1.20097e-05
-5.55868e-06
1.52031e-05
-6.28156e-06
1.76685e-05
-4.78182e-06
2.02092e-05
-4.94944e-06
2.17777e-05
-3.35962e-06
2.28289e-05
-1.71918e-06
2.23456e-05
5.94569e-07
3.34036e-05
-2.54996e-05
3.48672e-05
-2.52195e-06
3.58887e-05
-1.83045e-06
3.58697e-05
3.17768e-07
3.56811e-05
1.02845e-06
3.50371e-05
1.74417e-06
3.3294e-05
3.03331e-06
3.17649e-05
3.24489e-06
3.02722e-05
3.81898e-06
2.58975e-05
9.04093e-06
1.98921e-05
1.25144e-05
1.05147e-05
1.75425e-05
2.21087e-05
2.96597e-06
-9.21563e-06
5.68473e-06
-7.23415e-06
9.28428e-06
-1.13209e-05
1.1645e-05
-7.91938e-06
1.51604e-05
-9.797e-06
1.78605e-05
-7.48185e-06
2.02027e-05
-7.29167e-06
2.26187e-05
-5.77566e-06
2.2406e-05
-1.5065e-06
3.81178e-05
-1.51171e-05
3.22024e-05
-1.95842e-05
3.3436e-05
-3.75554e-06
3.40292e-05
-2.42368e-06
3.35485e-05
7.98466e-07
3.30564e-05
1.5206e-06
3.21503e-05
2.65019e-06
3.12095e-05
3.97414e-06
3.0467e-05
3.98735e-06
2.91602e-05
5.1258e-06
2.55383e-05
1.26629e-05
2.06723e-05
1.73804e-05
1.28457e-05
2.53691e-05
3.49544e-05
2.77965e-06
-1.19953e-05
5.86674e-06
-1.03212e-05
9.27836e-06
-1.47325e-05
1.16961e-05
-1.03372e-05
1.54051e-05
-1.3506e-05
1.79798e-05
-1.00565e-05
2.07107e-05
-1.00226e-05
2.08714e-05
-5.93637e-06
3.40653e-05
-1.47003e-05
3.22643e-05
-1.33161e-05
2.80896e-05
-1.54096e-05
2.6758e-05
-2.42398e-06
2.5585e-05
-1.25062e-06
2.45725e-05
1.81087e-06
2.46299e-05
1.46325e-06
2.36477e-05
3.63236e-06
2.32012e-05
4.42066e-06
2.30843e-05
4.10428e-06
2.29968e-05
5.21328e-06
2.134e-05
1.43197e-05
1.88215e-05
1.98989e-05
1.15898e-05
3.26008e-05
4.65442e-05
2.54559e-06
-1.45409e-05
5.90544e-06
-1.36811e-05
9.41343e-06
-1.82405e-05
1.20445e-05
-1.29682e-05
1.51125e-05
-1.6574e-05
1.71131e-05
-1.20571e-05
2.02523e-05
-1.31618e-05
1.99586e-05
-5.64266e-06
3.06291e-05
-2.53709e-05
2.79835e-05
-1.06705e-05
2.47725e-05
-1.21986e-05
2.44258e-05
-2.07729e-06
2.38672e-05
-6.91981e-07
2.24483e-05
3.2297e-06
2.04755e-05
3.43606e-06
1.88199e-05
5.28797e-06
1.81641e-05
5.07652e-06
1.66919e-05
5.57641e-06
1.66459e-05
5.25929e-06
1.59323e-05
1.50333e-05
1.53829e-05
2.04483e-05
1.27406e-05
3.52431e-05
5.92848e-05
2.65659e-06
-1.71975e-05
6.24353e-06
-1.7268e-05
9.54476e-06
-2.15417e-05
1.18052e-05
-1.52287e-05
1.45383e-05
-1.93071e-05
1.74687e-05
-1.49875e-05
1.79254e-05
-1.36185e-05
2.94001e-05
-1.71173e-05
2.69294e-05
-2.29002e-05
2.6642e-05
-1.03831e-05
2.3938e-05
-9.49459e-06
2.28043e-05
-9.43544e-07
2.14009e-05
7.11399e-07
1.92841e-05
5.34645e-06
1.81537e-05
4.56645e-06
1.68408e-05
6.60096e-06
1.57524e-05
6.16492e-06
1.4837e-05
6.49182e-06
1.48606e-05
5.23568e-06
1.31521e-05
1.67418e-05
1.33521e-05
2.02483e-05
1.18441e-05
3.67511e-05
7.11289e-05
2.95769e-06
-2.01552e-05
6.31767e-06
-2.0628e-05
9.01856e-06
-2.42426e-05
1.14372e-05
-1.76473e-05
1.4395e-05
-2.22649e-05
1.58159e-05
-1.64084e-05
1.5825e-05
-1.36276e-05
2.67815e-05
-2.80738e-05
2.59114e-05
-2.203e-05
2.56717e-05
-1.01434e-05
2.35792e-05
-7.40203e-06
2.29999e-05
-3.64308e-07
2.17495e-05
1.96182e-06
1.97528e-05
7.34318e-06
1.78005e-05
6.51869e-06
1.63546e-05
8.04694e-06
1.58472e-05
6.67228e-06
1.40393e-05
8.29971e-06
1.43741e-05
4.90085e-06
1.31069e-05
1.80091e-05
1.4712e-05
1.86432e-05
7.89879e-06
4.35643e-05
7.90276e-05
3.2488e-06
-2.3404e-05
6.4146e-06
-2.37938e-05
9.00961e-06
-2.68376e-05
1.1216e-05
-1.98537e-05
1.42703e-05
-2.53192e-05
1.45004e-05
-1.66385e-05
2.58222e-05
-2.49494e-05
2.59173e-05
-2.81689e-05
2.59662e-05
-2.2079e-05
2.63806e-05
-1.05579e-05
2.52125e-05
-6.23387e-06
2.40355e-05
8.12667e-07
2.15218e-05
4.47547e-06
1.80226e-05
1.08424e-05
1.74449e-05
7.09639e-06
1.78931e-05
7.59871e-06
1.74104e-05
7.15505e-06
1.6875e-05
8.8351e-06
1.65122e-05
5.26362e-06
1.50432e-05
1.94781e-05
1.67119e-05
1.69745e-05
8.15953e-06
5.21166e-05
8.71872e-05
1.67518e-05
-1.67518e-05
2.79935e-05
-1.12416e-05
4.08976e-05
-1.29041e-05
5.53009e-05
-1.44033e-05
6.85874e-05
-1.32865e-05
8.37417e-05
-1.51543e-05
0.000102745
-1.90034e-05
0.000121055
-1.83102e-05
0.000118633
2.42264e-06
2.50714e-05
9.35612e-05
-0.000246389
0.00027146
-0.000348135
0.000101746
-0.000410443
6.23083e-05
-0.000379365
-3.10785e-05
-0.000188122
-0.000191243
-0.000149293
-3.88286e-05
-0.000173247
2.39539e-05
-6.92057e-05
-0.000104042
-6.92057e-05
-7.31295e-06
-9.4389e-06
4.06168e-05
-5.91714e-05
8.29317e-05
-5.52191e-05
0.000105217
-3.66886e-05
0.000140647
-4.87161e-05
8.29059e-05
4.25867e-05
8.54572e-05
-2.15547e-05
7.77193e-05
-1.05725e-05
6.00731e-05
2.00689e-05
-7.29803e-06
0.000160932
-0.000219726
0.000483888
-0.000331737
0.000213757
-0.000359652
9.02235e-05
-0.000162276
-0.000228454
-0.000164019
-0.0001895
-0.000155937
-4.69109e-05
-0.00010237
-2.96131e-05
-6.3268e-05
-0.000143144
-0.000132474
-1.22135e-05
2.77461e-06
6.17823e-05
-0.000133167
0.000115031
-0.000108467
0.000128958
-5.06158e-05
0.000107278
-2.70357e-05
0.000203834
-5.39698e-05
0.000217435
-3.51559e-05
0.000209116
-2.25352e-06
0.000121555
0.00010763
8.44936e-06
0.000274038
-3.03114e-05
0.000522649
-0.000172944
0.000356389
-0.00025831
0.000175589
-0.000151217
-0.000335547
-0.000213
-0.000127717
-0.000180549
-7.93617e-05
-0.000117767
-9.23947e-05
-5.36299e-05
-0.000207281
-0.000186104
-2.87803e-06
5.65267e-06
4.12263e-05
-0.000177272
3.89818e-05
-0.000106223
5.85149e-05
-7.01488e-05
9.27032e-05
-6.12239e-05
0.000149486
-0.000110753
0.00019795
-8.36196e-05
0.000223334
-2.76373e-05
0.000140944
0.000190019
4.92411e-05
0.000365741
6.04293e-05
0.00051146
1.69232e-05
0.000399895
-8.69601e-05
0.000279472
-0.00020451
-0.000217997
-0.000178776
-0.000153451
-0.000194325
-6.38134e-05
-0.000101871
-0.000184849
-3.85554e-05
-0.000270596
-0.000224659
3.50442e-05
-2.93915e-05
5.03692e-06
-0.000147264
2.00231e-05
-0.000121209
3.21066e-05
-8.22321e-05
7.9317e-05
-0.000108434
9.45665e-05
-0.000126002
9.03556e-05
-7.94089e-05
0.000114447
-5.17281e-05
9.43226e-05
0.000210141
0.000106607
0.000353455
9.56803e-05
0.000522387
8.14749e-05
0.000414101
-5.89829e-05
0.000419929
-0.000208287
-6.86921e-05
-0.000304799
-5.69393e-05
-0.000173224
-0.000195388
-6.94416e-05
-0.000288631
-2.43716e-05
-0.000315666
-0.000249031
1.23356e-05
-4.17271e-05
-4.2225e-06
-0.000130706
2.22846e-06
-0.00012766
5.24903e-06
-8.52525e-05
3.01593e-05
-0.000133344
6.43431e-05
-0.000160186
0.000116134
-0.0001312
0.000159925
-9.55191e-05
0.000165984
0.000204081
7.83858e-05
0.000441053
0.000112728
0.000488044
7.02323e-05
0.000456597
-4.56691e-05
0.000535831
-0.000129571
1.52097e-05
-0.000104602
-8.19084e-05
-7.30129e-05
-0.000226977
-2.85526e-05
-0.000333091
-1.07103e-05
-0.000333509
-0.000259741
1.16411e-05
-5.33682e-05
-4.20805e-06
-0.000114857
-3.98971e-06
-0.000127878
-1.02177e-05
-7.90243e-05
3.86551e-06
-0.000147427
1.19812e-05
-0.000168302
5.79781e-05
-0.000177197
6.12273e-05
-9.8768e-05
0.000140393
0.000124915
8.92828e-05
0.000492164
0.000116178
0.000461149
5.71474e-05
0.000515628
-1.24464e-05
0.000605424
-0.000102028
0.000104792
-4.97853e-05
-0.000134152
-6.19227e-06
-0.00027057
3.83538e-06
-0.000343119
3.86331e-07
-0.00033006
-0.000259355
9.24901e-06
-6.26173e-05
2.31457e-05
-0.000128754
-5.17578e-06
-9.95562e-05
-1.98215e-05
-6.43784e-05
-5.63031e-06
-0.000161618
-1.46227e-06
-0.00017247
4.1088e-06
-0.000182768
3.21958e-05
-0.000126855
5.95272e-05
9.75833e-05
0.000116727
0.000434965
0.000102059
0.000475817
2.76998e-05
0.000589986
1.07179e-05
0.000622406
-1.8446e-05
0.000133957
2.14294e-05
-0.000174027
1.79968e-05
-0.000267138
1.90574e-05
-0.000344179
3.34004e-06
-0.000314342
-0.000256015
6.72708e-06
-3.0131e-05
1.27429e-05
-2.98097e-05
1.77084e-05
-3.18031e-05
2.37615e-05
-2.59068e-05
2.72367e-05
-2.87944e-05
4.76662e-05
-3.7068e-05
5.31658e-05
-3.04489e-05
5.61644e-05
-3.11676e-05
5.7333e-05
-2.32476e-05
5.98217e-05
-1.30466e-05
5.89809e-05
-5.39299e-06
5.61783e-05
3.61525e-06
4.9628e-05
1.10257e-05
4.54568e-05
1.50136e-05
4.18214e-05
1.07318e-05
3.41668e-05
1.52533e-05
3.4629e-05
6.69286e-06
3.77058e-05
5.75833e-06
3.97752e-05
3.19416e-06
4.05977e-05
1.86556e-05
3.09292e-05
2.66431e-05
3.25635e-05
5.04823e-05
3.37456e-05
8.60051e-05
6.55395e-06
-3.6685e-05
1.3327e-05
-3.65827e-05
1.87662e-05
-3.72423e-05
3.56186e-05
-4.27591e-05
4.11773e-05
-3.43532e-05
4.82565e-05
-4.41472e-05
5.47201e-05
-3.69126e-05
6.2806e-05
-3.92534e-05
6.90309e-05
-2.94725e-05
7.1912e-05
-1.59277e-05
7.06473e-05
-4.12826e-06
6.30268e-05
1.12358e-05
5.78089e-05
1.62436e-05
5.15028e-05
2.13197e-05
4.11685e-05
2.10661e-05
4.18414e-05
1.45804e-05
3.93869e-05
9.14743e-06
3.85279e-05
6.61725e-06
2.74664e-05
1.42557e-05
3.4481e-05
1.16409e-05
3.87039e-05
2.24202e-05
7.7293e-05
1.18932e-05
1.42716e-05
9.6767e-05
8.27247e-06
-4.49575e-05
1.55469e-05
-4.38572e-05
2.8122e-05
-4.98174e-05
3.61688e-05
-5.08059e-05
4.29315e-05
-4.11159e-05
5.05579e-05
-5.17736e-05
6.14318e-05
-4.77865e-05
7.21446e-05
-4.99661e-05
7.53185e-05
-3.26465e-05
7.39797e-05
-1.45889e-05
6.60168e-05
3.83466e-06
5.31441e-05
2.41085e-05
4.3823e-05
2.55647e-05
3.84112e-05
2.67315e-05
3.56627e-05
2.38147e-05
3.92469e-05
1.09961e-05
4.39196e-05
4.47478e-06
4.69773e-05
3.55955e-06
5.22421e-05
8.99089e-06
5.64601e-05
7.42295e-06
6.45107e-05
1.43696e-05
7.1091e-05
5.31289e-06
3.24493e-06
8.21177e-05
3.88689e-06
-4.88443e-05
6.10222e-06
-4.60725e-05
1.02306e-05
-5.39458e-05
1.17517e-05
-5.2327e-05
1.96216e-05
-4.89859e-05
2.15882e-05
-5.37402e-05
1.77439e-05
-4.39422e-05
8.82617e-06
-4.10484e-05
5.06784e-06
-2.88881e-05
5.07996e-06
-1.46011e-05
5.08314e-06
3.83148e-06
3.11928e-06
2.60724e-05
-8.68372e-06
3.73677e-05
1.70202e-08
1.80308e-05
1.13291e-05
1.25026e-05
2.25166e-05
-1.91395e-07
3.55835e-05
-8.59209e-06
4.11397e-05
-1.99664e-06
4.56941e-05
4.43648e-06
5.43261e-05
-1.20908e-06
6.53005e-05
3.39526e-06
7.43804e-05
-3.76702e-06
-5.68714e-06
8.33124e-05
-8.57059e-06
-4.02738e-05
-1.42211e-05
-4.0422e-05
-1.16445e-05
-5.65224e-05
-2.7162e-06
-6.12553e-05
3.01967e-06
-5.47217e-05
-5.13981e-06
-4.55807e-05
-1.77851e-05
-3.1297e-05
-3.14661e-05
-2.73673e-05
-4.16698e-05
-1.86845e-05
-4.62421e-05
-1.00287e-05
-4.40569e-05
1.64628e-06
-3.85704e-05
2.05858e-05
-1.52833e-05
1.40806e-05
-1.58822e-05
1.86297e-05
-4.28368e-06
9.03985e-07
7.12706e-06
-1.16021e-05
1.55552e-05
-1.70203e-05
9.13069e-06
4.42791e-06
1.25008e-05
1.06639e-06
2.33727e-05
-1.2081e-05
4.37398e-05
-1.69719e-05
6.09542e-05
-2.09814e-05
-2.37359e-05
7.90029e-05
-8.61522e-06
-3.16585e-05
-1.34509e-05
-3.55863e-05
-7.04384e-06
-6.29294e-05
8.20866e-07
-6.912e-05
2.93309e-06
-5.6834e-05
-2.35019e-06
-4.02974e-05
-8.53183e-06
-2.51153e-05
-1.35601e-05
-2.2339e-05
-1.92011e-05
-1.30435e-05
-2.13056e-05
-7.92426e-06
-2.68836e-05
7.22422e-06
-8.56519e-06
2.26746e-06
7.26707e-06
-1.75163e-06
1.83835e-05
7.51322e-06
2.67793e-05
-7.4918e-06
2.02235e-05
-5.04639e-06
6.91568e-06
-3.71241e-06
7.65503e-07
1.05781e-05
-6.60726e-06
8.43916e-06
-2.33712e-05
4.68296e-06
-2.04143e-05
-1.99287e-05
2.70657e-05
-6.84614e-05
-4.88303e-05
5.21601e-05
-5.9437e-07
-3.10642e-05
-6.7993e-07
-3.55008e-05
3.61669e-06
-6.7226e-05
6.5178e-06
-7.20211e-05
5.24892e-06
-5.55651e-05
1.91728e-06
-3.69658e-05
-2.11854e-06
-2.10795e-05
-7.05766e-06
-1.73999e-05
-1.02112e-05
-9.88995e-06
-9.16193e-06
-8.97357e-06
-6.10588e-06
4.16817e-06
2.34359e-07
-4.07279e-06
1.02354e-05
-1.17527e-05
2.12137e-05
-3.46504e-06
3.04809e-05
-1.6759e-05
3.15178e-05
-6.0833e-06
2.89333e-05
-1.12795e-06
2.96488e-05
9.86262e-06
3.74071e-05
6.80889e-07
4.02979e-05
1.79214e-06
4.12116e-05
-2.08424e-05
1.91647e-05
-4.64146e-05
-3.42333e-05
4.56773e-06
5.5258e-07
-3.16167e-05
3.12233e-06
-3.80705e-05
9.15012e-06
-7.32538e-05
1.30001e-05
-7.58711e-05
1.00985e-05
-5.26635e-05
6.86237e-06
-3.37296e-05
2.5367e-06
-1.67538e-05
7.99092e-07
-1.56623e-05
-1.52036e-06
-7.5705e-06
-1.24829e-06
-9.24565e-06
4.19695e-06
-1.27707e-06
7.70966e-06
-7.58551e-06
5.16396e-06
-9.20698e-06
8.51952e-06
-6.8206e-06
1.26054e-05
-2.08449e-05
1.77879e-05
-1.12658e-05
2.46421e-05
-7.98218e-06
3.29178e-05
1.58691e-06
3.95619e-05
-5.96322e-06
4.97682e-05
-8.4141e-06
4.90314e-05
-2.01056e-05
3.18012e-05
-2.91844e-05
-2.27331e-05
2.0301e-05
9.06948e-07
-3.25237e-05
3.69471e-06
-4.08583e-05
1.17777e-05
-8.13368e-05
1.59164e-05
-8.00097e-05
1.20736e-05
-4.88208e-05
9.72219e-06
-3.13782e-05
7.79802e-06
-1.48297e-05
7.77997e-06
-1.56442e-05
4.13691e-06
-3.92745e-06
5.3464e-06
-1.04551e-05
1.02794e-05
-6.21008e-06
1.31263e-05
-1.04324e-05
1.44957e-05
-1.05764e-05
1.66813e-05
-9.00613e-06
1.93384e-05
-2.3502e-05
2.29571e-05
-1.48845e-05
3.06472e-05
-1.56723e-05
3.46812e-05
-2.44708e-06
3.3841e-05
-5.12304e-06
3.86454e-05
-1.32184e-05
3.47415e-05
-1.62017e-05
3.4939e-05
-2.93819e-05
-3.22018e-05
4.44076e-05
9.86453e-07
-3.35101e-05
4.1739e-06
-4.40457e-05
1.4421e-05
-9.15839e-05
1.82342e-05
-8.38229e-05
1.21877e-05
-4.27743e-05
9.96362e-06
-2.91541e-05
1.07573e-05
-1.56234e-05
1.01722e-05
-1.50592e-05
1.11893e-05
-4.94457e-06
8.96769e-06
-8.23349e-06
1.11415e-05
-8.38393e-06
1.01647e-05
-9.45559e-06
1.25107e-05
-1.29223e-05
2.06826e-05
-1.71781e-05
2.03427e-05
-2.31621e-05
1.61891e-05
-1.07309e-05
2.10428e-05
-2.0526e-05
2.18952e-05
-3.29947e-06
3.99452e-05
-2.3173e-05
4.51503e-05
-1.84235e-05
3.87986e-05
-9.85e-06
1.94326e-05
-1.00159e-05
-2.28016e-05
1.00324e-05
1.22478e-06
-3.47349e-05
4.21479e-06
-4.70357e-05
1.45503e-05
-0.000101919
1.73015e-05
-8.65742e-05
9.34698e-06
-3.48198e-05
7.79731e-06
-2.76044e-05
1.07856e-05
-1.86117e-05
1.38976e-05
-1.81712e-05
1.60255e-05
-7.0725e-06
2.2516e-05
-1.47239e-05
2.09209e-05
-6.78885e-06
2.30948e-05
-1.16295e-05
2.36117e-05
-1.34393e-05
2.66445e-05
-2.02108e-05
1.77143e-05
-1.42319e-05
2.28258e-05
-1.58424e-05
2.21469e-05
-1.98472e-05
3.41734e-05
-1.53259e-05
3.75982e-05
-2.65978e-05
3.35477e-05
-1.4373e-05
2.63159e-05
-2.61817e-06
3.03262e-05
-1.40262e-05
-2.96963e-05
3.72209e-05
1.7703e-06
-3.65052e-05
2.54425e-06
-4.78097e-05
1.37005e-05
-0.000113076
1.42565e-05
-8.71302e-05
3.80828e-06
-2.43715e-05
3.56363e-06
-2.73598e-05
5.67028e-06
-2.07183e-05
1.33996e-05
-2.59005e-05
1.03912e-05
-4.06414e-06
2.62489e-05
-3.05816e-05
1.73101e-05
2.14992e-06
3.00582e-05
-2.43776e-05
2.46336e-05
-8.01472e-06
3.95839e-05
-3.51612e-05
3.49946e-05
-9.64261e-06
3.83076e-05
-1.91553e-05
4.08862e-05
-2.24258e-05
4.32088e-05
-1.76485e-05
4.99578e-05
-3.33468e-05
3.64034e-05
-8.18565e-07
3.28004e-05
9.84797e-07
2.43343e-05
-5.56014e-06
-2.20901e-05
1.67282e-05
2.02635e-06
-3.85316e-05
3.50123e-06
-4.92846e-05
1.2281e-05
-0.000121856
8.44454e-06
-8.32937e-05
-1.39501e-07
-1.57875e-05
1.92626e-06
-2.94255e-05
1.04465e-05
-2.92385e-05
1.73011e-05
-3.27551e-05
2.7933e-05
-1.4696e-05
1.93573e-05
-2.20059e-05
3.20595e-05
-1.05523e-05
3.9037e-05
-3.13551e-05
4.35609e-05
-1.25386e-05
4.17969e-05
-3.33972e-05
3.595e-05
-3.79563e-06
3.40437e-05
-1.7249e-05
3.52752e-05
-2.36573e-05
5.58807e-05
-3.8254e-05
4.0305e-05
-1.77711e-05
6.44873e-05
-2.50009e-05
5.24383e-05
1.30339e-05
5.18049e-05
-4.92679e-06
6.70342e-06
2.30114e-05
2.69291e-06
-4.12245e-05
6.26364e-06
-5.28553e-05
9.24254e-06
-0.000124834
1.93466e-06
-7.59858e-05
-1.12054e-06
-1.27323e-05
2.9325e-06
-3.34786e-05
1.06789e-05
-3.69849e-05
1.23746e-05
-3.44508e-05
2.1188e-05
-2.35095e-05
2.3827e-05
-2.46448e-05
3.23825e-05
-1.91078e-05
4.87366e-05
-4.77092e-05
5.00006e-05
-1.38026e-05
3.37061e-05
-1.71027e-05
3.60641e-05
-6.15357e-06
6.30505e-05
-4.42355e-05
6.56366e-05
-2.62434e-05
6.82233e-05
-4.08406e-05
5.09253e-05
-4.73142e-07
5.42908e-05
-2.83663e-05
7.00839e-05
-2.75929e-06
6.28442e-05
2.313e-06
1.20013e-05
5.75463e-05
4.61994e-07
-4.16865e-05
4.86778e-06
-5.72611e-05
7.8142e-06
-0.000127781
1.98859e-06
-7.01602e-05
-1.16354e-06
-9.58015e-06
4.53366e-06
-3.91758e-05
7.82175e-06
-4.0273e-05
1.09727e-05
-3.76017e-05
4.11849e-05
-5.37217e-05
3.69766e-05
-2.04364e-05
5.6483e-05
-3.86142e-05
3.63047e-05
-2.7531e-05
3.92601e-05
-1.67579e-05
3.19737e-05
-9.81638e-06
6.70497e-05
-4.12295e-05
4.44483e-05
-2.1634e-05
7.66287e-05
-5.84238e-05
4.54427e-05
-9.65458e-06
7.49883e-05
-3.00188e-05
5.08196e-05
-4.19756e-06
5.52422e-05
-7.18195e-06
5.2486e-05
5.0692e-06
2.7333e-05
3.71543e-05
-1.76347e-06
-3.9923e-05
3.33496e-06
-6.23595e-05
4.26607e-06
-0.000128712
1.00009e-06
-6.68942e-05
-4.92529e-07
-8.08752e-06
7.3743e-06
-4.70426e-05
8.89648e-06
-4.17952e-05
2.05851e-05
-4.92903e-05
1.65746e-05
-4.97113e-05
4.13441e-05
-4.52059e-05
3.11042e-05
-2.83743e-05
2.94082e-05
-2.58351e-05
2.89864e-05
-1.63361e-05
5.08807e-05
-3.17107e-05
5.74478e-05
-4.77966e-05
4.51919e-05
-9.37816e-06
4.21732e-05
-5.54051e-05
4.05678e-05
-8.0492e-06
5.48777e-05
-4.43287e-05
6.46643e-05
-1.39841e-05
6.38901e-05
-6.40773e-06
6.20949e-05
6.86436e-06
3.27589e-05
5.66691e-05
-4.36827e-06
-3.55547e-05
5.25853e-07
-6.72536e-05
2.33225e-06
-0.000130518
-3.98254e-06
-6.05794e-05
2.00811e-06
-1.40782e-05
5.50752e-06
-5.0542e-05
8.91059e-06
-4.51983e-05
1.60543e-05
-5.6434e-05
2.43473e-05
-5.80043e-05
4.42364e-05
-6.5095e-05
3.97654e-05
-2.39034e-05
3.87881e-05
-2.48578e-05
3.82752e-05
-1.58232e-05
5.37109e-05
-4.71464e-05
3.91719e-05
-3.32576e-05
6.78573e-05
-3.80635e-05
4.53567e-05
-3.29044e-05
5.1379e-05
-1.40716e-05
5.39253e-05
-4.6875e-05
6.80485e-05
-2.81073e-05
7.77958e-05
-1.6155e-05
7.31087e-05
1.15514e-05
1.69347e-05
8.89329e-05
-6.10795e-06
-2.94468e-05
4.89045e-06
-7.8252e-05
-1.25201e-06
-0.000124376
-2.83299e-06
-5.89984e-05
4.49708e-08
-1.69561e-05
1.17289e-05
-6.2226e-05
1.64334e-05
-4.99027e-05
1.64317e-05
-5.64323e-05
2.161e-05
-6.31826e-05
3.18174e-05
-7.53024e-05
3.64294e-05
-2.85154e-05
4.19132e-05
-3.03416e-05
4.93274e-05
-2.32374e-05
6.08668e-05
-5.86858e-05
6.60473e-05
-3.84381e-05
7.00713e-05
-4.20875e-05
4.80506e-05
-1.08838e-05
7.81903e-05
-4.42112e-05
6.6282e-05
-3.49666e-05
8.01747e-05
-4.2e-05
8.50892e-05
-2.10695e-05
8.71252e-05
9.51541e-06
-9.56695e-06
0.000113627
1.08283e-06
-3.05296e-05
-1.08131e-05
-6.63561e-05
-2.16091e-06
-0.000133028
-1.13825e-05
-4.97768e-05
8.73581e-06
-3.70745e-05
1.43554e-06
-5.49257e-05
-5.56612e-06
-4.29011e-05
1.6948e-05
-7.89464e-05
1.9113e-05
-6.53476e-05
2.10595e-05
-7.72488e-05
3.2271e-05
-3.97268e-05
3.3775e-05
-3.18456e-05
4.54875e-05
-3.49499e-05
4.03479e-05
-5.35461e-05
7.49461e-05
-7.30363e-05
4.86828e-05
-1.58241e-05
9.02424e-05
-5.24434e-05
9.24767e-05
-4.64454e-05
0.000107317
-4.98065e-05
9.22949e-05
-2.69783e-05
0.000105035
-3.38098e-05
0.000161115
-4.65642e-05
-7.52015e-06
0.000159068
1.11558e-05
-4.16854e-05
2.2432e-05
-7.76323e-05
-2.04546e-05
-9.01414e-05
-1.07657e-05
-5.94657e-05
3.77061e-06
-5.16108e-05
1.1029e-05
-6.21841e-05
2.82069e-05
-6.00789e-05
9.11181e-06
-5.98513e-05
2.37514e-05
-7.99873e-05
2.66765e-05
-8.01739e-05
2.80698e-05
-4.11201e-05
2.75401e-05
-3.13158e-05
7.48779e-05
-8.22877e-05
4.98409e-05
-2.85092e-05
3.29473e-05
-5.61426e-05
5.25641e-05
-3.54409e-05
7.7287e-05
-7.71664e-05
9.11085e-05
-6.02669e-05
7.92374e-05
-3.79355e-05
9.8639e-05
-4.63798e-05
0.000107767
-4.29374e-05
0.000121146
-5.99436e-05
-5.72822e-05
0.000170908
2.30779e-06
-4.39932e-05
2.34613e-06
-7.76706e-05
-1.37828e-06
-8.6417e-05
-1.26846e-06
-5.95755e-05
6.18121e-06
-5.90604e-05
7.54382e-06
-6.35468e-05
1.59013e-05
-6.84364e-05
1.40142e-05
-5.79642e-05
2.09887e-05
-8.69618e-05
3.92391e-05
-9.84243e-05
4.07449e-05
-4.26259e-05
5.65607e-05
-4.71316e-05
2.38994e-05
-4.96265e-05
3.99599e-05
-4.45696e-05
3.68434e-05
-5.30261e-05
4.78287e-05
-4.64262e-05
5.94105e-05
-8.87481e-05
6.5192e-05
-6.60484e-05
8.08672e-05
-5.36107e-05
9.49761e-05
-6.04886e-05
0.000107031
-5.49919e-05
0.000125646
-7.85593e-05
-7.89944e-05
0.000147358
3.24109e-06
-4.72343e-05
4.47708e-06
-7.89066e-05
-1.39004e-06
-8.05499e-05
4.57656e-06
-6.55421e-05
4.05272e-06
-5.85366e-05
1.01054e-05
-6.95995e-05
8.46129e-06
-6.67923e-05
4.16748e-05
-9.11777e-05
4.55689e-05
-9.08559e-05
1.11957e-05
-6.40511e-05
2.01586e-05
-5.15888e-05
2.94875e-05
-5.64606e-05
3.55793e-05
-5.57182e-05
5.73619e-05
-6.63522e-05
6.34058e-05
-5.907e-05
7.64662e-05
-5.94866e-05
6.25396e-05
-7.48215e-05
7.0974e-05
-7.44827e-05
0.000126689
-0.000109325
9.08214e-05
-2.46213e-05
0.000115317
-7.94874e-05
0.00013146
-9.47028e-05
-0.00015419
0.000206656
-4.4292e-06
-4.28051e-05
-2.25155e-06
-8.10842e-05
-4.51434e-06
-7.82871e-05
-7.34505e-06
-6.27114e-05
1.51834e-05
-8.10651e-05
9.47477e-06
-6.38908e-05
3.79036e-05
-9.52211e-05
2.29459e-05
-7.622e-05
3.0061e-05
-9.7971e-05
2.04418e-05
-5.44319e-05
3.02582e-05
-6.14051e-05
2.65632e-05
-5.27655e-05
2.86951e-05
-5.78502e-05
4.21734e-05
-7.98305e-05
4.34129e-05
-6.03094e-05
5.91858e-05
-7.52595e-05
6.84621e-05
-8.40978e-05
0.000119805
-0.000125825
8.86208e-05
-7.81416e-05
0.000160063
-9.60637e-05
0.00019744
-0.000116864
0.000213656
-0.000110919
-0.000171563
0.00023103
9.64135e-06
-5.24464e-05
7.7162e-07
-7.22145e-05
-4.47732e-06
-7.30382e-05
1.47582e-05
-8.1947e-05
9.1323e-06
-7.54391e-05
3.42245e-05
-8.8983e-05
1.9722e-05
-8.07186e-05
2.37116e-05
-8.02096e-05
2.46022e-05
-9.88616e-05
1.61425e-05
-4.59722e-05
1.82539e-05
-6.35166e-05
1.98796e-05
-5.43912e-05
2.99838e-05
-6.79544e-05
2.54849e-05
-7.53316e-05
8.28413e-05
-0.000117666
6.94407e-05
-6.18589e-05
0.000106767
-0.000121424
0.000108712
-0.00012777
9.59434e-05
-6.53727e-05
0.000112465
-0.000112585
0.000136732
-0.000141131
0.000146145
-0.000120332
-0.000228844
0.000203426
-2.44062e-05
-2.80402e-05
2.86236e-06
-9.94831e-05
3.00056e-05
-0.000100181
2.3177e-05
-7.51184e-05
2.2096e-05
-7.43582e-05
1.84134e-05
-8.53004e-05
4.26869e-05
-0.000104992
2.13982e-05
-5.89209e-05
-7.02144e-06
-7.0442e-05
5.79306e-06
-5.87867e-05
1.28065e-05
-7.05301e-05
2.4975e-05
-6.65597e-05
3.76874e-05
-8.06667e-05
3.7123e-05
-7.47672e-05
7.07328e-05
-0.000151276
6.44008e-05
-5.55269e-05
9.43694e-05
-0.000151393
0.000107421
-0.000140822
9.66566e-05
-5.46079e-05
0.000128488
-0.000144417
0.000154306
-0.000166949
0.000234082
-0.000200108
-0.000139919
0.000145156
-1.63919e-06
-2.6401e-05
1.88375e-06
-0.000103006
2.31037e-07
-9.85287e-05
3.45208e-06
-7.83394e-05
1.2492e-05
-8.33981e-05
2.57729e-05
-9.85813e-05
-6.36599e-06
-7.28532e-05
-7.52291e-07
-6.45346e-05
3.00019e-06
-7.41944e-05
1.04052e-05
-6.61916e-05
9.84492e-06
-6.99698e-05
1.39632e-05
-7.0678e-05
1.04699e-05
-7.71734e-05
6.21756e-05
-0.000126473
5.01407e-05
-0.000139241
0.000117011
-0.000122397
6.12128e-05
-9.5595e-05
8.47794e-05
-0.000164389
0.000116422
-8.62504e-05
0.000194535
-0.00022253
0.000139408
-0.000111822
0.000186496
-0.000247197
-0.00013841
0.000184987
2.69949e-06
-2.91005e-05
1.95772e-05
-0.000119884
3.13646e-05
-0.000110316
1.79867e-05
-6.49615e-05
7.42434e-06
-7.28357e-05
-1.36576e-05
-7.74993e-05
-6.39241e-06
-8.01185e-05
2.28694e-06
-7.3214e-05
3.44031e-06
-7.53478e-05
1.06897e-05
-7.3441e-05
1.39766e-05
-7.32568e-05
2.10781e-05
-7.77795e-05
1.92569e-05
-7.53522e-05
3.42108e-05
-0.000141427
3.61015e-05
-0.000141132
7.4373e-05
-0.000160668
6.85567e-05
-8.97787e-05
0.000108815
-0.000204647
0.000139638
-0.000117074
0.000138148
-0.00022104
0.000134415
-0.000108089
0.000167945
-0.000280727
-0.000131379
0.000160915
3.45141e-05
-6.36146e-05
1.30116e-06
-8.66708e-05
-2.57105e-05
-8.33044e-05
-8.68272e-06
-8.19893e-05
-1.75759e-06
-7.97608e-05
1.60255e-06
-8.08594e-05
3.99456e-07
-7.89154e-05
4.00994e-06
-7.68244e-05
4.63322e-06
-7.59711e-05
1.03901e-05
-7.91979e-05
1.28331e-05
-7.56997e-05
1.47082e-05
-7.96546e-05
1.90288e-05
-7.96729e-05
2.87395e-05
-0.000151137
3.54007e-05
-0.000147793
6.31663e-05
-0.000188434
5.42973e-05
-8.09098e-05
8.52669e-05
-0.000235617
8.97583e-05
-0.000121565
0.000119205
-0.000250487
0.000180167
-0.000169051
9.27944e-05
-0.000193354
-0.000164367
0.000125782
7.33664e-06
-7.09513e-05
3.84222e-06
-8.31764e-05
4.44878e-06
-8.39109e-05
3.50063e-06
-8.10412e-05
2.88982e-06
-7.915e-05
1.78494e-06
-7.97546e-05
2.32359e-06
-7.9454e-05
5.19511e-06
-7.9696e-05
7.64011e-06
-7.84161e-05
1.12292e-05
-8.2787e-05
1.26497e-05
-7.71202e-05
1.43429e-05
-8.13478e-05
1.79731e-05
-8.3303e-05
1.90952e-05
-0.000152259
3.50093e-05
-0.000163707
4.09335e-05
-0.000194358
0.000113735
-0.000153711
3.50065e-05
-0.000156888
0.000101538
-0.000188096
0.000111853
-0.000260802
0.000112949
-0.000170146
8.56304e-05
-0.000166036
-0.000149925
7.11882e-05
3.25858e-06
-7.42099e-05
1.09547e-06
-8.10132e-05
-1.37849e-06
-8.14369e-05
-1.07658e-06
-8.13431e-05
1.71174e-07
-8.03977e-05
1.67234e-06
-8.12557e-05
2.61583e-06
-8.03975e-05
4.31661e-06
-8.13967e-05
6.71461e-06
-8.08141e-05
7.25895e-06
-8.33314e-05
1.16593e-05
-8.15206e-05
1.60864e-05
-8.57749e-05
1.38624e-05
-8.1079e-05
2.19289e-05
-0.000160326
2.32879e-05
-0.000165066
1.81595e-05
-0.00018923
4.80212e-05
-0.000183573
4.41889e-05
-0.000153056
0.000103665
-0.000247573
1.88794e-05
-0.000176016
6.982e-05
-0.000221087
4.13607e-05
-0.000137577
-0.000130927
2.23632e-05
1.64e-06
-7.58499e-05
1.60152e-06
-8.09748e-05
1.92271e-06
-8.17581e-05
2.07693e-06
-8.14973e-05
2.42189e-06
-8.07427e-05
2.71551e-06
-8.15493e-05
3.80103e-06
-8.1483e-05
5.00173e-06
-8.25974e-05
7.53837e-06
-8.33507e-05
8.80658e-06
-8.45996e-05
1.68524e-05
-8.95664e-05
2.2665e-05
-9.15874e-05
3.75636e-05
-9.59777e-05
-6.78344e-06
-0.000115979
7.96144e-07
-0.000172645
5.56242e-06
-0.000193996
1.83515e-05
-0.000196362
9.29909e-05
-0.000227696
3.52499e-05
-0.000189832
3.21466e-05
-0.000172913
-2.10485e-05
-0.000167892
2.78225e-05
-0.000186448
-0.000114577
1.14723e-05
6.93386e-07
-7.65432e-05
5.81914e-07
-8.08633e-05
1.75053e-07
-8.13513e-05
2.76393e-07
-8.15986e-05
7.42157e-07
-8.12084e-05
1.06676e-06
-8.18739e-05
1.61428e-06
-8.20305e-05
2.3401e-06
-8.33232e-05
3.04677e-06
-8.40574e-05
4.24761e-06
-8.58004e-05
3.547e-06
-8.88658e-05
4.90558e-06
-9.2946e-05
6.96253e-06
-9.80346e-05
-1.43748e-07
-0.000108873
1.04199e-06
-0.000173831
7.89764e-07
-0.000193744
-7.51153e-06
-0.00018806
1.21997e-06
-0.000236427
-2.1931e-06
-0.000186418
-1.62576e-06
-0.00017348
4.4015e-06
-0.000173919
-6.91449e-06
-0.000175132
-9.4497e-05
-2.69946e-05
5.18061e-07
-7.70613e-05
6.65191e-07
-8.10104e-05
4.99931e-07
-8.1186e-05
4.23072e-07
-8.15218e-05
2.77464e-07
-8.10628e-05
1.58974e-07
-8.17554e-05
-1.97332e-09
-8.18696e-05
8.7154e-08
-8.34124e-05
3.47324e-07
-8.43175e-05
8.15914e-07
-8.6269e-05
1.59796e-07
-8.82097e-05
3.8842e-07
-9.31746e-05
-1.8048e-06
-9.58414e-05
-1.13381e-05
-9.93392e-05
-1.29591e-05
-0.00017221
-2.559e-05
-0.000181113
-2.52254e-05
-0.000188425
-3.2774e-05
-0.000228878
-6.59423e-05
-0.00015325
-1.50114e-05
-0.000224411
-1.14545e-06
-0.000187785
-6.93192e-05
-0.000106958
-9.82966e-05
-6.55195e-05
3.15825e-07
-7.73771e-05
7.74332e-08
-8.0772e-05
-2.71315e-07
-8.08372e-05
-5.61598e-07
-8.12315e-05
-8.27208e-07
-8.07972e-05
-1.08819e-06
-8.14944e-05
-1.2736e-06
-8.16842e-05
-1.69176e-06
-8.29942e-05
-2.60682e-06
-8.34025e-05
-3.69217e-06
-8.51836e-05
-5.15573e-06
-8.67461e-05
-7.59483e-06
-9.07355e-05
-1.13736e-05
-9.20626e-05
-1.69215e-05
-9.37913e-05
-2.51917e-05
-0.00016394
-4.05615e-05
-0.000165743
-4.20559e-05
-0.00018693
-8.12197e-05
-0.000189715
-2.50204e-05
-0.00020945
-0.000113065
-0.000136367
-9.24819e-05
-0.000208368
-9.83186e-05
-0.000101121
-5.29366e-05
-0.000143679
3.54779e-07
-7.77319e-05
-4.40396e-08
-8.03732e-05
-5.10189e-07
-8.03711e-05
-9.57387e-07
-8.07843e-05
-1.25927e-06
-8.04953e-05
-1.6313e-06
-8.11224e-05
-2.22573e-06
-8.10897e-05
-3.21617e-06
-8.20038e-05
-4.77281e-06
-8.18458e-05
-6.48253e-06
-8.34739e-05
-9.42831e-06
-8.38003e-05
-1.3654e-05
-8.65098e-05
-1.93632e-05
-8.63534e-05
-2.61071e-05
-8.70474e-05
-4.01828e-05
-0.000149864
-5.85335e-05
-0.000147392
-8.9009e-05
-0.000156455
-0.000117403
-0.000161321
-0.000157028
-0.000169825
-0.000199009
-9.4386e-05
-0.000234129
-0.000173247
-0.000257084
-7.81659e-05
-0.000123617
-0.000186403
-9.28206e-08
-7.76391e-05
-6.1775e-07
-7.98483e-05
-1.14089e-06
-7.98479e-05
-1.83135e-06
-8.00938e-05
-2.399e-06
-7.99277e-05
-3.17985e-06
-8.03416e-05
-4.16444e-06
-8.01051e-05
-5.40111e-06
-8.07671e-05
-6.90889e-06
-8.0338e-05
-9.06584e-06
-8.13169e-05
-1.23868e-05
-8.04794e-05
-1.64686e-05
-8.2428e-05
-2.15968e-05
-8.12252e-05
-2.5999e-05
-8.26452e-05
-3.7809e-05
-0.000138054
-5.39427e-05
-0.000131258
-7.87726e-05
-0.000131625
-9.99026e-05
-0.000140191
-0.000133432
-0.000136295
-0.000136321
-9.14969e-05
-0.000249788
-5.97808e-05
-0.000274961
-5.29923e-05
-3.37615e-05
-0.000364817
-1.88985e-07
-7.74501e-05
-5.52078e-07
-7.94852e-05
-9.86486e-07
-7.94135e-05
-1.60211e-06
-7.94782e-05
-2.28286e-06
-7.92469e-05
-3.16002e-06
-7.94644e-05
-4.22741e-06
-7.90377e-05
-5.54216e-06
-7.94523e-05
-7.35378e-06
-7.85264e-05
-1.02499e-05
-7.84208e-05
-1.33323e-05
-7.7397e-05
-1.76749e-05
-7.80854e-05
-2.32425e-05
-7.56576e-05
-2.95544e-05
-7.63332e-05
-4.15222e-05
-0.000126087
-5.77497e-05
-0.000115031
-7.76668e-05
-0.000111708
-0.0001107
-0.000107158