/*--------------------------------*- C++ -*----------------------------------*\
| =========                 |                                                 |
| \\      /  F ield         | foam-extend: Open Source CFD                    |
|  \\    /   O peration     | Version:     4.1                                |
|   \\  /    A nd           | Web:         http://www.foam-extend.org         |
|    \\/     M anipulation  |                                                 |
\*---------------------------------------------------------------------------*/
FoamFile
{
    version     2.0;
    format      ascii;
    class       surfaceScalarField;
    location    "0.95";
    object      phi;
}
// * * * * * * * * * * * * * * * * * * * * * * * * * * * * * * * * * * * * * //

dimensions      [0 3 -1 0 0 0 0];

internalField   nonuniform List<scalar> 
4432
(
-2.57718e-06
2.57718e-06
-4.36606e-06
1.78888e-06
-5.76291e-06
1.39685e-06
-4.51017e-06
-1.25274e-06
-6.91179e-06
2.40162e-06
-9.78369e-06
2.8719e-06
-1.03396e-05
5.55858e-07
-9.54546e-06
-7.94089e-07
-5.87856e-06
-3.6669e-06
-5.2468e-06
-6.3176e-07
-1.28148e-06
-3.96532e-06
5.13552e-06
-6.417e-06
1.03764e-05
-5.24088e-06
1.26996e-05
-2.32317e-06
1.4426e-05
-1.72648e-06
1.66356e-05
-2.20954e-06
1.36246e-05
3.01096e-06
1.02071e-05
3.41757e-06
6.95221e-06
3.25485e-06
4.25669e-06
2.69553e-06
1.52233e-06
2.73436e-06
2.12516e-06
-6.02831e-07
2.12515e-06
-9.28298e-07
3.50548e-06
-1.32024e-06
2.18082e-06
-2.83078e-06
2.90738e-06
-4.7503e-06
6.66786e-07
-6.58139e-06
4.23271e-06
-9.23424e-06
5.52475e-06
-9.62726e-06
9.48881e-07
-8.0408e-06
-2.38055e-06
-1.0835e-05
-8.72726e-07
-7.21372e-06
-4.253e-06
-1.23276e-06
-9.94628e-06
2.74521e-06
-1.0395e-05
6.40849e-06
-8.90416e-06
8.69485e-06
-4.60953e-06
1.21967e-05
-5.22835e-06
7.51755e-06
2.46963e-06
9.53078e-06
9.97731e-07
6.5771e-06
6.37125e-06
4.81044e-06
5.02151e-06
3.21154e-06
4.29443e-06
5.28178e-07
5.41772e-06
9.06933e-07
-9.8159e-07
3.03208e-06
-2.02806e-06
5.53354e-06
-4.74505e-06
4.89781e-06
-7.98244e-06
6.14476e-06
-1.16356e-05
4.31991e-06
-1.50327e-05
7.62982e-06
-1.03713e-05
8.63381e-07
-1.087e-05
1.44755e-06
-9.95064e-06
-3.29988e-06
-1.73165e-05
6.4931e-06
-6.70099e-06
-1.48685e-05
-7.50777e-06
-9.13949e-06
-8.10981e-07
-1.70918e-05
2.16714e-06
-1.18823e-05
6.69951e-06
-9.1419e-06
1.02383e-05
-8.76709e-06
5.44679e-06
7.26109e-06
4.71086e-06
1.73367e-06
2.85707e-06
8.22504e-06
1.69222e-06
6.18636e-06
3.89362e-07
5.59729e-06
-1.07378e-06
6.88085e-06
9.14517e-07
-2.96989e-06
3.9466e-06
-2.3375e-06
7.87105e-06
-4.93132e-06
7.49162e-06
-4.24996e-06
5.4634e-06
-5.25629e-06
5.32624e-06
-7.39107e-06
9.7646e-06
-1.04803e-05
3.95258e-06
-1.09544e-05
1.92172e-06
-2.13785e-05
7.12417e-06
-1.16469e-05
-3.23846e-06
-1.8515e-05
-8.00039e-06
-1.32847e-05
-1.43698e-05
-6.33561e-06
-2.40409e-05
1.24501e-06
-1.94629e-05
7.42914e-06
-1.5326e-05
1.06916e-05
-1.20296e-05
9.6124e-06
8.34033e-06
2.83827e-07
1.10622e-05
-3.82661e-06
1.23355e-05
-1.9836e-06
4.34335e-06
-2.64336e-06
6.25706e-06
-2.40351e-06
6.641e-06
1.5465e-06
-6.9199e-06
5.4931e-06
-2.55827e-06
1.04293e-05
-3.66237e-06
8.59572e-06
-6.53497e-06
8.33599e-06
-1.10606e-05
9.85182e-06
-9.00157e-06
7.70561e-06
-1.2997e-05
7.94798e-06
-1.32144e-05
2.13918e-06
-1.36142e-05
7.52394e-06
-1.32447e-05
-3.60796e-06
-2.10381e-05
-2.07013e-07
-1.81226e-05
-1.72852e-05
-1.19137e-05
-3.02498e-05
8.50978e-08
-3.14617e-05
9.32011e-06
-2.4561e-05
1.21494e-05
-1.48589e-05
1.01468e-05
1.0343e-05
-2.9536e-07
2.15044e-05
-8.58271e-06
2.06228e-05
-9.30802e-06
5.06865e-06
-7.198e-06
4.14703e-06
-6.80516e-06
6.24816e-06
-1.8077e-07
-1.35443e-05
5.31233e-06
-1.83611e-06
1.22654e-05
-6.03251e-06
1.27921e-05
-8.88142e-06
1.11849e-05
-1.236e-05
1.33304e-05
-9.34554e-06
4.69118e-06
-1.26853e-05
1.12877e-05
-1.34978e-05
2.95169e-06
-1.467e-05
8.69616e-06
-2.87365e-05
1.04585e-05
-2.59248e-05
-3.01873e-06
-2.27788e-05
-2.04312e-05
-1.46984e-05
-3.83302e-05
-4.47507e-06
-4.1685e-05
2.98662e-06
-3.20227e-05
9.33915e-06
-2.12115e-05
8.35183e-06
1.13303e-05
-5.97228e-06
3.58285e-05
-1.4508e-05
2.91586e-05
-1.46454e-05
5.20605e-06
-1.33711e-05
2.87265e-06
-5.78008e-06
-1.34282e-06
-1.99552e-07
-1.91248e-05
5.11278e-06
-2.80608e-06
1.50715e-05
-4.80503e-06
1.47911e-05
-4.70489e-06
1.10848e-05
-6.35509e-06
1.49806e-05
-9.23558e-06
7.57168e-06
-1.48001e-05
1.68522e-05
-2.89997e-05
1.71513e-05
-3.03084e-05
1.00049e-05
-3.11684e-05
1.13185e-05
-3.15598e-05
-2.62739e-06
-3.54235e-05
-1.65675e-05
-2.85273e-05
-4.52263e-05
-1.52108e-05
-5.50015e-05
-7.69997e-06
-3.95336e-05
3.96846e-08
-2.89511e-05
1.90612e-06
9.46388e-06
-9.86055e-06
4.75952e-05
-1.93756e-05
3.86737e-05
-2.05565e-05
6.38689e-06
-1.7973e-05
2.8916e-07
-1.13678e-05
-7.94803e-06
1.2732e-06
-3.17658e-05
6.38598e-06
-1.44557e-06
1.65171e-05
-6.77036e-06
2.01159e-05
-1.25496e-05
1.6864e-05
-1.89375e-05
2.13685e-05
-2.47038e-05
1.3338e-05
-1.59623e-05
8.11068e-06
-1.59091e-05
1.70982e-05
-3.23902e-05
2.6486e-05
-3.73909e-05
1.63192e-05
-4.16232e-05
1.6049e-06
-4.85059e-05
-9.68481e-06
-4.78717e-05
-4.58605e-05
-3.91523e-05
-6.37209e-05
-1.76458e-05
-6.10401e-05
-1.67933e-05
-2.98036e-05
-8.49615e-06
1.16676e-06
-1.32874e-05
5.23864e-05
-1.21495e-05
3.75358e-05
-2.20493e-05
1.62866e-05
-1.91623e-05
-2.59785e-06
-1.4177e-05
-1.29333e-05
1.42647e-06
-4.73693e-05
7.81246e-06
-3.75397e-05
3.75397e-05
-4.96128e-05
1.20731e-05
-4.283e-05
-6.78288e-06
-2.96503e-05
-1.31796e-05
-3.04327e-05
7.82345e-07
-4.28233e-05
1.23907e-05
-5.39377e-05
1.11144e-05
-5.60147e-05
2.07695e-06
-4.52181e-05
-1.07965e-05
-1.97869e-05
-2.54312e-05
5.22451e-06
-2.50114e-05
1.00495e-05
-4.82494e-06
2.13579e-07
9.83586e-06
-2.67184e-06
2.88543e-06
7.07294e-07
-3.37915e-06
3.15776e-06
-2.45046e-06
1.43859e-06
1.71917e-06
-3.45242e-08
1.47311e-06
-3.45225e-08
-2.88253e-05
6.6365e-05
-3.51511e-05
1.83989e-05
-1.78992e-05
-2.40348e-05
9.80495e-06
-4.08838e-05
1.16995e-05
-1.11215e-06
-5.14388e-06
2.9234e-05
-1.79583e-05
2.39288e-05
-4.28014e-05
2.692e-05
-3.76946e-05
-1.59033e-05
-1.69189e-05
-4.62069e-05
1.62305e-05
-5.81608e-05
1.71144e-05
-5.70878e-06
2.79779e-05
-1.02766e-06
2.01027e-05
1.07606e-05
1.15302e-05
5.19333e-06
2.55199e-05
-1.64401e-05
7.26416e-06
1.99749e-05
-9.84924e-08
8.83577e-06
-1.33014e-07
-7.50804e-06
7.38731e-05
-2.62869e-06
1.35196e-05
9.43951e-06
-3.6103e-05
2.52555e-05
-5.66997e-05
2.46126e-05
-4.69333e-07
1.06043e-05
4.32423e-05
-7.95103e-06
4.24842e-05
-2.75105e-05
4.64794e-05
-3.05715e-05
-1.28423e-05
-1.5253e-05
-6.15254e-05
1.75308e-05
-9.09447e-05
3.28299e-05
-2.10079e-05
1.64728e-05
1.53294e-05
2.79178e-05
-6.84439e-07
2.93009e-05
3.81026e-06
1.74534e-05
-4.59258e-06
1.80855e-05
1.93428e-05
3.04895e-06
2.38723e-05
2.91594e-06
1.39324e-05
5.99407e-05
3.64537e-05
-9.00168e-06
4.14276e-05
-4.1077e-05
4.38203e-05
-5.90924e-05
2.99032e-05
1.34478e-05
1.75488e-05
5.55967e-05
7.92717e-06
5.21058e-05
-4.2758e-06
5.86824e-05
-1.46673e-05
-2.45079e-06
-2.62573e-06
-7.3567e-05
1.47423e-05
-0.000108313
2.12605e-05
-2.7526e-05
3.65027e-05
8.71548e-08
2.81562e-05
7.66208e-06
2.51665e-05
6.79997e-06
1.57732e-05
4.80073e-06
2.19697e-05
1.31463e-05
1.29861e-05
3.28559e-05
1.5902e-05
3.00359e-05
2.99048e-05
2.91498e-05
-8.11564e-06
4.91125e-05
-6.10396e-05
4.85931e-05
-5.85731e-05
2.71642e-05
3.48767e-05
1.19263e-05
7.08347e-05
3.8557e-06
6.01764e-05
-6.35384e-06
6.88919e-05
-5.33027e-06
-3.47436e-06
3.43736e-06
-8.23346e-05
9.15907e-06
-0.000114034
3.04004e-05
-4.87673e-05
4.29633e-05
-1.24758e-05
3.70643e-05
1.35611e-05
3.00094e-05
1.38549e-05
1.72226e-05
1.75876e-05
1.11057e-05
1.92631e-05
1.02838e-05
3.36778e-05
2.61859e-05
2.94525e-05
4.52294e-07
2.97459e-05
-8.40908e-06
5.75388e-05
-8.88324e-05
5.34974e-05
-5.45317e-05
2.96624e-05
5.87117e-05
1.42839e-05
8.62132e-05
1.4769e-06
7.29834e-05
-5.09277e-06
7.54616e-05
2.49267e-06
-1.10598e-05
6.42401e-06
-8.6266e-05
8.38415e-06
-0.000115995
1.86389e-05
-5.9022e-05
3.03202e-05
-2.41571e-05
3.86758e-05
5.20557e-06
3.33324e-05
1.91982e-05
1.65851e-05
3.43349e-05
2.48455e-05
1.10028e-05
1.63261e-05
4.21971e-05
4.2512e-05
3.42988e-05
-3.38465e-05
5.50772e-05
-2.91875e-05
5.817e-05
-9.19252e-05
4.35245e-05
-3.98862e-05
1.22282e-05
9.00081e-05
1.93906e-05
7.90507e-05
1.23791e-06
9.11361e-05
-5.25445e-06
8.1954e-05
1.71747e-05
-3.3489e-05
2.13155e-05
-9.04067e-05
4.65856e-06
-9.93377e-05
5.63222e-06
-5.99957e-05
3.13489e-05
-4.98738e-05
4.69827e-05
-1.04282e-05
4.44696e-05
2.17113e-05
3.50876e-05
4.37169e-05
1.40285e-05
3.20618e-05
1.04205e-05
4.58051e-05
5.29325e-05
2.08412e-05
-5.46877e-05
6.20846e-05
-7.04309e-05
3.1408e-05
-6.12487e-05
3.59339e-05
-4.4412e-05
6.67181e-06
0.00011927
2.59926e-06
8.31232e-05
-2.29712e-06
9.60325e-05
-3.74805e-06
8.34049e-05
3.38045e-05
-7.10415e-05
1.83853e-05
-7.49874e-05
2.08724e-05
-0.000101825
2.43074e-05
-6.34307e-05
1.82661e-05
-4.38325e-05
2.25309e-05
-1.4693e-05
1.96628e-05
2.45794e-05
2.84394e-05
3.49403e-05
2.5104e-05
3.53972e-05
1.18909e-05
5.90183e-05
6.48234e-05
-2.38783e-06
1.89049e-05
-1.74528e-06
1.94733e-05
-1.45335e-05
2.96522e-05
-2.54613e-05
3.22963e-05
-5.03905e-05
3.82672e-05
-5.69385e-05
1.46586e-05
-6.96423e-05
2.98021e-05
-7.87968e-05
3.56404e-05
-0.00010202
3.9542e-05
-0.000121669
2.12539e-05
-0.000139473
8.11913e-06
-0.000144829
-4.05039e-05
-0.000146996
-6.15542e-05
-0.00013863
-6.94057e-05
-0.000132783
-3.56505e-05
-9.97794e-05
-3.18373e-05
-6.13511e-05
1.39581e-05
-4.78597e-05
2.40444e-05
-5.6366e-05
2.47929e-05
-4.62129e-05
-1.27509e-05
-1.81112e-05
-4.1035e-05
-6.41806e-06
-5.90624e-05
-4.13281e-05
4.27225e-05
-3.74432e-06
2.26492e-05
-2.18286e-05
3.75576e-05
-1.51728e-05
2.29964e-05
-2.45783e-05
4.17018e-05
-3.25603e-05
4.62491e-05
-5.99995e-05
4.20979e-05
-6.68433e-05
3.66458e-05
-8.10388e-05
4.98359e-05
-0.000102262
6.07647e-05
-0.000120437
3.94295e-05
-0.000166439
5.41208e-05
-0.000200211
-6.73206e-06
-0.000211145
-5.06194e-05
-0.000208859
-7.16918e-05
-0.000124465
-0.000120045
-0.000134649
-2.16527e-05
-9.65505e-05
-2.41406e-05
-7.49236e-05
2.41753e-06
-4.67141e-05
-3.41659e-06
-2.607e-05
-3.3395e-05
-2.67173e-05
-4.03877e-05
-4.38399e-05
-4.19398e-05
-6.48842e-05
-2.02838e-05
-3.52538e-06
2.61746e-05
-5.77239e-06
3.98047e-05
-3.41091e-05
5.13331e-05
-4.52942e-05
5.28869e-05
-3.36434e-05
3.45983e-05
-3.88468e-05
4.73014e-05
-6.23289e-05
6.01279e-05
-7.01846e-05
5.76917e-05
-4.61039e-05
3.6684e-05
-0.000113431
0.000106756
-0.000180124
0.000120814
-0.000238287
5.14307e-05
-0.000227162
-6.17446e-05
-0.000224326
-7.4527e-05
-0.000208791
-0.000135581
-0.000153883
-7.65604e-05
-0.000111314
-6.67094e-05
-8.51473e-05
-2.37494e-05
-3.80049e-05
-5.0559e-05
-2.88082e-05
-4.25917e-05
-3.73637e-05
-3.18322e-05
-2.38979e-05
-5.54057e-05
-5.23998e-05
-3.63823e-05
-9.09155e-06
3.52662e-05
-1.47468e-05
4.54599e-05
-9.48025e-06
4.60666e-05
-3.18218e-05
7.52285e-05
-4.58826e-05
4.86591e-05
-5.00591e-05
5.14779e-05
-3.7331e-05
4.73998e-05
-3.61045e-05
5.64652e-05
-7.47122e-05
7.52917e-05
-8.68715e-05
0.000118916
-0.00013411
0.000168053
-0.000180713
9.80336e-05
-0.00021151
-3.09472e-05
-0.000190791
-9.5246e-05
-0.000128274
-0.000198099
-8.9267e-05
-0.000115567
-0.00010013
-5.58462e-05
-7.38354e-05
-5.00442e-05
-6.34693e-05
-6.09251e-05
-5.44358e-05
-5.16252e-05
-5.39711e-05
-3.22969e-05
-7.06592e-05
-3.87176e-05
-2.51371e-05
-9.79219e-05
-4.82043e-06
4.00866e-05
3.32607e-06
3.73134e-05
1.24647e-06
4.81462e-05
-1.16335e-05
8.81084e-05
-5.8814e-05
9.58396e-05
-6.28167e-05
5.54806e-05
-6.23914e-05
4.69745e-05
-6.05851e-05
5.46588e-05
-4.71385e-05
6.18451e-05
-2.85289e-05
0.000100306
-5.10611e-05
0.000190585
-8.74244e-05
0.000134397
-0.000120122
1.75045e-06
-0.000110914
-0.000104454
-0.000162041
-0.000146972
-0.000224134
-5.34741e-05
-0.000197464
-8.25162e-05
-0.000132946
-0.000114562
-9.93894e-05
-9.44816e-05
-8.57726e-05
-6.52419e-05
-5.91673e-05
-5.89022e-05
-5.84892e-05
-3.93957e-05
-1.38176e-05
-6.98087e-05
5.49776e-05
-1.4891e-05
9.33818e-07
9.13573e-05
-2.02611e-05
6.93411e-05
-4.09235e-05
0.000108771
-6.22751e-05
0.000117191
-7.03533e-05
6.35588e-05
-6.8666e-05
4.52872e-05
-4.37579e-05
2.97507e-05
-7.82751e-06
2.59147e-05
-1.82039e-05
0.000110682
-3.73479e-05
0.000209729
-0.00012565
0.000222699
-0.00014368
1.97807e-05
-0.00019131
-5.68239e-05
-0.000246844
-9.14384e-05
-0.000235048
-6.52697e-05
-0.000132741
-0.000184824
-5.5479e-05
-0.000191824
1.9668e-06
-0.000151927
-4.18379e-05
-2.14372e-05
-7.21432e-05
-2.85968e-05
-5.83891e-05
-5.31499e-05
-2.76349e-05
-4.45718e-05
6.15741e-05
-7.64651e-05
1.28982e-05
0.000140033
-7.33924e-05
0.000155632
-9.46377e-05
0.000130016
-0.000104429
0.000126982
-9.40826e-05
5.32128e-05
-6.12551e-05
1.24597e-05
-2.28184e-06
-2.92225e-05
-2.393e-05
4.75629e-05
-9.24954e-05
0.000179248
-0.00013823
0.000255464
-0.000113653
0.000198121
-0.000125919
3.20468e-05
-0.000174449
-8.29449e-06
-0.000190933
-7.49538e-05
-0.000158074
-9.8129e-05
-0.000128927
-0.00021397
-8.15351e-05
-0.000239216
9.56144e-06
-0.000243024
3.89248e-05
-5.08005e-05
1.67689e-06
8.65107e-06
-2.62389e-05
-2.52339e-05
-1.12285e-05
-4.26453e-05
9.05772e-06
-8.55228e-05
-9.55017e-05
0.000244593
-0.000103322
0.000163452
-0.000143934
0.000170628
-0.000134049
0.000117097
-9.12633e-05
1.04267e-05
-5.90048e-05
-1.97988e-05
-7.60474e-05
-1.21799e-05
-0.000172557
0.000144072
-0.000215364
0.000222055
-0.000210843
0.000250943
-0.000161657
0.000148935
-0.000174407
4.47968e-05
-0.000195232
1.25301e-05
-0.000211528
-5.86575e-05
-0.000150913
-0.000158744
-0.00013149
-0.000233394
-0.000110368
-0.000260338
-9.65541e-05
-0.000256837
-2.32643e-05
-0.00012409
-7.5152e-06
-7.09799e-06
-2.93624e-05
-3.38675e-06
1.15685e-06
-4.17478e-05
-2.26425e-05
-6.28803e-05
-0.000116797
0.000338747
-0.000137034
0.000183689
-0.00014344
0.000177035
-0.000122929
9.65864e-05
-0.000104227
-8.27595e-06
-0.000143056
1.90302e-05
-0.00024789
9.26541e-05
-0.000297796
0.000193978
-0.000285768
0.000210028
-0.000259612
0.000224787
-0.000222108
0.000111431
-0.000236263
5.89517e-05
-0.000234358
1.06258e-05
-0.000220976
-7.20399e-05
-0.000198751
-0.000180969
-0.000176086
-0.000256058
-0.000152837
-0.000283587
-0.000164854
-0.00024482
-0.000160584
-0.00012836
-9.55876e-05
-7.20944e-05
-5.93963e-05
-3.9578e-05
-2.47608e-05
-3.34787e-05
-1.91288e-05
-4.37515e-05
-6.33871e-05
0.000383005
-9.72533e-05
0.000217555
-9.6279e-05
0.000176061
-9.59357e-05
9.6243e-05
-0.000155756
5.15442e-05
-0.000252489
0.000115763
-0.000276431
0.000116596
-0.000311243
0.00022879
-0.000288578
0.000187362
-0.000238953
0.000175161
-0.000255879
0.000128357
-0.000281323
8.43954e-05
-0.000273704
3.00668e-06
-0.000279595
-6.61488e-05
-0.000239239
-0.000221325
-0.00019293
-0.000302367
-0.000152495
-0.000324022
-0.000116753
-0.000280562
-0.000123015
-0.000122098
-0.000164995
-3.01151e-05
-0.000165519
-3.90539e-05
-4.27062e-05
-0.000147573
4.20594e-06
-4.79575e-05
1.36696e-05
0.000373541
-0.000114861
0.000346086
-0.000109746
0.000170945
-0.0001217
0.000108197
-0.000171893
0.000101737
-0.000220509
0.000164379
-0.000227062
0.000123149
-0.000258381
0.000260109
-0.000262386
0.000191368
-0.000251374
0.000164148
-0.000312971
0.000189954
-0.000307964
7.93881e-05
-0.000291081
-1.38767e-05
-0.000173804
-0.000183425
-0.000169352
-0.000225778
-0.000193968
-0.000277751
-0.000177742
-0.000340249
-0.000156517
-0.000301786
-0.000188757
-8.98587e-05
-0.000163254
-5.56176e-05
-0.000153673
-4.86347e-05
-5.75245e-05
-0.000138855
5.58042e-06
-5.35379e-05
3.9369e-06
0.000375185
-3.44194e-05
0.000384442
-5.94327e-05
0.000195959
-8.46694e-05
0.000133434
-5.91119e-05
7.61798e-05
-8.90801e-05
0.000194347
-0.00022359
0.000257659
-0.000228592
0.00026511
-0.000286566
0.000249342
-0.000328241
0.000205823
-0.000210928
7.26424e-05
-0.000163688
3.2148e-05
-0.000123523
-5.40416e-05
-0.000202591
-0.000104358
-0.000190293
-0.000238075
-0.000192629
-0.000275415
-0.000222848
-0.000310029
-0.000232423
-0.000292211
-0.000186973
-0.00013531
-0.000165831
-7.67591e-05
-8.70425e-05
-0.000127423
-7.54014e-05
-6.91655e-05
-8.96156e-06
-4.45765e-05
-9.15052e-06
0.000375374
-2.84881e-05
0.00040378
-5.67098e-05
0.00022418
-7.30142e-05
0.000149738
-0.000123872
0.000127038
-0.000166228
0.000236703
-0.00020214
0.000293572
-0.000227673
0.000290643
-0.000236986
0.000258655
-0.000231328
0.000200165
-0.000251183
9.24982e-05
-0.000176729
-4.23062e-05
-0.000151431
-7.93395e-05
-4.78194e-05
-0.00020797
-2.91764e-05
-0.000256718
9.99542e-06
-0.000314587
-1.88285e-05
-0.000281205
-9.62901e-05
-0.000214749
-7.52479e-05
-0.000156352
-3.82063e-05
-0.000113801
-6.15118e-05
-0.000104118
-9.5898e-05
-4.10151e-05
-3.08317e-05
-1.37448e-05
-2.25802e-05
0.000367122
-2.35223e-05
0.000404722
-3.89185e-05
0.000239577
-6.58639e-05
0.000176683
-4.0948e-05
0.000102122
-0.00011631
0.000312065
-0.000165066
0.000342328
-0.000183192
0.000308769
-0.000174186
0.000249649
-9.85581e-05
0.000124537
-0.000120886
0.000114826
-0.000124141
-3.90504e-05
-8.86106e-05
-0.00011487
-3.12448e-05
-0.000265335
3.38574e-05
-0.00032182
6.82422e-05
-0.000348972
7.02452e-05
-0.000283208
5.01683e-05
-0.000194673
4.41139e-05
-0.000150297
1.6556e-05
-8.6243e-05
-4.67564e-05
-4.08052e-05
-5.254e-05
-9.01142e-05
-3.84016e-05
2.46568e-05
-2.4534e-05
0.000353255
-2.19903e-05
0.000402178
-2.13587e-06
0.000219722
-1.19513e-05
0.000186499
-3.05483e-05
0.000120719
-5.50748e-05
0.000336592
-8.11307e-05
0.000368384
-0.000138847
0.000366485
-0.00010109
0.000211892
-0.000187756
0.000211203
-0.000145091
7.21615e-05
-0.000165639
-1.85026e-05
-4.86321e-05
-0.000231877
-7.78203e-06
-0.000306185
4.81595e-05
-0.000377762
7.35739e-05
-0.000374387
8.22759e-05
-0.00029191
7.05398e-05
-0.000182936
6.32729e-05
-0.00014303
1.10778e-05
-3.40476e-05
-1.96693e-05
-1.00579e-05
-3.45625e-05
-3.76468e-05
-2.75585e-05
5.22154e-05
-1.6222e-07
0.000325858
2.1177e-05
0.000380839
-6.24559e-06
0.000247145
-1.09079e-05
0.000191162
-2.97418e-05
0.000139553
-4.50275e-05
0.000351877
-4.49449e-05
0.000368301
-4.36239e-05
0.000365164
-7.16055e-05
0.000239874
-3.94833e-05
0.000179081
-8.39728e-05
0.000116651
-3.75829e-05
-6.48925e-05
-5.66149e-06
-0.000263799
1.16002e-05
-0.000323447
3.27173e-05
-0.000398879
4.84848e-05
-0.000390154
8.00228e-05
-0.000323448
0.000123879
-0.000226793
4.90141e-05
-6.81655e-05
2.77621e-05
-1.27956e-05
-1.87267e-06
1.95768e-05
-1.15826e-05
-2.48526e-05
-2.4428e-05
7.66433e-05
9.41956e-06
0.000292011
3.43776e-05
0.000355881
4.90145e-06
0.000276621
-3.5238e-06
0.000199587
-1.79349e-05
0.000153964
-4.50786e-06
0.00033845
-6.11444e-06
0.000369908
3.90961e-05
0.000319954
4.00662e-05
0.000238904
2.00296e-05
0.000199117
5.37867e-05
8.28938e-05
4.15263e-05
-5.26321e-05
5.36561e-05
-0.000275928
3.88917e-05
-0.000308683
2.69446e-05
-0.000386932
-1.25271e-05
-0.000350682
7.01137e-06
-0.000342987
2.67995e-05
-0.000246581
-2.11778e-06
-3.92482e-05
-3.85577e-05
2.36443e-05
-2.61647e-05
7.18371e-06
-1.13155e-05
-2.64319e-05
-2.18617e-05
9.85049e-05
3.22285e-06
0.000266926
9.02898e-06
0.000350075
-9.48347e-06
0.000295134
3.25659e-05
0.000157538
1.31902e-05
0.00017334
1.22941e-05
0.000339347
0.000106251
0.000275951
0.000186837
0.000239368
0.000211658
0.000214083
0.000159163
0.000251612
0.000170342
7.17148e-05
0.00021835
-0.00010064
0.000112926
-0.000170504
6.31796e-05
-0.000258937
-1.57303e-06
-0.000322179
-6.44176e-05
-0.000287838
-0.000101093
-0.000306312
-0.000177322
-0.000170352
-0.000147189
-6.93807e-05
-0.00010077
-2.27751e-05
-6.34242e-05
-3.01618e-05
-3.44504e-05
-4.02892e-05
-1.54592e-06
0.000100051
1.59098e-05
0.000249471
1.80577e-05
0.000347928
1.83383e-05
0.000294853
1.24978e-05
0.000163378
1.51359e-05
0.000170702
8.03968e-05
0.000274086
0.000151763
0.000204585
0.000206008
0.000185122
0.000202775
0.000217317
0.000245926
0.000208461
0.000242807
7.48335e-05
0.000165703
-2.35365e-05
0.000182389
-0.00018719
0.000170712
-0.00024726
-5.11942e-06
-0.000146348
-6.29205e-05
-0.000230037
-0.000158481
-0.000210752
-0.000213279
-0.000115554
-0.000202501
-8.01589e-05
-0.000120268
-0.000105008
-6.66209e-05
-8.3809e-05
-5.1806e-05
-4.92653e-05
3.20284e-05
6.80225e-05
3.22144e-05
0.000249285
2.62813e-05
0.000353861
2.0816e-05
0.000300318
1.68087e-05
0.000167386
2.03508e-05
0.00016716
0.000139282
0.000155155
0.00012903
0.000214836
0.000112309
0.000201843
0.000179988
0.000149639
0.000259571
0.000128878
0.000295671
3.87332e-05
0.00031061
-3.84749e-05
0.000179066
-5.56469e-05
0.000104093
-0.000172286
9.04491e-05
-0.000132704
2.7206e-05
-0.000166794
-5.58561e-05
-0.00012769
-9.27822e-05
-7.86275e-05
-5.56822e-05
-0.000117259
-5.64058e-05
-0.000104284
-5.04366e-05
-8.97783e-05
-7.50259e-05
-2.72166e-05
4.55726e-05
2.24499e-05
3.03268e-05
0.00026453
4.15865e-05
0.000342601
4.97259e-05
0.000292179
1.0535e-05
0.000206576
-3.41985e-06
0.000181115
4.65096e-05
0.000105226
0.00010582
0.000155526
0.000175381
0.000132282
0.000236489
8.85306e-05
0.000310945
5.44222e-05
0.000347798
1.87976e-06
0.00034795
-3.86262e-05
0.00035028
-5.79766e-05
0.00026383
-8.58366e-05
0.000226971
-9.58459e-05
0.000134592
-7.44142e-05
2.63746e-05
-1.94722e-05
-3.1618e-05
-2.06348e-05
-6.21013e-05
-8.67756e-05
-7.8558e-05
-8.78274e-05
-6.99849e-05
-9.83515e-05
-0.000122164
-2.28466e-05
1.63266e-05
6.12333e-06
2.08912e-05
0.000259966
3.41832e-05
0.000329309
3.20024e-05
0.00029436
3.62795e-05
0.000202299
5.20253e-05
0.000165369
6.99195e-05
8.73314e-05
0.000157515
6.79304e-05
0.000259306
3.04905e-05
0.000331478
1.63586e-05
0.000362945
2.2956e-05
0.000361142
3.68245e-06
0.000345467
-2.29511e-05
0.000312106
-2.46159e-05
0.000246831
-2.05618e-05
0.000173536
-2.25502e-05
7.70879e-05
2.20335e-05
-1.16879e-05
6.93037e-05
-4.48015e-05
1.24789e-05
-5.64252e-05
-7.5152e-05
-5.55571e-05
-8.86955e-05
-2.66802e-05
-0.000127229
-0.000134207
-1.46377e-05
-2.1642e-05
2.77654e-05
7.27438e-06
0.000231049
4.19331e-05
0.00029465
5.70744e-05
0.000279219
8.64209e-05
0.000172953
0.000175651
7.61388e-05
0.000183714
7.92679e-05
0.000260498
-8.85286e-06
0.000304603
-1.3615e-05
0.000311541
9.42086e-06
0.000312663
2.18339e-05
0.000295234
2.11107e-05
0.000271972
3.11167e-07
0.000239955
7.40109e-06
0.000195383
2.40101e-05
0.000149597
2.32366e-05
9.39137e-05
7.77164e-05
2.7066e-05
0.000136151
-1.34022e-05
5.29472e-05
-2.04975e-05
-6.80568e-05
-5.29911e-05
-5.6202e-05
-2.26851e-05
-0.000157535
-0.00015107
-5.82244e-06
-5.5169e-05
8.29343e-05
-6.09243e-05
0.000236805
4.52916e-05
0.000188434
8.10262e-05
0.000243484
0.000148737
0.000105242
0.000183893
4.09823e-05
0.000276129
-1.29671e-05
0.00027295
-5.6746e-06
0.000275642
-1.63071e-05
0.00028772
-2.65643e-06
0.000293576
1.5978e-05
0.000271805
4.28811e-05
0.000241768
3.03483e-05
0.000182022
6.71476e-05
0.000128653
7.73786e-05
7.1227e-05
8.06629e-05
8.65498e-05
6.23936e-05
2.40651e-05
0.000198636
-2.52848e-05
0.000102297
-3.71185e-05
-5.62233e-05
-2.9057e-05
-6.42636e-05
-1.29672e-05
-0.000173625
-0.000158109
-5.92768e-06
-3.8038e-05
0.000120972
-0.000102914
0.00030168
3.36269e-06
8.21576e-05
0.000160925
8.59209e-05
0.000207511
5.86557e-05
0.000232987
1.55063e-05
0.000265186
-4.51662e-05
0.000293073
-3.35611e-05
0.000304745
-2.79793e-05
0.000300762
1.32692e-06
0.000286265
3.04749e-05
0.000255818
7.33279e-05
0.000207546
7.862e-05
0.000159143
0.00011555
0.000150039
8.64831e-05
0.000130523
0.000100178
9.05937e-05
0.000102323
1.90103e-05
0.00027022
-6.36505e-06
0.000127672
-3.73161e-05
-2.52722e-05
-4.54415e-06
-9.70355e-05
1.69068e-06
-0.000179859
-0.000152012
-4.40609e-06
-2.75392e-06
0.000123726
1.33961e-05
0.00028553
4.01053e-05
5.54484e-05
0.000101144
2.48818e-05
0.000242055
-8.22547e-05
0.000306134
-4.85726e-05
0.000338157
-7.71893e-05
0.00036931
-6.47141e-05
0.000389786
-4.84551e-05
0.000347831
4.3281e-05
0.000260049
0.000118257
0.000220992
0.000112385
0.000109343
0.00019027
9.20796e-05
0.000132813
8.59446e-05
9.26181e-05
7.42008e-05
0.000111922
1.61627e-05
0.000160361
-9.35664e-07
0.000287318
1.53417e-05
0.000111395
3.39446e-05
-4.38751e-05
7.22221e-06
-7.03131e-05
6.53632e-06
-0.000179174
-0.000151228
5.75247e-06
1.66706e-07
0.000123559
0.000101545
0.000184152
0.000117419
3.95743e-05
0.000184483
-4.21823e-05
0.000180967
-7.87386e-05
0.0002055
-7.3105e-05
0.000228813
-0.000100503
0.000245248
-8.1149e-05
0.00017912
1.76735e-05
0.000155158
6.72422e-05
0.000176058
9.73576e-05
0.000159533
0.000128909
0.000154075
0.000195728
0.000150178
0.000136711
0.000122185
0.000120612
4.74547e-05
0.000186652
-3.29095e-05
0.000240725
-1.07392e-05
0.000265148
9.31578e-06
9.13398e-05
6.16855e-06
-4.0728e-05
1.28771e-05
-7.70216e-05
1.24332e-05
-0.00017873
-0.00015238
1.35848e-05
3.34457e-06
0.000120215
7.56128e-05
0.000111883
5.67167e-05
5.84703e-05
8.3029e-05
-6.84946e-05
8.35427e-05
-7.92524e-05
0.000116058
-0.00010562
0.000129588
-0.000114033
0.000100689
-5.22508e-05
0.000104445
1.39175e-05
0.000128121
4.35667e-05
0.000136887
8.85918e-05
0.000108242
0.000157554
0.000123297
0.000180673
0.000122443
0.000137565
7.66614e-05
0.000166393
-5.38593e-06
0.0002687
-0.00013878
0.000374119
-3.93715e-05
0.000165739
-8.29185e-06
6.02601e-05
-1.44468e-06
-4.75751e-05
3.78049e-05
-0.000116271
3.03872e-05
-0.000171312
-0.000146543
2.45498e-05
-1.19469e-05
0.000132162
3.47687e-05
6.51678e-05
3.52618e-05
5.79773e-05
-5.86862e-06
-2.73643e-05
9.08168e-06
-9.42027e-05
2.7027e-05
-0.000123566
2.1523e-05
-0.000108529
1.34405e-05
-4.41683e-05
1.20315e-05
1.53265e-05
1.4588e-05
4.10103e-05
1.90475e-05
8.41324e-05
5.39197e-05
0.000122681
6.75714e-05
0.000167021
4.23557e-05
0.000162781
-1.17003e-05
0.000220449
-8.80929e-05
0.000345092
-9.94536e-05
0.00038548
-3.26902e-05
9.89754e-05
1.22149e-05
1.53549e-05
4.49598e-05
-8.032e-05
2.26705e-05
-9.39822e-05
3.11689e-05
-0.00017981
-0.000119893
4.51893e-06
-6.07117e-05
0.000192873
-6.38219e-05
6.8278e-05
-4.39689e-05
3.81244e-05
-3.51209e-05
-3.62122e-05
-6.13768e-05
-6.79469e-05
-6.99397e-05
-0.000115003
-9.69986e-05
-8.14702e-05
-0.000103207
-3.79603e-05
-9.67149e-05
8.83479e-06
-7.4785e-05
1.90803e-05
-2.39991e-05
3.33464e-05
2.73071e-05
7.13751e-05
1.76487e-05
0.000176679
-5.42226e-05
0.000234652
-4.20594e-05
0.000208285
-8.8878e-05
0.000391911
-5.76772e-05
0.000354279
-5.47546e-05
9.60527e-05
-9.1013e-06
-3.02985e-05
3.36103e-05
-0.000123032
3.57077e-05
-9.60796e-05
1.90646e-05
-0.000163167
-0.000150425
4.95968e-05
-2.96048e-05
0.000222478
-3.75165e-05
7.61898e-05
-6.74859e-05
6.80937e-05
-7.12732e-05
-3.24248e-05
-8.18169e-05
-5.74032e-05
-0.000108401
-8.84187e-05
-0.000137323
-5.25487e-05
-0.000121705
-5.35781e-05
-8.97028e-05
-2.31672e-05
-7.19649e-05
1.34236e-06
-5.12337e-05
1.26153e-05
-3.75868e-05
5.77282e-05
-4.89728e-05
0.000188065
-5.54208e-05
0.0002411
-7.65307e-05
0.000229395
-6.66772e-05
0.000382057
-1.57456e-05
0.000303347
-1.257e-05
9.2877e-05
3.9334e-05
-8.22026e-05
6.25126e-05
-0.00014621
6.63532e-05
-9.99203e-05
5.53486e-05
-0.000152163
-0.000126355
3.12783e-05
4.91757e-05
0.000173303
1.89889e-05
0.000106377
-2.20064e-05
0.000109089
-7.36733e-05
1.92422e-05
-8.42972e-05
-4.67793e-05
-0.000121153
-5.15627e-05
-0.000127634
-4.60683e-05
-0.000137173
-4.40387e-05
-0.000126719
-3.36216e-05
-8.51831e-05
-4.01933e-05
-9.44269e-05
2.18591e-05
-7.49241e-05
3.82255e-05
-7.45556e-05
0.000187697
-4.00348e-05
0.000206579
-0.000101617
0.000290977
-6.42756e-05
0.000344716
1.07744e-05
0.000228297
6.90723e-05
3.4579e-05
7.26116e-05
-8.5742e-05
6.65079e-05
-0.000140107
9.67126e-05
-0.000130125
7.63354e-05
-0.000131786
-0.000116932
6.6912e-05
4.93358e-05
0.000123967
1.77916e-05
0.000137921
2.04166e-05
0.000106464
-2.93209e-05
6.89797e-05
-0.000104818
2.8718e-05
-0.000128119
-2.82622e-05
-0.000149644
-2.4543e-05
-0.000154187
-3.94952e-05
-0.000160628
-2.71805e-05
-0.000186433
-1.43888e-05
-0.000189927
2.53535e-05
-0.000180669
2.89671e-05
-0.000152489
0.000159517
-5.63148e-05
0.000110405
-3.70686e-05
0.000271731
-8.74943e-06
0.000316397
0.00011692
0.000102628
0.000157897
-6.39809e-06
0.000122696
-5.05406e-05
0.000107745
-0.000125156
9.64688e-05
-0.000118849
6.89204e-05
-0.000104237
-9.65816e-05
4.85703e-05
1.71354e-05
0.000106832
-5.20989e-06
0.000160266
-3.39116e-05
0.000135166
-4.35579e-05
7.86261e-05
-6.41106e-05
4.92707e-05
-0.000101756
9.3831e-06
-0.000121208
-5.09134e-06
-0.000146893
-1.38093e-05
-0.000168919
-5.15542e-06
-0.000189038
5.73096e-06
-0.000186067
2.23825e-05
-0.000178328
2.1228e-05
-8.60156e-05
6.72044e-05
-8.03524e-05
0.000104742
-1.08615e-05
0.00020224
8.06484e-05
0.000224887
8.5791e-05
9.74849e-05
0.000105882
-2.64889e-05
0.000160671
-0.000105329
0.000105096
-6.95823e-05
8.27987e-05
-9.65509e-05
6.13583e-05
-8.2797e-05
-6.66426e-05
3.14193e-05
-5.59355e-06
0.000112425
-3.49091e-05
0.000189582
-5.11106e-05
0.000151367
-5.58112e-05
8.33267e-05
-6.38715e-05
5.73311e-05
-7.60926e-05
2.16042e-05
-8.31753e-05
1.99143e-06
-9.3904e-05
-3.08062e-06
-0.000101795
2.736e-06
-0.000110897
1.48322e-05
-9.78271e-05
9.313e-06
-9.2288e-05
1.56889e-05
-7.68224e-05
5.17387e-05
-4.54783e-05
7.33974e-05
1.63055e-05
0.000140456
0.000137502
0.00010369
0.000195486
3.95006e-05
0.00018943
-2.04325e-05
0.000129509
-4.54094e-05
0.000102301
-4.23738e-05
8.8384e-05
-8.26339e-05
5.30779e-05
-4.74908e-05
-5.81829e-05
4.46183e-05
-1.75957e-05
0.000130021
-4.73682e-05
0.000219354
-6.17317e-05
0.000165731
-6.33116e-05
8.49066e-05
-5.45663e-05
4.85857e-05
-6.37756e-05
3.08135e-05
-4.29781e-05
-1.88061e-05
-3.2984e-05
-1.30747e-05
-3.44088e-05
4.16068e-06
-3.08336e-05
1.1257e-05
-2.73266e-05
5.80601e-06
-2.39812e-05
1.23434e-05
-4.14536e-06
3.19027e-05
2.98055e-05
3.94465e-05
7.71901e-05
9.30715e-05
0.000107737
7.31432e-05
8.696e-05
6.02777e-05
7.83688e-05
-1.18413e-05
6.99098e-05
-3.69505e-05
8.5674e-05
-5.81381e-05
6.76701e-05
-6.463e-05
5.96378e-05
-3.94585e-05
-3.25921e-05
3.4047e-05
-1.98569e-05
0.000149878
-5.64147e-05
0.000255912
-7.27879e-05
0.000182104
-8.76298e-05
9.97484e-05
-7.46792e-05
3.56352e-05
-3.84489e-05
-5.41686e-06
-4.71021e-05
-1.0153e-05
-3.47332e-05
-2.54437e-05
-2.42998e-05
-6.2728e-06
-9.7941e-06
-3.24887e-06
-1.84181e-06
-2.14635e-06
4.84327e-06
5.65839e-06
1.37787e-05
2.29673e-05
1.69793e-05
3.62459e-05
5.76639e-05
5.2387e-05
9.46967e-05
3.61104e-05
0.000151993
2.9817e-06
0.000137488
2.66346e-06
0.000117512
-1.69744e-05