/*--------------------------------*- C++ -*----------------------------------*\
| =========                 |                                                 |
| \\      /  F ield         | foam-extend: Open Source CFD                    |
|  \\    /   O peration     | Version:     4.1                                |
|   \\  /    A nd           | Web:         http://www.foam-extend.org         |
|    \\/     M anipulation  |                                                 |
\*---------------------------------------------------------------------------*/
FoamFile
{
    version     2.0;
    format      ascii;
    class       volScalarField;
    location    "0.75";
    object      alpha1;
}
// * * * * * * * * * * * * * * * * * * * * * * * * * * * * * * * * * * * * * //

dimensions      [0 0 0 0 0 0 0];

internalField   nonuniform List<scalar> 
2268
(
1
1
1
0.999999
0.999999
0.999999
1
1
1
1
1
1
1
1
1
1
1
1
1
1
1
1
0.999992
0.999999
0.999999
1
1
1
1
1
1
1
1
1
1
1
1
1
1
1
1
1
1
1
1
0.999982
1
1
1
1
1
1
1
1
1
1
1
1
1
1
1
1
1
1
1
1
1
1
0.999979
1
1
1
1
1
1
1
1
1
1
1
1
1
1
1
1
1
1
1
1
1
0.999999
0.999983
1
1
1
0.999999
0.999998
1
1
1
1
1
1
1
1
1
1
1
1
1
1
1
1
1
0.999993
0.999995
0.999992
0.999966
0.999816
0.999601
0.999996
0.999998
0.999999
1
1
1
1
1
1
1
1
1
1
1
1
1
1
0.999998
0.999938
0.999809
0.999585
0.998821
0.998775
0.999906
0.999969
0.999987
1
1
1
1
1
1
1
1
1
1
1
1
1
1
1
0.999679
0.999217
0.998291
0.996996
0.99932
0.999906
0.999602
0.99983
0.999993
1
1
1
1
1
1
1
1
1
1
1
1
1
1
0.995099
0.99521
0.995218
0.995162
0.988986
0.97129
0.946662
0.932635
0.943147
0.978438
0.991077
0.99383
0.993921
0.992753
0.992559
0.991208
0.989931
0.987887
0.987634
0.995184
0.995218
0.995218
0.992784
0.914038
0.668803
0.472863
0.416304
0.452163
0.672411
0.855454
0.953843
0.971318
0.970248
0.966709
0.919945
0.82211
0.827674
0.98266
0.995218
0.995218
0.995218
0.991056
0.940033
0.645282
0.234567
0.174071
0.174071
0.174071
0.411256
0.839703
0.907863
0.872648
0.829925
0.460508
0.265303
0.312882
0.776982
0.995218
0.99432
0.984484
0.978955
0.863098
0.71673
0.796888
0.482709
0.198912
0.174071
0.385626
0.884454
0.957544
0.809574
0.762133
0.192093
0.185824
0.185476
0.619034
0.995218
0.990001
0.97467
0.965374
0.939193
0.944562
0.979853
0.975849
0.787852
0.655953
0.845984
0.964632
0.976733
0.937252
0.707953
0.190897
0.280465
0.311802
0.492806
0.995218
0.982693
0.916444
0.671047
0.545866
0.892742
0.981392
0.987959
0.978319
0.980336
0.978734
0.978021
0.977152
0.969155
0.736474
0.220955
0.287116
0.0685945
0.233717
0.994924
0.962744
0.6188
0.177144
0.159826
0.659738
0.845514
0.980762
0.990525
0.990525
0.989413
0.932811
0.945742
0.953445
0.703014
0.242634
0.189799
0.0374359
0.0526177
0.994694
0.943665
0.19312
0.159826
0.160119
0.348756
0.647381
0.871664
0.962547
0.989985
0.929581
0.72765
0.838564
0.931574
0.538266
0.128727
0.0374359
0.0374359
0.0374359
0.961226
0.951663
0.976398
0.974522
0.983401
0.984598
0.991826
0.993896
0.99599
0.99653
0.996599
0.99678
0.996822
0.995065
0.99148
0.985507
0.994533
0.987953
0.983135
0.96355
0.966851
0.969928
0.987101
0.737687
0.702628
0.794364
0.811207
0.762696
0.733222
0.691381
0.771603
0.824828
0.841723
0.839347
0.846148
0.849667
0.846993
0.778249
0.74803
0.852618
0.792582
0.729336
0.553919
0.610095
0.711403
0.932666
0.297723
0.19356
0.104333
0.0700859
0.0547525
0.0828234
0.092428
0.136089
0.132895
0.17245
0.196751
0.229446
0.242699
0.24141
0.160508
0.155457
0.216146
0.165263
0.134072
0.134002
0.140629
0.287103
0.799545
0.0702215
0.0213114
0.00368623
0.00153958
0.00123491
0.00321662
0.00582508
0.00661228
0.00585675
0.00860212
0.0103806
0.0108317
0.00889103
0.00472551
0.00383617
0.00413555
0.00540925
0.0124589
0.142102
0.508562
0.704612
0.637246
0.948255
0.0182593
0.00236969
0.000185862
0.00015516
0.000433182
0.000592572
0.000590246
0.00062471
0.00259499
0.00759371
0.011077
0.00937749
0.00346146
0.00162229
0.000898547
0.000879685
0.00124203
0.0345352
0.371979
0.930506
0.987613
0.987385
0.991185
0.00686353
0.000669285
2.65287e-05
2.26493e-05
5.07541e-05
3.44322e-05
0.000319856
0.00665445
0.0389214
0.0855779
0.106182
0.0939562
0.0533987
0.0259026
0.00837519
0.00241055
0.00120102
0.00724422
0.114057
0.660045
0.946465
0.960252
0.890704
0.00333151
0.000242043
3.62444e-06
1.9415e-06
2.03872e-06
5.7746e-06
0.00099619
0.0275441
0.120901
0.147888
0.14789
0.147888
0.14789
0.0952389
0.0232745
0.00668831
0.00435052
0.00412572
0.0569987
0.443728
0.888439
0.894782
0.595342
0.00186334
0.000195316
3.34398e-06
1.94157e-06
1.9415e-06
1.09182e-05
0.00166325
0.0284475
0.104457
0.14789
0.144598
0.109348
0.102801
0.103487
0.0497513
0.0404643
0.0434139
0.0167482
0.0603426
0.359903
0.822828
0.898073
0.713951
0.0010721
0.000147134
3.87773e-06
1.9415e-06
1.94168e-06
1.29355e-05
0.000887277
0.00747518
0.0196672
0.0274699
0.0186745
0.00606061
0.00344418
0.00593313
0.0422546
0.0978576
0.098294
0.0645002
0.0351667
0.121739
0.287644
0.391165
0.291868
0.000579336
0.000108845
1.20621e-05
4.75981e-06
3.25471e-06
1.35893e-05
0.000751284
0.00453257
0.00578814
0.00220154
0.000608124
0.000335127
0.0002673
0.0012056
0.0110549
0.0461753
0.0939112
0.0735422
0.0124387
0.0131093
0.0444453
0.0619958
0.0615944
0.000276182
7.16798e-05
1.46594e-05
3.59571e-05
3.55617e-05
1.04068e-05
0.00061536
0.00276485
0.00127084
0.000338951
0.000150092
0.000104317
0.000249406
0.00147737
0.00510445
0.00682682
0.00887142
0.0134827
0.00361293
0.00460619
0.0223861
0.0512852
0.0770004
0.000111068
3.71847e-05
7.61369e-06
3.27645e-05
6.29034e-05
1.54078e-05
0.000399402
0.00143069
0.000118922
6.60389e-06
4.13005e-06
2.20118e-05
0.000554738
0.00359731
0.00494168
0.00198709
0.000784112
0.00114214
0.000753868
0.000681933
0.00139015
0.012854
0.077852
3.58636e-05
1.37384e-05
1.61561e-06
1.04587e-05
6.3404e-05
9.48429e-05
0.000503597
0.000726173
0.000133005
3.23928e-06
6.81835e-08
9.96803e-06
0.000608339
0.00337008
0.0047039
0.000580579
0.00041736
0.000419263
0.000457551
0.000441106
0.000496781
0.00109755
0.00415954
8.58428e-06
3.29456e-06
3.15771e-07
6.65653e-07
3.44904e-05
0.000130639
0.000463508
0.000331191
0.000113047
9.41281e-06
1.01519e-07
4.73391e-08
4.97313e-05
0.000673382
0.00104914
0.00059381
0.000498624
0.00142448
0.0023183
0.00148425
0.000508502
0.000193921
0.000527903
1.32082e-06
4.23496e-07
4.1474e-08
5.76051e-08
5.29918e-06
7.86418e-05
0.000195906
0.000112321
4.0333e-05
6.09092e-06
1.62897e-06
2.47405e-07
7.60482e-08
8.70919e-05
0.000245588
0.000392318
0.0020255
0.00275416
0.00275382
0.00275416
0.000816203
0.000131516
5.60658e-05
1.04946e-07
1.93364e-08
2.66772e-09
4.58224e-08
3.50361e-07
1.38155e-05
2.20697e-05
7.91883e-06
6.87962e-06
5.32921e-05
0.000149144
0.000123311
4.17699e-05
2.6998e-05
2.63928e-05
0.000247697
0.00107747
0.00262729
0.00275418
0.00275155
0.00229799
0.000320598
5.61809e-05
3.1495e-09
2.07738e-10
2.71535e-09
1.17733e-07
4.99378e-07
7.41833e-07
5.27217e-06
4.51876e-06
0.000103646
0.0023337
0.00458765
0.00220391
0.000214447
0.000239303
0.000104576
0.000227745
0.000974182
0.00121572
0.000904692
0.00125361
0.000910133
0.000180884
9.47875e-05
7.96681e-11
4.51233e-11
3.1087e-08
5.40784e-07
1.73779e-06
1.9095e-05
0.00137566
0.00196731
0.0073541
0.0156274
0.0156271
0.00632811
0.0010405
0.0011791
0.000546869
0.000382489
0.000481361
0.000306826
0.000295889
0.00019868
0.000105075
5.3582e-05
0.000290334
9.10285e-11
4.57451e-11
1.70495e-08
1.65067e-06
0.000279689
0.00604401
0.0258092
0.0288097
0.0245265
0.00538473
0.00401916
0.00425069
0.00161398
0.00118752
0.00118978
0.000980835
0.000534704
0.000332468
0.00115147
0.000809886
0.000187613
5.10283e-05
6.51295e-05
1.55526e-10
4.25342e-11
3.90449e-08
3.99158e-05
0.0025501
0.0187001
0.0272131
0.0219653
0.00238038
0.000944243
0.00145406
0.00215278
0.00095772
0.000460189
0.000598884
0.000715897
0.000439219
0.000738598
0.00116407
0.00116398
0.000590151
8.70587e-05
1.94533e-05
3.06504e-10
4.04587e-11
2.34552e-08
2.64801e-05
0.00155085
0.0108406
0.0271697
0.0261756
0.00854649
0.000690853
0.000284726
0.000731174
0.00084606
0.000173579
0.000142667
0.000287078
0.000209774
0.000617698
0.000867732
0.000499438
0.000122609
5.32031e-05
3.01556e-05
4.00627e-10
3.71366e-11
4.17286e-09
9.47197e-06
0.000933086
0.00853455
0.0176602
0.00563984
0.000340109
0.000183223
0.000182487
0.000236125
0.000474251
0.000244702
3.89339e-05
4.43759e-05
5.83865e-05
0.000221925
0.000203035
0.000218691
6.62034e-05
9.62806e-06
3.85843e-06
3.94333e-10
3.25344e-11
1.00741e-09
1.16856e-06
0.000308525
0.00346151
0.00817081
0.00800422
0.00126737
0.000289482
0.000288001
0.000196236
0.00016861
0.000166479
1.95856e-05
1.76685e-05
1.76752e-05
8.65021e-05
0.000309097
0.00026802
6.77019e-05
3.15286e-06
8.95991e-08
3.14634e-10
3.07249e-11
6.32918e-10
3.48138e-08
3.65084e-05
0.000514316
0.0020152
0.00351235
0.00328348
0.00251556
0.00125018
0.000680371
0.000185532
4.10475e-05
1.76685e-05
1.76752e-05
3.12354e-05
0.000176742
0.000573176
0.000295056
5.08411e-05
2.27292e-06
1.76123e-08
1.31801e-10
1.71817e-11
3.90164e-10
8.43517e-10
9.71924e-07
2.20102e-05
0.000166611
0.000240186
0.00100114
0.00088934
0.000432653
0.00120903
0.00120072
0.000343301
1.97802e-05
2.03737e-05
0.00025348
0.000708676
0.000686842
0.000203593
1.80794e-05
7.52469e-07
1.43165e-08
1.39838e-11
2.48036e-12
2.0133e-10
3.89489e-10
4.09293e-09
2.16108e-07
5.0081e-06
4.2849e-06
7.00745e-05
0.000112405
3.22561e-05
1.98369e-05
0.000487408
0.000774971
0.000764727
0.000630145
0.000787333
0.000774214
0.000381731
5.72837e-05
3.53866e-06
2.3339e-07
1.25902e-08
1.58532e-13
4.20417e-14
4.63879e-11
2.14551e-10
7.88969e-11
4.5664e-10
4.68327e-08
2.94185e-08
6.94974e-07
3.16254e-06
1.20001e-06
2.87593e-07
1.82226e-05
0.000376067
0.00038887
0.000501625
0.000554728
0.000370187
0.000105389
8.91681e-06
2.12289e-07
1.94839e-09
1.38728e-11
2.24481e-15
1.73478e-15
2.44133e-12
4.67305e-11
4.65323e-11
7.85029e-11
1.80812e-10
1.18944e-10
7.0358e-10
1.44858e-08
6.87561e-09
1.10623e-09
1.40182e-07
3.74554e-05
3.92966e-05
7.72464e-05
4.69571e-05
1.17109e-05
8.13425e-07
1.31089e-08
4.31439e-11
2.84966e-13
3.02891e-13
2.03248e-15
1.41544e-15
1.74647e-14
1.23324e-12
2.92915e-11
9.24783e-11
7.79153e-11
5.61182e-11
3.59931e-11
3.71408e-11
3.39967e-11
1.23292e-11
2.8353e-10
2.96539e-07
5.46226e-07
1.10133e-06
6.52418e-07
2.17108e-07
2.95108e-08
1.1327e-09
8.59026e-12
2.80978e-13
3.60479e-13
1.88139e-15
1.11905e-15
2.72917e-15
8.63606e-15
1.32346e-11
3.93606e-11
2.54285e-11
3.9427e-11
3.9126e-11
3.44174e-11
2.29805e-11
1.16522e-11
7.35179e-12
1.71588e-10
4.58394e-10
7.09326e-10
3.04814e-10
5.70881e-11
3.26766e-12
9.82157e-14
9.19036e-14
1.83129e-13
5.19962e-13
1.58375e-15
7.32273e-16
2.6658e-15
4.67927e-15
1.84562e-12
2.80696e-12
2.3558e-12
1.48258e-11
1.92745e-11
1.92225e-11
9.53393e-12
6.20477e-12
5.78542e-12
5.41705e-12
4.81579e-12
3.31888e-12
1.25021e-12
1.56954e-13
3.30979e-14
3.91274e-14
6.3955e-14
6.23239e-13
1.47753e-10
1.24229e-15
4.62051e-16
2.32976e-15
3.50979e-15
3.11505e-14
1.6872e-14
3.64341e-14
1.81992e-12
1.88083e-12
2.90276e-12
1.4668e-12
2.4195e-12
3.11725e-12
2.76608e-12
1.85769e-12
7.16432e-13
9.43939e-14
1.48854e-14
1.68398e-14
3.08141e-14
4.21676e-12
3.83315e-10
2.5246e-08
9.15365e-16
3.07311e-16
1.59509e-15
1.81551e-15
7.5951e-16
3.94114e-16
3.93846e-16
3.05152e-14
1.83751e-14
8.98403e-14
1.92833e-13
3.91856e-13
4.59865e-13
4.5538e-13
2.70831e-13
7.16269e-14
9.5611e-15
2.79373e-15
3.16093e-14
7.57457e-12
1.40724e-09
4.38727e-08
6.70312e-07
6.25333e-16
1.97892e-16
8.80892e-16
6.87115e-16
3.58397e-16
2.48475e-16
1.55309e-16
1.41487e-16
8.07829e-17
6.9521e-15
3.00015e-14
2.18057e-14
9.82692e-15
1.10418e-14
6.16198e-15
1.40473e-15
5.86169e-16
5.32727e-16
3.25276e-11
8.3275e-10
7.57846e-08
8.87354e-07
3.45626e-06
3.91019e-16
1.40725e-16
3.8693e-16
2.96251e-16
1.95106e-16
1.43891e-16
9.86411e-17
6.04159e-17
3.98367e-17
9.1144e-16
1.74346e-15
4.90788e-16
1.01112e-16
4.24585e-17
5.33269e-17
9.30857e-17
1.13807e-16
1.14493e-16
1.7492e-09
2.33923e-08
8.39947e-07
3.63434e-06
5.04826e-06
2.07307e-16
7.27743e-17
1.58074e-16
1.21187e-16
8.71563e-17
6.89258e-17
5.10256e-17
3.52341e-17
2.34485e-17
4.73491e-17
4.36059e-17
1.75995e-17
1.03212e-17
8.65723e-18
2.43176e-17
5.49435e-17
8.1229e-16
2.32104e-11
1.8234e-08
3.06554e-07
2.8149e-06
3.65891e-06
2.75103e-06
9.87997e-17
3.26046e-17
5.98332e-17
4.55927e-17
3.50385e-17
2.92333e-17
2.25039e-17
1.56505e-17
1.01501e-17
9.38678e-18
1.15939e-17
7.54893e-18
5.00637e-18
4.68454e-18
8.02487e-16
5.10107e-13
4.23722e-12
2.94353e-10
1.85245e-08
1.92219e-06
1.11947e-06
1.77042e-07
1.01318e-08
4.32063e-17
1.36903e-17
2.09231e-17
1.59309e-17
1.29755e-17
1.12726e-17
8.83946e-18
6.10806e-18
3.84658e-18
2.81829e-18
3.42134e-18
3.52929e-18
2.35281e-18
2.96563e-17
6.877e-15
1.37998e-11
6.82586e-09
5.4855e-07
6.48784e-06
6.33e-06
1.64022e-06
6.85755e-08
1.52012e-09
1.69387e-17
5.22617e-18
6.80507e-18
5.19985e-18
4.47404e-18
4.00886e-18
3.13439e-18
2.11011e-18
1.25929e-18
8.57583e-19
1.06423e-18
1.63322e-18
1.30826e-18
3.0861e-16
3.15792e-14
2.70221e-11
1.7018e-08
1.53588e-06
1.04098e-05
6.19498e-06
1.15525e-06
4.05484e-08
1.32699e-09
5.95846e-18
1.80069e-18
2.04703e-18
1.58653e-18
1.43102e-18
1.34086e-18
1.04e-18
6.67027e-19
3.88752e-19
2.6323e-19
3.55373e-19
5.45365e-19
7.74439e-18
1.35547e-15
1.27764e-11
4.83958e-10
8.07895e-08
9.41602e-06
1.09543e-05
3.36381e-06
1.76236e-07
1.34321e-09
7.06978e-11
1.89709e-18
5.64505e-19
5.75205e-19
4.56907e-19
4.24718e-19
4.26756e-19
3.32682e-19
1.93752e-19
1.13343e-19
7.68652e-20
1.16196e-19
1.85875e-19
1.70391e-14
7.16781e-14
4.86151e-11
2.46824e-08
3.43978e-07
1.44972e-05
1.06569e-05
2.14064e-06
6.64831e-08
2.69888e-10
1.53916e-12
5.54008e-19
1.5952e-19
1.51228e-19
1.20616e-19
1.17148e-19
1.09519e-19
1.18887e-19
4.88765e-20
3.53198e-20
2.00238e-20
3.04921e-20
7.69183e-20
4.84686e-13
4.77332e-11
2.83698e-09
1.02846e-07
3.37851e-06
1.8442e-05
1.22146e-05
2.78747e-06
8.65878e-08
9.1023e-11
2.88133e-15
0.999193
0.999821
0.999809
0.999806
0.999179
0.999794
0.999806
0.999803
0.991819
0.999755
0.999803
0.9998
0.998053
0.999691
0.998539
0.971207
0.991187
0.952173
0.817839
0.584364
0.743686
0.436313
0.226034
0.197798
0.59497
0.626046
0.739909
0.378273
0.627858
0.780574
0.780574
0.766067
0.26982
0.538713
0.705729
0.593591
0.0624247
0.0981962
0.125844
0.119998
0.034431
0.0205682
0.0147923
0.0147927
0.131339
0.12888
0.0349357
0.0147929
0.0121698
0.020667
0.0418465
0.0591689
0.00181778
0.00364678
0.0050536
0.00596448
5.61809e-05
5.60668e-05
5.93717e-05
7.51329e-05
5.60668e-05
5.61819e-05
5.60765e-05
9.44904e-05
0.000206624
0.000216399
0.000145589
0.000177369
0.000598424
0.000601715
0.000581834
0.000278268
0.00029766
0.00058344
0.000655055
0.000660898
1.15083e-05
2.52706e-05
0.000154022
0.000270378
4.90067e-06
8.78304e-07
3.57526e-06
4.80443e-06
2.33815e-06
2.50189e-07
7.63301e-08
2.57482e-08
1.99068e-08
4.20015e-08
2.67798e-08
4.91677e-09
1.72956e-13
1.31697e-11
1.05284e-10
2.75075e-10
1.72941e-13
1.72949e-13
1.72941e-13
2.38895e-13
1.72956e-13
1.72962e-13
1.90048e-13
1.85578e-13
1.72941e-13
3.00195e-13
3.1479e-13
2.36096e-13
3.59753e-13
3.97286e-13
4.21254e-13
5.15845e-13
4.22166e-13
4.18571e-13
6.03857e-13
2.55495e-11
2.29716e-12
1.16033e-11
2.11712e-10
5.63497e-09
6.20566e-10
3.11253e-09
2.96934e-08
2.10833e-07
5.71305e-08
1.85393e-07
7.91459e-07
2.10134e-06
1.57455e-06
2.83235e-06
5.55581e-06
5.53023e-06
7.96872e-06
7.96872e-06
7.96872e-06
5.08115e-06
4.95967e-06
3.22266e-06
9.90098e-07
1.06316e-06
8.22519e-07
1.30224e-07
1.78142e-07
1.82432e-06
2.04558e-08
5.85536e-08
3.2576e-07
2.21296e-06
7.95922e-08
2.05898e-07
3.77827e-07
1.13203e-06
1.88353e-07
1.8324e-07
6.62859e-08
6.37907e-09
7.3135e-08
2.3972e-08
2.72032e-09
1.36932e-10
5.06201e-14
3.34072e-13
1.18804e-12
5.91555e-11
1.06669e-15
2.09015e-17
1.52012e-17
2.31315e-17
0.991457
0.87632
0.50063
0.391993
0.159826
0.238288
0.454448
0.448912
0.55745
0.767496
0.707271
0.552002
0.861198
0.893429
0.356692
0.0865539
0.0374359
0.0379044
0.0780024
0.96586
0.735786
0.602745
0.34722
0.160599
0.222898
0.195367
0.0663556
0.0602704
0.184626
0.477608
0.569857
0.862062
0.646451
0.233447
0.195338
0.114177
0.0334181
0.0289602
0.856433
0.244159
0.17054
0.172755
0.245926
0.206294
0.0659274
0.0300813
0.0300913
0.067026
0.21058
0.512848
0.718825
0.174393
0.17412
0.22752
0.228097
0.0830311
0.012066
0.671339
0.177119
0.172493
0.253458
0.243894
0.0878962
0.038031
0.0371167
0.0300804
0.0300843
0.0887425
0.363343
0.565514
0.3366
0.265681
0.135877
0.124617
0.046892
0.0120506
0.306329
0.28476
0.226921
0.0918669
0.0125288
0.00807722
0.0538596
0.15799
0.0804088
0.0300736
0.0319566
0.193489
0.590593
0.658232
0.20974
0.0216734
0.0235848
0.033749
0.0120506
0.195469
0.0953039
0.013503
0.00308397
0.00308511
0.0033262
0.0452616
0.259738
0.371732
0.0923394
0.0450881
0.16007
0.512303
0.65392
0.0555619
0.0167205
0.0116086
0.0212737
0.0120506
0.106343
0.0113664
0.00308397
0.00308511
0.00327286
0.00319451
0.0151173
0.146257
0.547615
0.651905
0.467356
0.530955
0.620162
0.448624
0.0354767
0.0115845
0.011498
0.0248869
0.0342403
0.280698
0.0157498
0.00308511
0.0047642
0.0271651
0.00547603
0.00408539
0.025053
0.177094
0.652485
0.693203
0.693192
0.517149
0.0758657
0.0163501
0.011498
0.0312401
0.0998451
0.157977
0.296431
0.0355661
0.00435315
0.0292291
0.0728231
0.0354875
0.00417359
0.0154777
0.0393283
0.171002
0.570034
0.602045
0.128412
0.0150858
0.00539967
0.0130968
0.0420435
0.0754314
0.186722
0.114598
0.0649224
0.0188262
0.0705327
0.0724017
0.0603919
0.00536471
0.0197094
0.0452169
0.0462042
0.0897883
0.172718
0.122224
0.00366776
0.00225357
0.00754682
0.00501739
0.00320082
0.093293
0.0161553
0.027449
0.0368033
0.0700975
0.0498176
0.0300235
0.0101516
0.00773943
0.0172519
0.0405004
0.0639536
0.110933
0.0550029
0.00151466
0.000479477
0.00172326
0.000354203
0.00064178
0.00278003
0.0147934
0.0147931
0.0325221
0.0313608
0.00214894
0.00615013
0.0285893
0.0286824
0.0126804
0.0139782
0.0604793
0.0980146
0.0238281
0.00204183
0.000121841
0.000128856
9.34789e-05
0.000591571
0.000165452
0.0593382
0.041346
0.00729949
0.000930638
5.31137e-05
0.00096529
0.00685792
0.0158166
0.0110689
0.00512076
0.0276555
0.0717329
0.0119171
0.00482999
0.000365824
9.34789e-05
9.34316e-05
0.00058707
6.60306e-05
0.006352
0.00321787
1.87241e-05
5.04455e-06
3.77816e-06
1.65836e-05
5.77369e-05
0.000251556
0.000883492
0.00386289
0.00851515
0.038563
0.0196635
0.00340169
0.000436614
9.34316e-05
0.00020286
0.000429049
5.33111e-05
8.31813e-05
8.49957e-05
9.80246e-06
4.36874e-06
2.43509e-06
2.41005e-06
3.84273e-06
3.70379e-05
0.000371436
0.00187389
0.00657422
0.0188598
0.018973
0.000912004
0.000306158
0.000223192
0.000446582
0.000240884
2.55917e-05
0.000264295
0.00036263
0.000275338
8.3739e-05
1.37872e-05
5.70669e-06
3.85231e-06
2.45715e-05
0.000378191
0.00217398
0.00556883
0.00712785
0.00723239
0.00128918
0.000255737
0.000232001
0.000277482
0.000111647
1.12676e-05
0.000574415
0.000840817
0.000853673
0.000499104
0.000288309
0.000107159
2.32033e-05
2.17266e-05
0.000107018
0.000552312
0.00186793
0.00429164
0.00543249
0.00470816
0.0016704
0.000440362
4.9543e-05
1.21247e-05
4.65109e-06
0.000295321
0.000387231
0.000811322
0.00105619
0.0010732
0.000671945
0.00033148
0.000165238
0.000101568
0.000606627
0.00257372
0.00446985
0.00543094
0.00543049
0.0043229
0.00214544
0.00028122
8.04874e-06
3.9295e-06
0.000451504
0.000109526
7.84183e-05
0.000366806
0.000886824
0.00120757
0.00120892
0.00103769
0.000549709
0.000437141
0.00101549
0.000989444
0.00403921
0.00513695
0.00525526
0.00333564
0.000453863
8.74663e-06
3.9295e-06
0.000337293
0.000254589
2.74521e-05
7.53321e-06
3.03999e-05
0.00036588
0.00113197
0.00138974
0.00120208
0.000601184
0.000320625
0.00028315
0.00062266
0.000913509
0.00206681
0.00134898
0.000348331
6.57153e-06
3.9295e-06
2.81984e-05
0.000132136
4.70913e-05
5.603e-06
5.49235e-07
9.2036e-07
1.83894e-05
0.000963301
0.000330559
0.000535308
0.000236902
0.000128585
7.13357e-05
4.26326e-05
9.90478e-05
0.000219586
2.47246e-05
6.48634e-06
6.81665e-06
4.04576e-07
8.43007e-06
7.33879e-06
5.83233e-06
4.92483e-07
3.77792e-08
9.91436e-08
6.64263e-05
1.38613e-05
3.95913e-05
4.19488e-05
3.64551e-05
1.51345e-05
5.2918e-06
2.52488e-05
0.000102765
6.55148e-05
0.000114534
8.97518e-05
4.05322e-08
4.24897e-07
1.44781e-07
7.34387e-08
5.39328e-08
1.93438e-08
2.94489e-08
2.3848e-07
1.31831e-07
5.84158e-07
2.0996e-06
2.92146e-06
4.49303e-06
2.25441e-06
4.91749e-06
2.67151e-05
0.000136163
0.000378903
0.000320346
1.69958e-09
3.0985e-08
1.43221e-08
3.61363e-09
1.1796e-09
4.00159e-09
8.76504e-09
4.0061e-09
2.39186e-09
4.98941e-09
1.53315e-08
1.06042e-07
2.08958e-06
1.3804e-06
1.31381e-06
8.16413e-06
9.43349e-05
0.000414287
0.000414287
2.50386e-10
1.91433e-10
1.41027e-10
1.39738e-10
2.3351e-10
3.49337e-10
8.91738e-10
5.32528e-10
8.9162e-10
8.27378e-10
1.75203e-09
4.42744e-08
1.41302e-06
1.03184e-06
1.00802e-06
1.33304e-06
7.59387e-06
0.000159606
0.000162697
4.58696e-13
9.53976e-13
3.67705e-12
3.43729e-11
2.19421e-10
2.23436e-10
2.97365e-10
2.21036e-10
4.42811e-10
3.6206e-10
9.19832e-10
4.87041e-08
7.20722e-07
7.65493e-07
1.00473e-06
1.56883e-06
3.18837e-06
1.35281e-05
7.58868e-06
1.42342e-11
4.22822e-11
3.14859e-11
5.81955e-11
8.32552e-10
1.63506e-09
7.73878e-10
1.92244e-10
1.6796e-10
1.68813e-10
1.38352e-09
6.69387e-08
3.6292e-07
1.42311e-06
3.29044e-06
3.12353e-05
2.96699e-05
6.65021e-06
1.03891e-06
1.23799e-09
5.24053e-09
3.18626e-09
1.01457e-09
2.29281e-09
6.31036e-09
6.87404e-09
3.61475e-09
2.12069e-09
5.79261e-10
1.92819e-09
4.3018e-08
2.02857e-07
3.74272e-06
2.2061e-05
0.0002569
0.000175781
2.45243e-05
9.61553e-07
2.84638e-08
1.04714e-07
7.32158e-08
2.33121e-08
1.25904e-08
1.81093e-08
3.4342e-08
4.30594e-08
5.33955e-08
2.09898e-08
5.79037e-09
1.44021e-08
9.99683e-08
6.26223e-06
0.000111609
0.000700373
0.000433331
4.69514e-05
1.12094e-06
2.63564e-07
5.94472e-07
6.32766e-07
6.11065e-07
6.54454e-07
4.30052e-07
2.8269e-07
3.5646e-07
3.62476e-07
1.25225e-07
1.97782e-08
4.93779e-08
1.33983e-07
1.01651e-05
0.000369587
0.000802949
0.000552823
5.58651e-05
1.16313e-06
1.12823e-06
1.63065e-06
2.51305e-06
5.09794e-06
1.33286e-05
1.46249e-05
6.23416e-06
2.11892e-06
8.97161e-07
2.31047e-07
1.57656e-08
5.03359e-09
3.24271e-08
1.62976e-05
0.000664206
0.000806678
0.000358458
3.45573e-05
1.05288e-06
2.75565e-06
4.10857e-06
5.0879e-06
1.43305e-05
6.69113e-05
9.50303e-05
4.194e-05
6.93913e-06
8.095e-07
1.45087e-07
1.47868e-08
3.06548e-09
7.20804e-08
5.213e-05
0.000910389
0.000661128
0.000125809
3.58027e-06
6.5523e-07
4.36494e-06
5.69636e-06
5.62562e-06
2.11504e-05
0.00014083
0.000148702
9.5892e-05
1.59774e-05
5.19372e-07
2.26817e-08
3.06548e-09
3.06957e-09
1.55326e-07
7.86297e-05
0.000908364
0.00041884
4.66072e-05
4.48264e-07
2.80547e-07
4.30635e-06
2.90451e-06
5.0258e-06
2.31583e-05
0.000113567
0.00014866
0.00012091
2.94429e-05
1.20648e-06
1.06189e-08
4.81322e-09
3.12379e-08
4.73951e-06
0.000520444
0.00078106
0.000278262
1.83266e-05
1.43102e-07
1.64395e-07
4.52985e-06
1.85077e-06
8.4841e-07
1.37832e-06
1.71639e-05
0.000148702
0.000119654
2.87537e-05
8.098e-07
9.02318e-09
7.05446e-09
1.11327e-07
3.05292e-05
0.00109535
0.000656547
0.000142349
4.47886e-06
2.02115e-08
6.91538e-08
4.60779e-06
1.08441e-06
7.27798e-08
4.73475e-07
2.95553e-06
9.18106e-05
0.00013343
6.27616e-05
6.83972e-06
1.56161e-07
1.02834e-08
3.96999e-07
0.000349851
0.00118824
0.000639601
6.9923e-05
6.53878e-07
3.34724e-09
3.73951e-08
2.62257e-06
4.06068e-07
3.63523e-08
6.64688e-07
2.51522e-06
4.00097e-05
0.000114567
6.88664e-05
1.16111e-05
1.85897e-07
1.67364e-07
1.62591e-05
0.000688983
0.00118906
0.000650026
7.7545e-05
8.17138e-07
3.38553e-09
1.76361e-08
2.77182e-07
2.77273e-09
3.41666e-08
2.02125e-07
6.24711e-07
6.34753e-06
2.11571e-05
1.83643e-05
5.46794e-06
2.35468e-07
1.51016e-07
1.08671e-05
0.000261829
0.000740768
0.000380991
4.2714e-05
5.10148e-07
7.9249e-10
1.40704e-08
1.02565e-09
1.85797e-11
5.64329e-09
1.49341e-08
2.25517e-08
4.48057e-07
7.57034e-06
1.3948e-05
3.49185e-06
1.44733e-07
1.0034e-07
3.13833e-06
4.43517e-05
0.000448824
0.00032293
3.73072e-05
2.24177e-07
5.93922e-11
3.82386e-10
6.04079e-12
1.71008e-12
3.86197e-10
9.72238e-10
2.54457e-10
7.14735e-08
1.53199e-06
6.3809e-06
5.07461e-06
9.0596e-07
1.00082e-07
6.50117e-07
5.17721e-05
0.000334207
0.000198052
1.87839e-05
9.88226e-08
1.8046e-11
1.00611e-11
1.08473e-12
2.92446e-14
9.97618e-12
3.59441e-11
1.31532e-11
2.14972e-09
3.86235e-08
7.16377e-07
2.95459e-06
1.73185e-06
3.15325e-07
1.1585e-06
6.32616e-05
0.000202534
4.50463e-05
8.5472e-07
9.62048e-10
4.38248e-13
7.36662e-14
3.01823e-17
2.55542e-16
9.21735e-16
3.77029e-15
5.34931e-15
7.47814e-13
2.26996e-11
1.84969e-09
9.71406e-08
4.34678e-07
5.62267e-07
2.78951e-06
0.000175762
8.44517e-05
3.08141e-06
4.73201e-09
1.99085e-13
4.81494e-20
1.38992e-16
)
;

boundaryField
{
    leftWall
    {
        type            zeroGradient;
    }
    rightWall
    {
        type            zeroGradient;
    }
    lowerWall
    {
        type            zeroGradient;
    }
    atmosphere
    {
        type            inletOutlet;
        inletValue      uniform 0;
        value           nonuniform List<scalar> 
46
(
5.54008e-19
1.5952e-19
1.51228e-19
1.20616e-19
1.17148e-19
1.09519e-19
1.18887e-19
4.88765e-20
3.53198e-20
2.00238e-20
3.04921e-20
7.69183e-20
4.84686e-13
4.77332e-11
2.83698e-09
1.02846e-07
3.37851e-06
1.8442e-05
1.22146e-05
0
0
0
0
0
0
0
0
0
0
0
0
0
0
0
0
0
0
0
2.78951e-06
0.000175762
8.44517e-05
3.08141e-06
4.73201e-09
1.99085e-13
4.81494e-20
1.38992e-16
)
;
    }
    defaultFaces
    {
        type            empty;
    }
}


// ************************************************************************* //
