/*--------------------------------*- C++ -*----------------------------------*\
| =========                 |                                                 |
| \\      /  F ield         | foam-extend: Open Source CFD                    |
|  \\    /   O peration     | Version:     4.1                                |
|   \\  /    A nd           | Web:         http://www.foam-extend.org         |
|    \\/     M anipulation  |                                                 |
\*---------------------------------------------------------------------------*/
FoamFile
{
    version     2.0;
    format      ascii;
    class       volScalarField;
    location    "0.75";
    object      pd;
}
// * * * * * * * * * * * * * * * * * * * * * * * * * * * * * * * * * * * * * //

dimensions      [1 -1 -2 0 0 0 0];

internalField   nonuniform List<scalar> 
2268
(
847.276
841.621
826.698
804.491
793.79
770.354
769.687
768.231
775.978
785.201
783.813
787.31
787.332
786.974
789.057
792.831
788.85
790.035
787.201
786.777
785.949
786.002
787.045
847.527
843.295
822.431
802.88
794.006
768.306
770.715
768.126
776.814
788.074
780.795
789.039
787.948
790.726
788.646
791.963
789.892
789.933
787.164
786.645
785.511
785.938
787.047
849.614
844.611
825.887
804.281
797.083
763.23
766.921
763.422
780.535
776.142
782.836
790.389
781.08
795.389
786.129
795.184
788.575
790.269
786.927
786.47
785.597
785.773
787.432
847.613
845.685
816.726
801.021
787.652
761.87
763.177
775.535
764.036
789.842
783.193
789.288
787.157
791.613
789.646
792.567
788.98
790.031
787.468
785.769
784.515
785.432
787.461
852.105
846.505
824.236
801.12
791.063
759.257
765.006
766.297
766.915
789.231
782.535
790.51
784.729
791.407
788.544
791.784
791.404
793.188
785.927
785.684
783.723
785.222
788.278
847.474
849.32
812.26
795.46
775.664
748.651
759.257
762.73
774.442
781.08
783.147
789.401
787.937
791.903
794.758
789.793
785.341
788.555
786.619
786.12
779.111
783.629
788.273
863.47
844.58
811.514
781.347
781.149
734.503
762.738
757.455
773.121
780.036
782.018
789.161
787.682
793.005
786.78
784.244
786.848
789.21
789.585
786.296
779.603
784.034
791.211
844.681
853.362
803.498
775.055
777.854
730.224
744.381
771.725
769.611
773.482
781
790.76
788.808
793.957
801.465
771.658
806.692
783.854
792.719
778.525
773.782
777.505
787.119
1253.8
1019.82
820.23
668.73
542.27
501.505
545.701
579.523
600.914
621.236
699.529
738.741
704.963
691.019
587.356
489.284
454.702
438.019
472.527
1185.63
987.86
778.554
661.795
543.276
462.966
502.327
542.273
555.69
572.072
701.571
761.3
690.894
697.354
584.556
480.713
431.9
412.806
472.051
1046.15
985.027
705.54
636.447
536.112
450.481
472.662
518.89
516.622
524.532
633.269
732.318
705.775
664.973
558.161
425.217
361.385
353.989
454.482
1017.68
870.755
717.13
572.096
516.23
491.399
564.971
551.19
522.116
523.127
621.582
741.168
691.081
670.025
548.857
373.015
343.284
323.454
429.643
960.177
823.716
654.934
591.235
550.654
590.15
644.6
688.038
639.737
646.071
749.431
707.627
706.651
686.254
538.958
371.908
363.244
344.054
396.673
919.271
780.285
655.212
502.772
431.893
552.672
686.962
643.315
683.359
701.978
773.713
737.509
710.147
682.893
550.699
371.717
356.377
266.183
320.716
878.013
740.2
531.383
323.396
307.714
503.069
618.724
658.26
597.362
720.091
733.446
729.524
704.615
671.456
557.194
369.115
319.224
252.252
254.691
824.015
728.386
356.379
317.863
300.538
388.838
556.837
618.274
651.073
678.446
712.092
637.458
682.788
665.537
490.677
310.644
254.945
250.344
249.488
865.913
858.687
792.731
723.045
763.221
733.994
736.088
753.423
755.428
772.174
778.743
788.602
790.461
790.873
797.1
746.31
797.054
781.237
790.163
757.359
753.531
762.174
777.482
603.061
593.035
594.605
618.419
558.435
570.903
533.516
603.677
648.923
673.515
688.158
704.258
714.218
718.251
652.218
624.794
727.253
660.474
640.507
520.81
518.224
602.062
769.892
325.64
193.66
104.424
75.3132
63.123
83.3083
89.8757
142.358
146.451
189.51
226.293
266.167
278.544
277.731
206.048
200.36
250.793
217.015
213.071
195.604
199.865
308.835
720.766
82.345
34.574
17.3862
16.3186
15.9809
17.6556
20.9527
31.1432
42.7878
47.2631
66.382
78.1016
83.4239
77.6257
73.2939
72.9015
72.7764
84.376
202.478
537.729
626.901
496.677
847.531
31.6207
16.5075
14.0702
14.4702
14.7958
14.7233
15.6743
20.6909
27.6631
41.9809
66.8244
77.7242
77.604
74.5088
70.5474
68.8627
68.0192
102.937
451.052
971.8
918.357
883.383
827.22
20.056
13.2482
12.6558
12.6807
12.9102
11.8314
12.8805
23.7463
65.7094
130.491
173.951
169.92
135.129
102.161
75.9413
68.1138
66.0411
69.9831
189.451
862.734
1108.21
1148.28
964.308
15.4521
10.9599
11.1161
11.3855
9.89295
8.92789
11.8523
51.1783
176.315
207.687
226.296
244.519
251.135
182.909
91.4851
69.7138
67.2174
64.6417
131.402
632.282
1111.18
1264.61
871.904
12.4759
10.0475
8.92667
9.0605
8.04943
5.22869
5.86729
53.4453
146.277
199.669
233.384
163.037
149.9
158.721
113.706
111.507
115.821
76.1987
129.41
512.637
1114.68
1393.58
1085.41
10.0934
8.86124
8.42545
7.91985
6.18943
3.95583
1.31719
6.38865
31.2537
48.1821
26.7648
5.53276
5.44181
12.6294
75.7062
174.154
177.477
132.862
73.735
199.614
448.397
663.236
485.313
8.09899
7.25983
6.95074
6.70422
5.27454
1.1255
0.438737
2.51124
5.81143
1.07761
-1.48372
-1.43948
0.0938667
2.67242
20.5008
83.7169
165.223
126.544
27.2399
28.9909
77.6863
115.039
95.114
6.58046
6.02184
5.47369
5.87447
4.60985
2.38776
-0.0415903
0.320784
-1.93957
-2.76485
-1.71074
-0.793135
-0.226309
2.66144
11.0395
15.0391
17.4204
25.7368
10.1582
10.2584
41.5804
92.9577
131.306
5.35819
4.92136
4.07622
3.47635
2.99421
1.58116
-0.646703
-1.53973
-4.50723
-3.29165
-2.12192
-1.28551
0.257176
6.04758
11.7624
5.81564
2.20183
2.84799
2.78056
2.09199
3.41871
24.1457
149.439
4.50026
4.26449
3.67583
3.04533
2.50649
1.13414
-0.36638
-2.73381
-4.19993
-3.45672
-1.89435
-1.07429
1.02449
6.9797
13.4785
2.40342
1.5917
2.5597
2.07281
1.12138
1.17233
1.16661
4.79857
3.90261
3.95875
4.20366
2.92771
3.24584
2.12081
0.852371
-1.84963
-2.74609
-2.99186
-1.36543
-0.378527
0.514506
2.81813
3.84727
1.73075
1.85349
5.44065
6.5962
2.56729
0.579064
-0.550362
-2.05181
3.9288
3.76532
4.25895
3.0073
4.22526
3.35181
1.55746
0.29314
-1.44428
-1.73481
-0.599173
-0.352643
0.307533
1.49177
1.99182
2.56973
5.53127
6.85149
7.35863
6.39744
-0.0447731
-1.66602
-2.01042
4.02741
3.66314
4.82183
4.66854
5.0136
4.4307
3.27373
2.46505
0.883142
-0.648906
-1.61053
-0.849588
-0.288976
0.758823
1.08972
1.81884
3.35752
5.21315
8.22772
4.75788
3.24556
-0.958616
-1.85749
3.51161
3.76337
3.34585
4.3776
5.69203
5.58578
4.98663
3.50674
2.44009
6.24591
6.86108
1.88798
-1.76572
0.822663
1.27562
1.85658
3.17955
1.83446
0.677218
0.990149
-0.357753
-1.82389
-1.81162
3.4565
3.55965
2.61876
3.73957
5.4712
6.89589
10.2706
7.94599
20.9423
40.3437
34.6326
8.17474
-1.65955
1.6614
1.14095
0.884476
0.0711623
-1.37154
-1.9868
-3.25175
-2.87262
-2.32956
-1.68465
2.89636
3.11628
3.48027
4.08822
6.02129
22.5531
82.5983
82.0906
65.7552
10.7841
5.83857
4.06504
-0.904598
0.108787
0.799849
0.938726
-0.98363
-2.5069
-0.531762
-1.95871
-2.93115
-2.85277
-2.94999
1.54481
2.19194
2.6835
2.67588
9.6297
56.4151
80.9483
61.0445
2.75842
-1.51701
-0.470002
0.96137
-3.05729
-4.24959
-2.18404
-1.78169
-2.26619
-2.30739
-1.30708
-1.55663
-2.52587
-3.46883
-3.57191
1.1081
1.01798
0.664419
-0.465767
1.70362
25.36
81.1522
75.5893
21.8866
-2.37994
-3.17531
-2.76519
-2.8518
-4.512
-4.487
-4.88791
-5.01674
-3.80955
-2.87944
-3.52724
-3.87434
-2.95532
-2.43275
0.962124
0.473468
-0.164603
-1.06225
-1.06871
21.2631
51.1785
14.9376
-2.33959
-3.31615
-3.53175
-3.95516
-2.48427
-2.65922
-3.77192
-3.90348
-5.02661
-4.89858
-5.26785
-4.51852
-3.86033
-3.07597
-2.36007
0.290606
-0.134759
-0.549156
-1.53878
-3.47564
3.50267
18.3156
25.1999
1.36123
-1.97774
-4.2069
-3.63417
-3.1651
-2.68328
-3.53518
-3.3675
-4.06777
-4.8739
-4.71402
-4.55892
-4.84475
-3.30849
-2.3785
0.379565
-0.441635
-0.962365
-2.02059
-4.18941
-3.81915
0.810053
5.52304
6.51936
2.31672
-0.163053
-1.53135
-2.56683
-3.06269
-3.55689
-3.70905
-4.2126
-4.60183
-3.81671
-3.51254
-4.71659
-4.34769
-3.43546
0.23443
-0.337627
-1.09244
-2.27886
-3.1974
-4.09086
-5.1692
-4.62297
-1.75977
-1.72715
-2.24406
0.250981
1.31082
-1.51396
-3.16762
-3.77998
-3.96983
-2.72333
-3.17706
-4.41119
-3.78348
-3.53487
-2.59634
0.075766
-0.425155
-0.841568
-0.984806
-1.76795
-3.46363
-4.45193
-4.37231
-4.73518
-4.69865
-3.79957
-3.16082
-0.769614
0.0877817
-1.01914
-0.609075
-1.76593
-2.24437
-3.81918
-3.52655
-3.83509
-3.09296
-2.42678
-1.96619
-1.04658
-0.863822
-1.55067
-2.27193
-3.18692
-3.42791
-3.82576
-4.77705
-3.68216
-3.01627
-3.03615
-2.47967
-1.63395
-1.68923
-1.41707
-1.36408
-2.12358
-3.43643
-3.52276
-3.37374
-2.82095
-2.30049
-2.74289
-0.480336
-1.24621
-0.927065
-3.06366
-2.29623
-2.91373
-3.03861
-3.0733
-2.54358
-2.55086
-2.79537
-2.44866
-2.90537
-2.03941
-2.68537
-2.69655
-2.68291
-2.54403
-2.49439
-2.81035
-2.28111
-2.45558
-0.497874
-1.25504
-1.64923
-1.77872
-2.16631
-1.65807
-1.9303
-1.75411
-2.42825
-2.17123
-2.14706
-2.82828
-3.06924
-2.34678
-1.8229
-2.44884
-2.48369
-2.307
-2.32104
-2.15539
-2.26628
-1.69495
-1.87889
-0.318439
-0.922311
-0.998333
-0.943784
-1.11156
-1.18045
-1.24797
-2.08764
-2.19614
-1.92997
-1.65001
-2.65229
-1.9519
-1.22528
-1.73858
-1.73922
-1.6742
-1.80088
-1.75711
-1.3057
-1.23572
-1.29396
-1.18521
-0.373048
-0.762742
-0.0465694
-1.04148
-0.880853
-1.32656
-1.59604
-1.70997
-1.5118
-1.45222
-1.41618
-1.54972
-1.01716
-1.15834
-1.27438
-1.09289
-1.27654
-1.2373
-0.84825
-0.903525
-0.842552
-0.727822
-0.989573
-0.417157
-0.755187
-0.855263
-1.17938
-1.33006
-1.01131
-1.05389
-0.967308
-0.939038
-0.982265
-0.803153
-1.28493
-0.707881
-1.03573
-0.945067
-0.602824
-1.60889
-1.66751
-0.411332
-0.530561
-0.379387
-0.667495
-0.463805
-0.367571
-0.678405
-0.736956
-0.765386
-0.553823
-0.586862
-0.679197
-0.683528
-0.776698
-0.901085
-0.918495
-0.892388
-0.769527
-0.769165
-0.717186
-0.596993
-0.877191
-0.726944
-0.396929
-0.380206
-0.377902
-0.40899
-0.430119
-0.305977
-0.53335
-0.463511
-0.546775
-0.580564
-0.5985
-0.613299
-0.608369
-0.605582
-0.698574
-0.644357
-0.469284
-0.468634
-0.347453
-0.613869
-0.318011
-0.853693
-0.713037
-0.69464
-0.246446
-0.233621
-0.229494
-0.114009
0.0826538
-0.448576
-0.406763
-0.450613
-0.420527
-0.429666
-0.375198
-0.378724
-0.206161
-0.558727
-0.442412
-0.404348
-0.469103
-0.461521
-0.485006
-0.381163
-0.530731
-0.398732
-0.293879
-0.203354
-0.170013
-0.309576
-0.0776415
-0.706647
-0.610808
-0.387993
-0.423438
-0.386044
-0.402353
-0.409846
-0.429034
-0.487491
-0.485396
-0.389254
-0.427224
-0.341479
-0.303916
-0.303105
-0.3356
-0.119396
-0.335948
-0.272779
-0.32924
-0.148205
-0.366309
-0.43032
-0.480392
-0.351297
-0.289358
-0.318821
-0.299734
-0.305571
-0.28697
-0.265805
-0.238453
-0.140312
-0.362579
-0.450197
-0.117865
-0.211696
-0.272748
-0.168109
-0.295677
-0.156483
-0.133966
-0.0747001
-0.0953662
-0.0432578
-0.279964
-0.339395
-0.253231
-0.274749
-0.266397
-0.260161
-0.270071
-0.253641
-0.271297
-0.267777
-0.325399
-0.281839
-0.107587
-0.0988491
-0.141772
-0.200233
-0.165472
-0.113972
-0.122584
-0.0458203
-0.0899618
-0.0652396
-0.0853758
-0.302427
-0.234715
-0.209481
-0.216507
-0.20632
-0.205322
-0.217143
-0.21217
-0.201497
-0.162601
-0.130169
-0.0463528
-0.143595
-0.0411983
-0.194467
-0.285563
-0.0473052
-0.0877037
-0.0746565
-0.0963011
-0.039378
-0.106483
-0.0424278
-0.115704
-0.202327
-0.193484
-0.193997
-0.190954
-0.177105
-0.18549
-0.14954
-0.153025
-0.138171
-0.124135
-0.152891
-0.084326
-0.0835902
0.00730549
-0.0461189
-0.0473765
-0.0330342
-0.0493025
-0.0497532
-0.0837952
-0.016806
-0.174321
-0.0608985
-0.107965
-0.0954305
-0.0898201
-0.10178
-0.0591238
-0.240503
-0.27638
-0.179536
-0.26866
-0.157229
-0.157184
-0.224938
-0.136582
-0.142654
-0.167402
-0.101337
-0.0128319
0.111005
-0.104106
-0.0473769
-0.131597
-0.0721044
-0.248442
-0.312108
-0.295181
-0.268239
-0.242723
-0.171238
-0.115559
0.20858
0.0251265
0.201791
0.0263047
0.0435519
0.145697
0.0289366
0.110344
0.0350194
0.00154013
0.0926647
0.0811178
-0.0793153
0.0605211
-0.084231
-0.0984585
-0.339401
760.408
748.845
702.712
716.877
805.788
831.897
801.047
839.822
977.29
1008.1
1007.29
918.683
858.701
955.471
1007.29
1035.54
1012.36
839.892
883.204
659.331
852.827
488.887
250.73
229.937
880.164
803.352
911.602
540.124
962.062
1188.87
1156.06
1122.72
431.23
833.658
1095.48
920.809
100.05
159.158
208.454
199.458
54.7718
30.7079
20.7875
22.7451
253.821
248.496
68.9487
31.6374
22.2973
39.5339
83.4931
122.77
0.399415
4.62454
8.49856
11.2548
-1.9221
-1.59175
-1.11487
-0.529307
-1.57705
-1.27899
-0.689117
-0.515722
-1.05582
-0.976005
-0.683244
-0.484742
-0.573816
0.169698
0.272274
0.188012
-2.04713
-0.500455
0.46924
0.985346
-3.08196
-2.45443
-1.68485
-0.952867
-2.07922
-2.10573
-2.07744
-2.02738
-2.10278
-1.83922
-1.45468
-1.32199
-2.16776
-2.11884
-2.11621
-1.77435
-2.5775
-2.04873
-1.73988
-1.93542
-1.95005
-1.66284
-1.51031
-1.24201
-2.16056
-1.61279
-1.36844
-1.15406
-1.85202
-1.64567
-1.24897
-1.06943
-2.337
-2.3692
-1.88324
-1.29668
-1.97621
-2.10643
-1.95557
-1.47135
-1.60319
-1.46123
-1.64735
-1.42793
-1.12288
-0.935739
-0.67153
-0.717647
-0.893915
-0.730238
-0.624233
-0.615878
-0.654084
-0.690935
-0.814035
-0.645769
-0.135928
-0.309539
-0.17751
-0.349343
-0.231395
-0.331792
-0.386804
-0.513148
-0.14502
-0.12012
-0.114678
-0.108472
-0.306293
-0.136948
-0.21728
-0.0921763
-0.329011
-0.517995
-0.478185
-0.48764
-0.288032
-0.166734
-0.177666
-0.255883
-0.0208551
-0.000497412
-0.0773303
-0.262299
-0.454616
-0.478345
-0.47455
-0.367949
-0.201386
-0.249211
-0.304528
-0.45501
667.942
784.643
521.529
415.819
289.528
345.586
453.884
387.385
433.771
555.143
595.89
567.612
688.298
705.433
431.712
287.854
256.839
249.971
262.41
807.537
712.717
574.436
355.048
259.21
287.923
203.503
122.103
76.1944
166.078
404.437
548.059
728.094
628.98
333.776
354.621
292.977
236.352
221.99
886.81
403.734
270.912
238.406
290.731
250.918
124.493
83.1714
66.9488
90.4233
234.52
505.834
733.306
293.848
279.448
345.147
345.983
254.093
200.859
789.634
299.385
297.087
296.987
269.691
128.955
100.967
78.1014
69.2713
73.8978
135.217
409.405
594.407
453.145
378.613
244.95
229.032
189.748
193.747
380.834
378.352
280.191
125.612
43.5623
42.2057
85.5432
194.229
144.501
90.236
90.2303
259.922
697.309
804.71
348.197
127.141
139.151
185.456
197.428
245.836
137.548
40.9951
27.8785
30.6823
32.1968
79.0689
315.488
475.646
156.289
104.894
222.545
675.593
866.486
155.87
114.823
123.126
191.075
213.566
155.898
37.8017
25.8055
26.5206
30.7398
30.3818
41.2258
219.161
736.846
851.174
624.593
744.32
877.438
651.735
104.792
83.8167
119.897
170.648
245.843
421.399
42.8238
24.2876
27.1798
61.8329
31.0924
24.898
54.4335
280.86
960.189
1007.92
1018.26
795.455
152.459
57.3593
53.6976
86.0333
224.335
396.583
478.394
71.1881
24.5203
65.6951
129.285
72.4549
21.0262
37.9486
68.614
297.665
914.504
956.891
229.287
36.8644
23.1492
33.8791
62.4677
110.826
374.493
195.482
121.486
46.7313
131.948
128.451
102.864
19.1199
40.0242
85.7967
88.2996
163.647
305.6
213.21
13.7284
8.8113
7.58195
-0.691759
-1.44449
162.699
32.2073
56.3291
74.7699
133.022
93.5451
57.991
24.7078
19.7094
37.2513
80.2039
121.553
210.306
103.016
7.57472
4.50386
-0.178139
-4.95994
-2.46086
6.63927
30.8048
36.4228
69.6036
63.207
6.15681
14.0801
59.5485
59.0623
29.5218
29.2762
123.209
195.884
51.1828
8.67381
2.66329
0.634464
-0.464244
1.24519
2.86221
118.98
88.3577
17.7685
4.42105
2.02307
3.72982
15.3555
33.1576
23.6734
10.9927
57.0184
149.17
28.7714
15.2206
4.86875
2.7938
2.08444
3.66711
2.72364
12.3732
8.34883
1.92883
1.19005
1.47059
1.27103
1.16207
1.40585
2.26092
8.53029
18.5089
86.4821
47.0809
11.8912
5.59334
4.06745
3.26027
3.64204
3.10268
-0.500985
0.889833
1.21929
1.12284
1.04826
1.42402
0.918578
0.630194
0.996129
3.85369
13.4002
44.0199
48.2271
7.77324
5.64891
4.11014
4.48953
4.07803
3.29765
0.2575
1.82047
1.08489
0.898908
1.02217
1.13752
1.11667
0.955659
1.48748
5.82023
14.2366
22.5156
25.3184
9.47755
6.0406
4.18651
4.18367
4.11594
3.25826
0.939223
2.83405
1.98421
1.69143
2.04921
1.53909
1.26456
1.0282
1.27137
2.54392
5.00768
15.3863
18.8775
17.0081
8.86247
4.86616
3.00712
3.5678
3.45157
1.09505
1.4251
2.34731
3.4443
3.92195
2.76018
1.97314
1.41521
1.27942
2.66801
7.40503
13.13
14.9229
16.949
15.1181
8.81085
3.46845
3.18968
3.11183
1.0052
0.410382
0.296315
1.46053
3.2237
4.15316
4.40281
3.86234
2.45309
1.49085
3.59322
3.22096
13.7199
15.6974
15.8813
11.1596
3.40234
2.42457
2.64076
0.504378
0.713288
-0.355501
0.0839169
0.669524
1.59868
4.0493
5.27227
4.26018
2.21897
1.40044
1.48023
2.98958
3.86968
7.65411
5.21698
2.70913
2.39058
2.3705
-1.86859
-0.941455
0.211326
-0.0299302
0.369866
0.626099
0.674898
3.11613
1.74377
2.67874
1.76583
1.31062
1.41278
1.33825
1.52829
1.90912
1.51539
1.99982
2.12279
-1.56998
-1.1956
-0.491132
0.137426
0.100677
0.192826
0.511152
0.740584
0.651189
0.880294
1.07605
1.18584
1.10846
1.22441
1.41274
1.8934
1.76561
2.22276
2.17293
-0.872144
-1.01394
-0.844232
-0.425191
0.102334
0.124951
-0.0282611
0.593969
0.546023
0.504806
0.72326
1.0866
1.08068
1.25619
1.14664
1.53341
1.7848
2.8358
2.7419
-1.74702
-0.352832
-0.4338
-0.372162
-0.213266
0.0110243
0.163057
0.133296
0.607196
0.890889
0.810519
1.06766
1.07753
1.27987
1.10587
1.23829
1.53504
2.74511
2.8277
-1.37319
-0.682732
-0.419791
-0.262303
0.250782
0.284726
0.329284
0.152353
0.525953
0.661008
0.691588
1.03023
0.958411
1.07478
1.00828
1.07987
1.22188
1.77293
1.8475
-1.06623
-1.44298
-0.886275
-0.421115
-0.111982
0.178049
0.368553
0.0843993
0.475122
0.55656
0.554591
0.963853
0.906213
0.979564
1.02957
1.1594
1.13487
1.1899
1.18712
-0.763105
-0.983926
-0.335924
-0.239116
0.263944
0.290803
0.526591
0.246289
0.543252
0.7406
0.499423
0.822818
0.859182
0.894704
0.943066
1.13464
1.16891
1.08206
1.10131
-0.658044
-0.308057
-0.708675
-0.847851
-0.427523
0.172355
0.235697
0.194847
0.259709
0.713702
0.668228
0.685743
0.750612
0.778788
0.93233
1.91736
1.68602
1.0628
1.02561
-1.43277
-0.693768
-1.04171
-0.624992
-0.591039
-0.0261042
0.367289
0.216205
0.199937
0.503248
0.506224
0.649081
0.694895
0.743844
1.19648
3.70323
2.68027
1.07937
0.963794
-1.17803
-1.3549
-0.637426
-0.0905616
-0.223713
-0.546329
0.341201
0.452428
0.27265
0.220014
0.457204
0.486198
0.630299
0.677382
2.13353
4.17564
3.16232
1.00559
0.873211
-0.971925
-0.77251
-0.832382
-0.506465
-0.343565
-0.422929
-0.249793
0.254397
0.252508
0.448368
0.188571
0.414387
0.625431
0.775969
3.32044
4.25413
2.273
0.900542
0.796594
-0.639041
-0.342709
-0.747249
-0.231505
0.00394878
0.154242
-0.178899
-0.095438
-0.0915922
-0.0279887
0.173706
0.361701
0.493103
0.561564
4.35862
3.6357
1.1366
0.704584
0.694581
-0.783162
-0.411557
-0.353011
-0.441266
-0.361138
0.171618
-0.137575
-0.302097
-0.13688
-0.229718
-0.0587224
0.323055
0.40963
0.80459
4.55004
2.42864
0.831456
0.626332
0.642719
-0.181811
-0.493299
-0.879177
-0.537982
0.131202
-0.00190551
0.01756
-0.586362
-0.418016
-0.274434
0.055083
0.0575248
0.148047
2.87018
3.99682
1.78943
0.530347
0.535753
0.547863
-0.247769
-0.554003
-0.976866
-1.27521
-0.633653
-0.354233
-0.286749
-0.668913
-0.571681
-0.29886
-0.0989035
0.0847695
0.37028
5.51801
3.53862
1.05488
0.453702
0.459632
0.47386
-0.0745828
-0.256718
-0.0989609
-0.438636
-0.938264
-0.938548
-0.180931
-0.55431
-0.456102
-0.40227
-0.154843
-0.176869
1.69006
5.91897
3.4069
0.633964
0.323554
0.341932
0.386831
-0.060245
-0.218194
-0.35376
-0.500002
-0.951016
-1.0189
-0.271026
-0.506664
-0.574353
-0.311534
-0.302285
0.108906
3.45965
5.81441
3.52245
0.565465
0.265586
0.293888
0.347962
-0.672396
-0.365067
-0.120519
-0.168976
-0.617575
-0.381189
-0.703549
-0.659435
-0.601469
-0.600532
-0.272942
-0.212807
1.14369
3.7556
2.11406
0.341834
0.220847
0.232073
0.246569
-0.386555
-0.445491
-0.124114
-0.928312
-0.703466
-0.486226
-0.899354
-0.604819
-0.553058
-0.303533
-0.337957
-0.0852694
0.105681
2.28726
1.8462
0.28133
0.159893
0.181575
0.193148
-0.0325227
-0.42409
-0.896356
-0.740877
-0.673601
-0.978314
-0.709344
-0.467844
-0.404539
-0.270741
-0.170688
-0.0135235
0.151877
1.78295
1.17037
0.179862
0.142831
0.15618
0.134476
-0.255508
-0.327449
-0.763236
-0.758768
-0.500769
-0.601498
-0.6236
-0.448641
-0.273309
-0.134166
-0.0466578
-0.0343945
0.222744
0.910275
0.30442
-0.00711976
0.108334
0.0667318
0.066818
-0.588986
-0.746725
-0.49876
-0.396878
-0.838597
-0.393419
-0.218271
-0.149599
-0.118146
-0.0833304
-0.150588
0.0864683
0.618283
0.255155
0.136164
-0.000541619
0.0361613
0.0240138
0.0395655
)
;

boundaryField
{
    leftWall
    {
        type            zeroGradient;
    }
    rightWall
    {
        type            zeroGradient;
    }
    lowerWall
    {
        type            zeroGradient;
    }
    atmosphere
    {
        type            totalPressure;
        rho             rho;
        psi             none;
        gamma           1;
        p0              uniform 0;
        value           nonuniform List<scalar> 
46
(
0
0
0
0
0
0
0
0
0
0
0
0
0
0
0
0
0
0
0
-0.000309432
-0.099223
-0.0990559
-0.312718
-0.380176
-0.44372
-0.438302
-0.456939
-0.463175
-0.587048
-0.671442
-0.600686
-0.67425
-0.488031
-0.375785
-0.255369
-0.143668
-0.0167549
-0.000313399
0
0
0
0
0
0
0
0
)
;
    }
    defaultFaces
    {
        type            empty;
    }
}


// ************************************************************************* //
