/*--------------------------------*- C++ -*----------------------------------*\
| =========                 |                                                 |
| \\      /  F ield         | foam-extend: Open Source CFD                    |
|  \\    /   O peration     | Version:     4.1                                |
|   \\  /    A nd           | Web:         http://www.foam-extend.org         |
|    \\/     M anipulation  |                                                 |
\*---------------------------------------------------------------------------*/
FoamFile
{
    version     2.0;
    format      ascii;
    class       surfaceScalarField;
    location    "0.75";
    object      phi;
}
// * * * * * * * * * * * * * * * * * * * * * * * * * * * * * * * * * * * * * //

dimensions      [0 3 -1 0 0 0 0];

internalField   nonuniform List<scalar> 
4432
(
-5.5846e-06
5.5846e-06
-1.08888e-05
5.30416e-06
-1.46829e-05
3.79409e-06
-9.43507e-06
-5.24778e-06
-1.10185e-05
1.58347e-06
-1.29097e-05
1.89113e-06
-1.24346e-05
-4.75021e-07
-1.06814e-05
-1.75328e-06
-7.70605e-06
-2.97532e-06
-9.34889e-06
1.64285e-06
-8.43881e-06
-9.1008e-07
-3.48565e-06
-4.95316e-06
-5.21613e-06
1.73048e-06
-2.39597e-06
-2.82016e-06
-3.67218e-06
1.27621e-06
-6.82813e-07
-2.98937e-06
3.58801e-07
-1.04161e-06
1.5384e-06
-1.17959e-06
2.14716e-06
-6.08769e-07
1.84686e-06
3.00303e-07
9.24573e-07
9.22288e-07
3.75984e-07
5.48591e-07
3.75983e-07
-4.5144e-06
1.0099e-05
-4.84073e-06
5.6305e-06
-7.48116e-06
6.43452e-06
-9.8172e-06
-2.91174e-06
-1.08683e-05
2.63461e-06
-1.2547e-05
3.56979e-06
-1.20714e-05
-9.50633e-07
-9.49313e-06
-4.33153e-06
-1.30967e-05
6.28253e-07
-9.81111e-06
-1.64276e-06
-4.96825e-06
-5.75293e-06
-7.71006e-06
-2.21136e-06
-7.05999e-06
1.08042e-06
-4.03583e-06
-5.84432e-06
-3.67047e-06
9.10855e-07
-2.24272e-06
-4.41712e-06
-1.6155e-06
-1.66884e-06
8.10998e-08
-2.87619e-06
8.69632e-07
-1.3973e-06
8.63452e-07
3.06485e-07
2.79305e-08
1.75781e-06
-8.14571e-07
1.39109e-06
-4.38588e-07
-6.49434e-06
1.65933e-05
-1.19252e-05
1.10613e-05
-1.61316e-05
1.06409e-05
-1.91303e-05
8.70154e-08
-2.23056e-05
5.80989e-06
-1.3892e-05
-4.84379e-06
-1.25235e-05
-2.3192e-06
-9.40512e-06
-7.44989e-06
-1.42199e-05
5.44306e-06
-6.69626e-06
-9.16643e-06
-1.11802e-05
-1.26894e-06
-1.04554e-05
-2.93618e-06
-6.03061e-06
-3.3444e-06
-1.03125e-05
-1.56239e-06
-5.05751e-06
-4.34418e-06
-8.61278e-06
-8.61847e-07
-3.30834e-06
-6.97329e-06
-1.84086e-06
-4.34366e-06
-1.23351e-06
-2.00466e-06
-4.31499e-07
-4.95524e-07
-3.81723e-07
1.70803e-06
-6.9532e-07
1.70469e-06
-1.13391e-06
-7.36831e-06
2.39616e-05
-1.13462e-05
1.50392e-05
-8.94138e-06
8.23615e-06
-1.03722e-05
1.5178e-06
-1.13836e-05
6.82139e-06
-1.36705e-05
-2.55697e-06
-1.23516e-05
-3.63802e-06
-2.01398e-05
3.38306e-07
-1.01587e-05
-4.53809e-06
-1.63829e-05
-2.94222e-06
-1.67672e-05
-8.84682e-07
-1.8157e-05
-1.54639e-06
-1.84555e-05
-3.04586e-06
-1.84356e-05
-1.58228e-06
-1.76741e-05
-5.1057e-06
-1.65236e-05
-2.01234e-06
-1.41863e-05
-9.31058e-06
-1.04401e-05
-8.08985e-06
-6.92099e-06
-5.5238e-06
-3.62955e-06
-3.78696e-06
-2.33276e-06
4.11245e-07
-1.81626e-06
1.18819e-06
-2.95017e-06
-8.32201e-06
3.22837e-05
-1.38112e-05
2.05284e-05
-1.74732e-05
1.18981e-05
-1.94333e-05
3.47788e-06
-1.21671e-05
-4.44845e-07
-1.50772e-05
3.53183e-07
-1.37936e-05
-4.9216e-06
-1.27216e-05
-7.3376e-07
-1.1913e-05
-5.34665e-06
-1.90612e-05
4.20596e-06
-1.94401e-05
-5.05765e-07
-2.09153e-05
-7.11513e-08
-2.20033e-05
-1.95789e-06
-2.19127e-05
-1.67288e-06
-2.1975e-05
-5.04337e-06
-2.07139e-05
-3.27348e-06
-1.828e-05
-1.17445e-05
-1.6318e-05
-1.00518e-05
-1.43366e-05
-7.50515e-06
-1.02655e-05
-7.85812e-06
-5.31714e-06
-4.53707e-06
-2.24841e-06
-1.88053e-06
-5.19858e-06
-5.55429e-06
3.78379e-05
-1.43724e-05
2.93465e-05
-2.06196e-05
1.81453e-05
-2.36558e-05
6.51406e-06
-1.36142e-05
-1.04864e-05
-1.61814e-05
2.92033e-06
-1.46426e-05
-6.46041e-06
-1.25982e-05
-2.77816e-06
-2.334e-05
5.39516e-06
-2.33296e-05
4.19555e-06
-2.44397e-05
6.04318e-07
-2.4327e-05
-1.83844e-07
-2.43033e-05
-1.9815e-06
-2.3176e-05
-2.80025e-06
-2.13754e-05
-6.84389e-06
-2.1051e-05
-3.59793e-06
-2.02721e-05
-1.25234e-05
-1.81554e-05
-1.21686e-05
-1.61966e-05
-9.46391e-06
-1.51368e-05
-8.918e-06
-5.77731e-06
-1.38965e-05
-2.70651e-06
-4.95133e-06
-7.9051e-06
-9.34969e-06
4.71876e-05
-7.39023e-06
2.73871e-05
-1.1471e-05
2.22261e-05
-1.3813e-05
8.85606e-06
-1.37648e-05
-1.05346e-05
-1.56014e-05
4.75697e-06
-2.8315e-05
6.25319e-06
-2.67388e-05
-4.35432e-06
-2.55642e-05
4.22048e-06
-2.49416e-05
3.57303e-06
-2.52569e-05
9.19538e-07
-2.46853e-05
-7.55376e-07
-2.41026e-05
-2.56422e-06
-2.30949e-05
-3.80795e-06
-2.33768e-05
-6.56198e-06
-2.31355e-05
-3.83921e-06
-2.02972e-05
-1.53617e-05
-1.78031e-05
-1.46626e-05
-1.60651e-05
-1.1202e-05
-1.48807e-05
-1.01024e-05
-1.17532e-05
-1.7024e-05
-5.84012e-06
-1.08644e-05
-1.37452e-05
-6.74773e-06
5.39354e-05
-1.78005e-05
3.84399e-05
-2.55956e-05
3.00212e-05
-2.97558e-05
1.30162e-05
-2.97941e-05
-1.04963e-05
-1.88122e-05
-6.22495e-06
-1.77234e-05
5.16432e-06
-2.6611e-05
4.53328e-06
-2.65162e-05
4.12568e-06
-2.78204e-05
4.87727e-06
-2.7244e-05
3.43117e-07
-2.64447e-05
-1.55471e-06
-2.64497e-05
-2.55923e-06
-2.46806e-05
-5.57701e-06
-2.40289e-05
-7.2137e-06
-2.55025e-05
-2.36557e-06
-1.91123e-05
-2.17519e-05
-1.59743e-05
-1.78007e-05
-1.49703e-05
-1.2206e-05
-1.63355e-05
-8.73719e-06
-1.48473e-05
-1.85122e-05
-7.7857e-06
-1.7926e-05
-2.15309e-05
-6.17175e-05
6.17175e-05
-8.95305e-05
2.7813e-05
-0.000110301
2.07708e-05
-0.00012067
1.03683e-05
-0.000127425
6.75514e-06
-0.000133017
5.59205e-06
-0.000127976
-5.04099e-06
-0.000113762
-1.42135e-05
-9.97096e-05
-1.40526e-05
-8.11005e-05
-1.86091e-05
-5.93832e-05
-2.17173e-05
-4.64053e-05
-1.29778e-05
-3.53957e-05
-1.10096e-05
-2.41784e-05
-1.12173e-05
-1.33354e-05
-1.0843e-05
-1.09254e-05
-2.41002e-06
-8.48244e-06
-2.44292e-06
-2.7775e-06
-5.70494e-06
-2.7775e-06
-5.91774e-05
0.000120895
-8.09529e-05
4.95885e-05
-9.73023e-05
3.71202e-05
-0.00010934
2.24061e-05
-0.00011755
1.49653e-05
-0.000116968
5.00926e-06
-0.000104546
-1.74624e-05
-9.07791e-05
-2.79806e-05
-8.06768e-05
-2.41549e-05
-6.26026e-05
-3.66834e-05
-4.07819e-05
-4.3538e-05
-3.12139e-05
-2.25458e-05
-2.74353e-05
-1.47883e-05
-1.16181e-05
-2.70345e-05
-1.58194e-05
-6.64173e-06
-1.52143e-05
-3.01511e-06
-4.35589e-06
-1.33014e-05
-4.09287e-06
-5.96796e-06
-6.87037e-06
-2.9611e-05
0.000150506
-6.76362e-05
8.76137e-05
-8.37393e-05
5.32233e-05
-8.66251e-05
2.52919e-05
-8.4022e-05
1.23622e-05
-6.88348e-05
-1.01779e-05
-3.28848e-05
-5.34124e-05
-2.51259e-05
-3.57395e-05
-2.68988e-05
-2.2382e-05
-4.67847e-06
-5.89037e-05
1.05677e-05
-5.87842e-05
1.41962e-05
-2.61743e-05
8.26087e-06
-8.85294e-06
1.83325e-06
-2.06068e-05
-2.18235e-06
-2.62613e-06
5.8924e-06
-1.10899e-05
2.28658e-05
-3.02748e-05
1.31307e-05
3.76713e-06
6.26036e-06
-2.25084e-05
0.000173014
-4.27562e-05
0.000107862
-2.3088e-05
3.35551e-05
-4.01686e-05
4.23725e-05
-2.70865e-05
-7.19843e-07
-4.01165e-07
-3.68633e-05
2.6853e-05
-8.06665e-05
3.40473e-05
-4.29338e-05
3.57604e-05
-2.4095e-05
1.95413e-05
-4.26846e-05
2.15827e-05
-6.08256e-05
2.11035e-05
-2.56951e-05
3.69555e-05
-2.47049e-05
1.50405e-05
1.30815e-06
1.28228e-05
-4.08388e-07
1.38215e-05
-1.20886e-05
1.83174e-05
-3.47707e-05
2.53244e-05
-3.23986e-06
3.15848e-05
-1.7503e-05
0.000190517
-2.71119e-05
0.00011747
-3.40836e-05
4.05267e-05
-1.48847e-05
2.31736e-05
6.6101e-06
-2.22146e-05
1.56725e-05
-4.59257e-05
2.00794e-05
-8.50734e-05
6.09926e-05
-8.3847e-05
5.99516e-05
-2.3054e-05
5.50246e-05
-3.77576e-05
2.95801e-05
-3.53812e-05
4.65709e-05
-4.26859e-05
3.99147e-05
-1.80487e-05
2.93548e-05
1.18681e-05
2.23384e-05
6.60795e-06
9.14306e-06
1.10675e-06
8.53047e-07
-2.64806e-05
1.61819e-05
-1.85688e-05
4.77667e-05
-1.35856e-05
0.000204103
-1.67596e-05
0.000120644
-1.74381e-05
4.12053e-05
4.22816e-06
1.5073e-06
1.71021e-05
-3.50886e-05
1.1648e-05
-4.04716e-05
1.75976e-05
-9.10229e-05
2.94721e-05
-9.57215e-05
6.00721e-05
-5.36541e-05
5.4244e-05
-3.19295e-05
5.20457e-05
-3.31829e-05
4.82541e-05
-3.88943e-05
4.61588e-05
-1.59533e-05
3.60429e-05
2.1984e-05
2.25071e-05
2.01438e-05
7.35895e-06
1.62549e-05
4.84176e-06
-2.39635e-05
1.19578e-05
-2.56848e-05
5.97245e-05
-1.08649e-05
0.000214968
-9.62149e-06
0.000119401
9.31689e-06
2.22669e-05
2.92682e-05
-1.8444e-05
8.5623e-06
-1.43827e-05
8.03304e-06
-3.99423e-05
2.95225e-05
-0.000112512
2.82023e-05
-9.44013e-05
2.79034e-05
-5.33552e-05
4.82869e-05
-5.2313e-05
4.02514e-05
-2.51474e-05
1.7555e-05
-1.61979e-05
3.77526e-05
-3.61509e-05
2.88827e-05
3.08539e-05
1.86809e-05
3.03456e-05
1.55695e-05
1.93662e-05
6.11936e-06
-1.45133e-05
1.15538e-05
-3.11192e-05
7.12782e-05
-1.033e-05
0.000225298
4.05171e-06
0.000105019
1.5802e-05
1.05167e-05
2.19691e-05
-2.46112e-05
1.28347e-05
-5.24822e-06
-1.36991e-06
-2.57377e-05
1.3166e-05
-0.000127048
2.63278e-05
-0.000107563
5.41844e-05
-8.12118e-05
4.83583e-05
-4.64869e-05
3.64149e-05
-1.3204e-05
2.44185e-05
-4.20154e-06
1.37967e-05
-2.5529e-05
5.4522e-06
3.91984e-05
-2.65301e-06
3.84508e-05
2.4883e-05
-8.16981e-06
1.58726e-05
-5.50287e-06
1.00083e-06
-1.62474e-05
7.22791e-05
-1.44779e-05
6.84132e-05
-2.12185e-05
4.51805e-05
-3.69061e-05
4.57089e-05
-4.21346e-05
1.82447e-05
-6.295e-05
1.03191e-05
-6.18275e-05
-7.34736e-06
-6.32653e-05
6.60204e-06
-6.17126e-05
2.98061e-06
-6.07421e-05
3.15521e-06
-5.75279e-05
1.6631e-06
-5.55963e-05
-1.5885e-06
-5.2959e-05
-4.19209e-06
-5.16155e-05
-3.9027e-06
-4.98729e-05
-7.3196e-06
-5.49373e-05
-2.14933e-06
-3.18711e-05
-2.54318e-05
-4.52444e-05
-8.3786e-06
-3.67744e-05
-2.62706e-05
-3.0918e-05
-1.80624e-05
-1.76149e-05
-2.20403e-05
-1.82305e-05
-1.78967e-05
-8.33543e-06
-2.78211e-05
-2.82867e-05
-1.57964e-06
-9.78479e-05
0.000166261
-0.000114683
6.20156e-05
-6.67728e-05
-2.20128e-06
-5.67625e-05
8.2344e-06
-4.30387e-05
-3.40471e-06
-6.63732e-05
1.59871e-05
-6.09091e-05
1.13794e-06
-5.85667e-05
6.3816e-07
-5.73928e-05
1.98135e-06
-5.64315e-05
7.01845e-07
-5.3279e-05
-4.74104e-06
-4.94363e-05
-8.0348e-06
-4.29354e-05
-1.04035e-05
-4.61303e-05
-4.1247e-06
-3.15628e-05
-1.67169e-05
-2.8045e-05
-2.89495e-05
-1.71894e-05
-1.92342e-05
-2.08114e-05
-2.26486e-05
-1.83665e-05
-2.05073e-05
-9.75213e-06
-3.06546e-05
-1.28823e-05
-1.47665e-05
-2.75199e-05
-1.31835e-05
-1.68835e-05
-3.89231e-05
-7.79169e-05
0.000244178
-8.73463e-05
7.14449e-05
-0.000102184
1.26369e-05
-0.000107613
1.36631e-05
-0.00010604
-4.978e-06
-6.0653e-05
-2.93997e-05
-6.07179e-05
1.2028e-06
-9.20777e-05
3.1998e-05
-9.36262e-05
3.5298e-06
-9.4337e-05
1.41267e-06
-8.59216e-05
-1.31564e-05
-7.48373e-05
-1.91191e-05
-6.71221e-05
-1.81188e-05
-6.60413e-05
-5.20547e-06
-7.1842e-05
-1.09162e-05
-6.70945e-05
-3.3697e-05
-6.01006e-05
-2.62281e-05
-5.659e-05
-2.61592e-05
-2.37823e-05
-5.3315e-05
-6.85392e-06
-4.7583e-05
5.3243e-06
-2.69447e-05
-5.03143e-06
-2.82775e-06
2.18601e-06
-2.41009e-05
-7.92049e-05
0.000323383
-4.64049e-05
3.86449e-05
-7.64042e-05
4.26362e-05
-0.000161463
9.87219e-05
-0.00019317
2.67286e-05
-0.000240828
1.82583e-05
-0.000289351
4.97261e-05
-0.00032989
7.2537e-05
-0.000354495
2.81351e-05
-0.000295553
-5.75297e-05
-0.000246923
-6.17861e-05
-0.000168294
-9.77483e-05
-0.000147371
-3.9042e-05
-0.000114632
-3.79441e-05
-8.37244e-05
-4.18237e-05
-9.33819e-05
-2.40395e-05
-0.0001245
4.8895e-06
-0.000128546
-2.21131e-05
-7.642e-05
-0.000105441
-1.82918e-05
-0.000105711
1.10495e-05
-5.6286e-05
5.0973e-07
7.71199e-06
4.70877e-05
-4.4392e-05
-5.12595e-05
0.000374642
-9.71827e-05
8.45682e-05
-0.000233624
0.000179078
-0.00038597
0.000251068
-0.000560547
0.000201306
-0.000729733
0.000187445
-0.000858286
0.000178279
-0.000829447
4.36975e-05
-0.000707806
-9.35062e-05
-0.000624485
-0.00014085
-0.000517427
-0.000168844
-0.000455177
-0.000159998
-0.000340201
-0.000154018
-0.000200317
-0.000177828
-0.000162002
-8.0139e-05
-0.0001306
-5.54416e-05
-0.000133885
8.17494e-06
-0.000122833
-3.31658e-05
-0.000124355
-0.000103918
-0.000127014
-0.000103052
-0.000131212
-5.20887e-05
-0.000148066
2.45663e-05
6.9783e-05
-0.000170761
-4.30175e-05
0.00041766
-0.000145577
0.000187128
-0.000294058
0.000327558
-0.000407369
0.000364379
-0.00050346
0.000297397
-0.000740762
0.000424746
-0.000728991
0.000166509
-0.000591934
-9.33591e-05
-0.00052775
-0.00015769
-0.000483976
-0.000184624
-0.000455537
-0.000197283
-0.000422006
-0.000193529
-0.000377681
-0.000198343
-0.000344396
-0.000211113
-0.000324965
-9.95705e-05
-0.00021156
-0.000168846
-0.00011707
-8.63151e-05
-8.38159e-05
-6.64198e-05
-9.85614e-05
-8.91728e-05
-0.000164793
-3.68202e-05
-0.00017257
-4.43122e-05
-0.000180089
3.20852e-05
8.63201e-05
-0.000196626
-5.67536e-05
0.000474414
-0.000215543
0.000345918
-0.000165566
0.000277581
-0.000325326
0.000524139
-0.000524451
0.000496521
-0.000424238
0.000324533
-0.000487931
0.000230201
-0.000502746
-7.85434e-05
-0.000509786
-0.000150651
-0.000495512
-0.000198898
-0.000462111
-0.000230685
-0.00042781
-0.00022783
-0.000401731
-0.000224422
-0.000393024
-0.00021982
-0.000367947
-0.000124647
-0.000311721
-0.000225073
-0.000207352
-0.000190684
-0.000168347
-0.000105425
-0.000167358
-9.01622e-05
-0.000174874
-2.93037e-05
-0.000197787
-2.13991e-05
-0.00017628
1.05773e-05
5.8023e-05
-0.000147983
-5.40611e-05
0.000528475
-7.45852e-05
0.000366442
-0.000239182
0.000442178
-0.000245791
0.000530748
-0.000328796
0.000579526
-0.000339614
0.000335351
-0.000416104
0.000306691
-0.000477681
-1.6966e-05
-0.000492745
-0.000135587
-0.000511581
-0.000180062
-0.000481767
-0.000260499
-0.000441857
-0.00026774
-0.000394421
-0.000271857
-0.0003763
-0.000237942
-0.000370931
-0.000130015
-0.000346733
-0.000249271
-0.000292729
-0.000244688
-0.000213065
-0.000185088
-0.00018263
-0.000120597
-0.000113376
-9.85579e-05
-9.61724e-05
-3.86027e-05
-0.0001153
2.97049e-05
4.26825e-05
-9.99594e-05
-5.57459e-05
0.000584221
-0.000120661
0.000431358
-0.000151787
0.000473304
-0.000145875
0.000524837
-0.000192765
0.000626415
-0.000309514
0.0004521
-0.000398332
0.000395509
-0.000418152
2.85359e-06
-0.000383225
-0.000170514
-0.00041774
-0.000145547
-0.000460026
-0.000218213
-0.000455681
-0.000272085
-0.000427956
-0.000299583
-0.000406964
-0.000258933
-0.000388185
-0.000148795
-0.000361143
-0.000276313
-0.000330672
-0.000275159
-0.000284109
-0.000231651
-0.000273237
-0.00013147
-0.000238915
-0.00013288
-0.000184395
-9.31231e-05
-0.000124772
-2.99176e-05
-3.15393e-05
-5.05503e-05
-5.64843e-05
0.000640705
-0.000114131
0.000489004
-0.000111256
0.000470429
-3.54197e-05
0.000449
-1.33577e-05
0.000604353
-0.000228027
0.000666769
-0.000271727
0.000439209
-0.000325131
5.62573e-05
-0.000327594
-0.000168051
-0.000327541
-0.0001456
-0.000331954
-0.000213799
-0.000370901
-0.000233139
-0.000380003
-0.00029048
-0.000346088
-0.000292849
-0.00032035
-0.000174532
-0.000322225
-0.000274438
-0.000321018
-0.000276366
-0.000294832
-0.000257837
-0.000283179
-0.000143123
-0.000294943
-0.000121116
-0.000300218
-8.78478e-05
-0.00024426
-8.58756e-05
-8.97863e-05
-0.000186013
-5.93481e-05
0.000700053
-0.000110896
0.000540552
-0.000123634
0.000483167
-2.03333e-05
0.000345699
-2.83466e-06
0.000586855
-5.42319e-05
0.000718167
-0.000154018
0.000538996
-0.000272063
0.000174302
-0.000306796
-0.000133318
-0.00031372
-0.000138676
-0.000280443
-0.000247077
-0.000262238
-0.000251344
-0.000280687
-0.000272031
-0.000297601
-0.000275935
-0.00017064
-0.000301493
-0.000167024
-0.000278054
-0.00017342
-0.00026997
-0.000294492
-0.000136765
-0.000289666
-0.000147949
-0.000323831
-8.69507e-05
-0.000306617
-0.000105062
-0.000277389
-0.000115104
-0.000113102
-0.000254073
-5.17873e-05
0.00075184
-8.46132e-05
0.000573378
-8.22027e-05
0.000480757
-5.78326e-05
0.000321329
-2.41684e-05
0.000553191
1.17847e-05
0.000682213
-5.9009e-05
0.000609789
-0.000179322
0.000294615
-0.000257621
-5.50185e-05
-0.000220432
-0.000175865
-0.000190988
-0.000276521
-0.000137822
-0.00030451
-0.000156728
-0.000253125
-0.000171909
-0.000260754
-0.000302295
-0.000171107
-0.000312775
-0.000267574
-0.000329333
-0.000253412
-0.00032975
-0.000136348
-0.000302673
-0.000175026
-0.000295745
-9.38787e-05
-0.000284242
-0.000116565
-0.000165086
-0.00023426
-0.000127736
-0.000150452
-3.25745e-05
0.000784415
-4.77062e-05
0.000588509
-3.05204e-05
0.000463571
-4.18799e-05
0.000332689
-5.35514e-06
0.000516666
4.77696e-05
0.000629089
7.0095e-05
0.000587464
3.47537e-05
0.000329957
-1.08155e-05
-9.44932e-06
2.56294e-06
-0.000189243
9.99307e-06
-0.000283951
-0.000151026
-0.000143491
-0.000216318
-0.000187833
-0.000271831
-0.000205241
-0.000282153
-0.000160785
-0.000425476
-0.000124251
-0.000484849
-0.000194039
-0.000407094
-0.000214102
-0.000391856
-0.000190264
-0.000387721
-9.80136e-05
-0.000307761
-0.000196524
-0.000295844
-0.000246177
-0.00025699
-0.00016659
-3.22359e-06
0.000787638
-8.35596e-06
0.000593642
3.06272e-06
0.000452152
5.16705e-06
0.000330584
5.54136e-05
0.000466419
0.000119744
0.000564759
0.00017701
0.000530197
0.000227041
0.000279926
0.000159649
5.79427e-05
0.000178955
-0.000208549
0.000103127
-0.000208124
4.83268e-05
-8.86903e-05
-0.000121956
-1.75501e-05
-0.000281619
-4.5578e-05
-0.000332403
-0.000110001
-0.000259818
-0.000196836
-0.000315356
-0.000138501
-0.00043834
-9.11188e-05
-0.000431639
-0.000196964
-0.000301163
-0.00022849
-0.00029411
-0.000203577
-0.000388853
-0.000151434
-0.000187329
-0.000458514
2.92563e-05
0.000758382
2.88596e-05
0.000594038
8.51656e-05
0.000395846
-5.62835e-06
0.000421378
5.75962e-05
0.000403195
0.000150077
0.000472278
0.000288287
0.000391987
0.000399774
0.00016844
0.000457464
2.52422e-07
0.000399815
-0.000150899
0.000245844
-5.41529e-05
0.000150884
6.26965e-06
1.73371e-05
0.000115997
-0.000111174
8.2933e-05
-0.000244782
2.36075e-05
-0.00042255
-1.90689e-05
-0.000493644
-6.7407e-05
-0.000500497
-8.42658e-05
-0.000487372
-0.000210089
-0.000524263
-0.000191599
-0.000578724
-0.000149117
-0.000545057
-0.000185101
-0.000172145
-0.000560241
6.90488e-06
0.000751477
8.93675e-06
0.000592007
5.06273e-05
0.000354156
1.09378e-06
0.000470912
5.44717e-05
0.000349817
0.000156194
0.000370556
0.000345129
0.000203052
0.000448057
6.55119e-05
0.000541399
-9.30901e-05
0.00055112
-0.00016062
0.00052941
-3.24424e-05
0.00048558
5.00997e-05
0.000305106
0.00029647
0.00013948
0.000248559
-4.49698e-05
0.000208057
-0.000150467
8.64277e-05
-0.000234151
1.62773e-05
-0.00031075
-7.6663e-06
-0.000456182
-6.46575e-05
-0.000502771
-0.00014501
-0.000509978
-0.00014191
-0.000486787
-0.000208292
-0.000141699
-0.000517232
-5.22647e-06
0.000756704
5.2096e-06
0.000581571
-2.1409e-05
0.000380774
-6.85535e-05
0.000518056
2.22177e-05
0.000259046
0.000110194
0.000282579
0.000324708
-1.14615e-05
0.00039598
-5.75982e-06
0.000337891
-3.50012e-05
0.000234742
-5.74706e-05
0.000216675
-1.43755e-05
0.000140697
0.000126078
0.000118332
0.000318835
6.48284e-05
0.000302063
-5.00464e-05
0.000322932
-0.000263923
0.000300305
-0.000444347
0.0001967
-0.000537502
8.54894e-05
-0.000535199
-6.69609e-05
-0.000532094
-0.000148116
-0.000532028
-0.000141976
-0.00053308
-0.000207239
-0.000200816
-0.000473964
2.24047e-05
0.000734299
2.3303e-05
0.000580672
-0.000104937
0.000509014
-0.00012476
0.00053788
-0.000135612
0.000269897
-5.5839e-05
0.000202806
-7.53448e-06
-5.97661e-05
1.89432e-06
-1.51886e-05
-3.77381e-05
4.63119e-06
-0.000118474
2.32658e-05
-0.000145532
1.26817e-05
-8.78582e-05
6.84045e-05
-5.88895e-05
0.000289866
-9.28731e-05
0.000336047
-0.0001731
0.000403159
-0.000257696
0.0003849
-0.000356019
0.000295023
-0.000423951
0.000153421
-0.000456362
-3.45498e-05
-0.000508626
-9.58511e-05
-0.000480445
-0.000170156
-0.000462351
-0.000225333
-0.000210328
-0.000452839
2.42737e-05
0.000710025
-1.46307e-05
0.000619577
-0.000110351
0.000604734
-0.00019119
0.000618719
-0.000320278
0.000398985
-0.000172337
5.48656e-05
-0.000249251
1.71478e-05
-0.000255242
-9.1977e-06
-0.000229068
-2.15425e-05
-0.000216942
1.11392e-05
-0.000258193
5.3933e-05
-0.000311412
0.000121623
-0.000252554
0.000231008
-0.00020611
0.000289603
-0.000210775
0.000407824
-0.00019476
0.000368885
-0.000266905
0.000367168
-0.000339094
0.00022561
-0.000353929
-1.97154e-05
-0.000366459
-8.3321e-05
-0.000289072
-0.000247543
-0.000255499
-0.000258907
-0.000183576
-0.00028225
-1.67361e-06
0.000711699
-4.67888e-05
0.000664692
-0.00014182
0.000699765
-0.000271289
0.000748188
-0.00031371
0.000441407
-0.000346349
8.7504e-05
-0.00035466
2.5459e-05
-0.000331836
-3.20217e-05
-0.000292408
-6.09705e-05
-0.000270811
-1.0458e-05
-0.000314524
9.76467e-05
-0.000352129
0.000159228
-0.000343993
0.000222872
-0.000341056
0.000286665
-0.000257562
0.00032433
-0.000218048
0.000329371
-0.000123418
0.000272539
-0.000212232
0.000314424
-0.000244134
1.21866e-05
-0.000153669
-0.000173786
-0.000140993
-0.000260219
-0.000195195
-0.000204705
-0.000246827
-0.000131943
4.63209e-06
0.000707067
-9.30122e-06
0.000678625
-7.15236e-05
0.000761987
-0.00010339
0.000780055
-0.000190791
0.000528807
-0.000192603
8.93161e-05
-0.000198931
3.17869e-05
-0.000206234
-2.47188e-05
-0.000204007
-6.31972e-05
-0.000207662
-6.80345e-06
-0.000164155
5.41397e-05
-0.00016502
0.000160093
-0.000184843
0.000242696
-0.000282594
0.000384416
-0.000186283
0.000228019
-0.000227338
0.000370427
-0.000190809
0.00023601
-0.000161985
0.0002856
-0.000142932
-6.8658e-06
-0.000152447
-0.000164272
-0.000168023
-0.000244643
-9.22185e-05
-0.000280509
-0.000323256
-1.57902e-05
9.62736e-06
0.000697439
2.05558e-05
0.000667697
5.45564e-08
0.000782489
-3.60578e-05
0.000816167
-0.000158175
0.000650924
-0.000304429
0.00023557
-0.000346688
7.40461e-05
-0.000357957
-1.34498e-05
-0.000386625
-3.45293e-05
-0.000391475
-1.95301e-06
-0.000375635
3.82988e-05
-0.000245458
2.9916e-05
-0.000202479
0.000199717
-0.000122519
0.000304456
-0.000180881
0.000286381
-0.000120619
0.000310165
-0.000145722
0.000261112
-9.87311e-05
0.000238609
-4.8265e-05
-5.73319e-05
-9.86321e-05
-0.000113905
-7.33543e-05
-0.000269921
-1.45346e-05
-0.000339329
-0.000356421
1.86308e-05
9.94544e-06
0.000687494
1.79877e-05
0.000659654
4.63951e-05
0.000754081
6.04006e-05
0.000802162
-3.78625e-05
0.000749187
-0.000147322
0.000345029
-0.000210112
0.000136836
-0.000365642
0.000142081
-0.000455684
5.55122e-05
-0.000466342
8.70555e-06
-0.00033974
-8.83042e-05
-0.000288749
-2.10751e-05
-0.000205246
0.000116214
-0.000135098
0.000234308
-0.000113175
0.000264458
-8.69942e-05
0.000283984
-6.64675e-05
0.000240585
-2.56991e-05
0.000197841
5.00659e-06
-8.80375e-05
7.2316e-05
-0.000181214
2.61921e-05
-0.000223797
6.75149e-05
-0.000380652
-0.000380013
9.11071e-05
4.47764e-05
0.000642717
5.50643e-05
0.000649367
0.000105914
0.000703232
0.000150414
0.000757662
0.000171757
0.000727844
4.67479e-06
0.000512112
-0.00015777
0.000299281
-0.000135659
0.00011997
-0.000223716
0.000143569
-0.000216639
1.62899e-06
-0.000233893
-7.10503e-05
-0.000247236
-7.73189e-06
-0.000185009
5.3987e-05
-0.000122855
0.000172154
-9.49124e-05
0.000236516
-7.47528e-05
0.000263825
-5.48431e-06
0.000171317
3.19182e-05
0.000160438
2.43053e-05
-8.04246e-05
0.000160723
-0.000317632
0.000182673
-0.000245746
0.00014536
-0.000343339
-0.000289986
5.53323e-05
7.91463e-05
0.000563571
0.000132234
0.000596279
0.000185413
0.000650053
0.000282255
0.00066082
0.000363387
0.000646712
0.000336374
0.000539125
0.000216597
0.000419057
0.000162891
0.000173676
1.81127e-05
0.000288347
-0.000123693
0.000143435
-0.000212699
1.79551e-05
-0.000169658
-5.07721e-05
-0.000141713
2.6041e-05
-0.000142189
0.000172631
-6.50521e-05
0.000159378
-5.62763e-06
0.0002044
1.60309e-05
0.000149658
0.000107209
6.92602e-05
0.000177168
-0.000150383
9.06393e-05
-0.000231103
0.000242568
-0.000397675
0.000129716
-0.000230486
-0.000388592
0.000228322
0.000101408
0.000462163
0.000108807
0.00058888
0.000169979
0.000588881
0.000151385
0.000679414
0.000401673
0.000396423
0.000418513
0.000522285
0.000386228
0.000451341
0.00027099
0.000288915
0.000186746
0.000372591
0.000111918
0.000218263
7.96127e-05
5.02601e-05
-6.21942e-06
3.506e-05
-2.70085e-05
4.68301e-05
-1.07443e-05
0.000156367
-5.9904e-07
0.000149233
0.000109379
9.44218e-05
0.000192759
6.6278e-05
0.000256872
5.14764e-06
0.000253513
-0.000147025
0.000376175
-0.000353765
0.000182749
-0.00020425
0.000299177
-0.000346914
-0.000364174
0.000274759
2.69458e-05
0.000435218
9.64397e-05
0.000519386
0.000132979
0.000552341
0.000248821
0.000563573
0.000238825
0.000406419
0.000251029
0.000510081
0.000440082
0.000262288
0.000333901
0.000395096
0.000404156
0.000302336
0.000363528
0.000258891
0.000313346
0.000100442
0.000257321
9.10857e-05
0.000152035
0.000152116
0.000130738
0.000177664
0.000237962
4.20096e-05
0.000265101
6.72827e-05
0.000333285
-1.90638e-06
0.000410499
-7.20667e-05
0.000420371
-0.000156896
0.000240249
-0.000173643
0.000211334
-0.000175335
0.000183043
-0.000318623
-0.000333459
0.000152328
-9.17603e-05
0.000526978
7.99469e-05
0.000347679
9.17783e-05
0.00054051
0.000327581
0.000327771
0.000181963
0.000552036
0.000399822
0.000292222
0.000426695
0.000235416
0.000480243
0.000341548
0.000456559
0.00032602
0.000438778
0.000276672
0.000410462
0.000128757
0.000363507
0.000138041
0.000253772
0.00026185
0.000321759
0.000109677
0.000243338
0.000120431
0.000252747
5.78739e-05
0.000261772
-1.09323e-05
0.000256627
-6.69214e-05
0.000258466
-0.000158735
0.000272375
-0.000187552
0.000356303
-0.000259263
0.000336851
-0.000299171
-0.000289212
0.000292604
-5.25334e-06
0.000532231
5.01696e-05
0.000292256
9.72782e-05
0.000493401
0.000160906
0.000264143
0.000254554
0.000458388
0.000290344
0.000256432
0.000303785
0.000221975
0.000254685
0.000390648
0.000398282
0.000182423
0.00040092
0.000274035
0.000289448
0.000240229
0.000287491
0.000139998
0.00043319
0.000116151
0.000406051
0.000136817
0.000455294
7.11881e-05
0.000474715
3.84529e-05
0.000480292
-1.65099e-05
0.000468988
-5.56173e-05
0.00043844
-0.000128187
0.000428011
-0.000177123
0.00031517
-0.000146422
0.00030775
-0.000291752
-0.000190901
0.00020944
2.84716e-05
0.00050376
5.1074e-05
0.000269654
0.000124941
0.000419535
0.000117963
0.000271121
0.000242723
0.000333628
0.000245697
0.000253458
0.000211061
0.000256611
0.000382072
0.000219637
0.000392363
0.000172132
0.000380041
0.000286357
0.000469
0.000151271
0.000432746
0.000176252
0.000419637
0.00012926
0.000443217
0.000113236
0.000436008
7.83971e-05
0.000451376
2.30849e-05
0.000460628
-2.57617e-05
0.000450557
-4.55462e-05
0.000399567
-7.71969e-05
0.000366183
-0.000143738
0.000332816
-0.000113055
0.000182099
-0.000141034
-0.000223394
0.000214591
1.08856e-05
0.000492874
2.50591e-05
0.00025548
0.00015323
0.000291363
0.000167056
0.000257296
0.000234574
0.00026611
0.000251674
0.000236358
0.000289515
0.00021877
0.000313952
0.0001952
0.000338462
0.000147622
0.000362876
0.000261942
0.000395897
0.000118249
0.000370019
0.00020213
0.000380024
0.000119255
0.000390766
0.000102494
0.000393377
7.57865e-05
0.000407037
9.42493e-06
0.000379328
1.94693e-06
0.000343483
-9.70041e-06
0.000340391
-7.41056e-05
0.000308073
-0.000111421
0.000276898
-8.18802e-05
0.000285391
-0.000149527
-0.00010052
0.000162517
2.33979e-05
0.000469476
4.30453e-05
0.000235833
8.29533e-05
0.000251455
0.000113517
0.000226732
0.00017627
0.000203357
0.000212008
0.000200621
0.000237189
0.000193589
0.000254704
0.000177684
0.000264843
0.000137483
0.000278587
0.000248198
0.000177583
0.000219254
0.000295447
8.4266e-05
0.000330456
8.4246e-05
0.000318438
0.000114512
0.000312951
8.12737e-05
0.000255062
6.73143e-05
0.00025244
4.5683e-06
0.000314041
-7.13015e-05
0.000266376
-2.64401e-05
0.000238704
-8.3749e-05
0.000255273
-9.84483e-05
0.000233973
-0.000128227
-0.000140776
0.000274229
4.96625e-05
0.000419814
7.51597e-05
0.000210336
0.000108698
0.000217917
0.00013686
0.000198569
0.000160868
0.000179349
0.000185693
0.000175797
0.000208587
0.000170694
0.000221178
0.000165094
0.000230756
0.000127905
0.000251679
0.000227275
0.000269841
0.000201092
0.000268035
8.60726e-05
0.000277751
7.45299e-05
0.000281282
0.00011098
0.000273288
8.92682e-05
0.00030594
3.46619e-05
0.000279763
3.07449e-05
0.000233118
-2.46563e-05
0.000223128
-1.64496e-05
0.000210924
-7.15454e-05
0.000202468
-8.99918e-05
0.000185412
-0.000111171
-0.000154672
0.000199308
5.56163e-05
0.000364197
6.30444e-05
0.000202908
8.81441e-05
0.000192817
0.000113898
0.000172816
0.000131701
0.000161545
0.000146264
0.000161234
0.000167071
0.000149888
0.000187224
0.000144941
0.000202043
0.000113086
0.000217376
0.000211942
0.000223996
0.000194472
0.000214492
9.55765e-05
0.000205623
8.33997e-05
0.000237355
7.92477e-05
0.000224624
0.000102
0.000165654
9.36319e-05
0.000169091
2.73078e-05
0.000155161
-1.07264e-05
0.000193481
-5.47695e-05
0.00015674
-3.48043e-05
0.000151068
-8.43201e-05
0.000136374
-9.64765e-05
-0.000105792
8.74937e-05
9.27742e-05
0.000271423
8.22239e-05
0.000213458
8.66272e-05
0.000188414
9.40578e-05
0.000165385
0.000102252
0.000153351
0.00011036
0.000153125
0.000114312
0.000145936
0.000121773
0.00013748
0.000100091
0.000134768
0.00020464
0.000107393
0.000211658
0.000187455
0.000204451
0.000102783
0.000199532
8.83189e-05
0.000198524
8.02564e-05
0.000191064
0.00010946
0.000226461
5.8235e-05
0.000227706
2.60626e-05
0.000198332
1.86473e-05
0.000166887
-2.33246e-05
0.000155154
-2.30711e-05
0.000152978
-8.21437e-05
0.000125002
-6.85003e-05
-0.000141717
0.000160927
3.56675e-05
0.000235756
5.82341e-05
0.000190892
6.79999e-05
0.000178648
7.68056e-05
0.00015658
8.3832e-05
0.000146325
9.46444e-05
0.000142313
0.000104128
0.000136453
0.000118173
0.000123434
0.000133822
0.000119119
0.000146423
9.47915e-05
0.000158264
0.000175614
0.000158462
0.000102585
0.000168349
7.84312e-05
0.000176389
7.22172e-05
0.000173133
0.000112715
0.000152792
7.85761e-05
0.000100117
7.87377e-05
0.000103541
1.52234e-05
8.8081e-05
-7.86457e-06
0.000106398
-4.13885e-05
0.00012454
-0.000100285
0.000149068
-9.30292e-05
-0.00011052
0.000117871
2.24887e-05
0.000213267
4.25252e-05
0.000170855
5.41312e-05
0.000167042
6.25496e-05
0.000148161
7.04508e-05
0.000138424
7.90444e-05
0.000133719
8.55269e-05
0.00012997
8.7606e-05
0.000121355
9.22952e-05
0.00011443
8.14874e-05
0.000105599
0.000163079
9.40231e-05
0.000119522
0.000146142
0.00012741
7.05434e-05
7.60373e-05
0.000123589
7.62545e-05
0.000112498
8.05786e-05
7.42521e-05
0.00013675
2.2566e-05
0.000127705