/*--------------------------------*- C++ -*----------------------------------*\
| =========                 |                                                 |
| \\      /  F ield         | foam-extend: Open Source CFD                    |
|  \\    /   O peration     | Version:     4.1                                |
|   \\  /    A nd           | Web:         http://www.foam-extend.org         |
|    \\/     M anipulation  |                                                 |
\*---------------------------------------------------------------------------*/
FoamFile
{
    version     2.0;
    format      ascii;
    class       volVectorField;
    location    "0.75";
    object      U;
}
// * * * * * * * * * * * * * * * * * * * * * * * * * * * * * * * * * * * * * //

dimensions      [0 1 -1 0 0 0 0];

internalField   nonuniform List<vector> 
2268
(
(-0.0121135 0.0162826 0)
(-0.0723141 0.0221375 0)
(-0.0933532 0.0139846 0)
(-0.131689 -0.0178215 0)
(-0.154146 -0.000435035 0)
(-0.183478 -0.00860804 0)
(-0.206818 -0.00224847 0)
(-0.171523 0.00679701 0)
(-0.152766 -0.0139921 0)
(-0.0807161 -0.00599054 0)
(-0.0637306 0.00769767 0)
(-0.0651212 -0.018766 0)
(-0.0408495 0.00734604 0)
(-0.0391833 0.0128639 0)
(-0.0334793 0.000665593 0)
(-0.0219983 0.00295353 0)
(0.000429667 -0.0126983 0)
(0.00616833 0.002423 0)
(0.0169296 0.000874017 0)
(0.0160876 0.00251558 0)
(0.012032 0.00618983 0)
(0.00203391 0.000941617 0)
(0.00380682 0.000104779 0)
(-0.00767052 0.0235469 0)
(-0.0599005 0.0162178 0)
(-0.0887208 0.0117862 0)
(-0.139588 -0.0206078 0)
(-0.157091 0.0115172 0)
(-0.17578 0.035491 0)
(-0.202563 -0.000510411 0)
(-0.165304 -0.0187551 0)
(-0.122729 -0.00783901 0)
(-0.0770398 0.0314187 0)
(-0.0760645 -0.0217444 0)
(-0.0728951 -0.0168249 0)
(-0.0463129 0.0184758 0)
(-0.0613205 -0.0524956 0)
(-0.0619556 0.0178341 0)
(-0.0488029 -0.0253309 0)
(-0.0198601 -0.00166494 0)
(-0.00433898 -0.011013 0)
(0.00540198 -0.00523688 0)
(0.00815349 -0.00035425 0)
(0.00492945 0.000344497 0)
(-0.00446978 0.00302905 0)
(-0.00785791 0.00253257 0)
(-0.0214286 0.0497963 0)
(-0.0765847 0.0241929 0)
(-0.10631 0.0381293 0)
(-0.142452 0.000675552 0)
(-0.148084 0.0115913 0)
(-0.19882 -0.010243 0)
(-0.218959 -0.0137798 0)
(-0.162328 -0.04595 0)
(-0.119004 0.018644 0)
(-0.102543 -0.0586396 0)
(-0.0994707 -0.019 0)
(-0.0712826 -0.0145575 0)
(-0.0926122 -0.0126222 0)
(-0.0866185 -0.0298717 0)
(-0.0745301 -0.0121352 0)
(-0.0765352 -0.00523182 0)
(-0.0566184 -0.0110924 0)
(-0.0430348 -0.00957866 0)
(-0.0135508 -0.0149982 0)
(-0.00492865 0.00480157 0)
(-0.00167143 0.0126681 0)
(-0.00422707 0.00702552 0)
(-0.00621968 -0.00562004 0)
(-0.0426031 0.0677518 0)
(-0.0677458 0.0554649 0)
(-0.108423 0.0351165 0)
(-0.162573 -0.000320571 0)
(-0.151348 0.0275181 0)
(-0.196422 -0.0238341 0)
(-0.216536 -0.0203293 0)
(-0.154715 -0.00335244 0)
(-0.161573 0.0163873 0)
(-0.139609 -0.0644004 0)
(-0.116856 0.000551451 0)
(-0.1407 -0.00766378 0)
(-0.140957 -0.00911301 0)
(-0.143479 0.00588645 0)
(-0.142585 -0.0179849 0)
(-0.129831 -0.00794136 0)
(-0.125734 -0.0392365 0)
(-0.0905388 -0.0223656 0)
(-0.0687772 0.000911397 0)
(-0.0366221 -0.0120907 0)
(-0.0187694 -0.000451414 0)
(-0.0167681 0.00525337 0)
(-0.010777 -0.00279167 0)
(-0.037616 0.106492 0)
(-0.0883411 0.0529492 0)
(-0.124501 0.0319972 0)
(-0.14339 0.0230008 0)
(-0.150522 0.0286037 0)
(-0.222681 0.00688712 0)
(-0.230854 -0.0297023 0)
(-0.186658 0.00441035 0)
(-0.199624 -0.0475731 0)
(-0.156684 0.0214305 0)
(-0.140143 -0.00756982 0)
(-0.156583 -0.00294996 0)
(-0.16722 -0.0160831 0)
(-0.171793 -0.0170315 0)
(-0.169648 -0.0215874 0)
(-0.169476 -0.00637656 0)
(-0.148173 -0.0267801 0)
(-0.130607 -0.0345252 0)
(-0.120133 -0.0413003 0)
(-0.0981604 -0.0151485 0)
(-0.0585933 0.00669301 0)
(-0.022452 0.00362484 0)
(-0.0117148 -0.0183189 0)
(-0.070764 0.122731 0)
(-0.0949129 0.0971616 0)
(-0.128567 0.0501798 0)
(-0.185468 0.00344764 0)
(-0.178295 -0.037575 0)
(-0.236939 -0.00393912 0)
(-0.249428 -0.0432415 0)
(-0.195222 -0.0137658 0)
(-0.185839 0.0107755 0)
(-0.174928 0.0356101 0)
(-0.185747 0.00429161 0)
(-0.18902 0.00175228 0)
(-0.188003 -0.00987962 0)
(-0.187915 -0.00665973 0)
(-0.167722 -0.0124223 0)
(-0.160883 -0.0172394 0)
(-0.164946 -0.0607632 0)
(-0.148719 -0.04089 0)
(-0.132541 -0.0658415 0)
(-0.116564 -0.0414083 0)
(-0.116503 -0.0405062 0)
(-0.0583164 -0.0176317 0)
(-0.0236668 -0.0199021 0)
(-0.053013 0.162645 0)
(-0.0921461 0.111469 0)
(-0.133692 0.0841587 0)
(-0.216255 0.0424363 0)
(-0.196974 -0.0338057 0)
(-0.228642 0.0427669 0)
(-0.235338 0.000475832 0)
(-0.20827 -0.0286608 0)
(-0.206322 0.0278246 0)
(-0.19052 0.0258643 0)
(-0.193691 0.00408005 0)
(-0.190896 -0.00358191 0)
(-0.186458 -0.0191171 0)
(-0.18167 -0.033046 0)
(-0.176644 -0.0451781 0)
(-0.186677 -0.0332136 0)
(-0.172485 -0.118879 0)
(-0.142633 -0.0469122 0)
(-0.132974 -0.0688121 0)
(-0.115189 -0.0225085 0)
(-0.115192 -0.0579341 0)
(-0.064639 -0.0167355 0)
(-0.0240785 -0.0358239 0)
(-0.074696 0.17367 0)
(-0.123147 0.089259 0)
(-0.159297 0.076664 0)
(-0.239101 0.0292328 0)
(-0.214075 -0.0427871 0)
(-0.251861 -0.0070121 0)
(-0.312743 0.0410652 0)
(-0.219032 0.00224584 0)
(-0.195264 0.0323642 0)
(-0.212899 0.022769 0)
(-0.212722 0.00238511 0)
(-0.202883 -0.00591401 0)
(-0.20293 -0.0173965 0)
(-0.2025 -0.0209237 0)
(-0.176566 -0.0358035 0)
(-0.204536 0.00348909 0)
(-0.184141 -0.0917665 0)
(-0.120781 -0.0633477 0)
(-0.123034 -0.0910764 0)
(-0.110364 -0.0533079 0)
(-0.141954 -0.0670302 0)
(-0.0863622 -0.063794 0)
(-0.0322662 -0.0650707 0)
(-0.374591 0.106688 0)
(-0.58182 0.0358843 0)
(-0.793065 0.0550916 0)
(-0.911456 0.0124317 0)
(-1.01252 0.0325567 0)
(-1.04093 0.0223764 0)
(-1.02168 -0.00591327 0)
(-0.916275 -0.0495119 0)
(-0.805443 -0.0842839 0)
(-0.707037 -0.0739756 0)
(-0.512688 -0.131087 0)
(-0.385039 -0.0731761 0)
(-0.327582 -0.00863789 0)
(-0.206214 -0.0715127 0)
(-0.16824 -0.0502222 0)
(-0.242662 -0.0216594 0)
(-0.0877815 -0.0397097 0)
(-0.0428806 -0.0611329 0)
(0.00429497 -0.00291345 0)
(-0.35169 0.292121 0)
(-0.572989 0.138168 0)
(-0.709746 0.202088 0)
(-0.823057 0.0581423 0)
(-0.896116 0.0581525 0)
(-0.917275 0.0366884 0)
(-0.850964 -0.0621366 0)
(-0.741925 -0.134233 0)
(-0.650796 -0.100705 0)
(-0.590778 -0.177108 0)
(-0.347442 -0.141838 0)
(-0.267729 -0.0701127 0)
(-0.215375 -0.0754361 0)
(-0.183664 -0.0661634 0)
(-0.180079 -0.0185143 0)
(-0.306657 0.00547181 0)
(-0.156134 0.00537564 0)
(0.019422 -0.0174593 0)
(-0.076436 -0.0170303 0)
(-0.428082 0.469306 0)
(-0.461378 0.223184 0)
(-0.605451 0.175507 0)
(-0.665675 0.0948165 0)
(-0.664319 0.0364024 0)
(-0.628182 -0.00247595 0)
(-0.449503 -0.113273 0)
(-0.525444 -0.0369982 0)
(-0.260231 -0.0670753 0)
(-0.165478 -0.27331 0)
(0.120015 -0.151709 0)
(0.0539242 -0.0883449 0)
(0.164565 -0.08834 0)
(0.085442 -0.118443 0)
(-0.0514188 -0.0290184 0)
(0.0248026 -0.0435354 0)
(0.147267 -0.0889638 0)
(0.202641 -0.0146562 0)
(0.00856528 -0.0267725 0)
(-0.375412 0.526796 0)
(-0.317373 0.325598 0)
(-0.346032 0.208465 0)
(-0.359489 0.197844 0)
(-0.24438 0.0388519 0)
(-0.170197 -0.106978 0)
(0.155521 -0.280134 0)
(0.278587 -0.237764 0)
(0.277486 -0.06094 0)
(0.269381 -0.148091 0)
(0.333764 -0.241005 0)
(0.310267 -0.0713561 0)
(0.311985 -0.0349192 0)
(0.281129 -0.00672295 0)
(-0.0559715 0.0140371 0)
(0.252573 -0.0319581 0)
(0.166085 -0.111845 0)
(0.113764 0.0384472 0)
(0.297545 0.0665277 0)
(-0.361095 0.584499 0)
(-0.17909 0.390906 0)
(-0.241704 0.183032 0)
(-0.272242 0.0989832 0)
(0.0446301 -0.042407 0)
(0.0619239 -0.12891 0)
(0.173052 -0.260532 0)
(0.437512 -0.270742 0)
(0.504966 -0.131592 0)
(0.445627 -0.116845 0)
(0.448219 -0.152004 0)
(0.415907 -0.130053 0)
(0.320208 -0.122707 0)
(0.310086 0.0113159 0)
(0.142296 -0.0170966 0)
(0.220402 -0.0353319 0)
(0.0503029 -0.107451 0)
(-0.0362834 -0.0587515 0)
(0.295103 0.13461 0)
(-0.318191 0.648865 0)
(-0.106451 0.373163 0)
(-0.146444 0.106424 0)
(-0.116685 0.0494587 0)
(0.180694 -0.110173 0)
(0.0802609 -0.203249 0)
(0.112056 -0.295702 0)
(0.402296 -0.310798 0)
(0.492161 -0.143195 0)
(0.454997 -0.171365 0)
(0.426118 -0.0910446 0)
(0.394549 -0.139837 0)
(0.368018 -0.107641 0)
(0.361514 0.0630141 0)
(0.202022 0.056237 0)
(0.169837 0.0446628 0)
(0.030205 -0.0698858 0)
(0.0406549 -0.0597107 0)
(0.338756 0.177794 0)
(-0.305172 0.683702 0)
(-0.0370618 0.420997 0)
(-0.111141 0.156106 0)
(0.259705 -0.041633 0)
(0.209733 -0.101759 0)
(0.0498615 -0.297379 0)
(0.0771352 -0.323249 0)
(0.369704 -0.307456 0)
(0.460568 -0.285296 0)
(0.391927 -0.212604 0)
(0.353107 -0.149565 0)
(0.267375 -0.116118 0)
(0.262478 -0.0966279 0)
(0.322343 0.0785623 0)
(0.137643 0.081674 0)
(0.169559 0.0787789 0)
(0.0666968 -0.0806138 0)
(0.0341021 -0.103648 0)
(0.31043 0.206789 0)
(-0.286703 0.781793 0)
(-0.0157506 0.389916 0)
(0.0896557 0.119551 0)
(0.388137 -0.181285 0)
(0.264149 -0.0191075 0)
(-0.0671887 -0.217011 0)
(0.0489607 -0.396595 0)
(0.346574 -0.302988 0)
(0.443208 -0.300373 0)
(0.428179 -0.159789 0)
(0.341359 -0.162634 0)
(0.216428 -0.0985004 0)
(0.160594 -0.134837 0)
(0.245071 0.115598 0)
(-0.0806949 0.108342 0)
(0.0504736 0.0461199 0)
(0.3227 -0.0270179 0)
(-0.0560456 -0.0916655 0)
(0.0813319 0.304798 0)
(-0.0884655 0.283985 0)
(-0.113178 0.269148 0)
(-0.195637 0.193758 0)
(-0.337987 0.079599 0)
(-0.249322 -0.0223345 0)
(-0.21583 -0.048857 0)
(-0.235444 0.0320769 0)
(-0.223966 0.0414901 0)
(-0.224462 0.01976 0)
(-0.210026 0.00990584 0)
(-0.203483 -0.00161731 0)
(-0.195686 -0.00716725 0)
(-0.188726 -0.019999 0)
(-0.188008 -0.021577 0)
(-0.171624 -0.011192 0)
(-0.240605 -0.0628673 0)
(-0.200197 -0.0650494 0)
(-0.132804 -0.067053 0)
(-0.128308 -0.0783382 0)
(-0.0986033 -0.0811741 0)
(-0.152705 -0.0648452 0)
(-0.106153 -0.0650991 0)
(-0.0108422 -0.108076 0)
(-0.30562 0.651907 0)
(-0.398548 0.352712 0)
(-0.452632 0.129444 0)
(-0.484487 0.0597602 0)
(-0.331332 0.0891413 0)
(-0.27078 -0.00406946 0)
(-0.221739 0.0159849 0)
(-0.222009 -0.000825486 0)
(-0.206166 0.00459599 0)
(-0.208388 0.00136505 0)
(-0.196291 -0.00987613 0)
(-0.186397 -0.0236273 0)
(-0.169828 -0.0339339 0)
(-0.138097 -0.0297509 0)
(-0.198238 -0.0216072 0)
(-0.253052 -0.118399 0)
(-0.134363 -0.0488708 0)
(-0.118635 -0.125924 0)
(-0.170257 -0.0535392 0)
(-0.090524 -0.0736559 0)
(-0.058497 -0.0695331 0)
(-0.113061 -0.136392 0)
(-0.0865144 -0.0985053 0)
(-0.301471 0.63177 0)
(-0.298886 0.109541 0)
(-0.343551 -0.136634 0)
(-0.408256 -0.00129952 0)
(-0.396723 -0.0978697 0)
(-0.394837 0.108416 0)
(-0.474576 -0.0102243 0)
(-0.356276 0.00880118 0)
(-0.340425 0.0076033 0)
(-0.354305 0.00930573 0)
(-0.329053 -0.0239733 0)
(-0.289388 -0.0329783 0)
(-0.254217 -0.0439364 0)
(-0.232115 -0.0312403 0)
(-0.254987 -0.098172 0)
(-0.26915 -0.0952293 0)
(-0.219481 -0.100484 0)
(-0.229105 -0.190194 0)
(-0.165735 -0.0888356 0)
(-0.058609 -0.21541 0)
(0.0189783 -0.0120146 0)
(0.0123412 0.068002 0)
(-0.0584283 -0.0202562 0)
(-0.312433 1.13503 0)
(-0.283076 0.389665 0)
(-0.399956 0.213816 0)
(-0.594163 0.186792 0)
(-0.64149 -0.000970705 0)
(-0.850001 -0.282462 0)
(-1.09571 0.0511715 0)
(-1.12899 0.24575 0)
(-1.39883 0.109653 0)
(-1.79817 0.0118792 0)
(-1.85436 -0.0754827 0)
(-1.54156 -0.143125 0)
(-0.769726 -0.0728397 0)
(-0.356702 -0.00564922 0)
(-0.51738 -0.0615804 0)
(-0.621753 -0.13719 0)
(-0.754332 -0.0781063 0)
(-0.641439 -0.0216936 0)
(-0.355995 -0.368423 0)
(-0.189336 -0.416706 0)
(-0.0825032 -0.249231 0)
(0.152824 -0.128779 0)
(-0.135601 0.0376268 0)
(-0.346479 1.29513 0)
(-0.327738 0.211023 0)
(-0.525219 0.463178 0)
(-1.15662 0.679532 0)
(-1.77097 0.439809 0)
(-2.54124 0.555887 0)
(-3.36181 0.591412 0)
(-3.55482 0.647061 0)
(-3.30424 -0.0904123 0)
(-2.77861 -0.675781 0)
(-2.26946 -0.669536 0)
(-1.94076 -0.626236 0)
(-1.614 -0.490257 0)
(-0.901187 -0.551156 0)
(-0.571805 -0.147113 0)
(-0.510887 -0.0172645 0)
(-0.474027 0.146403 0)
(-0.469678 -0.256921 0)
(-0.454161 -0.402415 0)
(-0.458725 -0.366338 0)
(-0.463639 -0.159569 0)
(-0.47512 0.217891 0)
(-0.632107 0.556238 0)
(-0.357916 1.41887 0)
(-0.234143 0.955009 0)
(-0.868996 0.83059 0)
(-1.33671 1.11884 0)
(-1.59803 1.19022 0)
(-2.61681 1.25283 0)
(-3.13009 0.666512 0)
(-2.56208 -0.345619 0)
(-2.15673 -0.62166 0)
(-1.95779 -0.721624 0)
(-1.77048 -0.739875 0)
(-1.60008 -0.652134 0)
(-1.42934 -0.681166 0)
(-1.30606 -0.735785 0)
(-1.16658 -0.610379 0)
(-1.07615 -0.43605 0)
(-0.40052 -0.0658187 0)
(-0.497406 -0.212263 0)
(-0.695544 -0.393644 0)
(-0.592532 -0.358733 0)
(-0.625536 -0.186773 0)
(-0.601016 0.149614 0)
(-0.746434 0.447857 0)
(-0.263885 1.58795 0)
(-0.559892 1.46595 0)
(-1.07153 1.67654 0)
(-1.0418 1.77583 0)
(-1.59009 2.10701 0)
(-2.70524 2.02895 0)
(-2.81157 0.645108 0)
(-2.10765 -0.451157 0)
(-1.92989 -0.611659 0)
(-1.86662 -0.709165 0)
(-1.72862 -0.788732 0)
(-1.59387 -0.747569 0)
(-1.51929 -0.800473 0)
(-1.46802 -0.834015 0)
(-1.43006 -0.821114 0)
(-1.35383 -0.766416 0)
(-0.981861 -0.565527 0)
(-0.649364 -0.208344 0)
(-0.629 -0.283012 0)
(-0.644835 -0.177552 0)
(-0.739093 -0.147107 0)
(-0.667916 0.0849746 0)
(-0.632727 0.227109 0)
(-0.252825 1.83138 0)
(-0.366068 1.47024 0)
(-0.775625 1.89414 0)
(-0.883435 2.02057 0)
(-0.970281 2.07624 0)
(-1.99279 2.152 0)
(-2.63512 0.854889 0)
(-1.94222 -0.288423 0)
(-1.827 -0.660406 0)
(-1.85578 -0.834654 0)
(-1.76741 -0.884904 0)
(-1.64562 -0.90686 0)
(-1.57885 -0.929111 0)
(-1.54797 -0.915399 0)
(-1.54606 -0.903954 0)
(-1.40234 -0.900458 0)
(-1.19502 -0.875626 0)
(-0.926347 -0.563847 0)
(-0.614329 -0.405932 0)
(-0.787009 -0.250453 0)
(-0.835203 -0.157744 0)
(-0.479827 0.0689589 0)
(-0.387831 0.180421 0)
(-0.34907 2.00639 0)
(-0.382886 1.55774 0)
(-0.546166 1.76479 0)
(-0.49014 2.11274 0)
(-0.570643 2.43091 0)
(-0.744626 2.80144 0)
(-1.61929 1.44952 0)
(-1.72388 0.0113706 0)
(-1.4874 -0.930471 0)
(-1.47522 -1.15456 0)
(-1.73104 -1.07846 0)
(-1.85722 -1.1453 0)
(-1.79382 -1.15607 0)
(-1.66097 -0.999955 0)
(-1.50675 -0.943459 0)
(-1.33065 -0.982771 0)
(-1.25187 -0.942348 0)
(-1.0929 -0.781831 0)
(-1.02439 -0.492035 0)
(-0.97723 -0.45243 0)
(-0.787773 -0.105121 0)
(-0.543151 0.150485 0)
(-0.380193 0.140635 0)
(-0.380531 2.23784 0)
(-0.416929 1.79208 0)
(-0.443011 1.87898 0)
(-0.32673 1.90814 0)
(-0.0206689 2.41816 0)
(-0.313802 2.84311 0)
(-1.073 1.37094 0)
(-1.14246 -0.0291119 0)
(-1.13575 -0.663727 0)
(-1.22263 -1.01889 0)
(-1.37506 -1.64406 0)
(-1.43656 -1.75451 0)
(-1.57504 -1.25165 0)
(-1.54206 -1.09115 0)
(-1.27329 -1.06963 0)
(-1.1872 -1.06178 0)
(-1.20285 -1.04481 0)
(-1.15244 -0.897674 0)
(-1.17792 -0.543538 0)
(-1.21798 -0.559409 0)
(-1.19046 -0.589561 0)
(-1.00385 -0.420088 0)
(-0.866235 -0.442349 0)
(-0.416514 2.43057 0)
(-0.424279 1.94873 0)
(-0.509653 1.97765 0)
(-0.313417 1.96942 0)
(-0.0273217 2.41973 0)
(-0.0345113 2.5602 0)
(-0.369957 1.64962 0)
(-0.859879 0.315258 0)
(-1.06999 -0.607277 0)
(-1.23519 -0.922896 0)
(-1.15567 -1.06164 0)
(-1.04148 -1.08977 0)
(-1.15601 -1.21805 0)
(-1.24886 -1.18193 0)
(-1.11198 -1.20809 0)
(-1.09564 -1.08382 0)
(-1.14879 -1.08668 0)
(-1.14764 -1.03341 0)
(-1.14874 -0.582505 0)
(-1.20185 -0.545616 0)
(-1.2049 -0.664138 0)
(-1.08478 -0.748528 0)
(-1.05015 -0.759565 0)
(-0.403886 2.64726 0)
(-0.31942 2.08063 0)
(-0.363482 2.05412 0)
(-0.234215 2.30229 0)
(-0.127838 2.41811 0)
(0.0650891 2.66286 0)
(0.052825 2.09458 0)
(-0.512712 0.839326 0)
(-0.854679 -0.595797 0)
(-1.00925 -0.928629 0)
(-0.660296 -1.06367 0)
(-0.776765 -0.959325 0)
(-1.08847 -1.0198 0)
(-1.14453 -1.09001 0)
(-1.07748 -1.14083 0)
(-1.17551 -1.04194 0)
(-1.22527 -1.02017 0)
(-1.21928 -0.897794 0)
(-1.22686 -0.63187 0)
(-1.14832 -0.659863 0)
(-1.10949 -0.723733 0)
(-1.16887 -0.836215 0)
(-1.14932 -0.810801 0)
(-0.339399 2.795 0)
(-0.0561395 2.1512 0)
(-0.301577 1.90929 0)
(-0.134407 2.22447 0)
(-0.10944 2.26388 0)
(0.133162 2.52812 0)
(0.281955 2.23649 0)
(0.166635 1.15999 0)
(0.104207 -0.174514 0)
(-0.171724 -0.429462 0)
(0.245188 -1.01441 0)
(-0.221328 -1.285 0)
(-0.876407 -0.938447 0)
(-1.00568 -0.904604 0)
(-0.933139 -0.828636 0)
(-1.43071 -0.976773 0)
(-1.91349 -0.926771 0)
(-1.74536 -0.950701 0)
(-1.61804 -0.686935 0)
(-1.60926 -0.600863 0)
(-1.30288 -0.882991 0)
(-1.15388 -1.01161 0)
(-1.36055 -1.00654 0)
(-0.183283 2.8424 0)
(0.122588 2.16706 0)
(-0.15379 1.72709 0)
(0.0862346 2.35951 0)
(0.0683492 1.86881 0)
(0.312419 2.18555 0)
(0.565252 2.10032 0)
(0.636559 1.24873 0)
(1.13735 0.117864 0)
(1.01169 -0.976206 0)
(0.743624 -1.07036 0)
(0.678765 -0.640813 0)
(-0.0312122 -0.407205 0)
(-0.859037 -0.549949 0)
(-1.23579 -0.467701 0)
(-1.46679 -0.812752 0)
(-2.04293 -0.592429 0)
(-1.91354 -0.707287 0)
(-1.80388 -0.836502 0)
(-1.90907 -0.799171 0)
(-1.94773 -0.734826 0)
(-1.79003 -0.953866 0)
(-1.86177 -1.00471 0)
(-0.0267542 2.98645 0)
(0.185934 2.34465 0)
(0.314503 1.63463 0)
(0.143372 2.07647 0)
(-0.0481618 1.7004 0)
(0.758193 1.92227 0)
(1.12031 1.77511 0)
(1.13712 0.890799 0)
(1.68561 0.23077 0)
(1.77199 -0.585312 0)
(1.67458 -0.430229 0)
(1.58264 -0.00835212 0)
(0.55556 0.279098 0)
(-0.247557 0.203869 0)
(-1.31914 -0.264771 0)
(-1.62958 -0.620958 0)
(-1.8521 -0.492966 0)
(-1.97891 -0.601556 0)
(-1.87541 -0.848521 0)
(-1.89831 -0.902433 0)
(-2.09429 -1.0485 0)
(-2.22473 -1.20672 0)
(-2.34707 -1.32671 0)
(0.0183767 3.09131 0)
(-0.00351643 2.4052 0)
(0.196152 1.78108 0)
(0.106739 1.74895 0)
(-0.0484125 1.40726 0)
(0.826091 1.49467 0)
(1.29015 1.1444 0)
(1.32858 0.402313 0)
(1.86429 -0.1593 0)
(2.20128 -0.725614 0)
(2.10451 -0.375512 0)
(2.05115 0.121377 0)
(1.54015 0.7484 0)
(0.851729 0.827636 0)
(0.0895611 0.585763 0)
(-0.411124 0.493998 0)
(-1.4675 -0.0249495 0)
(-1.91556 -0.0973463 0)
(-1.80432 -0.685773 0)
(-2.00858 -0.932352 0)
(-2.14268 -0.967285 0)
(-2.13471 -1.00012 0)
(-2.13171 -0.989161 0)
(-0.00351967 3.04362 0)
(-0.0128685 2.45469 0)
(0.00246659 2.57439 0)
(-0.118628 1.85697 0)
(-0.329847 1.43278 0)
(0.615081 1.15906 0)
(0.947609 0.287019 0)
(1.35322 0.0792779 0)
(1.6535 -0.51048 0)
(0.962719 -0.448985 0)
(0.65901 -0.142031 0)
(1.04686 0.486803 0)
(0.818869 1.47617 0)
(0.32275 1.19323 0)
(0.0991265 1.04091 0)
(-0.480004 0.845029 0)
(-1.46651 0.306389 0)
(-1.88091 0.0428823 0)
(-2.02645 -0.312163 0)
(-2.06687 -0.773059 0)
(-2.21391 -0.891252 0)
(-2.22729 -0.90003 0)
(-2.12365 -0.900993 0)
(0.0668499 2.84242 0)
(0.146706 2.48485 0)
(-0.0693541 2.52748 0)
(-0.712124 2.07577 0)
(-0.896686 2.11133 0)
(0.003039 0.996315 0)
(-0.39794 -0.471757 0)
(0.232123 -0.219355 0)
(-0.175675 -0.0450876 0)
(-0.368676 0.0273762 0)
(-0.499701 0.0482285 0)
(-0.556869 0.354925 0)
(-0.513784 0.900685 0)
(-0.299419 1.01922 0)
(-0.371032 1.30056 0)
(-0.8351 1.2483 0)
(-1.11372 1.03058 0)
(-1.49231 0.513414 0)
(-1.52793 -0.163216 0)
(-1.98627 -0.569182 0)
(-2.03628 -0.811874 0)
(-1.96457 -0.817264 0)
(-1.96666 -0.762143 0)
(0.06527 2.84611 0)
(0.116321 2.52283 0)
(-0.254149 2.36767 0)
(-0.964603 2.19718 0)
(-1.40353 1.7557 0)
(-1.22526 0.420409 0)
(-0.977157 0.121608 0)
(-0.947432 0.0561561 0)
(-0.913939 0.0750339 0)
(-0.77544 0.126183 0)
(-0.797272 0.15954 0)
(-1.14261 0.632471 0)
(-1.0948 1.34276 0)
(-0.800252 1.53719 0)
(-0.795371 1.64712 0)
(-0.693585 1.56009 0)
(-0.773824 1.10581 0)
(-1.22703 0.515886 0)
(-1.20636 -0.286772 0)
(-1.38972 -0.675061 0)
(-1.27934 -0.999115 0)
(-1.00627 -1.08574 0)
(-1.14621 -0.977497 0)
(0.0329156 2.85937 0)
(-0.0322618 2.62115 0)
(-0.328445 2.57781 0)
(-0.958031 2.5221 0)
(-1.29557 1.46621 0)
(-1.30701 0.378594 0)
(-1.29061 -0.0389845 0)
(-1.30648 -0.20319 0)
(-1.15838 -0.279843 0)
(-0.916059 0.0288479 0)
(-1.02558 0.564803 0)
(-1.28044 1.14546 0)
(-1.31191 1.86599 0)
(-1.28702 2.17297 0)
(-1.16057 2.27926 0)
(-0.87346 2.22803 0)
(-0.625068 1.59146 0)
(-0.724863 1.08787 0)
(-0.795987 0.0824687 0)
(-0.99792 -0.527158 0)
(-1.15617 -0.936243 0)
(-0.835049 -1.45235 0)
(-0.716143 -1.68461 0)
(0.018165 2.86464 0)
(0.0291196 2.68951 0)
(-0.0896788 2.8801 0)
(-0.450375 2.99608 0)
(-0.858822 1.97027 0)
(-1.12282 0.755216 0)
(-1.39174 0.203342 0)
(-1.44594 -0.0653881 0)
(-1.4543 -0.189959 0)
(-1.43633 -0.198175 0)
(-1.32496 0.249844 0)
(-1.08355 0.856209 0)
(-1.24559 1.23008 0)
(-1.25405 1.86896 0)
(-0.954719 2.08323 0)
(-0.87054 2.08539 0)
(-0.787153 1.91927 0)
(-0.643208 1.13121 0)
(-0.557195 -0.0370348 0)
(-0.537933 -0.7638 0)
(-0.649244 -0.96033 0)
(-0.538905 -1.04907 0)
(-0.208099 -1.33631 0)
(0.00898031 2.87079 0)
(0.0882664 2.78987 0)
(0.109772 2.87537 0)
(-0.0503545 2.95891 0)
(-0.543809 2.13337 0)
(-1.06099 0.60541 0)
(-1.28813 0.0157997 0)
(-1.31303 -0.261419 0)
(-1.41364 -0.279157 0)
(-1.57685 0.169608 0)
(-1.53367 0.451038 0)
(-1.63208 0.396379 0)
(-1.71943 0.698356 0)
(-1.12806 1.18187 0)
(-0.691395 1.13365 0)
(-0.573608 1.4055 0)
(-0.56102 1.49726 0)
(-0.477482 1.0155 0)
(-0.30319 -0.045882 0)
(-0.318045 -0.519581 0)
(-0.406599 -0.768901 0)
(-0.140868 -1.01168 0)
(-0.0325267 -1.15656 0)
(-0.00866437 2.78955 0)
(0.0869551 2.77435 0)
(0.199974 2.92096 0)
(0.533631 2.98621 0)
(0.257311 2.69068 0)
(-0.70667 1.08801 0)
(-1.32202 0.457314 0)
(-1.33023 0.17449 0)
(-1.42167 0.0560081 0)
(-1.7245 -0.07126 0)
(-2.05406 -0.254459 0)
(-2.32451 -0.129241 0)
(-1.71233 0.732033 0)
(-1.14714 1.00161 0)
(-0.855485 0.989177 0)
(-0.468551 0.991063 0)
(-0.205468 0.776377 0)
(-0.310555 0.774696 0)
(-0.0796899 -0.353258 0)
(0.170957 -1.1593 0)
(0.288237 -1.42184 0)
(0.165452 -1.46844 0)
(0.326114 -1.46024 0)
(0.0896493 2.56472 0)
(0.182394 2.65378 0)
(0.281344 2.89222 0)
(0.819699 3.01512 0)
(1.13094 2.86623 0)
(0.620485 1.69186 0)
(-0.649825 0.658065 0)
(-0.730277 0.703378 0)
(-0.702054 0.270552 0)
(-1.24393 0.0119325 0)
(-1.50779 -0.327865 0)
(-1.77219 0.007352 0)
(-1.65476 0.196602 0)
(-0.963088 0.691966 0)
(-0.815791 0.994799 0)
(-0.456277 1.1326 0)
(-0.18574 1.0154 0)
(0.0774358 0.631146 0)
(0.118419 -0.319192 0)
(0.316154 -1.18379 0)
(0.710231 -1.69393 0)
(0.677393 -1.86374 0)
(0.433843 -1.76854 0)
(0.135427 2.34377 0)
(0.488514 2.35119 0)
(0.519517 2.71408 0)
(0.898073 2.75196 0)
(1.32581 2.70676 0)
(1.48866 2.12963 0)
(0.823907 1.40715 0)
(0.778278 1.11089 0)
(0.302346 0.763322 0)
(-0.0399335 0.0819297 0)
(-0.823305 -0.167299 0)
(-1.03975 -0.149108 0)
(-1.26128 0.203043 0)
(-0.733889 0.650443 0)
(-0.408004 0.96517 0)
(-0.278422 0.8593 0)
(0.164901 1.31393 0)
(0.0804811 0.538788 0)
(0.669761 -0.248145 0)
(0.58857 -1.34692 0)
(0.791493 -1.59089 0)
(0.901115 -1.83573 0)
(0.950183 -1.67564 0)
(0.230292 2.48687 0)
(0.571467 2.39452 0)
(0.565659 2.36789 0)
(0.812785 2.54916 0)
(1.27495 2.50217 0)
(1.79927 2.14616 0)
(1.52423 1.77707 0)
(1.5035 1.4402 0)
(1.42155 1.31319 0)
(1.21638 0.793922 0)
(0.490217 0.227366 0)
(0.00714966 -0.176921 0)
(-0.0597302 0.0172101 0)
(-0.189576 0.615963 0)
(-0.0138466 0.997371 0)
(0.100454 0.830626 0)
(0.561509 0.794741 0)
(0.877353 0.311501 0)
(0.913736 -0.858706 0)
(1.18671 -1.57398 0)
(1.41858 -1.5259 0)
(1.19249 -1.40812 0)
(1.09786 -1.38344 0)
(0.0043928 2.96325 0)
(0.42694 2.37015 0)
(0.544976 2.25769 0)
(0.757887 2.33304 0)
(1.19876 2.6044 0)
(1.74933 2.16544 0)
(1.65234 1.73561 0)
(1.90439 1.62455 0)
(1.85309 1.40808 0)
(1.43137 0.913226 0)
(1.20186 0.56915 0)
(0.980002 0.367882 0)
(1.03523 0.28042 0)
(0.989928 0.513805 0)
(0.866862 0.309502 0)
(0.970102 0.42826 0)
(1.04604 0.202822 0)
(1.46685 -0.209626 0)
(1.50166 -1.16871 0)
(1.67505 -1.25705 0)
(1.60669 -1.27974 0)
(1.32495 -1.31718 0)
(1.19361 -1.38976 0)
(-0.46528 2.64971 0)
(-0.019806 2.17525 0)
(0.467166 2.28926 0)
(0.984884 2.15137 0)
(1.23648 2.46383 0)
(1.45346 2.08983 0)
(1.54143 1.78671 0)
(1.83639 1.55891 0)
(1.86499 1.31447 0)
(1.59861 0.996906 0)
(1.63653 0.803557 0)
(1.54916 0.825131 0)
(1.56593 0.910835 0)
(1.53191 0.805934 0)
(1.42742 0.321156 0)
(1.78941 0.0776122 0)
(1.8703 -0.242244 0)
(1.85724 -0.84563 0)
(1.73834 -0.96316 0)
(1.78266 -0.98291 0)
(1.70853 -1.10205 0)
(1.33985 -1.20567 0)
(1.31811 -1.45986 0)
(-0.327069 1.97253 0)
(0.211457 2.19894 0)
(0.451233 2.21914 0)
(0.95811 2.06244 0)
(1.11692 2.08869 0)
(1.05755 1.92142 0)
(1.1041 1.5247 0)
(1.4643 1.42996 0)
(1.75942 1.17214 0)
(1.6533 1.08986 0)
(1.76483 0.928366 0)
(1.97453 1.01124 0)
(1.84597 1.01068 0)
(1.62335 0.737934 0)
(1.54944 0.558138 0)
(1.77611 0.344996 0)
(1.75363 0.056918 0)
(1.75827 -0.137907 0)
(1.701 -0.380324 0)
(1.65285 -0.577633 0)
(1.47904 -0.940465 0)
(1.13978 -1.18481 0)
(1.25784 -1.49547 0)
(-0.203232 1.81793 0)
(0.349267 1.91188 0)
(0.370584 1.8217 0)
(0.647536 1.79376 0)
(0.934234 1.60045 0)
(0.965972 1.65615 0)
(1.09436 1.55351 0)
(1.45321 1.53793 0)
(1.54164 1.30335 0)
(1.49215 1.11665 0)
(1.64632 1.05335 0)
(1.88603 0.801378 0)
(1.74533 0.693137 0)
(1.58749 0.433005 0)
(1.67827 0.372937 0)
(1.65543 0.204801 0)
(1.65414 -0.140193 0)
(1.69239 -0.269003 0)
(1.65532 -0.595815 0)
(1.37127 -0.697955 0)
(1.30204 -1.02666 0)
(1.19099 -1.16742 0)
(1.38319 -1.06058 0)
(-0.105303 1.81082 0)
(0.138643 1.80202 0)
(0.303412 1.65635 0)
(0.709251 1.80253 0)
(0.842526 1.7576 0)
(0.971208 1.69032 0)
(1.01462 1.62441 0)
(1.2399 1.47957 0)
(1.18017 1.17702 0)
(1.27866 1.03947 0)
(1.36334 0.991659 0)
(1.51938 0.808496 0)
(1.44035 0.375885 0)
(1.50682 0.374092 0)
(1.55008 0.281519 0)
(1.49737 -0.0328279 0)
(1.53883 -0.0446727 0)
(1.4471 -0.0419815 0)
(1.29183 -0.32439 0)
(1.19453 -0.401186 0)
(1.05061 -0.623505 0)
(1.02485 -0.687179 0)
(1.09778 -0.729637 0)
(-0.0343832 1.75254 0)
(0.171973 1.7302 0)
(0.325292 1.81377 0)
(0.758503 1.65521 0)
(0.744356 1.67081 0)
(0.751474 1.59261 0)
(0.835083 1.5011 0)
(0.922267 1.31624 0)
(0.912786 0.946713 0)
(0.972487 0.870061 0)
(1.13233 0.754284 0)
(1.20283 0.605935 0)
(1.15759 0.525607 0)
(1.31366 0.430226 0)
(1.23145 0.307071 0)
(1.35701 0.180065 0)
(1.86769 0.00778138 0)
(1.59287 -0.149453 0)
(0.95633 -0.228256 0)
(0.881358 -0.410163 0)
(0.91047 -0.500387 0)
(0.90143 -0.508221 0)
(0.946463 -0.570447 0)
(0.0592276 1.72051 0)
(0.277655 1.59666 0)
(0.313422 1.67941 0)
(0.515267 1.52638 0)
(0.550286 1.25539 0)
(0.610721 1.24823 0)
(0.720866 1.26441 0)
(0.807206 1.21048 0)
(0.823707 0.975284 0)
(0.875953 0.900685 0)
(1.03245 0.846511 0)
(1.02281 0.608958 0)
(0.994328 0.588474 0)
(1.08281 0.459604 0)
(1.01179 0.314871 0)
(1.06682 0.2819 0)
(1.18894 0.0990553 0)
(0.990659 -0.283808 0)
(0.872099 -0.155967 0)
(0.824506 -0.244973 0)
(0.758034 -0.288393 0)
(0.720573 -0.421085 0)
(0.657289 -0.542673 0)
(0.127659 1.5251 0)
(0.275174 1.37678 0)
(0.244748 1.36801 0)
(0.394125 1.26029 0)
(0.437261 1.23282 0)
(0.516843 1.22825 0)
(0.547115 1.14832 0)
(0.67931 1.10777 0)
(0.724696 0.806834 0)
(0.766983 0.78758 0)
(0.8627 0.74729 0)
(0.844328 0.642491 0)
(0.741397 0.502346 0)
(0.852626 0.43377 0)
(0.828917 0.326632 0)
(0.91708 0.242609 0)
(1.24723 0.0805126 0)
(1.18346 -0.111874 0)
(0.956703 -0.116562 0)
(0.558988 -0.2937 0)
(0.591735 -0.374962 0)
(0.546363 -0.39721 0)
(0.499966 -0.599552 0)
(0.260666 1.58019 0)
(0.409024 1.42826 0)
(0.289527 1.32784 0)
(0.342623 1.20542 0)
(0.344674 1.11195 0)
(0.388175 1.10187 0)
(0.422237 1.02603 0)
(0.394662 0.98088 0)
(0.560191 0.848324 0)
(0.755709 0.769659 0)
(0.767137 0.692248 0)
(0.785954 0.688923 0)
(0.751705 0.62032 0)
(0.765654 0.598618 0)
(0.720628 0.424553 0)
(0.780483 0.422045 0)
(0.904231 0.140667 0)
(0.78998 0.057144 0)
(0.675986 -0.230389 0)
(0.592553 -0.191254 0)
(0.597824 -0.268536 0)
(0.508003 -0.346661 0)
(0.507822 -0.44053 0)
(0.211289 1.72245 0)
(0.27769 1.44728 0)
(0.195227 1.30867 0)
(0.283631 1.15737 0)
(0.282398 1.07443 0)
(0.323739 1.07254 0)
(0.366393 1.03089 0)
(0.391638 0.943086 0)
(0.467543 0.935313 0)
(0.526275 0.730426 0)
(0.592071 0.686104 0)
(0.605134 0.735341 0)
(0.619635 0.616652 0)
(0.625014 0.563677 0)
(0.676998 0.421404 0)
(0.59531 0.388722 0)
(0.586706 0.26653 0)
(0.775978 0.0583831 0)
(0.725072 -0.124502 0)
(0.503371 -0.164016 0)
(0.327088 -0.356115 0)
(0.549157 -0.650305 0)
(0.522247 -0.706042 0)
(0.16767 1.61749 0)
(0.160139 1.27442 0)
(0.15148 1.24154 0)
(0.230414 1.09823 0)
(0.225536 1.02982 0)
(0.276648 0.97562 0)
(0.295547 0.935974 0)
(0.325088 0.848598 0)
(0.311808 0.80097 0)
(0.401185 0.665071 0)
(0.650516 0.662651 0)
(0.583596 0.650663 0)
(0.404543 0.507514 0)
(0.51198 0.463357 0)
(0.554367 0.400153 0)
(0.548624 0.220221 0)
(0.535859 0.259004 0)
(0.508769 0.172376 0)
(0.407599 0.0772905 0)
(0.43376 -0.0986113 0)
(0.246762 -0.369428 0)
(0.412439 -0.59926 0)
(0.668731 -0.783609 0)
(0.0990984 1.39009 0)
(0.102453 1.15671 0)
(0.153949 1.14326 0)
(0.194275 1.02128 0)
(0.2061 0.956953 0)
(0.236365 0.942508 0)
(0.259426 0.917492 0)
(0.281574 0.867585 0)
(0.310764 0.793182 0)
(0.32477 0.747363 0)
(0.405991 0.645826 0)
(0.441685 0.487156 0)
(0.430042 0.463629 0)
(0.509612 0.458226 0)
(0.538962 0.445883 0)
(0.498147 0.313102 0)
(0.476173 0.0865314 0)
(0.254904 -0.00836856 0)
(0.188672 -0.0421523 0)
(0.173717 -0.219992 0)
(0.189773 -0.340741 0)
(0.408397 -0.409308 0)
(0.476732 -0.662514 0)
(0.0750742 1.2966 0)
(0.0790144 1.12554 0)
(0.139362 1.09465 0)
(0.170404 0.997449 0)
(0.185528 0.937286 0)
(0.221243 0.886909 0)
(0.204757 0.840344 0)
(0.222742 0.794677 0)
(0.225462 0.735579 0)
(0.180567 0.623596 0)
(0.230475 0.530323 0)
(0.362965 0.495264 0)
(0.414222 0.474796 0)
(0.600202 0.386945 0)
(0.519551 0.376539 0)
(0.323825 0.295429 0)
(0.347677 0.183634 0)
(0.358928 0.131931 0)
(0.25851 0.115778 0)
(0.250069 -0.0159375 0)
(0.245282 -0.267466 0)
(0.312483 -0.429541 0)
(0.359429 -0.685719 0)
(0.0555205 1.07119 0)
(0.0612675 0.992319 0)
(0.110705 0.945537 0)
(0.125318 0.9046 0)
(0.149831 0.827788 0)
(0.171477 0.895698 0)
(0.160658 0.904157 0)
(0.165295 0.823878 0)
(0.173136 0.83635 0)
(0.168551 0.72135 0)
(0.161182 0.689802 0)
(0.188503 0.706724 0)
(0.2678 0.634409 0)
(0.474632 0.487493 0)
(0.51626 0.3579 0)
(0.380109 0.383068 0)
(0.390978 0.349321 0)
(0.307856 0.226738 0)
(0.367916 0.141982 0)
(0.29709 -0.143937 0)
(0.243075 -0.322309 0)
(0.336 -0.583825 0)
(0.217728 -0.629359 0)
(0.0415545 1.08015 0)
(0.04227 1.02993 0)
(0.0971811 0.981714 0)
(0.0885829 0.938666 0)
(0.196898 0.853205 0)
(0.300242 0.850001 0)
(0.196575 0.728503 0)
(0.147847 0.750914 0)
(0.162702 0.650202 0)
(0.0417152 0.606131 0)
(0.192175 0.564717 0)
(0.177275 0.565008 0)
(0.0980903 0.540027 0)
(0.421436 0.450012 0)
(0.437682 0.325625 0)
(0.320655 0.346609 0)
(0.251665 0.304428 0)
(0.317238 0.216704 0)
(0.391486 0.187496 0)
(0.326907 -0.180416 0)
(0.142166 -0.417235 0)
(0.311546 -0.609285 0)
(0.28346 -0.664213 0)