/*--------------------------------*- C++ -*----------------------------------*\
| =========                 |                                                 |
| \\      /  F ield         | foam-extend: Open Source CFD                    |
|  \\    /   O peration     | Version:     4.1                                |
|   \\  /    A nd           | Web:         http://www.foam-extend.org         |
|    \\/     M anipulation  |                                                 |
\*---------------------------------------------------------------------------*/
FoamFile
{
    version     2.0;
    format      ascii;
    class       volVectorField;
    location    "0.75";
    object      U_0;
}
// * * * * * * * * * * * * * * * * * * * * * * * * * * * * * * * * * * * * * //

dimensions      [0 1 -1 0 0 0 0];

internalField   nonuniform List<vector> 
2268
(
(-0.0121219 0.0163006 0)
(-0.0728518 0.0222887 0)
(-0.0941611 0.0140351 0)
(-0.132666 -0.0179494 0)
(-0.155128 -0.000441583 0)
(-0.183956 -0.0087896 0)
(-0.207128 -0.00223106 0)
(-0.171522 0.00686448 0)
(-0.152643 -0.0138903 0)
(-0.0806855 -0.00589442 0)
(-0.0636436 0.0076712 0)
(-0.0650282 -0.0187086 0)
(-0.0408841 0.00736503 0)
(-0.039084 0.013307 0)
(-0.0333097 0.000644456 0)
(-0.0219791 0.00295464 0)
(0.000341463 -0.0126273 0)
(0.00612237 0.00242593 0)
(0.0168291 0.000871654 0)
(0.0160418 0.00251045 0)
(0.0120005 0.00616117 0)
(0.00206609 0.000933735 0)
(0.00384415 0.000104635 0)
(-0.00772951 0.0237805 0)
(-0.0605687 0.016434 0)
(-0.08975 0.0119219 0)
(-0.140501 -0.0207965 0)
(-0.158064 0.0114335 0)
(-0.17631 0.035394 0)
(-0.202737 -0.000616774 0)
(-0.165446 -0.0189506 0)
(-0.12269 -0.00795264 0)
(-0.0768755 0.0313163 0)
(-0.0759818 -0.0218291 0)
(-0.0728182 -0.0168278 0)
(-0.0461729 0.018422 0)
(-0.0612358 -0.052157 0)
(-0.0619657 0.0177548 0)
(-0.0487469 -0.0252219 0)
(-0.0199202 -0.0016813 0)
(-0.00438977 -0.0109879 0)
(0.00530245 -0.00524823 0)
(0.00809386 -0.000375486 0)
(0.0048975 0.000314448 0)
(-0.00441722 0.00301532 0)
(-0.00782385 0.00256488 0)
(-0.0216501 0.050189 0)
(-0.0772358 0.0244111 0)
(-0.107195 0.0382622 0)
(-0.143388 0.000411679 0)
(-0.148891 0.01133 0)
(-0.199397 -0.0106131 0)
(-0.219463 -0.0140373 0)
(-0.162276 -0.0461017 0)
(-0.118744 0.0185838 0)
(-0.102228 -0.0586305 0)
(-0.0991633 -0.0189163 0)
(-0.0710411 -0.0145676 0)
(-0.0924427 -0.0126298 0)
(-0.0864031 -0.0300095 0)
(-0.0744175 -0.0121303 0)
(-0.0764513 -0.00520087 0)
(-0.0565511 -0.0110131 0)
(-0.0430201 -0.00954608 0)
(-0.0136396 -0.0149942 0)
(-0.00497423 0.00473139 0)
(-0.00170409 0.0126135 0)
(-0.00416129 0.00699881 0)
(-0.00615783 -0.00559251 0)
(-0.0426998 0.0683839 0)
(-0.0684888 0.0559832 0)
(-0.109438 0.035312 0)
(-0.163678 -0.000784676 0)
(-0.152373 0.0275486 0)
(-0.196937 -0.0241613 0)
(-0.216648 -0.0206172 0)
(-0.154577 -0.00346497 0)
(-0.161298 0.0162596 0)
(-0.13918 -0.0644399 0)
(-0.116553 0.00063226 0)
(-0.140504 -0.00763765 0)
(-0.140744 -0.00906018 0)
(-0.143364 0.00596039 0)
(-0.142529 -0.0179258 0)
(-0.129828 -0.00778249 0)
(-0.125774 -0.0391828 0)
(-0.090679 -0.0222992 0)
(-0.0689273 0.000912317 0)
(-0.0366932 -0.0121399 0)
(-0.0188233 -0.000624809 0)
(-0.0166896 0.00521558 0)
(-0.010709 -0.00269218 0)
(-0.0378841 0.107259 0)
(-0.0891863 0.053492 0)
(-0.125755 0.0318677 0)
(-0.144415 0.0226039 0)
(-0.151373 0.0278805 0)
(-0.223322 0.00640401 0)
(-0.230998 -0.0302966 0)
(-0.186464 0.00400141 0)
(-0.199281 -0.0476628 0)
(-0.156413 0.0212094 0)
(-0.139919 -0.00761868 0)
(-0.15626 -0.00280203 0)
(-0.167007 -0.0159633 0)
(-0.171671 -0.0169407 0)
(-0.169646 -0.0215136 0)
(-0.169575 -0.00638432 0)
(-0.148349 -0.0266647 0)
(-0.130755 -0.0344317 0)
(-0.120412 -0.0412832 0)
(-0.0983503 -0.0151932 0)
(-0.0586956 0.00636694 0)
(-0.0223182 0.00356374 0)
(-0.0115678 -0.0182501 0)
(-0.0711855 0.123937 0)
(-0.095963 0.0982382 0)
(-0.129644 0.0504964 0)
(-0.186755 0.00300309 0)
(-0.179209 -0.0386556 0)
(-0.237356 -0.00525405 0)
(-0.249414 -0.0437981 0)
(-0.194913 -0.0146099 0)
(-0.185504 0.0106386 0)
(-0.174498 0.0354631 0)
(-0.185405 0.00433771 0)
(-0.188842 0.00190267 0)
(-0.18792 -0.00970994 0)
(-0.187924 -0.00641763 0)
(-0.167945 -0.0122934 0)
(-0.161127 -0.0169795 0)
(-0.165098 -0.0606836 0)
(-0.148938 -0.0407932 0)
(-0.132818 -0.0658539 0)
(-0.116841 -0.0415117 0)
(-0.116705 -0.0407292 0)
(-0.0581501 -0.0177675 0)
(-0.0235328 -0.0196333 0)
(-0.0530885 0.163858 0)
(-0.0936436 0.112231 0)
(-0.135177 0.0842006 0)
(-0.217534 0.0420601 0)
(-0.198118 -0.0344582 0)
(-0.229238 0.04178 0)
(-0.23516 0.000257266 0)
(-0.207932 -0.0292469 0)
(-0.205902 0.027546 0)
(-0.19023 0.0255753 0)
(-0.193389 0.00413575 0)
(-0.190764 -0.00325167 0)
(-0.186381 -0.0187715 0)
(-0.181777 -0.0325764 0)
(-0.176762 -0.0449324 0)
(-0.186882 -0.0330841 0)
(-0.172723 -0.118638 0)
(-0.142957 -0.0467274 0)
(-0.133389 -0.0687464 0)
(-0.115556 -0.0225223 0)
(-0.115324 -0.0584217 0)
(-0.0643256 -0.016873 0)
(-0.0238385 -0.0356749 0)
(-0.0750155 0.175452 0)
(-0.1249 0.0909668 0)
(-0.160833 0.0768766 0)
(-0.240579 0.0287438 0)
(-0.21506 -0.0438253 0)
(-0.251944 -0.00791328 0)
(-0.312822 0.0401765 0)
(-0.21879 0.00198248 0)
(-0.194971 0.031651 0)
(-0.212366 0.0226583 0)
(-0.212238 0.0025507 0)
(-0.20272 -0.00556943 0)
(-0.202832 -0.0170536 0)
(-0.202594 -0.0205597 0)
(-0.176835 -0.035655 0)
(-0.204746 0.00366322 0)
(-0.184332 -0.0916971 0)
(-0.121102 -0.0632044 0)
(-0.123354 -0.0910833 0)
(-0.110712 -0.0535726 0)
(-0.142077 -0.0677018 0)
(-0.0861861 -0.0642915 0)
(-0.0324198 -0.0646473 0)
(-0.376871 0.107326 0)
(-0.584125 0.0344746 0)
(-0.792723 0.053075 0)
(-0.908985 0.0122944 0)
(-1.01313 0.0334642 0)
(-1.04173 0.0221784 0)
(-1.02502 -0.00356452 0)
(-0.9245 -0.0460966 0)
(-0.812889 -0.0842585 0)
(-0.713938 -0.0742399 0)
(-0.518713 -0.129791 0)
(-0.389369 -0.0739258 0)
(-0.332842 -0.00879583 0)
(-0.211245 -0.0710524 0)
(-0.17378 -0.0508428 0)
(-0.247591 -0.0219062 0)
(-0.0898365 -0.0405565 0)
(-0.0426348 -0.0624027 0)
(0.0055472 -0.00289723 0)
(-0.353868 0.293331 0)
(-0.575383 0.138145 0)
(-0.709687 0.201906 0)
(-0.822151 0.0590009 0)
(-0.897714 0.0586472 0)
(-0.917729 0.0382043 0)
(-0.854576 -0.0566117 0)
(-0.748134 -0.13353 0)
(-0.656725 -0.102544 0)
(-0.598016 -0.177455 0)
(-0.353783 -0.144407 0)
(-0.27269 -0.0699127 0)
(-0.221231 -0.0744331 0)
(-0.190068 -0.067056 0)
(-0.186101 -0.0197572 0)
(-0.312469 0.00504219 0)
(-0.161603 0.00443555 0)
(0.0199526 -0.0188317 0)
(-0.0751727 -0.0165145 0)
(-0.429954 0.471572 0)
(-0.461924 0.221757 0)
(-0.605549 0.174951 0)
(-0.665201 0.0935375 0)
(-0.666834 0.0380513 0)
(-0.635535 0.00554604 0)
(-0.473217 -0.105629 0)
(-0.549143 -0.0382731 0)
(-0.271901 -0.0668575 0)
(-0.173382 -0.273059 0)
(0.112662 -0.153599 0)
(0.0481227 -0.0893371 0)
(0.160783 -0.088733 0)
(0.0747413 -0.119906 0)
(-0.0583239 -0.0297901 0)
(0.0148905 -0.0447927 0)
(0.141408 -0.0908743 0)
(0.204903 -0.0158661 0)
(0.00881723 -0.0257717 0)
(-0.376771 0.52878 0)
(-0.316677 0.32421 0)
(-0.34784 0.206033 0)
(-0.362668 0.196586 0)
(-0.245723 0.043567 0)
(-0.175634 -0.0970232 0)
(0.159508 -0.277667 0)
(0.273569 -0.233421 0)
(0.271049 -0.0611602 0)
(0.264801 -0.149962 0)
(0.331204 -0.242055 0)
(0.304573 -0.0723748 0)
(0.309654 -0.0337372 0)
(0.275904 -0.00630302 0)
(-0.0655639 0.0146778 0)
(0.245605 -0.0356255 0)
(0.160399 -0.115001 0)
(0.113261 0.0344194 0)
(0.300588 0.0674859 0)
(-0.362888 0.586656 0)
(-0.18045 0.389606 0)
(-0.245363 0.181644 0)
(-0.275468 0.100457 0)
(0.0426295 -0.0405468 0)
(0.0643753 -0.126822 0)
(0.18018 -0.254506 0)
(0.444039 -0.268197 0)
(0.508693 -0.130763 0)
(0.447353 -0.118069 0)
(0.447694 -0.154506 0)
(0.411793 -0.131362 0)
(0.317223 -0.121206 0)
(0.306865 0.0129136 0)
(0.133088 -0.0169644 0)
(0.212041 -0.0396323 0)
(0.0443499 -0.110789 0)
(-0.0393526 -0.0621879 0)
(0.298868 0.136963 0)
(-0.319585 0.651098 0)
(-0.108716 0.372871 0)
(-0.151161 0.106117 0)
(-0.11987 0.0483381 0)
(0.179614 -0.109414 0)
(0.0840883 -0.19953 0)
(0.117437 -0.292529 0)
(0.408122 -0.310868 0)
(0.496266 -0.144189 0)
(0.457622 -0.172784 0)
(0.427567 -0.0912018 0)
(0.393735 -0.139312 0)
(0.366008 -0.104779 0)
(0.359007 0.0661978 0)
(0.19411 0.0583589 0)
(0.162593 0.0381952 0)
(0.02397 -0.0726501 0)
(0.0334965 -0.0674492 0)
(0.34034 0.178516 0)
(-0.308453 0.686273 0)
(-0.0411376 0.422113 0)
(-0.115326 0.156173 0)
(0.252453 -0.0430396 0)
(0.206347 -0.103118 0)
(0.0536676 -0.293653 0)
(0.0814296 -0.319296 0)
(0.375513 -0.305506 0)
(0.464099 -0.285733 0)
(0.393017 -0.213779 0)
(0.352754 -0.150498 0)
(0.267536 -0.115842 0)
(0.262386 -0.0934159 0)
(0.320498 0.0831057 0)
(0.129481 0.084382 0)
(0.16488 0.0722103 0)
(0.0584644 -0.0830358 0)
(0.0258796 -0.113664 0)
(0.306697 0.208292 0)
(-0.288238 0.781383 0)
(-0.0192495 0.391873 0)
(0.0838073 0.12137 0)
(0.381793 -0.18418 0)
(0.259421 -0.0225411 0)
(-0.0612575 -0.219809 0)
(0.0526741 -0.389794 0)
(0.355193 -0.300421 0)
(0.446928 -0.299407 0)
(0.429623 -0.159157 0)
(0.339722 -0.162985 0)
(0.214982 -0.0982659 0)
(0.160199 -0.13408 0)
(0.240569 0.121706 0)
(-0.0871228 0.111683 0)
(0.0462862 0.0388804 0)
(0.310383 -0.0293881 0)
(-0.0647144 -0.0976839 0)
(0.0646065 0.3 0)
(-0.0903569 0.286068 0)
(-0.116464 0.269592 0)
(-0.199195 0.193729 0)
(-0.34103 0.0786134 0)
(-0.250352 -0.0240486 0)
(-0.216452 -0.0505878 0)
(-0.235008 0.0306151 0)
(-0.223366 0.0404848 0)
(-0.22406 0.0193241 0)
(-0.209452 0.0099059 0)
(-0.203068 -0.0013577 0)
(-0.195498 -0.00670996 0)
(-0.188682 -0.0193698 0)
(-0.188133 -0.0212425 0)
(-0.171591 -0.0107785 0)
(-0.240774 -0.0625031 0)
(-0.200523 -0.064875 0)
(-0.13299 -0.0666946 0)
(-0.128777 -0.0781181 0)
(-0.0993086 -0.0812786 0)
(-0.153098 -0.0658879 0)
(-0.106019 -0.0645581 0)
(-0.0109592 -0.107521 0)
(-0.307904 0.660578 0)
(-0.402057 0.359152 0)
(-0.458017 0.12945 0)
(-0.488006 0.0585432 0)
(-0.333195 0.0880667 0)
(-0.271063 -0.00584776 0)
(-0.22133 0.014552 0)
(-0.221114 -0.0019379 0)
(-0.205118 0.0042599 0)
(-0.207265 0.00117708 0)
(-0.195293 -0.00944077 0)
(-0.185755 -0.0229115 0)
(-0.16983 -0.0333531 0)
(-0.138163 -0.0293446 0)
(-0.198216 -0.0212859 0)
(-0.253187 -0.118278 0)
(-0.134001 -0.0483803 0)
(-0.118266 -0.125788 0)
(-0.169723 -0.0533103 0)
(-0.0936897 -0.0743993 0)
(-0.060155 -0.0697183 0)
(-0.111724 -0.137205 0)
(-0.0853142 -0.0969813 0)
(-0.307571 0.637002 0)
(-0.306634 0.108721 0)
(-0.348527 -0.139362 0)
(-0.408031 -0.00460566 0)
(-0.398046 -0.10077 0)
(-0.396172 0.105969 0)
(-0.471527 -0.0137557 0)
(-0.351043 0.00756466 0)
(-0.335377 0.00753603 0)
(-0.348849 0.00879973 0)
(-0.323646 -0.0234674 0)
(-0.287113 -0.0321306 0)
(-0.25433 -0.0434304 0)
(-0.232675 -0.0305751 0)
(-0.256158 -0.097881 0)
(-0.269768 -0.0947898 0)
(-0.216757 -0.100995 0)
(-0.222847 -0.190479 0)
(-0.161845 -0.0855286 0)
(-0.0614372 -0.209997 0)
(0.0195385 -0.0148296 0)
(0.0131927 0.0570007 0)
(-0.0506207 -0.0186704 0)
(-0.315645 1.1567 0)
(-0.289399 0.392046 0)
(-0.399299 0.207065 0)
(-0.58442 0.175135 0)
(-0.623866 -0.00517494 0)
(-0.818463 -0.290659 0)
(-1.03107 0.0405146 0)
(-1.03662 0.229612 0)
(-1.26425 0.0862489 0)
(-1.68604 0.0123769 0)
(-1.75729 -0.0597918 0)
(-1.49523 -0.124322 0)
(-0.781935 -0.0666729 0)
(-0.383626 -0.00234689 0)
(-0.54006 -0.0599681 0)
(-0.629373 -0.141846 0)
(-0.737246 -0.0837511 0)
(-0.648633 -0.00990846 0)
(-0.356033 -0.359168 0)
(-0.18638 -0.41475 0)
(-0.0830053 -0.252341 0)
(0.153417 -0.131689 0)
(-0.135135 0.0322421 0)
(-0.345209 1.30939 0)
(-0.315465 0.196278 0)
(-0.496941 0.425791 0)
(-1.08741 0.650132 0)
(-1.66011 0.408807 0)
(-2.32562 0.497697 0)
(-3.11698 0.517206 0)
(-3.40869 0.598567 0)
(-3.38297 0.00950443 0)
(-2.9532 -0.618559 0)
(-2.40917 -0.640457 0)
(-2.02889 -0.627559 0)
(-1.69881 -0.442118 0)
(-0.985041 -0.528218 0)
(-0.649697 -0.192663 0)
(-0.555856 -0.0828114 0)
(-0.483589 0.12251 0)
(-0.472046 -0.240653 0)
(-0.45313 -0.399138 0)
(-0.457911 -0.365346 0)
(-0.463739 -0.165351 0)
(-0.473956 0.207967 0)
(-0.630938 0.560433 0)
(-0.355208 1.43166 0)
(-0.219002 0.923468 0)
(-0.841281 0.784487 0)
(-1.2787 1.05658 0)
(-1.50998 1.11886 0)
(-2.4803 1.23376 0)
(-3.03937 0.823729 0)
(-2.68516 -0.225701 0)
(-2.20843 -0.58471 0)
(-1.98825 -0.713298 0)
(-1.79332 -0.741966 0)
(-1.62243 -0.650086 0)
(-1.44591 -0.660912 0)
(-1.31654 -0.728311 0)
(-1.19926 -0.642391 0)
(-1.12087 -0.512656 0)
(-0.444215 -0.123182 0)
(-0.514106 -0.219344 0)
(-0.695265 -0.388805 0)
(-0.59036 -0.356374 0)
(-0.625143 -0.190901 0)
(-0.599183 0.143092 0)
(-0.747582 0.450547 0)
(-0.262862 1.59351 0)
(-0.537263 1.40027 0)
(-1.04351 1.60578 0)
(-1.01699 1.6995 0)
(-1.49027 1.97876 0)
(-2.61694 1.97543 0)
(-2.94387 1.03656 0)
(-2.16122 -0.382571 0)
(-1.95334 -0.589239 0)
(-1.88237 -0.689675 0)
(-1.74557 -0.776696 0)
(-1.60293 -0.742039 0)
(-1.5231 -0.793101 0)
(-1.46549 -0.83925 0)
(-1.42961 -0.837045 0)
(-1.37605 -0.799174 0)
(-0.991625 -0.57812 0)
(-0.666363 -0.243088 0)
(-0.624899 -0.28802 0)
(-0.640612 -0.17913 0)
(-0.737568 -0.148924 0)
(-0.666329 0.0853479 0)
(-0.635862 0.229462 0)
(-0.25688 1.83043 0)
(-0.3625 1.40746 0)
(-0.758639 1.79185 0)
(-0.855378 1.92598 0)
(-0.892765 1.97256 0)
(-1.88656 2.11668 0)
(-2.6598 1.1408 0)
(-1.98138 -0.224542 0)
(-1.84179 -0.617052 0)
(-1.86377 -0.808457 0)
(-1.78149 -0.871783 0)
(-1.66669 -0.902275 0)
(-1.58301 -0.930677 0)
(-1.53203 -0.923746 0)
(-1.53222 -0.927144 0)
(-1.43405 -0.917765 0)
(-1.21208 -0.895993 0)
(-0.953062 -0.602159 0)
(-0.620909 -0.42669 0)
(-0.78847 -0.250052 0)
(-0.839733 -0.155938 0)
(-0.481388 0.0682202 0)
(-0.389321 0.182589 0)
(-0.354374 2.00011 0)
(-0.384673 1.49911 0)
(-0.545751 1.6773 0)
(-0.514835 2.00172 0)
(-0.591028 2.33294 0)
(-0.791104 2.78821 0)
(-1.58202 1.69029 0)
(-1.75728 0.162277 0)
(-1.50748 -0.842522 0)
(-1.47293 -1.12951 0)
(-1.7229 -1.07185 0)
(-1.83428 -1.11354 0)
(-1.77026 -1.15638 0)
(-1.63619 -1.03497 0)
(-1.52949 -0.964262 0)
(-1.34702 -0.987766 0)
(-1.26124 -0.952372 0)
(-1.10562 -0.817524 0)
(-1.03129 -0.526633 0)
(-0.982145 -0.452847 0)
(-0.795817 -0.105809 0)
(-0.550633 0.149117 0)
(-0.387397 0.139788 0)
(-0.387208 2.23455 0)
(-0.426245 1.74001 0)
(-0.449763 1.79514 0)
(-0.373927 1.81208 0)
(-0.153082 2.35216 0)
(-0.416065 2.82894 0)
(-1.06868 1.58189 0)
(-1.15541 0.0768345 0)
(-1.13626 -0.642222 0)
(-1.20145 -1.027 0)
(-1.36294 -1.6176 0)
(-1.39586 -1.75446 0)
(-1.55785 -1.30113 0)
(-1.57084 -1.13092 0)
(-1.29352 -1.07211 0)
(-1.19526 -1.06282 0)
(-1.21153 -1.05085 0)
(-1.15453 -0.919601 0)
(-1.16837 -0.568629 0)
(-1.22836 -0.55928 0)
(-1.20147 -0.583561 0)
(-1.01421 -0.420269 0)
(-0.877969 -0.445466 0)
(-0.42426 2.43297 0)
(-0.432151 1.90298 0)
(-0.525117 1.89236 0)
(-0.346573 1.87409 0)
(-0.143273 2.33834 0)
(-0.177706 2.5675 0)
(-0.388495 1.80497 0)
(-0.855849 0.427061 0)
(-1.04062 -0.554949 0)
(-1.18396 -0.91799 0)
(-1.12763 -1.05469 0)
(-1.0182 -1.08714 0)
(-1.1301 -1.24223 0)
(-1.24605 -1.20011 0)
(-1.09864 -1.21133 0)
(-1.09025 -1.09001 0)
(-1.15114 -1.09427 0)
(-1.1434 -1.04409 0)
(-1.14072 -0.618347 0)
(-1.21598 -0.564818 0)
(-1.21491 -0.648102 0)
(-1.09193 -0.739866 0)
(-1.05638 -0.758361 0)
(-0.404729 2.65319 0)
(-0.316747 2.04747 0)
(-0.390309 2.00169 0)
(-0.269729 2.23734 0)
(-0.215066 2.34175 0)
(-0.0659786 2.62709 0)
(-0.00852142 2.1869 0)
(-0.515785 0.925188 0)
(-0.819875 -0.547705 0)
(-0.980637 -0.93617 0)
(-0.655438 -1.06648 0)
(-0.758201 -0.952077 0)
(-1.08152 -1.01115 0)
(-1.13715 -1.09256 0)
(-1.06505 -1.14443 0)
(-1.16652 -1.06192 0)
(-1.20236 -1.04454 0)
(-1.1926 -0.921252 0)
(-1.21117 -0.668262 0)
(-1.15993 -0.682494 0)
(-1.11604 -0.703907 0)
(-1.16631 -0.823441 0)
(-1.15245 -0.812413 0)
(-0.317224 2.78667 0)
(-0.0309605 2.13531 0)
(-0.322215 1.86906 0)
(-0.161415 2.20201 0)
(-0.165049 2.21642 0)
(0.052161 2.46816 0)
(0.215625 2.26253 0)
(0.150868 1.18846 0)
(0.11708 -0.136603 0)
(-0.15583 -0.413791 0)
(0.256779 -0.988461 0)
(-0.189442 -1.269 0)
(-0.856708 -0.932449 0)
(-0.991803 -0.908387 0)
(-0.915589 -0.842783 0)
(-1.38076 -1.0065 0)
(-1.89274 -0.943166 0)
(-1.74717 -0.945118 0)
(-1.62791 -0.68202 0)
(-1.63115 -0.599833 0)
(-1.31677 -0.882811 0)
(-1.16728 -1.00805 0)
(-1.36822 -1.00223 0)
(-0.135705 2.85352 0)
(0.160346 2.16958 0)
(-0.144302 1.72522 0)
(0.0716158 2.37253 0)
(0.0450972 1.86439 0)
(0.288644 2.19008 0)
(0.542418 2.11228 0)
(0.632215 1.25861 0)
(1.14736 0.130946 0)
(0.983128 -0.956365 0)
(0.752425 -1.05878 0)
(0.693631 -0.625749 0)
(0.00993343 -0.402225 0)
(-0.809003 -0.549605 0)
(-1.20111 -0.503203 0)
(-1.40904 -0.823104 0)
(-2.01245 -0.582978 0)
(-1.9215 -0.698437 0)
(-1.81953 -0.832534 0)
(-1.92341 -0.797078 0)
(-1.95633 -0.736075 0)
(-1.79483 -0.956699 0)
(-1.8712 -1.02573 0)
(-0.00334965 3.02748 0)
(0.206109 2.34562 0)
(0.335813 1.64241 0)
(0.140829 2.091 0)
(-0.0526577 1.7288 0)
(0.737629 1.9399 0)
(1.10622 1.7791 0)
(1.1254 0.889049 0)
(1.68069 0.244122 0)
(1.76657 -0.581342 0)
(1.67288 -0.429626 0)
(1.58602 -0.0169194 0)
(0.579641 0.271723 0)
(-0.176908 0.197792 0)
(-1.27064 -0.252677 0)
(-1.60764 -0.624148 0)
(-1.85321 -0.484923 0)
(-1.98331 -0.592292 0)
(-1.88333 -0.836554 0)
(-1.89909 -0.888113 0)
(-2.08798 -1.04338 0)
(-2.19852 -1.19886 0)
(-2.34716 -1.3315 0)
(0.0120608 3.09219 0)
(-0.0160922 2.42128 0)
(0.208243 1.79312 0)
(0.108761 1.76974 0)
(-0.0579483 1.43469 0)
(0.784946 1.50727 0)
(1.2384 1.13897 0)
(1.30042 0.40841 0)
(1.83464 -0.128516 0)
(2.18678 -0.716846 0)
(2.08744 -0.378545 0)
(2.05022 0.128329 0)
(1.53364 0.735405 0)
(0.856603 0.799699 0)
(0.104407 0.592652 0)
(-0.380559 0.508731 0)
(-1.44993 -0.0125313 0)
(-1.91615 -0.0712619 0)
(-1.79278 -0.667588 0)
(-2.00327 -0.929103 0)
(-2.13753 -0.972381 0)
(-2.12314 -1.01662 0)
(-2.13026 -1.0116 0)
(0.00869117 2.9849 0)
(-0.0196669 2.45646 0)
(0.0041381 2.5838 0)
(-0.117537 1.8746 0)
(-0.337428 1.46648 0)
(0.557286 1.19327 0)
(0.893819 0.345809 0)
(1.30451 0.0350861 0)
(1.61848 -0.522899 0)
(0.95905 -0.460494 0)
(0.642115 -0.149084 0)
(1.04198 0.496161 0)
(0.807744 1.45736 0)
(0.313895 1.14144 0)
(0.112679 1.02881 0)
(-0.443923 0.877738 0)
(-1.4371 0.332477 0)
(-1.87376 0.0827002 0)
(-2.02743 -0.277277 0)
(-2.05318 -0.756 0)
(-2.21194 -0.897083 0)
(-2.22886 -0.921635 0)
(-2.15557 -0.911167 0)
(0.0803196 2.79319 0)
(0.152759 2.46532 0)
(-0.0675241 2.52923 0)
(-0.69699 2.10429 0)
(-0.866422 2.17044 0)
(-0.0475771 1.06055 0)
(-0.353694 -0.460523 0)
(0.222248 -0.227723 0)
(-0.186896 -0.0566586 0)
(-0.374389 0.0190789 0)
(-0.509737 0.043308 0)
(-0.574338 0.321085 0)
(-0.518689 0.83897 0)
(-0.284989 0.985106 0)
(-0.39813 1.27839 0)
(-0.829399 1.24393 0)
(-1.0908 1.0406 0)
(-1.48668 0.567018 0)
(-1.52565 -0.113587 0)
(-1.96425 -0.54658 0)
(-2.05774 -0.824106 0)
(-2.01277 -0.835991 0)
(-2.02683 -0.763908 0)
(0.0727155 2.78101 0)
(0.124121 2.48564 0)
(-0.227233 2.35478 0)
(-0.899386 2.21171 0)
(-1.40871 1.86905 0)
(-1.24719 0.460568 0)
(-0.98742 0.129204 0)
(-0.962308 0.0545751 0)
(-0.929449 0.0699049 0)
(-0.793218 0.118762 0)
(-0.802827 0.158044 0)
(-1.13718 0.596827 0)
(-1.10481 1.3109 0)
(-0.823151 1.5252 0)
(-0.832064 1.65977 0)
(-0.693221 1.57169 0)
(-0.764057 1.13052 0)
(-1.21804 0.583359 0)
(-1.21038 -0.243927 0)
(-1.39125 -0.644153 0)
(-1.29313 -0.998899 0)
(-1.02652 -1.08977 0)
(-1.1881 -0.964605 0)
(0.045152 2.80215 0)
(-0.0173826 2.56649 0)
(-0.295694 2.55285 0)
(-0.890467 2.5232 0)
(-1.28389 1.64153 0)
(-1.31059 0.438412 0)
(-1.29743 -0.0140126 0)
(-1.31543 -0.193785 0)
(-1.16971 -0.283678 0)
(-0.934131 -0.0191369 0)
(-1.01813 0.524528 0)
(-1.27885 1.11181 0)
(-1.32699 1.81627 0)
(-1.28289 2.1456 0)
(-1.17352 2.27462 0)
(-0.901876 2.22656 0)
(-0.642293 1.60953 0)
(-0.709069 1.13967 0)
(-0.791158 0.124737 0)
(-1.00423 -0.486944 0)
(-1.15808 -0.92415 0)
(-0.838759 -1.45012 0)
(-0.73045 -1.67412 0)
(0.0119589 2.84644 0)
(0.0365771 2.65926 0)
(-0.0649096 2.83277 0)
(-0.413926 2.97623 0)
(-0.813529 2.10471 0)
(-1.08313 0.818786 0)
(-1.38125 0.226761 0)
(-1.44741 -0.0412149 0)
(-1.45632 -0.179914 0)
(-1.43952 -0.204626 0)
(-1.36528 0.209293 0)
(-1.10212 0.830046 0)
(-1.25204 1.17952 0)
(-1.25447 1.82181 0)
(-0.954972 2.03614 0)
(-0.88872 2.055 0)
(-0.802108 1.92605 0)
(-0.638966 1.16856 0)
(-0.546802 0.00254243 0)
(-0.522471 -0.756416 0)
(-0.629244 -0.958497 0)
(-0.523176 -1.03833 0)
(-0.211769 -1.31908 0)
(-0.00936463 2.84293 0)
(0.0566868 2.76258 0)
(0.096416 2.83982 0)
(-0.0341961 2.92873 0)
(-0.494095 2.29243 0)
(-1.03183 0.687849 0)
(-1.27183 0.0535675 0)
(-1.30507 -0.22821 0)
(-1.42119 -0.262235 0)
(-1.59152 0.143432 0)
(-1.54711 0.431868 0)
(-1.65499 0.376963 0)
(-1.73187 0.685235 0)
(-1.15328 1.16229 0)
(-0.715056 1.10379 0)
(-0.582046 1.37335 0)
(-0.578387 1.49191 0)
(-0.480665 1.04688 0)
(-0.298041 -0.0235738 0)
(-0.283691 -0.494242 0)
(-0.384816 -0.762566 0)
(-0.125894 -0.988787 0)
(-0.0215565 -1.1358 0)
(-0.0169673 2.72555 0)
(0.0602942 2.73582 0)
(0.177973 2.89707 0)
(0.531096 2.96329 0)
(0.341284 2.81886 0)
(-0.606468 1.23408 0)
(-1.28731 0.490433 0)
(-1.29816 0.186648 0)
(-1.41907 0.0610693 0)
(-1.72432 -0.0975469 0)
(-2.04816 -0.264334 0)
(-2.32323 -0.153348 0)
(-1.74365 0.696161 0)
(-1.16301 0.980196 0)
(-0.887023 0.991431 0)
(-0.49835 0.984351 0)
(-0.244317 0.771981 0)
(-0.340899 0.77933 0)
(-0.0922151 -0.341133 0)
(0.182477 -1.1375 0)
(0.289448 -1.39662 0)
(0.182536 -1.44059 0)
(0.338472 -1.44418 0)
(0.0813822 2.50554 0)
(0.19411 2.58759 0)
(0.260293 2.86134 0)
(0.77561 2.974 0)
(1.17533 2.91211 0)
(0.765412 1.82621 0)
(-0.582521 0.72629 0)
(-0.65842 0.727321 0)
(-0.631852 0.294266 0)
(-1.17986 0.0441244 0)
(-1.4659 -0.333089 0)
(-1.75006 0.000707671 0)
(-1.667 0.169025 0)
(-0.981642 0.672259 0)
(-0.837237 0.997914 0)
(-0.489499 1.13245 0)
(-0.228245 1.02218 0)
(0.0486741 0.618335 0)
(0.121491 -0.323761 0)
(0.33016 -1.18077 0)
(0.723661 -1.68017 0)
(0.696914 -1.86687 0)
(0.451689 -1.76392 0)
(0.126043 2.30762 0)
(0.493506 2.32174 0)
(0.507884 2.65999 0)
(0.874036 2.70867 0)
(1.30702 2.73058 0)
(1.51158 2.15922 0)
(0.896619 1.47418 0)
(0.864931 1.18358 0)
(0.384457 0.792137 0)
(0.0312135 0.123393 0)
(-0.79031 -0.151359 0)
(-1.0142 -0.152972 0)
(-1.24314 0.19998 0)
(-0.75502 0.633023 0)
(-0.405855 0.961108 0)
(-0.30349 0.860141 0)
(0.139587 1.31767 0)
(0.0767699 0.524267 0)
(0.667643 -0.261738 0)
(0.597793 -1.35085 0)
(0.789923 -1.58153 0)
(0.917014 -1.83214 0)
(0.972176 -1.66788 0)
(0.225919 2.45502 0)
(0.561501 2.37125 0)
(0.549266 2.32135 0)
(0.790723 2.53224 0)
(1.23422 2.48239 0)
(1.77547 2.1557 0)
(1.51594 1.80301 0)
(1.52617 1.48778 0)
(1.494 1.36088 0)
(1.27078 0.818741 0)
(0.540875 0.238338 0)
(0.0434505 -0.143264 0)
(-0.0300537 0.0274143 0)
(-0.163805 0.605108 0)
(9.22399e-05 0.993736 0)
(0.107691 0.838362 0)
(0.564928 0.779671 0)
(0.898784 0.280475 0)
(0.927705 -0.883191 0)
(1.19896 -1.56838 0)
(1.41891 -1.5187 0)
(1.2052 -1.38966 0)
(1.10982 -1.37361 0)
(0.00460952 2.93331 0)
(0.414308 2.34394 0)
(0.530343 2.23086 0)
(0.741932 2.30845 0)
(1.16508 2.57888 0)
(1.722 2.15882 0)
(1.64693 1.76137 0)
(1.90894 1.66234 0)
(1.86341 1.43641 0)
(1.4502 0.93623 0)
(1.21119 0.588799 0)
(1.00276 0.380433 0)
(1.06529 0.300437 0)
(1.03304 0.523479 0)
(0.893194 0.313218 0)
(0.9983 0.428118 0)
(1.07207 0.198158 0)
(1.48676 -0.227482 0)
(1.50431 -1.17965 0)
(1.67379 -1.24797 0)
(1.60773 -1.2662 0)
(1.33188 -1.31121 0)
(1.20179 -1.38229 0)
(-0.463445 2.62043 0)
(-0.0261832 2.14964 0)
(0.451292 2.26793 0)
(0.975423 2.12922 0)
(1.20209 2.44154 0)
(1.41068 2.07459 0)
(1.52832 1.7996 0)
(1.8352 1.57688 0)
(1.86074 1.33195 0)
(1.605 1.01171 0)
(1.6425 0.825481 0)
(1.56047 0.848651 0)
(1.58853 0.92784 0)
(1.55655 0.817228 0)
(1.4414 0.316821 0)
(1.8021 0.0737397 0)
(1.8828 -0.254537 0)
(1.86491 -0.856749 0)
(1.73602 -0.956694 0)
(1.78339 -0.973281 0)
(1.70914 -1.09096 0)
(1.33719 -1.19534 0)
(1.32255 -1.45851 0)
(-0.323442 1.9498 0)
(0.206554 2.17907 0)
(0.436683 2.19902 0)
(0.948595 2.04925 0)
(1.09343 2.06257 0)
(1.03636 1.90627 0)
(1.08725 1.5328 0)
(1.4488 1.43181 0)
(1.75058 1.1816 0)
(1.65069 1.10293 0)
(1.76563 0.94085 0)
(1.97212 1.02838 0)
(1.85472 1.02302 0)
(1.63445 0.748927 0)
(1.55167 0.557449 0)
(1.78073 0.340442 0)
(1.7577 0.0568609 0)
(1.7608 -0.141699 0)
(1.69952 -0.380045 0)
(1.65275 -0.574272 0)
(1.4759 -0.931616 0)
(1.1318 -1.17784 0)
(1.25501 -1.49075 0)
(-0.200338 1.80708 0)
(0.338989 1.90547 0)
(0.353649 1.80253 0)
(0.636401 1.79223 0)
(0.916806 1.59957 0)
(0.959553 1.65972 0)
(1.08209 1.55904 0)
(1.44299 1.53786 0)
(1.52597 1.30958 0)
(1.48295 1.12507 0)
(1.64204 1.06178 0)
(1.88882 0.809961 0)
(1.74794 0.704425 0)
(1.58216 0.437231 0)
(1.67479 0.37022 0)
(1.65263 0.201315 0)
(1.65626 -0.139831 0)
(1.69461 -0.267351 0)
(1.65284 -0.590789 0)
(1.37188 -0.691092 0)
(1.29923 -1.01954 0)
(1.19084 -1.15731 0)
(1.38718 -1.05035 0)
(-0.103248 1.80171 0)
(0.131914 1.79577 0)
(0.294635 1.64971 0)
(0.708719 1.79897 0)
(0.831154 1.76491 0)
(0.954407 1.69347 0)
(1.00219 1.62804 0)
(1.22885 1.48556 0)
(1.17003 1.17672 0)
(1.26735 1.04791 0)
(1.35869 0.999583 0)
(1.51228 0.810464 0)
(1.43522 0.375218 0)
(1.50534 0.375816 0)
(1.54767 0.285205 0)
(1.494 -0.0296953 0)
(1.53692 -0.0433094 0)
(1.44585 -0.0413904 0)
(1.29179 -0.319822 0)
(1.19618 -0.397102 0)
(1.0522 -0.619738 0)
(1.02611 -0.684574 0)
(1.10386 -0.726306 0)
(-0.0315086 1.7449 0)
(0.166806 1.72227 0)
(0.317345 1.8064 0)
(0.754072 1.64706 0)
(0.73575 1.66528 0)
(0.740124 1.58872 0)
(0.826763 1.50342 0)
(0.914224 1.31692 0)
(0.9051 0.945147 0)
(0.968455 0.872752 0)
(1.12771 0.75504 0)
(1.19109 0.611708 0)
(1.15364 0.534664 0)
(1.31335 0.434708 0)
(1.23015 0.309769 0)
(1.35642 0.182064 0)
(1.86512 0.0101468 0)
(1.5907 -0.147251 0)
(0.954943 -0.228146 0)
(0.883506 -0.409124 0)
(0.913699 -0.49755 0)
(0.905834 -0.50467 0)
(0.951781 -0.566835 0)
(0.0597162 1.71291 0)
(0.273735 1.58716 0)
(0.307925 1.67209 0)
(0.508006 1.51593 0)
(0.544892 1.25103 0)
(0.603382 1.24884 0)
(0.714939 1.26584 0)
(0.799761 1.20916 0)
(0.816525 0.9691 0)
(0.872752 0.903815 0)
(1.03013 0.850676 0)
(1.02002 0.617602 0)
(0.991218 0.595346 0)
(1.08021 0.462934 0)
(1.00866 0.318239 0)
(1.06478 0.284554 0)
(1.18823 0.100156 0)
(0.989976 -0.282461 0)
(0.873294 -0.154857 0)
(0.826069 -0.24409 0)
(0.75933 -0.28731 0)
(0.724291 -0.41879 0)
(0.662771 -0.538334 0)
(0.127296 1.51939 0)
(0.272646 1.37305 0)
(0.241941 1.3632 0)
(0.389716 1.2555 0)
(0.431731 1.23235 0)
(0.511721 1.22788 0)
(0.541878 1.14808 0)
(0.673639 1.10604 0)
(0.719577 0.802634 0)
(0.763432 0.789631 0)
(0.860849 0.752323 0)
(0.841134 0.647999 0)
(0.737913 0.505914 0)
(0.849223 0.437015 0)
(0.827041 0.327763 0)
(0.916903 0.244534 0)
(1.24714 0.082434 0)
(1.18352 -0.110377 0)
(0.955674 -0.117023 0)
(0.559996 -0.296267 0)
(0.593082 -0.375586 0)
(0.55101 -0.399093 0)
(0.501187 -0.604337 0)
(0.259981 1.57484 0)
(0.407274 1.42423 0)
(0.287988 1.32461 0)
(0.339841 1.20222 0)
(0.34166 1.11213 0)
(0.384926 1.10242 0)
(0.419353 1.0267 0)
(0.392401 0.981516 0)
(0.557495 0.84859 0)
(0.750518 0.771815 0)
(0.764067 0.695769 0)
(0.782173 0.691742 0)
(0.747965 0.622394 0)
(0.762613 0.600409 0)
(0.717449 0.425511 0)
(0.778479 0.423549 0)
(0.903494 0.142244 0)
(0.789783 0.0581915 0)
(0.67736 -0.229349 0)
(0.591907 -0.19183 0)
(0.597889 -0.270274 0)
(0.506285 -0.348896 0)
(0.510816 -0.44656 0)
(0.209939 1.71688 0)
(0.276027 1.44363 0)
(0.193754 1.30597 0)
(0.281557 1.15542 0)
(0.27987 1.07513 0)
(0.321759 1.07265 0)
(0.364279 1.03044 0)
(0.390039 0.942914 0)
(0.464954 0.934422 0)
(0.523184 0.732272 0)
(0.589727 0.687438 0)
(0.603151 0.737807 0)
(0.617476 0.61845 0)
(0.623217 0.565414 0)
(0.67519 0.422074 0)
(0.593927 0.389278 0)
(0.586138 0.268059 0)
(0.774509 0.0578426 0)
(0.72199 -0.123851 0)
(0.500134 -0.165116 0)
(0.326968 -0.358215 0)
(0.550054 -0.654888 0)
(0.525294 -0.707527 0)
(0.165776 1.6127 0)
(0.158768 1.27101 0)
(0.151388 1.23949 0)
(0.228804 1.09656 0)
(0.224547 1.02957 0)
(0.275785 0.975498 0)
(0.294082 0.935392 0)
(0.323894 0.849143 0)
(0.310091 0.801131 0)
(0.39879 0.666759 0)
(0.648466 0.664779 0)
(0.582388 0.652894 0)
(0.403671 0.509536 0)
(0.510707 0.464495 0)
(0.552772 0.401207 0)
(0.546994 0.22008 0)
(0.535064 0.260068 0)
(0.50804 0.172831 0)
(0.408308 0.078161 0)
(0.43554 -0.0990227 0)
(0.247768 -0.374069 0)
(0.41434 -0.604224 0)
(0.67181 -0.786954 0)
(0.098415 1.3861 0)
(0.102548 1.15459 0)
(0.153667 1.14073 0)
(0.193839 1.02007 0)
(0.205435 0.957012 0)
(0.235868 0.942934 0)
(0.258161 0.91728 0)
(0.280483 0.868023 0)
(0.309377 0.793673 0)
(0.323422 0.747753 0)
(0.405029 0.648635 0)
(0.441513 0.488353 0)
(0.429264 0.464591 0)
(0.508502 0.458347 0)
(0.538131 0.446414 0)
(0.497199 0.313291 0)
(0.474936 0.0886958 0)
(0.251802 -0.00807287 0)
(0.187796 -0.0439305 0)
(0.173293 -0.224651 0)
(0.190962 -0.344939 0)
(0.410055 -0.412857 0)
(0.477589 -0.665906 0)
(0.0746122 1.2924 0)
(0.0790668 1.1233 0)
(0.139119 1.09249 0)
(0.169875 0.996654 0)
(0.184794 0.937498 0)
(0.220604 0.887522 0)
(0.203754 0.840735 0)
(0.221729 0.795252 0)
(0.224324 0.736182 0)
(0.179619 0.624103 0)
(0.228931 0.531815 0)
(0.36201 0.496968 0)
(0.413394 0.475546 0)
(0.59939 0.387264 0)
(0.518462 0.377092 0)
(0.322111 0.295743 0)
(0.345501 0.185177 0)
(0.357348 0.13327 0)
(0.25657 0.114629 0)
(0.250904 -0.0204385 0)
(0.247202 -0.270221 0)
(0.313433 -0.432518 0)
(0.360318 -0.688836 0)
(0.055136 1.06767 0)
(0.0610601 0.990047 0)
(0.110068 0.944123 0)
(0.124593 0.904226 0)
(0.14888 0.828309 0)
(0.170594 0.896431 0)
(0.159671 0.904957 0)
(0.164067 0.824198 0)
(0.172085 0.837127 0)
(0.167479 0.721764 0)
(0.160185 0.691035 0)
(0.187089 0.709411 0)
(0.266259 0.635344 0)
(0.474412 0.487624 0)
(0.514517 0.359791 0)
(0.379251 0.384794 0)
(0.389752 0.351802 0)
(0.304127 0.228547 0)
(0.368918 0.140077 0)
(0.297937 -0.148744 0)
(0.244601 -0.32549 0)
(0.336503 -0.587138 0)
(0.217619 -0.632786 0)
(0.0412109 1.07707 0)
(0.0420636 1.02808 0)
(0.0964508 0.980613 0)
(0.0880231 0.938194 0)
(0.196078 0.853598 0)
(0.299563 0.850275 0)
(0.195763 0.729252 0)
(0.146581 0.751614 0)
(0.161977 0.650515 0)
(0.0405073 0.607027 0)
(0.19176 0.566246 0)
(0.176328 0.566347 0)
(0.0967671 0.540829 0)
(0.421464 0.449861 0)
(0.436837 0.325743 0)
(0.319409 0.347754 0)
(0.250655 0.306051 0)
(0.314768 0.216645 0)
(0.38923 0.185931 0)
(0.326173 -0.184191 0)
(0.141299 -0.420258 0)
(0.311912 -0.612572 0)
(0.2834 -0.667536 0)
(0.0243462 0.759406 0)