/*--------------------------------*- C++ -*----------------------------------*\
| =========                 |                                                 |
| \\      /  F ield         | foam-extend: Open Source CFD                    |
|  \\    /   O peration     | Version:     4.1                                |
|   \\  /    A nd           | Web:         http://www.foam-extend.org         |
|    \\/     M anipulation  |                                                 |
\*---------------------------------------------------------------------------*/
FoamFile
{
    version     2.0;
    format      ascii;
    class       surfaceScalarField;
    location    "0.6";
    object      phi;
}
// * * * * * * * * * * * * * * * * * * * * * * * * * * * * * * * * * * * * * //

dimensions      [0 3 -1 0 0 0 0];

internalField   nonuniform List<scalar> 
4432
(
2.15205e-06
-2.15205e-06
2.5979e-06
-4.4585e-07
4.04766e-06
-1.44976e-06
5.32819e-06
-1.28053e-06
5.69331e-06
-3.65114e-07
5.11988e-06
5.73432e-07
4.31129e-06
8.08587e-07
3.11585e-06
1.19544e-06
2.23284e-06
8.83009e-07
1.9314e-06
3.01439e-07
4.73018e-06
-2.79878e-06
5.80468e-06
-1.07451e-06
7.09428e-06
-1.2896e-06
7.96409e-06
-8.69812e-07
8.66543e-06
-7.01338e-07
9.13323e-06
-4.67802e-07
9.62043e-06
-4.87198e-07
9.64436e-06
-2.39338e-08
9.22538e-06
4.18991e-07
8.06197e-06
1.1634e-06
5.66038e-06
2.4016e-06
3.25729e-06
2.40308e-06
3.25728e-06
2.03125e-06
-4.18329e-06
2.89642e-06
-1.31102e-06
4.41714e-06
-2.97048e-06
5.45537e-06
-2.31876e-06
5.79523e-06
-7.04978e-07
5.24943e-06
1.11924e-06
4.43688e-06
1.62113e-06
3.20823e-06
2.42409e-06
2.86891e-06
1.22232e-06
2.48505e-06
6.85295e-07
3.7676e-06
-4.08133e-06
3.88442e-06
-1.19133e-06
4.57671e-06
-1.9819e-06
5.12339e-06
-1.4165e-06
5.93112e-06
-1.50907e-06
6.64253e-06
-1.17921e-06
7.65732e-06
-1.50198e-06
8.2746e-06
-6.41213e-07
8.16369e-06
5.29901e-07
7.2443e-06
2.0828e-06
5.17025e-06
4.47564e-06
2.22025e-06
5.35309e-06
5.47753e-06
1.65706e-06
-5.84035e-06
3.15837e-06
-2.81233e-06
4.69949e-06
-4.51161e-06
5.36012e-06
-2.97939e-06
5.79708e-06
-1.14194e-06
5.24513e-06
1.67119e-06
4.34903e-06
2.51723e-06
3.46067e-06
3.31245e-06
3.0341e-06
1.64889e-06
5.22224e-06
-1.50285e-06
3.9097e-06
-2.7688e-06
3.42274e-06
-7.04367e-07
3.10422e-06
-1.66339e-06
3.10962e-06
-1.4219e-06
3.56496e-06
-1.9644e-06
3.98533e-06
-1.59958e-06
4.98627e-06
-2.50291e-06
5.98934e-06
-1.64428e-06
6.38479e-06
1.34452e-07
6.22666e-06
2.24092e-06
4.89652e-06
5.80578e-06
2.62842e-06
7.62118e-06
8.10595e-06
1.35186e-06
-7.19221e-06
3.43369e-06
-4.89416e-06
4.96237e-06
-6.04029e-06
5.69064e-06
-3.70765e-06
6.33393e-06
-1.78523e-06
5.48127e-06
2.52385e-06
4.15614e-06
3.84236e-06
2.92427e-06
4.54432e-06
3.20634e-06
1.36682e-06
7.54556e-07
9.48936e-07
-9.25099e-07
-1.08915e-06
-3.43414e-06
1.80467e-06
-4.81436e-06
-2.83168e-07
-5.61473e-06
-6.21535e-07
-5.42489e-06
-2.15425e-06
-4.80896e-06
-2.21551e-06
-3.21356e-06
-4.09831e-06
-1.53429e-06
-3.32354e-06
6.38397e-07
-2.03824e-06
3.00343e-06
-1.24112e-07
3.72883e-06
5.08038e-06
2.50106e-06
8.84895e-06
1.0607e-05
1.43281e-06
-8.62502e-06
3.79663e-06
-7.25798e-06
5.34486e-06
-7.58852e-06
6.24554e-06
-4.60833e-06
6.66414e-06
-2.20383e-06
5.09186e-06
4.09613e-06
3.39796e-06
5.53626e-06
1.3279e-06
6.61438e-06
-7.30967e-07
3.42568e-06
-3.34059e-06
3.55856e-06
-5.59041e-06
1.16066e-06
-7.13886e-06
3.35312e-06
-7.99007e-06
5.68036e-07
-8.40285e-06
-2.08757e-07
-9.3466e-06
-1.2105e-06
-1.01108e-05
-1.45134e-06
-9.01157e-06
-5.1975e-06
-8.28874e-06
-4.04637e-06
-6.59564e-06
-3.73133e-06
-3.18399e-06
-3.53577e-06
1.54913e-07
1.74148e-06
1.63825e-06
7.36561e-06
1.22453e-05
2.0058e-06
-1.06308e-05
4.43872e-06
-9.69089e-06
5.75832e-06
-8.90812e-06
6.46452e-06
-5.31453e-06
6.7399e-06
-2.47921e-06
5.08415e-06
5.75187e-06
2.9401e-06
7.68031e-06
6.82404e-07
8.87208e-06
-4.08937e-06
8.19745e-06
-6.74661e-06
6.2158e-06
-9.74411e-06
4.15816e-06
-1.15094e-05
5.11839e-06
-1.22969e-05
1.35556e-06
-1.26027e-05
9.69774e-08
-1.23924e-05
-1.42078e-06
-1.27343e-05
-1.10941e-06
-1.23982e-05
-5.53358e-06
-1.15885e-05
-4.85607e-06
-1.00303e-05
-5.28958e-06
-8.84071e-06
-4.72534e-06
-2.57419e-06
-4.52503e-06
9.56542e-08
4.69576e-06
1.23409e-05
2.48912e-06
-1.31199e-05
4.67173e-06
-1.18735e-05
5.75127e-06
-9.98766e-06
6.78142e-06
-6.34469e-06
7.50138e-06
-3.19916e-06
5.28147e-06
7.97179e-06
1.21524e-06
1.17465e-05
-3.79214e-06
1.38795e-05
-8.21373e-06
1.2619e-05
-1.0067e-05
8.06903e-06
-1.24064e-05
6.49756e-06
-1.34504e-05
6.16241e-06
-1.34965e-05
1.40167e-06
-1.34115e-05
1.20169e-08
-1.37051e-05
-1.12722e-06
-1.43537e-05
-4.60853e-07
-1.29154e-05
-6.9718e-06
-1.22342e-05
-5.5373e-06
-1.12764e-05
-6.24735e-06
-1.10541e-05
-4.94767e-06
-7.37953e-06
-8.19961e-06
-1.30192e-06
-1.38185e-06
1.1039e-05
2.59327e-06
-1.57132e-05
4.76011e-06
-1.40403e-05
5.9701e-06
-1.11977e-05
7.33515e-06
-7.70974e-06
7.81075e-06
-3.67476e-06
4.92097e-06
1.08616e-05
1.40566e-06
1.52619e-05
-5.43351e-06
2.07186e-05
-9.50459e-06
1.66901e-05
-1.41844e-05
1.27488e-05
-1.5901e-05
8.21414e-06
-1.52815e-05
5.54295e-06
-1.49584e-05
1.07856e-06
-1.47205e-05
-2.25872e-07
-1.48327e-05
-1.015e-06
-1.53789e-05
8.52982e-08
-1.21825e-05
-1.01681e-05
-1.12164e-05
-6.50348e-06
-1.07062e-05
-6.75752e-06
-1.15557e-05
-4.09811e-06
-8.69687e-06
-1.10585e-05
-2.6114e-06
-7.46732e-06
8.42761e-06
-0.000137086
0.000137086
-0.000199854
6.27683e-05
-0.00022127
2.14158e-05
-0.000233113
1.18432e-05
-0.000209682
-2.34317e-05
-0.000172049
-3.76325e-05
-0.000151493
-2.05559e-05
-0.000149479
-2.0142e-06
-0.000152911
3.43152e-06
-0.000158022
5.11135e-06
-0.000164178
6.15597e-06
-0.000154609
-9.56905e-06
-0.00014265
-1.19587e-05
-0.000135073
-7.57743e-06
-7.21036e-05
-6.29691e-05
-4.8357e-05
-2.37466e-05
-3.30316e-05
-1.53253e-05
-4.59076e-07
-3.25725e-05
-4.59081e-07
-0.000136874
0.00027396
-0.000193194
0.000119089
-0.000208178
3.63993e-05
-0.000202719
6.38467e-06
-0.000164608
-6.15431e-05
-0.000130252
-7.19881e-05
-0.000126166
-2.46424e-05
-0.000132526
4.34639e-06
-0.000136321
7.22603e-06
-0.000136422
5.21248e-06
-0.000138543
8.27712e-06
-0.000132097
-1.60155e-05
-0.000128263
-1.57925e-05
-7.24364e-05
-6.3404e-05
-6.36235e-05
-7.1782e-05
-5.10055e-05
-3.63646e-05
-2.785e-05
-3.84809e-05
-1.94335e-06
-5.84792e-05
-2.40244e-06
-6.47269e-05
0.000338687
-0.000171399
0.000225761
-0.000192719
5.77189e-05
-0.000107344
-7.89902e-05
-6.72649e-05
-0.000101622
-3.64274e-05
-0.000102826
-3.38307e-05
-2.7239e-05
-5.47042e-05
2.52199e-05
-0.000117668
7.01895e-05
-0.000128286
1.58309e-05
-7.76055e-05
-4.24035e-05
-0.000119782
2.61607e-05
-0.00011237
-2.32042e-05
-7.05455e-05
-0.000105228
-0.000107023
-3.53042e-05
-8.67146e-05
-5.66733e-05
-5.30198e-05
-7.21757e-05
-1.86969e-05
-9.28021e-05
-2.10994e-05
-4.75788e-05
0.000386265
-0.000107005
0.000285187
-4.80307e-05
-1.25517e-06
-5.25227e-05
-7.44982e-05
-2.67467e-05
-0.000127398
-3.39242e-06
-0.00012618
8.29434e-06
-3.89257e-05
-2.31376e-05
5.66518e-05
-3.58776e-05
8.29295e-05
-7.26577e-05
5.26111e-05
-0.000113465
-1.59633e-06
-0.000100994
1.36895e-05
-5.4359e-05
-6.9839e-05
-6.84604e-05
-9.1127e-05
-6.21374e-05
-4.16272e-05
-9.24474e-05
-2.63632e-05
-6.54156e-05
-9.92074e-05
-3.62206e-05
-0.000121997
-5.732e-05
-1.69948e-05
0.00040326
1.91753e-06
0.000266275
-1.2599e-06
1.92227e-06
-2.27869e-06
-7.34794e-05
5.12812e-06
-0.000134805
6.20107e-06
-0.000127253
1.98769e-05
-5.26015e-05
6.17399e-05
1.47887e-05
6.27895e-05
8.188e-05
7.44941e-05
4.09064e-05
5.51018e-05
1.7796e-05
8.23151e-05
-1.35237e-05
2.59123e-05
-1.34362e-05
-4.73954e-05
-1.78192e-05
-0.000101643
1.26201e-05
-9.37717e-05
-3.42342e-05
-7.17534e-05
-0.000121226
-5.10062e-05
-0.000142744
-0.000108326
8.46816e-06
0.000394792
3.12252e-05
0.000243518
1.85178e-05
1.46296e-05
2.04279e-05
-7.53894e-05
1.59951e-05
-0.000130372
9.894e-06
-0.000121152
1.5552e-05
-5.82596e-05
3.69572e-05
-6.61646e-06
0.000100539
1.82981e-05
0.000131563
9.88247e-06
0.000157315
-7.95594e-06
0.000152128
-8.33638e-06
7.10138e-05
6.76777e-05
-3.65956e-05
8.97902e-05
-9.84799e-05
7.45045e-05
-8.85209e-05
-4.41933e-05
-6.48215e-05
-0.000144925
-2.96997e-05
-0.000177866
-0.000138026
9.87099e-06
0.000384921
3.64023e-05
0.000216987
2.4966e-05
2.60658e-05
1.76343e-05
-6.80576e-05
2.55798e-05
-0.000138318
3.87877e-06
-9.94508e-05
2.17644e-05
-7.61452e-05
3.16464e-05
-1.64985e-05
4.6895e-05
3.0495e-06
0.000100341
-4.35634e-05
0.00010546
-1.3075e-05
7.93746e-05
1.7749e-05
6.73191e-05
7.97331e-05
-2.99841e-05
0.000187093
-5.14265e-05
9.59469e-05
-8.18482e-05
-1.37716e-05
-5.35481e-05
-0.000173225
-2.47185e-05
-0.000206696
-0.000162744
3.45887e-06
0.000381462
6.11379e-05
0.000159308
3.34592e-05
5.37446e-05
4.97027e-05
-8.43011e-05
3.07159e-05
-0.000119331
2.04277e-05
-8.91626e-05
1.84099e-05
-7.41273e-05
2.98335e-05
-2.79221e-05
6.94323e-05
-3.65494e-05
8.5335e-05
-5.94661e-05
9.1561e-05
-1.9301e-05
9.75271e-05
1.17829e-05
7.09103e-05
0.00010635
-2.05355e-06
0.000260057
-7.81584e-05
0.000172052
-8.83157e-05
-3.61432e-06
-4.84733e-05
-0.000213068
-2.14037e-05
-0.000233765
-0.000184148
4.79272e-06
-2.05059e-05
9.55578e-06
-1.88034e-05
1.13608e-05
-1.30027e-05
1.51276e-05
-1.14765e-05
1.49873e-05
-3.5344e-06
1.05686e-05
1.52802e-05
-8.07302e-06
3.39035e-05
-2.08226e-05
3.34682e-05
-3.03782e-05
2.62457e-05
-3.29954e-05
1.5366e-05
-3.42257e-05
9.44439e-06
-3.34153e-05
4.73261e-06
-3.19505e-05
-3.86257e-07
-2.92561e-05
-2.92035e-06
-2.92258e-05
-1.0453e-06
-1.87145e-05
-1.0426e-05
-2.70799e-05
-1.80274e-06
-2.36466e-05
-9.93677e-06
-2.04435e-05
-9.96061e-06
-1.11761e-05
-1.33655e-05
-8.31544e-06
-1.39192e-05
-4.43602e-06
-1.13467e-05
-8.11686e-06
1.21084e-05
1.98093e-06
-2.24869e-05
5.61099e-06
-2.24335e-05
6.41052e-06
-1.38022e-05
-3.53149e-06
-1.53453e-06
-2.44047e-05
1.73389e-05
-5.58834e-05
4.67588e-05
-4.70386e-05
2.50587e-05
-4.94719e-05
3.59016e-05
-4.80165e-05
2.47903e-05
-4.33978e-05
1.07474e-05
-3.74246e-05
3.47119e-06
-3.16716e-05
-1.02037e-06
-2.60302e-05
-6.02771e-06
-2.26148e-05
-6.33577e-06
-1.38487e-05
-9.81136e-06
-1.30189e-05
-1.12558e-05
-1.01091e-05
-4.71255e-06
-1.17606e-05
-8.28524e-06
-1.05518e-05
-1.11694e-05
-8.25615e-06
-1.56611e-05
-8.69387e-06
-1.34815e-05
-1.40861e-05
-5.95451e-06
-2.01294e-06
-2.019e-05
-1.71339e-05
-5.353e-06
-3.28409e-05
-6.7264e-06
-4.26818e-05
-3.96128e-06
-5.98457e-05
1.56294e-05
-7.52619e-05
3.2755e-05
-8.18891e-05
5.33861e-05
-8.57016e-05
2.88711e-05
-0.000105441
5.56411e-05
-8.57047e-05
5.05395e-06
-7.38814e-05
-1.07594e-06
-5.90295e-05
-1.13807e-05
-4.48877e-05
-1.51622e-05
-3.42823e-05
-1.66331e-05
-2.74903e-05
-1.31278e-05
-2.53401e-05
-1.19615e-05
-2.15032e-05
-1.50927e-05
-1.76603e-05
-8.55549e-06
-1.58173e-05
-1.01282e-05
-1.64056e-05
-1.05812e-05
-2.03046e-05
-1.17621e-05
-2.39726e-05
-9.81345e-06
-2.23918e-05
-7.53535e-06
-1.00445e-06
-2.34003e-05
-2.08773e-05
1.55243e-05
-3.43289e-05
6.72524e-06
-3.76908e-05
-5.99438e-07
-5.16223e-05
2.95609e-05
-7.30427e-05
5.41754e-05
-0.000116115
9.64586e-05
-0.000138226
5.09822e-05
-0.000145906
6.33203e-05
-0.000141106
2.54349e-07
-7.39076e-05
-6.82742e-05
-5.48151e-05
-3.04733e-05
-3.4038e-05
-3.59392e-05
-4.80882e-05
-2.58289e-06
-6.32587e-05
2.04264e-06
-4.7205e-05
-2.80152e-05
-4.66361e-05
-1.56615e-05
-3.78309e-05
-1.73607e-05
-5.12874e-05
3.32824e-06
-4.3693e-05
-1.81755e-05
-3.48831e-05
-2.0572e-05
-2.63608e-05
-1.83358e-05
-1.99829e-05
-1.39132e-05
-6.41033e-06
-1.45771e-05
-2.39461e-05
3.94704e-05
-3.17862e-05
1.45653e-05
-4.18716e-05
9.48596e-06
-3.84431e-05
2.61324e-05
-4.09244e-05
5.66568e-05
-3.17445e-05
8.72788e-05
-7.29625e-05
9.22003e-05
-8.43126e-05
7.46704e-05
-8.43353e-05
2.771e-07
-0.00010527
-4.73391e-05
-9.52932e-05
-4.04505e-05
-0.000105086
-2.61462e-05
-8.815e-05
-1.9519e-05
-0.000107839
2.17319e-05
-0.000112465
-2.33895e-05
-7.1031e-05
-5.70953e-05
-9.97513e-05
1.13597e-05
-0.000103547
7.12378e-06
-0.000115756
-5.96608e-06
-0.000115628
-2.06999e-05
-6.27108e-05
-7.12535e-05
-7.25671e-05
-4.0569e-06
-4.12293e-05
-3.7748e-05
-1.46651e-05
5.41356e-05
-2.15952e-05
2.14954e-05
-2.42924e-05
1.21832e-05
-3.30433e-05
3.48832e-05
-2.30005e-05
4.66141e-05
-1.55387e-05
7.9817e-05
-6.05251e-06
8.27141e-05
-1.29047e-05
8.15227e-05
-4.20591e-05
2.94316e-05
-8.04114e-05
-8.98665e-06
-0.000102516
-1.83459e-05
-0.000114099
-1.45628e-05
-0.000119843
-1.37755e-05
-0.000115717
1.76062e-05
-9.47329e-05
-4.43733e-05
-0.000142241
-9.58717e-06
-0.000135586
4.70515e-06
-0.000123663
-4.79933e-06
-8.49422e-05
-4.46872e-05
-7.33936e-05
-3.22486e-05
-0.000111404
-3.32433e-05
-9.53728e-05
-2.00879e-05
-4.85652e-05
-8.80369e-05
-3.91473e-06
5.80503e-05
-1.95606e-05
3.71413e-05
-1.86496e-05
1.12722e-05
-1.1728e-05
2.79616e-05
-1.52809e-05
5.01671e-05
-1.25244e-05
7.70606e-05
-7.32208e-06
7.75119e-05
-7.742e-06
8.19427e-05
-1.64994e-05
3.81891e-05
-5.15284e-05
2.60425e-05
-7.78427e-05
7.9685e-06
-9.4649e-05
2.24351e-06
-0.000102272
-6.15204e-06
-8.1212e-05
-3.45395e-06
-0.000129267
3.68147e-06
-0.000151257
1.24035e-05
-0.000159004
1.24523e-05
-0.000153935
-9.86831e-06
-0.000178806
-1.98169e-05
-0.000196862
-1.4192e-05
-0.00021308
-1.70256e-05
-0.000215464
-1.77044e-05
-3.26884e-05
-0.000231341
-5.18821e-06
6.32385e-05
-1.28901e-05
4.48432e-05
-9.3837e-06
7.76581e-06
-5.32398e-06
2.39019e-05
-1.05909e-05
5.5434e-05
-1.12235e-05
7.76932e-05
-1.28096e-05
7.90981e-05
-1.60183e-05
8.51514e-05
-1.59358e-05
3.81067e-05
-3.93263e-05
4.94331e-05
-6.73155e-05
3.59578e-05
-7.00461e-05
4.97419e-06
-0.000104691
2.84932e-05
-0.000123823
1.56781e-05
-0.000133623
1.34814e-05
-0.000145384
2.41645e-05
-0.000153579
2.0647e-05
-0.000171693
8.24621e-06
-0.000192407
8.97166e-07
-0.000222726
1.61265e-05
-0.000240093
3.41216e-07
-0.000236186
-2.16113e-05
-2.46349e-05
-0.000244239
-5.27576e-06
6.85143e-05
-1.20755e-05
5.1643e-05
-5.83888e-06
1.52917e-06
-4.51827e-06
2.25814e-05
-9.64738e-06
6.05632e-05
-1.64441e-05
8.44899e-05
-2.26212e-05
8.52753e-05
-2.00245e-05
8.25547e-05
-3.21018e-05
5.01842e-05
-4.63192e-05
6.36505e-05
-6.01455e-05
4.97843e-05
-8.47055e-05
2.95343e-05
-7.07342e-05
1.4522e-05
-7.65472e-05
2.14912e-05
-0.000116288
5.32218e-05
-0.000124006
3.18829e-05
-0.000151322
4.79626e-05
-0.000157996
1.49204e-05
-0.000178424
2.13257e-05
-0.000154583
-7.71504e-06
-0.000159565
5.3234e-06
-0.000205045
2.38692e-05
-7.05132e-07
-0.000228975
-4.12884e-06
7.26431e-05
-9.58565e-06
5.70999e-05
-3.9094e-06
-4.14704e-06
-2.42574e-06
2.10977e-05
-7.70734e-06
6.58448e-05
-1.04328e-05
8.72154e-05
-1.7958e-05
9.28006e-05
-1.8291e-05
8.28879e-05
-5.05261e-05
8.24194e-05
-3.00332e-05
4.31577e-05
-5.77918e-05
7.75429e-05
-5.33144e-05
2.5057e-05
-8.66952e-05
4.79028e-05
-0.000114557
4.9353e-05
-0.000124291
6.29559e-05
-0.00012327
3.08619e-05
-0.000104857
2.95488e-05
-0.000171631
8.1695e-05
-0.000197903
4.75979e-05
-0.000234997
2.93781e-05
-0.000249457
1.97838e-05
-0.000246639
2.10514e-05
1.26073e-05
-0.000259952
-2.55176e-06
7.51949e-05
-4.81026e-06
5.93584e-05
-5.76818e-06
-3.18909e-06
-2.83358e-06
1.81632e-05
-9.4577e-06
7.2469e-05
-1.3022e-05
9.07798e-05
-1.3646e-05
9.34247e-05
-2.48855e-05
9.41274e-05
-1.77743e-05
7.53082e-05
-5.04134e-05
7.57969e-05
-4.3169e-05
7.02985e-05
-8.387e-05
6.5758e-05
-9.55169e-05
5.95498e-05
-0.000103682
5.75178e-05
-7.18826e-05
3.11568e-05
-0.000112452
7.14316e-05
-0.000141017
5.81138e-05
-0.00010175
4.24279e-05
-0.000120429
6.6277e-05
-0.000128978
3.79265e-05
-0.000206942
9.77481e-05
-0.000240602
5.4711e-05
3.58336e-05
-0.000263828
-1.28829e-06
7.64832e-05
-1.81646e-06
5.98866e-05
-7.17562e-06
2.17012e-06
-1.46806e-05
2.56682e-05
-2.33167e-05
8.11052e-05
-2.44734e-05
9.19365e-05
-2.34859e-05
9.24373e-05
-2.22785e-05
9.29201e-05
-3.62646e-05
8.92943e-05
-4.3324e-05
8.28564e-05
-3.96629e-05
6.66374e-05
-4.54091e-05
7.15043e-05
-4.08673e-05
5.5008e-05
-5.28336e-05
6.94841e-05
-0.000113156
9.14787e-05
-0.000126243
8.45185e-05
-0.000146465
7.83364e-05
-0.000158568
5.45308e-05
-0.000180344
8.80525e-05
-0.0001876
4.51828e-05
-0.000137132
4.72798e-05
-0.000138429
5.60088e-05
3.71689e-05
-0.000139765
-2.29515e-06
7.87784e-05
-5.36027e-06
6.29518e-05
-1.44011e-05
1.1211e-05
-2.55015e-05
3.67687e-05
-2.98459e-05
8.54497e-05
-3.10691e-05
9.31598e-05
-3.61999e-05
9.75681e-05
-4.34455e-05
0.000100166
-1.93957e-05
6.52445e-05
-4.31308e-05
0.000106591
-3.05469e-05
5.40535e-05
-5.43229e-05
9.52803e-05
-9.09442e-05
9.16293e-05
-8.64071e-05
6.49471e-05
-6.11084e-05
6.618e-05
-9.67583e-05
0.000120168
-0.000115909
9.74872e-05
-0.000152113
9.07344e-05
-0.000110261
4.62007e-05
-0.000169153
0.000104075
-0.000197399
7.5526e-05
-0.000188123
4.67332e-05
5.23283e-05
-0.000203283
-2.754e-06
8.15324e-05
-4.51246e-06
6.47103e-05
-1.09957e-05
1.76943e-05
-2.19842e-05
4.77572e-05
-2.85867e-05
9.20523e-05
-2.73336e-05
9.19068e-05
-2.33986e-05
9.36332e-05
-1.45887e-05
9.13559e-05
-4.56864e-05
9.63423e-05
-3.47838e-05
9.56889e-05
-4.75485e-05
6.68182e-05
-5.17344e-05
9.94661e-05
-5.10871e-05
9.09819e-05
-5.58393e-05
6.96993e-05
-9.7193e-05
0.000107534
-6.584e-05
8.88154e-05
-6.87305e-05
0.000100378
-7.59159e-05
9.79199e-05
-0.00014542
0.000115705
-0.000100686
5.93406e-05
-0.000111326
8.61658e-05
-0.000191208
0.000126616
5.4395e-05
-0.000193275
-4.42469e-06
8.59571e-05
-1.62212e-06
6.19078e-05
-7.35866e-06
2.34309e-05
-4.09987e-05
8.13973e-05
-1.31924e-05
6.42461e-05
-1.88323e-05
9.75468e-05
-1.70688e-05
9.18698e-05
-2.60882e-05
0.000100375
-2.4398e-05
9.46521e-05
-1.82102e-05
8.95011e-05
-4.52065e-05
9.38144e-05
-4.68364e-05
0.000101096
-1.93699e-05
6.35153e-05
-6.3668e-05
0.000113997
-5.91557e-05
0.000103021
-8.80853e-05
0.000117745
-0.00010775
0.000120042
-0.000127104
0.000117274
-9.00924e-05
7.86934e-05
-0.000161743
0.000130991
-0.000161592
8.60148e-05
-0.00012127
8.62938e-05
0.000153962
-0.000220837
-6.76373e-06
9.27209e-05
-8.91644e-06
6.40606e-05
-6.93637e-06
2.14509e-05
-8.00884e-06
8.24699e-05
-3.93253e-05
9.55626e-05
-3.67779e-05
9.49995e-05
-1.03043e-05
6.53962e-05
-1.97308e-05
0.000109802
-2.85387e-05
0.00010346
-3.96716e-05
0.000100634
-4.15232e-05
9.5666e-05
-1.86616e-05
7.82343e-05
-3.79821e-05
8.28358e-05
-6.53008e-05
0.000141316
-4.70787e-05
8.47994e-05
-9.01314e-05
0.000160798
-6.03435e-05
9.02545e-05
-5.64374e-05
0.000113368
-0.000139186
0.000161442
-0.000124805
0.00011661
-0.000137184
9.83936e-05
-0.000196732
0.000145842
0.000174261
-0.000217031
-4.30038e-06
9.70213e-05
-4.45931e-06
6.42196e-05
-1.34228e-05
3.04144e-05
-3.17245e-05
0.000100772
-6.62084e-06
7.0459e-05
-3.14318e-06
9.15219e-05
-2.42746e-05
8.65277e-05
-1.57241e-05
0.000101251
-2.37046e-05
0.00011144
-2.28481e-05
9.97774e-05
-1.27396e-07
7.29452e-05
-2.76706e-05
0.000105777
-2.72961e-05
8.24612e-05
-3.10062e-05
0.000145026
-4.89265e-05
0.00010272
-4.05772e-05
0.000152448
-4.7004e-05
9.66814e-05
-0.000117418
0.000183781
-6.21648e-05
0.000106189
-0.000135441
0.000189886
-0.000134585
9.75379e-05
-0.000140933
0.00015219
0.000172664
-0.000139337
-9.07117e-06
0.000106092
-1.00402e-05
6.51887e-05
-3.62772e-05
5.66515e-05
-1.00098e-05
7.45043e-05
-1.82182e-05
7.86675e-05
-2.01646e-05
9.34684e-05
-2.65578e-06
6.90189e-05
-5.4785e-06
0.000104074
-7.48218e-06
0.000113444
-1.11982e-05
0.000103493
-2.21976e-05
8.39445e-05
-1.36053e-05
9.71851e-05
-2.53677e-05
9.42237e-05
-1.61184e-05
0.000135777
-5.60767e-05
0.000142678
-3.39797e-05
0.000130352
-8.38221e-05
0.000146524
-5.49075e-05
0.000154867
-0.000104711
0.000155993
-6.56787e-05
0.000150854
-0.000107905
0.000139764
-6.74495e-05
0.000111735
0.000220265
-0.00011505
-9.05476e-06
0.000115147
2.67641e-06
5.34576e-05
1.07797e-05
4.85483e-05
-1.19207e-05
9.72048e-05
-4.31123e-05
0.000109859
-7.89737e-06
5.82535e-05
-7.01962e-06
6.81412e-05
-5.8033e-06
0.000102858
-1.26155e-06
0.000108902
-2.78216e-06
0.000105014
-3.02038e-05
0.000111366
-6.08096e-06
7.30622e-05
-4.09292e-05
0.000129072
-3.00511e-05
0.000124899
-3.35863e-05
0.000146213
-6.2423e-05
0.000159188
-8.16659e-05
0.000165767
-9.7704e-05
0.000170905
-0.000125207
0.000183496
-0.000149933
0.00017558
-0.000190112
0.000179944
-0.000272228
0.000193851
0.000287669
-0.000339632
-3.53116e-06
0.000118678
-7.64634e-06
5.75728e-05
-1.30534e-05
5.39554e-05
-9.36173e-06
9.35132e-05
-7.51096e-06
0.000108008
3.0625e-07
5.04363e-05
-1.65302e-05
8.49776e-05
-7.95897e-06
9.42865e-05
-6.46615e-06
0.000107409
-1.5289e-05
0.000113837
-1.15549e-05
0.000107632
-2.16862e-05
8.31935e-05
-1.92207e-05
0.000126606
-3.34871e-05
0.000139165
-2.52577e-05
0.000137984
-3.53102e-05
0.000169241
-4.6019e-05
0.000176476
-8.34973e-05
0.000208383
-0.000105051
0.00020505
-0.000130621
0.00020115
-0.00013264
0.000181963
-0.000205996
0.000267207
0.000417181
-0.000335508
-5.44271e-07
0.000119223
-2.3262e-06
5.93548e-05
-6.78864e-06
5.84179e-05
-7.89323e-06
9.46179e-05
-5.55894e-06
0.000105674
-7.78375e-06
5.26611e-05
-3.7441e-06
8.0938e-05
-5.71349e-06
9.62559e-05
-6.98491e-06
0.000108681
-6.47831e-06
0.00011333
-1.80738e-05
0.000119227
-1.66857e-05
8.18053e-05
-2.97377e-05
0.000139658
-6.37152e-06
0.000115799
-2.1051e-05
0.000152664
-3.0169e-05
0.000178359
-5.77166e-05
0.000204023
-8.14123e-05
0.000232079
-0.00011248
0.000236118
-0.000163299
0.000251969
-0.000256278
0.000274942
-0.000205887
0.000216816
0.000512302
-0.000301008
1.57929e-06
0.000117644
-2.15912e-06
6.30933e-05
-7.49043e-06
6.37493e-05
-6.65418e-06
9.37817e-05
-1.47545e-06
0.000100496
-3.13969e-06
5.43254e-05
-5.581e-06
8.33793e-05
-1.00626e-06
9.16811e-05
-7.05421e-07
0.00010838
-2.11342e-07
0.000112836
-3.57405e-06
0.00012259
-4.55806e-06
8.27893e-05
-5.30531e-06
0.000140406
-4.14614e-05
0.000151955
-1.0746e-05
0.000121948
-1.60285e-05
0.000183642
-2.97773e-05
0.000217772
-3.2583e-05
0.000234884
-5.77829e-05
0.000261318
-0.000123638
0.000317825
-7.10304e-05
0.000222334
-0.00015599
0.000301776
0.000515613
-0.000159301
5.62716e-07
0.000117081
-5.02991e-07
6.41591e-05
-1.15287e-06
6.43992e-05
3.68789e-06
8.8941e-05
9.52158e-06
9.46619e-05
-1.21536e-05
7.60006e-05
-4.73737e-06
7.5963e-05
1.35056e-07
8.68087e-05
2.00329e-06
0.000106512
1.98988e-06
0.000112849
4.23581e-06
0.000120344
1.67645e-06
8.53486e-05
4.71671e-06
0.000137366
9.00318e-06
0.000147669
-1.71986e-05
0.00014815
-8.3752e-06
0.000174818
-9.92108e-06
0.000219318
-1.07161e-05
0.000235679
-1.63311e-05
0.000266933
2.28438e-05
0.00027865
5.47559e-05
0.000190422
-6.58683e-05
0.0004224
0.000496365
-4.662e-05
3.43032e-06
0.000113651
-9.6365e-07
6.85531e-05
-3.48638e-06
6.6922e-05
-4.49541e-07
8.59042e-05
4.02254e-06
9.01899e-05
-2.31798e-06
8.23412e-05
-6.87838e-06
8.05234e-05
1.57585e-05
6.41717e-05
1.53486e-05
0.000106921
1.1725e-05
0.000116473
2.58054e-05
0.000106264
-3.7283e-06
0.000114882
4.94294e-06
0.000128694
6.0896e-06
0.000146522
2.54017e-07
0.000153986
3.90419e-06
0.000171168
1.02414e-05
0.000212981
1.21219e-05
0.000233799
6.2601e-06
0.000272795
9.64098e-05
0.0001885
7.30287e-05
0.000213803
8.09105e-05
0.000414518
0.000448294
0.000128981
-3.43719e-08
0.000113685
3.57378e-06
6.49451e-05
-1.63253e-06
7.21284e-05
2.47327e-06
8.17985e-05
3.01868e-06
8.96445e-05
-3.2881e-06
8.8648e-05
1.7719e-05
5.95163e-05
1.51426e-05
6.67481e-05
1.50862e-05
0.000106978
1.26589e-05
0.0001189
1.28785e-05
0.000106044
1.81871e-05
0.000109574
1.88525e-05
0.000128029
1.46889e-05
0.000150686
2.24785e-05
0.000146196
3.47302e-05
0.000158916
4.93859e-05
0.000198325
5.56572e-05
0.000227528
6.97314e-05
0.00025872
7.55743e-05
0.000182657
8.67903e-05
0.000202587
0.000132303
0.000369006
0.000405451
0.000175146
2.51666e-05
8.85185e-05
4.6114e-06
8.55003e-05
-7.94107e-06
8.46809e-05
-1.09142e-05
8.47717e-05
9.87972e-06
6.88506e-05
3.40211e-05
6.45066e-05
8.23183e-06
8.53055e-05
9.61455e-06
6.53653e-05
8.27411e-06
0.000108318
2.48845e-06
0.000124685
2.58567e-05
8.26755e-05
1.15514e-05
0.000123879
3.90308e-05
0.00010055
3.65376e-05
0.000153179
1.94323e-05
0.000163301
6.70487e-05
0.0001113
6.9066e-05
0.000196308
5.04337e-05
0.00024616
0.00016006
0.000149094
0.000179664
0.000163053
8.9943e-05
0.000292309
0.000117373
0.000341576
0.000215297
0.000307526
-5.2623e-06
9.37808e-05
-1.02688e-06
8.12649e-05
-8.42993e-06
9.2084e-05
2.21975e-05
5.41443e-05
2.34451e-05
6.76031e-05
6.3728e-06
8.15789e-05
3.27661e-05
5.89122e-05
8.08462e-06
9.00467e-05
1.47605e-05
0.000101642
1.5597e-05
0.000123849
1.49494e-05
8.3323e-05
6.26203e-05
7.62081e-05
2.11275e-05
0.000142043
1.85046e-05
0.000155802
6.45463e-05
0.00011726
5.31669e-05
0.000122679
0.000123384
0.00012609
0.000148078
0.000221466
0.000170996
0.000126176
9.26989e-05
0.000241351
0.000109798
0.00027521
0.000285184
0.00016619
0.000295741
0.00020474
-3.2436e-05
0.000126217
-3.04303e-06
5.18721e-05
4.27428e-06
8.47668e-05
9.16363e-06
4.9255e-05
-6.12165e-06
8.28884e-05
1.88223e-05
5.6635e-05
2.14611e-05
5.62733e-05
2.1096e-05
9.04118e-05
1.86373e-05
0.000104101
3.01122e-05
0.000112374
3.60375e-05
7.73976e-05
3.12626e-05
8.0983e-05
3.24263e-05
0.000140879
9.30727e-05
9.51558e-05
4.67931e-05
0.000163539
6.04806e-05
0.000108992
6.76094e-05
0.000118962
0.000170682
0.000118394
8.83189e-05
0.000208539
0.000104526
0.000225144
0.000230399
0.000149336
0.000269955
0.000126634
0.000240924
0.000324772
8.47883e-06
0.000117738
6.5502e-06
5.38008e-05
1.18312e-05
7.94858e-05
1.11333e-05
4.99529e-05
1.64761e-05
7.75456e-05
1.84552e-05
5.46559e-05
1.944e-05
5.52885e-05
1.89784e-05
9.08734e-05
5.54879e-05
6.7591e-05
6.31458e-05
0.000104716
3.408e-05
0.000106463
3.38846e-05
8.11784e-05
9.68105e-05
7.79529e-05
5.10754e-05
0.000140891
0.000116258
9.83566e-05
0.000138702
8.65481e-05
0.000137536
0.000120128
0.00015522
0.00010071
0.000179751
0.000184008
0.000224412
0.000180483
0.000198574
0.000175174
0.000145465
0.000179743
0.000207951
0.000178438
5.72093e-06
0.000112017
5.58678e-06
5.3935e-05
6.0605e-06
7.90121e-05
3.45405e-06
5.25594e-05
2.38569e-05
5.71428e-05
2.08749e-05
5.7638e-05
1.5934e-05
6.02294e-05
4.32522e-05
6.35551e-05
4.69334e-05
6.39097e-05
3.86971e-05
0.000112952
8.71245e-05
5.80358e-05
7.64503e-05
9.18524e-05
4.56805e-05
0.000108723
0.000122424
6.4147e-05
0.000114437
0.000106344
0.000104584
9.64011e-05
0.000159204
6.55073e-05
8.77238e-05
0.00017219
0.000174803
9.69285e-05
0.000193634
0.000161652
0.000188905
0.000179903
0.000152371
0.000216278
0.000145028
0.000215294
9.79804e-07
0.000111037
1.75122e-06
5.31637e-05
2.47655e-05
5.59979e-05
2.48516e-05
5.24734e-05
2.43148e-05
5.76795e-05
2.76123e-05
5.43405e-05
3.27699e-05
5.50718e-05
3.90202e-05
5.73048e-05
4.77039e-05
5.5226e-05
5.87338e-05
0.000101922
6.1134e-05
5.56354e-05
7.42742e-05
7.87122e-05
8.66979e-05
9.6299e-05
9.75593e-05
5.32856e-05
0.000112675
9.12285e-05
0.000155891
5.31849e-05
0.000110131
0.000111268
0.000143367
0.000138954
0.000148087
9.22084e-05
0.000205409
0.000104331
0.000224406
0.000160906
0.000245948
0.000194735
0.000224097
0.000166879
6.6659e-06
0.000104372
9.19595e-06
5.06337e-05
1.10315e-05
5.41624e-05
1.28413e-05
5.06636e-05
2.08411e-05
4.96798e-05
2.45109e-05
5.06706e-05
2.95564e-05
5.00263e-05
3.67406e-05
5.01206e-05
4.40561e-05
4.79104e-05
5.33764e-05
9.26018e-05
2.78943e-05
8.11174e-05
5.32159e-05
5.33906e-05
0.000102918
4.65964e-05
9.32577e-05
6.29463e-05
0.000111211
7.32756e-05
9.58312e-05
6.85643e-05
0.000124909
8.21902e-05
0.00021286
5.10029e-05
0.000191621
0.000113447
0.000204833
9.11196e-05
0.000258879
0.00010686
0.000272549
0.000181065
0.000196155
0.000300491
1.06019e-05
9.37697e-05
1.3434e-05
4.78016e-05
1.83646e-05
4.92319e-05
2.10855e-05
4.79428e-05
2.43068e-05
4.64585e-05
2.77655e-05
4.72119e-05
3.22402e-05
4.55515e-05
3.76494e-05
4.47114e-05
4.25621e-05
4.29977e-05
5.53986e-05
7.97652e-05
6.2399e-05
7.41169e-05
7.05775e-05
4.5212e-05
7.62395e-05
4.09343e-05
9.70322e-05
4.21535e-05
0.000125428
4.48797e-05
0.000166021
2.79718e-05
0.000206753
4.14583e-05
0.000211226
4.65299e-05
0.000219158
0.000105515
0.000242399
6.78789e-05
0.000257294
9.1965e-05
0.000266015
0.000172345
0.000117832
0.000344338
1.12897e-05
8.248e-05
1.32666e-05
4.58248e-05
1.69622e-05
4.55363e-05
1.98202e-05
4.50848e-05
2.15963e-05
4.46824e-05
2.48426e-05
4.39657e-05
2.82814e-05
4.21127e-05
3.21453e-05
4.08475e-05
3.64878e-05
3.86552e-05
4.9975e-05
6.62778e-05
5.89673e-05
6.51246e-05
6.81036e-05
3.60755e-05
7.68563e-05
3.21816e-05
8.64132e-05
3.25966e-05
9.47665e-05
3.65263e-05
7.8559e-05
4.41793e-05
0.000129951
-9.9338e-06
0.000181929
-5.4475e-06
0.0002817
5.74357e-06
0.000304396
4.51824e-05
0.000286196
0.000110165
0.00030261
0.000155931
0.000219125
0.000201317
2.34715e-05
5.90085e-05
2.03407e-05
4.89556e-05
1.91608e-05
4.67162e-05
1.95925e-05
4.46532e-05
2.12686e-05
4.30064e-05
2.33861e-05
4.18482e-05
2.5117e-05
4.03817e-05
2.65108e-05
3.94537e-05
2.70897e-05
3.80762e-05
5.17394e-05
4.16281e-05
5.8131e-05
5.8733e-05
6.45517e-05
2.96549e-05
7.18848e-05
2.48484e-05
8.62076e-05
1.82737e-05
0.000110996
1.17375e-05
0.000150183
4.99255e-06
0.000191778
-5.15283e-05
0.000251363
-6.50325e-05
0.000276002
-1.88961e-05
0.000283968
3.72173e-05
0.000336233
5.78999e-05
0.000362678
0.000129486
0.000215736
0.000366067
7.04319e-06
5.19654e-05
1.03315e-05
4.56674e-05
1.30114e-05
4.40363e-05
1.53553e-05
4.23093e-05
1.76263e-05
4.07354e-05
1.99538e-05
3.95207e-05
2.25744e-05
3.77611e-05
2.57597e-05
3.62684e-05
2.95175e-05
3.43183e-05
3.79063e-05
3.32392e-05
5.03679e-05
4.62714e-05
5.75469e-05
2.24758e-05
6.17683e-05
2.0627e-05
7.06963e-05
9.34568e-06
7.61987e-05
6.23509e-06
9.98662e-05
-1.8675e-05
0.000105368
-5.70306e-05
0.000165296
-0.00012496
0.000230219
-8.38194e-05
0.00034597
-7.8533e-05
0.00040072
3.14952e-06
0.000410329
0.000119878
0.000241778
0.000384287
5.62227e-06
4.63431e-05
8.50701e-06
4.27827e-05
1.10365e-05
4.15068e-05
1.31268e-05
4.0219e-05
1.52179e-05
3.86442e-05
1.71456e-05
3.75931e-05
1.94725e-05
3.54341e-05
2.14452e-05
3.42957e-05
2.41828e-05
3.15807e-05
2.79546e-05
2.94674e-05
4.43908e-05
2.98352e-05
4.06586e-05
2.62081e-05
4.42041e-05
1.70815e-05
3.2604e-05
2.09458e-05
4.32409e-05
-4.40185e-06
4.7201e-05
-2.2635e-05
0.000108242
-0.000118072
0.000167716
-0.000184434
0.000200297
-0.000116401
0.000200743
-7.89783e-05
0.000213832
-9.93923e-06
0.000230236
0.000103473
0.000135657
0.000336357
3.45353e-06
4.28896e-05
5.79333e-06
4.04429e-05
7.86343e-06
3.94367e-05
9.58026e-06
3.85022e-05
1.11959e-05
3.70286e-05