/*--------------------------------*- C++ -*----------------------------------*\
| =========                 |                                                 |
| \\      /  F ield         | foam-extend: Open Source CFD                    |
|  \\    /   O peration     | Version:     4.1                                |
|   \\  /    A nd           | Web:         http://www.foam-extend.org         |
|    \\/     M anipulation  |                                                 |
\*---------------------------------------------------------------------------*/
FoamFile
{
    version     2.0;
    format      ascii;
    class       surfaceScalarField;
    location    "0.6";
    object      phi_0;
}
// * * * * * * * * * * * * * * * * * * * * * * * * * * * * * * * * * * * * * //

dimensions      [0 3 -1 0 0 0 0];

internalField   nonuniform List<scalar> 
4432
(
2.17581e-06
-2.17581e-06
2.64717e-06
-4.71362e-07
4.13551e-06
-1.48834e-06
5.44775e-06
-1.31224e-06
5.85877e-06
-4.11016e-07
5.31571e-06
5.43056e-07
4.51692e-06
7.98797e-07
3.30637e-06
1.21055e-06
2.40209e-06
9.04283e-07
2.06467e-06
3.37417e-07
4.928e-06
-2.86332e-06
5.97774e-06
-1.04974e-06
7.26056e-06
-1.28282e-06
8.11686e-06
-8.56299e-07
8.80745e-06
-6.90595e-07
9.26297e-06
-4.55518e-07
9.73539e-06
-4.7243e-07
9.74294e-06
-7.5514e-09
9.31348e-06
4.29449e-07
8.13102e-06
1.18246e-06
5.70764e-06
2.42338e-06
3.28297e-06
2.42467e-06
3.28298e-06
2.05556e-06
-4.23137e-06
2.94568e-06
-1.36148e-06
4.50417e-06
-3.04683e-06
5.57424e-06
-2.38232e-06
5.96122e-06
-7.97998e-07
5.44772e-06
1.05657e-06
4.6463e-06
1.60022e-06
3.39975e-06
2.4571e-06
3.03945e-06
1.26459e-06
2.6137e-06
7.63163e-07
3.95118e-06
-4.2008e-06
4.04865e-06
-1.14721e-06
4.73861e-06
-1.97278e-06
5.2771e-06
-1.3948e-06
6.07784e-06
-1.49134e-06
6.77913e-06
-1.15682e-06
7.77549e-06
-1.4688e-06
8.37306e-06
-6.0513e-07
8.25054e-06
5.51972e-07
7.31435e-06
2.11865e-06
5.21842e-06
4.51932e-06
2.24311e-06
5.4e-06
5.52608e-06
1.68216e-06
-5.91353e-06
3.2072e-06
-2.88652e-06
4.78439e-06
-4.62403e-06
5.47762e-06
-3.07554e-06
5.96421e-06
-1.28459e-06
5.44646e-06
1.57432e-06
4.56213e-06
2.48455e-06
3.65591e-06
3.36332e-06
3.20311e-06
1.71738e-06
5.47399e-06
-1.50772e-06
4.11161e-06
-2.83841e-06
3.59859e-06
-6.34195e-07
3.26989e-06
-1.64408e-06
3.26373e-06
-1.38865e-06
3.71014e-06
-1.93775e-06
4.12362e-06
-1.57031e-06
5.10944e-06
-2.45462e-06
6.09335e-06
-1.58905e-06
6.47704e-06
1.68276e-07
6.30312e-06
2.29258e-06
4.94931e-06
5.87313e-06
2.65999e-06
7.68932e-06
8.18608e-06
1.37639e-06
-7.28992e-06
3.48124e-06
-4.99137e-06
5.04392e-06
-6.1867e-06
5.80735e-06
-3.83898e-06
6.50263e-06
-1.97986e-06
5.6902e-06
2.38675e-06
4.37991e-06
3.79484e-06
3.11217e-06
4.63106e-06
3.5199e-06
1.30965e-06
1.00055e-06
1.01163e-06
-7.74683e-07
-1.06317e-06
-3.25673e-06
1.84785e-06
-4.64948e-06
-2.51335e-07
-5.4582e-06
-5.79934e-07
-5.27867e-06
-2.11728e-06
-4.66783e-06
-2.18116e-06
-3.08197e-06
-4.04048e-06
-1.41845e-06
-3.25257e-06
7.26258e-07
-1.97643e-06
3.0725e-06
-5.36564e-08
3.77951e-06
5.16612e-06
2.5322e-06
8.93664e-06
1.07183e-05
1.45409e-06
-8.74401e-06
3.84057e-06
-7.37785e-06
5.42239e-06
-7.76852e-06
6.36219e-06
-4.77878e-06
6.83238e-06
-2.45006e-06
5.30148e-06
3.91765e-06
3.62996e-06
5.46636e-06
1.52006e-06
6.74096e-06
-5.72943e-07
3.40266e-06
-3.10879e-06
3.54749e-06
-5.3792e-06
1.20723e-06
-6.9655e-06
3.43416e-06
-7.83292e-06
6.16086e-07
-8.24672e-06
-1.66138e-07
-9.19536e-06
-1.16865e-06
-9.97137e-06
-1.40515e-06
-8.88805e-06
-5.12381e-06
-8.18423e-06
-3.95639e-06
-6.49894e-06
-3.66172e-06
-3.11432e-06
-3.43827e-06
1.90599e-07
1.8612e-06
1.66226e-06
7.46497e-06
1.23805e-05
2.02413e-06
-1.07681e-05
4.48085e-06
-9.83457e-06
5.83496e-06
-9.12263e-06
6.57808e-06
-5.52189e-06
6.91214e-06
-2.78412e-06
5.31757e-06
5.51222e-06
3.17847e-06
7.60547e-06
1.04757e-06
8.87186e-06
-3.74351e-06
8.19374e-06
-6.47881e-06
6.28279e-06
-9.52712e-06
4.25554e-06
-1.13328e-05
5.23979e-06
-1.21289e-05
1.41226e-06
-1.24586e-05
1.6349e-07
-1.22615e-05
-1.36571e-06
-1.2608e-05
-1.05864e-06
-1.22791e-05
-5.45273e-06
-1.1481e-05
-4.75451e-06
-9.93828e-06
-5.20444e-06
-8.75868e-06
-4.61787e-06
-2.54607e-06
-4.35142e-06
1.26198e-07
4.7927e-06
1.25067e-05
2.50781e-06
-1.3276e-05
4.71018e-06
-1.20369e-05
5.8192e-06
-1.02316e-05
6.88913e-06
-6.59183e-06
7.67076e-06
-3.56575e-06
5.51093e-06
7.67206e-06
1.46323e-06
1.16532e-05
-3.34919e-06
1.36843e-05
-7.8776e-06
1.27221e-05
-9.80235e-06
8.20754e-06
-1.21993e-05
6.65247e-06
-1.32857e-05
6.32621e-06
-1.33451e-05
1.47166e-06
-1.32746e-05
9.29633e-08
-1.35706e-05
-1.06972e-06
-1.42161e-05
-4.13143e-07
-1.27993e-05
-6.86948e-06
-1.2139e-05
-5.41486e-06
-1.11877e-05
-6.15566e-06
-1.09809e-05
-4.82471e-06
-7.36399e-06
-7.96835e-06
-1.29962e-06
-1.27167e-06
1.12071e-05
2.61507e-06
-1.5891e-05
4.80182e-06
-1.42237e-05
6.04084e-06
-1.14707e-05
7.44962e-06
-8.00061e-06
7.9977e-06
-4.11383e-06
5.17261e-06
1.04971e-05
1.90317e-06
1.49226e-05
-4.99028e-06
2.05777e-05
-9.10923e-06
1.68411e-05
-1.39128e-05
1.30111e-05
-1.57088e-05
8.44849e-06
-1.51292e-05
5.74655e-06
-1.48108e-05
1.15329e-06
-1.45747e-05
-1.43161e-07
-1.47043e-05
-9.40083e-07
-1.52415e-05
1.23996e-07
-1.20783e-05
-1.00326e-05
-1.11131e-05
-6.38004e-06
-1.06052e-05
-6.66364e-06
-1.14617e-05
-3.96814e-06
-8.65122e-06
-1.07789e-05
-2.56764e-06
-7.35526e-06
8.63946e-06
-0.000137174
0.000137174
-0.000199604
6.24297e-05
-0.000221305
2.17012e-05
-0.000234542
1.32368e-05
-0.000212617
-2.19255e-05
-0.00017514
-3.74771e-05
-0.000152536
-2.26032e-05
-0.000149758
-2.77817e-06
-0.000153187
3.42883e-06
-0.000158515
5.32765e-06
-0.000164803
6.28801e-06
-0.00015526
-9.54225e-06
-0.000143305
-1.19552e-05
-0.000135626
-7.67925e-06
-7.23652e-05
-6.32607e-05
-4.84007e-05
-2.39645e-05
-3.30161e-05
-1.53845e-05
-5.08304e-07
-3.25078e-05
-5.08295e-07
-0.000137223
0.000274398
-0.000192988
0.000118194
-0.000208528
3.72409e-05
-0.000204649
9.35768e-06
-0.000167544
-5.90304e-05
-0.000132409
-7.26115e-05
-0.000127039
-2.79734e-05
-0.000133006
3.18906e-06
-0.000136544
6.96672e-06
-0.000136687
5.47093e-06
-0.000138674
8.27513e-06
-0.000132549
-1.56677e-05
-0.000128701
-1.5803e-05
-7.25894e-05
-6.37911e-05
-6.3751e-05
-7.20991e-05
-5.09831e-05
-3.67325e-05
-2.77535e-05
-3.86141e-05
-1.99572e-06
-5.82656e-05
-2.50401e-06
-6.49703e-05
0.000339368
-0.00017161
0.000224833
-0.000194744
6.03749e-05
-0.000109256
-7.61301e-05
-6.83669e-05
-9.99191e-05
-3.62124e-05
-0.000104766
-3.36305e-05
-3.05554e-05
-5.48994e-05
2.44579e-05
-0.000117743
6.981e-05
-0.000128699
1.64273e-05
-7.76944e-05
-4.27295e-05
-0.000120307
2.69451e-05
-0.000112521
-2.35894e-05
-7.07902e-05
-0.000105522
-0.000107183
-3.57064e-05
-8.66567e-05
-5.72586e-05
-5.27342e-05
-7.25366e-05
-1.85278e-05
-9.2472e-05
-2.10318e-05
-4.71174e-05
0.000386486
-0.00010538
0.000283096
-4.85466e-05
3.54191e-06
-5.24865e-05
-7.21902e-05
-2.59928e-05
-0.000126413
-2.28779e-06
-0.000128471
9.59414e-06
-4.24373e-05
-2.08516e-05
5.49036e-05
-3.47606e-05
8.37191e-05
-7.14098e-05
5.30764e-05
-0.000112413
-1.72634e-06
-0.000101091
1.5623e-05
-5.4576e-05
-7.01043e-05
-6.86933e-05
-9.14043e-05
-6.21852e-05
-4.22145e-05
-9.22398e-05
-2.7204e-05
-6.51708e-05
-9.96056e-05
-3.58975e-05
-0.000121745
-5.69294e-05
-1.58071e-05
0.000402293
3.39408e-06
0.000263895
1.01926e-06
5.91674e-06
-7.15343e-07
-7.04557e-05
7.48219e-06
-0.00013461
7.96659e-06
-0.000128955
2.06368e-05
-5.51074e-05
6.3755e-05
1.17854e-05
6.57185e-05
8.17556e-05
7.72902e-05
4.15047e-05
5.75545e-05
1.80094e-05
8.52322e-05
-1.20546e-05
2.73906e-05
-1.22627e-05
-4.73447e-05
-1.66689e-05
-0.000101693
1.21334e-05
-9.36293e-05
-3.52673e-05
-7.1611e-05
-0.000121624
-5.04462e-05
-0.00014291
-0.000107376
8.45469e-06
0.000393838
3.14105e-05
0.000240939
1.92196e-05
1.81076e-05
2.27115e-05
-7.39476e-05
1.81232e-05
-0.000130022
1.16773e-05
-0.00012251
1.6208e-05
-5.9638e-05
3.75592e-05
-9.56584e-06
0.000102653
1.66613e-05
0.000135008
9.14978e-06
0.000160984
-7.96647e-06
0.000156881
-7.95143e-06
7.22621e-05
7.23563e-05
-3.74336e-05
9.30268e-05
-9.90144e-05
7.37143e-05
-8.86102e-05
-4.56716e-05
-6.47665e-05
-0.000145468
-2.96172e-05
-0.000178059
-0.000136993
9.13505e-06
0.000384703
3.60272e-05
0.000214047
2.55437e-05
2.85911e-05
1.8697e-05
-6.7101e-05
2.69688e-05
-0.000138294
4.47769e-06
-0.000100018
2.31401e-05
-7.83004e-05
3.19581e-05
-1.83838e-05
4.72875e-05
1.33179e-06
0.000101261
-4.48236e-05
0.000106731
-1.34369e-05
8.08202e-05
1.79598e-05
6.96089e-05
8.35675e-05
-3.03444e-05
0.00019298
-5.13228e-05
9.46926e-05
-8.24566e-05
-1.45378e-05
-5.33764e-05
-0.000174548
-2.46691e-05
-0.000206767
-0.000161662
2.27207e-06
0.000382431
6.10917e-05
0.000155227
3.40461e-05
5.56368e-05
5.13831e-05
-8.4438e-05
3.18253e-05
-0.000118736
2.14173e-05
-8.96103e-05
1.88188e-05
-7.57019e-05
3.01688e-05
-2.97338e-05
7.01208e-05
-3.86202e-05
8.63344e-05
-6.10372e-05
9.26549e-05
-1.97574e-05
9.84344e-05
1.21803e-05
7.24346e-05
0.000109567
-2.90442e-07
0.000265705
-7.76079e-05
0.00017201
-8.84094e-05
-3.73626e-06
-4.77534e-05
-0.000215204
-2.14097e-05
-0.00023311
-0.000183072
4.86948e-06
-2.07605e-05
9.69175e-06
-1.9046e-05
1.15495e-05
-1.33284e-05
1.5448e-05
-1.18991e-05
1.55326e-05
-4.19843e-06
1.17464e-05
1.42833e-05
-6.8328e-06
3.35019e-05
-1.97801e-05
3.3525e-05
-2.9614e-05
2.6675e-05
-3.24229e-05
1.582e-05
-3.38245e-05
9.85005e-06
-3.31402e-05
5.06229e-06
-3.1707e-05
-2.79922e-07
-2.90502e-05
-2.79994e-06
-2.89486e-05
-1.04169e-06
-1.8516e-05
-1.03086e-05
-2.67842e-05
-1.76444e-06
-2.33984e-05
-9.76585e-06
-2.0242e-05
-9.82006e-06
-1.11333e-05
-1.30769e-05
-8.34449e-06
-1.35676e-05
-4.66436e-06
-1.10354e-05
-7.53621e-06
1.15113e-05
2.09687e-06
-2.28574e-05
5.84329e-06
-2.27924e-05
6.70252e-06
-1.41876e-05
-2.49762e-06
-2.69894e-06
-2.33214e-05
1.66254e-05
-5.42125e-05
4.51743e-05
-4.55511e-05
2.48405e-05
-4.85553e-05
3.65292e-05
-4.74471e-05
2.55669e-05
-4.30278e-05
1.14007e-05
-3.72005e-05
4.02275e-06
-3.1495e-05
-6.43184e-07
-2.59045e-05
-5.87047e-06
-2.24279e-05
-6.27648e-06
-1.36863e-05
-9.78331e-06
-1.28349e-05
-1.116e-05
-9.97517e-06
-4.62416e-06
-1.15902e-05
-8.1508e-06
-1.03779e-05
-1.10324e-05
-8.09198e-06
-1.53628e-05
-8.54809e-06
-1.31115e-05
-1.40821e-05
-5.50135e-06
-1.54277e-06
-2.00756e-05
-1.6622e-05
-6.23539e-06
-3.19039e-05
-7.51048e-06
-4.07594e-05
-5.33215e-06
-5.72012e-05
1.37429e-05
-7.15336e-05
3.09577e-05
-8.00236e-05
5.36644e-05
-8.48677e-05
2.96846e-05
-0.000105526
5.71876e-05
-8.56795e-05
5.72026e-06
-7.38253e-05
-4.53464e-07
-5.91136e-05
-1.0689e-05
-4.5003e-05
-1.47537e-05
-3.43186e-05
-1.65549e-05
-2.73258e-05
-1.32693e-05
-2.49691e-05
-1.214e-05
-2.10305e-05
-1.50986e-05
-1.72401e-05
-8.41459e-06
-1.54404e-05
-9.9505e-06
-1.59918e-05
-1.0481e-05
-1.9852e-05
-1.15025e-05
-2.35321e-05
-9.4315e-06
-2.20928e-05
-6.94064e-06
-5.08013e-07
-2.31275e-05
-2.05008e-05
1.42655e-05
-3.4165e-05
6.1537e-06
-3.72647e-05
-2.23244e-06
-5.08977e-05
2.73759e-05
-7.13587e-05
5.14187e-05
-0.000113065
9.53709e-05
-0.000135732
5.23513e-05
-0.000144915
6.63701e-05
-0.000140661
1.46707e-06
-7.41446e-05
-6.69701e-05
-5.508e-05
-2.97537e-05
-3.41044e-05
-3.57293e-05
-4.76988e-05
-2.96048e-06
-6.22177e-05
1.24962e-06
-4.63475e-05
-2.80102e-05
-4.59495e-05
-1.54966e-05
-3.73975e-05
-1.69666e-05
-5.06062e-05
3.25819e-06
-4.29176e-05
-1.81695e-05
-3.40769e-05
-2.03433e-05
-2.55457e-05
-1.79627e-05
-1.9156e-05
-1.33303e-05
-6.22849e-06
-1.34355e-05
-2.38151e-05
3.80806e-05
-3.13413e-05
1.36798e-05
-4.12686e-05
7.69488e-06
-3.85079e-05
2.46152e-05
-4.15805e-05
5.44913e-05
-3.16464e-05
8.54369e-05
-7.14651e-05
9.217e-05
-8.27066e-05
7.76117e-05
-8.29804e-05
1.74082e-06
-0.000103543
-4.6408e-05
-9.35476e-05
-3.97486e-05
-0.000102992
-2.62852e-05
-8.50478e-05
-2.09042e-05
-0.000105877
2.2079e-05
-0.000110916
-2.29716e-05
-7.00869e-05
-5.63254e-05
-9.84626e-05
1.14091e-05
-0.000102093
6.88845e-06
-0.000114244
-6.01866e-06
-0.000114378
-2.02092e-05
-6.23227e-05
-7.00177e-05
-7.18915e-05
-3.7615e-06
-4.10447e-05
-3.70752e-05
-1.45388e-05
5.26193e-05
-2.15457e-05
2.06868e-05
-2.43891e-05
1.05382e-05
-3.27204e-05
3.29465e-05
-2.31779e-05
4.49489e-05
-1.59411e-05
7.82001e-05
-5.77992e-06
8.20088e-05
-1.00062e-05
8.1838e-05
-3.95121e-05
3.12467e-05
-7.77942e-05
-8.12582e-06
-9.98632e-05
-1.76795e-05
-0.000111261
-1.4887e-05
-0.000117756
-1.44095e-05
-0.000113224
1.75471e-05
-9.26961e-05
-4.34992e-05
-0.000139789
-9.23224e-06
-0.000133342
4.96172e-06
-0.000121931
-4.52254e-06
-8.37291e-05
-4.42201e-05
-7.23842e-05
-3.15541e-05
-0.000109762
-3.264e-05
-9.35933e-05
-1.99301e-05
-4.91356e-05
-8.55024e-05
-3.90191e-06
5.65212e-05
-1.9165e-05
3.59499e-05
-1.82177e-05
9.59089e-06
-1.14905e-05
2.62194e-05
-1.51601e-05
4.86184e-05
-1.2627e-05
7.5667e-05
-7.19112e-06
7.6573e-05
-6.96234e-06
8.16093e-05
-1.47489e-05
3.90334e-05
-4.921e-05
2.63354e-05
-7.51938e-05
8.30434e-06
-9.1781e-05
1.7002e-06
-9.94311e-05
-6.75924e-06
-7.8162e-05
-3.72186e-06
-0.000124972
3.31142e-06
-0.000146618
1.24135e-05
-0.000154336
1.26802e-05
-0.000149592
-9.2668e-06
-0.000173983
-1.98292e-05
-0.000190995
-1.45416e-05
-0.00020695
-1.66854e-05
-0.000209715
-1.71647e-05
-2.91934e-05
-0.000229657
-5.13974e-06
6.1661e-05
-1.27386e-05
4.35487e-05
-9.24337e-06
6.09567e-06
-5.15253e-06
2.21286e-05
-1.03836e-05
5.38495e-05
-1.11179e-05
7.64013e-05
-1.27343e-05
7.81894e-05
-1.55283e-05
8.44033e-05
-1.47052e-05
3.82104e-05
-3.69945e-05
4.86247e-05
-6.46683e-05
3.59783e-05
-6.76221e-05
4.65407e-06
-0.000101756
2.73745e-05
-0.000120125
1.46476e-05
-0.000129736
1.29228e-05
-0.000140765
2.34427e-05
-0.000148182
2.00971e-05
-0.000165451
8.00242e-06
-0.000185782
5.02259e-07
-0.000214735
1.44115e-05
-0.000230817
-6.03934e-07
-0.000226811
-2.11706e-05
-2.13466e-05
-0.000234658
-5.21994e-06
6.68809e-05
-1.19247e-05
5.02534e-05
-5.51781e-06
-3.11166e-07
-4.2993e-06
2.091e-05
-9.37565e-06
5.89258e-05
-1.59579e-05
8.29836e-05
-2.20035e-05
8.42351e-05
-1.91023e-05
8.15022e-05
-3.04724e-05
4.95805e-05
-4.4373e-05
6.25254e-05
-5.75348e-05
4.91401e-05
-8.18179e-05
2.89373e-05
-6.83955e-05
1.39522e-05
-7.42407e-05
2.0493e-05
-0.000112912
5.1594e-05
-0.000120151
3.06817e-05
-0.000146601
4.65474e-05
-0.000152899
1.43013e-05
-0.000172767
2.03696e-05
-0.000149638
-8.71706e-06
-0.000155049
4.80761e-06
-0.00019926
2.30396e-05
-4.65893e-07
-0.00022014
-4.04366e-06
7.09246e-05
-9.32828e-06
5.55381e-05
-3.65e-06
-5.98945e-06
-2.21248e-06
1.94725e-05
-7.44933e-06
6.41627e-05
-1.00899e-05
8.56241e-05
-1.71404e-05
9.12856e-05
-1.74478e-05
8.18097e-05
-4.88312e-05
8.0964e-05
-2.88467e-05
4.25409e-05
-5.53336e-05
7.56271e-05
-5.09295e-05
2.45333e-05
-8.36338e-05
4.66566e-05
-0.000110779
4.76386e-05
-0.000120274
6.10891e-05
-0.000119388
2.97952e-05
-0.000101299
2.84587e-05
-0.000165979
7.89809e-05
-0.000191302
4.56935e-05
-0.000227671
2.76516e-05
-0.00024178
1.89164e-05
-0.000239024
2.0284e-05
1.05889e-05
-0.000250079
-2.43195e-06
7.33565e-05
-4.51851e-06
5.76246e-05
-5.27461e-06
-5.23335e-06
-2.78255e-06
1.69805e-05
-9.31004e-06
7.06902e-05
-1.27009e-05
8.9015e-05
-1.31417e-05
9.17264e-05
-2.38303e-05
9.24983e-05
-1.68218e-05
7.39555e-05
-4.85685e-05
7.42878e-05
-4.16022e-05
6.86608e-05
-8.11264e-05
6.40576e-05
-9.23243e-05
5.78545e-05
-0.000100382
5.56964e-05
-6.94358e-05
3.0143e-05
-0.000108812
6.91715e-05
-0.000136354
5.60006e-05
-9.83147e-05
4.09418e-05
-0.000116408
6.37865e-05
-0.000124755
3.59984e-05
-0.000199024
9.31856e-05
-0.000230336
5.15957e-05
3.25763e-05
-0.000252323
-1.19548e-06
7.4552e-05
-1.64093e-06
5.80701e-05
-6.88499e-06
1.07131e-08
-1.43821e-05
2.44776e-05
-2.29974e-05
7.93055e-05
-2.39502e-05
8.99679e-05
-2.28136e-05
9.05898e-05
-2.13974e-05
9.10821e-05
-3.49515e-05
8.75098e-05
-4.16909e-05
8.10273e-05
-3.82336e-05
6.52036e-05
-4.38598e-05
6.96839e-05
-3.927e-05
5.32648e-05
-5.08902e-05
6.73166e-05
-0.000109471
8.87238e-05
-0.00012225
8.19503e-05
-0.000141674
7.54247e-05
-0.00015247
5.17379e-05
-0.000172598
8.39145e-05
-0.000180006
4.34058e-05
-0.000132075
4.52547e-05
-0.000133461
5.2982e-05
3.40773e-05
-0.000134962
-2.18213e-06
7.67341e-05
-5.13415e-06
6.10221e-05
-1.40369e-05
8.91347e-06
-2.5049e-05
3.54897e-05
-2.93753e-05
8.36319e-05
-3.04647e-05
9.10572e-05
-3.53923e-05
9.55175e-05
-4.22524e-05
9.79423e-05
-1.86116e-05
6.3869e-05
-4.14692e-05
0.000103885
-2.92473e-05
5.29818e-05
-5.21332e-05
9.25699e-05
-8.77615e-05
8.88931e-05
-8.35652e-05
6.31203e-05
-5.8998e-05
6.41566e-05
-9.34776e-05
0.00011643
-0.000111925
9.38723e-05
-0.000146832
8.6645e-05
-0.000107098
4.41802e-05
-0.00016321
9.95172e-05
-0.000189779
7.18237e-05
-0.00018072
4.39237e-05
4.75545e-05
-0.000194197
-2.64179e-06
7.93759e-05
-4.22129e-06
6.26016e-05
-1.0638e-05
1.53302e-05
-2.14976e-05
4.63493e-05
-2.81332e-05
9.02675e-05
-2.67991e-05
8.97232e-05
-2.2718e-05
9.14364e-05
-1.41086e-05
8.9333e-05
-4.43312e-05
9.40916e-05
-3.3454e-05
9.30079e-05
-4.56002e-05
6.51281e-05
-4.95455e-05
9.65153e-05
-4.87288e-05
8.80764e-05
-5.33677e-05
6.77592e-05
-9.37572e-05
0.000104546
-6.37102e-05
8.63829e-05
-6.66946e-05
9.68566e-05
-7.34992e-05
9.34496e-05
-0.000140148
0.000110829
-9.74858e-05
5.6855e-05
-0.000107414
8.17521e-05
-0.000183111
0.000119621
4.8813e-05
-0.00018437
-4.39901e-06
8.37749e-05
-1.60642e-06
5.9809e-05
-7.33209e-06
2.10559e-05
-4.02655e-05
7.92827e-05
-1.28848e-05
6.28867e-05
-1.83236e-05
9.5162e-05
-1.65545e-05
8.96674e-05
-2.52905e-05
9.8069e-05
-2.33209e-05
9.21222e-05
-1.72304e-05
8.69175e-05
-4.32118e-05
9.11095e-05
-4.47414e-05
9.80449e-05
-1.83109e-05
6.1646e-05
-6.1437e-05
0.000110885
-5.7065e-05
0.000100174
-8.48651e-05
0.000114183
-0.000103869
0.000115861
-0.00012292
0.0001125
-8.76661e-05
7.55753e-05
-0.000155836
0.000125025
-0.000155991
8.19076e-05
-0.000118083
8.17123e-05
0.000142264
-0.000211535
-6.47424e-06
9.02492e-05
-8.1725e-06
6.15072e-05
-6.90948e-06
1.97929e-05
-7.84607e-06
8.02193e-05
-3.87101e-05
9.37508e-05
-3.61036e-05
9.25556e-05
-9.9124e-06
6.34762e-05
-1.88866e-05
0.000107043
-2.75023e-05
0.000100738
-3.82626e-05
9.76779e-05
-3.99159e-05
9.27629e-05
-1.76135e-05
7.57425e-05
-3.64333e-05
8.04658e-05
-6.31731e-05
0.000137625
-4.54347e-05
8.24355e-05
-8.74947e-05
0.000156243
-5.86725e-05
8.70384e-05
-5.49153e-05
0.000108743
-0.000134795
0.000155455
-0.000121328
0.000111558
-0.000132544
9.31231e-05
-0.000187186
0.000136354
0.00016207
-0.000206992
-4.24511e-06
9.44943e-05
-4.29493e-06
6.15571e-05
-1.31735e-05
2.86714e-05
-3.1276e-05
9.83219e-05
-6.46368e-06
6.89384e-05
-2.94597e-06
8.90379e-05
-2.36653e-05
8.41956e-05
-1.51765e-05
9.85545e-05
-2.2923e-05
0.000108485
-2.15445e-05
9.62994e-05
2.27446e-07
7.0991e-05
-2.66794e-05
0.000102649
-2.6534e-05
8.03204e-05
-3.01324e-05
0.000141223
-4.75671e-05
9.98702e-05
-3.93793e-05
0.000148055
-4.56881e-05
9.33472e-05
-0.000115123
0.000178178
-6.14197e-05
0.000101752
-0.000132468
0.000182607
-0.000130017
9.06717e-05
-0.000134054
0.000140392
0.000159842
-0.000131826
-9.38358e-06
0.000103878
-9.96439e-06
6.21379e-05
-3.54106e-05
5.41176e-05
-9.71948e-06
7.26308e-05
-1.77331e-05
7.69521e-05
-1.96006e-05
9.09055e-05
-2.46774e-06
6.70627e-05
-4.92805e-06
0.000101015
-6.90396e-06
0.00011046
-1.06927e-05
0.000100088
-2.15693e-05
8.18676e-05
-1.3248e-05
9.4328e-05
-2.47107e-05
9.17831e-05
-1.5751e-05
0.000132263
-5.48452e-05
0.000138964
-3.3381e-05
0.000126591
-8.23271e-05
0.000142293
-5.42864e-05
0.000150137
-0.000103553
0.000151019
-6.53878e-05
0.000144441
-0.00010488
0.000130164
-6.25059e-05
9.80171e-05
0.000201616
-0.00010428
-9.45625e-06
0.000113334
2.88451e-06
4.97971e-05
1.08286e-05
4.61735e-05
-1.16247e-05
9.50841e-05
-4.21985e-05
0.000107526
-7.79363e-06
5.65006e-05
-6.8985e-06
6.61676e-05
-5.84396e-06
9.99604e-05
-1.35505e-06
0.000105972
-2.36704e-06
0.0001011
-2.8898e-05
0.000108399
-5.94033e-06
7.13703e-05
-4.0218e-05
0.000126061
-2.96051e-05
0.00012165
-3.29304e-05
0.00014229
-6.15642e-05
0.000155224
-8.09499e-05
0.000161679
-9.74895e-05
0.000166677
-0.000125701
0.000179231
-0.000153481
0.000172221
-0.000197084
0.000173767
-0.000277978
0.000178912
0.000265997
-0.000342359
-2.8154e-06
0.000116149
-7.83012e-06
5.48118e-05
-1.345e-05
5.17933e-05
-9.30779e-06
9.09419e-05
-7.18731e-06
0.000105405
3.27181e-07
4.89862e-05
-1.59469e-05
8.24418e-05
-7.71461e-06
9.17281e-05
-5.55432e-06
0.000103811
-1.54457e-05
0.000110992
-1.15855e-05
0.000104538
-2.14134e-05
8.11982e-05
-1.87539e-05
0.000123401
-3.26146e-05
0.000135511
-2.45965e-05
0.000134271
-3.47793e-05
0.000165407
-4.55261e-05
0.000172426
-8.29761e-05
0.000204127
-0.00010485
0.000201104
-0.00013166
0.000199031
-0.000134239
0.000176346
-0.000210104
0.000254777
0.000395797
-0.000339904
-5.41744e-07
0.000116691
-2.73821e-06
5.70083e-05
-6.54425e-06
5.55994e-05
-7.71496e-06
9.21127e-05
-5.37041e-06
0.000103061
-7.50396e-06
5.11197e-05
-3.57875e-06
7.85166e-05
-5.27152e-06
9.34209e-05
-6.90253e-06
0.000105442
-6.21825e-06
0.000110307
-1.78306e-05
0.000116151
-1.63513e-05
7.97189e-05
-2.93986e-05
0.000136448
-6.11838e-06
0.000112231
-2.06719e-05
0.000148825
-2.97097e-05
0.000174445
-5.67892e-05
0.000199505
-7.99647e-05
0.000227302
-0.000110946
0.000232085
-0.000161189
0.000249274
-0.000255325
0.000270483
-0.000210437
0.000209889
0.000491661
-0.0003063
1.53222e-06
0.000115159
-1.98781e-06
6.05284e-05
-7.51006e-06
6.11217e-05
-6.52769e-06
9.11303e-05
-1.3485e-06
9.78818e-05
-2.85653e-06
5.26278e-05
-5.26572e-06
8.09258e-05
-8.8073e-07
8.9036e-05
-7.02569e-07
0.000105264
-1.40736e-07
0.000109746
-3.50074e-06
0.000119511
-4.4688e-06
8.0687e-05
-5.32534e-06
0.000137305
-4.11354e-05
0.000148041
-1.05658e-05
0.000118255
-1.56734e-05
0.000179552
-2.90068e-05
0.000212839
-3.179e-05
0.000230086
-5.65553e-05
0.00025685
-0.00011928
0.000311998
-6.70983e-05
0.000218301
-0.000152362
0.000295153
0.000502011
-0.000162713
4.89679e-07
0.000114669
-5.26183e-07
6.15442e-05
-1.11485e-06
6.17104e-05
3.6844e-06
8.63311e-05
9.33568e-06
9.22305e-05
-1.17575e-05
7.37211e-05
-4.49431e-06
7.36626e-05
9.08525e-08
8.44508e-05
1.95583e-06
0.000103399
1.94817e-06
0.000109753
4.12109e-06
0.000117338
1.64169e-06
8.31663e-05
4.76873e-06
0.000134178
9.27419e-06
0.000143535
-1.71201e-05
0.000144649
-8.38958e-06
0.000170822
-9.98673e-06
0.000214436
-1.057e-05
0.000230669
-1.50225e-05
0.000261303
2.47179e-05
0.000272258
5.67515e-05
0.000186268
-5.98064e-05
0.000411711
0.000484955
-4.27505e-05
3.31153e-06
0.000111358
-9.18832e-07
6.57746e-05
-3.47812e-06
6.42696e-05
-4.47088e-07
8.33001e-05
4.06825e-06
8.77152e-05
-2.15288e-06
7.99422e-05
-6.47275e-06
7.79825e-05
1.54665e-05
6.25116e-05
1.52806e-05
0.000103585
1.15967e-05
0.000113437
2.55134e-05
0.000103421
-3.43805e-06
0.000112118
5.0083e-06
0.000125731
5.90534e-06
0.000142638
1.01547e-07
0.000150453
3.59782e-06
0.000167326
1.01497e-05
0.000207884
1.15247e-05
0.000229294
6.149e-06
0.000266679
9.41139e-05
0.000184293
7.14258e-05
0.000208956
7.97611e-05
0.000403376
0.000435756
0.00012896
-3.30039e-07
0.000111688
3.83249e-06
6.16121e-05
-1.48498e-06
6.95871e-05
2.65658e-06
7.91585e-05
3.08154e-06
8.72902e-05
-2.85192e-06
8.58757e-05
1.75821e-05
5.75485e-05
1.54994e-05
6.45943e-05
1.51006e-05
0.000103984
1.27708e-05
0.000115767
1.27976e-05
0.000103394
1.80785e-05
0.000106837
1.89118e-05
0.000124898
1.44961e-05
0.000147054
2.25325e-05
0.000142417
3.43854e-05
0.000155473
4.85522e-05
0.000193717
5.48219e-05
0.000223024
6.80302e-05
0.00025347
7.30815e-05
0.000179242
8.37008e-05
0.000198337
0.000129531
0.000357546
0.00039574
0.000169546
2.49975e-05
8.66904e-05
4.36616e-06
8.22434e-05
-7.86876e-06
8.18221e-05
-1.07783e-05
8.2068e-05
9.68422e-06
6.68278e-05
3.33299e-05
6.22301e-05
8.03705e-06
8.28414e-05
9.3927e-06
6.32387e-05
8.10722e-06
0.00010527
2.53063e-06
0.000121343
2.56006e-05
8.03241e-05
1.14898e-05
0.000120948
3.87993e-05
9.75882e-05
3.60648e-05
0.000149788
1.90021e-05
0.000159479
6.57256e-05
0.000108749
6.75227e-05
0.00019192
4.93988e-05
0.000241148
0.000156548
0.000146321
0.000174882
0.000160908
8.73269e-05
0.000285892
0.000112116
0.000332757
0.000213149
0.000294707
-5.37904e-06
9.20694e-05
-1.16161e-06
7.8026e-05
-8.0294e-06
8.86899e-05
2.18573e-05
5.21814e-05
2.31265e-05
6.55586e-05
6.25241e-06
7.91042e-05
3.20381e-05
5.70557e-05
7.99536e-06
8.72815e-05
1.45755e-05
9.86894e-05
1.55272e-05
0.000120392
1.48957e-05
8.09556e-05
6.17437e-05
7.40994e-05
2.08359e-05
0.000138496
1.82568e-05
0.000152367
6.35273e-05
0.000114209
5.23897e-05
0.000119887
0.000120838
0.000123472
0.00014491
0.000217075
0.000167202
0.000124029
9.04337e-05
0.000237676
0.000107415
0.000268911
0.000275841
0.000164331
0.000290683
0.000198308
-3.12281e-05
0.000123298
-2.99792e-06
4.97958e-05
4.15432e-06
8.15376e-05
8.81453e-06
4.75212e-05
-5.58738e-06
7.99606e-05
1.85838e-05
5.4933e-05
2.11077e-05
5.45318e-05
2.0844e-05
8.75452e-05
1.84295e-05
0.000101104
2.99568e-05
0.000108864
3.57451e-05
7.51673e-05
3.10021e-05
7.88424e-05
3.21528e-05
0.000137345
9.20045e-05
9.25154e-05
4.61715e-05
0.000160042
5.97153e-05
0.000106343
6.68012e-05
0.000116386
0.000167732
0.000116144
8.65353e-05
0.000205226
0.000102279
0.000221932
0.000223367
0.000147824
0.000261576
0.000126122
0.000238644
0.000313614
9.1275e-06
0.00011417
6.75257e-06
5.21708e-05
1.20326e-05
7.62576e-05
1.13367e-05
4.82172e-05
1.63567e-05
7.49406e-05
1.83676e-05
5.2922e-05
1.93602e-05
5.35393e-05
1.90974e-05
8.7808e-05
5.47635e-05
6.54379e-05
6.23756e-05
0.000101252
3.40722e-05
0.000103471
3.39474e-05
7.89671e-05
9.57065e-05
7.5586e-05
5.06666e-05
0.000137555
0.000115014
9.56947e-05
0.000137087
8.4269e-05
0.000135882
0.000117592
0.000153074
9.89512e-05
0.000176748
0.000181553
0.000219875
0.000178805
0.000194978
0.000172721
0.00014174
0.000179359
0.000207096
0.000173289
5.77568e-06
0.000108394
5.91825e-06
5.20282e-05
6.04261e-06
7.61333e-05
3.6467e-06
5.06131e-05
2.35174e-05
5.50699e-05
2.07903e-05
5.56492e-05
1.63025e-05
5.80271e-05
4.25408e-05
6.15697e-05
4.62175e-05
6.17613e-05
3.82e-05
0.00010927
8.57182e-05
5.59524e-05
7.57464e-05
8.89389e-05
4.53689e-05
0.000105963
0.00012086
6.20638e-05
0.00011287
0.000103685
0.000103552
9.35868e-05
0.000157451
6.36923e-05
8.66237e-05
0.000169779
0.00017231
9.58661e-05
0.000190699
0.000160416
0.000184783
0.000178637
0.000148753
0.000215389
0.000145697
0.000210152
1.23628e-06
0.000107158
1.96869e-06
5.12958e-05
2.42741e-05
5.38279e-05
2.44584e-05
5.04288e-05
2.39233e-05
5.5605e-05
2.73211e-05
5.22513e-05
3.23464e-05
5.30019e-05
3.86517e-05
5.52644e-05
4.72164e-05
5.31966e-05
5.80981e-05
9.8388e-05
6.06353e-05
5.34152e-05
7.3779e-05
7.57952e-05
8.61462e-05
9.35961e-05
9.69936e-05
5.12163e-05
0.000112186
8.84928e-05
0.000154472
5.13005e-05
0.000109147
0.000109018
0.000141547
0.000137379
0.00014606
9.13526e-05
0.000202658
0.000103817
0.000220786
0.000160509
0.000241326
0.000194849
0.000224169
0.000162854
6.57944e-06
0.000100579
9.10577e-06
4.87695e-05
1.09123e-05
5.20214e-05
1.26709e-05
4.86702e-05
2.06073e-05
4.76686e-05
2.41502e-05
4.87084e-05
2.90851e-05
4.80669e-05
3.61816e-05
4.8168e-05
4.33011e-05
4.60771e-05
5.27035e-05
8.89856e-05
2.82125e-05
7.79062e-05
5.25513e-05
5.14564e-05
0.000101452
4.46956e-05
9.20929e-05
6.05751e-05
0.000109893
7.06926e-05
9.5332e-05
6.58614e-05
0.000124548
7.98011e-05
0.000211677
5.02502e-05
0.000189817
0.000113213
0.000202402
9.12323e-05
0.000255836
0.000107076
0.000268488
0.000182197
0.000197149
0.000295508
1.03165e-05
9.02622e-05
1.31935e-05
4.58926e-05
1.80442e-05
4.71707e-05
2.076e-05
4.59545e-05
2.39825e-05
4.44461e-05
2.74486e-05
4.52423e-05
3.19314e-05
4.35842e-05
3.73065e-05
4.27929e-05
4.21908e-05
4.11927e-05
5.48507e-05
7.63257e-05
6.20855e-05
7.06713e-05
7.02076e-05
4.33344e-05
7.5994e-05
3.89092e-05
9.6725e-05
3.98441e-05
0.000125174
4.22435e-05
0.000164859
2.61763e-05
0.000205558
3.91023e-05
0.000210192
4.56162e-05
0.000217818
0.000105587
0.000240528
6.85219e-05
0.000254595
9.30084e-05
0.000262549
0.000174243
0.000121467
0.000338231
1.10338e-05
7.92284e-05
1.30751e-05
4.38513e-05
1.67261e-05
4.35197e-05
1.95757e-05
4.31049e-05
2.1326e-05
4.26958e-05
2.45571e-05
4.20112e-05
2.79422e-05
4.01992e-05
3.17493e-05
3.89858e-05
3.61256e-05
3.68165e-05
4.952e-05
6.29313e-05
5.85142e-05
6.16771e-05
6.76617e-05
3.41868e-05
7.6267e-05
3.03039e-05
8.54322e-05
3.06789e-05
9.42261e-05
3.34496e-05
7.87895e-05
4.16129e-05
0.000130432
-1.25399e-05
0.000182305
-6.25764e-06
0.000281814
6.07832e-06
0.000303855
4.64804e-05
0.000285273
0.000111591
0.000300081
0.000159435
0.000221078
0.000200469
2.26535e-05
5.65748e-05
1.97681e-05
4.67367e-05
1.87415e-05
4.45463e-05
1.92794e-05
4.25669e-05
2.10153e-05
4.09599e-05
2.32007e-05
3.98258e-05
2.50087e-05
3.83912e-05
2.65627e-05
3.74318e-05
2.72912e-05
3.60879e-05
5.09453e-05
3.92771e-05
5.75478e-05
5.50747e-05
6.423e-05
2.75045e-05
7.17423e-05
2.27914e-05
8.64489e-05
1.59723e-05
0.000111113
8.78582e-06
0.000150636
2.08958e-06
0.000193053
-5.49575e-05
0.000252514
-6.57178e-05
0.000277003
-1.84114e-05
0.000282138
4.13456e-05
0.000337178
5.6551e-05
0.000361225
0.000135388
0.000218657
0.000363646
6.92373e-06
4.96511e-05
1.01609e-05
4.34995e-05
1.28167e-05
4.18906e-05
1.51608e-05
4.02228e-05
1.74299e-05
3.86908e-05
1.97548e-05
3.75009e-05
2.23772e-05
3.57688e-05
2.55258e-05
3.42832e-05
2.92605e-05
3.23532e-05
3.73649e-05
3.11726e-05
5.00447e-05
4.23949e-05
5.70743e-05
2.04749e-05
6.13241e-05
1.85416e-05
7.06146e-05
6.68178e-06
7.69661e-05
2.4343e-06
0.000101555
-2.24993e-05
0.000107026
-6.04286e-05
0.000166445
-0.000125137
0.000231922
-8.38881e-05
0.000348783
-7.55158e-05
0.000400278
5.05556e-06
0.000408552
0.000127115
0.000245227
0.000381982
5.49851e-06
4.41526e-05
8.3486e-06
4.06495e-05
1.08493e-05
3.93899e-05
1.29262e-05
3.81459e-05
1.5035e-05
3.65821e-05
1.69858e-05
3.55501e-05
1.93593e-05
3.33954e-05
2.13735e-05
3.22689e-05
2.42346e-05
2.94921e-05
2.79923e-05
2.74149e-05
4.27711e-05
2.76161e-05
3.99928e-05
2.32531e-05
4.35556e-05
1.49786e-05
3.2623e-05
1.76144e-05
4.35616e-05
-8.50441e-06
4.81701e-05
-2.71078e-05
0.000110708
-0.000122966
0.000171463
-0.000185892
0.000202852
-0.000115277
0.000203799
-7.64633e-05
0.000214691
-5.83596e-06
0.000229269
0.000112536
0.000137724
0.000336772
3.38869e-06
4.07639e-05
5.6984e-06
3.83398e-05
7.7379e-06
3.73504e-05
9.44302e-06
3.64408e-05