/*--------------------------------*- C++ -*----------------------------------*\
| =========                 |                                                 |
| \\      /  F ield         | foam-extend: Open Source CFD                    |
|  \\    /   O peration     | Version:     4.1                                |
|   \\  /    A nd           | Web:         http://www.foam-extend.org         |
|    \\/     M anipulation  |                                                 |
\*---------------------------------------------------------------------------*/
FoamFile
{
    version     2.0;
    format      ascii;
    class       volScalarField;
    location    "0.6";
    object      alpha1;
}
// * * * * * * * * * * * * * * * * * * * * * * * * * * * * * * * * * * * * * //

dimensions      [0 0 0 0 0 0 0];

internalField   nonuniform List<scalar> 
2268
(
0.999977
0.996597
0.999709
0.999979
0.999985
0.999994
0.999994
0.999984
0.999979
0.999841
0.999832
0.999836
0.999857
0.999898
0.99994
0.999967
0.999984
0.999995
0.999998
0.999912
0.998904
0.986684
0.568149
0.999159
0.948547
0.994997
0.999617
0.999561
0.999846
0.999885
0.999762
0.999731
0.999049
0.99932
0.999453
0.999579
0.999662
0.999798
0.999853
0.999926
0.999966
0.999989
0.999982
0.999983
0.99952
0.987585
0.983761
0.6438
0.959121
0.99676
0.993887
0.998078
0.998723
0.998208
0.998523
0.997649
0.998134
0.99857
0.998394
0.998656
0.999285
0.999667
0.999834
0.999924
0.999971
0.999976
0.999926
0.998774
0.991532
0.817432
0.227107
0.791422
0.979784
0.949169
0.98477
0.9887
0.991727
0.991869
0.993733
0.995253
0.993161
0.992115
0.993704
0.995435
0.997528
0.998354
0.99908
0.999573
0.999877
0.999842
0.998972
0.991901
0.807633
0.249106
0.671595
0.958936
0.700335
0.935959
0.910337
0.959159
0.957032
0.978849
0.987081
0.981693
0.981443
0.980082
0.983568
0.990423
0.993886
0.997368
0.998729
0.999597
0.999665
0.999081
0.992068
0.599778
0.298383
0.471262
0.817288
0.225468
0.803809
0.522595
0.800932
0.647272
0.803059
0.933133
0.968371
0.966127
0.958132
0.959096
0.970396
0.982501
0.992888
0.996182
0.998523
0.999096
0.998781
0.991851
0.510652
0.252631
0.412629
0.777901
0.222991
0.755215
0.21909
0.745712
0.219729
0.516335
0.83996
0.952887
0.943243
0.936803
0.931019
0.953697
0.968035
0.984732
0.990623
0.994329
0.99193
0.996462
0.993031
0.504729
0.234133
0.473765
0.72003
0.234905
0.402814
0.151799
0.469378
0.128583
0.274428
0.643159
0.895756
0.914395
0.902241
0.897634
0.947245
0.961923
0.977596
0.981356
0.975021
0.933874
0.968363
0.99137
0.393816
0.509305
0.541868
0.548042
0.548216
0.542058
0.533918
0.531139
0.529155
0.550149
0.5913
0.626801
0.648847
0.652296
0.646234
0.603455
0.569814
0.415293
0.264547
0.355625
0.393354
0.374563
0.421534
0.541249
0.542042
0.515921
0.549471
0.578212
0.594223
0.634139
0.689545
0.726592
0.724776
0.719923
0.679318
0.570442
0.396658
0.228881
0.300297
0.238255
0.205994
0.400796
0.51797
0.482022
0.401914
0.443788
0.485026
0.480082
0.381628
0.683664
0.710625
0.692113
0.720371
0.731978
0.710929
0.642574
0.257299
0.243935
0.131597
0.192553
0.418314
0.496546
0.448982
0.275318
0.252333
0.433485
0.304141
0.249387
0.598786
0.674199
0.59741
0.686561
0.741865
0.742493
0.701291
0.289397
0.240183
0.100094
0.0795255
0.22141
0.449921
0.318822
0.138478
0.093016
0.236165
0.175186
0.222458
0.295095
0.503195
0.48096
0.592701
0.719307
0.743467
0.692785
0.313143
0.239893
0.105824
0.0352608
0.041252
0.265447
0.109967
0.0715828
0.0522139
0.0705708
0.114535
0.210252
0.235798
0.268251
0.368841
0.536106
0.676758
0.736724
0.690733
0.353358
0.239158
0.106428
0.0227335
0.031842
0.0670145
0.0531539
0.0332065
0.0479119
0.104657
0.174025
0.280942
0.265546
0.272302
0.355858
0.494988
0.6337
0.715355
0.721807
0.432316
0.234172
0.0759874
0.0298412
0.0681672
0.0630037
0.0626241
0.0815314
0.121946
0.138056
0.0999627
0.151496
0.252131
0.278779
0.340989
0.471321
0.606126
0.695014
0.727271
0.515795
0.523266
0.220793
0.461467
0.401875
0.0984239
0.196189
0.0709304
0.171332
0.07667
0.235112
0.602409
0.866839
0.815972
0.771328
0.812633
0.857259
0.878939
0.909257
0.910418
0.881201
0.798211
0.821915
0.94776
0.54776
0.187088
0.265034
0.121214
0.0507558
0.064334
0.0360569
0.0479828
0.0372103
0.0887894
0.418414
0.767676
0.716953
0.559716
0.577659
0.599171
0.668937
0.710113
0.696769
0.667937
0.637466
0.638262
0.755086
0.381881
0.0871397
0.0736363
0.0481874
0.0344939
0.0337167
0.0242622
0.0236433
0.021575
0.0329086
0.179569
0.502462
0.523506
0.375538
0.269397
0.244995
0.291528
0.489698
0.510479
0.524469
0.549373
0.548497
0.601183
0.379333
0.065846
0.02804
0.0260457
0.0235608
0.01879
0.0146871
0.0138583
0.0147456
0.0244009
0.058373
0.25569
0.293679
0.151511
0.0992013
0.0990998
0.129955
0.208617
0.267684
0.399265
0.482133
0.485095
0.49379
0.426447
0.0825762
0.0179518
0.0193222
0.0184064
0.0163166
0.0131188
0.0125565
0.013642
0.0151161
0.0219182
0.0614742
0.121458
0.0632795
0.0566196
0.0712211
0.128781
0.145108
0.18452
0.26105
0.3317
0.32922
0.306504
0.472228
0.133355
0.0141204
0.0125813
0.0143712
0.0147467
0.0134388
0.0108385
0.00906468
0.0054829
0.0108192
0.0165555
0.0372186
0.0446162
0.0588045
0.0580596
0.127641
0.0846859
0.109857
0.194246
0.241688
0.212584
0.178442
0.123721
0.00858193
0.00706773
0.00849268
0.0105191
0.0120946
0.0117375
0.00852675
0.00660618
0.00168338
0.00481966
0.0104761
0.0147799
0.022283
0.0231546
0.0186551
0.0291276
0.0178037
0.0191747
0.0954777
0.0932301
0.0555821
0.0455069
0.00365109
0.00310693
0.00455927
0.00599172
0.00718977
0.00944623
0.00988415
0.00706229
0.00487825
0.000713661
0.00144496
0.00436479
0.00821808
0.0106286
0.00957019
0.00903328
0.00903111
0.00569462
0.00445745
0.017162
0.0286753
0.0145399
0.0189239
0.000810381
0.000883485
0.00157718
0.00417727
0.00517988
0.0063039
0.00678742
0.00520084
0.00202923
0.000371468
0.000926038
0.00243344
0.00382827
0.00686346
0.00774616
0.00715176
0.00508756
0.00253495
0.00160153
0.00270357
0.00517781
0.00625423
0.0149418
0.000412098
0.000384785
0.000531883
0.00190045
0.0031646
0.00374372
0.00377094
0.00269425
0.000859902
0.000183731
0.000398307
0.00157445
0.00185906
0.0027471
0.00443925
0.00431431
0.0025955
0.00113506
0.000782602
0.00127991
0.00184958
0.00767671
0.0184042
0.000207227
0.000134051
0.000153763
0.000560331
0.00104233
0.00143869
0.00183624
0.00114097
0.000292641
5.42658e-05
0.000156904
0.00111103
0.00120102
0.00193483
0.00374864
0.0022724
0.000658763
0.00058606
0.000420384
0.00050369
0.00142375
0.00383657
0.00378903
0.000108391
4.86229e-05
3.66302e-05
9.22986e-05
0.00014668
0.000287935
0.000551609
0.000289329
7.34088e-05
2.06997e-05
6.5393e-05
0.00083785
0.000753231
0.00127979
0.00200227
0.0007342
0.000334207
0.000328721
0.00018476
0.000164116
0.000349531
0.00105642
0.00103202
5.09685e-05
1.67432e-05
1.35911e-05
5.99663e-06
3.93262e-06
3.11742e-05
3.28857e-05
9.85304e-06
1.14455e-06
5.88914e-06
2.78471e-05
0.000648162
0.000353971
0.000758603
0.000602773
0.000329556
0.000210234
0.000184072
5.51009e-05
3.164e-05
5.60907e-05
0.000196019
0.000245362
2.02622e-05
3.9505e-06
4.73576e-06
3.33803e-07
3.3854e-08
3.95324e-08
1.06348e-07
3.28018e-08
1.36744e-07
6.67292e-06
4.01712e-05
0.00093537
0.000136309
0.00022027
0.00021744
0.000142639
8.87879e-05
7.10438e-05
2.1832e-05
6.04348e-06
3.33076e-06
1.11987e-05
1.36574e-05
4.49602e-06
7.35564e-07
8.81642e-07
6.34739e-08
1.859e-09
7.82753e-09
6.18975e-09
7.30494e-09
2.71187e-07
7.06083e-06
2.05801e-05
0.00019918
3.99563e-05
5.67144e-05
6.34625e-05
3.26981e-05
2.06993e-05
1.87273e-05
1.73814e-05
5.77878e-06
3.43475e-07
2.88388e-07
5.16248e-07
1.36369e-06
1.77874e-07
1.79481e-07
1.29761e-08
3.31529e-10
1.43527e-09
7.6458e-10
6.09938e-09
5.96172e-07
1.10157e-05
1.55096e-05
0.000131939
1.484e-05
1.54517e-05
4.71476e-06
1.61644e-06
1.56496e-06
9.26424e-07
8.22025e-07
1.99524e-07
7.71348e-08
6.15985e-08
1.03542e-07
1.82282e-07
3.25198e-08
3.60179e-08
1.68254e-09
5.22461e-11
1.30124e-10
1.08244e-10
8.27411e-09
1.35021e-07
1.25657e-06
5.23711e-06
5.45491e-06
9.06449e-07
9.36656e-07
6.41634e-07
7.78465e-08
9.51717e-08
2.19849e-08
2.15428e-08
1.03989e-08
8.99053e-09
7.47614e-09
1.88122e-08
1.98318e-08
7.38468e-09
7.68758e-09
5.72805e-10
6.14481e-12
1.74932e-11
4.40397e-11
5.93297e-09
1.45595e-07
1.07752e-06
1.75538e-06
1.00981e-06
3.79606e-08
3.8851e-08
7.38783e-08
5.16411e-09
2.9471e-09
1.67295e-09
1.17621e-09
9.07269e-10
1.0027e-09
1.36726e-09
3.09347e-09
8.95248e-11
1.88938e-10
1.59221e-09
1.75727e-10
1.53799e-12
2.64855e-12
4.49552e-12
2.42125e-11
2.03336e-10
5.36975e-10
7.77526e-10
1.1936e-09
7.26101e-10
1.38549e-09
2.84935e-09
3.93566e-09
8.51114e-10
2.6208e-10
9.33444e-11
6.8671e-11
6.93329e-11
2.08869e-10
3.68422e-10
7.38581e-12
1.87858e-11
3.65351e-10
4.95527e-11
1.70919e-13
1.99563e-13
3.21354e-13
1.79967e-12
4.90363e-12
5.20156e-12
9.16617e-12
2.7735e-11
3.70045e-11
8.22314e-11
1.45037e-10
1.62138e-10
1.00648e-10
3.26908e-11
1.11831e-11
7.0135e-12
7.2054e-12
1.99177e-11
3.29895e-11
6.91225e-13
6.4676e-13
8.46934e-13
4.2466e-14
2.13718e-14
1.249e-14
6.57252e-14
3.48388e-13
1.15219e-12
5.55833e-13
3.8175e-13
1.14569e-12
1.6418e-12
3.04334e-12
4.91512e-12
2.93493e-12
1.77447e-12
8.89733e-13
4.96381e-13
2.67453e-13
4.28768e-13
1.12399e-12
1.8725e-12
9.6978e-14
0
2.83662e-14
1.01585e-14
1.2601e-14
8.88178e-15
1.12688e-14
4.4631e-14
1.00531e-13
8.36553e-14
1.30451e-14
1.93734e-14
4.10783e-14
6.39488e-14
1.58318e-13
2.58127e-13
3.1658e-13
8.17124e-14
6.78901e-14
2.19269e-14
5.82312e-14
1.66922e-13
2.76168e-13
1.52656e-14
0
1.02696e-14
8.54872e-15
1.14353e-14
1.18239e-14
9.60343e-15
1.04361e-14
1.08802e-14
1.15463e-14
1.05471e-14
1.18794e-14
1.16018e-14
1.08802e-14
1.2379e-14
2.37033e-14
2.06501e-14
9.49241e-15
4.88498e-15
2.88658e-15
6.60583e-15
1.53766e-14
4.27436e-14
6.66134e-15
0
1.18794e-14
1.08247e-14
1.36557e-14
1.41553e-14
1.0103e-14
9.88098e-15
1.12133e-14
1.29341e-14
1.13798e-14
1.2379e-14
1.0103e-14
6.88338e-15
9.38138e-15
1.04361e-14
8.27116e-15
7.10543e-15
4.38538e-15
3.05311e-15
2.33147e-15
5.93969e-15
1.7264e-14
8.32667e-15
0
9.76996e-15
1.07137e-14
1.40443e-14
1.4988e-14
9.21485e-15
7.77156e-15
8.88178e-15
1.02696e-14
1.15463e-14
1.24345e-14
1.2379e-14
9.10383e-15
8.77076e-15
1.09912e-14
7.88258e-15
6.27276e-15
6.27276e-15
3.27516e-15
4.55191e-15
7.16094e-15
1.4877e-14
6.93889e-15
0
1.15463e-14
1.11022e-14
1.2601e-14
1.27121e-14
1.09912e-14
7.77156e-15
1.02696e-14
1.01585e-14
9.4369e-15
1.25455e-14
1.19349e-14
1.10467e-14
1.03806e-14
1.03251e-14
7.54952e-15
6.55032e-15
4.71845e-15
5.55112e-15
5.93969e-15
4.55191e-15
9.71445e-15
9.99201e-15
0
1.23235e-14
1.16018e-14
1.04916e-14
1.43219e-14
1.13243e-14
9.82547e-15
9.60343e-15
1.26565e-14
1.11022e-14
1.39888e-14
1.12133e-14
9.21485e-15
8.82627e-15
1.19904e-14
1.03806e-14
4.996e-15
5.10703e-15
4.66294e-15
3.77476e-15
5.60663e-15
1.51545e-14
8.04912e-15
0
1.28786e-14
1.08802e-14
1.17129e-14
1.29341e-14
1.12688e-14
1.16018e-14
1.07137e-14
1.31561e-14
1.11022e-14
1.26565e-14
1.39333e-14
1.15463e-14
1.14908e-14
1.18794e-14
1.14908e-14
8.16014e-15
6.4948e-15
3.94129e-15
2.83107e-15
2.22045e-15
1.32117e-14
7.49401e-15
0
1.27676e-14
1.02141e-14
9.88098e-15
9.49241e-15
1.14353e-14
1.02141e-14
7.93809e-15
1.16018e-14
1.18239e-14
1.19904e-14
1.38223e-14
1.24345e-14
1.22125e-14
1.14353e-14
1.15463e-14
8.9373e-15
6.38378e-15
2.88658e-15
1.94289e-15
5.55112e-16
1.04361e-14
4.10783e-15
0
1.2379e-14
8.9373e-15
8.71525e-15
9.4369e-15
1.19904e-14
1.31561e-14
8.99281e-15
1.35447e-14
1.16573e-14
1.20459e-14
1.39333e-14
1.28231e-14
1.30451e-14
1.2379e-14
1.26565e-14
1.08802e-14
6.10623e-15
2.94209e-15
4.44089e-15
2.05391e-15
1.27676e-14
2.498e-15
0
9.4369e-15
1.09357e-14
9.32587e-15
7.54952e-15
1.25455e-14
1.36557e-14
9.15934e-15
1.44329e-14
1.17684e-14
1.08802e-14
1.27676e-14
9.9365e-15
1.38778e-14
1.05471e-14
1.45994e-14
9.10383e-15
6.10623e-15
2.83107e-15
4.996e-15
1.4988e-15
1.48215e-14
2.33147e-15
0
8.88178e-15
1.2601e-14
9.76996e-15
1.18239e-14
1.14353e-14
1.19904e-14
8.99281e-15
1.49325e-14
1.2379e-14
1.17684e-14
1.24345e-14
1.07137e-14
1.11577e-14
1.31561e-14
1.39333e-14
1.03806e-14
7.16094e-15
3.94129e-15
2.88658e-15
3.16414e-15
1.69864e-14
1.27676e-15
0
7.04992e-15
8.21565e-15
7.04992e-15
7.04992e-15
1.12133e-14
1.02141e-14
8.60423e-15
1.2379e-14
1.08802e-14
9.9365e-15
1.08247e-14
6.32827e-15
8.16014e-15
1.249e-14
9.76996e-15
1.15463e-14
1.11577e-14
7.60503e-15
2.27596e-15
4.21885e-15
1.78746e-14
1.55431e-15
0
7.93809e-15
6.27276e-15
5.55112e-15
1.19349e-14
8.54872e-15
8.10463e-15
7.10543e-15
8.49321e-15
1.01585e-14
1.04361e-14
7.10543e-15
3.83027e-15
4.05231e-15
1.18794e-14
8.82627e-15
1.14353e-14
8.54872e-15
6.99441e-15
3.38618e-15
2.33147e-15
1.65978e-14
2.16493e-15
0
7.49401e-15
7.21645e-15
8.21565e-15
1.28786e-14
1.13798e-14
7.10543e-15
8.43769e-15
6.4948e-15
8.54872e-15
1.13243e-14
6.16174e-15
2.72005e-15
4.32987e-15
7.04992e-15
3.9968e-15
1.19349e-14
8.60423e-15
8.71525e-15
3.16414e-15
9.4369e-16
1.09912e-14
1.66533e-15
0
9.9365e-15
4.82947e-15
8.65974e-15
1.06581e-14
4.38538e-15
3.27516e-15
6.43929e-15
6.10623e-15
7.99361e-15
9.76996e-15
7.21645e-15
6.60583e-15
6.88338e-15
7.04992e-15
4.77396e-15
7.88258e-15
5.82867e-15
8.54872e-15
4.44089e-15
9.4369e-16
1.63203e-14
3.33067e-16
0
1.35447e-14
9.65894e-15
5.9952e-15
9.32587e-15
5.21805e-15
3.27516e-15
2.77556e-15
3.9968e-15
6.10623e-15
7.04992e-15
3.88578e-15
9.04832e-15
2.10942e-15
5.82867e-15
4.66294e-15
4.4964e-15
5.05151e-15
5.44009e-15
4.71845e-15
2.22045e-15
1.61537e-14
0
1.11022e-16
1.76525e-14
9.60343e-15
7.38298e-15
1.14353e-14
5.82867e-15
3.88578e-15
4.55191e-15
5.4956e-15
6.82787e-15
6.16174e-15
3.71925e-15
1.09912e-14
7.54952e-15
7.71605e-15
5.77316e-15
7.77156e-15
6.66134e-15
2.94209e-15
4.44089e-15
8.88178e-16
1.58762e-14
0
3.55271e-15
2.17049e-14
1.23235e-14
9.9365e-15
1.59872e-14
4.44089e-15
6.32827e-15
1.02696e-14
7.27196e-15
9.38138e-15
5.82867e-15
7.38298e-15
1.38778e-14
9.76996e-15
9.49241e-15
7.66054e-15
1.09912e-14
8.82627e-15
6.05072e-15
6.71685e-15
2.77556e-15
1.37668e-14
1.27676e-15
8.82627e-15
2.4869e-14
1.7375e-14
1.5099e-14
1.87073e-14
9.38138e-15
7.54952e-15
1.25455e-14
5.60663e-15
1.29896e-14
5.88418e-15
6.99441e-15
1.5099e-14
1.15463e-14
1.12688e-14
1.24345e-14
1.42664e-14
1.0103e-14
1.09357e-14
1.08802e-14
7.60503e-15
9.04832e-15
0
9.21485e-15
2.70894e-14
2.08167e-14
1.51545e-14
1.76525e-14
1.10467e-14
1.19904e-14
1.2268e-14
1.03251e-14
1.25455e-14
1.28786e-14
1.02696e-14
1.17129e-14
1.36002e-14
1.249e-14
1.35447e-14
1.71529e-14
1.57097e-14
1.35447e-14
5.66214e-15
1.2379e-14
6.66134e-16
0
1.33782e-14
3.03091e-14
2.37033e-14
1.70419e-14
1.7264e-14
1.11022e-14
1.42664e-14
1.35447e-14
1.38778e-14
1.43774e-14
1.40998e-14
1.50435e-14
1.44329e-14
1.76525e-14
1.39888e-14
1.70419e-14
1.58762e-14
1.80966e-14
1.57652e-14
1.63758e-14
1.62648e-14
0
0.961241
0.969712
0.847762
0.130946
0.85442
0.934591
0.915479
0.848051
0.662377
0.738091
0.788711
0.82417
0.509862
0.517367
0.533229
0.575843
0.300082
0.294278
0.294803
0.300828
0.163212
0.166068
0.171573
0.190244
0.049116
0.0586077
0.0788523
0.114228
0.033585
0.0533434
0.0892813
0.118948
0.0390509
0.0613455
0.0832106
0.108441
0.0226911
0.0245189
0.0462281
0.0721803
0.00327821
0.00446119
0.00930904
0.0147796
0.000309007
0.000314631
0.000526
0.001031
4.91039e-05
4.54551e-05
9.54136e-05
0.00015685
6.584e-06
1.48581e-05
2.42452e-05
3.16245e-05
1.39789e-06
2.18886e-06
2.69272e-06
3.25542e-06
4.09487e-08
8.07647e-08
1.32211e-07
2.32447e-07
1.04086e-08
3.01336e-08
4.72357e-08
7.8758e-08
1.46482e-09
4.0756e-09
7.32145e-09
1.34601e-08
4.84326e-10
9.42484e-10
1.30108e-09
2.20891e-09
2.57522e-11
3.33834e-11
3.97031e-11
9.46925e-11
3.14765e-12
3.95711e-12
1.25118e-11
3.82069e-11
6.03628e-13
1.12249e-12
2.82274e-12
7.26796e-12
7.37188e-14
1.4333e-13
2.52909e-13
5.86975e-13
6.27276e-15
1.16018e-14
2.52576e-14
5.9841e-14
2.88658e-15
3.55271e-15
6.10623e-15
7.10543e-15
2.66454e-15
3.60822e-15
3.38618e-15
2.88658e-15
1.9984e-15
2.22045e-15
5.44009e-15
4.71845e-15
2.05391e-15
3.83027e-15
3.55271e-15
2.55351e-15
6.66134e-16
1.83187e-15
5.32907e-15
4.44089e-16
1.05471e-15
1.88738e-15
1.88738e-15
5.55112e-17
0
6.10623e-16
2.22045e-15
9.4369e-16
0
7.77156e-16
1.66533e-15
6.66134e-16
1.16573e-15
1.44329e-15
6.10623e-16
0
1.27676e-15
2.27596e-15
2.77556e-15
4.44089e-16
4.44089e-16
2.66454e-15
4.4964e-15
0
0
0
3.05311e-15
4.44089e-16
9.99201e-16
0
5.55112e-17
0
6.66134e-16
0
1.4988e-15
2.22045e-15
2.498e-15
0
1.11022e-16
6.32827e-15
2.9976e-15
4.16334e-15
4.60743e-15
5.32907e-15
1.16573e-15
0
5.82867e-15
7.82707e-15
0
0
0
0
0.187132
0.163278
0.164583
0.252949
0.27778
0.241114
0.27072
0.321948
0.359676
0.274498
0.275385
0.314219
0.330762
0.386662
0.521582
0.591883
0.67386
0.721565
0.602939
0.755227
0.818193
0.841867
0.810598
0.782217
0.799546
0.799858
0.782672
0.769133
0.727387
0.719946
0.661856
0.645597
0.677829
0.704151
0.691776
0.706213
0.728597
0.651152
0.846267
0.884126
0.908566
0.921043
0.920849
0.91715
0.912338
0.917628
0.914752
0.903357
0.879671
0.81431
0.737689
0.671797
0.562856
0.414913
0.464611
0.638031
0.631968
0.678733
0.815907
0.863551
0.90037
0.890398
0.846968
0.805538
0.847474
0.837931
0.820667
0.756685
0.696619
0.467247
0.314315
0.236828
0.232401
0.316343
0.564111
0.619673
0.346958
0.53982
0.75907
0.861476
0.805181
0.622664
0.506594
0.604064
0.609174
0.588371
0.446323
0.325433
0.191725
0.162909
0.145902
0.166946
0.259201
0.490669
0.606082
0.25409
0.381946
0.59805
0.696491
0.655011
0.478309
0.298869
0.357761
0.41003
0.453964
0.418961
0.275124
0.151757
0.112631
0.102353
0.110317
0.213179
0.495789
0.604567
0.197277
0.340903
0.502061
0.509382
0.372336
0.217158
0.215571
0.23998
0.255219
0.270976
0.227085
0.132221
0.0813921
0.0613016
0.0756628
0.0991288
0.214861
0.497733
0.604955
0.218042
0.340248
0.332507
0.259583
0.170661
0.159706
0.18563
0.174172
0.142349
0.113143
0.0670534
0.0461917
0.0348761
0.0379055
0.052196
0.0884142
0.25321
0.510719
0.607276
0.184355
0.226164
0.183083
0.0947764
0.0743969
0.150879
0.145309
0.104357
0.0553021
0.0279097
0.0226319
0.0247317
0.0229908
0.0231312
0.0372715
0.0807303
0.2436
0.527307
0.6112
0.0912836
0.0749244
0.0628392
0.0456942
0.021593
0.0315707
0.0469515
0.0416919
0.0394445
0.0141704
0.0116027
0.0175633
0.0191448
0.0259116
0.0420465
0.0945317
0.256492
0.536506
0.614736
0.0209929
0.0121373
0.00872202
0.00905206
0.004435
0.00618039
0.0109282
0.0074935
0.00625308
0.00750865
0.013824
0.0204615
0.0289942
0.0521268
0.0901371
0.191569
0.353221
0.553152
0.617986
0.00143813
0.00113882
0.000882721
0.000991823
0.00129158
0.00189739
0.00196643
0.0048466
0.0087615
0.0125487
0.0193747
0.0260737
0.0420715
0.0785754
0.124164
0.256042
0.455451
0.587962
0.619561
0.000183217
0.000181167
0.000225284
0.000576043
0.00136765
0.00314327
0.00548767
0.00880925
0.0152718
0.0256346
0.0406598
0.0549327
0.0655597
0.0962268
0.126031
0.261955
0.479898
0.606443
0.619066
3.46992e-05
2.64265e-05
7.24138e-05
0.000315147
0.000977425
0.0028867
0.00579586
0.00988671
0.0157845
0.0216447
0.0457556
0.0740568
0.0856901
0.122214
0.146935
0.229688
0.453237
0.606439
0.615688
4.21302e-06
9.63161e-06
3.85138e-05
0.000150296
0.000534376
0.00189543
0.00368701
0.00486878
0.00480784
0.00434958
0.00804137
0.0195833
0.0322798
0.0760257
0.143857
0.255626
0.400294
0.597075
0.605005
5.67096e-07
2.6851e-06
1.7859e-05
8.3776e-05
0.000342301
0.000971071
0.00142613
0.00154468
0.00157282
0.00131676
0.00173199
0.0061858
0.0149205
0.0350165
0.105285
0.268212
0.382901
0.566062
0.582885
1.66658e-07
6.1071e-07
3.98354e-06
2.3309e-05
0.000113667
0.000301494
0.000495129
0.000675087
0.000760112
0.000622759
0.000847315
0.00281096
0.00579183
0.017427
0.0686412
0.248322
0.397818
0.513536
0.54506
2.96464e-08
9.11172e-08
6.25584e-07
3.99974e-06
1.87031e-05
5.10373e-05
0.000140118
0.000206468
0.000278468
0.000221986
0.000214292
0.00045067
0.000784327
0.00231422
0.0256225
0.163636
0.406943
0.48235
0.512678
4.82879e-09
2.09667e-08
9.72595e-08
6.03638e-07
2.01085e-06
7.33787e-06
2.82293e-05
4.71268e-05
5.72622e-05
8.41866e-05
7.36514e-05
9.70165e-05
0.000396483
0.00160999
0.00467874
0.0398417
0.251671
0.424387
0.4897
4.4785e-10
4.34796e-09
1.60805e-08
1.28658e-07
3.15168e-07
1.00516e-06
4.50016e-06
8.70338e-06
1.56279e-05
2.40296e-05
2.74477e-05
3.67581e-05
0.000125299
0.000882959
0.00295927
0.00943439
0.0420671
0.19328
0.443781
2.06157e-10
1.16421e-09
6.60058e-09
3.24913e-08
7.08132e-08
2.55651e-07
8.34366e-07
2.35137e-06
4.97321e-06
9.04266e-06
1.27903e-05
1.84977e-05
7.73261e-05
0.000614084
0.00237231
0.00513013
0.0112652
0.108555
0.430982
3.28094e-11
2.02928e-10
1.1254e-09
4.23081e-09
1.41308e-08
7.02526e-08
1.89691e-07
6.08727e-07
1.44916e-06
1.95647e-06
3.4746e-06
6.69669e-06
5.85745e-05
0.00047388
0.00226934
0.00524458
0.0107907
0.11652
0.421773
2.73515e-12
2.07989e-11
1.28127e-10
6.61525e-10
2.96611e-09
1.48725e-08
2.86403e-08
1.1655e-07
2.97094e-07
2.28196e-07
9.88658e-07
2.58535e-05
0.000177752
0.000703279
0.0023931
0.00516055
0.0143363
0.144022
0.420077
2.84273e-13
1.92002e-12
1.3836e-11
6.84304e-11
3.58758e-10
1.78265e-09
4.87652e-09
2.19856e-08
9.70686e-08
6.77911e-07
8.29348e-06
5.7454e-05
0.000256511
0.00130116
0.00313046
0.00862553
0.0562229
0.187843
0.421688
3.36953e-14
2.18825e-13
1.6333e-12
7.6999e-12
4.4428e-11
1.98041e-10
8.05365e-10
3.04018e-09
3.43454e-08
3.578e-07
3.5611e-06
2.72177e-05
0.000237319
0.00171934
0.0054756
0.0193703
0.0866889
0.254398
0.422935
2.22045e-15
4.00791e-14
2.14495e-13
1.15863e-12
1.02938e-11
6.0178e-11
5.00837e-10
7.49566e-09
6.28592e-08
7.24005e-07
5.8138e-06
4.78434e-05
0.000303943
0.00178297
0.00831988
0.0289406
0.0884232
0.254902
0.421573
1.83187e-15
1.27121e-14
2.38698e-14
2.0095e-13
3.0303e-12
7.47433e-11
1.34039e-09
1.72544e-08
1.8666e-07
1.35172e-06
7.15599e-06
5.21219e-05
0.000409563
0.00219798
0.0106053
0.0360993
0.10296
0.246191
0.414831
3.10862e-15
7.93809e-15
1.03251e-14
3.53606e-14
5.23914e-13
1.36572e-11
2.71686e-10
4.96364e-09
6.35142e-08
9.04159e-07
9.05322e-06
7.43623e-05
0.000491315
0.00239575
0.0118107
0.0404334
0.111073
0.247232
0.405115
4.05231e-15
8.65974e-15
8.54872e-15
1.47105e-14
1.25067e-13
2.59304e-12
4.55295e-11
5.67542e-10
6.72696e-09
4.92859e-07
1.45937e-05
0.000122826
0.000892431
0.00371524
0.0144391
0.0429297
0.11258
0.255629
0.396866
2.66454e-15
7.49401e-15
8.16014e-15
5.55112e-15
1.97065e-14
3.36231e-13
5.99376e-12
1.40753e-10
2.43571e-09
5.57035e-08
2.05089e-06
6.29157e-05
0.000753213
0.00395679
0.0149716
0.0419366
0.111594
0.251628
0.387057
3.71925e-15
7.27196e-15
5.93969e-15
7.60503e-15
4.91829e-14
6.29274e-13
6.18178e-12
6.91984e-11
1.99682e-09
1.3435e-08
2.23851e-07
1.36994e-05
0.00022797
0.00236141
0.0106355
0.0339923
0.111387
0.254885
0.371756
8.32667e-16
4.996e-15
1.94289e-15
1.65423e-14
1.92957e-13
2.56184e-12
4.24388e-11
4.17788e-10
6.83029e-09
2.21941e-08
1.0001e-07
1.88966e-06
1.72678e-05
0.000107683
0.00306006
0.0145006
0.077491
0.243285
0.345549
1.27676e-15
5.88418e-15
3.88578e-15
2.87548e-14
3.89688e-13
5.52008e-12
6.31852e-11
9.58967e-10
1.45362e-08
7.25199e-08
2.86947e-07
2.84326e-06
1.27716e-05
5.79234e-05
0.00019927
0.00193053
0.0238776
0.155466
0.279995
4.44089e-16
7.32747e-15
7.21645e-15
7.05547e-14
5.41622e-13
6.65046e-12
4.89249e-11
7.02601e-10
1.87614e-08
1.98931e-07
8.87913e-07
6.14854e-06
4.17032e-05
0.000267787
0.000260873
0.000236071
0.00265409
0.0482573
0.133916
0
8.38218e-15
1.06026e-14
2.85327e-14
2.08278e-13
3.32129e-12
5.41188e-11
1.05932e-09
2.40471e-08
2.81287e-07
1.78936e-06
7.71098e-06
3.19819e-05
0.000186687
0.000426848
0.000361575
0.000530458
0.0154517
0.0677927
1.60982e-15
8.10463e-15
1.22125e-14
4.41869e-14
6.07514e-13
5.83161e-12
1.20549e-10
1.70225e-09
2.93219e-08
2.33247e-07
1.97551e-06
1.06669e-05
4.42158e-05
0.000296847
0.000571377
0.00038639
0.000487045
0.00730508
0.0402232
0
7.60503e-15
7.99361e-15
2.04836e-14
2.91933e-13
5.12118e-12
4.38688e-11
1.10458e-09
2.47208e-08
7.95904e-08
6.78519e-07
5.73828e-06
3.10959e-05
0.000426314
0.000702276
0.000467801
0.000512365
0.0047047
0.0365117
7.77156e-16
7.04992e-15
6.21725e-15
9.04832e-15
4.41869e-14
5.40734e-13
6.96898e-12
9.58023e-11
5.75191e-10
1.09947e-08
2.80722e-07
1.41919e-06
6.74128e-06
0.00030923
0.000867897
0.000622536
0.000635024
0.00471182
0.0369608
1.33227e-15
5.60663e-15
1.16573e-15
5.05151e-15
3.09752e-14
4.97713e-13
5.70965e-12
5.71542e-11
2.33743e-10
6.33609e-09
1.93257e-07
3.04475e-07
1.1788e-06
2.01303e-05
0.000458108
0.000587491
0.000623865
0.00401997
0.0353272
6.60583e-15
9.10383e-15
2.22045e-16
4.05231e-15
7.10543e-15
4.75731e-14
6.55753e-13
4.44517e-12
3.40752e-11
9.87431e-10
2.81271e-08
2.52522e-08
6.94472e-08
9.9244e-07
0.000119391
0.000450931
0.000579041
0.00318104
0.0318596
1.72085e-14
5.32907e-15
0
0
0
1.44329e-15
1.38778e-15
1.93512e-13
6.17062e-13
7.85877e-12
4.04602e-10
9.90481e-10
6.09008e-09
3.01607e-08
5.26744e-07
6.76035e-05
0.000327643
0.00119168
0.0234128
7.77156e-15
1.31561e-14
0
5.44009e-15
7.04992e-15
6.93889e-15
3.55271e-15
2.33147e-15
9.53682e-14
6.3391e-12
3.56448e-11
9.03164e-10
6.79169e-09
2.1814e-08
5.24155e-08
3.78918e-06
0.000110452
0.000195246
0.00920811
)
;

boundaryField
{
    leftWall
    {
        type            zeroGradient;
    }
    rightWall
    {
        type            zeroGradient;
    }
    lowerWall
    {
        type            zeroGradient;
    }
    atmosphere
    {
        type            inletOutlet;
        inletValue      uniform 0;
        value           nonuniform List<scalar> 
46
(
0
1.33782e-14
3.03091e-14
2.37033e-14
1.70419e-14
1.7264e-14
1.11022e-14
1.42664e-14
1.35447e-14
1.38778e-14
1.43774e-14
1.40998e-14
1.50435e-14
1.44329e-14
1.76525e-14
1.39888e-14
1.70419e-14
1.58762e-14
1.80966e-14
1.57652e-14
1.63758e-14
1.62648e-14
0
0
0
0
0
7.77156e-15
1.31561e-14
0
5.44009e-15
7.04992e-15
6.93889e-15
3.55271e-15
2.33147e-15
9.53682e-14
6.3391e-12
3.56448e-11
9.03164e-10
6.79169e-09
2.1814e-08
5.24155e-08
3.78918e-06
0.000110452
0.000195246
0.00920811
)
;
    }
    defaultFaces
    {
        type            empty;
    }
}


// ************************************************************************* //
