/*--------------------------------*- C++ -*----------------------------------*\
| =========                 |                                                 |
| \\      /  F ield         | foam-extend: Open Source CFD                    |
|  \\    /   O peration     | Version:     4.1                                |
|   \\  /    A nd           | Web:         http://www.foam-extend.org         |
|    \\/     M anipulation  |                                                 |
\*---------------------------------------------------------------------------*/
FoamFile
{
    version     2.0;
    format      ascii;
    class       volScalarField;
    location    "0.6";
    object      C;
}
// * * * * * * * * * * * * * * * * * * * * * * * * * * * * * * * * * * * * * //

dimensions      [0 0 0 0 0 0 0];

internalField   nonuniform List<scalar> 
2268
(
0.999955
0.993194
0.999419
0.999957
0.999971
0.999988
0.999988
0.999968
0.999959
0.999682
0.999663
0.999672
0.999715
0.999795
0.99988
0.999934
0.999969
0.999989
0.999995
0.999824
0.997807
0.973369
0.136298
0.998318
0.897095
0.989994
0.999234
0.999122
0.999693
0.99977
0.999524
0.999461
0.998099
0.998641
0.998906
0.999159
0.999323
0.999597
0.999706
0.999851
0.999932
0.999977
0.999964
0.999965
0.999041
0.97517
0.967522
0.2876
0.918241
0.993521
0.987774
0.996157
0.997446
0.996416
0.997045
0.995299
0.996268
0.997139
0.996788
0.997313
0.998571
0.999334
0.999668
0.999847
0.999943
0.999952
0.999853
0.997547
0.983064
0.634864
-0.545787
0.582845
0.959567
0.898337
0.96954
0.9774
0.983455
0.983737
0.987465
0.990507
0.986322
0.984231
0.987408
0.99087
0.995056
0.996709
0.998161
0.999145
0.999755
0.999683
0.997943
0.983801
0.615267
-0.501789
0.343189
0.917872
0.40067
0.871919
0.820675
0.918318
0.914064
0.957699
0.974162
0.963385
0.962887
0.960164
0.967136
0.980846
0.987772
0.994737
0.997457
0.999193
0.99933
0.998161
0.984136
0.199555
-0.403234
-0.0574765
0.634575
-0.549065
0.607619
0.0451906
0.601864
0.294543
0.606119
0.866267
0.936742
0.932253
0.916264
0.918193
0.940791
0.965001
0.985775
0.992365
0.997046
0.998192
0.997561
0.983701
0.0213037
-0.494737
-0.174742
0.555801
-0.554019
0.510431
-0.56182
0.491425
-0.560543
0.0326698
0.67992
0.905773
0.886485
0.873606
0.862038
0.907394
0.936071
0.969464
0.981247
0.988659
0.983861
0.992924
0.986062
0.00945742
-0.531734
-0.0524702
0.44006
-0.53019
-0.194372
-0.696402
-0.0612448
-0.742834
-0.451144
0.286317
0.791512
0.828789
0.804483
0.795267
0.894491
0.923846
0.955192
0.962711
0.950042
0.867749
0.936726
0.98274
-0.212369
0.0186096
0.0837354
0.0960838
0.0964318
0.0841164
0.067836
0.0622783
0.0583103
0.100298
0.182601
0.253603
0.297693
0.304591
0.292469
0.20691
0.139627
-0.169414
-0.470906
-0.288749
-0.213292
-0.250874
-0.156931
0.0824973
0.0840839
0.0318418
0.0989419
0.156424
0.188447
0.268277
0.37909
0.453184
0.449551
0.439847
0.358635
0.140884
-0.206685
-0.542237
-0.399406
-0.52349
-0.588011
-0.198407
0.0359409
-0.0359564
-0.196173
-0.112423
-0.0299483
-0.0398362
-0.236743
0.367327
0.42125
0.384225
0.440741
0.463955
0.421858
0.285149
-0.485403
-0.51213
-0.736805
-0.614894
-0.163372
-0.00690819
-0.102036
-0.449364
-0.495334
-0.133029
-0.391718
-0.501226
0.197572
0.348399
0.19482
0.373123
0.483729
0.484987
0.402582
-0.421207
-0.519635
-0.799812
-0.840949
-0.557181
-0.100159
-0.362355
-0.723044
-0.813968
-0.527669
-0.649627
-0.555085
-0.409809
0.00638998
-0.0380806
0.185402
0.438615
0.486934
0.385571
-0.373713
-0.520215
-0.788352
-0.929478
-0.917496
-0.469107
-0.780065
-0.856834
-0.895572
-0.858858
-0.77093
-0.579496
-0.528405
-0.463498
-0.262318
0.0722114
0.353516
0.473448
0.381467
-0.293284
-0.521683
-0.787143
-0.954533
-0.936316
-0.865971
-0.893692
-0.933587
-0.904176
-0.790685
-0.65195
-0.438117
-0.468908
-0.455396
-0.288284
-0.0100247
0.267399
0.430709
0.443614
-0.135368
-0.531656
-0.848025
-0.940318
-0.863666
-0.873993
-0.874752
-0.836937
-0.756109
-0.723888
-0.800075
-0.697008
-0.495739
-0.442442
-0.318023
-0.0573582
0.212253
0.390027
0.454543
0.0315906
0.0465325
-0.558413
-0.0770655
-0.196249
-0.803152
-0.607622
-0.858139
-0.657335
-0.84666
-0.529775
0.204818
0.733678
0.631943
0.542656
0.625266
0.714517
0.757877
0.818515
0.820835
0.762402
0.596422
0.643831
0.89552
0.0955206
-0.625825
-0.469931
-0.757573
-0.898488
-0.871332
-0.927886
-0.904034
-0.925579
-0.822421
-0.163173
0.535351
0.433907
0.119432
0.155319
0.198342
0.337874
0.420226
0.393539
0.335873
0.274932
0.276524
0.510171
-0.236237
-0.825721
-0.852727
-0.903625
-0.931012
-0.932567
-0.951476
-0.952713
-0.95685
-0.934183
-0.640862
0.00492324
0.0470113
-0.248925
-0.461206
-0.510009
-0.416943
-0.0206042
0.0209588
0.0489371
0.0987455
0.0969934
0.202366
-0.241334
-0.868308
-0.94392
-0.947909
-0.952878
-0.96242
-0.970626
-0.972283
-0.970509
-0.951198
-0.883254
-0.488621
-0.412642
-0.696978
-0.801597
-0.8018
-0.74009
-0.582765
-0.464632
-0.201469
-0.0357345
-0.0298093
-0.0124197
-0.147105
-0.834848
-0.964096
-0.961356
-0.963187
-0.967367
-0.973762
-0.974887
-0.972716
-0.969768
-0.956164
-0.877052
-0.757084
-0.873441
-0.886761
-0.857558
-0.742438
-0.709785
-0.630961
-0.4779
-0.336601
-0.34156
-0.386992
-0.0555439
-0.733291
-0.971759
-0.974837
-0.971258
-0.970507
-0.973122
-0.978323
-0.981871
-0.989034
-0.978362
-0.966889
-0.925563
-0.910768
-0.882391
-0.883881
-0.744718
-0.830628
-0.780285
-0.611509
-0.516623
-0.574832
-0.643117
-0.752557
-0.982836
-0.985865
-0.983015
-0.978962
-0.975811
-0.976525
-0.982947
-0.986788
-0.996633
-0.990361
-0.979048
-0.97044
-0.955434
-0.953691
-0.96269
-0.941745
-0.964393
-0.961651
-0.809045
-0.81354
-0.888836
-0.908986
-0.992698
-0.993786
-0.990881
-0.988017
-0.98562
-0.981108
-0.980232
-0.985875
-0.990243
-0.998573
-0.99711
-0.99127
-0.983564
-0.978743
-0.98086
-0.981933
-0.981938
-0.988611
-0.991085
-0.965676
-0.942649
-0.97092
-0.962152
-0.998379
-0.998233
-0.996846
-0.991645
-0.98964
-0.987392
-0.986425
-0.989598
-0.995942
-0.999257
-0.998148
-0.995133
-0.992343
-0.986273
-0.984508
-0.985696
-0.989825
-0.99493
-0.996797
-0.994593
-0.989644
-0.987492
-0.970116
-0.999176
-0.99923
-0.998936
-0.996199
-0.993671
-0.992513
-0.992458
-0.994612
-0.99828
-0.999633
-0.999203
-0.996851
-0.996282
-0.994506
-0.991122
-0.991371
-0.994809
-0.99773
-0.998435
-0.99744
-0.996301
-0.984647
-0.963192
-0.999586
-0.999732
-0.999692
-0.998879
-0.997915
-0.997123
-0.996328
-0.997718
-0.999415
-0.999891
-0.999686
-0.997778
-0.997598
-0.99613
-0.992503
-0.995455
-0.998682
-0.998828
-0.999159
-0.998993
-0.997153
-0.992327
-0.992422
-0.999783
-0.999903
-0.999927
-0.999815
-0.999707
-0.999424
-0.998897
-0.999421
-0.999853
-0.999959
-0.999869
-0.998324
-0.998494
-0.99744
-0.995995
-0.998532
-0.999332
-0.999343
-0.99963
-0.999672
-0.999301
-0.997887
-0.997936
-0.999898
-0.999967
-0.999973
-0.999988
-0.999992
-0.999938
-0.999934
-0.99998
-0.999998
-0.999988
-0.999944
-0.998704
-0.999292
-0.998483
-0.998794
-0.999341
-0.99958
-0.999632
-0.99989
-0.999937
-0.999888
-0.999608
-0.999509
-0.999959
-0.999992
-0.999991
-0.999999
-1
-1
-1
-1
-1
-0.999987
-0.99992
-0.998129
-0.999727
-0.999559
-0.999565
-0.999715
-0.999822
-0.999858
-0.999956
-0.999988
-0.999993
-0.999978
-0.999973
-0.999991
-0.999999
-0.999998
-1
-1
-1
-1
-1
-0.999999
-0.999986
-0.999959
-0.999602
-0.99992
-0.999887
-0.999873
-0.999935
-0.999959
-0.999963
-0.999965
-0.999988
-0.999999
-0.999999
-0.999999
-0.999997
-1
-1
-1
-1
-1
-1
-1
-0.999999
-0.999978
-0.999969
-0.999736
-0.99997
-0.999969
-0.999991
-0.999997
-0.999997
-0.999998
-0.999998
-1
-1
-1
-1
-1
-1
-1
-1
-1
-1
-1
-1
-1
-0.999997
-0.99999
-0.999989
-0.999998
-0.999998
-0.999999
-1
-1
-1
-1
-1
-1
-1
-1
-1
-1
-1
-1
-1
-1
-1
-1
-1
-0.999998
-0.999996
-0.999998
-1
-1
-1
-1
-1
-1
-1
-1
-1
-1
-1
-1
-1
-1
-1
-1
-1
-1
-1
-1
-1
-1
-1
-1
-1
-1
-1
-1
-1
-1
-1
-1
-1
-1
-1
-1
-1
-1
-1
-1
-1
-1
-1
-1
-1
-1
-1
-1
-1
-1
-1
-1
-1
-1
-1
-1
-1
-1
-1
-1
-1
-1
-1
-1
-1
-1
-1
-1
-1
-1
-1
-1
-1
-1
-1
-1
-1
-1
-1
-1
-1
-1
-1
-1
-1
-1
-1
-1
-1
-1
-1
-1
-1
-1
-1
-1
-1
-1
-1
-1
-1
-1
-1
-1
-1
-1
-1
-1
-1
-1
-1
-1
-1
-1
-1
-1
-1
-1
-1
-1
-1
-1
-1
-1
-1
-1
-1
-1
-1
-1
-1
-1
-1
-1
-1
-1
-1
-1
-1
-1
-1
-1
-1
-1
-1
-1
-1
-1
-1
-1
-1
-1
-1
-1
-1
-1
-1
-1
-1
-1
-1
-1
-1
-1
-1
-1
-1
-1
-1
-1
-1
-1
-1
-1
-1
-1
-1
-1
-1
-1
-1
-1
-1
-1
-1
-1
-1
-1
-1
-1
-1
-1
-1
-1
-1
-1
-1
-1
-1
-1
-1
-1
-1
-1
-1
-1
-1
-1
-1
-1
-1
-1
-1
-1
-1
-1
-1
-1
-1
-1
-1
-1
-1
-1
-1
-1
-1
-1
-1
-1
-1
-1
-1
-1
-1
-1
-1
-1
-1
-1
-1
-1
-1
-1
-1
-1
-1
-1
-1
-1
-1
-1
-1
-1
-1
-1
-1
-1
-1
-1
-1
-1
-1
-1
-1
-1
-1
-1
-1
-1
-1
-1
-1
-1
-1
-1
-1
-1
-1
-1
-1
-1
-1
-1
-1
-1
-1
-1
-1
-1
-1
-1
-1
-1
-1
-1
-1
-1
-1
-1
-1
-1
-1
-1
-1
-1
-1
-1
-1
-1
-1
-1
-1
-1
-1
-1
-1
-1
-1
-1
-1
-1
-1
-1
-1
-1
-1
-1
-1
-1
-1
-1
-1
-1
-1
-1
-1
-1
-1
-1
-1
-1
-1
-1
-1
-1
-1
-1
-1
-1
-1
-1
-1
-1
-1
-1
-1
-1
-1
-1
-1
-1
-1
-1
-1
-1
-1
-1
-1
-1
-1
-1
-1
-1
-1
-1
-1
-1
-1
-1
-1
-1
-1
-1
-1
-1
-1
-1
-1
-1
-1
-1
-1
-1
-1
-1
-1
-1
-1
-1
-1
-1
-1
-1
-1
-1
-1
-1
-1
-1
-1
-1
-1
-1
-1
-1
-1
-1
-1
-1
-1
-1
-1
-1
-1
-1
-1
-1
-1
-1
-1
-1
-1
-1
-1
-1
-1
-1
-1
-1
-1
-1
-1
-1
-1
-1
-1
-1
-1
-1
-1
-1
-1
-1
-1
-1
-1
-1
-1
-1
-1
-1
-1
-1
-1
-1
-1
-1
-1
-1
-1
-1
-1
-1
-1
-1
-1
-1
-1
-1
-1
-1
-1
-1
-1
-1
-1
-1
-1
-1
-1
-1
-1
-1
-1
-1
-1
-1
-1
-1
-1
-1
-1
-1
-1
-1
-1
-1
-1
-1
-1
-1
-1
-1
-1
-1
-1
-1
-1
-1
-1
-1
-1
-1
-1
-1
-1
-1
-1
-1
-1
-1
-1
-1
-1
-1
-1
-1
-1
-1
-1
-1
-1
-1
-1
-1
-1
-1
-1
-1
-1
-1
-1
-1
-1
-1
-1
-1
-1
-1
-1
-1
-1
0.922481
0.939425
0.695523
-0.738107
0.708839
0.869182
0.830957
0.696103
0.324754
0.476181
0.577422
0.64834
0.019724
0.0347339
0.0664574
0.151685
-0.399836
-0.411444
-0.410394
-0.398343
-0.673577
-0.667864
-0.656854
-0.619512
-0.901768
-0.882785
-0.842295
-0.771543
-0.93283
-0.893313
-0.821437
-0.762103
-0.921898
-0.877309
-0.833579
-0.783117
-0.954618
-0.950962
-0.907544
-0.855639
-0.993444
-0.991078
-0.981382
-0.970441
-0.999382
-0.999371
-0.998948
-0.997938
-0.999902
-0.999909
-0.999809
-0.999686
-0.999987
-0.99997
-0.999952
-0.999937
-0.999997
-0.999996
-0.999995
-0.999993
-1
-1
-1
-1
-1
-1
-1
-1
-1
-1
-1
-1
-1
-1
-1
-1
-1
-1
-1
-1
-1
-1
-1
-1
-1
-1
-1
-1
-1
-1
-1
-1
-1
-1
-1
-1
-1
-1
-1
-1
-1
-1
-1
-1
-1
-1
-1
-1
-1
-1
-1
-1
-1
-1
-1
-1
-1
-1
-1
-1
-1
-1
-1
-1
-1
-1
-1
-1
-1
-1
-1
-1
-1
-1
-1
-1
-1
-1
-1
-1
-1
-1
-1
-1
-1
-1
-1
-1
-1
-1
-1
-1
-1
-1
-1
-1
-1
-1
-1
-1
-1
-1
-1
-1
-1
-1
-1
-1
-0.625735
-0.673445
-0.670834
-0.494103
-0.444441
-0.517771
-0.458561
-0.356103
-0.280648
-0.451004
-0.44923
-0.371562
-0.338475
-0.226675
0.0431639
0.183766
0.347721
0.44313
0.205879
0.510454
0.636386
0.683734
0.621195
0.564435
0.599092
0.599716
0.565344
0.538266
0.454773
0.439892
0.323713
0.291194
0.355657
0.408302
0.383552
0.412426
0.457193
0.302304
0.692534
0.768251
0.817132
0.842086
0.841698
0.8343
0.824677
0.835256
0.829504
0.806714
0.759342
0.62862
0.475379
0.343594
0.125712
-0.170174
-0.0707782
0.276062
0.263936
0.357466
0.631814
0.727103
0.800741
0.780795
0.693935
0.611076
0.694947
0.675861
0.641334
0.51337
0.393239
-0.0655054
-0.371369
-0.526344
-0.535199
-0.367314
0.128221
0.239345
-0.306084
0.0796396
0.51814
0.722951
0.610363
0.245327
0.0131879
0.208129
0.218349
0.176742
-0.107353
-0.349134
-0.616551
-0.674182
-0.708195
-0.666108
-0.481597
-0.0186618
0.212164
-0.49182
-0.236109
0.1961
0.392982
0.310023
-0.0433813
-0.402262
-0.284478
-0.17994
-0.0920714
-0.162078
-0.449752
-0.696487
-0.774739
-0.795293
-0.779367
-0.573642
-0.00842116
0.209134
-0.605446
-0.318194
0.00412148
0.0187637
-0.255328
-0.565684
-0.568859
-0.52004
-0.489561
-0.458048
-0.545831
-0.735558
-0.837216
-0.877397
-0.848674
-0.801742
-0.570279
-0.00453481
0.209909
-0.563916
-0.319504
-0.334987
-0.480833
-0.658679
-0.680588
-0.62874
-0.651656
-0.715301
-0.773715
-0.865893
-0.907617
-0.930248
-0.924189
-0.895608
-0.823172
-0.49358
0.0214388
0.214553
-0.631291
-0.547673
-0.633833
-0.810447
-0.851206
-0.698243
-0.709381
-0.791286
-0.889396
-0.944181
-0.954736
-0.950537
-0.954018
-0.953738
-0.925457
-0.838539
-0.512799
0.0546135
0.222399
-0.817433
-0.850151
-0.874322
-0.908612
-0.956814
-0.936859
-0.906097
-0.916616
-0.921111
-0.971659
-0.976795
-0.964873
-0.96171
-0.948177
-0.915907
-0.810937
-0.487016
0.0730124
0.229473
-0.958014
-0.975725
-0.982556
-0.981896
-0.99113
-0.987639
-0.978144
-0.985013
-0.987494
-0.984983
-0.972352
-0.959077
-0.942012
-0.895746
-0.819726
-0.616862
-0.293557
0.106305
0.235972
-0.997124
-0.997722
-0.998235
-0.998016
-0.997417
-0.996205
-0.996067
-0.990307
-0.982477
-0.974903
-0.961251
-0.947853
-0.915857
-0.842849
-0.751672
-0.487915
-0.0890983
0.175925
0.239122
-0.999634
-0.999638
-0.999549
-0.998848
-0.997265
-0.993713
-0.989025
-0.982381
-0.969456
-0.948731
-0.91868
-0.890135
-0.868881
-0.807546
-0.747939
-0.47609
-0.0402044
0.212886
0.238133
-0.999931
-0.999947
-0.999855
-0.99937
-0.998045
-0.994227
-0.988408
-0.980227
-0.968431
-0.956711
-0.908489
-0.851886
-0.82862
-0.755572
-0.70613
-0.540624
-0.0935261
0.212877
0.231376
-0.999992
-0.999981
-0.999923
-0.999699
-0.998931
-0.996209
-0.992626
-0.990262
-0.990384
-0.991301
-0.983917
-0.960833
-0.93544
-0.847949
-0.712286
-0.488747
-0.199411
0.19415
0.21001
-0.999999
-0.999995
-0.999964
-0.999832
-0.999315
-0.998058
-0.997148
-0.996911
-0.996854
-0.997366
-0.996536
-0.987628
-0.970159
-0.929967
-0.789431
-0.463576
-0.234198
0.132125
0.165769
-1
-0.999999
-0.999992
-0.999953
-0.999773
-0.999397
-0.99901
-0.99865
-0.99848
-0.998754
-0.998305
-0.994378
-0.988416
-0.965146
-0.862718
-0.503356
-0.204364
0.0270726
0.0901207
-1
-1
-0.999999
-0.999992
-0.999963
-0.999898
-0.99972
-0.999587
-0.999443
-0.999556
-0.999571
-0.999099
-0.998431
-0.995372
-0.948755
-0.672727
-0.186114
-0.0353001
0.0253553
-1
-1
-1
-0.999999
-0.999996
-0.999985
-0.999944
-0.999906
-0.999885
-0.999832
-0.999853
-0.999806
-0.999207
-0.99678
-0.990643
-0.920317
-0.496657
-0.151226
-0.0205995
-1
-1
-1
-1
-0.999999
-0.999998
-0.999991
-0.999983
-0.999969
-0.999952
-0.999945
-0.999926
-0.999749
-0.998234
-0.994081
-0.981131
-0.915866
-0.613441
-0.112438
-1
-1
-1
-1
-1
-0.999999
-0.999998
-0.999995
-0.99999
-0.999982
-0.999974
-0.999963
-0.999845
-0.998772
-0.995255
-0.98974
-0.97747
-0.782891
-0.138035
-1
-1
-1
-1
-1
-1
-1
-0.999999
-0.999997
-0.999996
-0.999993
-0.999987
-0.999883
-0.999052
-0.995461
-0.989511
-0.978419
-0.766959
-0.156454
-1
-1
-1
-1
-1
-1
-1
-1
-0.999999
-1
-0.999998
-0.999948
-0.999644
-0.998593
-0.995214
-0.989679
-0.971327
-0.711957
-0.159846
-1
-1
-1
-1
-1
-1
-1
-1
-1
-0.999999
-0.999983
-0.999885
-0.999487
-0.997398
-0.993739
-0.982749
-0.887554
-0.624315
-0.156625
-1
-1
-1
-1
-1
-1
-1
-1
-1
-0.999999
-0.999993
-0.999946
-0.999525
-0.996561
-0.989049
-0.961259
-0.826622
-0.491204
-0.154131
-1
-1
-1
-1
-1
-1
-1
-1
-1
-0.999999
-0.999988
-0.999904
-0.999392
-0.996434
-0.98336
-0.942119
-0.823154
-0.490196
-0.156854
-1
-1
-1
-1
-1
-1
-1
-1
-1
-0.999997
-0.999986
-0.999896
-0.999181
-0.995604
-0.978789
-0.927801
-0.79408
-0.507618
-0.170338
-1
-1
-1
-1
-1
-1
-1
-1
-1
-0.999998
-0.999982
-0.999851
-0.999017
-0.995209
-0.976379
-0.919133
-0.777854
-0.505536
-0.189769
-1
-1
-1
-1
-1
-1
-1
-1
-1
-0.999999
-0.999971
-0.999754
-0.998215
-0.99257
-0.971122
-0.914141
-0.77484
-0.488743
-0.206267
-1
-1
-1
-1
-1
-1
-1
-1
-1
-1
-0.999996
-0.999874
-0.998494
-0.992086
-0.970057
-0.916127
-0.776812
-0.496743
-0.225885
-1
-1
-1
-1
-1
-1
-1
-1
-1
-1
-1
-0.999973
-0.999544
-0.995277
-0.978729
-0.932015
-0.777226
-0.490231
-0.256489
-1
-1
-1
-1
-1
-1
-1
-1
-1
-1
-1
-0.999996
-0.999965
-0.999785
-0.99388
-0.970999
-0.845018
-0.51343
-0.308902
-1
-1
-1
-1
-1
-1
-1
-1
-1
-1
-0.999999
-0.999994
-0.999974
-0.999884
-0.999601
-0.996139
-0.952245
-0.689069
-0.44001
-1
-1
-1
-1
-1
-1
-1
-1
-1
-1
-0.999998
-0.999988
-0.999917
-0.999464
-0.999478
-0.999528
-0.994692
-0.903485
-0.732169
-1
-1
-1
-1
-1
-1
-1
-1
-1
-0.999999
-0.999996
-0.999985
-0.999936
-0.999627
-0.999146
-0.999277
-0.998939
-0.969097
-0.864415
-1
-1
-1
-1
-1
-1
-1
-1
-1
-1
-0.999996
-0.999979
-0.999912
-0.999406
-0.998857
-0.999227
-0.999026
-0.98539
-0.919554
-1
-1
-1
-1
-1
-1
-1
-1
-1
-1
-0.999999
-0.999989
-0.999938
-0.999147
-0.998595
-0.999064
-0.998975
-0.990591
-0.926977
-1
-1
-1
-1
-1
-1
-1
-1
-1
-1
-0.999999
-0.999997
-0.999987
-0.999382
-0.998264
-0.998755
-0.99873
-0.990576
-0.926078
-1
-1
-1
-1
-1
-1
-1
-1
-1
-1
-1
-0.999999
-0.999998
-0.99996
-0.999084
-0.998825
-0.998752
-0.99196
-0.929346
-1
-1
-1
-1
-1
-1
-1
-1
-1
-1
-1
-1
-1
-0.999998
-0.999761
-0.999098
-0.998842
-0.993638
-0.936281
-1
-1
-1
-1
-1
-1
-1
-1
-1
-1
-1
-1
-1
-1
-0.999999
-0.999865
-0.999345
-0.997617
-0.953174
-1
-1
-1
-1
-1
-1
-1
-1
-1
-1
-1
-1
-1
-1
-1
-0.999992
-0.999779
-0.99961
-0.981584
)
;

boundaryField
{
    leftWall
    {
        type            zeroGradient;
    }
    rightWall
    {
        type            zeroGradient;
    }
    lowerWall
    {
        type            zeroGradient;
    }
    atmosphere
    {
        type            zeroGradient;
    }
    defaultFaces
    {
        type            empty;
    }
}


// ************************************************************************* //
