/*--------------------------------*- C++ -*----------------------------------*\
| =========                 |                                                 |
| \\      /  F ield         | foam-extend: Open Source CFD                    |
|  \\    /   O peration     | Version:     4.1                                |
|   \\  /    A nd           | Web:         http://www.foam-extend.org         |
|    \\/     M anipulation  |                                                 |
\*---------------------------------------------------------------------------*/
FoamFile
{
    version     2.0;
    format      ascii;
    class       volScalarField;
    location    "0.6";
    object      C_0;
}
// * * * * * * * * * * * * * * * * * * * * * * * * * * * * * * * * * * * * * //

dimensions      [0 0 0 0 0 0 0];

internalField   nonuniform List<scalar> 
2268
(
0.99996
0.993955
0.99949
0.999963
0.999973
0.999988
0.999988
0.999967
0.999959
0.999681
0.999663
0.999672
0.999717
0.999797
0.999881
0.999935
0.999969
0.999989
0.999995
0.999832
0.997864
0.973557
0.136057
0.998517
0.907499
0.991113
0.999327
0.999174
0.999706
0.999777
0.999515
0.999463
0.998105
0.998641
0.998908
0.999159
0.999323
0.999596
0.999706
0.999852
0.999932
0.999977
0.999965
0.999965
0.999035
0.975066
0.972986
0.344827
0.926384
0.994226
0.988378
0.996349
0.997548
0.996389
0.997077
0.995322
0.996258
0.997118
0.996755
0.997285
0.998559
0.999333
0.999669
0.999847
0.999943
0.999952
0.999852
0.997536
0.983059
0.67515
-0.524653
0.607945
0.963437
0.902729
0.971195
0.978991
0.983403
0.983916
0.987625
0.990444
0.986046
0.983978
0.98724
0.990764
0.995032
0.996702
0.998158
0.999141
0.999753
0.999683
0.997935
0.983775
0.616302
-0.510431
0.356481
0.919599
0.428761
0.876252
0.835004
0.920296
0.915623
0.958923
0.97381
0.962715
0.962442
0.959739
0.966738
0.980719
0.987719
0.99471
0.99744
0.999187
0.99933
0.998156
0.984097
0.195558
-0.406907
-0.0378963
0.655647
-0.526478
0.616581
0.074373
0.615864
0.30829
0.617934
0.870351
0.936905
0.931389
0.915346
0.917306
0.940538
0.964852
0.985693
0.992294
0.997016
0.998217
0.997573
0.983651
0.0216539
-0.49098
-0.164134
0.566143
-0.557109
0.513407
-0.559342
0.488184
-0.552762
0.0611562
0.687063
0.905814
0.884567
0.872494
0.86096
0.907203
0.935902
0.969329
0.981059
0.988585
0.984395
0.993278
0.986067
0.00920734
-0.527907
-0.0422048
0.425967
-0.538336
-0.186561
-0.6996
-0.0753464
-0.74438
-0.438129
0.301035
0.795421
0.825967
0.802007
0.792873
0.893971
0.923512
0.954951
0.962396
0.950619
0.870819
0.939749
0.982873
-0.224473
0.00928135
0.0811126
0.0959624
0.0970749
0.0863629
0.0689873
0.0619665
0.0569257
0.0948691
0.175137
0.247831
0.295106
0.303003
0.293532
0.207797
0.14074
-0.173233
-0.474975
-0.298674
-0.22757
-0.261789
-0.173091
0.081647
0.08643
0.0378692
0.0973342
0.154182
0.185135
0.266446
0.376342
0.453108
0.450426
0.441548
0.359915
0.136652
-0.222711
-0.543914
-0.408911
-0.537848
-0.596388
-0.208155
0.0347591
-0.0253148
-0.187395
-0.115293
-0.0291296
-0.0436536
-0.240922
0.364228
0.42133
0.385881
0.441206
0.463215
0.416276
0.269723
-0.492549
-0.515335
-0.746594
-0.632133
-0.175518
-0.00916142
-0.0890477
-0.433396
-0.501192
-0.124968
-0.385186
-0.511005
0.188195
0.346178
0.196997
0.37559
0.484583
0.48502
0.403703
-0.419766
-0.519997
-0.801853
-0.854399
-0.582776
-0.109704
-0.359262
-0.715534
-0.81263
-0.51798
-0.637871
-0.550875
-0.417118
0.00645028
-0.032819
0.191795
0.44233
0.487611
0.390897
-0.371347
-0.520275
-0.790248
-0.933634
-0.92214
-0.499613
-0.782981
-0.858226
-0.895186
-0.856772
-0.764389
-0.571455
-0.52692
-0.462093
-0.253429
0.0802067
0.359967
0.475354
0.386112
-0.289643
-0.521944
-0.790434
-0.956063
-0.935175
-0.869661
-0.89629
-0.934318
-0.905008
-0.785925
-0.64162
-0.429833
-0.469387
-0.454238
-0.281334
-0.00111884
0.275297
0.43476
0.446384
-0.13057
-0.533381
-0.853315
-0.938902
-0.865561
-0.876791
-0.874807
-0.831537
-0.754691
-0.732531
-0.804437
-0.690309
-0.48689
-0.438556
-0.311534
-0.0470952
0.220388
0.394815
0.455552
0.0340379
0.0455972
-0.557086
-0.07401
-0.231023
-0.814161
-0.606103
-0.857743
-0.678451
-0.847257
-0.515963
0.215734
0.73347
0.626775
0.536561
0.621151
0.713881
0.758254
0.817895
0.820611
0.762581
0.597083
0.647737
0.897236
0.104099
-0.62321
-0.464837
-0.755295
-0.89782
-0.871886
-0.927347
-0.907705
-0.925225
-0.81569
-0.167337
0.527137
0.424939
0.111531
0.147458
0.197
0.342711
0.420926
0.395527
0.338367
0.274826
0.277247
0.51401
-0.226839
-0.821521
-0.850437
-0.902399
-0.930581
-0.932277
-0.951209
-0.953068
-0.956849
-0.935068
-0.647606
-0.015797
0.0309132
-0.261542
-0.468929
-0.511411
-0.404909
-0.0075953
0.0252778
0.0525144
0.0993009
0.0972969
0.203751
-0.237791
-0.866015
-0.943178
-0.947527
-0.952404
-0.961853
-0.970476
-0.972393
-0.97093
-0.952502
-0.887507
-0.498595
-0.426611
-0.703412
-0.80135
-0.800065
-0.734274
-0.57805
-0.458205
-0.190418
-0.0331507
-0.0297136
-0.0123878
-0.147959
-0.839106
-0.964069
-0.961214
-0.963102
-0.967063
-0.973665
-0.974925
-0.972765
-0.969215
-0.955897
-0.877273
-0.765257
-0.8758
-0.886934
-0.855519
-0.740344
-0.707304
-0.625625
-0.466524
-0.333875
-0.343441
-0.389951
-0.0495634
-0.730066
-0.971744
-0.974858
-0.971411
-0.970594
-0.972972
-0.978214
-0.981521
-0.988425
-0.977588
-0.966373
-0.927323
-0.91101
-0.881656
-0.880764
-0.738513
-0.825309
-0.770692
-0.599717
-0.518441
-0.580653
-0.644402
-0.750705
-0.982804
-0.985949
-0.983114
-0.979195
-0.976046
-0.976481
-0.982796
-0.986549
-0.996493
-0.98969
-0.978103
-0.97043
-0.955627
-0.953415
-0.961782
-0.939986
-0.963343
-0.959579
-0.808462
-0.818635
-0.893278
-0.906989
-0.992639
-0.993811
-0.990952
-0.98809
-0.985787
-0.981397
-0.980378
-0.985851
-0.990075
-0.998548
-0.997017
-0.990893
-0.983075
-0.978709
-0.980928
-0.981846
-0.981648
-0.988417
-0.990972
-0.965446
-0.943256
-0.970893
-0.961069
-0.99837
-0.998246
-0.996921
-0.991729
-0.989737
-0.987689
-0.986623
-0.989599
-0.995834
-0.999245
-0.998104
-0.99491
-0.991964
-0.985944
-0.984492
-0.985711
-0.989869
-0.994933
-0.996761
-0.994531
-0.989529
-0.987477
-0.969776
-0.999172
-0.999234
-0.998959
-0.996282
-0.99376
-0.992692
-0.992605
-0.994649
-0.998271
-0.99963
-0.999175
-0.99671
-0.996175
-0.994406
-0.99107
-0.991353
-0.994843
-0.99774
-0.99843
-0.997425
-0.996344
-0.985018
-0.96285
-0.999584
-0.999734
-0.999699
-0.998918
-0.997965
-0.997189
-0.996419
-0.997765
-0.999425
-0.999891
-0.999671
-0.997682
-0.997537
-0.996075
-0.992484
-0.995437
-0.998676
-0.998823
-0.999157
-0.998995
-0.997233
-0.992245
-0.992113
-0.999782
-0.999903
-0.999928
-0.999825
-0.999719
-0.99944
-0.998938
-0.999436
-0.999858
-0.999958
-0.999864
-0.998257
-0.998448
-0.997399
-0.995966
-0.99852
-0.99933
-0.999338
-0.999628
-0.999673
-0.999313
-0.997866
-0.997842
-0.999898
-0.999967
-0.999973
-0.999989
-0.999993
-0.99994
-0.999938
-0.999982
-0.999998
-0.999988
-0.999942
-0.998652
-0.999268
-0.998427
-0.998779
-0.999336
-0.999577
-0.999626
-0.999888
-0.999937
-0.999891
-0.999605
-0.999482
-0.999959
-0.999992
-0.999991
-0.999999
-1
-1
-1
-1
-1
-0.999986
-0.999916
-0.998051
-0.999722
-0.999546
-0.99956
-0.999713
-0.999821
-0.999856
-0.999955
-0.999988
-0.999993
-0.999977
-0.999972
-0.999991
-0.999999
-0.999998
-1
-1
-1
-1
-1
-0.999999
-0.999985
-0.999958
-0.999589
-0.999918
-0.999885
-0.999871
-0.999934
-0.999958
-0.999962
-0.999965
-0.999988
-0.999999
-0.999999
-0.999999
-0.999997
-1
-1
-1
-1
-1
-1
-1
-0.999999
-0.999978
-0.999969
-0.999729
-0.999969
-0.999968
-0.99999
-0.999997
-0.999997
-0.999998
-0.999998
-1
-1
-1
-1
-1
-1
-1
-1
-1
-1
-1
-1
-1
-0.999997
-0.999989
-0.999989
-0.999998
-0.999998
-0.999999
-1
-1
-1
-1
-1
-1
-1
-1
-1
-1
-1
-1
-1
-1
-1
-1
-1
-0.999998
-0.999996
-0.999998
-1
-1
-1
-1
-1
-1
-1
-1
-1
-1
-1
-1
-1
-1
-1
-1
-1
-1
-1
-1
-1
-1
-1
-1
-1
-1
-1
-1
-1
-1
-1
-1
-1
-1
-1
-1
-1
-1
-1
-1
-1
-1
-1
-1
-1
-1
-1
-1
-1
-1
-1
-1
-1
-1
-1
-1
-1
-1
-1
-1
-1
-1
-1
-1
-1
-1
-1
-1
-1
-1
-1
-1
-1
-1
-1
-1
-1
-1
-1
-1
-1
-1
-1
-1
-1
-1
-1
-1
-1
-1
-1
-1
-1
-1
-1
-1
-1
-1
-1
-1
-1
-1
-1
-1
-1
-1
-1
-1
-1
-1
-1
-1
-1
-1
-1
-1
-1
-1
-1
-1
-1
-1
-1
-1
-1
-1
-1
-1
-1
-1
-1
-1
-1
-1
-1
-1
-1
-1
-1
-1
-1
-1
-1
-1
-1
-1
-1
-1
-1
-1
-1
-1
-1
-1
-1
-1
-1
-1
-1
-1
-1
-1
-1
-1
-1
-1
-1
-1
-1
-1
-1
-1
-1
-1
-1
-1
-1
-1
-1
-1
-1
-1
-1
-1
-1
-1
-1
-1
-1
-1
-1
-1
-1
-1
-1
-1
-1
-1
-1
-1
-1
-1
-1
-1
-1
-1
-1
-1
-1
-1
-1
-1
-1
-1
-1
-1
-1
-1
-1
-1
-1
-1
-1
-1
-1
-1
-1
-1
-1
-1
-1
-1
-1
-1
-1
-1
-1
-1
-1
-1
-1
-1
-1
-1
-1
-1
-1
-1
-1
-1
-1
-1
-1
-1
-1
-1
-1
-1
-1
-1
-1
-1
-1
-1
-1
-1
-1
-1
-1
-1
-1
-1
-1
-1
-1
-1
-1
-1
-1
-1
-1
-1
-1
-1
-1
-1
-1
-1
-1
-1
-1
-1
-1
-1
-1
-1
-1
-1
-1
-1
-1
-1
-1
-1
-1
-1
-1
-1
-1
-1
-1
-1
-1
-1
-1
-1
-1
-1
-1
-1
-1
-1
-1
-1
-1
-1
-1
-1
-1
-1
-1
-1
-1
-1
-1
-1
-1
-1
-1
-1
-1
-1
-1
-1
-1
-1
-1
-1
-1
-1
-1
-1
-1
-1
-1
-1
-1
-1
-1
-1
-1
-1
-1
-1
-1
-1
-1
-1
-1
-1
-1
-1
-1
-1
-1
-1
-1
-1
-1
-1
-1
-1
-1
-1
-1
-1
-1
-1
-1
-1
-1
-1
-1
-1
-1
-1
-1
-1
-1
-1
-1
-1
-1
-1
-1
-1
-1
-1
-1
-1
-1
-1
-1
-1
-1
-1
-1
-1
-1
-1
-1
-1
-1
-1
-1
-1
-1
-1
-1
-1
-1
-1
-1
-1
-1
-1
-1
-1
-1
-1
-1
-1
-1
-1
-1
-1
-1
-1
-1
-1
-1
-1
-1
-1
-1
-1
-1
-1
-1
-1
-1
-1
-1
-1
-1
-1
-1
-1
-1
-1
-1
-1
-1
-1
-1
-1
-1
-1
-1
-1
-1
-1
-1
-1
-1
-1
-1
-1
-1
-1
-1
-1
-1
-1
-1
-1
-1
-1
-1
-1
-1
-1
-1
-1
-1
-1
-1
-1
-1
-1
-1
-1
-1
-1
-1
-1
-1
-1
-1
-1
-1
-1
-1
-1
-1
-1
-1
-1
-1
-1
-1
-1
-1
-1
-1
-1
-1
-1
-1
-1
-1
-1
-1
-1
-1
-1
-1
-1
-1
-1
-1
-1
-1
-1
-1
-1
-1
-1
-1
-1
-1
-1
-1
0.923386
0.939817
0.696876
-0.739915
0.711855
0.870709
0.832311
0.69696
0.327067
0.479401
0.581529
0.652399
0.0202631
0.0365448
0.0705604
0.159777
-0.401386
-0.410793
-0.408223
-0.393253
-0.66989
-0.662796
-0.648072
-0.605095
-0.898659
-0.876763
-0.831819
-0.754332
-0.930066
-0.888692
-0.81494
-0.757381
-0.920822
-0.875144
-0.831805
-0.781499
-0.953094
-0.949424
-0.90737
-0.856568
-0.993085
-0.990846
-0.981414
-0.970825
-0.999352
-0.999356
-0.998967
-0.99794
-0.999898
-0.99991
-0.999816
-0.999687
-0.999987
-0.999971
-0.999952
-0.999937
-0.999997
-0.999996
-0.999995
-0.999994
-1
-1
-1
-1
-1
-1
-1
-1
-1
-1
-1
-1
-1
-1
-1
-1
-1
-1
-1
-1
-1
-1
-1
-1
-1
-1
-1
-1
-1
-1
-1
-1
-1
-1
-1
-1
-1
-1
-1
-1
-1
-1
-1
-1
-1
-1
-1
-1
-1
-1
-1
-1
-1
-1
-1
-1
-1
-1
-1
-1
-1
-1
-1
-1
-1
-1
-1
-1
-1
-1
-1
-1
-1
-1
-1
-1
-1
-1
-1
-1
-1
-1
-1
-1
-1
-1
-1
-1
-1
-1
-1
-1
-1
-1
-1
-1
-1
-1
-1
-1
-1
-1
-1
-1
-1
-1
-1
-1
-0.630141
-0.678425
-0.674769
-0.492636
-0.455464
-0.525029
-0.456344
-0.349766
-0.286584
-0.461036
-0.447597
-0.363708
-0.331959
-0.215286
0.0506979
0.189355
0.353865
0.444636
0.205241
0.514413
0.638375
0.682806
0.614476
0.5602
0.595372
0.596789
0.565972
0.537945
0.448262
0.435979
0.327395
0.30019
0.367643
0.409816
0.38388
0.414655
0.458333
0.299338
0.696077
0.771208
0.81919
0.842509
0.841847
0.8349
0.826633
0.836094
0.829937
0.806014
0.757255
0.617866
0.459487
0.325492
0.0945724
-0.182166
-0.0708237
0.280251
0.262186
0.371844
0.641189
0.730348
0.801245
0.780741
0.696403
0.62516
0.702528
0.683031
0.643015
0.512382
0.380282
-0.101483
-0.392814
-0.539959
-0.53934
-0.362808
0.132984
0.238298
-0.292626
0.10759
0.529404
0.723781
0.607775
0.241192
0.0343509
0.228164
0.235774
0.178083
-0.125608
-0.369202
-0.629145
-0.681584
-0.711518
-0.666599
-0.47612
-0.0132119
0.212284
-0.473703
-0.213286
0.215578
0.394112
0.304293
-0.0624221
-0.394903
-0.266513
-0.159207
-0.0842885
-0.166485
-0.468833
-0.706121
-0.780289
-0.797948
-0.779939
-0.567196
-0.00294764
0.209866
-0.585262
-0.296387
0.0108972
0.0118488
-0.27476
-0.569482
-0.565117
-0.508911
-0.476115
-0.45235
-0.552457
-0.745244
-0.842812
-0.879807
-0.850369
-0.801074
-0.564764
0.00056795
0.210808
-0.556065
-0.316653
-0.343663
-0.496804
-0.666103
-0.681001
-0.623422
-0.645149
-0.707277
-0.77376
-0.868635
-0.909289
-0.931904
-0.925686
-0.89727
-0.824978
-0.491034
0.0266256
0.215814
-0.629508
-0.557349
-0.63998
-0.813051
-0.85073
-0.693305
-0.703649
-0.786818
-0.888826
-0.944395
-0.955303
-0.950896
-0.954503
-0.954312
-0.926276
-0.839485
-0.513292
0.0577983
0.223657
-0.817092
-0.855379
-0.876072
-0.909661
-0.956305
-0.934946
-0.90279
-0.913343
-0.919932
-0.971892
-0.97725
-0.965115
-0.962157
-0.948593
-0.915907
-0.809118
-0.483881
0.0760978
0.230551
-0.957446
-0.976327
-0.982331
-0.982251
-0.991039
-0.987426
-0.977689
-0.984743
-0.987493
-0.985633
-0.972937
-0.959749
-0.943017
-0.896639
-0.818984
-0.612396
-0.282855
0.112738
0.236777
-0.99706
-0.99769
-0.99822
-0.99809
-0.997445
-0.9962
-0.996192
-0.990926
-0.98312
-0.975827
-0.962435
-0.949373
-0.917949
-0.8458
-0.754465
-0.490225
-0.0862482
0.182272
0.239271
-0.99963
-0.999636
-0.999571
-0.998932
-0.997491
-0.994108
-0.989516
-0.983116
-0.970919
-0.950748
-0.921141
-0.892462
-0.871037
-0.809646
-0.750254
-0.480173
-0.0422917
0.21431
0.237937
-0.99993
-0.999949
-0.999868
-0.999425
-0.998217
-0.99462
-0.989045
-0.981111
-0.969426
-0.957275
-0.910003
-0.852661
-0.828397
-0.756065
-0.706799
-0.542252
-0.0983716
0.212527
0.229994
-0.999992
-0.999982
-0.99993
-0.999726
-0.999018
-0.996499
-0.993057
-0.99054
-0.990352
-0.991199
-0.983952
-0.961021
-0.935499
-0.848505
-0.713702
-0.490057
-0.205663
0.190801
0.206499
-0.999999
-0.999995
-0.999967
-0.999846
-0.999369
-0.998194
-0.997269
-0.996935
-0.996836
-0.997334
-0.996582
-0.987881
-0.970611
-0.930704
-0.791148
-0.467041
-0.238262
0.124199
0.15964
-1
-0.999999
-0.999993
-0.999958
-0.999791
-0.999444
-0.999051
-0.998661
-0.998475
-0.998736
-0.998314
-0.994426
-0.988402
-0.96526
-0.864754
-0.507757
-0.207484
0.0182617
0.082394
-1
-1
-0.999999
-0.999993
-0.999966
-0.999907
-0.999732
-0.999592
-0.999442
-0.999552
-0.999567
-0.999081
-0.998396
-0.995355
-0.949719
-0.677537
-0.191771
-0.0414939
0.0204478
-1
-1
-1
-0.999999
-0.999996
-0.999987
-0.999946
-0.999907
-0.999886
-0.99983
-0.999852
-0.999804
-0.999192
-0.99672
-0.990731
-0.922909
-0.51209
-0.159814
-0.0248074
-1
-1
-1
-1
-0.999999
-0.999998
-0.999991
-0.999983
-0.999969
-0.999952
-0.999945
-0.999926
-0.999747
-0.998228
-0.9942
-0.981848
-0.920316
-0.625129
-0.114803
-1
-1
-1
-1
-1
-0.999999
-0.999998
-0.999995
-0.99999
-0.999982
-0.999974
-0.999963
-0.999845
-0.998777
-0.99528
-0.989741
-0.97727
-0.784976
-0.140503
-1
-1
-1
-1
-1
-1
-1
-0.999999
-0.999997
-0.999996
-0.999993
-0.999987
-0.999885
-0.999056
-0.995465
-0.989472
-0.97828
-0.769421
-0.157576
-1
-1
-1
-1
-1
-1
-1
-1
-0.999999
-1
-0.999998
-0.999949
-0.999649
-0.998617
-0.99522
-0.989781
-0.971838
-0.715645
-0.159897
-1
-1
-1
-1
-1
-1
-1
-1
-1
-0.999999
-0.999984
-0.999886
-0.999493
-0.997446
-0.993811
-0.98344
-0.889734
-0.623498
-0.156322
-1
-1
-1
-1
-1
-1
-1
-1
-1
-0.999999
-0.999993
-0.999947
-0.999538
-0.996653
-0.989424
-0.963548
-0.831994
-0.49314
-0.154035
-1
-1
-1
-1
-1
-1
-1
-1
-1
-0.999999
-0.999989
-0.999908
-0.999414
-0.996541
-0.983871
-0.943545
-0.826162
-0.495049
-0.157242
-1
-1
-1
-1
-1
-1
-1
-1
-1
-0.999997
-0.999986
-0.999899
-0.999213
-0.995761
-0.979454
-0.929394
-0.796447
-0.511559
-0.171596
-1
-1
-1
-1
-1
-1
-1
-1
-1
-0.999998
-0.999983
-0.999858
-0.999069
-0.995431
-0.977254
-0.921051
-0.780544
-0.508008
-0.190919
-1
-1
-1
-1
-1
-1
-1
-1
-1
-0.999999
-0.999972
-0.999768
-0.998308
-0.992908
-0.972069
-0.915965
-0.777666
-0.491219
-0.207213
-1
-1
-1
-1
-1
-1
-1
-1
-1
-1
-0.999996
-0.999884
-0.998588
-0.992463
-0.970996
-0.917796
-0.779694
-0.499834
-0.227037
-1
-1
-1
-1
-1
-1
-1
-1
-1
-1
-1
-0.999974
-0.999576
-0.995506
-0.979293
-0.933317
-0.780478
-0.493549
-0.258211
-1
-1
-1
-1
-1
-1
-1
-1
-1
-1
-1
-0.999996
-0.999968
-0.99979
-0.994067
-0.971455
-0.847443
-0.517582
-0.311406
-1
-1
-1
-1
-1
-1
-1
-1
-1
-1
-0.999999
-0.999994
-0.999974
-0.999881
-0.999591
-0.99609
-0.952666
-0.693057
-0.443526
-1
-1
-1
-1
-1
-1
-1
-1
-1
-1
-0.999998
-0.999987
-0.999914
-0.999454
-0.999479
-0.99953
-0.994753
-0.905387
-0.733224
-1
-1
-1
-1
-1
-1
-1
-1
-1
-0.999999
-0.999996
-0.999984
-0.999935
-0.999615
-0.99914
-0.999279
-0.998931
-0.968827
-0.863818
-1
-1
-1
-1
-1
-1
-1
-1
-1
-1
-0.999996
-0.999978
-0.99991
-0.999396
-0.998856
-0.999228
-0.999022
-0.98515
-0.918968
-1
-1
-1
-1
-1
-1
-1
-1
-1
-1
-0.999999
-0.999988
-0.999936
-0.99913
-0.998596
-0.999063
-0.998972
-0.990369
-0.926327
-1
-1
-1
-1
-1
-1
-1
-1
-1
-1
-0.999999
-0.999997
-0.999986
-0.999355
-0.998256
-0.998756
-0.998727
-0.990386
-0.925552
-1
-1
-1
-1
-1
-1
-1
-1
-1
-1
-1
-0.999999
-0.999998
-0.999957
-0.999056
-0.998823
-0.99875
-0.991781
-0.928812
-1
-1
-1
-1
-1
-1
-1
-1
-1
-1
-1
-1
-1
-0.999998
-0.999746
-0.999087
-0.998836
-0.993494
-0.935791
-1
-1
-1
-1
-1
-1
-1
-1
-1
-1
-1
-1
-1
-1
-0.999999
-0.999855
-0.99933
-0.99755
-0.952729
-1
-1
-1
-1
-1
-1
-1
-1
-1
-1
-1
-1
-1
-1
-1
-0.999992
-0.999771
-0.999594
-0.981342
)
;

boundaryField
{
    leftWall
    {
        type            zeroGradient;
    }
    rightWall
    {
        type            zeroGradient;
    }
    lowerWall
    {
        type            zeroGradient;
    }
    atmosphere
    {
        type            zeroGradient;
    }
    defaultFaces
    {
        type            empty;
    }
}


// ************************************************************************* //
