/*--------------------------------*- C++ -*----------------------------------*\
| =========                 |                                                 |
| \\      /  F ield         | foam-extend: Open Source CFD                    |
|  \\    /   O peration     | Version:     4.1                                |
|   \\  /    A nd           | Web:         http://www.foam-extend.org         |
|    \\/     M anipulation  |                                                 |
\*---------------------------------------------------------------------------*/
FoamFile
{
    version     2.0;
    format      ascii;
    class       volScalarField;
    location    "0.6";
    object      p;
}
// * * * * * * * * * * * * * * * * * * * * * * * * * * * * * * * * * * * * * //

dimensions      [1 -1 -2 0 0 0 0];

internalField   nonuniform List<scalar> 
2268
(
401.902
383.995
292.055
353.655
416.211
355.177
553.396
473.733
565.549
504.667
638.297
616.102
662.553
678.442
703.955
729.562
762.698
800.263
832.475
852.056
861.621
890.807
1466.11
327.719
391.899
225.659
293.467
353.163
292.418
506.806
411.307
509.357
440.78
560.211
566.147
600.213
621.841
646.816
673.517
702.12
743.587
769.972
788.615
808.275
826.498
854.454
283.478
1318.31
192.042
232.765
287.149
224.652
478.836
346.542
453.968
403.07
478.43
497.936
542.707
551.378
590.062
613.842
645.583
681.515
711.47
730.371
756.303
774.359
797.887
729.728
873.82
742.731
173.961
283.243
154.873
449.174
272.871
410.417
345.982
394.42
448.228
468.071
507.898
521.596
555.435
585.139
622.952
657.255
677.37
696.925
718.161
744.269
733.574
980.686
1304.37
165.094
1153.93
184.681
603.15
246.301
410.973
332.424
328.956
374.95
417.042
442.62
465.777
505.827
533.553
563.299
603.438
618.582
645.997
666.204
691.261
1595.22
1245.12
1624.46
620.341
932.738
686.499
1550.36
687.335
1341.9
869.866
328.503
340.633
395.362
427.995
452.118
464.019
475.317
504.225
536.653
561.685
588.257
616.227
643.522
1712.57
1008.03
1498.56
653.548
857.822
958.464
838.364
857.882
935.808
1730.97
675.555
272.575
393.562
434.517
461.774
451.309
438.728
449.471
489.716
507.709
531.848
571.821
590.008
1650.61
895.742
1579.1
820.424
897.11
1495.77
485.221
1423.98
436.466
1144.21
1473.59
449.678
406.852
474.367
536.454
398.849
385.601
408.44
424.505
459.164
582.209
548.825
548.598
2520.84
2558.8
2435.34
2295.31
2300.02
2294.78
2381.23
2162.84
2210.53
2495.74
2135.93
2179.11
2132.95
2160.34
2208.8
2527.42
2691.53
2680.33
2062.85
2320.76
2335.9
2206.7
2185.24
2333.84
2250.02
2267.68
2162.22
2113.75
2312.18
2083.91
1775.35
1729.14
1752.15
1789.59
2205.99
2635.59
2598.42
1845.64
1949.19
1583.7
1403.06
2137.94
2281.43
2194.15
2122.89
2165.58
2208.18
2300.01
2142.82
1808.44
1723.24
1821.29
1744.97
1862.47
2062.97
2435.08
1988.04
1632.33
997.36
1300.74
2190.29
2196.63
2116.9
1600.75
1459.57
2139.9
1805.76
1569.34
2100.46
1821.4
2131.07
1858.47
1768.61
1891.48
2120.39
2114.08
1580.73
835.5
759.253
1367.92
2161.48
1696.33
874.354
683.038
1379.53
1110.46
1400.05
1739.71
2224.57
2207.07
2146.03
1759.89
1743.05
2122.24
2212.42
1562
856.714
637.052
648.773
1533.38
733.234
587.217
543.341
616.645
790.176
1282.1
1388.24
1569.29
1963.05
2199.35
1933.71
1737.66
2148.35
2369.39
1545.16
854.057
617.818
623.767
668.844
555.459
486.623
532.132
746.63
1088.69
1636.22
1557.96
1589.73
1884.74
2177.01
2076.83
1914.84
1997.69
2577.92
1502.68
726.061
628.028
708.706
641.717
602.757
600.367
801.952
921.945
709.515
921.495
1456.85
1603.38
1785.58
2138.53
2148.31
1972.24
1958.77
2620.43
1580.5
806.173
1514.18
1501.15
268.063
721.885
135.346
610.744
192.208
918.544
1418.3
452.752
795.232
1056.4
836.611
632.301
557.224
475.551
485.414
615.442
1037.37
926.591
456.334
1444.24
586.605
1021.64
365.832
97.0042
129.653
48.348
91.8847
73.9779
207.678
1418.17
870.573
1133.86
1724.05
1667.21
1560.58
1423.05
1249.78
1375.47
1534.05
1711.78
1694.61
1213.55
1235.41
172.087
138.504
76.1451
48.047
46.3647
31.2653
37.3305
35.6782
44.1707
595.371
1629.6
1734.62
1510.31
1112.92
981.874
1237.86
1765.29
1810.8
1817.6
1856.66
1870.23
1779.54
1156.56
111.244
31.1557
29.9396
28.2055
21.7777
17.7794
18.2668
15.6274
32.2879
102.489
959.735
1206.81
495.752
265.334
263.796
406.204
836.8
1167.51
1646.68
1845.2
1843.36
1825.64
1224.68
167.949
19.0039
17.6369
19.9462
17.2585
14.307
7.02849
13.8717
13.4793
23.7581
115.062
340.426
113.475
96.8856
134.665
382.19
464.756
687.465
1082.51
1440.17
1425.74
1326.55
1326.57
357.144
10.0408
8.81696
12.2826
11.2169
9.45627
5.21572
4.81257
1.90814
8.27275
12.8985
40.501
61.2393
96.9834
89.9528
350.956
177.731
251.492
693.778
962.669
787.98
612.444
311.944
4.295
3.70816
4.45606
7.55278
8.12878
5.76332
1.31408
1.51681
-0.225539
1.13483
2.97167
9.66088
16.7676
16.609
12.0411
25.1601
9.42601
7.59209
206.692
220.443
94.1504
68.9952
0.675871
0.838551
1.55709
2.31731
2.91968
3.35104
3.58184
0.740713
0.61856
-0.204085
-0.280164
0.146206
3.77681
4.13042
3.88353
4.35484
2.81063
1.08613
-0.435746
8.31392
25.5106
12.7277
15.5208
-0.14801
-0.119331
-0.0507025
0.501618
0.995523
1.00685
0.0323377
-0.950685
-0.851035
-0.70739
-0.557306
0.672926
-0.680398
0.480009
0.725044
1.72477
0.517062
-0.218798
-0.517313
-0.21632
1.57643
2.68002
6.2454
-0.509599
-0.543548
-0.498099
-0.558642
-0.418192
0.044541
-0.964837
-1.00669
-1.082
-1.02689
-1.03629
-0.583973
-0.279941
-0.797353
-0.548017
-0.152175
-0.572961
-0.642539
-0.666477
-0.500306
-0.0867818
1.97901
10.1026
-0.803044
-0.852724
-0.814552
-0.832003
-0.819966
-1.06265
-0.94983
-1.44378
-1.23699
-1.20455
-1.10646
-0.846718
-0.687901
-1.01531
-0.660405
-0.889427
-1.08104
-1.049
-1.04012
-1.00228
-0.879907
-0.664185
-1.13655
-1.01523
-1.04843
-1.02827
-1.09901
-1.07316
-1.1906
-1.17465
-1.37074
-1.31166
-1.28103
-1.21395
-1.12811
-0.958169
-1.19001
-1.22126
-1.33688
-1.28072
-1.246
-1.26107
-1.27603
-1.29515
-1.31987
-1.42897
-1.19733
-1.21206
-1.2231
-1.24211
-1.25485
-1.32524
-1.30803
-1.35258
-1.3187
-1.47453
-1.48345
-1.61786
-1.48077
-1.69303
-1.61219
-1.50669
-1.50681
-1.46104
-1.46203
-1.4772
-1.48935
-1.52129
-1.57844
-1.38013
-1.37492
-1.38413
-1.40596
-1.41626
-1.43821
-1.47297
-1.52024
-1.50945
-1.45323
-1.57981
-1.48542
-1.57684
-1.63328
-1.62185
-1.70256
-1.6291
-1.62434
-1.60871
-1.62391
-1.62463
-1.64897
-1.6791
-1.54474
-1.54235
-1.55191
-1.56157
-1.57016
-1.59305
-1.60454
-1.626
-1.64879
-1.66877
-1.72538
-1.75229
-1.75972
-1.76775
-1.77242
-1.83984
-1.7583
-1.82414
-1.75975
-1.81684
-1.74552
-1.76114
-1.76429
-1.6944
-1.69983
-1.70979
-1.71011
-1.73545
-1.7361
-1.74029
-1.76546
-1.77946
-1.80077
-1.82721
-1.83676
-1.86726
-1.91829
-1.91999
-1.94084
-1.88859
-1.92091
-1.90086
-1.91975
-1.89297
-1.95249
-1.91728
-1.86258
-1.8675
-1.8706
-1.86991
-1.89321
-1.89471
-1.91833
-1.94075
-1.92871
-1.95993
-1.963
-1.96525
-1.97384
-2.04481
-2.06196
-2.0542
-2.04503
-2.07176
-2.02803
-2.09121
-2.05745
-2.06279
-2.00249
-2.01691
-2.0041
-2.02344
-2.02472
-2.04173
-2.04883
-2.06381
-2.09115
-2.09593
-2.10568
-2.12064
-2.1569
-2.1616
-2.19329
-2.21211
-2.17158
-2.18773
-2.18688
-2.21175
-2.21259
-2.18988
-2.21033
-2.22834
-2.18417
-2.18817
-2.17624
-2.19071
-2.19551
-2.2122
-2.22325
-2.23618
-2.23768
-2.26397
-2.26102
-2.29126
-2.28586
-2.33365
-2.33202
-2.34029
-2.33152
-2.36367
-2.33099
-2.34446
-2.37834
-2.3693
-2.34017
-2.34852
-2.34451
-2.34722
-2.33329
-2.35921
-2.37912
-2.36743
-2.38839
-2.3953
-2.4055
-2.41211
-2.41782
-2.46064
-2.46731
-2.46318
-2.45945
-2.48835
-2.491
-2.50336
-2.51998
-2.47245
-2.48254
-2.54391
-2.52268
-2.52521
-2.52372
-2.53155
-2.53424
-2.54137
-2.53407
-2.53736
-2.54666
-2.55521
-2.55647
-2.59062
-2.57588
-2.60344
-2.59841
-2.61547
-2.60253
-2.63545
-2.62178
-2.64231
-2.65441
-2.6365
-2.64708
-2.68445
-2.685
-2.68654
-2.68576
-2.68921
-2.689
-2.6898
-2.69078
-2.69861
-2.70942
-2.71705
-2.72092
-2.74191
-2.72608
-2.75232
-2.75196
-2.76458
-2.76384
-2.78352
-2.78928
-2.78395
-2.79853
-2.80323
-2.85704
-2.85879
-2.86022
-2.86901
-2.8637
-2.84673
-2.85635
-2.85855
-2.86259
-2.87249
-2.8736
-2.89141
-2.88206
-2.89236
-2.89089
-2.90608
-2.90599
-2.93517
-2.93847
-2.95084
-2.95042
-2.95685
-2.95254
-3.01753
-3.0253
-3.02554
-3.01403
-3.02599
-3.01727
-3.0181
-3.0149
-3.0188
-3.02156
-3.02673
-3.02851
-3.0375
-3.03177
-3.04204
-3.05022
-3.07495
-3.05316
-3.08837
-3.06648
-3.09279
-3.1074
-3.10392
-3.17933
-3.16932
-3.17047
-3.17002
-3.17223
-3.17962
-3.18323
-3.17957
-3.17672
-3.18153
-3.18321
-3.1905
-3.18952
-3.19741
-3.18839
-3.21022
-3.19559
-3.21232
-3.23397
-3.24498
-3.23948
-3.26128
-3.25867
-3.31461
-3.31561
-3.31576
-3.31532
-3.31729
-3.3194
-3.32038
-3.33188
-3.32742
-3.33427
-3.34399
-3.34632
-3.35252
-3.34014
-3.35589
-3.33896
-3.35108
-3.36565
-3.38679
-3.38168
-3.38449
-3.40662
-3.40213
-3.46606
-3.46453
-3.46487
-3.4656
-3.46641
-3.46956
-3.47021
-3.47403
-3.47369
-3.47892
-3.47947
-3.48821
-3.4883
-3.50985
-3.49339
-3.51532
-3.49219
-3.52964
-3.51604
-3.53305
-3.54738
-3.53993
-3.55611
-3.60821
-3.60869
-3.60801
-3.60975
-3.60942
-3.61216
-3.61221
-3.61852
-3.61772
-3.62442
-3.6249
-3.63088
-3.63512
-3.6388
-3.64557
-3.64513
-3.66339
-3.65836
-3.68195
-3.68661
-3.66867
-3.68675
-3.69394
-3.75692
-3.75694
-3.75683
-3.75792
-3.75731
-3.75924
-3.75884
-3.76387
-3.76325
-3.76777
-3.76264
-3.77413
-3.78111
-3.79112
-3.7999
-3.78767
-3.80802
-3.79203
-3.80708
-3.81707
-3.82039
-3.8379
-3.83089
-3.90081
-3.90128
-3.90053
-3.9018
-3.9013
-3.90238
-3.90219
-3.90874
-3.90756
-3.91423
-3.91341
-3.91864
-3.92384
-3.92898
-3.93572
-3.93615
-3.93533
-3.94577
-3.95286
-3.95667
-3.96279
-3.97682
-3.98686
-4.04826
-4.04854
-4.04809
-4.04878
-4.04582
-4.04185
-4.04048
-4.05335
-4.05421
-4.05974
-4.05995
-4.06522
-4.07044
-4.07763
-4.08833
-4.09782
-4.10537
-4.09714
-4.09876
-4.09704
-4.10598
-4.1097
-4.12255
-4.19314
-4.19384
-4.19301
-4.19473
-4.19377
-4.19733
-4.19494
-4.20062
-4.19879
-4.20487
-4.20491
-4.20686
-4.2119
-4.21763
-4.21937
-4.22604
-4.22038
-4.23566
-4.22432
-4.23966
-4.24207
-4.25729
-4.26316
-4.33989
-4.34034
-4.34
-4.34157
-4.34063
-4.3443
-4.34163
-4.34915
-4.35907
-4.36089
-4.35566
-4.35528
-4.35702
-4.36185
-4.36792
-4.37187
-4.3741
-4.37774
-4.3871
-4.38519
-4.39546
-4.38417
-4.39522
-4.48543
-4.48604
-4.48519
-4.48718
-4.48692
-4.49652
-4.491
-4.4904
-4.49161
-4.49253
-4.4946
-4.48762
-4.49774
-4.50316
-4.50645
-4.51234
-4.51887
-4.52422
-4.52534
-4.52593
-4.53973
-4.53743
-4.54341
-4.63112
-4.63162
-4.63097
-4.63296
-4.63117
-4.63387
-4.63282
-4.62705
-4.63808
-4.63944
-4.64223
-4.64153
-4.64114
-4.64634
-4.64975
-4.6549
-4.65946
-4.66435
-4.67729
-4.66943
-4.67518
-4.67817
-4.68804
-4.77747
-4.77774
-4.7761
-4.77695
-4.76763
-4.77826
-4.77883
-4.78029
-4.78152
-4.78123
-4.78613
-4.7852
-4.78737
-4.79079
-4.79348
-4.79699
-4.8033
-4.80652
-4.80925
-4.80794
-4.81489
-4.81747
-4.83119
-4.92234
-4.92259
-4.92312
-4.92314
-4.92401
-4.9242
-4.92553
-4.92468
-4.9287
-4.92762
-4.93618
-4.92958
-4.92193
-4.93048
-4.93326
-4.9375
-4.94434
-4.94762
-4.94918
-4.95479
-4.96196
-4.96711
-4.96691
-5.06995
-5.06953
-5.06963
-5.06871
-5.07
-5.0699
-5.07296
-5.07039
-5.07291
-5.06352
-5.07221
-5.07398
-5.07629
-5.07787
-5.07886
-5.07961
-5.08504
-5.08938
-5.08771
-5.10312
-5.09493
-5.09905
-5.09918
-5.21446
-5.21389
-5.2154
-5.21314
-5.21611
-5.21507
-5.21843
-5.21681
-5.21892
-5.21787
-5.21974
-5.21832
-5.21803
-5.21977
-5.22068
-5.22043
-5.22682
-5.22475
-5.22998
-5.23497
-5.23293
-5.24116
-5.24054
-5.36042
-5.35978
-5.36285
-5.35936
-5.36619
-5.36195
-5.37926
-5.36547
-5.36488
-5.36417
-5.36306
-5.36545
-5.36318
-5.36386
-5.36092
-5.3615
-5.36587
-5.36509
-5.36986
-5.37471
-5.36498
-5.36785
-5.37763
-5.51255
-5.50891
-5.50771
-5.49868
-5.50675
-5.50882
-5.51003
-5.51065
-5.50999
-5.50999
-5.51107
-5.51005
-5.51142
-5.51069
-5.50739
-5.50452
-5.50153
-5.5072
-5.50236
-5.50676
-5.51335
-5.52332
-5.50895
-5.63794
-5.64145
-5.65015
-5.65573
-5.65773
-5.64859
-5.65251
-5.65554
-5.6491
-5.6599
-5.64861
-5.65857
-5.65415
-5.65095
-5.65409
-5.65957
-5.65868
-5.66355
-5.66194
-5.66059
-5.6629
-5.65334
-5.66189
419.662
360.839
869.093
1001.44
685.011
391.956
457.876
800.741
1597.65
1241.87
1055.91
860.251
1851.5
1837.84
1836.42
1768.27
1293.14
1267.99
1281.09
1317.78
544.11
560.18
598.398
700.008
71.3659
91.6924
148.055
285.7
35.3851
75.8168
190.857
319.903
42.2125
92.9772
162.794
263.9
12.1678
12.3149
51.7162
127.778
-1.1878
-1.25527
0.873475
5.10719
-1.62485
-1.60151
-1.59326
-1.47554
-1.54365
-1.53082
-1.50952
-1.51289
-1.65009
-1.63865
-1.60485
-1.59084
-1.77554
-1.7407
-1.72798
-1.70541
-1.91009
-1.89698
-1.89161
-1.88325
-2.07934
-2.04386
-2.0572
-2.03887
-2.20022
-2.18311
-2.22425
-2.2035
-2.35738
-2.34572
-2.34913
-2.3411
-2.48874
-2.50905
-2.50429
-2.50135
-2.65623
-2.67775
-2.65564
-2.66828
-2.81984
-2.80188
-2.81057
-2.81464
-2.98104
-2.97004
-2.98154
-2.99286
-3.11973
-3.12033
-3.12318
-3.13771
-3.28111
-3.27012
-3.28174
-3.2861
-3.42517
-3.42508
-3.43034
-3.43328
-3.5493
-3.55794
-3.56177
-3.56341
-3.70487
-3.70362
-3.71133
-3.72018
-3.84169
-3.84753
-3.85215
-3.85716
-3.98767
-3.99043
-3.98894
-3.99403
-4.13081
-4.12838
-4.14102
-4.14189
-4.26852
-4.26847
-4.27511
-4.2755
-4.40876
-4.40536
-4.41614
-4.41191
-4.54739
-4.55524
-4.55833
-4.56026
-4.69096
-4.69224
-4.69357
-4.69323
-4.8284
-4.8308
-4.83169
-4.82792
-4.96638
-4.969
-4.96892
-4.97576
-5.10521
-5.10458
-5.10565
-5.1081
-5.24405
-5.24372
-5.24852
-5.24633
-5.37574
-5.38082
-5.38035
-5.38452
-5.51688
-5.51293
-5.52018
-5.51453
-5.66171
-5.6616
-5.65972
-5.66295
1297.03
1071.3
1005.63
1419.07
1473.57
1251.72
1409.3
1732.59
1960.82
1487.36
1570.74
1767.5
1840.13
1945.79
2117.8
2214.2
2010.74
1929.9
2465.47
1305.53
997.342
974.703
1225.82
1293.39
1208.8
1276.01
1363.69
1491.67
1417.51
1570.15
1821.99
1840.49
1655.7
1553.24
1745.31
1782.66
1797.39
2183.42
753.013
647.182
579.132
613.655
457.851
528.222
672.419
604.99
706.759
587.037
649.156
760.332
1421.49
1593.29
1929.63
2014.5
2153.7
2066.8
2103.24
1523.29
910.639
690.391
448.38
529.181
753.788
1027.14
760.68
688.978
970.63
1255.83
1647.41
1821.02
1445.97
1165.47
1163.62
1590.92
2044.39
1982.97
1528.54
1852.82
1190.37
529.583
845.352
1668.07
1795.18
1705.77
1726.77
1868.83
1769.65
1412.15
757.769
610.801
601.091
716.028
1238.47
1984.06
1912.24
1052.43
1623.18
1723.57
1291.32
1514.27
1840.08
1271.24
1615.39
1661.47
1792.17
1692.59
1188.24
532.011
367.119
354.408
413.508
940.741
1832.86
1795.87
685.232
1427.01
1817.28
1776
1594.07
815.712
836.82
992.457
1023.66
1102.44
869.031
412.947
205.957
147.621
236.583
343.3
920.798
1810.73
1727.11
787.053
1412.9
1441.47
1049.37
610.216
564.444
654.436
628.79
424.285
294.193
132.895
80.2453
61.6633
79.3066
129.146
254.971
1072.68
1726.25
1669.29
627.206
847.798
632.166
234.219
147.881
469.963
449.967
266.744
83.4077
30.5669
30.1377
41.0522
44.8521
52.4686
85.9444
227.212
1007.56
1708.11
1627.76
192.305
138.047
103.145
59.5322
16.3556
32.2737
63.0776
49.1518
43.9214
13.3776
16.2661
27.545
35.6656
51.3708
95.2196
269.724
1056.7
1717.15
1587.47
11.4491
3.73812
1.97958
3.00595
1.69874
2.89873
7.20651
4.58141
4.08451
3.56168
15.952
30.0411
46.8855
103.865
234.36
722.885
1490.27
1707.6
1547.85
-1.42763
-0.964866
-0.955177
-0.604493
0.0895763
0.337443
0.490631
4.01422
6.0415
11.0036
21.2039
25.8232
74.9773
184.488
376.957
1063.95
1710.42
1576.14
1500.15
-1.4328
-1.21946
-1.03397
-0.811934
-0.55368
0.0183691
0.398165
2.49761
7.59185
20.4295
48.9055
93.574
117.322
247.604
382.376
1073.9
1706.98
1466.06
1486.92
-1.5602
-1.36318
-1.45958
-1.45885
-1.10233
0.343665
0.15584
1.02038
5.90068
8.2072
54.6758
141.781
186.998
351.595
475.572
881.142
1658.26
1474.75
1494.71
-1.69534
-1.59608
-1.47213
-1.60515
-1.89641
-1.39293
-1.53841
-2.80461
-2.59285
-2.02588
-0.909464
10.2905
33.1032
141.447
428.434
994.796
1553.7
1539.56
1519.01
-1.85376
-1.81894
-1.79378
-1.88223
-2.17845
-2.34218
-2.5182
-2.51114
-2.99043
-2.61784
-2.63614
-1.56802
6.70768
36.09
252.03
1046.55
1471.22
1632.53
1571.09
-2.06923
-2.00633
-1.96293
-2.01217
-2.18827
-2.496
-2.76168
-2.96395
-2.92411
-3.0262
-2.70129
-2.57822
-1.69555
5.95968
107.681
896.764
1520.42
1664.98
1626.4
-2.23266
-2.19577
-2.31118
-2.31028
-2.34213
-2.47148
-2.72559
-2.86684
-2.93506
-2.89833
-2.87559
-2.75491
-2.88487
-2.53958
11.3193
490.563
1510.32
1617.54
1640.89
-2.37312
-2.3636
-2.39359
-2.47368
-2.62714
-2.53299
-2.75665
-2.81784
-2.78682
-2.89184
-2.87557
-2.85529
-2.79322
-2.606
-2.49598
37.2532
878.865
1610.98
1639.15
-2.53339
-2.53707
-2.59347
-2.62903
-2.67842
-2.76563
-2.84682
-2.87544
-2.99397
-2.92761
-2.91249
-2.91235
-2.90123
-2.77375
-2.13106
0.670296
47.1595
657.21
1508.81
-2.68521
-2.67251
-2.76585
-2.75139
-2.83077
-2.89824
-2.95091
-2.98273
-3.01121
-3.03461
-2.99393
-2.97311
-2.9352
-2.82238
-2.41115
-1.10655
2.27096
244.952
1338.06
-2.81807
-2.86595
-2.86958
-2.91914
-2.97993
-2.99166
-3.04672
-3.06021
-3.09748
-3.08941
-3.07064
-3.12259
-2.98574
-2.96634
-2.60687
-1.8752
0.560909
273.659
1394.36
-2.99404
-2.98751
-3.06581
-3.07883
-3.11329
-3.13945
-3.15037
-3.1975
-3.20143
-3.18226
-3.17038
-3.12421
-3.08116
-3.06461
-3.02673
-2.28261
3.58599
396.383
1494.25
-3.13674
-3.17922
-3.16094
-3.19662
-3.23195
-3.23946
-3.28369
-3.2749
-3.28578
-3.27064
-3.25924
-3.24521
-3.21799
-3.12111
-3.03875
-1.72825
74.9471
619.074
1575.95
-3.30646
-3.29676
-3.35432
-3.3345
-3.35988
-3.39383
-3.39232
-3.41442
-3.42453
-3.40788
-3.39424
-3.34613
-3.30422
-3.32286
-1.82844
7.499
175.324
973.608
1614.62
-3.43039
-3.4477
-3.46066
-3.48831
-3.52536
-3.50222
-3.53446
-3.52689
-3.53457
-3.49921
-3.49612
-3.44815
-3.45459
-3.18663
-1.36396
21.1474
188.077
1000.76
1639.76
-3.59191
-3.57486
-3.60859
-3.62434
-3.63605
-3.67578
-3.67099
-3.66772
-3.68228
-3.65375
-3.67005
-3.60623
-3.66321
-3.19144
-0.0558449
31.2108
245.892
953.382
1637.61
-3.719
-3.75363
-3.73439
-3.78691
-3.76846
-3.78843
-3.79672
-3.80718
-3.80536
-3.79898
-3.7919
-3.76887
-3.55314
-3.46901
0.901188
38.7987
279.751
966.047
1617.06
-3.86691
-3.8673
-3.89332
-3.90601
-3.91951
-3.92709
-3.93431
-3.92787
-3.93196
-3.95125
-3.93858
-4.01178
-3.78688
-3.1813
2.93882
43.269
283.022
1005.71
1601.5
-4.00349
-4.01426
-4.03334
-4.04879
-4.07724
-4.07126
-4.09175
-4.11154
-4.1263
-4.09652
-4.112
-4.14411
-4.1735
-3.76971
3.19399
40.2713
277.494
981.483
1581.97
-4.15368
-4.13856
-4.17629
-4.17736
-4.19218
-4.20365
-4.19868
-4.22765
-4.25241
-4.30091
-4.31838
-4.39092
-4.46765
-4.51608
-0.896485
22.9933
272.03
991.288
1538.5
-4.28886
-4.29396
-4.31557
-4.32435
-4.347
-4.3476
-4.37643
-4.35872
-4.40328
-4.44122
-4.47124
-4.56
-4.72426
-4.87758
-4.75124
-1.154
138.691
927.212
1436.59
-4.4299
-4.43466
-4.46207
-4.44042
-4.47389
-4.4813
-4.49121
-4.51766
-4.53762
-4.55546
-4.60656
-4.64993
-4.84427
-4.85529
-5.38538
-5.42412
11.0258
464.855
1141.52
-4.57138
-4.57376
-4.58612
-4.6079
-4.60962
-4.61853
-4.63021
-4.64539
-4.6602
-4.7088
-4.72863
-4.76963
-4.92863
-4.88207
-5.02517
-5.00086
-4.7919
56.4704
382.665
-4.70399
-4.69761
-4.72442
-4.72274
-4.73911
-4.75019
-4.76245
-4.78547
-4.79307
-4.82515
-4.86268
-4.85733
-4.99873
-4.89756
-5.01918
-4.94759
-4.88179
1.37959
110.312
-4.84058
-4.84557
-4.84993
-4.86202
-4.87578
-4.86918
-4.89748
-4.91044
-4.9267
-4.94117
-4.98835
-4.98744
-5.10716
-5.05188
-5.12721
-5.13003
-5.16997
-3.62505
38.261
-4.97799
-4.98203
-4.99433
-5.00091
-5.00976
-5.02168
-5.02555
-5.04015
-5.05398
-5.06355
-5.09173
-5.09301
-5.18759
-5.06072
-5.23102
-5.27176
-5.00829
-4.68662
30.8422
-5.111
-5.11365
-5.12613
-5.12052
-5.1417
-5.14158
-5.15682
-5.15979
-5.18528
-5.18144
-5.2355
-5.21032
-5.28268
-5.30192
-5.36002
-5.20303
-5.18776
-4.68777
31.6391
-5.25199
-5.26521
-5.26206
-5.27689
-5.26918
-5.28064
-5.28746
-5.29128
-5.30444
-5.31047
-5.33834
-5.36051
-5.37458
-5.37531
-5.46255
-5.4773
-5.22498
-5.24265
28.2955
-5.3862
-5.39135
-5.40182
-5.3968
-5.40398
-5.40768
-5.41456
-5.41941
-5.42419
-5.4309
-5.45937
-5.42422
-5.48146
-5.41614
-5.54604
-5.34502
-5.37198
-5.96523
21.0465
-5.52401
-5.51506
-5.5298
-5.52206
-5.53463
-5.53646
-5.54542
-5.54014
-5.5583
-5.55145
-5.61318
-5.58116
-5.71315
-5.63374
-5.72892
-5.7172
-5.82225
-7.84056
1.69236
-5.65561
-5.66779
-5.66135
-5.66736
-5.66464
-5.66546
-5.66397
-5.67378
-5.6768
-5.69398
-5.66217
-5.73035
-5.66492
-5.71588
-5.77821
-6.07988
-6.15591
-9.37224
-20.4294
)
;

boundaryField
{
    leftWall
    {
        type            calculated;
        value           nonuniform List<scalar> 
50
(
401.902
327.719
283.478
729.728
733.574
1595.22
1712.57
1650.61
1580.5
1444.24
1235.41
1156.56
1224.68
1326.57
311.944
0.675871
-0.14801
-0.509599
-0.803044
-1.01523
-1.19733
-1.38013
-1.54474
-1.6944
-1.86258
-2.01691
-2.18417
-2.34852
-2.52268
-2.68445
-2.85704
-3.01753
-3.17933
-3.31461
-3.46606
-3.60821
-3.75692
-3.90081
-4.04826
-4.19314
-4.33989
-4.48543
-4.63112
-4.77747
-4.92234
-5.06995
-5.21446
-5.36042
-5.51255
-5.63794
)
;
    }
    rightWall
    {
        type            calculated;
        value           nonuniform List<scalar> 
50
(
2062.85
1845.64
1988.04
2114.08
2212.42
2369.39
2577.92
2620.43
2465.47
2183.42
2103.24
1982.97
1912.24
1795.87
1727.11
1669.29
1627.76
1587.47
1547.85
1500.15
1486.92
1494.71
1519.01
1571.09
1626.4
1640.89
1639.15
1508.81
1338.06
1394.36
1494.25
1575.95
1614.62
1639.76
1637.61
1617.06
1601.5
1581.97
1538.5
1436.59
1141.52
382.665
110.312
38.261
30.8422
31.6391
28.2955
21.0465
1.69236
-20.4294
)
;
    }
    lowerWall
    {
        type            calculated;
        value           nonuniform List<scalar> 
62
(
431.331
413.324
321.476
383.083
445.64
384.607
582.825
503.162
594.978
534.092
667.721
645.527
691.978
707.868
733.383
758.99
792.127
829.692
861.904
881.483
891.018
919.845
1482.84
1466.11
854.454
797.887
744.269
691.261
643.522
590.008
548.598
479.836
421.542
922.17
1009.69
2520.84
2320.76
1949.19
1632.33
1580.73
1562
1545.16
1502.68
2532.45
2573.81
2451.3
2311.45
2316.17
2310.75
2396.96
2178.48
2226.12
2511.94
2153.35
2197.57
2152.06
2179.54
2227.83
2545.19
2708.31
2692.57
2070.65
)
;
    }
    atmosphere
    {
        type            calculated;
        value           nonuniform List<scalar> 
46
(
-5.72905
-5.72913
-5.72999
-5.73066
-5.73044
-5.72934
-5.72929
-5.72939
-5.72928
-5.72914
-5.72924
-5.72915
-5.72971
-5.7291
-5.72904
-5.72904
-5.72904
-5.72904
-5.72904
-5.72904
-5.72904
-5.72904
-5.72904
-5.72904
-5.72904
-5.72904
-5.72904
-5.72904
-5.72904
-5.72904
-5.72904
-5.72904
-5.72911
-5.72961
-5.73396
-5.73605
-5.74334
-5.75208
-5.77356
-5.80137
-5.80227
-5.89501
-5.94765
-6.36119
-6.85335
-58.4299
)
;
    }
    defaultFaces
    {
        type            empty;
    }
}


// ************************************************************************* //
