/*--------------------------------*- C++ -*----------------------------------*\
| =========                 |                                                 |
| \\      /  F ield         | foam-extend: Open Source CFD                    |
|  \\    /   O peration     | Version:     4.1                                |
|   \\  /    A nd           | Web:         http://www.foam-extend.org         |
|    \\/     M anipulation  |                                                 |
\*---------------------------------------------------------------------------*/
FoamFile
{
    version     2.0;
    format      ascii;
    class       volScalarField;
    location    "0.6";
    object      pd;
}
// * * * * * * * * * * * * * * * * * * * * * * * * * * * * * * * * * * * * * //

dimensions      [1 -1 -2 0 0 0 0];

internalField   nonuniform List<scalar> 
2268
(
431.331
413.324
321.476
383.083
445.64
384.607
582.825
503.162
594.978
534.092
667.721
645.527
691.978
707.868
733.383
758.99
792.127
829.692
861.904
881.483
891.018
919.845
1482.84
415.933
475.649
313.506
381.721
441.413
380.693
595.084
499.574
597.621
528.984
648.439
654.387
688.464
710.099
735.087
761.792
790.402
831.872
858.259
876.901
896.561
914.743
941.647
428.237
1413.1
333.18
379.436
433.397
371.516
625.795
493.426
600.898
549.871
625.302
644.872
689.618
698.328
737.103
760.94
792.706
828.651
858.612
877.514
903.439
921.325
943.789
898.161
920.764
905.811
375.806
478.787
357.744
652.854
477.174
614.749
550.697
599.449
652.826
672.454
712.608
726.662
760.931
790.806
828.768
863.172
883.351
902.897
923.955
948.607
947.538
1046.86
1482.34
419.092
1339.5
432.6
844.29
500.359
664.468
591.691
590.402
634.97
676.996
702.214
726.293
768.158
796.8
827.466
867.965
883.34
910.772
930.825
954.026
1789.52
1341.95
1777.19
884.975
1005.98
946.774
1719.7
946.68
1551.55
1129.9
630.602
654.128
708.131
738.178
762.613
778.168
793.381
825.648
859.141
884.93
911.688
939.556
964.609
1908.13
1104.97
1656.65
951.244
943.431
1247.49
922.483
1143.27
1020.17
1928.7
996.969
637.15
754.451
792.945
817.991
816.194
809.093
826.217
868.714
888.123
911.346
953.051
969.926
1873.64
999.436
1788.47
1138.4
1001.14
1673.85
552.606
1631.42
493.612
1265.68
1757.67
845.147
810.541
872.696
932.751
817.025
810.249
840.001
857.723
889.589
994.488
976.313
986.233
2532.45
2573.81
2451.3
2311.45
2316.17
2310.75
2396.96
2178.48
2226.12
2511.94
2153.35
2197.57
2152.06
2179.54
2227.83
2545.19
2708.31
2692.57
2070.65
2352.21
2370.68
2239.83
2222.51
2381.66
2297.91
2313.27
2210.77
2164.84
2364.68
2139.93
1836.26
1793.31
1816.16
1853.17
2265.99
2685.99
2633.5
1865.91
1993.49
1618.87
1433.49
2197.01
2357.72
2265.16
2182.12
2230.96
2279.63
2370.73
2199.07
1909.09
1827.85
1923.18
1851.01
1970.22
2167.62
2529.68
2026.01
1682.73
1024.65
1340.57
2276.59
2299.02
2209.5
1657.62
1511.71
2229.31
1868.56
1620.87
2223.89
1960.36
2254.22
1999.97
1921.49
2044.49
2264.92
2173.84
1644.54
862.25
780.561
1426.77
2280.79
1780.95
911.26
707.915
1442.29
1157.08
1459.18
1818.06
2357.98
2334.6
2303.13
1950.49
1940.04
2305.82
2295.54
1639.91
891.261
648.779
662.438
1619.55
769.121
610.69
560.55
639.791
827.54
1350.42
1464.83
1656.36
2082.66
2373.05
2152.9
1976.24
2372.05
2483.98
1636.95
895.116
626.889
636.319
694.839
576.157
499.697
550.827
787.013
1155.58
1743.98
1659.83
1694.19
2021.13
2366.57
2319.41
2188.63
2273.94
2743.53
1606.39
760.013
641.629
739.21
669.943
630.815
636.763
856.171
983.269
754.04
988.746
1568.48
1726.77
1936.4
2346.83
2416.05
2279.18
2279.93
2848.34
1859.9
924.375
1760.64
1715.86
321.05
826.974
173.681
702.586
233.602
1044.38
1739.87
915.253
1230.62
1468
1270.22
1089.7
1026.17
960.659
971.14
1085.6
1463.29
1365.15
961.96
1805.33
710.367
1196.69
446.25
131.06
172.644
72.7322
124.116
99.1211
266.76
1694.14
1376.36
1606.28
2093
2047.97
1955.5
1863.88
1717.7
1834.61
1974.21
2131.9
2115.24
1711.06
1535.23
241.107
196.95
114.663
75.8421
73.5512
51.0482
56.6287
53.3568
70.7244
736.77
2023.85
2145.35
1805.17
1324.66
1174.51
1466.94
2149.54
2211.32
2229.08
2287.64
2300.53
2251.1
1501.96
171.951
57.5291
54.5018
50.5111
39.7508
32.0264
31.7611
29.9275
55.3564
156.409
1192.85
1474.42
634.254
356.332
354.702
525.131
1027.16
1411.51
2010.18
2283.95
2284.81
2274.99
1666.32
254.302
38.5862
38.635
39.9981
35.1512
28.8958
21.0362
29.001
30.1316
47.4384
179.612
466.952
179.89
156.42
209.286
516.282
615.717
879.147
1353.26
1783.92
1766.92
1644.26
1874.7
512.765
27.5556
24.549
30.088
29.4571
26.1816
18.9292
16.4714
9.41832
21.9639
33.2338
84.77
114.077
166.255
158.362
499.96
276.981
379.897
919.928
1243.77
1035.37
820.289
472.006
16.5932
14.0632
16.6398
22.3371
24.935
22.1113
13.5415
11.2795
3.21946
8.60477
17.7009
29.9133
46.6491
47.609
37.2667
63.8257
33.559
33.4846
330.508
341.374
166.766
128.681
7.22797
6.62424
9.38828
12.166
14.4557
18.0651
18.9127
12.0972
8.89901
2.21088
3.16477
7.70349
16.7611
20.5098
18.7722
18.4873
16.94
10.5164
7.25204
33.895
67.3072
34.6158
43.5835
2.62972
2.77051
3.90291
8.44244
10.4738
12.2088
11.9758
8.55977
3.79579
1.39727
2.39779
5.9396
6.72523
12.5401
14.1387
14.2269
9.8538
5.20354
3.47364
5.46459
11.0516
13.8058
30.6935
1.83411
1.75486
2.04428
4.25358
6.4907
7.91394
6.94971
5.12209
2.00441
0.93806
1.28455
3.68756
4.46364
5.41909
8.47495
8.66357
5.39205
2.90025
2.29173
3.28271
4.64107
16.3715
42.2873
1.35198
1.17179
1.24512
1.95283
2.82457
3.28885
4.11074
2.37669
1.07039
0.677652
0.958815
2.92036
3.23969
4.22113
7.81119
4.94909
1.87936
1.78173
1.4951
1.68153
3.44494
7.96424
7.40707
1.10226
0.954981
0.952254
0.987763
1.11741
1.26959
1.78881
1.09211
0.739062
0.669089
0.821469
2.3817
2.39013
3.16332
4.51106
1.97509
1.26779
1.29204
1.00219
0.947822
1.28261
2.60711
2.45145
0.942131
0.857789
0.840339
0.805889
0.788945
0.773963
0.794656
0.703263
0.719429
0.573247
0.608988
1.73615
1.27493
1.88559
1.64951
1.19935
0.956555
0.949121
0.68583
0.62295
0.660522
0.913169
0.956373
0.824606
0.794601
0.787089
0.755761
0.744806
0.722872
0.688252
0.640827
0.651845
0.722169
0.667912
2.69489
0.878427
1.00325
1.00856
0.766371
0.723573
0.690029
0.599417
0.550135
0.543559
0.536201
0.511384
0.751714
0.74552
0.736289
0.72477
0.716038
0.693161
0.681662
0.660205
0.638016
0.633543
0.607813
0.988812
0.617723
0.647966
0.658713
0.521029
0.575169
0.504823
0.566134
0.482546
0.541459
0.525705
0.523081
0.720268
0.711979
0.702027
0.701308
0.675933
0.675292
0.671093
0.64594
0.633362
0.637153
0.621534
0.892465
0.579875
0.530322
0.502753
0.474435
0.526565
0.492707
0.51251
0.492114
0.518597
0.459042
0.494355
0.674462
0.669166
0.666067
0.666674
0.643369
0.641866
0.618251
0.59585
0.608214
0.579832
0.586848
0.585155
0.565039
0.494138
0.476241
0.482572
0.491793
0.464877
0.5086
0.445396
0.479157
0.473812
0.534133
0.644915
0.65769
0.638352
0.637058
0.620048
0.612945
0.597969
0.57064
0.566235
0.558961
0.545799
0.507563
0.500276
0.468584
0.449862
0.490212
0.474053
0.474896
0.450023
0.449184
0.4719
0.451453
0.433445
0.602796
0.598797
0.610737
0.596257
0.591463
0.574768
0.563717
0.550792
0.549292
0.522998
0.525949
0.49571
0.501106
0.453327
0.454961
0.446687
0.455454
0.423297
0.455977
0.442504
0.408632
0.417667
0.446798
0.563644
0.567657
0.564948
0.57887
0.552954
0.533047
0.54473
0.523773
0.516863
0.506663
0.500057
0.494339
0.451521
0.444855
0.448985
0.452718
0.423814
0.421163
0.408799
0.392186
0.439709
0.429618
0.368254
0.51468
0.512144
0.51364
0.505812
0.503118
0.495987
0.50329
0.500001
0.490701
0.482151
0.48089
0.446741
0.461474
0.433917
0.438943
0.42189
0.434829
0.401912
0.415574
0.395053
0.382946
0.400856
0.390283
0.478102
0.477553
0.476015
0.476794
0.473339
0.473553
0.472751
0.471769
0.463946
0.45313
0.4455
0.441634
0.420641
0.436471
0.410236
0.410593
0.397976
0.398713
0.379036
0.373273
0.378602
0.364025
0.359319
0.430706
0.428956
0.427528
0.418736
0.424049
0.441013
0.431401
0.429192
0.425154
0.415254
0.414151
0.396338
0.405685
0.395386
0.396856
0.38167
0.381756
0.352579
0.34928
0.336907
0.33733
0.330892
0.335204
0.395414
0.387639
0.387404
0.398912
0.386951
0.395671
0.394839
0.398037
0.39414
0.391384
0.386212
0.38443
0.375446
0.381174
0.370898
0.362722
0.337995
0.35978
0.324571
0.346457
0.320155
0.305539
0.30902
0.358803
0.368813
0.367671
0.368118
0.365907
0.358516
0.354908
0.358568
0.361421
0.356611
0.354925
0.347635
0.348616
0.340728
0.349746
0.327918
0.342541
0.325813
0.304168
0.293152
0.298656
0.276861
0.279469
0.348719
0.347716
0.347568
0.348013
0.346044
0.343935
0.342953
0.331448
0.335906
0.329055
0.319338
0.317011
0.310813
0.323192
0.307442
0.324366
0.31225
0.297676
0.276544
0.281655
0.278836
0.256708
0.261201
0.322465
0.323995
0.323655
0.322925
0.322117
0.318964
0.318318
0.314497
0.314835
0.309607
0.309059
0.300319
0.300223
0.278672
0.295133
0.273209
0.296335
0.258887
0.272488
0.255473
0.241143
0.248599
0.232415
0.305508
0.305026
0.30571
0.303974
0.304297
0.301562
0.301508
0.295201
0.296003
0.289295
0.28882
0.282836
0.278602
0.274922
0.268149
0.268592
0.250326
0.25536
0.231768
0.22711
0.245046
0.226967
0.219777
0.281996
0.281977
0.282086
0.280997
0.281605
0.279672
0.280079
0.275043
0.275666
0.271148
0.276272
0.264789
0.257804
0.247792
0.239011
0.251241
0.230894
0.24688
0.231835
0.221848
0.218521
0.201011
0.208028
0.2633
0.262829
0.26358
0.262312
0.262813
0.261731
0.261915
0.255372
0.256552
0.249875
0.250697
0.245473
0.240265
0.235129
0.228384
0.227962
0.228775
0.218335
0.211252
0.207436
0.201315
0.187289
0.177253
0.241043
0.240767
0.241212
0.240519
0.24348
0.247453
0.248822
0.235954
0.235098
0.22956
0.22935
0.22408
0.218867
0.211675
0.200976
0.191482
0.183931
0.192162
0.190539
0.192267
0.183319
0.179605
0.166753
0.221354
0.220653
0.221488
0.219765
0.22073
0.217163
0.219556
0.213876
0.21571
0.209628
0.209584
0.207635
0.202599
0.196866
0.195128
0.188459
0.194114
0.178838
0.190176
0.174833
0.172432
0.157212
0.151342
0.199799
0.199351
0.199694
0.198125
0.199061
0.195389
0.198064
0.190538
0.18062
0.178806
0.184033
0.184408
0.182677
0.177839
0.171772
0.167825
0.165592
0.161949
0.152588
0.154502
0.144229
0.155522
0.144472
0.179459
0.178843
0.179696
0.177702
0.177965
0.168364
0.173883
0.174489
0.173274
0.172361
0.170284
0.177262
0.167148
0.161731
0.158441
0.152546
0.146013
0.140663
0.139542
0.138954
0.125153
0.12746
0.121481
0.15896
0.158462
0.159111
0.157123
0.158913
0.156207
0.157265
0.16303
0.152003
0.150637
0.147853
0.148554
0.148943
0.143736
0.140327
0.135181
0.13062
0.12573
0.112795
0.120649
0.114905
0.111914
0.102039
0.137803
0.137537
0.139179
0.13833
0.147648
0.137015
0.136447
0.134986
0.133752
0.134048
0.129145
0.130077
0.127909
0.124481
0.121793
0.118282
0.111971
0.108757
0.106029
0.10734
0.100388
0.0978013
0.084082
0.118129
0.117881
0.117351
0.117332
0.116464
0.116273
0.114945
0.11579
0.111775
0.11285
0.104293
0.110894
0.118536
0.109995
0.10721
0.102968
0.096133
0.0928456
0.0912863
0.0856792
0.0785141
0.0733642
0.0735577
0.0957104
0.0961362
0.0960341
0.0969538
0.0956658
0.0957672
0.0927071
0.0952742
0.0927516
0.10214
0.0934513
0.0916836
0.0893728
0.0877989
0.0868093
0.0860514
0.0806256
0.0762863
0.0779588
0.0625494
0.0707373
0.0666105
0.0664827
0.0763971
0.076971
0.075463
0.0777158
0.0747453
0.0757892
0.0724275
0.0740483
0.0719394
0.0729842
0.0711224
0.0725425
0.0728328
0.071086
0.0701742
0.0704246
0.0640414
0.0661134
0.0608825
0.055892
0.0579269
0.0496974
0.0503147
0.0556311
0.0562777
0.0532005
0.0566945
0.0498616
0.0541033
0.036792
0.0505862
0.0511746
0.0518879
0.0529915
0.0506029
0.0528728
0.0521965
0.0551367
0.0545558
0.050183
0.0509673
0.0461933
0.0413426
0.0510778
0.0482054
0.0384281
0.0287012
0.0323416
0.0335346
0.0425666
0.0345
0.0324285
0.0312227
0.0306019
0.0312612
0.0312588
0.0301753
0.0311981
0.029824
0.0305561
0.0338542
0.0367317
0.0397194
0.0340432
0.0388869
0.0344871
0.027901
0.0179315
0.0323017
0.0284977
0.0249899
0.0162892
0.0107098
0.00871096
0.0178566
0.0139299
0.0109008
0.017343
0.00654328
0.0178299
0.00787726
0.0122932
0.0154954
0.0123535
0.00687281
0.00776051
0.00289338
0.00450439
0.00585153
0.0035448
0.0130999
0.00455175
932.473
878.165
1321.43
1071.76
1247.88
1007.58
1060.92
1359.42
2117.12
1820.63
1674.31
1506.42
2315.44
2308.59
2321.58
2292.13
1604.22
1573.08
1586.72
1629.63
734.314
753.693
798.287
921.523
135.683
168.191
250.535
433.58
84.0966
152.357
318.013
488.842
103.632
188.585
291.932
431.729
51.4625
54.6411
130.048
249.154
6.44471
8.48724
19.2627
33.2539
0.875553
0.909627
1.32132
2.40294
0.592016
0.597426
0.720327
0.841907
0.525115
0.554422
0.608486
0.638433
0.513841
0.550486
0.564359
0.58822
0.501391
0.5146
0.520096
0.528693
0.457268
0.492795
0.479496
0.497911
0.461563
0.478672
0.437539
0.458312
0.429593
0.441247
0.437846
0.445872
0.423423
0.403114
0.407877
0.410817
0.381126
0.35961
0.381718
0.369074
0.342715
0.360676
0.351987
0.347912
0.306705
0.317708
0.306209
0.294884
0.29321
0.292613
0.289759
0.27523
0.257029
0.268014
0.256393
0.252038
0.238156
0.238253
0.232994
0.230054
0.239222
0.230586
0.22675
0.225118
0.208845
0.210102
0.20239
0.193536
0.197228
0.19138
0.18676
0.181753
0.176441
0.173678
0.175164
0.170076
0.158489
0.160924
0.148279
0.147415
0.145973
0.146032
0.139387
0.138998
0.130933
0.134327
0.123551
0.127783
0.117496
0.109648
0.106561
0.104623
0.0991243
0.0978455
0.0965155
0.0968469
0.0868795
0.0844778
0.0835871
0.0873552
0.0740932
0.0714675
0.0715461
0.0647143
0.0604562
0.0610798
0.0600147
0.0575653
0.0468108
0.0471378
0.0423345
0.0445269
0.0403155
0.0352361
0.0357034
0.031532
0.0243654
0.0283157
0.0210679
0.0267166
0.00473156
0.00484597
0.00671812
0.00349649
1397.29
1158.85
1093.88
1554.4
1622.14
1380.75
1554.11
1904.7
2153.04
1634.18
1718.04
1935.49
2016.94
2152.39
2396.3
2530.17
2370.4
2314.98
2787.33
1803.13
1536.37
1529.31
1759.85
1808.75
1735.56
1802.98
1879.35
1998.42
1896.79
2044.53
2258.15
2265.95
2102.37
2017.23
2201.16
2248.01
2277.47
2612.53
1416.48
1340.3
1291.39
1335.68
1179.73
1247.2
1387.63
1324.34
1423.86
1295.22
1338.79
1398.78
1999.94
2120.14
2371.17
2340.19
2518.3
2567.2
2598.9
2140.58
1652.51
1475.53
1266.95
1338.7
1523.86
1759.59
1531.22
1450.85
1716.82
1943.92
2280.95
2246.26
1732.32
1381.45
1375.58
1879.11
2557.59
2546.63
1888.06
2411.6
1975.68
1420.7
1678.31
2312.45
2319.64
2330.93
2357.21
2477.78
2231.83
1749.42
956.895
780.155
752.873
889.552
1507.32
2492.06
2539.49
1347.89
2066.74
2417.44
2099.22
2274.12
2395.26
1618.57
2030.94
2137.56
2319.14
2179.03
1508.07
708.947
498.736
474.122
542.446
1188.82
2408.29
2497.29
939.692
1865.79
2462.88
2431
2073.19
1095.69
1114.76
1301.72
1352.48
1451.48
1161.74
583.917
311.696
227.577
334.97
471.801
1197.82
2450.78
2504.76
1095.56
1893.52
1911.19
1416.38
851.988
790.787
917.291
875.507
626.182
454.955
228.744
146.712
112.193
134.103
204.07
380.905
1430.72
2446.97
2526
911.447
1196.15
914.458
381.092
263.503
702.869
674.332
428.309
169.748
74.9012
66.3785
80.513
81.6433
89.4751
144.635
352.546
1382.65
2518.26
2566.56
345.364
263.974
209.028
136.979
53.829
86.2958
142.61
119.961
111.003
38.5402
37.17
58.3349
69.0786
96.0069
166.616
428.17
1483.77
2608.64
2608.71
50.678
27.172
19.3218
20.9369
11.3945
15.7077
28.4838
19.7324
17.0231
18.7397
42.3943
68.3223
100.386
198.625
396.917
1066.36
2122.07
2696.01
2651.89
3.22794
3.11939
2.64028
3.1992
4.46541
5.8696
6.15456
15.1755
24.6752
36.8658
60.0948
77.5007
157.19
336.375
615.859
1554.56
2581.65
2700.3
2684.62
0.975619
1.1848
1.46001
2.3954
4.26361
8.44684
13.5946
22.4494
40.6869
74.6
133.634
207.33
252.691
445.343
640.729
1608.69
2685.02
2701.46
2747.99
0.67571
0.854869
0.857743
1.3825
3.16876
8.73656
14.8291
24.5252
42.1379
57.0954
155.616
303.818
374.15
617.595
794.941
1379.16
2638.89
2786.11
2826.04
0.600476
0.712104
0.902021
1.0243
1.61024
5.22225
9.16855
10.6014
10.674
10.1943
19.7424
57.3031
109.113
317.369
759.276
1580.91
2470.22
2905.51
2903.07
0.558996
0.598909
0.66063
0.730969
1.05753
2.40849
3.3287
3.62134
3.20983
2.9656
3.94756
15.7448
45.0622
122.855
508.069
1695.08
2396.03
2998.57
2977.66
0.467776
0.531802
0.583743
0.583477
0.636349
0.804581
1.02958
1.28333
1.53863
1.08848
1.98242
7.08146
15.5178
52.6571
284.157
1528.56
2531.05
2968.84
3010.15
0.42919
0.466251
0.352255
0.362132
0.36938
0.326011
0.308769
0.343957
0.467197
0.353726
0.356013
1.10525
1.86252
6.27597
82.1143
928.352
2595.09
2902.83
3006.82
0.41386
0.423427
0.393651
0.314974
0.165423
0.274407
0.10891
0.10034
0.159576
0.129521
0.116458
0.201792
1.09763
4.66348
13.3174
150.967
1582.35
2795.34
3005.35
0.37877
0.375103
0.318743
0.283508
0.234664
0.149461
0.078434
0.0620424
-0.0363417
0.05446
0.079529
0.106754
0.37546
2.70716
9.39037
31.0295
172.455
1222.42
2802.8
0.352144
0.364849
0.271524
0.286062
0.206798
0.139892
0.0889803
0.0617616
0.0412331
0.0301857
0.0822406
0.120374
0.33679
2.07831
7.82455
17.4973
39.4906
577.379
2648.84
0.344482
0.296601
0.292972
0.243422
0.182671
0.171118
0.116435
0.10426
0.0696551
0.0793225
0.102891
0.0611167
0.361872
1.69339
7.72541
17.857
37.8155
644.955
2730.07
0.293709
0.300235
0.221934
0.208914
0.174467
0.148344
0.137469
0.0906323
0.0872954
0.106237
0.120613
0.248451
0.790409
2.53303
8.12106
17.9547
53.9607
872.704
2877.26
0.276205
0.233722
0.252006
0.216324
0.18099
0.173492
0.12927
0.138119
0.127492
0.144617
0.181977
0.363627
1.06953
4.72816
11.0476
31.0937
270.053
1262.94
3017.12
0.231676
0.241378
0.183815
0.203636
0.178256
0.144304
0.145818
0.123728
0.113723
0.131518
0.156485
0.288212
1.07274
6.29244
21.0637
79.5032
485.273
1876.34
3113.06
0.232938
0.21563
0.202666
0.175022
0.137969
0.16111
0.128868
0.136469
0.128992
0.166765
0.188483
0.390271
1.32107
7.00179
32.7474
130.724
515.339
1937.28
3186.24
0.196616
0.213667
0.179936
0.164182
0.152471
0.11275
0.117542
0.120873
0.106954
0.139895
0.145561
0.379561
1.6754
8.91584
43.871
171.626
639.357
1888.94
3211.42
0.194715
0.160085
0.17933
0.126808
0.145261
0.125285
0.117
0.106556
0.108609
0.118273
0.157212
0.435595
2.28152
9.81161
50.9924
200.799
717.938
1936.59
3204.89
0.172001
0.171619
0.145597
0.132901
0.119406
0.111827
0.104608
0.111047
0.106981
0.0896563
0.159215
0.522718
3.85288
15.8481
65.2378
220.524
741.308
2041.17
3206.84
0.160618
0.149852
0.130772
0.115318
0.0868663
0.0928498
0.0723552
0.0525647
0.0378224
0.0678183
0.060639
0.281724
3.12393
16.8544
69.6391
218.889
745.883
2032.41
3196.27
0.135625
0.150739
0.113017
0.111941
0.097118
0.0856506
0.0906216
0.0616534
0.0369015
-0.0115478
-0.0281184
-0.0429181
0.798513
9.89188
48.9661
172.94
753.614
2087.76
3135.77
0.125633
0.120537
0.098928
0.0901511
0.0674976
0.066899
0.0380704
0.0557838
0.0112518
-0.0266261
-0.056303
-0.137169
-0.23361
0.0118069
13.1584
67.2094
484.847
2004.53
2964.91
0.109794
0.105028
0.0776176
0.0992713
0.0658055
0.0583896
0.0484836
0.0220352
0.0021375
-0.0154351
-0.065566
-0.0973455
-0.246659
-0.0529033
0.0580276
7.87081
123.854
1174.45
2415.88
0.0935045
0.0911279
0.0787636
0.0569914
0.0552699
0.0463536
0.0346773
0.0194983
0.00477585
-0.0429834
-0.0596091
-0.0760862
-0.0693963
1.03076
0.855442
0.764167
12.2417
286.025
1011.41
0.0860887
0.0924676
0.0656596
0.0673406
0.0509689
0.0398905
0.0276264
0.00461494
-0.00287309
-0.0337189
-0.0640335
-0.0303449
-0.0556057
0.78587
1.81349
1.57273
2.44669
80.1107
439.509
0.0746964
0.0697039
0.0653476
0.05326
0.0395005
0.0460946
0.0177986
0.00484207
-0.0112785
-0.0247511
-0.0633708
-0.0197846
0.0252349
1.32102
2.59373
1.68256
2.13687
37.1608
240.687
0.0624791
0.0584444
0.046142
0.0395635
0.0307124
0.0187866
0.0149193
0.000323429
-0.013381
-0.0226761
-0.0478432
-0.0236438
0.00946032
2.12642
3.34571
2.12429
2.61216
24.044
219.735
0.0546687
0.0520105
0.0395336
0.0451457
0.0239684
0.0240851
0.00884933
0.00587358
-0.0196118
-0.0157141
-0.0683902
-0.0373338
-0.0822253
1.45952
4.28442
3.17523
3.25494
24.7933
227.541
0.0388664
0.0256522
0.0287966
0.0139732
0.0216771
0.0102201
0.00340009
-0.000422431
-0.0135841
-0.01958
-0.0464576
-0.0680376
-0.0774916
0.0219441
2.24967
2.91878
3.36336
21.296
220.311
0.0298579
0.0247004
0.0142316
0.019255
0.0120749
0.00837727
0.00149085
-0.0033609
-0.00813275
-0.0148437
-0.0431646
-0.0080254
-0.0650269
0.00528689
0.515994
2.51086
3.17705
16.6623
198.843
0.0172359
0.0261929
0.0114456
0.0191885
0.00662152
0.00478353
-0.00417258
0.00110608
-0.0170487
-0.0101977
-0.0719294
-0.0399066
-0.171866
-0.0923259
-0.184754
0.19828
1.53273
4.29749
136.84
0.0108305
-0.00134872
0.00508888
-0.00091988
0.00179886
0.000979031
0.00247217
-0.00733282
-0.0103599
-0.0275404
0.00427269
-0.0638985
0.0015622
-0.0493098
-0.111474
-0.391984
0.135774
-2.60055
37.3621
)
;

boundaryField
{
    leftWall
    {
        type            zeroGradient;
    }
    rightWall
    {
        type            zeroGradient;
    }
    lowerWall
    {
        type            zeroGradient;
    }
    atmosphere
    {
        type            totalPressure;
        rho             rho;
        psi             none;
        gamma           1;
        p0              uniform 0;
        value           nonuniform List<scalar> 
46
(
-1.21819e-05
-8.94479e-05
-0.00094515
-0.0016227
-0.00139872
-0.000296543
-0.00024739
-0.000348719
-0.000237899
-9.78142e-05
-0.000204247
-0.000114913
-0.000670636
-5.54544e-05
0
0
0
0
0
0
0
0
0
0
0
0
0
0
0
0
0
0
-6.60451e-05
-0.000565232
-0.00492062
-0.00700501
-0.0143038
-0.0230377
-0.0445133
-0.0722862
-0.0731096
-0.165668
-0.196926
0
-0.00685322
0
)
;
    }
    defaultFaces
    {
        type            empty;
    }
}


// ************************************************************************* //
