/*--------------------------------*- C++ -*----------------------------------*\
| =========                 |                                                 |
| \\      /  F ield         | foam-extend: Open Source CFD                    |
|  \\    /   O peration     | Version:     4.1                                |
|   \\  /    A nd           | Web:         http://www.foam-extend.org         |
|    \\/     M anipulation  |                                                 |
\*---------------------------------------------------------------------------*/
FoamFile
{
    version     2.0;
    format      ascii;
    class       surfaceScalarField;
    location    "0.6";
    object      phi;
}
// * * * * * * * * * * * * * * * * * * * * * * * * * * * * * * * * * * * * * //

dimensions      [0 3 -1 0 0 0 0];

internalField   nonuniform List<scalar> 
4432
(
6.7504e-06
-6.7504e-06
2.45729e-05
-1.78225e-05
2.40484e-05
5.24487e-07
2.10371e-05
3.01133e-06
2.5847e-05
-4.80994e-06
2.41759e-05
1.67113e-06
2.68929e-05
-2.71706e-06
2.56081e-05
1.2848e-06
2.70107e-05
-1.40254e-06
3.62716e-05
-9.26099e-06
3.07546e-05
5.51704e-06
2.74515e-05
3.30309e-06
2.3995e-05
3.45651e-06
1.98573e-05
4.13772e-06
9.75275e-06
1.01045e-05
9.83927e-06
-8.65191e-08
8.36978e-06
1.46949e-06
3.86938e-06
4.50041e-06
-8.42929e-07
4.71231e-06
-8.66674e-06
7.82381e-06
-5.15489e-06
-3.51184e-06
-3.61705e-07
-4.79319e-06
-3.61706e-07
7.80864e-06
-1.4559e-05
2.57578e-05
-3.57715e-05
2.46859e-05
1.59638e-06
2.16109e-05
6.08633e-06
2.62808e-05
-9.47984e-06
2.44966e-05
3.4554e-06
2.80153e-05
-6.23577e-06
2.67482e-05
2.5519e-06
2.81152e-05
-2.76959e-06
3.76057e-05
-1.87515e-05
3.07006e-05
1.24222e-05
2.72194e-05
6.78432e-06
2.40743e-05
6.6016e-06
2.02564e-05
7.9556e-06
1.75878e-05
1.27731e-05
8.289e-06
9.2123e-06
7.1899e-06
2.56858e-06
1.04927e-05
1.19765e-06
7.8174e-06
7.38757e-06
8.82521e-06
6.81599e-06
6.66099e-06
-1.34762e-06
5.54718e-06
-3.67938e-06
5.18547e-06
3.90763e-06
-1.84666e-05
2.76522e-05
-5.95164e-05
2.53561e-05
3.89256e-06
2.20481e-05
9.39436e-06
2.66571e-05
-1.40889e-05
2.42877e-05
5.82483e-06
3.01676e-05
-1.21157e-05
2.77574e-05
4.96214e-06
2.83424e-05
-3.35464e-06
2.02358e-05
-1.06449e-05
2.55972e-05
7.06078e-06
1.68158e-05
1.55658e-05
1.28204e-05
1.0597e-05
5.40614e-06
1.53699e-05
6.50587e-06
1.16734e-05
7.74018e-06
7.97798e-06
6.19024e-06
4.11852e-06
3.27147e-06
4.11642e-06
4.28536e-06
6.37367e-06
3.45046e-06
7.6509e-06
2.35275e-06
-2.49919e-07
2.30742e-06
-3.63405e-06
7.49289e-06
-3.34008e-05
1.4934e-05
3.96256e-05
-0.000132543
3.01883e-05
1.333e-05
2.39301e-05
1.56525e-05
2.79667e-05
-1.81255e-05
2.54615e-05
8.33e-06
3.45335e-05
-2.11876e-05
3.00777e-05
9.41791e-06
3.11604e-05
-4.43731e-06
2.10859e-05
-5.70428e-07
1.04755e-05
1.76711e-05
1.2508e-05
1.35334e-05
3.73143e-06
1.93735e-05
7.72318e-06
1.13781e-05
7.79818e-06
1.15984e-05
9.30777e-06
6.46839e-06
8.79059e-06
4.6357e-06
6.90631e-06
6.00071e-06
4.49877e-06
8.78121e-06
3.40729e-06
8.74238e-06
2.61564e-06
5.4173e-07
2.47695e-06
-3.49535e-06
9.96984e-06
-3.58473e-06
1.8519e-05
2.0178e-05
-0.000156305
3.20554e-05
1.45219e-06
2.28961e-05
2.48118e-05
2.80133e-05
-2.32425e-05
2.59064e-05
1.04369e-05
4.4599e-05
-3.98803e-05
3.06448e-05
2.33721e-05
3.11096e-05
-4.90207e-06
2.414e-05
6.39913e-06
2.409e-05
1.77211e-05
5.2031e-06
3.24203e-05
6.43256e-06
1.8144e-05
4.41216e-06
1.33985e-05
-5.26356e-07
1.65369e-05
-5.347e-07
6.47673e-06
-2.60331e-07
4.36133e-06
-6.91115e-07
6.43149e-06
4.48683e-07
7.64141e-06
7.34593e-07
8.45647e-06
2.03715e-06
-7.60832e-07
3.23419e-06
-4.69239e-06
1.3204e-05
3.20188e-05
-1.34994e-05
3.68486e-05
-0.000161135
6.29818e-05
-2.46813e-05
-2.73566e-06
9.05293e-05
3.47285e-05
-6.07063e-05
3.76006e-05
7.56481e-06
5.8337e-05
-6.06168e-05
2.8736e-05
5.29732e-05
3.85907e-05
-1.47567e-05
4.84955e-05
-3.50564e-06
3.9038e-05
2.71786e-05
2.29356e-05
4.85227e-05
1.31157e-05
2.79639e-05
3.9529e-06
2.25613e-05
3.27434e-06
1.72155e-05
-2.42614e-07
9.99369e-06
-1.91642e-06
6.03514e-06
-1.80174e-06
6.31681e-06
-3.48123e-06
9.3209e-06
-2.50972e-06
7.48496e-06
7.46274e-07
-4.01683e-06
3.51184e-06
-7.45795e-06
1.67159e-05
1.7092e-05
-3.05918e-05
3.33235e-05
-0.000177367
4.51431e-05
-3.65006e-05
3.58395e-06
0.000132089
1.12391e-06
-5.82465e-05
2.41509e-05
-1.54622e-05
2.64654e-05
-6.29312e-05
1.64548e-05
6.29836e-05
3.04379e-05
-2.87397e-05
4.78279e-05
-2.08956e-05
2.00493e-05
5.49571e-05
2.07928e-05
4.77792e-05
7.05192e-06
4.17048e-05
4.77416e-06
2.4839e-05
4.07047e-07
2.15826e-05
-3.94169e-07
1.07949e-05
-2.08111e-06
7.72208e-06
-2.64765e-06
6.88336e-06
-5.5693e-06
1.22426e-05
-3.35588e-06
5.27154e-06
2.29597e-06
-9.66868e-06
9.97266e-06
-1.51346e-05
2.66885e-05
6.59981e-06
-3.71917e-05
1.70867e-05
-0.000187854
3.08907e-05
-5.03044e-05
2.50862e-05
0.000137893
3.7924e-05
-7.10848e-05
2.95242e-05
-7.0624e-06
4.87324e-05
-8.21393e-05
1.6032e-05
9.56839e-05
2.58931e-05
-3.86009e-05
4.02226e-05
-3.52253e-05
3.90032e-05
5.61766e-05
1.06796e-05
7.61028e-05
5.45615e-06
4.69283e-05
-1.76698e-06
3.20622e-05
-9.04494e-06
2.88606e-05
-1.10647e-05
1.28146e-05
-5.66831e-06
2.3257e-06
-1.05544e-05
1.17694e-05
-1.49278e-05
1.66159e-05
-7.56581e-06
-2.09041e-06
7.9231e-06
-2.51576e-05
1.6352e-05
-2.35636e-05
4.30406e-05
-8.38186e-05
8.38187e-05
-0.000125197
4.13784e-05
-0.00014031
1.51128e-05
-0.000145896
5.58644e-06
-0.000146613
7.16604e-07
-0.00015609
9.47723e-06
-0.000146786
-9.30465e-06
-9.2894e-05
-5.38917e-05
-9.14571e-05
-1.43687e-06
-0.00011081
1.93529e-05
-7.53276e-05
-3.54824e-05
-0.000123678
4.83507e-05
-0.000111284
-1.2394e-05
-9.75793e-05
-1.37049e-05
-7.85027e-05
-1.90767e-05
-4.27251e-05
-3.57777e-05
2.05877e-07
-4.2931e-05
3.21344e-05
-3.19285e-05
3.21344e-05
-1.91374e-05
0.000102956
-4.38751e-05
6.6116e-05
-6.51996e-05
3.64374e-05
-6.40345e-05
4.42167e-06
-0.000118585
5.52674e-05
-0.000119341
1.02327e-05
-7.16843e-05
-5.6961e-05
-8.5418e-05
-4.01581e-05
-8.31191e-05
-3.73578e-06
-0.000108852
4.50858e-05
-0.000110408
-3.39268e-05
-6.05589e-05
-1.49794e-06
-8.71704e-05
1.42174e-05
-8.48721e-05
-1.60032e-05
-4.2004e-05
-6.19447e-05
-4.54225e-05
-3.23592e-05
-2.38569e-05
-6.44966e-05
5.50499e-06
-6.12903e-05
3.76394e-05
-1.7551e-05
0.000120507
-2.42652e-05
7.28301e-05
-1.84482e-05
3.06204e-05
-3.98765e-05
2.58498e-05
-8.35806e-05
9.89714e-05
-7.45796e-05
1.23168e-06
-7.59591e-05
-5.55814e-05
-0.000100156
-1.59614e-05
-9.91602e-05
-4.73123e-06
-5.8476e-05
4.40152e-06
-4.77951e-05
-4.46077e-05
-4.00276e-05
-9.26542e-06
-5.87004e-05
3.28902e-05
-4.99913e-05
-2.47122e-05
-5.42842e-05
-5.76518e-05
-3.57361e-05
-5.09073e-05
-1.61133e-05
-8.41195e-05
1.8463e-05
-9.58666e-05
5.61024e-05
-1.35477e-05
0.000134055
-2.91203e-05
8.84028e-05
-5.05711e-05
5.20711e-05
-5.64002e-05
3.1679e-05
-5.33352e-05
9.59064e-05
-5.01858e-05
-1.91775e-06
-5.8204e-05
-4.75633e-05
-4.96139e-05
-2.45516e-05
-4.28755e-05
-1.14696e-05
-8.87774e-06
-2.95963e-05
-2.85744e-05
-2.49111e-05
-5.91702e-05
2.13304e-05
-2.49909e-05
-1.28906e-06
-3.34343e-05
-1.62689e-05
-3.39514e-05
-5.71347e-05
-1.12112e-05
-7.36475e-05
-7.56789e-06
-8.77628e-05
2.37685e-06
-0.000105811
5.84793e-05
6.59083e-07
0.000133396
1.29012e-06
8.77719e-05
-1.97877e-05
7.3149e-05
-2.20535e-05
3.39448e-05
-9.12933e-06
8.29823e-05
-5.13814e-06
-5.90888e-06
-3.72158e-06
-4.89797e-05
-4.54419e-06
-2.37291e-05
1.8139e-05
-3.4153e-05
6.80244e-05
-7.94817e-05
3.24387e-05
1.06747e-05
9.89544e-06
4.38737e-05
-6.55973e-06
1.51661e-05
-1.01401e-06
-2.18145e-05
-1.08317e-06
-5.70655e-05
-2.87185e-06
-7.18588e-05
-1.03188e-05
-8.03158e-05
-7.41777e-06
-0.000108712
5.10615e-05
6.23336e-06
0.000127163
1.57763e-05
7.8229e-05
1.8946e-05
6.99794e-05
9.67082e-07
5.1924e-05
3.84207e-05
4.55285e-05
8.88378e-05
-5.63262e-05
4.67819e-05
-6.92377e-06
7.56812e-05
-5.26285e-05
0.000100713
-5.91851e-05
6.47334e-05
-4.35016e-05
6.11421e-05
1.42661e-05
9.01454e-05
1.48705e-05
5.81687e-05
4.71428e-05
1.52369e-05
2.11173e-05
7.705e-06
-4.95337e-05
3.54153e-06
-6.76953e-05
3.5899e-07
-7.71333e-05
-1.55766e-05
-9.27767e-05
3.54849e-05
8.68506e-06
0.000118477
2.17108e-05
6.52031e-05
5.19172e-05
3.9773e-05
0.000110385
-6.54335e-06
9.61252e-05
5.97875e-05
9.05485e-05
-5.07499e-05
6.34067e-05
2.02186e-05
5.62857e-05
-4.55076e-05
7.03711e-05
-7.3271e-05
7.35767e-05
-4.67073e-05
6.53003e-05
2.25425e-05
5.34141e-05
2.67568e-05
4.01898e-05
6.03672e-05
2.89493e-05
3.23578e-05
2.29638e-05
-4.35482e-05
1.88206e-05
-6.35521e-05
1.46511e-05
-7.29638e-05
-9.31268e-06
-6.8813e-05
2.61723e-05
6.75115e-06
0.000111726
1.00154e-05
6.19388e-05
4.89825e-05
8.06005e-07
6.50084e-05
-2.25692e-05
0.000152828
-2.80325e-05
9.35066e-05
8.57143e-06
0.00013132
-1.75941e-05
0.000104555
-1.87429e-05
9.87229e-05
-6.74386e-05
6.71639e-05
-1.51483e-05
7.3768e-05
1.59381e-05
5.90508e-05
4.14739e-05
5.31209e-05
6.6297e-05
4.34408e-05
4.20379e-05
3.84051e-05
-3.85124e-05
3.59489e-05
-6.10959e-05
2.2842e-05
-5.98569e-05
1.69498e-06
-4.76659e-05
2.78673e-05
5.83892e-06
-4.30305e-05
-5.68272e-06
-0.000176331
-2.8042e-05
-2.79449e-05
8.66889e-05
2.31622e-05
4.99332e-05
-3.43296e-05
3.38006e-05
9.06999e-06
1.74992e-05
-6.58381e-05
4.72627e-05
6.59201e-05
1.65643e-05
-7.90258e-06
5.00948e-05
-6.87556e-05
3.41514e-05
7.21199e-05
-8.59786e-07
0.000111114
-7.68091e-06
5.37494e-05
-1.17636e-05
3.61449e-05
-1.40334e-05
3.11304e-05
1.69042e-06
-2.9092e-06
8.50122e-06
-4.48509e-06
1.75383e-05
2.73234e-06
4.15699e-05
-7.41565e-06
6.14078e-05
-2.19283e-05
5.26976e-05
-1.64474e-05
3.72176e-05
-8.08359e-06
1.52425e-05
6.50156e-05
2.29629e-05
-6.59932e-05
-3.83962e-05
-0.000114973
-5.89847e-05
-7.35665e-06
-8.82223e-06
-2.70001e-05
-9.31995e-06
-3.38316e-05
6.34352e-06
-6.59353e-06
-8.61216e-06
-5.08827e-05
1.75951e-05
3.97131e-05
3.47531e-05
-2.50604e-05
7.24569e-06
-4.12482e-05
3.50644e-05
4.43012e-05
5.08356e-05
9.53428e-05
2.09482e-05
8.36368e-05
2.70553e-05
3.00378e-05
2.07541e-05
3.74316e-05
8.16485e-07
1.70284e-05
1.35178e-05
-1.71864e-05
2.64715e-05
-1.02214e-05
4.34089e-05
-2.4353e-05
6.1063e-05
-3.95824e-05
4.43694e-05
2.46222e-07
4.23571e-05
-6.0713e-06
1.29685e-05
4.46311e-05
-3.85117e-05
-2.74815e-05
-6.69038e-05
-8.65805e-05
-2.26348e-05
-5.16256e-05
-1.81065e-05
-3.15283e-05
-2.19802e-05
-2.99578e-05
-3.43786e-05
5.80495e-06
-8.8452e-05
3.19077e-06
-7.05083e-05
2.17696e-05
-7.08771e-05
-2.46917e-05
-2.21077e-05
-9.00177e-05
9.5374e-06
1.26562e-05
3.47945e-05
7.00857e-05
4.17567e-05
7.66746e-05
4.14532e-05
3.03413e-05
8.2086e-05
-3.20126e-06
0.000120968
-2.18535e-05
0.000115143
-1.13615e-05
6.80902e-05
3.68314e-05
5.23164e-05
-8.57912e-06
2.92682e-05
-1.65342e-05
3.86244e-05
-9.11002e-06
3.79591e-05
-5.40595e-06
1.26089e-05
3.83187e-05
-1.4347e-05
-1.31345e-05
-6.63467e-05
-3.45808e-05
-8.58998e-05
-3.20725e-05
-9.64268e-05
-2.10013e-05
-0.00011641
-9.97473e-06
-0.000140635
3.00298e-05
-0.000161498
2.40542e-05
-0.000167087
2.73587e-05
-0.000106124
-8.5655e-05
-0.000107876
-8.82655e-05
-2.48921e-05
-7.03272e-05
1.96746e-05
2.55189e-05
1.64382e-05
7.9911e-05
3.78788e-05
8.90074e-06
5.83906e-05
-2.37131e-05
0.00011384
-7.73033e-05
0.000131074
-2.85949e-05
0.000152812
1.50935e-05
0.000100209
4.40235e-05
7.85445e-05
5.13021e-06
6.08056e-05
8.62888e-06
5.08002e-05
4.59945e-06
5.8469e-07
6.28243e-05
2.00737e-05
-3.32082e-05
-2.15801e-05
7.07291e-06
-4.87859e-05
-4.86667e-06
-5.59773e-05
-1.38099e-05
-9.16188e-05
2.56668e-05
-0.000133876
7.22874e-05
-0.000183169
7.33464e-05
-0.000154458
-1.35254e-06
-0.000193653
-4.64594e-05
-0.000149666
-0.000132252
-4.88429e-05
-0.000171151
3.70863e-05
-6.04104e-05
6.65331e-05
5.04641e-05
5.69122e-05
1.85217e-05
5.48701e-05
-2.1671e-05
3.91953e-05
-6.16284e-05
7.65704e-05
-6.597e-05
0.000132529
-4.0865e-05
0.000171616
4.93647e-06
0.000162
1.4746e-05
0.000149835
2.07935e-05
0.000136732
1.77026e-05
4.71905e-06
0.000132598
-2.15341e-05
-1.16741e-05
-8.98345e-06
-5.47772e-06
-2.55869e-05
1.17367e-05
-4.7667e-05
8.27023e-06
-7.91405e-05
5.71403e-05
-9.14061e-05
8.45531e-05
-6.7697e-05
4.96372e-05
-9.20259e-05
2.29762e-05
-0.000134394
-4.09121e-06
-0.000127336
-0.000139311
-8.35867e-05
-0.0002149
1.16327e-05
-0.00015563
3.95923e-05
2.25043e-05
2.06434e-05
3.74706e-05
2.46487e-05
-2.56762e-05
6.20344e-05
-9.90142e-05
4.4451e-05
-4.83866e-05
8.64543e-05
-8.28682e-05
0.000181932
-9.05411e-05
0.000172447
2.42312e-05
0.000143379
4.98609e-05
0.000132236
2.88458e-05
-1.90881e-05
0.000156043
-1.43281e-08
-1.16598e-05
-1.16608e-05
6.16878e-06
-2.82239e-05
2.82998e-05
-4.66999e-05
2.67463e-05
-3.53008e-05
4.57412e-05
-6.1116e-05
0.000110368
-0.00010777
9.62909e-05
-8.04943e-05
-4.29932e-06
-2.96617e-05
-5.49238e-05
-3.3167e-05
-0.000135805
-6.44453e-05
-0.000183621
-4.08702e-05
-0.000179205
4.6968e-05
-6.53338e-05
7.97918e-05
4.64681e-06
5.4857e-05
-7.41352e-07
1.59269e-05
-6.00841e-05
3.1844e-05
-6.43037e-05
1.8808e-05
-6.98322e-05
3.00372e-05
-0.00010177
6.79187e-05
-1.36505e-05
8.72401e-05
3.05395e-05
0.000119812
-3.72648e-06
-7.71861e-05
0.00017791
3.17034e-06
-1.48301e-05
-4.20251e-06
1.35416e-05
-9.09091e-06
3.31882e-05
-2.25395e-05
4.01949e-05
-3.05892e-05
5.37908e-05
-3.80118e-05
0.000117791
-9.74072e-06
6.80198e-05
-1.04293e-05
-3.61077e-06
1.20501e-05
-7.74032e-05
-4.36422e-07
-0.000123319
-1.59069e-05
-0.000168151
-1.96512e-05
-0.00017546
4.1907e-05
-0.000126892
9.13941e-05
-4.48403e-05
8.01419e-05
1.05109e-05
4.11561e-05
-2.10984e-05
2.64166e-05
-4.95642e-05
2.02505e-05
-6.36661e-05
-3.02081e-05
-5.13117e-05
-7.47635e-06
-3.63824e-05
3.15029e-05
-8.43967e-06
5.3947e-05
-2.61704e-05
-0.000112379
8.91395e-05
1.46785e-06
-1.62979e-05
8.11543e-08
1.49283e-05
-8.6568e-06
4.19261e-05
-1.6295e-05
4.78331e-05
-9.20134e-06
4.66971e-05
-2.88141e-06
0.000111471
1.61363e-06
6.35248e-05
-2.38176e-07
-1.75896e-06
3.93358e-06
-8.15749e-05
-2.69262e-05
-9.24589e-05
-4.8957e-05
-0.00014612
4.57273e-05
-0.000270145
4.22536e-05
-0.000123418
5.60135e-05
-5.86002e-05
8.07498e-05
-1.42254e-05
7.1589e-05
-1.19375e-05
5.93446e-05
-3.73198e-05
2.12824e-05
-2.56039e-05
3.02939e-06
-3.30586e-05
-4.72582e-06
-2.86272e-05
1.39622e-05
-2.71276e-05
5.2936e-05
-6.51442e-05
-7.25519e-05
1.31091e-05
-1.39194e-06
-1.4906e-05
5.03857e-07
1.30326e-05
6.52865e-06
3.59014e-05
-6.86968e-06
6.12314e-05
-9.79361e-06
4.9621e-05
4.22314e-05
5.9446e-05
2.75604e-05
7.81957e-05
3.64919e-05
-1.06904e-05
4.28768e-05
-8.79599e-05
2.58109e-05
-7.5393e-05
-1.35113e-05
-0.000106798
-7.45458e-06
-0.000276202
1.7366e-05
-0.000148239
4.63974e-05
-8.76316e-05
4.99084e-05
-1.77364e-05
5.21099e-05
-1.4139e-05
3.14207e-05
-1.66305e-05
1.76738e-05
-1.1857e-05
-7.47291e-06
-7.91193e-06
-1.9611e-05
-1.6489e-05
-2.6011e-05
-2.07276e-05
-5.72067e-05
-3.39485e-05
-7.79317e-05
-5.1827e-05
-4.6863e-06
-1.02197e-05
-4.37476e-06
1.2721e-05
6.74991e-06
2.47767e-05
1.7751e-05
5.02304e-05
3.11792e-05
3.61928e-05
4.73517e-05
4.32736e-05
6.34534e-05
6.2094e-05
6.92898e-05
-1.65268e-05
5.62525e-05
-7.49225e-05
5.74005e-05
-7.6541e-05
2.28577e-05
-7.2255e-05
1.76999e-06
-0.000255114
-7.03312e-06
-0.000139436
3.00061e-06
-9.76654e-05
3.6669e-06
-1.84027e-05
-1.59747e-06
-8.87459e-06
-6.01214e-06
-1.22159e-05
-5.51697e-07
-1.73175e-05
-9.44302e-07
-7.51931e-06
-1.70327e-05
-4.00631e-07
-3.71331e-05
-6.27194e-07
-4.9523e-05
-2.15585e-05
-7.60353e-05
-5.14194e-05
-6.18319e-06
-4.03645e-06
-7.1465e-06
1.36844e-05
7.57118e-06
1.00591e-05
2.63104e-05
3.14911e-05
5.0487e-05
1.20162e-05
6.22231e-05
3.15375e-05
0.000108039
1.62785e-05
0.000109482
-1.79706e-05
9.89802e-05
-6.44203e-05
8.93908e-05
-6.69516e-05
3.54688e-05
-1.83331e-05
6.15143e-06
-0.000225797
-1.91069e-05
-0.000114177
-4.68612e-06
-0.000112086
-1.08832e-05
-1.22056e-05
-2.03068e-05
5.4898e-07
-1.80927e-05
-1.443e-05
-2.26355e-05
-1.27747e-05
-1.96932e-05
-1.04615e-05
-1.91593e-05
-9.34537e-07
-1.80958e-05
-1.69069e-06
-2.07175e-05
-1.89368e-05
-6.78203e-05
-2.89326e-05
-3.60807e-06
-4.28374e-07
-5.25357e-07
1.06017e-05
2.53408e-06
6.99964e-06
2.03068e-05
1.37184e-05
2.42799e-05
8.04319e-06
5.79174e-05
-2.09997e-06
7.14975e-05
2.69835e-06
7.89653e-05
-2.54383e-05
5.98147e-05
-4.52697e-05
6.78275e-05
-7.49645e-05
9.887e-05
-4.93755e-05
1.00749e-05
-0.000137002
-5.6988e-06
-9.84036e-05
-4.00535e-05
-7.77315e-05
-3.10256e-05
-2.12334e-05
-3.90698e-05
8.59311e-06
-4.15222e-05
-1.19775e-05
-3.84817e-05
-1.58152e-05
-4.26053e-05
-6.33794e-06
-4.01727e-05
-3.36714e-06
-3.41832e-05
-7.68027e-06
-3.34433e-05
-1.96766e-05
-5.174e-05
-4.95236e-05
-2.87161e-06
2.44325e-06
2.27729e-06
5.45277e-06
5.71925e-06
3.55769e-06
1.95035e-05
-6.58117e-08
3.28751e-05
-5.32844e-06
3.44415e-05
-3.6663e-06
4.64327e-05
-9.29284e-06
7.0052e-05
-4.90577e-05
5.9443e-05
-3.46607e-05
4.14581e-05
-5.69795e-05
5.8042e-05
-6.59594e-05
1.29874e-05
-9.19471e-05
-1.12896e-05
-7.41266e-05
-4.47025e-05
-4.43186e-05
-4.9205e-05
-1.67309e-05
-3.68836e-05
-3.72831e-06
-3.26647e-05
-1.61963e-05
-4.77171e-05
-7.62794e-07
-4.8728e-05
-5.32704e-06
-5.13086e-05
-7.86493e-07
-4.80816e-05
-1.09073e-05
-5.6266e-05
-1.14923e-05
-3.33203e-05
-7.46858e-05
-2.71799e-06
5.16124e-06
1.84168e-06
8.93109e-07
7.93088e-06
-2.53151e-06
1.5422e-05
-7.55695e-06
2.41462e-05
-1.40526e-05
3.0052e-05
-9.57214e-06
4.03489e-05
-1.95897e-05
4.91203e-05
-5.78291e-05
5.73861e-05
-4.29264e-05
3.32973e-05
-3.28907e-05
3.92263e-05
-7.18884e-05
6.77519e-07
-5.33984e-05
-1.22602e-05
-6.11889e-05
-3.48658e-05
-2.17129e-05
-4.30928e-05
-8.50392e-06
-3.10132e-05
-1.58079e-05
-3.89951e-05
-8.21445e-06
-2.92016e-05
-1.05563e-05
-3.23513e-05
-2.17726e-06
-3.38992e-05
7.61373e-07
-5.09263e-05
6.11985e-06
-6.04836e-05
-1.93507e-06
-8.71795e-06
-8.5086e-05
6.26622e-07
4.53463e-06
3.80539e-06
-2.28565e-06
7.51007e-06
-6.23618e-06
8.33805e-06
-8.38492e-06
1.1663e-05
-1.73775e-05
1.73137e-05
-1.52228e-05
1.60336e-05
-1.83096e-05
1.97605e-05
-6.1556e-05
1.61003e-05
-3.92662e-05
1.6466e-05
-3.32565e-05
-3.1666e-06
-5.22557e-05
-3.8414e-06
-5.27236e-05
-2.9973e-05
-3.50573e-05
-3.55699e-05
-1.6116e-05
-3.75377e-05
-6.53613e-06
-3.20896e-05
-2.12559e-05
-4.24448e-05
2.14073e-06
-4.51705e-05
-7.83064e-06
-4.88961e-05
1.54833e-06
-4.82473e-05
1.12624e-07
-4.69422e-05
4.81479e-06
-3.4026e-05
-1.48513e-05
-5.63587e-06
-3.71081e-05
1.84083e-06
2.69381e-06
5.22635e-06
-5.67117e-06
4.50772e-06
-5.51754e-06
6.02005e-06
-9.89724e-06
5.67616e-06
-1.70336e-05
8.17874e-06
-1.77254e-05
2.14033e-05
-3.15342e-05
-6.28459e-07
-3.95242e-05
-2.72993e-06
-3.71648e-05
-1.95346e-06
-3.40329e-05
-9.50498e-06
-4.47042e-05
-4.18986e-05
-2.03299e-05
-5.32742e-05
-2.36817e-05
-3.68761e-05
-3.25141e-05
-3.52384e-05
-8.17383e-06
-5.11734e-05
-5.32086e-06
-4.87306e-05
-3.02055e-07
-5.01834e-05
-6.3779e-06
-4.81689e-05
-4.66165e-07
-3.42387e-05
-1.38175e-05
-3.06939e-05
1.27001e-06
-3.90585e-05
-6.48662e-06
6.22004e-06
-5.09145e-05
4.78998e-06
-2.09617e-06
3.06132e-06
-3.94251e-06
4.30264e-06
-6.75885e-06
2.67874e-06
-8.27334e-06
3.79067e-06
-1.81455e-05
1.85121e-06
-1.57859e-05
2.80257e-06
-3.24856e-05
-4.88061e-06
-3.1841e-05
-1.27492e-05
-2.92962e-05
-1.68531e-05
-2.9929e-05
-3.69969e-05
-2.45604e-05
-3.00453e-05
-2.72816e-05
-3.3868e-05
-1.9859e-05
-4.12789e-05
-2.51032e-05
-3.5875e-05
-1.35777e-05
-3.80727e-05
-3.12312e-06
-3.48965e-05
-3.47825e-06
-3.74318e-05
-3.84263e-06
-2.40439e-05
-1.38541e-05
-2.9172e-05
-8.68943e-06
-2.68756e-05
-1.02629e-06
-3.12872e-05
-2.07506e-06
3.14516e-06
-2.82123e-05
3.46989e-06
-5.56606e-06
5.2621e-06
-5.73471e-06
3.35933e-06
-4.85608e-06
1.85241e-06
-6.76641e-06
-6.30821e-06
-9.98489e-06
-8.99553e-06
-1.30986e-05
-1.14672e-05
-3.00139e-05
-7.31174e-06
-3.59965e-05
-1.87386e-05
-1.78693e-05
-2.7827e-05
-2.08406e-05
-1.54767e-05
-3.69108e-05
-2.03502e-05
-2.2408e-05
-2.32033e-05
-1.70059e-05
-2.77974e-05
-2.05091e-05
-2.54852e-05
-1.589e-05
-2.19025e-05
-6.70585e-06
-2.30509e-05
-2.32987e-06
-2.39195e-05
-2.97401e-06
-3.43798e-05
-3.39379e-06
-4.0329e-05
-2.74018e-06
-3.08255e-05
-1.05298e-05
-2.97537e-05
-3.14691e-06
1.3062e-05
-3.96706e-05
2.68095e-06
-8.24701e-06
3.08577e-06
-6.13953e-06
3.81709e-06
-5.5874e-06
1.01165e-07
-3.05047e-06
-1.27802e-06
-8.6057e-06
-3.26211e-06
-1.11145e-05
-5.58652e-06
-2.76895e-05
-1.21947e-05
-2.93882e-05
-1.5508e-05
-1.45561e-05
-2.08915e-05
-1.5457e-05
-2.6344e-05
-3.14583e-05
-3.48161e-05
-1.39359e-05
-2.46909e-05
-2.71311e-05
-2.33189e-05
-2.1881e-05
-3.38983e-05
-5.31062e-06
-3.27404e-05
-7.86373e-06
-2.3277e-05
-1.17932e-05
-2.53771e-05
-8.73991e-07
-2.65123e-05
-2.25858e-06
-2.74792e-05
-1.77326e-06
-3.88501e-05
8.4116e-07
-4.48307e-05
2.83365e-06
-5.48969e-06
-2.62789e-05
1.08832e-06
-9.33532e-06
1.71676e-06
-6.76798e-06
1.54973e-06
-5.42036e-06
1.52999e-06
-3.03072e-06
2.35698e-06
-9.43269e-06
5.78329e-06
-1.45408e-05
-5.33489e-06
-1.65713e-05
-6.29761e-06
-2.84255e-05
-7.63322e-06
-1.32204e-05
-1.04056e-05
-1.26847e-05
-2.46727e-05
-1.71911e-05
-1.98814e-05
-1.87272e-05
-3.36399e-05
-1.33727e-05
-3.39872e-05
-2.15337e-05
-3.45781e-05
-4.71963e-06
-3.26746e-05
-9.76732e-06
-3.67681e-05
-7.69969e-06
-2.46875e-05
-1.29546e-05
-2.36414e-05
-3.3047e-06
-2.27949e-05
-2.61975e-06
-2.26641e-05
7.10423e-07
-2.21824e-05
2.3519e-06
-4.68789e-06
-2.29842e-05
2.61411e-07
-9.59673e-06
7.46895e-07
-7.25346e-06
1.41511e-06
-6.08857e-06
8.97101e-07
-2.51272e-06
8.30185e-07
-9.36577e-06
3.8532e-06
-1.75638e-05
1.75656e-06
-1.44747e-05
-1.0486e-05
-1.61829e-05
-8.77553e-06
-1.4931e-05
-8.22905e-06
-1.32311e-05
-9.83997e-06
-1.55802e-05
-1.30122e-05
-1.55549e-05
-1.37346e-05
-1.26503e-05
-2.4521e-05
-1.07473e-05
-1.69361e-05
-1.23046e-05
-1.61331e-05
-1.05703e-05
-1.67326e-05
-7.10021e-06
-1.98687e-05
-9.81845e-06
-2.0899e-05
-2.27436e-06
-2.14123e-05
-2.10645e-06
-2.0956e-05
2.54126e-07
-2.17138e-05
3.1097e-06
1.34279e-06
-2.77445e-05
-1.24941e-06
-8.34732e-06
-1.74688e-06
-6.75598e-06
-1.40987e-06
-6.42558e-06
5.7982e-06
-9.72079e-06
3.19274e-06
-6.7603e-06
-2.08357e-06
-1.22875e-05
-5.23954e-06
-1.13187e-05
-6.07795e-06
-1.53445e-05
-5.83174e-06
-1.51772e-05
-5.67368e-06
-1.33892e-05
-8.32746e-06
-1.29264e-05
-1.20529e-05
-1.18295e-05
-1.75652e-05
-7.13803e-06
-1.92649e-05
-9.04762e-06
-1.48245e-05
-1.67449e-05
-1.79672e-05
-7.4276e-06
-1.72474e-05
-7.8201e-06
-1.74027e-05
-9.66306e-06
-1.61658e-05
-3.51128e-06
-1.79558e-05
-3.16428e-07
-1.84404e-05
7.38661e-07
-1.78779e-05
2.54721e-06
3.29068e-06
-1.98258e-05
-4.48763e-06
-3.85969e-06
2.78736e-07
-1.15223e-05
2.29232e-06
-8.43916e-06
1.48302e-06
-8.91148e-06
4.63268e-06
-9.90996e-06
2.47382e-06
-1.01287e-05
-6.18269e-07
-8.22663e-06
-4.11689e-06
-1.18459e-05
-8.09888e-06
-1.11952e-05
-1.10144e-05
-1.04737e-05
-1.29705e-05
-1.09703e-05
-1.46901e-05
-1.01098e-05
-1.46503e-05
-7.17783e-06
-1.58251e-05
-7.87282e-06
-2.36969e-05
-8.87315e-06
-1.3939e-05
-1.71855e-05
-1.35438e-05
-8.2153e-06
-1.90616e-05
-4.1452e-06
-1.57991e-05
-6.77383e-06
-1.67361e-05
6.20588e-07
-1.58157e-05
-1.81775e-07
-1.6336e-05
3.06751e-06
4.34178e-06
-1.73871e-05
1.04516e-06
-4.90485e-06
2.43996e-07
-1.07212e-05
-8.71491e-07
-7.32367e-06
-1.73882e-06
-8.04415e-06
-2.684e-06
-8.96479e-06
3.63272e-07
-1.31759e-05
3.47699e-06
-1.13403e-05
-4.92938e-08
-8.31957e-06
-3.18425e-06
-8.06022e-06
-5.44999e-06
-8.20798e-06
-9.11074e-06
-7.30954e-06
-1.18664e-05
-7.35411e-06
-1.15142e-05
-7.53003e-06
-9.64667e-06
-9.74037e-06
-9.70969e-06
-8.81012e-06
-1.61078e-05
-1.07873e-05
-2.21167e-05
-2.20645e-06
-1.77452e-05
-8.51671e-06
-2.11779e-05
-3.3411e-06
-1.504e-05
-5.51734e-06
-1.62198e-05
9.98047e-07
-1.43037e-05
1.15144e-06
5.68079e-06
-1.56427e-05
-7.73727e-08
-4.82748e-06
-3.51363e-07
-1.04472e-05
5.8642e-07
-8.26146e-06
-1.2522e-09
-7.45647e-06
-7.82698e-07
-8.18334e-06
-2.89088e-06
-1.10677e-05
-4.62348e-06
-9.60775e-06
-4.77326e-06
-8.16979e-06
-7.17148e-06
-5.662e-06
-9.91735e-06
-5.46211e-06
-8.21822e-06
-9.00867e-06
-6.8476e-06
-8.72473e-06
-4.35948e-06
-1.00181e-05
-8.26734e-06
-5.8325e-06
-9.67873e-06
-7.39874e-06
-1.52469e-05
-5.21917e-06
-1.0417e-05
-7.03635e-06
-1.45654e-05
-4.36824e-06
-1.27032e-05
-5.20328e-06
-1.24396e-05
-5.78102e-06
-1.24183e-05
9.76762e-07
-1.20179e-05
7.5103e-07
1.35536e-05
-1.98907e-05
4.34509e-07
-5.26199e-06
3.82421e-07
-1.03951e-05
6.0869e-08
-7.9399e-06
-6.53286e-07
-6.74232e-06
-9.31935e-07
-7.90469e-06
-4.10543e-07
-1.15891e-05
-1.12682e-06
-8.89146e-06
-3.03494e-06
-6.26168e-06
-3.96259e-06
-4.73434e-06
-4.57988e-06
-4.84481e-06
-6.36201e-06
-7.22654e-06
-8.05135e-06
-7.03539e-06
-1.04496e-05
-7.61984e-06
-7.63598e-06
-8.64617e-06
-1.16668e-05
-3.36795e-06
-8.39783e-06
-8.48809e-06
-1.33099e-05
-2.12427e-06
-8.79205e-06
-8.8861e-06
-1.31886e-05
-8.06679e-07
-1.69931e-05
-1.97657e-06
-1.20054e-05
-4.01096e-06
-2.30196e-05
1.17653e-05
1.93933e-06
-1.14053e-05
6.17002e-08
-5.32369e-06
-1.52069e-07
-1.01813e-05
-3.19963e-08
-8.05998e-06
-1.29828e-06
-5.47603e-06
-1.77304e-06
-7.42992e-06
-1.86378e-06
-1.14984e-05
-2.65839e-06
-8.09686e-06
-3.36013e-06
-5.55994e-06
-4.18049e-06
-3.91397e-06
-4.32099e-06
-4.70431e-06
-3.96687e-06
-7.58066e-06
-5.82729e-06
-5.17496e-06
-7.30532e-06
-6.14181e-06
-8.39227e-06
-7.55922e-06
-1.07427e-05
-1.0175e-06
-6.3095e-06
-1.29213e-05
-1.06697e-05
2.23597e-06
-1.12123e-05
-8.34352e-06
-1.17257e-05
-2.93283e-07
-1.12446e-05
-2.45771e-06
-1.79267e-05
2.6712e-06
-1.0599e-05
4.43756e-06
7.79932e-06
-1.6459e-05
4.77671e-07
-5.80136e-06
6.84092e-07
-1.03878e-05
7.97687e-07
-8.17357e-06
-3.98941e-07
-4.2794e-06
-1.19863e-06
-6.63023e-06
-1.46135e-06
-1.12357e-05
-1.85758e-06
-7.70063e-06
-2.23451e-06
-5.18301e-06
-1.56088e-06
-4.5876e-06
-1.28593e-06
-4.97926e-06
-4.33766e-06
-4.52894e-06
-4.20938e-06
-5.30324e-06
-4.62353e-06
-5.72766e-06
-5.71328e-06
-6.46947e-06
-3.97643e-06
-2.75435e-06
-1.0636e-05
-6.26172e-06
-8.16844e-06
-2.31611e-07
-1.28309e-05
-3.68101e-06
-8.68119e-06
-4.44303e-06
-8.88764e-06
-2.25126e-06
-1.37764e-05
7.55998e-06
-1.00927e-05
7.53873e-07
7.43278e-06
-9.7262e-06
1.31583e-07
-5.93294e-06
-6.17479e-08
-1.01944e-05
-1.14841e-07
-8.12048e-06
-1.87199e-06
-2.52225e-06
-2.64196e-06
-5.86026e-06
-1.84335e-06
-1.20343e-05
-2.10813e-06
-7.43585e-06
-2.17483e-06
-5.1163e-06
-3.06091e-06
-3.70152e-06
-3.39067e-06
-4.6495e-06
-3.43456e-06
-4.48504e-06
-3.22119e-06
-5.51661e-06
-4.04314e-06
-4.9057e-06
-4.83218e-06
-5.68043e-06
-5.02024e-06
-2.56628e-06
-9.17674e-06
-2.10522e-06
-9.33958e-06
-6.87714e-08
-1.17237e-05
-1.29685e-06
-1.2694e-05
-3.47275e-06
-1.49473e-05
1.98598e-09
-8.69012e-06
1.30285e-06
-1.45419e-05
6.60564e-06
2.41237e-06
-9.52149e-06
4.213e-07
-6.35424e-06
5.57497e-07
-1.03306e-05
1.03931e-06
-8.60229e-06
1.09358e-06
-2.57652e-06
1.40471e-06
-6.1714e-06
-2.94747e-06
-7.6821e-06
-5.37603e-06
-5.00729e-06
-4.39787e-06
-6.09446e-06
-4.11912e-06
-3.98028e-06
-4.13678e-06
-4.63184e-06
-2.98547e-06
-5.63635e-06
-3.66996e-06
-4.83212e-06
-4.00518e-06
-4.57048e-06
-4.05088e-06
-5.63473e-06
-4.12354e-06
-2.49362e-06
-6.27563e-06
4.68708e-08
-5.3999e-06
-9.44497e-07
-1.03777e-05
3.68094e-06
-7.36479e-06
-6.48565e-06
-8.71609e-06
1.35329e-06
-9.34042e-06
1.92717e-06
-7.3145e-06
4.57973e-06
7.13784e-06
-1.204e-05
7.45278e-09
-6.36169e-06
-3.40887e-09
-1.03198e-05
1.77282e-07
-8.78298e-06
4.08179e-08
-2.44005e-06
-7.74866e-07
-5.35571e-06
-1.86884e-06
-6.58812e-06
-1.76496e-06
-5.11116e-06
-9.5985e-10
-7.85846e-06
-6.12938e-07
-3.3683e-06
-1.81212e-06
-3.43265e-06
-1.91853e-06
-5.52994e-06
-2.66301e-06
-4.08765e-06
-3.45753e-06
-3.77596e-06
-3.65086e-06
-5.4414e-06
-5.68748e-06
-4.57e-07
-4.10097e-06
-1.53963e-06
-6.18402e-06
1.13855e-06
-5.10328e-06
2.6002e-06
-1.05787e-05
-1.01023e-06
-1.0818e-05
1.59259e-06
-1.25505e-05
3.65971e-06
-7.54906e-06
-4.21764e-07
5.51325e-06
-5.92447e-06
1.37484e-07
-6.49918e-06
3.34066e-07
-1.05163e-05
6.38529e-07
-9.08745e-06
6.81717e-07
-2.48324e-06
1.14601e-06
-5.82001e-06
-2.01971e-06
-3.42241e-06
-2.24305e-06
-4.88782e-06
-2.69183e-06
-7.40968e-06
-2.10728e-06
-3.95285e-06
-1.5229e-06
-4.01703e-06
-3.02365e-06
-4.02918e-06
-2.53805e-06
-4.57324e-06
-2.73987e-06
-3.57413e-06
-3.28134e-06
-4.89993e-06
-2.61447e-06
-1.12386e-06
-4.08356e-06
-7.05451e-08
-4.52579e-06
1.58078e-06
-3.99163e-06
2.06604e-06
-7.77283e-06
2.77097e-06
-9.34018e-06
3.15995e-06
-7.55015e-06
1.86967e-06
-1.16911e-05
3.71917e-06
-1.80929e-06
-4.36854e-06
-2.97291e-07
-6.20188e-06
-4.03047e-07
-1.04106e-05
-7.27688e-07
-8.7628e-06
-8.98504e-07
-2.31242e-06
-1.74794e-06
-4.97057e-06
7.39931e-07
-5.91028e-06
2.91505e-07
-4.43939e-06
-2.51235e-07
-6.86694e-06
-4.81876e-07
-3.72221e-06
-1.05144e-06
-3.44747e-06
-9.1876e-07
-4.16186e-06
-3.29627e-06
-2.19574e-06
-2.73082e-06
-4.13958e-06
-2.73183e-06
-4.89892e-06
-1.84217e-06
-2.01352e-06
-2.27232e-06
3.59599e-07
-2.68929e-06
1.99775e-06
-3.72882e-06
3.10557e-06
-5.59063e-06
4.63278e-06
-3.63942e-06
1.20873e-06
-8.29007e-06
6.52033e-06
-5.89348e-06
1.32256e-06
-1.01652e-07
-7.60112e-06
-1.77326e-07
-6.02456e-06
-5.39809e-07
-1.00481e-05
-4.54585e-07
-8.84803e-06
-8.14254e-07
-1.95275e-06
-3.29217e-07
-5.4556e-06
4.73267e-07
-6.71276e-06
-6.653e-07
-3.30083e-06
-4.32481e-06
-3.20743e-06
-2.69614e-06
-5.35088e-06
-2.09258e-06
-4.05102e-06
-1.85467e-06
-4.39977e-06
-2.10823e-06
-1.94218e-06
-2.41095e-06
-3.83686e-06
-2.75159e-06
-4.55828e-06
-2.37319e-06
-2.39192e-06
-2.14537e-06
1.3178e-07
-2.20133e-06
2.05371e-06
-3.24284e-06
4.14707e-06
-3.91403e-06
5.30397e-06
-5.48163e-06
2.77633e-06
-5.24542e-06
6.28412e-06
-5.80641e-06
1.88356e-06
2.46844e-06
-8.37651e-06
-4.07904e-07
-5.61665e-06
-7.12147e-07
-9.74385e-06
-1.77319e-07
-9.38286e-06
-1.75767e-07
-1.95431e-06
-2.22969e-06
-3.40168e-06
-1.27204e-06
-7.67042e-06
-7.45051e-07
-3.82782e-06
-1.77738e-06
-2.1751e-06
-1.07357e-06
-6.05469e-06
-1.35331e-06
-3.77129e-06
-2.32337e-06
-3.42971e-06
-2.20742e-06
-2.05814e-06
-2.18769e-06
-3.85659e-06
-2.60084e-06
-4.14513e-06
-1.97664e-06
-3.01612e-06
-2.19888e-06
3.54018e-07
-2.19658e-06
2.05141e-06
-2.42025e-06
4.37073e-06
-2.1618e-06
5.04552e-06
-3.76865e-06
4.38319e-06
-3.35523e-06
5.8707e-06
-3.96554e-06
2.49386e-06
2.9825e-06
-4.47962e-06
-3.41395e-07
-5.27526e-06
-5.55385e-07
-9.52986e-06
-6.60012e-07
-9.27823e-06
2.62463e-07
-2.87678e-06
-1.03982e-06
-2.0994e-06
-1.25088e-06
-7.45935e-06
-1.48281e-06
-3.59589e-06
-2.26248e-06
-1.39543e-06
-2.2384e-06