/*--------------------------------*- C++ -*----------------------------------*\
| =========                 |                                                 |
| \\      /  F ield         | foam-extend: Open Source CFD                    |
|  \\    /   O peration     | Version:     4.1                                |
|   \\  /    A nd           | Web:         http://www.foam-extend.org         |
|    \\/     M anipulation  |                                                 |
\*---------------------------------------------------------------------------*/
FoamFile
{
    version     2.0;
    format      ascii;
    class       surfaceScalarField;
    location    "0.6";
    object      phi_0;
}
// * * * * * * * * * * * * * * * * * * * * * * * * * * * * * * * * * * * * * //

dimensions      [0 3 -1 0 0 0 0];

internalField   nonuniform List<scalar> 
4432
(
6.8569e-06
-6.8569e-06
2.44842e-05
-1.76273e-05
2.40906e-05
3.93625e-07
2.10843e-05
3.00628e-06
2.61326e-05
-5.04836e-06
2.45528e-05
1.5798e-06
2.70303e-05
-2.47744e-06
2.57258e-05
1.30445e-06
2.71166e-05
-1.39077e-06
3.63631e-05
-9.24647e-06
3.09038e-05
5.45928e-06
2.75969e-05
3.30692e-06
2.41603e-05
3.43658e-06
2.00395e-05
4.12082e-06
9.89918e-06
1.01403e-05
1.00107e-05
-1.11554e-07
8.53795e-06
1.47278e-06
4.01262e-06
4.52533e-06
-6.57046e-07
4.66967e-06
-8.52985e-06
7.8728e-06
-5.07393e-06
-3.45592e-06
-3.3523e-07
-4.7387e-06
-3.3523e-07
8.07595e-06
-1.49329e-05
2.55922e-05
-3.51434e-05
2.47499e-05
1.23589e-06
2.16383e-05
6.11794e-06
2.65978e-05
-1.00079e-05
2.49039e-05
3.2737e-06
2.8119e-05
-5.69256e-06
2.6823e-05
2.60048e-06
2.81998e-05
-2.76759e-06
3.75641e-05
-1.86107e-05
3.08056e-05
1.22178e-05
2.73396e-05
6.77293e-06
2.42612e-05
6.51489e-06
2.04477e-05
7.93432e-06
1.78376e-05
1.27504e-05
8.4529e-06
9.27317e-06
7.35663e-06
2.56905e-06
1.0761e-05
1.12095e-06
8.07464e-06
7.35603e-06
9.07234e-06
6.8751e-06
6.86513e-06
-1.24871e-06
5.71934e-06
-3.59291e-06
5.38411e-06
5.09902e-06
-2.00318e-05
2.72294e-05
-5.72741e-05
2.53875e-05
3.078e-06
2.20409e-05
9.46448e-06
2.70405e-05
-1.50074e-05
2.47396e-05
5.57459e-06
3.0239e-05
-1.1192e-05
2.78091e-05
5.03038e-06
2.84235e-05
-3.38194e-06
2.01949e-05
-1.03821e-05
2.56694e-05
6.74324e-06
1.69138e-05
1.55286e-05
1.29677e-05
1.04609e-05
5.48712e-06
1.54149e-05
6.63949e-06
1.1598e-05
7.91446e-06
7.9982e-06
6.3521e-06
4.13141e-06
3.39301e-06
4.08004e-06
4.51875e-06
6.23028e-06
3.65229e-06
7.74156e-06
2.57808e-06
-1.74499e-07
2.38903e-06
-3.40386e-06
7.77314e-06
-3.62526e-05
1.62206e-05
4.24858e-05
-0.000136013
3.02655e-05
1.52984e-05
2.38624e-05
1.58676e-05
2.8477e-05
-1.9622e-05
2.59176e-05
8.13396e-06
3.45849e-05
-1.98593e-05
3.01366e-05
9.47868e-06
3.12554e-05
-4.50077e-06
2.09468e-05
-7.35096e-08
1.05267e-05
1.71633e-05
1.27233e-05
1.3332e-05
3.85018e-06
1.93341e-05
7.96188e-06
1.13032e-05
8.04418e-06
1.15158e-05
9.61312e-06
6.42925e-06
9.10598e-06
4.63855e-06
7.23817e-06
5.94786e-06
4.72422e-06
8.74423e-06
3.62609e-06
8.83969e-06
2.83485e-06
6.16745e-07
2.57769e-06
-3.1467e-06
1.03508e-05
-2.30109e-06
1.85219e-05
2.01121e-05
-0.000158425
3.15087e-05
3.90145e-06
2.27238e-05
2.46524e-05
2.89971e-05
-2.5895e-05
2.64278e-05
1.07033e-05
4.27804e-05
-3.6212e-05
3.06233e-05
2.16359e-05
3.12917e-05
-5.16922e-06
2.39433e-05
7.27495e-06
2.41321e-05
1.69744e-05
5.33804e-06
3.21261e-05
6.72774e-06
1.79444e-05
4.7082e-06
1.33228e-05
-2.30737e-07
1.64547e-05
-3.40849e-07
6.53936e-06
3.02751e-08
4.26742e-06
-3.95369e-07
6.3735e-06
6.82044e-07
7.66682e-06
9.62001e-07
8.55973e-06
2.28059e-06
-7.01843e-07
3.33425e-06
-4.20037e-06
1.36851e-05
3.31179e-05
-1.45956e-05
3.56355e-05
-0.000160943
6.25402e-05
-2.30036e-05
-3.71442e-06
9.09073e-05
3.82107e-05
-6.78198e-05
3.78613e-05
1.10526e-05
5.77431e-05
-5.60939e-05
2.81918e-05
5.11871e-05
4.07827e-05
-1.77601e-05
4.97356e-05
-1.67788e-06
3.98482e-05
2.68619e-05
2.33224e-05
4.86518e-05
1.34186e-05
2.78482e-05
4.10768e-06
2.26337e-05
3.58742e-06
1.69749e-05
1.53447e-07
9.97334e-06
-1.59544e-06
6.01631e-06
-1.54618e-06
6.32424e-06
-3.2136e-06
9.33424e-06
-2.23318e-06
7.57932e-06
1.03486e-06
-3.96988e-06
3.63138e-06
-6.7969e-06
1.73165e-05
1.81166e-05
-3.27125e-05
3.23705e-05
-0.000175197
4.38337e-05
-3.44666e-05
2.9271e-06
0.000131814
1.20242e-06
-6.60954e-05
2.31788e-05
-1.09239e-05
2.7787e-05
-6.0702e-05
1.71066e-05
6.18676e-05
3.20648e-05
-3.27183e-05
4.72799e-05
-1.68929e-05
2.00828e-05
5.4059e-05
2.10669e-05
4.76677e-05
7.21142e-06
4.17037e-05
4.89383e-06
2.49513e-05
5.40229e-07
2.13286e-05
-2.24729e-07
1.07383e-05
-1.7894e-06
7.58097e-06
-2.46166e-06
6.99651e-06
-5.3035e-06
1.21761e-05
-3.07336e-06
5.34919e-06
2.59526e-06
-9.63851e-06
1.01847e-05
-1.43864e-05
2.75012e-05
6.45798e-06
-3.91706e-05
1.62801e-05
-0.000185019
2.99389e-05
-4.81252e-05
2.92205e-05
0.000132532
3.68005e-05
-7.36758e-05
3.02799e-05
-4.40331e-06
4.90182e-05
-7.94402e-05
1.48941e-05
9.59915e-05
2.58427e-05
-4.3667e-05
4.14364e-05
-3.24867e-05
3.90818e-05
5.64136e-05
1.06048e-05
7.61446e-05
5.4444e-06
4.68641e-05
-1.56198e-06
3.19577e-05
-8.80852e-06
2.85751e-05
-1.07627e-05
1.26925e-05
-5.51955e-06
2.33785e-06
-1.02557e-05
1.17327e-05
-1.47474e-05
1.66677e-05
-7.49766e-06
-1.90051e-06
8.12953e-06
-2.52657e-05
1.66315e-05
-2.28883e-05
4.41327e-05
-8.28702e-05
8.28702e-05
-0.000123848
4.09774e-05
-0.000139101
1.52537e-05
-0.000144489
5.38749e-06
-0.000145601
1.11226e-06
-0.000156184
1.05833e-05
-0.000147125
-9.05895e-06
-9.30419e-05
-5.40835e-05
-9.17123e-05
-1.32961e-06
-0.000110945
1.92329e-05
-7.59177e-05
-3.50274e-05
-0.000124622
4.87047e-05
-0.000112529
-1.20937e-05
-9.82611e-05
-1.42676e-05
-7.84192e-05
-1.98419e-05
-4.22415e-05
-3.61778e-05
1.03895e-06
-4.32805e-05
3.26687e-05
-3.16298e-05
3.26688e-05
-1.8906e-05
0.000101776
-4.3188e-05
6.52592e-05
-6.38374e-05
3.5903e-05
-6.33395e-05
4.88999e-06
-0.000118374
5.61468e-05
-0.000120656
1.28653e-05
-7.20128e-05
-5.77022e-05
-8.5571e-05
-4.05253e-05
-8.35206e-05
-3.38013e-06
-0.000109636
4.53482e-05
-0.000111094
-3.35689e-05
-6.05994e-05
-1.79035e-06
-8.7072e-05
1.43789e-05
-8.4951e-05
-1.63886e-05
-4.1861e-05
-6.2932e-05
-4.52744e-05
-3.27644e-05
-2.40944e-05
-6.44605e-05
4.86004e-06
-6.05843e-05
3.75288e-05
-1.78746e-05
0.000119651
-2.48745e-05
7.2259e-05
-1.86775e-05
2.9706e-05
-3.96083e-05
2.58207e-05
-8.32426e-05
9.97809e-05
-7.48088e-05
4.43148e-06
-7.59994e-05
-5.65114e-05
-0.000100062
-1.64625e-05
-9.94398e-05
-4.0025e-06
-5.88295e-05
4.73785e-06
-4.81515e-05
-4.42469e-05
-4.00561e-05
-9.88577e-06
-5.87438e-05
3.30666e-05
-4.99159e-05
-2.52165e-05
-5.38729e-05
-5.89749e-05
-3.56343e-05
-5.1003e-05
-1.62696e-05
-8.38252e-05
1.80045e-05
-9.48584e-05
5.55334e-05
-1.34985e-05
0.000133149
-2.94533e-05
8.82138e-05
-5.15747e-05
5.18272e-05
-5.63609e-05
3.06071e-05
-5.27173e-05
9.61372e-05
-4.77306e-05
-5.55255e-07
-5.73788e-05
-4.68633e-05
-4.89512e-05
-2.48901e-05
-4.27299e-05
-1.02238e-05
-8.28116e-06
-2.9711e-05
-2.70002e-05
-2.5528e-05
-5.85347e-05
2.16487e-05
-2.49073e-05
-5.60774e-07
-3.32482e-05
-1.68755e-05
-3.34526e-05
-5.87705e-05
-1.10221e-05
-7.34335e-05
-7.88507e-06
-8.69622e-05
2.31652e-06
-0.00010506
5.78498e-05
1.00559e-06
0.000132144
1.5558e-06
8.76637e-05
-2.15451e-05
7.49282e-05
-2.2889e-05
3.1951e-05
-8.87343e-06
8.21217e-05
-5.60867e-06
-3.81991e-06
-4.15794e-06
-4.83139e-05
-5.63474e-06
-2.34133e-05
1.75925e-05
-3.34512e-05
6.754e-05
-7.96585e-05
3.26257e-05
9.38637e-06
1.01615e-05
4.41129e-05
-6.64699e-06
1.62477e-05
-1.20521e-06
-2.23173e-05
-7.94603e-07
-5.91811e-05
-2.36018e-06
-7.18679e-05
-9.63442e-06
-7.9688e-05
-7.29992e-06
-0.000107394
5.05499e-05
6.08413e-06
0.00012606
1.6588e-05
7.71598e-05
2.15154e-05
7.00007e-05
3.53769e-06
4.99289e-05
4.05403e-05
4.51188e-05
8.9048e-05
-5.23279e-05
4.71747e-05
-6.44052e-06
7.70885e-05
-5.33272e-05
0.000102136
-5.84987e-05
6.48298e-05
-4.23522e-05
6.05301e-05
1.36861e-05
8.90437e-05
1.55993e-05
5.67664e-05
4.85251e-05
1.47358e-05
1.97132e-05
7.8527e-06
-5.2298e-05
3.7822e-06
-6.77975e-05
6.17727e-07
-7.65235e-05
-1.53301e-05
-9.14466e-05
3.52198e-05
8.43153e-06
0.000117628
2.17484e-05
6.38427e-05
5.16733e-05
4.00758e-05
0.000111761
-1.01586e-05
9.54701e-05
6.14088e-05
8.98061e-05
-4.66644e-05
6.29869e-05
2.03794e-05
5.64522e-05
-4.67926e-05
7.10315e-05
-7.30785e-05
7.33685e-05
-4.46892e-05
6.4521e-05
2.25335e-05
5.277e-05
2.73504e-05
3.96115e-05
6.16835e-05
2.85491e-05
3.07756e-05
2.31687e-05
-4.69176e-05
1.90026e-05
-6.36313e-05
1.48587e-05
-7.23796e-05
-8.58511e-06
-6.80028e-05
2.66347e-05
6.71292e-06
0.000110915
1.01119e-05
6.04437e-05
4.81784e-05
2.0093e-06
6.47083e-05
-2.66884e-05
0.000149674
-2.35571e-05
9.0764e-05
1.22452e-05
0.000129674
-1.85307e-05
0.000104269
-2.13866e-05
9.99944e-05
-6.88042e-05
6.79772e-05
-1.2672e-05
7.34603e-05
1.705e-05
5.8171e-05
4.26396e-05
5.28677e-05
6.69868e-05
4.32007e-05
4.04426e-05
3.86123e-05
-4.23292e-05
3.6098e-05
-6.1117e-05
2.2939e-05
-5.92207e-05
1.97093e-06
-4.70347e-05
2.86057e-05
4.68804e-06
-4.38586e-05
-7.17629e-06
-0.000173154
-3.33375e-05
-2.19639e-05
8.18594e-05
1.73353e-05
4.71408e-05
-3.89575e-05
3.24709e-05
1.02664e-05
1.69346e-05
-6.39041e-05
4.8599e-05
6.43269e-05
1.54344e-05
-1.05025e-05
5.09126e-05
-6.79648e-05
3.4457e-05
7.28692e-05
-7.09334e-07
0.000111311
-7.49602e-06
5.36508e-05
-1.13786e-05
3.58403e-05
-1.32672e-05
3.04637e-05
2.80791e-06
-3.38267e-06
9.56703e-06
-4.42128e-06
1.84912e-05
2.80854e-06
4.22034e-05
-7.04449e-06
6.15529e-05
-2.125e-05
5.27919e-05
-1.65047e-05
3.78553e-05
-7.95169e-06
1.59708e-05
6.60172e-05
2.18581e-05
-6.57168e-05
-3.68358e-05
-0.000114461
-5.46219e-05
-4.1777e-06
-8.41783e-06
-2.88685e-05
-1.12829e-05
-3.60922e-05
6.2091e-06
-7.22572e-06
-7.30914e-06
-5.03861e-05
1.96699e-05
3.73481e-05
4.11796e-05
-3.2012e-05
1.32621e-05
-4.00473e-05
3.73568e-05
4.87744e-05
5.23013e-05
9.63664e-05
2.16237e-05
8.43284e-05
2.74458e-05
3.00182e-05
2.1032e-05
3.68775e-05
1.45526e-06
1.61941e-05
1.50133e-05
-1.79793e-05
2.77832e-05
-9.96138e-06
4.49073e-05
-2.41686e-05
6.26101e-05
-3.89528e-05
4.50746e-05
1.03085e-06
4.29639e-05
-5.84104e-06
1.3358e-05
4.55767e-05
-3.79721e-05
-2.77447e-05
-6.53004e-05
-8.71323e-05
-1.98252e-05
-4.96529e-05
-1.65314e-05
-3.21622e-05
-2.11962e-05
-3.14274e-05
-3.36369e-05
5.21506e-06
-8.60927e-05
2.06975e-06
-6.83965e-05
1.96521e-05
-7.27705e-05
-2.76381e-05
-1.95556e-05
-9.32622e-05
1.2664e-05
1.65549e-05
3.76335e-05
7.13968e-05
4.39009e-05
7.80611e-05
4.45325e-05
2.93865e-05
8.64881e-05
-5.07812e-06
0.000124178
-2.14954e-05
0.000114647
-8.44915e-06
6.72987e-05
3.73874e-05
5.2712e-05
-9.5819e-06
2.99117e-05
-1.61526e-05
3.92263e-05
-8.28378e-06
3.85465e-05
-5.16121e-06
1.26292e-05
3.92753e-05
-1.52379e-05
-1.25068e-05
-6.6671e-05
-3.56992e-05
-8.42783e-05
-3.20456e-05
-9.49117e-05
-2.15288e-05
-0.000115122
-1.12173e-05
-0.000139072
2.91656e-05
-0.000161033
2.40307e-05
-0.000166399
2.5018e-05
-0.000105566
-8.84707e-05
-0.000109134
-8.96948e-05
-2.40162e-05
-6.85624e-05
2.13581e-05
2.60225e-05
1.8175e-05
8.12441e-05
3.98209e-05
7.74065e-06
5.99926e-05
-2.52498e-05
0.000116384
-7.78868e-05
0.000133054
-2.51188e-05
0.000154088
1.63527e-05
0.000100243
4.42634e-05
7.81927e-05
5.89771e-06
6.02596e-05
9.64927e-06
5.04138e-05
4.68467e-06
3.61314e-07
6.26816e-05
1.8854e-05
-3.13608e-05
-2.24212e-05
5.57595e-06
-4.8723e-05
-5.74381e-06
-5.54219e-05
-1.48299e-05
-8.98706e-05
2.32314e-05
-0.000131877
7.11722e-05
-0.000181797
7.39507e-05
-0.000155268
-1.51167e-06
-0.000195595
-4.81432e-05
-0.000151257
-0.000134033
-4.87164e-05
-0.000171103
3.73227e-05
-6.00167e-05
6.72072e-05
5.13595e-05
5.71652e-05
1.77827e-05
5.45028e-05
-2.25874e-05
3.9039e-05
-6.2423e-05
7.85154e-05
-6.45952e-05
0.000135109
-4.0241e-05
0.000171354
8.01798e-06
0.000161011
1.62413e-05
0.000149131
2.15287e-05
0.00013659
1.72264e-05
3.12003e-06
0.000133831
-2.05295e-05
-1.08313e-05
-8.35095e-06
-6.60262e-06
-2.48155e-05
1.07207e-05
-4.71475e-05
7.50215e-06
-7.87853e-05
5.48692e-05
-9.1043e-05
8.34299e-05
-6.74857e-05
5.03933e-05
-9.33252e-05
2.43277e-05
-0.000138626
-2.84291e-06
-0.000130892
-0.000141766
-8.38832e-05
-0.000218112
1.281e-05
-0.00015671
3.96605e-05
2.45089e-05
1.97446e-05
3.76987e-05
2.39507e-05
-2.67935e-05
6.1409e-05
-9.98813e-05
4.46397e-05
-4.78261e-05
8.78736e-05
-8.34748e-05
0.000182645
-8.67531e-05
0.000170198
2.86878e-05
0.000141569
5.01578e-05
0.000134107
2.46886e-05
-2.18098e-05
0.000159037
2.27842e-08
-1.0854e-05
-1.14731e-05
4.89325e-06
-2.7405e-05
2.66526e-05
-4.57292e-05
2.58263e-05
-3.54279e-05
4.45679e-05
-6.21573e-05
0.000110159
-0.000108623
9.68594e-05
-8.13991e-05
-2.89662e-06
-3.03548e-05
-5.38872e-05
-3.33079e-05
-0.000138813
-6.54787e-05
-0.000185941
-4.02867e-05
-0.000181902
4.84825e-05
-6.42602e-05
8.02701e-05
5.91115e-06
5.43416e-05
-8.64941e-07
1.52024e-05
-6.07422e-05
3.12372e-05
-6.38608e-05
1.81432e-05
-7.03808e-05
3.07187e-05
-9.93284e-05
6.77256e-05
-8.31938e-06
8.88048e-05
2.90786e-05
0.000123056
-9.56257e-06
-8.13828e-05
0.000182629
4.66115e-06
-1.55152e-05
-2.51988e-06
1.20743e-05
-8.23282e-06
3.23656e-05
-2.22309e-05
3.98243e-05
-3.06746e-05
5.30116e-05
-3.84593e-05
0.000117944
-1.03776e-05
6.87777e-05
-1.07092e-05
-2.56506e-06
1.27018e-05
-7.72982e-05
2.07556e-07
-0.000126319
-1.60352e-05
-0.000169698
-2.08082e-05
-0.000177129
4.23298e-05
-0.000127398
9.12793e-05
-4.30384e-05
7.76784e-05
1.2736e-05
3.98061e-05
-2.28699e-05
2.55231e-05
-4.95779e-05
1.87313e-05
-6.3589e-05
-3.03609e-05
-5.02362e-05
-5.57782e-06
-3.31025e-05
3.31722e-05
-9.67146e-06
5.55085e-05
-3.18987e-05
-0.000115834
8.99591e-05
1.81769e-06
-1.73329e-05
2.70733e-07
1.36212e-05
-8.2932e-06
4.09295e-05
-1.57802e-05
4.73114e-05
-8.92875e-06
4.61601e-05
-2.83514e-06
0.00011185
1.89168e-06
6.40509e-05
3.37285e-07
-1.01066e-06
4.98645e-06
-8.19474e-05
-2.65519e-05
-9.47806e-05
-4.92193e-05
-0.00014703
4.60802e-05
-0.000272428
4.25459e-05
-0.000123864
5.6562e-05
-5.70545e-05
8.13378e-05
-1.20397e-05
7.09081e-05
-1.24402e-05
5.85661e-05
-3.72359e-05
2.06677e-05
-2.56906e-05
4.31656e-06
-3.38851e-05
-1.0729e-06
-2.77131e-05
1.8709e-05
-2.94533e-05
5.50301e-05
-6.82197e-05
-7.35949e-05
1.27913e-05
-1.4533e-06
-1.58795e-05
3.08842e-07
1.18591e-05
6.45543e-06
3.47829e-05
-6.53565e-06
6.03025e-05
-9.54125e-06
4.91657e-05
4.25497e-05
5.97595e-05
2.76876e-05
7.89129e-05
3.67566e-05
-1.00796e-05
4.36371e-05
-8.88279e-05
2.50344e-05
-7.61778e-05
-1.35798e-05
-0.000108416
-6.70036e-06
-0.000279308
1.7997e-05
-0.000148562
4.66966e-05
-8.57542e-05
5.09074e-05
-1.62504e-05
5.23652e-05
-1.3898e-05
3.17141e-05
-1.65848e-05
1.84527e-05
-1.24292e-05
-6.11128e-06
-9.32106e-06
-1.64671e-05
-1.73572e-05
-2.32773e-05
-2.26431e-05
-5.72709e-05
-3.42261e-05
-7.72674e-05
-5.35984e-05
-4.90103e-06
-1.09785e-05
-4.38235e-06
1.13404e-05
6.6603e-06
2.37403e-05
1.77296e-05
4.92331e-05
3.1068e-05
3.58274e-05
4.74235e-05
4.3404e-05
6.37891e-05
6.25473e-05
6.98531e-05
-1.61436e-05
5.67585e-05
-7.57332e-05
5.71888e-05
-7.66081e-05
2.17708e-05
-7.29985e-05
1.24275e-06
-0.00025878
-7.3364e-06
-0.000139982
2.86036e-06
-9.59509e-05
3.77056e-06
-1.71606e-05
-1.49528e-06
-8.63218e-06
-5.67804e-06
-1.2402e-05
-1.18864e-07
-1.79883e-05
-5.45004e-07
-8.89491e-06
-1.66131e-05
-1.2891e-06
-3.79694e-05
-1.28678e-06
-5.16898e-05
-2.05057e-05
-7.46166e-05
-5.43406e-05
-6.34226e-06
-4.63624e-06
-7.44613e-06
1.24443e-05
7.03944e-06
9.25474e-06
2.5825e-05
3.04476e-05
5.01739e-05
1.14785e-05
6.20687e-05
3.15093e-05
0.000108349
1.62668e-05
0.000110134
-1.7928e-05
9.93661e-05
-6.49658e-05
8.95895e-05
-6.68315e-05
3.51852e-05
-1.85942e-05
5.41911e-06
-0.000229014
-2.12148e-05
-0.000113348
-5.359e-06
-0.000111807
-1.06975e-05
-1.18221e-05
-2.00859e-05
7.56198e-07
-1.78379e-05
-1.465e-05
-2.25627e-05
-1.32636e-05
-1.99609e-05
-1.14967e-05
-1.96476e-05
-1.6024e-06
-1.89087e-05
-2.02565e-06
-2.17902e-05
-1.76242e-05
-6.5714e-05
-3.06928e-05
-3.72518e-06
-9.11053e-07
-8.50698e-07
9.56984e-06
2.229e-06
6.17505e-06
1.97508e-05
1.29257e-05
2.40495e-05
7.17984e-06
5.75984e-05
-2.03959e-06
7.15147e-05
2.35041e-06
7.93194e-05
-2.57327e-05
6.00204e-05
-4.56668e-05
6.81126e-05
-7.49238e-05
9.88231e-05
-4.93047e-05
9.00758e-06
-0.000139198
-5.99686e-06
-9.83437e-05
-3.93304e-05
-7.84732e-05
-3.04253e-05
-2.07273e-05
-3.84304e-05
8.76135e-06
-4.10468e-05
-1.20336e-05
-3.81198e-05
-1.61906e-05
-4.29157e-05
-6.70075e-06
-4.0562e-05
-3.9561e-06
-3.48066e-05
-7.78109e-06
-3.33876e-05
-1.90432e-05
-5.06812e-05
-4.84204e-05
-2.90338e-06
1.99234e-06
2.16121e-06
4.50526e-06
5.54231e-06
2.79396e-06
1.92956e-05
-8.27516e-07
3.26083e-05
-6.13289e-06
3.43914e-05
-3.82272e-06
4.6312e-05
-9.57012e-06
7.01666e-05
-4.95873e-05
5.94601e-05
-3.49602e-05
4.16307e-05
-5.70943e-05
5.844e-05
-6.61141e-05
1.25116e-05
-9.32701e-05
-1.17925e-05
-7.40395e-05
-4.51429e-05
-4.51227e-05
-4.92159e-05
-1.66543e-05
-3.68349e-05
-3.61959e-06
-3.2479e-05
-1.63895e-05
-4.76538e-05
-1.01587e-06
-4.86533e-05
-5.70118e-06
-5.15761e-05
-1.03333e-06
-4.82887e-05
-1.10685e-05
-5.59837e-05
-1.13481e-05
-3.29767e-05
-7.36883e-05
-2.65788e-06
4.65022e-06
1.70527e-06
1.42127e-07
7.80789e-06
-3.30865e-06
1.5182e-05
-8.20164e-06
2.38613e-05
-1.48122e-05
2.98609e-05
-9.82232e-06
4.02604e-05
-1.99696e-05
4.90999e-05
-5.84268e-05
5.73746e-05
-4.32349e-05
3.33405e-05
-3.30601e-05
3.94344e-05
-7.2208e-05
3.81236e-07
-5.42169e-05
-1.21428e-05
-6.15155e-05
-3.50177e-05
-2.22478e-05
-4.30964e-05
-8.57557e-06
-3.08962e-05
-1.58198e-05
-3.88581e-05
-8.42761e-06
-2.911e-05
-1.07639e-05
-3.22965e-05
-2.51469e-06
-3.38091e-05
4.79277e-07
-5.06769e-05
5.7993e-06
-5.99408e-05
-2.0842e-06
-8.77426e-06
-8.41434e-05
5.36925e-07
4.11331e-06
3.66291e-06
-2.98385e-06
7.34193e-06
-6.98766e-06
8.21418e-06
-9.07389e-06
1.15086e-05
-1.81066e-05
1.72167e-05
-1.55304e-05
1.60024e-05
-1.87553e-05
1.97565e-05
-6.21809e-05
1.61585e-05
-3.96369e-05
1.65717e-05
-3.34733e-05
-2.92657e-06
-5.27098e-05
-3.70258e-06
-5.34409e-05
-2.97825e-05
-3.54356e-05
-3.57094e-05
-1.63209e-05
-3.76358e-05
-6.64916e-06
-3.2077e-05
-2.13786e-05
-4.24207e-05
1.91609e-06
-4.50638e-05
-8.12081e-06
-4.89267e-05
1.34816e-06
-4.83282e-05
-1.19155e-07
-4.70036e-05
4.47472e-06
-3.39279e-05
-1.516e-05
-5.87924e-06
-3.68229e-05
1.78663e-06
2.32668e-06
5.16325e-06
-6.36045e-06
4.34944e-06
-6.17384e-06
5.911e-06
-1.06354e-05
5.45054e-06
-1.76461e-05
8.04078e-06
-1.81206e-05
2.14643e-05
-3.21788e-05
-7.08129e-07
-4.00085e-05
-2.77931e-06
-3.75657e-05
-1.85161e-06
-3.4401e-05
-9.36299e-06
-4.51984e-05
-4.21006e-05
-2.07033e-05
-5.36095e-05
-2.39266e-05
-3.70874e-05
-3.28431e-05
-3.5376e-05
-8.36055e-06
-5.12363e-05
-5.51827e-06
-4.88223e-05
-4.97846e-07
-5.02327e-05
-6.71043e-06
-4.8222e-05
-6.62568e-07
-3.41715e-05
-1.41697e-05
-3.06795e-05
9.82789e-07
-3.88039e-05
-7.0356e-06
5.69196e-06
-5.03751e-05
4.85113e-06
-2.52444e-06
2.87768e-06
-4.387e-06
4.14882e-06
-7.44497e-06
2.54153e-06
-9.02815e-06
3.65154e-06
-1.87561e-05
1.75209e-06
-1.62212e-05
2.65326e-06
-3.308e-05
-5.02418e-06
-3.2331e-05
-1.28723e-05
-2.97176e-05
-1.69329e-05
-3.03405e-05
-3.72112e-05
-2.492e-05
-3.02693e-05
-2.76452e-05
-3.40722e-05
-2.01237e-05
-4.14902e-05
-2.54251e-05
-3.60162e-05
-1.38345e-05
-3.8178e-05
-3.35643e-06
-3.49537e-05
-3.72212e-06
-3.75446e-05
-4.11954e-06
-2.39792e-05
-1.4228e-05
-2.91856e-05
-8.96319e-06
-2.68998e-05
-1.30297e-06
-3.13121e-05
-2.62334e-06
2.80477e-06
-2.84249e-05
3.49346e-06
-6.01789e-06
5.3142e-06
-6.20773e-06
3.19136e-06
-5.32212e-06
1.72718e-06
-7.56396e-06
-6.60619e-06
-1.04227e-05
-9.29962e-06
-1.35277e-05
-1.17292e-05
-3.06504e-05
-7.4217e-06
-3.66385e-05
-1.89371e-05
-1.82021e-05
-2.81092e-05
-2.11684e-05
-1.56013e-05
-3.74279e-05
-2.05316e-05
-2.27148e-05
-2.34016e-05
-1.72536e-05
-2.80205e-05
-2.08062e-05
-2.56114e-05
-1.62437e-05
-2.19387e-05
-7.0291e-06
-2.31322e-05
-2.52863e-06
-2.39075e-05
-3.3442e-06
-3.45011e-05
-3.63445e-06
-4.04362e-05
-3.02808e-06
-3.07476e-05
-1.09915e-05
-2.97687e-05
-3.60227e-06
1.25397e-05
-3.95036e-05
2.71419e-06
-8.73207e-06
3.13345e-06
-6.62698e-06
3.91409e-06
-6.10275e-06
-9.66263e-08
-3.55324e-06
-1.44925e-06
-9.07012e-06
-3.43662e-06
-1.15404e-05
-5.73928e-06
-2.83477e-05
-1.24069e-05
-2.99709e-05
-1.57393e-05
-1.48697e-05
-2.11498e-05
-1.5758e-05
-2.66298e-05
-3.19479e-05
-3.51505e-05
-1.41941e-05
-2.48579e-05
-2.75462e-05
-2.34266e-05
-2.22376e-05
-3.40538e-05
-5.61642e-06
-3.29216e-05
-8.16126e-06
-2.33757e-05
-1.20745e-05
-2.5483e-05
-1.2369e-06
-2.64926e-05
-2.62486e-06
-2.73749e-05
-2.14579e-06
-3.88959e-05
5.2959e-07
-4.49487e-05
2.45045e-06
-5.93413e-06
-2.64748e-05
1.07715e-06
-9.80922e-06
1.69052e-06
-7.24035e-06
1.49044e-06
-5.90266e-06
1.445e-06
-3.50779e-06
2.26384e-06
-9.88895e-06
5.85978e-06
-1.51363e-05
-5.48185e-06
-1.70061e-05
-6.40935e-06
-2.90434e-05
-7.73959e-06
-1.35395e-05
-1.04921e-05
-1.30054e-05
-2.48995e-05
-1.75404e-05
-2.00288e-05
-1.90649e-05
-3.39193e-05
-1.36557e-05
-3.41949e-05
-2.1962e-05
-3.47145e-05
-5.0968e-06
-3.27596e-05
-1.01161e-05
-3.68764e-05
-7.95772e-06
-2.47579e-05
-1.33554e-05
-2.3768e-05
-3.61476e-06
-2.28258e-05
-3.08803e-06
-2.27038e-05
4.07623e-07
-2.22515e-05
1.99819e-06
-5.00611e-06
-2.31796e-05
2.52718e-07
-1.00619e-05
7.43469e-07
-7.73109e-06
1.40718e-06
-6.56636e-06
8.54043e-07
-2.95465e-06
7.98576e-07
-9.83347e-06
3.88356e-06
-1.82213e-05
1.78519e-06
-1.49077e-05
-1.06601e-05
-1.65981e-05
-8.89873e-06
-1.53008e-05
-8.32616e-06
-1.3578e-05
-9.92987e-06
-1.59367e-05
-1.31007e-05
-1.58941e-05
-1.37994e-05
-1.29569e-05
-2.47076e-05
-1.10539e-05
-1.70537e-05
-1.27507e-05
-1.62009e-05
-1.0969e-05
-1.67763e-05
-7.38227e-06
-2.00114e-05
-1.01202e-05
-2.09647e-05
-2.66148e-06
-2.14297e-05
-2.623e-06
-2.10397e-05
1.76072e-08
-2.18234e-05
2.78184e-06
1.00599e-06
-2.78354e-05
-1.26907e-06
-8.79285e-06
-1.81829e-06
-7.18187e-06
-1.53007e-06
-6.85458e-06
5.9318e-06
-1.04165e-05
3.2785e-06
-7.18017e-06
-2.19255e-06
-1.27502e-05
-5.35172e-06
-1.17485e-05
-6.18038e-06
-1.57695e-05
-5.90652e-06
-1.55746e-05
-5.74076e-06
-1.37437e-05
-8.399e-06
-1.32785e-05
-1.21272e-05
-1.21659e-05
-1.7659e-05
-7.42511e-06
-1.93422e-05
-9.37064e-06
-1.48808e-05
-1.7212e-05
-1.81249e-05
-7.72494e-06
-1.74204e-05
-8.08677e-06
-1.75928e-05
-9.94779e-06
-1.62225e-05
-4.03177e-06
-1.80316e-05
-8.13881e-07
-1.84394e-05
4.25385e-07
-1.79591e-05
2.30154e-06
2.98114e-06
-1.99342e-05
-4.59972e-06
-4.19312e-06
2.83338e-07
-1.20649e-05
2.40523e-06
-8.97646e-06
1.46576e-06
-9.47705e-06
4.72554e-06
-1.04399e-05
2.50801e-06
-1.05327e-05
-6.43209e-07
-8.59732e-06
-4.17145e-06
-1.22412e-05
-8.1939e-06
-1.15522e-05
-1.11175e-05
-1.08201e-05
-1.30693e-05
-1.13267e-05
-1.47812e-05
-1.04539e-05
-1.47085e-05
-7.49782e-06
-1.5906e-05
-8.17314e-06
-2.39287e-05
-9.18935e-06
-1.4036e-05
-1.76176e-05
-1.36228e-05
-8.5e-06
-1.9147e-05
-4.42357e-06
-1.58505e-05
-7.32819e-06
-1.69209e-05
2.5646e-07
-1.59366e-05
-5.58888e-07
-1.63862e-05
2.75115e-06
4.10875e-06
-1.75138e-05
1.17221e-06
-5.36533e-06
2.98262e-07
-1.1191e-05
-8.93854e-07
-7.78434e-06
-1.80282e-06
-8.56807e-06
-2.81033e-06
-9.43244e-06
3.36734e-07
-1.36797e-05
3.55807e-06
-1.18186e-05
-2.86363e-08
-8.65449e-06
-3.21801e-06
-8.36282e-06
-5.50777e-06
-8.53037e-06
-9.18996e-06
-7.6445e-06
-1.19488e-05
-7.69509e-06
-1.15841e-05
-7.86248e-06
-9.66996e-06
-1.00873e-05
-9.72778e-06
-9.13152e-06
-1.62481e-05
-1.10973e-05
-2.23787e-05
-2.36936e-06
-1.75233e-05
-9.27897e-06
-2.12571e-05
-3.59436e-06
-1.51015e-05
-5.8992e-06
-1.63727e-05
7.12327e-07
-1.4389e-05
7.67435e-07
5.44789e-06
-1.57281e-05
-9.45776e-08
-5.27075e-06
-3.60101e-07
-1.09254e-05
5.85257e-07
-8.72969e-06
-3.43954e-08
-7.94841e-06
-8.1725e-07
-8.64958e-06
-2.98157e-06
-1.15154e-05
-4.75794e-06
-1.00423e-05
-4.81225e-06
-8.60018e-06
-7.27473e-06
-5.90033e-06
-1.01013e-05
-5.70378e-06
-8.33454e-06
-9.41127e-06
-6.87426e-06
-9.15537e-06
-4.29313e-06
-1.04436e-05
-8.2409e-06
-6.13952e-06
-9.69579e-06
-7.67662e-06
-1.52471e-05
-5.54604e-06
-9.94799e-06
-7.66843e-06
-1.45994e-05
-4.62759e-06
-1.27654e-05
-5.42835e-06
-1.2612e-05
-6.05254e-06
-1.24274e-05
5.27753e-07
-1.22279e-05
5.67906e-07
1.31578e-05
-1.99378e-05
4.52213e-07
-5.72296e-06
3.85485e-07
-1.08587e-05
5.18921e-08
-8.3961e-06
-6.80145e-07
-7.21637e-06
-9.72399e-07
-8.35732e-06
-4.51112e-07
-1.20367e-05
-1.16122e-06
-9.33217e-06
-3.08008e-06
-6.68131e-06
-4.02195e-06
-4.95846e-06
-4.65694e-06
-5.06878e-06
-6.47122e-06
-7.59698e-06
-8.19794e-06
-7.42865e-06
-1.06029e-05
-8.03865e-06
-7.66642e-06
-9.07597e-06
-1.17052e-05
-3.63784e-06
-8.3567e-06
-8.89454e-06
-1.35532e-05
-2.47195e-06
-8.90366e-06
-9.2771e-06
-1.33082e-05
-1.02379e-06
-1.71332e-05
-2.22756e-06
-1.21133e-05
-4.4921e-06
-2.30227e-05
1.14773e-05
1.71084e-06
-1.15757e-05
5.74804e-08
-5.78043e-06
-1.60023e-07
-1.06412e-05
-3.85832e-08
-8.51753e-06
-1.32165e-06
-5.9333e-06
-1.8046e-06
-7.87437e-06
-1.91464e-06
-1.19266e-05
-2.7272e-06
-8.5196e-06
-3.42289e-06
-5.98561e-06
-4.25678e-06
-4.12457e-06
-4.40674e-06
-4.91881e-06
-4.05156e-06
-7.95216e-06
-5.91598e-06
-5.56422e-06
-7.38326e-06
-6.57137e-06
-8.48413e-06
-7.9751e-06
-1.08575e-05
-1.26449e-06
-6.43436e-06
-1.33176e-05
-1.07907e-05
1.88442e-06
-1.14145e-05
-8.65332e-06
-1.17624e-05
-6.75907e-07
-1.12192e-05
-2.77076e-06
-1.79778e-05
2.26651e-06
-1.07808e-05
4.28035e-06
7.51153e-06
-1.65815e-05
4.8007e-07
-6.2605e-06
6.83068e-07
-1.08442e-05
7.91455e-07
-8.62591e-06
-4.04571e-07
-4.73727e-06
-1.20869e-06
-7.07024e-06
-1.49266e-06
-1.16427e-05
-1.90861e-06
-8.10364e-06
-2.27699e-06
-5.61723e-06
-1.58805e-06
-4.81351e-06
-1.30143e-06
-5.20543e-06
-4.47963e-06
-4.77396e-06
-4.31095e-06
-5.7329e-06
-4.73003e-06
-6.15229e-06
-5.81606e-06
-6.88907e-06
-3.93164e-06
-3.1489e-06
-1.06938e-05
-6.55553e-06
-8.19628e-06
-6.13056e-07
-1.29246e-05
-3.92502e-06
-8.804e-06
-4.79647e-06
-8.9899e-06
-2.58485e-06
-1.39142e-05
7.19079e-06
-1.01576e-05
5.23826e-07
7.2105e-06
-9.85663e-06
1.28416e-07
-6.38891e-06
-6.59252e-08
-1.06498e-05
-1.19415e-07
-8.57242e-06
-1.88476e-06
-2.97192e-06
-2.66545e-06
-6.28955e-06
-1.87913e-06
-1.2429e-05
-2.16114e-06
-7.82163e-06
-2.22936e-06
-5.549e-06
-3.12059e-06
-3.92228e-06
-3.44878e-06
-4.87723e-06
-3.49992e-06
-4.72282e-06
-3.27895e-06
-5.95386e-06
-4.10369e-06
-5.32755e-06
-4.88837e-06
-6.10437e-06
-5.04625e-06
-2.99102e-06
-9.19091e-06
-2.41087e-06
-9.50715e-06
-2.96817e-07
-1.18513e-05
-1.58086e-06
-1.28058e-05
-3.84193e-06
-1.50101e-05
-3.80624e-07
-8.88199e-06
1.06272e-06
-1.45973e-05
6.23908e-06
2.20724e-06
-9.59399e-06
4.22893e-07
-6.8118e-06
5.60101e-07
-1.07871e-05
1.04685e-06
-9.05917e-06
1.12165e-06
-3.04671e-06
1.48686e-06
-6.65476e-06
-2.98351e-06
-7.95862e-06
-5.53161e-06
-5.27353e-06
-4.51577e-06
-6.56483e-06
-4.19416e-06
-4.24389e-06
-4.19133e-06
-4.88006e-06
-3.03478e-06
-5.87936e-06
-3.73539e-06
-5.25325e-06
-4.09052e-06
-4.97242e-06
-4.16645e-06
-6.02844e-06
-4.31982e-06
-2.83765e-06
-6.3562e-06
-3.74475e-07
-5.36644e-06
-1.28658e-06
-1.03331e-05
3.38576e-06
-7.37116e-06
-6.80382e-06
-8.77862e-06
1.02684e-06
-9.42779e-06
1.71189e-06
-7.43581e-06
4.24712e-06
6.90723e-06
-1.21358e-05
5.47247e-09
-6.81727e-06
-8.07029e-09
-1.07735e-05
1.67666e-07
-9.2349e-06
2.45636e-08
-2.9036e-06
-8.08744e-07
-5.82144e-06
-1.8979e-06
-6.86946e-06
-1.79306e-06
-5.37836e-06
-3.02231e-08
-8.32767e-06
-6.37206e-07
-3.6369e-06
-1.83793e-06
-3.67933e-06
-1.94307e-06
-5.77421e-06
-2.71267e-06
-4.48364e-06
-3.51003e-06
-4.17506e-06
-3.70156e-06
-5.83691e-06
-5.70396e-06
-8.35249e-07
-4.1769e-06
-1.90153e-06
-6.20624e-06
7.42767e-07
-5.13935e-06
2.31887e-06
-1.0688e-05
-1.25513e-06
-1.10113e-05
1.35007e-06
-1.27211e-05
3.42175e-06
-7.65041e-06
-8.23603e-07
5.25441e-06
-5.99758e-06
1.36685e-07
-6.95395e-06
3.31388e-07
-1.09682e-05
6.37138e-07
-9.54065e-06
6.74758e-07
-2.94122e-06
1.13638e-06
-6.28307e-06
-2.05775e-06
-3.67533e-06
-2.31396e-06
-5.12215e-06
-2.86148e-06
-7.78014e-06
-2.15555e-06
-4.34284e-06
-1.46632e-06
-4.36856e-06
-3.00613e-06
-4.2344e-06
-2.56073e-06
-4.92904e-06
-2.78801e-06
-3.94777e-06
-3.34149e-06
-5.28343e-06
-2.66555e-06
-1.51119e-06
-4.08864e-06
-4.78433e-07
-4.65372e-06
1.30785e-06
-4.04854e-06
1.71369e-06
-7.84202e-06
2.53835e-06
-9.3151e-06
2.82315e-06
-7.5825e-06
1.68915e-06
-1.17967e-05
3.39058e-06
-2.04471e-06
-4.49755e-06
-2.9917e-07
-6.65478e-06
-4.06173e-07
-1.08612e-05
-7.38366e-07
-9.20845e-06
-9.237e-07
-2.75589e-06
-1.85261e-06
-5.35416e-06
7.49794e-07
-6.27772e-06
2.9646e-07
-4.66882e-06
-2.52105e-07
-7.23158e-06
-4.97508e-07
-4.09743e-06
-1.04375e-06
-3.82232e-06
-8.98722e-07
-4.37942e-06
-3.3999e-06
-2.42786e-06
-2.79905e-06
-4.54862e-06
-2.78211e-06
-5.30037e-06
-1.8927e-06
-2.40059e-06
-2.35082e-06
-2.03135e-08
-2.73672e-06
1.69375e-06
-3.76569e-06
2.74266e-06
-5.66673e-06
4.43939e-06
-3.71855e-06
8.74973e-07
-8.27232e-06
6.24292e-06
-5.9718e-06
1.09005e-06
-3.129e-07
-7.70361e-06
-1.78073e-07
-6.47671e-06
-5.42938e-07
-1.04963e-05
-4.56666e-07
-9.29472e-06
-8.24674e-07
-2.38788e-06
-3.31947e-07
-5.84689e-06
4.9644e-07
-7.10611e-06
-6.52447e-07
-3.51993e-06
-4.43397e-06
-3.45005e-06
-2.74502e-06
-5.78638e-06
-2.11095e-06
-4.45638e-06
-1.85822e-06
-4.63215e-06
-2.11681e-06
-2.16927e-06
-2.44863e-06
-4.21678e-06
-2.79868e-06
-4.95033e-06
-2.42556e-06
-2.77371e-06
-2.1957e-06
-2.50173e-07
-2.34054e-06
1.8386e-06
-3.36972e-06
3.77185e-06
-3.9232e-06
4.99287e-06
-5.49108e-06
2.44285e-06
-5.37592e-06
6.12775e-06
-5.88655e-06
1.60069e-06
2.29499e-06
-8.49444e-06
-4.02872e-07
-6.07383e-06
-7.06249e-07
-1.0193e-05
-1.50191e-07
-9.85078e-06
-1.33539e-07
-2.40453e-06
-2.31771e-06
-3.66272e-06
-1.30606e-06
-8.11776e-06
-7.58503e-07
-4.06748e-06
-1.79407e-06
-2.41449e-06
-1.07829e-06
-6.50216e-06
-1.37832e-06
-4.15636e-06
-2.35372e-06
-3.65675e-06
-2.25041e-06
-2.27258e-06
-2.22204e-06
-4.24516e-06
-2.63505e-06
-4.53731e-06
-2.00853e-06
-3.40024e-06
-2.27268e-06
1.39795e-08
-2.23397e-06
1.79988e-06
-2.46367e-06
4.00154e-06
-2.17607e-06
4.70527e-06
-3.87884e-06
4.14562e-06
-3.43688e-06
5.68579e-06
-4.05557e-06
2.21937e-06
2.72097e-06
-4.48155e-06
-3.42472e-07
-5.73136e-06
-5.55717e-07
-9.97971e-06
-6.61773e-07
-9.74473e-06
2.53646e-07
-3.31995e-06
-1.05191e-06
-2.35716e-06
-1.25937e-06
-7.9103e-06
-1.49075e-06
-3.8361e-06
-2.28824e-06