/*--------------------------------*- C++ -*----------------------------------*\
| =========                 |                                                 |
| \\      /  F ield         | foam-extend: Open Source CFD                    |
|  \\    /   O peration     | Version:     4.1                                |
|   \\  /    A nd           | Web:         http://www.foam-extend.org         |
|    \\/     M anipulation  |                                                 |
\*---------------------------------------------------------------------------*/
FoamFile
{
    version     2.0;
    format      ascii;
    class       volScalarField;
    location    "0.6";
    object      psi;
}
// * * * * * * * * * * * * * * * * * * * * * * * * * * * * * * * * * * * * * //

dimensions      [1 -1 -2 0 0 0 0];

internalField   nonuniform List<scalar> 
2268
(
-0.671238
-100.027
-8.61974
-0.63453
-0.434482
-0.182624
-0.177771
-0.475926
-0.613694
-4.72695
-4.99456
-4.87318
-4.23071
-3.04105
-1.77621
-0.974409
-0.462135
-0.158347
-0.0730014
-2.61589
-32.4526
-379.797
-993.185
-24.9138
-1300.28
-146.36
-11.3555
-13.0155
-4.55865
-3.4123
-7.06501
-7.99234
-28.1496
-20.1394
-16.2132
-12.4757
-10.0358
-5.9825
-4.37024
-2.20763
-1.01326
-0.337204
-0.527628
-0.51868
-14.2255
-355.071
-459.023
-1958.7
-1069.21
-95.2805
-178.227
-56.7367
-37.7737
-52.9349
-43.6828
-69.3185
-55.1132
-42.2953
-47.4675
-39.7431
-21.1746
-9.87971
-4.92092
-2.27107
-0.851074
-0.708508
-2.18854
-36.291
-245.131
-2813.79
2845.13
-2857.35
-564.47
-1287.2
-431.848
-324.296
-239.619
-235.631
-182.646
-138.969
-198.966
-228.65
-183.471
-133.725
-72.8729
-48.6313
-27.234
-12.6768
-3.6438
-4.70311
-30.4441
-234.727
-2838.83
2787.51
-2247.94
-1073.41
-2497.25
-1552.11
-1989.38
-1068.35
-1116.29
-588.841
-368.933
-514.203
-520.803
-556.654
-464.206
-276.299
-178.264
-77.5415
-37.6124
-11.9656
-9.93853
-27.2251
-229.994
-1422.62
2507.06
425.324
-2814.23
2847.59
-2845.75
-334.846
-2849.9
-1997.15
-2846.91
-1605.23
-852.078
-906.068
-1091.59
-1069.77
-802.661
-492.741
-206.739
-112.08
-43.6722
-26.7778
-36.0793
-236.14
-158.101
2774.15
1257.77
-2851.83
2850.82
-2802.35
2854.64
-2767.48
2854.12
-242.304
-2714.43
-1207.64
-1409.45
-1536.01
-1644.18
-1190
-860.209
-432.88
-270.689
-165.554
-233.883
-103.963
-202.664
-70.2097
2831.68
388.501
-2634.55
2829.91
1388.61
2662.94
453.017
2471.92
2667.82
-1951.54
-2194.99
-1926.69
-2107.31
-2170.22
-1327.49
-1004.93
-621.306
-523.124
-687.174
-1591.43
-852.272
-249.694
1505.65
-138.116
-617.338
-706.794
-709.311
-620.113
-501.338
-460.6
-431.462
-737.185
-1310.54
-1761.81
-2014.39
-2051.67
-1985.73
-1470.46
-1016.47
1221.74
2720.99
1965.11
1511.57
1745.41
1136.46
-608.341
-619.875
-236.17
-727.409
-1132.96
-1349.45
-1848.48
-2410.11
-2673.68
-2663.2
-2633.89
-2320.25
-1025.26
1468.99
2842.2
2492.38
2821.59
2856.26
1415.11
-266.502
266.616
1400.46
824.152
222.154
295.303
1659.21
-2359.27
-2572.62
-2431.58
-2636.67
-2703.21
-2574.72
-1944.97
2754.78
2805.09
2500.66
2839.22
1180.61
51.2902
749.699
2662.65
2775.33
970.222
2462.09
2786.49
-1409.62
-2272.74
-1391.57
-2384.61
-2751.11
-2753.88
-2504.58
2572.47
2816.33
2139.57
1828.19
2852.57
736.188
2337.11
2561.8
2039.38
2826.91
2787.75
2851.44
2531.67
-47.4369
282.323
-1329.22
-2630.04
-2758.1
-2437.13
2387.16
2817.14
2215.45
939.021
1077.67
2716.48
2267.43
1691.15
1316.23
1673
2321.97
2857.68
2827.8
2701.99
1813.59
-533.347
-2296.7
-2727.23
-2420.11
1990.22
2819.17
2223.18
629.802
857.24
1607.97
1335.78
890.111
1224.92
2200.38
2783.09
2628.49
2715.98
2679.94
1962.51
74.4216
-1843.38
-2604.62
-2645.49
986.635
2831.6
1768.32
808.474
1629.27
1532.3
1525.01
1861.3
2404.39
2558.23
2137.77
2660.88
2776.12
2641.92
2122.39
424.46
-1504.9
-2455.29
-2677.54
-234.315
-344.736
2853.17
568.789
1400.96
2116.58
2845.75
1679.47
2771.67
1780.02
2829.43
-1456.9
-2515.1
-2818.2
-2842.57
-2827.4
-2596.62
-2394.95
-2005.67
-1988.17
-2370.32
-2853.01
-2798.72
-1316.77
-702.728
2826.67
2718.56
2396.59
1285.61
1557.68
957.786
1226.45
984.787
1976.09
1179.24
-2835.6
-2615.05
-874.089
-1125.36
-1414.68
-2222.21
-2569.05
-2469.36
-2212.41
-1886.97
-1896.1
-2801.95
1656.09
1950.68
1727.5
1230.86
920.846
902.326
668.954
653.149
599.868
882.961
2803.96
-36.5497
-348.267
1733.65
2695.9
2801.69
2557.49
152.916
-155.543
-362.47
-725.999
-713.365
-1440.96
1687.46
1586.19
764.004
714.128
651.04
526.973
417.153
394.616
418.741
672.484
1441.82
2761.68
2542.04
2660.99
2127.33
2125.93
2485.15
2857.36
2704.98
1435.12
264.978
221.127
92.198
1068.57
1878.3
504.773
541.005
516.828
461.116
374.41
358.978
388.716
428.771
608.76
1502.79
2399.2
1537.59
1406.68
1684.69
2473.85
2614.95
2819.63
2737.85
2215.98
2240.1
2442.96
411.127
2516.87
401.757
359.66
408.579
418.77
383.165
311.497
261.931
160.165
310.96
467.522
984.98
1152.96
1450.39
1435.57
2462.7
1912.15
2266.08
2842.44
2811.98
2857.66
2800
2423.04
248.344
205.471
245.83
302.611
346.263
336.407
246.791
192.322
49.7416
141.073
301.415
419.671
618.189
640.626
523.407
790.924
500.837
537.12
2075.05
2042.52
1385.65
1172.58
107.246
91.4129
133.557
174.759
208.942
272.639
284.897
205.317
142.763
21.1493
42.7271
127.935
238.08
305.659
276.112
261.048
260.987
166.243
130.614
483.743
779.751
413.159
530.508
24.0086
26.1686
46.6185
122.508
151.452
183.69
197.49
152.056
59.8986
11.0197
27.4256
71.7427
112.391
199.657
224.731
207.861
148.794
74.7126
47.3347
79.6416
151.393
182.27
424.055
12.2235
11.4144
15.7709
56.1191
93.0936
109.937
110.728
79.3695
25.4719
5.4535
11.815
46.5381
54.9037
80.9136
130.088
126.475
76.4834
33.595
23.1875
37.8654
54.6252
222.763
516.77
6.1505
3.97951
4.56441
16.613
30.8588
42.5427
54.2334
33.7691
8.68336
1.61134
4.6576
32.8861
35.5402
57.1285
110.08
67.0273
19.5256
17.3745
12.469
14.9362
42.1027
112.632
111.252
3.21799
1.44382
1.08774
2.74037
4.35426
8.54384
16.3549
8.58518
2.17965
0.614711
1.94168
24.8204
22.3193
37.8619
59.1076
21.7566
9.9155
9.7529
5.48405
4.8716
10.3696
31.2746
30.5546
1.51346
0.497221
0.403619
0.178087
0.11679
0.925738
0.976555
0.292609
0.0339905
0.174895
0.826941
19.212
10.5012
22.4781
17.8691
9.77763
6.23969
5.46364
1.63614
0.939568
1.66552
5.81805
7.28152
0.601719
0.117322
0.140643
0.00991335
0.00100537
0.00117377
0.00315809
0.000974072
0.00406101
0.198171
1.19287
27.7012
4.04651
6.53737
6.45344
4.23434
2.63616
2.10944
0.648333
0.179478
0.098917
0.332572
0.405587
0.133523
0.021845
0.0261833
0.00188507
5.52084e-05
0.000232465
0.000183825
0.000216943
0.00805378
0.209691
0.611157
5.91181
1.1865
1.68404
1.88438
0.970989
0.6147
0.556141
0.516175
0.171618
0.0102006
0.00856458
0.0153316
0.0404995
0.00528256
0.00533032
0.00038537
9.84576e-06
4.26254e-05
2.27068e-05
0.000181137
0.0177053
0.327138
0.46059
3.91684
0.440704
0.458869
0.140019
0.0480053
0.0464766
0.0275132
0.0244127
0.00592551
0.00229078
0.00182938
0.00307504
0.00541348
0.000965787
0.00106968
4.99684e-05
1.55161e-06
3.86448e-06
3.21462e-06
0.000245728
0.00400991
0.0373181
0.155532
0.161999
0.0269199
0.0278171
0.0190555
0.0023119
0.00282644
0.000652909
0.000639782
0.00030883
0.000267005
0.000222029
0.000558692
0.000588974
0.000219313
0.000228309
1.70114e-05
1.82485e-07
5.19521e-07
1.30786e-06
0.000176199
0.00432394
0.0320005
0.0521319
0.0299897
0.00112736
0.00115381
0.00219407
0.000153365
8.75235e-05
4.9684e-05
3.49314e-05
2.69444e-05
2.97785e-05
4.06055e-05
9.18712e-05
2.65857e-06
5.61109e-06
4.72862e-05
5.21882e-06
4.56741e-08
7.86575e-08
1.3351e-07
7.1902e-07
6.03745e-06
1.59375e-05
2.30754e-05
3.54389e-05
2.15637e-05
4.11466e-05
8.46206e-05
0.000116883
2.52768e-05
7.78335e-06
2.77218e-06
2.03942e-06
2.05907e-06
6.20309e-06
1.09415e-05
2.19347e-07
5.57906e-07
1.08504e-05
1.47164e-06
5.07542e-09
5.92625e-09
9.54328e-09
5.34472e-08
1.45628e-07
1.54474e-07
2.72214e-07
8.23678e-07
1.09897e-06
2.44214e-06
4.30735e-06
4.81522e-06
2.98908e-06
9.70865e-07
3.3212e-07
2.0829e-07
2.13989e-07
5.91525e-07
9.79736e-07
2.05281e-08
1.92075e-08
2.51497e-08
1.26101e-09
6.34826e-10
3.71072e-10
1.95177e-09
1.03464e-08
3.42179e-08
1.65073e-08
1.13377e-08
3.40249e-08
4.87586e-08
9.03822e-08
1.45971e-07
8.71618e-08
5.2698e-08
2.64233e-08
1.47419e-08
7.94255e-09
1.27338e-08
3.3381e-08
5.56099e-08
2.88037e-09
-8.27711e-11
8.42185e-10
3.01952e-10
3.73802e-10
2.63753e-10
3.34693e-10
1.32513e-09
2.98586e-09
2.48474e-09
3.87441e-10
5.757e-10
1.21962e-09
1.899e-09
4.70205e-09
7.66611e-09
9.40235e-09
2.42652e-09
2.01635e-09
6.51195e-10
1.72895e-09
4.95765e-09
8.20181e-09
4.52928e-10
-3.12867e-10
3.04681e-10
2.53749e-10
3.39242e-10
3.51065e-10
2.85581e-10
3.10137e-10
3.2287e-10
3.42879e-10
3.12866e-10
3.52884e-10
3.44698e-10
3.2287e-10
3.67434e-10
7.03947e-10
6.12997e-10
2.81943e-10
1.45519e-10
8.54923e-11
1.9645e-10
4.56565e-10
1.26965e-09
1.9827e-10
-4.25644e-10
3.52884e-10
3.21052e-10
4.05635e-10
4.20187e-10
3.00133e-10
2.93767e-10
3.32875e-10
3.83807e-10
3.38332e-10
3.67436e-10
3.00133e-10
2.04636e-10
2.78305e-10
3.10138e-10
2.45563e-10
2.11003e-10
1.30058e-10
9.09495e-11
6.91215e-11
1.76442e-10
5.12955e-10
2.47383e-10
-2.41016e-10
2.90129e-10
3.18323e-10
4.17458e-10
4.44743e-10
2.73758e-10
2.31012e-10
2.63753e-10
3.04681e-10
3.4288e-10
3.69255e-10
3.67436e-10
2.7012e-10
2.60115e-10
3.26509e-10
2.3374e-10
1.86446e-10
1.86446e-10
9.73159e-11
1.35515e-10
2.12822e-10
4.42015e-10
2.06455e-10
-3.91993e-10
3.4288e-10
3.30147e-10
3.73802e-10
3.7744e-10
3.26509e-10
2.31012e-10
3.04681e-10
3.01952e-10
2.80124e-10
3.72893e-10
3.54703e-10
3.28328e-10
3.08319e-10
3.065e-10
2.24645e-10
1.94632e-10
1.40062e-10
1.64619e-10
1.76442e-10
1.35515e-10
2.8831e-10
2.96496e-10
-4.01997e-10
3.65617e-10
3.44699e-10
3.11957e-10
4.25644e-10
3.36513e-10
2.91948e-10
2.85581e-10
3.75621e-10
3.30147e-10
4.15639e-10
3.32875e-10
2.73758e-10
2.61934e-10
3.56522e-10
3.08319e-10
1.48248e-10
1.51886e-10
1.38243e-10
1.11868e-10
1.66437e-10
4.502e-10
2.39197e-10
-4.42015e-10
3.82898e-10
3.22871e-10
3.47427e-10
3.83807e-10
3.34694e-10
3.44699e-10
3.18323e-10
3.91083e-10
3.30147e-10
3.75621e-10
4.1382e-10
3.42879e-10
3.41061e-10
3.52884e-10
3.41061e-10
2.41926e-10
1.92813e-10
1.17325e-10
8.36735e-11
6.6393e-11
3.91992e-10
2.22826e-10
-3.59251e-10
3.7926e-10
3.03771e-10
2.93767e-10
2.81943e-10
3.39242e-10
3.03771e-10
2.35559e-10
3.44698e-10
3.51065e-10
3.56522e-10
4.10182e-10
3.69255e-10
3.62888e-10
3.39242e-10
3.4288e-10
2.65572e-10
1.89175e-10
8.54925e-11
5.72981e-11
1.63708e-11
3.10138e-10
1.21872e-10
-3.49246e-10
3.67436e-10
2.65572e-10
2.59206e-10
2.80124e-10
3.56522e-10
3.91083e-10
2.67391e-10
4.01997e-10
3.46517e-10
3.57431e-10
4.1382e-10
3.81078e-10
3.87445e-10
3.67436e-10
3.75621e-10
3.22871e-10
1.80989e-10
8.73114e-11
1.31877e-10
6.0936e-11
3.7926e-10
7.45787e-11
-3.16504e-10
2.80125e-10
3.2469e-10
2.77396e-10
2.24645e-10
3.72893e-10
4.05635e-10
2.71939e-10
4.28372e-10
3.49246e-10
3.22871e-10
3.79259e-10
2.94676e-10
4.12001e-10
3.12866e-10
4.33829e-10
2.7012e-10
1.80989e-10
8.36735e-11
1.48248e-10
4.45651e-11
4.40196e-10
6.91217e-11
-3.03772e-10
2.63754e-10
3.73802e-10
2.90129e-10
3.51065e-10
3.39242e-10
3.56522e-10
2.67391e-10
4.43834e-10
3.67436e-10
3.49246e-10
3.69255e-10
3.18323e-10
3.31056e-10
3.91083e-10
4.1382e-10
3.08319e-10
2.12822e-10
1.17325e-10
8.54925e-11
9.36778e-11
5.0477e-10
3.81989e-11
-3.32875e-10
2.09184e-10
2.43745e-10
2.09184e-10
2.09184e-10
3.32875e-10
3.03771e-10
2.55568e-10
3.67436e-10
3.22871e-10
2.94676e-10
3.21052e-10
1.88265e-10
2.41926e-10
3.71074e-10
2.90129e-10
3.4288e-10
3.31056e-10
2.25555e-10
6.73025e-11
1.2551e-10
5.31145e-10
4.63843e-11
-3.10138e-10
2.35559e-10
1.86446e-10
1.64618e-10
3.54703e-10
2.53749e-10
2.41016e-10
2.11003e-10
2.5193e-10
3.01952e-10
3.10138e-10
2.11003e-10
1.13687e-10
1.20053e-10
3.52884e-10
2.61934e-10
3.39242e-10
2.53749e-10
2.07365e-10
1.00954e-10
6.91215e-11
4.92946e-10
6.45742e-11
-2.11003e-10
2.22826e-10
2.14641e-10
2.43745e-10
3.82897e-10
3.38332e-10
2.11003e-10
2.51021e-10
1.92813e-10
2.53749e-10
3.36513e-10
1.82808e-10
8.09449e-11
1.28239e-10
2.09184e-10
1.19144e-10
3.54703e-10
2.55568e-10
2.59206e-10
9.36779e-11
2.81942e-11
3.26509e-10
4.91128e-11
-2.21007e-10
2.94676e-10
1.437e-10
2.57387e-10
3.16504e-10
1.30058e-10
9.73159e-11
1.90994e-10
1.80989e-10
2.37378e-10
2.90129e-10
2.14641e-10
1.96451e-10
2.04636e-10
2.09184e-10
1.41881e-10
2.3374e-10
1.72804e-10
2.53749e-10
1.31877e-10
2.81942e-11
4.84761e-10
1.00045e-11
-1.2551e-10
4.01997e-10
2.86491e-10
1.78261e-10
2.77396e-10
1.54614e-10
9.73159e-11
8.2764e-11
1.19144e-10
1.80989e-10
2.09184e-10
1.15506e-10
2.68301e-10
6.27549e-11
1.72804e-10
1.38243e-10
1.33696e-10
1.50067e-10
1.6189e-10
1.40062e-10
6.6393e-11
4.79304e-10
-2.00089e-11
3.63783e-12
5.23869e-10
2.85581e-10
2.19188e-10
3.39242e-10
1.72804e-10
1.15506e-10
1.35515e-10
1.628e-10
2.02817e-10
1.82808e-10
1.10049e-10
3.26509e-10
2.24645e-10
2.29193e-10
1.71894e-10
2.31012e-10
1.9827e-10
8.73114e-11
1.31877e-10
2.63751e-11
4.71119e-10
-2.00089e-11
1.05501e-10
6.44832e-10
3.65617e-10
2.94676e-10
4.74756e-10
1.31877e-10
1.88265e-10
3.04681e-10
2.1555e-10
2.78305e-10
1.72804e-10
2.19188e-10
4.12001e-10
2.90129e-10
2.81943e-10
2.27374e-10
3.26509e-10
2.61934e-10
1.8008e-10
1.99179e-10
8.27639e-11
4.09273e-10
3.81988e-11
2.61934e-10
7.3851e-10
5.15683e-10
4.48381e-10
5.55701e-10
2.78305e-10
2.24645e-10
3.72893e-10
1.66437e-10
3.85626e-10
1.74623e-10
2.07365e-10
4.48381e-10
3.42879e-10
3.34694e-10
3.69255e-10
4.23825e-10
3.00133e-10
3.2469e-10
3.22871e-10
2.25555e-10
2.68301e-10
-9.91351e-11
2.73758e-10
8.04903e-10
6.18456e-10
4.502e-10
5.23869e-10
3.28328e-10
3.56522e-10
3.64707e-10
3.065e-10
3.72893e-10
3.82897e-10
3.04681e-10
3.47427e-10
4.03816e-10
3.71074e-10
4.01997e-10
5.09317e-10
4.66571e-10
4.01997e-10
1.68256e-10
3.67436e-10
2.00087e-11
-3.63799e-11
3.97449e-10
9.004e-10
7.03949e-10
5.05679e-10
5.12955e-10
3.30146e-10
4.23825e-10
4.01997e-10
4.12001e-10
4.26553e-10
4.18368e-10
4.46562e-10
4.28372e-10
5.23869e-10
4.15639e-10
5.05679e-10
4.71118e-10
5.37511e-10
4.6839e-10
4.8658e-10
4.82942e-10
-1.35515e-10
-1020.71
-819.411
-2665.88
2494.52
-2618.52
-1577.98
-1909.53
-2663.95
-2156.88
-2733.8
-2857.74
-2790.27
-146.386
-257.575
-491.243
-1100.29
2494.04
2537.68
2533.83
2488.25
2732.05
2746.87
2772.72
2834.32
1250.77
1446.48
1816.95
2318.41
899.177
1339.71
1983.6
2371.96
1027.42
1500.29
1888.55
2248.57
628.711
675.487
1188.37
1701.8
96.4022
130.722
268.791
419.661
9.16849
9.3352
15.5967
30.5244
1.45809
1.34976
2.83283
4.65601
0.19553
0.441244
0.719993
0.93911
0.041515
0.0650053
0.0799689
0.0966799
0.0012161
0.00239857
0.00392644
0.00690328
0.000309118
0.000894921
0.00140283
0.00233899
4.35026e-05
0.000121039
0.000217436
0.000399743
1.43837e-05
2.79903e-05
3.86401e-05
6.56012e-05
7.64798e-07
9.91427e-07
1.17911e-06
2.8122e-06
9.34804e-08
1.1752e-07
3.7158e-07
1.13469e-06
1.7927e-08
3.33366e-08
8.38307e-08
2.15847e-07
2.18915e-09
4.25643e-09
7.51058e-09
1.74322e-08
1.86445e-10
3.44697e-10
7.5033e-10
1.77714e-09
8.54921e-11
1.05501e-10
1.80989e-10
2.11002e-10
7.91258e-11
1.0732e-10
1.00954e-10
8.54924e-11
5.91168e-11
6.6393e-11
1.6189e-10
1.40062e-10
6.09358e-11
1.13687e-10
1.05501e-10
7.5488e-11
2.00086e-11
5.45696e-11
1.58252e-10
1.36421e-11
3.09225e-11
5.63887e-11
5.63887e-11
1.81884e-12
-2.27379e-11
1.81899e-11
6.63932e-11
2.81942e-11
-2.27379e-11
2.27374e-11
4.91128e-11
2.00088e-11
3.45604e-11
4.27463e-11
1.81899e-11
-1.36425e-11
3.81983e-11
6.73026e-11
8.27641e-11
1.36423e-11
1.36421e-11
7.91261e-11
1.33696e-10
-1.4984e-16
-1.11868e-10
-1.11868e-10
9.09499e-11
1.36423e-11
3.00132e-11
-1.0914e-10
1.81915e-12
-3.00134e-11
2.00085e-11
-3.00135e-11
4.45653e-11
6.63932e-11
7.45784e-11
-2.63756e-11
3.63771e-12
1.88266e-10
8.91303e-11
1.23691e-10
1.36424e-10
1.58252e-10
3.45609e-11
-2.27378e-11
1.72804e-10
2.32831e-10
-2.00088e-11
-3.63798e-11
-2.00088e-11
-7.54885e-11
2826.79
2732.4
2739.28
2772.9
2648
2813.66
2688.72
2308.65
1919.59
2667.42
2662.26
2377.84
2225.14
1596.5
-319.879
-1318.32
-2269.54
-2644.02
-1463.78
-2802.41
-2811.38
-2703.25
-2832.39
-2855.61
-2851.58
-2851.22
-2855.89
-2838.53
-2678.19
-2634.03
-2151.59
-1978.68
-2306.6
-2526.1
-2428.79
-2541.25
-2684.95
-2039.38
-2675.77
-2337.43
-2016
-1818.7
-1821.94
-1882.74
-1958.77
-1874.99
-1921.06
-2091.62
-2387.05
-2822.93
-2731.89
-2249.88
-918.614
1226.88
522.867
-1893.45
-1823.11
-2314.91
-2818.39
-2544.41
-2133.22
-2262.95
-2671.18
-2842.82
-2667.82
-2725.84
-2803.14
-2807.04
-2468.16
484.266
2377
2825.26
2835.44
2359.22
-936.342
-1675.25
2059.64
-587.545
-2814.19
-2562.19
-2843.45
-1711.84
-97.9007
-1478.34
-1543.87
-1271.25
787.868
2276.21
2837.53
2730.42
2620.94
2751.24
2746.35
138.509
-1504.33
2768.31
1655.29
-1399.98
-2467.14
-2080.56
321.485
2503.36
1941.21
1292.73
677.801
1171.76
2663.79
2662.66
2299.59
2170.05
2271.71
2857.56
62.5208
-1484.83
2847.42
2123.27
-30.5981
-139.262
1772.13
2856
2856.81
2816.9
2763.65
2687.31
2845.19
2506.46
1859.02
1499.44
1762.74
2126.33
2857.1
33.6697
-1489.82
2855.44
2130.04
2208.05
2744.62
2768.68
2712.51
2822.77
2783.69
2593.52
2305.66
1608.7
1187.58
929.916
1000.96
1315.85
1970.35
2771.86
-159.1
-1519.64
2819.16
2846.61
2815.37
2064.98
1740.8
2656.68
2616.48
2196.46
1379.95
760.766
627.187
680.897
636.421
640.026
986.213
1848.15
2806.15
-404.274
-1569.56
2013.76
1749.97
1529.15
1176.69
600.335
850.669
1204.13
1087.62
1036.47
403.117
332.68
494.441
536.332
710.748
1095.62
2061.44
2758.27
-539.198
-1614.03
584.742
347.441
252.292
261.576
129.965
180.159
313.989
217.567
182.237
217.997
393.682
570.884
787.632
1314.41
1996.56
2837.2
1991.73
-780.351
-1654.45
42.5262
33.7055
26.146
29.368
38.2093
56.0294
58.0559
141.851
253.404
358.764
542.385
714.832
1096.18
1812.3
2427.62
2760.19
656.271
-1265.75
-1673.88
5.43828
5.37744
6.68605
17.078
40.4507
92.4719
160.302
254.748
432.981
703.761
1064.23
1372.41
1580.82
2085.73
2446.65
2733.59
298.021
-1508.97
-1667.79
1.03041
0.784762
2.15011
9.35054
28.943
84.9895
169.147
284.969
446.812
601.675
1178.03
1734.86
1928.03
2407.24
2628.61
2840.76
688.323
-1508.91
-1625.91
0.125119
0.286036
1.14367
4.46154
15.8447
55.9717
108.29
142.49
140.733
127.495
233.086
547.872
867.823
1768.98
2605.35
2761.95
1421.68
-1387.15
-1490.48
0.0168418
0.0797425
0.530358
2.48739
10.1554
28.7554
42.1729
45.6622
46.4901
38.9515
51.1704
180.314
423.48
933.241
2208.5
2702.21
1643.46
-963.85
-1196.95
0.00494947
0.0181371
0.118304
0.692194
3.37459
8.94583
14.6828
20.0085
22.5227
18.4604
25.1
82.7787
169.031
490.812
1637.96
2790.34
1453.95
-200.856
-663.678
0.000880451
0.00270603
0.0185788
0.118784
0.555421
1.5155
4.15953
6.12798
8.26318
6.58825
6.36004
13.3661
23.2385
68.2522
703.456
2734.31
1333.96
261.764
-188.132
0.000143408
0.000622677
0.00288845
0.0179271
0.0597186
0.217918
0.838295
1.3994
1.70031
2.49958
2.18685
2.8804
11.7609
47.5836
137.007
1045.57
2777.91
1097.12
152.88
1.33004e-05
0.000129128
0.000477566
0.00382093
0.00936
0.0298516
0.133646
0.25847
0.464104
0.71359
0.815089
1.09154
3.71979
26.1531
87.1071
272.306
1096.08
2840.64
824.256
6.12253e-06
3.45753e-05
0.000196027
0.000964942
0.00210304
0.00759242
0.0247793
0.0698315
0.147695
0.268546
0.379837
0.549323
2.29593
18.2038
69.9533
150.02
323.337
2249.98
1005.34
9.74386e-07
6.02663e-06
3.34225e-05
0.000125648
0.000419662
0.00208639
0.00563353
0.0180782
0.0430378
0.0581039
0.103189
0.198877
1.73926
14.0535
66.9378
153.314
310.167
2344.79
1133.18
8.12293e-08
6.17693e-07
3.80517e-06
1.96462e-05
8.80889e-05
0.000441689
0.000850572
0.00346135
0.00882323
0.00677705
0.0293613
0.767748
5.27616
20.8423
70.562
150.896
407.628
2606.62
1156.47
8.44281e-09
5.70214e-08
4.10907e-07
2.03227e-06
1.06545e-05
5.29419e-05
0.000144825
0.000652939
0.00288278
0.0201328
0.246298
1.706
7.61213
38.4916
92.0985
249.574
1398.66
2828.6
1134.36
1.00044e-09
6.49832e-09
4.85069e-08
2.28674e-07
1.31944e-06
5.88151e-06
2.39181e-05
9.02882e-05
0.00102
0.0106261
0.105758
0.808257
7.04298
50.7987
159.955
542.27
1943.67
2767.05
1117.18
6.63925e-11
1.19053e-09
6.37008e-09
3.44097e-08
3.05711e-07
1.78719e-06
1.4874e-05
0.000222609
0.00186682
0.0215018
0.172658
1.42067
9.01842
52.6686
240.955
786.31
1970.49
2764.97
1135.93
5.45696e-11
3.7744e-10
7.08494e-10
5.96808e-09
8.99949e-08
2.21976e-06
3.98074e-05
0.000512428
0.00554352
0.0401439
0.212517
1.5477
12.1484
64.8467
305.011
958.784
2178.1
2797.72
1228
9.27684e-11
2.35559e-10
3.06499e-10
1.05046e-09
1.55595e-08
4.05597e-07
8.06862e-06
0.000147412
0.00188627
0.026852
0.268859
2.20795
14.5698
70.6395
338.429
1059.08
2280.9
2794.17
1358.23
1.20053e-10
2.57387e-10
2.53749e-10
4.36557e-10
3.71436e-09
7.70093e-08
1.35215e-06
1.6855e-05
0.000199777
0.014637
0.433392
3.6464
26.4329
109.11
410.423
1115.45
2298.99
2761.94
1466.3
7.9126e-11
2.22826e-10
2.41926e-10
1.64618e-10
5.84802e-10
9.98528e-09
1.78004e-07
4.18014e-06
7.23363e-05
0.00165429
0.0609074
1.86814
22.3187
116.119
424.862
1093.14
2287.19
2778.07
1591.54
1.10049e-10
2.1555e-10
1.76442e-10
2.25554e-10
1.46064e-09
1.86882e-08
1.83589e-07
2.05507e-06
5.93023e-05
0.000398996
0.00664791
0.406833
6.76572
69.6341
305.851
908.905
2284.7
2765.04
1779.05
2.45563e-11
1.48248e-10
5.7298e-11
4.91126e-10
5.73071e-09
7.60826e-08
1.26037e-06
1.24076e-05
0.000202849
0.00065913
0.00297013
0.0561196
0.512798
3.19695
90.0463
412.093
1794
2807.14
2074.64
3.81988e-11
1.74623e-10
1.15506e-10
8.54013e-10
1.15733e-08
1.63938e-07
1.8765e-06
2.84798e-05
0.000431703
0.00215373
0.00852187
0.0844398
0.379282
1.71993
5.91443
57.0019
659.139
2686.88
2634.41
1.36424e-11
2.17369e-10
2.1464e-10
2.09547e-09
1.60853e-08
1.97508e-07
1.45299e-06
2.0866e-05
0.000557184
0.00590796
0.0263696
0.182599
1.23837
7.94647
7.74148
7.00594
78.1956
1232.36
2521.95
-5.27508e-11
2.49202e-10
3.14685e-10
8.47647e-10
6.18544e-09
9.8637e-08
1.60724e-06
3.14601e-05
0.000714159
0.00835378
0.0531408
0.228999
0.949721
5.54121
12.6605
10.7266
15.7286
437.839
1622.38
4.82032e-11
2.41016e-10
3.62888e-10
1.3124e-09
1.80425e-08
1.73189e-07
3.58012e-06
5.0554e-05
0.000870814
0.00692706
0.0586692
0.316781
1.31297
8.80806
16.94
11.4619
14.4433
212.218
1054.28
-2.63754e-11
2.25555e-10
2.37378e-10
6.0845e-10
8.67018e-09
1.52091e-07
1.30283e-06
3.28042e-05
0.000734171
0.00236371
0.0201509
0.170415
0.923413
12.6447
20.8126
13.8735
15.1931
137.756
968.459
2.27373e-11
2.09184e-10
1.84627e-10
2.68301e-10
1.3124e-09
1.60589e-08
2.06967e-07
2.84517e-06
1.7082e-05
0.000326522
0.00833699
0.0421475
0.200199
9.17516
25.7082
18.4539
18.8233
137.962
978.966
4.00176e-11
1.66438e-10
3.45607e-11
1.50066e-10
9.19496e-10
1.47811e-08
1.69568e-07
1.69739e-06
6.94175e-06
0.000188171
0.00573943
0.00904243
0.0350083
0.597797
13.5864
17.4168
18.4932
117.951
940.591
1.96451e-10
2.7012e-10
6.3664e-12
1.20053e-10
2.11002e-10
1.41244e-09
1.94749e-08
1.32014e-07
1.01197e-06
2.9325e-05
0.00083533
0.00074995
0.00206246
0.0294728
3.54447
13.3739
17.1667
93.5722
857.669
5.11136e-10
1.58252e-10
-1.19144e-10
-3.63803e-12
-4.63844e-11
4.27458e-11
4.09198e-11
5.74706e-09
1.83251e-08
2.33382e-07
1.20158e-05
2.94155e-05
0.000180865
0.000895715
0.0156419
2.00731
9.72094
35.2646
647.249
2.31012e-10
3.91083e-10
-5.27508e-11
1.6189e-10
2.09184e-10
2.06455e-10
1.05501e-10
6.91192e-11
2.83212e-09
1.88262e-07
1.05859e-06
2.68226e-05
0.000201703
0.000647842
0.00155663
0.11253
3.27917
5.79503
265.959
)
;

boundaryField
{
    leftWall
    {
        type            zeroGradient;
    }
    rightWall
    {
        type            zeroGradient;
    }
    lowerWall
    {
        type            zeroGradient;
    }
    atmosphere
    {
        type            zeroGradient;
    }
    defaultFaces
    {
        type            empty;
    }
}


// ************************************************************************* //
