/*--------------------------------*- C++ -*----------------------------------*\
| =========                 |                                                 |
| \\      /  F ield         | foam-extend: Open Source CFD                    |
|  \\    /   O peration     | Version:     4.1                                |
|   \\  /    A nd           | Web:         http://www.foam-extend.org         |
|    \\/     M anipulation  |                                                 |
\*---------------------------------------------------------------------------*/
FoamFile
{
    version     2.0;
    format      ascii;
    class       volVectorField;
    location    "0.6";
    object      U_0;
}
// * * * * * * * * * * * * * * * * * * * * * * * * * * * * * * * * * * * * * //

dimensions      [0 1 -1 0 0 0 0];

internalField   nonuniform List<vector> 
2268
(
(-0.0712967 -0.0283481 0)
(0.27922 -0.0362799 0)
(0.446198 -0.00834828 0)
(0.296086 0.000122618 0)
(0.353715 -0.0111812 0)
(0.400583 0.000831956 0)
(0.379345 -0.00827178 0)
(0.389847 0.00724771 0)
(0.409173 -0.000108064 0)
(0.371814 -0.0114414 0)
(0.227839 0.0310486 0)
(0.235323 0.01235 0)
(0.200291 0.0184022 0)
(0.164463 0.0187716 0)
(0.141267 0.041919 0)
(0.159448 -0.00286282 0)
(0.145913 0.00576207 0)
(0.115766 0.0323949 0)
(0.00803431 0.0491785 0)
(-0.0220372 -0.00706804 0)
(-0.1126 -0.0502629 0)
(0.0376491 -0.0155323 0)
(-0.0488046 -0.02283 0)
(-0.0534784 -0.076018 0)
(0.300044 -0.0896463 0)
(0.458869 0.0140436 0)
(0.304315 0.0218942 0)
(0.359544 -0.024686 0)
(0.402242 0.0114914 0)
(0.389988 -0.0265326 0)
(0.403447 0.0112743 0)
(0.430109 -0.00979671 0)
(0.380183 -0.0635581 0)
(0.235048 0.0434459 0)
(0.228339 0.0387385 0)
(0.195056 0.02903 0)
(0.173475 0.0426683 0)
(0.138702 0.0318229 0)
(0.132477 0.00261356 0)
(0.124553 0.00408046 0)
(0.102463 0.00155633 0)
(0.0592927 0.0164887 0)
(0.0616106 0.0621635 0)
(0.0756554 0.00157581 0)
(0.0269253 -0.0205756 0)
(0.0612456 0.0175216 0)
(-0.0989438 -0.123049 0)
(0.289052 -0.162465 0)
(0.486496 -0.00134249 0)
(0.3018 0.0231432 0)
(0.369265 -0.0469705 0)
(0.392764 0.0145559 0)
(0.400398 -0.0472258 0)
(0.435942 0.0269553 0)
(0.431773 -0.0134247 0)
(0.401287 -0.0661911 0)
(0.225175 0.0461396 0)
(0.160312 0.049273 0)
(0.102033 0.067822 0)
(0.0893996 0.0557233 0)
(0.0812813 0.0632585 0)
(0.119027 0.063184 0)
(0.122394 0.0339136 0)
(0.0727228 0.00571274 0)
(0.0324447 0.0378681 0)
(0.0329656 0.0362317 0)
(0.0222975 -0.00959644 0)
(0.0140068 -0.0283195 0)
(0.0612305 0.0209658 0)
(-0.461843 -0.0223215 0)
(-0.0131943 -0.409179 0)
(0.595824 0.0178015 0)
(0.3425 0.0414326 0)
(0.384479 -0.0599436 0)
(0.401715 0.0259201 0)
(0.436039 -0.0645633 0)
(0.487106 0.0427547 0)
(0.455567 -0.0307662 0)
(0.449762 -0.0271999 0)
(0.189879 0.0460712 0)
(0.13042 0.0721202 0)
(0.0575549 0.0718196 0)
(0.0638252 0.0676989 0)
(0.0528641 0.098863 0)
(0.0704914 0.050384 0)
(0.0724718 0.0228181 0)
(0.0653222 0.0246265 0)
(0.0429335 0.0236258 0)
(0.0264988 0.0214318 0)
(0.0263532 0.00612829 0)
(0.0148683 -0.00454574 0)
(0.0662196 0.0338151 0)
(-0.234692 0.130377 0)
(0.167788 -0.673257 0)
(0.460027 0.0911488 0)
(0.36925 0.107085 0)
(0.34387 -0.0805024 0)
(0.38883 0.040697 0)
(0.470237 -0.0993984 0)
(0.520797 0.103325 0)
(0.440439 -0.00390763 0)
(0.470326 0.0329676 0)
(0.250238 0.0942143 0)
(0.122999 0.102221 0)
(0.0410461 0.0679505 0)
(0.0581761 0.0722993 0)
(0.010369 0.0645471 0)
(-0.0135358 0.0451576 0)
(0.00462912 0.0156276 0)
(-0.00621978 0.0186458 0)
(-0.000315721 0.044204 0)
(0.00708019 0.0408481 0)
(0.00680875 0.00457739 0)
(0.0250108 -0.020373 0)
(0.0791962 0.0383668 0)
(0.129988 0.038906 0)
(0.373907 -0.5895 0)
(0.685485 -0.0458754 0)
(0.240391 0.246639 0)
(-0.185167 -0.256916 0)
(0.622868 0.0253274 0)
(0.519298 -0.176445 0)
(0.444063 0.149972 0)
(0.320566 -0.0562546 0)
(0.361233 0.00795802 0)
(0.37721 0.106198 0)
(0.243969 0.150851 0)
(0.114398 0.0734863 0)
(0.0868094 0.0305067 0)
(0.03879 0.0615332 0)
(0.015042 0.0399132 0)
(-0.0160923 0.0409455 0)
(-0.0100857 0.0273009 0)
(-0.0243558 0.0587486 0)
(-0.0288985 0.020484 0)
(-0.00896366 -0.0152313 0)
(0.022395 -0.0141396 0)
(0.0908139 0.0596327 0)
(0.0540513 -0.127853 0)
(0.228489 -0.677091 0)
(0.744276 -0.222631 0)
(0.376496 0.415932 0)
(-0.244128 -0.307681 0)
(0.282555 0.0428128 0)
(0.353703 -0.256207 0)
(0.44169 0.233937 0)
(0.126407 -0.0748732 0)
(0.345301 -0.0264188 0)
(0.367417 0.12286 0)
(0.241018 0.182423 0)
(0.0954951 0.134872 0)
(0.116083 0.142777 0)
(0.0261645 0.0589635 0)
(-0.00536603 0.0449595 0)
(-0.00268929 0.0471521 0)
(-0.0262285 0.0618769 0)
(-0.0378692 0.0812525 0)
(-0.049159 0.03583 0)
(-0.00311606 -0.0417586 0)
(0.0429176 -0.0365017 0)
(0.110103 0.060605 0)
(0.0147425 -0.125834 0)
(0.0933646 -0.731773 0)
(0.410889 -0.24004 0)
(0.334171 0.569011 0)
(0.355306 -0.184377 0)
(0.608742 -0.112884 0)
(0.338097 -0.279368 0)
(0.443482 0.25312 0)
(0.0384262 -0.155392 0)
(0.3283 -0.108026 0)
(0.352052 0.275509 0)
(0.266521 0.207099 0)
(0.0426557 0.155255 0)
(0.0380332 0.182389 0)
(-0.0623721 0.105025 0)
(-0.0745162 0.0795255 0)
(-0.0996722 0.00492266 0)
(-0.058555 0.0410462 0)
(-0.106598 0.0838834 0)
(-0.12184 -0.000885902 0)
(0.00423334 -0.0946464 0)
(0.122188 -0.0743679 0)
(0.131251 0.147576 0)
(-0.476699 0.178636 0)
(-0.8665 0.00781433 0)
(-1.07194 -0.0148138 0)
(-1.15696 -0.0442444 0)
(-1.19876 -0.0583527 0)
(-1.23718 0.0256827 0)
(-1.2305 -0.0284005 0)
(-1.28312 -0.165401 0)
(-1.43613 -0.0441902 0)
(-1.07208 -0.0298629 0)
(-1.03181 -0.120166 0)
(-1.08289 0.131523 0)
(-0.931543 -0.0386286 0)
(-0.804035 0.0166103 0)
(-0.708762 -0.0882541 0)
(-0.47022 -0.159498 0)
(-0.184477 -0.108669 0)
(0.192465 -0.0860279 0)
(0.292098 0.0595346 0)
(-0.300883 0.393633 0)
(-0.292177 0.264331 0)
(-0.358991 0.111291 0)
(-0.718495 0.0648892 0)
(-1.00257 0.0916355 0)
(-0.979661 0.109868 0)
(-0.9469 -0.118006 0)
(-1.21076 -0.191264 0)
(-1.34346 0.0250585 0)
(-1.02647 0.16089 0)
(-0.853493 -0.0824845 0)
(-1.00213 0.152689 0)
(-0.732853 -0.0337476 0)
(-0.664496 -0.104391 0)
(-0.706985 -0.176873 0)
(-0.50007 -0.0675131 0)
(-0.231355 -0.177679 0)
(-0.137425 -0.123504 0)
(0.203167 0.147756 0)
(-0.372917 0.782952 0)
(-0.190321 0.477874 0)
(-0.151256 0.130042 0)
(-0.451872 0.0103386 0)
(-0.698711 0.268759 0)
(-0.637247 -0.0484286 0)
(-0.510099 -0.241147 0)
(-0.73581 -0.0699672 0)
(-0.87411 -0.0399086 0)
(-0.701092 0.105828 0)
(-0.224767 -0.358346 0)
(-0.619802 -0.148162 0)
(-0.56008 0.117307 0)
(-0.376231 -0.118577 0)
(-0.416674 -0.233807 0)
(-0.417435 -0.174698 0)
(-0.164777 -0.281182 0)
(-0.072586 -0.288445 0)
(0.310024 0.152278 0)
(-0.359964 0.816523 0)
(-0.0725801 0.478867 0)
(-0.384945 0.221758 0)
(-0.424272 0.189589 0)
(-0.494902 0.348939 0)
(-0.341095 0.0687171 0)
(-0.40924 -0.122809 0)
(-0.523062 -0.066215 0)
(-0.966987 -0.0107268 0)
(-0.287533 -0.0235903 0)
(0.0233148 -0.107427 0)
(-0.450117 0.0715654 0)
(-0.488652 0.0859245 0)
(-0.261198 -0.0358473 0)
(-0.263187 -0.153196 0)
(-0.238993 -0.133889 0)
(-0.0888618 -0.242902 0)
(-0.110759 -0.362444 0)
(0.190441 0.19441 0)
(-0.297744 0.85404 0)
(0.292973 0.626891 0)
(-0.215354 0.2814 0)
(-0.233097 0.144044 0)
(-0.358879 0.332564 0)
(0.0675718 -0.0711431 0)
(-0.120866 -0.204017 0)
(-0.017906 -0.100399 0)
(-0.171792 -0.0522512 0)
(0.472609 -0.354476 0)
(0.608563 -0.0628826 0)
(0.329377 0.0876411 0)
(-0.18223 -0.0730483 0)
(-0.028834 -0.104485 0)
(0.0153979 -0.227859 0)
(-0.0255906 -0.4065 0)
(-0.0214128 -0.445927 0)
(-0.134082 -0.370762 0)
(0.0350743 0.202701 0)
(-0.294915 0.813674 0)
(0.393587 0.515348 0)
(0.135069 0.266408 0)
(0.163569 0.272256 0)
(-0.00884133 0.309028 0)
(0.599635 0.0136829 0)
(0.821408 -0.116144 0)
(0.596232 -0.188715 0)
(0.698318 -0.233224 0)
(0.96284 -0.210563 0)
(0.971212 0.10722 0)
(0.833107 0.170032 0)
(0.569748 0.153074 0)
(0.275431 -0.0189011 0)
(0.173453 -0.147423 0)
(0.0799635 -0.499242 0)
(0.029606 -0.567781 0)
(-0.00271276 -0.330119 0)
(-0.226779 0.134373 0)
(-0.268353 0.786074 0)
(0.385899 0.475348 0)
(0.299872 0.218079 0)
(0.682222 0.0405326 0)
(1.02662 0.286167 0)
(1.35378 -0.31725 0)
(1.17831 0.102681 0)
(0.71091 -0.190819 0)
(0.979486 -0.501187 0)
(1.13324 -0.28869 0)
(1.04923 0.0224269 0)
(0.9208 0.062102 0)
(0.695689 0.185117 0)
(0.435444 0.146367 0)
(0.432088 -0.181619 0)
(0.284224 -0.382198 0)
(0.307288 -0.303437 0)
(0.135011 -0.270106 0)
(-0.257618 0.0925341 0)
(-0.230446 0.66072 0)
(0.290963 0.336611 0)
(0.0819306 0.0445131 0)
(0.691533 -0.0832066 0)
(1.19882 0.0161123 0)
(1.24724 0.0448571 0)
(1.22558 -0.0362539 0)
(0.938055 -0.11445 0)
(0.792718 -0.31444 0)
(0.794781 -0.0845384 0)
(1.19344 0.104819 0)
(0.987291 0.0921545 0)
(0.776157 0.19864 0)
(0.715436 0.166542 0)
(0.602848 -0.106835 0)
(0.585935 -0.442479 0)
(0.510791 -0.205915 0)
(0.188001 -0.170531 0)
(-0.124788 0.0856124 0)
(0.014725 -0.144711 0)
(0.0627623 -0.702997 0)
(-0.199399 -0.0964082 0)
(0.0290658 0.40835 0)
(0.475169 -0.380876 0)
(0.239893 0.126565 0)
(-0.032318 -0.375601 0)
(0.306568 0.529948 0)
(0.0342706 -0.157752 0)
(0.186187 -0.203214 0)
(0.168029 0.618273 0)
(0.103993 0.422717 0)
(-0.109383 0.244405 0)
(-0.00254002 0.0303307 0)
(-0.0845315 0.0944381 0)
(-0.0116609 -0.0152672 0)
(0.0263143 0.0481397 0)
(0.0421697 0.0501995 0)
(0.0844858 0.0144463 0)
(0.217158 -0.0363205 0)
(0.221211 -0.0889045 0)
(0.163953 -0.0994917 0)
(0.11527 0.156928 0)
(0.0877792 -0.178683 0)
(0.0418621 -0.681465 0)
(-0.320313 -0.0251285 0)
(-0.0351277 -0.174945 0)
(-0.111989 -0.2167 0)
(0.0420687 -0.0464852 0)
(-0.0250071 -0.285903 0)
(0.00392215 0.390192 0)
(0.128233 0.00619353 0)
(0.0409917 -0.277311 0)
(0.235405 0.421087 0)
(0.272657 0.414695 0)
(0.100639 0.398787 0)
(0.0762122 0.219925 0)
(0.115572 0.135839 0)
(0.0137421 -0.0334891 0)
(0.0208197 -0.114765 0)
(0.069333 -0.0380331 0)
(0.133495 -0.103952 0)
(0.178082 -0.112513 0)
(0.280328 -0.0275392 0)
(0.342701 -0.018413 0)
(0.287143 0.0895794 0)
(-0.131924 -0.292869 0)
(-0.175315 -0.773772 0)
(-0.308075 -0.0637544 0)
(0.0482168 -0.260678 0)
(-0.18561 -0.109404 0)
(-0.122963 -0.0094903 0)
(-0.364938 -0.0757896 0)
(-0.235434 0.136519 0)
(-0.276405 -0.210548 0)
(-0.338465 -0.318067 0)
(0.0598854 0.342496 0)
(0.160239 0.321568 0)
(0.12687 0.280134 0)
(0.155207 0.213625 0)
(0.203015 0.128144 0)
(0.383791 0.135612 0)
(0.516164 -0.0143304 0)
(0.314939 -0.0178262 0)
(0.194498 -0.241056 0)
(0.178542 -0.187666 0)
(0.26233 0.0295272 0)
(0.287721 -0.0219264 0)
(0.256287 0.0987971 0)
(-0.161145 -0.105427 0)
(-0.0821416 -0.458978 0)
(-0.366345 -0.265392 0)
(-0.2973 -0.156869 0)
(-0.392158 -0.0946461 0)
(-0.456132 0.0516109 0)
(-0.581815 0.0833804 0)
(-0.606187 0.136276 0)
(-0.777852 -0.232578 0)
(-0.566542 -0.310221 0)
(-0.316434 -0.0952186 0)
(0.173315 0.203088 0)
(0.14405 0.290531 0)
(0.119608 0.0113347 0)
(0.464392 -0.151342 0)
(0.365662 -0.256883 0)
(0.490782 -0.0631748 0)
(0.49405 0.262503 0)
(0.661864 0.173576 0)
(0.701418 -0.0412091 0)
(0.436472 -0.0887015 0)
(0.410928 -0.053895 0)
(0.29434 -0.018832 0)
(-0.130448 -0.0881773 0)
(0.230629 -0.026956 0)
(-0.342166 -0.136548 0)
(-0.394432 -0.159464 0)
(-0.331336 -0.0368039 0)
(-0.355507 0.184078 0)
(-0.582569 0.151533 0)
(-0.973061 0.0126525 0)
(-0.907224 -0.352803 0)
(-0.589732 -0.39488 0)
(-0.489208 -0.456055 0)
(0.174366 -0.0133607 0)
(0.294691 0.319685 0)
(0.209132 0.0903104 0)
(0.223711 -0.0546931 0)
(0.153051 -0.40247 0)
(0.178845 -0.140517 0)
(0.383229 -0.135508 0)
(0.627401 0.173297 0)
(0.655903 0.135669 0)
(0.573485 0.153636 0)
(0.510889 0.126987 0)
(0.49462 0.0330014 0)
(-0.0484605 -0.115527 0)
(-0.0882813 0.0522236 0)
(-0.0346998 0.0318958 0)
(-0.333948 0.0534279 0)
(-0.29315 0.204226 0)
(-0.304234 0.317064 0)
(-0.350379 0.368364 0)
(-0.639471 0.00538811 0)
(-0.651574 -0.0540797 0)
(-0.46015 -0.62526 0)
(-0.430224 -0.822834 0)
(-0.20825 -0.844528 0)
(0.279464 0.364594 0)
(0.0431525 0.0569985 0)
(0.0987466 -0.25644 0)
(0.231623 -0.456131 0)
(0.204396 -0.364544 0)
(0.471401 -0.427977 0)
(0.674117 -0.153242 0)
(0.676599 0.0809038 0)
(0.559021 0.155988 0)
(0.469616 0.107639 0)
(0.501421 -0.0146894 0)
(0.0163039 -0.0444651 0)
(-0.0167634 -0.079074 0)
(-0.144483 0.129341 0)
(-0.255462 0.0498608 0)
(-0.327553 0.230389 0)
(-0.180879 0.343753 0)
(-0.276533 0.353529 0)
(-0.543764 0.137335 0)
(-0.559967 0.0341859 0)
(0.0727445 -0.446764 0)
(-0.283437 -0.904851 0)
(-0.32979 -1.36261 0)
(0.0773022 0.0148432 0)
(0.25269 0.206334 0)
(0.329891 0.0417338 0)
(0.106777 -0.294413 0)
(0.0989029 -0.291144 0)
(0.146805 -0.224946 0)
(-0.019054 -0.425841 0)
(0.276347 0.113932 0)
(0.284117 0.212361 0)
(0.352534 0.098443 0)
(0.554984 -0.2883 0)
(0.0159057 -0.0345688 0)
(0.0127013 0.104723 0)
(-0.0336563 0.0783832 0)
(-0.0783608 0.153167 0)
(-0.219295 0.362678 0)
(-0.225619 0.450832 0)
(-0.203622 0.371113 0)
(0.0358982 -0.146529 0)
(-0.0927369 -0.399667 0)
(0.170404 -0.552022 0)
(-0.16515 -0.548387 0)
(-0.0766804 -1.15671 0)
(-0.0330703 -0.900373 0)
(0.311952 -0.113153 0)
(0.369633 -0.034512 0)
(0.346899 -0.15494 0)
(0.17595 -0.186629 0)
(0.193918 -0.293134 0)
(-0.0757394 -0.386356 0)
(-0.130063 -0.173751 0)
(0.084969 -0.0149103 0)
(0.412795 -0.141443 0)
(0.358461 -0.298375 0)
(-0.024385 -0.125309 0)
(0.0361916 0.064467 0)
(-0.0324548 0.347433 0)
(-0.0832143 0.399472 0)
(-0.0246109 0.402244 0)
(-0.0966448 0.450377 0)
(0.0482856 0.570542 0)
(-0.041169 0.0982119 0)
(0.0607589 -0.206436 0)
(0.00210629 -0.447623 0)
(-0.399972 -0.771094 0)
(0.0862522 -1.19882 0)
(0.201754 -0.962999 0)
(0.434705 -0.512327 0)
(0.353844 0.094435 0)
(0.274853 -0.0268355 0)
(0.22695 -0.183388 0)
(0.207326 -0.193905 0)
(0.0700269 -0.312576 0)
(-0.0477868 -0.133837 0)
(0.0446855 -0.0378768 0)
(0.185269 -0.105759 0)
(0.200654 -0.567473 0)
(-0.0362226 -0.129978 0)
(0.0117282 0.0914269 0)
(-0.00113487 0.244698 0)
(0.038572 0.271822 0)
(-0.0964141 0.242797 0)
(0.0475091 0.38591 0)
(0.22131 0.35742 0)
(0.190598 -0.0859967 0)
(0.328073 -0.379441 0)
(0.281599 -0.259036 0)
(-0.11758 -0.367056 0)
(0.0322002 -1.04774 0)
(-0.0724219 -0.630088 0)
(0.177319 -0.28012 0)
(0.16743 -0.175497 0)
(0.210191 -0.154092 0)
(0.161769 -0.0935958 0)
(0.0757493 -0.166788 0)
(0.0451911 -0.072774 0)
(-0.0976779 -0.262314 0)
(-0.0457931 -0.163437 0)
(-0.192716 -0.355774 0)
(-0.221238 -0.388866 0)
(-0.0756001 -0.105812 0)
(-0.001247 0.060667 0)
(-0.0234768 0.238157 0)
(0.0687283 0.189487 0)
(0.0746086 0.147527 0)
(0.134291 0.425485 0)
(0.24807 0.238032 0)
(0.603225 -0.0774297 0)
(0.422611 -0.291682 0)
(0.351533 -0.300908 0)
(0.0630922 -0.399676 0)
(0.146414 -1.05628 0)
(-0.122301 -0.522899 0)
(-0.00124909 -0.363205 0)
(0.0494018 -0.0436408 0)
(0.00677791 -0.0253392 0)
(-0.0313597 -0.145181 0)
(-0.00575635 -0.0231454 0)
(0.00188631 -0.00497536 0)
(-0.00620922 -0.00386678 0)
(-0.108177 -0.0073704 0)
(-0.164217 -0.141014 0)
(-0.219603 -0.255931 0)
(-0.0568107 -0.0532943 0)
(-0.0393902 0.0496055 0)
(-0.00498591 0.098924 0)
(0.0473976 0.156084 0)
(0.16529 0.109103 0)
(0.187041 0.214709 0)
(0.295618 0.20545 0)
(0.470899 -0.0270027 0)
(0.349946 -0.269157 0)
(0.381825 -0.257516 0)
(0.289256 -0.136385 0)
(0.197816 -0.924003 0)
(-0.150976 -0.511372 0)
(-0.0339268 -0.348632 0)
(-0.0393214 -0.0862081 0)
(-0.114593 -0.0447989 0)
(-0.160747 -0.0305212 0)
(-0.0908516 -0.096507 0)
(-0.0751268 -0.0486219 0)
(-0.0664604 -0.0167235 0)
(-0.0714223 -0.00532264 0)
(-0.0600297 -0.0876782 0)
(-0.0922359 -0.281401 0)
(-0.0241663 -0.0139218 0)
(-0.00466011 0.0604532 0)
(0.000572214 0.0273163 0)
(0.0152976 0.0792821 0)
(0.136084 0.0486253 0)
(0.192499 0.00125772 0)
(0.237061 0.0254798 0)
(0.275444 -0.0978251 0)
(0.325887 -0.183871 0)
(0.480265 -0.283659 0)
(0.495782 -0.146543 0)
(0.246654 -0.922831 0)
(-0.11505 -0.416612 0)
(0.0104552 -0.54002 0)
(-0.295566 -0.093467 0)
(-0.126653 0.058633 0)
(-0.166732 -0.0892356 0)
(-0.127661 -0.09839 0)
(-0.154714 -0.0338931 0)
(-0.15511 -0.00855386 0)
(-0.133552 -0.0242523 0)
(-0.112962 -0.0562955 0)
(-0.1369 -0.226218 0)
(-0.0174705 -0.00201677 0)
(-0.00165422 0.0185712 0)
(0.0171985 0.0262295 0)
(0.0593162 0.0149511 0)
(0.0813154 0.00724862 0)
(0.155178 -0.0247396 0)
(0.33214 -0.012701 0)
(0.318239 -0.126814 0)
(0.199223 -0.174645 0)
(0.263503 -0.241195 0)
(0.277112 -0.209986 0)
(0.18188 -0.963776 0)
(-0.0250281 -0.288546 0)
(-0.145076 -0.522547 0)
(-0.173681 -0.0436376 0)
(-0.207913 0.0591069 0)
(-0.29256 -0.0743263 0)
(-0.174604 -0.0166271 0)
(-0.169416 -0.0609051 0)
(-0.192047 -0.0137585 0)
(-0.180841 -0.0838862 0)
(-0.174122 -0.0868257 0)
(-0.24337 -0.154171 0)
(-0.0425324 0.0288357 0)
(0.00431699 0.0188092 0)
(0.0199348 0.00179784 0)
(0.0359109 -0.01823 0)
(0.0755483 -0.0466237 0)
(0.0951315 -0.0343385 0)
(0.123334 -0.122147 0)
(0.167966 -0.227978 0)
(0.188997 -0.320385 0)
(0.233514 -0.211416 0)
(0.234383 -0.287175 0)
(0.0567502 -0.375158 0)
(-0.0506446 -0.269868 0)
(-0.124045 -0.130062 0)
(-0.125202 -0.0943415 0)
(-0.209505 -0.110855 0)
(-0.156122 -0.044945 0)
(-0.155157 -0.00312601 0)
(-0.2304 -0.0214517 0)
(-0.246624 -0.0063328 0)
(-0.213122 0.00720299 0)
(-0.164756 0.00952207 0)
(-0.271044 -0.0835978 0)
(-0.0111548 0.00939446 0)
(0.0157932 -0.0143064 0)
(0.00975351 -0.0216679 0)
(0.0474697 -0.0367778 0)
(0.0644118 -0.0581465 0)
(0.0222163 -0.105148 0)
(0.104068 -0.162508 0)
(0.121163 -0.192433 0)
(0.0244894 -0.295071 0)
(0.0925896 -0.252167 0)
(0.0269167 -0.237176 0)
(-0.0474411 -0.384761 0)
(-0.00366785 -0.179435 0)
(-0.222905 -0.0354307 0)
(-0.277912 -0.0287817 0)
(-0.263122 -0.11071 0)
(-0.176659 -0.0141327 0)
(-0.144474 -0.0656162 0)
(-0.177419 0.00366746 0)
(-0.185943 0.0175852 0)
(-0.15562 0.0361316 0)
(-0.201596 -0.0463664 0)
(-0.268597 -0.0501054 0)
(-0.0170511 0.0423242 0)
(0.0295318 -0.00771688 0)
(0.00777861 -0.0261412 0)
(0.0278397 -0.0268419 0)
(0.0511026 -0.0692355 0)
(-0.00444711 -0.120208 0)
(0.11601 -0.112934 0)
(0.0363756 -0.261388 0)
(-0.0383725 -0.273518 0)
(-0.00568758 -0.231086 0)
(-0.00611412 -0.14813 0)
(-0.125853 -0.00392389 0)
(-0.174645 -0.0709253 0)
(-0.222942 -0.0798435 0)
(-0.30174 -0.0188691 0)
(-0.198636 -0.046873 0)
(-0.172444 0.0262806 0)
(-0.193664 -0.00478335 0)
(-0.158216 0.0182201 0)
(-0.208452 -0.0235275 0)
(-0.266322 -0.00608426 0)
(-0.178164 -0.0551237 0)
(-0.0887324 0.0185948 0)
(0.0301169 -0.00898412 0)
(0.00878891 -0.0307175 0)
(0.00954925 -0.0150771 0)
(0.0243391 -0.0458387 0)
(0.00871145 -0.0544602 0)
(0.019749 -0.139907 0)
(0.00528848 -0.115013 0)
(0.012069 -0.310304 0)
(-0.0461552 -0.271331 0)
(-0.0460523 -0.260729 0)
(-0.0747 -0.183439 0)
(-0.197424 -0.158722 0)
(-0.22681 -0.117118 0)
(-0.258851 -0.161416 0)
(-0.334182 -0.104289 0)
(-0.167652 -0.0276957 0)
(-0.115245 -0.0334123 0)
(-0.134965 -0.0374069 0)
(-0.139646 -0.0320632 0)
(-0.20154 -0.0735773 0)
(-0.206579 0.0231709 0)
(-0.179579 0.00473626 0)
(-0.270899 0.0117883 0)
(0.00489795 -0.0298935 0)
(0.0431062 -0.0382932 0)
(-0.00125821 -0.0345567 0)
(0.0226729 -0.0182785 0)
(-0.00706528 -0.0784487 0)
(-0.0403337 -0.0948513 0)
(-0.0252308 -0.125859 0)
(-0.0599721 -0.152328 0)
(-0.0423823 -0.154477 0)
(-0.0985515 -0.177368 0)
(-0.0993776 -0.17169 0)
(-0.127743 -0.232588 0)
(-0.155867 -0.159671 0)
(-0.185212 -0.202406 0)
(-0.209665 -0.0908719 0)
(-0.15793 -0.0264848 0)
(-0.15007 -0.0197931 0)
(-0.187312 -0.0285263 0)
(-0.143739 -0.0622258 0)
(-0.107434 -0.0527794 0)
(-0.189293 -0.0479729 0)
(-0.246186 -0.0286223 0)
(-0.170057 0.036298 0)
(0.00382381 -0.0578112 0)
(0.0164444 -0.049044 0)
(0.0260893 -0.0447911 0)
(0.0101974 -0.0282881 0)
(-0.0132794 -0.0730711 0)
(-0.00944053 -0.102161 0)
(-0.0107334 -0.0914422 0)
(-0.0348881 -0.113753 0)
(-0.0528443 -0.109381 0)
(-0.0604316 -0.124755 0)
(-0.0910498 -0.101237 0)
(-0.097628 -0.0868821 0)
(-0.160725 -0.0953307 0)
(-0.191646 -0.0952559 0)
(-0.141192 -0.0266049 0)
(-0.102084 -0.01796 0)
(-0.13978 -0.0203124 0)
(-0.190418 0.00930934 0)
(-0.173111 0.00374954 0)
(-0.209642 0.00347484 0)
(-0.169483 -0.0185469 0)
(-0.113674 0.00880909 0)
(-0.231627 0.0447996 0)
(-0.00164658 -0.0712041 0)
(0.0164712 -0.0511776 0)
(-0.00288928 -0.0463891 0)
(0.022512 -0.0300085 0)
(-0.011195 -0.0614449 0)
(0.0267125 -0.0658884 0)
(0.0169328 -0.114107 0)
(-0.0557126 -0.101493 0)
(-0.0365967 -0.104334 0)
(-0.0191716 -0.102716 0)
(-0.0532443 -0.12828 0)
(-0.133553 -0.123717 0)
(-0.144491 -0.0945857 0)
(-0.106133 -0.0668168 0)
(-0.136576 -0.0118806 0)
(-0.118359 -0.0450787 0)
(-0.112843 -0.0600973 0)
(-0.161602 -0.0226257 0)
(-0.183934 -0.0168937 0)
(-0.15813 -0.0140553 0)
(-0.170152 0.0183303 0)
(-0.147111 0.00794664 0)
(-0.171935 -0.0782654 0)
(-0.00268998 -0.0700259 0)
(0.0046016 -0.052341 0)
(0.00570502 -0.038701 0)
(0.00501931 -0.0155658 0)
(0.00494529 -0.0792795 0)
(0.00677005 -0.0393426 0)
(0.0209914 -0.129695 0)
(-0.0076935 -0.106493 0)
(-0.0688361 -0.0901262 0)
(-0.0590037 -0.0847678 0)
(-0.0600938 -0.125518 0)
(-0.0798613 -0.143005 0)
(-0.111457 -0.107944 0)
(-0.0786431 -0.0867086 0)
(-0.104143 -0.0262867 0)
(-0.135766 -0.0242959 0)
(-0.0970523 -0.0592193 0)
(-0.14009 -0.0681738 0)
(-0.148464 -0.0390541 0)
(-0.150575 -0.00692881 0)
(-0.152717 -0.0105087 0)
(-0.149545 0.0174088 0)
(-0.159159 0.00198759 0)
(-0.0143369 -0.0782409 0)
(0.00514642 -0.0623005 0)
(-0.0174274 -0.059088 0)
(0.00524855 -0.0321677 0)
(0.0368639 -0.066329 0)
(0.012788 -0.0894853 0)
(-0.0320516 -0.0871831 0)
(-0.00536698 -0.13497 0)
(-0.0384672 -0.132549 0)
(-0.0472827 -0.113282 0)
(-0.0327204 -0.104358 0)
(-0.0905944 -0.091218 0)
(-0.0785244 -0.0761417 0)
(-0.0508412 -0.0781105 0)
(-0.0857445 -0.062153 0)
(-0.129048 -0.0562401 0)
(-0.125441 -0.0436047 0)
(-0.127829 -0.0843816 0)
(-0.120146 -0.000196448 0)
(-0.113285 -0.0152316 0)
(-0.141574 0.00638314 0)
(-0.123364 0.015781 0)
(-0.128349 0.0109867 0)
(-0.022753 -0.0490592 0)
(-0.0109799 -0.043694 0)
(0.0145184 -0.0419773 0)
(0.00590106 -0.0368169 0)
(0.00231664 -0.0387747 0)
(0.0336464 -0.0969566 0)
(0.000939644 -0.0828582 0)
(-0.0047658 -0.0913894 0)
(-0.0257404 -0.0920801 0)
(-0.0323297 -0.0835133 0)
(-0.0476492 -0.0867966 0)
(-0.0451845 -0.0795733 0)
(-0.0627519 -0.0329888 0)
(-0.0406796 -0.0529967 0)
(-0.0753064 -0.061715 0)
(-0.0948282 -0.0529162 0)
(-0.11014 -0.0784261 0)
(-0.0737913 -0.04853 0)
(-0.0748664 -0.0271088 0)
(-0.140402 0.0143245 0)
(-0.105098 -0.000767952 0)
(-0.123796 0.0116801 0)
(-0.106821 0.0300679 0)
(0.00649043 -0.0144836 0)
(0.00358024 -0.0393691 0)
(-0.00224032 -0.0191002 0)
(-0.00375059 -0.0306545 0)
(-0.00877433 -0.0333311 0)
(-0.0115283 -0.0569305 0)
(0.0156658 -0.0444458 0)
(0.0101069 -0.0876196 0)
(-0.0101133 -0.0763579 0)
(-0.0137559 -0.074754 0)
(-0.0249218 -0.0773798 0)
(-0.0419643 -0.0743363 0)
(-0.0424315 -0.0750157 0)
(-0.0430329 -0.0688713 0)
(-0.0231251 -0.0691951 0)
(-0.120763 -0.0774338 0)
(-0.10439 -0.03315 0)
(-0.0581487 -0.0187949 0)
(-0.0760452 -0.0230107 0)
(-0.0770622 -0.0159363 0)
(-0.134431 -0.00335207 0)
(-0.103258 0.0208052 0)
(-0.0981771 0.0222011 0)
(0.00176858 -0.0195313 0)
(-0.00248765 -0.0393382 0)
(-3.64172e-05 -0.0347409 0)
(0.00448314 -0.0278082 0)
(-0.00472879 -0.0322139 0)
(-0.00111949 -0.0374793 0)
(-0.0191493 -0.0360962 0)
(-0.016591 -0.0378086 0)
(-0.0159224 -0.0449845 0)
(-0.0365506 -0.049115 0)
(-0.0361569 -0.0357209 0)
(-0.022539 -0.0379793 0)
(-0.028699 -0.0416439 0)
(0.000594194 -0.0730695 0)
(-0.0663265 -0.0667259 0)
(-0.0656073 -0.075992 0)
(-0.0483306 -0.00474628 0)
(-0.0403958 -0.0437949 0)
(-0.0696744 -0.0309616 0)
(-0.109342 -0.0622678 0)
(-0.0678598 0.0139507 0)
(-0.114897 -0.0141289 0)
(-0.0526985 0.0559019 0)
(-0.000782906 -0.0183086 0)
(0.00421427 -0.0380218 0)
(-0.0015728 -0.026923 0)
(0.002152 -0.0281456 0)
(-0.00676694 -0.0288128 0)
(-0.000447263 -0.045164 0)
(-0.00228347 -0.0360549 0)
(-0.00658286 -0.0215967 0)
(-0.0146185 -0.0407727 0)
(-0.0147807 -0.0332057 0)
(-0.0173626 -0.0281679 0)
(-0.0299596 -0.0254749 0)
(-0.0263176 -0.0294973 0)
(-0.0546413 -0.0205706 0)
(-0.046224 -0.0408316 0)
(-0.046053 -0.0104553 0)
(-0.0569082 -0.0447235 0)
(-0.0505918 -0.0271074 0)
(-0.0673777 -0.0414356 0)
(-0.0311252 -0.0271806 0)
(-0.0938404 -0.0114235 0)
(-0.0736348 0.022792 0)
(-0.0978522 0.0392918 0)
(-0.00162311 -0.0198089 0)
(0.00195303 -0.0377211 0)
(-0.00287334 -0.0308223 0)
(0.00213884 -0.0210941 0)
(-0.0111458 -0.028666 0)
(-0.00218629 -0.038982 0)
(-0.0107453 -0.028498 0)
(-0.0096678 -0.0247963 0)
(-0.0135851 -0.0311698 0)
(-0.0177846 -0.0407514 0)
(-0.0125539 -0.0260238 0)
(-0.0167221 -0.026369 0)
(-0.025254 -0.027514 0)
(-0.0273243 -0.0390821 0)
(-0.0340879 -0.013414 0)
(-0.0418841 -0.0482626 0)
(-0.0531501 0.00496527 0)
(-0.0206317 -0.0351375 0)
(-0.0647708 0.0229184 0)
(-0.103807 -0.00720891 0)
(-0.0506221 -0.0145229 0)
(-0.0834622 0.0601948 0)
(-0.0688027 -0.0143876 0)
(-0.00223182 -0.0205379 0)
(0.0056213 -0.0376992 0)
(-0.000608555 -0.0294111 0)
(0.00612455 -0.0202742 0)
(-0.0087178 -0.0268726 0)
(-0.000380614 -0.0460478 0)
(-0.00967721 -0.0317904 0)
(-0.0047434 -0.0166607 0)
(-0.0106774 -0.0293123 0)
(-0.00193267 -0.0305105 0)
(-0.00582767 -0.0282862 0)
(-0.027304 -0.0120846 0)
(-0.0341184 -0.0182684 0)
(-0.0342215 -0.0196764 0)
(-0.00852156 -0.00681221 0)
(-0.0165951 -0.0469796 0)
(-0.0668136 0.0123469 0)
(-0.0429579 -0.0249708 0)
(-0.0528246 -0.0243999 0)
(-0.0734155 -0.00960524 0)
(-0.0537779 0.0298361 0)
(-0.0492321 -0.00519809 0)
(-0.0913101 0.0715687 0)
(-0.00253647 -0.0218932 0)
(0.00335164 -0.038111 0)
(-0.0036665 -0.0302143 0)
(0.00173987 -0.0113429 0)
(-0.0149649 -0.0218415 0)
(-0.00429787 -0.036105 0)
(-0.00847601 -0.0249504 0)
(-0.00814244 -0.0218837 0)
(-0.00655208 -0.0405339 0)
(-0.0169312 -0.0455557 0)
(-0.00656775 -0.0424712 0)
(-0.0187994 -0.0273236 0)
(-0.028258 -0.0237751 0)
(-0.0304866 -0.0266021 0)
(-0.0401683 -0.0123131 0)
(-0.0315415 -0.0481989 0)
(-0.0339671 -0.0136017 0)
(-0.0344088 -0.0341978 0)
(-0.0505587 -0.0102072 0)
(-0.0405556 -0.00810807 0)
(-0.0676827 0.0248284 0)
(-0.0599526 0.0118669 0)
(-0.046367 0.027042 0)
(-0.00242598 -0.0224993 0)
(0.00535884 -0.0371565 0)
(0.00278266 -0.0301258 0)
(0.0118233 -0.00845138 0)
(0.00453878 -0.0215097 0)
(0.00600656 -0.0505303 0)
(-0.0263955 -0.0284556 0)
(-0.0148308 -0.016079 0)
(-0.0158798 -0.0171529 0)
(-0.014683 -0.0254595 0)
(-0.0144605 -0.0263363 0)
(-0.0294562 -0.014183 0)
(-0.0240517 -0.0134263 0)
(-0.0346699 -0.016895 0)
(-0.0256877 -0.00991355 0)
(-0.00444717 0.0101431 0)
(-0.0418808 0.00583935 0)
(-0.0325259 0.0100575 0)
(-0.0429475 -0.0172255 0)
(-0.0613506 0.00671913 0)
(-0.0654658 -0.0108019 0)
(-0.0682822 0.0380034 0)
(-0.0392933 0.00569526 0)
(-0.00209096 -0.0242541 0)
(0.00205573 -0.0385099 0)
(-0.00197135 -0.0328891 0)
(0.0029125 -0.0113536 0)
(-0.00233808 -0.0245921 0)
(-0.00538724 -0.0667016 0)
(-0.0071086 -0.0500414 0)
(-0.00736065 -0.029334 0)
(0.00769942 -0.0436426 0)
(-0.0177519 -0.0450043 0)
(-0.00793067 -0.0586583 0)
(-0.0198726 -0.0211323 0)
(-0.01928 -0.0201274 0)
(-0.0314531 -0.0240541 0)
(-0.0208193 -0.00695923 0)
(-0.0218856 -0.0100985 0)
(-0.0281418 -0.0102811 0)
(-0.0221217 0.0171844 0)
(-0.0442057 -0.0269638 0)
(-0.0355232 0.00266053 0)
(-0.0406991 0.0273516 0)
(-0.052086 -0.00834171 0)
(-0.0567194 0.0442196 0)
(-0.00162719 -0.0231173 0)
(0.00252218 -0.0374402 0)
(0.000181424 -0.0320766 0)
(0.00847096 -0.00772777 0)
(0.00163821 -0.0153792 0)
(0.00578472 -0.0323547 0)
(-0.0192553 -0.0276707 0)
(-0.0146771 -0.029287 0)
(-0.00587392 -0.0124273 0)
(-0.00930779 -0.011094 0)
(-0.000643252 -0.0265788 0)
(-0.0212139 -0.0110414 0)
(-0.015419 -0.00872769 0)
(-0.0247751 -0.0167664 0)
(-0.0235121 0.000666833 0)
(-0.0147221 -0.0033451 0)
(-0.0149016 0.0147849 0)
(-0.0172141 0.00711726 0)
(-0.0422151 0.00532008 0)
(-0.0120997 0.0146839 0)
(-0.0584902 0.0158132 0)
(-0.045144 0.00576533 0)
(-0.0409181 -0.00252516 0)
(-0.00165763 -0.024926 0)
(-0.00069444 -0.0397405 0)
(-0.0045829 -0.0346122 0)
(-0.00121572 -0.011411 0)
(-0.00990069 -0.0279284 0)
(-0.00509984 -0.0228166 0)
(0.0169367 -0.0477956 0)
(-0.0126911 -0.0250147 0)
(0.00890418 -0.0146957 0)
(-0.0123235 -0.0164937 0)
(0.00374286 -0.0336608 0)
(-0.00881992 -0.0206361 0)
(-0.0169444 -0.0176814 0)
(-0.0231688 -0.0193337 0)
(-0.0164594 -0.00921128 0)
(-0.0111815 0.00157323 0)
(-0.0227639 0.00402462 0)
(-0.0169163 0.0110537 0)
(-0.00964266 0.0325599 0)
(-0.0296947 0.00798321 0)
(-0.0256579 0.00630848 0)
(-0.0326988 0.0169992 0)
(-0.0530239 -0.0288006 0)
(-0.00242878 -0.0210286 0)
(-0.000233898 -0.0366654 0)
(-0.00339035 -0.0299734 0)
(-0.00357583 -0.00666113 0)
(-0.00170733 -0.00940811 0)
(-0.00353921 -0.0194691 0)
(0.0106256 -0.0192744 0)
(-0.0141852 -0.0241023 0)
(-0.0194097 -0.0143837 0)
(-0.0191386 -0.0107761 0)
(-0.0114975 -0.0310544 0)
(-0.014761 -0.0170581 0)
(-0.0151384 -0.0132368 0)
(-0.0205882 -0.0170637 0)
(-0.0194087 -0.00663307 0)
(-0.0156633 -0.000459263 0)
(-0.0160076 0.00996682 0)
(0.000314084 0.0151703 0)
(-0.0264143 0.0256539 0)
(-0.0261105 0.000413381 0)
(-0.0148574 0.0413752 0)
(-0.0223497 -0.00089807 0)
(-0.0210989 0.023458 0)
(-0.00290665 -0.0238398 0)
(-0.000217102 -0.037303 0)
(-0.00941155 -0.0349862 0)
(0.00679527 -0.00849972 0)
(-0.00696636 -0.0292001 0)
(-0.0126287 -0.0303769 0)
(-0.0052227 -0.0325576 0)
(-0.00574157 -0.0281491 0)
(-0.00710748 -0.0249875 0)
(-0.00785636 -0.0190177 0)
(-0.0127087 -0.0359187 0)
(-0.00339198 -0.0144816 0)
(-0.0126422 -0.0165499 0)
(-0.0194356 -0.0172922 0)
(-0.0182931 -0.0120506 0)
(-0.0107275 -0.000243917 0)
(-0.0221264 0.0110837 0)
(-0.0099647 0.0139492 0)
(-0.00773741 0.0154547 0)
(-0.0069954 0.0213279 0)
(-0.0210247 0.0463045 0)
(-0.0025176 0.0142668 0)
(-0.0575766 0.00784256 0)
(-0.00165454 -0.0176356 0)
(-0.000802685 -0.0340741 0)
(-0.00719571 -0.0342268 0)
(0.00256586 -0.00705574 0)
(0.000967867 -0.0265224 0)
(-0.00834857 -0.0262545 0)
(-0.00991883 -0.0269752 0)
(-0.0108545 -0.00691504 0)
(-0.0225954 -0.0204095 0)
(-0.00868385 -0.0102508 0)
(-0.00598715 -0.0188923 0)
(0.0121149 -0.0191087 0)
(-0.00359554 -0.0103604 0)
(-0.0130739 -0.0128402 0)
(-0.0212403 -0.0101251 0)
(-0.0165286 0.00160912 0)
(-0.0224191 0.00798382 0)
(-0.0105063 0.0171785 0)
(-0.00465657 0.0198575 0)
(-0.00246667 0.0368082 0)
(-0.00855671 0.032452 0)
(-0.0210375 0.0129264 0)
(-0.0446496 0.0136158 0)
(-0.00580096 -0.0221265 0)
(-0.00527374 -0.0363768 0)
(-0.0144483 -0.0341254 0)
(0.00285976 -0.0149735 0)
(-0.00201113 -0.00778977 0)