/*--------------------------------*- C++ -*----------------------------------*\
| =========                 |                                                 |
| \\      /  F ield         | foam-extend: Open Source CFD                    |
|  \\    /   O peration     | Version:     4.1                                |
|   \\  /    A nd           | Web:         http://www.foam-extend.org         |
|    \\/     M anipulation  |                                                 |
\*---------------------------------------------------------------------------*/
FoamFile
{
    version     2.0;
    format      ascii;
    class       volScalarField;
    location    "1";
    object      alpha1;
}
// * * * * * * * * * * * * * * * * * * * * * * * * * * * * * * * * * * * * * //

dimensions      [0 0 0 0 0 0 0];

internalField   nonuniform List<scalar> 
2268
(
0.656001
0.722123
0.762205
0.784255
0.799368
0.765118
0.722315
0.790402
0.90279
0.990262
0.998963
0.999117
0.998262
0.992253
0.999755
0.99984
0.999947
0.999955
0.999506
0.997911
0.997504
0.948402
0.671715
0.652213
0.727313
0.796913
0.819435
0.820519
0.832403
0.839362
0.928985
0.959966
0.97571
0.993732
0.987976
0.987268
0.927838
0.996097
0.998997
0.999783
0.999962
0.999827
0.999509
0.999691
0.992527
0.944081
0.665338
0.739062
0.793816
0.811561
0.819783
0.837208
0.847805
0.855152
0.846784
0.955132
0.975675
0.927767
0.92578
0.758947
0.955681
0.995174
0.998343
0.999806
0.999938
0.999926
0.999762
0.997795
0.98693
0.655914
0.706335
0.740464
0.805825
0.834221
0.842585
0.880334
0.928654
0.947893
0.958641
0.9253
0.791283
0.759802
0.676852
0.827417
0.98069
0.988545
0.99879
0.999825
0.999831
0.999707
0.997485
0.992221
0.642625
0.678915
0.751954
0.769776
0.722256
0.677738
0.789025
0.878628
0.899536
0.904401
0.825208
0.71447
0.710032
0.657131
0.827387
0.963632
0.943167
0.990344
0.998724
0.999048
0.998863
0.994179
0.991659
0.623373
0.667958
0.729118
0.668691
0.564643
0.545871
0.58876
0.686807
0.765878
0.814781
0.76194
0.649511
0.687986
0.624721
0.851409
0.930068
0.819705
0.950538
0.986339
0.993745
0.994074
0.98576
0.986815
0.596594
0.645376
0.698588
0.582126
0.505052
0.50032
0.524458
0.534118
0.610776
0.620078
0.638286
0.596105
0.646027
0.579976
0.820017
0.835351
0.674925
0.851325
0.942228
0.967696
0.972853
0.965877
0.95542
0.56653
0.620084
0.659003
0.52983
0.48024
0.479964
0.495181
0.474973
0.5257
0.549022
0.58104
0.580905
0.605482
0.559064
0.675686
0.646021
0.575094
0.670084
0.848113
0.863663
0.832717
0.88394
0.86034
0.610019
0.636681
0.63925
0.637737
0.633667
0.630984
0.62455
0.61897
0.6399
0.625378
0.614313
0.597302
0.583444
0.605172
0.617795
0.624571
0.621253
0.649968
0.64055
0.600295
0.617971
0.602842
0.557102
0.52557
0.489997
0.473815
0.53366
0.569309
0.55066
0.518164
0.507628
0.442601
0.437099
0.503099
0.567603
0.553289
0.630243
0.625089
0.588468
0.600783
0.579613
0.485515
0.441316
0.370555
0.360054
0.39984
0.433069
0.446527
0.387192
0.394826
0.390365
0.377816
0.423106
0.512226
0.482282
0.605466
0.614375
0.579907
0.568849
0.490133
0.409324
0.385072
0.324793
0.320096
0.322101
0.338659
0.342706
0.342306
0.395067
0.381598
0.395282
0.404248
0.437246
0.450742
0.549321
0.602016
0.572428
0.542104
0.470071
0.394827
0.347112
0.318661
0.318796
0.321174
0.347557
0.326651
0.323993
0.418861
0.428893
0.427289
0.413737
0.417916
0.432932
0.494497
0.592204
0.568864
0.526923
0.446229
0.357189
0.324269
0.311256
0.336492
0.335414
0.414698
0.431445
0.355634
0.421801
0.439652
0.434228
0.425575
0.415504
0.421498
0.475149
0.592013
0.563103
0.504038
0.403365
0.32549
0.316656
0.348742
0.388241
0.362547
0.435052
0.464396
0.413703
0.456118
0.446842
0.42706
0.428278
0.418068
0.420611
0.463168
0.581099
0.553685
0.446816
0.335722
0.300805
0.33221
0.404925
0.420247
0.405093
0.440108
0.468818
0.448657
0.469058
0.44939
0.405894
0.410604
0.398913
0.40831
0.434667
0.574294
0.537688
0.581454
0.628028
0.521623
0.48132
0.489266
0.470183
0.470994
0.492765
0.55235
0.568265
0.568984
0.566447
0.547107
0.558662
0.54773
0.545073
0.58744
0.652313
0.630773
0.6203
0.65055
0.54129
0.502307
0.525623
0.566845
0.472405
0.379136
0.376696
0.438674
0.476034
0.469856
0.550653
0.556901
0.537628
0.533638
0.536391
0.540722
0.539544
0.550171
0.55779
0.562224
0.557757
0.551981
0.541828
0.52364
0.471665
0.435547
0.450826
0.389591
0.329177
0.349776
0.341256
0.438763
0.499808
0.531188
0.532262
0.525573
0.54137
0.560775
0.564902
0.561448
0.539877
0.519871
0.514303
0.512461
0.516267
0.512637
0.510374
0.451481
0.363054
0.294648
0.307495
0.329308
0.380681
0.424795
0.494462
0.530278
0.533471
0.50652
0.497812
0.517563
0.5499
0.567855
0.570535
0.566853
0.54196
0.504539
0.480069
0.47388
0.473575
0.470404
0.424075
0.287589
0.235335
0.262353
0.324238
0.36668
0.421274
0.483083
0.500835
0.4664
0.420163
0.403658
0.426953
0.462605
0.490554
0.521134
0.534015
0.498098
0.44498
0.387043
0.354857
0.350553
0.338586
0.373367
0.239532
0.222786
0.261269
0.304522
0.306804
0.314131
0.420975
0.472706
0.416378
0.346904
0.321005
0.328117
0.357134
0.376308
0.392615
0.37339
0.33302
0.317899
0.316531
0.319761
0.337844
0.352959
0.311012
0.226761
0.221161
0.250074
0.271593
0.280779
0.330813
0.38689
0.388214
0.291622
0.276992
0.280043
0.286518
0.29586
0.303372
0.315677
0.294968
0.289193
0.288274
0.298636
0.311207
0.322211
0.329312
0.261374
0.216439
0.210699
0.222374
0.221902
0.257456
0.295565
0.31446
0.284669
0.221162
0.215758
0.224851
0.229303
0.234069
0.241173
0.251623
0.255691
0.259335
0.262666
0.267098
0.269018
0.265426
0.257123
0.224964
0.206196
0.192172
0.184116
0.196665
0.237753
0.255511
0.242724
0.201794
0.174678
0.169264
0.18376
0.1977
0.208976
0.222498
0.229197
0.229848
0.227927
0.223525
0.220237
0.215804
0.200123
0.168457
0.18515
0.178256
0.166581
0.137482
0.169561
0.204425
0.214885
0.216354
0.198516
0.16837
0.155517
0.160534
0.184319
0.199522
0.204043
0.203366
0.194288
0.170988
0.135463
0.116488
0.10762
0.0972442
0.0726859
0.13307
0.132592
0.131019
0.099851
0.137004
0.161136
0.154479
0.181504
0.17435
0.173749
0.152648
0.153042
0.170728
0.178109
0.17957
0.179046
0.172344
0.147422
0.109639
0.0854197
0.0521034
0.0342653
0.0245183
0.0692352
0.0847051
0.0826512
0.0782246
0.108443
0.117631
0.0798504
0.117705
0.112873
0.143438
0.149647
0.142018
0.152256
0.159113
0.161361
0.158076
0.145296
0.0923515
0.0441425
0.0235228
0.0137337
0.00854039
0.00594005
0.029446
0.0393577
0.0423434
0.0605392
0.084916
0.0849843
0.0407781
0.0582244
0.0934226
0.131133
0.138151
0.130958
0.138336
0.145282
0.145829
0.138602
0.109495
0.0499223
0.0185667
0.00727668
0.00327195
0.00212629
0.00134238
0.0147131
0.0185308
0.02389
0.042913
0.0631963
0.0540163
0.0254438
0.042244
0.0915865
0.116151
0.120122
0.122716
0.134796
0.138088
0.138024
0.130226
0.0897684
0.0219992
0.00539553
0.00209134
0.000915196
0.000504166
0.000287066
0.0104723
0.0130894
0.0152248
0.0266541
0.0412973
0.0330483
0.0201358
0.0410877
0.0868546
0.106893
0.116926
0.124016
0.128357
0.125838
0.103578
0.0542221
0.0195761
0.00412716
0.00126085
0.000654747
0.000475114
0.000249715
0.000100718
0.01119
0.0137161
0.0132378
0.0170811
0.0257167
0.0225455
0.020659
0.040914
0.0849667
0.102765
0.112539
0.120297
0.120911
0.107547
0.0642876
0.0163453
0.00393746
0.00102643
0.00054402
0.000399266
0.000346483
0.000127817
3.54977e-05
0.0158769
0.0184306
0.0139976
0.0147909
0.0199116
0.0207592
0.0245061
0.057429
0.0891208
0.103385
0.111488
0.115481
0.107688
0.0758962
0.0214001
0.00242692
0.0008471
0.000433617
0.000275067
0.000213045
0.000200285
8.45103e-05
1.54897e-05
0.0195495
0.0254461
0.0173425
0.0158924
0.0200809
0.0235215
0.0418359
0.0775177
0.0963445
0.10402
0.108463
0.100524
0.0676375
0.0327749
0.00272155
0.000482107
0.000293634
0.000205452
0.000104677
7.37846e-05
6.51006e-05
7.65933e-05
1.58891e-05
0.0285604
0.0348751
0.0270638
0.0218083
0.0240649
0.0362895
0.0704865
0.0911717
0.0968563
0.101068
0.0948122
0.062962
0.0217365
0.004831
0.000422325
0.000218825
0.000114052
9.2022e-05
3.80427e-05
1.99418e-05
1.3061e-05
2.45465e-05
7.42801e-06
0.0302783
0.0442508
0.0427381
0.0362845
0.0368383
0.0585789
0.0814176
0.0899165
0.0930755
0.0851996
0.0586947
0.0198438
0.00505805
0.000682797
0.000232469
0.000112761
5.41833e-05
5.1461e-05
2.51899e-05
1.08001e-05
5.31189e-06
4.09698e-06
2.79695e-06
0.0332903
0.049189
0.0535597
0.0557011
0.0608523
0.0749733
0.0809064
0.0832349
0.0759489
0.0497459
0.0258162
0.00460421
0.0013012
0.000373708
0.000148938
4.13963e-05
2.24882e-05
2.64771e-05
1.81395e-05
7.24287e-06
2.85921e-06
9.69978e-07
9.90906e-07
0.0338293
0.0538299
0.0602426
0.0647851
0.0695993
0.0737019
0.0746611
0.0671467
0.0472052
0.0210272
0.0122309
0.00228123
0.000980768
0.000202194
8.78094e-05
1.85242e-05
8.79009e-06
8.89027e-06
9.38342e-06
4.01611e-06
1.52581e-06
2.96941e-07
2.47721e-07
0.034308
0.0548785
0.061676
0.0651404
0.067555
0.0660519
0.0510787
0.0453631
0.0219641
0.00986614
0.00631816
0.000784444
0.000341954
0.000102449
3.71989e-05
7.5589e-06
3.33313e-06
2.45665e-06
3.84484e-06
1.73104e-06
5.99395e-07
7.69194e-08
4.1007e-08
0.032617
0.0547542
0.0609701
0.0630656
0.0601691
0.0478846
0.0264684
0.0179732
0.00914671
0.00527728
0.00386837
0.000560678
0.000362541
7.19297e-05
1.2681e-05
3.203e-06
1.30332e-06
6.44129e-07
1.26322e-06
7.59818e-07
2.64745e-07
2.16209e-08
9.6121e-09
0.0326434
0.053963
0.0582789
0.0572379
0.0448091
0.0243779
0.01461
0.00677849
0.00389014
0.00274708
0.00167951
0.000718256
0.000345262
4.46607e-05
4.71128e-06
1.31209e-06
5.34274e-07
1.95363e-07
2.15846e-07
1.77006e-07
1.36933e-07
7.2367e-09
3.59963e-09
0.0318006
0.0516775
0.0537544
0.0485177
0.0315359
0.0120582
0.00687678
0.00276076
0.00181502
0.0016931
0.00121371
0.000890866
0.0001963
1.69197e-05
1.64726e-06
5.41785e-07
2.21513e-07
6.92036e-08
3.25047e-08
3.19436e-08
2.78038e-08
2.30903e-09
1.32754e-09
0.0329089
0.0479747
0.0472896
0.0382266
0.0228228
0.0086396
0.00420361
0.00176054
0.00136847
0.00126655
0.00107681
8.57896e-05
2.68898e-05
4.34087e-06
7.53324e-07
2.13549e-07
9.62677e-08
3.57328e-08
7.26872e-09
3.51117e-09
3.85846e-09
6.12141e-10
3.8481e-10
0.0317882
0.0433067
0.0394615
0.0285041
0.0153449
0.00572817
0.00308059
0.00202762
0.00172935
0.00122887
0.00082506
2.49547e-05
6.61114e-06
1.94311e-06
4.68527e-07
9.50338e-08
3.39563e-08
2.4987e-08
4.08147e-09
5.86878e-10
3.59925e-10
1.33613e-10
8.1721e-11
0.030231
0.0379514
0.0317237
0.0221104
0.0121246
0.00537197
0.00295752
0.00200933
0.00147397
0.000625084
3.28867e-05
1.44654e-05
4.49431e-06
1.34466e-06
3.0318e-07
5.40968e-08
1.01919e-08
5.42317e-09
1.64278e-09
1.91764e-10
6.91957e-11
3.12295e-11
5.69933e-12
0.0283454
0.033332
0.0255941
0.0184586
0.0113047
0.00528718
0.00271187
0.00161553
0.000877245
0.000156041
2.51758e-05
9.89784e-06
3.40161e-06
8.96414e-07
2.07281e-07
3.1395e-08
4.07179e-09
1.31996e-09
2.52881e-10
4.86822e-11
1.70894e-11
1.32673e-11
1.79406e-12
0.0264464
0.0292889
0.0211312
0.0160896
0.0106414
0.00491181
0.0018851
0.000493166
0.000197372
2.79435e-05
1.18481e-05
6.09158e-06
2.64018e-06
5.77719e-07
1.13224e-07
1.60396e-08
2.11513e-09
4.63381e-10
5.87748e-11
1.06897e-11
4.09783e-12
2.75696e-12
3.3229e-13
0.0247259
0.0258943
0.0180166
0.0146014
0.00986026
0.00392627
0.000773205
0.000165954
7.44835e-05
2.44428e-05
1.03359e-05
5.61135e-06
1.79751e-06
4.13555e-07
6.96143e-08
1.08947e-08
1.6437e-09
2.5657e-10
1.81251e-11
1.97886e-12
6.52811e-13
4.02567e-13
6.20615e-14
0.0231523
0.022807
0.0156253
0.0133187
0.00849161
0.0024627
0.00035582
0.000131689
7.97135e-05
4.58393e-05
2.3964e-05
1.19717e-05
2.64795e-06
3.59218e-07
6.73717e-08
9.7354e-09
1.30419e-09
1.94806e-10
1.43377e-11
7.37521e-13
9.33142e-14
5.2458e-14
1.98175e-14
0.0216768
0.0196394
0.0135391
0.0117523
0.00602096
0.00117704
0.000269787
0.000166397
0.000154427
8.27509e-05
4.68872e-05
1.6869e-05
3.58609e-06
4.13141e-07
6.28979e-08
9.63747e-09
1.31078e-09
1.21583e-10
1.31955e-11
5.14089e-13
6.55587e-14
1.38778e-14
1.69864e-14
0.0204321
0.016572
0.0116769
0.00994003
0.00412429
0.000796504
0.000347184
0.000357199
0.000652212
0.000183646
6.40741e-05
1.74858e-05
3.55739e-06
5.14888e-07
8.51769e-08
7.85838e-09
4.81188e-10
5.12645e-11
1.331e-11
3.3934e-13
6.60028e-14
1.12133e-14
1.78746e-14
0.0192225
0.0136358
0.0101582
0.00850069
0.00306901
0.000790168
0.000516533
0.000684892
0.000986458
0.000282813
0.000100329
2.24219e-05
2.888e-06
4.2696e-07
4.94801e-08
3.72912e-09
2.54205e-10
2.00625e-11
1.13715e-12
1.80411e-13
4.60743e-14
1.16573e-14
1.83742e-14
0.0180707
0.0115597
0.00914258
0.00770555
0.00308945
0.000932755
0.000754119
0.00119098
0.00199871
0.000483472
0.000165346
2.46238e-05
2.51555e-06
2.27545e-07
2.94452e-08
2.35261e-09
1.11169e-10
1.01136e-11
3.03646e-13
1.81521e-14
1.39888e-14
1.31561e-14
1.83187e-14
0.0168657
0.00987697
0.00837836
0.00762972
0.00395437
0.00131043
0.00127837
0.00140148
0.00246146
0.000744628
0.000217976
3.21631e-05
3.00719e-06
9.87061e-08
7.40747e-09
1.80815e-09
7.10244e-11
5.8949e-12
5.59552e-14
1.40443e-14
1.35447e-14
1.33227e-14
1.9873e-14
0.0156419
0.00868155
0.00759264
0.00783209
0.00576903
0.00220002
0.00253611
0.00191259
0.0035922
0.000889423
0.000122959
1.43806e-05
1.19021e-06
2.01057e-08
1.20216e-09
1.11642e-09
1.94239e-11
2.21795e-12
2.15938e-14
1.39333e-14
1.44329e-14
1.44884e-14
1.60427e-14
0.0144982
0.0075993
0.00653798
0.00782623
0.00739075
0.0041154
0.00455023
0.0034179
0.00257384
0.000229658
1.31967e-05
3.52179e-06
3.94248e-07
8.27759e-09
2.85411e-10
2.29142e-11
1.6126e-13
1.72085e-14
1.59317e-14
1.47105e-14
1.57652e-14
1.70419e-14
1.36557e-14
0.0140649
0.007527
0.00558218
0.00758798
0.00798185
0.00681962
0.0052211
0.00332174
0.000334433
4.44469e-05
3.03019e-06
1.03636e-06
2.23174e-07
7.39189e-09
2.33285e-10
1.3734e-12
3.87468e-14
1.4766e-14
1.80411e-14
1.77636e-14
1.7264e-14
2.10942e-14
8.10463e-15
0.0134593
0.00812422
0.00504609
0.00635948
0.00746615
0.00590133
0.00296813
0.000408874
7.61513e-06
5.97108e-06
1.85641e-06
1.73292e-07
3.64798e-08
9.8472e-09
2.35812e-10
1.95843e-13
3.57492e-14
1.58207e-14
2.05391e-14
1.80411e-14
1.81521e-14
2.45914e-14
6.05072e-15
0.526013
0.526992
0.522292
0.517994
0.519264
0.513008
0.499483
0.485518
0.499227
0.485641
0.469992
0.456167
0.451547
0.435006
0.403389
0.372407
0.35196
0.351398
0.352843
0.355884
0.362906
0.369468
0.373757
0.376123
0.331125
0.330575
0.326665
0.316586
0.248332
0.240246
0.231927
0.220615
0.145144
0.129863
0.117247
0.107644
0.0553506
0.0461156
0.0389635
0.034804
0.0178926
0.0146498
0.011094
0.00926124
0.00501292
0.00421747
0.00330174
0.00283229
0.000988366
0.000725032
0.000766712
0.000692031
0.000178384
0.00012546
0.000117638
9.84656e-05
2.51967e-05
1.69735e-05
1.07902e-05
5.64712e-06
7.95112e-06
4.80039e-06
2.38583e-06
1.00712e-06
4.00095e-06
2.05904e-06
9.01179e-07
5.41461e-07
8.15812e-06
5.11397e-06
3.29332e-06
6.09906e-07
3.33161e-06
2.6979e-06
9.10476e-06
5.86044e-07
1.01675e-06
6.26617e-07
6.89098e-07
2.97582e-07
5.84269e-07
2.8371e-07
2.6854e-07
1.36497e-07
1.64722e-07
1.00499e-07
8.6325e-08
3.11981e-08
6.28831e-08
4.3824e-08
3.80461e-08
1.45083e-08
7.0646e-09
5.23204e-09
2.51684e-09
1.91169e-09
2.00439e-09
4.38312e-10
1.59316e-10
2.69057e-10
1.30451e-09
2.27036e-10
1.94414e-11
1.0718e-11
5.03435e-10
3.37615e-10
9.44961e-12
2.19108e-12
3.33854e-11
1.6527e-11
2.5745e-12
6.73073e-13
2.17903e-12
3.35471e-12
1.41748e-12
7.54119e-13
3.56826e-13
4.44367e-13
1.31672e-13
4.35763e-14
1.63758e-13
2.16493e-14
1.60427e-14
1.61537e-14
1.69531e-13
1.22125e-14
1.31006e-14
1.37113e-14
1.9873e-14
8.99281e-15
1.2379e-14
1.43774e-14
1.51545e-14
8.9373e-15
1.17129e-14
1.45994e-14
1.55431e-14
1.04361e-14
1.2379e-14
1.05471e-14
1.61537e-14
7.38298e-15
7.99361e-15
9.15934e-15
1.62093e-14
5.32907e-15
3.77476e-15
5.10703e-15
1.57097e-14
5.44009e-15
2.16493e-15
4.32987e-15
1.0103e-14
1.77636e-15
1.72085e-15
4.10783e-15
9.49241e-15
4.88498e-15
4.32987e-15
7.27196e-15
9.88098e-15
1.09912e-14
6.43929e-15
7.04992e-15
1.34892e-14
1.17684e-14
7.54952e-15
1.2268e-14
0.51248
0.365381
0.316942
0.351393
0.367588
0.424204
0.432306
0.422609
0.443004
0.452853
0.47993
0.477835
0.417239
0.380448
0.375975
0.367456
0.404371
0.489104
0.612433
0.452098
0.404257
0.419833
0.448766
0.428276
0.43557
0.438873
0.436489
0.441383
0.422547
0.397427
0.384297
0.364439
0.360464
0.37773
0.371607
0.465982
0.546542
0.614906
0.43098
0.40426
0.423405
0.416504
0.387172
0.421295
0.432245
0.437079
0.407044
0.36831
0.355746
0.35007
0.368912
0.430216
0.512111
0.542805
0.556311
0.566556
0.595053
0.333136
0.318145
0.361459
0.377724
0.361335
0.435723
0.429316
0.405112
0.370671
0.350966
0.34276
0.338441
0.347318
0.396034
0.470349
0.48328
0.47858
0.495888
0.543057
0.380279
0.415525
0.427883
0.429229
0.419092
0.397459
0.345227
0.321404
0.323116
0.349316
0.349756
0.343919
0.366769
0.40103
0.443624
0.375763
0.300082
0.33982
0.484797
0.379905
0.371711
0.349323
0.29772
0.258806
0.250384
0.232175
0.222513
0.229592
0.312618
0.357825
0.344188
0.311486
0.238262
0.23569
0.136277
0.0910554
0.147927
0.279744
0.301802
0.249764
0.208662
0.153037
0.120161
0.108343
0.101366
0.0940629
0.107517
0.189151
0.246393
0.2234
0.211534
0.0860415
0.0744552
0.0353566
0.029302
0.0617835
0.0713532
0.202327
0.177828
0.12559
0.0741678
0.0502266
0.0387841
0.0314033
0.0279801
0.0301029
0.040317
0.0682939
0.0811889
0.114421
0.032762
0.0157776
0.00930465
0.00890934
0.0163005
0.00992883
0.0953327
0.080167
0.0574644
0.0352946
0.0228783
0.0162837
0.0128217
0.0113901
0.0120807
0.0149366
0.0242803
0.0284972
0.0274318
0.0128692
0.00582251
0.00340619
0.00274845
0.00298219
0.00209823
0.0329539
0.0363015
0.0230676
0.0140712
0.00817705
0.00538253
0.0046783
0.00489841
0.00548474
0.00606758
0.00843424
0.00855386
0.00634777
0.00371925
0.00226383
0.00152122
0.00107928
0.000825829
0.000739693
0.00937956
0.0094069
0.00571179
0.00473092
0.0024046
0.00179216
0.00158262
0.00177115
0.00225852
0.00223897
0.00372266
0.00380005
0.00293853
0.00183062
0.00122028
0.000853839
0.000620715
0.000487442
0.00051661
0.00341147
0.00259337
0.00150407
0.00126469
0.00083469
0.000552111
0.000559435
0.000594198
0.000915496
0.00193817
0.00244305
0.00239933
0.00196004
0.00121883
0.000834764
0.000596236
0.000478348
0.000285746
0.00044369
0.000771733
0.000504125
0.000381195
0.000330449
0.00026237
0.00017578
0.000180306
0.000212234
0.000368506
0.00108411
0.00168807
0.00147972
0.00107305
0.000711147
0.000464969
0.000333241
0.00032161
0.000130768
0.000398652
9.34037e-05
7.00878e-05
6.80337e-05
0.000118269
8.80239e-05
6.46893e-05
6.40436e-05
8.45045e-05
0.00019782
0.000444539
0.000848736
0.000809171
0.000539032
0.000411821
0.000233055
0.000167717
0.000132276
6.48951e-05
0.000365191
4.26006e-06
6.07271e-06
1.30341e-05
2.96948e-05
2.00879e-05
2.24714e-05
2.85157e-05
3.39439e-05
6.38134e-05
6.43988e-05
0.000263869
0.000262836
0.000107085
0.000117895
0.000104642
9.44179e-05
5.53781e-05
3.47672e-05
0.00034
5.22377e-07
4.88061e-07
3.3131e-06
4.49268e-06
1.60143e-06
3.6928e-06
7.56885e-06
4.06812e-06
1.85269e-05
2.88269e-05
1.0067e-05
6.0274e-06
3.9655e-06
7.87955e-06
1.71354e-05
4.73613e-05
2.23493e-05
2.4817e-05
0.00032384
2.83954e-07
1.42959e-07
6.07092e-07
6.57826e-07
2.52056e-07
2.58027e-07
1.08442e-06
2.25946e-07
1.47831e-06
1.94614e-05
3.71108e-06
1.1032e-06
3.8962e-07
8.27165e-07
3.31804e-06
2.47725e-05
9.79701e-06
1.90892e-05
0.000311908
2.44173e-07
4.03263e-08
4.59459e-08
5.61144e-08
4.3432e-08
2.62671e-08
9.19627e-08
3.92293e-08
1.89181e-07
5.0312e-06
1.01285e-06
2.8139e-07
8.83003e-08
8.35611e-08
1.71356e-06
9.69209e-06
4.90083e-06
1.71921e-05
0.000302623
2.32543e-07
2.30353e-08
7.88056e-09
2.21785e-09
6.4117e-09
1.50004e-09
6.42819e-09
3.66207e-09
5.80519e-08
1.80868e-06
2.29714e-07
4.83552e-08
1.8798e-08
1.94599e-08
1.47111e-06
3.64274e-06
2.6961e-06
1.74388e-05
0.000288635
1.4017e-07
1.63189e-08
6.0277e-09
5.74221e-10
9.2192e-10
2.50521e-10
1.30741e-09
3.68681e-10
2.62738e-08
3.80057e-07
3.98391e-08
6.02476e-09
5.30576e-09
1.17663e-08
1.61196e-06
1.53512e-06
1.99299e-06
1.83597e-05
0.000271995
7.93404e-08
6.13541e-09
4.14097e-09
1.81834e-10
1.25439e-10
2.33308e-11
2.27259e-10
1.89266e-11
1.09829e-08
3.84222e-08
1.4917e-09
9.50763e-10
3.85765e-09
1.23928e-08
1.60119e-06
5.3443e-07
1.81702e-06
1.87838e-05
0.000253698
2.55886e-08
1.66057e-09
2.85464e-09
4.63923e-11
1.52359e-11
8.01154e-12
3.85466e-11
0
1.17802e-09
1.24428e-09
2.62307e-10
7.35855e-10
3.76902e-09
1.20814e-08
4.90335e-08
1.68336e-07
1.84301e-06
1.88196e-05
0.000231622
8.40484e-09
3.66876e-10
5.19878e-10
1.00728e-11
2.72543e-12
1.02024e-12
4.12892e-13
1.4384e-12
3.55237e-10
8.74039e-11
1.58839e-10
8.00088e-10
4.24465e-09
1.15765e-08
3.45322e-08
1.64338e-07
2.26073e-06
1.91174e-05
0.000215072
1.57695e-09
7.95544e-11
9.12836e-11
1.71629e-12
4.21774e-13
1.18738e-13
1.40332e-13
1.33776e-12
1.13881e-10
5.19956e-11
2.07052e-10
1.5925e-09
4.33534e-09
9.70692e-09
2.78237e-08
1.6573e-07
2.29871e-06
1.44814e-05
0.000196989
1.71878e-10
1.56615e-11
9.89731e-12
2.5796e-13
6.32272e-14
3.51386e-14
1.57707e-13
3.52668e-12
3.43166e-11
6.53778e-11
2.90681e-10
2.61383e-09
4.27594e-09
6.52574e-09
1.91079e-08
1.62593e-07
2.19521e-06
9.43998e-06
0.000177832
5.94869e-12
3.70332e-12
7.96307e-13
2.20934e-14
1.5099e-14
3.68039e-14
3.44058e-13
6.44484e-12
3.29392e-11
8.75375e-11
3.02441e-10
3.10084e-09
2.48642e-09
4.00535e-09
9.88427e-09
1.55182e-07
1.95339e-06
5.67163e-06
0.000161087
4.32598e-13
5.4734e-13
1.76581e-13
9.65894e-15
1.50435e-14
6.73905e-14
4.36984e-13
3.48727e-12
3.33943e-11
8.76027e-11
2.74999e-10
3.2273e-09
1.6918e-09
3.15487e-09
5.91613e-09
1.13126e-07
1.13338e-06
3.03232e-06
0.000144955
4.77951e-14
2.2371e-14
2.27041e-14
5.93969e-15
1.69864e-14
7.46625e-14
3.43781e-13
5.40323e-12
5.0464e-11
8.0961e-11
1.49275e-10
2.45689e-09
1.44109e-09
2.92868e-09
5.42006e-09
1.47273e-07
9.26533e-07
1.49265e-06
0.000128042
1.84297e-14
9.38138e-15
8.88178e-15
5.38458e-15
1.28231e-14
4.61298e-14
2.639e-13
3.76799e-12
2.53943e-11
3.50363e-11
8.19637e-11
2.01607e-09
1.42641e-09
3.37384e-09
6.57458e-09
1.23647e-07
3.74695e-07
7.03874e-07
0.000115687
8.60423e-15
8.54872e-15
7.60503e-15
5.93969e-15
1.28231e-14
4.19664e-14
2.14329e-13
2.94142e-12
6.16718e-12
4.76952e-12
2.64143e-11
3.80282e-10
1.64933e-09
4.56331e-09
9.74181e-09
1.56076e-07
2.00107e-07
3.48079e-07
0.000104415
6.21725e-15
8.38218e-15
5.05151e-15
6.82787e-15
1.02141e-14
2.9643e-14
5.06817e-14
5.53446e-13
1.17195e-12
1.15818e-12
1.27047e-11
4.97747e-11
2.30479e-09
7.02232e-09
1.32446e-08
4.26674e-08
9.15788e-08
2.22717e-07
9.469e-05
4.66294e-15
6.66134e-15
3.71925e-15
5.88418e-15
9.32587e-15
2.30371e-14
2.88658e-14
1.25122e-13
2.28484e-13
7.52565e-13
3.4755e-12
2.79056e-11
3.87515e-09
1.06755e-08
1.52906e-08
2.20517e-08
7.49355e-08
1.97666e-07
8.64541e-05
3.71925e-15
6.82787e-15
6.77236e-15
4.27436e-15
9.49241e-15
1.2268e-14
1.38223e-14
4.37428e-14
4.4631e-14
7.17038e-13
2.83884e-12
3.70092e-11
5.05179e-09
1.37152e-08
1.72438e-08
2.10281e-08
8.71582e-08
1.98067e-07
7.82564e-05
5.32907e-15
6.88338e-15
8.65974e-15
4.38538e-15
1.01585e-14
1.0103e-14
1.27121e-14
8.32667e-15
5.9952e-15
5.23914e-13
2.64971e-12
8.44848e-11
7.90612e-09
1.64208e-08
1.93273e-08
2.24792e-08
1.23319e-07
2.40884e-07
0.000124668
5.16254e-15
8.21565e-15
8.99281e-15
4.21885e-15
1.19904e-14
1.04361e-14
1.21014e-14
3.16414e-15
2.88658e-15
8.17069e-13
3.67084e-12
1.2556e-10
9.6434e-09
1.78031e-08
2.06712e-08
2.49981e-08
1.43955e-07
2.38386e-07
6.58029e-05
3.55271e-15
1.17684e-14
8.88178e-15
4.996e-15
1.40443e-14
1.16018e-14
1.43219e-14
2.9976e-15
2.10942e-15
9.52627e-13
5.16176e-12
2.07505e-10
1.19884e-08
1.88718e-08
2.14716e-08
2.58495e-08
1.34214e-07
2.29108e-07
5.97976e-05
0
1.47105e-14
9.21485e-15
6.77236e-15
1.4988e-14
1.71529e-14
1.75415e-14
2.9976e-15
4.10783e-15
1.07431e-12
7.18225e-12
2.80499e-10
1.2989e-08
1.91972e-08
2.16304e-08
2.3879e-08
9.92542e-08
2.36168e-07
4.99059e-05
3.77476e-15
1.40443e-14
6.82787e-15
5.05151e-15
1.63758e-14
1.69864e-14
1.83742e-14
2.22045e-15
5.32907e-15
1.29152e-12
1.26529e-11
4.31555e-10
1.46001e-08
1.95546e-08
2.13399e-08
2.31237e-08
8.53425e-08
3.37253e-07
4.96412e-05
9.99201e-15
1.33227e-14
2.88658e-15
6.55032e-15
1.7375e-14
1.77636e-14
1.84852e-14
0
5.77316e-15
1.54432e-12
2.52363e-11
7.30237e-10
1.74316e-08
2.08907e-08
2.12483e-08
2.26618e-08
7.59394e-08
5.94771e-07
2.09919e-05
1.249e-14
1.32672e-14
8.32667e-16
6.27276e-15
1.89848e-14
1.7486e-14
1.82077e-14
0
5.93969e-15
1.71302e-12
4.5316e-11
9.84203e-10
1.83774e-08
2.12219e-08
2.15527e-08
2.26583e-08
8.07681e-08
1.23566e-06
9.31796e-06
1.68199e-14
1.07137e-14
0
8.65974e-15
1.84852e-14
2.05391e-14
2.02616e-14
0
1.94289e-15
1.86406e-12
7.88981e-11
1.57391e-09
1.96743e-08
2.15142e-08
2.16705e-08
2.26402e-08
7.7552e-08
1.90346e-06
3.97559e-05
1.76525e-14
1.06581e-14
0
1.11022e-14
1.84852e-14
2.15938e-14
2.19824e-14
0
1.9984e-15
2.06551e-12
4.17882e-12
6.22878e-10
1.98358e-08
2.15524e-08
2.16839e-08
2.25684e-08
8.73681e-08
2.30535e-07
5.8667e-05
)
;

boundaryField
{
    leftWall
    {
        type            zeroGradient;
    }
    rightWall
    {
        type            zeroGradient;
    }
    lowerWall
    {
        type            zeroGradient;
    }
    atmosphere
    {
        type            inletOutlet;
        inletValue      uniform 0;
        value           nonuniform List<scalar> 
46
(
0.0134593
0.00812422
0.00504609
0.00635948
0.00746615
0.00590133
0.00296813
0.000408874
7.61513e-06
5.97108e-06
1.85641e-06
1.73292e-07
3.64798e-08
9.8472e-09
2.35812e-10
1.95843e-13
3.57492e-14
1.58207e-14
2.05391e-14
1.80411e-14
1.81521e-14
2.45914e-14
6.05072e-15
1.34892e-14
1.17684e-14
7.54952e-15
1.2268e-14
1.76525e-14
1.06581e-14
0
1.11022e-14
1.84852e-14
2.15938e-14
2.19824e-14
0
1.9984e-15
2.06551e-12
4.17882e-12
6.22878e-10
1.98358e-08
2.15524e-08
2.16839e-08
2.25684e-08
8.73681e-08
2.30535e-07
5.8667e-05
)
;
    }
    defaultFaces
    {
        type            empty;
    }
}


// ************************************************************************* //
