/*--------------------------------*- C++ -*----------------------------------*\
| =========                 |                                                 |
| \\      /  F ield         | foam-extend: Open Source CFD                    |
|  \\    /   O peration     | Version:     4.1                                |
|   \\  /    A nd           | Web:         http://www.foam-extend.org         |
|    \\/     M anipulation  |                                                 |
\*---------------------------------------------------------------------------*/
FoamFile
{
    version     2.0;
    format      ascii;
    class       volScalarField;
    location    "1";
    object      C;
}
// * * * * * * * * * * * * * * * * * * * * * * * * * * * * * * * * * * * * * //

dimensions      [0 0 0 0 0 0 0];

internalField   nonuniform List<scalar> 
2268
(
0.312002
0.444247
0.524411
0.568511
0.598737
0.530236
0.44463
0.580805
0.805579
0.980524
0.997926
0.998234
0.996524
0.984505
0.99951
0.999681
0.999895
0.999911
0.999013
0.995821
0.995007
0.896803
0.34343
0.304426
0.454626
0.593826
0.638869
0.641037
0.664805
0.678724
0.85797
0.919932
0.951419
0.987463
0.975952
0.974536
0.855676
0.992194
0.997993
0.999567
0.999923
0.999655
0.999018
0.999382
0.985055
0.888162
0.330676
0.478124
0.587632
0.623121
0.639565
0.674416
0.695611
0.710304
0.693567
0.910263
0.95135
0.855535
0.851561
0.517894
0.911362
0.990349
0.996687
0.999613
0.999876
0.999851
0.999523
0.99559
0.97386
0.311827
0.41267
0.480929
0.611649
0.668442
0.685169
0.760668
0.857307
0.895785
0.917283
0.8506
0.582565
0.519603
0.353704
0.654835
0.96138
0.977089
0.99758
0.999651
0.999662
0.999414
0.994969
0.984442
0.28525
0.357829
0.503909
0.539553
0.444511
0.355476
0.57805
0.757256
0.799072
0.808803
0.650416
0.42894
0.420063
0.314262
0.654774
0.927265
0.886333
0.980688
0.997448
0.998095
0.997727
0.988358
0.983318
0.246746
0.335916
0.458236
0.337381
0.129286
0.0917424
0.17752
0.373614
0.531755
0.629562
0.52388
0.299023
0.375972
0.249443
0.702817
0.860137
0.639411
0.901076
0.972678
0.98749
0.988148
0.97152
0.973629
0.193188
0.290752
0.397176
0.164252
0.010104
0.000640895
0.0489161
0.0682351
0.221552
0.240156
0.276573
0.19221
0.292053
0.159951
0.640034
0.670703
0.34985
0.70265
0.884455
0.935393
0.945706
0.931753
0.910841
0.13306
0.240169
0.318005
0.0596593
-0.0395203
-0.0400712
-0.00963704
-0.0500544
0.0514006
0.0980432
0.16208
0.16181
0.210964
0.118128
0.351372
0.292043
0.150188
0.340168
0.696225
0.727326
0.665433
0.76788
0.720679
0.220039
0.273363
0.278499
0.275474
0.267335
0.261967
0.249099
0.23794
0.2798
0.250757
0.228627
0.194603
0.166887
0.210344
0.23559
0.249142
0.242506
0.299937
0.281101
0.20059
0.235941
0.205685
0.114205
0.0511405
-0.0200057
-0.0523709
0.0673206
0.138618
0.101321
0.0363281
0.0152561
-0.114798
-0.125802
0.006198
0.135207
0.106577
0.260486
0.250179
0.176935
0.201565
0.159227
-0.0289699
-0.117368
-0.258891
-0.279891
-0.200321
-0.133863
-0.106946
-0.225616
-0.210348
-0.219271
-0.244369
-0.153789
0.0244515
-0.0354358
0.210931
0.228751
0.159814
0.137697
-0.019734
-0.181352
-0.229857
-0.350414
-0.359808
-0.355797
-0.322682
-0.314589
-0.315388
-0.209866
-0.236804
-0.209437
-0.191505
-0.125509
-0.0985165
0.0986424
0.204032
0.144856
0.0842081
-0.0598575
-0.210346
-0.305775
-0.362678
-0.362407
-0.357653
-0.304886
-0.346699
-0.352014
-0.162277
-0.142213
-0.145422
-0.172527
-0.164168
-0.134136
-0.0110057
0.184408
0.137728
0.0538451
-0.107543
-0.285623
-0.351461
-0.377488
-0.327016
-0.329171
-0.170604
-0.13711
-0.288732
-0.156399
-0.120696
-0.131545
-0.148849
-0.168993
-0.157004
-0.0497019
0.184027
0.126206
0.00807552
-0.193269
-0.349019
-0.366689
-0.302516
-0.223519
-0.274906
-0.129895
-0.0712073
-0.172595
-0.0877645
-0.106315
-0.145879
-0.143445
-0.163863
-0.158778
-0.073664
0.162199
0.10737
-0.106368
-0.328556
-0.39839
-0.335581
-0.19015
-0.159505
-0.189814
-0.119785
-0.0623646
-0.102685
-0.0618836
-0.10122
-0.188213
-0.178791
-0.202175
-0.183379
-0.130665
0.148588
0.0753765
0.162908
0.256055
0.0432458
-0.037361
-0.0214679
-0.0596336
-0.058012
-0.0144696
0.1047
0.13653
0.137968
0.132894
0.0942134
0.117325
0.0954603
0.0901454
0.174881
0.304625
0.261546
0.2406
0.3011
0.0825792
0.00461332
0.0512467
0.13369
-0.0551895
-0.241728
-0.246607
-0.122651
-0.0479312
-0.0602878
0.101305
0.113802
0.0752561
0.0672751
0.0727816
0.0814441
0.0790881
0.100341
0.11558
0.124447
0.115514
0.103963
0.0836566
0.0472791
-0.0566704
-0.128906
-0.0983488
-0.220817
-0.341647
-0.300448
-0.317487
-0.122474
-0.000384686
0.0623757
0.0645247
0.0511464
0.0827403
0.121551
0.129803
0.122896
0.0797549
0.0397429
0.0286053
0.0249217
0.0325338
0.0252745
0.0207484
-0.0970385
-0.273893
-0.410704
-0.385009
-0.341384
-0.238639
-0.15041
-0.0110761
0.0605551
0.0669421
0.0130395
-0.00437571
0.0351255
0.0998001
0.135709
0.14107
0.133705
0.0839203
0.00907861
-0.0398621
-0.0522402
-0.05285
-0.0591921
-0.151849
-0.424823
-0.52933
-0.475295
-0.351524
-0.266639
-0.157452
-0.0338347
0.00166982
-0.0671994
-0.159675
-0.192684
-0.146094
-0.0747901
-0.0188929
0.0422673
0.06803
-0.00380409
-0.11004
-0.225913
-0.290285
-0.298895
-0.322829
-0.253265
-0.520937
-0.554427
-0.477463
-0.390956
-0.386393
-0.371738
-0.158051
-0.0545888
-0.167244
-0.306192
-0.35799
-0.343766
-0.285731
-0.247383
-0.214769
-0.25322
-0.33396
-0.364202
-0.366937
-0.360477
-0.324312
-0.294083
-0.377976
-0.546479
-0.557679
-0.499851
-0.456814
-0.438441
-0.338373
-0.22622
-0.223572
-0.416755
-0.446015
-0.439915
-0.426963
-0.408281
-0.393256
-0.368646
-0.410064
-0.421614
-0.423452
-0.402727
-0.377585
-0.355577
-0.341376
-0.477252
-0.567122
-0.578601
-0.555252
-0.556196
-0.485088
-0.408869
-0.37108
-0.430663
-0.557676
-0.568484
-0.550298
-0.541394
-0.531863
-0.517654
-0.496754
-0.488619
-0.48133
-0.474669
-0.465804
-0.461964
-0.469148
-0.485754
-0.550072
-0.587609
-0.615656
-0.631769
-0.606671
-0.524493
-0.488979
-0.514553
-0.596411
-0.650644
-0.661472
-0.63248
-0.6046
-0.582049
-0.555005
-0.541607
-0.540305
-0.544145
-0.55295
-0.559525
-0.568392
-0.599755
-0.663085
-0.629699
-0.643488
-0.666838
-0.725036
-0.660879
-0.59115
-0.57023
-0.567291
-0.602968
-0.66326
-0.688966
-0.678932
-0.631361
-0.600956
-0.591914
-0.593269
-0.611425
-0.658024
-0.729074
-0.767024
-0.78476
-0.805512
-0.854628
-0.73386
-0.734816
-0.737962
-0.800298
-0.725992
-0.677728
-0.691042
-0.636992
-0.651301
-0.652502
-0.694704
-0.693917
-0.658545
-0.643783
-0.640859
-0.641908
-0.655311
-0.705156
-0.780722
-0.829161
-0.895793
-0.931469
-0.950963
-0.86153
-0.83059
-0.834698
-0.843551
-0.783115
-0.764738
-0.840299
-0.76459
-0.774254
-0.713124
-0.700705
-0.715964
-0.695488
-0.681774
-0.677278
-0.683847
-0.709408
-0.815297
-0.911715
-0.952954
-0.972533
-0.982919
-0.98812
-0.941108
-0.921285
-0.915313
-0.878922
-0.830168
-0.830031
-0.918444
-0.883551
-0.813155
-0.737734
-0.723699
-0.738084
-0.723329
-0.709437
-0.708341
-0.722795
-0.78101
-0.900155
-0.962867
-0.985447
-0.993456
-0.995747
-0.997315
-0.970574
-0.962938
-0.95222
-0.914174
-0.873607
-0.891967
-0.949112
-0.915512
-0.816827
-0.767698
-0.759757
-0.754567
-0.730408
-0.723825
-0.723952
-0.739549
-0.820463
-0.956002
-0.989209
-0.995817
-0.99817
-0.998992
-0.999426
-0.979055
-0.973821
-0.96955
-0.946692
-0.917405
-0.933903
-0.959728
-0.917825
-0.826291
-0.786214
-0.766148
-0.751968
-0.743286
-0.748325
-0.792843
-0.891556
-0.960848
-0.991746
-0.997478
-0.998691
-0.99905
-0.999501
-0.999799
-0.97762
-0.972568
-0.973524
-0.965838
-0.948567
-0.954909
-0.958682
-0.918172
-0.830067
-0.794469
-0.774921
-0.759405
-0.758179
-0.784906
-0.871425
-0.967309
-0.992125
-0.997947
-0.998912
-0.999201
-0.999307
-0.999744
-0.999929
-0.968246
-0.963139
-0.972005
-0.970418
-0.960177
-0.958482
-0.950988
-0.885142
-0.821758
-0.79323
-0.777024
-0.769039
-0.784624
-0.848208
-0.9572
-0.995146
-0.998306
-0.999133
-0.99945
-0.999574
-0.999599
-0.999831
-0.999969
-0.960901
-0.949108
-0.965315
-0.968215
-0.959838
-0.952957
-0.916328
-0.844965
-0.807311
-0.79196
-0.783073
-0.798953
-0.864725
-0.93445
-0.994557
-0.999036
-0.999413
-0.999589
-0.999791
-0.999852
-0.99987
-0.999847
-0.999968
-0.942879
-0.93025
-0.945872
-0.956383
-0.95187
-0.927421
-0.859027
-0.817657
-0.806287
-0.797864
-0.810376
-0.874076
-0.956527
-0.990338
-0.999155
-0.999562
-0.999772
-0.999816
-0.999924
-0.99996
-0.999974
-0.999951
-0.999985
-0.939443
-0.911498
-0.914524
-0.927431
-0.926323
-0.882842
-0.837165
-0.820167
-0.813849
-0.829601
-0.882611
-0.960312
-0.989884
-0.998634
-0.999535
-0.999774
-0.999892
-0.999897
-0.99995
-0.999978
-0.999989
-0.999992
-0.999994
-0.933419
-0.901622
-0.892881
-0.888598
-0.878295
-0.850053
-0.838187
-0.83353
-0.848102
-0.900508
-0.948368
-0.990792
-0.997398
-0.999253
-0.999702
-0.999917
-0.999955
-0.999947
-0.999964
-0.999986
-0.999994
-0.999998
-0.999998
-0.932341
-0.89234
-0.879515
-0.87043
-0.860801
-0.852596
-0.850678
-0.865707
-0.90559
-0.957946
-0.975538
-0.995438
-0.998038
-0.999596
-0.999824
-0.999963
-0.999982
-0.999982
-0.999981
-0.999992
-0.999997
-0.999999
-1
-0.931384
-0.890243
-0.876648
-0.869719
-0.86489
-0.867896
-0.897843
-0.909274
-0.956072
-0.980268
-0.987364
-0.998431
-0.999316
-0.999795
-0.999926
-0.999985
-0.999993
-0.999995
-0.999992
-0.999997
-0.999999
-1
-1
-0.934766
-0.890492
-0.87806
-0.873869
-0.879662
-0.904231
-0.947063
-0.964054
-0.981707
-0.989445
-0.992263
-0.998879
-0.999275
-0.999856
-0.999975
-0.999994
-0.999997
-0.999999
-0.999997
-0.999998
-0.999999
-1
-1
-0.934713
-0.892074
-0.883442
-0.885524
-0.910382
-0.951244
-0.97078
-0.986443
-0.99222
-0.994506
-0.996641
-0.998563
-0.999309
-0.999911
-0.999991
-0.999997
-0.999999
-1
-1
-1
-1
-1
-1
-0.936399
-0.896645
-0.892491
-0.902965
-0.936928
-0.975884
-0.986246
-0.994478
-0.99637
-0.996614
-0.997573
-0.998218
-0.999607
-0.999966
-0.999997
-0.999999
-1
-1
-1
-1
-1
-1
-1
-0.934182
-0.904051
-0.905421
-0.923547
-0.954354
-0.982721
-0.991593
-0.996479
-0.997263
-0.997467
-0.997846
-0.999828
-0.999946
-0.999991
-0.999998
-1
-1
-1
-1
-1
-1
-1
-1
-0.936424
-0.913387
-0.921077
-0.942992
-0.96931
-0.988544
-0.993839
-0.995945
-0.996541
-0.997542
-0.99835
-0.99995
-0.999987
-0.999996
-0.999999
-1
-1
-1
-1
-1
-1
-1
-1
-0.939538
-0.924097
-0.936553
-0.955779
-0.975751
-0.989256
-0.994085
-0.995981
-0.997052
-0.99875
-0.999934
-0.999971
-0.999991
-0.999997
-0.999999
-1
-1
-1
-1
-1
-1
-1
-1
-0.943309
-0.933336
-0.948812
-0.963083
-0.977391
-0.989426
-0.994576
-0.996769
-0.998246
-0.999688
-0.99995
-0.99998
-0.999993
-0.999998
-1
-1
-1
-1
-1
-1
-1
-1
-1
-0.947107
-0.941422
-0.957738
-0.967821
-0.978717
-0.990176
-0.99623
-0.999014
-0.999605
-0.999944
-0.999976
-0.999988
-0.999995
-0.999999
-1
-1
-1
-1
-1
-1
-1
-1
-1
-0.950548
-0.948211
-0.963967
-0.970797
-0.980279
-0.992147
-0.998454
-0.999668
-0.999851
-0.999951
-0.999979
-0.999989
-0.999996
-0.999999
-1
-1
-1
-1
-1
-1
-1
-1
-1
-0.953695
-0.954386
-0.968749
-0.973363
-0.983017
-0.995075
-0.999288
-0.999737
-0.999841
-0.999908
-0.999952
-0.999976
-0.999995
-0.999999
-1
-1
-1
-1
-1
-1
-1
-1
-1
-0.956646
-0.960721
-0.972922
-0.976495
-0.987958
-0.997646
-0.99946
-0.999667
-0.999691
-0.999834
-0.999906
-0.999966
-0.999993
-0.999999
-1
-1
-1
-1
-1
-1
-1
-1
-1
-0.959136
-0.966856
-0.976646
-0.98012
-0.991751
-0.998407
-0.999306
-0.999286
-0.998696
-0.999633
-0.999872
-0.999965
-0.999993
-0.999999
-1
-1
-1
-1
-1
-1
-1
-1
-1
-0.961555
-0.972728
-0.979684
-0.982999
-0.993862
-0.99842
-0.998967
-0.99863
-0.998027
-0.999434
-0.999799
-0.999955
-0.999994
-0.999999
-1
-1
-1
-1
-1
-1
-1
-1
-1
-0.963859
-0.976881
-0.981715
-0.984589
-0.993821
-0.998134
-0.998492
-0.997618
-0.996003
-0.999033
-0.999669
-0.999951
-0.999995
-1
-1
-1
-1
-1
-1
-1
-1
-1
-1
-0.966269
-0.980246
-0.983243
-0.984741
-0.992091
-0.997379
-0.997443
-0.997197
-0.995077
-0.998511
-0.999564
-0.999936
-0.999994
-1
-1
-1
-1
-1
-1
-1
-1
-1
-1
-0.968716
-0.982637
-0.984815
-0.984336
-0.988462
-0.9956
-0.994928
-0.996175
-0.992816
-0.998221
-0.999754
-0.999971
-0.999998
-1
-1
-1
-1
-1
-1
-1
-1
-1
-1
-0.971004
-0.984801
-0.986924
-0.984348
-0.985218
-0.991769
-0.9909
-0.993164
-0.994852
-0.999541
-0.999974
-0.999993
-0.999999
-1
-1
-1
-1
-1
-1
-1
-1
-1
-1
-0.97187
-0.984946
-0.988836
-0.984824
-0.984036
-0.986361
-0.989558
-0.993357
-0.999331
-0.999911
-0.999994
-0.999998
-1
-1
-1
-1
-1
-1
-1
-1
-1
-1
-1
-0.973081
-0.983752
-0.989908
-0.987281
-0.985068
-0.988197
-0.994064
-0.999182
-0.999985
-0.999988
-0.999996
-1
-1
-1
-1
-1
-1
-1
-1
-1
-1
-1
-1
0.0520252
0.0539849
0.0445847
0.0359877
0.038528
0.0260165
-0.0010345
-0.0289647
-0.00154623
-0.0287172
-0.0600162
-0.0876662
-0.0969067
-0.129987
-0.193222
-0.255187
-0.29608
-0.297205
-0.294313
-0.288233
-0.274189
-0.261065
-0.252486
-0.247755
-0.33775
-0.338851
-0.346671
-0.366829
-0.503337
-0.519507
-0.536146
-0.558769
-0.709712
-0.740275
-0.765506
-0.784712
-0.889299
-0.907769
-0.922073
-0.930392
-0.964215
-0.9707
-0.977812
-0.981478
-0.989974
-0.991565
-0.993397
-0.994335
-0.998023
-0.99855
-0.998467
-0.998616
-0.999643
-0.999749
-0.999765
-0.999803
-0.99995
-0.999966
-0.999978
-0.999989
-0.999984
-0.99999
-0.999995
-0.999998
-0.999992
-0.999996
-0.999998
-0.999999
-0.999984
-0.99999
-0.999993
-0.999999
-0.999993
-0.999995
-0.999982
-0.999999
-0.999998
-0.999999
-0.999999
-0.999999
-0.999999
-0.999999
-0.999999
-1
-1
-1
-1
-1
-1
-1
-1
-1
-1
-1
-1
-1
-1
-1
-1
-1
-1
-1
-1
-1
-1
-1
-1
-1
-1
-1
-1
-1
-1
-1
-1
-1
-1
-1
-1
-1
-1
-1
-1
-1
-1
-1
-1
-1
-1
-1
-1
-1
-1
-1
-1
-1
-1
-1
-1
-1
-1
-1
-1
-1
-1
-1
-1
-1
-1
-1
-1
-1
-1
-1
-1
-1
-1
-1
-1
-1
-1
-1
-1
-1
-1
-1
-1
-1
0.0249592
-0.269238
-0.366117
-0.297215
-0.264824
-0.151591
-0.135387
-0.154782
-0.113991
-0.094294
-0.0401395
-0.0443306
-0.165522
-0.239104
-0.24805
-0.265089
-0.191258
-0.0217915
0.224866
-0.0958038
-0.191486
-0.160334
-0.102467
-0.143448
-0.128859
-0.122254
-0.127022
-0.117235
-0.154907
-0.205146
-0.231406
-0.271122
-0.279072
-0.244541
-0.256787
-0.068036
0.0930832
0.229811
-0.138041
-0.191479
-0.15319
-0.166992
-0.225656
-0.157411
-0.135511
-0.125842
-0.185913
-0.26338
-0.288509
-0.299861
-0.262176
-0.139568
0.0242215
0.0856104
0.112621
0.133113
0.190107
-0.333728
-0.363711
-0.277081
-0.244553
-0.27733
-0.128554
-0.141369
-0.189776
-0.258658
-0.298067
-0.31448
-0.323119
-0.305364
-0.207931
-0.0593019
-0.0334407
-0.0428405
-0.00822481
0.0861145
-0.239442
-0.168951
-0.144234
-0.141542
-0.161816
-0.205083
-0.309545
-0.357193
-0.353767
-0.301369
-0.300489
-0.312163
-0.266461
-0.19794
-0.112752
-0.248475
-0.399837
-0.320361
-0.0304069
-0.240189
-0.256578
-0.301354
-0.404561
-0.482388
-0.499232
-0.535649
-0.554973
-0.540815
-0.374763
-0.28435
-0.311624
-0.377027
-0.523476
-0.528619
-0.727447
-0.817889
-0.704145
-0.440511
-0.396396
-0.500472
-0.582676
-0.693927
-0.759679
-0.783315
-0.797269
-0.811874
-0.784965
-0.621698
-0.507213
-0.553199
-0.576931
-0.827917
-0.85109
-0.929287
-0.941396
-0.876433
-0.857294
-0.595345
-0.644344
-0.74882
-0.851664
-0.899547
-0.922432
-0.937193
-0.94404
-0.939794
-0.919366
-0.863412
-0.837622
-0.771158
-0.934476
-0.968445
-0.981391
-0.982181
-0.967399
-0.980142
-0.809335
-0.839666
-0.885071
-0.929411
-0.954243
-0.967433
-0.974357
-0.97722
-0.975839
-0.970127
-0.951439
-0.943006
-0.945136
-0.974262
-0.988355
-0.993188
-0.994503
-0.994036
-0.995804
-0.934092
-0.927397
-0.953865
-0.971858
-0.983646
-0.989235
-0.990643
-0.990203
-0.989031
-0.987865
-0.983132
-0.982892
-0.987304
-0.992561
-0.995472
-0.996958
-0.997841
-0.998348
-0.998521
-0.981241
-0.981186
-0.988576
-0.990538
-0.995191
-0.996416
-0.996835
-0.996458
-0.995483
-0.995522
-0.992555
-0.9924
-0.994123
-0.996339
-0.997559
-0.998292
-0.998759
-0.999025
-0.998967
-0.993177
-0.994813
-0.996992
-0.997471
-0.998331
-0.998896
-0.998881
-0.998812
-0.998169
-0.996124
-0.995114
-0.995201
-0.99608
-0.997562
-0.99833
-0.998808
-0.999043
-0.999429
-0.999113
-0.998457
-0.998992
-0.999238
-0.999339
-0.999475
-0.999648
-0.999639
-0.999576
-0.999263
-0.997832
-0.996624
-0.997041
-0.997854
-0.998578
-0.99907
-0.999334
-0.999357
-0.999738
-0.999203
-0.999813
-0.99986
-0.999864
-0.999763
-0.999824
-0.999871
-0.999872
-0.999831
-0.999604
-0.999111
-0.998303
-0.998382
-0.998922
-0.999176
-0.999534
-0.999665
-0.999735
-0.99987
-0.99927
-0.999991
-0.999988
-0.999974
-0.999941
-0.99996
-0.999955
-0.999943
-0.999932
-0.999872
-0.999871
-0.999472
-0.999474
-0.999786
-0.999764
-0.999791
-0.999811
-0.999889
-0.99993
-0.99932
-0.999999
-0.999999
-0.999993
-0.999991
-0.999997
-0.999993
-0.999985
-0.999992
-0.999963
-0.999942
-0.99998
-0.999988
-0.999992
-0.999984
-0.999966
-0.999905
-0.999955
-0.99995
-0.999352
-0.999999
-1
-0.999999
-0.999999
-0.999999
-0.999999
-0.999998
-1
-0.999997
-0.999961
-0.999993
-0.999998
-0.999999
-0.999998
-0.999993
-0.99995
-0.99998
-0.999962
-0.999376
-1
-1
-1
-1
-1
-1
-1
-1
-1
-0.99999
-0.999998
-0.999999
-1
-1
-0.999997
-0.999981
-0.99999
-0.999966
-0.999395
-1
-1
-1
-1
-1
-1
-1
-1
-1
-0.999996
-1
-1
-1
-1
-0.999997
-0.999993
-0.999995
-0.999965
-0.999423
-1
-1
-1
-1
-1
-1
-1
-1
-1
-0.999999
-1
-1
-1
-1
-0.999997
-0.999997
-0.999996
-0.999963
-0.999456
-1
-1
-1
-1
-1
-1
-1
-1
-1
-1
-1
-1
-1
-1
-0.999997
-0.999999
-0.999996
-0.999962
-0.999493
-1
-1
-1
-1
-1
-1
-1
-1
-1
-1
-1
-1
-1
-1
-1
-1
-0.999996
-0.999962
-0.999537
-1
-1
-1
-1
-1
-1
-1
-1
-1
-1
-1
-1
-1
-1
-1
-1
-0.999995
-0.999962
-0.99957
-1
-1
-1
-1
-1
-1
-1
-1
-1
-1
-1
-1
-1
-1
-1
-1
-0.999995
-0.999971
-0.999606
-1
-1
-1
-1
-1
-1
-1
-1
-1
-1
-1
-1
-1
-1
-1
-1
-0.999996
-0.999981
-0.999644
-1
-1
-1
-1
-1
-1
-1
-1
-1
-1
-1
-1
-1
-1
-1
-1
-0.999996
-0.999989
-0.999678
-1
-1
-1
-1
-1
-1
-1
-1
-1
-1
-1
-1
-1
-1
-1
-1
-0.999998
-0.999994
-0.99971
-1
-1
-1
-1
-1
-1
-1
-1
-1
-1
-1
-1
-1
-1
-1
-1
-0.999998
-0.999997
-0.999744
-1
-1
-1
-1
-1
-1
-1
-1
-1
-1
-1
-1
-1
-1
-1
-1
-0.999999
-0.999999
-0.999769
-1
-1
-1
-1
-1
-1
-1
-1
-1
-1
-1
-1
-1
-1
-1
-1
-1
-0.999999
-0.999791
-1
-1
-1
-1
-1
-1
-1
-1
-1
-1
-1
-1
-1
-1
-1
-1
-1
-1
-0.999811
-1
-1
-1
-1
-1
-1
-1
-1
-1
-1
-1
-1
-1
-1
-1
-1
-1
-1
-0.999827
-1
-1
-1
-1
-1
-1
-1
-1
-1
-1
-1
-1
-1
-1
-1
-1
-1
-1
-0.999843
-1
-1
-1
-1
-1
-1
-1
-1
-1
-1
-1
-1
-1
-1
-1
-1
-1
-1
-0.999751
-1
-1
-1
-1
-1
-1
-1
-1
-1
-1
-1
-1
-1
-1
-1
-1
-1
-1
-0.999868
-1
-1
-1
-1
-1
-1
-1
-1
-1
-1
-1
-1
-1
-1
-1
-1
-1
-1
-0.99988
-1
-1
-1
-1
-1
-1
-1
-1
-1
-1
-1
-1
-1
-1
-1
-1
-1
-1
-0.9999
-1
-1
-1
-1
-1
-1
-1
-1
-1
-1
-1
-1
-1
-1
-1
-1
-1
-0.999999
-0.999901
-1
-1
-1
-1
-1
-1
-1
-1
-1
-1
-1
-1
-1
-1
-1
-1
-1
-0.999999
-0.999958
-1
-1
-1
-1
-1
-1
-1
-1
-1
-1
-1
-1
-1
-1
-1
-1
-1
-0.999998
-0.999981
-1
-1
-1
-1
-1
-1
-1
-1
-1
-1
-1
-1
-1
-1
-1
-1
-1
-0.999996
-0.99992
-1
-1
-1
-1
-1
-1
-1
-1
-1
-1
-1
-1
-1
-1
-1
-1
-1
-1
-0.999883
)
;

boundaryField
{
    leftWall
    {
        type            zeroGradient;
    }
    rightWall
    {
        type            zeroGradient;
    }
    lowerWall
    {
        type            zeroGradient;
    }
    atmosphere
    {
        type            zeroGradient;
    }
    defaultFaces
    {
        type            empty;
    }
}


// ************************************************************************* //
