/*--------------------------------*- C++ -*----------------------------------*\
| =========                 |                                                 |
| \\      /  F ield         | foam-extend: Open Source CFD                    |
|  \\    /   O peration     | Version:     4.1                                |
|   \\  /    A nd           | Web:         http://www.foam-extend.org         |
|    \\/     M anipulation  |                                                 |
\*---------------------------------------------------------------------------*/
FoamFile
{
    version     2.0;
    format      ascii;
    class       volScalarField;
    location    "1";
    object      C_0;
}
// * * * * * * * * * * * * * * * * * * * * * * * * * * * * * * * * * * * * * //

dimensions      [0 0 0 0 0 0 0];

internalField   nonuniform List<scalar> 
2268
(
0.311461
0.442822
0.52322
0.567736
0.598178
0.529913
0.444069
0.578678
0.803276
0.980313
0.997924
0.998239
0.996592
0.984795
0.999516
0.999683
0.999896
0.999911
0.999009
0.995818
0.995002
0.896628
0.34306
0.303836
0.452872
0.592636
0.638727
0.640598
0.664298
0.67831
0.857529
0.919751
0.951075
0.987542
0.976268
0.975054
0.858215
0.99235
0.998013
0.999571
0.999923
0.999656
0.999021
0.999382
0.985064
0.888591
0.329087
0.475998
0.586443
0.622395
0.638505
0.673606
0.694769
0.709416
0.691348
0.909569
0.95199
0.857801
0.853561
0.520878
0.913878
0.990514
0.996733
0.999618
0.999877
0.999852
0.999522
0.995588
0.973928
0.310486
0.410087
0.477126
0.60972
0.667752
0.685668
0.760161
0.856965
0.895783
0.917771
0.852348
0.58529
0.521195
0.354515
0.658905
0.962118
0.977368
0.997613
0.999652
0.999661
0.999413
0.994964
0.98445
0.283484
0.354089
0.503148
0.539844
0.447801
0.357133
0.579072
0.758903
0.801154
0.810969
0.652954
0.430996
0.420967
0.315753
0.657132
0.92759
0.887242
0.98097
0.997444
0.998089
0.997722
0.988344
0.983314
0.244062
0.331896
0.457332
0.341652
0.131304
0.0925469
0.17919
0.375781
0.536307
0.634722
0.52732
0.301271
0.377286
0.253001
0.704341
0.860106
0.640431
0.902336
0.972573
0.98743
0.98811
0.97147
0.9736
0.189126
0.286573
0.396625
0.168806
0.0109738
0.000644558
0.05038
0.0696669
0.225109
0.243848
0.279029
0.193202
0.293748
0.162474
0.6396
0.671464
0.349652
0.703325
0.883499
0.934816
0.945547
0.931691
0.910787
0.129235
0.236127
0.318536
0.0633185
-0.0394969
-0.0404047
-0.00861209
-0.0501574
0.0511266
0.096804
0.162594
0.162133
0.212081
0.118888
0.35102
0.293236
0.150531
0.341625
0.69438
0.724908
0.665501
0.768134
0.720286
0.218536
0.272987
0.278573
0.275828
0.267881
0.262649
0.249928
0.238848
0.280441
0.251657
0.229452
0.195513
0.16794
0.210457
0.235681
0.249325
0.242832
0.300121
0.281279
0.199142
0.23542
0.207249
0.116251
0.0529213
-0.0178841
-0.0499795
0.0693795
0.140146
0.103135
0.0380151
0.0167113
-0.113666
-0.125281
0.0065535
0.135348
0.107089
0.260633
0.250475
0.175787
0.2004
0.15979
-0.0269834
-0.115927
-0.257337
-0.278447
-0.198813
-0.132738
-0.106146
-0.225053
-0.21029
-0.218995
-0.244569
-0.153278
0.0241768
-0.0348316
0.211114
0.229191
0.15899
0.136494
-0.0179284
-0.179689
-0.229143
-0.349974
-0.359766
-0.355975
-0.322866
-0.314608
-0.315215
-0.210506
-0.238325
-0.209942
-0.191458
-0.125653
-0.0979003
0.0991803
0.204618
0.144435
0.0840266
-0.0574221
-0.208198
-0.304612
-0.362514
-0.362819
-0.358355
-0.306995
-0.348535
-0.352092
-0.161082
-0.142846
-0.145779
-0.172975
-0.164135
-0.133546
-0.0098855
0.185133
0.137561
0.0541506
-0.104942
-0.284029
-0.351181
-0.378329
-0.329028
-0.330143
-0.171982
-0.138941
-0.290604
-0.156544
-0.120984
-0.131703
-0.149121
-0.169018
-0.156842
-0.0486986
0.184777
0.126293
0.00905499
-0.190952
-0.348509
-0.366841
-0.305919
-0.225759
-0.277213
-0.130198
-0.0714541
-0.173526
-0.0883475
-0.106874
-0.145727
-0.143401
-0.164142
-0.158738
-0.0729313
0.162971
0.107737
-0.104418
-0.327635
-0.398924
-0.337599
-0.191648
-0.160316
-0.190785
-0.119916
-0.062234
-0.103055
-0.0618576
-0.101472
-0.187897
-0.179152
-0.202335
-0.183494
-0.130178
0.149299
0.0727642
0.158892
0.254698
0.0448485
-0.0372444
-0.0200462
-0.0590877
-0.0586672
-0.0168338
0.103593
0.136836
0.138846
0.133614
0.094297
0.117643
0.0956194
0.090105
0.174656
0.302109
0.259387
0.240549
0.300842
0.0817883
0.00232443
0.0465642
0.129805
-0.0560886
-0.241513
-0.246718
-0.122537
-0.0476702
-0.0621733
0.101287
0.115136
0.0761079
0.0671192
0.072328
0.081118
0.0786874
0.099989
0.115322
0.124217
0.115666
0.104025
0.0830099
0.0469955
-0.0584076
-0.135741
-0.105815
-0.22548
-0.341808
-0.300322
-0.318873
-0.123965
-0.0027277
0.0622968
0.0652637
0.0513369
0.0813477
0.121114
0.129842
0.123645
0.0814501
0.0405063
0.0287068
0.0248043
0.0321772
0.0249376
0.0205748
-0.0984625
-0.279925
-0.41677
-0.388077
-0.341974
-0.239812
-0.153123
-0.0139271
0.060553
0.0682732
0.0143746
-0.00365026
0.0338883
0.0988228
0.135774
0.14137
0.134801
0.0865342
0.0111441
-0.039471
-0.0528866
-0.0539947
-0.0603766
-0.15396
-0.429517
-0.531641
-0.476556
-0.352408
-0.268414
-0.160843
-0.0347596
0.0025224
-0.0637699
-0.157763
-0.190771
-0.14628
-0.0755707
-0.0193043
0.0427154
0.0692059
0.000447805
-0.105732
-0.224769
-0.291374
-0.301112
-0.324945
-0.257019
-0.522822
-0.555016
-0.478619
-0.392065
-0.387738
-0.375168
-0.159394
-0.0544807
-0.163385
-0.303726
-0.357146
-0.344064
-0.286299
-0.247018
-0.214647
-0.251441
-0.332052
-0.364305
-0.367821
-0.362398
-0.326221
-0.295227
-0.381486
-0.547565
-0.55815
-0.501295
-0.45861
-0.440723
-0.342015
-0.226589
-0.221693
-0.414789
-0.445194
-0.440063
-0.427666
-0.409006
-0.394255
-0.369125
-0.409991
-0.421907
-0.424227
-0.40445
-0.379124
-0.356681
-0.342081
-0.479584
-0.568031
-0.579797
-0.557117
-0.558704
-0.487414
-0.410586
-0.371602
-0.428961
-0.55714
-0.568602
-0.551211
-0.542521
-0.532898
-0.519033
-0.498104
-0.489666
-0.482072
-0.475362
-0.466451
-0.462554
-0.469074
-0.485148
-0.552353
-0.588967
-0.617831
-0.634445
-0.60989
-0.526971
-0.490286
-0.513468
-0.594263
-0.650475
-0.661927
-0.634179
-0.605977
-0.583339
-0.556396
-0.542275
-0.540616
-0.543967
-0.552768
-0.559516
-0.568079
-0.598266
-0.66055
-0.632215
-0.646086
-0.669861
-0.728614
-0.664578
-0.594282
-0.572121
-0.567693
-0.601425
-0.662093
-0.689187
-0.680109
-0.632748
-0.602034
-0.592691
-0.593446
-0.610259
-0.655091
-0.727013
-0.766454
-0.784827
-0.805228
-0.853504
-0.737151
-0.738804
-0.741543
-0.803379
-0.729782
-0.68149
-0.694635
-0.638566
-0.651663
-0.651672
-0.694761
-0.69502
-0.65989
-0.644943
-0.641745
-0.642232
-0.654593
-0.702472
-0.777729
-0.827074
-0.894998
-0.931242
-0.95067
-0.864441
-0.834382
-0.838033
-0.846324
-0.786264
-0.768089
-0.843468
-0.767575
-0.775545
-0.713364
-0.70076
-0.716582
-0.696573
-0.682494
-0.677841
-0.683655
-0.707899
-0.811815
-0.909693
-0.952125
-0.972224
-0.982788
-0.988044
-0.9424
-0.923432
-0.917333
-0.881575
-0.83293
-0.832876
-0.920109
-0.885578
-0.814635
-0.738234
-0.724185
-0.738639
-0.724405
-0.709945
-0.708596
-0.722089
-0.778568
-0.897382
-0.96188
-0.98515
-0.99336
-0.995694
-0.997302
-0.970936
-0.963714
-0.953328
-0.916724
-0.876477
-0.894222
-0.949932
-0.916696
-0.818001
-0.768347
-0.760464
-0.755452
-0.731013
-0.724056
-0.723932
-0.738703
-0.817291
-0.954138
-0.988883
-0.995722
-0.998151
-0.998983
-0.999423
-0.979124
-0.973912
-0.969983
-0.948561
-0.92001
-0.935512
-0.959927
-0.918593
-0.827137
-0.787035
-0.766841
-0.752424
-0.743533
-0.748017
-0.791211
-0.888828
-0.959276
-0.991397
-0.997421
-0.998672
-0.999042
-0.999495
-0.999797
-0.977601
-0.972488
-0.973578
-0.966672
-0.950045
-0.955538
-0.95865
-0.918245
-0.830516
-0.795049
-0.775538
-0.759831
-0.758189
-0.784139
-0.869413
-0.966295
-0.991843
-0.997889
-0.998894
-0.999192
-0.9993
-0.99974
-0.999928
-0.968182
-0.962758
-0.971939
-0.970489
-0.960528
-0.958562
-0.950512
-0.88439
-0.821971
-0.793573
-0.777379
-0.769357
-0.7844
-0.847086
-0.955983
-0.994973
-0.998261
-0.999115
-0.99944
-0.999567
-0.999593
-0.999828
-0.999968
-0.960879
-0.94865
-0.964745
-0.967981
-0.959742
-0.952409
-0.914714
-0.844222
-0.807423
-0.792273
-0.783335
-0.799173
-0.864205
-0.933283
-0.994404
-0.999015
-0.9994
-0.99958
-0.999786
-0.999849
-0.999867
-0.999845
-0.999968
-0.942882
-0.929619
-0.944418
-0.955044
-0.950852
-0.92545
-0.85755
-0.817719
-0.806564
-0.798299
-0.810866
-0.874421
-0.956316
-0.990035
-0.999141
-0.999554
-0.999767
-0.999813
-0.999923
-0.99996
-0.999973
-0.99995
-0.999985
-0.939696
-0.911033
-0.912787
-0.924918
-0.923837
-0.880578
-0.836946
-0.820583
-0.814423
-0.830572
-0.883552
-0.960516
-0.989814
-0.998619
-0.99953
-0.999771
-0.99989
-0.999896
-0.999949
-0.999978
-0.999989
-0.999992
-0.999994
-0.933767
-0.901532
-0.891979
-0.886748
-0.876366
-0.84973
-0.838568
-0.834544
-0.849338
-0.901906
-0.949022
-0.990794
-0.997386
-0.999247
-0.9997
-0.999916
-0.999954
-0.999946
-0.999963
-0.999985
-0.999994
-0.999998
-0.999998
-0.932721
-0.892543
-0.879321
-0.870165
-0.860856
-0.853007
-0.851769
-0.867375
-0.907151
-0.958658
-0.975771
-0.995413
-0.998024
-0.999592
-0.999822
-0.999962
-0.999982
-0.999982
-0.999981
-0.999992
-0.999997
-0.999999
-0.999999
-0.931857
-0.89065
-0.876902
-0.869999
-0.865286
-0.869133
-0.899903
-0.911209
-0.956972
-0.980563
-0.98743
-0.99842
-0.999315
-0.999794
-0.999925
-0.999985
-0.999993
-0.999995
-0.999992
-0.999996
-0.999999
-1
-1
-0.935236
-0.890953
-0.878426
-0.874472
-0.88072
-0.906054
-0.948348
-0.965003
-0.982051
-0.989576
-0.992303
-0.998879
-0.999274
-0.999855
-0.999974
-0.999993
-0.999997
-0.999999
-0.999997
-0.999998
-0.999999
-1
-1
-0.93528
-0.892689
-0.884096
-0.886466
-0.911869
-0.952161
-0.971418
-0.986768
-0.992359
-0.994575
-0.996642
-0.998561
-0.999306
-0.99991
-0.99999
-0.999997
-0.999999
-1
-1
-1
-1
-1
-1
-0.937133
-0.897435
-0.893409
-0.90419
-0.937824
-0.976228
-0.986526
-0.994569
-0.996413
-0.996659
-0.997577
-0.998198
-0.999602
-0.999965
-0.999997
-0.999999
-1
-1
-1
-1
-1
-1
-1
-0.934889
-0.904979
-0.906493
-0.924785
-0.954893
-0.982873
-0.991685
-0.996481
-0.997262
-0.997478
-0.997847
-0.999825
-0.999945
-0.999991
-0.999998
-1
-1
-1
-1
-1
-1
-1
-1
-0.937195
-0.914387
-0.92221
-0.943816
-0.969616
-0.988567
-0.993838
-0.995929
-0.996529
-0.997534
-0.998346
-0.999951
-0.999987
-0.999996
-0.999999
-1
-1
-1
-1
-1
-1
-1
-1
-0.940236
-0.92511
-0.937508
-0.956243
-0.975811
-0.989196
-0.994059
-0.995966
-0.997048
-0.998753
-0.999934
-0.999971
-0.999991
-0.999997
-0.999999
-1
-1
-1
-1
-1
-1
-1
-1
-0.944022
-0.934239
-0.949519
-0.963357
-0.977342
-0.989352
-0.994555
-0.996777
-0.99826
-0.99969
-0.999949
-0.99998
-0.999993
-0.999998
-1
-1
-1
-1
-1
-1
-1
-1
-1
-0.94776
-0.94219
-0.958251
-0.967992
-0.978633
-0.990113
-0.996244
-0.999029
-0.99961
-0.999944
-0.999976
-0.999988
-0.999995
-0.999999
-1
-1
-1
-1
-1
-1
-1
-1
-1
-0.951154
-0.948888
-0.964357
-0.970922
-0.98021
-0.992116
-0.998468
-0.99967
-0.99985
-0.99995
-0.999979
-0.999989
-0.999996
-0.999999
-1
-1
-1
-1
-1
-1
-1
-1
-1
-0.954264
-0.955042
-0.969083
-0.973489
-0.983023
-0.99509
-0.999287
-0.999733
-0.999837
-0.999907
-0.999952
-0.999976
-0.999995
-0.999999
-1
-1
-1
-1
-1
-1
-1
-1
-1
-0.957158
-0.961386
-0.973226
-0.976661
-0.988082
-0.997652
-0.99945
-0.999661
-0.999684
-0.999832
-0.999905
-0.999966
-0.999993
-0.999999
-1
-1
-1
-1
-1
-1
-1
-1
-1
-0.959602
-0.967499
-0.976915
-0.980229
-0.991719
-0.998372
-0.999295
-0.999273
-0.998673
-0.999623
-0.999869
-0.999964
-0.999993
-0.999999
-1
-1
-1
-1
-1
-1
-1
-1
-1
-0.961995
-0.973257
-0.979874
-0.982945
-0.993715
-0.998377
-0.998948
-0.998614
-0.997992
-0.999416
-0.999796
-0.999954
-0.999994
-0.999999
-1
-1
-1
-1
-1
-1
-1
-1
-1
-0.964286
-0.977294
-0.981852
-0.984446
-0.9936
-0.998079
-0.998457
-0.997616
-0.995941
-0.999016
-0.999663
-0.99995
-0.999995
-1
-1
-1
-1
-1
-1
-1
-1
-1
-1
-0.96671
-0.980578
-0.983397
-0.984576
-0.991653
-0.997271
-0.997365
-0.997201
-0.995041
-0.998486
-0.999552
-0.999934
-0.999994
-1
-1
-1
-1
-1
-1
-1
-1
-1
-1
-0.969155
-0.982914
-0.98503
-0.984256
-0.987925
-0.995342
-0.994703
-0.996112
-0.992774
-0.99814
-0.99973
-0.999969
-0.999997
-1
-1
-1
-1
-1
-1
-1
-1
-1
-1
-0.971285
-0.98494
-0.987219
-0.984351
-0.984909
-0.99127
-0.990622
-0.993024
-0.994697
-0.999508
-0.999971
-0.999992
-0.999999
-1
-1
-1
-1
-1
-1
-1
-1
-1
-1
-0.972084
-0.984941
-0.989059
-0.984964
-0.983997
-0.986055
-0.989383
-0.993247
-0.99928
-0.999903
-0.999994
-0.999998
-1
-1
-1
-1
-1
-1
-1
-1
-1
-1
-1
-0.973246
-0.983631
-0.989988
-0.987548
-0.985061
-0.987989
-0.993949
-0.999107
-0.999985
-0.999988
-0.999996
-1
-1
-1
-1
-1
-1
-1
-1
-1
-1
-1
-1
0.0519743
0.0542696
0.0453546
0.0367246
0.0386539
0.0265751
-0.000181193
-0.0280701
-0.00121033
-0.0280047
-0.0592901
-0.0869634
-0.0977387
-0.130406
-0.193564
-0.255597
-0.297693
-0.298578
-0.29562
-0.289696
-0.275431
-0.261907
-0.252807
-0.247644
-0.338229
-0.339066
-0.34625
-0.36579
-0.502423
-0.518292
-0.534471
-0.556647
-0.706693
-0.737266
-0.762478
-0.781769
-0.887946
-0.906557
-0.920843
-0.929219
-0.963859
-0.970392
-0.977492
-0.981146
-0.98988
-0.991481
-0.993306
-0.994226
-0.99801
-0.998535
-0.998447
-0.998593
-0.999641
-0.999747
-0.999762
-0.9998
-0.999949
-0.999966
-0.999978
-0.999988
-0.999984
-0.99999
-0.999995
-0.999998
-0.999992
-0.999996
-0.999998
-0.999999
-0.999983
-0.99999
-0.999993
-0.999999
-0.999993
-0.999995
-0.999982
-0.999999
-0.999998
-0.999999
-0.999999
-0.999999
-0.999999
-0.999999
-0.999999
-1
-1
-1
-1
-1
-1
-1
-1
-1
-1
-1
-1
-1
-1
-1
-1
-1
-1
-1
-1
-1
-1
-1
-1
-1
-1
-1
-1
-1
-1
-1
-1
-1
-1
-1
-1
-1
-1
-1
-1
-1
-1
-1
-1
-1
-1
-1
-1
-1
-1
-1
-1
-1
-1
-1
-1
-1
-1
-1
-1
-1
-1
-1
-1
-1
-1
-1
-1
-1
-1
-1
-1
-1
-1
-1
-1
-1
-1
-1
-1
-1
-1
-1
-1
-1
0.0257025
-0.268586
-0.366736
-0.299261
-0.266452
-0.152052
-0.135614
-0.155547
-0.113962
-0.0932952
-0.0386994
-0.0437999
-0.165254
-0.238922
-0.248158
-0.265098
-0.191191
-0.0206753
0.225301
-0.0950769
-0.191407
-0.161021
-0.101761
-0.143168
-0.128856
-0.122207
-0.127102
-0.116345
-0.152707
-0.203135
-0.23051
-0.271004
-0.279762
-0.245858
-0.257815
-0.0686664
0.0928984
0.229908
-0.137743
-0.191685
-0.152869
-0.166452
-0.225544
-0.157953
-0.135655
-0.124803
-0.182543
-0.261666
-0.287814
-0.299693
-0.264021
-0.143737
0.022394
0.0855192
0.112936
0.133741
0.18992
-0.334348
-0.364439
-0.277628
-0.245056
-0.27913
-0.128394
-0.139517
-0.186873
-0.256331
-0.297314
-0.314332
-0.323312
-0.306412
-0.209941
-0.0595569
-0.0323614
-0.0407771
-0.00482493
0.0859408
-0.241314
-0.169744
-0.144119
-0.140974
-0.160082
-0.201774
-0.305114
-0.354707
-0.352325
-0.300811
-0.30066
-0.312582
-0.266464
-0.196303
-0.111462
-0.244835
-0.395024
-0.310456
-0.0297764
-0.240161
-0.254942
-0.298509
-0.400702
-0.478713
-0.495577
-0.531646
-0.551611
-0.538956
-0.374396
-0.283321
-0.309264
-0.371136
-0.517385
-0.52392
-0.723146
-0.814601
-0.697058
-0.44389
-0.394396
-0.49709
-0.578456
-0.690301
-0.756775
-0.780663
-0.794536
-0.809115
-0.783091
-0.620904
-0.504326
-0.547623
-0.568676
-0.823735
-0.848664
-0.92769
-0.940173
-0.874097
-0.859659
-0.592536
-0.641113
-0.745089
-0.849167
-0.897839
-0.921141
-0.936158
-0.943183
-0.939187
-0.91921
-0.862626
-0.835197
-0.767385
-0.932742
-0.967909
-0.981026
-0.981909
-0.966558
-0.980161
-0.80648
-0.836955
-0.882849
-0.928041
-0.953355
-0.96685
-0.973901
-0.97692
-0.975681
-0.970068
-0.951016
-0.942033
-0.943882
-0.97347
-0.988157
-0.993081
-0.994412
-0.993895
-0.99576
-0.932993
-0.92597
-0.9528
-0.971153
-0.983256
-0.989031
-0.99048
-0.990094
-0.988975
-0.987816
-0.982947
-0.98262
-0.987055
-0.992389
-0.995401
-0.996912
-0.997802
-0.998323
-0.998505
-0.980922
-0.980786
-0.988295
-0.990282
-0.995078
-0.996346
-0.996785
-0.996431
-0.995464
-0.995533
-0.992514
-0.992325
-0.994025
-0.996273
-0.997528
-0.998272
-0.998744
-0.999014
-0.998959
-0.993058
-0.994703
-0.996914
-0.997403
-0.998294
-0.998875
-0.998867
-0.998807
-0.998181
-0.996151
-0.995097
-0.995159
-0.996016
-0.99752
-0.998307
-0.998794
-0.999035
-0.999421
-0.999107
-0.998425
-0.998971
-0.999219
-0.999324
-0.999464
-0.999643
-0.999636
-0.999575
-0.999269
-0.997854
-0.996614
-0.997
-0.997809
-0.998551
-0.999054
-0.999323
-0.999351
-0.999735
-0.999198
-0.999809
-0.999857
-0.999861
-0.999759
-0.999821
-0.999869
-0.999871
-0.999831
-0.999607
-0.999122
-0.998304
-0.99836
-0.998895
-0.999158
-0.999525
-0.999658
-0.999731
-0.999869
-0.999266
-0.999991
-0.999988
-0.999973
-0.99994
-0.999959
-0.999954
-0.999942
-0.999932
-0.999872
-0.999871
-0.99947
-0.999461
-0.999779
-0.999757
-0.999786
-0.999808
-0.999887
-0.99993
-0.999317
-0.999999
-0.999999
-0.999993
-0.999991
-0.999997
-0.999993
-0.999985
-0.999992
-0.999963
-0.999942
-0.99998
-0.999988
-0.999992
-0.999984
-0.999965
-0.999903
-0.999954
-0.99995
-0.99935
-0.999999
-1
-0.999999
-0.999999
-0.999999
-0.999999
-0.999998
-1
-0.999997
-0.999961
-0.999993
-0.999998
-0.999999
-0.999998
-0.999993
-0.99995
-0.99998
-0.999962
-0.999374
-1
-1
-1
-1
-1
-1
-1
-1
-1
-0.99999
-0.999998
-0.999999
-1
-1
-0.999997
-0.99998
-0.99999
-0.999965
-0.999392
-1
-1
-1
-1
-1
-1
-1
-1
-1
-0.999996
-1
-1
-1
-1
-0.999997
-0.999993
-0.999995
-0.999965
-0.99942
-1
-1
-1
-1
-1
-1
-1
-1
-1
-0.999999
-1
-1
-1
-1
-0.999997
-0.999997
-0.999996
-0.999963
-0.999453
-1
-1
-1
-1
-1
-1
-1
-1
-1
-1
-1
-1
-1
-1
-0.999997
-0.999999
-0.999996
-0.999962
-0.99949
-1
-1
-1
-1
-1
-1
-1
-1
-1
-1
-1
-1
-1
-1
-1
-1
-0.999996
-0.999962
-0.999534
-1
-1
-1
-1
-1
-1
-1
-1
-1
-1
-1
-1
-1
-1
-1
-1
-0.999995
-0.999962
-0.999567
-1
-1
-1
-1
-1
-1
-1
-1
-1
-1
-1
-1
-1
-1
-1
-1
-0.999995
-0.999971
-0.999604
-1
-1
-1
-1
-1
-1
-1
-1
-1
-1
-1
-1
-1
-1
-1
-1
-0.999996
-0.999981
-0.999642
-1
-1
-1
-1
-1
-1
-1
-1
-1
-1
-1
-1
-1
-1
-1
-1
-0.999996
-0.999989
-0.999676
-1
-1
-1
-1
-1
-1
-1
-1
-1
-1
-1
-1
-1
-1
-1
-1
-0.999998
-0.999994
-0.999708
-1
-1
-1
-1
-1
-1
-1
-1
-1
-1
-1
-1
-1
-1
-1
-1
-0.999998
-0.999997
-0.999742
-1
-1
-1
-1
-1
-1
-1
-1
-1
-1
-1
-1
-1
-1
-1
-1
-0.999999
-0.999999
-0.999767
-1
-1
-1
-1
-1
-1
-1
-1
-1
-1
-1
-1
-1
-1
-1
-1
-1
-0.999999
-0.99979
-1
-1
-1
-1
-1
-1
-1
-1
-1
-1
-1
-1
-1
-1
-1
-1
-1
-1
-0.99981
-1
-1
-1
-1
-1
-1
-1
-1
-1
-1
-1
-1
-1
-1
-1
-1
-1
-1
-0.999826
-1
-1
-1
-1
-1
-1
-1
-1
-1
-1
-1
-1
-1
-1
-1
-1
-1
-1
-0.999843
-1
-1
-1
-1
-1
-1
-1
-1
-1
-1
-1
-1
-1
-1
-1
-1
-1
-1
-0.999749
-1
-1
-1
-1
-1
-1
-1
-1
-1
-1
-1
-1
-1
-1
-1
-1
-1
-1
-0.999868
-1
-1
-1
-1
-1
-1
-1
-1
-1
-1
-1
-1
-1
-1
-1
-1
-1
-1
-0.99988
-1
-1
-1
-1
-1
-1
-1
-1
-1
-1
-1
-1
-1
-1
-1
-1
-1
-1
-0.9999
-1
-1
-1
-1
-1
-1
-1
-1
-1
-1
-1
-1
-1
-1
-1
-1
-1
-0.999999
-0.9999
-1
-1
-1
-1
-1
-1
-1
-1
-1
-1
-1
-1
-1
-1
-1
-1
-1
-0.999999
-0.999958
-1
-1
-1
-1
-1
-1
-1
-1
-1
-1
-1
-1
-1
-1
-1
-1
-1
-0.999998
-0.999981
-1
-1
-1
-1
-1
-1
-1
-1
-1
-1
-1
-1
-1
-1
-1
-1
-1
-0.999996
-0.999919
-1
-1
-1
-1
-1
-1
-1
-1
-1
-1
-1
-1
-1
-1
-1
-1
-1
-1
-0.999882
)
;

boundaryField
{
    leftWall
    {
        type            zeroGradient;
    }
    rightWall
    {
        type            zeroGradient;
    }
    lowerWall
    {
        type            zeroGradient;
    }
    atmosphere
    {
        type            zeroGradient;
    }
    defaultFaces
    {
        type            empty;
    }
}


// ************************************************************************* //
