/*--------------------------------*- C++ -*----------------------------------*\
| =========                 |                                                 |
| \\      /  F ield         | foam-extend: Open Source CFD                    |
|  \\    /   O peration     | Version:     4.1                                |
|   \\  /    A nd           | Web:         http://www.foam-extend.org         |
|    \\/     M anipulation  |                                                 |
\*---------------------------------------------------------------------------*/
FoamFile
{
    version     2.0;
    format      ascii;
    class       volScalarField;
    location    "1";
    object      p;
}
// * * * * * * * * * * * * * * * * * * * * * * * * * * * * * * * * * * * * * //

dimensions      [1 -1 -2 0 0 0 0];

internalField   nonuniform List<scalar> 
2268
(
2639.63
2306.06
2071.6
1958.28
1792.7
2013.51
2130.07
1823.88
1232.1
1031.83
1010.07
992.07
973.037
970.341
951.933
954.658
919.578
922.705
913.221
900.21
900.162
961.849
1951.56
2617.7
2206.49
1811.48
1713.34
1600.85
1594.03
1448.53
1127.89
1002.53
979.044
958.727
929.47
920.482
1037.1
896.123
896.704
857.911
858.726
854.475
838.744
840.594
836.9
913.691
2510.21
2072.23
1824.21
1622.45
1606.98
1557.94
1353.41
1386.87
1372.4
985.442
903.415
1007.12
979.015
1726.91
881.286
841.421
798.788
808.181
794.256
777.726
782.92
773.477
780.551
2486.83
2221.92
2072.47
1552.07
1493.03
1435.31
1121.12
1030.2
916.893
909.569
966.947
1554.93
1707
2123.8
1330.53
786.296
734.236
739.052
731.108
711.371
722.95
715.084
719.327
2481.04
2303.49
1910.84
1746.63
1993.47
2224.67
1537.17
1164.49
995.723
1047.62
1358.91
1921.89
1928.23
2145.72
1261.53
744.469
765.234
690
679.359
657.65
663.426
652.617
662.005
2504.38
2212.91
1937.98
2183.45
2496.16
2528.81
2400.35
2031.59
1658.77
1467.01
1641.44
2216.01
1955.04
2231.05
1103.01
780.629
1209.52
681.924
604.686
581.055
597.736
597.541
598.901
2532.55
2370.18
2036.12
2435.85
2515.4
2518.75
2463.25
2404.27
2312.48
2308.33
2213.9
2326.38
2084.71
2308.89
1198.66
1141.21
1907.81
1009.03
648.308
561.84
562.942
566.389
605.705
2531.84
2355.49
2143.59
2454.24
2458.03
2466.97
2470.82
2372.5
2447.91
2430.41
2293.32
2338.44
2215.67
2321.46
1881.27
1998.19
2168.54
1826.29
948.993
873.761
985.389
769.779
877.682
2577.54
2414.42
2265.35
2062.3
2145.79
2105.12
2200.42
2036.15
2034.1
2084.27
2049.19
2156.18
2195.47
2122.48
2116.62
2076.33
2087.02
2002.85
2065.75
2555.33
2431.23
2342.28
2171.64
2361.59
2320.11
2279.63
2234.81
2184.71
2254.05
2247.41
2206.85
2203.02
2176.92
2274.15
2187.56
2223.44
2041.39
2077.47
2358.24
2394.93
2345.52
2247.14
2262.28
2038.07
1997.96
2079.56
2204.73
2188.68
2034.88
2043.17
2055.82
1999.88
2163.61
2212.56
2234.52
2076.03
2075.39
2351.67
2322.97
2380.43
2118.82
2056.97
1805.77
1816.56
1797.17
1889.33
1884.64
1847.41
2016.16
2001.52
2032.42
2077.65
2119.06
2162.96
2170.45
2067.34
2277.51
2352.23
2346.15
2064.02
1937.45
1771.08
1803.19
1745.56
1913.47
1773.73
1746.22
2063.35
2098.99
2071.48
2087.43
2041.45
2119.02
2168.73
2073.03
2137.87
2225.06
2231.49
1920.13
1787.82
1699.81
1829.14
1819.02
2080.37
2109.96
1861.08
2020.53
2098.38
2054.48
2061.14
2005.65
2063.54
2129.94
2039.29
2117.8
2153.57
2109.65
1767.74
1742.72
1843.79
1995.81
1904.98
2112.47
2111.38
2025.67
2048.4
2072.91
1997.89
2027.49
1993.85
2018.14
2096.96
2037.29
1840.22
1974.79
1743.13
1629.96
1785
2040.52
2111.52
1964.33
2059.62
2072.75
2052.61
2046.56
2055.61
1916.54
1938.5
1926.14
1951.18
2025.92
2017.04
2477.41
2387.09
2164.74
2410.99
2393.18
2426.04
2318.12
2389.73
2399.3
2363.72
2318.06
2290.69
2252.66
2240.16
2222.12
2239.77
2192.77
2089.07
1876.04
1902
1937.1
1767.78
2127.07
2412.38
2375.99
2329.13
2284.76
2138.46
2133.23
2283.79
2346.33
2325.1
2300.63
2223.55
2292.64
2149.29
2307.47
2212.6
2180.54
2088.54
2034.24
2035.66
2003.67
2019.32
1901.26
2043.03
2327.68
2267.63
2313.6
2117.24
1898.95
1991.94
1942.22
2243.48
2231.48
2258.42
2266.55
2251.25
2176.52
2196.58
2078.28
2116.85
2109.21
2125.03
2021.55
2020.04
2039.36
2004.84
2023.32
2215.87
1974.15
1638.9
1744.73
1867.33
2066.4
2187.95
2227.18
2260.14
2168.37
2224.95
2158.38
2090.94
2132
2039.92
1983.86
2081.76
1889.96
1804.19
2084.81
2079.54
2044.5
1847.73
2132.18
1648.61
1342.54
1482.01
1789.82
1953.2
2130.5
2053.08
2206.34
2120.39
2012.68
2014.79
2036.72
2190.95
1957.65
1937.54
2113.5
2203.35
1754.35
1693.47
1737.13
1718.19
1608.57
1907.8
1218.89
1197.68
1425.63
1635.04
1688.18
1690.05
2037.95
2120.85
2028.81
1689.87
1653.74
1653.92
1732.65
1663.11
1898.72
1787.25
1619.75
1527.05
1469.47
1473.1
1605.32
1650.29
1607.99
1108.51
1116.16
1321.16
1395.81
1438.65
1699.26
1871.68
1899.29
1450.92
1341.45
1446.17
1413.19
1489.75
1417.36
1550.95
1405.32
1362.3
1315.42
1373.52
1437.98
1466.82
1494.72
1335.69
1128.23
1045.48
1083.6
1102.03
1307.62
1502.62
1610.51
1366.13
1094.57
992.995
1084.73
1055.64
1084.95
1110.23
1142.86
1168.63
1175.79
1180.03
1181.93
1191.89
1163.51
1105.16
1130.09
1027.24
822.169
876.242
892.065
1103.79
1256.69
1165.4
937.704
764.305
733.275
850.462
808.101
878.203
1037.55
1020.46
1010.99
975.537
930.341
900.526
864.039
768.562
586.39
754.683
717.692
745.174
572.302
735.908
972.188
967.059
1000.56
881.072
712.416
635.512
648.079
719.363
859.379
836.044
822.029
758.974
629.864
433.048
334.701
290.627
236.763
138.603
508.153
457.123
545.867
346.614
534.505
655.395
615.188
750.845
733.653
710.003
586.156
632.98
679.458
647.944
706.582
643.509
658.468
508.864
294.301
185.22
78.7841
36.5544
18.123
210.489
277.575
238.193
199.241
364.792
400.674
250.479
390.536
397.68
531.665
560.807
505.954
547.485
605.721
570.678
541.463
458.655
221.341
55.2448
19.4003
7.00886
2.64745
1.44762
104.641
124.265
118.457
205.488
274.129
247.905
117.936
160.806
285.704
472.407
488.019
448.572
475.92
449.43
484.799
438.051
281.819
68.7759
10.6904
2.03165
0.584655
0.0226331
-0.282745
80.9549
88.9518
99.5372
130.665
180.689
152.059
89.51
126.239
278.402
380.286
392.158
387.551
446.817
447.012
430.447
374.877
193.18
13.4038
0.922789
-0.0485558
-0.371803
-0.526115
-0.622562
78.3192
79.2831
80.1118
91.5441
117.382
95.5058
77.819
109.81
249.417
334.737
368.453
370.829
425.198
371.797
262.358
72.3413
9.24669
-1.15039
-0.678002
-0.7253
-0.652031
-0.744238
-0.827718
75.3485
75.8152
75.2085
76.6029
86.3777
80.7306
77.1643
116.587
231.303
304.041
348.181
351.873
345.629
284.805
107.284
6.56246
-0.463618
-0.845116
-0.739728
-0.769443
-0.826547
-1.03269
-0.959391
73.0321
75.3001
71.1299
71.849
76.0465
76.8303
82.5321
140.059
268.286
312.578
296.633
313.68
287.239
144.309
11.8602
-1.28985
-1.11134
-1.07485
-1.14733
-1.19366
-1.2705
-1.15403
-1.17465
73.6924
78.9418
68.9938
67.3949
71.3177
74.1667
104.401
236.141
229.007
296.044
309.618
246.706
117.731
28.4601
-0.992385
-1.19428
-1.28894
-1.59161
-1.3901
-1.46278
-1.40988
-1.40516
-1.42363
81.6816
88.715
74.5032
65.3614
72.0503
85.3129
175.052
241.097
267.774
274.589
226.799
105.357
12.4709
-0.875214
-1.35786
-1.6631
-1.48796
-1.41055
-1.41043
-1.43583
-1.45374
-1.53375
-1.46942
86.8762
108.331
102.079
84.1086
89.7877
135.03
201.328
214.522
222.788
194.797
89.4151
10.7091
-0.661623
-1.53977
-1.50281
-1.47044
-1.58139
-1.62691
-1.63797
-1.66
-1.68855
-1.66061
-1.69967
97.5876
131.644
131.056
130.746
150.471
175.71
202.623
210.481
151.166
78.0754
18.0047
-0.620977
-1.67024
-1.56894
-1.64151
-1.72645
-1.74378
-1.74814
-1.77209
-1.75773
-1.7746
-1.79943
-1.77648
74.6257
123.577
126.326
142.956
153.529
155.971
165.902
137.993
69.9393
11.9071
3.21481
-1.5022
-1.69093
-1.80838
-1.85782
-1.831
-1.88635
-1.90893
-1.87576
-1.95617
-2.01
-2.02274
-2.05519
85.864
124.373
139.463
152.638
110.811
125.445
76.3799
64.2581
9.66942
2.58272
-0.633589
-1.91233
-1.87871
-1.96724
-2.01923
-2.00785
-2.061
-2.04116
-2.1168
-2.04362
-2.04027
-2.11374
-2.12891
79.1703
79.4744
124.07
134.674
114.281
81.679
2.07575
5.30901
-0.291653
-1.69387
-1.42906
-2.14843
-2.04085
-2.14606
-2.05788
-2.17348
-2.17433
-2.20753
-2.26759
-2.33216
-2.37924
-2.35806
-2.38595
79.9706
129.002
115.855
97.9943
54.146
10.8414
6.80148
0.170156
-1.04973
-1.79523
-2.12256
-2.07848
-2.14158
-2.19277
-2.20449
-2.31756
-2.32013
-2.40745
-2.45509
-2.44309
-2.44758
-2.49011
-2.46678
48.2428
91.5762
92.3824
72.2666
29.2806
1.86614
-0.0204996
-1.36894
-1.77825
-1.56348
-2.34637
-2.32963
-2.26224
-2.45476
-2.36193
-2.49103
-2.45425
-2.51408
-2.54327
-2.67041
-2.62509
-2.68371
-2.69415
-11.0647
41.138
70.2901
42.9509
18.8866
2.97307
0.474757
-1.83299
-1.67032
-1.92515
-2.22299
-2.36426
-2.42804
-2.54786
-2.51638
-2.52548
-2.66616
-2.72219
-2.697
-2.74189
-2.84986
-2.82755
-2.81065
64.4887
67.3121
45.8251
24.7044
6.38083
-0.121609
-0.687653
-1.14242
-1.95762
-2.00036
-2.29449
-2.56279
-2.55111
-2.6562
-2.6264
-2.90633
-2.88227
-2.88583
-2.98033
-2.96052
-2.94111
-2.95077
-3.04465
52.7893
62.7468
28.8169
17.9521
3.71514
-0.863432
-0.759457
-1.70016
-1.87046
-2.22331
-2.45198
-2.58416
-2.63346
-2.72248
-2.8557
-2.96854
-2.92256
-3.08714
-3.12706
-3.15613
-3.12374
-3.2547
-3.26848
34.5274
42.8217
20.1599
12.3347
4.55452
-0.983348
-1.34591
-1.67293
-2.05639
-2.38041
-2.55285
-2.61072
-2.88722
-2.92001
-2.9745
-3.03507
-3.18439
-3.27606
-3.23021
-3.33237
-3.31563
-3.46905
-3.35081
33.0268
29.3702
13.9236
8.8637
4.06064
-1.29244
-1.99372
-2.35718
-2.37781
-2.58821
-2.64093
-2.83802
-2.95489
-3.05994
-3.21485
-3.24651
-3.34026
-3.33863
-3.41892
-3.46484
-3.4929
-3.46282
-3.53622
25.0276
20.3493
9.53912
6.20119
2.43913
-1.42034
-2.24719
-2.2324
-2.40101
-2.62012
-2.85318
-3.00803
-3.125
-3.30276
-3.30819
-3.38122
-3.49271
-3.61221
-3.61335
-3.67253
-3.65866
-3.7822
-3.73018
19.1058
14.752
6.52715
4.29706
1.14772
-2.04663
-2.11145
-2.70243
-2.76122
-3.01682
-3.25978
-3.2796
-3.29434
-3.45562
-3.57112
-3.7642
-3.74095
-3.67533
-3.82192
-3.82912
-3.88131
-3.95628
-3.94954
15.2253
9.53977
3.61006
1.777
-0.770802
-2.82092
-3.33166
-2.68783
-2.86115
-3.01302
-3.4222
-3.26328
-3.68725
-3.85364
-3.82718
-3.7808
-3.92299
-4.11291
-3.93793
-4.0372
-4.09666
-4.03374
-4.11505
11.6039
5.62071
1.10906
-0.236064
-2.18854
-3.84966
-3.7448
-3.07313
-3.18882
-3.83421
-3.64997
-4.00153
-3.97233
-4.03913
-4.02303
-4.10659
-4.18483
-4.1054
-4.3818
-4.19421
-4.21726
-4.26635
-4.288
10.3636
3.5394
-1.07978
-2.10673
-3.32507
-4.04969
-4.34408
-4.62564
-4.36821
-4.30971
-4.11212
-4.09566
-4.37122
-4.37312
-4.31441
-4.3519
-4.35971
-4.40886
-4.36287
-4.44538
-4.50861
-4.42197
-4.52467
7.18653
-0.524132
-5.30839
-3.36666
-6.12335
-5.11015
-5.13552
-5.30883
-5.20837
-4.87427
-4.47959
-4.81815
-4.50877
-4.47622
-4.55003
-4.56129
-4.62921
-4.5691
-4.66924
-4.55984
-4.76994
-4.687
-4.76079
7.10168
-1.35407
-10.0403
-5.01951
-5.42673
-7.17837
-7.33366
-8.26079
-6.19674
-5.60499
-5.19022
-5.02013
-4.7515
-4.87031
-4.775
-4.69078
-4.76462
-4.85361
-4.81368
-4.93162
-4.82323
-4.87632
-4.88054
2.99883
-5.74971
-10.5085
-13.1671
-10.7192
-10.4918
-8.53603
-8.21393
-6.28665
-6.20743
-5.50545
-5.16635
-5.11563
-5.09804
-5.07377
-5.16428
-5.08629
-5.02857
-5.02095
-5.11321
-5.08916
-5.11035
-5.05584
1.73208
-9.75979
-11.74
-12.2201
-11.4404
-13.1655
-12.3104
-8.56063
-6.35974
-5.78707
-5.75922
-5.84819
-5.29767
-5.30081
-5.35331
-5.39297
-5.31641
-5.32401
-5.39755
-5.26137
-5.29
-5.16423
-5.2951
-8.06265
-19.9775
-17.4554
-16.2507
-17.6855
-11.3683
-9.79624
-6.007
-7.1076
-6.81909
-6.13762
-6.12352
-6.27207
-5.60229
-5.51122
-5.55772
-5.43481
-5.38649
-5.45969
-5.42496
-5.41409
-5.59184
-5.50537
-5.76497
-15.4875
-17.8037
-18.3577
-31.589
-17.2513
-10.7984
-7.72305
-6.83795
-6.37959
-6.81778
-6.20585
-6.00517
-6.24591
-6.17205
-5.89135
-6.06008
-5.96214
-5.86198
-5.84189
-5.84163
-5.73716
-5.70437
2070.53
2079.4
1926.85
1751.02
2054.65
2088.96
2036.49
1975.67
2078.37
2086.87
2096.73
2054.25
1973.62
1928.3
1957.27
1818.79
1652.03
1620.06
1666.85
1697.47
1670.72
1687.1
1684.82
1707.86
1502.24
1501.19
1483.65
1432.2
1058.07
1012.62
967.003
920.172
460.609
382.604
321.166
283.572
84.2067
59.8654
42.2147
35.7104
10.3551
6.94963
4.19498
2.90898
0.756816
0.391103
0.102533
-0.0235529
-0.462478
-0.521034
-0.581413
-0.533872
-0.683913
-0.669986
-0.726147
-0.732859
-0.858572
-0.869288
-0.884123
-0.886926
-0.98772
-0.974827
-1.00967
-1.00943
-1.19439
-1.20568
-1.23308
-1.23702
-1.42896
-1.42115
-1.40467
-1.3965
-1.50113
-1.49811
-1.54806
-1.52733
-1.71175
-1.69197
-1.68169
-1.67303
-1.80103
-1.82044
-1.82639
-1.86857
-2.06609
-2.02553
-2.05027
-2.02024
-2.20335
-2.20671
-2.21043
-2.23894
-2.37149
-2.42187
-2.41522
-2.41732
-2.48709
-2.47966
-2.51689
-2.54877
-2.74598
-2.75647
-2.75587
-2.75017
-2.83509
-2.83886
-2.84145
-2.85919
-3.07345
-3.07944
-3.10214
-3.12967
-3.23216
-3.23646
-3.25052
-3.25143
-3.43297
-3.4397
-3.46774
-3.47832
-3.59629
-3.58242
-3.5885
-3.5923
-3.75072
-3.75039
-3.76512
-3.78868
-3.97932
-3.99997
-3.98105
-3.97428
-4.05459
-4.09362
-4.10353
-4.14203
-4.32749
-4.34327
-4.31422
-4.3269
-4.44837
-4.46193
-4.52808
-4.48196
-4.75689
-4.76682
-4.71667
-4.72986
-4.93649
-4.92723
-4.92724
-4.97196
-5.08484
-5.06338
-5.08966
-5.04908
-5.23367
-5.28448
-5.27167
-5.33397
-5.54107
-5.48595
-5.49384
-5.45596
-5.7132
-5.72852
-5.71709
-5.71989
2213.32
1882.44
1722.18
1845.8
1903.51
2052.03
2051.75
2042.77
2084.45
1993.7
2059.75
1996.01
1944.72
1792.16
1794.8
1772.65
1902.02
2063.93
1875.36
2053.59
1935.58
1926.89
2050.84
2013.05
1993.42
2028.6
1986.59
1950.78
1927.03
1799
1765.36
1716.11
1684.31
1710.09
1749.59
1936.38
1961.95
1787.21
1996.66
1925.51
1931.05
1962.4
1838.21
1934.17
1951.49
1925.88
1868.04
1631.92
1710.9
1550.88
1726.86
1835.37
1901.26
1880.83
1837.86
1852.17
1776.14
1660.54
1564.25
1719.93
1742.98
1667.67
1906.51
1842.09
1792.29
1702.87
1604.52
1507.44
1507.72
1546.94
1700.29
1812.12
1812.73
1765.22
1834.73
1818.57
1802.71
1880.71
1870.63
1856.58
1782.68
1762.52
1533.02
1420.2
1439.68
1552.54
1526.74
1544.27
1628.98
1658.84
1723.26
1520.88
1192.08
1426.54
1755.91
1703.29
1674.95
1550.89
1308.91
1092.09
1038.52
928.332
875.307
917.319
1305.93
1531.71
1486.61
1304.63
925.762
912.592
394.548
197.38
425.195
1085.73
1376.76
1052.77
840.355
524.482
348.519
295.629
246.424
210.537
271.683
656.23
942.578
862.623
780.833
193.763
145.004
39.1549
28.9373
101.31
135.49
755.302
640.67
368.782
143.103
78.2621
43.9879
34.3701
27.227
30.7493
49.556
124.746
161.534
298.356
28.3691
11.6436
3.84963
4.20405
8.55989
6.13859
220.805
166.58
98.3062
42.194
18.3588
11.9823
6.5212
5.86991
7.00887
8.86159
20.631
25.6648
22.1144
6.88176
2.2662
1.5778
1.12597
1.24027
1.61898
33.9895
40.0409
13.4848
7.23302
2.81338
1.31185
1.43279
1.5322
1.74126
1.85836
2.89853
2.74414
1.99566
0.938381
0.99953
0.59593
0.715659
0.415993
1.35021
2.23271
1.6908
1.6165
0.13926
0.384045
0.340574
0.239394
0.159158
0.450635
0.0700197
0.649283
0.151785
0.0153901
0.00846381
0.103103
0.123443
0.129635
0.124244
0.701967
-0.0459056
-0.271052
-0.477525
-0.129792
-0.227265
-0.368104
-0.273792
-0.245783
-0.519705
-0.0729201
-0.142423
0.16799
-0.440294
-0.441849
-0.431397
-0.259977
-0.221514
-0.34467
0.0841869
-0.579512
-0.604096
-0.495121
-0.514568
-0.414554
-0.4646
-0.474547
-0.490999
-0.606535
-0.735329
-0.541102
-0.96371
-0.623738
-0.461427
-0.380087
-0.45997
-0.426986
-0.554862
-0.378487
-0.739362
-0.766849
-0.793752
-0.786762
-0.745272
-0.822362
-0.688958
-0.80744
-0.797829
-0.840443
-0.994709
-1.13583
-1.01308
-1.18353
-0.867713
-0.877512
-0.710745
-0.817023
-0.670856
-0.906241
-0.905195
-0.86399
-0.886087
-0.902774
-0.882088
-0.904018
-0.897898
-1.03069
-0.964121
-1.21169
-1.19884
-1.09518
-0.95586
-0.910469
-0.814757
-0.891907
-0.94175
-0.858367
-1.04605
-1.05656
-1.13895
-1.12581
-1.12822
-1.20218
-1.11374
-1.21524
-1.19799
-1.2315
-1.26861
-1.3363
-1.29485
-1.33252
-1.2324
-1.33707
-1.07769
-1.18306
-1.08503
-1.25458
-1.25726
-1.25967
-1.24592
-1.25123
-1.24075
-1.3183
-1.29903
-1.35816
-1.32012
-1.43144
-1.38423
-1.41986
-1.30529
-1.3801
-1.33107
-1.31393
-1.31817
-1.26311
-1.35735
-1.43534
-1.38102
-1.50952
-1.45115
-1.48445
-1.44097
-1.48197
-1.52249
-1.50738
-1.57123
-1.55715
-1.53326
-1.5711
-1.45498
-1.48591
-1.47501
-1.48278
-1.4527
-1.57515
-1.56277
-1.60102
-1.54827
-1.56101
-1.58887
-1.64865
-1.6387
-1.68586
-1.63755
-1.73121
-1.67331
-1.71151
-1.66525
-1.72528
-1.5691
-1.65053
-1.64467
-1.63041
-1.63541
-1.73013
-1.65918
-1.77015
-1.77786
-1.81078
-1.71951
-1.81681
-1.78946
-1.8437
-1.84877
-1.86487
-1.85116
-1.87046
-1.82089
-1.87427
-1.78342
-1.8286
-1.79723
-1.95028
-1.85678
-2.00144
-1.904
-2.03227
-1.87028
-2.02481
-1.9421
-2.02564
-1.96812
-2.01736
-1.98507
-2.01949
-2.01816
-2.02995
-2.07431
-2.00585
-2.00092
-1.98524
-2.04841
-2.06238
-2.07981
-2.12426
-2.07711
-2.20051
-2.19682
-2.18003
-2.17847
-2.21428
-2.18779
-2.20974
-2.17869
-2.16038
-2.16775
-2.12533
-2.15893
-2.15474
-2.15039
-2.2241
-2.23037
-2.28251
-2.27897
-2.2974
-2.35463
-2.27429
-2.29155
-2.32545
-2.28278
-2.33998
-2.30266
-2.33567
-2.32678
-2.32433
-2.31952
-2.31879
-2.32705
-2.31147
-2.41738
-2.43641
-2.47877
-2.46573
-2.46172
-2.46828
-2.5078
-2.51137
-2.5182
-2.50527
-2.51618
-2.52224
-2.51453
-2.52132
-2.51161
-2.50995
-2.47904
-2.499
-2.48583
-2.57478
-2.54622
-2.58348
-2.61825
-2.5942
-2.63507
-2.55935
-2.59558
-2.65152
-2.64029
-2.66703
-2.63249
-2.64345
-2.56951
-2.6382
-2.56807
-2.65167
-2.64821
-2.65311
-2.72092
-2.79582
-2.69797
-2.81661
-2.8155
-2.83717
-2.88378
-2.91289
-2.85866
-2.79135
-2.84192
-2.88271
-2.86127
-2.93823
-2.79708
-2.93212
-2.70853
-2.84632
-2.80355
-2.90667
-2.9966
-2.97403
-2.96976
-2.88797
-2.98192
-3.06309
-2.97073
-3.08919
-3.08767
-2.98306
-2.92313
-3.0045
-3.10302
-3.04673
-3.0389
-3.06908
-3.01126
-3.00697
-3.10315
-3.07983
-3.1348
-3.13926
-3.23119
-3.18467
-3.14291
-3.18552
-3.13765
-3.19839
-3.20513
-3.28834
-3.20273
-3.15548
-3.25543
-3.23029
-3.17381
-3.18786
-3.18044
-3.27373
-3.31856
-3.38267
-3.33429
-3.33632
-3.34468
-3.38026
-3.38172
-3.3848
-3.4577
-3.31099
-3.36484
-3.36606
-3.40108
-3.32304
-3.37971
-3.37417
-3.35264
-3.35077
-3.46565
-3.47259
-3.45048
-3.51628
-3.58618
-3.52125
-3.50747
-3.42716
-3.5153
-3.50874
-3.63384
-3.57232
-3.55284
-3.42222
-3.54512
-3.51493
-3.53362
-3.51228
-3.50569
-3.61403
-3.65141
-3.66017
-3.68529
-3.64173
-3.70725
-3.7214
-3.80107
-3.73008
-3.74907
-3.70813
-3.72733
-3.75421
-3.82155
-3.72254
-3.71257
-3.72399
-3.69257
-3.705
-3.79572
-3.8168
-3.81629
-3.86163
-3.86048
-3.87587
-3.86714
-3.87472
-3.88688
-3.94906
-4.02779
-4.03047
-3.96685
-3.97556
-3.84667
-3.88384
-3.88523
-3.84241
-3.74734
-3.97568
-3.99407
-4.00966
-4.03725
-4.01577
-4.07083
-4.07314
-4.17903
-4.08368
-4.07181
-4.00806
-4.02035
-4.05381
-4.05069
-4.16851
-4.07084
-4.07557
-4.00436
-4.14951
-4.1499
-4.15009
-4.17417
-4.198
-4.19704
-4.22223
-4.22032
-4.19617
-4.22682
-4.27714
-4.2708
-4.28832
-4.29392
-4.29029
-4.2607
-4.28432
-4.2783
-4.35976
-4.26336
-4.28601
-4.37647
-4.36519
-4.39164
-4.37974
-4.42089
-4.40928
-4.43507
-4.42812
-4.42609
-4.40984
-4.41609
-4.4269
-4.42753
-4.51133
-4.45094
-4.5727
-4.48042
-4.45187
-4.53964
-4.42544
-4.5505
-4.53163
-4.5545
-4.57143
-4.57062
-4.57362
-4.57767
-4.60646
-4.60922
-4.62173
-4.63485
-4.6725
-4.58853
-4.7661
-4.55814
-4.78101
-4.61528
-4.78889
-4.78383
-4.71753
-4.79054
-4.74827
-4.77349
-4.76763
-4.77834
-4.77456
-4.77817
-4.77336
-4.76367
-4.74672
-4.68516
-4.69986
-4.69115
-4.75693
-4.68499
-4.75085
-4.86682
-4.92833
-4.91005
-4.83451
-4.91524
-4.91143
-4.92494
-4.92274
-4.94159
-4.9451
-4.95111
-4.97319
-4.99258
-5.05906
-5.00125
-5.05224
-4.95463
-4.99296
-4.99593
-5.14264
-5.17611
-5.05623
-5.19417
-5.09768
-5.17012
-5.12427
-5.1686
-5.1378
-5.1363
-5.16783
-5.1349
-5.1266
-5.12977
-5.10246
-5.02565
-5.10512
-5.0926
-5.08386
-5.20992
-5.25916
-5.32691
-5.26402
-5.31188
-5.1799
-5.30853
-5.18849
-5.29967
-5.32399
-5.21207
-5.33853
-5.35777
-5.38071
-5.39958
-5.47391
-5.33867
-5.32651
-5.41148
-5.65342
-5.44938
-5.58647
-5.577
-5.46025
-5.71272
-5.42006
-5.69051
-5.44896
-5.44389
-5.65249
-5.42925
-5.47775
-5.56278
-5.59524
-5.58754
-5.51326
-5.82445
-5.55777
-5.63947
-5.72891
-5.68123
-5.65291
-5.81149
-5.57505
-5.84483
-5.62981
-5.82222
-5.83419
-5.71559
-5.847
-5.82547
-5.75565
-5.73902
-5.7571
-5.92864
-5.71144
-5.94313
)
;

boundaryField
{
    leftWall
    {
        type            calculated;
        value           nonuniform List<scalar> 
50
(
2639.63
2617.7
2510.21
2486.83
2481.04
2504.38
2532.55
2531.84
2477.41
2412.38
2327.68
2215.87
2132.18
1907.8
1607.99
1335.69
1130.09
754.683
508.153
210.489
104.641
80.9549
78.3192
75.3485
73.0321
73.6924
81.6816
86.8762
97.5876
74.6257
85.864
79.1703
79.9706
48.2428
-11.0647
64.4887
52.7893
34.5274
33.0268
25.0276
19.1058
15.2253
11.6039
10.3636
7.18653
7.10168
2.99883
1.73208
-8.06265
-5.76497
)
;
    }
    rightWall
    {
        type            calculated;
        value           nonuniform List<scalar> 
50
(
2065.75
2077.47
2075.39
2067.34
2073.03
2039.29
2037.29
2017.04
1875.36
1787.21
1776.14
1818.57
1755.91
1085.73
135.49
6.13859
1.61898
1.35021
0.701967
0.0841869
-0.378487
-0.670856
-0.858367
-1.08503
-1.26311
-1.4527
-1.63041
-1.79723
-1.98524
-2.15039
-2.31147
-2.48583
-2.65311
-2.80355
-3.00697
-3.18044
-3.35077
-3.50569
-3.705
-3.74734
-4.14951
-4.26336
-4.45187
-4.61528
-4.75085
-4.99593
-5.08386
-5.41148
-5.55777
-5.94313
)
;
    }
    lowerWall
    {
        type            calculated;
        value           nonuniform List<scalar> 
62
(
2658.95
2327.32
2094.04
1981.37
1816.24
2036.03
2151.33
1847.15
1258.67
1060.98
1039.46
1021.47
1002.41
999.542
981.355
984.082
949.006
952.133
942.636
929.578
929.518
989.761
1971.34
1951.56
913.691
780.551
719.327
662.005
598.901
605.705
877.682
2103.49
2112.42
1959.57
1783.48
2577.54
2555.33
2358.24
2351.67
2277.51
2137.87
2117.8
1840.22
2595.51
2433.17
2284.17
2081.08
2164.45
2123.7
2218.81
2054.38
2052.95
2102.68
2067.28
2173.77
2212.66
2140.3
2134.81
2094.72
2105.32
2021.98
2084.61
)
;
    }
    atmosphere
    {
        type            calculated;
        value           nonuniform List<scalar> 
46
(
-82.7607
-52.2265
-34.6094
-42.1263
-48.4601
-39.5042
-22.7165
-8.40791
-6.68933
-6.70603
-6.61784
-6.3596
-6.37414
-6.16414
-6.05588
-5.95318
-5.96901
-5.90191
-5.86786
-5.85404
-5.84692
-5.87595
-5.80357
-5.82662
-5.81746
-5.80869
-5.80616
-5.8477
-5.79418
-5.82795
-5.80729
-5.83332
-5.84096
-5.83838
-5.85936
-5.84009
-5.84231
-5.88603
-5.84072
-5.84606
-5.84593
-5.85248
-5.85775
-5.90762
-5.95865
-6.06481
)
;
    }
    defaultFaces
    {
        type            empty;
    }
}


// ************************************************************************* //
