/*--------------------------------*- C++ -*----------------------------------*\
| =========                 |                                                 |
| \\      /  F ield         | foam-extend: Open Source CFD                    |
|  \\    /   O peration     | Version:     4.1                                |
|   \\  /    A nd           | Web:         http://www.foam-extend.org         |
|    \\/     M anipulation  |                                                 |
\*---------------------------------------------------------------------------*/
FoamFile
{
    version     2.0;
    format      ascii;
    class       volScalarField;
    location    "1";
    object      pd;
}
// * * * * * * * * * * * * * * * * * * * * * * * * * * * * * * * * * * * * * //

dimensions      [1 -1 -2 0 0 0 0];

internalField   nonuniform List<scalar> 
2268
(
2658.95
2327.32
2094.04
1981.37
1816.24
2036.03
2151.33
1847.15
1258.67
1060.98
1039.46
1021.47
1002.41
999.542
981.355
984.082
949.006
952.133
942.636
929.578
929.518
989.761
1971.34
2675.32
2270.73
1881.86
1785.7
1673.31
1667.53
1522.65
1209.91
1087.29
1065.19
1046.46
1016.7
1007.65
1119.02
984.067
984.904
946.18
947.011
942.748
926.989
928.855
924.529
997.047
2608.16
2181.02
1941.05
1741.89
1727.64
1681.15
1478.18
1512.73
1497.02
1125.99
1046.99
1143.65
1115.25
1838.62
1021.92
987.858
945.691
955.3
941.394
924.862
930.032
920.3
925.777
2622.03
2367.49
2225.06
1718.11
1664.92
1608.92
1302.5
1221.52
1112.17
1107.06
1157.58
1717.98
1863.57
2263.31
1501.02
988.328
937.884
944.809
937.078
917.342
928.896
920.572
923.732
2651.35
2483.39
2110.07
1950.57
2184.84
2404.27
1746.21
1397.24
1234
1287.19
1577.52
2111.2
2116.37
2319.87
1480.72
999.71
1015.06
952.31
943.886
922.262
927.99
915.941
924.662
2706.3
2429.25
2174.1
2400.03
2679.09
2705.67
2591.08
2254.03
1906.78
1730.84
1888.18
2426.38
2177.85
2433.41
1378.68
1081.74
1474.94
989.651
923.991
902.755
919.543
916.658
918.359
2760.96
2617.22
2303.5
2658.72
2708.82
2710.35
2664.08
2608.79
2546.3
2545.71
2458.23
2554.59
2332.01
2530.94
1512.45
1460.86
2166.14
1334.79
1008.81
932.075
935.148
935.929
971.249
2782.12
2629.39
2434.66
2688.34
2670.26
2679.08
2689.63
2582.41
2680.19
2672.97
2550
2595.06
2483.13
2568.44
2179.69
2283.53
2422.59
2122.23
1323.45
1255.08
1353.06
1160.04
1257.53
2595.51
2433.17
2284.17
2081.08
2164.45
2123.7
2218.81
2054.38
2052.95
2102.68
2067.28
2173.77
2212.66
2140.3
2134.81
2094.72
2105.32
2021.98
2084.61
2608.36
2485.82
2395.54
2220.86
2408.04
2363.41
2321.51
2281.96
2235.01
2302.71
2293.21
2251.71
2242.14
2215.56
2318.61
2237.71
2272.33
2097.07
2132.69
2444.89
2483.39
2430.87
2318.65
2327.3
2092.69
2051.03
2138.48
2268.54
2254.47
2091.94
2101.36
2113.35
2055.57
2225.96
2288.01
2305.57
2165.18
2165.85
2471.22
2440.24
2481.51
2203.26
2136.43
1872.82
1882.64
1863.66
1959.23
1955.37
1918.06
2097.67
2080.26
2113.97
2161.05
2209.25
2255.93
2283.71
2191.44
2429.24
2495.93
2470.8
2168.75
2029.56
1855.66
1887.81
1830.8
2005.69
1860.43
1832.21
2174.45
2212.74
2184.81
2197.17
2152.29
2233.84
2299.84
2229.99
2322.17
2395.79
2376.12
2035.97
1893.01
1800.79
1938.28
1927.82
2214.8
2249.81
1976.42
2157.27
2240.89
2195.24
2199.09
2140.35
2200.18
2283.93
2231.07
2333.4
2346.59
2264.2
1892.53
1864.13
1977.46
2144.58
2043.93
2279.13
2289.26
2184.16
2223.11
2244.08
2161.5
2191.56
2154.02
2179.28
2274.37
2259.77
2084.84
2172.28
1891.63
1763.05
1931.95
2219.53
2297.29
2143.42
2254.15
2279.94
2250.9
2253.86
2254.23
2095.98
2120.01
2102.51
2131.69
2218.05
2270.74
2764.5
2697.5
2499.97
2689.52
2650.23
2687.32
2569.23
2641.27
2662.45
2658.62
2621.44
2594.45
2555.07
2532.27
2520.38
2532.21
2483.8
2402.67
2224.22
2238.69
2268.21
2115.02
2416.08
2743.56
2722.52
2702.78
2596.26
2388.59
2381.76
2573.1
2660.23
2634.93
2663.62
2590.65
2647.06
2501.09
2661.07
2569.06
2536.22
2451.21
2401.92
2406.27
2371.34
2383.18
2258.44
2388.24
2697.81
2609.48
2667.42
2423.1
2157.5
2266.62
2210.23
2587.85
2623.64
2675.16
2684.13
2663.6
2601.23
2636.49
2521.43
2557.28
2532.76
2532.92
2425.07
2422.11
2444.42
2407.06
2423.76
2626.79
2304.77
1907.39
2024.88
2167.3
2413.02
2574.63
2677.13
2742.62
2653.75
2685.85
2611.38
2561.87
2632.29
2556.52
2502.9
2597.45
2383.05
2263.29
2521.69
2510.79
2475.49
2275.83
2571.37
1946.79
1586.72
1754.11
2125.86
2333.09
2566.8
2553.24
2724.84
2603.32
2447.84
2432.89
2478.89
2669.95
2465.53
2477.01
2666.28
2719.02
2215.14
2094.4
2104.8
2081.42
1959.44
2341.42
1497.49
1456.89
1729.42
1988.92
2044.71
2055.06
2526.71
2669.53
2512.25
2092.84
2026.71
2035.13
2147.47
2100.14
2354.64
2220.9
2006.64
1896.42
1837.26
1844.64
1997.8
2060.27
2008.41
1400.81
1401.27
1643.37
1745.64
1800.27
2125.09
2369.48
2398.79
1826.46
1698.21
1806.85
1782.17
1870.72
1807.98
1957.36
1785.15
1734.72
1686.66
1758.06
1838.65
1881.62
1918.63
1705.23
1434.47
1343.65
1398.2
1415.97
1671.64
1920.31
2054.81
1768.47
1407.46
1298.28
1402.83
1380
1416.03
1451.31
1498.66
1530.16
1542.45
1551.39
1559.52
1572.19
1538.75
1468.7
1476.61
1344.97
1118.4
1160.12
1195.18
1469.92
1650.04
1539.15
1248.69
1033.71
994.374
1133.79
1112.81
1200.2
1380.28
1373.46
1364.99
1326.6
1274.65
1239.79
1196.51
1076.98
846.253
1063.43
1015
1023.12
801.984
1018.79
1312.9
1325.12
1361.06
1211.98
993.327
895.106
915.995
1026.73
1191.96
1176.12
1160.98
1082.87
915.117
659.381
529.563
470.781
399.709
260.817
747.285
695.403
781.342
526.496
780.654
944.588
892.506
1076.37
1046.41
1021.69
860.209
907.735
985.758
967.409
1028.65
964.646
967.652
773.595
491.642
339.362
173.503
99.4563
63.6398
344.549
441.162
397.86
350.459
573.686
627.106
404.8
617.11
615.031
807.356
848.349
778.934
840.007
911.329
880.578
845.093
737.891
399.523
141.41
66.2089
35.1329
20.8591
14.696
166.563
206.346
206.609
330.646
448.864
422.779
202.904
281.257
477.739
741.137
771.021
716.946
759.298
746.935
783.417
721.971
506.542
172.342
50.4866
18.8665
9.27484
6.3828
4.48314
114.879
131.118
153.273
225.468
319.28
270.833
146.6
219.598
478.283
633.198
653.642
654.637
739.98
747.281
730.579
658.174
389.136
63.0575
14.7318
6.6273
3.76495
2.72329
2.15816
104.523
111.464
117.17
154.706
213.987
173.271
126.093
205.937
450.07
581.157
637.787
656.356
720.639
661.484
501.207
198.465
56.2429
10.5618
4.48784
3.05627
2.71928
2.11228
1.6885
104.716
111.268
109.509
120.162
150.74
137.454
129.343
217.559
438.396
554.011
621.697
644.077
639.31
546.294
264.562
48.3491
11.433
4.03892
2.98219
2.60376
2.41951
1.68661
1.53751
115.802
124.541
109.137
111.866
129.04
131.972
147.168
288.123
496.659
577.097
581.685
608.85
562.661
339.17
68.6257
7.39665
3.57182
2.56054
2.08628
1.88278
1.77361
1.59671
1.40118
128.339
149.268
117.771
112.316
127.377
139.375
218.309
444.931
487.859
575.307
600.696
516.671
300.249
118.274
8.9063
2.74948
2.15364
1.61648
1.55003
1.39519
1.42501
1.46028
1.28039
163.986
188.601
152.641
128.867
141.838
189.136
374.087
497.722
540.226
558.767
493.56
283.442
75.7761
15.3621
2.60494
1.73312
1.61655
1.63262
1.48245
1.40666
1.3696
1.32156
1.33823
177.875
239.98
229.327
192.582
199.872
308.363
441.104
479.023
496.48
445.576
263.085
71.3519
16.9657
3.35882
2.08567
1.76978
1.48841
1.43497
1.34748
1.28358
1.23906
1.26347
1.22063
201.638
283.936
296.611
302.798
338.154
406.24
451.156
466.079
384.657
232.058
99.3767
16.387
5.31538
2.60236
1.84777
1.43652
1.36182
1.36956
1.32031
1.3016
1.27143
1.24087
1.26388
184.668
296.809
319.818
350.8
376.583
391.986
404.948
353.298
222.242
81.5027
45.0197
8.86763
4.57025
1.99298
1.58216
1.39008
1.30398
1.28171
1.31644
1.21907
1.15737
1.14075
1.10814
201.835
307.907
345.323
369.877
335.98
345.677
247.434
216.539
85.0973
38.2754
23.4059
3.95189
2.53217
1.65699
1.39069
1.30472
1.2377
1.25465
1.18358
1.24981
1.24945
1.17426
1.15897
193.792
269.573
335.362
353.111
322.842
248.356
95.7336
70.0022
34.3073
19.7121
15.1732
3.17616
2.60819
1.51212
1.3983
1.25038
1.24306
1.20761
1.14966
1.08337
1.0346
1.05495
1.02702
198.89
323.278
325.386
303.845
216.066
100.546
61.98
27.6675
16.2385
11.4527
7.35195
3.9984
2.61692
1.50322
1.3503
1.22521
1.21989
1.13137
1.08381
1.09567
1.09104
1.04805
1.07137
168.286
284.362
292.769
253.489
148.355
49.6583
28.8096
12.3979
8.52747
8.29604
5.75871
4.59398
2.11948
1.27049
1.30743
1.17428
1.20989
1.14951
1.12018
0.993034
1.03834
0.979628
0.969185
117.275
226.498
253.057
191.417
109.054
39.4602
20.1728
8.61873
7.29752
6.65693
5.64098
1.74896
1.46225
1.25709
1.275
1.26385
1.12273
1.06647
1.09155
1.04665
0.93868
0.96098
0.977877
192.688
240.547
204.026
140.064
70.2903
26.1881
15.2706
10.6989
8.71752
6.718
4.84505
1.4485
1.38845
1.26512
1.28915
1.00776
1.03158
1.02799
0.933408
0.953205
0.972614
0.962949
0.869066
178.806
219.915
160.857
111.204
56.6753
24.8507
15.2127
10.4461
8.11575
4.33774
1.71962
1.51312
1.42358
1.32186
1.18444
1.07059
1.1164
0.951798
0.911856
0.882786
0.915172
0.784215
0.77043
156.607
185.645
130.794
93.2857
55.7456
25.1751
14.0994
9.21167
5.75701
2.43282
1.71599
1.59456
1.29104
1.24783
1.19047
1.12917
0.979738
0.888057
0.933901
0.831739
0.848475
0.695057
0.813301
150.639
159.163
108.76
82.0972
53.9483
24.044
10.3733
4.04534
2.75724
1.82083
1.69914
1.47739
1.34573
1.23184
1.07494
1.04286
0.949056
0.950671
0.870381
0.824465
0.796404
0.826479
0.753087
138.485
138.96
93.4085
75.0089
50.3382
20.3093
5.57721
2.91397
2.34197
1.90217
1.6069
1.43122
1.29742
1.11356
1.10662
1.03333
0.921795
0.802286
0.801149
0.741964
0.755834
0.6323
0.684313
128.644
122.725
81.9301
69.2389
44.1982
13.6618
4.04194
2.43449
2.13999
1.73076
1.3886
1.31438
1.25736
1.0857
0.968879
0.775539
0.79875
0.864363
0.717772
0.710573
0.658385
0.583412
0.590157
120.909
105.729
71.3703
61.2101
31.9531
7.32922
2.59049
2.7525
2.5234
2.0375
1.46119
1.48022
0.994348
0.813172
0.838004
0.884133
0.741902
0.551973
0.726959
0.627685
0.568229
0.631147
0.549838
114.168
89.7128
61.7763
52.12
22.3374
4.75192
2.70665
3.42625
4.72229
1.83466
1.44672
0.872224
0.834774
0.75341
0.767455
0.683527
0.605254
0.68468
0.408285
0.59587
0.572821
0.523732
0.50208
109.668
75.4114
53.7157
44.55
16.6601
4.7456
3.10756
3.6527
5.39093
1.99428
1.29581
0.929719
0.558236
0.544248
0.601104
0.563392
0.555563
0.506412
0.552402
0.469896
0.406666
0.493304
0.390606
103.221
62.7244
45.7689
40.4746
14.4738
4.62715
3.70226
5.72871
9.89644
2.60069
1.39347
0.346315
0.544371
0.565401
0.490585
0.479192
0.41126
0.47137
0.371234
0.480632
0.270533
0.353465
0.279679
99.303
54.7817
38.3619
39.5193
20.1455
4.74976
4.42902
4.13724
11.6713
3.40333
1.10031
0.311509
0.429683
0.295869
0.390702
0.474896
0.401048
0.312053
0.351986
0.234049
0.342431
0.289346
0.285123
90.9661
45.4281
34.9138
33.5208
25.0643
6.42741
10.1596
7.18603
17.991
3.78453
0.435317
0.20052
0.181518
0.192925
0.2171
0.126583
0.20457
0.262293
0.269914
0.177645
0.201703
0.18051
0.235022
85.5927
36.7733
29.0507
35.5408
33.9643
14.5175
17.7253
15.3485
12.9824
0.871576
-0.271767
-0.413083
0.12052
0.115288
0.0627421
0.0230852
0.0996437
0.0920438
0.0185036
0.154685
0.126055
0.251821
0.120952
75.3378
27.231
18.9871
31.2954
32.0409
31.9244
24.6475
17.9224
0.284966
-1.0318
-0.579597
-0.576539
-0.72959
-0.0610027
0.030032
-0.0164733
0.106441
0.154761
0.0815549
0.116284
0.127159
-0.0505917
0.0358816
76.0915
36.1683
16.4275
23.3084
16.3416
21.8212
11.6699
0.257936
-1.1284
-0.679342
-1.14082
-0.538428
-0.338518
-0.579412
-0.505603
-0.224909
-0.393635
-0.295699
-0.195534
-0.175444
-0.175188
-0.0707211
-0.0379269
2351.39
2360.79
2205.73
2027.61
2396.99
2427.18
2365.81
2295.8
2470.08
2467.95
2465.55
2412.24
2384.6
2324.26
2324.52
2157.9
2016.72
1984.16
2032.44
2066.21
2092.22
2116.2
2118.89
2144.67
1928.47
1926.72
1904.15
1839.77
1409.24
1352.4
1295.06
1232.3
684.721
583.282
502.497
450.178
177.669
138.011
108.498
95.0952
44.0542
34.8649
25.768
21.213
12.2356
10.3516
8.31517
7.29303
3.58343
2.98931
3.0137
2.90936
1.86218
1.76186
1.68881
1.64071
1.48517
1.45567
1.42671
1.41216
1.44282
1.44812
1.40747
1.40438
1.35233
1.33611
1.30578
1.30093
1.25451
1.25422
1.26586
1.26689
1.29512
1.29637
1.26426
1.26127
1.20337
1.22201
1.23248
1.24
1.2381
1.21778
1.21178
1.1692
1.09698
1.13734
1.11255
1.14241
1.0846
1.08118
1.07744
1.04885
1.04148
0.991092
0.997734
0.995628
1.05105
1.05848
1.02124
0.989364
0.917353
0.906862
0.907459
0.91316
0.953433
0.949662
0.947079
0.929337
0.840269
0.834275
0.811577
0.784053
0.806749
0.802453
0.788397
0.787485
0.731135
0.724405
0.696367
0.685791
0.693015
0.706881
0.700806
0.697007
0.663778
0.664103
0.64938
0.625813
0.560373
0.539724
0.558642
0.565409
0.610294
0.571264
0.561356
0.52286
0.462595
0.446811
0.475861
0.463179
0.466903
0.45335
0.387194
0.433311
0.283579
0.273646
0.3238
0.310608
0.229176
0.238434
0.238423
0.193706
0.206021
0.227476
0.201202
0.241775
0.182379
0.131579
0.144383
0.0820839
0.000174326
0.0552995
0.0474069
0.08529
-0.0467573
-0.0620773
-0.0506451
-0.0534469
2486.97
2077.7
1891.62
2033.6
2099.95
2278.64
2282.67
2268.52
2321.07
2235.58
2316.06
2251.2
2167.62
1995.45
1995.7
1969.02
2118.06
2325.12
2202.28
2351.73
2202.24
2203.8
2346.79
2295.52
2280.68
2318.04
2274.46
2241.87
2205.72
2061.17
2018.89
1956.57
1922.15
1959.3
1994.77
2243.66
2322.24
2192.48
2334.93
2242.86
2263.39
2289.34
2142.18
2264.86
2290.75
2268.92
2187.57
1921.12
1990.26
1825.79
2016.52
2173.05
2303.07
2306.67
2274.28
2296.61
2242.89
1963.98
1854.08
2049.09
2086.92
1996.72
2303.12
2232.87
2161.1
2040.4
1924.15
1819.63
1815.98
1863.27
2060.86
2240.18
2252.53
2200.75
2285.97
2312.65
2196.65
2311.07
2313.76
2301.1
2216.72
2174.21
1890.74
1753.32
1774.56
1914.49
1889.14
1900.65
2008.97
2074.22
2182.66
1910.16
1503.16
1778.68
2257.84
2144.49
2106.65
1956.66
1654.92
1393.02
1329.7
1198.42
1134.2
1184.41
1669.19
1947.33
1886.44
1666.58
1202.9
1186.75
553.554
304.007
597.696
1410.91
1765.36
1374.59
1109.43
722.166
504.012
435.955
377.796
332.537
410.95
900.261
1260.07
1150.61
1053.59
305.469
241.841
85.8145
67.8267
181.885
228.345
1041.67
892.536
547.075
248.972
150.412
100.022
80.0089
68.0444
74.5566
107.749
222.342
277.291
460.918
75.9216
35.2749
18.3643
18.162
32.9276
21.5324
368.532
291.05
187.962
97.8529
54.9773
38.4881
27.7182
24.8716
27.0695
33.3017
59.3996
70.9
65.7158
28.1516
12.73
8.33618
6.87572
7.34844
6.37161
90.3057
101.909
53.404
32.2311
18.0357
11.8993
10.8522
11.3167
12.4982
13.582
18.5474
18.5914
14.184
8.76719
6.41445
4.77918
4.16592
3.4459
4.23725
20.7478
20.2546
13.5896
10.3629
6.45836
5.32253
4.8476
5.10364
6.26441
5.84893
9.07454
8.71508
7.04204
5.05902
4.06503
3.43179
3.02217
2.77907
3.40882
8.37617
6.58951
4.30389
4.19473
3.27651
2.59632
2.70461
2.79897
3.13831
5.53706
6.43122
6.65818
5.21144
3.79513
3.07252
2.78866
2.60211
2.11134
2.84166
3.02581
2.45698
2.31594
2.19329
2.15485
1.9287
1.92796
1.97644
2.17872
3.50529
4.92784
4.08149
3.5944
3.02068
2.60135
2.25356
2.26289
1.74689
2.46808
1.62328
1.54545
1.51412
1.62956
1.60575
1.47829
1.6103
1.53599
1.79023
2.28024
2.99857
2.77203
2.3116
1.86652
1.79641
1.64556
1.73581
1.48407
2.27853
1.38968
1.39487
1.45197
1.46792
1.42929
1.45543
1.4473
1.46582
1.40124
1.46915
1.67715
1.68764
1.43558
1.59959
1.61471
1.68708
1.52076
1.42385
2.20435
1.3666
1.356
1.28042
1.29639
1.28703
1.2181
1.31588
1.20595
1.25803
1.24933
1.16703
1.08961
1.12609
1.09785
1.22026
1.18841
1.38753
1.2881
2.10648
1.28272
1.27968
1.27845
1.29232
1.28599
1.29648
1.22103
1.23812
1.18217
1.26578
1.11454
1.15514
1.11771
1.23339
1.16488
1.26828
1.24747
1.26678
2.06385
1.30507
1.22654
1.28088
1.1524
1.21074
1.17739
1.22105
1.17991
1.13979
1.16778
1.09324
1.10537
1.12875
1.0909
1.21135
1.20164
1.1998
1.22471
2.01379
1.21247
1.22426
1.18597
1.23871
1.22597
1.1981
1.13834
1.14828
1.10127
1.15446
1.0564
1.11379
1.07552
1.12177
1.06579
1.22801
1.14395
1.19085
1.96017
1.27716
1.18209
1.253
1.14201
1.1343
1.10138
1.19266
1.09536
1.12278
1.06957
1.06351
1.04731
1.06102
1.04174
1.09596
1.04236
1.13455
1.13698
1.90623
1.08732
1.1806
1.03593
1.13335
1.00509
1.16708
1.01255
1.09525
1.01175
1.06935
1.02
1.05229
1.01788
1.01923
1.01227
0.964672
1.03703
1.09344
1.82192
1.11422
1.10018
1.08275
1.03829
1.08544
0.962038
0.965735
0.982517
0.984088
0.948274
0.974759
0.952811
0.983875
1.00221
0.994956
1.03775
1.00945
1.06727
1.74395
1.06367
1.05738
1.00523
1.00878
0.990343
0.933119
1.01346
0.996196
0.962302
1.00496
0.947771
0.985093
0.952091
0.961005
0.963533
0.968768
0.976382
1.02349
1.68267
0.995568
0.97653
0.934167
0.947215
0.95122
0.944656
0.90514
0.901576
0.894738
0.907667
0.896766
0.890704
0.898423
0.891649
0.901431
0.903557
0.941738
0.963313
1.59875
0.96336
0.991921
0.954657
0.919889
0.943936
0.903062
0.978782
0.942556
0.886616
0.897845
0.871105
0.905653
0.894703
0.968652
0.899999
0.97064
0.89422
0.923292
1.51359
0.942407
0.867506
0.965358
0.846725
0.847834
0.826164
0.779549
0.750443
0.804673
0.871985
0.821409
0.780631
0.802066
0.725114
0.866286
0.731778
0.961946
0.837763
1.4493
0.881856
0.791929
0.814491
0.818761
0.900551
0.806604
0.725436
0.817794
0.699339
0.700858
0.805469
0.865405
0.784036
0.68552
0.741821
0.750053
0.723731
0.788742
1.33017
0.810567
0.833888
0.778917
0.774459
0.682526
0.72905
0.770813
0.728199
0.776068
0.715326
0.708592
0.625391
0.71099
0.758247
0.658313
0.684007
0.743527
0.731694
1.2339
0.765185
0.72035
0.656246
0.704624
0.702591
0.69423
0.658654
0.657193
0.654114
0.581217
0.727921
0.674084
0.67286
0.637851
0.7159
0.659703
0.666258
0.689117
1.15493
0.698456
0.691516
0.713629
0.647831
0.577924
0.642855
0.656641
0.736949
0.648806
0.655372
0.530271
0.591787
0.611275
0.741905
0.619031
0.649823
0.631321
0.653272
1.09278
0.675276
0.637893
0.629132
0.604013
0.647578
0.582049
0.567899
0.488237
0.559223
0.540234
0.581175
0.561972
0.535108
0.467787
0.566817
0.576914
0.565708
0.59769
0.990054
0.618773
0.597698
0.598205
0.55287
0.554019
0.538631
0.547362
0.539776
0.527616
0.465434
0.386708
0.384032
0.447668
0.438987
0.567895
0.530753
0.529599
0.57296
1.04843
0.564009
0.545625
0.530028
0.502443
0.523926
0.468863
0.46655
0.360658
0.456008
0.467878
0.531633
0.519341
0.485907
0.489069
0.371261
0.468944
0.464522
0.536225
0.745087
0.514989
0.514793
0.490717
0.466887
0.46785
0.442655
0.444568
0.468715
0.438069
0.387745
0.394087
0.37657
0.370999
0.374675
0.404277
0.380674
0.387162
0.306249
0.982502
0.504075
0.413607
0.42489
0.398438
0.410345
0.36919
0.380799
0.355012
0.361959
0.363996
0.380244
0.373992
0.363225
0.362634
0.27885
0.339263
0.21807
0.310806
0.653101
0.375634
0.489833
0.364772
0.383648
0.360772
0.343844
0.344655
0.34166
0.337603
0.308818
0.306056
0.293549
0.280482
0.242869
0.326854
0.149302
0.357794
0.135387
0.593623
0.251584
0.256644
0.322942
0.249934
0.292197
0.266978
0.272835
0.262128
0.265906
0.262298
0.267113
0.276797
0.293818
0.355408
0.340718
0.349438
0.284043
0.35667
0.540916
0.298841
0.237336
0.25561
0.331158
0.250429
0.254231
0.240724
0.242927
0.224073
0.220562
0.214555
0.192474
0.173158
0.106704
0.16452
0.113539
0.211476
0.174448
0.425912
0.148219
0.11475
0.234634
0.0966849
0.193174
0.120744
0.166584
0.122261
0.153062
0.154562
0.123025
0.155965
0.164347
0.161204
0.188516
0.265333
0.18614
0.201406
0.317956
0.206138
0.156889
0.0891414
0.152038
0.104171
0.236151
0.107526
0.227565
0.116388
0.0920668
0.20398
0.0775281
0.0583789
0.0354634
0.0165933
-0.0577321
0.0778246
0.0962245
0.05499
-0.112171
0.0918657
-0.0452249
-0.0357521
0.0810008
-0.171475
0.121189
-0.14926
0.0922881
0.0973584
-0.111243
0.112009
0.0636073
-0.021417
-0.053871
-0.0461672
0.0284169
-0.272661
0.203556
0.0269688
-0.06247
-0.0147891
0.0135332
-0.145048
0.0913945
-0.178392
0.0366336
-0.15578
-0.167744
-0.0491522
-0.180549
-0.158912
-0.0890899
-0.072455
-0.0905304
-0.261706
-0.0436945
0.0554089
)
;

boundaryField
{
    leftWall
    {
        type            zeroGradient;
    }
    rightWall
    {
        type            zeroGradient;
    }
    lowerWall
    {
        type            zeroGradient;
    }
    atmosphere
    {
        type            totalPressure;
        rho             rho;
        psi             none;
        gamma           1;
        p0              uniform 0;
        value           nonuniform List<scalar> 
46
(
0
0
0
0
0
0
0
-0.338758
-0.916702
-0.942819
-0.878179
-0.629565
-0.644894
-0.435046
-0.326842
-0.224145
-0.239966
-0.17287
-0.138816
-0.125
-0.117876
-0.146914
-0.0745273
-0.0975783
-0.0884183
-0.0796532
-0.0771207
-0.118658
-0.0651432
-0.0989138
-0.078246
-0.104284
-0.11192
-0.109343
-0.13032
-0.111055
-0.113267
-0.156986
-0.111681
-0.11691
-0.116769
-0.123317
-0.128585
-0.178078
-0.228288
0
)
;
    }
    defaultFaces
    {
        type            empty;
    }
}


// ************************************************************************* //
