/*--------------------------------*- C++ -*----------------------------------*\
| =========                 |                                                 |
| \\      /  F ield         | foam-extend: Open Source CFD                    |
|  \\    /   O peration     | Version:     4.1                                |
|   \\  /    A nd           | Web:         http://www.foam-extend.org         |
|    \\/     M anipulation  |                                                 |
\*---------------------------------------------------------------------------*/
FoamFile
{
    version     2.0;
    format      ascii;
    class       surfaceScalarField;
    location    "1";
    object      phi;
}
// * * * * * * * * * * * * * * * * * * * * * * * * * * * * * * * * * * * * * //

dimensions      [0 3 -1 0 0 0 0];

internalField   nonuniform List<scalar> 
4432
(
-1.31376e-05
1.31376e-05
-4.19423e-05
2.88048e-05
-4.05375e-05
-1.40483e-06
-3.71155e-05
-3.42197e-06
-1.34029e-05
-2.37126e-05
-3.47565e-06
-9.92727e-06
-1.86628e-05
1.51871e-05
-2.34777e-05
4.81492e-06
-8.82087e-06
-1.46568e-05
-1.6157e-05
7.33611e-06
-1.52773e-05
-8.79701e-07
-1.52411e-05
-3.62183e-08
-8.99094e-06
-6.25012e-06
-6.78441e-07
-8.3125e-06
2.38617e-06
-3.06461e-06
7.60665e-06
-5.22047e-06
9.0901e-06
-1.48345e-06
6.32719e-06
2.76291e-06
2.36179e-06
3.9654e-06
1.44338e-07
2.21745e-06
2.24987e-06
-2.10553e-06
1.53902e-06
7.1085e-07
1.53902e-06
-1.38798e-05
2.70173e-05
-2.94791e-05
4.44041e-05
-3.09352e-05
5.13029e-08
-5.51273e-05
2.07701e-05
-5.58985e-05
-2.29414e-05
-5.04204e-05
-1.54054e-05
-2.97163e-05
-5.51696e-06
-2.38699e-05
-1.03144e-06
-3.19328e-05
-6.59396e-06
-1.2585e-05
-1.20117e-05
-1.96414e-05
6.17665e-06
-9.6699e-06
-1.00077e-05
-1.17024e-05
-4.21768e-06
-1.96799e-06
-1.80469e-05
2.5099e-06
-7.5425e-06
3.9571e-06
-6.66768e-06
4.53291e-06
-2.05926e-06
7.63414e-06
-3.38325e-07
3.79597e-06
7.80358e-06
2.3453e-06
3.66812e-06
1.99129e-06
-1.75152e-06
1.58033e-06
1.12181e-06
3.11935e-06
-3.84971e-05
6.55144e-05
-3.04252e-05
3.63322e-05
-5.65221e-05
2.61482e-05
-6.06991e-05
2.49471e-05
-5.76563e-05
-2.59842e-05
-5.26018e-05
-2.04599e-05
-2.88689e-05
-2.92498e-05
-1.83687e-05
-1.15317e-05
-2.42254e-05
-7.37257e-07
-2.26951e-05
-1.3542e-05
-2.27604e-05
6.24195e-06
-1.10167e-05
-2.17514e-05
-2.12296e-06
-1.31114e-05
6.28064e-06
-2.64505e-05
6.83194e-06
-8.09381e-06
2.76476e-06
-2.60049e-06
7.65719e-06
-6.95169e-06
4.58753e-06
2.73134e-06
4.5016e-06
7.8895e-06
4.696e-06
3.47372e-06
1.78197e-06
1.16251e-06
1.11626e-06
1.78751e-06
4.23561e-06
-1.88736e-05
8.4388e-05
-2.41859e-05
4.16445e-05
-5.15543e-05
5.35167e-05
-3.49376e-05
8.33034e-06
-6.11275e-05
2.05756e-07
-6.01968e-05
-2.13906e-05
-3.70078e-05
-5.24389e-05
-2.77504e-05
-2.07891e-05
-1.66046e-05
-1.18831e-05
-2.02707e-05
-9.87588e-06
-1.52349e-05
1.20617e-06
-1.19466e-05
-2.50397e-05
1.23145e-06
-2.62894e-05
2.19345e-05
-4.71535e-05
9.64946e-06
4.19126e-06
3.66217e-06
3.38679e-06
5.58522e-06
-8.87473e-06
7.04366e-06
1.27289e-06
4.03921e-06
1.0894e-05
4.07391e-06
3.43903e-06
1.68246e-06
3.55396e-06
2.94526e-07
3.17544e-06
4.53013e-06
-1.64007e-05
0.000100789
-4.1904e-05
6.71478e-05
-5.2834e-05
6.44467e-05
-6.0465e-05
1.59613e-05
-5.43442e-05
-5.91505e-06
-5.37862e-05
-2.19486e-05
-6.59533e-05
-4.02718e-05
-5.65974e-05
-3.01449e-05
-3.66274e-05
-3.18531e-05
-1.8525e-05
-2.79783e-05
-1.70742e-05
-2.44654e-07
-1.25312e-05
-2.95827e-05
-2.05333e-06
-3.67672e-05
1.12052e-05
-6.04121e-05
6.92037e-06
8.47609e-06
3.64634e-06
6.66082e-06
6.31482e-06
-1.15432e-05
4.36352e-06
3.22419e-06
3.68774e-06
1.15697e-05
7.44828e-07
6.38194e-06
-5.65212e-07
4.864e-06
-8.0369e-07
3.41392e-06
3.72644e-06
-1.1046e-05
0.000111835
-4.2927e-05
9.90288e-05
-5.26174e-05
7.41371e-05
-5.12721e-05
1.46159e-05
-4.62349e-05
-1.09522e-05
-4.81152e-05
-2.00683e-05
-3.22531e-05
-5.61339e-05
-3.67476e-05
-2.56504e-05
-2.63865e-05
-4.22142e-05
-2.71064e-05
-2.72584e-05
-1.28019e-05
-1.45491e-05
-6.70156e-06
-3.56831e-05
-8.85516e-06
-3.46136e-05
5.59781e-06
-7.4865e-05
5.13294e-06
8.94095e-06
8.64965e-06
3.14412e-06
1.06146e-05
-1.35081e-05
8.42396e-06
5.4148e-06
5.59498e-06
1.43987e-05
3.37885e-07
1.1639e-05
3.63254e-07
4.83863e-06
-5.77377e-07
4.35455e-06
3.14906e-06
-1.81405e-05
0.000129975
-3.20687e-05
0.000112957
-4.56255e-05
8.76939e-05
-4.83441e-05
1.73345e-05
-4.6368e-05
-1.29283e-05
-4.63747e-05
-2.00616e-05
-5.48901e-05
-4.76185e-05
-3.17875e-05
-4.8753e-05
-4.86683e-05
-2.53333e-05
-3.64181e-05
-3.95086e-05
-1.26486e-05
-3.83187e-05
-5.92559e-06
-4.24061e-05
-1.13531e-05
-2.91861e-05
-1.00274e-06
-8.52154e-05
1.89386e-06
6.04435e-06
1.1809e-05
-6.77101e-06
7.82763e-06
-9.52678e-06
4.90739e-06
8.33504e-06
-1.62139e-06
2.09275e-05
-4.96051e-06
1.49782e-05
-4.51768e-06
4.39581e-06
-3.84435e-06
3.68122e-06
-6.95285e-07
-1.49304e-05
0.000144906
-2.98379e-05
0.000127865
-4.48441e-05
0.0001027
-5.11823e-05
2.36726e-05
-5.023e-05
-1.38806e-05
-2.57871e-05
-4.45045e-05
-5.38789e-05
-1.95267e-05
-3.07655e-05
-7.18664e-05
-4.10876e-05
-1.50112e-05
-1.66827e-05
-6.39135e-05
-1.59877e-05
-3.90138e-05
-7.08695e-06
-5.13068e-05
-1.51731e-05
-2.10999e-05
-5.19619e-06
-9.51923e-05
4.36171e-06
-3.51355e-06
1.0045e-05
-1.24543e-05
2.251e-05
-2.19918e-05
1.26744e-05
1.81706e-05
-2.11884e-06
3.57208e-05
-8.43173e-06
2.1291e-05
-1.24284e-06
-2.79308e-06
5.98948e-06
-3.5511e-06
5.29419e-06
-6.7945e-05
6.7945e-05
-9.34085e-05
2.54635e-05
-0.000114094
2.06858e-05
-0.000127176
1.30821e-05
-0.000123254
-3.92223e-06
-0.000120923
-2.33147e-06
-0.000118174
-2.7489e-06
-6.85572e-05
-4.96165e-05
-6.31328e-05
-5.42447e-06
-5.53738e-05
-7.75895e-06
-5.31771e-05
-2.19673e-06
-8.60536e-05
3.28765e-05
-7.1146e-05
-1.49076e-05
-6.15128e-05
-9.63325e-06
-5.09467e-05
-1.05661e-05
-4.66935e-05
-4.25321e-06
-2.08183e-05
-2.58752e-05
-2.15214e-05
7.03102e-07
-2.15214e-05
-2.50779e-05
9.30229e-05
-6.97729e-05
7.01585e-05
-9.16971e-05
4.26099e-05
-5.97729e-05
-1.88421e-05
-0.000104263
4.05677e-05
-0.000104192
-2.40204e-06
-6.04667e-05
-4.64745e-05
-6.47962e-05
-4.5287e-05
-5.83037e-05
-1.19169e-05
-9.00435e-05
2.39808e-05
-8.63006e-05
-5.93955e-06
-3.65391e-05
-1.6885e-05
-4.31851e-05
-8.26165e-06
-3.34849e-05
-1.93334e-05
-1.44811e-05
-2.95699e-05
-2.3736e-05
5.00164e-06
-2.32269e-05
-2.63843e-05
-1.43326e-05
-8.19121e-06
-3.5854e-05
-2.67567e-05
0.00011978
-3.22315e-05
7.56334e-05
-2.17808e-05
3.21592e-05
-4.19762e-05
1.35333e-06
-6.91671e-05
6.77585e-05
-5.35474e-05
-1.80217e-05
-6.49467e-05
-3.50752e-05
-7.80705e-05
-3.21632e-05
-7.09052e-05
-1.90821e-05
-4.92517e-05
2.32727e-06
-3.38236e-05
-2.13676e-05
-2.79004e-05
-2.28082e-05
-4.98668e-06
-3.11754e-05
4.64883e-06
-2.89689e-05
-5.13601e-06
-1.9785e-05
-1.06806e-05
1.05462e-05
-6.15008e-06
-3.09148e-05
-6.91939e-06
-7.42189e-06
-4.27734e-05
-2.00723e-05
0.000139852
-3.32195e-05
8.87806e-05
-5.65902e-05
5.55299e-05
-8.59191e-05
3.06823e-05
-3.50594e-05
1.68988e-05
-3.90805e-05
-1.40006e-05
-3.12968e-05
-4.28589e-05
-1.64732e-05
-4.69869e-05
-1.88196e-05
-1.67358e-05
-3.54885e-06
-1.29434e-05
-4.57073e-06
-2.03457e-05
3.4186e-06
-3.07975e-05
1.87419e-05
-4.64987e-05
1.28126e-05
-2.30397e-05
1.13159e-05
-1.82883e-05
1.19898e-05
9.87233e-06
1.52648e-06
-2.04515e-05
1.33823e-07
-6.02923e-06
-4.26395e-05
-2.19321e-05
0.000161784
-4.03463e-05
0.000107195
-5.51504e-05
7.0334e-05
-3.59605e-05
1.14923e-05
-4.28524e-05
2.37907e-05
-2.07535e-05
-3.60994e-05
-8.65474e-06
-5.49577e-05
-2.00955e-05
-3.55461e-05
6.22115e-06
-4.30524e-05
1.91955e-05
-2.59178e-05
1.5053e-05
-1.62032e-05
1.23357e-05
-2.80802e-05
1.64817e-05
-5.06447e-05
3.49097e-05
-4.14677e-05
1.87089e-05
-2.08746e-06
2.69111e-05
1.67007e-06
1.11636e-05
-4.70392e-06
1.32161e-05
-8.08175e-06
-2.94234e-05
-2.3852e-05
0.000185636
-4.48882e-05
0.000128231
-4.70524e-05
7.24983e-05
-4.51762e-05
9.6161e-06
-2.58866e-05
4.50111e-06
-1.5818e-05
-4.6168e-05
-1.54173e-05
-5.53584e-05
-2.34884e-06
-4.86146e-05
7.06225e-06
-5.24635e-05
2.99701e-05
-4.88257e-05
1.94002e-05
-5.63329e-06
3.31452e-05
-4.18252e-05
3.79365e-05
-5.5436e-05
4.11898e-05
-4.4721e-05
2.12048e-05
1.78975e-05
3.3199e-05
-1.03241e-05
1.48345e-05
1.36605e-05
8.59403e-06
-1.84124e-06
-2.08294e-05
-5.42672e-05
0.000239903
-6.06976e-05
0.000134661
-4.96889e-05
6.14896e-05
-2.27637e-05
-1.73091e-05
-1.41294e-05
-4.13321e-06
-1.47863e-05
-4.55111e-05
-1.14435e-05
-5.87012e-05
3.54746e-07
-6.04128e-05
5.32837e-06
-5.74371e-05
2.64957e-05
-6.9993e-05
2.19072e-05
-1.04478e-06
3.7532e-05
-5.745e-05
4.11953e-05
-5.90993e-05
4.05698e-05
-4.40955e-05
3.78722e-05
2.05951e-05
3.25565e-05
-5.00833e-06
1.40722e-05
3.21449e-05
8.34081e-06
3.89011e-06
-1.24886e-05
-7.45626e-05
0.000314466
-9.04382e-05
0.000150537
-3.39111e-05
4.96244e-06
-3.54438e-05
-1.57763e-05
-2.45941e-05
-1.49829e-05
-1.82104e-05
-5.18948e-05
-2.99459e-06
-7.3917e-05
8.16928e-07
-6.42243e-05
6.64684e-06
-6.3267e-05
2.16612e-05
-8.50074e-05
3.8067e-05
-1.74506e-05
3.66085e-05
-5.59916e-05
2.21747e-05
-4.46655e-05
2.09749e-05
-4.28957e-05
3.18888e-05
9.68119e-06
2.70695e-05
-1.88984e-07
2.25384e-05
3.66759e-05
7.73816e-06
1.86903e-05
-4.75045e-06
-4.90469e-06
0.00014981
-3.39039e-05
0.000156864
-3.76678e-05
0.000106464
-7.5398e-05
6.14028e-05
-8.05908e-05
-8.68781e-06
-0.000108191
-1.6904e-05
-7.42663e-05
-5.34516e-05
-0.000121665
-2.44676e-05
-9.31337e-05
-4.35426e-05
-7.74503e-05
-7.95969e-05
-3.35359e-05
-8.29282e-05
-2.15546e-05
-6.32881e-05
-2.55134e-05
-1.71411e-05
-6.45591e-05
-5.61467e-05
-3.55211e-05
-3.25515e-05
-1.40546e-05
-3.39209e-05
5.63533e-06
-4.16817e-05
1.67263e-05
7.07962e-06
4.20395e-05
1.04076e-05
5.76739e-05
5.65666e-06
5.45296e-05
3.51204e-07
5.29813e-06
4.56804e-05
6.15036e-05
-5.09113e-05
3.63273e-06
0.000146178
1.58868e-06
0.000158908
-1.12983e-05
0.000119351
-2.93154e-05
7.942e-05
-3.69489e-05
-1.05427e-06
-2.64932e-05
-2.73597e-05
-5.74993e-05
-2.24455e-05
-5.94802e-05
-2.24867e-05
-5.22051e-05
-5.08177e-05
-0.000102953
-2.88486e-05
-0.000113128
-7.27539e-05
-0.000121828
-5.45874e-05
-7.82807e-05
-6.06888e-05
-0.000105681
-2.87469e-05
-9.00515e-05
-4.81804e-05
-9.5549e-05
-2.84234e-05
-9.05711e-05
-4.66596e-05
-8.22115e-05
-1.28004e-06
-7.47938e-05
2.98988e-06
-6.26481e-05
-6.48903e-06
-9.22205e-05
2.99236e-05
-8.21926e-05
3.56525e-05
0.000132789
-0.000153478
1.81456e-07
0.000145996
3.4449e-06
0.000155644
2.41822e-05
9.86137e-05
9.03573e-06
9.45664e-05
-3.45043e-06
1.14319e-05
-2.3995e-05
-6.81513e-06
-3.38666e-05
-1.25739e-05
-5.10316e-05
-5.32177e-06
-6.8816e-05
-3.30333e-05
-6.80659e-05
-2.95986e-05
-0.000116615
-2.42047e-05
-0.000125092
-4.61107e-05
-0.000141243
-4.45374e-05
-0.000139784
-3.02058e-05
-0.000155953
-3.20114e-05
-0.000150869
-3.35074e-05
-0.000151802
-4.57274e-05
-0.000170712
1.76304e-05
-0.000200046
3.23241e-05
-0.000197902
-8.63287e-06
-0.000201206
3.32273e-05
-0.000208397
4.28438e-05
0.000120884
-0.000196492
1.16376e-05
0.000134359
1.55495e-05
0.000151732
-3.18968e-06
0.000117353
-1.56296e-05
0.000107006
-3.94786e-05
3.5281e-05
-6.56069e-05
1.93132e-05
-9.41435e-05
1.59626e-05
-0.000111533
1.20678e-05
-0.000107551
-3.70154e-05
-0.000122137
-1.50126e-05
-0.000121316
-2.50253e-05
-0.000134113
-3.33136e-05
-0.000150397
-2.82533e-05
-0.000140373
-4.02302e-05
-0.000153371
-1.9013e-05
-0.000158148
-2.87309e-05
-0.000165367
-3.85087e-05
-0.00013186
-1.58763e-05
-0.000149706
5.01702e-05
-0.000216233
5.78941e-05
-0.000206887
2.38813e-05
-0.000227301
6.32577e-05
3.29841e-05
-0.000139401
3.12306e-06
0.000131235
2.87388e-05
0.000126117
8.81967e-06
0.000137272
-8.87906e-06
0.000124705
-5.41315e-05
8.05334e-05
-7.46253e-05
3.98069e-05
-0.000102798
4.41348e-05
-8.20775e-05
-8.65217e-06
-0.000125604
6.51076e-06
-0.000126442
-1.41744e-05
-0.000142396
-9.07114e-06
-0.000124629
-5.10808e-05
-0.000121778
-3.11043e-05
-0.000152623
-9.38533e-06
-0.00012539
-4.6246e-05
-0.000126755
-2.73656e-05
-0.000188345
2.30813e-05
-0.000211644
7.42254e-06
-0.000167136
5.66217e-06
-0.000144141
3.48996e-05
-0.000190312
7.00523e-05
-0.000178208
5.11536e-05
4.22208e-05
-0.000187445
2.48656e-06
0.000128749
-1.50528e-05
0.000143656
-2.20772e-05
0.000144296
-4.39845e-05
0.000146612
-3.89202e-05
7.54692e-05
-5.17445e-05
5.26312e-05
-3.70382e-05
2.94285e-05
-5.31417e-05
7.45136e-06
-8.73982e-05
4.07672e-05
-9.33441e-05
-8.22848e-06
-6.62518e-05
-3.61635e-05
-8.46611e-05
-3.26715e-05
-9.63573e-05
-1.94081e-05
-9.03218e-05
-1.54208e-05
-0.000124198
-1.23703e-05
-0.000202531
5.09677e-05
-0.000209169
2.9719e-05
-0.000221568
1.98216e-05
-0.000229244
1.33388e-05
-0.000241551
4.7206e-05
-0.00022697
5.54714e-05
-0.00020133
2.55142e-05
2.90116e-05
-0.000188121
6.82213e-06
0.000121927
-5.06299e-05
0.000201108
-5.03491e-05
0.000144016
-6.85683e-06
0.00010312
-3.29891e-05
0.000101601
-0.000102056
0.000121699
-9.74469e-05
2.48189e-05
-0.000105117
1.51218e-05
-9.98089e-05
3.54588e-05
-7.57737e-05
-3.22636e-05
-9.27089e-05
-1.92284e-05
-0.000142939
1.75591e-05
-0.000183645
2.12971e-05
-0.000214874
1.58082e-05
-0.00023604
8.79619e-06
-0.000218568
3.3496e-05
-0.000229406
4.05561e-05
-0.000242079
3.24952e-05
-0.000250378
2.16378e-05
-0.000234242
3.10696e-05
-0.000208425
2.96544e-05
-0.00019525
1.23399e-05
5.5734e-06
-0.000171812
-1.50619e-05
0.000136989
-9.29855e-06
0.000195345
-1.75088e-05
0.000152226
-3.25862e-05
0.000118197
-4.4665e-05
0.00011368
-5.43559e-05
0.00013139
-9.17261e-05
6.21891e-05
-0.000103101
2.64967e-05
-7.87146e-05
1.10724e-05
-0.00013451
2.3532e-05
-0.000161761
8.02222e-06
-0.00017074
2.65384e-05
-0.000202816
5.33728e-05
-0.000222533
3.55252e-05
-0.000229085
1.53486e-05
-0.000244454
4.88647e-05
-0.000237238
3.33404e-05
-0.000221886
1.71431e-05
-0.000209799
9.55116e-06
-0.000193092
1.43625e-05
-0.000176717
1.32795e-05
-0.000174136
9.75884e-06
3.68919e-06
-0.000172252
1.50982e-05
0.00012189
6.40666e-05
0.000146376
2.79393e-06
0.000213499
-1.61225e-05
0.000137114
-9.47888e-05
0.000192347
-7.46356e-05
0.000111236
-0.000117232
0.000104786
-0.000122483
3.1747e-05
-0.000132052
2.06418e-05
-0.000148637
4.01171e-05
-0.000154293
1.3678e-05
-0.000179489
5.17348e-05
-0.000146049
1.99324e-05
-0.000144822
3.42985e-05
-0.00021533
8.58566e-05
-0.0002172
5.07342e-05
-0.000203243
1.93837e-05
-0.000185237
-8.63206e-07
-0.000177187
1.50109e-06
-0.000171237
8.41247e-06
-0.000177516
1.95585e-05
-0.000188463
2.07065e-05
1.05245e-05
-0.000195299
-2.03446e-06
0.000123925
8.06207e-07
0.000143536
-7.46784e-07
0.000215052
-4.25556e-05
0.000178923
-5.27239e-05
0.000202515
-9.55177e-05
0.00015403
-5.6398e-05
6.56663e-05
-0.000112018
8.7367e-05
-0.000113491
2.21147e-05
-0.000109881
3.65077e-05
-0.000135547
3.93436e-05
-0.000103983
2.01706e-05
-0.000129381
4.53306e-05
-0.000204077
0.000108994
-0.000203387
8.51669e-05
-0.000197559
4.49061e-05
-0.000181428
3.25282e-06
-0.000172086
-1.02049e-05
-0.000161526
-9.059e-06
-0.000148891
-4.22314e-06
-0.000134653
5.32068e-06
-0.000125169
1.12223e-05
-2.70506e-07
-0.000114374
7.96073e-06
0.000115964
-3.82427e-05
0.000189739
2.40352e-05
0.000152774
-7.70667e-06
0.000210664
-3.95247e-05
0.000234333
-8.84107e-05
0.000202916
-0.000101628
7.88837e-05
-0.000115873
0.000101612
-0.000112865
1.91065e-05
-7.76036e-05
1.24669e-06
-8.75193e-05
4.92593e-05
-0.000151594
8.42455e-05
-0.000183456
7.71922e-05
-0.000117159
4.26973e-05
-0.000106215
7.42228e-05
-0.00010422
4.29117e-05
-0.000149495
4.85279e-05
-0.000149171
-1.05289e-05
-9.98819e-05
-5.83485e-05
-7.58212e-05
-2.82838e-05
-6.80439e-05
-2.45668e-06
-5.0888e-05
-5.93353e-06
-1.44345e-05
-3.6724e-05
6.30802e-06
0.000109656
3.80696e-05
0.000157977
5.45517e-05
0.000136292
-3.4832e-05
0.000300048
-4.3559e-05
0.00024306
-7.19437e-05
0.000231301
-8.09268e-05
8.78668e-05
-5.27845e-05
7.34695e-05
-6.56218e-05
3.19438e-05
-5.69684e-05
-7.40671e-06
-7.79802e-05
7.0271e-05
-8.92643e-05
9.55296e-05
-9.67113e-05
8.46392e-05
-0.000161854
0.000107839
-0.000161408
7.37774e-05
-0.000149495
3.0999e-05
-0.000121621
2.06535e-05
-7.29623e-05
-5.91877e-05
-7.0658e-05
-6.06529e-05
-6.28622e-05
-3.60796e-05
-3.39629e-05
-3.1356e-05
-7.99177e-06
-3.19047e-05
-2.78642e-05
5.43789e-06
2.50626e-05
8.45935e-05
4.72782e-05
0.000135762
3.13406e-06
0.000180436
-1.10847e-05
0.000314267
-3.88097e-05
0.000270785
-2.75489e-05
0.00022004
-8.26057e-05
0.000142924
-5.66634e-05
4.75272e-05
-5.64802e-05
3.17605e-05
-0.000116882
5.2995e-05
-0.000136432
8.98209e-05
-0.000144186
0.000103284
-0.000152994
9.34476e-05
-0.000101617
5.64626e-05
-8.20351e-05
5.41952e-05
-0.000127053
7.60172e-05
-9.21035e-05
-1.42963e-05
-5.23195e-05
-9.89717e-05
-4.7787e-05
-6.51853e-05
-2.41622e-05
-5.97044e-05
2.1254e-06
-5.76436e-05
2.69803e-05
-5.67596e-05
-2.14079e-05
2.0524e-05
1.85103e-06
8.27425e-05
1.37605e-05
0.000123852
9.56123e-06
0.000184635
-6.41101e-06
0.000330239
-3.13082e-05
0.000295682
-2.79325e-05
0.000216664
-3.23275e-05
0.000147319
-5.63476e-05
7.15473e-05
-7.06146e-05
4.60276e-05
-0.0001098
9.21805e-05
-0.000125763
0.000105784
-0.00014273
0.000120251
-0.000151362
0.000102079
-0.000155892
6.09926e-05
-0.000150588
4.8891e-05
-7.88064e-05
4.23587e-06
-4.8021e-05
-4.50817e-05
-4.03438e-05
-0.000106649
-2.4768e-05
-8.07611e-05
5.05167e-06
-8.95241e-05
1.42231e-05
-6.6815e-05
6.7029e-06
-4.92394e-05
-3.56854e-05
2.09803e-05
2.19523e-05
6.07902e-05
3.17853e-05
0.000114019
1.5913e-05
0.000200507
1.39616e-05
0.000332191
1.85156e-06
0.000307792
1.33303e-06
0.000217183
-7.17487e-06
0.000155826
-4.87435e-05
0.000113116
-6.83688e-05
6.56528e-05
-0.000100612
0.000124423
-0.000136873
0.000142045
-0.000152528
0.000135907
-0.000120719
7.02698e-05
-0.000146706
8.69795e-05
-0.00013517
3.7355e-05
-8.88496e-05
-4.20845e-05
-3.53356e-05
-9.85957e-05
-2.87846e-05
-0.0001132
-2.4701e-05
-8.48447e-05
-2.50919e-05
-8.91331e-05
-1.56541e-05
-7.62528e-05
3.09513e-06
-6.79887e-05
-3.03213e-05
-2.26896e-06
3.08089e-05
2.99813e-05
3.31792e-05
0.000111649
1.73366e-05
0.00021635
2.3331e-05
0.000326196
1.29267e-05
0.000318197
2.80974e-06
0.0002273
-5.19352e-06
0.00016383
-3.53051e-06
0.000111453
-7.32662e-05
0.000135389
-0.000102108
0.000153265
-6.17511e-05
0.000101688
-7.74986e-05
0.000151654
-0.000135555
0.000128326
-0.000111849
6.32735e-05
-5.47395e-05
-1.9754e-05
-1.55788e-05
-8.12452e-05
-2.10366e-05
-9.31379e-05
-3.0245e-05
-0.000103992
-1.79352e-05
-9.71545e-05
-1.14115e-05
-9.56568e-05
-4.11498e-05
-4.65146e-05
-3.2073e-05
-7.70654e-05
-2.23561e-05
-4.00382e-05
1.78304e-05
1.21509e-05
2.2367e-05
0.000107112
9.61422e-06
0.000229102
1.99192e-05
0.000315891
2.35953e-05
0.00031452
1.06072e-05
0.000240288
-1.21217e-05
0.000186559
-7.63821e-05
0.000175713
-6.33789e-05
0.000122385
-9.06306e-05
0.000180517
-0.000160459
0.000171516
-0.000162747
0.000153943
-9.87344e-05
6.43128e-05
-6.34132e-05
2.79523e-05
-2.8358e-05
-5.48092e-05
-1.63773e-05
-9.32259e-05
-1.90013e-05
-9.05138e-05
-6.70973e-06
-0.000116283
-3.82427e-05
-6.56215e-05
-6.76299e-05
-6.62697e-05
-4.4747e-05
-6.93975e-05
-7.08103e-05
-5.10021e-05
-3.97042e-05
-5.34622e-05
2.28824e-06
9.86263e-06
-6.31834e-06
0.000115719
5.3784e-06
0.000217406
1.47528e-05
0.000306517
1.33629e-05
0.00031591
-2.0678e-05
0.000274329
-6.78066e-05
0.000233687
-3.43521e-05
0.000142259
-0.000134504
0.000222537
-0.000147899
0.000193912
-0.000151009
0.000174625
-0.000124278
0.000127212
-9.51134e-05
3.51485e-05
-2.15959e-05
-4.55652e-05
-1.14021e-05
-6.5003e-05
-7.00975e-06
-9.76183e-05
-4.94572e-07
-9.7029e-05
-4.63018e-05
-7.0476e-05
-5.01227e-05
-6.18006e-05
-5.06788e-05
-6.57136e-05
-5.82061e-05
-6.18701e-05
-5.62204e-05
-5.29879e-05
-4.55979e-05
-5.03267e-05
-2.81972e-05
3.80598e-05
-3.96696e-05
0.000127191
-2.30782e-05
0.000200814
-5.9765e-06
0.000289415
-2.01868e-05
0.000330121
-5.12222e-05
0.000305364
-0.000119185
0.00030165
-0.000134011
0.000157084
-0.000144246
0.000232773
-0.000144378
0.000194044
-0.000128093
0.00015834
-6.88247e-05
6.79436e-05
-3.77526e-05
4.07637e-06
-3.25461e-05
-5.07717e-05
-1.28848e-05
-8.46643e-05
-5.12002e-05
-5.93029e-05
-5.36068e-05
-9.46224e-05
-3.95628e-05
-8.45201e-05
-2.95274e-05
-7.18359e-05
-2.12784e-05
-7.39626e-05
-7.88e-06
-7.52686e-05
-2.41543e-05
-3.67135e-05
-5.12002e-05
-1.85521e-05
-4.53773e-05
8.34372e-05
-5.80091e-05
0.000139823
-8.02146e-05
0.00022302
-7.14317e-05
0.000280632
-6.29259e-05
0.000321615
-8.11189e-05
0.000323557
-8.54947e-05
0.000306026
-0.000182054
0.000253643
-0.000160287
0.000211006
-0.000126542
0.0001603
-8.45935e-05
0.000116391
-3.07799e-05
1.413e-05
-9.09447e-06
-1.7609e-05
-1.33221e-05
-4.65441e-05
-1.56798e-05
-8.23066e-05
2.77478e-06
-7.77575e-05
-6.09936e-06
-8.57483e-05
-2.25395e-05
-6.80799e-05
-1.57093e-05
-7.86662e-05
-1.58038e-05
-7.38681e-05
-2.1317e-05
-6.97554e-05
-2.66743e-06
-5.53631e-05
-4.40112e-05
-9.85642e-06
-7.43421e-05
0.000157779
-5.22002e-05
0.000117681
-0.000115582
0.000286401
-0.000160154
0.000325205
-0.000188323
0.000349784
-0.000202595
0.000337829
-0.000188977
0.000292409
-0.000157177
0.000221843
-0.000124682
0.000178511
-5.47987e-05
9.04166e-05
-2.64234e-05
8.80156e-05
-1.30496e-05
7.56196e-07
-8.00227e-06
-2.26564e-05
4.09288e-06
-5.86392e-05
-1.46633e-08
-7.81991e-05
-8.73147e-06
-6.90407e-05
-9.14698e-06
-8.53328e-05
-8.37999e-06
-6.88469e-05
-8.79443e-06
-7.82518e-05
-9.29015e-06
-7.33723e-05
-1.22562e-05
-6.67894e-05
-5.6504e-06
-6.19689e-05
-5.32383e-05
3.5767e-06
-5.8188e-05
0.000215967
-0.000131495
0.000190989
-0.000171959
0.000326865
-0.000196744
0.000349989
-0.000217152
0.000370192
-0.000210078
0.000330755
-7.83378e-05
0.000160668
-8.75754e-05
0.000231081
-2.62348e-05
0.00011717
-2.98078e-05
9.39897e-05
-2.38841e-05
8.20919e-05
-9.75691e-06
-1.3371e-05
3.21131e-06
-3.56246e-05
1.11023e-05
-6.65302e-05
-1.4386e-05
-5.27108e-05
-4.24175e-06
-7.91849e-05
-2.3899e-06
-8.71846e-05
-2.40359e-06
-6.88332e-05
-1.32884e-06
-7.93265e-05
-6.07244e-06
-6.86287e-05
-7.05486e-06
-6.5807e-05
6.08461e-06
-7.51084e-05
-4.16548e-05
-5.49892e-06
-6.73362e-05
0.000283304
-0.000129094
0.000252746
-0.000160792
0.000358563
-0.00017458
0.000363777
-0.000127144
0.000322756
-9.61308e-05
0.000299742
-0.000104302
0.00016884
-1.72274e-05
0.000144006
-2.6184e-05
0.000126127
-3.40038e-05
0.00010181
-2.61356e-05
7.42236e-05
-1.68563e-05
-2.26503e-05
-7.69819e-06
-4.47827e-05
5.0421e-07
-7.47326e-05
-4.35207e-06
-4.78546e-05
-1.509e-06
-8.2028e-05
-1.98948e-06
-8.67042e-05
3.92937e-06
-7.47521e-05
-1.96927e-05
-5.57044e-05
-1.61611e-05
-7.21604e-05
-1.0534e-05
-7.14341e-05
-1.31252e-05
-7.25172e-05
-7.75475e-05
2.27676e-05
-2.9192e-05
0.000312496
-0.000162877
0.000386431
-0.000169677
0.000365363
-0.000168298
0.000362399
-0.000170639
0.000325097
-4.34829e-05
0.000172585
-9.51242e-05
0.000220481
-7.60863e-05
0.000124968
-4.75238e-05
9.7564e-05
-3.76174e-05
9.19031e-05
-1.24772e-05
4.90834e-05
-3.36836e-07
-3.47907e-05
-6.09964e-06
-3.90199e-05
-1.3839e-05
-6.69932e-05
-1.5513e-06
-6.01423e-05
1.84105e-06
-8.54203e-05
-8.09515e-06
-7.6768e-05
1.36734e-07
-8.2984e-05
6.39006e-06
-6.19577e-05
-1.13512e-05
-5.44192e-05
-2.79538e-05
-5.48314e-05
-1.36367e-05
-8.68343e-05
-7.36618e-05
-1.75225e-05
-6.78786e-05
0.000380374
-0.000119871
0.000438423
-0.00013259
0.000378082
-0.000122535
0.000352344
-0.000112436
0.000314998
-8.26341e-05
0.000142783
-6.17827e-05
0.00019963
-3.88241e-05
0.000102009
-1.79381e-05
7.66779e-05
-6.24581e-05
0.000136423
-4.50444e-05
3.16696e-05
-1.19292e-05
-6.79059e-05
-2.63316e-06
-4.83159e-05
-4.43879e-06
-6.51876e-05
-3.99501e-06
-6.05861e-05
-5.0759e-06
-8.43394e-05
-1.29027e-05
-6.89411e-05
-1.14906e-05
-8.43961e-05
-1.77764e-05
-5.56719e-05
-1.07561e-05
-6.14395e-05
-1.4618e-05
-5.09696e-05
-1.0525e-05
-9.09272e-05
-6.75673e-05
-1.66195e-05
-6.92396e-05
0.000449614
-0.000101743
0.000470927
-8.71514e-05
0.000363489
-8.03297e-05
0.000345522
-4.7073e-05
0.000281741
-9.65294e-05
0.00019224
-4.28086e-05
0.000145909
-2.14015e-05
8.06023e-05
-1.56451e-05
7.09215e-05
-2.81135e-06
0.000123589
1.46988e-06
2.73884e-05
-2.84123e-06
-6.35948e-05
-6.37549e-06
-4.47817e-05
-2.72552e-05
-4.43079e-05
-1.04823e-05
-7.73589e-05
-1.59324e-05
-7.88894e-05
-1.48216e-05
-7.0052e-05
-2.64029e-05
-7.28148e-05
2.1569e-06
-8.42318e-05
-4.99921e-06
-5.42834e-05
-4.00373e-06
-5.1965e-05
-3.23158e-06
-9.16994e-05
-6.91962e-05
-1.60274e-06
-0.000124822
0.000574436
-8.62907e-05
0.000432396
-7.99414e-05
0.00035714
-6.90504e-05
0.000334631
-5.08669e-05
0.000263558
-2.4938e-05
0.000166311
-1.38075e-05
0.000134778
-4.44779e-05
0.000111273
-4.28791e-05
6.93227e-05
-1.23522e-05
9.30625e-05
-1.309e-06
1.63452e-05
-2.50123e-06
-6.24026e-05
-1.41987e-05
-3.30842e-05
-1.81901e-05
-4.03166e-05
-9.22065e-06
-8.63284e-05
-9.19381e-07
-8.71906e-05
-2.02405e-05
-5.07308e-05
-4.28275e-05
-5.02278e-05
-3.25093e-05
-9.455e-05
-4.67077e-06
-8.21219e-05
-3.01516e-06
-5.36206e-05
-5.99992e-06
-8.87146e-05
-6.77452e-05
-7.45093e-06
-5.68311e-05
0.000631266
-6.78922e-05
0.000443457
-7.66066e-05
0.000365854
-5.94755e-05
0.0003175
-5.43288e-05
0.000258411
-5.43897e-05
0.000166372
-4.84195e-05
0.000128808
-4.29058e-05
0.000105759
-6.5817e-05
9.22338e-05
-2.0247e-05
4.74925e-05
7.34327e-06
-1.12451e-05
-2.54395e-05
-2.96198e-05
-2.45374e-05
-3.39862e-05
-5.92242e-06
-5.89316e-05
-1.85056e-06
-9.04003e-05
-2.55246e-05
-6.35166e-05
-1.76814e-05
-5.85739e-05
-5.57382e-06
-6.23355e-05
-3.43209e-05
-6.5803e-05
-2.98619e-05
-8.65809e-05
-2.60927e-06
-8.08732e-05
5.54454e-06
-9.68684e-05
-4.82035e-05
-1.39971e-05
-4.42425e-05
0.000675509
-6.44894e-05
0.000463704
-6.01332e-05
0.000361498
-4.76073e-05
0.000304974
-3.7175e-05
0.000247979
-5.28791e-05
0.000182076
-5.82806e-05
0.00013421
-5.41331e-05
0.000101612
-3.76309e-05
7.57316e-05
-2.39285e-05
3.37901e-05
-1.8321e-05
-1.68526e-05
-3.63976e-05
-1.15432e-05
-1.39955e-05
-5.63884e-05
-1.59654e-05
-5.69617e-05
-1.93138e-05
-8.70518e-05
-2.91475e-05
-5.3683e-05
-1.6357e-06
-8.60857e-05
-3.94527e-06
-6.00259e-05
-1.30273e-05
-5.67209e-05
-4.57078e-06
-9.50374e-05
-4.52471e-06
-8.09193e-05
-3.58492e-05
-6.5544e-05
-5.19058e-05
-3.21469e-05
-4.48002e-05
0.00072031
-5.84497e-05
0.000477354
-4.60017e-05
0.00034905
-3.98326e-05
0.000298805
-3.43198e-05
0.000242466
-6.11835e-05
0.00020894
-6.73198e-05
0.000140346
-2.24546e-05
5.67464e-05
-3.02816e-05
8.35586e-05
-2.03275e-05
2.38361e-05
-3.14559e-05
-5.72429e-06
-1.45764e-05
-2.84227e-05
-4.14301e-05
-2.95347e-05
-2.28881e-05
-7.55036e-05
-3.36003e-05
-7.63397e-05
-1.02487e-05
-7.70346e-05
-1.41914e-05
-8.2143e-05
-2.31457e-05
-5.10717e-05
-3.25943e-06
-7.66072e-05
-7.80738e-06
-9.04895e-05
-6.8088e-06
-8.19179e-05
-1.34947e-05
-5.88581e-05
-6.5683e-05
2.82429e-07
-3.30364e-05
0.000753347
-4.1663e-05
0.000485981
-3.7897e-05
0.000345284
-4.25615e-05
0.000303469
-6.06992e-05
0.000260604
-6.35919e-05
0.000211832
-5.12892e-05
0.000128043
-9.11015e-05
9.65587e-05
-0.000101239
9.36963e-05
-8.8862e-05
1.14588e-05
-7.76479e-05
-1.69383e-05
-3.36498e-05
-7.24208e-05
-3.65928e-05
-2.65917e-05
-2.97395e-05
-8.23569e-05
-2.15877e-05
-8.44915e-05
-2.05002e-05
-7.81221e-05
-2.70688e-05
-7.55744e-05
-3.17931e-06
-7.49612e-05
-2.92089e-06
-7.68656e-05
-9.10587e-06
-8.43045e-05
-1.71988e-05
-7.3825e-05
-8.8659e-07
-7.51703e-05
-5.87315e-05
-7.83803e-06
-2.69629e-05
0.00078031
-3.03821e-05
0.0004894
-3.28065e-05
0.000347709
-4.6294e-05
0.000316957
-7.37414e-05
0.000288051
-7.12021e-05
0.000209293
-8.03707e-05
0.000137212
-0.000114282
0.00013047
-7.43492e-05
5.37639e-05
-8.3708e-05
2.08176e-05
-9.22424e-05
-8.40385e-06
-7.3454e-05
-9.12093e-05
-2.99104e-05
-7.01352e-05
-2.45901e-05
-8.76772e-05
-2.86821e-05
-8.03995e-05
-1.43751e-05
-9.24291e-05
-1.23267e-05
-7.76228e-05
-1.58949e-05
-7.13929e-05
-8.46611e-06
-8.42944e-05
-5.06815e-06
-8.77025e-05
-1.75363e-06
-7.71395e-05
-2.24254e-05
-5.44984e-05
-7.41555e-05
-7.0015e-06
-2.27407e-05
0.000803051
-2.56234e-05
0.000492282
-3.42845e-05
0.00035637
-5.70649e-05
0.000339737
-8.47341e-05
0.00031572
-7.78865e-05
0.000202445
-0.000145162
0.000204488
-0.000149081
0.000134389
-0.000155333
6.00158e-05
-0.000102505
-3.20103e-05
-8.20417e-05
-2.88676e-05
-8.18519e-05
-9.13991e-05
-4.53967e-05
-0.00010659
-3.12633e-05
-0.000101811
-1.45725e-05
-9.70904e-05
-4.52554e-05
-6.17461e-05
-2.06324e-05
-0.000102246
-8.69669e-06
-8.33286e-05
-8.78624e-06
-8.42049e-05
-1.10615e-05
-8.54272e-05
-3.49305e-06
-8.4708e-05
-3.37123e-06
-5.46203e-05
-8.06031e-05
3.07635e-06
-2.21649e-05
0.000825216
-2.75556e-05
0.000497673
-4.49492e-05
0.000373763
-6.64593e-05
0.000361247
-9.40471e-05
0.000343308
-9.84627e-05
0.000206861
-0.000132621
0.000238646
-0.000177108
0.000178876
-0.000141257
2.41651e-05
-0.000150882
-2.23855e-05
-7.04218e-05
-0.000109328
-7.82885e-05
-8.35324e-05
-3.92758e-05
-0.000145603
-6.97939e-05
-7.12926e-05
-5.06318e-05
-0.000116253
-9.01645e-06
-0.000103361
-1.79048e-06
-0.000109472
-2.25096e-05
-6.26094e-05
-1.09015e-05
-9.5813e-05
-1.04942e-05
-8.58344e-05
-1.50031e-05
-8.01991e-05
-1.39856e-06
-6.82248e-05
-7.1136e-05
-1.08657e-05
-2.0322e-05
0.000845538
-2.77089e-05
0.00050506
-5.45055e-05
0.00040056
-9.28455e-05
0.000399587
-0.000128644
0.000379107
-0.000131361
0.000209577
-0.000153335
0.00026062
-0.000193084
0.000218625
-0.00016969
7.71257e-07
-9.98725e-05
-9.22031e-05
-0.000140321
-6.88795e-05
-6.57073e-05
-0.000158146
-4.60929e-05
-0.000165217
-3.97129e-05
-7.76726e-05
-2.8574e-05
-0.000127391
-2.08587e-05
-0.000111077
-1.83427e-05
-0.000111988
1.7332e-05
-9.82841e-05
-1.19373e-05
-6.65437e-05
-8.52401e-06
-8.92477e-05
2.15916e-06
-9.08823e-05
2.33594e-06
-6.84016e-05
-7.72899e-05
8.48988e-06
-2.36435e-05
0.00086918
-4.46643e-05
0.00052608
-8.83447e-05
0.00044424
-0.000128681
0.000439924
-0.000139745
0.000390171
-0.000200461
0.000270293
-0.000243262
0.000303421
-0.000246843
0.000222205
-0.000224052
-2.20192e-05
-0.000179831
-0.000136425
-7.09129e-05
-0.000177797
-5.55473e-05
-0.000173511
-4.20752e-05
-0.000178689
-4.23447e-05
-7.74031e-05
-2.71425e-05
-0.000142594
-1.53703e-05
-0.000122849
-1.23048e-05
-0.000115053
-1.89122e-05
-9.16767e-05
1.52595e-05
-0.000100715
1.62422e-05
-9.02305e-05
-7.7379e-06
-6.69021e-05
-5.80637e-06
-7.03331e-05
-5.5352e-05
-2.77443e-05
-2.61271e-05
0.000895308
-5.32885e-05
0.00055324
-0.000107963
0.000498914
-0.000132773
0.000464734
-0.000123176
0.000380573
-0.00020774