/*--------------------------------*- C++ -*----------------------------------*\
| =========                 |                                                 |
| \\      /  F ield         | foam-extend: Open Source CFD                    |
|  \\    /   O peration     | Version:     4.1                                |
|   \\  /    A nd           | Web:         http://www.foam-extend.org         |
|    \\/     M anipulation  |                                                 |
\*---------------------------------------------------------------------------*/
FoamFile
{
    version     2.0;
    format      ascii;
    class       surfaceScalarField;
    location    "1";
    object      phi_0;
}
// * * * * * * * * * * * * * * * * * * * * * * * * * * * * * * * * * * * * * //

dimensions      [0 3 -1 0 0 0 0];

internalField   nonuniform List<scalar> 
4432
(
-1.31469e-05
1.31469e-05
-4.20675e-05
2.89207e-05
-4.06983e-05
-1.36927e-06
-3.72845e-05
-3.41372e-06
-1.35007e-05
-2.37839e-05
-3.52106e-06
-9.97962e-06
-1.87118e-05
1.51907e-05
-2.35151e-05
4.80336e-06
-8.82983e-06
-1.46853e-05
-1.62478e-05
7.41793e-06
-1.53742e-05
-8.7356e-07
-1.53557e-05
-1.85403e-08
-9.07259e-06
-6.28308e-06
-7.39472e-07
-8.33311e-06
2.33326e-06
-3.07274e-06
7.52219e-06
-5.18893e-06
9.0403e-06
-1.51811e-06
6.27205e-06
2.76825e-06
2.30613e-06
3.96592e-06
1.29462e-07
2.17666e-06
2.24256e-06
-2.1131e-06
1.55633e-06
6.86233e-07
1.55633e-06
-1.38804e-05
2.70272e-05
-2.95089e-05
4.45492e-05
-3.09992e-05
1.20993e-07
-5.5262e-05
2.08491e-05
-5.6076e-05
-2.29698e-05
-5.06261e-05
-1.54295e-05
-2.98397e-05
-5.59568e-06
-2.3982e-05
-1.05434e-06
-3.20896e-05
-6.57776e-06
-1.26495e-05
-1.20221e-05
-1.97303e-05
6.20724e-06
-9.73189e-06
-1.0017e-05
-1.18543e-05
-4.1607e-06
-2.10196e-06
-1.80854e-05
2.42917e-06
-7.60386e-06
3.90558e-06
-6.66534e-06
4.50562e-06
-2.11815e-06
7.59655e-06
-3.2267e-07
3.77636e-06
7.7861e-06
2.33247e-06
3.62056e-06
1.9762e-06
-1.75684e-06
1.56589e-06
1.09654e-06
3.12222e-06
-3.8519e-05
6.55462e-05
-3.04702e-05
3.65003e-05
-5.65945e-05
2.62453e-05
-6.07765e-05
2.50311e-05
-5.77505e-05
-2.59958e-05
-5.27128e-05
-2.04673e-05
-2.89665e-05
-2.93419e-05
-1.84191e-05
-1.16018e-05
-2.43112e-05
-6.85702e-07
-2.27955e-05
-1.35378e-05
-2.29033e-05
6.31499e-06
-1.11362e-05
-2.17841e-05
-2.2658e-06
-1.30311e-05
6.12985e-06
-2.64811e-05
6.63967e-06
-8.11368e-06
2.70559e-06
-2.73127e-06
7.61498e-06
-7.02753e-06
4.56325e-06
2.72906e-06
4.47136e-06
7.878e-06
4.66318e-06
3.42873e-06
1.76174e-06
1.14461e-06
1.10663e-06
1.75165e-06
4.22885e-06
-1.88525e-05
8.43987e-05
-2.41716e-05
4.18195e-05
-5.15423e-05
5.3616e-05
-3.49557e-05
8.44458e-06
-6.11907e-05
2.39187e-07
-6.02794e-05
-2.13786e-05
-3.71066e-05
-5.25147e-05
-2.78661e-05
-2.08422e-05
-1.67274e-05
-1.18245e-05
-2.04563e-05
-9.80881e-06
-1.54357e-05
1.29439e-06
-1.21656e-05
-2.50543e-05
1.22939e-06
-2.6426e-05
2.19877e-05
-4.72394e-05
9.52458e-06
4.34944e-06
3.55272e-06
3.2406e-06
5.53699e-06
-9.0118e-06
7.0042e-06
1.26185e-06
4.01251e-06
1.08697e-05
4.05619e-06
3.38505e-06
1.67776e-06
3.52304e-06
2.90767e-07
3.13865e-06
4.51962e-06
-1.63529e-05
0.000100752
-4.18472e-05
6.73138e-05
-5.29158e-05
6.46846e-05
-6.07347e-05
1.62635e-05
-5.45136e-05
-5.98194e-06
-5.38395e-05
-2.20527e-05
-6.60348e-05
-4.03194e-05
-5.67279e-05
-3.01491e-05
-3.6836e-05
-3.17164e-05
-1.88061e-05
-2.78388e-05
-1.73733e-05
-1.38409e-07
-1.27657e-05
-2.96618e-05
-2.12267e-06
-3.70691e-05
1.11105e-05
-6.04725e-05
6.84748e-06
8.61242e-06
3.50239e-06
6.58569e-06
6.27452e-06
-1.17839e-05
4.34117e-06
3.19519e-06
3.64905e-06
1.15618e-05
7.2523e-07
6.30887e-06
-5.74129e-07
4.82239e-06
-7.99612e-07
3.36413e-06
3.72001e-06
-1.09734e-05
0.000111725
-4.2859e-05
9.91994e-05
-5.2691e-05
7.45166e-05
-5.15317e-05
1.51042e-05
-4.64273e-05
-1.10863e-05
-4.81954e-05
-2.02846e-05
-3.22799e-05
-5.62349e-05
-3.67594e-05
-2.56696e-05
-2.64487e-05
-4.20271e-05
-2.72967e-05
-2.69907e-05
-1.30062e-05
-1.4429e-05
-6.87106e-06
-3.57969e-05
-9.20348e-06
-3.47367e-05
5.15698e-06
-7.4833e-05
4.99362e-06
8.77578e-06
8.44751e-06
3.13181e-06
1.04726e-05
-1.38091e-05
8.33048e-06
5.33735e-06
5.50474e-06
1.43875e-05
3.38053e-07
1.14756e-05
3.79628e-07
4.78082e-06
-5.79947e-07
4.32371e-06
3.14006e-06
-1.7982e-05
0.000129707
-3.19581e-05
0.000113176
-4.55888e-05
8.81473e-05
-4.84699e-05
1.79853e-05
-4.65266e-05
-1.30296e-05
-4.64851e-05
-2.0326e-05
-5.49509e-05
-4.77692e-05
-3.18273e-05
-4.87932e-05
-4.8822e-05
-2.50323e-05
-3.6673e-05
-3.91397e-05
-1.28241e-05
-3.82779e-05
-6.10648e-06
-4.25146e-05
-1.16855e-05
-2.91576e-05
-1.2228e-06
-8.52957e-05
1.75648e-06
5.7965e-06
1.16706e-05
-6.7823e-06
7.75681e-06
-9.89528e-06
4.80447e-06
8.28969e-06
-1.74645e-06
2.09385e-05
-4.99025e-06
1.47194e-05
-4.52341e-06
4.31398e-06
-3.81289e-06
3.61319e-06
-6.72826e-07
-1.47804e-05
0.000144487
-2.96949e-05
0.00012809
-4.47573e-05
0.00010321
-5.12737e-05
2.45016e-05
-5.0359e-05
-1.39443e-05
-2.58065e-05
-4.48786e-05
-5.39504e-05
-1.96253e-05
-3.08368e-05
-7.19068e-05
-4.11692e-05
-1.46999e-05
-1.67777e-05
-6.35312e-05
-1.60819e-05
-3.89736e-05
-7.14231e-06
-5.14542e-05
-1.52015e-05
-2.10984e-05
-5.25256e-06
-9.52446e-05
4.24185e-06
-3.69791e-06
9.93658e-06
-1.2477e-05
2.23425e-05
-2.23012e-05
1.25573e-05
1.80749e-05
-2.14374e-06
3.56395e-05
-8.65035e-06
2.1226e-05
-1.21273e-06
-3.12364e-06
6.03359e-06
-3.63314e-06
5.36077e-06
-6.78713e-05
6.78713e-05
-9.33375e-05
2.54663e-05
-0.000114117
2.0779e-05
-0.00012732
1.32039e-05
-0.000123394
-3.9267e-06
-0.000121075
-2.31907e-06
-0.000118385
-2.6901e-06
-6.87341e-05
-4.96506e-05
-6.33303e-05
-5.40376e-06
-5.55553e-05
-7.77499e-06
-5.33715e-05
-2.18383e-06
-8.64376e-05
3.30661e-05
-7.14837e-05
-1.49539e-05
-6.18034e-05
-9.68029e-06
-5.11441e-05
-1.06593e-05
-4.68202e-05
-4.32393e-06
-2.08635e-05
-2.59566e-05
-2.15575e-05
6.93964e-07
-2.15575e-05
-2.50869e-05
9.29582e-05
-6.97768e-05
7.01562e-05
-9.17646e-05
4.27669e-05
-5.98813e-05
-1.86794e-05
-0.000104434
4.06265e-05
-0.000104442
-2.31187e-06
-6.06947e-05
-4.64371e-05
-6.50321e-05
-4.53132e-05
-5.85488e-05
-1.1887e-05
-9.04636e-05
2.41398e-05
-8.67374e-05
-5.91002e-06
-3.68107e-05
-1.68606e-05
-4.35904e-05
-8.17422e-06
-3.38261e-05
-1.94446e-05
-1.46002e-05
-2.98852e-05
-2.38637e-05
4.93954e-06
-2.33006e-05
-2.65197e-05
-1.43497e-05
-8.25689e-06
-3.59072e-05
-2.67666e-05
0.000119725
-3.23024e-05
7.5692e-05
-2.1857e-05
3.23214e-05
-4.21405e-05
1.60412e-06
-6.95912e-05
6.80772e-05
-5.41211e-05
-1.77819e-05
-6.55943e-05
-3.4964e-05
-7.8687e-05
-3.22205e-05
-7.14562e-05
-1.91178e-05
-4.97664e-05
2.44996e-06
-3.42791e-05
-2.13974e-05
-2.83273e-05
-2.28123e-05
-5.25672e-06
-3.12448e-05
4.54853e-06
-2.92499e-05
-5.32876e-06
-2.00079e-05
-1.07493e-05
1.036e-05
-6.13377e-06
-3.11352e-05
-6.90414e-06
-7.48653e-06
-4.28114e-05
-2.01167e-05
0.000139842
-3.3369e-05
8.89442e-05
-5.68652e-05
5.58176e-05
-8.62746e-05
3.10135e-05
-3.53264e-05
1.7129e-05
-3.96099e-05
-1.34985e-05
-3.18154e-05
-4.27585e-05
-1.67485e-05
-4.72874e-05
-1.93327e-05
-1.65335e-05
-3.86174e-06
-1.30211e-05
-5.00788e-06
-2.02512e-05
3.27786e-06
-3.10981e-05
1.86327e-05
-4.65996e-05
1.2779e-05
-2.33962e-05
1.13094e-05
-1.85383e-05
1.20289e-05
9.64047e-06
1.54449e-06
-2.06508e-05
1.59298e-07
-6.10133e-06
-4.26521e-05
-2.2026e-05
0.000161867
-4.06398e-05
0.000107558
-5.55215e-05
7.06993e-05
-3.61847e-05
1.16767e-05
-4.32266e-05
2.41709e-05
-2.10429e-05
-3.56822e-05
-8.81635e-06
-5.4985e-05
-2.05028e-05
-3.56009e-05
5.83977e-06
-4.28761e-05
1.87331e-05
-2.59144e-05
1.46492e-05
-1.61673e-05
1.22278e-05
-2.86767e-05
1.64464e-05
-5.08182e-05
3.48705e-05
-4.18203e-05
1.86838e-05
-2.35148e-06
2.68825e-05
1.44171e-06
1.11588e-05
-4.92708e-06
1.32255e-05
-8.16797e-06
-2.94266e-05
-2.39487e-05
0.000185816
-4.51924e-05
0.000128802
-4.74432e-05
7.29501e-05
-4.56087e-05
9.84209e-06
-2.61486e-05
4.71093e-06
-1.58732e-05
-4.59576e-05
-1.55601e-05
-5.52981e-05
-2.60134e-06
-4.85597e-05
7.03513e-06
-5.25125e-05
2.9806e-05
-4.86853e-05
1.92683e-05
-5.62958e-06
3.29962e-05
-4.24046e-05
3.79094e-05
-5.57314e-05
4.11558e-05
-4.50667e-05
2.12128e-05
1.75915e-05
3.32302e-05
-1.05757e-05
1.48483e-05
1.34548e-05
8.6006e-06
-1.92023e-06
-2.0826e-05
-5.44256e-05
0.000240242
-6.10387e-05
0.000135415
-5.00401e-05
6.19515e-05
-2.29598e-05
-1.72382e-05
-1.42585e-05
-3.99039e-06
-1.48785e-05
-4.53376e-05
-1.15523e-05
-5.86244e-05
2.61286e-07
-6.03733e-05
5.32449e-06
-5.75757e-05
2.65251e-05
-6.98859e-05
2.18764e-05
-9.80813e-07
3.74425e-05
-5.79707e-05
4.11687e-05
-5.94576e-05
4.05429e-05
-4.4441e-05
3.78809e-05
2.02535e-05
3.25942e-05
-5.28894e-06
1.41023e-05
3.19467e-05
8.35614e-06
3.82588e-06
-1.24698e-05
-7.46213e-05
0.000314863
-9.07964e-05
0.00015159
-3.40813e-05
5.23644e-06
-3.55836e-05
-1.57359e-05
-2.46319e-05
-1.4942e-05
-1.82736e-05
-5.16958e-05
-3.06018e-06
-7.38379e-05
7.64639e-07
-6.41981e-05
6.59524e-06
-6.34063e-05
2.17099e-05
-8.50006e-05
3.8166e-05
-1.7437e-05
3.66255e-05
-5.64302e-05
2.21939e-05
-4.5026e-05
2.0997e-05
-4.32441e-05
3.19363e-05
9.31409e-06
2.70688e-05
-4.21432e-07
2.25554e-05
3.64602e-05
7.75444e-06
1.86268e-05
-4.71541e-06
-4.72565e-06
0.000149213
-3.34476e-05
0.000156812
-3.73906e-05
0.000107153
-7.51117e-05
6.22228e-05
-8.04228e-05
-8.63323e-06
-0.000108278
-1.70235e-05
-7.45077e-05
-5.33954e-05
-0.000122059
-2.43558e-05
-9.35112e-05
-4.32474e-05
-7.75588e-05
-7.94836e-05
-3.35412e-05
-8.29913e-05
-2.1616e-05
-6.33794e-05
-2.55676e-05
-1.71468e-05
-6.46567e-05
-5.61555e-05
-3.57128e-05
-3.26418e-05
-1.421e-05
-3.39798e-05
5.2925e-06
-4.18037e-05
1.66242e-05
6.74315e-06
4.19235e-05
1.03402e-05
5.75602e-05
5.58925e-06
5.42492e-05
1.87344e-07
5.03742e-06
4.55787e-05
6.13524e-05
-5.09542e-05
3.56996e-06
0.000145643
1.66542e-06
0.000158716
-1.11363e-05
0.000119954
-2.90634e-05
8.01499e-05
-3.67071e-05
-9.89533e-07
-2.63874e-05
-2.73433e-05
-5.75351e-05
-2.22477e-05
-5.96778e-05
-2.2213e-05
-5.22513e-05
-5.0674e-05
-0.000102909
-2.88259e-05
-0.000113132
-7.27683e-05
-0.000121922
-5.45894e-05
-7.84115e-05
-6.06572e-05
-0.000105917
-2.86504e-05
-9.04283e-05
-4.81301e-05
-9.60129e-05
-2.83953e-05
-9.11293e-05
-4.66873e-05
-8.29635e-05
-1.42258e-06
-7.55554e-05
2.9321e-06
-6.34409e-05
-6.52526e-06
-9.297e-05
2.97164e-05
-8.27452e-05
3.53539e-05
0.000132443
-0.000153836
1.03961e-07
0.000145539
3.40633e-06
0.000155414
2.42451e-05
9.91157e-05
9.18416e-06
9.52108e-05
-3.33262e-06
1.15272e-05
-2.38748e-05
-6.80102e-06
-3.38667e-05
-1.22558e-05
-5.10895e-05
-4.99018e-06
-6.88098e-05
-3.29538e-05
-6.812e-05
-2.95157e-05
-0.000116721
-2.41671e-05
-0.000125238
-4.60724e-05
-0.000141462
-4.44337e-05
-0.000140087
-3.00255e-05
-0.000156283
-3.19332e-05
-0.000151232
-3.34468e-05
-0.00015227
-4.56493e-05
-0.000171127
1.74349e-05
-0.000200422
3.22269e-05
-0.000198218
-8.72983e-06
-0.000201504
3.30031e-05
-0.000208769
4.26185e-05
0.000120597
-0.000196923
1.16836e-05
0.000133855
1.56188e-05
0.000151479
-3.06729e-06
0.000117802
-1.5261e-05
0.000107404
-3.91743e-05
3.54406e-05
-6.53221e-05
1.93467e-05
-9.39872e-05
1.64093e-05
-0.000111563
1.25853e-05
-0.00010775
-3.67663e-05
-0.000122385
-1.48808e-05
-0.000121605
-2.49473e-05
-0.000134413
-3.32647e-05
-0.000150625
-2.82211e-05
-0.000140494
-4.01571e-05
-0.000153384
-1.90424e-05
-0.000158053
-2.87784e-05
-0.000165053
-3.86492e-05
-0.000131594
-1.60241e-05
-0.000149642
5.02751e-05
-0.000216332
5.79597e-05
-0.000207117
2.37888e-05
-0.00022751
6.30108e-05
3.28072e-05
-0.00013972
3.13171e-06
0.000130724
2.85239e-05
0.000126087
8.79181e-06
0.000137534
-8.74045e-06
0.000124937
-5.40988e-05
8.0799e-05
-7.46417e-05
3.98896e-05
-0.000102759
4.45267e-05
-8.21959e-05
-7.97787e-06
-0.000125761
6.79877e-06
-0.000126787
-1.38544e-05
-0.000142706
-9.02892e-06
-0.000124864
-5.1107e-05
-0.000121876
-3.12091e-05
-0.000152465
-9.56729e-06
-0.000125084
-4.64234e-05
-0.000126436
-2.74265e-05
-0.000188001
2.29155e-05
-0.000211673
7.64835e-06
-0.000167242
5.84314e-06
-0.000144313
3.50308e-05
-0.000190686
7.01623e-05
-0.000178821
5.11461e-05
4.22998e-05
-0.000188314
1.94835e-06
0.000128775
-1.54769e-05
0.000143512
-2.21875e-05
0.000144244
-4.40377e-05
0.000146787
-3.90535e-05
7.58148e-05
-5.21037e-05
5.29398e-05
-3.72731e-05
2.9696e-05
-5.33609e-05
8.11e-06
-8.78139e-05
4.12517e-05
-9.35763e-05
-8.092e-06
-6.64566e-05
-3.61486e-05
-8.49787e-05
-3.25849e-05
-9.64613e-05
-1.97266e-05
-9.01155e-05
-1.59131e-05
-0.000123994
-1.25445e-05
-0.000202384
5.09636e-05
-0.000209276
2.9807e-05
-0.000221761
2.01335e-05
-0.00022963
1.37117e-05
-0.000242082
4.74834e-05
-0.000227632
5.57125e-05
-0.000202179
2.56923e-05
2.93745e-05
-0.000189253
6.3226e-06
0.000122453
-5.07473e-05
0.000200582
-5.02057e-05
0.000143703
-6.72969e-06
0.000103311
-3.30162e-05
0.000102101
-0.000102495
0.000122419
-9.79438e-05
2.51447e-05
-0.000105299
1.54652e-05
-9.99552e-05
3.5908e-05
-7.5834e-05
-3.22132e-05
-9.25629e-05
-1.94197e-05
-0.000142437
1.72889e-05
-0.000183138
2.09747e-05
-0.000214643
1.5592e-05
-0.000236024
8.83634e-06
-0.000218797
3.37367e-05
-0.000230054
4.10638e-05
-0.000242926
3.3006e-05
-0.000251251
2.20369e-05
-0.000235202
3.14342e-05
-0.000209497
3.00073e-05
-0.000196343
1.25384e-05
5.67513e-06
-0.000172644
-1.51834e-05
0.000137636
-9.22218e-06
0.000194621
-1.73842e-05
0.000151865
-3.24855e-05
0.000118412
-4.46689e-05
0.000114285
-5.44647e-05
0.000132214
-9.21064e-05
6.27865e-05
-0.000103428
2.67868e-05
-7.87898e-05
1.12697e-05
-0.000134517
2.35136e-05
-0.000161694
7.75756e-06
-0.000170657
2.62518e-05
-0.000202691
5.30088e-05
-0.000222557
3.54576e-05
-0.000229257
1.55369e-05
-0.000244989
4.94684e-05
-0.000238446
3.4521e-05
-0.000223246
1.78057e-05
-0.000210972
9.76305e-06
-0.000193976
1.4438e-05
-0.000177338
1.33698e-05
-0.000174722
9.92182e-06
3.70928e-06
-0.000172756
1.58182e-05
0.000121818
6.45624e-05
0.000145877
3.39048e-06
0.000213037
-1.57059e-05
0.000137509
-9.4688e-05
0.000193267
-7.46609e-05
0.000112187
-0.000117366
0.000105492
-0.000122712
3.21326e-05
-0.000132111
2.06683e-05
-0.000148668
4.00712e-05
-0.000154293
1.33822e-05
-0.000179288
5.12471e-05
-0.00014608
1.98005e-05
-0.000145093
3.44711e-05
-0.00021606
8.65039e-05
-0.000218663
5.20712e-05
-0.000204913
2.07706e-05
-0.000186566
-5.40935e-07
-0.000178172
1.36893e-06
-0.000171693
7.95882e-06
-0.000177646
1.93228e-05
-0.000188448
2.07241e-05
1.06139e-05
-0.000195353
-1.86438e-06
0.000123682
1.27167e-06
0.00014274
-3.88391e-07
0.000214697
-4.21021e-05
0.000179222
-5.25396e-05
0.000203704
-9.55469e-05
0.000155195
-5.63021e-05
6.6247e-05
-0.000112135
8.79658e-05
-0.000113755
2.22878e-05
-0.000109931
3.62474e-05
-0.000135477
3.89287e-05
-0.000104206
1.99759e-05
-0.000129869
4.54637e-05
-0.000204922
0.000109523
-0.000204355
8.59367e-05
-0.000198727
4.6444e-05
-0.000181904
3.94676e-06
-0.000172964
-9.48071e-06
-0.000162559
-9.03613e-06
-0.00015
-4.60007e-06
-0.000135388
4.71101e-06
-0.000125808
1.11445e-05
1.94842e-07
-0.000115389
8.30168e-06
0.000115381
-3.75519e-05
0.000188594
2.45508e-05
0.000152594
-7.10467e-06
0.000210878
-3.9179e-05
0.000235779
-8.81642e-05
0.00020418
-0.000101535
7.96182e-05
-0.000115528
0.000101958
-0.000112566
1.9326e-05
-7.75236e-05
1.20498e-06
-8.7559e-05
4.89641e-05
-0.000151777
8.41937e-05
-0.000183937
7.76236e-05
-0.000117473
4.306e-05
-0.000106619
7.50826e-05
-0.000104508
4.43325e-05
-0.000150387
4.98263e-05
-0.000150027
-9.84069e-06
-0.000100662
-5.84018e-05
-7.65951e-05
-2.86667e-05
-6.90414e-05
-2.84271e-06
-5.18079e-05
-6.08891e-06
-1.40356e-05
-3.75775e-05
6.52842e-06
0.000108852
3.84213e-05
0.000156701
5.50426e-05
0.000135973
-3.42376e-05
0.000300158
-4.31247e-05
0.000244666
-7.11807e-05
0.000232236
-8.0392e-05
8.88295e-05
-5.25056e-05
7.40716e-05
-6.5447e-05
3.22674e-05
-5.68785e-05
-7.36343e-06
-7.80357e-05
7.01212e-05
-8.95753e-05
9.57333e-05
-9.71646e-05
8.52129e-05
-0.000162877
0.000108773
-0.00016259
7.47954e-05
-0.000150198
3.194e-05
-0.000122757
2.23855e-05
-7.50795e-05
-5.7518e-05
-7.26341e-05
-6.08472e-05
-6.44709e-05
-3.68299e-05
-3.52421e-05
-3.20716e-05
-9.10562e-06
-3.22254e-05
-2.75477e-05
4.40644e-06
2.55292e-05
8.33231e-05
4.82998e-05
0.000133931
3.78447e-06
0.000180488
-1.08044e-05
0.000314747
-3.85447e-05
0.000272406
-2.68697e-05
0.000220561
-8.18729e-05
0.000143833
-5.63988e-05
4.85975e-05
-5.62023e-05
3.20709e-05
-0.000116733
5.31671e-05
-0.00013672
9.01088e-05
-0.000144821
0.000103834
-0.000153793
9.41849e-05
-0.000102195
5.71747e-05
-8.25007e-05
5.51011e-05
-0.000128284
7.77236e-05
-9.42144e-05
-1.16844e-05
-5.39175e-05
-9.78149e-05
-4.9063e-05
-6.57017e-05
-2.54095e-05
-6.04834e-05
9.59866e-07
-5.84409e-05
2.60303e-05
-5.72958e-05
-2.1693e-05
2.01757e-05
2.15084e-06
8.11723e-05
1.42748e-05
0.000121807
9.76832e-06
0.000184995
-5.91106e-06
0.000330426
-3.06205e-05
0.000297116
-2.70576e-05
0.000216998
-3.16318e-05
0.000148407
-5.56435e-05
7.26093e-05
-7.01106e-05
4.6538e-05
-0.000109808
9.28643e-05
-0.000126119
0.00010642
-0.000143298
0.000121013
-0.000151956
0.000102843
-0.00015664
6.18587e-05
-0.000151631
5.00921e-05
-7.92775e-05
5.36979e-06
-4.84875e-05
-4.24744e-05
-4.14857e-05
-0.000104817
-2.53946e-05
-8.17927e-05
4.65416e-06
-9.05321e-05
1.36973e-05
-6.74841e-05
6.26624e-06
-4.98648e-05
-3.6233e-05
2.08062e-05
2.19258e-05
5.92464e-05
3.14689e-05
0.000112264
1.60917e-05
0.000200372
1.46828e-05
0.000331835
3.05603e-06
0.000308742
1.92905e-06
0.000218125
-6.56374e-06
0.0001569
-4.8119e-05
0.000114165
-6.80849e-05
6.65038e-05
-0.000100722
0.000125501
-0.000137436
0.000143135
-0.000153481
0.000137058
-0.00012152
7.08815e-05
-0.000147958
8.82974e-05
-0.000137492
3.96254e-05
-9.1433e-05
-4.06889e-05
-3.62962e-05
-9.76111e-05
-2.76317e-05
-0.000113481
-2.41774e-05
-8.52469e-05
-2.51863e-05
-8.95232e-05
-1.58219e-05
-7.68485e-05
2.90526e-06
-6.85919e-05
-3.07675e-05
-2.56022e-06
3.03537e-05
2.88928e-05
3.23919e-05
0.000110225
1.68203e-05
0.000215943
2.30764e-05
0.000325579
1.30467e-05
0.000318772
3.03801e-06
0.000228134
-5.61959e-06
0.000165557
-3.52012e-06
0.000112065
-7.36462e-05
0.00013663
-0.00010271
0.000154565
-6.21743e-05
0.000102599
-7.81768e-05
0.00015306
-0.00013673
0.000129434
-0.000113304
6.48713e-05
-5.6286e-05
-1.73922e-05
-1.64121e-05
-8.05628e-05
-2.09137e-05
-9.31095e-05
-3.04522e-05
-0.000103943
-1.79725e-05
-9.77266e-05
-1.13215e-05
-9.61742e-05
-4.12359e-05
-4.69342e-05
-3.20748e-05
-7.7753e-05
-2.26351e-05
-4.02072e-05
1.75443e-05
1.13484e-05
2.15856e-05
0.000106184
8.93634e-06
0.000228592
1.94266e-05
0.000315089
2.32993e-05
0.000314899
1.05164e-05
0.000240916
-1.23994e-05
0.000188473
-7.77894e-05
0.000177455
-6.4476e-05
0.000123316
-9.18408e-05
0.00018193
-0.000162031
0.00017279
-0.00016421
0.000155239
-0.000100051
6.52754e-05
-6.5427e-05
3.02477e-05
-2.91164e-05
-5.37029e-05
-1.63039e-05
-9.33752e-05
-1.89844e-05
-9.0429e-05
-6.57462e-06
-0.000116353
-3.82672e-05
-6.6034e-05
-6.77839e-05
-6.66575e-05
-4.48596e-05
-6.98584e-05
-7.11414e-05
-5.14713e-05
-3.99787e-05
-5.37977e-05
1.46311e-06
9.8853e-06
-7.62305e-06
0.00011527
4.96566e-06
0.000216004
1.42518e-05
0.000305803
1.18765e-05
0.000317275
-2.30997e-05
0.000275893
-7.00013e-05
0.000235375
-3.56067e-05
0.000143061
-0.00013655
0.00022426
-0.000149685
0.000195064
-0.000152585
0.00017569
-0.000125518
0.000128171
-9.61398e-05
3.58977e-05
-2.23229e-05
-4.35693e-05
-1.12959e-05
-6.47299e-05
-7.25107e-06
-9.742e-05
-5.27821e-07
-9.71522e-05
-4.62081e-05
-7.06724e-05
-5.01828e-05
-6.20593e-05
-5.08379e-05
-6.60024e-05
-5.84769e-05
-6.22195e-05
-5.65878e-05
-5.33604e-05
-4.59001e-05
-5.06664e-05
-2.94276e-05
3.93129e-05
-4.27613e-05
0.000128604
-2.60528e-05
0.000199295
-8.66884e-06
0.000288419
-2.31385e-05
0.000331744
-5.4031e-05
0.000306785
-0.000122108
0.000303451
-0.000136732
0.000157685
-0.00014653
0.000234058
-0.000146057
0.000194591
-0.000129295
0.000158928
-7.01139e-05
6.89903e-05
-4.01575e-05
5.94126e-06
-3.374e-05
-4.99867e-05
-1.32256e-05
-8.52443e-05
-5.14462e-05
-5.91994e-05
-5.38396e-05
-9.47587e-05
-3.97968e-05
-8.47152e-05
-2.98131e-05
-7.2043e-05
-2.15915e-05
-7.4224e-05
-8.0627e-06
-7.57483e-05
-2.45073e-05
-3.69157e-05
-5.16301e-05
-1.87774e-05
-4.62868e-05
8.55997e-05
-5.96157e-05
0.000141933
-8.41404e-05
0.00022382
-7.69029e-05
0.000281181
-6.64911e-05
0.000321332
-8.34408e-05
0.000323735
-8.73202e-05
0.000307331
-0.000183896
0.00025426
-0.000161668
0.000211831
-0.000127644
0.000160567
-8.56825e-05
0.000116967
-3.20172e-05
1.5325e-05
-9.93057e-06
-1.61454e-05
-1.34031e-05
-4.65142e-05
-1.60995e-05
-8.25479e-05
2.39686e-06
-7.76958e-05
-6.43708e-06
-8.59248e-05
-2.28618e-05
-6.82905e-05
-1.59453e-05
-7.89595e-05
-1.59932e-05
-7.41761e-05
-2.15451e-05
-7.01964e-05
-2.77332e-06
-5.56875e-05
-4.43839e-05
-1.00194e-05
-7.54625e-05
0.000161062
-5.30882e-05
0.000119558
-0.000118265
0.000288997
-0.000163592
0.000326508
-0.000191926
0.000349666
-0.000204863
0.000336672
-0.000190561
0.000293029
-0.000158435
0.000222134
-0.000125543
0.000178938
-5.56195e-05
9.06433e-05
-2.77501e-05
8.90978e-05
-1.42797e-05
1.85453e-06
-8.48989e-06
-2.19352e-05
3.69811e-06
-5.87022e-05
-5.86225e-07
-7.82635e-05
-9.05924e-06
-6.92228e-05
-9.33147e-06
-8.56526e-05
-8.55646e-06
-6.90655e-05
-8.97314e-06
-7.85428e-05
-9.43586e-06
-7.37134e-05
-1.24889e-05
-6.71433e-05
-5.8285e-06
-6.23478e-05
-5.35676e-05
3.35514e-06
-5.88893e-05
0.000219952
-0.000132601
0.00019327
-0.00017324
0.000329636
-0.000197861
0.000351129
-0.000218157
0.000369962
-0.000209821
0.000328336
-7.8163e-05
0.000161371
-8.78246e-05
0.000231795
-2.67742e-05
0.000117888
-3.06542e-05
9.45233e-05
-2.50441e-05
8.34877e-05
-1.05484e-05
-1.26411e-05
2.79318e-06
-3.52768e-05
1.0832e-05
-6.67411e-05
-1.46682e-05
-5.27633e-05
-4.4293e-06
-7.94616e-05
-2.55976e-06
-8.75221e-05
-2.61365e-06
-6.90116e-05
-1.49104e-06
-7.96654e-05
-6.21658e-06
-6.89878e-05
-7.21255e-06
-6.61474e-05
5.97543e-06
-7.55358e-05
-4.1952e-05
-5.64012e-06
-6.7827e-05
0.000287779
-0.000129815
0.000255258
-0.000161137
0.000360958
-0.000175297
0.00036529
-0.000127773
0.000322438
-9.7169e-05
0.000297732
-0.000104581
0.000168783
-1.74324e-05
0.000144646
-2.65011e-05
0.000126957
-3.46121e-05
0.000102634
-2.69181e-05
7.57937e-05
-1.733e-05
-2.22292e-05
-7.93268e-06
-4.46741e-05
2.48299e-07
-7.4922e-05
-4.66134e-06
-4.78537e-05
-1.6954e-06
-8.24275e-05
-2.23254e-06
-8.69849e-05
3.84505e-06
-7.50892e-05
-1.98757e-05
-5.59446e-05
-1.63457e-05
-7.25178e-05
-1.07236e-05
-7.17695e-05
-1.336e-05
-7.28995e-05
-7.81129e-05
2.28009e-05
-2.92623e-05
0.000317041
-0.000163512
0.000389507
-0.000169519
0.000366965
-0.000167378
0.000363149
-0.000169039
0.000324098
-4.34381e-05
0.000172131
-9.5516e-05
0.000220861
-7.62229e-05
0.000125353
-4.74367e-05
9.81706e-05
-3.76001e-05
9.27976e-05
-1.26444e-05
5.0838e-05
-4.62551e-07
-3.44111e-05
-6.16912e-06
-3.89675e-05
-1.40456e-05
-6.70455e-05
-1.72649e-06
-6.01728e-05
1.6562e-06
-8.58102e-05
-8.29573e-06
-7.7033e-05
1.9578e-08
-8.34045e-05
6.2679e-06
-6.21929e-05
-1.15971e-05
-5.46528e-05
-2.82826e-05
-5.5084e-05
-1.38128e-05
-8.73692e-05
-7.41315e-05
-1.77942e-05
-6.75949e-05
0.000384636
-0.000119253
0.000441165
-0.000131412
0.000379124
-0.000120773
0.00035251
-0.000111562
0.000314886
-8.27144e-05
0.000143283
-6.1759e-05
0.000199906
-3.86603e-05
0.000102254
-1.76403e-05
7.71506e-05
-6.2578e-05
0.000137735
-4.51862e-05
3.34463e-05
-1.22311e-05
-6.73662e-05
-3.10663e-06
-4.80919e-05
-4.74687e-06
-6.54053e-05
-4.26071e-06
-6.0659e-05
-5.42972e-06
-8.46412e-05
-1.32212e-05
-6.92415e-05
-1.17403e-05
-8.48853e-05
-1.80483e-05
-5.58849e-05
-1.09762e-05
-6.17249e-05
-1.48886e-05
-5.11716e-05
-1.0797e-05
-9.14608e-05
-6.80251e-05
-1.69034e-05
-6.91693e-05
0.000453805
-0.000101125
0.000473121
-8.63624e-05
0.000364361
-7.96869e-05
0.000345835
-4.69142e-05
0.000282114
-9.71174e-05
0.000193487
-4.3191e-05
0.000145979
-2.1947e-05
8.10103e-05
-1.63858e-05
7.15893e-05
-3.26257e-06
0.000124612
1.13604e-06
2.90477e-05
-3.0314e-06
-6.31988e-05
-6.56188e-06
-4.45614e-05
-2.76107e-05
-4.43564e-05
-1.07898e-05
-7.74799e-05
-1.63594e-05
-7.90717e-05
-1.51064e-05
-7.04945e-05
-2.69522e-05
-7.30395e-05
1.83929e-06
-8.46764e-05
-5.28901e-06
-5.45966e-05
-4.16568e-06
-5.22949e-05
-3.51349e-06
-9.2113e-05
-6.9777e-05
-1.76154e-06
-0.0001248
0.000578605
-8.61783e-05
0.000434499
-7.98632e-05
0.000358046
-6.92026e-05
0.000335174
-5.13095e-05
0.000264221
-2.55047e-05
0.000167682
-1.47216e-05
0.000135196
-4.60863e-05
0.000112375
-4.43129e-05
6.98159e-05
-1.31633e-05
9.34624e-05
-1.79216e-06
1.76766e-05
-3.02892e-06
-6.1962e-05
-1.45956e-05
-3.29947e-05
-1.86974e-05
-4.02546e-05
-9.76853e-06
-8.64087e-05
-1.24687e-06
-8.75933e-05
-2.08029e-05
-5.09385e-05
-4.33801e-05
-5.04623e-05
-3.29353e-05
-9.51212e-05
-4.85602e-06
-8.26759e-05
-3.22545e-06
-5.39254e-05
-6.12218e-06
-8.92162e-05
-6.83032e-05
-7.59599e-06
-5.71748e-05
0.00063578
-6.81727e-05
0.000445498
-7.69776e-05
0.000366851
-5.98626e-05
0.000318059
-5.5077e-05
0.000259435
-5.58446e-05
0.00016845
-5.02914e-05
0.000129643
-4.46942e-05
0.000106778
-6.77187e-05
9.28405e-05
-2.19953e-05
4.7739e-05
6.21128e-06
-1.053e-05
-2.63404e-05
-2.94104e-05
-2.52433e-05
-3.40918e-05
-6.73108e-06
-5.87669e-05
-2.24203e-06
-9.08978e-05
-2.61056e-05
-6.37297e-05
-1.81537e-05
-5.88904e-05
-5.87674e-06
-6.27392e-05
-3.4843e-05
-6.6155e-05
-3.02636e-05
-8.72553e-05
-2.87275e-06
-8.13162e-05
5.40067e-06
-9.74897e-05
-4.85848e-05
-1.43178e-05
-4.45222e-05
0.000680302
-6.50326e-05
0.000466008
-6.0662e-05
0.00036248
-4.79725e-05
0.00030537
-3.7956e-05
0.000249418
-5.42078e-05
0.000184701
-5.96377e-05
0.000135073
-5.51415e-05
0.000102282
-3.85661e-05
7.6265e-05
-2.51128e-05
3.42857e-05
-1.91148e-05
-1.6528e-05
-3.74346e-05
-1.10906e-05
-1.47907e-05
-5.67357e-05
-1.6731e-05
-5.68266e-05
-1.98588e-05
-8.77699e-05
-2.98482e-05
-5.37403e-05
-1.92691e-06
-8.68116e-05
-4.25523e-06
-6.04109e-05
-1.33758e-05
-5.70344e-05
-4.91277e-06
-9.57183e-05
-4.72305e-06
-8.1506e-05
-3.62299e-05
-6.59828e-05
-5.23145e-05
-3.25002e-05
-4.49626e-05
0.000725265
-5.86242e-05
0.00047967
-4.65449e-05
0.000350401
-4.05012e-05
0.000299326
-3.50881e-05
0.000244005
-6.22543e-05
0.000211868
-6.85015e-05
0.00014132
-2.31477e-05
5.69278e-05
-3.13854e-05
8.45027e-05
-2.14252e-05
2.43255e-05
-3.28723e-05
-5.08086e-06
-1.54674e-05
-2.84955e-05
-4.26107e-05
-2.95923e-05
-2.34309e-05
-7.60064e-05
-3.44676e-05
-7.67333e-05
-1.07365e-05
-7.74714e-05
-1.46585e-05
-8.28896e-05
-2.36878e-05
-5.13816e-05
-3.4937e-06
-7.72285e-05
-8.17798e-06
-9.10341e-05
-7.04755e-06
-8.26364e-05
-1.3829e-05
-5.92014e-05
-6.62773e-05
1.33851e-07
-3.31624e-05
0.000758429
-4.16808e-05
0.000488189
-3.81461e-05
0.000346866
-4.35523e-05
0.000304732
-6.18774e-05
0.00026233
-6.45438e-05
0.000214534
-5.27483e-05
0.000129525
-9.30895e-05
9.7269e-05
-0.000103331
9.47442e-05
-9.07637e-05
1.17582e-05
-7.9272e-05
-1.65725e-05
-3.46109e-05
-7.31567e-05
-3.77067e-05
-2.64965e-05
-3.06518e-05
-8.30613e-05
-2.22216e-05
-8.51635e-05
-2.0973e-05
-7.872e-05
-2.77472e-05
-7.61154e-05
-3.47074e-06
-7.56581e-05
-3.18798e-06
-7.75113e-05
-9.37445e-06
-8.48476e-05
-1.75773e-05
-7.44335e-05
-1.04376e-06
-7.57349e-05
-5.92839e-05
-8.03716e-06
-2.70748e-05
0.000785504
-3.04535e-05
0.000491567
-3.30484e-05
0.000349461
-4.72741e-05
0.000318958
-7.49317e-05
0.000289988
-7.22723e-05
0.000211875
-8.2982e-05
0.000140234
-0.000116718
0.000131005
-7.65528e-05
5.4579e-05
-8.58629e-05
2.10683e-05
-9.40187e-05
-8.41673e-06
-7.50864e-05
-9.20889e-05
-3.08249e-05
-7.0758e-05
-2.52745e-05
-8.86117e-05
-2.94289e-05
-8.10091e-05
-1.4872e-05
-9.32768e-05
-1.27646e-05
-7.82228e-05
-1.63479e-05
-7.20748e-05
-8.85133e-06
-8.50078e-05
-5.44475e-06
-8.82542e-05
-1.96816e-06
-7.79101e-05
-2.28029e-05
-5.49002e-05
-7.48795e-05
-7.20732e-06
-2.29863e-05
0.00080849
-2.58004e-05
0.000494381
-3.49871e-05
0.000358648
-5.80202e-05
0.000341991
-8.63722e-05
0.00031834
-7.87949e-05
0.000204297
-0.000143198
0.000204637
-0.000150563
0.00013837
-0.000157262
6.12787e-05
-0.000104102
-3.20919e-05
-8.34674e-05
-2.90514e-05
-8.32073e-05
-9.23491e-05
-4.64568e-05
-0.000107508
-3.21169e-05
-0.000102952
-1.5092e-05
-9.8034e-05
-4.60749e-05
-6.2294e-05
-2.10581e-05
-0.00010324
-9.04308e-06
-8.40898e-05
-9.18192e-06
-8.4869e-05
-1.13851e-05
-8.6051e-05
-3.73536e-06
-8.55598e-05
-3.6506e-06
-5.4985e-05
-8.14583e-05
2.92828e-06
-2.25949e-05
0.000831085
-2.8011e-05
0.000499797
-4.60032e-05
0.00037664
-6.7725e-05
0.000363713
-9.62927e-05
0.000346908
-0.000100727
0.000208732
-0.000135459
0.000239369
-0.00018006
0.000182971
-0.000143528
2.47468e-05
-0.000153037
-2.25826e-05
-7.17318e-05
-0.000110357
-7.95711e-05
-8.45098e-05
-4.00791e-05
-0.000147
-7.08185e-05
-7.22122e-05
-5.14709e-05
-0.000117382
-9.40744e-06
-0.000104357
-2.08182e-06
-0.000110565
-2.29918e-05
-6.31799e-05
-1.1191e-05
-9.66697e-05
-1.07266e-05
-8.65154e-05
-1.53783e-05
-8.09081e-05
-1.48677e-06
-6.88765e-05
-7.18108e-05
-1.11343e-05
-2.08297e-05
0.000851914
-2.87076e-05
0.000507675
-5.59254e-05
0.000403858
-9.51808e-05
0.000402968
-0.000131141
0.000382868
-0.000133017
0.000210608
-0.000154934
0.000261286
-0.000195118
0.000223154
-0.000172044
1.67296e-06
-0.00010144
-9.31863e-05
-0.000142328
-6.94695e-05
-6.66713e-05
-0.000160166
-4.67519e-05
-0.00016692
-4.03639e-05
-7.86001e-05
-2.92217e-05
-0.000128524
-2.13284e-05
-0.000112251
-1.88852e-05
-0.000113008
1.71841e-05
-9.92493e-05
-1.22994e-05
-6.71862e-05
-8.76512e-06
-9.00497e-05
1.86571e-06
-9.15389e-05
2.24908e-06
-6.92599e-05
-7.79963e-05
8.43457e-06
-2.46821e-05
0.000876596
-4.70784e-05
0.000530071
-9.0523e-05
0.000447302
-0.000129971
0.000442416
-0.000140253
0.00039315
-0.000200863
0.000271218
-0.000243464
0.000303887
-0.000247161
0.00022685
-0.00022508
-2.04075e-05
-0.000181739
-0.000136528
-7.20335e-05
-0.000179175
-5.6373e-05
-0.000175827
-4.25626e-05
-0.00018073
-4.29246e-05
-7.82381e-05
-2.7585e-05
-0.000143863
-1.56668e-05
-0.000124169
-1.25547e-05
-0.00011612
-1.92562e-05
-9.25478e-05
1.51889e-05
-0.000101631
1.61744e-05
-9.10352e-05
-7.93051e-06
-6.7434e-05
-5.93649e-06
-7.12539e-05
-5.58215e-05
-2.81113e-05
-2.7716e-05
0.000904312
-5.68892e-05
0.000559243
-0.000109977
0.00050039
-0.00013348
0.000465919
-0.000122235
0.000381904
-0.000207192