/*--------------------------------*- C++ -*----------------------------------*\
| =========                 |                                                 |
| \\      /  F ield         | foam-extend: Open Source CFD                    |
|  \\    /   O peration     | Version:     4.1                                |
|   \\  /    A nd           | Web:         http://www.foam-extend.org         |
|    \\/     M anipulation  |                                                 |
\*---------------------------------------------------------------------------*/
FoamFile
{
    version     2.0;
    format      ascii;
    class       volScalarField;
    location    "1";
    object      psi;
}
// * * * * * * * * * * * * * * * * * * * * * * * * * * * * * * * * * * * * * //

dimensions      [1 -1 -2 0 0 0 0];

internalField   nonuniform List<scalar> 
2268
(
-2091
-2647.41
-2822.8
-2856.74
-2851.78
-2829.97
-2648.58
-2857.59
-2099.63
-280.811
-30.7079
-26.1571
-51.3456
-224.765
-7.26986
-4.7393
-1.55967
-1.32231
-14.6364
-61.6639
-73.5836
-1303.35
-2249.11
-2050.78
-2677.78
-2854.21
-2807.34
-2803.66
-2754.41
-2717.84
-1680.98
-1049.96
-669.671
-182.676
-344.311
-363.804
-1701.47
-114.555
-29.711
-6.42679
-1.13636
-5.12251
-14.5635
-9.16678
-216.972
-1392.49
-2186.68
-2738.37
-2856.37
-2830.08
-2806.17
-2729.79
-2665.61
-2612.97
-2672.4
-1158.52
-670.556
-1702.72
-1737.7
-2813.85
-1146.38
-141.243
-48.9544
-5.74714
-1.8361
-2.20761
-7.07489
-65.0481
-373.071
-2090.08
-2542.15
-2744.84
-2842.31
-2745.41
-2698.93
-2379.83
-1686.92
-1314
-1080.09
-1746.07
-2857.39
-2816.29
-2297.58
-2777.08
-540.677
-328.605
-35.7993
-5.18663
-5.02101
-8.69937
-74.1391
-225.668
-1945.55
-2316.57
-2791.32
-2839.76
-2648.21
-2305.77
-2857.73
-2398.28
-2144.61
-2076.77
-2786.19
-2598.76
-2568.49
-2102.84
-2777.21
-965.082
-1410.99
-278.511
-37.7516
-28.1999
-33.6429
-169.862
-241.557
-1720.46
-2212.62
-2687.83
-2219.8
-943.858
-675.423
-1276.49
-2386.74
-2831.71
-2821.62
-2822.1
-2021.62
-2396.86
-1736.79
-2640.63
-1661.46
-2806.44
-1258.16
-389.24
-182.296
-172.87
-405.009
-376.229
-1380.82
-1976.23
-2483.7
-1186.61
-75.0128
-4.7597
-362.315
-504.266
-1564.2
-1680.24
-1896.38
-1374.37
-1983.43
-1157.2
-2805.37
-2739.62
-2279.59
-2641.23
-1429.83
-868.394
-741.754
-912.029
-1152.14
-970.433
-1680.31
-2122.3
-441.374
292.964
297.035
71.5445
370.701
-380.624
-720.939
-1171.77
-1169.92
-1496.61
-864.816
-2286.72
-1983.38
-1089.94
-2233.38
-2663.54
-2543.44
-2752.89
-2339.55
-2571.69
-1554.61
-1877.95
-1907.37
-1890.08
-1843
-1811.52
-1734.7
-1666.59
-1914.77
-1744.7
-1608.73
-1390.13
-1204.56
-1492.62
-1652.08
-1734.96
-1694.63
-2026.58
-1922.15
-1429.38
-1654.26
-1462.53
-836.869
-378.707
148.474
387.766
-497.563
-1009.41
-744.545
-269.365
-113.243
841.093
919.242
-46.0175
-985.508
-782.308
-1802.78
-1741.22
-1272.55
-1435.74
-1152.22
214.91
859.409
1793.33
1915.29
1427.62
976.069
784.955
1589.84
1492.65
1549.73
1706
1114.81
-181.433
262.764
-1496.4
-1609.52
-1156.25
-1002.96
146.458
1302.18
1616.43
2282.23
2325.59
2307.24
2146.33
2104.54
2108.71
1489.55
1659.59
1486.78
1369.7
917.174
724.347
-725.256
-1451.8
-1052.93
-620.78
442.827
1492.64
2058
2338.55
2337.34
2315.76
2053.24
2264.69
2289.71
1173.12
1034.53
1056.87
1242.82
1186.04
977.991
81.7013
-1322.6
-1003.18
-398.62
789.231
1947.64
2287.13
2403.33
2168.32
2179.16
1229.81
998.854
1965.01
1132.8
883.07
959.771
1080.66
1218.87
1136.96
368.105
-1320.06
-922.104
-59.952
1381.35
2275.67
2356.45
2040.52
1576.63
1886.82
948.15
526.008
1243.28
646.6
780.428
1060.05
1043.11
1183.96
1149.15
543.96
-1172.58
-787.992
780.809
2176.07
2488.43
2210.97
1360.75
1154.14
1358.52
876.597
461.233
754.36
457.704
743.823
1347.91
1285.02
1439.72
1315.73
953.573
-1078.85
-556.463
-1177.43
-1776.47
-320.484
277.004
159.319
441.182
429.267
107.408
-768.833
-994.791
-1004.86
-969.263
-693.29
-859.103
-702.299
-663.858
-1258.71
-2051.85
-1809.05
-1682.96
-2032.88
-608.943
-34.2517
-379.488
-974.852
408.514
1689.86
1719.61
896.94
355.054
445.986
-744.434
-833.995
-555.584
-497.232
-537.514
-600.681
-583.527
-737.495
-846.675
-909.664
-846.201
-763.541
-616.772
-350.245
419.405
941.175
723.141
1559.54
2240.52
2029.35
2119.62
895.682
2.85641
-461.314
-477.077
-378.749
-610.109
-889.136
-947.502
-898.671
-588.383
-294.61
-212.21
-184.92
-241.295
-187.533
-153.982
713.691
1881
2534.97
2434.82
2239.25
1670.9
1091.47
82.2268
-447.949
-494.792
-96.7962
32.4877
-260.472
-733.597
-989.032
-1026.55
-974.963
-618.688
-67.3994
295.491
386.806
391.296
437.94
1101.43
2584.9
2828.9
2731.69
2287.43
1838.95
1140.04
250.923
-12.3973
496.677
1155.3
1377.49
1061.54
552.183
140.223
-313.257
-502.758
28.2448
807.11
1591.71
1973.64
2020.92
2147.08
1759.78
2818.14
2851.07
2736.83
2459.03
2440.51
2378.61
1144.15
404.095
1206.99
2060.22
2317.31
2250.71
1948.25
1724.32
1521.03
1759.51
2202.98
2345.38
2357.55
2328.62
2154.64
1994.62
2405.4
2845.7
2852.82
2783.96
2683.9
2629.5
2224.64
1593.64
1576.97
2556.82
2652.74
2634.11
2592.15
2526.03
2468.23
2365.09
2532.62
2573.88
2580.22
2505.14
2403.74
2306.23
2239.21
2736.33
2856.4
2857.72
2851.54
2852.05
2754.1
2528.21
2375.75
2604.46
2852.82
2856.73
2848.47
2841.46
2831.83
2813.49
2778.09
2761.68
2745.74
2730.19
2708.03
2697.93
2716.58
2755.55
2848.32
2856.38
2838.45
2818.46
2846.5
2822.91
2762.43
2808.86
2853.01
2785.73
2762.32
2817.41
2848.04
2857.45
2851.4
2841.65
2840.47
2843.83
2850.19
2853.69
2856.71
2851.2
2758.53
2821.43
2799.34
2749.43
2553.33
2763.69
2855.27
2857.09
2856.44
2849.17
2758.12
2687.21
2717.26
2819.05
2850.47
2854.99
2854.45
2842.51
2770.14
2535.77
2344.43
2238.27
2100.1
1710.76
2514.27
2509.88
2495.25
2136.25
2549.22
2720.66
2680.6
2810.42
2784.41
2781.96
2668.64
2671.24
2768.98
2798.81
2803.97
2802.15
2776.06
2632.18
2263.41
1923.77
1313.92
915.409
675.472
1648.81
1912.46
1879.52
1806.4
2248.58
2357.33
1833.59
2358.15
2302.47
2602.09
2648.12
2590.88
2666.02
2709.06
2721.92
2702.92
2616.37
2029.61
1142.47
650.067
391.219
247.175
173.279
798.765
1034.47
1102.3
1484.57
1915.8
1916.88
1066.92
1438.86
2045.33
2496.32
2559.04
2494.67
2560.6
2616.27
2620.39
2562.85
2261.63
1267.96
521.07
211.412
96.2202
62.7452
39.7062
417.858
520.119
659.456
1115.07
1536
1353.6
698.94
1100.06
2018.27
2340.59
2384.8
2412.54
2529.85
2558.5
2557.96
2487.74
1990.99
610.857
157.654
61.7204
27.1053
14.9503
8.51808
301.308
373.605
431.711
729.415
1078.7
886.32
562.362
1073.95
1946.26
2229.09
2349.39
2426.1
2469.73
2444.71
2186.27
1357.84
547.682
121.057
37.3037
19.4068
14.0901
7.4106
2.99028
321.253
390.74
377.668
481.585
705.835
624.962
576.04
1070.01
1916.61
2175.53
2298.51
2386.71
2393.33
2237.36
1556.8
461.885
115.559
30.3897
16.1302
11.8434
10.2793
3.79453
1.05411
449.3
517.468
398.412
419.969
556.489
578.653
675.161
1422.96
1981.15
2183.72
2285.92
2332.92
2239.13
1766.76
595.331
71.5516
25.0936
12.861
8.16233
6.32307
5.9446
2.50919
0.46
546.985
699.001
488.558
449.715
560.926
650.033
1090.87
1794.45
2087.4
2192.06
2248.84
2145.42
1619.51
879.751
80.1668
14.2971
8.71281
6.09785
3.10776
2.19081
1.93301
2.27418
0.471859
776.91
929.893
739.673
605.915
663.921
963.249
1671.49
2012.09
2094.64
2152.8
2065.49
1531.51
604.054
141.4
12.5265
6.4945
3.38601
2.73216
1.12968
0.592204
0.387875
0.728941
0.220596
819.187
1144.87
1111.16
963.132
976.103
1445.91
1859.44
1993.23
2040.26
1920.29
1448.21
554.711
147.945
20.2364
6.89915
3.3477
1.6089
1.52808
0.748045
0.320737
0.157753
0.121672
0.0830644
892.124
1252.34
1344.19
1388.08
1490.68
1750.82
1851.05
1888.94
1767.67
1264.21
708.344
134.855
38.4929
11.0861
4.42125
1.22925
0.66782
0.786269
0.538687
0.215097
0.0849134
0.0288067
0.0294283
905.015
1349.76
1478.76
1566.23
1655.43
1728.65
1745.4
1610.43
1209.64
585.634
350.021
67.2859
29.0417
6.00121
2.60712
0.550109
0.261045
0.264021
0.278666
0.119271
0.0453139
0.00881867
0.00735693
916.426
1371.3
1506.71
1572.93
1617.99
1590.05
1292.42
1169.42
609.948
284.394
184.098
23.2419
10.1451
3.04163
1.10463
0.224482
0.098988
0.0729583
0.114185
0.0514089
0.0178011
0.00228438
0.00121784
875.951
1368.76
1492.98
1533.5
1477.32
1224.33
724.755
505.341
264.235
154.255
113.555
16.6233
10.7552
2.13574
0.376591
0.0951233
0.0387063
0.0191296
0.0375155
0.0225654
0.0078625
0.000642104
0.000285464
876.586
1352.51
1439.95
1419.13
1157.22
671.899
415.062
197.236
114.186
80.9129
49.6277
21.2852
10.2431
1.32618
0.139916
0.038967
0.0158671
0.00580198
0.00641029
0.00525681
0.0040667
0.000214918
0.000106903
856.24
1305.01
1348.21
1237.96
849.826
345.259
200.036
81.3126
53.6103
50.0275
35.9141
26.3867
5.82636
0.502461
0.0489208
0.0160902
0.00657859
0.00205524
0.000965338
0.000948677
0.000825729
6.85744e-05
3.9426e-05
882.971
1226.28
1211.47
1008.4
632.102
249.971
123.271
52.0096
40.4749
37.4718
31.8764
2.54715
0.79852
0.128915
0.0223725
0.00634209
0.002859
0.00106121
0.000215869
0.000104276
0.00011459
1.81796e-05
1.14283e-05
855.939
1123.87
1036.86
775.516
434.957
167.206
90.6451
59.8515
51.0929
36.3611
24.4424
0.741053
0.196337
0.057707
0.0139145
0.00282236
0.00100845
0.000742076
0.000121213
1.74293e-05
1.06892e-05
3.96811e-06
2.42699e-06
818.03
1002.02
854.377
613.73
347.09
156.977
87.0561
59.3149
43.5813
18.5292
0.976576
0.42958
0.133472
0.0399342
0.00900398
0.00160659
0.000302683
0.00016106
4.87879e-05
5.69509e-06
2.055e-06
9.27468e-07
1.69261e-07
771.584
893.122
702.74
518.21
324.432
154.539
79.8843
47.7464
25.9843
4.63201
0.747626
0.293942
0.101022
0.0266221
0.00615594
0.000932383
0.000120926
3.92009e-05
7.51017e-06
1.44579e-06
5.0753e-07
3.94019e-07
5.32808e-08
724.201
794.9
588.342
455.02
306.015
143.731
55.6684
14.6246
5.85818
0.829808
0.351858
0.180907
0.0784088
0.0171573
0.00336257
0.000476352
6.28161e-05
1.37617e-05
1.74552e-06
3.17467e-07
1.21699e-07
8.18772e-08
9.8689e-09
680.749
710.313
506.494
414.828
284.229
115.234
22.9097
4.92613
2.21155
0.725861
0.30695
0.166646
0.053383
0.0122819
0.00206744
0.000323555
4.88154e-05
7.61972e-06
5.38285e-07
5.87686e-08
1.93877e-08
1.19553e-08
1.84354e-09
640.567
631.695
442.523
379.88
245.8
72.599
10.556
3.90942
2.3668
1.36117
0.711642
0.355529
0.0786393
0.0106682
0.00200083
0.000289126
3.87324e-05
5.78543e-06
4.25807e-07
2.19032e-08
2.77122e-09
1.55796e-09
5.88442e-10
602.508
549.346
385.907
336.816
175.596
34.8328
8.00576
4.93926
4.58413
2.45697
1.39228
0.500959
0.1065
0.0122696
0.00186797
0.000286218
3.8928e-05
3.61081e-06
3.91886e-07
1.52676e-08
1.94722e-09
4.12e-10
5.0477e-10
570.116
467.966
334.731
286.459
120.974
23.5984
10.3001
10.5969
19.3318
5.45099
1.90254
0.519273
0.105648
0.0152913
0.00252962
0.000233381
1.42905e-05
1.52247e-06
3.95287e-07
1.0078e-08
1.95996e-09
3.32874e-10
5.31145e-10
538.381
388.547
292.55
246.056
90.3074
23.4112
15.3165
20.2985
29.2097
8.39198
2.97873
0.665852
0.0857682
0.01268
0.00146948
0.000110749
7.54946e-06
5.95824e-07
3.37711e-08
5.35783e-09
1.36879e-09
3.46517e-10
5.45697e-10
507.928
331.492
264.119
223.58
90.9033
27.6239
22.3455
35.2439
59.0031
14.3376
4.9081
0.731236
0.0747073
0.00675771
0.000874475
6.98686e-05
3.30153e-06
3.00357e-07
9.01755e-09
5.39326e-10
4.15639e-10
3.91083e-10
5.43878e-10
475.829
284.697
242.605
221.431
116.049
38.7648
37.8201
41.4471
72.5626
22.0649
6.46932
0.955101
0.0893078
0.00293139
0.00021999
5.36993e-05
2.1093e-06
1.75069e-07
1.66159e-09
4.17458e-10
4.01997e-10
3.9563e-10
5.90262e-10
442.97
251.153
220.38
227.165
168.378
64.9066
74.7467
56.4754
105.536
26.3441
3.65035
0.427064
0.0353471
0.000597099
3.57022e-05
3.3156e-05
5.76849e-07
6.58691e-08
6.41173e-10
4.1382e-10
4.28372e-10
4.30191e-10
4.76575e-10
412.028
220.569
190.376
226.999
214.651
120.716
133.296
100.468
75.8501
6.81577
0.391904
0.104591
0.0117085
0.000245828
8.47619e-06
6.80504e-07
4.78902e-09
5.11115e-10
4.72937e-10
4.36557e-10
4.6839e-10
5.05679e-10
4.05635e-10
400.247
218.518
163.016
220.248
231.403
198.408
152.639
97.6698
9.92215
1.31983
0.0899907
0.0307781
0.00662792
0.000219526
6.92813e-06
4.07858e-08
1.1505e-09
4.38376e-10
5.35692e-10
5.27507e-10
5.12955e-10
6.26642e-10
2.41016e-10
383.725
235.428
147.6
185.279
216.792
172.17
87.3655
12.128
0.226146
0.177328
0.0551322
0.00514648
0.00108339
0.000292447
7.00316e-06
5.81404e-09
1.06138e-09
4.70209e-10
6.10271e-10
5.35692e-10
5.3933e-10
7.30325e-10
1.8008e-10
-385.222
-399.649
-330.366
-266.848
-285.631
-193.031
7.68085
214.871
11.4807
213.038
443.993
645.886
712.739
948.8
1381.04
1771.28
2005.57
2011.72
1995.89
1962.23
1882.7
1806.2
1755.11
1726.57
2221.6
2226.97
2264.57
2357.07
2790.3
2816.15
2836.42
2853.35
2615.22
2484.27
2353.01
2238.58
1380.94
1185.91
1025.41
928.208
503.198
416.143
318.591
267.45
146.645
123.672
97.0876
83.4013
29.266
21.4855
22.7178
20.5096
5.2949
3.72457
3.49242
2.92341
0.748244
0.504061
0.320441
0.167707
0.23613
0.142562
0.070855
0.0299097
0.118821
0.0611499
0.0267635
0.0160805
0.242278
0.151875
0.0978058
0.0181132
0.0989427
0.0801225
0.270391
0.0174043
0.0301959
0.0186095
0.0204651
0.0088377
0.0173519
0.00842574
0.00797521
0.00405376
0.00489198
0.00298467
0.00256372
0.000926533
0.00186753
0.00130151
0.00112991
0.000430873
0.000209807
0.000155383
7.47458e-05
5.67742e-05
5.95274e-05
1.30171e-05
4.73142e-06
7.99059e-06
3.8742e-05
6.74259e-06
5.77371e-07
3.18305e-07
1.49513e-05
1.00267e-05
2.80626e-07
6.50713e-08
9.9149e-07
4.90824e-07
7.64579e-08
1.99888e-08
6.47138e-08
9.96297e-08
4.20968e-08
2.23963e-08
1.05974e-08
1.31968e-08
3.91081e-09
1.2942e-09
4.86307e-09
6.43003e-10
4.76574e-10
4.79304e-10
5.03497e-09
3.62882e-10
3.89264e-10
4.07454e-10
5.90261e-10
2.67391e-10
3.67436e-10
4.26553e-10
4.502e-10
2.65572e-10
3.47427e-10
4.33829e-10
4.62023e-10
3.10137e-10
3.67436e-10
3.12866e-10
4.79304e-10
2.19188e-10
2.37378e-10
2.71939e-10
4.81123e-10
1.58252e-10
1.11868e-10
1.51886e-10
4.66571e-10
1.6189e-10
6.45739e-11
1.28239e-10
3.00133e-10
5.27503e-11
5.09316e-11
1.21872e-10
2.81943e-10
1.45519e-10
1.28239e-10
2.1555e-10
2.93767e-10
3.26509e-10
1.90994e-10
2.09184e-10
4.00178e-10
3.49246e-10
2.24645e-10
3.64707e-10
-185.196
1854.08
2353.92
2011.77
1828.32
1099.64
986.773
1121.66
835.346
693.872
297.542
328.492
1195.27
1673.77
1728.36
1829.87
1368.08
161.717
-1585.12
704.778
1369.58
1159.82
752.795
1043.13
940.846
894.125
927.872
858.46
1122.52
1459.03
1626.1
1865.01
1910.63
1707.05
1780.82
502.803
-685.119
-1616.15
1005.37
1369.54
1110.69
1205.28
1590.1
1139.76
987.642
919.534
1332.62
1819.85
1963.77
2026.17
1812.76
1016.05
-179.728
-630.964
-825.561
-970.798
-1360.46
2201.84
2343.19
1899.28
1707.12
1900.7
938.693
1028.63
1358.27
1791.95
2016.42
2103.98
2148.56
2055.8
1477.06
438.746
248.007
317.492
61.0625
-634.626
1675.84
1218.59
1048.61
1029.84
1169.97
1458.62
2078.04
2313.66
2297.87
2034.33
2029.57
2091.84
1837.91
1412.05
826.497
1730.93
2494.04
2134.44
225.554
1680.43
1779.58
2034.25
2512.09
2748.13
2782.8
2835.91
2851.38
2840.93
2391.68
1940.49
2089.01
2401.37
2821.57
2828.06
2542.91
2010.35
2635.86
2635.96
2480.64
2785.11
2857.37
2671.21
2385.23
2247.33
2156.81
2054.66
2236.98
2831.8
2797.04
2850.34
2857.74
1933.55
1741.81
941.285
795.22
1508.79
1687.05
2853.53
2797.79
2442.2
1736.8
1274.42
1021.28
846.606
762.515
814.893
1056.42
1631.6
1855.69
2320.66
879.439
446.626
268.668
257.564
460.683
286.146
2072.97
1838.85
1423.67
939.82
633.527
460.232
366.264
326.798
345.88
423.914
669.414
775.345
748.863
367.568
169.911
100.127
80.953
87.7756
61.9224
884.052
963.531
638.393
400.417
236.921
157.281
136.995
143.345
160.218
176.931
244.182
247.555
184.944
109.227
66.7765
44.9719
31.9491
24.4651
21.919
270.769
271.536
166.736
138.513
70.8985
52.9385
46.7783
52.3213
66.6209
66.0481
109.326
111.573
86.5021
54.0685
36.1077
25.2928
18.4
14.4551
15.3188
100.281
76.4209
44.4671
37.417
24.727
16.3697
16.5865
17.6153
27.1142
57.2263
72.0238
70.7443
57.8684
36.0651
24.7292
17.6756
14.1858
8.47894
13.1594
22.8662
14.9491
11.308
9.80409
7.78586
5.21764
5.35193
6.299
10.932
32.0917
49.8795
43.7505
31.7656
21.0749
13.7896
9.88685
9.54211
3.88209
11.8252
2.77317
2.08106
2.02008
3.51117
2.61348
1.9208
1.90163
2.50902
5.87147
13.1845
25.142
23.9728
15.9826
12.2153
6.91653
4.97844
3.92683
1.92691
10.8337
0.126515
0.180347
0.387078
0.881812
0.596544
0.667322
0.846801
1.00798
1.8948
1.91217
7.8303
7.79968
3.17922
3.50007
3.10674
2.80328
1.64437
1.03242
10.0872
0.0155137
0.0144946
0.098393
0.133424
0.0475595
0.109669
0.224778
0.120815
0.55019
0.856043
0.298964
0.178999
0.117767
0.234004
0.508868
1.40636
0.663694
0.736971
9.60821
0.00843298
0.00424566
0.0180297
0.0195364
0.00748566
0.00766297
0.0322056
0.00671019
0.0439032
0.577941
0.110212
0.0327632
0.0115711
0.0245654
0.0985395
0.735651
0.290948
0.566884
9.25452
0.00725157
0.00119763
0.00136452
0.00166651
0.00128986
0.000780089
0.00273114
0.00116505
0.00561835
0.149417
0.03008
0.00835685
0.00262238
0.00248162
0.0508898
0.287832
0.145545
0.510551
8.97929
0.00690615
0.000684111
0.00023404
6.58663e-05
0.000190418
4.45487e-05
0.000190907
0.000108757
0.00172404
0.0537147
0.00682213
0.00143607
0.000558273
0.000577918
0.0436896
0.108183
0.0800693
0.517878
8.56459
0.00416283
0.000484645
0.000179014
1.70535e-05
2.73796e-05
7.44008e-06
3.88281e-05
1.0949e-05
0.00078029
0.0112871
0.00118316
0.000178926
0.000157573
0.000349431
0.0478726
0.0455904
0.0591882
0.545222
8.07124
0.00235629
0.000182212
0.000122981
5.40015e-06
3.72535e-06
6.92886e-07
6.74924e-06
5.62006e-07
0.000326177
0.00114108
4.43007e-05
2.82361e-05
0.000114566
0.000368037
0.0475529
0.0158717
0.0539625
0.557818
7.52873
0.000759942
4.93162e-05
8.47786e-05
1.37776e-06
4.52483e-07
2.3793e-07
1.14477e-06
-5.11699e-09
3.49854e-05
3.69528e-05
7.79011e-06
2.18538e-05
0.000111934
0.000358798
0.0014562
0.00499931
0.0547342
0.558881
6.87404
0.000249611
1.08956e-05
1.54396e-05
2.99144e-07
8.09413e-08
3.02998e-08
1.22624e-08
4.27154e-08
1.055e-05
2.59575e-06
4.71728e-06
2.37614e-05
0.00012606
0.000343804
0.00102555
0.00488057
0.0671398
0.567723
6.38319
4.68331e-05
2.36263e-06
2.71098e-06
5.0971e-08
1.25264e-08
3.5261e-09
4.16729e-09
3.97286e-08
3.38208e-06
1.54419e-06
6.14912e-06
4.72947e-05
0.000128753
0.000288281
0.000826322
0.00492191
0.0682676
0.430054
5.84681
5.1045e-06
4.6512e-07
2.93934e-07
7.66059e-09
1.8781e-09
1.04319e-09
4.68387e-09
1.04737e-07
1.01915e-06
1.94162e-06
8.63278e-06
7.76267e-05
0.000126989
0.000193804
0.000567473
0.00482876
0.0651939
0.280344
5.27854
1.76665e-07
1.09982e-07
2.36486e-08
6.55738e-10
4.4838e-10
1.09321e-09
1.02181e-08
1.91402e-07
9.78244e-07
2.59973e-06
8.98202e-06
9.20904e-05
7.38427e-05
0.000118953
0.000293547
0.00460865
0.0580124
0.168435
4.78172
1.28475e-08
1.62554e-08
5.24414e-09
2.86489e-10
4.46562e-10
2.0018e-09
1.29776e-08
1.03567e-07
9.91759e-07
2.60167e-06
8.16705e-06
9.5846e-05
5.02438e-05
9.36947e-05
0.000175699
0.00335967
0.0336594
0.0900535
4.30306
1.41971e-09
6.63926e-10
6.73934e-10
1.76442e-10
5.04769e-10
2.21735e-09
1.021e-08
1.60467e-07
1.4987e-06
2.40442e-06
4.43322e-06
7.29659e-05
4.27982e-05
8.69773e-05
0.000160967
0.00437378
0.0275166
0.0443282
3.80119
5.47508e-10
2.78305e-10
2.63753e-10
1.60071e-10
3.81078e-10
1.3697e-09
7.83709e-09
1.11903e-07
7.54172e-07
1.04053e-06
2.43418e-06
5.98743e-05
4.23621e-05
0.000100198
0.000195254
0.00367212
0.0111279
0.0209031
3.43455
2.55568e-10
2.53749e-10
2.25555e-10
1.76442e-10
3.81078e-10
1.24601e-09
6.36554e-09
8.73561e-08
1.83156e-07
1.41647e-07
7.84463e-07
1.12938e-05
4.89827e-05
0.000135523
0.000289316
0.00463523
0.00594288
0.0103366
3.09999
1.84627e-10
2.49202e-10
1.50067e-10
2.02817e-10
3.03771e-10
8.80391e-10
1.50521e-09
1.64364e-08
3.48054e-08
3.43961e-08
3.77311e-07
1.47822e-06
6.84487e-05
0.000208552
0.000393345
0.00126715
0.00271975
0.00661365
2.81135
1.38243e-10
1.9827e-10
1.10049e-10
1.74623e-10
2.77396e-10
6.8394e-10
8.57653e-10
3.71619e-09
6.78573e-09
2.23499e-08
1.03216e-07
8.28725e-07
0.000115086
0.000317046
0.000454108
0.0006549
0.00222547
0.00586974
2.56689
1.10049e-10
2.02817e-10
2.00998e-10
1.27329e-10
2.81943e-10
3.64707e-10
4.10182e-10
1.29876e-09
1.32513e-09
2.12949e-08
8.4309e-08
1.09908e-06
0.00015003
0.000407322
0.000512116
0.000624503
0.00258846
0.00588169
2.32355
1.58252e-10
2.04636e-10
2.57387e-10
1.30058e-10
3.01952e-10
3.00133e-10
3.7744e-10
2.47382e-10
1.78257e-10
1.55596e-08
7.86916e-08
2.50901e-06
0.0002348
0.000487674
0.000573993
0.000667596
0.00366237
0.00715297
3.70107
1.53705e-10
2.43745e-10
2.67391e-10
1.2551e-10
3.56522e-10
3.10138e-10
3.5925e-10
9.36778e-11
8.54864e-11
2.42653e-08
1.09018e-07
3.72886e-06
0.000286394
0.000528726
0.000613904
0.000742403
0.00427523
0.00707921
1.95386
1.05501e-10
3.49246e-10
2.63753e-10
1.48248e-10
4.17458e-10
3.44698e-10
4.25644e-10
8.91304e-11
6.2748e-11
2.82916e-08
1.53295e-07
6.1625e-06
0.000356037
0.000560463
0.000637675
0.000767689
0.00398595
0.00680371
1.77558
-1.00047e-11
4.36558e-10
2.73758e-10
2.00998e-10
4.44743e-10
5.09317e-10
5.21141e-10
8.91304e-11
1.21864e-10
3.1905e-08
2.133e-07
8.3303e-06
0.000385755
0.000570127
0.000642392
0.00070917
0.0029477
0.00701344
1.48191
1.11868e-10
4.17458e-10
2.02817e-10
1.50066e-10
4.8658e-10
5.0477e-10
5.45697e-10
6.6393e-11
1.58243e-10
3.8356e-08
3.7577e-07
1.28164e-05
0.000433601
0.000580741
0.000633763
0.000686737
0.00253454
0.0100155
1.47405
2.96495e-10
3.9563e-10
8.54924e-11
1.94632e-10
5.15684e-10
5.27507e-10
5.49335e-10
-3.00135e-11
1.71883e-10
4.58638e-08
7.49473e-07
2.16868e-05
0.000517693
0.000620421
0.000631041
0.00067302
0.00225528
0.0176636
0.623388
3.71074e-10
3.93811e-10
2.45562e-11
1.86446e-10
5.63887e-10
5.19321e-10
5.41149e-10
-1.19144e-10
1.76429e-10
5.08741e-08
1.34581e-06
2.92292e-05
0.000545782
0.000630257
0.000640083
0.000672916
0.00239868
0.0366971
0.276721
4.99313e-10
3.18323e-10
-1.19144e-10
2.57387e-10
5.49335e-10
6.10271e-10
6.02086e-10
-1.51886e-10
5.72843e-11
5.53595e-08
2.34314e-06
4.67425e-05
0.000584297
0.000638939
0.00064358
0.00067238
0.00230316
0.0565292
1.18055
5.23869e-10
3.16504e-10
-1.0914e-10
3.30147e-10
5.49335e-10
6.41194e-10
6.53017e-10
-3.10138e-10
5.91018e-11
6.13427e-08
1.241e-07
1.84984e-05
0.000589093
0.000640074
0.000643978
0.000670245
0.0025947
0.00684609
1.74201
)
;

boundaryField
{
    leftWall
    {
        type            zeroGradient;
    }
    rightWall
    {
        type            zeroGradient;
    }
    lowerWall
    {
        type            zeroGradient;
    }
    atmosphere
    {
        type            zeroGradient;
    }
    defaultFaces
    {
        type            empty;
    }
}


// ************************************************************************* //
