/*--------------------------------*- C++ -*----------------------------------*\
| =========                 |                                                 |
| \\      /  F ield         | foam-extend: Open Source CFD                    |
|  \\    /   O peration     | Version:     4.1                                |
|   \\  /    A nd           | Web:         http://www.foam-extend.org         |
|    \\/     M anipulation  |                                                 |
\*---------------------------------------------------------------------------*/
FoamFile
{
    version     2.0;
    format      ascii;
    class       volVectorField;
    location    "1";
    object      U;
}
// * * * * * * * * * * * * * * * * * * * * * * * * * * * * * * * * * * * * * //

dimensions      [0 1 -1 0 0 0 0];

internalField   nonuniform List<vector> 
2268
(
(-0.0894025 0.0210002 0)
(-0.308707 0.0168725 0)
(-0.340475 -0.0179451 0)
(-0.280785 -0.0645075 0)
(-0.3039 -0.0459227 0)
(-0.0829506 -0.0594601 0)
(-0.0360272 0.0649473 0)
(-0.234432 0.001312 0)
(-0.135097 -0.0562008 0)
(-0.128771 0.069248 0)
(-0.11924 -0.0139375 0)
(-0.114082 0.0268082 0)
(-0.119112 -0.0283921 0)
(-0.0158702 -0.0376732 0)
(0.00468893 -6.61811e-06 0)
(0.0354134 -0.0144472 0)
(0.0781252 0.00206265 0)
(0.0635592 0.0202335 0)
(0.0330773 0.00741311 0)
(0.00271765 -0.0112721 0)
(0.00213163 -0.0101603 0)
(0.0314117 0.00117899 0)
(-0.00705079 0.0016551 0)
(-0.0353689 0.168465 0)
(-0.387155 0.188158 0)
(-0.502444 -0.0067019 0)
(-0.421517 0.0460666 0)
(-0.453386 -0.140046 0)
(-0.397141 -0.0176638 0)
(-0.405009 0.0445057 0)
(-0.47723 0.0310057 0)
(-0.253038 -0.0493754 0)
(-0.233027 -0.0201151 0)
(-0.148672 0.00911774 0)
(-0.154032 -0.0284706 0)
(-0.139143 -0.0151152 0)
(-0.0379396 -0.0791809 0)
(0.008213 -0.0209023 0)
(0.0342841 -0.0233917 0)
(0.0813452 -0.0131184 0)
(0.0581027 -0.00185856 0)
(0.0589078 0.0212865 0)
(0.0550415 0.0271363 0)
(0.0172451 -0.00519918 0)
(0.0127496 0.00426421 0)
(0.0116295 0.0209458 0)
(-0.167472 0.21732 0)
(-0.439966 0.134324 0)
(-0.453467 0.0133582 0)
(-0.448664 0.0943149 0)
(-0.501009 -0.166629 0)
(-0.396874 -0.0840075 0)
(-0.449442 -0.0827033 0)
(-0.40358 -0.0468806 0)
(-0.164835 -0.0449999 0)
(-0.20094 -0.0607455 0)
(-0.153647 0.0330257 0)
(-0.192446 -0.0393081 0)
(-0.145112 -0.0493254 0)
(0.081397 -0.185681 0)
(0.0984331 -0.0348313 0)
(0.0156934 -0.0237086 0)
(0.0599682 -0.000531965 0)
(0.0608382 0.000771798 0)
(0.077375 0.0351286 0)
(0.0579542 0.0258896 0)
(0.0156762 -0.00704123 0)
(0.0105667 0.0110292 0)
(0.00727149 0.0236097 0)
(-0.183258 0.257139 0)
(-0.387454 0.146176 0)
(-0.321727 0.180405 0)
(-0.501811 0.0814491 0)
(-0.530666 -0.01915 0)
(-0.430291 -0.0951796 0)
(-0.538305 -0.134053 0)
(-0.555134 -0.0325161 0)
(-0.294866 0.041552 0)
(-0.203248 -0.0470838 0)
(-0.109726 0.0138269 0)
(-0.122264 -0.124202 0)
(-0.0601549 -0.128595 0)
(0.0991862 -0.178838 0)
(0.237157 -0.0210911 0)
(0.054158 0.00498292 0)
(0.0521966 -0.0520848 0)
(0.0371955 0.0162821 0)
(0.0707355 0.020764 0)
(0.0494264 0.021721 0)
(0.0152462 0.0152766 0)
(0.0092046 0.002967 0)
(0.000215453 0.00699619 0)
(-0.190458 0.357341 0)
(-0.302577 0.452729 0)
(-0.347272 0.203473 0)
(-0.471806 0.0513901 0)
(-0.454537 0.0153636 0)
(-0.380755 -0.186132 0)
(-0.489829 -0.265879 0)
(-0.528285 -0.123355 0)
(-0.362068 -0.220884 0)
(-0.183942 -0.0917765 0)
(-0.107269 -6.80237e-05 0)
(-0.151285 -0.236883 0)
(-0.037521 -0.0601685 0)
(-0.0245632 -0.174689 0)
(0.19502 0.0458156 0)
(0.0174807 0.0185789 0)
(0.0372792 -0.00700891 0)
(0.0617936 0.00422646 0)
(0.0706353 0.0626186 0)
(0.0389796 0.0303113 0)
(-0.0149022 0.0363468 0)
(-0.00363531 0.0416817 0)
(-0.00758017 0.0588782 0)
(-0.0760604 0.387436 0)
(-0.269588 0.442647 0)
(-0.387747 0.261417 0)
(-0.429135 0.052869 0)
(-0.349863 -0.0568395 0)
(-0.355533 -0.13937 0)
(-0.40376 -0.267167 0)
(-0.564651 -0.0943479 0)
(-0.538551 -0.21745 0)
(-0.237065 -0.108534 0)
(-0.200821 -0.00681265 0)
(-0.167918 -0.16666 0)
(-0.0485957 -0.215309 0)
(-0.0705513 -0.258752 0)
(0.146128 0.0842729 0)
(0.0182719 0.0323887 0)
(0.108791 -0.0829614 0)
(0.0603038 0.0384226 0)
(0.0683593 0.095171 0)
(0.0162986 0.0500344 0)
(-0.004407 0.0312766 0)
(0.00887474 -0.0167127 0)
(-0.017273 -0.0345972 0)
(-0.0794411 0.429914 0)
(-0.194132 0.367421 0)
(-0.325115 0.288035 0)
(-0.376101 0.0594513 0)
(-0.369699 -0.0933872 0)
(-0.34198 -0.137441 0)
(-0.38245 -0.171573 0)
(-0.484865 -0.104446 0)
(-0.458258 -0.0951367 0)
(-0.293551 -0.0920638 0)
(-0.267608 -0.0833799 0)
(-0.115971 -0.113697 0)
(-0.0728235 -0.28223 0)
(-0.0822593 -0.289027 0)
(0.0403893 0.0326976 0)
(0.0248962 -0.0113596 0)
(0.152914 -0.0996118 0)
(0.081382 0.04096 0)
(-0.000106074 0.119237 0)
(-0.0271368 0.039729 0)
(-0.0461804 0.040452 0)
(-0.0248394 0.0799321 0)
(-0.032266 0.0845123 0)
(-0.0485514 0.512932 0)
(-0.184397 0.444612 0)
(-0.292307 0.346914 0)
(-0.397093 0.0549525 0)
(-0.394874 -0.0951677 0)
(-0.379742 -0.154262 0)
(-0.391948 -0.155269 0)
(-0.479251 -0.262284 0)
(-0.411573 -0.090612 0)
(-0.232416 -0.204439 0)
(-0.285527 -0.230081 0)
(-0.176956 -0.18506 0)
(-0.0490337 -0.121248 0)
(-0.175315 -0.31718 0)
(0.00940318 0.0564187 0)
(0.128048 -0.0344214 0)
(0.171114 -0.048951 0)
(0.176676 0.0713426 0)
(0.0217837 0.16606 0)
(-0.0838252 0.108202 0)
(-0.0507768 0.0178619 0)
(0.0368005 -0.055856 0)
(0.051243 -0.0988647 0)
(-0.437366 0.126766 0)
(-0.610669 0.0652234 0)
(-0.825704 0.0674579 0)
(-0.984004 0.0380656 0)
(-1.00429 -0.0577605 0)
(-0.955739 -0.0425658 0)
(-0.940821 -0.0311792 0)
(-0.981188 -0.17462 0)
(-1.04762 -0.0751646 0)
(-0.852477 -0.128981 0)
(-0.836276 -0.0344556 0)
(-0.756077 0.0895772 0)
(-0.578274 -0.0499455 0)
(-0.515038 -0.026329 0)
(-0.42292 -0.072012 0)
(-0.370407 -0.0402596 0)
(-0.350996 -0.0732506 0)
(-0.279202 0.0299585 0)
(-0.0470895 -0.041918 0)
(-0.323019 0.350446 0)
(-0.435841 0.105463 0)
(-0.63349 0.0689437 0)
(-0.829735 0.0262121 0)
(-0.90544 0.0375623 0)
(-0.743934 0.0326963 0)
(-0.872774 -0.0169569 0)
(-0.952297 -0.141547 0)
(-0.999016 -0.00311898 0)
(-0.750674 0.0846283 0)
(-0.670076 0.0283549 0)
(-0.694869 0.110608 0)
(-0.386915 -0.0536341 0)
(-0.280828 -0.10239 0)
(-0.218742 -0.0661691 0)
(-0.228189 0.0120592 0)
(-0.134649 -0.0958337 0)
(-0.22205 -0.0196216 0)
(0.00500449 -0.0997253 0)
(-0.448662 0.775854 0)
(-0.34536 0.357286 0)
(-0.160544 0.207849 0)
(-0.520463 -0.128217 0)
(-0.705187 0.229878 0)
(-0.382032 -0.0678226 0)
(-0.435222 -0.272792 0)
(-0.57572 -0.176712 0)
(-0.598504 -0.060886 0)
(-0.504969 0.0574294 0)
(-0.251478 -0.115068 0)
(-0.271925 -0.211212 0)
(-0.144041 -0.0464766 0)
(0.0575043 -0.143438 0)
(0.0924039 -0.120205 0)
(-0.185077 0.0530006 0)
(0.0283766 -0.0724363 0)
(-0.129265 -0.0383012 0)
(0.0256549 -0.131435 0)
(-0.385748 0.803868 0)
(-0.225799 0.573075 0)
(-0.274484 0.19887 0)
(-0.628557 0.13169 0)
(-0.707521 0.202003 0)
(-0.346208 -0.0688148 0)
(-0.243077 -0.17666 0)
(-0.252055 -0.197818 0)
(-0.237641 -0.0774049 0)
(-0.0491688 -0.0176619 0)
(-0.0642016 -0.0198668 0)
(-0.00423705 -0.0893703 0)
(0.113323 -0.157025 0)
(0.169103 -0.0418792 0)
(0.226982 -0.144249 0)
(0.103674 0.0821877 0)
(0.0862239 -0.137644 0)
(-0.0419697 -0.00614171 0)
(0.0440425 -0.153507 0)
(-0.378358 0.986728 0)
(-0.277437 0.602881 0)
(-0.34253 0.187199 0)
(-0.539456 0.069555 0)
(-0.516925 0.0398116 0)
(-0.160268 -0.00949443 0)
(-0.137588 -0.0917823 0)
(-0.146087 -0.161434 0)
(-0.137909 -0.0231382 0)
(0.224921 -0.165251 0)
(0.0793493 -0.112965 0)
(0.154191 -0.100126 0)
(0.225196 -0.148808 0)
(0.263921 -0.115111 0)
(0.287308 -0.0717784 0)
(0.257009 0.0423848 0)
(0.173334 -0.116469 0)
(0.154725 -0.0354705 0)
(0.0524288 -0.118686 0)
(-0.424885 1.05469 0)
(-0.293284 0.733983 0)
(-0.388444 0.252149 0)
(-0.353016 0.0800787 0)
(-0.32494 0.0907578 0)
(-0.0865371 -0.243092 0)
(-0.151531 -0.293129 0)
(-0.0881191 -0.229868 0)
(0.0549756 -0.287482 0)
(0.161697 -0.140549 0)
(0.298141 -0.0954509 0)
(0.274289 -0.0943987 0)
(0.26221 -0.177194 0)
(0.316954 -0.149392 0)
(0.331176 0.0377879 0)
(0.296507 -0.0315922 0)
(0.2283 0.0535331 0)
(0.21206 -0.0173063 0)
(0.0526076 -0.0752018 0)
(-0.429087 1.33989 0)
(-0.451954 0.928103 0)
(-0.468513 0.266578 0)
(-0.326581 -0.0173789 0)
(-0.345338 -0.0219715 0)
(-0.0965798 -0.351427 0)
(-0.126323 -0.420135 0)
(-0.0531971 -0.0893845 0)
(0.0659578 -0.362639 0)
(0.0814658 -0.187995 0)
(0.33671 0.062368 0)
(0.310077 -0.179869 0)
(0.289134 -0.196715 0)
(0.3397 -0.15006 0)
(0.302051 0.0870359 0)
(0.278102 -0.0326438 0)
(0.229591 0.115671 0)
(0.194512 0.00774886 0)
(0.0606358 -0.0580186 0)
(-0.487464 1.3392 0)
(-0.744903 0.725855 0)
(-0.677211 0.0839092 0)
(-0.344298 -0.101679 0)
(-0.20596 -0.0370209 0)
(-0.178578 -0.212899 0)
(-0.088673 -0.283328 0)
(-0.0173779 -0.369948 0)
(0.0489994 -0.397093 0)
(0.0497864 -0.272416 0)
(0.298764 -0.0798499 0)
(0.27763 -0.187125 0)
(0.298215 -0.183266 0)
(0.358778 -0.136145 0)
(0.280006 0.0444088 0)
(0.21535 0.00459834 0)
(0.201203 0.0966887 0)
(0.148383 0.0377163 0)
(0.086547 -0.025283 0)
(-0.015793 0.571148 0)
(-0.0419583 0.556595 0)
(-0.219754 0.416543 0)
(-0.303366 0.166077 0)
(-0.250178 -0.106419 0)
(-0.316795 -0.167222 0)
(-0.496458 -0.146664 0)
(-0.525852 -0.259219 0)
(-0.373838 -0.146186 0)
(-0.303371 -0.310408 0)
(-0.261665 -0.324601 0)
(-0.214396 -0.196796 0)
(-0.0945328 0.0113627 0)
(-0.272836 -0.431996 0)
(-0.189306 -0.205903 0)
(-0.0607615 -0.212273 0)
(-0.0465835 -0.124258 0)
(0.0888619 0.0671223 0)
(0.154075 0.0725906 0)
(0.143521 0.0188798 0)
(0.284052 -0.0650643 0)
(0.0998225 0.0864519 0)
(-0.0120619 0.345577 0)
(-0.0180963 0.545288 0)
(0.041395 0.583994 0)
(-0.0129062 0.369685 0)
(-0.164479 0.260666 0)
(-0.225391 -0.0150614 0)
(-0.0472832 -0.0809767 0)
(-0.33382 -0.222121 0)
(-0.479359 -0.0905713 0)
(-0.373125 -0.167749 0)
(-0.362022 -0.272313 0)
(-0.406852 -0.306058 0)
(-0.407205 -0.262132 0)
(-0.547464 -0.269349 0)
(-0.497131 -0.339767 0)
(-0.307433 -0.244367 0)
(-0.341136 -0.274983 0)
(-0.353738 -0.188744 0)
(-0.298338 -0.0258283 0)
(-0.287558 0.0649359 0)
(-0.261904 0.0169525 0)
(-0.173664 0.0664237 0)
(-0.523539 0.223567 0)
(-0.607019 0.50888 0)
(-0.0363775 0.548672 0)
(0.0363006 0.599645 0)
(0.0191447 0.511531 0)
(0.143779 0.327395 0)
(-0.00846311 -0.000538268 0)
(-0.0153425 -0.114132 0)
(-0.163278 -0.106854 0)
(-0.307349 -0.0737122 0)
(-0.431558 -0.224456 0)
(-0.528346 -0.137175 0)
(-0.435284 -0.214535 0)
(-0.422197 -0.141158 0)
(-0.520516 -0.158698 0)
(-0.504222 -0.0803098 0)
(-0.552741 -0.12578 0)
(-0.584669 -0.122096 0)
(-0.549178 -0.149173 0)
(-0.55827 0.0291096 0)
(-0.70694 -0.013716 0)
(-0.754094 -0.111459 0)
(-0.675485 0.151546 0)
(-0.794149 0.301371 0)
(-0.753758 0.503326 0)
(-0.0366243 0.529704 0)
(0.121986 0.549769 0)
(-0.0218039 0.849355 0)
(0.00648201 0.35636 0)
(-0.125889 0.086982 0)
(-0.161952 0.067952 0)
(-0.305915 0.018201 0)
(-0.393938 0.038239 0)
(-0.40707 -0.208677 0)
(-0.405794 -0.08585 0)
(-0.464623 -0.129289 0)
(-0.43666 -0.216376 0)
(-0.563385 -0.20375 0)
(-0.516928 -0.156254 0)
(-0.532884 -0.0996202 0)
(-0.618984 -0.136339 0)
(-0.513152 -0.189649 0)
(-0.738426 0.0611508 0)
(-1.14923 0.225698 0)
(-0.889683 0.0690949 0)
(-0.728229 0.113821 0)
(-0.783805 0.309528 0)
(-0.95138 0.36218 0)
(-0.0943392 0.476453 0)
(0.143619 0.631649 0)
(0.0611393 0.862028 0)
(0.0639451 0.438332 0)
(-0.130669 0.165314 0)
(-0.266522 0.0643538 0)
(-0.25732 0.0959132 0)
(-0.553896 0.0276391 0)
(-0.54989 -0.0720634 0)
(-0.398755 -0.12652 0)
(-0.539211 -0.0685785 0)
(-0.493044 -0.239006 0)
(-0.441383 -0.170551 0)
(-0.402031 -0.11111 0)
(-0.776156 -0.18399 0)
(-0.992414 -0.289101 0)
(-0.767515 -0.0874643 0)
(-0.590672 -0.129194 0)
(-1.0855 0.14753 0)
(-1.22312 0.31169 0)
(-0.772879 0.219172 0)
(-0.669399 0.167974 0)
(-0.69072 0.138722 0)
(-0.0386066 0.482538 0)
(0.0444254 1.08893 0)
(-0.126781 1.06456 0)
(-0.0440002 0.479106 0)
(-0.298012 0.420469 0)
(-0.230861 0.258756 0)
(-0.156427 0.225353 0)
(-0.374274 -0.0704248 0)
(-0.377224 0.162805 0)
(-0.248668 0.034212 0)
(-0.475791 -0.0646436 0)
(-0.413528 -0.148542 0)
(-0.214887 -0.0671322 0)
(-0.473788 -0.0512024 0)
(-0.854772 -0.16365 0)
(-0.823473 0.117445 0)
(-0.701195 0.243787 0)
(-0.829782 0.152583 0)
(-0.811371 -0.0428314 0)
(-0.916565 0.21442 0)
(-0.891835 0.280298 0)
(-0.763301 0.213795 0)
(-0.720863 0.166212 0)
(0.0824739 0.461166 0)
(-0.0470586 0.947985 0)
(-0.307381 0.966766 0)
(-0.0425627 0.60899 0)
(-0.0680761 0.647384 0)
(-0.400965 0.452074 0)
(-0.329273 0.188293 0)
(-0.399077 0.105945 0)
(-0.356151 0.143723 0)
(-0.385683 -0.169912 0)
(-0.701563 -0.192578 0)
(-0.551142 -0.0784747 0)
(-0.542583 -0.0703518 0)
(-0.755499 -0.0302245 0)
(-0.856435 0.0873765 0)
(-0.861066 0.245884 0)
(-0.806536 0.183167 0)
(-0.902206 0.14415 0)
(-0.910718 0.113522 0)
(-0.905618 0.12387 0)
(-0.7798 0.148336 0)
(-0.724128 0.140651 0)
(-0.677713 0.0361478 0)
(-0.0641082 0.43577 0)
(-0.0263859 0.598347 0)
(-0.121056 1.10724 0)
(-0.00987248 0.845813 0)
(-0.211572 0.817772 0)
(-0.423929 0.467286 0)
(-0.35313 0.17228 0)
(-0.297049 0.129788 0)
(-0.50478 0.0941028 0)
(-0.533701 -0.034672 0)
(-0.502967 0.0533962 0)
(-0.641946 0.192095 0)
(-0.658594 0.22651 0)
(-0.834505 0.128857 0)
(-0.836935 0.0259106 0)
(-0.902198 0.195715 0)
(-0.903207 0.113881 0)
(-0.823854 0.0961076 0)
(-0.782002 0.0634065 0)
(-0.739343 0.0968933 0)
(-0.663885 0.0645879 0)
(-0.644901 0.0463662 0)
(-0.646556 0.0473675 0)
(-0.0912543 0.609525 0)
(0.249987 0.857438 0)
(0.15993 0.965619 0)
(-0.0868832 0.880555 0)
(-0.168596 0.765848 0)
(-0.551285 0.455872 0)
(-0.469771 0.286053 0)
(-0.402725 0.210347 0)
(-0.484076 0.0850496 0)
(-0.505984 0.179732 0)
(-0.604579 0.0663032 0)
(-0.488704 0.206492 0)
(-0.91288 0.153557 0)
(-1.13162 0.118062 0)
(-0.855028 0.213169 0)
(-0.779863 0.201962 0)
(-0.801871 0.135722 0)
(-0.688078 0.0296674 0)
(-0.678101 0.00174213 0)
(-0.629723 0.0156559 0)
(-0.630885 0.0318555 0)
(-0.653516 0.021116 0)
(-0.702735 -0.00485634 0)
(-0.0428965 1.03774 0)
(0.00446362 1.13673 0)
(0.0289295 0.725463 0)
(-0.0527004 1.05729 0)
(-0.267114 0.70916 0)
(-0.412303 0.446085 0)
(-0.343922 0.466298 0)
(-0.424799 0.260712 0)
(-0.402404 0.161978 0)
(-0.425219 0.139521 0)
(-0.381841 0.122998 0)
(-0.598204 0.138005 0)
(-0.905881 0.129087 0)
(-0.846186 0.400841 0)
(-0.706105 0.379811 0)
(-0.776565 0.154714 0)
(-0.676096 -0.0150181 0)
(-0.652788 -0.0444271 0)
(-0.592163 0.0191071 0)
(-0.564662 0.045502 0)
(-0.500855 0.114412 0)
(-0.469495 0.126866 0)
(-0.425497 0.0778766 0)
(0.190398 0.784851 0)
(-0.164364 0.909173 0)
(-0.0528691 0.908764 0)
(0.17818 1.48205 0)
(-0.214918 0.809594 0)
(-0.350306 0.65844 0)
(-0.292112 0.484322 0)
(-0.46002 0.361297 0)
(-0.365434 0.163059 0)
(-0.469538 0.122412 0)
(-0.638153 0.158729 0)
(-0.541 0.185208 0)
(-0.596317 0.249702 0)
(-0.804749 0.355841 0)
(-0.774561 0.283251 0)
(-0.786623 0.155629 0)
(-0.647644 0.0787258 0)
(-0.451911 -0.0185492 0)
(-0.646193 -0.142024 0)
(-0.771452 -0.108235 0)
(-0.300084 -0.0550086 0)
(-0.190139 0.0341438 0)
(-0.176062 -0.0803823 0)
(0.133878 0.812157 0)
(-0.0270326 0.542903 0)
(0.277867 1.13245 0)
(0.098374 1.39153 0)
(-0.316463 0.924694 0)
(-0.319656 0.824127 0)
(-0.193239 0.63074 0)
(-0.452035 0.376822 0)
(-0.245306 0.110035 0)
(-0.25551 -0.114431 0)
(-0.54404 0.215909 0)
(-0.560863 0.391651 0)
(-0.704412 0.297817 0)
(-0.627716 0.308845 0)
(-0.591111 0.243417 0)
(-0.59259 0.171751 0)
(-0.514527 0.24146 0)
(-0.341343 -0.144242 0)
(-0.207444 -0.296132 0)
(-0.282262 -0.0917619 0)
(-0.175833 0.01577 0)
(-0.0636976 -0.124626 0)
(0.0160449 -0.111395 0)
(0.172496 0.74642 0)
(0.197036 0.588669 0)
(0.0944085 0.826828 0)
(-0.0160015 1.06896 0)
(-0.160538 0.929847 0)
(-0.154626 0.8533 0)
(-0.201593 0.598748 0)
(-0.421524 0.168135 0)
(-0.381212 0.108118 0)
(-0.398516 0.0701113 0)
(-0.469564 0.296697 0)
(-0.52627 0.35465 0)
(-0.529668 0.345916 0)
(-0.665428 0.41951 0)
(-0.708874 0.314881 0)
(-0.459375 0.277267 0)
(-0.458613 -0.0892669 0)
(-0.190142 -0.289652 0)
(-0.185968 -0.556709 0)
(-0.153136 -0.436785 0)
(-0.0149872 -0.233724 0)
(0.0318694 -0.318717 0)
(0.171516 -0.104725 0)
(-0.0109411 0.421876 0)
(0.0443798 0.462323 0)
(0.072918 0.569272 0)
(0.038319 1.2159 0)
(-0.132649 1.05582 0)
(-0.0942623 0.762827 0)
(-0.143485 0.492155 0)
(-0.260828 0.209983 0)
(-0.160847 0.144936 0)
(-0.355917 0.301425 0)
(-0.432194 0.362925 0)
(-0.504983 0.413872 0)
(-0.553824 0.340825 0)
(-0.575776 0.423155 0)
(-0.571125 0.450832 0)
(-0.527082 0.25983 0)
(-0.593967 -0.0325019 0)
(-0.110426 -0.429711 0)
(-0.173176 -0.368583 0)
(-0.00837959 -0.406538 0)
(0.0778062 -0.192201 0)
(0.0282694 -0.100021 0)
(0.0663411 -0.201377 0)
(0.0294005 0.216789 0)
(0.124908 0.454032 0)
(0.113046 0.732746 0)
(0.103126 1.28095 0)
(0.000531035 1.1007 0)
(0.00238204 0.77851 0)
(0.0249282 0.586586 0)
(-0.13437 0.272222 0)
(-0.220319 0.506194 0)
(-0.27422 0.373087 0)
(-0.45764 0.407232 0)
(-0.586571 0.48042 0)
(-0.492622 0.45154 0)
(-0.434135 0.424292 0)
(-0.613077 0.252853 0)
(-0.36926 -0.197574 0)
(-0.242479 -0.311175 0)
(-0.0497432 -0.403553 0)
(-0.148429 -0.247276 0)
(-0.0826656 -0.268391 0)
(-0.0941906 -0.29151 0)
(-0.0226093 -0.249646 0)
(0.0441643 -0.0566894 0)
(0.0708353 0.221599 0)
(0.145412 0.392732 0)
(0.108456 0.760191 0)
(0.115497 1.24966 0)
(0.0620055 1.13166 0)
(0.119159 0.825795 0)
(-0.106331 0.579362 0)
(0.0886868 0.610291 0)
(-0.153116 0.411864 0)
(-0.377408 0.528617 0)
(-0.368869 0.665364 0)
(-0.521209 0.544024 0)
(-0.570823 0.505012 0)
(-0.399489 0.214664 0)
(-0.412522 0.00249039 0)
(0.00382569 -0.353668 0)
(-0.105369 -0.399876 0)
(-0.0562411 -0.41236 0)
(-0.159871 -0.361303 0)
(-0.0964846 -0.366524 0)
(-0.0602014 -0.254703 0)
(-0.258596 -0.251607 0)
(-0.177037 -0.155393 0)
(0.03029 0.177442 0)
(0.0980651 0.428633 0)
(0.066942 0.806391 0)
(0.0701552 1.19876 0)
(0.0740849 1.21518 0)
(0.102635 0.862093 0)
(0.063357 0.664436 0)
(-0.262446 0.638654 0)
(-0.261106 0.660904 0)
(-0.208871 0.641961 0)
(-0.511596 0.709368 0)
(-0.666742 0.577758 0)
(-0.512294 0.457584 0)
(-0.213038 0.2286 0)
(-0.235001 -0.155909 0)
(-0.00013164 -0.280302 0)
(-0.11051 -0.312791 0)
(-0.0328535 -0.374836 0)
(-0.0653568 -0.368883 0)
(-0.211365 -0.355746 0)
(-0.293224 -0.427624 0)
(-0.325921 -0.299508 0)
(-0.19436 -0.167902 0)
(0.0347401 -0.0673238 0)
(-0.0193652 0.361268 0)
(-0.019431 0.87018 0)
(0.059697 1.14226 0)
(0.0586143 1.18065 0)
(0.05152 0.923489 0)
(-0.25254 0.706276 0)
(-0.168801 0.783777 0)
(-0.390909 0.914219 0)
(-0.532275 0.685634 0)
(-0.556286 0.619225 0)
(-0.566726 0.576562 0)
(-0.319428 0.452417 0)
(-0.362225 -0.0298194 0)
(0.0317426 -0.238696 0)
(-0.117026 -0.402652 0)
(0.0714925 -0.361082 0)
(-0.0892788 -0.527519 0)
(-0.223305 -0.568995 0)
(-0.16113 -0.597433 0)
(-0.20056 -0.55575 0)
(-0.222936 -0.440456 0)
(-0.184482 -0.411145 0)
(-0.109429 0.191125 0)
(-0.0978691 0.482067 0)
(-0.17307 0.717385 0)
(-0.0058413 1.16075 0)
(-0.0149545 1.24934 0)
(-0.303983 1.08967 0)
(-0.42183 1.01441 0)
(-0.452505 1.16141 0)
(-0.514036 0.828361 0)
(-0.537328 0.746374 0)
(-0.529627 0.647143 0)
(-0.395059 0.349993 0)
(-0.102491 0.0617667 0)
(-0.159702 -0.300091 0)
(-0.0538898 -0.26548 0)
(-0.152374 -0.388434 0)
(-0.204725 -0.364252 0)
(-0.189224 -0.421621 0)
(-0.101317 -0.290239 0)
(-0.114552 -0.314722 0)
(-0.0362602 -0.314525 0)
(-0.0840557 -0.313478 0)
(-0.0788757 -0.222762 0)
(0.0532871 0.363839 0)
(-0.386648 0.443063 0)
(-0.432443 0.775136 0)
(-0.151686 1.01449 0)
(-0.328787 1.21106 0)
(-0.591928 1.15374 0)
(-0.568561 1.17287 0)
(-0.665753 1.06048 0)
(-0.650126 0.847439 0)
(-0.510011 0.677774 0)
(-0.442707 0.527604 0)
(-0.153059 0.133658 0)
(-0.068174 -0.0368066 0)
(0.0052391 -0.420417 0)
(-0.0974975 -0.35991 0)
(-0.00987575 -0.393977 0)
(0.0257291 -0.328366 0)
(-0.0678513 -0.220041 0)
(-0.0932009 -0.250689 0)
(-0.131158 -0.242703 0)
(-0.0968647 -0.250617 0)
(-0.0511657 -0.213606 0)
(0.00969641 -0.164207 0)
(-0.161691 0.871851 0)
(-0.365423 0.622543 0)
(-0.389286 0.90634 0)
(-0.449627 1.06597 0)
(-0.679681 1.20072 0)
(-0.722964 1.21063 0)
(-0.740274 1.10171 0)
(-0.627593 0.839212 0)
(-0.566882 0.717701 0)
(-0.305765 0.520526 0)
(-0.136617 0.332326 0)
(-0.0339326 -0.0304731 0)
(-0.0647979 -0.110963 0)
(0.0214064 -0.239913 0)
(0.00463136 -0.236309 0)
(-0.00663032 -0.204236 0)
(-0.053465 -0.305582 0)
(-0.0758539 -0.271469 0)
(-0.0462994 -0.322374 0)
(-0.0762344 -0.284729 0)
(-0.0575086 -0.244908 0)
(-0.0329965 -0.184851 0)
(-0.00330697 -0.139846 0)
(-0.355597 1.30538 0)
(-0.45368 1.0272 0)
(-0.521329 1.14619 0)
(-0.720171 1.32165 0)
(-0.780538 1.42526 0)
(-0.842561 1.24818 0)
(-0.691629 1.08445 0)
(-0.400511 0.759573 0)
(-0.243366 0.626464 0)
(0.0186796 0.722834 0)
(-0.215519 0.309882 0)
(0.0446419 0.0305582 0)
(-0.106431 -0.204482 0)
(0.127794 -0.197537 0)
(-0.048331 -0.337158 0)
(-0.0486536 -0.290836 0)
(-0.0163233 -0.31801 0)
(-0.0192202 -0.232311 0)
(0.00735296 -0.239423 0)
(-0.0302603 -0.259348 0)
(-0.0572239 -0.258977 0)
(0.00950598 -0.275313 0)
(0.0333671 -0.265417 0)
(-0.516647 1.8474 0)
(-0.448651 1.71618 0)
(-0.510423 1.27914 0)
(-0.642108 1.37001 0)
(-0.787697 1.40015 0)
(-0.878639 1.21088 0)
(-0.486602 1.19314 0)
(-0.260192 0.935956 0)
(-0.0150576 0.980462 0)
(-0.137037 0.648828 0)
(-0.171545 0.282981 0)
(-0.00989744 -0.13092 0)
(-0.102499 -0.307189 0)
(0.0389112 -0.282443 0)
(-0.0355217 -0.421185 0)
(0.0092902 -0.289756 0)
(-0.03496 -0.322462 0)
(0.0259034 -0.264795 0)
(-0.00437965 -0.345515 0)
(-0.128157 -0.229019 0)
(-0.101526 -0.198105 0)
(-0.0544422 -0.256802 0)
(-0.033892 -0.312624 0)
(0.0164274 2.14004 0)
(-0.493035 1.66602 0)
(-0.689217 1.40366 0)
(-0.607424 1.35344 0)
(-0.688859 1.18684 0)
(-0.562831 1.12283 0)
(-0.126911 1.10564 0)
(-0.488255 1.04249 0)
(-0.107107 0.837002 0)
(-0.257617 0.770507 0)
(-0.263187 0.259012 0)
(0.0707666 -0.200068 0)
(-0.0653377 -0.337244 0)
(-0.0320225 -0.269631 0)
(-0.054468 -0.253837 0)
(0.0253621 -0.307461 0)
(0.00429448 -0.301099 0)
(-0.0617492 -0.276778 0)
(0.0627306 -0.44558 0)
(0.0261492 -0.317089 0)
(-0.110683 -0.349105 0)
(-0.0865662 -0.284256 0)
(-0.111907 -0.265975 0)
(-0.0624449 2.29783 0)
(-0.425975 1.57387 0)
(-0.55708 1.43528 0)
(-0.440234 1.34935 0)
(-0.483771 1.21443 0)
(-0.367566 1.2115 0)
(-0.207863 0.762252 0)
(-0.307842 0.756185 0)
(0.0359377 0.553574 0)
(-0.179544 0.56415 0)
(-0.274961 0.086102 0)
(-0.041998 -0.275186 0)
(-0.0473569 -0.219291 0)
(0.00690233 -0.204157 0)
(-0.033265 -0.189008 0)
(-0.0308341 -0.311915 0)
(0.00181102 -0.256688 0)
(-0.0990773 -0.33307 0)
(-0.065496 -0.446268 0)
(-0.0594042 -0.445933 0)
(-0.0933603 -0.416542 0)
(-0.0180985 -0.344586 0)
(-0.0530269 -0.253887 0)
(-0.12261 2.97176 0)
(-0.409404 1.83265 0)
(-0.38063 1.418 0)
(-0.258107 1.25874 0)
(-0.32748 1.10757 0)
(-0.350315 0.865672 0)
(-0.338239 0.659131 0)
(-0.273807 0.66544 0)
(-0.0426092 0.511948 0)
(-0.0501593 0.435793 0)
(-0.00487798 0.131181 0)
(0.0311291 -0.233355 0)
(-0.0439385 -0.130233 0)
(-0.0616462 -0.28611 0)
(-0.115334 -0.253661 0)
(-0.0477277 -0.312522 0)
(-0.0569656 -0.24196 0)
(-0.159366 -0.275997 0)
(-0.0243411 -0.342034 0)
(0.0344063 -0.445085 0)
(-0.0611119 -0.315229 0)
(-0.00155287 -0.326996 0)
(-0.0174159 -0.248681 0)
(-0.330055 2.84145 0)
(-0.631696 1.8297 0)
(-0.439944 1.38411 0)
(-0.188941 1.23559 0)
(-0.294935 0.967891 0)
(-0.10364 0.577962 0)
(-0.191418 0.476268 0)
(-0.0324555 0.471575 0)
(-0.249588 0.516205 0)
(-0.0671049 0.449974 0)
(-0.116487 0.0692368 0)
(0.096183 -0.215753 0)
(-0.130307 -0.198781 0)
(-0.0816524 -0.340612 0)
(-0.040291 -0.311141 0)
(-0.020806 -0.243872 0)
(0.00259028 -0.272563 0)
(-0.14682 -0.264842 0)
(-0.156643 -0.268622 0)
(-0.0770856 -0.319341 0)
(0.00369192 -0.43697 0)
(-0.020497 -0.344243 0)
(-0.0631281 -0.245089 0)
(-0.251631 2.4128 0)
(-0.573194 1.66033 0)
(-0.375676 1.37313 0)
(-0.165648 1.19347 0)
(-0.273335 0.984436 0)
(-0.133636 0.62836 0)
(-0.25835 0.499316 0)
(-0.0855424 0.376554 0)
(-0.243154 0.45753 0)
(-0.209502 0.234534 0)
(0.0676898 0.0420715 0)
(-0.0192863 -0.260172 0)
(-0.145999 -0.274527 0)
(-0.0401175 -0.239496 0)
(0.0119073 -0.312087 0)
(-0.0497999 -0.424018 0)
(-0.120292 -0.460166 0)
(-0.00336296 -0.449496 0)
(-0.0837655 -0.432235 0)
(-0.158285 -0.286415 0)
(-0.0556157 -0.320434 0)
(0.0396447 -0.294221 0)
(-0.00381582 -0.253709 0)
(-0.232222 2.48027 0)
(-0.38352 1.62435 0)
(-0.220904 1.3486 0)
(-0.167759 1.11076 0)
(-0.20962 0.953195 0)
(-0.321875 0.604579 0)
(-0.397964 0.462145 0)
(-0.0672768 0.377345 0)
(-0.317387 0.229736 0)
(-0.226088 0.106008 0)
(-0.121882 -0.13111 0)
(-0.14338 -0.154954 0)
(-0.108719 -0.201714 0)
(0.0102049 -0.183199 0)
(-0.125266 -0.359484 0)
(-0.156328 -0.466718 0)
(-0.0383874 -0.35731 0)
(0.00749204 -0.444561 0)
(-0.0576915 -0.505888 0)
(-0.0378792 -0.345588 0)
(0.012799 -0.2721 0)
(-0.0859629 -0.422934 0)
(-0.170455 -0.441815 0)
(-0.273953 2.60331 0)
(-0.349145 1.70402 0)
(-0.111966 1.27715 0)
(-0.195038 1.08431 0)
(-0.098805 0.887181 0)
(-0.418285 0.714293 0)
(-0.431521 0.506651 0)
(-0.0657648 0.399829 0)
(-0.258801 0.324189 0)
(-0.179416 0.139821 0)
(-0.1147 0.00611798 0)
(-0.0937179 0.00229565 0)
(-0.133128 -0.221608 0)
(-0.150464 -0.243416 0)
(-0.176672 -0.266703 0)
(-0.0612499 -0.291703 0)
(-0.0915426 -0.285717 0)
(-0.11511 -0.418978 0)
(-0.0397827 -0.300809 0)
(-0.0145684 -0.350362 0)
(-0.0315156 -0.318004 0)
(-0.0788518 -0.519998 0)
(-0.00108306 -0.289452 0)
(-0.229866 2.64586 0)
(-0.258502 1.74206 0)
(-0.0468044 1.24557 0)
(-0.215077 1.09506 0)
(-0.0921262 0.917658 0)
(-0.400133 0.790571 0)
(-0.481303 0.505302 0)
(-0.262655 0.363856 0)
(-0.382683 0.274534 0)
(-0.359802 0.0217498 0)
(-0.261448 -0.0451346 0)
(-0.302633 -0.22051 0)
(-0.177347 -0.187311 0)
(-0.0825813 -0.301439 0)
(-0.138656 -0.302282 0)
(-0.161324 -0.282154 0)
(-0.137653 -0.308758 0)
(-0.0471223 -0.295149 0)
(-0.00321446 -0.259968 0)
(-0.038674 -0.30728 0)
(-0.0930385 -0.279146 0)
(-0.0239949 -0.293014 0)
(0.00853934 -0.191545 0)
(-0.205166 2.74511 0)
(-0.197011 1.75963 0)
(-0.0177728 1.25594 0)
(-0.214817 1.12419 0)
(-0.114282 1.0026 0)
(-0.430291 0.771699 0)
(-0.576401 0.433559 0)
(-0.548141 0.391214 0)
(-0.290389 0.43968 0)
(-0.240662 0.160234 0)
(-0.356595 -0.0767174 0)
(-0.308557 -0.299809 0)
(-0.216288 -0.196942 0)
(-0.220803 -0.311551 0)
(-0.116877 -0.295775 0)
(-0.0907205 -0.276239 0)
(-0.116334 -0.238614 0)
(-0.0651989 -0.264394 0)
(-0.0413925 -0.299122 0)
(-0.0252156 -0.314442 0)
(-0.0034234 -0.254906 0)
(-0.0288272 -0.277688 0)
(-0.12283 -0.234982 0)
(-0.171377 2.85455 0)
(-0.166363 1.77071 0)
(-0.0159375 1.28318 0)
(-0.233737 1.17794 0)
(-0.16501 1.08166 0)
(-0.455903 0.750595 0)
(-0.603266 0.632443 0)
(-0.614944 0.520097 0)
(-0.444344 0.292677 0)
(-0.697647 -0.0308026 0)
(-0.767702 -0.0566577 0)
(-0.391926 -0.39232 0)
(-0.18793 -0.301673 0)
(-0.146894 -0.316239 0)
(-0.0737815 -0.300016 0)
(-0.146269 -0.43027 0)
(-0.172213 -0.33641 0)
(-0.107217 -0.229475 0)
(-0.0288963 -0.320751 0)
(-0.0266769 -0.318234 0)
(-0.0529953 -0.306841 0)
(-0.00105343 -0.501378 0)
(-0.0181638 -0.307181 0)
(-0.189101 2.91288 0)
(-0.140914 1.78049 0)
(-0.0511933 1.32804 0)
(-0.278806 1.26843 0)
(-0.184275 1.18519 0)
(-0.506129 0.731108 0)
(-0.920965 0.814531 0)
(-0.869422 0.491357 0)
(-0.444096 0.163073 0)
(-0.565792 -0.167303 0)
(-0.571686 -0.334011 0)
(-0.35387 -0.239405 0)
(-0.264282 -0.486388 0)
(-0.290859 -0.451397 0)
(-0.208047 -0.414268 0)
(-0.147657 -0.419088 0)
(0.0115866 -0.406426 0)
(-0.0459965 -0.419797 0)
(-0.0938873 -0.278488 0)
(-0.072497 -0.305072 0)
(-0.0807929 -0.314009 0)
(-0.0166802 -0.26955 0)
(-0.00959177 -0.271702 0)
(-0.177998 3.0051 0)
(-0.121545 1.81649 0)
(-0.0728793 1.40352 0)
(-0.319714 1.35152 0)
(-0.326622 1.29282 0)
(-0.645084 0.796311 0)
(-1.17859 0.997713 0)
(-0.908313 0.860853 0)
(-0.51245 0.195831 0)
(-0.763466 -0.184669 0)
(-0.586729 -0.458641 0)
(-0.464605 -0.470785 0)
(-0.443785 -0.582172 0)
(-0.211328 -0.549461 0)
(-0.0690685 -0.429652 0)
(-0.142542 -0.356444 0)
(-0.159879 -0.405902 0)
(0.0464932 -0.433417 0)
(0.0543029 -0.464114 0)
(-0.119267 -0.31384 0)
(-0.00848484 -0.25696 0)
(0.0231061 -0.236768 0)
(0.0118843 -0.241409 0)
(-0.205521 3.07225 0)
(-0.138343 1.85495 0)
(-0.18621 1.53109 0)
(-0.444708 1.54904 0)
(-0.486359 1.51123 0)
(-0.603829 0.896183 0)
(-0.962357 0.998236 0)
(-0.922505 0.729452 0)
(-0.888376 -0.201734 0)
(-0.739161 -0.476335 0)
(-0.539786 -0.543893 0)
(-0.472252 -0.618079 0)
(-0.344729 -0.66677 0)
(-0.237201 -0.575516 0)
(-0.0655759 -0.513201 0)
(-0.138748 -0.459563 0)
(-0.076042 -0.410122 0)
(-0.104467 -0.306659 0)
(-0.0231608 -0.444738 0)
(0.128534 -0.349293 0)
(-0.0168596 -0.409621 0)
(-0.0276422 -0.250375 0)
(-0.0665939 -0.323354 0)
(-0.208446 3.15208 0)
(-0.172939 1.93477 0)
(-0.228885 1.69757 0)
(-0.49917 1.65114 0)
(-0.556341 1.44386 0)
(-0.79912 1.25065 0)
(-0.838485 1.36988 0)
(-0.730184 1.03667 0)
(-0.582527 -0.0965946 0)
(-0.628783 -0.525223 0)
(-0.350179 -0.728836 0)
(-0.402718 -0.690636 0)
(-0.428497 -0.652879 0)
(-0.121056 -0.504462 0)
(-0.0159824 -0.538551 0)
(-0.0756997 -0.444182 0)
(-0.0761985 -0.440924 0)
(-0.0212452 -0.348673 0)
(-0.0146928 -0.315617 0)
(-0.0233172 -0.289933 0)
(0.0275543 -0.555638 0)
(0.00692318 -0.264792 0)
(0.0693024 -0.475947 0)
(-0.276595 3.28608 0)
(-0.172364 2.07927 0)
(-0.456923 1.90395 0)
(-0.696048 1.7695 0)
(-0.500661 1.63353 0)
(-0.412568 1.51704 0)
(-0.608314 1.52207 0)
(-0.82302 1.04236 0)
(-0.630163 -0.177426 0)
(-0.323284 -0.729251 0)
(-0.340906 -0.928537 0)
(-0.369639 -0.788677 0)
(-0.309617 -0.597586 0)
(-0.125235 -0.561904 0)
(-0.0717542 -0.531071 0)
(-0.0960257 -0.341202 0)
(-0.0937801 -0.413271 0)
(-0.040328 -0.420785 0)
(0.0278097 -0.372586 0)
(-0.120427 -0.453294 0)
(-0.109498 -0.377545 0)
(0.00512822 -0.309929 0)
(-0.0170807 -0.282003 0)
(-0.261906 3.38346 0)
(-0.171271 2.221 0)
(-0.44169 1.9457 0)
(-0.73684 2.04292 0)
(-0.569247 2.20192 0)
(-0.488032 1.79132 0)
(-0.600538 2.03444 0)
(-0.694287 0.6585 0)
(-0.33288 -0.0669186 0)
(-0.20989 -0.834521 0)
(-0.186959 -0.990967 0)
(-0.268186 -0.680146 0)
(-0.322911 -0.635353 0)
(-0.128272 -0.678864 0)
(0.00651705 -0.576316 0)
(-0.0443194 -0.56649 0)
(-0.196289 -0.44239 0)
(-0.0659639 -0.444997 0)
(-0.0477878 -0.299467 0)
(-0.0454215 -0.561705 0)
(-0.0307054 -0.321357 0)
(-0.0438873 -0.318574 0)
(-0.0451115 -0.192873 0)
(-0.31559 3.59142 0)
(-0.096186 2.56851 0)