/*--------------------------------*- C++ -*----------------------------------*\
| =========                 |                                                 |
| \\      /  F ield         | foam-extend: Open Source CFD                    |
|  \\    /   O peration     | Version:     4.1                                |
|   \\  /    A nd           | Web:         http://www.foam-extend.org         |
|    \\/     M anipulation  |                                                 |
\*---------------------------------------------------------------------------*/
FoamFile
{
    version     2.0;
    format      ascii;
    class       volVectorField;
    location    "1";
    object      U_0;
}
// * * * * * * * * * * * * * * * * * * * * * * * * * * * * * * * * * * * * * //

dimensions      [0 1 -1 0 0 0 0];

internalField   nonuniform List<vector> 
2268
(
(-0.0887949 0.0210887 0)
(-0.309519 0.0169965 0)
(-0.341674 -0.0180358 0)
(-0.282064 -0.0649111 0)
(-0.305365 -0.046499 0)
(-0.0843186 -0.05969 0)
(-0.036121 0.0651075 0)
(-0.235137 0.00111162 0)
(-0.134894 -0.0565687 0)
(-0.129271 0.0693464 0)
(-0.120089 -0.0139695 0)
(-0.114863 0.0268517 0)
(-0.119961 -0.0283385 0)
(-0.0163773 -0.0376343 0)
(0.00438179 0.000123621 0)
(0.0348184 -0.0143783 0)
(0.077503 0.00197452 0)
(0.0633371 0.020071 0)
(0.03251 0.00738794 0)
(0.00240741 -0.0114035 0)
(0.00198233 -0.0101941 0)
(0.0314659 0.0011557 0)
(-0.00686719 0.00176227 0)
(-0.0350864 0.168505 0)
(-0.387387 0.188832 0)
(-0.503123 -0.00609324 0)
(-0.422678 0.0465561 0)
(-0.454476 -0.140022 0)
(-0.398752 -0.0177787 0)
(-0.406802 0.0443616 0)
(-0.479176 0.0309119 0)
(-0.254365 -0.0492349 0)
(-0.234155 -0.0196591 0)
(-0.149431 0.00921261 0)
(-0.154815 -0.0283321 0)
(-0.140065 -0.0153844 0)
(-0.0394296 -0.07948 0)
(0.00769295 -0.0211472 0)
(0.0335779 -0.0232061 0)
(0.0805796 -0.0132719 0)
(0.0579678 -0.00167405 0)
(0.0585279 0.0213199 0)
(0.0547929 0.026963 0)
(0.0171261 -0.00520941 0)
(0.0125933 0.00409025 0)
(0.0116133 0.0210072 0)
(-0.167354 0.217392 0)
(-0.440432 0.134758 0)
(-0.454178 0.0136179 0)
(-0.449232 0.0943451 0)
(-0.501658 -0.167069 0)
(-0.397737 -0.0840988 0)
(-0.450622 -0.0831416 0)
(-0.404949 -0.0469138 0)
(-0.165236 -0.0447463 0)
(-0.201767 -0.061223 0)
(-0.154405 0.0331506 0)
(-0.194009 -0.0395129 0)
(-0.147036 -0.0482619 0)
(0.0788576 -0.185966 0)
(0.096435 -0.034899 0)
(0.014692 -0.0239049 0)
(0.0593397 -0.000790425 0)
(0.0607442 0.000682649 0)
(0.0767776 0.0349673 0)
(0.0576249 0.0253871 0)
(0.0155195 -0.00708644 0)
(0.0104003 0.0109071 0)
(0.00731557 0.0235958 0)
(-0.182685 0.257352 0)
(-0.387296 0.147104 0)
(-0.321485 0.180613 0)
(-0.501756 0.0821084 0)
(-0.531112 -0.0186674 0)
(-0.430897 -0.0950107 0)
(-0.539269 -0.134335 0)
(-0.556731 -0.0331551 0)
(-0.296854 0.0415528 0)
(-0.204861 -0.0468533 0)
(-0.11102 0.0141241 0)
(-0.124132 -0.124281 0)
(-0.0615975 -0.128381 0)
(0.100621 -0.179021 0)
(0.23621 -0.021241 0)
(0.0515366 0.00428494 0)
(0.0514431 -0.0524285 0)
(0.0371348 0.016329 0)
(0.0702189 0.0208488 0)
(0.0491485 0.021601 0)
(0.015268 0.0152036 0)
(0.00908222 0.00274971 0)
(0.000258294 0.00700699 0)
(-0.189564 0.357036 0)
(-0.301999 0.454214 0)
(-0.346811 0.203961 0)
(-0.473608 0.0523766 0)
(-0.45674 0.0151899 0)
(-0.38139 -0.186203 0)
(-0.490191 -0.266255 0)
(-0.529235 -0.123245 0)
(-0.363167 -0.219929 0)
(-0.185957 -0.0909765 0)
(-0.109701 -0.00015849 0)
(-0.15352 -0.236946 0)
(-0.0388558 -0.0613971 0)
(-0.0253574 -0.175098 0)
(0.194216 0.0471591 0)
(0.0160527 0.0182197 0)
(0.0365629 -0.00756821 0)
(0.0617848 0.00402609 0)
(0.0699869 0.0623575 0)
(0.0385177 0.0296382 0)
(-0.0150819 0.0359627 0)
(-0.00373091 0.0414415 0)
(-0.00741262 0.0586666 0)
(-0.074534 0.387494 0)
(-0.268941 0.443565 0)
(-0.38725 0.262559 0)
(-0.430993 0.0540729 0)
(-0.351955 -0.0572851 0)
(-0.35631 -0.140728 0)
(-0.40446 -0.267527 0)
(-0.564682 -0.0943782 0)
(-0.539001 -0.21668 0)
(-0.238178 -0.108003 0)
(-0.203268 -0.00572121 0)
(-0.171305 -0.167505 0)
(-0.0504393 -0.216519 0)
(-0.074121 -0.258641 0)
(0.143247 0.0847591 0)
(0.0168209 0.0322509 0)
(0.107185 -0.0842801 0)
(0.0597334 0.0382566 0)
(0.0674385 0.0953423 0)
(0.0159539 0.0495465 0)
(-0.00412078 0.0310563 0)
(0.00884344 -0.016889 0)
(-0.0172424 -0.0343927 0)
(-0.0781086 0.429416 0)
(-0.193111 0.368002 0)
(-0.324261 0.289719 0)
(-0.37669 0.0615775 0)
(-0.371347 -0.0944114 0)
(-0.343187 -0.139296 0)
(-0.383269 -0.171957 0)
(-0.48515 -0.104592 0)
(-0.459021 -0.0946504 0)
(-0.295279 -0.0912136 0)
(-0.269626 -0.0835877 0)
(-0.119323 -0.113991 0)
(-0.0748884 -0.282478 0)
(-0.0855718 -0.289147 0)
(0.0364513 0.0305936 0)
(0.0243355 -0.0113218 0)
(0.151496 -0.102748 0)
(0.0805671 0.0400217 0)
(-0.00102793 0.118948 0)
(-0.0277467 0.0408612 0)
(-0.0462965 0.0398801 0)
(-0.0246802 0.0797251 0)
(-0.0319112 0.0841528 0)
(-0.0474383 0.511937 0)
(-0.183259 0.445523 0)
(-0.291053 0.348533 0)
(-0.397094 0.0574762 0)
(-0.396497 -0.0956762 0)
(-0.379869 -0.155891 0)
(-0.392538 -0.155959 0)
(-0.480008 -0.262563 0)
(-0.412378 -0.088629 0)
(-0.233188 -0.202252 0)
(-0.287602 -0.229675 0)
(-0.177745 -0.185512 0)
(-0.0500236 -0.120969 0)
(-0.17461 -0.317432 0)
(0.00691079 0.0547575 0)
(0.126763 -0.0345041 0)
(0.169322 -0.0509759 0)
(0.175619 0.0714916 0)
(0.0215397 0.16615 0)
(-0.0854222 0.11003 0)
(-0.0515677 0.0170466 0)
(0.0377396 -0.0562279 0)
(0.0510571 -0.0981188 0)
(-0.437127 0.126583 0)
(-0.609732 0.0651614 0)
(-0.82544 0.0678828 0)
(-0.984923 0.0384063 0)
(-1.00564 -0.0576785 0)
(-0.956904 -0.0425176 0)
(-0.942249 -0.0303587 0)
(-0.983466 -0.174601 0)
(-1.0505 -0.0751552 0)
(-0.855343 -0.129266 0)
(-0.838986 -0.0347721 0)
(-0.759116 0.0900169 0)
(-0.581238 -0.0505278 0)
(-0.517446 -0.0265395 0)
(-0.424879 -0.0726743 0)
(-0.371525 -0.0402656 0)
(-0.351933 -0.0734418 0)
(-0.279634 0.0300361 0)
(-0.0471705 -0.0419988 0)
(-0.323305 0.350139 0)
(-0.435751 0.105569 0)
(-0.633596 0.0691688 0)
(-0.831222 0.0265913 0)
(-0.906874 0.0374588 0)
(-0.745108 0.0328468 0)
(-0.87588 -0.0170006 0)
(-0.955839 -0.141819 0)
(-1.00262 -0.00293351 0)
(-0.75421 0.0847978 0)
(-0.673394 0.0287867 0)
(-0.698908 0.111179 0)
(-0.390594 -0.0532747 0)
(-0.283615 -0.102843 0)
(-0.220999 -0.0667543 0)
(-0.229488 0.0118616 0)
(-0.135382 -0.0961615 0)
(-0.222433 -0.0198121 0)
(0.00515632 -0.0998815 0)
(-0.448488 0.775373 0)
(-0.345739 0.357215 0)
(-0.161206 0.208712 0)
(-0.522322 -0.127569 0)
(-0.707882 0.230477 0)
(-0.386184 -0.0669386 0)
(-0.440164 -0.272168 0)
(-0.581043 -0.176557 0)
(-0.602968 -0.060816 0)
(-0.509448 0.0584619 0)
(-0.255239 -0.11518 0)
(-0.275316 -0.211314 0)
(-0.1471 -0.0459065 0)
(0.0564105 -0.14431 0)
(0.0905482 -0.121616 0)
(-0.186168 0.051997 0)
(0.0285982 -0.0730002 0)
(-0.129371 -0.0385561 0)
(0.0260038 -0.131622 0)
(-0.386468 0.803595 0)
(-0.226347 0.573938 0)
(-0.276179 0.199966 0)
(-0.631257 0.132372 0)
(-0.710694 0.203449 0)
(-0.350822 -0.0677437 0)
(-0.246737 -0.176005 0)
(-0.256498 -0.198958 0)
(-0.241255 -0.0774283 0)
(-0.0537333 -0.0171016 0)
(-0.0690028 -0.019903 0)
(-0.00633348 -0.089482 0)
(0.111303 -0.157956 0)
(0.169235 -0.042892 0)
(0.226 -0.145761 0)
(0.104065 0.0809864 0)
(0.0866266 -0.138539 0)
(-0.0418883 -0.00627334 0)
(0.0443448 -0.153557 0)
(-0.379322 0.986939 0)
(-0.279209 0.604395 0)
(-0.345298 0.188091 0)
(-0.542694 0.0709497 0)
(-0.520335 0.0413757 0)
(-0.162502 -0.00752321 0)
(-0.139787 -0.0918742 0)
(-0.148829 -0.161863 0)
(-0.141349 -0.0220484 0)
(0.222631 -0.166603 0)
(0.0746 -0.112396 0)
(0.152544 -0.101947 0)
(0.223773 -0.148622 0)
(0.264022 -0.116359 0)
(0.286766 -0.0737852 0)
(0.256695 0.0410397 0)
(0.173209 -0.118054 0)
(0.154677 -0.0358612 0)
(0.0526405 -0.118716 0)
(-0.426333 1.05541 0)
(-0.294856 0.736964 0)
(-0.39141 0.253757 0)
(-0.35635 0.0811374 0)
(-0.328246 0.0917384 0)
(-0.0871909 -0.241901 0)
(-0.151788 -0.293095 0)
(-0.0901285 -0.229803 0)
(0.053313 -0.287212 0)
(0.162375 -0.139947 0)
(0.295245 -0.0955594 0)
(0.272884 -0.0963385 0)
(0.261311 -0.178276 0)
(0.316942 -0.150502 0)
(0.330905 0.0361425 0)
(0.296776 -0.0321581 0)
(0.228709 0.0521639 0)
(0.212041 -0.0174237 0)
(0.0528199 -0.075185 0)
(-0.429825 1.34145 0)
(-0.454268 0.932374 0)
(-0.471372 0.26765 0)
(-0.329377 -0.0170308 0)
(-0.348576 -0.0202337 0)
(-0.0971481 -0.350068 0)
(-0.127188 -0.419402 0)
(-0.0542528 -0.0892524 0)
(0.064364 -0.363457 0)
(0.0824086 -0.187511 0)
(0.336407 0.0625652 0)
(0.309178 -0.181784 0)
(0.288719 -0.197624 0)
(0.33944 -0.151222 0)
(0.301982 0.0868013 0)
(0.278215 -0.0332966 0)
(0.230087 0.114652 0)
(0.194879 0.0073367 0)
(0.0607662 -0.0580085 0)
(-0.48765 1.34075 0)
(-0.746702 0.730384 0)
(-0.680929 0.0859213 0)
(-0.3457 -0.101493 0)
(-0.206808 -0.0367175 0)
(-0.178274 -0.212009 0)
(-0.0898941 -0.283005 0)
(-0.0180415 -0.369774 0)
(0.0482709 -0.398109 0)
(0.0495964 -0.272358 0)
(0.299909 -0.0791862 0)
(0.277897 -0.188583 0)
(0.298368 -0.184379 0)
(0.35906 -0.137252 0)
(0.28049 0.0422723 0)
(0.215461 0.00323443 0)
(0.201106 0.0962043 0)
(0.148741 0.0374228 0)
(0.086672 -0.0251721 0)
(-0.0155788 0.568801 0)
(-0.0403627 0.557424 0)
(-0.217745 0.419013 0)
(-0.301828 0.169741 0)
(-0.249512 -0.106418 0)
(-0.316176 -0.168438 0)
(-0.497958 -0.147603 0)
(-0.527343 -0.258613 0)
(-0.375495 -0.144002 0)
(-0.304164 -0.310269 0)
(-0.261516 -0.324443 0)
(-0.214699 -0.19755 0)
(-0.0950779 0.0112099 0)
(-0.273023 -0.432277 0)
(-0.18995 -0.206592 0)
(-0.0613591 -0.212696 0)
(-0.0471651 -0.123908 0)
(0.0877488 0.0656134 0)
(0.15368 0.0718199 0)
(0.143025 0.0178774 0)
(0.283809 -0.0669533 0)
(0.0978928 0.0866227 0)
(-0.0139353 0.345492 0)
(-0.0193279 0.542943 0)
(0.0422774 0.583049 0)
(-0.0126558 0.372191 0)
(-0.162368 0.263067 0)
(-0.224119 -0.0143293 0)
(-0.0466147 -0.0813791 0)
(-0.332977 -0.220524 0)
(-0.480831 -0.0898092 0)
(-0.374385 -0.167736 0)
(-0.361678 -0.271962 0)
(-0.40668 -0.306651 0)
(-0.407446 -0.262089 0)
(-0.548 -0.269358 0)
(-0.498111 -0.33941 0)
(-0.308446 -0.24474 0)
(-0.342879 -0.275255 0)
(-0.355359 -0.189734 0)
(-0.30084 -0.0267448 0)
(-0.290508 0.0645149 0)
(-0.264498 0.0171139 0)
(-0.17658 0.066574 0)
(-0.527145 0.222166 0)
(-0.610111 0.506914 0)
(-0.0375359 0.546796 0)
(0.0366133 0.59902 0)
(0.0182558 0.51362 0)
(0.145096 0.330128 0)
(-0.00761642 -0.00029574 0)
(-0.0153379 -0.113685 0)
(-0.162448 -0.105832 0)
(-0.308202 -0.0725191 0)
(-0.431471 -0.223512 0)
(-0.528449 -0.137029 0)
(-0.435801 -0.213986 0)
(-0.422505 -0.1412 0)
(-0.521235 -0.15841 0)
(-0.505236 -0.0794801 0)
(-0.554111 -0.125198 0)
(-0.585925 -0.121417 0)
(-0.550751 -0.148511 0)
(-0.560149 0.0286899 0)
(-0.708414 -0.0140731 0)
(-0.755373 -0.111938 0)
(-0.676642 0.150011 0)
(-0.795241 0.299089 0)
(-0.755934 0.502754 0)
(-0.0373531 0.528081 0)
(0.12304 0.548728 0)
(-0.0223075 0.852803 0)
(0.00789033 0.358553 0)
(-0.12474 0.0874471 0)
(-0.160894 0.0676986 0)
(-0.304948 0.0196627 0)
(-0.393707 0.0395522 0)
(-0.407524 -0.208248 0)
(-0.406654 -0.0852138 0)
(-0.465535 -0.129244 0)
(-0.437799 -0.215917 0)
(-0.564455 -0.203307 0)
(-0.517675 -0.155557 0)
(-0.533131 -0.0996536 0)
(-0.618824 -0.136707 0)
(-0.512601 -0.189874 0)
(-0.736271 0.0602029 0)
(-1.14793 0.225339 0)
(-0.889936 0.0688556 0)
(-0.728667 0.113214 0)
(-0.784615 0.308421 0)
(-0.952569 0.360912 0)
(-0.0947876 0.474373 0)
(0.143783 0.631122 0)
(0.0598674 0.864533 0)
(0.064636 0.439154 0)
(-0.130303 0.165891 0)
(-0.266637 0.0646855 0)
(-0.257174 0.0976335 0)
(-0.554264 0.0297198 0)
(-0.550502 -0.0704752 0)
(-0.399693 -0.125598 0)
(-0.540644 -0.0683143 0)
(-0.49401 -0.239017 0)
(-0.441949 -0.170517 0)
(-0.402347 -0.111527 0)
(-0.774399 -0.184372 0)
(-0.989833 -0.28927 0)
(-0.765725 -0.0882922 0)
(-0.590066 -0.129343 0)
(-1.0861 0.148707 0)
(-1.22401 0.312447 0)
(-0.774155 0.218842 0)
(-0.671257 0.167274 0)
(-0.693597 0.13775 0)
(-0.0397778 0.481187 0)
(0.0420971 1.08852 0)
(-0.126988 1.06468 0)
(-0.0445425 0.480134 0)
(-0.298182 0.421881 0)
(-0.232123 0.259568 0)
(-0.158244 0.226608 0)
(-0.375489 -0.0680304 0)
(-0.379218 0.164956 0)
(-0.249589 0.0357243 0)
(-0.476878 -0.0642429 0)
(-0.414966 -0.148383 0)
(-0.216061 -0.0679409 0)
(-0.473124 -0.0533858 0)
(-0.852504 -0.164408 0)
(-0.822845 0.117031 0)
(-0.70084 0.243527 0)
(-0.830591 0.154376 0)
(-0.812486 -0.0411421 0)
(-0.918373 0.21549 0)
(-0.894483 0.281291 0)
(-0.766501 0.214617 0)
(-0.725064 0.167502 0)
(0.0806389 0.462651 0)
(-0.048616 0.946642 0)
(-0.306644 0.965792 0)
(-0.0421967 0.609437 0)
(-0.0666743 0.650763 0)
(-0.402523 0.455201 0)
(-0.331251 0.190581 0)
(-0.400515 0.107906 0)
(-0.356257 0.145378 0)
(-0.386618 -0.169424 0)
(-0.701425 -0.192875 0)
(-0.549433 -0.0783392 0)
(-0.540422 -0.0718944 0)
(-0.754072 -0.0315187 0)
(-0.85626 0.0868116 0)
(-0.861188 0.246385 0)
(-0.808443 0.18437 0)
(-0.905485 0.146166 0)
(-0.913986 0.114309 0)
(-0.909098 0.12498 0)
(-0.783448 0.14946 0)
(-0.7281 0.142223 0)
(-0.681053 0.0373917 0)
(-0.0651197 0.438544 0)
(-0.0262676 0.595806 0)
(-0.120031 1.10408 0)
(-0.0103938 0.847949 0)
(-0.210393 0.821694 0)
(-0.42482 0.469774 0)
(-0.354013 0.174664 0)
(-0.298755 0.132751 0)
(-0.505308 0.0955358 0)
(-0.534352 -0.0348499 0)
(-0.502345 0.0522056 0)
(-0.641843 0.190161 0)
(-0.658071 0.225745 0)
(-0.834142 0.128713 0)
(-0.837392 0.0270453 0)
(-0.904092 0.198225 0)
(-0.906816 0.116952 0)
(-0.829082 0.0984297 0)
(-0.785966 0.0655431 0)
(-0.743318 0.098272 0)
(-0.666212 0.0657484 0)
(-0.646636 0.0475237 0)
(-0.647957 0.0481929 0)
(-0.0906625 0.611065 0)
(0.25034 0.854517 0)
(0.16261 0.963324 0)
(-0.0826642 0.882174 0)
(-0.167266 0.769896 0)
(-0.5515 0.45953 0)
(-0.469867 0.288172 0)
(-0.40347 0.212994 0)
(-0.484702 0.0867073 0)
(-0.505974 0.179793 0)
(-0.604607 0.0639986 0)
(-0.488521 0.204456 0)
(-0.91216 0.151651 0)
(-1.13237 0.117998 0)
(-0.857228 0.214754 0)
(-0.783856 0.20453 0)
(-0.808362 0.141104 0)
(-0.693447 0.0320371 0)
(-0.682966 0.00113529 0)
(-0.631734 0.0152691 0)
(-0.63188 0.0316523 0)
(-0.652968 0.0212548 0)
(-0.702359 -0.00474833 0)
(-0.0417493 1.03704 0)
(0.00721669 1.13164 0)
(0.0315527 0.724495 0)
(-0.0514256 1.06065 0)
(-0.26479 0.713133 0)
(-0.412249 0.449821 0)
(-0.343701 0.469451 0)
(-0.424456 0.263541 0)
(-0.402994 0.163156 0)
(-0.426324 0.138753 0)
(-0.381002 0.120686 0)
(-0.59852 0.136185 0)
(-0.908806 0.128916 0)
(-0.849717 0.403065 0)
(-0.708702 0.382884 0)
(-0.780957 0.161414 0)
(-0.678684 -0.0103032 0)
(-0.65432 -0.0424914 0)
(-0.596308 0.0177139 0)
(-0.568858 0.0418774 0)
(-0.504114 0.112672 0)
(-0.472252 0.126817 0)
(-0.427931 0.0786393 0)
(0.190287 0.781447 0)
(-0.162207 0.903851 0)
(-0.0501126 0.906899 0)
(0.178845 1.4831 0)
(-0.211584 0.814546 0)
(-0.349094 0.663105 0)
(-0.291316 0.489124 0)
(-0.459463 0.362656 0)
(-0.363679 0.1645 0)
(-0.468775 0.121314 0)
(-0.638179 0.157998 0)
(-0.54083 0.184357 0)
(-0.598205 0.25119 0)
(-0.80638 0.357609 0)
(-0.77758 0.286178 0)
(-0.789228 0.160308 0)
(-0.650397 0.0852529 0)
(-0.45468 -0.0145566 0)
(-0.650647 -0.140667 0)
(-0.777682 -0.109505 0)
(-0.30475 -0.0595423 0)
(-0.193027 0.0326522 0)
(-0.179516 -0.0775226 0)
(0.135603 0.807508 0)
(-0.0258429 0.538844 0)
(0.27968 1.13103 0)
(0.0995743 1.39291 0)
(-0.313151 0.930914 0)
(-0.316891 0.82869 0)
(-0.190512 0.637116 0)
(-0.45015 0.377933 0)
(-0.243744 0.111901 0)
(-0.255373 -0.113679 0)
(-0.543255 0.214688 0)
(-0.562375 0.391947 0)
(-0.706675 0.299846 0)
(-0.631032 0.312372 0)
(-0.596292 0.247005 0)
(-0.596277 0.177156 0)
(-0.516597 0.244405 0)
(-0.347359 -0.138826 0)
(-0.216278 -0.297913 0)
(-0.287733 -0.0939828 0)
(-0.181916 0.0143531 0)
(-0.0674072 -0.125502 0)
(0.0125617 -0.108463 0)
(0.175071 0.739837 0)
(0.200524 0.582933 0)
(0.0984202 0.823982 0)
(-0.0126944 1.07025 0)
(-0.160142 0.935239 0)
(-0.152265 0.855726 0)
(-0.196513 0.605232 0)
(-0.420385 0.171231 0)
(-0.378767 0.108516 0)
(-0.396941 0.0695701 0)
(-0.469725 0.296605 0)
(-0.527742 0.355951 0)
(-0.532723 0.348639 0)
(-0.669431 0.423103 0)
(-0.711364 0.319827 0)
(-0.463848 0.284997 0)
(-0.463012 -0.0791927 0)
(-0.199691 -0.281783 0)
(-0.18931 -0.556645 0)
(-0.157829 -0.444017 0)
(-0.0191501 -0.237064 0)
(0.0277561 -0.32139 0)
(0.169381 -0.1053 0)
(-0.00912255 0.410519 0)
(0.0468517 0.453864 0)
(0.0737911 0.571605 0)
(0.0422338 1.21858 0)
(-0.129454 1.06171 0)
(-0.0926959 0.764726 0)
(-0.138367 0.49469 0)
(-0.257716 0.215069 0)
(-0.158639 0.146577 0)
(-0.354495 0.302932 0)
(-0.433388 0.364893 0)
(-0.506785 0.416623 0)
(-0.556247 0.343781 0)
(-0.57835 0.429809 0)
(-0.574681 0.45786 0)
(-0.531322 0.26484 0)
(-0.596047 -0.0230702 0)
(-0.114503 -0.429598 0)
(-0.175995 -0.375032 0)
(-0.0107976 -0.411986 0)
(0.0765665 -0.19504 0)
(0.0252747 -0.101981 0)
(0.0637067 -0.20489 0)
(0.0289055 0.215619 0)
(0.125388 0.446732 0)
(0.111441 0.733362 0)
(0.104349 1.27965 0)
(0.00509343 1.10377 0)
(0.00556747 0.780214 0)
(0.030647 0.590296 0)
(-0.130794 0.273885 0)
(-0.219409 0.512107 0)
(-0.273109 0.376589 0)
(-0.459356 0.40992 0)
(-0.589834 0.483644 0)
(-0.495709 0.455404 0)
(-0.438313 0.429328 0)
(-0.618094 0.262905 0)
(-0.380136 -0.186368 0)
(-0.250497 -0.303649 0)
(-0.0471355 -0.410361 0)
(-0.141693 -0.24881 0)
(-0.0820204 -0.269667 0)
(-0.0951474 -0.293244 0)
(-0.022823 -0.25192 0)
(0.0432188 -0.0569796 0)
(0.0691278 0.211826 0)
(0.143823 0.387552 0)
(0.104087 0.758221 0)
(0.112677 1.24388 0)
(0.0634889 1.13467 0)
(0.120305 0.831634 0)
(-0.10701 0.585387 0)
(0.0880109 0.620722 0)
(-0.153161 0.417278 0)
(-0.379504 0.533063 0)
(-0.371046 0.671202 0)
(-0.525505 0.549549 0)
(-0.575405 0.508549 0)
(-0.403764 0.219907 0)
(-0.419009 0.00919004 0)
(-0.000515377 -0.34684 0)
(-0.106832 -0.398672 0)
(-0.0550257 -0.406061 0)
(-0.16091 -0.362033 0)
(-0.0955286 -0.368582 0)
(-0.0601934 -0.257326 0)
(-0.259162 -0.25353 0)
(-0.176719 -0.157973 0)
(0.0299326 0.171384 0)
(0.0958702 0.424165 0)
(0.0632194 0.806269 0)
(0.0661391 1.18871 0)
(0.0735271 1.21529 0)
(0.101669 0.864558 0)
(0.062371 0.671196 0)
(-0.266776 0.648604 0)
(-0.265712 0.665909 0)
(-0.212846 0.647807 0)
(-0.517198 0.71527 0)
(-0.672814 0.583086 0)
(-0.516606 0.463042 0)
(-0.219064 0.235095 0)
(-0.243202 -0.147283 0)
(0.00079516 -0.280296 0)
(-0.110858 -0.312383 0)
(-0.0317193 -0.376716 0)
(-0.0643505 -0.371432 0)
(-0.212348 -0.357943 0)
(-0.293591 -0.431113 0)
(-0.327184 -0.302646 0)
(-0.195501 -0.169625 0)
(0.0325134 -0.069407 0)
(-0.0235902 0.356888 0)
(-0.0231303 0.865484 0)
(0.0591646 1.13834 0)
(0.0561041 1.18114 0)
(0.0445226 0.92762 0)
(-0.258118 0.714737 0)
(-0.178785 0.789666 0)
(-0.399534 0.921333 0)
(-0.538281 0.690908 0)
(-0.563195 0.623392 0)
(-0.57138 0.581546 0)
(-0.323487 0.459573 0)
(-0.365636 -0.0207538 0)
(0.0302208 -0.238134 0)
(-0.118785 -0.403282 0)
(0.0708812 -0.361689 0)
(-0.0887763 -0.528561 0)
(-0.223061 -0.571906 0)
(-0.161869 -0.600452 0)
(-0.20112 -0.558799 0)
(-0.224353 -0.443986 0)
(-0.185837 -0.413403 0)
(-0.11192 0.195207 0)
(-0.104433 0.484293 0)
(-0.188253 0.70825 0)
(-0.0107352 1.15572 0)
(-0.0277695 1.25851 0)
(-0.333678 1.09892 0)
(-0.432967 1.02027 0)
(-0.462761 1.16554 0)
(-0.524461 0.834548 0)
(-0.543251 0.749733 0)
(-0.536137 0.650414 0)
(-0.397237 0.352252 0)
(-0.109717 0.0670548 0)
(-0.169959 -0.292638 0)
(-0.0543818 -0.265596 0)
(-0.155999 -0.388049 0)
(-0.205175 -0.364773 0)
(-0.190149 -0.422773 0)
(-0.102156 -0.291036 0)
(-0.115804 -0.315821 0)
(-0.0373702 -0.316451 0)
(-0.0855011 -0.315348 0)
(-0.0800025 -0.224672 0)
(0.0538525 0.378176 0)
(-0.395174 0.450005 0)
(-0.444817 0.772956 0)
(-0.165976 1.01025 0)
(-0.356123 1.21263 0)
(-0.611489 1.15537 0)
(-0.584871 1.17942 0)
(-0.67394 1.064 0)
(-0.656043 0.85112 0)
(-0.51404 0.678768 0)
(-0.447053 0.529042 0)
(-0.156682 0.138801 0)
(-0.0732429 -0.0298865 0)
(0.00427758 -0.419544 0)
(-0.0983044 -0.361758 0)
(-0.0114859 -0.392987 0)
(0.0242353 -0.328765 0)
(-0.0688322 -0.220643 0)
(-0.0945797 -0.251548 0)
(-0.133006 -0.24366 0)
(-0.0977199 -0.252297 0)
(-0.0518962 -0.214677 0)
(0.008884 -0.165605 0)
(-0.164704 0.889228 0)
(-0.370436 0.63219 0)
(-0.397015 0.911891 0)
(-0.46166 1.07024 0)
(-0.695527 1.20387 0)
(-0.735562 1.21336 0)
(-0.7465 1.10674 0)
(-0.632989 0.841638 0)
(-0.57117 0.719916 0)
(-0.306951 0.520993 0)
(-0.141206 0.335169 0)
(-0.0388109 -0.0262736 0)
(-0.0681418 -0.105863 0)
(0.0212325 -0.239674 0)
(0.00216464 -0.236635 0)
(-0.00799538 -0.204676 0)
(-0.0546388 -0.306459 0)
(-0.0771924 -0.272342 0)
(-0.0474553 -0.323591 0)
(-0.0773762 -0.285983 0)
(-0.0584833 -0.246352 0)
(-0.0337423 -0.1861 0)
(-0.00390564 -0.140867 0)
(-0.360049 1.33257 0)
(-0.458085 1.04318 0)
(-0.524983 1.15521 0)
(-0.724563 1.32662 0)
(-0.78881 1.42679 0)
(-0.84928 1.25167 0)
(-0.691676 1.08568 0)
(-0.400228 0.760905 0)
(-0.244861 0.62863 0)
(0.0169758 0.725415 0)
(-0.219637 0.314904 0)
(0.0404616 0.0335435 0)
(-0.107923 -0.200028 0)
(0.126364 -0.198268 0)
(-0.048894 -0.337764 0)
(-0.050096 -0.291402 0)
(-0.0176327 -0.319378 0)
(-0.0199906 -0.232813 0)
(0.0064467 -0.240404 0)
(-0.0315558 -0.26059 0)
(-0.0580771 -0.260235 0)
(0.00924578 -0.276916 0)
(0.0327434 -0.267076 0)
(-0.520266 1.87776 0)
(-0.451752 1.73267 0)
(-0.512596 1.28924 0)
(-0.643014 1.37423 0)
(-0.79014 1.39984 0)
(-0.878054 1.21333 0)
(-0.486712 1.19535 0)
(-0.262365 0.939556 0)
(-0.0160727 0.986471 0)
(-0.138194 0.653731 0)
(-0.175343 0.28856 0)
(-0.0117801 -0.128689 0)
(-0.103984 -0.306426 0)
(0.0379367 -0.283442 0)
(-0.0363009 -0.421252 0)
(0.00779352 -0.291357 0)
(-0.0361945 -0.323553 0)
(0.0254671 -0.26572 0)
(-0.00466208 -0.346878 0)
(-0.129234 -0.230362 0)
(-0.103043 -0.199162 0)
(-0.0555338 -0.258138 0)
(-0.0345787 -0.315003 0)
(0.0156689 2.17061 0)
(-0.494434 1.68191 0)
(-0.689895 1.4104 0)
(-0.602699 1.3538 0)
(-0.682605 1.18011 0)
(-0.558244 1.11866 0)
(-0.128676 1.10691 0)
(-0.490149 1.04733 0)
(-0.107413 0.842556 0)
(-0.25657 0.776782 0)
(-0.264046 0.265203 0)
(0.069388 -0.196363 0)
(-0.0652684 -0.336601 0)
(-0.0328358 -0.269848 0)
(-0.055326 -0.253959 0)
(0.0236049 -0.308679 0)
(0.00335618 -0.302008 0)
(-0.0622995 -0.278083 0)
(0.0618933 -0.447504 0)
(0.0251364 -0.318394 0)
(-0.111562 -0.350939 0)
(-0.0880657 -0.285879 0)
(-0.112839 -0.267836 0)
(-0.0621272 2.32605 0)
(-0.424594 1.58401 0)
(-0.554853 1.43966 0)
(-0.432164 1.34811 0)
(-0.4776 1.21251 0)
(-0.367854 1.21435 0)
(-0.207861 0.763762 0)
(-0.307759 0.757394 0)
(0.036445 0.557027 0)
(-0.178678 0.570429 0)
(-0.276795 0.0931353 0)
(-0.0418689 -0.273033 0)
(-0.0491284 -0.219028 0)
(0.00622844 -0.204523 0)
(-0.0348227 -0.189089 0)
(-0.032732 -0.313416 0)
(0.00103635 -0.257718 0)
(-0.100834 -0.33506 0)
(-0.0667644 -0.447968 0)
(-0.0605255 -0.447951 0)
(-0.0949621 -0.417841 0)
(-0.0188786 -0.346928 0)
(-0.0541677 -0.255342 0)
(-0.123372 3.00028 0)
(-0.407655 1.84256 0)
(-0.378735 1.42216 0)
(-0.254216 1.25889 0)
(-0.325823 1.10773 0)
(-0.351391 0.870095 0)
(-0.340652 0.659153 0)
(-0.277109 0.667558 0)
(-0.0464889 0.516013 0)
(-0.0518578 0.439731 0)
(-0.00953923 0.13685 0)
(0.031248 -0.231722 0)
(-0.0453308 -0.129305 0)
(-0.0626924 -0.287292 0)
(-0.117093 -0.254261 0)
(-0.050223 -0.313155 0)
(-0.0580999 -0.243413 0)
(-0.161987 -0.277383 0)
(-0.0256326 -0.343362 0)
(0.033527 -0.447216 0)
(-0.062273 -0.317019 0)
(-0.00264135 -0.328594 0)
(-0.0184401 -0.250769 0)
(-0.330408 2.86403 0)
(-0.631217 1.83941 0)
(-0.440333 1.38797 0)
(-0.18855 1.23766 0)
(-0.295431 0.970162 0)
(-0.107277 0.582605 0)
(-0.19704 0.476049 0)
(-0.0403893 0.475565 0)
(-0.253484 0.521235 0)
(-0.0736523 0.45318 0)
(-0.121412 0.0756913 0)
(0.0941767 -0.214264 0)
(-0.133882 -0.197887 0)
(-0.0838827 -0.340089 0)
(-0.0416015 -0.311191 0)
(-0.0236929 -0.244893 0)
(0.000449429 -0.274222 0)
(-0.149056 -0.265279 0)
(-0.158326 -0.27042 0)
(-0.0785998 -0.321265 0)
(0.00251571 -0.439816 0)
(-0.0208337 -0.345845 0)
(-0.064467 -0.247107 0)
(-0.25358 2.43566 0)
(-0.574547 1.66943 0)
(-0.377255 1.3776 0)
(-0.167591 1.19647 0)
(-0.274875 0.988291 0)
(-0.137809 0.634007 0)
(-0.265489 0.501973 0)
(-0.0925498 0.381039 0)
(-0.249901 0.460523 0)
(-0.216347 0.234003 0)
(0.0621119 0.0452239 0)
(-0.0223196 -0.259858 0)
(-0.14885 -0.274267 0)
(-0.0428526 -0.239076 0)
(0.00900342 -0.313038 0)
(-0.0531827 -0.426184 0)
(-0.121317 -0.461558 0)
(-0.00563069 -0.452069 0)
(-0.0858572 -0.434641 0)
(-0.159875 -0.28885 0)
(-0.0570849 -0.321906 0)
(0.0392467 -0.296171 0)
(-0.00464057 -0.255972 0)
(-0.23378 2.49745 0)
(-0.385783 1.6326 0)
(-0.222352 1.35267 0)
(-0.170278 1.11466 0)
(-0.211713 0.959418 0)
(-0.331151 0.613372 0)
(-0.406038 0.465702 0)
(-0.0704776 0.380575 0)
(-0.322371 0.230912 0)
(-0.234507 0.108157 0)
(-0.129647 -0.130394 0)
(-0.147213 -0.150947 0)
(-0.112127 -0.203258 0)
(0.00779561 -0.182279 0)
(-0.128897 -0.362621 0)
(-0.159854 -0.46707 0)
(-0.0402123 -0.359945 0)
(0.0048147 -0.447917 0)
(-0.0594349 -0.508333 0)
(-0.0388338 -0.34827 0)
(0.011384 -0.273998 0)
(-0.0874769 -0.426021 0)
(-0.171706 -0.444974 0)
(-0.274106 2.62145 0)
(-0.350634 1.7128 0)
(-0.112683 1.28113 0)
(-0.197864 1.08868 0)
(-0.101882 0.893251 0)
(-0.426837 0.724456 0)
(-0.437367 0.509369 0)
(-0.0692169 0.401669 0)
(-0.265234 0.326959 0)
(-0.188889 0.141023 0)
(-0.119745 0.00767992 0)
(-0.0997347 0.00423576 0)
(-0.13949 -0.222992 0)
(-0.15338 -0.244036 0)
(-0.180676 -0.268383 0)
(-0.0639553 -0.292487 0)
(-0.0957327 -0.288613 0)
(-0.117274 -0.420991 0)
(-0.0417589 -0.30299 0)
(-0.0158923 -0.352633 0)
(-0.0330555 -0.320826 0)
(-0.0806134 -0.522864 0)
(-0.00173849 -0.291944 0)
(-0.230091 2.66418 0)
(-0.259884 1.74968 0)
(-0.0458077 1.25096 0)
(-0.217341 1.10024 0)
(-0.0968063 0.92367 0)
(-0.406235 0.801161 0)
(-0.4888 0.509144 0)
(-0.273664 0.365514 0)
(-0.388748 0.278569 0)
(-0.368316 0.0242508 0)
(-0.266911 -0.0420446 0)
(-0.309738 -0.222849 0)
(-0.183163 -0.18616 0)
(-0.085322 -0.304138 0)
(-0.142869 -0.30412 0)
(-0.165465 -0.284291 0)
(-0.140425 -0.311273 0)
(-0.0491228 -0.297563 0)
(-0.00535541 -0.262214 0)
(-0.0404331 -0.309166 0)
(-0.0948192 -0.281549 0)
(-0.0249574 -0.294846 0)
(0.00717201 -0.193494 0)
(-0.205261 2.76498 0)
(-0.198676 1.76761 0)
(-0.0168228 1.26305 0)
(-0.217353 1.13102 0)
(-0.118476 1.00977 0)
(-0.435058 0.781637 0)
(-0.588417 0.442874 0)
(-0.564539 0.393566 0)
(-0.296569 0.443972 0)
(-0.249343 0.161997 0)
(-0.363927 -0.0772483 0)
(-0.314264 -0.303063 0)
(-0.222966 -0.197153 0)
(-0.226848 -0.314706 0)
(-0.119987 -0.298233 0)
(-0.0934636 -0.278826 0)
(-0.120461 -0.240047 0)
(-0.0670968 -0.267046 0)
(-0.0429594 -0.301835 0)
(-0.026231 -0.316948 0)
(-0.00520557 -0.257269 0)
(-0.0302468 -0.280324 0)
(-0.124352 -0.237198 0)
(-0.17338 2.87391 0)
(-0.167842 1.77884 0)
(-0.0163933 1.29074 0)
(-0.237232 1.18559 0)
(-0.168353 1.08853 0)
(-0.461839 0.759986 0)
(-0.620859 0.641053 0)
(-0.635998 0.527546 0)
(-0.446908 0.298618 0)
(-0.708237 -0.0309195 0)
(-0.780438 -0.0565468 0)
(-0.398296 -0.39603 0)
(-0.191857 -0.305429 0)
(-0.15041 -0.319713 0)
(-0.0771867 -0.302771 0)
(-0.149859 -0.434148 0)
(-0.174938 -0.339684 0)
(-0.110132 -0.231748 0)
(-0.0309749 -0.323234 0)
(-0.0274359 -0.320882 0)
(-0.0549853 -0.310311 0)
(-0.00235679 -0.504243 0)
(-0.0189878 -0.310458 0)
(-0.193212 2.93236 0)
(-0.14265 1.79059 0)
(-0.0530554 1.33756 0)
(-0.283326 1.27759 0)
(-0.189027 1.19748 0)
(-0.518403 0.735897 0)
(-0.941938 0.812993 0)
(-0.884596 0.507404 0)
(-0.451742 0.168582 0)
(-0.57414 -0.167117 0)
(-0.580714 -0.336119 0)
(-0.360145 -0.242506 0)
(-0.269774 -0.490401 0)
(-0.295809 -0.457227 0)
(-0.211014 -0.418576 0)
(-0.150607 -0.42273 0)
(0.00880698 -0.410672 0)
(-0.0476938 -0.423518 0)
(-0.095671 -0.280939 0)
(-0.0745499 -0.307508 0)
(-0.0823258 -0.317129 0)
(-0.0177227 -0.271767 0)
(-0.00992725 -0.274558 0)
(-0.181798 3.02796 0)
(-0.124778 1.82978 0)
(-0.0769765 1.41498 0)
(-0.324969 1.3627 0)
(-0.336967 1.30868 0)
(-0.656451 0.804057 0)
(-1.18551 1.00089 0)
(-0.920451 0.877002 0)
(-0.518602 0.19687 0)
(-0.775061 -0.188624 0)
(-0.594426 -0.46315 0)
(-0.47193 -0.47649 0)
(-0.449881 -0.588277 0)
(-0.214635 -0.55615 0)
(-0.0704539 -0.433604 0)
(-0.146118 -0.360466 0)
(-0.162913 -0.409756 0)
(0.0456834 -0.437448 0)
(0.0537469 -0.468667 0)
(-0.121107 -0.316616 0)
(-0.0100353 -0.258864 0)
(0.0223935 -0.239554 0)
(0.0114616 -0.2436 0)
(-0.210721 3.0948 0)
(-0.147008 1.86896 0)
(-0.195542 1.54389 0)
(-0.451021 1.56176 0)
(-0.489928 1.524 0)
(-0.606433 0.903951 0)
(-0.961058 1.00093 0)
(-0.926658 0.748021 0)
(-0.886116 -0.19761 0)
(-0.751232 -0.479295 0)
(-0.544758 -0.548964 0)
(-0.480694 -0.625116 0)
(-0.348653 -0.673797 0)
(-0.24039 -0.582009 0)
(-0.0663424 -0.517902 0)
(-0.141568 -0.464546 0)
(-0.0773825 -0.413919 0)
(-0.10644 -0.309913 0)
(-0.0238035 -0.448759 0)
(0.128559 -0.352506 0)
(-0.0175061 -0.412802 0)
(-0.0282919 -0.253842 0)
(-0.0678979 -0.326235 0)
(-0.218523 3.18244 0)
(-0.185074 1.95525 0)
(-0.240495 1.70905 0)
(-0.502779 1.65926 0)
(-0.560842 1.45187 0)
(-0.802195 1.25343 0)
(-0.831017 1.36933 0)
(-0.727702 1.05717 0)
(-0.575828 -0.0814648 0)
(-0.640449 -0.5244 0)
(-0.352856 -0.733837 0)
(-0.405759 -0.700305 0)
(-0.429995 -0.660009 0)
(-0.123418 -0.509431 0)
(-0.0158193 -0.54357 0)
(-0.0770539 -0.448878 0)
(-0.076259 -0.444948 0)
(-0.0222018 -0.351824 0)
(-0.0154426 -0.318752 0)
(-0.0232862 -0.292551 0)
(0.0269693 -0.560041 0)
(0.00690619 -0.268345 0)
(0.0686014 -0.480264 0)
(-0.286884 3.31875 0)
(-0.192712 2.10329 0)
(-0.469335 1.92112 0)
(-0.698892 1.77805 0)
(-0.503059 1.64091 0)
(-0.405646 1.52454 0)
(-0.607968 1.52594 0)
(-0.820456 1.05469 0)
(-0.618964 -0.156851 0)
(-0.324136 -0.726015 0)
(-0.335282 -0.938161 0)
(-0.365505 -0.798328 0)
(-0.307777 -0.605288 0)
(-0.126513 -0.56472 0)
(-0.0706288 -0.536608 0)
(-0.0965742 -0.345355 0)
(-0.0944125 -0.41735 0)
(-0.0406353 -0.423945 0)
(0.0279763 -0.376304 0)
(-0.12131 -0.457276 0)
(-0.110286 -0.380714 0)
(0.00488995 -0.313353 0)
(-0.0179325 -0.285445 0)
(-0.270694 3.41687 0)
(-0.182247 2.24901 0)
(-0.452278 1.95688 0)
(-0.737718 2.04746 0)
(-0.554213 2.19239 0)
(-0.477568 1.79382 0)
(-0.584111 2.04423 0)
(-0.679744 0.671464 0)
(-0.328153 -0.0505601 0)
(-0.200279 -0.829931 0)
(-0.180158 -1.00054 0)
(-0.263642 -0.685903 0)
(-0.320193 -0.642702 0)
(-0.128083 -0.682865 0)
(0.00870271 -0.581517 0)
(-0.0431911 -0.571601 0)
(-0.197372 -0.446365 0)
(-0.0657341 -0.449434 0)
(-0.0475948 -0.302138 0)
(-0.0452592 -0.566921 0)
(-0.0309269 -0.323887 0)
(-0.0439424 -0.321699 0)
(-0.0457203 -0.195299 0)
(-0.319675 3.62392 0)