/*--------------------------------*- C++ -*----------------------------------*\
| =========                 |                                                 |
| \\      /  F ield         | foam-extend: Open Source CFD                    |
|  \\    /   O peration     | Version:     4.1                                |
|   \\  /    A nd           | Web:         http://www.foam-extend.org         |
|    \\/     M anipulation  |                                                 |
\*---------------------------------------------------------------------------*/
FoamFile
{
    version     2.0;
    format      ascii;
    class       surfaceScalarField;
    location    "1";
    object      phi;
}
// * * * * * * * * * * * * * * * * * * * * * * * * * * * * * * * * * * * * * //

dimensions      [0 3 -1 0 0 0 0];

internalField   nonuniform List<scalar> 
4432
(
-8.816e-07
8.816e-07
-6.14633e-07
-2.66973e-07
3.22101e-07
-9.36737e-07
7.39806e-07
-4.17707e-07
2.71958e-07
4.6785e-07
-4.44175e-07
7.16133e-07
2.81154e-07
-7.25328e-07
2.15027e-06
-1.86912e-06
5.38112e-06
-3.23086e-06
1.38868e-05
-8.5057e-06
1.69406e-05
-3.05378e-06
1.9625e-05
-2.68434e-06
2.02112e-05
-5.86276e-07
1.66564e-05
3.55482e-06
1.13282e-05
5.32824e-06
8.39968e-06
2.9285e-06
6.29032e-06
2.10936e-06
3.27058e-06
3.01975e-06
5.46474e-07
2.7241e-06
-1.37494e-06
1.92142e-06
-1.43082e-06
5.58878e-08
1.48858e-06
-2.91941e-06
1.48858e-06
4.43498e-07
4.38097e-07
6.92654e-07
-5.16136e-07
5.07753e-07
-7.51836e-07
3.24684e-07
-2.34637e-07
5.52429e-07
2.40108e-07
3.0285e-07
9.65709e-07
1.26925e-06
-1.69172e-06
3.5483e-06
-4.14817e-06
7.4479e-06
-7.13046e-06
1.16449e-05
-1.27027e-05
1.57425e-05
-7.15136e-06
1.83575e-05
-5.29934e-06
1.75622e-05
2.09023e-07
1.2593e-05
8.52396e-06
7.50682e-06
1.04145e-05
2.4745e-06
7.96083e-06
2.66447e-06
1.91939e-06
-1.60534e-07
5.84476e-06
-1.27028e-06
3.83385e-06
-1.53973e-06
2.19086e-06
-1.94727e-06
4.63421e-07
1.11466e-06
-5.98133e-06
2.60324e-06
-3.36222e-07
7.74316e-07
-1.22596e-06
3.73599e-07
-1.93638e-06
-4.14141e-08
-2.19305e-06
2.20311e-08
-1.91379e-06
-3.91493e-08
-7.37947e-07
-2.10136e-07
-1.12101e-07
-2.31757e-06
1.05418e-06
-5.31445e-06
2.01813e-06
-8.09441e-06
4.3174e-06
-1.50019e-05
1.12743e-05
-1.41082e-05
1.41935e-05
-8.21859e-06
8.13301e-06
6.26954e-06
1.08899e-05
5.76702e-06
5.10685e-06
1.61976e-05
1.96755e-08
1.3048e-05
-2.7568e-06
4.69586e-06
-2.48325e-06
5.57121e-06
-4.82448e-06
6.17509e-06
-2.96403e-06
3.30404e-07
-3.47053e-06
9.69925e-07
8.94293e-07
-1.03462e-05
3.49753e-06
-7.87047e-07
1.56136e-06
-1.38032e-06
9.66874e-07
-7.32098e-07
-6.89638e-07
-4.84585e-07
-2.25482e-07
-3.22602e-07
-2.01131e-07
-1.0727e-06
5.39963e-07
-4.99457e-07
-2.89081e-06
-1.92736e-06
-3.88653e-06
1.10586e-07
-1.01324e-05
3.21774e-06
-1.81091e-05
9.08096e-06
-1.99714e-05
1.20313e-05
-1.1169e-05
1.32019e-05
5.09894e-06
8.52017e-06
1.04488e-05
2.56039e-06
2.21574e-05
-2.1603e-06
1.77687e-05
-8.02183e-06
1.05574e-05
-1.07638e-05
8.31315e-06
-5.64714e-06
1.05846e-06
-8.07492e-06
2.75818e-06
-5.15634e-06
-1.94866e-06
1.10441e-06
-1.66069e-05
4.60193e-06
-8.45633e-07
2.407e-06
-7.22478e-07
8.43718e-07
-1.37413e-06
-3.79846e-08
-1.91108e-06
3.11474e-07
-1.56599e-06
-5.46223e-07
-3.16575e-06
2.13972e-06
-2.55908e-06
-3.49748e-06
-2.58163e-06
-3.86398e-06
-9.25342e-07
-1.17886e-05
2.92617e-06
-2.19606e-05
5.88131e-06
-2.29266e-05
1.00326e-05
-1.53203e-05
1.1839e-05
3.29261e-06
8.87173e-06
1.3416e-05
1.37341e-06
2.96557e-05
-5.46336e-06
2.46055e-05
-1.15969e-05
1.66909e-05
-1.61445e-05
1.28608e-05
-1.53331e-05
2.46997e-07
-1.28551e-05
2.80182e-07
-8.44015e-06
-6.36357e-06
3.50917e-07
-2.5398e-05
4.95285e-06
-9.75105e-07
3.3821e-06
-2.67875e-06
2.54737e-06
-2.86007e-06
1.43339e-07
-3.37011e-06
8.21509e-07
-2.07007e-06
-1.84626e-06
-3.48299e-06
3.55264e-06
-3.47159e-06
-3.50888e-06
-3.10159e-06
-4.23398e-06
-5.08434e-06
-9.80589e-06
-2.82813e-06
-2.42168e-05
-3.00832e-06
-2.27464e-05
5.8479e-07
-1.89134e-05
5.33178e-06
-1.45437e-06
3.22659e-06
1.55212e-05
-3.00145e-06
3.58837e-05
-1.07925e-05
3.23966e-05
-1.73377e-05
2.32361e-05
-2.29215e-05
1.84445e-05
-2.17569e-05
-9.17572e-07
-1.85875e-05
-2.88925e-06
-5.71934e-06
-1.92317e-05
1.97517e-06
-3.30925e-05
6.92802e-06
-1.67517e-06
5.05728e-06
-2.35228e-06
3.22448e-06
-1.57986e-06
-6.29077e-07
-1.49046e-06
7.32109e-07
-2.39512e-06
-9.41598e-07
-4.65336e-06
5.81088e-06
-1.0899e-05
2.7368e-06
-9.68035e-06
-5.45266e-06
-1.16812e-05
-7.80502e-06
-1.60843e-05
-1.98137e-05
-2.16092e-05
-1.72215e-05
-2.08431e-05
-1.96796e-05
-1.20997e-05
-1.01978e-05
-9.76284e-06
1.31844e-05
-1.19782e-05
3.8099e-05
-1.86093e-05
3.90277e-05
-2.47352e-05
2.9362e-05
-2.95756e-05
2.32849e-05
-2.69224e-05
-3.57073e-06
-1.95588e-05
-1.02528e-05
-1.06608e-05
-2.81297e-05
1.51565e-06
-4.5269e-05
8.44367e-06
-1.01586e-06
6.07314e-06
-4.73966e-06
6.94828e-06
-7.31957e-06
1.95083e-06
-9.41065e-06
2.82319e-06
-1.20887e-05
1.7365e-06
-6.93118e-06
6.53317e-07
-7.29303e-06
3.09864e-06
-1.33614e-05
6.15688e-07
-2.0562e-05
-6.04432e-07
-3.33303e-05
-7.04541e-06
-4.36377e-05
-6.91401e-06
-4.79278e-05
-1.53895e-05
-4.1588e-05
-1.65376e-05
-2.84702e-05
6.66087e-08
-1.86104e-05
2.82392e-05
-2.74604e-05
4.78776e-05
-3.06379e-05
3.25396e-05
-1.94426e-05
1.20895e-05
-2.88803e-05
5.86699e-06
-1.91749e-05
-1.99582e-05
-1.24498e-05
-3.48548e-05
1.18737e-06
-5.89061e-05
9.63105e-06
-2.83639e-05
2.83639e-05
-4.0896e-05
1.2532e-05
-4.11607e-05
2.64758e-07
-3.14907e-05
-9.67002e-06
-2.39246e-05
-7.5661e-06
-2.69929e-05
3.06832e-06
-3.27534e-05
5.76051e-06
-3.53657e-05
2.61227e-06
-2.92277e-05
-6.13795e-06
-1.35155e-05
-1.57122e-05
4.19647e-06
-1.7712e-05
6.35905e-06
-2.16258e-06
-8.67864e-06
1.50377e-05
-1.0842e-05
2.16331e-06
-1.8474e-05
7.632e-06
-1.82935e-05
-1.80428e-07
-1.38028e-05
-4.49073e-06
-3.43798e-06
-1.03648e-05
-3.43798e-06
-1.81346e-05
4.64986e-05
-2.4801e-05
1.91984e-05
-1.68385e-05
-7.69781e-06
3.00953e-06
-2.9518e-05
1.15051e-05
-1.60616e-05
1.95259e-06
1.26208e-05
-7.05524e-06
1.47683e-05
-2.47164e-05
2.02734e-05
-2.26859e-05
-8.1684e-06
-1.24332e-05
-2.5965e-05
5.51887e-06
-3.5664e-05
9.65526e-06
-6.29897e-06
1.41327e-05
1.05603e-05
-8.16715e-07
1.71127e-05
-3.20534e-06
1.00206e-05
-4.7839e-07
-2.90738e-06
-2.12286e-06
-2.84626e-06
-3.20667e-06
-9.28102e-06
-6.64465e-06
-3.18007e-06
4.96787e-05
1.59325e-06
1.44251e-05
7.93068e-06
-1.40352e-05
2.32643e-05
-4.48516e-05
2.79458e-05
-2.07432e-05
3.21569e-05
8.40968e-06
1.81681e-05
2.87572e-05
1.25906e-06
3.71825e-05
6.65725e-06
-1.35666e-05
7.35899e-06
-2.66668e-05
1.347e-06
-2.9652e-05
1.42249e-05
-1.91769e-05
8.40855e-06
1.63766e-05
1.1109e-05
1.44122e-05
8.34127e-06
1.27884e-05
3.93898e-06
1.49491e-06
4.00546e-06
-2.91273e-06
-1.79222e-06
-3.48334e-06
-8.43687e-06
9.23747e-06
4.04412e-05
3.0513e-05
-6.85047e-06
4.01018e-05
-2.3624e-05
4.67364e-05
-5.14861e-05
4.4344e-05
-1.83509e-05
4.31932e-05
9.56049e-06
4.38411e-05
2.81093e-05
2.37274e-05
5.72962e-05
2.07252e-05
-1.05644e-05
1.5817e-05
-2.17586e-05
1.96254e-06
-1.57976e-05
4.43326e-06
-2.16476e-05
1.95947e-05
1.21519e-06
1.47285e-05
1.92784e-05
8.1882e-06
1.93287e-05
2.79172e-06
6.89139e-06
5.60199e-06
-5.723e-06
3.59644e-06
-1.47779e-06
-4.84043e-06
1.92818e-05
2.11594e-05
2.63582e-05
-1.39269e-05
5.26249e-05
-4.98907e-05
5.6631e-05
-5.54923e-05
4.90557e-05
-1.07756e-05
4.18339e-05
1.67823e-05
4.60974e-05
2.38458e-05
3.39017e-05
6.9492e-05
3.05705e-05
-7.23318e-06
3.31785e-05
-2.43666e-05
4.02199e-06
1.33589e-05
1.78702e-06
-1.94127e-05
1.33262e-05
-1.0324e-05
1.30658e-05
1.95388e-05
8.18125e-06
2.42132e-05
2.82851e-06
1.22441e-05
1.78237e-06
-4.67686e-06
9.99403e-07
-6.94825e-07
-3.84103e-06
2.55781e-05
-4.41874e-06
3.06498e-05
-1.89985e-05
5.7915e-05
-7.71559e-05
5.85323e-05
-5.61096e-05
5.14537e-05
-3.69693e-06
3.81459e-05
3.00901e-05
2.59494e-05
3.60424e-05
3.67346e-05
5.87067e-05
3.98984e-05
-1.0397e-05
4.60489e-05
-3.0517e-05
2.37908e-05
3.56169e-05
-1.01623e-06
5.39442e-06
3.5302e-06
-1.48704e-05
6.27333e-06
1.67957e-05
3.80821e-06
2.66783e-05
1.79435e-06
1.4258e-05
5.00114e-06
-7.88365e-06
2.65016e-06
1.65615e-06
-1.19088e-06
3.91323e-05
-4.35511e-05
5.3843e-05
-3.37092e-05
5.89173e-05
-8.22303e-05
4.98771e-05
-4.70694e-05
2.33343e-05
2.28459e-05
3.15645e-05
2.18599e-05
1.86766e-05
4.89302e-05
3.69869e-05
4.03964e-05
3.9551e-05
-1.2961e-05
4.71607e-05
-3.81267e-05
3.30105e-05
4.97671e-05
-4.47682e-07
3.88526e-05
-3.42108e-06
-1.1897e-05
8.2354e-06
5.13923e-06
1.25276e-05
2.23862e-05
1.21012e-05
1.46844e-05
5.10412e-06
-8.86577e-07
3.01053e-06
3.74974e-06
1.81965e-06
2.61963e-05
-6.97474e-05
5.70205e-05
-6.45334e-05
2.99623e-05
-5.5172e-05
3.95692e-05
-5.66763e-05
2.80694e-05
3.43457e-05
1.16824e-05
3.82468e-05
2.48228e-05
3.57898e-05
3.47944e-05
3.04248e-05
3.79914e-05
-1.61581e-05
2.10157e-05
-2.1151e-05
3.44577e-05
3.6325e-05
1.52659e-05
5.80444e-05
-1.20636e-05
1.54324e-05
5.43091e-06
-1.23552e-05
1.02078e-05
1.76093e-05
1.83106e-05
6.58161e-06
1.17929e-05
5.63112e-06
4.75553e-06
1.07871e-05
6.57518e-06
-8.32408e-07
6.90555e-06
-2.10198e-06
8.21785e-06
-9.22511e-06
9.07397e-06
-1.43411e-05
7.93918e-06
-2.78905e-05
1.52859e-05
-3.09953e-05
3.75815e-06
-4.13967e-05
1.35e-05
-5.85972e-05
1.78162e-05
-8.01351e-05
2.09334e-05
-0.000108657
2.14768e-05
-0.000148974
3.34029e-05
-0.00017084
6.47584e-06
-0.000166831
-2.05466e-05
-0.000129873
-3.68905e-05
-0.000106899
5.26479e-06
-8.74264e-05
2.84051e-05
-7.16837e-05
1.6797e-05
-7.20865e-05
1.24923e-05
-6.93592e-05
3.13968e-06
-4.5262e-05
-4.40554e-05
-1.64819e-05
-6.36349e-05
-7.18392e-06
-6.82041e-05
-4.12485e-05
4.36956e-05
-4.07256e-06
1.09781e-05
-1.52062e-05
1.93515e-05
-1.20795e-05
5.94734e-06
-1.44138e-05
1.02735e-05
-1.61989e-05
1.7071e-05
-2.71905e-05
1.47497e-05
-3.56443e-05
2.19538e-05
-5.29101e-05
3.5082e-05
-7.28798e-05
4.09031e-05
-9.68166e-05
4.54137e-05
-0.00017181
0.000108396
-0.000218241
5.29074e-05
-0.000203633
-3.51545e-05
-0.000179644
-6.08797e-05
-0.000133505
-4.08739e-05
-0.000102651
-2.44946e-06
-8.27706e-05
-3.08334e-06
-6.90894e-05
-1.1889e-06
-5.74298e-05
-8.51994e-06
-3.81982e-05
-6.32869e-05
-3.78437e-05
-6.39894e-05
-4.02545e-05
-6.57934e-05
-7.31945e-05
-8.3084e-06
-8.92313e-06
1.99012e-05
-1.10442e-05
2.14725e-05
-2.6654e-05
2.15572e-05
-2.95634e-05
1.31829e-05
-1.86537e-05
6.16128e-06
-1.45608e-05
1.06568e-05
-1.7832e-05
2.5225e-05
-1.65995e-05
3.38495e-05
-4.72803e-06
2.90317e-05
-5.91138e-05
9.97995e-05
-0.000157631
0.000206913
-0.000195451
9.07276e-05
-0.00018799
-4.26151e-05
-0.000177567
-7.13029e-05
-0.000138762
-7.96788e-05
-0.000103882
-3.733e-05
-8.69761e-05
-1.99891e-05
-8.50291e-05
-3.13587e-06
-5.48688e-05
-3.86802e-05
-4.72107e-05
-7.09451e-05
-5.22005e-05
-5.89996e-05
-2.32227e-05
-9.47711e-05
-6.56628e-05
-3.07545e-05
-1.17964e-05
3.16977e-05
-2.35482e-05
3.32243e-05
-1.67451e-05
1.4754e-05
-2.41195e-05
2.05573e-05
-2.24426e-05
4.48434e-06
-1.70374e-05
5.25159e-06
-4.37194e-06
1.25595e-05
1.42654e-06
2.8051e-05
-8.25849e-06
3.87167e-05
6.88333e-06
8.46576e-05
1.47815e-06
0.000212318
-0.000120546
0.000212752
-0.0002089
4.57396e-05
-0.000208899
-7.13041e-05
-0.000160064
-0.000128514
-0.000105936
-9.14577e-05
-8.69402e-05
-3.89851e-05
-5.65324e-05
-3.35437e-05
-0.000114273
1.90599e-05
-9.32934e-05
-9.19242e-05
-5.67312e-05
-9.55619e-05
-4.66376e-05
-0.000104865
-5.12347e-05
-6.10657e-05
-2.48476e-05
5.65453e-05
-1.39865e-05
2.23632e-05
-1.74177e-05
1.81853e-05
-1.44642e-05
1.76038e-05
-2.3289e-05
1.33091e-05
-1.72538e-05
-7.83598e-07
-1.11541e-05
6.4598e-06
-6.90614e-06
2.38031e-05
8.9098e-08
3.17215e-05
2.91182e-05
5.56285e-05
7.23403e-05
0.000169096
-2.12466e-05
0.000306338
-0.000115284
0.000139777
-0.000191701
5.11293e-06
-0.000255869
-6.43467e-05
-0.00025579
-9.15366e-05
-0.000143526
-0.000151249
-2.74733e-05
-0.000149597
-2.9805e-05
2.13917e-05
-6.88984e-05
-5.2831e-05
-3.91519e-05
-0.000125308
-6.36013e-05
-8.04152e-05
-3.44726e-05
-8.03634e-05
-8.84834e-06
6.53937e-05
-3.01632e-05
4.3678e-05
-2.44313e-05
1.24534e-05
-2.13882e-05
1.45608e-05
-2.40281e-05
1.5949e-05
-2.05248e-05
-4.2869e-06
-1.39219e-05
-1.43125e-07
3.98991e-06
5.89126e-06
2.46684e-05
1.1043e-05
3.95097e-05
4.07872e-05
5.14335e-05
0.000157173
-9.81706e-05
0.000455943
-0.000136369
0.000177974
-0.000232845
0.000101589
-0.000229726
-6.74656e-05
-0.000209713
-0.00011155
-0.000162389
-0.000198573
-0.000123161
-0.000188824
8.2953e-07
-0.000102599
2.28285e-06
-5.42843e-05
-4.55378e-05
-7.74875e-05
-5.08539e-05
-7.50992e-05
-7.38827e-05
-1.14438e-05
4.12541e-05
2.41396e-05
-4.93157e-06
8.98636e-05
-2.54269e-05
3.29487e-05
-3.09794e-05
2.01132e-05
-3.45918e-05
1.95615e-05
-9.63611e-06
-2.92426e-05
2.90691e-05
-3.88483e-05
6.39839e-05
-2.90236e-05
4.10914e-05
3.39356e-05
1.21854e-05
6.96932e-05
-3.21936e-05
0.000201551
-0.000127505
0.000551254
-0.000161376
0.000211845
-0.000170807
0.00011102
-0.000207319
-3.09526e-05
-0.00017996
-0.00013891
-0.00018112
-0.000197413
-0.000161143
-0.000208801
-0.000107531
-0.000156211
-4.38311e-05
-0.000117984
-3.32634e-05
-8.80552e-05
-3.35191e-05
-7.48435e-05
-8.37986e-05
-2.36031e-05
2.16889e-05
2.45079e-06
-7.45128e-06
0.000119004
-2.91006e-05
5.4598e-05
-3.83405e-05
2.93531e-05
2.98703e-05
-4.86493e-05
5.14587e-05
-5.0831e-05
0.000103912
-9.13013e-05
6.74743e-05
7.41382e-06
1.65142e-05
8.48956e-05
-7.20502e-05
0.000158258
-0.000187367
0.000316868
-0.0001477
0.000511587
-0.000166515
0.000230661
-0.000169779
0.000114284
-0.000181279
-1.9453e-05
-0.000159682
-0.000160507
-0.000164576
-0.000192519
-0.00017691
-0.000196467
-0.000158488
-0.000174633
-0.00012828
-0.000148192
-6.14973e-05
-0.000154838
-3.02954e-05
-0.000106045
-0.000104157
-9.93717e-06
-1.34432e-05
1.5894e-05
-6.36706e-05
0.000169231
-6.10899e-05
5.20172e-05
-1.39305e-06
-3.03437e-05
7.39208e-05
-0.000123963
5.32611e-05
-3.01713e-05
-2.97958e-05
-8.24424e-06
-0.000109595
8.72135e-05
-0.000192337
0.000167637
-0.000292884
0.000258805
-0.000353735
0.000377719
-0.000253338
0.000411191
-0.000212222
0.000189544
-0.000184568
8.66303e-05
-0.000126553
-7.74678e-05
-7.69466e-05
-0.000210113
-8.47342e-05
-0.000184731
-0.000115085
-0.000166116
-0.000127333
-0.000162385
-9.94552e-05
-0.00017607
-9.83836e-05
-0.000155909
-4.89647e-05
-0.000155464
-0.000112863
-4.0258e-05
-6.57579e-06
2.24697e-05
-5.50872e-05
0.000217743
-7.57208e-05
7.26509e-05
4.2324e-05
-0.000148389
-5.94625e-05
-2.21766e-05
-0.000167617
7.79835e-05
-0.000281613
0.000105752
-0.000289857
9.54579e-05
-0.000371615
0.000249395
-0.000428184
0.000315374
-0.000357473
0.000307007
-0.000315417
0.000369135
-0.000263536
0.000137663
-0.000163554
-1.33516e-05
-9.1526e-05
-0.000149496
-4.13832e-05
-0.000260256
-2.60735e-05
-0.000200041
5.38916e-06
-0.000197579
-7.08059e-06
-0.000149915
-2.99667e-05
-0.000153184
-6.75531e-05
-0.000118323
-0.000114873
-0.000108145
-0.000110804
-0.000116932
-1.00433e-07
2.25702e-05
-3.0193e-05
0.000247835
-0.0001105
0.000152958
-0.000180368
-7.85205e-05
-0.000226322
2.37773e-05
-0.000271293
0.000122954
-0.000330428
0.000164887
-0.000367315
0.000132346
-0.000394257
0.000276337
-0.000384497
0.000305614
-0.000352953
0.000275463
-0.000292483
0.000308666
-0.000216005
6.11854e-05
-0.00014621
-8.31467e-05
-6.66315e-05
-0.000229075
-4.63469e-05
-0.00028054
-3.08499e-05
-0.000215538
7.80431e-08
-0.000228507
1.99209e-05
-0.000169758
-4.58397e-05
-8.74235e-05
-9.15316e-05
-7.26309e-05
-0.000130364
-6.93129e-05
-0.000108647
-0.000132521
-2.24609e-06
2.48163e-05
-3.54627e-05
0.000281052
-4.1039e-05
0.000158535
-0.000132464
1.29046e-05
-0.000176
6.73138e-05
-0.000139034
8.59883e-05
-0.000175192
0.000201045
-0.000337008
0.000294161
-0.000342861
0.00028219
-0.000362682
0.000325434
-0.000377118
0.0002899
-0.000155899
8.74461e-05
-0.000110415
1.57015e-05
-7.17969e-05
-0.000121765
-0.000126305
-0.000174567
-0.000121787
-0.000285058
-6.73164e-05
-0.000270009
-2.35523e-05
-0.000272271
1.37924e-05
-0.000207103
1.70599e-05
-9.0691e-05
-1.13419e-05
-4.42293e-05
-3.06755e-05
-4.99792e-05
-8.75138e-05
-5.18083e-05
-9.16451e-06
3.39808e-05
-2.05589e-05
0.000292446
-4.07994e-05
0.000178775
-8.99358e-05
6.20407e-05
-0.000144157
0.000121535
-0.000237387
0.000179219
-0.000265701
0.000229358
-0.000265816
0.000294277
-0.000291864
0.000308238
-0.00029001
0.00032358
-0.000252641
0.000252531
-0.000214904
4.97093e-05
-0.0001669
-3.23029e-05
-0.000179339
-0.000109325
-0.000108143
-0.000245763
-0.000129305
-0.000263896
-0.000101385
-0.000297929
-5.14294e-05
-0.000322227
-1.06276e-05
-0.000247905
3.40042e-05
-0.000135323
5.04712e-05
-6.06963e-05
-2.7839e-06
3.27579e-06
-5.17948e-05
-3.85029e-05
-1.15664e-05
4.55472e-05
-6.29198e-06
0.000287171
-3.99422e-05
0.000212425
-8.99392e-05
0.000112038
-0.000142849
0.000174444
-9.71658e-05
0.000133536
-0.000174679
0.000306871
-0.000219232
0.000338831
-0.000242992
0.000331998
-0.000217584
0.000298172
-0.000105848
0.000140794
-0.000163004
0.000106865
-0.000163423
-3.18846e-05
-0.000188402
-8.43449e-05
-0.000188709
-0.000245456
-0.000169147
-0.000283458
-0.000151242
-0.000315834
-0.000127221
-0.000346249
-7.03024e-05
-0.000304823
-3.62088e-05
-0.000169416
-4.11594e-05
-5.57458e-05
-5.54611e-05
1.75775e-05
-3.23015e-05
-7.49546e-05
-5.94362e-06
5.14907e-05
-2.84108e-06
0.000284069
-3.17263e-05
0.000241311
-3.50033e-05
0.000115314
-5.22784e-05
0.000191719
-5.37362e-05
0.000134994
-7.45226e-05
0.000327657
-9.19444e-05
0.000356253
-0.000137997
0.000378051
-4.4831e-05
0.000205005
-0.000147458
0.000243421
-0.000120142
7.95492e-05
-0.000166318
1.42922e-05
-0.000121696
-0.000128967
-0.000180375
-0.000186777
-0.000180468
-0.000283365
-0.000176045
-0.000320256
-0.000163786
-0.000358508
-0.000159089
-0.00030952
-0.000145563
-0.000182943
-0.00015052
-5.07885e-05
-0.000112345
-2.0597e-05
-7.81019e-05
-6.6545e-05
3.58646e-07
5.1132e-05
-3.01263e-06
0.00028744
-1.89349e-05
0.000257233
-4.06478e-05
0.000137028
-1.46796e-05
0.000165751
-1.20652e-05
0.00013238
-2.59177e-05
0.00034151
-3.26539e-05
0.00036299
-2.93291e-05
0.000374726
-2.80427e-05
0.000203719
-3.78155e-05
0.000253194
-6.24475e-05
0.000104181
-9.57967e-05
4.76417e-05
-9.78737e-05
-0.00012689
-0.000139784
-0.000144867
-0.00019253
-0.000230619
-0.000182431
-0.000330355
-0.000202086
-0.000338853
-0.000193636
-0.000317969
-0.000184755
-0.000191824
-0.000104056
-0.000131488
-6.96797e-05
-5.49736e-05
-8.65258e-05
-6.12558e-05
1.17312e-05
3.94009e-05
1.3355e-05
0.000285816
-6.75136e-06
0.000277339
-5.26869e-05
0.000182963
-9.2039e-06
0.000122268
7.46116e-06
0.000115714
1.80421e-05
0.000330929
2.46199e-05
0.000356412
4.15977e-05
0.000357748
4.0611e-05
0.000204706
9.9739e-06
0.000283831
1.39585e-05
0.000100197
1.40926e-05
4.75077e-05
2.7128e-05
-0.000139925
1.58809e-05
-0.00013362
-2.65105e-05
-0.000188227
-5.72281e-05
-0.000299638
-0.000118632
-0.00027745
-0.000131596
-0.000305005
-0.00014745
-0.00017597
-0.000117079
-0.000161859
-3.79095e-05
-0.000134143
-9.92948e-05
-2.51404e-05
2.31186e-05
1.62823e-05
3.64335e-05
0.000272501
1.65937e-05
0.000297179
-2.13431e-05
0.0002209
1.46825e-06
9.94573e-05
1.90379e-05
9.81447e-05
5.72081e-05
0.000292758
6.47304e-05
0.00034889
0.000117421
0.000305058
0.000121204
0.000200923
0.000132989
0.000272046
0.000117853
0.000115332
0.000123708
4.16533e-05
9.5042e-05
-0.00011126
0.000103944
-0.000142522
9.6773e-05
-0.000181056
5.67924e-05
-0.000259657
2.74953e-05
-0.000248152
-1.83037e-05
-0.000259206
-4.98725e-05
-0.000144401
-2.70778e-05
-0.000184653
-2.57407e-05
-0.00013548
-0.000104132
-2.09035e-05
3.25552e-05
-1.62731e-05
4.55807e-05
0.000259476
4.62168e-05
0.000296543
2.85883e-05
0.000238529
2.20595e-05
0.000105986
2.42931e-05
9.59111e-05
7.89355e-05
0.000238116
0.000115592
0.000312234
0.000229968
0.000190681
0.000168847
0.000262045
0.000231929
0.000208964
0.000209556
0.000137705
0.000227893
2.33162e-05
0.000202368
-8.57341e-05
0.000240838
-0.000180992
0.000180287
-0.000120506
0.000121567
-0.000200937
0.000111765
-0.00023835
4.84328e-05
-0.000195874
2.83916e-05
-0.000124359
1.54546e-05
-0.000171716
1.76504e-05
-0.000137676
-8.67323e-05
2.50809e-07
2.58608e-05
-4.21339e-05
6.4441e-05
0.000220895
8.45502e-05
0.000276434
7.2018e-05
0.000251061
4.43663e-05
0.000133638
3.30163e-05
0.000107261
0.000122315
0.000148818
0.000161794
0.000272754
0.000118737
0.000233739
0.000195442
0.00018534
0.000247193
0.000157212
0.000274063
0.000110836
0.000287882
9.49765e-06
0.000229815
-2.76678e-05
0.000191946
-0.000143123
0.000254191
-0.00018275
0.000251104
-0.00019785
0.000206293
-0.000193539
0.000107036
-9.66166e-05
0.000116653
-0.000133977
4.59383e-05
-0.000101001
3.13919e-05
-0.00012313
-8.0335e-05
2.49946e-05
3.18875e-05
-7.40215e-05
8.33091e-05
0.000169474
8.16451e-05
0.000278098
0.000116671
0.000216035
5.95923e-05
0.000190716
5.68159e-05
0.000110038
9.51763e-05
0.000110458
0.000142729
0.000225202
0.000167108
0.000209359
0.000201737
0.000150712
0.00025196
0.000106989
0.000293801
6.89947e-05
0.000305956
-2.65733e-06
0.000345284
-6.69957e-05
0.000332008
-0.000129846
0.000292784
-0.000143526
0.000261186
-0.000166252
0.000217654
-0.000150007
0.000182849
-6.18122e-05
0.000101439
-5.25665e-05
4.46061e-05
-4.41683e-05
1.8206e-05
-9.67296e-05
-0.000103235
4.11061e-05
2.43755e-05
-9.8397e-05
5.00513e-05
0.000143798
6.93669e-05
0.000258782
8.21665e-05
0.000203235
8.40877e-05
0.000188795
4.85807e-05
0.000145544
3.86185e-05
0.00012042
0.000112526
0.000151295
0.000165871
0.000156014
0.000196517
0.000120066
0.000219144
8.43616e-05
0.000249519
3.86204e-05
0.000282381
-3.55196e-05
0.000314325
-9.89395e-05
0.000299959
-0.000115479
0.00030227
-0.000145837
0.000233702
-9.76833e-05
0.000162514
-7.88193e-05
0.000128073
-2.73709e-05
6.41665e-05
1.13395e-05
4.3232e-05
-2.32338e-05
3.93103e-05
-9.2808e-05
-9.91682e-05
3.52435e-05
-1.45138e-05
-8.38832e-05
1.3639e-05
0.000115645
5.36142e-05
0.000218807
4.46618e-05
0.000212188
4.7704e-05
0.000185753
5.40906e-05
0.000139158
5.28884e-05
0.000121622
0.000101185
0.000102998
0.000149354
0.000107845
0.000185571
8.38492e-05
0.0002249
4.50318e-05
0.000269359
-5.83798e-06
0.000294657
-6.08182e-05
0.000282284
-8.65667e-05
0.000266761
-9.99566e-05
0.000244301
-0.000123377
0.000209892
-6.32741e-05
0.000173229
-4.21567e-05
0.000124135
2.17238e-05
7.63744e-05
5.90998e-05
5.36743e-05
-5.33723e-07
4.60769e-05
-8.52106e-05
-9.61386e-05
4.30471e-05
-1.49555e-05
-6.89277e-05
-8.30399e-06
0.000108994
2.62472e-05
0.000184256
3.97465e-05
0.000198689
5.01639e-05
0.000175335
5.31214e-05
0.0001362
0.000107189
6.75542e-05
0.000138186
7.20014e-05
0.000200692
4.53391e-05
0.000258172
2.63694e-05
0.000305949
-2.7448e-06
0.000326271
-2.61606e-05
0.00031448
-4.90272e-05
0.000292667
-6.47532e-05
0.00023243
-3.972e-05
0.0001395
-3.04477e-05
9.86154e-05
-2.23891e-05
5.70322e-05
-5.73465e-07
3.52561e-05
4.34999e-05
3.78988e-05
5.6457e-05
4.08643e-05
-3.49928e-06
4.35789e-05
-8.79253e-05
-8.75278e-05
3.49681e-05
-1.44971e-05
-5.44306e-05
-1.70988e-05
0.000111595
4.63027e-07
0.000166694
7.10301e-05
0.000128122
8.86126e-05
0.000157753
0.000156153
6.86597e-05
0.000187951
3.57556e-05
0.000228532
3.14204e-05
0.000266128
7.74336e-06
0.000294829
-2.33188e-06
0.000301894
-9.80979e-06
0.000307966
-3.22319e-05
0.000296145
-3.72067e-05
0.000272596
-4.12046e-05
0.000245534
-1.26578e-05
0.000200799
1.42871e-05
0.000158822
1.95882e-05
0.000113089
4.516e-05
7.31668e-05
8.34215e-05
5.00815e-05
7.95423e-05
4.38826e-05
2.69959e-06
3.12032e-05
-7.52458e-05
-7.90085e-05
2.26838e-05
-4.38171e-05
-1.06135e-05
-6.84353e-05
0.000136214
5.22066e-06
9.3038e-05
4.93925e-05
8.39498e-05
0.000130372
7.6773e-05
0.000174655
2.43766e-05
0.000220205
-9.79366e-06
0.000260492
-8.86657e-06
0.00029984
-3.16048e-05
0.000315736
-1.8228e-05
0.000316293
-1.03663e-05
0.000297398
-1.33372e-05
0.000271883
-1.16912e-05
0.000187353
4.33248e-05
0.000137169
3.75264e-05
0.000123447
2.80092e-05
0.00010449
3.8545e-05
7.60369e-05
7.36133e-05
3.70813e-05
0.000122377
4.82009e-05
6.84227e-05
3.94674e-05
1.14331e-05
3.38338e-05
-6.96123e-05
-7.97052e-05
3.45305e-05
-8.11774e-06
-2.49574e-06
-1.40208e-05
0.000142117
-2.15685e-06
8.11739e-05
5.56409e-05
2.6152e-05
0.000121644
1.07696e-05
0.000181522
-3.55009e-05
0.00022963
-5.79021e-05
0.000277395
-5.66317e-05
0.000263581
-1.77908e-05
0.000283675
-3.83218e-05
0.000354402
-8.10932e-05
0.000364201
-2.31365e-05
0.000315883
3.66271e-05
0.000257818
0.000101389
0.000170969
0.000124375
0.000108505
9.04732e-05
9.95009e-05
4.75494e-05
5.90951e-05
0.000114019
3.86291e-05
0.000142843
1.6625e-05
9.04268e-05
2.72625e-05
7.95704e-07
2.52734e-05
-6.76232e-05
-8.37438e-05
2.93119e-05
-4.54493e-07
-2.04125e-06
4.40778e-05
9.75844e-05
6.02797e-05
6.4972e-05
0.000100061
-1.36294e-05
0.000128225
-1.73944e-05
0.000143666
-5.09418e-05
0.000157318
-7.15544e-05
0.000142449
-4.17623e-05
0.00019087
-6.6212e-05
0.000246083
-9.35342e-05
0.000221708
-5.67191e-05
0.000222668
-2.40956e-05
0.000189882
6.94122e-05
0.000121794
0.000169478
8.8081e-05
0.000158088
9.63101e-05
8.22441e-05
4.79176e-05
9.5942e-05
2.15479e-05
0.000140389
4.42021e-06
0.000159971
2.71383e-05
6.77087e-05
4.31268e-05
-1.51927e-05
4.18037e-05
-6.63e-05
-8.43876e-05
4.24475e-05
2.91068e-06
-4.95193e-06
6.36293e-05
3.68658e-05
9.45433e-05
3.40579e-05
7.78013e-05
3.11257e-06
5.19874e-05
8.41957e-06
5.01394e-05
-4.90938e-05
6.43415e-05
-8.57564e-05
9.98173e-05
-7.72381e-05
0.000110582
-7.69773e-05
9.31833e-05
-7.61347e-05
9.4418e-05
-5.79537e-05
6.85414e-05
1.78089e-06
1.89282e-05
0.000119025
1.30758e-05
0.00017533
4.21049e-05
0.000129059
4.69741e-05
7.7375e-05
2.05077e-05
0.000122408
-3.01171e-06
0.000163908
-3.27258e-06
0.000160232
3.58107e-05
2.86256e-05
3.16904e-05
-1.10724e-05
3.30436e-05
-6.76531e-05
-7.55346e-05
2.41907e-05
6.4942e-06
-1.14461e-05
5.22992e-05
-8.93924e-06
5.096e-05
3.53971e-05
4.30171e-05
1.10555e-05
3.6416e-05
1.50207e-05
3.12943e-05
-4.39721e-05
2.98995e-05
-8.43616e-05
4.92397e-05
-9.65781e-05
6.56219e-05
-9.33593e-05
4.11899e-05
-5.17026e-05
1.94492e-05
-3.62129e-05
-2.98419e-07
2.15285e-05
-1.5234e-05
0.000133961
7.17937e-06
0.000152917
6.64934e-05
6.97455e-05
2.83238e-05
0.000115545
-6.56264e-05
0.000216359
-6.22273e-05
0.000160509
-2.06573e-05
0.000118662
1.3003e-05
-5.03472e-06
2.98126e-05
-2.78818e-05
2.98257e-05
-6.76661e-05
-7.55848e-05
2.98759e-05
-2.68312e-05
1.53851e-05
-4.43562e-05
8.58579e-06
-5.37498e-05
4.47907e-05
-4.2412e-05
-2.82265e-07
-1.8113e-05
-9.2782e-06
5.90161e-06
-6.79866e-05
-9.17644e-06
-6.92835e-05
2.07293e-05
-0.000126484
1.25189e-05
-8.51489e-05
1.70535e-05
-5.62371e-05
5.3381e-06
-2.44974e-05
-1.01362e-05
3.70029e-05
-1.2975e-06
0.000125123
3.44922e-05
0.000117127
2.10147e-05
8.3223e-05
-4.25516e-05
0.000179111
-8.3648e-05
0.000257455
-0.000129921
0.000206782
-5.36392e-05
4.23802e-05
-6.8784e-06
-5.17955e-05
1.00724e-05
-4.48326e-05
1.94526e-05
-7.70461e-05
-6.99917e-05
1.38596e-05
-4.08661e-05
5.62512e-05
-6.83064e-05
3.60264e-05
-5.37536e-05
3.0238e-05
-6.25037e-05
8.46786e-06
-4.30864e-05
-2.86954e-05
-3.50413e-05
-7.60317e-05
-4.19599e-05
-6.23648e-05
-5.42154e-05
-0.000114228
-6.03464e-05
-7.90178e-05
-1.38417e-05
-0.000102742
-1.61317e-05
-2.22074e-05
-1.26325e-05
3.35038e-05
-2.2765e-06
0.000114767
1.12729e-05
0.000103578
-6.11948e-05
0.000155691
-0.000106407
0.000224324
-9.87682e-05
0.000249816
-9.14218e-05
0.000199436
-5.55195e-05
6.478e-06
-2.57256e-05
-8.15893e-05
1.66757e-05
-8.72339e-05
2.43988e-05
-8.47692e-05
-6.88921e-05
2.32993e-05
-8.55107e-06
6.48024e-05
-1.73687e-05
4.48442e-05
-2.02575e-05
3.31269e-05
-3.72856e-05
2.5496e-05
-6.39688e-05
-2.01196e-06
-7.4698e-05
-6.53024e-05
-8.56669e-05
-5.13958e-05
-0.000102127
-9.77682e-05
-8.96995e-05
-9.14449e-05
-9.20359e-05
-0.000100405
-6.94827e-05
-4.47605e-05
-5.42446e-05
1.82659e-05
-4.8194e-05
0.000108716
-2.51666e-05
8.05505e-05
-8.08481e-05
0.000211372
-0.000143725
0.000287201
-9.25708e-05
0.000198661
-3.83724e-05
0.000145237
-1.14308e-05
-2.04635e-05
9.59785e-07
-9.39798e-05
1.30731e-05
-9.93471e-05
1.83093e-05
-9.00054e-05
-6.56705e-05
1.50878e-05
3.53701e-05
2.94325e-05
2.30003e-05
5.72142e-05
2.27308e-06
5.38541e-05
-1.47395e-05
4.25087e-05
-3.08714e-05
1.41201e-05
-6.67849e-05
-2.93888e-05
-8.8412e-05
-2.97686e-05
-0.00011033
-7.585e-05
-0.00011492
-8.68549e-05
-0.00012106
-9.42651e-05
-0.000123879
-4.19417e-05
-0.000112519
6.90591e-06
-5.44777e-05
5.06752e-05
-6.53296e-05
9.14024e-05
-4.97986e-05
0.000195841
-5.26889e-05
0.000290091
-3.82547e-05
0.000184227
1.79266e-05
8.90559e-05
4.96319e-05
-5.21688e-05
1.48268e-05
-5.91746e-05
2.00099e-05
-0.00010453
1.86149e-05
-8.86104e-05
-5.71811e-05
1.01256e-05
3.31141e-05
-3.68154e-06
1.28613e-05
7.7467e-05
-8.46033e-06
7.51757e-05
-1.62225e-05
5.02708e-05
-2.39361e-05
2.18337e-05
-3.51862e-05
-1.81386e-05
-3.84274e-05
-2.65273e-05
-6.39299e-05
-5.03474e-05
-8.92282e-05
-6.15565e-05
-0.000120102
-6.33913e-05
-0.000119041
-4.30028e-05
-0.000112781
6.46417e-07
-9.5427e-05
3.33211e-05
-6.58077e-05
6.17832e-05
-5.79425e-05
0.000187976
-2.89205e-05
0.000261069
8.28698e-06
0.00014702
6.81927e-05
2.91503e-05
7.43638e-05
-5.834e-05
6.38485e-05
-4.86593e-05
5.45454e-05
-9.52271e-05
1.7433e-05
-5.14979e-05
-5.98605e-05
2.01123e-05
-2.67606e-06
-1.00548e-06
-2.5982e-05
0.000100773
-4.2112e-05
9.13056e-05
-3.23015e-05
4.04602e-05
-2.78119e-05
1.7344e-05
-3.50791e-05
-1.08715e-05
-1.66069e-05
-4.49994e-05
-1.4436e-05
-5.25182e-05
-4.33726e-05
-3.26198e-05
-7.52766e-05
-3.14872e-05
-9.68948e-05
-2.13845e-05
-9.30569e-05
-3.1914e-06
-8.5033e-05
2.52974e-05
-5.55042e-05
3.22544e-05
-2.71286e-05
0.0001596
2.19664e-05
0.000211974
2.91003e-05
0.000139886
5.7607e-05
6.43619e-07
5.95839e-05
-6.03168e-05
8.63129e-05
-7.53884e-05
6.57003e-05
-7.46145e-05
5.60513e-05
-4.18488e-05
-3.09597e-05
2.71506e-05
-1.6278e-05
1.52725e-05
-5.02949e-05
0.00013479
-6.05355e-05
0.000101546
-5.81862e-05
3.81108e-05
-4.42349e-05
3.3927e-06
-1.87807e-05
-3.63257e-05
-3.27317e-05
-3.10484e-05
-3.08434e-05
-5.44066e-05
-3.39384e-05
-2.95247e-05
-3.84404e-05
-2.69851e-05
-4.20403e-05
-1.77845e-05
-4.27721e-05
-2.45955e-06
-3.12069e-05
1.37323e-05
-3.30906e-05
3.41382e-05
1.79266e-06
0.000124717
5.38561e-05
0.000159911
0.000156228
3.75135e-05
0.000157517
-6.45233e-07
0.000136644
-3.94437e-05
9.521e-05
-3.39542e-05