/*--------------------------------*- C++ -*----------------------------------*\
| =========                 |                                                 |
| \\      /  F ield         | foam-extend: Open Source CFD                    |
|  \\    /   O peration     | Version:     4.1                                |
|   \\  /    A nd           | Web:         http://www.foam-extend.org         |
|    \\/     M anipulation  |                                                 |
\*---------------------------------------------------------------------------*/
FoamFile
{
    version     2.0;
    format      ascii;
    class       volVectorField;
    location    "1";
    object      U_0;
}
// * * * * * * * * * * * * * * * * * * * * * * * * * * * * * * * * * * * * * //

dimensions      [0 1 -1 0 0 0 0];

internalField   nonuniform List<vector> 
2268
(
(-0.0002336 0.00622198 0)
(-0.014283 0.00255777 0)
(0.00346291 -0.000578935 0)
(-0.000923369 -0.0113761 0)
(0.0122471 0.00141105 0)
(-0.0173108 -0.00632004 0)
(-0.0151405 -0.00858177 0)
(0.00478307 -0.0130896 0)
(0.0377063 -0.0228744 0)
(0.0947133 -0.0157275 0)
(0.116176 0.00224175 0)
(0.136433 -0.00600415 0)
(0.163947 0.00703501 0)
(0.151997 0.0063674 0)
(0.107364 0.00890278 0)
(0.0716714 -0.0022249 0)
(0.0602006 0.000559729 0)
(0.0376353 0.00122659 0)
(0.0133457 0.00222625 0)
(-0.00303228 -0.00574684 0)
(-0.0171836 -0.00346265 0)
(-0.004286 -0.00578373 0)
(0.0251682 0.00305414 0)
(0.0093548 0.000843756 0)
(-0.000817463 -0.00382546 0)
(0.0175049 -0.00556074 0)
(-0.00970994 0.00506075 0)
(0.00976463 0.00204853 0)
(-0.00641042 0.0194033 0)
(-0.00303713 0.00289815 0)
(0.015991 -0.0135283 0)
(0.0567663 -0.0255959 0)
(0.0692478 -0.0399648 0)
(0.105282 -0.0237602 0)
(0.13121 -0.0155631 0)
(0.147286 -0.0229771 0)
(0.127689 0.0188357 0)
(0.0670436 0.0310062 0)
(0.0523194 0.0235103 0)
(0.0369046 0.0172552 0)
(0.0046792 0.0219655 0)
(-0.00482792 0.0161525 0)
(-0.0143303 0.0182739 0)
(-0.0220894 0.00461036 0)
(-0.00741016 -0.014087 0)
(0.0222273 0.00771274 0)
(0.00759739 0.0027049 0)
(-0.013705 -0.00147693 0)
(-0.0056772 -0.001155 0)
(-0.0265811 -0.00551801 0)
(-0.00983617 0.000101071 0)
(-0.0229124 -0.00935638 0)
(-0.020282 -0.0185068 0)
(-0.00290433 -0.0417127 0)
(0.0139363 -0.028117 0)
(0.0150761 -0.0553626 0)
(0.0812929 -0.0334338 0)
(0.0885969 -0.0229619 0)
(0.128516 0.025277 0)
(0.119198 0.0443448 0)
(0.0528103 0.0543454 0)
(0.0281883 0.0309467 0)
(-0.0159072 0.0114991 0)
(-0.0352163 0.0180881 0)
(-0.0326234 0.0177188 0)
(-0.0412964 0.0147449 0)
(-0.0397793 0.00564178 0)
(-0.0138951 -0.0302971 0)
(0.0254581 0.0111231 0)
(-0.00401459 0.00389203 0)
(-0.00918003 0.00529177 0)
(-0.0113995 0.00316015 0)
(-0.0204345 0.00474044 0)
(0.000794375 0.000384013 0)
(-0.024119 0.00473945 0)
(-0.0264587 -0.0062843 0)
(-0.0101218 -0.00177447 0)
(-0.0220822 -0.0221425 0)
(0.0031886 -0.0581742 0)
(0.0586738 -0.0671786 0)
(0.0746919 -0.0396339 0)
(0.106931 0.0211691 0)
(0.0969608 0.0248789 0)
(0.0403829 0.0654981 0)
(0.00529155 0.0757072 0)
(-0.0374999 0.0230642 0)
(-0.0842261 0.0263901 0)
(-0.084835 0.0214437 0)
(-0.0715419 -0.00386211 0)
(-0.0548865 0.000613005 0)
(-0.0219988 -0.041992 0)
(0.035921 0.0136918 0)
(-0.0047745 0.00862346 0)
(-0.00962939 0.00252014 0)
(-0.00143061 -0.00799192 0)
(-0.0226924 -3.87524e-05 0)
(-0.00770935 0.00486435 0)
(-0.0569618 0.00707284 0)
(-0.0591782 -0.019983 0)
(-0.0409121 -0.0284343 0)
(-0.0553497 -0.0567304 0)
(0.00212417 -0.0709062 0)
(0.0356114 -0.0780837 0)
(0.053097 -0.0439537 0)
(0.0917965 0.00666395 0)
(0.097704 0.0571706 0)
(0.0432893 0.0914767 0)
(-0.016788 0.172006 0)
(-0.0590903 0.0525051 0)
(-0.120742 0.0333305 0)
(-0.130459 -0.00115149 0)
(-0.106048 0.0195417 0)
(-0.0883116 -0.0110518 0)
(-0.0432754 -0.081096 0)
(0.0464331 0.0191403 0)
(-0.0108108 0.0102969 0)
(-0.0221356 0.00519146 0)
(-0.0185511 0.00896363 0)
(-0.0295879 0.00178595 0)
(-0.0220434 -0.00941977 0)
(-0.0578051 0.0276209 0)
(-0.0689024 -0.0133316 0)
(-0.0567956 -0.00282774 0)
(-0.0594568 -0.0346035 0)
(-0.0251362 -0.0873398 0)
(-0.0283815 -0.0907376 0)
(-0.0227984 -0.0721313 0)
(0.0281667 0.0103231 0)
(0.0532121 0.0913114 0)
(0.00837835 0.125334 0)
(-0.0519826 0.19009 0)
(-0.10528 0.0717297 0)
(-0.167692 0.0635712 0)
(-0.183681 0.00868143 0)
(-0.149757 -0.0105292 0)
(-0.131817 -0.044704 0)
(-0.0433045 -0.0977114 0)
(0.0685552 0.0175891 0)
(-0.0114831 0.0159762 0)
(-0.0161089 0.0150418 0)
(-0.0189356 -0.00446561 0)
(-0.0383875 0.007141 0)
(-0.01467 -0.00208326 0)
(-0.0715592 0.0334487 0)
(-0.095121 -0.0114944 0)
(-0.0739692 -0.0415543 0)
(-0.0837846 -0.0568622 0)
(-0.0983284 -0.0836785 0)
(-0.158246 -0.0732771 0)
(-0.18491 -0.0704091 0)
(-0.137239 -0.0280043 0)
(-0.0530065 0.0422276 0)
(-0.0835769 0.128644 0)
(-0.105095 0.268941 0)
(-0.170904 0.0980926 0)
(-0.223277 0.0763567 0)
(-0.234442 -0.0202103 0)
(-0.179441 -0.0230532 0)
(-0.119494 -0.0925957 0)
(-0.0524812 -0.143953 0)
(0.0758613 0.0312737 0)
(-0.00680762 0.0221791 0)
(-0.0268889 0.0109379 0)
(-0.0458504 0.00129501 0)
(-0.0685807 0.00151631 0)
(-0.0769319 -0.00673562 0)
(-0.111345 0.00580136 0)
(-0.126056 0.0281 0)
(-0.105044 -0.00139225 0)
(-0.107864 -0.00969863 0)
(-0.207581 -0.0665666 0)
(-0.318167 -0.0681342 0)
(-0.3701 -0.0850083 0)
(-0.395792 -0.0640025 0)
(-0.260121 0.0301158 0)
(-0.160177 0.171856 0)
(-0.180022 0.244758 0)
(-0.221497 0.119066 0)
(-0.287608 0.0864894 0)
(-0.276919 0.00304484 0)
(-0.16681 -0.0484169 0)
(-0.120039 -0.109108 0)
(-0.0814095 -0.202453 0)
(0.098552 0.0812681 0)
(-0.169478 0.0821886 0)
(-0.301007 0.0359055 0)
(-0.355792 0.0176265 0)
(-0.275753 -0.0399342 0)
(-0.205288 -0.0225727 0)
(-0.182932 -0.0395484 0)
(-0.246872 -0.0186153 0)
(-0.276823 -0.0488036 0)
(-0.265774 -0.0811711 0)
(-0.181448 -0.134382 0)
(-0.0329104 -0.132795 0)
(0.103326 -0.0446546 0)
(0.00106893 0.0445223 0)
(-0.146913 -0.0210413 0)
(-0.156187 -0.0228254 0)
(-0.132696 0.0192277 0)
(-0.142887 -0.0255777 0)
(-0.0648455 -0.0203676 0)
(-0.0359443 -0.000510905 0)
(-0.13705 0.111153 0)
(-0.180701 0.0409501 0)
(-0.216523 -0.0221577 0)
(-0.0241879 -0.0823662 0)
(0.0875515 -0.0269305 0)
(0.0885237 0.0922242 0)
(-0.0672813 0.0959679 0)
(-0.175646 0.058938 0)
(-0.20243 -0.0104409 0)
(-0.145782 -0.0824879 0)
(-0.0578714 -0.114395 0)
(0.159127 0.0302314 0)
(0.15174 0.0586208 0)
(0.0697173 0.0553646 0)
(-0.0718832 0.0682119 0)
(0.00702364 -0.0225203 0)
(-0.00138969 -0.0129654 0)
(-0.0287928 -0.0460524 0)
(-0.0643015 -0.0252138 0)
(-0.0783475 0.186198 0)
(-0.0356078 0.0865933 0)
(0.0533598 -0.02476 0)
(0.196375 -0.126593 0)
(0.18384 -0.0723199 0)
(0.241656 0.0621168 0)
(0.251175 0.105037 0)
(0.00620313 0.0927093 0)
(0.00278871 -0.0365009 0)
(0.113426 -0.0870761 0)
(-0.0169318 -0.119105 0)
(0.0632701 -0.110983 0)
(0.156061 0.0498625 0)
(0.120486 0.05993 0)
(0.0552042 0.064788 0)
(0.0751217 7.73018e-05 0)
(0.0724283 0.00047994 0)
(-0.0093686 -0.0141787 0)
(-0.0272743 -0.0484334 0)
(-0.0601591 0.165419 0)
(0.197147 0.00534156 0)
(0.275234 -0.057159 0)
(0.377903 -0.157026 0)
(0.385947 -0.0645833 0)
(0.312868 0.0155905 0)
(0.386319 0.0946922 0)
(0.299495 0.14999 0)
(0.0709616 -0.0578454 0)
(0.245494 -0.0871292 0)
(0.0825147 -0.0970826 0)
(-0.00556851 -0.152194 0)
(0.158336 0.0652355 0)
(0.153077 0.108887 0)
(0.0789956 0.0945877 0)
(0.0464388 0.0194226 0)
(0.067366 -0.0254273 0)
(0.0204335 -0.00385105 0)
(0.0400019 -0.0154302 0)
(0.0160509 0.113556 0)
(0.27816 -0.043245 0)
(0.463303 -0.26458 0)
(0.45929 -0.210052 0)
(0.456212 -0.0748506 0)
(0.312259 0.0468727 0)
(0.358194 0.101872 0)
(0.380816 0.243729 0)
(0.159287 -0.00958181 0)
(0.309242 -0.0681141 0)
(0.173606 -0.020029 0)
(-0.0487132 -0.105206 0)
(0.0793959 -0.0571035 0)
(0.133467 0.134083 0)
(0.0804191 0.152075 0)
(0.0460758 0.0257266 0)
(0.0705714 -0.0123649 0)
(-0.00147055 -0.000121255 0)
(0.0218196 -0.01361 0)
(0.057503 0.0327983 0)
(0.329335 -0.0454777 0)
(0.507344 -0.285904 0)
(0.490277 -0.205837 0)
(0.465799 -0.0215719 0)
(0.315552 0.0742679 0)
(0.278292 0.243192 0)
(0.356286 0.250601 0)
(0.249403 -0.0414965 0)
(0.365336 -0.0950511 0)
(0.398891 0.0929293 0)
(-0.00937486 -0.0471888 0)
(-0.00026617 -0.0817289 0)
(0.0645768 0.10678 0)
(0.04393 0.141685 0)
(0.0179043 0.0574115 0)
(0.0694647 -0.0325872 0)
(0.011287 0.00178698 0)
(0.0352445 -0.00742523 0)
(0.262505 -0.0891342 0)
(0.354325 -0.188414 0)
(0.498103 -0.276802 0)
(0.471 -0.236206 0)
(0.382385 0.00912613 0)
(0.28835 0.103452 0)
(0.211248 0.227052 0)
(0.311324 0.191749 0)
(0.264445 -0.0359228 0)
(0.342887 -0.130737 0)
(0.422809 0.102806 0)
(0.0580835 0.0596563 0)
(-0.0620123 -0.125259 0)
(0.0330718 0.00969635 0)
(0.108708 0.0571682 0)
(0.0903979 0.0397642 0)
(0.11328 -0.0161747 0)
(0.0580424 0.0123099 0)
(0.0473053 0.00578587 0)
(0.373529 -0.230044 0)
(0.412058 -0.228624 0)
(0.459108 -0.320311 0)
(0.391695 -0.317477 0)
(0.273935 0.118262 0)
(0.17757 0.239192 0)
(0.166677 0.136841 0)
(0.227016 0.110468 0)
(0.284592 -0.0550155 0)
(0.292346 -0.122836 0)
(0.37408 0.286109 0)
(0.375196 0.285136 0)
(-0.172885 0.0434334 0)
(0.0387446 0.0112303 0)
(0.168456 0.0895998 0)
(0.155961 0.0582871 0)
(0.128051 0.0106302 0)
(0.0663049 0.0234838 0)
(0.0906106 0.0152393 0)
(-0.0139926 0.0252761 0)
(0.00554224 0.0576267 0)
(-0.0281566 0.0254659 0)
(-0.111933 0.0292854 0)
(-0.103114 0.0364428 0)
(-0.100913 0.016272 0)
(-0.131425 0.0432684 0)
(-0.170786 0.0208223 0)
(-0.253617 0.0283142 0)
(-0.328221 -0.000397917 0)
(-0.467975 0.0684311 0)
(-0.641809 -0.0100188 0)
(-0.686056 -0.0571377 0)
(-0.569335 -0.0576362 0)
(-0.42214 0.101168 0)
(-0.35447 0.102348 0)
(-0.293765 0.126623 0)
(-0.253159 0.0659435 0)
(-0.27669 0.044817 0)
(-0.218245 -0.114518 0)
(-0.118777 -0.149881 0)
(-0.112231 -0.209435 0)
(0.0577223 -0.0561543 0)
(0.00215626 0.0278105 0)
(-0.0561599 0.0747161 0)
(-0.0633873 0.038975 0)
(-0.101005 0.0372549 0)
(-0.12364 0.0769683 0)
(-0.108323 0.0472894 0)
(-0.101472 0.0537531 0)
(-0.156425 0.108387 0)
(-0.240033 0.110914 0)
(-0.286095 0.152005 0)
(-0.482175 0.134457 0)
(-0.817242 0.0316195 0)
(-0.823813 -0.232875 0)
(-0.760651 -0.266047 0)
(-0.554356 -0.0592526 0)
(-0.430945 0.107105 0)
(-0.32255 0.112718 0)
(-0.283776 0.114598 0)
(-0.209299 -0.0108551 0)
(-0.197004 -0.219077 0)
(-0.125166 -0.370272 0)
(-0.152277 -0.359343 0)
(-0.143315 -0.26534 0)
(-0.0118956 0.0574615 0)
(-0.0533522 0.0691836 0)
(-0.101313 0.0674659 0)
(-0.0968196 0.0377329 0)
(-0.124745 0.0537101 0)
(-0.151652 0.0588572 0)
(-0.0774684 0.107632 0)
(-0.0534296 0.146487 0)
(-0.0657476 0.208212 0)
(-0.0544663 0.411116 0)
(-0.455356 0.574393 0)
(-0.738176 0.288475 0)
(-0.782894 -0.311239 0)
(-0.745328 -0.466051 0)
(-0.561293 -0.247694 0)
(-0.44197 -0.144164 0)
(-0.338156 -0.135933 0)
(-0.306808 -0.119745 0)
(-0.332636 -0.124283 0)
(-0.402732 -0.262393 0)
(-0.23862 -0.432131 0)
(-0.158222 -0.40382 0)
(-0.201319 -0.264749 0)
(-0.0751958 0.0863284 0)
(-0.0865831 0.0938509 0)
(-0.0999559 0.0798671 0)
(-0.112806 0.0678016 0)
(-0.0800324 0.0493192 0)
(-0.0787789 0.0327305 0)
(-0.0560479 0.0854679 0)
(-0.0153443 0.108708 0)
(0.00225133 0.19897 0)
(-0.0783445 0.366975 0)
(0.0716233 0.999626 0)
(-0.152884 0.940577 0)
(-0.660863 -0.189583 0)
(-0.940544 -0.467558 0)
(-1.13341 -0.410867 0)
(-0.932662 -0.150957 0)
(-0.405221 -0.0146998 0)
(-0.282544 0.0453654 0)
(-0.452098 -0.160612 0)
(-0.427727 -0.2752 0)
(-0.252746 -0.3244 0)
(-0.206001 -0.331536 0)
(-0.191829 -0.231019 0)
(-0.0828271 0.155396 0)
(-0.105703 0.14857 0)
(-0.0597504 0.165625 0)
(-0.0837677 0.0842838 0)
(-0.111399 0.0448335 0)
(-0.0725232 0.00798606 0)
(-0.0519445 0.0133852 0)
(-0.0401963 0.102607 0)
(-0.0103153 0.129319 0)
(-0.0232375 0.287942 0)
(0.202984 0.769691 0)
(0.272621 1.94609 0)
(-0.362278 0.73249 0)
(-1.02743 -0.224743 0)
(-1.17662 -0.536828 0)
(-1.10285 -0.518641 0)
(-0.729633 -0.483661 0)
(-0.456934 -0.446359 0)
(0.0790472 0.313582 0)
(-0.326161 -0.415832 0)
(-0.158941 -0.458667 0)
(-0.228685 -0.480258 0)
(-0.221602 -0.17354 0)
(0.0120735 0.258205 0)
(-0.105347 0.205226 0)
(-0.112083 0.115978 0)
(-0.0694921 0.0597017 0)
(-0.0970657 0.05327 0)
(-0.082027 -0.00327226 0)
(-0.0706213 0.0403519 0)
(-0.0336515 0.0898156 0)
(0.0595554 0.108529 0)
(0.106454 0.139891 0)
(0.215109 0.5961 0)
(0.119099 1.90019 0)
(-0.837763 0.965234 0)
(-0.783646 0.250546 0)
(-0.947724 -0.397845 0)
(-0.898821 -0.730665 0)
(-0.764022 -0.781941 0)
(-0.667775 -0.766655 0)
(-0.20922 -0.137311 0)
(0.203609 0.0627176 0)
(-0.190574 -0.535802 0)
(-0.232478 -0.550405 0)
(-0.133964 -0.258212 0)
(0.194596 0.246873 0)
(0.0918019 0.307365 0)
(-0.109701 0.101645 0)
(-0.0944477 0.0561866 0)
(-0.141427 0.0798117 0)
(-0.116181 -0.0158603 0)
(0.0394563 -0.0239221 0)
(0.157478 -0.0366799 0)
(0.319905 -0.000151749 0)
(0.0864468 0.16829 0)
(0.0710267 0.650979 0)
(-0.241813 2.0419 0)
(-0.895103 1.33461 0)
(-0.467359 0.669834 0)
(-0.852792 -0.209308 0)
(-0.783279 -0.718083 0)
(-0.740134 -0.833001 0)
(-0.680601 -0.804279 0)
(-0.584408 -0.583993 0)
(-0.320087 -0.453417 0)
(-0.206601 -0.504763 0)
(-0.264265 -0.502036 0)
(-0.171193 -0.266769 0)
(0.0358496 -0.034099 0)
(0.127039 0.397531 0)
(-0.265382 0.14983 0)
(-0.1741 0.114492 0)
(-0.118741 0.0845457 0)
(0.265303 -0.266826 0)
(0.402806 -0.270287 0)
(0.493839 -0.232126 0)
(0.332422 0.215074 0)
(-0.280553 0.366423 0)
(-0.225307 0.93984 0)
(-1.01211 2.26095 0)
(-0.896602 1.43819 0)
(-0.556764 0.828447 0)
(-0.747757 0.00205267 0)
(-0.7182 -0.588791 0)
(-0.636161 -0.803848 0)
(-0.639061 -0.81002 0)
(-0.665001 -0.661669 0)
(-0.521601 -0.522764 0)
(-0.455294 -0.48128 0)
(-0.291055 -0.369522 0)
(-0.173748 -0.288527 0)
(-0.00480181 0.0354851 0)
(-0.176667 0.560724 0)
(-0.331996 0.277473 0)
(-0.13866 0.114294 0)
(0.019358 -0.387 0)
(0.506171 -0.235958 0)
(0.0245906 -0.367126 0)
(-0.222177 0.28626 0)
(-0.628115 0.497794 0)
(-1.14169 0.841259 0)
(-0.995248 1.54658 0)
(-1.58643 2.24987 0)
(-0.841328 1.38727 0)
(-0.86516 0.629296 0)
(-0.601234 -0.180848 0)
(-0.410387 -0.696474 0)
(-0.274065 -0.743275 0)
(-0.416252 -0.660174 0)
(-0.525944 -0.614152 0)
(-0.453687 -0.555588 0)
(-0.352963 -0.636927 0)
(-0.368576 -0.525078 0)
(-0.418599 -0.467634 0)
(-0.0257045 0.0841157 0)
(-0.0751438 0.805712 0)
(-0.374204 0.530148 0)
(-0.138055 -0.284296 0)
(0.337118 -0.544138 0)
(-0.664447 0.057644 0)
(-0.910786 0.295855 0)
(-0.964365 0.49823 0)
(-1.27231 0.828249 0)
(-1.77439 1.21049 0)
(-1.63683 1.85031 0)
(-1.61405 2.04129 0)
(-0.928103 0.898325 0)
(-0.958479 0.0988054 0)
(-0.461585 -0.729698 0)
(-0.242175 -0.971404 0)
(-0.153787 -0.785018 0)
(-0.0623252 -0.753138 0)
(0.0905367 -0.664081 0)
(-0.206258 -0.766318 0)
(-0.217968 -0.754808 0)
(-0.368613 -0.736529 0)
(-0.576191 -0.446383 0)
(-0.134054 0.0495543 0)
(0.12954 0.915239 0)
(-0.336341 0.689236 0)
(-0.564415 -0.679546 0)
(-0.799961 0.276548 0)
(-0.938037 0.482754 0)
(-1.13609 0.611474 0)
(-1.25977 0.888635 0)
(-1.51358 1.02223 0)
(-1.72074 1.44946 0)
(-1.61279 1.71562 0)
(-1.32426 1.40178 0)
(-0.976336 0.220348 0)
(-0.642884 -0.168085 0)
(-0.530783 -0.978364 0)
(-0.299131 -1.11651 0)
(-0.260386 -0.771989 0)
(-0.141369 -0.79216 0)
(0.155371 -0.59922 0)
(-0.0297359 -0.577114 0)
(-0.301467 -0.709941 0)
(-0.454133 -0.665191 0)
(-0.531782 -0.536355 0)
(-0.223657 0.0770513 0)
(0.167346 0.995437 0)
(-0.410168 0.592408 0)
(-0.235225 -0.090616 0)
(-0.644797 0.15783 0)
(-0.771567 0.523862 0)
(-1.04275 0.680261 0)
(-1.22474 1.09339 0)
(-1.45822 1.23132 0)
(-1.54213 1.41831 0)
(-1.47942 1.44748 0)
(-1.25321 0.926121 0)
(-1.0365 0.339964 0)
(-0.465638 -0.353471 0)
(-0.495783 -1.06135 0)
(-0.414947 -1.14089 0)
(-0.489462 -0.880605 0)
(-0.315148 -0.872774 0)
(0.103779 -0.688944 0)
(0.0458726 -0.614838 0)
(0.0933005 -0.350031 0)
(-0.169298 -0.304619 0)
(-0.279771 -0.337186 0)
(-0.232685 0.209454 0)
(0.149496 1.09603 0)
(-0.315511 0.640434 0)
(-0.116844 0.163242 0)
(-0.448232 0.319882 0)
(-0.715794 0.708561 0)
(-1.02865 0.918069 0)
(-1.10258 1.17608 0)
(-1.19125 1.21438 0)
(-1.17372 1.23716 0)
(-1.05741 0.855369 0)
(-0.815773 0.275513 0)
(-0.710259 -0.02549 0)
(-0.664607 -0.784736 0)
(-0.631459 -1.07221 0)
(-0.589996 -1.13038 0)
(-0.694198 -1.10039 0)
(-0.532465 -1.12106 0)
(-0.0629363 -0.800918 0)
(0.0422209 -0.524238 0)
(0.210859 -0.21672 0)
(0.190068 -0.111221 0)
(-0.166841 -0.340507 0)
(-0.186392 0.210608 0)
(0.0957781 1.076 0)
(-0.198495 0.746114 0)
(-0.171914 0.322346 0)
(-0.473405 0.556172 0)
(-0.530447 0.721882 0)
(-0.70238 1.04484 0)
(-0.759507 1.24351 0)
(-0.860453 1.22484 0)
(-0.878666 1.10307 0)
(-0.790817 1.00343 0)
(-0.558525 0.424169 0)
(-0.626339 -0.25185 0)
(-0.603015 -0.744935 0)
(-0.729042 -0.917168 0)
(-0.708464 -1.21315 0)
(-0.855166 -1.40839 0)
(-0.866797 -1.48869 0)
(-0.480136 -1.07169 0)
(-0.0620593 -0.557935 0)
(-0.14566 -0.27725 0)
(-0.0824517 0.13175 0)
(-0.355631 -0.109669 0)
(-0.129306 0.160194 0)
(0.0769281 1.0871 0)
(-0.154249 0.809481 0)
(-0.046821 0.531022 0)
(-0.204089 0.736582 0)
(-0.152362 0.996407 0)
(-0.492914 1.23036 0)
(-0.551063 1.35034 0)
(-0.607101 1.2892 0)
(-0.339424 1.206 0)
(-0.328203 0.969538 0)
(-0.729292 0.331062 0)
(-0.753964 -0.163645 0)
(-0.507016 -0.541389 0)
(-0.668741 -0.814453 0)
(-0.711432 -1.21583 0)
(-0.919534 -1.4954 0)
(-1.01013 -1.57715 0)
(-0.768433 -1.23706 0)
(-0.441001 -0.637611 0)
(-0.60666 -0.135359 0)
(-0.491913 0.0179922 0)
(-0.364369 -0.241593 0)
(-0.0910209 0.20744 0)
(0.0962074 1.11291 0)
(-0.166619 0.943454 0)
(-0.0844845 0.977191 0)
(-0.192471 0.750165 0)
(0.0981982 0.937025 0)
(-0.166961 1.21806 0)
(-0.194063 1.336 0)
(-0.283543 1.44194 0)
(-0.0448819 1.49449 0)
(-0.0982002 0.867422 0)
(-0.451515 0.369042 0)
(-0.401236 0.249932 0)
(-0.256004 -0.436912 0)
(-0.394095 -0.593571 0)
(-0.70118 -1.04372 0)
(-0.898625 -1.45467 0)
(-1.03228 -1.5078 0)
(-0.872512 -1.28369 0)
(-0.744242 -0.72142 0)
(-0.783971 -0.339204 0)
(-0.637254 -0.155734 0)
(-0.328096 -0.391066 0)
(-0.0618686 0.173368 0)
(0.155814 1.13174 0)
(-0.0534351 1.01007 0)
(-0.0687003 0.88066 0)
(-0.24272 0.570345 0)
(0.0977019 0.88727 0)
(0.0121857 1.25636 0)
(0.102739 1.32531 0)
(0.0503732 1.43506 0)
(0.261997 1.47756 0)
(0.093942 0.936779 0)
(0.0662186 0.413272 0)
(-0.0117784 0.028787 0)
(0.259392 -0.607494 0)
(0.180392 -0.490703 0)
(-0.171166 -0.73925 0)
(-0.338819 -1.16465 0)
(-0.570721 -1.13061 0)
(-0.697437 -1.191 0)
(-0.63136 -0.746033 0)
(-0.47595 -0.611688 0)
(-0.386053 -0.442188 0)
(-0.222293 -0.414618 0)
(-0.0622616 0.115434 0)
(0.228795 1.14932 0)
(0.107369 1.08426 0)
(-0.00160263 0.805625 0)
(-0.103687 0.515443 0)
(0.0930009 0.73739 0)
(0.170961 1.26373 0)
(0.322699 1.26753 0)
(0.346684 1.18951 0)
(0.55791 1.42035 0)
(0.399437 1.18073 0)
(0.604765 0.893944 0)
(0.276341 0.326086 0)
(0.662837 -0.442114 0)
(0.750453 -0.501441 0)
(0.44923 -0.597906 0)
(0.308791 -1.03799 0)
(0.29304 -0.98092 0)
(-0.0507106 -1.11076 0)
(-0.485283 -0.964024 0)
(-0.309201 -0.654582 0)
(-0.136755 -0.530357 0)
(-0.0687849 -0.318954 0)
(-0.0247005 -0.00756969 0)
(0.236826 1.12102 0)
(0.22995 1.14348 0)
(0.105836 0.88278 0)
(0.172518 0.67559 0)
(0.159739 0.671671 0)
(0.181237 1.10151 0)
(0.3998 1.33338 0)
(0.628044 1.30173 0)
(0.929804 1.20169 0)
(0.798347 1.02833 0)
(0.960077 0.743857 0)
(0.693246 0.259597 0)
(1.05769 -0.384627 0)
(1.17412 -0.746153 0)
(0.821723 -0.807112 0)
(0.747767 -0.822396 0)
(0.705914 -0.950727 0)
(0.437425 -1.14792 0)
(0.0428922 -1.05251 0)
(0.113887 -0.713771 0)
(0.0269326 -0.518323 0)
(0.0777203 -0.546718 0)
(0.146788 -0.120125 0)
(0.154022 1.01509 0)
(0.364464 1.06939 0)
(0.304218 0.991669 0)
(0.244473 0.877887 0)
(0.167112 0.746076 0)
(0.294698 0.960845 0)
(0.594021 1.19828 0)
(0.788797 1.12977 0)
(0.854991 0.950131 0)
(0.779328 0.757779 0)
(1.017 0.520688 0)
(0.9943 0.0769353 0)
(1.17977 -0.213548 0)
(1.38988 -0.660845 0)
(1.12871 -0.770559 0)
(0.966428 -0.768101 0)
(0.866373 -0.761219 0)
(0.691017 -0.817402 0)
(0.611891 -0.68103 0)
(0.284918 -0.526602 0)
(0.105084 -0.516464 0)
(0.12606 -0.636264 0)
(0.156105 -0.222031 0)
(0.090449 0.724857 0)
(0.490514 1.13341 0)
(0.573453 0.958754 0)
(0.410786 0.82139 0)
(0.177443 0.781807 0)
(0.232518 0.938698 0)
(0.520113 1.05354 0)
(0.636683 0.93696 0)
(0.683417 0.541296 0)
(0.767168 0.387483 0)
(1.05574 0.270791 0)
(1.08853 -0.0320204 0)
(1.22589 -0.207505 0)
(1.4002 -0.537691 0)
(1.24871 -0.649996 0)
(1.04044 -0.66583 0)
(0.880837 -0.628709 0)
(0.718789 -0.540595 0)
(0.578816 -0.296716 0)
(0.202595 -0.223432 0)
(0.112502 -0.394961 0)
(0.103959 -0.452961 0)
(-0.0258965 -0.2862 0)
(0.170069 0.515497 0)
(0.429386 1.12819 0)
(0.518065 0.89027 0)
(0.386905 0.754348 0)
(0.209791 0.6208 0)
(0.161053 0.620212 0)
(0.374422 0.718696 0)
(0.475476 0.632251 0)
(0.677626 0.479297 0)
(0.744025 0.351943 0)
(0.893618 0.253654 0)
(0.966318 -0.0762451 0)
(1.21475 -0.440639 0)
(1.32471 -0.656572 0)
(1.30674 -0.645268 0)
(1.00027 -0.613163 0)
(0.741699 -0.479546 0)
(0.483795 -0.212541 0)
(0.374284 -0.0679614 0)
(0.161834 -0.134649 0)
(0.172966 -0.360746 0)
(0.144157 -0.385101 0)
(-0.324435 -0.511479 0)
(0.0872949 0.581134 0)
(0.141758 1.05041 0)
(0.233896 0.884918 0)
(0.32805 0.711859 0)
(0.257485 0.499497 0)
(0.226248 0.402983 0)
(0.343435 0.402718 0)
(0.448622 0.475675 0)
(0.634692 0.405164 0)
(0.767689 0.282307 0)
(0.888219 0.00795335 0)
(1.00448 -0.257781 0)
(1.10073 -0.374114 0)
(1.10591 -0.436628 0)
(1.03813 -0.503453 0)
(0.793705 -0.526973 0)
(0.721802 -0.385462 0)
(0.572464 -0.0304018 0)
(0.366494 0.173933 0)
(0.195475 -0.0232836 0)
(0.19581 -0.340136 0)
(0.164103 -0.387426 0)
(-0.453239 -0.574149 0)
(0.174611 0.433895 0)
(-0.124694 0.673872 0)
(0.23209 0.850443 0)
(0.302493 0.729151 0)
(0.396479 0.504091 0)
(0.387115 0.490714 0)
(0.447026 0.377507 0)
(0.606977 0.327647 0)
(0.863219 0.198933 0)
(1.10366 0.00728509 0)
(1.22282 -0.110764 0)
(1.12936 -0.211433 0)
(1.10009 -0.267672 0)
(1.04202 -0.320544 0)
(0.867259 -0.358864 0)
(0.774582 -0.236345 0)
(0.522271 -0.0174168 0)
(0.249113 0.211673 0)
(0.149901 0.239074 0)
(0.110011 -0.0607791 0)
(0.194909 -0.349727 0)
(0.154403 -0.348663 0)
(-0.638447 -0.35249 0)
(0.315234 0.421751 0)
(-0.332022 0.658833 0)
(0.262448 0.864668 0)
(0.308827 0.714156 0)
(0.477401 0.531414 0)
(0.653011 0.409411 0)
(0.780025 0.362774 0)
(0.883632 0.119528 0)
(1.0869 0.116887 0)
(1.27377 -0.0228973 0)
(1.28582 -0.0696354 0)
(1.13337 -0.107426 0)
(1.11141 -0.189825 0)
(1.10683 -0.187212 0)
(0.982273 -0.0568593 0)
(0.547489 0.0611212 0)
(0.521387 0.100986 0)
(0.357194 0.256024 0)
(0.198585 0.245176 0)
(0.13687 -0.0401067 0)
(0.220556 -0.308138 0)
(0.189937 -0.320285 0)
(-0.736786 -0.0507833 0)
(0.0201012 0.494632 0)
(-0.413088 0.546309 0)
(0.371491 0.803213 0)
(0.384734 0.536502 0)
(0.585162 0.339165 0)
(0.760196 0.104359 0)
(0.879494 0.0550648 0)
(0.975272 -0.0819767 0)
(1.10058 -0.194903 0)
(1.20079 -0.151061 0)
(1.27505 -0.166487 0)
(1.20684 -0.177966 0)
(1.20996 -0.0827671 0)
(1.17959 0.055453 0)
(0.674808 0.183096 0)
(0.32507 0.2532 0)
(0.389718 0.212312 0)
(0.313357 0.397231 0)
(0.167174 0.392458 0)
(0.201336 0.0586923 0)
(0.278129 -0.273415 0)
(0.179777 -0.301899 0)
(-0.738945 0.0108924 0)
(0.511944 0.595376 0)
(-0.444899 0.291322 0)
(0.33619 0.367197 0)
(0.310353 0.113939 0)
(0.556845 -0.0946783 0)
(0.773585 -0.157085 0)
(0.917339 -0.158709 0)
(1.1979 -0.144052 0)
(1.84165 -0.115065 0)
(1.74781 -0.0781871 0)
(1.42307 -0.0283737 0)
(1.18111 0.129235 0)
(1.08648 0.356202 0)
(0.842874 0.331457 0)
(0.422725 0.264361 0)
(0.34403 0.302122 0)
(0.395623 0.381718 0)
(0.264588 0.533212 0)
(0.126231 0.437466 0)
(0.129394 -0.0162537 0)
(0.21804 -0.271268 0)
(0.120942 -0.327155 0)
(-0.723394 -0.00536857 0)
(0.695041 0.466963 0)
(0.0249901 0.283472 0)
(0.381156 -0.118739 0)
(0.425355 -0.0867437 0)
(0.538923 -0.178285 0)
(0.54989 -0.255516 0)
(0.691371 -0.266394 0)
(1.19853 -0.145598 0)
(1.17964 -0.239744 0)
(0.951 -0.441233 0)
(0.778987 -0.268118 0)
(0.833902 0.0989675 0)
(0.617964 0.492422 0)
(0.308659 0.608765 0)
(0.386371 0.35797 0)
(0.365905 0.377226 0)
(0.26439 0.465728 0)
(-0.000684465 0.592191 0)
(0.0501186 0.266202 0)
(0.128371 -0.0332758 0)
(0.193589 -0.24314 0)
(0.136915 -0.331058 0)
(-0.619216 0.0213315 0)
(0.623312 0.281053 0)
(0.348499 0.204105 0)
(0.311852 0.0221657 0)
(0.276645 -0.0282417 0)
(0.422196 -0.234147 0)
(0.249014 -0.340893 0)
(0.290814 -0.326091 0)
(0.447341 -0.35633 0)
(0.418671 -0.478394 0)
(0.332149 -0.334326 0)
(0.314442 0.0210275 0)
(0.256122 0.458561 0)
(0.00436719 0.731636 0)
(0.241411 0.577279 0)
(0.38113 0.30098 0)
(0.239741 0.381753 0)
(-0.0338387 0.629142 0)
(-0.0328083 0.669347 0)
(0.0282419 0.281215 0)
(0.220288 -0.0650735 0)
(0.193778 -0.255008 0)
(0.11198 -0.320015 0)
(-0.471216 -0.0275085 0)
(0.499625 0.0398485 0)
(0.232513 0.0944027 0)
(0.141872 0.0125063 0)
(0.182643 0.0832444 0)
(0.156596 -0.125692 0)
(0.0883453 -0.27312 0)
(0.120056 -0.252189 0)
(0.254751 -0.217449 0)
(0.207132 -0.216464 0)
(0.104121 -0.102876 0)
(0.0305161 0.0716047 0)
(-0.0445123 0.507003 0)
(-0.0560747 0.656673 0)
(0.222458 0.408746 0)
(0.276253 0.316449 0)
(-0.0660959 0.628048 0)
(-0.436884 1.10361 0)
(-0.089069 0.631206 0)
(-0.0559836 0.0744008 0)
(0.124602 -0.153699 0)
(0.118882 -0.247787 0)
(0.115379 -0.299323 0)
(-0.351901 -0.0387531 0)
(-0.0679824 -0.0722912 0)
(-0.227327 0.187116 0)
(-0.187364 0.0405271 0)
(-0.11929 -0.00562136 0)
(0.012214 -0.211024 0)
(-0.0116371 -0.421808 0)
(-0.0386932 -0.458339 0)
(0.143772 -0.566713 0)
(0.00369382 -0.333186 0)
(0.119866 -0.155651 0)
(-0.0712706 0.295613 0)
(-0.0686287 0.507852 0)
(0.0990442 0.496305 0)
(0.134915 0.574815 0)
(0.120439 0.569021 0)
(-0.465618 1.01447 0)
(-0.666384 1.03243 0)
(-0.280215 0.229915 0)
(-0.133432 -0.15032 0)
(0.0233145 -0.303052 0)
(0.0749401 -0.282233 0)
(0.0789954 -0.279818 0)
(-0.375233 0.140931 0)
(-0.183842 0.145157 0)
(-0.34025 0.122649 0)
(-0.331918 -0.0472497 0)
(-0.147142 -0.106861 0)
(-0.160497 -0.29933 0)
(-0.120224 -0.491021 0)
(-0.207345 -0.499354 0)
(-0.211923 -0.62204 0)
(-0.218985 -0.414116 0)
(-0.0264134 -0.182123 0)
(-0.0832763 0.260884 0)
(-0.0984078 0.454301 0)
(0.102841 0.396985 0)
(-0.0616082 0.653542 0)
(-0.36286 0.805439 0)
(-0.678692 1.08744 0)
(-0.573591 0.737563 0)
(-0.131813 0.0430763 0)
(-0.234822 -0.260392 0)
(0.0120157 -0.350728 0)
(0.109461 -0.328343 0)
(0.0949814 -0.26865 0)
(-0.148909 0.297591 0)
(0.0504824 0.290425 0)
(-0.170031 0.124593 0)
(-0.0201309 0.128529 0)
(-0.245152 -0.111217 0)
(-0.241843 -0.299723 0)
(-0.317364 -0.40052 0)
(-0.391724 -0.395771 0)
(-0.384521 -0.404792 0)
(-0.363546 -0.355493 0)
(-0.312727 -0.0924468 0)
(-0.216395 0.199296 0)
(-0.218265 0.405627 0)
(-0.122632 0.421138 0)
(-0.231021 0.684067 0)
(-0.51008 1.01458 0)
(-0.596847 1.16241 0)
(-0.235836 0.758366 0)
(-0.00616548 -0.0192943 0)
(-0.0167301 -0.331321 0)
(0.022698 -0.337316 0)
(0.0883965 -0.332 0)
(0.0498575 -0.258439 0)
(-0.0195112 0.201891 0)
(0.264049 0.401828 0)
(0.0415968 0.371501 0)
(0.00437968 0.265106 0)
(-0.233661 0.0943423 0)
(-0.209776 -0.154882 0)
(-0.266655 -0.264674 0)
(-0.393842 -0.324891 0)
(-0.447029 -0.372662 0)
(-0.461887 -0.401554 0)
(-0.477134 -0.250788 0)
(-0.413918 0.0617898 0)
(-0.444119 0.405955 0)
(-0.312666 0.690801 0)
(-0.241098 0.852047 0)
(-0.394808 1.19521 0)
(-0.334468 1.37639 0)
(0.0486892 0.322328 0)
(0.294391 -0.241652 0)
(0.0790598 -0.425851 0)
(0.057386 -0.408483 0)
(0.092663 -0.324475 0)
(0.038356 -0.225639 0)
(0.0564782 -0.00641327 0)
(0.192559 0.465723 0)
(-0.0398447 0.44001 0)
(-0.0185425 0.368085 0)
(-0.238787 0.130117 0)
(-0.130696 -0.0920545 0)
(-0.117894 -0.164388 0)
(-0.190711 -0.26496 0)
(-0.269108 -0.264642 0)
(-0.407268 -0.295573 0)
(-0.460769 -0.238548 0)
(-0.400318 0.0413663 0)
(-0.434736 0.345691 0)
(-0.288393 0.61067 0)
(-0.21465 0.8353 0)
(-0.291642 1.13387 0)
(-0.0575375 1.20125 0)
(0.1788 0.401904 0)
(0.343527 -0.152036 0)
(0.248932 -0.350415 0)
(0.2235 -0.37441 0)
(0.164514 -0.349963 0)
(0.0477934 -0.196553 0)
(0.0160054 -0.00192376 0)
(-0.0314664 0.682704 0)
(-0.147123 0.666005 0)
(-0.178312 0.34505 0)
(-0.301553 0.195643 0)
(-0.110494 -0.0272017 0)
(-0.143346 -0.171302 0)
(-0.113473 -0.222339 0)
(-0.100323 -0.210427 0)
(-0.220156 -0.186332 0)
(-0.329482 -0.113695 0)
(-0.347447 -0.0226176 0)
(-0.349722 0.141594 0)
(-0.248963 0.301877 0)
(-0.151799 0.695578 0)
(-0.0327419 0.934826 0)
(0.152451 0.741756 0)
(0.386446 -0.120186 0)
(0.448155 -0.402213 0)
(0.412906 -0.358487 0)
(0.254395 -0.331379 0)
(0.21778 -0.373325 0)
(0.185166 -0.258757 0)
(-0.0616865 0.0234585 0)
(-0.168258 0.852936 0)
(-0.197282 0.690968 0)
(-0.24767 0.254905 0)
(-0.174682 0.0735558 0)
(-0.149604 -0.102811 0)
(-0.14 -0.186223 0)
(-0.104428 -0.184294 0)
(-0.127416 -0.208898 0)
(-0.123605 -0.221583 0)
(-0.157821 -0.162225 0)
(-0.136768 -0.00297159 0)
(-0.180411 0.0837224 0)
(-0.24751 0.157302 0)
(-0.164544 0.474561 0)
(0.216136 0.618581 0)
(0.532956 0.339646 0)
(0.616717 0.12254 0)
(0.555055 -0.0417314 0)
(0.456792 -0.201085 0)
(0.276612 -0.200088 0)
(0.341429 -0.22226 0)
(0.305006 -0.178977 0)
(-0.0334832 0.101512 0)
(-0.0641651 1.11849 0)
(-0.208596 0.76012 0)
(-0.32984 0.301225 0)
(-0.218156 -0.00432502 0)
(-0.135288 -0.172946 0)
(-0.0562762 -0.192618 0)
(-0.0712725 -0.250828 0)
(-0.0882146 -0.197079 0)
(-0.0837245 -0.151656 0)
(-0.0977114 -0.0821537 0)
(-0.122729 -0.0293035 0)
(-0.134563 0.0256777 0)
(-0.0304069 0.0898187 0)
(-0.0125394 0.409725 0)
(0.385232 0.503556 0)
(0.689923 0.0790023 0)
(0.555012 -0.136712 0)
(0.354498 -0.22504 0)
(0.353672 -0.206654 0)
(0.308367 -0.136099 0)
(0.341597 -0.103429 0)
(0.34902 -0.147148 0)
(-0.0889917 0.330783 0)
(-0.128456 1.22039 0)
(-0.332703 0.827403 0)
(-0.282608 0.296823 0)
(-0.243269 -0.093154 0)
(-0.0579174 -0.218544 0)
(-0.0241606 -0.220147 0)
(-0.00914223 -0.193844 0)
(-0.00600909 -0.241485 0)
(-0.0177914 -0.185833 0)
(-0.0469998 -0.116903 0)
(-0.00415905 -0.0770174 0)
(-0.036536 0.0597803 0)
(0.0768947 0.0795179 0)
(0.121111 0.257999 0)
(0.381128 0.331675 0)
(0.500751 0.149868 0)
(0.457267 -0.042435 0)
(0.423044 -0.0513457 0)
(0.394784 -0.00974591 0)
(0.337344 -0.0318911 0)
(0.322517 -0.0312351 0)
(0.271703 -0.0507634 0)
(-0.180204 0.535352 0)
(-0.218271 1.26359 0)
(-0.367786 0.827759 0)
(-0.230765 0.209732 0)
(-0.222936 -0.127678 0)
(-0.0477185 -0.270502 0)
(0.0415646 -0.222533 0)
(-0.0143223 -0.140471 0)
(-0.0404003 -0.126922 0)
(0.0482382 -0.119618 0)