/*--------------------------------*- C++ -*----------------------------------*\
| =========                 |                                                 |
| \\      /  F ield         | foam-extend: Open Source CFD                    |
|  \\    /   O peration     | Version:     4.1                                |
|   \\  /    A nd           | Web:         http://www.foam-extend.org         |
|    \\/     M anipulation  |                                                 |
\*---------------------------------------------------------------------------*/
FoamFile
{
    version     2.0;
    format      ascii;
    class       volScalarField;
    location    "0.3";
    object      pd;
}
// * * * * * * * * * * * * * * * * * * * * * * * * * * * * * * * * * * * * * //

dimensions      [1 -1 -2 0 0 0 0];

internalField   nonuniform List<scalar> 
2268
(
1351.3
1340.65
1327.1
1280
1254.86
1181.1
1132.22
1063.01
953.468
968.371
811.263
1094.73
959.497
1048.6
1047.28
1083.9
1127.4
1183.14
1214.51
1235.33
1315.42
1353.71
1396.83
1348.75
1338.1
1324.11
1277.49
1252.04
1177.81
1128.36
1056.29
951.548
1006.74
778.515
1094.19
969.937
1050.48
1046.95
1080.06
1119.61
1172.73
1220.73
1226.74
1316.56
1349.45
1397.6
1343.29
1332.82
1318.39
1272.99
1247.02
1170.82
1122.75
1049.7
932.616
918.416
904.632
1040.18
968.39
1040.71
1047.64
1079.78
1116.55
1161.4
1204.92
1219.76
1299.96
1331.57
1368.13
1335.67
1325.1
1309.49
1265.35
1237.33
1162.2
1109.64
1025.34
936.241
1024.21
884.435
1037.62
982.599
1034.55
1044.68
1067.34
1110.64
1153.32
1204.63
1209.83
1297.09
1321.63
1341.3
1324.68
1314.54
1298.42
1256.27
1228.23
1145.48
1105.64
1027.11
904.129
993.681
932.326
1029.73
987.103
1030.46
1044.61
1070.12
1107.37
1128.88
1202.77
1195.78
1287.38
1291.92
1298.39
1312.3
1301.66
1283.74
1240.65
1210.11
1140.22
1067.78
990.756
979.984
1006.99
947.262
1018.06
990.782
1029.31
1042.14
1062.77
1101.55
1125.56
1186.86
1183.06
1279.02
1278.78
1240.75
1295.93
1286.14
1267.27
1229.6
1199.6
1103.19
1095.88
969.398
990.689
997.975
966.159
1016.69
998.07
1025.5
1041.33
1052.32
1094.59
1080.3
1208.21
1153.29
1288.47
1249.54
1124.17
1278.95
1267.73
1248.01
1200.23
1171.6
1115.28
1031.37
1009.47
998.808
1004.42
975.498
1009.96
995.848
1019.03
1034.9
1045.48
1088.09
1082.1
1171.01
1134.29
1276.55
1148.56
1084.96
238.043
238.397
238.009
237.915
238.1
238.121
238.283
238.344
238.453
238.476
238.486
238.556
238.324
238.423
237.8
237.883
236.957
236.932
236.719
238.029
238.353
238.054
237.784
238.044
238.057
238.28
238.365
238.467
238.488
238.509
238.587
238.337
238.482
237.772
237.785
236.967
236.916
236.706
237.992
238.108
237.929
237.516
237.832
238.108
238.257
238.373
238.489
238.503
238.526
238.546
238.355
238.542
237.708
237.858
236.952
236.889
236.677
238.009
240.588
238.534
237.153
237.563
237.909
238.25
238.435
238.537
238.528
238.613
238.602
238.395
238.564
237.546
237.735
236.912
236.842
236.636
240.428
239.499
237.812
236.278
237.092
237.843
238.239
238.433
238.593
238.579
238.592
238.783
238.292
238.568
237.824
237.542
236.906
236.781
236.577
262.095
263.604
239.131
235.606
237.308
237.513
238.262
238.557
238.673
238.496
238.934
238.668
238.448
238.54
237.604
237.572
236.873
236.713
236.508
335.973
276.452
237.919
236.221
237.301
237.196
238.31
238.691
238.757
238.725
238.884
238.9
238.583
238.571
237.702
237.498
236.821
236.627
236.42
493.634
269.724
238.239
235.842
236.964
236.541
238.299
238.901
238.866
238.497
238.982
238.822
238.626
238.522
237.642
237.427
236.768
236.53
236.318
1245.52
1237.01
1209.92
1194.27
1155.93
1019.11
1095.4
985.753
1021.38
999.449
990.283
1005
1007.15
1006.89
1032.98
1025.03
1085.94
1070.8
1230.05
1060.46
1396.19
867.595
1012.78
1194.26
1183.07
1165.11
1097.95
1117.61
1067.37
1052.86
1030.05
1015.19
1009.02
985.803
985.604
973.916
984.413
986.384
983.688
1016.38
926.153
1289.56
785.014
1035.7
752.028
1058.12
1130.87
1121.07
1111.14
1081.82
1083.21
1038.92
1052.79
1012.59
1012.01
991.258
971.863
932.834
966.356
919.531
968.486
921.051
909.829
850.041
971.85
841.576
1073.09
875.723
1157.21
1023.32
1015.67
1019.64
993.655
1002.48
980.229
982.815
947.828
892.703
836.466
664.54
480.378
552.966
723.477
698.952
579.844
375.093
211.412
235.889
340.516
567.369
803.978
879.764
532.282
522.888
547.932
507.339
523.719
513.735
516.198
435.222
307.173
189.254
71.0087
22.5325
48.1089
152.156
161.376
93.7126
23.0243
15.398
16.0055
48.1892
75.1036
157.34
280.014
32.1146
32.0772
35.7244
30.9947
33.8342
33.3512
34.5339
21.0716
6.32101
-0.262655
-2.12025
-2.45092
-1.59844
4.97622
11.537
8.75727
4.73231
1.39145
-0.159267
-0.00755564
1.95977
0.947074
3.18931
-2.39769
-2.33989
-2.23383
-2.352
-2.2536
-2.08808
-1.78689
-2.35313
-2.69256
-2.93365
-2.44422
-2.87667
-2.26706
-2.37643
-1.69562
-1.48666
-0.879279
-0.313631
-0.731137
-1.39567
-2.16651
-2.47911
-2.71342
-3.23967
-3.23698
-3.22489
-3.22561
-3.20707
-3.22564
-3.18439
-3.21393
-3.22917
-3.16834
-3.24246
-3.13069
-2.87068
-2.49707
-2.09858
-1.70899
-1.39254
-0.802839
0.0406374
-1.13202
-0.567482
-2.11215
-1.23151
-3.30614
-3.32398
-3.28701
-3.31931
-3.2837
-3.29414
-3.21825
-3.21048
-2.87707
-3.24798
-2.66936
-2.95181
-2.60651
-2.66711
-2.28058
-1.7185
-1.3683
-0.935932
-1.64537
-2.02272
-1.51203
-4.4373
-5.51313
-3.39571
-3.39686
-3.37871
-3.37792
-3.36345
-3.3491
-3.35101
-3.33622
-3.31036
-3.11247
-3.21664
-3.00216
-2.83273
-2.55
-2.77279
-2.05901
-2.49099
-2.47723
-3.16653
-2.3262
-2.72091
-3.0568
-2.72321
-3.45897
-3.49769
-3.42767
-3.46031
-3.42949
-3.46839
-3.42122
-3.25959
-3.23989
-3.17794
-3.00935
-3.02134
-2.99092
-2.80787
-2.45805
-2.83429
-2.84408
-3.5304
-3.01275
-3.43541
-2.86007
-2.83699
-3.59662
-3.56463
-3.53397
-3.55768
-3.48656
-3.60362
-3.40303
-3.52849
-3.64106
-3.61129
-3.40668
-3.40377
-3.35978
-2.94183
-3.3098
-2.99531
-3.1337
-3.01758
-2.96017
-2.80443
-2.5389
-3.16306
-4.10663
-3.35164
-3.64299
-3.62393
-3.68341
-3.65514
-3.55029
-3.58987
-3.69165
-3.59853
-3.71045
-3.93336
-3.851
-3.49795
-3.49683
-3.30885
-3.28147
-2.85772
-3.37089
-4.17527
-3.5398
-4.19269
-3.45559
-3.5796
-3.46458
-3.7503
-3.72495
-3.7771
-3.6388
-3.81489
-3.61178
-3.90287
-3.66648
-3.93102
-3.45827
-3.49129
-3.35016
-3.27211
-3.27679
-3.07845
-3.29437
-2.83884
-3.17402
-2.75961
-4.0621
-4.13006
-3.77872
-3.73045
-3.86703
-3.85386
-3.84322
-3.85511
-3.72859
-3.79022
-3.746
-3.62359
-3.61534
-3.73099
-4.4989
-4.06531
-3.87975
-3.37134
-3.89534
-4.10684
-3.64689
-4.31686
-3.04674
-3.29774
-4.12686
-3.97233
-4.33381
-3.87225
-3.88854
-3.88553
-3.91887
-3.97467
-3.89593
-3.86601
-3.78835
-3.67281
-3.31447
-3.37957
-3.74808
-3.60765
-3.83093
-3.69382
-3.47386
-3.59783
-3.87382
-3.37939
-3.76789
-4.21922
-4.50857
-4.5919
-4.39626
-4.33656
-4.20636
-4.31672
-4.03995
-4.1988
-4.06409
-3.86572
-3.83811
-4.02586
-3.95867
-3.9515
-3.86149
-3.72477
-3.60518
-3.53105
-3.52514
-4.35956
-3.96174
-3.88587
-4.40217
-4.79649
-5.86554
-3.63778
-3.78079
-4.16517
-3.76253
-4.35634
-3.66702
-3.89847
-3.97367
-3.88057
-4.03874
-3.69302
-3.86356
-3.80217
-3.96893
-3.42221
-3.61951
-2.94905
-3.16675
-3.13211
-4.58519
-5.01555
-4.4442
-6.54177
-5.17283
-5.23967
-4.04827
-5.28214
-4.46445
-5.06662
-4.57503
-3.86816
-3.99618
-4.15188
-4.42239
-4.16275
-4.49751
-3.59211
-3.75504
-4.02491
-3.88427
-4.04654
-4.32807
-4.00971
-5.5134
-7.08868
-5.55202
-4.67078
-4.75335
-5.33036
-4.77414
-4.68623
-4.54452
-4.55075
-4.86978
-4.13378
-4.20691
-3.98026
-3.8177
-3.59377
-4.36957
-5.34036
-4.50384
-4.22374
-4.15341
-3.69935
-4.59099
-5.42517
-6.71956
-8.807
-4.61331
-4.59275
-4.51544
-4.56468
-4.28107
-4.37394
-4.32944
-4.68261
-4.16877
-4.01805
-4.2798
-4.33802
-4.88805
-4.27599
-4.16056
-4.37526
-4.47944
-4.51655
-4.30902
-4.92488
-5.47737
-6.72364
-7.99929
-4.21896
-4.31376
-4.44446
-4.25816
-4.72269
-4.19304
-4.68498
-3.88947
-4.28484
-5.07456
-4.10059
-4.26192
-4.23579
-4.46165
-4.33371
-4.42259
-3.90492
-4.06668
-4.19788
-4.03227
-5.7078
-7.11858
-8.4657
-4.48897
-4.23475
-3.94036
-4.41939
-3.27583
-4.23521
-3.42282
-3.81106
-4.31727
-4.15199
-4.3284
-4.10478
-4.33701
-4.55132
-4.55183
-4.8564
-4.40521
-5.31193
-6.64877
-5.36943
-5.84836
-6.31807
-7.62428
-3.18563
-3.7735
-3.97665
-3.00088
-3.52313
-3.14987
-3.62066
-3.51988
-3.43569
-3.80449
-3.86518
-3.87635
-3.64668
-3.93926
-2.86575
-3.85948
-4.52842
-4.57192
-4.88165
-5.14365
-5.65884
-5.96619
-5.48281
-3.33757
-2.93919
-3.05544
-3.64834
-3.78678
-3.77723
-3.78278
-4.45157
-4.87746
-4.26871
-4.27555
-4.05689
-4.2526
-4.60132
-4.26904
-4.35409
-4.19698
-4.46736
-4.95748
-5.15877
-5.22562
-6.29527
-10.6943
-3.65409
-3.79291
-3.61765
-3.24095
-3.05451
-3.11161
-4.40306
-4.05613
-3.94323
-3.86503
-3.777
-3.64946
-3.47064
-2.57092
-3.68055
-3.1183
-5.76606
-4.5976
-5.13166
-5.80468
-8.34031
-6.4991
-8.18628
-3.32157
-2.89259
-3.40456
-4.26766
-4.7428
-4.82952
-4.65996
-4.14452
-4.107
-3.91788
-3.84232
-3.7019
-3.69618
-3.56487
-3.68833
-3.79286
-3.98676
-4.43759
-4.66632
-5.14227
-5.3358
-5.0356
-6.30323
-4.84978
-5.04108
-4.99437
-4.49968
-4.11809
-4.00062
-3.91653
-3.84151
-3.74029
-3.67373
-3.5764
-3.4796
-3.41174
-3.32387
-3.30571
-3.69797
-4.71561
-3.64844
-5.0455
-5.22648
-5.25254
-7.79021
-7.96586
-3.87317
-3.8938
-3.87247
-3.92637
-3.98034
-3.83051
-3.8075
-3.69943
-3.63644
-3.57129
-3.48138
-3.47984
-3.45546
-3.43959
-3.38679
-3.92728
-1.81437
-5.49209
-2.04529
-4.16317
-5.09551
-5.7759
-5.77324
-3.90247
-3.90485
-3.8579
-3.75544
-3.60586
-3.57533
-3.48289
-3.45464
-3.37923
-3.3278
-3.26847
-3.14408
-3.04687
-2.59264
-3.0109
-3.49399
-3.25663
-4.71074
-2.36282
-5.53998
-2.84672
-5.5665
-5.01582
-3.45109
-3.44554
-3.40646
-3.44004
-3.29667
-3.31923
-3.24901
-3.2312
-3.17764
-3.20722
-3.11679
-3.36453
-3.13742
-4.28513
-3.16215
-3.23169
-3.11495
-2.16348
-4.34912
-4.03728
-4.61727
-3.28905
-4.03499
-3.22958
-3.21263
-3.18583
-3.10397
-3.06998
-3.04557
-3.00042
-2.97669
-2.92971
-2.92495
-2.8545
-2.91095
-2.77322
-2.94056
-2.82868
-2.91846
-2.85697
-2.96533
-3.31886
-3.94393
-3.42527
-4.15576
-3.70196
-2.91166
-2.899
-2.87808
-2.83616
-2.81588
-2.7843
-2.76052
-2.73838
-2.7042
-2.7159
-2.66184
-2.73663
-2.62438
-2.77802
-2.58413
-2.60319
-2.5069
-2.41621
-2.80036
-1.65586
-1.31101
-3.10958
-1.976
-2.6418
-2.63452
-2.62177
-2.58975
-2.57099
-2.54045
-2.51871
-2.49566
-2.46516
-2.45445
-2.4166
-2.42551
-2.36059
-2.39771
-2.29268
-2.3214
-2.12911
-2.4756
-1.12322
-3.49852
-2.2367
-3.00783
-2.45639
-2.35213
-2.35007
-2.33684
-2.3224
-2.30669
-2.28112
-2.26259
-2.23937
-2.21379
-2.20208
-2.16528
-2.17235
-2.11544
-2.13654
-2.06815
-2.0476
-1.97271
-1.98794
-1.8177
-1.85051
-1.90913
-2.95183
-2.73293
-2.08379
-2.08344
-2.07628
-2.06801
-2.05412
-2.03911
-2.01866
-2.0025
-1.97564
-1.96293
-1.92784
-1.92244
-1.87206
-1.87846
-1.82423
-1.78095
-1.73046
-1.75964
-1.67972
-1.95764
-2.4077
-1.5193
-1.79256
-1.83946
-1.83335
-1.83307
-1.82203
-1.81258
-1.79946
-1.78125
-1.7678
-1.74282
-1.73059
-1.6992
-1.69405
-1.65707
-1.66846
-1.63647
-1.59503
-1.60648
-1.56595
-1.65653
-1.79838
-1.79123
-1.72974
-1.5425
-1.60867
-1.60292
-1.60297
-1.59478
-1.58839
-1.5794
-1.56368
-1.55196
-1.52737
-1.51332
-1.47461
-1.46426
-1.40201
-1.42191
-1.38748
-1.31034
-1.33165
-1.22512
-1.35251
-0.712596
-1.31896
-1.04646
-1.64954
-1.38388
-1.38055
-1.37765
-1.37188
-1.36628
-1.35947
-1.3495
-1.342
-1.32934
-1.32109
-1.3041
-1.29279
-1.25569
-1.25358
-1.18692
-1.12539
-1.13594
-1.04038
-1.09881
-1.02495
-1.17897
-1.19872
-1.40199
-1.00829
-1.00531
-1.00231
-0.998276
-0.993508
-0.988508
-0.981453
-0.975549
-0.966771
-0.961739
-0.957939
-0.964217
-1.00473
-1.02263
-1.0412
-0.956733
-1.02139
-0.915301
-0.895407
-0.750917
-0.633713
-0.652473
-0.292208
-1.32321
-1.32226
-1.31997
-1.31768
-1.31362
-1.31115
-1.30767
-1.30666
-1.30351
-1.30406
-1.28923
-1.26888
-1.18755
-0.989932
-0.53932
-0.286431
-0.225349
-0.244491
-0.277578
-0.456792
-0.63827
-1.16822
-0.50497
0.315691
0.315828
0.315768
0.315269
0.315417
0.315065
0.315502
0.31517
0.311136
0.296881
0.259821
0.154335
-0.0619672
-0.683627
-1.34075
-1.80744
-1.79266
-1.72576
-1.45709
-1.29805
-0.506455
-0.333772
-0.570947
1069.75
313.823
777.518
712.896
755.055
842.048
1096.95
912.681
1051.8
1011.01
962.361
1088.09
1036.56
1013.39
1066.29
1117.88
374.758
356.737
402.115
662.964
18.5493
20.9755
29.5797
47.6355
-1.9434
-1.47692
-1.32329
-0.555205
-3.10173
-2.35469
-2.85043
-3.8193
-3.46756
-3.78219
-4.23415
-4.35195
-3.01405
-3.28983
-3.49325
-3.6759
-2.2587
-2.8216
-2.75033
-3.4442
-3.82741
-3.98744
-4.34392
-4.57684
-4.57729
-4.64798
-4.99125
-5.25953
-4.61463
-4.63643
-4.75131
-4.94493
-4.60544
-4.58678
-5.02702
-4.70586
-5.41392
-6.40226
-5.24432
-5.69751
-4.65722
-5.05125
-4.98958
-6.23168
-4.92306
-5.23192
-5.33402
-5.07216
-5.89709
-6.3849
-6.57427
-7.15311
-7.38171
-8.16937
-9.39783
-10.9458
-11.0259
-11.0272
-13.2127
-11.5967
-11.6687
-12.619
-12.7127
-11.9627
-9.22855
-9.02437
-6.70132
-3.11358
-6.91062
-7.26754
-6.09775
-3.3642
-10.2259
-10.1284
-7.10198
-4.79454
-9.09053
-10.5094
-9.59109
-4.11016
-7.28715
-7.65325
-7.4832
-6.13874
-7.49229
-7.52347
-7.46417
-7.23174
-5.9093
-5.85878
-5.89956
-5.89418
-5.20913
-5.24958
-5.3049
-5.31489
-4.0713
-4.14508
-4.17551
-4.22458
-3.62012
-3.57946
-3.59596
-3.56882
-2.80393
-2.79676
-2.78573
-2.72429
-1.79369
-1.77065
-2.21885
-2.22615
-2.7862
-2.46207
-1.82853
-1.51268
-2.05155
-1.86907
-1.84071
-1.71221
-1.97149
-2.07137
-1.6002
-1.43248
-1.60872
-1.40801
-1.18913
-1.39676
-0.984393
-1.34683
-1.07697
-1.0286
-1.01699
-0.570435
-0.917209
-0.448679
-0.290122
-0.374719
-0.244005
-0.475862
-0.510382
-0.44556
-0.431014
-0.241482
582.11
243.876
237.499
235.017
235.822
236.364
239.301
239.221
239.24
237.796
239.114
239.002
239.192
238.13
237.789
237.313
236.659
236.358
236.132
1183.99
789.393
786.734
428.32
287.006
295.709
269.562
239.554
241.916
243.065
239.774
239.932
239.293
238.111
237.754
237.178
236.439
236.063
235.808
984.968
1542.69
327.139
292.271
1028.83
836.457
660.649
274.681
318.976
257.639
252.121
239.254
239.512
237.982
237.736
237.073
236.135
235.68
235.371
1075.44
1153.38
914.043
1243.61
1224.19
1019.11
1242.52
1119.78
1411.91
815.622
339.416
245.931
240.578
238.531
237.635
236.957
235.696
235.177
234.809
838.408
1267.63
669.247
583.512
1518.1
1251.98
1483.01
1404.17
1522.32
2292.49
673.308
442.541
305.02
241.879
237.774
236.616
234.896
234.508
234.068
149.184
223.574
192.193
256.149
734.871
577.795
1859.59
1586.71
1572.85
2744.15
689.451
1186.24
1152.25
406.842
249.277
237.103
233.566
233.548
233.093
5.99299
-0.134498
2.15645
14.0338
116.647
290.131
922.498
898.831
1522.1
1747.55
1466.34
1592.57
2816.98
739.879
425.023
241.204
232.01
232.16
231.899
-5.41037
-6.29339
-5.23348
-2.76346
0.558522
0.371245
17.3396
19.9829
176.201
891.145
1596.48
1582.93
3210.61
786.133
606.965
247.359
230.065
230.537
230.296
-5.08008
-4.52
-4.82196
-5.70956
-5.50583
-4.75591
-3.07067
-1.98802
3.36551
67.5259
522.622
1104.31
2339.13
1066.14
437.748
237.303
228.924
229.069
228.616
-3.73928
-3.46326
-3.40923
-3.33265
-4.05346
-4.69637
-4.35456
-2.5958
-2.07105
9.44868
324.611
1375.98
1935.3
1002.23
331.668
232.433
228.274
227.957
226.826
-4.33241
-3.04513
-5.99136
-5.25743
-5.45535
-4.95039
-4.29017
-2.82446
-2.30645
5.77946
333.068
1510.79
1929.54
1063.08
329.592
230.439
228.03
226.375
224.316
-5.05925
-6.85693
-4.42993
-4.80033
-4.98811
-5.04007
-4.50056
-4.13464
-2.28379
0.5206
216.693
1424.59
1875.32
1172.11
358.284
233.656
227.093
224.508
220.758
-6.60218
-4.69111
-5.17096
-7.25942
-6.13727
-5.78898
-4.4294
-4.35061
-3.96934
-0.915688
79.0861
1031.54
1881.64
1567.18
465.161
242.152
226.168
222.852
214.097
-5.57524
-5.47353
-6.15881
-4.24745
-7.99614
-8.56846
-3.88578
-5.22425
-5.23706
-4.32269
-3.07324
51.3273
227.649
847.681
1394.1
875.298
265.817
215.969
198.67
-5.81903
-7.10604
-7.28006
-11.4286
-5.88396
-5.82368
-4.73631
-6.03074
-5.48007
-5.97335
-7.53939
-5.55575
-0.284102
206.034
1724.22
1675.55
599.404
206.425
152.815
-4.36674
-6.78263
-9.29866
-7.29347
-10.0169
-5.31968
-5.01857
-8.24659
-7.98372
-6.82303
-6.04024
-6.12951
1.11014
443.962
1905.45
2000.64
823.443
149.5
83.6199
-5.99457
-9.13146
-9.83125
-13.5151
-6.24667
-6.78279
-7.23715
-6.78699
-3.71083
-6.65783
-4.8671
-3.88827
83.3423
1398.87
2054.15
1848.03
592.447
23.1036
23.744
-6.34806
-7.92742
-11.6216
-12.3414
-11.3443
-7.36335
-8.35988
-7.40779
-5.13339
-5.97682
3.87663
89.6907
398.943
1340.62
1212.64
665.056
130.658
-50.4073
-9.30561
-7.66397
-8.49074
-9.58274
-12.6192
-11.4998
-8.68193
-8.19125
-7.66073
-5.33382
-1.24559
19.1606
138.832
215.906
162.324
83.4054
16.499
-22.2665
-48.3543
-28.8626
-11.3784
-9.2376
-12.885
-11.9049
-10.3445
-10.5365
-10.2956
-8.38769
0.58637
6.47001
3.68915
35.1303
-0.0530701
-12.8757
-22.215
-29.3838
-36.6638
-45.7619
-43.3377
-11.0054
-13.3021
-11.5322
-10.2814
-9.46729
-7.65701
-4.8285
-3.72099
-2.93129
-5.33733
-9.4603
-4.00995
-13.4387
-12.5742
-18.7124
-26.7368
-28.6235
-34.7196
-28.7543
-7.93514
-12.2603
-12.555
-9.96372
-7.58644
-8.02816
-7.79714
-7.04515
-7.02142
-5.48796
-7.70604
-5.97419
-14.761
-11.8535
-14.6925
-20.3364
-16.1939
-14.1458
-6.08262
-2.58165
-9.85647
-11.4767
-10.2971
-11.4275
-9.5476
-9.30837
-14.3451
-10.1901
-9.3107
-7.92003
-6.19665
-17.9123
-13.1266
-6.41172
-9.09226
-8.01479
-0.0401193
4.23204
-2.2917
-5.9562
-9.35348
-8.53011
-9.72883
-10.8706
-12.2508
-13.3205
-14.2114
-18.6866
-11.0764
-10.5175
-13.0701
-7.9848
-4.3211
-0.281025
1.4181
7.36617
8.72802
-1.76761
-6.47887
-8.40101
-7.84925
-11.8724
-12.4381
-13.5973
-14.7489
-14.8714
-19.596
-20.7931
-5.32513
-7.66602
-2.27563
-2.2794
6.65836
7.61267
10.2711
10.5392
1.00741
-4.21759
-6.27131
-7.1884
-7.56103
-12.3393
-14.6476
-16.5365
-16.149
-15.1535
-19.3772
10.5479
69.3143
56.2564
2.82643
8.63804
9.1646
11.0048
10.9733
-1.28858
1.43973
-4.81244
-6.79185
-10.3867
-15.9068
-14.456
-15.972
-15.6091
-14.8697
4.81205
592.277
831.487
348.242
28.2828
10.9389
11.1763
11.4981
11.368
-4.04481
3.22546
2.90974
-6.19781
-8.13094
-9.85131
-13.3563
-12.8658
-12.0201
25.0256
698.554
1636.44
1583.54
481.58
39.5574
11.9719
11.4048
11.4967
11.5576
-5.12001
1.29383
5.49272
-5.24112
-6.51311
-9.12571
-11.2648
-7.71513
108.063
1110.38
1662.97
1653.88
1124.88
248.344
22.8254
11.7295
11.3081
11.5322
11.4154
-5.2768
-2.2755
3.86004
-3.06758
-3.05034
-3.60461
3.59244
116.002
1100.02
1479.91
1521.96
1011.28
270.344
37.8659
12.306
11.2783
11.1036
11.3998
11.3421
-4.29714
-3.48887
2.44944
18.8407
21.7956
39.8856
129.911
513.909
761.774
717.169
455.041
151.427
22.2093
10.2164
10.1921
11.0923
10.8988
11.3042
11.2656
-3.73421
-3.40695
-2.38965
12.6071
31.0594
61.3741
148.623
237.01
130.073
69.03
26.1395
7.64791
9.84604
8.0905
11.3276
10.4473
10.3566
10.9334
11.0568
-2.85039
-2.50447
-2.83887
0.177678
9.98795
14.8065
43.4362
19.3553
3.7424
1.99056
0.990092
2.36594
5.70657
7.90788
7.34687
11.6321
9.72268
12.6609
10.7863
-2.2411
-1.98097
-2.08532
-1.33548
-1.31579
-1.34302
-0.315181
-0.0628434
0.571622
1.06279
2.05765
2.91693
3.44673
3.94752
5.34052
6.38352
7.505
7.58323
11.0503
-1.66808
-1.41207
-1.41247
-0.979633
-0.751324
-1.2198
-0.550016
-0.12928
0.72895
1.07122
1.70302
2.71909
3.74043
4.71115
5.50471
6.598
9.15892
5.85018
4.95546
-1.66483
-1.22151
-1.09081
-0.740144
-0.568366
-0.591962
-0.2649
0.0864789
0.656503
1.12544
1.65316
2.22282
2.83567
3.48517
3.95997
3.65496
3.90866
4.22846
4.53684
-1.22272
-0.864744
-0.690301
-0.412017
-0.223368
-0.121909
0.184612
0.479292
0.79951
1.15569
1.59908
2.04049
2.43867
2.90288
3.37675
3.48641
3.88338
3.77061
3.93014
-1.01765
-0.767338
-0.51046
-0.302445
-0.132703
-0.032788
0.163839
0.363497
0.617568
0.869417
1.15095
1.4865
1.80682
2.13336
2.39903
2.52586
2.58943
2.82946
2.70831
-0.802457
-0.346067
-0.293774
-0.0696058
0.0387868
0.16178
0.303308
0.44082
0.598835
0.769382
0.949176
1.15944
1.33356
1.54423
1.72034
1.80136
1.89096
1.9576
1.99329
-0.294878
-0.334991
-0.179295
-0.113129
-0.0465318
-0.0119839
0.0404692
0.091438
0.155922
0.240955
0.331539
0.458315
0.550457
0.660563
0.747358
0.800813
0.843363
0.884243
0.877677
-0.377846
-0.169241
-0.0957636
0.0235644
0.105297
0.18273
0.266085
0.346055
0.416822
0.469272
0.502595
0.549258
0.584415
0.61137
0.6395
0.656305
0.655352
0.694064
0.690728
-0.16662
-0.039431
-0.105984
-0.114247
-0.256462
-0.420671
-0.643869
-0.864977
-1.06662
-1.26811
-1.45162
-1.61651
-1.76149
-1.89839
-1.9651
-2.04224
-2.12021
-2.14399
-2.13245
)
;

boundaryField
{
    leftWall
    {
        type            zeroGradient;
    }
    rightWall
    {
        type            zeroGradient;
    }
    lowerWall
    {
        type            zeroGradient;
    }
    atmosphere
    {
        type            totalPressure;
        rho             rho;
        psi             none;
        gamma           1;
        p0              uniform 0;
        value           nonuniform List<scalar> 
46
(
-0.458282
-0.46087
-0.460363
-0.459713
-0.458473
-0.457206
-0.455483
-0.454295
-0.453324
-0.45661
-0.461654
-0.479514
-0.500911
-0.583744
-0.654137
-0.688646
-0.667747
-0.629858
-0.530916
-0.468449
-0.344538
-0.381323
-0.255459
-0.16643
-0.137607
-0.104302
-0.0893711
-0.0418825
-0.000180289
0
0
0
0
0
0
0
0
0
0
0
0
0
0
0
0
0
)
;
    }
    defaultFaces
    {
        type            empty;
    }
}


// ************************************************************************* //
