/*--------------------------------*- C++ -*----------------------------------*\
| =========                 |                                                 |
| \\      /  F ield         | foam-extend: Open Source CFD                    |
|  \\    /   O peration     | Version:     4.1                                |
|   \\  /    A nd           | Web:         http://www.foam-extend.org         |
|    \\/     M anipulation  |                                                 |
\*---------------------------------------------------------------------------*/
FoamFile
{
    version     2.0;
    format      ascii;
    class       surfaceScalarField;
    location    "0.3";
    object      phi_0;
}
// * * * * * * * * * * * * * * * * * * * * * * * * * * * * * * * * * * * * * //

dimensions      [0 3 -1 0 0 0 0];

internalField   nonuniform List<scalar> 
4432
(
3.53331e-06
-3.53331e-06
6.87402e-06
-3.3407e-06
1.14512e-05
-4.57719e-06
1.42746e-05
-2.82336e-06
1.824e-05
-3.96541e-06
2.18403e-05
-3.60028e-06
2.6315e-05
-4.47474e-06
3.03615e-05
-4.04654e-06
3.26011e-05
-2.23952e-06
3.29735e-05
-3.72418e-07
5.37051e-05
-2.07316e-05
5.73182e-05
-3.61307e-06
6.04165e-05
-3.09837e-06
6.14017e-05
-9.852e-07
6.17606e-05
-3.58917e-07
6.16238e-05
1.36841e-07
6.06217e-05
1.00211e-06
5.9263e-05
1.35872e-06
5.60832e-05
3.17979e-06
4.83682e-05
7.71502e-06
3.67004e-05
1.16678e-05
2.21922e-05
1.45082e-05
2.21922e-05
3.5599e-06
-7.09321e-06
6.9912e-06
-6.77201e-06
1.14947e-05
-9.08069e-06
1.4269e-05
-5.59763e-06
1.84174e-05
-8.11379e-06
2.21672e-05
-7.35012e-06
2.67396e-05
-9.04711e-06
3.03308e-05
-7.63777e-06
3.27329e-05
-4.64163e-06
3.32622e-05
-9.01723e-07
5.17097e-05
-3.91791e-05
5.62874e-05
-8.19074e-06
5.95275e-05
-6.33845e-06
6.06506e-05
-2.1083e-06
6.1092e-05
-8.00355e-07
6.07809e-05
4.47924e-07
5.94024e-05
2.3806e-06
5.75448e-05
3.21634e-06
5.50697e-05
5.65486e-06
4.76133e-05
1.51715e-05
3.63836e-05
2.28974e-05
1.98445e-05
3.10474e-05
4.20366e-05
3.52078e-06
-1.0614e-05
7.03624e-06
-1.02875e-05
1.13493e-05
-1.33938e-05
1.41933e-05
-8.44165e-06
1.87105e-05
-1.2631e-05
2.24869e-05
-1.11265e-05
2.63834e-05
-1.29437e-05
3.12834e-05
-1.25378e-05
3.23533e-05
-5.71149e-06
5.77796e-05
-2.6328e-05
5.18064e-05
-3.32059e-05
5.59351e-05
-1.23194e-05
5.8638e-05
-9.04129e-06
5.92314e-05
-2.70176e-06
5.90377e-05
-6.06632e-07
5.78875e-05
1.5981e-06
5.60621e-05
4.206e-06
5.44416e-05
4.83682e-06
5.18274e-05
8.26909e-06
4.62235e-05
2.07754e-05
3.66694e-05
3.24515e-05
2.33021e-05
4.44147e-05
6.53387e-05
3.49011e-06
-1.41041e-05
7.11459e-06
-1.3912e-05
1.11602e-05
-1.74394e-05
1.46742e-05
-1.19556e-05
1.93079e-05
-1.72647e-05
2.23438e-05
-1.41624e-05
2.69655e-05
-1.75653e-05
2.85624e-05
-1.41347e-05
4.9831e-05
-2.69801e-05
5.04062e-05
-2.69033e-05
4.67437e-05
-2.95434e-05
4.84417e-05
-1.40174e-05
4.99909e-05
-1.05905e-05
5.0886e-05
-3.59676e-06
5.13991e-05
-1.11978e-06
5.09859e-05
2.01128e-06
4.96419e-05
5.55001e-06
4.86847e-05
5.79402e-06
4.73778e-05
9.57602e-06
4.13697e-05
2.67835e-05
3.45166e-05
3.93047e-05
2.16719e-05
5.72593e-05
8.70106e-05
3.38295e-06
-1.7487e-05
7.07166e-06
-1.76007e-05
1.10931e-05
-2.14608e-05
1.48497e-05
-1.57122e-05
1.91419e-05
-2.15569e-05
2.18957e-05
-1.69162e-05
2.65334e-05
-2.2203e-05
2.68987e-05
-1.45e-05
4.33696e-05
-4.3451e-05
4.26363e-05
-2.617e-05
4.12406e-05
-2.81477e-05
4.43218e-05
-1.70987e-05
4.61538e-05
-1.24225e-05
4.74161e-05
-4.85908e-06
4.88538e-05
-2.55742e-06
4.96587e-05
1.2064e-06
4.9532e-05
5.67663e-06
4.74522e-05
7.87383e-06
4.58218e-05
1.12064e-05
3.98234e-05
3.27819e-05
3.40601e-05
4.50679e-05
2.59592e-05
6.53602e-05
0.00011297
3.31835e-06
-2.08054e-05
7.21319e-06
-2.14955e-05
1.10911e-05
-2.53387e-05
1.45199e-05
-1.91411e-05
1.85928e-05
-2.56297e-05
2.24849e-05
-2.08084e-05
2.33784e-05
-2.30965e-05
3.93059e-05
-3.04275e-05
3.74731e-05
-4.16182e-05
4.0059e-05
-2.87559e-05
4.01291e-05
-2.82177e-05
4.33249e-05
-2.02945e-05
4.54139e-05
-1.45115e-05
4.75855e-05
-7.03067e-06
4.96555e-05
-4.62749e-06
5.04985e-05
3.63402e-07
5.06359e-05
5.53931e-06
4.92338e-05
9.2759e-06
4.78299e-05
1.26103e-05
4.13571e-05
3.92548e-05
3.60365e-05
5.03885e-05
2.64917e-05
7.4905e-05
0.000139462
3.26496e-06
-2.40704e-05
7.22889e-06
-2.54594e-05
1.06905e-05
-2.88003e-05
1.39251e-05
-2.23757e-05
1.81288e-05
-2.98333e-05
1.9799e-05
-2.24786e-05
1.98072e-05
-2.31047e-05
3.49531e-05
-4.55733e-05
3.58402e-05
-4.25054e-05
3.87941e-05
-3.17098e-05
4.04913e-05
-2.9915e-05
4.43895e-05
-2.41926e-05
4.73854e-05
-1.75074e-05
5.0713e-05
-1.03583e-05
5.22501e-05
-6.16461e-06
5.30512e-05
-4.37691e-07
5.34426e-05
5.148e-06
5.06933e-05
1.20251e-05
5.07292e-05
1.25744e-05
4.40106e-05
4.59734e-05
4.29117e-05
5.14874e-05
1.98907e-05
9.7926e-05
0.000159352
3.43372e-06
-2.75041e-05
7.31221e-06
-2.93379e-05
1.03565e-05
-3.18446e-05
1.33099e-05
-2.53291e-05
1.73532e-05
-3.38767e-05
1.78616e-05
-2.2987e-05
3.21934e-05
-3.74364e-05
3.31731e-05
-4.65531e-05
3.58415e-05
-4.51738e-05
3.94313e-05
-3.52996e-05
4.24497e-05
-3.29334e-05
4.68503e-05
-2.85932e-05
5.03792e-05
-2.10363e-05
5.33724e-05
-1.33515e-05
5.4234e-05
-7.02619e-06
5.42781e-05
-4.81734e-07
5.56376e-05
3.78848e-06
5.49974e-05
1.26653e-05
5.3734e-05
1.38378e-05
4.86852e-05
5.10222e-05
4.86192e-05
5.15535e-05
2.073e-05
0.000125815
0.000180082
2.4239e-06
-2.4239e-06
5.24961e-05
-5.00722e-05
6.77272e-05
-1.52312e-05
4.50936e-05
2.26336e-05
2.35488e-05
2.15448e-05
1.23877e-05
1.11612e-05
1.16196e-05
7.68018e-07
1.38575e-05
-2.23785e-06
1.92261e-05
-5.36861e-06
2.51651e-05
-5.93907e-06
3.3766e-05
-8.60086e-06
4.4339e-05
-1.0573e-05
5.16148e-05
-7.2758e-06
6.56458e-05
-1.4031e-05
6.94599e-05
-3.81413e-06
4.14305e-05
2.80295e-05
3.00357e-05
1.13947e-05
1.52806e-05
1.47551e-05
1.52806e-05
5.96493e-06
-8.38886e-06
5.91986e-05
-0.000103306
7.47014e-05
-3.07341e-05
4.82886e-05
4.90464e-05
2.33806e-05
4.64527e-05
9.61454e-06
2.49272e-05
1.03651e-05
1.74131e-08
1.4105e-05
-5.97773e-06
1.97979e-05
-1.10616e-05
2.62125e-05
-1.23536e-05
3.55359e-05
-1.79242e-05
4.60398e-05
-2.10769e-05
5.39151e-05
-1.5151e-05
7.15621e-05
-3.1678e-05
3.942e-05
2.8328e-05
4.26993e-05
2.47501e-05
3.0802e-05
2.32921e-05
1.59003e-05
2.96569e-05
3.11808e-05
1.70598e-05
-2.54487e-05
5.52565e-05
-0.000141502
7.49146e-05
-5.03922e-05
4.44595e-05
7.95015e-05
7.2123e-06
8.36999e-05
5.5665e-06
2.6573e-05
8.2546e-06
-2.6707e-06
1.17318e-05
-9.45498e-06
1.81613e-05
-1.7491e-05
2.64625e-05
-2.06548e-05
3.81912e-05
-2.9653e-05
4.60787e-05
-2.89644e-05
5.41872e-05
-2.32595e-05
4.07775e-05
-1.82684e-05
4.09591e-05
2.81464e-05
4.32098e-05
2.24994e-05
3.15324e-05
3.49695e-05
1.63164e-05
4.48728e-05
4.74972e-05
2.04644e-05
-4.59131e-05
3.40724e-05
-0.00015511
5.67907e-05
-7.31105e-05
1.84428e-05
0.000117849
-4.83657e-06
0.000106979
-8.35104e-06
3.00875e-05
1.86339e-06
-1.28851e-05
9.59011e-06
-1.71817e-05
1.59641e-05
-2.3865e-05
2.42503e-05
-2.8941e-05
3.85058e-05
-4.39085e-05
4.83636e-05
-3.88221e-05
5.75435e-05
-3.24394e-05
4.42819e-05
-5.00673e-06
7.98008e-05
-7.3725e-06
4.32528e-05
5.90474e-05
3.28907e-05
4.53315e-05
1.73854e-05
6.03781e-05
6.48826e-05
3.54584e-05
-8.13715e-05
1.04839e-05
-0.000130136
2.15817e-05
-8.42084e-05
2.81598e-06
0.000136615
-1.68938e-05
0.000126689
-2.17393e-05
3.4933e-05
-6.90638e-07
-3.39339e-05
4.16384e-06
-2.20362e-05
1.18215e-05
-3.15227e-05
2.3515e-05
-4.06345e-05
3.95333e-05
-5.99268e-05
5.67427e-05
-5.60315e-05
5.81229e-05
-3.38196e-05
8.06449e-05
-2.75287e-05
4.68122e-05
2.64601e-05
4.50273e-05
6.08323e-05
3.27379e-05
5.76208e-05
1.71225e-05
7.59936e-05
8.2005e-05
9.64497e-06
-9.10165e-05
5.12967e-06
-0.000125621
-3.88997e-06
-7.51888e-05
-5.43185e-05
0.000187044
-3.05177e-05
0.000102888
-3.01739e-05
3.45892e-05
-4.86149e-06
-5.92463e-05
1.88028e-06
-2.8778e-05
7.98035e-06
-3.76228e-05
1.85866e-05
-5.12408e-05
4.67316e-05
-8.80718e-05
3.18226e-05
-4.11225e-05
3.64316e-05
-3.84286e-05
5.04992e-05
-4.15963e-05
4.94829e-05
2.74763e-05
4.56937e-05
6.46216e-05
3.31248e-05
7.01897e-05
1.74374e-05
9.1681e-05
9.94424e-05
7.56165e-06
-9.85782e-05
-1.46943e-05
-0.000103365
-4.59047e-05
-4.39784e-05
-4.12432e-05
0.000182382
-3.80167e-05
9.96617e-05
-4.20675e-05
3.864e-05
-8.83451e-06
-9.24793e-05
-4.14176e-06
-3.34708e-05
2.866e-06
-4.46305e-05
1.27717e-05
-6.11466e-05
2.44219e-05
-9.9722e-05
6.44371e-05
-8.11377e-05
7.29772e-05
-4.69687e-05
5.1448e-05
-2.00672e-05
5.26299e-05
2.62944e-05
4.73024e-05
6.99491e-05
3.42193e-05
8.32728e-05
1.78814e-05
0.000108019
0.000117324
2.79141e-05
-0.000126492
2.64181e-05
-0.000101869
-1.40902e-05
-3.4701e-06
-4.54923e-05
0.000213784
-8.25393e-05
0.000136709
-6.23149e-05
1.84156e-05
-1.20291e-05
-0.000142765
-1.05251e-06
-4.44474e-05
6.41172e-06
-5.20948e-05
2.24158e-05
-7.71506e-05
4.47569e-05
-0.000122063
6.75181e-05
-0.000103899
8.31896e-05
-6.26403e-05
5.5006e-05
8.11644e-06
5.63593e-05
2.4941e-05
5.03521e-05
7.59564e-05
3.60319e-05
9.75929e-05
1.86599e-05
0.000125391
0.000135984
6.95262e-06
-3.44567e-05
1.42943e-05
-3.66796e-05
1.97125e-05
-3.72628e-05
2.79497e-05
-3.35663e-05
3.25174e-05
-3.84445e-05
5.60218e-05
-4.64914e-05
6.45378e-05
-4.59524e-05
6.97364e-05
-5.17518e-05
7.66605e-05
-5.20979e-05
8.65758e-05
-4.52149e-05
9.72232e-05
-4.35807e-05
0.000107587
-3.89571e-05
0.000114805
-2.82547e-05
0.00011902
-1.75658e-05
0.000120903
-8.90908e-06
0.000122044
-1.62286e-06
0.000122755
3.07699e-06
0.000123201
1.22192e-05
0.000125778
1.12608e-05
0.000118747
5.80538e-05
8.40184e-05
8.62818e-05
7.81421e-05
0.000131692
8.29357e-05
0.000175289
6.40663e-06
-4.08633e-05
1.40755e-05
-4.43485e-05
1.94986e-05
-4.26858e-05
3.69325e-05
-5.10002e-05
4.54927e-05
-4.70047e-05
5.42826e-05
-5.52812e-05
6.03511e-05
-5.20209e-05
6.87552e-05
-6.01559e-05
8.1435e-05
-6.47777e-05
9.45912e-05
-5.83711e-05
0.000108531
-5.7521e-05
0.000121538
-5.19632e-05
0.000127728
-3.44455e-05
0.000127984
-1.78214e-05
0.000124332
-5.25695e-06
0.000127525
-4.81612e-06
0.000125592
5.01032e-06
0.000120912
1.68988e-05
8.33667e-05
4.88063e-05
9.36371e-05
4.77834e-05
0.000101102
7.88171e-05
0.000189022
4.37717e-05
5.14768e-05
0.00022048
9.45548e-06
-5.03188e-05
1.87254e-05
-5.36184e-05
2.82686e-05
-5.2229e-05
3.59532e-05
-5.86848e-05
4.40632e-05
-5.51146e-05
5.03839e-05
-6.16019e-05
5.97361e-05
-6.13731e-05
7.01146e-05
-7.05344e-05
8.36449e-05
-7.8308e-05
9.78351e-05
-7.25614e-05
0.000116379
-7.60653e-05
0.000135592
-7.11755e-05
0.000142631
-4.14845e-05
0.000135494
-1.06848e-05
0.000134757
-4.5195e-06
0.000138556
-8.61503e-06
0.000139953
3.6125e-06
0.000142197
1.46549e-05
0.00015624
3.47638e-05
0.000163133
4.08899e-05
0.000180715
6.12351e-05
0.000180162
4.43251e-05
3.25056e-05
0.000199133
9.7653e-06
-6.00841e-05
1.87671e-05
-6.26202e-05
2.75173e-05
-6.09792e-05
3.37522e-05
-6.49197e-05
4.12058e-05
-6.25683e-05
4.80324e-05
-6.84285e-05
5.53161e-05
-6.86568e-05
6.47949e-05
-8.00132e-05
7.95341e-05
-9.30472e-05
0.000100537
-9.35641e-05
0.000133855
-0.000109384
0.00015796
-9.52801e-05
0.000155568
-3.90929e-05
0.00014997
-5.08628e-06
0.000146184
-7.33447e-07
0.000145943
-8.37406e-06
0.000155404
-5.84875e-06
0.000159924
1.01346e-05
0.000152026
4.26622e-05
0.000153788
3.91281e-05
0.000167523
4.74999e-05
0.000178996
3.28518e-05
2.88148e-05
0.000182687
9.01868e-06
-6.91028e-05
1.62714e-05
-6.98729e-05
2.49283e-05
-6.96361e-05
3.22601e-05
-7.22516e-05
3.80212e-05
-6.83294e-05
4.37381e-05
-7.41454e-05
4.90254e-05
-7.39442e-05
5.80085e-05
-8.89963e-05
7.50692e-05
-0.000110108
0.000111021
-0.000129516
0.000146527
-0.00014489
0.000162356
-0.000111109
0.000169226
-4.59634e-05
0.000170281
-6.14084e-06
0.000173256
-3.70842e-06
0.000180437
-1.55553e-05
0.000185189
-1.06004e-05
0.000103016
9.23074e-05
9.33362e-05
5.23417e-05
9.58529e-05
3.66115e-05
0.000177132
-3.37795e-05
0.000187402
2.25821e-05
2.13412e-05
0.000194876
9.24599e-06
-7.83488e-05
1.69419e-05
-7.75688e-05
2.73985e-05
-8.00927e-05
3.14529e-05
-7.6306e-05
3.57903e-05
-7.26668e-05
4.22097e-05
-8.05647e-05
4.89504e-05
-8.06849e-05
5.4643e-05
-9.46889e-05
6.88097e-05
-0.000124275
9.5544e-05
-0.00015625
0.0001073
-0.000156646
0.000116868
-0.000120676
0.000152058
-8.11538e-05
0.000169479
-2.35613e-05
0.000183764
-1.79937e-05
0.000211782
-4.35738e-05
0.000253032
-5.18503e-05
0.000311141
3.41983e-05
0.000306508
5.69749e-05
0.000275634
6.74858e-05
0.000184281
5.75731e-05
0.000161591
4.52721e-05
-2.13019e-05
0.000204234
5.61118e-06
-8.396e-05
1.21336e-05
-8.40912e-05
2.27807e-05
-9.07398e-05
3.6514e-05
-9.00393e-05
4.65369e-05
-8.26897e-05
4.9968e-05
-8.39959e-05
5.52323e-05
-8.59492e-05
6.48069e-05
-0.000104263
7.36995e-05
-0.000133167
7.06175e-05
-0.000153168
5.429e-05
-0.000140319
8.25888e-05
-0.000148975
0.000106443
-0.000105008
0.000132397
-4.95151e-05
0.000168999
-5.4596e-05
0.000221436
-9.60107e-05
0.000280488
-0.000110902
0.000356476
-4.17896e-05
0.000451143
-3.76919e-05
0.000515725
2.90363e-06
0.000535321
3.79778e-05
0.000526106
5.44867e-05
2.81311e-05
0.000476673
5.04011e-06
-8.90001e-05
1.22062e-05
-9.12572e-05
3.10392e-05
-0.000109573
4.92406e-05
-0.000108241
6.03895e-05
-9.38385e-05
6.90767e-05
-9.26831e-05
7.87031e-05
-9.55755e-05
9.22477e-05
-0.000117808
0.000100258
-0.000141178
0.000103156
-0.000156065
5.52414e-05
-9.24046e-05
8.8272e-05
-0.000182005
7.10937e-05
-8.783e-05
9.23573e-05
-7.07787e-05
0.000146239
-0.000108478
0.000194821
-0.000144592
0.000236849
-0.00015293
0.000283009
-8.79498e-05
0.000365321
-0.000120004
0.000436225
-6.80004e-05
0.000487373
-1.31706e-05
0.00047286
6.89992e-05
0.000189293
0.000311699
4.52993e-06
-9.353e-05
1.18702e-05
-9.85975e-05
2.67815e-05
-0.000124484
4.20944e-05
-0.000123554
5.1904e-05
-0.000103648
6.2943e-05
-0.000103722
7.077e-05
-0.000103402
7.62084e-05
-0.000123247
4.93726e-05
-0.000114342
4.34811e-05
-0.000150174
0.000112521
-0.000161445
0.000108467
-0.00017795
0.000112308
-9.16712e-05
0.00012164
-8.01106e-05
0.000151378
-0.000138216
0.000169391
-0.000162606
0.000185711
-0.000169251
0.000238389
-0.000140628
0.000250884
-0.000132498
0.000261321
-7.84381e-05
0.000257053
-8.90271e-06
0.000316857
9.19515e-06
2.83604e-05
0.00047779
8.97183e-06
-0.000102502
2.0158e-05
-0.000109784
3.1141e-05
-0.000135467
4.31161e-05
-0.000135529
4.99538e-05
-0.000110486
6.02965e-05
-0.000114065
7.18627e-05
-0.000114969
7.36323e-05
-0.000125016
7.2303e-05
-0.000113013
5.02106e-05
-0.000128081
5.0476e-05
-0.00016171
4.25027e-05
-0.000169977
4.36115e-05
-9.278e-05
0.000104033
-0.000140532
0.000123545
-0.000157728
9.64531e-05
-0.000135513
0.000103125
-0.000175922
9.84382e-05
-0.000135941
0.000139693
-0.000173752
0.00019597
-0.000134716
0.000268543
-8.14752e-05
0.000314945
-3.7207e-05
-1.53199e-05
0.000358625
1.0714e-05
-0.000113216
2.35799e-05
-0.00012265
3.55126e-05
-0.0001474
4.49498e-05
-0.000144966
5.11231e-05
-0.000116659
6.23376e-05
-0.000125279
6.83892e-05
-0.00012102
7.12318e-05
-0.000127859
7.59841e-05
-0.000117765
8.47882e-05
-0.000136885
8.54139e-05
-0.000162336
8.47039e-05
-0.000169267
8.25677e-05
-9.06438e-05
9.49244e-05
-0.000152889
8.18595e-05
-0.000144663
9.6703e-05
-0.000150357
9.86209e-05
-0.00017784
0.000138831
-0.000176152
0.000141681
-0.000176602
0.000156668
-0.000149703
0.000139386
-6.41924e-05
0.00018314
-8.09614e-05
-0.000135987
0.000303807
1.01056e-05
-0.000123321
1.44571e-05
-0.000127001
3.13194e-05
-0.000164262
3.78174e-05
-0.000151464
4.60454e-05
-0.000124887
4.24912e-05
-0.000121725
4.89328e-05
-0.000127462
8.2748e-05
-0.000161674
4.69229e-05
-8.19399e-05
9.46038e-05
-0.000184566
3.20442e-05
-9.97762e-05
5.53243e-05
-0.000192547
5.03922e-05
-8.57117e-05
9.24845e-05
-0.000194981
0.000116031
-0.00016821
0.000143373
-0.000177699
0.000155489
-0.000189956
0.000142057
-0.00016272
0.000142119
-0.000176664
0.000124899
-0.000132482
0.000170297
-0.000109591
0.000162488
-7.31529e-05
-0.000155443
0.000181945
7.49317e-06
-0.000130815
1.35922e-05
-0.0001331
2.68165e-05
-0.000177487
3.43299e-05
-0.000158977
3.20806e-05
-0.000122638
3.91082e-05
-0.000128753
5.98659e-05
-0.00014822
7.66777e-05
-0.000178486
9.79616e-05
-0.000103224
3.86118e-05
-0.000125216
5.13102e-05
-0.000112475
6.31446e-05
-0.000204382
7.18573e-05
-9.44244e-05
8.12383e-05
-0.000204362
9.76133e-05
-0.000184585
8.48827e-05
-0.000164968
9.9179e-05
-0.000204252
0.000158755
-0.000222296
0.000108704
-0.000126613
0.000206351
-0.000230129
0.000172442
-7.56815e-05
0.000283556
-0.000184266
-8.14114e-05
0.000209524
8.72776e-06
-0.000139542
1.72696e-05
-0.000141642
2.53549e-05
-0.000185572
2.32301e-05
-0.000156852
2.70899e-05
-0.000126498
3.48568e-05
-0.00013652
5.12023e-05
-0.000164565
5.14989e-05
-0.000178782
5.57934e-05
-0.000107518
4.68528e-05
-0.000116276
4.50228e-05
-0.000110645
5.2168e-05
-0.000211527
5.57237e-05
-9.79801e-05
4.89279e-05
-0.000197566
6.15189e-05
-0.000197176
0.000112796
-0.000216245
0.00012218
-0.000213637
0.000132651
-0.000232767
0.000127987
-0.000121949
0.000149951
-0.000252094
0.000292097
-0.000217827
0.000329893
-0.000222062
-0.000181664
0.000430146
8.61836e-06
-0.000148161
1.87216e-05
-0.000151745
2.81909e-05
-0.000195041
3.27071e-05
-0.000161369
2.21785e-05
-0.000115969
3.92959e-05
-0.000153637
2.88964e-05
-0.000154166
1.86053e-05
-0.000168491
8.80132e-05
-0.000176926
7.50649e-05
-0.000103328
0.000100596
-0.000136175
2.25726e-05
-0.000133504
4.52169e-05
-0.000120624
5.85297e-05
-0.000210879
0.00011977
-0.000258416
6.338e-05
-0.000159855
0.000125805
-0.000276062
5.12049e-05
-0.000158167
0.000181332
-0.000252076
0.000150981
-0.000221742
0.000182788
-0.000249635
0.000219335
-0.000258609
-0.000211101
0.000248772
4.36475e-06
-0.000152525
1.07044e-05
-0.000158085
1.52752e-05
-0.000199612
1.81603e-05
-0.000164254
1.53677e-05
-0.000113177
3.06736e-05
-0.000168943
2.80684e-05
-0.00015156
2.93953e-05
-0.000169818
2.38357e-05
-0.000171367
8.33764e-05
-0.000162868
5.34416e-05
-0.00010624
4.32242e-05
-0.000123286
4.50532e-05
-0.000122453
7.88397e-05
-0.000244666
8.99543e-05
-0.000269531
6.46755e-05
-0.000134576
7.63864e-05
-0.000287773
8.72202e-05
-0.000169001
0.000122969
-0.000287825
0.000159953
-0.000258726
0.00019968
-0.000289361
0.000229792
-0.000288721
-0.000236844
0.000255535
3.27637e-06
-0.000155802
7.65976e-06
-0.000162468
1.48262e-05
-0.000206778
1.08597e-05
-0.000160287
2.18508e-05
-0.000124168
2.33113e-05
-0.000170403
2.13083e-05
-0.000149557
2.48537e-05
-0.000173363
4.30393e-05
-0.000189552
7.8769e-05
-0.000198598
7.48462e-05
-0.000102318
6.80488e-05
-0.000116489
6.78908e-05
-0.000122295
7.29949e-05
-0.00024977
4.08844e-05
-0.00023742
0.000104819
-0.000198511
8.61017e-05
-0.000269056
9.45643e-05
-0.000177463
0.000119873
-0.000313134
0.000162476
-0.000301329
0.00020952
-0.000336406
0.000225391
-0.000304592
-0.000332217
0.000320764
7.29677e-06
-0.000163099
1.81333e-05
-0.000173305
1.42652e-05
-0.00020291
2.88198e-05
-0.000174842
6.46679e-07
-9.59945e-05
1.74647e-05
-0.000187221
2.19473e-05
-0.00015404
2.16037e-05
-0.00017302
3.89006e-05
-0.000206849
6.67483e-05
-0.000226446
7.51523e-05
-0.000110722
8.23871e-05
-0.000123724
8.92745e-05
-0.000129183
9.07104e-05
-0.000251206
5.21437e-05
-0.000198853
7.07956e-05
-0.000217163
5.63973e-05
-0.000254657
0.000163407
-0.000284473
0.000140807
-0.000290534
0.000180315
-0.000340837
0.000209036
-0.000365127
0.000236788
-0.000332343
-0.000462964
0.000367535
-1.13664e-05
-0.000151732
-2.73831e-05
-0.000157288
1.25157e-05
-0.000242809
-6.04466e-06
-0.000156281
3.22941e-05
-0.000134333
2.50122e-06
-0.000157428
-2.69489e-05
-0.00012459
1.89729e-05
-0.000218942
3.39365e-05
-0.000221813
4.23979e-05
-0.000234907
6.46486e-05
-0.000132972
7.62609e-05
-0.000135336
8.92983e-05
-0.00014222
7.09877e-05
-0.000232895
0.000118025
-0.000245891
4.76992e-05
-0.000146837
0.00010766
-0.000314618
0.000136383
-0.000313196
0.000183476
-0.000337628
0.000184045
-0.000341406
0.000226845
-0.000407926
0.000377132
-0.000482631
-0.000539361
0.000453529
1.54867e-05
-0.000167219
3.51854e-05
-0.000176987
-2.13137e-05
-0.00018631
-1.19742e-05
-0.000165621
1.49698e-05
-0.000161277
2.50791e-05
-0.000167538
6.1041e-05
-0.000160552
1.21516e-05
-0.000170052
4.07456e-05
-0.000250407
5.02475e-05
-0.000244409
5.02776e-05
-0.000133002
4.73938e-05
-0.000132452
0.000160511
-0.000255338
7.93204e-05
-0.000151704
3.17662e-05
-0.000198336
6.12134e-05
-0.000176284
9.41114e-05
-0.000347516
0.000121453
-0.000340537
0.000111985
-0.00032816
0.000151402
-0.000380823
0.000195307
-0.000451831
0.000258778
-0.000546101
-0.000729109
0.000448525
2.91922e-06
-0.000170138
4.12006e-06
-0.000178188
7.91499e-07
-0.000182981
1.13444e-06
-0.000165964
1.26911e-05
-0.000172834
1.3445e-05
-0.000168292
2.89487e-05
-0.000176055
2.74108e-05
-0.000168514
4.05623e-05
-0.000263558
6.84232e-05
-0.00027227
8.07806e-05
-0.00014536
0.000105184
-0.000156855
2.95681e-05
-0.000179722
5.23809e-05
-0.000174517
4.57246e-05
-0.00019168
5.51533e-05
-0.000185713
6.50397e-05
-0.000357402
7.54433e-05
-0.000350941
8.94915e-05
-0.000342208
0.00012104
-0.000412371
0.000149875
-0.000480667
0.000200736
-0.000596962
-0.000790282
0.000261908
6.05573e-06
-0.000176194
7.37906e-06
-0.000179511
2.50026e-06
-0.000178103
1.28806e-05
-0.000176344
9.97261e-06
-0.000169926
1.6574e-05
-0.000174893
1.27715e-05
-0.000172253
9.49811e-05
-0.000250724
9.62365e-05
-0.000264814
1.04312e-05
-0.000186465
2.485e-05
-0.000159778
4.09758e-05
-0.000172981
4.50082e-05
-0.000183754
6.33123e-05
-0.000192821
7.16301e-05
-0.000199998
8.67122e-05
-0.000200795
7.07373e-05
-0.000341427
7.18201e-05
-0.000352024
0.000112947
-0.000383334
9.31286e-05
-0.000392553
0.000110415
-0.000497953
0.000132328
-0.000618875
-0.00079145
0.000133496
-8.16402e-06
-0.00016803
-6.08416e-06
-0.000181591
-1.05518e-05
-0.000173635
-2.1418e-05
-0.000165478
3.54093e-05
-0.000226753
1.87226e-05
-0.000158206
7.83756e-05
-0.000231906
4.2427e-05
-0.000214775
4.06866e-05
-0.000263073
2.29894e-05
-0.000168767
3.07493e-05
-0.000167538
2.82341e-05
-0.000170466
2.50754e-05
-0.000180596
3.96333e-05
-0.000207379
4.91401e-05
-0.000209505
6.79602e-05
-0.000219615
8.28824e-05
-0.000356349
0.000149453
-0.000418595
4.65692e-05
-0.00028045
0.000101962
-0.000447946
0.00010993
-0.00050592
7.51046e-05
-0.00058405
-0.000751705
3.53603e-05
4.48961e-05
-0.000212926
1.44075e-05
-0.000151102
-1.84634e-06
-0.000157381
3.72765e-05
-0.000204601
1.80027e-05
-0.000207479
6.79134e-05
-0.000208117
3.70833e-05
-0.000201076
4.27111e-05
-0.000220403
2.93843e-05
-0.000249746
1.01628e-05
-0.000149546
6.21919e-06
-0.000163595
6.70047e-06
-0.000170947
3.90486e-06
-0.0001778
1.65894e-06
-0.000205133
9.63422e-05
-0.000304188
7.89545e-05
-0.000202227
9.19264e-05
-0.000369321
7.75868e-05
-0.000404255
5.60085e-05
-0.000258872
5.87137e-05
-0.000450652
4.79577e-05
-0.000495164
4.71591e-05
-0.000583251
-0.000680361
-2.41854e-05
-3.21772e-05
-0.000180749
8.36598e-06
-0.000191645
6.23013e-05
-0.000211316
4.58569e-05
-0.000188157
4.26304e-05
-0.000204253
3.59266e-05
-0.000201413
8.3045e-05
-0.000248194
2.25272e-05
-0.000159885
-4.5256e-05
-0.000181963
-2.55544e-05
-0.000169247
-1.17172e-05
-0.000177432
-3.31973e-06
-0.000179345
9.97278e-06
-0.000191093
1.27457e-05
-0.000207906
5.65138e-05
-0.000347956
5.4107e-05
-0.000199821
7.05706e-05
-0.000385785
5.75051e-05
-0.000391189
5.07461e-05
-0.000252113
5.00222e-05
-0.000449928
4.13246e-05
-0.000486467
5.05138e-05
-0.00059244
-0.000476364
-0.000153483
3.28237e-06
-0.000184031
7.34556e-06
-0.000195709
4.6439e-06
-0.000208615
1.66311e-05
-0.000200144
2.44995e-05
-0.000212121
4.39058e-05
-0.000220819
-3.14922e-05
-0.000172796
-1.84389e-05
-0.000172939
-2.08321e-05
-0.00017957
-1.71465e-05
-0.000172933
-1.92005e-05
-0.000175378
-2.40072e-05
-0.000174538
-3.90836e-05
-0.000176016
3.25086e-05
-0.000279498
3.69124e-05
-0.00035236
0.000145359
-0.000308267
2.48444e-05
-0.00026527
3.34942e-05
-0.000399839
5.02741e-05
-0.000268893
8.25976e-05
-0.000482251
-4.88604e-05
-0.000355009
-4.39509e-05
-0.00059735
-0.000419357
-0.000100959
-5.83729e-06
-0.000178194
1.95433e-05
-0.000221089
6.30981e-05
-0.00025217
2.01905e-05
-0.000157236
-1.3002e-05
-0.000178929
-4.53625e-05
-0.000188459
-2.76946e-05
-0.000190464
-2.28664e-05
-0.000177767
-2.35598e-05
-0.000178877
-2.05964e-05
-0.000175897
-1.80509e-05
-0.000177923
-1.79501e-05
-0.000174639
-1.66268e-05
-0.00017734
4.86356e-06
-0.000300988
4.7425e-06
-0.000352239
3.16886e-05
-0.000335213
1.65641e-05
-0.000250146
1.08158e-05
-0.000394091
1.34311e-05
-0.000271508
2.32196e-06
-0.000471142
-4.82701e-05
-0.000304417
-8.15296e-05
-0.00056409
-0.000341445
-0.000159441
1.15301e-05
-0.000189724
-1.24442e-05
-0.000197115
-6.36044e-05
-0.000201009
-2.90971e-05
-0.000191743
-1.83583e-05
-0.000189668
-1.45733e-05
-0.000192244
-2.21309e-05
-0.000182906
-2.07865e-05
-0.000179111
-2.08153e-05
-0.000178848
-1.96976e-05
-0.000177014
-2.01862e-05
-0.000177435
-2.08773e-05
-0.000173948
-1.90963e-05
-0.00017912
-7.83563e-06
-0.000312249
-1.00317e-05
-0.000350043
8.25272e-06
-0.000353498
-3.72971e-07
-0.00024152
5.23872e-06
-0.000399703
6.94627e-07
-0.000266964
3.45275e-06
-0.0004739
-1.56058e-05
-0.000285358
-0.000221113
-0.000358583
-0.000369114
-0.000193444
-1.51432e-06
-0.00018821
-4.42104e-06
-0.000194208
-8.66978e-06
-0.000196761
-1.07396e-05
-0.000189674
-1.25156e-05
-0.000187892
-2.14401e-05
-0.000183319
-2.18016e-05
-0.000182545
-2.00396e-05
-0.000180873
-1.96399e-05
-0.000179247
-1.84393e-05
-0.000178215
-1.84591e-05
-0.000177415
-1.67247e-05
-0.000175682
-1.64536e-05
-0.000179392
-2.30938e-05
-0.000305609
-2.66884e-05
-0.000346448
-2.23762e-05
-0.00035781
3.22035e-05
-0.0002961
-8.85989e-05
-0.0002789
-1.77579e-05
-0.000337805
-6.17724e-05
-0.000429886
-6.94178e-05
-0.000277713
-0.00011973
-0.000308271
-0.000318891
-0.000169953
-1.87433e-06
-0.000186335
-5.89166e-06
-0.000190191
-1.24159e-05
-0.000190236
-1.37778e-05
-0.000188312
-1.74637e-05
-0.000184206
-1.75273e-05
-0.000183256
-1.79446e-05
-0.000182128
-1.70899e-05
-0.000181728
-1.6121e-05
-0.000180216
-1.48916e-05
-0.000179444
-1.22155e-05
-0.000180091
-1.02393e-05
-0.000177659
-1.38467e-05
-0.000175784
-1.78751e-05
-0.000301581
-3.83201e-05
-0.000326003
-4.37484e-05
-0.000352381
-1.78449e-05
-0.000322003
-3.12955e-05
-0.00026545
-2.28923e-05
-0.000346208
-0.00018294
-0.000269837
-7.74575e-05
-0.000383196
-0.000127919
-0.000257809
-0.000269834
-0.000176977
-2.11413e-06
-0.000184221
-4.99795e-06
-0.000187307
-7.8574e-06
-0.000187377
-1.00602e-05
-0.000186109
-1.29713e-05
-0.000181295
-1.44076e-05
-0.00018182
-1.52985e-05
-0.000181237
-1.53054e-05
-0.000181721
-1.41485e-05
-0.000181373
-1.07943e-05
-0.000182798
-7.0444e-06
-0.000183841
5.82584e-06
-0.000190529
1.40846e-05
-0.000184043
-7.23415e-05
-0.000215154
-6.65657e-05
-0.000331779
-7.28609e-05
-0.000346086
-5.01506e-05
-0.000344714
2.24477e-05
-0.000338048
-7.06406e-05
-0.00025312
-8.65618e-05
-0.000253916
-0.000224613
-0.000245145
-0.000120346
-0.000362076
-0.000234847
-0.000155332
-2.23393e-06
-0.000181987
-5.21857e-06
-0.000184322
-7.35535e-06
-0.00018524
-1.21849e-05
-0.000181279
-1.21824e-05
-0.000181297
-1.40623e-05
-0.00017994
-1.51961e-05
-0.000180103
-1.68321e-05
-0.000180085
-1.79491e-05
-0.000180256
-1.94099e-05
-0.000181338
-2.1438e-05
-0.000181813
-2.57834e-05
-0.000186183
-2.73916e-05
-0.000182435
-4.53459e-05
-0.0001972
-4.87518e-05
-0.000328373
-5.78494e-05
-0.000336989
-6.68719e-05
-0.000335691
-7.0849e-05
-0.000334071
-9.02631e-05
-0.000233706
-0.000122702
-0.000221478
-0.00014295
-0.000224897
-0.000136644
-0.000368382
-0.000206844
-0.000164647
-2.73985e-06
-0.000179247
-5.39516e-06
-0.000181667
-8.76408e-06
-0.000181871
-1.05514e-05
-0.000179492
-1.20061e-05
-0.000179842
-1.32917e-05
-0.000178654
-1.50575e-05
-0.000178337
-1.70692e-05
-0.000178073
-1.92069e-05
-0.000178118
-2.204e-05
-0.000178505
-2.4764e-05
-0.000179089
-2.97778e-05
-0.00018117
-3.36168e-05
-0.000178596
-5.07576e-05
-0.000180059
-5.7133e-05
-0.000321998
-6.92187e-05
-0.000324903
-8.65844e-05
-0.000318325
-0.00010617
-0.000314485
-0.000144239
-0.000195637
-9.98237e-05
-0.000265893
-4.90943e-05
-0.000275626
-0.000229891
-0.000187585
-0.000292359
-0.000144376
-2.26908e-06
-0.000176978
-4.60229e-06
-0.000179334
-7.28312e-06
-0.00017919
-8.82325e-06
-0.000177952
-1.09714e-05
-0.000177694
-1.27128e-05
-0.000176913
-1.46118e-05
-0.000176438
-1.67204e-05
-0.000175965
-1.92522e-05
-0.000175587
-2.25422e-05
-0.000175215
-2.60826e-05
-0.000175548
-3.12336e-05
-0.000176019
-3.56859e-05
-0.000174143
-4.25013e-05
-0.000173244
-4.81266e-05
-0.000316372
-5.84213e-05
-0.000314608
-7.63028e-05
-0.000300444
-9.0254e-05
-0.000300533
-2.11995e-05
-0.000264691
-0.000109477
-0.000177616
-0.00011464
-0.000270463
-0.000117777
-0.000184448
-0.000228187
-0.00018195
-1.44064e-06
-0.000175538
-3.57457e-06
-0.0001772
-5.32202e-06
-0.000177443
-7.21632e-06
-0.000176058
-9.30319e-06
-0.000175607
-1.11558e-05
-0.00017506
-1.31283e-05
-0.000174466
-1.52278e-05
-0.000173865
-1.76881e-05
-0.000173126
-2.05883e-05
-0.000172314
-2.47146e-05
-0.000171422
-2.97379e-05
-0.000170996
-3.48354e-05
-0.000169046
-4.11755e-05
-0.000166904
-4.57555e-05
-0.000311792
-5.21488e-05
-0.000308215
-5.87748e-05
-0.000293818
-7.46124e-05
-0.000284696
-8.18703e-05
-0.000257433
-0.000103426
-0.00015606
-0.000121242
-0.000252647
-0.000144179
-0.000161511
-0.000249755
-0.00012261
-1.21354e-06
-0.000174324
-2.8767e-06
-0.000175537
-4.46967e-06
-0.00017585
-5.83348e-06
-0.000174694
-7.26163e-06
-0.000174179
-8.65371e-06
-0.000173668
-1.03183e-05
-0.000172801
-1.21146e-05
-0.000172069
-1.43466e-05
-0.000170894
-1.68421e-05
-0.000169819
-2.00339e-05
-0.00016823
-2.38518e-05
-0.000167178
-2.82026e-05
-0.000164695
-3.25705e-05
-0.000162536
-3.79203e-05
-0.000306442
-4.53367e-05
-0.000300798
-5.09147e-05
-0.00028824
-5.82021e-05
-0.000277409
-5.2442e-05
-0.000263193
-5.15412e-05
-0.000156961
-0.000158566
-0.000145623
-0.000114776
-0.000205301
-0.000191295
-0.000173236
-1.18327e-06
-0.000173141
-2.29318e-06
-0.000174427
-3.6279e-06
-0.000174515
-4.75394e-06
-0.000173568
-5.83589e-06
-0.000173097
-7.14912e-06
-0.000172355
-8.46373e-06
-0.000171487
-1.00083e-05
-0.000170524
-1.18564e-05
-0.000169046
-1.39566e-05
-0.000167719
-1.68873e-05
-0.000165299
-2.03669e-05
-0.000163698
-2.48762e-05
-0.000160186
-2.83313e-05
-0.000159081
-3.35341e-05
-0.00030124