/*--------------------------------*- C++ -*----------------------------------*\
| =========                 |                                                 |
| \\      /  F ield         | foam-extend: Open Source CFD                    |
|  \\    /   O peration     | Version:     4.1                                |
|   \\  /    A nd           | Web:         http://www.foam-extend.org         |
|    \\/     M anipulation  |                                                 |
\*---------------------------------------------------------------------------*/
FoamFile
{
    version     2.0;
    format      ascii;
    class       volScalarField;
    location    "0.25";
    object      alpha1;
}
// * * * * * * * * * * * * * * * * * * * * * * * * * * * * * * * * * * * * * //

dimensions      [0 0 0 0 0 0 0];

internalField   nonuniform List<scalar> 
2268
(
1
1
1
1
1
1
1
1
0.999999
0.999998
0.999996
0.999991
0.999985
0.999977
0.999968
0.999962
0.999964
0.999982
1
1
1
1
0.992671
1
1
1
1
1
1
1
1
1
1
0.999998
0.999998
0.999991
0.999981
0.999971
0.999967
0.99997
0.999997
1
1
1
1
0.992651
1
1
1
1
1
1
1
1
1
1
1
1
1
0.999999
0.999988
0.999989
0.999997
1
1
1
1
1
0.992594
1
1
1
1
1
1
1
1
1
1
1
1
1
1
1
1
1
1
1
1
1
1
0.992528
1
1
1
1
1
1
1
1
1
0.999999
1
1
1
1
1
1
1
1
1
1
1
1
0.992456
1
1
1
1
1
1
1
0.999993
0.999949
0.999938
0.999992
0.999784
0.999939
1
1
1
1
1
1
1
1
1
0.992413
1
1
1
1
0.999993
0.999988
0.999963
0.99988
0.999776
0.999732
0.999672
0.998673
0.999238
0.999562
0.999819
1
1
1
1
1
1
1
0.992535
0.999964
0.99995
0.999946
0.999932
0.999905
0.99986
0.999768
0.999569
0.999348
0.999198
0.998667
0.99551
0.997182
0.997742
0.998027
0.998506
0.999351
1
1
1
1
1
0.993309
0.000991038
0.000791853
0.000351826
3.57678e-06
0
0
0
1.87401e-07
6.04769e-08
1.05321e-08
5.15956e-10
0
0
0
0
1.59428e-13
3.69704e-14
5.32907e-15
2.22045e-15
0.000404116
0.000401315
0.000518522
0.000112718
0
0
0
0
4.07724e-09
1.18452e-08
3.50578e-09
3.9734e-10
0
0
0
0
2.63123e-14
1.12688e-14
2.94209e-15
0
0
0.000394511
0.000297246
3.29982e-05
0
0
0
0
0
4.41051e-09
1.67616e-09
2.08134e-10
1.42703e-12
0
0
0
9.9365e-15
5.32907e-15
0
0
0
0.000434722
0.000127217
1.25639e-05
1.47581e-06
0
0
0
0
1.89042e-09
6.60231e-10
8.32097e-11
4.70562e-12
0
0
0
5.66214e-15
0
0
0
0.000248709
0.000246061
3.75864e-05
1.09938e-05
2.86044e-06
1.40959e-07
0
0
0
6.56128e-10
2.07793e-10
3.24913e-11
3.93607e-12
0
0
0
0
0
0
0
0.000276847
2.36162e-05
8.72695e-06
8.62324e-06
2.15504e-06
7.54582e-08
0
0
0
4.75596e-11
3.55642e-11
1.28859e-11
1.88821e-12
0
0
0
0
0
0
0
0
0
5.76673e-06
4.71902e-06
1.11888e-06
3.28961e-08
0
0
0
0
0
4.98085e-12
6.5592e-13
0
0.0429931
0.00109305
0
0
0
0
0
0
8.39504e-08
2.82791e-06
7.03214e-07
1.16537e-08
0
0
0
0
0
1.71374e-12
1.4122e-13
0.999752
0.999702
0.999682
0.9996
0.99951
0.999303
0.99901
0.998494
0.997967
0.997424
0.994986
0.98454
0.990059
0.990444
0.989983
0.991171
0.99371
0.997049
0.999227
1
1
1
0.995982
0.998381
0.998175
0.998089
0.997608
0.99735
0.996531
0.995512
0.993993
0.992606
0.990429
0.979353
0.939238
0.960145
0.95501
0.945424
0.949999
0.957752
0.970818
0.981729
0.992643
0.997724
0.999648
0.996648
0.991918
0.991312
0.991038
0.989617
0.988771
0.986358
0.983565
0.980182
0.977081
0.968408
0.928483
0.806316
0.862032
0.827195
0.777358
0.781811
0.800497
0.841397
0.885613
0.936402
0.961964
0.979899
0.988685
0.96948
0.968104
0.967519
0.964396
0.962206
0.956718
0.951772
0.946627
0.939374
0.906407
0.790519
0.520229
0.587503
0.505684
0.401759
0.391479
0.411618
0.470644
0.562837
0.695067
0.80015
0.870032
0.923503
0.904897
0.902345
0.901379
0.895295
0.891293
0.882494
0.879452
0.875151
0.854104
0.746358
0.48726
0.223364
0.233446
0.190758
0.136848
0.125116
0.135646
0.157336
0.202756
0.302735
0.466519
0.6646
0.761448
0.735997
0.731991
0.730959
0.722022
0.717179
0.711996
0.727078
0.731995
0.670889
0.441504
0.179064
0.0723448
0.0815167
0.0663182
0.0480383
0.0396067
0.038969
0.0447623
0.0664161
0.125335
0.277688
0.307003
0.347014
0.397111
0.393626
0.393986
0.388744
0.389073
0.401517
0.449287
0.48062
0.386781
0.17869
0.0540617
0.0253211
0.0342354
0.0286666
0.0211593
0.0117084
0.00739371
0.0075574
0.011682
0.0175222
0.059942
0.0537158
0.0613243
0.138912
0.137945
0.138611
0.138711
0.141945
0.157216
0.198148
0.234778
0.172851
0.0636962
0.0169071
0.0112302
0.0158974
0.0139915
0.00932864
0.00262755
0
5.53624e-05
0.000927343
4.17448e-05
0.00530768
0.00431721
0.00440264
0.0433875
0.0431898
0.0433816
0.0435718
0.0447504
0.0522388
0.0711161
0.0928873
0.0678663
0.0228854
0.00615985
0.00556905
0.00703466
0.00617701
0.00311333
0
0
0
0
0
0
0
0
0.0126827
0.0126877
0.0126297
0.0123662
0.0120233
0.0134374
0.0183698
0.0273831
0.022313
0.00847763
0.00236915
0.00228575
0.00253096
0.00153585
0
0
0
0
0
0
0
0
0
0.00281633
0.00290864
0.00282263
0.00260057
0.00215898
0.00181119
0.00208088
0.00412633
0.00476369
0.00245137
0.000579451
0.000470769
0.000614196
0
0
0
0
0
0
0
0
0
0
6.07329e-05
0.000116344
7.30558e-05
0
0
0
0
0
0
0
0
0
0
0
0
0
0
0
0
0
0
0
0
0
0
0
0
0
0
0
0
0
0
0
0
0
0
0
0
0
0
0
0
0
0
0
0
0
0
0
0
0
0
0
0
0
0
0
0
0
0
0
0
0
0
0
0
0
0
0
0
0
0
0
0
0
0
0
0
0
0
0
0
0
0
0
0
0
0
0
0
0
0
0
0
0
0
0
5.78636e-07
1.37864e-07
0
0
0
0
0
0
0
0
0
0
0
0
0
0
2.83505e-08
3.52902e-06
3.03004e-06
3.18286e-06
4.02674e-06
4.31052e-06
5.20783e-06
6.099e-06
6.01292e-06
4.90223e-06
1.38399e-07
0
0
0
0
0
0
0
0
0
0
2.6372e-08
6.23412e-08
5.36312e-08
2.16064e-06
1.48935e-06
1.73335e-06
3.37186e-06
3.522e-06
4.111e-06
5.11424e-06
5.08501e-06
4.88512e-06
3.03928e-06
2.60532e-07
0
0
0
0
0
0
3.9682e-08
1.14688e-07
9.47044e-08
7.65032e-08
4.17706e-08
8.69706e-09
3.83832e-07
1.42283e-07
2.44624e-07
1.03222e-06
6.2352e-07
1.11633e-06
1.8018e-06
1.61751e-06
2.05465e-06
1.98607e-06
1.2903e-06
5.31927e-07
2.17181e-07
2.31276e-08
1.76161e-07
1.40467e-07
1.09061e-07
1.00127e-07
6.65323e-08
2.77026e-08
1.25672e-08
4.07479e-09
0
2.2456e-08
0
0
1.8309e-07
1.05848e-08
1.69748e-07
4.48351e-07
3.34153e-07
4.96011e-07
4.90342e-07
5.39205e-07
5.32535e-07
4.6876e-07
2.22888e-07
1.15851e-07
3.53103e-08
1.39272e-08
7.04476e-09
3.18255e-09
4.58013e-10
3.60959e-10
0
0
0
0
0
0
0
0
4.42877e-08
3.07358e-08
5.19822e-08
3.46093e-08
7.88041e-08
1.14246e-07
1.04606e-07
4.45124e-08
1.26599e-08
1.73122e-09
0
0
0
0
1.98998e-10
0
0
0
0
0
0
0
0
0
0
0
0
0
5.70913e-09
4.45786e-09
1.64147e-10
0
0
0
0
0
1.31971e-10
8.17575e-10
0
0
0
0
0
0
0
0
0
0
0
0
0
0
0
0
0
0
0
0
3.98712e-11
3.71504e-10
9.37224e-10
0
0
0
1.89587e-10
2.01875e-10
0
0
0
0
0
0
0
0
0
0
0
0
2.47585e-12
0
0
8.59639e-11
6.41876e-10
1.31677e-09
0
0
1.94796e-10
2.86175e-10
3.39875e-10
3.18357e-10
3.74504e-10
2.17673e-10
5.40261e-11
0
0
0
0
0
0
3.40601e-11
2.66276e-11
1.84662e-11
0
0
1.22929e-10
9.26223e-10
1.81796e-09
2.31609e-10
0
9.04994e-11
7.19042e-11
8.16023e-11
1.17115e-10
1.64808e-10
2.28478e-10
2.19525e-10
1.84238e-10
1.58199e-10
1.6372e-10
1.51899e-10
1.29374e-10
9.80915e-11
4.43124e-11
6.54482e-12
2.75802e-12
0
0
1.48982e-10
1.07284e-09
2.36509e-09
3.15407e-09
1.19368e-08
7.38137e-12
3.77243e-12
4.20758e-12
9.55114e-12
1.8314e-11
3.39532e-11
5.54542e-11
8.43421e-11
8.84977e-11
7.75917e-11
6.7394e-11
5.63876e-11
4.00132e-11
5.82412e-12
7.26641e-14
0
0
0
1.15675e-10
9.62512e-10
2.40079e-09
4.65087e-09
2.38058e-08
0
0
0
0
0
0
4.232e-12
9.19143e-12
9.42069e-12
7.81986e-12
5.64376e-12
3.71519e-12
2.38154e-12
0
0
0
0
0
9.48657e-11
8.13476e-10
2.41091e-09
4.96902e-09
2.89721e-08
0
0
0
0
0
0
0
0
0
0
0
0
0
0
1.65978e-14
1.87295e-13
0
0
5.50602e-11
7.64633e-10
3.21364e-09
5.20558e-09
3.19242e-08
0
0
0
0
0
0
0
0
0
0
0
0
0
0
7.37188e-14
3.41671e-13
0
0
0
6.64283e-10
4.2135e-09
6.2068e-09
3.48575e-08
2.65343e-14
3.19744e-14
3.38063e-14
2.73115e-14
8.38218e-15
0
0
0
0
0
0
0
0
9.60343e-15
4.69624e-14
3.80029e-13
0
0
0
3.38561e-10
4.07645e-09
1.08514e-08
4.98862e-08
1.71529e-14
2.03726e-14
2.23155e-14
2.74225e-14
2.53686e-14
2.09277e-14
1.39333e-14
4.94049e-15
5.60663e-15
1.11577e-14
1.87628e-14
2.52021e-14
1.95954e-14
0
1.82077e-14
3.70204e-13
6.09179e-13
0
0
9.3885e-11
3.95253e-09
2.0343e-08
6.99434e-08
2.55351e-15
3.21965e-15
2.88658e-15
4.21885e-15
6.16174e-15
1.07137e-14
1.37668e-14
1.06581e-14
1.13798e-14
1.26565e-14
9.10383e-15
6.43929e-15
4.16334e-15
0
2.22045e-16
2.37033e-13
1.10789e-12
0
0
0
4.65129e-09
3.17762e-08
7.57372e-08
1.88738e-15
1.94289e-15
1.33227e-15
1.72085e-15
1.55431e-15
2.83107e-15
3.66374e-15
3.44169e-15
3.27516e-15
3.16414e-15
1.72085e-15
1.33227e-15
1.05471e-15
0
0
1.52323e-13
1.22591e-12
0
0
0
4.31524e-09
3.67036e-08
3.92989e-08
2.38698e-15
3.71925e-15
3.66374e-15
3.21965e-15
2.05391e-15
2.66454e-15
2.9976e-15
2.05391e-15
1.22125e-15
1.83187e-15
1.22125e-15
1.33227e-15
1.9984e-15
1.16573e-15
0
5.25135e-14
9.18488e-13
0
0
0
3.54128e-09
3.35102e-08
2.34683e-08
3.10862e-15
3.77476e-15
3.94129e-15
3.33067e-15
2.83107e-15
3.27516e-15
3.9968e-15
3.9968e-15
2.44249e-15
1.72085e-15
1.38778e-15
2.9976e-15
1.88738e-15
1.83187e-15
0
4.44089e-16
6.03628e-13
2.17376e-12
0
0
1.02575e-09
1.50257e-08
4.07607e-08
3.9968e-15
3.33067e-15
3.16414e-15
2.66454e-15
3.16414e-15
2.05391e-15
3.94129e-15
4.996e-15
1.66533e-15
3.88578e-16
1.44329e-15
4.21885e-15
3.38618e-15
1.72085e-15
0
0
5.1037e-13
3.05728e-12
0
0
0
1.09407e-08
8.15391e-08
4.44089e-15
1.60982e-15
3.83027e-15
2.44249e-15
2.498e-15
4.16334e-15
5.60663e-15
7.88258e-15
4.44089e-15
6.10623e-16
2.60902e-15
4.996e-15
3.27516e-15
2.498e-15
0
0
4.90608e-13
3.25784e-12
0
0
0
1.08328e-08
9.37083e-08
4.71845e-15
2.22045e-15
3.44169e-15
2.498e-15
3.05311e-15
4.88498e-15
5.71765e-15
8.43769e-15
4.94049e-15
1.66533e-16
2.94209e-15
4.44089e-15
2.94209e-15
2.22045e-15
0
5.60663e-15
5.44453e-13
2.20574e-12
0
0
0
1.47084e-08
1.02198e-07
5.88418e-15
2.22045e-15
2.55351e-15
2.38698e-15
1.4988e-15
4.10783e-15
6.66134e-15
9.04832e-15
4.4964e-15
9.4369e-16
4.21885e-15
3.94129e-15
3.27516e-15
1.77636e-15
0
2.78666e-14
7.17371e-13
2.98206e-13
0
0
0
2.14018e-08
1.36369e-07
7.77156e-15
2.88658e-15
3.71925e-15
3.83027e-15
9.4369e-16
5.05151e-15
6.32827e-15
8.43769e-15
2.05391e-15
2.77556e-16
4.55191e-15
2.55351e-15
2.72005e-15
2.38698e-15
0
3.84137e-14
8.42715e-13
0
0
0
0
2.33469e-08
1.64386e-07
8.04912e-15
2.83107e-15
2.60902e-15
3.77476e-15
4.996e-16
6.93889e-15
6.66134e-15
8.21565e-15
6.66134e-16
0
4.10783e-15
7.21645e-16
4.66294e-15
1.88738e-15
0
4.25771e-14
9.02889e-13
0
0
0
0
2.36207e-08
1.77468e-07
0.999871
1
0.986865
0.863099
0.998511
1
1
0.984648
0.992216
0.994228
0.995415
0.994721
0.946205
0.954547
0.962213
0.969166
0.810175
0.836223
0.859526
0.874744
0.401007
0.452747
0.510384
0.564154
0.0799362
0.102536
0.130976
0.17105
0.00707734
0.0121547
0.023149
0.0449345
0
0.000108843
0.00159041
0.00452359
0
0
0
0
0
0
0
0
4.86858e-07
4.35137e-06
6.24177e-06
4.85743e-06
0
0
1.25071e-06
3.66722e-06
0
0
0
5.77376e-07
0
0
1.5531e-07
5.5188e-07
3.87908e-08
9.52414e-08
2.83524e-07
4.76525e-07
3.21682e-08
4.48855e-08
1.32793e-07
2.52964e-07
9.02775e-10
1.95818e-08
1.09083e-07
2.21372e-07
0
5.77492e-08
1.95271e-07
1.38817e-07
0
2.97885e-08
1.29189e-07
2.93501e-08
0
1.46459e-08
6.34567e-08
0
0
0
0
0
0
0
0
0
0
0
0
0
0
0
0
0
0
0
0
0
0
0
0
0
0
0
0
0
0
0
0
0
0
0
0
0
0
0
0
0
0
0
0
0
0
0
0
0
0
0
0
0
0
0
0
0
0
0
0
0
1.28315e-07
0
0
0
1.93998e-07
0
0
0
1.54468e-07
0
0
0
0
0
0
0
0
0
0
0
0
0
0
0
0.33465
0.112533
0.00802662
0
0
0.00194938
0
0
0
2.43196e-06
2.80897e-06
5.72183e-07
4.81729e-08
4.99857e-09
1.13198e-09
0
0
0
7.24476e-13
0.935743
0.731498
0.253494
0.0130127
0.00264117
0.0248942
0.00488064
0
0
0
2.09335e-07
3.26593e-06
7.37207e-07
8.6638e-08
3.02854e-08
4.96352e-09
0
0
0
0.992396
0.970138
0.851932
0.463614
0.207072
0.154012
0.0552313
0.00907773
0.0020311
0
0
0
0
0
0
3.79887e-08
7.25422e-09
1.88261e-10
0
0.974631
0.975727
0.968598
0.871097
0.554422
0.382754
0.104182
0.0105956
0.0194631
0
0
0
0
0
0
0
4.93886e-09
4.94452e-09
1.89537e-10
0.903169
0.941072
0.956189
0.947854
0.875836
0.81822
0.632147
0.329248
0.159765
0.0244205
0.0034435
0.000894131
0.00029092
0.000170957
0
0
0
0
1.78291e-09
0.71329
0.777911
0.878782
0.91474
0.90958
0.903287
0.87795
0.81387
0.672409
0.381572
0.155804
0.0528466
0.0148558
0.00376383
0.000587679
4.66305e-05
1.14601e-07
0
0
0.347302
0.457473
0.589689
0.644376
0.740655
0.835099
0.855411
0.821515
0.676666
0.394562
0.196261
0.0857988
0.0339234
0.0119821
0.00260272
0.000325962
1.965e-05
2.36779e-07
0
0.125618
0.191275
0.190196
0.202122
0.288467
0.512153
0.758148
0.780143
0.672303
0.377719
0.136385
0.0434305
0.0116384
0.0034738
0.000584344
4.52239e-05
0
0
0
0.0108885
0.0214491
0.0308485
0.0403653
0.0690777
0.197695
0.524064
0.705292
0.68678
0.59675
0.406061
0.195237
0.0874725
0.0244696
0.00516961
0.000727185
5.59142e-05
1.33031e-06
0
0
0.00124582
0.00412785
0.00990281
0.0211802
0.0681445
0.251163
0.530479
0.608599
0.550299
0.352246
0.150675
0.0667694
0.0253838
0.00689341
0.00142523
0.000194929
1.16633e-05
3.89927e-08
0
0
0
0.00104529
0.00585846
0.0335573
0.153141
0.405933
0.527181
0.494778
0.345642
0.135889
0.0401053
0.0125539
0.00324581
0.000661296
8.02274e-05
3.9685e-06
0
0
0
0
0.000109531
0.00246356
0.0188402
0.0924221
0.281799
0.449977
0.453669
0.376281
0.206436
0.086622
0.0231472
0.00497084
0.000784089
7.95828e-05
3.30271e-06
0
2.51666e-06
0
0
5.3697e-05
0.00282425
0.0252112
0.129515
0.332707
0.421249
0.419886
0.367218
0.233135
0.0922828
0.0302673
0.00771814
0.00133873
0.000142058
6.83495e-06
0
0
0
0
0.000454728
0.00466294
0.0250289
0.1035
0.279355
0.351751
0.360235
0.324558
0.222982
0.116012
0.0454026
0.0142737
0.00303539
0.00039024
2.46246e-05
0
0
0
0
6.36025e-05
0.00254079
0.0247053
0.119956
0.251243
0.266986
0.238676
0.200096
0.148144
0.0937639
0.0479387
0.019165
0.00566719
0.00107429
9.98003e-05
1.6438e-06
0
0
0
0.000138716
0.00224885
0.0160621
0.071131
0.188233
0.196842
0.153078
0.101416
0.0657445
0.0481129
0.0339801
0.0155963
0.00518997
0.00111524
0.000118161
3.66694e-06
0
0
0
0.000328977
0.00329135
0.0178954
0.063618
0.133768
0.135343
0.0991924
0.0470653
0.029643
0.0216668
0.0165585
0.00904775
0.00345064
0.000843567
8.7993e-05
2.0191e-06
0
0
0
0
0.000811168
0.00935852
0.0514139
0.0886789
0.0928554
0.0722154
0.0323709
0.0131467
0.00972959
0.00721476
0.00424007
0.00168825
0.000400759
3.46005e-05
0
0
0
0
0
0.000168043
0.00384301
0.0347752
0.0667223
0.0700754
0.0558098
0.0228146
0.00646589
0.00394573
0.00273528
0.00169044
0.000670464
0.000135079
8.57278e-06
0
0
0
0
4.31103e-05
0.000354164
0.00251255
0.0185929
0.0499485
0.057784
0.0499088
0.0260046
0.00851742
0.00270308
0.00122755
0.00067068
0.000234781
3.94769e-05
1.60017e-06
0
0
0
0
0.000101818
0.000922927
0.00477501
0.0194463
0.0460688
0.0502955
0.0403808
0.0209118
0.00695535
0.00187371
0.000590176
0.000260967
7.68107e-05
1.01991e-05
1.39835e-07
0
0
0
0
0.000161401
0.00169183
0.00809821
0.0279854
0.0502236
0.0473456
0.0328701
0.0152681
0.00539955
0.00147006
0.000333728
0.000102927
2.37947e-05
2.39111e-06
0
0
0
1.53472e-06
6.78893e-06
0.00017097
0.00195686
0.0114999
0.036536
0.0489193
0.0400746
0.0228868
0.00865914
0.00328511
0.00103394
0.000216688
4.57604e-05
7.75813e-06
5.41153e-07
0
0
6.50909e-07
9.69138e-06
3.0737e-05
0.000261179
0.00240488
0.0136744
0.0399136
0.0447786
0.0314334
0.0140389
0.00440228
0.00185618
0.000649692
0.000155468
2.79111e-05
3.26701e-06
1.25632e-07
0
0
2.47576e-06
2.38475e-05
9.87631e-05
0.000519896
0.00325222
0.017111
0.0409238
0.0407837
0.0249021
0.00790482
0.00196869
0.000958622
0.000389699
0.000110279
1.94094e-05
1.93513e-06
4.56504e-08
0
0
4.65368e-06
4.59072e-05
0.000163478
0.000598223
0.0028102
0.014524
0.0375829
0.0367427
0.0229453
0.00725747
0.00152843
0.000522655
0.000205534
7.81896e-05
1.51014e-05
1.61306e-06
3.80343e-08
0
0
4.79064e-06
5.64638e-05
0.000208363
0.000743231
0.0030154
0.0142404
0.0335166
0.0319457
0.0192849
0.00601865
0.00107184
0.000272848
0.000108232
4.87414e-05
1.07202e-05
1.22925e-06
2.38316e-08
0
0
3.74816e-06
7.64837e-05
0.000433445
0.0017463
0.00635623
0.0187498
0.0331795
0.0299898
0.0175246
0.0050285
0.000914827
0.000104997
4.23122e-05
2.45953e-05
5.79174e-06
6.75366e-07
0
0
0
3.44404e-06
9.37845e-05
0.000696715
0.00320125
0.00981752
0.0229257
0.0305891
0.0273764
0.0163077
0.00437602
0.000871562
6.49046e-05
1.42313e-05
9.0597e-06
2.60278e-06
3.16413e-07
0
0
0
1.31749e-06
9.91469e-05
0.00086424
0.00470186
0.0160291
0.0289746
0.0300039
0.0243601
0.0137814
0.00458837
0.00081031
5.82695e-05
5.31613e-06
1.91992e-06
4.55913e-07
1.12055e-07
0
4.04478e-09
5.04541e-10
1.27775e-06
8.5204e-05
0.000745997
0.00479804
0.0162483
0.0296335
0.0294596
0.0211119
0.00988974
0.00345381
0.000590293
3.52774e-05
4.35604e-06
1.46198e-06
0
0
0
1.84706e-09
5.54103e-09
4.28522e-06
0.000104366
0.000371658
0.00265339
0.014624
0.0287477
0.0288483
0.0207107
0.00799842
0.00198858
0.000340601
3.68712e-05
8.89882e-06
3.58614e-06
1.37033e-07
0
0
0
1.42708e-08
2.14226e-05
0.000226972
0.000358341
0.00140371
0.0104518
0.0257529
0.0276728
0.0206553
0.00784775
0.00156314
0.000223132
5.43291e-05
3.15262e-05
2.04017e-05
1.03526e-05
8.68087e-07
0
0
0
2.57286e-05
0.000272585
0.000626973
0.00130184
0.0083962
0.0230655
0.026004
0.0200404
0.00797667
0.00152468
0.000219024
0.00011497
0.000113649
0.000106035
9.15054e-05
3.75273e-05
4.97715e-06
0
0
2.48187e-05
0.000230662
0.00069173
0.00125432
0.00560681
0.0192839
0.0236246
0.0188857
0.00832888
0.00165464
0.000252494
0.000255587
0.000344063
0.00040777
0.000461077
0.000282189
8.04901e-05
1.94092e-06
0
1.18235e-05
9.63504e-05
0.000556018
0.00118305
0.00324157
0.0144681
0.0207182
0.0171053
0.00857044
0.00197013
0.000346069
0.000521678
0.000820916
0.00111676
0.00144722
0.00116344
0.000485908
4.57977e-05
0
0
3.24741e-05
0.000483137
0.00121721
0.00234675
0.00953213
0.0174408
0.0151313
0.00844629
0.00240409
0.000507867
0.000848786
0.00141402
0.00210548
0.00278305
0.00249079
0.00136769
0.000206283
7.90321e-06
0
0
0.000367617
0.00138289
0.00249312
0.00657421
0.0142046
0.0133275
0.00781757
0.0026316
0.000700298
0.00109666
0.00185048
0.00299087
0.00359396
0.00317467
0.00194151
0.000490686
4.66356e-05
0
0
0.000161445
0.00150208
0.00291676
0.0053302
0.0115586
0.011906
0.00722326
0.00270682
0.000907057
0.00133266
0.00227842
0.00378561
0.00395945
0.00326482
0.0020156
0.000636876
8.4159e-05
0
0
7.87605e-05
0.00145039
0.00343179
0.00545854
0.0104082
0.011304
0.00751516
0.00279105
0.00114409
0.00163063
0.00289917
0.00444921
0.00395537
0.00298566
0.00179576
0.000584987
7.76098e-05
0
0
5.72885e-05
0.000553418
0.0017312
0.00425077
0.00921107
0.0108901
0.00731815
0.00277924
0.00146423
0.00222804
0.00424887
0.00456646
0.00358841
0.0021647
0.00121512
0.000433667
6.23218e-05
0
0
7.78958e-05
0.000415833
0.00124227
0.00352891
0.0089254
0.0108078
0.00648748
0.00296972
0.00260583
0.00373738
0.00462149
0.00358623
0.0019593
0.000905621
0.000498879
0.00019338
3.05522e-05
)
;

boundaryField
{
    leftWall
    {
        type            zeroGradient;
    }
    rightWall
    {
        type            zeroGradient;
    }
    lowerWall
    {
        type            zeroGradient;
    }
    atmosphere
    {
        type            inletOutlet;
        inletValue      uniform 0;
        value           nonuniform List<scalar> 
46
(
8.04912e-15
2.83107e-15
2.60902e-15
3.77476e-15
4.996e-16
6.93889e-15
6.66134e-15
8.21565e-15
6.66134e-16
0
4.10783e-15
7.21645e-16
4.66294e-15
1.88738e-15
0
4.25771e-14
9.02889e-13
0
0
0
0
2.36207e-08
1.77468e-07
0
0
0
0
0
0
7.78958e-05
0.000415833
0.00124227
0.00352891
0.0089254
0.0108078
0.00648748
0.00296972
0.00260583
0.00373738
0.00462149
0.00358623
0.0019593
0.000905621
0.000498879
0.00019338
3.05522e-05
)
;
    }
    defaultFaces
    {
        type            empty;
    }
}


// ************************************************************************* //
