/*--------------------------------*- C++ -*----------------------------------*\
| =========                 |                                                 |
| \\      /  F ield         | foam-extend: Open Source CFD                    |
|  \\    /   O peration     | Version:     4.1                                |
|   \\  /    A nd           | Web:         http://www.foam-extend.org         |
|    \\/     M anipulation  |                                                 |
\*---------------------------------------------------------------------------*/
FoamFile
{
    version     2.0;
    format      ascii;
    class       volScalarField;
    location    "0.25";
    object      C;
}
// * * * * * * * * * * * * * * * * * * * * * * * * * * * * * * * * * * * * * //

dimensions      [0 0 0 0 0 0 0];

internalField   nonuniform List<scalar> 
2268
(
1
1
1
1
1
1
0.999999
0.999999
0.999999
0.999997
0.999991
0.999983
0.999971
0.999954
0.999935
0.999925
0.999928
0.999964
1.00013
1.00078
1.00266
1.00078
0.985342
1
1
1
1
1
1
1
1
1
1
0.999997
0.999995
0.999983
0.999963
0.999941
0.999934
0.99994
0.999995
1.0002
1.00086
1.00263
1.00084
0.985302
1
1
1
1
1
1
1.00001
1.00001
1.00001
1.00001
1.00001
1.00004
1.00002
0.999997
0.999977
0.999979
0.999994
1.00007
1.00028
1.00095
1.00267
1.00092
0.985187
1
1
1
1.00001
1.00001
1.00001
1.00002
1.00002
1.00002
1.00002
1.00005
1.0001
1.0001
1.00008
1.00008
1.00011
1.00016
1.00027
1.0005
1.00117
1.00281
1.001
0.985055
1.00001
1.00001
1.00001
1.00001
1.00002
1.00002
1.00003
1.00003
1.00001
0.999998
1.00009
1.0001
1.00015
1.00019
1.00027
1.00037
1.00049
1.00066
1.00093
1.00159
1.00307
1.00115
0.984911
1.00002
1.00002
1.00002
1.00002
1.00002
1.00003
1.00003
0.999985
0.999899
0.999876
0.999985
0.999568
0.999877
1.00011
1.00037
1.00062
1.0009
1.00123
1.00156
1.00217
1.00347
1.00136
0.984827
1.00001
0.999999
1
0.999999
0.999986
0.999976
0.999927
0.99976
0.999553
0.999465
0.999344
0.997345
0.998477
0.999124
0.999637
1.00014
1.00083
1.00163
1.00218
1.00274
1.00383
1.00155
0.985069
0.999928
0.999899
0.999891
0.999864
0.999809
0.999721
0.999537
0.999137
0.998696
0.998396
0.997333
0.991021
0.994364
0.995484
0.996054
0.997012
0.998702
1.00081
1.00207
1.003
1.00419
1.00215
0.986618
-0.998018
-0.998416
-0.999296
-0.999993
-1.00006
-1.00001
-1
-1
-1
-1
-1
-1
-1
-1
-1
-1
-1
-1
-1
-0.999192
-0.999197
-0.998963
-0.999775
-1.00003
-1.00002
-1
-1
-1
-1
-1
-1
-1
-1
-1
-1
-1
-1
-1
-1.004
-1.00325
-0.999211
-0.999406
-0.999934
-1.00001
-1
-1
-1
-1
-1
-1
-1
-1
-1
-1
-1
-1
-1
-1.01464
-1.01316
-1.00177
-0.999131
-0.999746
-0.999975
-0.999997
-1
-1
-1
-1
-1
-1
-1
-1
-1
-1
-1
-1
-1.02899
-1.02743
-1.00799
-0.999503
-0.999508
-0.999925
-0.999978
-0.999994
-1
-1
-1
-1
-1
-1
-1
-1
-1
-1
-1
-1.03662
-1.03728
-1.0168
-1.00116
-0.999446
-0.999953
-0.999983
-0.999983
-0.999996
-1
-1
-1
-1
-1
-1
-1
-1
-1
-1
-1.01652
-1.03522
-1.02595
-1.00501
-1.00005
-1.00014
-1.00011
-0.999988
-0.999991
-0.999998
-1
-1
-1
-1
-1
-1
-1
-1
-1
-0.914014
-0.997814
-1.02987
-1.01191
-1.00212
-1.00003
-1.00045
-1.00007
-1
-0.999994
-0.999999
-1
-1
-1
-1
-1
-1
-1
-1
0.999505
0.999403
0.999364
0.9992
0.999019
0.998606
0.99802
0.996987
0.995935
0.994848
0.989972
0.96908
0.980118
0.980888
0.979967
0.982341
0.987421
0.994098
0.998454
1.00159
1.00393
1.0028
0.991964
0.996762
0.996349
0.996179
0.995216
0.9947
0.993063
0.991024
0.987985
0.985213
0.980859
0.958706
0.878476
0.92029
0.910021
0.890848
0.899997
0.915504
0.941636
0.963457
0.985286
0.995449
0.999296
0.993295
0.983835
0.982623
0.982076
0.979234
0.977541
0.972715
0.96713
0.960364
0.954163
0.936815
0.856966
0.612631
0.724064
0.654391
0.554716
0.563622
0.600994
0.682793
0.771226
0.872803
0.923928
0.959798
0.97737
0.93896
0.936208
0.935039
0.928793
0.924413
0.913435
0.903543
0.893254
0.878748
0.812815
0.581039
0.0404579
0.175007
0.0113682
-0.196482
-0.217042
-0.176763
-0.0587124
0.125674
0.390135
0.6003
0.740064
0.847007
0.809794
0.804691
0.802759
0.790591
0.782587
0.764987
0.758904
0.750302
0.708209
0.492716
-0.025479
-0.553272
-0.533109
-0.618485
-0.726305
-0.749767
-0.728709
-0.685329
-0.594489
-0.394531
-0.0669619
0.329201
0.522896
0.471994
0.463981
0.461918
0.444045
0.434358
0.423992
0.454156
0.46399
0.341778
-0.116992
-0.641872
-0.85531
-0.836967
-0.867364
-0.903923
-0.920787
-0.922062
-0.910475
-0.867168
-0.74933
-0.444625
-0.385994
-0.305971
-0.205778
-0.212749
-0.212028
-0.222511
-0.221855
-0.196967
-0.101426
-0.0387609
-0.226439
-0.64262
-0.891877
-0.949358
-0.931529
-0.942667
-0.957681
-0.976583
-0.985213
-0.984885
-0.976636
-0.964956
-0.880116
-0.892568
-0.877351
-0.722177
-0.724111
-0.722779
-0.722577
-0.71611
-0.685568
-0.603704
-0.530444
-0.654298
-0.872608
-0.966186
-0.97754
-0.968205
-0.972017
-0.981343
-0.994745
-1.00023
-0.999889
-0.998145
-0.999917
-0.989385
-0.991366
-0.991195
-0.913225
-0.91362
-0.913237
-0.912856
-0.910499
-0.895522
-0.857768
-0.814225
-0.864267
-0.954229
-0.98768
-0.988862
-0.985931
-0.987646
-0.993773
-1.00025
-1.0019
-1.00143
-1.00056
-1.00122
-1.00074
-1.0008
-1.00097
-0.974635
-0.974625
-0.974741
-0.975268
-0.975953
-0.973125
-0.96326
-0.945234
-0.955374
-0.983045
-0.995262
-0.995428
-0.994938
-0.996928
-1.00003
-1.00181
-1.00167
-1.00128
-1.00074
-1.00045
-1.00038
-1.00041
-1.00048
-0.994367
-0.994183
-0.994355
-0.994799
-0.995682
-0.996378
-0.995838
-0.991747
-0.990473
-0.995097
-0.998841
-0.999058
-0.998772
-1.00002
-1.00123
-1.00156
-1.00131
-1.00098
-1.00061
-1.0003
-1.00014
-1.00008
-1.00005
-0.999879
-0.999767
-0.999854
-1.00001
-1.00033
-1.00069
-1.00112
-1.00086
-1.00011
-1.00012
-1.00045
-1.0005
-1.0002
-1.00064
-1.00109
-1.00114
-1.001
-1.00071
-1.00043
-1.00021
-1.00009
-1.00004
-1.00001
-1.00078
-1.00084
-1.00086
-1.0009
-1.00095
-1.00093
-1.00106
-1.00152
-1.00148
-1.00132
-1.00108
-1.00095
-1.00073
-1.00085
-1.001
-1.0008
-1.00065
-1.00051
-1.00035
-1.00016
-1.00006
-1.00002
-1.00001
-1.00057
-1.00074
-1.00075
-1.00074
-1.00066
-1.00033
-1.00035
-1.00052
-1.00073
-1.00095
-1.00104
-1.001
-1.00085
-1.00085
-1.00077
-1.00048
-1.00031
-1.00021
-1.00014
-1.00006
-1.00003
-1.00001
-1.00001
-1.00013
-1.00018
-1.00016
-1.00017
-1.00016
-1.00008
-1.00008
-1.0001
-1.00015
-1.00027
-1.00042
-1.00055
-1.0006
-1.00056
-1.00045
-1.00025
-1.0001
-1.00007
-1.00004
-1.00001
-1
-1
-1
-1.00001
-1.00001
-1.00001
-1.00001
-1.00001
-1
-0.999999
-1
-1.00001
-1.00005
-1.00011
-1.00019
-1.00022
-1.0002
-1.00014
-1.00009
-1.00003
-1.00002
-1.00001
-1
-1
-1
-1
-0.999993
-0.999994
-0.999994
-0.999992
-0.999991
-0.99999
-0.999988
-0.999988
-0.99999
-1
-1.00002
-1.00004
-1.00005
-1.00005
-1.00002
-1.00001
-1.00001
-1
-1
-1
-1
-1
-1
-0.999996
-0.999997
-0.999997
-0.999993
-0.999993
-0.999992
-0.99999
-0.99999
-0.99999
-0.999994
-0.999999
-1
-1.00001
-1.00001
-1
-1
-1
-1
-1
-1
-1
-1
-1
-0.999999
-1
-1
-0.999998
-0.999999
-0.999998
-0.999996
-0.999997
-0.999996
-0.999996
-0.999997
-0.999999
-1
-1
-1
-1
-1
-1
-1
-1
-1
-1
-1
-1
-1
-1
-1
-1
-1
-0.999999
-0.999999
-0.999999
-0.999999
-0.999999
-0.999999
-0.999999
-1
-1
-1
-1
-1
-1
-1
-1
-1
-1
-1
-1
-1
-1
-1
-1
-1
-1
-1
-1
-1
-1
-1
-1
-1
-1
-1
-1
-1
-1
-1
-1
-1
-1
-1
-1
-1
-1
-1
-1
-1
-1
-1
-1
-1
-1
-1
-1
-1
-1
-1
-1
-1
-1
-1
-1
-1
-1
-1
-1
-1
-1
-1
-1
-1
-1
-1
-1
-1
-1
-1
-1
-1
-1
-1
-1
-1
-1
-1
-1
-1
-1
-1
-1
-1
-1
-1
-1
-1
-1
-1
-1
-1
-1
-1
-1
-1
-1
-1
-1
-1
-1
-1
-1
-1
-1
-1
-1
-1
-1
-1
-1
-1
-1
-1
-1
-1
-1
-1
-1
-1
-1
-1
-1
-1
-1
-1
-1
-1
-1
-1
-1
-1
-1
-1
-1
-1
-1
-1
-1
-1
-1
-1
-1
-1
-1
-1
-1
-1
-1
-1
-1
-1
-1
-1
-1
-1
-1
-1
-1
-1
-1
-1
-1
-1
-1
-1
-1
-1
-1
-1
-1
-1
-1
-1
-1
-1
-1
-1
-1
-1
-1
-1
-1
-1
-1
-1
-1
-1
-1
-1
-1
-1
-1
-1
-1
-1
-1
-1
-1
-1
-1
-1
-1
-1
-1
-1
-1
-1
-1
-1
-1
-1
-1
-1
-1
-1
-1
-1
-1
-1
-1
-1
-1
-1
-1
-1
-1
-1
-1
-1
-1
-1
-1
-1
-1
-1
-1
-1
-1
-1
-1
-1
-1
-1
-1
-1
-1
-1
-1
-1
-1
-1
-1
-1
-1
-1
-1
-1
-1
-1
-1
-1
-1
-1
-1
-1
-1
-1
-1
-1
-1
-1
-1
-1
-1
-1
-1
-1
-1
-1
-1
-1
-1
-1
-1
-1
-1
-1
-1
-1
-1
-1
-1
-1
-1
-1
-1
-1
-1
-1
-1
-1
-1
-1
-1
-1
-1
-1
-1
-1
-1
-1
-1
-1
-1
-1
-1
-1
-1
-1
-1
-1
-1
-1
-1
-1
-1
-1
-1
-1
-1
-1
-1
-1
-1
-1
-1
-1
-1
-1
-1
-1
-1
-1
-1
-1
-1
-1
-1
-1
-1
-1
-1
-1
-1
-1
-1
-1
-1
-1
-1
-1
-1
-1
-1
-1
-1
-1
-1
-1
-1
-1
-1
-1
-1
-1
-1
-1
-1
-1
-1
-1
-1
-1
-1
-1
-1
-1
-1
-1
-1
-1
-1
-1
-1
-1
-1
-1
-1
-1
-1
-1
-1
-1
-1
-1
-1
-1
-1
-1
-1
-1
-1
-1
-1
-1
-1
-1
-1
-1
-1
-1
-1
-1
-1
-1
-1
-1
-1
-1
-1
-1
-1
-1
-1
-1
-1
-1
-1
-1
-1
-1
-1
-1
-1
-1
-1
-1
-1
-1
-1
-1
-1
-1
-1
-1
-1
-1
-1
-1
-1
-1
-1
-1
-1
-1
-1
-1
-1
-1
-1
-1
-1
-1
-1
-1
-1
-1
-1
-1
-1
-1
-1
-1
-1
-1
-1
-1
-1
-1
-1
-1
-1
-1
-1
-1
-1
-1
-1
-1
-1
-1
-1
-1
-1
-1
-1
-1
-1
-1
-1
-1
-1
-1
-1
0.999742
1.0114
0.973729
0.726197
0.997023
1.00389
1.00091
0.969296
0.984432
0.988455
0.990831
0.989443
0.89241
0.909094
0.924426
0.938331
0.62035
0.672447
0.719053
0.749487
-0.197985
-0.0945068
0.0207677
0.128308
-0.840128
-0.794929
-0.738048
-0.6579
-0.985845
-0.975691
-0.953702
-0.910131
-1.00079
-0.999782
-0.996819
-0.990953
-1.00065
-1.00077
-1.00072
-1.00049
-1.00006
-1.00007
-1.0001
-1.00016
-0.999999
-0.999991
-0.999988
-0.99999
-1.00001
-1
-0.999997
-0.999993
-1
-1
-1
-0.999999
-1
-1
-1
-0.999999
-1
-1
-0.999999
-0.999999
-1
-1
-1
-0.999999
-1
-1
-1
-1
-1
-1
-1
-1
-1
-1
-1
-1
-1
-1
-1
-1
-1
-1
-1
-1
-1
-1
-1
-1
-1
-1
-1
-1
-1
-1
-1
-1
-1
-1
-1.00001
-1.00001
-1
-1
-1.00001
-1.00001
-1
-1
-1.00001
-1.00001
-1
-1
-1.00001
-1.00001
-1
-1
-1
-1.00001
-1
-1
-1.00001
-1.00001
-1
-1
-1.00001
-1.00001
-1
-1
-1.00001
-1.00001
-1
-1.00001
-1.00001
-1.00001
-1
-1.00001
-1.00001
-1.00001
-1
-1
-1.00001
-1
-1
-1
-1
-1.00001
-1
-1
-1
-1.00001
-1
-1
-1
-1.00001
-1
-1
-1
-1.00001
-1
-1
-1.00001
-1.00002
-1
-1
-1.00001
-1.00002
-0.330699
-0.774935
-0.983947
-1.02572
-1.00835
-0.996101
-1.00072
-1.00037
-1.00009
-0.999995
-0.999994
-0.999999
-1
-1
-1
-1
-1
-1
-1
0.871487
0.462996
-0.493011
-0.973975
-0.994718
-0.950212
-0.990239
-1.00007
-1.00036
-1.00011
-1
-0.999993
-0.999999
-1
-1
-1
-1
-1
-1
0.984792
0.940277
0.703863
-0.0727726
-0.585857
-0.691976
-0.889537
-0.981845
-0.995938
-1.00086
-1.0004
-1.00006
-1.00001
-1
-1
-1
-1
-1
-1
0.949261
0.951454
0.937196
0.742194
0.108844
-0.234492
-0.791637
-0.978809
-0.961074
-1.00489
-1.00307
-1.00083
-1.00017
-1.00003
-1.00001
-1
-1
-1
-1
0.806337
0.882145
0.912378
0.895708
0.751672
0.63644
0.264294
-0.341503
-0.680471
-0.951159
-0.993113
-0.998212
-0.999418
-0.999658
-1
-1.00001
-1
-1
-1
0.426579
0.555823
0.757565
0.82948
0.819159
0.806574
0.7559
0.62774
0.344818
-0.236856
-0.688391
-0.894307
-0.970288
-0.992472
-0.998825
-0.999907
-1
-1
-1
-0.305397
-0.0850532
0.179378
0.288751
0.481311
0.670197
0.710822
0.64303
0.353332
-0.210877
-0.607478
-0.828402
-0.932153
-0.976036
-0.994795
-0.999348
-0.999961
-1
-1
-0.748764
-0.617451
-0.619609
-0.595755
-0.423065
0.0243069
0.516295
0.560286
0.344606
-0.244562
-0.727229
-0.913139
-0.976723
-0.993052
-0.998831
-0.99991
-1
-1
-1
-0.978223
-0.957102
-0.938303
-0.919269
-0.861845
-0.60461
0.0481284
0.410584
0.373561
0.193501
-0.187879
-0.609526
-0.825055
-0.951061
-0.989661
-0.998546
-0.999888
-0.999997
-1
-1.00008
-0.997508
-0.991744
-0.980194
-0.95764
-0.863711
-0.497674
0.0609576
0.217198
0.100599
-0.295508
-0.69865
-0.866461
-0.949232
-0.986213
-0.99715
-0.99961
-0.999977
-1
-1.00043
-1.00042
-1.00001
-0.997909
-0.988283
-0.932885
-0.693719
-0.188135
0.0543627
-0.0104436
-0.308716
-0.728221
-0.919789
-0.974892
-0.993508
-0.998677
-0.99984
-0.999992
-1
-1.00002
-1.00012
-1.00017
-0.999781
-0.995073
-0.96232
-0.815156
-0.436403
-0.100046
-0.0926612
-0.247439
-0.587129
-0.826756
-0.953706
-0.990058
-0.998432
-0.999841
-0.999993
-1
-0.999995
-1.00005
-1.00013
-0.999893
-0.994352
-0.949578
-0.740969
-0.334587
-0.157503
-0.160228
-0.265565
-0.53373
-0.815434
-0.939465
-0.984564
-0.997323
-0.999716
-0.999986
-1
-1
-1.00006
-1.00008
-0.999091
-0.990674
-0.949942
-0.793001
-0.441289
-0.296498
-0.279529
-0.350884
-0.554037
-0.767976
-0.909195
-0.971453
-0.993929
-0.99922
-0.999951
-1
-1
-1.00003
-1.00012
-0.999873
-0.994918
-0.950589
-0.760089
-0.497514
-0.466027
-0.522648
-0.599809
-0.703711
-0.812472
-0.904123
-0.96167
-0.988666
-0.997851
-0.9998
-0.999997
-1
-1.00003
-1.00004
-0.999723
-0.995502
-0.967876
-0.857738
-0.623533
-0.606316
-0.693844
-0.797168
-0.868511
-0.903774
-0.93204
-0.968807
-0.98962
-0.99777
-0.999764
-0.999993
-1
-1.00002
-1.00002
-0.999342
-0.993417
-0.964209
-0.872764
-0.732465
-0.729315
-0.801615
-0.905869
-0.940714
-0.956666
-0.966883
-0.981905
-0.993099
-0.998313
-0.999824
-0.999996
-1
-1.00001
-1.00006
-1.00003
-0.998378
-0.981283
-0.897172
-0.822642
-0.814289
-0.855569
-0.935258
-0.973707
-0.980541
-0.98557
-0.99152
-0.996624
-0.999198
-0.999931
-1
-1
-1.00001
-1.00002
-1.00004
-0.999664
-0.992314
-0.93045
-0.866555
-0.859849
-0.88838
-0.954371
-0.987068
-0.992109
-0.994529
-0.996619
-0.998659
-0.99973
-0.999983
-1
-1
-1.00002
-1.00001
-0.999914
-0.999292
-0.994975
-0.962814
-0.900103
-0.884432
-0.900182
-0.947991
-0.982965
-0.994594
-0.997545
-0.998659
-0.99953
-0.999921
-0.999997
-1
-1
-1.00001
-1.00001
-0.999796
-0.998154
-0.99045
-0.961107
-0.907862
-0.899409
-0.919238
-0.958176
-0.986089
-0.996253
-0.99882
-0.999478
-0.999846
-0.99998
-1
-1
-1
-1.00001
-1
-0.999677
-0.996616
-0.983804
-0.944029
-0.899553
-0.905309
-0.93426
-0.969464
-0.989201
-0.99706
-0.999333
-0.999794
-0.999952
-0.999995
-1
-1
-1
-0.999997
-0.999986
-0.999658
-0.996086
-0.977
-0.926928
-0.902161
-0.919851
-0.954226
-0.982682
-0.99343
-0.997932
-0.999567
-0.999908
-0.999984
-0.999999
-1
-1
-0.999999
-0.999981
-0.999939
-0.999478
-0.99519
-0.972651
-0.920173
-0.910443
-0.937133
-0.971922
-0.991195
-0.996288
-0.998701
-0.999689
-0.999944
-0.999993
-1
-1
-1
-0.999995
-0.999952
-0.999802
-0.99896
-0.993496
-0.965778
-0.918152
-0.918433
-0.950196
-0.98419
-0.996063
-0.998083
-0.999221
-0.999779
-0.999961
-0.999996
-1
-1
-1
-0.999991
-0.999908
-0.999673
-0.998804
-0.99438
-0.970952
-0.924834
-0.926515
-0.954109
-0.985485
-0.996943
-0.998955
-0.999589
-0.999844
-0.99997
-0.999997
-1
-1
-1
-0.99999
-0.999887
-0.999583
-0.998514
-0.993969
-0.971519
-0.932967
-0.936109
-0.96143
-0.987963
-0.997856
-0.999454
-0.999784
-0.999903
-0.999979
-0.999998
-1
-1
-1
-0.999993
-0.999847
-0.999133
-0.996507
-0.987288
-0.9625
-0.933641
-0.94002
-0.964951
-0.989943
-0.99817
-0.99979
-0.999915
-0.999951
-0.999988
-0.999999
-1
-1
-1
-0.999993
-0.999812
-0.998607
-0.993597
-0.980365
-0.954149
-0.938822
-0.945247
-0.967385
-0.991248
-0.998257
-0.99987
-0.999972
-0.999982
-0.999995
-0.999999
-1
-1
-1
-0.999997
-0.999802
-0.998272
-0.990596
-0.967942
-0.942051
-0.939992
-0.95128
-0.972437
-0.990823
-0.998379
-0.999883
-0.999989
-0.999996
-0.999999
-1
-1
-1
-1
-0.999997
-0.99983
-0.998508
-0.990404
-0.967503
-0.940733
-0.941081
-0.957776
-0.980221
-0.993092
-0.998819
-0.999929
-0.999991
-0.999997
-1
-1
-1
-1
-1
-0.999991
-0.999791
-0.999257
-0.994693
-0.970752
-0.942505
-0.942303
-0.958579
-0.984003
-0.996023
-0.999319
-0.999926
-0.999982
-0.999993
-1
-1
-1
-1
-1
-0.999957
-0.999546
-0.999283
-0.997193
-0.979096
-0.948494
-0.944654
-0.958689
-0.984305
-0.996874
-0.999554
-0.999891
-0.999937
-0.999959
-0.999979
-0.999998
-1
-1
-1
-0.999949
-0.999455
-0.998746
-0.997396
-0.983208
-0.953869
-0.947992
-0.959919
-0.984047
-0.996951
-0.999562
-0.99977
-0.999773
-0.999788
-0.999817
-0.999925
-0.99999
-1
-1
-0.99995
-0.999539
-0.998617
-0.997491
-0.988786
-0.961432
-0.952751
-0.962229
-0.983342
-0.996691
-0.999495
-0.999489
-0.999312
-0.999184
-0.999078
-0.999436
-0.999839
-0.999996
-1
-0.999976
-0.999807
-0.998888
-0.997634
-0.993517
-0.971064
-0.958564
-0.965789
-0.982859
-0.99606
-0.999308
-0.998957
-0.998358
-0.997766
-0.997106
-0.997673
-0.999028
-0.999908
-1
-1.00001
-0.999935
-0.999034
-0.997566
-0.995306
-0.980936
-0.965118
-0.969737
-0.983107
-0.995192
-0.998984
-0.998302
-0.997172
-0.995789
-0.994434
-0.995018
-0.997265
-0.999587
-0.999984
-1.00004
-1.00002
-0.999265
-0.997234
-0.995014
-0.986852
-0.971591
-0.973345
-0.984365
-0.994737
-0.998599
-0.997807
-0.996299
-0.994018
-0.992812
-0.993651
-0.996117
-0.999019
-0.999907
-1.00005
-1.00008
-0.999677
-0.996996
-0.994166
-0.98934
-0.976883
-0.976188
-0.985553
-0.994586
-0.998186
-0.997335
-0.995443
-0.992429
-0.992081
-0.99347
-0.995969
-0.998726
-0.999832
-1.00004
-1.0001
-0.999842
-0.997099
-0.993136
-0.989083
-0.979184
-0.977392
-0.98497
-0.994418
-0.997712
-0.996739
-0.994202
-0.991102
-0.992089
-0.994029
-0.996408
-0.99883
-0.999845
-1.00004
-1.00009
-0.999885
-0.998893
-0.996538
-0.991498
-0.981578
-0.97822
-0.985364
-0.994442
-0.997072
-0.995544
-0.991502
-0.990867
-0.992823
-0.995671
-0.99757
-0.999133
-0.999875
-1.00004
-1.00009
-0.999844
-0.999168
-0.997515
-0.992942
-0.982149
-0.978384
-0.987025
-0.994061
-0.994788
-0.992525
-0.990757
-0.992828
-0.996081
-0.998189
-0.999002
-0.999613
-0.999939
)
;

boundaryField
{
    leftWall
    {
        type            zeroGradient;
    }
    rightWall
    {
        type            zeroGradient;
    }
    lowerWall
    {
        type            zeroGradient;
    }
    atmosphere
    {
        type            zeroGradient;
    }
    defaultFaces
    {
        type            empty;
    }
}


// ************************************************************************* //
