/*--------------------------------*- C++ -*----------------------------------*\
| =========                 |                                                 |
| \\      /  F ield         | foam-extend: Open Source CFD                    |
|  \\    /   O peration     | Version:     4.1                                |
|   \\  /    A nd           | Web:         http://www.foam-extend.org         |
|    \\/     M anipulation  |                                                 |
\*---------------------------------------------------------------------------*/
FoamFile
{
    version     2.0;
    format      ascii;
    class       volScalarField;
    location    "0.25";
    object      C_0;
}
// * * * * * * * * * * * * * * * * * * * * * * * * * * * * * * * * * * * * * //

dimensions      [0 0 0 0 0 0 0];

internalField   nonuniform List<scalar> 
2268
(
1
1
1
1
1
1
0.999999
0.999999
0.999999
0.999997
0.999991
0.999983
0.999971
0.999954
0.999935
0.999925
0.999928
0.999966
1.00014
1.0008
1.00268
1.0008
0.98511
1
1
1
1
1
1
1
1
1
1
0.999996
0.999994
0.999982
0.999962
0.999941
0.999934
0.99994
0.999997
1.0002
1.00088
1.00267
1.00085
0.985066
1
1
1
1
1
1
1.00001
1.00001
1.00001
1.00001
1.00001
1.00003
1.00002
0.999995
0.999975
0.999978
0.999994
1.00007
1.00029
1.00097
1.00271
1.00092
0.984947
1
1
1
1
1.00001
1.00001
1.00002
1.00002
1.00002
1.00002
1.00005
1.0001
1.00009
1.00008
1.00008
1.00011
1.00016
1.00027
1.00051
1.00119
1.00284
1.00101
0.984809
1.00001
1.00001
1.00001
1.00001
1.00002
1.00002
1.00003
1.00003
1.00001
0.999998
1.00009
1.0001
1.00015
1.00018
1.00026
1.00037
1.00049
1.00066
1.00094
1.0016
1.00311
1.00116
0.984658
1.00002
1.00001
1.00002
1.00002
1.00002
1.00003
1.00003
0.999987
0.999902
0.999878
0.999987
0.999588
0.999889
1.00012
1.00037
1.00062
1.0009
1.00123
1.00157
1.00219
1.00351
1.00137
0.984564
1.00001
1
1
1
0.999987
0.999977
0.99993
0.999768
0.999564
0.999474
0.999361
0.997413
0.998534
0.999164
0.999668
1.00017
1.00085
1.00164
1.00219
1.00276
1.00385
1.00155
0.984808
0.999931
0.999903
0.999896
0.999869
0.999816
0.99973
0.999551
0.999159
0.998722
0.998422
0.997381
0.991185
0.994526
0.995625
0.996185
0.997135
0.998804
1.00087
1.00211
1.00302
1.00421
1.00215
0.986371
-0.998035
-0.99844
-0.999332
-1
-1.00006
-1.00001
-1
-1
-1
-1
-1
-1
-1
-1
-1
-1
-1
-1
-1
-0.999146
-0.99914
-0.998978
-0.99979
-1.00003
-1.00002
-1
-1
-1
-1
-1
-1
-1
-1
-1
-1
-1
-1
-1
-1.0038
-1.00299
-0.999144
-0.999422
-0.99994
-1.00001
-1
-1
-1
-1
-1
-1
-1
-1
-1
-1
-1
-1
-1
-1.01428
-1.0127
-1.00156
-0.999129
-0.999755
-0.999977
-0.999998
-1
-1
-1
-1
-1
-1
-1
-1
-1
-1
-1
-1
-1.02875
-1.02708
-1.00767
-0.999465
-0.999517
-0.999925
-0.999979
-0.999995
-1
-1
-1
-1
-1
-1
-1
-1
-1
-1
-1
-1.03684
-1.03727
-1.01658
-1.00109
-0.999448
-0.999947
-0.99998
-0.999984
-0.999996
-1
-1
-1
-1
-1
-1
-1
-1
-1
-1
-1.0172
-1.03562
-1.02582
-1.00488
-1.00003
-1.00013
-1.0001
-0.999987
-0.999991
-0.999998
-1
-1
-1
-1
-1
-1
-1
-1
-1
-0.916999
-0.999085
-1.03003
-1.01168
-1.00206
-1.00008
-1.00042
-1.00006
-0.999999
-0.999995
-0.999999
-1
-1
-1
-1
-1
-1
-1
-1
0.999522
0.999423
0.999385
0.999225
0.999048
0.998644
0.998069
0.997051
0.996004
0.99492
0.990106
0.969478
0.980571
0.981359
0.980465
0.982817
0.987801
0.994338
0.998584
1.00165
1.00395
1.00279
0.991842
0.996856
0.996453
0.996286
0.995344
0.994834
0.993227
0.991212
0.988198
0.985428
0.981085
0.95904
0.879353
0.921669
0.911638
0.89302
0.902063
0.917182
0.942745
0.964103
0.98555
0.99554
0.999288
0.993163
0.984239
0.983051
0.982508
0.979718
0.978037
0.973275
0.967722
0.960966
0.954762
0.937429
0.857454
0.613612
0.727879
0.658811
0.561671
0.570789
0.607191
0.687284
0.774092
0.874326
0.924829
0.960225
0.977416
0.940312
0.937606
0.936433
0.930277
0.925909
0.915036
0.905093
0.894728
0.880262
0.814329
0.581295
0.0398595
0.185876
0.017599
-0.187833
-0.206728
-0.166646
-0.0488343
0.134436
0.397056
0.604959
0.743105
0.848521
0.81371
0.808679
0.80671
0.794681
0.786655
0.769098
0.762569
0.753716
0.711901
0.496082
-0.0252612
-0.554019
-0.526439
-0.614141
-0.722749
-0.745604
-0.724715
-0.681007
-0.589174
-0.3873
-0.0587464
0.335775
0.527416
0.482452
0.474508
0.472335
0.454503
0.444582
0.433711
0.462513
0.471568
0.349951
-0.112563
-0.641262
-0.854857
-0.834482
-0.865906
-0.902991
-0.919878
-0.92127
-0.908978
-0.864678
-0.745122
-0.439463
-0.379658
-0.298739
-0.190909
-0.198006
-0.197418
-0.208322
-0.208201
-0.183688
-0.0884988
-0.0260065
-0.216561
-0.639831
-0.89141
-0.948796
-0.930552
-0.942048
-0.957546
-0.976619
-0.985212
-0.984572
-0.976088
-0.964284
-0.878825
-0.89119
-0.875666
-0.715312
-0.717325
-0.716008
-0.715947
-0.709576
-0.678799
-0.59561
-0.520936
-0.648219
-0.87137
-0.965892
-0.977106
-0.967754
-0.971732
-0.981429
-0.994908
-1.00027
-0.999841
-0.998044
-0.999855
-0.989232
-0.991151
-0.990913
-0.910995
-0.911422
-0.911025
-0.91065
-0.908269
-0.892997
-0.854232
-0.809449
-0.861321
-0.953588
-0.987472
-0.988608
-0.985696
-0.987519
-0.993875
-1.00033
-1.00191
-1.00141
-1.00054
-1.00121
-1.00072
-1.00078
-1.00092
-0.973926
-0.973931
-0.974043
-0.974571
-0.975262
-0.972336
-0.962139
-0.943499
-0.954133
-0.982638
-0.995122
-0.995288
-0.994828
-0.996904
-1.00008
-1.00183
-1.00167
-1.00127
-1.00072
-1.00044
-1.00038
-1.00041
-1.00048
-0.994163
-0.993982
-0.994155
-0.994604
-0.995507
-0.99621
-0.995642
-0.9914
-0.990122
-0.994904
-0.998767
-0.998995
-0.998726
-1.00001
-1.00124
-1.00156
-1.00131
-1.00097
-1.00059
-1.00029
-1.00014
-1.00008
-1.00005
-0.999841
-0.999727
-0.999815
-0.999971
-1.00031
-1.00067
-1.00112
-1.00084
-1.00006
-1.00007
-1.00042
-1.00048
-1.00018
-1.00064
-1.0011
-1.00114
-1.00101
-1.00071
-1.00042
-1.00021
-1.00009
-1.00004
-1.00001
-1.00079
-1.00084
-1.00086
-1.0009
-1.00095
-1.00094
-1.00108
-1.00154
-1.00149
-1.00132
-1.00108
-1.00095
-1.00072
-1.00085
-1.001
-1.0008
-1.00066
-1.00051
-1.00035
-1.00015
-1.00006
-1.00002
-1.00001
-1.00059
-1.00076
-1.00076
-1.00076
-1.00068
-1.00034
-1.00036
-1.00053
-1.00075
-1.00098
-1.00106
-1.00101
-1.00085
-1.00086
-1.00077
-1.00048
-1.00031
-1.00021
-1.00014
-1.00006
-1.00003
-1.00001
-1.00001
-1.00014
-1.00018
-1.00017
-1.00018
-1.00016
-1.00008
-1.00008
-1.0001
-1.00016
-1.00028
-1.00043
-1.00056
-1.00061
-1.00057
-1.00046
-1.00026
-1.0001
-1.00008
-1.00004
-1.00001
-1
-1
-1
-1.00001
-1.00001
-1.00001
-1.00001
-1.00001
-1
-0.999999
-1
-1.00001
-1.00005
-1.00012
-1.0002
-1.00022
-1.00021
-1.00015
-1.00009
-1.00003
-1.00002
-1.00001
-1
-1
-1
-1
-0.999993
-0.999994
-0.999994
-0.999992
-0.999991
-0.99999
-0.999988
-0.999988
-0.99999
-1
-1.00002
-1.00004
-1.00005
-1.00005
-1.00002
-1.00001
-1.00001
-1
-1
-1
-1
-1
-1
-0.999995
-0.999997
-0.999996
-0.999993
-0.999993
-0.999992
-0.99999
-0.99999
-0.99999
-0.999994
-1
-1
-1.00001
-1.00001
-1
-1
-1
-1
-1
-1
-1
-1
-1
-0.999999
-1
-0.999999
-0.999998
-0.999999
-0.999998
-0.999996
-0.999997
-0.999996
-0.999996
-0.999997
-0.999999
-1
-1
-1
-1
-1
-1
-1
-1
-1
-1
-1
-1
-1
-1
-1
-1
-1
-0.999999
-0.999999
-0.999999
-0.999999
-0.999999
-0.999999
-0.999999
-1
-1
-1
-1
-1
-1
-1
-1
-1
-1
-1
-1
-1
-1
-1
-1
-1
-1
-1
-1
-1
-1
-1
-1
-1
-1
-1
-1
-1
-1
-1
-1
-1
-1
-1
-1
-1
-1
-1
-1
-1
-1
-1
-1
-1
-1
-1
-1
-1
-1
-1
-1
-1
-1
-1
-1
-1
-1
-1
-1
-1
-1
-1
-1
-1
-1
-1
-1
-1
-1
-1
-1
-1
-1
-1
-1
-1
-1
-1
-1
-1
-1
-1
-1
-1
-1
-1
-1
-1
-1
-1
-1
-1
-1
-1
-1
-1
-1
-1
-1
-1
-1
-1
-1
-1
-1
-1
-1
-1
-1
-1
-1
-1
-1
-1
-1
-1
-1
-1
-1
-1
-1
-1
-1
-1
-1
-1
-1
-1
-1
-1
-1
-1
-1
-1
-1
-1
-1
-1
-1
-1
-1
-1
-1
-1
-1
-1
-1
-1
-1
-1
-1
-1
-1
-1
-1
-1
-1
-1
-1
-1
-1
-1
-1
-1
-1
-1
-1
-1
-1
-1
-1
-1
-1
-1
-1
-1
-1
-1
-1
-1
-1
-1
-1
-1
-1
-1
-1
-1
-1
-1
-1
-1
-1
-1
-1
-1
-1
-1
-1
-1
-1
-1
-1
-1
-1
-1
-1
-1
-1
-1
-1
-1
-1
-1
-1
-1
-1
-1
-1
-1
-1
-1
-1
-1
-1
-1
-1
-1
-1
-1
-1
-1
-1
-1
-1
-1
-1
-1
-1
-1
-1
-1
-1
-1
-1
-1
-1
-1
-1
-1
-1
-1
-1
-1
-1
-1
-1
-1
-1
-1
-1
-1
-1
-1
-1
-1
-1
-1
-1
-1
-1
-1
-1
-1
-1
-1
-1
-1
-1
-1
-1
-1
-1
-1
-1
-1
-1
-1
-1
-1
-1
-1
-1
-1
-1
-1
-1
-1
-1
-1
-1
-1
-1
-1
-1
-1
-1
-1
-1
-1
-1
-1
-1
-1
-1
-1
-1
-1
-1
-1
-1
-1
-1
-1
-1
-1
-1
-1
-1
-1
-1
-1
-1
-1
-1
-1
-1
-1
-1
-1
-1
-1
-1
-1
-1
-1
-1
-1
-1
-1
-1
-1
-1
-1
-1
-1
-1
-1
-1
-1
-1
-1
-1
-1
-1
-1
-1
-1
-1
-1
-1
-1
-1
-1
-1
-1
-1
-1
-1
-1
-1
-1
-1
-1
-1
-1
-1
-1
-1
-1
-1
-1
-1
-1
-1
-1
-1
-1
-1
-1
-1
-1
-1
-1
-1
-1
-1
-1
-1
-1
-1
-1
-1
-1
-1
-1
-1
-1
-1
-1
-1
-1
-1
-1
-1
-1
-1
-1
-1
-1
-1
-1
-1
-1
-1
-1
-1
-1
-1
-1
-1
-1
-1
-1
-1
-1
-1
-1
-1
-1
-1
-1
-1
-1
-1
-1
-1
-1
-1
-1
-1
-1
-1
-1
-1
-1
-1
-1
-1
-1
-1
-1
-1
-1
-1
-1
-1
-1
-1
-1
-1
-1
-1
-1
-1
-1
-1
-1
-1
-1
-1
-1
-1
-1
-1
-1
-1
-1
-1
-1
-1
-1
-1
-1
-1
-1
-1
-1
-1
-1
-1
-1
-1
-1
-1
0.999479
1.01118
0.97229
0.721181
0.996915
1.00379
1.00052
0.968153
0.984357
0.988364
0.990691
0.989199
0.893261
0.909695
0.924859
0.938629
0.623568
0.675082
0.721236
0.751418
-0.189807
-0.0863239
0.02854
0.135662
-0.837444
-0.791787
-0.734309
-0.653302
-0.985336
-0.974934
-0.952662
-0.908581
-1.0007
-0.999603
-0.996447
-0.990345
-1.00065
-1.00077
-1.0007
-1.00044
-1.00006
-1.00007
-1.0001
-1.00016
-0.999998
-0.999991
-0.999987
-0.99999
-1
-1
-0.999997
-0.999992
-1
-1
-1
-0.999999
-1
-1
-1
-0.999999
-1
-1
-0.999999
-0.999999
-1
-1
-1
-0.999999
-1
-1
-1
-1
-1
-1
-1
-1
-1
-1
-1
-1
-1
-1
-1
-1
-1
-1
-1
-1
-1
-1
-1
-1
-1
-1
-1
-1
-1
-1
-1
-1
-1
-1
-1.00001
-1.00001
-1
-1
-1.00001
-1.00001
-1
-1
-1.00001
-1.00001
-1
-1
-1.00001
-1.00001
-1
-1
-1.00001
-1.00001
-1
-1
-1.00001
-1.00001
-1
-1
-1.00001
-1.00001
-1
-1
-1.00001
-1.00001
-1
-1.00001
-1.00002
-1.00001
-1
-1.00001
-1.00001
-1.00001
-1
-1
-1.00001
-1
-1
-1
-1
-1.00001
-1
-1
-1
-1.00001
-1
-1
-1
-1.00001
-1
-1
-1
-1.00001
-1
-1
-1.00001
-1.00002
-1
-1
-1.00001
-1.00002
-0.34103
-0.781979
-0.986348
-1.02534
-1.00816
-0.996472
-1.00074
-1.00035
-1.00008
-0.999995
-0.999995
-0.999999
-1
-1
-1
-1
-1
-1
-1
0.868805
0.450847
-0.506397
-0.97541
-0.995089
-0.952586
-0.991137
-1.00013
-1.00037
-1.0001
-0.999999
-0.999994
-0.999999
-1
-1
-1
-1
-1
-1
0.984328
0.938098
0.696251
-0.0863495
-0.595615
-0.70158
-0.895361
-0.983101
-0.99651
-1.00085
-1.00037
-1.00006
-1.00001
-1
-1
-1
-1
-1
-1
0.949527
0.951138
0.935754
0.735199
0.0936002
-0.252368
-0.800819
-0.980475
-0.964338
-1.00473
-1.00284
-1.00075
-1.00015
-1.00003
-1.00001
-1
-1
-1
-1
0.808113
0.883366
0.911453
0.894023
0.74578
0.628945
0.25449
-0.351108
-0.694482
-0.95505
-0.993747
-0.998407
-0.999453
-0.999702
-1
-1.00001
-1
-1
-1
0.432627
0.561241
0.760349
0.830085
0.818714
0.804824
0.752263
0.619162
0.320901
-0.273741
-0.709394
-0.903135
-0.973151
-0.99335
-0.999
-0.999925
-1
-1
-1
-0.297548
-0.0772371
0.187443
0.297823
0.491315
0.676185
0.709847
0.634661
0.325626
-0.249171
-0.63061
-0.840081
-0.937679
-0.978461
-0.99547
-0.999466
-0.99997
-1
-1
-0.74443
-0.614182
-0.61576
-0.590534
-0.409374
0.0532874
0.528647
0.55753
0.323504
-0.275195
-0.7414
-0.918771
-0.978549
-0.993844
-0.999017
-0.999926
-1
-1
-1
-0.977226
-0.955866
-0.936659
-0.91747
-0.856298
-0.581549
0.0787775
0.415029
0.368518
0.177427
-0.217084
-0.631311
-0.837176
-0.955095
-0.990623
-0.998696
-0.999902
-0.999998
-1
-0.999974
-0.997224
-0.991079
-0.979024
-0.954339
-0.850573
-0.460839
0.0869578
0.212008
0.0832905
-0.335808
-0.722147
-0.878541
-0.954514
-0.987909
-0.997581
-0.999687
-0.999983
-1
-1.00043
-1.00041
-0.99994
-0.997619
-0.986851
-0.9252
-0.665527
-0.156602
0.0544909
-0.0217977
-0.339444
-0.749432
-0.927153
-0.977504
-0.994355
-0.998899
-0.999873
-0.999994
-1
-1.00002
-1.00013
-1.00017
-0.999689
-0.994275
-0.957609
-0.796155
-0.401587
-0.0906708
-0.0965583
-0.266216
-0.609906
-0.837945
-0.957563
-0.99103
-0.998623
-0.999866
-0.999995
-1
-0.999995
-1.00005
-1.00014
-0.999855
-0.993601
-0.944283
-0.722368
-0.314966
-0.156161
-0.164786
-0.28129
-0.555284
-0.825791
-0.943192
-0.98562
-0.997526
-0.999741
-0.999988
-1
-1
-1.00007
-1.00008
-0.99897
-0.989592
-0.944709
-0.774684
-0.420947
-0.294903
-0.286101
-0.366471
-0.575074
-0.780497
-0.91422
-0.973017
-0.994248
-0.999259
-0.999953
-1
-1
-1.00004
-1.00013
-0.999839
-0.994381
-0.946549
-0.743905
-0.48948
-0.471472
-0.535877
-0.617085
-0.719439
-0.822715
-0.909695
-0.964335
-0.989517
-0.998025
-0.999819
-0.999997
-1
-1.00003
-1.00004
-0.999672
-0.994935
-0.964633
-0.848084
-0.619655
-0.611054
-0.70466
-0.808199
-0.876334
-0.90915
-0.93618
-0.971063
-0.990542
-0.998011
-0.999798
-0.999995
-1
-1.00002
-1.00002
-0.999273
-0.992798
-0.960887
-0.865797
-0.732569
-0.734018
-0.809861
-0.911944
-0.944721
-0.95934
-0.969155
-0.983474
-0.99387
-0.998555
-0.999858
-0.999997
-1
-1.00001
-1.00006
-1.00002
-0.99817
-0.979352
-0.89154
-0.821878
-0.817211
-0.861255
-0.939654
-0.975656
-0.981855
-0.98665
-0.992372
-0.997079
-0.999354
-0.999949
-1
-1
-1.00001
-1.00002
-1.00003
-0.999599
-0.991585
-0.926834
-0.865577
-0.861304
-0.891782
-0.9571
-0.988024
-0.992671
-0.994951
-0.99699
-0.99887
-0.999789
-0.999988
-1
-1
-1.00002
-1.00001
-0.999902
-0.999203
-0.994434
-0.960246
-0.89772
-0.8848
-0.902458
-0.950855
-0.984218
-0.995053
-0.997761
-0.998823
-0.999614
-0.99994
-0.999998
-1
-1
-1.00001
-1.00001
-0.999773
-0.997977
-0.989553
-0.957878
-0.905029
-0.899721
-0.921626
-0.960676
-0.987113
-0.996584
-0.998937
-0.99955
-0.999877
-0.999985
-1
-1
-1
-1.00001
-1
-0.999643
-0.996332
-0.98262
-0.940595
-0.89829
-0.906051
-0.936907
-0.971434
-0.989999
-0.997313
-0.999401
-0.999825
-0.999963
-0.999997
-1
-1
-1
-0.999997
-0.999986
-0.99962
-0.995741
-0.975475
-0.924282
-0.902228
-0.921453
-0.956775
-0.983905
-0.993899
-0.998097
-0.999605
-0.99992
-0.999988
-0.999999
-1
-1
-0.999999
-0.999981
-0.999938
-0.999444
-0.994876
-0.97098
-0.918213
-0.910915
-0.939113
-0.97368
-0.991875
-0.996562
-0.998799
-0.999713
-0.999949
-0.999994
-1
-1
-1
-0.999995
-0.999952
-0.999798
-0.9989
-0.993079
-0.96402
-0.916902
-0.919001
-0.952082
-0.985212
-0.996377
-0.998222
-0.999278
-0.999795
-0.999964
-0.999996
-1
-1
-1
-0.99999
-0.999906
-0.999662
-0.998727
-0.993991
-0.969244
-0.923956
-0.927213
-0.955887
-0.986427
-0.997204
-0.99904
-0.999621
-0.999855
-0.999972
-0.999997
-1
-1
-1
-0.999989
-0.999883
-0.999573
-0.998445
-0.993581
-0.969815
-0.932253
-0.936822
-0.963087
-0.988782
-0.99806
-0.999506
-0.999805
-0.999912
-0.999981
-0.999998
-1
-1
-1
-0.999991
-0.99984
-0.999113
-0.996397
-0.98684
-0.960834
-0.933494
-0.940663
-0.966269
-0.990593
-0.998333
-0.999815
-0.999926
-0.999957
-0.99999
-0.999999
-1
-1
-1
-0.999992
-0.999804
-0.998567
-0.99338
-0.979587
-0.952692
-0.938956
-0.945885
-0.968567
-0.991761
-0.998401
-0.999886
-0.999976
-0.999985
-0.999996
-0.999999
-1
-1
-1
-0.999996
-0.999792
-0.998208
-0.990352
-0.967205
-0.94122
-0.940035
-0.951993
-0.97348
-0.991288
-0.998504
-0.999895
-0.99999
-0.999997
-0.999999
-1
-1
-1
-1
-0.999997
-0.999824
-0.99841
-0.989977
-0.966693
-0.940263
-0.941145
-0.958433
-0.980915
-0.993429
-0.998906
-0.999932
-0.999991
-0.999997
-1
-1
-1
-1
-1
-0.999992
-0.999801
-0.999235
-0.994397
-0.969978
-0.942143
-0.942391
-0.959127
-0.984456
-0.996216
-0.999366
-0.999925
-0.999979
-0.999991
-0.999999
-1
-1
-1
-1
-0.999957
-0.999542
-0.999298
-0.997122
-0.978548
-0.94819
-0.944809
-0.959174
-0.984652
-0.996982
-0.999565
-0.999879
-0.999924
-0.999949
-0.999973
-0.999997
-1
-1
-1
-0.999945
-0.99943
-0.998734
-0.997379
-0.98285
-0.953637
-0.948249
-0.96042
-0.984367
-0.997022
-0.999559
-0.999737
-0.99973
-0.999745
-0.999773
-0.999903
-0.999986
-1
-1
-0.999946
-0.999498
-0.998567
-0.997463
-0.98858
-0.961272
-0.953105
-0.962788
-0.98368
-0.996746
-0.999478
-0.999419
-0.999207
-0.999056
-0.998913
-0.999316
-0.999797
-0.999993
-1
-0.999971
-0.999784
-0.998812
-0.997563
-0.993377
-0.970993
-0.959011
-0.966364
-0.983316
-0.99611
-0.999273
-0.998843
-0.998179
-0.997527
-0.996772
-0.997365
-0.998867
-0.999887
-1
-1.00001
-0.999922
-0.998957
-0.997463
-0.995167
-0.980734
-0.965405
-0.970289
-0.983607
-0.995245
-0.998936
-0.998199
-0.997018
-0.995531
-0.994162
-0.994764
-0.997075
-0.999534
-0.999979
-1.00004
-1.00001
-0.999169
-0.997091
-0.994862
-0.986566
-0.971567
-0.973757
-0.984954
-0.994831
-0.99854
-0.997717
-0.996174
-0.993801
-0.992683
-0.993576
-0.996079
-0.998972
-0.999896
-1.00005
-1.00008
-0.999616
-0.996767
-0.993963
-0.989043
-0.976655
-0.976392
-0.986042
-0.994689
-0.998107
-0.997229
-0.995294
-0.992237
-0.99204
-0.993493
-0.996013
-0.998751
-0.999837
-1.00004
-1.0001
-0.999824
-0.996877
-0.992823
-0.988667
-0.978762
-0.977452
-0.985461
-0.994543
-0.997594
-0.996579
-0.993949
-0.990994
-0.992101
-0.994152
-0.996531
-0.998871
-0.999853
-1.00004
-1.00009
-0.999878
-0.998792
-0.996166
-0.990862
-0.980883
-0.978143
-0.985816
-0.994528
-0.996872
-0.995224
-0.991139
-0.99084
-0.992939
-0.995887
-0.997744
-0.999194
-0.999886
-1.00004
-1.00009
-0.99984
-0.999127
-0.997335
-0.992353
-0.981291
-0.978269
-0.987338
-0.993958
-0.99436
-0.992083
-0.990677
-0.992957
-0.996264
-0.998325
-0.999095
-0.999657
-0.999948
)
;

boundaryField
{
    leftWall
    {
        type            zeroGradient;
    }
    rightWall
    {
        type            zeroGradient;
    }
    lowerWall
    {
        type            zeroGradient;
    }
    atmosphere
    {
        type            zeroGradient;
    }
    defaultFaces
    {
        type            empty;
    }
}


// ************************************************************************* //
