/*--------------------------------*- C++ -*----------------------------------*\
| =========                 |                                                 |
| \\      /  F ield         | foam-extend: Open Source CFD                    |
|  \\    /   O peration     | Version:     4.1                                |
|   \\  /    A nd           | Web:         http://www.foam-extend.org         |
|    \\/     M anipulation  |                                                 |
\*---------------------------------------------------------------------------*/
FoamFile
{
    version     2.0;
    format      ascii;
    class       volScalarField;
    location    "0.25";
    object      p;
}
// * * * * * * * * * * * * * * * * * * * * * * * * * * * * * * * * * * * * * //

dimensions      [1 -1 -2 0 0 0 0];

internalField   nonuniform List<scalar> 
2268
(
1283.36
1281.12
1278.96
1260.12
1260.53
1229.39
1229.47
1194.84
1190.95
1171.63
1203.54
1241.51
1197.44
1208.24
1206.71
1205.66
1281.15
1196.37
1307.93
1341.29
1464.13
1508.92
1508.16
1224.32
1222.03
1219.71
1201.08
1201.02
1170.14
1169.66
1134.87
1131.21
1101.93
1182.04
1158.7
1127.62
1141.35
1144.48
1143.47
1250.5
1096
1249.47
1231.8
1414.85
1458.92
1446.11
1164.98
1162.71
1160.28
1142.34
1142.22
1109.42
1111.24
1074.89
1071.38
1036.41
1111.19
1086.49
1069.65
1082.08
1079.31
1083.02
1150.7
1077.22
1184.75
1230.43
1307.17
1335.04
1379.17
1105.6
1103.14
1100.1
1083.1
1081.21
1050.59
1049.61
1009.72
1008.77
1025.01
1020.83
1017.32
999.736
1012.4
1010.64
1015.68
1062.04
1033.37
1112.94
1152.06
1206.22
1321.47
1291.07
1045.73
1043.36
1040.16
1024.25
1022.89
987.501
992.53
960.052
931.459
971.147
950.412
948.702
934.963
950.324
945.635
955.447
990.804
984.875
1058.45
1104.4
1113.23
1189.11
1180.08
986.063
983.341
979.19
963.837
960.204
931.013
919.815
884.559
906.872
892.745
885.399
878.882
869.085
880.965
873.988
885.052
913.426
920.189
963.868
1051.52
958.02
1065.72
1078.82
925.578
923.173
918.848
905.819
901.881
860.757
883.402
813.34
848.725
825.552
818.35
807.971
796.062
812.844
805.338
813.22
837.912
859.642
887.725
989.927
948.412
839.957
946.654
865.741
862.78
856.942
840.096
835.467
816.689
792.603
775.12
779.916
755.469
752.667
732.345
735.561
740.31
727.448
741.145
757.467
777.961
806.281
875.042
817.775
774.707
843.456
37.3413
37.3916
37.5743
37.7635
37.7992
37.8741
37.9038
37.8948
37.8714
37.8474
37.7957
37.7385
37.6863
37.6051
37.5566
37.4274
37.4305
37.3547
37.3461
37.1832
37.2612
37.4991
37.713
37.7472
37.824
37.8578
37.8251
37.8186
37.7887
37.7371
37.6799
37.6329
37.5413
37.4885
37.3756
37.3589
37.2948
37.2844
37.1065
37.1066
37.4175
37.6757
37.6794
37.7848
37.8096
37.7881
37.7686
37.7374
37.6848
37.6264
37.5659
37.5027
37.4173
37.3189
37.2957
37.2316
37.2201
36.955
37.0366
37.3821
37.6281
37.65
37.7356
37.7675
37.7161
37.7135
37.681
37.6284
37.5707
37.5038
37.4199
37.3422
37.2586
37.2254
37.1664
37.153
36.7507
36.8828
37.2782
37.6155
37.5467
37.6932
37.7376
37.6764
37.6751
37.6371
37.5756
37.5213
37.4279
37.3825
37.2822
37.1964
37.1576
37.0985
37.0833
36.3762
36.5823
37.3706
37.6268
37.5123
37.6709
37.7057
37.6255
37.6107
37.5921
37.5252
37.4628
37.3672
37.3075
37.2129
37.1318
37.0864
37.0284
37.011
36.8375
36.2295
37.4944
37.5938
37.3807
37.6224
37.6798
37.5707
37.5711
37.5588
37.4698
37.419
37.303
37.2441
37.1471
37.0646
37.014
36.9553
36.9354
35.8261
35.7534
37.8671
37.6094
37.3515
37.6371
37.6552
37.502
37.5693
37.5034
37.4235
37.3566
37.2379
37.1923
37.077
36.9972
36.94
36.8801
36.8572
769.818
768.106
757.548
763.767
748.561
676.116
734.596
668.425
680.231
651.004
645.359
613.567
598.172
643.237
610.481
617.306
640.747
674.739
719.923
733.9
869.374
156.467
208.518
642.61
638.61
631.483
598.835
620.961
587.403
581.74
556.352
541.522
508.21
498.39
452.645
441.472
449.731
422.435
437.82
445.272
467.801
454.054
657.467
274.366
233.668
69.3528
510.131
505.755
500.023
485.937
485.313
458.177
457.488
424.748
410.223
371.548
345.228
296.965
280.007
268.024
247.205
250.6
260.89
294.974
338.936
326.699
512.104
-197.404
437.941
378.632
374.753
372.184
359.727
357.159
339.702
329.271
309.16
279.463
246.315
195.647
153.231
126.589
124.95
81.2241
85.4653
82.9699
93.4874
144.805
132.204
139.19
-28.4095
193.594
246.71
243.459
243.02
234.803
234.435
219.755
216.849
193.271
176.525
118.581
75.0841
53.8408
57.2129
50.6057
32.1932
23.5683
20.251
19.3624
30.1138
32.6305
91.7776
-120.569
-104.118
141.639
138.865
138.319
133.139
131.085
126.04
124.197
113.607
90.9204
50.3069
26.8531
18.072
19.1895
19.1654
10.9346
9.417
7.60404
6.60645
9.65602
4.25416
11.9594
-79.8507
114.697
47.2589
46.2265
46.7465
46.1073
46.4133
48.0344
52.4747
52.2331
38.1777
14.2968
8.74573
8.89869
7.84078
8.27046
7.76627
3.36543
2.66965
2.07235
2.1964
0.113142
5.46269
5.84169
1.57835
11.1136
11.0706
10.9059
11.3536
10.6601
11.5324
11.7801
16.3277
7.90625
6.30754
4.45368
3.75319
4.31374
5.49963
2.2816
1.93614
1.72383
1.8229
1.55601
0.975108
1.26585
1.22721
1.23099
3.6595
3.39226
3.22213
3.63381
3.08492
3.16792
3.24481
2.64285
3.44754
2.12377
1.803
1.86498
0.450345
2.0363
1.44395
1.65077
1.69191
1.78485
1.25636
1.38729
1.15731
0.901125
0.931801
0.83366
0.840732
0.799705
0.778776
0.523383
0.511852
-0.0801804
-0.279542
1.57568
1.63549
1.78853
1.02451
0.999692
1.0488
1.10655
1.12686
1.24441
1.36047
1.27844
0.817412
0.704196
1.31397
0.827378
0.292307
0.329575
0.327657
0.266656
0.161257
0.090216
0.117648
-0.314484
-0.57335
-0.199155
0.059423
0.539736
0.357139
0.920521
0.680694
0.769384
1.20558
1.26641
1.01317
0.978122
0.98211
0.140627
0.7888
0.141439
0.122955
0.11312
0.110549
0.187679
0.304002
0.285851
0.397599
0.200773
0.299297
0.24951
0.458503
0.572822
0.661394
0.635136
0.56216
0.741076
0.54347
0.60214
0.878043
0.0502232
0.641373
0.889032
0.138913
0.238543
0.285273
0.343292
0.248194
0.244922
0.275304
0.0697101
0.280807
0.196268
0.364495
0.169151
0.41294
0.175824
0.39932
0.614326
0.373946
0.515071
0.756728
0.628326
0.270056
0.33546
0.139717
-0.0620074
-0.360822
-0.308006
-0.299881
-0.291229
0.0145918
-0.251997
-0.161393
0.023666
-0.0995954
-0.0659522
-0.133551
0.0303715
0.186598
0.118238
0.0492301
0.304316
-0.230277
-0.381045
0.330799
-0.118938
-0.0268481
-0.0927289
-0.594586
-0.47756
-0.470973
-0.484312
-0.442057
-0.709156
-0.321251
-0.392292
-0.361766
-0.262992
-0.251389
-0.280453
-0.205915
-0.245937
-0.133383
-0.477763
0.201981
0.0575344
-0.523273
-0.40362
-0.402971
-0.117637
-0.258973
-0.992376
-0.819438
-0.67073
-0.689506
-0.631374
-0.673905
-0.576852
-0.596589
-0.551462
-0.519155
-0.500521
-0.497386
-0.468551
-0.509098
-0.54486
-0.167207
-0.41163
0.140173
0.0955617
-0.0442232
-0.656505
-0.748337
0.196885
-0.637863
-1.11912
-1.08076
-0.971606
-0.920097
-0.880258
-0.701093
-0.751032
-0.740855
-0.722877
-0.722982
-0.701758
-0.740588
-0.546347
-0.442578
-0.805014
-0.993478
-1.20621
-0.689292
-0.92427
-0.924375
-1.31344
-0.379235
-0.756379
-0.587243
-0.635055
-0.933584
-1.00329
-1.07441
-1.06147
-1.15252
-1.0363
-0.890484
-0.883287
-0.931798
-0.676847
-0.902729
-1.12421
-0.993314
-0.819009
-0.964306
-0.380211
-1.06307
-1.11716
-1.43414
-1.20942
-0.977337
-1.02656
-0.965763
-1.32321
-0.845716
-1.27894
-1.08572
-0.902748
-1.23037
-1.18365
-1.13502
-1.20699
-1.37199
-1.26273
-1.10051
-0.958866
-0.706667
-1.33018
-1.04643
-1.13652
-1.18263
-0.710526
-1.24705
-1.13
-1.09452
-1.08093
-1.06287
-1.09764
-1.09131
-1.37732
-1.19847
-1.01437
-1.47008
-1.32666
-1.11846
-1.23777
-1.11518
-1.04985
-1.25111
-1.06887
-1.28813
-1.18903
-1.35806
-1.55216
-1.46987
-2.10512
-1.14904
-1.27263
-1.24467
-1.07649
-1.21827
-1.02052
-1.13636
-1.1217
-1.25695
-1.05861
-1.11454
-1.12528
-1.139
-1.15286
-1.3397
-1.42136
-1.36663
-1.57163
-1.63574
-1.85522
-1.932
-1.45828
-1.82522
-1.58428
-1.304
-1.10714
-1.66518
-1.05162
-1.72506
-1.05225
-1.6234
-1.13304
-1.38193
-1.17655
-1.31699
-1.38488
-1.60078
-1.65925
-1.75379
-1.75992
-1.73035
-1.56605
-1.29388
-2.1931
-2.22385
-1.53179
-2.21013
-2.43599
-2.39249
-2.07678
-2.38807
-2.00105
-2.20685
-1.87071
-1.92047
-1.44141
-1.8003
-1.7496
-1.41341
-1.33432
-1.69434
-1.63604
-1.70049
-1.8729
-2.55556
-2.07806
-2.06878
-2.82413
-2.42752
-2.28031
-2.29064
-2.27245
-2.27839
-2.28489
-2.25185
-2.28155
-2.21773
-2.43819
-2.67493
-2.2519
-2.35106
-2.67541
-2.22262
-2.41185
-3.0502
-2.78924
-2.25934
-2.85773
-3.28458
-3.88043
-3.48667
-2.86001
-2.60935
-2.61446
-2.61261
-2.57875
-2.56797
-2.52131
-2.54783
-2.54191
-2.54397
-2.4383
-2.57746
-2.46362
-2.4003
-2.7379
-2.7363
-2.73743
-3.0885
-3.01827
-2.90763
-2.73293
-3.52917
-3.47233
-3.37875
-2.81469
-2.81647
-2.81571
-2.80757
-2.80882
-2.78764
-2.79819
-2.8084
-2.80852
-2.82153
-2.80189
-2.81034
-2.82322
-2.80896
-3.12469
-2.8789
-3.10703
-2.87459
-3.16455
-3.68772
-3.80884
-3.82251
-3.69256
-3.09197
-3.09951
-3.0892
-3.07549
-3.02911
-3.04899
-3.04887
-3.04577
-3.05677
-3.0483
-3.03582
-3.02046
-2.99431
-2.94785
-3.03393
-3.47902
-3.16132
-3.41796
-3.12797
-3.28698
-4.1648
-4.09487
-3.9816
-3.31984
-3.31334
-3.32357
-3.30474
-3.34262
-3.30066
-3.32559
-3.31597
-3.3212
-3.31305
-3.30803
-3.30389
-3.26399
-3.23386
-3.14048
-3.02594
-4.59125
-3.68239
-2.99829
-4.10847
-4.12168
-4.52143
-4.17563
-3.57924
-3.57012
-3.57753
-3.57349
-3.59739
-3.57449
-3.57847
-3.57909
-3.58316
-3.58889
-3.58892
-3.60844
-3.59801
-3.72636
-3.62222
-3.91835
-3.9491
-4.05377
-4.53554
-3.13209
-4.1195
-5.07605
-4.53722
-3.83836
-3.83787
-3.83961
-3.83723
-3.83994
-3.83591
-3.84081
-3.83792
-3.84787
-3.84382
-3.86782
-3.87079
-3.89457
-4.02567
-3.88395
-3.76841
-3.38513
-5.07603
-4.49312
-4.09338
-3.47764
-4.19628
-4.94581
-4.09741
-4.09555
-4.09914
-4.09797
-4.10318
-4.09986
-4.09974
-4.0991
-4.10278
-4.09712
-4.11412
-4.08893
-4.13876
-4.07144
-4.16916
-3.9874
-4.4182
-4.88883
-4.35414
-4.05898
-4.0352
-4.74707
-4.98529
-4.36205
-4.3623
-4.36162
-4.36151
-4.36027
-4.36017
-4.35841
-4.35638
-4.35624
-4.34768
-4.35102
-4.32722
-4.36831
-4.21767
-4.39583
-4.56703
-4.68741
-4.96749
-4.77518
-4.39031
-4.11176
-4.49774
-5.41236
-4.62743
-4.62691
-4.6286
-4.62833
-4.63008
-4.63034
-4.62883
-4.63064
-4.62552
-4.62107
-4.62533
-4.61557
-4.69934
-4.54475
-4.54938
-4.61649
-4.55185
-3.98596
-5.26578
-5.81805
-4.72887
-4.30717
-4.33143
-4.89325
-4.89258
-4.89283
-4.89247
-4.89312
-4.89243
-4.88903
-4.89041
-4.87546
-4.88426
-4.84794
-4.8609
-4.83195
-4.72855
-4.64034
-4.8228
-5.06326
-5.20122
-5.91371
-5.33403
-5.34929
-4.94114
-4.74833
-5.16333
-5.16299
-5.1651
-5.16497
-5.16921
-5.1685
-5.17013
-5.17033
-5.16061
-5.1686
-5.12364
-5.19465
-4.97535
-4.90875
-4.98313
-5.05341
-5.13524
-5.0205
-4.4758
-4.63558
-5.25865
-5.33302
-5.3023
-5.43728
-5.43751
-5.44106
-5.43839
-5.44484
-5.44077
-5.45046
-5.43886
-5.44065
-5.41868
-5.40652
-5.36169
-5.31606
-5.18172
-5.2631
-5.34644
-5.28551
-5.35863
-5.29287
-6.10251
-6.8751
-4.26317
-7.41081
-5.6946
-5.69538
-5.69899
-5.69841
-5.70464
-5.70498
-5.71403
-5.71418
-5.72079
-5.73811
-5.66865
-5.47061
-5.33528
-5.05214
-5.50587
-5.47049
-5.52622
-5.60925
-5.6327
-6.01316
-5.8226
-5.58273
-6.13895
-5.97519
-5.97557
-5.98235
-5.98381
-5.9966
-5.99932
-6.0187
-6.04774
-6.05679
-5.9703
-6.11015
-6.13237
-6.29196
-6.99757
-5.94102
-5.84394
-6.01339
-5.95273
-6.04753
-6.16307
-6.23513
-5.99826
-6.16329
-6.23397
-6.23429
-6.23971
-6.24018
-6.25165
-6.2455
-6.26727
-6.22353
-6.29317
-6.23503
-6.32394
-6.32057
-6.48711
-6.51472
-6.31042
-6.06757
-6.21379
-6.06182
-6.3897
-6.46027
-6.70486
-6.38365
-6.71157
-6.48321
-6.48714
-6.49596
-6.50326
-6.5189
-6.52989
-6.55808
-6.56175
-6.61424
-6.63142
-6.70974
-6.7212
-6.76854
-6.77066
-6.50918
-6.20608
-6.1049
-6.11741
-6.32803
-6.88284
-6.96459
-6.62088
-7.08582
-6.86798
-6.87219
-6.8818
-6.89037
-6.90618
-6.92447
-6.96212
-6.99195
-7.05537
-7.11637
-7.21486
-7.28173
-7.37429
-7.00987
-6.87694
-6.6932
-6.69976
-6.72242
-7.05907
-7.78552
-7.74772
-7.54463
-7.88511
-5.9405
-5.94314
-5.94522
-5.95219
-5.96655
-5.97105
-5.98999
-5.9958
-6.04029
-6.083
-6.16271
-6.30753
-6.56332
-7.26306
-8.36782
-9.12717
-9.04855
-9.31964
-9.27232
-8.01294
-7.75292
-9.71576
-7.78056
-64.2172
-558.011
-169.241
119.526
179.769
139.955
475.037
259.352
189.796
-212.082
392.455
385.721
205.079
174.633
242.543
305.03
411.163
258.925
206.55
200.955
79.1029
55.1385
81.3955
30.5904
-0.345573
4.40853
9.53015
-3.24161
1.25748
1.35875
2.66089
6.6766
0.580761
0.508974
0.499325
0.438643
0.729199
0.886815
0.859067
0.868671
0.185748
0.100968
0.118482
0.00551645
0.358888
0.122987
-0.137504
-0.351528
0.445666
0.440915
-0.344579
-0.448742
0.132737
-0.0599715
-0.553291
-0.609654
-0.313219
-0.506344
-0.649798
-0.703029
-0.00963783
0.0724999
-0.663892
-1.04963
-0.340038
-0.348129
-0.470183
-0.364053
-0.98716
-1.0686
-0.919331
-0.917427
-0.952974
-0.833692
-1.29464
-1.33234
-1.59304
-1.21544
-1.87087
-2.05649
-2.00613
-2.06505
-2.29089
-2.45039
-1.907
-1.98156
-1.81754
-2.3133
-2.68778
-2.94583
-3.03673
-3.33845
-3.06942
-3.14584
-3.1145
-3.15436
-3.61852
-3.70496
-3.83697
-3.92235
-3.81784
-3.85423
-3.94054
-3.97186
-4.00684
-4.02142
-4.06055
-4.07712
-4.23333
-4.24303
-4.21422
-4.20784
-4.37946
-4.33384
-4.15259
-3.86288
-4.93744
-5.17105
-5.55746
-6.06768
-5.00901
-5.1373
-5.31345
-5.38567
-5.16024
-5.03224
-4.92554
-4.98299
-4.99867
-5.0226
-5.02557
-4.43822
-4.67825
-4.48538
-4.74934
-4.426
-5.49984
-5.78515
-5.92709
-6.40954
-5.34163
-6.13432
-6.14864
-5.88272
-5.78915
-5.48138
-5.80617
-6.332
-6.02493
-5.72195
-5.28267
-5.76587
-6.99455
-7.44636
-6.72273
-6.31645
-6.9195
-6.86691
-7.84386
-7.555
-7.71949
-7.88403
-8.53447
-8.87802
-9.00204
-9.02564
-8.5855
-8.55597
-21.1512
29.2194
37.9311
37.192
37.0014
37.2048
37.6619
37.3807
37.4673
37.4435
37.4023
37.275
37.1422
37.0639
36.9658
36.8817
36.8199
36.7564
36.7283
69.9534
-1.48804
33.8058
33.4283
36.0694
34.3285
37.2431
37.2337
37.1769
37.344
37.2013
37.2144
37.0988
36.9173
36.8244
36.7385
36.6502
36.5787
36.5394
82.6136
395.159
-103.291
-78.3197
24.9842
34.8256
30.8664
35.7387
37.5128
37.1382
37.3149
37.2508
36.7934
36.7392
36.628
36.5564
36.4582
36.3757
36.3223
140.313
80.5334
611.01
-304.731
24.4517
8.08263
-4.43334
9.56942
36.1907
36.7653
36.9608
36.915
36.7472
36.6461
36.4978
36.4268
36.2601
36.1576
36.0816
450.721
-916.29
245.321
-321.154
532.593
468.151
-148.986
-63.6467
68.97
36.9714
36.5011
36.608
36.0916
36.1421
36.3665
36.2465
36.044
35.9034
35.7924
237.196
-217.952
102.012
-734.297
359.231
10.3605
-96.5739
-100.311
131.092
-24.2951
23.9845
36.1505
35.928
35.4567
35.5909
36.1342
35.6616
35.5713
35.4421
-54.9978
118.042
-402.071
315.324
349.619
406.659
917.555
13.6848
-90.8775
-373.18
62.0558
52.3954
46.8801
46.3823
34.2117
35.7186
35.5993
35.1857
35.0076
-4.02301
-29.6688
43.5189
40.6411
-33.1571
24.3699
6.12731
238.3
-90.1784
-156.234
23.8174
53.2794
43.1254
37.1723
34.0189
35.0021
34.8249
34.5808
34.4254
-1.22283
0.0796788
-3.39655
9.05668
-1.4958
-29.6482
72.1056
220.928
-359.175
95.989
53.8419
72.0832
63.6538
32.4377
32.692
34.5467
34.2509
33.8816
33.6715
-0.0622871
-1.65756
-2.02769
0.18941
-16.2445
-37.9478
-146.452
-338.306
-313.936
53.195
224.083
93.9907
60.8675
56.436
29.8952
33.7131
33.7849
33.0887
32.8103
0.325175
-1.25058
-0.786913
-1.41802
-10.3729
-39.8517
-106.723
57.9536
168.15
285.614
235.602
169.628
74.7689
29.2164
28.6314
31.3794
31.7835
31.5821
31.4925
-0.852412
-1.48016
-0.832105
-0.359661
-6.0354
-38.7709
-128.193
-100.473
-43.8063
93.2641
149.95
138.286
71.8478
19.6554
28.8026
30.2408
30.2085
30.0967
30.018
-0.82504
-1.49357
-1.53775
-0.719128
-5.67655
-34.3749
-80.8909
-156.718
-267.244
204.985
204.058
175.718
35.3959
22.2922
28.7243
29.3424
28.9464
28.4827
28.4454
-0.286787
-1.77861
-1.01865
-1.6348
-9.76744
-23.3894
-81.7189
-1.34806
-150.941
179.362
125.146
62.6239
102.405
12.6508
20.9693
27.3002
27.0819
26.5404
26.5837
-0.446747
-1.57129
-0.738697
-1.46546
-5.84804
-23.8179
-128.095
47.8467
-71.143
24.8567
61.4729
46.9868
2.33873
46.6628
8.85338
23.2579
24.0683
24.0616
24.6136
-1.78217
-2.22323
-0.489917
-1.09782
-4.55413
-18.1136
-41.873
-51.3653
-16.8465
81.7063
40.3796
75.0704
13.0899
2.05397
9.0182
18.8106
20.866
21.3321
22.3652
-1.31003
-2.09588
-1.05995
-1.47209
-5.79995
-20.8852
11.5367
-73.088
31.5026
65.3435
2.85009
13.7423
18.0198
4.38153
11.7037
14.4587
17.3514
18.9763
19.4511
-1.00339
-2.3489
-1.50941
-2.0049
-5.16294
-13.9518
-32.0502
-3.14994
25.4774
29.3768
18.7863
8.34957
4.11257
2.17444
10.6163
13.1583
14.6595
16.5007
16.7694
-1.19965
-1.58888
-1.68786
-2.48385
-3.90981
-9.30415
-21.2759
10.6179
43.4278
31.0024
-0.489164
5.93804
5.57781
9.64669
10.0906
11.0473
13.408
14.3868
14.7774
-2.33534
-2.46457
-1.48691
-2.82348
-3.16492
-9.54032
-17.3984
3.1536
-1.51819
0.61605
3.63826
9.55631
10.2233
9.61849
9.98886
10.5317
11.8713
12.8385
13.3487
-2.48554
-3.34339
-2.15885
-3.22567
-4.0425
-15.1387
-40.6874
-4.50243
5.49994
26.1564
10.8663
10.0374
9.27275
9.53934
9.84441
10.0331
10.3124
11.1964
11.7782
-2.33702
-2.51132
-2.75436
-3.02414
-6.08213
-16.0578
-23.616
16.4967
54.8968
24.314
9.47658
8.93715
8.97258
9.56885
9.73898
9.84477
9.77474
9.69084
9.88869
-3.16843
-2.55448
-2.82056
-3.39491
-5.60439
-20.2177
-20.4293
32.7208
33.3356
21.9755
7.68171
6.94429
8.50864
9.18862
9.4701
9.85342
10.359
9.64215
9.66546
-2.88563
-3.64787
-3.53658
-3.78759
-4.81187
-20.6427
-20.2262
21.4643
25.3134
5.00446
8.16339
9.0419
8.09506
8.87338
9.05333
9.54771
10.3956
9.81273
10.0155
-4.52291
-5.0725
-3.52771
-4.06429
-5.8932
-18.5773
-6.80096
18.3372
0.308085
3.52995
6.754
7.25573
7.94668
8.29715
8.45845
8.86204
8.90907
9.24417
9.48937
-4.21084
-4.38193
-4.10283
-3.83037
-6.90627
-10.0319
16.9624
17.7088
9.95131
8.03443
7.68838
7.43615
8.6557
7.33937
7.70805
8.08569
7.57331
8.44403
9.06432
-4.17383
-3.30842
-4.76674
-4.84116
-8.19666
-16.0097
6.14681
9.28441
8.15515
6.48279
6.48816
7.00579
4.5111
5.99657
6.53268
6.70642
6.81819
7.45417
8.37022
-4.57171
-3.83796
-4.65592
-4.74033
-10.8714
-15.421
16.0098
1.75456
7.22285
2.21244
2.41003
3.60405
2.51747
5.51931
5.42762
5.52832
5.92997
6.07555
6.29824
-3.81876
-4.65993
-4.81292
-7.1767
-13.273
-5.53236
-6.94263
7.16554
7.02547
4.51674
3.80911
4.38632
1.62644
6.17091
4.8021
4.81008
5.44436
5.27905
4.79896
-5.40413
-5.04348
-4.96854
-5.1968
-8.80367
-2.87114
-11.1372
-10.9287
2.68147
1.98465
1.33475
3.18545
4.55795
2.009
5.04322
4.25422
5.41801
5.10492
4.51199
-5.3722
-5.52206
-4.94301
-5.30065
-6.50838
-21.3055
-27.4053
-9.32976
-5.02168
-3.13979
0.953763
0.48987
4.09546
-0.0313284
0.768828
2.84555
5.24677
4.68129
4.26749
-5.2485
-4.77797
-5.17099
-6.46746
-6.02719
-8.84175
-5.83931
3.41766
0.430382
-2.01648
1.66635
-2.12886
-2.55728
-1.02482
-0.432528
1.96458
-1.17065
3.76295
2.83555
-3.52854
-3.84922
-3.5598
-4.31823
-5.91584
-5.24454
-9.43199
2.93593
-3.62273
-3.34379
-4.97286
-3.67608
-3.99472
-2.82902
-2.33604
-3.26344
-3.52962
-2.36414
0.939931
-4.26978
-5.12488
-3.75967
-3.70277
-4.14953
-9.8834
-19.2349
-3.85409
-2.85689
-3.24684
-5.08707
-4.32931
-4.98939
-4.39151
-3.99454
-4.40213
-3.90644
-5.08711
-5.83196
-6.16366
-6.14375
-6.07551
-3.08437
-2.87054
-4.471
-7.35642
-0.730405
-3.69868
-4.83945
-6.03951
-6.71627
-6.38567
-5.46601
-6.97685
-6.30872
-5.23112
-5.76168
-6.1005
-5.1712
-4.31369
-5.86715
-3.78572
-4.81575
-6.32727
-9.81076
-2.64674
-5.91184
-7.03774
-7.88889
-8.93396
-8.66213
-7.86106
-9.57926
-7.89865
-7.07329
-6.75406
-6.99685
-6.09886
-5.13815
-5.40363
-4.28387
-4.25776
-11.3144
5.23099
-0.947745
-4.89086
-11.4189
-10.6163
-11.5011
-11.0371
-10.7217
-10.3731
-7.6616
-7.71814
-7.865
-8.25338
-5.95423
-5.24232
-4.96166
-5.67234
-7.19148
-6.82927
10.6115
3.83114
-14.5717
-15.1583
-15.3609
-15.5199
-15.5631
-14.3839
-12.4507
-10.613
-10.2212
-9.40375
-9.77715
-6.61078
-5.99437
-6.3044
-6.24086
-9.07788
-2.89264
7.44419
-4.40587
-21.3372
-19.2528
-20.5795
-19.8194
-19.0058
-17.3753
-14.6823
-13.0343
-10.8873
-11.2125
-11.4252
-7.23786
-7.51388
-8.5878
-9.4793
-7.93124
-8.98374
2.7652
-23.9301
-26.0608
-25.4705
-23.0599
-23.737
-23.6245
-20.8691
-16.9854
-13.2311
-12.3642
-12.6644
-12.7132
-8.66789
-9.50497
-9.95979
-11.284
-14.1144
-14.2628
-19.0468
-31.1761
-40.9148
-35.4593
-29.2518
-30.3095
-26.4526
-20.5384
-16.193
-13.7428
-12.7664
-12.2034
-11.7383
-8.82825
-12.1271
-9.59803
-12.8251
-17.8928
-28.5473
-62.5347
-80.3393
-53.3296
-40.3413
-37.5058
-39.2294
-36.8683
-28.0061
-21.0008
-15.7078
-13.323
-12.0069
-10.6836
)
;

boundaryField
{
    leftWall
    {
        type            calculated;
        value           nonuniform List<scalar> 
50
(
1283.36
1224.32
1164.98
1105.6
1045.73
986.063
925.578
865.741
769.818
642.61
510.131
378.632
246.71
141.639
47.2589
11.1136
3.6595
0.83366
0.292307
0.141439
0.138913
-0.0620074
-0.594586
-0.992376
-0.637863
-0.756379
-0.977337
-1.13
-1.14904
-1.58428
-2.21013
-2.28031
-2.60935
-2.81469
-3.09197
-3.31984
-3.57924
-3.83836
-4.09741
-4.36205
-4.62743
-4.89325
-5.16333
-5.43728
-5.6946
-5.97519
-6.23397
-6.48321
-6.86798
-5.9405
)
;
    }
    rightWall
    {
        type            calculated;
        value           nonuniform List<scalar> 
50
(
37.3461
37.2844
37.2201
37.153
37.0833
37.011
36.9354
36.8572
36.7283
36.5394
36.3223
36.0816
35.7924
35.4421
35.0076
34.4254
33.6715
32.8103
31.4925
30.018
28.4454
26.5837
24.6136
22.3652
19.4511
16.7694
14.7774
13.3487
11.7782
9.88869
9.66546
10.0155
9.48937
9.06432
8.37022
6.29824
4.79896
4.51199
4.26749
2.83555
0.939931
-5.83196
-6.1005
-6.99685
-8.25338
-9.77715
-11.4252
-12.7132
-11.7383
-10.6836
)
;
    }
    lowerWall
    {
        type            calculated;
        value           nonuniform List<scalar> 
62
(
1312.79
1310.55
1308.39
1289.55
1289.96
1258.82
1258.9
1224.27
1220.38
1201.05
1232.97
1270.94
1226.87
1237.67
1236.14
1235.08
1310.58
1225.8
1337.36
1370.72
1493.56
1538.35
1537.37
1508.16
1446.11
1379.17
1291.07
1180.08
1078.82
946.654
843.456
-1.628
-495.413
-107.465
173.562
37.3413
37.1832
37.1065
36.955
36.7507
36.3762
36.8375
35.8261
37.3998
37.4444
37.614
37.793
37.8286
37.9035
37.9332
37.9243
37.9009
37.8768
37.8251
37.7679
37.7158
37.6345
37.5861
37.4568
37.4599
37.3841
37.3755
)
;
    }
    atmosphere
    {
        type            calculated;
        value           nonuniform List<scalar> 
46
(
-6.61987
-6.62681
-6.63256
-6.64132
-6.65676
-6.66933
-6.69744
-6.71443
-6.76477
-6.80994
-6.88737
-6.96006
-7.18546
-7.34018
-7.76398
-8.18365
-8.21939
-8.33718
-8.48942
-8.26128
-8.16317
-8.97228
-8.31474
-8.75712
-9.00692
-9.10257
-9.22782
-9.31055
-11.3293
-10.3687
-11.9876
-17.3126
-25.9261
-56.8119
-67.5856
-42.8589
-22.7257
-20.643
-27.1192
-32.1793
-26.2541
-16.9427
-10.9122
-8.58428
-6.83581
-5.9039
)
;
    }
    defaultFaces
    {
        type            empty;
    }
}


// ************************************************************************* //
