/*--------------------------------*- C++ -*----------------------------------*\
| =========                 |                                                 |
| \\      /  F ield         | foam-extend: Open Source CFD                    |
|  \\    /   O peration     | Version:     4.1                                |
|   \\  /    A nd           | Web:         http://www.foam-extend.org         |
|    \\/     M anipulation  |                                                 |
\*---------------------------------------------------------------------------*/
FoamFile
{
    version     2.0;
    format      ascii;
    class       volScalarField;
    location    "0.25";
    object      pd;
}
// * * * * * * * * * * * * * * * * * * * * * * * * * * * * * * * * * * * * * //

dimensions      [1 -1 -2 0 0 0 0];

internalField   nonuniform List<scalar> 
2268
(
1312.79
1310.55
1308.39
1289.55
1289.96
1258.82
1258.9
1224.27
1220.38
1201.05
1232.97
1270.94
1226.87
1237.67
1236.14
1235.08
1310.58
1225.8
1337.36
1370.72
1493.56
1538.35
1537.37
1312.61
1310.32
1308
1289.37
1289.31
1258.42
1257.95
1223.15
1219.5
1190.22
1270.32
1246.99
1215.91
1229.64
1232.76
1231.76
1338.79
1184.29
1337.76
1320.09
1503.14
1547.21
1533.75
1312.13
1309.85
1307.43
1289.49
1289.36
1256.57
1258.39
1222.03
1218.53
1183.56
1258.34
1233.64
1216.8
1229.23
1226.46
1230.17
1297.84
1224.36
1331.9
1377.58
1454.32
1482.19
1525.23
1311.61
1309.15
1306.11
1289.1
1287.21
1256.59
1255.61
1215.72
1214.77
1231.02
1226.83
1223.33
1205.74
1218.41
1216.64
1221.69
1268.04
1239.37
1318.94
1358.06
1412.22
1527.48
1495.54
1310.6
1308.22
1305.03
1289.11
1287.76
1252.37
1257.39
1224.92
1196.32
1236.01
1215.28
1213.57
1199.83
1215.19
1210.5
1220.31
1255.67
1249.74
1323.31
1369.26
1378.09
1453.97
1442.95
1309.79
1307.06
1302.91
1287.56
1283.93
1254.74
1243.54
1208.28
1230.58
1216.45
1209.12
1202.53
1192.79
1204.69
1197.71
1208.78
1237.15
1243.91
1287.59
1375.24
1281.74
1389.44
1400.09
1308.16
1305.75
1301.43
1288.4
1284.46
1243.33
1265.97
1195.88
1231.22
1208.03
1200.81
1190.05
1178.35
1195.26
1187.85
1195.8
1220.49
1242.22
1270.31
1372.51
1330.99
1222.54
1326.38
1307.17
1304.2
1298.36
1281.51
1276.87
1258.07
1233.94
1216.37
1221.07
1196.56
1193.52
1171.81
1175.76
1180.75
1168.02
1181.93
1198.62
1219.4
1247.72
1316.48
1259.22
1216.15
1281.95
37.3998
37.4444
37.614
37.793
37.8286
37.9035
37.9332
37.9243
37.9009
37.8768
37.8251
37.7679
37.7158
37.6345
37.5861
37.4568
37.4599
37.3841
37.3755
37.3071
37.3848
37.6332
37.8112
37.8355
37.9123
37.9461
37.9134
37.9069
37.8769
37.8254
37.7682
37.7212
37.6296
37.5768
37.4639
37.4472
37.3831
37.3727
37.2537
37.2538
37.6226
37.8666
37.8314
37.932
37.9567
37.9352
37.9157
37.8846
37.832
37.7736
37.713
37.6499
37.5644
37.4661
37.4429
37.3788
37.3672
37.161
37.2426
37.5882
37.9236
37.8822
37.9442
37.9738
37.9221
37.9195
37.887
37.8345
37.7767
37.7099
37.6259
37.5482
37.4646
37.4314
37.3724
37.359
37.0155
37.1476
37.543
37.9462
37.8767
37.968
38.0053
37.942
37.94
37.9019
37.8404
37.7862
37.6927
37.6474
37.5471
37.4613
37.4224
37.3633
37.3482
36.7
36.9061
37.6943
37.9505
37.9256
38.0023
38.0322
37.952
37.9351
37.9158
37.8489
37.7866
37.6909
37.6312
37.5366
37.4555
37.4102
37.3522
37.3347
37.2201
36.6121
37.877
37.9763
37.7632
38.005
38.0624
37.9555
37.9555
37.9418
37.8524
37.8016
37.6856
37.6267
37.5297
37.4472
37.3966
37.3379
37.318
55.2275
36.6768
38.3085
38.0509
37.7929
38.0786
38.0966
37.9434
38.0108
37.9461
37.8653
37.798
37.6793
37.6338
37.5185
37.4387
37.3814
37.3216
37.2987
1303.15
1301.41
1290.85
1297.02
1281.77
1209.21
1267.54
1201.09
1212.61
1183.1
1176.15
1138.79
1126.34
1171.61
1138.61
1146.07
1170.86
1206.63
1252.98
1267.37
1402.84
689.935
739.843
1300.21
1296.07
1288.89
1255.92
1277.88
1243.78
1237.45
1211.06
1195.32
1160.57
1143.47
1071.32
1073.91
1078.79
1045.19
1063.58
1076.13
1107.26
1100.69
1311.29
931.531
892.099
725.808
1287.66
1282.81
1276.86
1261.66
1260.38
1231.35
1228.47
1193.08
1176.13
1130.66
1073.08
929.152
955.824
916.562
856.716
863.598
888.521
954.632
1033.22
1060.75
1266.18
570.711
1212.94
1259.97
1254.84
1251.74
1236.44
1231.89
1209.45
1194.52
1169.74
1133.46
1070.37
914.46
626.582
661.034
585.092
446.987
441.893
457.687
521.808
656.849
764.332
866.748
762.612
1033.18
1182.69
1176.81
1175.37
1160.87
1156.36
1132.59
1126.54
1098.52
1060.03
890.76
579.561
285.657
299.446
248.733
174.62
153.874
161.436
182.958
240.637
346.453
574.824
567.138
683.653
995.289
987.875
986.134
970.603
962.939
951.89
967.517
962.621
869.157
562.852
235.419
103.027
114.768
97.1399
67.7359
56.452
53.9006
59.6132
87.7439
150.587
334.759
276.904
517.797
558.176
552.67
553.653
546.287
547.014
564.605
630.352
670.321
535.837
244.903
79.4105
42.6792
53.0615
46.3443
36.2057
19.6761
13.443
13.0558
18.4731
23.8849
83.6739
76.0624
81.5635
208.169
206.764
207.537
208.127
211.988
234.368
292.266
348.404
252.763
97.4282
29.6757
20.9798
28.1137
26.6153
16.8301
7.04666
3.13366
3.31071
4.27193
2.44373
10.1511
8.71748
8.84158
71.7288
71.1584
71.2824
71.9856
73.2442
84.8105
113.836
146.619
109.055
38.7533
12.7841
11.9401
12.7729
13.0437
7.75323
3.1858
3.22693
3.31988
2.79139
2.92231
2.69233
2.43615
2.46682
23.5289
23.5443
23.407
22.949
22.125
24.4587
32.0473
46.7971
40.2433
17.3563
7.37812
6.47578
6.85766
5.25631
2.76676
2.78708
2.90463
3.02069
2.93866
2.47763
2.36441
2.97419
2.4876
7.101
7.30292
7.14758
6.69051
5.79748
5.10611
5.61458
8.83077
9.7087
5.95858
2.87836
3.16482
3.23805
2.70593
2.46611
2.5548
2.991
3.05182
2.79858
2.76353
2.76752
1.92604
2.57421
2.16797
2.25563
2.16317
2.02116
2.09829
2.21461
2.19646
2.30821
2.11138
2.2099
2.16012
2.36911
2.48343
2.572
2.54574
2.47277
2.65168
2.45408
2.51275
2.78865
1.96083
2.55198
2.79964
2.17471
2.27434
2.32107
2.37909
2.284
2.28072
2.31111
2.10551
2.31661
2.23207
2.4003
2.20495
2.44874
2.21162
2.43512
2.65013
2.40975
2.55087
2.79253
2.66413
2.30586
2.37126
2.17552
2.09899
1.80017
1.85299
1.86111
1.86977
2.17559
1.909
1.9996
2.18466
2.0614
2.09504
2.02744
2.19137
2.34759
2.27923
2.21023
2.46531
1.93072
1.77995
2.49179
2.04206
2.13415
2.06827
1.6916
1.80863
1.81522
1.80188
1.84413
1.57703
1.96494
1.8939
1.92442
2.0232
2.0348
2.00574
2.08028
2.04025
2.15281
1.80843
2.48817
2.34372
1.76292
1.88257
1.88322
2.16855
2.02722
1.41901
1.59195
1.74066
1.72188
1.78001
1.73748
1.83593
1.81513
1.85992
1.89223
1.91086
1.914
1.94283
1.90229
1.86652
2.24418
1.99976
2.55156
2.50695
2.36716
1.75488
1.66305
2.60834
1.90766
1.42514
1.46389
1.57518
1.62741
1.66952
1.85094
1.80078
1.80815
1.81405
1.8136
1.83482
1.79599
1.99023
2.094
1.73157
1.5431
1.33037
1.84729
1.61231
1.61227
1.2233
2.15748
1.91114
2.07849
2.03133
1.73716
1.66785
1.59829
1.6139
1.52277
1.63847
1.77937
1.77918
1.72998
1.98493
1.75904
1.53756
1.66846
1.84276
1.69757
2.28187
1.59896
1.54482
1.22775
1.45237
1.8107
1.76081
1.82189
1.46664
1.94299
1.51114
1.70627
1.88872
1.56232
1.60885
1.65555
1.58145
1.41558
1.5243
1.68695
1.82849
2.0806
1.45707
1.74072
1.65052
1.60437
2.07645
1.53992
1.78222
1.81764
1.83123
1.84983
1.81455
1.82134
1.53615
1.71467
1.89923
1.44351
1.58707
1.79525
1.67576
1.79763
1.86265
1.66115
1.84334
1.62405
1.72314
1.5541
1.36001
1.44229
0.807047
1.88832
1.76473
1.79269
1.96087
1.81909
2.01684
1.90113
1.91575
1.78056
1.97885
1.92306
1.91242
1.89867
1.88464
1.6977
1.616
1.67073
1.46572
1.40161
1.18214
1.10536
1.57908
1.21214
1.57827
1.85855
2.05541
1.49737
2.11094
1.43749
2.11031
1.53915
2.02951
1.78062
1.98601
1.84558
1.77769
1.56177
1.5033
1.40876
1.40264
1.43221
1.5965
1.86868
0.969456
0.9387
1.63076
1.07761
0.851755
0.895259
1.21097
0.899676
1.2867
1.0809
1.41704
1.36728
1.84633
1.48745
1.53815
1.87433
1.95343
1.59341
1.6517
1.58726
1.41485
0.732182
1.20969
1.21897
0.463617
0.860222
1.13264
1.1223
1.14049
1.13455
1.12805
1.16109
1.1314
1.19521
0.974746
0.738009
1.16104
1.06188
0.737534
1.19032
1.00109
0.362739
0.623697
1.1536
0.555213
0.128365
-0.467489
-0.0737316
0.552926
0.928785
0.923681
0.925524
0.95939
0.970166
1.01683
0.990301
0.996222
0.994167
1.09983
0.960678
1.07452
1.13784
0.800231
0.801835
0.800706
0.449636
0.519866
0.630505
0.805214
0.0089694
0.0658093
0.15939
0.84864
0.846863
0.847617
0.855756
0.854514
0.875691
0.865141
0.85493
0.85481
0.841799
0.861443
0.852995
0.840114
0.854375
0.53864
0.784433
0.556297
0.788736
0.498778
-0.0243866
-0.1455
-0.15917
-0.029186
0.696557
0.68901
0.699326
0.713038
0.759411
0.73953
0.73965
0.742753
0.731758
0.740221
0.752706
0.768063
0.794217
0.840677
0.754597
0.309506
0.627205
0.370568
0.660552
0.501547
-0.376268
-0.306329
-0.19299
0.593877
0.600377
0.590152
0.60898
0.571098
0.61306
0.588129
0.597748
0.592517
0.600674
0.605689
0.609834
0.649734
0.679856
0.773243
0.887784
-0.677529
0.231328
0.915427
-0.194747
-0.207949
-0.607692
-0.261797
0.459671
0.468798
0.461387
0.465429
0.441527
0.464427
0.460444
0.459821
0.455751
0.450022
0.449991
0.430471
0.440902
0.312552
0.416695
0.120568
0.089813
-0.0148588
-0.496626
0.906823
-0.0805705
-1.03711
-0.498172
0.325752
0.326238
0.324497
0.326881
0.324168
0.3282
0.323302
0.326188
0.316238
0.320292
0.296287
0.29332
0.269537
0.138435
0.280162
0.3957
0.778981
-0.911919
-0.32901
0.0707319
0.686488
-0.0321461
-0.781556
0.191897
0.193749
0.19016
0.191336
0.186126
0.18944
0.189568
0.190203
0.186518
0.192185
0.175183
0.200372
0.150543
0.217862
0.120147
0.3019
-0.128894
-0.599529
-0.0648397
0.230327
0.254125
-0.45772
-0.69577
0.0524426
0.0521932
0.0528726
0.0529857
0.0542312
0.0543307
0.0560909
0.0581159
0.0582547
0.0668135
0.0634772
0.0872744
0.0461843
0.19683
0.018665
-0.152533
-0.272913
-0.55299
-0.360678
0.0241848
0.302759
-0.0831484
-0.997554
-0.087739
-0.0872138
-0.0889058
-0.0886409
-0.0903858
-0.0906497
-0.0891381
-0.0909475
-0.0858322
-0.0813812
-0.085642
-0.0758731
-0.159647
-0.00506067
-0.00968969
-0.0767934
-0.0121554
0.553736
-0.72609
-1.27835
-0.189157
0.232662
0.208601
-0.228364
-0.227694
-0.227948
-0.227588
-0.228236
-0.227546
-0.224148
-0.225528
-0.210575
-0.219377
-0.183055
-0.196014
-0.167059
-0.0636662
0.024543
-0.157917
-0.398378
-0.536333
-1.24882
-0.669141
-0.684387
-0.276087
-0.0832631
-0.373249
-0.372913
-0.375023
-0.374887
-0.379127
-0.378422
-0.380045
-0.38025
-0.370532
-0.378521
-0.333557
-0.404566
-0.185266
-0.118665
-0.193051
-0.263327
-0.345157
-0.230424
0.314277
0.154499
-0.468549
-0.542782
-0.512106
-0.522007
-0.52223
-0.525782
-0.52311
-0.529562
-0.525491
-0.535181
-0.52358
-0.525379
-0.503409
-0.491245
-0.446416
-0.400779
-0.266442
-0.347825
-0.431162
-0.370236
-0.44335
-0.377598
-1.18724
-1.95982
0.652177
-2.49534
-0.65413
-0.654909
-0.658521
-0.657941
-0.664166
-0.664511
-0.673564
-0.673706
-0.680325
-0.697643
-0.628176
-0.430139
-0.294806
-0.0116717
-0.465398
-0.430016
-0.485747
-0.568779
-0.592228
-0.972686
-0.782135
-0.542206
-1.09807
-0.809521
-0.809903
-0.816683
-0.818146
-0.830934
-0.833656
-0.85304
-0.882079
-0.891129
-0.804634
-0.944486
-0.966704
-1.12629
-1.8319
-0.775353
-0.678279
-0.847723
-0.787067
-0.881866
-0.997401
-1.06947
-0.832544
-0.997138
-0.943115
-0.943428
-0.948849
-0.949318
-0.960795
-0.954645
-0.976411
-0.932671
-1.00231
-0.944176
-1.03308
-1.02971
-1.19625
-1.22386
-1.01956
-0.776715
-0.922931
-0.77096
-1.09885
-1.16941
-1.414
-1.09271
-1.42017
-1.06716
-1.07109
-1.0799
-1.08721
-1.10285
-1.11384
-1.14203
-1.14569
-1.19819
-1.21536
-1.29369
-1.30515
-1.35249
-1.3546
-1.09312
-0.79003
-0.688846
-0.701356
-0.911979
-1.46679
-1.54854
-1.20472
-1.66903
-1.32673
-1.33094
-1.34055
-1.34912
-1.36494
-1.38322
-1.42087
-1.4507
-1.51412
-1.57512
-1.67361
-1.74048
-1.83304
-1.46862
-1.33569
-1.15195
-1.15852
-1.18117
-1.51783
-2.24427
-2.20647
-2.00325
-2.34295
-0.274059
-0.276698
-0.278773
-0.285752
-0.300107
-0.304603
-0.323544
-0.329357
-0.373848
-0.416559
-0.496264
-0.641083
-0.896873
-1.59662
-2.70138
-3.46073
-3.38211
-3.6532
-3.60588
-2.34649
-2.08647
-4.04919
-2.11311
469.181
-24.5436
357.226
580.033
837.452
798.617
1133.7
907.912
967.557
567.253
1172.72
1165.44
1065.28
1042.41
1117.28
1186.08
1249.28
1123.95
1095.66
1105.78
544.741
580.705
673.722
685.198
103.525
137.282
178.903
217.56
12.6352
19.8875
36.6742
71.3731
2.11578
2.21091
4.47323
8.91053
2.38942
2.54703
2.51929
2.52889
1.97116
1.88638
1.90389
1.79093
2.27042
2.0419
1.78502
1.56835
2.48147
2.47672
1.69377
1.59452
2.29373
2.10102
1.6077
1.55259
1.97297
1.77985
1.63675
1.58442
2.40184
2.48411
1.74818
1.36291
2.19662
2.18856
2.06673
2.17317
1.67462
1.59322
1.74273
1.74494
1.83399
1.95344
1.49287
1.45501
1.31912
1.69681
1.04167
0.855754
1.03123
0.972356
0.746663
0.586971
1.25555
1.181
1.34501
0.849256
0.599968
0.34192
0.251017
-0.0507063
0.34352
0.267103
0.298442
0.258579
-0.0803886
-0.166824
-0.298833
-0.384214
-0.15451
-0.1909
-0.277207
-0.308526
-0.218316
-0.232892
-0.272021
-0.288592
-0.319612
-0.329312
-0.300501
-0.294118
-0.340543
-0.294925
-0.113678
0.176036
-0.773329
-1.00694
-1.39336
-1.90357
-0.719707
-0.847998
-1.02415
-1.09637
-0.745742
-0.617741
-0.511038
-0.56849
-0.458976
-0.482909
-0.485878
0.101467
-0.0133626
0.179511
-0.0844564
0.238887
-0.70976
-0.995073
-1.13701
-1.61946
-0.426351
-1.21905
-1.23336
-0.967443
-0.748032
-0.440914
-0.7657
-1.29153
-0.858265
-0.556284
-0.11701
-0.600202
-1.70288
-2.1555
-1.43187
-1.02559
-1.50345
-1.45085
-2.42781
-2.13895
-2.17824
-2.34278
-2.99322
-3.33677
-3.3356
-3.35919
-2.91905
-2.88953
157.729
89.7253
42.7423
37.7254
37.5348
38.7771
38.1953
37.9142
38.0008
37.9783
37.9373
37.8087
37.6757
37.5974
37.4993
37.4152
37.3534
37.2899
37.2618
686.334
480.498
201.265
42.6493
38.466
51.3676
41.1132
37.8923
37.8355
38.0026
37.8601
37.8752
37.758
37.5761
37.483
37.3972
37.3089
37.2374
37.198
860.515
1155.63
564.617
285.507
187.92
156.212
74.9003
43.6311
39.8871
37.9221
38.0987
38.0346
37.5773
37.523
37.4118
37.3402
37.2421
37.1596
37.1061
1026.33
967.541
1491.54
487.257
528.854
356.587
91.0875
20.1008
54.775
37.6743
37.8699
37.8241
37.6562
37.5552
37.4069
37.3359
37.1692
37.0667
36.9907
1384.92
57.071
1234.3
659.213
1438.55
1314.58
505.19
277.571
235.075
63.2372
41.0932
38.5661
37.4265
37.3529
37.4007
37.2807
37.0782
36.9377
36.8267
1064.54
684.247
1121.05
326.388
1413.94
1057.78
921.498
843.538
911.09
418.832
205.609
98.5212
54.2946
40.9757
37.431
37.3477
36.8212
36.7307
36.6016
391.996
706.424
355.99
1143.57
1301.42
1479.67
2016.63
1069.26
778.806
134.465
315.212
163.79
91.7003
63.0441
38.8366
37.4216
36.9091
36.4706
36.2922
174.31
241.136
312.804
326.724
374.536
747.106
1075.33
1338.48
858.116
377.162
217.315
115.858
60.927
43.4747
36.2517
36.4756
36.2348
35.9906
35.8353
17.0095
34.5066
45.4444
72.4914
105.969
275.049
877.287
1304.02
695.53
1012.63
678.066
373.012
199.327
71.4965
42.1545
37.1969
35.8717
35.4187
35.2065
1.59793
2.06892
6.4788
18.274
20.5443
76.734
271.777
543.184
697.121
967.558
809.963
345.554
173.269
100.197
42.9886
37.7371
35.7684
34.7683
34.4706
2.11059
0.534829
0.998499
2.23181
1.86179
21.7874
168.208
783.771
1110.23
1169.9
853.884
413.789
148.087
53.3933
36.2061
34.3443
33.712
33.3746
33.2779
1.05819
0.430448
1.0785
1.76001
0.577404
-0.900117
50.1237
439.306
816.974
961.092
870.066
534.219
239.094
65.747
40.2011
33.648
32.271
32.0136
31.9286
1.21588
0.542231
0.498053
1.42588
2.10311
18.9346
184.549
521.965
591.512
1060.97
952.929
651.896
225.113
85.8845
46.457
34.1009
31.2711
30.5324
30.4812
1.87421
0.382389
1.14235
1.50788
2.46007
32.8048
143.881
603.895
610.592
959.212
827.974
546.166
355.017
112.829
53.9448
36.0141
30.0854
28.7546
28.7447
1.83944
0.714903
1.54749
0.96599
2.24107
34.8929
148.158
623.948
540.914
572.256
520.758
387.62
218.773
158.436
54.9105
38.4875
28.8081
26.5757
26.9036
0.629215
0.188155
1.92147
1.64773
3.27468
22.9909
131.891
404.496
459.752
452.879
287.099
235.858
131.404
86.3225
49.0006
33.7245
25.964
24.0281
24.7854
1.22655
0.440699
1.47663
1.89813
5.07706
26.9992
175.284
268.422
377.003
319.238
124.652
91.3956
75.4611
48.8781
37.1677
25.7393
22.0256
21.7358
21.9928
1.65838
0.312871
1.15237
0.656877
-0.344182
13.5954
107.327
235.319
275.052
224.067
107.526
45.9698
32.6464
24.0211
24.5529
20.3093
18.3869
19.2545
19.4311
1.58732
1.19809
1.09911
0.303117
-0.654985
4.18245
78.3315
199.172
241.317
189.174
65.8177
26.7272
19.3504
20.0492
17.5841
15.701
16.5711
17.1976
17.5644
0.576821
0.447594
1.42525
0.214097
0.777594
0.681491
39.6051
151.379
169.502
148.725
82.2044
37.2478
20.9994
16.1019
14.8522
14.1269
14.8983
15.7553
16.2608
0.551819
-0.306028
0.87851
0.120632
1.79531
2.3876
21.3564
138.322
161.15
151.722
77.3568
34.1795
17.9955
14.3675
13.6736
13.3035
13.3807
14.2342
14.8156
0.825536
0.65123
0.408197
0.648344
2.42557
12.6902
67.9632
178.335
207.643
131.326
60.8769
29.159
16.7796
13.7858
13.2267
13.0825
12.9448
12.8534
13.0512
0.11932
0.738304
0.489488
0.454377
4.11057
20.8408
102.859
196.682
168.247
100.434
39.41
21.0219
15.1923
13.1881
12.9081
13.1666
13.6485
12.9299
12.9532
0.529528
-0.201888
-0.0188399
0.515842
6.80058
29.3934
119.273
177.551
135.899
56.2834
26.586
18.7835
13.7231
12.8164
12.5614
12.9718
13.8089
13.2257
13.4284
-0.976025
-1.45008
0.359514
1.31147
9.14022
45.4413
141.386
166.029
91.865
35.0084
17.2507
14.1822
12.8622
12.2251
12.0652
12.407
12.4474
12.7823
13.0275
-0.530475
-0.550598
0.158776
2.02225
7.04146
46.7846
158.167
155.838
97.587
38.2577
16.9453
13.0122
13.0712
11.2889
11.4266
11.7549
11.2368
12.1074
12.7277
-0.367176
0.693802
-0.189617
1.76029
7.00436
41.6751
136.787
133.979
84.9319
33.0503
14.3333
11.827
8.70926
9.96957
10.3618
10.4996
10.6068
11.2427
12.1587
-0.643334
0.3748
0.952484
6.00107
17.8939
61.8009
149.649
122.922
79.6543
25.7866
9.90054
7.92829
6.59662
9.52919
9.36399
9.44468
9.84368
9.98927
10.212
0.234053
-0.24261
2.03715
9.77887
30.3784
91.0091
120.519
121.665
76.8638
26.2124
11.3647
8.68712
5.72278
10.2464
8.85152
8.85027
9.48327
9.31797
8.83787
-1.23454
-0.466929
2.79076
18.5268
62.0407
121.826
117.842
94.572
64.1754
25.2361
8.8697
7.59196
8.74417
6.1811
9.20922
8.41879
9.58212
9.26904
8.6761
-1.07742
-0.867653
2.5429
19.5483
67.405
109.964
103.119
85.4245
41.6453
15.9491
7.77248
4.93034
8.40343
4.26424
5.05813
7.13485
9.53607
8.9706
8.55682
-0.815105
0.0967927
0.882552
9.64869
62.8802
122.352
125.799
99.1682
40.1186
11.1678
7.58293
2.44824
1.89646
3.40549
3.98257
6.37907
3.24385
8.17745
7.25011
1.10831
1.71982
2.60503
6.5875
46.0243
116.089
120.608
101.15
36.5077
8.28498
0.578765
1.11
0.687944
1.80319
2.2506
1.28019
1.01007
2.17555
5.47962
0.515003
0.810312
3.82705
7.02898
39.6435
102.272
106.614
94.2035
38.981
8.52341
0.598514
0.871364
0.205127
0.767521
1.09678
0.437638
0.781646
-0.422222
-1.16707
-1.25481
-0.249887
2.0247
7.708
28.7497
92.5983
110.484
94.4332
40.9475
7.86859
-0.0411743
-0.703137
0.0508493
1.27536
0.0196217
-0.168283
-0.0558702
-0.962312
-1.31042
-0.197867
1.0747
1.77837
6.93874
16.0168
69.6316
96.8383
86.2616
41.0874
7.55161
-1.27429
-1.45706
0.284143
2.53789
2.44238
2.72955
0.227965
-1.6139
-2.08157
-1.05839
0.0658425
2.06964
6.88577
12.5996
41.7244
98.0932
80.2854
42.6803
5.72723
-3.01853
-2.18661
1.12351
4.92071
8.68122
9.92108
4.20923
-1.78581
-3.17312
-0.788562
-0.076655
2.10109
6.62974
10.8399
32.2626
89.0798
77.7734
30.9365
3.58778
-6.58132
-4.69491
-0.848073
6.21617
11.2616
10.9355
4.96363
-1.7059
-4.37082
-1.31992
-0.703509
-0.160218
6.98936
11.6297
30.5713
73.829
63.8151
22.1327
0.345183
-10.4943
-7.4847
-1.67221
7.92464
11.5365
9.513
5.05713
-2.5554
-5.68949
-1.82181
-2.09783
-2.7456
3.78431
16.053
25.9665
64.4964
42.648
20.017
-4.95308
-11.4536
-9.49822
-2.52212
8.62006
9.83168
8.33923
2.76803
-4.08318
-6.87728
-3.12664
-3.96373
-4.10141
-2.67923
1.01023
14.8095
37.4842
34.6498
5.13758
-14.533
-15.6049
-12.4345
2.60915
10.2815
9.21258
3.78156
-0.498633
-4.26149
-5.85209
-3.16181
-6.46069
-3.49064
-4.80476
-5.19415
-2.90447
-6.34359
-13.4922
-10.939
-17.8639
-17.0883
-12.4065
-5.04067
-2.03878
-4.24322
-4.91479
-4.83255
-5.24576
-4.84423
)
;

boundaryField
{
    leftWall
    {
        type            zeroGradient;
    }
    rightWall
    {
        type            zeroGradient;
    }
    lowerWall
    {
        type            zeroGradient;
    }
    atmosphere
    {
        type            totalPressure;
        rho             rho;
        psi             none;
        gamma           1;
        p0              uniform 0;
        value           nonuniform List<scalar> 
46
(
-0.890826
-0.897775
-0.903519
-0.912277
-0.927716
-0.940295
-0.968405
-0.985391
-1.03573
-1.0809
-1.15833
-1.23102
-1.45642
-1.61114
-2.03494
-2.45461
-2.49035
-2.60814
-2.76038
-2.53224
-2.43413
-3.24311
-2.58469
-3.02808
-3.27788
-3.37353
-3.49878
-3.58151
-5.60023
-4.19382
-3.87861
-4.47362
0
0
0
0
0
0
0
0
0
0
0
0
0
0
)
;
    }
    defaultFaces
    {
        type            empty;
    }
}


// ************************************************************************* //
