/*--------------------------------*- C++ -*----------------------------------*\
| =========                 |                                                 |
| \\      /  F ield         | foam-extend: Open Source CFD                    |
|  \\    /   O peration     | Version:     4.1                                |
|   \\  /    A nd           | Web:         http://www.foam-extend.org         |
|    \\/     M anipulation  |                                                 |
\*---------------------------------------------------------------------------*/
FoamFile
{
    version     2.0;
    format      ascii;
    class       surfaceScalarField;
    location    "0.25";
    object      phi;
}
// * * * * * * * * * * * * * * * * * * * * * * * * * * * * * * * * * * * * * //

dimensions      [0 3 -1 0 0 0 0];

internalField   nonuniform List<scalar> 
4432
(
3.74751e-06
-3.74751e-06
7.51354e-06
-3.76602e-06
1.18083e-05
-4.29474e-06
1.47396e-05
-2.93136e-06
1.87952e-05
-4.05555e-06
2.31726e-05
-4.37742e-06
2.7264e-05
-4.09138e-06
3.05585e-05
-3.29455e-06
3.26565e-05
-2.09793e-06
2.94306e-05
3.2259e-06
5.19564e-05
-2.25258e-05
5.67067e-05
-4.75034e-06
6.03243e-05
-3.61757e-06
6.3356e-05
-3.03172e-06
6.42322e-05
-8.76227e-07
6.47542e-05
-5.21964e-07
7.06825e-05
-5.9283e-06
6.70939e-05
3.58865e-06
6.30133e-05
4.08053e-06
5.01701e-05
1.28433e-05
4.06741e-05
9.49591e-06
2.40731e-05
1.66011e-05
2.40731e-05
3.78101e-06
-7.52852e-06
7.56882e-06
-7.55383e-06
1.18927e-05
-8.61863e-06
1.47314e-05
-5.77005e-06
1.91136e-05
-8.43775e-06
2.36106e-05
-8.87443e-06
2.73599e-05
-7.8407e-06
3.12765e-05
-7.21109e-06
3.29437e-05
-3.76511e-06
5.59869e-05
-1.98174e-05
5.44379e-05
-2.09768e-05
5.97644e-05
-1.00769e-05
6.31768e-05
-7.02988e-06
6.45882e-05
-4.44319e-06
6.34402e-05
2.71772e-07
6.23835e-05
5.3478e-07
3.92467e-05
1.72085e-05
4.0079e-05
2.75644e-06
3.7128e-05
7.03151e-06
5.16507e-05
-1.67949e-06
3.8958e-05
2.21887e-05
2.44621e-05
3.10969e-05
4.85352e-05
3.75016e-06
-1.12787e-05
7.49105e-06
-1.12947e-05
1.19302e-05
-1.30578e-05
1.47339e-05
-8.57371e-06
1.95351e-05
-1.32389e-05
2.34807e-05
-1.28201e-05
2.68931e-05
-1.12531e-05
3.19101e-05
-1.22281e-05
3.24439e-05
-4.29889e-06
5.27455e-05
-4.0119e-05
5.25939e-05
-2.08252e-05
5.6556e-05
-1.40389e-05
5.84615e-05
-8.93535e-06
6.04699e-05
-6.45164e-06
6.0847e-05
-1.05318e-07
6.15554e-05
-1.73621e-07
6.76167e-05
1.11471e-05
6.48993e-05
5.47387e-06
6.06412e-05
1.12896e-05
5.48546e-05
4.10713e-06
4.66977e-05
3.03455e-05
2.37119e-05
5.40827e-05
7.22471e-05
3.76235e-06
-1.5041e-05
7.56624e-06
-1.50986e-05
1.18848e-05
-1.73764e-05
1.55004e-05
-1.21893e-05
2.01098e-05
-1.78483e-05
2.31501e-05
-1.58603e-05
2.8246e-05
-1.63491e-05
3.02626e-05
-1.42447e-05
5.16832e-05
-2.57195e-05
4.73011e-05
-3.57368e-05
4.76788e-05
-2.12029e-05
5.04448e-05
-1.68049e-05
5.21698e-05
-1.06604e-05
5.44501e-05
-8.73191e-06
5.65128e-05
-2.16804e-06
5.86087e-05
-2.26957e-06
6.29754e-05
6.78047e-06
6.24779e-05
5.97135e-06
6.0988e-05
1.27795e-05
5.51661e-05
9.92898e-06
4.51151e-05
4.03965e-05
2.4155e-05
7.50429e-05
9.64021e-05
3.68632e-06
-1.87274e-05
7.55331e-06
-1.89656e-05
1.18682e-05
-2.16913e-05
1.5792e-05
-1.61131e-05
2.01632e-05
-2.22195e-05
2.28935e-05
-1.85907e-05
2.81648e-05
-2.16203e-05
2.87837e-05
-1.48637e-05
4.50676e-05
-4.20034e-05
4.12389e-05
-3.19082e-05
4.266e-05
-2.26239e-05
4.59663e-05
-2.01112e-05
4.84979e-05
-1.3192e-05
5.22964e-05
-1.25304e-05
5.54069e-05
-5.2785e-06
5.73367e-05
-4.19942e-06
5.99589e-05
4.15827e-06
5.81426e-05
7.78765e-06
5.78684e-05
1.30537e-05
5.82181e-05
9.57931e-06
4.79386e-05
5.0676e-05
2.46576e-05
9.83238e-05
0.00012106
3.67937e-06
-2.24067e-05
7.74173e-06
-2.30279e-05
1.20024e-05
-2.5952e-05
1.5696e-05
-1.98066e-05
1.99257e-05
-2.64493e-05
2.4024e-05
-2.2689e-05
2.51977e-05
-2.27939e-05
4.08753e-05
-3.05413e-05
3.75774e-05
-3.87055e-05
3.86565e-05
-3.29872e-05
4.11326e-05
-2.51001e-05
4.49501e-05
-2.39288e-05
4.86659e-05
-1.69078e-05
5.28815e-05
-1.6746e-05
5.65949e-05
-8.99187e-06
5.9211e-05
-6.81557e-06
6.26841e-05
6.85135e-07
6.14883e-05
8.98353e-06
6.16443e-05
1.28977e-05
3.6166e-05
3.50576e-05
5.90151e-05
2.78269e-05
2.63824e-05
0.000130957
0.000147442
3.55365e-06
-2.59604e-05
7.73253e-06
-2.72068e-05
1.17586e-05
-2.99781e-05
1.54145e-05
-2.34625e-05
1.97196e-05
-3.07544e-05
2.11449e-05
-2.41142e-05
2.11745e-05
-2.28236e-05
3.58996e-05
-4.52664e-05
3.59293e-05
-3.87352e-05
3.79911e-05
-3.5049e-05
4.16745e-05
-2.87835e-05
4.64691e-05
-2.87233e-05
4.97148e-05
-2.01535e-05
5.31741e-05
-2.02053e-05
5.82649e-05
-1.40826e-05
6.26524e-05
-1.12031e-05
6.58984e-05
-2.56088e-06
6.51086e-05
9.77335e-06
6.08803e-05
1.71259e-05
6.99258e-05
2.60122e-05
3.40749e-05
6.36778e-05
2.75671e-05
0.000137464
0.000175009
3.69153e-06
-2.96519e-05
7.89966e-06
-3.1415e-05
1.14713e-05
-3.35497e-05
1.47659e-05
-2.67572e-05
1.89185e-05
-3.4907e-05
1.8975e-05
-2.41707e-05
3.41034e-05
-3.79519e-05
3.42995e-05
-4.54626e-05
3.64127e-05
-4.08483e-05
3.86741e-05
-3.73105e-05
4.31025e-05
-3.3212e-05
4.75685e-05
-3.31892e-05
5.03804e-05
-2.29654e-05
5.49547e-05
-2.47795e-05
6.04657e-05
-1.95937e-05
6.39771e-05
-1.47145e-05
6.73977e-05
-5.98152e-06
6.82393e-05
8.93178e-06
6.63485e-05
1.90167e-05
4.12286e-05
5.11321e-05
7.64523e-05
2.84541e-05
5.38445e-05
0.000160072
0.000228854
4.19553e-06
-4.19553e-06
1.82189e-05
-1.40234e-05
1.89763e-05
-7.57386e-07
1.42215e-05
4.75487e-06
1.02817e-05
3.93981e-06
9.01996e-06
1.2617e-06
9.14925e-06
-1.29269e-07
4.91977e-06
4.22947e-06
9.92165e-06
-5.00187e-06
1.19589e-05
-2.03725e-06
1.37185e-05
-1.75963e-06
1.51245e-05
-1.40603e-06
1.65802e-05
-1.45562e-06
1.91675e-05
-2.58728e-06
1.12486e-05
7.91881e-06
1.6297e-05
-5.04828e-06
7.32309e-06
8.97386e-06
4.17115e-06
3.15194e-06
4.17113e-06
6.59709e-06
-1.07926e-05
1.57833e-05
-2.32096e-05
1.45764e-05
4.49425e-07
1.05873e-05
8.74401e-06
3.80923e-06
1.07179e-05
3.60848e-06
1.46243e-06
4.06325e-06
-5.84007e-07
7.63434e-06
6.58374e-07
8.77078e-06
-6.13831e-06
1.1468e-05
-4.73448e-06
1.26365e-05
-2.92813e-06
1.35093e-05
-2.2788e-06
8.19448e-06
3.85915e-06
9.8988e-06
-4.29154e-06
1.12209e-05
6.59664e-06
8.66603e-06
-2.49335e-06
7.09975e-06
1.05401e-05
3.93494e-06
6.31682e-06
8.10605e-06
7.82433e-06
-1.86169e-05
1.98118e-05
-3.5197e-05
1.24334e-05
7.82779e-06
8.3089e-06
1.28685e-05
3.01273e-06
1.60141e-05
2.96998e-06
1.50516e-06
6.68896e-06
-4.30296e-06
7.15566e-06
1.91664e-07
8.49092e-06
-7.47355e-06
1.10151e-05
-7.25874e-06
1.30228e-05
-4.93573e-06
1.37956e-05
-3.05161e-06
1.53947e-05
2.25996e-06
1.06928e-05
4.10455e-07
1.15472e-05
5.74219e-06
8.75565e-06
2.98236e-07
7.25535e-06
1.20404e-05
3.96652e-06
9.60571e-06
1.20725e-05
1.12301e-05
-2.9847e-05
2.53582e-05
-4.93252e-05
6.7954e-06
2.63906e-05
4.11828e-06
1.55457e-05
2.1424e-06
1.799e-05
5.83791e-06
-2.19038e-06
3.90089e-06
-2.36592e-06
6.60892e-06
-2.51637e-06
7.85766e-06
-8.72227e-06
1.07493e-05
-1.01504e-05
1.23118e-05
-6.49824e-06
1.44673e-05
-5.20706e-06
8.97281e-06
7.7544e-06
1.07015e-05
-1.31823e-06
1.11631e-05
5.28062e-06
9.07862e-06
2.38271e-06
7.41602e-06
1.3703e-05
3.96996e-06
1.30518e-05
1.60425e-05
1.96841e-05
-4.95311e-05
3.73662e-05
-6.70072e-05
6.73796e-06
5.70188e-05
6.78879e-07
2.16047e-05
-1.74976e-06
2.04186e-05
1.85472e-06
-5.79487e-06
5.78628e-06
-6.29749e-06
5.26263e-06
-1.99272e-06
8.11209e-06
-1.15717e-05
5.84114e-06
-7.87953e-06
7.17135e-06
-7.82842e-06
8.15396e-06
-6.18967e-06
1.54825e-05
4.25855e-07
1.07958e-05
3.3685e-06
1.19327e-05
4.1437e-06
9.58988e-06
4.72552e-06
7.6769e-06
1.5616e-05
4.10862e-06
1.66201e-05
2.01511e-05
3.71975e-05
-8.67286e-05
3.76988e-05
-6.75086e-05
5.92398e-06
8.87936e-05
-2.86957e-06
3.03983e-05
-6.96276e-06
2.45118e-05
-5.99679e-07
-1.2158e-05
5.81166e-06
-1.27089e-05
2.25051e-06
1.56843e-06
5.98354e-06
-1.53047e-05
5.56913e-06
-7.46516e-06
7.27525e-06
-9.53453e-06
8.42462e-06
-7.33904e-06
8.89547e-06
-4.50226e-08
1.10154e-05
1.24859e-06
1.19243e-05
3.23475e-06
1.01189e-05
6.53096e-06
8.0441e-06
1.76908e-05
4.29634e-06
2.03679e-05
2.44474e-05
-2.75095e-05
-5.92191e-05
-1.45133e-05
-8.05047e-05
8.64686e-06
6.56334e-05
-4.55156e-06
4.35967e-05
-1.62159e-05
3.61762e-05
-6.37473e-06
-2.19991e-05
4.25337e-06
-2.3337e-05
1.47687e-06
4.34491e-06
6.15947e-06
-1.99873e-05
5.88745e-06
-7.19318e-06
1.40894e-05
-1.77365e-05
9.04344e-06
-2.29307e-06
9.457e-06
-4.58607e-07
1.13778e-05
-6.7223e-07
1.23795e-05
2.23311e-06
1.07191e-05
8.19134e-06
8.47088e-06
1.99389e-05
4.53846e-06
2.43004e-05
2.89858e-05
-4.82189e-05
-1.10002e-05
-6.53959e-05
-6.33277e-05
6.82846e-06
-6.59098e-06
-8.51673e-06
5.89418e-05
-1.97927e-05
4.74521e-05
-2.38784e-06
-3.9404e-05
5.09441e-06
-3.08192e-05
8.54843e-07
8.58446e-06
8.45314e-06
-2.75856e-05
6.1885e-06
-4.92857e-06
7.34337e-06
-1.88913e-05
8.83666e-06
-3.78636e-06
1.6763e-05
-8.38499e-06
1.15913e-05
4.49946e-06
1.32119e-05
6.12507e-07
1.15654e-05
9.83786e-06
9.05356e-06
2.24507e-05
4.87288e-06
2.84811e-05
3.38587e-05
7.65004e-06
-3.73019e-05
1.58854e-05
-3.96503e-05
2.16909e-05
-3.93552e-05
3.06087e-05
-3.56749e-05
3.55886e-05
-3.9887e-05
5.99549e-05
-4.85369e-05
6.85283e-05
-4.65254e-05
7.26034e-05
-4.95377e-05
7.72097e-05
-4.54546e-05
8.29631e-05
-4.30638e-05
9.66641e-05
-4.6913e-05
0.000105787
-4.23121e-05
0.000105555
-2.27334e-05
0.000119255
-3.84794e-05
0.000131984
-3.23231e-05
0.000140953
-2.36831e-05
0.000143509
-8.53788e-06
0.000146008
6.43317e-06
0.000145921
1.91038e-05
0.000168072
2.89807e-05
0.000133104
6.34221e-05
0.00021789
7.52865e-05
0.00022284
0.000223903
7.24034e-06
-4.45423e-05
1.56663e-05
-4.80763e-05
2.18035e-05
-4.54923e-05
4.11185e-05
-5.49899e-05
5.04157e-05
-4.91842e-05
5.89507e-05
-5.70719e-05
6.58088e-05
-5.33835e-05
7.19553e-05
-5.56842e-05
8.0679e-05
-5.41783e-05
8.89054e-05
-5.12902e-05
9.95802e-05
-5.75877e-05
0.000107279
-5.00112e-05
0.000112345
-2.77987e-05
0.000125206
-5.13407e-05
0.000142282
-4.93991e-05
0.000151952
-3.33534e-05
0.000163603
-2.01888e-05
0.000165595
4.44076e-06
0.000161729
2.29701e-05
0.000120453
7.02565e-05
0.000161646
2.22299e-05
0.000170675
6.62568e-05
0.00012245
0.000271065
1.09831e-05
-5.55253e-05
2.14115e-05
-5.85047e-05
3.25041e-05
-5.65849e-05
4.08363e-05
-6.33222e-05
5.00539e-05
-5.84018e-05
5.74384e-05
-6.44563e-05
6.734e-05
-6.32851e-05
7.57608e-05
-6.4105e-05
8.46296e-05
-6.30471e-05
9.46585e-05
-6.13191e-05
0.000107897
-7.0826e-05
0.000113567
-5.56818e-05
0.000118822
-3.3053e-05
0.000137944
-7.04634e-05
0.000157774
-6.92291e-05
0.000175497
-5.1076e-05
0.000186954
-3.16455e-05
0.000195619
-4.22431e-06
0.00020245
1.61387e-05
0.000219695
5.30113e-05
0.000172434
6.94907e-05
0.000178747
5.99442e-05
9.39026e-05
0.000207295
1.11661e-05
-6.66915e-05
2.15191e-05
-6.88577e-05
3.178e-05
-6.68458e-05
3.93298e-05
-7.0872e-05
4.89057e-05
-6.79778e-05
5.80388e-05
-7.35894e-05
6.6047e-05
-7.12933e-05
7.4261e-05
-7.23191e-05
8.41433e-05
-7.29293e-05
0.000103966
-8.11415e-05
0.00012013
-8.699e-05
0.000126984
-6.25358e-05
0.000142226
-4.82953e-05
0.000165333
-9.357e-05
0.000186553
-9.04492e-05
0.000204205
-6.87285e-05
0.000215128
-4.25684e-05
0.000223147
-1.22432e-05
0.000229864
9.42205e-06
0.000247435
3.54399e-05
0.000283923
3.30026e-05
0.000290068
5.37997e-05
7.50046e-05
0.000308966
1.00664e-05
-7.67579e-05
1.91747e-05
-7.7966e-05
2.87187e-05
-7.63898e-05
3.77722e-05
-7.99254e-05
4.72527e-05
-7.74582e-05
5.41554e-05
-8.04921e-05
6.07721e-05
-7.79099e-05
7.05522e-05
-8.20992e-05
8.68958e-05
-8.92729e-05
0.000108224
-0.00010247
0.00011975
-9.85164e-05
0.000125897
-6.86825e-05
0.000134534
-5.69325e-05
0.000133732
-9.2768e-05
0.000130204
-8.69204e-05
0.000125242
-6.37665e-05
0.000124734
-4.2061e-05
0.000152131
-3.96401e-05
0.000182421
-2.0868e-05
0.000201325
1.65365e-05
0.000158599
7.57287e-05
0.000173615
3.87831e-05
-7.52305e-06
0.000256143
1.01401e-05
-8.6898e-05
1.94748e-05
-8.73007e-05
2.95391e-05
-8.64542e-05
3.71569e-05
-8.75433e-05
4.53862e-05
-8.56876e-05
5.13673e-05
-8.64732e-05
5.57454e-05
-8.2288e-05
6.41302e-05
-9.0484e-05
8.17118e-05
-0.000106855
8.44448e-05
-0.000105203
8.06499e-05
-9.47215e-05
8.68218e-05
-7.48544e-05
8.96333e-05
-5.9744e-05
8.8107e-05
-9.12417e-05
6.86298e-05
-6.74432e-05
4.09333e-05
-3.607e-05
2.35904e-05
-2.47181e-05
3.95499e-05
-5.55996e-05
7.07141e-05
-5.20322e-05
0.000114542
-2.72915e-05
0.000169491
2.07799e-05
0.000278245
-6.99713e-05
-8.43513e-07
0.000271566
1.00329e-05
-9.69308e-05
1.97241e-05
-9.69919e-05
2.91999e-05
-9.593e-05
3.66456e-05
-9.49889e-05
4.283e-05
-9.18719e-05
4.51464e-05
-8.87897e-05
4.79741e-05
-8.51157e-05
5.3706e-05
-9.62159e-05
5.49709e-05
-0.000108119
5.34377e-05
-0.00010367
6.74163e-05
-0.0001087
8.84044e-05
-9.58425e-05
9.00692e-05
-6.14087e-05
9.37303e-05
-9.49029e-05
5.14002e-05
-2.51131e-05
3.29719e-05
-1.76418e-05
1.83757e-05
-1.01219e-05
2.98849e-05
-6.71088e-05
2.88469e-05
-5.09942e-05
0.000104246
-0.000102691
0.000169148
-4.4122e-05
0.000139354
-4.0177e-05
-3.98589e-05
0.000178369
4.95313e-06
-0.000101884
9.22227e-06
-0.000101261
1.44099e-05
-0.000101118
1.81274e-05
-9.87065e-05
2.14223e-05
-9.51669e-05
2.33748e-05
-9.07421e-05
3.02848e-05
-9.20257e-05
3.34399e-05
-9.93709e-05
3.24511e-05
-0.000107131
4.13459e-05
-0.000112564
7.39545e-05
-0.000141309
0.00010057
-0.000122458
0.000101829
-6.26672e-05
6.7496e-05
-6.05701e-05
5.97129e-05
-1.733e-05
4.16063e-05
4.64787e-07
5.35716e-05
-2.20872e-05
4.55029e-05
-5.90401e-05
4.11409e-05
-4.66322e-05
1.02801e-05
-7.18301e-05
2.93267e-05
-6.31687e-05
3.9789e-05
-5.06394e-05
-7.27276e-05
7.26577e-05
8.33237e-07
-0.000102717
1.14179e-06
-0.00010157
1.5648e-06
-0.000101541
3.44021e-06
-0.000100582
6.7499e-06
-9.84765e-05
9.62029e-06
-9.36125e-05
1.52348e-05
-9.76402e-05
1.87651e-05
-0.000102901
1.62924e-05
-0.000104658
3.51693e-05
-0.000131441
6.38445e-05
-0.000169984
5.87316e-05
-0.000117345
8.23914e-05
-8.6327e-05
6.68196e-05
-4.49984e-05
6.31128e-05
-1.36231e-05
6.88553e-05
-5.27773e-06
9.38273e-05
-4.70592e-05
8.42708e-05
-4.94835e-05
9.66592e-05
-5.90206e-05
8.54779e-05
-6.06487e-05
5.97853e-05
-3.74761e-05
9.83135e-05
-8.91676e-05
-4.52326e-05
7.08185e-05
9.86305e-07
-0.000103703
1.2071e-06
-0.00010179
2.00986e-06
-0.000102343
4.76767e-06
-0.00010334
8.05372e-06
-0.000101763
1.19966e-05
-9.75554e-05
1.43051e-05
-9.99487e-05
1.37651e-05
-0.000102361
1.41883e-05
-0.000105081
2.39376e-05
-0.000141191
2.00904e-05
-0.000166137
1.92996e-05
-0.000116555
1.9564e-05
-8.65914e-05
3.98137e-05
-6.5248e-05
4.327e-05
-1.70795e-05
6.17023e-05
-2.371e-05
0.000123345
-0.000108702
0.000153196
-7.93341e-05
0.000119799
-2.56233e-05
0.000124622
-6.54723e-05
0.000202252
-0.000115106
0.000149916
-3.6832e-05
-6.37157e-05
0.000168399
2.69355e-06
-0.000106397
1.06326e-06
-0.00010016
1.54542e-06
-0.000102826
3.95871e-06
-0.000105753
4.88791e-06
-0.000102692
1.83055e-05
-0.000110973
3.2099e-05
-0.000113742
4.1093e-05
-0.000111355
3.14877e-05
-9.5476e-05
-6.86768e-06
-0.000102835
-4.10539e-05
-0.00013195
-5.54049e-06
-0.000152068
2.94087e-06
-9.50727e-05
3.11902e-05
-9.34974e-05
7.47012e-05
-6.05904e-05
9.97855e-05
-4.87943e-05
0.000135533
-0.00014445
0.000160546
-0.000104347
0.000179866
-4.49428e-05
0.000228725
-0.000114332
0.0001636
-4.99807e-05
0.000266956
-0.000140188
-0.000129763
0.000333003
1.00509e-05
-0.000116448
2.38581e-06
-9.2495e-05
2.17297e-06
-0.000102613
-3.65399e-08
-0.000103543
-6.13417e-07
-0.000102115
1.39469e-05
-0.000125533
3.85149e-05
-0.00013831
3.89588e-05
-0.000111799
3.68477e-05
-9.33649e-05
2.90782e-05
-9.50656e-05
2.39209e-05
-0.000126793
3.66032e-05
-0.00016475
2.61168e-05
-8.45864e-05
8.15659e-05
-0.000148947
0.000107378
-8.6402e-05
0.00013957
-8.09865e-05
9.08213e-05
-9.57017e-05
8.16531e-05
-9.51787e-05
0.000161207
-0.000124497
0.000150219
-0.000103343
0.000254828
-0.00015459
0.000259681
-0.000145041
-4.9949e-05
0.000179867
4.47337e-06
-0.000120921
2.57631e-06
-9.0598e-05
1.34619e-05
-0.000113498
1.93846e-05
-0.000109466
5.09984e-05
-0.000133729
8.28174e-05
-0.000157352
0.000112474
-0.000167966
9.47255e-05
-9.40509e-05
9.28366e-05
-9.1476e-05
8.86558e-05
-9.08848e-05
5.51894e-05
-9.33268e-05
7.4739e-05
-0.0001843
7.16205e-05
-8.14679e-05
3.06341e-05
-0.00010796
4.10865e-05
-9.68545e-05
0.000136353
-0.000176253
0.000155565
-0.000114914
0.00016278
-0.000102393
0.000109187
-7.09039e-05
0.000144985
-0.000139141
0.000159096
-0.000168701
0.000163124
-0.000149069
-0.00013662
0.000249795
4.65191e-05
-0.00016744
5.25062e-05
-9.6585e-05
5.09494e-05
-0.000111942
4.85219e-05
-0.000107039
2.91002e-05
-0.000114307
8.06557e-05
-0.000208908
3.47012e-05
-0.000122012
6.22915e-05
-0.000121641
7.9297e-05
-0.000108482
9.82294e-05
-0.000109817
0.000110488
-0.000105585
4.02143e-05
-0.000114026
6.41739e-05
-0.000105428
6.26862e-05
-0.000106472
7.29856e-05
-0.000107154
0.000117333
-0.0002206
0.000111661
-0.000109243
0.000126476
-0.000117208
0.000187444
-0.000131872
0.000237304
-0.000189002
0.000265525
-0.000196921
0.000278544
-0.000162089
-0.000109239
0.000251163
-3.61156e-05
-0.000131325
3.91282e-06
-0.000136613
3.51542e-05
-0.000143183
5.96006e-05
-0.000131485
7.76321e-05
-0.000132339
1.69569e-05
-0.000148233
2.89123e-05
-0.000133967
3.7408e-05
-0.000130137
5.71249e-05
-0.000128198
6.50422e-05
-0.000117735
7.72519e-05
-0.000117795
8.51273e-05
-0.000121902
9.86034e-05
-0.000118904
0.000112126
-0.000119995
0.000127515
-0.000122543
5.19135e-05
-0.000144999
0.000139222
-0.000196552
0.000110758
-8.87435e-05
0.000122286
-0.0001434
0.000151716
-0.000218431
0.000167442
-0.000212647
0.000158541
-0.000153188
-0.000224941
0.000274242
7.09791e-06
-0.000138423
2.78269e-05
-0.000157342
3.82126e-05
-0.000153569
4.35298e-05
-0.000136802
5.27328e-05
-0.000141542
5.09107e-05
-0.000146411
5.38643e-05
-0.000136921
5.61451e-05
-0.000132418
5.88329e-05
-0.000130886
6.50442e-05
-0.000123946
7.40685e-05
-0.000126819
7.9069e-05
-0.000126902
8.8824e-05
-0.000128659
0.000100701
-0.000131872
0.000114386
-0.000136227
9.61582e-05
-0.000126771
0.000152844
-0.000253237
0.000150786
-8.66857e-05
0.000204142
-0.000196756
0.000171506
-0.000185795
0.000182588
-0.00022373
0.000241803
-0.000212403
-0.0002159
0.000232762
5.25126e-05
-0.000190935
4.89517e-05
-0.000153782
4.52406e-05
-0.000149858
4.55056e-05
-0.000137067
5.38437e-05
-0.00014988
4.97379e-05
-0.000142305
5.03366e-05
-0.00013752
5.3019e-05
-0.0001351
5.48465e-05
-0.000132714
5.62866e-05
-0.000125386
6.16292e-05
-0.000132162
6.75219e-05
-0.000132795
6.82024e-05
-0.000129339
5.80717e-05
-0.000121742
0.000170284
-0.000248439
0.000187627
-0.000144115
0.000106695
-0.000172306
0.000176964
-0.000156955
0.000236207
-0.000255999
0.000289005
-0.000238592
0.000311416
-0.000246141
0.000261229
-0.000162216
-0.000240336
0.000285665
-2.96064e-05
-0.000161329
2.07541e-05
-0.000204142
6.97471e-05
-0.000198851
5.70046e-05
-0.000124325
3.83131e-05
-0.000131188
3.64564e-05
-0.000140448
4.50663e-05
-0.00014613
3.8711e-05
-0.000128745
4.39761e-05
-0.000137979
5.02696e-05
-0.00013168
6.02011e-05
-0.000142094
6.75766e-05
-0.00014017
5.98731e-05
-0.000121636
7.22782e-05
-0.000134147
0.000110159
-0.00028632
0.000118974
-0.000152929
9.73912e-05
-0.000150723
0.000202544
-0.000262108
0.000163391
-0.000216845
0.000172647
-0.000247848
0.0001799
-0.000253394
0.000309276
-0.000291593
-0.000238005
0.000306945
-2.27443e-06
-0.000159054
2.72618e-06
-0.000209143
1.06616e-06
-0.000197191
-1.49021e-05
-0.000108357
4.10573e-05
-0.000187148
1.75266e-05
-0.000116917
8.47137e-06
-0.000137074
5.68757e-05
-0.000177149
3.94882e-05
-0.000120591
5.33185e-05
-0.00014551
6.35631e-05
-0.000152338
5.12101e-05
-0.000127817
7.39405e-05
-0.000144366
8.63399e-05
-0.000146546
7.0692e-05
-0.000270672
0.000172699
-0.000254936
0.000239845
-0.00021787
0.000233137
-0.0002554
0.000257881
-0.00024159
0.000272608
-0.000262575
0.000271458
-0.000252243
0.000184099
-0.000204234
-0.000220612
0.000166706
-9.1035e-06
-0.000149951
-5.23344e-06
-0.000213013
-4.18744e-06
-0.000198237
1.15255e-05
-0.000124069
5.29774e-06
-0.00018092
3.57532e-05
-0.000147373
1.48862e-05
-0.000116207
-4.23576e-07
-0.000161839
4.10805e-05
-0.000162095
4.02049e-05
-0.000144634
1.6507e-05
-0.00012864
6.50416e-05
-0.000176352
4.20458e-05
-0.00012137
0.000129998
-0.000234498
9.87883e-05
-0.000239463
0.000103356
-0.000259504
0.000121185
-0.000235698
0.000128244
-0.000262459
0.000147225
-0.000260571
0.000164781
-0.000280131
0.000176447
-0.000263909
0.000194892
-0.000222679
-0.000289407
0.000263687
-1.21282e-06
-0.000148738
-3.39243e-06
-0.000210833
-1.31339e-05
-0.000188495
1.40393e-06
-0.000138607
-6.07327e-06
-0.000173443
-1.2196e-06
-0.000152226
3.00372e-05
-0.000147464
9.85683e-06
-0.000141659
-7.84973e-06
-0.000144389
5.41015e-05
-0.000206586
8.0251e-05
-0.00015479
4.00901e-05
-0.000136191
8.98436e-05
-0.000171124
7.79423e-05
-0.000222597
9.70957e-05
-0.000258616
0.000101736
-0.000264145
0.000120295
-0.000254258
0.000129659
-0.000271822
0.000141034
-0.000271946
0.000160663
-0.000299761
0.000159191
-0.000262437
0.000169641
-0.000233129
-0.000297845
0.000178079
-3.19064e-05
-0.000116832
-6.90071e-06
-0.000235839
1.0396e-05
-0.000205792
1.8096e-06
-0.000130021
2.45904e-05
-0.000196224
3.61662e-06
-0.000131253
2.57123e-05
-0.00016956
-5.71577e-06
-0.000110231
1.61629e-05
-0.000166268
2.72123e-05
-0.000217635
3.43202e-05
-0.000161898
6.21762e-05
-0.000164047
8.79336e-05
-0.000196881
0.000132027
-0.00026669
0.000170724
-0.000297313
0.000182151
-0.000275571
0.000201077
-0.000273184
0.000210974
-0.000281719
0.000215787
-0.000276759
0.000180063
-0.000264036
0.000177742
-0.000260116
0.000264814
-0.000320201
-0.000311047
0.000278015
4.7987e-05
-0.000164819
-1.30348e-06
-0.000186548
-2.64531e-05
-0.000180642
8.65953e-06
-0.000165134
-5.6255e-06
-0.000181939
1.92963e-05
-0.000156174
1.35692e-05
-0.000163833
4.83261e-05
-0.000144988
2.46739e-05
-0.000142615
6.86322e-05
-0.000261593
4.06749e-05
-0.00013394
6.36119e-06
-0.000129733
5.43518e-05
-0.000244872
6.92772e-05
-0.000281615
8.99314e-05
-0.000317968
0.000101001
-0.00028664
0.00012137
-0.000293553
0.000148152
-0.000308502
0.00023256
-0.000361166
0.000266373
-0.00029785
0.000174477
-0.00016822
0.000249993
-0.000395717
-0.000215703
0.000154649
6.02649e-06
-0.000170845
3.14099e-06
-0.000183663
4.25028e-06
-0.000181751
1.19544e-05
-0.000172838
1.05938e-05
-0.000180578
2.0024e-05
-0.000165605
2.89859e-05
-0.000172795
4.63411e-05
-0.000162343
8.34356e-05
-0.00017971
1.85327e-05
-0.00019669
5.37104e-05
-0.000169118
9.67494e-05
-0.000172772
4.57524e-05
-0.000193875
0.000104447
-0.00034031
0.000157226
-0.000370746
9.2303e-05
-0.000221717
0.000167945
-0.000369195
0.000204845
-0.000345401
0.000231087
-0.000387409
0.00016506
-0.000231822
0.000259282
-0.000262442
0.000128007
-0.000264442
-0.000236181
0.000148485
5.6436e-06
-0.000176489
4.04785e-06
-0.000182067
3.96862e-06
-0.000181672
1.19403e-05
-0.000180809
8.98758e-06
-0.000177625
1.84411e-05
-0.000175058
2.24079e-05
-0.000176762
3.97763e-05
-0.000179711
4.52164e-05
-0.00018515
3.56705e-05
-0.000187145
5.26826e-05
-0.00018613
6.41134e-05
-0.000184203
5.72475e-05
-0.000187009
9.60656e-05
-0.000379129
0.000117113
-0.000391793
0.000106368
-0.000210972
0.000117621
-0.000380448
0.000181194
-0.000408975
0.000182801
-0.000389015
0.000158565
-0.000207587
0.000156762
-0.000260639
0.000152696
-0.000260376
-0.000254001
0.000170516
5.02968e-06
-0.000181519
9.96342e-06
-0.000187001
1.4957e-05
-0.000186666
2.06991e-05
-0.000186551
2.5976e-05
-0.000182902
3.39175e-05
-0.000183
4.16312e-05
-0.000184475
4.85373e-05
-0.000186617
5.20184e-05
-0.000188631
5.33566e-05
-0.000188483
5.97366e-05
-0.00019251
6.91929e-05
-0.000193659
7.45945e-05
-0.000192411
9.38784e-05
-0.000398412
0.00010866
-0.000406575
0.000102565
-0.000204876
0.000109008
-0.000386892
0.000100855
-0.000400822
0.000111231
-0.00039939
0.000133741
-0.000230097
0.000143565
-0.000270463
0.000146261
-0.000263073
-0.000266362
0.000158622
4.58039e-06
-0.000186099
8.94201e-06
-0.000191363
1.34208e-05
-0.000191145
1.73174e-05
-0.000190448
2.35022e-05
-0.000189087
3.08231e-05
-0.000190321
3.68206e-05
-0.000190473
4.14042e-05
-0.000191201
4.6789e-05
-0.000194016
5.37914e-05
-0.000195485
5.76944e-05
-0.000196413
6.31411e-05
-0.000199106
7.00434e-05
-0.000199313
8.31069e-05
-0.000411476
7.2218e-05
-0.000395686
9.71454e-05
-0.000229804
0.0001143
-0.000404047
0.000127035
-0.000413557
0.000128307
-0.000400662
0.000125581
-0.000227371
0.000143957
-0.000288839
0.00015565
-0.000274766
-0.000273491
0.000162779
3.65504e-06
-0.000189754
5.89129e-06
-0.000193599
9.71358e-06
-0.000194967
1.33818e-05
-0.000194116
2.27456e-05
-0.000198451
2.7754e-05
-0.000195329
3.45897e-05
-0.000197308
4.09381e-05
-0.000197549
4.56644e-05
-0.000198742
5.06472e-05
-0.000200468
5.57875e-05
-0.000201553
6.22362e-05
-0.000205554
6.7686e-05
-0.000204763
6.739e-05
-0.00041118
5.97244e-05
-0.000388021
0.000215691
-0.000385771
0.000100744
-0.0002891
0.000115983
-0.000428795
0.000121761
-0.00040644
0.000159179
-0.00026479
0.000148448
-0.000278108
0.000160006
-0.000286324
-0.00027822
0.000164736
4.69096e-06
-0.000194445
9.20775e-06
-0.000198116
1.36545e-05
-0.000199414
1.91611e-05
-0.000199623
2.27856e-05
-0.000202075
2.85035e-05
-0.000201047
3.2957e-05
-0.000201762
3.82712e-05
-0.000202864
4.3463e-05
-0.000203934
4.92113e-05
-0.000206216
5.52057e-05
-0.000207548
6.2528e-05
-0.000212877
7.11064e-05
-0.000213341
6.79073e-05
-0.000407981
8.80028e-05
-0.000408116
0.000130294
-0.000428062
0.000112438
-0.000271243
0.000139915
-0.000456272
1.90059e-05
-0.000285531
0.000162988
-0.000408771
0.000155385
-0.000270506
0.000161493
-0.000292432
-0.000283069
0.000166342
4.81782e-06
-0.000199263
1.04017e-05
-0.0002037
1.52052e-05
-0.000204217
1.99026e-05
-0.00020432
2.28916e-05
-0.000205064
2.753e-05
-0.000205685
3.18833e-05
-0.000206115
3.6207e-05
-0.000207187
4.05728e-05
-0.0002083
4.38333e-05
-0.000209477
4.85408e-05
-0.000212255
5.2485e-05
-0.000216821
5.78384e-05
-0.000218694
5.96354e-05
-0.000409778
7.56728e-05
-0.000424154
6.98094e-05
-0.000422199
0.000206883
-0.000408317
5.14045e-05
-0.000300794
4.34462e-05
-0.000277573
6.83308e-05
-0.000433656
0.000215674
-0.000417848
0.000172471
-0.00024923
-0.000294535
0.000183937
4.21369e-06
-0.000203476
8.35409e-06
-0.00020784
1.2352e-05
-0.000208215
1.68153e-05
-0.000208784
2.09478e-05
-0.000209197
2.51145e-05
-0.000209852
2.89303e-05
-0.000209931
3.30973e-05
-0.000211354
3.65839e-05
-0.000211786
3.96935e-05
-0.000212586
4.37898e-05
-0.000216352
4.50878e-05
-0.000218119
4.87725e-05
-0.000222379
4.21497e-05
-0.000403155
5.0751e-05
-0.000432755
5.80452e-05
-0.000429493
0.000100317
-0.000450589
0.000103689
-0.000304166
7.91226e-05
-0.000253006
8.58441e-05
-0.000440377
0.000103786
-0.00043579
0.000129583
-0.000275027
-0.000304831
0.000139879
4.58221e-06
-0.000208059
8.96985e-06
-0.000212228
1.31584e-05
-0.000212404
1.72122e-05
-0.000212837
2.08287e-05
-0.000212813
2.48917e-05
-0.000213915
2.83777e-05
-0.000213417
3.2226e-05
-0.000215203
3.54146e-05
-0.000214975
3.86512e-05
-0.000215823
4.21477e-05
-0.000219848
4.21117e-05
-0.000218083
4.46005e-05
-0.000224868
4.13769e-05
-0.000399932
4.75175e-05
-0.000438895
7.08506e-05
-0.000452826
8.60137e-05
-0.000465752
8.07354e-05
-0.000298887
9.75463e-05
-0.000269817
0.000119524
-0.000462355
0.000116737
-0.000433003
0.000121643
-0.000279933
-0.000313796
0.000130608
4.20329e-06
-0.000212262
8.05205e-06
-0.000216076
1.18902e-05
-0.000216242
1.57435e-05
-0.000216691
1.96129e-05
-0.000216683
2.33152e-05
-0.000217617
2.70558e-05
-0.000217158
3.09294e-05
-0.000219076
3.3952e-05
-0.000217998
3.81122e-05
-0.000219983
4.15436e-05
-0.00022328
4.49073e-05
-0.000221447
4.76503e-05
-0.000227611
5.73291e-05
-0.00040961
6.63458e-05
-0.000447912
5.6069e-05
-0.00044255
3.31902e-05
-0.000442873
0.000181256
-0.000446953
0.000205258
-0.000293819
6.50198e-05
-0.000322117
7.72778e-05
-0.000445261
7.21894e-05
-0.000274845
-0.000474687
0.00023308
4.2372e-06
-0.000216499
8.14971e-06
-0.000219989
1.20196e-05
-0.000220112
1.5756e-05
-0.000220427
1.9375e-05
-0.000220302
2.28218e-05
-0.000221064
2.62734e-05
-0.000220609
2.97408e-05
-0.000222544
3.23264e-05
-0.000220583
3.59883e-05
-0.000223645
3.71788e-05
-0.00022447
4.09719e-05
-0.00022524
3.1529e-05
-0.000218168
3.21453e-05
-0.000410227
3.68326e-05
-0.000452599
3.9459e-05
-0.000445176
5.84066e-05
-0.000461821
9.18056e-05
-0.000480352
0.000117817
-0.000319831
9.01857e-05
-0.000294485
0.000115699
-0.000470774
0.000142375
-0.000301521
-0.000488028
0.000155716
4.08012e-06
-0.000220579
7.77629e-06
-0.000223685
1.15557e-05
-0.000223891
1.52219e-05
-0.000224093
1.92475e-05
-0.000224327
2.29065e-05
-0.000224723
2.71646e-05
-0.000224867
3.08164e-05
-0.000226196
3.50492e-05
-0.000224816
3.89879e-05
-0.000227584
3.95694e-05
-0.000225052
4.4996e-05
-0.000230666
3.70819e-05
-0.000210254
3.02254e-05
-0.00040337
4.38928e-05
-0.000466267
4.52955e-05
-0.000446579
4.08787e-05
-0.000457404
3.07942e-05
-0.000470268
0.000160379
-0.000449416
0.000100666
-0.000234772
6.8171e-05
-0.000438279
8.42667e-05
-0.000317617
-0.000503252
9.94905e-05
3.97935e-06
-0.000224559
7.47064e-06
-0.000227176
1.09163e-05
-0.000227337
1.43454e-05
-0.000227522
1.79335e-05
-0.000227916
2.1619e-05
-0.000228408
2.56574e-05
-0.000228906
2.98567e-05
-0.000230395
3.46427e-05
-0.000229602
3.90126e-05
-0.000231954
4.18943e-05
-0.000227933
3.88114e-05
-0.000227584
4.24052e-05
-0.000213848
4.75431e-05
-0.000408508
3.82448e-05
-0.000456969
4.28758e-05
-0.00045121
3.36842e-05
-0.000448212
4.77087e-05
-0.000484292
8.92023e-05
-0.000490909
0.000132516
-0.000278086
2.85114e-05
-0.000334275
0.000168352
-0.000457457
-0.00037335
3.84505e-05
3.6871e-06
-0.000228246
7.05893e-06
-0.000230548
1.03872e-05
-0.000230665
1.36683e-05
-0.000230803
1.74426e-05
-0.00023169
2.10185e-05
-0.000231984
2.61842e-05
-0.000234071
3.16796e-05
-0.00023589
3.77163e-05
-0.000235639
4.37843e-05
-0.000238022
4.79435e-05
-0.000232093
4.42269e-05
-0.000223867
4.38058e-05
-0.000213426
4.2381e-05
-0.000407083
2.57385e-05
-0.000440326
2.88079e-05
-0.000454279
3.38805e-05
-0.000453285
3.35782e-05
-0.00048399
8.03953e-05
-0.000537726
8.3776e-05
-0.000281467
4.12824e-05
-0.000291781
0.000104192
-0.000520367
-0.00032438
5.52213e-05
3.34641e-06
-0.000231592
6.26375e-06
-0.000233466