/*--------------------------------*- C++ -*----------------------------------*\
| =========                 |                                                 |
| \\      /  F ield         | foam-extend: Open Source CFD                    |
|  \\    /   O peration     | Version:     4.1                                |
|   \\  /    A nd           | Web:         http://www.foam-extend.org         |
|    \\/     M anipulation  |                                                 |
\*---------------------------------------------------------------------------*/
FoamFile
{
    version     2.0;
    format      ascii;
    class       surfaceScalarField;
    location    "0.25";
    object      phi_0;
}
// * * * * * * * * * * * * * * * * * * * * * * * * * * * * * * * * * * * * * //

dimensions      [0 3 -1 0 0 0 0];

internalField   nonuniform List<scalar> 
4432
(
3.74587e-06
-3.74587e-06
7.51114e-06
-3.76528e-06
1.1803e-05
-4.29183e-06
1.47317e-05
-2.92869e-06
1.87922e-05
-4.06052e-06
2.31736e-05
-4.38145e-06
2.72607e-05
-4.0871e-06
3.05565e-05
-3.29579e-06
3.26592e-05
-2.10271e-06
2.94419e-05
3.21731e-06
5.19921e-05
-2.25501e-05
5.67621e-05
-4.77e-06
6.03958e-05
-3.63375e-06
6.34601e-05
-3.06431e-06
6.43599e-05
-8.99806e-07
6.48986e-05
-5.38657e-07
7.08558e-05
-5.95718e-06
6.72696e-05
3.58623e-06
6.31888e-05
4.08074e-06
5.03127e-05
1.28762e-05
4.07872e-05
9.5255e-06
2.41518e-05
1.66354e-05
2.41518e-05
3.77932e-06
-7.52519e-06
7.56649e-06
-7.55244e-06
1.18872e-05
-8.61259e-06
1.47242e-05
-5.76563e-06
1.911e-05
-8.44634e-06
2.36085e-05
-8.87994e-06
2.73562e-05
-7.83479e-06
3.12759e-05
-7.21556e-06
3.29465e-05
-3.77325e-06
5.6003e-05
-1.98392e-05
5.44592e-05
-2.10063e-05
5.98145e-05
-1.01252e-05
6.32465e-05
-7.06578e-06
6.46799e-05
-4.49774e-06
6.35567e-05
2.23382e-07
6.25181e-05
5.00004e-07
3.93447e-05
1.72162e-05
4.01822e-05
2.74876e-06
3.72266e-05
7.0363e-06
5.17907e-05
-1.68791e-06
3.9053e-05
2.22632e-05
2.45226e-05
3.11657e-05
4.86744e-05
3.74868e-06
-1.12739e-05
7.48912e-06
-1.12929e-05
1.19255e-05
-1.3049e-05
1.47254e-05
-8.5655e-06
1.9529e-05
-1.325e-05
2.34772e-05
-1.28281e-05
2.68915e-05
-1.12491e-05
3.19125e-05
-1.22366e-05
3.2448e-05
-4.30871e-06
5.2766e-05
-4.01573e-05
5.26168e-05
-2.08571e-05
5.66071e-05
-1.41155e-05
5.85385e-05
-8.99719e-06
6.0563e-05
-6.52227e-06
6.09609e-05
-1.7449e-07
6.16963e-05
-2.35405e-07
6.77866e-05
1.11259e-05
6.50814e-05
5.45393e-06
6.0823e-05
1.12947e-05
5.50209e-05
4.11424e-06
4.68278e-05
3.04562e-05
2.37903e-05
5.42032e-05
7.24647e-05
3.76099e-06
-1.50349e-05
7.5637e-06
-1.50956e-05
1.18805e-05
-1.73658e-05
1.54925e-05
-1.21775e-05
2.01005e-05
-1.78579e-05
2.31427e-05
-1.58703e-05
2.82438e-05
-1.63502e-05
3.02654e-05
-1.42582e-05
5.1701e-05
-2.57443e-05
4.73263e-05
-3.57825e-05
4.77069e-05
-2.12377e-05
5.05057e-05
-1.69144e-05
5.22472e-05
-1.07387e-05
5.45448e-05
-8.81988e-06
5.6635e-05
-2.26464e-06
5.87802e-05
-2.38058e-06
6.31671e-05
6.73891e-06
6.26791e-05
5.94201e-06
6.11852e-05
1.27885e-05
5.53473e-05
9.95218e-06
4.52785e-05
4.0525e-05
2.42268e-05
7.5255e-05
9.66915e-05
3.68563e-06
-1.87205e-05
7.55067e-06
-1.89606e-05
1.18645e-05
-2.16796e-05
1.57854e-05
-1.60984e-05
2.01533e-05
-2.22259e-05
2.28863e-05
-1.86033e-05
2.81628e-05
-2.16268e-05
2.8781e-05
-1.48764e-05
4.50675e-05
-4.20308e-05
4.12545e-05
-3.19695e-05
4.26863e-05
-2.26695e-05
4.60315e-05
-2.02596e-05
4.85848e-05
-1.32919e-05
5.24092e-05
-1.26443e-05
5.55512e-05
-5.40664e-06
5.75086e-05
-4.33798e-06
6.0159e-05
4.08848e-06
5.8359e-05
7.74198e-06
5.80782e-05
1.30693e-05
5.84273e-05
9.60311e-06
4.80961e-05
5.08562e-05
2.47542e-05
9.85969e-05
0.000121446
3.67922e-06
-2.23997e-05
7.73827e-06
-2.30197e-05
1.19977e-05
-2.5939e-05
1.56925e-05
-1.97932e-05
1.99196e-05
-2.64529e-05
2.40187e-05
-2.27024e-05
2.51971e-05
-2.28052e-05
4.08685e-05
-3.05478e-05
3.75613e-05
-3.87236e-05
3.86617e-05
-3.30698e-05
4.11541e-05
-2.51619e-05
4.50112e-05
-2.41168e-05
4.87557e-05
-1.70364e-05
5.29995e-05
-1.68881e-05
5.67507e-05
-9.15782e-06
5.9416e-05
-7.00325e-06
6.29208e-05
5.83665e-07
6.17139e-05
8.94887e-06
6.18546e-05
1.29287e-05
3.62973e-05
3.51603e-05
5.92158e-05
2.79377e-05
2.64545e-05
0.000131358
0.0001479
3.55396e-06
-2.59537e-05
7.73001e-06
-2.71957e-05
1.17568e-05
-2.99658e-05
1.54122e-05
-2.34486e-05
1.97151e-05
-3.07558e-05
2.11368e-05
-2.41241e-05
2.11638e-05
-2.28321e-05
3.58789e-05
-4.52629e-05
3.59002e-05
-3.8745e-05
3.79824e-05
-3.5152e-05
4.16864e-05
-2.88658e-05
4.6526e-05
-2.89564e-05
4.98008e-05
-2.03112e-05
5.32938e-05
-2.03812e-05
5.84445e-05
-1.43084e-05
6.28771e-05
-1.14359e-05
6.61373e-05
-2.67653e-06
6.53403e-05
9.74583e-06
6.1099e-05
1.71701e-05
7.01756e-05
2.60837e-05
3.4183e-05
6.39303e-05
2.7653e-05
0.000137888
0.000175553
3.69057e-06
-2.96442e-05
7.89692e-06
-3.14021e-05
1.14702e-05
-3.35391e-05
1.47641e-05
-2.67425e-05
1.89104e-05
-3.49022e-05
1.8962e-05
-2.41757e-05
3.40741e-05
-3.79442e-05
3.42692e-05
-4.54581e-05
3.63754e-05
-4.08511e-05
3.86487e-05
-3.74253e-05
4.30984e-05
-3.33156e-05
4.76051e-05
-3.3463e-05
5.04519e-05
-2.3158e-05
5.50817e-05
-2.50111e-05
6.06412e-05
-1.98679e-05
6.41686e-05
-1.49633e-05
6.76296e-05
-6.13747e-06
6.84701e-05
8.90531e-06
6.65654e-05
1.90748e-05
4.13834e-05
5.12656e-05
7.67457e-05
2.8568e-05
5.40394e-05
0.000160595
0.000229593
4.43705e-06
-4.43705e-06
1.89025e-05
-1.44654e-05
1.95484e-05
-6.45895e-07
1.44361e-05
5.11221e-06
1.05166e-05
3.91955e-06
9.11711e-06
1.3995e-06
9.11023e-06
6.91479e-09
4.88085e-06
4.22941e-06
9.76706e-06
-4.88623e-06
1.17475e-05
-1.98045e-06
1.34697e-05
-1.72214e-06
1.48469e-05
-1.3773e-06
1.62832e-05
-1.43623e-06
1.88334e-05
-2.55022e-06
1.1049e-05
7.78436e-06
1.60491e-05
-5.0001e-06
7.20382e-06
8.84532e-06
4.1057e-06
3.09813e-06
4.1057e-06
6.71931e-06
-1.11563e-05
1.63314e-05
-2.40775e-05
1.50816e-05
6.03874e-07
1.08411e-05
9.35277e-06
3.96307e-06
1.07976e-05
3.66372e-06
1.69884e-06
4.04096e-06
-3.70327e-07
7.53935e-06
7.31042e-07
8.62547e-06
-5.97231e-06
1.1246e-05
-4.6011e-06
1.23832e-05
-2.85926e-06
1.32217e-05
-2.21582e-06
8.00784e-06
3.7776e-06
9.69637e-06
-4.23872e-06
1.10233e-05
6.45742e-06
8.51731e-06
-2.4941e-06
6.9842e-06
1.03784e-05
3.87161e-06
6.21075e-06
7.97732e-06
8.20443e-06
-1.93607e-05
2.043e-05
-3.63032e-05
1.27035e-05
8.33046e-06
8.57633e-06
1.34799e-05
3.18051e-06
1.61935e-05
3.05004e-06
1.82933e-06
6.62045e-06
-3.94075e-06
7.05365e-06
2.97846e-07
8.33095e-06
-7.24954e-06
1.0786e-05
-7.05625e-06
1.27535e-05
-4.82664e-06
1.35017e-05
-2.96409e-06
1.50901e-05
2.18916e-06
1.04789e-05
3.72522e-07
1.13435e-05
5.59277e-06
8.60336e-06
2.46076e-07
7.13723e-06
1.18446e-05
3.90268e-06
9.44532e-06
1.188e-05
1.14435e-05
-3.08043e-05
2.65595e-05
-5.14191e-05
7.20015e-06
2.76898e-05
4.35218e-06
1.63279e-05
2.29034e-06
1.82553e-05
5.91198e-06
-1.79228e-06
3.86876e-06
-1.89754e-06
6.4898e-06
-2.32319e-06
7.71561e-06
-8.47526e-06
1.05153e-05
-9.85603e-06
1.20346e-05
-6.34593e-06
1.41352e-05
-5.06466e-06
8.77592e-06
7.54838e-06
1.0484e-05
-1.33557e-06
1.09769e-05
5.09991e-06
8.92801e-06
2.29495e-06
7.29793e-06
1.34747e-05
3.90688e-06
1.28364e-05
1.57869e-05
1.93606e-05
-5.01648e-05
3.88301e-05
-7.08886e-05
7.06271e-06
5.94571e-05
9.83996e-07
2.24066e-05
-1.40725e-06
2.06466e-05
2.09073e-06
-5.29022e-06
5.66873e-06
-5.47555e-06
5.15861e-06
-1.81308e-06
7.95051e-06
-1.12671e-05
5.7045e-06
-7.61011e-06
6.99766e-06
-7.63903e-06
7.9552e-06
-6.02221e-06
1.51546e-05
3.48944e-07
1.05755e-05
3.24362e-06
1.173e-05
3.94535e-06
9.42768e-06
4.59729e-06
7.55577e-06
1.53466e-05
4.04345e-06
1.63487e-05
1.98303e-05
4.01252e-05
-9.029e-05
4.14988e-05
-7.22622e-05
6.1478e-06
9.48082e-05
-2.85904e-06
3.14135e-05
-6.65935e-06
2.44469e-05
-4.5949e-07
-1.149e-05
5.61263e-06
-1.15477e-05
2.16922e-06
1.6303e-06
5.85612e-06
-1.49539e-05
5.42518e-06
-7.17924e-06
7.08735e-06
-9.30116e-06
8.20785e-06
-7.14271e-06
8.69662e-06
-1.3983e-07
1.07919e-05
1.14839e-06
1.17257e-05
3.01151e-06
9.95415e-06
6.36884e-06
7.91828e-06
1.73824e-05
4.22876e-06
2.00382e-05
2.40591e-05
-2.12496e-05
-6.90404e-05
-7.47343e-06
-8.60383e-05
8.28899e-06
7.90457e-05
-4.57777e-06
4.42803e-05
-1.57853e-05
3.56544e-05
-6.00599e-06
-2.12693e-05
3.99766e-06
-2.15513e-05
1.39609e-06
4.23184e-06
6.05e-06
-1.96077e-05
5.71717e-06
-6.84644e-06
1.37544e-05
-1.73384e-05
8.81267e-06
-2.20096e-06
9.24357e-06
-5.70736e-07
1.11499e-05
-7.57966e-07
1.21762e-05
1.98519e-06
1.05473e-05
7.99779e-06
8.34013e-06
1.95896e-05
4.46747e-06
2.39109e-05
2.85266e-05
-5.78721e-05
-1.11683e-05
-7.76797e-05
-6.62307e-05
5.416e-06
-4.04999e-06
-8.62419e-06
5.83205e-05
-1.93614e-05
4.63916e-05
-2.27563e-06
-3.83551e-05
4.74779e-06
-2.85747e-05
7.84497e-07
8.19511e-06
8.30818e-06
-2.71313e-05
5.97268e-06
-4.51095e-06
7.12412e-06
-1.84898e-05
8.58499e-06
-3.66182e-06
1.63942e-05
-8.37992e-06
1.13564e-05
4.27976e-06
1.29971e-05
3.44522e-07
1.13857e-05
9.60916e-06
8.91546e-06
2.20599e-05
4.79707e-06
2.80293e-05
3.33236e-05
7.64663e-06
-3.72909e-05
1.58807e-05
-3.96362e-05
2.16838e-05
-3.93422e-05
3.05944e-05
-3.56531e-05
3.55637e-05
-3.98715e-05
5.98918e-05
-4.85038e-05
6.84494e-05
-4.65018e-05
7.25e-05
-4.95087e-05
7.70915e-05
-4.54426e-05
8.28626e-05
-4.31965e-05
9.66387e-05
-4.70916e-05
0.000105909
-4.2733e-05
0.000105721
-2.29707e-05
0.000119559
-3.88485e-05
0.000132359
-3.26678e-05
0.000141381
-2.39853e-05
0.000144
-8.75721e-06
0.000146516
6.38978e-06
0.000146478
1.9113e-05
0.000168711
2.90319e-05
0.000133612
6.36671e-05
0.000218531
7.56763e-05
0.000223764
0.00022436
7.23574e-06
-4.45266e-05
1.56569e-05
-4.80574e-05
2.17885e-05
-4.54737e-05
4.10879e-05
-5.49526e-05
5.0366e-05
-4.91495e-05
5.88746e-05
-5.70125e-05
6.5707e-05
-5.33342e-05
7.18142e-05
-5.56159e-05
8.05144e-05
-5.41428e-05
8.86914e-05
-5.13734e-05
9.94331e-05
-5.78334e-05
0.000107336
-5.0636e-05
0.000112496
-2.81309e-05
0.000125474
-5.18263e-05
0.00014265
-4.98438e-05
0.000152373
-3.37084e-05
0.000164165
-2.05492e-05
0.000166192
4.36301e-06
0.000162389
2.29163e-05
0.000121015
7.04056e-05
0.000162361
2.23211e-05
0.000171372
6.66656e-05
0.000123075
0.000272061
1.09785e-05
-5.55051e-05
2.14016e-05
-5.84805e-05
3.24858e-05
-5.65579e-05
4.08072e-05
-6.32739e-05
5.00095e-05
-5.83518e-05
5.73741e-05
-6.4377e-05
6.72321e-05
-6.31922e-05
7.5595e-05
-6.39788e-05
8.43961e-05
-6.29439e-05
9.42807e-05
-6.1258e-05
0.000107555
-7.11074e-05
0.000113315
-5.63967e-05
0.000118605
-3.34205e-05
0.000137986
-7.12073e-05
0.000158105
-6.99627e-05
0.000176031
-5.16349e-05
0.000187757
-3.2275e-05
0.000196549
-4.42908e-06
0.00020344
1.6026e-05
0.000220769
5.3076e-05
0.000173333
6.97577e-05
0.000179533
6.04652e-05
9.4505e-05
0.000208103
1.1163e-05
-6.66681e-05
2.15186e-05
-6.8836e-05
3.17755e-05
-6.68149e-05
3.93178e-05
-7.08162e-05
4.88808e-05
-6.79149e-05
5.79979e-05
-7.34941e-05
6.59591e-05
-7.11535e-05
7.40868e-05
-7.21065e-05
8.38303e-05
-7.26874e-05
0.000103526
-8.09535e-05
0.000119797
-8.73784e-05
0.000126608
-6.32075e-05
0.000142074
-4.88873e-05
0.000165632
-9.47645e-05
0.000187221
-9.15521e-05
0.0002051
-6.95135e-05
0.000216123
-4.32985e-05
0.000224242
-1.25479e-05
0.000231084
9.18361e-06
0.000248647
3.55128e-05
0.000285326
3.30795e-05
0.000291437
5.43541e-05
7.56725e-05
0.000310269
1.00706e-05
-7.67387e-05
1.91934e-05
-7.79588e-05
2.87414e-05
-7.63629e-05
3.77935e-05
-7.98683e-05
4.72591e-05
-7.73805e-05
5.41525e-05
-8.03874e-05
6.07318e-05
-7.77329e-05
7.04304e-05
-8.18051e-05
8.65632e-05
-8.88201e-05
0.000107965
-0.000102356
0.000119686
-9.90985e-05
0.000126052
-6.95738e-05
0.000135141
-5.79763e-05
0.00013474
-9.43637e-05
0.000131664
-8.84759e-05
0.000126942
-6.47915e-05
0.000126405
-4.27616e-05
0.000154
-4.01424e-05
0.000184236
-2.10524e-05
0.000202763
1.69859e-05
0.000159513
7.63291e-05
0.000174506
3.93615e-05
-7.01664e-06
0.000257195
1.0127e-05
-8.68657e-05
1.94757e-05
-8.73076e-05
2.95232e-05
-8.64104e-05
3.71631e-05
-8.75082e-05
4.54224e-05
-8.56399e-05
5.14098e-05
-8.63748e-05
5.57373e-05
-8.20603e-05
6.40103e-05
-9.00782e-05
8.15118e-05
-0.000106322
8.44346e-05
-0.000105279
8.07885e-05
-9.54524e-05
8.70502e-05
-7.58355e-05
8.97985e-05
-6.07246e-05
8.78102e-05
-9.23754e-05
6.78129e-05
-6.84786e-05
4.02706e-05
-3.72492e-05
2.35037e-05
-2.59948e-05
3.99192e-05
-5.65579e-05
7.14527e-05
-5.2586e-05
0.000115133
-2.66946e-05
0.000169977
2.1485e-05
0.000278807
-6.94683e-05
-4.85654e-07
0.000272276
1.00589e-05
-9.69246e-05
1.97985e-05
-9.70471e-05
2.92921e-05
-9.5904e-05
3.67727e-05
-9.49887e-05
4.30258e-05
-9.1893e-05
4.53764e-05
-8.87254e-05
4.80788e-05
-8.47626e-05
5.36454e-05
-9.56449e-05
5.50809e-05
-0.000107757
5.36369e-05
-0.000103835
6.77805e-05
-0.000109596
8.87527e-05
-9.68077e-05
9.00856e-05
-6.20575e-05
9.31484e-05
-9.54383e-05
5.05549e-05
-2.58851e-05
3.21917e-05
-1.8886e-05
1.80653e-05
-1.18683e-05
2.9945e-05
-6.84376e-05
2.92582e-05
-5.18992e-05
0.000105912
-0.000103349
0.000170485
-4.30881e-05
0.000141066
-4.0049e-05
-4.00281e-05
0.000180608
5.13595e-06
-0.000102061
9.60048e-06
-0.000101512
1.49823e-05
-0.000101286
1.87873e-05
-9.87937e-05
2.21382e-05
-9.5244e-05
2.40564e-05
-9.06436e-05
3.07853e-05
-9.14914e-05
3.37155e-05
-9.8575e-05
3.26378e-05
-0.000106679
4.1625e-05
-0.000112822
7.46971e-05
-0.000142668
0.000101201
-0.000123312
0.000102014
-6.28701e-05
6.72588e-05
-6.06832e-05
5.90139e-05
-1.76402e-05
4.09518e-05
-8.23863e-07
5.29311e-05
-2.38475e-05
4.49672e-05
-6.04737e-05
4.04401e-05
-4.73721e-05
9.86614e-06
-7.27746e-05
3.02824e-05
-6.35043e-05
4.10722e-05
-5.08388e-05
-7.32707e-05
7.43147e-05
7.81918e-07
-0.000102842
1.1435e-06
-0.000101873
1.62288e-06
-0.000101765
3.40419e-06
-0.000100575
6.76352e-06
-9.86033e-05
9.67221e-06
-9.35523e-05
1.5361e-05
-9.71802e-05
1.8963e-05
-0.000102177
1.63732e-05
-0.00010409
3.54554e-05
-0.000131904
6.46539e-05
-0.000171867
5.92799e-05
-0.000117938
8.26521e-05
-8.62422e-05
6.67582e-05
-4.47893e-05
6.33203e-05
-1.42023e-05
6.91579e-05
-6.66145e-06
9.3916e-05
-4.86056e-05
8.37965e-05
-5.03541e-05
9.59749e-05
-5.95504e-05
8.46045e-05
-6.14043e-05
5.88654e-05
-3.77651e-05
9.74453e-05
-8.94187e-05
-4.57695e-05
6.99442e-05
9.51257e-07
-0.000103794
1.19419e-06
-0.000102116
1.94187e-06
-0.000102513
4.62968e-06
-0.000103263
7.90326e-06
-0.000101877
1.17822e-05
-9.74313e-05
1.42894e-05
-9.96874e-05
1.40101e-05
-0.000101898
1.45443e-05
-0.000104624
2.45778e-05
-0.000141938
2.11226e-05
-0.000168411
1.99554e-05
-0.000116771
2.00421e-05
-8.6329e-05
4.06412e-05
-6.53884e-05
4.38104e-05
-1.73715e-05
6.24734e-05
-2.53244e-05
0.000123582
-0.000109714
0.000153263
-8.00353e-05
0.000119636
-2.59231e-05
0.000123952
-6.57206e-05
0.000202029
-0.000115842
0.000149737
-3.71261e-05
-6.40319e-05
0.000167999
2.68948e-06
-0.000106483
1.03564e-06
-0.000100462
1.44799e-06
-0.000102925
3.96927e-06
-0.000105784
4.98371e-06
-0.000102891
1.82506e-05
-0.000110698
3.19988e-05
-0.000113436
4.11201e-05
-0.000111019
3.20436e-05
-9.55473e-05
-6.29385e-06
-0.0001036
-4.10242e-05
-0.000133681
-5.31946e-06
-0.000152475
3.41027e-06
-9.50587e-05
3.17235e-05
-9.37016e-05
7.48631e-05
-6.05111e-05
9.80902e-05
-4.85515e-05
0.000135424
-0.000147048
0.000160168
-0.000104779
0.000179584
-4.53387e-05
0.000228994
-0.000115131
0.000163623
-5.04712e-05
0.000267196
-0.0001407
-0.000130106
0.00033327
9.96412e-06
-0.000116447
2.34967e-06
-9.28479e-05
2.08776e-06
-0.000102663
-1.31065e-07
-0.000103565
-7.21965e-07
-0.0001023
1.36407e-05
-0.000125061
3.82461e-05
-0.000138041
3.87089e-05
-0.000111482
3.72855e-05
-9.41239e-05
2.94621e-05
-9.57768e-05
2.34984e-05
-0.000127717
3.62619e-05
-0.000165239
2.61926e-05
-8.49894e-05
8.20181e-05
-0.000149527
0.000108314
-8.68068e-05
0.000140909
-8.11468e-05
9.05983e-05
-9.6737e-05
8.15628e-05
-9.5744e-05
0.000161339
-0.000125115
0.000150298
-0.000104089
0.000255229
-0.000155403
0.00026009
-0.00014556
-5.00356e-05
0.00018002
4.53902e-06
-0.000120986
2.52608e-06
-9.0835e-05
1.3252e-05
-0.000113389
1.91333e-05
-0.000109447
5.05091e-05
-0.000133676
8.27307e-05
-0.000157282
0.000112955
-0.000168266
9.563e-05
-9.41566e-05
9.33607e-05
-9.18546e-05
8.87579e-05
-9.11739e-05
5.50259e-05
-9.39853e-05
7.45871e-05
-0.0001848
7.14166e-05
-8.18188e-05
3.05927e-05
-0.000108703
4.12619e-05
-9.74761e-05
0.000137215
-0.0001771
0.000156101
-0.000115623
0.00016334
-0.000102983
0.00010944
-7.12152e-05
0.000145291
-0.000139939
0.000159383
-0.000169495
0.000163444
-0.000149621
-0.000136864
0.000250273
4.67625e-05
-0.000167749
5.25577e-05
-9.66302e-05
5.10851e-05
-0.000111917
4.88475e-05
-0.000107209
2.94788e-05
-0.000114307
8.1528e-05
-0.000209332
3.53487e-05
-0.000122086
6.31834e-05
-0.000121991
8.01628e-05
-0.000108834
9.90386e-05
-0.00011005
0.00011115
-0.000106097
4.06151e-05
-0.000114265
6.46393e-05
-0.000105843
6.29988e-05
-0.000107063
7.32611e-05
-0.000107738
0.000117767
-0.000221606
0.000111932
-0.000109788
0.000126684
-0.000117736
0.000187744
-0.000132275
0.00023775
-0.000189946
0.000265989
-0.000197734
0.000279025
-0.000162657
-0.000109438
0.000251598
-3.611e-05
-0.000131639
3.95708e-06
-0.000136697
3.5326e-05
-0.000143286
5.98709e-05
-0.000131754
7.80757e-05
-0.000132512
1.72329e-05
-0.000148489
2.93193e-05
-0.000134173
3.78435e-05
-0.000130516
5.76864e-05
-0.000128677
6.57271e-05
-0.00011809
7.78364e-05
-0.000118206
8.58089e-05
-0.000122238
9.92964e-05
-0.00011933
0.000112814
-0.00012058
0.000128181
-0.000123106
5.21644e-05
-0.00014559
0.000139597
-0.00019722
0.00011095
-8.90892e-05
0.000122483
-0.000143807
0.000151975
-0.000219438
0.000167652
-0.000213411
0.000158746
-0.00015375
-0.000225378
0.000274686
7.11493e-06
-0.000138754
2.79341e-05
-0.000157516
3.84179e-05
-0.000153769
4.37526e-05
-0.000137089
5.30884e-05
-0.000141848
5.13219e-05
-0.000146722
5.43816e-05
-0.000137233
5.66515e-05
-0.000132785
5.92913e-05
-0.000131317
6.55422e-05
-0.000124341
7.45667e-05
-0.000127231
7.96232e-05
-0.000127294
8.94074e-05
-0.000129115
0.000101276
-0.000132448
0.000114917
-0.000136747
9.65149e-05
-0.000127187
0.000153135
-0.00025384
0.000151005
-8.69591e-05
0.000204548
-0.00019735
0.000171749
-0.000186639
0.000182815
-0.000224478
0.000242033
-0.000212968
-0.000216432
0.000233086
5.26449e-05
-0.000191399
4.91212e-05
-0.000153993
4.55007e-05
-0.000150149
4.57914e-05
-0.000137379
5.41865e-05
-0.000150243
5.01199e-05
-0.000142656
5.07525e-05
-0.000137865
5.34848e-05
-0.000135518
5.53406e-05
-0.000133172
5.67211e-05
-0.000125722
6.19702e-05
-0.00013248
6.78545e-05
-0.000133178
6.85555e-05
-0.000129816
5.83017e-05
-0.000122194
0.000170776
-0.000249222
0.000188101
-0.000144512
0.000106974
-0.000172713
0.000177345
-0.00015733
0.000236685
-0.00025669
0.0002894
-0.000239355
0.000311838
-0.000246915
0.000261519
-0.000162649
-0.000240914
0.000286001
-2.95544e-05
-0.000161844
2.08411e-05
-0.000204388
6.99885e-05
-0.000199296
5.72424e-05
-0.000124633
3.85325e-05
-0.000131533
3.66907e-05
-0.000140814
4.54256e-05
-0.0001466
3.91107e-05
-0.000129203
4.43978e-05
-0.00013846
5.06379e-05
-0.000131962
6.05415e-05
-0.000142383
6.79107e-05
-0.000140548
6.0115e-05
-0.00012202
7.25011e-05
-0.00013458
0.000110442
-0.000287163
0.000119279
-0.000153349
9.76754e-05
-0.000151109
0.000202956
-0.000262611
0.000163681
-0.000217415
0.000172848
-0.000248522
0.000180102
-0.000254169
0.000309781
-0.000292328
-0.000238508
0.000307375
-2.25064e-06
-0.000159594
2.79483e-06
-0.000209434
1.22526e-06
-0.000197727
-1.47715e-05
-0.000108637
4.13313e-05
-0.000187636
1.77624e-05
-0.000117245
8.63141e-06
-0.000137469
5.72003e-05
-0.000177772
3.96982e-05
-0.000120957
5.35455e-05
-0.000145809
6.38093e-05
-0.000152647
5.14257e-05
-0.000128164
7.42541e-05
-0.000144848
8.66518e-05
-0.000146978
7.08092e-05
-0.00027132
0.000172967
-0.000255507
0.00024027
-0.000218412
0.000233495
-0.000255837
0.000258306
-0.000242226
0.000273038
-0.000263254
0.000271877
-0.000253007
0.000184448
-0.0002049
-0.000221007
0.000166948
-9.07251e-06
-0.000150521
-5.18244e-06
-0.000213324
-4.1218e-06
-0.000198787
1.15934e-05
-0.000124352
5.30339e-06
-0.000181346
3.59834e-05
-0.000147925
1.50254e-05
-0.000116511
-2.77061e-07
-0.000162469
4.13132e-05
-0.000162548
4.03986e-05
-0.000144895
1.66332e-05
-0.000128882
6.53306e-05
-0.000176862
4.21954e-05
-0.000121713
0.000130358
-0.000235141
9.89941e-05
-0.000239956
0.000103528
-0.000260041
0.00012138
-0.000236264
0.00012844
-0.000262897
0.000147444
-0.00026123
0.000165017
-0.000280827
0.000176677
-0.000264667
0.0001952
-0.000223423
-0.000289852
0.000264045
-1.16476e-06
-0.000149356
-3.29124e-06
-0.000211197
-1.30063e-05
-0.000189072
1.46196e-06
-0.00013882
-6.05104e-06
-0.000173833
-1.24374e-06
-0.000152732
3.01152e-05
-0.00014787
9.91219e-06
-0.000142266
-7.787e-06
-0.000144848
5.42534e-05
-0.000206935
8.05047e-05
-0.000155133
4.02259e-05
-0.000136583
9.0102e-05
-0.000171589
7.8086e-05
-0.000223125
9.72575e-05
-0.000259127
0.00010189
-0.000264674
0.000120442
-0.000254815
0.000129811
-0.000272267
0.000141179
-0.000272597
0.000160864
-0.000300512
0.00015941
-0.000263213
0.000169967
-0.00023398
-0.000298237
0.000178352
-3.20465e-05
-0.00011731
-6.89795e-06
-0.000236346
1.04118e-05
-0.000206382
1.84129e-06
-0.00013025
2.46819e-05
-0.000196674
3.57971e-06
-0.00013163
2.58298e-05
-0.00017012
-5.84733e-06
-0.000110589
1.61055e-05
-0.000166801
2.72722e-05
-0.000218102
3.4413e-05
-0.000162274
6.23956e-05
-0.000164566
8.81699e-05
-0.000197364
0.000132264
-0.000267219
0.000171018
-0.000297882
0.000182476
-0.000276132
0.000201372
-0.000273712
0.00021121
-0.000282105
0.000216007
-0.000277394
0.000180271
-0.000264776
0.000177975
-0.000260917
0.000265184
-0.000321189
-0.000311389
0.000278335
4.80263e-05
-0.000165336
-1.29159e-06
-0.000187028
-2.65243e-05
-0.000181149
8.74844e-06
-0.000165522
-5.50582e-06
-0.000182419
1.94537e-05
-0.000156589
1.36363e-05
-0.000164303
4.84508e-05
-0.000145404
2.46666e-05
-0.000143017
6.87292e-05
-0.000262165
4.07549e-05
-0.0001343
6.36263e-06
-0.000130173
5.4436e-05
-0.000245437
6.94076e-05
-0.000282191
9.01044e-05
-0.000318578
0.000101212
-0.000287239
0.000121537
-0.000294037
0.000148296
-0.000308863
0.000232752
-0.00036185
0.000266603
-0.000298628
0.00017449
-0.000168804
0.000249851
-0.00039655
-0.000216077
0.000154539
6.03046e-06
-0.000171367
3.14281e-06
-0.00018414
4.23032e-06
-0.000182237
1.19951e-05
-0.000173287
1.06355e-05
-0.00018106
2.0098e-05
-0.000166052
2.90431e-05
-0.000173248
4.64203e-05
-0.000162781
8.35765e-05
-0.000180173
1.85781e-05
-0.000197166
5.38277e-05
-0.000169549
9.68583e-05
-0.000173204
4.58052e-05
-0.000194384
0.000104382
-0.000340768
0.000157563
-0.00037176
9.26127e-05
-0.000222288
0.000168302
-0.000369727
0.000205146
-0.000345707
0.0002313
-0.000388004
0.000165097
-0.000232424
0.000259397
-0.000263104
0.000127957
-0.00026511
-0.000236603
0.000148483
5.64371e-06
-0.00017701
4.06055e-06
-0.000182557
3.98619e-06
-0.000182162
1.20017e-05
-0.000181303
9.03953e-06
-0.000178098
1.85308e-05
-0.000175543
2.24995e-05
-0.000177217
3.99392e-05
-0.000180221
4.53793e-05
-0.000185613
3.57984e-05
-0.000187585
5.28345e-05
-0.000186585
6.42163e-05
-0.000184586
5.72605e-05
-0.000187428
9.5556e-05
-0.000379063
0.000117982
-0.000394186
0.000106885
-0.000211192
0.000117957
-0.000380798
0.000181451
-0.000409201
0.000182936
-0.000389489
0.000158634
-0.000208123
0.000156852
-0.000261322
0.000152712
-0.000260971
-0.000254508
0.000170617
5.05007e-06
-0.00018206
1.00035e-05
-0.00018751
1.50163e-05
-0.000187175
2.07974e-05
-0.000187084
2.60875e-05
-0.000183388
3.40292e-05
-0.000183485
4.17929e-05
-0.00018498
4.87236e-05
-0.000187152
5.22497e-05
-0.000189139
5.36362e-05
-0.000188972
6.00465e-05
-0.000192996
6.9499e-05
-0.000194038
7.48273e-05
-0.000192756
9.40926e-05
-0.000398328
0.000109857
-0.00040995
0.000103191
-0.000204526
0.000109377
-0.000386985
0.000101051
-0.000400875
0.00011133
-0.000399768
0.0001338
-0.000230593
0.00014367
-0.000271191
0.000146336
-0.000263637
-0.00026687
0.000158699
4.60162e-06
-0.000186662
8.99091e-06
-0.0001919
1.34962e-05
-0.000191681
1.74018e-05
-0.000190989
2.36206e-05
-0.000189607
3.0987e-05
-0.000190851
3.70178e-05
-0.000191011
4.16116e-05
-0.000191745
4.70538e-05
-0.000194582
5.41124e-05
-0.00019603
5.81143e-05
-0.000196998
6.36811e-05
-0.000199605
7.06074e-05
-0.000199683
8.39787e-05
-0.0004117
7.17308e-05
-0.000397702
9.73122e-05
-0.000230107
0.000114624
-0.000404296
0.000127377
-0.000413628
0.000128617
-0.000401008
0.000125767
-0.000227743
0.000144124
-0.000289548
0.000155858
-0.000275371
-0.000274094
0.000163081
3.65936e-06
-0.000190321
5.91046e-06
-0.000194151
9.74133e-06
-0.000195511
1.34125e-05
-0.00019466
2.28163e-05
-0.00019901
2.78625e-05
-0.000195898
3.4728e-05
-0.000197877
4.10924e-05
-0.00019811
4.58472e-05
-0.000199336
5.08798e-05
-0.000201063
5.61153e-05
-0.000202233
6.26466e-05
-0.000206136
6.82607e-05
-0.000205297
6.80816e-05
-0.000411521
5.9585e-05
-0.000389205
0.000216002
-0.000386524
0.000101096
-0.000289391
0.000116484
-0.000429016
0.000122356
-0.00040688
0.000159626
-0.000265014
0.000148681
-0.000278603
0.00016022
-0.00028691
-0.000278823
0.000164949
4.70742e-06
-0.000195029
9.2377e-06
-0.000198681
1.37024e-05
-0.000199976
1.92352e-05
-0.000200193
2.28754e-05
-0.000202651
2.85921e-05
-0.000201614
3.30621e-05
-0.000202347
3.83958e-05
-0.000203443
4.3592e-05
-0.000204533
4.93579e-05
-0.000206829
5.53283e-05
-0.000208204
6.25561e-05
-0.000213364
7.13248e-05
-0.000214066
6.8356e-05
-0.000408552
8.85277e-05
-0.000409377
0.000130872
-0.000428869
0.000112965
-0.000271483
0.000140629
-0.00045668
1.93943e-05
-0.000285645
0.00016356
-0.000409179
0.0001557
-0.000270743
0.00016169
-0.0002929
-0.000283471
0.000166338
4.84002e-06
-0.000199869
1.04411e-05
-0.000204282
1.52697e-05
-0.000204805
1.99823e-05
-0.000204906
2.29859e-05
-0.000205654
2.76458e-05
-0.000206274
3.20115e-05
-0.000206712
3.63513e-05
-0.000207783
4.0721e-05
-0.000208902
4.39866e-05
-0.000210094
4.86345e-05
-0.000212852
5.25725e-05
-0.000217302
5.79249e-05
-0.000219418
6.00928e-05
-0.00041072
7.62766e-05
-0.000425561
7.01699e-05
-0.000422762
0.000207648
-0.000408961
5.18716e-05
-0.000300903
4.40174e-05
-0.000277791
6.87502e-05
-0.000433912
0.00021641
-0.000418403
0.000172929
-0.000249419
-0.000294691
0.000184149
4.22715e-06
-0.000204096
8.38799e-06
-0.000208443
1.24038e-05
-0.000208821
1.68865e-05
-0.000209389
2.10407e-05
-0.000209808
2.52264e-05
-0.00021046
2.90625e-05
-0.000210548
3.32451e-05
-0.000211966
3.67476e-05
-0.000212405
3.98747e-05
-0.000213222
4.39947e-05
-0.000216972
4.54258e-05
-0.000218733
4.90125e-05
-0.000223005
4.24446e-05
-0.000404152
5.08968e-05
-0.000434013
5.82387e-05
-0.000430104
0.000100707
-0.00045143
0.000104382
-0.000304578
7.97205e-05
-0.00025313
8.64184e-05
-0.00044061
0.00010446
-0.000436445
0.00013045
-0.000275409
-0.000304794
0.000140552
4.59151e-06
-0.000208688
8.9951e-06
-0.000212847
1.31993e-05
-0.000213025
1.72723e-05
-0.000213462
2.09087e-05
-0.000213445
2.49914e-05
-0.000214543
2.84965e-05
-0.000214054
3.23735e-05
-0.000215843
3.55825e-05
-0.000215614
3.88141e-05
-0.000216453
4.22609e-05
-0.000220418
4.23498e-05
-0.000218822
4.48692e-05
-0.000225524
4.18494e-05
-0.000401132
4.75893e-05
-0.000439753
7.11823e-05
-0.000453697
8.65356e-05
-0.000466783
8.11371e-05
-0.00029918
9.79927e-05
-0.000269985
0.000120659
-0.000463277
0.000117783
-0.000433568
0.000122581
-0.000280207
-0.000313841
0.000131628
4.21658e-06
-0.000212904
8.07848e-06
-0.000216709
1.19293e-05
-0.000216876
1.57962e-05
-0.000217328
1.96808e-05
-0.000217329
2.34072e-05
-0.000218269
2.71687e-05
-0.000217815
3.10685e-05
-0.000219743
3.41211e-05
-0.000218666
3.83057e-05
-0.000220638
4.16913e-05
-0.000223804
4.50584e-05
-0.000222189
4.7892e-05
-0.000228358
5.78444e-05
-0.000411084
6.66141e-05
-0.000448522
5.6339e-05
-0.000443422
3.34617e-05
-0.000443906
0.000182226
-0.000447944
0.00020629
-0.000294049
6.57733e-05
-0.00032276
7.85028e-05
-0.000446298
7.343e-05
-0.000275134
-0.000475185
0.000234774
4.25024e-06
-0.000217154
8.17481e-06
-0.000220633
1.20448e-05
-0.000220746
1.57981e-05
-0.000221082
1.94294e-05
-0.000220961
2.28895e-05
-0.000221729
2.63583e-05
-0.000221284
2.98432e-05
-0.000223228
3.24455e-05
-0.000221269
3.61307e-05
-0.000224323
3.74283e-05
-0.000225101
4.11602e-05
-0.000225921
3.16866e-05
-0.000218884
3.23329e-05
-0.000411731
3.6991e-05
-0.00045318
3.938e-05
-0.000445811
5.8755e-05
-0.000463281
9.25452e-05
-0.000481734
0.000118786
-0.00032029
9.12064e-05
-0.000295181
0.000117088
-0.00047218
0.000144057
-0.000302103
-0.000488132
0.000157004
4.08858e-06
-0.000221243
7.7992e-06
-0.000224344
1.15839e-05
-0.00022453
1.52672e-05
-0.000224765
1.93029e-05
-0.000224996
2.29747e-05
-0.000225401
2.72434e-05
-0.000225553
3.09104e-05
-0.000226895
3.51612e-05
-0.00022552
3.91375e-05
-0.000228299
3.98271e-05
-0.000225791
4.52859e-05
-0.00023138
3.73288e-05
-0.000210927
3.04325e-05
-0.000404834
4.42294e-05
-0.000466977
4.50442e-05
-0.000446626
4.09711e-05
-0.000459207
3.11035e-05
-0.000471867
0.000161489
-0.000450675
0.000101581
-0.000235273
6.89093e-05
-0.000439508
8.53122e-05
-0.000318506
-0.000503977
0.000101157
3.98382e-06
-0.000225227
7.4859e-06
-0.000227846
1.09526e-05
-0.000227997
1.43906e-05
-0.000228203
1.79866e-05
-0.000228592
2.16893e-05
-0.000229104
2.57565e-05
-0.00022962
2.99614e-05
-0.0002311
3.47755e-05
-0.000230334
3.91905e-05
-0.000232714
4.20677e-05
-0.000228668
3.89616e-05
-0.000228274
4.26172e-05
-0.000214582
4.76752e-05
-0.000409892
3.84928e-05
-0.000457795
4.251e-05
-0.000450643
3.32685e-05
-0.000449966
4.81485e-05
-0.000486747
8.99571e-05
-0.000492484
0.000133651
-0.000278967
2.90514e-05
-0.000334909
0.000170051
-0.000459505
-0.000374206
4.02806e-05
3.69488e-06
-0.000228922
7.07716e-06
-0.000231228
1.04231e-05
-0.000231343
1.37024e-05
-0.000231482
1.74942e-05
-0.000232384
2.10527e-05
-0.000232662
2.62742e-05
-0.000234841
3.17934e-05
-0.000236619
3.78609e-05
-0.000236401
4.39815e-05
-0.000238835
4.81389e-05
-0.000232826
4.43996e-05
-0.000224535
4.39884e-05
-0.000214171
4.25842e-05
-0.000408488
2.61654e-05
-0.000441376
2.86258e-05
-0.000453103
3.36877e-05
-0.000455028
3.37044e-05
-0.000486764
8.08477e-05
-0.000539627
8.43593e-05
-0.000282478
4.17068e-05
-0.000292256
0.000104948
-0.000522747
-0.000326444
5.71861e-05
3.36919e-06
-0.000232291
6.31001e-06
-0.000234169