/*--------------------------------*- C++ -*----------------------------------*\
| =========                 |                                                 |
| \\      /  F ield         | foam-extend: Open Source CFD                    |
|  \\    /   O peration     | Version:     4.1                                |
|   \\  /    A nd           | Web:         http://www.foam-extend.org         |
|    \\/     M anipulation  |                                                 |
\*---------------------------------------------------------------------------*/
FoamFile
{
    version     2.0;
    format      ascii;
    class       volScalarField;
    location    "0.25";
    object      psi;
}
// * * * * * * * * * * * * * * * * * * * * * * * * * * * * * * * * * * * * * //

dimensions      [1 -1 -2 0 0 0 0];

internalField   nonuniform List<scalar> 
2268
(
-4.90031e-06
-5.52832e-06
-6.7946e-06
-7.95488e-06
-9.37978e-06
-1.51101e-05
-3.50063e-05
-6.47528e-05
-8.55671e-05
-0.000107992
-0.000221701
-0.000487314
-0.000654122
-0.00084447
-0.00112602
-0.00135228
-0.00148152
-0.00177296
-0.00148117
0.00431147
0.0574491
0.0726399
-0.283173
-1.86498e-05
-1.92641e-05
-2.19448e-05
-2.73604e-05
-3.3347e-05
-4.91768e-05
-7.75141e-05
-8.35638e-05
-5.85708e-05
-6.91494e-05
-0.00031768
-0.000627548
-0.00078486
-0.00108886
-0.00154416
-0.00180856
-0.00199865
-0.00163835
0.000265044
0.00761229
0.0541866
0.0756943
-0.28351
-3.56031e-05
-3.49271e-05
-3.74839e-05
-4.82056e-05
-5.18974e-05
-6.92221e-05
-6.54258e-05
4.47085e-05
0.000175251
0.000108194
-0.000269597
0.000163823
-0.000386263
-0.00106485
-0.00186258
-0.00216682
-0.00260902
-0.00222091
-0.000643536
0.00652437
0.0540651
0.0776903
-0.287188
-2.26063e-05
-1.62483e-05
-1.19841e-05
-1.75232e-05
6.93412e-06
3.35658e-05
0.000192292
0.00054612
0.000813451
0.000587109
0.000680435
0.00340902
0.00203342
0.000562408
-0.000609721
-0.0010632
-0.00140482
-0.000673246
0.00121642
0.00899079
0.0550264
0.0787069
-0.290165
0.000117978
0.000144679
0.000173099
0.000218593
0.000310095
0.000495703
0.000975467
0.00173154
0.00188002
0.0016573
0.00460978
0.0119505
0.00895543
0.00649198
0.00549657
0.00575919
0.00545705
0.0058318
0.00799698
0.0162609
0.0585306
0.0817585
-0.295052
0.000578244
0.000646966
0.000732122
0.00093935
0.00114864
0.0017392
0.0027219
0.00365115
0.00312503
0.00352553
0.013256
0.0252154
0.021773
0.0204111
0.022688
0.0239858
0.0232321
0.0215027
0.0223167
0.0292527
0.0686484
0.0872973
-0.303136
0.00161502
0.00168813
0.00186771
0.00239694
0.00268062
0.00394321
0.00536429
0.00482323
0.00335381
0.00575728
0.027199
0.030901
0.0356018
0.0422716
0.053522
0.0558316
0.0541056
0.0506007
0.0471649
0.0451714
0.072412
0.0800898
-0.319624
0.00299039
0.00288153
0.00319076
0.00406365
0.00409228
0.00575045
0.00608688
0.00291394
-0.00120881
0.00453382
0.0403557
-0.0170542
0.0303729
0.0534182
0.0782446
0.0814662
0.0838337
0.0875729
0.0781198
0.0672322
0.0884547
0.0978265
-0.304882
0.0550419
0.0413681
0.00287652
-0.00675117
-0.00186782
-2.73378e-05
8.85668e-05
2.48745e-05
3.548e-06
-3.93828e-08
-1.77025e-07
-4.14029e-08
-3.16952e-09
4.56865e-10
1.53575e-10
2.16043e-11
8.5963e-13
-2.99868e-13
1.27565e-14
0.0868808
0.0784348
0.0312704
-0.00184129
-0.0028025
-0.000469962
-2.32907e-05
1.22002e-05
6.18364e-06
1.62949e-06
1.51084e-07
-3.41782e-08
-1.17632e-08
-1.3568e-09
-1.86288e-11
2.69594e-11
7.29799e-12
5.84678e-13
-4.37988e-14
0.0579133
0.0601456
0.075199
0.0120071
-0.00262876
-0.0010384
-0.000246066
-5.15355e-05
-2.51268e-06
2.78309e-06
8.83779e-07
8.42405e-08
-1.22286e-08
-4.17922e-09
-6.20353e-10
-5.21272e-11
8.4793e-12
2.80183e-12
2.08432e-13
-0.151124
-0.14626
0.0816027
0.03839
0.00132153
-0.000704791
-0.000262089
-0.000145186
-3.72006e-05
-2.2272e-06
1.43186e-06
4.15493e-07
3.3551e-08
-3.01496e-09
-1.18799e-09
-2.66042e-10
-2.77156e-11
3.03807e-12
9.17981e-13
-0.593831
-0.582325
-0.0256026
0.0656519
0.0124708
0.0013671
0.00067484
-5.93619e-05
-7.74925e-05
-2.06896e-05
-8.97003e-07
7.60358e-07
1.73332e-07
1.58819e-08
8.89109e-10
-2.35866e-10
-1.12103e-10
-1.04747e-11
1.39966e-12
-1.14345
-0.909382
-0.230413
0.0797695
0.0301717
0.00222284
0.00276156
0.000659135
8.56371e-06
-4.51966e-05
-1.14052e-05
-2.85141e-07
3.03024e-07
5.46353e-08
8.18798e-09
1.31138e-09
-5.46201e-11
-4.20245e-11
-2.18871e-12
-1.88151
-1.38429
-0.552151
0.0474491
0.048621
-0.00860342
0.00210383
0.00217777
0.000456154
-1.29918e-05
-2.90069e-05
-5.8302e-06
-2.06271e-07
3.79083e-08
7.21736e-09
4.36552e-09
7.14852e-10
-2.23027e-11
-1.31272e-11
-4.15083
-2.32931
-1.33702
-0.109771
0.0364436
-0.0408886
-0.012873
0.00249877
0.00117077
0.000201264
-1.77166e-05
-1.69132e-05
-2.54269e-06
-2.36527e-07
-5.52677e-08
-1.82788e-09
2.07638e-09
2.48704e-10
-1.57906e-11
0.00300012
0.001708
0.00240317
0.00225004
0.00132782
-0.00151477
-0.00476139
-0.0167449
-0.0280923
-0.0167027
0.0239868
-0.308165
-0.0548011
-0.035379
0.00271459
0.0166187
0.0672467
0.121344
0.119805
0.0928993
0.111806
0.106567
-0.189403
0.00046684
-0.00637198
-0.00299348
-0.017888
-0.0143959
-0.0326051
-0.0498511
-0.0915524
-0.114783
-0.057124
0.0130713
-1.25224
-0.184158
-0.277898
-0.369512
-0.140865
-0.0431926
0.168431
0.203504
0.278515
0.249325
0.19901
-0.0708661
-0.0830077
-0.105393
-0.0983478
-0.147032
-0.143934
-0.207756
-0.277896
-0.376633
-0.380972
-0.198783
-0.13823
-3.08376
-0.114776
-0.873807
-1.45925
-0.961068
-0.943295
-0.536293
-0.314255
0.376282
0.215579
0.344484
0.233745
-0.428173
-0.477877
-0.460688
-0.55564
-0.563619
-0.721836
-0.860416
-0.975153
-0.815728
-0.389916
0.0719881
-3.31156
0.839116
0.0592288
-0.469438
0.12501
-0.116264
-0.394903
-0.947077
-0.828895
-0.960056
-1.46278
-0.685254
-1.09507
-1.16682
-1.12139
-1.27039
-1.26675
-1.53121
-1.64793
-1.62684
-0.929125
-0.0555082
0.27828
-1.00348
1.47648
1.2021
0.553694
0.583394
0.799845
0.649655
0.311329
-0.0741736
-1.14123
0.140701
-0.237211
-1.13693
-1.19886
-1.10645
-1.22568
-1.20936
-1.4925
-1.43932
-1.10836
0.229063
0.77797
-0.302677
-0.311141
1.13146
0.832133
0.572271
0.443113
0.372735
0.322896
0.509502
0.944377
4.0457
1.3893
0.578271
0.759587
0.718789
0.811105
0.759973
0.716177
0.476832
0.653746
1.39008
2.00775
0.684215
-0.329803
0.0486696
0.784244
0.587907
0.469776
0.11672
-0.0459594
-0.0879244
-0.0819129
-0.667253
0.43387
-0.638989
-0.748685
1.09119
1.07501
1.10801
1.12269
1.11239
1.19104
1.75677
2.79044
2.22003
0.294627
-0.142595
0.150211
0.424015
0.361096
0.236922
-0.0167733
-0.091023
-0.0662233
-0.0434019
-0.208847
-0.233612
-0.290714
-0.378074
0.536511
0.531857
0.537696
0.53776
0.510014
0.60847
0.97885
1.77214
1.26576
0.132671
-0.0325007
0.122014
0.186191
0.171454
0.0650631
-0.0438113
-0.0467332
-0.0307023
-0.0113815
-0.0330438
-0.0617266
-0.0563155
-0.0630684
0.172409
0.174226
0.171921
0.158997
0.119664
0.102944
0.145862
0.492209
0.444395
0.097801
-0.00389142
0.0510041
0.0624368
0.0223066
-0.0296987
-0.0441484
-0.0266573
-0.020585
-0.0112136
-0.00279958
-0.00459529
-0.00574985
-0.00603903
0.0172528
0.0235713
0.0200265
0.0133606
-0.00590598
-0.0385528
-0.0793805
-0.0365001
0.0505642
0.0361633
-0.00802603
0.00166979
0.0142928
-0.0116772
-0.0283289
-0.0265947
-0.0196094
-0.0145383
-0.00889624
-0.0034218
-0.000848979
0.000216854
0.00120385
-0.0197048
-0.016224
-0.0180054
-0.0190206
-0.0231429
-0.0283656
-0.0442353
-0.0535241
-0.0358254
-0.0177318
-0.0125888
-0.0135952
-0.00356749
-0.0114168
-0.0179534
-0.0174438
-0.015833
-0.0103508
-0.00564843
-0.00261314
-0.000932735
-0.000366202
-4.63472e-05
-0.0165242
-0.0178508
-0.0178473
-0.0179727
-0.0185832
-0.0168997
-0.0170578
-0.0325759
-0.0323431
-0.0269774
-0.0186313
-0.0164326
-0.0110342
-0.0134769
-0.0170471
-0.0114355
-0.00963984
-0.00801292
-0.00597694
-0.00205053
-0.000672659
-0.000221588
-0.000137386
-0.00871354
-0.0138836
-0.0132399
-0.0133249
-0.011956
-0.00180924
-0.00258092
-0.00477236
-0.00986375
-0.016322
-0.0187499
-0.0177693
-0.0136737
-0.0144097
-0.0127369
-0.00609505
-0.00371806
-0.00225194
-0.00155444
-0.000507716
-0.000202766
-0.000115482
-9.46547e-05
-0.000274449
-0.00109873
-0.000382636
-0.000715075
-0.00105103
3.42106e-05
-0.000178198
0.000224475
-5.81366e-05
-0.00170652
-0.00486609
-0.00805841
-0.00981758
-0.00895706
-0.00719277
-0.00322633
-0.000274458
-0.000775021
-0.000289368
3.38326e-05
4.14307e-05
2.40691e-05
1.67227e-05
0.000372948
0.000461389
0.000502976
0.000458576
0.000396879
0.000329076
0.000337673
0.000428016
0.00056392
0.000281564
-0.000668572
-0.0020459
-0.00243937
-0.00220969
-0.00128496
-0.000867505
0.000132815
-0.000198939
-5.77264e-05
-3.14511e-06
9.69514e-06
7.36359e-06
4.24719e-06
0.000193219
0.000180998
0.000174385
0.000218312
0.000215493
0.000214778
0.000249441
0.000250036
0.000264877
0.000233149
5.46917e-05
-0.000216995
-0.000278827
-0.000277281
0.000303887
3.48412e-05
2.99788e-05
1.50572e-05
3.27469e-05
1.43489e-05
5.28684e-06
3.42095e-06
2.42125e-06
7.40757e-05
3.40332e-05
3.89878e-05
0.000129211
0.000119791
0.000135576
0.000182617
0.000175741
0.000185893
0.000134907
8.87075e-05
6.8194e-05
4.37756e-05
2.69868e-05
8.84942e-05
4.96816e-05
2.29608e-05
1.6186e-05
1.03635e-05
5.14262e-06
3.46433e-06
1.38138e-06
-1.37258e-07
7.19517e-07
-9.65752e-06
-1.02681e-05
2.80872e-05
-1.06263e-05
1.27053e-05
4.36622e-05
2.23989e-05
5.40828e-05
6.87955e-05
5.51337e-05
3.77053e-05
3.82186e-05
2.6492e-05
1.33187e-05
8.87111e-06
5.04809e-06
4.60058e-06
2.16267e-06
2.41948e-07
-1.59614e-07
-6.76059e-08
-9.8056e-07
-1.76628e-06
-3.0609e-06
-4.2373e-06
2.83001e-06
-7.80081e-06
-2.93703e-06
8.27826e-06
-1.55397e-06
6.11182e-06
4.578e-06
1.38747e-05
2.01608e-05
2.1213e-05
8.78797e-06
3.58746e-06
-1.48954e-07
-4.58684e-07
-5.96171e-07
-4.5663e-07
-2.49802e-07
-8.13929e-08
5.40703e-08
-9.25338e-07
-8.74074e-07
-1.20771e-06
-1.62701e-06
-1.19207e-06
-2.72989e-06
-2.64697e-06
-9.87623e-07
-1.69722e-06
-1.52804e-06
-3.21745e-06
-9.8413e-07
9.84096e-07
1.1644e-06
-1.60209e-07
-6.33218e-07
-3.13752e-07
-1.42264e-07
-1.01124e-07
-7.27417e-08
-3.58076e-08
2.31241e-08
9.01855e-08
-8.61986e-07
-7.10935e-07
-1.1364e-08
-2.02446e-07
-1.01783e-06
-7.0066e-07
-1.83399e-06
-1.38151e-06
-1.11965e-06
-9.99397e-07
-1.15191e-06
-1.02023e-06
-5.57483e-07
-6.65363e-07
-4.05709e-07
-1.65437e-07
-5.82963e-08
-2.90866e-08
-1.00727e-08
-3.091e-09
4.65499e-09
4.92903e-08
9.75967e-08
-1.55559e-07
-4.7728e-08
3.77994e-08
3.32686e-08
-6.11267e-08
6.64354e-08
-2.59989e-07
-7.54294e-07
-8.76879e-07
-8.10012e-07
-3.47357e-07
-6.27606e-07
-3.68581e-07
-2.68115e-07
-9.71426e-08
-2.90266e-08
3.7968e-10
3.24443e-09
1.35505e-09
5.59605e-10
8.59535e-09
5.12628e-08
9.65112e-08
-2.6251e-07
2.13072e-08
2.2882e-08
2.86502e-08
3.12252e-08
5.34544e-08
4.95794e-08
4.2011e-08
-2.82494e-08
-3.64406e-08
2.30459e-08
-4.05024e-08
-8.93399e-08
-5.35172e-08
1.74915e-08
8.68766e-09
2.759e-09
6.18015e-10
-5.48889e-10
-1.67224e-09
1.78392e-08
6.78719e-08
9.01732e-08
-8.54696e-09
9.38251e-09
1.16803e-08
1.43997e-08
1.49091e-08
1.90891e-08
2.16258e-08
2.89444e-08
2.57525e-08
2.28321e-08
1.98898e-08
2.0564e-08
1.63151e-08
1.05135e-08
5.89274e-09
1.59512e-09
9.40092e-10
-1.2061e-10
-1.26564e-09
-2.48605e-09
2.79483e-08
7.6402e-08
7.19501e-09
1.26998e-06
2.66592e-09
5.42375e-10
5.36503e-10
2.51185e-09
4.17109e-09
9.32661e-09
9.76702e-09
1.01685e-08
8.92541e-09
7.99984e-09
8.28834e-09
7.74513e-09
5.73652e-09
1.61289e-09
-2.42783e-10
1.35267e-11
-2.98997e-10
-1.68968e-09
-2.10544e-09
3.08107e-08
7.95392e-08
3.3024e-08
2.49785e-06
-4.1374e-10
-4.82351e-10
-5.53836e-10
-6.09675e-10
-6.65981e-10
-5.08249e-10
5.4996e-10
2.50708e-09
2.85249e-09
2.1487e-09
1.80149e-09
1.53887e-09
1.16603e-09
-3.81935e-10
-1.01784e-10
-7.89689e-12
-1.65956e-10
-1.46645e-09
-3.32967e-09
2.34891e-08
6.40542e-08
-6.87233e-09
3.02587e-06
-1.75942e-10
-1.78505e-10
-2.06704e-10
-2.42797e-10
-2.71791e-10
-3.17056e-10
-2.94986e-10
-2.76823e-10
-3.30326e-10
-3.1769e-10
-3.32837e-10
-3.25842e-10
-2.23343e-10
-1.0284e-10
-1.08476e-11
1.58568e-11
-3.16254e-11
-1.32723e-09
-2.65732e-09
1.51491e-08
5.55229e-08
-4.9253e-08
3.02286e-06
-4.77608e-11
-3.6011e-11
-4.04261e-11
-6.85463e-11
-1.0178e-10
-9.77322e-11
-9.83123e-11
-1.11564e-10
-1.17898e-10
-1.10458e-10
-1.15531e-10
-1.16066e-10
-8.95123e-11
-2.18382e-11
6.61804e-12
3.40137e-11
2.19917e-11
-1.27178e-09
-4.01478e-09
7.15289e-09
9.78539e-08
-8.01772e-08
2.71026e-06
7.28362e-12
7.70725e-12
8.50661e-12
9.23652e-12
6.97663e-12
-5.07473e-12
-2.81163e-11
-4.00189e-11
-3.99197e-11
-3.84171e-11
-2.77949e-11
-1.26509e-11
-5.72463e-12
5.20628e-12
1.56561e-12
2.88112e-11
1.08815e-10
-8.00674e-10
-6.53966e-09
-4.69997e-09
1.49835e-07
-9.44762e-08
2.33853e-06
2.2353e-12
2.42261e-12
2.73941e-12
3.12505e-12
3.46697e-12
3.38815e-12
3.3275e-12
2.68474e-12
3.07721e-12
4.03406e-12
4.57839e-12
4.31378e-12
2.91813e-12
6.58547e-13
-1.31165e-12
2.32302e-11
1.49029e-10
-3.97217e-10
-6.31502e-09
-2.13963e-08
9.29649e-08
-1.91263e-08
3.51635e-06
5.27727e-13
6.67224e-13
7.05805e-13
1.093e-12
1.10516e-12
1.20653e-12
1.3423e-12
1.19329e-12
1.25125e-12
1.31752e-12
1.39665e-12
1.47313e-12
1.08672e-12
-4.35069e-13
-2.62834e-12
1.31606e-11
1.65462e-10
1.9725e-10
-5.59514e-09
-3.21826e-08
-5.57055e-09
2.80494e-07
4.16239e-06
-5.76775e-14
-3.9621e-14
-9.21592e-14
-6.91745e-14
2.58191e-14
3.10519e-13
5.55924e-13
3.98829e-13
4.59811e-13
5.20404e-13
2.41073e-13
6.28734e-14
5.91717e-14
-2.368e-13
-2.24499e-12
7.56465e-13
1.43446e-10
5.63172e-10
-5.02326e-09
-4.32274e-08
-5.92827e-08
8.47913e-07
5.20961e-06
4.48153e-14
3.60321e-14
-4.66573e-15
2.0188e-14
-1.36744e-14
1.81179e-14
3.29228e-14
4.84867e-14
4.20213e-14
3.20215e-14
-2.09612e-14
-7.61767e-15
2.17561e-14
-7.67591e-14
-1.73958e-12
-3.76596e-12
1.28697e-10
7.31377e-10
-5.55575e-09
-4.35783e-08
-1.25626e-07
1.43856e-06
7.84817e-06
5.67558e-14
1.38609e-13
1.31552e-13
1.15225e-13
4.23884e-14
7.45193e-14
8.53969e-14
2.98944e-14
-6.74247e-15
5.42954e-14
2.36935e-14
1.96703e-14
8.29324e-14
1.43311e-13
-9.53836e-13
-6.28911e-12
5.69023e-11
5.74117e-10
-2.08284e-09
-3.70704e-08
-1.21361e-07
1.50323e-06
8.70247e-06
8.47152e-14
1.21068e-13
1.34016e-13
1.04651e-13
7.97318e-14
1.11844e-13
1.35281e-13
1.4194e-13
8.33796e-14
5.9069e-14
2.39689e-14
1.17926e-13
3.15609e-14
1.41045e-13
-3.53093e-13
-5.84265e-12
6.99821e-12
3.93287e-10
6.0826e-10
-1.82564e-08
-9.85869e-08
2.0684e-07
3.12501e-06
1.29202e-13
1.05626e-13
8.40563e-14
6.57934e-14
1.18088e-13
3.30075e-15
1.09221e-13
1.7152e-13
-1.57597e-15
-2.41045e-14
1.66563e-14
1.62524e-13
1.22713e-13
8.89325e-14
-1.2504e-13
-5.31525e-12
-4.17031e-12
3.45106e-10
1.52242e-09
-1.08414e-08
-1.16258e-07
-2.58618e-07
2.74756e-06
1.59051e-13
-1.98342e-14
1.56545e-13
5.70032e-14
4.86413e-14
1.38155e-13
1.72589e-13
3.08412e-13
1.55781e-13
-2.98617e-14
8.12834e-14
1.98317e-13
9.103e-14
1.47127e-13
-1.72751e-13
-5.17821e-12
-6.9694e-12
3.53192e-10
2.11945e-09
-7.27793e-09
-1.44898e-07
-3.70039e-07
2.32519e-06
1.55248e-13
3.70276e-14
1.26641e-13
6.23171e-14
9.80641e-14
1.67644e-13
1.44662e-13
3.07239e-13
1.66916e-13
-7.53581e-14
9.02001e-14
1.58561e-13
7.38082e-14
1.20942e-13
-2.79664e-13
-4.75426e-12
4.74283e-12
4.18094e-10
2.0336e-09
-8.19337e-09
-1.82664e-07
-2.50054e-07
2.95299e-06
2.02145e-13
2.28298e-14
6.13715e-14
6.35314e-14
3.07957e-15
1.06502e-13
2.11239e-13
3.4418e-13
1.42242e-13
-2.13234e-14
1.66568e-13
1.28917e-13
1.13469e-13
7.90968e-14
-4.38715e-13
-5.12724e-12
3.19525e-11
5.91533e-10
1.36747e-09
-1.47851e-08
-2.35097e-07
-1.74584e-07
7.93112e-06
2.90608e-13
4.0057e-14
1.37533e-13
1.54969e-13
-3.7029e-14
1.6758e-13
1.74549e-13
3.2517e-13
9.22052e-15
-4.21835e-14
1.99879e-13
5.95989e-14
6.26517e-14
1.38967e-13
-5.76835e-13
-5.81852e-12
4.98532e-11
7.59097e-10
7.29421e-10
-1.62675e-08
-2.61852e-07
-3.65868e-07
1.09706e-05
2.89524e-13
3.78434e-14
5.43638e-14
1.52318e-13
-7.84478e-14
2.85147e-13
1.84224e-13
3.26097e-13
-4.73231e-14
-1.03343e-13
1.95878e-13
-6.28926e-14
2.18151e-13
8.9245e-14
-6.57111e-13
-6.18492e-12
5.85934e-11
8.71945e-10
2.00615e-10
-1.68974e-08
-2.67435e-07
-4.85325e-07
1.1742e-05
-0.128883
1.22374
3.82961
4.24844
-0.0913669
0.297571
0.773803
1.13326
0.146792
0.156916
0.200107
0.199178
-0.271332
-0.42652
-0.335242
-0.0526511
-0.127462
-0.204294
0.00216808
-0.540026
-0.0955611
0.148816
0.281337
-1.63834
-0.867484
-0.437436
-0.461162
-2.35005
-0.529046
-0.610364
-0.591199
-0.70919
-0.0988287
-0.14246
-0.191635
-0.228139
-0.0112181
-0.0228405
-0.0350887
-0.0526602
0.00173044
0.00198353
0.00156696
0.000499837
0.000360418
0.00062781
0.000871264
0.00122714
-0.00010867
-7.22996e-05
-7.69331e-06
0.000254237
-6.28337e-05
-6.79807e-05
-6.16486e-05
7.35712e-05
9.21492e-06
3.57504e-06
3.60938e-06
5.24582e-05
1.07354e-06
-6.46184e-07
1.07689e-05
4.37924e-05
8.71879e-08
-1.99695e-06
1.45481e-06
2.5512e-05
-1.20199e-06
-2.91853e-06
1.29761e-06
1.89477e-05
-2.17252e-06
-8.5999e-07
1.51891e-05
2.47698e-05
-2.05919e-06
-1.55493e-06
1.20521e-05
2.65958e-05
-1.41524e-06
1.51153e-07
8.9421e-06
2.20279e-05
-7.28354e-07
-9.06031e-07
-2.21976e-07
1.24844e-06
7.20263e-07
1.01153e-06
-7.25099e-06
-2.9525e-05
5.90931e-06
3.62185e-06
-3.99393e-05
-8.44491e-05
1.47701e-05
7.62269e-06
-9.62918e-05
-0.000159504
2.29049e-05
7.11727e-06
-0.000155349
-0.000248193
2.66941e-05
1.31527e-05
-0.000163622
-0.000288005
2.73863e-05
1.71629e-05
-0.0001519
-0.00030393
2.66522e-05
2.18658e-05
-0.000132237
-0.000318193
2.32467e-05
2.965e-05
-7.32028e-05
-0.000322604
2.81823e-05
2.37074e-05
-0.000119393
-0.000331412
3.86262e-05
3.90955e-05
-0.000172928
-0.000404361
5.67774e-05
6.11313e-05
-0.000360762
-0.00072768
6.20909e-05
5.5071e-06
-0.000503705
-0.000933035
4.30128e-05
-3.16917e-05
-0.000459856
-0.000748913
2.86292e-05
2.14813e-05
-0.000158686
-0.000330943
2.03438e-05
3.10886e-05
9.7093e-06
-8.52387e-05
1.80376e-05
4.14189e-05
7.75918e-05
5.09681e-05
1.7656e-05
6.02787e-05
7.64289e-05
1.33713e-05
1.75964e-05
2.23148e-05
5.85806e-05
-4.21984e-05
3.72819e-05
-1.69839e-06
-4.94987e-05
-0.000143131
4.88651e-05
-3.51698e-06
-8.7497e-05
-0.000188607
-3.55239
-2.84049
-2.34463
-0.939006
-0.207187
-0.0643112
-0.0786483
-0.00856604
0.000220548
0.000911353
0.00015275
-1.33978e-05
-7.66492e-06
-7.98888e-07
-2.31334e-07
-6.81629e-08
-2.17623e-09
1.03812e-09
8.30846e-11
4.41991
2.81009
-2.22018
-5.21834
-1.96741
0.0324537
-0.381139
-0.118393
-0.0289323
0.00187282
0.00218468
0.000486293
5.55875e-05
1.02452e-05
2.74316e-06
-2.5756e-07
-1.06852e-07
-5.72794e-09
7.97777e-10
0.59955
2.03196
3.7716
-0.0529321
0.0350572
2.1105
0.998495
0.0396785
-0.113034
-0.0178355
0.00485769
0.00323114
0.00078396
9.43675e-05
4.26531e-05
8.09466e-06
1.26747e-07
-8.63803e-08
-5.60534e-09
-0.158438
-0.240926
1.00475
2.17612
-1.64433
0.558374
-3.55384
-3.35137
-0.345838
-0.506868
-0.104828
-0.0217413
-0.0048103
-0.00182577
-0.000184954
4.29963e-05
9.50079e-06
4.0687e-07
-4.22479e-08
-0.999842
-0.111117
-0.367453
0.162213
0.0877044
1.34216
1.6193
-0.269117
-0.936756
-3.19194
-1.38008
-0.449798
-0.124334
-0.0255992
-0.00661075
-0.000670471
-8.41501e-06
5.2158e-06
2.60502e-07
0.0943023
-1.68844
0.0178832
0.548756
-0.144578
-0.553182
0.330225
2.1022
3.49429
4.31214
2.7927
1.01776
0.179913
0.00926992
-0.0152507
-0.00439008
-0.000513056
-1.42402e-05
1.23654e-06
1.7638
-0.0321243
0.296233
-0.708365
-0.149363
0.135062
-1.52511
-1.52516
-1.19286
1.14258
3.10506
2.17921
1.06088
0.401908
0.0604585
7.11365e-05
-0.00118425
-0.000122914
-2.62665e-06
1.82227
2.45598
0.547636
-0.259481
-0.568668
-0.424233
0.107757
-1.57977
-1.03274
-0.840815
-1.56821
-1.10023
-0.737268
-0.206277
-0.060426
-0.0111073
-0.00113238
-4.91629e-05
4.69132e-06
-0.645673
-0.758899
-0.376973
-0.282809
-0.663254
-0.313772
1.08067
-0.132382
-1.00793
1.78891
4.44535
3.86538
2.50194
0.531148
0.0663571
-0.00674324
-0.0036838
-0.000432077
-1.67499e-05
-0.106718
-0.145978
-0.106464
0.0473705
0.026262
-0.252398
0.466704
0.592404
-0.488863
0.386392
1.59825
1.5056
1.34043
0.651859
0.152292
0.0238463
0.000284505
-0.000770304
-8.29133e-05
-0.0111544
-0.022405
-0.0433513
-0.0693696
-0.108607
0.0315752
1.33758
2.3254
0.705929
0.81736
2.1865
0.910913
-0.124876
0.00919103
-0.00370655
-0.00343673
-0.00242548
-0.000485073
-3.37415e-05
0.00164483
-0.000873978
-0.00513368
-0.0208817
-0.0662737
-0.0909226
0.27463
1.18533
1.52103
1.22042
2.77668
2.88287
1.89465
0.334021
0.031701
-0.00669543
-0.00290131
-0.00048373
-2.93356e-05
0.00040418
-0.000196613
-0.00324051
-0.0223554
-0.0767152
0.141421
2.3183
4.01234
2.18309
1.77785
2.74661
3.2204
1.27546
0.451282
0.0685335
-0.00949474
-0.00539814
-0.000882923
-6.43132e-05
0.000155323
-0.00131947
-0.00439966
-0.00701911
0.0520711
0.256062
1.07117
3.18042
2.62406
2.80728
3.5221
3.48085
2.48683
0.990498
0.27265
0.0166663
-0.00941129
-0.00233495
-0.000210612
0.000117339
-0.000193823
-0.00371331
-0.0199121
-0.0887393
0.210609
2.70923
3.96009
2.90411
2.56924
2.71589
2.7245
2.19983
1.24862
0.499985
0.127341
0.0106599
-0.00305948
-0.000684816
8.22658e-05
-0.000481934
-0.00160906
-0.0114887
-0.0331745
0.05085
0.843429
3.56142
3.15883
2.4413
1.63398
1.02753
1.02804
0.971914
0.409368
0.115994
0.0128905
-0.00263671
-0.000712152
4.93699e-05
-0.000356366
-0.00243578
-0.0049798
0.0420155
0.365574
1.40452
2.94692
2.64293
2.00112
0.586023
0.554364
0.448564
0.411886
0.2313
0.0793143
0.0127311
-0.00217322
-0.00057725
4.35446e-05
2.55438e-05
-0.00162455
-0.0094775
-0.0503596
-0.00745373
1.37566
2.01046
2.04256
1.74937
0.669278
0.167702
0.217738
0.168735
0.100583
0.0336597
0.00339636
-0.00169572
-0.000279488
-5.24827e-07
-0.000147915
-0.000115598
-0.00256204
-0.0286151
-0.128771
0.915788
1.76871
1.69993
1.43429
0.391434
0.00549409
0.0646198
0.0522374
0.0358153
0.0109478
-0.000592285
-0.000796369
-8.25469e-05
-4.14975e-06
-0.00032802
-0.000416431
-0.00066971
-0.00676925
-0.0626064
0.252434
1.3265
1.50353
1.42037
0.740718
0.192354
0.0434771
0.0215305
0.0134132
0.00264003
-0.000607399
-0.000271523
-2.19618e-05
-6.23285e-06
-0.000323313
-0.000861972
-0.00232994
0.00288742
0.0493654
0.385001
1.27879
1.34004
1.1108
0.546511
0.135979
0.0231055
0.00690067
0.00436707
0.000446432
-0.000314937
-8.0682e-05
-3.89073e-06
5.72219e-06
-0.0001171
-0.00124255
-0.00496759
0.0181925
0.133364
0.744994
1.51158
1.33863
0.927918
0.383961
0.118538
0.0229159
0.00187183
0.00100414
-6.13937e-05
-0.000124805
-2.18836e-05
-3.14895e-07
-1.61216e-05
-1.6312e-05
-0.00113727
-0.00776384
-0.00178834
0.225392
1.11063
1.43086
1.12566
0.601302
0.162998
0.0670461
0.0194363
0.00109839
8.26797e-06
-0.00010463
-4.6496e-05
-6.0725e-06
1.42964e-07
-3.92427e-05
0.000143511
-0.00105194
-0.00806536
-0.000843861
0.266367
1.22832
1.29113
0.858324
0.316894
0.0594765
0.0399762
0.0128084
0.00173225
-2.44618e-05
-9.22649e-05
-2.16453e-05
-1.96581e-06
1.22444e-07
-4.45439e-05
0.000236499
0.000378462
-0.000188736
0.0243595
0.463009
1.28868
1.18496
0.651839
0.0966443
0.00318255
0.0208868
0.0087079
0.00174733
-9.62078e-06
-6.8053e-05
-1.29461e-05
-9.89242e-07
7.37505e-08
-7.6125e-05
0.000898478
0.00266623
0.00386222
0.00593861
0.307056
1.17845
1.07746
0.664895
0.141931
0.0100811
0.0086607
0.00389194
0.00181792
7.89457e-05
-4.04458e-05
-1.01899e-05
-8.1171e-07
5.55288e-08
-0.000150714
0.000842295
0.00168298
0.00123408
-0.00666389
0.301233
1.01913
0.916616
0.527216
0.111172
-0.0019587
0.0026147
0.00214253
0.00123876
0.000110422
-2.37819e-05
-7.94098e-06
-6.25373e-07
5.10326e-08
-0.000362611
0.000174411
0.00537349
0.0228634
0.125995
0.513755
1.04151
0.887342
0.488687
0.0814529
0.00139928
-0.00362386
0.000575845
0.000659993
5.39895e-05
-1.48599e-05
-5.19703e-06
-3.53413e-07
4.03058e-08
-0.000480668
-0.000932372
0.00732854
0.0630572
0.209506
0.658309
0.889674
0.809788
0.479255
0.0574791
0.00584551
-0.00402011
-9.1712e-05
0.000202097
3.66698e-05
-6.67647e-06
-2.56347e-06
-2.07873e-07
1.94176e-08
-0.000653245
-0.00186045
0.00527386
0.094581
0.495952
0.925229
0.861903
0.71039
0.394628
0.106264
0.00286947
-0.00333827
-0.000284519
-1.83238e-05
-7.70201e-06
3.02638e-06
-4.29681e-07
3.43204e-07
-5.0434e-08
-0.000556231
-0.00207747
-0.000870062
0.105664
0.461649
0.918659
0.860714
0.583337
0.231094
0.0778646
0.000540943
-0.00308814
-0.000129987
1.12636e-05
-3.19953e-05
-3.41143e-06
3.01534e-06
1.4392e-06
1.58457e-07
-0.000654261
0.0009074
-0.00730086
-0.00229673
0.422601
0.905433
0.85066
0.608381
0.165978
0.0166709
-0.00113322
-0.00110785
-6.973e-05
-4.13546e-05
-0.000101881
-6.87679e-05
-3.28945e-05
8.359e-06
1.48017e-06
-0.000508211
0.00799173
0.00123852
-0.0286803
0.234771
0.803816
0.826072
0.624255
0.176375
0.00577342
-0.00315258
0.000129853
0.000306589
-2.95993e-05
-0.000343533
-0.000345664
-0.000116899
-1.69041e-05
8.3315e-06
-0.000697978
0.00808429
0.018052
-0.00989538
0.193264
0.735868
0.785994
0.610315
0.187337
0.00512888
-0.00281034
0.00191732
0.002069
0.00122939
0.00038162
-0.000941997
-0.000676265
-0.000158366
3.5344e-06
-0.000385428
0.00578304
0.0215708
0.00904228
0.0902621
0.619109
0.725241
0.578626
0.21324
0.00785726
-0.00354297
0.00580346
0.00814558
0.00845986
0.0097858
0.00273968
-0.00153714
-0.000864468
-0.000109141
-7.97107e-05
-0.000581399
0.0146634
0.0233649
0.0135042
0.449447
0.654578
0.520729
0.236918
0.0199446
-0.00378673
0.0139898
0.0232854
0.0302461
0.0441898
0.0333036
0.00829447
-0.00263464
-0.000482084
-0.000621696
-0.00230862
0.0126012
0.0318666
0.0145146
0.251613
0.567065
0.460289
0.244324
0.0418225
-0.0019162
0.0241917
0.0423024
0.0631809
0.0939876
0.0854888
0.0435454
-0.00219482
-0.00151266
-0.000880329
-0.00306357
0.00696366
0.0406148
0.0487884
0.149294
0.46216
0.411213
0.224022
0.0546361
0.00325103
0.0299025
0.0518442
0.0928652
0.117279
0.104874
0.063505
0.00829733
-0.00191832
-0.000745333
-0.00313398
-0.00482156
0.0454141
0.0775792
0.114791
0.36172
0.371132
0.200573
0.0593792
0.00998008
0.0349724
0.0612559
0.122301
0.126048
0.103519
0.0631452
0.0145192
-0.00122459
-0.000588835
-0.00276751
-0.00749526
0.0460432
0.120734
0.149832
0.330206
0.357663
0.22962
0.0601064
0.0171799
0.0396242
0.0766062
0.150612
0.122938
0.0944599
0.0564895
0.0129995
-0.00140275
-0.000520034
-0.00233671
-0.00161124
0.00439725
0.0300856
0.10199
0.282221
0.349099
0.225583
0.0559466
0.0202901
0.0480317
0.146201
0.153441
0.120259
0.0643271
0.0359375
0.0106128
-0.000770735
-0.000502387
-0.00238781
0.000889852
0.00743384
0.0214003
0.0739047
0.281638
0.356187
0.175371
0.0656098
0.0760325
0.125361
0.153077
0.100841
0.0387148
0.0105147
0.0075079
0.00248414
-0.000597643
)
;

boundaryField
{
    leftWall
    {
        type            zeroGradient;
    }
    rightWall
    {
        type            zeroGradient;
    }
    lowerWall
    {
        type            zeroGradient;
    }
    atmosphere
    {
        type            zeroGradient;
    }
    defaultFaces
    {
        type            empty;
    }
}


// ************************************************************************* //
