/*--------------------------------*- C++ -*----------------------------------*\
| =========                 |                                                 |
| \\      /  F ield         | foam-extend: Open Source CFD                    |
|  \\    /   O peration     | Version:     4.1                                |
|   \\  /    A nd           | Web:         http://www.foam-extend.org         |
|    \\/     M anipulation  |                                                 |
\*---------------------------------------------------------------------------*/
FoamFile
{
    version     2.0;
    format      ascii;
    class       volVectorField;
    location    "0.25";
    object      U;
}
// * * * * * * * * * * * * * * * * * * * * * * * * * * * * * * * * * * * * * //

dimensions      [0 1 -1 0 0 0 0];

internalField   nonuniform List<vector> 
2268
(
(0.0485787 -0.00702191 0)
(0.0653257 -0.00682093 0)
(0.163954 -0.00810196 0)
(0.193729 -0.00331146 0)
(0.25699 -0.00906212 0)
(0.312304 -0.00602649 0)
(0.395816 -0.00484137 0)
(0.431114 -0.00576804 0)
(0.498691 -0.00431094 0)
(0.486474 0.0274788 0)
(0.402961 -0.0848516 0)
(0.410624 -0.0459377 0)
(0.45981 -0.0417597 0)
(0.468973 -0.0205137 0)
(0.509443 -0.0201426 0)
(0.491541 -0.0198182 0)
(0.536516 -0.0630487 0)
(0.558219 -0.0121522 0)
(0.506809 -0.024463 0)
(0.46567 0.0696159 0)
(0.313881 0.0709273 0)
(0.309258 0.0300553 0)
(0.419723 0.0274663 0)
(0.0485886 -0.0199337 0)
(0.066338 -0.0203086 0)
(0.164609 -0.0228658 0)
(0.195733 -0.0178429 0)
(0.254754 -0.0202205 0)
(0.324016 -0.0253433 0)
(0.397181 -0.0248443 0)
(0.432295 -0.0180308 0)
(0.51866 -0.0109588 0)
(0.471103 -0.00505494 0)
(0.409868 -0.0735186 0)
(0.430898 -0.0245654 0)
(0.483789 -0.0119099 0)
(0.485732 -0.00315188 0)
(0.514883 0.00749447 0)
(0.473097 0.0119777 0)
(0.517173 0.0271401 0)
(0.6415 0.0314619 0)
(0.591147 0.056939 0)
(0.515137 0.0116894 0)
(0.297253 0.0704132 0)
(0.301578 0.212966 0)
(0.437695 0.146509 0)
(0.0473548 -0.0342637 0)
(0.0666441 -0.0341001 0)
(0.161912 -0.0391824 0)
(0.199676 -0.023614 0)
(0.250925 -0.0401723 0)
(0.340342 -0.0388706 0)
(0.377307 -0.0311929 0)
(0.437344 -0.0334393 0)
(0.533383 -0.0161108 0)
(0.440975 -0.144597 0)
(0.388267 -0.0834988 0)
(0.416609 -0.047943 0)
(0.444882 -0.0365123 0)
(0.449846 -0.0274289 0)
(0.482712 -0.00500966 0)
(0.46488 -0.00390238 0)
(0.511001 0.0920197 0)
(0.537369 0.0140561 0)
(0.493174 0.0433621 0)
(0.452812 -0.016255 0)
(0.407843 0.0863174 0)
(0.317978 0.207041 0)
(0.403147 0.205644 0)
(0.0459824 -0.0468529 0)
(0.0684021 -0.0472482 0)
(0.162366 -0.0549853 0)
(0.19793 -0.0382001 0)
(0.275536 -0.0554929 0)
(0.333863 -0.0528392 0)
(0.373361 -0.0505528 0)
(0.477584 -0.0570106 0)
(0.43652 -0.0436967 0)
(0.370389 -0.142414 0)
(0.36229 -0.0723424 0)
(0.369345 -0.0527932 0)
(0.397602 -0.0292034 0)
(0.402365 -0.0208596 0)
(0.431756 0.00391733 0)
(0.435556 0.000614702 0)
(0.480836 0.0648023 0)
(0.498415 0.0248728 0)
(0.48047 0.0375574 0)
(0.458016 0.0398556 0)
(0.393656 0.136956 0)
(0.320902 0.219136 0)
(0.402718 0.316128 0)
(0.0431059 -0.0614407 0)
(0.0689915 -0.0614793 0)
(0.161335 -0.0700636 0)
(0.198416 -0.0494683 0)
(0.284024 -0.0723339 0)
(0.326207 -0.0622252 0)
(0.372551 -0.065651 0)
(0.478374 -0.0431192 0)
(0.389174 -0.152174 0)
(0.310516 -0.120168 0)
(0.318223 -0.080182 0)
(0.334841 -0.0676558 0)
(0.364665 -0.046779 0)
(0.379067 -0.0407806 0)
(0.418724 -0.0184032 0)
(0.429117 -0.0153906 0)
(0.460038 0.0330377 0)
(0.470849 0.0207999 0)
(0.445342 0.0625813 0)
(0.463052 0.0371538 0)
(0.439902 0.166395 0)
(0.3102 0.323447 0)
(0.433704 0.376872 0)
(0.0397192 -0.0732157 0)
(0.0721937 -0.0750834 0)
(0.163797 -0.0863005 0)
(0.200262 -0.0670943 0)
(0.278852 -0.0884751 0)
(0.324343 -0.0699866 0)
(0.404765 -0.096373 0)
(0.352887 -0.0682155 0)
(0.290445 -0.149209 0)
(0.293534 -0.115391 0)
(0.300633 -0.0824003 0)
(0.326433 -0.0764501 0)
(0.358399 -0.0476842 0)
(0.38686 -0.0500079 0)
(0.416633 -0.0199789 0)
(0.446068 -0.015198 0)
(0.45941 0.0249435 0)
(0.499923 0.0351468 0)
(0.458805 0.115019 0)
(0.519252 0.0991588 0)
(0.551119 0.186468 0)
(0.369874 0.405276 0)
(0.428716 0.500392 0)
(0.0345291 -0.0881399 0)
(0.0736161 -0.0906755 0)
(0.162015 -0.100328 0)
(0.194194 -0.0751269 0)
(0.274975 -0.101479 0)
(0.317219 -0.0984528 0)
(0.330051 -0.06118 0)
(0.299928 -0.158408 0)
(0.269694 -0.139546 0)
(0.285147 -0.123601 0)
(0.298467 -0.0986305 0)
(0.336943 -0.0945953 0)
(0.372197 -0.076188 0)
(0.390072 -0.0694429 0)
(0.417182 -0.0429642 0)
(0.468316 -0.0332649 0)
(0.485622 -0.0150412 0)
(0.525689 0.0335179 0)
(0.480859 0.0696257 0)
(0.474266 0.164238 0)
(0.606173 0.231572 0)
(0.409722 0.520197 0)
(0.437414 0.562834 0)
(0.0325045 -0.0982192 0)
(0.0800198 -0.104888 0)
(0.159934 -0.115919 0)
(0.186229 -0.0977835 0)
(0.260402 -0.124404 0)
(0.311154 -0.0706349 0)
(0.262303 -0.116021 0)
(0.268072 -0.171067 0)
(0.265934 -0.145027 0)
(0.287066 -0.129873 0)
(0.303076 -0.108027 0)
(0.354857 -0.112401 0)
(0.379944 -0.0664998 0)
(0.400082 -0.0775172 0)
(0.441721 -0.0585679 0)
(0.479148 -0.0455586 0)
(0.494279 -0.0230676 0)
(0.540413 0.0350423 0)
(0.519504 0.0537267 0)
(0.530427 0.195412 0)
(0.699569 0.211872 0)
(0.502788 0.544498 0)
(0.369237 0.769244 0)
(0.022132 0.0259691 0)
(0.104492 -0.0248064 0)
(0.169585 0.000534576 0)
(0.1229 0.012599 0)
(0.0856702 -0.00143947 0)
(0.0717861 0.00595009 0)
(0.0645805 -0.00119875 0)
(0.0746429 0.017815 0)
(0.0737898 -0.00758238 0)
(0.0806429 -0.00290567 0)
(0.103304 0.00655635 0)
(0.108426 -0.00275321 0)
(0.127147 -0.0296572 0)
(0.12747 -0.0135931 0)
(0.174726 0.0118335 0)
(0.15468 -0.0165248 0)
(0.106786 0.0211011 0)
(0.107581 0.00549219 0)
(0.0205865 0.00713011 0)
(-0.00329629 -0.0866339 0)
(0.0994182 -0.0631919 0)
(0.138035 -0.00501564 0)
(0.0870184 0.016507 0)
(0.0654601 0.0301587 0)
(0.0550547 0.0108144 0)
(0.0565377 0.000637807 0)
(0.0623872 0.00642765 0)
(0.0574099 -0.025133 0)
(0.0781596 -0.0114106 0)
(0.0984587 -0.0187804 0)
(0.0966563 -0.00699917 0)
(0.115288 0.0215004 0)
(0.127825 -0.0219071 0)
(0.174508 0.0397886 0)
(0.157119 -0.0155102 0)
(0.109856 0.0360218 0)
(0.09999 0.0154424 0)
(0.0205092 0.0201808 0)
(0.0376392 -0.0404883 0)
(0.16958 -0.0934068 0)
(0.136781 0.00849266 0)
(0.0586209 0.0403051 0)
(0.0562944 0.0344591 0)
(0.0422645 0.0104257 0)
(0.0477443 -0.00791335 0)
(0.0531571 0.00505204 0)
(0.0577133 -0.0148412 0)
(0.0739647 -0.0187585 0)
(0.0955493 -0.0177209 0)
(0.105827 -0.0212908 0)
(0.108552 0.00247527 0)
(0.131343 -0.00140545 0)
(0.190683 0.0448338 0)
(0.153902 -0.000840596 0)
(0.114785 0.0349379 0)
(0.100199 0.0259391 0)
(0.0214075 0.0329634 0)
(-0.0388576 -0.0944199 0)
(0.199322 -0.119676 0)
(0.190013 0.101584 0)
(0.0225761 0.038886 0)
(0.031976 0.081868 0)
(0.0376153 -0.00302712 0)
(0.0517744 -0.0217144 0)
(0.0590674 -0.0062799 0)
(0.0467824 -0.037227 0)
(0.0745748 -0.0312436 0)
(0.0914501 -0.0155559 0)
(0.0996226 -0.0185475 0)
(0.125747 0.0279251 0)
(0.14342 0.00127453 0)
(0.179596 0.026528 0)
(0.154759 0.00417405 0)
(0.122364 0.0433844 0)
(0.0986975 0.0370913 0)
(0.0227039 0.0461206 0)
(0.0558527 -0.172945 0)
(0.361886 -0.194721 0)
(0.208927 0.188186 0)
(0.00660437 0.0596821 0)
(-0.00622177 0.137068 0)
(-0.0159993 -0.016029 0)
(0.0419471 -0.00479174 0)
(0.0416313 -0.00778786 0)
(0.0439993 -0.0168878 0)
(0.0810644 -0.0347269 0)
(0.0936419 -0.0272714 0)
(0.124303 -0.0145522 0)
(0.117415 0.0209857 0)
(0.127588 -0.00581441 0)
(0.194807 0.0118337 0)
(0.163875 0.0117684 0)
(0.128606 0.0471373 0)
(0.100969 0.0483798 0)
(0.02451 0.0589845 0)
(0.202693 -0.533886 0)
(0.336039 -0.250755 0)
(0.242711 0.202884 0)
(-0.0634242 0.0830335 0)
(-0.0383634 0.13899 0)
(-0.0598155 -0.0485865 0)
(0.0422512 -0.0416057 0)
(0.0419937 -0.017908 0)
(0.028125 -0.0658978 0)
(0.0665758 -0.0670949 0)
(0.0990651 -0.0237523 0)
(0.121674 -0.0293068 0)
(0.129239 -0.0147136 0)
(0.141863 0.0246841 0)
(0.188125 0.0148324 0)
(0.170805 0.0195143 0)
(0.136949 0.0550721 0)
(0.104183 0.0606122 0)
(0.0267699 0.0730635 0)
(-0.297238 -0.458421 0)
(-0.512194 -0.195749 0)
(0.302797 0.343 0)
(-0.0660995 0.102367 0)
(-0.0918775 0.154811 0)
(-0.138792 -0.0467183 0)
(0.0346059 -0.0465392 0)
(0.0238718 0.0393071 0)
(0.0240591 -0.131406 0)
(0.0737961 -0.0239321 0)
(0.0977965 -0.0407504 0)
(0.125919 -0.0163476 0)
(0.141004 0.0141553 0)
(0.147743 -0.0129154 0)
(0.19301 0.00827138 0)
(0.179929 0.0234117 0)
(0.145713 0.0610119 0)
(0.108658 0.0727172 0)
(0.0294752 0.0870085 0)
(-0.246455 0.133786 0)
(-0.987003 -0.41384 0)
(0.279098 0.0499858 0)
(-0.144982 0.215103 0)
(-0.132599 0.148897 0)
(-0.146721 -0.0782611 0)
(0.0697856 -0.121709 0)
(-0.000807551 -0.011235 0)
(0.0330311 -0.112262 0)
(0.0933578 -0.0294568 0)
(0.0911334 -0.0792972 0)
(0.132006 -0.0150724 0)
(0.127931 -0.0170336 0)
(0.139136 0.010791 0)
(0.205788 0.0069405 0)
(0.193667 0.0313098 0)
(0.156899 0.0699433 0)
(0.115242 0.0867535 0)
(0.032694 0.103178 0)
(0.0307793 -0.124294 0)
(0.079073 -0.129447 0)
(0.146135 -0.133887 0)
(0.164842 -0.0906687 0)
(0.271221 -0.132458 0)
(0.225026 -0.140152 0)
(0.223663 -0.173309 0)
(0.268839 -0.170108 0)
(0.265937 -0.153053 0)
(0.289102 -0.141342 0)
(0.309716 -0.1444 0)
(0.38747 -0.136957 0)
(0.381763 -0.127374 0)
(0.391165 -0.111651 0)
(0.465056 -0.092828 0)
(0.482964 -0.0674282 0)
(0.524839 -0.0147984 0)
(0.503774 0.034995 0)
(0.547332 0.121193 0)
(0.507001 0.178605 0)
(0.775443 0.229872 0)
(1.01473 0.607654 0)
(0.696484 0.995938 0)
(0.0425236 -0.14351 0)
(0.0609862 -0.155624 0)
(0.162547 -0.151101 0)
(0.143992 -0.173137 0)
(0.159254 -0.159089 0)
(0.203853 -0.207707 0)
(0.228459 -0.173094 0)
(0.249202 -0.190382 0)
(0.271521 -0.177118 0)
(0.305588 -0.168791 0)
(0.335512 -0.193222 0)
(0.379415 -0.17035 0)
(0.399824 -0.195825 0)
(0.419635 -0.170094 0)
(0.479583 -0.140868 0)
(0.540021 -0.101209 0)
(0.547466 -0.0472826 0)
(0.637472 0.0504029 0)
(0.565227 0.132217 0)
(0.663494 0.247889 0)
(1.00195 0.180205 0)
(1.3096 0.517303 0)
(1.08758 0.664752 0)
(0.0268713 -0.177182 0)
(0.0516183 -0.190768 0)
(0.10212 -0.179169 0)
(0.131018 -0.223656 0)
(0.165359 -0.19944 0)
(0.191711 -0.209011 0)
(0.222308 -0.214264 0)
(0.257848 -0.214588 0)
(0.286968 -0.212978 0)
(0.318342 -0.199981 0)
(0.363268 -0.221118 0)
(0.414546 -0.190939 0)
(0.418051 -0.201354 0)
(0.453198 -0.203893 0)
(0.549299 -0.212686 0)
(0.589219 -0.137712 0)
(0.671294 -0.0957619 0)
(0.67186 0.0159236 0)
(0.742557 0.0506876 0)
(0.73489 0.257644 0)
(0.958026 0.17875 0)
(1.33941 0.35168 0)
(1.26657 0.330193 0)
(0.0290164 -0.222075 0)
(0.0506705 -0.230104 0)
(0.103893 -0.228768 0)
(0.122812 -0.234907 0)
(0.160244 -0.222253 0)
(0.18978 -0.254835 0)
(0.227259 -0.242257 0)
(0.24612 -0.246396 0)
(0.286226 -0.242218 0)
(0.320152 -0.241819 0)
(0.434655 -0.292679 0)
(0.454061 -0.219099 0)
(0.48161 -0.276209 0)
(0.554837 -0.310584 0)
(0.629302 -0.29735 0)
(0.719507 -0.236924 0)
(0.742637 -0.140144 0)
(0.794909 -0.0846437 0)
(0.81139 0.0600579 0)
(0.837957 0.133281 0)
(0.984714 0.299132 0)
(1.11123 0.216417 0)
(1.13837 0.361249 0)
(0.0226891 -0.25852 0)
(0.0490191 -0.266187 0)
(0.0885698 -0.253097 0)
(0.116009 -0.275922 0)
(0.155229 -0.268078 0)
(0.181581 -0.276532 0)
(0.207466 -0.271226 0)
(0.226618 -0.277027 0)
(0.282502 -0.283441 0)
(0.3416 -0.350158 0)
(0.444799 -0.350047 0)
(0.438105 -0.253408 0)
(0.506906 -0.40504 0)
(0.484943 -0.368722 0)
(0.482128 -0.349986 0)
(0.458902 -0.260721 0)
(0.43773 -0.164254 0)
(0.451388 -0.0936661 0)
(0.646603 0.000757282 0)
(0.659607 0.124132 0)
(0.842633 0.186623 0)
(1.34297 0.165855 0)
(1.08035 0.160694 0)
(0.0258087 -0.291497 0)
(0.0464641 -0.292833 0)
(0.0932452 -0.29462 0)
(0.117676 -0.298052 0)
(0.148987 -0.289267 0)
(0.175603 -0.301193 0)
(0.193182 -0.290813 0)
(0.208326 -0.315823 0)
(0.253144 -0.361938 0)
(0.334183 -0.39734 0)
(0.28581 -0.373091 0)
(0.30961 -0.258749 0)
(0.341758 -0.411316 0)
(0.329547 -0.318348 0)
(0.312448 -0.289737 0)
(0.201905 -0.194904 0)
(0.0977052 -0.129636 0)
(0.0714333 -0.183075 0)
(0.502322 -0.140142 0)
(0.494384 0.116369 0)
(1.13476 0.357513 0)
(1.18303 0.125934 0)
(0.963879 -0.183236 0)
(0.0194049 -0.335635 0)
(0.0516992 -0.337922 0)
(0.0889958 -0.32907 0)
(0.118732 -0.335022 0)
(0.14326 -0.331493 0)
(0.16241 -0.321778 0)
(0.160412 -0.305037 0)
(0.183993 -0.339705 0)
(0.201685 -0.409154 0)
(0.191709 -0.378758 0)
(0.200351 -0.329242 0)
(0.301667 -0.284813 0)
(0.341328 -0.436638 0)
(0.328768 -0.360662 0)
(0.367655 -0.178482 0)
(0.335131 -0.0697429 0)
(0.141485 -0.0528058 0)
(0.114998 -0.227621 0)
(0.315221 -0.246892 0)
(0.0662175 -0.302699 0)
(0.748874 -0.0460934 0)
(0.533472 -0.568803 0)
(0.489747 0.120365 0)
(0.0179222 -0.361782 0)
(0.0168751 -0.360485 0)
(0.0477122 -0.361311 0)
(0.0539429 -0.350088 0)
(0.0727577 -0.33276 0)
(0.0786601 -0.318805 0)
(0.0855421 -0.314086 0)
(0.133539 -0.357514 0)
(0.104056 -0.382864 0)
(0.135532 -0.383739 0)
(0.164645 -0.463971 0)
(0.371057 -0.42596 0)
(0.3711 -0.427521 0)
(0.393578 -0.331187 0)
(0.53194 -0.0395468 0)
(0.323114 -0.0515643 0)
(0.248414 -0.0248466 0)
(0.18649 -0.242699 0)
(0.442851 -0.458253 0)
(0.0898512 -0.429359 0)
(0.0749036 -0.31281 0)
(0.336362 -0.0515738 0)
(0.225638 -0.341343 0)
(0.00165376 -0.37605 0)
(0.00417609 -0.374974 0)
(0.00387636 -0.37377 0)
(0.00929295 -0.365332 0)
(0.0146505 -0.355757 0)
(0.0352944 -0.338154 0)
(0.0352261 -0.353184 0)
(0.0739989 -0.367359 0)
(0.0647743 -0.403795 0)
(0.16499 -0.450962 0)
(0.0897771 -0.581181 0)
(0.385308 -0.476102 0)
(0.416197 -0.488034 0)
(0.21645 -0.129121 0)
(0.247755 -0.0722998 0)
(0.221896 0.0677444 0)
(0.262707 -0.101715 0)
(0.446546 -0.175592 0)
(0.653533 -0.223716 0)
(0.751314 -0.60424 0)
(0.432092 -0.130126 0)
(0.383415 -0.342286 0)
(0.401968 -0.234598 0)
(0.00271357 -0.373618 0)
(0.00471975 -0.377246 0)
(0.00404034 -0.379733 0)
(0.0133081 -0.370714 0)
(0.0200236 -0.364975 0)
(0.0419775 -0.344006 0)
(0.0425835 -0.361105 0)
(0.058823 -0.389326 0)
(0.0489909 -0.369237 0)
(0.152153 -0.489996 0)
(0.0353048 -0.623263 0)
(0.0898085 -0.376528 0)
(0.193741 -0.688747 0)
(0.0854227 -0.198125 0)
(0.200016 -0.0148627 0)
(0.41307 -0.161151 0)
(0.472455 -0.275042 0)
(0.440188 -0.224182 0)
(0.69801 -0.185924 0)
(0.952628 -0.319255 0)
(0.778631 -0.4441 0)
(0.847157 -0.251369 0)
(1.15908 -0.408927 0)
(0.0101524 -0.368824 0)
(0.0104787 -0.370844 0)
(0.00464818 -0.377618 0)
(0.0175195 -0.37393 0)
(0.0349506 -0.381547 0)
(0.0333406 -0.365744 0)
(0.110514 -0.351932 0)
(0.118242 -0.370474 0)
(0.181661 -0.426463 0)
(0.0525285 -0.572009 0)
(-0.121173 -0.690805 0)
(-0.160706 -0.482051 0)
(0.0628648 -0.576533 0)
(-0.000597813 -0.260621 0)
(0.189812 -0.252313 0)
(0.351351 -0.184848 0)
(0.486526 -0.482226 0)
(0.504546 -0.319946 0)
(0.644637 -0.185281 0)
(0.703925 -0.445596 0)
(1.06196 -0.341409 0)
(1.07472 -0.356928 0)
(1.10621 -0.487834 0)
(0.045651 -0.404786 0)
(0.0281475 -0.38414 0)
(0.00525706 -0.407436 0)
(0.00866225 -0.422527 0)
(-0.00819859 -0.391028 0)
(0.00719156 -0.44111 0)
(0.167774 -0.489296 0)
(0.14657 -0.419386 0)
(0.126927 -0.710124 0)
(0.186259 -0.794632 0)
(0.192425 -1.10606 0)
(0.155906 -0.619586 0)
(0.112425 -0.723364 0)
(0.262562 -0.427707 0)
(0.331021 -0.56383 0)
(0.443124 -0.515029 0)
(0.594661 -0.590367 0)
(0.657598 -0.51743 0)
(0.493155 -0.474005 0)
(0.786902 -0.413174 0)
(1.10949 -0.440878 0)
(0.951879 -0.608138 0)
(1.07199 -0.44462 0)
(0.0454898 -0.44086 0)
(0.0231891 -0.261154 0)
(0.0060456 -0.309309 0)
(0.102388 -0.29595 0)
(0.158258 -0.342054 0)
(0.2152 -0.49412 0)
(0.393014 -0.524705 0)
(0.401744 -0.512143 0)
(0.329735 -0.622553 0)
(0.331067 -0.564647 0)
(0.360638 -0.661557 0)
(0.359918 -0.607886 0)
(0.243981 -0.482612 0)
(0.245669 -0.700869 0)
(0.204637 -0.667326 0)
(0.399037 -0.593475 0)
(0.558928 -0.775123 0)
(0.618705 -0.718597 0)
(0.619428 -0.382185 0)
(0.912596 -0.35463 0)
(1.08 -0.645844 0)
(1.16116 -0.555055 0)
(1.05779 -0.308548 0)
(0.100296 -0.44324 0)
(0.213371 -0.469794 0)
(0.190403 -0.58487 0)
(0.179673 -0.576897 0)
(0.161698 -0.683318 0)
(0.281847 -0.635766 0)
(0.267897 -0.752799 0)
(0.235912 -0.816883 0)
(0.237029 -0.686652 0)
(0.319134 -0.741549 0)
(0.408428 -0.694113 0)
(0.386063 -0.762693 0)
(0.19326 -0.691575 0)
(0.287385 -0.781102 0)
(0.590581 -0.713833 0)
(0.425368 -0.734271 0)
(0.517652 -0.827018 0)
(0.985574 -0.792852 0)
(0.767496 -0.702554 0)
(0.750557 -0.66182 0)
(0.959967 -0.663718 0)
(1.0833 -0.603388 0)
(1.03037 -0.704162 0)
(-0.159088 -0.809345 0)
(-0.0933457 -0.879712 0)
(0.117698 -0.992321 0)
(0.134036 -0.924523 0)
(0.318057 -0.910153 0)
(0.216762 -0.965645 0)
(0.0552959 -0.942941 0)
(0.31126 -0.907884 0)
(0.219096 -0.872021 0)
(0.205033 -0.809278 0)
(0.265729 -0.798414 0)
(0.289014 -0.847161 0)
(0.340955 -0.801745 0)
(0.369857 -0.753048 0)
(0.491047 -0.795468 0)
(0.397638 -0.964397 0)
(0.393773 -0.686028 0)
(0.622282 -0.796505 0)
(0.860408 -1.13931 0)
(0.874525 -0.862885 0)
(1.21143 -0.819682 0)
(1.14063 -0.606282 0)
(1.03063 -0.849695 0)
(0.00342543 -1.08353 0)
(0.1043 -1.08052 0)
(0.105525 -1.04142 0)
(0.162703 -0.944974 0)
(0.165252 -0.95714 0)
(0.213957 -1.07227 0)
(0.175957 -0.965087 0)
(0.212911 -0.936216 0)
(0.205721 -0.932401 0)
(0.227932 -0.871214 0)
(0.243551 -0.891118 0)
(0.287134 -0.899508 0)
(0.289151 -0.891081 0)
(0.360194 -0.944347 0)
(0.369227 -0.962792 0)
(0.536406 -0.978355 0)
(0.728189 -0.804158 0)
(0.488997 -0.394733 0)
(0.618734 -0.728487 0)
(0.934548 -0.686392 0)
(1.39285 -0.794876 0)
(1.11731 -0.595574 0)
(0.854951 -0.782928 0)
(0.138698 -0.817123 0)
(0.211189 -1.18275 0)
(0.175686 -1.18064 0)
(0.165699 -1.00858 0)
(0.170344 -1.05446 0)
(0.223009 -1.00178 0)
(0.166259 -0.94777 0)
(0.194316 -0.92283 0)
(0.198245 -0.912026 0)
(0.203466 -0.892927 0)
(0.202682 -0.925334 0)
(0.246843 -0.916508 0)
(0.237171 -0.943063 0)
(0.287767 -0.889235 0)
(0.55261 -0.895633 0)
(0.675141 -0.870839 0)
(0.751154 -1.123 0)
(0.689103 -0.9252 0)
(0.738184 -0.934031 0)
(1.00583 -0.814649 0)
(1.21234 -0.921734 0)
(1.11873 -1.03998 0)
(1.00253 -0.894904 0)
(-0.108331 -0.628143 0)
(-0.0972734 -0.880954 0)
(0.257958 -0.845405 0)
(0.238274 -0.884116 0)
(0.195792 -1.06275 0)
(0.342713 -1.01108 0)
(0.181734 -1.01769 0)
(0.135389 -1.0323 0)
(0.15629 -0.976185 0)
(0.174181 -0.884761 0)
(0.185863 -0.961061 0)
(0.234328 -0.975585 0)
(0.304936 -0.820039 0)
(0.507945 -0.841818 0)
(0.487892 -1.01567 0)
(0.340991 -1.15759 0)
(0.556396 -1.24721 0)
(0.740743 -1.12779 0)
(0.893969 -0.916455 0)
(1.20857 -0.971648 0)
(1.19896 -0.992805 0)
(1.21784 -1.21512 0)
(1.1987 -0.991653 0)
(-0.0161494 -0.585925 0)
(-0.0202676 -0.727968 0)
(0.0699117 -0.685728 0)
(-0.0851643 -0.925287 0)
(0.0179515 -0.759067 0)
(0.233974 -1.01227 0)
(0.0392262 -1.01786 0)
(0.0956986 -0.736 0)
(0.288274 -0.99161 0)
(0.284485 -0.990655 0)
(0.114079 -1.06898 0)
(0.353051 -1.03401 0)
(0.349939 -0.965066 0)
(0.207025 -1.07755 0)
(0.436152 -1.11787 0)
(0.549965 -0.983893 0)
(0.775805 -0.848638 0)
(0.95751 -0.942191 0)
(0.924788 -0.833548 0)
(1.0418 -0.931566 0)
(1.03652 -0.968038 0)
(1.15056 -0.930108 0)
(1.28918 -0.750394 0)
(-0.0419627 -0.602159 0)
(-0.0233691 -0.821032 0)
(-0.0516663 -0.764166 0)
(0.0235037 -0.574648 0)
(0.0564586 -0.669162 0)
(0.0278413 -0.641373 0)
(0.204795 -0.960683 0)
(0.0234375 -0.630216 0)
(-0.0141452 -0.673739 0)
(0.268749 -1.09883 0)
(0.0563077 -1.10641 0)
(0.191748 -0.758508 0)
(0.263248 -1.02885 0)
(0.340096 -0.959522 0)
(0.637563 -0.92929 0)
(0.711287 -0.929497 0)
(0.770143 -0.815064 0)
(0.884972 -0.977739 0)
(0.948885 -0.960507 0)
(1.10063 -1.06816 0)
(1.16684 -1.00285 0)
(1.31503 -0.790104 0)
(1.23085 -1.04178 0)
(-0.0200032 -0.479279 0)
(-0.00244773 -0.782998 0)
(-0.0450912 -0.709397 0)
(-0.0358412 -0.318096 0)
(0.0362438 -0.69504 0)
(-0.0649924 -0.40874 0)
(0.0402853 -0.65969 0)
(0.193159 -0.526567 0)
(-0.135574 -0.558216 0)
(0.0931015 -0.864412 0)
(0.296223 -0.685328 0)
(0.297199 -0.543949 0)
(0.266464 -0.667689 0)
(0.41116 -0.789947 0)
(0.661001 -0.902359 0)
(0.694755 -0.994673 0)
(0.743425 -0.959285 0)
(0.90401 -1.03497 0)
(0.903705 -1.02945 0)
(1.01344 -1.16327 0)
(1.16193 -1.04643 0)
(1.10252 -0.835434 0)
(1.16925 -1.17589 0)
(-0.165841 -0.619879 0)
(-0.0566139 -0.742046 0)
(0.0233651 -0.614373 0)
(0.0116844 -0.730546 0)
(0.0603354 -0.520662 0)
(0.0525105 -0.764573 0)
(0.0417157 -0.380544 0)
(0.0841274 -0.548646 0)
(-0.0938237 -0.449851 0)
(0.177797 -0.720314 0)
(0.234863 -0.442976 0)
(0.22559 -0.463594 0)
(0.244053 -0.635401 0)
(0.3897 -0.923058 0)
(0.5812 -1.0475 0)
(0.682721 -1.03364 0)
(0.713926 -1.01653 0)
(0.847045 -1.07732 0)
(0.808582 -1.00499 0)
(0.948501 -1.07362 0)
(1.35956 -1.01867 0)
(1.09967 -0.942975 0)
(0.988601 -1.09009 0)
(0.152734 -1.06862 0)
(0.181719 -1.16557 0)
(-0.200776 -1.09457 0)
(0.0400187 -1.12718 0)
(-0.00669498 -1.12421 0)
(-0.00953035 -1.08056 0)
(0.1168 -1.00649 0)
(0.101679 -0.993253 0)
(0.219169 -0.826906 0)
(0.171643 -0.823542 0)
(0.283171 -0.78535 0)
(0.0206105 -0.753316 0)
(0.0838992 -0.763302 0)
(0.327345 -0.93672 0)
(0.613735 -1.08176 0)
(0.673353 -0.98043 0)
(0.726456 -1.01292 0)
(0.976226 -1.10482 0)
(0.983179 -1.22706 0)
(0.921749 -1.0739 0)
(1.20455 -0.903617 0)
(1.05358 -1.43046 0)
(0.972639 -1.38242 0)
(0.0128871 -1.2205 0)
(0.0302598 -1.3653 0)
(0.0158016 -1.34466 0)
(0.0442521 -1.22364 0)
(0.0416057 -1.33703 0)
(0.113228 -1.1383 0)
(0.158926 -1.2352 0)
(0.26414 -1.06478 0)
(0.368665 -1.18473 0)
(0.22636 -1.25055 0)
(0.0684732 -1.10672 0)
(0.316487 -1.10852 0)
(0.361771 -1.20753 0)
(0.329207 -1.20082 0)
(0.442008 -1.28946 0)
(0.663119 -1.40649 0)
(0.648175 -1.35285 0)
(0.732884 -1.25863 0)
(0.800928 -1.5193 0)
(1.03525 -1.45029 0)
(1.17158 -1.59444 0)
(0.904902 -1.71356 0)
(0.902537 -1.59924 0)
(0.00843194 -1.21389 0)
(0.0326434 -1.2543 0)
(0.0231405 -1.24739 0)
(0.0354316 -1.2605 0)
(0.0489468 -1.22886 0)
(0.0837513 -1.23322 0)
(0.170228 -1.2151 0)
(0.148395 -1.24414 0)
(0.13987 -1.31368 0)
(0.216943 -1.38735 0)
(0.251717 -1.2829 0)
(0.157674 -1.28614 0)
(0.340702 -1.37731 0)
(0.398977 -1.37931 0)
(0.348325 -1.44838 0)
(0.543742 -1.55717 0)
(0.847085 -1.50763 0)
(0.7885 -1.46147 0)
(0.633611 -1.55937 0)
(0.889672 -1.50851 0)
(1.14662 -1.83828 0)
(1.03434 -1.83719 0)
(1.09995 -1.72633 0)
(0.00542677 -1.29454 0)
(0.0306598 -1.3329 0)
(0.0409983 -1.33029 0)
(0.0680195 -1.31708 0)
(0.0806894 -1.29871 0)
(0.108735 -1.28371 0)
(0.133103 -1.30709 0)
(0.166208 -1.32337 0)
(0.187249 -1.31219 0)
(0.194783 -1.27804 0)
(0.200806 -1.35479 0)
(0.234267 -1.33248 0)
(0.276028 -1.28964 0)
(0.294951 -1.44512 0)
(0.365759 -1.53461 0)
(0.511707 -1.37777 0)
(0.789779 -1.49855 0)
(0.764761 -1.51604 0)
(0.63336 -1.58531 0)
(0.894378 -1.52633 0)
(0.983711 -1.79602 0)
(1.0148 -1.80109 0)
(1.05987 -1.8514 0)
(0.00533475 -1.31453 0)
(0.026462 -1.35416 0)
(0.0384334 -1.34932 0)
(0.0571965 -1.34258 0)
(0.073351 -1.31861 0)
(0.091381 -1.34766 0)
(0.129778 -1.34215 0)
(0.133907 -1.35353 0)
(0.16119 -1.3803 0)
(0.176568 -1.3915 0)
(0.211174 -1.39685 0)
(0.205123 -1.41052 0)
(0.254809 -1.41212 0)
(0.262763 -1.46833 0)
(0.355925 -1.56645 0)
(0.584614 -1.54889 0)
(0.813455 -1.47298 0)
(0.691605 -1.53513 0)
(0.379937 -1.57011 0)
(0.636415 -1.60113 0)
(0.969947 -1.99811 0)
(1.10159 -1.93651 0)
(1.11111 -1.91749 0)
(-0.00243703 -1.35483 0)
(0.0297479 -1.38508 0)
(0.0521276 -1.39098 0)
(0.0891571 -1.36534 0)
(0.0937148 -1.39836 0)
(0.0772025 -1.38463 0)
(0.117656 -1.39958 0)
(0.13188 -1.39975 0)
(0.159231 -1.40916 0)
(0.168427 -1.41014 0)
(0.194457 -1.42617 0)
(0.203532 -1.43711 0)
(0.246944 -1.42566 0)
(0.237572 -1.51048 0)
(0.263483 -1.53353 0)
(0.627405 -1.50728 0)
(0.851123 -1.85876 0)
(0.64042 -1.67208 0)
(0.359854 -1.46807 0)
(0.45055 -1.73659 0)
(0.823557 -2.01627 0)
(1.18246 -1.96261 0)
(1.10722 -1.93197 0)
(0.011675 -1.37353 0)
(0.0231159 -1.39576 0)
(0.0416761 -1.41075 0)
(0.0577409 -1.41798 0)
(0.0764815 -1.44169 0)
(0.0907919 -1.42114 0)
(0.112448 -1.4354 0)
(0.123619 -1.44433 0)
(0.149641 -1.45211 0)
(0.161188 -1.47017 0)
(0.192972 -1.47261 0)
(0.203104 -1.50711 0)
(0.25985 -1.50174 0)
(0.250952 -1.56346 0)
(0.309605 -1.56507 0)
(0.347046 -1.61936 0)
(0.686685 -1.99802 0)
(0.873157 -1.67705 0)
(0.0908558 -1.84136 0)
(0.260658 -1.71437 0)
(0.875557 -1.89869 0)
(1.19127 -2.11063 0)
(1.12414 -1.96805 0)
(0.00535889 -1.42241 0)
(0.0292218 -1.4524 0)
(0.0449922 -1.45832 0)
(0.0640457 -1.45546 0)
(0.0774888 -1.46008 0)
(0.0865949 -1.4685 0)
(0.109276 -1.46756 0)
(0.119239 -1.47632 0)
(0.138032 -1.48482 0)
(0.15347 -1.49505 0)
(0.157722 -1.51357 0)
(0.19314 -1.53776 0)
(0.190868 -1.54445 0)
(0.226085 -1.61164 0)
(0.256546 -1.62506 0)
(0.317926 -1.69 0)
(0.729703 -1.64235 0)
(0.680269 -1.94559 0)
(0.112843 -2.08611 0)
(0.444795 -1.59704 0)
(0.551909 -1.73277 0)
(1.06464 -1.82707 0)
(1.29477 -1.98461 0)
(0.00981543 -1.4447 0)
(0.0205947 -1.47717 0)
(0.0385875 -1.48066 0)
(0.0500343 -1.48633 0)
(0.069311 -1.49384 0)
(0.0806379 -1.49293 0)
(0.0983699 -1.49969 0)
(0.108188 -1.50726 0)
(0.127308 -1.51412 0)
(0.135053 -1.52107 0)
(0.14558 -1.5394 0)
(0.176735 -1.54507 0)
(0.144421 -1.5725 0)
(0.230929 -1.61246 0)
(0.315144 -1.6798 0)
(0.419314 -1.63018 0)
(0.34149 -1.67444 0)
(0.391472 -2.12051 0)
(0.47455 -1.80372 0)
(0.612384 -1.72741 0)
(0.580359 -1.66974 0)
(0.820465 -1.80938 0)
(1.01523 -2.09942 0)
(0.00674733 -1.48551 0)
(0.0259469 -1.51607 0)
(0.0381819 -1.51745 0)
(0.0557042 -1.52 0)
(0.0672792 -1.5175 0)
(0.0812836 -1.52804 0)
(0.0965209 -1.52168 0)
(0.106295 -1.53405 0)
(0.123537 -1.53231 0)
(0.130394 -1.53772 0)
(0.147011 -1.55558 0)
(0.166121 -1.53836 0)
(0.133025 -1.58306 0)
(0.227178 -1.5726 0)
(0.315993 -1.69652 0)
(0.334582 -1.75637 0)
(0.237462 -1.8654 0)
(0.412415 -2.124 0)
(0.726828 -1.79474 0)
(0.637625 -1.72181 0)
(0.324991 -1.71461 0)
(0.576369 -2.01359 0)
(0.973759 -2.2472 0)
(0.00932011 -1.51048 0)
(0.0208108 -1.53976 0)
(0.0364999 -1.54137 0)
(0.0485641 -1.54503 0)
(0.0636852 -1.54764 0)
(0.0763102 -1.55286 0)
(0.0903041 -1.55135 0)
(0.10238 -1.56433 0)
(0.119173 -1.55818 0)
(0.124432 -1.56745 0)
(0.15074 -1.57047 0)
(0.157826 -1.56406 0)
(0.157261 -1.61939 0)
(0.219184 -1.57329 0)
(0.212068 -1.69339 0)
(0.288952 -1.77461 0)
(0.139604 -1.81709 0)
(0.397115 -1.8028 0)
(0.850832 -1.93633 0)
(0.707459 -2.10654 0)
(0.268591 -1.76698 0)
(0.320781 -1.86664 0)
(0.698682 -1.93856 0)
(0.00667798 -1.54586 0)
(0.0236417 -1.57149 0)
(0.0344804 -1.57196 0)
(0.0514887 -1.57476 0)
(0.0609656 -1.5713 0)
(0.0774199 -1.57945 0)
(0.0860781 -1.57257 0)
(0.101245 -1.58401 0)
(0.114154 -1.56907 0)
(0.115953 -1.58639 0)
(0.151208 -1.57337 0)
(0.121382 -1.57086 0)
(0.179365 -1.6105 0)
(0.262502 -1.57807 0)
(0.196407 -1.65625 0)
(0.289735 -1.74399 0)
(0.237958 -1.80298 0)
(0.273626 -1.79072 0)
(0.352354 -2.23863 0)
(0.682771 -2.21427 0)
(0.476383 -1.87764 0)
(0.463211 -2.02276 0)
(0.617584 -1.83995 0)
(0.00757335 -1.57169 0)
(0.0216969 -1.59624 0)
(0.0336409 -1.59732 0)
(0.0492336 -1.59967 0)
(0.059066 -1.60123 0)
(0.0787122 -1.60427 0)
(0.0848704 -1.60186 0)
(0.109453 -1.61339 0)
(0.113366 -1.59772 0)
(0.136451 -1.61661 0)
(0.158244 -1.57283 0)
(0.120772 -1.61539 0)
(0.239277 -1.48686 0)
(0.279357 -1.54757 0)
(0.131633 -1.66906 0)
(0.189708 -1.76034 0)
(0.155936 -1.82679 0)
(0.154212 -1.88562 0)
(0.311149 -1.89001 0)
(0.909534 -1.68076 0)
(0.453529 -1.80797 0)
(0.501046 -2.22161 0)
(0.693154 -1.87668 0)
(0.0074807 -1.60545 0)
(0.0211161 -1.62551 0)
(0.0318726 -1.62671 0)
(0.0467521 -1.62787 0)
(0.0548572 -1.62946 0)
(0.0743212 -1.63165 0)
(0.0787409 -1.63363 0)
(0.1065 -1.63399 0)
(0.10646 -1.62715 0)
(0.145209 -1.62912 0)
(0.13846 -1.59499 0)
(0.173971 -1.62265 0)
(0.365555 -1.50414 0)
(0.241241 -1.53053 0)
(0.0926765 -1.69845 0)
(0.178986 -1.78496 0)
(0.179917 -1.75631 0)
(0.272639 -1.81045 0)
(0.424899 -1.75285 0)
(0.775231 -1.76033 0)
(0.141639 -2.0613 0)
(0.412925 -1.902 0)
(0.535222 -2.30571 0)
(0.00641973 -1.62374 0)
(0.0201069 -1.63996 0)
(0.0302591 -1.64093 0)
(0.0447081 -1.64253 0)
(0.0529017 -1.64578 0)
(0.0729856 -1.64935 0)
(0.0778154 -1.65085 0)
(0.112337 -1.65661 0)
(0.119404 -1.65097 0)
(0.154062 -1.66204 0)
(0.168757 -1.62444 0)
(0.196769 -1.54044 0)
(0.407195 -1.42951 0)
(0.236741 -1.47063 0)
(0.0367906 -1.67104 0)
(0.187079 -1.78021 0)
(0.195332 -1.74863 0)
(0.27265 -1.83569 0)
(0.215493 -1.96388 0)
(0.34023 -2.04961 0)
(0.324979 -2.2104 0)
(0.276918 -1.87517 0)
(0.461845 -2.40947 0)
(0.00641758 -1.65223 0)
(0.0179757 -1.66488 0)
(0.0267936 -1.6674 0)
(0.0413576 -1.67085 0)
(0.0463638 -1.6767 0)
(0.0687002 -1.67923 0)
(0.0678783 -1.68447 0)
(0.104219 -1.6956 0)
(0.095154 -1.68765 0)
(0.167983 -1.66881 0)
(0.25497 -1.67657 0)
(0.34785 -1.65491 0)
(0.579948 -1.62476 0)
(0.130406 -1.94116 0)
(-0.0399918 -1.72761 0)
(0.193582 -1.78972 0)
(0.184247 -1.82835 0)
(0.215862 -1.89506 0)
(0.141064 -1.99032 0)
(0.300586 -1.94471 0)
(0.374576 -1.90343 0)
(0.211304 -2.10392 0)
(0.427119 -2.08224 0)
(0.00484075 -1.66481 0)
(0.0133147 -1.67479 0)
(0.0184162 -1.67758 0)
(0.0296656 -1.68118 0)
(0.0335429 -1.68723 0)
(0.0501073 -1.68809 0)
(0.0471903 -1.69234 0)
(0.0829226 -1.69545 0)
(0.12237 -1.71298 0)
(0.155353 -1.66026 0)
(0.170322 -1.7564 0)
(0.261394 -1.79344 0)
(0.252687 -1.86536 0)
(0.132358 -2.10845 0)
(0.235076 -1.79493 0)
(0.160839 -1.78649 0)
(0.156877 -1.84247 0)
(0.2119 -1.90365 0)
(0.103657 -2.02519 0)
(0.274048 -1.90551 0)
(0.350338 -2.08986 0)
(0.196264 -2.14253 0)
(0.429373 -2.11204 0)
(0.00398859 -1.66894 0)
(0.010498 -1.67714 0)
(0.016408 -1.68138 0)
(0.0258304 -1.68634 0)
(0.0338157 -1.69639 0)
(0.0465522 -1.70279 0)
(0.0583654 -1.72489 0)
(0.076558 -1.70813 0)
(0.0890455 -1.75535 0)
(0.123908 -1.77204 0)
(0.154927 -1.78969 0)
(0.198101 -1.78761 0)
(0.194368 -1.83581 0)
(0.189773 -1.84445 0)
(0.304779 -1.7448 0)
(0.13937 -1.73101 0)
(0.114443 -1.73729 0)
(0.155657 -1.81126 0)
(-0.00333667 -1.93271 0)
(0.00755905 -1.90279 0)
(0.328107 -2.12143 0)
(0.113098 -2.1435 0)
(0.0660639 -2.2912 0)
(0.00284454 -1.7208 0)
(0.00736969 -1.72815 0)
(0.0116411 -1.73347 0)
(0.0192041 -1.73962 0)
(0.0229883 -1.74961 0)
(0.0324336 -1.76031 0)
(0.0385126 -1.78043 0)
(0.0569329 -1.79122 0)
(0.0790088 -1.82614 0)
(0.10271 -1.84954 0)
(0.128703 -1.89901 0)
(0.181636 -1.92895 0)
(0.171084 -1.94968 0)
(0.359985 -1.84991 0)
(0.443923 -1.78029 0)
(0.191446 -1.73651 0)
(0.097161 -1.72781 0)
(0.106537 -1.81235 0)
(-0.157844 -2.01695 0)