/*--------------------------------*- C++ -*----------------------------------*\
| =========                 |                                                 |
| \\      /  F ield         | foam-extend: Open Source CFD                    |
|  \\    /   O peration     | Version:     4.1                                |
|   \\  /    A nd           | Web:         http://www.foam-extend.org         |
|    \\/     M anipulation  |                                                 |
\*---------------------------------------------------------------------------*/
FoamFile
{
    version     2.0;
    format      ascii;
    class       volVectorField;
    location    "0.25";
    object      U_0;
}
// * * * * * * * * * * * * * * * * * * * * * * * * * * * * * * * * * * * * * //

dimensions      [0 1 -1 0 0 0 0];

internalField   nonuniform List<vector> 
2268
(
(0.0485471 -0.0070181 0)
(0.0653087 -0.00681978 0)
(0.163894 -0.00809433 0)
(0.193632 -0.00331274 0)
(0.25684 -0.00908943 0)
(0.312364 -0.00600253 0)
(0.395794 -0.00485416 0)
(0.43104 -0.00580488 0)
(0.498703 -0.0043375 0)
(0.486565 0.0274977 0)
(0.403195 -0.0849052 0)
(0.410962 -0.0460622 0)
(0.460275 -0.0419102 0)
(0.469599 -0.0205896 0)
(0.510383 -0.0203031 0)
(0.492612 -0.019971 0)
(0.537814 -0.0632815 0)
(0.559661 -0.0122342 0)
(0.508231 -0.024508 0)
(0.467025 0.0697979 0)
(0.314757 0.0710765 0)
(0.310145 0.0302286 0)
(0.421196 0.0279842 0)
(0.0485578 -0.0199258 0)
(0.0663191 -0.0203043 0)
(0.164553 -0.0228525 0)
(0.195627 -0.0178222 0)
(0.254635 -0.0202277 0)
(0.32402 -0.0253991 0)
(0.397123 -0.0247949 0)
(0.432236 -0.0180049 0)
(0.518698 -0.0109663 0)
(0.471171 -0.00512849 0)
(0.410019 -0.0736376 0)
(0.431106 -0.0247116 0)
(0.4843 -0.0120043 0)
(0.486318 -0.00332281 0)
(0.515724 0.00733757 0)
(0.474088 0.011893 0)
(0.518387 0.0271995 0)
(0.643118 0.0314897 0)
(0.592711 0.0569944 0)
(0.516498 0.0117043 0)
(0.298071 0.0707226 0)
(0.302247 0.213356 0)
(0.438809 0.146575 0)
(0.0473295 -0.034248 0)
(0.0666254 -0.0340949 0)
(0.161868 -0.0391521 0)
(0.19958 -0.0236012 0)
(0.250755 -0.0402313 0)
(0.340326 -0.0388483 0)
(0.377219 -0.0312048 0)
(0.437385 -0.0334883 0)
(0.533413 -0.0161606 0)
(0.441083 -0.144691 0)
(0.388466 -0.0836019 0)
(0.416804 -0.0481714 0)
(0.445432 -0.0366617 0)
(0.450489 -0.0276439 0)
(0.483496 -0.00523693 0)
(0.465898 -0.00433939 0)
(0.512267 0.0919815 0)
(0.538807 0.0139566 0)
(0.494699 0.04337 0)
(0.454267 -0.0163003 0)
(0.409075 0.0865153 0)
(0.318741 0.207438 0)
(0.404738 0.206579 0)
(0.0459646 -0.0468345 0)
(0.0683798 -0.0472402 0)
(0.162307 -0.0549521 0)
(0.197859 -0.0381547 0)
(0.275365 -0.0555096 0)
(0.333745 -0.0529251 0)
(0.373262 -0.0505041 0)
(0.477604 -0.0570335 0)
(0.436587 -0.0437836 0)
(0.370596 -0.142593 0)
(0.362432 -0.0724536 0)
(0.369683 -0.0530951 0)
(0.398176 -0.0295098 0)
(0.403021 -0.0211624 0)
(0.432506 0.00367167 0)
(0.436739 0.000131751 0)
(0.482346 0.0645307 0)
(0.499986 0.0247965 0)
(0.482087 0.037601 0)
(0.459502 0.0399519 0)
(0.395019 0.137645 0)
(0.322076 0.21966 0)
(0.403689 0.316814 0)
(0.0431047 -0.0614157 0)
(0.0689727 -0.0614666 0)
(0.16127 -0.0700207 0)
(0.19837 -0.0494237 0)
(0.283866 -0.0723885 0)
(0.326059 -0.0622066 0)
(0.372485 -0.065705 0)
(0.478381 -0.0431831 0)
(0.389087 -0.152273 0)
(0.310567 -0.120303 0)
(0.31834 -0.0803236 0)
(0.335153 -0.0681586 0)
(0.365287 -0.0470434 0)
(0.379803 -0.0411132 0)
(0.419667 -0.0188466 0)
(0.430357 -0.0157439 0)
(0.461402 0.032735 0)
(0.472609 0.020636 0)
(0.447046 0.0625798 0)
(0.46479 0.0372015 0)
(0.441463 0.166672 0)
(0.311199 0.324423 0)
(0.435675 0.378197 0)
(0.0397346 -0.0731921 0)
(0.0721742 -0.0750606 0)
(0.163708 -0.0862591 0)
(0.200208 -0.067033 0)
(0.278802 -0.0884659 0)
(0.324202 -0.070093 0)
(0.404748 -0.0963692 0)
(0.352898 -0.0682414 0)
(0.29029 -0.149282 0)
(0.293386 -0.115655 0)
(0.300724 -0.0825764 0)
(0.326678 -0.0769789 0)
(0.359031 -0.0481272 0)
(0.387619 -0.050492 0)
(0.417584 -0.0204525 0)
(0.447419 -0.0158388 0)
(0.461078 0.0242656 0)
(0.50183 0.0350113 0)
(0.46047 0.115273 0)
(0.521099 0.099486 0)
(0.553019 0.18744 0)
(0.371188 0.406348 0)
(0.429597 0.501812 0)
(0.0345534 -0.0881148 0)
(0.0736018 -0.0906398 0)
(0.161949 -0.100277 0)
(0.194207 -0.0750839 0)
(0.274897 -0.101508 0)
(0.317153 -0.0984514 0)
(0.329883 -0.0612529 0)
(0.29978 -0.158412 0)
(0.269475 -0.139593 0)
(0.284905 -0.123895 0)
(0.298511 -0.0988863 0)
(0.337144 -0.0954371 0)
(0.372854 -0.0767258 0)
(0.390765 -0.0699761 0)
(0.418231 -0.043672 0)
(0.469977 -0.0339838 0)
(0.487428 -0.015898 0)
(0.527672 0.0333561 0)
(0.482467 0.0697927 0)
(0.476041 0.164672 0)
(0.608118 0.232313 0)
(0.411007 0.521976 0)
(0.438773 0.564697 0)
(0.0325048 -0.0981983 0)
(0.0799899 -0.104846 0)
(0.15988 -0.11588 0)
(0.186251 -0.0977244 0)
(0.260328 -0.124389 0)
(0.310979 -0.0707029 0)
(0.262085 -0.116005 0)
(0.267826 -0.17104 0)
(0.265695 -0.145031 0)
(0.286786 -0.130295 0)
(0.302943 -0.108357 0)
(0.355034 -0.113248 0)
(0.380465 -0.0670613 0)
(0.400733 -0.0782643 0)
(0.442932 -0.0594853 0)
(0.480563 -0.0464867 0)
(0.495821 -0.0237447 0)
(0.542399 0.0349988 0)
(0.521227 0.0538874 0)
(0.532237 0.195963 0)
(0.702293 0.212836 0)
(0.504783 0.546121 0)
(0.370409 0.771546 0)
(0.0228033 0.0249312 0)
(0.108141 -0.0257947 0)
(0.177275 0.000992531 0)
(0.127047 0.0132556 0)
(0.0877323 -0.0011606 0)
(0.0738294 0.00635826 0)
(0.0650035 -0.000620507 0)
(0.074086 0.0174057 0)
(0.0729283 -0.00732026 0)
(0.07926 -0.00285815 0)
(0.101305 0.00662003 0)
(0.106402 -0.00284338 0)
(0.124678 -0.0295886 0)
(0.125038 -0.0136647 0)
(0.171657 0.0116389 0)
(0.15217 -0.0163516 0)
(0.105065 0.0208213 0)
(0.10598 0.00539089 0)
(0.0202647 0.00701302 0)
(-0.00236048 -0.0876399 0)
(0.102146 -0.0654044 0)
(0.144664 -0.00442535 0)
(0.0913519 0.0187718 0)
(0.0675104 0.0302046 0)
(0.0571956 0.0120922 0)
(0.0565627 0.00172028 0)
(0.0616037 0.00692228 0)
(0.05667 -0.0245895 0)
(0.0766942 -0.011005 0)
(0.0963747 -0.01849 0)
(0.0946133 -0.00661052 0)
(0.112644 0.0215147 0)
(0.125026 -0.0213927 0)
(0.171474 0.0391228 0)
(0.154488 -0.0153763 0)
(0.108091 0.0354683 0)
(0.098471 0.0151579 0)
(0.0201816 0.0198414 0)
(0.0386095 -0.0446992 0)
(0.175955 -0.0978848 0)
(0.141041 0.0104625 0)
(0.0625712 0.0430679 0)
(0.058466 0.035768 0)
(0.0448041 0.0117613 0)
(0.0478025 -0.00663196 0)
(0.0523619 0.00549604 0)
(0.0568003 -0.01425 0)
(0.0724032 -0.018263 0)
(0.0934617 -0.0173146 0)
(0.10353 -0.0209156 0)
(0.106119 0.00205578 0)
(0.128632 -0.00156238 0)
(0.187327 0.0437028 0)
(0.151327 -0.00104473 0)
(0.112924 0.0343367 0)
(0.0986652 0.0254727 0)
(0.0210702 0.0324039 0)
(-0.0379557 -0.105152 0)
(0.205415 -0.123243 0)
(0.201871 0.104703 0)
(0.0256027 0.0419406 0)
(0.0337233 0.0828862 0)
(0.0399833 -0.00187587 0)
(0.0514402 -0.019642 0)
(0.058044 -0.00597225 0)
(0.0460625 -0.0362831 0)
(0.073012 -0.0303622 0)
(0.0893378 -0.0150996 0)
(0.0971364 -0.0179781 0)
(0.122968 0.0273116 0)
(0.140329 0.00105681 0)
(0.176572 0.0257942 0)
(0.152342 0.00384329 0)
(0.120433 0.0426355 0)
(0.0972018 0.0364276 0)
(0.0223554 0.0453365 0)
(0.0556332 -0.186163 0)
(0.374308 -0.208977 0)
(0.221424 0.200565 0)
(0.00985405 0.0637518 0)
(-0.00532017 0.138267 0)
(-0.0123203 -0.0134856 0)
(0.0416926 -0.00209158 0)
(0.0404169 -0.00652777 0)
(0.0432967 -0.0160799 0)
(0.0792853 -0.0333198 0)
(0.091404 -0.0265911 0)
(0.121467 -0.0140073 0)
(0.114634 0.0201989 0)
(0.124801 -0.0057583 0)
(0.19149 0.0113457 0)
(0.161211 0.0114243 0)
(0.126596 0.0462824 0)
(0.0994339 0.04753 0)
(0.0241385 0.0579862 0)
(0.219763 -0.525435 0)
(0.371392 -0.267882 0)
(0.263563 0.224467 0)
(-0.06202 0.0876104 0)
(-0.0380261 0.138672 0)
(-0.0555695 -0.046231 0)
(0.0413404 -0.0387519 0)
(0.040164 -0.0172852 0)
(0.0275237 -0.0647467 0)
(0.0650036 -0.0653902 0)
(0.0966118 -0.0231024 0)
(0.118603 -0.0286225 0)
(0.126223 -0.0149749 0)
(0.138903 0.023884 0)
(0.184864 0.0139933 0)
(0.168203 0.0189482 0)
(0.134819 0.0540512 0)
(0.102613 0.0595567 0)
(0.0263654 0.0718268 0)
(-0.138085 -0.515743 0)
(-0.44968 -0.209309 0)
(0.33191 0.375728 0)
(-0.069793 0.106423 0)
(-0.0915097 0.154461 0)
(-0.133339 -0.0426626 0)
(0.0333979 -0.0429487 0)
(0.0217049 0.0392754 0)
(0.023786 -0.128128 0)
(0.0718887 -0.0222636 0)
(0.0951978 -0.0396881 0)
(0.122809 -0.0156371 0)
(0.137605 0.0137019 0)
(0.144715 -0.0129535 0)
(0.18972 0.00752986 0)
(0.177216 0.0228037 0)
(0.143481 0.0598767 0)
(0.107024 0.0714682 0)
(0.0290356 0.0855453 0)
(-0.250971 0.133873 0)
(-1.3059 -0.505122 0)
(0.32038 0.083507 0)
(-0.156682 0.212906 0)
(-0.132316 0.144493 0)
(-0.142256 -0.0782826 0)
(0.0672214 -0.116191 0)
(-0.00270652 -0.0124285 0)
(0.0328166 -0.110698 0)
(0.0907225 -0.0281226 0)
(0.0880135 -0.077324 0)
(0.128449 -0.0147363 0)
(0.124563 -0.0173056 0)
(0.136099 0.0102502 0)
(0.202257 0.00583634 0)
(0.190863 0.0304779 0)
(0.154521 0.0686239 0)
(0.113525 0.0852724 0)
(0.0322029 0.101443 0)
(0.030742 -0.124254 0)
(0.0790616 -0.129391 0)
(0.146077 -0.133849 0)
(0.164792 -0.0906172 0)
(0.271072 -0.132418 0)
(0.224813 -0.140075 0)
(0.223427 -0.173246 0)
(0.268511 -0.170076 0)
(0.265552 -0.15308 0)
(0.288779 -0.141763 0)
(0.309336 -0.144886 0)
(0.38772 -0.138288 0)
(0.382238 -0.128613 0)
(0.391847 -0.112625 0)
(0.466328 -0.0939368 0)
(0.484362 -0.0683151 0)
(0.526422 -0.0153408 0)
(0.505598 0.0347541 0)
(0.549014 0.121456 0)
(0.509283 0.178983 0)
(0.778296 0.23065 0)
(1.01832 0.610005 0)
(0.69837 0.999592 0)
(0.0424818 -0.143479 0)
(0.0609601 -0.155589 0)
(0.162439 -0.151047 0)
(0.143878 -0.173036 0)
(0.159144 -0.159016 0)
(0.203615 -0.20754 0)
(0.228151 -0.172976 0)
(0.248799 -0.190218 0)
(0.270899 -0.17702 0)
(0.305084 -0.169336 0)
(0.33446 -0.194064 0)
(0.378968 -0.172045 0)
(0.399992 -0.198019 0)
(0.420134 -0.171791 0)
(0.480888 -0.142238 0)
(0.541324 -0.102478 0)
(0.549142 -0.0482522 0)
(0.639687 0.0500801 0)
(0.56737 0.132306 0)
(0.666359 0.248334 0)
(1.0067 0.18087 0)
(1.31488 0.520677 0)
(1.09207 0.668054 0)
(0.0268743 -0.177096 0)
(0.0515888 -0.190659 0)
(0.102079 -0.179084 0)
(0.130939 -0.223467 0)
(0.165222 -0.199251 0)
(0.191548 -0.208778 0)
(0.222047 -0.213998 0)
(0.257359 -0.214248 0)
(0.286243 -0.212806 0)
(0.317454 -0.200018 0)
(0.361587 -0.221874 0)
(0.413628 -0.193394 0)
(0.417126 -0.204066 0)
(0.452705 -0.205803 0)
(0.549961 -0.214546 0)
(0.590658 -0.138971 0)
(0.673476 -0.0973987 0)
(0.675323 0.0151509 0)
(0.745855 0.0501307 0)
(0.738825 0.258257 0)
(0.962828 0.179655 0)
(1.3456 0.353382 0)
(1.27198 0.332349 0)
(0.0289903 -0.222035 0)
(0.0506804 -0.230064 0)
(0.103885 -0.22867 0)
(0.122797 -0.234752 0)
(0.160185 -0.222069 0)
(0.189668 -0.254524 0)
(0.227107 -0.241863 0)
(0.245683 -0.245841 0)
(0.285469 -0.241622 0)
(0.318679 -0.241323 0)
(0.432946 -0.293976 0)
(0.45319 -0.221774 0)
(0.479775 -0.278597 0)
(0.555682 -0.31418 0)
(0.630779 -0.300694 0)
(0.722866 -0.239529 0)
(0.745644 -0.143062 0)
(0.799095 -0.0868515 0)
(0.815213 0.0598432 0)
(0.842664 0.133075 0)
(0.988646 0.299977 0)
(1.11698 0.21801 0)
(1.14394 0.363958 0)
(0.0226688 -0.258403 0)
(0.0490892 -0.26608 0)
(0.0886316 -0.252988 0)
(0.116124 -0.275689 0)
(0.155277 -0.267812 0)
(0.181605 -0.276164 0)
(0.207424 -0.270619 0)
(0.226415 -0.276056 0)
(0.281867 -0.282362 0)
(0.339952 -0.349211 0)
(0.444475 -0.351655 0)
(0.438038 -0.255833 0)
(0.508346 -0.411134 0)
(0.487974 -0.374095 0)
(0.486426 -0.355085 0)
(0.465338 -0.264279 0)
(0.443367 -0.166848 0)
(0.457684 -0.0960328 0)
(0.653703 -0.00099416 0)
(0.665478 0.124636 0)
(0.848259 0.187027 0)
(1.34899 0.167994 0)
(1.08657 0.162444 0)
(0.0257604 -0.291494 0)
(0.0464465 -0.292798 0)
(0.0932245 -0.294546 0)
(0.11761 -0.297873 0)
(0.149118 -0.289027 0)
(0.175797 -0.300843 0)
(0.193314 -0.290173 0)
(0.208167 -0.314704 0)
(0.252496 -0.359775 0)
(0.33345 -0.397369 0)
(0.286558 -0.375668 0)
(0.310447 -0.263003 0)
(0.342972 -0.419886 0)
(0.329915 -0.324911 0)
(0.309883 -0.295728 0)
(0.198663 -0.198549 0)
(0.096086 -0.131928 0)
(0.0723016 -0.184217 0)
(0.507042 -0.139481 0)
(0.500385 0.122741 0)
(1.13717 0.36159 0)
(1.18619 0.128566 0)
(0.966381 -0.181867 0)
(0.0194377 -0.33531 0)
(0.051877 -0.337609 0)
(0.0893128 -0.32874 0)
(0.119117 -0.334799 0)
(0.143822 -0.33142 0)
(0.163339 -0.321393 0)
(0.161227 -0.304015 0)
(0.183931 -0.337947 0)
(0.201464 -0.407402 0)
(0.192525 -0.379227 0)
(0.201214 -0.332341 0)
(0.303974 -0.288348 0)
(0.341639 -0.442111 0)
(0.328991 -0.362925 0)
(0.362602 -0.179721 0)
(0.328073 -0.0747426 0)
(0.137657 -0.0598581 0)
(0.11467 -0.233567 0)
(0.31626 -0.252226 0)
(0.0725192 -0.304955 0)
(0.753931 -0.0401781 0)
(0.539417 -0.567485 0)
(0.495598 0.121549 0)
(0.0182767 -0.362295 0)
(0.0178035 -0.361051 0)
(0.0495503 -0.361677 0)
(0.0561725 -0.350483 0)
(0.0753176 -0.333165 0)
(0.0811465 -0.318841 0)
(0.0879726 -0.312475 0)
(0.134743 -0.3551 0)
(0.10478 -0.381694 0)
(0.136036 -0.384178 0)
(0.1663 -0.467471 0)
(0.374698 -0.429591 0)
(0.372724 -0.430491 0)
(0.393861 -0.332754 0)
(0.52742 -0.042705 0)
(0.317733 -0.0550071 0)
(0.244572 -0.03005 0)
(0.184447 -0.246902 0)
(0.43813 -0.464038 0)
(0.0830958 -0.432647 0)
(0.0769911 -0.323993 0)
(0.346636 -0.0526835 0)
(0.232769 -0.342703 0)
(0.00152992 -0.376944 0)
(0.00403859 -0.375725 0)
(0.0041028 -0.37438 0)
(0.00927471 -0.365954 0)
(0.0145153 -0.355804 0)
(0.0355133 -0.337337 0)
(0.0351504 -0.351062 0)
(0.0751261 -0.364212 0)
(0.0651137 -0.40133 0)
(0.165719 -0.452114 0)
(0.0914295 -0.587301 0)
(0.389072 -0.479031 0)
(0.419377 -0.487625 0)
(0.21602 -0.128823 0)
(0.24765 -0.0714038 0)
(0.221311 0.0613562 0)
(0.267066 -0.109049 0)
(0.441318 -0.181187 0)
(0.649479 -0.228021 0)
(0.746247 -0.612513 0)
(0.422803 -0.127136 0)
(0.382122 -0.341977 0)
(0.395118 -0.239412 0)
(0.00266639 -0.375194 0)
(0.00463986 -0.378338 0)
(0.00397356 -0.380572 0)
(0.0128774 -0.372132 0)
(0.0194771 -0.365709 0)
(0.0414878 -0.344351 0)
(0.0416368 -0.361187 0)
(0.0598251 -0.387102 0)
(0.0499162 -0.367225 0)
(0.15622 -0.491212 0)
(0.0367057 -0.630504 0)
(0.0957971 -0.377958 0)
(0.197211 -0.687103 0)
(0.0888088 -0.19696 0)
(0.202271 -0.019683 0)
(0.419088 -0.177065 0)
(0.47663 -0.277356 0)
(0.439413 -0.227343 0)
(0.699151 -0.186254 0)
(0.947535 -0.322607 0)
(0.776081 -0.447988 0)
(0.846916 -0.253199 0)
(1.15735 -0.410954 0)
(0.0100153 -0.36965 0)
(0.0104913 -0.37151 0)
(0.00434768 -0.378145 0)
(0.0168171 -0.374396 0)
(0.0350432 -0.381718 0)
(0.0345957 -0.364531 0)
(0.109235 -0.351509 0)
(0.118283 -0.36934 0)
(0.182131 -0.424695 0)
(0.0557703 -0.573915 0)
(-0.119393 -0.700687 0)
(-0.161578 -0.482241 0)
(0.0671824 -0.574201 0)
(0.00309393 -0.262084 0)
(0.18761 -0.252119 0)
(0.363524 -0.188355 0)
(0.498315 -0.489776 0)
(0.501053 -0.321246 0)
(0.642753 -0.188904 0)
(0.704591 -0.450261 0)
(1.0626 -0.344378 0)
(1.07507 -0.359164 0)
(1.10754 -0.488958 0)
(0.0449833 -0.403551 0)
(0.0280192 -0.384609 0)
(0.00504789 -0.4073 0)
(0.00817415 -0.422536 0)
(-0.00819291 -0.392107 0)
(0.00645513 -0.439438 0)
(0.166044 -0.486405 0)
(0.144576 -0.41748 0)
(0.127132 -0.72247 0)
(0.189883 -0.807031 0)
(0.192651 -1.1182 0)
(0.150009 -0.621434 0)
(0.11462 -0.726541 0)
(0.262777 -0.428135 0)
(0.332669 -0.564399 0)
(0.450476 -0.511345 0)
(0.596021 -0.599421 0)
(0.654654 -0.520312 0)
(0.493577 -0.476019 0)
(0.787451 -0.415383 0)
(1.11064 -0.444613 0)
(0.953595 -0.610316 0)
(1.07389 -0.446084 0)
(0.0461524 -0.439959 0)
(0.0236895 -0.263225 0)
(0.00586319 -0.309541 0)
(0.101015 -0.295862 0)
(0.156455 -0.342457 0)
(0.213565 -0.492962 0)
(0.393668 -0.526599 0)
(0.405179 -0.51283 0)
(0.331894 -0.622748 0)
(0.333079 -0.564361 0)
(0.359616 -0.664253 0)
(0.359016 -0.610165 0)
(0.243221 -0.4846 0)
(0.244665 -0.704985 0)
(0.205062 -0.671817 0)
(0.401756 -0.596509 0)
(0.561758 -0.780584 0)
(0.620429 -0.723718 0)
(0.621501 -0.384602 0)
(0.914246 -0.357443 0)
(1.08218 -0.648404 0)
(1.16332 -0.557185 0)
(1.05997 -0.308756 0)
(0.101662 -0.443671 0)
(0.213648 -0.470093 0)
(0.190693 -0.584205 0)
(0.180017 -0.577414 0)
(0.164101 -0.682681 0)
(0.284516 -0.636957 0)
(0.272211 -0.752886 0)
(0.240115 -0.818272 0)
(0.23969 -0.689376 0)
(0.322533 -0.743431 0)
(0.410798 -0.699986 0)
(0.388998 -0.764472 0)
(0.195283 -0.694966 0)
(0.289522 -0.786357 0)
(0.592327 -0.718165 0)
(0.427478 -0.738022 0)
(0.519489 -0.831357 0)
(0.98717 -0.796559 0)
(0.768776 -0.70512 0)
(0.752198 -0.665474 0)
(0.96156 -0.667338 0)
(1.08554 -0.605795 0)
(1.03247 -0.705625 0)
(-0.158919 -0.811282 0)
(-0.0934678 -0.879989 0)
(0.118121 -0.992704 0)
(0.134711 -0.926238 0)
(0.319475 -0.910694 0)
(0.218314 -0.967387 0)
(0.0580544 -0.943816 0)
(0.314739 -0.910915 0)
(0.221557 -0.874951 0)
(0.207089 -0.810946 0)
(0.268245 -0.799952 0)
(0.291074 -0.848623 0)
(0.343601 -0.804248 0)
(0.372332 -0.756831 0)
(0.493691 -0.799586 0)
(0.399774 -0.96853 0)
(0.395474 -0.689206 0)
(0.62338 -0.799453 0)
(0.861609 -1.1419 0)
(0.87623 -0.866514 0)
(1.21329 -0.82242 0)
(1.14184 -0.608493 0)
(1.03221 -0.85129 0)
(0.00362918 -1.08613 0)
(0.104379 -1.0819 0)
(0.106186 -1.04285 0)
(0.163373 -0.947081 0)
(0.166226 -0.959127 0)
(0.215393 -1.07399 0)
(0.177773 -0.967159 0)
(0.214717 -0.93871 0)
(0.207532 -0.935699 0)
(0.229599 -0.874301 0)
(0.24547 -0.894687 0)
(0.288904 -0.902463 0)
(0.291208 -0.894353 0)
(0.362378 -0.948494 0)
(0.371176 -0.966478 0)
(0.538932 -0.981679 0)
(0.729943 -0.806372 0)
(0.489855 -0.396809 0)
(0.619278 -0.730944 0)
(0.936868 -0.69014 0)
(1.394 -0.797856 0)
(1.11908 -0.597673 0)
(0.855811 -0.784313 0)
(0.138934 -0.818969 0)
(0.2118 -1.18411 0)
(0.176511 -1.18238 0)
(0.166739 -1.01058 0)
(0.171453 -1.05689 0)
(0.22439 -1.00414 0)
(0.167878 -0.94982 0)
(0.195668 -0.925478 0)
(0.200213 -0.914812 0)
(0.205124 -0.895404 0)
(0.203998 -0.927573 0)
(0.247897 -0.919198 0)
(0.23834 -0.946327 0)
(0.289437 -0.892853 0)
(0.554262 -0.898839 0)
(0.677051 -0.873578 0)
(0.753034 -1.12553 0)
(0.690791 -0.927364 0)
(0.739986 -0.936628 0)
(1.00752 -0.817654 0)
(1.21381 -0.924589 0)
(1.11998 -1.04267 0)
(1.00442 -0.897825 0)
(-0.108242 -0.62994 0)
(-0.0970115 -0.88214 0)
(0.258536 -0.847252 0)
(0.239256 -0.886229 0)
(0.196856 -1.06536 0)
(0.344584 -1.01375 0)
(0.18329 -1.02066 0)
(0.136419 -1.03572 0)
(0.157978 -0.979818 0)
(0.175595 -0.886868 0)
(0.186948 -0.963233 0)
(0.235495 -0.978281 0)
(0.306409 -0.8228 0)
(0.509814 -0.844709 0)
(0.489048 -1.01893 0)
(0.341952 -1.16048 0)
(0.557826 -1.25 0)
(0.742729 -1.1301 0)
(0.895815 -0.918984 0)
(1.20998 -0.974524 0)
(1.20029 -0.995813 0)
(1.21961 -1.21811 0)
(1.20079 -0.993811 0)
(-0.016252 -0.587976 0)
(-0.019864 -0.728992 0)
(0.0706314 -0.687567 0)
(-0.0843657 -0.927805 0)
(0.0181136 -0.761167 0)
(0.235491 -1.01478 0)
(0.0412564 -1.02116 0)
(0.0961283 -0.738827 0)
(0.29006 -0.994716 0)
(0.285624 -0.992714 0)
(0.114674 -1.07103 0)
(0.354309 -1.03667 0)
(0.351358 -0.96814 0)
(0.208134 -1.08074 0)
(0.437212 -1.121 0)
(0.550666 -0.986571 0)
(0.777237 -0.851033 0)
(0.959159 -0.944492 0)
(0.926482 -0.835834 0)
(1.0434 -0.934201 0)
(1.03827 -0.971251 0)
(1.1527 -0.932918 0)
(1.29114 -0.752201 0)
(-0.04201 -0.604379 0)
(-0.0230985 -0.822485 0)
(-0.0511958 -0.766297 0)
(0.0234952 -0.575776 0)
(0.0567929 -0.670979 0)
(0.0277359 -0.643429 0)
(0.20623 -0.963196 0)
(0.0242412 -0.632302 0)
(-0.013342 -0.675649 0)
(0.269274 -1.10093 0)
(0.0573886 -1.10862 0)
(0.192581 -0.760698 0)
(0.264325 -1.0319 0)
(0.341283 -0.962127 0)
(0.639056 -0.931425 0)
(0.712616 -0.931394 0)
(0.771249 -0.817243 0)
(0.886256 -0.979486 0)
(0.950582 -0.962525 0)
(1.1021 -1.07109 0)
(1.16817 -1.00615 0)
(1.31679 -0.793061 0)
(1.23244 -1.0437 0)
(-0.0196742 -0.480728 0)
(-0.00205815 -0.784597 0)
(-0.0440128 -0.711254 0)
(-0.0360465 -0.318958 0)
(0.0366593 -0.696285 0)
(-0.065359 -0.410569 0)
(0.0402623 -0.660995 0)
(0.193462 -0.529036 0)
(-0.1356 -0.559708 0)
(0.0934088 -0.865829 0)
(0.296919 -0.686556 0)
(0.298234 -0.545558 0)
(0.26737 -0.669589 0)
(0.412133 -0.792149 0)
(0.662238 -0.904209 0)
(0.695802 -0.99681 0)
(0.744424 -0.961602 0)
(0.905141 -1.03693 0)
(0.904643 -1.03196 0)
(1.01464 -1.16624 0)
(1.16316 -1.0497 0)
(1.10475 -0.837842 0)
(1.17116 -1.17759 0)
(-0.166587 -0.62323 0)
(-0.0568281 -0.743432 0)
(0.0235765 -0.616518 0)
(0.0114382 -0.731259 0)
(0.0610965 -0.52211 0)
(0.0520752 -0.76676 0)
(0.0420271 -0.382182 0)
(0.0843112 -0.550745 0)
(-0.0947059 -0.451411 0)
(0.178046 -0.721589 0)
(0.235725 -0.444105 0)
(0.226244 -0.464729 0)
(0.244842 -0.636927 0)
(0.390333 -0.924822 0)
(0.582161 -1.04944 0)
(0.683835 -1.03567 0)
(0.71522 -1.01863 0)
(0.848093 -1.07906 0)
(0.809539 -1.00747 0)
(0.949604 -1.07663 0)
(1.36072 -1.02164 0)
(1.10162 -0.947291 0)
(0.989694 -1.09163 0)
(0.152741 -1.07212 0)
(0.181983 -1.16858 0)
(-0.200915 -1.09771 0)
(0.0398189 -1.12981 0)
(-0.00615895 -1.12705 0)
(-0.00935957 -1.08366 0)
(0.117432 -1.0095 0)
(0.102268 -0.996234 0)
(0.219148 -0.82953 0)
(0.171826 -0.825474 0)
(0.283325 -0.787205 0)
(0.0208196 -0.756236 0)
(0.0838452 -0.765484 0)
(0.327943 -0.938589 0)
(0.614983 -1.08455 0)
(0.67471 -0.982938 0)
(0.727928 -1.01489 0)
(0.977066 -1.10624 0)
(0.984092 -1.22987 0)
(0.922738 -1.07707 0)
(1.20539 -0.907286 0)
(1.05298 -1.43346 0)
(0.972028 -1.38427 0)
(0.0128463 -1.22422 0)
(0.0303345 -1.36866 0)
(0.0157571 -1.34815 0)
(0.0441242 -1.22683 0)
(0.0418645 -1.34044 0)
(0.113703 -1.14125 0)
(0.159426 -1.23846 0)
(0.264683 -1.06773 0)
(0.369114 -1.18776 0)
(0.226832 -1.25338 0)
(0.0688954 -1.1099 0)
(0.316689 -1.11172 0)
(0.362026 -1.21048 0)
(0.329627 -1.20449 0)
(0.442662 -1.29393 0)
(0.665446 -1.40902 0)
(0.650308 -1.35498 0)
(0.734127 -1.26002 0)
(0.801975 -1.52174 0)
(1.03582 -1.45407 0)
(1.17183 -1.59883 0)
(0.905044 -1.71769 0)
(0.901866 -1.60207 0)
(0.00842955 -1.2177 0)
(0.0326518 -1.25786 0)
(0.0233115 -1.25096 0)
(0.0355669 -1.26404 0)
(0.0491942 -1.23237 0)
(0.0843378 -1.23685 0)
(0.171036 -1.21831 0)
(0.148958 -1.24773 0)
(0.140328 -1.31701 0)
(0.21769 -1.3904 0)
(0.252601 -1.28604 0)
(0.157631 -1.28908 0)
(0.340709 -1.38033 0)
(0.397787 -1.38089 0)
(0.348897 -1.45064 0)
(0.546831 -1.5593 0)
(0.849899 -1.50929 0)
(0.790091 -1.46248 0)
(0.634695 -1.5617 0)
(0.889731 -1.51249 0)
(1.14734 -1.84271 0)
(1.03469 -1.84123 0)
(1.0999 -1.72916 0)
(0.00543516 -1.29847 0)
(0.0307808 -1.33663 0)
(0.0411297 -1.334 0)
(0.0682385 -1.32096 0)
(0.0811375 -1.3022 0)
(0.108971 -1.28733 0)
(0.133545 -1.31068 0)
(0.166769 -1.32731 0)
(0.187843 -1.31577 0)
(0.195646 -1.28145 0)
(0.201609 -1.35831 0)
(0.234928 -1.33569 0)
(0.27723 -1.29193 0)
(0.293818 -1.44507 0)
(0.365313 -1.5304 0)
(0.513988 -1.37688 0)
(0.792817 -1.49922 0)
(0.766801 -1.51656 0)
(0.634445 -1.58725 0)
(0.8943 -1.52984 0)
(0.984573 -1.80102 0)
(1.01523 -1.80491 0)
(1.06003 -1.8544 0)
(0.00539299 -1.3187 0)
(0.0265354 -1.35812 0)
(0.0386613 -1.35327 0)
(0.0574629 -1.34665 0)
(0.0736295 -1.32237 0)
(0.0918403 -1.35131 0)
(0.130389 -1.34614 0)
(0.13458 -1.35754 0)
(0.161894 -1.38444 0)
(0.177652 -1.39554 0)
(0.212158 -1.40082 0)
(0.206403 -1.41424 0)
(0.257468 -1.41537 0)
(0.265358 -1.47046 0)
(0.35552 -1.56559 0)
(0.584599 -1.54784 0)
(0.814972 -1.47387 0)
(0.693691 -1.53515 0)
(0.381547 -1.57142 0)
(0.63701 -1.60436 0)
(0.970853 -2.00292 0)
(1.10319 -1.94061 0)
(1.11307 -1.92132 0)
(-0.00246884 -1.35903 0)
(0.0298004 -1.38919 0)
(0.0523814 -1.39501 0)
(0.0893787 -1.36928 0)
(0.0939202 -1.40245 0)
(0.0774869 -1.38886 0)
(0.118037 -1.40363 0)
(0.132394 -1.40386 0)
(0.159754 -1.41355 0)
(0.169231 -1.41444 0)
(0.195364 -1.43118 0)
(0.20469 -1.44196 0)
(0.248839 -1.4307 0)
(0.240892 -1.51891 0)
(0.264305 -1.53816 0)
(0.626162 -1.51005 0)
(0.853462 -1.85988 0)
(0.642967 -1.67275 0)
(0.361946 -1.46924 0)
(0.45234 -1.73849 0)
(0.824925 -2.02059 0)
(1.18436 -1.96675 0)
(1.1098 -1.93581 0)
(0.0117298 -1.37783 0)
(0.023164 -1.39996 0)
(0.0418032 -1.41489 0)
(0.0579025 -1.42216 0)
(0.0767663 -1.44595 0)
(0.0910719 -1.42526 0)
(0.11273 -1.43969 0)
(0.123969 -1.4485 0)
(0.150109 -1.45646 0)
(0.161601 -1.47456 0)
(0.193704 -1.47739 0)
(0.203411 -1.51187 0)
(0.25949 -1.50736 0)
(0.252009 -1.56909 0)
(0.311838 -1.57061 0)
(0.348984 -1.62317 0)
(0.690095 -1.99922 0)
(0.875682 -1.67898 0)
(0.0940813 -1.84298 0)
(0.263179 -1.717 0)
(0.877706 -1.90054 0)
(1.19342 -2.11433 0)
(1.12614 -1.97165 0)
(0.00540383 -1.42689 0)
(0.0293162 -1.4567 0)
(0.0451424 -1.46266 0)
(0.0642939 -1.4598 0)
(0.0777475 -1.46441 0)
(0.0869 -1.47279 0)
(0.1097 -1.47194 0)
(0.119575 -1.48073 0)
(0.138598 -1.48925 0)
(0.153772 -1.49955 0)
(0.158451 -1.51808 0)
(0.193492 -1.54218 0)
(0.190926 -1.54876 0)
(0.226513 -1.61458 0)
(0.257842 -1.62741 0)
(0.320357 -1.69266 0)
(0.73284 -1.64426 0)
(0.682956 -1.94671 0)
(0.115746 -2.08831 0)
(0.448972 -1.59809 0)
(0.555129 -1.73511 0)
(1.06716 -1.82894 0)
(1.2967 -1.98662 0)
(0.00983104 -1.4493 0)
(0.0206545 -1.4816 0)
(0.0387328 -1.48513 0)
(0.050197 -1.49073 0)
(0.0695828 -1.49833 0)
(0.0809208 -1.49744 0)
(0.0987822 -1.50422 0)
(0.108544 -1.51171 0)
(0.127815 -1.51861 0)
(0.135455 -1.52563 0)
(0.146218 -1.54352 0)
(0.17727 -1.54977 0)
(0.145439 -1.57695 0)
(0.232031 -1.61573 0)
(0.316876 -1.683 0)
(0.420908 -1.63238 0)
(0.343047 -1.678 0)
(0.392442 -2.12217 0)
(0.477499 -1.80442 0)
(0.616699 -1.72724 0)
(0.584404 -1.67342 0)
(0.82655 -1.80978 0)
(1.02037 -2.09784 0)
(0.0067621 -1.49016 0)
(0.0259778 -1.52065 0)
(0.0382909 -1.52202 0)
(0.0558248 -1.52463 0)
(0.0675028 -1.52218 0)
(0.0815159 -1.53265 0)
(0.0968696 -1.52645 0)
(0.106598 -1.53878 0)
(0.124041 -1.53706 0)
(0.130858 -1.54257 0)
(0.147368 -1.56032 0)
(0.166144 -1.54353 0)
(0.134246 -1.58827 0)
(0.228591 -1.57766 0)
(0.318051 -1.70079 0)
(0.335073 -1.76003 0)
(0.2388 -1.86974 0)
(0.414654 -2.12509 0)
(0.730595 -1.79411 0)
(0.641929 -1.72189 0)
(0.328429 -1.71763 0)
(0.582321 -2.01576 0)
(0.98109 -2.24675 0)
(0.00934088 -1.51525 0)
(0.0208614 -1.54446 0)
(0.036594 -1.5461 0)
(0.0486801 -1.54975 0)
(0.0638577 -1.55244 0)
(0.0765012 -1.55768 0)
(0.0906365 -1.55619 0)
(0.102667 -1.56925 0)
(0.119696 -1.56315 0)
(0.124892 -1.57249 0)
(0.15102 -1.57555 0)
(0.157909 -1.56925 0)
(0.158058 -1.62463 0)
(0.220268 -1.57811 0)
(0.213874 -1.69828 0)
(0.289426 -1.77855 0)
(0.141136 -1.82185 0)
(0.399764 -1.80687 0)
(0.854934 -1.93763 0)
(0.712082 -2.11081 0)
(0.273129 -1.77165 0)
(0.326992 -1.86785 0)
(0.705732 -1.94211 0)
(0.00674384 -1.55069 0)
(0.0236486 -1.57627 0)
(0.0345898 -1.57675 0)
(0.0515086 -1.57958 0)
(0.0611312 -1.5762 0)
(0.0775167 -1.58438 0)
(0.0862983 -1.57758 0)
(0.101441 -1.58907 0)
(0.114522 -1.57413 0)
(0.116157 -1.59157 0)
(0.151642 -1.57863 0)
(0.121938 -1.57588 0)
(0.180305 -1.61609 0)
(0.264126 -1.5832 0)
(0.197823 -1.66138 0)
(0.290189 -1.74735 0)
(0.23816 -1.80814 0)
(0.27551 -1.79747 0)
(0.354441 -2.24254 0)
(0.687295 -2.21953 0)
(0.483081 -1.88421 0)
(0.468697 -2.02448 0)
(0.624459 -1.84717 0)
(0.00756716 -1.5767 0)
(0.0217415 -1.60124 0)
(0.033699 -1.60235 0)
(0.0493068 -1.60471 0)
(0.0592106 -1.60627 0)
(0.0788365 -1.60937 0)
(0.0850665 -1.60702 0)
(0.109657 -1.61861 0)
(0.113635 -1.60292 0)
(0.136763 -1.62194 0)
(0.158869 -1.57801 0)
(0.121401 -1.62059 0)
(0.241179 -1.49174 0)
(0.281313 -1.55335 0)
(0.133166 -1.67591 0)
(0.189317 -1.76453 0)
(0.154346 -1.83304 0)
(0.155496 -1.89221 0)
(0.315117 -1.89307 0)
(0.913491 -1.68373 0)
(0.459706 -1.81385 0)
(0.506037 -2.22624 0)
(0.701419 -1.88323 0)
(0.00751274 -1.61036 0)
(0.0210917 -1.6305 0)
(0.0319703 -1.63173 0)
(0.0468227 -1.63289 0)
(0.0550165 -1.63448 0)
(0.0744093 -1.63667 0)
(0.0790073 -1.63871 0)
(0.106776 -1.6392 0)
(0.10673 -1.63241 0)
(0.145697 -1.63446 0)
(0.138884 -1.60022 0)
(0.174561 -1.62772 0)
(0.367506 -1.50905 0)
(0.242641 -1.53588 0)
(0.0933798 -1.70535 0)
(0.178476 -1.7897 0)
(0.177563 -1.76126 0)
(0.273903 -1.81652 0)
(0.431302 -1.75376 0)
(0.776958 -1.76377 0)
(0.147492 -2.06586 0)
(0.416898 -1.90789 0)
(0.544238 -2.31176 0)
(0.00643661 -1.62882 0)
(0.0201207 -1.64503 0)
(0.0303711 -1.64604 0)
(0.0447787 -1.64764 0)
(0.0530694 -1.6509 0)
(0.073023 -1.65456 0)
(0.0780234 -1.65614 0)
(0.112645 -1.66186 0)
(0.119763 -1.65651 0)
(0.154553 -1.66775 0)
(0.169366 -1.62986 0)
(0.197476 -1.54536 0)
(0.409276 -1.43461 0)
(0.237021 -1.47614 0)
(0.0375826 -1.67694 0)
(0.186735 -1.78532 0)
(0.193295 -1.75201 0)
(0.276474 -1.83678 0)
(0.217335 -1.96825 0)
(0.339472 -2.0526 0)
(0.330832 -2.21378 0)
(0.278293 -1.88121 0)
(0.467294 -2.41518 0)
(0.00647098 -1.65756 0)
(0.018055 -1.67022 0)
(0.0270264 -1.67273 0)
(0.041523 -1.67623 0)
(0.0466672 -1.68208 0)
(0.0689024 -1.68468 0)
(0.0681339 -1.68996 0)
(0.104482 -1.70107 0)
(0.0956029 -1.69305 0)
(0.168403 -1.67453 0)
(0.255634 -1.68207 0)
(0.349308 -1.66053 0)
(0.581299 -1.63076 0)
(0.13018 -1.94819 0)
(-0.0388118 -1.73365 0)
(0.195052 -1.79778 0)
(0.185204 -1.83515 0)
(0.216368 -1.89835 0)
(0.143059 -1.99811 0)
(0.301124 -1.95203 0)
(0.379921 -1.90687 0)
(0.213674 -2.11046 0)
(0.432075 -2.08771 0)
(0.00488875 -1.67023 0)
(0.0133515 -1.68023 0)
(0.0185025 -1.68302 0)
(0.0297882 -1.68666 0)
(0.0336733 -1.69269 0)
(0.0503909 -1.69353 0)
(0.0473936 -1.69769 0)
(0.0830951 -1.70086 0)
(0.122984 -1.71828 0)
(0.155709 -1.66578 0)
(0.170721 -1.76235 0)
(0.262594 -1.80006 0)
(0.253103 -1.87224 0)
(0.131792 -2.11562 0)
(0.23565 -1.80135 0)
(0.166208 -1.795 0)
(0.161269 -1.84998 0)
(0.213336 -1.9105 0)
(0.103744 -2.03157 0)
(0.278368 -1.91562 0)
(0.353972 -2.09888 0)
(0.201009 -2.14878 0)
(0.440453 -2.11477 0)
(0.00399135 -1.67445 0)
(0.0104762 -1.68265 0)
(0.016387 -1.68688 0)
(0.0258218 -1.6919 0)
(0.0338619 -1.70192 0)
(0.0466328 -1.70846 0)
(0.0585163 -1.73047 0)
(0.0767138 -1.71418 0)
(0.0892517 -1.7614 0)
(0.124231 -1.7781 0)
(0.155379 -1.79609 0)
(0.19829 -1.79438 0)
(0.194674 -1.84313 0)
(0.189728 -1.8517 0)
(0.30547 -1.7515 0)
(0.144043 -1.73879 0)
(0.118639 -1.74479 0)
(0.155213 -1.82287 0)
(-0.0045318 -1.94233 0)
(0.0107225 -1.91098 0)
(0.333776 -2.13349 0)
(0.115968 -2.15567 0)
(0.0718222 -2.30546 0)
(0.00285013 -1.72552 0)
(0.00736906 -1.73289 0)
(0.0116713 -1.73821 0)
(0.0192382 -1.7444 0)
(0.0230668 -1.75441 0)
(0.0324965 -1.76523 0)
(0.0386638 -1.78545 0)
(0.0571024 -1.79637 0)
(0.0791608 -1.83139 0)
(0.102961 -1.85503 0)
(0.128982 -1.90453 0)
(0.182015 -1.93503 0)
(0.171292 -1.95623 0)
(0.360853 -1.85661 0)
(0.443601 -1.78706 0)
(0.192361 -1.74502 0)
(0.0993357 -1.7379 0)
(0.107091 -1.82663 0)
(-0.158198 -2.02906 0)
(-0.170468 -2.22548 0)