/*--------------------------------*- C++ -*----------------------------------*\
| =========                 |                                                 |
| \\      /  F ield         | foam-extend: Open Source CFD                    |
|  \\    /   O peration     | Version:     4.1                                |
|   \\  /    A nd           | Web:         http://www.foam-extend.org         |
|    \\/     M anipulation  |                                                 |
\*---------------------------------------------------------------------------*/
FoamFile
{
    version     2.0;
    format      ascii;
    class       volScalarField;
    location    "0.15";
    object      alpha1;
}
// * * * * * * * * * * * * * * * * * * * * * * * * * * * * * * * * * * * * * //

dimensions      [0 0 0 0 0 0 0];

internalField   nonuniform List<scalar> 
2268
(
1
1
1
1
1
1
0.999999
0.999994
0.999979
0.999963
0.999964
0.999977
1
1
1
1
1
1
1
1
0.995076
0.96272
0.828431
1
1
1
1
1
1
0.999999
0.999994
0.999979
0.999962
0.999962
0.999977
1
1
1
1
1
1
1
1
0.991082
0.951359
0.808229
1
1
1
1
1
1
0.999999
0.999994
0.999979
0.99996
0.999961
0.999983
1
1
1
1
1
1
1
1
0.991546
0.950925
0.788008
1
1
1
1
1
1
1
0.999995
0.999981
0.999962
0.999963
1
1
1
1
1
1
1
1
0.998975
0.992147
0.957183
0.783002
1
1
1
1
1
1
1
0.999995
0.999981
0.999963
0.999968
1
1
1
1
1
1
1
0.99974
0.994465
0.989279
0.962378
0.787796
1
1
1
1
1
1
1
0.999996
0.99998
0.999964
0.999976
1
1
1
1
1
1
1
0.995992
0.987143
0.979894
0.959928
0.793113
1
1
1
1
1
1
1
0.999995
0.999976
0.999966
0.999989
1
1
1
1
1
1
0.997976
0.990075
0.977718
0.961935
0.95083
0.798698
1
1
1
1
1
1
1
0.999993
0.99997
0.999967
1
1
1
1
1
1
0.999128
0.992489
0.979931
0.962198
0.93353
0.934382
0.812453
3.35493e-07
2.09898e-07
1.43599e-08
0
0
3.62783e-11
1.93935e-11
1.47654e-12
0
0
0
8.88178e-16
1.16573e-15
1.66533e-15
1.55431e-15
4.44089e-16
1.11022e-15
2.72005e-15
2.55351e-15
0
2.41072e-07
1.02764e-07
4.12255e-09
0
0
8.3728e-12
3.4498e-12
2.644e-13
0
0
0
7.21645e-16
2.16493e-15
1.4988e-15
9.4369e-16
1.05471e-15
3.55271e-15
2.498e-15
0
0
1.65166e-07
4.08416e-08
4.50139e-10
0
0
3.3849e-12
9.44855e-13
6.81122e-14
0
0
6.66134e-16
2.10942e-15
1.4988e-15
4.44089e-16
9.99201e-16
3.38618e-15
2.66454e-15
0
0
0
7.63696e-08
1.0296e-08
0
0
0
1.33338e-12
2.62679e-13
1.38778e-14
0
0
2.44249e-15
1.55431e-15
5.55112e-17
3.33067e-16
2.94209e-15
2.22045e-15
1.67582e-05
0
0
0
2.27198e-08
1.49498e-09
0
0
9.6867e-14
4.71678e-13
7.79377e-14
3.88578e-16
0
2.44249e-15
1.22125e-15
6.10623e-16
6.66134e-16
3.16414e-15
2.22045e-15
0.000132672
1.07633e-05
0
0
1.01487e-08
4.21651e-09
5.41133e-11
0
0
3.57436e-13
1.67866e-13
1.43774e-14
0
2.44249e-15
1.88738e-15
1.66533e-15
2.16493e-15
2.66454e-15
1.94289e-15
0.000280564
7.62811e-05
1.11026e-06
0
0
4.85014e-09
4.72644e-10
0
0
0
2.22711e-13
3.90243e-14
9.4369e-16
2.16493e-15
2.60902e-15
2.05391e-15
2.88658e-15
1.66533e-15
1.44329e-15
0
0.000141196
1.59442e-05
0
0
7.58167e-10
9.70663e-10
1.80972e-12
0
0
1.4877e-13
7.2331e-14
7.04992e-15
2.77556e-15
2.55351e-15
1.94289e-15
1.66533e-15
8.32667e-16
1.38778e-15
1
1
1
1
1
1
0.999999
0.999989
0.999961
0.99997
1
1
1
1
1
0.999782
0.991366
0.977748
0.954702
0.930554
0.887969
0.887667
0.838861
1
1
1
1
1
1
0.999996
0.999976
0.999952
0.999992
1
1
1
1
1
0.989775
0.965463
0.931688
0.874834
0.825985
0.769005
0.731977
0.790892
0.999999
0.999999
0.999998
0.999997
0.999997
0.999994
0.999981
0.999933
0.999925
1
1
1
1
1
0.989633
0.955292
0.889462
0.796902
0.66443
0.608989
0.573637
0.498564
0.659217
0.999983
0.99998
0.999977
0.999968
0.999959
0.999934
0.999878
0.999749
0.999772
1
1
1
1
0.99315
0.953545
0.861008
0.699798
0.497916
0.368927
0.288012
0.345428
0.294801
0.427134
0.999858
0.999843
0.99982
0.999767
0.9997
0.999562
0.999282
0.998889
0.999021
1
1
1
0.998718
0.963142
0.854876
0.631128
0.360599
0.189226
0.135009
0.127837
0.150288
0.14652
0.223052
0.99916
0.999092
0.998971
0.998733
0.998393
0.997774
0.996552
0.995488
0.9961
0.999639
1
0.994634
0.981286
0.881949
0.632765
0.316166
0.133982
0.0595951
0.0409055
0.0428357
0.0698487
0.0698929
0.0836183
0.996151
0.995895
0.995403
0.994513
0.993183
0.990915
0.986538
0.984553
0.986947
0.997017
0.996862
0.970383
0.930603
0.703042
0.336446
0.121533
0.0384875
0.0148841
0.00911863
0.0087712
0.024999
0.025421
0.0260048
0.985656
0.984854
0.983245
0.980487
0.976295
0.969274
0.956406
0.954218
0.963207
0.987689
0.983026
0.911812
0.813735
0.438515
0.14812
0.0488945
0.0148404
0.00341743
0.000792227
0.00034224
0.0107309
0.00941282
0.00658258
0.955088
0.952913
0.948585
0.941188
0.93015
0.911607
0.879263
0.880516
0.909161
0.96322
0.95217
0.798507
0.617791
0.242312
0.073229
0.0245833
0.00858593
0.00136288
0
0
0.00443967
0.00418121
0.00172312
0.877736
0.872525
0.862374
0.844867
0.820068
0.7771
0.706026
0.716773
0.79819
0.911046
0.893032
0.607168
0.43166
0.139669
0.0361586
0.00905313
0.00250444
0
0
0
0.00253784
0.00212274
6.2524e-05
0.701532
0.69011
0.669176
0.632756
0.586242
0.508182
0.403255
0.418114
0.603754
0.811767
0.788844
0.381315
0.302255
0.0782256
0.0113592
0.000127523
0
0
0
0.00013305
0.00137226
0.000908146
0
0.387201
0.373224
0.350363
0.31435
0.275731
0.219905
0.161275
0.181338
0.430625
0.637491
0.633264
0.215443
0.189943
0.0324987
0.000805118
0
0
0
4.02439e-05
7.5086e-05
0.000338171
0.000191812
0
0.14186
0.134998
0.124477
0.109011
0.0935788
0.0719083
0.0506154
0.0614611
0.180897
0.314159
0.334345
0.0978826
0.0649816
0.00777878
0
0
0
0
1.16469e-05
1.05121e-05
3.01479e-05
2.14463e-05
0
0.0400538
0.037698
0.0341538
0.029207
0.0242748
0.0175744
0.0108641
0.0139448
0.0555271
0.11191
0.137299
0.0459476
0.0172207
0.000915173
0
0
0
0
6.4361e-06
4.67261e-06
1.03837e-06
7.83196e-06
4.66069e-05
0.00757039
0.00693493
0.00593822
0.00465347
0.0033451
0.00174986
6.89142e-05
0.000586676
0.01296
0.0338982
0.048272
0.0218984
0.00604571
0
0
0
0
0
8.92016e-06
2.27371e-06
4.82284e-07
4.47768e-06
3.12262e-05
0
0
0
0
0
0
0
0
0.000491999
0.00721027
0.0136043
0.00754978
0.00110691
0
0
0
0
5.39863e-06
5.11591e-06
8.33227e-07
6.12055e-07
2.80422e-06
2.04346e-05
0
0
0
0
0
0
0
0
0
0
0.00167489
0.00105246
0
0
0
0
0
7.96752e-06
2.65408e-06
1.34071e-07
0
6.97008e-09
1.15637e-05
0
0
0
0
0
0
0
0
0
0
0
0
0
0
0
0
2.9343e-06
7.46102e-06
1.80446e-06
2.41517e-08
0
0
9.63569e-06
0
0
0
0
0
0
0
0
0
0
0
0
0
0
0
0
0
4.70699e-06
1.30366e-06
5.10713e-09
0
0
1.26067e-05
0
0
0
0
0
0
0
0
0
0
0
0
0
0
0
0
6.11704e-07
3.94324e-06
1.007e-06
4.01467e-08
0
0
5.54918e-06
1.34381e-05
1.53769e-05
1.75323e-05
1.91355e-05
2.13369e-05
1.79382e-05
9.02388e-06
6.84823e-06
0
0
0
0
0
0
0
0
3.43746e-06
2.34442e-06
3.27711e-07
0
0
0
4.16217e-06
1.79068e-05
1.77995e-05
1.78214e-05
1.85327e-05
2.00035e-05
2.33633e-05
2.22947e-05
2.11342e-05
1.30463e-05
4.4656e-06
0
0
0
0
0
2.38711e-06
2.72187e-06
7.70613e-07
3.2851e-08
0
0
0
3.23835e-06
4.95985e-06
4.51463e-06
4.37054e-06
4.51868e-06
5.3594e-06
8.27577e-06
1.23001e-05
1.50605e-05
1.46057e-05
9.56796e-06
4.8349e-06
1.55388e-06
7.94699e-07
7.88951e-07
1.80602e-06
1.67319e-06
8.16641e-07
1.28527e-07
0
0
0
0
3.02265e-07
4.59438e-07
3.71924e-07
3.50044e-07
3.63639e-07
5.08719e-07
1.18064e-06
2.39423e-06
3.65491e-06
4.16996e-06
3.17913e-06
2.41476e-06
1.82254e-06
1.35847e-06
7.70509e-07
4.9963e-07
3.05028e-07
8.61747e-08
0
0
0
0
0
0
0
0
0
0
0
0
2.90872e-08
3.8727e-07
5.68236e-07
3.8736e-07
1.8191e-07
1.34218e-07
1.19271e-07
4.99554e-08
2.80989e-08
1.46697e-08
0
0
0
0
7.30247e-10
0
0
0
0
0
0
0
0
0
0
0
0
0
0
0
0
0
0
0
0
0
4.48015e-10
4.87633e-10
1.12995e-10
0
0
0
0
0
0
0
0
0
0
0
0
0
0
0
0
0
0
5.63298e-11
3.55861e-10
3.71807e-10
1.01606e-10
1.14179e-10
3.76436e-10
2.26264e-09
2.44783e-09
2.64023e-09
2.78503e-09
0
0
0
0
0
0
0
1.06666e-09
2.05218e-09
1.38841e-09
3.50604e-10
4.91703e-11
1.87933e-10
2.32562e-10
1.21184e-10
5.91747e-11
0
0
1.6134e-10
2.10987e-09
2.21689e-09
2.53163e-09
3.07724e-09
2.91154e-09
1.88736e-09
8.27119e-10
6.8608e-10
7.26972e-10
2.17288e-09
3.43928e-09
3.30487e-09
1.43136e-09
2.94097e-10
7.22709e-11
6.88448e-11
5.89746e-11
2.86138e-11
5.90772e-12
0
0
0
8.17951e-12
2.60734e-10
2.789e-10
3.39466e-10
5.0819e-10
7.73729e-10
1.48344e-09
2.22009e-09
2.34037e-09
2.1927e-09
1.78417e-09
1.07485e-09
5.87927e-10
1.34764e-10
0
0
0
0
0
0
0
0
0
0
0
0
0
0
3.26705e-11
1.70835e-10
3.15858e-10
3.46141e-10
3.34914e-10
2.41564e-10
7.53577e-11
0
0
0
0
0
0
0
0
0
3.7137e-14
1.16462e-13
0
0
0
0
0
0
0
0
0
0
0
0
0
0
0
2.51688e-13
7.4124e-13
5.4462e-13
2.16882e-13
8.60423e-14
6.37268e-14
5.9619e-14
3.25295e-14
7.32747e-15
0
0
0
0
0
0
0
0
0
0
0
0
0
8.80407e-13
1.14037e-12
4.48586e-13
1.45883e-13
4.19664e-14
1.07692e-14
5.88418e-15
5.4956e-15
3.33067e-15
5.55112e-17
2.34368e-13
2.43916e-13
2.34257e-13
1.6559e-13
0
0
0
0
0
0
0
1.27454e-13
6.14342e-13
4.70624e-13
1.81022e-13
2.94764e-14
0
0
0
0
5.55112e-17
0
1.38778e-15
2.16382e-13
2.27762e-13
2.55185e-13
3.1547e-13
3.52829e-13
3.69482e-13
3.23686e-13
2.6823e-13
2.33091e-13
2.78499e-13
3.39007e-13
3.57436e-13
1.91569e-13
4.82947e-14
0
0
0
0
0
1.66533e-16
8.32667e-16
3.33067e-16
2.44249e-15
2.43139e-14
2.62013e-14
3.02536e-14
3.81917e-14
5.12368e-14
7.11653e-14
8.88734e-14
9.85878e-14
9.62563e-14
8.54872e-14
7.08322e-14
5.10703e-14
1.19349e-14
0
0
0
0
1.11022e-16
2.16493e-15
1.77636e-15
1.38778e-15
2.66454e-15
3.60822e-15
3.88578e-16
3.33067e-16
1.9984e-15
0
0
8.32667e-16
3.9968e-15
5.71765e-15
5.21805e-15
3.10862e-15
2.05391e-15
1.44329e-15
0
0
0
2.60902e-15
1.94289e-15
1.05471e-15
4.44089e-16
1.05471e-15
2.77556e-16
8.88178e-16
2.77556e-15
9.4369e-16
9.4369e-16
2.55351e-15
1.60982e-15
1.05471e-15
5.55112e-17
2.10942e-15
0
0
0
1.66533e-16
2.27596e-15
3.10862e-15
1.72085e-15
0
0
2.55351e-15
2.22045e-15
2.94209e-15
6.66134e-16
1.94289e-15
1.44329e-15
1.9984e-15
0
0
9.4369e-16
2.22045e-15
3.33067e-15
2.22045e-15
2.77556e-15
2.77556e-16
1.4988e-15
0
4.4964e-15
6.27276e-15
3.83027e-15
2.05391e-15
4.44089e-16
0
1.11022e-15
2.44249e-15
3.16414e-15
3.4972e-15
2.498e-15
0
1.16573e-15
2.22045e-16
0
0
2.22045e-15
2.55351e-15
2.83107e-15
2.72005e-15
1.60982e-15
3.16414e-15
1.38778e-15
3.38618e-15
3.94129e-15
1.38778e-15
1.05471e-15
2.16493e-15
6.10623e-16
4.44089e-16
1.55431e-15
2.83107e-15
3.9968e-15
3.88578e-16
0
1.05471e-15
1.22125e-15
7.21645e-16
1.27676e-15
3.21965e-15
1.94289e-15
2.60902e-15
3.83027e-15
8.88178e-16
3.66374e-15
1.55431e-15
4.996e-15
2.9976e-15
0
1.88738e-15
1.27676e-15
1.44329e-15
0
3.83027e-15
2.44249e-15
3.21965e-15
1.38778e-15
2.38698e-15
6.66134e-16
3.44169e-15
2.83107e-15
1.16573e-15
3.88578e-15
1.22125e-15
5.10703e-15
5.10703e-15
2.498e-15
1.27676e-15
2.22045e-15
2.9976e-15
4.996e-16
1.94289e-15
2.22045e-16
1.11022e-16
0
5.55112e-17
4.32987e-15
1.88738e-15
2.9976e-15
9.4369e-16
4.4964e-15
3.21965e-15
0.757926
0.50898
0.126702
0
0.741559
0.605186
0.310506
0.0805313
0.689388
0.620655
0.450642
0.219487
0.56358
0.566038
0.48137
0.29304
0.36045
0.454707
0.427938
0.317151
0.159117
0.276704
0.335635
0.287976
0.0562763
0.128602
0.229293
0.241076
0.0152719
0.0499942
0.125973
0.191587
0.00333043
0.0164994
0.0601329
0.12915
0
0.00443839
0.0269454
0.0797763
0
0
0.00917759
0.0433227
0
0
0.00362461
0.02517
0
0
0
0.00908605
0
0
0
0.00242034
7.14936e-05
0
0
0.00105166
7.47507e-05
0
0
0.00104091
7.69043e-05
3.24664e-05
0
0.00111577
8.97706e-05
0.000185587
0.000101801
0.000889203
0.000126827
0.000328425
0.000569789
0.00103353
0.000126744
0.000428979
0.000927969
0.00155138
7.44647e-05
0.000312456
0.000838239
0.00165173
3.61864e-05
0.000156374
0.000492022
0.00120239
1.01096e-05
5.72565e-05
0.000207818
0.00059278
8.2884e-07
1.24778e-05
6.07652e-05
0.000210656
0
8.40774e-07
1.01195e-05
4.88203e-05
0
0
5.94461e-07
6.28179e-06
0
0
0
2.20832e-07
5.1474e-10
0
0
0
1.10212e-10
1.21707e-10
0
0
5.03708e-12
2.38221e-11
2.11929e-11
0
0
9.83269e-13
4.27108e-12
3.5329e-12
0
0
1.18461e-13
5.75429e-13
0
0
0
9.71445e-15
2.498e-15
3.66374e-15
2.22045e-15
8.88178e-16
1.9984e-15
2.16493e-15
3.21965e-15
3.44169e-15
2.55351e-15
2.66454e-15
2.10942e-15
1.33227e-15
3.55271e-15
4.60743e-15
3.9968e-15
3.9968e-15
2.16493e-15
2.66454e-15
2.72005e-15
2.72005e-15
2.27596e-15
1.72085e-15
2.16493e-15
3.05311e-15
9.4369e-16
1.27676e-15
1.33227e-15
1.22125e-15
0
0
0
1.66533e-16
1.27676e-15
0
0
0
0
0
3.96275e-05
1.84238e-06
0
0
1.5868e-09
1.42923e-10
0
0
0
1.22236e-13
2.39808e-14
4.32987e-15
4.05231e-15
1.9984e-15
6.66134e-16
2.66454e-15
1.83187e-15
0
0
0
3.33477e-06
4.74891e-08
0
2.07916e-09
6.67487e-10
1.14346e-11
0
0
0
7.89369e-14
1.26565e-14
5.60663e-15
4.88498e-15
1.72085e-15
1.33227e-15
2.55351e-15
0.0330402
0.00213607
7.06027e-06
0
0
0
5.77613e-10
1.78349e-09
2.86971e-10
0
0
0
7.29417e-14
3.90243e-14
6.66134e-15
5.44009e-15
3.55271e-15
2.498e-15
0
0.0658945
0.00698229
0.000442851
4.79403e-06
0
0
0
1.73969e-09
1.51243e-09
2.25735e-10
0
0
0
7.14984e-14
1.10467e-14
2.83107e-15
1.55431e-15
1.22125e-15
2.38698e-15
0.0864419
0.00826403
0.000550768
7.36801e-06
0
0
0
0
2.02641e-09
8.63326e-10
7.04656e-11
0
0
2.78666e-14
2.92544e-14
4.05231e-15
4.10783e-15
3.33067e-15
1.44329e-15
0.0849861
0.00177371
0
0
1.10362e-06
0
0
0
0
2.03662e-09
4.27562e-10
1.05921e-12
0
0
5.4734e-14
8.10463e-15
5.21805e-15
2.9976e-15
4.996e-16
0.113866
0.0112873
0
0
1.73925e-06
1.17494e-07
0
0
0
1.03312e-10
1.5453e-09
1.34338e-10
0
0
1.249e-14
2.05391e-14
4.16334e-15
2.72005e-15
3.4972e-15
0.136765
0.0317934
0.00218643
0
6.27785e-07
1.58225e-06
0
0
0
0
2.11386e-09
5.94215e-10
1.05087e-11
0
0
2.94764e-14
4.77396e-15
3.05311e-15
5.60663e-15
0.124436
0.051526
0.00737435
8.22126e-05
1.25368e-05
1.2807e-05
1.92607e-06
0
0
0
0
1.30841e-09
1.19458e-10
0
0
0
8.21565e-15
2.55351e-15
3.4972e-15
0.107422
0.056882
0.0114059
0.000548307
6.50145e-05
3.93367e-05
9.7186e-06
2.0948e-06
1.18044e-07
0
0
8.63767e-10
3.48825e-10
1.06991e-11
0
0
7.49401e-15
6.66134e-16
1.77636e-15
0.0897318
0.0503849
0.00997475
0.000640964
0.000189076
0.000122608
5.01901e-05
1.32868e-05
2.81085e-06
0
0
0
5.07529e-10
6.73206e-11
0
0
0
1.16573e-15
9.99201e-16
0.0760245
0.0436281
0.0076465
0.000488453
0.000426746
0.000389904
0.000153195
5.16307e-05
1.3791e-05
1.05793e-06
0
0
0
1.35375e-10
7.39875e-12
0
0
1.33227e-15
0
0.0596065
0.0386921
0.00656857
0.000580013
0.000948726
0.00127857
0.000506825
0.000150681
4.60743e-05
5.08897e-06
0
0
0
1.49926e-10
2.38524e-11
3.35953e-13
0
0
8.88178e-16
0.0452418
0.0333603
0.00550068
0.000769028
0.00170457
0.00263169
0.0013579
0.000424196
0.000128422
1.71575e-05
6.33289e-07
0
0
0
3.87126e-11
1.98436e-12
0
0
1.88738e-15
0.0324595
0.0288039
0.00549988
0.000882509
0.00202286
0.00333471
0.00251721
0.00100033
0.000325465
4.83676e-05
2.89185e-06
0
0
0
3.15619e-11
3.87618e-12
4.28546e-14
0
3.66374e-15
0.0249129
0.0256555
0.00653903
0.00107984
0.00218337
0.00366551
0.00391505
0.00231052
0.000674253
0.000102543
8.08617e-06
2.0122e-07
0
0
0
4.68692e-12
2.22544e-13
0
1.60982e-15
0.0194566
0.0229503
0.0123999
0.00253978
0.00258358
0.00382277
0.00448329
0.00325881
0.00104374
0.000179436
1.81972e-05
9.6975e-07
5.07412e-09
0
0
1.87805e-12
3.42504e-13
5.10703e-15
0
0.0123754
0.020282
0.0153529
0.0064133
0.00383827
0.00452534
0.00509372
0.00386836
0.00135837
0.000269673
3.34827e-05
2.39881e-06
7.75201e-08
0
0
0
2.95486e-13
1.06026e-14
1.27676e-15
0.00563432
0.0157077
0.0144053
0.0103325
0.00646343
0.00612174
0.00582714
0.00402568
0.00144217
0.000316221
4.2977e-05
3.397e-06
1.39663e-07
6.9126e-10
0
0
1.60372e-13
8.54872e-15
4.21885e-15
0.00337469
0.0102839
0.0125577
0.0103128
0.00777774
0.00691888
0.00580355
0.0033558
0.00101635
0.000189632
2.26264e-05
1.61911e-06
5.92534e-08
3.97856e-11
0
0
8.34333e-14
4.4964e-15
3.77476e-15
0.00317868
0.00806335
0.0108055
0.00968849
0.0079572
0.00662763
0.00416483
0.00106402
0.000161223
2.12048e-05
1.41285e-06
4.46289e-09
0
0
0
7.1565e-13
3.65818e-14
3.16414e-15
3.88578e-15
0.00308662
0.00717695
0.00939755
0.00882335
0.0075449
0.00527554
0.00189975
0.000319647
3.07302e-05
1.22879e-06
0
0
0
0
3.47061e-12
1.49047e-13
0
3.10862e-15
4.27436e-15
0.00200263
0.00578513
0.00776166
0.00739352
0.00599671
0.00287404
0.000654168
8.44702e-05
6.11441e-06
1.48574e-07
0
0
6.51782e-11
7.7951e-12
2.17992e-13
0
1.77636e-15
1.94289e-15
3.66374e-15
0.000819272
0.00336196
0.00515925
0.004797
0.00319749
0.000981576
0.000162975
1.56397e-05
7.484e-07
3.1641e-09
0
3.80608e-11
6.02474e-12
0
0
0
1.22125e-15
7.77156e-16
3.71925e-15
0.00023893
0.00122547
0.00216263
0.00192402
0.00103434
0.000231616
2.87764e-05
1.90682e-06
4.26783e-08
0
0
2.68419e-12
0
0
2.66454e-15
2.83107e-15
8.32667e-16
4.44089e-16
5.88418e-15
4.29252e-05
0.000273381
0.000578133
0.000503572
0.000223468
3.83542e-05
3.4517e-06
1.34155e-07
0
0
0
4.31044e-13
0
1.11022e-16
2.88658e-15
3.44169e-15
0
0
5.55112e-16
3.91197e-06
3.62159e-05
9.76331e-05
8.64096e-05
3.22537e-05
5.0209e-06
3.78747e-07
1.07683e-08
0
0
2.97484e-13
4.85167e-14
0
4.44089e-16
1.38778e-15
3.83027e-15
2.10942e-15
1.11022e-15
2.22045e-16
1.70564e-07
2.80258e-06
9.58237e-06
9.24594e-06
2.46793e-06
3.43686e-07
1.68008e-08
0
0
0
1.33393e-13
7.60503e-15
2.83107e-15
3.21965e-15
2.94209e-15
4.27436e-15
4.10783e-15
2.55351e-15
0
0
1.13098e-07
5.66761e-07
6.07992e-07
1.06384e-07
8.04261e-09
0
0
0
2.0739e-13
1.27121e-14
1.11022e-15
1.9984e-15
1.72085e-15
9.4369e-16
2.22045e-15
1.22125e-15
1.88738e-15
6.66134e-16
0
0
1.67993e-08
2.22495e-08
9.57873e-10
0
0
0
2.52631e-13
1.64313e-14
4.996e-16
1.16573e-15
2.77556e-16
2.44249e-15
1.11022e-15
2.33147e-15
3.16414e-15
4.05231e-15
1.55431e-15
0
0
0
1.30928e-10
0
0
0
2.27873e-13
1.65423e-14
9.4369e-16
1.83187e-15
1.05471e-15
0
2.88658e-15
1.55431e-15
2.66454e-15
2.83107e-15
1.27676e-15
0
6.5159e-13
0
0
0
0
0
1.33671e-13
1.09357e-14
0
2.55351e-15
3.27516e-15
2.22045e-15
2.27596e-15
2.60902e-15
1.9984e-15
4.996e-16
4.27436e-15
3.9968e-15
0
8.64309e-14
1.47105e-13
0
0
3.33067e-14
5.39013e-14
5.88418e-15
2.44249e-15
3.55271e-15
3.71925e-15
2.33147e-15
3.21965e-15
2.16493e-15
5.10703e-15
3.94129e-15
3.10862e-15
3.71925e-15
5.93969e-15
1.83187e-15
3.77476e-15
1.9984e-14
3.17524e-14
1.22125e-14
1.80966e-14
5.10703e-15
2.10942e-15
4.66294e-15
4.55191e-15
1.33227e-15
4.38538e-15
4.38538e-15
4.55191e-15
2.77556e-15
5.66214e-15
5.44009e-15
2.498e-15
4.05231e-15
8.88178e-16
1.94289e-15
7.21645e-16
3.71925e-15
3.16414e-15
5.05151e-15
1.88738e-15
2.498e-15
3.21965e-15
1.55431e-15
2.77556e-16
4.32987e-15
3.66374e-15
2.55351e-15
1.83187e-15
3.16414e-15
4.4964e-15
3.9968e-15
3.33067e-15
3.66374e-15
1.72085e-15
9.99201e-16
1.55431e-15
6.10623e-16
2.44249e-15
2.72005e-15
3.60822e-15
4.27436e-15
1.05471e-15
1.55431e-15
3.66374e-15
3.88578e-15
1.60982e-15
2.77556e-15
2.72005e-15
3.83027e-15
4.66294e-15
2.9976e-15
1.38778e-15
4.38538e-15
3.4972e-15
1.22125e-15
1.05471e-15
1.88738e-15
1.38778e-15
1.83187e-15
1.66533e-15
8.32667e-16
7.21645e-16
7.77156e-16
1.44329e-15
1.38778e-15
1.11022e-15
2.88658e-15
2.33147e-15
1.72085e-15
8.32667e-16
0
3.33067e-15
1.38778e-15
2.60902e-15
4.16334e-15
4.71845e-15
2.77556e-15
1.94289e-15
8.88178e-16
2.27596e-15
0
0
1.94289e-15
2.72005e-15
1.44329e-15
2.33147e-15
3.4972e-15
3.9968e-15
3.60822e-15
7.21645e-16
2.77556e-15
1.44329e-15
1.9984e-15
4.27436e-15
4.32987e-15
2.72005e-15
1.77636e-15
1.33227e-15
1.83187e-15
0
9.99201e-16
2.77556e-15
3.27516e-15
1.16573e-15
1.72085e-15
2.498e-15
1.4988e-15
3.55271e-15
0
1.55431e-15
1.66533e-15
2.94209e-15
4.55191e-15
8.88178e-16
2.77556e-15
2.9976e-15
3.16414e-15
3.71925e-15
2.05391e-15
3.83027e-15
2.72005e-15
1.44329e-15
0
2.16493e-15
2.72005e-15
2.33147e-15
1.77636e-15
2.27596e-15
6.10623e-16
1.33227e-15
6.60583e-15
3.27516e-15
1.27676e-15
1.88738e-15
3.33067e-15
1.55431e-15
1.44329e-15
1.22125e-15
3.10862e-15
2.55351e-15
2.38698e-15
0
6.10623e-16
8.88178e-16
3.38618e-15
2.498e-15
1.27676e-15
2.498e-15
1.05471e-15
2.27596e-15
3.33067e-15
3.44169e-15
0
3.38618e-15
1.27676e-15
3.27516e-15
2.44249e-15
3.66374e-15
4.55191e-15
2.83107e-15
0
1.33227e-15
3.71925e-15
3.10862e-15
1.16573e-15
2.94209e-15
)
;

boundaryField
{
    leftWall
    {
        type            zeroGradient;
    }
    rightWall
    {
        type            zeroGradient;
    }
    lowerWall
    {
        type            zeroGradient;
    }
    atmosphere
    {
        type            inletOutlet;
        inletValue      uniform 0;
        value           nonuniform List<scalar> 
46
(
3.44169e-15
2.83107e-15
1.16573e-15
3.88578e-15
1.22125e-15
5.10703e-15
5.10703e-15
2.498e-15
1.27676e-15
2.22045e-15
2.9976e-15
4.996e-16
1.94289e-15
2.22045e-16
1.11022e-16
0
5.55112e-17
4.32987e-15
1.88738e-15
2.9976e-15
9.4369e-16
4.4964e-15
3.21965e-15
1.27676e-15
0
0
0
2.498e-15
1.05471e-15
2.27596e-15
3.33067e-15
3.44169e-15
0
3.38618e-15
1.27676e-15
3.27516e-15
2.44249e-15
3.66374e-15
4.55191e-15
2.83107e-15
0
1.33227e-15
3.71925e-15
3.10862e-15
1.16573e-15
2.94209e-15
)
;
    }
    defaultFaces
    {
        type            empty;
    }
}


// ************************************************************************* //
