/*--------------------------------*- C++ -*----------------------------------*\
| =========                 |                                                 |
| \\      /  F ield         | foam-extend: Open Source CFD                    |
|  \\    /   O peration     | Version:     4.1                                |
|   \\  /    A nd           | Web:         http://www.foam-extend.org         |
|    \\/     M anipulation  |                                                 |
\*---------------------------------------------------------------------------*/
FoamFile
{
    version     2.0;
    format      ascii;
    class       volScalarField;
    location    "0.15";
    object      C;
}
// * * * * * * * * * * * * * * * * * * * * * * * * * * * * * * * * * * * * * //

dimensions      [0 0 0 0 0 0 0];

internalField   nonuniform List<scalar> 
2268
(
1
1
1
1
1
1
0.999999
0.999988
0.999959
0.999927
0.999928
0.999954
1.00007
1.00047
1.00154
1.00377
1.00676
1.00829
1.00809
1.00529
0.990152
0.92544
0.656862
1
1
1
1
1
1
0.999999
0.999988
0.999958
0.999923
0.999923
0.999953
1.0001
1.00059
1.00183
1.00415
1.0069
1.00793
1.0073
1.00294
0.982164
0.902717
0.616459
1
1
1
1
1
1
0.999999
0.999989
0.999959
0.999921
0.999921
0.999966
1.00018
1.00088
1.00245
1.00479
1.00683
1.00717
1.00625
1.00171
0.983093
0.90185
0.576017
1
1
1
1
1
1
0.999999
0.99999
0.999961
0.999923
0.999926
1
1.00034
1.00138
1.00339
1.00552
1.00657
1.00614
1.00393
0.99795
0.984295
0.914366
0.566004
1
1
1
1
1
1
0.999999
0.99999
0.999962
0.999926
0.999937
1.00006
1.00058
1.00207
1.0045
1.00602
1.00606
1.00455
0.99948
0.988929
0.978558
0.924756
0.575592
1
1
1
1
1
1
1
0.999991
0.99996
0.999929
0.999953
1.00015
1.00091
1.00297
1.00554
1.00612
1.00527
1.0016
0.991983
0.974287
0.959788
0.919856
0.586226
1
1
1
1
1
1
1
0.99999
0.999952
0.999931
0.999978
1.00031
1.00142
1.00414
1.00623
1.00583
1.0032
0.995951
0.980149
0.955436
0.92387
0.901661
0.597395
1
1
1
1
1
1
1
0.999987
0.999941
0.999933
1.00003
1.00056
1.00218
1.00546
1.00639
1.00464
0.998256
0.984978
0.959861
0.924397
0.867061
0.868764
0.624906
-0.999999
-1
-1
-1
-1
-1
-1
-1
-1
-1
-1
-1
-1
-1
-1
-1
-1
-1
-1
-1
-1
-1
-1
-1
-1
-1
-1
-1
-1
-1
-1
-1
-1
-1
-1
-1
-1
-1
-1.00001
-1
-1
-1
-1
-1
-1
-1
-1
-1
-1
-1
-1
-1
-1
-1
-1
-1
-1
-1.00001
-1.00001
-1
-1
-1
-1
-1
-1
-1
-1
-1
-1
-1
-1
-1
-1
-1
-1
-1
-0.999966
-1.00001
-1
-1
-1
-1
-1
-1
-1
-1
-1
-1
-1
-1
-1
-1
-1
-1
-1
-0.999735
-0.999978
-1.00001
-1
-1
-1
-1
-1
-1
-1
-1
-1
-1
-1
-1
-1
-1
-1
-1
-0.999439
-0.999847
-0.999998
-1
-1
-1
-1
-1
-1
-1
-1
-1
-1
-1
-1
-1
-1
-1
-1
-1.00099
-0.999718
-0.999968
-1
-1
-1
-1
-1
-1
-1
-1
-1
-1
-1
-1
-1
-1
-1
-1
1
1
1
1
1
1
0.999998
0.999978
0.999923
0.99994
1.00017
1.00119
1.00382
1.0071
1.00599
0.999565
0.982731
0.955497
0.909404
0.861108
0.775938
0.775334
0.677722
1
1
1
1
1
1
0.999993
0.999951
0.999903
0.999984
1.00062
1.00282
1.00708
1.00749
1.00171
0.979551
0.930925
0.863375
0.749667
0.65197
0.538011
0.463954
0.581784
0.999998
0.999997
0.999997
0.999994
0.999994
0.999987
0.999962
0.999865
0.999849
1.00015
1.00173
1.00537
1.00874
1.00429
0.979266
0.910585
0.778924
0.593805
0.328861
0.217978
0.147273
-0.00287112
0.318434
0.999966
0.999961
0.999955
0.999936
0.999918
0.999869
0.999756
0.999499
0.999545
1.00045
1.00399
1.00766
1.00751
0.986299
0.907091
0.722016
0.399596
-0.00416807
-0.262145
-0.423975
-0.309145
-0.410398
-0.145733
0.999716
0.999686
0.99964
0.999535
0.9994
0.999124
0.998564
0.997777
0.998043
1.00049
1.00581
1.00342
0.997437
0.926283
0.709751
0.262255
-0.278802
-0.621547
-0.729982
-0.744326
-0.699423
-0.706959
-0.553896
0.998321
0.998185
0.997941
0.997465
0.996787
0.995547
0.993103
0.990977
0.9922
0.999279
1.00425
0.989269
0.962572
0.763897
0.265531
-0.367668
-0.732037
-0.88081
-0.918189
-0.914329
-0.860303
-0.860214
-0.832763
0.992301
0.99179
0.990806
0.989025
0.986366
0.981829
0.973077
0.969105
0.973894
0.994035
0.993724
0.940765
0.861205
0.406084
-0.327107
-0.756934
-0.923025
-0.970232
-0.981763
-0.982458
-0.950002
-0.949158
-0.94799
0.971311
0.969708
0.966489
0.960974
0.952589
0.938548
0.912811
0.908437
0.926413
0.975377
0.966051
0.823625
0.627471
-0.12297
-0.70376
-0.902211
-0.970319
-0.993165
-0.998416
-0.999316
-0.978538
-0.981174
-0.986835
0.910177
0.905825
0.897171
0.882376
0.860301
0.823213
0.758526
0.761031
0.818321
0.92644
0.90434
0.597013
0.235582
-0.515376
-0.853542
-0.950833
-0.982828
-0.997274
-1.00078
-1.00067
-0.991121
-0.991638
-0.996554
0.755473
0.745051
0.724749
0.689734
0.640137
0.5542
0.412052
0.433546
0.596381
0.822092
0.786063
0.214336
-0.13668
-0.720662
-0.927683
-0.981894
-0.994991
-1.00023
-1.00071
-1.00006
-0.994924
-0.995755
-0.999875
0.403063
0.38022
0.338352
0.265513
0.172485
0.0163641
-0.19349
-0.163772
0.207508
0.623533
0.577688
-0.23737
-0.395491
-0.843549
-0.977282
-0.999745
-1.00102
-1.0004
-1.00002
-0.999734
-0.997255
-0.998184
-1.00028
-0.225599
-0.253553
-0.299275
-0.3713
-0.448539
-0.560191
-0.67745
-0.637325
-0.13875
0.274983
0.266528
-0.569113
-0.620114
-0.935003
-0.99839
-1.00237
-1.00115
-1.00011
-0.99992
-0.99985
-0.999324
-0.999616
-1.00027
-0.71628
-0.730004
-0.751047
-0.781977
-0.812842
-0.856183
-0.898769
-0.877078
-0.638205
-0.371682
-0.331309
-0.804235
-0.870037
-0.984442
-1.00276
-1.0026
-1.00124
-1.0002
-0.999977
-0.999979
-0.99994
-0.999957
-1.00003
-0.919892
-0.924604
-0.931692
-0.941586
-0.95145
-0.964851
-0.978272
-0.97211
-0.888946
-0.776181
-0.725402
-0.908105
-0.965559
-0.99817
-1.00305
-1.00163
-1.00068
-1.00012
-0.999987
-0.999991
-0.999998
-0.999984
-0.999907
-0.984859
-0.98613
-0.988124
-0.990693
-0.99331
-0.9965
-0.999862
-0.998827
-0.97408
-0.932204
-0.903456
-0.956203
-0.987909
-1.00114
-1.00277
-1.00091
-1.00019
-1.00001
-0.999982
-0.999995
-0.999999
-0.999991
-0.999938
-1.00135
-1.00152
-1.00185
-1.00225
-1.00256
-1.00308
-1.00385
-1.00415
-0.999016
-0.985579
-0.972791
-0.9849
-0.997786
-1.00242
-1.00194
-1.00054
-1.00005
-0.999989
-0.99999
-0.999998
-0.999999
-0.999994
-0.999959
-1.00381
-1.00372
-1.00363
-1.00361
-1.0036
-1.00374
-1.00414
-1.00465
-1.004
-1.00129
-0.99665
-0.997895
-1.00168
-1.00268
-1.00108
-1.00023
-1
-0.999984
-0.999995
-1
-1
-1
-0.999977
-1.00298
-1.00277
-1.00249
-1.00235
-1.00195
-1.00201
-1.0024
-1.00296
-1.0039
-1.00337
-1.00204
-1.00184
-1.00263
-1.00223
-1.00071
-1.00012
-0.999994
-0.999985
-0.999996
-1
-1
-1
-0.999981
-1.00077
-1.00067
-1.00055
-1.00056
-1.00038
-1.00059
-1.00086
-1.00101
-1.00179
-1.00225
-1.00232
-1.00229
-1.00213
-1.00133
-1.00055
-1.00014
-1.00001
-0.999991
-0.999997
-1
-1
-1
-0.999975
-1.0001
-1.00007
-1.00004
-1.00004
-1.00001
-1.00008
-1.00019
-1.00021
-1.0005
-1.00069
-1.00073
-1.00069
-1.00073
-1.00049
-1.00024
-1.00007
-0.999999
-0.999992
-0.999998
-1
-1
-1
-0.999989
-0.999973
-0.999969
-0.999965
-0.999962
-0.999957
-0.999964
-0.999982
-0.999986
-1.00005
-1.00011
-1.00014
-1.00014
-1.00017
-1.00012
-1.00005
-1
-0.999993
-0.999995
-0.999999
-1
-1
-1
-0.999992
-0.999964
-0.999964
-0.999964
-0.999963
-0.99996
-0.999953
-0.999955
-0.999958
-0.999974
-0.999991
-1.00001
-1.00002
-1.00002
-1.00002
-1
-0.999995
-0.999995
-0.999998
-1
-1
-1
-1
-0.999994
-0.99999
-0.999991
-0.999991
-0.999991
-0.999989
-0.999983
-0.999975
-0.99997
-0.999971
-0.999981
-0.99999
-0.999997
-0.999998
-0.999998
-0.999996
-0.999997
-0.999998
-1
-1
-1
-1
-1
-0.999999
-0.999999
-0.999999
-0.999999
-0.999999
-0.999999
-0.999998
-0.999995
-0.999993
-0.999992
-0.999994
-0.999995
-0.999996
-0.999997
-0.999998
-0.999999
-0.999999
-1
-1
-1
-1
-1
-1
-1
-1
-1
-1
-1
-1
-1
-1
-0.999999
-0.999999
-0.999999
-1
-1
-1
-1
-1
-1
-1
-1
-1
-1
-1
-1
-1
-1
-1
-1
-1
-1
-1
-1
-1
-1
-1
-1
-1
-1
-1
-1
-1
-1
-1
-1
-1
-1
-1
-1
-1
-1
-1
-1
-1
-1
-1
-1
-1
-1
-1
-1
-1
-1
-1
-1
-1
-1
-1
-1
-1
-1
-1
-1
-1
-1
-1
-1
-1
-1
-1
-1
-1
-1
-1
-1
-1
-1
-1
-1
-1
-1
-1
-1
-1
-1
-1
-1
-1
-1
-1
-1
-1
-1
-1
-1
-1
-1
-1
-1
-1
-1
-1
-1
-1
-1
-1
-1
-1
-1
-1
-1
-1
-1
-1
-1
-1
-1
-1
-1
-1
-1
-1
-1
-1
-1
-1
-1
-1
-1
-1
-1
-1
-1
-1
-1
-1
-1
-1
-1
-1
-1
-1
-1
-1
-1
-1
-1
-1
-1
-1
-1
-1
-1
-1
-1
-1
-1
-1
-1
-1
-1
-1
-1
-1
-1
-1
-1
-1
-1
-1
-1
-1
-1
-1
-1
-1
-1
-1
-1
-1
-1
-1
-1
-1
-1
-1
-1
-1
-1
-1
-1
-1
-1
-1
-1
-1
-1
-1
-1
-1
-1
-1
-1
-1
-1
-1
-1
-1
-1
-1
-1
-1
-1
-1
-1
-1
-1
-1
-1
-1
-1
-1
-1
-1
-1
-1
-1
-1
-1
-1
-1
-1
-1
-1
-1
-1
-1
-1
-1
-1
-1
-1
-1
-1
-1
-1
-1
-1
-1
-1
-1
-1
-1
-1
-1
-1
-1
-1
-1
-1
-1
-1
-1
-1
-1
-1
-1
-1
-1
-1
-1
-1
-1
-1
-1
-1
-1
-1
-1
-1
-1
-1
-1
-1
-1
-1
-1
-1
-1
-1
-1
-1
-1
-1
-1
-1
-1
-1
-1
-1
-1
-1
-1
-1
-1
-1
-1
-1
-1
-1
-1
-1
-1
-1
-1
-1
-1
-1
-1
-1
-1
-1
-1
-1
-1
-1
-1
-1
-1
-1
-1
-1
-1
-1
-1
-1
-1
-1
-1
-1
-1
-1
-1
-1
-1
-1
-1
-1
-1
-1
-1
-1
-1
-1
-1
-1
-1
-1
-1
-1
-1
-1
-1
-1
-1
-1
-1
-1
-1
-1
-1
-1
-1
-1
-1
-1
-1
-1
-1
-1
-1
-1
-1
-1
-1
-1
-1
-1
-1
-1
-1
-1
-1
-1
-1
-1
-1
-1
-1
-1
-1
-1
-1
-1
-1
-1
-1
0.515852
0.0179599
-0.746596
-1.03108
0.483118
0.210373
-0.378988
-0.838937
0.378776
0.241311
-0.0987169
-0.561026
0.127161
0.132075
-0.0372603
-0.413919
-0.2791
-0.0905852
-0.144124
-0.365699
-0.681767
-0.446592
-0.32873
-0.424048
-0.887447
-0.742797
-0.541415
-0.517849
-0.969456
-0.900012
-0.748054
-0.616826
-0.993339
-0.967001
-0.879734
-0.7417
-1.00043
-0.991123
-0.946109
-0.840447
-1.0017
-1.00006
-0.981645
-0.913355
-1.00189
-1.00239
-0.992751
-0.94966
-1.00069
-1.00204
-1.00054
-0.981828
-1.00001
-1.00092
-1.00276
-0.995159
-0.999857
-1.00033
-1.00204
-0.997897
-0.99985
-1.00014
-1.00127
-0.997918
-0.999846
-0.999935
-1.00053
-0.997768
-0.99982
-0.999629
-0.999796
-0.998222
-0.999746
-0.999343
-0.99886
-0.997933
-0.999747
-0.999142
-0.998144
-0.996897
-0.999851
-0.999375
-0.998324
-0.996697
-0.999928
-0.999687
-0.999016
-0.997595
-0.99998
-0.999885
-0.999584
-0.998814
-0.999998
-0.999975
-0.999878
-0.999579
-1
-0.999998
-0.99998
-0.999902
-1
-1
-0.999999
-0.999987
-1
-1
-1
-1
-1
-1
-1
-1
-1
-1
-1
-1
-1
-1
-1
-1
-1
-1
-1
-1
-1
-1
-1
-1
-1
-1
-1
-1
-1
-1
-1
-1
-1
-1
-1
-1
-1
-1
-1
-1
-1
-1
-1
-1
-1
-1
-1
-1
-1
-1
-1
-1
-1
-1
-1
-1
-1
-1
-1
-1
-1
-1
-1
-1
-1.01438
-1.00025
-0.999921
-0.999996
-1
-1
-1
-1
-1
-1
-1
-1
-1
-1
-1
-1
-1
-1
-1
-1.00814
-1.0014
-1.00003
-0.999993
-1
-1
-1
-1
-1
-1
-1
-1
-1
-1
-1
-1
-1
-1
-1
-0.93392
-0.995728
-0.999986
-1.00001
-1
-1
-1
-1
-1
-1
-1
-1
-1
-1
-1
-1
-1
-1
-1
-0.868211
-0.986035
-0.999114
-0.99999
-1
-1
-1
-1
-1
-1
-1
-1
-1
-1
-1
-1
-1
-1
-1
-0.827116
-0.983472
-0.998898
-0.999985
-1
-1
-1
-1
-1
-1
-1
-1
-1
-1
-1
-1
-1
-1
-1
-0.830028
-0.996453
-1.00074
-1.00005
-0.999998
-1
-1
-1
-1
-1
-1
-1
-1
-1
-1
-1
-1
-1
-1
-0.772267
-0.977425
-1.00054
-1.00012
-0.999997
-1
-1
-1
-1
-1
-1
-1
-1
-1
-1
-1
-1
-1
-1
-0.726471
-0.936413
-0.995627
-1.00015
-0.999999
-0.999997
-1
-1
-1
-1
-1
-1
-1
-1
-1
-1
-1
-1
-1
-0.751127
-0.896948
-0.985251
-0.999836
-0.999975
-0.999974
-0.999996
-1
-1
-1
-1
-1
-1
-1
-1
-1
-1
-1
-1
-0.785156
-0.886236
-0.977188
-0.998903
-0.99987
-0.999921
-0.999981
-0.999996
-1
-1
-1
-1
-1
-1
-1
-1
-1
-1
-1
-0.820536
-0.89923
-0.980051
-0.998718
-0.999622
-0.999755
-0.9999
-0.999973
-0.999994
-1
-1
-1
-1
-1
-1
-1
-1
-1
-1
-0.847951
-0.912744
-0.984707
-0.999023
-0.999147
-0.99922
-0.999694
-0.999897
-0.999972
-0.999998
-1
-1
-1
-1
-1
-1
-1
-1
-1
-0.880787
-0.922616
-0.986863
-0.99884
-0.998103
-0.997443
-0.998986
-0.999699
-0.999908
-0.99999
-1
-1
-1
-1
-1
-1
-1
-1
-1
-0.909516
-0.933279
-0.988999
-0.998462
-0.996591
-0.994737
-0.997284
-0.999152
-0.999743
-0.999966
-0.999999
-1
-1
-1
-1
-1
-1
-1
-1
-0.935081
-0.942392
-0.989
-0.998235
-0.995954
-0.993331
-0.994966
-0.997999
-0.999349
-0.999903
-0.999994
-1
-1
-1
-1
-1
-1
-1
-1
-0.950174
-0.948689
-0.986922
-0.99784
-0.995633
-0.992669
-0.99217
-0.995379
-0.998651
-0.999795
-0.999984
-1
-1
-1
-1
-1
-1
-1
-1
-0.961087
-0.954099
-0.9752
-0.99492
-0.994833
-0.992354
-0.991033
-0.993482
-0.997913
-0.999641
-0.999964
-0.999998
-1
-1
-1
-1
-1
-1
-1
-0.975249
-0.959436
-0.969294
-0.987173
-0.992323
-0.990949
-0.989813
-0.992263
-0.997283
-0.999461
-0.999933
-0.999995
-1
-1
-1
-1
-1
-1
-1
-0.988731
-0.968585
-0.971189
-0.979335
-0.987073
-0.987757
-0.988346
-0.991949
-0.997116
-0.999368
-0.999914
-0.999993
-1
-1
-1
-1
-1
-1
-1
-0.993251
-0.979432
-0.974885
-0.979374
-0.984445
-0.986162
-0.988393
-0.993288
-0.997967
-0.999621
-0.999955
-0.999997
-1
-1
-1
-1
-1
-1
-1
-0.993643
-0.983873
-0.978389
-0.980623
-0.984086
-0.986745
-0.99167
-0.997872
-0.999678
-0.999958
-0.999997
-1
-1
-1
-1
-1
-1
-1
-1
-0.993827
-0.985646
-0.981205
-0.982353
-0.98491
-0.989449
-0.996201
-0.999361
-0.999939
-0.999998
-1
-1
-1
-1
-1
-1
-1
-1
-1
-0.995995
-0.98843
-0.984477
-0.985213
-0.988007
-0.994252
-0.998692
-0.999831
-0.999988
-1
-1
-1
-1
-1
-1
-1
-1
-1
-1
-0.998361
-0.993276
-0.989682
-0.990406
-0.993605
-0.998037
-0.999674
-0.999969
-0.999999
-1
-1
-1
-1
-1
-1
-1
-1
-1
-1
-0.999522
-0.997549
-0.995675
-0.996152
-0.997931
-0.999537
-0.999942
-0.999996
-1
-1
-1
-1
-1
-1
-1
-1
-1
-1
-1
-0.999914
-0.999453
-0.998844
-0.998993
-0.999553
-0.999923
-0.999993
-1
-1
-1
-1
-1
-1
-1
-1
-1
-1
-1
-1
-0.999992
-0.999928
-0.999805
-0.999827
-0.999935
-0.99999
-0.999999
-1
-1
-1
-1
-1
-1
-1
-1
-1
-1
-1
-1
-1
-0.999994
-0.999981
-0.999982
-0.999995
-0.999999
-1
-1
-1
-1
-1
-1
-1
-1
-1
-1
-1
-1
-1
-1
-1
-0.999999
-0.999999
-1
-1
-1
-1
-1
-1
-1
-1
-1
-1
-1
-1
-1
-1
-1
-1
-1
-1
-1
-1
-1
-1
-1
-1
-1
-1
-1
-1
-1
-1
-1
-1
-1
-1
-1
-1
-1
-1
-1
-1
-1
-1
-1
-1
-1
-1
-1
-1
-1
-1
-1
-1
-1
-1
-1
-1
-1
-1
-1
-1
-1
-1
-1
-1
-1
-1
-1
-1
-1
-1
-1
-1
-1
-1
-1
-1
-1
-1
-1
-1
-1
-1
-1
-1
-1
-1
-1
-1
-1
-1
-1
-1
-1
-1
-1
-1
-1
-1
-1
-1
-1
-1
-1
-1
-1
-1
-1
-1
-1
-1
-1
-1
-1
-1
-1
-1
-1
-1
-1
-1
-1
-1
-1
-1
-1
-1
-1
-1
-1
-1
-1
-1
-1
-1
-1
-1
-1
-1
-1
-1
-1
-1
-1
-1
-1
-1
-1
-1
-1
-1
-1
-1
-1
-1
-1
-1
-1
-1
-1
-1
-1
-1
-1
-1
-1
-1
-1
-1
-1
-1
-1
-1
-1
-1
-1
-1
-1
-1
-1
-1
-1
-1
-1
-1
-1
-1
-1
-1
-1
-1
-1
-1
-1
-1
-1
-1
-1
-1
-1
-1
-1
-1
-1
-1
-1
-1
-1
-1
-1
-1
-1
-1
-1
-1
-1
-1
-1
-1
-1
-1
-1
-1
-1
-1
-1
-1
-1
-1
-1
-1
-1
-1
-1
-1
-1
-1
-1
-1
-1
-1
-1
-1
-1
-1
-1
-1
-1
-1
-1
-1
-1
-1
-1
-1
-1
-1
-1
-1
-1
-1
-1
-1
)
;

boundaryField
{
    leftWall
    {
        type            zeroGradient;
    }
    rightWall
    {
        type            zeroGradient;
    }
    lowerWall
    {
        type            zeroGradient;
    }
    atmosphere
    {
        type            zeroGradient;
    }
    defaultFaces
    {
        type            empty;
    }
}


// ************************************************************************* //
