/*--------------------------------*- C++ -*----------------------------------*\
| =========                 |                                                 |
| \\      /  F ield         | foam-extend: Open Source CFD                    |
|  \\    /   O peration     | Version:     4.1                                |
|   \\  /    A nd           | Web:         http://www.foam-extend.org         |
|    \\/     M anipulation  |                                                 |
\*---------------------------------------------------------------------------*/
FoamFile
{
    version     2.0;
    format      ascii;
    class       volScalarField;
    location    "0.15";
    object      C_0;
}
// * * * * * * * * * * * * * * * * * * * * * * * * * * * * * * * * * * * * * //

dimensions      [0 0 0 0 0 0 0];

internalField   nonuniform List<scalar> 
2268
(
1
1
1
1
1
1
0.999999
0.999988
0.999957
0.999926
0.999928
0.999958
1.00009
1.00052
1.00166
1.00399
1.00697
1.00836
1.00808
1.00498
0.988698
0.92141
0.646942
1
1
1
1
1
1
0.999999
0.999988
0.999957
0.999922
0.999923
0.999957
1.00012
1.00064
1.00196
1.00436
1.00706
1.00795
1.00723
1.00241
0.980022
0.897329
0.605024
1
1
1
1
1
1
0.999999
0.999988
0.999957
0.99992
0.999921
0.99997
1.0002
1.00095
1.0026
1.00498
1.00694
1.00717
1.00612
1.00118
0.981297
0.896973
0.563845
1
1
1
1
1
1
0.999999
0.999989
0.999959
0.999922
0.999926
1.00001
1.00037
1.00147
1.00356
1.00566
1.0066
1.00607
1.00361
0.997218
0.982769
0.910451
0.554198
1
1
1
1
1
1
0.999999
0.99999
0.99996
0.999925
0.999938
1.00007
1.00062
1.00219
1.00467
1.0061
1.00603
1.0043
0.998786
0.987564
0.97665
0.921149
0.56377
1
1
1
1
1
1
1
0.999991
0.999959
0.999928
0.999954
1.00017
1.00098
1.00312
1.00568
1.00614
1.00513
1.00106
0.990645
0.971839
0.956507
0.915564
0.574233
1
1
1
1
1
1
1
0.999989
0.999951
0.999931
0.999981
1.00033
1.0015
1.00431
1.00632
1.00577
1.00283
0.994927
0.977879
0.95162
0.917952
0.896107
0.585486
1
1
1
1
1
1
1
0.999986
0.999939
0.999933
1.00003
1.00059
1.00229
1.00562
1.00642
1.00445
0.9975
0.983187
0.95618
0.918433
0.857062
0.861099
0.613046
-0.999999
-1
-1
-1
-1
-1
-1
-1
-1
-1
-1
-1
-1
-1
-1
-1
-1
-1
-1
-1
-1
-1
-1
-1
-1
-1
-1
-1
-1
-1
-1
-1
-1
-1
-1
-1
-1
-1
-1.00001
-1
-1
-1
-1
-1
-1
-1
-1
-1
-1
-1
-1
-1
-1
-1
-1
-1
-1
-1.00001
-1.00001
-1
-1
-1
-1
-1
-1
-1
-1
-1
-1
-1
-1
-1
-1
-1
-1
-1
-0.999974
-1.00001
-1
-1
-1
-1
-1
-1
-1
-1
-1
-1
-1
-1
-1
-1
-1
-1
-1
-0.999765
-0.999984
-1.00001
-1
-1
-1
-1
-1
-1
-1
-1
-1
-1
-1
-1
-1
-1
-1
-1
-0.999464
-0.999865
-0.999999
-1
-1
-1
-1
-1
-1
-1
-1
-1
-1
-1
-1
-1
-1
-1
-1
-1.00075
-0.999732
-0.999972
-1
-1
-1
-1
-1
-1
-1
-1
-1
-1
-1
-1
-1
-1
-1
-1
1
1
1
1
1
1
0.999998
0.999978
0.999921
0.999941
1.00018
1.00125
1.00399
1.0072
1.00592
0.998972
0.980964
0.95182
0.902383
0.850893
0.760314
0.761521
0.661119
1
1
1
1
1
1
0.999993
0.999951
0.999903
0.999987
1.00065
1.00292
1.00728
1.00755
1.00133
0.977828
0.926386
0.854273
0.73317
0.628043
0.509146
0.434575
0.557748
0.999998
0.999998
0.999997
0.999995
0.999995
0.999989
0.999965
0.999871
0.999857
1.00016
1.00177
1.00553
1.00889
1.00419
0.978009
0.906137
0.76755
0.569232
0.293437
0.179287
0.106866
-0.0421769
0.291358
0.99997
0.999966
0.999961
0.999945
0.999928
0.999885
0.999782
0.999543
0.999593
1.00051
1.00408
1.00788
1.00767
0.985822
0.903996
0.711681
0.37584
-0.0397479
-0.295712
-0.455692
-0.341278
-0.439035
-0.165627
0.999748
0.999721
0.99968
0.999586
0.999466
0.999217
0.998711
0.997995
0.998265
1.00066
1.00602
1.00379
0.997677
0.925154
0.703105
0.243296
-0.303337
-0.639287
-0.743487
-0.760107
-0.713914
-0.723139
-0.563692
0.998485
0.998362
0.99814
0.997707
0.997091
0.995961
0.993733
0.991798
0.99299
0.999785
1.00485
0.990372
0.963269
0.761818
0.255303
-0.382337
-0.742466
-0.887013
-0.922889
-0.919913
-0.867428
-0.869396
-0.837716
0.992955
0.992484
0.991575
0.989935
0.987484
0.983299
0.97523
0.971582
0.976191
0.9954
0.995365
0.944068
0.863565
0.404118
-0.334593
-0.763893
-0.927458
-0.972741
-0.983279
-0.983801
-0.952416
-0.953203
-0.950411
0.973417
0.971924
0.968916
0.963769
0.955951
0.94284
0.918862
0.914798
0.932044
0.978729
0.969915
0.832019
0.633138
-0.12427
-0.707088
-0.905384
-0.972734
-0.994414
-0.998942
-0.999512
-0.979533
-0.983017
-0.987482
0.915882
0.911794
0.903608
0.889664
0.868874
0.833851
0.773023
0.77531
0.830475
0.933634
0.912591
0.615857
0.244014
-0.516347
-0.854025
-0.951292
-0.983814
-0.99786
-1.00096
-1.00069
-0.99129
-0.992432
-0.996802
0.769114
0.75925
0.739885
0.706629
0.659471
0.577414
0.442576
0.462521
0.620459
0.83584
0.801928
0.251856
-0.126349
-0.719028
-0.925378
-0.980805
-0.994735
-1.00029
-1.0007
-1.00003
-0.994982
-0.996187
-1.00019
0.432901
0.411073
0.370689
0.300305
0.209937
0.0566615
-0.153949
-0.125848
0.245728
0.648036
0.606634
-0.191767
-0.378648
-0.837539
-0.974826
-0.999375
-1.00104
-1.00042
-1.00001
-0.999746
-0.997421
-0.998435
-1.00043
-0.186846
-0.215407
-0.262387
-0.336521
-0.4163
-0.532223
-0.654924
-0.615381
-0.0979349
0.313743
0.307577
-0.533764
-0.596365
-0.929216
-0.99778
-1.0023
-1.0012
-1.00011
-0.99992
-0.99987
-0.999393
-0.999683
-1.0003
-0.696577
-0.711223
-0.733611
-0.766356
-0.798985
-0.844854
-0.889739
-0.867539
-0.611551
-0.335044
-0.289523
-0.786187
-0.857945
-0.982595
-1.00267
-1.00264
-1.00129
-1.00021
-0.999975
-0.99998
-0.999947
-0.999962
-1.00002
-0.913307
-0.918416
-0.926049
-0.936591
-0.947047
-0.96133
-0.975389
-0.968991
-0.879459
-0.761738
-0.706727
-0.899367
-0.961683
-0.997601
-1.00306
-1.00171
-1.00072
-1.00013
-0.999987
-0.99999
-0.999998
-0.999984
-0.999908
-0.983121
-0.984515
-0.986694
-0.989456
-0.992266
-0.995703
-0.999218
-0.998136
-0.971693
-0.928107
-0.897478
-0.9523
-0.986501
-1.001
-1.00281
-1.00096
-1.00021
-1.00001
-0.999982
-0.999995
-0.999999
-0.999991
-0.999937
-1.00107
-1.00127
-1.00164
-1.00209
-1.00247
-1.00301
-1.00381
-1.00408
-0.998505
-0.984552
-0.971187
-0.983615
-0.997359
-1.00242
-1.00201
-1.00057
-1.00006
-0.99999
-0.99999
-0.999998
-0.999999
-0.999994
-0.999956
-1.00384
-1.00375
-1.00367
-1.00365
-1.00363
-1.00379
-1.00421
-1.00471
-1.00398
-1.00115
-0.996309
-0.997579
-1.00161
-1.00271
-1.0011
-1.00023
-1
-0.999984
-0.999995
-1
-1
-1
-0.999976
-1.00313
-1.00292
-1.00264
-1.00249
-1.00209
-1.00214
-1.00253
-1.0031
-1.00401
-1.0034
-1.00203
-1.00181
-1.00266
-1.00228
-1.00073
-1.00012
-0.999994
-0.999985
-0.999996
-1
-1
-1
-0.99998
-1.00084
-1.00073
-1.0006
-1.00061
-1.00042
-1.00063
-1.00091
-1.00108
-1.00188
-1.00234
-1.00238
-1.00234
-1.0022
-1.00138
-1.00057
-1.00015
-1.00001
-0.99999
-0.999997
-1
-1
-1
-0.999972
-1.00011
-1.00008
-1.00005
-1.00005
-1.00002
-1.00009
-1.00021
-1.00023
-1.00053
-1.00073
-1.00077
-1.00072
-1.00076
-1.00052
-1.00026
-1.00007
-0.999999
-0.999992
-0.999998
-1
-1
-1
-0.999988
-0.999974
-0.99997
-0.999965
-0.999962
-0.999957
-0.999965
-0.999984
-0.999989
-1.00006
-1.00012
-1.00014
-1.00014
-1.00019
-1.00013
-1.00006
-1.00001
-0.999993
-0.999995
-0.999999
-1
-1
-1
-0.999991
-0.999963
-0.999963
-0.999963
-0.999962
-0.999959
-0.999952
-0.999955
-0.999957
-0.999974
-0.999991
-1.00001
-1.00002
-1.00003
-1.00002
-1
-0.999995
-0.999994
-0.999998
-1
-1
-1
-1
-0.999995
-0.999989
-0.99999
-0.999991
-0.99999
-0.999989
-0.999983
-0.999974
-0.999969
-0.99997
-0.99998
-0.99999
-0.999997
-0.999998
-0.999998
-0.999996
-0.999996
-0.999998
-1
-1
-1
-1
-1
-1
-0.999999
-0.999999
-0.999999
-0.999999
-0.999999
-0.999997
-0.999995
-0.999992
-0.999991
-0.999993
-0.999995
-0.999996
-0.999997
-0.999998
-0.999999
-0.999999
-1
-1
-1
-1
-1
-1
-1
-1
-1
-1
-1
-1
-1
-1
-0.999999
-0.999999
-0.999999
-1
-1
-1
-1
-1
-1
-1
-1
-1
-1
-1
-1
-1
-1
-1
-1
-1
-1
-1
-1
-1
-1
-1
-1
-1
-1
-1
-1
-1
-1
-1
-1
-1
-1
-1
-1
-1
-1
-1
-1
-1
-1
-1
-1
-1
-1
-1
-1
-1
-1
-1
-1
-1
-1
-1
-1
-1
-1
-1
-1
-1
-1
-1
-1
-1
-1
-1
-1
-1
-1
-1
-1
-1
-1
-1
-1
-1
-1
-1
-1
-1
-1
-1
-1
-1
-1
-1
-1
-1
-1
-1
-1
-1
-1
-1
-1
-1
-1
-1
-1
-1
-1
-1
-1
-1
-1
-1
-1
-1
-1
-1
-1
-1
-1
-1
-1
-1
-1
-1
-1
-1
-1
-1
-1
-1
-1
-1
-1
-1
-1
-1
-1
-1
-1
-1
-1
-1
-1
-1
-1
-1
-1
-1
-1
-1
-1
-1
-1
-1
-1
-1
-1
-1
-1
-1
-1
-1
-1
-1
-1
-1
-1
-1
-1
-1
-1
-1
-1
-1
-1
-1
-1
-1
-1
-1
-1
-1
-1
-1
-1
-1
-1
-1
-1
-1
-1
-1
-1
-1
-1
-1
-1
-1
-1
-1
-1
-1
-1
-1
-1
-1
-1
-1
-1
-1
-1
-1
-1
-1
-1
-1
-1
-1
-1
-1
-1
-1
-1
-1
-1
-1
-1
-1
-1
-1
-1
-1
-1
-1
-1
-1
-1
-1
-1
-1
-1
-1
-1
-1
-1
-1
-1
-1
-1
-1
-1
-1
-1
-1
-1
-1
-1
-1
-1
-1
-1
-1
-1
-1
-1
-1
-1
-1
-1
-1
-1
-1
-1
-1
-1
-1
-1
-1
-1
-1
-1
-1
-1
-1
-1
-1
-1
-1
-1
-1
-1
-1
-1
-1
-1
-1
-1
-1
-1
-1
-1
-1
-1
-1
-1
-1
-1
-1
-1
-1
-1
-1
-1
-1
-1
-1
-1
-1
-1
-1
-1
-1
-1
-1
-1
-1
-1
-1
-1
-1
-1
-1
-1
-1
-1
-1
-1
-1
-1
-1
-1
-1
-1
-1
-1
-1
-1
-1
-1
-1
-1
-1
-1
-1
-1
-1
-1
-1
-1
-1
-1
-1
-1
-1
-1
-1
-1
-1
-1
-1
-1
-1
-1
-1
-1
-1
-1
-1
-1
-1
-1
-1
-1
-1
-1
-1
-1
-1
-1
-1
-1
-1
-1
-1
-1
-1
-1
-1
-1
-1
-1
-1
-1
-1
-1
-1
-1
-1
-1
0.485342
-0.0316882
-0.772903
-1.03412
0.454619
0.170258
-0.419441
-0.85698
0.348046
0.199123
-0.156006
-0.610319
0.102732
0.0928838
-0.101859
-0.491427
-0.289863
-0.123341
-0.198386
-0.432757
-0.679587
-0.451346
-0.366946
-0.461843
-0.882712
-0.73319
-0.547117
-0.539067
-0.967098
-0.892205
-0.739544
-0.629166
-0.992298
-0.962421
-0.872307
-0.7423
-1.00001
-0.988777
-0.939933
-0.835188
-1.00143
-0.998972
-0.978168
-0.907208
-1.00188
-1.00225
-0.992254
-0.947657
-1.00068
-1.00194
-1.00012
-0.980904
-1.00002
-1.00089
-1.00254
-0.99488
-0.999852
-1.0003
-1.00191
-0.997841
-0.999837
-1.00009
-1.00116
-0.997917
-0.999832
-0.999872
-1.00041
-0.99788
-0.999809
-0.999577
-0.99964
-0.998273
-0.999723
-0.999275
-0.998683
-0.997759
-0.99974
-0.999116
-0.998022
-0.996658
-0.999856
-0.999398
-0.998356
-0.996654
-0.999938
-0.999722
-0.999106
-0.997749
-0.999986
-0.999912
-0.999664
-0.999008
-1
-0.999985
-0.999917
-0.999695
-1
-1
-0.999989
-0.999942
-1
-1
-1
-0.999994
-1
-1
-1
-1
-1
-1
-1
-1
-1
-1
-1
-1
-1
-1
-1
-1
-1
-1
-1
-1
-1
-1
-1
-1
-1
-1
-1
-1
-1
-1
-1
-1
-1
-1
-1
-1
-1
-1
-1
-1
-1
-1
-1
-1
-1
-1
-1
-1
-1
-1
-1
-1
-1
-1
-1
-1
-1
-1
-1
-1
-1
-1
-1
-1
-1.0129
-1.00017
-0.999927
-0.999997
-1
-1
-1
-1
-1
-1
-1
-1
-1
-1
-1
-1
-1
-1
-1
-1.00805
-1.00124
-1.00001
-0.999994
-1
-1
-1
-1
-1
-1
-1
-1
-1
-1
-1
-1
-1
-1
-1
-0.946872
-0.996764
-1.00003
-1.00001
-1
-1
-1
-1
-1
-1
-1
-1
-1
-1
-1
-1
-1
-1
-1
-0.897424
-0.990401
-0.999557
-1
-1
-1
-1
-1
-1
-1
-1
-1
-1
-1
-1
-1
-1
-1
-1
-0.86207
-0.989115
-0.999515
-1
-1
-1
-1
-1
-1
-1
-1
-1
-1
-1
-1
-1
-1
-1
-1
-0.855228
-0.997954
-1.00073
-1.00004
-0.999998
-1
-1
-1
-1
-1
-1
-1
-1
-1
-1
-1
-1
-1
-1
-0.794083
-0.979901
-1.00049
-1.0001
-0.999996
-1
-1
-1
-1
-1
-1
-1
-1
-1
-1
-1
-1
-1
-1
-0.742345
-0.940881
-0.996155
-1.00012
-0.999994
-0.999997
-1
-1
-1
-1
-1
-1
-1
-1
-1
-1
-1
-1
-1
-0.761135
-0.908282
-0.987671
-0.999904
-0.99996
-0.999971
-0.999995
-1
-1
-1
-1
-1
-1
-1
-1
-1
-1
-1
-1
-0.792502
-0.896274
-0.980326
-0.999138
-0.999836
-0.999909
-0.999977
-0.999995
-1
-1
-1
-1
-1
-1
-1
-1
-1
-1
-1
-0.827172
-0.9078
-0.982939
-0.998985
-0.999536
-0.999714
-0.999882
-0.99997
-0.999994
-1
-1
-1
-1
-1
-1
-1
-1
-1
-1
-0.853062
-0.919401
-0.987005
-0.999078
-0.998966
-0.999096
-0.999643
-0.999884
-0.999971
-0.999998
-1
-1
-1
-1
-1
-1
-1
-1
-1
-0.885074
-0.928177
-0.988931
-0.998776
-0.997754
-0.997088
-0.998811
-0.999664
-0.999903
-0.99999
-1
-1
-1
-1
-1
-1
-1
-1
-1
-0.912524
-0.937869
-0.990524
-0.998395
-0.996248
-0.994339
-0.996906
-0.999059
-0.999731
-0.999966
-0.999999
-1
-1
-1
-1
-1
-1
-1
-1
-0.936869
-0.945561
-0.990037
-0.998174
-0.995714
-0.993048
-0.994583
-0.997878
-0.999344
-0.999908
-0.999995
-1
-1
-1
-1
-1
-1
-1
-1
-0.951255
-0.951025
-0.986768
-0.997556
-0.995358
-0.992434
-0.992
-0.995312
-0.998699
-0.999809
-0.999985
-1
-1
-1
-1
-1
-1
-1
-1
-0.962813
-0.956159
-0.973993
-0.993703
-0.994321
-0.991935
-0.990841
-0.99364
-0.998093
-0.999679
-0.999968
-0.999998
-1
-1
-1
-1
-1
-1
-1
-0.977986
-0.961792
-0.970344
-0.985796
-0.991314
-0.990159
-0.989554
-0.99273
-0.997685
-0.999561
-0.999948
-0.999996
-1
-1
-1
-1
-1
-1
-1
-0.989942
-0.971403
-0.972649
-0.979575
-0.986257
-0.987128
-0.988453
-0.992839
-0.997702
-0.99953
-0.999941
-0.999996
-1
-1
-1
-1
-1
-1
-1
-0.993315
-0.98087
-0.97625
-0.980253
-0.984418
-0.986307
-0.989003
-0.99447
-0.998475
-0.999737
-0.999971
-0.999998
-1
-1
-1
-1
-1
-1
-1
-0.99341
-0.984146
-0.979516
-0.981486
-0.984437
-0.987391
-0.993157
-0.998507
-0.999791
-0.999976
-0.999999
-1
-1
-1
-1
-1
-1
-1
-1
-0.993943
-0.986138
-0.982309
-0.983355
-0.985824
-0.99106
-0.997338
-0.9996
-0.999967
-0.999999
-1
-1
-1
-1
-1
-1
-1
-1
-1
-0.996553
-0.989634
-0.985992
-0.986761
-0.989865
-0.995917
-0.999187
-0.999908
-0.999994
-1
-1
-1
-1
-1
-1
-1
-1
-1
-1
-0.998766
-0.99477
-0.99176
-0.992512
-0.995496
-0.998798
-0.999824
-0.999985
-0.999999
-1
-1
-1
-1
-1
-1
-1
-1
-1
-1
-0.999692
-0.998332
-0.997021
-0.997406
-0.998735
-0.999751
-0.999973
-0.999999
-1
-1
-1
-1
-1
-1
-1
-1
-1
-1
-1
-0.999954
-0.99968
-0.999302
-0.999404
-0.999763
-0.999964
-0.999997
-1
-1
-1
-1
-1
-1
-1
-1
-1
-1
-1
-1
-0.999996
-0.999963
-0.999897
-0.999911
-0.99997
-0.999996
-1
-1
-1
-1
-1
-1
-1
-1
-1
-1
-1
-1
-1
-1
-0.999998
-0.999991
-0.999992
-0.999998
-1
-1
-1
-1
-1
-1
-1
-1
-1
-1
-1
-1
-1
-1
-1
-1
-1
-1
-1
-1
-1
-1
-1
-1
-1
-1
-1
-1
-1
-1
-1
-1
-1
-1
-1
-1
-1
-1
-1
-1
-1
-1
-1
-1
-1
-1
-1
-1
-1
-1
-1
-1
-1
-1
-1
-1
-1
-1
-1
-1
-1
-1
-1
-1
-1
-1
-1
-1
-1
-1
-1
-1
-1
-1
-1
-1
-1
-1
-1
-1
-1
-1
-1
-1
-1
-1
-1
-1
-1
-1
-1
-1
-1
-1
-1
-1
-1
-1
-1
-1
-1
-1
-1
-1
-1
-1
-1
-1
-1
-1
-1
-1
-1
-1
-1
-1
-1
-1
-1
-1
-1
-1
-1
-1
-1
-1
-1
-1
-1
-1
-1
-1
-1
-1
-1
-1
-1
-1
-1
-1
-1
-1
-1
-1
-1
-1
-1
-1
-1
-1
-1
-1
-1
-1
-1
-1
-1
-1
-1
-1
-1
-1
-1
-1
-1
-1
-1
-1
-1
-1
-1
-1
-1
-1
-1
-1
-1
-1
-1
-1
-1
-1
-1
-1
-1
-1
-1
-1
-1
-1
-1
-1
-1
-1
-1
-1
-1
-1
-1
-1
-1
-1
-1
-1
-1
-1
-1
-1
-1
-1
-1
-1
-1
-1
-1
-1
-1
-1
-1
-1
-1
-1
-1
-1
-1
-1
-1
-1
-1
-1
-1
-1
-1
-1
-1
-1
-1
-1
-1
-1
-1
-1
-1
-1
-1
-1
-1
-1
-1
-1
-1
-1
-1
-1
-1
-1
-1
-1
-1
-1
-1
-1
-1
-1
-1
-1
-1
-1
-1
-1
-1
-1
-1
-1
-1
-1
-1
-1
-1
-1
)
;

boundaryField
{
    leftWall
    {
        type            zeroGradient;
    }
    rightWall
    {
        type            zeroGradient;
    }
    lowerWall
    {
        type            zeroGradient;
    }
    atmosphere
    {
        type            zeroGradient;
    }
    defaultFaces
    {
        type            empty;
    }
}


// ************************************************************************* //
