/*--------------------------------*- C++ -*----------------------------------*\
| =========                 |                                                 |
| \\      /  F ield         | foam-extend: Open Source CFD                    |
|  \\    /   O peration     | Version:     4.1                                |
|   \\  /    A nd           | Web:         http://www.foam-extend.org         |
|    \\/     M anipulation  |                                                 |
\*---------------------------------------------------------------------------*/
FoamFile
{
    version     2.0;
    format      ascii;
    class       volScalarField;
    location    "0.15";
    object      p;
}
// * * * * * * * * * * * * * * * * * * * * * * * * * * * * * * * * * * * * * //

dimensions      [1 -1 -2 0 0 0 0];

internalField   nonuniform List<scalar> 
2268
(
2443.68
2442.11
2446.62
2431.67
2444.32
2414.05
2425.81
2399.96
2402.88
2420
2484.9
2595.67
2501.92
2529.5
2515.88
2536.55
2633.98
2506.39
2734.88
2924.65
3185.36
3473.55
3544.51
2383.62
2382.14
2386.34
2371.93
2384.11
2353.65
2365.59
2340.41
2341.01
2335.19
2501.37
2495.99
2420.41
2454.12
2444.48
2467.26
2647.49
2365.97
2654.87
2769.01
3155.24
3372.18
3455.28
2322.23
2321.03
2324.71
2311.45
2322.25
2292.35
2305.15
2275.81
2281.34
2272.62
2417.13
2397.25
2354.52
2384.78
2373.93
2395.1
2485.23
2373.77
2593.25
2828.78
3036.39
3231.73
3323.2
2259.85
2258.83
2261.57
2249.99
2259.13
2229.03
2244.46
2206.24
2208.59
2294.84
2302.9
2314.14
2274.67
2302.45
2292.77
2312.7
2370.31
2348.11
2498.32
2713.47
2843.89
3180.75
3175.26
2195.87
2195.37
2197.32
2187.42
2194.74
2165.91
2180.25
2166.04
2120.42
2244.01
2205.49
2223.31
2193.65
2224.54
2209.81
2212.6
2271.66
2293.78
2409.76
2601.86
2591.44
2998.45
2961.86
2131.37
2130.83
2131.52
2123.69
2128.35
2102.87
2102.02
2067.04
2128.92
2148.43
2119.19
2136.73
2106.45
2142.69
2119.03
2111.56
2162.35
2205.91
2293.46
2572.73
2218.12
2654.22
2724.62
2064.61
2064.98
2065.06
2059.42
2061.81
2026.49
2068.66
1983.92
2065.7
2059.62
2037.27
2040.79
2011.6
2053.9
2024.29
1996.41
2013.51
2082.33
2163.59
2285.96
2089.96
2106.08
2410.29
1998.55
1998.02
1995.97
1985.27
1983.29
1982.42
1956.36
1955.53
1981.23
1971.16
1950.71
1939.96
1925.5
1967.33
1914.92
1890.45
1863.07
1912.64
2008.05
2114.94
1831.83
1795.13
1932.96
5.02736
5.00328
4.97713
4.924
4.85843
4.7652
4.65978
4.52506
4.38078
4.20373
4.04342
3.86286
3.67763
3.48537
3.31228
3.2013
3.12139
3.06645
3.04238
4.97635
4.94566
4.91859
4.8684
4.80617
4.71442
4.60701
4.4683
4.32512
4.1465
3.98859
3.79451
3.60391
3.41319
3.25085
3.13812
3.05914
3.0043
2.98032
4.92999
4.88916
4.86698
4.81623
4.75308
4.6653
4.55685
4.41968
4.26836
4.0902
3.92177
3.75496
3.53862
3.33807
3.18523
3.0714
2.99348
2.93905
2.91523
4.90145
4.83089
4.80967
4.7642
4.71205
4.62721
4.52284
4.36789
4.21799
4.03387
3.84396
3.64766
3.46017
3.26233
3.11607
3.00104
2.92452
2.87058
2.84699
4.86942
4.77231
4.75906
4.71711
4.67652
4.6011
4.48443
4.33292
4.16277
3.98281
3.76471
3.59779
3.37218
3.18055
3.04098
2.92738
2.85203
2.79901
2.77571
4.86167
4.70736
4.70622
4.68239
4.65747
4.57526
4.46402
4.29029
4.13361
3.92157
3.69248
3.48943
3.28358
3.09978
2.96241
2.85026
2.77638
2.72435
2.7014
4.8653
4.63268
4.65206
4.62436
4.67127
4.57676
4.4468
4.25998
4.072
3.8407
3.62756
3.40755
3.19374
3.01546
2.87857
2.77
2.69715
2.64654
2.62399
5.03003
4.52987
4.5797
4.60041
4.62592
4.58151
4.44534
4.21569
4.00934
3.80742
3.55153
3.30995
3.10696
2.92633
2.79333
2.68618
2.6151
2.56585
2.5438
1889.35
1891.72
1880.55
1911.67
1889.11
1799.83
1903.15
1831.48
1856.51
1846.9
1813.63
1794.56
1683
1844.32
1739.35
1707.85
1700.5
1557.65
1672.93
1607.59
1535.82
722.839
309.045
1742.7
1740.04
1731.85
1695.04
1746.3
1695.72
1711.28
1691.7
1687.4
1677.65
1629.17
1623.66
1515.92
1569.08
1436.28
1338.72
1225.5
1147.42
1209.14
1374.01
683.496
-291.837
41.0615
1584.42
1577.86
1575.33
1556.1
1566.49
1539.92
1551.54
1522.99
1515.6
1488.94
1440.58
1389.63
1281.14
1315.53
1129.76
968.751
808.597
707.5
641.807
558.872
220.74
-157.876
379.042
1410.27
1403.94
1408.89
1388.59
1400.15
1373.66
1376.43
1356.15
1342.3
1309.11
1254.14
1187.9
1067.61
1040.03
746.014
559.168
389.543
270.889
223.444
198.753
81.1785
-81.1818
178.741
1233.13
1227.47
1228.85
1214.46
1218.64
1196.51
1204.27
1174.43
1168.47
1119.71
1061.84
963.982
763.133
758.878
478.914
250.202
133.661
68.2139
57.6919
70.6268
49.5126
-24.1622
35.5555
1049.28
1044.13
1046.32
1030.81
1035.72
1013.34
1019.85
995.198
993.927
939.513
892.212
725.816
509.399
472.948
191.372
77.3237
35.6421
24.9205
1.80452
-14.1792
-53.7708
-18.8047
7.83654
865.284
860.673
861.615
845.083
844.511
823.864
836.038
817.055
841.866
794.616
782.706
543.174
316.11
217.804
62.2746
19.9878
4.85953
0.0327439
-12.1459
-23.0783
-37.1226
-23.6638
-13.5352
675.433
672.47
675.932
657.134
652.558
626.795
642.387
630.552
663.637
590.313
584.329
362.627
184.136
83.0229
23.6415
4.21805
-3.88449
-8.34582
-11.5513
-13.7517
-19.979
-18.3662
-14.3119
476.101
478.064
480.31
470.393
461.647
425.476
450.237
440.011
500.444
454.543
466.719
252.278
89.4471
39.184
6.20673
-7.41276
-10.5747
-13.4235
-12.7791
-13.0733
-15.5967
-12.3018
-12.8082
274.083
276.696
279.78
291.055
287.001
275.325
277.233
317.03
562.281
670.434
653.102
176.816
33.3637
13.3834
-7.16046
-15.7206
-13.1837
-13.7323
-13.3644
-13.8582
-14.2052
-12.154
-11.3815
138.63
134.884
128.956
125.144
111.368
107.652
69.1073
43.3648
-67.5149
-80.2398
-213.029
-9.84223
4.37544
-9.6501
-16.7811
-13.8782
-12.2943
-12.6536
-12.0342
-13.2317
-12.9752
-11.5186
-10.3427
41.6015
37.6291
30.0593
20.5355
14.3052
7.60961
-0.459186
-5.19002
-1.13379
1.73738
2.24686
-28.1669
-31.1054
-19.0363
-13.3431
-11.9163
-11.8981
-12.2029
-11.9118
-12.3837
-11.2892
-10.4132
-9.97938
-5.1635
-4.41494
-4.75131
-7.33414
-10.6811
-16.0013
-17.4498
-21.5097
-32.4091
-33.4737
-19.192
-8.92287
-17.6668
-13.7716
-11.6347
-11.2227
-11.6438
-11.6997
-11.7918
-11.3709
-10.992
-10.5493
-10.1941
-11.2148
-10.4189
-8.33584
-8.10581
-10.0979
-11.1271
-10.8449
-11.5004
-20.3936
-18.0048
-8.67678
-21.1811
-13.3517
-11.7469
-11.131
-11.3883
-11.4533
-11.4734
-11.3368
-11.3091
-11.0704
-10.8752
-10.6358
-9.98321
-9.60499
-8.62229
-8.07348
-7.77213
-7.65218
-7.24867
-7.60835
-8.27735
-11.1229
-7.1441
-9.52853
-10.9997
-11.0106
-10.931
-11.5769
-11.0591
-11.1956
-11.369
-11.368
-11.2339
-11.2055
-11.0694
-7.56788
-7.61431
-7.68316
-7.73518
-7.64266
-7.60684
-7.4876
-7.60148
-7.58613
-8.5502
-9.85456
-10.3416
-10.298
-10.0638
-10.8896
-10.9181
-10.8839
-11.1666
-11.0791
-11.4145
-11.4866
-11.869
-11.558
-6.09799
-6.17772
-6.4262
-6.71379
-6.90933
-7.14126
-7.3676
-7.78189
-7.89377
-8.49649
-8.81208
-9.45633
-9.48353
-9.9004
-10.2048
-10.6864
-11.2505
-11.359
-11.4519
-11.6974
-12.1108
-12.427
-12.5979
-7.40486
-7.46953
-7.55602
-7.58594
-7.78302
-7.77037
-7.83861
-8.23635
-8.20585
-8.00888
-8.34669
-8.86833
-9.28277
-9.75105
-10.1267
-10.5557
-11.0259
-10.9427
-11.3337
-11.8165
-12.4648
-13.1461
-14.0685
-6.6686
-6.71317
-6.77909
-7.22653
-6.98253
-7.51928
-7.68328
-7.67988
-8.06882
-8.24607
-8.58888
-8.75734
-9.31843
-9.69675
-9.8754
-9.93664
-10.3303
-11.1467
-11.41
-12.0411
-12.8692
-13.8994
-15.0456
-6.85611
-6.86158
-6.92835
-6.80249
-7.12971
-7.21447
-7.68869
-7.73949
-7.71953
-8.35973
-8.57064
-8.57662
-9.20951
-9.17472
-9.65161
-9.99707
-10.4081
-10.9642
-11.5188
-12.2767
-13.2643
-14.577
-16.763
-6.85036
-6.88814
-6.966
-7.03058
-7.14847
-7.27191
-7.28189
-7.64492
-7.92295
-8.01114
-8.14406
-8.66659
-8.72265
-9.19732
-9.68921
-9.78423
-10.3089
-10.8955
-11.5122
-12.2863
-13.6186
-15.076
-18.0754
-6.82693
-6.81903
-6.88206
-6.9239
-7.05483
-7.16346
-7.274
-7.52655
-7.79195
-8.18753
-8.24238
-8.56784
-8.8195
-9.12329
-9.22014
-9.89729
-10.1603
-10.8024
-11.4208
-12.2625
-13.6182
-15.4829
-20.291
-7.60994
-7.65623
-7.69397
-7.72269
-7.85084
-7.92379
-8.0576
-8.23402
-8.41881
-8.259
-8.55696
-8.87731
-8.81231
-9.15831
-9.5663
-9.55062
-9.90604
-10.6011
-11.2543
-12.4487
-13.2813
-15.4358
-19.1609
-7.45925
-7.49065
-7.52189
-7.5837
-7.68266
-7.78498
-7.90638
-8.08986
-8.30253
-8.58283
-8.55291
-8.70265
-9.13238
-9.16953
-9.14896
-9.72052
-9.81382
-10.2884
-11.1266
-12.3751
-13.6991
-15.7527
-17.5173
-7.52573
-7.5572
-7.58877
-7.65767
-7.74852
-7.83075
-7.9404
-8.19342
-8.13449
-8.34599
-8.42387
-8.58591
-8.77337
-8.91565
-9.08947
-9.27
-9.56179
-10.1766
-10.6889
-11.4874
-12.4507
-13.8822
-15.057
-7.50816
-7.51973
-7.57271
-7.60966
-7.69049
-7.75477
-7.97745
-7.91651
-8.05067
-8.18499
-8.29231
-8.40652
-8.57753
-8.68636
-8.86417
-9.09081
-9.60715
-9.39221
-10.4423
-10.7522
-11.3583
-12.0472
-12.5411
-7.48751
-7.50114
-7.54783
-7.59027
-7.68657
-7.74559
-7.72519
-7.83866
-7.92577
-8.03292
-8.13649
-8.23678
-8.3493
-8.43848
-8.64642
-8.85471
-8.76839
-9.35646
-9.54478
-9.53979
-10.0982
-10.3681
-10.4107
-7.40296
-7.42856
-7.43937
-7.56232
-7.50233
-7.60892
-7.632
-7.71877
-7.78047
-7.86058
-7.94147
-8.02964
-8.11325
-8.19801
-8.3781
-8.34463
-8.60728
-8.35293
-8.9383
-9.13758
-9.19228
-9.08633
-8.79587
-7.35461
-7.36179
-7.39139
-7.39421
-7.42279
-7.48825
-7.51992
-7.57531
-7.62736
-7.68707
-7.74784
-7.81097
-7.87548
-7.93354
-8.02043
-8.1289
-8.16212
-8.12475
-8.45332
-8.31346
-8.31322
-8.04078
-7.64051
-7.25379
-7.25865
-7.2778
-7.28573
-7.3189
-7.34764
-7.38403
-7.42353
-7.46184
-7.50508
-7.54736
-7.59236
-7.62934
-7.67274
-7.72051
-7.79411
-7.5305
-7.90323
-7.67252
-7.76369
-7.79326
-7.27294
-6.86446
-7.14631
-7.15159
-7.16656
-7.17921
-7.196
-7.2217
-7.24361
-7.27222
-7.2992
-7.32845
-7.35471
-7.38326
-7.40073
-7.43071
-7.42967
-7.45014
-7.36843
-7.31843
-7.34541
-6.93238
-7.20931
-6.89345
-6.39036
-7.03755
-7.04002
-7.04666
-7.055
-7.06954
-7.08307
-7.10072
-7.11879
-7.13635
-7.1542
-7.1685
-7.18301
-7.1861
-7.19863
-7.18191
-7.17072
-7.10139
-7.02807
-6.90906
-6.73169
-6.65065
-6.6119
-6.11722
-6.91843
-6.921
-6.92635
-6.93307
-6.94118
-6.95122
-6.96079
-6.97148
-6.98012
-6.98848
-6.99196
-6.99512
-6.98597
-6.98373
-6.94772
-6.90292
-6.86039
-6.5855
-6.53673
-6.54331
-6.29558
-5.98461
-6.04192
-6.79774
-6.79915
-6.80183
-6.80588
-6.81067
-6.81631
-6.82133
-6.82674
-6.82936
-6.83169
-6.82821
-6.8246
-6.80839
-6.79718
-6.75449
-6.69455
-6.62132
-6.49265
-6.36439
-6.23024
-5.98535
-5.70633
-5.79021
-6.67926
-6.68005
-6.68153
-6.68338
-6.68532
-6.68733
-6.68816
-6.68867
-6.68606
-6.68281
-6.67334
-6.66434
-6.64189
-6.62885
-6.57886
-6.51555
-6.42068
-6.32297
-6.09458
-6.02991
-5.886
-5.63886
-5.61236
-6.55683
-6.5572
-6.55748
-6.55829
-6.55827
-6.55874
-6.55713
-6.556
-6.55083
-6.54643
-6.53557
-6.5253
-6.5033
-6.48942
-6.43774
-6.37226
-6.28581
-6.1913
-6.05661
-5.92823
-5.84372
-5.60512
-5.3939
-6.43961
-6.43954
-6.4392
-6.43859
-6.43724
-6.43563
-6.43193
-6.42845
-6.41989
-6.41303
-6.39485
-6.37675
-6.34642
-6.32042
-6.29846
-6.23699
-6.161
-6.07107
-5.95802
-5.85186
-5.72839
-5.60659
-5.3391
-6.31333
-6.31321
-6.31251
-6.3119
-6.31019
-6.30884
-6.30555
-6.3034
-6.29754
-6.29581
-6.2862
-6.28799
-6.28443
-6.34008
-6.20997
-6.15143
-6.07609
-6.00047
-5.90776
-5.8106
-5.71419
-5.60015
-5.50139
-6.20577
-6.20524
-6.20402
-6.20248
-6.19986
-6.19704
-6.1926
-6.18816
-6.18121
-6.1746
-6.16394
-6.15454
-6.1381
-6.13381
-6.08537
-6.04311
-5.98584
-5.92399
-5.85134
-5.77377
-5.69519
-5.62217
-5.53078
-6.07109
-6.07072
-6.06966
-6.06836
-6.06616
-6.06395
-6.06044
-6.05756
-6.05263
-6.04983
-6.04364
-6.04224
-6.03312
-6.03291
-6.00866
-5.97607
-5.93142
-5.88159
-5.82262
-5.75376
-5.69851
-5.61141
-5.57941
-6.02441
-6.02402
-6.02247
-6.02023
-6.01694
-6.01319
-6.00822
-6.00325
-5.99664
-5.99086
-5.98211
-5.97475
-5.95985
-5.94083
-5.89542
-5.85284
-5.83006
-5.80217
-5.77364
-5.74054
-5.70725
-5.66259
-5.63249
-5.73257
-5.7326
-5.73243
-5.73211
-5.73166
-5.73128
-5.73073
-5.73057
-5.73035
-5.73172
-5.73395
-5.74317
-5.75952
-5.81267
-5.9057
-5.92343
-5.9031
-5.87338
-5.83363
-5.76973
-5.72145
-5.73186
-5.69667
-52.0752
-172.962
2.58362
4.6436
-240.221
-87.7422
86.1209
5.30137
131.661
-51.5204
116.974
40.0291
335.131
271.155
90.8428
86.1191
103.715
66.669
90.0571
57.4591
-13.8304
-29.7353
-4.23766
-20.8021
-35.8828
-66.2581
-107.848
-66.0555
-19.7036
-34.7171
-52.3997
-47.8589
-16.4558
-23.4955
-45.0141
-63.6853
-13.268
-16.1475
-33.9702
-49.6184
-10.722
-11.7523
-14.6737
-19.6689
-10.1825
-9.97108
-9.93584
-6.43332
-10.4529
-10.755
-12.9956
-18.5176
-10.2584
-10.5733
-12.5178
-19.7615
-10.613
-10.728
-12.0353
-18.9637
-11.1605
-11.2322
-12.5241
-18.1132
-12.1219
-11.7759
-12.579
-16.9308
-13.786
-13.5562
-13.0863
-14.5415
-16.3032
-16.7242
-16.6417
-17.0943
-19.0724
-20.9221
-23.4211
-26.4237
-21.6613
-24.9467
-28.4029
-36.4446
-23.1421
-25.6877
-30.046
-35.2576
-22.1361
-24.487
-27.2636
-31.343
-19.6497
-21.1723
-23.1638
-26.5752
-16.1463
-16.8828
-17.9222
-19.2801
-12.9257
-13.0797
-13.3006
-13.5363
-10.2801
-10.1367
-9.96621
-9.55989
-8.43345
-8.11593
-7.70253
-7.0667
-7.19015
-6.8127
-6.34621
-5.75982
-6.37672
-5.99205
-5.54931
-5.03396
-5.89553
-5.54656
-5.14954
-4.71442
-5.64367
-5.32197
-4.97173
-4.59953
-5.52997
-5.24477
-4.92609
-4.60992
-5.39988
-5.16612
-4.90863
-4.6547
-5.38304
-5.16636
-4.95409
-4.74235
-5.46678
-5.25302
-5.07605
-4.88473
-5.42634
-5.26651
-5.13074
-4.98261
-5.37865
-5.39325
-5.2458
-5.13949
-5.42219
-5.43525
-5.32965
-5.25386
-5.50534
-5.51069
-5.43935
-5.39246
-5.585
-5.58862
-5.54321
-5.51625
-5.69093
-5.68475
-5.68177
-5.67594
5.51566
4.11353
4.30431
4.60284
4.69377
4.66698
4.44136
4.14466
3.93789
3.63477
3.37976
3.1794
2.951
2.78574
2.65097
2.55092
2.48148
2.43515
2.41388
4.09704
3.10267
3.2199
4.40763
4.98866
4.79267
4.50343
4.14129
3.87263
3.49089
3.3234
2.91735
2.7559
2.57025
2.44578
2.34981
2.28586
2.24322
2.22374
-3.13589
0.861419
2.66037
4.53378
5.24282
4.88398
4.56865
4.13999
3.69364
3.38882
2.96269
2.7089
2.49704
2.33789
2.21851
2.13443
2.07535
2.03855
2.02106
13.4372
-0.920356
3.36627
5.56611
5.85082
5.49321
4.94776
4.0959
3.58359
3.11755
2.79248
2.44797
2.25087
2.08808
1.97899
1.9032
1.85257
1.82136
1.80683
14.7727
6.43356
7.00428
8.14862
6.98993
5.9411
4.82327
4.05027
3.38617
2.81621
2.42234
2.15721
1.94067
1.81422
1.71517
1.65719
1.6158
1.59276
1.58164
-20.0108
7.95644
9.43318
8.29931
6.98307
6.36427
4.93808
3.87955
3.12204
2.53308
2.10282
1.81883
1.62958
1.51516
1.43813
1.39585
1.36785
1.35358
1.34684
-4.63317
6.00006
8.70811
8.11668
7.59695
5.80631
4.65416
3.58589
2.74801
2.09377
1.66639
1.43383
1.26328
1.19121
1.13902
1.12107
1.10865
1.10549
1.10402
-47.9113
10.7065
7.23844
7.77771
7.20321
6.18781
4.63091
3.21426
2.23812
1.54228
1.17998
0.980935
0.870625
0.83877
0.824494
0.833647
0.840487
0.850307
0.855139
-4.51105
21.172
9.39686
8.14513
7.88802
6.55378
3.65754
2.61456
1.45579
0.830489
0.582879
0.463517
0.430727
0.459964
0.49341
0.536358
0.566009
0.59034
0.602134
58.949
-15.3138
6.62998
8.08345
7.75718
6.14863
3.19745
1.80342
0.70532
0.0106881
-0.120715
-0.122646
-0.0453074
0.0579483
0.150394
0.232488
0.287647
0.32791
0.347881
25.4269
-17.4593
7.63011
8.72372
7.24941
5.65724
2.2646
0.100753
-0.899949
-1.04177
-0.980779
-0.792738
-0.560854
-0.363158
-0.19784
-0.0715299
0.0118491
0.068514
0.0972339
-42.1145
-19.3578
10.4451
8.04666
5.04395
3.08497
0.748144
-2.01698
-2.38582
-2.50479
-1.9738
-1.53072
-1.10813
-0.79203
-0.546164
-0.371894
-0.259981
-0.185547
-0.144368
-48.9071
-18.9157
6.42874
3.4026
0.367089
-2.84613
-3.24813
-4.16327
-5.33568
-4.13481
-3.19514
-2.34899
-1.6687
-1.21759
-0.880541
-0.657674
-0.517671
-0.426467
-0.381869
-59.8426
-16.1367
3.73739
-2.15716
-7.96934
-11.7861
-10.897
-9.69089
-7.87077
-6.98022
-4.5514
-3.20195
-2.21123
-1.5996
-1.1771
-0.912684
-0.751321
-0.650108
-0.613499
-53.0547
-16.55
-0.88534
-7.08424
-12.17
-30.0046
-22.0691
-16.8469
-12.5943
-9.32627
-5.79401
-3.82243
-2.65656
-1.90216
-1.40921
-1.14796
-0.978246
-0.870924
-0.818702
-47.2597
-35.918
-21.2957
-16.9173
-19.217
-33.1486
-33.0589
-24.0744
-16.539
-10.8556
-6.71541
-4.27362
-2.94379
-2.17062
-1.67175
-1.35803
-1.16065
-1.03777
-0.97633
-36.5014
-53.6198
-40.6816
-26.5434
-34.6978
-44.23
-44.1551
-27.6033
-19.2283
-11.5786
-7.09478
-4.46661
-3.1671
-2.37954
-1.85878
-1.5194
-1.30718
-1.17654
-1.11181
-20.8407
-31.6888
-24.5609
-26.5709
-45.9538
-47.2425
-37.5529
-26.4271
-18.7752
-11.0292
-6.66304
-4.30667
-3.07187
-2.34172
-1.88073
-1.57272
-1.37974
-1.26014
-1.20452
-19.6184
-10.7368
-16.8098
-24.6257
-34.1578
-32.941
-25.1432
-20.8763
-14.8184
-8.49028
-5.16438
-3.60226
-2.70378
-2.14689
-1.79598
-1.5508
-1.39403
-1.29614
-1.25156
-31.7466
-31.8601
-15.0336
-10.1815
-12.4918
-20.8141
-8.7601
-10.504
-7.83177
-4.92451
-3.42234
-2.68092
-2.20769
-1.85491
-1.64749
-1.47578
-1.36594
-1.29404
-1.26396
-47.2165
-51.2279
-27.0414
-12.9691
-9.61043
-1.37418
-0.614844
-4.48545
-4.56368
-3.05399
-2.15898
-1.98598
-1.77864
-1.584
-1.48801
-1.39354
-1.32668
-1.27953
-1.26449
-50.2502
-50.4303
-30.7716
-18.8777
-4.62143
7.14505
0.399346
-1.46386
-2.11263
-1.92869
-1.50395
-1.50348
-1.54824
-1.32138
-1.37707
-1.28948
-1.24429
-1.23773
-1.24259
-41.3857
-35.7839
-19.7174
-8.38411
5.7785
4.92047
2.04563
0.959753
-0.154169
-0.789572
-0.676703
-1.12063
-1.14563
-1.05562
-1.20704
-1.25554
-1.25492
-1.25238
-1.27154
-30.7566
-25.2811
-10.1041
-0.171342
5.67722
3.44154
3.55671
2.33195
0.900742
0.34025
-0.190366
-0.739979
-1.02261
-0.994594
-1.19869
-1.20774
-1.28106
-1.25411
-1.26666
-21.4446
-15.4559
-5.4975
3.40083
6.13404
5.11753
4.33569
2.9124
1.54159
1.08755
0.199742
-0.410624
-0.732292
-0.907029
-1.08577
-1.15152
-1.26478
-1.27509
-1.29402
-13.8298
-7.46748
-0.0258058
5.72932
6.64501
5.64298
4.35139
3.01692
1.50239
1.59335
0.477426
-0.160029
-0.57692
-0.792195
-1.05797
-1.17459
-1.31346
-1.33885
-1.36891
-8.39032
-4.15208
2.11438
5.52302
6.28283
4.91545
4.05416
2.99011
1.9704
1.28358
0.743851
-0.190705
-0.732064
-0.664007
-0.941764
-1.20517
-1.34886
-1.40607
-1.4469
-5.65054
-2.85137
0.693479
3.22118
3.56084
4.32847
3.80085
2.87887
1.29864
1.03735
0.466927
-0.0737439
-0.431615
-0.601231
-1.11362
-1.21554
-1.45399
-1.46275
-1.512
-4.53893
-2.29567
-0.107233
1.45771
2.0566
2.12456
2.03972
1.87171
1.29832
0.67109
0.45746
-0.281276
-0.693236
-0.850479
-1.15949
-1.27422
-1.52927
-1.60486
-1.62421
-4.02762
-2.37149
-0.704758
0.535415
0.996345
1.16167
1.12248
1.07737
0.870332
0.504711
-0.132452
-0.407034
-0.789902
-1.09968
-1.34962
-1.56939
-1.63817
-1.69693
-1.73266
-3.88586
-2.62345
-1.42497
-0.498638
0.00334588
0.345455
0.358904
0.245405
0.00996952
-0.305667
-0.761672
-0.841791
-1.19933
-1.28341
-1.48413
-1.6201
-1.86915
-1.88895
-1.93226
-3.92016
-2.93379
-2.01353
-1.28997
-0.842742
-0.576544
-0.544274
-0.616943
-0.734265
-0.878095
-1.07022
-1.28456
-1.4372
-1.74949
-1.80529
-1.93
-1.95865
-2.0644
-2.07424
-4.03891
-3.25896
-2.53841
-1.96036
-1.56375
-1.3094
-1.21535
-1.2025
-1.27819
-1.41214
-1.59062
-1.74379
-1.98479
-2.02196
-2.14352
-2.29502
-2.33921
-2.45382
-2.48073
-4.19442
-3.5748
-3.00494
-2.53933
-2.20004
-1.97494
-1.8695
-1.84493
-1.87549
-1.95906
-2.06219
-2.16749
-2.28265
-2.42452
-2.48018
-2.58058
-2.6375
-2.68403
-2.70249
-4.37043
-3.87204
-3.41712
-3.04006
-2.75383
-2.55721
-2.45062
-2.41132
-2.44408
-2.4783
-2.5115
-2.58855
-2.69763
-2.78506
-2.87359
-2.94758
-2.99903
-3.04457
-3.06303
-4.57495
-4.16555
-3.80031
-3.4954
-3.25806
-3.09018
-2.98929
-2.94351
-2.94649
-2.97413
-3.01297
-3.05042
-3.08293
-3.18629
-3.24689
-3.30921
-3.35015
-3.38036
-3.39396
-4.74393
-4.42562
-4.13885
-3.89724
-3.70538
-3.56599
-3.47653
-3.42951
-3.41533
-3.42434
-3.44887
-3.48811
-3.53693
-3.59371
-3.64221
-3.68937
-3.71741
-3.73963
-3.75033
-4.93368
-4.69283
-4.46814
-4.28309
-4.13225
-4.02144
-3.94666
-3.90411
-3.88614
-3.8901
-3.90569
-3.93198
-3.96451
-4.00674
-4.04106
-4.07261
-4.09431
-4.1105
-4.1184
-5.10118
-4.92542
-4.76048
-4.62579
-4.51513
-4.43283
-4.3758
-4.34257
-4.3285
-4.32697
-4.33168
-4.34579
-4.36706
-4.39603
-4.41903
-4.44078
-4.45732
-4.46925
-4.47509
-5.29126
-5.17971
-5.07092
-4.98204
-4.90914
-4.85566
-4.81816
-4.79628
-4.78697
-4.78357
-4.78486
-4.79304
-4.80694
-4.82444
-4.84021
-4.85439
-4.86544
-4.87316
-4.87685
-5.45357
-5.38724
-5.322
-5.27037
-5.22833
-5.19639
-5.17282
-5.15817
-5.1505
-5.14768
-5.14839
-5.153
-5.15916
-5.16683
-5.1756
-5.18368
-5.18997
-5.19413
-5.19617
-5.67124
-5.67032
-5.67503
-5.67767
-5.68176
-5.68489
-5.68769
-5.68987
-5.69155
-5.69261
-5.69316
-5.69345
-5.6935
-5.69377
-5.69417
-5.69442
-5.69463
-5.69402
-5.6935
)
;

boundaryField
{
    leftWall
    {
        type            calculated;
        value           nonuniform List<scalar> 
50
(
2443.68
2383.62
2322.23
2259.85
2195.87
2131.37
2064.61
1998.55
1889.35
1742.7
1584.42
1410.27
1233.13
1049.28
865.284
675.433
476.101
274.083
138.63
41.6015
-5.1635
-11.2148
-9.98321
-7.56788
-6.09799
-7.40486
-6.6686
-6.85611
-6.85036
-6.82693
-7.60994
-7.45925
-7.52573
-7.50816
-7.48751
-7.40296
-7.35461
-7.25379
-7.14631
-7.03755
-6.91843
-6.79774
-6.67926
-6.55683
-6.43961
-6.31333
-6.20577
-6.07109
-6.02441
-5.73257
)
;
    }
    rightWall
    {
        type            calculated;
        value           nonuniform List<scalar> 
50
(
3.04238
2.98032
2.91523
2.84699
2.77571
2.7014
2.62399
2.5438
2.41388
2.22374
2.02106
1.80683
1.58164
1.34684
1.10402
0.855139
0.602134
0.347881
0.0972339
-0.144368
-0.381869
-0.613499
-0.818702
-0.97633
-1.11181
-1.20452
-1.25156
-1.26396
-1.26449
-1.24259
-1.27154
-1.26666
-1.29402
-1.36891
-1.4469
-1.512
-1.62421
-1.73266
-1.93226
-2.07424
-2.48073
-2.70249
-3.06303
-3.39396
-3.75033
-4.1184
-4.47509
-4.87685
-5.19617
-5.6935
)
;
    }
    lowerWall
    {
        type            calculated;
        value           nonuniform List<scalar> 
62
(
2473.1
2471.54
2476.05
2461.1
2473.75
2443.48
2455.24
2429.39
2432.31
2449.42
2514.32
2625.1
2531.35
2558.93
2545.31
2565.98
2663.41
2535.82
2764.31
2954.08
3214.65
3501.89
3568.89
3544.51
3455.28
3323.2
3175.26
2961.86
2724.62
2410.29
1932.96
-4.616
-141.07
10.5695
4.7062
5.02736
4.97635
4.92999
4.90145
4.86942
4.86167
4.8653
5.03003
5.0568
5.03272
5.00656
4.95343
4.88786
4.79463
4.68921
4.55449
4.41021
4.23315
4.07285
3.89229
3.70706
3.5148
3.34171
3.23073
3.15082
3.09588
3.07181
)
;
    }
    atmosphere
    {
        type            calculated;
        value           nonuniform List<scalar> 
46
(
-5.81455
-5.81503
-5.81397
-5.81252
-5.81046
-5.80812
-5.80516
-5.80225
-5.79856
-5.79568
-5.79154
-5.79025
-5.78671
-5.79321
-5.79799
-5.79202
-5.78113
-5.76836
-5.75494
-5.74293
-5.7352
-5.73143
-5.72988
-5.72904
-5.72904
-5.72904
-5.72904
-5.72904
-5.72904
-5.72904
-5.72904
-5.72904
-5.72904
-5.72904
-5.72904
-5.72904
-5.72904
-5.72904
-5.72904
-5.72904
-5.72904
-5.72904
-5.72904
-5.72904
-5.72904
-5.72904
)
;
    }
    defaultFaces
    {
        type            empty;
    }
}


// ************************************************************************* //
