/*--------------------------------*- C++ -*----------------------------------*\
| =========                 |                                                 |
| \\      /  F ield         | foam-extend: Open Source CFD                    |
|  \\    /   O peration     | Version:     4.1                                |
|   \\  /    A nd           | Web:         http://www.foam-extend.org         |
|    \\/     M anipulation  |                                                 |
\*---------------------------------------------------------------------------*/
FoamFile
{
    version     2.0;
    format      ascii;
    class       volScalarField;
    location    "0.15";
    object      pd;
}
// * * * * * * * * * * * * * * * * * * * * * * * * * * * * * * * * * * * * * //

dimensions      [1 -1 -2 0 0 0 0];

internalField   nonuniform List<scalar> 
2268
(
2473.1
2471.54
2476.05
2461.1
2473.75
2443.48
2455.24
2429.39
2432.31
2449.42
2514.32
2625.1
2531.35
2558.93
2545.31
2565.98
2663.41
2535.82
2764.31
2954.08
3214.65
3501.89
3568.89
2471.91
2470.43
2474.63
2460.22
2472.4
2441.94
2453.88
2428.7
2429.3
2423.47
2589.66
2584.27
2508.69
2542.41
2532.76
2555.55
2735.78
2454.26
2743.15
2857.3
3242.74
3456.18
3526.66
2469.38
2468.17
2471.86
2458.59
2469.4
2439.5
2452.3
2422.96
2428.48
2419.76
2564.27
2544.39
2501.66
2531.93
2521.08
2542.25
2632.37
2520.92
2740.39
2975.92
3182.3
3371.66
3439.18
2465.86
2464.84
2467.57
2456
2465.13
2435.04
2450.46
2412.24
2414.59
2500.84
2508.89
2520.15
2480.67
2508.45
2498.77
2518.7
2576.31
2554.11
2704.33
2919.27
3048.28
3377.95
3336.61
2460.73
2460.23
2462.19
2452.28
2459.61
2430.78
2445.12
2430.9
2385.28
2508.87
2470.34
2488.18
2458.51
2489.4
2474.67
2477.47
2536.52
2558.64
2674.56
2865.26
2853.47
3253.36
3170.58
2455.09
2454.55
2455.25
2447.41
2452.08
2426.59
2425.75
2390.76
2452.64
2472.14
2442.91
2460.45
2430.17
2466.42
2442.75
2435.29
2486.07
2529.64
2615.89
2892.3
2535.35
2964.98
2981.44
2447.2
2447.56
2447.64
2442.01
2444.39
2409.07
2451.25
2366.5
2448.27
2442.19
2419.85
2423.37
2394.18
2436.49
2406.87
2378.99
2396.09
2464.13
2542.38
2660.03
2457.99
2469.87
2715.93
2439.99
2439.46
2437.41
2426.71
2424.73
2423.86
2397.8
2396.96
2422.66
2412.59
2392.15
2381.4
2366.95
2408.77
2356.36
2331.89
2304.12
2350.77
2440.64
2539.71
2243.96
2207.64
2291.69
5.0568
5.03272
5.00656
4.95343
4.88786
4.79463
4.68921
4.55449
4.41021
4.23315
4.07285
3.89229
3.70706
3.5148
3.34171
3.23073
3.15082
3.09588
3.07181
5.06464
5.03397
5.00688
4.95668
4.89446
4.80271
4.6953
4.55659
4.4134
4.23479
4.07688
3.8828
3.69219
3.50148
3.33914
3.22641
3.14742
3.09259
3.06861
5.07714
5.03631
5.01415
4.96338
4.90022
4.81245
4.70399
4.56683
4.4155
4.23735
4.06891
3.90211
3.68576
3.48522
3.33238
3.21855
3.14062
3.08619
3.06238
5.10746
5.0369
5.01567
4.97022
4.91806
4.83321
4.72885
4.5739
4.424
4.23988
4.04997
3.85367
3.66617
3.46834
3.32207
3.20705
3.13052
3.07658
3.053
5.13872
5.03718
5.02392
4.98198
4.94139
4.86597
4.74929
4.59779
4.42763
4.24767
4.02957
3.86265
3.63704
3.44542
3.30584
3.19224
3.11689
3.06388
3.04058
5.2283
5.03456
5.02994
5.00611
4.9812
4.89898
4.78775
4.61401
4.45734
4.2453
4.0162
3.81316
3.60731
3.42351
3.28613
3.17398
3.1001
3.04807
3.02512
5.35512
5.04441
5.03506
5.00694
5.05386
4.95935
4.82938
4.64256
4.45458
4.22328
4.01015
3.79013
3.57632
3.39804
3.26116
3.15258
3.07973
3.02912
3.00657
5.47147
5.03358
5.02817
5.04185
5.06736
5.02295
4.88678
4.65713
4.45078
4.24886
3.99297
3.7514
3.54841
3.36777
3.23477
3.12762
3.05654
3.00729
2.98524
2422.81
2425.19
2414.02
2445.13
2422.58
2333.3
2436.61
2364.94
2389.96
2380.36
2347.09
2328.03
2216.46
2377.79
2272.82
2241.2
2229.36
2079.26
2182.26
2104.05
2009.59
1196.44
756.636
2401.36
2398.7
2390.52
2353.7
2404.96
2354.39
2369.94
2350.35
2346.03
2336.31
2287.83
2282.32
2174.58
2227.74
2094.94
1990.65
1861.44
1761.14
1785.44
1918.17
1190.16
190.464
562.13
2368.28
2361.72
2359.18
2339.95
2350.34
2323.77
2335.38
2306.8
2299.4
2272.79
2224.43
2173.48
2064.99
2099.39
1905.49
1717.6
1505.89
1332.32
1162.89
1036.54
670.723
233.32
896.04
2319.31
2312.98
2317.92
2297.61
2309.17
2282.65
2285.37
2264.98
2251.14
2218.16
2163.19
2096.95
1976.66
1942.86
1612.88
1341.99
1025.97
723.976
559.392
461.218
395.785
187.448
567.547
2267.22
2261.55
2262.91
2248.47
2252.58
2230.31
2237.78
2207.53
2201.71
2153.96
2096.08
1998.23
1796.05
1755.04
1363.21
903.325
507.27
264.759
198.219
203.744
205.826
128.258
267.049
2207.75
2202.52
2204.57
2188.78
2193.3
2170.2
2175.29
2149.41
2148.85
2098.54
2051.65
1879.04
1647.16
1495.65
925.451
444.692
191.99
95.1077
50.344
36.596
28.2931
63.3103
105.849
2144.98
2140.04
2140.35
2122.68
2120.4
2096.84
2103.4
2081.87
2109.75
2075.42
2063.31
1789.8
1511.68
1121.34
495.338
177.242
55.5371
20.4189
0.84112
-10.5371
-3.75555
10.2448
21.1227
2065.06
2060.97
2062.16
2039.48
2029
1993.35
1990.82
1975.9
2021.64
1982.8
1970.25
1648.25
1331.63
702.046
233.666
74.4918
18.4269
-2.12282
-9.02563
-11.8599
-3.45554
-3.6992
-3.63108
1942.25
1940.88
1936.49
1915.23
1889.56
1824.95
1800.11
1791.81
1896.17
1933.17
1928.4
1478.31
1038.36
412.302
120.038
31.8205
4.12675
-9.79852
-11.2441
-11.5383
-7.25349
-4.3549
-8.63083
1731.52
1725.49
1711.74
1693.98
1648.79
1565.85
1449.88
1507.5
1887.79
2183.12
2135.91
1185.5
750.957
246.692
54.4709
0.954782
-7.36975
-12.0721
-11.7042
-12.198
-8.33582
-6.97304
-9.6176
1391.69
1367.57
1324.3
1255.53
1158.79
1015.84
790.149
790.909
1011.14
1369.43
1195.76
672.067
545.27
131.661
5.26479
-11.8653
-10.5089
-10.8682
-10.2488
-11.209
-8.74223
-8.11335
-8.55727
782.561
751.91
700.706
622.445
542.502
429.251
309.276
342.839
822.71
1220.43
1212.87
384.96
333.349
44.9045
-9.89576
-10.0057
-9.98751
-10.2923
-9.92434
-10.3298
-8.73316
-8.13644
-8.06877
285.383
272.175
250.441
216.405
181.672
132.279
87.5258
105.524
337.53
607.488
662.824
192.183
116.526
4.08441
-9.59893
-9.18688
-9.60802
-9.66389
-9.7323
-9.31369
-8.89486
-8.46984
-8.15834
77.4156
73.1258
67.5576
57.1082
44.4683
28.9742
14.7699
20.765
101.641
225.751
289.89
80.1732
25.9859
-7.61015
-8.96997
-9.22734
-9.29229
-9.3124
-9.16186
-9.13797
-8.9072
-8.69729
-8.37418
9.59302
8.51991
7.22622
4.8408
2.15394
-1.36948
-4.80509
-3.98225
23.6082
68.5836
105.391
42.7716
5.0943
-8.72444
-8.64484
-9.29073
-8.77286
-8.90937
-9.06242
-9.07657
-8.94657
-8.9091
-8.71191
-5.1565
-5.20293
-5.27177
-5.3238
-5.23128
-5.19545
-5.07622
-5.1901
-3.98953
11.2305
25.3292
10.257
-5.22012
-7.65237
-8.47823
-8.50673
-8.47254
-8.74219
-8.6554
-9.0011
-9.07373
-9.45083
-9.09742
-3.56141
-3.64115
-3.88962
-4.17721
-4.37275
-4.60468
-4.83102
-5.24531
-5.35719
-5.95991
-2.03125
-4.25276
-6.94695
-7.36382
-7.66823
-8.14985
-8.71397
-8.80222
-8.90854
-9.16048
-9.57424
-9.89045
-10.032
-4.74308
-4.80775
-4.89425
-4.92417
-5.12124
-5.1086
-5.17684
-5.57458
-5.54407
-5.34711
-5.68491
-6.20655
-6.621
-7.08928
-7.46497
-7.89393
-8.35633
-8.26106
-8.66715
-9.15469
-9.80302
-10.4843
-11.3811
-3.88163
-3.9262
-3.99213
-4.43956
-4.19556
-4.73231
-4.89631
-4.89292
-5.28185
-5.4591
-5.80191
-5.97038
-6.53146
-6.90978
-7.08843
-7.14967
-7.54335
-8.34664
-8.61937
-9.25417
-10.0822
-11.1124
-12.2235
-3.94394
-3.94942
-4.01618
-3.89033
-4.21755
-4.30231
-4.77653
-4.82732
-4.80736
-5.44757
-5.65848
-5.66446
-6.29735
-6.26256
-6.73944
-7.08491
-7.49412
-8.04053
-8.60372
-9.36438
-10.3522
-11.6649
-13.8347
-3.77223
-3.80413
-3.87544
-3.93516
-4.04637
-4.18013
-4.21715
-4.58679
-4.88559
-4.97378
-5.1067
-5.62923
-5.68529
-6.15997
-6.65186
-6.74687
-7.26114
-7.85108
-8.47383
-9.24898
-10.5813
-12.0386
-15.0254
-3.6078
-3.60024
-3.6632
-3.7028
-3.82907
-3.9271
-4.04101
-4.29722
-4.58818
-5.01087
-5.07983
-5.40528
-5.65695
-5.96074
-6.05759
-6.7272
-6.98917
-7.63746
-8.25815
-9.09997
-10.4557
-12.3204
-17.1182
-4.3059
-4.35365
-4.39187
-4.4201
-4.54549
-4.60886
-4.72945
-4.89681
-5.08309
-4.93983
-5.25333
-5.58446
-5.52196
-5.86797
-6.27262
-6.25738
-6.61561
-7.3129
-7.96651
-9.16092
-9.9935
-12.1481
-15.8722
-4.04475
-4.07644
-4.10775
-4.16952
-4.26799
-4.36802
-4.48527
-4.66446
-4.87537
-5.15905
-5.13173
-5.28349
-5.7148
-5.75396
-5.73432
-6.30654
-6.40058
-6.87546
-7.71369
-8.9622
-10.2861
-12.3397
-14.1044
-3.9876
-4.01907
-4.05063
-4.11954
-4.21038
-4.29261
-4.40216
-4.65392
-4.59435
-4.80649
-4.8851
-5.0473
-5.23481
-5.37734
-5.55124
-5.73181
-6.02365
-6.63843
-7.15077
-7.94928
-8.91256
-10.3441
-11.5189
-3.84483
-3.8564
-3.90938
-3.94633
-4.02716
-4.09144
-4.31412
-4.25318
-4.38734
-4.52166
-4.62898
-4.74319
-4.9142
-5.02303
-5.20084
-5.42748
-5.94382
-5.72888
-6.77899
-7.0889
-7.69495
-8.38388
-8.87779
-3.69899
-3.71261
-3.7593
-3.80175
-3.89804
-3.95707
-3.93667
-4.05014
-4.13725
-4.2444
-4.34796
-4.44826
-4.56077
-4.64996
-4.85789
-5.06619
-4.97986
-5.56793
-5.75625
-5.75127
-6.30968
-6.57954
-6.62218
-3.48924
-3.51483
-3.52564
-3.64859
-3.58861
-3.6952
-3.71828
-3.80505
-3.86675
-3.94686
-4.02775
-4.11592
-4.19952
-4.28429
-4.46438
-4.43091
-4.69356
-4.43921
-5.02458
-5.22386
-5.27856
-5.17261
-4.88215
-3.31568
-3.32286
-3.35247
-3.35528
-3.38387
-3.44933
-3.481
-3.53639
-3.58844
-3.64814
-3.70891
-3.77204
-3.83656
-3.89462
-3.98152
-4.08999
-4.12321
-4.08584
-4.4144
-4.27455
-4.2743
-4.00186
-3.60159
-3.08968
-3.09454
-3.11369
-3.12162
-3.15479
-3.18352
-3.21991
-3.25942
-3.29773
-3.34096
-3.38324
-3.42825
-3.46523
-3.50863
-3.5564
-3.63
-3.36639
-3.73912
-3.50841
-3.59958
-3.62915
-3.10883
-2.70035
-2.85701
-2.86229
-2.87726
-2.8899
-2.90669
-2.93239
-2.95431
-2.98292
-3.0099
-3.03915
-3.0654
-3.09396
-3.11143
-3.14141
-3.14037
-3.16084
-3.07912
-3.02913
-3.05611
-2.64307
-2.92
-2.60415
-2.10106
-2.62305
-2.62552
-2.63216
-2.6405
-2.65504
-2.66858
-2.68622
-2.7043
-2.72185
-2.7397
-2.754
-2.76851
-2.7716
-2.78413
-2.76741
-2.75622
-2.6869
-2.61358
-2.49457
-2.31719
-2.23615
-2.1974
-1.70272
-2.37874
-2.38131
-2.38665
-2.39338
-2.40149
-2.41153
-2.4211
-2.43179
-2.44043
-2.44879
-2.45226
-2.45543
-2.44628
-2.44404
-2.40803
-2.36323
-2.3207
-2.04581
-1.99703
-2.00362
-1.75589
-1.44492
-1.50222
-2.13285
-2.13426
-2.13694
-2.14099
-2.14579
-2.15142
-2.15645
-2.16186
-2.16447
-2.1668
-2.16333
-2.15971
-2.14351
-2.13229
-2.0896
-2.02966
-1.95643
-1.82776
-1.6995
-1.56535
-1.32047
-1.04144
-1.12532
-1.88918
-1.88997
-1.89145
-1.8933
-1.89524
-1.89725
-1.89808
-1.89859
-1.89598
-1.89273
-1.88326
-1.87426
-1.85181
-1.83877
-1.78878
-1.72547
-1.6306
-1.53289
-1.3045
-1.23983
-1.09592
-0.848784
-0.822279
-1.64155
-1.64193
-1.6422
-1.64301
-1.64299
-1.64346
-1.64186
-1.64073
-1.63555
-1.63115
-1.62029
-1.61003
-1.58802
-1.57414
-1.52246
-1.45698
-1.37053
-1.27602
-1.14134
-1.01295
-0.928441
-0.689842
-0.478624
-1.39914
-1.39907
-1.39873
-1.39812
-1.39677
-1.39516
-1.39146
-1.38798
-1.37942
-1.37256
-1.35438
-1.33628
-1.30595
-1.27995
-1.25799
-1.19652
-1.12053
-1.0306
-0.917547
-0.811395
-0.687918
-0.566125
-0.298628
-1.14766
-1.14755
-1.14684
-1.14623
-1.14453
-1.14318
-1.13988
-1.13773
-1.13187
-1.13015
-1.12054
-1.12232
-1.11877
-1.17442
-1.0443
-0.985766
-0.910422
-0.834808
-0.742097
-0.644934
-0.548527
-0.434484
-0.335724
-0.914911
-0.91438
-0.913156
-0.911624
-0.909005
-0.906184
-0.90174
-0.897297
-0.890352
-0.88374
-0.873077
-0.863683
-0.847244
-0.842953
-0.794513
-0.752248
-0.694978
-0.633134
-0.560483
-0.482909
-0.404332
-0.33131
-0.239919
-0.655032
-0.65467
-0.653607
-0.652308
-0.650102
-0.647901
-0.644389
-0.641502
-0.636579
-0.633777
-0.627584
-0.626191
-0.61707
-0.616856
-0.592604
-0.560012
-0.515367
-0.465538
-0.406562
-0.337703
-0.282458
-0.195357
-0.163352
-0.483164
-0.482768
-0.481223
-0.478977
-0.475687
-0.471939
-0.466976
-0.462006
-0.455396
-0.449609
-0.440863
-0.433502
-0.418603
-0.399586
-0.354177
-0.311596
-0.288811
-0.260924
-0.232388
-0.199294
-0.166004
-0.121337
-0.0912431
-0.0661271
-0.0661538
-0.0659859
-0.0656712
-0.0652216
-0.0648364
-0.0642905
-0.0641274
-0.0639069
-0.0652731
-0.0675099
-0.0767275
-0.0930727
-0.14623
-0.239257
-0.256984
-0.236656
-0.206935
-0.167191
-0.103285
-0.0550103
-0.0654157
-0.0302241
352.382
98.8241
70.6409
5.17707
248.386
311.131
291.094
58.9499
672.286
435.281
470.642
212.687
847.851
786.106
528.904
353.15
477.171
537.512
533.242
386.177
171.631
291.925
385.681
313.915
37.624
100.067
187.699
244.613
3.21546
37.1055
126.433
223.385
-9.81365
3.3411
48.7341
135.9
-11.6078
-7.12596
12.3806
84.3554
-8.93658
-9.96688
3.48116
59.3881
-8.27187
-8.06048
-1.10696
43.5191
-8.41711
-8.71921
-10.9598
1.99713
-8.09739
-8.41226
-10.3568
-12.3754
-8.16355
-8.44184
-9.74909
-14.2756
-8.56906
-8.82081
-10.1127
-13.1943
-9.39041
-9.15708
-10.0425
-11.5668
-10.8855
-10.4009
-10.1539
-9.51521
-13.1631
-13.0228
-12.2683
-11.4298
-15.7915
-16.7619
-17.8092
-18.9982
-18.398
-20.9613
-22.8221
-28.3954
-19.8652
-22.0311
-25.3289
-28.2962
-18.8151
-21.0112
-23.2933
-26.1083
-16.2339
-17.7168
-19.5436
-22.444
-12.6082
-13.3417
-14.3483
-15.5694
-9.26237
-9.41641
-9.63512
-9.85002
-6.49153
-6.34822
-6.17768
-5.77053
-4.51973
-4.20221
-3.78881
-3.15298
-3.15124
-2.77379
-2.3073
-1.7209
-2.21261
-1.82795
-1.3852
-0.869848
-1.60622
-1.25726
-0.86024
-0.425121
-1.22917
-0.907471
-0.557228
-0.185031
-0.990282
-0.70508
-0.386396
-0.070225
-0.734995
-0.501236
-0.243742
0.0101875
-0.592963
-0.376277
-0.164013
0.0477333
-0.551507
-0.337746
-0.160773
0.0305474
-0.385871
-0.226043
-0.0902676
0.0578559
-0.212986
-0.227588
-0.0801315
0.0261739
-0.131332
-0.14439
-0.0387894
0.037004
-0.0892813
-0.0946347
-0.0232938
0.0235972
-0.0437473
-0.0473711
-0.00196006
0.0249969
-0.0244841
-0.0183031
-0.0153307
-0.00950062
6.04912
4.647
4.8589
5.13729
5.22723
5.20045
4.97482
4.67813
4.47136
4.16824
3.91322
3.71287
3.48447
3.31921
3.18444
3.08439
3.01495
2.96862
2.94735
4.7557
3.76133
3.87857
5.06849
5.64736
5.45133
5.16209
4.79995
4.53129
4.14956
3.98206
3.57601
3.41456
3.22891
3.10444
3.00847
2.94452
2.90188
2.8824
23.5208
3.31797
3.44975
5.31763
6.02667
5.66784
5.3525
4.92385
4.4775
4.17268
3.74654
3.49276
3.2809
3.12175
3.00237
2.91828
2.85921
2.8224
2.80491
74.1878
6.32961
4.67749
6.47952
6.75987
6.40226
5.85681
5.00495
4.49264
4.0266
3.70153
3.35702
3.15992
2.99713
2.88804
2.81225
2.76162
2.73041
2.71588
105.12
16.0063
8.60758
9.19048
8.02418
6.97534
5.85751
5.08452
4.42041
3.85046
3.45658
3.19146
2.97491
2.84847
2.74942
2.69143
2.65004
2.627
2.61589
79.5863
11.1703
10.5926
9.45875
8.14379
7.52371
6.09752
5.03899
4.28148
3.69252
3.26226
2.97827
2.78902
2.6746
2.59757
2.55529
2.52729
2.51302
2.50628
142.782
21.7703
9.99275
9.40132
8.88381
7.0911
5.93879
4.87052
4.03264
3.3784
2.95102
2.71846
2.54791
2.47584
2.42365
2.4057
2.39329
2.39013
2.38865
146.12
56.8947
11.7277
9.18753
8.61392
7.59986
6.04074
4.62409
3.64795
2.95211
2.58982
2.39076
2.28045
2.2486
2.23432
2.24348
2.25032
2.26014
2.26497
187.846
101.722
22.2404
9.80623
9.44227
8.10844
5.19552
4.14958
2.99081
2.36551
2.1179
1.99854
1.96575
1.99499
2.02843
2.07138
2.10103
2.12536
2.13716
238.775
80.6884
27.2076
10.6531
9.52522
7.87409
4.87379
3.46712
2.36573
1.67091
1.5395
1.53757
1.61491
1.71817
1.81061
1.89271
1.94787
1.98813
2.0081
187.26
74.1939
27.2067
11.6524
9.37206
7.66134
4.13953
1.90986
0.890477
0.743641
0.804633
0.992675
1.22456
1.42225
1.58757
1.71388
1.79726
1.85393
1.88265
104.904
65.8257
26.9505
10.8896
7.76909
5.73979
2.95115
-0.00783028
-0.448886
-0.592166
-0.0631966
0.379889
0.802472
1.11858
1.36444
1.53871
1.65063
1.72506
1.76624
74.3543
61.8108
21.8235
6.61802
4.33238
1.78999
-0.181561
-1.82102
-3.20617
-2.08866
-1.15934
-0.313185
0.367105
0.818208
1.15526
1.37813
1.51813
1.60933
1.65393
39.9879
58.0436
17.7735
1.66404
-2.12846
-3.9437
-5.80456
-6.61413
-5.43253
-4.78218
-2.38903
-1.04096
-0.0502317
0.561398
0.983893
1.24831
1.40967
1.51089
1.5475
23.3659
51.5216
13.962
-2.78248
-5.26375
-20.1022
-14.0338
-12.2761
-9.56475
-6.92961
-3.50122
-1.53623
-0.370369
0.384029
0.876976
1.13823
1.30794
1.41527
1.46749
15.1661
28.2968
-3.13198
-11.9046
-11.5459
-21.9071
-21.2163
-16.0971
-12.5034
-8.19723
-4.28454
-1.86175
-0.532409
0.240764
0.739636
1.05335
1.25074
1.37362
1.43506
15.339
7.07393
-6.72328
-17.571
-25.6143
-32.0064
-30.2577
-16.8088
-14.0468
-8.58733
-4.51208
-1.92757
-0.630509
0.157044
0.677802
1.01718
1.2294
1.36004
1.42477
14.7286
24.9052
18.9259
-6.85543
-33.0857
-32.5473
-21.3463
-13.4789
-12.5013
-7.65037
-3.91223
-1.63851
-0.40989
0.320054
0.781045
1.08905
1.28203
1.40163
1.45725
-1.14445
35.7831
26.0843
6.92882
-13.3754
-13.11
-6.13241
-6.88107
-8.0162
-4.82289
-2.25776
-0.805836
0.0835766
0.640081
0.990987
1.23617
1.39294
1.49083
1.53541
-19.0167
0.97062
24.412
22.7332
13.0478
2.2268
11.0361
2.171
-1.96278
-1.46066
-0.444353
0.235954
0.704645
1.05726
1.26467
1.43639
1.54623
1.61812
1.64821
-34.5341
-23.7237
8.78349
19.4663
17.5716
21.7735
15.0599
1.78048
-1.03712
0.0477053
0.882661
1.05139
1.25872
1.45336
1.54935
1.64382
1.71068
1.75782
1.77286
-37.3358
-24.593
2.08149
12.1612
22.3784
26.9751
9.56394
2.70858
1.14701
1.23775
1.6586
1.65907
1.61431
1.84117
1.78548
1.87307
1.91827
1.92482
1.91996
-31.5204
-13.4952
9.06318
19.1874
28.7622
17.6479
7.48196
4.52494
3.15366
2.49866
2.61104
2.16712
2.14212
2.23213
2.08071
2.03221
2.03282
2.03536
2.0162
-24.5503
-10.4054
10.8994
19.5971
19.9921
10.2012
7.52532
5.79821
4.31623
3.7532
3.22258
2.67296
2.39033
2.41835
2.21425
2.2052
2.13188
2.15884
2.14628
-17.0619
-7.58618
5.68467
13.7396
13.3282
9.47433
7.97554
6.45728
5.07988
4.62569
3.73788
3.12751
2.80584
2.63111
2.45236
2.38662
2.27336
2.26305
2.24412
-10.0094
-2.80367
5.7533
11.2356
11.1262
9.44668
8.02735
6.68074
5.16572
5.25668
4.14076
3.5033
3.08641
2.87114
2.60536
2.48874
2.34987
2.32448
2.29442
-4.58699
-0.226491
6.27242
9.63858
10.1934
8.72298
7.84411
6.77868
5.75892
5.07211
4.53238
3.59782
3.05646
3.12452
2.84676
2.58335
2.43966
2.38246
2.34162
-1.73615
1.0733
4.64466
7.17105
7.48421
8.24354
7.71464
6.79259
5.21236
4.95107
4.38065
3.83998
3.4821
3.31249
2.8001
2.69818
2.45973
2.45097
2.40172
-0.50002
1.7437
3.93397
5.49908
6.09595
6.16351
6.07864
5.91062
5.33723
4.71
4.49637
3.75764
3.34568
3.18843
2.87942
2.76469
2.50964
2.43405
2.4147
0.136493
1.79261
3.45942
4.69962
5.16046
5.32578
5.28658
5.24148
5.03444
4.66882
4.03166
3.75707
3.37421
3.06443
2.81449
2.59472
2.52594
2.46718
2.43145
0.40344
1.66585
2.86433
3.79067
4.29265
4.63476
4.64821
4.53471
4.29927
3.98364
3.52763
3.44751
3.08997
3.0059
2.80517
2.6692
2.42016
2.40035
2.35704
0.494342
1.48071
2.40097
3.12453
3.57176
3.83795
3.87022
3.79755
3.68023
3.5364
3.34428
3.12993
2.9773
2.665
2.60921
2.4845
2.45585
2.3501
2.34025
0.500783
1.28073
2.00128
2.57933
2.97595
3.23029
3.32434
3.33719
3.2615
3.12755
2.94907
2.7959
2.5549
2.51773
2.39617
2.24467
2.20049
2.08587
2.05897
0.470466
1.09009
1.65995
2.12556
2.46484
2.68995
2.79539
2.81995
2.78939
2.70583
2.6027
2.4974
2.38224
2.24037
2.18471
2.0843
2.02739
1.98085
1.96239
0.419651
0.918039
1.37296
1.75003
2.03625
2.23287
2.33946
2.37876
2.34601
2.31179
2.27858
2.20153
2.09245
2.00502
1.91649
1.8425
1.79105
1.74551
1.72705
0.340328
0.749727
1.11497
1.41988
1.65721
1.82509
1.92599
1.97177
1.96879
1.94115
1.90231
1.86485
1.83235
1.72898
1.66839
1.60606
1.56513
1.53491
1.52131
0.296538
0.614852
0.901622
1.14323
1.33509
1.47448
1.56394
1.61096
1.62514
1.61613
1.5916
1.55236
1.50354
1.44676
1.39826
1.3511
1.32306
1.30084
1.29014
0.231981
0.47283
0.697522
0.882573
1.03342
1.14423
1.21901
1.26156
1.27953
1.27557
1.25997
1.23368
1.20115
1.15893
1.12461
1.09306
1.07135
1.05516
1.04727
0.189678
0.365437
0.530378
0.665068
0.77573
0.858031
0.915059
0.948285
0.962356
0.963888
0.959177
0.945073
0.923803
0.894831
0.87183
0.850082
0.833538
0.821604
0.815771
0.124793
0.236346
0.345133
0.434012
0.506916
0.560398
0.597898
0.619771
0.629081
0.632485
0.631199
0.62301
0.609111
0.591614
0.575846
0.561664
0.550613
0.542895
0.539208
0.0876831
0.154006
0.219246
0.270881
0.31292
0.344858
0.368427
0.383076
0.390753
0.393565
0.39286
0.388252
0.382087
0.374416
0.365645
0.357571
0.351275
0.347119
0.34508
-0.00479753
-0.00388177
-0.00859207
-0.0112268
-0.0153211
-0.0184497
-0.0212427
-0.0234256
-0.025103
-0.0261691
-0.0267129
-0.0270072
-0.0270549
-0.0273235
-0.0277254
-0.0279792
-0.0281869
-0.0275814
-0.0270599
)
;

boundaryField
{
    leftWall
    {
        type            zeroGradient;
    }
    rightWall
    {
        type            zeroGradient;
    }
    lowerWall
    {
        type            zeroGradient;
    }
    atmosphere
    {
        type            totalPressure;
        rho             rho;
        psi             none;
        gamma           1;
        p0              uniform 0;
        value           nonuniform List<scalar> 
46
(
-0.0855061
-0.0859925
-0.0849314
-0.0834787
-0.0814193
-0.0790786
-0.0761244
-0.0732148
-0.0695163
-0.0666439
-0.0625046
-0.0612071
-0.0576652
-0.0641652
-0.0689474
-0.0629833
-0.052092
-0.0393175
-0.0259006
-0.0138856
-0.00616416
-0.00239101
-0.000844445
0
0
0
0
0
0
0
0
0
0
0
0
0
0
0
0
0
0
0
0
0
0
0
)
;
    }
    defaultFaces
    {
        type            empty;
    }
}


// ************************************************************************* //
