/*--------------------------------*- C++ -*----------------------------------*\
| =========                 |                                                 |
| \\      /  F ield         | foam-extend: Open Source CFD                    |
|  \\    /   O peration     | Version:     4.1                                |
|   \\  /    A nd           | Web:         http://www.foam-extend.org         |
|    \\/     M anipulation  |                                                 |
\*---------------------------------------------------------------------------*/
FoamFile
{
    version     2.0;
    format      ascii;
    class       surfaceScalarField;
    location    "0.15";
    object      phi;
}
// * * * * * * * * * * * * * * * * * * * * * * * * * * * * * * * * * * * * * //

dimensions      [0 3 -1 0 0 0 0];

internalField   nonuniform List<scalar> 
4432
(
5.67802e-06
-5.67802e-06
1.13458e-05
-5.66778e-06
1.74788e-05
-6.13297e-06
2.25258e-05
-5.04702e-06
2.96968e-05
-7.17106e-06
3.54034e-05
-5.70652e-06
4.04357e-05
-5.03235e-06
4.60894e-05
-5.65372e-06
5.01119e-05
-4.02249e-06
4.71963e-05
2.91565e-06
8.23297e-05
-3.51335e-05
9.16215e-05
-9.29174e-06
9.93772e-05
-7.7557e-06
0.0001078
-8.42254e-06
0.000109792
-1.99232e-06
0.000109454
3.38245e-07
0.000117758
-8.30451e-06
0.000114368
3.39003e-06
0.000111413
2.95481e-06
0.000102052
9.36103e-06
9.68848e-05
5.16762e-06
6.12042e-05
3.56806e-05
6.12042e-05
5.69416e-06
-1.13722e-05
1.13948e-05
-1.13684e-05
1.75122e-05
-1.22504e-05
2.26179e-05
-1.01527e-05
2.98068e-05
-1.436e-05
3.55997e-05
-1.14994e-05
4.06603e-05
-1.0093e-05
4.70937e-05
-1.20871e-05
5.04318e-05
-7.36056e-06
8.40167e-05
-3.06692e-05
8.36664e-05
-3.47832e-05
9.40065e-05
-1.96319e-05
0.00010151
-1.52593e-05
0.000106222
-1.31342e-05
0.000105179
-9.49233e-07
0.000103652
1.86463e-06
6.99855e-05
2.53623e-05
7.02449e-05
3.13066e-06
6.63762e-05
6.82349e-06
7.46531e-05
1.08421e-06
3.91509e-05
4.06698e-05
3.93743e-05
3.54572e-05
0.000100579
5.67333e-06
-1.70455e-05
1.13864e-05
-1.70814e-05
1.75237e-05
-1.83878e-05
2.24119e-05
-1.50409e-05
3.01298e-05
-2.20779e-05
3.54857e-05
-1.68553e-05
4.09229e-05
-1.55302e-05
4.80938e-05
-1.92579e-05
4.92597e-05
-8.52652e-06
7.95209e-05
-6.09304e-05
8.29864e-05
-3.82488e-05
9.22223e-05
-2.88677e-05
9.83017e-05
-2.13388e-05
0.000104271
-1.91037e-05
0.000106449
-3.12693e-06
0.00010873
-4.16683e-07
0.000118451
1.5642e-05
0.000117153
4.4286e-06
0.000115807
8.16916e-06
9.93819e-05
1.75092e-05
7.00514e-05
7.00003e-05
3.7657e-05
6.78516e-05
0.000138236
5.66621e-06
-2.27117e-05
1.14142e-05
-2.28295e-05
1.74971e-05
-2.44707e-05
2.26616e-05
-2.02053e-05
3.00874e-05
-2.95037e-05
3.52038e-05
-2.19718e-05
4.32929e-05
-2.36192e-05
4.70263e-05
-2.29914e-05
7.96669e-05
-4.11672e-05
7.66124e-05
-5.78759e-05
8.01662e-05
-4.18026e-05
8.93907e-05
-3.80921e-05
9.49878e-05
-2.69359e-05
0.000100494
-2.461e-05
0.000104818
-7.45119e-06
0.000109314
-4.91261e-06
0.000116392
8.56475e-06
0.000117391
3.42904e-06
0.000117709
7.85168e-06
0.000117095
1.81227e-05
9.60056e-05
9.10898e-05
4.53852e-05
0.000118472
0.000183621
5.62207e-06
-2.83338e-05
1.14119e-05
-2.86193e-05
1.75163e-05
-3.05751e-05
2.28904e-05
-2.55795e-05
2.98213e-05
-3.64346e-05
3.52073e-05
-2.73578e-05
4.33493e-05
-3.17612e-05
4.56869e-05
-2.53289e-05
7.39009e-05
-6.93812e-05
7.45781e-05
-5.85531e-05
7.90413e-05
-4.62658e-05
8.84061e-05
-4.74569e-05
9.40052e-05
-3.2535e-05
9.9728e-05
-3.03328e-05
0.000107971
-1.56945e-05
0.000115257
-1.21988e-05
0.000122447
1.375e-06
0.00012406
1.81586e-06
0.000124614
7.29796e-06
0.000132547
1.01901e-05
0.000110448
0.000113188
5.18912e-05
0.000177029
0.000235512
5.62662e-06
-3.39604e-05
1.14445e-05
-3.44372e-05
1.75863e-05
-3.67169e-05
2.31235e-05
-3.11166e-05
2.98015e-05
-4.31126e-05
3.72585e-05
-3.48147e-05
4.11378e-05
-3.56406e-05
6.89762e-05
-5.31673e-05
6.72361e-05
-6.7641e-05
7.30007e-05
-6.43177e-05
7.99787e-05
-5.32438e-05
8.97617e-05
-5.724e-05
9.59883e-05
-3.87615e-05
0.000103648
-3.79928e-05
0.000114116
-2.61621e-05
0.000122134
-2.02167e-05
0.000129025
-5.51657e-06
0.00012932
1.52113e-06
0.000127876
8.74218e-06
8.37475e-05
5.43185e-05
0.000136198
6.07381e-05
5.70723e-05
0.000256154
0.000292584
5.55308e-06
-3.95135e-05
1.15019e-05
-4.0386e-05
1.77647e-05
-4.29797e-05
2.33374e-05
-3.66893e-05
3.05835e-05
-5.03587e-05
3.47643e-05
-3.89955e-05
3.68734e-05
-3.77496e-05
6.20348e-05
-7.83288e-05
6.56288e-05
-7.12351e-05
7.25714e-05
-7.12603e-05
8.17647e-05
-6.24371e-05
9.28992e-05
-6.83744e-05
9.93308e-05
-4.51931e-05
0.000107578
-4.62404e-05
0.000118116
-3.67001e-05
0.00012795
-3.00501e-05
0.000137939
-1.55061e-05
0.000143505
-4.04459e-06
0.000140217
1.203e-05
0.000155295
3.92411e-05
7.62069e-05
0.000139826
5.9993e-05
0.000272368
0.000352577
5.6466e-06
-4.51601e-05
1.17103e-05
-4.64497e-05
1.78241e-05
-4.90935e-05
2.35107e-05
-4.23759e-05
3.03633e-05
-5.72114e-05
3.15661e-05
-4.01982e-05
5.77654e-05
-6.3949e-05
6.02915e-05
-8.08549e-05
6.62731e-05
-7.72166e-05
7.44691e-05
-7.94563e-05
8.49992e-05
-7.29672e-05
9.48176e-05
-7.81928e-05
9.89942e-05
-4.93698e-05
0.00010783
-5.50758e-05
0.000118525
-4.73957e-05
0.000131992
-4.3517e-05
0.000142436
-2.59495e-05
0.000146397
-8.00635e-06
0.000145686
1.2741e-05
8.85539e-05
9.63735e-05
0.000150416
7.79632e-05
0.000105602
0.000317183
0.000458179
-5.65678e-06
5.65678e-06
-1.11176e-05
5.46088e-06
-1.68836e-05
5.76591e-06
-2.20029e-05
5.11933e-06
-2.45298e-05
2.52687e-06
-2.61638e-05
1.63392e-06
-2.71472e-05
9.83502e-07
-2.85721e-05
1.42486e-06
-2.97549e-05
1.18287e-06
-3.09812e-05
1.22621e-06
-3.19416e-05
9.60465e-07
-3.43168e-05
2.37516e-06
-3.6797e-05
2.48022e-06
-1.92447e-05
-1.75523e-05
-1.62347e-05
-3.00996e-06
-1.12612e-05
-4.97345e-06
-7.62269e-06
-3.63846e-06
-3.76504e-06
-3.85772e-06
-3.76494e-06
-6.77222e-06
1.2429e-05
-1.27206e-05
1.14093e-05
-1.85192e-05
1.15645e-05
-2.37495e-05
1.03495e-05
-2.59405e-05
4.71793e-06
-2.7641e-05
3.33435e-06
-2.85878e-05
1.93041e-06
-2.99055e-05
2.74253e-06
-3.04967e-05
1.77409e-06
-3.07623e-05
1.49175e-06
-3.18499e-05
2.04818e-06
-1.85131e-05
-1.09618e-05
-2.03717e-05
4.33894e-06
-1.93389e-05
-1.85851e-05
-1.56496e-05
-6.69922e-06
-1.15622e-05
-9.06094e-06
-7.75564e-06
-7.44489e-06
-3.84735e-06
-7.76627e-06
-7.61219e-06
-5.89435e-06
1.83233e-05
-1.29751e-05
1.849e-05
-1.97134e-05
1.83027e-05
-2.37677e-05
1.44037e-05
-2.55992e-05
6.54957e-06
-2.73011e-05
5.03622e-06
-2.81812e-05
2.81059e-06
-2.95489e-05
4.11016e-06
-3.09575e-05
3.18277e-06
-3.24644e-05
2.99855e-06
-3.35747e-05
3.15861e-06
-3.61487e-05
-8.3878e-06
-2.04588e-05
-1.13511e-05
-1.96776e-05
-1.93664e-05
-1.54098e-05
-1.09671e-05
-1.15749e-05
-1.2896e-05
-7.73312e-06
-1.12866e-05
-3.84717e-06
-1.16525e-05
-1.14593e-05
-8.69553e-06
2.70188e-05
-1.41955e-05
2.39899e-05
-2.10397e-05
2.51469e-05
-2.5472e-05
1.88359e-05
-2.5254e-05
6.33161e-06
-2.69289e-05
6.71111e-06
-2.84545e-05
4.33625e-06
-3.02413e-05
5.89696e-06
-3.13424e-05
4.2839e-06
-3.24494e-05
4.1055e-06
-3.46415e-05
5.35074e-06
-1.90391e-05
-2.39904e-05
-2.04276e-05
-9.96254e-06
-1.91727e-05
-2.06212e-05
-1.51577e-05
-1.49821e-05
-1.15332e-05
-1.65206e-05
-7.7106e-06
-1.51091e-05
-3.84903e-06
-1.55142e-05
-1.53083e-05
-8.09164e-06
3.51104e-05
-1.63968e-05
3.2295e-05
-2.24333e-05
3.11835e-05
-2.62283e-05
2.26308e-05
-2.69333e-05
7.03671e-06
-2.8346e-05
8.12376e-06
-2.97993e-05
5.78968e-06
-3.04744e-05
6.57206e-06
-3.04228e-05
4.23231e-06
-3.41156e-05
7.79827e-06
-1.95437e-05
-9.2211e-06
-3.80401e-05
-5.49395e-06
-2.0592e-05
-2.74106e-05
-1.93837e-05
-2.18294e-05
-1.49698e-05
-1.93961e-05
-1.15667e-05
-1.99237e-05
-7.69696e-06
-1.89788e-05
-3.85392e-06
-1.93574e-05
-1.91621e-05
-8.9118e-06
4.40222e-05
-1.7149e-05
4.05322e-05
-2.44045e-05
3.8439e-05
-2.81047e-05
2.63309e-05
-2.61576e-05
5.08973e-06
-2.77642e-05
9.73033e-06
-3.00758e-05
8.10145e-06
-3.16591e-05
8.1554e-06
-3.22762e-05
4.8494e-06
-1.77196e-05
-6.75817e-06
-1.98609e-05
-7.07979e-06
-2.02627e-05
-5.09214e-06
-2.03259e-05
-2.73473e-05
-1.85593e-05
-2.35961e-05
-1.50173e-05
-2.2938e-05
-1.15073e-05
-2.34337e-05
-7.69777e-06
-2.27882e-05
-3.85753e-06
-2.31977e-05
-2.30196e-05
-1.27644e-05
5.67865e-05
-2.07961e-05
4.85638e-05
-2.63466e-05
4.39895e-05
-1.57143e-05
1.56986e-05
-2.65326e-05
1.59082e-05
-2.83373e-05
1.15351e-05
-3.13104e-05
1.10747e-05
-3.51229e-05
1.19679e-05
-1.83228e-05
-1.19507e-05
-1.90205e-05
-6.06052e-06
-1.97584e-05
-6.34193e-06
-2.02658e-05
-4.5848e-06
-2.05135e-05
-2.70996e-05
-1.85159e-05
-2.55937e-05
-1.50168e-05
-2.64372e-05
-1.15312e-05
-2.69192e-05
-7.70643e-06
-2.66129e-05
-3.86637e-06
-2.70379e-05
-2.6886e-05
-1.99286e-05
7.67151e-05
-2.73896e-05
5.60248e-05
-1.53898e-05
3.19898e-05
-1.67561e-05
1.7065e-05
-1.37449e-05
1.28971e-05
-1.39691e-05
1.17592e-05
-1.68977e-05
1.40032e-05
-1.89437e-05
1.40138e-05
-1.8159e-05
-1.27353e-05
-3.71579e-05
1.29384e-05
-2.1545e-05
-2.19548e-05
-2.21112e-05
-4.01858e-06
-2.05717e-05
-2.8639e-05
-1.83802e-05
-2.77852e-05
-1.50335e-05
-2.97838e-05
-1.15136e-05
-3.04392e-05
-7.71391e-06
-3.04125e-05
-3.8693e-06
-3.08825e-05
-3.07553e-05
1.167e-05
-5.68301e-05
2.448e-05
-5.92597e-05
3.44279e-05
-5.90414e-05
4.88984e-05
-5.68464e-05
5.75672e-05
-6.58801e-05
9.9281e-05
-8.1912e-05
0.000116842
-8.15097e-05
0.000127943
-9.19563e-05
0.000142833
-9.2107e-05
0.0001599
-9.6523e-05
0.00018443
-9.74975e-05
0.000207444
-0.000101207
0.000203863
-4.5788e-05
0.00022568
-7.68929e-05
0.000254765
-7.64805e-05
0.000293023
-8.17751e-05
0.000332233
-6.51597e-05
0.000345837
-2.16108e-05
0.000347433
1.11451e-05
0.000357959
8.58482e-05
0.000231488
0.000204434
0.000365115
0.000183557
0.000468461
0.000354833
1.09743e-05
-6.78043e-05
2.48773e-05
-7.31628e-05
3.50454e-05
-6.92095e-05
6.58418e-05
-8.76428e-05
8.07404e-05
-8.07787e-05
9.54097e-05
-9.65813e-05
0.000109847
-9.59466e-05
0.000123084
-0.000105194
0.000141833
-0.000110857
0.000161854
-0.000116543
0.000181958
-0.000117602
0.000204455
-0.000123704
0.000213354
-5.46862e-05
0.000245079
-0.000108618
0.000290284
-0.000121686
0.000326168
-0.000117659
0.000346412
-8.54039e-05
0.000337094
-1.22924e-05
0.000310468
3.7771e-05
0.000229101
0.000167215
0.000296366
0.000137168
0.000341018
0.000138904
0.000434404
0.000375075
1.57807e-05
-8.3585e-05
3.10206e-05
-8.84027e-05
4.87962e-05
-8.69851e-05
6.1521e-05
-0.000100368
7.73212e-05
-9.6579e-05
9.01678e-05
-0.000109428
0.000106228
-0.000112007
0.000122213
-0.000121179
0.000140474
-0.000129117
0.000160717
-0.000136786
0.000181639
-0.000138525
0.000205446
-0.000147511
0.000217738
-6.69776e-05
0.000261461
-0.000152342
0.00030214
-0.000162365
0.000327554
-0.000143072
0.000335503
-9.33532e-05
0.000335404
-1.2194e-05
0.000323679
4.94965e-05
0.000386325
0.000104569
0.00027142
0.000252073
0.000214905
0.000195419
0.000405136
0.000244173
1.56181e-05
-9.92031e-05
3.04568e-05
-0.000103242
4.56067e-05
-0.000102135
5.68449e-05
-0.000111606
7.18097e-05
-0.000111544
8.57889e-05
-0.000123407
0.000100138
-0.000126356
0.000114911
-0.000135951
0.000132809
-0.000147015
0.000152308
-0.000156285
0.000174341
-0.000160557
0.00019923
-0.0001724
0.00021995
-8.7698e-05
0.000271561
-0.000203952
0.000306035
-0.00019684
0.000316861
-0.000153898
0.000318429
-9.49211e-05
0.000330338
-2.41027e-05
0.000320403
5.94319e-05
0.000219674
0.000205297
0.000301096
0.000170652
0.000314854
0.000181661
0.000321895
0.000398094
1.33984e-05
-0.000112602
2.58214e-05
-0.000115664
3.93858e-05
-0.000115699
5.15686e-05
-0.000123789
6.57276e-05
-0.000125703
7.72442e-05
-0.000134924
9.05386e-05
-0.000139651
0.000106901
-0.000152314
0.00012419
-0.000164304
0.000141919
-0.000174015
0.000163715
-0.000182353
0.000197
-0.000205685
0.000227645
-0.000118343
0.000264796
-0.000241103
0.000271237
-0.000203281
0.0002729
-0.000155561
0.000273721
-9.57422e-05
0.000280876
-3.12575e-05
0.000253233
8.70747e-05
0.00031057
0.000147961
0.000231364
0.000249858
0.000165878
0.000247147
0.000149184
0.000338589
1.21216e-05
-0.000124723
2.35621e-05
-0.000127105
3.63366e-05
-0.000128474
4.67269e-05
-0.000134179
5.88824e-05
-0.000137858
6.9378e-05
-0.000145419
8.2405e-05
-0.000152678
9.59385e-05
-0.000165847
0.000108699
-0.000177064
0.000123422
-0.000188738
0.000146887
-0.000205818
0.000189068
-0.000247866
0.000217255
-0.000146531
0.000231073
-0.000254921
0.000230063
-0.000202272
0.000224738
-0.000150236
0.00021316
-8.41642e-05
0.000149598
3.23042e-05
0.000154113
8.25597e-05
0.000204815
9.7259e-05
0.000197032
0.000257641
0.000250446
0.000193733
0.00011836
0.00028127
1.04217e-05
-0.000135145
2.05631e-05
-0.000137246
3.09102e-05
-0.000138821
4.05961e-05
-0.000143865
5.18619e-05
-0.000149124
6.08242e-05
-0.000154382
7.18898e-05
-0.000163743
8.01662e-05
-0.000174124
8.79516e-05
-0.00018485
0.000101355
-0.000202141
0.000131023
-0.000235485
0.000173578
-0.000290421
0.000188751
-0.000161703
0.000181668
-0.000247838
0.000174443
-0.000195047
0.00017232
-0.000148112
0.000183885
-9.57288e-05
0.000180294
3.58945e-05
0.000188657
7.41971e-05
0.000313768
-2.78522e-05
0.000207091
0.000364318
0.000201288
0.000199536
9.81741e-05
0.000221474
9.17347e-06
-0.000144318
1.78683e-05
-0.000145941
2.76602e-05
-0.000148613
3.57611e-05
-0.000151966
4.45411e-05
-0.000157904
5.31708e-05
-0.000163011
6.22366e-05
-0.000172809
6.41519e-05
-0.000176039
6.79233e-05
-0.000188621
7.98566e-05
-0.000214075
0.000109102
-0.000264731
0.000135573
-0.000316892
0.000136793
-0.000162924
0.000125318
-0.000236362
0.000139271
-0.000209001
0.000182727
-0.000191568
0.000218106
-0.000131108
0.000273097
-1.90967e-05
0.000224404
0.00012289
0.000213462
-1.69097e-05
0.000248405
0.000329375
0.000161611
0.00028633
7.76152e-05
0.00018217
7.6348e-06
-0.000151953
1.54043e-05
-0.000153711
2.2603e-05
-0.000155811
2.97689e-05
-0.000159132
3.79265e-05
-0.000166062
4.38076e-05
-0.000168892
4.90708e-05
-0.000178072
4.4889e-05
-0.000171857
5.13825e-05
-0.000195114
6.58067e-05
-0.000228499
8.40963e-05
-0.00028302
9.45412e-05
-0.000327337
9.48983e-05
-0.000163281
9.66048e-05
-0.000238068
0.000137622
-0.000250018
0.000196651
-0.000250596
0.000187648
-0.000122106
0.000241928
-7.33765e-05
0.000291288
7.35301e-05
0.000241192
3.31857e-05
0.000257743
0.000312824
0.000225977
0.000318096
0.000122713
0.000180879
7.11224e-06
-0.000159065
1.38048e-05
-0.000160403
2.01886e-05
-0.000162195
2.65676e-05
-0.000165511
3.18803e-05
-0.000171374
3.89183e-05
-0.00017593
4.15437e-05
-0.000180698
2.94812e-05
-0.000159795
3.95164e-05
-0.00020515
4.55566e-05
-0.000234539
4.72288e-05
-0.000284692
4.62684e-05
-0.000326376
6.31981e-05
-0.000180211
7.58204e-05
-0.000250691
8.42016e-05
-0.000258399
2.07433e-05
-0.000187138
8.48055e-06
-0.000109843
2.89215e-05
-9.38174e-05
8.13249e-05
2.11268e-05
0.000189007
-7.4496e-05
0.000227857
0.000273974
0.000249507
0.000296445
0.000156636
0.000215585
7.16375e-06
-0.000166229
1.44529e-05
-0.000167693
2.10288e-05
-0.000168771
2.9003e-05
-0.000173485
3.64098e-05
-0.000178781
4.83883e-05
-0.000187909
6.06273e-05
-0.000192937
8.49369e-05
-0.000184104
7.08179e-05
-0.000191031
2.79893e-05
-0.000191711
-2.78052e-05
-0.000228898
-1.38512e-06
-0.000352796
2.09851e-05
-0.000202581
9.69758e-06
-0.000239403
-0.000109578
-0.000139124
-0.000161589
-0.000135127
-0.000130839
-0.000140592
-0.000132824
-9.18333e-05
-4.30716e-05
-6.86251e-05
2.2699e-05
-0.000140267
0.000145094
0.000151579
0.000235609
0.00020593
0.000177843
0.000214402
7.60877e-06
-0.000173838
1.49461e-05
-0.00017503
2.10496e-05
-0.000174874
2.63428e-05
-0.000178778
2.76091e-05
-0.000180047
2.65605e-05
-0.00018686
2.43403e-05
-0.000190716
2.1581e-05
-0.000181345
1.99306e-05
-0.00018938
1.75592e-05
-0.000189339
3.16828e-06
-0.000214507
5.19691e-06
-0.000354825
-1.43204e-05
-0.000183064
-0.000102801
-0.000150923
-0.000134006
-0.000107919
-0.000114104
-0.000155029
-0.000147148
-0.000107548
-0.000145891
-9.30904e-05
-7.33993e-05
-0.000141116
-0.000133841
-7.98248e-05
-2.81636e-05
4.59012e-05
0.000117861
5.99055e-05
9.66133e-05
0.000199091
4.96648e-06
-0.000178804
7.89233e-06
-0.000177956
8.72377e-06
-0.000175706
8.89941e-06
-0.000178954
9.83638e-06
-0.000180984
1.28816e-05
-0.000189906
3.04373e-05
-0.000208272
3.64175e-05
-0.000187325
1.3324e-05
-0.000166287
1.08333e-07
-0.000176123
-2.20818e-05
-0.000192317
-3.59119e-05
-0.000340995
-8.22087e-05
-0.000136767
-0.000124411
-0.00010872
-0.000135089
-9.72411e-05
-7.18382e-05
-0.00021828
-6.55126e-05
-0.000113874
-6.57729e-05
-9.28301e-05
-0.000115627
-9.12619e-05
-7.74025e-05
-0.00011805
-5.05776e-07
-3.09954e-05
0.00011115
-5.17499e-05
2.65254e-05
0.000181237
-1.38504e-06
-0.000177419
-2.89544e-06
-0.000176445
-3.62691e-06
-0.000174974
-1.99166e-06
-0.000180589
5.78948e-07
-0.000183555
5.39998e-06
-0.000194727
3.07341e-05
-0.000233606
6.48496e-05
-0.000221441
3.44016e-05
-0.000135839
4.58374e-06
-0.000146306
-2.5791e-05
-0.000161942
-0.000135105
-0.000231681
-0.000122011
-0.00014986
-0.000113956
-0.000116775
-6.08207e-05
-0.000150377
-6.39971e-05
-0.000215103
-5.80111e-05
-0.00011986
-4.92799e-05
-0.000101561
-5.13395e-05
-8.92022e-05
-1.72588e-05
-0.00015213
3.89986e-05
-8.72528e-05
8.70505e-05
-9.98017e-05
-9.35214e-05
0.000207098
-9.69149e-07
-0.00017645
-2.54769e-06
-0.000174867
-3.31725e-06
-0.000174205
-3.8102e-06
-0.000180096
-1.12822e-06
-0.000186237
7.86764e-07
-0.000196642
9.65936e-06
-0.000242479
8.85874e-06
-0.00022064
3.7245e-05
-0.000164225
2.26839e-06
-0.000111329
-3.53893e-05
-0.000124284
-8.23255e-05
-0.000184745
-7.69168e-05
-0.000155269
-5.96323e-05
-0.000134059
-3.24359e-05
-0.000177573
-9.99799e-05
-0.000147559
-3.95926e-05
-0.000180248
-3.90726e-05
-0.000102081
-2.16832e-05
-0.000106592
7.85509e-06
-0.000181669
5.00429e-05
-0.000129441
9.19533e-05
-0.000141712
-0.000218442
0.000216874
2.25692e-06
-0.000178707
6.31277e-06
-0.000178923
1.4575e-05
-0.000182467
1.66971e-05
-0.000182218
2.01748e-05
-0.000189715
3.00973e-05
-0.000206564
2.40245e-05
-0.000236406
1.10707e-05
-0.000207686
1.28492e-05
-0.000166003
1.16895e-05
-0.000110169
-2.73249e-06
-0.000109862
-3.98372e-05
-0.00014764
-4.84729e-05
-0.000146633
-1.99489e-05
-0.000162583
-3.04898e-05
-0.000167032
-4.61929e-05
-0.000131856
-4.87522e-05
-0.000177688
-4.3593e-05
-0.00010724
1.94984e-05
-0.000169683
3.32219e-05
-0.000195392
7.18891e-05
-0.000168108
0.000156334
-0.000226157
-0.000278072
0.000215964
1.94811e-06
-0.000180655
7.21768e-06
-0.000184192
1.56047e-05
-0.000190854
2.53866e-05
-0.000192
4.09439e-05
-0.000205272
5.03413e-05
-0.000215962
3.49457e-05
-0.00022101
5.18024e-05
-0.000224543
3.92968e-05
-0.000153498
3.06093e-05
-0.000101482
2.10316e-05
-0.000100285
8.97844e-06
-0.000135587
1.27479e-06
-0.00013893
-1.86274e-05
-0.000142681
1.24745e-05
-0.000198134
5.61209e-06
-0.000124994
-3.68966e-05
-0.00013518
-1.82545e-05
-0.000125882
1.92756e-05
-0.000207213
4.73223e-05
-0.000223439
0.000123926
-0.000244712
0.000180518
-0.000282749
-0.000316123
0.000218569
9.88172e-06
-0.000190537
2.11549e-05
-0.000195465
2.85231e-05
-0.000198222
2.86585e-05
-0.000192135
1.99136e-05
-0.000196527
6.20637e-07
-0.000196669
-2.16112e-05
-0.000198778
-5.30056e-05
-0.000193149
-1.32377e-05
-0.000193266
2.84232e-05
-0.000143143
3.94599e-05
-0.000111321
1.87635e-05
-0.000114891
5.25957e-06
-0.000125426
-2.08615e-05
-0.00011656
-4.44174e-05
-0.000174578
-4.63132e-05
-0.000123098
-4.58729e-05
-0.00013562
1.19036e-05
-0.000183659
2.61172e-05
-0.000221427
4.41701e-05
-0.000241492
8.70571e-05
-0.000287599
0.000119655
-0.000315347
-0.000412366
0.000215899
-4.54537e-06
-0.000185991
-1.42015e-07
-0.000199869
2.93969e-06
-0.000201304
-4.30663e-05
-0.000146129
-1.34148e-05
-0.000226179
-5.35757e-05
-0.000156508
-8.65747e-05
-0.000165779
-4.18749e-05
-0.000237848
-7.52093e-05
-0.000159931
-7.24406e-05
-0.000145911
-4.91227e-05
-0.000134639
-4.61132e-05
-0.0001179
-4.3899e-05
-0.00012764
-3.87437e-05
-0.000121716
-4.29253e-05
-0.000170397
-3.04602e-05
-0.000135563
-3.38988e-06
-0.00016269
2.38358e-06
-0.000189432
8.05598e-06
-0.000227099
2.13484e-05
-0.000254784
3.55534e-05
-0.000301804
7.46126e-05
-0.000354406
-0.000465988
0.000128234
-1.32182e-05
-0.000172773
-3.12619e-05
-0.000181825
-5.07589e-05
-0.000181807
-1.96555e-05
-0.000177233
-5.43074e-05
-0.000191527
-1.54702e-05
-0.000195345
-5.67726e-05
-0.000124477
-0.000100878
-0.000193743
-8.49097e-05
-0.0001759
-0.000106107
-0.000124714
-0.000117409
-0.000123338
-5.83648e-05
-0.000176944
-6.2349e-05
-0.000123656
-1.88065e-05
-0.000165258
-2.47215e-05
-0.000164482
-3.71169e-05
-0.000123168
-2.7118e-05
-0.000172689
-1.63447e-05
-0.000200205
-8.49106e-06
-0.000234953
-3.96049e-06
-0.000259314
1.1352e-05
-0.000317116
5.07905e-05
-0.000393845
-0.000516107
0.000100909
-4.27819e-06
-0.000168495
-9.25999e-06
-0.000176843
-1.47238e-05
-0.000176343
-2.18879e-05
-0.000170069
-3.1824e-05
-0.00018159
-6.23054e-05
-0.000164863
-2.3889e-05
-0.000162893
-4.5411e-05
-0.000172221
-6.93511e-05
-0.00015196
-4.95796e-05
-0.000144486
-2.62516e-05
-0.000146666
-4.98914e-05
-0.000153304
-2.88996e-05
-0.000144648
-3.86903e-05
-0.000155467
-8.31305e-05
-0.000120042
-4.49864e-05
-0.000161312
-3.50863e-05
-0.000182589
-2.77155e-05
-0.000207576
-2.72421e-05
-0.000235426
-2.89711e-05
-0.000257585
-1.97965e-05
-0.000326291
-1.27116e-05
-0.000400929
-0.000531422
2.60381e-06
-5.80253e-06
-0.000162692
-1.12168e-05
-0.000171429
-1.74884e-05
-0.000170071
-2.27946e-05
-0.000164762
-3.20246e-05
-0.000172361
-3.58111e-05
-0.000161077
-3.64106e-05
-0.000162294
-4.86903e-05
-0.000159941
-5.69244e-05
-0.000143726
-5.63069e-05
-0.000145103
-7.37482e-05
-0.000129225
-8.74542e-05
-0.000139598
-8.82609e-05
-0.000143841
-7.35675e-05
-0.000170161
-3.2653e-05
-0.000160956
-5.62188e-05
-0.000137746
-4.85585e-05
-0.00019025
-4.32543e-05
-0.00021288
-4.53242e-05
-0.000233356
-5.36978e-05
-0.000249212
-6.37103e-05
-0.000316278
-6.02622e-05
-0.000404377
-0.000417455
-0.000174229
-3.00572e-06
-0.000159687
-1.08437e-05
-0.000163591
-1.8467e-05
-0.000162448
-2.41651e-05
-0.000159064
-3.4866e-05
-0.00016166
-4.27281e-05
-0.000153215
-5.38851e-05
-0.000151137
-7.0233e-05
-0.000143593
-7.97539e-05
-0.000134205
-5.1464e-05
-0.000173393
-8.24156e-05
-9.82731e-05
-0.000112483
-0.000109531
-9.58584e-05
-0.000160466
-8.14514e-05
-0.000184568
-0.000102937
-0.00013947
-5.2675e-05
-0.000188009
-5.01039e-05
-0.000192821
-4.97385e-05
-0.000213246
-5.1534e-05
-0.000231561
-8.89675e-05
-0.000211778
-0.000119063
-0.000286183
-0.000159398
-0.000364043
-0.000324901
-0.000251952
-4.95451e-06
-0.000154732
-1.19277e-05
-0.000156618
-1.83456e-05
-0.00015603
-2.48441e-05
-0.000152566
-3.24738e-05
-0.00015403
-3.85353e-05
-0.000147154
-4.27246e-05
-0.000146948
-4.37232e-05
-0.000142595
-4.00272e-05
-0.000137901
-8.93642e-05
-0.000124056
-7.47258e-05
-0.000112912
-6.80781e-05
-0.000116179
-0.000106169
-0.000122375
-9.29088e-05
-0.000197828
-3.77295e-05
-0.00019465
-9.08063e-05
-0.000134932
-6.37793e-05
-0.000219848
-6.78286e-05
-0.000209197
-6.49845e-05
-0.000234405
-9.05249e-05
-0.000186238
-0.00015315
-0.000223557
-0.000239408
-0.000277785
-0.000274385
-0.000289924
-5.49441e-06
-0.000149238
-1.2736e-05
-0.000149376
-1.9135e-05
-0.000149631
-2.58054e-05
-0.000145895
-3.29526e-05
-0.000146883
-3.91755e-05
-0.000140931
-4.54222e-05
-0.000140701
-5.25589e-05
-0.000135458
-7.10078e-05
-0.000119452
-7.38881e-05
-0.000121176
-7.34056e-05
-0.000113394
-7.54356e-05
-0.000114149
-7.97838e-05
-0.000118027
-7.58446e-05
-0.000201768
-6.58974e-05
-0.000204597
-7.22707e-05
-0.000128559
-5.89085e-05
-0.00023321
-9.34491e-05
-0.000174656
-0.000109996
-0.000217858
-0.000129067
-0.000167166
-0.000169199
-0.000183425
-0.000238285
-0.0002087
-0.000207018
-0.000305651
-6.81864e-06
-0.000142419
-1.32949e-05
-0.0001429
-2.12041e-05
-0.000141722
-2.53727e-05
-0.000141727
-3.12063e-05
-0.000141049
-3.71896e-05
-0.000134947
-4.27863e-05
-0.000135104
-6.04786e-05
-0.000117766
-6.44328e-05
-0.000115498
-7.1764e-05
-0.000113845
-7.29388e-05
-0.000112219
-7.65128e-05
-0.000110575
-8.32777e-05
-0.000111262
-8.20558e-05
-0.00020299
-7.69189e-05
-0.000209734
-7.90367e-05
-0.000126441
-0.000141396
-0.00017085
-8.0552e-05
-0.0002355
-0.00013253
-0.00016588
-0.000156042
-0.000143655
-0.000193576
-0.000145891
-0.000252524
-0.000149751
-0.000142879
-0.000316664
-6.81212e-06
-0.000135607
-1.26368e-05
-0.000137075
-2.02892e-05
-0.00013407
-2.43646e-05
-0.000137651
-3.26624e-05
-0.000132752
-3.76906e-05
-0.000129919
-5.79056e-05
-0.000114889
-6.06287e-05
-0.000115043
-6.50363e-05
-0.000111091
-6.87424e-05
-0.000110139
-7.21319e-05
-0.00010883
-7.53731e-05
-0.000107334
-8.05048e-05
-0.00010613
-8.93864e-05
-0.000194108
-0.000100754
-0.000198366
-0.000105314
-0.000121881
-9.3717e-05
-0.000182447
-0.000177646
-0.000151571
-0.000136894
-0.000206631
-0.00014418
-0.000136369
-0.000181339
-0.000108732
-0.000225963
-0.000105127
-9.46444e-05
-0.000274197
-7.13209e-06
-0.000128475
-1.44222e-05
-0.000129785
-2.05332e-05
-0.000127959
-2.85018e-05
-0.000129683
-4.28018e-05
-0.000118452
-5.22009e-05
-0.00012052
-5.66454e-05
-0.000110445
-5.98541e-05
-0.000111834
-6.38285e-05
-0.000107116
-6.7926e-05
-0.000106041
-7.2399e-05
-0.000104357
-7.71631e-05
-0.00010257
-8.19188e-05
-0.000101374
-8.99528e-05
-0.000186074
-0.000100499
-0.00018782
-5.15429e-05
-0.000170837
-0.000119562
-0.000114428
-0.000106334
-0.000164799
-0.000112173
-0.000200793
-0.000159895
-8.86463e-05
-0.000189486
-7.91419e-05
-0.000220286
-7.43264e-05
-5.59029e-05
-0.000259028
-5.5812e-06
-0.000122894
-1.29221e-05
-0.000122444
-1.85886e-05
-0.000122292
-3.33574e-05
-0.000114914
-3.84461e-05
-0.000113363
-4.74795e-05
-0.000111487
-5.04861e-05
-0.000107438
-5.6134e-05
-0.000106186
-5.99772e-05
-0.000103273
-6.39853e-05
-0.000102033
-6.8354e-05
-9.9988e-05
-7.265e-05
-9.82735e-05
-7.70774e-05
-9.6947e-05
-8.56152e-05
-0.000177536
-9.84928e-05
-0.000174942
-0.000106314
-0.000163016
-0.000112329
-0.000108413
-0.000122961
-0.000154167
-0.000211412
-0.000112341
-0.000148632
-0.000151426
-0.000176305
-5.1469e-05
-0.000197754
-5.28777e-05
-2.70599e-05
-0.000226597
-7.94939e-06
-0.000114944
-1.60592e-05
-0.000114334
-2.51481e-05
-0.000113203
-3.0916e-05
-0.000109146
-3.60985e-05
-0.000108181
-4.21679e-05
-0.000105417
-4.66082e-05
-0.000102998
-5.1428e-05
-0.000101366
-5.59819e-05
-9.87194e-05
-6.09966e-05
-9.70183e-05
-6.62465e-05
-9.47381e-05
-7.15595e-05
-9.29606e-05
-7.78555e-05
-9.06511e-05
-8.89613e-05
-0.00016643
-0.000100798
-0.000163105
-0.000110725
-0.000153089
-8.56852e-05
-0.000133453
-0.000145006
-9.48462e-05
-0.000154651
-0.000102696
-0.000216718
-8.93592e-05
-0.000169961
-9.82261e-05
-0.000180607
-4.22318e-05
-8.38955e-06
-0.000199277
-8.21342e-06
-0.000106731
-1.56441e-05
-0.000106904
-2.26722e-05
-0.000106175
-2.75849e-05
-0.000104234
-3.33472e-05
-0.000102418
-3.79967e-05
-0.000100768
-4.24746e-05
-9.85201e-05
-4.72935e-05
-9.65475e-05
-5.1487e-05
-9.4526e-05
-5.61875e-05
-9.23178e-05
-6.05567e-05
-9.03689e-05
-6.56077e-05
-8.79095e-05
-7.06649e-05
-8.55939e-05
-8.11198e-05
-0.000155976
-9.23601e-05
-0.000151865
-0.000102753
-0.000142696
-0.000105903
-0.000130303
-0.000119905
-8.08447e-05
-0.000150653
-7.19473e-05
-0.000143246
-9.67664e-05
-0.000128619
-0.000112853
-0.00015961
-1.12414e-05
6.45731e-06
-0.000174456
-5.8666e-06
-0.000100864
-1.14795e-05
-0.000101291
-1.72797e-05
-0.000100375
-2.29114e-05
-9.86022e-05
-2.76992e-05
-9.76306e-05
-3.29459e-05
-9.55213e-05
-3.76945e-05
-9.37716e-05
-4.23709e-05
-9.18712e-05
-4.72019e-05
-8.9695e-05
-5.19495e-05
-8.75701e-05
-5.70239e-05
-8.52944e-05
-6.21566e-05
-8.27768e-05
-6.7664e-05
-8.00864e-05
-7.83979e-05
-0.000145242
-8.97463e-05
-0.000140517
-0.000100043
-0.0001324
-0.000105917
-0.00012443
-0.000114554
-7.2207e-05
-0.000121969
-6.45329e-05
-0.000133432
-8.53029e-05
-0.000192016
-5.42686e-05
-0.000147596
-5.56614e-05
1.68051e-05
-0.000157944
-5.58108e-06
-9.52834e-05
-1.10779e-05
-9.57943e-05
-1.63184e-05
-9.51348e-05
-2.07925e-05
-9.41282e-05
-2.56967e-05
-9.27263e-05
-2.99691e-05
-9.1249e-05
-3.42142e-05
-8.95265e-05
-3.85692e-05
-8.75163e-05
-4.27155e-05
-8.55487e-05
-4.7209e-05
-8.30767e-05
-5.16327e-05
-8.08707e-05
-5.66126e-05
-7.7797e-05
-6.16909e-05
-7.50082e-05
-7.28511e-05
-0.000134081
-8.41281e-05
-0.00012924
-9.71259e-05
-0.000119402
-0.000109896
-0.000111659
-9.16223e-05
-9.04808e-05
-0.000101613
-5.45418e-05
-0.00013792
-4.89968e-05
-0.000149409
-4.27787e-05
-0.000172584
-3.24866e-05
-8.09305e-06
-0.000147686
-4.3467e-06
-9.09368e-05
-8.681e-06
-9.14601e-05
-1.29819e-05
-9.0834e-05
-1.73647e-05
-8.97455e-05
-2.14073e-05
-8.86837e-05
-2.55533e-05
-8.71031e-05
-2.95736e-05
-8.55062e-05
-3.35701e-05
-8.35198e-05
-3.76268e-05
-8.14921e-05
-4.17501e-05
-7.89535e-05
-4.60372e-05
-7.65836e-05
-5.05833e-05
-7.3251e-05
-5.52155e-05
-7.0376e-05
-6.48034e-05
-0.000124494
-7.34005e-05
-0.000120643
-8.20379e-05
-0.000110765
-9.27119e-05
-0.000100985
-9.81142e-05
-8.50784e-05
-0.00010443
-4.82261e-05
-0.000115429
-3.79977e-05
-0.000114856
-4.33515e-05
-0.000129036
-1.83073e-05
-2.11489e-05
-0.00011598
-3.95286e-06
-8.6984e-05
-7.87886e-06
-8.75342e-05
-1.17811e-05
-8.69318e-05
-1.54387e-05
-8.60879e-05
-1.91743e-05
-8.49482e-05
-2.27208e-05
-8.35566e-05
-2.62751e-05
-8.19519e-05
-2.98121e-05
-7.99828e-05
-3.33288e-05
-7.79754e-05
-3.69607e-05
-7.53216e-05
-4.05609e-05
-7.29833e-05
-4.43497e-05
-6.9462e-05
-4.80814e-05
-6.66441e-05
-5.81384e-05
-0.000114437
-6.78669e-05
-0.000110914
-7.62786e-05
-0.000102353
-8.51504e-05
-9.21138e-05
-9.11983e-05
-7.90306e-05
-7.94715e-05
-5.99529e-05
-8.81433e-05
-2.93259e-05
-9.68073e-05
-3.46875e-05
-0.000101677
-1.34373e-05
-3.62126e-05
-8.66137e-05
-3.0628e-06
-8.39212e-05
-6.15959e-06
-8.44374e-05
-9.20629e-06
-8.38852e-05
-1.22672e-05
-8.3027e-05
-1.52401e-05
-8.19755e-05
-1.81932e-05
-8.06036e-05
-2.11116e-05
-7.90335e-05
-2.39495e-05
-7.71449e-05
-2.68567e-05
-7.50683e-05
-2.97155e-05
-7.24628e-05
-3.28456e-05
-6.98532e-05
-3.60517e-05
-6.62558e-05
-3.96536e-05
-6.30422e-05
-4.87752e-05
-0.000105315
-5.60081e-05
-0.000103681
-6.27336e-05
-9.56276e-05
-6.8421e-05
-8.64264e-05
-7.31202e-05
-7.43315e-05
-7.41941e-05
-5.88789e-05
-7.61406e-05
-2.73795e-05
-8.80397e-05
-2.27884e-05
-8.12095e-05
-2.02674e-05
-9.58049e-06
-0.000107842
-2.48333e-06
-8.14379e-05
-4.97987e-06