/*--------------------------------*- C++ -*----------------------------------*\
| =========                 |                                                 |
| \\      /  F ield         | foam-extend: Open Source CFD                    |
|  \\    /   O peration     | Version:     4.1                                |
|   \\  /    A nd           | Web:         http://www.foam-extend.org         |
|    \\/     M anipulation  |                                                 |
\*---------------------------------------------------------------------------*/
FoamFile
{
    version     2.0;
    format      ascii;
    class       surfaceScalarField;
    location    "0.15";
    object      phi_0;
}
// * * * * * * * * * * * * * * * * * * * * * * * * * * * * * * * * * * * * * //

dimensions      [0 3 -1 0 0 0 0];

internalField   nonuniform List<scalar> 
4432
(
5.70092e-06
-5.70092e-06
1.13889e-05
-5.68798e-06
1.75431e-05
-6.15421e-06
2.26141e-05
-5.07103e-06
2.98028e-05
-7.18862e-06
3.5511e-05
-5.70819e-06
4.05603e-05
-5.04935e-06
4.62426e-05
-5.68226e-06
5.02898e-05
-4.04721e-06
4.73833e-05
2.90646e-06
8.26397e-05
-3.52564e-05
9.19959e-05
-9.35619e-06
9.98386e-05
-7.84272e-06
0.000108262
-8.42337e-06
0.000110242
-1.98031e-06
0.000110024
2.18267e-07
0.000118467
-8.44259e-06
0.000115301
3.16539e-06
0.00011263
2.67105e-06
0.000103625
9.00537e-06
9.8268e-05
5.35681e-06
6.21087e-05
3.61593e-05
6.21087e-05
5.7169e-06
-1.14178e-05
1.14376e-05
-1.14087e-05
1.7576e-05
-1.22926e-05
2.27061e-05
-1.02011e-05
2.99098e-05
-1.43923e-05
3.57085e-05
-1.15069e-05
4.07842e-05
-1.01251e-05
4.72467e-05
-1.21447e-05
5.06098e-05
-7.41035e-06
8.43032e-05
-3.0787e-05
8.39744e-05
-3.49275e-05
9.43603e-05
-1.97421e-05
0.000101976
-1.5458e-05
0.000106776
-1.32237e-05
0.000105661
-8.65833e-07
0.000104218
1.6619e-06
7.04855e-05
2.52897e-05
7.07467e-05
2.90413e-06
6.67981e-05
6.61972e-06
7.42433e-05
1.56012e-06
3.82931e-05
4.1307e-05
3.95254e-05
3.4927e-05
0.000101634
5.69615e-06
-1.7114e-05
1.14298e-05
-1.71423e-05
1.75868e-05
-1.84496e-05
2.25023e-05
-1.51166e-05
3.02342e-05
-2.21242e-05
3.5591e-05
-1.68638e-05
4.10521e-05
-1.55861e-05
4.82446e-05
-1.93372e-05
4.94224e-05
-8.58809e-06
7.97775e-05
-6.11421e-05
8.32892e-05
-3.84393e-05
9.26185e-05
-2.90714e-05
9.87848e-05
-2.16242e-05
0.000104743
-1.91818e-05
0.000106951
-3.07437e-06
0.000109477
-8.6342e-07
0.00011931
1.54568e-05
0.000118188
4.02558e-06
0.00011708
7.72828e-06
0.000100635
1.80049e-05
7.11631e-05
7.07788e-05
3.8209e-05
6.78811e-05
0.000139843
5.6888e-06
-2.28028e-05
1.14575e-05
-2.29111e-05
1.75582e-05
-2.45503e-05
2.27451e-05
-2.03035e-05
3.01948e-05
-2.95739e-05
3.53193e-05
-2.19884e-05
4.34248e-05
-2.36916e-05
4.71675e-05
-2.308e-05
7.99015e-05
-4.13221e-05
7.68455e-05
-5.8086e-05
8.04679e-05
-4.20617e-05
8.98046e-05
-3.84081e-05
9.54498e-05
-2.72694e-05
0.000101016
-2.47483e-05
0.000105451
-7.50914e-06
0.000110155
-5.56757e-06
0.000117494
8.11815e-06
0.000118754
2.76566e-06
0.000119118
7.36437e-06
0.000118873
1.82495e-05
9.76377e-05
9.20142e-05
4.60401e-05
0.000119479
0.000185883
5.64487e-06
-2.84477e-05
1.14561e-05
-2.87223e-05
1.75769e-05
-3.0671e-05
2.2969e-05
-2.56955e-05
2.99281e-05
-3.6533e-05
3.53328e-05
-2.73931e-05
4.34835e-05
-3.18423e-05
4.58279e-05
-2.54244e-05
7.41348e-05
-6.9629e-05
7.48441e-05
-5.87953e-05
7.93784e-05
-4.6596e-05
8.88233e-05
-4.7853e-05
9.44359e-05
-3.2882e-05
0.000100253
-3.05654e-05
0.000108722
-1.59786e-05
0.000116232
-1.30768e-05
0.000123771
5.78739e-07
0.000125604
9.32928e-07
0.000126298
6.67e-06
0.000134357
1.01904e-05
0.000112287
0.000114085
5.27567e-05
0.000179009
0.00023864
5.64901e-06
-3.40967e-05
1.1488e-05
-3.45613e-05
1.76469e-05
-3.683e-05
2.32014e-05
-3.125e-05
2.99074e-05
-4.3239e-05
3.73847e-05
-3.48704e-05
4.12844e-05
-3.57419e-05
6.92308e-05
-5.33708e-05
6.75089e-05
-6.79071e-05
7.33114e-05
-6.45979e-05
8.03721e-05
-5.36566e-05
9.02126e-05
-5.76935e-05
9.64343e-05
-3.91037e-05
0.000104205
-3.83362e-05
0.000114882
-2.66561e-05
0.000123263
-2.1457e-05
0.000130314
-6.47246e-06
0.000130675
5.71845e-07
0.000129054
8.29103e-06
8.42657e-05
5.49786e-05
0.000137324
6.10268e-05
5.75761e-05
0.000258756
0.000296216
5.57583e-06
-3.96725e-05
1.15459e-05
-4.05314e-05
1.78283e-05
-4.31124e-05
2.34155e-05
-3.68371e-05
3.06959e-05
-5.05194e-05
3.49048e-05
-3.90793e-05
3.70371e-05
-3.78742e-05
6.23022e-05
-7.86359e-05
6.59253e-05
-7.15302e-05
7.29018e-05
-7.15743e-05
8.21493e-05
-6.29042e-05
9.33642e-05
-6.89083e-05
9.98089e-05
-4.55484e-05
0.000108117
-4.66441e-05
0.000118821
-3.73604e-05
0.000129054
-3.169e-05
0.000139168
-1.65858e-05
0.000144585
-4.84584e-06
0.000141408
1.14683e-05
0.00015657
3.98165e-05
7.66305e-05
0.000140966
6.05078e-05
0.000274879
0.000356724
5.66837e-06
-4.53409e-05
1.17534e-05
-4.66165e-05
1.78942e-05
-4.92532e-05
2.3601e-05
-4.25439e-05
3.04895e-05
-5.74079e-05
3.17134e-05
-4.03032e-05
5.80325e-05
-6.41933e-05
6.05752e-05
-8.11787e-05
6.65866e-05
-7.75415e-05
7.48122e-05
-7.98e-05
8.53657e-05
-7.34576e-05
9.51228e-05
-7.86655e-05
9.91392e-05
-4.95647e-05
0.000108138
-5.56433e-05
0.00011929
-4.85121e-05
0.000133145
-4.55453e-05
0.000143535
-2.69754e-05
0.000147565
-8.87605e-06
0.000146755
1.22783e-05
8.85957e-05
9.79759e-05
0.000150701
7.88608e-05
0.000106293
0.000319287
0.000463016
-5.82597e-06
5.82597e-06
-1.14414e-05
5.6154e-06
-1.73413e-05
5.89995e-06
-2.26435e-05
5.30222e-06
-2.53514e-05
2.708e-06
-2.71347e-05
1.78327e-06
-2.82502e-05
1.11555e-06
-2.97762e-05
1.52595e-06
-3.10162e-05
1.24e-06
-3.22795e-05
1.26337e-06
-3.3236e-05
9.56571e-07
-3.56926e-05
2.45646e-06
-3.81187e-05
2.42618e-06
-1.99419e-05
-1.81768e-05
-1.67664e-05
-3.17556e-06
-1.16371e-05
-5.12936e-06
-7.86298e-06
-3.77405e-06
-3.88381e-06
-3.97931e-06
-3.88375e-06
-6.96314e-06
1.27891e-05
-1.30388e-05
1.16911e-05
-1.89526e-05
1.18138e-05
-2.4369e-05
1.07186e-05
-2.67339e-05
5.07311e-06
-2.86052e-05
3.65447e-06
-2.96946e-05
2.20499e-06
-3.11114e-05
2.94278e-06
-3.17675e-05
1.89624e-06
-3.20631e-05
1.55885e-06
-3.31118e-05
2.00541e-06
-1.92692e-05
-1.13862e-05
-2.11031e-05
4.26007e-06
-2.00025e-05
-1.92775e-05
-1.61588e-05
-7.01925e-06
-1.1928e-05
-9.36025e-06
-7.99092e-06
-7.711e-06
-3.96361e-06
-8.00685e-06
-7.84723e-06
-6.13587e-06
1.89249e-05
-1.32857e-05
1.8841e-05
-2.01468e-05
1.8675e-05
-2.43612e-05
1.4933e-05
-2.63414e-05
7.0534e-06
-2.82202e-05
5.53323e-06
-2.92638e-05
3.24871e-06
-3.07826e-05
4.46148e-06
-3.22817e-05
3.3955e-06
-3.37715e-05
3.04868e-06
-3.48525e-05
3.08643e-06
-3.74776e-05
-8.76124e-06
-2.12455e-05
-1.19719e-05
-2.03581e-05
-2.0165e-05
-1.59154e-05
-1.14618e-05
-1.19382e-05
-1.33375e-05
-7.96697e-06
-1.1682e-05
-3.96269e-06
-1.20112e-05
-1.18097e-05
-9.09011e-06
2.8015e-05
-1.45332e-05
2.42841e-05
-2.14409e-05
2.55828e-05
-2.60662e-05
1.95583e-05
-2.59794e-05
6.96667e-06
-2.78843e-05
7.43805e-06
-2.96272e-05
4.9918e-06
-3.15051e-05
6.33934e-06
-3.26801e-05
4.57063e-06
-3.38454e-05
4.21392e-06
-3.60033e-05
5.2444e-06
-1.97743e-05
-2.49902e-05
-2.11863e-05
-1.05597e-05
-1.98248e-05
-2.15266e-05
-1.56552e-05
-1.56314e-05
-1.1893e-05
-1.70998e-05
-7.94214e-06
-1.56327e-05
-3.9635e-06
-1.59899e-05
-1.57731e-05
-8.58774e-06
3.66028e-05
-1.67934e-05
3.24898e-05
-2.28428e-05
3.16323e-05
-2.67981e-05
2.35135e-05
-2.77816e-05
7.95031e-06
-2.94131e-05
9.06953e-06
-3.10107e-05
6.58946e-06
-3.18012e-05
7.12981e-06
-3.18392e-05
4.60871e-06
-3.54787e-05
7.85342e-06
-2.03263e-05
-9.90792e-06
-3.94295e-05
-5.88714e-06
-2.1357e-05
-2.86322e-05
-2.005e-05
-2.28337e-05
-1.5458e-05
-2.02233e-05
-1.19209e-05
-2.0637e-05
-7.9258e-06
-1.96278e-05
-3.96687e-06
-1.9949e-05
-1.97399e-05
-9.7728e-06
4.63756e-05
-1.75851e-05
4.03021e-05
-2.47345e-05
3.87817e-05
-2.86372e-05
2.74162e-05
-2.68321e-05
6.14522e-06
-2.87478e-05
1.09852e-05
-3.13148e-05
9.15655e-06
-3.30615e-05
8.8765e-06
-3.37847e-05
5.33193e-06
-1.85625e-05
-7.36885e-06
-2.06994e-05
-7.77096e-06
-2.10815e-05
-5.50516e-06
-2.10567e-05
-2.8657e-05
-1.9177e-05
-2.47134e-05
-1.54944e-05
-2.39059e-05
-1.18565e-05
-2.4275e-05
-7.92306e-06
-2.35613e-05
-3.96877e-06
-2.39035e-05
-2.37087e-05
-1.4057e-05
6.04326e-05
-2.14289e-05
4.76739e-05
-2.65337e-05
4.38865e-05
-1.56443e-05
1.65269e-05
-2.71847e-05
1.76857e-05
-2.95046e-05
1.3305e-05
-3.27065e-05
1.23585e-05
-3.66685e-05
1.28384e-05
-1.91271e-05
-1.22093e-05
-1.99191e-05
-6.57697e-06
-2.06162e-05
-7.0738e-06
-2.10794e-05
-5.04205e-06
-2.12479e-05
-2.84885e-05
-1.91219e-05
-2.68395e-05
-1.5487e-05
-2.75408e-05
-1.18731e-05
-2.7889e-05
-7.92797e-06
-2.75064e-05
-3.97545e-06
-2.7856e-05
-2.76841e-05
-2.28488e-05
8.32814e-05
-2.83124e-05
5.31375e-05
-1.5386e-05
3.09602e-05
-1.66123e-05
1.7753e-05
-1.38663e-05
1.49397e-05
-1.44274e-05
1.38661e-05
-1.76415e-05
1.55726e-05
-1.98381e-05
1.50349e-05
-1.90235e-05
-1.30239e-05
-3.86732e-05
1.30727e-05
-2.24701e-05
-2.3277e-05
-2.29602e-05
-4.55211e-06
-2.12853e-05
-3.01634e-05
-1.89774e-05
-2.91475e-05
-1.54927e-05
-3.10254e-05
-1.18479e-05
-3.15339e-05
-7.92997e-06
-3.14243e-05
-3.97567e-06
-3.18103e-05
-3.16597e-05
1.172e-05
-5.70609e-05
2.45817e-05
-5.94781e-05
3.45889e-05
-5.92604e-05
4.91148e-05
-5.70699e-05
5.78483e-05
-6.61414e-05
9.97776e-05
-8.22325e-05
0.000117423
-8.18391e-05
0.000128585
-9.23405e-05
0.000143519
-9.24751e-05
0.000160626
-9.69071e-05
0.000185216
-9.80476e-05
0.000208223
-0.000101672
0.000204567
-4.59088e-05
0.000226678
-7.77545e-05
0.000256396
-7.82301e-05
0.000294796
-8.39452e-05
0.000333982
-6.61619e-05
0.000347284
-2.2178e-05
0.000348429
1.11339e-05
0.000358253
8.81517e-05
0.000230051
0.000207063
0.000364628
0.00018471
0.000478256
0.000349389
1.10326e-05
-6.80935e-05
2.50098e-05
-7.34554e-05
3.52446e-05
-6.94951e-05
6.61917e-05
-8.80169e-05
8.11719e-05
-8.11216e-05
9.59194e-05
-9.698e-05
0.000110436
-9.63556e-05
0.000123742
-0.000105647
0.000142478
-0.000111211
0.000162497
-0.000116926
0.000182624
-0.000118174
0.000205008
-0.000124056
0.000214006
-5.49068e-05
0.000246212
-0.00010996
0.000291572
-0.000123591
0.000326901
-0.000119274
0.00034688
-8.61412e-05
0.000337022
-1.23201e-05
0.00030954
3.86156e-05
0.000228569
0.000169123
0.00029673
0.000138902
0.000342509
0.000138931
0.000448835
0.00037193
1.5873e-05
-8.39664e-05
3.1206e-05
-8.87884e-05
4.9089e-05
-8.73781e-05
6.18834e-05
-0.000100811
7.77834e-05
-9.70216e-05
9.07055e-05
-0.000109902
0.000106791
-0.000112441
0.000122827
-0.000121683
0.000141125
-0.000129509
0.000161321
-0.000137122
0.000182066
-0.00013892
0.000205847
-0.000147837
0.000218291
-6.73504e-05
0.000262375
-0.000154044
0.000302604
-0.00016382
0.000327309
-0.000143978
0.000334072
-9.2904e-05
0.000334082
-1.23304e-05
0.000322816
4.98819e-05
0.000385876
0.000106063
0.000271163
0.000253615
0.000214386
0.000195707
0.000423179
0.000240042
1.57088e-05
-9.96753e-05
3.06294e-05
-0.000103709
4.58746e-05
-0.000102623
5.72009e-05
-0.000112138
7.22445e-05
-0.000112065
8.63136e-05
-0.000123971
0.000100729
-0.000126857
0.000115556
-0.00013651
0.000133466
-0.000147419
0.000152977
-0.000156633
0.000174931
-0.000160873
0.000199921
-0.000172827
0.000220941
-8.83707e-05
0.000271972
-0.000205076
0.000305055
-0.000196903
0.000314717
-0.000153641
0.000316651
-9.48375e-05
0.000329041
-2.47205e-05
0.00031917
5.97525e-05
0.000218262
0.000206972
0.000296138
0.000175739
0.000311139
0.000180706
0.000335629
0.00039869
1.34791e-05
-0.000113154
2.59902e-05
-0.00011622
3.96453e-05
-0.000116278
5.19095e-05
-0.000124402
6.61567e-05
-0.000126312
7.77914e-05
-0.000135606
9.11904e-05
-0.000140255
0.000107605
-0.000152925
0.000124884
-0.000164698
0.000142503
-0.000174252
0.000164026
-0.000182396
0.0001973
-0.000206101
0.00022783
-0.000118901
0.000263332
-0.000240578
0.000268854
-0.000202425
0.000270202
-0.000154989
0.000271371
-9.60058e-05
0.000278499
-3.18487e-05
0.00025063
8.76211e-05
0.00030908
0.000148522
0.000230452
0.000254367
0.000164072
0.000247086
0.000155173
0.000344528
1.22002e-05
-0.000125355
2.37132e-05
-0.000127733
3.65727e-05
-0.000129138
4.70505e-05
-0.00013488
5.92945e-05
-0.000138556
6.9928e-05
-0.00014624
8.30958e-05
-0.000153423
9.67644e-05
-0.000166593
0.000109564
-0.000177498
0.00012409
-0.000188778
0.000147094
-0.000205399
0.000188755
-0.000247762
0.000216091
-0.000146237
0.000229181
-0.000253668
0.000228423
-0.000201667
0.00022358
-0.000150146
0.000211886
-8.43121e-05
0.000148031
3.20063e-05
0.000152319
8.33335e-05
0.000203643
9.71977e-05
0.000194888
0.000263122
0.000249914
0.000192061
0.000112273
0.000292814
1.04878e-05
-0.000135842
2.07135e-05
-0.000137959
3.10816e-05
-0.000139506
4.0861e-05
-0.000144659
5.22874e-05
-0.000149983
6.13978e-05
-0.00015535
7.2717e-05
-0.000164742
8.12454e-05
-0.000175122
8.90984e-05
-0.000185351
0.000102172
-0.000201852
0.000131198
-0.000234425
0.000173482
-0.000290046
0.000188247
-0.000161002
0.000181325
-0.000246745
0.000174313
-0.000194656
0.000171599
-0.000147432
0.000182981
-9.56941e-05
0.00017731
3.76773e-05
0.00018667
7.39741e-05
0.00031287
-2.90028e-05
0.000205738
0.000370254
0.000199711
0.000198088
8.58077e-05
0.000226175
9.23674e-06
-0.000145079
1.80786e-05
-0.000146801
2.77569e-05
-0.000149184
3.59608e-05
-0.000152863
4.48814e-05
-0.000158903
5.38276e-05
-0.000164296
6.31795e-05
-0.000174094
6.53166e-05
-0.000177259
6.9027e-05
-0.000189061
8.05754e-05
-0.000213401
0.000109357
-0.000263207
0.000135771
-0.000316459
0.000136847
-0.000162078
0.000125672
-0.000235571
0.000139591
-0.000208574
0.000182572
-0.000190414
0.000212306
-0.000125428
0.000277604
-2.76206e-05
0.000228174
0.000123404
0.0002133
-1.41294e-05
0.00024886
0.000334695
0.000160773
0.000286175
6.4036e-05
0.000182545
7.70924e-06
-0.000152788
1.55845e-05
-0.000154676
2.26526e-05
-0.000156252
2.9878e-05
-0.000160088
3.8071e-05
-0.000167096
4.46297e-05
-0.000170855
5.0117e-05
-0.000179582
4.62685e-05
-0.00017341
5.24591e-05
-0.000195252
6.65466e-05
-0.000227488
8.4505e-05
-0.000281166
9.49187e-05
-0.000326873
9.49169e-05
-0.000162076
9.58498e-05
-0.000236504
0.000137955
-0.000250679
0.000199109
-0.000251568
0.00019649
-0.000122809
0.000240379
-7.15094e-05
0.000289868
7.39141e-05
0.00024176
3.39786e-05
0.00025607
0.000320385
0.000223328
0.000318916
0.000107909
0.000179455
7.17846e-06
-0.000159967
1.38445e-05
-0.000161342
2.03829e-05
-0.000162791
2.66325e-05
-0.000166338
3.17617e-05
-0.000172225
3.91549e-05
-0.000178248
4.23478e-05
-0.000182774
3.13602e-05
-0.000162423
4.05772e-05
-0.000204469
4.60004e-05
-0.000232911
4.69159e-05
-0.000282081
4.66851e-05
-0.000326642
6.23734e-05
-0.000177765
7.45935e-05
-0.000248724
8.99682e-05
-0.000266054
3.73053e-05
-0.000198905
2.2536e-05
-0.000108039
2.97823e-05
-7.87558e-05
7.57246e-05
2.79719e-05
0.000178929
-6.92258e-05
0.000219821
0.000279493
0.000241505
0.000297232
0.000142832
0.000206582
7.06816e-06
-0.000167035
1.41759e-05
-0.00016845
2.08687e-05
-0.000169483
2.8614e-05
-0.000174083
3.60882e-05
-0.0001797
4.78797e-05
-0.00019004
6.05344e-05
-0.000195429
8.48933e-05
-0.000186782
7.02342e-05
-0.00018981
2.8316e-05
-0.000190993
-2.67022e-05
-0.000227063
6.06102e-08
-0.000353405
2.18564e-05
-0.00019956
1.65386e-05
-0.000243406
-0.000104831
-0.000144684
-0.000165503
-0.000138233
-0.000138937
-0.000134605
-0.000135986
-8.17072e-05
-4.55391e-05
-6.24747e-05
1.71396e-05
-0.000131904
0.00013829
0.000158343
0.000228199
0.000207324
0.000167473
0.000203558
7.52281e-06
-0.000174558
1.4675e-05
-0.000175602
2.08777e-05
-0.000175686
2.62545e-05
-0.00017946
2.82482e-05
-0.000181693
2.68266e-05
-0.000188618
2.45087e-05
-0.000193111
2.09388e-05
-0.000183212
1.99743e-05
-0.000188845
1.77115e-05
-0.00018873
3.76831e-06
-0.00021312
7.88386e-06
-0.00035752
-7.95031e-06
-0.000183726
-9.68293e-05
-0.000154527
-0.000135655
-0.000105859
-0.000121479
-0.000152409
-0.000151836
-0.000104249
-0.000145528
-8.80152e-05
-7.41033e-05
-0.000133899
-0.000133097
-7.29111e-05
-2.54312e-05
5.06773e-05
0.000125402
5.64908e-05
8.76432e-05
0.000205232
5.42027e-06
-0.000179978
8.51831e-06
-0.0001787
9.55112e-06
-0.000176719
9.54029e-06
-0.000179449
1.04332e-05
-0.000182586
1.28381e-05
-0.000191023
2.97962e-05
-0.000210069
3.42076e-05
-0.000187623
1.28298e-05
-0.000167467
8.43498e-07
-0.000176744
-2.00411e-05
-0.000192235
-3.32566e-05
-0.000344305
-7.76834e-05
-0.000139299
-0.000124705
-0.000107506
-0.000137633
-9.29308e-05
-7.41383e-05
-0.000215903
-6.75452e-05
-0.000110842
-6.62491e-05
-8.93114e-05
-0.000112697
-8.74508e-05
-7.24548e-05
-0.000113153
8.21835e-06
-2.99959e-05
0.000118269
-5.356e-05
2.34801e-05
0.000182432
-9.25865e-07
-0.000179052
-1.86479e-06
-0.000177761
-3.15353e-06
-0.00017543
-2.62661e-06
-0.000179976
8.71579e-07
-0.000186084
4.69193e-06
-0.000194843
3.08145e-05
-0.000236192
6.36005e-05
-0.000220409
3.32304e-05
-0.000137097
4.78998e-06
-0.000148304
-2.39995e-05
-0.000163446
-0.000135238
-0.000233067
-0.000122493
-0.000152044
-0.000116064
-0.000113935
-6.2394e-05
-0.0001466
-6.57578e-05
-0.000212539
-5.88014e-05
-0.000117798
-5.00709e-05
-9.80419e-05
-5.11173e-05
-8.64044e-05
-1.55092e-05
-0.000148762
4.12891e-05
-8.67942e-05
9.11148e-05
-0.000103386
-9.45964e-05
0.000209191
-6.27393e-07
-0.000178425
-1.19077e-06
-0.000177198
-2.38079e-06
-0.00017424
-3.44618e-06
-0.000178911
-1.11734e-06
-0.000188413
9.30863e-07
-0.000196892
1.0852e-05
-0.000246113
9.06637e-06
-0.000218624
3.77414e-05
-0.000165772
2.34196e-06
-0.000112904
-3.57722e-05
-0.000125332
-8.41956e-05
-0.000184643
-8.07931e-05
-0.000155446
-6.32229e-05
-0.000131506
-3.47499e-05
-0.000175074
-0.000102798
-0.000144491
-4.49121e-05
-0.000175685
-4.22043e-05
-0.00010075
-2.34988e-05
-0.00010511
7.22021e-06
-0.000179481
5.11738e-05
-0.000130748
9.49028e-05
-0.000147115
-0.000222438
0.000222745
2.24729e-06
-0.000180672
5.93231e-06
-0.000180883
1.40254e-05
-0.000182333
1.74144e-05
-0.0001823
1.92993e-05
-0.000190298
2.91936e-05
-0.000206786
1.97563e-05
-0.000236676
9.06695e-06
-0.000207934
1.00809e-05
-0.000166786
1.03866e-05
-0.00011321
-4.2935e-06
-0.000110651
-4.30369e-05
-0.0001459
-5.30473e-05
-0.000145436
-2.39466e-05
-0.000160606
-3.36272e-05
-0.000165393
-4.95553e-05
-0.000128563
-5.20227e-05
-0.000173217
-4.6927e-05
-0.000105845
1.55712e-05
-0.000167608
3.07881e-05
-0.000194697
7.00118e-05
-0.000169971
0.000154352
-0.000231455
-0.000290336
0.000222249
3.68485e-07
-0.000181041
3.85559e-06
-0.00018437
1.16497e-05
-0.000190127
2.21159e-05
-0.000192766
3.76633e-05
-0.000205845
4.8385e-05
-0.000217508
3.45822e-05
-0.000222873
5.25168e-05
-0.000225869
3.65526e-05
-0.000150822
2.99883e-05
-0.000106645
1.85237e-05
-9.91869e-05
6.72616e-06
-0.000134102
-1.74306e-06
-0.000136967
-2.12757e-05
-0.000141074
7.14875e-06
-0.000193817
3.21091e-07
-0.000121735
-4.08065e-05
-0.00013209
-2.22762e-05
-0.000124376
1.45952e-05
-0.00020448
4.352e-05
-0.000223622
0.000120318
-0.000246769
0.000182459
-0.000293596
-0.000322705
0.000214828
9.67395e-06
-0.000190715
2.06995e-05
-0.000195396
2.80258e-05
-0.000197454
2.87769e-05
-0.000193517
2.12585e-05
-0.000198327
1.39974e-06
-0.000197649
-2.09312e-05
-0.000200542
-5.07757e-05
-0.000196025
-9.63185e-06
-0.000191966
2.53393e-05
-0.000141617
3.71578e-05
-0.000111005
1.6287e-05
-0.000113231
2.44639e-06
-0.000123126
-2.44908e-05
-0.000114136
-4.89534e-05
-0.000169355
-5.11915e-05
-0.000119497
-5.13037e-05
-0.000131977
6.79187e-06
-0.000182471
2.20041e-05
-0.000219692
4.00276e-05
-0.000241646
8.29353e-05
-0.000289677
0.000113287
-0.000323948
-0.000428928
0.000219511
-4.64155e-06
-0.000186073
6.79287e-08
-0.000200105
3.98741e-06
-0.000201373
-4.34141e-05
-0.000146116
-1.44008e-05
-0.00022734
-5.6096e-05
-0.000155954
-9.04106e-05
-0.000166227
-4.83865e-05
-0.000238049
-7.93014e-05
-0.000161051
-7.45251e-05
-0.000146393
-5.14732e-05
-0.000134057
-4.89745e-05
-0.00011573
-4.67967e-05
-0.000125304
-4.14361e-05
-0.000119497
-4.51053e-05
-0.000165686
-3.41761e-05
-0.000130426
-7.57944e-06
-0.000158574
-5.27207e-06
-0.000184779
1.95296e-07
-0.000225159
1.36917e-05
-0.000255142
2.9043e-05
-0.000305028
6.67139e-05
-0.000361618
-0.000482669
0.000120455
-1.36709e-05
-0.000172402
-3.20263e-05
-0.00018175
-5.20872e-05
-0.000181312
-2.10126e-05
-0.000177191
-5.73583e-05
-0.000190995
-1.75136e-05
-0.000195799
-5.96973e-05
-0.000124044
-0.000103928
-0.000193818
-8.89931e-05
-0.000175986
-0.00011093
-0.000124456
-0.000122316
-0.000122672
-6.21226e-05
-0.000175923
-6.51126e-05
-0.000122314
-2.19055e-05
-0.000162704
-2.70968e-05
-0.000160494
-4.12786e-05
-0.000116244
-3.14019e-05
-0.000168451
-2.07747e-05
-0.000195406
-1.39818e-05
-0.000231952
-1.1854e-05
-0.00025727
1.9522e-07
-0.000317078
3.64218e-05
-0.000397845
-0.000520588
7.43409e-05
-4.45598e-06
-0.000167946
-9.75189e-06
-0.000176454
-1.52854e-05
-0.000175779
-2.26006e-05
-0.000169875
-3.25331e-05
-0.000181062
-6.38095e-05
-0.000164522
-2.51465e-05
-0.000162707
-4.70184e-05
-0.000171946
-7.13015e-05
-0.000151703
-5.19734e-05
-0.000143784
-2.85377e-05
-0.000146107
-5.21526e-05
-0.000152308
-3.20419e-05
-0.000142424
-4.34245e-05
-0.000151321
-8.85526e-05
-0.000115366
-4.86423e-05
-0.000156155
-3.9611e-05
-0.000177482
-3.26572e-05
-0.00020236
-3.32603e-05
-0.000231349
-3.78683e-05
-0.000252662
-3.25415e-05
-0.000322404
-3.17962e-05
-0.00039859
-0.000526435
-2.59498e-05
-5.82839e-06
-0.000162118
-1.15873e-05
-0.000170695
-1.80695e-05
-0.000169297
-2.35449e-05
-0.0001644
-3.29144e-05
-0.000171693
-3.68558e-05
-0.000160581
-3.77034e-05
-0.000161859
-5.0262e-05
-0.000159387
-5.89809e-05
-0.000142984
-5.89454e-05
-0.00014382
-7.69933e-05
-0.000128059
-9.15742e-05
-0.000137727
-9.27118e-05
-0.000141287
-7.82547e-05
-0.000165779
-3.53727e-05
-0.000158248
-6.06194e-05
-0.000130908
-5.30287e-05
-0.000185073
-4.91215e-05
-0.000206267
-5.25528e-05
-0.000227918
-6.34282e-05
-0.000241786
-7.60044e-05
-0.000309828
-8.22684e-05
-0.000392326
-0.000405706
-0.000202997
-3.18914e-06
-0.000158929
-1.11289e-05
-0.000162755
-1.88594e-05
-0.000161567
-2.48821e-05
-0.000158377
-3.57413e-05
-0.000160834
-4.38494e-05
-0.000152473
-5.52723e-05
-0.000150436
-7.18222e-05
-0.000142837
-8.15081e-05
-0.000133298
-5.38988e-05
-0.000171429
-8.55465e-05
-9.64115e-05
-0.00011545
-0.000107824
-9.98424e-05
-0.000156895
-8.56749e-05
-0.000179946
-0.000108461
-0.000135462
-5.61279e-05
-0.000183241
-5.49472e-05
-0.000186253
-5.61065e-05
-0.000205108
-5.97114e-05
-0.000224313
-9.78114e-05
-0.000203687
-0.000131532
-0.000276108
-0.000175354
-0.000348504
-0.000308746
-0.000272313
-5.07728e-06
-0.000153852
-1.22166e-05
-0.000155616
-1.88083e-05
-0.000154975
-2.55353e-05
-0.00015165
-3.33482e-05
-0.000153021
-3.96813e-05
-0.00014614
-4.4148e-05
-0.00014597
-4.54878e-05
-0.000141497
-4.21982e-05
-0.000136588
-9.20659e-05
-0.000121561
-7.79373e-05
-0.00011054
-7.20974e-05
-0.000113664
-0.000109817
-0.000119175
-9.73187e-05
-0.000192445
-4.44596e-05
-0.000188321
-9.61354e-05
-0.000131565
-6.81917e-05
-0.000214197
-7.3408e-05
-0.000199891
-7.33154e-05
-0.000224406
-9.94105e-05
-0.000177591
-0.000162805
-0.000212713
-0.000250943
-0.000260365
-0.000252983
-0.000306707
-5.62321e-06
-0.000148228
-1.30002e-05
-0.000148239
-1.95926e-05
-0.000148382
-2.65039e-05
-0.000144739
-3.38201e-05
-0.000145704
-4.03168e-05
-0.000139643
-4.68281e-05
-0.000139458
-5.42466e-05
-0.000134079
-7.34627e-05
-0.000117372
-7.61938e-05
-0.00011883
-7.58807e-05
-0.000110853
-7.81891e-05
-0.000111355
-8.24923e-05
-0.000114872
-7.87734e-05
-0.000196163
-6.91599e-05
-0.000197935
-7.57204e-05
-0.000125005
-6.23461e-05
-0.000227571
-9.84916e-05
-0.000163746
-0.000115485
-0.000207412
-0.000134751
-0.000158326
-0.00017496
-0.000172504
-0.000243853
-0.000191473
-0.000186538
-0.000310297
-6.97241e-06
-0.000141256
-1.35983e-05
-0.000141613
-2.16031e-05
-0.000140378
-2.59808e-05
-0.000140361
-3.19742e-05
-0.000139711
-3.81918e-05
-0.000133425
-4.4046e-05
-0.000133604
-6.24256e-05
-0.000115699
-6.66234e-05
-0.000113174
-7.41021e-05
-0.000111351
-7.5514e-05
-0.000109441
-7.91773e-05
-0.000107692
-8.57653e-05
-0.000108284
-8.47635e-05
-0.000197165
-7.97647e-05
-0.000202933
-8.21444e-05
-0.000122625
-0.000146395
-0.000163321
-8.40437e-05
-0.000226096
-0.00013603
-0.000155426
-0.00015885
-0.000135506
-0.000196505
-0.000134848
-0.00025233
-0.000135648
-0.000125065
-0.000313803
-6.99132e-06
-0.000134265
-1.29103e-05
-0.000135694
-2.07119e-05
-0.000132576
-2.49354e-05
-0.000136138
-3.34122e-05
-0.000131234
-3.86492e-05
-0.000128188
-5.94193e-05
-0.000112834
-6.23055e-05
-0.000112813
-6.68014e-05
-0.000108678
-7.05482e-05
-0.000107605
-7.39157e-05
-0.000106074
-7.72294e-05
-0.000104378
-8.25423e-05
-0.000102971
-9.16937e-05
-0.000188014
-0.000103114
-0.000191514
-0.000107573
-0.000118166
-9.74143e-05
-0.00017348
-0.00017928
-0.000144231
-0.000138406
-0.0001963
-0.00014637
-0.000127542
-0.000181889
-9.93294e-05
-0.000223936
-9.36011e-05
-8.08715e-05
-0.000268129
-7.30072e-06
-0.000126964
-1.47493e-05
-0.000128246
-2.10153e-05
-0.00012631
-2.91203e-05
-0.000128033
-4.37697e-05
-0.000116585
-5.3365e-05
-0.000118593
-5.79554e-05
-0.000108244
-6.1214e-05
-0.000109554
-6.5218e-05
-0.000104674
-6.93715e-05
-0.000103451
-7.38669e-05
-0.000101579
-7.8611e-05
-9.96341e-05
-8.33655e-05
-9.82161e-05
-9.14133e-05
-0.000179966
-0.000102121
-0.000180806
-5.74106e-05
-0.000162876
-0.00012089
-0.00011
-0.000108086
-0.000157035
-0.000112583
-0.000191803
-0.000158742
-8.13831e-05
-0.000186749
-7.13217e-05
-0.00021552
-6.48303e-05
-4.58142e-05
-0.000250577
-5.72656e-06
-0.000121238
-1.32212e-05
-0.000120751
-1.9021e-05
-0.00012051
-3.407e-05
-0.000112984
-3.92775e-05
-0.000111377
-4.84325e-05
-0.000109438
-5.1487e-05
-0.00010519
-5.71815e-05
-0.00010386
-6.10501e-05
-0.000100805
-6.50798e-05
-9.94215e-05
-6.94403e-05
-9.72181e-05
-7.3749e-05
-9.53254e-05
-7.81616e-05
-9.38035e-05
-8.65993e-05
-0.000171528
-9.91452e-05
-0.00016826
-0.000106212
-0.00015581
-0.00011242
-0.000103792
-0.000123145
-0.000146311
-0.000208196
-0.000106752
-0.000147247
-0.000142332
-0.000173274
-4.52948e-05
-0.00019245
-4.56543e-05
-1.97642e-05
-0.0002185
-8.11123e-06
-0.000113126
-1.63785e-05
-0.000112484
-2.55997e-05
-0.000111289
-3.14431e-05
-0.000107141
-3.67024e-05
-0.000106118
-4.28831e-05
-0.000103257
-4.73395e-05
-0.000100733
-5.21855e-05
-9.90139e-05
-5.67567e-05
-9.62342e-05
-6.17513e-05
-9.44268e-05
-6.69667e-05
-9.20028e-05
-7.22034e-05
-9.00887e-05
-7.83688e-05
-8.76381e-05
-8.92425e-05
-0.000160654
-0.00010076
-0.000156742
-0.000110253
-0.000146316
-8.69145e-05
-0.00012713
-0.000143473
-8.97519e-05
-0.000151389
-9.88362e-05
-0.000210406
-8.33143e-05
-0.000165894
-8.98067e-05
-0.000175493
-3.60555e-05
-3.41935e-06
-0.000191838
-8.33966e-06
-0.000104787
-1.58991e-05
-0.000104924
-2.3021e-05
-0.000104167
-2.79908e-05
-0.000102171
-3.38293e-05
-0.00010028
-3.85162e-05
-9.85706e-05
-4.30089e-05
-9.62405e-05
-4.78445e-05
-9.41784e-05
-5.20187e-05
-9.20599e-05
-5.66941e-05
-8.97514e-05
-6.101e-05
-8.76869e-05
-6.59856e-05
-8.51131e-05
-7.09349e-05
-8.26887e-05
-8.11791e-05
-0.00015041
-9.19978e-05
-0.000145924
-0.000101801
-0.000136513
-0.000104633
-0.000124298
-0.000117686
-7.66987e-05
-0.000148565
-6.79567e-05
-0.000141487
-9.03927e-05
-0.000126053
-0.00010524
-0.000154039
-8.06945e-06
9.79079e-06
-0.000167249
-5.95091e-06
-9.88358e-05
-1.16406e-05
-9.92348e-05
-1.75159e-05
-9.82919e-05
-2.32097e-05
-9.64769e-05
-2.80305e-05
-9.54587e-05
-3.33028e-05
-9.32983e-05
-3.80631e-05
-9.14802e-05
-4.2729e-05
-8.95125e-05
-4.75296e-05
-8.72593e-05
-5.22266e-05
-8.50545e-05
-5.72216e-05
-8.26919e-05
-6.22503e-05
-8.00845e-05
-6.76229e-05
-7.73161e-05
-7.80351e-05
-0.000139998
-8.89563e-05
-0.000135002
-9.88006e-05
-0.000126669
-0.000104359
-0.00011874
-0.00011268
-6.8378e-05
-0.000119876
-6.07603e-05
-0.000130263
-8.00053e-05
-0.000185294
-5.02097e-05
-0.000142882
-5.04817e-05
1.85569e-05
-0.000151648
-5.63923e-06
-9.31965e-05
-1.11872e-05
-9.36867e-05
-1.64734e-05
-9.30056e-05
-2.09836e-05
-9.19666e-05
-2.59104e-05
-9.05319e-05
-3.01999e-05
-8.90089e-05
-3.4443e-05
-8.72371e-05
-3.87797e-05
-8.51758e-05
-4.28906e-05
-8.31484e-05
-4.73246e-05
-8.06204e-05
-5.16664e-05
-7.83501e-05
-5.65302e-05
-7.52206e-05
-6.14637e-05
-7.23826e-05
-7.22602e-05
-0.000129201
-8.30773e-05
-0.000124185
-9.5481e-05
-0.000114265
-0.000107617
-0.000106604
-9.00783e-05
-8.59167e-05
-9.95277e-05
-5.13108e-05
-0.000133963
-4.55704e-05
-0.000144636
-3.95359e-05
-0.000165518
-2.96e-05
-4.97156e-06
-0.000141989
-4.38818e-06
-8.88083e-05
-8.76253e-06
-8.93123e-05
-1.30956e-05
-8.86725e-05
-1.74988e-05
-8.75634e-05
-2.15574e-05
-8.64733e-05
-2.57039e-05
-8.48625e-05
-2.97116e-05
-8.32293e-05
-3.36823e-05
-8.12051e-05
-3.76941e-05
-7.91365e-05
-4.17555e-05
-7.6559e-05
-4.5957e-05
-7.41485e-05
-5.03956e-05
-7.0782e-05
-5.48957e-05
-6.78824e-05
-6.41682e-05
-0.000119929
-7.23863e-05
-0.000115967
-8.05775e-05
-0.000106074
-9.07125e-05
-9.64687e-05
-9.58867e-05
-8.07425e-05
-0.000101791
-4.54066e-05
-0.000111933
-3.54282e-05
-0.000111389
-4.00797e-05
-0.000124899
-1.60897e-05
-1.8781e-05
-0.00011109
-3.97819e-06
-8.48301e-05
-7.92635e-06
-8.53641e-05
-1.1847e-05
-8.47517e-05
-1.55188e-05
-8.38916e-05
-1.9258e-05
-8.2734e-05
-2.28008e-05
-8.13196e-05
-2.63397e-05
-7.96905e-05
-2.98482e-05
-7.76965e-05
-3.33226e-05
-7.56622e-05
-3.68953e-05
-7.29864e-05
-4.04183e-05
-7.06255e-05
-4.41123e-05
-6.7088e-05
-4.77255e-05
-6.42693e-05
-5.74063e-05
-0.000110248
-6.67049e-05
-0.000106668
-7.47048e-05
-9.80741e-05
-8.3161e-05
-8.80125e-05
-8.87796e-05
-7.51239e-05
-7.75128e-05
-5.66733e-05
-8.5619e-05
-2.7322e-05
-9.36436e-05
-3.2055e-05
-9.80012e-05
-1.17321e-05
-3.33629e-05
-8.34194e-05
-3.08339e-06
-8.17467e-05
-6.19877e-06
-8.22486e-05
-9.26053e-06
-8.16899e-05
-1.23301e-05
-8.0822e-05
-1.53057e-05
-7.97583e-05
-1.8253e-05
-7.83724e-05
-2.11554e-05
-7.67881e-05
-2.3967e-05
-7.4885e-05
-2.68343e-05
-7.27948e-05
-2.96398e-05
-7.0181e-05
-3.27026e-05
-6.75627e-05
-3.58577e-05
-6.3933e-05
-3.9344e-05
-6.0783e-05
-4.81664e-05
-0.000101426
-5.5047e-05
-9.97876e-05
-6.14606e-05
-9.16604e-05
-6.68584e-05
-8.26147e-05
-7.11794e-05
-7.08029e-05
-7.21343e-05
-5.57185e-05
-7.38001e-05
-2.56562e-05
-8.47454e-05
-2.11098e-05
-7.81085e-05
-1.8369e-05
-8.29975e-06
-0.000103172
-2.49091e-06
-7.92557e-05
-4.9931e-06
-7.97464e-05
-7.50139e-06
-7.91815e-05