/*--------------------------------*- C++ -*----------------------------------*\
| =========                 |                                                 |
| \\      /  F ield         | foam-extend: Open Source CFD                    |
|  \\    /   O peration     | Version:     4.1                                |
|   \\  /    A nd           | Web:         http://www.foam-extend.org         |
|    \\/     M anipulation  |                                                 |
\*---------------------------------------------------------------------------*/
FoamFile
{
    version     2.0;
    format      ascii;
    class       volScalarField;
    location    "0.15";
    object      psi;
}
// * * * * * * * * * * * * * * * * * * * * * * * * * * * * * * * * * * * * * //

dimensions      [1 -1 -2 0 0 0 0];

internalField   nonuniform List<scalar> 
2268
(
-4.54123e-08
-3.464e-07
-7.34703e-07
7.58386e-07
1.47199e-05
2.05468e-05
1.81772e-05
-8.75767e-05
-0.000599123
-0.00115544
-0.00109998
-0.00110248
-0.000696511
0.0015479
0.011761
0.0449173
0.105518
0.140105
0.149775
0.184498
0.24902
0.421327
-3.17657
-4.56089e-08
-3.43097e-07
-7.17356e-07
8.00959e-07
1.4612e-05
2.04058e-05
1.83219e-05
-8.8161e-05
-0.000612225
-0.00132956
-0.00133093
-0.00149454
-0.00127784
0.00162797
0.0154371
0.0547958
0.115479
0.134788
0.132199
0.0961438
-0.171396
-0.738718
-4.15546
-4.52535e-08
-3.37607e-07
-6.9064e-07
8.41802e-07
1.42043e-05
2.01257e-05
1.91736e-05
-8.4917e-05
-0.000609449
-0.00144476
-0.00151952
-0.00176764
-0.00105157
0.00504752
0.0264347
0.0711525
0.114198
0.119105
0.136865
0.142395
0.0381129
-0.399204
-4.98625
-4.38033e-08
-3.32195e-07
-6.70012e-07
8.02678e-07
1.33521e-05
2.00878e-05
2.1961e-05
-6.89216e-05
-0.000504531
-0.00134456
-0.00154358
-0.0017442
0.000107919
0.012034
0.0461902
0.0921602
0.110798
0.11159
0.119727
0.113561
0.17458
0.213486
-4.86504
-4.59109e-08
-3.35744e-07
-6.77441e-07
6.52854e-07
1.23121e-05
2.09127e-05
2.7223e-05
-4.30677e-05
-0.000484794
-0.00131838
-0.00155851
-0.0015857
0.00191544
0.0222128
0.0732141
0.105293
0.103626
0.11238
0.0804574
-0.0465534
0.160676
0.681522
-4.48768
-6.6218e-08
-3.65836e-07
-7.33296e-07
4.27795e-07
1.1309e-05
2.31064e-05
3.50384e-05
9.85877e-06
-0.000458869
-0.00131791
-0.00170369
-0.00149555
0.00422078
0.0364407
0.0990485
0.10663
0.118477
0.107176
0.00901566
-0.29514
-0.0907709
0.576299
-4.4046
-1.35945e-07
-4.48932e-07
-8.70133e-07
1.57789e-07
1.09561e-05
2.65428e-05
4.36239e-05
2.95937e-06
-0.000709472
-0.00131353
-0.00212126
-0.00120215
0.00847473
0.0612843
0.116047
0.116084
0.128124
0.089368
-0.0706227
-0.335233
-0.6169
0.350561
-4.59114
-2.01866e-07
-4.53609e-07
-9.08853e-07
2.28825e-07
1.26092e-05
3.10066e-05
5.94233e-05
1.0247e-05
-0.00105435
-0.00151838
-0.0024924
0.000277785
0.0188814
0.0984153
0.11666
0.132928
0.108812
-0.000935907
-0.265803
-0.703113
-1.83944
0.103217
-4.08046
4.63091e-05
5.46972e-06
-4.51962e-06
-8.76312e-07
3.77946e-08
1.96351e-08
1.03826e-09
-1.59455e-10
-3.07029e-11
-2.10683e-12
3.19991e-13
1.23446e-13
5.13003e-14
3.3687e-14
5.59326e-14
-2.05434e-14
2.81092e-14
5.97347e-14
7.65421e-14
8.779e-05
5.49668e-05
3.82842e-06
-1.62226e-06
-2.38793e-07
8.43784e-09
3.60624e-09
1.73558e-10
-2.65348e-11
-6.07427e-12
-4.77772e-13
8.50459e-14
3.21603e-15
1.02591e-13
4.12905e-14
6.46668e-14
1.32711e-14
1.73425e-13
5.75759e-14
-0.000156532
9.39857e-05
3.27571e-05
6.35635e-07
-5.91949e-07
-5.38911e-08
3.62544e-09
8.01792e-10
2.84356e-11
-8.09312e-12
-1.81029e-12
-1.06223e-13
7.71328e-14
6.23612e-14
4.54335e-14
-3.27181e-15
4.08258e-14
1.35014e-13
9.88499e-14
-0.00135964
-0.000160166
6.19194e-05
1.1043e-05
-2.14682e-07
-1.51346e-07
-6.24981e-09
1.13889e-09
1.60514e-10
1.07131e-12
-3.00835e-12
-4.7257e-13
-1.08368e-14
1.14742e-13
6.67714e-14
-5.04083e-14
-4.88476e-14
8.4422e-14
4.20207e-14
-0.00312069
-0.00121803
-3.39878e-05
2.38168e-05
2.23695e-06
-1.40341e-07
-2.65108e-08
9.38971e-11
2.896e-10
3.3078e-11
-1.11234e-12
-9.62615e-13
-1.36312e-13
1.11775e-13
-9.35876e-15
-7.81645e-15
-4.67757e-14
1.49601e-13
7.01311e-14
0.00352943
-0.00247588
-0.000451532
8.02448e-06
5.67042e-06
1.98141e-07
-3.77502e-08
-3.1003e-09
2.68067e-10
7.32173e-11
6.16321e-12
-1.03908e-12
-2.97963e-13
1.18253e-13
5.11796e-14
7.18298e-14
9.60063e-14
1.08771e-13
6.15049e-14
0.0479749
0.00132617
-0.000948951
-8.34434e-05
5.06515e-06
8.04438e-07
-1.8091e-08
-6.81654e-09
-1.72178e-10
1.00759e-10
1.83405e-11
-2.84861e-13
-4.13745e-13
3.3112e-14
1.16786e-13
7.1535e-14
1.81626e-13
3.5411e-14
2.26568e-14
0.125083
0.019565
-0.000351333
-0.000188253
-4.11049e-06
1.15569e-06
4.19321e-08
-9.03545e-09
-1.07539e-09
1.03355e-10
3.25576e-11
2.12251e-12
-4.40513e-13
3.65375e-14
3.65632e-14
4.92016e-14
2.98666e-14
-6.81654e-14
3.09932e-14
3.33504e-07
1.44062e-07
-1.52154e-07
1.84083e-06
1.7394e-05
4.03904e-05
7.76865e-05
-9.47281e-05
-0.0015122
-0.00201464
-0.00230552
0.00685229
0.0493568
0.135224
0.131183
0.101274
-0.0620299
-0.293398
-0.742574
-0.921896
-2.16247
-1.00913
-1.39271
1.15541e-05
1.24414e-05
1.56729e-05
2.16637e-05
5.31894e-05
9.52066e-05
0.000158946
-0.000428239
-0.00187011
-0.00336023
-0.000974917
0.0283336
0.131318
0.157227
0.183773
0.0506711
-0.377942
-0.610374
-1.32151
-1.68309
-2.32548
-2.87849
-0.934247
0.000105166
0.000108686
0.000135756
0.000149547
0.000245679
0.000383524
0.000568246
-0.00109203
-0.00254461
-0.00437766
0.0111467
0.0828246
0.180779
0.226344
0.129438
-0.319642
-0.991831
-0.989429
-2.11139
-0.778546
-0.404383
-2.42071
-0.106493
0.000509726
0.000503942
0.000624423
0.000625142
0.000924397
0.00119518
0.00154048
-0.00266302
-0.00527983
-0.00410298
0.060948
0.162491
0.250187
0.259443
-0.135062
-0.697166
-0.755034
-0.552144
0.808193
-0.158498
2.76978
0.342414
0.315603
0.00113816
0.0010043
0.00125449
0.000837732
0.00131617
0.00121334
-0.000767938
-0.0145956
-0.0192289
-0.000390627
0.138083
0.112723
0.375287
0.159782
-0.425699
-0.60652
-0.0308688
0.120091
0.823576
1.50632
1.84839
1.23247
1.24723
-0.00317028
-0.00407682
-0.00462392
-0.00752631
-0.00929899
-0.0139061
-0.03641
-0.0789118
-0.0846154
0.0174353
0.196131
0.0538019
0.570412
-0.0906134
-0.534781
0.025353
0.333915
0.178645
0.311683
0.417846
1.58393
1.24154
0.330901
-0.0423983
-0.0467182
-0.0526682
-0.0668348
-0.0832285
-0.10832
-0.222381
-0.301208
-0.310334
0.0675634
0.228387
-0.367542
0.68165
-0.45629
-0.213251
0.0728539
-0.188261
-0.0449465
-0.000367879
-0.132758
0.554469
0.437358
-0.00849763
-0.217458
-0.231589
-0.257144
-0.302369
-0.361943
-0.447775
-0.800075
-0.886158
-0.841486
0.054316
0.289555
-1.22034
0.44976
-0.505217
-0.158214
0.205002
0.0542388
-0.0664131
-0.0617
-0.160369
0.34363
0.187379
-0.0759252
-0.712879
-0.745553
-0.801184
-0.897113
-1.00788
-1.14232
-1.82485
-1.80928
-1.72226
-0.122285
0.348593
-1.89202
0.0528142
0.0555998
0.265944
0.296283
0.166044
-0.0153188
-0.039369
-0.0624557
0.136458
0.113956
-0.0210128
-1.45848
-1.48532
-1.51135
-1.56189
-1.50959
-1.36653
-2.11269
-2.03487
-2.38167
-0.343441
0.648345
-2.22026
1.55179
0.45968
0.144393
0.0120022
0.00969492
-0.0381626
-0.018608
-0.0201922
0.0955582
0.0701038
-0.0269974
-1.14184
-1.10121
-0.936592
-0.770219
-0.252725
0.302566
-0.275023
-0.954256
-1.87472
-0.0182359
1.15414
-1.90992
3.65681
0.215208
-0.316497
-0.163229
-0.0508981
-0.00703987
0.00291423
-0.0041511
0.0550802
0.0277133
-0.00665795
1.08949
1.12617
1.29689
1.36984
1.64844
1.60082
0.799148
-0.367753
2.09954
1.41652
3.27897
-1.198
4.16456
-0.47695
-0.326135
-0.0700497
-0.0164763
0.00403289
0.00246037
0.000186931
0.00718525
0.00239082
0.00190418
1.34418
1.28049
1.2404
1.11081
1.0762
0.839521
0.340058
-0.157632
1.54725
2.31616
3.6255
-0.364675
1.08996
-0.379785
-0.144752
-0.0498409
-0.0198496
1.7011e-05
0.00117046
-0.000414677
-0.00138664
-0.000558819
0.00405182
0.440073
0.400439
0.359421
0.288999
0.244512
0.143726
-0.0419992
-0.26917
0.493231
1.44379
2.64242
0.351044
0.0373053
-0.149656
-0.0772752
-0.0209184
-0.00788542
-7.26784e-07
0.000754952
0.000124633
-0.000325566
-0.000155593
0.00308102
0.00462842
-0.00528984
-0.0188026
-0.034694
-0.0476417
-0.0618064
-0.0984394
-0.189361
0.0167236
0.499201
1.11246
0.422878
0.0343459
-0.0780823
-0.0597912
-0.00683669
0.00119183
0.000930013
0.000518543
1.40585e-05
-4.52434e-05
-9.19676e-05
0.000628034
-0.0833341
-0.082097
-0.0816499
-0.0803393
-0.074785
-0.0717045
-0.076642
-0.108955
-0.114621
0.040824
0.295059
0.151158
-0.0325287
-0.0644012
-0.0331367
-0.00355986
0.00152874
0.000542042
0.000176544
-1.94316e-05
5.17504e-06
-4.87036e-05
7.21264e-05
-0.0723346
-0.0698345
-0.0671735
-0.0657882
-0.0654054
-0.0654378
-0.0706912
-0.0849195
-0.0923659
-0.0903567
-0.00756637
0.00156473
-0.0510865
-0.0552675
-0.0102615
0.000375601
0.00107891
0.000404473
3.83871e-05
-2.0878e-05
-2.1993e-05
-0.000126698
-0.000430991
-0.0516012
-0.0469811
-0.0402636
-0.0384783
-0.026411
-0.0270317
-0.0339312
-0.0435343
-0.0741859
-0.068505
-0.0485808
-0.0386185
-0.0514366
-0.0405059
-0.00541479
0.000994936
0.000724029
0.000335885
1.46974e-05
-1.341e-05
-1.36985e-05
-0.000101577
-0.000669946
-0.00494306
-0.00311751
-0.00114242
-0.00332805
0.00145965
-0.00425866
-0.00928529
-0.00691344
-0.0243804
-0.0373681
-0.0435466
-0.0440047
-0.0387853
-0.0193337
-0.00701995
-0.00130328
0.000344055
0.000228847
1.7464e-05
-9.90282e-06
-1.06453e-05
-0.000121912
-0.000844995
0.000922028
0.00124067
0.00143607
0.00115502
0.00167225
0.000938047
-0.00115222
0.000719095
-0.00390124
-0.00652042
-0.00673556
-0.00502687
-0.00820703
-0.00510944
-0.00279796
-0.000489229
0.000320823
0.000182465
1.52513e-05
-4.95964e-06
-1.41339e-06
-8.51764e-05
-0.0013468
0.000908227
0.000891021
0.000882637
0.00094595
0.000952001
0.001042
0.0010313
0.00138045
0.000848604
0.000227885
1.91719e-05
0.000148453
-0.00118761
-0.0007525
1.30762e-05
0.000338731
0.00019778
7.79068e-05
-8.94366e-06
-5.07279e-06
-1.48517e-06
-4.26123e-05
-0.00072044
0.000691551
0.00067061
0.000648158
0.000665645
0.000697992
0.000921625
0.000875039
0.000877063
0.00073707
0.000631826
0.000408747
0.000170369
0.000163971
0.000129567
0.000192023
0.000150404
0.000112742
3.21137e-06
-7.19598e-06
-2.51936e-06
-4.32412e-07
-3.00311e-05
-0.000267521
7.43888e-05
4.79487e-05
4.11243e-05
3.79269e-05
5.07507e-05
0.000162694
0.000376119
0.000525485
0.000585336
0.000386108
0.000223982
0.000112662
0.000125891
9.61768e-05
0.000103381
6.23234e-05
1.19904e-05
-5.58425e-06
-2.9463e-06
-9.6928e-07
6.7048e-07
-7.89779e-06
-0.00013175
-2.07085e-05
-2.21583e-05
-2.15722e-05
-2.30441e-05
-2.72163e-05
-2.22241e-05
1.91834e-06
4.12169e-05
7.54049e-05
5.95325e-05
6.84203e-05
7.07883e-05
5.7924e-05
2.63631e-05
6.52375e-06
-5.44504e-07
-4.25242e-06
-2.60309e-06
-1.50762e-06
8.73033e-09
4.45279e-07
5.35947e-07
-3.01037e-05
-1.17165e-05
-1.15963e-05
-1.14438e-05
-1.20018e-05
-1.45687e-05
-1.83067e-05
-1.95844e-05
-1.15568e-05
-6.14542e-06
-8.65663e-06
-1.30058e-05
-9.41458e-06
-5.712e-06
-4.87221e-06
-3.15149e-06
-1.81082e-06
-1.50447e-06
-1.21795e-06
2.51932e-08
8.51163e-08
1.18875e-07
8.75604e-07
7.10432e-07
-4.65057e-06
-4.36735e-06
-4.60302e-06
-5.04806e-06
-7.32228e-06
-1.12469e-05
-1.12658e-05
-9.81126e-06
-9.97065e-06
-1.05608e-05
-1.11456e-05
-6.52717e-06
-3.04059e-06
-1.26359e-06
-8.89833e-07
-8.02545e-07
-4.71024e-07
6.18407e-08
5.71601e-08
3.44713e-08
1.9606e-08
1.5657e-07
1.43464e-06
4.82945e-07
5.02573e-07
5.07444e-07
6.21499e-07
4.22555e-07
-8.79328e-07
-4.2893e-06
-6.80396e-06
-7.08852e-06
-3.91458e-06
-1.07221e-06
-1.96126e-07
1.07475e-07
1.5138e-07
4.26728e-08
-2.61326e-08
5.30189e-08
4.63774e-08
2.42865e-08
1.58339e-08
-2.18042e-09
2.15644e-09
2.29224e-07
2.24435e-07
2.29989e-07
2.47134e-07
3.02642e-07
3.51391e-07
2.63e-07
3.34524e-08
1.37083e-07
9.17954e-08
2.97198e-07
4.30462e-07
3.20724e-07
1.85084e-07
8.59237e-08
2.76408e-08
2.29041e-08
1.98799e-08
1.18103e-08
2.05553e-09
-5.45675e-10
-1.39242e-09
-2.59532e-09
1.30554e-09
7.71405e-08
7.94883e-08
9.20551e-08
1.2403e-07
1.40456e-07
1.6218e-07
2.23726e-07
2.71625e-07
2.58157e-07
2.32525e-07
2.02169e-07
1.5935e-07
4.18877e-08
-6.63299e-09
-1.40921e-09
2.99474e-09
1.32142e-09
-7.90945e-10
-9.05365e-10
-7.40814e-10
-4.14289e-10
-2.33522e-10
-2.24183e-09
-6.67176e-09
-6.9997e-09
-7.58761e-09
-4.50697e-09
6.15164e-09
5.20929e-08
1.01673e-07
1.05239e-07
9.78249e-08
6.62787e-08
1.74276e-08
-2.12054e-09
-8.61721e-09
-5.77792e-09
-2.53159e-09
-8.49631e-10
-5.53115e-10
-4.02197e-10
-2.61962e-10
-1.2176e-10
1.36948e-11
2.46495e-11
-1.68678e-10
-3.34259e-09
-3.51859e-09
-4.07091e-09
-4.98437e-09
-6.03101e-09
-5.11787e-09
-3.90918e-09
-4.27491e-09
-3.10706e-09
-3.83109e-09
-6.53123e-09
-6.16386e-09
-4.38213e-09
-2.15886e-09
-3.86215e-11
-5.57541e-12
-3.10928e-11
-1.63092e-11
6.46694e-12
1.82882e-11
1.47178e-11
1.06272e-11
5.72929e-12
-1.12144e-09
-1.15347e-09
-1.30077e-09
-1.59859e-09
-2.12998e-09
-3.01406e-09
-3.33398e-09
-3.41382e-09
-3.14337e-09
-2.98583e-09
-2.57895e-09
-1.95184e-09
-3.96383e-10
2.6665e-10
1.66059e-10
6.69049e-11
3.74066e-11
1.64247e-11
8.57128e-12
4.86897e-12
2.6812e-12
4.49918e-13
9.39508e-13
7.98756e-11
8.68599e-11
9.07027e-11
7.92859e-11
-2.07763e-11
-2.71221e-10
-6.79046e-10
-8.59493e-10
-8.57937e-10
-5.29924e-10
-1.65939e-10
3.59234e-11
1.31248e-10
1.07671e-10
5.94845e-11
1.08911e-11
2.85874e-13
-4.72011e-13
-4.45993e-13
-3.17911e-13
-2.64075e-13
-1.2501e-13
-9.7816e-14
4.43143e-11
4.56182e-11
4.94382e-11
5.60257e-11
6.96591e-11
7.41561e-11
6.78746e-11
6.37652e-11
5.39058e-11
5.89014e-11
6.93679e-11
6.68755e-11
4.81433e-11
1.54348e-11
-2.92219e-12
-3.52908e-12
-1.98095e-12
-1.3788e-12
-3.81861e-13
-1.52591e-13
-2.93381e-14
-6.10581e-14
4.43263e-14
7.90832e-12
8.307e-12
9.51767e-12
1.34752e-11
1.72516e-11
2.40479e-11
2.99298e-11
3.22841e-11
3.07403e-11
2.67183e-11
2.1538e-11
1.72035e-11
3.26473e-12
-2.69727e-12
-2.31827e-12
-1.36944e-12
-4.82182e-13
-1.97971e-14
8.44236e-14
9.83645e-15
3.76332e-14
-3.04624e-14
9.68088e-14
-8.28331e-13
-8.43765e-13
-9.30139e-13
-1.08359e-12
-8.23546e-13
5.56944e-14
1.34629e-12
2.33934e-12
2.51923e-12
1.56552e-12
3.32281e-13
-6.45303e-13
-1.32513e-12
-1.02745e-12
-5.36404e-13
2.32778e-15
7.68351e-14
2.57106e-14
1.21879e-13
7.36595e-14
4.06973e-14
1.19569e-13
1.47581e-13
-2.1114e-13
-2.47502e-13
-1.60208e-13
-4.46216e-13
-4.82852e-13
-6.29754e-13
-6.24334e-13
-5.9236e-13
-5.8373e-13
-6.18826e-13
-5.52679e-13
-3.93392e-13
-2.44454e-13
-6.80411e-14
-1.8362e-14
2.08849e-13
7.90097e-14
2.65047e-14
-3.63935e-14
4.08349e-14
-3.00977e-14
-6.37418e-15
8.97585e-14
4.71481e-14
3.28231e-14
1.18759e-13
6.2602e-14
2.50552e-14
-5.31758e-14
9.04094e-14
-1.33242e-13
-2.41444e-13
-1.52941e-13
-4.77762e-14
5.04154e-14
1.50786e-13
9.56314e-14
-3.99209e-14
-3.71374e-14
1.20815e-13
6.46123e-14
1.35409e-13
-4.25456e-14
8.42193e-14
5.61971e-14
6.30445e-14
-3.76262e-14
-4.02999e-14
2.54062e-14
7.28268e-14
1.46881e-13
6.4554e-14
1.17308e-13
-2.37407e-14
9.93505e-14
-6.09865e-14
2.09931e-13
2.83083e-13
1.36399e-13
7.18969e-14
1.11756e-15
-5.7113e-14
2.88454e-14
8.85786e-14
1.02788e-13
1.37448e-13
1.17823e-13
-8.00897e-14
3.00217e-14
1.54439e-14
-6.84823e-14
-3.91187e-14
7.50261e-14
7.44882e-14
9.55486e-14
7.94012e-14
4.214e-14
1.3546e-13
1.9239e-14
8.88612e-14
1.33226e-13
1.7869e-14
1.08753e-15
1.12284e-13
8.01487e-15
1.5601e-15
1.58023e-14
8.59059e-14
1.74638e-13
-4.23671e-14
-5.96019e-14
4.88142e-14
2.98835e-14
8.05655e-15
3.90715e-14
1.28622e-13
4.08443e-14
4.73576e-14
1.50525e-13
-4.72875e-14
1.80569e-13
-9.51141e-15
2.31342e-13
1.19354e-13
-1.26955e-13
1.08904e-13
3.35624e-14
8.63336e-14
-6.74971e-14
1.80001e-13
5.44038e-14
1.14899e-13
2.7933e-14
1.02693e-13
-5.07917e-15
1.28011e-13
1.13326e-13
-6.77516e-15
1.71144e-13
-3.05113e-14
2.10453e-13
1.87556e-13
7.6499e-14
-3.51664e-15
7.33329e-14
1.00771e-13
-4.39868e-14
1.11682e-13
-2.37974e-14
-9.38771e-16
-5.25807e-14
-2.84237e-14
1.95222e-13
1.81634e-14
1.15944e-13
-2.72803e-14
1.96952e-13
1.31752e-13
5.46447
4.48945
-9.12393
-7.43195
1.89586
5.77344
0.138756
-5.94965
1.8966
3.12952
4.24533
-1.4941
3.28736
3.14744
5.3196
0.821214
1.64411
6.26723
4.86796
3.94794
-1.04047
4.80142
6.70172
5.77556
-1.34597
0.668409
6.48136
6.45527
-1.03422
-0.843633
2.53189
7.01157
-0.479308
-0.986061
0.131831
5.32132
-0.231946
-0.675737
-0.654723
3.21319
-0.0829435
-0.376783
-0.875007
1.22326
-0.0454062
-0.257025
-0.598554
0.309861
0.0112943
-0.0928199
-0.388647
-0.681118
0.019482
0.00802104
-0.249122
-0.874487
0.013542
0.0225707
-0.151141
-0.669136
0.00954916
0.0154882
-0.111408
-0.488521
0.00574876
0.0109566
-0.0771822
-0.35878
0.000614039
0.0130109
-0.0338283
-0.227351
-0.001188
0.00848927
0.00872105
-0.0669477
-0.00501974
0.00658677
0.0264339
0.0304926
-0.0058724
-0.00223984
0.0153027
0.0497853
-0.00312206
-0.00476513
-0.00143188
0.0199552
-0.00153804
-0.00306113
-0.00475131
-0.00333143
-0.00050053
-0.00144293
-0.00326578
-0.00455735
-8.38116e-05
-0.000403703
-0.00128804
-0.00272208
-5.03588e-07
-5.22685e-05
-0.000265098
-0.000813579
1.97882e-06
-2.36817e-07
-2.48903e-05
-0.000124293
2.42847e-07
6.63424e-07
5.49998e-08
-8.24178e-06
2.77111e-09
6.55533e-08
1.54363e-07
-3.21875e-08
-1.38899e-09
9.06584e-10
1.41945e-08
2.5808e-08
-1.20556e-10
-2.52153e-10
1.76493e-10
2.22391e-09
-2.15791e-13
-1.89671e-11
-4.4975e-11
1.22575e-11
4.88626e-13
1.16965e-13
-2.12986e-12
-6.01571e-12
8.9319e-14
3.07462e-13
1.29978e-13
-2.03132e-13
3.12645e-14
9.09152e-15
1.49503e-13
1.90714e-13
3.89419e-14
9.33666e-14
4.48896e-14
-4.51823e-14
1.04526e-13
2.40902e-13
1.22677e-13
1.45384e-13
3.40845e-14
8.82563e-14
7.65345e-14
5.11134e-14
1.32953e-13
5.74257e-15
4.81609e-14
1.53803e-13
1.52862e-14
6.22937e-14
5.3417e-14
1.655e-14
-1.04881e-13
-4.22059e-14
-1.55927e-14
7.38769e-15
6.27232e-14
-2.01121e-14
-9.13512e-14
-8.03035e-14
-0.294936
0.049768
0.00345451
-0.000196413
-2.4681e-05
8.47378e-07
1.50551e-07
-8.30659e-09
-2.56468e-09
-5.10174e-11
5.46178e-11
9.75669e-12
-1.65392e-13
-7.24455e-14
1.37581e-13
2.84924e-14
-2.73282e-14
1.35046e-13
4.6893e-14
-1.34343
-0.0319148
0.00397042
0.00033982
-1.97218e-05
-1.28951e-06
2.49616e-07
8.79139e-09
-6.49597e-09
-1.23445e-09
7.67211e-11
3.83283e-11
4.05802e-12
-2.30853e-13
1.23414e-13
1.84259e-13
2.37134e-14
5.17786e-15
1.17508e-13
-0.796954
-0.170057
-0.0193773
-0.000484351
4.3378e-05
-3.27899e-07
2.47788e-07
8.37104e-08
-9.1405e-09
-4.12363e-09
-7.31386e-10
5.33294e-11
2.09739e-11
1.0918e-12
-6.47286e-14
1.95469e-13
1.34401e-13
1.10134e-13
-8.20175e-14
-0.239758
-0.155343
-0.0294135
-0.00301619
-5.81577e-05
8.26684e-07
5.32442e-07
2.20386e-07
5.93106e-08
-4.87718e-09
-2.66772e-09
-2.37177e-10
4.44485e-11
7.02065e-12
-1.88147e-13
-2.33336e-15
-2.35959e-15
-5.64413e-15
1.13158e-13
0.307846
-0.215671
-0.0278069
-0.00345118
-7.07825e-05
-6.48874e-06
-1.51164e-06
4.68294e-07
1.86994e-07
1.79921e-08
-5.74005e-09
-1.27049e-09
2.54401e-11
2.20739e-11
1.00079e-12
-9.44168e-14
1.41054e-13
1.29143e-13
2.85462e-14
0.135592
-0.698574
-0.0388257
0.00157622
0.00025167
-1.63116e-05
-7.73266e-06
2.22434e-07
5.10756e-07
1.34516e-07
-3.06308e-09
-4.1746e-09
-3.48532e-10
4.77988e-11
6.34445e-12
-1.622e-13
1.6931e-13
9.03833e-14
-3.94791e-14
1.80214
-0.455593
-0.117485
-0.000793309
0.000534326
-1.68647e-05
-1.17616e-05
-6.93567e-06
4.81652e-07
4.32935e-07
7.21929e-08
-8.42547e-09
-1.77623e-09
7.91972e-12
1.97e-11
8.24358e-13
-3.17486e-15
5.86847e-14
1.17815e-13
3.07766
0.300637
-0.16448
-0.0211475
0.000445316
-2.26961e-05
-2.84883e-05
-1.23017e-05
-4.83218e-06
7.898e-07
2.85126e-07
8.34323e-09
-4.70989e-09
-3.57954e-10
3.28893e-11
4.17443e-12
-5.52259e-14
6.62845e-14
2.23612e-13
2.96795
1.21826
-0.0503707
-0.0542943
-0.000519608
0.000324018
-6.25014e-05
-3.02721e-05
-1.86087e-05
-1.18955e-06
6.70342e-07
9.16094e-08
-5.48412e-09
-1.33301e-09
-7.80635e-12
1.00975e-11
4.20586e-13
3.88458e-14
1.07417e-13
2.90867
1.48224
0.118668
-0.0577664
-0.00213759
0.000680178
-0.000173481
-6.2669e-05
-2.9472e-05
-1.19272e-05
6.21449e-07
2.8003e-07
9.68415e-09
-2.4697e-09
-1.98602e-10
1.00477e-11
1.57903e-12
-6.14688e-14
5.20846e-14
2.7338
1.28807
0.063671
-0.0450553
0.0016997
0.00200648
0.000655145
-5.02126e-05
-4.88476e-05
-3.19172e-05
-3.1575e-06
4.82715e-07
6.91034e-08
-8.84078e-10
-5.80009e-10
-1.41842e-11
2.57522e-12
1.03965e-13
4.1226e-14
2.56803
1.1412
-0.00461696
-0.0407035
0.00987972
0.00739244
0.00125385
0.000504028
2.7942e-05
-8.12937e-05
-1.53032e-05
1.18798e-07
1.77346e-07
8.85867e-09
-7.55154e-10
-7.88133e-11
8.57183e-13
4.27511e-13
-9.49506e-14
2.13269
1.10642
-0.00389974
-0.0311402
0.0262534
0.0418132
0.00739183
0.00100496
0.000436853
-0.000190033
-4.23354e-05
-2.54759e-06
3.14054e-07
3.40324e-08
-4.25204e-11
-1.7094e-10
-6.1432e-12
4.63743e-13
5.91402e-14
1.68944
1.00598
-0.0216674
-0.0188219
0.0544167
0.0998951
0.0348147
0.00506173
0.00138968
-0.000372087
-0.000113893
-9.4025e-06
2.45128e-07
7.53044e-08
2.54013e-09
-2.02135e-10
-1.83637e-11
7.57822e-14
1.18473e-13
1.18062
0.916742
0.011704
-0.0175972
0.0598704
0.117333
0.077239
0.0166421
0.00530413
-0.000501849
-0.000258297
-2.58974e-05
-4.06806e-07
9.98718e-08
7.61887e-09
-5.30481e-11
-2.7638e-11
-7.79276e-13
2.34487e-13
0.910891
0.848464
0.044515
-0.0285268
0.0594076
0.118448
0.136311
0.0716802
0.0118499
-0.000724636
-0.000450814
-5.58872e-05
-2.6893e-06
7.04533e-08
1.34077e-08
4.13484e-10
-2.44803e-11
-1.85164e-12
8.28103e-14
0.725352
0.739863
0.37603
-0.0210689
0.0594225
0.111579
0.145045
0.10632
0.021319
-4.28277e-05
-0.000581601
-9.85987e-05
-7.4145e-06
-1.77256e-07
1.39293e-08
1.09187e-09
2.75146e-12
-2.29967e-12
-7.63576e-14
0.412172
0.679369
0.500665
0.138899
0.0758397
0.125313
0.161238
0.127265
0.0316742
0.00203809
-0.00048372
-0.0001395
-1.43396e-05
-6.4745e-07
5.26334e-10
1.37306e-09
3.55715e-11
-1.67248e-12
-4.45707e-14
0.0966534
0.537387
0.438391
0.331804
0.173873
0.185417
0.188192
0.131496
0.0364131
0.00459683
-0.000195652
-0.000144897
-1.78263e-05
-9.85064e-07
-1.38014e-08
1.06172e-09
4.34709e-11
-8.2857e-13
1.23791e-13
0.047923
0.301452
0.391866
0.304543
0.223462
0.213072
0.194038
0.11264
0.0227162
0.00108629
-0.000409859
-9.8549e-05
-9.55776e-06
-4.39596e-07
-3.34959e-09
5.24828e-10
1.33796e-11
-4.75329e-13
1.01463e-13
0.07209
0.237534
0.336246
0.286205
0.233103
0.211064
0.132621
0.000985904
-0.00751404
-0.00162108
-0.000275162
-2.48136e-05
-1.07817e-06
2.1015e-08
4.67959e-09
1.48804e-10
-3.82415e-12
-1.72292e-13
1.18319e-13
0.089069
0.22714
0.294211
0.265549
0.236778
0.17203
0.0334011
-0.00479534
-0.0019889
-0.000346296
-2.60923e-05
-5.66848e-07
1.27536e-07
1.38733e-08
3.67125e-10
-2.2918e-11
-1.49892e-12
1.18651e-13
1.4482e-13
0.046558
0.191721
0.251481
0.233045
0.199189
0.0732409
0.000195615
-0.00267575
-0.000534202
-4.74645e-05
-1.01355e-06
1.90314e-07
1.69884e-08
4.88928e-11
-7.56831e-11
-3.95159e-12
2.01218e-13
4.6131e-14
1.16016e-13
0.00616985
0.10179
0.17057
0.152175
0.0928526
0.00822008
-0.00342706
-0.00102639
-0.000125842
-6.71315e-06
-1.67378e-09
1.22581e-08
-4.98549e-10
-1.18252e-10
-3.88932e-12
3.39198e-13
5.06406e-14
-9.77175e-15
1.1286e-13
-0.00178547
0.0258307
0.0597114
0.0484268
0.0176449
-0.00267898
-0.00145146
-0.000239044
-1.8333e-05
-4.91662e-07
1.88531e-08
6.41699e-10
-7.95159e-11
-1.60834e-12
7.49266e-13
1.24829e-13
3.41111e-14
-2.4106e-14
2.83899e-13
-0.00149296
0.00103957
0.00990529
0.00731943
0.000273561
-0.0014403
-0.000336102
-3.47944e-05
-1.53241e-06
1.33251e-08
3.80714e-09
3.86243e-11
-3.10742e-12
4.2927e-13
1.18415e-13
1.48081e-13
-1.66912e-13
-3.95118e-14
-2.03891e-14
-0.000407854
-0.000999531
-0.000137267
-0.000213909
-0.000714957
-0.000280762
-4.53693e-05
-3.36779e-06
-8.09897e-08
4.56223e-09
2.95602e-10
-3.17008e-12
-3.03165e-13
-1.26753e-14
1.83347e-15
1.44254e-13
7.5895e-14
3.40585e-14
1.88209e-14
-4.50838e-05
-0.000227847
-0.000382911
-0.000302118
-0.000211478
-4.27914e-05
-4.95558e-06
-2.3963e-07
1.655e-09
6.65468e-10
1.2964e-11
-9.91381e-13
7.92504e-14
1.39866e-13
1.07418e-13
1.60971e-13
1.76576e-13
1.18757e-13
-1.49943e-13
-2.51351e-06
-2.26552e-05
-5.72747e-05
-5.13074e-05
-2.04203e-05
-3.41505e-06
-2.43383e-07
9.57952e-10
1.02759e-09
3.88804e-11
-1.97786e-12
-1.20078e-13
7.63063e-14
3.49984e-14
-6.64619e-15
6.29731e-14
-2.00461e-14
4.42296e-14
2.86455e-14
-2.06137e-08
-1.15416e-06
-4.27548e-06
-4.27843e-06
-1.0717e-06
-1.01653e-07
3.09935e-09
1.13494e-09
5.00508e-11
-2.75619e-12
-2.32271e-13
4.77579e-14
-2.79523e-14
1.01462e-13
1.1274e-14
7.01536e-14
1.14483e-13
1.90221e-13
5.48719e-14
5.83875e-09
-1.20471e-08
-1.61936e-07
-1.92011e-07
-1.97009e-08
2.58602e-09
7.54425e-10
3.68655e-11
-2.96733e-12
-2.50511e-13
6.55958e-14
2.15171e-14
-5.26971e-14
1.2422e-13
2.79558e-14
1.08866e-13
8.10246e-14
-9.84249e-15
-4.26943e-14
3.75544e-10
1.60532e-09
-2.77604e-10
-2.52575e-09
1.19432e-09
3.09692e-10
1.69679e-11
-2.4065e-12
-3.1194e-13
9.65306e-14
1.3272e-13
5.89575e-14
8.71931e-14
5.90088e-14
5.24717e-14
-6.77861e-14
1.75474e-13
1.63803e-13
-1.15676e-13
-1.48178e-12
1.1245e-10
2.47743e-10
1.84713e-10
7.95704e-11
4.70593e-12
-1.28838e-12
-5.88232e-14
1.40067e-13
1.54126e-13
2.4961e-14
1.08906e-13
1.13436e-14
2.26569e-13
1.16778e-13
8.41292e-14
1.04193e-13
2.589e-13
6.0973e-14
-7.15745e-13
-3.5694e-13
8.11934e-12
8.63947e-12
6.58473e-13
-3.38219e-13
-1.63287e-14
1.91846e-13
1.94645e-13
-1.89953e-14
1.72582e-13
1.46527e-13
1.89487e-13
3.5146e-14
2.29532e-13
2.1181e-13
1.62485e-14
1.44492e-13
-3.088e-14
3.64729e-14
-1.88324e-13
-9.92014e-14
1.67017e-14
9.26537e-14
-9.16414e-15
6.71988e-14
9.09631e-14
2.05098e-14
-5.30367e-14
1.69569e-13
1.03956e-13
6.29788e-14
2.16416e-14
7.54205e-14
1.44368e-13
1.27851e-13
8.75875e-14
1.57789e-13
3.46515e-14
-4.63856e-16
4.06696e-14
-3.02821e-14
6.57048e-14
9.60055e-14
1.35445e-13
1.89415e-13
7.97201e-16
5.34029e-14
1.43577e-13
1.58401e-13
1.56952e-14
1.15503e-13
6.65565e-14
1.2335e-13
1.90097e-13
1.05105e-13
2.78291e-14
1.7517e-13
1.56282e-13
4.98205e-15
-6.64918e-16
3.50254e-14
9.01323e-15
4.15282e-14
3.80078e-14
4.29948e-15
2.31101e-14
7.40068e-15
2.11943e-14
2.83421e-14
-6.86944e-16
1.10134e-13
4.53986e-14
6.01078e-15
-1.47895e-14
-6.85113e-14
1.14928e-13
-2.4978e-15
9.30059e-14
1.58245e-13
1.88331e-13
8.74736e-14
6.19194e-14
-2.71868e-15
1.15368e-13
-4.39744e-14
-8.34809e-14
7.00242e-14
1.03239e-13
3.2042e-14
6.77125e-14
1.28627e-13
1.69171e-13
1.51925e-13
2.10294e-14
9.57107e-14
2.70278e-14
3.24932e-14
1.42063e-13
1.69052e-13
7.48403e-14
3.60208e-14
2.02719e-14
5.11514e-14
-4.30414e-14
1.57342e-14
1.00228e-13
1.38935e-13
2.99358e-14
4.02409e-14
7.67302e-14
-8.74495e-15
1.64056e-13
-6.02517e-14
4.63141e-14
4.60988e-14
5.97559e-14
1.88533e-13
-4.97073e-14
1.03634e-13
9.733e-14
1.22626e-13
1.64665e-13
6.29278e-14
1.67622e-13
8.30794e-14
2.43699e-14
-7.0227e-14
9.99842e-14
1.06594e-13
6.84964e-14
2.17554e-14
1.02104e-13
-8.78376e-15
5.48888e-15
3.33386e-13
7.56095e-14
2.52355e-15
6.18875e-14
1.25148e-13
2.16093e-14
6.00844e-15
1.94535e-15
9.89593e-14
5.28564e-14
1.05439e-13
-1.08376e-13
1.27563e-14
-3.24408e-14
1.37784e-13
9.58192e-14
4.78329e-15
1.3456e-13
8.669e-15
2.92673e-14
1.06137e-13
1.5088e-13
-8.59459e-14
1.44372e-13
5.00249e-15
1.35531e-13
6.86359e-14
1.16793e-13
1.72696e-13
1.11627e-13
-1.22435e-13
5.35908e-14
1.58319e-13
9.97833e-14
-5.26633e-15
1.15483e-13
)
;

boundaryField
{
    leftWall
    {
        type            zeroGradient;
    }
    rightWall
    {
        type            zeroGradient;
    }
    lowerWall
    {
        type            zeroGradient;
    }
    atmosphere
    {
        type            zeroGradient;
    }
    defaultFaces
    {
        type            empty;
    }
}


// ************************************************************************* //
