/*--------------------------------*- C++ -*----------------------------------*\
| =========                 |                                                 |
| \\      /  F ield         | foam-extend: Open Source CFD                    |
|  \\    /   O peration     | Version:     4.1                                |
|   \\  /    A nd           | Web:         http://www.foam-extend.org         |
|    \\/     M anipulation  |                                                 |
\*---------------------------------------------------------------------------*/
FoamFile
{
    version     2.0;
    format      ascii;
    class       volVectorField;
    location    "0.15";
    object      U;
}
// * * * * * * * * * * * * * * * * * * * * * * * * * * * * * * * * * * * * * //

dimensions      [0 1 -1 0 0 0 0];

internalField   nonuniform List<vector> 
2268
(
(0.0622609 -0.0102903 0)
(0.110211 -0.0101867 0)
(0.237083 -0.0110599 0)
(0.292395 -0.00869587 0)
(0.39872 -0.0142195 0)
(0.500632 -0.00691741 0)
(0.583318 -0.011521 0)
(0.644404 -0.00862057 0)
(0.752289 -0.00906487 0)
(0.750886 0.0394154 0)
(0.65778 -0.117422 0)
(0.67608 -0.0750017 0)
(0.748311 -0.0795619 0)
(0.7912 -0.0388475 0)
(0.843367 -0.0364524 0)
(0.854745 -0.0127738 0)
(0.930206 -0.0755763 0)
(0.96802 -0.0135469 0)
(0.91397 -0.0276721 0)
(0.846823 0.0294347 0)
(0.788814 -0.0328695 0)
(0.797817 0.0136391 0)
(1.01859 0.152769 0)
(0.0624024 -0.0304261 0)
(0.110593 -0.0305234 0)
(0.238113 -0.033011 0)
(0.292501 -0.0275125 0)
(0.401322 -0.0372437 0)
(0.50106 -0.034211 0)
(0.588349 -0.0247653 0)
(0.645075 -0.0313248 0)
(0.779107 -0.0211137 0)
(0.719976 -0.0222997 0)
(0.644144 -0.124855 0)
(0.676249 -0.0611164 0)
(0.77035 -0.035702 0)
(0.794783 -0.0261611 0)
(0.861798 0.00547398 0)
(0.831087 0.0146058 0)
(0.89596 0.0350566 0)
(1.10654 0.0251094 0)
(1.04612 0.0473837 0)
(0.91653 0.0154161 0)
(0.312766 0.118899 0)
(0.318205 0.258213 0)
(0.857274 0.302787 0)
(0.0620704 -0.051213 0)
(0.110363 -0.0511567 0)
(0.237938 -0.0549776 0)
(0.293315 -0.045267 0)
(0.394002 -0.0659591 0)
(0.518325 -0.0483861 0)
(0.567709 -0.0477665 0)
(0.670424 -0.0557278 0)
(0.786118 -0.0308254 0)
(0.677914 -0.215548 0)
(0.62558 -0.150977 0)
(0.673458 -0.0860299 0)
(0.73131 -0.0696813 0)
(0.773686 -0.0666912 0)
(0.816734 -0.012007 0)
(0.828842 0.00105474 0)
(0.927972 0.130821 0)
(0.98287 0.030642 0)
(0.935781 0.0540678 0)
(0.897469 0.0227703 0)
(0.671849 0.182584 0)
(0.431544 0.212943 0)
(0.710073 0.436001 0)
(0.0618281 -0.070992 0)
(0.110474 -0.0715261 0)
(0.238434 -0.0771927 0)
(0.292146 -0.0625943 0)
(0.401961 -0.0927064 0)
(0.509158 -0.0732131 0)
(0.568597 -0.0635421 0)
(0.724152 -0.0896574 0)
(0.67587 -0.0881076 0)
(0.6058 -0.223453 0)
(0.604064 -0.14408 0)
(0.6412 -0.119525 0)
(0.70823 -0.0842844 0)
(0.74758 -0.0741668 0)
(0.785916 -0.0122869 0)
(0.823927 -0.00214148 0)
(0.907298 0.0888461 0)
(0.971458 0.0275719 0)
(0.951696 0.0417496 0)
(0.956998 0.086822 0)
(0.87493 0.338484 0)
(0.662744 0.334425 0)
(0.67494 0.58335 0)
(0.0610574 -0.0921043 0)
(0.110026 -0.0925005 0)
(0.238581 -0.0985729 0)
(0.292866 -0.0825052 0)
(0.40754 -0.119422 0)
(0.495743 -0.0847399 0)
(0.577628 -0.105691 0)
(0.728411 -0.0690475 0)
(0.626901 -0.241469 0)
(0.566298 -0.214773 0)
(0.59087 -0.165016 0)
(0.635434 -0.154663 0)
(0.699609 -0.107419 0)
(0.7431 -0.103009 0)
(0.782094 -0.040721 0)
(0.859753 -0.0334199 0)
(0.907716 0.0303246 0)
(1.00972 0.00065862 0)
(1.00639 0.0300032 0)
(1.05073 0.0426166 0)
(1.03547 0.349177 0)
(0.723543 0.541288 0)
(0.813329 0.758884 0)
(0.0605921 -0.110935 0)
(0.110711 -0.113047 0)
(0.238601 -0.121248 0)
(0.295494 -0.101394 0)
(0.411259 -0.142973 0)
(0.48873 -0.111049 0)
(0.636665 -0.135734 0)
(0.58608 -0.130725 0)
(0.524626 -0.257363 0)
(0.540355 -0.227644 0)
(0.580871 -0.171253 0)
(0.645675 -0.183892 0)
(0.715474 -0.125254 0)
(0.75324 -0.115344 0)
(0.81675 -0.0722284 0)
(0.914852 -0.0489736 0)
(0.949929 -0.0106275 0)
(1.05914 0.0200758 0)
(1.03259 0.0638526 0)
(1.12127 0.128327 0)
(1.24953 0.445204 0)
(0.946823 0.743188 0)
(0.763718 0.957051 0)
(0.0585569 -0.133122 0)
(0.110677 -0.134335 0)
(0.240119 -0.142301 0)
(0.297193 -0.122253 0)
(0.411519 -0.167312 0)
(0.501066 -0.150702 0)
(0.561268 -0.109509 0)
(0.520476 -0.273842 0)
(0.494 -0.261548 0)
(0.534661 -0.245281 0)
(0.581085 -0.210377 0)
(0.670912 -0.229197 0)
(0.739522 -0.155169 0)
(0.784317 -0.158532 0)
(0.852719 -0.112831 0)
(0.944686 -0.0944865 0)
(1.00035 -0.0762324 0)
(1.10129 -0.00404119 0)
(1.09247 0.0580512 0)
(1.09267 0.232387 0)
(1.29164 0.46054 0)
(0.983803 1.05841 0)
(0.869161 1.17592 0)
(0.0575117 -0.148964 0)
(0.115171 -0.154886 0)
(0.240937 -0.166741 0)
(0.296736 -0.151259 0)
(0.407044 -0.207766 0)
(0.506228 -0.123043 0)
(0.439011 -0.19481 0)
(0.465243 -0.300905 0)
(0.480306 -0.272547 0)
(0.538588 -0.274613 0)
(0.591616 -0.238318 0)
(0.713283 -0.269294 0)
(0.768924 -0.164204 0)
(0.80118 -0.178761 0)
(0.86071 -0.151516 0)
(0.939148 -0.111827 0)
(1.06212 -0.155304 0)
(1.13785 -0.0553257 0)
(1.13073 0.0399904 0)
(1.19831 0.35286 0)
(1.35947 0.560797 0)
(1.11773 1.10043 0)
(0.710385 1.56413 0)
(-0.0219958 0.0224117 0)
(-0.0638725 0.00908203 0)
(-0.101517 0.0091154 0)
(-0.152551 0.00792191 0)
(-0.176447 -0.00125973 0)
(-0.191551 0.006231 0)
(-0.197558 0.00378929 0)
(-0.206552 0.00528131 0)
(-0.217434 -0.0021139 0)
(-0.22972 -0.000848347 0)
(-0.231699 0.00176933 0)
(-0.249831 0.0234939 0)
(-0.268645 -0.0420793 0)
(-0.291315 -0.0526216 0)
(-0.299557 -0.00486911 0)
(-0.196267 -0.00901168 0)
(-0.149621 -0.00558167 0)
(-0.0850146 -0.00609421 0)
(-0.030315 -0.0059074 0)
(-0.0235122 0.0517385 0)
(-0.0798977 0.0257387 0)
(-0.110179 0.0268764 0)
(-0.169324 0.0244461 0)
(-0.186477 0.0180281 0)
(-0.202398 0.0162689 0)
(-0.20865 0.00987715 0)
(-0.217574 0.0126307 0)
(-0.22683 0.0104462 0)
(-0.2358 0.00871163 0)
(-0.227152 0.0120164 0)
(-0.258027 -0.0117411 0)
(-0.307949 0.0561599 0)
(-0.316374 -0.0617634 0)
(-0.27727 -0.0138728 0)
(-0.203098 -0.0226835 0)
(-0.151777 -0.0174325 0)
(-0.0869418 -0.0184247 0)
(-0.0308839 -0.0180204 0)
(-0.0226235 0.108512 0)
(-0.0685434 0.0476518 0)
(-0.124656 0.0490226 0)
(-0.173955 0.0417561 0)
(-0.187196 0.0100003 0)
(-0.203658 0.0265232 0)
(-0.210783 0.0138785 0)
(-0.215341 0.0248347 0)
(-0.224716 0.0115811 0)
(-0.236522 0.0109016 0)
(-0.248114 0.00139834 0)
(-0.256396 -0.0486011 0)
(-0.295217 -0.0235456 0)
(-0.331021 -0.0581715 0)
(-0.269682 -0.0283087 0)
(-0.204061 -0.0347525 0)
(-0.151027 -0.0297037 0)
(-0.0870151 -0.0308652 0)
(-0.0308044 -0.0302977 0)
(-0.0525316 0.132663 0)
(-0.0844767 0.0710433 0)
(-0.126058 0.0668717 0)
(-0.194994 0.0498464 0)
(-0.193058 0.0324781 0)
(-0.192329 0.0402186 0)
(-0.211317 0.0262299 0)
(-0.216345 0.0259496 0)
(-0.23476 0.010221 0)
(-0.24089 0.0079989 0)
(-0.252254 0.0362933 0)
(-0.275071 -0.0722226 0)
(-0.305538 -0.0492486 0)
(-0.321187 -0.0658213 0)
(-0.2632 -0.0403834 0)
(-0.203379 -0.0469954 0)
(-0.150209 -0.0417382 0)
(-0.0871617 -0.0431407 0)
(-0.0307072 -0.0424914 0)
(-0.0378704 0.213795 0)
(-0.0942784 0.0848455 0)
(-0.147381 0.0965351 0)
(-0.194674 0.0703206 0)
(-0.204603 0.0498327 0)
(-0.203119 0.0504254 0)
(-0.221951 0.0293998 0)
(-0.225005 0.0181944 0)
(-0.235408 0.0135458 0)
(-0.221806 0.0471631 0)
(-0.29783 -0.00234881 0)
(-0.293055 -0.0686249 0)
(-0.293144 -0.0814178 0)
(-0.333825 -0.0678675 0)
(-0.256011 -0.0543104 0)
(-0.205048 -0.0575975 0)
(-0.149514 -0.0540098 0)
(-0.0873945 -0.0553745 0)
(-0.0306319 -0.0547447 0)
(-0.0537985 0.244245 0)
(-0.0971857 0.125698 0)
(-0.152865 0.10529 0)
(-0.222384 0.0805865 0)
(-0.207574 0.0421789 0)
(-0.194246 0.0542251 0)
(-0.225047 0.0500381 0)
(-0.233192 0.0655192 0)
(-0.236163 0.0482579 0)
(-0.24631 0.00544046 0)
(-0.298946 -0.0552359 0)
(-0.306371 -0.0109408 0)
(-0.312702 -0.0964734 0)
(-0.30905 -0.0709227 0)
(-0.259075 -0.0676877 0)
(-0.203375 -0.0685446 0)
(-0.149311 -0.0661799 0)
(-0.0875821 -0.0675495 0)
(-0.0305557 -0.0669734 0)
(-0.0906381 0.319003 0)
(-0.126684 0.144705 0)
(-0.17281 0.14951 0)
(-0.240786 0.081657 0)
(-0.220046 0.0347615 0)
(-0.192206 0.0782823 0)
(-0.233478 0.0571866 0)
(-0.236703 0.0452213 0)
(-0.286004 -0.0214747 0)
(-0.278737 -0.0698136 0)
(-0.303207 0.0138771 0)
(-0.304116 -0.0379769 0)
(-0.318036 -0.0794664 0)
(-0.310974 -0.0777908 0)
(-0.257683 -0.0774117 0)
(-0.204372 -0.0797104 0)
(-0.149148 -0.0783232 0)
(-0.0878962 -0.0798116 0)
(-0.0305292 -0.079321 0)
(-0.159494 0.435108 0)
(-0.203156 0.197977 0)
(-0.187777 0.153668 0)
(-0.275344 0.123637 0)
(-0.224453 0.0487009 0)
(-0.189575 0.0707413 0)
(-0.23782 0.0930781 0)
(-0.287152 0.0279944 0)
(-0.291882 -0.0584511 0)
(-0.259419 0.041299 0)
(-0.311055 -0.04974 0)
(-0.347512 -0.0257722 0)
(-0.328614 -0.090286 0)
(-0.305656 -0.0831136 0)
(-0.259372 -0.0884307 0)
(-0.204145 -0.0904452 0)
(-0.149436 -0.0899739 0)
(-0.0882277 -0.0916116 0)
(-0.030523 -0.0911968 0)
(0.0504705 -0.18819 0)
(0.118048 -0.188824 0)
(0.226151 -0.201986 0)
(0.270935 -0.146517 0)
(0.41895 -0.218554 0)
(0.373202 -0.242613 0)
(0.379905 -0.294702 0)
(0.450388 -0.307189 0)
(0.475236 -0.30138 0)
(0.545552 -0.306242 0)
(0.597381 -0.311643 0)
(0.751749 -0.32908 0)
(0.760209 -0.267681 0)
(0.771899 -0.24288 0)
(0.848463 -0.203993 0)
(0.999977 -0.230487 0)
(1.1117 -0.220575 0)
(1.25078 -0.0821611 0)
(1.26614 0.0491882 0)
(1.24805 0.302122 0)
(1.45792 0.573964 0)
(1.68063 1.33208 0)
(1.19662 2.03465 0)
(0.0560425 -0.217949 0)
(0.10133 -0.235711 0)
(0.25125 -0.227985 0)
(0.236709 -0.279765 0)
(0.25971 -0.268658 0)
(0.322904 -0.347382 0)
(0.382719 -0.314655 0)
(0.411149 -0.354977 0)
(0.474943 -0.36036 0)
(0.539332 -0.386093 0)
(0.610535 -0.389169 0)
(0.698052 -0.409429 0)
(0.747015 -0.372503 0)
(0.810441 -0.323759 0)
(0.943791 -0.353354 0)
(1.14797 -0.358231 0)
(1.20782 -0.272398 0)
(1.32598 -0.0677132 0)
(1.17141 0.115123 0)
(1.23181 0.456082 0)
(1.88401 0.881071 0)
(1.9642 1.15928 0)
(1.48048 1.76271 0)
(0.0374579 -0.268136 0)
(0.0743597 -0.289797 0)
(0.14857 -0.277223 0)
(0.200269 -0.354836 0)
(0.248826 -0.327727 0)
(0.300812 -0.359431 0)
(0.347618 -0.379106 0)
(0.405919 -0.407476 0)
(0.468381 -0.435653 0)
(0.533889 -0.452255 0)
(0.612069 -0.454396 0)
(0.694877 -0.488655 0)
(0.785848 -0.414194 0)
(0.844742 -0.462981 0)
(1.06279 -0.521709 0)
(1.14828 -0.485168 0)
(1.2415 -0.346622 0)
(1.19748 -0.109599 0)
(1.24271 0.141851 0)
(1.17691 0.69777 0)
(1.72968 0.996246 0)
(1.58384 0.867171 0)
(1.54299 1.61909 0)
(0.0372222 -0.332136 0)
(0.072984 -0.345115 0)
(0.1466 -0.350059 0)
(0.175104 -0.373017 0)
(0.235503 -0.367763 0)
(0.273574 -0.426889 0)
(0.342214 -0.425744 0)
(0.370384 -0.461562 0)
(0.45235 -0.49224 0)
(0.496258 -0.52893 0)
(0.589666 -0.539817 0)
(0.659161 -0.574438 0)
(0.770974 -0.530426 0)
(0.865082 -0.661526 0)
(1.09143 -0.675966 0)
(1.14227 -0.569192 0)
(1.15726 -0.351706 0)
(1.1374 -0.0857839 0)
(1.27481 0.194541 0)
(1.15875 0.770121 0)
(1.77332 1.0812 0)
(1.42689 0.739149 0)
(1.39589 1.29694 0)
(0.0243832 -0.378962 0)
(0.070301 -0.395019 0)
(0.115333 -0.384336 0)
(0.163808 -0.428071 0)
(0.206891 -0.43475 0)
(0.257837 -0.459605 0)
(0.296784 -0.479796 0)
(0.344062 -0.516035 0)
(0.421989 -0.564663 0)
(0.461678 -0.595435 0)
(0.554294 -0.615973 0)
(0.621045 -0.666734 0)
(0.768438 -0.741053 0)
(0.899293 -0.827923 0)
(1.0051 -0.751686 0)
(0.982309 -0.566696 0)
(1.01536 -0.346328 0)
(0.962632 -0.111305 0)
(1.12561 0.243472 0)
(0.911568 0.875856 0)
(1.58647 1.29808 0)
(1.21594 0.788463 0)
(1.1007 1.08199 0)
(0.0255399 -0.428755 0)
(0.0600374 -0.434745 0)
(0.109572 -0.447375 0)
(0.147203 -0.460577 0)
(0.188795 -0.466136 0)
(0.227011 -0.507629 0)
(0.270793 -0.522673 0)
(0.312074 -0.576527 0)
(0.375578 -0.616804 0)
(0.396831 -0.661515 0)
(0.497918 -0.702818 0)
(0.554916 -0.820562 0)
(0.792162 -0.963396 0)
(0.819173 -0.931055 0)
(0.84724 -0.771864 0)
(0.843581 -0.580932 0)
(0.795038 -0.350438 0)
(0.803613 -0.0843871 0)
(1.22806 0.403031 0)
(0.932496 0.935768 0)
(1.64995 1.924 0)
(1.10372 1.1486 0)
(0.934214 1.0105 0)
(0.0169772 -0.464894 0)
(0.056672 -0.476159 0)
(0.0912226 -0.474471 0)
(0.127018 -0.501155 0)
(0.164641 -0.522576 0)
(0.200964 -0.534244 0)
(0.235843 -0.571054 0)
(0.269725 -0.612024 0)
(0.30646 -0.651453 0)
(0.3135 -0.700768 0)
(0.432754 -0.781986 0)
(0.494092 -0.966748 0)
(0.750591 -1.12374 0)
(0.663715 -0.970356 0)
(0.642844 -0.715491 0)
(0.636304 -0.51634 0)
(0.649604 -0.282152 0)
(0.802893 0.283724 0)
(1.62328 0.703465 0)
(1.00328 0.416028 0)
(1.67615 1.70087 0)
(1.14184 1.47629 0)
(0.781595 0.550228 0)
(0.0170014 -0.503704 0)
(0.0478928 -0.507447 0)
(0.0805527 -0.520091 0)
(0.114654 -0.529822 0)
(0.142855 -0.546251 0)
(0.170139 -0.571454 0)
(0.211991 -0.602737 0)
(0.224823 -0.63701 0)
(0.243726 -0.6898 0)
(0.240017 -0.796775 0)
(0.371391 -0.95862 0)
(0.405336 -1.13372 0)
(0.569372 -1.17143 0)
(0.440981 -0.889373 0)
(0.470439 -0.702789 0)
(0.544781 -0.556163 0)
(0.788496 -0.413832 0)
(1.22532 0.185156 0)
(2.46827 0.453695 0)
(0.886662 -0.458187 0)
(1.99899 1.28519 0)
(1.42944 1.26736 0)
(0.822152 0.275467 0)
(0.0123469 -0.534315 0)
(0.0425331 -0.537811 0)
(0.0673788 -0.547737 0)
(0.093675 -0.558634 0)
(0.120778 -0.585769 0)
(0.145424 -0.604778 0)
(0.173156 -0.637141 0)
(0.172206 -0.650995 0)
(0.171456 -0.728815 0)
(0.202693 -0.856086 0)
(0.322643 -1.03873 0)
(0.273878 -1.16609 0)
(0.405298 -1.1418 0)
(0.306013 -0.874598 0)
(0.400634 -0.82693 0)
(0.584942 -0.842837 0)
(0.8414 -0.738194 0)
(1.42368 -0.441744 0)
(2.10786 0.362738 0)
(0.859364 0.148804 0)
(1.9866 1.23719 0)
(1.62304 1.22439 0)
(1.35798 0.439706 0)
(0.0140061 -0.565816 0)
(0.0365942 -0.566903 0)
(0.0613796 -0.577557 0)
(0.0839118 -0.580193 0)
(0.104841 -0.600247 0)
(0.124971 -0.616652 0)
(0.157011 -0.651999 0)
(0.137352 -0.619828 0)
(0.120158 -0.672013 0)
(0.16851 -0.796663 0)
(0.201111 -0.986109 0)
(0.0972671 -1.24546 0)
(0.265795 -1.17748 0)
(0.227648 -0.909835 0)
(0.322084 -1.01429 0)
(0.232617 -1.04357 0)
(0.0450707 -1.04295 0)
(-0.0742974 -0.455921 0)
(0.562934 0.580532 0)
(0.079561 0.0105575 0)
(1.63618 1.17329 0)
(1.46389 1.28129 0)
(2.01663 0.665835 0)
(0.0148747 -0.582744 0)
(0.037108 -0.588949 0)
(0.0690726 -0.597646 0)
(0.0859331 -0.618476 0)
(0.125042 -0.642592 0)
(0.146353 -0.668284 0)
(0.204392 -0.717894 0)
(0.275474 -0.656126 0)
(0.346761 -1.09837 0)
(0.206376 -1.19539 0)
(-0.0259669 -1.40367 0)
(-0.144476 -1.33409 0)
(0.11848 -1.37162 0)
(0.176027 -0.966938 0)
(-0.151351 -0.909528 0)
(-0.57274 -0.502272 0)
(-0.734917 -0.433488 0)
(-0.578694 -0.199581 0)
(-0.248516 -0.166425 0)
(-0.481678 -0.591314 0)
(0.837318 0.852637 0)
(0.788567 1.09212 0)
(1.29505 0.764013 0)
(0.0163857 -0.634678 0)
(0.0396868 -0.64215 0)
(0.0711413 -0.646731 0)
(0.084223 -0.664808 0)
(0.113737 -0.682647 0)
(0.0847116 -0.698419 0)
(0.109802 -0.732724 0)
(0.0722027 -0.729196 0)
(0.10277 -1.4725 0)
(0.0448418 -1.39508 0)
(0.0881614 -1.63652 0)
(-0.0442624 -1.48353 0)
(0.108174 -1.50759 0)
(-0.234776 -0.787348 0)
(-0.482028 -0.425845 0)
(-0.747182 -1.11916 0)
(-0.624051 -0.779273 0)
(-0.526454 -0.61507 0)
(-0.497259 -0.5129 0)
(-0.639546 -0.503349 0)
(-0.245301 0.303007 0)
(0.04169 0.481202 0)
(0.797211 0.57789 0)
(0.0100421 -0.628549 0)
(0.0237142 -0.632186 0)
(0.0301368 -0.633188 0)
(0.029028 -0.642319 0)
(0.0342334 -0.645391 0)
(0.0313832 -0.686775 0)
(0.0900226 -0.72419 0)
(0.14769 -0.674157 0)
(0.118214 -1.2493 0)
(-0.0198563 -1.3216 0)
(0.0266001 -1.44112 0)
(-0.17163 -1.32518 0)
(-0.351868 -1.06085 0)
(-0.280759 -0.388616 0)
(-0.634723 -0.533194 0)
(-0.711791 -1.0239 0)
(-0.352989 -0.715421 0)
(-0.538303 -0.64211 0)
(-0.424462 -0.627509 0)
(-0.394936 -0.464811 0)
(-0.196631 -0.027615 0)
(0.172866 -0.0902151 0)
(0.62504 0.230471 0)
(-0.00485242 -0.645994 0)
(-0.01103 -0.647476 0)
(-0.013869 -0.648266 0)
(-0.0129029 -0.657121 0)
(-0.0032381 -0.670698 0)
(0.00680874 -0.748659 0)
(0.0710782 -0.827674 0)
(0.217399 -0.744454 0)
(0.241266 -1.13495 0)
(0.020339 -1.20452 0)
(0.0551133 -1.32364 0)
(-0.304627 -1.45962 0)
(-0.705936 -0.885231 0)
(-0.452642 -0.50494 0)
(-0.415114 -0.853717 0)
(-0.493604 -0.750639 0)
(-0.393266 -0.889334 0)
(-0.437946 -0.678036 0)
(-0.243284 -0.555009 0)
(-0.154582 -0.483403 0)
(0.0389197 -0.230817 0)
(0.52204 -0.292577 0)
(0.735145 -0.0518986 0)
(-0.00228165 -0.688394 0)
(-0.00939571 -0.689618 0)
(-0.0119699 -0.68472 0)
(-0.0160357 -0.683348 0)
(-0.0173871 -0.674485 0)
(-0.00403454 -0.741129 0)
(0.031294 -0.857446 0)
(0.022317 -0.909291 0)
(0.106029 -0.75782 0)
(0.145009 -0.899796 0)
(-0.10241 -0.999123 0)
(-0.171488 -1.65304 0)
(-0.470453 -1.21536 0)
(-0.145455 -0.599605 0)
(-0.265537 -1.23168 0)
(-0.274637 -0.942405 0)
(-0.355589 -0.745076 0)
(-0.153825 -0.719399 0)
(-0.131661 -0.745782 0)
(-0.0168452 -0.647118 0)
(0.138693 -0.401263 0)
(0.566884 -0.394717 0)
(0.740228 -0.60039 0)
(0.00593782 -0.698408 0)
(0.0173462 -0.701103 0)
(0.0476371 -0.713819 0)
(0.0631573 -0.755989 0)
(0.0767155 -0.833246 0)
(0.106291 -0.997016 0)
(0.135716 -1.31307 0)
(0.0819795 -1.11532 0)
(0.0915568 -0.565104 0)
(-0.0147127 -0.681179 0)
(0.09831 -0.783445 0)
(-0.110141 -0.945289 0)
(-0.177944 -0.987313 0)
(-0.105956 -1.13299 0)
(-0.250069 -1.29439 0)
(-0.119416 -0.990902 0)
(-0.186812 -0.625502 0)
(-0.223559 -0.703826 0)
(-0.0389987 -0.668191 0)
(0.158914 -0.685234 0)
(0.337018 -0.50968 0)
(0.566468 -0.635365 0)
(0.850457 -0.948327 0)
(0.0110446 -1.32209 0)
(0.0131206 -1.3609 0)
(0.0716136 -1.43766 0)
(0.0946996 -1.47941 0)
(0.125406 -1.63634 0)
(0.198273 -1.76356 0)
(0.207278 -1.8084 0)
(0.218261 -1.77204 0)
(0.251856 -0.844657 0)
(0.16583 -0.37939 0)
(0.0950281 -0.729385 0)
(0.050458 -1.0608 0)
(0.0924881 -1.01186 0)
(-0.0944252 -1.18522 0)
(-0.0152255 -0.912504 0)
(0.140343 -0.885627 0)
(-0.0973402 -0.850381 0)
(-0.135635 -0.857397 0)
(0.0242112 -0.690417 0)
(0.16894 -0.806323 0)
(0.461626 -0.752917 0)
(0.497259 -1.03044 0)
(0.86894 -1.05242 0)
(0.0281785 -1.47576 0)
(0.0436263 -1.47997 0)
(0.113387 -1.46769 0)
(0.12178 -1.41034 0)
(0.0646959 -1.46182 0)
(0.106899 -1.42452 0)
(-0.0918168 -1.36174 0)
(-0.249775 -1.48878 0)
(-0.129374 -1.35947 0)
(0.0517096 -1.0197 0)
(0.17492 -0.659901 0)
(0.118618 -0.78801 0)
(0.146285 -0.9591 0)
(-0.101264 -0.803116 0)
(-0.187549 -0.676044 0)
(-0.122204 -0.911378 0)
(-0.237674 -1.02685 0)
(-0.0300425 -0.79542 0)
(0.122643 -0.827445 0)
(0.235132 -0.855289 0)
(0.366893 -1.02614 0)
(0.589282 -1.13618 0)
(0.768106 -1.31635 0)
(-0.00860312 -0.866003 0)
(-0.0555406 -0.902738 0)
(0.0653954 -0.913045 0)
(-0.0700047 -1.22227 0)
(-0.174266 -1.01311 0)
(-0.0597001 -1.33328 0)
(-0.304175 -1.34615 0)
(-0.295719 -1.12917 0)
(-0.241542 -1.37956 0)
(-0.263305 -1.0652 0)
(-0.288423 -0.970555 0)
(-0.322962 -0.851458 0)
(-0.36535 -0.824013 0)
(-0.262591 -0.862693 0)
(-0.283229 -0.67556 0)
(-0.290967 -0.677172 0)
(-0.145318 -0.727643 0)
(0.0615032 -0.662481 0)
(-0.00629105 -0.814039 0)
(0.0871295 -0.930192 0)
(0.137844 -1.04739 0)
(0.302569 -1.18443 0)
(0.778984 -1.55123 0)
(-0.0220859 -0.652031 0)
(-0.0720878 -0.680785 0)
(-0.177642 -0.714922 0)
(-0.160883 -0.807834 0)
(-0.152771 -0.738669 0)
(-0.19675 -0.872537 0)
(-0.0634965 -1.01912 0)
(-0.314259 -0.774728 0)
(-0.388969 -0.847262 0)
(-0.316003 -1.03272 0)
(-0.433399 -0.929649 0)
(-0.38491 -0.766801 0)
(-0.51292 -0.977343 0)
(-0.214778 -0.744004 0)
(-0.0899645 -0.640916 0)
(-0.25639 -0.605017 0)
(-0.271704 -0.607706 0)
(-0.133095 -0.722101 0)
(-0.10823 -0.837449 0)
(-0.0319949 -0.913811 0)
(-0.0384831 -1.10541 0)
(0.177843 -1.41006 0)
(0.482637 -1.7662 0)
(-0.0116887 -0.657982 0)
(-0.0499198 -0.677738 0)
(-0.0841508 -0.677058 0)
(-0.119338 -0.62093 0)
(-0.193792 -0.689049 0)
(-0.260558 -0.634116 0)
(-0.170531 -0.694481 0)
(-0.190099 -0.709939 0)
(-0.454933 -0.580161 0)
(-0.499185 -0.655132 0)
(-0.170351 -0.697484 0)
(-0.24471 -0.617482 0)
(-0.34375 -0.660684 0)
(-0.0960048 -0.569054 0)
(-0.205571 -0.70823 0)
(-0.355813 -0.653891 0)
(-0.30809 -0.70428 0)
(-0.206428 -0.756293 0)
(-0.201872 -0.878709 0)
(-0.189148 -0.952514 0)
(-0.278785 -1.20664 0)
(0.0333728 -1.41655 0)
(-0.266676 -1.88589 0)
(-0.0167873 -0.561688 0)
(-0.0604232 -0.582004 0)
(-0.103627 -0.587466 0)
(-0.136574 -0.582111 0)
(-0.193106 -0.611463 0)
(-0.257452 -0.548061 0)
(-0.238325 -0.501936 0)
(-0.286634 -0.536537 0)
(-0.393739 -0.506235 0)
(-0.439277 -0.492682 0)
(-0.295347 -0.437903 0)
(-0.274952 -0.514177 0)
(-0.357583 -0.497138 0)
(-0.293725 -0.607067 0)
(-0.194341 -0.689316 0)
(-0.316874 -0.713312 0)
(-0.394202 -0.704031 0)
(-0.330051 -0.774599 0)
(-0.296822 -0.864263 0)
(-0.364869 -0.918965 0)
(-0.439103 -1.20303 0)
(-0.253176 -1.51182 0)
(-0.815874 -2.45119 0)
(0.0018171 -0.990246 0)
(-0.047519 -1.01055 0)
(-0.105952 -1.00508 0)
(-0.147777 -0.98634 0)
(-0.204423 -1.00454 0)
(-0.28209 -0.950979 0)
(-0.325463 -0.919607 0)
(-0.439584 -0.835393 0)
(-0.571957 -0.762562 0)
(-0.488847 -0.571509 0)
(-0.274782 -0.585497 0)
(-0.35972 -0.653012 0)
(-0.422011 -0.560449 0)
(-0.302382 -0.701459 0)
(-0.334704 -0.759919 0)
(-0.383095 -0.751937 0)
(-0.365309 -0.741725 0)
(-0.382161 -0.800984 0)
(-0.318338 -0.85818 0)
(-0.489612 -0.986831 0)
(-0.672083 -1.10457 0)
(-1.02792 -1.48071 0)
(-1.33629 -2.45132 0)
(-0.0123142 -1.1379 0)
(-0.0592349 -1.16344 0)
(-0.105346 -1.15344 0)
(-0.152732 -1.13827 0)
(-0.1988 -1.14718 0)
(-0.257246 -1.10181 0)
(-0.281335 -1.08486 0)
(-0.319589 -1.04762 0)
(-0.294248 -1.05604 0)
(-0.295296 -0.787453 0)
(-0.33632 -0.764937 0)
(-0.206654 -0.817346 0)
(-0.342147 -0.744626 0)
(-0.426201 -0.767226 0)
(-0.228756 -0.832961 0)
(-0.189187 -0.843914 0)
(-0.430267 -0.806784 0)
(-0.474475 -0.79392 0)
(-0.499045 -0.913112 0)
(-0.466983 -1.22433 0)
(-0.813079 -1.32813 0)
(-1.40177 -1.64148 0)
(-1.90312 -2.04764 0)
(-0.0178169 -1.04334 0)
(-0.0626242 -1.05919 0)
(-0.112378 -1.0465 0)
(-0.16126 -1.03052 0)
(-0.20826 -1.03884 0)
(-0.254942 -0.979163 0)
(-0.287198 -0.973903 0)
(-0.380338 -0.98258 0)
(-0.302057 -0.857758 0)
(-0.253006 -0.882713 0)
(-0.27664 -0.797376 0)
(-0.261283 -0.812691 0)
(-0.29276 -0.870377 0)
(-0.300611 -0.794192 0)
(-0.276508 -0.77499 0)
(-0.196844 -0.941161 0)
(-0.316124 -0.900026 0)
(-0.554086 -0.908042 0)
(-0.731431 -0.891883 0)
(-0.850271 -1.30247 0)
(-0.981231 -1.45498 0)
(-1.47426 -1.67966 0)
(-1.8951 -1.63842 0)
(-0.0261891 -1.04648 0)
(-0.0700761 -1.05745 0)
(-0.122403 -1.0471 0)
(-0.174747 -1.02641 0)
(-0.192427 -1.03759 0)
(-0.234867 -0.971832 0)
(-0.315628 -1.01576 0)
(-0.242175 -0.866521 0)
(-0.216338 -0.812117 0)
(-0.255926 -0.814833 0)
(-0.260966 -0.78861 0)
(-0.258648 -0.790932 0)
(-0.294226 -0.788663 0)
(-0.305657 -0.794509 0)
(-0.296156 -0.810079 0)
(-0.248616 -0.876324 0)
(-0.43405 -1.03656 0)
(-0.483131 -0.970874 0)
(-0.754179 -0.934591 0)
(-1.06409 -1.09113 0)
(-1.18693 -1.0883 0)
(-1.60681 -1.18885 0)
(-1.97201 -1.15031 0)
(-0.0204442 -0.980314 0)
(-0.0759775 -0.988735 0)
(-0.108559 -0.967451 0)
(-0.171312 -0.970625 0)
(-0.180675 -0.992419 0)
(-0.282957 -0.923806 0)
(-0.232623 -0.847955 0)
(-0.206252 -0.794588 0)
(-0.238552 -0.797798 0)
(-0.234315 -0.791003 0)
(-0.262432 -0.785286 0)
(-0.259251 -0.773657 0)
(-0.289386 -0.768962 0)
(-0.282488 -0.74396 0)
(-0.36707 -0.785138 0)
(-0.395554 -0.886715 0)
(-0.333615 -0.88243 0)
(-0.437195 -0.978815 0)
(-0.851103 -0.876915 0)
(-1.00901 -0.78545 0)
(-1.09986 -0.897879 0)
(-1.49353 -0.877102 0)
(-1.71269 -0.770962 0)
(-0.0247538 -0.952093 0)
(-0.080367 -0.965685 0)
(-0.11528 -0.930184 0)
(-0.191881 -0.967085 0)
(-0.172878 -0.872296 0)
(-0.158056 -0.886671 0)
(-0.213558 -0.780957 0)
(-0.206885 -0.805967 0)
(-0.22265 -0.768222 0)
(-0.231091 -0.768222 0)
(-0.249754 -0.747468 0)
(-0.264162 -0.743373 0)
(-0.281888 -0.726374 0)
(-0.297143 -0.710633 0)
(-0.377265 -0.724284 0)
(-0.332189 -0.728899 0)
(-0.424762 -0.746622 0)
(-0.398429 -0.792887 0)
(-0.542209 -0.800168 0)
(-1.02898 -0.567529 0)
(-1.24394 -0.641174 0)
(-1.4557 -0.584155 0)
(-1.65751 -0.503362 0)
(-0.0338373 -0.890282 0)
(-0.0454916 -0.891687 0)
(-0.14081 -0.88895 0)
(-0.120516 -0.847987 0)
(-0.119304 -0.806821 0)
(-0.163005 -0.818305 0)
(-0.17196 -0.779577 0)
(-0.188007 -0.773306 0)
(-0.208108 -0.757276 0)
(-0.216505 -0.744011 0)
(-0.236149 -0.737269 0)
(-0.247955 -0.716275 0)
(-0.269451 -0.711386 0)
(-0.279946 -0.673919 0)
(-0.336881 -0.686911 0)
(-0.397352 -0.655587 0)
(-0.411884 -0.808965 0)
(-0.421835 -0.615445 0)
(-0.596112 -0.816327 0)
(-0.956679 -0.575227 0)
(-1.17735 -0.419296 0)
(-1.31678 -0.425394 0)
(-1.48025 -0.235835 0)
(-0.00896231 -0.8615 0)
(-0.0469252 -0.853982 0)
(-0.0689068 -0.839622 0)
(-0.108655 -0.78775 0)
(-0.114597 -0.798138 0)
(-0.141436 -0.767529 0)
(-0.157278 -0.749875 0)
(-0.173489 -0.741028 0)
(-0.191457 -0.714024 0)
(-0.206413 -0.709581 0)
(-0.226327 -0.686025 0)
(-0.245055 -0.68177 0)
(-0.263066 -0.661547 0)
(-0.291977 -0.638249 0)
(-0.346864 -0.632291 0)
(-0.427575 -0.625582 0)
(-0.348981 -0.610603 0)
(-0.44873 -0.640769 0)
(-0.57147 -0.638776 0)
(-0.612448 -0.634074 0)
(-1.06027 -0.315124 0)
(-1.26615 -0.288342 0)
(-1.29959 -0.0969145 0)
(-0.0200967 -0.777527 0)
(-0.0381509 -0.777378 0)
(-0.0738996 -0.774798 0)
(-0.0864501 -0.767337 0)
(-0.109111 -0.741685 0)
(-0.128577 -0.739879 0)
(-0.140246 -0.720172 0)
(-0.161761 -0.704464 0)
(-0.173861 -0.6928 0)
(-0.192444 -0.67309 0)
(-0.206939 -0.662961 0)
(-0.225167 -0.640872 0)
(-0.241063 -0.627293 0)
(-0.266347 -0.588947 0)
(-0.310616 -0.580852 0)
(-0.367816 -0.555524 0)
(-0.400067 -0.510098 0)
(-0.40644 -0.600783 0)
(-0.550294 -0.489641 0)
(-0.517677 -0.495351 0)
(-0.690053 -0.45295 0)
(-1.08696 -0.074189 0)
(-1.15165 -0.00394451 0)
(-0.00821445 -0.746081 0)
(-0.0332716 -0.748396 0)
(-0.0483005 -0.741112 0)
(-0.074084 -0.719655 0)
(-0.0890284 -0.719309 0)
(-0.107327 -0.697199 0)
(-0.127014 -0.685118 0)
(-0.141085 -0.6718 0)
(-0.160412 -0.653973 0)
(-0.176105 -0.64144 0)
(-0.19414 -0.623129 0)
(-0.213798 -0.6092 0)
(-0.229274 -0.58909 0)
(-0.257824 -0.560931 0)
(-0.30278 -0.544085 0)
(-0.352359 -0.529665 0)
(-0.391525 -0.512996 0)
(-0.407714 -0.55252 0)
(-0.442142 -0.476649 0)
(-0.463334 -0.33301 0)
(-0.542666 -0.407494 0)
(-0.933786 -0.0960586 0)
(-1.09612 0.107607 0)
(-0.011633 -0.693966 0)
(-0.0280251 -0.69799 0)
(-0.0508332 -0.692182 0)
(-0.0652243 -0.688178 0)
(-0.0826529 -0.674148 0)
(-0.100402 -0.666301 0)
(-0.112896 -0.652354 0)
(-0.131099 -0.638051 0)
(-0.143833 -0.624003 0)
(-0.161353 -0.605432 0)
(-0.175684 -0.590344 0)
(-0.194489 -0.567437 0)
(-0.209852 -0.548197 0)
(-0.235525 -0.509793 0)
(-0.287112 -0.492972 0)
(-0.323764 -0.465199 0)
(-0.409513 -0.446324 0)
(-0.376205 -0.409042 0)
(-0.320078 -0.406252 0)
(-0.465685 -0.341865 0)
(-0.556643 -0.356196 0)
(-0.527462 -0.294954 0)
(-0.875866 0.0833064 0)
(-0.00696236 -0.665801 0)
(-0.0239619 -0.668951 0)
(-0.0377756 -0.664961 0)
(-0.0546391 -0.654214 0)
(-0.0689994 -0.648083 0)
(-0.0835997 -0.634329 0)
(-0.0985087 -0.623454 0)
(-0.112709 -0.608691 0)
(-0.126863 -0.59426 0)
(-0.142484 -0.577178 0)
(-0.155938 -0.560386 0)
(-0.174775 -0.538991 0)
(-0.187016 -0.518146 0)
(-0.212193 -0.480318 0)
(-0.253743 -0.464174 0)
(-0.276304 -0.428825 0)
(-0.325229 -0.39533 0)
(-0.362954 -0.327594 0)
(-0.374821 -0.369921 0)
(-0.407607 -0.314769 0)
(-0.4484 -0.218334 0)
(-0.385329 -0.16398 0)
(-0.665647 -0.146966 0)
(-0.00741781 -0.631933 0)
(-0.020761 -0.636286 0)
(-0.0354251 -0.631299 0)
(-0.0486001 -0.626229 0)
(-0.0615202 -0.616908 0)
(-0.0753981 -0.607667 0)
(-0.086785 -0.59528 0)
(-0.101153 -0.581058 0)
(-0.111892 -0.565965 0)
(-0.127054 -0.546022 0)
(-0.137369 -0.528237 0)
(-0.154557 -0.501284 0)
(-0.162515 -0.480184 0)
(-0.186475 -0.437679 0)
(-0.231631 -0.426292 0)
(-0.261085 -0.39142 0)
(-0.293012 -0.361914 0)
(-0.341483 -0.313648 0)
(-0.309259 -0.268157 0)
(-0.293268 -0.216154 0)
(-0.364874 -0.134502 0)
(-0.338999 -0.0971257 0)
(-0.466731 -0.152657 0)
(-0.0051793 -0.607712 0)
(-0.0166761 -0.611258 0)
(-0.0271813 -0.607483 0)
(-0.0385429 -0.600436 0)
(-0.0488707 -0.593282 0)
(-0.060064 -0.582566 0)
(-0.0697003 -0.571833 0)
(-0.0814961 -0.557868 0)
(-0.0895266 -0.54417 0)
(-0.103296 -0.526204 0)
(-0.109291 -0.510938 0)
(-0.127979 -0.486323 0)
(-0.131325 -0.468118 0)
(-0.160163 -0.41889 0)
(-0.196415 -0.40304 0)
(-0.2141 -0.369939 0)
(-0.241055 -0.328807 0)
(-0.260595 -0.282529 0)
(-0.275326 -0.210215 0)
(-0.267121 -0.198403 0)
(-0.307104 -0.147069 0)
(-0.341292 -0.0841756 0)
(-0.252598 -0.113262 0)
(-0.00445718 -0.588033 0)
(-0.0133805 -0.591935 0)
(-0.0223591 -0.587841 0)
(-0.0314033 -0.582306 0)
(-0.0397382 -0.574355 0)
(-0.0493478 -0.565066 0)
(-0.0567972 -0.553033 0)
(-0.0678602 -0.539579 0)
(-0.0738569 -0.5226 0)
(-0.0886405 -0.50265 0)
(-0.0917633 -0.477478 0)
(-0.113557 -0.444678 0)
(-0.113452 -0.412986 0)
(-0.14628 -0.362697 0)
(-0.175723 -0.381666 0)
(-0.184357 -0.33734 0)
(-0.20344 -0.310242 0)
(-0.221864 -0.269736 0)
(-0.226911 -0.225154 0)
(-0.235414 -0.185311 0)
(-0.239794 -0.151889 0)
(-0.281368 -0.0785709 0)
(-0.204466 -0.00908786 0)
(-0.00374275 -0.567425 0)
(-0.0116995 -0.570967 0)
(-0.0192197 -0.567172 0)
(-0.0269966 -0.561506 0)
(-0.0338192 -0.553951 0)
(-0.041339 -0.544735 0)
(-0.0466978 -0.533213 0)
(-0.0540657 -0.520742 0)
(-0.056216 -0.504962 0)
(-0.0641187 -0.489848 0)
(-0.0585385 -0.467693 0)
(-0.0664012 -0.451907 0)
(-0.0371194 -0.42625 0)
(-0.13101 -0.411903 0)
(-0.186703 -0.371267 0)
(-0.149028 -0.345387 0)
(-0.174347 -0.29669 0)
(-0.175069 -0.260837 0)
(-0.191961 -0.209086 0)
(-0.194238 -0.174909 0)
(-0.203096 -0.119294 0)
(-0.205849 -0.0703805 0)
(-0.219512 0.0161425 0)
(-0.00262002 -0.560175 0)
(-0.00820624 -0.563541 0)
(-0.0136891 -0.560099 0)
(-0.019353 -0.555216 0)
(-0.0245966 -0.548351 0)
(-0.0304104 -0.540357 0)
(-0.0351135 -0.529915 0)
(-0.0412332 -0.519158 0)
(-0.0450259 -0.504721 0)
(-0.0519275 -0.492594 0)
(-0.0551728 -0.471939 0)
(-0.0652662 -0.462726 0)
(-0.0676819 -0.440374 0)
(-0.0875757 -0.458982 0)
(-0.0913358 -0.358552 0)
(-0.106853 -0.327092 0)
(-0.120561 -0.279134 0)
(-0.131034 -0.242922 0)
(-0.142135 -0.199796 0)
(-0.143459 -0.164832 0)
(-0.148506 -0.118453 0)
(-0.148477 -0.0814979 0)
(-0.187064 -0.0179569 0)
(-0.00174106 -0.528202 0)
(-0.00579844 -0.531161 0)
(-0.00981649 -0.527637 0)
(-0.0138079 -0.52262 0)
(-0.0173424 -0.515732 0)
(-0.0212119 -0.507709 0)
(-0.0238446 -0.497399 0)
(-0.0276433 -0.486764 0)
(-0.0286081 -0.472834 0)
(-0.0326106 -0.460317 0)