/*--------------------------------*- C++ -*----------------------------------*\
| =========                 |                                                 |
| \\      /  F ield         | foam-extend: Open Source CFD                    |
|  \\    /   O peration     | Version:     4.1                                |
|   \\  /    A nd           | Web:         http://www.foam-extend.org         |
|    \\/     M anipulation  |                                                 |
\*---------------------------------------------------------------------------*/
FoamFile
{
    version     2.0;
    format      ascii;
    class       volVectorField;
    location    "0.15";
    object      U_0;
}
// * * * * * * * * * * * * * * * * * * * * * * * * * * * * * * * * * * * * * //

dimensions      [0 1 -1 0 0 0 0];

internalField   nonuniform List<vector> 
2268
(
(0.0623153 -0.0103303 0)
(0.110831 -0.010223 0)
(0.237787 -0.0110972 0)
(0.293605 -0.00875246 0)
(0.400202 -0.0142168 0)
(0.502296 -0.00694579 0)
(0.584912 -0.0116087 0)
(0.646491 -0.00858352 0)
(0.754814 -0.00925928 0)
(0.753578 0.0394447 0)
(0.660468 -0.117668 0)
(0.678888 -0.0753812 0)
(0.751581 -0.0801255 0)
(0.79542 -0.0384541 0)
(0.846215 -0.0363128 0)
(0.859159 -0.0125193 0)
(0.935625 -0.0760883 0)
(0.97494 -0.0136611 0)
(0.921111 -0.0284803 0)
(0.858109 0.02548 0)
(0.802169 -0.0355834 0)
(0.810045 0.0146056 0)
(1.03296 0.155716 0)
(0.062459 -0.0305544 0)
(0.111206 -0.0306346 0)
(0.238815 -0.0331277 0)
(0.293707 -0.0276292 0)
(0.402818 -0.0373795 0)
(0.502658 -0.0341953 0)
(0.590052 -0.0248066 0)
(0.647007 -0.0315638 0)
(0.781655 -0.0211014 0)
(0.722447 -0.0224326 0)
(0.646561 -0.125405 0)
(0.678888 -0.0616542 0)
(0.773573 -0.036282 0)
(0.798585 -0.0265265 0)
(0.865701 0.00541708 0)
(0.835341 0.0136801 0)
(0.901534 0.0348951 0)
(1.11475 0.0237466 0)
(1.05369 0.0463223 0)
(0.922536 0.0170774 0)
(0.303807 0.123395 0)
(0.316106 0.258022 0)
(0.866703 0.306294 0)
(0.0621377 -0.0514193 0)
(0.110969 -0.0513399 0)
(0.238666 -0.0551703 0)
(0.294458 -0.0455061 0)
(0.395616 -0.0660632 0)
(0.51984 -0.0484523 0)
(0.569394 -0.047959 0)
(0.672504 -0.0559474 0)
(0.788478 -0.0312129 0)
(0.680144 -0.216324 0)
(0.627894 -0.151673 0)
(0.676011 -0.0863674 0)
(0.734914 -0.0706408 0)
(0.777598 -0.0669518 0)
(0.819643 -0.0113062 0)
(0.833891 0.000147897 0)
(0.934875 0.13015 0)
(0.991088 0.0286142 0)
(0.944369 0.0520941 0)
(0.909248 0.026335 0)
(0.678902 0.187295 0)
(0.441315 0.208547 0)
(0.717658 0.44096 0)
(0.0619073 -0.0712888 0)
(0.111061 -0.0717881 0)
(0.239176 -0.07745 0)
(0.293218 -0.0629058 0)
(0.403448 -0.0929462 0)
(0.510856 -0.0732189 0)
(0.570392 -0.0637543 0)
(0.726147 -0.0900081 0)
(0.677946 -0.0885919 0)
(0.607797 -0.224276 0)
(0.606134 -0.144973 0)
(0.644101 -0.12064 0)
(0.711816 -0.0853622 0)
(0.751014 -0.0744536 0)
(0.789513 -0.0122588 0)
(0.829781 -0.0041731 0)
(0.913303 0.0870047 0)
(0.981348 0.0247804 0)
(0.962271 0.0393282 0)
(0.968733 0.0865804 0)
(0.888808 0.338421 0)
(0.673577 0.338306 0)
(0.684099 0.589406 0)
(0.061157 -0.0924755 0)
(0.1106 -0.0928364 0)
(0.239362 -0.0989002 0)
(0.293883 -0.0829124 0)
(0.408925 -0.119711 0)
(0.497534 -0.0848502 0)
(0.579605 -0.106022 0)
(0.730367 -0.069332 0)
(0.628985 -0.24229 0)
(0.568413 -0.215685 0)
(0.593262 -0.166117 0)
(0.638425 -0.155908 0)
(0.703231 -0.108774 0)
(0.746185 -0.103715 0)
(0.786544 -0.0410973 0)
(0.866736 -0.0360157 0)
(0.915142 0.0258569 0)
(1.02126 -0.00310684 0)
(1.01716 0.0268881 0)
(1.06153 0.0431163 0)
(1.04855 0.354708 0)
(0.738887 0.543407 0)
(0.824812 0.769432 0)
(0.0607128 -0.1114 0)
(0.111252 -0.113465 0)
(0.239394 -0.121621 0)
(0.296496 -0.101828 0)
(0.412642 -0.143406 0)
(0.490464 -0.111223 0)
(0.63869 -0.136026 0)
(0.588197 -0.131285 0)
(0.526906 -0.258387 0)
(0.54256 -0.228613 0)
(0.583553 -0.172595 0)
(0.648878 -0.185523 0)
(0.719082 -0.126552 0)
(0.756841 -0.116289 0)
(0.822009 -0.0735917 0)
(0.921523 -0.0524254 0)
(0.958799 -0.0173185 0)
(1.06978 0.0153443 0)
(1.04288 0.0595583 0)
(1.12943 0.128467 0)
(1.25812 0.446034 0)
(0.954028 0.753617 0)
(0.773018 0.968415 0)
(0.0587206 -0.133659 0)
(0.111187 -0.134829 0)
(0.240958 -0.142765 0)
(0.298216 -0.12281 0)
(0.412873 -0.167822 0)
(0.50297 -0.150976 0)
(0.563579 -0.10994 0)
(0.522765 -0.274923 0)
(0.496395 -0.262664 0)
(0.537052 -0.246454 0)
(0.583823 -0.212001 0)
(0.673892 -0.230943 0)
(0.743326 -0.156323 0)
(0.788066 -0.160122 0)
(0.857661 -0.114961 0)
(0.951114 -0.0996251 0)
(1.01003 -0.0839824 0)
(1.11156 -0.00871705 0)
(1.09916 0.0560688 0)
(1.10135 0.235586 0)
(1.29832 0.464896 0)
(0.991325 1.06603 0)
(0.879046 1.19122 0)
(0.0577104 -0.149584 0)
(0.11562 -0.155455 0)
(0.241826 -0.16724 0)
(0.297897 -0.151844 0)
(0.408571 -0.208495 0)
(0.508407 -0.123364 0)
(0.441134 -0.195522 0)
(0.467486 -0.302182 0)
(0.482685 -0.273693 0)
(0.541054 -0.275779 0)
(0.594385 -0.239959 0)
(0.71646 -0.271339 0)
(0.772869 -0.165989 0)
(0.804622 -0.180994 0)
(0.864891 -0.154391 0)
(0.946306 -0.117983 0)
(1.07111 -0.162854 0)
(1.14739 -0.062168 0)
(1.13991 0.0370769 0)
(1.20493 0.358868 0)
(1.35698 0.564477 0)
(1.12209 1.10919 0)
(0.717643 1.57445 0)
(-0.0226469 0.0230545 0)
(-0.0652082 0.00922767 0)
(-0.103504 0.00918052 0)
(-0.155731 0.00825876 0)
(-0.180938 -0.000810754 0)
(-0.197459 0.00678652 0)
(-0.204694 0.00422516 0)
(-0.214796 0.00549411 0)
(-0.226808 -0.00183978 0)
(-0.239852 -0.000766593 0)
(-0.241564 0.0015289 0)
(-0.260543 0.0240214 0)
(-0.279371 -0.0424288 0)
(-0.3021 -0.0541778 0)
(-0.308887 -0.00501062 0)
(-0.202782 -0.00928436 0)
(-0.154088 -0.00581558 0)
(-0.0876631 -0.00630695 0)
(-0.0311231 -0.00611647 0)
(-0.0242706 0.0535351 0)
(-0.0813814 0.026121 0)
(-0.11189 0.0275458 0)
(-0.172345 0.0252968 0)
(-0.190773 0.0189893 0)
(-0.208135 0.0176106 0)
(-0.215826 0.01095 0)
(-0.225776 0.0135029 0)
(-0.236113 0.0108867 0)
(-0.246 0.00894038 0)
(-0.23691 0.0122912 0)
(-0.268828 -0.0118346 0)
(-0.31922 0.0565142 0)
(-0.326803 -0.0641639 0)
(-0.28616 -0.0147528 0)
(-0.209398 -0.0234474 0)
(-0.156141 -0.018116 0)
(-0.0895339 -0.0190494 0)
(-0.0316723 -0.0186341 0)
(-0.0239001 0.112087 0)
(-0.070094 0.0481845 0)
(-0.126211 0.0498999 0)
(-0.176999 0.0433704 0)
(-0.19139 0.011313 0)
(-0.209345 0.0289333 0)
(-0.217999 0.0160152 0)
(-0.223815 0.026208 0)
(-0.234284 0.0124631 0)
(-0.246564 0.0113774 0)
(-0.257787 0.000781479 0)
(-0.266934 -0.0508984 0)
(-0.306793 -0.0251461 0)
(-0.342102 -0.0605899 0)
(-0.278433 -0.0295905 0)
(-0.210332 -0.0359983 0)
(-0.155356 -0.0308222 0)
(-0.0895891 -0.0318977 0)
(-0.0315892 -0.0313115 0)
(-0.054643 0.137504 0)
(-0.0871529 0.0715286 0)
(-0.127026 0.0681389 0)
(-0.198012 0.0515889 0)
(-0.197198 0.0353679 0)
(-0.197651 0.0442065 0)
(-0.218914 0.0294821 0)
(-0.225078 0.0283604 0)
(-0.244468 0.0112159 0)
(-0.251767 0.00804806 0)
(-0.263174 0.0363024 0)
(-0.285912 -0.0752847 0)
(-0.316785 -0.0521445 0)
(-0.331621 -0.0687491 0)
(-0.271741 -0.0422506 0)
(-0.209599 -0.0487048 0)
(-0.154481 -0.0433011 0)
(-0.0897104 -0.0445815 0)
(-0.0314855 -0.0439069 0)
(-0.0405967 0.222985 0)
(-0.0973629 0.0848557 0)
(-0.148523 0.0981361 0)
(-0.196772 0.0735664 0)
(-0.208112 0.0542835 0)
(-0.208659 0.0553184 0)
(-0.229766 0.03383 0)
(-0.234349 0.0211643 0)
(-0.246115 0.0151536 0)
(-0.232421 0.0484332 0)
(-0.30882 -0.00331447 0)
(-0.304533 -0.071207 0)
(-0.304586 -0.0853908 0)
(-0.344606 -0.0710456 0)
(-0.264347 -0.0567309 0)
(-0.211162 -0.0597681 0)
(-0.153728 -0.0560008 0)
(-0.0899044 -0.057216 0)
(-0.0314024 -0.0565534 0)
(-0.0593625 0.258701 0)
(-0.102206 0.126063 0)
(-0.152275 0.106898 0)
(-0.224653 0.0832225 0)
(-0.211033 0.0497658 0)
(-0.199465 0.0608739 0)
(-0.233252 0.055418 0)
(-0.243024 0.069097 0)
(-0.246962 0.0509605 0)
(-0.25861 0.00515781 0)
(-0.31167 -0.0576294 0)
(-0.318452 -0.0146479 0)
(-0.324215 -0.10125 0)
(-0.318929 -0.0743769 0)
(-0.267105 -0.0706582 0)
(-0.209419 -0.0711535 0)
(-0.153442 -0.0686051 0)
(-0.0900502 -0.0697941 0)
(-0.0313158 -0.0691782 0)
(-0.0984105 0.343504 0)
(-0.135128 0.143921 0)
(-0.172484 0.151077 0)
(-0.240446 0.084971 0)
(-0.222012 0.0399485 0)
(-0.198219 0.0874319 0)
(-0.242721 0.0644295 0)
(-0.247195 0.0491673 0)
(-0.298188 -0.0205498 0)
(-0.291723 -0.0712648 0)
(-0.316061 0.0128231 0)
(-0.316644 -0.0413933 0)
(-0.329643 -0.0834841 0)
(-0.320779 -0.0815955 0)
(-0.265602 -0.0808097 0)
(-0.210264 -0.0827511 0)
(-0.153205 -0.0811635 0)
(-0.0903079 -0.082448 0)
(-0.0312777 -0.0819085 0)
(-0.18101 0.484245 0)
(-0.218025 0.188408 0)
(-0.186017 0.14593 0)
(-0.274894 0.131568 0)
(-0.225449 0.0568682 0)
(-0.194641 0.0829263 0)
(-0.248212 0.101553 0)
(-0.300284 0.0315118 0)
(-0.305398 -0.0596247 0)
(-0.27166 0.0419274 0)
(-0.32408 -0.0533098 0)
(-0.36107 -0.0292216 0)
(-0.339889 -0.0950191 0)
(-0.315484 -0.0873011 0)
(-0.267069 -0.0922636 0)
(-0.209944 -0.0938961 0)
(-0.153393 -0.0932124 0)
(-0.0905826 -0.0946197 0)
(-0.0312566 -0.0941492 0)
(0.0507102 -0.188937 0)
(0.118513 -0.189515 0)
(0.227125 -0.202744 0)
(0.272234 -0.147158 0)
(0.420684 -0.219385 0)
(0.375161 -0.24355 0)
(0.381893 -0.295883 0)
(0.452637 -0.308467 0)
(0.477661 -0.302733 0)
(0.547914 -0.307465 0)
(0.600235 -0.313501 0)
(0.754566 -0.331156 0)
(0.763112 -0.268248 0)
(0.775535 -0.245565 0)
(0.853489 -0.209576 0)
(1.00891 -0.239826 0)
(1.11826 -0.226816 0)
(1.25914 -0.086798 0)
(1.26864 0.0492757 0)
(1.25491 0.30798 0)
(1.45453 0.583544 0)
(1.66491 1.33753 0)
(1.20586 2.07596 0)
(0.0562116 -0.218871 0)
(0.101983 -0.236612 0)
(0.252486 -0.228882 0)
(0.238115 -0.280947 0)
(0.261164 -0.269852 0)
(0.324633 -0.348797 0)
(0.384823 -0.316021 0)
(0.413414 -0.356565 0)
(0.477662 -0.361654 0)
(0.541306 -0.387624 0)
(0.613376 -0.391231 0)
(0.699962 -0.410631 0)
(0.749096 -0.373279 0)
(0.813311 -0.328182 0)
(0.94983 -0.361213 0)
(1.15299 -0.365716 0)
(1.2093 -0.275927 0)
(1.32731 -0.0681019 0)
(1.17055 0.115727 0)
(1.22621 0.464659 0)
(1.88311 0.89206 0)
(1.95062 1.16209 0)
(1.47834 1.81371 0)
(0.0375731 -0.269337 0)
(0.0748965 -0.291039 0)
(0.149383 -0.27845 0)
(0.201547 -0.35641 0)
(0.250242 -0.329213 0)
(0.302773 -0.361064 0)
(0.349622 -0.380705 0)
(0.40806 -0.409276 0)
(0.470754 -0.437013 0)
(0.536314 -0.453379 0)
(0.614217 -0.456189 0)
(0.695704 -0.489886 0)
(0.788676 -0.416481 0)
(0.847916 -0.468346 0)
(1.06561 -0.528799 0)
(1.14657 -0.488306 0)
(1.23748 -0.347658 0)
(1.19027 -0.109261 0)
(1.24131 0.14565 0)
(1.17363 0.703557 0)
(1.7302 1.00523 0)
(1.58129 0.870991 0)
(1.54047 1.67837 0)
(0.0373434 -0.333712 0)
(0.0735083 -0.346677 0)
(0.147323 -0.35172 0)
(0.176262 -0.374737 0)
(0.236889 -0.369494 0)
(0.275298 -0.4288 0)
(0.344318 -0.427406 0)
(0.372661 -0.463508 0)
(0.454859 -0.493798 0)
(0.498796 -0.53029 0)
(0.591912 -0.541128 0)
(0.660843 -0.574784 0)
(0.771879 -0.534677 0)
(0.867766 -0.668862 0)
(1.09073 -0.679114 0)
(1.1358 -0.571 0)
(1.14745 -0.349361 0)
(1.13476 -0.08782 0)
(1.27179 0.194839 0)
(1.14752 0.78116 0)
(1.78028 1.09831 0)
(1.42004 0.736538 0)
(1.41276 1.36052 0)
(0.0245096 -0.380816 0)
(0.0707378 -0.396872 0)
(0.116084 -0.386182 0)
(0.164864 -0.430222 0)
(0.208263 -0.436829 0)
(0.259583 -0.461922 0)
(0.299022 -0.481881 0)
(0.346632 -0.518244 0)
(0.4247 -0.566104 0)
(0.464253 -0.596662 0)
(0.556362 -0.616675 0)
(0.621836 -0.669389 0)
(0.770723 -0.748478 0)
(0.899543 -0.828391 0)
(0.997879 -0.751272 0)
(0.972834 -0.562111 0)
(1.00647 -0.34725 0)
(0.954299 -0.112839 0)
(1.1209 0.246574 0)
(0.893104 0.889813 0)
(1.59212 1.33695 0)
(1.18483 0.790485 0)
(1.11914 1.10868 0)
(0.025611 -0.430845 0)
(0.0605099 -0.436896 0)
(0.110111 -0.449571 0)
(0.148291 -0.462954 0)
(0.189962 -0.468624 0)
(0.228843 -0.510459 0)
(0.272934 -0.525202 0)
(0.315023 -0.57891 0)
(0.378777 -0.618349 0)
(0.400142 -0.662055 0)
(0.49947 -0.702335 0)
(0.555016 -0.821206 0)
(0.792535 -0.963233 0)
(0.817337 -0.931925 0)
(0.84182 -0.769064 0)
(0.839301 -0.580732 0)
(0.791657 -0.351523 0)
(0.796551 -0.0879969 0)
(1.2182 0.404036 0)
(0.916663 0.940936 0)
(1.66009 1.96757 0)
(1.08071 1.14348 0)
(0.955458 1.03135 0)
(0.0170879 -0.467301 0)
(0.0570404 -0.478521 0)
(0.0917114 -0.476881 0)
(0.127716 -0.503889 0)
(0.16571 -0.525291 0)
(0.202907 -0.53765 0)
(0.238071 -0.574135 0)
(0.273523 -0.615305 0)
(0.310602 -0.653335 0)
(0.318037 -0.700719 0)
(0.433758 -0.779552 0)
(0.494928 -0.965514 0)
(0.748753 -1.12007 0)
(0.661492 -0.965222 0)
(0.642745 -0.71454 0)
(0.636569 -0.516726 0)
(0.647032 -0.282202 0)
(0.79424 0.284559 0)
(1.60572 0.70521 0)
(0.98765 0.410614 0)
(1.68495 1.74131 0)
(1.12131 1.46009 0)
(0.77476 0.492746 0)
(0.0170696 -0.50678 0)
(0.0484166 -0.510519 0)
(0.0809159 -0.522879 0)
(0.115088 -0.532842 0)
(0.143448 -0.54948 0)
(0.171951 -0.575294 0)
(0.214621 -0.606566 0)
(0.229091 -0.641708 0)
(0.248318 -0.692034 0)
(0.244121 -0.79496 0)
(0.372304 -0.952642 0)
(0.406812 -1.13182 0)
(0.568816 -1.1653 0)
(0.442355 -0.88679 0)
(0.470958 -0.701287 0)
(0.546676 -0.552867 0)
(0.792176 -0.411364 0)
(1.27576 0.173565 0)
(2.52466 0.467625 0)
(0.869732 -0.458051 0)
(1.99306 1.32126 0)
(1.42185 1.26505 0)
(0.801143 0.216419 0)
(0.0125267 -0.538258 0)
(0.0430862 -0.541815 0)
(0.067804 -0.551883 0)
(0.0941158 -0.562157 0)
(0.120548 -0.589442 0)
(0.146988 -0.608305 0)
(0.175632 -0.641966 0)
(0.177643 -0.656703 0)
(0.176732 -0.72997 0)
(0.205859 -0.852981 0)
(0.324529 -1.03171 0)
(0.27526 -1.16577 0)
(0.406125 -1.13596 0)
(0.304784 -0.872025 0)
(0.397161 -0.822171 0)
(0.587685 -0.836843 0)
(0.853845 -0.731424 0)
(1.50927 -0.455878 0)
(1.97361 0.339808 0)
(0.801915 0.160611 0)
(1.96402 1.28325 0)
(1.58663 1.23887 0)
(1.26876 0.383822 0)
(0.0140748 -0.569455 0)
(0.037063 -0.570649 0)
(0.0620571 -0.58184 0)
(0.084638 -0.584377 0)
(0.104437 -0.605225 0)
(0.124361 -0.620344 0)
(0.157224 -0.657917 0)
(0.14372 -0.627665 0)
(0.126694 -0.673434 0)
(0.170891 -0.793404 0)
(0.200677 -0.978413 0)
(0.0973668 -1.24389 0)
(0.265305 -1.16559 0)
(0.22576 -0.9091 0)
(0.32073 -1.02035 0)
(0.26302 -1.06047 0)
(0.109907 -1.05062 0)
(-0.0433098 -0.415641 0)
(0.532538 0.61994 0)
(0.0494235 0.0125637 0)
(1.61005 1.21108 0)
(1.40627 1.28428 0)
(1.94772 0.606566 0)
(0.0146188 -0.582401 0)
(0.0365818 -0.588703 0)
(0.068276 -0.598182 0)
(0.0850697 -0.619711 0)
(0.123704 -0.644056 0)
(0.144395 -0.671839 0)
(0.202546 -0.727267 0)
(0.275987 -0.668471 0)
(0.345051 -1.09462 0)
(0.206139 -1.18917 0)
(-0.0242021 -1.39169 0)
(-0.136956 -1.33751 0)
(0.124014 -1.34997 0)
(0.185334 -0.97401 0)
(-0.116132 -0.955538 0)
(-0.56979 -0.522954 0)
(-0.739853 -0.390225 0)
(-0.591359 -0.136998 0)
(-0.262296 -0.0996075 0)
(-0.505093 -0.548291 0)
(0.776368 0.873714 0)
(0.728839 1.09151 0)
(1.28719 0.711169 0)
(0.0161205 -0.63431 0)
(0.0389227 -0.642028 0)
(0.0701853 -0.647039 0)
(0.0836323 -0.667258 0)
(0.114322 -0.686779 0)
(0.0874873 -0.706002 0)
(0.111083 -0.743235 0)
(0.0698564 -0.739801 0)
(0.101956 -1.45634 0)
(0.046078 -1.38237 0)
(0.0882455 -1.61793 0)
(-0.0382602 -1.48771 0)
(0.118018 -1.48606 0)
(-0.186991 -0.827507 0)
(-0.482213 -0.41527 0)
(-0.719913 -1.05858 0)
(-0.649244 -0.764489 0)
(-0.529806 -0.582475 0)
(-0.500497 -0.492231 0)
(-0.641326 -0.470597 0)
(-0.244304 0.325625 0)
(0.0548979 0.484107 0)
(0.829851 0.555404 0)
(0.0109087 -0.634181 0)
(0.0256084 -0.638159 0)
(0.0332234 -0.638189 0)
(0.0320933 -0.647752 0)
(0.0358665 -0.651026 0)
(0.0311601 -0.691417 0)
(0.0891142 -0.72606 0)
(0.139539 -0.680538 0)
(0.112274 -1.26038 0)
(-0.0165059 -1.31743 0)
(0.0317485 -1.43824 0)
(-0.163807 -1.3395 0)
(-0.317826 -1.08783 0)
(-0.276943 -0.382482 0)
(-0.631 -0.505421 0)
(-0.739156 -1.02991 0)
(-0.362658 -0.687457 0)
(-0.546429 -0.609463 0)
(-0.421469 -0.604394 0)
(-0.381907 -0.434299 0)
(-0.171882 -0.0166094 0)
(0.20511 -0.0934931 0)
(0.632555 0.217513 0)
(-0.00347559 -0.65032 0)
(-0.00695771 -0.652991 0)
(-0.0108509 -0.654395 0)
(-0.0136977 -0.662441 0)
(-0.00483954 -0.672588 0)
(0.0062411 -0.746804 0)
(0.0752476 -0.818211 0)
(0.218095 -0.746462 0)
(0.234395 -1.14448 0)
(0.0182884 -1.21595 0)
(0.0581959 -1.3292 0)
(-0.304734 -1.47323 0)
(-0.716221 -0.897667 0)
(-0.473635 -0.494677 0)
(-0.419493 -0.818955 0)
(-0.514929 -0.743629 0)
(-0.396242 -0.867861 0)
(-0.447192 -0.653907 0)
(-0.24406 -0.528807 0)
(-0.155622 -0.471723 0)
(0.0523314 -0.227777 0)
(0.542517 -0.299855 0)
(0.769313 -0.0626437 0)
(-0.00132422 -0.691741 0)
(-0.00551535 -0.695562 0)
(-0.00695982 -0.696874 0)
(-0.0134035 -0.698007 0)
(-0.0172643 -0.679198 0)
(-0.00110923 -0.731806 0)
(0.0319364 -0.823757 0)
(0.026242 -0.903789 0)
(0.108616 -0.762104 0)
(0.145158 -0.915018 0)
(-0.101756 -1.00958 0)
(-0.175826 -1.65794 0)
(-0.481421 -1.22785 0)
(-0.165668 -0.559992 0)
(-0.286396 -1.21035 0)
(-0.288075 -0.919233 0)
(-0.357253 -0.728955 0)
(-0.162117 -0.701157 0)
(-0.14019 -0.731549 0)
(-0.0255179 -0.636199 0)
(0.140922 -0.401202 0)
(0.579633 -0.414416 0)
(0.771629 -0.595873 0)
(0.00561113 -0.689682 0)
(0.0175332 -0.688538 0)
(0.0437758 -0.706856 0)
(0.063501 -0.750891 0)
(0.0779713 -0.815164 0)
(0.104196 -0.958488 0)
(0.125742 -1.25212 0)
(0.0672572 -1.07693 0)
(0.0775024 -0.574654 0)
(-0.0197713 -0.691102 0)
(0.0939139 -0.790535 0)
(-0.11637 -0.936656 0)
(-0.19772 -0.969611 0)
(-0.127417 -1.08899 0)
(-0.289746 -1.28147 0)
(-0.134633 -0.965212 0)
(-0.19725 -0.614681 0)
(-0.234788 -0.695671 0)
(-0.0510443 -0.663218 0)
(0.144625 -0.681694 0)
(0.316284 -0.520315 0)
(0.580499 -0.646943 0)
(0.884426 -0.986792 0)
(0.00718435 -1.28337 0)
(0.000382867 -1.32793 0)
(0.0510214 -1.41836 0)
(0.0776983 -1.46978 0)
(0.114155 -1.64086 0)
(0.187498 -1.77606 0)
(0.203711 -1.83829 0)
(0.221842 -1.79619 0)
(0.243564 -0.814613 0)
(0.163839 -0.374507 0)
(0.0849744 -0.73043 0)
(0.0387485 -1.05162 0)
(0.0735329 -0.997443 0)
(-0.118385 -1.18746 0)
(-0.0347577 -0.897753 0)
(0.111731 -0.864888 0)
(-0.115005 -0.831854 0)
(-0.145892 -0.844379 0)
(0.00404487 -0.679992 0)
(0.14411 -0.804194 0)
(0.441954 -0.753469 0)
(0.478306 -1.0582 0)
(0.916669 -1.10409 0)
(0.0277208 -1.51383 0)
(0.0431149 -1.51467 0)
(0.112097 -1.49509 0)
(0.120248 -1.42682 0)
(0.0695677 -1.48042 0)
(0.114507 -1.44373 0)
(-0.0849021 -1.37315 0)
(-0.24472 -1.50101 0)
(-0.116429 -1.35412 0)
(0.0618899 -0.995205 0)
(0.167327 -0.648551 0)
(0.105572 -0.774268 0)
(0.135174 -0.950699 0)
(-0.122081 -0.786714 0)
(-0.206804 -0.657484 0)
(-0.138212 -0.883233 0)
(-0.256274 -1.00162 0)
(-0.0492756 -0.791422 0)
(0.0994957 -0.818562 0)
(0.205341 -0.856258 0)
(0.34201 -1.03641 0)
(0.559794 -1.17904 0)
(0.761895 -1.36335 0)
(-0.00826515 -0.867868 0)
(-0.0555208 -0.904812 0)
(0.0670867 -0.912827 0)
(-0.0660382 -1.21079 0)
(-0.178477 -1.01363 0)
(-0.0683337 -1.32252 0)
(-0.3169 -1.34963 0)
(-0.306487 -1.13778 0)
(-0.251906 -1.37583 0)
(-0.276442 -1.07324 0)
(-0.294478 -0.972272 0)
(-0.341744 -0.837525 0)
(-0.387139 -0.807063 0)
(-0.281706 -0.840818 0)
(-0.302408 -0.653714 0)
(-0.307653 -0.654781 0)
(-0.180786 -0.709526 0)
(0.0335913 -0.652512 0)
(-0.0266564 -0.811358 0)
(0.0507813 -0.934915 0)
(0.0987137 -1.0622 0)
(0.262703 -1.20519 0)
(0.72075 -1.60179 0)
(-0.0227779 -0.649126 0)
(-0.074236 -0.677798 0)
(-0.180778 -0.712641 0)
(-0.167683 -0.812103 0)
(-0.164745 -0.739888 0)
(-0.208723 -0.877187 0)
(-0.0801924 -1.01949 0)
(-0.322157 -0.773159 0)
(-0.402929 -0.855437 0)
(-0.33469 -1.0315 0)
(-0.44928 -0.923745 0)
(-0.409244 -0.758121 0)
(-0.540871 -0.960795 0)
(-0.241389 -0.735254 0)
(-0.109139 -0.62302 0)
(-0.276827 -0.589761 0)
(-0.30288 -0.593975 0)
(-0.16269 -0.701772 0)
(-0.143911 -0.82934 0)
(-0.0772658 -0.912009 0)
(-0.0914237 -1.11258 0)
(0.0797864 -1.43275 0)
(0.405789 -1.83703 0)
(-0.012582 -0.654563 0)
(-0.0534194 -0.674022 0)
(-0.0882702 -0.673369 0)
(-0.124083 -0.620159 0)
(-0.199286 -0.685224 0)
(-0.265562 -0.633161 0)
(-0.176472 -0.691334 0)
(-0.200946 -0.707883 0)
(-0.468137 -0.579707 0)
(-0.513246 -0.653523 0)
(-0.187591 -0.694666 0)
(-0.262423 -0.616611 0)
(-0.36632 -0.654378 0)
(-0.117631 -0.555952 0)
(-0.220113 -0.687567 0)
(-0.378849 -0.638577 0)
(-0.339754 -0.685509 0)
(-0.239389 -0.73976 0)
(-0.238435 -0.865302 0)
(-0.243013 -0.940997 0)
(-0.35073 -1.20134 0)
(-0.0823831 -1.4277 0)
(-0.4002 -1.91376 0)
(-0.0171821 -0.561824 0)
(-0.0625651 -0.581777 0)
(-0.106722 -0.58654 0)
(-0.141359 -0.581349 0)
(-0.199585 -0.61106 0)
(-0.263674 -0.547018 0)
(-0.246435 -0.502888 0)
(-0.296691 -0.536984 0)
(-0.406713 -0.504893 0)
(-0.455828 -0.491667 0)
(-0.308919 -0.437723 0)
(-0.288684 -0.509089 0)
(-0.375368 -0.488424 0)
(-0.309076 -0.590395 0)
(-0.211217 -0.67288 0)
(-0.342334 -0.695649 0)
(-0.426027 -0.680068 0)
(-0.366707 -0.753597 0)
(-0.341627 -0.846977 0)
(-0.422701 -0.910894 0)
(-0.517017 -1.18544 0)
(-0.392369 -1.49291 0)
(-0.987832 -2.39917 0)
(0.000756425 -0.986181 0)
(-0.0497492 -1.0064 0)
(-0.107888 -1.00061 0)
(-0.152048 -0.982416 0)
(-0.210395 -1.00044 0)
(-0.288885 -0.947032 0)
(-0.334629 -0.915481 0)
(-0.449811 -0.830239 0)
(-0.584468 -0.757306 0)
(-0.504755 -0.567217 0)
(-0.290969 -0.576235 0)
(-0.369957 -0.64425 0)
(-0.435579 -0.55146 0)
(-0.318903 -0.685697 0)
(-0.350647 -0.745727 0)
(-0.405255 -0.733068 0)
(-0.396016 -0.71661 0)
(-0.422544 -0.773454 0)
(-0.369475 -0.836975 0)
(-0.547714 -0.961561 0)
(-0.747791 -1.07914 0)
(-1.11121 -1.42702 0)
(-1.46586 -2.33809 0)
(-0.0130083 -1.13232 0)
(-0.0609841 -1.15767 0)
(-0.107785 -1.14776 0)
(-0.157251 -1.13349 0)
(-0.204341 -1.1418 0)
(-0.264311 -1.09691 0)
(-0.290351 -1.07941 0)
(-0.330031 -1.04134 0)
(-0.310164 -1.04972 0)
(-0.308063 -0.774603 0)
(-0.345686 -0.749433 0)
(-0.221427 -0.800869 0)
(-0.357204 -0.724526 0)
(-0.440828 -0.74736 0)
(-0.245702 -0.812347 0)
(-0.206379 -0.821987 0)
(-0.454826 -0.780763 0)
(-0.508895 -0.762865 0)
(-0.543219 -0.878108 0)
(-0.53285 -1.17527 0)
(-0.881962 -1.26121 0)
(-1.47625 -1.54909 0)
(-1.99609 -1.90555 0)
(-0.0183712 -1.0367 0)
(-0.0643467 -1.05213 0)
(-0.114883 -1.04004 0)
(-0.165778 -1.02357 0)
(-0.21379 -1.03139 0)
(-0.26188 -0.971039 0)
(-0.296001 -0.965857 0)
(-0.392071 -0.974215 0)
(-0.311958 -0.844844 0)
(-0.261844 -0.865575 0)
(-0.28575 -0.780516 0)
(-0.272221 -0.793373 0)
(-0.303434 -0.84819 0)
(-0.311324 -0.771112 0)
(-0.289086 -0.751363 0)
(-0.209681 -0.914259 0)
(-0.3323 -0.874446 0)
(-0.586861 -0.868253 0)
(-0.767112 -0.848914 0)
(-0.88648 -1.23361 0)
(-1.03317 -1.3748 0)
(-1.52238 -1.56119 0)
(-1.93319 -1.49095 0)
(-0.0266873 -1.03909 0)
(-0.0716364 -1.04971 0)
(-0.125333 -1.0399 0)
(-0.178244 -1.01867 0)
(-0.197441 -1.02912 0)
(-0.240919 -0.962554 0)
(-0.324201 -1.00699 0)
(-0.249761 -0.853915 0)
(-0.223585 -0.797461 0)
(-0.264083 -0.798522 0)
(-0.268347 -0.770955 0)
(-0.267463 -0.772031 0)
(-0.302851 -0.767544 0)
(-0.316177 -0.772339 0)
(-0.307392 -0.786174 0)
(-0.260523 -0.850311 0)
(-0.446355 -1.00953 0)
(-0.509981 -0.935679 0)
(-0.779609 -0.887366 0)
(-1.08141 -1.02983 0)
(-1.20985 -1.01074 0)
(-1.61316 -1.08751 0)
(-1.96438 -1.01705 0)
(-0.0208402 -0.970809 0)
(-0.0776219 -0.979278 0)
(-0.111192 -0.957476 0)
(-0.174748 -0.960958 0)
(-0.185068 -0.982741 0)
(-0.289596 -0.912796 0)
(-0.238658 -0.835104 0)
(-0.212132 -0.779324 0)
(-0.245251 -0.781509 0)
(-0.241057 -0.77316 0)
(-0.269537 -0.766832 0)
(-0.265352 -0.754062 0)
(-0.296515 -0.747544 0)
(-0.291146 -0.72168 0)
(-0.375969 -0.759354 0)
(-0.403952 -0.859086 0)
(-0.344983 -0.851423 0)
(-0.447985 -0.943092 0)
(-0.861254 -0.831008 0)
(-1.02394 -0.739235 0)
(-1.11167 -0.825308 0)
(-1.48582 -0.788816 0)
(-1.68684 -0.663984 0)
(-0.0251725 -0.941957 0)
(-0.0822429 -0.955489 0)
(-0.117834 -0.919183 0)
(-0.196058 -0.95656 0)
(-0.176783 -0.860343 0)
(-0.161847 -0.873635 0)
(-0.21845 -0.766005 0)
(-0.211849 -0.79046 0)
(-0.227777 -0.751038 0)
(-0.236385 -0.749792 0)
(-0.255357 -0.727417 0)
(-0.269598 -0.722481 0)
(-0.2873 -0.703901 0)
(-0.303128 -0.68788 0)
(-0.384703 -0.698579 0)
(-0.336303 -0.700627 0)
(-0.426685 -0.714036 0)
(-0.40628 -0.758678 0)
(-0.547689 -0.761515 0)
(-1.02693 -0.519385 0)
(-1.22751 -0.581433 0)
(-1.43011 -0.511095 0)
(-1.61268 -0.421541 0)
(-0.0344392 -0.879026 0)
(-0.0468642 -0.880082 0)
(-0.143783 -0.877037 0)
(-0.12327 -0.835011 0)
(-0.122151 -0.792888 0)
(-0.166418 -0.80441 0)
(-0.175546 -0.764 0)
(-0.19184 -0.756823 0)
(-0.212074 -0.739861 0)
(-0.220612 -0.725371 0)
(-0.240285 -0.717495 0)
(-0.252078 -0.695059 0)
(-0.273291 -0.689309 0)
(-0.283997 -0.650622 0)
(-0.341328 -0.660805 0)
(-0.398513 -0.626632 0)
(-0.412766 -0.77756 0)
(-0.423835 -0.583916 0)
(-0.588096 -0.777195 0)
(-0.947225 -0.533162 0)
(-1.16143 -0.371647 0)
(-1.2867 -0.366798 0)
(-1.4352 -0.179779 0)
(-0.00930949 -0.849374 0)
(-0.0477871 -0.841594 0)
(-0.0704225 -0.826612 0)
(-0.110561 -0.773679 0)
(-0.116677 -0.784048 0)
(-0.143947 -0.752362 0)
(-0.160107 -0.733858 0)
(-0.176188 -0.724464 0)
(-0.194475 -0.696374 0)
(-0.20928 -0.691089 0)
(-0.229258 -0.666439 0)
(-0.247678 -0.661032 0)
(-0.265538 -0.639659 0)
(-0.294083 -0.616402 0)
(-0.347832 -0.60804 0)
(-0.426273 -0.598339 0)
(-0.349628 -0.583197 0)
(-0.448093 -0.606358 0)
(-0.565149 -0.602045 0)
(-0.597064 -0.598198 0)
(-1.03278 -0.277455 0)
(-1.23355 -0.251762 0)
(-1.25773 -0.0589949 0)
(-0.020311 -0.764079 0)
(-0.0388891 -0.76368 0)
(-0.0750664 -0.760886 0)
(-0.0878861 -0.752957 0)
(-0.110749 -0.726683 0)
(-0.130562 -0.724355 0)
(-0.1422 -0.704016 0)
(-0.163883 -0.687625 0)
(-0.175963 -0.675153 0)
(-0.194455 -0.654727 0)
(-0.208921 -0.64362 0)
(-0.226793 -0.620718 0)
(-0.242639 -0.606233 0)
(-0.267302 -0.567883 0)
(-0.310895 -0.557833 0)
(-0.365057 -0.530643 0)
(-0.395863 -0.484256 0)
(-0.40025 -0.569675 0)
(-0.540701 -0.456989 0)
(-0.511979 -0.461528 0)
(-0.678973 -0.422677 0)
(-1.05618 -0.0496956 0)
(-1.10716 0.0221591 0)
(-0.00842868 -0.731975 0)
(-0.0336989 -0.73403 0)
(-0.0490872 -0.726567 0)
(-0.0750972 -0.704785 0)
(-0.0902672 -0.703983 0)
(-0.108635 -0.681518 0)
(-0.128438 -0.668885 0)
(-0.142524 -0.654994 0)
(-0.161779 -0.636595 0)
(-0.17735 -0.623361 0)
(-0.195195 -0.604389 0)
(-0.214456 -0.589651 0)
(-0.229716 -0.568911 0)
(-0.257502 -0.540601 0)
(-0.301032 -0.522654 0)
(-0.348563 -0.50634 0)
(-0.385779 -0.488217 0)
(-0.401039 -0.524132 0)
(-0.434697 -0.451148 0)
(-0.452889 -0.309993 0)
(-0.523866 -0.378234 0)
(-0.902853 -0.0738319 0)
(-1.05682 0.124468 0)
(-0.0117198 -0.679335 0)
(-0.0283841 -0.683221 0)
(-0.0513176 -0.67723 0)
(-0.0659316 -0.672919 0)
(-0.0834337 -0.658681 0)
(-0.101283 -0.650432 0)
(-0.113838 -0.636083 0)
(-0.131976 -0.621387 0)
(-0.14468 -0.606825 0)
(-0.161983 -0.587818 0)
(-0.176155 -0.572166 0)
(-0.194502 -0.548804 0)
(-0.2096 -0.529113 0)
(-0.234407 -0.490946 0)
(-0.284353 -0.473178 0)
(-0.319037 -0.444551 0)
(-0.401085 -0.425275 0)
(-0.368642 -0.387707 0)
(-0.315082 -0.381925 0)
(-0.451313 -0.317824 0)
(-0.539587 -0.329108 0)
(-0.507633 -0.274159 0)
(-0.839679 0.094458 0)
(-0.00706504 -0.650811 0)
(-0.0241806 -0.653808 0)
(-0.0381885 -0.649697 0)
(-0.0551137 -0.638811 0)
(-0.069577 -0.632415 0)
(-0.084216 -0.618435 0)
(-0.099106 -0.607255 0)
(-0.113258 -0.592173 0)
(-0.127298 -0.577403 0)
(-0.142721 -0.559969 0)
(-0.155969 -0.542824 0)
(-0.174375 -0.521106 0)
(-0.186343 -0.500008 0)
(-0.210775 -0.462559 0)
(-0.25078 -0.445875 0)
(-0.272159 -0.410238 0)
(-0.318652 -0.376762 0)
(-0.354458 -0.310008 0)
(-0.366096 -0.348989 0)
(-0.394928 -0.29467 0)
(-0.434752 -0.201629 0)
(-0.373483 -0.145658 0)
(-0.639484 -0.131331 0)
(-0.00746121 -0.616778 0)
(-0.0209184 -0.621007 0)
(-0.0356483 -0.615944 0)
(-0.0489059 -0.610718 0)
(-0.0618682 -0.601265 0)
(-0.0757435 -0.591819 0)
(-0.0871307 -0.579232 0)
(-0.101398 -0.564795 0)
(-0.112062 -0.549469 0)
(-0.126994 -0.529331 0)
(-0.137164 -0.511339 0)
(-0.153903 -0.484226 0)
(-0.161727 -0.463048 0)
(-0.18479 -0.421081 0)
(-0.228203 -0.409401 0)
(-0.256194 -0.374478 0)
(-0.286384 -0.345339 0)
(-0.332434 -0.297088 0)
(-0.301384 -0.253009 0)
(-0.285089 -0.201233 0)
(-0.353235 -0.12342 0)
(-0.327741 -0.0846866 0)
(-0.450098 -0.139016 0)
(-0.00522925 -0.592348 0)
(-0.0167896 -0.595788 0)
(-0.0273805 -0.591949 0)
(-0.0387795 -0.584833 0)
(-0.0491469 -0.577559 0)
(-0.0603347 -0.566734 0)
(-0.0699511 -0.555858 0)
(-0.0816611 -0.54176 0)
(-0.0896119 -0.527909 0)
(-0.103185 -0.509825 0)
(-0.109013 -0.4944 0)
(-0.127361 -0.469836 0)
(-0.130575 -0.451722 0)
(-0.158498 -0.403392 0)
(-0.193461 -0.387252 0)
(-0.210005 -0.354333 0)
(-0.235913 -0.313828 0)
(-0.253992 -0.268671 0)
(-0.267291 -0.19799 0)
(-0.259937 -0.185294 0)
(-0.295461 -0.136135 0)
(-0.329098 -0.074091 0)
(-0.240402 -0.103659 0)
(-0.00447476 -0.572562 0)
(-0.0134343 -0.576361 0)
(-0.0224345 -0.572232 0)
(-0.0314942 -0.566641 0)
(-0.0398382 -0.558637 0)
(-0.0494207 -0.549276 0)
(-0.0568548 -0.537205 0)
(-0.0678149 -0.523701 0)
(-0.073772 -0.506766 0)
(-0.0883145 -0.486872 0)
(-0.0913716 -0.46194 0)
(-0.112867 -0.429026 0)
(-0.112801 -0.39834 0)
(-0.144514 -0.34844 0)
(-0.172527 -0.366678 0)
(-0.180505 -0.32278 0)
(-0.198549 -0.296239 0)
(-0.215968 -0.256386 0)
(-0.22034 -0.21295 0)
(-0.228008 -0.174124 0)
(-0.231304 -0.141098 0)
(-0.270492 -0.0723561 0)
(-0.195346 -0.00349386 0)
(-0.00375786 -0.551888 0)
(-0.0117283 -0.555346 0)
(-0.0192687 -0.551525 0)
(-0.027047 -0.545819 0)
(-0.0338749 -0.538222 0)
(-0.0413796 -0.528956 0)
(-0.0467303 -0.517398 0)
(-0.0540674 -0.504885 0)
(-0.0562085 -0.489115 0)
(-0.0640813 -0.473966 0)
(-0.0583888 -0.451903 0)
(-0.0665667 -0.436302 0)
(-0.0379864 -0.410899 0)
(-0.128711 -0.396351 0)
(-0.183062 -0.356657 0)
(-0.14569 -0.331382 0)
(-0.170278 -0.283796 0)
(-0.170423 -0.248836 0)
(-0.186326 -0.198353 0)
(-0.188121 -0.165027 0)
(-0.196323 -0.11106 0)
(-0.198949 -0.0647999 0)
(-0.211562 0.0194024 0)
(-0.00263976 -0.545029 0)
(-0.00825684 -0.548322 0)
(-0.0137696 -0.544863 0)
(-0.019456 -0.539947 0)
(-0.0247162 -0.533051 0)
(-0.0305355 -0.525009 0)
(-0.0352343 -0.514533 0)
(-0.0413348 -0.503723 0)
(-0.045084 -0.489272 0)
(-0.0519282 -0.477087 0)
(-0.055019 -0.456484 0)
(-0.064985 -0.447335 0)
(-0.0675715 -0.424485 0)
(-0.0866216 -0.442715 0)
(-0.0898934 -0.344335 0)
(-0.104614 -0.313787 0)
(-0.117651 -0.266771 0)
(-0.127383 -0.231419 0)
(-0.137863 -0.189325 0)
(-0.138586 -0.155329 0)
(-0.143667 -0.110275 0)
(-0.142741 -0.074839 0)
(-0.18007 -0.0126611 0)
(-0.0017498 -0.512906 0)
(-0.00581106 -0.515809 0)
(-0.00982912 -0.512277 0)
(-0.0138174 -0.507243 0)
(-0.0173477 -0.500344 0)
(-0.0212049 -0.492305 0)
(-0.023825 -0.481998 0)
(-0.0276044 -0.471366 0)