/*--------------------------------*- C++ -*----------------------------------*\
| =========                 |                                                 |
| \\      /  F ield         | foam-extend: Open Source CFD                    |
|  \\    /   O peration     | Version:     4.1                                |
|   \\  /    A nd           | Web:         http://www.foam-extend.org         |
|    \\/     M anipulation  |                                                 |
\*---------------------------------------------------------------------------*/
FoamFile
{
    version     2.0;
    format      ascii;
    class       volScalarField;
    location    "0.85";
    object      alpha1;
}
// * * * * * * * * * * * * * * * * * * * * * * * * * * * * * * * * * * * * * //

dimensions      [0 0 0 0 0 0 0];

internalField   nonuniform List<scalar> 
2268
(
0.639125
0.592605
0.75071
0.658712
0.715238
0.63444
0.665381
0.648627
0.673359
0.954755
0.998911
0.998441
0.999536
0.999797
0.999862
0.999915
0.999968
0.999967
0.999611
0.998129
0.996697
0.969612
0.614388
0.596529
0.555762
0.692588
0.441693
0.599226
0.689091
0.703675
0.809729
0.916991
0.914669
0.994848
0.991314
0.998498
0.999488
0.999736
0.999791
0.999908
0.999962
0.999894
0.999722
0.999719
0.994994
0.971493
0.542898
0.456957
0.597256
0.378449
0.391874
0.658071
0.71804
0.803482
0.868544
0.583792
0.957556
0.984197
0.997132
0.999063
0.999255
0.99914
0.999762
0.999932
0.999959
0.999949
0.999649
0.997471
0.990539
0.522635
0.428719
0.616198
0.361
0.38349
0.626211
0.72972
0.763078
0.740799
0.543294
0.865683
0.982278
0.993694
0.996512
0.996518
0.994814
0.998966
0.999624
0.999894
0.999857
0.999651
0.997147
0.992346
0.489723
0.417534
0.688174
0.319054
0.434277
0.662766
0.722253
0.7388
0.724865
0.823407
0.873272
0.970638
0.977862
0.989704
0.985777
0.977488
0.99657
0.998818
0.99961
0.999125
0.998698
0.993958
0.991249
0.51291
0.229085
0.576208
0.239524
0.263032
0.505345
0.6165
0.732014
0.75465
0.842787
0.90181
0.952755
0.951455
0.970958
0.966712
0.931365
0.984649
0.993563
0.997272
0.994222
0.991939
0.981344
0.983942
0.525859
0.265587
0.335852
0.1846
0.292614
0.436214
0.487175
0.693801
0.790647
0.817671
0.907415
0.906343
0.891784
0.917849
0.937996
0.855442
0.955181
0.968674
0.97632
0.95278
0.962869
0.963637
0.95595
0.442651
0.14481
0.192037
0.151516
0.17716
0.25408
0.366313
0.616289
0.75487
0.624435
0.781369
0.755445
0.742736
0.799132
0.883372
0.791532
0.899003
0.896539
0.866165
0.847738
0.873823
0.910313
0.827538
0.659779
0.657697
0.649478
0.635933
0.619886
0.604113
0.581986
0.563926
0.556267
0.538343
0.559011
0.622099
0.646891
0.65513
0.659235
0.661254
0.66292
0.691898
0.690387
0.659561
0.653762
0.633946
0.596714
0.547983
0.519793
0.510153
0.526842
0.531929
0.53271
0.577147
0.615348
0.629765
0.613811
0.595143
0.64326
0.594233
0.676483
0.677544
0.659123
0.652421
0.627347
0.550402
0.482894
0.442348
0.453685
0.52309
0.545697
0.560893
0.580422
0.580242
0.536835
0.452578
0.449819
0.521897
0.530044
0.643285
0.669209
0.657816
0.639401
0.561648
0.463098
0.400927
0.305946
0.281002
0.407518
0.528166
0.555057
0.565939
0.539993
0.444419
0.328112
0.303333
0.356841
0.493635
0.614192
0.661683
0.654868
0.616589
0.508356
0.386169
0.286818
0.234809
0.212658
0.31112
0.452848
0.521535
0.544258
0.455175
0.316859
0.269346
0.269249
0.294502
0.468293
0.597418
0.654392
0.650615
0.590748
0.455134
0.328283
0.261184
0.223078
0.219807
0.226855
0.254787
0.407936
0.48504
0.351525
0.247839
0.235259
0.280366
0.286157
0.418982
0.588842
0.649404
0.642478
0.564933
0.451829
0.375008
0.323351
0.25512
0.304779
0.195511
0.189969
0.238476
0.344688
0.203257
0.188929
0.3102
0.412192
0.434834
0.501259
0.609041
0.646806
0.631101
0.511967
0.400915
0.333
0.379106
0.256023
0.40067
0.25491
0.183139
0.184787
0.197734
0.202826
0.256328
0.44942
0.544864
0.555917
0.587462
0.626753
0.645164
0.153484
0.114484
0.130595
0.167271
0.263834
0.300922
0.451752
0.607746
0.681248
0.646986
0.554311
0.554428
0.476093
0.680911
0.76951
0.702044
0.763865
0.726683
0.713649
0.744981
0.678914
0.625653
0.496532
0.0580878
0.136502
0.215979
0.258694
0.364898
0.417868
0.33087
0.573798
0.490063
0.599701
0.353835
0.438899
0.389852
0.653516
0.663841
0.630521
0.691881
0.676701
0.579301
0.498626
0.484792
0.484504
0.47295
0.0711213
0.204377
0.242827
0.24986
0.246601
0.361846
0.268563
0.314156
0.334026
0.51309
0.328399
0.39465
0.402125
0.677054
0.665103
0.625806
0.658367
0.570316
0.497284
0.485082
0.492859
0.526185
0.549542
0.12437
0.237395
0.255692
0.212978
0.135376
0.229367
0.364613
0.40088
0.336201
0.356447
0.197655
0.311502
0.344882
0.607365
0.565263
0.607583
0.635356
0.618902
0.518765
0.476485
0.481157
0.520319
0.55799
0.100835
0.160194
0.138815
0.238731
0.138089
0.0874546
0.227018
0.289065
0.167106
0.116718
0.162549
0.28665
0.299328
0.446828
0.328955
0.457449
0.554726
0.576996
0.524035
0.442975
0.427351
0.441932
0.474037
0.0609055
0.0436546
0.0361003
0.0928388
0.0315666
0.0393546
0.0869474
0.138949
0.0578741
0.149239
0.269392
0.293046
0.188835
0.23778
0.0988942
0.252954
0.420575
0.461671
0.403089
0.317725
0.263102
0.225655
0.283754
0.0309031
0.0196031
0.0168049
0.0217634
0.0165857
0.0196079
0.0291572
0.0454956
0.024141
0.0787055
0.207123
0.429865
0.160486
0.0756313
0.0536042
0.15552
0.277314
0.32521
0.263664
0.213697
0.145436
0.125961
0.14418
0.0176078
0.0145987
0.0117386
0.0121381
0.0102154
0.00906479
0.0105516
0.0121675
0.00682257
0.0121184
0.061819
0.314732
0.061848
0.0342524
0.0556694
0.113659
0.178096
0.202718
0.176198
0.123357
0.0924606
0.0908612
0.105861
0.0134323
0.0127753
0.0109772
0.0108613
0.00925213
0.00711066
0.00618799
0.00805875
0.0144522
0.0253529
0.0399158
0.0733548
0.0295457
0.0327314
0.0516345
0.0711633
0.0853858
0.089236
0.0836949
0.0571669
0.0525423
0.0731127
0.085337
0.0117342
0.0101008
0.00848768
0.00639108
0.00545957
0.00518791
0.00424591
0.00418791
0.00778937
0.0144456
0.0197317
0.0254368
0.0262956
0.0363365
0.0427082
0.04581
0.0479355
0.0491996
0.0459949
0.0421258
0.0476475
0.0535533
0.0614843
0.0102179
0.00653996
0.00403652
0.00213442
0.00283545
0.00415914
0.00435037
0.00639262
0.00996448
0.0132303
0.0173927
0.0230172
0.0276377
0.0327579
0.0361418
0.0410378
0.0427733
0.0437551
0.0444965
0.0473725
0.0551874
0.0658667
0.0800586
0.00835361
0.00392212
0.00159385
0.00254296
0.00324212
0.00370884
0.00404428
0.00530813
0.0067678
0.00808131
0.0127033
0.0175208
0.0226765
0.0296798
0.0328841
0.0340403
0.0341351
0.0327634
0.0332819
0.040658
0.0485993
0.0582423
0.0670436
0.00627616
0.00226354
0.00156436
0.00235505
0.0026259
0.00267531
0.00290511
0.00378974
0.0045676
0.00586113
0.00876656
0.0135044
0.0196578
0.0237199
0.024847
0.0249161
0.0247819
0.0301979
0.0414645
0.0506322
0.0599529
0.0697358
0.0791871
0.00397182
0.00158876
0.00156158
0.00235812
0.00280214
0.00366857
0.00459416
0.00542662
0.00629458
0.00721443
0.0101006
0.0131911
0.0157703
0.0166521
0.0159583
0.0139486
0.0128717
0.0246054
0.0338588
0.0409115
0.0464747
0.0506715
0.0532859
0.0028298
0.00115059
0.00134895
0.00286585
0.00574146
0.00761689
0.00846102
0.00882967
0.00905387
0.00897325
0.00977404
0.0109651
0.0110729
0.0105807
0.0114625
0.0168405
0.0234559
0.0287644
0.0329487
0.0356744
0.0374993
0.0388642
0.0400958
0.00178327
0.00115755
0.00243911
0.00641061
0.00891212
0.00945011
0.00943684
0.00884735
0.0082153
0.00797216
0.00802876
0.0076819
0.00835073
0.0103366
0.0125679
0.0170365
0.0197724
0.0209338
0.0157724
0.0106096
0.00830741
0.00681846
0.00602873
0.00123373
0.00121104
0.00328332
0.00737138
0.00894841
0.00924465
0.00814972
0.00599217
0.00544725
0.00528642
0.00623901
0.00770775
0.00899966
0.011166
0.0134129
0.0152626
0.0155894
0.01221
0.00636644
0.0020086
0.000974684
0.000567864
0.000463466
0.000854586
0.00125202
0.00384961
0.00736085
0.00847892
0.00821196
0.00551101
0.00341464
0.00293289
0.0033945
0.00516655
0.00712259
0.00897442
0.0107788
0.0117523
0.0116823
0.00856528
0.00402168
0.00135434
0.000407858
0.000483576
0.000529985
0.000308025
0.000682391
0.0011388
0.0035337
0.00685754
0.00755963
0.00631684
0.00285849
0.00161928
0.00160225
0.00236824
0.00386081
0.0060305
0.00791559
0.00845751
0.00835993
0.00594533
0.00379358
0.00236137
0.00137563
0.00118006
0.00141339
0.00149268
0.000661474
0.000517718
0.00104929
0.00332371
0.00612622
0.00661617
0.00572336
0.00277401
0.00143635
0.00109522
0.00117156
0.00196962
0.00353482
0.00475505
0.00426506
0.00436689
0.00302557
0.00395827
0.00407383
0.00306913
0.00280324
0.00320472
0.00250633
0.00141516
0.000386161
0.000917395
0.002755
0.00522317
0.00567882
0.00521916
0.00274609
0.00154897
0.00121351
0.000987481
0.000901461
0.00127521
0.00185851
0.00139891
0.00188541
0.000801647
0.00212261
0.00396215
0.00344821
0.00408113
0.00416907
0.00317658
0.00188506
0.000261659
0.00068678
0.00177534
0.00403823
0.00452477
0.00456242
0.00275642
0.00144546
0.00110948
0.000952736
0.000740863
0.000612716
0.000709028
0.00051268
0.000653713
0.000323073
0.000493512
0.00207371
0.00138904
0.00245345
0.00221196
0.00133628
0.000633747
0.00015831
0.000373981
0.000833289
0.00273573
0.00296237
0.00355024
0.00247104
0.00128538
0.000726254
0.000506147
0.000649901
0.000492089
0.00036742
0.000198366
0.000227505
0.000175116
0.000131334
0.000627582
0.000362328
0.000461378
0.00041862
0.000277936
9.11668e-05
7.2318e-05
0.000196847
0.000376638
0.00157152
0.00158679
0.00188718
0.00152139
0.000867031
0.000364464
0.000122101
0.000351902
0.000319593
0.000244816
0.000118866
9.37891e-05
7.78636e-05
5.23284e-05
0.000101033
9.77583e-05
6.60191e-05
4.63282e-05
3.52692e-05
1.55176e-05
2.44609e-05
9.74341e-05
0.000162899
0.000694227
0.000792404
0.000597422
0.00066814
0.000435739
0.000176025
4.18726e-05
9.23895e-05
0.000134583
0.000113675
6.46016e-05
4.63903e-05
2.83608e-05
1.56564e-05
2.1801e-05
1.98193e-05
1.59617e-05
1.04549e-05
6.83496e-06
3.33389e-06
7.94852e-06
4.70706e-05
6.89712e-05
0.000299198
0.000350413
0.000206704
0.000282555
0.000174757
6.67885e-05
1.56308e-05
2.01828e-05
3.43999e-05
3.51844e-05
2.57132e-05
1.7756e-05
1.08502e-05
7.43277e-06
3.73702e-06
2.57676e-06
1.79702e-06
1.09895e-06
7.22855e-07
3.71387e-07
2.26169e-06
1.78767e-05
2.59323e-05
0.000107043
0.000124222
7.39446e-05
8.86574e-05
5.83832e-05
1.75038e-05
3.56193e-06
4.18921e-06
8.45866e-06
9.82674e-06
8.43212e-06
6.08604e-06
3.20803e-06
2.07889e-06
1.21435e-06
5.46054e-07
1.98439e-07
9.26766e-08
5.55239e-08
2.56107e-08
5.77779e-07
5.97195e-06
8.39348e-06
3.43769e-05
3.86813e-05
2.23163e-05
2.56725e-05
1.81152e-05
4.82659e-06
6.13154e-07
8.36022e-07
1.95182e-06
2.88223e-06
2.02791e-06
1.40291e-06
8.68622e-07
4.74672e-07
2.57678e-07
1.05161e-07
3.34062e-08
8.72418e-09
3.14839e-09
1.57805e-09
1.35708e-07
1.77871e-06
2.32449e-06
9.48866e-06
1.03741e-05
6.14502e-06
6.52883e-06
4.49757e-06
1.32282e-06
2.14702e-07
1.45269e-07
3.66046e-07
7.11657e-07
6.01809e-07
3.00343e-07
1.90713e-07
9.84841e-08
5.08734e-08
1.89451e-08
6.63478e-09
2.08028e-09
5.7992e-10
1.75259e-10
2.95185e-08
4.75434e-07
5.79408e-07
2.2263e-06
2.34815e-06
1.36407e-06
1.49601e-06
9.97084e-07
2.50881e-07
3.64601e-08
2.49248e-08
6.97193e-08
1.51311e-07
1.36896e-07
7.28144e-08
3.56642e-08
1.67684e-08
8.0603e-09
2.74224e-09
7.69775e-10
2.16848e-10
5.85732e-11
1.42292e-11
6.15822e-09
1.11664e-07
1.30136e-07
4.5033e-07
4.58565e-07
2.53737e-07
2.9663e-07
1.92496e-07
4.30305e-08
6.51905e-09
2.88125e-09
1.58505e-08
3.15495e-08
2.68985e-08
1.68854e-08
5.24595e-09
2.26053e-09
9.66397e-10
3.02958e-10
6.88117e-11
1.19043e-11
2.16527e-12
5.71154e-13
1.23975e-09
2.30109e-08
2.65599e-08
7.99653e-08
7.90776e-08
4.09125e-08
4.87592e-08
3.20104e-08
5.69787e-09
7.85501e-10
4.28754e-10
3.53755e-09
5.61878e-09
4.82185e-09
2.85987e-09
8.19234e-10
3.12754e-10
1.15948e-10
3.67502e-11
1.07173e-11
2.48707e-12
4.51805e-13
8.04912e-14
2.38895e-10
4.31484e-09
5.00551e-09
1.2907e-08
1.24599e-08
6.57849e-09
4.87084e-09
4.81112e-09
1.12817e-09
1.18707e-10
7.66834e-11
5.12408e-10
8.23858e-10
6.84907e-10
4.39771e-10
1.22236e-10
3.68466e-11
1.21718e-11
3.82339e-12
1.07642e-12
2.47469e-13
5.47895e-14
1.62093e-14
4.40777e-11
7.49365e-10
8.64154e-10
1.90629e-09
1.71206e-09
9.09377e-10
3.95413e-10
6.09307e-10
1.66472e-10
1.56887e-11
1.26495e-11
7.26043e-11
1.41369e-10
9.87526e-11
4.24354e-11
1.37778e-11
3.2041e-12
1.21231e-12
2.94043e-13
9.65894e-14
3.43614e-14
1.56541e-14
1.05471e-14
7.61358e-12
1.19287e-10
1.34282e-10
2.59315e-10
2.17651e-10
1.11078e-10
2.56961e-11
6.63427e-11
2.01389e-11
2.23688e-12
1.45212e-12
1.20188e-11
1.84902e-11
1.6105e-11
6.57202e-12
1.24345e-12
2.32758e-13
1.16795e-13
3.78586e-14
2.12053e-14
1.55431e-14
1.15463e-14
9.82547e-15
1.26038e-12
1.72978e-11
1.91453e-11
3.31134e-11
2.57128e-11
1.32648e-11
1.76292e-12
5.94857e-12
1.82643e-12
2.15716e-13
2.44194e-13
9.46798e-13
2.51255e-12
1.98341e-12
8.70637e-13
2.03337e-13
4.28546e-14
2.15383e-14
1.86517e-14
1.53211e-14
1.52656e-14
1.21014e-14
9.49241e-15
2.06168e-13
2.27462e-12
2.54585e-12
4.28596e-12
2.67003e-12
1.47937e-12
1.55986e-13
3.38007e-13
1.91569e-13
3.08642e-14
4.35207e-14
8.22675e-14
3.06422e-13
2.34979e-13
1.14186e-13
3.69149e-14
1.67089e-14
1.33782e-14
1.31006e-14
1.45439e-14
1.36557e-14
9.76996e-15
1.08247e-14
4.02456e-14
2.63956e-13
3.32512e-13
5.87863e-13
2.31315e-13
1.80078e-13
2.53686e-14
3.10862e-14
3.26961e-14
1.72085e-14
1.98175e-14
1.92069e-14
4.88498e-14
3.9635e-14
2.33147e-14
1.40998e-14
1.35447e-14
1.29896e-14
1.38778e-14
1.37113e-14
1.48215e-14
1.19904e-14
1.27121e-14
1.31006e-14
1.67644e-14
4.30211e-14
8.40994e-14
2.88103e-14
2.9754e-14
1.41553e-14
1.12133e-14
1.64313e-14
1.34892e-14
1.27121e-14
1.32672e-14
1.54876e-14
1.69309e-14
1.20459e-14
9.99201e-15
1.16573e-14
1.11022e-14
1.15463e-14
1.21014e-14
1.17129e-14
9.27036e-15
1.11022e-14
8.71525e-15
0
9.15934e-15
2.06501e-14
1.44884e-14
1.44329e-14
1.32672e-14
1.05471e-14
1.2268e-14
1.14908e-14
1.2601e-14
1.29896e-14
1.38223e-14
1.2379e-14
1.04916e-14
1.06026e-14
1.18239e-14
1.14908e-14
1.37113e-14
1.13243e-14
1.29896e-14
8.04912e-15
1.18239e-14
6.55032e-15
0
4.4964e-15
1.12688e-14
1.18794e-14
1.30451e-14
1.11022e-14
9.76996e-15
9.38138e-15
1.06581e-14
1.13243e-14
1.13798e-14
1.10467e-14
1.18239e-14
9.21485e-15
9.04832e-15
8.65974e-15
1.03251e-14
1.21014e-14
1.21569e-14
9.4369e-15
9.32587e-15
1.09357e-14
5.88418e-15
0
7.54952e-15
1.11577e-14
1.21014e-14
1.40443e-14
1.28231e-14
1.0103e-14
9.88098e-15
1.07137e-14
1.08802e-14
1.00475e-14
1.03251e-14
1.22125e-14
1.06581e-14
1.04916e-14
1.03806e-14
1.17684e-14
1.37668e-14
1.08802e-14
9.60343e-15
1.18239e-14
8.65974e-15
0.482033
0.520102
0.528796
0.534091
0.51867
0.546521
0.563993
0.581916
0.603494
0.620215
0.630258
0.634625
0.590684
0.6008
0.60426
0.598807
0.502634
0.442753
0.385174
0.329559
0.296872
0.231743
0.189058
0.177538
0.142181
0.125396
0.122326
0.128971
0.0942579
0.0918714
0.10414
0.112158
0.0923205
0.109365
0.121068
0.127181
0.0751451
0.0908616
0.103303
0.112472
0.090006
0.0977522
0.10447
0.110097
0.0731615
0.0771571
0.0798234
0.0821335
0.0848147
0.0885542
0.0922246
0.0961778
0.0548029
0.0551691
0.0562589
0.0581501
0.0426029
0.0435003
0.0448764
0.0459551
0.00900368
0.00972679
0.0112355
0.0121935
0.000421364
0.000418486
0.000424905
0.000428706
0.00022429
0.000185301
0.000149796
0.000125371
0.000347064
0.000239336
0.00017752
0.000108772
0.000627737
0.000258203
0.000121289
5.28021e-05
0.000811918
0.000272405
9.04503e-05
2.48696e-05
0.000289726
0.00010937
5.19102e-05
1.21647e-05
5.17081e-05
2.36134e-05
1.08025e-05
3.44961e-06
5.97369e-06
3.1457e-06
1.40298e-06
5.16013e-07
1.42491e-06
7.93309e-07
3.98219e-07
2.02787e-07
1.88322e-07
8.89471e-08
2.88995e-08
7.94479e-09
1.5457e-08
9.41945e-09
4.39052e-09
1.69855e-09
1.00253e-09
6.82194e-10
3.74201e-10
1.5609e-10
6.73533e-11
3.72427e-11
1.99092e-11
9.1972e-12
4.26709e-12
1.82915e-12
7.53009e-13
2.81386e-13
1.92291e-13
8.64864e-14
4.10227e-14
2.12608e-14
2.34257e-14
1.18239e-14
8.99281e-15
8.65974e-15
8.9373e-15
8.71525e-15
9.99201e-15
1.11022e-14
9.10383e-15
8.77076e-15
1.07137e-14
1.2379e-14
9.4369e-15
1.14908e-14
1.14353e-14
1.06026e-14
9.10383e-15
1.02141e-14
9.65894e-15
6.99441e-15
1.16018e-14
1.2379e-14
1.10467e-14
6.66134e-15
1.28231e-14
1.29896e-14
1.06581e-14
3.38618e-15
1.05471e-14
9.32587e-15
5.93969e-15
9.4369e-16
1.01585e-14
8.54872e-15
5.38458e-15
0
7.82707e-15
3.16414e-15
4.55191e-15
4.38538e-15
3.21965e-15
0
2.498e-15
1.66533e-16
0.539837
0.397065
0.338855
0.324471
0.336504
0.411562
0.480871
0.448478
0.295915
0.262785
0.270391
0.389349
0.452439
0.514704
0.569929
0.599572
0.631347
0.643355
0.642668
0.613144
0.650737
0.614205
0.652369
0.647491
0.624666
0.55187
0.566181
0.670197
0.606295
0.639443
0.633982
0.585673
0.503772
0.512489
0.573814
0.632732
0.647858
0.632474
0.635509
0.549661
0.387837
0.581496
0.371476
0.313816
0.229324
0.261732
0.426077
0.563527
0.591461
0.352754
0.284345
0.315126
0.360366
0.36528
0.43167
0.558
0.591113
0.54001
0.327343
0.235774
0.302371
0.201089
0.16506
0.129848
0.156438
0.307038
0.348923
0.300056
0.225434
0.237837
0.323632
0.367523
0.273347
0.296705
0.377334
0.495098
0.256729
0.186678
0.163481
0.158376
0.13569
0.116085
0.122799
0.165349
0.19121
0.203568
0.234299
0.273181
0.320949
0.434923
0.414342
0.229985
0.195646
0.297966
0.482525
0.181525
0.149842
0.134358
0.122807
0.113268
0.12543
0.180228
0.219703
0.253475
0.304033
0.362197
0.433673
0.468188
0.507257
0.423084
0.199855
0.210466
0.446897
0.557016
0.135622
0.136262
0.125923
0.119339
0.120505
0.157941
0.213964
0.256915
0.311739
0.394544
0.457357
0.496328
0.515221
0.521014
0.42655
0.249925
0.220026
0.47567
0.59529
0.115095
0.114287
0.106555
0.113629
0.144927
0.182538
0.211595
0.246855
0.301329
0.368897
0.43779
0.506342
0.528856
0.527918
0.464181
0.296067
0.207536
0.430907
0.608229
0.129638
0.124786
0.110631
0.108228
0.119654
0.171325
0.22047
0.262797
0.294236
0.327355
0.388007
0.490265
0.531888
0.541424
0.531729
0.458697
0.387718
0.430228
0.621174
0.120603
0.126241
0.122746
0.125239
0.18611
0.265145
0.290512
0.300754
0.31104
0.323151
0.354664
0.436268
0.492342
0.527322
0.541754
0.539174
0.543032
0.543004
0.619874
0.117194
0.125716
0.134864
0.17932
0.240627
0.278274
0.287797
0.28783
0.294613
0.283915
0.310306
0.350642
0.396789
0.433061
0.470079
0.506119
0.572687
0.582867
0.573838
0.0850227
0.104566
0.120793
0.146381
0.176121
0.220298
0.231328
0.204069
0.211608
0.219773
0.263258
0.258804
0.271286
0.291738
0.319851
0.358916
0.461432
0.487055
0.485308
0.103219
0.119468
0.132436
0.147687
0.152157
0.136781
0.131672
0.105173
0.100426
0.0985191
0.126686
0.13102
0.153774
0.1884
0.225264
0.259604
0.341929
0.377108
0.387856
0.0617906
0.0532916
0.0615709
0.0715326
0.0744514
0.072514
0.0626813
0.0538749
0.0481842
0.0394446
0.0540803
0.061764
0.0665565
0.101309
0.148376
0.174365
0.233652
0.261401
0.268553
0.0477278
0.051087
0.0488319
0.0461245
0.037055
0.0348057
0.0276124
0.0235393
0.0211931
0.0158194
0.0238719
0.0269772
0.0247126
0.0371742
0.0791826
0.090693
0.132128
0.150684
0.162158
0.0130955
0.0118057
0.011111
0.0104611
0.00879195
0.0100166
0.00996489
0.00857031
0.00843792
0.00724374
0.00829784
0.00757182
0.00662094
0.00946505
0.0262365
0.0377959
0.0563433
0.0691312
0.0750541
0.000441355
0.000294967
0.00098195
0.00142983
0.00151566
0.0022729
0.00295776
0.00229291
0.00273933
0.00292489
0.00161768
0.0014433
0.000989301
0.00138281
0.00482498
0.0115598
0.0184666
0.029063
0.0298064
9.3224e-05
5.66973e-05
0.000156554
0.000270143
0.00038843
0.000548559
0.000703814
0.00053828
0.000698901
0.00103425
0.000256039
0.000209534
0.00013245
0.00019431
0.000751033
0.00259959
0.00808413
0.0144215
0.0135568
6.33711e-05
1.8461e-05
2.33884e-05
3.39454e-05
6.34064e-05
8.28763e-05
9.42359e-05
9.69018e-05
0.000161341
0.000357083
7.6171e-05
3.66657e-05
2.06852e-05
2.74841e-05
0.000180196
0.00163074
0.00609385
0.00876277
0.00803857
3.22156e-05
4.96451e-06
6.04568e-06
3.55726e-06
6.21996e-06
7.68724e-06
1.11711e-05
1.51844e-05
4.00325e-05
0.000105073
3.60752e-05
1.14307e-05
7.15679e-06
1.56861e-05
0.000124846
0.00181111
0.00519314
0.00588883
0.00587992
7.16448e-06
1.02508e-06
1.56453e-06
5.70597e-07
1.6189e-06
1.39282e-06
3.14542e-06
3.56773e-06
1.33794e-05
2.86521e-05
1.21409e-05
3.86216e-06
3.35345e-06
1.96943e-05
0.00031345
0.00216168
0.00398246
0.00377598
0.00481716
3.224e-06
4.14776e-07
3.09807e-07
7.8852e-08
1.11984e-07
2.00581e-07
1.00823e-06
7.26646e-07
4.61641e-06
5.7278e-06
2.779e-06
1.07189e-06
1.51477e-06
1.5775e-05
0.00039286
0.0015518
0.00210415
0.00198268
0.00412821
7.23426e-07
8.54714e-08
2.92199e-08
1.06794e-08
1.10392e-08
3.35938e-08
7.89445e-08
9.93643e-08
5.72618e-07
7.16107e-07
4.75723e-07
3.36522e-07
6.74362e-07
1.69733e-06
3.46565e-05
0.000372869
0.000695306
0.000801344
0.00358081
1.23843e-07
1.72838e-08
4.8839e-09
1.45085e-09
1.63874e-09
3.31011e-09
6.12524e-09
1.12529e-08
7.91299e-08
1.04219e-07
6.83444e-08
9.40877e-08
3.16461e-07
8.69007e-07
5.11432e-06
4.26013e-05
0.000150401
0.000318421
0.00313039
6.53017e-08
1.0118e-08
1.76536e-09
3.35349e-10
2.02391e-10
2.15169e-10
4.08201e-10
1.32909e-09
1.71998e-08
1.65202e-08
1.04413e-08
3.60571e-08
1.62388e-07
4.32253e-07
1.43208e-06
6.88449e-06
3.92721e-05
0.000182827
0.00280338
1.50082e-09
3.00109e-10
7.21061e-11
2.30372e-11
3.15179e-11
3.49956e-11
6.82272e-11
2.78727e-10
3.7142e-09
1.18338e-09
1.57676e-09
1.94e-08
6.59094e-08
1.99141e-07
5.0227e-07
2.54634e-06
2.14016e-05
0.000150146
0.00247665
3.63513e-10
6.2785e-11
1.19265e-11
3.07632e-12
5.57537e-12
5.73241e-12
1.28415e-11
1.63832e-11
4.05123e-11
1.15288e-10
5.47245e-10
1.18945e-08
4.28926e-08
1.14604e-07
3.09825e-07
1.771e-06
1.74304e-05
0.000136744
0.00205804
3.08898e-11
4.39804e-12
1.15374e-12
3.3562e-13
3.96794e-13
6.25833e-13
1.13731e-12
1.62537e-12
1.11281e-11
7.12876e-11
4.01933e-10
7.61419e-09
3.18896e-08
8.03549e-08
2.88002e-07
2.99175e-06
2.28336e-05
0.000123343
0.00176875
2.10953e-12
3.26184e-13
7.02216e-14
1.72085e-14
3.06977e-14
4.89053e-14
1.01807e-13
4.57301e-13
8.61883e-12
6.44418e-11
5.97819e-10
7.25608e-09
2.66923e-08
7.08178e-08
2.96946e-07
3.32657e-06
2.37311e-05
0.000112233
0.00156908
5.9508e-14
1.36002e-14
6.71685e-15
5.32907e-15
6.43929e-15
1.2379e-14
7.59393e-14
7.52898e-13
3.03407e-11
2.51232e-10
1.30105e-09
8.42974e-09
2.53224e-08
5.74042e-08
2.4596e-07
4.3534e-06
2.51921e-05
9.81173e-05
0.00138169
9.71445e-15
6.93889e-15
5.77316e-15
5.27356e-15
5.32907e-15
1.44884e-14
2.36089e-13
1.95327e-12
8.22272e-11
4.82756e-10
2.02859e-09
1.29155e-08
2.39084e-08
4.52178e-08
1.97401e-07
4.67542e-06
2.2148e-05
7.94186e-05
0.0012149
7.21645e-15
6.43929e-15
5.77316e-15
5.77316e-15
8.21565e-15
4.60743e-14
5.40512e-13
3.26428e-12
1.40604e-10
5.89914e-10
2.10114e-09
1.30389e-08
1.46487e-08
2.44927e-08
1.01416e-07
3.29704e-06
1.24704e-05
5.01955e-05
0.0010662
8.9373e-15
7.82707e-15
6.38378e-15
5.32907e-15
1.06026e-14
6.68354e-14
8.42937e-13
5.06911e-12
1.8959e-10
6.08846e-10
2.41153e-09
1.60188e-08
5.89588e-09
6.40069e-09
6.46018e-08
2.7122e-06
6.7607e-06
3.72037e-05
0.000937489
1.03251e-14
6.21725e-15
4.21885e-15
5.93969e-15
1.49325e-14
7.53286e-14
9.16378e-13
6.20892e-12
2.33382e-10
1.88293e-10
7.92807e-10
2.64684e-09
2.26578e-09
4.20953e-09
4.91498e-08
1.15986e-06
1.68701e-06
4.31627e-05
0.00139649
4.38538e-15
4.16334e-15
3.77476e-15
7.54952e-15
2.00395e-14
1.07359e-13
5.29965e-13
2.59726e-12
1.52217e-10
5.10416e-11
4.77792e-10
5.17303e-10
1.79055e-09
4.5941e-09
2.05884e-08
4.27527e-07
5.0202e-07
1.73859e-05
0.000779959
0
3.77476e-15
2.88658e-15
8.16014e-15
2.64788e-14
1.2601e-13
3.4861e-13
1.42314e-12
3.01728e-11
6.94617e-12
1.50733e-10
1.71909e-10
2.15515e-09
7.27702e-09
1.88776e-08
9.70856e-08
1.8331e-07
5.47636e-06
0.000708533
0
3.05311e-15
4.10783e-15
8.04912e-15
1.05471e-14
7.71605e-14
1.90181e-13
7.2764e-13
1.38456e-12
1.17634e-12
2.75673e-11
9.41406e-11
3.36984e-09
9.33223e-09
1.72391e-08
2.45418e-08
1.66639e-07
1.86131e-06
0.000531147
0
3.4972e-15
2.498e-15
3.60822e-15
7.88258e-15
1.88738e-14
4.57412e-14
1.77303e-13
4.92384e-14
8.25451e-13
8.23525e-12
7.66494e-11
5.30463e-09
1.22185e-08
1.71355e-08
2.37098e-08
2.55368e-07
5.60186e-07
0.000428265
0
6.55032e-15
2.88658e-15
2.10942e-15
6.16174e-15
8.43769e-15
1.43219e-14
7.60503e-15
8.27116e-15
1.02135e-12
5.47584e-12
1.12464e-10
8.94018e-09
1.62317e-08
1.88352e-08
2.5125e-08
2.87555e-07
4.39314e-07
0.000303218
2.05391e-15
1.21014e-14
3.44169e-15
1.72085e-15
4.55191e-15
5.9952e-15
8.9373e-15
2.22045e-16
4.38538e-15
1.37457e-12
6.3245e-12
1.28308e-10
1.12521e-08
1.8452e-08
2.05753e-08
2.70144e-08
3.06164e-07
4.26346e-07
0.000213226
1.16018e-14
1.29896e-14
0
0
9.15934e-15
8.99281e-15
1.05471e-14
0
3.60822e-15
1.58978e-12
6.78857e-12
1.54789e-10
1.31807e-08
2.00688e-08
2.15573e-08
2.83796e-08
3.0813e-07
4.40789e-07
0.000341193
1.06026e-14
1.35447e-14
0
8.71525e-15
1.23235e-14
1.2601e-14
1.35447e-14
0
5.21805e-15
1.92268e-12
6.93229e-12
1.13227e-10
1.36355e-08
2.0426e-08
2.18428e-08
3.06878e-08
3.78372e-07
4.32953e-07
0.000157981
)
;

boundaryField
{
    leftWall
    {
        type            zeroGradient;
    }
    rightWall
    {
        type            zeroGradient;
    }
    lowerWall
    {
        type            zeroGradient;
    }
    atmosphere
    {
        type            inletOutlet;
        inletValue      uniform 0;
        value           nonuniform List<scalar> 
46
(
5.88418e-15
0
7.54952e-15
1.11577e-14
1.21014e-14
1.40443e-14
1.28231e-14
1.0103e-14
9.88098e-15
1.07137e-14
1.08802e-14
1.00475e-14
1.03251e-14
1.22125e-14
1.06581e-14
1.04916e-14
1.03806e-14
1.17684e-14
1.37668e-14
1.08802e-14
9.60343e-15
1.18239e-14
8.65974e-15
3.21965e-15
0
2.498e-15
1.66533e-16
1.06026e-14
1.35447e-14
0
8.71525e-15
1.23235e-14
1.2601e-14
1.35447e-14
0
5.21805e-15
1.92268e-12
6.93229e-12
1.13227e-10
1.36355e-08
2.0426e-08
2.18428e-08
3.06878e-08
3.78372e-07
4.32953e-07
0.000157981
)
;
    }
    defaultFaces
    {
        type            empty;
    }
}


// ************************************************************************* //
