/*--------------------------------*- C++ -*----------------------------------*\
| =========                 |                                                 |
| \\      /  F ield         | foam-extend: Open Source CFD                    |
|  \\    /   O peration     | Version:     4.1                                |
|   \\  /    A nd           | Web:         http://www.foam-extend.org         |
|    \\/     M anipulation  |                                                 |
\*---------------------------------------------------------------------------*/
FoamFile
{
    version     2.0;
    format      ascii;
    class       volScalarField;
    location    "0.85";
    object      C;
}
// * * * * * * * * * * * * * * * * * * * * * * * * * * * * * * * * * * * * * //

dimensions      [0 0 0 0 0 0 0];

internalField   nonuniform List<scalar> 
2268
(
0.278251
0.18521
0.501419
0.317424
0.430475
0.268879
0.330762
0.297254
0.346718
0.909509
0.997823
0.996883
0.999072
0.999594
0.999725
0.99983
0.999936
0.999934
0.999222
0.996259
0.993394
0.939224
0.228776
0.193058
0.111523
0.385175
-0.116614
0.198452
0.378181
0.40735
0.619458
0.833983
0.829339
0.989697
0.982627
0.996995
0.998976
0.999472
0.999582
0.999816
0.999925
0.999788
0.999444
0.999438
0.989989
0.942987
0.0857963
-0.0860862
0.194512
-0.243102
-0.216251
0.316142
0.43608
0.606964
0.737088
0.167583
0.915111
0.968394
0.994264
0.998127
0.99851
0.99828
0.999523
0.999863
0.999919
0.999898
0.999297
0.994942
0.981077
0.0452705
-0.142562
0.232396
-0.277999
-0.23302
0.252421
0.459441
0.526156
0.481598
0.0865873
0.731366
0.964555
0.987388
0.993025
0.993036
0.989628
0.997931
0.999247
0.999787
0.999715
0.999303
0.994295
0.984693
-0.0205539
-0.164932
0.376347
-0.361893
-0.131447
0.325532
0.444505
0.477599
0.449729
0.646814
0.746543
0.941276
0.955724
0.979409
0.971555
0.954976
0.99314
0.997635
0.999219
0.99825
0.997396
0.987915
0.982498
0.0258195
-0.54183
0.152416
-0.520952
-0.473936
0.0106904
0.233001
0.464028
0.5093
0.685575
0.80362
0.90551
0.902911
0.941916
0.933424
0.862729
0.969297
0.987125
0.994545
0.988443
0.983878
0.962689
0.967884
0.0517187
-0.468826
-0.328296
-0.6308
-0.414771
-0.127571
-0.0256497
0.387603
0.581295
0.635341
0.814831
0.812686
0.783569
0.835697
0.875992
0.710885
0.910362
0.937348
0.95264
0.90556
0.925737
0.927274
0.9119
-0.114698
-0.71038
-0.615925
-0.696969
-0.645679
-0.491841
-0.267375
0.232578
0.509739
0.248869
0.562738
0.51089
0.485472
0.598265
0.766744
0.583063
0.798007
0.793078
0.73233
0.695477
0.747646
0.820626
0.655075
0.319557
0.315394
0.298956
0.271866
0.239772
0.208226
0.163971
0.127852
0.112534
0.0766864
0.118021
0.244198
0.293782
0.31026
0.318469
0.322507
0.32584
0.383796
0.380775
0.319122
0.307523
0.267892
0.193428
0.0959669
0.0395861
0.0203065
0.0536839
0.0638578
0.0654194
0.154294
0.230695
0.25953
0.227622
0.190285
0.28652
0.188467
0.352966
0.355089
0.318246
0.304842
0.254694
0.100805
-0.0342122
-0.115303
-0.092631
0.04618
0.0913941
0.121786
0.160844
0.160484
0.073669
-0.0948443
-0.100362
0.0437945
0.060087
0.28657
0.338418
0.315631
0.278802
0.123296
-0.0738049
-0.198146
-0.388109
-0.437995
-0.184963
0.056332
0.110113
0.131878
0.0799865
-0.111163
-0.343776
-0.393335
-0.286318
-0.0127307
0.228383
0.323366
0.309736
0.233179
0.0167112
-0.227662
-0.426363
-0.530382
-0.574684
-0.37776
-0.0943036
0.0430704
0.0885162
-0.0896492
-0.366283
-0.461308
-0.461501
-0.410996
-0.0634134
0.194836
0.308783
0.30123
0.181497
-0.0897325
-0.343433
-0.477631
-0.553844
-0.560386
-0.54629
-0.490426
-0.184129
-0.029919
-0.29695
-0.504322
-0.529482
-0.439268
-0.427686
-0.162036
0.177684
0.298807
0.284955
0.129865
-0.096342
-0.249984
-0.353298
-0.489759
-0.390442
-0.608978
-0.620061
-0.523048
-0.310624
-0.593486
-0.622142
-0.3796
-0.175616
-0.130332
0.00251786
0.218081
0.293612
0.262202
0.0239349
-0.198171
-0.334001
-0.241788
-0.487955
-0.19866
-0.49018
-0.633722
-0.630426
-0.604533
-0.594348
-0.487344
-0.10116
0.0897276
0.111834
0.174924
0.253506
0.290329
-0.693032
-0.771032
-0.73881
-0.665459
-0.472332
-0.398155
-0.0964961
0.215492
0.362496
0.293971
0.108622
0.108856
-0.0478145
0.361821
0.539019
0.404088
0.527731
0.453367
0.427298
0.489963
0.357827
0.251306
-0.00693663
-0.883824
-0.726997
-0.568042
-0.482612
-0.270204
-0.164264
-0.33826
0.147595
-0.0198739
0.199401
-0.292329
-0.122201
-0.220296
0.307032
0.327682
0.261041
0.383763
0.353401
0.158602
-0.0027488
-0.0304166
-0.0309922
-0.0540992
-0.857757
-0.591247
-0.514346
-0.50028
-0.506797
-0.276307
-0.462875
-0.371688
-0.331948
0.0261807
-0.343201
-0.210699
-0.195749
0.354108
0.330206
0.251612
0.316734
0.140632
-0.00543283
-0.0298355
-0.0142823
0.0523708
0.0990832
-0.75126
-0.52521
-0.488616
-0.574044
-0.729248
-0.541266
-0.270774
-0.19824
-0.327599
-0.287106
-0.60469
-0.376996
-0.310237
0.21473
0.130525
0.215165
0.270712
0.237803
0.037531
-0.0470307
-0.0376864
0.0406384
0.115979
-0.798329
-0.679612
-0.72237
-0.522538
-0.723823
-0.825091
-0.545964
-0.421869
-0.665789
-0.766563
-0.674903
-0.426701
-0.401345
-0.106344
-0.34209
-0.0851017
0.109452
0.153993
0.0480707
-0.11405
-0.145297
-0.116137
-0.0519265
-0.878189
-0.912691
-0.927799
-0.814322
-0.936867
-0.921291
-0.826105
-0.722102
-0.884252
-0.701522
-0.461216
-0.413907
-0.62233
-0.52444
-0.802212
-0.494092
-0.15885
-0.0766574
-0.193822
-0.364551
-0.473796
-0.548691
-0.432493
-0.938194
-0.960794
-0.96639
-0.956473
-0.966829
-0.960784
-0.941686
-0.909009
-0.951718
-0.842589
-0.585755
-0.140269
-0.679027
-0.848737
-0.892792
-0.68896
-0.445371
-0.349579
-0.472671
-0.572606
-0.709129
-0.748079
-0.711639
-0.964784
-0.970803
-0.976523
-0.975724
-0.979569
-0.98187
-0.978897
-0.975665
-0.986355
-0.975763
-0.876362
-0.370535
-0.876304
-0.931495
-0.888661
-0.772682
-0.643808
-0.594564
-0.647603
-0.753286
-0.815079
-0.818278
-0.788278
-0.973135
-0.974449
-0.978046
-0.978277
-0.981496
-0.985779
-0.987624
-0.983882
-0.971096
-0.949294
-0.920168
-0.85329
-0.940909
-0.934537
-0.896731
-0.857673
-0.829228
-0.821528
-0.83261
-0.885666
-0.894915
-0.853775
-0.829326
-0.976532
-0.979798
-0.983025
-0.987218
-0.989081
-0.989624
-0.991508
-0.991624
-0.984421
-0.971109
-0.960537
-0.949126
-0.947409
-0.927327
-0.914584
-0.90838
-0.904129
-0.901601
-0.90801
-0.915748
-0.904705
-0.892893
-0.877031
-0.979564
-0.98692
-0.991927
-0.995731
-0.994329
-0.991682
-0.991299
-0.987215
-0.980071
-0.973539
-0.965215
-0.953966
-0.944725
-0.934484
-0.927716
-0.917924
-0.914453
-0.91249
-0.911007
-0.905255
-0.889625
-0.868267
-0.839883
-0.983293
-0.992156
-0.996812
-0.994914
-0.993516
-0.992582
-0.991911
-0.989384
-0.986464
-0.983837
-0.974593
-0.964958
-0.954647
-0.94064
-0.934232
-0.931919
-0.93173
-0.934473
-0.933436
-0.918684
-0.902801
-0.883515
-0.865913
-0.987448
-0.995473
-0.996871
-0.99529
-0.994748
-0.994649
-0.99419
-0.992421
-0.990865
-0.988278
-0.982467
-0.972991
-0.960684
-0.95256
-0.950306
-0.950168
-0.950436
-0.939604
-0.917071
-0.898736
-0.880094
-0.860528
-0.841626
-0.992056
-0.996822
-0.996877
-0.995284
-0.994396
-0.992663
-0.990812
-0.989147
-0.987411
-0.985571
-0.979799
-0.973618
-0.968459
-0.966696
-0.968083
-0.972103
-0.974257
-0.950789
-0.932282
-0.918177
-0.907051
-0.898657
-0.893428
-0.99434
-0.997699
-0.997302
-0.994268
-0.988517
-0.984766
-0.983078
-0.982341
-0.981892
-0.982054
-0.980452
-0.97807
-0.977854
-0.978839
-0.977075
-0.966319
-0.953088
-0.942471
-0.934103
-0.928651
-0.925001
-0.922272
-0.919808
-0.996433
-0.997685
-0.995122
-0.987179
-0.982176
-0.9811
-0.981126
-0.982305
-0.983569
-0.984056
-0.983942
-0.984636
-0.983299
-0.979327
-0.974864
-0.965927
-0.960455
-0.958132
-0.968455
-0.978781
-0.983385
-0.986363
-0.987943
-0.997533
-0.997578
-0.993433
-0.985257
-0.982103
-0.981511
-0.983701
-0.988016
-0.989105
-0.989427
-0.987522
-0.984584
-0.982001
-0.977668
-0.973174
-0.969475
-0.968821
-0.97558
-0.987267
-0.995983
-0.998051
-0.998864
-0.999073
-0.998291
-0.997496
-0.992301
-0.985278
-0.983042
-0.983576
-0.988978
-0.993171
-0.994134
-0.993211
-0.989667
-0.985755
-0.982051
-0.978442
-0.976495
-0.976635
-0.982869
-0.991957
-0.997291
-0.999184
-0.999033
-0.99894
-0.999384
-0.998635
-0.997722
-0.992933
-0.986285
-0.984881
-0.987366
-0.994283
-0.996761
-0.996795
-0.995264
-0.992278
-0.987939
-0.984169
-0.983085
-0.98328
-0.988109
-0.992413
-0.995277
-0.997249
-0.99764
-0.997173
-0.997015
-0.998677
-0.998965
-0.997901
-0.993353
-0.987748
-0.986768
-0.988553
-0.994452
-0.997127
-0.99781
-0.997657
-0.996061
-0.99293
-0.99049
-0.99147
-0.991266
-0.993949
-0.992083
-0.991852
-0.993862
-0.994394
-0.993591
-0.994987
-0.99717
-0.999228
-0.998165
-0.99449
-0.989554
-0.988642
-0.989562
-0.994508
-0.996902
-0.997573
-0.998025
-0.998197
-0.99745
-0.996283
-0.997202
-0.996229
-0.998397
-0.995755
-0.992076
-0.993104
-0.991838
-0.991662
-0.993647
-0.99623
-0.999477
-0.998626
-0.996449
-0.991924
-0.99095
-0.990875
-0.994487
-0.997109
-0.997781
-0.998095
-0.998518
-0.998775
-0.998582
-0.998975
-0.998693
-0.999354
-0.999013
-0.995853
-0.997222
-0.995093
-0.995576
-0.997327
-0.998733
-0.999683
-0.999252
-0.998333
-0.994529
-0.994075
-0.9929
-0.995058
-0.997429
-0.998547
-0.998988
-0.9987
-0.999016
-0.999265
-0.999603
-0.999545
-0.99965
-0.999737
-0.998745
-0.999275
-0.999077
-0.999163
-0.999444
-0.999818
-0.999855
-0.999606
-0.999247
-0.996857
-0.996826
-0.996226
-0.996957
-0.998266
-0.999271
-0.999756
-0.999296
-0.999361
-0.99951
-0.999762
-0.999812
-0.999844
-0.999895
-0.999798
-0.999804
-0.999868
-0.999907
-0.999929
-0.999969
-0.999951
-0.999805
-0.999674
-0.998612
-0.998415
-0.998805
-0.998664
-0.999129
-0.999648
-0.999916
-0.999815
-0.999731
-0.999773
-0.999871
-0.999907
-0.999943
-0.999969
-0.999956
-0.99996
-0.999968
-0.999979
-0.999986
-0.999993
-0.999984
-0.999906
-0.999862
-0.999402
-0.999299
-0.999587
-0.999435
-0.99965
-0.999866
-0.999969
-0.99996
-0.999931
-0.99993
-0.999949
-0.999964
-0.999978
-0.999985
-0.999993
-0.999995
-0.999996
-0.999998
-0.999999
-0.999999
-0.999995
-0.999964
-0.999948
-0.999786
-0.999752
-0.999852
-0.999823
-0.999883
-0.999965
-0.999993
-0.999992
-0.999983
-0.99998
-0.999983
-0.999988
-0.999994
-0.999996
-0.999998
-0.999999
-1
-1
-1
-1
-0.999999
-0.999988
-0.999983
-0.999931
-0.999923
-0.999955
-0.999949
-0.999964
-0.99999
-0.999999
-0.999998
-0.999996
-0.999994
-0.999996
-0.999997
-0.999998
-0.999999
-0.999999
-1
-1
-1
-1
-1
-1
-0.999996
-0.999995
-0.999981
-0.999979
-0.999988
-0.999987
-0.999991
-0.999997
-1
-1
-0.999999
-0.999999
-0.999999
-0.999999
-1
-1
-1
-1
-1
-1
-1
-1
-1
-0.999999
-0.999999
-0.999996
-0.999995
-0.999997
-0.999997
-0.999998
-0.999999
-1
-1
-1
-1
-1
-1
-1
-1
-1
-1
-1
-1
-1
-1
-1
-1
-1
-0.999999
-0.999999
-0.999999
-0.999999
-1
-1
-1
-1
-1
-1
-1
-1
-1
-1
-1
-1
-1
-1
-1
-1
-1
-1
-1
-1
-1
-1
-1
-1
-1
-1
-1
-1
-1
-1
-1
-1
-1
-1
-1
-1
-1
-1
-1
-1
-1
-1
-1
-1
-1
-1
-1
-1
-1
-1
-1
-1
-1
-1
-1
-1
-1
-1
-1
-1
-1
-1
-1
-1
-1
-1
-1
-1
-1
-1
-1
-1
-1
-1
-1
-1
-1
-1
-1
-1
-1
-1
-1
-1
-1
-1
-1
-1
-1
-1
-1
-1
-1
-1
-1
-1
-1
-1
-1
-1
-1
-1
-1
-1
-1
-1
-1
-1
-1
-1
-1
-1
-1
-1
-1
-1
-1
-1
-1
-1
-1
-1
-1
-1
-1
-1
-1
-1
-1
-1
-1
-1
-1
-1
-1
-1
-1
-1
-1
-1
-1
-1
-1
-1
-1
-1
-1
-1
-1
-1
-1
-1
-1
-1
-1
-1
-1
-1
-1
-1
-1
-1
-1
-1
-1
-1
-1
-1
-1
-1
-1
-1
-1
-1
-1
-1
-1
-1
-1
-1
-1
-1
-1
-1
-1
-1
-1
-1
-1
-1
-1
-1
-1
-1
-1
-1
-1
-1
-1
-1
-1
-1
-1
-1
-1
-1
-1
-1
-1
-1
-1
-1
-1
-1
-1
-1
-1
-1
-1
-1
-1
-1
-1
-1
-1
-1
-1
-1
-1
-1
-1
-1
-1
-1
-1
-1
-1
-1
-1
-1
-1
-1
-1
-1
-1
-1
-1
-1
-1
-1
-1
-1
-1
-1
-1
-1
-1
-1
-1
-1
-1
-1
-1
-1
-1
-1
-1
-1
-1
-0.0359333
0.0402049
0.0575924
0.0681816
0.037339
0.0930414
0.127986
0.163833
0.206987
0.24043
0.260516
0.26925
0.181369
0.2016
0.20852
0.197613
0.00526734
-0.114494
-0.229652
-0.340883
-0.406257
-0.536514
-0.621885
-0.644924
-0.715639
-0.749208
-0.755348
-0.742059
-0.811484
-0.816257
-0.791719
-0.775685
-0.815359
-0.781271
-0.757864
-0.745637
-0.84971
-0.818277
-0.793394
-0.775055
-0.819988
-0.804496
-0.79106
-0.779806
-0.853677
-0.845686
-0.840353
-0.835733
-0.830371
-0.822892
-0.815551
-0.807644
-0.890394
-0.889662
-0.887482
-0.8837
-0.914794
-0.912999
-0.910247
-0.90809
-0.981993
-0.980546
-0.977529
-0.975613
-0.999157
-0.999163
-0.99915
-0.999143
-0.999551
-0.999629
-0.9997
-0.999749
-0.999306
-0.999521
-0.999645
-0.999782
-0.998745
-0.999484
-0.999757
-0.999894
-0.998376
-0.999455
-0.999819
-0.99995
-0.999421
-0.999781
-0.999896
-0.999976
-0.999897
-0.999953
-0.999978
-0.999993
-0.999988
-0.999994
-0.999997
-0.999999
-0.999997
-0.999998
-0.999999
-1
-1
-1
-1
-1
-1
-1
-1
-1
-1
-1
-1
-1
-1
-1
-1
-1
-1
-1
-1
-1
-1
-1
-1
-1
-1
-1
-1
-1
-1
-1
-1
-1
-1
-1
-1
-1
-1
-1
-1
-1
-1
-1
-1
-1
-1
-1
-1
-1
-1
-1
-1
-1
-1
-1
-1
-1
-1
-1
-1
-1
-1
-1
-1
-1
-1
-1
-1
-1
0.079674
-0.205869
-0.322289
-0.351059
-0.326992
-0.176876
-0.0382584
-0.103043
-0.408171
-0.47443
-0.459218
-0.221303
-0.0951214
0.0294072
0.139858
0.199144
0.262694
0.286709
0.285337
0.226287
0.301474
0.22841
0.304739
0.294983
0.249332
0.103741
0.132363
0.340394
0.212591
0.278887
0.267964
0.171347
0.00754462
0.0249776
0.147627
0.265464
0.295715
0.264947
0.271019
0.0993215
-0.224325
0.162992
-0.257047
-0.372369
-0.541351
-0.476536
-0.147846
0.127053
0.182922
-0.294492
-0.431309
-0.369747
-0.279268
-0.269441
-0.13666
0.116001
0.182226
0.0800209
-0.345313
-0.528452
-0.395258
-0.597821
-0.669879
-0.740305
-0.687124
-0.385924
-0.302153
-0.399888
-0.549133
-0.524325
-0.352736
-0.264955
-0.453306
-0.40659
-0.245331
-0.00980324
-0.486542
-0.626644
-0.673038
-0.683247
-0.72862
-0.76783
-0.754402
-0.669302
-0.61758
-0.592864
-0.531402
-0.453637
-0.358103
-0.130155
-0.171317
-0.54003
-0.608708
-0.404067
-0.0349509
-0.636951
-0.700315
-0.731285
-0.754386
-0.773463
-0.74914
-0.639543
-0.560594
-0.493051
-0.391934
-0.275606
-0.132653
-0.0636243
0.014514
-0.153831
-0.60029
-0.579069
-0.106206
0.114031
-0.728756
-0.727475
-0.748154
-0.761323
-0.75899
-0.684117
-0.572071
-0.486169
-0.376522
-0.210911
-0.0852853
-0.00734301
0.0304419
0.0420282
-0.146899
-0.500149
-0.559948
-0.0486599
0.19058
-0.769811
-0.771426
-0.78689
-0.772741
-0.710147
-0.634925
-0.576809
-0.50629
-0.397342
-0.262206
-0.12442
0.0126842
0.0577129
0.0558358
-0.0716387
-0.407867
-0.584928
-0.138187
0.216458
-0.740723
-0.750427
-0.778739
-0.783544
-0.760692
-0.657349
-0.55906
-0.474406
-0.411527
-0.34529
-0.223987
-0.0194694
0.0637752
0.0828481
0.0634587
-0.0826065
-0.224564
-0.139544
0.242347
-0.758795
-0.747519
-0.754508
-0.749521
-0.62778
-0.469711
-0.418976
-0.398492
-0.377921
-0.353698
-0.290671
-0.127463
-0.0153157
0.0546443
0.0835071
0.0783481
0.0860645
0.086008
0.239748
-0.765613
-0.748569
-0.730273
-0.64136
-0.518746
-0.443452
-0.424405
-0.42434
-0.410775
-0.432169
-0.379387
-0.298716
-0.206422
-0.133879
-0.0598426
0.0122388
0.145374
0.165735
0.147677
-0.829955
-0.790867
-0.758415
-0.707238
-0.647759
-0.559403
-0.537344
-0.591862
-0.576784
-0.560453
-0.473483
-0.482392
-0.457428
-0.416524
-0.360297
-0.282167
-0.0771353
-0.0258908
-0.0293847
-0.793562
-0.761063
-0.735129
-0.704625
-0.695686
-0.726438
-0.736656
-0.789655
-0.799149
-0.802962
-0.746628
-0.737959
-0.692452
-0.6232
-0.549472
-0.480791
-0.316141
-0.245784
-0.224289
-0.876419
-0.893417
-0.876858
-0.856935
-0.851097
-0.854972
-0.874637
-0.89225
-0.903632
-0.921111
-0.891839
-0.876472
-0.866887
-0.797382
-0.703249
-0.65127
-0.532697
-0.477199
-0.462894
-0.904544
-0.897826
-0.902336
-0.907751
-0.92589
-0.930389
-0.944775
-0.952921
-0.957614
-0.968361
-0.952256
-0.946046
-0.950575
-0.925652
-0.841635
-0.818614
-0.735743
-0.698632
-0.675684
-0.973809
-0.976389
-0.977778
-0.979078
-0.982416
-0.979967
-0.98007
-0.982859
-0.983124
-0.985513
-0.983404
-0.984856
-0.986758
-0.98107
-0.947527
-0.924408
-0.887313
-0.861738
-0.849892
-0.999117
-0.99941
-0.998036
-0.99714
-0.996969
-0.995454
-0.994084
-0.995414
-0.994521
-0.99415
-0.996765
-0.997113
-0.998021
-0.997234
-0.99035
-0.97688
-0.963067
-0.941874
-0.940387
-0.999814
-0.999887
-0.999687
-0.99946
-0.999223
-0.998903
-0.998592
-0.998923
-0.998602
-0.997932
-0.999488
-0.999581
-0.999735
-0.999611
-0.998498
-0.994801
-0.983832
-0.971157
-0.972886
-0.999873
-0.999963
-0.999953
-0.999932
-0.999873
-0.999834
-0.999812
-0.999806
-0.999677
-0.999286
-0.999848
-0.999927
-0.999959
-0.999945
-0.99964
-0.996739
-0.987812
-0.982474
-0.983923
-0.999936
-0.99999
-0.999988
-0.999993
-0.999988
-0.999985
-0.999978
-0.99997
-0.99992
-0.99979
-0.999928
-0.999977
-0.999986
-0.999969
-0.99975
-0.996378
-0.989614
-0.988222
-0.98824
-0.999986
-0.999998
-0.999997
-0.999999
-0.999997
-0.999997
-0.999994
-0.999993
-0.999973
-0.999943
-0.999976
-0.999992
-0.999993
-0.999961
-0.999373
-0.995677
-0.992035
-0.992448
-0.990366
-0.999994
-0.999999
-0.999999
-1
-1
-1
-0.999998
-0.999999
-0.999991
-0.999989
-0.999994
-0.999998
-0.999997
-0.999968
-0.999214
-0.996896
-0.995792
-0.996035
-0.991744
-0.999999
-1
-1
-1
-1
-1
-1
-1
-0.999999
-0.999999
-0.999999
-0.999999
-0.999999
-0.999997
-0.999931
-0.999254
-0.998609
-0.998397
-0.992838
-1
-1
-1
-1
-1
-1
-1
-1
-1
-1
-1
-1
-0.999999
-0.999998
-0.99999
-0.999915
-0.999699
-0.999363
-0.993739
-1
-1
-1
-1
-1
-1
-1
-1
-1
-1
-1
-1
-1
-0.999999
-0.999997
-0.999986
-0.999921
-0.999634
-0.994393
-1
-1
-1
-1
-1
-1
-1
-1
-1
-1
-1
-1
-1
-1
-0.999999
-0.999995
-0.999957
-0.9997
-0.995047
-1
-1
-1
-1
-1
-1
-1
-1
-1
-1
-1
-1
-1
-1
-0.999999
-0.999996
-0.999965
-0.999727
-0.995884
-1
-1
-1
-1
-1
-1
-1
-1
-1
-1
-1
-1
-1
-1
-0.999999
-0.999994
-0.999954
-0.999753
-0.996463
-1
-1
-1
-1
-1
-1
-1
-1
-1
-1
-1
-1
-1
-1
-0.999999
-0.999993
-0.999953
-0.999776
-0.996862
-1
-1
-1
-1
-1
-1
-1
-1
-1
-1
-1
-1
-1
-1
-1
-0.999991
-0.99995
-0.999804
-0.997237
-1
-1
-1
-1
-1
-1
-1
-1
-1
-1
-1
-1
-1
-1
-1
-0.999991
-0.999956
-0.999841
-0.99757
-1
-1
-1
-1
-1
-1
-1
-1
-1
-1
-1
-1
-1
-1
-1
-0.999993
-0.999975
-0.9999
-0.997868
-1
-1
-1
-1
-1
-1
-1
-1
-1
-1
-1
-1
-1
-1
-1
-0.999995
-0.999986
-0.999926
-0.998125
-1
-1
-1
-1
-1
-1
-1
-1
-1
-1
-1
-1
-1
-1
-1
-0.999998
-0.999997
-0.999914
-0.997207
-1
-1
-1
-1
-1
-1
-1
-1
-1
-1
-1
-1
-1
-1
-1
-0.999999
-0.999999
-0.999965
-0.99844
-1
-1
-1
-1
-1
-1
-1
-1
-1
-1
-1
-1
-1
-1
-1
-1
-1
-0.999989
-0.998583
-1
-1
-1
-1
-1
-1
-1
-1
-1
-1
-1
-1
-1
-1
-1
-1
-1
-0.999996
-0.998938
-1
-1
-1
-1
-1
-1
-1
-1
-1
-1
-1
-1
-1
-1
-1
-1
-0.999999
-0.999999
-0.999143
-1
-1
-1
-1
-1
-1
-1
-1
-1
-1
-1
-1
-1
-1
-1
-1
-0.999999
-0.999999
-0.999394
-1
-1
-1
-1
-1
-1
-1
-1
-1
-1
-1
-1
-1
-1
-1
-1
-0.999999
-0.999999
-0.999574
-1
-1
-1
-1
-1
-1
-1
-1
-1
-1
-1
-1
-1
-1
-1
-1
-0.999999
-0.999999
-0.999318
-1
-1
-1
-1
-1
-1
-1
-1
-1
-1
-1
-1
-1
-1
-1
-1
-0.999999
-0.999999
-0.999684
)
;

boundaryField
{
    leftWall
    {
        type            zeroGradient;
    }
    rightWall
    {
        type            zeroGradient;
    }
    lowerWall
    {
        type            zeroGradient;
    }
    atmosphere
    {
        type            zeroGradient;
    }
    defaultFaces
    {
        type            empty;
    }
}


// ************************************************************************* //
