/*--------------------------------*- C++ -*----------------------------------*\
| =========                 |                                                 |
| \\      /  F ield         | foam-extend: Open Source CFD                    |
|  \\    /   O peration     | Version:     4.1                                |
|   \\  /    A nd           | Web:         http://www.foam-extend.org         |
|    \\/     M anipulation  |                                                 |
\*---------------------------------------------------------------------------*/
FoamFile
{
    version     2.0;
    format      ascii;
    class       volScalarField;
    location    "0.85";
    object      C_0;
}
// * * * * * * * * * * * * * * * * * * * * * * * * * * * * * * * * * * * * * //

dimensions      [0 0 0 0 0 0 0];

internalField   nonuniform List<scalar> 
2268
(
0.278352
0.182935
0.505202
0.319564
0.431747
0.26782
0.329941
0.294532
0.345073
0.907858
0.997832
0.996912
0.99907
0.999594
0.999725
0.99983
0.999936
0.999934
0.999225
0.996265
0.993377
0.93901
0.227325
0.193245
0.10849
0.389379
-0.117443
0.195762
0.377973
0.404779
0.611807
0.837882
0.838948
0.989736
0.982829
0.996982
0.998977
0.999474
0.999585
0.999816
0.999925
0.999788
0.999448
0.99944
0.990011
0.944585
0.0868511
-0.0894789
0.20046
-0.242718
-0.22009
0.313781
0.433185
0.604414
0.733937
0.171818
0.926077
0.968134
0.994231
0.998148
0.99854
0.998308
0.999526
0.999863
0.999919
0.999898
0.999298
0.994954
0.981105
0.0455248
-0.144403
0.241955
-0.276858
-0.239975
0.246404
0.457272
0.526328
0.480569
0.0656319
0.723585
0.964031
0.987306
0.993195
0.99322
0.989768
0.997939
0.999246
0.999787
0.999714
0.999305
0.994316
0.984695
-0.0191972
-0.170074
0.383984
-0.360235
-0.141025
0.321968
0.442582
0.478114
0.446055
0.640851
0.741624
0.941039
0.95583
0.979962
0.972292
0.955485
0.993187
0.997631
0.999215
0.998244
0.997395
0.987949
0.982517
0.0308445
-0.550128
0.143897
-0.519789
-0.47889
0.000770482
0.228528
0.463113
0.506487
0.681553
0.801232
0.906235
0.902886
0.944005
0.934955
0.863927
0.969422
0.987094
0.994525
0.988378
0.983836
0.962673
0.968078
0.054923
-0.467728
-0.332547
-0.631158
-0.417741
-0.131599
-0.0308341
0.382092
0.578506
0.636175
0.816607
0.817076
0.7833
0.843868
0.878938
0.711336
0.91053
0.937374
0.952765
0.904715
0.925123
0.927392
0.913182
-0.131362
-0.709656
-0.61861
-0.697292
-0.648772
-0.4943
-0.269667
0.229562
0.508946
0.246986
0.566997
0.521787
0.48395
0.612359
0.772399
0.581617
0.799708
0.794276
0.733637
0.693292
0.744272
0.82397
0.665711
0.319638
0.315923
0.300382
0.274259
0.242701
0.211631
0.167869
0.131266
0.114453
0.076286
0.111176
0.237565
0.291098
0.309216
0.318181
0.32244
0.325688
0.383931
0.381497
0.319192
0.308394
0.270437
0.197724
0.0993911
0.041261
0.0213641
0.0530389
0.0638299
0.0609734
0.145017
0.226438
0.259478
0.233284
0.195347
0.287753
0.187387
0.353944
0.35627
0.318286
0.305428
0.256422
0.104621
-0.0327303
-0.117009
-0.0974014
0.0422619
0.0881955
0.118501
0.160722
0.163371
0.0851136
-0.0875082
-0.098068
0.0417762
0.0534282
0.286524
0.339833
0.315619
0.279294
0.126171
-0.0700499
-0.195942
-0.388064
-0.441589
-0.198091
0.0496874
0.107828
0.132411
0.0888203
-0.0937084
-0.337513
-0.390745
-0.290614
-0.0185029
0.228392
0.325154
0.309683
0.234095
0.0215288
-0.221926
-0.424586
-0.530175
-0.576537
-0.389854
-0.110526
0.0377754
0.0906187
-0.07182
-0.352043
-0.459398
-0.462525
-0.416039
-0.0669117
0.194486
0.310287
0.301157
0.183333
-0.0808763
-0.335186
-0.474151
-0.553781
-0.562764
-0.547512
-0.504356
-0.199593
-0.0339247
-0.287537
-0.500596
-0.533031
-0.445498
-0.434971
-0.165886
0.176035
0.299972
0.285047
0.133017
-0.0899625
-0.24625
-0.347046
-0.489417
-0.393324
-0.608909
-0.623316
-0.533298
-0.324521
-0.593958
-0.62262
-0.396133
-0.192835
-0.145335
-0.00890641
0.215512
0.294451
0.262275
0.0248224
-0.198158
-0.335275
-0.241367
-0.488895
-0.199623
-0.480539
-0.633956
-0.631623
-0.607378
-0.597146
-0.489054
-0.108433
0.0892399
0.106004
0.169817
0.251801
0.290948
-0.713442
-0.771788
-0.738945
-0.665561
-0.471242
-0.396955
-0.096955
0.214261
0.359093
0.298055
0.114768
0.115935
-0.046676
0.367067
0.544164
0.402804
0.529358
0.453977
0.428608
0.489987
0.35453
0.254008
-0.00517356
-0.88602
-0.725236
-0.5674
-0.483805
-0.270777
-0.163478
-0.339903
0.147122
-0.0261422
0.201985
-0.292929
-0.118779
-0.224727
0.30664
0.328635
0.257678
0.384672
0.358382
0.169732
-0.00027992
-0.0315197
-0.0324546
-0.0583976
-0.860567
-0.592364
-0.514492
-0.500449
-0.506376
-0.275913
-0.46319
-0.372004
-0.333572
0.0263511
-0.342711
-0.207867
-0.202158
0.354451
0.332858
0.249872
0.320077
0.153157
-0.00214763
-0.030275
-0.0176163
0.048644
0.0962757
-0.752694
-0.525557
-0.488164
-0.572723
-0.72897
-0.540182
-0.271184
-0.197136
-0.326368
-0.297115
-0.602923
-0.375577
-0.316432
0.210691
0.122471
0.208786
0.271284
0.245144
0.0444524
-0.0475402
-0.0413599
0.0344503
0.110748
-0.80202
-0.684339
-0.722904
-0.521343
-0.724181
-0.82338
-0.546881
-0.422569
-0.663625
-0.772863
-0.677634
-0.42725
-0.413571
-0.118311
-0.355364
-0.10145
0.105383
0.155406
0.0565043
-0.113311
-0.150505
-0.125678
-0.0608923
-0.882854
-0.915366
-0.927652
-0.814276
-0.93673
-0.920365
-0.827654
-0.725372
-0.88539
-0.706082
-0.459816
-0.406398
-0.624439
-0.539379
-0.808946
-0.513323
-0.168109
-0.0784196
-0.186228
-0.360836
-0.481512
-0.558895
-0.445586
-0.940642
-0.961407
-0.966364
-0.95641
-0.966751
-0.960599
-0.942771
-0.911388
-0.952857
-0.84685
-0.589932
-0.135138
-0.677495
-0.854886
-0.896448
-0.70034
-0.454167
-0.354731
-0.470052
-0.566856
-0.709903
-0.752662
-0.715002
-0.965667
-0.970997
-0.976538
-0.975715
-0.979564
-0.981874
-0.979178
-0.976228
-0.986484
-0.976001
-0.880373
-0.378784
-0.880062
-0.933811
-0.891068
-0.779197
-0.650641
-0.601195
-0.648329
-0.751698
-0.817416
-0.820991
-0.788877
-0.973371
-0.974576
-0.978121
-0.978276
-0.981483
-0.985785
-0.987728
-0.984271
-0.971822
-0.950564
-0.923099
-0.860916
-0.942561
-0.935741
-0.899294
-0.861541
-0.833398
-0.825456
-0.834482
-0.887345
-0.897789
-0.857394
-0.83265
-0.976621
-0.979939
-0.983154
-0.987257
-0.989181
-0.989641
-0.991529
-0.991766
-0.984792
-0.971854
-0.961982
-0.950782
-0.948541
-0.928749
-0.916076
-0.909819
-0.905571
-0.903039
-0.908643
-0.916248
-0.90599
-0.894527
-0.879595
-0.979646
-0.987091
-0.992044
-0.995765
-0.994451
-0.991751
-0.991422
-0.987761
-0.980828
-0.974518
-0.966616
-0.955564
-0.946376
-0.935899
-0.929163
-0.918781
-0.915126
-0.913103
-0.911552
-0.9061
-0.891491
-0.871022
-0.843077
-0.983384
-0.99225
-0.996881
-0.995001
-0.993588
-0.992706
-0.992116
-0.989832
-0.987107
-0.984705
-0.976077
-0.966685
-0.956708
-0.942087
-0.935127
-0.932495
-0.932212
-0.935172
-0.934699
-0.921386
-0.906023
-0.886703
-0.868869
-0.987533
-0.995539
-0.996935
-0.995365
-0.994825
-0.994719
-0.994328
-0.992623
-0.990983
-0.988614
-0.983456
-0.974763
-0.962535
-0.953763
-0.951215
-0.951401
-0.952455
-0.943381
-0.921029
-0.902418
-0.883465
-0.863684
-0.844616
-0.992111
-0.996901
-0.99695
-0.995356
-0.994444
-0.99262
-0.990614
-0.988982
-0.987408
-0.985825
-0.98051
-0.974522
-0.969336
-0.96725
-0.968203
-0.972692
-0.975842
-0.953947
-0.93561
-0.921357
-0.909991
-0.901329
-0.895866
-0.994425
-0.997745
-0.997405
-0.994365
-0.988474
-0.984467
-0.982718
-0.982079
-0.981752
-0.982056
-0.980863
-0.978523
-0.978177
-0.979315
-0.978263
-0.968645
-0.955221
-0.944298
-0.935575
-0.929847
-0.925865
-0.922926
-0.920308
-0.996527
-0.997755
-0.995325
-0.987329
-0.982128
-0.980962
-0.980971
-0.982138
-0.983583
-0.984214
-0.984227
-0.984931
-0.983696
-0.979982
-0.976005
-0.967254
-0.96161
-0.959013
-0.967861
-0.978746
-0.983388
-0.986159
-0.987704
-0.997627
-0.997686
-0.993853
-0.985574
-0.982174
-0.98151
-0.983672
-0.988254
-0.989462
-0.989899
-0.98809
-0.985071
-0.982567
-0.978352
-0.974046
-0.970182
-0.969043
-0.974713
-0.986067
-0.995646
-0.998048
-0.99884
-0.999043
-0.998378
-0.997643
-0.992838
-0.985636
-0.983202
-0.983589
-0.988877
-0.993291
-0.99441
-0.993752
-0.990487
-0.986525
-0.982751
-0.979164
-0.977092
-0.976913
-0.982596
-0.991264
-0.996892
-0.999173
-0.999056
-0.998942
-0.999354
-0.998721
-0.997859
-0.993428
-0.986628
-0.985069
-0.987123
-0.994066
-0.996842
-0.997032
-0.995816
-0.993202
-0.988999
-0.985009
-0.983779
-0.983743
-0.988157
-0.992095
-0.994879
-0.99715
-0.997608
-0.997211
-0.996995
-0.998643
-0.999041
-0.998055
-0.993914
-0.988103
-0.986938
-0.988284
-0.994132
-0.997003
-0.997843
-0.9979
-0.996698
-0.99389
-0.991378
-0.992111
-0.991589
-0.994293
-0.99212
-0.991628
-0.993657
-0.994296
-0.993576
-0.994972
-0.997179
-0.999298
-0.998335
-0.995084
-0.989982
-0.988852
-0.989378
-0.994216
-0.996815
-0.997513
-0.998024
-0.998344
-0.997805
-0.996739
-0.997472
-0.996467
-0.998465
-0.996014
-0.992093
-0.993099
-0.991811
-0.991631
-0.993567
-0.9962
-0.999533
-0.998796
-0.996985
-0.992501
-0.991308
-0.990892
-0.994233
-0.997077
-0.997788
-0.998095
-0.998544
-0.998851
-0.998725
-0.999068
-0.998783
-0.999392
-0.999065
-0.996001
-0.997272
-0.995029
-0.995481
-0.997246
-0.998699
-0.999725
-0.999367
-0.998622
-0.99508
-0.994553
-0.993201
-0.995042
-0.997427
-0.998601
-0.999055
-0.998722
-0.999058
-0.999318
-0.999632
-0.999573
-0.999672
-0.99975
-0.998788
-0.999292
-0.999044
-0.999128
-0.999424
-0.999814
-0.999879
-0.99967
-0.999375
-0.997273
-0.997163
-0.996557
-0.997178
-0.998334
-0.99931
-0.999773
-0.99935
-0.999402
-0.999544
-0.999781
-0.999825
-0.999854
-0.999902
-0.999795
-0.999806
-0.999873
-0.999906
-0.999927
-0.999968
-0.999961
-0.999839
-0.999732
-0.998816
-0.998618
-0.998948
-0.998785
-0.999202
-0.999683
-0.999925
-0.999833
-0.999752
-0.99979
-0.999882
-0.999915
-0.999947
-0.99997
-0.999957
-0.999961
-0.999969
-0.99998
-0.999986
-0.999993
-0.999987
-0.999924
-0.999889
-0.999496
-0.999408
-0.999649
-0.999489
-0.99969
-0.999884
-0.999973
-0.999964
-0.999936
-0.999935
-0.999953
-0.999968
-0.99998
-0.999986
-0.999993
-0.999995
-0.999996
-0.999998
-0.999999
-0.999999
-0.999996
-0.999972
-0.999959
-0.999823
-0.999797
-0.999879
-0.999843
-0.999899
-0.999971
-0.999994
-0.999993
-0.999984
-0.999982
-0.999985
-0.999989
-0.999994
-0.999996
-0.999998
-0.999999
-1
-1
-1
-1
-0.999999
-0.999991
-0.999987
-0.999945
-0.999939
-0.999965
-0.999955
-0.999969
-0.999992
-0.999999
-0.999998
-0.999996
-0.999995
-0.999996
-0.999997
-0.999998
-0.999999
-1
-1
-1
-1
-1
-1
-1
-0.999997
-0.999996
-0.999985
-0.999984
-0.999991
-0.999989
-0.999993
-0.999998
-1
-1
-0.999999
-0.999999
-0.999999
-0.999999
-1
-1
-1
-1
-1
-1
-1
-1
-1
-0.999999
-0.999999
-0.999997
-0.999997
-0.999998
-0.999998
-0.999998
-1
-1
-1
-1
-1
-1
-1
-1
-1
-1
-1
-1
-1
-1
-1
-1
-1
-1
-0.999999
-0.999999
-1
-1
-1
-1
-1
-1
-1
-1
-1
-1
-1
-1
-1
-1
-1
-1
-1
-1
-1
-1
-1
-1
-1
-1
-1
-1
-1
-1
-1
-1
-1
-1
-1
-1
-1
-1
-1
-1
-1
-1
-1
-1
-1
-1
-1
-1
-1
-1
-1
-1
-1
-1
-1
-1
-1
-1
-1
-1
-1
-1
-1
-1
-1
-1
-1
-1
-1
-1
-1
-1
-1
-1
-1
-1
-1
-1
-1
-1
-1
-1
-1
-1
-1
-1
-1
-1
-1
-1
-1
-1
-1
-1
-1
-1
-1
-1
-1
-1
-1
-1
-1
-1
-1
-1
-1
-1
-1
-1
-1
-1
-1
-1
-1
-1
-1
-1
-1
-1
-1
-1
-1
-1
-1
-1
-1
-1
-1
-1
-1
-1
-1
-1
-1
-1
-1
-1
-1
-1
-1
-1
-1
-1
-1
-1
-1
-1
-1
-1
-1
-1
-1
-1
-1
-1
-1
-1
-1
-1
-1
-1
-1
-1
-1
-1
-1
-1
-1
-1
-1
-1
-1
-1
-1
-1
-1
-1
-1
-1
-1
-1
-1
-1
-1
-1
-1
-1
-1
-1
-1
-1
-1
-1
-1
-1
-1
-1
-1
-1
-1
-1
-1
-1
-1
-1
-1
-1
-1
-1
-1
-1
-1
-1
-1
-1
-1
-1
-1
-1
-1
-1
-1
-1
-1
-1
-1
-1
-1
-1
-1
-1
-1
-1
-1
-1
-1
-1
-1
-1
-1
-1
-1
-1
-1
-1
-1
-1
-1
-1
-1
-1
-1
-1
-1
-1
-1
-1
-1
-1
-1
-1
-1
-1
-1
-1
-1
-1
-1
-1
-1
-1
-1
-0.0422487
0.0369042
0.0554395
0.0666592
0.0313571
0.0894767
0.1255
0.162278
0.203323
0.239303
0.260747
0.270486
0.177395
0.199223
0.206764
0.198037
0.00342166
-0.110152
-0.228444
-0.338512
-0.409368
-0.531207
-0.620872
-0.645954
-0.71509
-0.75061
-0.757186
-0.745372
-0.81164
-0.818467
-0.795921
-0.777476
-0.820661
-0.787397
-0.761413
-0.747038
-0.855058
-0.824912
-0.799345
-0.779276
-0.8234
-0.808268
-0.794719
-0.783245
-0.857186
-0.848768
-0.843356
-0.838683
-0.833255
-0.82576
-0.818407
-0.810544
-0.892699
-0.891845
-0.889969
-0.886306
-0.915248
-0.913336
-0.910393
-0.907924
-0.981704
-0.980207
-0.976995
-0.974752
-0.999127
-0.999128
-0.999113
-0.999102
-0.999533
-0.999613
-0.999688
-0.999737
-0.999281
-0.999501
-0.999623
-0.999763
-0.998754
-0.999476
-0.999746
-0.999885
-0.998401
-0.999472
-0.999823
-0.99995
-0.999406
-0.999775
-0.999895
-0.999975
-0.999896
-0.999953
-0.999979
-0.999993
-0.999988
-0.999994
-0.999997
-0.999999
-0.999997
-0.999998
-0.999999
-1
-1
-1
-1
-1
-1
-1
-1
-1
-1
-1
-1
-1
-1
-1
-1
-1
-1
-1
-1
-1
-1
-1
-1
-1
-1
-1
-1
-1
-1
-1
-1
-1
-1
-1
-1
-1
-1
-1
-1
-1
-1
-1
-1
-1
-1
-1
-1
-1
-1
-1
-1
-1
-1
-1
-1
-1
-1
-1
-1
-1
-1
-1
-1
-1
-1
-1
-1
-1
0.0790022
-0.206974
-0.322468
-0.351192
-0.328464
-0.178447
-0.0381154
-0.0946839
-0.399072
-0.471978
-0.462079
-0.227206
-0.0970351
0.0330444
0.143458
0.201831
0.263992
0.286575
0.285691
0.22662
0.304193
0.232424
0.306651
0.300183
0.256493
0.10271
0.134561
0.348232
0.217697
0.279499
0.272848
0.180154
0.0221189
0.0401224
0.162006
0.273077
0.297398
0.2646
0.273757
0.110393
-0.216167
0.164478
-0.245837
-0.361326
-0.546121
-0.485164
-0.145243
0.128948
0.183411
-0.289448
-0.428311
-0.368714
-0.278046
-0.261935
-0.123898
0.12248
0.18202
0.0880571
-0.332239
-0.527881
-0.396477
-0.591442
-0.664522
-0.740707
-0.691002
-0.390425
-0.307277
-0.397436
-0.550558
-0.52635
-0.360284
-0.268404
-0.451182
-0.403283
-0.246131
-0.0115472
-0.480715
-0.62134
-0.671992
-0.681168
-0.722956
-0.768309
-0.760464
-0.677009
-0.623032
-0.597493
-0.53825
-0.464377
-0.375114
-0.143386
-0.173366
-0.540631
-0.610054
-0.411837
-0.035629
-0.636366
-0.698355
-0.729386
-0.752028
-0.773914
-0.75731
-0.650455
-0.569433
-0.504027
-0.406479
-0.291863
-0.144527
-0.072672
0.0123962
-0.143064
-0.600358
-0.588874
-0.115763
0.11223
-0.730151
-0.727258
-0.746118
-0.761429
-0.762757
-0.695223
-0.580968
-0.494344
-0.387795
-0.221788
-0.09249
-0.0121849
0.027728
0.0431542
-0.136996
-0.497971
-0.568058
-0.0558688
0.189519
-0.770218
-0.770644
-0.787806
-0.777555
-0.718641
-0.641795
-0.583617
-0.514096
-0.40533
-0.268329
-0.129607
0.00866363
0.0571556
0.0580006
-0.0658366
-0.404046
-0.589987
-0.145082
0.21454
-0.740572
-0.746542
-0.776964
-0.7845
-0.768238
-0.673832
-0.572823
-0.482744
-0.41682
-0.349362
-0.228747
-0.0222019
0.0647511
0.0833367
0.0654647
-0.0845035
-0.236098
-0.148074
0.242363
-0.760922
-0.747061
-0.752846
-0.752787
-0.643182
-0.478062
-0.421152
-0.399344
-0.37889
-0.354418
-0.295579
-0.128555
-0.0111531
0.0595646
0.0872057
0.0799897
0.0826527
0.080218
0.242504
-0.768424
-0.751057
-0.734263
-0.654077
-0.528118
-0.444336
-0.420502
-0.418634
-0.406565
-0.425288
-0.377194
-0.293609
-0.195699
-0.121569
-0.0505174
0.018826
0.150343
0.170593
0.156896
-0.833417
-0.796201
-0.764181
-0.713549
-0.651444
-0.552369
-0.525209
-0.578044
-0.565846
-0.549287
-0.462027
-0.470422
-0.44331
-0.404141
-0.350084
-0.272085
-0.0612422
-0.00858744
-0.0144082
-0.796522
-0.76403
-0.737055
-0.701993
-0.688266
-0.716241
-0.725765
-0.77998
-0.791336
-0.795359
-0.73876
-0.730361
-0.682202
-0.613194
-0.539632
-0.468954
-0.29898
-0.224168
-0.20297
-0.879019
-0.894309
-0.877138
-0.855557
-0.846658
-0.849231
-0.867948
-0.886285
-0.899558
-0.917539
-0.888693
-0.872658
-0.860917
-0.788799
-0.691628
-0.634995
-0.513561
-0.451613
-0.437992
-0.903849
-0.89623
-0.899445
-0.904088
-0.921877
-0.926417
-0.941264
-0.949941
-0.955499
-0.966602
-0.950693
-0.9437
-0.946709
-0.919183
-0.83047
-0.802005
-0.717422
-0.674708
-0.650458
-0.972845
-0.975051
-0.976306
-0.977621
-0.981099
-0.9787
-0.978785
-0.981721
-0.982161
-0.984644
-0.982453
-0.983712
-0.985244
-0.978258
-0.941744
-0.914642
-0.875979
-0.847193
-0.8337
-0.999073
-0.99937
-0.997906
-0.996959
-0.996753
-0.995166
-0.993704
-0.995057
-0.994168
-0.993746
-0.996473
-0.996806
-0.997772
-0.996769
-0.988888
-0.973466
-0.959317
-0.936124
-0.933867
-0.999804
-0.999878
-0.999665
-0.999426
-0.999164
-0.998819
-0.998486
-0.998825
-0.998505
-0.997788
-0.999442
-0.999531
-0.999698
-0.999547
-0.998283
-0.994384
-0.983189
-0.969049
-0.970613
-0.999863
-0.99996
-0.99995
-0.999927
-0.999862
-0.999819
-0.999794
-0.999787
-0.999653
-0.99924
-0.999841
-0.99992
-0.999954
-0.99994
-0.999637
-0.996842
-0.987759
-0.981501
-0.983032
-0.999928
-0.999989
-0.999987
-0.999992
-0.999987
-0.999983
-0.999976
-0.999967
-0.999913
-0.999777
-0.999925
-0.999976
-0.999985
-0.999969
-0.999766
-0.996573
-0.989489
-0.987582
-0.987797
-0.999985
-0.999998
-0.999997
-0.999999
-0.999997
-0.999997
-0.999993
-0.999992
-0.999971
-0.999939
-0.999974
-0.999992
-0.999993
-0.999963
-0.999413
-0.995805
-0.991697
-0.991914
-0.990076
-0.999993
-0.999999
-0.999999
-1
-1
-1
-0.999998
-0.999998
-0.99999
-0.999988
-0.999994
-0.999998
-0.999997
-0.999967
-0.999226
-0.996796
-0.99541
-0.995647
-0.991508
-0.999999
-1
-1
-1
-1
-1
-1
-1
-0.999999
-0.999998
-0.999999
-0.999999
-0.999999
-0.999996
-0.999924
-0.999169
-0.998429
-0.998198
-0.992631
-1
-1
-1
-1
-1
-1
-1
-1
-1
-1
-1
-1
-0.999999
-0.999998
-0.999989
-0.999902
-0.999654
-0.999302
-0.993562
-1
-1
-1
-1
-1
-1
-1
-1
-1
-1
-1
-1
-1
-0.999999
-0.999997
-0.999985
-0.999913
-0.999616
-0.994236
-1
-1
-1
-1
-1
-1
-1
-1
-1
-1
-1
-1
-1
-1
-0.999999
-0.999995
-0.999955
-0.999693
-0.994878
-1
-1
-1
-1
-1
-1
-1
-1
-1
-1
-1
-1
-1
-1
-0.999999
-0.999996
-0.999964
-0.999721
-0.995738
-1
-1
-1
-1
-1
-1
-1
-1
-1
-1
-1
-1
-1
-1
-0.999999
-0.999994
-0.999953
-0.999748
-0.99636
-1
-1
-1
-1
-1
-1
-1
-1
-1
-1
-1
-1
-1
-1
-0.999999
-0.999993
-0.999951
-0.99977
-0.996775
-1
-1
-1
-1
-1
-1
-1
-1
-1
-1
-1
-1
-1
-1
-0.999999
-0.999991
-0.999948
-0.999798
-0.997156
-1
-1
-1
-1
-1
-1
-1
-1
-1
-1
-1
-1
-1
-1
-1
-0.99999
-0.999954
-0.999835
-0.997498
-1
-1
-1
-1
-1
-1
-1
-1
-1
-1
-1
-1
-1
-1
-1
-0.999993
-0.999974
-0.999895
-0.997806
-1
-1
-1
-1
-1
-1
-1
-1
-1
-1
-1
-1
-1
-1
-1
-0.999994
-0.999986
-0.999923
-0.998074
-1
-1
-1
-1
-1
-1
-1
-1
-1
-1
-1
-1
-1
-1
-1
-0.999998
-0.999996
-0.99991
-0.997136
-1
-1
-1
-1
-1
-1
-1
-1
-1
-1
-1
-1
-1
-1
-1
-0.999999
-0.999999
-0.999963
-0.998406
-1
-1
-1
-1
-1
-1
-1
-1
-1
-1
-1
-1
-1
-1
-1
-1
-1
-0.999988
-0.998552
-1
-1
-1
-1
-1
-1
-1
-1
-1
-1
-1
-1
-1
-1
-1
-1
-1
-0.999996
-0.998915
-1
-1
-1
-1
-1
-1
-1
-1
-1
-1
-1
-1
-1
-1
-1
-1
-0.999999
-0.999999
-0.999127
-1
-1
-1
-1
-1
-1
-1
-1
-1
-1
-1
-1
-1
-1
-1
-1
-0.999999
-0.999999
-0.999382
-1
-1
-1
-1
-1
-1
-1
-1
-1
-1
-1
-1
-1
-1
-1
-1
-0.999999
-0.999999
-0.999565
-1
-1
-1
-1
-1
-1
-1
-1
-1
-1
-1
-1
-1
-1
-1
-1
-0.999999
-0.999999
-0.999313
-1
-1
-1
-1
-1
-1
-1
-1
-1
-1
-1
-1
-1
-1
-1
-1
-0.999999
-0.999999
-0.999683
)
;

boundaryField
{
    leftWall
    {
        type            zeroGradient;
    }
    rightWall
    {
        type            zeroGradient;
    }
    lowerWall
    {
        type            zeroGradient;
    }
    atmosphere
    {
        type            zeroGradient;
    }
    defaultFaces
    {
        type            empty;
    }
}


// ************************************************************************* //
