/*--------------------------------*- C++ -*----------------------------------*\
| =========                 |                                                 |
| \\      /  F ield         | foam-extend: Open Source CFD                    |
|  \\    /   O peration     | Version:     4.1                                |
|   \\  /    A nd           | Web:         http://www.foam-extend.org         |
|    \\/     M anipulation  |                                                 |
\*---------------------------------------------------------------------------*/
FoamFile
{
    version     2.0;
    format      ascii;
    class       volScalarField;
    location    "0.85";
    object      p;
}
// * * * * * * * * * * * * * * * * * * * * * * * * * * * * * * * * * * * * * //

dimensions      [1 -1 -2 0 0 0 0];

internalField   nonuniform List<scalar> 
2268
(
1778.99
1934.31
1328.44
1790.66
1516.86
1950.52
1809.49
1878.65
1694.62
786.059
745.464
755.601
749.853
777.559
805.055
813.52
831.254
845.176
855.752
870.72
871.116
897.811
1743.02
1878.9
1966.86
1583.76
2026.09
1954.7
1671.65
1586.49
1061.36
616.599
824.345
700.284
689.446
691.295
718.314
741.013
754.258
770.355
791.087
796.104
809.76
813.581
818.356
841.706
1948.7
1954
1919.66
1834.93
1888.78
1782.68
1482.17
1064.87
766.142
1792.94
673.17
652.73
617.271
669.312
685.813
694.969
714.326
730.436
738.893
756.109
756.682
759.941
759.684
1911.05
1887.28
1810.01
1749.18
1846.59
1857.42
1376.55
1241.99
1425.22
1868.2
878.408
575.078
556.737
594.627
612.692
636.037
655.959
676.543
683.188
696.91
698.606
704.534
698.469
1869.89
1830.69
1480.2
1546.85
1952.74
1679.87
1400.83
1341.18
1462.12
874.708
760.844
527.083
479.678
546.603
582.479
587.585
599.627
617.941
628.862
638.058
639.929
654.563
636.803
1799.08
1055.11
1818.82
1134.89
1300.07
1975.2
1794.39
1344.07
1260.17
816.161
558.974
482.32
459.108
456.978
564.722
632.927
548.105
572.327
576.969
584.247
588.9
608.141
581.556
1729.98
1228.46
1568.08
818.79
1421.59
1896.48
1986.15
1504.67
1045.97
933.559
475.683
590.339
565.655
593.945
528.313
899.087
548.804
549.183
539.236
577.356
572.332
607.327
572.961
1594.96
576.732
837.617
630.763
788.13
1198.73
1710.84
1795.95
1171.18
1775.39
1038.21
1218.01
1224.58
1062.84
699.284
1194.42
686.568
727.567
843.769
928.669
838.468
727.431
955.41
2585.82
2554.1
2479.53
2296.53
2417.61
2447.53
2513.71
2374.48
2455.56
2569.68
2498.19
2398.3
2359.19
2375.78
2310.9
2501.27
2381.58
2573.71
2723.73
2535.61
2524.96
2497.09
2323.04
2574.1
2588.78
2476.23
2419.78
2436.42
2582.13
2501.02
2225.61
2426.62
2482.5
2416.29
2512.1
2619.43
2595.63
2689.33
2363.69
2454.97
2465.24
2436.57
2530.46
2474.2
2461.2
2427.54
2432.06
2435.4
2479.07
2408.55
2475.72
2580.04
2547.63
2680.95
2672.77
2652.66
2652.59
2307.24
2381.78
2560.31
2443.13
2306.94
1962.11
1840.09
2258.86
2530.48
2332.7
2490.36
2495.45
2401.52
2165.68
2087.41
2368.06
2668.75
2692.37
2601.84
2220.8
2413.96
2576.04
2248.78
1847.97
1547.27
1431.45
1968.89
2375.6
2484.99
2446.11
2409.97
2003.82
1819.3
1893.09
2044.64
2555.6
2674.4
2570.72
2112.29
2355.98
2463.62
2021
1686.98
1452.66
1467.91
1500.04
1703.56
2279.07
2450.6
2098.27
1635.29
1625.83
1911.78
2002.9
2453.44
2634.85
2539.45
2035.59
2285.99
2386.97
2184.13
1970.13
1610.78
1889.2
1306.36
1325.53
1580.55
2091.1
1389.83
1285.09
1986.22
2410.01
2512.75
2605.82
2495.29
2512.17
1820.9
2213.69
2225.89
1999.02
2174.75
1590.24
2218.27
1619.79
1262.65
1275.18
1365.07
1383.74
1652.19
2417.94
2498.04
2467.26
2468.47
2467.76
2481.48
663.987
425.646
502.479
700.82
1238.9
1434.07
1921.25
1792.09
1532.77
1691.91
1938.47
2022.17
2070.08
1662.95
1227.75
1612.87
1278.06
1470.03
1547.95
1388.06
1707.26
1870.8
2148.38
221.754
522.968
941.189
1179.22
1665.39
1820.73
1531.83
1796.78
1899.25
1744.5
1652.71
1927.49
1831.2
1746.2
1677.78
1855.41
1580.22
1641.31
1970.22
2028.71
2072.55
1974.34
2156.83
255.424
857.971
1066.63
1104.76
1073.33
1609.25
1177.17
1421.12
1494.9
1848.32
1501.06
1780.72
1837.48
1585.31
1566.55
1861.42
1704.79
1983.81
1989.83
2006.79
2062.21
1973.73
1993.73
434.26
1012.69
1101.37
853.42
440.621
939.928
1581.98
1679.17
1458.34
1471.49
820.624
1391.86
1564.31
1762.62
1810.43
1755.16
1776.19
1693.19
1869.76
2034.01
2083.07
2046.1
1876.52
287.257
560.273
441.62
980.026
439.012
230.037
893.211
1248.29
597.724
386.514
597.691
1260.55
1331.56
1830.72
1395.89
1852.13
1931.23
1934.87
1834.26
1879.34
1913.31
1853.14
2038.04
132.833
83.2623
68.8335
235.728
58.7078
72.8164
212.32
444.971
127.749
504.37
1150.48
1279.29
729.991
1022.34
332.033
1131.62
1790.35
1854.72
1775.96
1461.19
1215.72
1019.21
1357.68
54.8543
37.5186
36.5372
41.4162
35.302
37.6119
49.1186
83.5151
42.9731
176.03
770.086
1587.18
585.393
217.7
162.271
566.228
1235.24
1463.45
1194.2
897.358
556.662
473.264
591.125
34.8963
31.8365
29.7263
29.3773
27.7122
26.714
27.1596
28.531
25.6102
28.0235
123.65
1136.08
159.482
93.8591
145.566
357.122
685.4
812.071
706.01
423.015
303.154
296.445
371.371
30.9462
29.1053
27.481
26.9303
25.8688
24.3127
23.3739
25.6434
28.4463
38.428
56.2058
155.79
64.202
90.9337
126.032
182.836
243.482
240.487
239.633
153.23
158.104
232.373
261.67
26.0562
25.1091
24.4844
23.4443
22.7146
22.2874
22.0645
21.6024
22.132
23.2321
22.611
34.9518
44.0795
76.3507
90.5843
98.3579
118.614
123.697
98.4442
103.247
136.108
164.225
180.096
24.4841
22.3605
21.7492
21.3068
20.8863
20.9017
21.3706
24.9478
24.7493
14.3974
19.4368
44.7859
44.0979
36.6497
65.652
72.3143
116.273
104.103
72.6836
101.057
153.779
177.769
219.804
23.0563
21.4478
21.1055
20.8426
20.7355
19.8863
19.3293
19.4959
20.5244
11.6785
15.5561
24.5699
36.1123
58.2009
47.7837
61.8954
74.2973
70.5693
62.5562
85.2364
131.093
137.941
105.199
21.2502
20.3998
19.8289
19.9925
19.661
19.7663
18.3876
17.205
16.8379
18.196
14.9777
18.4562
27.2198
20.1616
33.8738
49.5298
34.5483
54.5794
87.1895
107.56
129.156
154.541
167.053
20.459
19.6422
19.5834
18.9955
18.141
17.9637
16.2056
13.9215
16.5613
14.7324
13.2852
15.2684
24.3896
19.4603
17.2678
5.87501
14.7115
45.2727
49.7998
57.3847
68.4774
82.6375
88.4726
18.4983
18.3636
18.2509
17.492
18.6157
18.0031
18.1996
14.5242
13.9695
12.4712
10.1985
10.1187
20.2552
20.8776
13.6809
9.84528
23.5737
33.8574
36.6437
37.6192
40.5313
44.4096
43.0525
18.5155
18.0057
17.554
16.8932
15.1787
14.9419
14.3314
9.70734
12.0704
10.213
3.44541
2.23973
11.5911
13.562
14.4941
11.3445
11.2398
8.43604
0.274118
-0.410332
-1.47022
-2.03558
-5.96885
16.3107
16.2733
16.6633
14.8655
8.08698
9.39189
8.57814
7.73682
8.80919
8.68649
2.56343
-0.338233
9.39843
8.27195
8.11288
7.42256
6.59561
-11.7212
-10.441
-8.38026
-4.85398
-5.09274
-4.87254
13.7109
14.4018
14.3385
15.454
5.29521
4.64893
5.95061
3.30957
4.02172
6.00835
3.1526
-2.66311
3.08787
4.42485
2.58934
2.0405
-6.72884
-7.58171
-9.31786
-6.71006
-5.42971
-5.95604
-5.6124
9.9957
11.9573
10.7966
13.6884
4.76693
1.19847
2.91587
1.94511
0.572574
1.73233
0.899851
-2.63557
-3.13008
0.610358
-3.01556
-4.41702
-6.96034
-9.7528
-10.4448
-9.26061
-8.92493
-8.41513
-7.06654
4.08726
4.37517
4.88621
8.38834
2.75387
-0.140346
0.0685394
1.32721
0.206707
-0.382583
-1.28164
-4.68511
-6.83852
-8.25855
-7.36006
-6.70046
-6.65367
-8.99118
-11.7257
-10.5101
-11.0244
-9.26242
-6.38006
1.24871
0.336905
0.542415
4.41079
2.94771
-2.30466
-1.29951
0.353907
-0.532701
-1.11882
-1.94026
-3.46382
-6.0638
-7.84811
-7.71706
-7.55816
-7.25948
-8.37391
-9.47411
-8.73309
-10.7552
-9.78221
-6.49662
-0.889633
-2.88125
-1.03848
-1.04258
-2.70286
-0.897671
-2.75128
-1.89339
-1.78965
-2.38633
-3.35964
-4.11324
-5.25632
-6.36341
-6.85084
-7.09202
-7.30775
-7.63101
-8.70211
-7.99527
-8.02958
-7.9226
-7.33015
-2.13191
-5.25794
-5.17619
-4.57263
-4.98583
-5.32221
-4.52004
-3.45833
-3.668
-3.55724
-3.79322
-4.41332
-5.48772
-6.3001
-6.43777
-6.69391
-7.07609
-7.66039
-7.29305
-6.98844
-7.16884
-6.58252
-6.48498
-1.27688
-2.27299
-3.74345
-3.78858
-6.39738
-4.41222
-7.32753
-4.56709
-4.63288
-4.27657
-4.23421
-4.90839
-5.34209
-5.56709
-6.3728
-6.81054
-6.41205
-6.07261
-5.88857
-5.94385
-6.29432
-5.83934
-5.92554
-1.86173
-1.29303
-1.29343
-2.92711
-5.54176
-5.5316
-5.40884
-4.62609
-4.70779
-4.42221
-4.64745
-5.10275
-5.0494
-5.51157
-5.80804
-5.45429
-6.14177
-6.45798
-5.6338
-5.75217
-5.78367
-5.68439
-5.30672
-2.51558
-1.8732
-1.96098
-3.30358
-4.77793
-4.65196
-5.03001
-4.64912
-4.74643
-4.64529
-4.70731
-4.70041
-4.89855
-5.05721
-5.8824
-5.61835
-5.78456
-5.74223
-5.48333
-5.53074
-5.66139
-5.44402
-5.25557
-1.56465
-2.18791
-3.0361
-3.5571
-3.74452
-3.79328
-4.20929
-4.36198
-4.73114
-4.39336
-4.60141
-4.73006
-4.83928
-5.57059
-5.42289
-5.42123
-5.28346
-5.32165
-5.30565
-5.34775
-5.519
-5.4536
-5.07317
-2.47877
-2.59461
-3.22464
-3.32586
-3.45709
-3.49697
-4.26084
-4.57481
-4.15021
-4.4926
-4.88822
-4.70435
-4.93701
-4.89007
-5.46771
-5.11135
-5.21606
-5.18793
-5.1867
-5.08124
-5.50147
-5.49176
-5.04705
-3.14382
-3.07057
-3.04341
-3.27168
-3.49774
-3.92267
-4.16514
-4.04738
-4.118
-4.56541
-4.67582
-4.66799
-4.87571
-4.96243
-5.08681
-5.09998
-5.1082
-5.10574
-5.12007
-5.15889
-5.27826
-5.26036
-4.97549
-3.18667
-3.21131
-3.20029
-3.33793
-3.48726
-3.72624
-3.91724
-4.02361
-4.35383
-4.33194
-4.95601
-4.80193
-4.79233
-4.88114
-4.85976
-5.34832
-4.99895
-5.03272
-5.05104
-5.03376
-5.14818
-5.03565
-4.84665
-3.2809
-3.33574
-3.36209
-3.45595
-3.55866
-3.69609
-3.95056
-4.13956
-4.35144
-4.55745
-4.43276
-4.83852
-4.77188
-4.92766
-5.19673
-4.95427
-4.96564
-4.99336
-5.00227
-4.91048
-5.20093
-5.19307
-4.95103
-3.51946
-3.50318
-3.54762
-3.6153
-3.74707
-3.70287
-3.99595
-4.09072
-4.55206
-4.88679
-4.67665
-4.93119
-4.75611
-4.89852
-5.04303
-4.90418
-4.99532
-5.01756
-5.03841
-5.06955
-5.10716
-5.09032
-4.91107
-3.71807
-3.71554
-3.77817
-3.8824
-4.1254
-4.14936
-4.41957
-4.51094
-4.55212
-4.48489
-4.62241
-4.73357
-4.60214
-4.93761
-5.11618
-4.88978
-4.91679
-5.10196
-5.01503
-5.02588
-5.02884
-5.03603
-5.03395
-3.93349
-3.98227
-3.99627
-4.03107
-4.07341
-4.15907
-4.35952
-4.51848
-4.72045
-4.61809
-4.81777
-4.92858
-4.86931
-4.764
-5.02155
-5.0706
-4.9652
-5.04145
-5.01337
-5.06729
-5.02953
-5.01849
-5.04009
-4.08782
-4.12489
-4.11406
-4.13084
-4.20468
-4.18188
-4.49625
-4.65997
-4.51054
-4.65288
-4.85513
-4.93439
-4.89274
-5.051
-4.974
-4.88628
-5.04857
-5.1782
-4.96709
-5.18667
-5.17708
-5.07876
-5.1342
-4.30226
-4.3096
-4.33912
-4.34825
-4.50167
-4.51556
-4.49642
-4.59472
-4.62171
-4.81987
-5.02168
-4.9271
-5.04354
-5.00208
-5.01121
-5.10524
-5.02492
-5.1977
-5.18223
-5.25288
-5.12247
-5.15703
-5.15861
-4.48882
-4.47687
-4.54785
-4.60058
-4.47413
-4.65735
-4.94287
-4.89008
-4.89685
-4.96752
-4.97627
-5.0106
-5.08419
-5.09745
-5.14748
-5.15231
-5.18058
-5.17778
-5.29827
-5.27585
-5.17249
-5.24371
-5.24683
-4.70736
-4.67026
-4.77655
-4.93674
-4.9998
-4.98483
-4.9217
-4.96627
-5.0647
-4.99249
-5.18947
-5.12216
-5.17612
-5.15364
-5.2662
-5.29379
-5.17544
-5.34746
-5.39588
-5.26229
-5.30381
-5.26399
-5.36337
-4.91791
-4.76664
-4.93085
-5.03754
-5.05745
-5.09685
-5.13116
-5.10094
-5.24833
-5.18969
-5.35682
-5.2575
-5.26411
-5.4095
-5.38804
-5.28338
-5.38263
-5.32202
-5.46194
-5.36235
-5.39028
-5.42311
-5.41797
-5.20612
-5.36322
-5.26095
-5.15442
-5.15488
-5.27411
-5.2743
-5.27813
-5.31237
-5.40055
-5.41577
-5.37683
-5.38671
-5.47951
-5.36466
-5.43381
-5.43368
-5.54156
-5.48429
-5.50285
-5.53397
-5.48117
-5.51335
-5.40072
-5.44548
-5.38618
-5.37594
-5.40805
-5.42348
-5.55747
-5.66463
-5.36432
-5.6512
-5.38683
-5.56508
-5.61612
-5.51361
-5.51026
-5.54077
-5.57349
-5.50275
-5.62151
-5.54182
-5.61937
-5.55801
-5.58514
-5.40003
-5.65277
-5.36937
-5.41083
-5.64631
-5.47013
-5.60872
-5.46907
-5.75376
-5.51322
-5.68129
-5.70091
-5.54208
-5.63279
-5.699
-5.76825
-5.73022
-5.70213
-5.69727
-5.68531
-5.68662
-5.67246
-5.67289
2102.33
2084.88
1878.38
1776.48
2134.92
2127.07
2091.33
2024.43
1898.24
1860.15
1849.94
1835.35
1872.21
1828.19
1943.29
1937.27
1994.1
1931.19
1811.1
1640.11
1454.26
1124.62
898.165
840.972
583.095
508.088
509.06
555.837
339.866
341.648
410.211
459.259
298.713
380.829
457.872
494.147
216.391
274.245
340.245
399.842
263.749
291.241
300.521
315.187
154.437
181.76
199.823
223.407
190.762
209.41
231.352
248.118
101.261
100.918
107.632
116.384
51.0927
54.7333
57.3626
58.596
-2.6836
-2.15664
-0.641076
-0.404568
-4.72321
-4.61839
-4.39769
-4.00635
-5.03426
-4.6928
-4.37556
-3.75872
-6.09795
-5.00223
-4.69277
-4.26268
-5.28986
-4.84832
-4.26217
-4.17326
-5.36518
-4.94947
-4.65793
-4.57135
-6.12659
-5.34975
-5.15128
-4.81264
-5.80742
-5.7363
-5.37835
-5.32972
-5.53813
-5.24994
-5.22911
-5.12608
-5.05015
-4.91006
-4.99676
-5.11224
-5.113
-4.95292
-4.74181
-4.8499
-5.00357
-4.99957
-4.9754
-4.91637
-5.04691
-5.072
-5.06083
-4.95526
-4.97725
-5.02678
-4.9564
-4.89379
-4.98533
-4.98796
-4.92836
-4.90969
-4.97264
-4.88801
-4.91312
-4.93536
-4.98439
-4.99287
-4.98259
-5.00472
-5.03263
-5.02697
-4.97495
-4.96475
-5.0251
-5.04451
-5.07684
-5.06082
-5.12902
-5.10927
-5.0747
-5.10248
-5.22044
-5.25744
-5.16354
-5.19176
-5.25458
-5.25601
-5.22798
-5.25744
-5.31013
-5.32926
-5.33506
-5.33734
-5.37968
-5.39205
-5.39418
-5.40617
-5.49289
-5.50049
-5.49391
-5.50097
-5.58826
-5.57943
-5.58945
-5.58482
-5.68841
-5.68235
-5.68834
-5.68936
2234.94
2185.59
1984.26
1921.95
1981.42
2267.92
2347.34
2367.87
1872.51
1709.97
1768.67
2271.16
2439.48
2431.36
2403.64
2383.19
2269.55
2347.13
2434.67
2105.07
1972.71
2049.1
1953.73
1967.42
2070.91
2167.36
2197.92
1902.61
2121.4
2059.25
2180.74
2330.95
2411.57
2418.54
2344.53
2222.48
2231.76
2376.2
1844.96
2145.44
1955.98
2120.11
1967.31
1783.84
1361.5
1580.77
2164.34
2235.08
2259.4
2145.26
1801.81
1960.67
2093.42
2107.14
2290.13
2364.58
2384.65
2073.65
1708.54
1298.7
1639.36
1117.04
986.056
781.873
957.125
1736.25
2008.1
1881
1526.68
1572.8
1971.83
2091.43
1670.29
1790.64
2153.4
2423.12
1320.68
936.029
849.553
880.76
759.043
686.501
727.213
984.489
1063.18
1228.03
1496.95
1701.18
1981.28
2301.23
2166.57
1382.68
1213.16
1799.49
2379.13
834.78
750.737
680.301
649.311
619.674
701.649
993.4
1251.85
1459.55
1705.33
2023.21
2233.06
2231.78
2305.73
2091.11
1205.81
1253.12
2255.55
2305.9
571.495
580.037
588.761
601.385
627.015
822.788
1123.37
1367.89
1693.04
1944.75
2066.78
2298.98
2240.2
2173.38
2061.61
1480.79
1324.93
2206.54
2159.31
426.349
431.72
495.433
520.083
706.176
876.579
1053.54
1304.06
1667.23
1905.17
1984.11
2233.3
2205.39
2052.8
2101.16
1706.47
1242.59
2155.65
2073.33
491.489
467.842
428.603
448.313
546.869
754.252
1061.45
1417.08
1556.37
1656.54
1844.62
2240.99
2111.33
2070.12
2196.65
2196.95
2032.75
2144.38
1994.31
416.869
481.341
438.67
454.289
884.839
1235.32
1406.08
1516.86
1513.82
1624.05
1749.75
2069.19
2178.52
2171.63
2152.39
2137.41
2139.18
2165.37
1960.62
377.923
476.134
440.586
793.364
1109.89
1326.86
1308.3
1335.7
1363.5
1292.39
1373.43
1647.44
1726.96
1803.64
1817.16
1994.53
1996.01
2017.43
2028.85
281.717
337.533
412.783
427.232
658.612
910.721
962.517
795.744
890.739
882.136
1097.87
1051.88
1105.94
1211.63
1364.2
1656.52
1972.3
2007.73
2038.69
274.295
352.214
413.702
489.484
519.603
433.408
426.069
289.846
279.731
243.526
350.476
391.616
523.338
743.739
1013.21
1193.63
1603.18
1728.26
1796.57
98.3776
88.594
105.696
138.033
138.47
128.8
122.593
94.7124
68.8078
49.062
73.2202
110.584
123.586
266.206
524.561
691.053
995.847
1154.57
1221.52
65.6281
73.0267
58.3596
54.2177
29.9989
28.6232
18.0032
11.576
14.0135
9.15471
16.2028
19.9817
15.4354
40.2473
133.217
239.82
408.787
501.727
578.642
1.75481
0.43794
-1.96317
-2.43794
-1.72197
-2.03983
-0.725005
-2.84743
-1.57279
-2.45623
-0.970764
-1.72541
-2.42486
-4.20347
12.0041
18.0377
78.3345
127.226
147.175
-3.39041
-3.64119
-3.86511
-3.74847
-3.4713
-2.66124
-3.39666
-2.72046
-2.07224
-2.47567
-2.73627
-2.72893
-2.74397
-3.52589
-4.38517
-5.67582
4.87875
23.2806
22.5291
-3.38314
-3.30143
-3.243
-3.5258
-3.32758
-3.22806
-2.93891
-3.09085
-2.90901
-3.05592
-2.73677
-2.68229
-2.48074
-2.4781
-2.4092
-2.07469
0.210808
4.4429
4.0548
-3.75164
-3.62704
-3.57883
-3.4451
-3.44503
-3.31515
-3.30493
-3.12645
-3.08892
-3.08941
-2.89867
-2.83134
-2.78342
-2.66115
-2.68477
-1.78589
0.178726
0.866759
1.49753
-3.71994
-3.68394
-3.54678
-3.59958
-3.69107
-3.41534
-3.39519
-3.19179
-3.13558
-3.16088
-3.25099
-3.09377
-2.965
-2.92341
-2.61915
-3.14037
-0.946023
-0.864526
0.363222
-4.74569
-4.10449
-4.26606
-3.82552
-3.89517
-3.62728
-3.79064
-3.60179
-3.53357
-3.34024
-3.40322
-3.19733
-3.21549
-3.212
-3.38976
-3.33732
-2.48006
-2.68143
-1.36717
-4.60407
-4.39035
-4.25089
-4.04316
-3.80154
-4.0294
-3.93135
-3.77541
-3.75532
-3.65397
-3.52466
-3.5897
-3.40833
-3.33286
-3.42396
-3.62293
-3.85024
-4.18622
-2.83676
-4.8247
-4.55495
-4.03359
-4.12457
-4.02466
-4.04815
-3.75494
-3.84303
-3.73509
-3.49032
-3.67946
-3.53468
-3.6644
-3.68592
-3.67831
-3.8899
-4.09536
-4.57112
-3.19756
-4.71577
-4.69591
-4.68355
-4.20441
-4.10092
-3.94779
-4.00487
-4.00518
-3.9265
-3.76687
-3.79424
-3.75102
-3.67275
-3.85565
-3.68278
-3.77685
-3.86564
-4.08603
-3.38374
-4.83242
-4.58888
-4.54892
-4.43109
-4.22391
-4.11159
-4.01209
-3.90926
-3.99771
-3.83305
-3.91436
-3.89177
-3.75364
-3.79382
-3.82874
-3.70485
-3.72556
-3.93647
-3.31521
-4.90127
-4.85347
-4.31454
-4.52826
-4.33146
-4.27086
-4.51857
-4.361
-4.18064
-4.10165
-3.91112
-4.04508
-4.08269
-4.14422
-4.14322
-4.14515
-3.79751
-3.9815
-3.60382
-4.83758
-4.84666
-4.74526
-4.6012
-4.48392
-4.26091
-4.34638
-4.29624
-4.4417
-4.54047
-4.37428
-4.1849
-4.32442
-4.36442
-4.37804
-4.26225
-4.27069
-4.10228
-4.0194
-4.75744
-4.62406
-4.76548
-4.6929
-4.79552
-4.63855
-4.38668
-4.32246
-4.27516
-4.29502
-4.27288
-4.47529
-4.33445
-4.1589
-4.32359
-4.47646
-4.2919
-4.17721
-4.07897
-4.85165
-4.7714
-4.79218
-4.69745
-4.62314
-4.40581
-4.54955
-4.46262
-4.44079
-4.52591
-4.40266
-4.37385
-4.27744
-4.26017
-4.22076
-4.37753
-4.43603
-4.25813
-4.08004
-4.86639
-4.79518
-4.63506
-4.98356
-4.73775
-4.63476
-4.61217
-4.56507
-4.74529
-4.50858
-4.7853
-4.65221
-4.7647
-4.47973
-4.44678
-4.40056
-4.55132
-4.36587
-4.27905
-5.03931
-4.82722
-4.83625
-4.78366
-4.78245
-4.90986
-4.65242
-4.83931
-4.52465
-4.61687
-4.71322
-4.69934
-4.58079
-4.94494
-4.57577
-4.58241
-4.60923
-4.41209
-4.37649
-4.87435
-5.0292
-4.74955
-4.84504
-4.9367
-4.79186
-5.00021
-4.82066
-4.76805
-4.72088
-4.96327
-4.98313
-4.85227
-4.76904
-4.73506
-4.71019
-4.86259
-4.77452
-4.34773
-4.95613
-5.03872
-4.99999
-4.87401
-4.85539
-4.9642
-4.78798
-4.97531
-4.86751
-5.06426
-4.65267
-4.68845
-4.85278
-4.74192
-5.13316
-4.83853
-4.87958
-4.7679
-5.27098
-5.02495
-5.11856
-4.9732
-5.1093
-4.96958
-4.90569
-4.95434
-4.83249
-4.9262
-4.84986
-4.8781
-4.92165
-5.00568
-4.9491
-4.96431
-5.02353
-5.15704
-5.16949
-5.08968
-5.0529
-5.1299
-5.15936
-5.03758
-5.07036
-5.14344
-5.01768
-5.06739
-4.98981
-5.04195
-5.00555
-4.99695
-5.03211
-5.08756
-5.22448
-5.20179
-5.23594
-5.31307
-5.13858
-5.20316
-5.1759
-5.1184
-5.26467
-5.14735
-5.05929
-5.07917
-5.20957
-5.32973
-5.12975
-5.08494
-5.09946
-5.18979
-5.11796
-4.96122
-5.31293
-4.99829
-5.33111
-5.11648
-5.26244
-5.27851
-5.26062
-5.18155
-5.29362
-5.34655
-5.32908
-5.23861
-5.14865
-5.30337
-5.44798
-5.28381
-5.2219
-5.15215
-5.03891
-5.06772
-5.15708
-5.0987
-5.18684
-5.29866
-5.3518
-5.33773
-5.32974
-5.47844
-5.26166
-5.32552
-5.37858
-5.35775
-5.33891
-5.23589
-5.36344
-5.39463
-5.5658
-5.48642
-5.36504
-5.34943
-5.28637
-5.38687
-5.44069
-5.43642
-5.43509
-5.46419
-5.38598
-5.4297
-5.51023
-5.46443
-5.42097
-5.47589
-5.47285
-5.50154
-5.47588
-5.51748
-5.44714
-5.30142
-5.3913
-5.37979
-5.42464
-5.47908
-5.50496
-5.56157
-5.52448
-5.53267
-5.49626
-5.51503
-5.49191
-5.4998
-5.54641
-5.46889
-5.57188
-5.62498
-5.65453
-5.75795
-5.83679
-5.53175
-5.50903
-5.59883
-5.61743
-5.60293
-5.64011
-5.62852
-5.63621
-5.76217
-5.6425
-5.83852
-5.63639
-5.65604
-5.95452
-5.64647
-5.7319
-5.88208
-5.98242
-6.05087
-6.10297
-6.14571
-5.9547
-5.67764
-5.72084
-5.69899
-5.71371
-5.82551
-5.70016
-5.93018
-5.74996
-5.96753
-5.99491
-5.84945
-6.04589
-6.07518
-5.87159
-5.82193
-5.85594
-5.97674
-6.02096
-6.13678
)
;

boundaryField
{
    leftWall
    {
        type            calculated;
        value           nonuniform List<scalar> 
50
(
1778.99
1878.9
1948.7
1911.05
1869.89
1799.08
1729.98
1594.96
663.987
221.754
255.424
434.26
287.257
132.833
54.8543
34.8963
30.9462
26.0562
24.4841
23.0563
21.2502
20.459
18.4983
18.5155
16.3107
13.7109
9.9957
4.08726
1.24871
-0.889633
-2.13191
-1.27688
-1.86173
-2.51558
-1.56465
-2.47877
-3.14382
-3.18667
-3.2809
-3.51946
-3.71807
-3.93349
-4.08782
-4.30226
-4.48882
-4.70736
-4.91791
-5.20612
-5.40072
-5.40003
)
;
    }
    rightWall
    {
        type            calculated;
        value           nonuniform List<scalar> 
50
(
2723.73
2689.33
2652.59
2601.84
2570.72
2539.45
2512.17
2481.48
2434.67
2376.2
2384.65
2423.12
2379.13
2305.9
2159.31
2073.33
1994.31
1960.62
2028.85
2038.69
1796.57
1221.52
578.642
147.175
22.5291
4.0548
1.49753
0.363222
-1.36717
-2.83676
-3.19756
-3.38374
-3.31521
-3.60382
-4.0194
-4.07897
-4.08004
-4.27905
-4.37649
-4.34773
-5.27098
-5.08968
-5.13858
-5.11648
-5.18684
-5.38687
-5.42464
-5.59883
-5.9547
-6.13678
)
;
    }
    lowerWall
    {
        type            calculated;
        value           nonuniform List<scalar> 
62
(
1797.81
1951.76
1350.54
1810.05
1537.92
1969.21
1829.08
1897.75
1714.45
814.158
774.861
784.984
779.269
806.983
834.48
842.946
860.683
874.605
885.17
900.094
900.448
926.347
1761.12
1743.02
841.706
759.684
698.469
636.803
581.556
572.961
955.41
2132.53
2117.47
1911.51
1809.94
2585.82
2535.61
2363.69
2307.24
2220.8
2112.29
2035.59
1820.9
2605.25
2573.47
2498.65
2315.25
2435.86
2465.32
2530.85
2391.09
2471.95
2585.54
2514.65
2416.62
2378.23
2395.07
2330.31
2520.74
2401.1
2594.08
2744.05
)
;
    }
    atmosphere
    {
        type            calculated;
        value           nonuniform List<scalar> 
46
(
-5.72904
-5.72904
-5.72904
-5.72904
-5.72904
-5.72904
-5.72904
-5.72904
-5.72904
-5.72904
-5.72904
-5.72904
-5.72904
-5.72904
-5.72904
-5.72904
-5.72904
-5.72904
-5.72904
-5.72904
-5.72904
-5.72904
-5.72904
-5.72916
-5.73057
-5.73147
-5.73298
-5.73715
-5.75496
-5.76197
-5.76853
-5.81298
-5.83353
-5.88165
-5.90644
-5.90959
-5.93538
-6.02657
-5.97221
-6.01677
-5.99912
-6.02403
-6.03659
-6.17779
-6.21107
-6.63321
)
;
    }
    defaultFaces
    {
        type            empty;
    }
}


// ************************************************************************* //
