/*--------------------------------*- C++ -*----------------------------------*\
| =========                 |                                                 |
| \\      /  F ield         | foam-extend: Open Source CFD                    |
|  \\    /   O peration     | Version:     4.1                                |
|   \\  /    A nd           | Web:         http://www.foam-extend.org         |
|    \\/     M anipulation  |                                                 |
\*---------------------------------------------------------------------------*/
FoamFile
{
    version     2.0;
    format      ascii;
    class       volScalarField;
    location    "0.85";
    object      pd;
}
// * * * * * * * * * * * * * * * * * * * * * * * * * * * * * * * * * * * * * //

dimensions      [1 -1 -2 0 0 0 0];

internalField   nonuniform List<scalar> 
2268
(
1797.81
1951.76
1350.54
1810.05
1537.92
1969.21
1829.08
1897.75
1714.45
814.158
774.861
784.984
779.269
806.983
834.48
842.946
860.683
874.605
885.17
900.094
900.448
926.347
1761.12
1931.6
2015.96
1644.93
2065.14
2007.64
1732.51
1648.64
1132.87
697.566
905.107
788.117
776.968
779.45
806.557
829.278
842.528
858.635
879.372
884.383
898.023
901.844
906.203
927.48
2028.65
2021.32
2007.61
1890.71
1946.53
1879.56
1587.87
1183.12
893.965
1878.9
814.077
797.554
763.996
816.321
832.85
841.99
861.438
877.573
886.034
903.249
903.777
906.716
905.44
2018.82
1975.71
1937.03
1823.68
1925.72
1986.5
1526.93
1399.24
1577.88
1980.22
1056.77
777.436
761.445
799.915
817.981
840.976
861.752
882.472
889.172
902.886
904.54
909.952
902.899
1999.74
1941.43
1662.55
1631.53
2067.91
1855.5
1592.2
1536.93
1654.18
1092.85
992.176
784.178
738.685
808.743
843.58
846.492
863.583
882.492
893.623
902.691
904.448
917.828
899.352
1965.28
1129.52
2005.49
1212.68
1385.46
2138.95
1994.09
1581.13
1504.55
1089.04
850.942
790.764
767.132
771.309
877.68
934.453
866.863
893.968
899.81
906.102
910.016
925.831
900.086
1931.34
1330.35
1696.82
889.727
1533.81
2063.58
2172.73
1770.22
1348.54
1246.45
822.879
937.125
906.877
945.129
887.197
1226.42
914.256
919.792
912.768
941.89
940.722
976.011
938.707
1790.61
641.034
922.746
698.023
866.699
1311.22
1872.82
2068.17
1504.52
2051.2
1383.23
1551.6
1552.57
1415.7
1089.29
1543.93
1083.47
1123.38
1226.19
1302.96
1224.26
1129.32
1320.8
2605.25
2573.47
2498.65
2315.25
2435.86
2465.32
2530.85
2391.09
2471.95
2585.54
2514.65
2416.62
2378.23
2395.07
2330.31
2520.74
2401.1
2594.08
2744.05
2593.87
2582.71
2553.09
2375.76
2622.52
2634.72
2521.32
2466.34
2483.43
2629.21
2552.01
2279.97
2482.25
2536.73
2468.87
2568.92
2671.93
2655.39
2749.18
2460.72
2551.02
2557.61
2517.62
2601.59
2539.37
2528.04
2504.58
2512.42
2518
2564.54
2493.99
2554.78
2646.71
2613.9
2757.82
2750.83
2747.37
2751.12
2442.83
2513.57
2676.1
2538.64
2389.66
2025.28
1898.12
2342.93
2639.38
2447.14
2607.04
2606.79
2493.19
2233.42
2150.04
2441.71
2770.54
2818.97
2738.22
2394.34
2577.37
2710.81
2351.22
1924.12
1609.67
1487.98
2051.48
2495.69
2623.26
2590.39
2530.67
2087.92
1890.83
1964.6
2122.83
2679.77
2832.74
2744.14
2323.02
2547.35
2611.13
2127.49
1771.77
1525.13
1539.32
1573.73
1786.28
2411.32
2607.79
2212.27
1715.77
1702.24
2002.77
2095.76
2589.26
2825.6
2749.79
2281.52
2502.29
2560.04
2327.84
2094.1
1708.66
2006.07
1381.46
1398.52
1672.08
2223.22
1467.9
1357.68
2105.16
2567.93
2679.33
2797.78
2728.45
2759.76
2099.66
2439.9
2403.14
2146.31
2342.38
1703.59
2395.4
1732.65
1343.85
1357.11
1452.71
1473.62
1765.67
2616.58
2738.76
2712.86
2727.98
2744.6
2766.44
746.317
487.192
572.611
790.497
1380.04
1594.97
2162.54
2116.51
1896.36
2037.25
2234.42
2318.18
2324.34
2026.36
1638.38
1987.54
1685.68
1857.83
1928.81
1785.62
2069.61
2204.77
2413.53
260.634
613.445
1083.96
1350.09
1906.15
2096.35
1750.2
2175
2222.37
2139.77
1886.2
2216.94
2088.39
2176.88
2115.25
2270.95
2036.14
2087.24
2352.06
2357.47
2392.21
2293.8
2468.69
311.901
1018.8
1257.56
1301.2
1267.22
1893.39
1388.26
1667.91
1757.25
2250.89
1759.01
2090.55
2153.15
2116.27
2088.16
2352.25
2221.12
2431.19
2380.02
2387.43
2448.94
2386.55
2424.84
548.114
1229.19
1334.49
1047.74
564.47
1149.13
1914.01
2044.13
1764.57
1796.11
1001.03
1675.66
1878.42
2315.1
2324.68
2307.84
2354.09
2256.15
2341.78
2467.63
2520.94
2519.54
2384.16
392.476
726.821
586.079
1227.72
582.721
321.43
1128.8
1547.99
771.414
508.143
766.673
1557.75
1641.87
2293.43
1736.8
2325.8
2505.41
2532.06
2376.73
2338.06
2355.89
2310.78
2528.86
204.538
134.986
111.807
344.42
96.4303
119.559
314.189
607.072
195.943
678.391
1463.67
1619.88
949.875
1298.92
447.74
1425.77
2278.65
2390.62
2244.01
1830.36
1521.62
1281.74
1687.5
95.7985
63.9609
59.3883
70.6309
57.8719
64.0603
87.8222
143.187
75.239
278.322
1037.18
2140.13
792.638
316.046
232.348
767.099
1592.42
1882.1
1533.85
1172.89
744.592
636.201
777.443
61.1053
53.8074
47.669
47.8826
43.5097
40.8909
43.4304
47.0778
36.6291
46.5012
212.126
1580.76
248
143.511
225.382
518.612
937.644
1098.99
955.581
598.163
434.787
425.825
521.877
53.0794
50.2311
45.8495
45.1211
41.5918
36.7519
34.3981
39.5364
52.1436
78.8414
118.951
269.814
111.045
142.662
206.748
293.499
375.956
378.864
369.513
242.429
240.212
346.026
394.068
47.1783
43.522
40.2219
35.7045
33.4299
32.5521
30.7668
30.2085
36.7113
48.8512
56.9974
78.8005
89.3525
138.277
163.079
175.997
199.778
206.958
176.39
174.776
216.795
254.706
283.731
44.4944
35.8107
30.7343
26.8992
27.7291
30.1054
30.9155
38.1353
44.3076
39.7807
52.2444
87.6254
95.1787
96.8629
131.901
147.296
194.35
183.932
153.834
187.337
253.999
297.036
364.385
40.9114
30.8446
26.0582
27.6069
28.8343
28.876
28.9592
31.5381
35.3527
29.0139
41.7133
59.9223
81.3055
116.761
112.46
128.779
141.362
135.015
127.992
164.751
225.765
251.019
235.076
36.0503
27.0391
25.0462
26.8179
27.0373
27.243
26.3318
26.9483
28.1632
32.152
34.8426
47.9568
69.2349
70.4381
86.4426
102.239
86.9846
118.031
173.554
212.57
253.122
298.403
330.137
31.1945
25.2331
25.1156
26.2473
26.3514
28.0445
28.2846
27.7976
32.3113
32.4682
37.2518
45.9068
60.5961
57.5703
53.8801
38.1488
44.6604
100.553
125.056
147.867
170.97
194.19
205.669
27.2475
23.2776
23.618
26.3236
34.0148
37.6855
39.8099
36.9765
36.9338
35.2514
34.8077
37.4482
47.8308
47.3291
42.1465
50.5935
79.4309
101.839
114.182
121.382
128.462
135.458
136.914
25.2227
23.2056
25.8412
34.7476
39.0591
40.1183
39.4759
33.4318
34.2722
31.8291
25.1979
23.1566
34.1192
40.8739
47.1812
54.7965
61.2824
61.2764
40.6809
27.5594
20.9535
16.8013
10.9656
21.9736
21.8787
27.5199
36.0815
33.2992
35.3548
31.7665
25.4578
25.1493
24.6191
20.9099
21.7301
34.7405
39.1037
44.6383
48.6352
48.6364
21.7561
8.22844
-0.753816
0.152495
-1.11717
-1.16151
18.6451
20.3928
27.2369
37.6891
30.5034
29.1472
23.2668
15.0513
14.4824
17.6965
19.5528
18.9384
29.6136
35.7486
36.5018
35.7669
18.709
5.77417
-3.05474
-2.96375
-1.48206
-1.88497
-2.13155
14.6826
17.9149
23.422
35.568
28.6013
21.5727
13.6614
9.24044
7.8205
11.1129
14.436
16.9414
21.6953
26.9446
23.047
14.9228
6.38866
-0.391355
-3.82782
-3.18813
-2.20283
-1.47227
-2.43791
8.50559
10.34
17.4679
29.1232
24.9141
19.4225
11.051
8.41807
6.30514
5.93794
7.36064
8.51074
9.90727
7.06174
8.25647
5.01385
7.77409
5.77279
0.115336
0.557396
1.21109
0.941282
0.649155
5.45781
6.15793
11.9393
23.2969
23.2164
16.5693
10.0704
8.09133
6.18685
4.91487
3.83242
3.44294
2.61289
-0.566008
1.04122
-2.08835
2.21856
6.68587
4.02624
6.68772
4.9325
2.89391
2.26062
3.0996
2.45111
7.73308
14.8783
14.7552
16.6793
9.11988
5.83593
4.87817
3.78628
2.14359
0.985125
0.146331
-1.5811
-1.62296
-2.90876
-2.586
2.08319
-1.15104
2.9187
2.1214
-0.538204
-2.16535
1.6758
-0.741867
0.848461
7.70051
8.03171
9.62615
6.88373
4.05119
2.00509
1.39293
1.6291
0.490677
-0.993195
-2.36083
-2.40279
-2.831
-3.35698
-2.31138
-2.81525
-2.18532
-2.50615
-2.3819
-2.8978
2.38264
1.8111
0.95365
4.98251
2.42578
5.43512
1.27263
1.80202
0.0227116
-0.447319
0.378557
-0.405787
-1.09444
-1.74887
-2.64008
-3.13212
-2.8207
-2.3152
-2.14232
-2.30581
-2.72342
-2.30614
-2.45969
1.76286
2.5895
2.82049
3.06484
0.797209
0.118179
0.490902
0.452204
-0.547478
-0.736076
-0.782759
-1.08891
-1.10946
-1.74509
-2.10593
-1.81591
-2.5483
-2.84279
-2.02561
-2.15761
-2.20858
-2.1221
-1.7568
1.17684
1.9624
1.95476
1.45471
0.167796
-0.232168
-0.332623
-0.346239
-0.838678
-0.924757
-0.970121
-0.911185
-1.10646
-1.29977
-2.15409
-1.91531
-2.09402
-2.06522
-1.81057
-1.86084
-1.99404
-1.77804
-1.59088
2.23243
1.66828
0.850573
0.636552
0.51415
0.275108
-0.08522
-0.352486
-0.876365
-0.591355
-0.797033
-0.909519
-1.01356
-1.75015
-1.61133
-1.62056
-1.48706
-1.52853
-1.51506
-1.55847
-1.73012
-1.66486
-1.28454
1.43721
1.34246
0.721893
0.722264
0.607864
0.504004
-0.246749
-0.590268
-0.21762
-0.576486
-0.971229
-0.783004
-1.01202
-0.968427
-1.54851
-1.19423
-1.30048
-1.27321
-1.27257
-1.16739
-1.58772
-1.57803
-1.13332
0.895642
0.975525
1.00489
0.805521
0.583028
0.141038
-0.0998867
0.00968594
-0.0737471
-0.525632
-0.636316
-0.627596
-0.833927
-0.921091
-1.04668
-1.0603
-1.06889
-1.06662
-1.08108
-1.11995
-1.23933
-1.22144
-0.936572
0.977564
0.954774
0.966232
0.835444
0.686617
0.443543
0.253091
0.144649
-0.18868
-0.167676
-0.791795
-0.637529
-0.62759
-0.716458
-0.695345
-1.18407
-0.83477
-0.868579
-0.886916
-0.86965
-0.984068
-0.871539
-0.682539
1.00843
0.954039
0.92777
0.835284
0.732608
0.5943
0.340013
0.150571
-0.0619511
-0.268114
-0.143446
-0.549151
-0.482439
-0.638245
-0.907353
-0.664948
-0.676328
-0.704057
-0.712964
-0.621176
-0.911624
-0.903768
-0.661728
0.895041
0.911414
0.866996
0.79955
0.667774
0.711811
0.418764
0.323917
-0.137533
-0.472284
-0.262149
-0.516679
-0.341588
-0.484004
-0.628522
-0.489682
-0.580818
-0.60306
-0.623909
-0.65505
-0.69266
-0.675827
-0.496576
0.821627
0.824167
0.761542
0.65735
0.414352
0.390365
0.120143
0.0287737
-0.0124204
0.0548048
-0.0827183
-0.193874
-0.0624466
-0.397913
-0.576483
-0.350092
-0.377098
-0.562264
-0.475336
-0.486186
-0.489153
-0.496342
-0.494256
0.731395
0.682624
0.668625
0.633828
0.591481
0.505816
0.30537
0.146413
-0.055559
0.0467962
-0.152883
-0.263691
-0.204421
-0.0991163
-0.356659
-0.405717
-0.30031
-0.376568
-0.348483
-0.402407
-0.36464
-0.353605
-0.375208
0.70226
0.665191
0.676024
0.659246
0.585407
0.6082
0.293836
0.130107
0.279544
0.137206
-0.0650499
-0.144312
-0.102662
-0.260922
-0.183921
-0.0961961
-0.258488
-0.388118
-0.177012
-0.396586
-0.386995
-0.288677
-0.344124
0.613017
0.605681
0.576157
0.567025
0.41361
0.39972
0.418857
0.320555
0.293565
0.095405
-0.106402
-0.0118285
-0.12826
-0.0868052
-0.0959297
-0.189965
-0.109643
-0.282421
-0.266955
-0.337602
-0.207195
-0.241757
-0.243337
0.551654
0.563597
0.492621
0.439893
0.566344
0.38312
0.0975959
0.150385
0.143619
0.0729468
0.0642003
0.0298736
-0.043715
-0.0569787
-0.107014
-0.111836
-0.140108
-0.137308
-0.257805
-0.235383
-0.132019
-0.203237
-0.20636
0.458309
0.495403
0.389113
0.228928
0.165863
0.180832
0.243962
0.199395
0.100968
0.173172
-0.0238049
0.0435015
-0.0104578
0.0120226
-0.100537
-0.128124
-0.00977418
-0.1818
-0.230214
-0.0966257
-0.138149
-0.0983281
-0.197707
0.372953
0.524221
0.360005
0.253316
0.233407
0.194013
0.159704
0.189922
0.0425319
0.101168
-0.065965
0.0333553
0.0267491
-0.11864
-0.0971833
0.00747577
-0.0917666
-0.0311609
-0.171078
-0.0714876
-0.0994258
-0.132247
-0.127116
0.209933
0.0528313
0.155103
0.26163
0.261177
0.141947
0.141751
0.137923
0.103687
0.0155022
0.000283013
0.0392222
0.0293475
-0.0634521
0.0513937
-0.0177551
-0.0176288
-0.125508
-0.0682377
-0.0867949
-0.117915
-0.0651196
-0.0972952
0.140533
0.0957655
0.155064
0.165308
0.133203
0.117765
-0.0162234
-0.123382
0.17693
-0.109951
0.15442
-0.0238281
-0.074873
0.0276423
0.0309874
0.000478496
-0.0322449
0.0384948
-0.0802595
-0.000569657
-0.078124
-0.0167664
-0.0438936
0.266414
0.0136721
0.297069
0.255613
0.0201337
0.196315
0.0577225
0.19737
-0.0873221
0.153225
-0.0148451
-0.0344657
0.124364
0.0336508
-0.0325565
-0.101807
-0.0637766
-0.0356869
-0.0308321
-0.0188691
-0.0201775
-0.00601761
-0.00645058
2359.75
2362.59
2160.72
2061.65
2476.86
2487.34
2463.1
2408
2371.6
2346.61
2344.26
2333.1
2409.55
2374.71
2492.95
2481.98
2514.46
2389.68
2210.1
1981.65
1799.28
1394.2
1118.31
1047.77
766.847
670.3
667.332
722.636
474.03
472.451
558.294
618.633
441.821
550.073
645.063
690.713
342.683
426.604
513.239
588.044
426.071
467.38
488.642
513.344
295.991
330.94
354.092
382.085
365.291
391.545
420.951
445.757
221.732
222.18
231.246
244.082
150.68
156.37
162.142
165.839
21.4174
23.6863
28.8364
31.3805
-1.11888
-1.02135
-0.78438
-0.383409
-1.77607
-1.53829
-1.31546
-0.763566
-2.34469
-1.5489
-1.41155
-1.17287
-0.551456
-1.18498
-0.997144
-1.10748
0.135801
-1.08555
-1.34612
-1.45853
-2.04868
-1.84166
-1.82473
-1.61165
-2.34984
-2.371
-2.05513
-2.03065
-2.10482
-1.82627
-1.81138
-1.71138
-1.50698
-1.36912
-1.45722
-1.57339
-1.44898
-1.28926
-1.07837
-1.18654
-1.21499
-1.21101
-1.18686
-1.12783
-1.13319
-1.15827
-1.14711
-1.04154
-0.938334
-0.987863
-0.917483
-0.854875
-0.821223
-0.823851
-0.764247
-0.745578
-0.683341
-0.598704
-0.62382
-0.646058
-0.569892
-0.578373
-0.568091
-0.590219
-0.492933
-0.487283
-0.435253
-0.425061
-0.360214
-0.37962
-0.411949
-0.39593
-0.338943
-0.319184
-0.284616
-0.3124
-0.305164
-0.342164
-0.248269
-0.27648
-0.214113
-0.21554
-0.187512
-0.216974
-0.144461
-0.163592
-0.169393
-0.171676
-0.0888208
-0.101187
-0.103321
-0.115306
-0.0768386
-0.0844339
-0.0778613
-0.0849148
-0.0470112
-0.0381838
-0.0482043
-0.0435755
-0.0219711
-0.0159031
-0.0218947
-0.0229144
2523.17
2397.73
2165.38
2095.4
2161.29
2487.79
2604.15
2607.42
2030.74
1850.55
1913.3
2479.19
2681.13
2706.19
2707.91
2703.26
2606.55
2690.53
2777.71
2509.18
2401.55
2453.91
2383.65
2394.13
2482.6
2531.15
2571.13
2344.26
2521.01
2480.66
2598.56
2716.99
2743.71
2756.42
2722.76
2639.48
2658.71
2793.03
2343.4
2576.65
2260.47
2576.25
2258.98
2030.37
1541.86
1786.51
2498.78
2677.15
2723.34
2422.27
2025.26
2208.22
2376.4
2393.96
2628.94
2802.31
2848.32
2564.96
2006.73
1513.73
1914.86
1300.57
1136.86
900.702
1100.1
2015.99
2325.88
2154.41
1732.31
1789.7
2266.64
2426.1
1919.44
2061
2496.98
2873.65
1586.97
1129.94
1019.5
1045.43
900.274
807.476
855.124
1156.36
1261.77
1439.39
1740.06
1984.47
2313.92
2751.63
2595.71
1621.33
1416.34
2108.38
2878.72
1046.2
925.456
837.084
792.715
752.03
848.092
1203.31
1507.49
1754.31
2058.64
2443.89
2736.53
2775.23
2894.44
2582.32
1438.46
1498.06
2774.34
2952.24
746.83
756.194
751.649
755.822
782.95
1026.77
1399.25
1698.88
2094.39
2452.38
2655.01
2937.23
2902.69
2843.31
2610.3
1802.81
1608.58
2818.28
2924.56
589.861
594.094
646.917
681.53
911.703
1135.08
1352.97
1653.15
2093.04
2426.14
2602.11
2947.85
2951.65
2797.74
2756.33
2124.87
1536.3
2763.96
2931.39
691.823
660.736
599.789
615.815
731.893
1018.51
1401.07
1821.61
2009.11
2160.07
2441.16
2994.34
2928.51
2901.92
3013.59
2901.89
2628.84
2805.67
2948.41
618.556
692.378
643.912
663.666
1195.17
1676.73
1889.57
2017.34
2031.36
2161.68
2339.64
2794.43
2996.75
3047.88
3052.58
3033.32
3041.49
3067.63
2990.38
588.738
702.149
682.918
1114.99
1540.87
1824.98
1823.41
1850.87
1890.77
1800.57
1928.69
2274.64
2436.47
2577.84
2657.39
2899.04
3019.25
3058.83
3054.15
445.91
539.03
645.249
708.54
996.683
1333.11
1405.96
1187.16
1296.54
1303.53
1602.26
1547.76
1625.65
1770.38
1976.61
2343.49
2854.94
2939.28
2966.91
486.254
597.22
685.081
791.882
831.091
713.624
695.895
505.779
486.009
445.927
610.162
660.117
838.114
1128.94
1473.38
1723.64
2300.62
2497.25
2587.41
233.934
205.803
240.779
294.621
301.359
287.507
260.072
213.18
174.99
136.377
192.132
246.084
269.432
487.077
847.041
1069.64
1502.42
1721.05
1803.45
176.92
191.991
172.173
161.848
116.915
110.402
83.3535
67.6237
64.7025
47.5708
73.0101
83.8812
74.1629
127.436
316.349
449.24
712.842
848.161
951.282
35.713
31.2891
27.2144
25.174
21.869
24.5012
25.6915
20.2096
21.1653
17.4051
21.4299
18.9263
15.9362
21.009
77.6185
111.498
216.475
296.172
330.389
0.264587
-0.357155
1.15977
2.41137
2.90602
5.63496
6.63501
5.62646
7.40592
7.47271
3.89958
3.46503
2.29954
2.51479
10.3781
26.1537
54.2105
99.464
100.596
-0.473473
-0.488895
-0.164929
-0.145685
0.367069
0.892392
1.59438
1.00227
1.61122
2.35604
0.605837
0.53666
0.533233
0.700362
2.24965
7.49969
24.3692
45.453
42.7657
-0.788239
-0.788678
-0.726749
-0.563619
-0.481529
-0.297436
-0.255593
-0.069691
0.147248
0.691745
0.100375
0.0577097
0.0611395
0.202343
0.6039
5.54135
19.9321
28.0509
26.6653
-0.714056
-0.757329
-0.617028
-0.677066
-0.760809
-0.480811
-0.450529
-0.235449
-0.106948
0.0569725
-0.233876
-0.148355
-0.0320129
0.0343847
0.65622
5.04075
17.0743
19.1797
20.3815
-1.68659
-1.06403
-1.22395
-0.786433
-0.852899
-0.585699
-0.743737
-0.553608
-0.455619
-0.215945
-0.329019
-0.14825
-0.167958
-0.11488
0.598706
6.25928
12.6413
11.8135
16.287
-1.43133
-1.22649
-1.08736
-0.880364
-0.638631
-0.866212
-0.765616
-0.610557
-0.578179
-0.473318
-0.353327
-0.423762
-0.240993
-0.120468
0.97979
4.44237
5.96015
5.24041
13.3684
-1.53458
-1.26692
-0.745743
-0.836791
-0.736876
-0.760293
-0.466937
-0.554956
-0.445464
-0.200222
-0.390148
-0.245827
-0.374435
-0.392599
-0.276737
0.622522
1.47609
1.3486
11.8512
-1.3024
-1.28291
-1.2706
-0.791462
-0.687974
-0.53484
-0.59191
-0.5922
-0.513291
-0.353576
-0.381067
-0.337761
-0.258727
-0.439745
-0.252398
-0.218657
0.0600998
0.412572
10.7023
-1.29406
-1.05071
-1.01078
-0.892949
-0.685772
-0.573452
-0.473957
-0.371121
-0.459512
-0.294859
-0.376189
-0.35351
-0.214934
-0.254154
-0.285547
-0.142384
-0.0486161
0.247887
10.1318
-1.23793
-1.19014
-0.651212
-0.86493
-0.668127
-0.607526
-0.855242
-0.697666
-0.517291
-0.438318
-0.247789
-0.38168
-0.419121
-0.480165
-0.478055
-0.472502
-0.0558549
0.231317
9.12323
-1.04905
-1.05814
-0.956737
-0.812679
-0.695395
-0.472383
-0.557855
-0.50772
-0.65318
-0.751949
-0.585756
-0.396334
-0.535737
-0.575456
-0.588343
-0.467027
-0.416191
0.203786
7.55824
-0.843721
-0.710341
-0.851759
-0.779181
-0.881803
-0.724827
-0.47296
-0.408741
-0.361441
-0.381304
-0.359161
-0.561538
-0.420609
-0.244868
-0.408744
-0.551043
-0.288905
0.218758
6.7502
-0.812737
-0.732482
-0.753265
-0.65854
-0.584223
-0.366896
-0.510637
-0.423705
-0.401873
-0.486992
-0.363745
-0.334906
-0.238419
-0.220967
-0.180649
-0.325193
-0.30136
0.233635
6.28991
-0.702282
-0.631072
-0.470953
-0.81945
-0.573643
-0.470653
-0.448057
-0.400965
-0.581177
-0.344466
-0.621187
-0.488068
-0.600483
-0.315379
-0.281649
-0.21834
-0.282414
0.2064
5.6328
-0.750004
-0.537916
-0.546951
-0.494358
-0.493144
-0.620559
-0.363121
-0.550009
-0.235342
-0.327569
-0.423907
-0.409982
-0.291383
-0.655441
-0.285626
-0.273077
-0.225018
0.217518
5.11868
-0.459851
-0.614707
-0.335054
-0.430548
-0.522207
-0.377359
-0.585713
-0.406162
-0.353556
-0.306383
-0.548762
-0.568571
-0.437707
-0.35443
-0.320114
-0.281149
-0.393094
-0.138653
4.7688
-0.416441
-0.499028
-0.460302
-0.334321
-0.315702
-0.424506
-0.248289
-0.435618
-0.327817
-0.524561
-0.112965
-0.14869
-0.313061
-0.202198
-0.593174
-0.286541
-0.309225
-0.0594785
3.52037
-0.360063
-0.453674
-0.30831
-0.444412
-0.304697
-0.240805
-0.289449
-0.167606
-0.261311
-0.184977
-0.21321
-0.256754
-0.340782
-0.284191
-0.299191
-0.353234
-0.484288
-0.303458
6.08318
-0.262823
-0.339819
-0.369275
-0.247496
-0.280282
-0.35336
-0.227595
-0.27731
-0.19973
-0.251867
-0.215466
-0.206867
-0.242016
-0.297458
-0.434302
-0.40966
-0.443457
-0.439794
3.38384
-0.287884
-0.260625
-0.203127
-0.349398
-0.23207
-0.144014
-0.163898
-0.294298
-0.414452
-0.214475
-0.169665
-0.184184
-0.274503
-0.202652
-0.0458506
-0.397181
-0.0821121
-0.388942
3.27795
-0.221967
-0.238043
-0.220154
-0.141076
-0.253147
-0.306084
-0.288606
-0.198137
-0.10818
-0.262901
-0.407511
-0.243338
-0.181414
-0.111637
0.00164536
-0.0271274
-0.115772
-0.0488571
2.52819
-0.132995
-0.186138
-0.172062
-0.164075
-0.312777
-0.0959904
-0.159857
-0.212916
-0.192085
-0.17325
-0.0702233
-0.197775
-0.228942
-0.400074
-0.320668
-0.199254
-0.182448
-0.117816
1.98885
-0.149835
-0.14556
-0.144227
-0.173327
-0.095117
-0.138842
-0.21937
-0.173567
-0.130111
-0.185028
-0.181995
-0.210679
-0.184976
-0.226539
-0.15618
-0.0104245
-0.0989174
-0.0866098
1.4689
-0.0630268
-0.088911
-0.145516
-0.108428
-0.116619
-0.0802069
-0.0989751
-0.075854
-0.0837466
-0.130352
-0.052834
-0.15583
-0.208868
-0.238377
-0.341783
-0.420593
-0.114035
-0.0906674
0.970908
-0.0761859
-0.0616867
-0.0988583
-0.0872761
-0.094961
-0.220917
-0.101248
-0.297272
-0.0951437
-0.114787
-0.413272
-0.105223
-0.190581
-0.340722
-0.441053
-0.509464
-0.560013
-0.602018
1.4753
-0.0111931
-0.0543957
-0.0325475
-0.0472648
-0.159067
-0.0337138
-0.263735
-0.0835129
-0.301084
-0.328462
-0.183011
-0.379446
-0.408661
-0.205033
-0.155361
-0.189328
-0.308155
-0.352071
0.42396
)
;

boundaryField
{
    leftWall
    {
        type            zeroGradient;
    }
    rightWall
    {
        type            zeroGradient;
    }
    lowerWall
    {
        type            zeroGradient;
    }
    atmosphere
    {
        type            totalPressure;
        rho             rho;
        psi             none;
        gamma           1;
        p0              uniform 0;
        value           nonuniform List<scalar> 
46
(
0
0
0
0
0
0
0
0
0
0
0
0
0
0
0
0
0
0
0
0
0
0
0
-0.000123225
-0.00152952
-0.00242524
-0.00394281
-0.00811046
-0.0259176
-0.0329263
-0.0394898
-0.0839441
-0.104488
-0.152611
-0.1774
-0.180554
-0.206344
-0.297533
-0.243169
-0.287649
-0.269962
-0.294862
-0.307374
-0.446582
-0.47955
0
)
;
    }
    defaultFaces
    {
        type            empty;
    }
}


// ************************************************************************* //
