/*--------------------------------*- C++ -*----------------------------------*\
| =========                 |                                                 |
| \\      /  F ield         | foam-extend: Open Source CFD                    |
|  \\    /   O peration     | Version:     4.1                                |
|   \\  /    A nd           | Web:         http://www.foam-extend.org         |
|    \\/     M anipulation  |                                                 |
\*---------------------------------------------------------------------------*/
FoamFile
{
    version     2.0;
    format      ascii;
    class       surfaceScalarField;
    location    "0.85";
    object      phi;
}
// * * * * * * * * * * * * * * * * * * * * * * * * * * * * * * * * * * * * * //

dimensions      [0 3 -1 0 0 0 0];

internalField   nonuniform List<scalar> 
4432
(
2.5179e-06
-2.5179e-06
-8.00588e-06
1.05238e-05
-2.37371e-05
1.57312e-05
-1.45604e-05
-9.17672e-06
-1.39003e-05
-6.60089e-07
-1.96122e-05
5.71194e-06
-1.77803e-06
-1.78342e-05
7.81553e-06
-9.59357e-06
-4.9224e-06
1.27379e-05
-1.78846e-05
1.29622e-05
-1.65124e-05
-1.37219e-06
-1.03035e-05
-6.20897e-06
-5.76203e-06
-4.54144e-06
-1.77121e-06
-3.99082e-06
-1.69041e-07
-1.60217e-06
2.36564e-06
-2.53468e-06
3.72126e-06
-1.35562e-06
1.44527e-08
3.70681e-06
-2.02651e-06
2.04097e-06
-3.63444e-06
1.60792e-06
4.14859e-07
-4.0493e-06
2.70329e-06
-2.28843e-06
2.70329e-06
-5.82068e-06
3.30278e-06
-1.46843e-05
1.93874e-05
-2.06599e-05
2.17068e-05
-1.68509e-05
-1.29857e-05
-1.53915e-05
-2.11944e-06
-1.90936e-05
9.41401e-06
-2.07472e-05
-1.61806e-05
-3.1297e-05
9.56241e-07
-5.27558e-05
3.41968e-05
-1.55079e-05
-2.42857e-05
-2.09428e-05
4.06278e-06
-7.99606e-06
-1.91558e-05
-8.3493e-06
-4.1882e-06
-2.6586e-06
-9.68152e-06
3.99742e-07
-4.66051e-06
2.28745e-06
-4.42239e-06
1.50883e-06
-5.77002e-07
2.78963e-06
2.42601e-06
1.50294e-06
3.32767e-06
9.30814e-07
2.18005e-06
-5.32998e-07
-2.58549e-06
-9.22355e-07
-1.89908e-06
1.78094e-06
-2.23331e-05
2.56359e-05
-1.88483e-05
1.59026e-05
-2.68122e-05
2.96707e-05
-2.13084e-05
-1.84896e-05
-1.05497e-05
-1.28781e-05
-1.64579e-05
1.53223e-05
-2.0366e-05
-1.22726e-05
-2.28799e-05
3.47014e-06
-1.87679e-06
1.31937e-05
2.21387e-05
-4.83012e-05
-9.35827e-06
3.55597e-05
-1.0102e-05
-1.84121e-05
-9.11646e-06
-5.1737e-06
-8.45809e-06
-1.03399e-05
-4.92275e-07
-1.26263e-05
1.6639e-06
-6.57857e-06
2.12634e-06
-1.03944e-06
2.196e-06
2.35635e-06
1.55387e-06
3.96979e-06
1.88976e-06
1.84416e-06
-9.9188e-07
2.96148e-07
-8.12512e-07
-2.07845e-06
9.68424e-07
-2.05173e-05
4.61531e-05
-1.84957e-05
1.38811e-05
-2.54975e-05
3.66725e-05
-1.36029e-05
-3.03842e-05
-2.29941e-05
-3.48688e-06
-2.07461e-05
1.30742e-05
-2.33805e-05
-9.63822e-06
-1.98373e-05
-7.30205e-08
-5.42045e-06
-1.22317e-06
-7.94693e-06
-4.57747e-05
-1.53471e-05
4.29599e-05
-2.45797e-05
-9.17942e-06
-2.25957e-05
-7.15774e-06
-7.39441e-06
-2.55412e-05
-3.27292e-06
-1.67478e-05
-1.97756e-06
-7.87393e-06
7.86391e-07
-3.80339e-06
1.65602e-06
1.48672e-06
1.42759e-06
4.19822e-06
1.16836e-06
2.1034e-06
-1.35386e-06
2.81836e-06
-1.69858e-06
-1.73373e-06
-7.30156e-07
-2.36424e-05
6.97955e-05
-2.63305e-05
1.65692e-05
-1.66864e-05
2.70284e-05
-1.84124e-05
-2.86582e-05
-2.46086e-05
2.70938e-06
-3.06191e-05
1.90848e-05
-4.28465e-05
2.5891e-06
-4.11291e-05
-1.79039e-06
-3.73022e-05
-5.05005e-06
-3.4239e-05
-4.88379e-05
-2.68699e-05
3.55908e-05
-2.70391e-05
-9.01021e-06
-1.46149e-05
-1.9582e-05
-1.86044e-05
-2.15516e-05
-4.78021e-06
-3.0572e-05
-2.31398e-06
-1.03402e-05
-1.11946e-06
-4.99791e-06
-2.20802e-07
5.88063e-07
7.0908e-07
3.26834e-06
-9.05183e-07
3.71766e-06
-1.9058e-06
3.81898e-06
-1.79296e-06
-1.84657e-06
-2.52312e-06
-1.32739e-05
8.30694e-05
-1.48062e-05
1.81014e-05
5.99299e-06
6.2292e-06
1.32109e-08
-2.26784e-05
-1.87433e-05
2.14659e-05
-1.63492e-05
1.66907e-05
-1.39254e-05
1.65324e-07
-2.21086e-05
6.39276e-06
-2.55522e-05
-1.60642e-06
-4.34689e-05
-3.09212e-05
-1.9874e-05
1.19959e-05
-1.49443e-05
-1.39399e-05
-2.73336e-05
-7.19272e-06
-1.05034e-05
-3.83819e-05
-1.24415e-06
-3.98312e-05
-8.70788e-07
-1.07135e-05
-1.72918e-06
-4.13952e-06
-1.72424e-06
5.83128e-07
1.59389e-07
1.38471e-06
-1.39065e-06
5.26769e-06
-2.41124e-06
4.83957e-06
-4.44111e-06
1.83302e-07
-6.96422e-06
-8.50994e-06
9.15793e-05
9.62588e-06
-3.43761e-08
1.88511e-06
1.397e-05
-1.16847e-05
-9.10855e-06
-1.34079e-05
2.3189e-05
-1.48284e-05
1.81113e-05
-1.75121e-05
2.84895e-06
-2.09668e-05
9.84744e-06
-4.8771e-05
2.61979e-05
-5.12068e-05
-2.84855e-05
-2.37404e-05
-1.54704e-05
-1.18116e-05
-2.58687e-05
-2.28746e-05
3.87027e-06
-4.10862e-06
-5.71479e-05
-1.74385e-06
-4.2196e-05
-5.36649e-06
-7.09087e-06
-4.40927e-06
-5.09674e-06
-1.58832e-06
-2.23782e-06
2.16472e-06
-2.36834e-06
-6.91803e-07
8.12421e-06
-5.76407e-06
9.91183e-06
-1.93642e-06
-3.64435e-06
-8.90064e-06
-1.26396e-05
0.000104219
3.11669e-06
-1.57906e-05
1.05712e-05
6.51545e-06
3.12044e-06
-1.65778e-06
1.03823e-05
1.59272e-05
-3.04644e-06
3.154e-05
-7.67669e-06
7.4792e-06
-4.20541e-06
6.37616e-06
-1.30591e-05
3.50516e-05
-1.0617e-05
-3.09276e-05
-1.43294e-05
-1.1758e-05
-5.22729e-06
-3.49708e-05
-8.43505e-06
7.07804e-06
-3.69069e-06
-6.18923e-05
-7.07731e-06
-3.88093e-05
-1.34314e-05
-7.36736e-07
-7.598e-06
-1.09302e-05
-4.81188e-06
-5.02394e-06
1.46866e-06
-8.64888e-06
-7.80234e-06
1.73952e-05
-1.39795e-05
1.6089e-05
-6.00928e-06
-1.16146e-05
-1.49099e-05
-5.27704e-05
5.27704e-05
-7.18111e-05
1.90407e-05
-9.45636e-05
2.27525e-05
-0.000113439
1.88753e-05
-0.000110123
-3.31558e-06
-0.000110295
1.71313e-07
-0.0001121
1.8053e-06
-7.45249e-05
-3.75751e-05
-7.4432e-05
-9.28968e-08
-7.391e-05
-5.22e-07
-8.30338e-05
9.12376e-06
-0.000142535
5.95011e-05
-0.000140348
-2.18647e-06
-0.00013407
-6.27825e-06
-0.000129341
-4.72934e-06
-0.000110746
-1.85952e-05
-6.09067e-05
-4.98389e-05
-5.98227e-05
-1.08397e-06
-5.98227e-05
-2.4183e-05
7.69534e-05
-6.22653e-05
5.7123e-05
-8.30386e-05
4.35258e-05
-6.23227e-05
-1.84055e-06
-0.000104293
3.86544e-05
-0.000109825
5.70383e-06
-6.994e-05
-3.80799e-05
-7.67261e-05
-3.07889e-05
-7.854e-05
1.72095e-06
-0.00012693
4.78681e-05
-0.000128141
1.03343e-05
-8.11342e-05
1.24946e-05
-0.000122083
3.8762e-05
-0.000111123
-1.72377e-05
-6.66984e-05
-4.91541e-05
-9.37187e-05
8.42513e-06
-8.66645e-05
-5.68931e-05
-4.43708e-05
-4.33777e-05
-0.000104194
-2.52981e-05
0.000102252
-3.34769e-05
6.53018e-05
-2.62775e-05
3.63265e-05
-5.06252e-05
2.25071e-05
-9.67721e-05
8.48013e-05
-9.88545e-05
7.78631e-06
-0.00011724
-1.96944e-05
-0.000130066
-1.79633e-05
-0.000123618
-4.72646e-06
-0.000122587
4.68372e-05
-0.000121877
9.62421e-06
-0.000122927
1.35439e-05
-0.000112867
2.87022e-05
-9.65894e-05
-3.35152e-05
-0.00010764
-3.81032e-05
-9.41879e-05
-5.0273e-06
-7.37316e-05
-7.73493e-05
-2.8129e-05
-8.89803e-05
-0.000132323
-2.25657e-05
0.000124817
-4.00533e-05
8.27894e-05
-6.83003e-05
6.45734e-05
-9.92578e-05
5.34645e-05
-5.17354e-05
3.72789e-05
-8.72294e-05
4.32803e-05
-8.96784e-05
-1.72454e-05
-6.37518e-05
-4.38899e-05
-0.000113432
4.49542e-05
-6.78968e-05
1.30159e-06
-0.000109197
5.0924e-05
-0.000109696
1.40428e-05
-6.0136e-05
-2.08575e-05
-8.64838e-05
-7.16732e-06
-8.12435e-05
-4.33436e-05
-4.39996e-05
-4.22712e-05
-3.4576e-05
-8.67729e-05
-1.81785e-05
-0.000105378
-0.000150501
-2.54008e-05
0.000150218
-4.75303e-05
0.000104919
-6.46477e-05
8.16909e-05
-4.85406e-05
3.73574e-05
-7.36878e-05
6.24261e-05
-5.52033e-05
2.47958e-05
-3.5489e-05
-3.69597e-05
-8.56943e-05
6.31548e-06
-5.52145e-05
1.44743e-05
-9.85684e-05
4.46555e-05
-9.30741e-05
4.54297e-05
-8.63423e-05
7.31097e-06
-8.37742e-05
-2.34255e-05
-3.57096e-05
-5.52319e-05
-3.79674e-05
-4.10858e-05
-3.18623e-05
-4.83763e-05
-3.18794e-05
-8.67559e-05
-1.72175e-06
-0.000135535
-0.000152223
-2.79114e-05
0.000178129
-4.933e-05
0.000126337
-5.75868e-05
8.99477e-05
-6.41007e-05
4.38713e-05
-4.00466e-05
3.83719e-05
-2.18287e-05
6.57797e-06
-2.92154e-05
-2.95731e-05
-3.16261e-05
8.72618e-06
-5.54073e-05
3.82555e-05
-3.53811e-05
2.46293e-05
-4.94166e-05
5.94652e-05
-4.50443e-05
2.93867e-06
-4.12115e-05
-2.72582e-05
-2.91311e-05
-6.73123e-05
-1.35354e-05
-5.66815e-05
-4.28953e-06
-5.76221e-05
-5.45902e-06
-8.55864e-05
8.07631e-06
-0.000149071
-0.000144146
-5.49587e-05
0.000233088
-5.64289e-05
0.000127808
-4.26501e-05
7.61688e-05
-1.96511e-05
2.08724e-05
-6.95706e-06
2.56779e-05
1.90396e-06
-2.28305e-06
-8.41489e-06
-1.92542e-05
-3.73136e-05
3.76249e-05
-3.98034e-05
4.07453e-05
-4.48363e-05
2.96622e-05
-1.25456e-05
2.71746e-05
-1.66116e-06
-7.9458e-06
-5.10799e-06
-2.38114e-05
4.21041e-06
-7.66308e-05
1.15978e-05
-6.40689e-05
1.84582e-05
-6.44826e-05
1.7382e-05
-8.45101e-05
1.43847e-05
-0.000146073
-0.000129762
-7.37409e-05
0.000306829
-6.9888e-05
0.000123955
-1.90589e-05
2.53397e-05
-1.22674e-05
1.40809e-05
3.7955e-06
9.61496e-06
3.27124e-06
-1.75879e-06
-3.06774e-06
-1.29152e-05
-2.52918e-05
5.98489e-05
-3.6537e-05
5.19906e-05
-1.87785e-05
1.19036e-05
-4.68485e-06
1.3081e-05
2.06845e-05
-3.33151e-05
1.57452e-05
-1.88722e-05
2.62579e-05
-8.71435e-05
5.35697e-05
-9.13806e-05
5.30835e-05
-6.39964e-05
5.4212e-05
-8.56386e-05
2.09459e-05
-0.000112807
-0.000108816
3.30604e-05
7.11585e-05
1.28154e-05
4.45433e-06
1.02094e-05
9.12139e-06
-1.08875e-05
1.94392e-05
-1.45206e-05
1.95603e-05
-1.44373e-06
1.84631e-05
-8.91979e-06
1.49553e-05
-1.39843e-05
1.14407e-05
-1.36816e-05
3.47489e-05
-5.84494e-05
1.38401e-05
-3.59715e-05
-3.42359e-05
-5.97797e-06
-6.49644e-05
2.35704e-05
-2.24703e-05
-1.18205e-05
-2.65014e-05
-3.86499e-05
-1.198e-05
-3.27101e-05
-6.67648e-06
-2.90021e-05
-1.46382e-05
-2.83047e-05
-5.7214e-06
-2.31664e-05
-1.37872e-05
1.16023e-06
-6.9314e-06
2.21656e-06
1.50327e-05
-5.37379e-05
4.43399e-05
3.01662e-05
-9.8814e-05
2.39339e-05
4.72246e-05
1.49177e-06
2.68965e-05
-2.02694e-05
3.08826e-05
-3.28934e-05
3.20631e-05
-1.8277e-05
4.94394e-06
-3.52966e-06
3.71571e-06
6.47768e-07
1.07778e-05
7.08303e-06
5.00541e-06
6.35002e-06
3.54819e-05
-1.94947e-05
3.96849e-05
-2.38776e-05
-2.9853e-05
-4.05571e-05
-4.82848e-05
-2.55937e-05
-3.74337e-05
-5.75026e-05
5.40757e-06
-8.58336e-05
1.6351e-05
-9.09027e-05
-1.60737e-06
-9.81034e-05
-7.43756e-06
-0.000104561
7.35971e-07
-0.000107243
-1.11045e-05
-0.000104552
-9.62282e-06
-0.000118717
2.91979e-05
-0.000111467
3.709e-05
0.000100428
-0.00018173
-4.40034e-05
9.1228e-05
-5.98192e-05
4.27124e-05
-4.79593e-05
1.90226e-05
-3.32349e-05
1.73388e-05
-9.8493e-06
-1.84417e-05
8.58658e-06
-1.47202e-05
1.55174e-05
3.84706e-06
1.49744e-05
5.54837e-06
3.64527e-05
1.40036e-05
1.32815e-05
6.28561e-05
9.72036e-06
-2.62919e-05
-7.40198e-06
-3.11625e-05
-3.2325e-05
-1.25107e-05
-6.46142e-05
3.76967e-05
-7.38264e-05
2.55633e-05
-0.00011892
4.34863e-05
-0.000134017
7.65942e-06
-0.000151654
1.83729e-05
-0.000171173
8.4144e-06
-0.000175727
-5.06885e-06
-0.00018722
4.0691e-05
-0.000218825
6.86946e-05
9.5166e-05
-0.000213562
-4.05289e-05
0.000131757
-4.86617e-05
5.08452e-05
-4.1273e-05
1.16339e-05
-2.95321e-05
5.5979e-06
-1.63509e-05
-3.16229e-05
-1.12563e-05
-1.98148e-05
-3.07967e-05
2.33874e-05
-2.48184e-05
-4.29961e-07
3.61849e-06
-1.44333e-05
-8.01383e-07
6.7276e-05
1.26892e-05
-3.97825e-05
-7.0181e-06
-1.14552e-05
-3.0988e-05
1.14592e-05
-8.97241e-05
9.64328e-05
-0.00013524
7.10795e-05
-0.000136796
4.50423e-05
-0.000137157
8.0197e-06
-0.000107111
-1.16726e-05
-0.000117425
1.87285e-05
-0.000171016
4.85215e-05
-0.000171803
4.14784e-05
-0.000192665
8.95568e-05
2.5786e-05
-0.000123285
-1.19595e-05
0.000143716
-3.58125e-06
4.24669e-05
1.38237e-05
-5.77105e-06
1.73781e-05
2.04358e-06
7.84421e-07
-1.50292e-05
1.90297e-05
-3.806e-05
2.24758e-05
1.99413e-05
-5.23391e-06
2.72797e-05
-2.87255e-06
-1.67946e-05
3.1727e-05
3.26764e-05
-4.41319e-05
3.60764e-05
-9.86994e-05
4.31124e-05
-9.55423e-05
8.30204e-06
-0.00011271
0.0001136
-8.68986e-05
4.52683e-05
-7.42443e-05
3.2388e-05
-0.000100127
3.39027e-05
-0.000121729
9.92943e-06
-0.000106677
3.67632e-06
-9.62072e-05
3.80516e-05
-0.000144744
9.00156e-05
-9.98612e-05
4.46736e-05
7.0306e-05
-0.000144381
-2.1841e-06
0.0001459
-1.65087e-06
4.19337e-05
-1.42403e-06
-5.99788e-06
3.20978e-06
-2.59023e-06
5.37026e-07
-1.23565e-05
3.25244e-06
-4.07754e-05
3.65174e-06
1.9542e-05
-1.77663e-05
4.86978e-05
-5.33999e-05
1.8839e-05
-3.77806e-05
1.70571e-05
-3.22806e-05
3.05764e-05
-8.44653e-05
9.52972e-05
-8.8104e-05
1.19407e-05
-6.38642e-05
8.93605e-05
-8.34555e-05
6.48597e-05
-8.91763e-05
3.81088e-05
-0.000100815
4.55412e-05
-0.000132752
4.18661e-05
-0.00015
2.09246e-05
-0.000152176
4.02277e-05
-0.000143701
8.15406e-05
-0.000142726
4.36987e-05
4.722e-05
-0.00011964
1.27466e-05
0.000133154
4.61679e-06
5.00635e-05
1.33877e-07
-1.51496e-06
1.9886e-06
-4.44495e-06
-2.81163e-06
-7.55625e-06
-3.35918e-05
-9.9952e-06
-4.18128e-05
2.7763e-05
-3.30003e-05
3.98853e-05
-4.42655e-05
3.01042e-05
-3.70302e-05
9.82178e-06
-1.08801e-05
4.42629e-06
-3.11879e-06
8.75359e-05
-5.39224e-05
6.27443e-05
-5.68762e-05
9.23144e-05
-7.85942e-05
8.65777e-05
-8.59981e-05
4.55127e-05
-8.63981e-05
4.59412e-05
-0.000124429
7.9897e-05
-0.000141026
3.75216e-05
-0.000163702
6.29033e-05
-0.000150164
6.80034e-05
-0.000152938
4.64723e-05
5.47006e-05
-0.000160419
1.78599e-05
0.000115294
1.13503e-05
5.65732e-05
-6.87199e-07
1.05225e-05
3.13602e-06
-8.26815e-06
-2.52152e-06
-1.89869e-06
-2.22221e-05
9.70545e-06
-2.16585e-05
2.71994e-05
7.5365e-08
1.81515e-05
9.58973e-06
2.05899e-05
-1.05121e-05
2.99237e-05
-3.21557e-05
2.60699e-05
-1.53174e-05
7.06976e-05
-5.3033e-05
0.00010046
-8.51903e-05
0.000124472
-7.58575e-05
7.7245e-05
-8.1993e-05
5.16482e-05
-0.000101339
6.5287e-05
-7.81338e-05
5.66921e-05
-0.000143805
0.000103193
-0.000155779
7.48771e-05
-0.00016084
7.30648e-05
-0.000193428
7.90596e-05
6.63614e-05
-0.000205088
4.31202e-05
7.21738e-05
4.83272e-05
5.13661e-05
1.4472e-05
4.43777e-05
2.47736e-06
3.72655e-06
-2.2519e-05
2.30977e-05
-5.76884e-05
4.48749e-05
-6.83064e-05
3.78175e-05
-9.14997e-05
4.13448e-05
-0.000101993
3.10834e-05
-0.000122592
5.05229e-05
-0.00012771
3.11877e-05
-0.000128166
7.11533e-05
-0.000152358
0.000124652
-0.000118573
9.06867e-05
-0.000127688
8.63606e-05
-0.000147635
7.15951e-05
-0.000155351
7.30024e-05
-0.000188447
8.9789e-05
-0.000165393
8.01384e-05
-0.000178749
8.82336e-05
-0.000188269
8.25849e-05
-0.000208079
9.887e-05
0.000112901
-0.000254619
5.32396e-06
6.68499e-05
4.43059e-06
5.22595e-05
5.50166e-06
4.33066e-05
-1.01824e-05
1.94107e-05
-3.64172e-05
4.93324e-05
-5.67504e-05
6.52082e-05
-8.48267e-05
6.58939e-05
-6.86025e-05
2.51206e-05
-6.96829e-05
3.21639e-05
-0.000143621
0.000124461
-0.000206129
9.36959e-05
-0.000211674
7.66986e-05
-0.000182367
9.53454e-05
-0.000258057
0.000166376
-0.000259471
8.77745e-05
-0.000269429
8.15533e-05
-0.000232965
3.65384e-05
-0.000207034
6.38587e-05
-0.00025843
0.000131534
-0.000267329
9.71327e-05
-0.000237405
5.26607e-05
-0.000219628
8.10932e-05
0.000123425
-0.000230152
7.90038e-06
5.89495e-05
-1.07636e-05
7.09235e-05
-6.28456e-06
3.88277e-05
-3.15865e-05
4.47127e-05
-8.27283e-05
0.000100474
-0.000133851
0.000116331
-0.000148107
8.01498e-05
-0.000265207
0.00014222
-0.000331255
9.82126e-05
-0.000265962
5.91677e-05
-0.000291625
0.000119359
-0.000374766
0.00015984
-0.000391639
0.000112218
-0.000272889
4.76262e-05
-0.000249251
6.41367e-05
-0.000256116
8.84183e-05
-0.000342346
0.000122769
-0.00036452
8.60321e-05
-0.000272274
3.92883e-05
-0.000232791
5.76495e-05
-0.000290566
0.000110436
-0.00028464
7.51672e-05
0.000155288
-0.000316503
-4.11806e-06
6.30676e-05
-1.59889e-05
8.27943e-05
-6.84599e-05
9.12988e-05
-0.000174264
0.000150517
-0.000229397
0.000155607
-0.000251321
0.000138256
-0.000269392
9.82213e-05
-0.000290578
0.000163406
-0.000294781
0.000102416
-0.000268499
3.28854e-05
-0.000265322
0.000116182
-0.000237985
0.000132503
-0.000245843
0.000120077
-0.000350924
0.000152708
-0.000396948
0.000110161
-0.000380944
7.24149e-05
-0.000351435
9.32601e-05
-0.000360522
9.51193e-05
-0.000394697
7.34629e-05
-0.000404921
6.78737e-05
-0.000381031
8.65453e-05
-0.000414284
0.00010842
6.1136e-05
-0.000320132
-1.5166e-05
7.82336e-05
-7.50414e-05
0.00014267
-0.000171801
0.000188059
-0.000187615
0.000166331
-0.000181523
0.000149515
-0.000135058
9.17908e-05
-0.000156784
0.000119947
-0.000124968
0.000131589
-0.00016414
0.000141589
-0.00028253
0.000151275
-0.000325548
0.0001592
-0.000333273
0.000140228
-0.000338982
0.000125786
-0.000274772
8.84973e-05
-0.000279915
0.000115304
-0.000451966
0.000244466
-0.000512184
0.000153478
-0.000498683
8.16184e-05
-0.000519179
9.39596e-05
-0.000536484
8.5178e-05
-0.000514451
6.45124e-05
-0.0004894
8.33691e-05
7.15198e-05
-0.000499783
-4.18462e-05
0.00012008
-0.000130261
0.000231085
-0.000169611
0.000227408
-0.000168316
0.000165036
-9.89098e-05
8.01091e-05
-0.000179716
0.000172597
-0.00025297
0.000193201
-0.000313661
0.000192281
-0.000289605
0.000117533
-0.000310313
0.000171982
-0.000332051
0.000180939
-0.000338147
0.000146324
-0.000348114
0.000135753
-0.000421209
0.000161593
-0.00044067
0.000134765
-0.000316607
0.000120402
-0.000340031
0.000176903
-0.000441223
0.000182811
-0.000489446
0.000142183
-0.00050094
9.66716e-05
-0.000492177
5.57495e-05
-0.000449716
4.09076e-05
2.37626e-05
-0.000401958
-2.53588e-05
0.000145439
-7.11992e-05
0.000276926
-8.87512e-05
0.00024496
-0.000120553
0.000196837
-0.000271013
0.00023057
-0.000321317
0.000222901
-0.00033178
0.000203664
-0.000333217
0.000193717
-0.000310148
9.44644e-05
-0.000305712
0.000167546
-0.000316913
0.00019214
-0.00034107
0.000170482
-0.000315292
0.000109975
-0.000367192
0.000213492
-0.000450981
0.000218554
-0.0005167
0.000186122
-0.000545505
0.000205708
-0.00053021
0.000167515
-0.000479432
9.14044e-05
-0.000432945
5.01849e-05
-0.000400774
2.3579e-05
-0.00036677
6.90348e-06
-1.395e-05
-0.000329058
-7.01192e-05
0.000215558
-0.000172763
0.00037957
-0.000213517
0.000285715
-0.000273609
0.000256929
-0.000339369
0.00029633
-0.000351191
0.000234723
-0.00033189
0.000184363
-0.000228608
9.04352e-05
-0.000288422
0.000154278
-0.000273049
0.000152173
-0.000195055
0.000114147
-0.000230574
0.000206001
-0.000359374
0.000238775
-0.000410956
0.000265074
-0.000445042
0.000252641
-0.000471947
0.000213026
-0.000462385
0.000196145
-0.000419406
0.000124537
-0.000381936
5.39339e-05
-0.000356255
2.45041e-05
-0.000370783
3.81063e-05
-0.000340954
-2.29255e-05
-0.000122564
-0.00023234
-8.59697e-05
0.000301528
-0.000159844
0.000453444
-0.000192371
0.000318242
-0.000202973
0.000267531
-0.000192734
0.000286091
-0.000189297
0.000231286
-0.000175277
0.000170344
-0.000278248
0.000193406
-0.00026441
0.000140441
-0.000304571
0.000192333
-0.000412303
0.00022188
-0.000475776
0.000269473
-0.000424407
0.000187407
-0.000456721
0.000297388
-0.000474795
0.000270714
-0.000480096
0.000218327
-0.000442021
0.000158071
-0.000313193
-4.29211e-06
-0.000272205
1.29457e-05
-0.000232482
-1.52187e-05
-0.000217097
2.27202e-05
-0.000122342
-0.00011768
-0.000106865
-0.000138042
-9.03247e-05
0.000391853
-0.000145198
0.000508316
-0.000194645
0.00036769
-0.000222
0.000294887
-0.000199781
0.000263872
-0.000206294
0.000237799
-0.00024839
0.000212439
-0.000187192
0.000132207
-0.000239114
0.000192363
-0.000349446
0.000302666
-0.000419776
0.00029221
-0.000328862
0.000178559
-0.000465806
0.00032435
-0.000448954
0.000280536
-0.000424944
0.000246704
-0.000358004
0.000151387
-0.000231225
3.12926e-05
-0.000270622
3.51045e-05
-0.000330409
7.27328e-05
-0.000428621
8.29926e-05
-0.000419964
1.40625e-05
-0.000423634
-0.00011401
-0.000158039
-0.000372461
-0.00013956
0.000531412
-5.76557e-05
0.000426412
-0.000160064
0.000470097
-0.000199851
0.000334674
-0.000194629
0.000258649
-0.000212911
0.000256081
-0.000266314
0.000265843
-0.000261876
0.000127769
-0.000344451
0.000274939
-0.000362131
0.000320346
-0.000399871
0.00032995
-0.000423561
0.000202249
-0.000433013
0.000333804
-0.000349908
0.000197431
-0.000307975
0.000204771
-0.000267115
0.000110526
-0.000314392
7.857e-05
-0.000363343
8.40553e-05
-0.000386604
9.59933e-05
-0.000383004
7.9392e-05
-0.000331642
-3.73002e-05
-0.000312882
-0.00013277
-0.000196514
-0.000274406
-6.09324e-05
0.000592345
-0.00012266
0.000488139
-0.000183315
0.000530752
-0.000206405
0.000357763
-0.000185704
0.000237948
-0.000204439
0.000274815
-0.000193559
0.000254964
-0.000266067
0.000200277
-0.000264561
0.000273433
-0.000272574
0.000328359
-0.000260742
0.000318118
-0.000328877
0.000270384
-0.000307357
0.000312285
-0.000266677
0.000156751
-0.000227505
0.000165599
-0.000203298
8.6319e-05
-0.000211257
8.65282e-05
-0.000245523
0.000118322
-0.000173492
2.39615e-05
-0.000138521
4.44211e-05
-0.00016835
-7.47183e-06
-0.000121812
-0.000179308
-0.000259866
-5.84607e-05
-5.02042e-05
0.000642547
-0.000133142
0.000571077
-0.000118288
0.000515897
-0.000190514
0.000429989
-0.000247823
0.000295257
-0.000208269
0.000235262
-0.000210515
0.000257209
-0.000242099
0.000231862
-0.000239396
0.00027073
-9.46033e-05
0.000183567
-0.000107772
0.000331286
-0.0001124
0.000275012
-6.29398e-05
0.000262825
-0.000110219
0.00020403
-8.23276e-05
0.000137707
-3.55919e-05
3.95833e-05
-3.82248e-05
8.91609e-05
-3.39498e-05
0.000114047
-1.53119e-05
5.3235e-06
3.89923e-06
2.521e-05
4.32077e-05
-4.67804e-05
8.55007e-05
-0.000221601
-0.000251672
7.73068e-05
-1.14322e-05
0.000653978
-0.000106431
0.000666074
-6.34767e-05
0.000472943
-0.000138796
0.000505309
-0.000160819
0.000317279
-0.00023077
0.000305212
-0.000152004
0.000178444
-0.000171705
0.000251563
-5.53475e-05
0.000154372
-3.14642e-05
0.000159683
6.94244e-06
0.00029288
2.66857e-05
0.000255269
5.20167e-05
0.000237494
0.000103949
0.000152097
0.00011071
0.000130947
7.72752e-05
7.30176e-05
0.00011021
5.62263e-05
0.000105446
0.00011881
0.000114106
-3.33704e-06
0.000168793
-2.94768e-05
0.000230744
-0.000108731
0.000257471
-0.000248328
-0.000179124
0.000184923
0.000124167
0.000529812
1.06057e-05
0.000779634
-3.93283e-05
0.000522877
-8.22663e-05
0.000548246
-0.000129312
0.000364324
-9.88638e-05
0.000274764
-0.000121396
0.000200976
-1.51307e-05
0.000145297
5.71641e-06
0.000133525
4.32734e-05
0.000122126
9.70831e-05
0.00023907
0.000100208
0.000252145
0.000135017
0.000202685
0.000224363
6.27505e-05
0.000225612
0.000129698
0.000153819
0.00014481
0.000170222
3.98241e-05
0.000259923
2.91089e-05
0.000264976
-8.39011e-06
0.00031883
-8.33304e-05
0.000300172
-9.0074e-05
0.000161344
-0.0001095
-0.000265906
0.000248126
9.44715e-05
0.000435341
9.80493e-05
0.000776055
1.6957e-05
0.000603968
6.28585e-06
0.000558916
-4.35619e-05
0.000414172
3.72312e-05
0.000193972
-7.42962e-06
0.000245637
1.67874e-05
0.00012108
5.58914e-05
9.4421e-05
9.38022e-05
8.42157e-05
0.000148294
0.000184578
0.000186816
0.000213622
0.000216653
0.000172848
0.000180267
9.91362e-05
0.000194368
0.000115596
0.000307748
3.1431e-05
0.000294159
5.34122e-05
0.000283081
4.01873e-05
0.000281545
-6.85406e-06
0.000222075
-2.38606e-05
0.000195182
-6.31813e-05
0.000200674
-0.000114992
-0.000202733
0.000137501
6.87633e-05
0.000366576
0.000146082
0.000698737
0.000164195
0.000585854
0.000173734
0.000549377
0.000137213
0.000450695
0.000153643
0.000177541
0.000129571
0.000269709
0.000141571
0.00010908
0.000135949
0.000100043
0.000109742
0.000110423
0.000134016
0.000160304
0.000205245
0.000142393
0.000242522
0.000135571
0.00027564
6.6018e-05
0.000261022
0.000130215
0.000201984
9.04684e-05
0.000203691
5.17053e-05
0.000263749
-1.98706e-05
0.000278605
-2.17106e-05
0.000294054
-3.93097e-05
0.000300345
-6.94717e-05
0.000265979
-8.06257e-05
-0.000145309
0.000208554
-1.0572e-05
0.000377147
0.000109265
0.000578899
0.000135341
0.000559778
0.000180419
0.000504301
0.000229529
0.000401584
0.000121758
0.000285312
0.000182426
0.000209041
0.000184976
0.000106531
0.000178239
0.000106781
0.000205856
8.28057e-05
0.000225861
0.000140299
0.00023928
0.000128975
0.000262001
0.000112849
0.000192978
0.000135042
0.000235577
8.76161e-05
0.000280657
4.53888e-05
0.000287264
4.50981e-05
0.000277496
-1.01025e-05
0.000279783
-2.39979e-05
0.000279478
-3.90051e-05
0.000261512
-5.1505e-05
0.000258411
-7.75252e-05
-0.000120976
0.000234078
3.51581e-05
0.000341989
0.000121663
0.000492393
0.000192872
0.00048857
0.00023325
0.000463923
0.000237237
0.000397596
0.000247991
0.000274558
0.0002427
0.000214333
0.00014493
0.0002043
0.00018314
6.85718e-05
0.000195428
7.05177e-05
0.000197904
0.000137824
0.000209406
0.000117472
0.000195541
0.000126715
0.000285295
4.52869e-05
0.000282919
8.99922e-05
0.000269292
5.90162e-05
0.000277037
3.73524e-05
0.000255984
1.09504e-05
0.000245828
-1.38413e-05
0.00026035
-5.35272e-05
0.000246228
-3.73829e-05
0.00020635
-3.76471e-05
-9.8418e-05
0.000183791
2.17374e-05
0.000320252
7.46798e-05
0.000439451
0.000153642
0.000409608
0.000192468
0.000425096
0.000202701
0.000387364
0.000163652
0.000313607
0.000155092
0.000222893
0.000194514
0.000164878
0.000133118
0.000129968
0.000142128
6.15072e-05
0.000195566
8.43863e-05
0.00020486
0.000108178
0.000217855
0.00011372
0.000159112
0.00010403
0.000225593
2.35116e-05
0.000227614
5.69947e-05
0.000225547
3.94197e-05
0.000213329
2.31677e-05
0.000200406
-9.17981e-07
0.000150132
-3.25333e-06
0.000154109
-4.13595e-05
0.000201897
-8.54349e-05
-6.1115e-05
0.000164593
2.28177e-05
0.000297435
7.69087e-05
0.00038536
0.000120389
0.000366128
0.000166337
0.000379148
0.000199457
0.000354244
0.000223057
0.000290007
0.000211597
0.000234354
0.000199221
0.000177255
0.000233522
9.56677e-05
0.000229161
6.58689e-05
0.000210455
0.000103092
0.000210568
0.000108065
0.000219958
0.00010433
0.000229739
9.4249e-05
0.000208659
4.45921e-05
0.00020321
6.2444e-05
0.000206639
3.59899e-05
0.000203433
2.63746e-05
0.000197824
4.69081e-06
0.000209925
-1.53544e-05
0.000204225
-3.56595e-05
0.000161097
-4.23068e-05
-5.33797e-05
0.000153361
1.2845e-05
0.00028459
5.71888e-05
0.000341016
9.20215e-05
0.000331295
0.000133178
0.000337992
0.000166157
0.000321266
0.000188821
0.000267343
0.000192434
0.000230741
0.000190853
0.000178836
0.000188184
9.83367e-05
0.00015054
0.000103513
0.000200936
5.26963e-05
0.000196501
0.0001125
0.000196821
0.00010401
0.00019839
9.26801e-05
0.000140157
0.000102824
0.00018032
2.22815e-05
0.000181866
3.44439e-05
0.000184366
2.38744e-05
0.000182687
6.36977e-06
0.000191397
-2.40646e-05
0.000176611
-2.08735e-05
0.000156429
-2.21245e-05
-5.53423e-05
0.000158391
1.07712e-05
0.000273819
4.71565e-05
0.00030463
7.4261e-05
0.000304191
0.000112248
0.000300006
0.000140325
0.000293189
0.000161704
0.000245963
0.000175558
0.000216887
0.000178905
0.000175489
0.000175179
0.000102062
0.000164204
0.000114489
0.000125657
9.12438e-05
0.000105293
0.000132863
0.000111453
9.78499e-05
0.000119013
8.51203e-05
0.000173146
4.8691e-05
0.000164258
3.11689e-05
0.00015754
4.1162e-05
0.000151619
2.9796e-05
0.000145486
1.25021e-05
0.000109159
1.22626e-05
0.000108499
-2.02133e-05
0.00014653
-6.01555e-05
-3.61354e-05
0.000127323
1.20037e-05
0.000261815
3.5754e-05
0.00028088
5.47426e-05
0.000285202
8.1278e-05
0.00027347
9.56831e-05
0.000278784
7.88983e-05
0.000262748
0.0001652
0.000130586
0.00012316
0.000217529
0.000124847
0.000100376
0.0001635
7.5835e-05
0.000119778
0.000134966
0.000154546
9.80945e-05
0.000171207
8.11893e-05
0.000182156
7.41715e-05
0.000158229
7.26182e-05
0.000156728
3.26694e-05
0.000155138
4.27525e-05
0.000151024
3.39096e-05
0.000148459
1.5067e-05
0.000154604
6.11745e-06
0.000141238
-6.8468e-06
0.000113019
-3.19372e-05
-4.51322e-05
0.000122016
8.33028e-06
0.000253484
1.84152e-05
0.000270795
3.46099e-05
0.000269007
5.28241e-05
0.000255256
8.93186e-05
0.00024229
0.000123415
0.000228652
0.000140493
0.000113508
0.000157372
0.000200651
0.000152846
0.000104902
0.000149001
7.96801e-05
0.000144198
0.000139769
0.000134947
0.000107345
0.000107547
0.00010859
0.000113302
6.8416e-05
0.000146428
3.94929e-05
0.00012307
5.60265e-05
0.000141874
2.39487e-05
0.000141773
3.40103e-05
0.000146258
1.05825e-05
0.000142243
1.01324e-05
0.000135672
-2.75946e-07
0.00011853
-1.47953e-05
-3.41191e-05
0.000107517
1.43851e-05
0.000239099
3.36115e-05
0.000251569
5.83265e-05
0.000244292
8.15874e-05
0.000231995
9.86374e-05
0.00022524
0.000116943
0.000210347
0.000135254
9.51967e-05
0.000153803
0.000182101
0.000124618
0.000134087
7.03616e-05
0.000133937
0.000133115
7.70163e-05
0.000124158
0.000116301
0.000137179
9.55685e-05
9.61136e-05
0.000109482
8.64912e-05
4.91152e-05
0.000126432
1.60861e-05
0.000122155
2.82253e-05
0.000116528
3.96376e-05
0.000119973
7.1367e-06
0.00011105
1.9056e-05
0.000104096
6.67771e-06
0.000100546
-1.12449e-05
-2.85295e-05
9.49562e-05
8.34161e-06
0.000230758
2.56431e-05
0.000234267
4.33501e-05
0.000226586
6.05333e-05
0.000214812
7.56216e-05
0.000210152
7.38051e-05
0.000212164
7.97158e-05
8.92859e-05
0.000112308
0.000149508
0.000119671
0.000126724
0.000125358
0.00012825
6.29633e-05
0.000139411
0.000117962
6.13029e-05
0.000106557
0.000106973
0.000131205
8.48343e-05
0.000113261
6.70586e-05
7.22112e-05
5.71362e-05
7.30422e-05
2.73942e-05
0.000101591
1.10887e-05
7.37193e-05
3.50085e-05
6.58464e-05
2.69289e-05
8.75429e-05
-1.50188e-05
8.35515e-05
-7.25357e-06
-2.80982e-05
8.31202e-05
8.28878e-06
0.000222469
2.48647e-05
0.000217691
3.85615e-05
0.000212889
3.70798e-05
0.000216294
6.45378e-05
0.000182694
7.93082e-05
0.000197394
5.39175e-05
0.000114677
0.000109022
9.44038e-05
7.4786e-05
0.00016096
7.87767e-05
0.000124259
0.000104611
0.000113576
0.000107666
5.82481e-05
0.000113445
0.000101193
0.000117738
8.05411e-05
0.000111267
7.35302e-05
0.000101441
6.69618e-05
7.16423e-05
5.7193e-05
7.11598e-05
1.15711e-05
6.56611e-05
4.05073e-05
8.8053e-05
4.53692e-06
7.71095e-05
-4.07529e-06
8.16448e-05
-1.17889e-05
-6.10884e-06
5.96554e-05
7.61348e-06
0.000214855
2.78024e-05
0.000197502
3.31362e-05
0.000207555
2.1595e-05
0.000227835
7.49032e-05
0.000129385
5.98502e-05
0.000212447
7.72284e-05
9.72984e-05
7.86274e-05
9.30047e-05
5.98668e-05
0.000179721
0.000114664
6.94625e-05
0.000102616
0.000125624
0.00010308
5.77848e-05
0.000104526
9.97467e-05
0.000103186
8.18811e-05
9.73448e-05
7.93713e-05
9.20233e-05
7.22833e-05
9.38666e-05
5.53497e-05
6.52837e-05
4.0154e-05
6.19203e-05
4.38707e-05
7.6009e-05
-9.55182e-06
6.86686e-05
3.26511e-06
7.1481e-05
-1.46013e-05
-3.90019e-06
6.92723e-05
6.59254e-06
0.000208263
1.98622e-05
0.000184233
2.59829e-05
0.000201434
4.51436e-05
0.000208674
5.84028e-05