/*--------------------------------*- C++ -*----------------------------------*\
| =========                 |                                                 |
| \\      /  F ield         | foam-extend: Open Source CFD                    |
|  \\    /   O peration     | Version:     4.1                                |
|   \\  /    A nd           | Web:         http://www.foam-extend.org         |
|    \\/     M anipulation  |                                                 |
\*---------------------------------------------------------------------------*/
FoamFile
{
    version     2.0;
    format      ascii;
    class       surfaceScalarField;
    location    "0.85";
    object      phi_0;
}
// * * * * * * * * * * * * * * * * * * * * * * * * * * * * * * * * * * * * * //

dimensions      [0 3 -1 0 0 0 0];

internalField   nonuniform List<scalar> 
4432
(
2.68076e-06
-2.68076e-06
-7.62706e-06
1.03078e-05
-2.37091e-05
1.6082e-05
-1.42046e-05
-9.50449e-06
-1.36901e-05
-5.1445e-07
-1.97295e-05
6.03933e-06
-1.86533e-06
-1.78642e-05
7.98375e-06
-9.84908e-06
-4.84691e-06
1.28307e-05
-1.75466e-05
1.26997e-05
-1.65102e-05
-1.03639e-06
-1.0278e-05
-6.23227e-06
-5.57851e-06
-4.69946e-06
-1.66139e-06
-3.91711e-06
-4.7333e-08
-1.61406e-06
2.50064e-06
-2.54797e-06
3.87634e-06
-1.3757e-06
7.18004e-08
3.80454e-06
-1.97339e-06
2.04519e-06
-3.6051e-06
1.63171e-06
3.9466e-07
-3.99976e-06
2.60767e-06
-2.21301e-06
2.60767e-06
-5.58829e-06
2.90753e-06
-1.43522e-05
1.90717e-05
-2.05651e-05
2.22949e-05
-1.65317e-05
-1.35379e-05
-1.47358e-05
-2.31033e-06
-1.84952e-05
9.79867e-06
-2.02876e-05
-1.60717e-05
-3.10024e-05
8.65671e-07
-5.30891e-05
3.49174e-05
-1.56654e-05
-2.4724e-05
-2.0878e-05
4.17622e-06
-7.97734e-06
-1.91329e-05
-8.15207e-06
-4.52472e-06
-2.43162e-06
-9.63756e-06
5.78177e-07
-4.62386e-06
2.44618e-06
-4.41597e-06
1.58987e-06
-5.19393e-07
2.89889e-06
2.49552e-06
1.55361e-06
3.39047e-06
9.62168e-07
2.22315e-06
-5.17341e-07
-2.52025e-06
-9.15324e-07
-1.81503e-06
1.69235e-06
-2.1843e-05
2.47505e-05
-1.86705e-05
1.58993e-05
-2.64777e-05
3.01021e-05
-2.11088e-05
-1.89067e-05
-1.01792e-05
-1.324e-05
-1.59087e-05
1.55282e-05
-2.00036e-05
-1.19768e-05
-2.2556e-05
3.41809e-06
-2.10154e-06
1.4463e-05
2.08335e-05
-4.76591e-05
-1.00425e-05
3.50523e-05
-1.00892e-05
-1.90862e-05
-9.00247e-06
-5.61148e-06
-8.22753e-06
-1.04125e-05
-4.02744e-07
-1.24486e-05
1.82798e-06
-6.6467e-06
2.28666e-06
-9.78071e-07
2.31801e-06
2.46417e-06
1.60676e-06
4.10172e-06
1.95043e-06
1.87948e-06
-9.08781e-07
3.38958e-07
-8.19939e-07
-1.90387e-06
8.72406e-07
-2.03413e-05
4.50918e-05
-1.82079e-05
1.37659e-05
-2.50234e-05
3.69175e-05
-1.35988e-05
-3.03313e-05
-2.27599e-05
-4.07889e-06
-2.02111e-05
1.29794e-05
-2.30772e-05
-9.11075e-06
-2.0081e-05
4.21942e-07
-5.43977e-06
-1.78273e-07
-7.43866e-06
-4.56602e-05
-1.49692e-05
4.25828e-05
-2.44547e-05
-9.60068e-06
-2.23877e-05
-7.67851e-06
-7.25597e-06
-2.55442e-05
-3.16123e-06
-1.65434e-05
-1.78821e-06
-8.01972e-06
9.69191e-07
-3.73548e-06
1.77581e-06
1.65755e-06
1.4695e-06
4.40803e-06
1.23249e-06
2.1165e-06
-1.3308e-06
2.90224e-06
-1.71969e-06
-1.51498e-06
-8.47284e-07
-2.35232e-05
6.86151e-05
-2.61638e-05
1.64065e-05
-1.62674e-05
2.70211e-05
-1.81197e-05
-2.84791e-05
-2.43654e-05
2.16681e-06
-3.01635e-05
1.87775e-05
-4.247e-05
3.19576e-06
-4.09239e-05
-1.12409e-06
-3.68842e-05
-4.21797e-06
-3.37461e-05
-4.87983e-05
-2.64921e-05
3.53287e-05
-2.68372e-05
-9.25555e-06
-1.449e-05
-2.00258e-05
-1.84012e-05
-2.1633e-05
-4.61891e-06
-3.03257e-05
-2.17187e-06
-1.04668e-05
-1.02904e-06
-4.8783e-06
-1.57776e-07
7.86283e-07
7.38019e-07
3.51224e-06
-8.73467e-07
3.72799e-06
-1.89223e-06
3.921e-06
-1.86746e-06
-1.53975e-06
-2.71475e-06
-1.18523e-05
8.04674e-05
-1.23128e-05
1.6867e-05
6.05787e-06
8.65045e-06
2.00414e-07
-2.26216e-05
-1.77582e-05
2.01254e-05
-1.58384e-05
1.68578e-05
-1.3508e-05
8.65293e-07
-2.16894e-05
7.05731e-06
-2.54302e-05
-4.77096e-07
-4.33563e-05
-3.08723e-05
-1.98005e-05
1.1773e-05
-1.48329e-05
-1.42231e-05
-2.70766e-05
-7.78208e-06
-1.03839e-05
-3.83257e-05
-1.19391e-06
-3.95156e-05
-6.85645e-07
-1.0975e-05
-1.59393e-06
-3.97002e-06
-1.62303e-06
8.1538e-07
2.24047e-07
1.66517e-06
-1.29495e-06
5.24698e-06
-2.44707e-06
5.07313e-06
-4.52937e-06
5.42546e-07
-7.24411e-06
-6.30057e-06
8.67679e-05
9.74846e-06
8.1793e-07
2.26036e-06
1.61385e-05
-1.13426e-05
-9.0186e-06
-1.33363e-05
2.2119e-05
-1.4554e-05
1.80755e-05
-1.69841e-05
3.29537e-06
-2.05841e-05
1.06574e-05
-4.8734e-05
2.76728e-05
-5.14665e-05
-2.81398e-05
-2.39013e-05
-1.57923e-05
-1.18535e-05
-2.62709e-05
-2.26868e-05
3.05117e-06
-3.95943e-06
-5.70531e-05
-1.37019e-06
-4.21049e-05
-5.04237e-06
-7.30284e-06
-4.16281e-06
-4.84957e-06
-1.51641e-06
-1.83102e-06
2.20529e-06
-2.05654e-06
-5.6557e-07
8.01784e-06
-5.7767e-06
1.02843e-05
-2.52245e-06
-2.7117e-06
-9.76656e-06
-1.23239e-05
9.90919e-05
3.90223e-06
-1.54082e-05
1.15781e-05
8.46263e-06
4.3732e-06
-1.81367e-06
1.09071e-05
1.55851e-05
-3.04973e-06
3.20323e-05
-7.37356e-06
7.6192e-06
-3.88964e-06
7.17347e-06
-1.23492e-05
3.61323e-05
-1.04752e-05
-3.00137e-05
-1.43762e-05
-1.18912e-05
-5.07221e-06
-3.55749e-05
-7.89026e-06
5.86923e-06
-3.43914e-06
-6.15042e-05
-6.55677e-06
-3.89872e-05
-1.30639e-05
-7.95677e-07
-7.52932e-06
-1.03842e-05
-4.95039e-06
-4.40995e-06
1.56665e-06
-8.57358e-06
-7.52891e-06
1.71134e-05
-1.40005e-05
1.67559e-05
-7.17265e-06
-9.53958e-06
-1.69392e-05
-5.2852e-05
5.2852e-05
-7.18694e-05
1.90174e-05
-9.46247e-05
2.27553e-05
-0.000113481
1.88565e-05
-0.000110131
-3.34991e-06
-0.000110239
1.07879e-07
-0.000111878
1.63918e-06
-7.42389e-05
-3.76395e-05
-7.40034e-05
-2.35492e-07
-7.34851e-05
-5.18336e-07
-8.28348e-05
9.34978e-06
-0.000142583
5.97484e-05
-0.000140691
-1.89266e-06
-0.000134397
-6.29335e-06
-0.000129527
-4.87022e-06
-0.000110737
-1.87897e-05
-6.08977e-05
-4.98396e-05
-6.01179e-05
-7.79796e-07
-6.01179e-05
-2.42636e-05
7.71156e-05
-6.23284e-05
5.70822e-05
-8.30257e-05
4.34526e-05
-6.23316e-05
-1.83753e-06
-0.000104334
3.86525e-05
-0.000109753
5.52687e-06
-6.97935e-05
-3.83204e-05
-7.6441e-05
-3.0992e-05
-7.81679e-05
1.49138e-06
-0.000126362
4.76756e-05
-0.000127652
1.06396e-05
-8.1097e-05
1.31938e-05
-0.000122394
3.94046e-05
-0.000111269
-1.74189e-05
-6.66537e-05
-4.94852e-05
-9.37641e-05
8.32073e-06
-8.68353e-05
-5.67683e-05
-4.45084e-05
-4.31067e-05
-0.000104626
-2.53802e-05
0.000102496
-3.35462e-05
6.52482e-05
-2.63199e-05
3.62263e-05
-5.06519e-05
2.24945e-05
-9.65933e-05
8.45939e-05
-9.85503e-05
7.48388e-06
-0.000117003
-1.98675e-05
-0.000129807
-1.81883e-05
-0.000123272
-5.04349e-06
-0.000122176
4.65793e-05
-0.000121642
1.01061e-05
-0.00012301
1.45611e-05
-0.000112971
2.93655e-05
-9.6546e-05
-3.38434e-05
-0.000107367
-3.86645e-05
-9.41804e-05
-4.86563e-06
-7.4021e-05
-7.69278e-05
-2.82693e-05
-8.88584e-05
-0.000132896
-2.27071e-05
0.000125203
-4.03795e-05
8.29205e-05
-6.85119e-05
6.43586e-05
-9.94094e-05
5.3392e-05
-5.18142e-05
3.69987e-05
-8.72573e-05
4.2927e-05
-8.9415e-05
-1.77098e-05
-6.33135e-05
-4.42898e-05
-0.000112862
4.45046e-05
-6.75928e-05
1.31058e-06
-0.000108951
5.1464e-05
-0.000109451
1.50614e-05
-6.00394e-05
-2.00461e-05
-8.66166e-05
-7.26622e-06
-8.12762e-05
-4.4005e-05
-4.41286e-05
-4.20132e-05
-3.4834e-05
-8.62223e-05
-1.85246e-05
-0.000105168
-0.00015142
-2.55117e-05
0.000150715
-4.77975e-05
0.000105206
-6.48962e-05
8.14573e-05
-4.86294e-05
3.71253e-05
-7.37986e-05
6.21679e-05
-5.52845e-05
2.44128e-05
-3.52407e-05
-3.77537e-05
-8.47364e-05
5.20599e-06
-5.45647e-05
1.43328e-05
-9.79136e-05
4.46595e-05
-9.28489e-05
4.63993e-05
-8.6576e-05
8.78844e-06
-8.38537e-05
-2.27684e-05
-3.59116e-05
-5.52083e-05
-3.85536e-05
-4.1363e-05
-3.27731e-05
-4.77937e-05
-3.26101e-05
-8.63852e-05
-2.03228e-06
-0.000135746
-0.000153453
-2.79836e-05
0.000178698
-4.9378e-05
0.000126601
-5.77916e-05
8.98708e-05
-6.43253e-05
4.3659e-05
-4.00779e-05
3.79206e-05
-2.14388e-05
5.77368e-06
-2.83451e-05
-3.08473e-05
-3.08448e-05
7.70567e-06
-5.43919e-05
3.78799e-05
-3.48369e-05
2.51046e-05
-4.89908e-05
6.05533e-05
-4.48768e-05
4.67441e-06
-4.10772e-05
-2.6568e-05
-2.89825e-05
-6.7303e-05
-1.39589e-05
-5.63866e-05
-4.7826e-06
-5.697e-05
-6.53264e-06
-8.46352e-05
7.89486e-06
-0.000150173
-0.000145558
-5.50834e-05
0.000233782
-5.63405e-05
0.000127858
-4.25104e-05
7.60408e-05
-1.94809e-05
2.06294e-05
-6.85172e-06
2.52914e-05
1.9728e-06
-3.05084e-06
-7.98979e-06
-2.08848e-05
-3.58134e-05
3.55293e-05
-3.9084e-05
4.11505e-05
-4.49222e-05
3.09428e-05
-1.26663e-05
2.82974e-05
-1.73813e-06
-6.25377e-06
-4.84497e-06
-2.34611e-05
3.60816e-06
-7.57561e-05
1.09948e-05
-6.37732e-05
1.75938e-05
-6.3569e-05
1.70229e-05
-8.40643e-05
1.42338e-05
-0.000147384
-0.000131324
-7.38268e-05
0.000307608
-6.95851e-05
0.000123616
-1.89633e-05
2.5419e-05
-1.2225e-05
1.38912e-05
3.69165e-06
9.37475e-06
3.31163e-06
-2.67082e-06
-2.63178e-06
-1.49413e-05
-2.37691e-05
5.66666e-05
-3.57306e-05
5.3112e-05
-1.85531e-05
1.37653e-05
-4.91394e-06
1.46582e-05
2.04871e-05
-3.16548e-05
1.57002e-05
-1.86742e-05
2.54198e-05
-8.54758e-05
5.21901e-05
-9.05435e-05
5.20549e-05
-6.34338e-05
5.3711e-05
-8.57204e-05
2.07985e-05
-0.000114472
-0.000110525
3.17677e-05
6.73242e-05
1.20127e-05
4.34676e-06
1.10122e-05
9.46319e-06
-1.07024e-05
1.99009e-05
-1.45806e-05
1.94634e-05
-1.25413e-06
1.87058e-05
-8.79172e-06
1.51568e-05
-1.32781e-05
1.16598e-05
-1.30388e-05
3.5893e-05
-5.78557e-05
1.48031e-05
-3.56466e-05
-3.41004e-05
-5.39181e-06
-6.58297e-05
2.45224e-05
-2.4045e-05
-1.09121e-05
-2.60697e-05
-3.7986e-05
-1.19133e-05
-3.2533e-05
-6.24864e-06
-2.89947e-05
-1.39226e-05
-2.80595e-05
-5.34513e-06
-2.29573e-05
-1.36757e-05
9.33591e-07
-6.77753e-06
2.1025e-06
1.5587e-05
-5.26733e-05
4.52363e-05
2.91266e-05
-9.87391e-05
2.22068e-05
4.51173e-05
5.02303e-07
2.60513e-05
-2.08492e-05
3.08147e-05
-3.32496e-05
3.23013e-05
-1.8505e-05
4.71872e-06
-3.60505e-06
3.80586e-06
7.37601e-07
1.08141e-05
7.37517e-06
5.02228e-06
7.21056e-06
3.60576e-05
-1.81236e-05
4.01373e-05
-2.25475e-05
-2.96765e-05
-3.94262e-05
-4.8951e-05
-2.48645e-05
-3.86067e-05
-5.64965e-05
5.56226e-06
-8.51199e-05
1.67101e-05
-9.04348e-05
-9.33722e-07
-9.77176e-05
-6.63982e-06
-0.000104241
1.17823e-06
-0.000107617
-1.02996e-05
-0.000104909
-9.48569e-06
-0.000118389
2.90675e-05
-0.000110117
3.69636e-05
0.00010016
-0.00018115
-4.46789e-05
8.97962e-05
-6.08079e-05
4.21803e-05
-4.89167e-05
1.89235e-05
-3.41184e-05
1.75031e-05
-1.01145e-05
-1.92852e-05
8.74801e-06
-1.50566e-05
1.57158e-05
3.84633e-06
1.48439e-05
5.89421e-06
3.67531e-05
1.41485e-05
1.4676e-05
6.22144e-05
1.12114e-05
-2.62119e-05
-6.40078e-06
-3.13388e-05
-3.03119e-05
-1.46955e-05
-6.32106e-05
3.84609e-05
-7.24212e-05
2.59207e-05
-0.0001181
4.47451e-05
-0.000133718
8.97768e-06
-0.000151855
1.9316e-05
-0.000170657
8.502e-06
-0.000174756
-5.38646e-06
-0.000186093
4.04038e-05
-0.000217809
6.868e-05
9.52953e-05
-0.000212945
-4.11648e-05
0.000130961
-4.95873e-05
5.06027e-05
-4.19053e-05
1.12416e-05
-2.99956e-05
5.59335e-06
-1.66662e-05
-3.26146e-05
-1.08435e-05
-2.08793e-05
-3.09085e-05
2.39113e-05
-2.54655e-05
4.51204e-07
3.04528e-06
-1.43623e-05
9.78822e-07
6.42808e-05
1.55628e-05
-4.07958e-05
-5.41411e-06
-1.03619e-05
-2.99785e-05
9.86883e-06
-8.86062e-05
9.70886e-05
-0.000133995
7.13094e-05
-0.000135638
4.63886e-05
-0.000135913
9.25206e-06
-0.000106361
-1.02353e-05
-0.000116649
1.879e-05
-0.000169767
4.77313e-05
-0.000170779
4.14154e-05
-0.000191812
8.97134e-05
2.63882e-05
-0.000122905
-1.29962e-05
0.000143957
-3.87569e-06
4.14822e-05
1.38634e-05
-6.49752e-06
1.82249e-05
1.23188e-06
1.54138e-06
-1.59312e-05
2.03869e-05
-3.97248e-05
2.35483e-05
2.07499e-05
-4.48782e-06
2.84873e-05
-1.04887e-06
-1.78012e-05
3.34079e-05
2.9824e-05
-4.30843e-05
3.56965e-05
-9.89768e-05
4.55305e-05
-9.58875e-05
6.77958e-06
-0.000112786
0.000113987
-8.58324e-05
4.43556e-05
-7.34988e-05
3.40549e-05
-9.91949e-05
3.49482e-05
-0.000120803
1.1373e-05
-0.000105947
3.93364e-06
-9.57368e-05
3.75213e-05
-0.000143272
8.89505e-05
-9.86861e-05
4.51277e-05
7.16002e-05
-0.000143898
-2.3818e-06
0.000146339
-1.97562e-06
4.1076e-05
-1.59805e-06
-6.87508e-06
3.11744e-06
-3.48361e-06
3.02645e-07
-1.31164e-05
2.50694e-06
-4.19291e-05
3.31949e-06
1.99374e-05
-1.72248e-05
4.90316e-05
-5.16802e-05
1.66542e-05
-3.76726e-05
1.58164e-05
-3.16207e-05
2.96446e-05
-8.24931e-05
9.64029e-05
-8.71096e-05
1.13961e-05
-6.2401e-05
8.92787e-05
-8.16899e-05
6.36445e-05
-8.65685e-05
3.89336e-05
-9.84134e-05
4.6793e-05
-0.000130715
4.36745e-05
-0.000148699
2.19177e-05
-0.000151511
4.03332e-05
-0.000144035
8.14746e-05
-0.000142553
4.36453e-05
4.66668e-05
-0.000117619
1.34374e-05
0.000132902
5.03887e-06
4.94745e-05
2.22119e-07
-2.05831e-06
1.64683e-06
-4.90831e-06
-3.1338e-06
-8.33572e-06
-3.43557e-05
-1.07072e-05
-4.23592e-05
2.79409e-05
-3.27295e-05
3.94018e-05
-4.54195e-05
2.93443e-05
-3.94089e-05
9.80579e-06
-1.268e-05
2.91572e-06
-1.14173e-06
8.48646e-05
-5.16715e-05
6.19259e-05
-5.50575e-05
9.26648e-05
-7.64492e-05
8.50362e-05
-8.49288e-05
4.74132e-05
-8.45043e-05
4.63685e-05
-0.000122135
8.13053e-05
-0.00013881
3.85926e-05
-0.000162217
6.37407e-05
-0.00014905
6.83067e-05
-0.000150957
4.55524e-05
5.36566e-05
-0.000157946
1.82041e-05
0.000114698
1.11535e-05
5.6525e-05
-1.01593e-06
1.01112e-05
2.48883e-06
-8.41306e-06
-3.17463e-06
-2.67223e-06
-2.25391e-05
8.65732e-06
-2.09797e-05
2.63816e-05
5.78514e-07
1.78436e-05
9.62729e-06
2.02956e-05
-8.16598e-06
2.75991e-05
-2.91753e-05
2.39251e-05
-1.46627e-05
7.03521e-05
-5.24988e-05
9.97621e-05
-8.42606e-05
0.000124427
-7.6008e-05
7.67837e-05
-8.15314e-05
5.29367e-05
-0.000100562
6.5399e-05
-7.68725e-05
5.76158e-05
-0.000142269
0.000103989
-0.000154016
7.54877e-05
-0.000158443
7.27334e-05
-0.000190729
7.78387e-05
6.61092e-05
-0.000203182
4.26454e-05
7.20523e-05
4.77731e-05
5.13973e-05
1.41319e-05
4.37524e-05
2.1918e-06
3.52706e-06
-2.27048e-05
2.22244e-05
-5.79349e-05
4.38875e-05
-6.92682e-05
3.7715e-05
-9.36041e-05
4.21796e-05
-0.000104439
3.11309e-05
-0.000126102
4.92616e-05
-0.000132117
2.99407e-05
-0.000133289
7.15236e-05
-0.000156481
0.000122954
-0.000121602
8.95477e-05
-0.000130787
8.59692e-05
-0.000149373
7.15225e-05
-0.000156246
7.22721e-05
-0.000188585
8.99553e-05
-0.000164826
8.02301e-05
-0.0001771
8.77615e-05
-0.000185683
8.13167e-05
-0.000205399
9.75548e-05
0.000112199
-0.000251489
5.00606e-06
6.70462e-05
4.05557e-06
5.23478e-05
4.74245e-06
4.30656e-05
-1.0646e-05
1.89155e-05
-3.70341e-05
4.86126e-05
-5.75496e-05
6.4403e-05
-8.62969e-05
6.64624e-05
-6.98984e-05
2.57812e-05
-7.06283e-05
3.18608e-05
-0.000145018
0.000123651
-0.000208568
9.34915e-05
-0.000214765
7.77203e-05
-0.000187095
9.52845e-05
-0.000263839
0.000166292
-0.000264247
8.63773e-05
-0.000272741
8.00162e-05
-0.000236079
3.56107e-05
-0.000209218
6.30938e-05
-0.000259491
0.000130504
-0.000266911
9.51808e-05
-0.000236992
5.13976e-05
-0.000219989
8.05527e-05
0.000120623
-0.000228414
7.49276e-06
5.95535e-05
-1.12233e-05
7.1064e-05
-6.79006e-06
3.86324e-05
-3.19213e-05
4.40469e-05
-8.23698e-05
9.90611e-05
-0.000133539
0.000115572
-0.000147094
8.00178e-05
-0.000263151
0.000141839
-0.000328608
9.73179e-05
-0.000265661
6.07037e-05
-0.000292038
0.000119868
-0.000375748
0.000161431
-0.000392125
0.000111661
-0.000273648
4.78147e-05
-0.000250386
6.31161e-05
-0.000258167
8.77965e-05
-0.000343866
0.00012131
-0.000366495
8.57229e-05
-0.000274582
3.85912e-05
-0.00023549
5.60879e-05
-0.000292229
0.000108137
-0.000284647
7.29704e-05
0.000149959
-0.000313983
-4.28717e-06
6.38407e-05
-1.62575e-05
8.30344e-05
-6.82433e-05
9.06182e-05
-0.000174208
0.000150011
-0.000229969
0.000154823
-0.000251068
0.000136671
-0.000268775
9.77248e-05
-0.000289627
0.00016269
-0.000294976
0.000102667
-0.000267594
3.33218e-05
-0.000264898
0.000117172
-0.000237791
0.000134324
-0.0002456
0.00011947
-0.000348211
0.000150426
-0.000394911
0.000109817
-0.000378565
7.14502e-05
-0.000348504
9.12491e-05
-0.000357624
9.48424e-05
-0.000392479
7.34461e-05
-0.000402677
6.62863e-05
-0.000378821
8.42817e-05
-0.000411622
0.000105771
5.94339e-05
-0.000321097
-1.53131e-05
7.91538e-05
-7.5606e-05
0.000143327
-0.000174033
0.000189045
-0.00019026
0.000166238
-0.000183263
0.000147826
-0.000135312
8.87203e-05
-0.000154797
0.00011721
-0.000123094
0.000130987
-0.000160157
0.00013973
-0.000278759
0.000151924
-0.000320955
0.000159368
-0.000327738
0.000141108
-0.00033356
0.000125293
-0.000270843
8.77086e-05
-0.000275109
0.000114083
-0.000447885
0.000244226
-0.000511131
0.000154494
-0.00049976
8.34723e-05
-0.00051888
9.25656e-05
-0.000536518
8.39238e-05
-0.00051606
6.38242e-05
-0.0004927
8.2411e-05
7.02713e-05
-0.000503537
-4.18768e-05
0.000121031
-0.000131806
0.000233256
-0.000174237
0.000231477
-0.000172691
0.000164692
-0.000103441
7.8577e-05
-0.000184402
0.000169682
-0.000257378
0.000190186
-0.000315821
0.00018943
-0.000291783
0.000115692
-0.000308079
0.00016822
-0.000328149
0.000179438
-0.000333467
0.000146425
-0.000342968
0.000134793
-0.000414868
0.000159609
-0.000435553
0.000134769
-0.000311087
0.000119761
-0.000336319
0.000179726
-0.000433381
0.000180535
-0.000485286
0.00014447
-0.000501297
9.99353e-05
-0.000494696
5.72225e-05
-0.000453373
4.10888e-05
2.31554e-05
-0.000406257
-2.54101e-05
0.000146441
-7.20615e-05
0.000279908
-9.10113e-05
0.000250427
-0.000123305
0.000196986
-0.000273969
0.000229241
-0.000324306
0.000220019
-0.000334374
0.000200254
-0.000335231
0.000190287
-0.000311532
9.19935e-05
-0.000307495
0.000164183
-0.000318146
0.00019009
-0.000338273
0.000166553
-0.000310048
0.000106569
-0.000361958
0.000211519
-0.000449575
0.000222385
-0.000521542
0.000191728
-0.000549801
0.000207984
-0.000538471
0.000169205
-0.000487003
9.30024e-05
-0.000437113
5.00452e-05
-0.000403908
2.40178e-05
-0.000370265
7.44585e-06
-1.4227e-05
-0.000332883
-7.11578e-05
0.000217599
-0.000175512
0.000384263
-0.000215548
0.000290463
-0.000274515
0.000255952
-0.000340551
0.000295277
-0.000352445
0.000231913
-0.000332645
0.000180454
-0.000230347
8.79901e-05
-0.000290512
0.000152158
-0.000274138
0.000147809
-0.000195281
0.000111233
-0.000227729
0.000199001
-0.000357527
0.000236366
-0.00041106
0.000265053
-0.000447237
0.000258561
-0.000473038
0.000217529
-0.000467401
0.000202347
-0.000430998
0.000132802
-0.000391545
5.355e-05
-0.000359491
1.79912e-05
-0.000371975
3.65013e-05
-0.000344624
-1.99052e-05
-0.000123278
-0.000235574
-8.4695e-05
0.000302294
-0.000158295
0.000457862
-0.000192147
0.000324316
-0.000203536
0.000267341
-0.000193249
0.00028499
-0.000189974
0.000228638
-0.000176011
0.000166491
-0.000277837
0.000189817
-0.000265097
0.000139418
-0.000303558
0.000186269
-0.000411765
0.00021944
-0.000478808
0.000266045
-0.000426851
0.000184408
-0.000457367
0.000295569
-0.000474046
0.00027524
-0.000479915
0.000223398
-0.000442124
0.000164557
-0.000310479
1.15666e-06
-0.000271995
1.50657e-05
-0.000231241
-2.27633e-05
-0.000217979
2.32395e-05
-0.000124578
-0.000113306
-0.000107198
-0.000140659
-8.72952e-05
0.000389589
-0.000139803
0.00051037
-0.000194558
0.000379071
-0.000222805
0.000295588
-0.000200636
0.000262821
-0.000207943
0.000235945
-0.000250193
0.000208742
-0.000188255
0.000127879
-0.000234048
0.000185212
-0.000347162
0.000299383
-0.000417061
0.00028934
-0.000328098
0.000177081
-0.000466703
0.000323013
-0.00045227
0.000281136
-0.000426858
0.000249828
-0.00035851
0.00015505
-0.000228419
3.44651e-05
-0.000267523
4.02605e-05
-0.000325227
7.27701e-05
-0.0004272
7.92093e-05
-0.000426622
2.26605e-05
-0.000427925
-0.000112004
-0.000158944
-0.000376179
-0.000135881
0.000525471
-5.47237e-05
0.000429211
-0.000158758
0.000483105
-0.000199619
0.000336449
-0.000195687
0.000258889
-0.00021482
0.000255077
-0.000269372
0.000263293
-0.000264341
0.000122848
-0.000343072
0.000263943
-0.00035572
0.000312031
-0.000393444
0.000327064
-0.000419998
0.000203636
-0.000431212
0.000334227
-0.000350244
0.000200167
-0.000309139
0.000208723
-0.000266692
0.000112603
-0.000314391
8.21647e-05
-0.000360111
8.59797e-05
-0.000383464
9.61224e-05
-0.000385586
8.13309e-05
-0.000332875
-3.00504e-05
-0.000314507
-0.000130372
-0.000195486
-0.000277966
-5.78662e-05
0.000583338
-0.000119165
0.00049051
-0.000179213
0.000543153
-0.000203833
0.000361068
-0.000185055
0.000240111
-0.000204364
0.000274386
-0.00019538
0.00025431
-0.000265066
0.000192534
-0.000255811
0.000254689
-0.000265667
0.000321885
-0.000251987
0.000313384
-0.00032004
0.000271689
-0.00029697
0.000311158
-0.000260072
0.000163269
-0.000223475
0.000172126
-0.000197149
8.62768e-05
-0.0002009
8.59155e-05
-0.000238855
0.000123934
-0.000170561
2.78286e-05
-0.000139788
5.05574e-05
-0.00016937
-4.68476e-07
-0.000126072
-0.000173669
-0.000258153
-6.34048e-05
-4.71751e-05
0.000630511
-0.000128099
0.000571434
-0.00010635
0.000521403
-0.000185134
0.000439852
-0.000243014
0.00029799
-0.00020427
0.000235642
-0.00020693
0.000256969
-0.000238695
0.0002243
-0.00023803
0.000254024
-9.31795e-05
0.000177035
-0.000100375
0.000320579
-0.00010073
0.000272044
-5.12667e-05
0.000261695
-9.75193e-05
0.000209522
-7.10811e-05
0.000145687
-2.74231e-05
4.26186e-05
-3.63203e-05
9.48125e-05
-3.25111e-05
0.000120125
-1.36505e-05
8.96786e-06
4.28118e-06
3.26257e-05
4.36118e-05
-3.97991e-05
8.61757e-05
-0.000216233
-0.000251368
7.93907e-05
-5.58525e-06
0.000636094
-8.92922e-05
0.00065514
-5.31248e-05
0.000485236
-0.000129849
0.000516576
-0.000154118
0.000322259
-0.000223129
0.000304653
-0.000142198
0.000176039
-0.000160975
0.000243077
-5.4834e-05
0.000147883
-3.07739e-05
0.000152975
8.01032e-06
0.000281795
3.03342e-05
0.000249721
5.67062e-05
0.000235323
0.000109644
0.000156583
0.000116205
0.000139127
8.0096e-05
7.87273e-05
0.00011447
6.04385e-05
0.000108134
0.000126461
0.00011587
1.23144e-06
0.000170698
-2.22022e-05
0.000233018
-0.000102119
0.000262666
-0.000245881
-0.000179159
0.000190456
0.000128923
0.000507173
2.74416e-05
0.00075662
-2.63132e-05
0.000538991
-7.04363e-05
0.000560699
-0.000118445
0.000370267
-9.1687e-05
0.000277895
-0.000110767
0.00019512
-1.17938e-05
0.000144103
1.04494e-05
0.000125639
4.67882e-05
0.000116637
9.77306e-05
0.000230852
9.92591e-05
0.000248192
0.000133787
0.000200796
0.000224262
6.61083e-05
0.000227574
0.000135814
0.000154903
0.000151398
0.000169682
4.56604e-05
0.000263088
3.30546e-05
0.000267132
-2.81241e-06
0.000321569
-7.66392e-05
0.000304415
-8.49662e-05
0.000165408
-0.000106874
-0.000265612
0.000251861
9.11188e-05
0.000416054
9.87798e-05
0.000748958
3.49302e-05
0.000602839
3.2039e-05
0.000563589
-2.21494e-05
0.000424456
6.05401e-05
0.000195206
5.59712e-06
0.000250063
3.072e-05
0.00011898
6.41146e-05
9.22448e-05
9.88202e-05
8.19311e-05
0.000149366
0.000180307
0.000185183
0.000212374
0.000213504
0.000172475
0.000179474
0.000100139
0.000192623
0.000122665
0.000308923
3.50975e-05
0.000295633
5.89503e-05
0.00028329
4.53981e-05
0.000280563
-8.57893e-08
0.000224249
-2.03251e-05
0.00019934
-6.00569e-05
0.000203759
-0.000111293
-0.000200633
0.000138779
6.38962e-05
0.000352157
0.000143052
0.000669803
0.000165404
0.000580485
0.00018171
0.000547283
0.00015112
0.000455047
0.000167628
0.000178697
0.000141847
0.000275843
0.000149831
0.000110997
0.000140439
0.000101637
0.000112301
0.000110069
0.000133995
0.000158613
0.000203477
0.000142892
0.000239324
0.000136628
0.000271667
6.7796e-05
0.000259876
0.000134455
0.000200885
9.4088e-05
0.000202845
5.69909e-05
0.000263025
-1.47817e-05
0.000280698
-1.77597e-05
0.000297166
-3.6793e-05
0.000303944
-6.68342e-05
0.000267989
-7.53378e-05
-0.000142722
0.000210078
-1.51555e-05
0.000367312
0.000103625
0.000551021
0.000127981
0.000556129
0.0001755
0.000499766
0.000230081
0.000400465
0.000123306
0.000285473
0.000184754
0.000214395
0.000187533
0.000108219
0.000180449
0.000108721
0.00020689
8.36288e-05
0.000225178
0.000140325
0.000237684
0.000130386
0.000260111
0.000114201
0.000190095
0.000137812
0.00023292
9.16301e-05
0.000278925
4.80835e-05
0.000286071
4.98447e-05
0.000275815
-4.52556e-06
0.000278586
-2.05305e-05
0.000279209
-3.74165e-05
0.000262193
-4.98179e-05
0.000261518
-7.46627e-05
-0.000116133
0.000234928
3.17994e-05
0.000335512
0.000109493
0.000473326
0.000186994
0.000478629
0.000229101
0.000457659
0.000234397
0.000395168
0.000245283
0.000274586
0.000242322
0.000217357
0.000142984
0.000207557
0.000181744
6.99607e-05
0.000194222
7.11511e-05
0.000195805
0.000138742
0.000206607
0.000119584
0.000191102
0.000129706
0.000281705
4.72082e-05
0.0002797
9.36349e-05
0.000264828
6.29559e-05
0.000275113
3.95599e-05
0.000255555
1.5032e-05
0.000246526
-1.15012e-05
0.000260632
-5.15229e-05
0.000246251
-3.54365e-05
0.000207439
-3.58512e-05
-9.60414e-05
0.000187347
1.96774e-05
0.000315835
6.64392e-05
0.000426565
0.000143714
0.000401354
0.000183759
0.000417614
0.000196937
0.00038199
0.000159189
0.000312334
0.000152806
0.000223741
0.000192898
0.000167465
0.000131573
0.000131285
0.000140905
6.18193e-05
0.000192958
8.66894e-05
0.000202494
0.000110048
0.000216033
0.000116168
0.000156523
0.000106718
0.000225095
2.50626e-05
0.000227461
6.05906e-05
0.000224759
4.22616e-05
0.000213143
2.66479e-05
0.000200626
1.01596e-06
0.000150537
-1.434e-06
0.000154458
-3.9358e-05
0.000202213
-8.36057e-05
-5.97532e-05
0.000165924
2.29392e-05
0.000292896
7.18274e-05
0.000377677
0.000113348
0.000359833
0.00015871
0.000372252
0.000192125
0.000348575
0.000216904
0.000287555
0.000206348
0.000234297
0.000195339
0.000178475
0.000230074
9.65503e-05
0.000225376
6.6517e-05
0.000207512
0.000104554
0.00020796
0.0001096
0.000217569
0.000106558
0.000227732
9.65554e-05
0.000206343
4.64512e-05
0.000201925
6.50086e-05
0.000205567
3.86195e-05
0.000203465
2.87498e-05
0.000198477
6.00417e-06
0.000210531
-1.34881e-05
0.000204586
-3.34135e-05
0.000162025
-4.10444e-05
-5.21939e-05
0.000154466
1.21161e-05
0.00028078
5.46467e-05
0.000335146
8.82806e-05
0.0003262
0.000128093
0.00033244
0.000159676
0.000316993
0.000182807
0.000264424
0.000187603
0.000229501
0.000186312
0.000179766
0.00018446
9.84024e-05
0.000147321
0.000103656
0.000197968
5.39072e-05
0.000193339
0.000114229
0.000194142
0.000105755
0.000196203
9.44946e-05
0.000138171
0.000104483
0.000179772
2.34069e-05
0.000181558
3.68334e-05
0.000184378
2.59306e-05
0.000182286
8.09596e-06
0.000191185
-2.2387e-05
0.000177301
-1.95302e-05
0.000157148
-2.08912e-05
-5.3877e-05
0.000158831
9.95149e-06
0.000270829
4.51257e-05
0.000299972
7.14144e-05
0.000299911
0.000108176
0.000295679
0.000135518
0.000289652
0.000156629
0.000243313
0.000171805
0.000214325
0.000175851
0.00017572
0.00017232
0.000101934
0.000161474
0.000114502
0.000124323
9.10572e-05
0.000104067
0.000134486
0.000110265
9.95576e-05
0.000117649
8.71097e-05
0.000172127
5.00055e-05
0.000163158
3.23758e-05
0.000156695
4.32971e-05
0.00015147
3.11554e-05
0.000145244
1.43218e-05
0.00010918
1.36765e-05
0.000108434
-1.87838e-05
0.000146342
-5.87993e-05
-3.52467e-05
0.000127712
1.15496e-05
0.000259279
3.44947e-05
0.000277027
5.30122e-05
0.000281394
7.88953e-05
0.000269796
9.30144e-05
0.000275533
7.67171e-05
0.00025961
0.000161385
0.000129657
0.00012077
0.000216336
0.000122549
0.000100155
0.000160774
7.62779e-05
0.000116258
0.000135572
0.000152362
9.83823e-05
0.000169403
8.2516e-05
0.000180784
7.57287e-05
0.000156523
7.4267e-05
0.000155432
3.34664e-05
0.000154268
4.44605e-05
0.000150324
3.50995e-05
0.000147839
1.68073e-05
0.00015447
7.04489e-06
0.000141323
-5.63659e-06
0.000113657
-3.11331e-05
-4.38484e-05
0.000122259
8.20068e-06
0.000251078
1.78771e-05
0.00026735
3.37102e-05
0.00026556
5.1373e-05
0.000252133
8.73278e-05
0.000239578
0.000120664
0.000226274
0.000137564
0.000112756
0.000154321
0.000199579
0.000150046
0.00010443
0.000146279
8.00449e-05
0.000142107
0.000139744
0.00013392
0.00010657
0.00010655
0.000109885
0.000112175
7.01044e-05
0.000145297
4.11447e-05
0.000121266
5.74968e-05
0.000140894
2.48335e-05
0.000140248
3.57453e-05
0.000146004
1.10507e-05
0.000141497
1.15519e-05
0.000135379
4.81788e-07
0.000118253
-1.4007e-05
-3.29656e-05
0.00010737
1.42369e-05
0.000236842
3.29151e-05
0.000248672
5.70731e-05
0.000241402
7.96335e-05
0.000229573
9.64979e-05
0.000222714
0.000114501
0.000208271
0.000132729
9.45284e-05
0.000151231
0.000181077
0.000122027
0.000133635
6.81876e-05
0.000133884
0.000130278
7.76534e-05
0.000119293
0.000117555
0.000135343
9.38356e-05
9.49479e-05
0.000110499
8.55882e-05
5.05044e-05
0.000125927
1.71585e-05
0.000121515
2.92453e-05
0.000116124
4.11359e-05
0.000119478
7.69673e-06
0.000111021
2.00088e-05
0.000103894
7.60862e-06
0.000100348
-1.04607e-05
-2.77603e-05
9.51426e-05
8.24483e-06
0.000228597
2.5178e-05
0.000231739
4.2405e-05
0.000224176
5.91223e-05
0.000212855
7.40092e-05
0.000207827
7.22018e-05
0.000210078
7.80311e-05
8.86991e-05
0.000110256
0.000148852
0.0001174
0.000126491
0.000123328
0.000127956
6.1464e-05
0.000139517
0.000116847
6.21714e-05
0.000103072
0.000107611
0.000129231
8.43408e-05
0.000112211
6.75235e-05
7.14579e-05
5.7912e-05
7.24356e-05
2.82675e-05
0.000101188
1.23834e-05
7.32391e-05
3.56456e-05
6.55925e-05
2.76554e-05
8.72745e-05
-1.40733e-05
8.34704e-05
-6.65665e-06
-2.73402e-05
8.30503e-05
8.19977e-06
0.000220397
2.4471e-05
0.000215468
3.78033e-05
0.000210843
3.6207e-05
0.000214452
6.31662e-05
0.000180868
7.75751e-05
0.00019567
5.26251e-05
0.000113649
0.000107453
9.40239e-05
7.33427e-05
0.000160601
7.74557e-05
0.000123843
0.000103098
0.000113875
0.000106743
5.85261e-05
0.000112797
0.000101557
0.00011653
8.06081e-05
0.000110154
7.38989e-05
0.00010063
6.74364e-05
7.11535e-05
5.77438e-05
7.07898e-05
1.27471e-05
6.52468e-05
4.11886e-05
8.77313e-05
5.17098e-06
7.70702e-05
-3.4123e-06
8.13603e-05
-1.09467e-05
-5.62887e-06
5.9649e-05
7.4595e-06
0.000212937
2.73118e-05
0.000195615
3.24493e-05
0.000205706
2.10154e-05
0.000225885
7.35681e-05
0.000128315
5.87105e-05
0.000210527
7.57462e-05
9.66133e-05
7.70956e-05
9.26745e-05
5.85804e-05
0.000179116
0.000112977
6.94464e-05
0.000101316
0.000125536
0.000102028
5.78145e-05
0.000103598
9.99869e-05
0.000102074
8.21317e-05
9.6378e-05
7.95949e-05
9.12071e-05
7.26072e-05
9.31056e-05
5.58453e-05
6.50548e-05
4.07979e-05
6.18152e-05
4.44282e-05
7.57461e-05
-8.75995e-06
6.82731e-05
4.06065e-06
7.12488e-05
-1.39224e-05
-3.43857e-06
6.90584e-05
6.4482e-06
0.000206489
1.94943e-05
0.000182569
2.54504e-05
0.00019975