/*--------------------------------*- C++ -*----------------------------------*\
| =========                 |                                                 |
| \\      /  F ield         | foam-extend: Open Source CFD                    |
|  \\    /   O peration     | Version:     4.1                                |
|   \\  /    A nd           | Web:         http://www.foam-extend.org         |
|    \\/     M anipulation  |                                                 |
\*---------------------------------------------------------------------------*/
FoamFile
{
    version     2.0;
    format      ascii;
    class       volScalarField;
    location    "0.85";
    object      psi;
}
// * * * * * * * * * * * * * * * * * * * * * * * * * * * * * * * * * * * * * //

dimensions      [1 -1 -2 0 0 0 0];

internalField   nonuniform List<scalar> 
2268
(
-1905.96
-1327.95
-2786.84
-2119.29
-2603.84
-1852
-2187.11
-2012
-2264.8
-1166.83
-32.2261
-46.0759
-13.7626
-6.03245
-4.08249
-2.5259
-0.951465
-0.987065
-11.5331
-55.2467
-97.1185
-821.865
-1609.69
-1379.96
-817.719
-2435.5
854.028
-1415.4
-2406.27
-2522.57
-2834.38
-1885.28
-1922.35
-150.64
-251.288
-44.414
-15.1799
-7.82911
-6.20683
-2.73521
-1.11707
-3.15433
-8.25242
-8.34041
-146.432
-775.562
-632.317
634.416
-1389.54
1698.27
1530.49
-2112.64
-2622.02
-2846.27
-2499.34
-1209.32
-1104.56
-447.307
-84.4385
-27.7346
-22.0817
-25.4675
-7.07348
-2.0292
-1.20824
-1.51949
-10.4264
-74.5312
-273.06
-335.426
1036.95
-1632.26
1904.52
1636.14
-1754.72
-2691.12
-2825.03
-2746.35
-638.076
-2525.57
-498.67
-183.757
-102.493
-102.336
-151.622
-30.6237
-11.1648
-3.15483
-4.23397
-10.3393
-83.9932
-222.106
152.539
1191.25
-2398.46
2335.02
959.088
-2160.82
-2648.19
-2737.15
-2663.72
-2793.19
-2453.65
-796.692
-614.448
-296.388
-404.537
-624.098
-100.826
-34.9937
-11.5831
-25.9108
-38.5199
-176.21
-253.104
-191.569
2841.83
-1105.33
2818.16
2728.41
-79.3653
-1636.02
-2703.39
-2800.53
-2697.7
-2113.33
-1210.5
-1238.53
-788.812
-892.068
-1637.86
-435.128
-187.505
-80.3412
-168.641
-233.643
-523.423
-454.169
-382.958
2715.77
2174.76
2819.86
2549.74
931.758
190.312
-2445.45
-2857.53
-2813.04
-2033.04
-2048.75
-2245.75
-1871.41
-1513.05
-2610.75
-1157.43
-844.726
-654.089
-1209.95
-982.946
-964.974
-1140.41
840.392
2612.67
2838.17
2661.02
2795.32
2768.34
1843.23
-1633.4
-2801.24
-1733.33
-2855.01
-2803.12
-2754.94
-2852.05
-2346.01
-2857.32
-2151.83
-2184.72
-2521.22
-2666.06
-2448.12
-1989.75
-2776.56
-2130.31
-2108.75
-2021.26
-1869.31
-1677.87
-1478.96
-1184.69
-933.733
-824.941
-566.019
-864.059
-1704.96
-1992.96
-2081.82
-2124.7
-2145.44
-2162.38
-2429.81
-2417.21
-2128.07
-2067.32
-1846.25
-1382.4
-705.956
-293.451
-150.706
-397.435
-472.188
-483.637
-1118.3
-1621.67
-1797.12
-1602.44
-1361.64
-1952.66
-1349.59
-2294.14
-2303.98
-2123.54
-2053.01
-1768.34
-740.829
253.716
844.704
681.853
-342.133
-672.897
-890.802
-1163.31
-1160.84
-543.996
697.846
737.646
-324.532
-444.514
-1952.94
-2224.86
-2109.98
-1909.09
-901.509
544.988
1413.4
2447.51
2628.09
1326.3
-416.914
-807.634
-962.112
-590.068
815.145
2250.75
2468.54
1951.53
94.505
-1607.22
-2149.82
-2079.05
-1637.13
-124.04
1602.69
2590.12
2830.14
2857.64
2404.48
693.947
-319.185
-652.048
660.263
2354.65
2696.17
2696.69
2536.04
468.929
-1391.67
-2074.01
-2033.58
-1303.15
660.863
2249.11
2737.22
2850.73
2854.07
2845.55
2765.44
1320.74
221.943
2010.33
2792.05
2829.08
2632.09
2594.57
1171.46
-1277.58
-2020.45
-1943.89
-947.939
708.666
1740.05
2295.69
2764.07
2456.97
2844.63
2833.7
2821
2083.74
2854.35
2831.26
2412.26
1263.67
951.23
-18.6945
-1542.16
-1992.03
-1812.91
-177.605
1413.56
2203.19
1690.24
2760.27
1416.77
2764.94
2815.54
2820.4
2848.08
2853.98
2758.97
743.392
-660.825
-819.94
-1259
-1761.23
-1973.88
2674.15
2321.39
2491.24
2752.83
2724.51
2487.52
709.778
-1525.65
-2337.74
-1994
-796.966
-798.638
354.188
-2334.7
-2839.26
-2510.31
-2826.98
-2674.21
-2593.28
-2764.49
-2316.56
-1748.01
51.4944
1436.13
2544.87
2856.63
2748.63
1859.69
1186.69
2224.09
-1071.96
147.496
-1421.61
1984.95
893.75
1556.23
-2064.7
-2171.68
-1806.07
-2429.67
-2296.17
-1147.94
20.4059
225.621
229.883
400.489
1682.9
2855.24
2808.55
2784.75
2796.33
1894.86
2700.35
2378.39
2193.01
-194.245
2248
1494.92
1397.67
-2299.44
-2184.33
-1749.86
-2115.71
-1023.49
40.334
221.32
106.019
-387.767
-728.432
2429.74
2823.83
2761.67
2857.6
2535
2841.34
1863
1414.02
2171.26
1955.94
2847.97
2401.23
2081.69
-1520.77
-952.59
-1523.56
-1862.64
-1665.75
-278.261
348.412
279.41
-301.226
-849.517
2149.65
2715.32
2564.64
2820.33
2558.51
1955.57
2845.3
2574.77
2752.02
2347.04
2728.46
2591.27
2499.85
780.637
2242.65
627.273
-802.906
-1116.22
-356.081
835.761
1056
850.644
384.496
1491.72
1131.63
958.805
2036.78
850.569
1034.4
1947.7
2565.77
1431.87
2645.24
2695.93
2546.62
2831.04
2822.84
2123.09
2772.88
1149.64
565.809
1385
2346.94
2728.08
2847.35
2610.46
834.443
548.393
474.2
604.752
468.333
548.519
791.654
1172.33
665.861
1814.49
2856.83
1020.96
2716.98
1762.2
1345.1
2687.22
2650.81
2278.31
2725.34
2857.45
2617.43
2445.95
2607.85
495.627
414.755
336.438
347.462
294.149
261.934
303.516
348.273
198.491
346.919
1509.47
2373.38
1510.04
915.101
1387.43
2311.75
2798.76
2853.89
2791.69
2419.25
2031.21
2007.44
2215.93
382.987
364.989
315.35
312.131
267.195
206.692
180.376
233.578
410.779
696.643
1047.26
1722.55
801.218
878.703
1304.1
1683.65
1923.23
1982.91
1896.33
1417.7
1323.08
1718.29
1922.46
336.317
290.949
245.689
186.182
159.495
151.683
124.495
122.816
225.955
410.599
551.77
698.765
720.415
964.352
1110.49
1179.23
1225.43
1252.56
1183.27
1097.4
1219.21
1344.05
1502.99
294.216
190.433
118.431
62.9837
83.4935
121.983
127.518
186.226
287.142
377.462
489.899
637.098
753.997
879.341
959.781
1072.82
1111.95
1133.86
1150.31
1213.26
1377.61
1586.58
1837.05
241.907
115.114
47.1087
74.947
95.3515
108.924
118.656
155.142
196.931
234.215
363.012
493.309
628.336
804.515
882.374
910.05
912.31
879.473
891.922
1064.19
1239.71
1439.22
1608.52
182.898
66.7679
46.2413
69.448
77.3719
78.8161
85.5268
111.273
133.798
171.018
253.546
384.958
549.829
655.11
683.825
685.578
682.171
817.221
1082.49
1283
1473.07
1657.91
1822.55
116.555
46.959
46.1595
69.5379
82.5212
107.755
134.565
158.548
183.424
209.643
290.945
376.39
446.429
470.11
451.488
397.079
367.636
677.687
905.719
1069.95
1193.75
1283.83
1338.52
83.3288
34.0529
39.8997
84.3811
167.587
221.067
244.937
255.323
261.627
259.361
281.818
315.013
318.004
304.326
328.803
475.152
648.353
781.956
883.928
948.784
991.519
1023.12
1051.38
52.6774
34.2582
71.9088
186.74
257.642
272.747
272.376
255.82
238.002
231.129
232.73
222.91
241.826
297.527
359.292
480.394
552.837
583.203
446.486
305.132
240.603
198.374
175.819
36.5044
35.8354
96.5513
214.102
258.662
266.985
236.149
174.772
159.141
154.517
181.835
223.643
260.103
320.588
382.457
432.733
441.554
349.445
185.478
59.2932
28.862
16.8359
13.7451
25.3149
37.0435
113.011
213.802
245.442
237.907
160.973
100.373
86.3374
99.7871
151.069
207.032
259.394
309.837
336.817
334.883
247.877
118.001
40.0586
12.0979
14.3406
15.7147
9.13942
20.2245
33.7051
103.836
199.488
219.444
184.06
84.1661
47.8566
47.3559
69.8342
113.336
175.87
229.528
244.838
242.085
173.43
111.385
69.633
40.6856
34.9221
41.7977
44.132
19.6058
15.3516
31.0643
97.7271
178.609
192.608
167.068
81.6996
42.4737
32.4196
34.6713
58.1494
103.868
139.21
125.05
127.996
89.041
116.162
119.512
90.311
82.5533
94.2622
73.8754
41.8498
11.4551
27.1703
81.1444
152.698
165.79
152.583
80.8841
45.7884
35.9084
29.2399
26.6997
37.7271
54.8877
41.3713
55.6774
23.7504
62.6374
116.275
101.35
119.724
122.271
93.4426
55.6673
7.76478
20.3543
52.4446
118.48
132.56
133.648
81.1858
42.7419
32.8402
28.214
21.9536
18.1633
21.0123
15.2024
19.3762
9.58546
14.6348
61.2033
41.0806
72.3284
65.2565
39.5266
18.7855
4.69934
11.0942
24.6856
80.5815
87.1977
104.316
72.843
38.0268
21.5217
15.009
19.2635
14.5927
10.8998
5.88765
6.75193
5.19796
3.89887
18.6032
10.7489
13.6833
12.4167
8.2474
2.70677
2.14727
5.84261
11.1729
46.452
46.9013
55.7296
44.9769
25.6826
10.8122
3.62488
10.4399
9.48233
7.26531
3.52888
2.78461
2.31189
1.55383
2.9996
2.90242
1.96028
1.37568
1.04733
0.460827
0.726399
2.8928
4.83549
20.5746
23.4773
17.7107
19.803
12.9239
5.22491
1.24339
2.74306
3.99531
3.37483
1.9182
1.37753
0.842202
0.464949
0.647413
0.588567
0.474015
0.310484
0.202983
0.0990104
0.236053
1.39773
2.04791
8.87776
10.3958
6.13497
8.38435
5.1873
1.98312
0.464188
0.599361
1.02152
1.04481
0.763583
0.527298
0.322224
0.220737
0.110982
0.0765252
0.0533683
0.0326371
0.0214676
0.0110296
0.067168
0.530882
0.770089
3.17798
3.68782
2.19555
2.63229
1.73359
0.519808
0.105783
0.124411
0.251203
0.291831
0.250415
0.180743
0.0952727
0.0617395
0.0360642
0.0162169
0.00589331
0.00275234
0.00164897
0.000760596
0.0171591
0.177355
0.249267
1.02084
1.14864
0.662715
0.762376
0.537965
0.14334
0.0182096
0.0248285
0.0579658
0.0855971
0.0602254
0.041664
0.0257967
0.014097
0.00765264
0.00312313
0.000992111
0.000259094
9.3502e-05
4.68656e-05
0.0040303
0.0528247
0.0690333
0.281791
0.308085
0.182494
0.193892
0.133569
0.0392855
0.0063763
0.00431427
0.010871
0.0211351
0.0178728
0.0089197
0.00566387
0.00292482
0.00151086
0.000562641
0.000197043
6.1781e-05
1.72227e-05
5.20491e-06
0.000876648
0.0141196
0.0172075
0.0661172
0.0697359
0.0405107
0.0444289
0.0296118
0.00745076
0.00108281
0.000740226
0.00207055
0.00449371
0.0040656
0.00216248
0.00105917
0.000497995
0.000239378
8.14403e-05
2.28611e-05
6.44004e-06
1.73953e-06
4.22585e-07
0.000182889
0.00331624
0.00386483
0.0133741
0.0136187
0.0075356
0.00880944
0.00571683
0.00127794
0.000193605
8.55684e-05
0.000470737
0.000936971
0.000798844
0.00050147
0.000155796
6.71341e-05
2.87005e-05
8.99738e-06
2.0436e-06
3.53537e-07
6.43043e-08
1.69619e-08
3.68184e-05
0.000683388
0.000788787
0.00237484
0.00234848
0.00121504
0.00144807
0.000950658
0.000169218
2.33281e-05
1.27333e-05
0.00010506
0.000166869
0.000143202
8.49336e-05
2.433e-05
9.28831e-06
3.44347e-06
1.09142e-06
3.18287e-07
7.38618e-08
1.34177e-08
2.39015e-09
7.09477e-06
0.000128144
0.000148656
0.000383318
0.000370039
0.000195371
0.000144656
0.000142883
3.35047e-05
3.5254e-06
2.27737e-06
1.52177e-05
2.44673e-05
2.03407e-05
1.30605e-05
3.63022e-06
1.09429e-06
3.61484e-07
1.13548e-07
3.19677e-08
7.3496e-09
1.62708e-09
4.81122e-10
1.30903e-06
2.2255e-05
2.5664e-05
5.66137e-05
5.08455e-05
2.70071e-05
1.17431e-05
1.80955e-05
4.94397e-06
4.65929e-07
3.75669e-07
2.15623e-06
4.19845e-06
2.9328e-06
1.26027e-06
4.09179e-07
9.51564e-08
3.60032e-08
8.73293e-09
2.86854e-09
1.02045e-09
4.64751e-10
3.12866e-10
2.2611e-07
3.54263e-06
3.98796e-06
7.70124e-06
6.46389e-06
3.29884e-06
7.63131e-07
1.97027e-06
5.98095e-07
6.6432e-08
4.31253e-08
3.56941e-07
5.4913e-07
4.78292e-07
1.95179e-07
3.69281e-08
6.91213e-09
3.4688e-09
1.12413e-09
6.2937e-10
4.62023e-10
3.42879e-10
2.91948e-10
3.7431e-08
5.13718e-07
5.68585e-07
9.83416e-07
7.63628e-07
3.93945e-07
5.23556e-08
1.76663e-07
5.42421e-08
6.40645e-09
7.2523e-09
2.81187e-08
7.46185e-08
5.89042e-08
2.58569e-08
6.03903e-09
1.27238e-09
6.39374e-10
5.53882e-10
4.54747e-10
4.52928e-10
3.5925e-10
2.81943e-10
6.12269e-09
6.75526e-08
7.5608e-08
1.27286e-07
7.92959e-08
4.39349e-08
4.63294e-09
1.0038e-08
5.68888e-09
9.16768e-10
1.29239e-09
2.44289e-09
9.10039e-09
6.97854e-09
3.3915e-09
1.09594e-09
4.96584e-10
3.97449e-10
3.89264e-10
4.3201e-10
4.05635e-10
2.90129e-10
3.21052e-10
1.19507e-09
7.83892e-09
9.87527e-09
1.74586e-08
6.86939e-09
5.34782e-09
7.53059e-10
9.23135e-10
9.71339e-10
5.11136e-10
5.88443e-10
5.70252e-10
1.45064e-09
1.17688e-09
6.92125e-10
4.18367e-10
4.01997e-10
3.85626e-10
4.12001e-10
4.07454e-10
4.40196e-10
3.56522e-10
3.7744e-10
3.89263e-10
4.97491e-10
1.27784e-09
2.49747e-09
8.55832e-10
8.84028e-10
4.20186e-10
3.32875e-10
4.88399e-10
4.00178e-10
3.7744e-10
3.93811e-10
4.60204e-10
5.0295e-10
3.57431e-10
2.96495e-10
3.46517e-10
3.30147e-10
3.42879e-10
3.5925e-10
3.47427e-10
2.75577e-10
3.30147e-10
2.59206e-10
-2.14641e-10
2.71939e-10
6.12999e-10
4.30191e-10
4.28372e-10
3.93811e-10
3.12866e-10
3.64707e-10
3.4106e-10
3.73802e-10
3.85626e-10
4.10182e-10
3.67436e-10
3.11957e-10
3.14685e-10
3.51065e-10
3.41061e-10
4.07454e-10
3.36513e-10
3.85626e-10
2.39197e-10
3.51065e-10
1.94632e-10
-2.24646e-10
1.33696e-10
3.34694e-10
3.52884e-10
3.87445e-10
3.30147e-10
2.90129e-10
2.78305e-10
3.16504e-10
3.36513e-10
3.38332e-10
3.28328e-10
3.51065e-10
2.73758e-10
2.68301e-10
2.57387e-10
3.065e-10
3.5925e-10
3.61069e-10
2.80124e-10
2.77396e-10
3.2469e-10
1.74623e-10
-6.36652e-12
2.24645e-10
3.31056e-10
3.5925e-10
4.17458e-10
3.81078e-10
3.00133e-10
2.93767e-10
3.18323e-10
3.22871e-10
2.98314e-10
3.065e-10
3.62888e-10
3.16504e-10
3.11957e-10
3.08319e-10
3.49246e-10
4.09273e-10
3.22871e-10
2.85581e-10
3.51065e-10
2.57387e-10
266.444
-298.023
-426.183
-503.87
-276.842
-684.817
-934.685
-1183.75
-1470.96
-1681.91
-1802.96
-1854.16
-1302.3
-1435.97
-1480.86
-1409.91
-39.1027
838.933
1615.16
2236.83
2518.48
2836.8
2831.57
2796.73
2592.18
2440.24
2408.43
2475.69
2057.48
2022.5
2193.64
2293.95
2029.15
2260.02
2395.02
2458.16
1753.8
2007.45
2182.64
2297.71
1994.58
2107.22
2197.94
2269.03
1719.15
1788.33
1833.15
1871.12
1914.2
1972.5
2027.73
2085.03
1369.75
1377.24
1399.39
1437.38
1108.13
1128.19
1158.7
1182.4
260.216
280.496
322.516
348.988
12.498
12.4127
12.6029
12.7154
6.65658
5.50011
4.44672
3.72193
10.2965
7.10282
5.26928
3.22931
18.6077
7.66228
3.60078
1.56789
24.054
8.08338
2.6855
0.738531
8.59694
3.24705
1.54141
0.36126
1.53541
0.701231
0.320807
0.102447
0.177406
0.0934214
0.0416662
0.0153247
0.0423176
0.02356
0.0118265
0.00602247
0.00559285
0.00264159
0.000858266
0.000235946
0.000459047
0.000279743
0.000130392
5.04442e-05
2.97734e-05
2.02601e-05
1.11132e-05
4.63562e-06
2.00028e-06
1.10604e-06
5.91269e-07
2.73142e-07
1.26726e-07
5.43228e-08
2.23634e-08
8.35634e-09
5.71068e-09
2.5684e-09
1.21872e-09
6.31187e-10
6.95761e-10
3.51064e-10
2.67391e-10
2.57387e-10
2.65572e-10
2.59206e-10
2.96495e-10
3.30147e-10
2.7012e-10
2.60115e-10
3.18323e-10
3.67436e-10
2.80124e-10
3.41061e-10
3.39242e-10
3.14685e-10
2.7012e-10
3.03771e-10
2.86491e-10
2.07365e-10
3.44698e-10
3.67436e-10
3.28328e-10
1.9827e-10
3.81078e-10
3.85626e-10
3.16504e-10
1.00954e-10
3.12866e-10
2.77396e-10
1.76442e-10
2.81942e-11
3.01952e-10
2.53749e-10
1.60071e-10
-2.00093e-11
2.32831e-10
9.36777e-11
1.35515e-10
1.30058e-10
9.54969e-11
-3.27422e-11
7.45788e-11
4.54708e-12
-587.794
1463.72
2144.32
2285.25
2168.2
1272.15
283.639
756.937
2525.62
2729.61
2690.51
1562.62
699.851
-218.148
-1018.08
-1419.93
-1815.81
-1953.72
-1946.03
-1594.06
-2034.89
-1607.38
-2052.45
-1999.56
-1736.11
-761.942
-965.521
-2234.46
-1507.07
-1909.58
-1846.67
-1234.83
-56.0118
-185.333
-1072.19
-1832.07
-2003.57
-1829.05
-1864.41
-730.148
1581.72
-1178
1782.38
2381.35
2841.42
2734.64
1073.71
-928.091
-1312.68
1996.86
2606.59
2369.92
1911.75
1855.26
995.696
-849.67
-1308.03
-590.317
2258.11
2827.86
2476.17
2852.28
2741.76
2484.13
2692.95
2438.58
2038.56
2494.24
2847.66
2822.69
2293.08
1829.09
2674.04
2519.73
1711.86
72.7785
2757.25
2825.6
2733.49
2704.71
2537.77
2339.84
2413.41
2743.23
2836.44
2854.61
2831.31
2674.98
2317.82
949.982
1234.63
2840.21
2844.86
2510.23
259.181
2810.49
2649.49
2525.93
2413.49
2307.14
2440.58
2806.21
2854.16
2770.8
2462.96
1890.84
967.569
470.475
-107.737
1115.11
2850.88
2857.7
779.645
-835.63
2537.17
2542.79
2445.57
2376.26
2388.96
2702.11
2857.38
2756.45
2399.21
1496.28
628.606
54.5168
-225.809
-311.491
1067.13
2784.51
2853.88
360.427
-1363.59
2328.47
2319.09
2224.79
2311.4
2613.57
2813.69
2857.73
2795.47
2484.35
1812.93
909.47
-94.1597
-427.069
-413.267
529.161
2524.49
2856.99
1006.39
-1531.82
2482.13
2434.02
2275.54
2245.91
2379.71
2771.64
2853.48
2729.56
2537.98
2257.99
1579.58
144.499
-471.58
-610.893
-469.258
609.137
1583.22
1015.88
-1693.66
2390.01
2448.77
2412.85
2438.64
2824.08
2718
2564.68
2488.83
2405.17
2297.55
1975.79
930.992
113.687
-404.501
-615.684
-578.133
-634.262
-633.853
-1677.72
2352.41
2443.48
2530.46
2803.1
2815.07
2645
2583.48
2583.26
2535.23
2609.4
2411.37
2019.95
1467.3
976.184
442.718
-90.8541
-1056.54
-1196.72
-1072.53
1917.49
2199.19
2392.06
2624.51
2791.4
2853.64
2837.63
2855.01
2857.73
2854.1
2727.32
2748.14
2685.6
2556
2327.81
1928.18
569.294
192.101
217.982
2181.53
2377.68
2508.44
2634.12
2665.35
2547.3
2501.36
2207.06
2144.09
2117.9
2453.23
2495.26
2676.04
2829.99
2847.9
2744.52
2112.64
1714.61
1581.49
1508.93
1338.64
1504.67
1690.26
1741.75
1707.72
1526.12
1350.69
1230.79
1036.47
1354.92
1508.41
1599.47
2156.05
2639.09
2784.47
2832.76
2736.21
2700.4
1220.95
1292.6
1244.7
1186.11
981.164
928.248
753.367
650.488
589.95
447.75
658.995
737.506
680.412
983.945
1822.47
2004.92
2505.6
2655.33
2726.33
373.771
338.293
319.063
300.997
254.261
288.597
287.154
248.018
244.286
210.476
240.333
219.789
192.743
273.166
718.928
998.413
1401.09
1646.92
1752.22
13.0901
8.75222
29.0765
42.2819
44.8082
67.042
87.0631
67.6283
80.6866
86.1041
47.8098
42.6783
29.2936
40.8971
141.227
331.494
518.421
789.33
807.622
2.76784
1.68353
4.64722
8.01633
11.5224
16.2646
20.8581
15.9603
20.7128
30.6204
7.59812
6.21892
3.93198
5.76732
22.2543
76.6028
234.295
409.944
386.391
1.88167
0.548233
0.694549
1.00802
1.88271
2.46069
2.79787
2.877
4.78927
10.5935
2.26164
1.08879
0.61428
0.816165
5.34864
48.1937
177.683
253.44
233.007
0.956662
0.147436
0.179544
0.105644
0.184719
0.228293
0.331753
0.450933
1.18876
3.11954
1.07126
0.339463
0.212541
0.465832
3.70633
53.4952
151.834
171.812
171.556
0.212769
0.0304431
0.0464639
0.0169458
0.0480788
0.0413644
0.0934134
0.105955
0.397331
0.850851
0.360553
0.114699
0.0995911
0.584854
9.30021
63.783
116.864
110.874
141.002
0.095747
0.0123182
0.00920078
0.00234178
0.00332575
0.00595693
0.029943
0.0215802
0.137098
0.170104
0.0825312
0.0318335
0.0449861
0.468468
11.6536
45.8718
62.0962
58.5329
121.087
0.0214846
0.00253836
0.000867784
0.000317161
0.000327847
0.000997684
0.00234452
0.00295096
0.0170058
0.0212672
0.0141282
0.00999417
0.0200275
0.0504074
1.02913
11.0613
20.6065
23.7415
105.205
0.00367795
0.000513301
0.000145044
4.30879e-05
4.86681e-05
9.83049e-05
0.00018191
0.000334193
0.00235003
0.00309513
0.00202972
0.00279426
0.0093984
0.0258081
0.151885
1.26503
4.46467
9.44756
92.0965
0.00193936
0.00030049
5.24285e-05
9.95933e-06
6.01069e-06
6.39017e-06
1.21229e-05
3.94717e-05
0.000510809
0.000490625
0.000310091
0.00107084
0.00482266
0.0128372
0.0425303
0.204454
1.16618
5.42667
82.5574
4.45715e-05
8.9127e-06
2.14143e-06
6.84168e-07
9.36032e-07
1.03931e-06
2.02624e-06
8.27773e-06
0.000110306
3.51444e-05
4.68272e-05
0.00057615
0.00195741
0.00591417
0.0149166
0.0756218
0.635552
4.45709
73.0072
1.07958e-05
1.86462e-06
3.54198e-07
9.13621e-08
1.6558e-07
1.70243e-07
3.81373e-07
4.86555e-07
1.20312e-06
3.42388e-06
1.62523e-05
0.000353248
0.00127385
0.00340356
0.00920132
0.0525956
0.517628
4.0594
60.7437
9.17376e-07
1.30615e-07
3.42642e-08
9.96712e-09
1.17843e-08
1.85864e-08
3.37767e-08
4.82703e-08
3.30487e-07
2.11713e-06
1.19368e-05
0.00022613
0.000947073
0.00238642
0.00855318
0.0888495
0.678076
3.66172
52.2507
6.26493e-08
9.68698e-09
2.08546e-09
5.11133e-10
9.11311e-10
1.45246e-09
3.02315e-09
1.35814e-08
2.55966e-07
1.91382e-06
1.77543e-05
0.000215495
0.000792721
0.00210318
0.00881883
0.098793
0.704726
3.33203
46.3801
1.76713e-09
4.03813e-10
1.99179e-10
1.58252e-10
1.90994e-10
3.67435e-10
2.25554e-09
2.23597e-08
9.01072e-07
7.46121e-06
3.8639e-05
0.00025035
0.000752038
0.00170482
0.00730459
0.129288
0.74811
2.91307
40.8641
2.88309e-10
2.06455e-10
1.71894e-10
1.56433e-10
1.58252e-10
4.30189e-10
7.01128e-09
5.80088e-08
2.44202e-06
1.43371e-05
6.02459e-05
0.00038357
0.000710043
0.0013429
0.00586247
0.138851
0.657718
2.35804
35.9493
2.14641e-10
1.90994e-10
1.71894e-10
1.71894e-10
2.43744e-10
1.36879e-09
1.60526e-08
9.69429e-08
4.17572e-06
1.75195e-05
6.24005e-05
0.000387235
0.000435044
0.000727395
0.00301187
0.097916
0.370336
1.4905
31.5634
2.65572e-10
2.32831e-10
1.89175e-10
1.58252e-10
3.14685e-10
1.98451e-09
2.50338e-08
1.50544e-07
5.63054e-06
1.80818e-05
7.16187e-05
0.000475734
0.000175099
0.00019009
0.00191856
0.0805475
0.200778
1.10476
27.7638
3.065e-10
1.84627e-10
1.2551e-10
1.76442e-10
4.43833e-10
2.23735e-09
2.72148e-08
1.84394e-07
6.9311e-06
5.59201e-06
2.35452e-05
7.86071e-05
6.729e-05
0.000125016
0.00145967
0.0344459
0.0501009
1.28169
41.3002
1.30058e-10
1.23691e-10
1.11868e-10
2.24645e-10
5.94809e-10
3.18869e-09
1.57388e-08
7.71331e-08
4.52062e-06
1.51585e-06
1.41897e-05
1.53631e-05
5.31767e-05
0.000136438
0.000611441
0.0126969
0.0149091
0.516302
23.1094
-6.36658e-12
1.11868e-10
8.54924e-11
2.41925e-10
7.86713e-10
3.74257e-09
1.03528e-08
4.22649e-08
8.96085e-07
2.06289e-07
4.47653e-06
5.10543e-06
6.40047e-05
0.000216116
0.000560635
0.00288329
0.00544399
0.162632
20.9977
-9.27686e-11
9.09495e-11
1.21872e-10
2.39197e-10
3.12866e-10
2.29193e-09
5.64796e-09
2.16096e-08
4.11189e-08
3.49353e-08
8.18705e-07
2.79581e-06
0.000100079
0.000277153
0.000511976
0.000728853
0.0049489
0.0552739
15.7491
-1.28239e-10
1.03682e-10
7.45785e-11
1.0732e-10
2.3374e-10
5.60248e-10
1.35878e-09
5.26597e-09
1.46245e-09
2.45145e-08
2.44573e-07
2.27633e-06
0.000157539
0.000362871
0.000508899
0.000704142
0.00758404
0.0166334
12.7025
-1.11868e-10
1.94632e-10
8.54925e-11
6.27551e-11
1.82808e-10
2.5102e-10
4.25643e-10
2.25553e-10
2.45556e-10
3.03325e-08
1.62623e-07
3.33995e-06
0.00026551
0.000482058
0.000559375
0.000746174
0.00853994
0.0130447
8.99691
6.09361e-11
3.59251e-10
1.01863e-10
5.09317e-11
1.35515e-10
1.78261e-10
2.65572e-10
6.36631e-12
1.30048e-10
4.08226e-08
1.87827e-07
3.81047e-06
0.000334171
0.000547996
0.000611055
0.000802285
0.00909259
0.0126602
6.32843
3.44699e-10
3.85626e-10
-2.0009e-11
-3.00135e-11
2.71939e-10
2.67391e-10
3.12866e-10
-3.27419e-11
1.07309e-10
4.72146e-08
2.01609e-07
4.59691e-06
0.000391447
0.000596013
0.000640218
0.000842828
0.00915098
0.0130882
10.1225
3.14685e-10
4.01997e-10
-3.638e-11
2.59206e-10
3.65617e-10
3.73802e-10
4.01997e-10
-1.35515e-10
1.546e-10
5.71008e-08
2.05878e-07
3.36258e-06
0.000404953
0.000606622
0.000648698
0.000911379
0.0112371
0.0128569
4.68956
)
;

boundaryField
{
    leftWall
    {
        type            zeroGradient;
    }
    rightWall
    {
        type            zeroGradient;
    }
    lowerWall
    {
        type            zeroGradient;
    }
    atmosphere
    {
        type            zeroGradient;
    }
    defaultFaces
    {
        type            empty;
    }
}


// ************************************************************************* //
