/*--------------------------------*- C++ -*----------------------------------*\
| =========                 |                                                 |
| \\      /  F ield         | foam-extend: Open Source CFD                    |
|  \\    /   O peration     | Version:     4.1                                |
|   \\  /    A nd           | Web:         http://www.foam-extend.org         |
|    \\/     M anipulation  |                                                 |
\*---------------------------------------------------------------------------*/
FoamFile
{
    version     2.0;
    format      ascii;
    class       volVectorField;
    location    "0.85";
    object      U_0;
}
// * * * * * * * * * * * * * * * * * * * * * * * * * * * * * * * * * * * * * //

dimensions      [0 1 -1 0 0 0 0];

internalField   nonuniform List<vector> 
2268
(
(-0.0708582 -0.0180671 0)
(0.135283 0.0295074 0)
(-0.247115 0.016352 0)
(-0.122747 -0.035 0)
(-0.113147 0.00631393 0)
(-0.271949 0.00682137 0)
(-0.0400552 -0.078901 0)
(0.0195497 -0.0761445 0)
(0.0811163 0.0321059 0)
(-0.140747 0.117818 0)
(-0.139516 0.000407174 0)
(-0.111606 -4.20116e-08 0)
(-0.0496056 -0.0177074 0)
(-0.0347313 -0.00518755 0)
(-0.00705896 0.00295945 0)
(0.00447751 -0.00748554 0)
(0.0336653 -0.0027682 0)
(0.0236808 0.0180607 0)
(-0.0213802 0.00530032 0)
(-0.0364735 -0.0142724 0)
(-0.020071 -0.0188737 0)
(0.0331839 -0.00814818 0)
(0.00364123 -0.00252458 0)
(-0.178798 -0.00244205 0)
(0.00167328 0.104754 0)
(-0.416534 0.0948071 0)
(-0.201542 -0.0361977 0)
(-0.068879 -0.0074255 0)
(-0.151946 0.0309832 0)
(-0.156694 -0.0547463 0)
(-0.441898 0.00454556 0)
(-0.49512 0.129064 0)
(-0.305977 -0.0289997 0)
(-0.175627 -0.00583823 0)
(-0.155458 -0.0507838 0)
(-0.085217 -0.0132902 0)
(-0.0389573 -0.0523873 0)
(-0.000150471 -0.0283214 0)
(0.00671279 -0.0107129 0)
(0.0291065 -0.00842077 0)
(0.021201 0.0109164 0)
(0.0204505 0.00895085 0)
(0.0284763 0.0246815 0)
(0.000382345 -0.010002 0)
(-0.0157007 -0.0073495 0)
(0.00191666 0.0210011 0)
(-0.183181 0.0470526 0)
(-0.174316 0.0384577 0)
(-0.336631 0.0765096 0)
(-0.114017 -0.0620475 0)
(-0.221222 -0.0336292 0)
(-0.0617515 0.0533593 0)
(-0.20527 -0.0573351 0)
(-0.389516 0.0105439 0)
(-0.281622 0.115403 0)
(0.261086 -0.163503 0)
(0.0325922 0.0515184 0)
(-0.163686 -0.0803075 0)
(-0.149745 -0.0229275 0)
(-0.110461 -0.078823 0)
(-0.019469 -0.0252396 0)
(0.00645196 -0.0212377 0)
(0.0210882 0.00527375 0)
(0.0123613 0.00503443 0)
(0.0207896 0.0154031 0)
(0.0302453 0.00917556 0)
(-0.00253446 -0.0082889 0)
(-0.0140366 -0.0107302 0)
(0.00104787 0.00237141 0)
(-0.330088 0.129038 0)
(-0.275212 0.0866493 0)
(-0.267699 0.132778 0)
(-0.138099 -0.0737291 0)
(-0.269789 -0.0536244 0)
(-0.0750833 0.0506469 0)
(-0.261217 -0.0448658 0)
(-0.426897 0.0096181 0)
(-0.132884 0.032108 0)
(-0.0685728 -0.173422 0)
(-0.0260039 0.190625 0)
(-0.213333 -0.0653646 0)
(-0.175379 -0.0109189 0)
(-0.165898 -0.0774033 0)
(-0.0548983 -0.0788948 0)
(-0.0394108 -0.0261152 0)
(0.0102061 -0.0137101 0)
(0.00365728 0.0142218 0)
(0.0209475 0.0136935 0)
(0.0254882 0.0166315 0)
(-0.0084565 0.0104453 0)
(-0.0228646 -0.00476753 0)
(-0.00490562 0.00518111 0)
(-0.418846 0.219032 0)
(-0.254685 0.0879674 0)
(-0.17817 0.142949 0)
(-0.069279 -0.167144 0)
(-0.218947 0.0102968 0)
(-0.169261 0.0638162 0)
(-0.307029 -0.0119826 0)
(-0.362789 -0.00591601 0)
(-0.272859 -0.0425192 0)
(-0.354219 -0.202666 0)
(-0.163627 0.13946 0)
(-0.256016 -0.06683 0)
(-0.188694 -0.0537811 0)
(-0.228633 -0.0969475 0)
(-0.0625977 -0.14477 0)
(-0.0199186 -0.0317157 0)
(-0.0119488 -0.0130955 0)
(-0.0180307 -0.00462413 0)
(0.0139709 0.0169901 0)
(0.0093827 -0.00179169 0)
(-0.0277466 0.00919111 0)
(-0.0224218 -0.0124983 0)
(-0.0101704 -0.0113377 0)
(-0.357747 0.285221 0)
(-0.0291709 0.057295 0)
(-0.120549 0.0381186 0)
(0.170857 -0.215073 0)
(-0.143957 0.0257549 0)
(-0.14325 0.0615231 0)
(-0.116548 0.0214313 0)
(-0.283344 -0.00491592 0)
(-0.370913 -0.016548 0)
(-0.38718 -0.136255 0)
(-0.301957 0.124555 0)
(-0.273909 -0.0734866 0)
(-0.186364 -0.0858018 0)
(-0.237712 -0.232709 0)
(-0.0520187 -0.0704448 0)
(0.00898235 -0.0434295 0)
(-0.0183626 -0.0247493 0)
(-0.0260719 0.0178216 0)
(-0.00267296 0.0078749 0)
(0.00567728 0.0319131 0)
(-0.0287163 0.0485685 0)
(-0.0388863 -0.0128841 0)
(-0.0345783 -0.0252649 0)
(-0.224858 0.334139 0)
(0.142295 0.0533942 0)
(0.102195 0.045815 0)
(-0.0376816 -0.105937 0)
(-0.123666 0.109405 0)
(-0.119741 0.0848579 0)
(-0.0916348 0.0020306 0)
(-0.191502 0.0508945 0)
(-0.402294 0.0213914 0)
(-0.370659 -0.108023 0)
(-0.46692 -0.0328683 0)
(-0.208821 -0.0151933 0)
(-0.175903 -0.0312821 0)
(-0.14864 -0.248821 0)
(0.018771 -0.250024 0)
(-0.0452315 -0.0341482 0)
(-0.0357044 -0.0275412 0)
(-0.0282018 -0.00606599 0)
(0.00211381 0.00231561 0)
(0.0287933 0.0398715 0)
(-0.0420081 0.0230265 0)
(-0.0368386 0.0251304 0)
(-0.037006 -0.018545 0)
(-0.101317 0.305924 0)
(-0.0792492 -0.0490427 0)
(0.121752 0.0507631 0)
(0.0470907 -0.0205785 0)
(0.0801325 0.0779522 0)
(0.068322 0.116332 0)
(-0.164575 0.012147 0)
(0.0597456 0.023925 0)
(-0.178227 0.157677 0)
(-0.0193951 -0.123867 0)
(-0.307936 -0.0780999 0)
(-0.112354 -0.214653 0)
(-0.0606311 0.0676783 0)
(-0.0433961 -0.204169 0)
(-0.0606728 -0.339655 0)
(-0.0572415 -0.0187743 0)
(-0.146157 -0.0433581 0)
(-0.0751278 -0.0151154 0)
(-0.00511079 -0.0164828 0)
(0.024978 0.0766289 0)
(-0.138544 0.0567966 0)
(-0.0608202 -0.0684296 0)
(-0.0748626 -0.140988 0)
(-0.384291 0.105482 0)
(-0.428157 0.031765 0)
(-0.671758 0.0672208 0)
(-0.874115 0.0367107 0)
(-0.921437 -0.0495333 0)
(-0.878014 -0.00883182 0)
(-0.893979 0.0296836 0)
(-1.01505 -0.131014 0)
(-1.13648 -0.0571823 0)
(-1.03447 -0.102275 0)
(-1.1805 0.0612848 0)
(-1.21923 0.137979 0)
(-1.17654 -0.0429748 0)
(-1.09098 0.00157202 0)
(-1.0664 -0.0218376 0)
(-0.956509 -0.121114 0)
(-0.938883 -0.142585 0)
(-0.798382 0.042889 0)
(-0.126937 -0.132863 0)
(-0.336132 0.277697 0)
(-0.391748 0.098524 0)
(-0.562507 0.0866129 0)
(-0.831578 0.0595834 0)
(-0.903331 0.0383188 0)
(-0.772897 0.0229635 0)
(-0.985268 -0.0485294 0)
(-1.08029 -0.124482 0)
(-1.18024 0.0436828 0)
(-1.07124 0.118139 0)
(-1.04049 0.0773589 0)
(-1.18237 0.19631 0)
(-1.10242 0.0504654 0)
(-0.916678 -0.0426647 0)
(-0.98469 -0.0643627 0)
(-0.871176 0.00103723 0)
(-0.741131 -0.174782 0)
(-0.570889 -0.0460449 0)
(-0.130556 -0.27984 0)
(-0.42568 0.639456 0)
(-0.317092 0.282383 0)
(-0.212236 0.207048 0)
(-0.619014 -0.0587813 0)
(-0.83448 0.217395 0)
(-0.713105 0.00167648 0)
(-0.868399 -0.155292 0)
(-1.01439 -0.0646132 0)
(-1.03082 -0.0273523 0)
(-1.01057 0.187397 0)
(-0.97139 -0.0164521 0)
(-1.00854 0.0162988 0)
(-0.999701 0.158758 0)
(-0.823659 -0.173832 0)
(-0.82469 -0.2289 0)
(-0.882443 0.0375867 0)
(-0.69197 -0.266417 0)
(-0.413291 -0.254893 0)
(-0.0285725 -0.403158 0)
(-0.442919 0.715156 0)
(-0.24079 0.526823 0)
(-0.367571 0.229493 0)
(-0.741489 0.202089 0)
(-0.855572 0.318951 0)
(-0.677502 0.0852094 0)
(-0.676958 -0.119277 0)
(-0.836422 -0.205912 0)
(-0.94044 0.0249648 0)
(-0.934999 0.0789262 0)
(-0.955352 0.152662 0)
(-0.866945 0.0935485 0)
(-0.958049 0.055534 0)
(-0.766619 -0.0488812 0)
(-0.646874 -0.249511 0)
(-0.657519 -0.0587604 0)
(-0.686663 -0.220874 0)
(-0.275766 -0.320034 0)
(-0.00833997 -0.473762 0)
(-0.422836 0.897186 0)
(-0.334762 0.576174 0)
(-0.402605 0.233665 0)
(-0.668948 0.148998 0)
(-0.723423 0.18531 0)
(-0.471429 0.201465 0)
(-0.392752 -0.0152582 0)
(-0.634891 -0.0219971 0)
(-0.766837 0.194648 0)
(-0.791536 -0.0052192 0)
(-0.810362 0.170234 0)
(-0.67425 -0.0239875 0)
(-0.705082 -0.169846 0)
(-0.636802 -0.0631132 0)
(-0.412173 -0.3178 0)
(-0.203593 -0.310961 0)
(-0.366313 -0.470757 0)
(-0.0835945 -0.369587 0)
(0.0501696 -0.503951 0)
(-0.509879 1.02732 0)
(-0.324989 0.74479 0)
(-0.437026 0.293311 0)
(-0.507666 0.132519 0)
(-0.489572 0.222728 0)
(-0.153481 0.107198 0)
(-0.156293 -0.203818 0)
(-0.347328 0.03536 0)
(-0.427348 0.0250789 0)
(-0.509768 0.242164 0)
(-0.489261 0.163835 0)
(-0.309571 0.0752481 0)
(-0.37331 -0.119461 0)
(-0.253785 -0.268566 0)
(-0.215057 -0.241313 0)
(0.0207045 -0.238487 0)
(-0.201715 -0.630675 0)
(0.14093 -0.508004 0)
(0.0981072 -0.48728 0)
(-0.41777 1.29794 0)
(-0.453199 0.865856 0)
(-0.428114 0.30889 0)
(-0.252953 0.150235 0)
(-0.33096 0.251529 0)
(0.115572 -0.0535877 0)
(-0.0468744 -0.209941 0)
(-0.208553 0.0685232 0)
(-0.323507 0.225937 0)
(-0.350734 0.109049 0)
(-0.353334 0.213414 0)
(-0.0164857 0.00462764 0)
(-0.0542 -0.0741269 0)
(-0.00333834 -0.221527 0)
(0.10407 -0.473494 0)
(0.0768277 -0.141358 0)
(0.204242 -0.293824 0)
(0.298943 -0.503697 0)
(0.154501 -0.453013 0)
(-0.552747 1.38912 0)
(-0.6565 0.672683 0)
(-0.446695 0.207224 0)
(-0.123539 0.118835 0)
(-0.0625103 0.0820413 0)
(0.104904 0.00727628 0)
(0.00815663 -0.0744477 0)
(-0.0921993 0.183885 0)
(-0.26848 0.219012 0)
(-0.324863 0.0867583 0)
(-0.218339 0.165613 0)
(0.133118 -0.0879767 0)
(0.155286 -0.0725276 0)
(0.339649 -0.259888 0)
(0.425497 -0.307512 0)
(0.391437 -0.344899 0)
(0.457767 -0.299065 0)
(0.404473 -0.415175 0)
(0.226262 -0.393098 0)
(0.0784591 0.500017 0)
(0.121787 -0.0496446 0)
(0.0627393 -0.0150439 0)
(0.0139823 0.00196563 0)
(-0.158655 0.171004 0)
(0.050841 0.140095 0)
(-0.0596274 0.0541609 0)
(-0.0695337 0.0296757 0)
(-0.0238727 0.101443 0)
(-0.156465 -0.0626525 0)
(-0.285631 -0.114138 0)
(-0.177503 -0.310041 0)
(0.0989202 -0.0708275 0)
(0.0702214 -0.251443 0)
(-0.15585 -0.139699 0)
(-0.119084 0.0294425 0)
(-0.120935 -0.0239404 0)
(-0.0924744 -0.0217331 0)
(-0.108429 -0.0655434 0)
(-0.0558343 0.0219448 0)
(0.0696863 0.0560218 0)
(-0.0625187 0.0613657 0)
(-0.295476 0.131375 0)
(0.128864 0.421642 0)
(0.0258796 0.080306 0)
(-0.0236277 0.121428 0)
(-0.119184 0.137091 0)
(-0.121139 0.111838 0)
(-0.0137223 0.124044 0)
(-0.0066 0.065195 0)
(0.00760573 0.0464415 0)
(0.10696 0.149916 0)
(-0.0677342 0.15254 0)
(-0.0591606 -0.126703 0)
(-0.115295 -0.172472 0)
(-0.18403 -0.205103 0)
(-0.133231 -0.117961 0)
(-0.30048 -0.0329588 0)
(-0.31483 -0.118798 0)
(-0.355155 -0.0921003 0)
(-0.355738 -0.0596975 0)
(-0.409699 -0.0361206 0)
(-0.408833 -0.0640427 0)
(-0.332967 0.0567952 0)
(-0.626545 0.227878 0)
(-0.764344 0.301518 0)
(-0.0999464 0.26505 0)
(-0.236264 0.10224 0)
(-0.203332 0.105461 0)
(-0.1397 0.105992 0)
(-0.108215 -0.0436416 0)
(-0.0350645 -0.0657655 0)
(0.0934464 0.0041934 0)
(0.0336536 0.0351464 0)
(0.160017 0.113214 0)
(0.101434 0.158331 0)
(0.00433553 -0.0984614 0)
(0.0712269 -0.168088 0)
(-0.151434 -0.0588423 0)
(-0.132735 0.203564 0)
(-0.376629 0.151287 0)
(-0.466153 0.121174 0)
(-0.447223 0.0375428 0)
(-0.537294 0.0862 0)
(-0.613036 -0.042423 0)
(-0.656952 -0.0758977 0)
(-0.611291 0.156478 0)
(-0.817807 0.296393 0)
(-0.844232 0.434715 0)
(-0.104049 0.389773 0)
(-0.206043 0.210579 0)
(-0.148732 0.165048 0)
(-0.153062 0.00771027 0)
(-0.0523109 -0.10741 0)
(-0.0797424 -0.04324 0)
(-0.0406657 0.05618 0)
(-0.198516 -0.00885298 0)
(-0.129842 -0.0167428 0)
(0.132792 0.280571 0)
(-0.076191 -0.258764 0)
(0.142024 -0.0807545 0)
(-0.182881 -0.0534301 0)
(-0.213457 0.336308 0)
(-0.463931 0.225895 0)
(-0.535486 0.179131 0)
(-0.440161 0.0280959 0)
(-0.620954 0.0168419 0)
(-0.8882 0.0929948 0)
(-0.694412 0.0539967 0)
(-0.585103 0.180102 0)
(-0.693571 0.291104 0)
(-0.806945 0.27455 0)
(-0.0512881 0.562656 0)
(-0.0642305 0.171132 0)
(0.0396228 -0.0177122 0)
(0.0645151 0.0833988 0)
(0.054102 -0.11387 0)
(-0.0191897 -0.108176 0)
(0.139383 0.109709 0)
(0.0392232 0.0295721 0)
(-0.114631 -0.085588 0)
(0.133915 0.225034 0)
(0.0657616 -0.0479536 0)
(-0.38415 0.0115181 0)
(-0.339443 0.136662 0)
(-0.347603 0.377804 0)
(-0.537364 0.290603 0)
(-0.620824 0.184289 0)
(-0.401927 0.0361355 0)
(-0.311118 -0.0596309 0)
(-0.676496 0.0440762 0)
(-0.752899 0.269852 0)
(-0.554451 0.353109 0)
(-0.624979 0.335739 0)
(-0.604545 0.144271 0)
(-0.0461886 0.546057 0)
(0.00469271 0.342959 0)
(-0.00965938 -0.019962 0)
(-0.0196304 -0.0808757 0)
(0.0439156 -0.13126 0)
(-0.0388395 -0.180196 0)
(0.0562857 0.198584 0)
(-0.0144636 0.155965 0)
(-0.213515 -0.0301048 0)
(-0.19072 0.133049 0)
(-0.0842854 0.316952 0)
(-0.356717 0.358018 0)
(-0.271004 -0.0483701 0)
(-0.37382 0.464381 0)
(-0.522092 0.299498 0)
(-0.540755 0.297687 0)
(-0.33198 0.202171 0)
(-0.421999 0.107599 0)
(-0.539883 0.0274142 0)
(-0.596576 0.273559 0)
(-0.560784 0.337998 0)
(-0.551621 0.316355 0)
(-0.524134 0.345118 0)
(0.0132667 0.562662 0)
(0.0727269 0.250368 0)
(0.0129235 -0.0288869 0)
(-0.0151136 0.0680603 0)
(0.0381416 -0.0323485 0)
(-0.0843296 -0.11017 0)
(-0.169972 0.0870709 0)
(-0.121998 0.203414 0)
(-0.127405 0.131728 0)
(-0.198309 0.0163521 0)
(-0.0657581 0.100036 0)
(-0.0533171 0.937346 0)
(0.0418781 0.227207 0)
(-0.410455 0.713181 0)
(-0.309396 0.332452 0)
(-0.349261 0.236838 0)
(-0.266461 0.153329 0)
(-0.387786 0.239863 0)
(-0.478978 0.276884 0)
(-0.595237 0.27974 0)
(-0.62219 0.306115 0)
(-0.563271 0.296034 0)
(-0.584298 0.329056 0)
(0.0451086 0.447546 0)
(0.0858592 0.129986 0)
(-0.00041925 -0.00394955 0)
(-0.01788 -0.109368 0)
(0.0392741 -0.0351012 0)
(-0.058846 -0.046792 0)
(-0.106473 0.126674 0)
(-0.0451194 0.0811746 0)
(0.053098 0.129647 0)
(0.00816575 0.140047 0)
(-0.1269 -0.0543245 0)
(-0.0673401 0.285396 0)
(-0.0454597 0.255217 0)
(-0.361901 0.587752 0)
(-0.275858 0.279158 0)
(-0.296111 0.121699 0)
(-0.305227 0.19197 0)
(-0.472905 0.341422 0)
(-0.545315 0.285553 0)
(-0.587028 0.233525 0)
(-0.582738 0.238578 0)
(-0.66806 0.307634 0)
(-0.783913 0.413082 0)
(0.104054 0.434564 0)
(0.198968 0.287398 0)
(0.157312 0.149522 0)
(0.0370661 -0.00964337 0)
(-0.00281253 0.0245346 0)
(-0.320166 0.114327 0)
(-0.520992 0.162781 0)
(-0.389965 0.192977 0)
(-0.312194 0.157597 0)
(-0.43586 0.134451 0)
(-0.553188 0.211031 0)
(-0.4314 0.28696 0)
(-0.572686 0.489476 0)
(-0.567595 0.511282 0)
(-0.450035 0.351186 0)
(-0.531665 0.27107 0)
(-0.5391 0.304944 0)
(-0.700168 0.420037 0)
(-0.696353 0.483866 0)
(-0.659186 0.343381 0)
(-0.729359 0.327955 0)
(-0.701673 0.330864 0)
(-0.927552 0.480646 0)
(0.0105994 0.538697 0)
(0.0586416 0.431171 0)
(0.000963452 0.170619 0)
(0.0453004 0.0622974 0)
(-0.123463 0.134328 0)
(-0.406207 0.209312 0)
(-0.397744 0.132677 0)
(-0.249841 0.0534165 0)
(-0.251631 0.0476566 0)
(-0.756376 0.336555 0)
(-1.33169 0.227488 0)
(-1.5345 0.601765 0)
(-1.45952 0.812197 0)
(-1.04521 0.696676 0)
(-1.02232 0.314398 0)
(-1.0651 0.274091 0)
(-0.986919 0.21886 0)
(-0.807144 0.446482 0)
(-0.9246 0.609202 0)
(-1.04967 0.353185 0)
(-0.971337 0.297842 0)
(-0.82159 0.432348 0)
(-0.871247 0.451953 0)
(0.00673241 0.430268 0)
(0.0432016 0.315092 0)
(-0.115628 0.137318 0)
(0.0231575 0.184082 0)
(-0.266946 0.206628 0)
(-0.879207 0.267087 0)
(-0.994496 0.376793 0)
(-0.913744 0.396862 0)
(-1.02634 0.444235 0)
(-1.6684 0.529568 0)
(-1.92686 0.466512 0)
(-1.61675 0.572631 0)
(-1.50454 0.54929 0)
(-1.75222 0.43232 0)
(-1.82474 0.369827 0)
(-1.80591 0.315761 0)
(-1.44324 0.333792 0)
(-1.34999 0.379333 0)
(-1.76385 0.374512 0)
(-1.87267 0.367609 0)
(-1.26447 0.415709 0)
(-1.12134 0.532881 0)
(-1.13353 0.540908 0)
(-0.00832277 0.426845 0)
(-0.0232458 0.226872 0)
(-0.0836233 0.445215 0)
(-0.43549 0.453866 0)
(-0.841986 0.58483 0)
(-0.955166 0.59628 0)
(-0.99357 0.6885 0)
(-1.04777 0.563546 0)
(-1.06222 0.288354 0)
(-1.6119 0.198782 0)
(-1.80751 0.502749 0)
(-1.62575 0.621631 0)
(-1.52489 0.384818 0)
(-1.53436 0.38016 0)
(-1.62363 0.43766 0)
(-1.63852 0.420183 0)
(-1.46618 0.570759 0)
(-1.41376 0.307872 0)
(-1.64774 0.205715 0)
(-1.69238 0.40918 0)
(-1.48358 0.499905 0)
(-1.50876 0.475376 0)
(-1.99047 0.544486 0)
(-0.037571 0.473742 0)
(-0.0608763 0.371589 0)
(-0.54141 0.656019 0)
(-0.747132 0.675246 0)
(-0.770251 0.631392 0)
(-0.60974 0.557868 0)
(-0.491612 0.70635 0)
(-0.751128 0.765177 0)
(-0.942764 0.48108 0)
(-1.07824 0.361826 0)
(-1.33226 0.558399 0)
(-1.34583 0.590366 0)
(-1.29257 0.52863 0)
(-1.651 0.638087 0)
(-1.7995 0.55915 0)
(-1.71744 0.646484 0)
(-2.04899 0.57811 0)
(-2.18091 0.462637 0)
(-2.18576 0.463609 0)
(-2.12755 0.52221 0)
(-2.08498 0.50077 0)
(-2.07713 0.379285 0)
(-2.06697 0.353861 0)
(-0.00353367 0.692282 0)
(-0.312701 0.72193 0)
(-0.639078 0.84952 0)
(-0.7001 0.65202 0)
(-0.671035 0.507317 0)
(-0.577447 0.568442 0)
(-0.835743 0.773007 0)
(-1.19715 0.855134 0)
(-1.26555 0.755909 0)
(-1.21835 0.724745 0)
(-1.29645 0.692396 0)
(-1.28184 0.581831 0)
(-1.24427 0.52108 0)
(-1.47639 0.670912 0)
(-1.60794 0.994065 0)
(-1.92457 1.00777 0)
(-2.12065 0.706572 0)
(-1.92333 0.686512 0)
(-1.90836 0.674596 0)
(-1.85554 0.551217 0)
(-1.8495 0.390609 0)
(-1.75145 0.262218 0)
(-1.64161 0.217394 0)
(-0.0599596 0.975887 0)
(-0.302107 0.943426 0)
(-0.554306 0.886311 0)
(-0.746639 0.642818 0)
(-0.936285 0.665514 0)
(-1.087 0.787664 0)
(-1.22926 0.754522 0)
(-1.2907 0.75184 0)
(-1.31948 0.70581 0)
(-1.26424 0.736946 0)
(-1.30923 0.760971 0)
(-1.33104 0.608919 0)
(-1.23525 0.576411 0)
(-1.19834 0.662022 0)
(-1.68496 0.898092 0)
(-1.98726 0.776713 0)
(-2.09681 0.793095 0)
(-2.10368 0.722152 0)
(-1.91659 0.428067 0)
(-1.63528 0.178234 0)
(-1.52735 0.0381921 0)
(-1.38549 0.0338436 0)
(-1.33065 -0.0755992 0)
(-0.0325227 1.21369 0)
(-0.493917 1.15895 0)
(-0.781169 1.13644 0)
(-0.964267 0.936783 0)
(-1.16833 0.980149 0)
(-1.26415 0.823282 0)
(-1.32864 0.739183 0)
(-1.38515 0.664904 0)
(-1.2144 0.545427 0)
(-1.05116 0.601026 0)
(-1.23762 0.699428 0)
(-1.4735 0.686393 0)
(-1.37933 0.756856 0)
(-1.39746 0.88975 0)
(-1.77337 0.891118 0)
(-1.9169 0.811355 0)
(-1.95329 0.811251 0)
(-1.74692 0.61366 0)
(-1.59076 0.25991 0)
(-1.34679 0.215453 0)
(-1.33894 0.120856 0)
(-1.37638 0.00186526 0)
(-1.47183 -0.156227 0)
(-0.168639 1.83799 0)
(-0.455301 1.55951 0)
(-0.669787 1.19625 0)
(-0.840443 1.04204 0)
(-1.21296 1.19489 0)
(-1.40264 0.850922 0)
(-1.27038 0.656557 0)
(-1.1458 0.604392 0)
(-1.07321 0.69289 0)
(-0.96417 0.655774 0)
(-1.60704 0.842566 0)
(-1.87071 1.01391 0)
(-1.77595 1.12362 0)
(-1.7555 1.1649 0)
(-1.82851 1.0747 0)
(-1.81025 0.90323 0)
(-1.63977 0.765193 0)
(-1.8835 0.273489 0)
(-2.1707 0.135172 0)
(-1.59406 -0.13532 0)
(-1.2085 0.159505 0)
(-0.75938 -0.16066 0)
(-0.595091 -0.657724 0)
(-0.0561424 2.52378 0)
(-0.52154 1.77362 0)
(-0.672808 1.31081 0)
(-0.706221 1.05683 0)
(-1.24051 1.09667 0)
(-1.45138 0.868902 0)
(-1.29093 0.740702 0)
(-1.14061 0.854815 0)
(-1.33468 1.06517 0)
(-1.20643 0.968417 0)
(-1.6215 0.981519 0)
(-1.89525 1.17292 0)
(-1.91168 1.31938 0)
(-1.77773 1.16098 0)
(-1.72778 1.08579 0)
(-1.46016 0.762521 0)
(-1.33371 0.348887 0)
(-1.64564 -0.142133 0)
(-2.116 0.151616 0)
(-1.72168 0.113285 0)
(-1.8252 0.241701 0)
(-1.61672 -0.641817 0)
(-1.58507 -0.929579 0)
(-0.446997 3.10587 0)
(-0.392288 2.22227 0)
(-0.485962 1.57827 0)
(-0.553776 1.15145 0)
(-1.2145 0.98554 0)
(-1.49949 0.947539 0)
(-1.28957 0.899574 0)
(-1.00493 0.856135 0)
(-1.34649 1.26782 0)
(-1.33842 1.34377 0)
(-1.51127 1.20067 0)
(-1.73414 1.21856 0)
(-1.84414 1.3462 0)
(-1.51008 1.07364 0)
(-1.31313 0.845471 0)
(-1.02549 0.402477 0)
(-1.07479 0.209665 0)
(-1.49088 0.322442 0)
(-1.51034 0.359105 0)
(-1.50415 0.376345 0)
(-1.44686 -0.186609 0)
(-1.08282 -1.02622 0)
(-1.25169 -1.40243 0)
(-0.493079 4.09823 0)
(-0.311831 3.34514 0)
(-0.633495 1.91256 0)
(-0.591125 1.28209 0)
(-1.13485 0.956733 0)
(-1.41329 1.04876 0)
(-1.35152 1.06128 0)
(-1.16099 0.777986 0)
(-1.23525 1.06037 0)
(-1.10597 1.35731 0)
(-1.00514 1.32737 0)
(-1.2135 1.30399 0)
(-1.43311 1.43074 0)
(-1.01141 1.32042 0)
(-0.969623 0.687242 0)
(-0.744654 0.467384 0)
(-0.828605 0.396668 0)
(-0.877095 0.408032 0)
(-1.0073 0.313258 0)
(-1.20591 0.208402 0)
(-0.820305 -0.0740186 0)
(-0.392809 -0.743164 0)
(-0.439389 -1.15979 0)
(-0.383391 4.35218 0)
(-0.346285 3.76608 0)
(-0.633329 2.0989 0)
(-0.59388 1.44653 0)
(-0.837821 0.983049 0)
(-1.23582 1.00213 0)
(-1.34291 1.03785 0)
(-1.0679 0.837923 0)
(-0.940037 1.03699 0)
(-0.839459 1.29221 0)
(-0.418982 1.18398 0)
(-0.349896 0.983831 0)
(-0.566672 1.11224 0)
(-0.150548 1.08618 0)
(-0.585218 0.587129 0)
(-0.0514719 0.150422 0)
(-0.152046 0.258596 0)
(-0.401164 0.460436 0)
(0.117608 0.151143 0)
(-0.181947 0.213798 0)
(0.178712 0.0439518 0)
(0.336382 -0.605888 0)
(0.421548 -0.781141 0)
(-0.000727665 4.51937 0)
(-0.187727 4.16144 0)
(-0.40069 2.68804 0)
(-0.33562 1.7508 0)
(-0.812049 1.16989 0)
(-0.965905 0.957788 0)
(-0.970637 1.07193 0)
(-0.678556 0.868148 0)
(-0.581826 0.925692 0)
(-0.198107 1.14157 0)
(-0.0588615 1.13534 0)
(0.191943 0.952005 0)
(0.235276 0.864755 0)
(0.541984 0.597387 0)
(0.272468 0.523703 0)
(0.588793 0.493338 0)
(0.551358 0.416194 0)
(0.285622 0.435014 0)
(0.455875 -0.0155441 0)
(0.500683 4.01952e-05 0)
(0.735819 -0.279019 0)
(0.969059 -0.941119 0)
(0.941437 -1.19411 0)
(0.548868 4.14277 0)
(0.247156 4.0413 0)
(-0.0109773 3.1834 0)
(-0.223858 2.00536 0)
(-0.514609 1.30715 0)
(-0.676472 1.20123 0)
(-0.545714 1.40875 0)
(-0.244351 1.01386 0)
(0.0586769 1.0308 0)
(0.102569 0.983118 0)
(0.217718 1.01073 0)
(0.490809 0.917403 0)
(0.845541 0.823487 0)
(0.976343 0.461662 0)
(0.814655 0.495291 0)
(0.943239 0.638477 0)
(1.19176 0.422971 0)
(1.09909 0.416393 0)
(0.9088 0.0505694 0)
(1.10059 -0.227615 0)
(1.16869 -0.564613 0)
(1.11343 -0.883361 0)
(1.10939 -1.22526 0)
(0.654482 3.00917 0)
(0.576984 3.11922 0)
(0.228164 2.80147 0)
(0.128258 2.12247 0)
(-0.0792764 1.40511 0)
(-0.0185156 1.07172 0)
(0.222951 1.11126 0)
(-0.0186726 0.990946 0)
(0.124567 0.732291 0)
(0.339352 0.641789 0)
(0.390692 0.742655 0)
(0.673598 0.922789 0)
(0.77443 0.766033 0)
(0.993958 0.553722 0)
(1.37245 0.480315 0)
(1.25282 0.376688 0)
(1.08805 0.253904 0)
(1.09941 0.17703 0)
(1.01205 -0.0330284 0)
(1.076 -0.310171 0)
(1.43734 -0.605941 0)
(1.40155 -0.620415 0)
(1.24849 -0.854085 0)
(0.32215 2.68501 0)
(0.623509 2.61831 0)
(0.603657 2.12507 0)
(0.625201 2.16682 0)
(0.583966 1.74564 0)
(0.57133 1.44844 0)
(0.550328 0.951755 0)
(0.512021 0.742912 0)
(0.486089 0.591654 0)
(0.605087 0.547423 0)
(0.918872 0.628492 0)
(0.870311 0.697219 0)
(0.858173 0.645925 0)
(0.985291 0.567068 0)
(1.1006 0.525282 0)
(1.12205 0.238659 0)
(1.4397 0.157958 0)
(1.27253 0.0232751 0)
(0.987027 -0.0191037 0)
(1.08761 -0.0212697 0)
(1.19237 -0.190013 0)
(1.07366 -0.3332 0)
(0.921458 -0.614181 0)
(-0.255066 2.12031 0)
(0.207293 2.32115 0)
(0.601163 2.10369 0)
(0.97737 2.09151 0)
(1.01683 1.68791 0)
(0.849388 1.18891 0)
(0.812266 0.919717 0)
(0.657208 0.790235 0)
(0.72393 0.797203 0)
(0.707854 0.701966 0)
(0.865398 0.609571 0)
(0.847962 0.459505 0)
(0.911524 0.399609 0)
(1.12238 0.471434 0)
(1.16271 0.432103 0)
(1.05017 0.380088 0)
(1.11111 0.255438 0)
(1.05075 -0.0955149 0)
(1.04947 -0.130459 0)
(1.00907 -0.260782 0)
(0.998727 -0.376413 0)
(0.962855 -0.413736 0)
(0.925282 -0.507312 0)
(-0.0802755 1.21649 0)
(0.308995 1.8717 0)
(0.549466 1.99661 0)
(0.906815 2.00585 0)
(1.00826 1.59649 0)
(0.871902 1.00075 0)
(0.959857 0.766418 0)
(0.964603 0.775769 0)
(0.870432 0.647582 0)
(0.676136 0.512282 0)
(0.785356 0.543651 0)
(0.798011 0.499511 0)
(0.948014 0.485293 0)
(1.19944 0.428808 0)
(1.08204 0.363594 0)
(0.991295 0.285584 0)
(1.00428 0.126121 0)
(0.963379 0.0441245 0)
(0.883892 -0.0410384 0)
(0.899453 -0.282448 0)
(0.995881 -0.312803 0)
(0.898111 -0.253848 0)
(0.698752 -0.369092 0)
(-0.0486113 1.22775 0)
(0.365187 1.61862 0)
(0.47309 1.63924 0)
(0.678197 1.66191 0)
(0.731597 1.47558 0)
(0.867606 1.10366 0)
(1.07041 0.84468 0)
(0.937869 0.779062 0)
(0.761693 0.403033 0)
(0.958711 0.432185 0)
(0.895425 0.467406 0)
(0.745179 0.441314 0)
(0.813462 0.50038 0)
(1.0051 0.334358 0)
(0.980186 0.257797 0)
(0.817871 0.210654 0)
(0.840651 0.12987 0)
(0.811467 0.03955 0)
(0.738083 -0.0505491 0)
(0.825188 -0.0851551 0)
(1.16329 -0.203325 0)
(0.985099 -0.260539 0)
(0.617192 -0.372859 0)
(-0.0258844 1.16362 0)
(0.251377 1.49897 0)
(0.328239 1.40052 0)
(0.515058 1.45625 0)
(0.677437 1.33902 0)
(0.740987 1.19363 0)
(0.917064 0.897732 0)
(0.732233 0.644903 0)
(0.779013 0.57664 0)
(0.918764 0.398834 0)
(0.859226 0.38307 0)
(0.796111 0.4326 0)
(0.817789 0.431638 0)
(0.896444 0.404399 0)
(0.857474 0.137295 0)
(0.785368 0.236271 0)
(0.760075 0.169683 0)
(0.755351 0.13006 0)
(0.727972 0.0616263 0)
(0.755188 0.0505284 0)
(0.816408 -0.0779885 0)
(0.700315 -0.353736 0)
(0.561607 -0.458258 0)
(-0.0202852 1.06535 0)
(0.185598 1.30052 0)
(0.238876 1.25344 0)
(0.408118 1.28399 0)
(0.541412 1.20922 0)
(0.645538 1.07017 0)
(0.721224 0.870373 0)
(0.73006 0.70902 0)
(0.698515 0.706378 0)
(0.850046 0.5828 0)
(0.924586 0.323882 0)
(0.760508 0.410924 0)
(0.739968 0.37642 0)
(0.716141 0.343101 0)
(0.847998 0.304488 0)
(0.840498 0.191518 0)
(0.648854 0.117191 0)
(0.696287 0.0799607 0)
(0.67727 0.0308381 0)
(0.676256 -0.151039 0)
(0.709288 -0.178274 0)
(0.626784 -0.176158 0)
(0.590656 -0.231621 0)
(-0.00611093 0.99645 0)
(0.13844 1.15115 0)
(0.201329 1.13764 0)
(0.31822 1.14473 0)
(0.477853 1.09809 0)
(0.535657 0.906937 0)
(0.629335 0.794088 0)
(0.69475 0.680591 0)
(0.700334 0.684253 0)
(0.630144 0.810797 0)
(0.723665 0.522178 0)
(0.784882 0.500587 0)
(0.700181 0.40861 0)
(0.801433 0.362723 0)
(0.746843 0.416326 0)
(0.622449 0.190654 0)
(0.5691 0.148386 0)
(0.594632 0.110338 0)
(0.537461 0.0273254 0)
(0.60016 -0.00657419 0)
(0.859545 -0.113947 0)
(0.665705 -0.149605 0)
(0.44198 -0.214526 0)
(-0.010827 0.956212 0)
(0.102269 1.02884 0)
(0.147809 1.04248 0)
(0.245353 1.04028 0)
(0.334973 1.08005 0)
(0.43831 0.955483 0)
(0.576111 0.84401 0)
(0.697614 0.750204 0)
(0.914212 0.681836 0)
(0.731039 0.667265 0)
(0.61233 0.607613 0)
(0.689564 0.500003 0)
(0.590798 0.339263 0)
(0.712572 0.324184 0)
(0.670083 0.327136 0)
(0.548464 0.240758 0)
(0.562707 0.146759 0)
(0.554507 0.112729 0)
(0.545599 0.0640903 0)
(0.569037 0.0799851 0)
(0.590644 -0.0200853 0)
(0.459596 -0.271862 0)
(0.433021 -0.238693 0)
(-0.01891 0.928467 0)
(0.0846067 0.983511 0)
(0.165946 1.0043 0)
(0.305419 0.980612 0)
(0.346219 1.02941 0)
(0.393513 0.958198 0)
(0.490143 0.905099 0)
(0.559746 0.842474 0)
(0.611994 0.752398 0)
(0.555535 0.478261 0)
(0.574 0.506347 0)
(0.532778 0.347734 0)
(0.584303 0.361392 0)
(0.814997 0.236449 0)
(0.716317 0.197398 0)
(0.435013 0.246284 0)
(0.473486 0.191137 0)
(0.523305 0.120074 0)
(0.534134 0.0598746 0)
(0.515119 0.0361036 0)
(0.51791 -0.0430931 0)
(0.469503 -0.160548 0)
(0.412841 -0.129898 0)
(0.00238605 0.890393 0)
(0.094886 0.943285 0)
(0.148961 0.930264 0)
(0.268583 0.924478 0)
(0.328577 0.843611 0)
(0.398992 0.804445 0)
(0.453294 0.73933 0)
(0.570024 0.773478 0)
(0.573489 0.665273 0)
(0.424398 0.563855 0)
(0.469479 0.558777 0)
(0.528789 0.436592 0)
(0.50772 0.42309 0)
(0.581773 0.378272 0)
(0.681878 0.120916 0)
(0.520319 0.141645 0)
(0.439051 0.155019 0)
(0.451431 0.164593 0)
(0.443983 0.0279895 0)
(0.442277 0.0433033 0)
(0.395044 0.0529829 0)
(0.373554 -0.0314041 0)
(0.348662 -0.102974 0)
(0.0248176 0.83704 0)
(0.0828787 0.874543 0)
(0.106248 0.84818 0)
(0.207405 0.81541 0)
(0.229379 0.821128 0)
(0.37472 0.789649 0)
(0.582367 0.563716 0)
(0.488467 0.593977 0)
(0.426685 0.442739 0)
(0.467109 0.480271 0)
(0.451379 0.549916 0)
(0.402949 0.459076 0)
(0.520392 0.376609 0)
(0.564204 0.388956 0)
(0.438456 0.250408 0)
(0.409256 0.141353 0)
(0.56723 0.0493682 0)
(0.420039 0.114641 0)
(0.404214 0.0981104 0)
(0.548568 0.0934997 0)
(0.382055 -0.0164551 0)
(0.276876 -0.0565342 0)
(0.321472 -0.119685 0)
(0.0334834 0.813252 0)
(0.0845043 0.803781 0)
(0.0931055 0.811652 0)
(0.208998 0.823609 0)
(0.238054 0.743215 0)
(0.270352 0.786405 0)
(0.352492 0.718445 0)
(0.367519 0.561292 0)
(0.441544 0.512759 0)
(0.569658 0.475089 0)
(0.474349 0.477629 0)
(0.343769 0.428513 0)
(0.433068 0.421627 0)
(0.438109 0.300335 0)
(0.43167 0.251429 0)
(0.367927 0.245575 0)
(0.420627 0.186273 0)
(0.539368 -0.0245955 0)
(0.477796 0.139576 0)
(0.413011 0.110699 0)
(0.266471 -0.0719968 0)
(0.286677 -0.0368517 0)
(0.325308 -0.0756994 0)
(0.0257278 0.789854 0)
(0.0852321 0.774326 0)
(0.111623 0.805444 0)
(0.128311 0.87387 0)
(0.189211 0.762316 0)
(0.363588 0.79846 0)
(0.378404 0.751242 0)
(0.242136 0.698964 0)
(0.344185 0.667732 0)
(0.459186 0.451576 0)
(0.404735 0.422183 0)
(0.360037 0.39683 0)
(0.403528 0.37417 0)
(0.389181 0.286714 0)
(0.38104 0.291532 0)
(0.350779 0.276045 0)
(0.315533 0.212756 0)
(0.380253 0.137908 0)
(0.5132 0.168754 0)
(0.364586 -0.0366301 0)
(0.210789 0.0245425 0)
(0.273403 -0.0663017 0)
(0.258962 -0.00533526 0)
(0.00653038 0.773337 0)
(0.0921539 0.685304 0)
(0.172996 0.749932 0)
(0.161644 0.865906 0)
(0.179711 0.896958 0)
(0.266775 0.834618 0)
(0.237474 0.650418 0)
(0.250152 0.61809 0)
(0.255408 0.673703 0)
(0.308645 0.554416 0)
(0.395045 0.500098 0)
(0.244876 0.420989 0)
(0.268989 0.371507 0)
(0.361555 0.342754 0)
(0.402086 0.31284 0)
(0.261803 0.244628 0)
(0.28292 0.227853 0)
(0.467265 0.136322 0)
(0.378478 0.157243 0)
(0.232916 -0.020759 0)
(0.201405 -0.00425802 0)
(0.261156 -0.0255316 0)
(0.259646 -0.0476469 0)
(-0.0675119 0.802832 0)
(0.0535969 0.760475 0)
(0.267164 0.786129 0)
(0.18971 0.765039 0)
(0.168727 0.754529 0)
(0.234266 0.76634 0)
(0.17206 0.673109 0)
(0.2282 0.626085 0)
(0.231756 0.639348 0)
(0.27441 0.633591 0)
(0.32673 0.520344 0)
(0.166497 0.482477 0)
(0.264334 0.408005 0)
(0.33946 0.435497 0)
(0.283538 0.326491 0)
(0.196396 0.173942 0)
(0.215204 0.236859 0)
(0.347471 0.200773 0)
(0.350547 0.0278702 0)
(0.199787 0.0731829 0)
(0.234323 0.0683666 0)
(0.291968 0.0691912 0)
(0.149175 -0.0919124 0)
(0.000801412 0.823105 0)
(0.0709751 0.988276 0)
(0.147434 0.824687 0)
(0.113307 0.755143 0)
(0.175335 0.76873 0)
(0.231647 0.73533 0)
(0.14103 0.749447 0)
(0.16844 0.817602 0)
(0.227752 0.524593 0)
(0.250476 0.762114 0)
(0.248753 0.409057 0)
(0.12457 0.486427 0)
(0.212451 0.547739 0)
(0.283531 0.406605 0)
(0.141959 0.216779 0)
(0.179371 0.219921 0)
(0.245289 0.188496 0)
(0.283193 0.167591 0)
(0.216337 0.0618569 0)
(0.224651 0.0459596 0)
(0.165155 0.12845 0)
(0.170436 0.0423239 0)
(0.159655 -0.0448929 0)
(0.0181418 0.71701 0)
(0.0526084 0.887646 0)
(0.091208 0.696991 0)
(0.111831 0.689016 0)
(0.128825 0.818824 0)
(0.206649 0.647758 0)
(0.279494 0.722851 0)
(0.0337816 0.688779 0)
(0.159084 0.612511 0)
(0.224298 0.581545 0)
(0.0913807 0.458572 0)
(0.25781 0.517025 0)
(0.156567 0.452508 0)
(0.05024 0.329518 0)
(0.101813 0.335048 0)
(0.155603 0.445644 0)
(0.145642 0.326311 0)
(0.238285 0.276231 0)
(0.202879 0.236985 0)
(0.209286 0.126163 0)
(0.188517 0.0502109 0)