/*--------------------------------*- C++ -*----------------------------------*\
| =========                 |                                                 |
| \\      /  F ield         | foam-extend: Open Source CFD                    |
|  \\    /   O peration     | Version:     4.1                                |
|   \\  /    A nd           | Web:         http://www.foam-extend.org         |
|    \\/     M anipulation  |                                                 |
\*---------------------------------------------------------------------------*/
FoamFile
{
    version     2.0;
    format      ascii;
    class       volScalarField;
    location    "0.75";
    object      alpha1;
}
// * * * * * * * * * * * * * * * * * * * * * * * * * * * * * * * * * * * * * //

dimensions      [0 0 0 0 0 0 0];

internalField   nonuniform List<scalar> 
2268
(
0.653773
0.485396
0.82161
0.904297
0.957358
0.699821
0.47105
0.704302
0.936028
0.991933
0.998967
0.999495
0.999789
0.999841
0.999891
0.999953
0.99998
0.99996
0.999547
0.998102
0.995749
0.983141
0.589184
0.63171
0.408376
0.729869
0.660394
0.934611
0.718221
0.611109
0.647109
0.852268
0.960764
0.986922
0.996481
0.99917
0.99967
0.999831
0.99989
0.999939
0.999971
0.999906
0.999901
0.999726
0.99636
0.977454
0.593972
0.375589
0.433364
0.42247
0.673266
0.76046
0.670409
0.712846
0.889815
0.863365
0.964204
0.993079
0.998619
0.999454
0.999715
0.999819
0.999888
0.999955
0.999972
0.999951
0.999354
0.996574
0.99172
0.630236
0.355525
0.331057
0.416519
0.661812
0.756206
0.672024
0.754119
0.816758
0.442747
0.816815
0.983606
0.997853
0.999006
0.99912
0.999364
0.999423
0.999561
0.999856
0.999874
0.99949
0.996104
0.99184
0.682235
0.49534
0.436287
0.346296
0.336878
0.648626
0.579002
0.720645
0.689562
0.278955
0.763328
0.956702
0.994631
0.99732
0.996823
0.996796
0.998314
0.998398
0.998704
0.999533
0.997954
0.990846
0.98731
0.654587
0.300922
0.336177
0.307554
0.282973
0.439034
0.455652
0.672383
0.644004
0.301107
0.767555
0.952984
0.988752
0.993257
0.99124
0.993281
0.995145
0.986014
0.988671
0.996767
0.990831
0.970009
0.95682
0.412194
0.232881
0.215697
0.208869
0.223196
0.447531
0.383269
0.635367
0.651542
0.514761
0.789909
0.93815
0.979129
0.981608
0.978191
0.980699
0.976952
0.900738
0.924478
0.977293
0.979888
0.919916
0.851952
0.186243
0.166895
0.181234
0.192544
0.206024
0.344803
0.325958
0.673409
0.425582
0.384631
0.730451
0.951343
0.969265
0.972717
0.974118
0.967205
0.950475
0.756705
0.784849
0.907006
0.943744
0.843724
0.668214
0.625588
0.654074
0.659365
0.660731
0.660907
0.66035
0.660017
0.661137
0.657158
0.661962
0.661358
0.64703
0.61895
0.592412
0.555319
0.524993
0.508829
0.50568
0.466516
0.60666
0.594366
0.595552
0.645521
0.66981
0.668026
0.662629
0.679066
0.670143
0.657307
0.641593
0.620845
0.563524
0.534253
0.518669
0.47959
0.449107
0.452807
0.465034
0.58438
0.539121
0.494247
0.587696
0.650782
0.617742
0.605269
0.649655
0.642162
0.602008
0.543913
0.513869
0.493067
0.477505
0.514638
0.528371
0.52365
0.591055
0.632901
0.560944
0.454564
0.397901
0.565376
0.632541
0.505502
0.460771
0.558939
0.562696
0.475736
0.416127
0.33993
0.319587
0.444904
0.508206
0.572927
0.607216
0.657069
0.707788
0.537718
0.402856
0.353752
0.429247
0.5306
0.37872
0.362005
0.466044
0.394727
0.307528
0.293524
0.190364
0.174927
0.279207
0.450822
0.580312
0.620691
0.628936
0.716287
0.511918
0.3551
0.311843
0.309439
0.344904
0.229539
0.226141
0.352276
0.229703
0.186786
0.20824
0.164324
0.140689
0.148637
0.309529
0.44751
0.542572
0.567753
0.720165
0.484588
0.291974
0.206794
0.256583
0.27611
0.220662
0.136501
0.17705
0.164998
0.162784
0.154229
0.140701
0.135622
0.133971
0.172009
0.310011
0.457438
0.557985
0.723831
0.440325
0.224827
0.186571
0.241267
0.32113
0.208059
0.12543
0.134919
0.200881
0.220947
0.203491
0.214318
0.202189
0.166932
0.172349
0.224267
0.386596
0.559195
0.728346
0.106011
0.137211
0.16412
0.212892
0.260517
0.460471
0.349176
0.602413
0.349404
0.599731
0.713247
0.933049
0.930966
0.958169
0.94317
0.872092
0.887344
0.671257
0.616967
0.765478
0.834226
0.731433
0.497036
0.0538262
0.132984
0.231378
0.236849
0.272555
0.418573
0.271282
0.451619
0.215469
0.386075
0.321434
0.72333
0.742616
0.90722
0.872582
0.579436
0.695496
0.659824
0.562785
0.716884
0.769586
0.76605
0.72428
0.0358115
0.158076
0.244537
0.281424
0.235046
0.300221
0.239993
0.318447
0.273169
0.293569
0.304834
0.678146
0.397744
0.803642
0.710589
0.25517
0.343996
0.444746
0.424263
0.642321
0.680043
0.641928
0.599384
0.020773
0.0781391
0.163618
0.366167
0.148444
0.157931
0.138396
0.351352
0.559102
0.450516
0.399356
0.600261
0.278547
0.621954
0.225936
0.0937633
0.0995463
0.196781
0.161869
0.40207
0.510624
0.361584
0.365725
0.0121885
0.02531
0.0516917
0.171493
0.0542731
0.0838233
0.0583118
0.132037
0.229916
0.254809
0.273583
0.641672
0.249146
0.369174
0.196096
0.0516413
0.0287221
0.0803802
0.0479446
0.122892
0.24507
0.0675928
0.0853254
0.0120156
0.0173817
0.0210919
0.0329162
0.0277831
0.0398245
0.0191892
0.0380295
0.0931147
0.118843
0.0695108
0.299396
0.0506879
0.159162
0.0487303
0.0167021
0.0181134
0.0305512
0.0248203
0.0481744
0.0698983
0.0412485
0.0680052
0.0111949
0.014103
0.0144423
0.0145194
0.0157166
0.0184729
0.00703636
0.0135181
0.0318752
0.0389066
0.0156397
0.0636248
0.0146989
0.0269727
0.0069151
0.00864577
0.0121868
0.0150909
0.0126428
0.0207693
0.0268509
0.0377562
0.0793712
0.0110283
0.0124389
0.01224
0.0128915
0.0108482
0.0087694
0.00543835
0.00485657
0.00939763
0.0084398
0.0010363
0.00328932
0.00391784
0.00346029
0.00361523
0.00603755
0.00827827
0.00963504
0.00909517
0.00930608
0.00899856
0.0137747
0.0328834
0.00919909
0.00810999
0.00925792
0.0116863
0.0116781
0.0103289
0.00673494
0.00355648
0.00389179
0.00296119
0.000643272
0.00100825
0.00115369
0.00152185
0.00289571
0.00456519
0.00599603
0.00653501
0.00551039
0.00270968
0.00239529
0.00376779
0.00953181
0.00600234
0.00429636
0.00619514
0.00773503
0.00658243
0.00748197
0.00538761
0.00441395
0.00269657
0.00193788
0.000391303
0.000310673
0.000572759
0.00125585
0.00253841
0.00359838
0.00414339
0.00429266
0.00267398
0.00144595
0.00132307
0.00171501
0.00421535
0.003223
0.00243313
0.0030311
0.00305421
0.00139263
0.00156176
0.00121617
0.00161749
0.00167157
0.00118803
0.000289373
0.000207133
0.000422235
0.00100763
0.00185097
0.00239735
0.00247912
0.00245364
0.00183471
0.00133213
0.00154715
0.00447733
0.0147613
0.00132766
0.00121943
0.000847964
0.000975199
0.000331909
0.000261286
0.000294118
0.000704169
0.000967434
0.000682295
0.000218765
0.00014452
0.000295264
0.000610727
0.00101591
0.00162966
0.00271817
0.0048213
0.00609356
0.00667631
0.00836298
0.0160986
0.0262622
0.00039061
0.000586898
0.000369658
0.000329614
7.91611e-05
3.91459e-05
6.83119e-05
0.000229877
0.000402638
0.000352705
0.000171211
0.000437474
0.00156943
0.00413951
0.0116037
0.0179753
0.0202614
0.0239642
0.0255994
0.0260013
0.0255093
0.0235291
0.0207176
0.000100967
0.000247874
0.000152921
9.06024e-05
2.4793e-05
3.12565e-06
1.03256e-05
5.76059e-05
0.000146793
0.000174459
0.000181865
0.000638238
0.00230098
0.0062838
0.0105044
0.0124754
0.0129216
0.0121605
0.00967879
0.0078434
0.00548971
0.0037907
0.00312268
3.10455e-05
8.81711e-05
4.81305e-05
2.03623e-05
3.33686e-06
5.19019e-07
1.37699e-06
8.99776e-06
3.14364e-05
8.30323e-05
0.000130221
0.000409261
0.00126044
0.00347386
0.00499697
0.00572725
0.00592418
0.00473061
0.00378286
0.0035338
0.00147733
0.000762556
0.000651083
1.03772e-05
2.33304e-05
1.30581e-05
4.51038e-06
8.26093e-07
9.27812e-08
4.3637e-07
2.30127e-06
1.19968e-05
3.87519e-05
6.23526e-05
0.000159416
0.000321719
0.00113312
0.00110423
0.00210789
0.00196938
0.000889641
0.000873667
0.00157271
0.000820501
0.000235113
0.000186651
3.13656e-06
5.50729e-06
3.2003e-06
1.07932e-06
1.5967e-07
1.19695e-08
1.01153e-07
9.44283e-07
5.25717e-06
1.93544e-05
3.17922e-05
7.45981e-05
0.000114193
0.000349735
0.000250963
0.000608837
0.00071946
0.000419125
0.000177501
0.000335832
0.000455989
0.000107674
5.42589e-05
9.06321e-07
9.41814e-07
6.93407e-07
2.44481e-07
3.00391e-08
1.48753e-08
1.08044e-07
5.43322e-07
2.40151e-06
9.71728e-06
1.67324e-05
3.20659e-05
4.72037e-05
8.01354e-05
5.84147e-05
0.000166378
0.000140205
0.000106224
6.19204e-05
6.43162e-05
0.000102758
5.98221e-05
2.19735e-05
2.14429e-07
1.79375e-07
1.17671e-07
4.82782e-08
4.79211e-09
7.96727e-09
6.07983e-08
2.23382e-07
1.05388e-06
4.12244e-06
6.89832e-06
8.51965e-06
1.77767e-05
1.61202e-05
1.01002e-05
4.58702e-05
3.19344e-05
2.63372e-05
1.46103e-05
1.37615e-05
2.16314e-05
1.32861e-05
6.76257e-06
4.25756e-08
2.69114e-08
2.41667e-08
1.04481e-08
5.76834e-10
2.02331e-09
1.48397e-08
6.68902e-08
3.41658e-07
1.19511e-06
2.0246e-06
1.8297e-06
5.0174e-06
3.11479e-06
1.57864e-06
9.2584e-06
7.10328e-06
4.84596e-06
2.43629e-06
2.51968e-06
4.26894e-06
2.49868e-06
1.84668e-06
7.19506e-09
4.03365e-09
4.28297e-09
2.37101e-09
1.30797e-10
3.85197e-10
2.64062e-09
1.32184e-08
7.18624e-08
2.26346e-07
4.46168e-07
3.62327e-07
7.80647e-07
4.07014e-07
2.78456e-07
1.37302e-06
1.12576e-06
9.13514e-07
3.23619e-07
4.60511e-07
7.9127e-07
4.33499e-07
4.66325e-07
1.02161e-09
5.8109e-10
7.63283e-10
4.22017e-10
2.42914e-11
6.19494e-11
3.57947e-10
2.10794e-09
1.15404e-08
2.49337e-08
8.1542e-08
5.47944e-08
1.15341e-07
5.66448e-08
4.12581e-08
1.33357e-07
1.42826e-07
1.635e-07
5.35901e-08
8.2017e-08
7.6104e-08
4.83291e-08
1.02449e-07
1.16581e-10
8.01463e-11
1.28988e-10
9.04118e-11
4.22284e-12
8.13416e-12
3.6486e-11
2.62767e-10
1.12998e-09
2.33011e-09
1.21536e-08
7.69324e-09
1.47873e-08
6.27015e-09
5.87599e-09
1.34407e-08
1.08662e-08
2.71397e-08
7.99271e-09
1.3357e-08
8.73241e-09
5.27451e-09
1.30556e-08
9.31372e-12
1.20082e-11
2.46337e-11
1.81344e-11
7.44571e-13
8.31446e-13
3.13866e-12
2.09497e-11
9.81976e-11
1.76123e-10
1.61238e-09
9.77488e-10
1.73398e-09
4.74828e-10
7.87542e-10
1.72714e-09
8.31038e-10
3.36437e-09
9.80304e-10
1.59199e-09
8.95171e-10
4.83919e-10
1.02611e-09
7.43461e-13
1.68193e-12
4.34619e-12
3.43564e-12
1.35614e-13
7.49956e-14
3.16247e-13
1.38639e-12
6.52201e-12
1.09694e-11
1.87902e-10
1.06293e-10
1.80954e-10
3.67896e-11
9.9642e-11
1.46664e-10
8.60828e-11
3.30399e-10
1.03281e-10
1.90751e-10
8.34944e-11
3.469e-11
7.41757e-11
6.77236e-14
2.17659e-13
6.92224e-13
6.15397e-13
4.16889e-14
1.81521e-14
3.89133e-14
9.40359e-14
3.56715e-13
6.26055e-13
1.91422e-11
1.01894e-11
1.62612e-11
2.99138e-12
1.2008e-11
1.3457e-11
8.73124e-12
1.91646e-11
9.36812e-12
1.79323e-11
6.75415e-12
2.20257e-12
5.1118e-12
1.67089e-14
1.45439e-14
1.0475e-13
1.03972e-13
1.91513e-14
1.59872e-14
1.42109e-14
1.48215e-14
2.67009e-14
4.29101e-14
1.71019e-12
8.60367e-13
1.30085e-12
2.58127e-13
1.17428e-12
8.51375e-13
7.66109e-13
1.60949e-12
6.87395e-13
1.33427e-12
6.45539e-13
1.21181e-13
4.58189e-13
1.249e-14
0
2.50355e-14
2.72005e-14
1.47105e-14
1.73195e-14
1.2379e-14
1.28231e-14
1.48215e-14
1.63758e-14
1.46327e-13
7.89924e-14
1.15796e-13
3.01981e-14
1.16407e-13
8.06577e-14
6.37823e-14
1.27731e-13
5.79536e-14
5.67879e-14
5.16254e-14
1.58762e-14
3.86358e-14
1.46549e-14
0
1.42109e-14
1.59872e-14
1.29341e-14
1.51545e-14
1.20459e-14
1.36557e-14
1.33227e-14
1.41553e-14
2.29261e-14
1.89848e-14
2.02616e-14
1.4877e-14
2.04836e-14
1.93179e-14
1.70419e-14
1.92069e-14
1.26565e-14
1.12133e-14
9.27036e-15
3.94129e-15
1.29896e-14
1.52101e-14
0
1.74305e-14
1.21569e-14
1.2379e-14
1.39888e-14
1.07692e-14
1.34892e-14
9.32587e-15
1.57097e-14
1.28231e-14
1.53211e-14
1.4988e-14
1.39333e-14
1.37668e-14
1.40998e-14
1.39333e-14
1.20459e-14
9.38138e-15
8.65974e-15
3.94129e-15
2.94209e-15
9.88098e-15
1.35447e-14
0
1.7597e-14
1.17129e-14
1.07692e-14
9.54792e-15
1.19904e-14
1.47105e-14
1.27676e-14
1.42109e-14
1.54876e-14
1.44884e-14
1.38223e-14
1.249e-14
1.46549e-14
1.51545e-14
1.67644e-14
1.29896e-14
1.10467e-14
5.4956e-15
6.21725e-15
4.60743e-15
6.77236e-15
1.06581e-14
0
1.46549e-14
1.26565e-14
1.05471e-14
1.01585e-14
1.67089e-14
1.4766e-14
1.22125e-14
1.38778e-14
1.44884e-14
1.4766e-14
1.53211e-14
1.21569e-14
1.57097e-14
1.32672e-14
1.45439e-14
1.18794e-14
8.9373e-15
5.38458e-15
6.05072e-15
4.27436e-15
9.54792e-15
8.9373e-15
0
1.06581e-14
1.37668e-14
1.20459e-14
1.16573e-14
1.39333e-14
1.44884e-14
9.4369e-15
1.63203e-14
1.45439e-14
1.2601e-14
1.60982e-14
1.24345e-14
1.55986e-14
1.4877e-14
1.54876e-14
1.24345e-14
1.27121e-14
1.03806e-14
5.66214e-15
4.4964e-15
1.49325e-14
6.43929e-15
0
1.08247e-14
1.19904e-14
1.06026e-14
9.49241e-15
1.29896e-14
1.2601e-14
1.06026e-14
1.52656e-14
1.35447e-14
1.33227e-14
1.41553e-14
1.19904e-14
1.249e-14
1.40998e-14
1.43774e-14
1.35447e-14
1.17684e-14
9.9365e-15
7.77156e-15
3.9968e-15
1.45439e-14
7.77156e-15
0
9.71445e-15
1.16018e-14
1.09357e-14
1.16573e-14
1.24345e-14
1.19349e-14
1.09357e-14
1.12688e-14
1.27121e-14
1.18239e-14
1.32117e-14
6.71685e-15
6.88338e-15
1.26565e-14
1.21569e-14
1.25455e-14
1.16018e-14
1.02141e-14
7.66054e-15
4.94049e-15
1.27121e-14
8.99281e-15
0
7.38298e-15
9.4369e-15
1.06581e-14
1.33782e-14
8.99281e-15
8.71525e-15
1.16573e-14
1.06581e-14
9.99201e-15
1.31561e-14
1.10467e-14
5.4956e-15
7.10543e-15
1.18794e-14
8.32667e-15
1.32117e-14
1.21569e-14
1.12688e-14
7.38298e-15
3.94129e-15
9.88098e-15
7.99361e-15
0
9.4369e-15
8.21565e-15
1.08247e-14
1.2379e-14
7.66054e-15
7.10543e-15
9.60343e-15
9.32587e-15
1.05471e-14
1.11022e-14
1.10467e-14
6.38378e-15
8.54872e-15
9.71445e-15
9.49241e-15
1.07692e-14
1.17129e-14
1.23235e-14
1.09912e-14
3.94129e-15
1.31561e-14
5.66214e-15
0
1.44884e-14
9.71445e-15
8.60423e-15
1.15463e-14
7.71605e-15
6.71685e-15
5.21805e-15
7.88258e-15
9.82547e-15
9.60343e-15
6.99441e-15
7.88258e-15
7.16094e-15
9.99201e-15
9.38138e-15
8.10463e-15
8.9373e-15
1.06026e-14
1.06581e-14
4.10783e-15
1.33227e-14
5.93969e-15
1.11022e-16
1.54321e-14
8.71525e-15
1.09357e-14
1.17684e-14
6.66134e-15
7.88258e-15
4.21885e-15
9.38138e-15
9.76996e-15
5.82867e-15
1.07137e-14
1.2601e-14
9.4369e-15
8.82627e-15
8.43769e-15
8.71525e-15
9.49241e-15
7.38298e-15
8.9373e-15
9.99201e-16
1.34337e-14
6.93889e-15
9.76996e-15
2.23155e-14
1.20459e-14
1.70419e-14
1.7264e-14
1.01585e-14
8.65974e-15
1.27676e-14
1.03251e-14
1.2268e-14
7.32747e-15
1.12133e-14
1.46549e-14
1.22125e-14
1.06026e-14
1.21014e-14
1.37113e-14
1.39333e-14
9.21485e-15
9.4369e-15
3.33067e-15
1.29896e-14
4.996e-15
2.44249e-15
1.84852e-14
1.22125e-14
1.08802e-14
1.62648e-14
6.27276e-15
6.43929e-15
9.4369e-15
4.94049e-15
9.76996e-15
5.21805e-15
8.10463e-15
1.26565e-14
1.03251e-14
8.9373e-15
8.43769e-15
1.09912e-14
1.06026e-14
7.21645e-15
5.4956e-15
5.4956e-15
1.34337e-14
1.05471e-15
1.08802e-14
2.15938e-14
1.63203e-14
1.17684e-14
1.37668e-14
9.21485e-15
6.82787e-15
7.38298e-15
6.05072e-15
1.07692e-14
1.02141e-14
6.27276e-15
9.71445e-15
9.32587e-15
8.04912e-15
1.15463e-14
1.10467e-14
1.21014e-14
9.15934e-15
8.38218e-15
1.4877e-14
5.21805e-15
0.450989
0.45919
0.451161
0.426454
0.586275
0.524038
0.482206
0.456834
0.581429
0.561602
0.545258
0.524623
0.462258
0.379071
0.301556
0.3181
0.151134
0.154731
0.152579
0.152429
0.0867104
0.091945
0.107955
0.112931
0.125509
0.137609
0.15216
0.143882
0.0646832
0.0652154
0.0592609
0.0567452
0.0156854
0.0163319
0.0169643
0.0177072
0.0101607
0.0165567
0.0214808
0.0252424
0.0291103
0.0345043
0.0375024
0.0397319
0.0310976
0.0324079
0.0337606
0.0352895
0.0187063
0.017151
0.0164982
0.0163999
0.00286848
0.00242591
0.00217177
0.00215167
0.000594452
0.000506947
0.000500066
0.000612727
0.000207034
0.000165036
0.000181233
0.000265751
6.42748e-05
8.57102e-05
0.000141808
0.000240267
1.73862e-05
2.17675e-05
3.08625e-05
4.99227e-05
5.82122e-06
6.18599e-06
8.04939e-06
1.00653e-05
1.7393e-06
1.28155e-06
1.71914e-06
2.09213e-06
4.47207e-07
2.68693e-07
3.26586e-07
3.75449e-07
9.51032e-08
5.32495e-08
6.48649e-08
5.50275e-08
1.21922e-08
1.07281e-08
8.67853e-09
8.837e-09
1.76796e-09
1.28262e-09
1.00457e-09
1.53467e-09
1.29708e-10
1.61176e-10
1.44583e-10
1.60889e-10
1.48964e-11
1.16904e-11
1.07208e-11
1.81987e-11
8.06466e-13
1.15469e-12
7.8898e-13
1.61138e-12
7.58282e-14
6.53921e-14
7.53841e-14
9.54792e-14
1.13243e-14
9.71445e-15
7.60503e-15
9.9365e-15
7.54952e-15
5.55112e-15
5.10703e-15
0
4.82947e-15
3.21965e-15
3.55271e-15
0
8.38218e-15
6.05072e-15
2.83107e-15
0
1.09357e-14
5.10703e-15
4.10783e-15
0
1.18794e-14
6.27276e-15
3.21965e-15
0
9.15934e-15
4.77396e-15
3.88578e-15
0
2.77556e-15
3.9968e-15
2.77556e-15
0
3.27516e-15
4.44089e-16
3.88578e-16
0
3.10862e-15
0
0
0
1.44329e-15
0
0
0
1.55431e-15
4.60743e-15
0
0
0
2.10942e-15
2.498e-15
7.43849e-15
1.11022e-16
0
1.66533e-15
0
0.401532
0.361905
0.429272
0.298781
0.293357
0.256581
0.292755
0.280316
0.403853
0.41566
0.394239
0.331491
0.304467
0.289466
0.274197
0.317631
0.500233
0.621877
0.738399
0.451246
0.707756
0.768367
0.747571
0.768646
0.798588
0.804694
0.795033
0.780593
0.763935
0.73667
0.68414
0.663088
0.673862
0.667535
0.67018
0.674681
0.683592
0.74533
0.436889
0.689304
0.815426
0.813305
0.726845
0.726253
0.689842
0.817109
0.832274
0.808806
0.792965
0.724472
0.643027
0.604322
0.594725
0.588682
0.576396
0.583404
0.730212
0.434382
0.635714
0.590298
0.529267
0.466126
0.422626
0.371196
0.506283
0.453421
0.458612
0.513811
0.54712
0.447425
0.37655
0.352351
0.344317
0.347188
0.410972
0.64976
0.322057
0.384795
0.309083
0.284067
0.294472
0.257562
0.271631
0.302589
0.232926
0.218403
0.255941
0.284599
0.192142
0.167007
0.168813
0.210282
0.243156
0.381706
0.66438
0.215298
0.184843
0.173952
0.173271
0.184832
0.195353
0.24121
0.189355
0.112725
0.102173
0.0926167
0.0929879
0.086061
0.103405
0.12212
0.129836
0.161661
0.303513
0.645576
0.14605
0.105492
0.133495
0.125179
0.124973
0.219508
0.208781
0.101947
0.0447754
0.0438919
0.0576913
0.0991248
0.121027
0.17595
0.249561
0.212233
0.215983
0.302535
0.61003
0.0591652
0.0724102
0.151258
0.133716
0.145729
0.168764
0.158061
0.0547772
0.0364873
0.0573513
0.111305
0.163614
0.193868
0.250047
0.324648
0.310771
0.269718
0.322089
0.611411
0.0222108
0.0773156
0.120759
0.109476
0.200617
0.249769
0.121886
0.0336124
0.0633236
0.0880171
0.135093
0.187984
0.238391
0.30269
0.428653
0.482564
0.409316
0.382331
0.629821
0.0288918
0.0325949
0.0551618
0.0791157
0.102666
0.114681
0.0726311
0.095577
0.113768
0.127116
0.138091
0.156943
0.17292
0.293594
0.463961
0.544287
0.563451
0.535662
0.653198
0.0428192
0.0467221
0.0504304
0.0584624
0.0679982
0.0715881
0.0714553
0.0751314
0.0652683
0.0581266
0.0601423
0.0673054
0.0745045
0.186505
0.410859
0.540849
0.605135
0.628682
0.655495
0.0378919
0.0401082
0.0435845
0.0471143
0.0580889
0.0625463
0.063019
0.0451131
0.0270039
0.0200961
0.0232212
0.0285693
0.0453778
0.100745
0.222986
0.417057
0.568154
0.624661
0.639363
0.0169542
0.0169806
0.0176982
0.0181561
0.0213649
0.0190437
0.0110684
0.00538018
0.00413017
0.0043475
0.00888863
0.0227332
0.0615025
0.123219
0.184076
0.325368
0.476823
0.583898
0.610126
0.00225681
0.00227922
0.00234126
0.00341374
0.00441864
0.00327775
0.00163307
0.00186058
0.00292793
0.0066305
0.0148359
0.0358903
0.0998167
0.201734
0.318555
0.402041
0.473357
0.532529
0.597066
0.000772414
0.000840936
0.000836145
0.000858517
0.0010963
0.0022574
0.00555638
0.00841861
0.0101355
0.0157702
0.0211156
0.0266871
0.113652
0.178647
0.183644
0.341511
0.492844
0.54706
0.593883
0.000455958
0.000632017
0.000926633
0.00211619
0.00512716
0.0106475
0.0203432
0.0295899
0.0351933
0.0447424
0.061837
0.0739524
0.292383
0.393496
0.357357
0.320748
0.53063
0.571906
0.595432
0.000439438
0.000748735
0.00151483
0.00385627
0.00876131
0.0168261
0.0288779
0.0436552
0.0626196
0.0864981
0.117238
0.186269
0.385849
0.463069
0.451778
0.439203
0.540928
0.581537
0.601561
0.000136863
0.000464341
0.00116217
0.00283455
0.00539879
0.00883711
0.0157057
0.0392045
0.0677249
0.111827
0.152036
0.245312
0.389361
0.442537
0.39943
0.419096
0.474044
0.569656
0.603763
2.71852e-05
0.000148244
0.000524906
0.00130076
0.00193134
0.00311342
0.00800018
0.0178444
0.0351213
0.0690394
0.0963582
0.154871
0.19392
0.210909
0.212211
0.286467
0.359351
0.477371
0.560014
4.46089e-06
3.25662e-05
0.000137645
0.000344909
0.000576438
0.00174329
0.00537998
0.0103488
0.0206637
0.0381976
0.0577195
0.0780578
0.0970059
0.122633
0.148628
0.225942
0.274798
0.365839
0.467931
6.96358e-07
5.90682e-06
3.16892e-05
8.04538e-05
0.000292181
0.00190249
0.00388324
0.00546971
0.012207
0.0235354
0.0441105
0.0587969
0.0720453
0.0951831
0.11901
0.180255
0.224413
0.30845
0.426512
1.06814e-07
9.03569e-07
6.80492e-06
1.52438e-05
0.000101315
0.000520305
0.000432905
0.0012633
0.00357546
0.0082547
0.0149971
0.0240458
0.0334907
0.0565723
0.0966863
0.157982
0.215935
0.293919
0.41729
1.38213e-08
1.53379e-07
1.23486e-06
2.59834e-06
2.57825e-05
0.000136735
0.00017557
0.00119124
0.00242608
0.00419739
0.00695697
0.00920091
0.013911
0.027476
0.0786067
0.145208
0.225842
0.300436
0.413397
1.92597e-09
2.54269e-08
1.8485e-07
5.32486e-07
4.83729e-06
3.26704e-05
4.82017e-05
6.58454e-05
0.000101622
0.00102052
0.00218991
0.00241344
0.00472663
0.0116739
0.0490472
0.11197
0.23303
0.319941
0.407515
2.57316e-10
4.07851e-09
2.76894e-08
8.22949e-08
5.42349e-07
3.51476e-06
8.29304e-06
1.33471e-05
3.1586e-05
0.000346532
0.00054542
0.000656808
0.000779932
0.00271306
0.0131216
0.049242
0.17619
0.314187
0.380797
3.92344e-11
4.97769e-10
4.26325e-09
7.67086e-09
4.19161e-08
5.72539e-07
8.33952e-07
2.20462e-06
8.55232e-06
4.5445e-05
0.000106505
0.000230667
0.0002293
0.000410083
0.00167457
0.0133113
0.0730645
0.217046
0.285722
4.75259e-12
6.03078e-11
5.41073e-10
6.77629e-10
4.92481e-09
2.59417e-08
4.60438e-08
3.86937e-07
1.50744e-06
6.22639e-06
2.35256e-05
7.8319e-05
8.361e-05
8.83191e-05
0.000148286
0.00125327
0.0140255
0.0730757
0.130831
5.66824e-13
4.61131e-12
7.28239e-11
6.15963e-11
3.69995e-10
9.58184e-10
7.50046e-09
8.10279e-08
4.80575e-07
1.89523e-06
5.03336e-06
2.95254e-05
4.10583e-05
2.72779e-05
2.46557e-05
0.000117607
0.00184396
0.016041
0.0472891
4.84057e-14
5.13256e-13
2.80809e-12
7.41945e-12
1.1634e-11
8.26212e-11
7.46598e-10
7.88972e-09
3.8971e-08
2.54119e-07
1.13205e-06
1.63272e-05
1.86887e-05
9.31462e-06
1.0015e-05
3.61535e-05
0.000407395
0.00593065
0.0215197
4.21885e-15
4.61298e-14
1.74638e-13
3.30791e-13
5.7393e-13
1.10992e-11
1.35647e-10
1.2207e-09
9.49608e-09
3.42406e-08
4.56583e-07
4.60725e-06
5.53522e-06
2.6787e-06
7.7694e-06
3.76944e-05
0.000230161
0.00417999
0.0138382
1.94289e-15
8.60423e-15
1.41553e-14
2.43694e-14
7.33857e-14
1.03217e-12
2.31284e-11
2.04183e-10
1.8146e-09
5.91068e-09
1.39286e-07
8.67031e-07
5.30002e-07
9.89006e-07
9.23494e-06
7.96009e-05
0.000191842
0.00243913
0.0109618
3.05311e-15
3.10862e-15
3.4972e-15
4.32987e-15
1.73195e-14
2.67009e-13
2.67869e-12
4.05572e-11
2.19033e-10
1.46958e-09
8.43552e-09
4.98186e-08
2.01757e-07
8.82069e-07
1.21387e-05
0.000118419
0.000230074
0.000753943
0.00931196
1.22125e-15
4.10783e-15
3.55271e-15
4.82947e-15
2.29261e-14
5.10703e-13
3.99636e-12
2.34747e-11
4.51207e-10
3.03533e-09
2.073e-08
1.28409e-07
3.79854e-07
1.31939e-06
1.27023e-05
0.000125444
0.000286152
0.000500654
0.00808879
3.94129e-15
4.44089e-15
5.38458e-15
1.86517e-14
8.92064e-14
8.90621e-13
7.7065e-12
6.29532e-11
1.03131e-09
5.6723e-09
2.68811e-08
1.46023e-07
4.20339e-07
1.62251e-06
1.58621e-05
0.00012549
0.000299554
0.000598469
0.010912
1.9984e-15
3.44169e-15
5.93969e-15
1.83187e-14
8.40994e-14
6.90004e-13
8.0817e-12
7.45895e-11
1.23894e-09
6.31248e-09
3.13977e-08
1.39227e-07
2.69157e-07
9.1807e-07
1.22831e-05
0.000110159
0.000300567
0.000613084
0.0111198
5.55112e-17
5.44009e-15
9.9365e-15
2.66454e-14
2.00728e-13
1.05965e-12
1.07527e-11
1.04428e-10
2.48657e-09
4.05765e-09
3.27348e-08
1.52325e-07
1.0737e-07
2.76771e-07
6.47246e-06
9.32982e-05
0.000206748
0.00065175
0.0117619
2.94209e-15
3.21965e-15
8.16014e-15
2.69784e-14
1.39666e-13
1.25899e-12
5.47223e-12
4.29879e-11
8.41649e-10
4.45732e-10
1.02827e-08
9.52577e-09
7.46715e-09
2.81118e-08
8.54757e-07
1.81426e-05
5.96552e-05
0.00061589
0.00915105
3.44169e-15
3.21965e-15
7.16094e-15
1.36002e-14
5.27911e-14
5.52891e-13
2.41246e-12
1.70925e-11
1.9627e-11
4.99431e-11
7.53913e-09
2.86301e-09
3.70207e-09
8.11309e-09
1.92081e-07
1.71439e-06
7.60338e-06
0.000188726
0.00520621
3.38618e-15
5.44009e-15
1.88738e-15
6.88338e-15
3.06422e-14
2.17604e-13
1.16263e-12
3.70326e-12
4.33353e-12
1.20955e-11
3.97967e-10
4.65751e-10
3.26689e-09
8.05546e-09
4.04395e-08
5.50456e-08
5.5283e-07
4.29407e-05
0.00312739
4.27436e-15
4.44089e-15
6.10623e-16
6.38378e-15
9.4369e-15
3.05311e-14
8.60423e-14
1.4827e-13
2.05613e-13
2.3207e-12
1.58493e-11
3.29587e-10
5.9594e-09
1.16415e-08
1.75765e-08
2.91388e-08
3.93072e-07
8.47741e-06
0.00200393
1.13798e-14
7.43849e-15
0
0
0
1.77636e-15
3.60822e-15
3.88578e-16
1.79856e-14
2.07978e-12
1.28771e-11
3.83205e-10
7.54284e-09
1.68372e-08
2.05748e-08
3.17853e-08
4.89274e-07
7.61564e-07
0.00147262
8.16014e-15
8.27116e-15
0
5.9952e-15
9.38138e-15
7.32747e-15
7.99361e-15
0
1.64868e-14
3.01725e-12
1.43142e-11
3.53985e-10
8.14638e-09
1.78002e-08
2.17777e-08
3.65252e-08
6.15329e-07
7.22788e-07
0.000547983
)
;

boundaryField
{
    leftWall
    {
        type            zeroGradient;
    }
    rightWall
    {
        type            zeroGradient;
    }
    lowerWall
    {
        type            zeroGradient;
    }
    atmosphere
    {
        type            inletOutlet;
        inletValue      uniform 0;
        value           nonuniform List<scalar> 
46
(
1.05471e-15
1.08802e-14
2.15938e-14
1.63203e-14
1.17684e-14
1.37668e-14
9.21485e-15
6.82787e-15
7.38298e-15
6.05072e-15
1.07692e-14
1.02141e-14
6.27276e-15
9.71445e-15
9.32587e-15
8.04912e-15
1.15463e-14
1.10467e-14
1.21014e-14
9.15934e-15
8.38218e-15
1.4877e-14
5.21805e-15
1.11022e-16
0
1.66533e-15
0
8.16014e-15
8.27116e-15
0
5.9952e-15
9.38138e-15
7.32747e-15
7.99361e-15
0
1.64868e-14
3.01725e-12
1.43142e-11
3.53985e-10
8.14638e-09
1.78002e-08
2.17777e-08
3.65252e-08
6.15329e-07
7.22788e-07
0.000547983
)
;
    }
    defaultFaces
    {
        type            empty;
    }
}


// ************************************************************************* //
