/*--------------------------------*- C++ -*----------------------------------*\
| =========                 |                                                 |
| \\      /  F ield         | foam-extend: Open Source CFD                    |
|  \\    /   O peration     | Version:     4.1                                |
|   \\  /    A nd           | Web:         http://www.foam-extend.org         |
|    \\/     M anipulation  |                                                 |
\*---------------------------------------------------------------------------*/
FoamFile
{
    version     2.0;
    format      ascii;
    class       volScalarField;
    location    "0.75";
    object      C;
}
// * * * * * * * * * * * * * * * * * * * * * * * * * * * * * * * * * * * * * //

dimensions      [0 0 0 0 0 0 0];

internalField   nonuniform List<scalar> 
2268
(
0.307545
-0.0292089
0.643219
0.808594
0.914715
0.399642
-0.0578991
0.408603
0.872055
0.983866
0.997934
0.99899
0.999578
0.999681
0.999781
0.999906
0.99996
0.99992
0.999095
0.996204
0.991499
0.966281
0.178368
0.263421
-0.183248
0.459738
0.320788
0.869223
0.436442
0.222217
0.294218
0.704536
0.921527
0.973844
0.992963
0.99834
0.999341
0.999662
0.999781
0.999878
0.999941
0.999813
0.999801
0.999452
0.992721
0.954907
0.187945
-0.248823
-0.133271
-0.155061
0.346532
0.52092
0.340817
0.425692
0.77963
0.726729
0.928408
0.986157
0.997239
0.998909
0.999431
0.999638
0.999776
0.999909
0.999944
0.999902
0.998707
0.993147
0.98344
0.260472
-0.288949
-0.337887
-0.166963
0.323623
0.512413
0.344048
0.508237
0.633516
-0.114505
0.633631
0.967212
0.995706
0.998012
0.99824
0.998728
0.998846
0.999121
0.999713
0.999748
0.99898
0.992209
0.983681
0.364469
-0.00932015
-0.127426
-0.307407
-0.326244
0.297252
0.158004
0.44129
0.379125
-0.442089
0.526656
0.913405
0.989262
0.994639
0.993645
0.993591
0.996628
0.996795
0.997409
0.999066
0.995909
0.981691
0.974621
0.309174
-0.398156
-0.327647
-0.384892
-0.434054
-0.121933
-0.0886962
0.344766
0.288008
-0.397787
0.53511
0.905969
0.977504
0.986513
0.982481
0.986563
0.990291
0.972029
0.977342
0.993533
0.981662
0.940019
0.913639
-0.175612
-0.534237
-0.568605
-0.582263
-0.553608
-0.104939
-0.233462
0.270734
0.303083
0.0295218
0.579819
0.8763
0.958259
0.963215
0.956382
0.961397
0.953904
0.801476
0.848956
0.954585
0.959775
0.839832
0.703904
-0.627514
-0.666211
-0.637532
-0.614913
-0.587953
-0.310394
-0.348083
0.346817
-0.148836
-0.230739
0.460902
0.902685
0.938529
0.945434
0.948237
0.934411
0.900951
0.513409
0.569697
0.814012
0.887489
0.687449
0.336428
0.251177
0.308149
0.318729
0.321463
0.321815
0.320701
0.320034
0.322274
0.314317
0.323925
0.322717
0.294061
0.2379
0.184823
0.110638
0.0499851
0.0176576
0.0113599
-0.0669675
0.213321
0.188733
0.191105
0.291042
0.33962
0.336053
0.325257
0.358132
0.340286
0.314613
0.283185
0.24169
0.127047
0.0685063
0.0373386
-0.0408198
-0.101786
-0.0943867
-0.0699322
0.168759
0.0782424
-0.0115052
0.175393
0.301564
0.235483
0.210538
0.299311
0.284324
0.204015
0.0878251
0.0277381
-0.0138663
-0.04499
0.0292758
0.0567428
0.0473005
0.18211
0.265802
0.121887
-0.090872
-0.204198
0.130752
0.265083
0.0110043
-0.0784571
0.117878
0.125392
-0.048528
-0.167746
-0.320139
-0.360825
-0.110191
0.0164127
0.145854
0.214432
0.314138
0.415576
0.075436
-0.194288
-0.292496
-0.141505
0.0611997
-0.242559
-0.27599
-0.067912
-0.210545
-0.384944
-0.412952
-0.619273
-0.650146
-0.441586
-0.0983553
0.160625
0.241382
0.257872
0.432574
0.0238352
-0.289799
-0.376313
-0.381121
-0.310191
-0.540922
-0.547718
-0.295448
-0.540594
-0.626428
-0.583519
-0.671353
-0.718621
-0.702726
-0.380943
-0.104981
0.0851435
0.135506
0.440331
-0.030824
-0.416052
-0.586413
-0.486833
-0.447781
-0.558675
-0.726999
-0.645899
-0.670005
-0.674433
-0.691542
-0.718598
-0.728757
-0.732058
-0.655982
-0.379977
-0.0851239
0.11597
0.447663
-0.11935
-0.550347
-0.626857
-0.517465
-0.35774
-0.583882
-0.74914
-0.730162
-0.598238
-0.558106
-0.593017
-0.571365
-0.595622
-0.666135
-0.655303
-0.551466
-0.226808
0.11839
0.456691
-0.787978
-0.725578
-0.67176
-0.574215
-0.478966
-0.0790571
-0.301649
0.204826
-0.301192
0.199461
0.426494
0.866098
0.861932
0.916338
0.886339
0.744184
0.774689
0.342515
0.233934
0.530957
0.668453
0.462867
-0.00592785
-0.892348
-0.734031
-0.537244
-0.526303
-0.45489
-0.162853
-0.457437
-0.096761
-0.569062
-0.227851
-0.357132
0.446659
0.485232
0.814439
0.745163
0.158871
0.390991
0.319649
0.125569
0.433769
0.539171
0.532099
0.44856
-0.928377
-0.683848
-0.510926
-0.437151
-0.529908
-0.399558
-0.520014
-0.363105
-0.453662
-0.412862
-0.390333
0.356291
-0.204513
0.607284
0.421178
-0.489661
-0.312009
-0.110509
-0.151474
0.284641
0.360087
0.283856
0.198767
-0.958454
-0.843722
-0.672763
-0.267666
-0.703112
-0.684138
-0.723207
-0.297296
0.118204
-0.0989677
-0.201289
0.200522
-0.442905
0.243908
-0.548128
-0.812473
-0.800907
-0.606438
-0.676262
-0.19586
0.0212479
-0.276831
-0.268549
-0.975623
-0.94938
-0.896617
-0.657013
-0.891454
-0.832353
-0.883376
-0.735926
-0.540168
-0.490381
-0.452835
0.283344
-0.501707
-0.261653
-0.607808
-0.896717
-0.942556
-0.83924
-0.904111
-0.754215
-0.509859
-0.864814
-0.829349
-0.975969
-0.965237
-0.957816
-0.934168
-0.944434
-0.920351
-0.961622
-0.923941
-0.813771
-0.762313
-0.860978
-0.401209
-0.898624
-0.681675
-0.902539
-0.966596
-0.963773
-0.938898
-0.950359
-0.903651
-0.860203
-0.917503
-0.86399
-0.97761
-0.971794
-0.971115
-0.970961
-0.968567
-0.963054
-0.985927
-0.972964
-0.93625
-0.922187
-0.968721
-0.87275
-0.970602
-0.946055
-0.98617
-0.982708
-0.975626
-0.969818
-0.974714
-0.958461
-0.946298
-0.924488
-0.841258
-0.977943
-0.975122
-0.97552
-0.974217
-0.978304
-0.982461
-0.989123
-0.990287
-0.981205
-0.98312
-0.997927
-0.993421
-0.992164
-0.993079
-0.99277
-0.987925
-0.983443
-0.98073
-0.98181
-0.981388
-0.982003
-0.972451
-0.934233
-0.981602
-0.98378
-0.981484
-0.976627
-0.976644
-0.979342
-0.98653
-0.992887
-0.992216
-0.994078
-0.998713
-0.997983
-0.997693
-0.996956
-0.994209
-0.99087
-0.988008
-0.98693
-0.988979
-0.994581
-0.995209
-0.992464
-0.980936
-0.987995
-0.991407
-0.98761
-0.98453
-0.986835
-0.985036
-0.989225
-0.991172
-0.994607
-0.996124
-0.999217
-0.999379
-0.998854
-0.997488
-0.994923
-0.992803
-0.991713
-0.991415
-0.994652
-0.997108
-0.997354
-0.99657
-0.991569
-0.993554
-0.995134
-0.993938
-0.993892
-0.997215
-0.996876
-0.997568
-0.996765
-0.996657
-0.997624
-0.999421
-0.999586
-0.999156
-0.997985
-0.996298
-0.995205
-0.995042
-0.995093
-0.996331
-0.997336
-0.996906
-0.991045
-0.970477
-0.997345
-0.997561
-0.998304
-0.99805
-0.999336
-0.999477
-0.999412
-0.998592
-0.998065
-0.998635
-0.999562
-0.999711
-0.999409
-0.998779
-0.997968
-0.996741
-0.994564
-0.990357
-0.987813
-0.986647
-0.983274
-0.967803
-0.947476
-0.999219
-0.998826
-0.999261
-0.999341
-0.999842
-0.999922
-0.999863
-0.99954
-0.999195
-0.999295
-0.999658
-0.999125
-0.996861
-0.991721
-0.976793
-0.964049
-0.959477
-0.952072
-0.948801
-0.947997
-0.948981
-0.952942
-0.958565
-0.999798
-0.999504
-0.999694
-0.999819
-0.99995
-0.999994
-0.999979
-0.999885
-0.999706
-0.999651
-0.999636
-0.998724
-0.995398
-0.987432
-0.978991
-0.975049
-0.974157
-0.975679
-0.980642
-0.984313
-0.989021
-0.992419
-0.993755
-0.999938
-0.999824
-0.999904
-0.999959
-0.999993
-0.999999
-0.999997
-0.999982
-0.999937
-0.999834
-0.99974
-0.999181
-0.997479
-0.993052
-0.990006
-0.988545
-0.988152
-0.990539
-0.992434
-0.992932
-0.997045
-0.998475
-0.998698
-0.999979
-0.999953
-0.999974
-0.999991
-0.999998
-1
-0.999999
-0.999995
-0.999976
-0.999922
-0.999875
-0.999681
-0.999357
-0.997734
-0.997792
-0.995784
-0.996061
-0.998221
-0.998253
-0.996855
-0.998359
-0.99953
-0.999627
-0.999994
-0.999989
-0.999994
-0.999998
-1
-1
-1
-0.999998
-0.999989
-0.999961
-0.999936
-0.999851
-0.999772
-0.999301
-0.999498
-0.998782
-0.998561
-0.999162
-0.999645
-0.999328
-0.999088
-0.999785
-0.999891
-0.999998
-0.999998
-0.999999
-1
-1
-1
-1
-0.999999
-0.999995
-0.999981
-0.999967
-0.999936
-0.999906
-0.99984
-0.999883
-0.999667
-0.99972
-0.999788
-0.999876
-0.999871
-0.999794
-0.99988
-0.999956
-1
-1
-1
-1
-1
-1
-1
-1
-0.999998
-0.999992
-0.999986
-0.999983
-0.999964
-0.999968
-0.99998
-0.999908
-0.999936
-0.999947
-0.999971
-0.999972
-0.999957
-0.999973
-0.999986
-1
-1
-1
-1
-1
-1
-1
-1
-0.999999
-0.999998
-0.999996
-0.999996
-0.99999
-0.999994
-0.999997
-0.999981
-0.999986
-0.99999
-0.999995
-0.999995
-0.999991
-0.999995
-0.999996
-1
-1
-1
-1
-1
-1
-1
-1
-1
-1
-0.999999
-0.999999
-0.999998
-0.999999
-0.999999
-0.999997
-0.999998
-0.999998
-0.999999
-0.999999
-0.999998
-0.999999
-0.999999
-1
-1
-1
-1
-1
-1
-1
-1
-1
-1
-1
-1
-1
-1
-1
-1
-1
-1
-1
-1
-1
-1
-1
-1
-1
-1
-1
-1
-1
-1
-1
-1
-1
-1
-1
-1
-1
-1
-1
-1
-1
-1
-1
-1
-1
-1
-1
-1
-1
-1
-1
-1
-1
-1
-1
-1
-1
-1
-1
-1
-1
-1
-1
-1
-1
-1
-1
-1
-1
-1
-1
-1
-1
-1
-1
-1
-1
-1
-1
-1
-1
-1
-1
-1
-1
-1
-1
-1
-1
-1
-1
-1
-1
-1
-1
-1
-1
-1
-1
-1
-1
-1
-1
-1
-1
-1
-1
-1
-1
-1
-1
-1
-1
-1
-1
-1
-1
-1
-1
-1
-1
-1
-1
-1
-1
-1
-1
-1
-1
-1
-1
-1
-1
-1
-1
-1
-1
-1
-1
-1
-1
-1
-1
-1
-1
-1
-1
-1
-1
-1
-1
-1
-1
-1
-1
-1
-1
-1
-1
-1
-1
-1
-1
-1
-1
-1
-1
-1
-1
-1
-1
-1
-1
-1
-1
-1
-1
-1
-1
-1
-1
-1
-1
-1
-1
-1
-1
-1
-1
-1
-1
-1
-1
-1
-1
-1
-1
-1
-1
-1
-1
-1
-1
-1
-1
-1
-1
-1
-1
-1
-1
-1
-1
-1
-1
-1
-1
-1
-1
-1
-1
-1
-1
-1
-1
-1
-1
-1
-1
-1
-1
-1
-1
-1
-1
-1
-1
-1
-1
-1
-1
-1
-1
-1
-1
-1
-1
-1
-1
-1
-1
-1
-1
-1
-1
-1
-1
-1
-1
-1
-1
-1
-1
-1
-1
-1
-1
-1
-1
-1
-1
-1
-1
-1
-1
-1
-1
-1
-1
-1
-1
-1
-1
-1
-1
-1
-1
-1
-1
-1
-1
-1
-1
-1
-1
-1
-1
-1
-1
-1
-1
-1
-1
-1
-1
-1
-1
-1
-1
-1
-1
-1
-1
-1
-1
-1
-1
-1
-1
-1
-1
-1
-1
-1
-1
-1
-1
-1
-1
-1
-1
-1
-1
-1
-1
-1
-1
-1
-1
-1
-1
-1
-1
-1
-1
-1
-1
-1
-1
-1
-1
-1
-1
-1
-1
-1
-1
-1
-1
-1
-1
-1
-1
-1
-1
-1
-1
-1
-1
-1
-1
-1
-1
-1
-1
-1
-1
-1
-1
-1
-1
-1
-1
-1
-1
-1
-1
-1
-1
-1
-1
-1
-1
-1
-1
-1
-1
-1
-1
-1
-1
-1
-1
-1
-1
-1
-1
-1
-1
-1
-1
-1
-1
-1
-1
-1
-1
-1
-1
-1
-1
-1
-1
-1
-1
-1
-1
-1
-1
-1
-1
-1
-1
-1
-1
-1
-1
-1
-1
-1
-1
-1
-1
-1
-1
-1
-1
-1
-1
-1
-1
-1
-1
-1
-1
-1
-1
-1
-1
-1
-1
-1
-1
-1
-1
-1
-1
-1
-1
-1
-1
-1
-1
-1
-1
-1
-1
-1
-1
-1
-1
-1
-1
-0.0980229
-0.0816194
-0.097678
-0.147091
0.172549
0.0480759
-0.0355886
-0.0863312
0.162858
0.123204
0.0905155
0.0492464
-0.0754846
-0.241857
-0.396888
-0.363801
-0.697732
-0.690537
-0.694843
-0.695142
-0.826579
-0.81611
-0.784091
-0.774138
-0.748981
-0.724782
-0.69568
-0.712237
-0.870634
-0.869569
-0.881478
-0.88651
-0.968629
-0.967336
-0.966071
-0.964586
-0.979679
-0.966887
-0.957038
-0.949515
-0.941779
-0.930991
-0.924995
-0.920536
-0.937805
-0.935184
-0.932479
-0.929421
-0.962587
-0.965698
-0.967004
-0.9672
-0.994263
-0.995148
-0.995656
-0.995697
-0.998811
-0.998986
-0.999
-0.998775
-0.999586
-0.99967
-0.999638
-0.999468
-0.999871
-0.999829
-0.999716
-0.999519
-0.999965
-0.999956
-0.999938
-0.9999
-0.999988
-0.999988
-0.999984
-0.99998
-0.999997
-0.999997
-0.999997
-0.999996
-0.999999
-0.999999
-0.999999
-0.999999
-1
-1
-1
-1
-1
-1
-1
-1
-1
-1
-1
-1
-1
-1
-1
-1
-1
-1
-1
-1
-1
-1
-1
-1
-1
-1
-1
-1
-1
-1
-1
-1
-1
-1
-1
-1
-1
-1
-1
-1
-1
-1
-1
-1
-1
-1
-1
-1
-1
-1
-1
-1
-1
-1
-1
-1
-1
-1
-1
-1
-1
-1
-1
-1
-1
-1
-1
-1
-1
-1
-1
-1
-1
-1
-1
-1
-1
-1
-1
-1
-1
-1
-1
-1
-0.196936
-0.27619
-0.141455
-0.402438
-0.413285
-0.486839
-0.414491
-0.439368
-0.192293
-0.16868
-0.211522
-0.337018
-0.391065
-0.421069
-0.451605
-0.364738
0.000466673
0.243755
0.476797
-0.0975074
0.415512
0.536733
0.495143
0.537292
0.597176
0.609389
0.590066
0.561186
0.52787
0.473341
0.36828
0.326176
0.347724
0.33507
0.340361
0.349362
0.367183
0.49066
-0.126222
0.378609
0.630852
0.626609
0.453691
0.452507
0.379684
0.634217
0.664548
0.617613
0.58593
0.448943
0.286053
0.208644
0.189451
0.177364
0.152792
0.166807
0.460424
-0.131237
0.271428
0.180596
0.058534
-0.0677485
-0.154748
-0.257607
0.0125668
-0.0931588
-0.0827754
0.0276224
0.0942404
-0.105151
-0.246899
-0.295298
-0.311367
-0.305624
-0.178056
0.299519
-0.355886
-0.230411
-0.381835
-0.431866
-0.411055
-0.484877
-0.456738
-0.394823
-0.534148
-0.563194
-0.488119
-0.430803
-0.615716
-0.665985
-0.662375
-0.579436
-0.513688
-0.236588
0.328759
-0.569403
-0.630314
-0.652095
-0.653458
-0.630336
-0.609294
-0.517579
-0.621291
-0.77455
-0.795654
-0.814767
-0.814024
-0.827878
-0.793191
-0.755761
-0.740328
-0.676678
-0.392973
0.291152
-0.7079
-0.789016
-0.73301
-0.749642
-0.750053
-0.560985
-0.582438
-0.796106
-0.910449
-0.912216
-0.884617
-0.80175
-0.757946
-0.6481
-0.500878
-0.575533
-0.568034
-0.39493
0.220061
-0.88167
-0.85518
-0.697483
-0.732569
-0.708542
-0.662472
-0.683879
-0.890446
-0.927025
-0.885297
-0.77739
-0.672771
-0.612264
-0.499907
-0.350704
-0.378457
-0.460564
-0.355822
0.222823
-0.955578
-0.845369
-0.758482
-0.781049
-0.598765
-0.500462
-0.756228
-0.932775
-0.873353
-0.823966
-0.729814
-0.624031
-0.523218
-0.39462
-0.142694
-0.0348727
-0.181367
-0.235338
0.259642
-0.942216
-0.93481
-0.889676
-0.841769
-0.794667
-0.770639
-0.854738
-0.808846
-0.772464
-0.745768
-0.723819
-0.686114
-0.65416
-0.412811
-0.0720784
0.0885731
0.126901
0.0713242
0.306395
-0.914362
-0.906556
-0.899139
-0.883075
-0.864004
-0.856824
-0.857089
-0.849737
-0.869463
-0.883747
-0.879715
-0.865389
-0.850991
-0.626991
-0.178283
0.0816972
0.210269
0.257364
0.31099
-0.924216
-0.919784
-0.912831
-0.905771
-0.883822
-0.874907
-0.873962
-0.909774
-0.945992
-0.959808
-0.953558
-0.942861
-0.909244
-0.79851
-0.554029
-0.165886
0.136309
0.249322
0.278727
-0.966092
-0.966039
-0.964604
-0.963688
-0.95727
-0.961913
-0.977863
-0.98924
-0.99174
-0.991305
-0.982223
-0.954534
-0.876995
-0.753562
-0.631847
-0.349264
-0.0463544
0.167796
0.220252
-0.995486
-0.995442
-0.995317
-0.993173
-0.991163
-0.993444
-0.996734
-0.996279
-0.994144
-0.986739
-0.970328
-0.928219
-0.800367
-0.596533
-0.362889
-0.195917
-0.0532853
0.0650577
0.194131
-0.998455
-0.998318
-0.998328
-0.998283
-0.997807
-0.995485
-0.988887
-0.983163
-0.979729
-0.96846
-0.957769
-0.946626
-0.772695
-0.642705
-0.632711
-0.316979
-0.0143112
0.0941191
0.187767
-0.999088
-0.998736
-0.998147
-0.995768
-0.989746
-0.978705
-0.959314
-0.94082
-0.929613
-0.910515
-0.876326
-0.852095
-0.415234
-0.213008
-0.285287
-0.358504
0.0612605
0.143811
0.190864
-0.999121
-0.998503
-0.99697
-0.992287
-0.982477
-0.966348
-0.942244
-0.91269
-0.874761
-0.827004
-0.765524
-0.627462
-0.228302
-0.0738611
-0.0964432
-0.121594
0.0818569
0.163075
0.203122
-0.999726
-0.999071
-0.997676
-0.994331
-0.989202
-0.982326
-0.968589
-0.921591
-0.86455
-0.776346
-0.695927
-0.509376
-0.221278
-0.114927
-0.201139
-0.161807
-0.0519129
0.139311
0.207526
-0.999946
-0.999704
-0.99895
-0.997398
-0.996137
-0.993773
-0.984
-0.964311
-0.929757
-0.861921
-0.807284
-0.690258
-0.612159
-0.578183
-0.575577
-0.427066
-0.281298
-0.0452584
0.120027
-0.999991
-0.999935
-0.999725
-0.99931
-0.998847
-0.996513
-0.98924
-0.979302
-0.958673
-0.923605
-0.884561
-0.843884
-0.805988
-0.754734
-0.702744
-0.548116
-0.450404
-0.268322
-0.0641377
-0.999999
-0.999988
-0.999937
-0.999839
-0.999416
-0.996195
-0.992234
-0.989061
-0.975586
-0.952929
-0.911779
-0.882406
-0.855909
-0.809634
-0.76198
-0.63949
-0.551173
-0.3831
-0.146977
-1
-0.999998
-0.999986
-0.99997
-0.999797
-0.998959
-0.999134
-0.997473
-0.992849
-0.983491
-0.970006
-0.951908
-0.933019
-0.886855
-0.806627
-0.684036
-0.568131
-0.412161
-0.165419
-1
-1
-0.999998
-0.999995
-0.999948
-0.999727
-0.999649
-0.997618
-0.995148
-0.991605
-0.986086
-0.981598
-0.972178
-0.945048
-0.842787
-0.709584
-0.548315
-0.399128
-0.173206
-1
-1
-1
-0.999999
-0.99999
-0.999935
-0.999904
-0.999868
-0.999797
-0.997959
-0.99562
-0.995173
-0.990547
-0.976652
-0.901906
-0.776061
-0.53394
-0.360119
-0.18497
-1
-1
-1
-1
-0.999999
-0.999993
-0.999983
-0.999973
-0.999937
-0.999307
-0.998909
-0.998686
-0.99844
-0.994574
-0.973757
-0.901516
-0.647619
-0.371625
-0.238405
-1
-1
-1
-1
-1
-0.999999
-0.999998
-0.999996
-0.999983
-0.999909
-0.999787
-0.999539
-0.999541
-0.99918
-0.996651
-0.973377
-0.853871
-0.565908
-0.428555
-1
-1
-1
-1
-1
-1
-1
-0.999999
-0.999997
-0.999988
-0.999953
-0.999843
-0.999833
-0.999823
-0.999703
-0.997493
-0.971949
-0.853849
-0.738338
-1
-1
-1
-1
-1
-1
-1
-1
-0.999999
-0.999996
-0.99999
-0.999941
-0.999918
-0.999945
-0.999951
-0.999765
-0.996312
-0.967918
-0.905422
-1
-1
-1
-1
-1
-1
-1
-1
-1
-0.999999
-0.999998
-0.999967
-0.999963
-0.999981
-0.99998
-0.999928
-0.999185
-0.988139
-0.956961
-1
-1
-1
-1
-1
-1
-1
-1
-1
-1
-0.999999
-0.999991
-0.999989
-0.999995
-0.999984
-0.999925
-0.99954
-0.99164
-0.972324
-1
-1
-1
-1
-1
-1
-1
-1
-1
-1
-1
-0.999998
-0.999999
-0.999998
-0.999982
-0.999841
-0.999616
-0.995122
-0.978076
-1
-1
-1
-1
-1
-1
-1
-1
-1
-1
-1
-1
-1
-0.999998
-0.999976
-0.999763
-0.99954
-0.998492
-0.981376
-1
-1
-1
-1
-1
-1
-1
-1
-1
-1
-1
-1
-0.999999
-0.999997
-0.999975
-0.999749
-0.999428
-0.998999
-0.983822
-1
-1
-1
-1
-1
-1
-1
-1
-1
-1
-1
-1
-0.999999
-0.999997
-0.999968
-0.999749
-0.999401
-0.998803
-0.978176
-1
-1
-1
-1
-1
-1
-1
-1
-1
-1
-1
-1
-0.999999
-0.999998
-0.999975
-0.99978
-0.999399
-0.998774
-0.97776
-1
-1
-1
-1
-1
-1
-1
-1
-1
-1
-1
-1
-1
-0.999999
-0.999987
-0.999813
-0.999587
-0.998696
-0.976476
-1
-1
-1
-1
-1
-1
-1
-1
-1
-1
-1
-1
-1
-1
-0.999998
-0.999964
-0.999881
-0.998768
-0.981698
-1
-1
-1
-1
-1
-1
-1
-1
-1
-1
-1
-1
-1
-1
-1
-0.999997
-0.999985
-0.999623
-0.989588
-1
-1
-1
-1
-1
-1
-1
-1
-1
-1
-1
-1
-1
-1
-1
-1
-0.999999
-0.999914
-0.993745
-1
-1
-1
-1
-1
-1
-1
-1
-1
-1
-1
-1
-1
-1
-1
-1
-0.999999
-0.999983
-0.995992
-1
-1
-1
-1
-1
-1
-1
-1
-1
-1
-1
-1
-1
-1
-1
-1
-0.999999
-0.999998
-0.997055
-1
-1
-1
-1
-1
-1
-1
-1
-1
-1
-1
-1
-1
-1
-1
-1
-0.999999
-0.999999
-0.998904
)
;

boundaryField
{
    leftWall
    {
        type            zeroGradient;
    }
    rightWall
    {
        type            zeroGradient;
    }
    lowerWall
    {
        type            zeroGradient;
    }
    atmosphere
    {
        type            zeroGradient;
    }
    defaultFaces
    {
        type            empty;
    }
}


// ************************************************************************* //
