/*--------------------------------*- C++ -*----------------------------------*\
| =========                 |                                                 |
| \\      /  F ield         | foam-extend: Open Source CFD                    |
|  \\    /   O peration     | Version:     4.1                                |
|   \\  /    A nd           | Web:         http://www.foam-extend.org         |
|    \\/     M anipulation  |                                                 |
\*---------------------------------------------------------------------------*/
FoamFile
{
    version     2.0;
    format      ascii;
    class       volScalarField;
    location    "0.75";
    object      C_0;
}
// * * * * * * * * * * * * * * * * * * * * * * * * * * * * * * * * * * * * * //

dimensions      [0 0 0 0 0 0 0];

internalField   nonuniform List<scalar> 
2268
(
0.307839
-0.0349386
0.638044
0.809159
0.919728
0.417909
-0.0619931
0.430582
0.879526
0.984465
0.997932
0.999025
0.999583
0.999682
0.999782
0.999906
0.999961
0.99992
0.999104
0.996231
0.991476
0.966204
0.177377
0.265082
-0.193606
0.445811
0.341635
0.875293
0.44174
0.202996
0.29606
0.719893
0.921851
0.973284
0.993059
0.998366
0.999348
0.999664
0.999782
0.999879
0.999942
0.999818
0.999803
0.999459
0.992725
0.955928
0.18716
-0.253846
-0.152118
-0.154653
0.378667
0.527324
0.332838
0.424069
0.78991
0.718115
0.925793
0.986367
0.997266
0.998916
0.999432
0.999639
0.999776
0.999909
0.999945
0.999902
0.99872
0.993173
0.98346
0.258768
-0.289995
-0.33974
-0.154421
0.346246
0.513837
0.34199
0.508179
0.623902
-0.13109
0.624317
0.968471
0.995799
0.99801
0.998241
0.998728
0.998841
0.999117
0.999707
0.999747
0.998989
0.992272
0.983688
0.366451
0.0029519
-0.132035
-0.310051
-0.323543
0.301192
0.156378
0.447593
0.367017
-0.453777
0.525492
0.915884
0.989474
0.994634
0.993663
0.993605
0.996617
0.996782
0.997328
0.999062
0.995972
0.982001
0.974752
0.317386
-0.383813
-0.324044
-0.383213
-0.431516
-0.110297
-0.0889639
0.353205
0.28711
-0.398242
0.543677
0.906548
0.977789
0.986464
0.982547
0.986637
0.990385
0.971945
0.976499
0.993458
0.98187
0.941209
0.914818
-0.163338
-0.525595
-0.567631
-0.580652
-0.550814
-0.0972932
-0.235849
0.281387
0.303263
0.0163662
0.573863
0.875532
0.958696
0.963097
0.956321
0.961707
0.954279
0.802521
0.844036
0.953686
0.959804
0.842298
0.708949
-0.617583
-0.658841
-0.635163
-0.61364
-0.585574
-0.298392
-0.349744
0.349823
-0.15362
-0.240492
0.461709
0.902746
0.939123
0.945142
0.948242
0.936682
0.903262
0.516219
0.558303
0.810861
0.887233
0.693467
0.350465
0.246125
0.305942
0.317985
0.321367
0.321872
0.320838
0.319924
0.321672
0.313644
0.323996
0.323999
0.299597
0.246481
0.194292
0.12021
0.0563304
0.0209709
0.0158854
-0.0666852
0.207419
0.179401
0.177467
0.282707
0.339836
0.337247
0.326089
0.359318
0.342721
0.318301
0.289128
0.24943
0.135839
0.0756707
0.0435338
-0.0292788
-0.102082
-0.10655
-0.0940063
0.16277
0.0692255
-0.0238532
0.162002
0.303978
0.237912
0.20792
0.30297
0.29292
0.216585
0.100711
0.0353524
-0.0118652
-0.0470617
0.0231456
0.0591096
0.0303196
0.146555
0.224423
0.116459
-0.103921
-0.227162
0.113774
0.264529
0.0141418
-0.0912015
0.120695
0.136806
-0.0333199
-0.149836
-0.311102
-0.361918
-0.122899
0.00183419
0.138158
0.207118
0.30654
0.408442
0.0701743
-0.202912
-0.300252
-0.162232
0.0499618
-0.252069
-0.288466
-0.0588258
-0.189024
-0.378928
-0.402443
-0.615121
-0.651209
-0.458987
-0.118474
0.15249
0.243084
0.270433
0.429865
0.0184328
-0.297893
-0.384936
-0.388407
-0.330448
-0.54882
-0.558345
-0.297459
-0.527341
-0.626306
-0.582006
-0.671063
-0.718675
-0.704237
-0.394303
-0.103676
0.0924083
0.138579
0.438028
-0.033935
-0.421975
-0.603033
-0.490233
-0.449306
-0.558644
-0.726697
-0.652127
-0.672077
-0.675815
-0.693041
-0.720636
-0.730004
-0.732374
-0.656642
-0.370512
-0.0811099
0.114726
0.445866
-0.12342
-0.551407
-0.628345
-0.522893
-0.357432
-0.584851
-0.752396
-0.731157
-0.599528
-0.55989
-0.595261
-0.574853
-0.5989
-0.6667
-0.654305
-0.540346
-0.214472
0.118312
0.455426
-0.778107
-0.720023
-0.668726
-0.570904
-0.480776
-0.0735399
-0.307597
0.196059
-0.306091
0.201489
0.427657
0.866843
0.865144
0.915779
0.886728
0.751195
0.778112
0.343849
0.2261
0.527053
0.669341
0.485169
0.00783781
-0.887697
-0.732807
-0.535337
-0.524324
-0.459544
-0.166839
-0.458759
-0.103405
-0.571672
-0.244528
-0.358497
0.452688
0.511078
0.813455
0.745094
0.173288
0.393008
0.318232
0.109213
0.420005
0.53654
0.535651
0.464298
-0.927822
-0.678903
-0.510977
-0.425577
-0.531152
-0.411843
-0.523065
-0.361212
-0.463491
-0.416366
-0.389418
0.363576
-0.183868
0.620265
0.416082
-0.483648
-0.32821
-0.123043
-0.193649
0.266944
0.354118
0.284758
0.20032
-0.956738
-0.83772
-0.686967
-0.266316
-0.712091
-0.696161
-0.729472
-0.314925
0.118674
-0.0812376
-0.193171
0.199458
-0.446488
0.237302
-0.553838
-0.810968
-0.813201
-0.614737
-0.710303
-0.237589
0.00630791
-0.299157
-0.283795
-0.975617
-0.949058
-0.899379
-0.673861
-0.894434
-0.838691
-0.885325
-0.744248
-0.547093
-0.475994
-0.45585
0.287392
-0.505771
-0.252326
-0.618993
-0.900281
-0.94527
-0.84549
-0.910959
-0.773349
-0.528849
-0.875098
-0.834873
-0.976114
-0.965283
-0.958557
-0.938777
-0.94559
-0.92331
-0.96245
-0.927114
-0.814992
-0.754525
-0.864626
-0.424067
-0.895007
-0.674622
-0.905744
-0.967302
-0.965308
-0.941809
-0.952973
-0.909885
-0.869956
-0.917779
-0.864517
-0.977783
-0.971766
-0.971072
-0.971202
-0.969071
-0.964263
-0.986155
-0.974241
-0.936634
-0.920725
-0.96883
-0.875584
-0.970114
-0.942942
-0.986816
-0.983422
-0.976899
-0.971107
-0.976
-0.960351
-0.948808
-0.924132
-0.840095
-0.978071
-0.975097
-0.975462
-0.974158
-0.978233
-0.982617
-0.989153
-0.990725
-0.981338
-0.982746
-0.998057
-0.993566
-0.99202
-0.992965
-0.99316
-0.98855
-0.984194
-0.981357
-0.982144
-0.981194
-0.981981
-0.972296
-0.934459
-0.981838
-0.983871
-0.981559
-0.976594
-0.976546
-0.979264
-0.986531
-0.992945
-0.992378
-0.994025
-0.998777
-0.998031
-0.997752
-0.997177
-0.994623
-0.991351
-0.988371
-0.987227
-0.988857
-0.994407
-0.995199
-0.992738
-0.981688
-0.988368
-0.9915
-0.987659
-0.984409
-0.986616
-0.984661
-0.989039
-0.991188
-0.994778
-0.996181
-0.999229
-0.999407
-0.998941
-0.997741
-0.995314
-0.99313
-0.991891
-0.991439
-0.994424
-0.997066
-0.997377
-0.996853
-0.992708
-0.993889
-0.995244
-0.993894
-0.993742
-0.997135
-0.996743
-0.997499
-0.996801
-0.996758
-0.997667
-0.999424
-0.999607
-0.99926
-0.99825
-0.996595
-0.99534
-0.995057
-0.995056
-0.996195
-0.99735
-0.997317
-0.993008
-0.975885
-0.997536
-0.997642
-0.998308
-0.997994
-0.999313
-0.999463
-0.999421
-0.99865
-0.998154
-0.998664
-0.999563
-0.999718
-0.999448
-0.998881
-0.998125
-0.996993
-0.995039
-0.990799
-0.987998
-0.986873
-0.984287
-0.970922
-0.9502
-0.999283
-0.998865
-0.999275
-0.999327
-0.999835
-0.999922
-0.999876
-0.999591
-0.999256
-0.999332
-0.999673
-0.999283
-0.997311
-0.992703
-0.978846
-0.965465
-0.960424
-0.953038
-0.94904
-0.947728
-0.948104
-0.9512
-0.955932
-0.999811
-0.999526
-0.999705
-0.999819
-0.999949
-0.999994
-0.999984
-0.999908
-0.999742
-0.999684
-0.999697
-0.999061
-0.996469
-0.989633
-0.980765
-0.97582
-0.974462
-0.975437
-0.98007
-0.983385
-0.988003
-0.99167
-0.99313
-0.999941
-0.999834
-0.999909
-0.999961
-0.999993
-0.999999
-0.999998
-0.999987
-0.99995
-0.99986
-0.99979
-0.999402
-0.998193
-0.99441
-0.991066
-0.988941
-0.98818
-0.990329
-0.992335
-0.992523
-0.996697
-0.998315
-0.998575
-0.99998
-0.999957
-0.999976
-0.999991
-0.999998
-1
-0.999999
-0.999996
-0.99998
-0.999934
-0.999891
-0.999737
-0.999519
-0.998197
-0.998119
-0.996123
-0.996027
-0.998184
-0.998252
-0.996819
-0.998192
-0.999487
-0.999601
-0.999994
-0.99999
-0.999994
-0.999998
-1
-1
-1
-0.999998
-0.999991
-0.999965
-0.999941
-0.999869
-0.999814
-0.999447
-0.99958
-0.998915
-0.998606
-0.999186
-0.999644
-0.999324
-0.999047
-0.999769
-0.999888
-0.999998
-0.999998
-0.999999
-1
-1
-1
-1
-0.999999
-0.999996
-0.999982
-0.99997
-0.999944
-0.999921
-0.999871
-0.999904
-0.999708
-0.999741
-0.999794
-0.999878
-0.999871
-0.999791
-0.999878
-0.999955
-1
-1
-1
-1
-1
-1
-1
-1
-0.999998
-0.999993
-0.999988
-0.999986
-0.999971
-0.999974
-0.999984
-0.999921
-0.999944
-0.99995
-0.999972
-0.999973
-0.999956
-0.999974
-0.999987
-1
-1
-1
-1
-1
-1
-1
-1
-0.999999
-0.999998
-0.999997
-0.999997
-0.999992
-0.999995
-0.999998
-0.999985
-0.999988
-0.999991
-0.999995
-0.999995
-0.999992
-0.999995
-0.999996
-1
-1
-1
-1
-1
-1
-1
-1
-1
-1
-0.999999
-0.999999
-0.999999
-0.999999
-1
-0.999998
-0.999998
-0.999998
-0.999999
-0.999999
-0.999999
-0.999999
-0.999999
-1
-1
-1
-1
-1
-1
-1
-1
-1
-1
-1
-1
-1
-1
-1
-1
-1
-1
-1
-1
-1
-1
-1
-1
-1
-1
-1
-1
-1
-1
-1
-1
-1
-1
-1
-1
-1
-1
-1
-1
-1
-1
-1
-1
-1
-1
-1
-1
-1
-1
-1
-1
-1
-1
-1
-1
-1
-1
-1
-1
-1
-1
-1
-1
-1
-1
-1
-1
-1
-1
-1
-1
-1
-1
-1
-1
-1
-1
-1
-1
-1
-1
-1
-1
-1
-1
-1
-1
-1
-1
-1
-1
-1
-1
-1
-1
-1
-1
-1
-1
-1
-1
-1
-1
-1
-1
-1
-1
-1
-1
-1
-1
-1
-1
-1
-1
-1
-1
-1
-1
-1
-1
-1
-1
-1
-1
-1
-1
-1
-1
-1
-1
-1
-1
-1
-1
-1
-1
-1
-1
-1
-1
-1
-1
-1
-1
-1
-1
-1
-1
-1
-1
-1
-1
-1
-1
-1
-1
-1
-1
-1
-1
-1
-1
-1
-1
-1
-1
-1
-1
-1
-1
-1
-1
-1
-1
-1
-1
-1
-1
-1
-1
-1
-1
-1
-1
-1
-1
-1
-1
-1
-1
-1
-1
-1
-1
-1
-1
-1
-1
-1
-1
-1
-1
-1
-1
-1
-1
-1
-1
-1
-1
-1
-1
-1
-1
-1
-1
-1
-1
-1
-1
-1
-1
-1
-1
-1
-1
-1
-1
-1
-1
-1
-1
-1
-1
-1
-1
-1
-1
-1
-1
-1
-1
-1
-1
-1
-1
-1
-1
-1
-1
-1
-1
-1
-1
-1
-1
-1
-1
-1
-1
-1
-1
-1
-1
-1
-1
-1
-1
-1
-1
-1
-1
-1
-1
-1
-1
-1
-1
-1
-1
-1
-1
-1
-1
-1
-1
-1
-1
-1
-1
-1
-1
-1
-1
-1
-1
-1
-1
-1
-1
-1
-1
-1
-1
-1
-1
-1
-1
-1
-1
-1
-1
-1
-1
-1
-1
-1
-1
-1
-1
-1
-1
-1
-1
-1
-1
-1
-1
-1
-1
-1
-1
-1
-1
-1
-1
-1
-1
-1
-1
-1
-1
-1
-1
-1
-1
-1
-1
-1
-1
-1
-1
-1
-1
-1
-1
-1
-1
-1
-1
-1
-1
-1
-1
-1
-1
-1
-1
-1
-1
-1
-1
-1
-1
-1
-1
-1
-1
-1
-1
-1
-1
-1
-1
-1
-1
-1
-1
-1
-1
-1
-1
-1
-1
-1
-1
-1
-1
-1
-1
-1
-1
-1
-1
-1
-1
-1
-1
-1
-1
-1
-1
-1
-1
-1
-1
-1
-1
-1
-1
-1
-1
-1
-1
-1
-1
-1
-1
-1
-1
-1
-1
-1
-1
-1
-1
-1
-1
-1
-1
-1
-1
-1
-1
-1
-1
-1
-1
-1
-1
-1
-1
-1
-1
-1
-1
-1
-1
-1
-1
-1
-1
-1
-1
-1
-1
-1
-1
-1
-1
-1
-1
-1
-1
-1
-1
-1
-1
-1
-1
-1
-0.100049
-0.0813687
-0.0895135
-0.138156
0.199492
0.0693931
-0.0179035
-0.0771416
0.169503
0.131293
0.0998124
0.0640653
-0.082347
-0.223292
-0.391893
-0.366607
-0.70117
-0.690637
-0.692792
-0.690936
-0.827446
-0.8159
-0.782247
-0.773298
-0.748848
-0.724665
-0.695499
-0.712115
-0.868833
-0.866985
-0.879968
-0.886379
-0.968707
-0.967464
-0.966344
-0.965097
-0.983208
-0.971261
-0.960875
-0.952805
-0.947006
-0.933826
-0.926934
-0.921984
-0.938556
-0.935238
-0.932231
-0.929054
-0.959312
-0.962785
-0.96447
-0.965033
-0.993646
-0.994636
-0.995238
-0.995377
-0.998687
-0.99892
-0.99896
-0.9988
-0.999548
-0.999661
-0.999648
-0.999515
-0.999872
-0.999845
-0.999763
-0.999599
-0.999966
-0.999959
-0.999947
-0.999928
-0.999989
-0.999989
-0.999986
-0.999984
-0.999997
-0.999998
-0.999997
-0.999996
-0.999999
-1
-0.999999
-0.999999
-1
-1
-1
-1
-1
-1
-1
-1
-1
-1
-1
-1
-1
-1
-1
-1
-1
-1
-1
-1
-1
-1
-1
-1
-1
-1
-1
-1
-1
-1
-1
-1
-1
-1
-1
-1
-1
-1
-1
-1
-1
-1
-1
-1
-1
-1
-1
-1
-1
-1
-1
-1
-1
-1
-1
-1
-1
-1
-1
-1
-1
-1
-1
-1
-1
-1
-1
-1
-1
-1
-1
-1
-1
-1
-1
-1
-1
-1
-1
-1
-1
-1
-1
-1
-0.191861
-0.268246
-0.118425
-0.405395
-0.414475
-0.489786
-0.422596
-0.443343
-0.201434
-0.176898
-0.219819
-0.34375
-0.394276
-0.422667
-0.455218
-0.354479
0.00627903
0.24361
0.478959
-0.106146
0.406699
0.542542
0.493946
0.538956
0.599241
0.61408
0.587451
0.556975
0.523006
0.467073
0.36186
0.325545
0.348008
0.33503
0.343913
0.352415
0.369339
0.49583
-0.123126
0.372398
0.631867
0.633234
0.463756
0.468929
0.410317
0.654161
0.678396
0.629849
0.587393
0.431933
0.26848
0.201098
0.187054
0.175758
0.154571
0.176587
0.473979
-0.12627
0.272618
0.183326
0.0707796
-0.05909
-0.144425
-0.238518
0.0436194
-0.0615753
-0.0535248
0.0562871
0.0988643
-0.129152
-0.259041
-0.300457
-0.312789
-0.301964
-0.164587
0.315718
-0.34191
-0.237556
-0.382819
-0.42246
-0.404956
-0.482158
-0.449298
-0.376756
-0.514579
-0.548443
-0.479041
-0.443134
-0.628064
-0.669554
-0.6623
-0.57266
-0.505227
-0.222378
0.340301
-0.571835
-0.636121
-0.649578
-0.648365
-0.627912
-0.60858
-0.510576
-0.611322
-0.762805
-0.788164
-0.814054
-0.819628
-0.829379
-0.793054
-0.757078
-0.738466
-0.667724
-0.382245
0.296892
-0.709524
-0.78738
-0.733472
-0.750085
-0.750006
-0.557288
-0.576549
-0.789322
-0.909159
-0.913028
-0.88861
-0.809201
-0.760738
-0.65347
-0.506871
-0.573899
-0.56399
-0.386672
0.223115
-0.883053
-0.856472
-0.696866
-0.73106
-0.707833
-0.660387
-0.68014
-0.888354
-0.927602
-0.890268
-0.785451
-0.679653
-0.618906
-0.510708
-0.362154
-0.386561
-0.45667
-0.346248
0.227455
-0.957002
-0.847191
-0.752826
-0.779858
-0.593763
-0.498191
-0.752366
-0.934309
-0.876451
-0.828102
-0.734566
-0.629826
-0.52855
-0.402103
-0.150934
-0.0410498
-0.170955
-0.217701
0.266286
-0.94467
-0.936505
-0.890218
-0.840827
-0.793388
-0.767434
-0.857607
-0.811241
-0.774778
-0.746937
-0.721659
-0.680742
-0.646522
-0.423276
-0.0854256
0.0850351
0.130159
0.0917968
0.309341
-0.915378
-0.907303
-0.900011
-0.884913
-0.865483
-0.857568
-0.857493
-0.849194
-0.866134
-0.880032
-0.874876
-0.860183
-0.852109
-0.646267
-0.194493
0.0744197
0.206931
0.25858
0.31114
-0.92381
-0.91905
-0.912081
-0.905075
-0.883429
-0.874011
-0.872826
-0.905956
-0.942689
-0.957552
-0.951892
-0.943774
-0.916068
-0.813519
-0.57678
-0.179386
0.130091
0.246397
0.276018
-0.96439
-0.963702
-0.962241
-0.961701
-0.955001
-0.95893
-0.97644
-0.988632
-0.991661
-0.991894
-0.984717
-0.962817
-0.894533
-0.777253
-0.648553
-0.373757
-0.0608396
0.164254
0.219402
-0.995231
-0.995133
-0.995039
-0.992989
-0.990907
-0.992469
-0.996786
-0.996632
-0.995071
-0.989114
-0.974901
-0.93805
-0.822862
-0.617428
-0.377214
-0.200162
-0.0597778
0.0613968
0.194257
-0.998439
-0.998269
-0.998322
-0.998305
-0.998167
-0.996636
-0.991411
-0.985756
-0.982186
-0.97142
-0.962295
-0.95732
-0.81321
-0.689134
-0.6477
-0.338041
-0.0287374
0.0898703
0.18772
-0.999131
-0.998813
-0.998519
-0.996911
-0.992105
-0.982487
-0.964579
-0.94713
-0.936605
-0.917864
-0.886842
-0.888972
-0.475275
-0.247616
-0.310666
-0.390246
0.0504945
0.139692
0.19043
-0.999233
-0.998732
-0.997707
-0.994218
-0.985788
-0.971006
-0.947962
-0.91879
-0.882264
-0.835807
-0.779932
-0.669949
-0.255992
-0.071866
-0.0892934
-0.1292
0.0824727
0.162048
0.202786
-0.999812
-0.999301
-0.998171
-0.995313
-0.989981
-0.982786
-0.969715
-0.925116
-0.870444
-0.786619
-0.708388
-0.5278
-0.210287
-0.0799662
-0.158976
-0.137715
-0.0347105
0.14873
0.210421
-0.999961
-0.999778
-0.999169
-0.997699
-0.996143
-0.99386
-0.984722
-0.965437
-0.931499
-0.863434
-0.805821
-0.677478
-0.586728
-0.551691
-0.551181
-0.412391
-0.264866
-0.0228741
0.136453
-0.999993
-0.999951
-0.999784
-0.999404
-0.998877
-0.996806
-0.989628
-0.97963
-0.959316
-0.924103
-0.883145
-0.840817
-0.801754
-0.747911
-0.693468
-0.537806
-0.432215
-0.24866
-0.0488378
-0.999999
-0.999991
-0.99995
-0.999863
-0.99943
-0.99637
-0.991985
-0.988684
-0.975095
-0.95148
-0.908388
-0.876175
-0.848254
-0.80137
-0.755166
-0.633932
-0.546739
-0.37663
-0.143101
-1
-0.999999
-0.999989
-0.999974
-0.999803
-0.998923
-0.9991
-0.997461
-0.992633
-0.982612
-0.967913
-0.947507
-0.926392
-0.877698
-0.802693
-0.682982
-0.569433
-0.412807
-0.164154
-1
-1
-0.999998
-0.999995
-0.999951
-0.999727
-0.999644
-0.997555
-0.99488
-0.990815
-0.984563
-0.979322
-0.968237
-0.938453
-0.83966
-0.707917
-0.552246
-0.405201
-0.171923
-1
-1
-1
-0.999999
-0.999991
-0.999937
-0.999903
-0.999859
-0.999772
-0.997589
-0.994934
-0.994332
-0.988645
-0.972097
-0.894433
-0.762403
-0.530193
-0.361818
-0.181005
-1
-1
-1
-1
-0.999999
-0.999993
-0.999983
-0.999972
-0.999929
-0.999189
-0.998698
-0.998483
-0.998119
-0.992706
-0.969301
-0.886356
-0.620761
-0.360638
-0.222028
-1
-1
-1
-1
-1
-0.999999
-0.999998
-0.999995
-0.99998
-0.99989
-0.999739
-0.999462
-0.999464
-0.998913
-0.995517
-0.9657
-0.826188
-0.519168
-0.381507
-1
-1
-1
-1
-1
-1
-1
-0.999999
-0.999996
-0.999985
-0.999943
-0.999816
-0.999811
-0.999792
-0.999612
-0.996484
-0.962136
-0.820124
-0.692703
-1
-1
-1
-1
-1
-1
-1
-1
-0.999999
-0.999995
-0.999988
-0.999931
-0.999907
-0.999939
-0.999943
-0.999692
-0.995193
-0.96029
-0.888607
-1
-1
-1
-1
-1
-1
-1
-1
-1
-0.999999
-0.999997
-0.999962
-0.999958
-0.999979
-0.999979
-0.999923
-0.999057
-0.987185
-0.952309
-1
-1
-1
-1
-1
-1
-1
-1
-1
-1
-0.999999
-0.999989
-0.999987
-0.999994
-0.999984
-0.999926
-0.999531
-0.991606
-0.970713
-1
-1
-1
-1
-1
-1
-1
-1
-1
-1
-1
-0.999998
-0.999999
-0.999998
-0.999981
-0.999844
-0.999609
-0.994806
-0.977233
-1
-1
-1
-1
-1
-1
-1
-1
-1
-1
-1
-1
-1
-0.999998
-0.999974
-0.999756
-0.999539
-0.998399
-0.980736
-1
-1
-1
-1
-1
-1
-1
-1
-1
-1
-1
-1
-0.999999
-0.999997
-0.999973
-0.999738
-0.999418
-0.998974
-0.983416
-1
-1
-1
-1
-1
-1
-1
-1
-1
-1
-1
-1
-0.999999
-0.999997
-0.999966
-0.999736
-0.999386
-0.998779
-0.977822
-1
-1
-1
-1
-1
-1
-1
-1
-1
-1
-1
-1
-0.999999
-0.999998
-0.999973
-0.999766
-0.999381
-0.998759
-0.977457
-1
-1
-1
-1
-1
-1
-1
-1
-1
-1
-1
-1
-1
-0.999999
-0.999985
-0.999799
-0.999555
-0.99867
-0.976062
-1
-1
-1
-1
-1
-1
-1
-1
-1
-1
-1
-1
-1
-1
-0.999998
-0.999959
-0.999864
-0.998717
-0.980835
-1
-1
-1
-1
-1
-1
-1
-1
-1
-1
-1
-1
-1
-1
-1
-0.999996
-0.999982
-0.999587
-0.988985
-1
-1
-1
-1
-1
-1
-1
-1
-1
-1
-1
-1
-1
-1
-1
-1
-0.999999
-0.999906
-0.993456
-1
-1
-1
-1
-1
-1
-1
-1
-1
-1
-1
-1
-1
-1
-1
-1
-0.999999
-0.999981
-0.995811
-1
-1
-1
-1
-1
-1
-1
-1
-1
-1
-1
-1
-1
-1
-1
-1
-0.999999
-0.999998
-0.996936
-1
-1
-1
-1
-1
-1
-1
-1
-1
-1
-1
-1
-1
-1
-1
-1
-0.999999
-0.999999
-0.998869
)
;

boundaryField
{
    leftWall
    {
        type            zeroGradient;
    }
    rightWall
    {
        type            zeroGradient;
    }
    lowerWall
    {
        type            zeroGradient;
    }
    atmosphere
    {
        type            zeroGradient;
    }
    defaultFaces
    {
        type            empty;
    }
}


// ************************************************************************* //
