/*--------------------------------*- C++ -*----------------------------------*\
| =========                 |                                                 |
| \\      /  F ield         | foam-extend: Open Source CFD                    |
|  \\    /   O peration     | Version:     4.1                                |
|   \\  /    A nd           | Web:         http://www.foam-extend.org         |
|    \\/     M anipulation  |                                                 |
\*---------------------------------------------------------------------------*/
FoamFile
{
    version     2.0;
    format      ascii;
    class       volScalarField;
    location    "0.75";
    object      p;
}
// * * * * * * * * * * * * * * * * * * * * * * * * * * * * * * * * * * * * * //

dimensions      [1 -1 -2 0 0 0 0];

internalField   nonuniform List<scalar> 
2268
(
1732.34
2043.13
1037.53
753.677
630.846
1582.48
2109.04
1620.68
656.161
775.341
676.48
701.031
705.49
704.293
695.413
689.936
676.25
655.718
641.397
627.013
614.23
608.431
1311.1
1788.54
1901.02
1452.91
1718.44
663.615
1445.32
1881.63
1825.79
929.703
770.082
623.868
638.945
643.566
642.599
637.732
634.589
620.465
593.287
581.564
565.435
553.047
535.619
526.367
1876.09
1776.33
1937.26
1910.46
1599.7
1168.1
1637.07
1475.73
655.026
1099.76
586.583
575.056
580.721
588.548
580.522
573.626
559.543
535.443
524.115
512.874
492.333
473.207
454.406
1725.11
1683.96
1587.54
1878.49
1618.29
1159.64
1612.49
1208.65
955.592
1793.94
1084.63
524.43
528.961
527.439
524.65
522.867
501.67
476.197
460.878
452.785
435.105
409.993
389.579
1473.14
1929.3
1897.46
1627.69
1592.37
1640.07
1916.04
1358.12
1563.75
1244.18
1342.03
512.713
479.223
480.296
471.702
474.028
447.344
413.784
397.178
400.204
375.631
350.893
323.598
1546.9
1405.49
1555.26
1434.56
1318.64
1853.46
1933.27
1541.33
1711.22
1340.64
1247.76
484.492
432.093
426.972
420.313
424.694
388.799
358.036
336.803
345.482
316.701
309.937
306.277
1714.62
1027.53
924.151
893.155
985.101
1835.51
1743.02
1636.04
1628.52
1808.04
1052.88
462.783
393.542
380.919
383.481
389.026
348.167
508.899
406.067
314.684
273.786
376.905
627.106
755.799
651.135
710.731
783.012
860.517
1531.47
1500.34
1447.34
1807.4
1581.25
1318.1
394.004
358.716
348.68
325.236
358.977
359.606
1154.15
985.684
452.246
282.149
658.562
1426.78
2409.66
2191.37
2036.57
1907.44
1977.04
2014.67
1995.69
1794.47
1864.86
1939.56
1885.42
2003.9
2160.22
2244
2321.45
2443.41
2422.51
2626.09
2758.61
2393.52
2320.75
2206.97
1880.25
1937.94
1947.32
1849.54
1707.44
1758.55
1953.47
1994.36
1972.33
2283.01
2312
2275.7
2411.89
2372.63
2558.02
2730.29
2267.63
2344.77
2280.17
2080.79
1941.69
2062.34
2046.6
1831.53
1876.61
2062.65
2211.24
2216.88
2241.44
2282.62
2296.01
2342.69
2339.86
2398.27
2450.2
2216.1
2236.65
2079.39
2123.62
1885.77
2192.99
2153.55
2030.47
2130.13
2131.86
2123.38
1857.59
1777.82
2215.63
2282.27
2215.28
2115.64
2073.71
2009.39
2176.8
2075.72
1894.24
2097.55
2137.87
1935.7
1855.19
2116.92
1958.49
1686.54
1623.66
1097.6
1033.64
1596.95
2212.27
2155.89
2007.75
2060.59
1875.4
2116.06
1863.54
1673.53
1665.26
1803.7
1222.54
1201.57
1794.13
1231.72
1025.8
1155.18
940.281
842.917
897.146
1718.51
2148.65
2142.04
2167.13
1801.56
2047.75
1524.06
1087.46
1378.9
1466.88
1157.2
717.344
935.15
870.766
886.237
846.453
804.259
807.249
807.379
991.327
1694.51
2115.7
2131.44
1756.93
1920.36
1133.46
949.263
1280.74
1672.82
1073.42
660.327
708.256
1060.16
1193.92
1105.68
1191.43
1156.72
969.599
983.841
1247.23
1932.11
2123.41
1720.24
314.61
460.103
591.552
888.644
1135.86
1846.42
1572.48
1716.36
1567.44
1736.81
1303.79
381.135
390.439
293.39
298.396
583.879
507.257
1518.11
1733.17
1059.92
651.286
1186.75
1888.48
110.983
415.71
934.657
982.637
1169.17
1747.84
1183.66
1771.13
905.598
1648.21
1370.88
1198.57
1136.04
336.104
475.397
1598.29
1227.54
1469.38
1753.92
1229.06
925.302
852.362
1231.6
61.5052
514.588
966.547
1167.73
939.663
1283.42
983.684
1368.39
1131.81
1211.36
1262.56
1269.86
1461.07
765.794
1153.13
1025.04
1343.5
1683.54
1628.08
1475.1
1307.2
1395.98
1574.62
26.542
148.677
534.698
1491.39
475.42
542.555
429.849
1406.36
1629.57
1690.49
1582.98
1506.98
1034.4
1465.57
921.071
245.207
267.197
747.299
560.503
1506.3
1622.65
1277.41
1355.28
15.8324
24.5254
78.9585
563.882
85.6128
183.021
95.8589
383.115
903.513
999.382
1053.02
1298.03
898.66
1472.11
688.765
87.5662
43.434
180.532
82.1715
347.305
950.57
182.922
238.413
12.7183
14.7849
19.0775
40.6211
28.0827
49.8501
16.1024
46.1677
218.02
309.646
120.342
1059.95
83.3409
499.924
70.3459
18.5243
22.6093
40.11
35.0868
81.9291
154.885
86.6421
162.393
10.9423
11.5768
11.2572
12.3204
11.9474
14.5808
5.63627
9.24402
32.5472
43.4258
10.7698
105.997
12.8518
24.9781
7.94724
9.79323
13.803
17.5429
18.4926
27.7982
38.802
62.5206
178.855
8.90974
8.71042
7.52617
8.4094
6.90416
5.70185
4.00333
3.5538
5.18264
4.91077
3.21611
3.69413
4.72241
4.78536
6.07583
7.88098
10.4889
11.6063
13.9817
14.9959
16.5459
20.712
45.301
5.79986
4.44797
4.54887
6.77377
6.25427
5.51214
3.5378
2.58042
2.63492
2.95883
2.99006
3.18567
3.36041
3.80091
4.98072
6.58236
8.89887
10.4824
11.1718
11.5147
12.3636
13.2069
16.34
2.26805
1.56736
2.02705
2.98307
2.18466
2.69994
1.87798
1.92194
1.44369
2.13087
2.47296
2.7793
2.96558
3.63606
3.9607
5.52008
7.94602
9.41976
10.0198
10.6725
11.1043
11.8431
13.1948
0.592417
0.436373
0.564902
0.710421
0.461397
0.486556
0.444025
0.682539
0.917171
1.45962
1.95355
2.46993
2.60285
3.07043
3.00608
4.65765
7.37158
8.55745
8.3142
9.2326
10.7731
11.549
17.9775
0.0117313
-0.0216033
-0.011068
0.108967
0.137663
0.200731
0.245898
0.244466
0.532652
0.909071
1.44089
1.96449
2.05818
2.26505
2.9338
3.90963
6.22253
8.48124
9.16453
9.46632
10.7603
16.4669
30.0803
-0.196975
-0.133228
-0.12328
-0.0498083
-0.0122676
0.0641502
0.143363
0.0874686
0.328377
0.727402
1.01712
1.39974
1.205
0.448451
4.1244
13.9258
13.6297
21.2535
23.0848
23.6615
22.3827
17.6374
13.3574
-0.340003
-0.341873
-0.323776
-0.241954
-0.206283
-0.0750039
-0.00115976
0.024028
0.10726
0.537236
0.650033
0.633581
0.292744
0.0800818
0.367974
-4.45556
-1.21955
4.92977
2.70216
1.27883
-0.138107
-0.275361
-0.3881
-0.562584
-0.527289
-0.495579
-0.436854
-0.377316
-0.32274
-0.179071
-0.139043
-0.0674568
-0.0348479
0.0402175
-0.359679
-1.09215
-1.46687
-2.26185
-1.06776
-1.7105
-3.23394
-2.19093
-1.17196
-1.30083
-0.863934
-0.782608
-0.655903
-0.695839
-0.663599
-0.637233
-0.640926
-0.572944
-0.531703
-0.433207
-0.446894
-0.464205
-0.436368
-1.08735
-2.08429
-2.86381
-3.40177
-3.70356
-3.35186
-3.16771
-2.72494
-2.01066
-1.51707
-1.23496
-1.23352
-0.905485
-0.863848
-0.875653
-0.862019
-0.831771
-0.778691
-0.799188
-0.793876
-0.709034
-0.814602
-1.27567
-1.33204
-1.83323
-2.43232
-3.02476
-3.52792
-3.69228
-3.10302
-2.64806
-2.23623
-1.86836
-1.49375
-1.27896
-1.11772
-1.14758
-1.06947
-1.06935
-1.07753
-1.09808
-1.09779
-1.07095
-1.1924
-1.14956
-1.75354
-1.50383
-1.95521
-2.55724
-2.92579
-2.97019
-2.81081
-2.78675
-2.50873
-2.24266
-2.07354
-1.80059
-1.57801
-1.3163
-1.2587
-1.36045
-1.30313
-1.26479
-1.28785
-1.36362
-1.42896
-1.58491
-1.48173
-1.62861
-1.9633
-2.16434
-2.33514
-2.65118
-2.83746
-2.70061
-2.74724
-2.42966
-2.35653
-2.23016
-2.05541
-1.94821
-1.56112
-1.57086
-1.48993
-1.56744
-1.59006
-1.57456
-1.57304
-1.6875
-1.65372
-1.74111
-1.85143
-2.20871
-2.158
-2.51043
-2.5911
-2.71817
-2.64835
-2.67767
-2.56431
-2.50699
-2.40765
-2.3304
-2.28846
-1.81401
-1.82551
-1.84236
-1.76104
-1.89019
-1.82344
-1.80426
-1.81781
-1.87457
-1.88655
-2.04576
-2.20992
-2.44388
-2.54476
-2.59534
-2.63154
-2.7372
-2.76129
-2.64398
-2.69322
-2.58843
-2.56648
-2.60074
-2.04995
-2.06442
-2.06182
-2.13954
-2.03704
-2.01759
-1.99681
-2.06721
-2.08487
-2.22968
-2.31861
-2.33273
-2.44575
-2.57447
-2.66649
-2.74888
-2.85311
-2.86695
-2.84295
-2.85536
-2.80661
-2.86751
-2.86221
-2.29269
-2.33309
-2.32792
-2.26803
-2.23699
-2.2876
-2.33583
-2.27909
-2.3979
-2.46337
-2.49391
-2.54532
-2.63699
-2.72012
-2.83295
-2.92524
-2.96591
-3.04672
-3.01012
-3.05128
-3.04252
-3.12633
-3.21426
-2.43177
-2.40873
-2.40692
-2.44526
-2.48307
-2.42874
-2.61814
-2.58232
-2.60445
-2.65123
-2.6924
-2.76865
-2.81623
-2.87876
-2.98483
-3.03678
-3.07938
-3.15386
-3.13481
-3.17072
-3.25226
-3.3327
-3.387
-2.65486
-2.64602
-2.64625
-2.65045
-2.68003
-2.73931
-2.70209
-2.74776
-2.79737
-2.819
-2.87162
-2.94782
-2.97363
-3.05749
-3.10796
-3.11138
-3.21637
-3.27193
-3.32261
-3.38957
-3.41991
-3.50246
-3.587
-2.90356
-2.86316
-2.85335
-2.85615
-2.87696
-2.96486
-2.91826
-2.9592
-2.99958
-3.03139
-3.05818
-3.09249
-3.14013
-3.23124
-3.27474
-3.28609
-3.39601
-3.43688
-3.50554
-3.51888
-3.58425
-3.7158
-3.74971
-2.99667
-3.01421
-3.03053
-3.03805
-3.04457
-3.04277
-3.10461
-3.1836
-3.1636
-3.2034
-3.22248
-3.25475
-3.28175
-3.33584
-3.4223
-3.51768
-3.55357
-3.55082
-3.57316
-3.67637
-3.7314
-3.78016
-3.9049
-3.20977
-3.21135
-3.21325
-3.21958
-3.23366
-3.24134
-3.26314
-3.27072
-3.30692
-3.35245
-3.39914
-3.42062
-3.51881
-3.57793
-3.55013
-3.6199
-3.64658
-3.67188
-3.76005
-3.78033
-3.89573
-3.96761
-4.00151
-3.39353
-3.39154
-3.39341
-3.40013
-3.41068
-3.42383
-3.44616
-3.46502
-3.50279
-3.51829
-3.57347
-3.60853
-3.62619
-3.71194
-3.76175
-3.80778
-3.83137
-3.87359
-3.92306
-3.98315
-4.05323
-4.05209
-4.17042
-3.56204
-3.56235
-3.56878
-3.5741
-3.58418
-3.5878
-3.61626
-3.62731
-3.67334
-3.68614
-3.70259
-3.75174
-3.83089
-3.83274
-3.85099
-3.91334
-3.96975
-3.99346
-4.04205
-4.10815
-4.12931
-4.22869
-4.331
-3.72955
-3.7344
-3.7414
-3.7466
-3.76145
-3.77122
-3.80038
-3.8245
-3.8475
-3.87874
-3.90661
-3.94646
-3.95792
-4.0024
-4.06971
-4.08589
-4.11514
-4.1152
-4.19479
-4.19797
-4.30127
-4.38104
-4.36979
-3.90184
-3.90618
-3.91562
-3.92019
-3.93988
-3.95048
-3.93452
-3.98721
-4.02998
-4.07763
-4.10152
-4.10971
-4.1259
-4.15109
-4.18157
-4.22424
-4.24829
-4.27862
-4.29464
-4.37519
-4.42784
-4.44884
-4.51327
-4.07784
-4.08378
-4.08733
-4.10069
-4.12017
-4.13178
-4.17216
-4.17795
-4.18658
-4.19452
-4.19601
-4.22964
-4.256
-4.29571
-4.34889
-4.37853
-4.37217
-4.41244
-4.47797
-4.51981
-4.58292
-4.57737
-4.65095
-4.2507
-4.25809
-4.2653
-4.26801
-4.28752
-4.29124
-4.31594
-4.33337
-4.38113
-4.40056
-4.35291
-4.38863
-4.44432
-4.4365
-4.47158
-4.51542
-4.55386
-4.59253
-4.58557
-4.65495
-4.65288
-4.72298
-4.74413
-4.41764
-4.4217
-4.43008
-4.43148
-4.44115
-4.44779
-4.47044
-4.48391
-4.47655
-4.51175
-4.58978
-4.52638
-4.57117
-4.62032
-4.61836
-4.62063
-4.65714
-4.71227
-4.73034
-4.75545
-4.79346
-4.79678
-4.85514
-4.59453
-4.59357
-4.59867
-4.60356
-4.60804
-4.62232
-4.62829
-4.61562
-4.65268
-4.66676
-4.69404
-4.7135
-4.74825
-4.74124
-4.76413
-4.79049
-4.78876
-4.82122
-4.84566
-4.88414
-4.89056
-4.95795
-4.94103
-4.76262
-4.75812
-4.76308
-4.77784
-4.74354
-4.78655
-4.81454
-4.82834
-4.82673
-4.80764
-4.8432
-4.87888
-4.87662
-4.8958
-4.91262
-4.92945
-4.94589
-4.95249
-5.00034
-5.04582
-5.03896
-5.06526
-5.07405
-4.93379
-4.93164
-4.94087
-4.95757
-4.97968
-4.97935
-4.97484
-4.98348
-4.99577
-5.01121
-5.02162
-5.01115
-5.00793
-5.0332
-5.0551
-5.07546
-5.06861
-5.1036
-5.13717
-5.12515
-5.15345
-5.15733
-5.20214
-5.09095
-5.06295
-5.09966
-5.11551
-5.12278
-5.1271
-5.14492
-5.14815
-5.15437
-5.16191
-5.17361
-5.18393
-5.20329
-5.2058
-5.20556
-5.21193
-5.21811
-5.22075
-5.25534
-5.25716
-5.26453
-5.29792
-5.31229
-5.28811
-5.31531
-5.29538
-5.28646
-5.29501
-5.30135
-5.30343
-5.31378
-5.31416
-5.32605
-5.32936
-5.33355
-5.33629
-5.34348
-5.34335
-5.33991
-5.355
-5.3619
-5.37724
-5.39315
-5.40539
-5.41496
-5.41824
-5.41154
-5.4463
-5.45391
-5.45944
-5.4733
-5.47006
-5.48049
-5.52022
-5.43685
-5.53123
-5.44848
-5.49225
-5.52922
-5.49833
-5.46561
-5.52849
-5.47565
-5.52072
-5.50135
-5.51673
-5.54158
-5.53857
-5.54351
-5.68306
-5.67204
-5.61269
-5.59645
-5.65748
-5.59281
-5.66464
-5.59317
-5.68792
-5.60475
-5.67863
-5.66032
-5.6143
-5.63779
-5.68661
-5.68259
-5.6964
-5.68362
-5.69549
-5.65463
-5.67644
-5.65385
-5.67953
1822.41
1824.46
1716.09
1643.35
1742.6
1875.51
1887.56
1861.35
1654.93
1741.03
1818.52
1856.05
1615.86
1495.65
1236.91
1347.51
526.743
525.182
527.987
542.493
229.04
247.387
316.276
338.571
380.869
437.732
511.933
469.507
128.323
129.382
112.249
106.283
22.5099
23.9393
25.3573
26.5301
17.0471
22.6211
28.2975
32.8856
36.7576
44.916
47.6487
49.2679
29.1803
27.5828
32.0342
34.8152
9.73654
7.8598
6.58329
6.68948
-0.475887
-0.54628
-0.454587
-0.291675
-0.69247
-0.566123
-0.473635
-0.353575
-1.06579
-0.964193
-0.883766
-0.795635
-1.12343
-1.03013
-0.9493
-0.912158
-1.4822
-1.43762
-1.41301
-1.42631
-1.91702
-1.92334
-1.96931
-2.03217
-2.31123
-2.34641
-2.41326
-2.50365
-2.63473
-2.66705
-2.74299
-2.8472
-2.93939
-3.04041
-3.08672
-3.17233
-3.27259
-3.34524
-3.41188
-3.50827
-3.5049
-3.56914
-3.59864
-3.67661
-3.64612
-3.72928
-3.77882
-3.90185
-3.82694
-3.85182
-3.92915
-3.98421
-3.92993
-3.99774
-4.01936
-4.09164
-4.09363
-4.11134
-4.16412
-4.18934
-4.20965
-4.23159
-4.28907
-4.30694
-4.33078
-4.33747
-4.36231
-4.39392
-4.45135
-4.46742
-4.48051
-4.50497
-4.52303
-4.54186
-4.56378
-4.58494
-4.65309
-4.65333
-4.68035
-4.68478
-4.76222
-4.78051
-4.78747
-4.79372
-4.8658
-4.87418
-4.88302
-4.89695
-4.97303
-4.99917
-4.99308
-5.00876
-5.08749
-5.09967
-5.10026
-5.11172
-5.20899
-5.21274
-5.22704
-5.22107
-5.31337
-5.32302
-5.32474
-5.33115
-5.43724
-5.43483
-5.44283
-5.44003
-5.54464
-5.55538
-5.5543
-5.56062
-5.67176
-5.67929
-5.67042
-5.67545
1818.16
1802.98
1999.02
1569.48
1536
1319.06
1480.08
1442.25
1996.73
2052.38
2003.44
1789.59
1689.83
1607.07
1532.37
1719.37
2155.65
1984.03
1652.42
1879.31
1508.7
1249.86
1409.51
1320.31
1205.95
1238.62
1268.68
1413.72
1400.95
1493.43
1699.82
1755.1
1677.04
1685.12
1732.06
1728.41
1727.67
1608.44
1833.58
1471.73
876.699
958.685
1447.91
1440.43
1687.3
1038.55
1077.12
1112.09
1080.59
1256.5
1791.78
1883.97
1915
1991.06
2064.23
2099.43
1608.85
1788.66
1607.92
1737.71
1858.18
1904.27
1874.88
1716.99
1888.37
1788.66
1755.23
1823.49
1890.51
1848.17
1732.78
1681.27
1697.92
1730.12
2037.98
1906.84
1415.68
1649.06
1385.03
1274.51
1350.69
1168.33
1244.53
1375.12
996.823
900.674
1106.11
1260.67
850.38
748.447
770.96
1004.98
1200.8
1892.26
1771.15
854.76
718.619
655.82
662.756
730.681
807.113
1066.51
782.01
367.81
324.839
305.339
334.532
337.298
420.13
512.781
535.24
722.888
1504.76
1750.06
483.564
308.233
435.691
393.881
395.409
910.064
860.96
328.541
136.133
134.568
178.25
347.003
461.266
763.438
1148.21
938.931
983.33
1436.23
1817.97
113.599
162.153
511.942
431.012
478.369
614.933
571.395
153.355
115.733
165.39
362.749
650.727
821.732
1131.17
1494.35
1428.65
1227.75
1489.62
1789.46
30.9674
166.615
346.829
292.979
742.171
1038.22
381.019
100.05
177.973
253.399
457.735
755.08
1046.2
1385.18
1824.36
1858.39
1764.37
1676
1701.58
34.5645
40.5841
88.403
161.645
256.313
326.182
171.979
270.934
353.971
406.374
465.933
578.744
668.187
1316.01
1844.82
1827.66
1825.84
1847.12
1624.62
54.9385
66.8642
64.875
102.488
129.093
145.133
155.5
177.226
146.242
123.64
137.485
172.985
201.518
725.768
1695.46
1830.23
1734.04
1682.04
1640.03
49.369
50.0126
53.7061
54.6682
95.3771
109.28
126.606
80.0971
49.198
41.7705
51.1419
69.4769
107.749
299.579
935.926
1780.93
1858.48
1748.96
1729.16
9.57621
9.6621
10.4628
10.8488
19.2643
21.551
20.3123
22.5044
26.0622
28.9219
34.2041
52.8295
148.582
414.302
748.457
1482.63
1933.24
1853.78
1817.73
0.112263
0.315924
0.618791
1.77413
5.68449
13.15
18.1082
20.831
24.5051
28.2429
33.1402
68.5614
285.727
820.125
1436.09
1768.75
1908.75
1934.37
1850.8
-0.111662
0.44747
0.788313
-0.0791467
3.12712
9.05394
14.6479
20.4269
24.9609
31.4469
34.8086
52.2382
339.52
682.166
719.529
1543.5
1887.88
1906.57
1847.38
-0.510122
0.155229
-0.379659
0.161599
2.39446
7.28217
18.147
35.5626
53.6575
73.1925
115.858
178.952
1192.36
1620.44
1535.19
1426.45
1845.84
1890.21
1827.83
-1.03134
-1.20213
-2.41567
-2.68744
-1.55299
5.03598
19.9783
67.7094
126.029
195.131
327.532
679.055
1549.61
1744.21
1839.93
1781.04
1830.69
1821.1
1790.78
-1.52929
-2.19045
-4.27622
-7.10171
-6.52278
-3.66797
0.223082
46.2076
122.854
292.478
491.075
993.259
1579.97
1692.3
1635.65
1757.3
1904.65
1840.18
1773.31
-2.22317
-2.99753
-4.66716
-6.89618
-7.35945
-5.4657
-1.97869
11.7562
37.0551
120.216
207.613
484.573
708.086
830.688
842.729
1294.83
1634.89
1901.78
1854.14
-2.67245
-3.40315
-4.5183
-5.75379
-6.24836
-5.33121
-4.34255
-0.580287
4.75346
23.1635
75.4291
161.066
239.688
372.045
510.339
890.804
1197.24
1610.56
1874.54
-3.05342
-3.65746
-4.34062
-5.23635
-5.80006
-5.75741
-5.83656
-5.56391
-3.39475
4.01691
47.2603
89.8053
143.177
247.648
354.331
643.3
894.287
1342.76
1772.21
-3.34334
-3.75198
-4.46809
-5.19486
-5.84232
-5.8712
-5.81042
-5.57816
-6.01872
-7.03777
-1.9189
7.19594
31.6881
95.016
226.205
515.456
840.841
1260.37
1730.6
-3.63923
-4.03724
-4.57558
-4.88774
-5.33077
-5.32183
-5.25603
-5.48892
-5.76571
-6.07851
-5.06005
-3.43477
1.33492
20.5043
119.301
480.305
901.846
1285.61
1705.56
-3.78677
-4.10983
-4.38128
-4.69038
-4.98234
-5.33001
-5.29798
-5.39931
-5.60714
-5.90168
-5.88754
-6.13016
-6.22172
-3.17991
44.5064
283.985
909.658
1360.58
1683.72
-4.00096
-4.23458
-4.36707
-4.77455
-4.90411
-5.11538
-5.07964
-4.99256
-5.40804
-5.61503
-5.5534
-5.46966
-6.01669
-6.63379
-3.39707
56.4144
588.163
1316.45
1593.79
-4.11617
-4.25913
-4.44616
-4.69375
-4.78424
-5.11451
-4.96036
-4.9774
-5.35827
-5.45674
-5.14975
-5.38448
-5.39081
-5.70012
-6.15986
-5.73968
113.627
788.125
1167.37
-4.12401
-4.33249
-4.38368
-4.67599
-4.85442
-4.78904
-4.83649
-5.14633
-5.14021
-5.19253
-5.0553
-5.32066
-5.29837
-5.1481
-5.22104
-6.10559
-5.00042
115.15
359.41
-4.31534
-4.34484
-4.56151
-4.57559
-4.80072
-4.69343
-4.99958
-5.04001
-5.07627
-4.9559
-4.92554
-5.09969
-5.17314
-4.72701
-4.90457
-4.73097
-5.27534
-0.126178
50.9097
-4.35673
-4.42125
-4.49793
-4.78277
-4.75799
-4.79726
-4.85607
-4.89043
-4.9779
-4.93883
-4.91642
-4.96162
-4.88307
-4.75665
-4.56729
-4.5551
-4.30147
-2.81271
9.62248
-4.45175
-4.51466
-4.58107
-4.66143
-4.67496
-4.87321
-4.82372
-4.87432
-4.90531
-5.01151
-5.00654
-4.85552
-4.86851
-4.76633
-4.63943
-4.60935
-4.36666
-3.539
2.98022
-4.51805
-4.5865
-4.62079
-4.81703
-4.87844
-4.82324
-4.82434
-4.856
-5.00722
-4.98961
-5.00575
-4.92939
-4.84034
-4.94294
-4.78129
-4.79939
-4.76612
-5.22228
0.028249
-4.62045
-4.69659
-4.72855
-4.74974
-4.86881
-4.89205
-4.87941
-4.88545
-4.92875
-4.8771
-5.01635
-5.02325
-5.00069
-4.98868
-4.95629
-4.91914
-4.86629
-5.17404
-1.42865
-4.70091
-4.81984
-4.78522
-4.86386
-4.88483
-4.93821
-4.93953
-4.93065
-4.97298
-4.96396
-4.89798
-4.90791
-4.96037
-4.8993
-5.16081
-5.04634
-4.98747
-5.32846
-4.92336
-4.79545
-4.8663
-4.92875
-4.93665
-4.93298
-4.95424
-5.02994
-4.96281
-5.03521
-5.00387
-5.06262
-5.04019
-5.08806
-5.03569
-5.07714
-5.21896
-5.24061
-5.31159
-1.82704
-4.92078
-4.97864
-4.97302
-5.06183
-5.03581
-5.04152
-5.11031
-5.09881
-5.08623
-5.09142
-5.06025
-5.1265
-5.15759
-5.158
-5.21797
-5.23971
-5.38009
-5.35055
-2.02339
-5.02823
-5.05186
-5.09611
-5.10288
-5.11577
-5.14807
-5.18926
-5.16204
-5.22071
-5.20302
-5.18849
-5.22804
-5.27457
-5.19194
-5.12882
-5.23367
-5.20217
-5.24988
-1.40837
-5.13292
-5.13481
-5.17865
-5.18501
-5.22184
-5.22515
-5.23152
-5.27578
-5.24175
-5.31595
-5.35259
-5.31504
-5.33293
-5.2951
-5.22544
-5.19406
-5.27034
-5.23505
-2.8587
-5.22564
-5.24066
-5.26548
-5.2809
-5.30899
-5.30574
-5.34918
-5.30823
-5.36015
-5.34379
-5.34148
-5.38062
-5.41566
-5.51354
-5.49036
-5.35087
-5.3729
-5.36122
-4.81627
-5.33025
-5.34865
-5.3763
-5.38785
-5.37909
-5.41748
-5.3916
-5.43036
-5.42695
-5.45167
-5.45992
-5.49647
-5.49739
-5.53323
-5.5078
-5.4479
-5.39879
-5.48011
-5.12163
-5.45289
-5.47093
-5.48142
-5.49088
-5.49473
-5.47832
-5.50223
-5.50256
-5.49695
-5.53584
-5.53887
-5.5611
-5.61741
-5.63365
-5.73731
-5.79608
-5.55066
-5.59361
-5.4872
-5.56005
-5.58135
-5.57772
-5.57279
-5.58663
-5.60785
-5.60602
-5.64542
-5.61867
-5.64251
-5.76796
-5.66399
-5.71199
-5.7889
-5.89157
-5.90116
-5.98674
-5.92654
-5.78218
-5.67339
-5.67114
-5.67803
-5.68132
-5.70051
-5.68429
-5.73194
-5.71337
-5.78594
-5.81317
-5.77141
-5.88126
-5.91771
-5.80009
-5.82136
-5.86894
-5.97382
-6.35854
-6.91669
)
;

boundaryField
{
    leftWall
    {
        type            calculated;
        value           nonuniform List<scalar> 
50
(
1732.34
1788.54
1876.09
1725.11
1473.14
1546.9
1714.62
755.799
314.61
110.983
61.5052
26.542
15.8324
12.7183
10.9423
8.90974
5.79986
2.26805
0.592417
0.0117313
-0.196975
-0.340003
-0.562584
-0.655903
-0.905485
-1.11772
-1.3163
-1.56112
-1.81401
-2.04995
-2.29269
-2.43177
-2.65486
-2.90356
-2.99667
-3.20977
-3.39353
-3.56204
-3.72955
-3.90184
-4.07784
-4.2507
-4.41764
-4.59453
-4.76262
-4.93379
-5.09095
-5.28811
-5.41154
-5.68306
)
;
    }
    rightWall
    {
        type            calculated;
        value           nonuniform List<scalar> 
50
(
2758.61
2730.29
2450.2
2009.39
1875.4
1801.56
1756.93
1720.24
1652.42
1608.44
1608.85
1906.84
1771.15
1750.06
1817.97
1789.46
1701.58
1624.62
1640.03
1729.16
1817.73
1850.8
1847.38
1827.83
1790.78
1773.31
1854.14
1874.54
1772.21
1730.6
1705.56
1683.72
1593.79
1167.37
359.41
50.9097
9.62248
2.98022
0.028249
-1.42865
-4.92336
-1.82704
-2.02339
-1.40837
-2.8587
-4.81627
-5.12163
-5.4872
-5.78218
-6.91669
)
;
    }
    lowerWall
    {
        type            calculated;
        value           nonuniform List<scalar> 
62
(
1751.59
2057.43
1061.71
780.292
659.022
1603.08
2122.91
1641.41
683.71
804.533
705.879
730.446
734.913
733.717
724.84
719.364
705.678
685.146
670.813
656.387
643.534
637.365
1328.45
1311.1
526.367
454.406
389.579
323.598
306.277
627.106
1426.78
1850.67
1853.24
1744.37
1670.08
2409.66
2393.52
2267.63
2216.1
2176.8
2116.06
2047.75
1920.36
2428.08
2210.63
2055.99
1926.9
1996.5
2034.11
2015.13
1813.94
1884.21
1959.05
1904.89
2022.95
2178.45
2261.45
2337.8
2458.87
2437.5
2640.99
2772.35
)
;
    }
    atmosphere
    {
        type            calculated;
        value           nonuniform List<scalar> 
46
(
-5.72904
-5.72904
-5.72904
-5.72904
-5.72904
-5.72904
-5.72904
-5.72904
-5.72904
-5.72904
-5.72904
-5.72904
-5.72904
-5.72904
-5.72904
-5.72904
-5.72904
-5.72904
-5.72904
-5.72904
-5.72904
-5.72904
-5.72904
-5.72904
-5.72904
-5.72904
-5.72904
-5.72904
-5.72904
-5.72924
-5.73052
-5.73598
-5.74457
-5.76062
-5.77735
-5.79291
-5.81716
-5.87293
-5.8682
-5.90855
-5.89509
-5.95005
-5.96769
-6.11426
-6.09863
-8.86532
)
;
    }
    defaultFaces
    {
        type            empty;
    }
}


// ************************************************************************* //
