/*--------------------------------*- C++ -*----------------------------------*\
| =========                 |                                                 |
| \\      /  F ield         | foam-extend: Open Source CFD                    |
|  \\    /   O peration     | Version:     4.1                                |
|   \\  /    A nd           | Web:         http://www.foam-extend.org         |
|    \\/     M anipulation  |                                                 |
\*---------------------------------------------------------------------------*/
FoamFile
{
    version     2.0;
    format      ascii;
    class       volScalarField;
    location    "0.75";
    object      pd;
}
// * * * * * * * * * * * * * * * * * * * * * * * * * * * * * * * * * * * * * //

dimensions      [1 -1 -2 0 0 0 0];

internalField   nonuniform List<scalar> 
2268
(
1751.59
2057.43
1061.71
780.292
659.022
1603.08
2122.91
1641.41
683.71
804.533
705.879
730.446
734.913
733.717
724.84
719.364
705.678
685.146
670.813
656.387
643.534
637.365
1328.45
1844.34
1937.13
1517.37
1776.77
746.136
1508.75
1935.61
1882.95
1004.96
854.909
711.002
726.923
731.78
730.858
726.005
722.868
708.748
681.572
669.843
653.715
641.311
623.586
612.667
1963.56
1831.69
2001.11
1972.71
1698.81
1280.04
1735.77
1580.66
785.975
1226.82
728.468
721.185
727.665
735.615
727.627
720.746
706.674
682.583
671.258
660.013
639.385
619.85
600.336
1855.01
1757.33
1655.88
1964.42
1754.7
1315.47
1751
1364.05
1123.89
1885.27
1252.93
727.062
734.525
733.24
730.475
728.742
707.557
682.112
666.854
658.765
641.006
615.197
593.905
1653.92
2060.63
2013.17
1719.58
1681.77
1811.96
2069.51
1549.06
1746.47
1318.25
1544.28
766.121
742.667
744.451
735.726
738.045
711.762
678.224
661.699
664.945
639.954
613.335
585.104
1758.91
1503.13
1664.3
1534.35
1410.48
1995.77
2080.95
1759.1
1919.81
1438.34
1496.31
793.01
752.179
748.514
741.203
746.244
710.952
677.236
656.862
668.159
637.459
623.961
616.036
1872.54
1116.92
1006.97
973.367
1070.79
2006.94
1889.89
1879.26
1877.92
2005.16
1355.17
821.725
768.147
756.471
757.727
764.231
721.94
853.543
759.784
688.586
648.681
728.879
953.104
838.373
725.177
791.097
868.365
951.814
1683.97
1644.53
1744.75
1995.52
1751.32
1640.67
813.987
786.602
778.088
755.263
785.955
779.206
1488.3
1332.24
852.676
698.78
1031.08
1721.9
2428.08
2210.63
2055.99
1926.9
1996.5
2034.11
2015.13
1813.94
1884.21
1959.05
1904.89
2022.95
2178.45
2261.45
2337.8
2458.87
2437.5
2640.99
2772.35
2447.11
2373.26
2259.59
1937.27
1997.1
2006.33
1908.07
1767.42
1817.75
2011.53
2051.03
2027.18
2332.8
2359.21
2321.53
2454.28
2412.33
2598.05
2771.39
2353.69
2424.16
2352.97
2167.33
2037.51
2153.3
2135.72
1927.18
1971.15
2151.29
2291.34
2292.56
2314.07
2352.96
2371.81
2420.5
2416.98
2485.3
2543.38
2331.75
2330.41
2161.49
2240.18
2016.15
2297.22
2248.59
2145.7
2246.14
2229.98
2209.22
1927.75
1843.8
2307.4
2387.06
2333.39
2240.81
2209.14
2155.26
2319.35
2182.58
1988.11
2211.4
2278.53
2036.17
1951.24
2240.5
2063.2
1768.18
1701.59
1148.24
1080.19
1671.1
2331.82
2309.71
2172.25
2227.27
2065.2
2281.93
1978.71
1774.7
1765.66
1915.57
1297.1
1275.03
1908.38
1306.33
1086.53
1222.85
993.747
888.74
945.539
1818.93
2293.7
2317.83
2351.06
2034.79
2233.34
1636.04
1166.88
1477.35
1572.79
1241.92
769.897
1003.2
934.211
948.835
905.782
858.417
859.466
858.965
1057.45
1813.38
2290.91
2345.08
2033.97
2114.99
1233.05
1031.98
1387.58
1814.88
1165.61
716.083
768.196
1149.19
1291.8
1195.87
1286.39
1246.33
1043.66
1060.29
1346.57
2103.04
2370.46
2041.88
371.64
533.761
679.551
1002.64
1275.23
2092.36
1759.1
2037.94
1754.18
2056.96
1684.43
878.922
887.116
804.564
801.576
1049.18
980.686
1876.38
2062.5
1468.4
1096.41
1577.09
2153.9
147.059
503.873
1087.56
1139.14
1349.17
2023.92
1362.82
2068.96
1048.04
1902.91
1583.05
1675.18
1625.34
933.716
1050.22
1980.22
1685.83
1904.21
2124.89
1701.43
1432.35
1357.08
1708.84
90.332
639.157
1158.82
1388.89
1124.5
1519.3
1172.4
1618.54
1346.51
1442.03
1502.05
1801.68
1773.32
1395.89
1710.36
1225.64
1613.66
2032.6
1961.09
1978.87
1840.5
1899.44
2044.76
46.3158
220.548
684.196
1824.83
611.137
686.888
556.442
1726.35
2138.22
2100.53
1946.56
2053.01
1288.26
2031.3
1127.16
331.267
358.509
926.914
708.412
1872.34
2087.28
1606.69
1688.32
29.4599
51.7103
133.401
742.105
142.723
270.662
157.142
520.572
1142.1
1263.69
1336.72
1962.05
1157.11
1854.58
892.408
141.957
74.1443
264.615
132.743
475.312
1204.81
253.794
327.606
27.7951
36.0773
44.6674
79.9067
61.4228
97.1375
39.4883
91.3759
327.032
448.46
202.015
1407.89
143.211
685.438
127.949
39.0295
44.7491
76.6564
64.9951
138.888
237.006
135.579
242.322
26.5938
30.9605
31.0764
32.2385
33.402
39.5726
15.951
27.877
74.7389
94.6412
32.1256
188.935
33.0004
60.8781
18.1064
22.1734
30.7275
38.1944
36.0024
55.7371
74.5457
112.26
282.001
25.8521
27.6395
26.175
27.9759
23.5928
19.4627
13.0726
11.8037
19.8283
18.2074
6.08548
9.7367
11.6502
11.0687
12.5774
17.7942
23.558
26.5863
28.2013
29.5126
30.6294
41.5224
93.0245
21.4416
18.4196
20.2808
26.2296
25.6975
22.8865
15.4008
9.56926
10.138
9.0348
5.51153
6.26684
6.6646
7.66968
10.9563
15.1181
19.6287
22.0388
21.1569
17.205
17.5718
20.5198
32.4919
13.8835
10.3533
13.9623
17.4723
14.7622
16.7694
12.4739
10.903
7.57633
7.00517
4.78217
4.95478
5.57575
7.37918
9.83102
13.1484
16.4783
18.1996
16.115
14.7309
14.9589
16.3478
21.8464
8.12646
6.56159
7.75666
7.9434
4.73074
5.05757
4.39862
5.35295
5.68404
5.36403
4.25509
4.62479
5.14137
6.65308
8.09293
10.7191
13.5788
14.7192
13.3721
13.394
15.3181
21.3203
46.0915
4.45644
4.21652
3.51804
3.88093
2.68178
2.61005
2.71789
3.49912
4.2898
4.12197
3.76905
4.15094
4.53236
5.34135
6.78348
8.93076
13.3213
19.5942
22.7059
24.12
28.6333
49.1049
82.1173
2.63323
3.09619
2.66432
2.65635
2.18453
2.17957
2.3181
2.59079
3.18305
3.48052
3.40113
4.32526
6.43266
10.903
29.7595
52.5192
56.8724
72.0268
77.1838
78.5779
76.2984
67.5259
57.5279
2.03896
2.35424
2.16735
2.11464
2.00824
2.09274
2.18213
2.30939
2.58516
3.07486
3.20364
4.17243
7.42117
15.8068
25.2062
24.6378
28.8371
33.3432
25.7581
20.3724
13.8743
10.0691
8.51425
1.79451
1.96028
1.90054
1.89584
1.9165
1.96464
2.11026
2.1677
2.29053
2.44098
2.62382
2.86122
4.07276
8.75329
11.4369
14.2989
14.1059
9.8565
8.73495
9.18508
4.35944
3.16386
2.99059
1.78048
1.77175
1.77924
1.78502
1.77245
1.83866
1.88073
1.98372
1.99339
2.04053
2.12522
1.70806
1.1021
2.27723
1.66968
3.78569
3.80371
1.3868
1.79109
4.18935
2.87088
1.74281
1.62751
1.63904
1.68669
1.66904
1.6773
1.70521
1.75792
1.73765
1.7451
1.84087
1.77102
1.34147
1.39357
0.992724
0.990506
0.14777
0.551474
0.667446
0.495636
0.338316
1.15136
1.82372
1.31568
1.39511
1.54646
1.5167
1.59415
1.59308
1.58432
1.56374
1.56427
1.59227
1.47576
1.53805
0.952727
1.24321
0.83208
0.317623
-0.10868
0.133997
0.223785
0.157488
0.317696
0.590136
0.861479
1.02026
1.14219
1.47126
1.52876
1.42685
1.48397
1.52219
1.49914
1.42351
1.35863
1.20499
1.31672
1.17756
0.847386
0.672126
0.496711
0.163908
0.0772183
0.175269
0.113057
0.397987
0.468755
0.617039
0.768545
0.857586
1.35117
1.34138
1.42231
1.34476
1.3221
1.33761
1.33917
1.22486
1.25944
1.17453
1.06663
0.708781
0.768761
0.410797
0.325652
0.220927
0.284475
0.248591
0.354942
0.412503
0.516931
0.589028
0.629072
1.22337
1.21186
1.19501
1.27632
1.14717
1.21392
1.2331
1.21959
1.163
1.15149
0.992949
0.828539
0.595851
0.493835
0.442858
0.409981
0.303572
0.278837
0.394357
0.345538
0.451326
0.47219
0.438031
1.1126
1.09814
1.10074
1.02301
1.12552
1.14497
1.16574
1.09534
1.07772
0.93295
0.844196
0.829999
0.717166
0.588262
0.496195
0.414089
0.30989
0.296123
0.319774
0.307448
0.356183
0.29519
0.300663
0.995059
0.95466
0.959827
1.01972
1.05076
1.00014
0.951922
1.00866
0.889854
0.824383
0.793877
0.742455
0.650802
0.567643
0.454818
0.362546
0.321871
0.241115
0.277653
0.23651
0.24526
0.16143
0.0735293
0.981172
1.00421
1.00603
0.967685
0.929876
0.9842
0.794803
0.830623
0.808491
0.761716
0.720544
0.644294
0.596714
0.534185
0.428112
0.376167
0.333565
0.259095
0.278133
0.242227
0.160684
0.0802461
0.0259454
0.883278
0.892119
0.89189
0.887683
0.858103
0.798823
0.83605
0.790373
0.740765
0.719135
0.666514
0.590312
0.564504
0.480643
0.430176
0.426758
0.321767
0.266208
0.215521
0.148568
0.11823
0.0356771
-0.0488602
0.759766
0.800172
0.809979
0.807181
0.786367
0.698472
0.745068
0.704129
0.663753
0.631941
0.605153
0.570839
0.523199
0.432093
0.388586
0.377237
0.267321
0.226454
0.157795
0.144453
0.0790793
-0.0524673
-0.0863821
0.791858
0.774317
0.757991
0.750474
0.743957
0.745759
0.683918
0.604929
0.62493
0.585126
0.566043
0.533777
0.506774
0.452687
0.366226
0.270842
0.234958
0.237706
0.215367
0.112159
0.0571217
0.00836278
-0.116377
0.703953
0.702367
0.700471
0.694136
0.680055
0.672381
0.650584
0.642999
0.606799
0.56127
0.514577
0.493101
0.394907
0.335788
0.363588
0.293816
0.267143
0.241835
0.15367
0.133393
0.0179863
-0.0538893
-0.0877897
0.645386
0.647369
0.645506
0.638785
0.628235
0.615086
0.592755
0.573892
0.536121
0.520627
0.465442
0.430379
0.412721
0.326974
0.277163
0.231129
0.207546
0.165319
0.115851
0.0557614
-0.0143146
-0.0131809
-0.131503
0.602065
0.601759
0.59533
0.590009
0.579931
0.576308
0.547845
0.536802
0.490765
0.477969
0.461518
0.412367
0.333219
0.331364
0.313116
0.250772
0.19436
0.170652
0.12206
0.0559623
0.0347987
-0.0645815
-0.16689
0.559752
0.554902
0.547907
0.542702
0.527851
0.518083
0.48892
0.4648
0.441807
0.41056
0.382696
0.342844
0.331388
0.286899
0.219595
0.20341
0.17416
0.174099
0.0945163
0.0913354
-0.011964
-0.0917369
-0.0804918
0.512662
0.508314
0.498882
0.494304
0.474613
0.464019
0.479973
0.427284
0.384514
0.336866
0.312976
0.304791
0.288594
0.263412
0.232929
0.190262
0.166212
0.135881
0.119861
0.0393071
-0.0133431
-0.0343447
-0.0987769
0.461855
0.455915
0.452361
0.438998
0.419518
0.407914
0.367533
0.361742
0.353115
0.345173
0.343679
0.310051
0.283696
0.243981
0.190805
0.161167
0.167524
0.127254
0.0617214
0.0198837
-0.043229
-0.0376748
-0.11126
0.414188
0.4068
0.399586
0.396875
0.377367
0.373645
0.348951
0.331512
0.283757
0.264325
0.31198
0.276257
0.220569
0.228382
0.193308
0.149466
0.111029
0.0723559
0.0793146
0.00993293
0.0120049
-0.0580933
-0.0792386
0.372444
0.368384
0.360004
0.358603
0.348935
0.342289
0.319639
0.306172
0.313533
0.27833
0.200305
0.263698
0.218913
0.169757
0.171724
0.169448
0.13294
0.0778063
0.0597446
0.0346322
-0.00337406
-0.00669852
-0.0650548
0.320746
0.321706
0.316604
0.311715
0.307238
0.292952
0.286983
0.299653
0.262592
0.248519
0.221234
0.201771
0.167028
0.174033
0.151146
0.124789
0.126516
0.0940568
0.0696194
0.031135
0.0247201
-0.0426728
-0.0257578
0.277849
0.282352
0.277394
0.262632
0.296931
0.253924
0.225927
0.212133
0.213743
0.232828
0.197275
0.161595
0.163852
0.144668
0.127854
0.11102
0.0945842
0.0879847
0.0401279
-0.00534977
0.00151359
-0.0247904
-0.0335795
0.231874
0.234023
0.224792
0.208098
0.185989
0.186313
0.190822
0.182185
0.169898
0.154451
0.14404
0.154513
0.157731
0.132463
0.110565
0.0902083
0.097053
0.06206
0.0284921
0.040515
0.0122161
0.00833026
-0.0364756
0.199908
0.227908
0.191196
0.175349
0.168078
0.163762
0.145938
0.142711
0.136489
0.12895
0.11725
0.106931
0.0875672
0.0850544
0.0852963
0.0789304
0.0727453
0.0701066
0.035518
0.0336985
0.0263319
-0.00706317
-0.0214326
0.127939
0.100739
0.120676
0.12959
0.121046
0.114701
0.112622
0.102278
0.101897
0.0899991
0.0866966
0.0825085
0.0797686
0.072569
0.0727065
0.0761429
0.0610535
0.054151
0.0388164
0.0229044
0.0106603
0.00109739
-0.00218294
0.129707
0.0949449
0.0873402
0.081805
0.0679496
0.0711913
0.0607575
0.0210242
0.104403
0.0100168
0.092773
0.0489952
0.0120326
0.042921
0.0756366
0.0127628
0.0656002
0.0205295
0.0398944
0.0245189
-0.000333815
0.0026812
-0.00226582
-0.016613
-0.00559678
0.0537531
0.0699878
0.00896636
0.07363
0.00180162
0.0732682
-0.021482
0.0616957
-0.0121873
0.00612552
0.0521441
0.0286518
-0.0201636
-0.0161519
-0.0299575
-0.0171814
-0.0290465
0.0118109
-0.00999328
0.0125884
-0.0130919
2063.29
2069.71
1957.07
1871.15
2129.03
2220.99
2205.51
2162.61
2111.02
2181.59
2246.28
2267.65
2036.56
1840.81
1511.68
1637.3
683.931
686.087
686.667
701.018
330.635
355.045
442.477
470.537
543.226
615.617
708.492
655.442
220.834
222.642
197.123
187.614
48.0983
50.519
52.9069
55.2189
35.5594
51.7415
65.5848
76.4119
90.465
108.244
116.324
121.92
90.4468
91.3502
98.3836
104.083
49.8165
44.7766
42.1725
42.0789
7.87768
6.85185
6.3949
6.51441
2.95139
2.87789
2.95466
3.33202
1.84434
1.84476
1.9642
2.25594
1.57603
1.72364
1.94663
2.23327
1.22581
1.28204
1.33083
1.36822
0.886159
0.880854
0.840068
0.782822
0.605993
0.569484
0.503908
0.414595
0.403988
0.371126
0.295356
0.191302
0.22346
0.122309
0.0760415
-0.00960158
0.0151951
-0.0574582
-0.124101
-0.220494
-0.0919489
-0.156191
-0.185694
-0.263662
-0.107979
-0.191141
-0.240684
-0.363716
-0.163609
-0.188494
-0.265824
-0.320881
-0.141409
-0.209215
-0.230839
-0.303118
-0.179909
-0.197622
-0.250403
-0.275624
-0.17074
-0.192674
-0.250152
-0.268026
-0.166673
-0.173363
-0.198199
-0.229814
-0.162049
-0.178115
-0.191206
-0.21567
-0.108532
-0.127358
-0.149286
-0.170443
-0.113396
-0.113638
-0.140653
-0.145089
-0.0973337
-0.115626
-0.122587
-0.128831
-0.075721
-0.0840964
-0.0929414
-0.10687
-0.057759
-0.0838899
-0.0778017
-0.0934847
-0.047023
-0.0591982
-0.0597891
-0.0712489
-0.0433208
-0.0470738
-0.0613707
-0.0554011
-0.0225067
-0.0321615
-0.0338786
-0.0402897
-0.0211913
-0.0187809
-0.0267755
-0.0239741
-0.00339392
-0.0141276
-0.0130557
-0.0193675
-0.00531274
-0.0128482
-0.00397485
-0.0090062
2032.68
1996.38
2228.33
1729.24
1692.87
1456.34
1636.63
1592.18
2212.49
2274.43
2214.08
1966.79
1852.62
1761.87
1679.03
1889.18
2422.77
2315.98
2046.47
2176.89
1975.06
1756.11
1902.07
1826.74
1732.08
1768.77
1792.47
1928.01
1904.28
1978.82
2150.64
2192.07
2121.1
2125.02
2173.7
2173.01
2178.14
2099.52
2176.48
2012.29
1516.02
1596.35
2017.87
2009.92
2228.28
1679.19
1729.64
1746.22
1702.32
1824.59
2296.1
2357.98
2381.5
2452.82
2516.38
2557.06
2181.44
2184.05
2186.14
2274.69
2339.74
2328.48
2259.59
2055
2349.06
2201.34
2172.63
2291.02
2388.28
2255.41
2075.65
2002.16
2011.51
2046.32
2412.11
2497.82
1749.47
2047.67
1705.41
1569.05
1655.97
1435.48
1526.22
1688.79
1238.52
1127.36
1371.59
1555.76
1049.94
922.035
946.414
1223.28
1453.07
2287.68
2458.63
1105.3
933.878
858.465
864.612
945.928
1034.55
1347.06
1002.5
499.537
444.343
413.775
443.397
438.14
541.061
655.389
686.786
911.296
1857.47
2498.97
672.282
444.9
608.297
555.813
557.079
1193.05
1130.18
460.659
194.88
192.182
253.573
475.499
617.87
990.528
1469.77
1212.59
1261.8
1825.77
2602.14
198.338
265.547
726.387
620.749
685.026
854.033
795.421
231.914
168.533
247.575
520.923
882.575
1096.19
1484.75
1953
1867.75
1609.04
1944.66
2651.99
66.5625
286.713
533.547
462.394
1051.35
1422.77
569.465
153.129
276.614
389.908
666.433
1044.89
1413.3
1850.89
2483.23
2599.93
2393.59
2263.84
2668.94
84.1433
96.3048
181.552
294.523
428.251
518.047
294.103
431.114
544.321
618.864
696.625
840.704
956.645
1804.62
2615.99
2732.05
2762.02
2737.2
2709.65
133.097
151.984
156.609
208.549
252.162
274.605
284.735
313.018
264.442
229.102
246.542
294.818
336.192
1060.21
2430.06
2796.69
2815.16
2805.16
2810.97
123.604
128.478
138.806
146.506
208.162
230.572
248.801
168.115
102.651
82.0385
97.3746
125.918
196.272
493.782
1363.45
2578.88
2944.83
2943.16
2951.42
46.0929
46.2325
48.4926
49.8098
64.7513
62.3172
44.8587
35.4822
36.4978
39.7995
54.3173
101.099
275.699
666.936
1124.86
2146.39
2905.03
3043.33
3060.62
7.14534
7.39737
7.83419
11.3048
17.3846
22.3871
23.7947
27.0087
32.9871
44.7181
67.3294
148.204
503.376
1257.8
2125.96
2638.85
2932.82
3086.17
3141.92
3.93865
4.65428
4.98418
4.16781
7.91714
16.4958
29.6244
41.9404
50.3956
69.7507
85.3208
115.475
601.377
1092.47
1141.24
2325.76
3015.78
3158.29
3206.04
2.99965
4.08913
4.26396
7.67083
17.157
35.343
69.5646
109.255
140.849
183.387
267.233
359.513
1899.12
2570.77
2398.46
2201.54
3126.52
3270.33
3264.62
2.61879
3.23177
3.95955
9.6211
23.1851
50.2106
95.6927
180.87
287.246
416.857
627.154
1153.61
2529.9
2920.18
2987.29
2896.53
3203.97
3297.28
3317.69
1.49642
1.70606
1.4759
3.09745
10.495
22.4927
44.6481
153.118
305.604
592.5
898.019
1648.23
2617.99
2871.72
2700.45
2874.39
3167.85
3357.62
3381.44
0.639483
0.202173
-0.418754
-0.487663
0.804714
5.98959
23.0822
64.2253
137.626
315.221
478.678
918.55
1250.78
1420.68
1436.35
2095.2
2638.17
3233.65
3416.11
0.252687
-0.396242
-1.20569
-1.8382
-1.6592
2.65262
14.2213
32.4391
67.7814
137.202
246.262
391.068
524.814
731.727
945.647
1551.04
1999.61
2677.79
3238.79
-0.013949
-0.602183
-1.2071
-1.95487
-1.87613
3.05271
8.98379
14.0703
36.6824
78.4683
184.143
271.251
364.823
539.501
718.483
1193.29
1578.27
2281.73
3069.42
-0.180446
-0.586577
-1.28404
-1.98414
-2.35967
-1.0648
-1.28015
1.57565
8.44012
22.2046
48.6254
86.3287
140.661
276.912
534.837
1017.75
1526.22
2192.14
3052.14
-0.351439
-0.74899
-1.28378
-1.59145
-1.95834
-1.58499
-1.39163
1.71139
5.49041
10.9954
21.0776
30.073
50.3129
114.036
380.769
960.523
1646.9
2275.67
3066.64
-0.373827
-0.696804
-0.967711
-1.27562
-1.5529
-1.80568
-1.7207
-1.76187
-1.84772
0.99076
4.99196
5.51149
13.3068
40.0356
215.147
669.161
1707.59
2454.84
3076.56
-0.462819
-0.696433
-0.828832
-1.23612
-1.36406
-1.56482
-1.51219
-1.40724
-1.75826
-0.852048
-0.0874275
0.390027
0.278188
6.49393
46.5206
234.003
1214.46
2430.52
2943.29
-0.452842
-0.595801
-0.782815
-1.03039
-1.12076
-1.44908
-1.29398
-1.306
-1.66364
-1.6271
-1.09665
-0.876983
-0.888321
-0.536024
3.63183
46.6387
384.682
1586.11
2216.68
-0.335487
-0.543965
-0.595151
-0.887464
-1.06588
-1.00042
-1.04779
-1.35634
-1.34598
-1.38044
-1.17773
-1.23572
-1.1934
-1.02531
-0.871289
2.42624
51.8708
395.511
858.359
-0.401617
-0.431121
-0.647794
-0.661867
-0.886999
-0.779702
-1.08584
-1.12598
-1.16067
-1.03477
-0.992143
-1.07053
-1.09889
-0.706636
-0.894451
-0.357429
5.8479
66.5045
239.715
-0.317819
-0.382341
-0.459013
-0.743851
-0.719073
-0.75835
-0.817153
-0.851484
-0.938828
-0.89889
-0.872934
-0.85683
-0.768751
-0.68015
-0.48797
-0.370314
1.38123
25.1556
100.491
-0.287637
-0.350548
-0.416959
-0.497322
-0.510856
-0.709099
-0.659607
-0.710207
-0.741165
-0.847257
-0.840534
-0.672245
-0.681372
-0.591082
-0.443002
-0.288436
0.754907
18.0136
64.7104
-0.228743
-0.297192
-0.331486
-0.527727
-0.589142
-0.533938
-0.535039
-0.566695
-0.717914
-0.70028
-0.715854
-0.63637
-0.548767
-0.649395
-0.452411
-0.168993
0.345231
9.51873
51.2891
-0.205956
-0.282092
-0.314051
-0.335239
-0.454311
-0.477548
-0.464917
-0.470948
-0.514255
-0.462595
-0.601811
-0.608533
-0.585304
-0.570289
-0.488261
0.0175958
0.562855
2.56541
44.0524
-0.161214
-0.280146
-0.245529
-0.324165
-0.345138
-0.398521
-0.399837
-0.390954
-0.433283
-0.424256
-0.358194
-0.36764
-0.418957
-0.353626
-0.563512
0.0622606
0.849962
1.48178
36.3002
-0.130568
-0.20141
-0.263859
-0.271768
-0.268091
-0.289358
-0.365055
-0.297927
-0.370323
-0.338959
-0.397604
-0.374624
-0.421217
-0.363242
-0.338329
0.0307405
0.820263
2.14229
53.6901
-0.130703
-0.188564
-0.182941
-0.271748
-0.245734
-0.251443
-0.320226
-0.308724
-0.296146
-0.301308
-0.270022
-0.335752
-0.366222
-0.363529
-0.369106
0.077513
0.848289
2.37331
55.978
-0.112959
-0.136586
-0.180837
-0.187605
-0.200494
-0.23279
-0.273988
-0.246764
-0.305426
-0.287727
-0.273056
-0.31202
-0.358768
-0.275304
-0.181762
0.139732
0.72831
2.86572
61.2621
-0.0924482
-0.0943384
-0.138184
-0.14454
-0.181367
-0.184676
-0.191045
-0.235314
-0.201275
-0.275478
-0.312068
-0.27452
-0.292418
-0.254492
-0.180667
-0.0622355
0.0705227
2.90669
48.2613
-0.0599759
-0.0749998
-0.0998121
-0.115235
-0.143324
-0.140075
-0.183511
-0.142563
-0.194487
-0.178121
-0.175778
-0.214944
-0.249972
-0.347837
-0.323707
-0.176361
-0.167993
0.778368
27.2161
-0.0393943
-0.0577869
-0.0854389
-0.0969908
-0.0882295
-0.126625
-0.100738
-0.1395
-0.13609
-0.160806
-0.169054
-0.205611
-0.206514
-0.242325
-0.21673
-0.156746
-0.105011
0.0377115
16.6992
-0.0368409
-0.054873
-0.0653696
-0.074829
-0.0786724
-0.0622691
-0.0861731
-0.086507
-0.0808999
-0.119786
-0.122815
-0.145043
-0.20132
-0.217537
-0.321163
-0.379867
-0.132475
-0.131693
10.7714
-0.0188009
-0.0401007
-0.0364689
-0.0315412
-0.0453824
-0.0665992
-0.0647713
-0.10417
-0.0774241
-0.101264
-0.226709
-0.12274
-0.170702
-0.247561
-0.350211
-0.359735
-0.442785
-0.381077
7.91106
-0.00694934
-0.00469925
-0.0115868
-0.0148792
-0.034069
-0.0178502
-0.0654946
-0.0469309
-0.119496
-0.146731
-0.104965
-0.21482
-0.251217
-0.133549
-0.154795
-0.202291
-0.303891
-0.68801
1.85177
)
;

boundaryField
{
    leftWall
    {
        type            zeroGradient;
    }
    rightWall
    {
        type            zeroGradient;
    }
    lowerWall
    {
        type            zeroGradient;
    }
    atmosphere
    {
        type            totalPressure;
        rho             rho;
        psi             none;
        gamma           1;
        p0              uniform 0;
        value           nonuniform List<scalar> 
46
(
0
0
0
0
0
0
0
0
0
0
0
0
0
0
0
0
0
0
0
0
0
0
0
0
0
0
0
0
0
-0.000204486
-0.00148253
-0.0069373
-0.0155333
-0.031575
-0.0483101
-0.063865
-0.0881197
-0.143889
-0.139159
-0.179461
-0.165948
-0.220884
-0.238445
-0.381701
-0.365451
0
)
;
    }
    defaultFaces
    {
        type            empty;
    }
}


// ************************************************************************* //
