/*--------------------------------*- C++ -*----------------------------------*\
| =========                 |                                                 |
| \\      /  F ield         | foam-extend: Open Source CFD                    |
|  \\    /   O peration     | Version:     4.1                                |
|   \\  /    A nd           | Web:         http://www.foam-extend.org         |
|    \\/     M anipulation  |                                                 |
\*---------------------------------------------------------------------------*/
FoamFile
{
    version     2.0;
    format      ascii;
    class       surfaceScalarField;
    location    "0.75";
    object      phi;
}
// * * * * * * * * * * * * * * * * * * * * * * * * * * * * * * * * * * * * * //

dimensions      [0 3 -1 0 0 0 0];

internalField   nonuniform List<scalar> 
4432
(
9.62462e-06
-9.62462e-06
-2.15361e-07
9.83998e-06
-3.08647e-05
3.06493e-05
-1.83469e-05
-1.25178e-05
-1.6258e-05
-2.08888e-06
-3.08967e-05
1.46387e-05
2.05779e-05
-5.14746e-05
1.93135e-05
1.2644e-06
6.04457e-06
1.32689e-05
5.25555e-07
5.51901e-06
-6.5892e-06
7.11475e-06
1.4855e-06
-8.0747e-06
6.12454e-06
-4.63904e-06
6.01934e-06
1.05199e-07
5.44967e-06
5.69669e-07
5.94945e-06
-4.99777e-07
5.71933e-06
2.30124e-07
5.96357e-07
5.12297e-06
-4.08211e-06
4.67847e-06
-4.20415e-06
1.22038e-07
-2.6176e-07
-3.94238e-06
6.16366e-07
-8.78121e-07
6.16374e-07
-1.37265e-06
-8.25198e-06
-7.44504e-06
1.59124e-05
-1.792e-06
2.49963e-05
3.71835e-06
-1.80282e-05
-8.50393e-06
1.01334e-05
-5.148e-06
1.12827e-05
1.22686e-05
-6.88912e-05
2.79203e-05
-1.43873e-05
8.93665e-06
3.22526e-05
4.94557e-06
9.51008e-06
-4.37273e-06
1.64331e-05
1.86255e-06
-1.431e-05
6.91207e-06
-9.68857e-06
6.7379e-06
2.79369e-07
6.30242e-06
1.00515e-06
5.05771e-06
7.44934e-07
3.22077e-06
2.06707e-06
5.29469e-06
3.04906e-06
1.78617e-06
8.187e-06
6.33229e-07
1.27499e-06
-2.84401e-07
-3.02475e-06
5.45682e-07
-1.7082e-06
1.16206e-06
6.08588e-06
-1.43379e-05
8.3003e-06
1.36979e-05
2.32485e-05
1.00481e-05
4.1383e-05
-3.61627e-05
4.32403e-05
8.27616e-06
2.76325e-05
2.68904e-05
7.0397e-06
-4.82984e-05
1.79427e-05
-2.52903e-05
6.26687e-06
4.39284e-05
9.24848e-07
1.48521e-05
-7.5794e-06
2.49373e-05
-2.7077e-06
-1.91817e-05
4.37769e-06
-1.6774e-05
4.53796e-06
1.19104e-07
4.9794e-06
5.63713e-07
4.25751e-06
1.46682e-06
3.80893e-06
2.51565e-06
3.6211e-06
3.23689e-06
1.59697e-06
1.02111e-05
4.37129e-07
2.43483e-06
-2.39341e-06
-1.94196e-07
-3.19536e-07
-3.78207e-06
8.42526e-07
-1.71224e-06
-1.26256e-05
1.31151e-05
-1.12945e-06
1.69444e-05
6.21883e-06
1.43439e-05
-3.35622e-05
3.60733e-05
-1.34533e-05
3.23779e-05
3.05859e-05
3.99213e-06
-1.99126e-05
-1.16009e-05
-9.69722e-06
-1.29023e-05
4.52298e-05
-5.13687e-07
2.46347e-06
1.18138e-07
2.43055e-05
-5.04556e-06
-1.4018e-05
-1.76803e-06
-2.00515e-05
-1.41281e-06
-2.36117e-07
2.51486e-07
-1.10058e-06
2.81919e-06
-1.10088e-06
2.90007e-06
2.43477e-06
2.93346e-06
3.20351e-06
1.13038e-06
1.20142e-05
-6.63644e-07
4.22886e-06
-1.19556e-06
3.37727e-07
-7.96782e-07
-4.18084e-06
4.57461e-08
-4.38542e-06
-8.2402e-06
2.73411e-05
-3.2856e-05
3.6985e-05
-3.42508e-06
2.02463e-05
-1.68235e-05
2.19646e-05
-1.51715e-05
3.96944e-05
1.28561e-05
1.41482e-05
5.63348e-06
-1.04371e-05
1.48881e-05
5.4703e-06
2.93224e-05
-3.81651e-06
1.17503e-05
7.99178e-06
1.24972e-05
-3.07326e-06
-2.95295e-06
-3.50211e-06
-1.96226e-05
-6.80815e-06
3.06992e-06
-5.68348e-06
-2.22525e-06
-1.90601e-06
-4.87834e-06
-4.8414e-07
1.01291e-06
5.92253e-07
2.12712e-06
-8.65999e-07
1.34725e-05
-2.76362e-06
6.12648e-06
-3.47413e-06
1.04824e-06
-1.04811e-06
-6.60686e-06
-1.00236e-06
-5.56267e-06
-2.67753e-06
2.88075e-05
-6.72261e-05
3.56855e-05
-1.03031e-05
3.21333e-05
-1.32713e-05
3.51914e-05
-1.82296e-05
2.02479e-05
2.77996e-05
1.91193e-05
6.762e-06
-1.21906e-05
4.6198e-05
5.20597e-06
1.19258e-05
5.34644e-06
1.16098e-05
4.09648e-06
1.37472e-05
-4.44149e-06
5.58502e-06
-6.14387e-06
-1.79203e-05
-5.93601e-06
2.86206e-06
-5.80033e-06
-2.36093e-06
-4.77285e-06
-5.90582e-06
-1.20653e-06
-2.55342e-06
-5.66226e-07
1.48682e-06
-2.79643e-06
1.57027e-05
-4.20529e-06
7.53535e-06
-4.62933e-06
1.47229e-06
-3.44122e-06
-7.79498e-06
-4.44358e-06
1.63003e-05
-1.89779e-05
2.29088e-05
-7.38346e-05
2.51266e-05
-1.2521e-05
3.51388e-05
-2.32835e-05
1.24329e-05
4.47625e-06
1.2656e-05
2.75766e-05
1.54668e-05
3.95124e-06
3.60844e-06
5.80563e-05
1.18507e-05
3.6835e-06
-1.5163e-05
3.86235e-05
-6.06461e-06
4.64878e-06
-3.46858e-07
-1.32726e-07
-4.29883e-06
-1.39683e-05
-4.7322e-06
3.29543e-06
-1.12064e-05
4.11327e-06
-3.08509e-06
-1.40271e-05
9.43247e-07
-6.58175e-06
4.19027e-06
-1.7602e-06
3.449e-07
1.95481e-05
-8.34145e-07
8.7144e-06
-9.97034e-07
1.63518e-06
-3.62545e-06
-5.16657e-06
-8.06903e-06
3.33303e-05
-5.23082e-05
2.8209e-05
-6.87133e-05
5.05168e-05
-3.48288e-05
4.57252e-05
-1.84919e-05
3.73592e-05
1.28423e-05
4.93165e-06
6.00041e-05
-1.18672e-06
1.00696e-05
6.29295e-06
5.05767e-05
2.94244e-05
-1.94479e-05
8.60972e-07
6.71869e-05
-6.99472e-07
6.20923e-06
1.83257e-06
-2.66477e-06
-1.1447e-06
-1.0991e-05
-1.14055e-05
1.35562e-05
-1.42859e-05
6.99365e-06
-8.64952e-06
-1.96635e-05
-1.50229e-06
-1.3729e-05
3.87274e-06
-7.13522e-06
-5.59657e-06
2.90174e-05
-1.57993e-06
4.69776e-06
1.50487e-06
-1.44962e-06
-1.13082e-05
7.64646e-06
-1.93772e-05
-7.42925e-05
7.42925e-05
-9.85156e-05
2.42231e-05
-0.000108863
1.03474e-05
-0.00011571
6.84713e-06
-0.000114718
-9.92282e-07
-0.000119225
4.50714e-06
-0.00011649
-2.73512e-06
-8.14689e-05
-3.50209e-05
-7.80728e-05
-3.39617e-06
-6.65667e-05
-1.1506e-05
-6.71626e-05
5.95918e-07
-0.000109306
4.21433e-05
-9.85794e-05
-1.07266e-05
-9.00525e-05
-8.52686e-06
-8.53013e-05
-4.75117e-06
-7.18898e-05
-1.34115e-05
-4.40636e-05
-2.78262e-05
-3.53184e-05
-8.74528e-06
-3.53182e-05
-2.87076e-05
0.000103
-7.28309e-05
6.83464e-05
-9.17001e-05
2.92167e-05
-7.23797e-05
-1.24733e-05
-0.000107791
3.44187e-05
-0.000112511
9.22719e-06
-7.36563e-05
-4.15896e-05
-8.10776e-05
-2.75996e-05
-8.05198e-05
-3.95399e-06
-0.000116988
2.49625e-05
-0.000114017
-2.37503e-06
-7.30219e-05
1.14783e-06
-0.000100081
1.63326e-05
-9.4841e-05
-1.37669e-05
-6.41897e-05
-3.54026e-05
-8.71349e-05
9.53367e-06
-9.05213e-05
-2.44396e-05
-5.25028e-05
-4.6764e-05
-8.78209e-05
-2.1281e-05
0.000124281
-3.02632e-05
7.73286e-05
-3.26644e-05
3.16179e-05
-5.58294e-05
1.06916e-05
-9.57818e-05
7.43711e-05
-9.06245e-05
4.06983e-06
-0.000107547
-2.46674e-05
-0.000123481
-1.16655e-05
-0.000117531
-9.90319e-06
-0.000111001
1.8432e-05
-0.000108252
-5.12392e-06
-0.000104987
-2.11721e-06
-9.69876e-05
8.33329e-06
-9.01345e-05
-2.06201e-05
-9.80048e-05
-2.75323e-05
-9.51152e-05
6.64404e-06
-9.39249e-05
-2.56297e-05
-6.09718e-05
-7.97174e-05
-0.000148793
-1.62132e-05
0.000140494
-2.4799e-05
8.59144e-05
-5.40948e-05
6.09138e-05
-7.92291e-05
3.58259e-05
-4.50582e-05
4.02002e-05
-6.8654e-05
2.76656e-05
-8.60635e-05
-7.25791e-06
-7.0169e-05
-2.756e-05
-0.000101415
2.13428e-05
-6.57213e-05
-1.72618e-05
-9.23751e-05
2.15299e-05
-9.00368e-05
-4.45554e-06
-5.15162e-05
-3.01873e-05
-8.24171e-05
1.02808e-05
-8.38015e-05
-2.61479e-05
-5.09779e-05
-2.61796e-05
-4.35845e-05
-3.3023e-05
-4.49405e-05
-7.83615e-05
-0.000193733
-1.60895e-05
0.000156584
-2.09701e-05
9.07949e-05
-2.47028e-05
6.46466e-05
-1.93506e-05
3.04737e-05
-3.6961e-05
5.78105e-05
-4.6636e-05
3.73406e-05
-5.07352e-05
-3.15872e-06
-9.93077e-05
2.10125e-05
-5.5269e-05
-2.26958e-05
-7.43948e-05
1.86396e-06
-5.26499e-05
-2.14908e-07
-2.8776e-05
-2.83295e-05
-4.08357e-05
-1.81276e-05
-3.17547e-05
1.19978e-06
-5.85108e-05
6.08185e-07
-6.43733e-05
-2.03172e-05
-5.18094e-05
-4.55869e-05
-1.99405e-05
-0.000110231
-0.000213674
-1.96663e-05
0.00017625
-2.4312e-05
9.54406e-05
-2.21655e-05
6.25e-05
-1.99839e-05
2.82922e-05
-2.34413e-05
6.12679e-05
-2.99722e-05
4.38716e-05
-2.87117e-05
-4.41925e-06
-2.64171e-05
1.87178e-05
-1.6352e-05
-3.27609e-05
-1.41529e-06
-1.30727e-05
9.32882e-06
-1.0959e-05
1.23367e-05
-3.13374e-05
6.25059e-06
-1.20415e-05
-7.45488e-06
1.49053e-05
-3.27272e-05
2.58804e-05
-2.00414e-05
-3.30029e-05
-3.13879e-05
-3.42404e-05
-5.59618e-06
-0.000136022
-0.00021927
-3.6158e-05
0.000212408
-1.51003e-05
7.43829e-05
-2.34347e-05
7.08345e-05
-1.05353e-05
1.53928e-05
-9.83373e-06
6.05663e-05
-2.3409e-06
3.63787e-05
3.01959e-06
-9.77975e-06
1.95974e-05
2.13998e-06
2.11213e-05
-3.42847e-05
2.73024e-05
-1.92538e-05
2.42691e-05
-7.92568e-06
1.57867e-05
-2.28551e-05
1.66685e-05
-1.29232e-05
2.32159e-05
8.35785e-06
2.10967e-05
2.79997e-05
-5.29711e-06
-6.60922e-06
-8.21384e-06
-3.13235e-05
3.62418e-06
-0.00014786
-0.000215645
-3.95244e-05
0.000251933
-3.65232e-05
7.13817e-05
-2.49948e-05
5.93061e-05
-2.68958e-05
1.72938e-05
-1.99196e-06
3.56625e-05
3.0139e-06
3.13728e-05
1.81114e-05
-2.48772e-05
3.76461e-05
-1.73947e-05
4.37681e-05
-4.04067e-05
2.79509e-05
-3.43665e-06
2.77579e-05
-7.73274e-06
1.91016e-05
-1.41988e-05
1.73329e-05
-1.11545e-05
2.83859e-05
-2.69519e-06
5.158e-05
4.80562e-06
2.32583e-05
2.17124e-05
3.162e-05
-3.96853e-05
1.59359e-05
-0.000132176
-0.00019971
6.66856e-05
-0.000118994
8.72003e-05
-8.9228e-05
6.3158e-05
-1.07865e-05
-1.71813e-06
4.63842e-05
-1.06507e-05
2.17748e-05
-3.96534e-06
5.33188e-05
-1.97827e-05
2.5887e-05
-3.45516e-06
3.42491e-05
-2.56475e-05
2.74437e-06
-3.99075e-05
8.1447e-05
-1.78076e-05
-1.58907e-05
-1.60418e-05
-4.43054e-06
-3.60469e-06
-2.34281e-05
-1.14516e-05
2.14031e-05
-5.35509e-06
8.97176e-07
1.64833e-06
-2.66669e-05
-9.97529e-06
-2.10535e-06
-1.30406e-05
-4.06993e-06
-1.59353e-05
3.19121e-05
-2.33365e-05
1.2099e-05
-3.94037e-05
1.46176e-05
-7.34986e-05
4.17413e-05
4.11016e-06
-9.6986e-05
6.62663e-06
-0.00012562
2.41974e-05
-0.000106799
5.70035e-06
7.71057e-06
-3.61782e-05
8.82628e-05
-3.16758e-05
1.72725e-05
-3.14208e-05
5.30637e-05
-1.1482e-05
5.94814e-06
1.657e-05
6.19712e-06
2.1602e-05
-2.28758e-06
3.76447e-05
6.54042e-05
1.46533e-05
7.10071e-06
-3.16757e-05
4.18985e-05
7.22531e-06
-6.23292e-05
1.06785e-05
1.79499e-05
1.93511e-05
-7.77538e-06
3.81448e-05
-4.54606e-05
3.25548e-05
3.48466e-06
-7.76708e-07
2.92615e-05
-5.92592e-05
9.03946e-05
-9.67804e-05
4.96202e-05
-0.000117759
3.55958e-05
-8.88251e-05
1.28077e-05
1.98687e-05
-0.000104584
-2.65934e-05
-9.9027e-05
3.5881e-07
-0.000133751
-4.62454e-06
1.26939e-05
-4.78098e-05
0.000131448
-2.48052e-05
-5.7321e-06
-3.97766e-05
6.80352e-05
-3.51098e-05
1.2813e-06
-3.53798e-05
6.46717e-06
4.74004e-06
-4.24075e-05
6.47878e-05
5.35647e-06
2.52205e-05
4.6668e-05
7.3292e-06
5.97898e-05
4.04109e-05
-9.54108e-05
4.53028e-05
1.3058e-05
1.8027e-05
1.95004e-05
2.66789e-06
-3.01014e-05
-4.11441e-05
4.72966e-05
-3.99025e-05
2.802e-05
-6.07141e-05
0.000111206
-9.92912e-05
8.81973e-05
-0.000110349
4.66536e-05
-0.000143019
4.54779e-05
2.47098e-05
-0.00014786
-5.75761e-06
-9.32694e-05
-6.68975e-05
-7.26112e-05
-5.598e-05
1.77646e-06
2.41918e-05
5.12761e-05
-2.14481e-06
2.06045e-05
-1.23672e-05
7.82575e-05
-3.17298e-05
2.06439e-05
-4.42295e-05
1.89668e-05
-9.93229e-05
1.2686e-05
-3.16676e-05
-6.22988e-05
3.98727e-06
1.10131e-05
-3.59018e-06
6.73673e-05
-3.5959e-05
-6.3042e-05
2.77124e-07
-2.31781e-05
-7.49397e-07
2.05269e-05
-3.08312e-05
-1.96076e-08
-1.84993e-05
3.49647e-05
-4.68804e-05
5.64011e-05
-1.58488e-05
8.01745e-05
-9.6178e-06
8.19663e-05
-9.34152e-06
4.63773e-05
-2.77019e-05
6.38382e-05
4.52765e-05
-4.82687e-05
-1.25931e-06
-9.20101e-05
-3.23769e-05
-4.14936e-05
-1.37443e-05
-1.68561e-05
-1.45759e-05
5.21077e-05
-2.20144e-05
2.80431e-05
-1.59109e-05
7.2154e-05
-8.33349e-06
1.30665e-05
-4.12008e-06
1.47534e-05
1.83188e-06
6.734e-06
9.4419e-06
-6.99088e-05
6.53842e-06
1.39166e-05
3.54183e-05
3.84874e-05
2.18049e-05
-4.94286e-05
2.29397e-05
-2.43129e-05
2.78889e-05
1.55777e-05
8.38744e-06
1.94818e-05
-1.31132e-05
5.64654e-05
-1.92466e-05
6.25346e-05
-4.51447e-06
6.54424e-05
1.63615e-05
6.10903e-05
-8.80287e-06
7.15417e-05
3.03379e-05
2.46974e-05
-1.51884e-05
9.08028e-05
-4.16723e-05
-5.03378e-05
-5.13427e-05
-3.18232e-05
-5.23117e-05
-1.58872e-05
-2.06625e-05
2.04584e-05
-3.14729e-05
3.88536e-05
-2.10148e-05
6.16958e-05
-2.00089e-05
1.20606e-05
-2.48905e-05
1.9635e-05
-1.14824e-05
-6.67406e-06
-5.51211e-05
-2.62702e-05
-2.60429e-05
-1.51616e-05
4.51868e-07
1.19927e-05
-5.84072e-06
-4.3136e-05
-3.49797e-06
-2.66557e-05
-1.49199e-06
1.35717e-05
-2.1985e-05
3.99749e-05
-4.68077e-05
8.1288e-05
-8.10554e-05
9.67822e-05
-7.68861e-05
6.12732e-05
-5.95394e-05
4.37437e-05
-5.64843e-05
6.84866e-05
-2.0198e-05
-1.15888e-05
-5.00069e-05
1.46205e-05
-4.73352e-05
-3.00261e-06
-5.74836e-05
-2.16749e-05
-6.52491e-05
-8.12168e-06
-4.37184e-05
-1.07232e-06
-2.34109e-05
1.8546e-05
9.35562e-06
2.89294e-05
8.43325e-06
1.29829e-05
-2.93104e-05
5.73787e-05
-3.90068e-05
3.02229e-06
-5.12599e-05
-1.4017e-05
-4.72944e-05
-1.91271e-05
-3.22636e-05
-3.03808e-06
-5.21705e-05
-2.32292e-05
-4.2917e-05
-3.59091e-05
-8.21955e-05
5.28502e-05
-0.000108186
6.59654e-05
-0.000118333
9.1435e-05
-0.000144763
0.000123213
-0.000131616
4.81263e-05
-9.47897e-05
6.91704e-06
-3.62524e-05
9.94921e-06
-1.46301e-05
-3.32112e-05
-5.53961e-05
-9.24082e-06
-5.44636e-05
5.14609e-05
-8.20555e-05
5.91708e-06
-6.10236e-05
-2.91536e-05
-4.65124e-05
-1.55836e-05
-3.69197e-05
8.95332e-06
2.1523e-06
-1.01426e-05
1.80488e-05
-2.9136e-06
1.03406e-05
6.50869e-05
-1.47746e-05
2.81374e-05
-3.71903e-05
8.39867e-06
-5.90334e-05
2.71611e-06
-5.86349e-05
-3.43653e-06
-8.57111e-05
3.84709e-06
-0.000130935
9.3151e-06
-0.000140576
6.24907e-05
-0.000128029
5.34183e-05
-0.000121154
8.45601e-05
-8.8968e-05
9.10268e-05
-0.000105043
6.42017e-05
-7.38237e-05
-2.43025e-05
-5.02119e-05
-1.36626e-05
-4.62689e-05
-3.71542e-05
-4.78767e-05
-5.37884e-05
-1.66767e-05
6.81376e-05
-2.84946e-05
1.77349e-05
-4.18562e-05
-1.57919e-05
-5.02025e-05
-7.23729e-06
-2.17212e-05
-1.9528e-05
-4.4363e-06
-2.74275e-05
1.32274e-05
-2.05773e-05
4.28481e-05
3.54662e-05
1.47999e-05
5.61856e-05
-6.67933e-05
8.9992e-05
-0.000138774
7.46968e-05
-0.000171105
2.88951e-05
-0.000179693
1.24345e-05
-0.000189738
1.93601e-05
-0.000165828
3.85814e-05
-0.000157645
4.52348e-05
-0.000143316
7.02309e-05
-0.000125607
7.33176e-05
-8.93941e-05
2.79892e-05
-7.77304e-05
-3.59661e-05
-7.97863e-05
-1.16065e-05
-9.80726e-05
-1.8868e-05
-3.66343e-05
-0.000109315
-3.00368e-05
9.81744e-05
-3.24216e-05
2.01197e-05
-3.44657e-05
-1.37478e-05
-3.00945e-05
-1.16086e-05
-2.37823e-05
-2.58402e-05
-4.87732e-06
-4.63325e-05
6.44495e-06
-3.18996e-05
3.26958e-05
9.21539e-06
-6.54524e-07
8.9536e-05
-4.88595e-05
0.000138197
-9.08712e-05
0.000116709
-0.00010818
4.62042e-05
-0.000136901
4.1155e-05
-0.000192405
7.48637e-05
-0.000221782
6.7959e-05
-0.000234416
5.78683e-05
-0.000179648
1.54629e-05
-0.000135979
2.96484e-05
-0.000120345
1.23551e-05
-0.000154635
-1.67607e-06
-0.000154725
-1.15166e-05
-0.000162869
-1.07235e-05
-2.13682e-05
-0.000178135
-4.2377e-06
0.000102412
-3.87482e-05
5.46302e-05
-4.28993e-05
-9.59667e-06
-1.76706e-05
-3.68373e-05
-6.4644e-06
-3.70465e-05
-2.12029e-05
-3.1594e-05
-2.16281e-05
-3.14743e-05
-3.30385e-05
2.06258e-05
-4.60542e-05
0.000102552
-7.39548e-05
0.000166098
-0.000100165
0.000142919
-0.000155611
0.00010165
-0.000209091
9.46358e-05
-0.000241321
0.000107093
-0.000199327
2.5965e-05
-0.000186063
4.46044e-05
-0.000203241
3.26411e-05
-0.000177922
4.32977e-06
-0.000159339
-6.22769e-06
-0.000174518
1.35027e-05
-0.00022293
3.68953e-05
-0.000231589
-2.06446e-06
-3.05586e-05
-0.000222399
1.96347e-05
8.27774e-05
1.17273e-05
6.25376e-05
-5.36667e-06
7.4973e-06
-2.15134e-05
-2.06905e-05
-3.72708e-05
-2.12892e-05
-4.87451e-05
-2.01197e-05
-6.61855e-05
-1.40339e-05
-9.27822e-05
4.72224e-05
-0.000103552
0.000113322
-8.77741e-05
0.000150319
-0.000102058
0.000157202
-7.70344e-05
7.66264e-05
-0.000111948
0.000129549
-0.00016334
0.000158485
-0.000211762
7.43878e-05
-0.000179453
1.2295e-05
-0.000195168
4.83564e-05
-0.000209303
1.84649e-05
-0.000232621
1.709e-05
-0.000236633
1.75145e-05
-0.000224309
2.45715e-05
-0.000221177
-5.19611e-06
-1.89835e-05
-0.000232752
2.49704e-05
5.78069e-05
2.08996e-05
6.66084e-05
-9.9592e-06
3.83561e-05
-3.37781e-05
3.1284e-06
-6.26652e-05
7.59798e-06
-8.60416e-05
3.25675e-06
-0.000113655
1.35797e-05
-9.12644e-05
2.48313e-05
-0.000102487
0.000124544
-0.000108507
0.00015634
-0.000137817
0.000186512
-0.000259731
0.000198541
-0.000311023
0.00018084
-0.000239729
8.71903e-05
-0.000274667
0.000109326
-0.000349146
8.67745e-05
-0.000346896
4.61058e-05
-0.000340026
1.15954e-05
-0.000339664
1.67275e-05
-0.00032599
3.84121e-06
-0.000302237
8.177e-07
-0.000272964
-3.44691e-05
-7.4266e-05
-0.000217681
1.24728e-05
4.53341e-05
1.08154e-05
6.82658e-05
-3.12014e-07
4.94836e-05
-2.76479e-05
3.04643e-05
-3.97437e-05
1.96937e-05
-8.55314e-05
4.90444e-05
-0.000119734
4.77816e-05
-0.000169033
7.413e-05
-0.000122486
7.79975e-05
-0.00017527
0.000209123
-0.000231325
0.000242567
-0.000299036
0.000266252
-0.000329948
0.000211752
-0.000373085
0.000130327
-0.000329093
6.53334e-05
-0.00024616
3.8418e-06
-0.000221747
2.16931e-05
-0.000273787
6.36353e-05
-0.000270678
1.36185e-05
-0.000245248
-2.15886e-05
-0.000190242
-5.41887e-05
-0.000131282
-9.34286e-05
-9.52396e-05
-0.000110308
-4.12197e-06
4.94561e-05
2.98964e-07
6.38449e-05
-9.67385e-06
5.94564e-05
-2.52734e-05
4.60639e-05
-6.98259e-05
6.42462e-05
-8.81296e-05
6.7348e-05
-9.20333e-05
5.1685e-05
-0.000119284
0.00010138
-0.000131225
8.99386e-05
-0.00014204
0.000219938
-0.000146318
0.000246845
-0.000173933
0.000293867
-0.000148479
0.000186299
-0.00021734
0.000199189
-0.000208248
5.62412e-05
-0.000270766
6.63596e-05
-0.000275489
2.64161e-05
-0.000176579
-3.5275e-05
-0.000135707
-2.72532e-05
-0.000151108
-6.18685e-06
-0.000126834
-7.84625e-05
-0.0001335
-8.67625e-05
-7.88118e-05
-0.000149928
5.09882e-06
4.43573e-05
-1.78e-06
7.07237e-05
-1.04939e-05
6.81703e-05
-3.00945e-05
6.56646e-05
-3.50915e-05
6.92431e-05
-4.02392e-05
7.24955e-05
-8.47695e-05
9.6215e-05
-4.3708e-05
6.03184e-05
-9.55771e-05
0.000141807
-8.55764e-05
0.000209937
-2.30782e-06
0.000163578
3.87736e-05
0.000252784
-2.41007e-05
0.000249172
-4.39106e-05
0.000219
-7.91675e-05
9.14986e-05
-0.000121945
0.000109137
-0.000115621
2.00923e-05
-0.000114849
-3.60466e-05
-9.44674e-05
-4.76349e-05
-8.54746e-05
-1.51795e-05
-0.000108943
-5.49935e-05
-0.000121072
-7.46334e-05
-8.76947e-05
-0.000112189
-9.02337e-06
5.33807e-05
2.94241e-06
5.87579e-05
-6.8901e-06
7.80028e-05
-1.90722e-05
7.78467e-05
-2.85326e-05
7.87034e-05
-2.44476e-05
6.84103e-05
-3.07021e-05
0.000102469
-7.26841e-05
0.0001023
-2.68796e-05
9.60027e-05
-4.98627e-06
0.000188043
1.05341e-05
0.000148057
5.04968e-05
0.000212822
2.75501e-05
0.000272119
9.91002e-05
0.00014745
7.37051e-05
0.000116894
4.67383e-05
0.000136104
4.60381e-05
2.07927e-05
1.52652e-05
-5.27338e-06
-1.58329e-05
-1.65365e-05
-1.96597e-05
-1.13525e-05
-5.68664e-05
-1.77866e-05
-9.26737e-05
-3.88263e-05
-3.03167e-05
-0.000150053
-1.98716e-06
5.53678e-05
-1.82859e-05
7.50566e-05
-5.00918e-06
6.47261e-05
-1.52638e-05
8.81014e-05
-1.76211e-05
8.10606e-05
-4.30814e-05
9.38705e-05
-4.77133e-05
0.000107101
-1.8103e-05
7.26892e-05
-1.63089e-05
9.42088e-05
6.28433e-06
0.000165451
-2.2753e-05
0.000177094
4.90375e-05
0.000141032
7.86122e-05
0.000242545
0.00011137
0.000114693
0.00013868
8.95849e-05
0.000124635
0.000150149
8.02965e-05
6.51308e-05
5.30871e-05
2.19364e-05
4.39277e-05
-7.37681e-06
2.36278e-05
8.94785e-06
7.49054e-06
-1.64905e-06
-2.27012e-05
-8.63429e-06
1.56948e-05
-6.87131e-05
-5.66318e-06
6.1031e-05
5.97462e-06
6.34188e-05
-1.41664e-05
8.48671e-05
-2.309e-05
9.7025e-05
-8.77189e-06
6.67425e-05
-1.92352e-05
0.000104334
-1.44855e-05
0.000102351
-1.10255e-05
6.92287e-05
-3.18226e-05
0.000115006
-1.64224e-05
0.000150051
3.37699e-06
0.000157295
2.33354e-05
0.000121074
7.82677e-05
0.000187612
8.03543e-05
0.000112607
8.94545e-05
8.04846e-05
0.000121199
0.000118405
8.89342e-05
9.73961e-05
8.25196e-05
2.83512e-05
6.37709e-05
1.13722e-05
5.09171e-05
2.18021e-05
2.80847e-05
2.11836e-05
-6.54836e-07
2.01051e-05
4.43141e-05
-2.9275e-05
-4.03318e-06
6.50641e-05
-9.94645e-06
6.9332e-05
1.24936e-06
7.36713e-05
-8.41303e-06
0.000106687
-1.76665e-05
7.59961e-05
-1.58932e-05
0.00010256
-7.66375e-06
9.41212e-05
-3.33486e-05
9.49133e-05
-2.161e-05
0.000103267
4.93137e-06
0.000123509
2.45222e-05
0.000137704
8.85364e-06
0.000136742
8.15606e-05
0.000114905
0.000109964
8.4203e-05
6.59907e-05
0.000124458
9.5265e-05
8.91302e-05
0.000107622
8.50389e-05
8.39073e-05
5.2066e-05
7.83259e-05
1.6954e-05
5.71553e-05
4.29732e-05
3.9902e-05
3.84372e-05
1.84199e-05
4.15871e-05
6.18318e-05
9.01275e-07
-1.45331e-06
6.65174e-05
-5.45602e-06
7.33346e-05
-7.20183e-06
7.5417e-05
9.99497e-06
8.94905e-05
-2.07984e-05
0.000106789
-1.54687e-05
9.72307e-05
-1.1989e-05
9.06414e-05
-1.1571e-05
9.44952e-05
-1.42097e-05
0.000105905
2.96353e-05
7.96637e-05
2.9722e-05
0.000137617
5.61906e-05
0.000110274
5.31245e-05
0.000117971
3.06184e-05
0.000106709
5.68452e-05
9.82307e-05
8.74392e-05
5.8536e-05
8.88714e-05
8.36067e-05
6.51671e-05
7.57704e-05
4.14466e-05
4.06747e-05
2.34348e-05
6.09855e-05
3.19868e-05
2.98857e-05
3.31189e-05
4.04551e-05
7.77263e-05
1.72238e-05
2.6815e-06
6.38359e-05
1.70419e-06
7.43118e-05
2.07882e-06
7.50423e-05
-2.2064e-05
0.000113633
-1.72957e-05
0.000102021
-2.59952e-05
0.00010593
-7.17247e-06
7.18186e-05
-1.38582e-05
0.000101181
1.87686e-05
7.3278e-05
2.12362e-05
7.71958e-05
3.16028e-05
0.00012725
2.76403e-05
0.000114236
3.2963e-05
0.000112648
5.04058e-05
8.92655e-05
5.07652e-05
9.78711e-05
4.21614e-05
6.71396e-05
7.60774e-05
4.96906e-05
6.17515e-05
9.00963e-05
5.48495e-05
4.7577e-05
4.27031e-05
7.31323e-05
2.87347e-05
4.38546e-05
1.89558e-05
5.02345e-05
5.95102e-05
3.71718e-05
1.40559e-05
4.97799e-05
-3.00049e-06
9.13682e-05
-2.23853e-05
9.44271e-05
-1.3737e-05
0.000104985
-1.9811e-05
0.000108095
-1.13744e-05
9.74936e-05
-1.67915e-05
7.72358e-05
1.43985e-05
6.99909e-05
1.43518e-05
7.33246e-05
2.38213e-05
6.77262e-05
2.7816e-05
0.000123255
2.58038e-05
0.000116248
2.65372e-05
0.000111915
6.04745e-05
5.5328e-05
6.10739e-05
9.72716e-05
3.27703e-05
9.5443e-05
3.5557e-05
4.69038e-05
5.24243e-05
7.32291e-05
2.68523e-05
7.31493e-05
3.63305e-05
6.36545e-05
3.0947e-05
4.92386e-05
3.21709e-05
4.9011e-05
4.55864e-05
4.6095e-05
-4.46329e-06
5.42431e-05
-4.60175e-06
9.15066e-05
-6.65607e-06
9.64813e-05
-7.71761e-06
0.000106046
-6.97145e-06
0.000107349
1.86251e-05
7.1897e-05
-4.41011e-06
0.000100271
4.63944e-07
6.51168e-05
9.91891e-06
6.38696e-05
1.79427e-05
5.97023e-05
2.52998e-05
0.000115898
3.13172e-05
0.00011023
3.81202e-05
0.000105111
3.21997e-05
6.12483e-05
3.37709e-05
9.57003e-05
6.18342e-05
6.73796e-05
3.45065e-05
7.42315e-05
4.32572e-05
6.44785e-05
4.51652e-05
7.12415e-05
3.17847e-05
7.70352e-05
3.54075e-05
4.56161e-05
3.99491e-05
4.44698e-05
4.58009e-05
3.97349e-05
-4.91879e-06
5.91619e-05
-5.3029e-06
9.18906e-05
-4.57804e-06
9.57564e-05
-6.1227e-06
0.000107591
-5.84516e-07
0.000101811
2.04422e-06
6.92682e-05
5.65932e-06
9.66559e-05
5.6876e-06
6.50885e-05
1.30051e-05
5.65521e-05
1.38788e-05
5.88286e-05
2.01435e-05
0.000109633
2.79142e-05
0.00010246
3.70372e-05
9.59884e-05
4.37115e-05
5.45739e-05
4.62283e-05
9.31835e-05
3.38617e-05
7.97462e-05
2.97882e-05
7.8305e-05
5.29427e-05
4.13241e-05
4.76887e-05
7.64955e-05
5.51546e-05
6.95695e-05
5.8705e-05
4.20659e-05
5.85041e-05
4.4671e-05
4.48614e-05
5.94438e-05
-1.731e-05
7.64718e-05
-6.33521e-06
8.09158e-05
-2.36966e-06
9.17908e-05
4.83877e-06
0.000100383
1.50773e-05
9.1572e-05
-5.96026e-08
8.44051e-05
5.54456e-06
9.10517e-05
7.43032e-06
6.32027e-05
1.45464e-05
4.94359e-05
2.01576e-05
5.32173e-05
2.86121e-05
0.000101179
3.72855e-05
9.37862e-05
4.5161e-05
8.81128e-05
1.88115e-05
8.09234e-05
3.15518e-05
8.04432e-05
5.87811e-05
5.25169e-05
5.88554e-05
7.82307e-05
3.25993e-05
6.75802e-05
5.2696e-05
5.63989e-05
6.15511e-05
6.07145e-05
4.10288e-05
6.25883e-05
5.5987e-05
2.97129e-05
6.64457e-05
3.4403e-05
-1.80021e-06
7.8272e-05
-2.27441e-06
8.13899e-05
-2.61538e-07
8.97779e-05
5.75076e-06
9.43703e-05
6.22537e-06
9.10974e-05
1.37137e-05
7.69168e-05
2.02295e-05
8.45359e-05
2.26974e-06
8.11624e-05
7.68188e-06
4.40238e-05
1.56571e-05
4.5242e-05
2.19363e-05
9.48996e-05
2.86101e-05
8.71123e-05
2.30443e-05
9.36786e-05
4.79496e-05
5.60181e-05
5.17529e-05
7.66398e-05
2.72759e-05
7.6994e-05
4.01456e-05
6.5361e-05
4.33893e-05
6.43365e-05
3.47326e-05
6.50556e-05
6.37861e-05
3.16611e-05
6.42546e-05
6.21199e-05
3.97252e-05
5.42424e-05
4.99804e-05
5.61906e-05
-1.60593e-06
7.98779e-05
-1.00754e-06
8.07915e-05
1.56017e-06
8.72102e-05
6.09725e-06
8.98331e-05
9.24852e-06
8.79461e-05
8.3876e-06
7.77776e-05
7.68253e-06
8.52409e-05
1.25137e-05
7.63312e-05
1.02004e-05
4.6337e-05
1.26114e-05
4.2831e-05
2.37008e-05
8.38102e-05
2.56879e-05
8.51252e-05
3.96768e-05
7.96897e-05
1.48416e-05
8.08533e-05
4.22746e-05
4.92068e-05
4.48056e-05
7.4463e-05
4.04001e-05
6.97665e-05
2.70862e-05
7.76504e-05
5.2272e-05
3.98698e-05
4.01278e-05
4.38053e-05
3.78916e-05
6.43562e-05
6.20698e-05
3.00642e-05
6.32508e-05
4.87996e-05
-6.50002e-07
8.05279e-05
1.27678e-08
8.01287e-05
3.04014e-06
8.41828e-05
6.55555e-06
8.63177e-05
1.00552e-05
8.44464e-05
1.1536e-05
7.62969e-05
1.50988e-05
8.16779e-05
1.41156e-05
7.73144e-05
1.55163e-05
4.49363e-05
1.47331e-05
4.36141e-05
2.67138e-05
7.18294e-05
3.39532e-05
7.78858e-05
2.77116e-05
8.59312e-05
4.03181e-05
6.82468e-05
2.07325e-05
6.87924e-05
3.59396e-05
5.92558e-05
3.73079e-05
6.83982e-05
5.15645e-05
6.33938e-05
5.5202e-05
3.62323e-05
3.20686e-05
6.69387e-05
4.64925e-05
4.99323e-05
3.84639e-05
3.80928e-05
3.79352e-05
6.37795e-05
-3.17121e-07
8.0845e-05
1.10741e-06
7.87041e-05
3.08345e-06
8.22067e-05
5.60434e-06
8.37967e-05
7.84838e-06
8.22023e-05
7.55651e-06
7.65887e-05
1.4318e-05
7.49164e-05
1.14363e-05
8.0196e-05
1.1844e-05
4.45285e-05
8.37695e-06
4.70811e-05
3.14751e-05
4.87312e-05
2.48212e-05
8.45396e-05
3.45604e-05
7.6192e-05
3.14484e-05
7.13588e-05
2.25579e-05
7.76829e-05
4.4459e-05
3.73547e-05
4.39074e-05
6.89498e-05
4.91446e-05
5.81565e-05
2.78727e-05
5.75042e-05
4.59073e-05
4.89041e-05
6.45123e-05
3.13273e-05
4.11511e-05
6.1454e-05
2.58596e-05
5.32266e-05
2.87012e-07
8.0558e-05
2.3209e-06
7.66702e-05
4.12541e-06
8.04021e-05
5.84162e-06
8.20805e-05
7.06867e-06
8.09752e-05
7.83386e-06
7.58235e-05
1.55121e-05
6.72381e-05
1.84306e-05
7.72774e-05
1.85065e-05
4.44527e-05
1.93606e-05
4.62269e-05
1.64278e-05
5.1664e-05
1.87464e-05
8.2221e-05
2.1895e-05
7.30434e-05
2.22447e-05
7.10091e-05
3.18759e-05
6.80516e-05
2.83679e-05
4.08627e-05
3.6213e-05
6.11047e-05
3.16129e-05
6.27566e-05
4.29874e-05
4.61297e-05
3.60962e-05
5.57952e-05
3.59077e-05
3.15157e-05
5.77364e-05
3.96253e-05
4.62041e-05
3.73919e-05
8.9906e-07
7.96589e-05
1.95296e-06
7.56163e-05
4.33686e-06
7.80182e-05
4.01007e-06
8.24073e-05
3.25229e-06
8.17329e-05
2.26289e-06
7.68128e-05
2.13732e-05
4.81278e-05
1.75187e-05
8.11319e-05
1.7635e-05
4.43363e-05
2.33164e-05
4.05455e-05
9.55889e-06
6.54215e-05
2.29613e-05
6.88186e-05
2.70426e-05
6.89621e-05
3.34616e-05
6.45901e-05
3.2734e-05
6.87793e-05
3.28352e-05
4.07614e-05
3.47567e-05
5.91833e-05
3.49052e-05
6.2608e-05
2.60589e-05
5.49759e-05
4.91381e-05
3.2716e-05
4.94108e-05
3.1243e-05
4.36009e-05
4.54352e-05
3.87625e-05
5.10425e-05
1.81999e-06
7.78389e-05
2.92916e-06
7.45071e-05
3.63381e-06
7.73135e-05
5.21016e-06
8.08309e-05
7.14857e-06
7.97945e-05
1.09278e-05
7.30335e-05
1.50691e-05
4.39865e-05
1.9611e-05
7.65901e-05
1.88622e-05
4.50851e-05
1.5961e-05
4.34466e-05
1.67502e-05
6.46323e-05
2.31809e-05
6.23879e-05
1.98691e-05
7.22738e-05
2.30224e-05
6.14368e-05
3.11556e-05
6.0646e-05
1.12059e-05
6.07111e-05
3.24195e-05
3.79697e-05
2.55523e-05
6.94752e-05
5.01292e-05
3.03991e-05
2.55126e-05
5.73325e-05
3.45928e-05
2.21627e-05
3.29965e-05
4.70315e-05
2.82248e-05
4.35341e-05
2.22628e-06
7.56126e-05
3.43988e-06
7.32934e-05
5.38723e-06
7.53661e-05
6.11449e-06
8.01036e-05
9.78698e-06
7.6122e-05
1.29901e-05
6.98304e-05
1.91602e-05
3.78163e-05
2.96644e-05
6.60859e-05
1.36698e-05
6.10797e-05
-3.10944e-06
6.02259e-05
1.60428e-05
4.54801e-05
1.75916e-05
6.08391e-05
2.51436e-05
6.47218e-05
2.01447e-05
6.64357e-05
2.17368e-05
5.90539e-05
3.41741e-05
4.82738e-05
1.81471e-05
5.39967e-05
2.91475e-05
5.84747e-05
2.7565e-05
3.19815e-05
4.11667e-05
4.37308e-05
2.51329e-05
3.81966e-05
3.75168e-05
3.46475e-05
2.50508e-05
4.06908e-05
1.06821e-06
7.45443e-05
2.25856e-06
7.21031e-05
4.4389e-06
7.31858e-05
3.67054e-06
8.08719e-05
1.00191e-05
6.97734e-05
8.06255e-06
7.1787e-05
8.25352e-06
3.76253e-05
1.5364e-05
5.89754e-05
1.22673e-05
6.41763e-05
1.65727e-05
5.59206e-05
1.64186e-06
6.04109e-05
2.23612e-05
4.01197e-05
1.87082e-05
6.83748e-05
2.57198e-05
5.94242e-05
2.65377e-05
5.82359e-05
1.93372e-05
5.54744e-05
2.30523e-05
5.02816e-05
3.60214e-05
4.55056e-05
1.7465e-05
5.05379e-05
1.78885e-05
4.33073e-05
3.50766e-05
2.10084e-05
2.66446e-05
4.30795e-05
1.28022e-05
3.88933e-05
6.2032e-07
7.3924e-05
2.80835e-06
6.9915e-05
3.45429e-06
7.25398e-05
2.7969e-06
8.15293e-05
7.20114e-06
6.53692e-05
5.94851e-06
7.30397e-05
2.4275e-06
4.11464e-05
1.86583e-05
4.27446e-05
1.21392e-05
7.06954e-05
9.59997e-06
5.84598e-05
1.28412e-05
5.71696e-05
1.27805e-05
4.01804e-05
2.23529e-05
5.88024e-05
2.37631e-05
5.80139e-05
2.44999e-05
5.74991e-05
2.45973e-05
5.53769e-05
1.82793e-05
5.65996e-05
1.82605e-05
4.55244e-05
1.70746e-05
5.17237e-05
3.23272e-05
2.80547e-05
2.57413e-05
2.75943e-05
3.38398e-05
3.49809e-05
2.53673e-05
2.12747e-05
-3.76964e-08
7.39617e-05
2.87415e-06
6.70032e-05
9.82976e-08
7.53157e-05
-2.12042e-06
8.37481e-05
1.49595e-05
4.82892e-05
9.35989e-06
7.86393e-05
9.48398e-06
4.10223e-05
6.52517e-06
4.57034e-05
4.42007e-06
7.28005e-05
2.01697e-05
4.27102e-05
1.18804e-05
6.54588e-05
1.57898e-05
3.62711e-05
1.94665e-05
5.51257e-05
2.0683e-05
5.67974e-05
2.18164e-05
5.63656e-05
2.21726e-05
5.50207e-05
2.59058e-05
5.28664e-05
2.11251e-05
5.0305e-05
2.23353e-05
5.05136e-05
2.93241e-05
2.1066e-05
1.58522e-05
4.10662e-05
2.44876e-05
2.63455e-05
2.7066e-05
2.27889e-05
1.58842e-08
7.39458e-05
2.3181e-06
6.4701e-05
2.24283e-06
7.5391e-05
4.79696e-06
8.11939e-05
5.07345e-06
4.80127e-05
8.00599e-06
7.57068e-05
7.22551e-06
4.18027e-05
8.04231e-06
4.48866e-05
9.29979e-06
7.1543e-05
7.41726e-06
4.45927e-05