/*--------------------------------*- C++ -*----------------------------------*\
| =========                 |                                                 |
| \\      /  F ield         | foam-extend: Open Source CFD                    |
|  \\    /   O peration     | Version:     4.1                                |
|   \\  /    A nd           | Web:         http://www.foam-extend.org         |
|    \\/     M anipulation  |                                                 |
\*---------------------------------------------------------------------------*/
FoamFile
{
    version     2.0;
    format      ascii;
    class       surfaceScalarField;
    location    "0.75";
    object      phi_0;
}
// * * * * * * * * * * * * * * * * * * * * * * * * * * * * * * * * * * * * * //

dimensions      [0 3 -1 0 0 0 0];

internalField   nonuniform List<scalar> 
4432
(
9.05787e-06
-9.05787e-06
-9.91673e-07
1.00495e-05
-3.07846e-05
2.97929e-05
-1.74318e-05
-1.33528e-05
-1.58241e-05
-1.60773e-06
-3.13915e-05
1.55674e-05
2.10225e-05
-5.24139e-05
1.9395e-05
1.62747e-06
6.83804e-06
1.25569e-05
5.12336e-07
6.32571e-06
-6.62259e-06
7.13493e-06
1.56295e-06
-8.18554e-06
6.09097e-06
-4.52802e-06
5.92702e-06
1.63952e-07
5.2919e-06
6.35124e-07
5.70553e-06
-4.13632e-07
5.43793e-06
2.67605e-07
4.53349e-07
4.98458e-06
-4.30942e-06
4.76277e-06
-4.49095e-06
1.81529e-07
-4.42824e-07
-4.04812e-06
8.01111e-07
-1.24393e-06
8.01119e-07
-1.41647e-06
-7.64141e-06
-7.61185e-06
1.62449e-05
-3.296e-06
2.54771e-05
3.30825e-06
-1.99571e-05
-9.29265e-06
1.09932e-05
-5.47885e-06
1.17536e-05
1.26325e-05
-7.05253e-05
2.78545e-05
-1.35945e-05
1.01837e-05
3.02277e-05
4.76162e-06
1.17478e-05
-4.20131e-06
1.60979e-05
2.07598e-06
-1.44628e-05
6.90965e-06
-9.36169e-06
6.69993e-06
3.73673e-07
6.14312e-06
1.19194e-06
4.80313e-06
9.26348e-07
3.03922e-06
2.03152e-06
5.04289e-06
2.98091e-06
1.67785e-06
8.12782e-06
5.22426e-07
1.33696e-06
-4.307e-07
-3.09499e-06
2.35938e-07
-1.91056e-06
1.03706e-06
6.55856e-06
-1.42e-05
8.99852e-06
1.3805e-05
2.52525e-05
9.22312e-06
4.29124e-05
-3.7617e-05
4.38761e-05
1.00295e-05
2.69326e-05
2.86971e-05
7.54427e-06
-5.1137e-05
1.98296e-05
-2.58799e-05
6.64562e-06
4.34118e-05
4.65387e-07
1.7928e-05
-7.24304e-06
2.38063e-05
-2.50656e-06
-1.91993e-05
4.4783e-06
-1.63465e-05
4.46864e-06
3.83324e-07
4.78682e-06
8.73759e-07
3.99407e-06
1.7191e-06
3.46448e-06
2.56111e-06
3.36519e-06
3.08021e-06
1.4682e-06
1.00248e-05
1.97889e-07
2.60728e-06
-2.74905e-06
-1.48045e-07
-5.92827e-07
-4.06676e-06
4.44239e-07
-1.53088e-06
-1.26691e-05
1.33604e-05
-1.08634e-06
1.61779e-05
6.40562e-06
1.34963e-05
-3.49355e-05
3.61226e-05
-1.25967e-05
3.22658e-05
3.25538e-05
3.70001e-06
-2.25712e-05
-1.14321e-05
-1.07477e-05
-1.22801e-05
4.42597e-05
7.24534e-07
4.92339e-06
6.26229e-07
2.39046e-05
-4.64901e-06
-1.39241e-05
-1.64175e-06
-1.93538e-05
-1.41172e-06
1.53294e-07
2.14004e-07
-7.5197e-07
2.51253e-06
-5.79427e-07
2.50432e-06
2.56931e-06
2.64277e-06
2.94176e-06
1.01393e-06
1.16536e-05
-9.68826e-07
4.59005e-06
-1.40959e-06
2.92729e-07
-1.08844e-06
-4.38791e-06
-6.44194e-07
-3.98604e-06
-8.68307e-06
2.82119e-05
-3.32843e-05
3.77854e-05
-3.16789e-06
2.05346e-05
-1.76847e-05
2.27823e-05
-1.48445e-05
4.04902e-05
1.48459e-05
1.3665e-05
4.25403e-06
-1.19012e-05
1.48184e-05
5.33921e-06
2.70194e-05
-4.47723e-06
1.47398e-05
8.52607e-06
1.09013e-05
-3.27655e-06
-2.12145e-06
-3.50077e-06
-1.91296e-05
-6.91232e-06
3.56484e-06
-5.78646e-06
-1.87783e-06
-2.0914e-06
-4.27449e-06
-7.13861e-07
1.19178e-06
3.35626e-07
1.89227e-06
-1.05059e-06
1.30399e-05
-3.10884e-06
6.6483e-06
-3.98839e-06
1.17228e-06
-1.39736e-06
-6.97893e-06
-2.04155e-06
-6.16451e-06
-2.51856e-06
2.88674e-05
-6.83162e-05
3.62263e-05
-1.05268e-05
3.24477e-05
-1.39061e-05
3.55202e-05
-1.79169e-05
2.07793e-05
2.95868e-05
1.86527e-05
6.38058e-06
-1.35777e-05
4.70489e-05
3.19715e-06
1.02445e-05
5.35389e-06
1.25831e-05
3.86358e-06
1.23916e-05
-4.44433e-06
6.18645e-06
-6.17313e-06
-1.74008e-05
-5.96369e-06
3.35541e-06
-5.8986e-06
-1.94293e-06
-5.26628e-06
-4.9068e-06
-1.76621e-06
-2.3083e-06
-8.86158e-07
1.01222e-06
-2.89765e-06
1.50514e-05
-4.55729e-06
8.30795e-06
-5.25653e-06
1.87153e-06
-3.73375e-06
-8.5017e-06
-5.7753e-06
1.71045e-05
-1.96231e-05
2.31688e-05
-7.43805e-05
2.54695e-05
-1.28276e-05
3.57805e-05
-2.42171e-05
1.29586e-05
4.90496e-06
1.30375e-05
2.95079e-05
1.55062e-05
3.91191e-06
3.6629e-06
5.88922e-05
1.10923e-05
2.81514e-06
-1.51218e-05
3.87972e-05
-5.76835e-06
3.03812e-06
1.28393e-09
4.16824e-07
-4.35435e-06
-1.30451e-05
-4.7537e-06
3.75476e-06
-1.1314e-05
4.61734e-06
-3.38726e-06
-1.28335e-05
1.94097e-07
-5.88966e-06
4.08235e-06
-2.87602e-06
4.00122e-07
1.87336e-05
-9.97185e-07
9.70526e-06
-1.38207e-06
2.25643e-06
-4.40205e-06
-5.48171e-06
-1.01774e-05
3.36087e-05
-5.32318e-05
2.82786e-05
-6.90504e-05
5.09678e-05
-3.55168e-05
4.5621e-05
-1.88703e-05
3.70398e-05
1.34862e-05
4.93598e-06
6.16117e-05
-1.15071e-06
9.99861e-06
6.54396e-06
5.11975e-05
3.04481e-05
-2.1089e-05
1.21595e-06
6.80293e-05
-5.60357e-07
4.81443e-06
1.73173e-06
-1.87526e-06
-1.11577e-06
-1.01976e-05
-1.15776e-05
1.42166e-05
-1.44531e-05
7.49288e-06
-8.98092e-06
-1.83057e-05
-1.65602e-06
-1.32146e-05
4.23427e-06
-8.7663e-06
-5.28078e-06
2.82486e-05
-1.73359e-06
6.15809e-06
1.15751e-06
-6.34676e-07
-1.1999e-05
7.67483e-06
-2.21764e-05
-7.42699e-05
7.42699e-05
-9.87367e-05
2.44668e-05
-0.000108925
1.01888e-05
-0.000115116
6.19064e-06
-0.000114182
-9.34461e-07
-0.000119009
4.82769e-06
-0.000116335
-2.67479e-06
-8.13353e-05
-3.49992e-05
-7.82202e-05
-3.11506e-06
-6.68926e-05
-1.13276e-05
-6.75713e-05
6.78731e-07
-0.000110094
4.25225e-05
-9.93629e-05
-1.07309e-05
-9.05907e-05
-8.77224e-06
-8.50405e-05
-5.5502e-06
-7.06224e-05
-1.44181e-05
-4.26442e-05
-2.79782e-05
-3.27849e-05
-9.85928e-06
-3.27851e-05
-2.83914e-05
0.000102661
-7.15573e-05
6.76327e-05
-9.06962e-05
2.93277e-05
-7.15187e-05
-1.29869e-05
-0.000107402
3.49491e-05
-0.000112433
9.85847e-06
-7.35599e-05
-4.15479e-05
-8.08878e-05
-2.76714e-05
-8.05793e-05
-3.42351e-06
-0.000117079
2.51718e-05
-0.000114196
-2.20354e-06
-7.32754e-05
1.60135e-06
-0.000100378
1.63722e-05
-9.49897e-05
-1.41609e-05
-6.33593e-05
-3.71806e-05
-8.60322e-05
8.25477e-06
-8.78237e-05
-2.61867e-05
-5.01455e-05
-4.75373e-05
-8.29306e-05
-2.09957e-05
0.000123657
-2.9359e-05
7.5996e-05
-3.21472e-05
3.21159e-05
-5.52115e-05
1.00774e-05
-9.56554e-05
7.5393e-05
-9.03298e-05
4.53292e-06
-0.000107306
-2.45719e-05
-0.000123427
-1.15497e-05
-0.000117461
-9.38961e-06
-0.000110971
1.86816e-05
-0.000108515
-4.6599e-06
-0.000105203
-1.71074e-06
-9.68783e-05
8.04765e-06
-8.96636e-05
-2.13757e-05
-9.74863e-05
-2.93579e-05
-9.44703e-05
5.23873e-06
-9.35307e-05
-2.71264e-05
-6.09949e-05
-8.00729e-05
-0.000143926
-1.61848e-05
0.000139842
-2.43605e-05
8.41717e-05
-5.25413e-05
6.02967e-05
-7.75085e-05
3.50447e-05
-4.41369e-05
4.20214e-05
-6.67354e-05
2.71313e-05
-8.40289e-05
-7.27833e-06
-6.96075e-05
-2.59712e-05
-0.000101157
2.21598e-05
-6.56481e-05
-1.68272e-05
-9.25368e-05
2.22287e-05
-9.02834e-05
-3.96417e-06
-5.12616e-05
-3.09741e-05
-8.20138e-05
9.37652e-06
-8.35395e-05
-2.78322e-05
-5.10029e-05
-2.72978e-05
-4.44323e-05
-3.36972e-05
-4.75928e-05
-7.69124e-05
-0.000191519
-1.62662e-05
0.000156108
-2.12873e-05
8.91928e-05
-2.3883e-05
6.28924e-05
-1.79963e-05
2.91579e-05
-3.5702e-05
5.97271e-05
-4.48177e-05
3.6247e-05
-4.97705e-05
-2.32552e-06
-9.90988e-05
2.33571e-05
-5.54529e-05
-2.1486e-05
-7.42977e-05
2.01763e-06
-5.26922e-05
6.23244e-07
-2.74459e-05
-2.92105e-05
-4.02389e-05
-1.8181e-05
-3.13662e-05
5.03764e-07
-5.85345e-05
-6.63906e-07
-6.56272e-05
-2.02051e-05
-5.35637e-05
-4.57606e-05
-2.16606e-05
-0.000108815
-0.000213179
-1.99582e-05
0.000176066
-2.46778e-05
9.39124e-05
-2.20956e-05
6.03102e-05
-1.96682e-05
2.67305e-05
-2.2491e-05
6.25499e-05
-2.97979e-05
4.3554e-05
-3.06803e-05
-1.4432e-06
-2.6741e-05
1.94178e-05
-1.68749e-05
-3.13522e-05
-8.58674e-07
-1.39986e-05
1.0682e-05
-1.09175e-05
1.36339e-05
-3.21624e-05
7.7441e-06
-1.22913e-05
-6.00209e-06
1.42499e-05
-3.27033e-05
2.60373e-05
-2.07514e-05
-3.2157e-05
-3.1997e-05
-3.4515e-05
-6.2196e-06
-0.000134593
-0.000219399
-3.62534e-05
0.000212319
-1.46795e-05
7.23384e-05
-2.32139e-05
6.88447e-05
-1.07892e-05
1.43057e-05
-9.18024e-06
6.09409e-05
-1.23181e-06
3.56056e-05
4.61517e-06
-7.29018e-06
1.89889e-05
5.0441e-06
2.21275e-05
-3.44909e-05
2.83921e-05
-2.02632e-05
2.55461e-05
-8.07148e-06
1.67861e-05
-2.34023e-05
1.73614e-05
-1.28666e-05
2.34928e-05
8.11838e-06
2.03752e-05
2.91549e-05
-7.62209e-06
-4.1597e-06
-9.66895e-06
-3.24683e-05
2.83608e-06
-0.000147098
-0.000216563
-4.02615e-05
0.000252581
-3.69434e-05
6.90203e-05
-2.5713e-05
5.76144e-05
-2.77407e-05
1.63335e-05
-1.92259e-06
3.51228e-05
3.16771e-06
3.05153e-05
1.87636e-05
-2.28861e-05
3.93102e-05
-1.55025e-05
4.52221e-05
-4.04028e-05
2.87255e-05
-3.76654e-06
2.87231e-05
-8.06912e-06
1.98018e-05
-1.4481e-05
1.78172e-05
-1.0882e-05
2.83115e-05
-2.37606e-06
4.99689e-05
7.4975e-06
2.11251e-05
2.46842e-05
2.91861e-05
-4.05293e-05
1.49076e-05
-0.000132819
-0.000201655
6.89201e-05
-0.000122152
8.87086e-05
-8.88389e-05
6.36659e-05
-1.04741e-05
-2.39116e-06
4.71867e-05
-1.0335e-05
2.143e-05
-3.62594e-06
5.49026e-05
-2.07005e-05
2.70732e-05
-2.98652e-06
3.34835e-05
-2.59708e-05
1.89528e-06
-4.06257e-05
8.26842e-05
-1.79301e-05
-1.78812e-05
-1.64746e-05
-3.33072e-06
-3.83561e-06
-2.28366e-05
-1.20574e-05
2.24384e-05
-5.88196e-06
1.31744e-06
1.52322e-06
-2.57109e-05
-9.40139e-06
-2.28995e-06
-1.30191e-05
-5.14857e-06
-1.65377e-05
3.17672e-05
-2.32664e-05
1.28868e-05
-3.8758e-05
1.48569e-05
-7.34322e-05
4.2349e-05
3.13582e-06
-9.87444e-05
9.63942e-06
-0.000131791
2.44978e-05
-0.000103697
5.71209e-06
8.3116e-06
-3.72895e-05
9.01883e-05
-3.24361e-05
1.65766e-05
-3.27408e-05
5.52073e-05
-1.2119e-05
6.4514e-06
1.45903e-05
6.77416e-06
2.07854e-05
-4.29973e-06
3.83971e-05
6.50725e-05
1.37147e-05
6.80122e-06
-3.27872e-05
4.31711e-05
7.39313e-06
-6.30169e-05
1.06437e-05
1.91878e-05
2.20434e-05
-1.00823e-05
4.14846e-05
-4.5152e-05
3.46119e-05
4.58275e-06
1.13215e-07
2.93501e-05
-5.87299e-05
9.06103e-05
-9.56026e-05
4.97596e-05
-0.00011714
3.63947e-05
-8.74231e-05
1.26317e-05
1.65593e-05
-0.000100847
-2.5272e-05
-0.000106519
-1.33868e-07
-0.000128835
-4.00975e-06
1.21875e-05
-4.62585e-05
0.000132437
-2.40484e-05
-5.63348e-06
-3.85862e-05
6.9745e-05
-3.64654e-05
4.33065e-06
-3.5033e-05
5.34175e-06
5.74729e-06
-4.508e-05
6.5299e-05
5.52078e-06
2.39095e-05
4.81907e-05
5.95014e-06
6.11305e-05
3.51546e-05
-9.22214e-05
3.96204e-05
1.47221e-05
1.34612e-05
1.60769e-05
-1.27493e-06
-3.04159e-05
-4.28615e-05
4.61693e-05
-4.0628e-05
2.71166e-05
-5.70271e-05
0.000107009
-9.73935e-05
9.01261e-05
-0.000109831
4.88317e-05
-0.00014044
4.32413e-05
2.16581e-05
-0.000145539
-8.95902e-06
-9.75604e-05
-6.87131e-05
-6.90813e-05
-5.74538e-05
9.28174e-07
2.48205e-05
5.01628e-05
-1.99898e-06
2.1186e-05
-1.22773e-05
8.00233e-05
-2.98727e-05
2.19261e-05
-4.34226e-05
1.88916e-05
-0.000101155
1.26526e-05
-3.63833e-05
-5.92511e-05
7.31542e-07
1.10758e-05
-5.77818e-06
6.76402e-05
-3.80159e-05
-5.99837e-05
-3.28583e-06
-2.0008e-05
-5.15411e-06
1.79452e-05
-3.46818e-05
-8.88286e-07
-1.93911e-05
3.08787e-05
-4.67592e-05
5.44848e-05
-1.70264e-05
7.72765e-05
-5.7994e-06
7.88991e-05
-8.38018e-06
5.14125e-05
-1.87977e-05
5.36589e-05
4.13904e-05
-3.853e-05
-3.17274e-06
-9.43877e-05
-3.34782e-05
-3.87758e-05
-1.5255e-05
-1.72951e-05
-1.26907e-05
4.75985e-05
-2.17018e-05
3.01971e-05
-1.58291e-05
7.41505e-05
-8.92723e-06
1.50243e-05
-5.79626e-06
1.57607e-05
1.12715e-07
6.74359e-06
4.63119e-06
-6.37696e-05
4.54346e-06
1.11635e-05
3.44834e-05
3.77003e-05
2.3708e-05
-4.92083e-05
2.63884e-05
-2.26884e-05
2.87786e-05
1.55549e-05
9.47693e-06
1.84134e-05
-1.09996e-05
5.13552e-05
-1.83186e-05
6.18038e-05
-5.19982e-06
6.41577e-05
1.28789e-05
6.08205e-05
-6.06507e-06
7.03564e-05
3.10764e-05
1.65174e-05
-2.1335e-05
9.38019e-05
-4.37631e-05
-5.06246e-05
-5.1085e-05
-3.14539e-05
-5.31539e-05
-1.52261e-05
-2.29809e-05
1.74254e-05
-3.3078e-05
4.02942e-05
-2.15324e-05
6.2605e-05
-1.96994e-05
1.31913e-05
-2.58957e-05
2.1957e-05
-1.27145e-05
-6.4377e-06
-5.68191e-05
-1.96649e-05
-3.0006e-05
-1.56496e-05
-9.50769e-06
1.7202e-05
-8.73676e-06
-4.99792e-05
-1.25365e-06
-3.01715e-05
2.31813e-07
1.40695e-05
-2.06519e-05
3.92971e-05
-4.69493e-05
7.76526e-05
-8.20467e-05
9.69012e-05
-8.00607e-05
6.21717e-05
-6.12475e-05
4.20073e-05
-5.42832e-05
6.33922e-05
-1.84794e-05
-1.92864e-05
-5.36853e-05
1.38708e-05
-4.73205e-05
-3.30417e-06
-5.78031e-05
-2.09713e-05
-6.5179e-05
-7.8502e-06
-4.54423e-05
-2.31135e-06
-2.4304e-05
1.91559e-05
8.65552e-06
2.96455e-05
8.99599e-06
1.28508e-05
-2.86588e-05
5.96117e-05
-4.00185e-05
4.92205e-06
-5.02441e-05
-9.43932e-06
-4.72085e-05
-1.86852e-05
-2.99387e-05
-6.79203e-08
-5.30218e-05
-2.6896e-05
-4.25955e-05
-4.05978e-05
-7.99354e-05
5.14094e-05
-0.000103714
6.30752e-05
-0.000115196
8.91353e-05
-0.000141209
0.000122915
-0.000130687
5.1649e-05
-9.39929e-05
5.31359e-06
-3.46772e-05
4.0766e-06
-1.46666e-05
-3.92969e-05
-5.79215e-05
-1.04304e-05
-5.52864e-05
5.19822e-05
-8.25562e-05
6.29845e-06
-6.12933e-05
-2.91131e-05
-4.76332e-05
-1.59714e-05
-3.80167e-05
9.53935e-06
9.55545e-07
-9.32682e-06
1.73466e-05
-3.54035e-06
1.11757e-05
6.57826e-05
-1.37925e-05
2.98902e-05
-3.47524e-05
1.15206e-05
-5.70171e-05
3.5795e-06
-5.50747e-05
-2.01026e-06
-8.21996e-05
2.28889e-07
-0.000126981
4.18336e-06
-0.000135852
6.02803e-05
-0.000122905
5.01284e-05
-0.000116724
8.29548e-05
-8.61272e-05
9.23175e-05
-0.000102568
6.809e-05
-6.98189e-05
-2.74356e-05
-4.6423e-05
-1.93192e-05
-4.57341e-05
-3.99858e-05
-5.09622e-05
-5.26934e-05
-1.72258e-05
6.9208e-05
-2.88636e-05
1.79362e-05
-4.21013e-05
-1.58754e-05
-5.08522e-05
-7.22049e-06
-2.21119e-05
-1.9201e-05
-4.63072e-06
-2.6808e-05
1.32084e-05
-2.13795e-05
4.47691e-05
3.42219e-05
1.83436e-05
5.63158e-05
-6.14341e-05
9.12983e-05
-0.000132291
7.44367e-05
-0.000160489
2.61875e-05
-0.000169678
9.4184e-06
-0.000183049
1.75537e-05
-0.000159936
3.71675e-05
-0.000151219
4.14114e-05
-0.000137355
6.90915e-05
-0.000120449
7.54108e-05
-8.37214e-05
3.13629e-05
-6.99707e-05
-4.11861e-05
-7.23775e-05
-1.69122e-05
-9.07825e-05
-2.15808e-05
-3.58987e-05
-0.000105846
-2.97188e-05
9.89268e-05
-3.25708e-05
2.07882e-05
-3.47958e-05
-1.36504e-05
-3.06988e-05
-1.13174e-05
-2.40009e-05
-2.5899e-05
-4.52918e-06
-4.62797e-05
6.88887e-06
-3.27976e-05
3.43385e-05
6.77225e-06
2.02797e-06
8.86263e-05
-4.45137e-05
0.00013784
-8.51336e-05
0.000115057
-0.000103
4.40537e-05
-0.000131695
3.81132e-05
-0.000184233
7.00926e-05
-0.000212252
6.51867e-05
-0.000228343
5.7502e-05
-0.000175424
1.61723e-05
-0.000131169
3.11562e-05
-0.000107968
8.16197e-06
-0.000142738
-6.41507e-06
-0.000142405
-1.72457e-05
-0.000154105
-9.88123e-06
-1.64004e-05
-0.000173604
-3.43505e-06
0.000102362
-3.80642e-05
5.54173e-05
-4.28999e-05
-8.81471e-06
-1.79341e-05
-3.62833e-05
-6.50065e-06
-3.73324e-05
-2.06334e-05
-3.21469e-05
-2.02726e-05
-3.31583e-05
-3.17746e-05
1.82743e-05
-4.23232e-05
9.91749e-05
-6.76823e-05
0.000163199
-9.30783e-05
0.000140453
-0.000144269
9.52447e-05
-0.000190981
8.48254e-05
-0.000227635
0.000106746
-0.000190927
2.84792e-05
-0.000180686
4.726e-05
-0.0001978
3.3286e-05
-0.00017029
3.64636e-06
-0.000151121
-1.10064e-05
-0.00016691
9.37463e-06
-0.000216677
3.25213e-05
-0.000227309
7.50954e-07
-2.69736e-05
-0.000216735
2.08891e-05
8.14726e-05
1.32347e-05
6.30718e-05
-3.70252e-06
8.1225e-06
-1.97315e-05
-2.02543e-05
-3.50207e-05
-2.20432e-05
-4.6689e-05
-2.04786e-05
-6.40915e-05
-1.57558e-05
-8.94973e-05
4.36801e-05
-9.88335e-05
0.000108511
-8.30313e-05
0.000147397
-9.58779e-05
0.000153299
-7.55741e-05
7.4941e-05
-0.000110052
0.000119303
-0.000163205
0.0001599
-0.000212831
7.81048e-05
-0.000177671
1.20998e-05
-0.000192448
4.80635e-05
-0.000206299
1.74975e-05
-0.000231472
1.41662e-05
-0.000235899
1.38023e-05
-0.000225719
2.23412e-05
-0.000221162
-3.80651e-06
-1.71908e-05
-0.000230945
2.50476e-05
5.6425e-05
2.20133e-05
6.6106e-05
-8.23243e-06
3.83683e-05
-3.08777e-05
2.39092e-06
-5.91193e-05
6.19838e-06
-8.22478e-05
2.65e-06
-0.000110114
1.21106e-05
-8.89026e-05
2.24685e-05
-9.87917e-05
0.0001184
-0.000104393
0.000152998
-0.0001314
0.000180307
-0.000247233
0.000190774
-0.000305453
0.000177522
-0.000241608
9.60557e-05
-0.000279675
0.000116171
-0.000356146
8.85711e-05
-0.000352165
4.40822e-05
-0.000344147
9.48016e-06
-0.000344039
1.4058e-05
-0.000332196
1.95911e-06
-0.000310035
1.80674e-07
-0.000280373
-3.34681e-05
-7.2873e-05
-0.000224691
1.23405e-05
4.40845e-05
1.10067e-05
6.74397e-05
7.12266e-07
4.86627e-05
-2.5425e-05
2.85282e-05
-3.76323e-05
1.84058e-05
-8.0898e-05
4.59157e-05
-0.000113558
4.47707e-05
-0.000160982
6.98929e-05
-0.000115597
7.30152e-05
-0.000161666
0.000199066
-0.000212246
0.000230887
-0.000283112
0.00026164
-0.000319134
0.000213544
-0.000365009
0.000141931
-0.000324616
7.57785e-05
-0.000245631
9.58648e-06
-0.00022332
2.17708e-05
-0.000278467
6.46276e-05
-0.000277124
1.27149e-05
-0.000254004
-2.11614e-05
-0.000201931
-5.18918e-05
-0.000141425
-9.39748e-05
-9.68126e-05
-0.000117485
-4.14658e-06
4.82311e-05
7.83075e-07
6.251e-05
-8.54011e-06
5.79859e-05
-2.39036e-05
4.38916e-05
-6.63614e-05
6.08636e-05
-8.37922e-05
6.33467e-05
-8.70652e-05
4.80438e-05
-0.000112206
9.50338e-05
-0.000122617
8.34257e-05
-0.000130767
0.000207216
-0.000132499
0.000232618
-0.000153351
0.000282492
-0.000134485
0.000194678
-0.000208634
0.000216079
-0.000198059
6.52034e-05
-0.000264947
7.64746e-05
-0.000273942
3.07658e-05
-0.000177772
-3.15424e-05
-0.000137596
-2.74614e-05
-0.000155004
-3.75316e-06
-0.000129128
-7.77674e-05
-0.000131996
-9.11073e-05
-8.34386e-05
-0.00014537
5.13209e-06
4.3099e-05
-1.21285e-06
6.88549e-05
-9.22131e-06
6.59943e-05
-2.85417e-05
6.3212e-05
-3.37567e-05
6.60787e-05
-3.86869e-05
6.8277e-05
-8.14048e-05
9.07618e-05
-4.21533e-05
5.57821e-05
-9.12206e-05
0.000132493
-8.19652e-05
0.000197961
-1.96795e-06
0.000152621
3.93312e-05
0.000241193
-1.76531e-05
0.000251662
-3.09685e-05
0.000229395
-6.47416e-05
9.89763e-05
-0.000107953
0.000119686
-0.000110805
3.36184e-05
-0.000109113
-3.3235e-05
-9.10018e-05
-4.55723e-05
-8.13925e-05
-1.33625e-05
-0.000105615
-5.35448e-05
-0.000116954
-7.9768e-05
-9.17543e-05
-0.000108638
-8.90732e-06
5.20063e-05
3.27169e-06
5.66759e-05
-6.22977e-06
7.54957e-05
-1.8249e-05
7.52312e-05
-2.77542e-05
7.5584e-05
-2.33584e-05
6.38813e-05
-3.0132e-05
9.75356e-05
-6.91882e-05
9.48383e-05
-2.6694e-05
8.99979e-05
-7.22767e-06
0.000178494
5.63712e-06
0.000139757
4.07337e-05
0.000206096
2.5384e-05
0.000267012
0.000103586
0.000151193
7.76765e-05
0.000124886
5.11825e-05
0.00014618
5.77044e-05
2.70965e-05
2.53664e-05
-8.9715e-07
-9.07089e-06
-1.11351e-05
-1.43911e-05
-8.04226e-06
-4.91371e-05
-1.87985e-05
-8.3901e-05
-4.50036e-05
-3.65423e-05
-0.000139112
-1.79429e-06
5.38005e-05
-1.79446e-05
7.28262e-05
-4.65562e-06
6.22067e-05
-1.45428e-05
8.51184e-05
-1.70871e-05
7.81283e-05
-4.2803e-05
8.95973e-05
-4.76658e-05
0.000102399
-2.22358e-05
6.94083e-05
-2.08238e-05
8.85856e-05
4.30153e-07
0.000157239
-3.19301e-05
0.000172117
3.82199e-05
0.000135946
6.90729e-05
0.000236159
0.000104198
0.000116067
0.00013467
9.44142e-05
0.000123957
0.000156893
8.4761e-05
6.62918e-05
5.62542e-05
2.76095e-05
4.89514e-05
-3.83239e-06
3.14609e-05
9.44841e-06
1.483e-05
-2.16719e-06
-1.65605e-05
-1.36127e-05
7.99118e-06
-6.10936e-05
-5.30341e-06
5.91039e-05
6.22411e-06
6.12986e-05
-1.38548e-05
8.22855e-05
-2.25767e-05
9.38403e-05
-8.72866e-06
6.42802e-05
-1.95475e-05
0.000100416
-1.54699e-05
9.8321e-05
-1.23112e-05
6.62497e-05
-3.44216e-05
0.000110696
-2.08402e-05
0.000143658
-9.88112e-07
0.000152265
1.7253e-05
0.000117705
6.98079e-05
0.000183604
7.45862e-05
0.000111288
8.69301e-05
8.207e-05
0.000121876
0.000121946
8.88036e-05
9.93642e-05
8.64879e-05
2.99249e-05
6.81776e-05
1.44779e-05
5.52323e-05
2.2394e-05
3.30828e-05
1.99827e-05
3.84679e-06
1.56239e-05
3.76053e-05
-2.57668e-05
-3.87578e-06
6.29797e-05
-9.77597e-06
6.71988e-05
1.23671e-06
7.12728e-05
-8.43357e-06
0.000103511
-1.7643e-05
7.34895e-05
-1.62487e-05
9.90218e-05
-8.38276e-06
9.04551e-05
-3.39542e-05
9.18211e-05
-2.29942e-05
9.97361e-05
2.14064e-06
0.000118523
1.97374e-05
0.000134667
4.61471e-06
0.000132827
7.60587e-05
0.00011216
0.000103762
8.35845e-05
6.24179e-05
0.000123414
9.21782e-05
9.21855e-05
0.000105625
8.59169e-05
8.1685e-05
5.38651e-05
7.92067e-05
1.69562e-05
5.94553e-05
4.21457e-05
4.25122e-05
3.69262e-05
1.99838e-05
3.81529e-05
5.64343e-05
1.15548e-06
-1.39214e-06
6.43718e-05
-5.38902e-06
7.11956e-05
-7.32076e-06
7.32045e-05
9.78869e-06
8.64011e-05
-2.05048e-05
0.000103783
-1.55634e-05
9.40803e-05
-1.26847e-05
8.75764e-05
-1.20762e-05
9.12126e-05
-1.52899e-05
0.00010295
2.63157e-05
7.69172e-05
2.76916e-05
0.000133291
5.22157e-05
0.000108303
4.86733e-05
0.000115702
2.75623e-05
0.000104695
5.2777e-05
9.81987e-05
8.51199e-05
5.98425e-05
8.73356e-05
8.3701e-05
6.476e-05
7.64407e-05
4.13783e-05
4.0338e-05
2.40674e-05
5.94568e-05
3.28319e-05
2.81622e-05
3.28972e-05
3.80881e-05
7.28765e-05
1.64557e-05
2.54357e-06
6.18282e-05
1.6969e-06
7.20422e-05
2.06841e-06
7.28329e-05
-2.21468e-05
0.000110616
-1.72401e-05
9.88761e-05
-2.58945e-05
0.000102735
-7.64466e-06
6.93266e-05
-1.45871e-05
9.8155e-05
1.70698e-05
7.12928e-05
1.93713e-05
7.46157e-05
2.92974e-05
0.000123365
2.51391e-05
0.000112461
3.07143e-05
0.000110126
4.67637e-05
8.86458e-05
4.74296e-05
9.75327e-05
4.03226e-05
6.69495e-05
7.43532e-05
4.96704e-05
6.09317e-05
8.98622e-05
5.45383e-05
4.67314e-05
4.25876e-05
7.14076e-05
2.82069e-05
4.25432e-05
1.82297e-05
4.80656e-05
5.6202e-05
3.49048e-05
1.35823e-05
4.82459e-05
-3.09098e-06
8.87153e-05
-2.21064e-05
9.18482e-05
-1.3577e-05
0.000102087
-1.96944e-05
0.000104993
-1.15677e-05
9.46079e-05
-1.72053e-05
7.49642e-05
1.29032e-05
6.80465e-05
1.29244e-05
7.12715e-05
2.16757e-05
6.58644e-05
2.4833e-05
0.000120208
2.35505e-05
0.000113743
2.43757e-05
0.000109301
5.79809e-05
5.50405e-05
5.88103e-05
9.67033e-05
3.13889e-05
9.43708e-05
3.44108e-05
4.66485e-05
5.1676e-05
7.25971e-05
2.64784e-05
7.19291e-05
3.54043e-05
6.24819e-05
2.99582e-05
4.79895e-05
3.06415e-05
4.73825e-05
4.34851e-05
4.33588e-05
-4.51691e-06
5.27628e-05
-4.7145e-06
8.89128e-05
-6.74219e-06
9.38758e-05
-7.69831e-06
0.000103043
-7.17414e-06
0.000104469
1.75937e-05
6.984e-05
-5.00824e-06
9.7566e-05
-4.9623e-07
6.35344e-05
8.84328e-06
6.19319e-05
1.62983e-05
5.84094e-05
2.28523e-05
0.000113654
2.89363e-05
0.000107659
3.55675e-05
0.00010267
3.03731e-05
6.02349e-05
3.2356e-05
9.47204e-05
6.01668e-05
6.65601e-05
3.33817e-05
7.34336e-05
4.20718e-05
6.3907e-05
4.43702e-05
6.96307e-05
3.0845e-05
7.60071e-05
3.42513e-05
4.45833e-05
3.86898e-05
4.29442e-05
4.47308e-05
3.74444e-05
-4.80787e-06
5.75706e-05
-5.35361e-06
8.94584e-05
-4.72703e-06
9.32491e-05
-6.19307e-06
0.000104509
-7.90398e-07
9.90663e-05
1.72568e-06
6.73238e-05
5.06369e-06
9.4228e-05
5.04814e-06
6.35498e-05
1.1918e-05
5.5062e-05
1.28901e-05
5.74372e-05
1.90074e-05
0.000107536
2.62217e-05
0.000100445
3.49123e-05
9.39794e-05
4.14932e-05
5.3654e-05
4.44623e-05
9.17513e-05
3.22995e-05
7.87229e-05
2.84355e-05
7.72976e-05
5.12204e-05
4.11221e-05
4.51653e-05
7.56858e-05
5.30544e-05
6.8118e-05
5.64556e-05
4.11823e-05
5.59156e-05
4.34842e-05
4.40956e-05
5.65509e-05
-1.69999e-05
7.45704e-05
-6.29235e-06
7.87507e-05
-2.40845e-06
8.93652e-05
4.5816e-06
9.75187e-05
1.44117e-05
8.92362e-05
-3.60503e-07
8.20959e-05
4.79955e-06
8.90678e-05
6.67819e-06
6.16711e-05
1.33949e-05
4.83453e-05
1.88088e-05
5.20232e-05
2.71792e-05
9.91661e-05
3.56151e-05
9.20088e-05
4.31929e-05
8.64015e-05
1.75536e-05
7.92933e-05
3.00106e-05
7.92943e-05
5.69654e-05
5.1768e-05
5.71947e-05
7.70683e-05
3.13704e-05
6.69464e-05
5.12699e-05
5.57864e-05
5.96767e-05
5.97112e-05
3.9341e-05
6.1518e-05
5.35239e-05
2.93014e-05
6.51959e-05
3.24236e-05
-1.72595e-06
7.62963e-05
-2.25301e-06
7.92777e-05
-3.33627e-07
8.74457e-05
5.35447e-06
9.18306e-05
5.83292e-06
8.87576e-05
1.27931e-05
7.51357e-05
1.92432e-05
8.26176e-05
1.74679e-06
7.91675e-05
6.85168e-06
4.32403e-05
1.44863e-05
4.43886e-05
2.08037e-05
9.28487e-05
2.72969e-05
8.55156e-05
2.19277e-05
9.17707e-05
4.61277e-05
5.50932e-05
5.00055e-05
7.54165e-05
2.60921e-05
7.56814e-05
3.86673e-05
6.4493e-05
4.1871e-05
6.37427e-05
3.35307e-05
6.41267e-05
6.18142e-05
3.14277e-05
6.21619e-05
6.11703e-05
3.79661e-05
5.34972e-05
4.9607e-05
5.3555e-05
-1.54222e-06
7.78385e-05
-1.04097e-06
7.87764e-05
1.42368e-06
8.4981e-05
5.71843e-06
8.75357e-05
8.71423e-06
8.57617e-05
7.95162e-06
7.58983e-05
7.22895e-06
8.33402e-05
1.16069e-05
7.47894e-05
9.53651e-06
4.53107e-05
1.18846e-05
4.20404e-05
2.26979e-05
8.20353e-05
2.46557e-05
8.35578e-05
3.80835e-05
7.83428e-05
1.38476e-05
7.93291e-05
4.06097e-05
4.86544e-05
4.33472e-05
7.29439e-05
3.91326e-05
6.87076e-05
2.59938e-05
7.68815e-05
5.05371e-05
3.95834e-05
3.86609e-05
4.33039e-05
3.63239e-05
6.35073e-05
5.97851e-05
3.00358e-05
6.28928e-05
4.64993e-05
-5.50514e-07
7.83889e-05
3.154e-09
7.82227e-05
2.81302e-06
8.2171e-05
6.18733e-06
8.41613e-05
9.48651e-06
8.24625e-05
1.06667e-05
7.4718e-05
1.43447e-05
7.96622e-05
1.31682e-05
7.59659e-05
1.45901e-05
4.38888e-05
1.39348e-05
4.26956e-05
2.5584e-05
7.0386e-05
3.26949e-05
7.64469e-05
2.67136e-05
8.43241e-05
3.90052e-05
6.70375e-05
1.97348e-05
6.79248e-05
3.43526e-05
5.8326e-05
3.502e-05
6.80402e-05
4.96645e-05
6.22369e-05
5.33808e-05
3.58671e-05
3.06951e-05
6.59895e-05
4.4604e-05
4.95984e-05
3.66737e-05
3.7966e-05
3.78347e-05
6.17318e-05
-3.61373e-07
7.87503e-05
1.02382e-06
7.68374e-05
2.86416e-06
8.03306e-05
5.29428e-06
8.17311e-05
7.4409e-06
8.03158e-05
7.05641e-06
7.51024e-05
1.36327e-05
7.30859e-05
1.06269e-05
7.89716e-05
1.10316e-05
4.3484e-05
7.79046e-06
4.59367e-05
3.03285e-05
4.78479e-05
2.38914e-05
8.28839e-05
3.3338e-05
7.48774e-05
3.00878e-05
7.02877e-05
2.1601e-05
7.64115e-05
4.32063e-05
3.67206e-05
4.28004e-05
6.84461e-05
4.75702e-05
5.74671e-05
2.66147e-05
5.68225e-05
4.41144e-05
4.84898e-05
6.26608e-05
3.10519e-05
3.97983e-05
6.08284e-05
2.6173e-05
5.14599e-05
1.8768e-07
7.85626e-05
2.18392e-06
7.48411e-05
3.92848e-06
7.8586e-05
5.43387e-06
8.02257e-05
6.55619e-06
7.91934e-05
7.39151e-06
7.42671e-05
1.4751e-05
6.57263e-05
1.77076e-05
7.6015e-05
1.76803e-05
4.35113e-05
1.84816e-05
4.51353e-05
1.5677e-05
5.06525e-05
1.79978e-05
8.05631e-05
2.11901e-05
7.16852e-05
2.12538e-05
7.02239e-05
3.03964e-05
6.72689e-05
2.63999e-05
4.07171e-05
3.47748e-05
6.00712e-05
3.01122e-05
6.21297e-05
4.13837e-05
4.55509e-05
3.47677e-05
5.51057e-05
3.45847e-05
3.12349e-05
5.62585e-05
3.91545e-05
4.66447e-05
3.57868e-05
8.32892e-07
7.77296e-05
1.80733e-06
7.38666e-05
4.1134e-06
7.62799e-05
3.66571e-06
8.06734e-05
2.79731e-06
8.00618e-05
1.99878e-06
7.50656e-05
2.05792e-05
4.7146e-05
1.70085e-05
7.95856e-05
1.70372e-05
4.34825e-05
2.24186e-05
3.9754e-05
8.94057e-06
6.41305e-05
2.17055e-05
6.77981e-05
2.52052e-05
6.81854e-05
3.19657e-05
6.34634e-05
3.14865e-05
6.7748e-05
3.1852e-05
4.03516e-05
3.34278e-05
5.84954e-05
3.35693e-05
6.19881e-05
2.48741e-05
5.42461e-05
4.73823e-05
3.25975e-05
4.75316e-05
3.10855e-05
4.11008e-05
4.55853e-05
3.83537e-05
4.93917e-05
1.68079e-06
7.60488e-05
2.75858e-06
7.27888e-05
3.43672e-06
7.56017e-05
4.94252e-06
7.91675e-05
6.82621e-06
7.81781e-05
1.03302e-05
7.15617e-05
1.43544e-05
4.31217e-05
1.88905e-05
7.50495e-05
1.81111e-05
4.42619e-05
1.52667e-05
4.25984e-05
1.59476e-05
6.34496e-05
2.22504e-05
6.14952e-05
1.92667e-05
7.11691e-05
2.2281e-05
6.0449e-05
3.01064e-05
5.99225e-05
1.05907e-05
5.98673e-05
3.13656e-05
3.77204e-05
2.47717e-05
6.8582e-05
4.8778e-05
3.02398e-05
2.45066e-05
5.68689e-05
3.33152e-05
2.22769e-05
3.20273e-05
4.68732e-05
2.78689e-05
4.25119e-05
2.02819e-06
7.40206e-05
3.22723e-06
7.15898e-05
5.10506e-06
7.37239e-05
5.78295e-06
7.84897e-05
9.45678e-06
7.45043e-05
1.24635e-05
6.8555e-05
1.84961e-05
3.7089e-05
2.88432e-05
6.47025e-05
1.30239e-05
6.00812e-05
-3.51309e-06
5.91354e-05
1.53247e-05
4.46118e-05
1.69809e-05
5.9839e-05
2.43752e-05
6.37747e-05
1.95338e-05
6.52904e-05
2.11241e-05
5.83322e-05
3.3266e-05
4.77254e-05
1.74395e-05
5.35468e-05
2.81656e-05
5.78558e-05
2.65528e-05
3.18525e-05
3.99638e-05
4.34579e-05
2.40334e-05
3.82073e-05
3.59122e-05
3.49943e-05
2.39413e-05
3.98398e-05
1.00482e-06
7.30158e-05
2.12347e-06
7.04712e-05
4.20735e-06
7.164e-05
3.45404e-06
7.9243e-05
9.68235e-06
6.8276e-05
7.75233e-06
7.0485e-05
7.92655e-06
3.69148e-05
1.48118e-05
5.78172e-05
1.18228e-05
6.30702e-05
1.59586e-05
5.49995e-05
1.27289e-06
5.92975e-05
2.15949e-05
3.9517e-05
1.81361e-05
6.72335e-05
2.48995e-05
5.85269e-05
2.57608e-05
5.74709e-05
1.87186e-05
5.47675e-05
2.24039e-05
4.98615e-05
3.50259e-05
4.52338e-05
1.67832e-05
5.00952e-05
1.71885e-05
4.30526e-05
3.42505e-05
2.11453e-05
2.63471e-05
4.28976e-05
1.29195e-05
3.73689e-05
5.79763e-07
7.24361e-05
2.63602e-06
6.84149e-05
3.22185e-06
7.10542e-05
2.58267e-06
7.98822e-05
6.67991e-06
6.41788e-05
5.5467e-06
7.16182e-05
2.20804e-06
4.02535e-05
1.80587e-05
4.19665e-05
1.17086e-05
6.94203e-05
9.1843e-06
5.75238e-05
1.23027e-05
5.6179e-05
1.22806e-05
3.95391e-05
2.16531e-05
5.7861e-05
2.30144e-05
5.71655e-05
2.37695e-05
5.67158e-05
2.38496e-05
5.46873e-05
1.77076e-05
5.60035e-05
1.76555e-05
4.52858e-05
1.64696e-05
5.1281e-05
3.15482e-05
2.7974e-05
2.50882e-05
2.76053e-05
3.30259e-05
3.49599e-05
2.53742e-05
2.05712e-05
-6.33818e-08
7.24994e-05
2.74008e-06
6.56115e-05
-1.44371e-08
7.38088e-05
-2.25662e-06
8.21244e-05
1.45323e-05
4.73899e-05
9.06352e-06
7.7087e-05
9.08758e-06
4.02294e-05
6.10856e-06
4.49455e-05
4.12814e-06
7.14008e-05
1.95739e-05
4.2078e-05
1.14741e-05
6.42789e-05
1.52718e-05
3.57414e-05
1.8847e-05
5.42858e-05
1.99761e-05
5.60364e-05
2.11227e-05
5.55693e-05
2.15307e-05
5.42792e-05
2.51865e-05
5.23478e-05
2.05548e-05
4.99174e-05
2.18023e-05
5.00336e-05
2.86185e-05
2.11577e-05
1.53567e-05
4.08672e-05
2.36644e-05
2.66522e-05
2.70886e-05
2.195e-05
-1.81609e-08
7.25176e-05
2.19268e-06
6.34007e-05
2.13418e-06
7.38673e-05
4.60151e-06
7.96571e-05
4.84318e-06
4.71482e-05
7.65374e-06
7.42765e-05
6.86205e-06
4.10211e-05
7.67751e-06
4.41301e-05
8.8965e-06
7.01818e-05