/*--------------------------------*- C++ -*----------------------------------*\
| =========                 |                                                 |
| \\      /  F ield         | foam-extend: Open Source CFD                    |
|  \\    /   O peration     | Version:     4.1                                |
|   \\  /    A nd           | Web:         http://www.foam-extend.org         |
|    \\/     M anipulation  |                                                 |
\*---------------------------------------------------------------------------*/
FoamFile
{
    version     2.0;
    format      ascii;
    class       volScalarField;
    location    "0.75";
    object      psi;
}
// * * * * * * * * * * * * * * * * * * * * * * * * * * * * * * * * * * * * * //

dimensions      [1 -1 -2 0 0 0 0];

internalField   nonuniform List<scalar> 
2268
(
-2067.43
216.678
-2799.81
-2078.25
-1109.01
-2493.29
428.428
-2527.22
-1550.81
-233.81
-30.5822
-14.9817
-6.26741
-4.73296
-3.24899
-1.40209
-0.587038
-1.18386
-13.426
-56.0515
-124.631
-475.657
-1282.2
-1820.08
1314.86
-2691.92
-2136.64
-1577.59
-2623.18
-1568.41
-1995.37
-2634.44
-1031.68
-373.29
-103.399
-24.5856
-9.7782
-5.01565
-3.25117
-1.80758
-0.871669
-2.78327
-2.94982
-8.12459
-106.91
-624.971
-1346.13
1733.03
971.908
1123.57
-2263.91
-2818.12
-2236.51
-2587.86
-2270.1
-2546.02
-951.64
-201.306
-40.8318
-16.1753
-8.44854
-5.36539
-3.32415
-1.34636
-0.835256
-1.44903
-19.1556
-100.715
-239.835
-1802.7
1966.21
2222.26
1205.08
-2151.12
-2805.54
-2252.06
-2798.76
-2815.85
838.994
-2815.68
-463.186
-63.3547
-29.4312
-26.0604
-18.847
-17.1031
-13.0311
-4.26675
-3.74404
-15.1234
-114.343
-236.432
-2346.58
69.2052
930.735
2066.7
2164.41
-2011.97
-1143.84
-2638.37
-2410.26
2640.82
-2825.66
-1123.67
-156.885
-78.9608
-93.4644
-94.2511
-49.8232
-47.3595
-38.3319
-13.8428
-60.3797
-264.449
-362.635
-2076.06
2487.51
2171.5
2434.34
2615.52
891.838
653.351
-2255.49
-1960.97
2486.07
-2835.35
-1205.52
-322.862
-196.233
-253.349
-195.53
-142.08
-398.088
-325.109
-95.0964
-264.855
-812.142
-1121.05
1263.64
2834.43
2856.76
2857.42
2850.58
770.557
1638.89
-1862.77
-2043.56
-218.987
-2857.66
-1510.08
-581.56
-516.458
-605.931
-540.454
-637.891
-2128.17
-1760.31
-629.13
-561.752
-1837.47
-2636.73
2824.43
2750.98
2809.54
2839.2
2856.28
2082.52
2271.25
-2265.25
1080.56
1621.92
-2695.08
-1240.95
-830.35
-745.152
-709.992
-880.225
-1259.5
-2807.11
-2856.99
-2039.06
-1399.32
-2691.95
-2215.14
-1747.24
-2070.64
-2126.04
-2140.1
-2141.9
-2136.19
-2132.76
-2144.25
-2103.13
-2152.67
-2146.51
-1994.5
-1666.35
-1325.36
-811.39
-370.191
-131.058
-84.3296
494.978
-1511.75
-1351.36
-1367.06
-1977.84
-2230.71
-2213.29
-2159.43
-2317.95
-2233.94
-2104.67
-1933.93
-1689.63
-928.054
-506.246
-276.84
302.562
747.884
694.534
516.674
-1217.29
-577.363
85.4095
-1262.17
-2035.38
-1651.42
-1493.87
-2023.18
-1940.34
-1451.69
-647.038
-205.783
102.937
333.356
-217.175
-419.937
-350.403
-1307.26
-1834.05
-891.521
669.117
1452.88
-954.179
-1829.83
-81.6928
578.926
-863.036
-916.348
359.455
1210.4
2133.3
2330.2
808.202
-121.823
-1059.87
-1518.87
-2102.19
-2552.61
-556.895
1388.06
1985.88
1029.59
-452.678
1694.96
1893.04
501.898
1493.92
2434.55
2543.17
2834.58
2786.72
2639.28
723.19
-1161.8
-1687.74
-1787.28
-2610.72
-176.866
1970.94
2398.32
2418.66
2081.45
2841.03
2846.64
2002.12
2840.73
2825.88
2857.25
2737.94
2580.15
2640.96
2417.91
770.852
-627.575
-987.608
-2635.4
228.641
2554.32
2856.67
2757.88
2657.99
2853.3
2544.86
2794.91
2741.43
2729.74
2678.99
2580.25
2537.17
2522.45
2774.61
2413.86
627.433
-849.455
-2657.64
873.503
2848.5
2825.31
2813.21
2316.17
2857.19
2440.57
2530.94
2852.06
2853.03
2854.55
2857.28
2853.4
2751.17
2776.07
2849.24
1597.33
-866.685
-2683.56
2217.84
2551.01
2736.87
2857.61
2740.33
583.305
2035.84
-1456.95
2033.37
-1422
-2590.56
-1606.8
-1645.15
-1090.76
-1410.93
-2465.33
-2299.88
-2244.7
-1641.82
-2830.8
-2745.39
-2700.33
44.0047
1349.69
2513.49
2837.53
2825.21
2678.52
1177.06
2685.62
711.691
2856.85
1603.88
2313.37
-2654.66
-2754.42
-2035.92
-2460.5
-1149.79
-2459.17
-2130.78
-917.606
-2614.6
-2839.41
-2832.09
-2660.29
952.012
2702.92
2803.18
2625.43
2829.59
2492.97
2816.86
2340.47
2675.04
2542.84
2456.52
-2309.51
1454.91
-2846.01
-2572.37
2763.85
2091.03
810.466
1098.83
-1942.12
-2326.85
-1937.71
-1417.47
579.012
1804.96
2734.22
1844.95
2639.58
2702.05
2561.11
2012.22
-865.348
727.603
1433.94
-1428.93
2643.33
-1703.18
2846.94
2050.3
2132.08
2846.67
2724.73
1398.41
-157.683
1897.85
1850.08
348.853
695.558
1305.3
2772.38
1358.89
1898.39
1440.6
2504.75
2840.34
2765.35
2672.69
-1934.82
2787.37
1809.67
2845.6
1304.25
780.909
1842.37
1225.62
2414.39
2801.45
1618.68
1922.28
344.084
489.605
587.32
883.146
757.617
1045.18
537.503
1003.83
2040.83
2370.81
1653.82
2499.33
1284.17
2709.35
1242.52
471.45
509.061
825.859
683.145
1230.58
1660.86
1077.6
1626.29
321.388
401.285
410.511
412.604
444.983
518.588
204.578
385.331
858.045
1024.1
442.908
1544.19
417.474
737.394
201.127
250.145
348.804
428.09
361.352
578.915
734.344
997.491
1825.62
316.768
355.746
350.27
368.18
311.767
253.626
158.885
142.138
271.276
244.338
30.6806
96.7255
114.99
101.701
106.205
176.072
239.78
277.928
262.787
268.708
260.072
392.339
882.359
265.706
235.026
267.357
334.992
334.766
297.314
195.994
104.498
114.234
87.1632
19.0673
29.8531
34.1443
44.9905
85.2524
133.728
174.883
190.292
160.955
79.8205
70.6259
110.636
275.037
175.063
125.955
180.581
224.416
191.645
217.24
157.427
129.357
79.4374
57.2179
11.6074
9.2179
16.9809
37.1564
74.8139
105.716
121.527
125.848
78.7771
42.7564
39.1374
50.6713
123.611
94.7947
71.7337
89.202
89.8759
41.1862
46.1648
35.9866
47.8041
49.3945
35.157
8.58647
6.1477
12.5239
29.8347
54.6662
70.6865
73.0795
72.3339
54.1885
39.4042
45.7348
131.189
419.165
39.2725
36.0828
25.1192
28.8773
9.84736
7.75372
8.72715
20.8686
28.648
20.2217
6.49273
4.29016
8.76113
18.1044
30.0791
48.1619
80.0681
141.121
177.675
194.323
242.171
455.261
719.573
11.5869
17.3993
10.9661
9.77935
2.3504
1.16244
2.02834
6.82229
11.9433
10.4637
5.08211
12.9753
46.3905
121.415
332.71
505.397
565.651
661.351
702.873
713.009
700.596
650.228
577.568
2.99766
7.35602
4.53943
2.69002
0.73626
0.0928255
0.306644
1.71051
4.3576
5.17845
5.39816
18.9184
67.8646
183.116
302.203
356.75
369.005
348.08
279.153
227.485
160.361
111.301
91.8718
0.921917
2.61786
1.42919
0.604692
0.0990983
0.015414
0.0408942
0.267212
0.933524
2.46532
3.86586
12.1395
37.2916
102.096
146.185
167.179
172.825
138.504
111.073
103.838
43.6802
22.5949
19.2984
0.308178
0.69283
0.387791
0.13395
0.0245336
0.00275545
0.0129595
0.0683436
0.356273
1.15074
1.85143
4.73214
9.54532
33.5377
32.6854
62.2059
58.1425
26.3505
25.8786
46.4871
24.3077
6.97757
5.54015
0.0931502
0.163555
0.095043
0.032054
0.00474193
0.000355472
0.00300408
0.0280437
0.156127
0.574763
0.944089
2.21495
3.3902
10.3757
7.44761
18.0485
21.3208
12.4317
5.26869
9.96365
13.5237
3.19671
1.61114
0.0269163
0.0279703
0.0205931
0.00726072
0.000892112
0.000441774
0.00320875
0.0161358
0.0713207
0.28858
0.496901
0.952216
1.40168
2.37933
1.73452
4.9387
4.16211
3.1537
1.8386
1.90972
3.05081
1.77631
0.652537
0.00636821
0.00532716
0.00349464
0.00143379
0.000142318
0.000236615
0.00180562
0.0066341
0.0312985
0.122429
0.204865
0.253014
0.527914
0.478722
0.299951
1.36209
0.948312
0.782112
0.433886
0.408678
0.642377
0.39456
0.200834
0.00126443
0.000799226
0.000717715
0.000310292
1.7131e-05
6.00892e-05
0.000440717
0.00198653
0.0101467
0.0354928
0.0601273
0.0543391
0.149007
0.0925035
0.046883
0.274953
0.210952
0.143916
0.0723535
0.0748299
0.126779
0.0742065
0.0548434
0.000213682
0.000119793
0.000127198
7.04155e-05
3.88444e-06
1.14397e-05
7.84224e-05
0.000392567
0.0021342
0.00672212
0.0132505
0.0107605
0.023184
0.0120877
0.00826969
0.0407764
0.0334332
0.0271299
0.00961096
0.0136764
0.0234995
0.0128742
0.0138491
3.03401e-05
1.72575e-05
2.26683e-05
1.25332e-05
7.21413e-07
1.8398e-06
1.06304e-05
6.26026e-05
0.000342732
0.000740492
0.00242167
0.00162731
0.00342546
0.00168226
0.0012253
0.00396048
0.00424169
0.00485569
0.00159154
0.00243578
0.00226017
0.0014353
0.00304257
3.46228e-06
2.38022e-06
3.83074e-06
2.68509e-06
1.25411e-07
2.41571e-07
1.08357e-06
7.80376e-06
3.35587e-05
6.92004e-05
0.000360943
0.000228477
0.000439159
0.000186214
0.000174508
0.000399168
0.000322709
0.000806008
0.000237371
0.000396681
0.000259339
0.000156645
0.000387732
2.76603e-07
3.56626e-07
7.31582e-07
5.38563e-07
2.21124e-08
2.46927e-08
9.32128e-08
6.22173e-07
2.91631e-06
5.23056e-06
4.78851e-05
2.90298e-05
5.14964e-05
1.41016e-05
2.33888e-05
5.12933e-05
2.46804e-05
9.99164e-05
2.91135e-05
4.72795e-05
2.65852e-05
1.43716e-05
3.04739e-05
2.20797e-08
4.99512e-08
1.29075e-07
1.02033e-07
4.02721e-09
2.22734e-09
9.39232e-09
4.11735e-08
1.93692e-07
3.25773e-07
5.58039e-06
3.15672e-06
5.37404e-06
1.09259e-06
2.95921e-06
4.35567e-06
2.55652e-06
9.81232e-06
3.06729e-06
5.66501e-06
2.47965e-06
1.03023e-06
2.2029e-06
2.01089e-09
6.46376e-09
2.05582e-08
1.82763e-08
1.23782e-09
5.39329e-10
1.15597e-09
2.79305e-09
1.05937e-08
1.85925e-08
5.68493e-07
3.02609e-07
4.82932e-07
8.8839e-08
3.56618e-07
3.9965e-07
2.59303e-07
5.69157e-07
2.78218e-07
5.32562e-07
2.00587e-07
6.54123e-08
1.51812e-07
4.96584e-10
4.32007e-10
3.11047e-09
3.08773e-09
5.68433e-10
4.74756e-10
4.22005e-10
4.40195e-10
7.93076e-10
1.27418e-09
5.07897e-08
2.55513e-08
3.86334e-08
7.66609e-09
3.48745e-08
2.52848e-08
2.27518e-08
4.77993e-08
2.04144e-08
3.96256e-08
1.91712e-08
3.59884e-09
1.36078e-08
3.71074e-10
-1.74624e-10
7.43966e-10
8.07631e-10
4.36557e-10
5.14774e-10
3.67436e-10
3.81078e-10
4.40195e-10
4.86578e-10
4.34555e-09
2.34558e-09
3.43879e-09
8.96758e-10
3.45698e-09
2.3956e-09
1.89447e-09
3.79349e-09
1.72076e-09
1.68619e-09
1.5334e-09
4.71117e-10
1.14778e-09
4.35648e-10
-3.12867e-10
4.22006e-10
4.74756e-10
3.83807e-10
4.502e-10
3.57431e-10
4.05635e-10
3.9563e-10
4.20186e-10
6.81211e-10
5.63886e-10
6.02085e-10
4.42014e-10
6.08451e-10
5.73891e-10
5.05679e-10
5.70252e-10
3.75621e-10
3.32875e-10
2.75577e-10
1.17325e-10
3.85626e-10
4.52019e-10
-2.86491e-10
5.17503e-10
3.61069e-10
3.67436e-10
4.15639e-10
3.20142e-10
4.00178e-10
2.77396e-10
4.66571e-10
3.81078e-10
4.54747e-10
4.44743e-10
4.1382e-10
4.09273e-10
4.18368e-10
4.1382e-10
3.57431e-10
2.78305e-10
2.57387e-10
1.17325e-10
8.73114e-11
2.93767e-10
4.01997e-10
-2.53749e-10
5.2296e-10
3.47427e-10
3.20142e-10
2.83762e-10
3.56522e-10
4.36558e-10
3.79259e-10
4.22006e-10
4.60204e-10
4.30191e-10
4.10182e-10
3.71074e-10
4.35648e-10
4.502e-10
4.97494e-10
3.85626e-10
3.28328e-10
1.62799e-10
1.84627e-10
1.36424e-10
2.00998e-10
3.16504e-10
-2.37379e-10
4.35648e-10
3.75621e-10
3.12866e-10
3.01952e-10
4.96584e-10
4.38376e-10
3.62888e-10
4.12001e-10
4.30191e-10
4.38376e-10
4.54747e-10
3.61069e-10
4.66571e-10
3.93811e-10
4.3201e-10
3.52884e-10
2.65572e-10
1.60071e-10
1.8008e-10
1.27329e-10
2.83762e-10
2.65573e-10
-1.9827e-10
3.16504e-10
4.09273e-10
3.57431e-10
3.46517e-10
4.1382e-10
4.30191e-10
2.80124e-10
4.84761e-10
4.3201e-10
3.73802e-10
4.78394e-10
3.69255e-10
4.62933e-10
4.42014e-10
4.60204e-10
3.69255e-10
3.7744e-10
3.08319e-10
1.68256e-10
1.33696e-10
4.43834e-10
1.90994e-10
-2.67392e-10
3.21052e-10
3.56522e-10
3.14685e-10
2.81943e-10
3.85626e-10
3.73802e-10
3.14685e-10
4.52928e-10
4.01997e-10
3.9563e-10
4.20187e-10
3.56522e-10
3.71074e-10
4.18368e-10
4.26553e-10
4.01997e-10
3.49246e-10
2.94676e-10
2.31012e-10
1.19144e-10
4.3201e-10
2.31012e-10
-3.065e-10
2.8831e-10
3.44699e-10
3.2469e-10
3.46517e-10
3.69255e-10
3.54703e-10
3.2469e-10
3.34694e-10
3.7744e-10
3.51065e-10
3.91992e-10
1.99179e-10
2.04636e-10
3.75621e-10
3.61069e-10
3.72893e-10
3.44698e-10
3.03771e-10
2.27374e-10
1.46429e-10
3.7744e-10
2.67392e-10
-2.11003e-10
2.19188e-10
2.80124e-10
3.16504e-10
3.97449e-10
2.67391e-10
2.59206e-10
3.46518e-10
3.16504e-10
2.96495e-10
3.91083e-10
3.28328e-10
1.62799e-10
2.11003e-10
3.52884e-10
2.47382e-10
3.91992e-10
3.61069e-10
3.34694e-10
2.19188e-10
1.17325e-10
2.93767e-10
2.37378e-10
-2.21008e-10
2.80125e-10
2.43745e-10
3.21052e-10
3.67436e-10
2.27374e-10
2.11003e-10
2.85581e-10
2.77396e-10
3.12866e-10
3.30147e-10
3.28328e-10
1.89175e-10
2.53749e-10
2.8831e-10
2.81943e-10
3.20142e-10
3.47427e-10
3.65617e-10
3.26509e-10
1.17325e-10
3.91083e-10
1.68257e-10
-1.11868e-10
4.30191e-10
2.8831e-10
2.55568e-10
3.4288e-10
2.29193e-10
1.99179e-10
1.54614e-10
2.3374e-10
2.91948e-10
2.85581e-10
2.07365e-10
2.3374e-10
2.12822e-10
2.96495e-10
2.78305e-10
2.41016e-10
2.65572e-10
3.14685e-10
3.16504e-10
1.21872e-10
3.9563e-10
1.76442e-10
3.63773e-12
4.58385e-10
2.59206e-10
3.2469e-10
3.49246e-10
1.9827e-10
2.3374e-10
1.2551e-10
2.78305e-10
2.90129e-10
1.72804e-10
3.18323e-10
3.73802e-10
2.80124e-10
2.61934e-10
2.5102e-10
2.59206e-10
2.81943e-10
2.19188e-10
2.65573e-10
3.00131e-11
3.99268e-10
2.06455e-10
2.90129e-10
6.63022e-10
3.57431e-10
5.05679e-10
5.12955e-10
3.01952e-10
2.57387e-10
3.79259e-10
3.065e-10
3.64707e-10
2.17369e-10
3.32875e-10
4.35648e-10
3.62888e-10
3.14685e-10
3.5925e-10
4.07454e-10
4.1382e-10
2.73758e-10
2.80124e-10
9.91348e-11
3.85626e-10
1.48248e-10
7.27593e-11
5.49335e-10
3.62888e-10
3.2287e-10
4.82942e-10
1.86446e-10
1.90994e-10
2.80124e-10
1.46429e-10
2.90129e-10
1.54614e-10
2.41016e-10
3.75621e-10
3.065e-10
2.65572e-10
2.5102e-10
3.26509e-10
3.14685e-10
2.14641e-10
1.62799e-10
1.62799e-10
3.99269e-10
3.09227e-11
3.22871e-10
6.41194e-10
4.84761e-10
3.49246e-10
4.09273e-10
2.73758e-10
2.02817e-10
2.19188e-10
1.8008e-10
3.20142e-10
3.03771e-10
1.86446e-10
2.8831e-10
2.77396e-10
2.39197e-10
3.4288e-10
3.28328e-10
3.5925e-10
2.71939e-10
2.49202e-10
4.42015e-10
1.54614e-10
720.787
601.956
718.303
1068.47
-1242.97
-356.121
263.896
636.198
-1177.09
-900.859
-666.534
-364.745
557.259
1690.66
2482.57
2343.59
2658.42
2682.22
2668.17
2667.17
1944.01
2023.59
2242.48
2303.15
2441.39
2554.43
2665.38
2605.54
1564.3
1574.35
1459.43
1409.21
444.141
461.525
478.464
498.271
292.622
467.554
597.424
693.847
790.497
921.095
991.592
1043.05
839.178
870.913
903.376
939.701
524.76
483.449
465.986
463.352
84.4577
71.5221
64.0785
63.4892
17.6228
15.0326
14.8289
18.1636
6.14478
4.8989
5.37942
7.88609
1.90849
2.54481
4.2097
7.13041
0.516318
0.64642
0.916484
1.4824
0.172878
0.183711
0.239049
0.298915
0.0516544
0.0380599
0.0510556
0.0621326
0.0132813
0.00797974
0.00969908
0.0111502
0.00282442
0.00158143
0.00192639
0.00163423
0.000362088
0.000318607
0.000257739
0.000262445
5.25057e-05
3.80918e-05
2.98341e-05
4.55774e-05
3.85211e-06
4.78667e-06
4.29388e-06
4.77814e-06
4.424e-07
3.47186e-07
3.18389e-07
5.40471e-07
2.39505e-08
3.42924e-08
2.34312e-08
4.78556e-08
2.2519e-09
1.94176e-09
2.23917e-09
2.83578e-09
3.36513e-10
2.88309e-10
2.25554e-10
2.94675e-10
2.24645e-10
1.64618e-10
1.51886e-10
-2.27378e-11
1.437e-10
9.54968e-11
1.05502e-10
-6.36664e-12
2.49202e-10
1.8008e-10
8.36736e-11
-8.91309e-11
3.2469e-10
1.51885e-10
1.21873e-10
-7.54884e-11
3.52884e-10
1.86446e-10
9.54971e-11
-1.25511e-10
2.71939e-10
1.41881e-10
1.15506e-10
-5.91175e-11
8.27637e-11
1.19144e-10
8.27643e-11
-1.38244e-10
9.73158e-11
1.36423e-11
1.18235e-11
-7.54883e-11
9.27683e-11
-3.63806e-12
-4.00176e-11
-1.9827e-10
4.2746e-11
-2.00091e-11
1.90222e-16
-1.05502e-10
4.63838e-11
1.36425e-10
-1.36425e-11
-1.41882e-10
-1.63714e-11
6.27552e-11
7.45784e-11
2.21007e-10
3.63792e-12
-4.9113e-11
4.91129e-11
-3.63832e-12
1405.47
1894.18
1029.24
2504.03
2544.37
2757.89
2548.72
2632.4
1374.91
1216.75
1500.2
2218.02
2459.47
2571.99
2669.16
2347.78
-3.46459
-1702.26
-2735.26
717.071
-2552.39
-2837.02
-2774.95
-2837.58
-2852.62
-2844.29
-2855.64
-2854.41
-2827.15
-2726.97
-2363.48
-2164.08
-2269.56
-2208.46
-2234.3
-2277.28
-2358.64
-2765.93
922.217
-2408.08
-2819.79
-2825.64
-2675.13
-2671.75
-2412.62
-2814.78
-2755.03
-2836.4
-2856.78
-2661.42
-1950.05
-1481.67
-1356.11
-1275.43
-1107.94
-1204.02
-2693.79
957.601
-1866.78
-1297.13
-433.104
500.697
1121.43
1785.71
-93.2884
685.664
610.364
-204.93
-693.483
772.074
1721.39
2001.29
2087.65
2057.19
1280.08
-2024.31
2307.66
1619.89
2421.64
2608.41
2536.26
2753.64
2683.69
2474.45
2834.33
2855.18
2760.62
2604.93
2838.39
2751.54
2760.21
2857.68
2807.53
1658.25
-2177.09
2856.93
2820.56
2782.79
2779.98
2820.53
2844.37
2813.38
2832.28
2300.71
2167.64
2033.52
2038.97
1933.85
2183.98
2406.24
2484.02
2723.58
2467.1
-1978.44
2622.05
2211.18
2518.14
2438.03
2435.93
2854.33
2857.41
2164.62
1156.47
1136.9
1428.21
2126.28
2394.58
2790.74
2785.86
2857.7
2856.63
2474.87
-1554.74
1457.54
1705.87
2659.28
2520.14
2619.64
2759.98
2702.83
1369.23
967.889
1421.4
2283.71
2734.2
2841.75
2784.06
2283.59
2407.44
2694.17
2307.36
-1572.23
616.326
1791.02
2391.7
2261.39
2851.77
2785.09
2403.77
899.832
1538.44
1964.25
2532.5
2828.96
2821.23
2473.64
1037.88
258.603
1302.29
1650.52
-1797.79
785.103
875.418
1377.09
1821.36
2174.21
2323.67
1709.79
2076.47
2313.02
2457.51
2558.53
2696.06
2778.5
2542.66
532.376
-652.461
-927.02
-526.862
-2061.31
1112.97
1199.14
1278.73
1443.6
1626.16
1691.25
1688.88
1753.56
1575.34
1436.91
1476.79
1613.37
1742.67
2825.14
1281.61
-602.521
-1492.15
-1784.27
-2085.67
1000.64
1051.66
1130.06
1207.66
1436.16
1523.52
1532.6
1163.92
738.174
561.324
642.335
777.13
1169.74
2148.43
2850.84
1197.75
-993.235
-1736.05
-1908.67
478.193
478.9
498.032
510.193
594.415
533.667
317.881
157.213
121.144
127.435
256.981
629.794
1503.34
2417.81
2818.34
2276.82
343.424
-1210.75
-1555.96
66.5706
67.227
69.0442
100.347
129.492
96.389
48.2621
54.9482
86.1926
193.016
421.186
953.868
2135.78
2852.95
2339.51
1398.78
394.5
-480.985
-1387.03
22.8864
24.9115
24.77
25.431
32.4512
66.5878
162.276
243.741
291.918
446.425
587.936
730.241
2311.67
2800.74
2817.06
2116.98
106.234
-692.609
-1344.95
13.5227
18.7344
27.4431
62.4491
149.935
306.185
567.791
802.305
937.426
1155.74
1509.83
1733.04
2551.4
1509.75
1945.75
2319.65
-453.128
-1045.66
-1365.47
13.0334
22.1864
44.784
113.204
253.399
474.768
784.76
1131.64
1524.93
1940.7
2352.91
2824.51
1606.71
545.401
709.395
889.439
-603.683
-1178.57
-1445.88
4.06295
13.771
34.3945
83.4673
157.748
255.532
444.688
1030.95
1621.13
2289.99
2664.55
2800.65
1562.47
842.021
1432.96
1169.9
384.395
-1014.26
-1474.44
0.807292
4.40066
15.5644
38.48
57.0259
91.6019
231.921
501.92
935.724
1645.24
2087.59
2683.11
2841.84
2857.73
2857.7
2592.5
1923.27
335.339
-878.316
0.13248
0.96707
4.08615
10.2327
17.0897
51.5026
157.208
297.867
576.161
1007.73
1428.78
1803.59
2096.75
2411.66
2640.89
2846.93
2665.69
1848.76
474.24
0.0206807
0.17542
0.94103
2.38878
8.66971
56.179
113.986
159.786
349.36
650.389
1141.76
1450.24
1699.4
2070.83
2372.64
2806.3
2849.06
2426.92
1067.68
0.0031722
0.0268345
0.202092
0.452696
3.00797
15.4282
12.8399
37.3759
105.05
239.115
425.553
663.435
896.922
1405.72
2092.24
2702.35
2856.65
2540.29
1194.57
0.000410471
0.00455511
0.0366733
0.077166
0.765642
4.05915
5.21141
35.2516
71.5274
123.091
202.319
265.757
396.055
749.965
1812.83
2615.71
2847.08
2491.3
1247.41
5.71983e-05
0.000755139
0.00548975
0.015814
0.143658
0.970166
1.43131
1.95511
3.01708
30.2152
64.6103
71.1574
138.39
334.65
1249.3
2291.7
2834.11
2327
1326.35
7.64185e-06
0.000121125
0.000822332
0.00244403
0.0161069
0.104382
0.246284
0.396371
0.937965
10.2808
16.1716
19.4678
23.1086
79.9191
374.485
1253.47
2791.66
2378.12
1669.47
1.1652e-06
1.47829e-05
0.000126612
0.000227812
0.00124484
0.0170035
0.024767
0.0654734
0.253984
1.34946
3.16202
6.84572
6.80517
12.1638
49.4824
379.679
1717.44
2856.07
2597.48
1.41144e-07
1.79104e-06
1.6069e-05
2.01245e-05
0.000146259
0.000770426
0.00136742
0.0114914
0.0447684
0.18491
0.698623
2.32541
2.48247
2.62225
4.4019
37.0803
399.172
1717.64
2493.47
1.68338e-08
1.36948e-07
2.16276e-06
1.82931e-06
1.09882e-05
2.84564e-05
0.000222752
0.0024064
0.0142723
0.0562851
0.149481
0.876783
1.21922
0.810045
0.732182
3.4915
54.46
453.711
1211.45
1.4379e-09
1.52431e-08
8.33955e-08
2.20346e-07
3.45508e-07
2.45371e-06
2.21727e-05
0.000234312
0.00115738
0.00754693
0.03362
0.48487
0.554996
0.276622
0.297421
1.07358
12.0842
173.01
598.434
1.2551e-10
1.36969e-09
5.18683e-09
9.8243e-09
1.70447e-08
3.29628e-07
4.0285e-06
3.62529e-05
0.000282019
0.00101689
0.0135598
0.136826
0.164385
0.0795524
0.230734
1.11934
6.83068
122.587
394.069
5.72981e-11
2.55568e-10
4.20185e-10
7.23955e-10
2.17914e-09
3.06534e-08
6.86876e-07
6.06389e-06
5.38908e-05
0.000175537
0.00413658
0.0257494
0.0157402
0.0293718
0.274256
2.36346
5.69411
71.9092
314.922
9.09496e-11
9.27684e-11
1.03682e-10
1.28238e-10
5.14772e-10
7.92986e-09
7.9553e-08
1.20449e-06
6.50492e-06
4.36443e-05
0.000250521
0.00147953
0.00599186
0.0261959
0.360487
3.51561
6.82813
22.3403
268.873
3.63798e-11
1.21872e-10
1.05501e-10
1.437e-10
6.81207e-10
1.51667e-08
1.18685e-07
6.97159e-07
1.34001e-05
9.01447e-05
0.00061565
0.00381355
0.0112811
0.0391836
0.377223
3.72409
8.491
14.8463
234.427
1.17325e-10
1.31877e-10
1.60071e-10
5.53882e-10
2.64935e-09
2.64499e-08
2.28871e-07
1.86961e-06
3.06284e-05
0.000168459
0.000798327
0.00433666
0.0124834
0.0481857
0.471056
3.72547
8.8883
17.7416
313.538
5.91172e-11
1.01863e-10
1.76442e-10
5.43877e-10
2.49747e-09
2.04918e-08
2.40014e-07
2.21519e-06
3.67945e-05
0.000187471
0.000932463
0.00413482
0.00799355
0.0272651
0.364774
3.27046
8.91834
18.1741
319.305
1.81895e-12
1.6189e-10
2.94676e-10
7.91259e-10
5.96173e-09
3.14703e-08
3.19339e-07
3.10133e-06
7.38475e-05
0.000120506
0.000972172
0.00452381
0.00318872
0.00821963
0.192218
2.77004
6.1363
19.3181
337.082
8.73116e-11
9.54969e-11
2.41925e-10
8.01264e-10
4.1482e-09
3.73902e-08
1.62516e-07
1.27667e-06
2.49957e-05
1.32375e-05
0.000305382
0.0002829
0.000221762
0.000834871
0.0253848
0.538778
1.77135
18.2572
264.357
1.01864e-10
9.54969e-11
2.12822e-10
4.03815e-10
1.56796e-09
1.642e-08
7.16462e-08
5.07623e-07
5.82885e-07
1.48318e-06
0.000223901
8.5027e-05
0.000109946
0.000240945
0.0057045
0.0509145
0.225802
5.60167
152.21
1.00954e-10
1.6189e-10
5.63886e-11
2.04636e-10
9.10403e-10
6.46286e-09
3.4528e-08
1.09981e-07
1.28699e-07
3.59215e-07
1.1819e-05
1.38321e-05
9.70216e-05
0.000239235
0.00120099
0.00163475
0.0164178
1.27509
92.0091
1.27329e-10
1.31877e-10
1.81899e-11
1.89175e-10
2.80124e-10
9.06765e-10
2.55567e-09
4.40374e-09
6.1063e-09
6.89213e-08
4.70693e-07
9.78818e-06
0.000176985
0.000345735
0.000521996
0.000865376
0.0116736
0.251745
59.1563
3.38332e-10
2.21007e-10
-2.51021e-10
-1.41881e-10
-5.91174e-11
5.27504e-11
1.0732e-10
1.1822e-11
5.33856e-10
6.17664e-08
3.82429e-07
1.13805e-05
0.000224011
0.00050004
0.000611039
0.000943971
0.0145307
0.0226062
43.5416
2.41926e-10
2.45564e-10
-1.09139e-10
1.78261e-10
2.78306e-10
2.17369e-10
2.37378e-10
-6.63934e-11
4.89286e-10
8.96079e-08
4.25106e-07
1.05128e-05
0.000241935
0.00052864
0.000646763
0.00108474
0.0182743
0.0214616
16.2475
)
;

boundaryField
{
    leftWall
    {
        type            zeroGradient;
    }
    rightWall
    {
        type            zeroGradient;
    }
    lowerWall
    {
        type            zeroGradient;
    }
    atmosphere
    {
        type            zeroGradient;
    }
    defaultFaces
    {
        type            empty;
    }
}


// ************************************************************************* //
