/*--------------------------------*- C++ -*----------------------------------*\
| =========                 |                                                 |
| \\      /  F ield         | foam-extend: Open Source CFD                    |
|  \\    /   O peration     | Version:     4.1                                |
|   \\  /    A nd           | Web:         http://www.foam-extend.org         |
|    \\/     M anipulation  |                                                 |
\*---------------------------------------------------------------------------*/
FoamFile
{
    version     2.0;
    format      ascii;
    class       volVectorField;
    location    "0.75";
    object      U;
}
// * * * * * * * * * * * * * * * * * * * * * * * * * * * * * * * * * * * * * //

dimensions      [0 1 -1 0 0 0 0];

internalField   nonuniform List<vector> 
2268
(
(0.127338 -0.0675817 0)
(0.187247 0.0145378 0)
(-0.231194 0.0604667 0)
(-0.21071 -0.0412315 0)
(-0.09441 -0.0214862 0)
(-0.398572 0.0295002 0)
(-0.0518307 -0.203089 0)
(0.351825 0.0094321 0)
(0.191267 0.0433935 0)
(0.0400709 0.0154362 0)
(-0.0578094 0.0614294 0)
(-0.0267109 -0.0138652 0)
(0.0472364 0.000293815 0)
(0.0471382 0.00567544 0)
(0.0444891 -0.00416188 0)
(0.0427348 -0.0028961 0)
(0.0511267 0.00748344 0)
(0.0373212 0.027412 0)
(-0.0210427 0.034177 0)
(-0.0394906 -0.0232173 0)
(-0.0218978 -0.0387229 0)
(0.0163567 -0.000581892 0)
(-0.000244135 -0.0013295 0)
(0.00353187 0.000776151 0)
(-0.0424158 0.0607366 0)
(-0.168293 0.142908 0)
(0.143848 -0.056575 0)
(-0.0329203 0.0144301 0)
(-0.254906 0.0750404 0)
(0.100409 -0.23921 0)
(0.293191 -0.00586026 0)
(0.261934 0.115243 0)
(0.0626418 0.0193988 0)
(-0.020377 0.0431569 0)
(-0.0317052 -0.0446508 0)
(0.0579526 -0.0368874 0)
(0.047637 -0.00603205 0)
(0.0547876 0.00822639 0)
(0.0456569 0.000476162 0)
(0.0346128 -0.0030645 0)
(0.053217 0.00837593 0)
(0.0348493 0.0317014 0)
(0.0150399 0.02287 0)
(0.00399939 -0.0187919 0)
(-0.0137708 -0.00722605 0)
(0.0216386 0.00956616 0)
(-0.0501367 -0.0631556 0)
(0.129621 0.0492999 0)
(0.133499 0.0820826 0)
(0.226044 -0.0841097 0)
(0.453676 0.0394744 0)
(0.239678 0.077644 0)
(0.197519 -0.237371 0)
(0.0242372 -0.107053 0)
(0.204737 0.13914 0)
(0.0348573 0.0471852 0)
(-0.0629407 0.0736073 0)
(-0.0986717 -0.0621265 0)
(0.0376245 -0.0435474 0)
(0.0307595 0.0119709 0)
(0.0371144 -0.00196029 0)
(0.0428816 0.00208066 0)
(0.0259602 0.0291444 0)
(0.0328601 0.0171051 0)
(0.0284248 0.0314417 0)
(0.0199557 -0.00149666 0)
(-0.0114979 -0.00400119 0)
(-0.0213918 -0.0169863 0)
(0.0163801 -0.000810064 0)
(-0.219075 -0.0463428 0)
(0.169568 0.161386 0)
(0.231784 0.0248063 0)
(0.0671812 -0.180655 0)
(0.339868 0.0297627 0)
(0.24717 0.128447 0)
(0.282024 -0.107853 0)
(-0.234326 -0.0783809 0)
(-0.0894769 0.190176 0)
(-0.109781 0.0389786 0)
(0.0899083 0.126543 0)
(-0.0937683 -0.0784565 0)
(-0.00122927 -0.0769943 0)
(-0.0324845 -0.0138423 0)
(-0.0110129 0.00460894 0)
(0.0201033 0.0215445 0)
(0.0242996 0.00695396 0)
(0.0220676 0.0139362 0)
(0.027451 0.0425647 0)
(0.00751453 0.0152595 0)
(-0.015284 0.00334324 0)
(-0.0240435 -0.00985332 0)
(0.0122612 0.00991117 0)
(-0.278998 -0.0396285 0)
(0.150363 -0.184495 0)
(0.277002 0.0354836 0)
(0.297316 -0.0771644 0)
(0.30792 -0.128596 0)
(0.326695 0.0921986 0)
(0.3481 -0.0163644 0)
(-0.158626 0.0221697 0)
(0.0449373 0.167158 0)
(-0.0436287 0.0238321 0)
(0.0765092 0.075495 0)
(0.00909497 -0.0303721 0)
(-0.0450077 -0.074822 0)
(-0.0616102 0.0143036 0)
(-0.0441798 -0.013357 0)
(-0.0372912 -0.0318173 0)
(-0.0244694 0.0152561 0)
(0.00643034 0.00918206 0)
(0.0062811 0.0469659 0)
(-0.014273 0.0162756 0)
(-0.0275883 0.00125751 0)
(-0.0207232 -0.0182055 0)
(0.00264144 -0.00913886 0)
(-0.256238 -0.0268587 0)
(0.158942 -0.271557 0)
(0.284385 -0.087064 0)
(0.29662 -0.107528 0)
(0.236808 -0.0926153 0)
(0.306087 0.0523621 0)
(0.340511 0.0470918 0)
(-0.0863026 0.0810206 0)
(-0.0448077 0.0619898 0)
(0.0819557 0.0222625 0)
(0.142661 0.0855814 0)
(-0.0422624 0.0144044 0)
(-0.0238076 -0.0723031 0)
(-0.0710742 0.00476732 0)
(-0.111249 -0.0184584 0)
(-0.0566992 -0.0142257 0)
(-0.0163426 -0.0101223 0)
(0.000786413 0.0116813 0)
(-0.00801158 0.0534817 0)
(-0.0266154 0.0228408 0)
(-0.0406844 0.00405025 0)
(-0.0240039 -0.0278153 0)
(-0.0329133 0.00772213 0)
(0.0523569 0.0170129 0)
(0.237299 -0.242063 0)
(0.390508 -0.0625051 0)
(0.363534 -0.0821119 0)
(0.178699 -0.0202975 0)
(0.204366 0.132936 0)
(0.21217 0.0530639 0)
(-0.0115778 0.237183 0)
(0.152833 0.0984988 0)
(-0.0202983 0.0816154 0)
(-0.174399 0.017618 0)
(0.0116602 0.0127813 0)
(-0.0207059 -0.0597161 0)
(-0.0507394 0.0117286 0)
(-0.0925968 0.00410089 0)
(-0.0706389 -0.0307406 0)
(-0.0307443 -0.0166582 0)
(0.0458759 0.00719588 0)
(0.0198305 0.0662948 0)
(-0.00376465 0.033079 0)
(-0.0277999 0.012516 0)
(0.01104 -0.0261527 0)
(-0.100742 -0.0328954 0)
(0.222479 -0.312871 0)
(0.320657 -0.290964 0)
(0.453232 -0.112459 0)
(0.402556 -0.128255 0)
(0.345525 0.0342893 0)
(0.230603 0.146316 0)
(-0.0512018 -0.0100113 0)
(-0.00922271 0.207225 0)
(0.242913 -0.0682158 0)
(0.137113 0.218366 0)
(-0.0676378 0.0420304 0)
(0.0326885 -0.0085687 0)
(0.0279762 -0.0536801 0)
(-0.0596815 0.0409982 0)
(-0.125009 0.0191675 0)
(-0.081096 -0.0907283 0)
(-0.0639507 -0.06742 0)
(0.0471203 -0.0191019 0)
(-7.45955e-05 0.0799961 0)
(-0.0697638 0.0205624 0)
(0.0113009 -0.00939576 0)
(0.0385372 -0.0138804 0)
(-0.293785 -0.110154 0)
(-0.503344 0.19781 0)
(-0.697392 0.024713 0)
(-0.844606 0.00680483 0)
(-0.962468 -0.0106088 0)
(-0.987752 -0.0658343 0)
(-0.957311 -0.00810166 0)
(-0.96626 0.000332846 0)
(-1.09624 -0.142415 0)
(-1.19341 -0.0805447 0)
(-1.0574 -0.119137 0)
(-0.981019 0.00958526 0)
(-0.964224 0.107639 0)
(-0.851653 -0.048514 0)
(-0.748799 0.000505932 0)
(-0.709272 -0.0258839 0)
(-0.62656 -0.0831927 0)
(-0.626284 -0.0392566 0)
(-0.581625 0.0690884 0)
(0.0299875 -0.0431711 0)
(-0.409458 0.355567 0)
(-0.464292 0.123529 0)
(-0.680084 0.0605248 0)
(-0.899233 0.0303845 0)
(-0.956442 0.0782989 0)
(-0.859335 0.0776693 0)
(-0.998572 -0.0717206 0)
(-1.15338 -0.0976767 0)
(-1.20758 0.0261442 0)
(-1.05322 0.0647198 0)
(-0.995931 0.0228196 0)
(-1.05892 0.107183 0)
(-0.922473 0.00212354 0)
(-0.828812 -0.0550169 0)
(-0.884214 -0.0653435 0)
(-0.805262 0.00476379 0)
(-0.72441 -0.112625 0)
(-0.669193 -0.110462 0)
(-0.132926 -0.184648 0)
(-0.386509 0.769545 0)
(-0.229174 0.341036 0)
(-0.271927 0.133622 0)
(-0.703405 -0.0839782 0)
(-0.865062 0.155674 0)
(-0.713544 -0.0320679 0)
(-0.809012 -0.161957 0)
(-0.999696 -0.0697009 0)
(-1.00962 -0.0472989 0)
(-0.975229 0.0808566 0)
(-0.897428 -0.0656351 0)
(-0.898141 -0.0416013 0)
(-0.870749 0.0703142 0)
(-0.794948 -0.119494 0)
(-0.796422 -0.126767 0)
(-0.818107 0.050369 0)
(-0.781101 -0.112738 0)
(-0.651666 -0.212692 0)
(-0.261725 -0.41248 0)
(-0.35654 0.85584 0)
(-0.134122 0.549801 0)
(-0.282878 0.240321 0)
(-0.61135 0.175681 0)
(-0.746364 0.283702 0)
(-0.504721 0.0749514 0)
(-0.604861 -0.116069 0)
(-0.942197 -0.117038 0)
(-0.937252 0.00999303 0)
(-0.885055 0.0186613 0)
(-0.890668 0.0431464 0)
(-0.742808 0.00278094 0)
(-0.774242 -0.0132746 0)
(-0.714657 -0.00127481 0)
(-0.658284 -0.0719153 0)
(-0.748039 -0.00543519 0)
(-0.787839 -0.0568422 0)
(-0.483154 -0.311527 0)
(-0.19109 -0.648495 0)
(-0.35139 0.97693 0)
(-0.139963 0.535146 0)
(-0.220484 0.219243 0)
(-0.195647 0.076335 0)
(-0.369099 0.295233 0)
(-0.232315 0.260286 0)
(-0.552115 -0.000768978 0)
(-0.870247 -0.0107175 0)
(-0.839541 0.0834392 0)
(-0.664691 -0.0864393 0)
(-0.623151 0.0735015 0)
(-0.221051 -0.0602808 0)
(-0.251123 -0.162028 0)
(-0.471649 0.0476918 0)
(-0.418298 -0.105638 0)
(-0.517035 -0.15786 0)
(-0.491884 -0.258652 0)
(-0.28533 -0.289162 0)
(0.0226282 -0.709359 0)
(-0.376073 1.0283 0)
(-0.206467 0.56659 0)
(-0.211686 0.247915 0)
(-0.134597 0.128424 0)
(-0.202829 0.399325 0)
(-0.193133 0.187693 0)
(-0.276289 -0.0101671 0)
(-0.559037 0.107699 0)
(-0.214129 -0.230266 0)
(-0.0151252 0.0685701 0)
(-0.036803 -0.0603398 0)
(0.179078 -0.132816 0)
(0.0102972 -0.068924 0)
(0.0673101 -0.0144758 0)
(-0.204801 0.092043 0)
(-0.303182 -0.12626 0)
(-0.330614 -0.330281 0)
(-0.151349 -0.417417 0)
(0.101937 -0.712327 0)
(-0.390865 1.15112 0)
(-0.225519 0.545461 0)
(-0.187645 0.326859 0)
(-0.188189 0.0779254 0)
(-0.144488 0.404095 0)
(-0.0183002 0.124062 0)
(-0.0143043 -0.0241787 0)
(0.0408129 0.128534 0)
(0.2926 -0.12876 0)
(0.377113 -0.127307 0)
(0.411258 -0.0794039 0)
(0.342673 -0.0742382 0)
(0.14962 -0.0966615 0)
(0.356932 0.0972489 0)
(0.309684 0.114234 0)
(0.0263754 -0.0850881 0)
(-0.107124 -0.101427 0)
(-0.0247487 -0.493682 0)
(0.161545 -0.702088 0)
(-0.393543 1.13358 0)
(-0.307848 0.363351 0)
(-0.300179 0.253412 0)
(-0.312843 0.109019 0)
(-0.145848 0.330729 0)
(0.0789009 0.131936 0)
(0.0355139 -0.103058 0)
(0.226195 -0.0916998 0)
(0.340835 -0.152968 0)
(0.382881 -0.0193911 0)
(0.442883 -0.0333818 0)
(0.395324 -0.0917115 0)
(0.200571 -0.0637355 0)
(0.330103 0.00809357 0)
(0.502411 0.0595155 0)
(0.326676 0.0538605 0)
(0.260498 -0.110745 0)
(0.256021 -0.45756 0)
(0.271183 -0.648599 0)
(0.197894 -0.448665 0)
(0.287093 -0.331807 0)
(0.30085 -0.164007 0)
(0.232421 0.107427 0)
(-0.281315 0.141715 0)
(0.227936 0.348674 0)
(-0.283722 0.128963 0)
(-0.00118744 0.184435 0)
(-0.0511631 -0.0630689 0)
(-0.128321 0.299526 0)
(-0.1616 -0.0249898 0)
(-0.0960812 -0.0394446 0)
(-0.0131413 -0.100474 0)
(-0.0180648 0.0602776 0)
(-0.0702758 0.0406767 0)
(0.0397006 -0.15712 0)
(-0.0318732 0.00368352 0)
(-0.0338919 -0.0297806 0)
(-0.0635498 0.183852 0)
(-0.0492904 0.0402909 0)
(-0.123084 0.0115878 0)
(-0.444406 0.127282 0)
(-0.497337 0.0489109 0)
(-0.00771839 -0.456914 0)
(0.053579 -0.295752 0)
(0.186078 0.0158585 0)
(-0.0870816 0.211823 0)
(-0.202986 0.165603 0)
(-0.0105322 0.434773 0)
(-0.202116 0.0693657 0)
(0.0276875 0.15669 0)
(0.141569 0.124605 0)
(0.0467944 0.366395 0)
(0.244989 -0.0696515 0)
(-0.151489 0.0132825 0)
(-0.0551869 -0.212189 0)
(0.102236 0.0843895 0)
(0.0298132 -0.0189988 0)
(0.112676 -0.207722 0)
(0.141993 -0.0504271 0)
(0.118927 0.00437499 0)
(-0.14005 0.265968 0)
(-0.275463 0.11789 0)
(-0.432192 0.16738 0)
(-0.538172 0.160362 0)
(-0.513464 0.0182463 0)
(-0.0587782 -0.461499 0)
(-0.11173 -0.54939 0)
(0.0965712 0.0186047 0)
(-0.155475 0.412484 0)
(-0.173665 -0.04454 0)
(-0.194442 0.315187 0)
(-0.222156 -0.00184429 0)
(-0.0603058 -0.0384868 0)
(-0.190637 -0.199788 0)
(0.213425 0.0988439 0)
(0.294771 0.142579 0)
(0.0238042 0.259411 0)
(0.0899624 -0.33408 0)
(0.218673 0.0703678 0)
(0.21234 -0.0333334 0)
(0.0645991 -0.149495 0)
(-0.0863451 0.128309 0)
(-0.143952 0.204522 0)
(-0.254638 0.390712 0)
(-0.343085 0.24955 0)
(-0.402213 0.108699 0)
(-0.476839 0.0443591 0)
(-0.577262 0.122781 0)
(0.0725762 -0.33739 0)
(-0.199834 -0.538661 0)
(-0.315172 0.190742 0)
(-0.0451336 0.540961 0)
(0.170007 0.0242037 0)
(-0.157226 0.254955 0)
(-0.0371242 0.0315652 0)
(-0.18315 0.0581069 0)
(-0.460531 -0.0565998 0)
(-0.234165 -0.0475143 0)
(0.0286925 0.181646 0)
(0.00153546 0.214629 0)
(-0.0916213 -0.346346 0)
(-0.0815826 -0.00650941 0)
(0.044525 0.185436 0)
(-0.0670956 -0.03737 0)
(-0.113484 0.189076 0)
(-0.159268 0.205166 0)
(-0.149741 0.522191 0)
(-0.0227879 0.397032 0)
(-0.0496178 0.200445 0)
(-0.115677 0.274295 0)
(-0.0893134 0.211202 0)
(0.024046 -0.310323 0)
(-0.0770505 -0.315451 0)
(-0.122614 -0.178767 0)
(-0.03113 0.202232 0)
(-0.0734241 0.0969585 0)
(-0.102809 0.302631 0)
(-0.0143914 0.0933966 0)
(-0.0544796 0.11651 0)
(0.0411111 0.128763 0)
(-0.0321768 -0.414635 0)
(0.115813 -0.00210653 0)
(-0.0150026 0.280866 0)
(0.234711 -0.154908 0)
(-0.0200767 -0.131137 0)
(0.184198 0.0608307 0)
(0.150596 0.0135445 0)
(-0.013894 0.209 0)
(-0.106628 0.208342 0)
(-0.119344 0.526483 0)
(0.0989143 0.586449 0)
(-0.00635481 0.230402 0)
(-0.0269335 0.261204 0)
(0.250097 0.116831 0)
(-0.0711217 -0.422746 0)
(-0.297365 -0.30455 0)
(-0.425778 -0.0688165 0)
(-0.224043 0.21196 0)
(-0.106311 0.128923 0)
(-0.102143 0.266906 0)
(-0.0843619 0.0379125 0)
(-0.129472 0.109271 0)
(-0.0121445 -0.0184046 0)
(-0.190254 -0.137257 0)
(-0.146883 0.0602053 0)
(-0.0723317 0.0182319 0)
(0.075026 -0.205449 0)
(-0.156386 -0.119121 0)
(0.138031 0.0835181 0)
(-0.157725 0.221533 0)
(-0.136344 0.255461 0)
(-0.240438 0.278249 0)
(-0.358389 0.423258 0)
(-0.249348 0.376349 0)
(-0.180723 0.344049 0)
(-0.231228 0.04127 0)
(-0.0606129 -0.179548 0)
(-0.0161934 -0.123514 0)
(-0.352264 -0.131835 0)
(-0.46588 -0.0668528 0)
(-0.422832 0.0203632 0)
(-0.236103 0.145442 0)
(-0.0850487 0.190446 0)
(0.144448 0.0406527 0)
(-0.079325 0.16289 0)
(-0.124394 -0.0358837 0)
(-0.184104 -0.0984531 0)
(-0.182471 -0.111709 0)
(-0.199813 0.0912526 0)
(-0.173124 -0.169536 0)
(-0.286997 -0.130442 0)
(-0.259365 0.13347 0)
(-0.407973 0.315014 0)
(-0.405552 0.370831 0)
(-0.529858 0.477324 0)
(-0.572544 0.410647 0)
(-0.436465 0.124009 0)
(-0.275395 0.14747 0)
(-0.16146 -0.101054 0)
(-0.0572205 -0.218796 0)
(-0.196094 0.075497 0)
(-0.213381 -0.0441214 0)
(-0.403074 -0.0603284 0)
(-0.432027 -0.0441117 0)
(-0.233769 0.116413 0)
(-0.0246567 0.0108389 0)
(0.0408405 0.0460565 0)
(0.0938753 0.258467 0)
(-0.0282453 0.0566055 0)
(-0.0779422 -0.087298 0)
(-0.190999 -0.120758 0)
(-0.354628 -0.132869 0)
(-0.378112 -0.0435253 0)
(-0.39424 -0.0597953 0)
(-0.618035 0.266413 0)
(-0.505341 0.246404 0)
(-0.461672 0.370458 0)
(-0.570565 0.45165 0)
(-0.532756 0.2677 0)
(-0.319909 -0.0749031 0)
(-0.2245 -0.0387894 0)
(-0.18135 -0.126201 0)
(-0.155663 -0.166774 0)
(-0.0617838 0.301113 0)
(-0.0843812 0.0863035 0)
(-0.329886 -0.148754 0)
(-0.217344 -0.0482834 0)
(-0.170859 0.016856 0)
(-0.125565 -0.0882627 0)
(0.0562729 -0.0609968 0)
(0.135035 0.221582 0)
(0.155463 0.36624 0)
(-0.039338 0.214672 0)
(-0.467734 0.168076 0)
(-0.606096 0.0849885 0)
(-0.795551 0.0818109 0)
(-0.829575 0.113556 0)
(-0.722246 0.239106 0)
(-0.639189 0.189348 0)
(-0.570729 0.281929 0)
(-0.535609 0.285116 0)
(-0.420178 0.189733 0)
(-0.295064 -0.0882314 0)
(-0.330572 -0.0463192 0)
(-0.346396 -0.225274 0)
(-0.440806 -0.168387 0)
(-0.0495063 0.65762 0)
(-0.173631 0.141096 0)
(-0.294942 -0.0834526 0)
(-0.173044 -0.0663112 0)
(-0.0717111 -0.171867 0)
(-0.0910335 -0.120779 0)
(0.0158082 -0.0924679 0)
(0.0894606 0.0356963 0)
(0.108942 0.371343 0)
(-0.0918693 0.406862 0)
(-0.516914 0.366632 0)
(-0.70882 0.123957 0)
(-0.818281 0.100882 0)
(-0.801045 0.192832 0)
(-0.855118 0.245853 0)
(-0.92548 0.203679 0)
(-0.794796 0.24776 0)
(-0.546902 0.237764 0)
(-0.470713 0.0850201 0)
(-0.525084 -0.141879 0)
(-0.720058 -0.153709 0)
(-0.878319 -0.0531653 0)
(-0.803165 -0.140679 0)
(0.0436698 0.747394 0)
(-0.103828 0.147108 0)
(-0.186052 -0.107344 0)
(-0.114916 -0.0956397 0)
(-0.0254616 -0.178809 0)
(-0.0526686 -0.215639 0)
(-0.12982 -0.137897 0)
(-0.15604 0.0354151 0)
(-0.123867 0.325713 0)
(-0.211019 0.593334 0)
(-0.62261 0.506132 0)
(-0.66715 0.339441 0)
(-0.707758 0.339655 0)
(-0.868902 0.434024 0)
(-1.23215 0.289374 0)
(-1.37744 0.262035 0)
(-0.929385 0.00345633 0)
(-0.685958 -0.0141331 0)
(-0.88605 -0.0364049 0)
(-1.12791 0.0832762 0)
(-1.02926 0.137891 0)
(-0.964319 -0.0198918 0)
(-0.881898 -0.143124 0)
(0.080999 0.696789 0)
(0.0547159 0.255284 0)
(0.0211827 0.0221139 0)
(-0.0577193 -0.177773 0)
(-0.116977 -0.106914 0)
(-0.16354 -0.234148 0)
(-0.195631 -0.0731536 0)
(-0.327261 0.243239 0)
(-0.351258 0.449355 0)
(-0.444322 0.636622 0)
(-0.71386 0.582093 0)
(-0.618635 0.453217 0)
(-0.482693 0.480209 0)
(-0.534988 0.55233 0)
(-0.865469 0.159532 0)
(-1.16412 0.0100415 0)
(-0.833207 0.240703 0)
(-0.807929 0.0780285 0)
(-0.924405 0.0492758 0)
(-0.965893 0.10775 0)
(-0.95344 0.133947 0)
(-0.860531 0.00967419 0)
(-0.834486 -0.0664713 0)
(0.0903142 0.443846 0)
(0.113084 0.229947 0)
(0.0238701 0.100551 0)
(-0.0947076 -0.0634924 0)
(-0.179581 -0.0333082 0)
(-0.283888 -0.0523657 0)
(-0.334669 -0.0156527 0)
(-0.566321 0.132646 0)
(-0.692417 0.433287 0)
(-0.673815 0.589918 0)
(-0.800473 0.658728 0)
(-0.840844 0.601053 0)
(-1.22258 0.683706 0)
(-1.56968 0.647413 0)
(-1.6738 0.370463 0)
(-1.56876 0.236399 0)
(-1.3864 0.128917 0)
(-1.37946 0.0672798 0)
(-1.25442 0.0802454 0)
(-1.20237 0.0456075 0)
(-1.09866 0.0407563 0)
(-1.03512 -0.103691 0)
(-0.932677 -0.242575 0)
(0.0584685 0.377521 0)
(0.109928 0.256542 0)
(0.0343339 0.162233 0)
(-0.0311169 0.0825556 0)
(-0.227676 0.0849585 0)
(-0.299183 0.105189 0)
(-0.338858 0.118354 0)
(-0.569784 0.226731 0)
(-0.763202 0.509171 0)
(-0.696135 0.724368 0)
(-0.775998 0.863587 0)
(-1.03335 0.928086 0)
(-1.40049 0.821012 0)
(-1.47131 0.566444 0)
(-1.47917 0.408462 0)
(-1.57397 0.249843 0)
(-1.62059 0.166599 0)
(-1.153 0.0952917 0)
(-0.984887 0.0402712 0)
(-0.951058 -0.0302319 0)
(-0.774258 -0.0679869 0)
(-0.550539 -0.287199 0)
(-0.448851 -0.320079 0)
(-0.055716 0.226622 0)
(0.00129624 0.260844 0)
(-0.0025728 0.199689 0)
(-0.119929 0.147566 0)
(-0.232066 0.204452 0)
(-0.305634 0.249155 0)
(-0.323965 0.267186 0)
(-0.384454 0.343538 0)
(-0.512528 0.596316 0)
(-0.52969 0.874868 0)
(-0.532999 0.981757 0)
(-0.67172 1.15547 0)
(-0.885673 0.969743 0)
(-1.01205 0.459247 0)
(-1.04426 0.149916 0)
(-1.1325 -0.034666 0)
(-1.2126 0.221117 0)
(-1.2021 0.30463 0)
(-1.14679 0.0337728 0)
(-0.771249 -0.0978484 0)
(-0.463458 -0.273929 0)
(-0.460939 -0.35192 0)
(-0.59861 -0.382867 0)
(0.0118853 0.211218 0)
(0.0159049 0.228136 0)
(-0.0254062 0.246334 0)
(-0.055771 0.204617 0)
(-0.194164 0.25628 0)
(-0.274988 0.258072 0)
(-0.297651 0.381214 0)
(-0.310203 0.413822 0)
(-0.319582 0.560165 0)
(-0.40504 0.835824 0)
(-0.152764 0.99632 0)
(0.104923 1.11884 0)
(0.130571 1.27799 0)
(-0.392551 0.914225 0)
(-0.130182 0.65073 0)
(-0.627038 0.356443 0)
(-0.598808 -0.104459 0)
(-0.355848 -0.505063 0)
(-0.556477 -0.191655 0)
(-0.710062 0.0182765 0)
(-0.463325 -0.329494 0)
(-0.358443 -0.325576 0)
(-0.67691 -0.350259 0)
(-0.0594624 0.36925 0)
(0.00282906 0.333538 0)
(0.0112467 0.263589 0)
(-0.0811184 0.284533 0)
(-0.185272 0.288414 0)
(-0.191381 0.336585 0)
(-0.160947 0.3914 0)
(-0.271901 0.399108 0)
(-0.238532 0.57677 0)
(-0.101663 0.776704 0)
(-0.0128154 1.09447 0)
(0.183422 0.91683 0)
(0.219078 1.10602 0)
(0.12613 0.903422 0)
(0.586305 0.720145 0)
(0.416783 0.476803 0)
(0.224752 0.168784 0)
(0.123929 -0.0222058 0)
(-0.0597326 -0.156043 0)
(-0.10354 -0.13558 0)
(-0.160041 -0.140993 0)
(-0.258379 -0.186094 0)
(-0.484144 -0.22345 0)
(0.0238954 0.380746 0)
(-0.0599183 0.341696 0)
(-0.0577121 0.361855 0)
(-0.0179649 0.316956 0)
(-0.100529 0.292671 0)
(-0.150291 0.398471 0)
(-0.176226 0.417828 0)
(-0.157676 0.433699 0)
(-0.103664 0.683319 0)
(0.0511168 0.685206 0)
(-0.0784923 0.892727 0)
(0.0290105 0.867489 0)
(0.357994 0.988772 0)
(0.484919 0.901674 0)
(0.649792 0.72923 0)
(0.520498 0.583907 0)
(0.504729 0.23088 0)
(0.537382 -0.00763024 0)
(0.25504 -0.043792 0)
(0.058518 0.0235919 0)
(0.0663976 -0.0398199 0)
(-0.0266965 -0.076925 0)
(-0.190924 0.00961571 0)
(-0.0460741 0.399874 0)
(0.019386 0.339979 0)
(0.00267552 0.367954 0)
(-0.0916494 0.372678 0)
(-0.0771047 0.353906 0)
(-0.0482716 0.379943 0)
(-0.108654 0.423962 0)
(-0.0594013 0.537198 0)
(-0.127366 0.567546 0)
(-0.0573409 0.6386 0)
(-0.0518221 0.591811 0)
(0.0673767 0.904912 0)
(0.25569 0.812605 0)
(0.411199 0.798662 0)
(0.60996 0.572482 0)
(0.536597 0.549456 0)
(0.524269 0.437484 0)
(0.506675 0.124987 0)
(0.210251 -0.0138386 0)
(0.209852 0.0363463 0)
(0.147688 0.0317151 0)
(0.0451369 0.0410895 0)
(-0.0624096 0.136771 0)
(-0.00970448 0.449292 0)
(-0.0548235 0.480393 0)
(0.00181592 0.393505 0)
(-0.00212691 0.373035 0)
(-0.0594021 0.544664 0)
(-0.0672563 0.418721 0)
(-0.0389667 0.376888 0)
(-0.0918929 0.422423 0)
(-0.121047 0.379844 0)
(-0.0515443 0.515307 0)
(0.123148 0.525492 0)
(0.01979 0.731659 0)
(0.126934 0.706553 0)
(0.427868 0.678865 0)
(0.473231 0.54571 0)
(0.388219 0.339869 0)
(0.395988 0.32261 0)
(0.394522 0.113512 0)
(0.311775 0.0675803 0)
(0.238744 0.124476 0)
(0.169675 0.127308 0)
(0.106445 0.122285 0)
(0.0241371 0.220262 0)
(-0.00277158 0.467353 0)
(-0.00892415 0.492584 0)
(-0.0766106 0.530444 0)
(0.0463517 0.502762 0)
(-0.0011977 0.484684 0)
(-0.132573 0.392654 0)
(-0.0830514 0.351073 0)
(-0.0837605 0.344292 0)
(-0.0911816 0.373267 0)
(0.0109582 0.474031 0)
(0.199761 0.523307 0)
(0.20725 0.436249 0)
(0.218461 0.61742 0)
(0.231214 0.52943 0)
(0.19194 0.376938 0)
(0.264542 0.329919 0)
(0.373029 0.302665 0)
(0.287872 0.251987 0)
(0.2554 0.193922 0)
(0.254863 0.183996 0)
(0.105383 0.164222 0)
(0.121594 0.213997 0)
(0.113748 0.251695 0)
(0.0139526 0.47663 0)
(0.00297071 0.541792 0)
(0.0272922 0.540657 0)
(-0.0246569 0.538106 0)
(-0.114575 0.400958 0)
(-0.133136 0.406012 0)
(-0.052556 0.395385 0)
(-0.0627243 0.360419 0)
(-0.0184482 0.440651 0)
(0.141318 0.56944 0)
(0.142996 0.51919 0)
(0.156225 0.418724 0)
(0.199076 0.407005 0)
(0.234752 0.312111 0)
(0.174828 0.366433 0)
(0.237677 0.468046 0)
(0.319546 0.325558 0)
(0.261463 0.316636 0)
(0.210983 0.343834 0)
(0.18252 0.280922 0)
(0.161417 0.251011 0)
(0.170295 0.332382 0)
(0.114828 0.369334 0)
(0.0496142 0.401733 0)
(0.0457924 0.457833 0)
(-0.0681171 0.452939 0)
(-0.0909949 0.420893 0)
(-0.0853335 0.40235 0)
(-0.0851525 0.396935 0)
(-0.0855543 0.560566 0)
(-0.0100758 0.438229 0)
(0.0989213 0.549142 0)
(0.0994848 0.513917 0)
(0.100693 0.459036 0)
(0.139555 0.455624 0)
(0.151536 0.430589 0)
(0.214071 0.350504 0)
(0.249237 0.379988 0)
(0.230154 0.446853 0)
(0.233226 0.375637 0)
(0.228288 0.330334 0)
(0.197952 0.323339 0)
(0.144645 0.256921 0)
(0.159518 0.353565 0)
(0.254325 0.368551 0)
(0.189542 0.365809 0)
(-0.0192499 0.321071 0)
(-0.0088002 0.309698 0)
(-0.0226015 0.33676 0)
(-0.0352124 0.389608 0)
(-0.0818242 0.421715 0)
(0.0548291 0.417093 0)
(0.0461566 0.484183 0)
(-0.0589455 0.499154 0)
(0.061786 0.491033 0)
(0.057757 0.442716 0)
(0.111386 0.442109 0)
(0.141343 0.446691 0)
(0.12299 0.424135 0)
(0.179684 0.429058 0)
(0.24144 0.370729 0)
(0.229424 0.28286 0)
(0.248221 0.289862 0)
(0.199899 0.23937 0)
(0.165152 0.248902 0)
(0.17656 0.259802 0)
(0.254864 0.330701 0)
(0.22644 0.315876 0)
(0.212169 0.2921 0)
(-0.0194095 0.426643 0)
(-0.0159379 0.368921 0)
(-0.0251235 0.380498 0)
(-0.00464029 0.401527 0)
(-0.0381136 0.414245 0)
(0.0237094 0.528435 0)
(0.0144847 0.351395 0)
(0.0218409 0.43735 0)
(0.0513236 0.411948 0)
(0.0659102 0.415582 0)
(0.124269 0.416007 0)
(0.129749 0.399004 0)
(0.113788 0.386927 0)
(0.163182 0.422349 0)
(0.174528 0.362257 0)
(0.20322 0.246952 0)
(0.224949 0.277919 0)
(0.189307 0.261728 0)
(0.230336 0.293198 0)
(0.234425 0.300651 0)
(0.218765 0.306268 0)
(0.233135 0.310711 0)
(0.227838 0.32807 0)
(-0.0658943 0.365146 0)
(-0.0568471 0.342009 0)
(-0.0329992 0.365668 0)
(0.00267711 0.39219 0)
(0.0683453 0.363654 0)
(0.0247381 0.424497 0)
(-0.0109951 0.372874 0)
(0.0473509 0.465087 0)
(0.0521414 0.383166 0)
(0.0604991 0.405779 0)
(0.097063 0.394538 0)
(0.117914 0.364573 0)
(0.165805 0.342543 0)
(0.169632 0.321839 0)
(0.0888535 0.332625 0)
(0.186501 0.352001 0)
(0.246494 0.31514 0)
(0.226486 0.295939 0)
(0.208862 0.272885 0)
(0.210198 0.256235 0)
(0.267367 0.272007 0)
(0.257847 0.261326 0)
(0.210624 0.296151 0)
(-0.0142907 0.26874 0)
(-0.0126937 0.306485 0)
(-0.00519339 0.338107 0)
(0.0041795 0.360056 0)
(0.038199 0.34185 0)
(0.0557571 0.264386 0)
(0.0908703 0.336782 0)
(0.0489395 0.391435 0)
(-0.00857553 0.317556 0)
(0.0599095 0.34844 0)
(0.0708432 0.357878 0)
(0.0921487 0.333684 0)
(0.135535 0.357453 0)
(0.181104 0.337356 0)
(0.188073 0.287623 0)
(0.205836 0.338423 0)
(0.171365 0.27735 0)
(0.148196 0.23103 0)
(0.197343 0.19926 0)
(0.255149 0.194137 0)
(0.246341 0.221698 0)
(0.269803 0.185394 0)
(0.240194 0.198723 0)
(-0.00638921 0.309059 0)
(-0.00650296 0.313712 0)
(-2.50294e-05 0.325704 0)
(0.0125192 0.336976 0)
(0.0311432 0.334804 0)
(0.04299 0.302578 0)
(0.0660257 0.320537 0)
(0.0452861 0.265581 0)
(0.0488161 0.313153 0)
(0.0906357 0.297826 0)
(0.0791524 0.345871 0)
(0.122819 0.339578 0)
(0.192363 0.342802 0)
(0.11112 0.369971 0)
(0.111166 0.326553 0)
(0.196683 0.290108 0)
(0.155476 0.245649 0)
(0.164225 0.270118 0)
(0.182209 0.272275 0)
(0.241277 0.273258 0)
(0.283292 0.257552 0)
(0.23661 0.200517 0)
(0.268898 0.199668 0)
(-0.00343452 0.30684 0)
(-0.00331724 0.303559 0)
(0.00353007 0.312732 0)
(0.0192723 0.320178 0)
(0.0296385 0.315473 0)
(0.0473928 0.29656 0)
(0.0652624 0.312038 0)
(0.0531911 0.290981 0)
(0.0504753 0.326768 0)
(0.0822004 0.303723 0)
(0.103926 0.285495 0)
(0.105775 0.315829 0)
(0.182163 0.313405 0)
(0.173712 0.279996 0)
(0.14612 0.307268 0)
(0.133995 0.253762 0)
(0.155438 0.27176 0)
(0.193994 0.287087 0)
(0.19704 0.287707 0)
(0.222002 0.307819 0)
(0.203325 0.223636 0)
(0.198151 0.245122 0)
(0.269981 0.272913 0)
(-0.00342705 0.301528 0)
(0.00185232 0.292013 0)
(0.00559424 0.303483 0)
(0.018904 0.31303 0)
(0.0215097 0.306415 0)
(0.0419944 0.288551 0)
(0.0539808 0.303669 0)
(0.0638448 0.297799 0)
(0.0668125 0.30779 0)
(0.03299 0.312172 0)
(0.0851765 0.284244 0)
(0.155926 0.306141 0)
(0.163491 0.311917 0)
(0.123455 0.264036 0)
(0.130549 0.279109 0)
(0.168533 0.225556 0)
(0.173266 0.264974 0)
(0.181904 0.218727 0)
(0.197735 0.233708 0)
(0.174844 0.209974 0)
(0.202673 0.186429 0)
(0.281715 0.265085 0)
(0.263501 0.23551 0)
(-0.00315349 0.295776 0)
(0.00609275 0.285988 0)
(0.0106124 0.298376 0)
(0.0219763 0.310981 0)
(0.0209483 0.304938 0)
(0.042822 0.289008 0)
(0.0566281 0.256672 0)
(0.0646391 0.295046 0)
(0.0771779 0.318421 0)
(0.062169 0.344887 0)
(0.0886881 0.382472 0)
(0.128189 0.333669 0)
(0.139936 0.273721 0)
(0.158653 0.280179 0)
(0.128693 0.29268 0)
(0.136409 0.284196 0)
(0.137365 0.260545 0)
(0.17037 0.231104 0)
(0.184005 0.181081 0)
(0.177473 0.176944 0)
(0.245833 0.224126 0)
(0.239272 0.191499 0)
(0.233586 0.155883 0)
(-5.93254e-05 0.294507 0)
(0.0112094 0.287734 0)
(0.0129982 0.293463 0)
(0.0236928 0.314655 0)
(0.0238668 0.308416 0)
(0.000892265 0.291616 0)
(0.0376192 0.281081 0)
(0.114173 0.304624 0)
(0.130169 0.30096 0)
(0.109515 0.286933 0)
(0.0685615 0.325607 0)
(0.0664176 0.289604 0)
(0.111778 0.261437 0)
(0.141722 0.265462 0)
(0.123527 0.261356 0)
(0.123817 0.298964 0)
(0.13027 0.208348 0)
(0.135936 0.231325 0)
(0.14783 0.188522 0)
(0.190304 0.227238 0)
(0.185362 0.2275 0)
(0.212724 0.139169 0)
(0.226443 0.17445 0)
(0.00251544 0.296391 0)
(0.0103846 0.288244 0)
(0.0158064 0.294382 0)
(0.0329398 0.314071 0)
(0.0358422 0.310941 0)
(0.0290028 0.291117 0)
(0.0466356 0.355584 0)
(0.0764191 0.313223 0)
(0.0749201 0.328495 0)
(0.0679084 0.303997 0)
(0.0610021 0.194763 0)
(0.0606087 0.235409 0)
(0.117767 0.274254 0)
(0.155951 0.228347 0)
(0.157133 0.248324 0)
(0.0797812 0.268505 0)
(0.0840821 0.255108 0)
(0.161662 0.258066 0)
(0.182152 0.20927 0)
(0.207451 0.234352 0)
(0.124483 0.190509 0)
(0.172668 0.196414 0)
(0.210559 0.115056 0)
(0.00327644 0.289008 0)
(0.0129298 0.277288 0)
(0.0129959 0.288484 0)
(0.0329624 0.301889 0)
(0.0390536 0.292478 0)
(0.0419016 0.26289 0)
(0.0525727 0.27763 0)
(0.0978714 0.28106 0)
(0.118795 0.277042 0)
(-0.0201507 0.271398 0)
(0.00898646 0.295555 0)
(0.105779 0.224916 0)
(0.110491 0.266269 0)
(0.11037 0.249216 0)
(0.164098 0.217197 0)
(0.13533 0.195198 0)
(0.125822 0.25176 0)
(0.116802 0.259323 0)
(0.136058 0.232969 0)
(0.191475 0.194636 0)
(0.150304 0.14147 0)
(0.150688 0.147783 0)
(0.146494 0.11021 0)
(0.00190598 0.28097 0)
(0.0129319 0.268893 0)
(0.0139595 0.273963 0)
(0.0218422 0.2968 0)
(0.0275346 0.277388 0)
(0.0494251 0.266889 0)
(0.0588317 0.25603 0)
(0.0541674 0.220253 0)
(0.0769819 0.216171 0)
(0.0925486 0.210018 0)
(0.0132439 0.292792 0)
(0.0205783 0.248966 0)
(0.136015 0.252418 0)
(0.109682 0.244987 0)
(0.0972368 0.224309 0)
(0.109056 0.185953 0)
(0.156825 0.171857 0)
(0.153521 0.189193 0)
(0.123211 0.20873 0)
(0.12131 0.139967 0)
(0.118643 0.129439 0)
(0.161666 0.137824 0)
(0.188008 0.116275 0)
(0.000632096 0.281035 0)
(0.00885845 0.262962 0)
(0.0118541 0.267764 0)
(0.0144229 0.300039 0)
(0.0255114 0.236865 0)
(0.0472858 0.272332 0)
(-0.00309014 0.278503 0)
(0.0424702 0.242294 0)
(0.0888152 0.259968 0)
(0.0836677 0.206475 0)
(0.044835 0.199564 0)
(0.0578391 0.301692 0)
(0.104159 0.257573 0)
(0.0783165 0.218669 0)
(0.0983951 0.220384 0)
(0.0850557 0.218988 0)
(0.11381 0.203834 0)
(0.134339 0.153627 0)
(0.123931 0.176713 0)
(0.105524 0.182319 0)
(0.153879 0.180396 0)
(0.160796 0.166325 0)
(0.120469 0.074775 0)
(-0.00439827 0.28631 0)
(0.00489454 0.269159 0)
(0.0175794 0.278597 0)
(-0.0203439 0.313883 0)
(0.0135767 0.275532 0)
(0.0871586 0.292762 0)
(0.0406539 0.290659 0)
(0.0312069 0.33506 0)
(0.019754 0.281498 0)
(0.0489932 0.245498 0)
(0.0944258 0.233238 0)
(0.0621849 0.260663 0)
(0.07024 0.197942 0)
(0.0739219 0.207815 0)
(0.0821522 0.212958 0)
(0.0832542 0.207978 0)
(0.0823155 0.207293 0)
(0.119695 0.185135 0)
(0.165157 0.202074 0)
(0.136337 0.194719 0)
(0.0982338 0.1967 0)
(0.112732 0.100766 0)
(0.076275 0.104955 0)
(-0.00615742 0.277842 0)
(0.00720114 0.235722 0)
(0.0248157 0.278928 0)
(0.00619142 0.315833 0)
(0.0265821 0.370124 0)
(0.0455984 0.301913 0)
(0.0179275 0.290308 0)
(0.035991 0.317437 0)
(0.0262811 0.2776 0)
(0.0443613 0.338874 0)
(0.0562212 0.253937 0)
(-0.00737267 0.259703 0)
(0.0491144 0.227302 0)
(0.0902125 0.227562 0)
(0.0799599 0.208962 0)
(0.0621696 0.203001 0)
(0.0689808 0.192021 0)
(0.128531 0.18622 0)
(0.134622 0.176208 0)
(0.0842345 0.120753 0)
(0.0710823 0.114092 0)
(0.1116 0.103478 0)
(0.106654 0.0934053 0)
(-0.0332008 0.298853 0)
(0.0178305 0.283774 0)
(0.0624469 0.298239 0)
(0.0326243 0.299592 0)
(0.0271956 0.322809 0)
(0.0429822 0.292708 0)
(0.0302402 0.294062 0)
(0.0168096 0.311701 0)
(0.018869 0.272944 0)
(0.0390308 0.29893 0)
(0.0391558 0.256347 0)
(0.0346401 0.274039 0)
(0.0353038 0.305168 0)
(0.0475492 0.242644 0)
(0.039864 0.221321 0)
(0.0447017 0.168449 0)
(0.0477202 0.202375 0)
(0.0931486 0.164816 0)
(0.104437 0.141165 0)
(0.0668952 0.138744 0)
(0.0767095 0.119232 0)
(0.102263 0.12427 0)
(0.0673502 0.0816909 0)
(-0.000451071 0.276849 0)
(0.00657395 0.363866 0)
(0.00794796 0.311074 0)
(0.0208833 0.308923 0)
(0.0264393 0.333951 0)
(0.0334092 0.308493 0)
(0.023979 0.300867 0)
(0.0166073 0.367412 0)
(0.0160215 0.229914 0)
(0.0289234 0.355629 0)
(0.0211641 0.219062 0)
(0.01838 0.270455 0)
(0.00967358 0.319696 0)
(0.0335137 0.235244 0)
(-0.00890674 0.173954 0)
(0.0337075 0.209532 0)
(0.0441301 0.158515 0)
(0.0537113 0.194022 0)
(0.0889341 0.121397 0)