/*--------------------------------*- C++ -*----------------------------------*\
| =========                 |                                                 |
| \\      /  F ield         | foam-extend: Open Source CFD                    |
|  \\    /   O peration     | Version:     4.1                                |
|   \\  /    A nd           | Web:         http://www.foam-extend.org         |
|    \\/     M anipulation  |                                                 |
\*---------------------------------------------------------------------------*/
FoamFile
{
    version     2.0;
    format      ascii;
    class       volVectorField;
    location    "0.75";
    object      U_0;
}
// * * * * * * * * * * * * * * * * * * * * * * * * * * * * * * * * * * * * * //

dimensions      [0 1 -1 0 0 0 0];

internalField   nonuniform List<vector> 
2268
(
(0.128585 -0.0665097 0)
(0.170123 0.0164734 0)
(-0.233139 0.0576048 0)
(-0.205681 -0.0439837 0)
(-0.083112 -0.0185289 0)
(-0.398 0.0338981 0)
(-0.0552242 -0.204175 0)
(0.354535 0.00992744 0)
(0.201124 0.0410425 0)
(0.0476829 0.0171714 0)
(-0.0630072 0.0621825 0)
(-0.0247328 -0.0140127 0)
(0.0475106 0.000132965 0)
(0.0464594 0.00531872 0)
(0.0435014 -0.00407963 0)
(0.0414256 -0.00238469 0)
(0.0488688 0.00804325 0)
(0.0348713 0.0270258 0)
(-0.0229257 0.0343652 0)
(-0.0414536 -0.0234601 0)
(-0.0239227 -0.0391348 0)
(0.0161768 -0.0015709 0)
(0.000894168 -0.000873915 0)
(0.00400914 0.00381726 0)
(-0.0454618 0.0606537 0)
(-0.171815 0.140402 0)
(0.127453 -0.0628115 0)
(-0.0420895 0.0149503 0)
(-0.264952 0.0775571 0)
(0.0962383 -0.242578 0)
(0.313415 -0.00240144 0)
(0.284339 0.107332 0)
(0.0685367 0.0251833 0)
(-0.0263512 0.042306 0)
(-0.0285796 -0.0455349 0)
(0.0586618 -0.0378489 0)
(0.0471708 -0.00535699 0)
(0.0542888 0.00870924 0)
(0.0443601 0.00058907 0)
(0.0317671 -0.00294044 0)
(0.0507792 0.00793286 0)
(0.0332183 0.0319186 0)
(0.013088 0.0233796 0)
(0.00200821 -0.0194159 0)
(-0.0165135 -0.0087137 0)
(0.02007 0.00961263 0)
(-0.0490361 -0.0620965 0)
(0.135433 0.0526156 0)
(0.149253 0.0824675 0)
(0.24055 -0.0909938 0)
(0.468592 0.043298 0)
(0.234282 0.0826212 0)
(0.192712 -0.24757 0)
(0.0439765 -0.10756 0)
(0.229331 0.136856 0)
(0.0442276 0.0548609 0)
(-0.0732866 0.0735951 0)
(-0.0973049 -0.0624311 0)
(0.0392737 -0.0426696 0)
(0.0306897 0.0127191 0)
(0.0360946 -0.00141876 0)
(0.0414918 0.00297365 0)
(0.0232437 0.0292535 0)
(0.030378 0.0171604 0)
(0.0267924 0.0310864 0)
(0.017791 -0.000899634 0)
(-0.0141466 -0.00401442 0)
(-0.0241225 -0.0182531 0)
(0.0149758 -0.00199287 0)
(-0.216963 -0.0466352 0)
(0.172083 0.159043 0)
(0.235101 0.0204611 0)
(0.0481845 -0.186303 0)
(0.339704 0.0385163 0)
(0.24476 0.13723 0)
(0.283385 -0.117443 0)
(-0.230338 -0.0821322 0)
(-0.0897884 0.189764 0)
(-0.0960688 0.0576789 0)
(0.0977995 0.128495 0)
(-0.0968625 -0.0790859 0)
(0.00136473 -0.0746139 0)
(-0.0328244 -0.0125811 0)
(-0.0113641 0.00582083 0)
(0.0185507 0.0241783 0)
(0.0211498 0.00757441 0)
(0.0192388 0.0133794 0)
(0.0258164 0.0415094 0)
(0.00562738 0.0160167 0)
(-0.0181776 0.00349436 0)
(-0.0273428 -0.0109063 0)
(0.0107716 0.00750342 0)
(-0.27786 -0.040395 0)
(0.158747 -0.181707 0)
(0.284637 0.0398743 0)
(0.300574 -0.0840399 0)
(0.316837 -0.12852 0)
(0.335501 0.0987127 0)
(0.353297 -0.021927 0)
(-0.168899 0.0198362 0)
(0.0375941 0.160103 0)
(-0.0543056 0.0427738 0)
(0.0867237 0.0691259 0)
(0.00518083 -0.0282568 0)
(-0.0442802 -0.0729683 0)
(-0.0621807 0.0166939 0)
(-0.0445515 -0.0114815 0)
(-0.0388455 -0.0295254 0)
(-0.0287713 0.0158584 0)
(0.00298602 0.00823412 0)
(0.00490932 0.0456394 0)
(-0.015828 0.0178066 0)
(-0.031127 0.000904387 0)
(-0.0246048 -0.0192882 0)
(0.000664879 -0.0114601 0)
(-0.258691 -0.026826 0)
(0.155695 -0.276619 0)
(0.287004 -0.0879751 0)
(0.300093 -0.110393 0)
(0.238177 -0.0901136 0)
(0.312653 0.0587903 0)
(0.344814 0.0435776 0)
(-0.0926643 0.0811918 0)
(-0.0637107 0.0515403 0)
(0.0587725 0.0261084 0)
(0.148594 0.0770346 0)
(-0.0442304 0.0165831 0)
(-0.0235616 -0.0704362 0)
(-0.0714496 0.00604979 0)
(-0.111713 -0.0163642 0)
(-0.0591031 -0.0111138 0)
(-0.0213166 -0.00981185 0)
(-0.00301333 0.00986794 0)
(-0.00860832 0.0515871 0)
(-0.0278669 0.0254389 0)
(-0.044889 0.00485514 0)
(-0.0282486 -0.0303649 0)
(-0.0346308 0.00407597 0)
(0.0563939 0.0166925 0)
(0.242803 -0.245331 0)
(0.395524 -0.065458 0)
(0.366752 -0.0876979 0)
(0.18608 -0.0201499 0)
(0.213157 0.139093 0)
(0.214202 0.0526506 0)
(-0.0124482 0.24315 0)
(0.148893 0.0931374 0)
(-0.0258398 0.0811867 0)
(-0.169275 0.00871733 0)
(0.017519 0.0153209 0)
(-0.0210891 -0.0576286 0)
(-0.0510802 0.0143883 0)
(-0.0924173 0.00515263 0)
(-0.0731939 -0.0268535 0)
(-0.0371208 -0.0131211 0)
(0.0413974 0.00319113 0)
(0.0221217 0.0633723 0)
(-0.00364775 0.0359579 0)
(-0.0332512 0.0126289 0)
(0.00435332 -0.0295833 0)
(-0.103021 -0.0432821 0)
(0.225615 -0.31964 0)
(0.321478 -0.294157 0)
(0.457794 -0.115209 0)
(0.40426 -0.131439 0)
(0.340151 0.0365973 0)
(0.235556 0.150854 0)
(-0.056361 -0.00975351 0)
(-0.00763758 0.210178 0)
(0.248086 -0.0738282 0)
(0.144389 0.222187 0)
(-0.0625182 0.0329857 0)
(0.0291635 -0.00279021 0)
(0.0281047 -0.049061 0)
(-0.0602679 0.0444135 0)
(-0.126122 0.0211048 0)
(-0.0830529 -0.0843936 0)
(-0.0665524 -0.0625327 0)
(0.0479348 -0.0246331 0)
(0.00398285 0.077419 0)
(-0.0693856 0.024674 0)
(0.00591389 -0.00564387 0)
(0.0339538 -0.0149053 0)
(-0.294521 -0.124016 0)
(-0.503241 0.198056 0)
(-0.698803 0.0257317 0)
(-0.844859 0.00652251 0)
(-0.958029 -0.0121317 0)
(-0.982772 -0.0662921 0)
(-0.955532 -0.00805409 0)
(-0.966502 -8.32602e-05 0)
(-1.09365 -0.142322 0)
(-1.19126 -0.0802935 0)
(-1.06097 -0.119528 0)
(-0.986088 0.00891205 0)
(-0.970316 0.108192 0)
(-0.857908 -0.0484223 0)
(-0.753146 -0.000135987 0)
(-0.710214 -0.0311282 0)
(-0.617101 -0.0880232 0)
(-0.605446 -0.0389446 0)
(-0.565877 0.0698757 0)
(0.0531509 -0.0398279 0)
(-0.408421 0.354592 0)
(-0.456967 0.123323 0)
(-0.666827 0.0591606 0)
(-0.890189 0.0283253 0)
(-0.951739 0.0800666 0)
(-0.858091 0.0819022 0)
(-0.998959 -0.0708361 0)
(-1.15155 -0.0971901 0)
(-1.20702 0.0295463 0)
(-1.05408 0.0663367 0)
(-0.997888 0.0246926 0)
(-1.06186 0.108669 0)
(-0.926841 0.00161466 0)
(-0.829782 -0.0563897 0)
(-0.882618 -0.0711079 0)
(-0.792958 0.00350237 0)
(-0.705609 -0.114233 0)
(-0.653533 -0.118989 0)
(-0.11281 -0.172564 0)
(-0.385138 0.767437 0)
(-0.223683 0.338441 0)
(-0.263692 0.136379 0)
(-0.693877 -0.0842941 0)
(-0.862568 0.155387 0)
(-0.712743 -0.0328552 0)
(-0.804472 -0.162794 0)
(-0.998541 -0.0703387 0)
(-1.00902 -0.0470981 0)
(-0.974631 0.0810351 0)
(-0.898079 -0.0646873 0)
(-0.901582 -0.0387015 0)
(-0.87005 0.0710144 0)
(-0.790437 -0.122909 0)
(-0.790943 -0.133179 0)
(-0.812867 0.0441615 0)
(-0.77492 -0.116415 0)
(-0.65966 -0.213595 0)
(-0.257764 -0.390919 0)
(-0.356153 0.85049 0)
(-0.134338 0.539718 0)
(-0.275832 0.241216 0)
(-0.589473 0.177145 0)
(-0.738715 0.2907 0)
(-0.493906 0.0736414 0)
(-0.581354 -0.116636 0)
(-0.934365 -0.115107 0)
(-0.933806 0.012609 0)
(-0.883398 0.0199457 0)
(-0.890645 0.0451164 0)
(-0.745283 0.00473638 0)
(-0.773797 -0.0151796 0)
(-0.71052 -0.0038748 0)
(-0.652439 -0.0785506 0)
(-0.74733 -0.00901825 0)
(-0.790631 -0.058675 0)
(-0.501755 -0.308079 0)
(-0.218035 -0.635754 0)
(-0.353777 0.973384 0)
(-0.143196 0.524253 0)
(-0.221525 0.214818 0)
(-0.174708 0.0716007 0)
(-0.354987 0.312415 0)
(-0.223673 0.257207 0)
(-0.524152 -0.00111709 0)
(-0.867104 -0.00252818 0)
(-0.84312 0.0853099 0)
(-0.662677 -0.0846896 0)
(-0.62456 0.0760548 0)
(-0.219236 -0.0575682 0)
(-0.246808 -0.165445 0)
(-0.465552 0.0443796 0)
(-0.412274 -0.112352 0)
(-0.526498 -0.159059 0)
(-0.506986 -0.255327 0)
(-0.295305 -0.291289 0)
(0.00797011 -0.713535 0)
(-0.378002 1.02548 0)
(-0.213456 0.558467 0)
(-0.211375 0.242939 0)
(-0.134549 0.124748 0)
(-0.198268 0.409598 0)
(-0.189699 0.182955 0)
(-0.270867 -0.00555691 0)
(-0.547463 0.113626 0)
(-0.230179 -0.22236 0)
(-0.00601882 0.067623 0)
(-0.0305191 -0.0546206 0)
(0.19302 -0.137634 0)
(0.0195872 -0.0677381 0)
(0.0823045 -0.017368 0)
(-0.196134 0.0860083 0)
(-0.314269 -0.125808 0)
(-0.339162 -0.33129 0)
(-0.153849 -0.409609 0)
(0.0967485 -0.711621 0)
(-0.393102 1.15051 0)
(-0.22617 0.53509 0)
(-0.178082 0.327923 0)
(-0.193064 0.0740714 0)
(-0.14732 0.409951 0)
(-0.00604216 0.122588 0)
(-0.00768688 -0.00744345 0)
(0.0554546 0.132797 0)
(0.30996 -0.12608 0)
(0.391435 -0.131279 0)
(0.426577 -0.0806063 0)
(0.360046 -0.0782955 0)
(0.162128 -0.0982391 0)
(0.363046 0.0948175 0)
(0.315932 0.115497 0)
(0.00465237 -0.0787145 0)
(-0.119813 -0.103703 0)
(-0.0388659 -0.487526 0)
(0.153629 -0.70272 0)
(-0.396687 1.13263 0)
(-0.315906 0.350413 0)
(-0.302678 0.249096 0)
(-0.321323 0.101591 0)
(-0.150579 0.329473 0)
(0.0867951 0.128724 0)
(0.0343803 -0.0901445 0)
(0.237838 -0.0837384 0)
(0.354258 -0.155009 0)
(0.394378 -0.0217294 0)
(0.455166 -0.034571 0)
(0.408645 -0.0940613 0)
(0.208655 -0.0625538 0)
(0.33523 0.00838193 0)
(0.499172 0.0671818 0)
(0.298451 0.0619307 0)
(0.243235 -0.115907 0)
(0.23427 -0.461627 0)
(0.259905 -0.655576 0)
(0.206602 -0.456843 0)
(0.293272 -0.335027 0)
(0.308269 -0.160277 0)
(0.228904 0.111995 0)
(-0.285632 0.137839 0)
(0.23463 0.358002 0)
(-0.288246 0.132603 0)
(-0.00122149 0.190995 0)
(-0.0467529 -0.0656258 0)
(-0.13189 0.300903 0)
(-0.163676 -0.0275741 0)
(-0.0969833 -0.0342995 0)
(-0.0140615 -0.0948642 0)
(-0.0202204 0.0616186 0)
(-0.0719999 0.0431254 0)
(0.0378807 -0.147487 0)
(-0.0305092 -0.000330887 0)
(-0.0309156 -0.0362464 0)
(-0.0664264 0.180855 0)
(-0.0515823 0.0446531 0)
(-0.120353 0.0162243 0)
(-0.438565 0.125982 0)
(-0.503147 0.0371046 0)
(0.00153072 -0.476701 0)
(0.0693707 -0.285167 0)
(0.189239 0.0122226 0)
(-0.090377 0.211933 0)
(-0.206152 0.160464 0)
(-0.0129035 0.448271 0)
(-0.207774 0.0728933 0)
(0.0206647 0.164656 0)
(0.131633 0.115757 0)
(0.0524091 0.373907 0)
(0.241489 -0.0767834 0)
(-0.155483 0.0159017 0)
(-0.0568651 -0.208714 0)
(0.102738 0.0882653 0)
(0.0321053 -0.0221345 0)
(0.127405 -0.205341 0)
(0.154764 -0.0494603 0)
(0.125132 0.00343607 0)
(-0.139 0.265146 0)
(-0.271065 0.120117 0)
(-0.428265 0.168866 0)
(-0.535283 0.165411 0)
(-0.502634 0.0159392 0)
(-0.0519467 -0.483632 0)
(-0.110244 -0.545624 0)
(0.0898875 0.025694 0)
(-0.145143 0.430573 0)
(-0.168326 -0.0426822 0)
(-0.194627 0.329748 0)
(-0.228136 0.00571944 0)
(-0.0636164 -0.0379222 0)
(-0.186484 -0.214948 0)
(0.218142 0.0881927 0)
(0.289718 0.148214 0)
(0.0162611 0.263433 0)
(0.0721145 -0.333159 0)
(0.200123 0.0770325 0)
(0.195756 -0.0441258 0)
(0.0264491 -0.14978 0)
(-0.100293 0.136267 0)
(-0.142328 0.20508 0)
(-0.254352 0.392279 0)
(-0.334738 0.252796 0)
(-0.401578 0.113949 0)
(-0.472806 0.0370994 0)
(-0.564686 0.0987753 0)
(0.0332401 -0.361478 0)
(-0.211894 -0.556156 0)
(-0.325038 0.178478 0)
(-0.0415809 0.53538 0)
(0.168942 0.0229201 0)
(-0.152997 0.263541 0)
(-0.0369725 0.0391188 0)
(-0.174262 0.0505239 0)
(-0.459613 -0.0555997 0)
(-0.250799 -0.034614 0)
(0.00796506 0.186108 0)
(-0.0171687 0.218279 0)
(-0.0997515 -0.325733 0)
(-0.0844644 -0.00341584 0)
(0.00448369 0.168917 0)
(-0.0888806 -0.0344224 0)
(-0.118927 0.173325 0)
(-0.157704 0.196875 0)
(-0.158738 0.52985 0)
(-0.00337756 0.402029 0)
(-0.0482962 0.210315 0)
(-0.103761 0.267214 0)
(-0.0391667 0.198778 0)
(0.00549328 -0.319316 0)
(-0.0833704 -0.286052 0)
(-0.125612 -0.175977 0)
(-0.0294663 0.186038 0)
(-0.0722935 0.100713 0)
(-0.0993419 0.308633 0)
(-0.0201601 0.0957869 0)
(-0.0557867 0.120189 0)
(0.0355534 0.12546 0)
(-0.0513979 -0.405362 0)
(0.0985266 -0.00166932 0)
(-0.0253116 0.282315 0)
(0.238172 -0.156819 0)
(-0.0148567 -0.111275 0)
(0.200674 0.0520911 0)
(0.151359 -0.00178941 0)
(0.00281307 0.180732 0)
(-0.0997625 0.201525 0)
(-0.125981 0.503044 0)
(0.0825503 0.574889 0)
(-0.0107478 0.253341 0)
(-0.0101244 0.203947 0)
(0.242239 0.0916752 0)
(-0.0803946 -0.43595 0)
(-0.29721 -0.298601 0)
(-0.423827 -0.0754 0)
(-0.246261 0.199331 0)
(-0.117884 0.13752 0)
(-0.10339 0.274832 0)
(-0.0858714 0.0454406 0)
(-0.126722 0.121361 0)
(-0.0231904 -0.0164477 0)
(-0.198265 -0.121298 0)
(-0.159652 0.0445978 0)
(-0.0888527 0.0164245 0)
(0.0267339 -0.207324 0)
(-0.157356 -0.117846 0)
(0.152084 0.086717 0)
(-0.146715 0.212823 0)
(-0.134695 0.241319 0)
(-0.238505 0.276836 0)
(-0.367942 0.418386 0)
(-0.266336 0.38292 0)
(-0.180366 0.360092 0)
(-0.215962 0.00196244 0)
(-0.0596097 -0.194676 0)
(-0.016531 -0.13026 0)
(-0.353547 -0.126926 0)
(-0.46556 -0.0651287 0)
(-0.430412 0.00474114 0)
(-0.249726 0.150138 0)
(-0.0869899 0.192938 0)
(0.142859 0.0413438 0)
(-0.0749511 0.175749 0)
(-0.126247 -0.0317084 0)
(-0.187098 -0.0688231 0)
(-0.175914 -0.0902063 0)
(-0.200786 0.121792 0)
(-0.164781 -0.207323 0)
(-0.283841 -0.148734 0)
(-0.256243 0.136366 0)
(-0.3922 0.304063 0)
(-0.389506 0.358237 0)
(-0.522841 0.484645 0)
(-0.569496 0.433425 0)
(-0.432851 0.116542 0)
(-0.269243 0.110372 0)
(-0.157191 -0.124873 0)
(-0.0624998 -0.230839 0)
(-0.200571 0.0752149 0)
(-0.215102 -0.042751 0)
(-0.404692 -0.0589044 0)
(-0.436489 -0.0469756 0)
(-0.241504 0.120141 0)
(-0.0262978 0.0137915 0)
(0.0335567 0.0449303 0)
(0.0979755 0.26728 0)
(-0.0271164 0.0667 0)
(-0.0737144 -0.0587087 0)
(-0.179614 -0.11281 0)
(-0.336584 -0.118473 0)
(-0.361309 -0.0671492 0)
(-0.372306 -0.0781591 0)
(-0.604654 0.263485 0)
(-0.4869 0.237673 0)
(-0.441924 0.36414 0)
(-0.549481 0.458333 0)
(-0.521792 0.283427 0)
(-0.306703 -0.0838499 0)
(-0.205305 -0.0588398 0)
(-0.175334 -0.150718 0)
(-0.152488 -0.174386 0)
(-0.0629834 0.305517 0)
(-0.087988 0.0867525 0)
(-0.331332 -0.149576 0)
(-0.21928 -0.048524 0)
(-0.174029 0.0202563 0)
(-0.127009 -0.0862691 0)
(0.0545419 -0.0632134 0)
(0.136714 0.221305 0)
(0.166592 0.37649 0)
(-0.0199198 0.228422 0)
(-0.450565 0.173341 0)
(-0.567111 0.0889352 0)
(-0.768506 0.0578335 0)
(-0.805764 0.0893159 0)
(-0.697997 0.22793 0)
(-0.616002 0.176884 0)
(-0.54919 0.279801 0)
(-0.517599 0.293252 0)
(-0.403653 0.201864 0)
(-0.263485 -0.102501 0)
(-0.298275 -0.0731649 0)
(-0.314477 -0.256901 0)
(-0.421128 -0.182892 0)
(-0.0471012 0.666826 0)
(-0.174474 0.14404 0)
(-0.295987 -0.0838719 0)
(-0.176012 -0.0657486 0)
(-0.0734846 -0.171899 0)
(-0.0908555 -0.118081 0)
(0.0206667 -0.0950585 0)
(0.0911344 0.0291778 0)
(0.11714 0.370505 0)
(-0.0648631 0.408284 0)
(-0.475034 0.362767 0)
(-0.671158 0.114189 0)
(-0.781627 0.0811124 0)
(-0.770722 0.185625 0)
(-0.817097 0.233006 0)
(-0.894581 0.195622 0)
(-0.779366 0.250327 0)
(-0.531979 0.248367 0)
(-0.439486 0.085015 0)
(-0.484509 -0.180307 0)
(-0.652032 -0.191859 0)
(-0.8339 -0.0689032 0)
(-0.776966 -0.120708 0)
(0.0480825 0.750017 0)
(-0.0979323 0.153678 0)
(-0.185458 -0.10543 0)
(-0.116028 -0.0924945 0)
(-0.025389 -0.179771 0)
(-0.0522932 -0.218613 0)
(-0.122222 -0.142301 0)
(-0.147437 0.0229758 0)
(-0.122495 0.314742 0)
(-0.181045 0.587513 0)
(-0.576932 0.497564 0)
(-0.62409 0.322421 0)
(-0.650386 0.314466 0)
(-0.796434 0.427731 0)
(-1.17296 0.301494 0)
(-1.32731 0.271914 0)
(-0.916655 0.0116466 0)
(-0.658876 -0.0180422 0)
(-0.825851 -0.0639535 0)
(-1.08743 0.0336754 0)
(-1.00458 0.124924 0)
(-0.951503 0.0112076 0)
(-0.878133 -0.116781 0)
(0.0843113 0.692218 0)
(0.0607865 0.255974 0)
(0.0263303 0.026877 0)
(-0.051397 -0.176901 0)
(-0.108607 -0.108083 0)
(-0.155721 -0.237991 0)
(-0.188966 -0.0805173 0)
(-0.315769 0.227311 0)
(-0.343392 0.436949 0)
(-0.415529 0.623132 0)
(-0.675299 0.567511 0)
(-0.595539 0.41646 0)
(-0.475293 0.442809 0)
(-0.523035 0.553999 0)
(-0.860318 0.180358 0)
(-1.15683 0.0169731 0)
(-0.837191 0.240709 0)
(-0.786289 0.0754713 0)
(-0.918258 0.0360532 0)
(-0.964518 0.0870758 0)
(-0.951282 0.121452 0)
(-0.869214 0.0149348 0)
(-0.826456 -0.0608144 0)
(0.0932427 0.431356 0)
(0.117409 0.229972 0)
(0.0283749 0.104766 0)
(-0.0875944 -0.0628648 0)
(-0.168676 -0.037323 0)
(-0.269778 -0.0546871 0)
(-0.321144 -0.0208287 0)
(-0.551218 0.118934 0)
(-0.674606 0.415718 0)
(-0.643743 0.578402 0)
(-0.763354 0.645071 0)
(-0.799256 0.56994 0)
(-1.17835 0.657785 0)
(-1.57427 0.660424 0)
(-1.68108 0.390854 0)
(-1.58622 0.235256 0)
(-1.40355 0.120035 0)
(-1.39143 0.0595812 0)
(-1.26823 0.0742851 0)
(-1.22226 0.0394823 0)
(-1.12536 0.0419029 0)
(-1.05904 -0.0866624 0)
(-0.954401 -0.221381 0)
(0.0561964 0.370006 0)
(0.110366 0.253149 0)
(0.0395283 0.159126 0)
(-0.0218369 0.0767344 0)
(-0.214492 0.0787521 0)
(-0.283378 0.0981323 0)
(-0.320929 0.11199 0)
(-0.538064 0.208998 0)
(-0.727994 0.481927 0)
(-0.656206 0.703574 0)
(-0.715259 0.831176 0)
(-0.930853 0.885493 0)
(-1.34538 0.817952 0)
(-1.48174 0.613872 0)
(-1.4762 0.441123 0)
(-1.56109 0.264995 0)
(-1.62622 0.168893 0)
(-1.16644 0.0790412 0)
(-1.00598 0.025076 0)
(-0.971594 -0.043078 0)
(-0.806756 -0.0715685 0)
(-0.590229 -0.285183 0)
(-0.477116 -0.32996 0)
(-0.0559855 0.219904 0)
(0.000133944 0.25643 0)
(0.00251016 0.196802 0)
(-0.112213 0.139288 0)
(-0.220086 0.192168 0)
(-0.290053 0.233975 0)
(-0.308332 0.24982 0)
(-0.36011 0.323841 0)
(-0.479229 0.553659 0)
(-0.495189 0.827187 0)
(-0.481877 0.92076 0)
(-0.5786 1.13955 0)
(-0.756044 1.04716 0)
(-0.970043 0.532983 0)
(-1.0172 0.207797 0)
(-1.10709 0.00306262 0)
(-1.21645 0.235086 0)
(-1.20848 0.319916 0)
(-1.14844 0.0420318 0)
(-0.788795 -0.0815825 0)
(-0.468142 -0.260655 0)
(-0.462072 -0.358218 0)
(-0.584082 -0.39131 0)
(0.0116341 0.204802 0)
(0.0161269 0.221488 0)
(-0.0218752 0.23917 0)
(-0.0511024 0.19599 0)
(-0.185797 0.243929 0)
(-0.265104 0.2427 0)
(-0.284862 0.356618 0)
(-0.300583 0.385582 0)
(-0.307554 0.518519 0)
(-0.382176 0.784801 0)
(-0.159308 0.930894 0)
(0.110811 1.05637 0)
(0.144528 1.29382 0)
(-0.315229 0.974509 0)
(-0.0588875 0.728606 0)
(-0.547792 0.394289 0)
(-0.576148 -0.0637436 0)
(-0.343401 -0.490464 0)
(-0.518803 -0.198406 0)
(-0.689731 0.0330527 0)
(-0.444517 -0.327678 0)
(-0.339847 -0.350443 0)
(-0.656669 -0.369585 0)
(-0.0591493 0.360352 0)
(0.00301491 0.325686 0)
(0.0133888 0.253901 0)
(-0.0767189 0.274688 0)
(-0.178769 0.276183 0)
(-0.185413 0.321163 0)
(-0.15282 0.370471 0)
(-0.263926 0.368834 0)
(-0.234402 0.541017 0)
(-0.105755 0.733593 0)
(-0.0389573 1.03076 0)
(0.15467 0.887195 0)
(0.182888 1.08997 0)
(0.138987 0.929905 0)
(0.603272 0.762495 0)
(0.445811 0.526021 0)
(0.252414 0.20912 0)
(0.165873 0.00319544 0)
(-0.0250076 -0.127676 0)
(-0.0659651 -0.124212 0)
(-0.131598 -0.152347 0)
(-0.221743 -0.208 0)
(-0.452468 -0.240139 0)
(0.0251842 0.37058 0)
(-0.0583162 0.331938 0)
(-0.0563674 0.351668 0)
(-0.0149749 0.305758 0)
(-0.0969894 0.281359 0)
(-0.148031 0.38126 0)
(-0.175814 0.398277 0)
(-0.156771 0.408405 0)
(-0.106411 0.644772 0)
(0.0234952 0.651509 0)
(-0.108548 0.847147 0)
(-0.00557917 0.836907 0)
(0.308596 0.964563 0)
(0.454345 0.915601 0)
(0.635191 0.767631 0)
(0.518684 0.619718 0)
(0.519956 0.290008 0)
(0.557304 0.0246917 0)
(0.274748 -0.013128 0)
(0.0827441 0.0347526 0)
(0.0919913 -0.0458813 0)
(0.00153554 -0.0986886 0)
(-0.166215 -0.0247518 0)
(-0.0452054 0.38799 0)
(0.0206337 0.328212 0)
(0.00329389 0.356885 0)
(-0.0900124 0.359761 0)
(-0.0753188 0.340707 0)
(-0.0494982 0.36343 0)
(-0.110922 0.406069 0)
(-0.0712563 0.514927 0)
(-0.133991 0.536582 0)
(-0.0726312 0.607177 0)
(-0.0730177 0.579217 0)
(0.0351886 0.87852 0)
(0.215383 0.784644 0)
(0.380534 0.800076 0)
(0.576977 0.592732 0)
(0.528347 0.573103 0)
(0.529299 0.45487 0)
(0.513761 0.135026 0)
(0.226621 -0.00508338 0)
(0.223975 0.0390164 0)
(0.164002 0.0273796 0)
(0.0625924 0.0229954 0)
(-0.0499338 0.106529 0)
(-0.00850689 0.435224 0)
(-0.0536856 0.465897 0)
(0.00139843 0.380441 0)
(-0.00162796 0.360134 0)
(-0.0592734 0.526588 0)
(-0.0679763 0.40327 0)
(-0.0437712 0.362096 0)
(-0.0979398 0.406022 0)
(-0.12394 0.368224 0)
(-0.0622961 0.493141 0)
(0.105202 0.510495 0)
(-0.000290043 0.710184 0)
(0.103904 0.696909 0)
(0.409325 0.668731 0)
(0.444663 0.550125 0)
(0.366409 0.347734 0)
(0.388812 0.32579 0)
(0.394341 0.115283 0)
(0.320142 0.0711587 0)
(0.245813 0.122494 0)
(0.178647 0.12125 0)
(0.113756 0.106884 0)
(0.0270205 0.196134 0)
(-0.00299874 0.452053 0)
(-0.0080528 0.477727 0)
(-0.0764631 0.515085 0)
(0.0450816 0.489154 0)
(-0.000654241 0.469496 0)
(-0.131857 0.378323 0)
(-0.0855775 0.337751 0)
(-0.0882186 0.332825 0)
(-0.0944121 0.360978 0)
(0.00474613 0.45719 0)
(0.183478 0.509103 0)
(0.192308 0.424309 0)
(0.203107 0.607936 0)
(0.211848 0.52205 0)
(0.170746 0.377631 0)
(0.256229 0.342964 0)
(0.366144 0.30463 0)
(0.284409 0.25704 0)
(0.258014 0.19397 0)
(0.257927 0.17941 0)
(0.110247 0.154515 0)
(0.121937 0.199253 0)
(0.109815 0.233134 0)
(0.0133573 0.461682 0)
(0.00249701 0.526008 0)
(0.0278071 0.525372 0)
(-0.0253314 0.524522 0)
(-0.11462 0.388125 0)
(-0.131991 0.392731 0)
(-0.0542601 0.381273 0)
(-0.0665404 0.348307 0)
(-0.0212597 0.429544 0)
(0.132475 0.552661 0)
(0.128781 0.501013 0)
(0.143888 0.41094 0)
(0.182291 0.399125 0)
(0.220549 0.307261 0)
(0.160704 0.369351 0)
(0.225842 0.473201 0)
(0.309939 0.324788 0)
(0.256075 0.316646 0)
(0.20999 0.33888 0)
(0.18036 0.273066 0)
(0.161391 0.240173 0)
(0.168538 0.31571 0)
(0.107684 0.349507 0)
(0.0477323 0.389016 0)
(0.044427 0.443514 0)
(-0.067352 0.439386 0)
(-0.0899922 0.408252 0)
(-0.084483 0.38987 0)
(-0.0851402 0.384471 0)
(-0.0872569 0.543685 0)
(-0.0123834 0.42552 0)
(0.0905469 0.534908 0)
(0.08973 0.496914 0)
(0.0938302 0.446829 0)
(0.129415 0.445385 0)
(0.135085 0.423624 0)
(0.20006 0.350094 0)
(0.241576 0.377842 0)
(0.220115 0.443663 0)
(0.223435 0.375992 0)
(0.223582 0.327634 0)
(0.195837 0.318218 0)
(0.140691 0.250965 0)
(0.155334 0.344607 0)
(0.245698 0.354966 0)
(0.18007 0.346341 0)
(-0.0193948 0.311717 0)
(-0.00918023 0.299748 0)
(-0.0231105 0.327121 0)
(-0.0347838 0.378526 0)
(-0.0812724 0.409771 0)
(0.0522255 0.40444 0)
(0.0425311 0.470037 0)
(-0.0596645 0.486403 0)
(0.0549759 0.476209 0)
(0.0509324 0.433021 0)
(0.105322 0.431745 0)
(0.133188 0.435028 0)
(0.113808 0.416825 0)
(0.169612 0.424381 0)
(0.229917 0.366523 0)
(0.222205 0.275978 0)
(0.241019 0.286934 0)
(0.192938 0.23516 0)
(0.162249 0.242105 0)
(0.171974 0.255507 0)
(0.248737 0.3227 0)
(0.21544 0.304882 0)
(0.197915 0.281945 0)
(-0.0188285 0.416148 0)
(-0.0157778 0.358966 0)
(-0.0256656 0.370205 0)
(-0.00534261 0.390754 0)
(-0.0380645 0.402601 0)
(0.0206424 0.514919 0)
(0.0123665 0.341338 0)
(0.0193518 0.426512 0)
(0.0464523 0.399752 0)
(0.0611477 0.406074 0)
(0.115979 0.40661 0)
(0.121634 0.389608 0)
(0.106573 0.378988 0)
(0.154638 0.415807 0)
(0.165168 0.35448 0)
(0.195709 0.244247 0)
(0.213968 0.273865 0)
(0.181034 0.260381 0)
(0.227283 0.288642 0)
(0.22983 0.295549 0)
(0.209329 0.300197 0)
(0.222717 0.301601 0)
(0.216967 0.322392 0)
(-0.0644201 0.355269 0)
(-0.0561771 0.332263 0)
(-0.0329157 0.355334 0)
(0.00141649 0.381888 0)
(0.0660349 0.35357 0)
(0.022464 0.411736 0)
(-0.0123917 0.364083 0)
(0.0430383 0.454023 0)
(0.0468374 0.373876 0)
(0.0565175 0.396391 0)
(0.0910845 0.384768 0)
(0.111894 0.357892 0)
(0.159715 0.33581 0)
(0.160821 0.315987 0)
(0.0811942 0.327468 0)
(0.180705 0.347195 0)
(0.238764 0.31063 0)
(0.218995 0.29384 0)
(0.201811 0.270321 0)
(0.204259 0.250462 0)
(0.257756 0.267 0)
(0.247094 0.257074 0)
(0.199259 0.290739 0)
(-0.0135128 0.261344 0)
(-0.0124618 0.297808 0)
(-0.00507871 0.328747 0)
(0.00357793 0.350062 0)
(0.0358511 0.332882 0)
(0.0526725 0.25757 0)
(0.0880084 0.329117 0)
(0.0446065 0.380824 0)
(-0.0116974 0.311796 0)
(0.056802 0.34128 0)
(0.0667538 0.350099 0)
(0.0877132 0.327109 0)
(0.129221 0.349998 0)
(0.172747 0.330771 0)
(0.181621 0.282483 0)
(0.198226 0.333599 0)
(0.16355 0.272665 0)
(0.142912 0.228106 0)
(0.190506 0.195943 0)
(0.246523 0.191415 0)
(0.238195 0.217123 0)
(0.259257 0.182827 0)
(0.230132 0.196124 0)
(-0.00605962 0.301529 0)
(-0.00638503 0.305571 0)
(-0.00030505 0.317333 0)
(0.0116743 0.328149 0)
(0.0294633 0.326274 0)
(0.0403497 0.295704 0)
(0.0626573 0.313277 0)
(0.0421014 0.259541 0)
(0.0451357 0.307587 0)
(0.0851907 0.29254 0)
(0.0750294 0.338332 0)
(0.117968 0.332907 0)
(0.186159 0.335516 0)
(0.103914 0.363591 0)
(0.104548 0.322057 0)
(0.190415 0.283638 0)
(0.150275 0.241639 0)
(0.158531 0.268251 0)
(0.17515 0.269236 0)
(0.233615 0.271624 0)
(0.272875 0.254131 0)
(0.226492 0.198621 0)
(0.260071 0.198828 0)
(-0.00313359 0.299848 0)
(-0.0029811 0.29587 0)
(0.00313511 0.30498 0)
(0.0183477 0.312408 0)
(0.027804 0.30765 0)
(0.0452476 0.289579 0)
(0.0623403 0.304796 0)
(0.0499521 0.28517 0)
(0.0468715 0.319611 0)
(0.0773407 0.298 0)
(0.0990889 0.279 0)
(0.101213 0.309514 0)
(0.175806 0.307474 0)
(0.167998 0.27384 0)
(0.140089 0.303973 0)
(0.127185 0.24898 0)
(0.152001 0.268812 0)
(0.189174 0.282987 0)
(0.189965 0.285881 0)
(0.213787 0.303902 0)
(0.194522 0.220638 0)
(0.1897 0.245629 0)
(0.260234 0.271533 0)
(-0.00344305 0.295493 0)
(0.00166197 0.285283 0)
(0.00502137 0.2965 0)
(0.0179563 0.306289 0)
(0.0203554 0.299289 0)
(0.039679 0.281601 0)
(0.0510087 0.296 0)
(0.0603531 0.290584 0)
(0.0633793 0.300904 0)
(0.0294552 0.30501 0)
(0.0808438 0.278666 0)
(0.150893 0.299994 0)
(0.157187 0.305938 0)
(0.118654 0.259383 0)
(0.12447 0.274175 0)
(0.162567 0.221624 0)
(0.168879 0.26364 0)
(0.176729 0.214765 0)
(0.190259 0.2303 0)
(0.166261 0.206626 0)
(0.195558 0.185315 0)
(0.273816 0.263777 0)
(0.254983 0.236456 0)
(-0.00338863 0.289647 0)
(0.0055153 0.279554 0)
(0.0100236 0.291626 0)
(0.0207278 0.304493 0)
(0.0192682 0.297769 0)
(0.0403685 0.281316 0)
(0.0531767 0.249941 0)
(0.0616935 0.28809 0)
(0.0740202 0.311851 0)
(0.05913 0.336801 0)
(0.0844842 0.376285 0)
(0.123241 0.326902 0)
(0.134529 0.268429 0)
(0.153185 0.276529 0)
(0.122468 0.288235 0)
(0.132462 0.28159 0)
(0.133883 0.257339 0)
(0.164545 0.228308 0)
(0.178059 0.179244 0)
(0.170197 0.175157 0)
(0.236166 0.222944 0)
(0.232093 0.187987 0)
(0.226397 0.158842 0)
(-0.000195584 0.288021 0)
(0.0104595 0.281119 0)
(0.0121608 0.286917 0)
(0.0222559 0.307931 0)
(0.0221888 0.301342 0)
(-0.00106894 0.284305 0)
(0.0348119 0.274953 0)
(0.111217 0.298398 0)
(0.12564 0.294471 0)
(0.105927 0.280488 0)
(0.0648709 0.318707 0)
(0.0614992 0.283374 0)
(0.109046 0.257602 0)
(0.137514 0.261472 0)
(0.118183 0.257666 0)
(0.119084 0.297198 0)
(0.126496 0.203957 0)
(0.13196 0.228741 0)
(0.140483 0.185476 0)
(0.182776 0.225237 0)
(0.178138 0.225081 0)
(0.20751 0.138978 0)
(0.221361 0.174085 0)
(0.00218696 0.289907 0)
(0.00970691 0.281422 0)
(0.0148058 0.28776 0)
(0.0312088 0.307489 0)
(0.034236 0.304479 0)
(0.0272638 0.28429 0)
(0.0438552 0.349062 0)
(0.0735651 0.306824 0)
(0.0720167 0.322806 0)
(0.0650239 0.29868 0)
(0.0583783 0.190375 0)
(0.0570614 0.232732 0)
(0.114267 0.27069 0)
(0.15067 0.22406 0)
(0.15301 0.244792 0)
(0.0752946 0.265327 0)
(0.0799305 0.253285 0)
(0.157529 0.254628 0)
(0.176431 0.206905 0)
(0.201466 0.233365 0)
(0.118398 0.190988 0)
(0.168046 0.196571 0)
(0.205349 0.11309 0)
(0.00278121 0.282454 0)
(0.0120919 0.270572 0)
(0.0122085 0.28165 0)
(0.0312646 0.295724 0)
(0.0373864 0.286157 0)
(0.0403806 0.25747 0)
(0.0502286 0.271807 0)
(0.0949502 0.275043 0)
(0.115494 0.272066 0)
(-0.0214357 0.266149 0)
(0.00741945 0.290487 0)
(0.102262 0.220662 0)
(0.106927 0.262013 0)
(0.106606 0.244776 0)
(0.159591 0.214832 0)
(0.131743 0.192206 0)
(0.12171 0.250127 0)
(0.112344 0.256119 0)
(0.131671 0.232501 0)
(0.185955 0.192856 0)
(0.14491 0.141824 0)
(0.143845 0.14825 0)
(0.142496 0.112186 0)
(0.00159303 0.274548 0)
(0.0119954 0.262778 0)
(0.0132781 0.267782 0)
(0.0205147 0.291041 0)
(0.0261664 0.271391 0)
(0.0478977 0.261649 0)
(0.0565029 0.25148 0)
(0.0520451 0.21559 0)
(0.0739922 0.212615 0)
(0.0898262 0.206265 0)
(0.0115126 0.287408 0)
(0.0181895 0.244945 0)
(0.132594 0.248219 0)
(0.105891 0.240757 0)
(0.0943398 0.221309 0)
(0.105738 0.183709 0)
(0.151955 0.170308 0)
(0.149505 0.187557 0)
(0.119472 0.207286 0)
(0.115697 0.13946 0)
(0.114931 0.129882 0)
(0.159013 0.138686 0)
(0.184083 0.119782 0)
(0.000600652 0.274787 0)
(0.00847789 0.257001 0)
(0.0111283 0.262052 0)
(0.0131448 0.293919 0)
(0.0242 0.231984 0)
(0.0459701 0.266783 0)
(-0.00453267 0.272826 0)
(0.0406178 0.237633 0)
(0.0861875 0.255395 0)
(0.0802645 0.202897 0)
(0.0428103 0.195453 0)
(0.0553549 0.297279 0)
(0.100807 0.253157 0)
(0.0756062 0.215257 0)
(0.095427 0.217283 0)
(0.082391 0.216078 0)
(0.110146 0.201935 0)
(0.13032 0.153351 0)
(0.119434 0.175132 0)
(0.10195 0.181026 0)
(0.150615 0.181344 0)
(0.157315 0.165637 0)
(0.116756 0.0748184 0)
(-0.00433369 0.280667 0)
(0.00466511 0.263562 0)
(0.0167673 0.272997 0)
(-0.0206504 0.307577 0)
(0.0128249 0.270514 0)
(0.0849476 0.286753 0)
(0.038793 0.28456 0)
(0.0300688 0.32955 0)
(0.0176777 0.276039 0)
(0.0468301 0.241771 0)
(0.0919763 0.229321 0)
(0.0597828 0.256536 0)
(0.0679932 0.194504 0)
(0.0714991 0.204958 0)
(0.0792441 0.209888 0)
(0.0807881 0.205095 0)
(0.0798373 0.205084 0)
(0.116545 0.183737 0)
(0.160736 0.200387 0)
(0.133422 0.195483 0)
(0.0953616 0.196145 0)
(0.109296 0.101438 0)
(0.0733882 0.104592 0)
(-0.0061049 0.272236 0)
(0.00682955 0.230434 0)
(0.0235714 0.27338 0)
(0.00592598 0.309717 0)
(0.0254168 0.363564 0)
(0.0436041 0.296044 0)
(0.016866 0.284859 0)
(0.0348068 0.312322 0)
(0.0246853 0.271955 0)
(0.0426485 0.333923 0)
(0.0540977 0.249121 0)
(-0.00851405 0.25602 0)
(0.0470126 0.224155 0)
(0.0879772 0.224355 0)
(0.0768661 0.20584 0)
(0.0602913 0.200223 0)
(0.0667932 0.19021 0)
(0.124812 0.184937 0)
(0.131597 0.174311 0)
(0.0813351 0.121174 0)
(0.0680564 0.11336 0)
(0.108907 0.104618 0)
(0.103482 0.0938772 0)
(-0.0328157 0.293079 0)
(0.0176716 0.278489 0)
(0.0608243 0.292172 0)
(0.0316732 0.293876 0)
(0.0264094 0.316895 0)
(0.0414581 0.287231 0)
(0.0291107 0.288937 0)
(0.0155395 0.306181 0)
(0.0175445 0.267834 0)
(0.0376665 0.293446 0)
(0.0371635 0.252184 0)
(0.0337714 0.269809 0)
(0.0332079 0.30153 0)
(0.0451619 0.238832 0)
(0.0372782 0.218567 0)
(0.0434735 0.16642 0)
(0.0464921 0.200559 0)
(0.089658 0.163294 0)
(0.101369 0.140933 0)
(0.0649052 0.138149 0)
(0.0742545 0.118989 0)
(0.0987732 0.124251 0)
(0.0651199 0.0832661 0)
(-0.000491655 0.271014 0)
(0.00587768 0.356396 0)
(0.00677014 0.304784 0)
(0.0202511 0.30316 0)
(0.0254356 0.3281 0)
(0.0323013 0.303052 0)
(0.0229172 0.295296 0)
(0.0158655 0.361331 0)
(0.0150659 0.225544 0)
(0.0275954 0.34988 0)
(0.0199129 0.215519 0)
(0.017429 0.266687 0)
(0.00858864 0.31492 0)
(0.0321554 0.231989 0)
(-0.0100501 0.171925 0)
(0.0323097 0.207791 0)
(0.0426006 0.156103 0)