/*--------------------------------*- C++ -*----------------------------------*\
| =========                 |                                                 |
| \\      /  F ield         | foam-extend: Open Source CFD                    |
|  \\    /   O peration     | Version:     4.1                                |
|   \\  /    A nd           | Web:         http://www.foam-extend.org         |
|    \\/     M anipulation  |                                                 |
\*---------------------------------------------------------------------------*/
FoamFile
{
    version     2.0;
    format      ascii;
    class       surfaceScalarField;
    location    "0.1";
    object      phi;
}
// * * * * * * * * * * * * * * * * * * * * * * * * * * * * * * * * * * * * * //

dimensions      [0 3 -1 0 0 0 0];

internalField   nonuniform List<scalar> 
4432
(
5.60588e-06
-5.60588e-06
1.1183e-05
-5.5771e-06
1.70359e-05
-5.8529e-06
2.25012e-05
-5.46536e-06
2.8845e-05
-6.34376e-06
3.41508e-05
-5.30579e-06
4.07574e-05
-6.6066e-06
4.636e-05
-5.60257e-06
5.11438e-05
-4.78386e-06
5.61109e-05
-4.96708e-06
8.63707e-05
-3.02598e-05
0.000101361
-1.49903e-05
0.000114147
-1.27855e-05
0.000131027
-1.68808e-05
0.000148064
-1.70371e-05
0.0001619
-1.3836e-05
0.000172566
-1.06653e-05
0.00017779
-5.22459e-06
0.000180959
-3.16845e-06
0.000184693
-3.7342e-06
0.000188732
-4.03881e-06
0.000170058
1.86741e-05
0.000170058
5.6148e-06
-1.12207e-05
1.12025e-05
-1.11648e-05
1.70709e-05
-1.17213e-05
2.25366e-05
-1.0931e-05
2.89126e-05
-1.27198e-05
3.42586e-05
-1.06518e-05
4.06208e-05
-1.29688e-05
4.65254e-05
-1.15071e-05
5.11428e-05
-9.40127e-06
5.53728e-05
-9.19709e-06
8.45117e-05
-5.93987e-05
9.89524e-05
-2.9431e-05
0.000112834
-2.66666e-05
0.000129232
-3.32791e-05
0.000145945
-3.37505e-05
0.000159944
-2.78351e-05
0.000169202
-1.99232e-05
0.00017701
-1.30326e-05
0.000188216
-1.43739e-05
0.000197622
-1.31403e-05
0.00019612
-2.5367e-06
0.000161691
5.3103e-05
0.000331748
5.60482e-06
-1.68255e-05
1.11874e-05
-1.67474e-05
1.70549e-05
-1.75888e-05
2.2502e-05
-1.63781e-05
2.89166e-05
-1.91344e-05
3.42488e-05
-1.5984e-05
4.08419e-05
-1.9562e-05
4.78114e-05
-1.84766e-05
4.91563e-05
-1.07462e-05
8.72969e-05
-4.73377e-05
8.52776e-05
-5.73794e-05
9.74015e-05
-4.15549e-05
0.000112023
-4.12885e-05
0.000126608
-4.78634e-05
0.000143782
-5.09249e-05
0.000157788
-4.18407e-05
0.000169506
-3.16414e-05
0.000179098
-2.2625e-05
0.000192802
-2.80773e-05
0.000199714
-2.00521e-05
0.000191577
5.59941e-06
0.000154496
9.01838e-05
0.000486244
5.59067e-06
-2.24162e-05
1.11672e-05
-2.2324e-05
1.70381e-05
-2.34596e-05
2.24312e-05
-2.17712e-05
2.90286e-05
-2.57318e-05
3.38913e-05
-2.08468e-05
4.17251e-05
-2.73957e-05
4.63353e-05
-2.30868e-05
7.87173e-05
-4.31282e-05
8.42345e-05
-5.28549e-05
8.58277e-05
-5.89726e-05
9.75168e-05
-5.3244e-05
0.000112158
-5.59293e-05
0.000124658
-6.03634e-05
0.000138502
-6.47693e-05
0.000158106
-6.14452e-05
0.000172771
-4.63056e-05
0.000185973
-3.58269e-05
0.000199217
-4.13221e-05
0.000201012
-2.18473e-05
0.000182345
2.42672e-05
9.88081e-05
0.00017372
0.000585054
5.57015e-06
-2.79863e-05
1.11432e-05
-2.7897e-05
1.70025e-05
-2.93189e-05
2.23955e-05
-2.71641e-05
2.88528e-05
-3.21891e-05
3.44085e-05
-2.64026e-05
4.14099e-05
-3.43971e-05
4.46409e-05
-2.63178e-05
7.28927e-05
-7.138e-05
7.88777e-05
-5.88398e-05
8.46949e-05
-6.47898e-05
9.86097e-05
-6.71588e-05
0.000112176
-6.94961e-05
0.000124444
-7.26308e-05
0.000137173
-7.74981e-05
0.000152145
-7.64173e-05
0.000175735
-6.9896e-05
0.000191668
-5.17598e-05
0.000202659
-5.23127e-05
0.000195736
-1.49246e-05
0.000164271
5.57332e-05
3.3575e-05
0.000304416
0.00061863
5.54221e-06
-3.35285e-05
1.11165e-05
-3.34714e-05
1.69462e-05
-3.51486e-05
2.23614e-05
-3.25793e-05
2.8759e-05
-3.85866e-05
3.54013e-05
-3.30449e-05
3.99744e-05
-3.89702e-05
6.78524e-05
-5.41958e-05
6.92139e-05
-7.27416e-05
7.75451e-05
-6.7171e-05
8.66111e-05
-7.38559e-05
9.88296e-05
-7.93772e-05
0.000111375
-8.20412e-05
0.000123274
-8.45307e-05
0.000135101
-8.93248e-05
0.000152515
-9.38314e-05
0.000175476
-9.28569e-05
0.00019182
-6.81043e-05
0.000196944
-5.74362e-05
0.000181132
8.87862e-07
0.000108694
0.000128172
1.67483e-05
0.000396361
0.000635379
5.5074e-06
-3.90359e-05
1.10772e-05
-3.90411e-05
1.6941e-05
-4.10124e-05
2.21726e-05
-3.78109e-05
2.93199e-05
-4.57339e-05
3.40386e-05
-3.77636e-05
3.73316e-05
-4.22632e-05
6.34212e-05
-8.02853e-05
6.83152e-05
-7.76356e-05
7.70728e-05
-7.59286e-05
8.6613e-05
-8.33961e-05
9.77987e-05
-9.05629e-05
0.000109315
-9.35572e-05
0.000120839
-9.60546e-05
0.000133664
-0.00010215
0.000151107
-0.000111275
0.000171186
-0.000112936
0.00016788
-6.47976e-05
0.000148148
-3.77044e-05
0.000174832
-2.57964e-05
8.78582e-05
0.000215147
2.76116e-05
0.000456607
0.00066299
5.45705e-06
-4.4493e-05
1.10542e-05
-4.46382e-05
1.69374e-05
-4.68956e-05
2.22758e-05
-4.31494e-05
2.96733e-05
-5.31314e-05
3.2149e-05
-4.02393e-05
5.79312e-05
-6.80454e-05
6.09147e-05
-8.32689e-05
6.8153e-05
-8.48739e-05
7.81322e-05
-8.59078e-05
8.7209e-05
-9.24729e-05
9.78617e-05
-0.000101216
0.000108356
-0.000104052
0.000119954
-0.000107653
0.00013329
-0.000115486
0.000150399
-0.000128384
0.000170873
-0.00013341
0.00015566
-4.95842e-05
0.000147653
-2.96973e-05
0.000100111
2.17458e-05
4.2428e-05
0.00027283
3.62584e-05
0.000462777
0.000699249
2.49815e-06
-2.49815e-06
9.36795e-06
-6.86979e-06
1.56855e-05
-6.31754e-06
2.02132e-05
-4.52771e-06
2.16948e-05
-1.4816e-06
2.18852e-05
-1.90388e-07
2.14426e-05
4.42605e-07
2.06596e-05
7.82998e-07
1.95162e-05
1.14339e-06
1.83889e-05
1.12733e-06
1.72702e-05
1.11875e-06
1.56089e-05
1.66132e-06
1.59313e-05
-3.22438e-07
9.25968e-06
6.67164e-06
7.04694e-06
2.21275e-06
4.73336e-06
2.31358e-06
3.03839e-06
1.69499e-06
1.47227e-06
1.56612e-06
1.47228e-06
2.76351e-06
-5.26163e-06
9.74685e-06
-1.38531e-05
1.65798e-05
-1.31504e-05
2.14067e-05
-9.35465e-06
2.29645e-05
-3.03939e-06
2.31807e-05
-4.06555e-07
2.26215e-05
1.0018e-06
2.16984e-05
1.70608e-06
2.04526e-05
2.38926e-06
1.92855e-05
2.29443e-06
1.80941e-05
2.31008e-06
1.67848e-05
2.97063e-06
1.71207e-05
-6.58325e-07
9.28562e-06
1.45068e-05
7.06497e-06
4.43342e-06
4.86494e-06
4.51362e-06
3.14743e-06
3.41252e-06
1.52939e-06
3.18418e-06
3.00168e-06
8.30318e-07
-6.09193e-06
1.12786e-05
-2.43014e-05
1.84841e-05
-2.0356e-05
2.23641e-05
-1.32346e-05
2.35975e-05
-4.2728e-06
2.36396e-05
-4.48605e-07
2.29409e-05
1.70051e-06
2.18888e-05
2.75817e-06
2.04979e-05
3.78016e-06
1.93041e-05
3.48822e-06
1.75222e-05
4.09201e-06
1.65024e-05
3.99048e-06
9.80689e-06
6.03716e-06
9.40251e-06
1.49112e-05
6.81674e-06
7.01921e-06
4.83414e-06
6.49623e-06
3.11569e-06
5.13099e-06
1.51898e-06
4.7809e-06
4.52067e-06
9.75855e-07
-7.06776e-06
1.09463e-05
-3.42718e-05
1.91425e-05
-2.85522e-05
2.35114e-05
-1.76034e-05
2.44699e-05
-5.23133e-06
2.42599e-05
-2.3864e-07
2.33693e-05
2.59112e-06
2.2146e-05
3.98148e-06
2.05732e-05
5.35295e-06
1.92075e-05
4.85392e-06
1.79291e-05
5.37049e-06
1.69757e-05
4.94385e-06
9.79345e-06
1.32194e-05
9.1133e-06
1.55913e-05
6.5792e-06
9.55331e-06
4.75265e-06
8.3228e-06
3.06215e-06
6.82149e-06
1.49907e-06
6.344e-06
6.01974e-06
1.31342e-06
-8.38116e-06
1.25468e-05
-4.55052e-05
2.09666e-05
-3.69719e-05
2.5379e-05
-2.20158e-05
2.56119e-05
-5.46422e-06
2.50394e-05
3.3387e-07
2.39156e-05
3.7149e-06
2.24156e-05
5.48158e-06
2.06432e-05
7.1253e-06
1.92254e-05
6.27177e-06
1.80901e-05
6.50575e-06
1.00196e-05
1.30144e-05
9.70848e-06
1.35305e-05
8.46915e-06
1.68307e-05
6.29361e-06
1.17289e-05
4.63397e-06
9.98245e-06
2.99896e-06
8.45652e-06
1.47402e-06
7.86895e-06
7.49377e-06
8.89335e-06
-1.72745e-05
1.7108e-05
-5.37199e-05
2.3639e-05
-4.35029e-05
2.79371e-05
-2.6314e-05
2.71933e-05
-4.7204e-06
2.62022e-05
1.32497e-06
2.46505e-05
5.26657e-06
2.28282e-05
7.30393e-06
2.03785e-05
9.57498e-06
1.89965e-05
7.65377e-06
1.07067e-05
1.47955e-05
1.00243e-05
1.36969e-05
9.21907e-06
1.43358e-05
8.00071e-06
1.8049e-05
6.07586e-06
1.36537e-05
4.50165e-06
1.15567e-05
2.92963e-06
1.00286e-05
1.44449e-06
9.3541e-06
8.93827e-06
1.21542e-05
-2.94286e-05
2.51058e-05
-6.66716e-05
2.79953e-05
-4.63924e-05
3.00033e-05
-2.8322e-05
2.88738e-05
-3.59087e-06
2.73073e-05
2.89142e-06
2.54398e-05
7.13406e-06
2.26831e-05
1.00607e-05
2.0286e-05
1.1972e-05
1.14422e-05
1.64977e-05
1.0824e-05
1.54137e-05
9.84106e-06
1.46798e-05
8.71703e-06
1.54598e-05
7.56888e-06
1.91972e-05
5.856e-06
1.53666e-05
4.36083e-06
1.30519e-05
2.85486e-06
1.15345e-05
1.41151e-06
1.07975e-05
1.03498e-05
2.83483e-05
-5.77769e-05
3.29801e-05
-7.13034e-05
3.3009e-05
-4.64213e-05
1.79165e-05
-1.32295e-05
1.67042e-05
-2.37854e-06
1.50226e-05
4.57307e-06
1.3787e-05
8.36963e-06
1.25116e-05
1.13361e-05
1.15387e-05
1.29449e-05
1.09184e-05
1.7118e-05
1.0693e-05
1.56391e-05
9.47642e-06
1.58964e-05
8.2237e-06
1.67125e-05
7.09319e-06
2.03277e-05
5.6407e-06
1.68191e-05
4.21701e-06
1.44756e-05
2.77889e-06
1.29727e-05
1.37723e-06
1.21991e-05
1.1727e-05
1.12698e-05
-5.57628e-05
2.30848e-05
-5.64533e-05
3.41279e-05
-5.79387e-05
4.76826e-05
-5.6704e-05
5.95008e-05
-6.49496e-05
0.000101151
-8.18898e-05
0.000117647
-8.45411e-05
0.000129576
-9.51983e-05
0.000145971
-0.000101268
0.000164011
-0.000103949
0.00018305
-0.000111511
0.000205709
-0.000123875
0.000227026
-0.000125369
0.000248675
-0.000129301
0.000273634
-0.000140445
0.000310244
-0.000164994
0.000306416
-0.000129582
0.00027404
-1.72078e-05
0.00022155
2.27922e-05
0.000105904
0.000137392
4.93695e-05
0.000329365
8.05828e-05
0.000431563
0.000428474
0.000351359
1.12019e-05
-6.69646e-05
2.44331e-05
-6.96846e-05
3.68017e-05
-7.03073e-05
6.56107e-05
-8.55131e-05
8.26037e-05
-8.19426e-05
9.68412e-05
-9.61272e-05
0.000111511
-9.92106e-05
0.000124285
-0.000107973
0.00013984
-0.000116824
0.000156382
-0.00012049
0.000175602
-0.000130731
0.000196569
-0.000144841
0.00021498
-0.000143781
0.000234653
-0.000148974
0.000209735
-0.000115526
0.000242109
-0.000197369
0.000227536
-0.000115009
0.000196504
1.38246e-05
0.000109152
0.000110144
2.418e-05
0.000222364
2.86374e-05
0.000324908
0.000201511
0.00025869
0.000261588
0.000368396
1.63246e-05
-8.32892e-05
3.20744e-05
-8.54343e-05
4.89705e-05
-8.72034e-05
6.16974e-05
-9.824e-05
7.88563e-05
-9.91014e-05
9.00962e-05
-0.000107367
0.0001045
-0.000113615
0.000118145
-0.000121618
0.000132788
-0.000131466
0.000149045
-0.000136748
0.000171714
-0.0001534
0.000193679
-0.000166806
0.000198238
-0.00014834
0.000168959
-0.000119695
0.0001891
-0.000135666
0.000198196
-0.000206465
0.000162485
-7.92983e-05
8.65796e-05
8.97299e-05
2.35287e-05
0.000173195
-8.58063e-06
0.000254473
0.000100757
0.00021557
0.000158029
0.000201419
0.000185244
0.000234374
1.54336e-05
-9.87229e-05
3.05887e-05
-0.000100589
4.65189e-05
-0.000103134
5.74051e-05
-0.000109126
7.0795e-05
-0.000112491
8.35261e-05
-0.000120098
9.61933e-05
-0.000126282
0.000109311
-0.000134735
0.000122434
-0.00014459
0.000138084
-0.000152397
0.000157927
-0.000173244
0.000177258
-0.000186137
0.000148244
-0.000119326
0.000155981
-0.000127432
0.00022917
-0.000208855
0.000202954
-0.000180249
0.000136737
-1.3082e-05
6.80242e-05
0.000158443
1.88347e-05
0.000222385
2.62351e-05
0.000247072
6.7602e-05
0.000174203
0.000101827
0.000167194
0.000151491
0.000135579
1.35617e-05
-0.000112285
2.68296e-05
-0.000113857
4.00332e-05
-0.000116337
5.20977e-05
-0.000121191
6.51713e-05
-0.000125565
7.67146e-05
-0.000131642
8.82183e-05
-0.000137786
9.99678e-05
-0.000146484
0.000110414
-0.000155036
0.000122484
-0.000164467
0.000132469
-0.000183229
0.000143503
-0.000197172
0.000144703
-0.000120526
0.000146374
-0.000129104
0.000167996
-0.000230477
0.000153249
-0.000165502
5.06769e-05
8.94899e-05
8.02092e-06
0.000201099
1.02563e-05
0.000220149
4.51862e-05
0.000212142
7.38886e-05
0.0001455
0.000102055
0.000139028
0.000128836
0.00012471
1.22882e-05
-0.000124573
2.44417e-05
-0.000126011
3.66017e-05
-0.000128497
4.78102e-05
-0.000132399
5.88932e-05
-0.000136648
6.97423e-05
-0.000142491
8.00536e-05
-0.000148097
9.03376e-05
-0.000156768
9.88072e-05
-0.000163506
0.000107775
-0.000173434
0.000115835
-0.000191289
0.000125118
-0.000206455
0.000126592
-0.000122
0.000130676
-0.000133188
0.000137957
-0.000237757
5.76206e-05
-8.51654e-05
3.39912e-06
0.000143711
-7.46653e-06
0.000211965
3.66101e-06
0.000209022
6.51704e-05
0.000150633
7.74105e-05
0.00013326
8.67548e-05
0.000129683
0.000119008
9.6583e-05
1.09543e-05
-0.000135527
2.17997e-05
-0.000136856
3.25211e-05
-0.000139219
4.30023e-05
-0.00014288
5.34614e-05
-0.000147107
6.34752e-05
-0.000152505
7.26332e-05
-0.000157255
8.12733e-05
-0.000165409
8.67905e-05
-0.000169023
9.22503e-05
-0.000178894
9.70816e-05
-0.000196121
0.00010409
-0.000213463
0.000108781
-0.000126691
0.000112382
-0.000136788
9.9282e-05
-0.000224658
3.29103e-06
1.08256e-05
-2.7782e-05
0.000174784
-2.11807e-05
0.000205364
4.36456e-05
0.000144196
5.83402e-05
0.000135938
6.60296e-05
0.00012557
7.77053e-05
0.000118008
0.000109059
8.76534e-05
9.73278e-06
-0.00014526
1.94451e-05
-0.000146568
2.91201e-05
-0.000148894
3.87882e-05
-0.000152548
4.82599e-05
-0.000156579
5.78718e-05
-0.000162116
6.67943e-05
-0.000166177
7.47244e-05
-0.000173339
7.57343e-05
-0.000170033
7.65817e-05
-0.000179741
7.67479e-05
-0.000196287
8.40762e-05
-0.000220791
8.95546e-05
-0.000132169
9.34686e-05
-0.000140702
2.48497e-05
-0.000156039
-7.65474e-05
0.000112223
-3.66985e-05
0.000134936
2.81808e-05
0.000140484
3.44304e-05
0.000137946
4.15557e-05
0.000128813
4.46773e-05
0.000122449
4.64913e-05
0.000116194
0.000108999
4.65521e-05
8.49635e-06
-0.000153756
1.70039e-05
-0.000155076
2.54812e-05
-0.000157371
3.4152e-05
-0.000161219
4.30099e-05
-0.000165437
5.20448e-05
-0.000171151
6.04661e-05
-0.000174599
6.57931e-05
-0.000178666
6.27996e-05
-0.000167039
6.01794e-05
-0.000177121
5.63108e-05
-0.000192418
6.43887e-05
-0.000228869
7.20596e-05
-0.00013984
7.54376e-05
-0.00014408
-7.76282e-06
-7.28383e-05
-2.61532e-05
0.000130613
-1.53327e-05
0.000124115
4.04186e-06
0.00012111
1.82513e-05
0.000123737
2.82563e-05
0.000118808
3.55139e-05
0.000115191
4.07911e-05
0.000110916
0.000103887
4.59028e-05
7.25947e-06
-0.000161016
1.45212e-05
-0.000162338
2.19111e-05
-0.000164761
2.96996e-05
-0.000169008
3.83304e-05
-0.000174067
4.71906e-05
-0.000180012
5.73942e-05
-0.000184802
5.99853e-05
-0.000181257
5.54624e-05
-0.000162516
4.82608e-05
-0.000169919
3.71474e-05
-0.000181305
3.5546e-05
-0.000227268
3.98466e-05
-0.000144141
3.39849e-05
-0.000138219
-3.49545e-05
-3.89896e-06
-8.29305e-06
0.000103952
5.06056e-06
0.000110761
7.4143e-06
0.000118756
1.60151e-05
0.000115136
2.076e-05
0.000114063
2.51208e-05
0.00011083
2.92435e-05
0.000106794
0.000101484
3.16461e-05
5.99996e-06
-0.000167016
1.22175e-05
-0.000168555
1.86262e-05
-0.00017117
2.53285e-05
-0.00017571
3.32475e-05
-0.000181986
4.30341e-05
-0.000189798
5.85212e-05
-0.00020029
8.15337e-05
-0.000204269
5.58969e-05
-0.000136879
2.77115e-05
-0.000141734
-1.20757e-06
-0.000152386
5.72214e-06
-0.000234198
5.39611e-06
-0.000143814
7.8599e-05
-0.000211422
3.01349e-05
4.45652e-05
7.25877e-06
0.000126828
6.30241e-06
0.000111718
9.80066e-06
0.000115258
1.22725e-05
0.000112664
1.51494e-05
0.000111186
1.67221e-05
0.000109258
1.67921e-05
0.000106724
0.000104101
1.41749e-05
4.96275e-06
-0.000171978
9.8744e-06
-0.000173467
1.43002e-05
-0.000175596
1.93674e-05
-0.000180777
2.40413e-05
-0.00018666
2.85711e-05
-0.000194328
3.09534e-05
-0.000202672
3.62015e-05
-0.000209517
3.21435e-05
-0.000132821
2.49861e-05
-0.000134577
1.38752e-05
-0.000141275
1.4622e-05
-0.000234944
1.21321e-05
-0.000141325
3.87224e-05
-0.000238012
8.6863e-06
7.46013e-05
7.0712e-06
0.000128443
8.50988e-06
0.000110279
9.85834e-06
0.000113909
9.81436e-06
0.000112708
1.03399e-05
0.000110661
1.02497e-05
0.000109348
8.80296e-06
0.000108171
0.000103892
9.01201e-06
2.95732e-06
-0.000174936
5.82179e-06
-0.000176331
9.96055e-06
-0.000179734
1.43969e-05
-0.000185214
1.6727e-05
-0.00018899
1.99075e-05
-0.000197508
2.08635e-05
-0.000203628
2.29214e-05
-0.000211575
2.2436e-05
-0.000132336
1.95948e-05
-0.000131735
9.97754e-06
-0.000131658
1.70178e-06
-0.000226669
3.19139e-07
-0.000139942
-8.53599e-05
-0.000152333
-3.58547e-05
2.50961e-05
-2.95654e-06
9.55446e-05
2.12375e-06
0.000105199
5.4776e-06
0.000110556
5.06173e-06
0.000113124
5.394e-06
0.000110329
4.91562e-06
0.000109826
7.65457e-06
0.000105432
0.000143956
-3.24095e-05
1.31161e-06
-0.000176247
2.05158e-06
-0.000177071
4.40328e-06
-0.000182086
5.13774e-06
-0.000185948
5.17413e-06
-0.000189027
6.7464e-06
-0.000199081
7.60296e-06
-0.000204485
1.14421e-05
-0.000215414
1.17935e-05
-0.000132687
1.6138e-05
-0.00013608
2.16856e-05
-0.000137205
-5.29748e-05
-0.000152008
-4.86656e-05
-0.000144251
-6.42194e-05
-0.000136779
1.53022e-05
-5.44254e-05
2.20883e-05
8.87585e-05
1.74189e-05
0.000109868
1.09178e-05
0.000117057
2.84367e-06
0.000121198
2.85151e-06
0.000110321
1.24152e-06
0.000111436
-3.55967e-05
0.00014227
0.000128851
-2.04911e-05
1.2826e-06
-0.00017753
2.5663e-06
-0.000178355
3.81285e-06
-0.000183333
2.87444e-06
-0.00018501
3.55823e-06
-0.00018971
1.83197e-06
-0.000197354
-4.20616e-06
-0.000198446
-1.3554e-05
-0.000206067
2.55065e-05
-0.000171748
1.67282e-05
-0.000127302
1.71951e-05
-0.000137672
1.2077e-05
-0.00014689
9.14438e-06
-0.000141318
8.22308e-05
-0.000209865
9.70922e-05
-6.92869e-05
6.91669e-05
0.000116684
3.54997e-05
0.000143536
1.19588e-05
0.000140597
6.16384e-07
0.00013254
-7.55766e-07
0.000111693
-4.4122e-05
0.000154802
-3.03049e-05
0.000128453
0.00012895
-3.04045e-05
6.72654e-07
-0.000178203
1.62524e-06
-0.000179308
1.41044e-06
-0.000183118
1.68454e-06
-0.000185284
2.0953e-06
-0.000190121
2.51516e-07
-0.000195511
-2.97203e-06
-0.000195223
-1.27393e-05
-0.000196299
-1.6846e-05
-0.000167641
9.94386e-06
-0.000154091
1.33824e-05
-0.000141111
1.73867e-05
-0.000150895
3.39999e-05
-0.000157932
3.88746e-05
-0.00021474
3.12885e-05
-6.17008e-05
3.48862e-05
0.000113086
8.06613e-06
0.000170356
-1.0313e-06
0.000149695
-3.74859e-05
0.000168995
-6.80242e-05
0.000142231
-3.78678e-05
0.000124646
-3.35122e-05
0.000124097
0.000122082
-2.66436e-05
8.4917e-07
-0.000179052
2.56953e-06
-0.000181028
4.54095e-06
-0.000185089
3.82086e-06
-0.000184564
-1.65085e-08
-0.000186284
-3.24947e-06
-0.000192278
-3.06425e-06
-0.000195408
-9.46515e-06
-0.000189898
-7.2491e-06
-0.000169857
-1.45118e-05
-0.000146829
7.12708e-06
-0.00016275
2.82848e-05
-0.000172052
7.86863e-05
-0.000208333
5.22185e-05
-0.000188272
4.57625e-05
-5.52448e-05
-2.08888e-05
0.000179737
-2.34621e-05
0.000172929
-7.64048e-05
0.000202638
-7.41494e-05
0.00016674
-6.69247e-05
0.000135007
-6.50294e-05
0.000122751
-6.06838e-05
0.000119752
0.000113477
-5.20787e-05
-4.7832e-06
-0.000174269
-6.04028e-06
-0.000179771
-3.78267e-06
-0.000187347
-7.50345e-06
-0.000180843
-2.05684e-05
-0.000173219
-3.07526e-05
-0.000182093
-2.87895e-05
-0.000197371
-2.52889e-05
-0.000193399
8.66086e-07
-0.000196012
4.87073e-05
-0.00019467
3.48235e-05
-0.000148866
5.92223e-05
-0.000196451
1.62394e-05
-0.00016535
-6.58438e-06
-0.000165449
-3.49951e-05
-2.68341e-05
-6.58101e-05
0.000210552
-0.000143057
0.000250175
-0.000108147
0.000167728
-9.12643e-05
0.000149857
-8.20349e-05
0.000125777
-7.58125e-05
0.000116528
-6.69982e-05
0.000110938
0.000104387
-5.79082e-05
-1.90458e-05
-0.000155223
-4.75904e-05
-0.000151226
-1.49001e-05
-0.000220037
-4.85994e-05
-0.000147143
-5.28661e-05
-0.000168952
-7.07404e-05
-0.000164219
-0.000113044
-0.000155068
-6.24359e-05
-0.000244007
-9.57936e-05
-0.000162655
-5.51696e-05
-0.000235294
-2.10768e-05
-0.000182959
-4.77322e-05
-0.000169796
-5.84447e-05
-0.000154638
-9.69986e-05
-0.000126895
-0.000139162
1.53289e-05
-0.000136683
0.000208074
-0.000108577
0.00022207
-0.000114102
0.000173253
-0.000101133
0.000136888
-9.24435e-05
0.000117088
-8.22463e-05
0.000106331
-7.01624e-05
9.88537e-05
9.16695e-05
-5.74451e-05
-2.4797e-06
-0.000152743
-3.29715e-06
-0.000150409
-5.82667e-05
-0.000165068
-4.47987e-05
-0.000160611
-4.94447e-05
-0.000164306
-5.51164e-05
-0.000158547
-5.27857e-05
-0.000157398
-0.00013595
-0.000160842
-8.60932e-05
-0.000212512
-0.000139673
-0.000181714
-0.000158022
-0.00016461
-0.000160791
-0.000167026
-0.000135693
-0.000179736
-0.000217112
-4.54759e-05
-0.000236265
3.44824e-05
-0.000179053
0.000150861
-0.000128859
0.000171877
-9.0673e-05
0.000135067
-7.19755e-05
0.00011819
-6.03715e-05
0.000105484
-5.14894e-05
9.74491e-05
-4.37493e-05
9.11136e-05
8.5281e-05
-3.73608e-05
-1.13727e-05
-0.00014137
-1.82804e-05
-0.000143501
-3.06442e-05
-0.000152704
-4.10663e-05
-0.000150189
-5.43253e-05
-0.000151047
-6.96325e-05
-0.00014324
-0.000103349
-0.000123681
-0.000133804
-0.000130388
-0.000141903
-0.000204412
-9.32904e-05
-0.000230327
-0.000121979
-0.000135922
-0.000165345
-0.00012366
-0.000279543
-6.55371e-05
-0.000297166
-2.78538e-05
-0.000275525
1.28419e-05
-0.000200744
7.608e-05
-0.000138181
0.000109314
-9.9791e-05
9.66764e-05
-7.98687e-05
9.82679e-05
-6.66527e-05
9.22679e-05
-5.53334e-05
8.61297e-05
-4.67536e-05
8.25338e-05
7.83629e-05
-3.98354e-05
-7.85691e-06
-0.000133513
-1.65764e-05
-0.000134782
-3.24868e-05
-0.000136793
-4.40832e-05
-0.000138593
-7.1125e-05
-0.000124006
-8.61615e-05
-0.000128204
-9.76817e-05
-0.000112161
-5.47684e-05
-0.000173301
-7.77299e-05
-0.000181451
-0.000191623
-0.000116434
-0.000216964
-0.000110581
-0.00025372
-8.6904e-05
-0.00026134
-5.79175e-05
-0.000255169
-3.40239e-05
-0.00023139
-1.09379e-05
-0.000167841
1.25317e-05
-0.000131814
7.32859e-05
-0.000103374
6.8237e-05
-8.21136e-05
7.70073e-05
-6.85546e-05
7.8709e-05
-5.81702e-05
7.57453e-05
-4.97031e-05
7.40668e-05
7.07952e-05
-4.21354e-05
-9.67625e-06
-0.000123837
-2.17842e-05
-0.000122674
-3.74411e-05
-0.000121136
-7.33654e-05
-0.000102669
-3.6954e-05
-0.000160417
-6.73189e-05
-9.78388e-05
-3.46977e-05
-0.000144782
-6.13124e-05
-0.000146687
-8.02572e-05
-0.000162506
-9.62332e-05
-0.000100458
-0.000140398
-6.64159e-05
-0.000162466
-6.48361e-05
-0.000179045
-4.13384e-05
-0.0001861
-2.69692e-05
-0.000181867
-1.51711e-05
-0.000141887
-2.74475e-05
-0.000125912
5.7311e-05
-9.65756e-05
3.89002e-05
-8.25725e-05
6.30042e-05
-7.03554e-05
6.64919e-05
-5.8322e-05
6.37119e-05
-4.97381e-05
6.54828e-05
6.40901e-05
-4.3033e-05
-1.30913e-05
-0.000110746
-2.68418e-05
-0.000108923
-4.79041e-05
-0.000100074
-2.17808e-05
-0.000128792
-5.32268e-05
-0.000128971
-2.73855e-05
-0.00012368
-4.51114e-05
-0.000127057
-6.42101e-05
-0.000127588
-8.32698e-05
-0.000143446
-0.000123329
-6.03988e-05
-0.000134846
-5.48985e-05
-0.000150416
-4.92662e-05
-0.000155627
-3.61277e-05
-0.000155118
-2.74786e-05
-0.000152378
-1.79103e-05
-0.00016488
-1.49461e-05
-0.000115807
8.23859e-06
-0.000104798
2.78907e-05
-7.89159e-05
3.71222e-05
-6.95752e-05
5.71512e-05
-6.09499e-05
5.50866e-05
-5.27935e-05
5.73264e-05
5.56295e-05
-4.43329e-05
-4.40993e-06
-0.000106336
-5.18261e-06
-0.000108151
1.58634e-06
-0.000106843
-1.54807e-05
-0.000111725
-2.85848e-05
-0.000115867
-3.40953e-05
-0.00011817
-4.0205e-05
-0.000120947
-7.27685e-05
-9.50244e-05
-0.000134246
-8.1969e-05
-0.00013081
-6.38342e-05
-0.000131935
-5.37735e-05
-0.0001346
-4.66018e-05
-0.000135321
-3.54067e-05
-0.00013292
-2.98796e-05
-0.000121341
-2.94892e-05
-0.000123437
-1.28497e-05
-9.14964e-05
-2.37021e-05
-9.5499e-05
3.18933e-05
-9.0661e-05
3.22842e-05
-7.09203e-05
3.74105e-05
-5.41461e-05
3.83125e-05
-4.97434e-05
5.29236e-05
5.06715e-05
-4.47853e-05
-5.46048e-06
-0.000100875
-1.05249e-05
-0.000103086
-1.47984e-05
-0.00010257
-1.99204e-05
-0.000106603
-2.6276e-05
-0.000109511
-3.77761e-05
-0.00010667
-7.03433e-05
-8.83796e-05
-7.57049e-05
-8.96628e-05
-9.6587e-05
-6.10868e-05
-0.000101567
-5.88547e-05
-0.000109149
-4.61915e-05
-0.000114964
-4.07867e-05
-0.00011788
-3.24908e-05
-0.000106185
-4.15743e-05
-0.000104457
-3.12168e-05
-0.000103644
-1.36633e-05
-0.000116838
-1.05078e-05
-7.80597e-05
-6.88489e-06
-8.05994e-05
3.4824e-05
-7.4488e-05
3.12991e-05
-7.08024e-05
3.46268e-05
-5.63495e-05
3.84708e-05
3.75318e-05
-4.32099e-05
-3.8441e-06
-9.70313e-05
-7.64104e-06
-9.92893e-05
-2.02174e-06
-0.000108189
-2.31451e-05
-8.54794e-05
-4.35328e-05
-8.91236e-05
-6.04186e-05
-8.97837e-05
-6.1857e-05
-8.69412e-05
-8.51243e-05
-6.63954e-05
-8.8526e-05
-5.76851e-05
-9.57987e-05
-5.1582e-05
-9.79391e-05
-4.40512e-05
-0.000100392
-3.83338e-05
-0.000102315
-3.05681e-05
-0.000102409
-4.14799e-05
-9.96897e-05
-3.39359e-05
-9.3567e-05
-1.9786e-05
-9.58446e-05
-8.23016e-06
-9.93393e-05
-3.39024e-06
-6.94822e-05
4.96694e-06
-6.69713e-05
2.87882e-05
-5.89895e-05
2.66451e-05
-5.4445e-05
3.39262e-05
3.54237e-05
-5.23369e-05
-8.03099e-06
-8.90003e-05
-1.80554e-05
-8.92649e-05
-3.62106e-05
-9.00335e-05
-3.48814e-05
-8.68087e-05
-3.8501e-05
-8.5504e-05
-4.55462e-05
-8.27385e-05
-5.80253e-05
-7.44621e-05
-7.16196e-05
-5.28011e-05
-7.52339e-05
-5.40708e-05
-8.09285e-05
-4.58875e-05
-8.36974e-05
-4.12822e-05
-8.70034e-05
-3.50278e-05
-8.79381e-05
-2.96334e-05
-8.78892e-05
-4.15288e-05
-8.77447e-05
-3.40805e-05
-8.55539e-05
-2.19768e-05
-8.49983e-05
-8.7857e-06
-8.5982e-05
-2.40656e-06
-8.0913e-05
-1.02034e-07
-6.27924e-05
1.06676e-05
-5.91773e-05
2.303e-05
-5.17583e-05
2.65073e-05
2.94459e-05
-4.57805e-05
-6.5254e-06
-8.24749e-05
-1.31361e-05
-8.26542e-05
-1.98898e-05
-8.32798e-05
-2.77476e-05
-7.89509e-05
-3.60239e-05
-7.72277e-05
-4.40838e-05
-7.46785e-05
-6.17156e-05
-5.68303e-05
-6.29793e-05
-5.15374e-05
-6.89625e-05
-4.80877e-05
-7.16369e-05
-4.3213e-05
-7.42663e-05
-3.86528e-05
-7.6085e-05
-3.32092e-05
-7.74619e-05
-2.82564e-05
-7.96242e-05
-3.93665e-05
-7.96456e-05
-3.4059e-05
-7.73668e-05
-2.42556e-05
-7.04547e-05
-1.56979e-05
-6.77105e-05
-5.15071e-06
-6.87807e-05
9.68133e-07
-5.09422e-05
-7.17084e-06
-5.40783e-05
2.61661e-05
-4.94513e-05
2.18802e-05
2.48318e-05
-4.48371e-05
-6.64249e-06
-7.58324e-05
-1.34715e-05
-7.58253e-05
-2.19242e-05
-7.4827e-05
-2.80308e-05
-7.28443e-05
-3.37111e-05
-7.15473e-05
-5.01946e-05
-5.8195e-05
-5.41534e-05
-5.28715e-05
-5.70406e-05
-4.86502e-05
-5.99259e-05
-4.52023e-05
-6.23668e-05
-4.07721e-05
-6.46067e-05
-3.64128e-05
-6.62398e-05
-3.15761e-05
-6.71254e-05
-2.73709e-05
-6.90094e-05
-3.74825e-05
-6.93101e-05
-3.37583e-05
-6.80237e-05
-2.55421e-05
-6.64732e-05
-1.72483e-05
-6.47886e-05
-6.83524e-06
-6.07179e-05
-3.10258e-06
-6.6278e-05
-1.61079e-06
-4.59342e-05
5.82235e-06
-4.6036e-05
2.1982e-05
2.0266e-05
-4.14702e-05
-5.83172e-06
-7.00007e-05
-1.16584e-05
-6.99986e-05
-1.88042e-05
-6.76812e-05
-2.43157e-05
-6.73329e-05
-3.86261e-05
-5.72369e-05
-4.34617e-05
-5.33594e-05
-4.66651e-05
-4.96681e-05
-4.92227e-05
-4.60926e-05
-5.17637e-05
-4.26613e-05
-5.35769e-05
-3.89589e-05
-5.47936e-05
-3.51962e-05
-5.47791e-05
-3.15906e-05
-5.48023e-05
-2.73477e-05
-6.6286e-05
-2.59988e-05
-6.51466e-05
-3.48978e-05
-6.26246e-05
-2.80641e-05
-6.02513e-05
-1.96216e-05
-5.49181e-05
-1.21685e-05
-5.47766e-05
-3.24402e-06
-5.67381e-05
3.50725e-07
-5.4878e-05
3.96225e-06
-4.25146e-05
9.6186e-06
1.79169e-05
-4.01655e-05
-5.41649e-06
-6.45842e-05
-1.18176e-05
-6.35975e-05
-1.73816e-05
-6.21171e-05
-2.886e-05
-5.58545e-05
-3.34901e-05
-5.26067e-05
-3.70896e-05
-4.976e-05
-4.01766e-05
-4.65811e-05
-4.28206e-05
-4.34485e-05
-4.5244e-05
-4.02379e-05
-4.73307e-05
-3.68722e-05
-4.90861e-05
-3.34407e-05
-5.05889e-05
-3.00878e-05
-5.15081e-05
-2.64285e-05
-5.28518e-05
-2.46551e-05
-5.33124e-05
-3.44371e-05
-5.32888e-05
-2.80877e-05
-5.20336e-05
-2.08768e-05
-5.03681e-05
-1.38339e-05
-4.83303e-05
-5.28179e-06
-4.62572e-05
-1.72239e-06
-4.70391e-05
4.7442e-06
-3.61464e-05
-1.27415e-06
1.78955e-05
-3.61251e-05
-7.10612e-06
-5.74781e-05
-1.37293e-05
-5.69743e-05
-2.04731e-05
-5.53732e-05
-2.52849e-05
-5.10428e-05
-2.83392e-05
-4.95524e-05
-3.15631e-05
-4.6536e-05
-3.42139e-05
-4.39303e-05
-3.66414e-05
-4.10211e-05
-3.87849e-05
-3.80944e-05
-4.06164e-05
-3.50407e-05
-4.21459e-05
-3.19113e-05
-4.34565e-05
-2.87772e-05
-4.45578e-05
-2.53271e-05
-4.67852e-05
-2.24277e-05
-4.69376e-05
-3.42847e-05
-4.68664e-05
-2.81589e-05
-4.59234e-05
-2.18198e-05
-4.43663e-05
-1.5391e-05
-4.36008e-05
-6.04733e-06
-4.31375e-05
-2.18563e-06
-4.00133e-05
1.61994e-06
-4.2971e-05
1.68358e-06
1.01261e-05
-3.52015e-05
-5.84173e-06
-5.16363e-05
-1.14486e-05
-5.13674e-05
-1.66397e-05
-5.01821e-05
-1.96612e-05
-4.80213e-05
-2.32386e-05
-4.5975e-05
-2.61045e-05
-4.36701e-05
-2.87672e-05
-4.12677e-05
-3.10744e-05
-3.87138e-05
-3.31134e-05
-3.60554e-05
-3.48753e-05
-3.32788e-05
-3.63804e-05
-3.04061e-05
-3.7667e-05
-2.74907e-05
-3.8592e-05
-2.44021e-05
-3.95015e-05
-2.15182e-05
-4.01827e-05
-3.36035e-05
-4.05349e-05
-2.78067e-05
-4.06697e-05
-2.1685e-05
-3.99739e-05
-1.60869e-05
-3.62008e-05
-9.8204e-06
-3.55566e-05
-2.82985e-06
-3.427e-05
3.33395e-07
-3.56836e-05
3.09717e-06
4.2044e-06
-2.97619e-05
-4.37088e-06
-4.72655e-05
-8.55601e-06
-4.71823e-05
-1.25466e-05
-4.61915e-05
-1.60083e-05
-4.45596e-05
-1.90037e-05
-4.29796e-05
-2.16636e-05
-4.10102e-05
-2.40061e-05
-3.89251e-05
-2.60666e-05
-3.66534e-05
-2.78718e-05
-3.42502e-05
-2.94279e-05
-3.17227e-05
-3.07488e-05
-2.90852e-05
-3.18634e-05
-2.63762e-05
-3.27349e-05
-2.35305e-05
-3.35235e-05
-2.07296e-05
-3.41094e-05
-3.30176e-05
-3.43071e-05
-2.7609e-05
-3.39659e-05
-2.20263e-05
-3.31622e-05
-1.68906e-05
-3.20078e-05
-1.09748e-05
-3.11007e-05
-3.73692e-06
-2.94018e-05
-1.36548e-06
-2.9178e-05
2.87331e-06
-9.60017e-07
-2.40135e-05
-3.48423e-06
-4.37812e-05
-6.87847e-06
-4.37881e-05
-1.00723e-05
-4.29978e-05
-1.28192e-05
-4.18127e-05
-1.54042e-05
-4.03946e-05
-1.76865e-05
-3.87279e-05
-1.97365e-05
-3.68751e-05
-2.15446e-05
-3.48452e-05
-2.31283e-05
-3.26665e-05
-2.44953e-05
-3.03557e-05
-2.56557e-05
-2.79248e-05
-2.66209e-05
-2.5411e-05
-2.73786e-05
-2.27728e-05
-2.79746e-05
-2.01335e-05
-2.86277e-05
-3.23645e-05
-2.89445e-05
-2.72922e-05
-2.887e-05
-2.21007e-05
-2.84109e-05
-1.73497e-05
-2.72056e-05
-1.218e-05
-2.62943e-05
-4.64829e-06
-2.58501e-05
-1.80966e-06
-2.37322e-05
7.55436e-07
3.35273e-06
-2.80449e-05
-2.70911e-06
-4.10721e-05
-5.35368e-06
-4.11435e-05
-7.87427e-06
-4.04772e-05
-1.01966e-05
-3.94903e-05
-1.23174e-05
-3.82738e-05
-1.42307e-05
-3.68146e-05
-1.59446e-05
-3.51612e-05
-1.74617e-05
-3.33281e-05
-1.87901e-05
-3.13381e-05
-1.9935e-05
-2.92108e-05
-2.0904e-05
-2.69558e-05
-2.17053e-05
-2.46097e-05
-2.23446e-05
-2.21335e-05
-2.28397e-05
-1.96384e-05
-2.34442e-05