/*--------------------------------*- C++ -*----------------------------------*\
| =========                 |                                                 |
| \\      /  F ield         | foam-extend: Open Source CFD                    |
|  \\    /   O peration     | Version:     4.1                                |
|   \\  /    A nd           | Web:         http://www.foam-extend.org         |
|    \\/     M anipulation  |                                                 |
\*---------------------------------------------------------------------------*/
FoamFile
{
    version     2.0;
    format      ascii;
    class       surfaceScalarField;
    location    "0.1";
    object      phi_0;
}
// * * * * * * * * * * * * * * * * * * * * * * * * * * * * * * * * * * * * * //

dimensions      [0 3 -1 0 0 0 0];

internalField   nonuniform List<scalar> 
4432
(
5.58789e-06
-5.58789e-06
1.11528e-05
-5.56488e-06
1.69798e-05
-5.82706e-06
2.24424e-05
-5.46253e-06
2.87441e-05
-6.30171e-06
3.40573e-05
-5.31324e-06
4.06338e-05
-6.57644e-06
4.62553e-05
-5.62158e-06
5.11268e-05
-4.87148e-06
5.6254e-05
-5.12719e-06
8.56409e-05
-2.93869e-05
0.000100682
-1.50411e-05
0.00011361
-1.29282e-05
0.000130821
-1.72106e-05
0.000148167
-1.73467e-05
0.000161931
-1.37631e-05
0.000172279
-1.0349e-05
0.000177145
-4.86512e-06
0.000180128
-2.98288e-06
0.000184115
-3.98745e-06
0.000186694
-2.5788e-06
0.000166375
2.03191e-05
0.000166375
5.5967e-06
-1.11846e-05
1.11719e-05
-1.11401e-05
1.70148e-05
-1.167e-05
2.24767e-05
-1.09245e-05
2.88102e-05
-1.26352e-05
3.41628e-05
-1.06658e-05
4.04884e-05
-1.29021e-05
4.64074e-05
-1.15406e-05
5.11115e-05
-9.57553e-06
5.54938e-05
-9.50949e-06
8.39638e-05
-5.78569e-05
9.85005e-05
-2.95778e-05
0.000112493
-2.69207e-05
0.000129041
-3.37582e-05
0.000145946
-3.42519e-05
0.000159933
-2.77505e-05
0.000169016
-1.94314e-05
0.000176909
-1.27586e-05
0.00018832
-1.43934e-05
0.000196464
-1.21315e-05
0.000191921
1.96369e-06
0.000158229
5.40114e-05
0.000324604
5.58644e-06
-1.6771e-05
1.11558e-05
-1.67094e-05
1.69987e-05
-1.75129e-05
2.24399e-05
-1.63657e-05
2.88113e-05
-1.90066e-05
3.41447e-05
-1.59993e-05
4.07193e-05
-1.94766e-05
4.76987e-05
-1.852e-05
4.92142e-05
-1.1091e-05
8.65324e-05
-4.68278e-05
8.48863e-05
-5.62108e-05
9.70458e-05
-4.17373e-05
0.000111844
-4.17187e-05
0.000126453
-4.83679e-05
0.000143583
-5.13815e-05
0.000157594
-4.17612e-05
0.000169252
-3.10898e-05
0.000179311
-2.28172e-05
0.000192651
-2.77333e-05
0.000197069
-1.65493e-05
0.000187387
1.16458e-05
0.000150712
9.0686e-05
0.000475316
5.57186e-06
-2.23429e-05
1.1134e-05
-2.22716e-05
1.69819e-05
-2.33607e-05
2.23657e-05
-2.17495e-05
2.8919e-05
-2.55599e-05
3.37725e-05
-2.08527e-05
4.16153e-05
-2.73195e-05
4.63347e-05
-2.32394e-05
7.8093e-05
-4.28493e-05
8.3608e-05
-5.23428e-05
8.55561e-05
-5.81589e-05
9.73165e-05
-5.34977e-05
0.000112029
-5.64311e-05
0.000124566
-6.0905e-05
0.000138372
-6.51878e-05
0.000158035
-6.14241e-05
0.000172712
-4.57669e-05
0.000186241
-3.63462e-05
0.00019802
-3.95122e-05
0.00019746
-1.59889e-05
0.000178552
3.05541e-05
8.9523e-05
0.000179716
0.000564838
5.55071e-06
-2.78936e-05
1.11079e-05
-2.78287e-05
1.69466e-05
-2.91994e-05
2.23264e-05
-2.71293e-05
2.87391e-05
-3.19726e-05
3.43045e-05
-2.64181e-05
4.12536e-05
-3.42685e-05
4.46222e-05
-2.66081e-05
7.21515e-05
-7.03785e-05
7.83087e-05
-5.85e-05
8.45528e-05
-6.4403e-05
9.86032e-05
-6.75481e-05
0.00011208
-6.99083e-05
0.000124236
-7.30607e-05
0.000136977
-7.79287e-05
0.000152474
-7.6921e-05
0.000175821
-6.9114e-05
0.000191535
-5.20599e-05
0.000200205
-4.81823e-05
0.000190599
-6.3829e-06
0.000160166
6.09868e-05
3.09518e-05
0.000308932
0.00059579
5.52195e-06
-3.34156e-05
1.10783e-05
-3.33851e-05
1.68912e-05
-3.50124e-05
2.22866e-05
-3.25247e-05
2.86544e-05
-3.83404e-05
3.52859e-05
-3.30497e-05
3.98943e-05
-3.88768e-05
6.7174e-05
-5.38878e-05
6.87316e-05
-7.19362e-05
7.71752e-05
-6.69436e-05
8.65328e-05
-7.37606e-05
9.8757e-05
-7.97723e-05
0.000111263
-8.24143e-05
0.000123131
-8.4929e-05
0.000135164
-8.99619e-05
0.000152817
-9.45736e-05
0.000175898
-9.21946e-05
0.000190538
-6.67004e-05
0.000192694
-5.03376e-05
0.000177231
9.07904e-06
0.000103659
0.000134558
1.65554e-05
0.000396037
0.000612346
5.48612e-06
-3.89017e-05
1.10368e-05
-3.89358e-05
1.68894e-05
-4.08649e-05
2.21055e-05
-3.77408e-05
2.92224e-05
-4.54573e-05
3.39193e-05
-3.77465e-05
3.72357e-05
-4.21933e-05
6.28819e-05
-7.9534e-05
6.80242e-05
-7.70784e-05
7.67932e-05
-7.57125e-05
8.65269e-05
-8.34944e-05
9.76756e-05
-9.0921e-05
0.000109162
-9.39005e-05
0.000120643
-9.64098e-05
0.000133616
-0.000102935
0.000151347
-0.000112305
0.00017131
-0.000112157
0.000166421
-6.18117e-05
0.000152169
-3.60859e-05
0.000173693
-1.24449e-05
8.46967e-05
0.000223555
3.0114e-05
0.000450622
0.00064246
5.43092e-06
-4.43326e-05
1.10021e-05
-4.4507e-05
1.6863e-05
-4.67257e-05
2.2228e-05
-4.31058e-05
2.9553e-05
-5.27823e-05
3.2049e-05
-4.02425e-05
5.74906e-05
-6.76349e-05
6.0555e-05
-8.25984e-05
6.80007e-05
-8.45241e-05
7.81221e-05
-8.58339e-05
8.72676e-05
-9.26399e-05
9.79245e-05
-0.000101578
0.000108497
-0.000104473
0.000120127
-0.00010804
0.000133668
-0.000116477
0.000150863
-0.0001295
0.000170472
-0.000131766
0.000157687
-4.90262e-05
0.000148159
-2.65581e-05
9.95669e-05
3.61468e-05
4.19447e-05
0.000281177
3.82272e-05
0.00045434
0.000680687
2.56206e-06
-2.56206e-06
9.4344e-06
-6.87234e-06
1.57199e-05
-6.28552e-06
2.01992e-05
-4.47927e-06
2.16433e-05
-1.44417e-06
2.18095e-05
-1.66155e-07
2.13735e-05
4.3598e-07
2.05998e-05
7.73734e-07
1.94655e-05
1.13427e-06
1.83445e-05
1.12103e-06
1.7227e-05
1.11741e-06
1.55828e-05
1.64423e-06
1.58794e-05
-2.96582e-07
9.22332e-06
6.65608e-06
6.99891e-06
2.2244e-06
4.70671e-06
2.29221e-06
3.01829e-06
1.68841e-06
1.46296e-06
1.55533e-06
1.46296e-06
2.83031e-06
-5.39237e-06
9.83462e-06
-1.38766e-05
1.66286e-05
-1.30795e-05
2.13929e-05
-9.24361e-06
2.29193e-05
-2.97059e-06
2.31323e-05
-3.79158e-07
2.25704e-05
9.9793e-07
2.16391e-05
1.705e-06
2.03932e-05
2.38013e-06
1.92278e-05
2.28649e-06
1.80259e-05
2.31924e-06
1.67353e-05
2.93481e-06
1.70461e-05
-6.07362e-07
9.2556e-06
1.44466e-05
7.02283e-06
4.45717e-06
4.83611e-06
4.47893e-06
3.12753e-06
3.39698e-06
1.52008e-06
3.16278e-06
2.98303e-06
8.62082e-07
-6.25446e-06
1.13682e-05
-2.43828e-05
1.85081e-05
-2.02194e-05
2.23474e-05
-1.30829e-05
2.35501e-05
-4.1733e-06
2.35859e-05
-4.15e-07
2.2884e-05
1.69987e-06
2.18269e-05
2.76203e-06
2.04397e-05
3.7673e-06
1.92399e-05
3.48632e-06
1.74634e-05
4.09576e-06
1.64071e-05
3.99106e-06
9.77049e-06
6.02926e-06
9.35713e-06
1.486e-05
6.7808e-06
7.03349e-06
4.80662e-06
6.4531e-06
3.09709e-06
5.10651e-06
1.50999e-06
4.74987e-06
4.49302e-06
9.68101e-07
-7.22256e-06
1.10796e-05
-3.44942e-05
1.92056e-05
-2.83454e-05
2.34964e-05
-1.73737e-05
2.44197e-05
-5.09665e-06
2.42012e-05
-1.96538e-07
2.33072e-05
2.59389e-06
2.20796e-05
3.98961e-06
2.05147e-05
5.33222e-06
1.91388e-05
4.86223e-06
1.78472e-05
5.38737e-06
1.68811e-05
4.95709e-06
9.75591e-06
1.31545e-05
9.06817e-06
1.55477e-05
6.54626e-06
9.5554e-06
4.72712e-06
8.27224e-06
3.04491e-06
6.78872e-06
1.49056e-06
6.30422e-06
5.98358e-06
1.28915e-06
-8.51171e-06
1.26993e-05
-4.59044e-05
2.10331e-05
-3.66792e-05
2.53628e-05
-2.17034e-05
2.55515e-05
-5.28537e-06
2.49843e-05
3.7065e-07
2.38482e-05
3.72994e-06
2.23483e-05
5.48956e-06
2.05764e-05
7.1041e-06
1.91473e-05
6.29126e-06
1.8e-05
6.53469e-06
9.97373e-06
1.29834e-05
9.6644e-06
1.34638e-05
8.42874e-06
1.67833e-05
6.26339e-06
1.17208e-05
4.61024e-06
9.92539e-06
2.98321e-06
8.41574e-06
1.46611e-06
7.82131e-06
7.44969e-06
9.03657e-06
-1.75483e-05
1.72022e-05
-5.40699e-05
2.36631e-05
-4.31401e-05
2.7871e-05
-2.59113e-05
2.71462e-05
-4.5606e-06
2.61396e-05
1.37726e-06
2.45709e-05
5.29868e-06
2.27379e-05
7.32252e-06
2.02854e-05
9.55662e-06
1.8898e-05
7.6786e-06
1.06528e-05
1.47799e-05
9.99617e-06
1.364e-05
9.18045e-06
1.42795e-05
7.9568e-06
1.8007e-05
6.04925e-06
1.36283e-05
4.48016e-06
1.14945e-05
2.91552e-06
9.98038e-06
1.4373e-06
9.29953e-06
8.88698e-06
1.22564e-05
-2.98047e-05
2.5117e-05
-6.69305e-05
2.80195e-05
-4.60425e-05
2.99621e-05
-2.7854e-05
2.88147e-05
-3.41322e-06
2.72386e-05
2.95342e-06
2.53547e-05
7.18249e-06
2.26095e-05
1.00677e-05
2.01884e-05
1.19777e-05
1.13941e-05
1.64729e-05
1.07954e-05
1.53786e-05
9.80274e-06
1.46327e-05
8.67812e-06
1.54041e-05
7.53385e-06
1.91513e-05
5.83362e-06
1.53285e-05
4.34189e-06
1.29862e-05
2.84239e-06
1.14799e-05
1.40507e-06
1.07368e-05
1.02921e-05
2.87419e-05
-5.85465e-05
3.32406e-05
-7.14292e-05
3.30466e-05
-4.58484e-05
1.79052e-05
-1.27126e-05
1.66554e-05
-2.16342e-06
1.49757e-05
4.63315e-06
1.37464e-05
8.41178e-06
1.24695e-05
1.13446e-05
1.14933e-05
1.2954e-05
1.09084e-05
1.70578e-05
1.06633e-05
1.56237e-05
9.44876e-06
1.58472e-05
8.18178e-06
1.66711e-05
7.05945e-06
2.02736e-05
5.62151e-06
1.67665e-05
4.20106e-06
1.44066e-05
2.76826e-06
1.29127e-05
1.37171e-06
1.21334e-05
1.16638e-05
1.12199e-05
-5.55525e-05
2.29719e-05
-5.62591e-05
3.3988e-05
-5.77419e-05
4.74327e-05
-5.65505e-05
5.92558e-05
-6.46054e-05
0.000100598
-8.15845e-05
0.000117111
-8.41486e-05
0.000129309
-9.47963e-05
0.000145866
-0.000101081
0.000163818
-0.000103786
0.000182845
-0.000111666
0.00020544
-0.000124173
0.000226711
-0.000125745
0.000248609
-0.000129938
0.000273741
-0.000141608
0.000309332
-0.000165091
0.000299164
-0.000121598
0.000271366
-2.12286e-05
0.000215346
2.94619e-05
0.000103189
0.000148304
5.19116e-05
0.000332454
8.4409e-05
0.000421842
0.000418215
0.00034688
1.11338e-05
-6.66862e-05
2.42356e-05
-6.93609e-05
3.66566e-05
-7.01628e-05
6.51528e-05
-8.50468e-05
8.22386e-05
-8.16912e-05
9.62578e-05
-9.56036e-05
0.000111119
-9.90099e-05
0.00012397
-0.000107647
0.000139455
-0.000116566
0.000155961
-0.000120293
0.000175118
-0.000130823
0.000195949
-0.000145004
0.00021355
-0.000143346
0.000232321
-0.000148709
0.000208199
-0.000117486
0.000237231
-0.000194123
0.000228484
-0.000112851
0.000189517
1.77384e-05
0.000104058
0.000114921
2.51716e-05
0.00022719
3.27248e-05
0.000324901
0.000199416
0.00025515
0.000255872
0.000361759
1.62895e-05
-8.29757e-05
3.19963e-05
-8.50678e-05
4.87786e-05
-8.69451e-05
6.13981e-05
-9.76663e-05
7.85732e-05
-9.88662e-05
8.98813e-05
-0.000106912
0.000104133
-0.000113262
0.000117735
-0.00012125
0.000132257
-0.000131087
0.000148459
-0.000136495
0.000171037
-0.000153401
0.000192633
-0.0001666
0.000194897
-0.00014561
0.000166823
-0.000120635
0.000186993
-0.000137656
0.000194052
-0.000201182
0.000158225
-7.70238e-05
8.25215e-05
9.34424e-05
2.09631e-05
0.000176479
-5.55732e-06
0.000253711
0.000103779
0.000215565
0.000159239
0.000199688
0.000182637
0.000232474
1.53552e-05
-9.83309e-05
3.04586e-05
-0.000100171
4.62905e-05
-0.000102777
5.72609e-05
-0.000108637
7.0523e-05
-0.000112128
8.32147e-05
-0.000119603
9.58254e-05
-0.000125872
0.000108865
-0.00013429
0.000121829
-0.000144051
0.000137283
-0.000151949
0.000156534
-0.000172652
0.000175498
-0.000185563
0.000148607
-0.00011872
0.000155902
-0.000127929
0.000224609
-0.000206364
0.000199832
-0.000176404
0.00013054
-7.73192e-06
6.29236e-05
0.000161059
1.85681e-05
0.000220835
2.74181e-05
0.000244861
6.90941e-05
0.000173889
0.000102886
0.000165896
0.000150136
0.000135387
1.35121e-05
-0.000111843
2.67386e-05
-0.000113398
3.98685e-05
-0.000115907
5.19094e-05
-0.000120678
6.49079e-05
-0.000125127
7.64327e-05
-0.000131128
8.78738e-05
-0.000137313
9.95283e-05
-0.000145944
0.000109897
-0.00015442
0.000121829
-0.000163882
0.000131707
-0.000182529
0.000142498
-0.000196354
0.000144155
-0.000120377
0.000145841
-0.000129615
0.00016803
-0.000228553
0.00014951
-0.000157885
4.83754e-05
9.34031e-05
7.82105e-06
0.000201613
1.11062e-05
0.00021755
4.73298e-05
0.000208637
7.57245e-05
0.000145494
0.000102898
0.000138723
0.000128054
0.000124979
1.22256e-05
-0.000124069
2.43292e-05
-0.000125501
3.64261e-05
-0.000128004
4.76236e-05
-0.000131875
5.86591e-05
-0.000136162
6.94655e-05
-0.000141935
7.97454e-05
-0.000147593
8.99412e-05
-0.00015614
9.83337e-05
-0.000162812
0.000107176
-0.000172724
0.000115075
-0.000190428
0.000124223
-0.000205502
0.000126202
-0.000122356
0.000130521
-0.000133934
0.000135668
-0.0002337
5.73312e-05
-7.95479e-05
3.88416e-06
0.00014685
-5.94649e-06
0.000211444
5.02507e-06
0.000206578
6.45187e-05
0.000149144
7.72289e-05
0.000132784
8.68653e-05
0.000129086
0.000118423
9.64963e-05
1.09028e-05
-0.000134971
2.16996e-05
-0.000136298
3.23737e-05
-0.000138678
4.28253e-05
-0.000142327
5.32476e-05
-0.000146585
6.32453e-05
-0.000151932
7.2397e-05
-0.000156745
8.10413e-05
-0.000164784
8.63897e-05
-0.00016816
9.173e-05
-0.000178064
9.63838e-05
-0.000195082
0.000103338
-0.000212456
0.00010812
-0.000127138
0.000111595
-0.000137409
9.70878e-05
-0.000219193
2.37142e-06
1.51686e-05
-2.66494e-05
0.000175871
-1.81585e-05
0.000202953
4.45519e-05
0.000143868
5.8411e-05
0.000135285
6.62944e-05
0.000124901
7.78285e-05
0.000117552
0.000108623
8.76288e-05
9.67446e-06
-0.000144646
1.9332e-05
-0.000145956
2.89593e-05
-0.000148305
3.85985e-05
-0.000151966
4.80482e-05
-0.000156034
5.76594e-05
-0.000161544
6.6568e-05
-0.000165654
7.4553e-05
-0.000172769
7.53982e-05
-0.000169006
7.62272e-05
-0.000178893
7.6111e-05
-0.000194966
8.33831e-05
-0.000219728
8.88784e-05
-0.000132633
9.27519e-05
-0.000141282
2.39748e-05
-0.000150416
-7.50194e-05
0.000114163
-3.40411e-05
0.000134893
2.85999e-05
0.000140312
3.52602e-05
0.000137207
4.23388e-05
0.000128206
4.54559e-05
0.000121783
4.72956e-05
0.000115713
0.000108582
4.73363e-05
8.43321e-06
-0.000153079
1.68754e-05
-0.000154398
2.52967e-05
-0.000156727
3.39463e-05
-0.000160616
4.28002e-05
-0.000164888
5.18657e-05
-0.000170609
6.03211e-05
-0.000174109
6.53584e-05
-0.000177806
6.23856e-05
-0.000166033
5.97844e-05
-0.000176292
5.59451e-05
-0.000191127
6.359e-05
-0.000227373
7.13204e-05
-0.000140364
7.45552e-05
-0.000144517
-7.72528e-06
-6.81358e-05
-2.47025e-05
0.00013114
-1.37625e-05
0.000123953
5.53773e-06
0.000121012
1.93917e-05
0.000123353
2.91916e-05
0.000118406
3.62281e-05
0.000114747
4.14221e-05
0.000110519
0.000103482
4.65217e-05
7.18276e-06
-0.000160262
1.43554e-05
-0.00016157
2.16608e-05
-0.000164032
2.94462e-05
-0.000168401
3.80906e-05
-0.000173533
4.70197e-05
-0.000179538
5.70732e-05
-0.000184163
5.94098e-05
-0.000180143
5.5252e-05
-0.000161875
4.7641e-05
-0.000168681
3.66546e-05
-0.00018014
3.42367e-05
-0.000224955
3.88242e-05
-0.000144951
3.29696e-05
-0.000138662
-3.45233e-05
-6.42818e-07
-8.33533e-06
0.000104952
4.97396e-06
0.000110643
8.03532e-06
0.00011795
1.66308e-05
0.000114758
2.14385e-05
0.000113599
2.57636e-05
0.000110422
2.98659e-05
0.000106416
0.000101106
3.22419e-05
5.91149e-06
-0.000166173
1.20476e-05
-0.000167707
1.8267e-05
-0.000170251
2.49237e-05
-0.000175058
3.27522e-05
-0.000181361
4.2366e-05
-0.000189152
5.71914e-05
-0.000198988
7.98226e-05
-0.000202774
5.48231e-05
-0.000136876
2.79753e-05
-0.000141833
5.4974e-07
-0.000152715
6.45153e-06
-0.000230857
6.27374e-06
-0.000144773
7.35179e-05
-0.000205907
2.79363e-05
4.49387e-05
7.45443e-06
0.000125434
6.83853e-06
0.000111259
1.04623e-05
0.000114326
1.30184e-05
0.000112202
1.58265e-05
0.000110791
1.73712e-05
0.000108877
1.72476e-05
0.00010654
0.000103589
1.47652e-05
4.87267e-06
-0.000171046
9.69711e-06
-0.000172531
1.3837e-05
-0.000174391
1.90054e-05
-0.000180226
2.3728e-05
-0.000186084
2.8202e-05
-0.000193626
3.06061e-05
-0.000201392
3.6129e-05
-0.000208297
3.20258e-05
-0.000132772
2.48736e-05
-0.000134681
1.38114e-05
-0.000141653
1.50212e-05
-0.000232067
1.2507e-05
-0.000142259
3.97979e-05
-0.000233198
1.03371e-05
7.43996e-05
9.03911e-06
0.000126732
9.87346e-06
0.000110425
1.07411e-05
0.000113459
1.05489e-05
0.000112394
1.10191e-05
0.000110321
1.09427e-05
0.000108954
9.78616e-06
0.000107696
0.000103967
9.40837e-06
2.84914e-06
-0.000173895
5.5309e-06
-0.000175213
9.54995e-06
-0.00017841
1.42214e-05
-0.000184898
1.64883e-05
-0.00018835
1.98802e-05
-0.000197018
2.08278e-05
-0.00020234
2.25235e-05
-0.000209993
2.21074e-05
-0.000132356
1.97121e-05
-0.000132286
1.08832e-05
-0.000132824
2.6725e-06
-0.000223856
1.6857e-06
-0.000141272
-7.87516e-05
-0.00015276
-3.18611e-05
2.75091e-05
-1.18116e-06
9.60518e-05
3.74614e-06
0.000105498
6.47105e-06
0.000110734
5.71538e-06
0.00011315
5.82105e-06
0.000110215
5.20073e-06
0.000109574
7.73143e-06
0.000105166
0.000142711
-3.10131e-05
1.25648e-06
-0.000175152
1.94818e-06
-0.000175904
4.49294e-06
-0.000180955
5.04853e-06
-0.000185453
5.07509e-06
-0.000188377
6.9058e-06
-0.000198849
7.72047e-06
-0.000203154
1.11644e-05
-0.000213437
1.26753e-05
-0.000133867
1.67648e-05
-0.000136375
2.13957e-05
-0.000137454
-5.0316e-05
-0.000152145
-4.68631e-05
-0.000144725
-6.20025e-05
-0.000137621
1.72609e-05
-5.17543e-05
2.32445e-05
9.00682e-05
1.79444e-05
0.000110798
1.13715e-05
0.000117307
3.21611e-06
0.000121305
3.09047e-06
0.00011034
1.2194e-06
0.000111445
-3.43374e-05
0.000140722
0.000127812
-1.94377e-05
1.21745e-06
-0.000176369
2.54731e-06
-0.000177234
3.60123e-06
-0.000182009
2.62972e-06
-0.000184482
3.70332e-06
-0.000189451
2.12641e-06
-0.000197272
-3.91454e-06
-0.000197113
-1.32901e-05
-0.000204061
2.49693e-05
-0.000172127
1.63168e-05
-0.000127723
1.70601e-05
-0.000138198
1.19188e-05
-0.000147003
8.95444e-06
-0.000141761
7.99462e-05
-0.000208613
9.68039e-05
-6.8612e-05
6.87474e-05
0.000118125
3.57408e-05
0.000143804
1.23801e-05
0.000140667
6.32451e-07
0.000133053
-9.70264e-07
0.000111943
-4.30873e-05
0.000153562
-3.00967e-05
0.000127732
0.000127532
-2.98172e-05
6.70554e-07
-0.00017704
1.60155e-06
-0.000178165
1.26229e-06
-0.00018167
1.63836e-06
-0.000184858
2.13342e-06
-0.000189946
3.95786e-07
-0.000195534
-2.85005e-06
-0.000193868
-1.22275e-05
-0.000194684
-1.59224e-05
-0.000168432
1.07172e-05
-0.000154362
1.34915e-05
-0.000140972
1.72624e-05
-0.000150774
3.3902e-05
-0.000158401
3.79073e-05
-0.000212618
3.12002e-05
-6.19049e-05
3.44402e-05
0.000114885
7.98656e-06
0.000170258
-1.5942e-06
0.000150248
-3.67259e-05
0.000168184
-6.60259e-05
0.000141243
-3.67028e-05
0.000124239
-3.24301e-05
0.000123459
0.000121107
-2.60045e-05
8.98331e-07
-0.000177938
2.52353e-06
-0.00017979
4.07442e-06
-0.000183221
3.79352e-06
-0.000184577
8.19918e-08
-0.000186234
-2.68839e-06
-0.000192764
-2.63764e-06
-0.000193918
-8.43213e-06
-0.000188889
-6.84308e-06
-0.000170021
-1.4241e-05
-0.000146964
6.46728e-06
-0.00016168
2.84588e-05
-0.000172766
7.77416e-05
-0.000207683
5.22478e-05
-0.000187124
4.53865e-05
-5.50436e-05
-1.97457e-05
0.000180017
-2.32964e-05
0.000173809
-7.43984e-05
0.00020135
-7.25089e-05
0.000166295
-6.58365e-05
0.000134571
-6.37946e-05
0.000122197
-5.96235e-05
0.000119288
0.000112951
-5.14678e-05
-4.23131e-06
-0.000173707
-5.55835e-06
-0.000178463
-2.30235e-06
-0.000186477
-6.5675e-06
-0.000180312
-1.84952e-05
-0.000174306
-2.82021e-05
-0.000183057
-2.61446e-05
-0.000195976
-2.29987e-05
-0.000192035
7.01533e-07
-0.000193721
4.51866e-05
-0.000191449
3.3154e-05
-0.000149648
5.76534e-05
-0.000197265
1.62825e-05
-0.000166312
-5.81379e-06
-0.000165028
-3.39191e-05
-2.69382e-05
-6.41136e-05
0.000210211
-0.000139735
0.00024943
-0.000106376
0.000167991
-8.95321e-05
0.000149451
-8.05545e-05
0.000125593
-7.46045e-05
0.000116247
-6.61045e-05
0.000110788
0.000104132
-5.72856e-05
-1.86877e-05
-0.000155019
-4.59513e-05
-0.0001512
-1.53118e-05
-0.000217116
-4.82136e-05
-0.00014741
-5.31968e-05
-0.000169323
-7.05031e-05
-0.00016575
-0.000110674
-0.000155805
-6.21309e-05
-0.000240578
-9.31073e-05
-0.000162745
-5.43525e-05
-0.000230204
-2.00295e-05
-0.000183971
-4.57593e-05
-0.000171535
-5.69537e-05
-0.000155118
-9.47566e-05
-0.000127225
-0.000137136
1.54407e-05
-0.000134795
0.000207871
-0.000107417
0.000222052
-0.000112286
0.00017286
-9.98228e-05
0.000136988
-9.14501e-05
0.00011722
-8.15373e-05
0.000106334
-6.94808e-05
9.87315e-05
9.14604e-05
-5.68093e-05
-3.10028e-06
-0.000151919
-4.46725e-06
-0.000149833
-5.69408e-05
-0.000164643
-4.38774e-05
-0.000160473
-4.91938e-05
-0.000164007
-5.57759e-05
-0.000159168
-5.36697e-05
-0.000157911
-0.000133477
-0.00016077
-8.9587e-05
-0.000206635
-0.000137252
-0.000182539
-0.000155714
-0.000165509
-0.000160059
-0.000167191
-0.000135123
-0.000180054
-0.000215578
-4.67701e-05
-0.000235089
3.49519e-05
-0.000178463
0.000151245
-0.000128748
0.000172337
-9.04289e-05
0.000134541
-7.17657e-05
0.000118325
-6.00202e-05
0.000105475
-5.11386e-05
9.74525e-05
-4.33847e-05
9.09776e-05
8.51059e-05
-3.70303e-05
-1.10264e-05
-0.000140892
-1.78512e-05
-0.000143008
-3.01215e-05
-0.000152372
-4.06959e-05
-0.000149899
-5.40587e-05
-0.000150644
-6.97751e-05
-0.000143452
-0.000103582
-0.000124105
-0.000134181
-0.000130171
-0.000138754
-0.000202062
-9.30854e-05
-0.000228207
-0.000122173
-0.000136421
-0.000165639
-0.000123725
-0.00027867
-6.7023e-05
-0.000297077
-2.83627e-05
-0.00027571
1.35851e-05
-0.000200681
7.62161e-05
-0.000137482
0.000109138
-9.98254e-05
9.68838e-05
-7.97252e-05
9.82246e-05
-6.64406e-05
9.21903e-05
-5.50997e-05
8.61115e-05
-4.64911e-05
8.2369e-05
7.81936e-05
-3.95788e-05
-7.7206e-06
-0.000133172
-1.62678e-05
-0.000134461
-3.2109e-05
-0.000136531
-4.37667e-05
-0.000138241
-7.06235e-05
-0.000123787
-8.58145e-05
-0.000128261
-9.74033e-05
-0.000112516
-5.56147e-05
-0.00017196
-7.80328e-05
-0.000179644
-0.000189725
-0.000116515
-0.000215347
-0.000110799
-0.000252129
-8.69429e-05
-0.000260814
-5.83383e-05
-0.000255092
-3.40845e-05
-0.00023085
-1.06573e-05
-0.0001681
1.34664e-05
-0.000131631
7.26691e-05
-0.000103218
6.8471e-05
-8.18808e-05
7.6887e-05
-6.8344e-05
7.86535e-05
-5.79284e-05
7.56959e-05
-4.94393e-05
7.38799e-05
7.06657e-05
-4.19114e-05
-9.55387e-06
-0.000123618
-2.14773e-05
-0.000122537
-3.71687e-05
-0.00012084
-7.28071e-05
-0.000102603
-3.68979e-05
-0.000159696
-6.72202e-05
-9.79386e-05
-3.56489e-05
-0.000144087
-6.16837e-05
-0.000145925
-7.97044e-05
-0.000161623
-9.60271e-05
-0.000100192
-0.000139499
-6.73269e-05
-0.000161411
-6.50312e-05
-0.000178088
-4.16608e-05
-0.000185271
-2.69018e-05
-0.000180984
-1.49447e-05
-0.000141687
-2.58303e-05
-0.000125589
5.65716e-05
-9.64792e-05
3.93608e-05
-8.24134e-05
6.28211e-05
-7.02091e-05
6.64493e-05
-5.81892e-05
6.36759e-05
-4.9527e-05
6.52177e-05
6.39728e-05
-4.28341e-05
-1.29668e-05
-0.000110651
-2.65137e-05
-0.00010899
-4.73301e-05
-0.000100023
-2.1798e-05
-0.000128135
-5.29709e-05
-0.000128523
-2.80708e-05
-0.000122839
-4.50421e-05
-0.000127116
-6.40772e-05
-0.00012689
-8.32491e-05
-0.000142451
-0.000122061
-6.13795e-05
-0.000134244
-5.51446e-05
-0.000149707
-4.95676e-05
-0.000155012
-3.63561e-05
-0.000154468
-2.74464e-05
-0.000151715
-1.76975e-05
-0.000163361
-1.41842e-05
-0.00011564
8.85088e-06
-0.000104495
2.82158e-05
-7.87918e-05
3.71176e-05
-6.94544e-05
5.7112e-05
-6.07125e-05
5.4934e-05
-5.26385e-05
5.71437e-05
5.55265e-05
-4.41922e-05
-4.43529e-06
-0.000106216
-5.67756e-06
-0.000107748
6.55466e-07
-0.000106356
-1.58041e-05
-0.000111675
-2.86673e-05
-0.00011566
-3.39035e-05
-0.000117603
-4.09899e-05
-0.00012003
-7.28369e-05
-9.5043e-05
-0.000133107
-8.21816e-05
-0.000130238
-6.42481e-05
-0.000131559
-5.38234e-05
-0.000134299
-4.6828e-05
-0.000135096
-3.55585e-05
-0.000132739
-2.98044e-05
-0.000121356
-2.90803e-05
-0.000123142
-1.23982e-05
-9.17944e-05
-2.24964e-05
-9.53573e-05
3.17787e-05
-9.03886e-05
3.2149e-05
-7.07856e-05
3.7509e-05
-5.42371e-05
3.83855e-05
-4.957e-05
5.24766e-05
5.05507e-05
-4.45942e-05
-5.48237e-06
-0.000100733
-1.04198e-05
-0.000102811
-1.42309e-05
-0.000102545
-1.9795e-05
-0.000106111
-2.66381e-05
-0.000108817
-3.84761e-05
-0.000105764
-6.99039e-05
-8.86018e-05
-7.55112e-05
-8.94356e-05
-9.61364e-05
-6.15564e-05
-0.00010136
-5.90248e-05
-0.000108813
-4.63703e-05
-0.00011468
-4.09611e-05
-0.000117644
-3.25942e-05
-0.000106024
-4.14246e-05
-0.000104143
-3.09607e-05
-0.000103226
-1.33154e-05
-0.00011607
-9.65299e-06
-7.79349e-05
-6.35602e-06
-8.02587e-05
3.44728e-05
-7.39948e-05
3.12451e-05
-7.02272e-05
3.46179e-05
-5.61302e-05
3.83795e-05
3.75248e-05
-4.31043e-05
-3.91655e-06
-9.68168e-05
-8.38869e-06
-9.83385e-05
-3.22457e-06
-0.00010771
-2.37481e-05
-8.55876e-05
-4.3432e-05
-8.91333e-05
-5.95961e-05
-8.96004e-05
-6.14264e-05
-8.67715e-05
-8.45597e-05
-6.63024e-05
-8.80908e-05
-5.80253e-05
-9.54454e-05
-5.16703e-05
-9.76427e-05
-4.4173e-05
-0.000100146
-3.84578e-05
-0.000102113
-3.0627e-05
-0.000102161
-4.13773e-05
-9.93695e-05
-3.37519e-05
-9.31104e-05
-1.95745e-05
-9.4919e-05
-7.84436e-06
-9.83993e-05
-2.87571e-06
-6.94438e-05
5.51725e-06
-6.6773e-05
2.85743e-05
-5.8782e-05
2.66269e-05
-5.42207e-05
3.38183e-05
3.54044e-05
-5.21003e-05
-8.18754e-06
-8.86292e-05
-1.77259e-05
-8.88002e-05
-3.56755e-05
-8.976e-05
-3.45964e-05
-8.66666e-05
-3.82694e-05
-8.54604e-05
-4.52569e-05
-8.26129e-05
-5.78603e-05
-7.41681e-05
-7.10091e-05
-5.31536e-05
-7.49151e-05
-5.41193e-05
-8.06486e-05
-4.59368e-05
-8.3502e-05
-4.13196e-05
-8.68626e-05
-3.50972e-05
-8.78665e-05
-2.96231e-05
-8.78606e-05
-4.13832e-05
-8.77046e-05
-3.39079e-05
-8.5364e-05
-2.19151e-05
-8.47201e-05
-8.48826e-06
-8.53103e-05
-2.28557e-06
-7.99991e-05
2.06112e-07
-6.25124e-05
1.10876e-05
-5.88168e-05
2.29313e-05
-5.15104e-05
2.65118e-05
2.94723e-05
-4.55783e-05
-6.49712e-06
-8.21321e-05
-1.29854e-05
-8.23119e-05
-1.97309e-05
-8.30145e-05
-2.76079e-05
-7.87896e-05
-3.57832e-05
-7.72851e-05
-4.39218e-05
-7.44744e-05
-6.11941e-05
-5.68957e-05
-6.27268e-05
-5.16209e-05
-6.8742e-05
-4.81041e-05
-7.14277e-05
-4.32511e-05
-7.40673e-05
-3.868e-05
-7.5931e-05
-3.32335e-05
-7.73119e-05
-2.82422e-05
-7.94327e-05
-3.92623e-05
-7.94459e-05
-3.38947e-05
-7.72312e-05
-2.41298e-05
-7.02043e-05
-1.55152e-05
-6.764e-05
-4.8499e-06
-6.83614e-05
9.27538e-07
-5.09097e-05
-6.36408e-06
-5.36725e-05
2.5694e-05
-4.90988e-05
2.19382e-05
2.4902e-05
-4.45285e-05
-6.56055e-06
-7.55716e-05
-1.32833e-05
-7.55891e-05
-2.17048e-05
-7.4593e-05
-2.77905e-05
-7.2704e-05
-3.36076e-05
-7.1468e-05
-4.98827e-05
-5.81992e-05
-5.38974e-05
-5.28811e-05
-5.68404e-05
-4.86779e-05
-5.97235e-05
-4.52211e-05
-6.21627e-05
-4.08119e-05
-6.44116e-05
-3.6431e-05
-6.6021e-05
-3.16242e-05
-6.68961e-05
-2.73671e-05
-6.88732e-05
-3.72852e-05
-6.91885e-05
-3.35794e-05
-6.78619e-05
-2.54565e-05
-6.61653e-05
-1.72117e-05
-6.43736e-05
-6.64167e-06
-6.03134e-05
-3.13262e-06
-6.5605e-05
-1.07246e-06
-4.59046e-05
5.99357e-06
-4.58485e-05
2.18821e-05
2.03237e-05
-4.12702e-05
-5.78446e-06
-6.97871e-05
-1.15742e-05
-6.97993e-05
-1.86484e-05
-6.75189e-05
-2.41638e-05
-6.71886e-05
-3.83962e-05
-5.72356e-05
-4.32574e-05
-5.3338e-05
-4.64788e-05
-4.96596e-05
-4.9056e-05
-4.61007e-05
-5.15908e-05
-4.26863e-05
-5.34193e-05
-3.89834e-05
-5.4626e-05
-3.52243e-05
-5.46331e-05
-3.1617e-05
-5.46493e-05
-2.73509e-05
-6.60327e-05
-2.59019e-05
-6.48744e-05
-3.47377e-05
-6.24024e-05
-2.79285e-05
-6.00932e-05
-1.95209e-05
-5.46596e-05
-1.20753e-05
-5.46614e-05
-3.13085e-06
-5.63996e-05
6.65769e-07
-5.43706e-05
3.96459e-06
-4.23401e-05
9.85156e-06
1.792e-05
-3.99364e-05
-5.36165e-06
-6.44255e-05
-1.16948e-05
-6.34662e-05
-1.72577e-05
-6.19559e-05
-2.86517e-05
-5.57946e-05
-3.33203e-05
-5.25671e-05
-3.69291e-05
-4.97292e-05
-4.00084e-05
-4.65803e-05
-4.26463e-05
-4.34628e-05
-4.50731e-05
-4.02595e-05
-4.716e-05
-3.68965e-05
-4.89201e-05
-3.34642e-05
-5.04473e-05
-3.00898e-05
-5.14088e-05
-2.63894e-05
-5.2782e-05
-2.45286e-05
-5.31985e-05
-3.43212e-05
-5.31593e-05
-2.79678e-05
-5.1895e-05
-2.07851e-05
-5.01906e-05
-1.37798e-05
-4.82304e-05
-5.09103e-06
-4.60907e-05
-1.47398e-06
-4.66549e-05
4.52888e-06
-3.59841e-05
-8.19266e-07
1.78437e-05
-3.59078e-05
-7.07842e-06
-5.73471e-05
-1.36849e-05
-5.68597e-05
-2.03756e-05
-5.52653e-05
-2.51546e-05
-5.10155e-05
-2.8212e-05
-4.95097e-05
-3.14148e-05
-4.65265e-05
-3.40672e-05
-4.39279e-05
-3.6497e-05
-4.10331e-05
-3.86464e-05
-3.81101e-05
-4.04879e-05
-3.50551e-05
-4.20339e-05
-3.19182e-05
-4.33632e-05
-2.87606e-05
-4.44614e-05
-2.52912e-05
-4.66416e-05
-2.23484e-05
-4.67876e-05
-3.41752e-05
-4.67093e-05
-2.8046e-05
-4.57701e-05
-2.17243e-05
-4.42221e-05
-1.53278e-05
-4.33843e-05
-5.92885e-06
-4.28509e-05
-2.00738e-06
-3.99937e-05
1.67165e-06
-4.26562e-05
1.84328e-06
1.01834e-05
-3.49959e-05
-5.80022e-06
-5.15468e-05
-1.1374e-05
-5.12858e-05
-1.65266e-05
-5.01127e-05
-1.95567e-05
-4.79854e-05
-2.31165e-05
-4.59499e-05
-2.59805e-05
-4.36625e-05
-2.86369e-05
-4.12715e-05
-3.09444e-05
-3.87256e-05
-3.29855e-05
-3.60689e-05
-3.47522e-05
-3.32884e-05
-3.62647e-05
-3.04057e-05
-3.75556e-05
-2.74697e-05
-3.84856e-05
-2.43611e-05
-3.93892e-05
-2.14449e-05
-4.00662e-05
-3.34982e-05
-4.04133e-05
-2.76989e-05
-4.05323e-05
-2.16053e-05
-3.98548e-05
-1.60052e-05
-3.60561e-05
-9.72758e-06
-3.54065e-05
-2.65693e-06
-3.41848e-05
4.49926e-07
-3.54965e-05
3.15492e-06
4.2309e-06
-2.9544e-05
-4.34539e-06
-4.72015e-05
-8.50328e-06
-4.71279e-05
-1.24684e-05
-4.61476e-05
-1.59166e-05
-4.45372e-05
-1.89008e-05
-4.29657e-05
-2.15524e-05
-4.10109e-05
-2.38924e-05
-3.89316e-05
-2.59534e-05
-3.66645e-05
-2.77617e-05
-3.42606e-05
-2.93226e-05
-3.17275e-05
-3.06487e-05
-2.90796e-05
-3.17647e-05
-2.63537e-05
-3.26349e-05
-2.34909e-05
-3.34121e-05
-2.06677e-05
-3.40025e-05
-3.29077e-05
-3.41997e-05
-2.75017e-05
-3.3866e-05
-2.19391e-05
-3.30686e-05
-1.68026e-05
-3.18733e-05
-1.09229e-05
-3.09463e-05
-3.58391e-06
-2.9323e-05
-1.17339e-06
-2.90038e-05
2.8357e-06
-7.51568e-07
-2.40213e-05
-3.45605e-06
-4.37454e-05
-6.82739e-06
-4.37566e-05
-1.00012e-05
-4.29738e-05
-1.27387e-05
-4.17998e-05
-1.53135e-05
-4.03909e-05
-1.75916e-05
-3.87327e-05
-1.96383e-05
-3.68849e-05
-2.14459e-05
-3.4857e-05
-2.30303e-05
-3.26762e-05
-2.43988e-05
-3.0359e-05
-2.55605e-05
-2.7918e-05
-2.65251e-05
-2.53891e-05
-2.72814e-05
-2.27347e-05
-2.78723e-05
-2.00768e-05
-2.85263e-05
-3.22537e-05
-2.88389e-05
-2.71891e-05
-2.87609e-05
-2.20171e-05
-2.82938e-05
-1.72696e-05
-2.70842e-05
-1.21325e-05
-2.61536e-05
-4.51452e-06
-2.56607e-05
-1.66628e-06
-2.36755e-05
8.50529e-07
3.20398e-06
-2.7631e-05
-2.69e-06
-4.10554e-05
-5.31632e-06
-4.11303e-05
-7.8208e-06
-4.04693e-05
-1.01309e-05
-3.94897e-05
-1.22429e-05
-3.82788e-05
-1.41506e-05
-3.68251e-05
-1.58614e-05
-3.51741e-05
-1.73774e-05
-3.3341e-05
-1.87057e-05
-3.13478e-05
-1.98507e-05
-2.92141e-05
-2.08191e-05
-2.69495e-05
-2.16186e-05
-2.45896e-05
-2.22554e-05
-2.20978e-05
-2.27464e-05
-1.95859e-05