/*--------------------------------*- C++ -*----------------------------------*\
| =========                 |                                                 |
| \\      /  F ield         | foam-extend: Open Source CFD                    |
|  \\    /   O peration     | Version:     4.1                                |
|   \\  /    A nd           | Web:         http://www.foam-extend.org         |
|    \\/     M anipulation  |                                                 |
\*---------------------------------------------------------------------------*/
FoamFile
{
    version     2.0;
    format      ascii;
    class       volVectorField;
    location    "0.1";
    object      U;
}
// * * * * * * * * * * * * * * * * * * * * * * * * * * * * * * * * * * * * * //

dimensions      [0 1 -1 0 0 0 0];

internalField   nonuniform List<vector> 
2268
(
(0.0420704 -0.0105804 0)
(0.123341 -0.0105194 0)
(0.210439 -0.0110528 0)
(0.29176 -0.0103274 0)
(0.379845 -0.0119251 0)
(0.47186 -0.0102734 0)
(0.543059 -0.0120446 0)
(0.66737 -0.0115616 0)
(0.696623 -0.0143759 0)
(0.828795 -0.0108415 0)
(0.762451 -0.0531197 0)
(0.762172 -0.0206601 0)
(0.86926 -0.0181697 0)
(0.9768 -0.0292608 0)
(1.10084 -0.0290191 0)
(1.24063 -0.0514449 0)
(1.33355 -0.00963822 0)
(1.40035 -0.00576253 0)
(1.42856 -0.00711438 0)
(1.45337 -0.0110996 0)
(1.52199 -0.0177453 0)
(1.62661 0.0200615 0)
(1.6783 0.259895 0)
(0.0422007 -0.0318036 0)
(0.12343 -0.0316222 0)
(0.21102 -0.0332457 0)
(0.292071 -0.0309599 0)
(0.380795 -0.0362025 0)
(0.472649 -0.029863 0)
(0.545683 -0.0379577 0)
(0.660866 -0.0299374 0)
(0.708502 -0.0228295 0)
(0.822114 -0.0205362 0)
(0.74449 -0.201841 0)
(0.737363 -0.0961583 0)
(0.850737 -0.0776165 0)
(0.964593 -0.0948825 0)
(1.08464 -0.0985363 0)
(1.22986 -0.141156 0)
(1.31587 -0.0813144 0)
(1.37254 -0.0272004 0)
(1.43364 -0.0272888 0)
(1.53203 -0.033203 0)
(1.64307 -0.0177727 0)
(1.73563 0.116459 0)
(1.719 1.02285 0)
(0.0422566 -0.0529995 0)
(0.12299 -0.052711 0)
(0.211194 -0.055426 0)
(0.291131 -0.0516047 0)
(0.381133 -0.0602918 0)
(0.471987 -0.0504502 0)
(0.546638 -0.0612053 0)
(0.663868 -0.0574504 0)
(0.743013 -0.0459413 0)
(0.712121 -0.123509 0)
(0.702056 -0.243241 0)
(0.724572 -0.143043 0)
(0.839753 -0.126115 0)
(0.946841 -0.153201 0)
(1.06416 -0.152233 0)
(1.21869 -0.262546 0)
(1.31878 -0.181587 0)
(1.381 -0.10444 0)
(1.45566 -0.0752721 0)
(1.58941 -0.0695296 0)
(1.70682 -0.00621121 0)
(1.76004 0.252022 0)
(1.28234 2.7708 0)
(0.0423435 -0.0741971 0)
(0.122357 -0.0738248 0)
(0.211479 -0.0776532 0)
(0.289918 -0.0721685 0)
(0.381007 -0.0846312 0)
(0.474113 -0.0711587 0)
(0.535564 -0.0853813 0)
(0.69305 -0.0877849 0)
(0.658538 -0.0996933 0)
(0.652961 -0.210988 0)
(0.688864 -0.218416 0)
(0.724461 -0.169137 0)
(0.837563 -0.18057 0)
(0.949023 -0.20096 0)
(1.03079 -0.218036 0)
(1.1824 -0.26244 0)
(1.34131 -0.279558 0)
(1.4105 -0.219128 0)
(1.53265 -0.160027 0)
(1.6694 -0.100058 0)
(1.77506 0.0308251 0)
(1.64785 0.50269 0)
(0.387771 4.0648 0)
(0.0424462 -0.0952367 0)
(0.12149 -0.0948229 0)
(0.211912 -0.0998218 0)
(0.288046 -0.0922073 0)
(0.382291 -0.110762 0)
(0.467764 -0.0853372 0)
(0.553796 -0.123385 0)
(0.674319 -0.0767072 0)
(0.617981 -0.25309 0)
(0.615999 -0.213781 0)
(0.654868 -0.230362 0)
(0.719844 -0.228007 0)
(0.838709 -0.236644 0)
(0.94031 -0.246879 0)
(1.03646 -0.270604 0)
(1.15087 -0.233274 0)
(1.30174 -0.322598 0)
(1.46599 -0.306542 0)
(1.6142 -0.258693 0)
(1.76638 -0.125074 0)
(1.77818 0.119425 0)
(1.04688 0.977569 0)
(-0.0497194 4.06296 0)
(0.0425506 -0.116205 0)
(0.120371 -0.115845 0)
(0.212587 -0.121826 0)
(0.285065 -0.113266 0)
(0.385439 -0.133222 0)
(0.458692 -0.114137 0)
(0.590275 -0.145395 0)
(0.575762 -0.139255 0)
(0.54721 -0.280093 0)
(0.585891 -0.241525 0)
(0.655507 -0.26271 0)
(0.729722 -0.272786 0)
(0.834619 -0.281711 0)
(0.932504 -0.294151 0)
(1.02204 -0.305938 0)
(1.12546 -0.325577 0)
(1.28369 -0.317749 0)
(1.49733 -0.400133 0)
(1.70768 -0.345177 0)
(1.88132 -0.0422688 0)
(1.36751 0.413097 0)
(0.453898 1.42085 0)
(-0.11338 3.94801 0)
(0.0426283 -0.137575 0)
(0.119072 -0.137308 0)
(0.212975 -0.144073 0)
(0.283297 -0.132518 0)
(0.382118 -0.157092 0)
(0.469276 -0.144394 0)
(0.551097 -0.137276 0)
(0.526881 -0.284038 0)
(0.519072 -0.288356 0)
(0.578065 -0.26966 0)
(0.653101 -0.291977 0)
(0.725861 -0.317686 0)
(0.823492 -0.329622 0)
(0.911294 -0.337245 0)
(1.00753 -0.358161 0)
(1.11393 -0.38275 0)
(1.26975 -0.385829 0)
(1.49549 -0.452399 0)
(1.92118 -0.343217 0)
(2.0782 -0.0230276 0)
(1.18849 0.595608 0)
(0.362269 1.58429 0)
(0.0398527 3.88806 0)
(0.0426808 -0.156444 0)
(0.117607 -0.156865 0)
(0.214606 -0.165502 0)
(0.282087 -0.157135 0)
(0.381423 -0.197137 0)
(0.491641 -0.130637 0)
(0.454497 -0.217579 0)
(0.48049 -0.319182 0)
(0.505107 -0.306505 0)
(0.580623 -0.30225 0)
(0.650117 -0.326949 0)
(0.72365 -0.354289 0)
(0.812695 -0.363458 0)
(0.896491 -0.377024 0)
(0.995403 -0.401467 0)
(1.09273 -0.439542 0)
(1.25426 -0.466016 0)
(1.50986 -0.397961 0)
(2.27089 -0.183716 0)
(2.013 -0.115687 0)
(0.86738 0.964792 0)
(0.433405 1.91311 0)
(0.0989511 3.62553 0)
(-3.71005e-05 -0.00486196 0)
(0.0416313 -0.013417 0)
(0.102982 -0.00881769 0)
(0.146288 -0.00693776 0)
(0.170891 -0.00221566 0)
(0.173172 4.63287e-05 0)
(0.173262 0.00118233 0)
(0.167798 0.00205891 0)
(0.159496 0.0033967 0)
(0.148895 0.00354453 0)
(0.142187 0.00334834 0)
(0.130548 0.00601407 0)
(0.115006 0.00563925 0)
(0.139876 0.0226685 0)
(0.133032 0.00497611 0)
(0.0800408 0.00412703 0)
(0.0583697 0.00290595 0)
(0.0325738 0.00264472 0)
(0.0109232 0.00247576 0)
(-0.00170253 -0.0281493 0)
(0.0455511 -0.0782419 0)
(0.107293 -0.0336789 0)
(0.155241 -0.0242318 0)
(0.180777 -0.00790358 0)
(0.18329 -0.00170639 0)
(0.182545 0.00431031 0)
(0.175771 0.00759234 0)
(0.167419 0.0109366 0)
(0.155824 0.0104487 0)
(0.14975 0.0105274 0)
(0.136749 0.0138799 0)
(0.128764 -0.0102468 0)
(0.144959 0.0468846 0)
(0.130217 0.0110026 0)
(0.0824211 0.0116379 0)
(0.0602724 0.00858687 0)
(0.0338576 0.00800822 0)
(0.0113396 0.00753956 0)
(-0.0162887 -0.0400444 0)
(0.04424 -0.0861127 0)
(0.130657 -0.0557536 0)
(0.163303 -0.0386447 0)
(0.18727 -0.0133847 0)
(0.18715 -0.00286031 0)
(0.185665 0.00844256 0)
(0.177794 0.0141764 0)
(0.168225 0.0192742 0)
(0.155857 0.0190124 0)
(0.150339 0.0187181 0)
(0.127163 0.0242558 0)
(0.135501 0.00604122 0)
(0.156857 0.0509755 0)
(0.121925 0.018385 0)
(0.0827556 0.0186842 0)
(0.0594432 0.0144049 0)
(0.0336667 0.0135058 0)
(0.0112469 0.0127563 0)
(-0.010247 -0.0366564 0)
(0.0416474 -0.0829065 0)
(0.129184 -0.0812268 0)
(0.173438 -0.0515328 0)
(0.195465 -0.0155272 0)
(0.192642 -0.00209055 0)
(0.189907 0.0132248 0)
(0.180508 0.0206889 0)
(0.169638 0.0286617 0)
(0.155763 0.0238056 0)
(0.150998 0.0339899 0)
(0.132902 0.0193189 0)
(0.138436 0.0706875 0)
(0.15378 0.0502756 0)
(0.115546 0.0283517 0)
(0.0818064 0.0252137 0)
(0.0581987 0.0202474 0)
(0.0332637 0.0188816 0)
(0.011085 0.0178852 0)
(-0.0112439 -0.0565404 0)
(0.0543532 -0.145206 0)
(0.140299 -0.111273 0)
(0.19082 -0.0686232 0)
(0.207419 -0.0203476 0)
(0.19919 -0.000490375 0)
(0.195232 0.0197189 0)
(0.184311 0.030323 0)
(0.169385 0.0389154 0)
(0.158492 0.039931 0)
(0.145874 0.0289781 0)
(0.14346 0.0469834 0)
(0.150671 0.0919338 0)
(0.141106 0.0550004 0)
(0.108801 0.0358064 0)
(0.0799205 0.030944 0)
(0.056784 0.0258318 0)
(0.032741 0.0240781 0)
(0.0108905 0.0229007 0)
(0.0392715 -0.0488722 0)
(0.106738 -0.157019 0)
(0.160244 -0.140395 0)
(0.214666 -0.0792771 0)
(0.2236 -0.025569 0)
(0.209394 0.00516145 0)
(0.202812 0.027573 0)
(0.188531 0.0384631 0)
(0.172963 0.0508831 0)
(0.151053 0.0318714 0)
(0.154809 0.0579176 0)
(0.158137 0.0914709 0)
(0.141715 0.08409 0)
(0.132262 0.0580058 0)
(0.104441 0.0427675 0)
(0.0776285 0.0364143 0)
(0.0552999 0.0312994 0)
(0.0321103 0.0292075 0)
(0.0106686 0.0278757 0)
(0.172956 -0.173199 0)
(0.19688 -0.206024 0)
(0.205246 -0.151596 0)
(0.235621 -0.104513 0)
(0.237523 -0.0303517 0)
(0.220714 0.0115717 0)
(0.209147 0.0397265 0)
(0.19515 0.0558355 0)
(0.162951 0.070706 0)
(0.163051 0.070747 0)
(0.170871 0.105473 0)
(0.152671 0.0877117 0)
(0.137211 0.092414 0)
(0.123116 0.0626861 0)
(0.100282 0.0488299 0)
(0.0751173 0.0415525 0)
(0.0537423 0.0364682 0)
(0.0313943 0.0341353 0)
(0.0104259 0.0326894 0)
(0.191334 -0.193284 0)
(0.26501 -0.247912 0)
(0.257885 -0.16728 0)
(0.261126 -0.0915499 0)
(0.268462 -0.0134943 0)
(0.228677 0.0263769 0)
(0.214081 0.0511527 0)
(0.195434 0.07047 0)
(0.174806 0.0807407 0)
(0.16338 0.115779 0)
(0.162477 0.0954053 0)
(0.152384 0.0941476 0)
(0.13019 0.10795 0)
(0.112917 0.0665318 0)
(0.096416 0.0547486 0)
(0.0724455 0.0466232 0)
(0.052173 0.0415537 0)
(0.0306307 0.0390287 0)
(0.0101729 0.0374819 0)
(0.0421207 -0.19268 0)
(0.113252 -0.1921 0)
(0.211018 -0.200807 0)
(0.262713 -0.164287 0)
(0.40631 -0.213913 0)
(0.393599 -0.248967 0)
(0.398271 -0.317801 0)
(0.465011 -0.328882 0)
(0.510384 -0.347033 0)
(0.572061 -0.356549 0)
(0.644187 -0.378944 0)
(0.71887 -0.417937 0)
(0.805678 -0.436859 0)
(0.886199 -0.459694 0)
(0.968696 -0.460811 0)
(1.05234 -0.547221 0)
(1.24247 -0.579445 0)
(1.54535 -0.279258 0)
(1.99687 -0.0244214 0)
(1.13735 0.333025 0)
(0.299273 1.30463 0)
(0.385395 1.95121 0)
(0.859725 3.1209 0)
(0.0424894 -0.226348 0)
(0.109626 -0.233886 0)
(0.237748 -0.237378 0)
(0.253785 -0.277853 0)
(0.265253 -0.278925 0)
(0.341239 -0.358882 0)
(0.395006 -0.335295 0)
(0.436704 -0.382785 0)
(0.491748 -0.409898 0)
(0.552106 -0.420423 0)
(0.614499 -0.4499 0)
(0.694574 -0.503315 0)
(0.770895 -0.496035 0)
(0.874915 -0.493271 0)
(0.88606 -0.632001 0)
(0.809659 -0.718008 0)
(1.07197 -0.722783 0)
(1.7619 0.0389365 0)
(1.03943 0.215379 0)
(0.324464 0.685419 0)
(0.0421111 1.24563 0)
(0.402614 1.81933 0)
(1.14049 2.3133 0)
(0.0313477 -0.279969 0)
(0.0883642 -0.290887 0)
(0.153776 -0.294315 0)
(0.204975 -0.360548 0)
(0.263258 -0.347924 0)
(0.316425 -0.373908 0)
(0.361134 -0.405736 0)
(0.414313 -0.430551 0)
(0.466349 -0.465849 0)
(0.528304 -0.481906 0)
(0.582111 -0.53017 0)
(0.693434 -0.584255 0)
(0.791159 -0.56998 0)
(0.707925 -0.703871 0)
(0.654626 -0.893902 0)
(0.832952 -0.89274 0)
(1.23256 -0.39745 0)
(0.965664 0.217977 0)
(0.272846 0.55847 0)
(-0.103125 0.956867 0)
(0.0693983 1.31609 0)
(0.597234 1.54461 0)
(0.67919 1.39662 0)
(0.0294384 -0.347334 0)
(0.084304 -0.353827 0)
(0.146125 -0.362871 0)
(0.195561 -0.384358 0)
(0.237181 -0.393685 0)
(0.286395 -0.430692 0)
(0.337908 -0.448955 0)
(0.379253 -0.481897 0)
(0.43544 -0.52039 0)
(0.483424 -0.544347 0)
(0.543881 -0.621958 0)
(0.658749 -0.670584 0)
(0.635882 -0.74635 0)
(0.553783 -0.899587 0)
(0.648703 -0.907519 0)
(1.08481 -0.88979 0)
(1.4732 -0.251038 0)
(0.489649 0.44119 0)
(0.113207 0.748522 0)
(0.016377 1.01522 0)
(0.165268 1.36532 0)
(0.369053 1.28849 0)
(0.395918 1.12273 0)
(0.0254724 -0.396644 0)
(0.0750963 -0.403433 0)
(0.125546 -0.41265 0)
(0.170882 -0.435109 0)
(0.219147 -0.451827 0)
(0.26455 -0.472841 0)
(0.309131 -0.497766 0)
(0.34801 -0.529276 0)
(0.398117 -0.564505 0)
(0.429064 -0.598108 0)
(0.483703 -0.672872 0)
(0.513622 -0.724898 0)
(0.553574 -0.859402 0)
(0.546859 -0.881484 0)
(0.576846 -0.857492 0)
(0.717517 -0.724823 0)
(0.629809 0.144584 0)
(0.0647717 0.71084 0)
(0.0150627 0.896656 0)
(0.103728 0.881348 0)
(0.233894 1.08005 0)
(0.327768 1.0221 0)
(0.421579 0.963885 0)
(0.0229998 -0.447583 0)
(0.0683678 -0.452982 0)
(0.114139 -0.462095 0)
(0.157855 -0.476892 0)
(0.199118 -0.491551 0)
(0.239443 -0.515926 0)
(0.281027 -0.53745 0)
(0.315577 -0.571421 0)
(0.359581 -0.601116 0)
(0.380423 -0.638253 0)
(0.422848 -0.705961 0)
(0.449362 -0.759178 0)
(0.478058 -0.83059 0)
(0.471604 -0.91315 0)
(0.504607 -0.936931 0)
(0.551761 -0.606391 0)
(0.140767 0.51341 0)
(-0.0773267 0.810132 0)
(-0.0437371 0.829305 0)
(0.123753 0.944366 0)
(0.321128 0.929394 0)
(0.295901 0.920155 0)
(0.351257 0.858252 0)
(0.0205045 -0.489572 0)
(0.0610646 -0.494707 0)
(0.101452 -0.503727 0)
(0.140653 -0.517974 0)
(0.179821 -0.534571 0)
(0.218879 -0.554399 0)
(0.253794 -0.57395 0)
(0.287317 -0.605181 0)
(0.320939 -0.624036 0)
(0.328206 -0.66158 0)
(0.361259 -0.727471 0)
(0.369184 -0.788802 0)
(0.401341 -0.871009 0)
(0.414261 -0.941937 0)
(0.448434 -0.937267 0)
(0.297583 -0.230225 0)
(-0.240866 0.547821 0)
(-0.164443 0.775306 0)
(0.027871 0.874528 0)
(0.251679 0.997212 0)
(0.238272 0.898696 0)
(0.246479 0.855301 0)
(0.343772 0.775889 0)
(0.0181904 -0.528535 0)
(0.0544001 -0.533432 0)
(0.0905053 -0.541973 0)
(0.126688 -0.555186 0)
(0.161948 -0.570024 0)
(0.198693 -0.590958 0)
(0.230797 -0.607569 0)
(0.268629 -0.637667 0)
(0.290254 -0.653332 0)
(0.282054 -0.688577 0)
(0.292961 -0.748902 0)
(0.285316 -0.815458 0)
(0.331533 -0.900105 0)
(0.343206 -0.961538 0)
(0.372697 -0.866946 0)
(-0.211163 0.354099 0)
(-0.318416 0.801767 0)
(0.0179562 0.876648 0)
(0.159203 1.02174 0)
(0.157642 0.925699 0)
(0.14569 0.858502 0)
(0.178329 0.807432 0)
(0.157897 0.747202 0)
(0.0158923 -0.563764 0)
(0.0476752 -0.568516 0)
(0.0790175 -0.577128 0)
(0.111315 -0.591099 0)
(0.142413 -0.606155 0)
(0.17904 -0.626854 0)
(0.20698 -0.639407 0)
(0.245445 -0.664947 0)
(0.251845 -0.657999 0)
(0.235902 -0.697119 0)
(0.229577 -0.752461 0)
(0.195898 -0.843944 0)
(0.268071 -0.945213 0)
(0.286569 -0.999149 0)
(0.269743 -0.533352 0)
(-0.303737 0.44934 0)
(-0.0897067 0.973691 0)
(-0.0266404 0.935981 0)
(0.0557737 0.921074 0)
(0.0797711 0.859147 0)
(0.119173 0.839481 0)
(0.143781 0.803808 0)
(0.160298 0.749882 0)
(0.0135678 -0.591645 0)
(0.0409579 -0.596889 0)
(0.0674438 -0.605458 0)
(0.0965175 -0.619939 0)
(0.123999 -0.635508 0)
(0.163168 -0.655983 0)
(0.185789 -0.666505 0)
(0.24185 -0.68636 0)
(0.22914 -0.59649 0)
(0.205328 -0.619219 0)
(0.182716 -0.68011 0)
(0.0874616 -0.887096 0)
(0.168512 -0.997196 0)
(0.160727 -1.0058 0)
(0.0715683 -0.0292465 0)
(-0.267719 0.572367 0)
(0.118319 0.791737 0)
(-0.0308812 0.8103 0)
(0.0662402 0.812525 0)
(0.0641366 0.808454 0)
(0.0853659 0.780344 0)
(0.0977999 0.752234 0)
(0.122105 0.706512 0)
(0.0107834 -0.618211 0)
(0.0344995 -0.623081 0)
(0.0572661 -0.631779 0)
(0.0827406 -0.648277 0)
(0.106475 -0.671422 0)
(0.145976 -0.697938 0)
(0.1742 -0.741994 0)
(0.289124 -0.746528 0)
(0.310426 -0.822801 0)
(0.174598 -0.878568 0)
(0.0167116 -0.924713 0)
(-0.0136283 -0.917979 0)
(0.0465433 -0.995779 0)
(0.0339197 -0.883891 0)
(0.511796 0.0236256 0)
(-0.044414 0.861601 0)
(0.0888471 0.752491 0)
(0.0110992 0.812117 0)
(0.0503928 0.794006 0)
(0.0464345 0.786843 0)
(0.0607992 0.767153 0)
(0.0621777 0.741171 0)
(0.0647401 0.701398 0)
(0.00935107 -0.634099 0)
(0.0294047 -0.639828 0)
(0.0447386 -0.654946 0)
(0.063101 -0.668927 0)
(0.0825952 -0.692036 0)
(0.0978997 -0.723696 0)
(0.115687 -0.773556 0)
(0.120479 -0.814499 0)
(0.149381 -0.959527 0)
(0.106058 -0.983879 0)
(0.0930971 -1.05329 0)
(0.0645561 -0.941225 0)
(0.0534374 -0.98503 0)
(0.100484 -0.857639 0)
(0.18326 0.243533 0)
(-0.0322372 0.918796 0)
(0.0587928 0.780431 0)
(0.0216881 0.801617 0)
(0.0416597 0.782707 0)
(0.0322491 0.764685 0)
(0.0432651 0.764013 0)
(0.0305351 0.74644 0)
(0.0902364 0.746987 0)
(0.0074007 -0.663517 0)
(0.0161562 -0.670906 0)
(0.0285165 -0.682697 0)
(0.0482344 -0.687794 0)
(0.059487 -0.708039 0)
(0.064999 -0.733792 0)
(0.0869298 -0.758865 0)
(0.0690159 -0.780178 0)
(0.10052 -0.878732 0)
(0.073617 -0.893475 0)
(0.0780723 -0.907395 0)
(0.0441523 -0.871276 0)
(-0.0416784 -0.961966 0)
(0.0242336 -1.04887 0)
(-0.567867 0.33551 0)
(0.00298745 0.780697 0)
(-0.0207539 0.753016 0)
(0.0229367 0.781062 0)
(0.0143866 0.782998 0)
(0.0240036 0.770281 0)
(0.0348845 0.752329 0)
(0.0419458 0.764658 0)
(0.00272353 0.668118 0)
(0.00282037 -0.681997 0)
(0.00725599 -0.685923 0)
(0.0214306 -0.691006 0)
(0.0340122 -0.702791 0)
(0.0309225 -0.724124 0)
(0.0414673 -0.74867 0)
(0.0561104 -0.786807 0)
(0.00764723 -0.841296 0)
(0.0637128 -0.990585 0)
(0.0807252 -0.94174 0)
(0.140571 -0.921231 0)
(-0.000824547 -0.982761 0)
(-0.35734 -0.989934 0)
(-0.308308 -1.04673 0)
(-0.152757 0.0542211 0)
(0.224925 0.615684 0)
(0.0892403 0.707926 0)
(0.0456442 0.768976 0)
(0.0313314 0.780601 0)
(0.00943239 0.750233 0)
(0.038859 0.790103 0)
(-0.0432363 0.663181 0)
(-0.192567 0.479734 0)
(0.00243066 -0.687803 0)
(0.0076339 -0.691361 0)
(0.0172004 -0.691899 0)
(0.0157283 -0.710007 0)
(0.0152607 -0.727823 0)
(0.0140258 -0.748205 0)
(0.00810551 -0.779761 0)
(-0.0728961 -0.82718 0)
(-0.00663685 -0.766437 0)
(0.1666 -0.957299 0)
(0.0860274 -0.958446 0)
(0.0393425 -1.04925 0)
(0.053671 -0.989073 0)
(0.0823893 -0.81278 0)
(0.482937 -0.552001 0)
(0.429088 0.593407 0)
(0.137032 0.849084 0)
(0.106283 0.861905 0)
(-0.0110496 0.919006 0)
(0.0248052 0.805022 0)
(-0.050275 0.71709 0)
(-0.25852 0.475298 0)
(-0.150118 0.503164 0)
(0.00177893 -0.687696 0)
(0.00580383 -0.690597 0)
(0.00708659 -0.695763 0)
(0.0101965 -0.71482 0)
(0.0117287 -0.718579 0)
(0.00393993 -0.73341 0)
(0.000205009 -0.768564 0)
(-0.029567 -0.787889 0)
(-0.072189 -0.612044 0)
(-0.0508563 -0.746226 0)
(0.112698 -0.936591 0)
(0.0796248 -0.976081 0)
(0.155671 -0.96892 0)
(0.311894 -0.801054 0)
(0.180932 -0.379223 0)
(0.161037 1.03104 0)
(0.106386 1.10657 0)
(0.01245 1.07928 0)
(-0.0390862 0.827848 0)
(-0.236623 0.68329 0)
(-0.272474 0.491078 0)
(-0.263708 0.495758 0)
(-0.18923 0.492367 0)
(0.00236259 -0.713856 0)
(0.00724365 -0.720726 0)
(0.0155301 -0.731992 0)
(0.0196293 -0.695262 0)
(0.0114207 -0.717286 0)
(-0.0126483 -0.735705 0)
(-0.0117665 -0.789316 0)
(-0.0326375 -0.788907 0)
(-0.040511 -0.681545 0)
(-0.0653575 -0.522747 0)
(-0.0391209 -0.949048 0)
(0.140104 -1.12518 0)
(0.244257 -1.15316 0)
(0.359811 -0.870248 0)
(0.367543 -0.480684 0)
(0.0435676 0.550694 0)
(-0.188799 1.30352 0)
(-0.178979 0.962117 0)
(-0.352346 0.600305 0)
(-0.262854 0.487915 0)
(-0.251052 0.462797 0)
(-0.245975 0.468838 0)
(-0.205919 0.440789 0)
(-0.0109701 -0.633384 0)
(-0.0336786 -0.651867 0)
(-0.0188685 -0.682052 0)
(-0.0123988 -0.648153 0)
(-0.0418962 -0.633814 0)
(-0.129968 -0.635186 0)
(-0.140241 -0.675036 0)
(-0.12318 -0.654252 0)
(-0.0866596 -0.617301 0)
(0.113361 -0.567816 0)
(0.240486 -0.633997 0)
(0.218303 -1.3057 0)
(0.266414 -0.946194 0)
(-0.0982071 -0.576327 0)
(0.00952893 -0.298606 0)
(-0.266379 0.806472 0)
(-0.58356 1.05952 0)
(-0.518014 0.641628 0)
(-0.362258 0.630646 0)
(-0.326994 0.516132 0)
(-0.301407 0.469362 0)
(-0.269866 0.443376 0)
(-0.232746 0.416322 0)
(-0.0649131 -0.907914 0)
(-0.177738 -0.889536 0)
(-0.140441 -0.734884 0)
(-0.101189 -0.869466 0)
(-0.262536 -0.985191 0)
(-0.451047 -0.93516 0)
(-0.455703 -0.941435 0)
(-0.456916 -0.893576 0)
(-0.410036 -1.01245 0)
(-0.33213 -1.03841 0)
(-0.0622238 -1.34836 0)
(-0.127915 -1.31113 0)
(-0.319456 -1.33598 0)
(-0.48611 -0.678212 0)
(-0.241194 -0.0677479 0)
(-0.825174 0.855252 0)
(-0.967998 0.895623 0)
(-0.549903 0.644533 0)
(-0.378226 0.551571 0)
(-0.374388 0.459707 0)
(-0.326847 0.420762 0)
(-0.283363 0.392495 0)
(-0.241446 0.36942 0)
(-0.0401034 -1.14845 0)
(0.0346892 -1.11763 0)
(-0.109172 -1.05841 0)
(-0.309248 -1.12363 0)
(-0.296429 -1.21789 0)
(-0.389517 -1.16791 0)
(-0.336224 -1.18757 0)
(-0.470742 -1.13188 0)
(-0.459432 -1.16745 0)
(-0.412322 -1.22862 0)
(-0.555945 -1.23184 0)
(-0.889358 -1.14492 0)
(-1.05488 -0.798991 0)
(-0.841677 -0.238432 0)
(-0.776671 0.290806 0)
(-1.12545 0.746443 0)
(-1.16017 0.78428 0)
(-0.67046 0.63699 0)
(-0.55209 0.496629 0)
(-0.45747 0.418055 0)
(-0.386048 0.380647 0)
(-0.330303 0.35302 0)
(-0.27896 0.326577 0)
(-0.022043 -1.0084 0)
(-0.0643278 -1.0124 0)
(-0.156435 -1.14371 0)
(-0.269353 -1.07196 0)
(-0.309187 -1.08833 0)
(-0.448315 -1.03057 0)
(-0.42913 -0.941231 0)
(-0.465365 -1.01076 0)
(-0.520657 -0.836591 0)
(-0.582499 -0.980508 0)
(-0.705073 -1.04919 0)
(-1.03255 -1.09565 0)
(-1.12029 -0.524272 0)
(-1.0719 -0.112165 0)
(-1.07178 0.200278 0)
(-1.17685 0.438957 0)
(-1.16699 0.544422 0)
(-0.77191 0.434499 0)
(-0.605632 0.394014 0)
(-0.512292 0.376946 0)
(-0.416921 0.35123 0)
(-0.353468 0.331373 0)
(-0.298559 0.312234 0)
(-0.0315795 -0.963772 0)
(-0.0704478 -0.984684 0)
(-0.159488 -1.01342 0)
(-0.310199 -1.06373 0)
(-0.278799 -1.0412 0)
(-0.268205 -0.974003 0)
(-0.381239 -0.830671 0)
(-0.34222 -0.779937 0)
(-0.416356 -0.742328 0)
(-0.675368 -0.8503 0)
(-0.77613 -0.88143 0)
(-0.876818 -0.630685 0)
(-1.02453 -0.433215 0)
(-0.974735 -0.273244 0)
(-0.871729 -0.0218023 0)
(-1.07731 0.140622 0)
(-1.10152 0.304522 0)
(-0.766996 0.274078 0)
(-0.644122 0.3449 0)
(-0.511134 0.313106 0)
(-0.439286 0.296406 0)
(-0.373448 0.290439 0)
(-0.317367 0.28159 0)
(-0.0332732 -0.872436 0)
(-0.0906845 -0.871809 0)
(-0.226287 -0.901798 0)
(-0.293406 -0.860731 0)
(-0.249618 -0.68886 0)
(-0.279311 -0.805277 0)
(-0.194805 -0.654722 0)
(-0.313762 -0.581052 0)
(-0.512602 -0.659077 0)
(-0.639739 -0.78289 0)
(-0.591998 -0.587962 0)
(-0.532504 -0.554536 0)
(-0.688985 -0.346124 0)
(-0.710417 -0.209836 0)
(-0.63912 -0.133999 0)
(-0.897783 -0.0603735 0)
(-1.0171 0.244875 0)
(-0.72845 0.259594 0)
(-0.614453 0.235468 0)
(-0.534329 0.286146 0)
(-0.443232 0.275934 0)
(-0.371341 0.268099 0)
(-0.319966 0.250142 0)
(-0.0364217 -0.900141 0)
(-0.150493 -0.884312 0)
(-0.221909 -0.816343 0)
(-0.125368 -0.559212 0)
(-0.190185 -0.527231 0)
(-0.198444 -0.534147 0)
(-0.195823 -0.492933 0)
(-0.38668 -0.497234 0)
(-0.539746 -0.57249 0)
(-0.54358 -0.50451 0)
(-0.471273 -0.368144 0)
(-0.532366 -0.353815 0)
(-0.594372 -0.244737 0)
(-0.588538 -0.16399 0)
(-0.596686 -0.0989415 0)
(-0.557834 -0.126412 0)
(-0.763338 0.189803 0)
(-0.824412 0.233804 0)
(-0.60795 0.24926 0)
(-0.500955 0.207818 0)
(-0.458085 0.199884 0)
(-0.391051 0.228459 0)
(-0.339276 0.23676 0)
(-0.0162315 -0.523347 0)
(-0.0511899 -0.524391 0)
(0.0239141 -0.514868 0)
(-0.0183644 -0.454445 0)
(-0.180589 -0.465731 0)
(-0.214666 -0.447911 0)
(-0.181273 -0.437239 0)
(-0.422977 -0.578187 0)
(-0.54011 -0.562119 0)
(-0.490516 -0.382612 0)
(-0.505444 -0.382231 0)
(-0.489499 -0.339745 0)
(-0.510192 -0.258381 0)
(-0.515221 -0.227654 0)
(-0.484136 -0.115756 0)
(-0.425937 -0.0939091 0)
(-0.537248 -0.0684512 0)
(-0.68377 0.183781 0)
(-0.671584 0.25635 0)
(-0.565862 0.238966 0)
(-0.417793 0.230028 0)
(-0.347653 0.194088 0)
(-0.329346 0.178393 0)
(-0.0184608 -0.36943 0)
(-0.0627403 -0.377195 0)
(-0.0751244 -0.364698 0)
(-0.110734 -0.362918 0)
(-0.167538 -0.378979 0)
(-0.158845 -0.426318 0)
(-0.401189 -0.566274 0)
(-0.566342 -0.713389 0)
(-0.417693 -0.503926 0)
(-0.348031 -0.461346 0)
(-0.408809 -0.353775 0)
(-0.409126 -0.300283 0)
(-0.461691 -0.241178 0)
(-0.414381 -0.178241 0)
(-0.394901 -0.109664 0)
(-0.40537 -0.0930175 0)
(-0.373032 -0.102583 0)
(-0.51257 0.0331815 0)
(-0.585402 0.190795 0)
(-0.523701 0.261404 0)
(-0.514432 0.284299 0)
(-0.449987 0.242567 0)
(-0.342154 0.218226 0)
(-0.0139539 -0.343456 0)
(-0.0453162 -0.361586 0)
(0.0039258 -0.37655 0)
(-0.0501222 -0.51403 0)
(-0.247247 -0.547756 0)
(-0.356565 -0.55257 0)
(-0.485873 -0.642358 0)
(-0.354358 -0.525345 0)
(-0.305781 -0.378714 0)
(-0.360992 -0.370065 0)
(-0.358689 -0.304599 0)
(-0.370075 -0.276478 0)
(-0.383164 -0.211053 0)
(-0.383706 -0.145285 0)
(-0.385821 -0.127911 0)
(-0.359178 -0.0778697 0)
(-0.370457 -0.0545009 0)
(-0.330736 -0.0675895 0)
(-0.449401 0.0902033 0)
(-0.508087 0.194776 0)
(-0.426767 0.211335 0)
(-0.396162 0.275445 0)
(-0.362531 0.288293 0)
(-0.0327866 -0.544875 0)
(-0.0670522 -0.555813 0)
(-0.189534 -0.547727 0)
(-0.254289 -0.641599 0)
(-0.236909 -0.649175 0)
(-0.286554 -0.631598 0)
(-0.378052 -0.580783 0)
(-0.318717 -0.393593 0)
(-0.254008 -0.407267 0)
(-0.304907 -0.341772 0)
(-0.301635 -0.304968 0)
(-0.32155 -0.256996 0)
(-0.328353 -0.214701 0)
(-0.326425 -0.159949 0)
(-0.330597 -0.124873 0)
(-0.32228 -0.0744215 0)
(-0.318961 -0.0547115 0)
(-0.335499 0.0104137 0)
(-0.288821 -0.0160996 0)
(-0.383964 0.16658 0)
(-0.459061 0.165 0)
(-0.373084 0.207507 0)
(-0.345421 0.218206 0)
(-0.0252491 -0.636382 0)
(-0.0637887 -0.636838 0)
(-0.117899 -0.649827 0)
(-0.163824 -0.577732 0)
(-0.211525 -0.544992 0)
(-0.311643 -0.560563 0)
(-0.262676 -0.436609 0)
(-0.217012 -0.354737 0)
(-0.253574 -0.346455 0)
(-0.260662 -0.305189 0)
(-0.273434 -0.27689 0)
(-0.280881 -0.237264 0)
(-0.286324 -0.20375 0)
(-0.294043 -0.155641 0)
(-0.300007 -0.130021 0)
(-0.298784 -0.0891867 0)
(-0.272264 -0.0650055 0)
(-0.267179 -0.0219868 0)
(-0.224248 0.0123306 0)
(-0.309915 -0.0087481 0)
(-0.399043 0.144025 0)
(-0.354307 0.15823 0)
(-0.334908 0.190607 0)
(-0.0238913 -0.536465 0)
(-0.0666582 -0.536871 0)
(-0.124837 -0.533408 0)
(-0.168733 -0.521921 0)
(-0.237248 -0.544733 0)
(-0.204872 -0.451246 0)
(-0.185206 -0.368875 0)
(-0.214408 -0.35692 0)
(-0.214208 -0.32582 0)
(-0.230775 -0.296028 0)
(-0.235039 -0.261293 0)
(-0.2479 -0.224169 0)
(-0.24773 -0.188629 0)
(-0.256667 -0.132902 0)
(-0.262936 -0.124676 0)
(-0.255329 -0.0900273 0)
(-0.253328 -0.0562076 0)
(-0.245618 -0.0486529 0)
(-0.245103 -0.00684862 0)
(-0.206366 -0.0401315 0)
(-0.297957 0.0809445 0)
(-0.343833 0.157922 0)
(-0.299077 0.160625 0)
(-0.0214893 -0.516097 0)
(-0.0602512 -0.518067 0)
(-0.0995787 -0.504253 0)
(-0.17231 -0.509038 0)
(-0.152722 -0.436666 0)
(-0.145641 -0.374254 0)
(-0.174758 -0.364577 0)
(-0.175538 -0.328084 0)
(-0.189986 -0.30752 0)
(-0.19702 -0.277693 0)
(-0.20143 -0.250533 0)
(-0.212043 -0.221246 0)
(-0.192041 -0.192856 0)
(-0.231969 -0.161525 0)
(-0.26069 -0.130382 0)
(-0.230463 -0.102154 0)
(-0.236977 -0.0712218 0)
(-0.211456 -0.0482292 0)
(-0.198593 -0.0137624 0)
(-0.222597 0.0153956 0)
(-0.186397 0.00101538 0)
(-0.258516 0.134425 0)
(-0.316788 0.123394 0)
(-0.0211304 -0.472572 0)
(-0.0511329 -0.467506 0)
(-0.119092 -0.45274 0)
(-0.114269 -0.423067 0)
(-0.108863 -0.370584 0)
(-0.137739 -0.365603 0)
(-0.141301 -0.333431 0)
(-0.156489 -0.315143 0)
(-0.163955 -0.290038 0)
(-0.173339 -0.266466 0)
(-0.17987 -0.241616 0)
(-0.188396 -0.217967 0)
(-0.191028 -0.191266 0)
(-0.197538 -0.192594 0)
(-0.198632 -0.130145 0)
(-0.1996 -0.105828 0)
(-0.197785 -0.0743914 0)
(-0.191616 -0.0438267 0)
(-0.181273 -0.0314709 0)
(-0.186331 -0.00706057 0)
(-0.150423 0.0262328 0)
(-0.215604 0.00378129 0)
(-0.279276 0.130342 0)
(-0.0137273 -0.430447 0)
(-0.0390842 -0.423677 0)
(-0.0630986 -0.411648 0)
(-0.0890505 -0.361966 0)
(-0.0999235 -0.362096 0)
(-0.111315 -0.333849 0)
(-0.123468 -0.318053 0)
(-0.132122 -0.294847 0)
(-0.141092 -0.273947 0)
(-0.148532 -0.251183 0)
(-0.154504 -0.228151 0)
(-0.160626 -0.204956 0)
(-0.162735 -0.178956 0)
(-0.171896 -0.15648 0)
(-0.175968 -0.128072 0)
(-0.175369 -0.10465 0)
(-0.174232 -0.0811704 0)
(-0.168463 -0.057236 0)
(-0.163019 -0.044402 0)
(-0.162979 -0.0150764 0)
(-0.162898 0.012884 0)
(-0.129779 -0.0119318 0)
(-0.208165 0.109404 0)
(-0.0111615 -0.376903 0)
(-0.031874 -0.375185 0)
(-0.054477 -0.365848 0)
(-0.0682756 -0.351325 0)
(-0.0794706 -0.332782 0)
(-0.0929772 -0.316861 0)
(-0.10232 -0.29767 0)
(-0.112091 -0.279162 0)
(-0.120045 -0.259479 0)
(-0.127235 -0.239256 0)
(-0.133216 -0.218438 0)
(-0.138729 -0.197567 0)
(-0.142309 -0.175249 0)
(-0.146404 -0.155608 0)
(-0.148273 -0.127063 0)
(-0.151968 -0.104716 0)
(-0.150064 -0.0809355 0)
(-0.154814 -0.0580273 0)
(-0.142117 -0.039768 0)
(-0.128647 -0.0168824 0)
(-0.141103 0.00784284 0)
(-0.108167 0.022531 0)
(-0.169614 0.0343391 0)
(-0.0083368 -0.345425 0)
(-0.0242772 -0.34404 0)
(-0.0395793 -0.33626 0)
(-0.053859 -0.321831 0)
(-0.0656905 -0.310902 0)
(-0.0761504 -0.29535 0)
(-0.0855664 -0.280225 0)
(-0.0937434 -0.263311 0)
(-0.100975 -0.24569 0)
(-0.107269 -0.227166 0)
(-0.112589 -0.207883 0)
(-0.117258 -0.188112 0)
(-0.120643 -0.167307 0)
(-0.124276 -0.146981 0)
(-0.125933 -0.124109 0)
(-0.12886 -0.103112 0)
(-0.127272 -0.0810736 0)
(-0.126284 -0.061199 0)
(-0.121797 -0.0347429 0)
(-0.115923 -0.023298 0)
(-0.119715 -0.00377594 0)
(-0.0948592 0.0210618 0)
(-0.129229 -0.00287917 0)
(-0.00654038 -0.316787 0)
(-0.0194409 -0.316691 0)
(-0.0320495 -0.310763 0)
(-0.0430402 -0.301942 0)
(-0.0528811 -0.291006 0)
(-0.0621046 -0.278658 0)
(-0.0701189 -0.264811 0)
(-0.0773594 -0.249852 0)
(-0.0836914 -0.233882 0)
(-0.0892036 -0.21703 0)
(-0.0939225 -0.199387 0)
(-0.0979209 -0.181203 0)
(-0.101022 -0.162153 0)
(-0.103777 -0.143194 0)
(-0.105291 -0.12213 0)
(-0.108507 -0.102588 0)
(-0.107783 -0.0825598 0)
(-0.10803 -0.0641635 0)
(-0.103962 -0.0449253 0)
(-0.0993435 -0.0287758 0)
(-0.0968159 -0.0120431 0)
(-0.0999616 0.00911524 0)
(-0.0696123 -0.00193592 0)
(-0.00509747 -0.295646 0)
(-0.0151551 -0.295972 0)
(-0.0248744 -0.290883 0)
(-0.0339696 -0.283299 0)
(-0.0422781 -0.274353 0)
(-0.0498176 -0.263524 0)
(-0.0566013 -0.251422 0)
(-0.0626411 -0.238039 0)
(-0.0679658 -0.223573 0)
(-0.0725735 -0.208157 0)
(-0.0765553 -0.191863 0)
(-0.0798188 -0.174947 0)
(-0.0824992 -0.157145 0)
(-0.0847179 -0.139236 0)
(-0.0860659 -0.119694 0)
(-0.0889922 -0.101253 0)
(-0.0886495 -0.0824226 0)
(-0.0885365 -0.0654925 0)
(-0.086443 -0.0463568 0)
(-0.084232 -0.038153 0)
(-0.0821258 -0.0148002 0)
(-0.0807654 0.000154306 0)
(-0.0791653 0.0229777 0)
(-0.00389246 -0.278996 0)
(-0.0116727 -0.279624 0)
(-0.0192751 -0.275374 0)
(-0.0263771 -0.269098 0)
(-0.0329592 -0.261058 0)
(-0.0390058 -0.25144 0)
(-0.0444566 -0.240425 0)
(-0.0493243 -0.228159 0)
(-0.053618 -0.214781 0)
(-0.0572959 -0.200429 0)
(-0.060512 -0.185168 0)
(-0.0629976 -0.169267 0)
(-0.06517 -0.152501 0)
(-0.0667169 -0.135666 0)
(-0.0679633 -0.117556 0)
(-0.0709696 -0.100315 0)
(-0.0718357 -0.082675 0)
(-0.0716812 -0.0658353 0)
(-0.0764897 -0.0484285 0)
(-0.0676926 -0.0337241 0)
(-0.0592039 -0.0166037 0)
(-0.0617418 -0.00180646 0)
(-0.0669375 0.0167183 0)
(-0.00274802 -0.267679 0)
(-0.00828363 -0.268394 0)
(-0.0137164 -0.264614 0)
(-0.0188847 -0.259125 0)
(-0.0237529 -0.252076 0)
(-0.02826 -0.243527 0)
(-0.0323784 -0.233636 0)
(-0.0360851 -0.222522 0)
(-0.039389 -0.21029 0)
(-0.0421981 -0.197046 0)
(-0.0447425 -0.182823 0)
(-0.0466153 -0.167779 0)
(-0.0485439 -0.151557 0)
(-0.0500508 -0.134475 0)
(-0.051238 -0.11471 0)
(-0.053845 -0.0969064 0)
(-0.0539547 -0.0794856 0)
(-0.054057 -0.062254 0)
(-0.0537306 -0.0467771 0)
(-0.0516228 -0.0258109 0)
(-0.0499771 -0.0174623 0)
(-0.0473997 -0.00282237 0)
(-0.0519376 0.01069 0)
(-0.00190287 -0.249439 0)
(-0.0058148 -0.250161 0)
(-0.0096548 -0.246682 0)
(-0.0132384 -0.24157 0)
(-0.01659 -0.234952 0)
(-0.0196388 -0.226949 0)
(-0.0223705 -0.217683 0)
(-0.0247642 -0.207265 0)
(-0.0268159 -0.195839 0)
(-0.0284039 -0.183513 0)
(-0.0297462 -0.170415 0)