/*--------------------------------*- C++ -*----------------------------------*\
| =========                 |                                                 |
| \\      /  F ield         | foam-extend: Open Source CFD                    |
|  \\    /   O peration     | Version:     4.1                                |
|   \\  /    A nd           | Web:         http://www.foam-extend.org         |
|    \\/     M anipulation  |                                                 |
\*---------------------------------------------------------------------------*/
FoamFile
{
    version     2.0;
    format      ascii;
    class       regIOobject;
    location    "0.8/uniform";
    object      profilingInfo;
}
// * * * * * * * * * * * * * * * * * * * * * * * * * * * * * * * * * * * * * //

profilingInfo
(

    {
        id              12;
        parentId        10;
        description     "Foam::Time::writeObject - outputTime";
        calls           16;
        totalTime       0.246808;
        childTime       0;
        onStack         1;
    }

    {
        id              10;
        parentId        1;
        description     "Foam::Time::writeObject";
        calls           884;
        totalTime       0.247698;
        childTime       0.246808;
        onStack         1;
    }

    {
        id              1;
        description     "application::main";
        calls           1;
        totalTime       9.14123;
        childTime       4.47952;
        onStack         1;
    }

    {
        id              11;
        parentId        1;
        description     "FO::DataSummary::execute";
        calls           883;
        totalTime       0.048709;
        childTime       0;
        onStack         0;
    }

    {
        id              4;
        parentId        1;
        description     "functionObjectList::read";
        calls           1;
        totalTime       0.00813;
        childTime       0;
        onStack         0;
    }

    {
        id              5;
        parentId        1;
        description     "fvMatrix::solve_C";
        calls           3536;
        totalTime       0.473075;
        childTime       0.359031;
        onStack         0;
    }

    {
        id              2;
        parentId        1;
        description     "fvMatrix::solve_pcorr";
        calls           1;
        totalTime       0.000121;
        childTime       6.5e-05;
        onStack         0;
    }

    {
        id              7;
        parentId        1;
        description     "fvMatrix::solve_pd";
        calls           3536;
        totalTime       3.70179;
        childTime       3.57266;
        onStack         0;
    }

    {
        id              6;
        parentId        5;
        description     "lduMatrix::solver_C";
        calls           3536;
        totalTime       0.359031;
        childTime       0;
        onStack         0;
    }

    {
        id              9;
        parentId        8;
        description     "lduMatrix::solver_coarsestLevelCorr";
        calls           16026;
        totalTime       0.113136;
        childTime       0;
        onStack         0;
    }

    {
        id              3;
        parentId        2;
        description     "lduMatrix::solver_pcorr";
        calls           1;
        totalTime       6.5e-05;
        childTime       0;
        onStack         0;
    }

    {
        id              8;
        parentId        7;
        description     "lduMatrix::solver_pd";
        calls           3536;
        totalTime       3.57266;
        childTime       0.113136;
        onStack         0;
    }
);


// ************************************************************************* //
