/*--------------------------------*- C++ -*----------------------------------*\
| =========                 |                                                 |
| \\      /  F ield         | foam-extend: Open Source CFD                    |
|  \\    /   O peration     | Version:     4.1                                |
|   \\  /    A nd           | Web:         http://www.foam-extend.org         |
|    \\/     M anipulation  |                                                 |
\*---------------------------------------------------------------------------*/
FoamFile
{
    version     2.0;
    format      ascii;
    class       volScalarField;
    location    "0.7";
    object      alpha1;
}
// * * * * * * * * * * * * * * * * * * * * * * * * * * * * * * * * * * * * * //

dimensions      [0 0 0 0 0 0 0];

internalField   nonuniform List<scalar> 
2268
(
1
1
1
1
1
1
1
0.999735
0.997676
0.996399
0.996036
0.996293
0.997018
0.997901
0.998685
0.999299
0.999731
0.999965
1
1
1
1
1
1
1
1
1
1
1
0.999909
0.998033
0.996316
0.995401
0.995331
0.995746
0.996572
0.997519
0.99836
0.999038
0.999549
0.999848
1
1
1
1
1
0.995595
0.995813
0.995345
0.995057
0.99583
0.996025
0.99551
0.994346
0.993455
0.99334
0.993862
0.994553
0.995575
0.996628
0.997595
0.998431
0.99914
0.999588
0.999945
1
1
1
1
0.981214
0.981701
0.982341
0.983245
0.985733
0.987461
0.988481
0.988923
0.989386
0.990476
0.991681
0.992693
0.993909
0.995046
0.996208
0.997359
0.998419
0.999109
0.999798
1
1
1
1
0.954242
0.956037
0.959125
0.962891
0.969283
0.974713
0.978904
0.982141
0.984461
0.986817
0.988615
0.989889
0.991199
0.992339
0.993758
0.99546
0.99708
0.998094
0.999228
1
1
1
1
0.905757
0.912261
0.920451
0.930575
0.945185
0.957849
0.967216
0.974134
0.978619
0.981936
0.984147
0.98547
0.98675
0.987749
0.98942
0.991981
0.994424
0.995769
0.997324
0.999058
0.99947
1
1
0.821911
0.83977
0.858581
0.882422
0.912746
0.937406
0.953719
0.964504
0.971089
0.974893
0.977178
0.978172
0.979329
0.980047
0.981829
0.985532
0.989067
0.990794
0.992421
0.994591
0.992071
0.990709
0.997167
0.685848
0.721521
0.760932
0.812469
0.869455
0.91156
0.936121
0.950869
0.959676
0.9638
0.965818
0.965854
0.966772
0.967205
0.96876
0.973698
0.978513
0.980706
0.982003
0.984364
0.975132
0.967095
0.975049
0.490699
0.541549
0.551064
0.531515
0.5036
0.464333
0.443181
0.431455
0.450556
0.473762
0.488518
0.495192
0.502717
0.517689
0.52003
0.529625
0.519753
0.51105
0.509162
0.491055
0.552133
0.577279
0.594006
0.603311
0.567563
0.534585
0.491908
0.455417
0.434112
0.432891
0.425396
0.415688
0.45845
0.475772
0.500277
0.507111
0.503717
0.504064
0.490295
0.548828
0.560811
0.61918
0.663834
0.67757
0.672001
0.634456
0.545003
0.423193
0.366127
0.333679
0.310157
0.353463
0.389424
0.424648
0.443829
0.4791
0.497702
0.484221
0.528317
0.470049
0.540377
0.614288
0.694486
0.734978
0.757968
0.692099
0.498969
0.3697
0.283606
0.251365
0.26322
0.293138
0.326157
0.324497
0.429879
0.493704
0.474037
0.481562
0.351153
0.392071
0.464722
0.613212
0.694677
0.784828
0.78835
0.648618
0.461356
0.304836
0.245733
0.226385
0.227002
0.243781
0.225379
0.360042
0.492165
0.461261
0.422284
0.245372
0.257289
0.33486
0.527901
0.61566
0.731151
0.793265
0.757788
0.601301
0.376958
0.30482
0.249789
0.212055
0.187412
0.178343
0.297176
0.49234
0.446552
0.36999
0.174582
0.167402
0.275177
0.484086
0.562727
0.650611
0.728792
0.775931
0.714483
0.515968
0.43358
0.343671
0.265763
0.175302
0.165176
0.256424
0.494738
0.427784
0.333645
0.142749
0.130701
0.262644
0.466868
0.533708
0.576795
0.640239
0.720721
0.745619
0.635215
0.571924
0.474796
0.375602
0.220552
0.165909
0.235777
0.497565
0.396141
0.457274
0.541761
0.668061
0.784821
0.859632
0.897191
0.918036
0.931292
0.935716
0.937175
0.934148
0.933933
0.934523
0.935037
0.941441
0.949109
0.951802
0.952095
0.953633
0.92703
0.896394
0.89295
0.164376
0.212933
0.294717
0.463483
0.653135
0.743443
0.786179
0.8128
0.838779
0.843879
0.844864
0.833715
0.823188
0.828126
0.828652
0.831425
0.844273
0.851977
0.847323
0.851271
0.782893
0.687958
0.639077
0.0873216
0.139916
0.237711
0.345872
0.421565
0.450131
0.482635
0.518118
0.551828
0.557353
0.542482
0.570916
0.516808
0.534121
0.536931
0.527735
0.558045
0.589145
0.629498
0.592603
0.52093
0.432358
0.438363
0.0713509
0.122587
0.165394
0.17709
0.17655
0.205229
0.222394
0.238062
0.217064
0.209198
0.19493
0.210368
0.194837
0.198093
0.208804
0.213681
0.255196
0.321508
0.388327
0.386238
0.364252
0.326398
0.362828
0.0654057
0.0925591
0.0942907
0.0907873
0.089191
0.101289
0.0993985
0.10184
0.0834706
0.0824905
0.0870264
0.0958725
0.100771
0.11041
0.120016
0.126624
0.143604
0.18071
0.263511
0.330232
0.339
0.283636
0.277873
0.0561706
0.0629841
0.0513911
0.0534533
0.0555374
0.0587063
0.0509363
0.0585091
0.0668885
0.0824239
0.101693
0.121178
0.137274
0.153491
0.170916
0.188402
0.21085
0.247005
0.300098
0.330907
0.323036
0.275311
0.263752
0.0467808
0.0449356
0.0496521
0.0672924
0.0776691
0.0849803
0.0919313
0.102493
0.116254
0.12953
0.140894
0.150824
0.161254
0.180087
0.204315
0.230385
0.263911
0.285888
0.300634
0.306348
0.30418
0.287679
0.282105
0.0405137
0.0385927
0.0509523
0.0695117
0.0841339
0.0948878
0.100542
0.103137
0.10418
0.0998749
0.0921143
0.087825
0.0871998
0.0977865
0.11689
0.134605
0.172193
0.20635
0.242174
0.26744
0.27313
0.272305
0.264275
0.0358077
0.0328967
0.0476001
0.064825
0.0782206
0.0849308
0.0853899
0.0754926
0.0618306
0.0474795
0.0363142
0.0318225
0.0301249
0.0348798
0.0490177
0.069433
0.109132
0.145916
0.173595
0.193365
0.205178
0.217211
0.218529
0.0320519
0.0287166
0.0425354
0.056214
0.0641819
0.0673172
0.0540762
0.0360586
0.0245223
0.0155373
0.0102248
0.00859285
0.00860242
0.0114485
0.0174285
0.0274485
0.0459112
0.0667528
0.0892017
0.112231
0.139522
0.174039
0.195616
0.0287537
0.0238608
0.0334264
0.0431346
0.0497272
0.0473095
0.0286033
0.0156299
0.00912865
0.00439349
0.00247542
0.00204176
0.00301768
0.00590235
0.0107334
0.0179603
0.0285166
0.0397518
0.0509256
0.0620377
0.0795945
0.107195
0.136139
0.0257245
0.0208322
0.0280514
0.0376271
0.0427336
0.037051
0.0186625
0.00718745
0.00287703
0.000930383
0.000566194
0.000760558
0.00184405
0.00376355
0.00662396
0.0107698
0.0164248
0.021377
0.0250019
0.027367
0.0304362
0.0338264
0.0373446
0.0228684
0.0177915
0.0234276
0.032876
0.0351046
0.022395
0.00841528
0.00273701
0.000782849
0.000249228
0.000275231
0.000758052
0.00162332
0.00262154
0.00372451
0.00508362
0.00682038
0.00836946
0.00973447
0.010408
0.0105314
0.00971679
0.00848011
0.0201236
0.0146552
0.0205909
0.029059
0.028209
0.013648
0.00539362
0.00186408
0.000405355
0.000110507
0.000161748
0.000525045
0.001093
0.0016556
0.00222069
0.0029744
0.00391824
0.00442402
0.00444367
0.00413756
0.00373826
0.00346537
0.00330506
0.0175838
0.0123655
0.0191883
0.02535
0.0213865
0.00919537
0.00401622
0.0013492
0.000268958
4.25259e-05
1.93695e-05
7.9607e-05
0.000211189
0.000331368
0.000376512
0.000435091
0.000674344
0.00104974
0.00120852
0.00123776
0.00117462
0.00130013
0.00141275
0.0153924
0.0113397
0.0182282
0.0226812
0.0155146
0.00674425
0.00341031
0.00119023
0.000266728
5.10174e-05
1.33793e-05
1.82649e-06
0
0
0
0
0
4.58116e-05
0.000110954
0.000166943
0.000180158
0.000294226
0.000436062
0.0133865
0.0113044
0.0177435
0.0201747
0.0119033
0.00528443
0.00331889
0.00142562
0.000429701
0.000118461
4.56249e-05
1.95678e-05
2.81603e-06
0
0
0
0
0
0
0
0
1.21692e-05
5.61686e-05
0.0119014
0.0117394
0.0170056
0.0163972
0.0081368
0.00408119
0.00342799
0.00204227
0.000716156
0.000172334
4.91311e-05
2.15225e-05
8.09304e-06
4.87978e-07
0
0
0
0
0
0
0
0
0
0.010732
0.0119236
0.0159782
0.0107233
0.00457952
0.00316994
0.00334894
0.00226074
0.000762309
0.000172654
3.87969e-05
1.34065e-05
4.37914e-06
8.17978e-07
0
0
0
0
0
0
0
0
0
0.00984764
0.0118787
0.0147667
0.00804666
0.00314961
0.00253067
0.0031187
0.00189335
0.000494365
9.30774e-05
2.13441e-05
7.81697e-06
2.44928e-06
4.16375e-07
0
0
0
0
0
1.72139e-08
5.97706e-08
1.52665e-08
0
0.00919176
0.0115971
0.0130544
0.00684083
0.00264733
0.00203936
0.00279507
0.00187439
0.000539185
0.000107592
2.98881e-05
1.13909e-05
5.48124e-06
1.63934e-06
1.89651e-07
0
0
0
0
1.51986e-08
7.06864e-08
1.2993e-07
1.38249e-07
0.00862954
0.0110136
0.0106842
0.00546095
0.00221083
0.00167847
0.00242066
0.00164066
0.000488288
0.000124085
6.95076e-05
4.25696e-05
1.94534e-05
5.67803e-06
1.0196e-06
9.98027e-08
0
0
0
0
8.86971e-09
1.89355e-08
1.94889e-08
0.00807456
0.0102558
0.00933412
0.00451822
0.0018093
0.00147589
0.00217793
0.00189869
0.000798405
0.000277465
0.000185476
0.000115395
4.52047e-05
1.29379e-05
2.79902e-06
4.58811e-07
8.96241e-08
1.8448e-08
4.91213e-09
3.47462e-09
2.47668e-09
1.36374e-09
0
0.00753391
0.00920441
0.00827458
0.00504818
0.0020842
0.00146384
0.00201962
0.0021244
0.00129293
0.000576198
0.000379163
0.000191055
6.69113e-05
1.83381e-05
4.19575e-06
9.0453e-07
2.03905e-07
4.74917e-08
1.16817e-08
4.6636e-09
2.21415e-09
8.44354e-10
0
0.00691025
0.00757134
0.00674282
0.0048533
0.00234328
0.00149715
0.00199647
0.0022644
0.00192353
0.00110133
0.000553071
0.000225597
7.5638e-05
1.94807e-05
4.09798e-06
7.93502e-07
1.06767e-07
1.19453e-08
2.45669e-09
1.29842e-09
5.60514e-10
1.86265e-10
5.35121e-11
0.00615592
0.00537293
0.00438301
0.00389644
0.00199291
0.00138703
0.00180802
0.00222358
0.00190878
0.00119047
0.000590104
0.000220806
6.20878e-05
1.23044e-05
1.91171e-06
2.42155e-07
9.49405e-09
0
0
2.03882e-10
1.23776e-10
1.66135e-11
5.54373e-12
0.00508996
0.00341748
0.00251111
0.00238195
0.00144125
0.00122097
0.00172607
0.00212789
0.0017357
0.0010994
0.000572119
0.00022259
5.99465e-05
1.01687e-05
1.34561e-06
7.09596e-08
0
0
0
0
3.79328e-11
0
0
0.00345243
0.00223374
0.00161298
0.00137417
0.00110549
0.00122645
0.00186101
0.00216403
0.0018545
0.00133599
0.00080319
0.000309792
8.40217e-05
1.8038e-05
2.89235e-06
3.42468e-07
1.94198e-08
0
0
0
1.3603e-11
0
0
0.0019599
0.00157153
0.00132477
0.00120879
0.00120302
0.00147434
0.00217086
0.00228364
0.00214099
0.00176128
0.00102659
0.000375957
0.000105335
2.19889e-05
3.30328e-06
3.64855e-07
2.34131e-08
0
0
0
0
0
0
0.00158238
0.00148907
0.00139674
0.0014018
0.00161643
0.00212993
0.0026531
0.00260459
0.00248426
0.00191451
0.000924232
0.00027693
6.43173e-05
1.04419e-05
1.31118e-06
1.22664e-07
4.60371e-09
0
0
0
0
0
0
0.00177505
0.00170789
0.00177773
0.00202612
0.00242025
0.0027984
0.00292562
0.00280007
0.00248943
0.00174867
0.000709791
0.000187511
3.82194e-05
5.2406e-06
3.44998e-07
0
0
0
0
0
0
0
0
0.00221852
0.00218006
0.00237629
0.00267804
0.00287645
0.00292734
0.00287438
0.00263184
0.00214092
0.00118044
0.00038559
9.09087e-05
1.53151e-05
1.80346e-06
7.24826e-08
0
0
0
0
0
0
5.52685e-11
3.11175e-10
0.00245792
0.00249263
0.0026874
0.0028749
0.00287871
0.00276345
0.00246845
0.00194423
0.00119877
0.000461726
0.000123333
2.32834e-05
2.95321e-06
2.52718e-07
0
0
0
0
0
0
1.37256e-10
4.81646e-10
9.26054e-10
0.00243517
0.002525
0.00271275
0.00283707
0.00271404
0.00228084
0.00163322
0.000961163
0.000429202
0.000134601
3.01337e-05
4.26934e-06
2.73559e-07
0
0
0
4.50588e-11
5.45664e-12
0
2.66828e-11
6.63154e-10
1.58843e-09
1.44089e-09
0.00218819
0.00237351
0.00257298
0.00258712
0.00227735
0.00156361
0.000816436
0.000357653
0.000119616
2.86289e-05
4.8648e-06
3.49739e-07
0
0
0
5.34054e-11
2.79589e-11
0
0
3.53182e-10
2.14274e-09
2.41063e-09
0
0.00146598
0.00175246
0.00197091
0.00188021
0.00143158
0.000741313
0.000297696
9.7991e-05
2.46507e-05
4.19331e-06
3.34372e-07
0
0
0
5.38106e-11
4.3921e-11
0
0
5.97057e-11
1.2498e-09
3.25968e-09
0
0
0.000593687
0.000783914
0.000927782
0.000837323
0.000536203
0.0002178
6.87553e-05
1.60729e-05
2.56416e-06
1.8639e-07
0
0
0
1.27036e-10
5.88771e-11
5.5006e-13
0
0
5.35542e-10
3.32291e-09
3.77811e-09
0
0
0.00017217
0.000233395
0.000274992
0.000236813
0.000129878
4.11491e-05
9.69924e-06
1.2765e-06
0
0
0
0
1.47033e-10
6.05822e-11
7.32386e-12
0
0
3.39491e-11
1.9147e-09
7.01636e-09
3.59195e-10
0
0
3.82226e-05
5.20241e-05
5.82512e-05
4.59592e-05
2.03565e-05
4.57445e-06
5.87421e-07
0
0
0
0
1.33017e-10
4.9881e-11
4.36134e-12
0
0
0
6.69615e-10
4.99269e-09
1.11762e-08
0
0
0
6.59017e-06
8.7581e-06
8.97e-06
6.29794e-06
2.00955e-06
2.01552e-07
0
0
0
0
5.58041e-11
4.49189e-11
5.45419e-12
0
0
0
1.59655e-10
2.69444e-09
1.12878e-08
1.58665e-08
0
0
0
8.8677e-07
1.0877e-06
9.81959e-07
5.9783e-07
7.36868e-08
0
0
0
5.56828e-11
4.89118e-11
2.52149e-11
4.05498e-12
0
0
0
0
8.33158e-10
5.22076e-09
1.58924e-08
1.79497e-08
0
0
0
9.35772e-08
7.72398e-08
5.47352e-08
4.01558e-08
0
0
0
3.11402e-11
5.35665e-11
1.0473e-11
1.54904e-12
7.51954e-13
0
0
0
1.67437e-11
1.30384e-09
6.40278e-09
1.74996e-08
1.89974e-08
0
0
0
0.87157
0.854691
0.804743
0.667194
0.631636
0.649751
0.651908
0.56082
0.49344
0.500692
0.465971
0.398011
0.389199
0.369101
0.324313
0.291867
0.286731
0.275509
0.263505
0.256222
0.264607
0.265249
0.266861
0.270026
0.282713
0.283162
0.279856
0.264725
0.25412
0.241552
0.226161
0.205245
0.212766
0.202284
0.188204
0.172476
0.206017
0.208466
0.208762
0.207362
0.15627
0.163755
0.168656
0.172848
0.0446748
0.0488582
0.052999
0.0576157
0.00921474
0.0103739
0.012179
0.0144372
0.00382531
0.00449106
0.0054361
0.0065626
0.00139228
0.00137646
0.00145051
0.0017098
0.000458045
0.000442132
0.000449764
0.000557821
8.34899e-05
9.45009e-05
0.00011218
0.000163677
0
0
0
4.79488e-06
0
0
0
0
0
0
0
0
1.65166e-07
1.81334e-07
1.65232e-07
7.11723e-08
2.84276e-08
4.58821e-08
7.45347e-08
1.05482e-07
0
0
3.52442e-09
1.20746e-08
0
0
0
0
0
0
0
0
9.17105e-12
0
0
0
0
0
5.29765e-12
1.50636e-10
0
0
7.01975e-11
3.77499e-10
0
3.89437e-11
3.08295e-10
8.10965e-10
3.6936e-11
3.6652e-10
1.08103e-09
1.86347e-09
3.18443e-10
1.18601e-09
2.74871e-09
3.51481e-09
1.21439e-09
2.9337e-09
5.33301e-09
5.07547e-09
2.30428e-09
4.84062e-09
6.73311e-09
0
2.22564e-09
2.62164e-09
0
0
0
0
0
0
0
0
0
0
0
0
0
0
0
0
0
0
0
0
0
0
0
0
0
0
0
0
0
0
0
0
0
0
0.408687
0.288189
0.144259
0.137733
0.274504
0.457063
0.494966
0.486591
0.516008
0.570351
0.684166
0.675996
0.677733
0.651242
0.58792
0.392054
0.191284
0.233854
0.503412
0.350962
0.203392
0.159052
0.213602
0.367302
0.463369
0.408991
0.346964
0.331812
0.35393
0.386746
0.486196
0.586525
0.631462
0.593208
0.402045
0.170143
0.285481
0.530667
0.281839
0.215768
0.292918
0.340738
0.402652
0.368276
0.275788
0.204861
0.187426
0.206604
0.181761
0.247095
0.44778
0.562874
0.561002
0.319975
0.239787
0.375146
0.561314
0.26591
0.300455
0.360455
0.34602
0.304571
0.247399
0.174291
0.130302
0.11826
0.119072
0.111841
0.20511
0.412832
0.466932
0.423156
0.220311
0.370641
0.534564
0.59789
0.253064
0.306787
0.305068
0.173308
0.145883
0.140437
0.121117
0.105284
0.0961274
0.0976975
0.144136
0.280204
0.359975
0.340859
0.298791
0.264686
0.410249
0.556398
0.599649
0.27361
0.229855
0.157883
0.115716
0.115023
0.123071
0.135584
0.143588
0.140427
0.135223
0.209535
0.275356
0.29995
0.272335
0.261187
0.323747
0.395982
0.53638
0.594149
0.217471
0.139686
0.110693
0.109116
0.133123
0.145238
0.153533
0.167872
0.183439
0.20064
0.223463
0.234968
0.223697
0.219511
0.235093
0.252181
0.349686
0.516845
0.590798
0.167089
0.124418
0.111941
0.127705
0.161788
0.174217
0.169221
0.165845
0.165567
0.177423
0.184555
0.181288
0.182859
0.208796
0.211041
0.204651
0.30589
0.47508
0.585665
0.148002
0.119432
0.112315
0.123472
0.162374
0.202027
0.215118
0.209957
0.183919
0.174353
0.174183
0.184048
0.197901
0.202387
0.180332
0.172306
0.245602
0.413927
0.522096
0.200017
0.182216
0.154979
0.144527
0.142803
0.195019
0.244717
0.261516
0.259999
0.250936
0.229958
0.214943
0.194591
0.138363
0.11785
0.126497
0.160445
0.263295
0.349537
0.178876
0.18693
0.188161
0.187735
0.177193
0.176801
0.183606
0.205326
0.218584
0.203152
0.169701
0.138896
0.108509
0.083169
0.0717652
0.0839563
0.101806
0.133747
0.171345
0.0680142
0.0989576
0.125914
0.14388
0.144022
0.132962
0.115122
0.111861
0.113534
0.0976249
0.0850401
0.0716919
0.0650831
0.054382
0.0476178
0.0581596
0.0710206
0.0815405
0.0933781
0.0197143
0.0334354
0.0491647
0.0568347
0.0574469
0.0568274
0.050116
0.0491093
0.049746
0.0443724
0.0401613
0.0362339
0.0335129
0.0321786
0.031983
0.0387074
0.0534462
0.0613966
0.0665799
0.00906188
0.0144434
0.0192065
0.0203923
0.0212258
0.0223057
0.0203326
0.0231177
0.0245641
0.0198545
0.0174372
0.0190033
0.0156758
0.0160287
0.0182263
0.022198
0.0414413
0.0492172
0.0548169
0.00261591
0.00535043
0.00794694
0.00867947
0.00918633
0.00956795
0.0088394
0.0106703
0.011292
0.00836288
0.00734413
0.00830255
0.00716432
0.00621087
0.00891113
0.0141577
0.0318205
0.0384185
0.0478845
0.00102001
0.00247168
0.00382816
0.00445435
0.00487089
0.00411854
0.0036677
0.00362107
0.00327824
0.00256965
0.00278772
0.00325168
0.00306193
0.00190078
0.00405645
0.00920905
0.0227683
0.0296838
0.0429726
0.000356715
0.000977347
0.00166563
0.00210457
0.00289736
0.00186057
0.00149562
0.00115653
0.000933197
0.000724486
0.00091952
0.00113045
0.00107455
0.000559257
0.00169677
0.0055224
0.0132309
0.0220571
0.038921
3.60973e-05
0.000157259
0.000405065
0.000665013
0.00168708
0.000897327
0.000699889
0.000474359
0.000348785
0.00024377
0.000257216
0.000313461
0.000310076
0.000151982
0.000298911
0.00134514
0.00538351
0.0166702
0.0353353
0
0
4.90263e-05
0.000123979
0.000534461
0.000335757
0.000261476
0.000201418
0.000142223
9.40473e-05
7.46755e-05
8.79104e-05
7.96995e-05
3.26875e-05
2.57659e-05
0.000346553
0.00293433
0.0148063
0.0318871
0
0
0
0
5.08984e-05
5.90514e-05
5.86821e-05
5.73048e-05
4.80071e-05
3.39614e-05
2.35976e-05
2.5589e-05
2.33153e-05
4.63706e-06
0
0.000198392
0.00272612
0.0150934
0.0284808
0
0
0
0
0
0
2.17054e-06
6.12005e-06
7.43415e-06
6.304e-06
6.06292e-06
5.90741e-06
6.0627e-06
0
0
0.000211482
0.00319496
0.0157059
0.0242535
1.22034e-07
0
0
0
0
0
0
0
0
0
3.28043e-07
6.59603e-07
3.10195e-07
0
0
0.000268654
0.00369974
0.0154974
0.0199684
3.32377e-08
8.20263e-08
6.74252e-08
0
0
0
0
0
0
0
0
0
0
0
0
0.000391001
0.00406978
0.0140774
0.016574
1.57966e-09
1.67672e-08
4.37457e-08
5.98911e-08
1.67864e-08
0
0
0
0
0
0
0
0
0
0
0.000466562
0.00402742
0.0113991
0.0138585
0
2.17958e-10
6.00611e-09
1.75476e-08
2.99073e-08
2.03641e-08
0
0
0
0
0
0
0
0
0
0.000409852
0.0031871
0.00881094
0.011675
1.41974e-10
2.95687e-10
1.59155e-09
4.56042e-09
9.19159e-09
1.02304e-08
7.73769e-09
0
0
0
0
0
0
0
2.35162e-06
0.000331463
0.00235297
0.00709681
0.00990945
6.67387e-10
1.40622e-09
2.34834e-09
3.31432e-09
3.08033e-09
1.73836e-09
0
0
0
0
0
0
0
0
0
0.000202834
0.00179093
0.00588057
0.00844987
1.27596e-09
1.72174e-09
1.78746e-09
2.01413e-10
0
0
0
0
0
0
0
0
0
0
0
0.000156047
0.00142265
0.00482665
0.00723198
1.69913e-09
0
0
0
0
0
0
0
0
0
0
0
0
0
0
0.000121477
0.00112295
0.00391061
0.00622009
1.51902e-09
0
0
0
0
0
0
0
0
0
0
0
0
0
2.2998e-06
0.000115121
0.000908277
0.0031979
0.00538341
0
0
0
0
0
0
0
0
0
0
0
0
0
0
0
7.10261e-05
0.000712275
0.00266989
0.00469631
0
0
0
0
0
0
0
0
0
0
0
0
0
0
0
7.63868e-05
0.000680884
0.0022225
0.00410517
0
0
0
0
0
0
0
0
0
0
0
0
0
0
3.64372e-06
9.89687e-05
0.000588473
0.00172236
0.00359372
0
0
0
0
0
0
9.04123e-07
1.0368e-06
9.46095e-07
7.25707e-07
9.05972e-08
0
0
0
3.8967e-06
7.16104e-05
0.00037885
0.00125089
0.00316339
0
0
0
0
0
1.87159e-06
7.20447e-06
7.41572e-06
8.66535e-06
8.00175e-06
6.2017e-06
3.36684e-06
5.66478e-07
0
0
1.74927e-05
0.00015321
0.000864124
0.00281889
0
0
0
0
2.85824e-06
7.89759e-06
1.69871e-05
1.94181e-05
2.58836e-05
2.39584e-05
1.95323e-05
1.31876e-05
7.06134e-06
1.7778e-06
0
4.31206e-06
9.52325e-05
0.000722624
0.00254071
0
0
0
1.88498e-06
8.93212e-06
1.68774e-05
2.93173e-05
4.03882e-05
4.99053e-05
4.66427e-05
3.92462e-05
2.70812e-05
1.49919e-05
5.05017e-06
5.99127e-07
0
1.98272e-05
0.000396442
0.00226225
0
0
4.22128e-07
8.0466e-06
2.1796e-05
3.68503e-05
5.27835e-05
7.04683e-05
7.30148e-05
7.19686e-05
6.30352e-05
4.53432e-05
2.70961e-05
1.20535e-05
4.35946e-06
0
3.08532e-05
0.000577157
0.00271322
0
0
3.76134e-06
1.66083e-05
3.43862e-05
5.63065e-05
7.49331e-05
9.27286e-05
9.37153e-05
9.24674e-05
8.52e-05
7.26977e-05
5.19829e-05
2.81775e-05
1.09559e-05
0
4.30429e-05
0.000580068
0.00250697
0
0
7.11314e-06
2.41325e-05
4.32892e-05
6.59473e-05
9.04177e-05
0.000105908
0.000106005
9.92861e-05
8.74114e-05
7.20527e-05
5.38625e-05
3.48699e-05
2.05098e-05
6.52322e-07
2.96253e-05
0.000407534
0.00178804
0
0
1.12004e-05
2.78097e-05
4.74442e-05
6.90259e-05
9.52763e-05
0.000111681
0.00010943
9.65464e-05
8.08243e-05
6.6714e-05
5.31333e-05
3.75257e-05
2.26692e-05
3.35869e-06
7.86611e-06
0.00015378
0.0010068
0
3.18119e-07
1.33133e-05
2.97963e-05
4.94481e-05
7.08192e-05
9.73772e-05
0.000113295
0.000108278
9.30904e-05
7.61162e-05
6.09839e-05
4.77664e-05
3.64731e-05
2.71984e-05
1.41083e-05
0
2.5695e-05
0.000382618
)
;

boundaryField
{
    leftWall
    {
        type            zeroGradient;
    }
    rightWall
    {
        type            zeroGradient;
    }
    lowerWall
    {
        type            zeroGradient;
    }
    atmosphere
    {
        type            inletOutlet;
        inletValue      uniform 0;
        value           nonuniform List<scalar> 
46
(
9.35772e-08
7.72398e-08
5.47352e-08
4.01558e-08
0
0
0
3.11402e-11
5.35665e-11
1.0473e-11
1.54904e-12
7.51954e-13
0
0
0
1.67437e-11
1.30384e-09
6.40278e-09
1.74996e-08
1.89974e-08
0
0
0
0
0
0
0
0
3.18119e-07
1.33133e-05
2.97963e-05
4.94481e-05
7.08192e-05
9.73772e-05
0.000113295
0.000108278
9.30904e-05
7.61162e-05
6.09839e-05
4.77664e-05
3.64731e-05
2.71984e-05
1.41083e-05
0
2.5695e-05
0.000382618
)
;
    }
    defaultFaces
    {
        type            empty;
    }
}


// ************************************************************************* //
