/*--------------------------------*- C++ -*----------------------------------*\
| =========                 |                                                 |
| \\      /  F ield         | foam-extend: Open Source CFD                    |
|  \\    /   O peration     | Version:     4.1                                |
|   \\  /    A nd           | Web:         http://www.foam-extend.org         |
|    \\/     M anipulation  |                                                 |
\*---------------------------------------------------------------------------*/
FoamFile
{
    version     2.0;
    format      ascii;
    class       volScalarField;
    location    "0.7";
    object      C;
}
// * * * * * * * * * * * * * * * * * * * * * * * * * * * * * * * * * * * * * //

dimensions      [0 0 0 0 0 0 0];

internalField   nonuniform List<scalar> 
2268
(
1.01049
1.01025
1.00832
1.00693
1.00666
1.00594
1.00363
0.999469
0.995353
0.992799
0.992071
0.992586
0.994035
0.995802
0.99737
0.998599
0.999463
0.999931
1.0001
1.00005
1.00006
1.00031
1.00035
1.00537
1.00542
1.00368
1.00235
1.00251
1.00193
0.999818
0.996067
0.992631
0.990803
0.990662
0.991493
0.993144
0.995039
0.99672
0.998076
0.999098
0.999696
1.00002
1.00021
1.00059
1.00129
1.00154
0.991191
0.991626
0.990691
0.990115
0.991661
0.99205
0.99102
0.988692
0.98691
0.986679
0.987724
0.989107
0.99115
0.993257
0.99519
0.996861
0.99828
0.999177
0.99989
1.00062
1.00175
1.0033
1.00408
0.962427
0.963402
0.964682
0.96649
0.971465
0.974922
0.976963
0.977845
0.978772
0.980952
0.983362
0.985386
0.987818
0.990092
0.992415
0.994717
0.996839
0.998218
0.999595
1.00115
1.00317
1.00566
1.00749
0.908484
0.912074
0.91825
0.925782
0.938567
0.949426
0.957808
0.964283
0.968922
0.973634
0.977229
0.979777
0.982399
0.984677
0.987515
0.99092
0.994159
0.996189
0.998456
1.00098
1.00337
1.00636
1.0102
0.811514
0.824522
0.840901
0.86115
0.890369
0.915697
0.934432
0.948268
0.957237
0.963872
0.968294
0.97094
0.973499
0.975498
0.978841
0.983963
0.988848
0.991538
0.994648
0.998117
0.998941
1.00099
1.00845
0.643823
0.67954
0.717162
0.764845
0.825491
0.874813
0.907438
0.929007
0.942179
0.949786
0.954357
0.956345
0.958657
0.960094
0.963659
0.971064
0.978133
0.981588
0.984842
0.989183
0.984142
0.981418
0.994335
0.371696
0.443041
0.521865
0.624939
0.738911
0.823121
0.872242
0.901738
0.919352
0.927601
0.931635
0.931707
0.933544
0.93441
0.937519
0.947397
0.957026
0.961412
0.964006
0.968728
0.950264
0.934189
0.950097
-0.0186024
0.0830974
0.102127
0.0630306
0.00719932
-0.0713347
-0.113637
-0.137089
-0.0988878
-0.0524762
-0.0229634
-0.00961632
0.00543379
0.0353782
0.0400607
0.0592506
0.0395067
0.0220991
0.0183237
-0.0178903
0.104267
0.154557
0.188012
0.206623
0.135126
0.0691702
-0.0161836
-0.0891664
-0.131775
-0.134219
-0.149208
-0.168624
-0.0831004
-0.0484562
0.000554518
0.0142217
0.00743454
0.00812833
-0.0194097
0.0976558
0.121623
0.238359
0.327669
0.355139
0.344003
0.268911
0.0900058
-0.153614
-0.267746
-0.332642
-0.379687
-0.293074
-0.221153
-0.150703
-0.112343
-0.0418002
-0.00459627
-0.0315586
0.0566342
-0.0599018
0.0807545
0.228577
0.388972
0.469956
0.515936
0.384197
-0.00206167
-0.260601
-0.432789
-0.49727
-0.47356
-0.413724
-0.347685
-0.351006
-0.140243
-0.0125927
-0.0519268
-0.0368766
-0.297693
-0.215858
-0.0705553
0.226425
0.389353
0.569655
0.576699
0.297237
-0.0772874
-0.390328
-0.508535
-0.54723
-0.545996
-0.512438
-0.549242
-0.279916
-0.0156698
-0.0774781
-0.155432
-0.509256
-0.485421
-0.33028
0.0558027
0.23132
0.462301
0.586531
0.515575
0.202602
-0.246083
-0.390359
-0.500423
-0.57589
-0.625176
-0.643313
-0.405647
-0.0153205
-0.106895
-0.260019
-0.650836
-0.665197
-0.449645
-0.0318283
0.125455
0.301223
0.457584
0.551863
0.428965
0.0319352
-0.13284
-0.312658
-0.468474
-0.649396
-0.669649
-0.487152
-0.0105246
-0.144432
-0.332711
-0.714502
-0.738597
-0.474712
-0.0662646
0.0674161
0.153589
0.280477
0.441441
0.491238
0.270429
0.143847
-0.0504074
-0.248795
-0.558896
-0.668183
-0.528447
-0.00486935
-0.207718
-0.0854521
0.0835229
0.336121
0.569641
0.719264
0.794381
0.836072
0.862584
0.871432
0.87435
0.868296
0.867866
0.869047
0.870073
0.882883
0.898218
0.903604
0.904191
0.907265
0.854059
0.792787
0.7859
-0.671247
-0.574135
-0.410565
-0.0730343
0.30627
0.486886
0.572357
0.625599
0.677557
0.687758
0.689729
0.667429
0.646376
0.656253
0.657304
0.66285
0.688546
0.703954
0.694646
0.702542
0.565786
0.375917
0.278154
-0.825357
-0.720168
-0.524579
-0.308256
-0.156871
-0.0997375
-0.0347294
0.0362357
0.103657
0.114707
0.0849637
0.141832
0.0336165
0.0682417
0.0738622
0.055469
0.116091
0.17829
0.258995
0.185206
0.0418607
-0.135283
-0.123275
-0.857298
-0.754825
-0.669212
-0.64582
-0.6469
-0.589542
-0.555212
-0.523876
-0.565871
-0.581603
-0.61014
-0.579263
-0.610326
-0.603814
-0.582393
-0.572638
-0.489609
-0.356985
-0.223345
-0.227524
-0.271496
-0.347204
-0.274344
-0.869189
-0.814882
-0.811419
-0.818425
-0.821618
-0.797422
-0.801203
-0.79632
-0.833059
-0.835019
-0.825947
-0.808255
-0.798459
-0.779181
-0.759968
-0.746753
-0.712791
-0.638579
-0.472978
-0.339536
-0.322
-0.432728
-0.444253
-0.887659
-0.874032
-0.897218
-0.893093
-0.888925
-0.882587
-0.898127
-0.882982
-0.866223
-0.835152
-0.796614
-0.757644
-0.725452
-0.693018
-0.658167
-0.623195
-0.5783
-0.50599
-0.399804
-0.338185
-0.353928
-0.449377
-0.472496
-0.906438
-0.910129
-0.900696
-0.865415
-0.844662
-0.830039
-0.816137
-0.795013
-0.767492
-0.740939
-0.718212
-0.698352
-0.677491
-0.639826
-0.59137
-0.539231
-0.472179
-0.428224
-0.398732
-0.387304
-0.39164
-0.424641
-0.435789
-0.918973
-0.922815
-0.898095
-0.860977
-0.831732
-0.810224
-0.798917
-0.793725
-0.79164
-0.80025
-0.815771
-0.82435
-0.8256
-0.804427
-0.76622
-0.73079
-0.655614
-0.587299
-0.515651
-0.46512
-0.45374
-0.455391
-0.47145
-0.928385
-0.934207
-0.9048
-0.87035
-0.843559
-0.830138
-0.82922
-0.849015
-0.876339
-0.905041
-0.927372
-0.936355
-0.93975
-0.93024
-0.901965
-0.861134
-0.781736
-0.708169
-0.652809
-0.61327
-0.589644
-0.565578
-0.562942
-0.935896
-0.942567
-0.914929
-0.887572
-0.871636
-0.865366
-0.891848
-0.927883
-0.950955
-0.968925
-0.97955
-0.982814
-0.982795
-0.977103
-0.965143
-0.945103
-0.908178
-0.866494
-0.821597
-0.775537
-0.720955
-0.651922
-0.608769
-0.942493
-0.952278
-0.933147
-0.913731
-0.900546
-0.905381
-0.942793
-0.96874
-0.981743
-0.991213
-0.995049
-0.995916
-0.993965
-0.988195
-0.978533
-0.964079
-0.942967
-0.920496
-0.898149
-0.875925
-0.840811
-0.78561
-0.727722
-0.948551
-0.958336
-0.943897
-0.924746
-0.914533
-0.925898
-0.962675
-0.985625
-0.994246
-0.998139
-0.998868
-0.998479
-0.996312
-0.992473
-0.986752
-0.97846
-0.96715
-0.957246
-0.949996
-0.945266
-0.939128
-0.932347
-0.925311
-0.954263
-0.964417
-0.953145
-0.934248
-0.929791
-0.95521
-0.983169
-0.994526
-0.998434
-0.999502
-0.99945
-0.998484
-0.996753
-0.994757
-0.992551
-0.989833
-0.986359
-0.983261
-0.980531
-0.979184
-0.978937
-0.980566
-0.98304
-0.959753
-0.97069
-0.958818
-0.941882
-0.943582
-0.972704
-0.989213
-0.996272
-0.999189
-0.999779
-0.999677
-0.99895
-0.997814
-0.996689
-0.995559
-0.994051
-0.992164
-0.991152
-0.991113
-0.991725
-0.992523
-0.993069
-0.99339
-0.964832
-0.975269
-0.961623
-0.9493
-0.957227
-0.981609
-0.991968
-0.997302
-0.999462
-0.999915
-0.999961
-0.999841
-0.999578
-0.999337
-0.999247
-0.99913
-0.998651
-0.997901
-0.997583
-0.997524
-0.997651
-0.9974
-0.997175
-0.969215
-0.977321
-0.963544
-0.954638
-0.968971
-0.986512
-0.993179
-0.99762
-0.999467
-0.999898
-0.999973
-0.999996
-1
-1
-1.00003
-1.00005
-1.00002
-0.999908
-0.999778
-0.999666
-0.99964
-0.999412
-0.999128
-0.973227
-0.977391
-0.964513
-0.959651
-0.976193
-0.989431
-0.993362
-0.997149
-0.999141
-0.999763
-0.999909
-0.999961
-0.999994
-1.00002
-1.00003
-1.00005
-1.00007
-1.00007
-1.00005
-1.00003
-1.00002
-0.999976
-0.999888
-0.976197
-0.976521
-0.965989
-0.967206
-0.983726
-0.991838
-0.993144
-0.995915
-0.998568
-0.999655
-0.999902
-0.999957
-0.999984
-0.999999
-1.00001
-1.00001
-1.00001
-1.00002
-1.00002
-1.00002
-1.00003
-1.00003
-1.00002
-0.978536
-0.976153
-0.968044
-0.978553
-0.990841
-0.99366
-0.993302
-0.995479
-0.998475
-0.999655
-0.999922
-0.999973
-0.999991
-0.999998
-1
-1
-1
-1
-1
-1
-1
-1.00001
-1.00001
-0.980305
-0.976243
-0.970467
-0.983907
-0.993701
-0.994939
-0.993763
-0.996213
-0.999011
-0.999814
-0.999957
-0.999984
-0.999995
-0.999999
-1
-1
-1
-1
-1
-1
-1
-1
-1
-0.981616
-0.976806
-0.973891
-0.986318
-0.994705
-0.995921
-0.99441
-0.996251
-0.998922
-0.999785
-0.99994
-0.999977
-0.999989
-0.999997
-1
-1
-1
-1
-1
-1
-1
-1
-1
-0.982741
-0.977973
-0.978632
-0.989078
-0.995578
-0.996643
-0.995159
-0.996719
-0.999023
-0.999752
-0.999861
-0.999915
-0.999961
-0.999989
-0.999998
-1
-1
-1
-1
-1
-1
-1
-1
-0.983851
-0.979488
-0.981332
-0.990964
-0.996381
-0.997048
-0.995644
-0.996203
-0.998403
-0.999445
-0.999629
-0.999769
-0.99991
-0.999974
-0.999994
-0.999999
-1
-1
-1
-1
-1
-1
-1
-0.984932
-0.981591
-0.983451
-0.989904
-0.995832
-0.997072
-0.995961
-0.995751
-0.997414
-0.998848
-0.999242
-0.999618
-0.999866
-0.999963
-0.999992
-0.999998
-1
-1
-1
-1
-1
-1
-1
-0.98618
-0.984857
-0.986514
-0.990293
-0.995313
-0.997006
-0.996007
-0.995471
-0.996153
-0.997797
-0.998894
-0.999549
-0.999849
-0.999961
-0.999992
-0.999998
-1
-1
-1
-1
-1
-1
-1
-0.987688
-0.989254
-0.991234
-0.992207
-0.996014
-0.997226
-0.996384
-0.995553
-0.996182
-0.997619
-0.99882
-0.999558
-0.999876
-0.999975
-0.999996
-1
-1
-1
-1
-1
-1
-1
-1
-0.98982
-0.993165
-0.994978
-0.995236
-0.997117
-0.997558
-0.996548
-0.995744
-0.996529
-0.997801
-0.998856
-0.999555
-0.99988
-0.99998
-0.999997
-1
-1
-1
-1
-1
-1
-1
-1
-0.993095
-0.995533
-0.996774
-0.997252
-0.997789
-0.997547
-0.996278
-0.995672
-0.996291
-0.997328
-0.998394
-0.99938
-0.999832
-0.999964
-0.999994
-0.999999
-1
-1
-1
-1
-1
-1
-1
-0.99608
-0.996857
-0.99735
-0.997582
-0.997594
-0.997051
-0.995658
-0.995433
-0.995718
-0.996477
-0.997947
-0.999248
-0.999789
-0.999956
-0.999993
-0.999999
-1
-1
-1
-1
-1
-1
-1
-0.996835
-0.997022
-0.997207
-0.997196
-0.996767
-0.99574
-0.994694
-0.994791
-0.995031
-0.996171
-0.998152
-0.999446
-0.999871
-0.999979
-0.999997
-1
-1
-1
-1
-1
-1
-1
-1
-0.99645
-0.996584
-0.996445
-0.995948
-0.99516
-0.994403
-0.994149
-0.9944
-0.995021
-0.996503
-0.99858
-0.999625
-0.999924
-0.99999
-0.999999
-1
-1
-1
-1
-1
-1
-1
-1
-0.995563
-0.99564
-0.995247
-0.994644
-0.994247
-0.994145
-0.994251
-0.994736
-0.995718
-0.997639
-0.999229
-0.999818
-0.999969
-0.999996
-1
-1
-1
-1
-1
-1
-1
-1
-1
-0.995084
-0.995015
-0.994625
-0.99425
-0.994243
-0.994473
-0.995063
-0.996112
-0.997602
-0.999077
-0.999753
-0.999953
-0.999994
-0.999999
-1
-1
-1
-1
-1
-1
-1
-1
-1
-0.99513
-0.99495
-0.994575
-0.994326
-0.994572
-0.995438
-0.996734
-0.998078
-0.999142
-0.999731
-0.99994
-0.999991
-0.999999
-1
-1
-1
-1
-1
-1
-1
-1
-1
-1
-0.995624
-0.995253
-0.994854
-0.994826
-0.995445
-0.996873
-0.998367
-0.999285
-0.999761
-0.999943
-0.99999
-0.999999
-1
-1
-1
-1
-1
-1
-1
-1
-1
-1
-1
-0.997068
-0.996495
-0.996058
-0.99624
-0.997137
-0.998517
-0.999405
-0.999804
-0.999951
-0.999992
-0.999999
-1
-1
-1
-1
-1
-1
-1
-1
-1
-1
-1
-1
-0.998813
-0.998432
-0.998144
-0.998325
-0.998928
-0.999564
-0.999862
-0.999968
-0.999995
-1
-1
-1
-1
-1
-1
-1
-1
-1
-1
-1
-1
-1
-1
-0.999656
-0.999533
-0.99945
-0.999526
-0.99974
-0.999918
-0.999981
-0.999997
-1
-1
-1
-1
-1
-1
-1
-1
-1
-1
-1
-1
-1
-1
-1
-0.999924
-0.999896
-0.999883
-0.999908
-0.999959
-0.999991
-0.999999
-1
-1
-1
-1
-1
-1
-1
-1
-1
-1
-1
-1
-1
-1
-1
-1
-0.999987
-0.999982
-0.999982
-0.999987
-0.999996
-1
-1
-1
-1
-1
-1
-1
-1
-1
-1
-1
-1
-1
-1
-1
-1
-1
-1
-0.999998
-0.999998
-0.999998
-0.999999
-1
-1
-1
-1
-1
-1
-1
-1
-1
-1
-1
-1
-1
-1
-1
-1
-1
-1
-1
-1
-1
-1
-1
-1
-1
-1
-1
-1
-1
-1
-1
-1
-1
-1
-1
-1
-1
-1
-1
-1
-1
-1
0.74314
0.709383
0.609485
0.334387
0.263272
0.299501
0.303816
0.121639
-0.0131205
0.00138492
-0.0680576
-0.203978
-0.221602
-0.261797
-0.351374
-0.416265
-0.426537
-0.448983
-0.472991
-0.487555
-0.470785
-0.469501
-0.466279
-0.459947
-0.434574
-0.433675
-0.440287
-0.47055
-0.491759
-0.516897
-0.547678
-0.589511
-0.574469
-0.595432
-0.623593
-0.655047
-0.587967
-0.583069
-0.582477
-0.585277
-0.687459
-0.672491
-0.662688
-0.654305
-0.91065
-0.902284
-0.894002
-0.884769
-0.981571
-0.979252
-0.975642
-0.971126
-0.992349
-0.991018
-0.989128
-0.986875
-0.997215
-0.997247
-0.997099
-0.99658
-0.999084
-0.999116
-0.9991
-0.998884
-0.999833
-0.999811
-0.999776
-0.999673
-1.00001
-1.00001
-1
-0.99999
-1.00001
-1.00001
-1.00001
-1.00002
-1
-1
-1
-1
-1
-1
-1
-1
-1
-1
-1
-1
-1
-1
-1
-1
-1
-1
-1
-1
-1
-1
-1
-1
-1
-1
-1
-1
-1
-1
-1
-1
-1
-1
-1
-1
-1
-1
-1
-1
-1
-1
-1
-1
-1
-1
-1
-1
-1
-1
-1
-1
-1
-1
-1
-1
-1
-1
-1
-1
-1
-1
-1
-1
-1
-1
-1
-1
-1
-1
-1
-1
-1
-1
-1
-1
-1
-1
-1
-1.00001
-1
-1
-1.00001
-1.00001
-1
-1.00001
-1.00001
-1.00001
-1
-1.00001
-1.00001
-1.00001
-0.182626
-0.423622
-0.711483
-0.724533
-0.450992
-0.0858731
-0.0100675
-0.0268172
0.032015
0.140702
0.368332
0.351993
0.355466
0.302484
0.175841
-0.215893
-0.617432
-0.532291
0.00682395
-0.298076
-0.593217
-0.681896
-0.572795
-0.265395
-0.0732625
-0.182018
-0.306072
-0.336375
-0.292139
-0.226508
-0.0276086
0.17305
0.262924
0.186417
-0.19591
-0.659715
-0.429039
0.061333
-0.436322
-0.568463
-0.414164
-0.318525
-0.194696
-0.263447
-0.448424
-0.590277
-0.625149
-0.586791
-0.636478
-0.505809
-0.104441
0.125747
0.122005
-0.36005
-0.520426
-0.249709
0.122627
-0.468179
-0.399091
-0.27909
-0.30796
-0.390857
-0.505201
-0.651418
-0.739396
-0.763481
-0.761856
-0.776318
-0.58978
-0.174337
-0.0661359
-0.153688
-0.559378
-0.258718
0.0691271
0.195781
-0.493872
-0.386426
-0.389864
-0.653384
-0.708233
-0.719127
-0.757765
-0.789433
-0.807745
-0.804605
-0.711727
-0.439592
-0.280051
-0.318283
-0.402418
-0.470627
-0.179503
0.112797
0.199298
-0.452781
-0.540289
-0.684234
-0.768568
-0.769953
-0.753858
-0.728832
-0.712825
-0.719147
-0.729555
-0.58093
-0.449288
-0.400101
-0.455331
-0.477626
-0.352505
-0.208037
0.0727603
0.188298
-0.565057
-0.720628
-0.778614
-0.781767
-0.733755
-0.709525
-0.692934
-0.664256
-0.633121
-0.59872
-0.553074
-0.530064
-0.552606
-0.560978
-0.529814
-0.495638
-0.300629
0.0336895
0.181595
-0.665823
-0.751163
-0.776118
-0.744589
-0.676424
-0.651566
-0.661558
-0.668309
-0.668866
-0.645153
-0.630889
-0.637425
-0.634283
-0.582407
-0.577918
-0.590699
-0.388219
-0.0498395
0.17133
-0.703996
-0.761137
-0.775371
-0.753056
-0.675253
-0.595946
-0.569764
-0.580087
-0.632162
-0.651294
-0.651634
-0.631904
-0.604197
-0.595225
-0.639336
-0.655387
-0.508797
-0.172146
0.0441917
-0.599966
-0.635569
-0.690042
-0.710946
-0.714394
-0.609961
-0.510566
-0.476969
-0.480003
-0.498128
-0.540084
-0.570114
-0.610818
-0.723275
-0.764301
-0.747005
-0.67911
-0.47341
-0.300926
-0.642248
-0.62614
-0.623679
-0.62453
-0.645614
-0.646398
-0.632788
-0.589349
-0.562832
-0.593697
-0.660597
-0.722208
-0.782982
-0.833662
-0.85647
-0.832087
-0.796389
-0.732505
-0.657309
-0.863972
-0.802085
-0.748172
-0.712241
-0.711956
-0.734077
-0.769757
-0.776279
-0.772932
-0.80475
-0.82992
-0.856616
-0.869834
-0.891236
-0.904764
-0.883681
-0.857959
-0.836919
-0.813244
-0.960571
-0.933129
-0.901671
-0.886331
-0.885106
-0.886345
-0.899768
-0.901781
-0.900508
-0.911255
-0.919677
-0.927532
-0.932974
-0.935643
-0.936034
-0.922585
-0.893108
-0.877207
-0.86684
-0.981876
-0.971113
-0.961587
-0.959215
-0.957548
-0.955389
-0.959335
-0.953765
-0.950872
-0.960291
-0.965126
-0.961993
-0.968648
-0.967943
-0.963547
-0.955604
-0.917117
-0.901566
-0.890366
-0.994768
-0.989299
-0.984106
-0.982641
-0.981627
-0.980864
-0.982321
-0.978659
-0.977416
-0.983274
-0.985312
-0.983395
-0.985671
-0.987578
-0.982178
-0.971685
-0.936359
-0.923163
-0.904231
-0.99796
-0.995057
-0.992344
-0.991091
-0.990258
-0.991763
-0.992665
-0.992758
-0.993444
-0.994861
-0.994425
-0.993497
-0.993876
-0.996198
-0.991887
-0.981582
-0.954463
-0.940632
-0.914055
-0.999287
-0.998045
-0.996669
-0.995791
-0.994205
-0.996279
-0.997009
-0.997687
-0.998134
-0.998551
-0.998161
-0.997739
-0.997851
-0.998881
-0.996606
-0.988955
-0.973538
-0.955886
-0.922158
-0.999928
-0.999685
-0.99919
-0.99867
-0.996626
-0.998205
-0.9986
-0.999051
-0.999302
-0.999512
-0.999486
-0.999373
-0.99938
-0.999696
-0.999402
-0.99731
-0.989233
-0.96666
-0.929329
-1.00002
-1
-0.999902
-0.999752
-0.998931
-0.999328
-0.999477
-0.999597
-0.999716
-0.999812
-0.999851
-0.999824
-0.999841
-0.999935
-0.999948
-0.999307
-0.994131
-0.970387
-0.936226
-1.00001
-1.00002
-1.00002
-1.00001
-0.999898
-0.999882
-0.999883
-0.999885
-0.999904
-0.999932
-0.999953
-0.999949
-0.999953
-0.999991
-1.00003
-0.999603
-0.994548
-0.969813
-0.943038
-1
-1
-1.00001
-1.00002
-1.00001
-1
-0.999996
-0.999988
-0.999985
-0.999987
-0.999988
-0.999988
-0.999988
-1.00001
-1.00005
-0.999577
-0.99361
-0.968588
-0.951493
-1
-1
-1
-1
-1.00001
-1.00001
-1.00001
-1
-1
-1
-0.999999
-0.999999
-0.999999
-1.00001
-1.00005
-0.999463
-0.992601
-0.969005
-0.960063
-1
-1
-1
-1
-1
-1
-1
-1
-1
-1
-1
-1
-1
-1.00002
-1.00004
-0.999218
-0.99186
-0.971845
-0.966852
-1
-1
-1
-1
-1
-1
-1
-1
-1
-1
-1
-1
-1
-1.00002
-1.00002
-0.999067
-0.991945
-0.977202
-0.972283
-1
-1
-1
-1
-1
-1
-1
-1
-1
-1
-1
-1
-1
-1.00002
-1.00001
-0.99918
-0.993626
-0.982378
-0.97665
-1
-1
-1
-1
-1
-1
-1
-1
-1
-1
-1
-1
-1
-1.00001
-0.999995
-0.999337
-0.995294
-0.985806
-0.980181
-1
-1
-1
-1
-1
-1
-1
-1
-1
-1
-1
-1
-1
-1.00001
-1.00001
-0.999594
-0.996418
-0.988239
-0.9831
-1
-1
-1
-1
-1
-1
-1
-1
-1
-1
-1
-1
-1
-1
-1
-0.999688
-0.997155
-0.990347
-0.985536
-1
-1
-1
-1
-1
-1
-1
-1
-1
-1
-1
-1
-1
-1
-1
-0.999757
-0.997754
-0.992179
-0.98756
-1
-1
-1
-1
-1
-1
-1
-1
-1
-1
-1
-1
-1
-1
-0.999995
-0.99977
-0.998183
-0.993604
-0.989233
-1
-1
-1
-1
-1
-1
-1
-1
-1
-1
-1
-1
-1
-1
-1.00001
-0.999858
-0.998575
-0.99466
-0.990607
-1
-1
-1
-1
-1
-1
-1
-1
-1
-1
-1
-1
-1
-1.00001
-1.00001
-0.999847
-0.998638
-0.995555
-0.99179
-1
-1
-1
-1
-1
-1
-1
-1
-1
-1
-1
-1
-1
-1.00001
-0.999993
-0.999802
-0.998823
-0.996555
-0.992813
-1
-1
-1
-1
-1
-1
-0.999998
-0.999998
-0.999998
-0.999999
-1
-1
-1
-1
-0.999992
-0.999857
-0.999242
-0.997498
-0.993673
-1
-1
-1
-1
-1
-0.999996
-0.999986
-0.999985
-0.999983
-0.999984
-0.999988
-0.999993
-0.999999
-1
-1
-0.999965
-0.999694
-0.998272
-0.994362
-1
-1
-1
-1
-0.999994
-0.999984
-0.999966
-0.999961
-0.999948
-0.999952
-0.999961
-0.999974
-0.999986
-0.999996
-1
-0.999991
-0.99981
-0.998555
-0.994919
-1
-1
-1
-0.999996
-0.999982
-0.999966
-0.999941
-0.999919
-0.9999
-0.999907
-0.999922
-0.999946
-0.99997
-0.99999
-0.999999
-1.00001
-0.99996
-0.999207
-0.995475
-1.00001
-1
-0.999999
-0.999984
-0.999956
-0.999926
-0.999894
-0.999859
-0.999854
-0.999856
-0.999874
-0.999909
-0.999946
-0.999976
-0.999991
-1.00001
-0.999938
-0.998846
-0.994574
-1.00001
-1
-0.999992
-0.999967
-0.999931
-0.999887
-0.99985
-0.999815
-0.999813
-0.999815
-0.99983
-0.999855
-0.999896
-0.999944
-0.999978
-1.00001
-0.999914
-0.99884
-0.994986
-1.00001
-1
-0.999986
-0.999952
-0.999913
-0.999868
-0.999819
-0.999788
-0.999788
-0.999801
-0.999825
-0.999856
-0.999892
-0.99993
-0.999959
-0.999999
-0.999941
-0.999185
-0.996424
-1.00001
-1
-0.999978
-0.999944
-0.999905
-0.999862
-0.999809
-0.999777
-0.999781
-0.999807
-0.999838
-0.999867
-0.999894
-0.999925
-0.999955
-0.999993
-0.999984
-0.999692
-0.997986
-1.00001
-0.999999
-0.999973
-0.99994
-0.999901
-0.999858
-0.999805
-0.999773
-0.999783
-0.999814
-0.999848
-0.999878
-0.999904
-0.999927
-0.999946
-0.999972
-1.00001
-0.999949
-0.999235
)
;

boundaryField
{
    leftWall
    {
        type            zeroGradient;
    }
    rightWall
    {
        type            zeroGradient;
    }
    lowerWall
    {
        type            zeroGradient;
    }
    atmosphere
    {
        type            zeroGradient;
    }
    defaultFaces
    {
        type            empty;
    }
}


// ************************************************************************* //
