/*--------------------------------*- C++ -*----------------------------------*\
| =========                 |                                                 |
| \\      /  F ield         | foam-extend: Open Source CFD                    |
|  \\    /   O peration     | Version:     4.1                                |
|   \\  /    A nd           | Web:         http://www.foam-extend.org         |
|    \\/     M anipulation  |                                                 |
\*---------------------------------------------------------------------------*/
FoamFile
{
    version     2.0;
    format      ascii;
    class       volScalarField;
    location    "0.7";
    object      C_0;
}
// * * * * * * * * * * * * * * * * * * * * * * * * * * * * * * * * * * * * * //

dimensions      [0 0 0 0 0 0 0];

internalField   nonuniform List<scalar> 
2268
(
1.01053
1.01029
1.00837
1.00699
1.00671
1.00604
1.00377
0.999624
0.995467
0.992863
0.992104
0.992598
0.994038
0.995806
0.997375
0.998606
0.99947
0.999938
1.00011
1.00005
1.00005
1.00028
1.00031
1.00541
1.00548
1.00374
1.00245
1.0026
1.00207
0.999977
0.996215
0.992729
0.990851
0.990681
0.991496
0.993143
0.995041
0.996726
0.998082
0.999103
0.9997
1.00002
1.00019
1.00055
1.00124
1.00149
0.991158
0.991661
0.990754
0.990273
0.991817
0.992227
0.991176
0.988807
0.986964
0.986691
0.987718
0.989095
0.991144
0.99326
0.995197
0.996865
0.99828
0.999171
0.999872
1.00059
1.00169
1.00325
1.00403
0.962081
0.963229
0.964611
0.966637
0.971616
0.975075
0.977048
0.977874
0.978748
0.980907
0.983321
0.985357
0.987809
0.990103
0.992427
0.994719
0.996833
0.998203
0.999563
1.0011
1.00312
1.00563
1.00745
0.90726
0.911213
0.917693
0.925673
0.938492
0.949377
0.957695
0.964152
0.968784
0.973519
0.977154
0.979741
0.982399
0.984707
0.987544
0.99093
0.994158
0.996182
0.99844
1.00097
1.00342
1.00645
1.01018
0.808339
0.82203
0.839142
0.860222
0.88961
0.915144
0.933949
0.9479
0.956962
0.963684
0.968194
0.970916
0.973532
0.975573
0.978917
0.984012
0.988894
0.991603
0.994733
0.998232
0.999267
1.00137
1.00847
0.637212
0.674007
0.71301
0.762042
0.82329
0.873365
0.906417
0.928333
0.941749
0.94953
0.954251
0.95637
0.958769
0.960268
0.963848
0.971232
0.978323
0.981844
0.985193
0.989582
0.985116
0.982538
0.994382
0.360845
0.433213
0.513759
0.618667
0.734256
0.820369
0.870529
0.90069
0.918759
0.927309
0.931549
0.931845
0.93382
0.934783
0.937944
0.947834
0.957534
0.962054
0.964823
0.969751
0.95264
0.937027
0.950294
-0.024156
0.079314
0.0992337
0.0632972
0.00789035
-0.0700659
-0.112934
-0.136827
-0.0997409
-0.0529443
-0.0226838
-0.00920662
0.0047626
0.0350007
0.039808
0.0594272
0.0392646
0.0224045
0.0188941
-0.0238335
0.0999272
0.151553
0.187879
0.208605
0.139038
0.0732014
-0.0121304
-0.0864241
-0.131153
-0.133625
-0.147409
-0.169673
-0.0834544
-0.0475683
0.00118803
0.0144556
0.00821507
0.00931046
-0.0257291
0.0919777
0.115946
0.236078
0.328935
0.359147
0.350093
0.276402
0.100396
-0.147931
-0.265626
-0.329882
-0.380484
-0.293525
-0.21911
-0.148643
-0.110959
-0.0404977
-0.00348417
-0.0383326
0.0494197
-0.0685284
0.0761283
0.228247
0.392501
0.47548
0.522339
0.396586
0.0100825
-0.255344
-0.428848
-0.496541
-0.474188
-0.411245
-0.344568
-0.348726
-0.139141
-0.0119988
-0.059024
-0.0452525
-0.306471
-0.220736
-0.0708044
0.230889
0.395194
0.573799
0.584367
0.311227
-0.0669422
-0.383891
-0.506095
-0.547566
-0.544772
-0.5093
-0.547645
-0.279789
-0.0155801
-0.0847482
-0.164243
-0.515916
-0.488714
-0.32849
0.0628373
0.238373
0.465676
0.588923
0.524371
0.214689
-0.237942
-0.386309
-0.499568
-0.576703
-0.623399
-0.643225
-0.404779
-0.0156554
-0.114332
-0.26882
-0.655233
-0.667272
-0.446194
-0.0228792
0.133212
0.305211
0.457354
0.555575
0.436721
0.0407838
-0.126599
-0.310199
-0.472562
-0.65019
-0.671496
-0.48568
-0.0112708
-0.152353
-0.341537
-0.71771
-0.740183
-0.470872
-0.0566085
0.0753431
0.158407
0.280968
0.440602
0.495113
0.276869
0.149997
-0.0472701
-0.254411
-0.564123
-0.672471
-0.529213
-0.00598179
-0.222022
-0.100922
0.0678924
0.322195
0.559776
0.713971
0.791365
0.834314
0.861754
0.871216
0.87436
0.868777
0.868618
0.869976
0.871158
0.884097
0.899597
0.905286
0.906269
0.910022
0.860564
0.80085
0.786807
-0.680035
-0.584888
-0.424016
-0.0903358
0.292453
0.478668
0.567313
0.622624
0.676619
0.688202
0.690815
0.669487
0.648815
0.659051
0.660406
0.666342
0.692143
0.707906
0.700267
0.711095
0.585009
0.398567
0.281469
-0.830411
-0.727465
-0.535983
-0.322114
-0.16946
-0.109069
-0.0411413
0.0317821
0.103588
0.117095
0.0902518
0.147193
0.039735
0.0742405
0.079874
0.0613017
0.120693
0.183047
0.269908
0.20351
0.0679738
-0.120724
-0.129669
-0.860962
-0.760911
-0.676795
-0.652133
-0.650963
-0.592853
-0.556966
-0.525545
-0.564685
-0.578682
-0.607061
-0.575485
-0.607649
-0.602268
-0.581391
-0.573013
-0.492316
-0.360464
-0.21929
-0.219879
-0.25864
-0.34586
-0.287189
-0.872428
-0.819199
-0.815527
-0.821181
-0.822498
-0.79851
-0.801824
-0.797002
-0.833478
-0.835665
-0.82747
-0.810048
-0.800404
-0.78147
-0.762403
-0.749283
-0.716426
-0.645871
-0.483723
-0.340832
-0.312651
-0.430493
-0.449677
-0.890417
-0.876974
-0.899102
-0.894262
-0.889444
-0.883208
-0.898868
-0.88572
-0.869243
-0.839627
-0.802316
-0.763192
-0.730849
-0.698734
-0.66462
-0.630593
-0.587552
-0.518614
-0.409229
-0.337285
-0.342859
-0.443672
-0.473309
-0.908665
-0.912216
-0.903458
-0.867987
-0.846381
-0.831283
-0.817236
-0.796439
-0.770137
-0.743715
-0.721096
-0.701536
-0.681449
-0.645552
-0.598364
-0.547753
-0.480232
-0.433635
-0.400652
-0.386506
-0.387805
-0.421085
-0.434543
-0.920973
-0.925313
-0.902253
-0.866035
-0.836262
-0.813054
-0.799917
-0.794074
-0.791834
-0.798731
-0.814071
-0.823053
-0.824943
-0.805217
-0.768379
-0.734404
-0.661092
-0.593805
-0.521415
-0.467241
-0.453518
-0.453497
-0.466834
-0.930319
-0.936975
-0.909907
-0.876723
-0.847978
-0.832265
-0.830501
-0.848767
-0.875492
-0.903586
-0.925998
-0.93545
-0.93909
-0.930695
-0.904356
-0.865172
-0.787369
-0.713878
-0.657706
-0.616695
-0.591967
-0.565238
-0.56156
-0.937804
-0.945281
-0.920092
-0.893104
-0.874857
-0.867156
-0.890926
-0.92714
-0.950421
-0.968307
-0.979125
-0.982676
-0.982885
-0.977633
-0.966444
-0.947378
-0.911766
-0.871171
-0.826928
-0.781261
-0.727916
-0.658683
-0.613351
-0.944462
-0.954618
-0.937351
-0.918036
-0.90218
-0.904917
-0.940838
-0.967584
-0.981031
-0.990871
-0.994971
-0.995992
-0.994306
-0.988936
-0.979793
-0.96597
-0.945587
-0.923471
-0.901075
-0.87897
-0.845139
-0.792203
-0.734322
-0.950519
-0.960422
-0.946902
-0.927209
-0.916092
-0.925518
-0.961447
-0.985039
-0.993938
-0.998064
-0.998888
-0.998616
-0.996608
-0.992987
-0.987534
-0.979588
-0.968553
-0.958409
-0.950605
-0.945383
-0.939073
-0.932555
-0.926047
-0.956175
-0.966358
-0.955262
-0.93587
-0.930604
-0.954722
-0.982619
-0.994255
-0.998331
-0.999502
-0.999508
-0.998617
-0.996949
-0.995
-0.99285
-0.990218
-0.986812
-0.983638
-0.980685
-0.979055
-0.978601
-0.980093
-0.982769
-0.961597
-0.972361
-0.960165
-0.943106
-0.944203
-0.972408
-0.988797
-0.996047
-0.999137
-0.999788
-0.999722
-0.999056
-0.997954
-0.99684
-0.995733
-0.994252
-0.992249
-0.991086
-0.990968
-0.991495
-0.992306
-0.992895
-0.993279
-0.966525
-0.97633
-0.96237
-0.950281
-0.957928
-0.981575
-0.991742
-0.997157
-0.999425
-0.999914
-0.999969
-0.999874
-0.999631
-0.999391
-0.999293
-0.999167
-0.998689
-0.997922
-0.997554
-0.997454
-0.997578
-0.997341
-0.997113
-0.97078
-0.977814
-0.963951
-0.955482
-0.969767
-0.986553
-0.992984
-0.997497
-0.999436
-0.999892
-0.999971
-0.999998
-1.00001
-1.00001
-1.00004
-1.00005
-1.00002
-0.999916
-0.99978
-0.99966
-0.999631
-0.999404
-0.999113
-0.974567
-0.977642
-0.964886
-0.960548
-0.977131
-0.9896
-0.9932
-0.997014
-0.999093
-0.99975
-0.999905
-0.999959
-0.999993
-1.00002
-1.00003
-1.00005
-1.00006
-1.00007
-1.00005
-1.00003
-1.00002
-0.999976
-0.999888
-0.977265
-0.976498
-0.966397
-0.968273
-0.984524
-0.992022
-0.993041
-0.995739
-0.998499
-0.99964
-0.999898
-0.999955
-0.999983
-0.999999
-1.00001
-1.00001
-1.00001
-1.00002
-1.00002
-1.00002
-1.00003
-1.00003
-1.00002
-0.979403
-0.976281
-0.968537
-0.97953
-0.991212
-0.993805
-0.993232
-0.99527
-0.998395
-0.99964
-0.99992
-0.999972
-0.999991
-0.999998
-1
-1
-1
-1
-1
-1
-1
-1.00001
-1.00001
-0.980988
-0.976446
-0.971072
-0.984491
-0.993849
-0.995064
-0.993737
-0.996016
-0.998948
-0.999801
-0.999955
-0.999984
-0.999995
-0.999999
-1
-1
-1
-1
-1
-1
-1
-1
-1
-0.982178
-0.977128
-0.974626
-0.986703
-0.994814
-0.996006
-0.99443
-0.996086
-0.998846
-0.999769
-0.999939
-0.999978
-0.99999
-0.999997
-1
-1
-1
-1
-1
-1
-1
-1
-1
-0.983267
-0.978416
-0.979382
-0.989292
-0.995673
-0.996706
-0.995185
-0.996609
-0.998978
-0.999747
-0.999864
-0.999918
-0.999963
-0.999989
-0.999998
-1
-1
-1
-1
-1
-1
-1
-1
-0.984369
-0.980056
-0.982012
-0.99092
-0.996409
-0.997088
-0.995666
-0.996078
-0.99833
-0.999443
-0.999637
-0.999776
-0.999912
-0.999975
-0.999995
-0.999999
-1
-1
-1
-1
-1
-1
-1
-0.985499
-0.982364
-0.984285
-0.990208
-0.995881
-0.997089
-0.995963
-0.995699
-0.997353
-0.998862
-0.999254
-0.999624
-0.999868
-0.999964
-0.999992
-0.999998
-1
-1
-1
-1
-1
-1
-1
-0.986795
-0.985923
-0.987619
-0.990828
-0.995561
-0.997055
-0.995965
-0.995437
-0.996167
-0.997853
-0.998915
-0.999554
-0.999849
-0.999961
-0.999992
-0.999998
-1
-1
-1
-1
-1
-1
-1
-0.988435
-0.99044
-0.992365
-0.993061
-0.996416
-0.997294
-0.99633
-0.995535
-0.996222
-0.997679
-0.998841
-0.999568
-0.999879
-0.999976
-0.999996
-1
-1
-1
-1
-1
-1
-1
-1
-0.990861
-0.994008
-0.995637
-0.995953
-0.997473
-0.997601
-0.9964
-0.995711
-0.99658
-0.997852
-0.998892
-0.999578
-0.999887
-0.999981
-0.999998
-1
-1
-1
-1
-1
-1
-1
-1
-0.994268
-0.996116
-0.997081
-0.997514
-0.997836
-0.997504
-0.996094
-0.995626
-0.996319
-0.997363
-0.99846
-0.999424
-0.999847
-0.999968
-0.999995
-0.999999
-1
-1
-1
-1
-1
-1
-1
-0.996573
-0.997077
-0.997417
-0.997613
-0.997547
-0.996851
-0.995449
-0.995359
-0.995688
-0.996506
-0.99804
-0.999305
-0.99981
-0.999961
-0.999994
-0.999999
-1
-1
-1
-1
-1
-1
-1
-0.996877
-0.997038
-0.997161
-0.997061
-0.996521
-0.995421
-0.994529
-0.994696
-0.995026
-0.996286
-0.998295
-0.999507
-0.999889
-0.999983
-0.999998
-1
-1
-1
-1
-1
-1
-1
-1
-0.996359
-0.996449
-0.996229
-0.995651
-0.994886
-0.994253
-0.994116
-0.994417
-0.995107
-0.996725
-0.998756
-0.999683
-0.999938
-0.999992
-0.999999
-1
-1
-1
-1
-1
-1
-1
-1
-0.995448
-0.995485
-0.995062
-0.994492
-0.994175
-0.994129
-0.994283
-0.994847
-0.995974
-0.997941
-0.999359
-0.999854
-0.999976
-0.999997
-1
-1
-1
-1
-1
-1
-1
-1
-1
-0.995058
-0.994959
-0.994562
-0.994221
-0.994249
-0.99456
-0.99525
-0.996392
-0.997924
-0.99924
-0.999804
-0.999965
-0.999996
-1
-1
-1
-1
-1
-1
-1
-1
-1
-1
-0.995139
-0.994944
-0.994563
-0.994343
-0.994662
-0.995635
-0.997006
-0.998316
-0.999286
-0.999786
-0.999954
-0.999994
-1
-1
-1
-1
-1
-1
-1
-1
-1
-1
-1
-0.995712
-0.995323
-0.994929
-0.994948
-0.995658
-0.997148
-0.998572
-0.999401
-0.99981
-0.999957
-0.999993
-1
-1
-1
-1
-1
-1
-1
-1
-1
-1
-1
-1
-0.997259
-0.996699
-0.996293
-0.996507
-0.99744
-0.998737
-0.99951
-0.999845
-0.999963
-0.999994
-1
-1
-1
-1
-1
-1
-1
-1
-1
-1
-1
-1
-1
-0.998946
-0.998614
-0.998378
-0.998553
-0.999105
-0.999651
-0.999894
-0.999977
-0.999997
-1
-1
-1
-1
-1
-1
-1
-1
-1
-1
-1
-1
-1
-1
-0.999705
-0.999603
-0.999541
-0.999611
-0.999796
-0.999938
-0.999986
-0.999998
-1
-1
-1
-1
-1
-1
-1
-1
-1
-1
-1
-1
-1
-1
-1
-0.999937
-0.999915
-0.999907
-0.999929
-0.99997
-0.999994
-0.999999
-1
-1
-1
-1
-1
-1
-1
-1
-1
-1
-1
-1
-1
-1
-1
-1
-0.99999
-0.999986
-0.999986
-0.999991
-0.999997
-1
-1
-1
-1
-1
-1
-1
-1
-1
-1
-1
-1
-1
-1
-1
-1
-1
-1
-0.999999
-0.999998
-0.999999
-0.999999
-1
-1
-1
-1
-1
-1
-1
-1
-1
-1
-1
-1
-1
-1
-1
-1
-1
-1
-1
-1
-1
-1
-1
-1
-1
-1
-1
-1
-1
-1
-1
-1
-1
-1
-1
-1
-1
-1
-1
-1
-1
-1
0.740067
0.705625
0.607487
0.335615
0.252327
0.285493
0.294107
0.118194
-0.025158
-0.00925187
-0.0760942
-0.208475
-0.230476
-0.262721
-0.352045
-0.418011
-0.431038
-0.450046
-0.474407
-0.489584
-0.472212
-0.470665
-0.467273
-0.460039
-0.434102
-0.432008
-0.435892
-0.461967
-0.484726
-0.508253
-0.537322
-0.57727
-0.570089
-0.588764
-0.615263
-0.646522
-0.589374
-0.582695
-0.58118
-0.582394
-0.689799
-0.672524
-0.661154
-0.651956
-0.911264
-0.902461
-0.893788
-0.8845
-0.981597
-0.979369
-0.975839
-0.971445
-0.992369
-0.991098
-0.989259
-0.987045
-0.997168
-0.997218
-0.997102
-0.996621
-0.999063
-0.999097
-0.999093
-0.998898
-0.99983
-0.999808
-0.999774
-0.999675
-1.00001
-1.00001
-1
-0.999991
-1.00001
-1.00001
-1.00001
-1.00002
-1
-1
-1
-1
-1
-1
-1
-1
-1
-1
-1
-1
-1
-1
-1
-1
-1
-1
-1
-1
-1
-1
-1
-1
-1
-1
-1
-1
-1
-1
-1
-1
-1
-1
-1
-1
-1
-1
-1
-1
-1
-1
-1
-1
-1
-1
-1
-1
-1
-1
-1
-1
-1
-1
-1
-1
-1
-1
-1
-1
-1
-1
-1
-1
-1
-1
-1
-1
-1
-1
-1
-1
-1
-1
-1
-1
-1
-1
-1
-1.00001
-1
-1
-1.00001
-1.00001
-1
-1.00001
-1.00001
-1.00001
-1
-1.00001
-1.00001
-1.00001
-0.189001
-0.430246
-0.714322
-0.725849
-0.445897
-0.0758681
-0.00220909
-0.022345
0.0339115
0.139957
0.368282
0.35388
0.357543
0.303835
0.171683
-0.228574
-0.623631
-0.536281
0.00533325
-0.301433
-0.595301
-0.685721
-0.574386
-0.261025
-0.0654824
-0.173754
-0.302673
-0.337992
-0.290374
-0.231214
-0.0317604
0.172593
0.260033
0.181361
-0.209634
-0.667128
-0.434927
0.0589908
-0.438963
-0.572851
-0.418464
-0.314034
-0.188686
-0.255566
-0.439797
-0.587629
-0.62578
-0.586989
-0.641676
-0.510604
-0.10714
0.120066
0.115134
-0.371563
-0.530941
-0.256359
0.12144
-0.471339
-0.39976
-0.27628
-0.29078
-0.373937
-0.491756
-0.645691
-0.738664
-0.764407
-0.763332
-0.779509
-0.596662
-0.181176
-0.0735664
-0.161127
-0.566541
-0.262361
0.0672134
0.195379
-0.496285
-0.381701
-0.373001
-0.64214
-0.702037
-0.715738
-0.757613
-0.789535
-0.808863
-0.807287
-0.717868
-0.448162
-0.287148
-0.325608
-0.408726
-0.473571
-0.178583
0.113009
0.199125
-0.449709
-0.525433
-0.672634
-0.767283
-0.771519
-0.756395
-0.733171
-0.714579
-0.71928
-0.732072
-0.587448
-0.455897
-0.405899
-0.460282
-0.481416
-0.351699
-0.204507
0.0760466
0.188815
-0.549569
-0.711351
-0.777991
-0.786065
-0.74122
-0.714331
-0.696324
-0.666997
-0.636812
-0.603497
-0.557895
-0.534869
-0.557429
-0.565155
-0.529842
-0.491107
-0.29761
0.0392893
0.182969
-0.653732
-0.746814
-0.776646
-0.75262
-0.682547
-0.655635
-0.662992
-0.669884
-0.671704
-0.649052
-0.6349
-0.641543
-0.639984
-0.582784
-0.574636
-0.586783
-0.381661
-0.0425634
0.174738
-0.697707
-0.760046
-0.776307
-0.758919
-0.68347
-0.600786
-0.571604
-0.577284
-0.630025
-0.652268
-0.653764
-0.635215
-0.604649
-0.590653
-0.631504
-0.64839
-0.492437
-0.155339
0.0607983
-0.595254
-0.629119
-0.686509
-0.712017
-0.72059
-0.620983
-0.515116
-0.476645
-0.477623
-0.493296
-0.535135
-0.565154
-0.601917
-0.714612
-0.757104
-0.736434
-0.66212
-0.445816
-0.261593
-0.639249
-0.622191
-0.619086
-0.620928
-0.643954
-0.645767
-0.631859
-0.587754
-0.561316
-0.588806
-0.655371
-0.718154
-0.778319
-0.829114
-0.851979
-0.825433
-0.78629
-0.716479
-0.631705
-0.863926
-0.801385
-0.744771
-0.706524
-0.705174
-0.725536
-0.764345
-0.773953
-0.772667
-0.803197
-0.827874
-0.854671
-0.86754
-0.888563
-0.901642
-0.879314
-0.851921
-0.829208
-0.802962
-0.961009
-0.933379
-0.900602
-0.884213
-0.882612
-0.883442
-0.897916
-0.901008
-0.900379
-0.910714
-0.918804
-0.926359
-0.931552
-0.934
-0.933615
-0.91971
-0.889085
-0.872558
-0.861845
-0.982038
-0.971103
-0.961173
-0.958574
-0.95683
-0.954734
-0.958761
-0.953552
-0.950637
-0.95983
-0.964611
-0.9612
-0.967758
-0.966771
-0.961932
-0.954196
-0.914223
-0.897978
-0.886964
-0.99487
-0.989435
-0.984025
-0.982412
-0.981348
-0.980585
-0.982152
-0.978616
-0.977374
-0.983015
-0.984968
-0.982959
-0.985075
-0.986982
-0.981395
-0.971045
-0.934273
-0.920127
-0.901454
-0.99802
-0.995153
-0.99231
-0.99096
-0.990096
-0.99159
-0.992538
-0.992694
-0.993397
-0.994765
-0.994268
-0.993242
-0.993588
-0.996021
-0.991563
-0.980979
-0.952603
-0.937982
-0.911568
-0.9993
-0.998061
-0.996623
-0.995715
-0.994122
-0.996205
-0.996937
-0.997636
-0.9981
-0.998514
-0.998091
-0.99762
-0.997742
-0.998825
-0.996425
-0.988038
-0.971585
-0.95355
-0.91981
-0.999929
-0.999687
-0.999182
-0.998652
-0.996583
-0.998183
-0.998571
-0.999025
-0.999285
-0.9995
-0.999465
-0.999339
-0.999347
-0.999676
-0.999347
-0.996931
-0.988127
-0.965155
-0.927029
-1.00002
-1
-0.999899
-0.999747
-0.998912
-0.99932
-0.999466
-0.999587
-0.999707
-0.999807
-0.999845
-0.999816
-0.999832
-0.999931
-0.999935
-0.999207
-0.993854
-0.969903
-0.933904
-1.00001
-1.00002
-1.00002
-1.00001
-0.999895
-0.999879
-0.999879
-0.999882
-0.999901
-0.99993
-0.999951
-0.999947
-0.999951
-0.99999
-1.00003
-0.999585
-0.994526
-0.969721
-0.940582
-1
-1
-1.00001
-1.00002
-1.00001
-1
-0.999995
-0.999987
-0.999984
-0.999987
-0.999987
-0.999988
-0.999987
-1.00001
-1.00004
-0.99958
-0.993734
-0.968372
-0.948826
-1
-1
-1
-1
-1.00001
-1.00001
-1.00001
-1
-1
-1
-0.999999
-0.999999
-0.999999
-1.00001
-1.00005
-0.999478
-0.99271
-0.968522
-0.95787
-1
-1
-1
-1
-1
-1
-1
-1
-1
-1
-1
-1
-1
-1.00002
-1.00004
-0.999237
-0.991869
-0.970976
-0.965166
-1
-1
-1
-1
-1
-1
-1
-1
-1
-1
-1
-1
-1
-1.00002
-1.00002
-0.999073
-0.991815
-0.976116
-0.970955
-1
-1
-1
-1
-1
-1
-1
-1
-1
-1
-1
-1
-1
-1.00002
-1.00001
-0.999162
-0.99338
-0.981554
-0.975597
-1
-1
-1
-1
-1
-1
-1
-1
-1
-1
-1
-1
-1
-1.00001
-0.999995
-0.999315
-0.995109
-0.985206
-0.979339
-1
-1
-1
-1
-1
-1
-1
-1
-1
-1
-1
-1
-1
-1.00001
-1.00001
-0.999581
-0.996291
-0.987759
-0.982425
-1
-1
-1
-1
-1
-1
-1
-1
-1
-1
-1
-1
-1
-1
-1
-0.999677
-0.997045
-0.989942
-0.984995
-1
-1
-1
-1
-1
-1
-1
-1
-1
-1
-1
-1
-1
-1
-1
-0.999748
-0.997663
-0.991865
-0.987129
-1
-1
-1
-1
-1
-1
-1
-1
-1
-1
-1
-1
-1
-1
-0.999995
-0.999761
-0.998112
-0.99337
-0.988887
-1
-1
-1
-1
-1
-1
-1
-1
-1
-1
-1
-1
-1
-1
-1.00001
-0.999853
-0.998527
-0.994487
-0.990327
-1
-1
-1
-1
-1
-1
-1
-1
-1
-1
-1
-1
-1
-1.00001
-1.00001
-0.999842
-0.998592
-0.99542
-0.991555
-1
-1
-1
-1
-1
-1
-1
-1
-1
-1
-1
-1
-1
-1.00001
-0.999992
-0.999795
-0.998784
-0.996454
-0.992613
-1
-1
-1
-1
-1
-1
-0.999998
-0.999998
-0.999998
-0.999999
-1
-1
-1
-1
-0.999992
-0.999852
-0.999219
-0.997428
-0.993501
-1
-1
-1
-1
-1
-0.999996
-0.999986
-0.999986
-0.999983
-0.999985
-0.999988
-0.999994
-0.999999
-1
-1
-0.999964
-0.999684
-0.998225
-0.994214
-1
-1
-1
-1
-0.999994
-0.999985
-0.999967
-0.999962
-0.999949
-0.999953
-0.999962
-0.999974
-0.999987
-0.999997
-1
-0.999991
-0.999803
-0.998517
-0.994788
-1
-1
-1
-0.999996
-0.999982
-0.999967
-0.999942
-0.99992
-0.999901
-0.999908
-0.999923
-0.999947
-0.999971
-0.99999
-0.999999
-1.00001
-0.999958
-0.999185
-0.995363
-1.00001
-1
-0.999999
-0.999984
-0.999957
-0.999927
-0.999895
-0.99986
-0.999855
-0.999857
-0.999875
-0.999911
-0.999947
-0.999977
-0.999992
-1.00001
-0.999937
-0.998821
-0.994445
-1.00001
-1
-0.999993
-0.999967
-0.999931
-0.999888
-0.99985
-0.999815
-0.999813
-0.999815
-0.99983
-0.999855
-0.999897
-0.999945
-0.999979
-1.00001
-0.999913
-0.998819
-0.994876
-1.00001
-1
-0.999986
-0.999952
-0.999913
-0.999868
-0.999819
-0.999788
-0.999788
-0.999801
-0.999825
-0.999856
-0.999893
-0.999931
-0.99996
-0.999999
-0.999941
-0.999172
-0.996338
-1.00001
-1
-0.999978
-0.999944
-0.999905
-0.999862
-0.999809
-0.999776
-0.999781
-0.999806
-0.999838
-0.999866
-0.999894
-0.999925
-0.999955
-0.999994
-0.999985
-0.999689
-0.99794
-1.00001
-0.999999
-0.999973
-0.99994
-0.999901
-0.999858
-0.999805
-0.999773
-0.999783
-0.999813
-0.999847
-0.999877
-0.999904
-0.999927
-0.999946
-0.999972
-1.00001
-0.999949
-0.99922
)
;

boundaryField
{
    leftWall
    {
        type            zeroGradient;
    }
    rightWall
    {
        type            zeroGradient;
    }
    lowerWall
    {
        type            zeroGradient;
    }
    atmosphere
    {
        type            zeroGradient;
    }
    defaultFaces
    {
        type            empty;
    }
}


// ************************************************************************* //
