/*--------------------------------*- C++ -*----------------------------------*\
| =========                 |                                                 |
| \\      /  F ield         | foam-extend: Open Source CFD                    |
|  \\    /   O peration     | Version:     4.1                                |
|   \\  /    A nd           | Web:         http://www.foam-extend.org         |
|    \\/     M anipulation  |                                                 |
\*---------------------------------------------------------------------------*/
FoamFile
{
    version     2.0;
    format      ascii;
    class       volScalarField;
    location    "0.7";
    object      p;
}
// * * * * * * * * * * * * * * * * * * * * * * * * * * * * * * * * * * * * * //

dimensions      [1 -1 -2 0 0 0 0];

internalField   nonuniform List<scalar> 
2268
(
819.644
819.817
838.389
836.286
855.168
864.863
868.532
880.288
883.378
885.844
894.606
896.747
896.038
893.301
892.737
886.461
884.824
875.73
869.096
859.225
847.432
835.368
830.708
758.224
758.431
776.77
780.005
796.562
806.185
809.455
822.187
825.162
827.502
836.714
838.024
836.877
834.91
835.054
828.3
826.665
816.074
811.651
798.872
788.203
774.587
770.66
698.37
697.714
716.946
723.222
738.245
748.664
750.979
763.848
765.897
769.415
781.733
777.959
778.719
776.425
775.947
769.43
766.909
758.942
753.251
744.449
728.02
713.989
709.888
635.386
636.145
656.878
665.677
680.162
691.186
692.405
706.217
706.975
717.432
719.336
721.081
719.593
720.903
718.888
712.247
710.965
700.728
697.039
681.861
668.048
649.085
645.192
571.048
578.899
597.435
610.497
624.085
635.194
632.925
652.403
652.007
655.753
661.215
663.278
661.533
656.692
654.842
654.497
652.402
641.976
638.793
624.275
613.788
585.275
586.16
510.047
517.397
541.56
555.414
568.956
580.072
578.693
583.426
604.582
600.591
602.642
604.296
602.012
602.529
603.687
599.475
598.41
588.008
577.036
555.153
561.538
519.025
513.131
450.52
464.99
484.306
504.309
516.176
526.408
525.089
535.312
536.699
543.003
543.226
544.798
543.325
538.713
540.112
544.553
534.748
523.877
520.855
513.968
472.468
448.456
442.728
397.542
401.849
435.792
454.349
465.372
472.353
468.954
480.395
484.564
488.243
486.48
487.908
483.426
485.034
483.57
489.867
477.32
471.536
468.821
441.505
436.112
374.053
343.266
1078.98
1011.93
770.442
617.296
817.625
877
913.526
933.941
920.15
869.116
744.552
619.091
571.728
645.821
394.735
515.853
772.764
1062.33
1355.03
1039.82
919.794
716.367
550.887
771.095
835.273
868.661
896.834
890.276
866.108
735.483
627.17
446.787
548.956
388.503
516.957
603.031
979.525
1285.68
939.134
794.232
623.431
452.769
711.194
781.965
842.798
856.625
856.835
826.054
689.41
536.196
472.12
457.901
405.381
557.966
604.66
911.489
1163.1
845.749
623.344
513.26
432.711
608.068
706.481
784.736
810.82
803.151
786.428
626.426
460.109
445.516
445.164
389.4
560.061
544.895
797.774
1029.5
750.29
502.029
443.374
397.012
519.013
588.726
686.298
715.119
732.297
727.952
554.132
407.35
440.243
415.939
408.113
492.483
524.789
711.469
909.832
663.283
440.474
387.9
362.352
430.663
583.609
618.72
622.445
653.205
647.254
516.215
428.874
414.12
406.242
427.636
486.656
504.896
660.356
814.384
579.444
392.41
362.883
335.386
393.862
498.919
563.561
543.202
563.872
564.589
515.548
413.227
392.428
369.6
430.254
475.723
468.224
591.658
769.624
492.453
367.176
349.386
322.319
360.654
469.975
497.328
468.676
491.264
452.862
423.911
359.056
392.558
391.593
442.871
452.934
483.181
562.876
699.065
338.745
347.02
346.677
394.872
394.117
398.433
389.699
401.714
396.112
402.41
395.287
397.202
396.831
385.562
390.129
400.18
377.609
403.707
376.01
370.584
323.492
272.299
218.918
292.309
287.289
302.791
302.166
311.042
302.398
281.683
296.755
288.204
296.248
284.621
280.777
283.501
290.004
284.736
278.305
302.699
264.827
299.659
228.829
213.296
76.3
41.3564
265.677
256.052
253.372
238.05
196.911
215.839
184.397
231.217
204.083
222.273
167.693
217.359
194.239
197.964
188.819
195.232
203.837
170.243
235.685
174.403
95.9682
-60.4101
-76.2992
246.833
236.552
218.987
216.927
170.633
176.13
146.165
175.611
159.702
166.032
161.265
123.798
153.85
144.708
145.994
144.757
142.041
143.579
185.94
113.567
68.6703
-3.60311
-7.72519
218.618
208.871
193.394
181.711
156.702
151.002
132.985
136.919
131.353
133.486
131.162
128.799
132.801
130.864
97.412
113.489
95.9588
136.625
157.658
36.6226
14.8983
139.962
71.7279
196.612
192.564
176.601
175.416
147.934
134.603
124.17
122.503
125.694
134.819
132.149
118.369
108.036
103.581
87.9659
84.1965
88.8982
125.087
11.2062
-7.89946
145.248
135.571
171.644
185.318
195.155
178.472
162.935
129.57
101.829
96.3001
102.56
98.0491
90.8826
79.2983
64.1179
60.1551
57.667
57.1394
74.6769
66.802
72.4867
20.277
19.9254
53.3124
107.201
146.581
158.186
163.81
147.603
126.457
113.597
89.8851
75.4111
64.1848
44.9151
32.2914
23.7505
20.9239
12.941
21.4972
34.4466
42.9268
-48.8798
-3.89374
-5.99709
147.424
128.905
103.751
97.5431
117.851
121.346
102.138
78.2064
82.3761
55.2597
33.1437
22.1996
14.2732
5.69806
2.97975
4.46954
5.88946
7.17733
18.9876
22.1125
9.67125
16.657
27.8405
59.0695
-82.2921
-35.3266
105.103
85.3341
73.4345
59.5674
40.63
31.7944
24.4641
13.0948
9.58398
5.22887
2.33368
1.79807
1.71545
2.00748
3.1573
5.96446
7.18982
11.0122
18.7026
27.0623
27.0531
-0.647372
7.2271
26.498
52.0069
39.698
36.4757
28.3561
14.7716
4.47674
3.67515
1.76997
1.33208
-0.170955
0.388855
0.396402
0.996208
1.16342
2.27129
1.58807
0.870331
5.17049
5.75467
2.97277
1.36999
7.92017
17.7957
41.1307
13.3817
29.8561
22.392
4.62794
-1.26752
0.611792
-0.111794
-0.404419
-0.691026
-0.530343
-0.357497
-0.0616277
-0.279029
0.153565
0.529603
0.200159
0.12283
-0.866485
-2.15151
-2.56376
-2.1041
-0.981921
35.6689
29.5283
22.0733
19.4522
9.63107
-1.59105
-0.860757
-0.848612
-0.897576
-0.996397
-1.00981
-1.09908
-1.16772
-1.23191
-1.52564
-1.23627
-3.35441
-1.97975
-2.5441
-2.86039
-3.11642
-2.95358
-1.59578
26.1424
31.3213
19.0578
13.0653
3.35759
-0.841098
-1.42881
-1.45156
-1.22124
-1.30965
-1.44124
-1.63165
-1.77785
-2.00689
-2.3176
-2.48784
-2.77923
-3.02564
-3.2096
-3.00563
-2.67453
-2.32514
-2.39871
19.2302
22.8066
18.9564
12.726
0.410592
-1.5857
-1.52832
-1.50137
-1.59757
-1.72075
-1.81783
-2.05034
-2.26718
-2.53787
-2.84696
-3.0403
-3.0652
-3.22905
-3.27186
-3.17365
-3.07004
-2.87986
-2.72417
15.9363
18.8
17.4166
6.43651
0.0933224
-1.1519
-2.11121
-1.88695
-1.99414
-2.17845
-2.31201
-2.40004
-2.56948
-2.79335
-2.94115
-3.06601
-3.18717
-3.30658
-3.36486
-3.33364
-3.19447
-3.16397
-3.06999
14.3567
14.7957
12.0136
9.41703
-0.916474
-0.783054
-2.31197
-2.27167
-2.3337
-2.52995
-2.72316
-2.82751
-2.90089
-3.02826
-3.15901
-3.23902
-3.30629
-3.40818
-3.35442
-3.36983
-3.30472
-3.24664
-3.18956
11.9457
8.0243
4.12754
-7.95894
-1.52635
-1.73358
-2.47052
-3.00169
-2.82238
-3.0701
-3.07053
-3.22076
-3.15167
-3.27337
-3.29414
-3.42534
-3.43447
-3.46087
-3.47683
-3.44728
-3.43054
-3.35564
-3.36576
9.14072
6.04657
7.55378
-8.81231
-2.64971
-2.74894
-2.83846
-3.27132
-3.32656
-3.53212
-3.47261
-3.25713
-3.45005
-3.45956
-3.52311
-3.57453
-3.59203
-3.60445
-3.59318
-3.56014
-3.54885
-3.50521
-3.44259
8.27397
2.08577
9.44446
-1.87336
-2.14664
-3.16607
-4.11017
-4.26099
-4.00329
-3.98699
-3.82836
-3.94063
-3.75046
-3.79656
-3.76417
-3.78231
-3.75451
-3.77265
-3.73413
-3.72802
-3.65361
-3.63045
-3.61732
2.53755
-4.10985
-7.32014
-4.01714
-3.60397
-3.62445
-4.37559
-4.74458
-4.60795
-4.42471
-4.48815
-4.20867
-4.17334
-4.02591
-3.9625
-3.90712
-3.92228
-3.88245
-3.90118
-3.83724
-3.87214
-3.81872
-3.74206
-3.50592
-3.20066
-16.1261
-7.40731
-5.97976
-5.72411
-5.4982
-5.46369
-5.46052
-5.16727
-4.69935
-4.64889
-4.40938
-4.28826
-4.20735
-4.18118
-4.09465
-4.07178
-4.01665
-3.98104
-3.90607
-3.89371
-3.92307
-3.27538
3.2504
-4.68155
-7.46828
-7.96922
-7.02736
-6.28814
-5.86542
-5.8588
-5.71927
-5.14529
-4.93128
-4.72232
-4.55275
-4.43525
-4.37079
-4.27349
-4.17735
-4.13151
-4.1197
-4.07459
-4.04268
-3.96022
-3.13193
4.14154
-1.82846
-9.38877
-10.0241
-7.7815
-6.64145
-6.83041
-6.7653
-6.25376
-5.75666
-5.33767
-5.01576
-4.79279
-4.64854
-4.53803
-4.48367
-4.39872
-4.28638
-4.26749
-4.21723
-4.18949
-4.15106
-9.1222
-12.937
-4.17612
-8.68543
-9.31076
-8.1328
-7.19451
-6.87709
-7.39642
-6.33135
-5.96379
-5.55085
-5.25348
-5.00708
-4.83803
-4.72953
-4.61511
-4.44409
-4.40884
-4.44148
-4.31409
-4.25541
-4.18142
-9.57447
-12.6084
-10.0772
-9.29462
-9.10706
-8.95045
-8.40867
-7.98859
-6.93731
-6.47277
-6.06859
-5.6955
-5.35676
-5.13403
-4.98218
-4.82549
-4.73558
-4.67543
-4.5541
-4.46662
-4.58456
-4.4878
-4.37171
-7.62703
-8.72023
-8.89686
-8.78954
-9.63576
-8.63325
-7.93116
-8.00193
-6.6036
-6.53195
-6.34893
-5.952
-5.80863
-5.27381
-5.07319
-4.94797
-4.81708
-4.68222
-4.66574
-4.66281
-4.66548
-4.55982
-4.45047
-4.78147
-7.54734
-9.12266
-9.23749
-8.49688
-7.86364
-7.06991
-6.479
-6.23171
-6.89029
-6.53154
-6.10084
-5.82181
-5.46542
-5.2708
-5.20978
-4.92719
-4.87695
-4.7558
-4.66288
-4.70149
-4.79842
-4.71741
-2.39684
-6.56729
-8.16409
-7.41073
-7.23413
-7.68094
-7.20035
-7.07128
-7.95261
-7.40522
-6.70898
-6.21496
-5.85978
-5.60966
-5.32349
-5.1604
-5.04276
-4.93355
-4.87545
-4.80569
-4.71983
-4.74891
-4.7988
-5.60497
-6.47205
-7.28521
-6.44724
-6.55384
-6.83534
-6.68142
-6.14518
-8.94625
-7.22452
-6.56321
-6.12252
-5.81721
-5.72715
-5.50396
-5.25112
-5.22953
-5.03737
-5.00148
-4.91327
-4.80131
-4.88617
-4.90144
-5.43252
-5.65475
-6.38333
-6.00017
-5.97845
-5.93448
-6.54995
-7.39551
-6.86119
-6.15664
-6.19534
-5.80463
-5.58376
-5.43867
-5.52302
-5.22261
-5.14928
-5.11649
-5.0649
-5.09416
-4.88343
-4.86508
-5.05965
-5.12386
-5.39976
-5.69332
-5.4519
-5.44249
-5.2658
-5.16854
-5.21569
-4.82204
-5.51384
-5.66973
-5.58897
-5.37448
-5.3729
-5.50134
-5.26643
-5.15178
-5.13837
-5.00037
-5.09277
-5.05229
-4.95673
-4.97435
-5.18128
-5.46276
-5.33081
-5.45125
-5.20363
-4.88571
-4.62401
-4.70361
-4.63615
-5.28591
-5.2818
-5.23431
-5.20123
-5.33393
-5.38704
-5.28992
-5.14188
-5.1948
-5.0806
-5.128
-5.11332
-4.98534
-5.07744
-4.85897
-4.96895
-4.70095
-5.06023
-5.19077
-5.1261
-4.9197
-5.00777
-5.00323
-5.12395
-5.10189
-5.09076
-5.10112
-5.46256
-5.36777
-5.17668
-5.29249
-5.2498
-5.17093
-5.13614
-5.19064
-5.11038
-5.09889
-4.40564
-4.4054
-4.29768
-4.63796
-4.85104
-4.9828
-4.95408
-4.96853
-4.96804
-5.03804
-5.05852
-5.06489
-5.10484
-5.49473
-5.37178
-5.2441
-5.29703
-5.27088
-5.26138
-5.19308
-5.27233
-5.2998
-5.15003
-4.58988
-4.50003
-4.46604
-4.56628
-4.7792
-4.96156
-4.94899
-4.96609
-5.02296
-5.06084
-5.02034
-5.0049
-5.34056
-5.513
-5.22643
-5.22694
-5.28429
-5.29026
-5.37019
-5.24545
-5.28936
-5.32425
-5.3929
-4.92851
-4.88521
-4.83397
-4.78449
-4.8395
-4.93838
-4.9547
-4.94288
-5.01107
-5.02853
-5.12153
-5.05275
-5.4082
-5.41627
-5.20515
-5.28287
-5.35455
-5.34407
-5.38531
-5.40275
-5.34546
-5.36366
-5.3078
-5.05907
-5.03063
-4.99206
-4.94279
-4.94558
-4.9858
-5.02901
-5.01716
-5.10663
-5.08231
-5.28088
-5.30422
-5.46049
-5.29006
-5.33226
-5.35264
-5.39904
-5.40981
-5.41047
-5.38448
-5.44479
-5.47858
-5.35947
-5.21983
-5.19698
-5.1656
-5.12163
-5.11642
-5.11091
-5.15133
-5.1004
-5.31331
-5.34519
-5.36907
-5.38566
-5.38933
-5.33714
-5.41131
-5.41256
-5.41186
-5.41523
-5.46671
-5.42635
-5.5272
-5.55708
-5.48038
-5.3899
-5.3648
-5.34052
-5.35751
-5.3217
-5.32239
-5.36527
-5.39972
-5.41982
-5.36848
-5.40134
-5.39276
-5.45768
-5.41355
-5.50991
-5.52534
-5.50103
-5.52004
-5.56726
-5.54309
-5.53453
-5.63075
-5.60108
-5.68978
-5.60217
-5.58496
-5.66963
-5.49675
-5.49581
-5.59326
-5.56887
-5.54161
-5.51219
-5.50931
-5.52501
-5.53139
-5.52389
-5.58686
-5.59237
-5.58629
-5.59241
-5.62398
-5.6113
-5.63857
-5.66567
-5.66994
-5.48822
-5.66888
-5.68367
-5.44567
-5.6894
-5.71797
-5.66648
-5.50809
-5.62705
-5.56437
-5.56893
-5.61376
-5.67705
-5.66657
-5.66858
-5.69977
-5.69755
-5.69767
-5.73059
-5.70616
-5.72356
-5.82672
-5.75939
190.897
199.088
235.065
249.379
30.4161
59.7638
112.453
175.041
-56.7278
-48.4993
85.2774
171.068
95.697
130.369
114.995
190.083
109.1
144.037
163.416
187.754
192.756
182.491
152.895
167.796
175.911
193.131
200.783
193.033
113.383
132.814
130.59
136.231
102.882
104.477
111.354
115.687
57.8359
78.3677
90.6929
99.0485
21.0231
22.2901
20.5885
24.1218
0.330263
0.848939
1.94746
4.07784
-1.02794
-0.825877
0.330009
0.147617
-2.1614
-2.09445
-1.87547
-1.60584
-2.65963
-2.60109
-2.53178
-2.47989
-2.99127
-2.93656
-2.86832
-2.8357
-3.13826
-3.11648
-3.09412
-3.07989
-3.33308
-3.3154
-3.3025
-3.28757
-3.43352
-3.41978
-3.41431
-3.41447
-3.60555
-3.59112
-3.59467
-3.55437
-3.70689
-3.69033
-3.6639
-3.68274
-3.88406
-3.88095
-3.82543
-3.86054
-4.01936
-3.95339
-3.9514
-3.9661
-4.14856
-4.12126
-4.11812
-4.14505
-4.26912
-4.18301
-4.172
-4.14656
-4.39807
-4.40508
-4.32658
-4.2982
-4.40093
-4.41884
-4.45093
-4.42798
-4.56357
-4.55878
-4.52947
-4.49668
-4.70339
-4.68563
-4.69525
-4.66322
-4.78565
-4.76236
-4.73945
-4.78497
-5.02258
-4.96925
-4.93833
-4.92508
-5.05712
-5.05861
-4.95244
-5.01669
-5.06308
-5.05615
-5.012
-5.0285
-5.12141
-5.10693
-5.20409
-5.18501
-5.21573
-5.2169
-5.32499
-5.39058
-5.30116
-5.37774
-5.34223
-5.35174
-5.39649
-5.39681
-5.34474
-5.3305
-5.46563
-5.46379
-5.46755
-5.45436
-5.5765
-5.58451
-5.60794
-5.5577
-5.5942
-5.66145
-5.66499
-5.69369
-5.66722
-5.72356
-5.76963
-5.79385
-5.83834
-5.85869
-5.82026
-5.83922
350.431
363.796
323.162
319.686
318.965
378.985
386.533
349.551
374.322
321.699
327.433
401.114
394.846
408.238
418.387
437.308
501.706
531.979
568.838
221.869
318.051
340.139
327.348
303.003
321.432
246.469
219.859
174.302
203.166
243.011
270.799
296.505
295.538
393.613
521.191
533.394
545.258
572.009
230.721
310.04
311.69
265.989
189.028
201.933
165.112
134.465
172.299
154.045
178.647
175.668
221.383
298.851
442.026
550.482
532.231
417.83
311.236
224.287
248.493
244.765
194.222
131.007
142.103
94.0187
75.4609
85.0998
122.158
145.081
149.255
182.387
278.505
445.623
529.24
469.967
427.576
339.56
218.088
216.59
207.065
180.888
139.444
118.515
79.6482
76.9959
60.8356
85.542
119.223
133.384
130.546
258.14
403.242
439.086
364.547
398.118
509.04
197.359
207.798
159.356
158.837
147.093
110.604
71.4252
48.055
1.18548
75.1428
87.6968
182.826
212.318
245.871
327.108
405.355
408.989
288.359
436.994
183.064
143.655
145.659
163.61
135.485
32.8689
56.1105
11.2749
121.429
100.645
94.4341
110.513
190.829
229.522
273.909
295.5
294.425
378.11
240.885
151.703
58.0168
110.55
145.86
70.8563
51.3543
87.4096
61.9657
109.451
124.2
48.1864
93.3029
151.379
184.641
207.993
224.687
291.01
348.726
291.925
121.329
100.34
93.0397
13.1764
24.8391
98.9462
74.82
71.0354
101.857
117.32
103.483
88.3564
104.283
122.121
143.846
176.51
179.028
58.5473
139.451
110.566
23.4393
51.1899
61.9037
34.3947
69.4848
55.9105
51.3333
74.5043
74.6471
67.9723
72.7656
75.5299
75.5103
92.3055
104.021
57.5797
34.46
78.7659
36.2511
29.7742
-33.035
23.5149
22.0886
35.2194
23.4659
2.35783
78.4851
46.4366
41.2825
38.2347
35.4068
43.6491
54.6683
48.8445
45.7421
86.9551
65.891
11.2866
17.6172
13.0501
23.6049
20.3999
19.2613
12.2949
10.6683
21.1042
22.6605
24.7133
6.66128
13.9599
24.8643
23.8872
41.6567
48.8977
41.0403
31.9571
1.40129
-0.871365
3.45499
2.53484
3.93615
5.39735
2.79068
4.36915
7.32967
10.0241
-0.303129
6.90534
4.99634
13.8736
4.50801
17.8786
20.341
23.6108
26.51
-1.50037
-1.23289
0.254583
0.276995
1.44089
2.4664
-0.515902
-1.29951
4.21869
2.62822
-1.00593
1.37868
0.234547
-0.0309551
-1.44523
3.04278
-16.539
11.0157
45.6023
-2.42808
-2.11816
-2.1299
-2.17653
-1.61059
-1.23363
-1.61829
-1.17467
-1.76985
-1.95431
-2.14344
-1.32728
-2.34305
-1.97472
-2.06138
-0.605673
-5.91804
4.71141
21.736
-2.74995
-2.70776
-2.86133
-2.7443
-2.50569
-2.26952
-2.47028
-2.39688
-2.2705
-2.43059
-2.69019
-2.64201
-2.7648
-2.94306
-3.11851
-2.75891
-8.72715
-2.56277
11.6711
-3.0827
-3.15806
-3.32243
-3.21005
-2.98119
-3.17369
-2.94595
-2.87489
-2.84805
-2.89441
-2.96225
-2.97784
-3.02341
-3.00514
-3.31701
-4.70788
-2.55164
-8.25104
6.93305
-3.27565
-3.37602
-3.36793
-3.2889
-3.32712
-3.37095
-3.14567
-3.02484
-3.04993
-3.02283
-3.06627
-3.08998
-2.99152
-2.94126
-3.15842
-3.76908
-4.76793
-6.95135
2.69249
-3.45254
-3.33921
-3.53693
-3.41401
-3.53805
-3.64476
-3.39128
-3.29023
-3.30323
-3.29164
-3.17652
-3.26048
-3.25951
-3.0503
-3.05038
-3.04197
-2.87374
-2.3334
-0.0635645
-3.57727
-3.59838
-3.5135
-3.48595
-3.58258
-3.65696
-3.56452
-3.28089
-3.39707
-3.36519
-3.33262
-3.22581
-3.36657
-3.14875
-3.09138
-3.01455
-2.71542
-1.1785
-1.33539
-3.69219
-3.72402
-3.57195
-3.62366
-3.63163
-3.67471
-3.7214
-3.52055
-3.42832
-3.45172
-3.42812
-3.44364
-3.43854
-3.41632
-3.25816
-3.22485
-3.02714
-2.46266
-3.66258
-3.83607
-3.72959
-3.65969
-3.7448
-3.72122
-3.80305
-3.73794
-3.63878
-3.6229
-3.56341
-3.57587
-3.51319
-3.49921
-3.4714
-3.44681
-3.45788
-3.47117
-3.67441
-5.23436
-3.93148
-3.88026
-3.79469
-3.79802
-3.81633
-3.90685
-3.85453
-3.76797
-3.74132
-3.73368
-3.73954
-3.70109
-3.73587
-3.58114
-3.57683
-3.639
-3.80042
-4.4947
-5.68096
-4.08791
-3.92927
-3.88814
-3.89167
-3.88335
-3.99598
-3.95135
-3.79966
-3.86222
-3.76636
-3.84893
-3.7959
-3.85078
-3.83056
-3.83295
-3.91274
-4.25454
-5.83185
-5.19799
-4.21663
-4.17844
-4.10281
-4.08597
-4.01273
-4.11106
-4.05181
-4.01614
-3.87741
-3.96377
-4.0033
-3.91335
-3.85606
-3.99667
-3.92978
-4.03027
-4.25788
-5.44825
-4.73169
-4.25092
-4.20512
-4.15518
-4.17241
-4.09694
-4.16894
-4.11706
-4.10709
-4.07825
-4.0609
-4.02019
-4.07169
-4.00195
-4.19303
-4.0508
-4.18008
-4.13926
-4.686
-4.16444
-4.46633
-4.26148
-4.27653
-4.20099
-4.31751
-4.32378
-4.17461
-4.13755
-4.19143
-4.16771
-4.15175
-4.13936
-4.12368
-4.14945
-4.20717
-4.24812
-4.1391
-4.537
-3.87205
-4.47339
-4.53681
-4.37069
-4.39457
-4.37183
-4.38178
-4.39807
-4.38271
-4.27112
-4.28024
-4.33285
-4.23805
-4.21642
-4.2496
-4.34997
-4.29779
-4.31486
-4.63356
-3.69727
-4.57059
-4.56991
-4.6354
-4.42783
-4.64699
-4.62344
-4.41576
-4.53656
-4.45717
-4.34501
-4.3479
-4.42474
-4.37747
-4.34887
-4.38817
-4.4191
-4.38155
-4.51297
-3.84539
-4.64304
-4.65915
-4.65021
-4.58195
-4.63095
-4.58493
-4.66743
-4.62613
-4.57858
-4.51704
-4.46954
-4.55446
-4.53928
-4.42342
-4.44011
-4.57604
-4.3553
-4.48853
-4.03866
-4.75065
-4.74716
-4.74513
-4.7996
-4.57507
-4.66712
-4.69925
-4.78665
-4.72371
-4.5816
-4.63417
-4.65482
-4.65788
-4.5365
-4.59612
-4.67381
-4.43331
-4.52726
-4.21988
-5.0399
-4.85485
-4.88734
-4.91107
-4.85429
-4.84421
-4.8206
-4.83435
-4.84084
-4.7941
-4.66882
-4.74375
-4.70759
-4.73563
-4.66592
-4.69781
-4.5253
-4.66467
-4.34238
-4.99793
-4.92725
-4.9692
-4.89078
-5.02987
-4.96266
-4.98369
-4.75398
-4.93767
-5.02961
-4.79979
-4.85272
-4.78028
-4.93579
-4.82826
-4.86631
-4.77448
-4.69456
-4.50491
-5.13219
-5.01385
-5.08746
-5.07693
-5.17492
-5.13456
-5.1312
-4.9174
-5.09053
-5.066
-4.90586
-4.89619
-5.07697
-4.95418
-4.97181
-4.9195
-4.7582
-4.82812
-4.63562
-5.30634
-5.09074
-5.2078
-5.15968
-5.34315
-5.34184
-5.37929
-5.13745
-5.18209
-5.21253
-5.10533
-5.09615
-5.01796
-5.22415
-5.12858
-4.97319
-5.03834
-4.90094
-4.74967
-5.41581
-5.37461
-5.27014
-5.43296
-5.26686
-5.41658
-5.49515
-5.22641
-5.33846
-5.46889
-5.29615
-5.24955
-5.24632
-5.18263
-5.38189
-5.0416
-4.97176
-4.98448
-4.8555
-5.49967
-5.55803
-5.4222
-5.35578
-5.58569
-5.73579
-5.73404
-5.48137
-5.52405
-5.57837
-5.60626
-5.31385
-5.25265
-5.48903
-5.43666
-5.09824
-5.18933
-5.27406
-5.37035
-5.52178
-5.45324
-5.41435
-5.52079
-5.59942
-5.70949
-5.74995
-5.63359
-5.73541
-5.71379
-5.67148
-5.61915
-5.45592
-5.52096
-5.52755
-5.26243
-5.26995
-5.22406
-5.12885
-5.53745
-5.56722
-5.60776
-5.53853
-5.8055
-5.68823
-5.91672
-5.86708
-5.82508
-5.79737
-5.7839
-5.74339
-5.72636
-5.631
-5.56271
-5.44763
-5.38486
-5.43929
-5.2588
-5.70034
-5.78675
-5.99294
-6.15504
-5.92467
-6.12756
-5.89147
-6.02163
-5.96821
-5.88928
-5.98698
-5.87291
-5.78603
-5.77861
-5.70234
-5.55709
-5.58726
-5.54201
-5.48621
-5.81671
-5.84579
-6.08521
-6.17098
-6.21228
-6.17396
-6.11788
-6.16043
-6.12521
-6.05806
-5.97573
-5.97237
-5.92462
-5.83278
-5.70304
-5.67084
-5.60875
-5.79209
-5.69146
-5.87779
-6.17799
-5.94916
-6.05675
-6.09138
-6.1898
-6.2605
-6.24375
-6.28797
-6.18778
-6.18059
-6.10815
-5.98425
-5.93883
-5.87851
-5.8191
-5.76656
-6.09163
-6.17145
)
;

boundaryField
{
    leftWall
    {
        type            calculated;
        value           nonuniform List<scalar> 
50
(
819.644
758.224
698.37
635.386
571.048
510.047
450.52
397.542
338.745
292.309
265.677
246.833
218.618
196.612
185.318
158.186
117.851
85.3341
52.0069
41.1307
35.6689
26.1424
19.2302
15.9363
14.3567
11.9457
9.14072
8.27397
2.53755
-3.50592
-3.27538
-3.13193
-9.1222
-9.57447
-7.62703
-4.78147
-2.39684
-5.60497
-5.43252
-5.12386
-5.18128
-4.85897
-4.40564
-4.58988
-4.92851
-5.05907
-5.21983
-5.3899
-5.68978
-5.48822
)
;
    }
    rightWall
    {
        type            calculated;
        value           nonuniform List<scalar> 
50
(
1355.03
1285.68
1163.1
1029.5
909.832
814.384
769.624
699.065
568.838
572.009
311.236
339.56
509.04
436.994
240.885
291.925
139.451
78.7659
65.891
31.9571
26.51
45.6023
21.736
11.6711
6.93305
2.69249
-0.0635645
-1.33539
-3.66258
-5.23436
-5.68096
-5.19799
-4.73169
-4.16444
-3.87205
-3.69727
-3.84539
-4.03866
-4.21988
-4.34238
-4.50491
-4.63562
-4.74967
-4.8555
-5.37035
-5.12885
-5.2588
-5.48621
-5.69146
-6.17145
)
;
    }
    lowerWall
    {
        type            calculated;
        value           nonuniform List<scalar> 
62
(
849.073
849.247
867.818
865.716
884.597
894.293
897.962
909.709
912.739
915.168
923.919
926.067
925.38
922.668
922.127
915.87
914.245
905.158
898.525
888.654
876.861
864.798
860.138
830.708
770.66
709.888
645.192
586.16
513.131
442.728
343.266
245.463
252.599
285.452
291.165
1078.98
1039.82
939.134
845.749
750.29
663.283
579.444
492.453
1093.44
1027.88
786.673
632.952
832.461
890.681
926.585
946.655
933.425
883.074
758.943
633.679
586.537
661.07
410.053
531.454
788.075
1077.38
1370.02
)
;
    }
    atmosphere
    {
        type            calculated;
        value           nonuniform List<scalar> 
46
(
-5.72958
-5.72948
-5.72935
-5.72927
-5.72904
-5.72904
-5.72904
-5.72904
-5.72904
-5.72904
-5.72904
-5.72904
-5.72904
-5.72904
-5.72904
-5.72969
-5.72995
-5.7311
-5.74867
-5.75041
-5.77094
-5.83417
-5.80779
-5.84656
-5.88078
-5.88939
-5.89319
-5.93749
-6.11153
-6.13225
-6.18716
-6.2458
-6.31606
-6.33406
-6.37746
-6.3497
-6.27295
-6.1914
-6.11343
-6.03156
-5.9381
-5.88471
-5.80979
-5.72904
-5.87839
-7.91888
)
;
    }
    defaultFaces
    {
        type            empty;
    }
}


// ************************************************************************* //
