/*--------------------------------*- C++ -*----------------------------------*\
| =========                 |                                                 |
| \\      /  F ield         | foam-extend: Open Source CFD                    |
|  \\    /   O peration     | Version:     4.1                                |
|   \\  /    A nd           | Web:         http://www.foam-extend.org         |
|    \\/     M anipulation  |                                                 |
\*---------------------------------------------------------------------------*/
FoamFile
{
    version     2.0;
    format      ascii;
    class       volScalarField;
    location    "0.7";
    object      pd;
}
// * * * * * * * * * * * * * * * * * * * * * * * * * * * * * * * * * * * * * //

dimensions      [1 -1 -2 0 0 0 0];

internalField   nonuniform List<scalar> 
2268
(
849.073
849.247
867.818
865.716
884.597
894.293
897.962
909.709
912.739
915.168
923.919
926.067
925.38
922.668
922.127
915.87
914.245
905.158
898.525
888.654
876.861
864.798
860.138
846.512
846.719
865.058
868.293
884.85
894.473
897.735
910.301
913.125
915.384
924.59
925.937
924.863
922.98
923.198
916.503
914.914
904.348
899.939
887.16
876.491
862.876
858.948
844.869
844.245
863.409
869.642
884.779
895.227
897.466
910.164
912.081
915.582
927.977
924.305
925.215
923.076
922.741
916.346
913.93
906.028
900.39
891.596
875.167
861.136
857.034
837.525
838.384
859.249
868.234
883.231
894.611
896.04
909.943
910.796
921.478
923.63
925.583
924.345
925.889
924.113
917.709
916.645
906.55
903.003
887.867
874.054
855.091
851.197
823.805
832.131
851.483
865.543
880.821
893.367
892.207
912.542
912.759
917.129
923.067
925.466
924.068
919.529
918.054
918.16
916.493
906.336
903.453
889.139
878.652
850.139
851.024
803.292
812.745
839.557
856.685
874.952
890.164
891.814
898.784
921.39
918.472
921.238
923.32
921.45
922.291
923.989
920.605
920.33
910.363
899.893
878.572
885.09
842.748
836.854
765.036
786.332
812.838
841.953
865.409
885.067
889.982
904.327
908.231
915.989
917.086
919.037
918.006
913.669
915.749
921.605
913.151
902.94
900.54
894.483
852.019
827.486
824.227
700.442
720.48
771.804
813.088
849.242
874.792
882.224
900.169
908.222
913.719
912.846
914.29
910.213
912.011
911.234
919.708
909.285
904.468
902.325
876.05
866.586
800.982
773.703
1093.44
1027.88
786.673
632.952
832.461
890.681
926.585
946.655
933.425
883.074
758.943
633.679
586.537
661.07
410.053
531.454
788.075
1077.38
1370.02
1083.22
968.58
767.371
603.367
824.395
885.42
915.899
940.308
930.531
904.484
773.752
664.778
483.539
589.48
430.555
561.17
647.846
1024.04
1330.23
1011.35
875.056
706.017
543.936
808.924
881.715
941.729
950.037
937.098
888.41
743.378
585.394
517.86
510.007
462.773
620.536
670.05
982.064
1236.4
945.608
732.278
610.202
544.127
734.694
849.612
936.2
967.015
945.79
889.322
702.716
518.681
497.452
499.541
449.934
627.39
611.883
886.449
1131.31
875.985
629.715
536.554
501.018
642.244
751.247
870.374
923.048
941.159
899.841
676.471
488.275
505.528
476.105
468.442
557.252
584.689
807.001
1040.32
812.778
577.364
467.576
445.883
539.28
754.656
818.148
859.222
910.07
892.645
710.999
551.105
513.023
487.347
496.538
547.589
562.896
756.786
973.93
750.499
534.202
429.991
399.749
499.417
684.319
779.018
792.248
842.799
861.532
789.006
610.812
558.525
501.333
532.211
543.106
531.736
690.046
959.095
681.547
514.755
412.779
380.4
476.921
676.304
733.134
723.484
774.05
771.14
753.169
639.626
645.217
601.419
608.953
550.638
556.788
667.295
918.932
550.396
591.25
635.934
751.438
812.908
857.093
868.376
891.5
892.962
901.617
895.273
895.574
895.088
884.135
888.975
902.44
883.955
911.488
883.947
879.34
818.071
750.551
695.334
401.128
428.058
497.374
607.798
741.465
792.245
799.649
832.238
840.782
852.182
841.202
830.023
825.819
835.572
830.65
826.044
858.892
826.089
857.858
789.627
729.101
529.637
462.53
334.84
366.4
440.3
509.676
527.811
569.108
563.12
637.725
636.988
659.505
593.279
665.212
599.722
617.003
610.058
609.27
641.611
632.37
729.411
639.238
504.678
278.942
267.754
312.539
348.787
370.098
378.659
331.875
363.416
349.039
392.714
357.737
356.923
339.198
315.752
331.699
325.513
336.526
339.718
374.704
436.463
539.506
465.235
400.372
293.722
322.683
287.23
305.538
291.85
276.548
249.889
256.689
236.719
243.176
218.63
219.75
222.113
228.89
237.952
245.975
222.448
245.352
245.367
324.371
430.954
378.856
366.191
434.053
359.864
262.833
266.677
237.286
238.49
213.421
203.76
184.328
191.432
204.329
231.449
251.097
259.887
268.197
282.526
287.094
303.579
334.281
412.347
359.963
376.543
520.574
455.618
478.302
246.639
254.108
243.478
250.579
230.531
212.173
215.565
235.379
248.528
258.4
261.399
258.962
268.386
290.066
320.631
371.626
406.776
440.665
407.38
414.361
444.966
477.679
509.905
216.656
219.575
220.775
225.768
233.503
224.937
218.426
210.855
193.054
174.367
154.896
146.028
137.165
160.631
200.487
233.916
195.05
288.144
336.496
525.502
514.997
488.68
471.163
174.297
173.328
176.668
179.15
203.862
187.035
165.623
139.502
110.625
80.0423
60.2022
54.804
53.6207
62.2001
95.6907
130.122
178.559
241.952
295.582
357.127
233.881
299.299
441.749
140.154
122.723
131.775
135.524
139.904
137.774
104.444
71.0495
47.5608
29.7634
20.4167
17.6274
17.9353
23.8055
36.5309
54.375
88.8187
131.076
176.669
214.855
232.419
297.541
352.598
105.078
84.0423
97.8814
107.077
105.252
90.6446
56.4782
31.4334
19.3996
9.4508
6.5895
5.82356
8.16404
13.4764
23.2011
35.4079
53.5186
77.8583
98.3723
115.41
145.122
200.901
262.402
92.1416
55.0548
85.3082
96.1212
88.1041
71.3622
38.1434
15.5175
6.99756
2.9954
2.46096
3.00478
5.36871
8.81506
14.7073
22.9966
33.4607
42.8355
48.7652
51.9944
57.4403
64.3707
72.2082
84.2136
67.7479
71.7553
88.3502
83.0615
45.9909
18.2898
6.75362
2.73036
1.54628
1.58574
2.47843
4.16953
6.13548
8.08495
11.1384
12.5524
17.0776
19.2893
20.3429
20.3377
18.8439
17.6866
71.7469
65.1204
65.6712
77.9599
66.4172
30.7837
12.3761
4.73369
1.81485
1.08991
1.06894
1.66283
2.74276
3.72827
4.6375
6.09439
7.84061
8.68608
8.54456
8.08768
7.55676
7.31702
6.89736
61.676
53.3344
65.0668
72.9091
51.5415
21.7018
9.93054
3.86627
1.30289
0.662564
0.512594
0.417666
0.501347
0.505132
0.299143
0.239596
0.761127
1.45465
1.77448
1.93948
1.89887
2.37571
2.7886
55.4275
48.5284
63.7392
63.4862
39.879
17.5062
8.51552
3.39167
1.05979
0.355835
0.131601
0.0157453
-0.158098
-0.381968
-0.529761
-0.654628
-0.775789
-0.784832
-0.686191
-0.520098
-0.349087
-0.0437985
0.39186
50.8152
45.9781
59.5129
63.0772
31.7836
15.1445
8.63481
3.87748
1.29177
0.306815
-0.0709612
-0.24135
-0.357175
-0.491678
-0.622427
-0.702437
-0.769709
-0.871597
-0.817838
-0.833255
-0.768142
-0.679225
-0.510644
46.2547
41.9025
52.0091
38.3049
22.7721
11.7806
9.30666
5.09071
1.74373
0.0499291
-0.278116
-0.501751
-0.468371
-0.610295
-0.632368
-0.763563
-0.772696
-0.7991
-0.815053
-0.785508
-0.768761
-0.69387
-0.703991
41.8075
42.0309
54.827
23.8303
12.8875
8.8637
9.27257
5.80997
1.58282
-0.264448
-0.577624
-0.432836
-0.650891
-0.670317
-0.736146
-0.787558
-0.80506
-0.817485
-0.806215
-0.773174
-0.761886
-0.718244
-0.655622
39.8354
39.5561
55.3166
24.4486
9.92852
7.10846
7.87507
4.1594
0.347106
-0.804043
-0.854104
-1.00572
-0.831168
-0.883181
-0.852004
-0.870143
-0.842352
-0.860486
-0.82197
-0.815805
-0.741269
-0.718245
-0.705153
33.4656
34.1169
35.3283
19.7775
7.46622
5.60098
7.1429
3.98028
0.0654711
-1.06089
-1.3601
-1.13675
-1.11935
-0.983579
-0.924565
-0.869764
-0.884919
-0.84509
-0.863826
-0.799835
-0.834568
-0.780966
-0.704287
26.9207
34.7582
20.792
13.0085
4.16765
2.74137
5.31215
2.88235
-0.755279
-1.61268
-1.31719
-1.35184
-1.18536
-1.10777
-1.04157
-1.01831
-0.932102
-0.909231
-0.854094
-0.818485
-0.743486
-0.731102
-0.760455
26.5329
40.223
29.2637
10.6594
1.26111
1.10788
4.15292
3.6585
0.0512774
-1.5202
-1.24836
-1.26452
-1.2861
-1.22251
-1.13831
-1.08153
-0.98545
-0.889545
-0.843751
-0.831942
-0.786836
-0.754927
-0.672471
25.9681
38.9372
29.7969
11.2361
0.495
0.622449
3.65744
3.82572
1.05591
-0.876259
-1.05095
-1.27332
-1.37468
-1.31733
-1.2213
-1.122
-1.07003
-0.985616
-0.8734
-0.854537
-0.804283
-0.776545
-0.738121
18.8409
17.3628
23.1952
12.0072
2.50992
0.697146
3.40034
4.66478
2.94062
1.09952
-0.470771
-1.21532
-1.44799
-1.40009
-1.28541
-1.18859
-1.0766
-0.905915
-0.870695
-0.903342
-0.775954
-0.717269
-0.643285
16.6175
10.7181
9.62652
8.62839
1.84968
-0.211064
1.87142
3.8123
3.7115
1.5473
-0.245672
-1.22409
-1.46621
-1.42567
-1.31185
-1.16127
-1.07222
-1.0121
-0.890765
-0.803285
-0.921226
-0.824471
-0.708376
15.4256
8.00255
4.39556
4.01404
-0.392485
-0.22368
2.39009
3.84008
3.7541
1.4175
-0.395084
-1.32103
-1.79322
-1.4468
-1.27957
-1.15917
-1.02856
-0.893699
-0.877217
-0.874289
-0.87696
-0.771292
-0.66195
12.6306
5.09986
1.09751
0.0489778
-0.260904
0.845275
4.11999
5.89565
4.93276
2.24689
0.522495
-0.975893
-1.57958
-1.48118
-1.34577
-1.29472
-1.0134
-0.963229
-0.842077
-0.749159
-0.787769
-0.884696
-0.803689
9.55004
3.81256
1.22012
1.50552
1.65883
2.30676
5.5977
6.18184
4.72492
3.74025
1.47209
-0.659108
-1.39586
-1.48202
-1.27125
-1.12002
-1.00375
-0.89464
-0.836532
-0.766773
-0.68092
-0.710001
-0.759889
5.14173
3.88649
2.68927
3.5483
4.33452
6.18916
8.51943
8.85387
5.55225
4.90384
1.44565
-0.806399
-1.38555
-1.5196
-1.33439
-1.08651
-1.0654
-0.873264
-0.837369
-0.749165
-0.637197
-0.722062
-0.737332
6.46291
5.95288
5.52356
6.97107
8.68164
10.346
10.2757
8.89213
8.09535
5.62573
1.13543
-0.711839
-1.13069
-1.12691
-1.23224
-0.93331
-0.859976
-0.827192
-0.775597
-0.804853
-0.594126
-0.575777
-0.770349
9.07451
8.62898
9.2008
10.773
11.6574
12.0585
11.9222
10.8054
9.0341
4.10649
0.445254
-0.773562
-0.892443
-0.950447
-1.08652
-0.851934
-0.737279
-0.723877
-0.585872
-0.678275
-0.637791
-0.542229
-0.559854
10.5055
10.3814
11.3966
12.1266
12.3915
12.1866
11.1105
8.65345
5.34013
1.34778
-0.182772
-0.58902
-0.648142
-0.793093
-0.847351
-0.750232
-0.602185
-0.655106
-0.540904
-0.588303
-0.573632
-0.44565
-0.537747
11.1543
11.463
12.6059
12.826
12.1221
10.168
7.35634
4.13635
1.66183
0.168206
-0.29657
-0.405982
-0.43496
-0.797669
-0.702884
-0.511795
-0.627605
-0.584915
-0.506048
-0.471256
-0.525752
-0.44549
-0.434001
10.8555
11.7426
12.8048
12.5323
10.8368
7.2896
3.74288
1.53303
0.394436
-0.110964
-0.245157
-0.273134
-0.314754
-0.704649
-0.581695
-0.454021
-0.506948
-0.480802
-0.471299
-0.403
-0.482241
-0.509709
-0.359951
7.52388
9.02046
10.1271
9.5815
7.16564
3.59383
1.42809
0.430355
0.0133559
-0.124977
-0.103422
-0.0896271
-0.425287
-0.59772
-0.311158
-0.31166
-0.369012
-0.374985
-0.454914
-0.330166
-0.374073
-0.408976
-0.477627
3.10143
4.1026
4.87828
4.47226
2.90098
1.1988
0.431983
0.178526
0.0423135
0.0128799
-0.0810583
-0.0122784
-0.367731
-0.375795
-0.164678
-0.2424
-0.314076
-0.303598
-0.344832
-0.362263
-0.304968
-0.323187
-0.267334
0.995075
1.33947
1.5927
1.44495
0.890325
0.392212
0.186709
0.155093
0.0590346
0.0833563
-0.11522
-0.138555
-0.294822
-0.1244
-0.166591
-0.186974
-0.233375
-0.244144
-0.244795
-0.218774
-0.279123
-0.312912
-0.193805
0.273057
0.368857
0.433145
0.412151
0.282031
0.204129
0.142634
0.190455
-0.0224486
-0.0543351
-0.0782153
-0.0948043
-0.0984669
-0.0462848
-0.120454
-0.121697
-0.121001
-0.12437
-0.175825
-0.135432
-0.236338
-0.266225
-0.189525
0.0618109
0.0986437
0.124064
0.0926156
0.105228
0.094753
0.0507881
0.0163311
-0.00376437
0.047576
0.0147142
0.0232963
-0.0416274
0.00250153
-0.0938526
-0.109288
-0.0849783
-0.10397
-0.151146
-0.126953
-0.118472
-0.214692
-0.185026
-0.143626
-0.0548957
-0.0382755
-0.125075
0.0449041
0.0454381
-0.0520085
-0.027625
-0.00035696
0.0290547
0.0319423
0.0162364
0.00985884
0.0173577
-0.0456081
-0.0511188
-0.0450353
-0.0511346
-0.0826451
-0.0699529
-0.0973181
-0.124426
-0.128688
0.178753
-0.00199988
-0.0169209
0.220998
-0.02296
-0.0515283
-3.87328e-05
0.158351
0.039391
0.10207
0.0975115
0.0526782
-0.0106068
-0.000127932
-0.00213991
-0.03333
-0.0310964
-0.0311885
-0.064051
-0.0396074
-0.0571211
-0.16028
-0.0929485
655.92
655.116
664.473
605.483
446.693
487.96
542.069
544.721
330.455
344.363
450.95
483.523
450.054
466.474
410.427
456.049
406.389
429.73
436.706
453.52
500.405
490.883
463.154
481.722
540.015
557.812
561.221
534.052
472.701
474.43
450.529
426.712
430.69
416.212
401.497
381.712
401.187
425.78
438.596
444.63
301.537
316.153
323.193
334.203
87.5115
96.015
105.017
115.959
19.7485
22.3079
27.1351
31.5453
8.25781
9.76201
12.0212
14.7227
2.8064
2.8288
3.06723
3.71131
0.523536
0.539908
0.626531
0.91946
-0.390116
-0.340431
-0.273275
-0.12855
-0.671303
-0.653627
-0.640727
-0.613043
-0.646556
-0.632812
-0.627338
-0.627501
-0.693386
-0.678954
-0.682512
-0.642202
-0.669031
-0.652426
-0.626042
-0.645169
-0.721418
-0.718251
-0.662639
-0.697652
-0.731617
-0.665639
-0.663641
-0.678316
-0.735619
-0.708315
-0.70518
-0.732104
-0.730981
-0.644877
-0.633863
-0.60842
-0.734743
-0.741746
-0.663248
-0.634866
-0.612407
-0.630319
-0.662407
-0.639454
-0.649853
-0.645058
-0.615747
-0.582962
-0.664477
-0.646718
-0.65633
-0.624299
-0.621544
-0.598247
-0.575339
-0.620858
-0.733279
-0.679938
-0.649018
-0.635766
-0.642615
-0.644099
-0.53792
-0.602166
-0.523382
-0.516435
-0.472276
-0.488809
-0.456512
-0.442035
-0.539201
-0.52012
-0.425648
-0.426818
-0.534911
-0.600498
-0.385889
-0.462463
-0.426954
-0.436465
-0.356024
-0.356342
-0.304273
-0.290028
-0.299962
-0.298126
-0.301889
-0.2887
-0.285636
-0.293652
-0.317081
-0.266836
-0.178148
-0.2454
-0.248933
-0.277636
-0.125972
-0.182311
-0.228381
-0.2526
-0.171894
-0.192245
-0.153815
-0.172777
568.767
517.915
400.576
393.623
465.791
623.103
650.851
609.405
649.853
626.191
692.581
761.909
756.566
755.841
732.243
646.78
604.181
657.141
837.656
453.461
452.542
445.455
468.557
545.347
626.989
516.245
448.821
393.294
436.712
498.149
591.376
683.099
711.7
784.604
786.396
646.007
733.764
921.848
452.205
479.786
541.85
533.595
505.118
491.103
381.857
295.67
319.85
316.615
321.763
369.945
572.811
740.405
882.115
801.83
720.785
712.38
751.569
466.68
522.257
573.019
509.366
408.51
367.685
253.209
194.703
193.405
231.201
247.558
336.433
558.205
703.455
830.818
730.222
807.471
913.944
883.438
480.591
534.6
523.298
360.986
291.206
264.65
205.822
186.81
161.19
187.518
269.18
423.928
503.51
611.353
712.99
713.597
789.455
974.03
1129.64
515.435
475.194
343.388
294.028
281.482
254.315
229.629
215.529
164.998
232.928
331.557
502.925
560.903
562.47
630.796
781.505
868.806
910.797
1126.35
463.441
324.206
289.001
304.929
307.613
220.544
254.431
227.998
358.13
359.421
382.5
413.344
479.196
512.515
576.9
620.42
744.479
1042.69
1000.37
388.443
234.66
269.619
327.132
300.131
298.135
327.154
296.955
344.048
375.496
309.528
350.042
410.331
480.124
506.637
514.331
723.241
1019.25
1118.2
349.823
285.022
266.808
204.055
275.372
410.287
406.236
394.536
385.43
386.223
372.126
372.127
409.297
434.014
421.919
442.275
557.19
694.834
941.614
443.965
327.315
309.892
303.27
272.902
394.596
463.448
486.732
507.387
492.499
451.031
430.921
399.93
306.653
289.426
315.485
325.347
472.81
660.154
357.085
364.973
304.359
360.149
339.92
352.352
352.736
370.368
470.143
410.569
345.752
287.758
230.732
193.777
184.456
200.377
229.111
327.296
373.293
143.016
208.408
255.293
300.138
297.205
274.955
233.938
226.087
239.717
210.907
188.94
145.41
140.094
130.574
116.686
154.576
186.365
198.587
212.098
43.5313
69.1643
105.48
120.159
122.806
123.007
106.751
106.282
110.537
102.303
83.4114
82.6325
75.1894
81.3531
71.5898
98.6362
131.074
150.513
163.954
20.2237
32.1091
43.8792
46.4616
49.4248
52.7818
45.5398
50.7687
59.4095
47.6519
38.7992
44.5647
36.237
36.7335
40.0634
53.1256
75.0868
119.428
166.104
5.83261
12.3879
18.3063
19.9327
21.6563
22.9049
20.8563
25.4815
26.3063
19.4319
16.916
19.9211
16.3058
14.4965
20.577
34.0153
69.0431
94.7418
133.386
2.1186
5.65783
8.772
10.3975
11.6395
10.0633
8.7765
8.73757
8.03807
6.17103
6.43674
7.60258
7.02268
4.04727
9.06476
21.8368
48.5324
71.356
117.602
0.357815
1.85516
3.43494
4.65959
6.89743
4.07764
3.38059
2.5924
2.05329
1.47805
1.90443
2.42334
2.23614
0.94862
3.51926
11.8227
33.5126
50.1791
108.097
-0.517888
-0.29608
0.370956
1.14121
3.82079
1.67692
1.37718
0.898306
0.539304
0.28716
0.27947
0.405319
0.494781
0.124652
0.298193
2.46958
12.2092
40.0383
99.3148
-0.665572
-0.552237
-0.613458
-0.28186
0.73695
0.0770205
0.12369
0.0575277
-0.120289
-0.242824
-0.181641
-0.228753
-0.250645
-0.172323
-0.19167
0.709864
8.08293
41.6769
91.5029
-0.665109
-0.686212
-0.601333
-0.57379
-0.522339
-0.572997
-0.481633
-0.202015
-0.345238
-0.354225
-0.351805
-0.239206
-0.386573
-0.223095
-0.179217
0.474783
8.12771
45.6441
84.4346
-0.654831
-0.686665
-0.534592
-0.586298
-0.59427
-0.637354
-0.677452
-0.464619
-0.368408
-0.395236
-0.372369
-0.388353
-0.382786
-0.378963
-0.220807
0.454209
9.70475
48.2315
72.9677
-0.673132
-0.567033
-0.497142
-0.582244
-0.558669
-0.640498
-0.575393
-0.47623
-0.460352
-0.400861
-0.412285
-0.348552
-0.335675
-0.30885
-0.284255
0.553458
11.3803
48.4504
61.0162
-0.643628
-0.592241
-0.506722
-0.510278
-0.528581
-0.619106
-0.566788
-0.480226
-0.453572
-0.445935
-0.451798
-0.413339
-0.448128
-0.293398
-0.289082
0.932978
12.8544
45.0296
52.0435
-0.674967
-0.516274
-0.475052
-0.478525
-0.47035
-0.583037
-0.538409
-0.386715
-0.449275
-0.353414
-0.435985
-0.382959
-0.437842
-0.417621
-0.420013
1.09096
12.89
36.4467
45.4659
-0.678495
-0.640305
-0.56465
-0.547771
-0.474486
-0.572849
-0.513678
-0.478006
-0.33927
-0.425635
-0.465167
-0.37521
-0.317922
-0.458537
-0.391642
0.956527
10.5454
29.233
40.0727
-0.587591
-0.541788
-0.491839
-0.509064
-0.433581
-0.505573
-0.453699
-0.44376
-0.414924
-0.397567
-0.356856
-0.408355
-0.338621
-0.529699
-0.378864
0.69629
8.13515
24.9493
35.7642
-0.6778
-0.472945
-0.487995
-0.412453
-0.528979
-0.535248
-0.386086
-0.349024
-0.402902
-0.379183
-0.363226
-0.350831
-0.335155
-0.360927
-0.418646
0.308078
6.42763
21.5079
31.897
-0.559667
-0.623085
-0.456967
-0.480847
-0.458109
-0.468057
-0.484347
-0.468986
-0.357397
-0.366525
-0.419127
-0.324334
-0.302696
-0.33588
-0.43625
0.226039
5.16115
18.1514
28.4921
-0.531669
-0.530996
-0.596482
-0.388912
-0.60808
-0.584529
-0.376846
-0.497643
-0.418251
-0.306096
-0.308986
-0.385822
-0.338558
-0.309959
-0.349261
0.109958
4.18832
15.3048
25.2908
-0.478922
-0.49504
-0.486099
-0.417846
-0.466843
-0.420824
-0.503321
-0.462027
-0.414471
-0.352931
-0.305436
-0.390351
-0.375168
-0.259314
-0.266432
0.0669666
3.58718
12.9787
22.5201
-0.461345
-0.457853
-0.455827
-0.510299
-0.285764
-0.377819
-0.409948
-0.497344
-0.434405
-0.292292
-0.344871
-0.365513
-0.368573
-0.247199
-0.306814
-0.0801557
2.9081
11.2026
20.1932
-0.625404
-0.440348
-0.472844
-0.496571
-0.439794
-0.429714
-0.406101
-0.419851
-0.426344
-0.379607
-0.254318
-0.329248
-0.293096
-0.321137
-0.251419
0.0535571
2.89196
9.55123
18.1763
-0.458233
-0.387562
-0.429511
-0.351084
-0.490178
-0.422972
-0.443996
-0.214284
-0.397974
-0.489915
-0.260102
-0.313031
-0.240592
-0.3961
-0.272048
0.122221
2.43403
7.65628
16.3328
-0.467307
-0.348967
-0.422576
-0.412041
-0.510038
-0.469669
-0.462104
-0.247686
-0.421233
-0.397736
-0.240548
-0.231304
-0.412079
-0.289297
-0.288765
0.0791067
1.67221
5.66619
14.7714
-0.516262
-0.30066
-0.417716
-0.369594
-0.553064
-0.542805
-0.554729
-0.311888
-0.350543
-0.384155
-0.285573
-0.289961
-0.225164
-0.43407
-0.338495
-0.0993969
0.484901
4.02422
13.5296
-0.500533
-0.459334
-0.354863
-0.517683
-0.337552
-0.462528
-0.496462
-0.215784
-0.296089
-0.435967
-0.284966
-0.269523
-0.296373
-0.258621
-0.466611
-0.105148
0.41114
3.47914
12.5356
-0.459199
-0.517557
-0.381729
-0.30582
-0.500241
-0.610334
-0.545946
-0.237533
-0.23228
-0.303038
-0.368171
-0.137019
-0.136686
-0.423131
-0.393177
-0.0577689
-0.0490164
1.76267
11.0615
-0.356113
-0.287574
-0.246507
-0.313604
-0.321281
-0.353656
-0.311894
-0.104269
-0.192954
-0.176734
-0.180526
-0.219492
-0.150427
-0.293094
-0.339389
-0.0967675
0.0549373
2.92003
14.0384
-0.246594
-0.276363
-0.297024
-0.15989
-0.332886
-0.0997592
-0.229796
-0.0860997
-0.0388859
-0.0177701
-0.0427109
-0.0682855
-0.160737
-0.191204
-0.213941
-0.15677
0.133509
2.91756
13.2828
-0.284289
-0.370694
-0.538399
-0.608411
-0.274395
-0.354691
0.013799
-0.0325437
0.0213927
0.063979
-0.0979719
-0.0670073
-0.0785449
-0.173891
-0.175313
-0.137504
-0.0109143
2.07906
9.60426
-0.275464
-0.304537
-0.481956
-0.475782
-0.408393
-0.250608
-0.0492126
-0.000946922
0.0218116
0.0176447
0.0129421
-0.0618092
-0.0892456
-0.0838031
-0.0362969
-0.110998
-0.0239561
0.600439
5.42315
-0.211345
-0.509749
-0.207358
-0.221637
-0.145022
-0.122466
-0.0428259
0.064027
-0.00858676
0.00562822
-0.0832706
-0.0964867
-0.047409
-0.065922
-0.0581027
-0.0727905
-0.100116
-0.279737
1.66091
)
;

boundaryField
{
    leftWall
    {
        type            zeroGradient;
    }
    rightWall
    {
        type            zeroGradient;
    }
    lowerWall
    {
        type            zeroGradient;
    }
    atmosphere
    {
        type            totalPressure;
        rho             rho;
        psi             none;
        gamma           1;
        p0              uniform 0;
        value           nonuniform List<scalar> 
46
(
0
0
0
0
0
0
0
0
0
0
0
0
0
0
0
-0.000650042
-0.000903617
-0.00201862
-0.0195304
-0.0212582
-0.0418978
-0.105128
-0.0787463
-0.117521
-0.151742
-0.160352
-0.164152
-0.208455
-0.380666
-0.327009
-0.287584
-0.233751
-0.181697
-0.0476979
0
-0.000952539
-0.0111251
-0.0267205
-0.0353627
-0.02914
-0.000311361
0
0
0
-0.00228818
0
)
;
    }
    defaultFaces
    {
        type            empty;
    }
}


// ************************************************************************* //
