/*--------------------------------*- C++ -*----------------------------------*\
| =========                 |                                                 |
| \\      /  F ield         | foam-extend: Open Source CFD                    |
|  \\    /   O peration     | Version:     4.1                                |
|   \\  /    A nd           | Web:         http://www.foam-extend.org         |
|    \\/     M anipulation  |                                                 |
\*---------------------------------------------------------------------------*/
FoamFile
{
    version     2.0;
    format      ascii;
    class       surfaceScalarField;
    location    "0.7";
    object      phi;
}
// * * * * * * * * * * * * * * * * * * * * * * * * * * * * * * * * * * * * * //

dimensions      [0 3 -1 0 0 0 0];

internalField   nonuniform List<scalar> 
4432
(
-3.80304e-06
3.80304e-06
-9.88641e-06
6.08337e-06
-1.37635e-05
3.87705e-06
-9.90882e-06
-3.85464e-06
-1.07376e-05
8.28812e-07
-1.08873e-05
1.49678e-07
-1.1205e-05
3.17701e-07
-1.09067e-05
-2.98334e-07
-1.10084e-05
1.01712e-07
-1.04887e-05
-5.19681e-07
-7.6251e-06
-2.86361e-06
-1.01846e-05
2.55955e-06
-8.76425e-06
-1.42039e-06
-7.75731e-06
-1.00694e-06
-6.45616e-06
-1.30115e-06
-5.81179e-06
-6.4436e-07
-5.26099e-06
-5.50802e-07
-2.8601e-06
-2.40089e-06
-4.03173e-06
1.17163e-06
-9.65722e-07
-3.066e-06
-9.90454e-08
-8.66675e-07
7.41804e-07
-8.40847e-07
7.41805e-07
-1.97014e-06
5.77319e-06
-5.20575e-06
9.31898e-06
-7.20167e-06
5.87297e-06
-9.69299e-06
-1.36332e-06
-1.06052e-05
1.74098e-06
-1.07921e-05
3.36592e-07
-1.10736e-05
5.99264e-07
-1.04902e-05
-8.81744e-07
-9.79148e-06
-5.97027e-07
-8.22475e-06
-2.0864e-06
-1.12789e-05
1.90501e-07
-8.83495e-06
1.15636e-07
-8.21293e-06
-2.0424e-06
-6.80337e-06
-2.4165e-06
-4.75015e-06
-3.35436e-06
-4.095e-06
-1.29951e-06
-1.50445e-06
-3.14135e-06
-2.84647e-06
-1.05887e-06
-1.21099e-06
-4.63842e-07
-9.11277e-07
-3.36571e-06
-3.75979e-07
-1.40197e-06
1.87734e-06
-3.09417e-06
2.61915e-06
-4.75887e-06
1.05321e-05
-5.58871e-06
1.01488e-05
-7.48411e-06
7.76837e-06
-9.79321e-06
9.45775e-07
-1.06035e-05
2.55127e-06
-1.06124e-05
3.45461e-07
-1.08205e-05
8.07441e-07
-1.0197e-05
-1.50533e-06
-1.01271e-05
-6.66833e-07
-9.23851e-06
-2.97503e-06
-1.30435e-05
3.99551e-06
-1.12452e-05
-1.68268e-06
-1.12262e-05
-2.06144e-06
-1.0334e-05
-3.30869e-06
-9.37912e-06
-4.3092e-06
-3.86014e-06
-6.81849e-06
-5.01969e-06
-1.9818e-06
-4.0528e-06
-2.02576e-06
-2.97261e-06
-1.54403e-06
-1.42167e-07
-6.19615e-06
3.98001e-07
-1.94214e-06
1.71806e-06
-4.41422e-06
4.3372e-06
-5.62883e-06
1.61609e-05
-5.99722e-06
1.05172e-05
-7.73752e-06
9.50868e-06
-9.72184e-06
2.93009e-06
-1.04366e-05
3.26607e-06
-1.08744e-05
7.8322e-07
-1.16203e-05
1.5534e-06
-1.09017e-05
-2.22401e-06
-9.94452e-06
-1.62397e-06
-1.74377e-05
4.51812e-06
-1.71794e-05
3.73721e-06
-1.8097e-05
-7.65061e-07
-1.84164e-05
-1.74199e-06
-1.67708e-05
-4.95429e-06
-1.49083e-05
-6.17169e-06
-1.29171e-05
-8.8097e-06
-1.04785e-05
-4.42042e-06
-9.06502e-06
-3.43925e-06
-7.4144e-06
-3.19464e-06
-2.16791e-06
-1.14426e-05
-1.56087e-06
-2.54917e-06
1.17068e-06
-7.14577e-06
5.50789e-06
-3.41256e-06
1.95735e-05
-6.26312e-06
1.33678e-05
-8.08741e-06
1.1333e-05
-9.89447e-06
4.73715e-06
-1.09545e-05
4.32614e-06
-1.1917e-05
1.74571e-06
-1.21258e-05
1.7622e-06
-2.09025e-05
6.55265e-06
-2.08341e-05
-1.69233e-06
-2.14568e-05
5.14079e-06
-2.25004e-05
4.78082e-06
-2.3378e-05
1.12563e-07
-2.29567e-05
-2.16327e-06
-2.26664e-05
-5.24459e-06
-2.17088e-05
-7.12926e-06
-1.91312e-05
-1.13873e-05
-1.68311e-05
-6.72049e-06
-1.62757e-05
-3.99466e-06
-1.38157e-05
-5.65466e-06
-8.23189e-06
-1.70265e-05
-1.45251e-06
-9.32855e-06
9.83015e-07
-9.5813e-06
6.4909e-06
-3.41534e-06
2.29888e-05
-6.8723e-06
1.68247e-05
-8.71124e-06
1.31719e-05
-1.03801e-05
6.40601e-06
-1.11874e-05
5.13348e-06
-1.17619e-05
2.32015e-06
-1.31206e-05
3.12098e-06
-1.38945e-05
7.32646e-06
-2.52242e-05
9.63739e-06
-2.59935e-05
5.91013e-06
-2.77357e-05
6.52296e-06
-2.8071e-05
4.47937e-07
-2.75869e-05
-2.64743e-06
-2.58359e-05
-6.99558e-06
-2.36858e-05
-9.27931e-06
-2.26198e-05
-1.24533e-05
-2.20093e-05
-7.33094e-06
-1.1156e-05
-1.4848e-05
-9.57635e-06
-7.23427e-06
-1.28026e-05
-1.38002e-05
-1.41599e-06
-2.07152e-05
3.97649e-06
-1.49738e-05
1.04674e-05
-4.23351e-06
2.72223e-05
-1.57092e-05
2.83004e-05
-2.07684e-05
1.82312e-05
-2.35923e-05
9.22985e-06
-2.57543e-05
7.29556e-06
-2.82411e-05
4.80692e-06
-3.06008e-05
5.48068e-06
-3.02845e-05
7.01012e-06
-3.01854e-05
9.53835e-06
-3.03598e-05
6.08452e-06
-3.0144e-05
6.30708e-06
-2.94161e-05
-2.79944e-07
-2.87693e-05
-3.29425e-06
-2.74939e-05
-8.27095e-06
-2.51491e-05
-1.16241e-05
-2.34064e-05
-1.41961e-05
-2.38486e-05
-6.88879e-06
-2.48412e-05
-1.38554e-05
-1.04867e-05
-2.15888e-05
-6.21274e-06
-1.80741e-05
-1.21054e-06
-2.57174e-05
7.0817e-06
-2.3266e-05
1.75491e-05
-4.86608e-06
3.20884e-05
-1.02771e-05
3.37114e-05
-2.34963e-05
3.14504e-05
-2.61458e-05
1.18794e-05
-2.92988e-05
1.04485e-05
-3.31169e-05
8.62503e-06
-3.60569e-05
8.42069e-06
-3.55284e-05
6.48161e-06
-3.40458e-05
8.05574e-06
-3.28835e-05
4.92222e-06
-3.2163e-05
5.58663e-06
-3.09003e-05
-1.54262e-06
-2.99713e-05
-4.22331e-06
-2.77136e-05
-1.05286e-05
-2.53837e-05
-1.39539e-05
-2.38936e-05
-1.56862e-05
-1.24935e-05
-1.82889e-05
-1.17316e-05
-1.46173e-05
-1.0277e-05
-2.30434e-05
-1.71562e-05
-1.11949e-05
1.41719e-06
-4.42908e-05
1.40352e-05
-3.5884e-05
3.15843e-05
-6.5626e-05
6.5626e-05
-0.000125261
5.9635e-05
-0.000140137
1.4876e-05
-0.000154117
1.39798e-05
-0.000146529
-7.58822e-06
-0.000144934
-1.59472e-06
-0.000143295
-1.63935e-06
-0.000145759
2.46444e-06
-0.000148884
3.12477e-06
-0.000155128
6.24384e-06
-0.000167025
1.18969e-05
-0.000172019
4.99428e-06
-0.000182035
1.00157e-05
-0.000174404
-7.63089e-06
-0.000113907
-6.04965e-05
-9.87527e-05
-1.51544e-05
-0.000140384
4.16315e-05
-8.20606e-05
-5.83236e-05
-8.20606e-05
-6.14357e-05
0.000127062
-0.000115191
0.00011339
-0.000121189
2.08738e-05
-0.000125997
1.87888e-05
-0.000102727
-3.08591e-05
-9.66888e-05
-7.63253e-06
-0.000102801
4.47279e-06
-0.000112603
1.2266e-05
-0.000124188
1.47106e-05
-0.000139814
2.18694e-05
-0.000169055
4.1138e-05
-0.000180457
1.63957e-05
-0.000116237
-5.42036e-05
-0.000111032
-1.28365e-05
-0.000119059
-5.24696e-05
-0.000106171
-2.80421e-05
-7.89738e-05
1.44343e-05
-7.75868e-05
-5.97106e-05
-0.000159647
-5.87848e-05
0.000185847
-0.000109028
0.000163633
-0.000111919
2.37649e-05
-6.59653e-05
-2.71651e-05
-8.01629e-05
-1.66614e-05
-5.46794e-05
-3.31161e-05
-4.04502e-05
-9.75639e-06
-3.33307e-05
5.14653e-06
-5.07327e-05
3.21126e-05
-8.81522e-05
5.92889e-05
-0.000121317
7.43032e-05
-0.000135783
3.08616e-05
-0.000159084
-3.09027e-05
-0.000104944
-6.69761e-05
-0.000111844
-4.55697e-05
-0.000100479
-3.94076e-05
-7.23645e-05
-1.36801e-05
-5.71082e-05
-7.49669e-05
-0.000216756
-4.79434e-05
0.00023379
-7.75324e-05
0.000193222
-7.53244e-05
2.15568e-05
-8.56136e-05
-1.68759e-05
-6.4646e-05
-3.7629e-05
-4.12742e-05
-5.64879e-05
-1.02599e-05
-4.07707e-05
-5.10677e-06
-6.58933e-09
-4.35351e-07
2.74412e-05
-2.54765e-05
8.433e-05
-3.62317e-05
8.50584e-05
-7.66045e-05
7.12344e-05
-9.54126e-05
-1.20947e-05
-0.000127108
-3.5281e-05
-9.21392e-05
-8.05381e-05
-0.000135118
3.57095e-06
-6.17974e-05
-8.70005e-05
-5.52982e-05
-8.14661e-05
-0.000272054
-3.84817e-05
0.000272272
-5.39354e-05
0.000208676
-5.70539e-05
2.46752e-05
-6.64788e-05
-7.45091e-06
-3.97405e-05
-6.43674e-05
-1.39717e-05
-8.22567e-05
9.49937e-06
-6.42417e-05
1.16504e-05
-2.15766e-06
2.07644e-05
1.83272e-05
3.81904e-05
6.6904e-05
2.50041e-05
9.82447e-05
-1.75491e-05
0.000113788
-5.63301e-05
2.66863e-05
-5.68241e-05
-3.47871e-05
-8.03379e-05
-5.70243e-05
-7.20952e-05
-4.67175e-06
-5.83636e-05
-0.000100732
-2.77024e-05
-0.000112127
-0.000299756
-3.0269e-05
0.000302541
-4.19936e-05
0.000220401
-5.45756e-05
3.72572e-05
-6.26501e-05
6.23617e-07
-1.91879e-05
-0.00010783
5.68933e-06
-0.000107134
2.60334e-05
-8.45857e-05
2.52765e-05
-1.40075e-06
3.14287e-05
1.2175e-05
5.45047e-05
4.38281e-05
2.6908e-05
0.000125841
1.84881e-05
0.000122208
-5.67671e-06
5.08511e-05
-6.17168e-05
2.12531e-05
-5.79504e-05
-6.07908e-05
-5.31256e-05
-9.49656e-06
-4.22975e-05
-0.00011156
-1.61826e-05
-0.000138242
-0.000315939
-2.40548e-05
0.000326595
-2.31733e-05
0.000219519
-3.01739e-05
4.42578e-05
-1.87664e-05
-1.07839e-05
-6.94582e-07
-0.000125901
2.03225e-05
-0.000128151
1.96262e-05
-8.38895e-05
3.52973e-05
-1.70718e-05
3.64625e-05
1.10098e-05
5.82455e-05
2.20451e-05
7.10461e-05
0.000113041
6.80209e-05
0.000125233
5.90628e-05
5.98092e-05
2.26945e-05
5.76214e-05
-1.54298e-05
-2.26664e-05
-2.72649e-05
2.33852e-06
-5.38176e-05
-8.50075e-05
-1.0608e-05
-0.000181452
-0.000326547
-1.80442e-05
0.00034464
-4.52238e-06
0.000205997
-4.31578e-06
4.40512e-05
8.413e-07
-1.5941e-05
1.26577e-05
-0.000137718
1.88631e-05
-0.000134356
2.40617e-05
-8.9088e-05
4.16352e-05
-3.46453e-05
4.50387e-05
7.60623e-06
3.71928e-05
2.9891e-05
4.73294e-05
0.000102904
7.98901e-05
9.2672e-05
8.19833e-05
5.77161e-05
6.37245e-05
7.58802e-05
1.02774e-05
3.07807e-05
-9.74013e-06
2.2356e-05
-6.93155e-06
-8.78161e-05
-1.65325e-06
-0.00018673
-0.0003282
-1.554e-05
4.76284e-05
-3.02683e-05
4.84397e-05
-4.00228e-05
4.12048e-05
-6.84101e-05
4.02668e-05
-7.20417e-05
1.40801e-05
-7.95362e-05
1.61194e-05
-8.36528e-05
1.25373e-05
-8.11636e-05
3.99242e-06
-7.81399e-05
5.03204e-06
-7.28565e-05
-3.61147e-07
-6.76142e-05
3.44299e-07
-6.18998e-05
-7.25701e-06
-5.85048e-05
-7.61837e-06
-5.82782e-05
-1.07552e-05
-5.42316e-05
-1.80006e-05
-4.98649e-05
-2.00529e-05
-5.14831e-05
-1.66707e-05
-4.26981e-05
-2.34023e-05
-4.21211e-05
-2.36204e-05
-1.78822e-05
-3.54337e-05
1.31764e-06
-6.34907e-05
2.47583e-05
-5.93247e-05
-1.55608e-05
7.19033e-05
-2.78379e-05
7.54663e-05
-5.07882e-05
7.13899e-05
-4.76809e-05
3.80975e-05
-4.2434e-05
3.50199e-05
-8.40509e-05
5.5697e-05
-8.94273e-05
2.14959e-05
-8.94256e-05
1.25356e-05
-8.01357e-05
-5.29744e-06
-7.44482e-05
-6.55482e-07
-6.8799e-05
-6.01034e-06
-6.65191e-05
-1.93563e-06
-6.15708e-05
-1.22053e-05
-5.40899e-05
-1.50992e-05
-4.85879e-05
-1.62572e-05
-4.97115e-05
-1.6877e-05
-5.02056e-05
-1.95587e-05
-4.34214e-05
-2.34549e-05
-4.94306e-05
-1.73931e-05
-2.03197e-05
-5.27313e-05
-2.12592e-05
-3.44942e-05
1.31343e-06
-8.60634e-05
3.66334e-05
-9.46446e-05
-2.23561e-05
4.34288e-05
-3.1505e-05
0.000106971
-5.27666e-05
9.26516e-05
-9.63054e-05
8.16363e-05
-0.00010459
4.33048e-05
-6.31246e-05
1.42312e-05
-5.7364e-05
1.57353e-05
-5.17594e-05
6.93106e-06
-6.6448e-05
9.39109e-06
-6.5316e-05
-1.78749e-06
-6.68844e-05
-4.44188e-06
-4.61117e-05
-2.27084e-05
-6.27507e-05
4.43362e-06
-5.58326e-05
-2.20173e-05
-6.12067e-05
-1.08831e-05
-6.78084e-05
-1.02753e-05
-7.20781e-05
-1.5289e-05
-7.88987e-05
-1.66342e-05
-5.37047e-05
-4.25871e-05
-8.26841e-05
-2.3752e-05
-3.95396e-05
-7.76387e-05
-3.17506e-05
-9.38524e-05
-3.94126e-05
-8.69826e-05
4.17279e-05
-0.000103497
-5.73732e-05
0.000164344
-9.30765e-05
0.000128355
-9.51314e-05
8.36911e-05
-9.45279e-05
4.27013e-05
-7.71414e-05
-3.15526e-06
-7.06112e-05
9.20509e-06
-6.78962e-05
4.21604e-06
-9.54495e-05
3.69444e-05
-9.7014e-05
-2.23012e-07
-9.53828e-05
-6.07305e-06
-0.000100689
-1.74022e-05
-6.78548e-05
-2.84006e-05
-8.21046e-05
-7.76751e-06
-7.72341e-05
-1.57536e-05
-8.5365e-05
-2.14443e-06
-9.40131e-05
-6.64098e-06
-0.00010368
-6.96694e-06
-0.000122302
-2.39658e-05
-0.000135376
-1.06779e-05
-0.000167996
-4.50187e-05
-0.000179084
-8.27638e-05
-0.000222095
-4.39719e-05
7.43143e-05
-0.000254681
-6.00038e-05
0.000224348
-7.59207e-05
0.000144272
-3.72974e-05
4.50678e-05
-3.998e-05
4.53839e-05
-6.09624e-05
1.78271e-05
-0.000111428
5.96711e-05
-0.000127648
2.04362e-05
-0.000119539
2.88344e-05
-0.000131041
1.12795e-05
-0.00014189
4.7757e-06
-0.000140501
-1.87912e-05
-0.000141492
-2.74094e-05
-0.00013401
-1.52494e-05
-0.00013544
-1.43233e-05
-0.000103428
-3.41567e-05
-8.63014e-05
-2.37676e-05
-7.31022e-05
-2.01661e-05
-8.97517e-05
-7.31632e-06
-0.000119217
1.87874e-05
-0.000129801
-3.44343e-05
-0.000149675
-6.28902e-05
-0.000219237
2.55903e-05
9.6489e-05
-0.000241412
-3.47279e-05
0.000259076
-1.78942e-05
0.000127438
-1.33048e-05
4.04784e-05
-1.33038e-05
4.53829e-05
-4.06032e-05
4.51265e-05
-4.58672e-05
6.49351e-05
-0.000103508
7.80773e-05
-0.00014774
7.30662e-05
-0.000202541
6.60799e-05
-0.000254073
5.63078e-05
-0.000296823
2.39592e-05
-0.000320542
-3.69095e-06
-0.000318177
-1.76143e-05
-0.000304986
-2.75138e-05
-0.000305881
-3.32615e-05
-0.000269982
-5.96665e-05
-0.000245773
-4.43755e-05
-0.00023055
-2.25399e-05
-0.000163816
-4.79465e-05
-0.000176024
-2.22259e-05
-0.000250668
1.17542e-05
-0.000249897
2.48192e-05
6.03081e-05
-0.000213717
-6.68679e-05
0.000325944
-7.29869e-05
0.000133557
-0.000209507
0.000176999
-0.000311765
0.000147641
-0.000366265
9.96262e-05
-0.00040028
9.89502e-05
-0.0004166
9.43969e-05
-0.00043442
9.08867e-05
-0.000448671
8.03312e-05
-0.000447702
5.53386e-05
-0.000439266
1.55229e-05
-0.000430834
-1.21224e-05
-0.000410767
-3.76815e-05
-0.000387688
-5.05935e-05
-0.000372553
-4.83958e-05
-0.000358621
-7.35992e-05
-0.000366006
-3.69899e-05
-0.000350969
-3.75773e-05
-0.000337154
-6.17617e-05
-0.000320929
-3.84504e-05
-0.000305554
-3.62126e-06
-0.000269011
-1.17236e-05
-3.50179e-06
-0.000205201
-0.000121395
0.000447339
-0.00020889
0.000221051
-0.000283249
0.000251358
-0.000324949
0.000189341
-0.000340029
0.000114706
-0.000371558
0.000130479
-0.000402037
0.000124877
-0.00040804
9.68893e-05
-0.000399797
7.20879e-05
-0.000385861
4.14032e-05
-0.000372718
2.37991e-06
-0.000368433
-1.64075e-05
-0.000367524
-3.85907e-05
-0.000348849
-6.92684e-05
-0.000348669
-4.85763e-05
-0.000329487
-9.27805e-05
-0.000250548
-0.000115929
-0.000226046
-6.20794e-05
-0.000251127
-3.66809e-05
-0.000294216
4.63825e-06
-0.000300149
2.31256e-06
-0.000302522
-9.35065e-06
-5.01474e-05
-0.000255877
-9.76077e-05
0.000544947
-0.000178057
0.000301501
-0.000236509
0.000309811
-0.000301511
0.000254343
-0.000303827
0.000117022
-0.000329918
0.00015657
-0.000311148
0.000106106
-0.000266367
5.21083e-05
-0.000229329
3.50505e-05
-0.000188172
2.4536e-07
-0.000153551
-3.2241e-05
-0.000139329
-3.06295e-05
-0.000143759
-3.41602e-05
-0.000190275
-2.27529e-05
-0.00022773
-1.11209e-05
-0.000275728
-4.47822e-05
-0.000342908
-4.87497e-05
-0.000357424
-4.75631e-05
-0.000359631
-3.4474e-05
-0.000328848
-2.61449e-05
-0.000251277
-7.52585e-05
-0.000226902
-3.37256e-05
-1.21159e-05
-0.000264934
-0.000101749
0.000646696
-0.0001661
0.000365852
-0.000230123
0.000373833
-0.000256524
0.000280744
-0.000263282
0.00012378
-0.000242275
0.000135563
-0.000182797
4.6628e-05
-0.000135046
4.35755e-06
-8.89403e-05
-1.10556e-05
-5.5941e-05
-3.2754e-05
-5.0636e-05
-3.7546e-05
-6.91184e-05
-1.21472e-05
-0.000104153
8.74364e-07
-0.000130317
3.4109e-06
-0.000147546
6.10818e-06
-0.000176084
-1.62441e-05
-0.000215108
-9.72556e-06
-0.000256903
-5.76855e-06
-0.000278888
-1.2488e-05
-0.000279168
-2.58648e-05
-0.000316804
-3.76232e-05
-0.000328808
-2.17209e-05
-3.18147e-05
-0.00030911
-4.13869e-05
0.000688083
-0.000112472
0.000436936
-9.25791e-05
0.000353941
-0.000100472
0.000288637
-0.000224735
0.000248042
-0.000197337
0.000108166
-0.000142531
-8.17807e-06
-8.59742e-05
-5.21989e-05
-6.18019e-05
-3.52278e-05
-4.86651e-05
-4.58909e-05
-8.6913e-05
7.01881e-07
-0.000126545
2.74849e-05
-0.000164224
3.85532e-05
-0.000197601
3.67883e-05
-0.000215052
2.3559e-05
-0.000237325
6.02876e-06
-0.000258636
1.15851e-05
-0.00027447
1.00654e-05
-0.000286681
-2.76729e-07
-0.000283136
-2.94095e-05
-0.000284878
-3.5881e-05
-0.00029122
-1.53791e-05
-1.47147e-05
-0.00030832
-2.20319e-05
0.000710115
-0.000124259
0.000539163
-0.000125521
0.000355203
-0.000149767
0.000312884
-0.000108033
0.000206308
-7.35678e-05
7.37006e-05
-5.27092e-05
-2.90367e-05
-6.91569e-05
-3.57511e-05
-7.90518e-05
-2.53328e-05
-0.000124955
1.22384e-08
-0.000163227
3.89741e-05
-0.0001774
4.1658e-05
-0.000178427
3.95801e-05
-0.000190525
4.88866e-05
-0.000195978
2.90124e-05
-0.000208022
1.80727e-05
-0.000224533
2.80963e-05
-0.000223399
8.93128e-06
-0.000215223
-8.4529e-06
-0.000215035
-2.95977e-05
-0.000211683
-3.92333e-05
-0.000185159
-4.19027e-05
-4.64479e-05
-0.000153426
-2.89011e-05
0.000739016
-4.81712e-05
0.000558433
-7.13787e-05
0.00037841
-0.000101782
0.000343287
-0.000112648
0.000217174
-8.12331e-05
4.22854e-05
-8.65117e-05
-2.37581e-05
-9.90192e-05
-2.32437e-05
-0.000113878
-1.04745e-05
-0.000170138
5.6272e-05
-0.000194038
6.2874e-05
-0.000204649
5.22693e-05
-0.000204372
3.93035e-05
-0.000181789
2.63034e-05
-0.000173658
2.08818e-05
-0.000160457
4.87133e-06
-0.000112043
-2.03181e-05
-9.45433e-05
-8.56799e-06
-8.75034e-05
-1.54928e-05
-8.64415e-05
-3.06596e-05
-8.21345e-05
-4.35403e-05
-7.51868e-05
-4.88504e-05
-5.98171e-05
-6.18176e-05
-2.19639e-05
0.00076098
-1.16551e-05
0.000548125
-5.14183e-05
0.000418174
-6.60813e-05
0.00035795
-7.48316e-05
0.000225924
-7.80763e-05
4.55301e-05
-8.67219e-05
-1.51125e-05
-8.37661e-05
-2.61994e-05
-0.00012687
3.26296e-05
-0.000150756
8.01579e-05
-0.000174499
8.66172e-05
-0.000192472
7.02425e-05
-0.00021194
5.87709e-05
-0.000229026
4.33892e-05
-0.000229151
2.10069e-05
-0.000218677
-5.60186e-06
-0.000225172
-1.38231e-05
-0.000221824
-1.19167e-05
-0.000200242
-3.70747e-05
-0.000175204
-5.56976e-05
-0.000159112
-5.96326e-05
-0.000159696
-4.82659e-05
-4.19132e-05
-0.0001776
-2.11097e-05
0.00078209
-6.63085e-06
0.000533646
-3.74339e-05
0.000448977
-7.17609e-05
0.000392277
-5.32993e-05
0.000207463
-4.63016e-05
3.85325e-05
-7.11102e-05
9.6962e-06
-0.000105344
8.03418e-06
-0.000118751
4.60368e-05
-8.53916e-05
4.67989e-05
-5.46469e-05
5.58727e-05
-4.73412e-05
6.2937e-05
-3.47555e-05
4.61852e-05
-1.84208e-05
2.70545e-05
-3.61318e-06
6.19926e-06
-4.87845e-06
-4.3366e-06
-3.74218e-06
-1.49594e-05
-4.39738e-06
-1.12615e-05
-9.13608e-06
-3.2336e-05
-1.64995e-05
-4.83342e-05
-2.32963e-05
-5.28358e-05
-3.36037e-05
-3.79585e-05
-3.22491e-05
-4.32677e-05
-1.37139e-05
0.000795804
-9.11655e-06
0.000529048
-2.95995e-05
0.00046946
-2.92709e-05
0.000391949
-2.69681e-05
0.00020516
-4.56142e-05
5.71786e-05
-8.06001e-05
4.46821e-05
-0.000106375
3.38094e-05
-9.18956e-05
3.1557e-05
-0.000105217
6.01206e-05
-8.56248e-05
3.62804e-05
-5.01962e-05
2.75085e-05
-2.23614e-05
1.83504e-05
-7.66425e-06
1.23573e-05
5.21021e-06
-6.67525e-06
9.10233e-06
-8.22875e-06
8.25421e-06
-1.41113e-05
1.26427e-05
-1.565e-05
7.68626e-06
-2.73796e-05
-3.46291e-06
-3.71851e-05
-1.51711e-06
-5.47816e-05
-6.57246e-06
-3.29031e-05
-2.86874e-05
-1.01342e-05
-1.20847e-05
0.000807888
-1.77262e-05
0.00053469
-8.2728e-05
0.000534461
1.36718e-05
0.000295549
8.29035e-06
0.000210541
-4.60034e-05
0.000111472
-7.34456e-05
7.21242e-05
-0.000103031
6.33949e-05
-8.946e-05
1.79857e-05
-5.96347e-05
3.02952e-05
-4.66293e-05
2.3275e-05
-4.65365e-05
2.74156e-05
-2.7405e-05
-7.81267e-07
-7.60496e-06
-7.44293e-06
-8.06576e-06
-6.21456e-06
-2.82772e-06
-1.34668e-05
-3.66624e-06
-1.32728e-05
-7.76613e-07
-1.85396e-05
1.20592e-05
-4.02154e-05
5.00098e-06
-3.01269e-05
3.71277e-06
-5.34934e-05
1.40091e-06
-3.05913e-05
-2.83285e-05
1.04196e-06
-1.15999e-05
0.000819488
-2.26578e-05
0.000545748
-2.8575e-05
0.000540379
-1.68703e-05
0.000283844
-3.2803e-06
0.000196951
-4.72606e-05
0.000155452
-7.3171e-05
9.80345e-05
-7.49999e-05
6.5224e-05
-8.76483e-05
3.06343e-05
-9.06586e-05
3.33057e-05
-8.09073e-05
1.35236e-05
-4.7829e-05
-5.66269e-06
-3.97387e-05
-8.87167e-06
-2.18951e-05
-2.52867e-05
-5.13595e-06
-2.29738e-05
-4.59787e-06
-1.4005e-05
5.03481e-06
-2.29055e-05
8.74389e-06
-2.22486e-05
5.82333e-06
-3.72948e-05
8.07257e-06
-3.23762e-05
7.28948e-06
-5.27103e-05
2.60086e-05
-4.93104e-05
-3.12464e-05
2.89265e-05
-1.20597e-06
0.000820694
-3.5067e-05
0.000579609
-1.74898e-05
0.000522801
-0.000106193
0.000372547
-5.74985e-05
0.000148257
-6.21003e-05
0.000160054
-0.000119845
0.00015578
-9.73185e-05
4.26971e-05
-8.93406e-05
2.26565e-05
-7.13168e-05
1.5282e-05
-6.14787e-05
3.6855e-06
-5.79909e-05
-9.15046e-06
-2.80187e-05
-3.88438e-05
-1.21379e-05
-4.11677e-05
-1.13488e-05
-2.3763e-05
2.43941e-06
-2.77932e-05
1.35841e-05
-3.40501e-05
9.14665e-06
-1.7811e-05
1.4622e-05
-4.27701e-05
1.92473e-05
-3.70015e-05
1.64125e-05
-4.98755e-05
1.692e-05
-4.98178e-05
-4.7779e-05
3.34526e-05
-6.42692e-06
0.000827121
-6.27712e-05
0.000635953
1.62907e-06
0.000458401
-4.99374e-05
0.000424114
-9.17634e-05
0.000190082
-9.52e-05
0.000163491
-0.000116308
0.000176887
-0.000135865
6.22538e-05
-0.000133997
2.07885e-05
-0.000121965
3.24978e-06
-9.51336e-05
-2.31458e-05
-6.14427e-05
-4.28413e-05
-6.80281e-05
-3.22585e-05
-3.13883e-05
-7.78075e-05
1.77942e-06
-5.69307e-05
1.3601e-05
-3.96148e-05
2.28876e-05
-4.33366e-05
3.11047e-05
-2.6028e-05
3.76395e-05
-4.93048e-05
3.05742e-05
-2.99361e-05
3.35269e-05
-5.28282e-05
3.95058e-05
-5.57967e-05
-6.02599e-05
5.19867e-05
3.36364e-06
0.000823757
-1.83947e-05
0.000657712
-2.55682e-05
0.000465575
-2.95539e-05
0.0004281
-9.25721e-05
0.000253101
-6.5176e-05
0.000136095
-9.1832e-05
0.000203543
-0.000110584
8.10053e-05
-0.000135129
4.53335e-05
-0.000140464
8.5851e-06
-8.34403e-05
-8.01696e-05
-8.57289e-05
-4.05526e-05
-2.79378e-05
-9.00496e-05
-1.11907e-05
-9.45546e-05
-2.37256e-06
-6.57489e-05
1.2373e-05
-5.43603e-05
2.22119e-05
-5.31754e-05
4.16923e-05
-4.55083e-05
2.26862e-05
-3.02986e-05
5.11188e-05
-5.83687e-05
3.92553e-05
-4.09646e-05
2.01983e-05
-3.67396e-05
-6.94136e-05
2.9352e-05
1.081e-05
0.000812947
1.1465e-05
0.000657057
-8.68923e-05
0.000563932
-6.25657e-05
0.000403773
-6.52373e-05
0.000255773
-5.2102e-05
0.00012296
-6.56323e-05
0.000217074
-0.000127708
0.000143081
-0.000102454
2.0079e-05
-0.000101819
7.95076e-06
-0.000107734
-7.42544e-05
-4.25261e-05
-0.000105761
-2.47465e-05
-0.000107829
-6.54328e-06
-0.000112758
1.44498e-05
-8.67419e-05
1.06406e-05
-5.05512e-05
2.14124e-05
-6.39472e-05
3.04914e-05
-5.45873e-05
3.36657e-05
-3.34728e-05
3.65969e-05
-6.13e-05
5.33283e-05
-5.7696e-05
7.26371e-05
-5.60484e-05
-7.43853e-05
7.76089e-05
1.00437e-05
0.000802904
4.32813e-05
0.000623819
-2.59187e-05
0.000633132
-8.06555e-05
0.00045851
-7.61358e-05
0.000251253
-4.54339e-05
9.22575e-05
-4.32671e-05
0.000214907
-6.81245e-05
0.000167939
-0.000112318
6.42729e-05
-8.68565e-05
-1.75113e-05
-7.84988e-05
-8.26121e-05
-4.64966e-05
-0.000137763
-1.87778e-05
-0.000135548
-4.32336e-06
-0.000127212
1.06462e-05
-0.000101711
1.45663e-05
-5.44712e-05
2.18955e-05
-7.12764e-05
2.41488e-05
-5.68407e-05
5.4983e-05
-6.4307e-05
6.08637e-05
-6.71806e-05
6.10408e-05
-5.78731e-05
6.09516e-05
-5.59593e-05
-6.32823e-05
4.98486e-05
-2.15869e-05
0.000824491
6.13846e-05
0.000540847
0.00010112
0.000593396
2.08608e-05
0.000538769
7.98523e-06
0.000264128
1.29414e-05
8.73014e-05
8.33753e-06
0.000219511
-8.81393e-06
0.00018509
-5.27059e-05
0.000108165
-6.05463e-05
-9.67071e-06
-3.49699e-05
-0.000108188
-1.63626e-05
-0.00015637
-5.78241e-06
-0.000146128
7.80985e-07
-0.000133776
1.6215e-05
-0.000117145
5.32023e-05
-9.14586e-05
6.40373e-05
-8.21114e-05
4.85702e-05
-4.13736e-05
5.45787e-05
-7.03155e-05
6.6339e-05
-7.8941e-05
7.24227e-05
-6.39567e-05
7.8974e-05
-6.25106e-05
-3.90915e-05
5.47832e-05
9.26214e-06
0.000815229
3.30435e-05
0.000517066
0.000157334
0.000469107
0.000124407
0.000571695
9.47454e-05
0.00029379
4.56998e-05
0.000136347
0.000106264
0.000158946
0.000133174
0.00015818
7.14207e-05
0.000169919
2.54005e-05
3.63496e-05
7.12376e-06
-8.99116e-05
2.18094e-06
-0.000151427
3.48224e-06
-0.00014743
8.913e-06
-0.000139206
2.37956e-05
-0.000132028
2.72816e-05
-9.49446e-05
3.28944e-05
-8.77242e-05
5.93331e-05
-6.78123e-05
6.61667e-05
-7.71491e-05
3.83001e-05
-5.10744e-05
4.04214e-05
-6.6078e-05
4.40368e-05
-6.61261e-05
-5.992e-05
6.48652e-05
1.57781e-05
0.000799451
5.18107e-05
0.000481034
8.44603e-05
0.000436457
9.71132e-05
0.000559042
0.000188534
0.000202369
0.000171179
0.000153702
0.000138036
0.000192089
9.85792e-05
0.000197637
8.35657e-05
0.000184932
4.17491e-05
7.81663e-05
2.07132e-05
-6.88756e-05
1.29393e-05
-0.000143653
1.08855e-05
-0.000145376
2.17248e-05
-0.000150046
3.59209e-05
-0.000146224
3.34357e-05
-9.24594e-05
4.01124e-05
-9.4401e-05
2.67172e-05
-5.44172e-05
3.50177e-05
-8.54496e-05
6.45124e-05
-8.05691e-05
5.7251e-05
-5.88166e-05
4.75396e-05
-5.64146e-05
-7.13634e-05
5.89829e-05
2.02814e-05
0.000779169
9.53845e-05
0.00040593
0.000104404
0.000427437
0.000273654
0.000389793
0.000245243
0.00023078
0.000211605
0.000187341
0.000176304
0.00022739
4.44103e-05
0.000329531
5.4386e-05
0.000174957
4.69282e-05
8.56243e-05
3.74958e-05
-5.94431e-05
4.51942e-05
-0.000151352
4.84746e-06
-0.000105029
2.96631e-05
-0.000174861
2.63601e-05
-0.000142921
3.28318e-05
-9.89311e-05
3.8371e-05
-9.99402e-05
7.77189e-05
-9.37651e-05
8.18479e-05
-8.95786e-05
5.21674e-05
-5.08885e-05
5.65012e-05
-6.31504e-05
5.52349e-05
-5.51484e-05
-6.93624e-05
5.32339e-05
0.000123989
0.00065518
0.000150053
0.000379866
0.000194908
0.000382583
0.000241898
0.000342803
0.000228318
0.00024436
0.000175355
0.000240304
0.000134805
0.00026794
9.30302e-05
0.000371306
9.8534e-05
0.000169453
0.000100318
8.38406e-05
7.40869e-05
-3.32123e-05
6.93734e-05
-0.000146638
7.12212e-05
-0.000106877
8.36078e-05
-0.000187248
9.00503e-05
-0.000149364
6.89521e-05
-7.78328e-05
7.33978e-05
-0.000104386
6.0945e-05
-8.13123e-05
6.12155e-05
-8.9849e-05
8.48908e-05
-7.45637e-05
7.06474e-05
-4.89071e-05
7.57578e-05
-6.02588e-05
-4.97695e-05
5.61649e-05
0.000209243
0.000445937
0.000196727
0.000392382
0.000209817
0.000369493
0.000222532
0.000330087
0.000189945
0.000276947
0.000152608
0.00027764
0.000138948
0.0002816
0.000143652
0.000366602
0.000116845
0.000196259
0.000108304
9.23823e-05
0.000112158
-3.7066e-05
0.000115383
-0.000149864
0.000112452
-0.000103945
9.96264e-05
-0.000174423
8.93855e-05
-0.000139122
8.17887e-05
-7.0236e-05
7.62367e-05
-9.88338e-05
8.21157e-05
-8.71911e-05
7.54679e-05
-8.32011e-05
6.95609e-05
-6.86566e-05
5.56556e-05
-3.50019e-05
7.33952e-05
-7.79984e-05
-4.67309e-05
7.03564e-05
0.000106597
0.000339339
0.000148383
0.000350597
0.000166339
0.000351537
0.000165157
0.000331269
0.000143899
0.000298206
0.000129657
0.000291882
0.000116556
0.000294702
0.000220898
0.00026226
0.000141162
0.000275995
0.000135712
9.78321e-05
0.000150214
-5.15683e-05
0.000141989
-0.000141638
0.000136018
-9.7974e-05
0.000139488
-0.000177893
0.000130814
-0.000130448
0.00012022
-5.9642e-05
8.38394e-05
-6.2453e-05
8.07059e-05
-8.40575e-05
8.38991e-05
-8.63943e-05
8.21808e-05
-6.69383e-05
0.000104684
-5.75048e-05
6.95816e-05
-4.28963e-05
-5.02616e-05
7.31122e-05
6.51049e-05
0.000274234
8.01797e-05
0.000335522
9.31073e-05
0.000338609
0.000105865
0.000318511
0.000118099
0.000285972
0.000125873
0.000284108
0.000145171
0.000275403
0.00017416
0.000233271
0.000192185
0.00025797
0.000208695
8.13219e-05
0.000204011
-4.68837e-05
0.000178989
-0.000116616
0.000161276
-8.02612e-05
9.9585e-05
-0.000116202
7.36759e-05
-0.000104539
6.07331e-05
-4.66991e-05
9.83611e-05
-0.000100081
9.75098e-05
-8.32062e-05
5.97474e-05
-4.86319e-05
4.24387e-05
-4.96295e-05
4.78785e-05
-6.29446e-05
8.35213e-05
-7.85391e-05
-6.12473e-05
9.4507e-05
2.98388e-05
0.000244396
3.66771e-05
0.000328684
4.49965e-05
0.00033029
5.01672e-05
0.00031334
6.74878e-05
0.000268652
9.75654e-05
0.00025403
0.000127796
0.000245173
0.00015155
0.000209517
0.000229163
0.000180358
0.000257784
5.27001e-05
0.000245374
-3.44738e-05
0.000190102
-6.13435e-05
0.000174543
-6.47024e-05
0.000106341
-4.8e-05
8.51034e-05
-8.33012e-05
0.000122321
-8.3917e-05
0.000103582
-8.13411e-05
5.70487e-05
-3.6673e-05
7.20459e-05
-6.3629e-05
0.000111935
-8.95187e-05
9.52795e-05
-4.6289e-05
6.13409e-05
-4.46006e-05
-8.3431e-05
8.35246e-05
1.73443e-05
0.000227051
3.41319e-05
0.000311896
3.74357e-05
0.000326986
3.53908e-05
0.000315385
3.87772e-05
0.000265265
7.20548e-05
0.000220753
0.00011858
0.000198647
0.000166221
0.000161877
0.000234729
0.00011185
0.000246368
4.10603e-05
0.000216269
-4.37468e-06
0.000189136
-3.42101e-05
0.000197553
-7.31198e-05
0.000190874
-4.13214e-05
0.00015164
-4.40669e-05
0.000117167
-4.94438e-05
6.71084e-05
-3.12826e-05
9.78796e-05
-6.74442e-05
9.81763e-05
-6.39257e-05
5.272e-05
-4.40624e-05
9.07278e-05
-8.42967e-05
0.00011092
-6.47933e-05
-8.408e-05
0.000111569
1.66097e-05
0.000210442
4.13167e-05
0.000287189
5.26084e-05
0.000315694
5.97511e-05
0.000308242
7.12214e-05
0.000253795
0.000100818
0.000191156
0.0001448
0.000154666
0.000189739
0.000116938
0.000227272
7.43169e-05
0.000233045
3.52877e-05
0.000203197
2.54728e-05
0.000178796
-9.80943e-06
0.000124249
-1.85727e-05
9.63822e-05
-1.34544e-05
6.97762e-05
-1.74608e-05
7.35017e-05
-5.31692e-05
0.000109952
-6.77326e-05
8.63266e-05
-4.3819e-05
8.64692e-05
-6.40683e-05
0.000108087
-6.56806e-05
0.00010423
-8.04394e-05
0.000102914
-6.3477e-05
-8.84674e-05
0.000107301
1.55259e-05
0.000194916
5.08744e-05
0.000251841
8.15086e-05
0.00028506
0.000106191
0.00028356
0.000126829
0.000233157
0.000148127
0.000169857
0.000175863
0.00012693
0.000201199
9.16014e-05
0.00021079
6.47262e-05
0.000203664
4.2413e-05
0.000185152
4.39848e-05
0.000174512
8.30496e-07
0.000124922
3.10178e-05
0.00010461
6.85738e-06
0.000136905
-4.97562e-05
0.000115365
-3.16284e-05
0.000111086
-6.34545e-05
0.000105434
-3.81668e-05
9.31416e-05
-5.17756e-05
6.10514e-05
-3.35904e-05
6.03933e-05
-7.97814e-05
4.70878e-05
-5.01716e-05
-9.84662e-05
5.70865e-05
1.27716e-05
0.000182144
4.66791e-05
0.000217933
8.42581e-05
0.000247481
0.000118182
0.000249636
0.000147191
0.000204148
0.000169707
0.000147341
0.000184667
0.00011197
0.000196141
8.01273e-05
0.00019723
6.36372e-05
0.000163733
7.59102e-05
0.000146829
6.08881e-05
0.00011195
3.57095e-05
0.000119883
2.30853e-05
0.000139205
-1.24645e-05
0.00011068
-2.12313e-05
0.000115699
-3.66472e-05
6.89223e-05
-1.66783e-05
7.39792e-05
-4.32237e-05
5.32665e-05
-3.1063e-05
8.98026e-05
-7.01266e-05
5.47332e-05
-4.4712e-05
0.000104067
-9.95055e-05
-7.75937e-05
8.31946e-05
1.09021e-05
0.000171242
3.67817e-05
0.000192054
7.13773e-05
0.000212885
0.000108914
0.000212099
0.000138645
0.000174417
0.000155925
0.000130062
0.000158613
0.000109282
0.000160118
7.86218e-05
0.000154386
6.93692e-05
0.000142922
8.73745e-05
0.000123861
7.99491e-05
0.000108778
5.07919e-05
9.93132e-05
3.25502e-05
0.000110189