/*--------------------------------*- C++ -*----------------------------------*\
| =========                 |                                                 |
| \\      /  F ield         | foam-extend: Open Source CFD                    |
|  \\    /   O peration     | Version:     4.1                                |
|   \\  /    A nd           | Web:         http://www.foam-extend.org         |
|    \\/     M anipulation  |                                                 |
\*---------------------------------------------------------------------------*/
FoamFile
{
    version     2.0;
    format      ascii;
    class       surfaceScalarField;
    location    "0.7";
    object      phi_0;
}
// * * * * * * * * * * * * * * * * * * * * * * * * * * * * * * * * * * * * * //

dimensions      [0 3 -1 0 0 0 0];

internalField   nonuniform List<scalar> 
4432
(
-3.71734e-06
3.71734e-06
-9.72615e-06
6.00881e-06
-1.35819e-05
3.85574e-06
-9.81411e-06
-3.76778e-06
-1.06618e-05
8.47646e-07
-1.08358e-05
1.74034e-07
-1.11596e-05
3.23834e-07
-1.08732e-05
-2.86405e-07
-1.09825e-05
1.09325e-07
-1.04823e-05
-5.00204e-07
-7.63695e-06
-2.84538e-06
-1.02123e-05
2.57532e-06
-8.79536e-06
-1.41691e-06
-7.79952e-06
-9.95838e-07
-6.50868e-06
-1.29084e-06
-5.8742e-06
-6.34478e-07
-5.34174e-06
-5.32455e-07
-2.9186e-06
-2.42314e-06
-4.15715e-06
1.23855e-06
-1.11516e-06
-3.04199e-06
-2.26621e-07
-8.88537e-07
6.76049e-07
-9.02667e-07
6.76051e-07
-1.93564e-06
5.65298e-06
-5.13037e-06
9.20354e-06
-7.11324e-06
5.83861e-06
-9.60838e-06
-1.27264e-06
-1.05363e-05
1.77555e-06
-1.07392e-05
3.76982e-07
-1.10245e-05
6.09056e-07
-1.04638e-05
-8.47009e-07
-9.77178e-06
-5.8274e-07
-8.21636e-06
-2.05562e-06
-1.12805e-05
2.18714e-07
-8.84435e-06
1.39224e-07
-8.22911e-06
-2.03216e-06
-6.83591e-06
-2.38903e-06
-4.79903e-06
-3.32771e-06
-4.15305e-06
-1.28046e-06
-1.5487e-06
-3.13679e-06
-2.94102e-06
-1.03081e-06
-1.27595e-06
-4.26514e-07
-9.89481e-07
-3.32846e-06
-4.43513e-07
-1.4345e-06
1.81856e-06
-3.16473e-06
2.49461e-06
-4.67928e-06
1.03323e-05
-5.50653e-06
1.00308e-05
-7.39035e-06
7.72243e-06
-9.70296e-06
1.03997e-06
-1.05413e-05
2.61394e-06
-1.05659e-05
4.01523e-07
-1.07774e-05
8.20538e-07
-1.01638e-05
-1.46057e-06
-1.01017e-05
-6.44803e-07
-9.23107e-06
-2.92629e-06
-1.30579e-05
4.04557e-06
-1.12515e-05
-1.66717e-06
-1.123e-05
-2.05367e-06
-1.03443e-05
-3.27473e-06
-9.39083e-06
-4.28118e-06
-3.89557e-06
-6.77571e-06
-5.0912e-06
-1.94117e-06
-4.13843e-06
-1.98357e-06
-3.0866e-06
-1.47834e-06
-2.23335e-07
-6.19172e-06
2.56052e-07
-1.91388e-06
1.65807e-06
-4.56674e-06
4.15268e-06
-5.53422e-06
1.58665e-05
-5.9019e-06
1.03985e-05
-7.63485e-06
9.45539e-06
-9.62749e-06
3.0326e-06
-1.03658e-05
3.35228e-06
-1.08229e-05
8.58548e-07
-1.15765e-05
1.57418e-06
-1.0871e-05
-2.16602e-06
-9.92433e-06
-1.5915e-06
-1.73995e-05
4.54884e-06
-1.71478e-05
3.7939e-06
-1.80819e-05
-7.33091e-07
-1.84214e-05
-1.7141e-06
-1.67918e-05
-4.90435e-06
-1.49376e-05
-6.13538e-06
-1.29619e-05
-8.75139e-06
-1.05589e-05
-4.34415e-06
-9.16322e-06
-3.37928e-06
-7.53643e-06
-3.10513e-06
-2.25708e-06
-1.14711e-05
-1.73515e-06
-2.43581e-06
1.14202e-06
-7.44392e-06
5.2947e-06
-3.34864e-06
1.92151e-05
-6.15831e-06
1.32081e-05
-7.97921e-06
1.12763e-05
-9.79854e-06
4.85194e-06
-1.08838e-05
4.43755e-06
-1.18701e-05
1.84481e-06
-1.20907e-05
1.7948e-06
-2.08457e-05
6.58904e-06
-2.07935e-05
-1.6437e-06
-2.14169e-05
5.17216e-06
-2.24667e-05
4.84371e-06
-2.33886e-05
1.88816e-07
-2.29833e-05
-2.11941e-06
-2.26811e-05
-5.2065e-06
-2.17409e-05
-7.07562e-06
-1.91745e-05
-1.13177e-05
-1.68865e-05
-6.63219e-06
-1.63585e-05
-3.9073e-06
-1.3937e-05
-5.52659e-06
-8.4104e-06
-1.69977e-05
-1.56096e-06
-9.28526e-06
9.45883e-07
-9.95075e-06
6.24059e-06
-3.34031e-06
2.25554e-05
-6.74636e-06
1.66142e-05
-8.59373e-06
1.31237e-05
-1.02837e-05
6.54195e-06
-1.11262e-05
5.28002e-06
-1.1722e-05
2.44056e-06
-1.30756e-05
3.14846e-06
-1.38561e-05
7.3695e-06
-2.51807e-05
9.6809e-06
-2.59802e-05
5.9717e-06
-2.77272e-05
6.59064e-06
-2.80816e-05
5.43249e-07
-2.76085e-05
-2.59254e-06
-2.58665e-05
-6.94847e-06
-2.37232e-05
-9.21888e-06
-2.26687e-05
-1.23722e-05
-2.20863e-05
-7.21454e-06
-1.12375e-05
-1.47562e-05
-9.68005e-06
-7.08404e-06
-1.30252e-05
-1.36526e-05
-1.57579e-06
-2.07346e-05
3.82228e-06
-1.53488e-05
1.00629e-05
-4.14035e-06
2.66958e-05
-1.54075e-05
2.78814e-05
-2.04766e-05
1.81927e-05
-2.33713e-05
9.43663e-06
-2.56e-05
7.50875e-06
-2.81257e-05
4.9663e-06
-3.05219e-05
5.54463e-06
-3.02512e-05
7.09881e-06
-3.01733e-05
9.60301e-06
-3.03743e-05
6.17263e-06
-3.01751e-05
6.39143e-06
-2.94586e-05
-1.73182e-07
-2.8817e-05
-3.23418e-06
-2.75459e-05
-8.2195e-06
-2.52028e-05
-1.15621e-05
-2.34639e-05
-1.41111e-05
-2.39244e-05
-6.75401e-06
-2.496e-05
-1.37206e-05
-1.06195e-05
-2.14245e-05
-6.35893e-06
-1.79132e-05
-1.44285e-06
-2.56507e-05
6.89057e-06
-2.36822e-05
1.69534e-05
-4.77592e-06
3.14717e-05
-1.01109e-05
3.32163e-05
-2.32293e-05
3.13111e-05
-2.59388e-05
1.21461e-05
-2.90955e-05
1.06655e-05
-3.29748e-05
8.84552e-06
-3.60109e-05
8.58079e-06
-3.55419e-05
6.62975e-06
-3.41047e-05
8.16583e-06
-3.29547e-05
5.0226e-06
-3.22261e-05
5.66285e-06
-3.09615e-05
-1.43779e-06
-3.0028e-05
-4.16763e-06
-2.7768e-05
-1.04795e-05
-2.54315e-05
-1.38986e-05
-2.39453e-05
-1.55973e-05
-1.25578e-05
-1.81415e-05
-1.18221e-05
-1.44563e-05
-1.04238e-05
-2.28227e-05
-1.74918e-05
-1.08452e-05
9.93545e-07
-4.4136e-05
1.36624e-05
-3.63511e-05
3.06158e-05
-6.62269e-05
6.62269e-05
-0.000126476
6.02489e-05
-0.000141486
1.50105e-05
-0.00015557
1.4084e-05
-0.000147378
-8.19231e-06
-0.000145402
-1.97572e-06
-0.000143184
-2.21784e-06
-0.000144842
1.65795e-06
-0.000147298
2.45534e-06
-0.000153428
6.13034e-06
-0.000165824
1.23964e-05
-0.000171537
5.71294e-06
-0.000181745
1.02079e-05
-0.00017409
-7.65531e-06
-0.000113573
-6.05168e-05
-9.85491e-05
-1.5024e-05
-0.000140212
4.16625e-05
-8.19292e-05
-5.82824e-05
-8.19292e-05
-6.22747e-05
0.000128502
-0.000116362
0.000114336
-0.000122116
2.07642e-05
-0.000126359
1.83271e-05
-0.000101925
-3.26261e-05
-9.51236e-05
-8.77757e-06
-0.000101244
3.90262e-06
-0.000111584
1.19978e-05
-0.000123379
1.425e-05
-0.000138673
2.14252e-05
-0.000167451
4.11742e-05
-0.000179697
1.79586e-05
-0.000115936
-5.35532e-05
-0.00011082
-1.27712e-05
-0.000118719
-5.26177e-05
-0.000106065
-2.76778e-05
-7.89545e-05
1.45519e-05
-7.7447e-05
-5.97899e-05
-0.000159376
-5.92266e-05
0.000187728
-0.000109507
0.000164617
-0.000112283
2.35404e-05
-6.60549e-05
-2.79008e-05
-8.0624e-05
-1.8057e-05
-5.4907e-05
-3.44946e-05
-4.0242e-05
-1.07623e-05
-3.24429e-05
4.19865e-06
-4.85652e-05
3.03723e-05
-8.59691e-05
5.88291e-05
-0.000119506
7.47106e-05
-0.000135265
3.37185e-05
-0.000158734
-3.00851e-05
-0.000104743
-6.67619e-05
-0.000111592
-4.57685e-05
-0.000100331
-3.89384e-05
-7.22783e-05
-1.35013e-05
-5.76049e-05
-7.44633e-05
-0.000216981
-4.81852e-05
0.000235913
-7.77278e-05
0.000194159
-7.54805e-05
2.12931e-05
-8.58931e-05
-1.74882e-05
-6.45547e-05
-3.93954e-05
-4.13212e-05
-5.77281e-05
-1.04508e-05
-4.16327e-05
-4.9181e-06
-1.33406e-06
2.99396e-07
2.51548e-05
-2.38285e-05
8.2957e-05
-3.56857e-05
8.65678e-05
-7.53441e-05
7.33769e-05
-9.47661e-05
-1.06631e-05
-0.000126341
-3.51874e-05
-9.13818e-05
-8.07273e-05
-0.000134726
4.40546e-06
-6.15809e-05
-8.66459e-05
-5.45715e-05
-8.14727e-05
-0.000271553
-3.86176e-05
0.000274531
-5.39941e-05
0.000209536
-5.70816e-05
2.43806e-05
-6.66865e-05
-7.88326e-06
-3.99872e-05
-6.60948e-05
-1.43274e-05
-8.33879e-05
9.52176e-06
-6.54818e-05
1.20481e-05
-3.86042e-06
2.09876e-05
1.62153e-05
3.89169e-05
6.50277e-05
2.6982e-05
9.85028e-05
-1.51881e-05
0.000115547
-5.35816e-05
2.77305e-05
-5.65756e-05
-3.21934e-05
-7.93161e-05
-5.79868e-05
-7.16434e-05
-3.26724e-06
-5.80806e-05
-0.000100209
-2.71745e-05
-0.000112379
-0.000298727
-3.03534e-05
0.000304884
-4.2013e-05
0.000221195
-5.45778e-05
3.69454e-05
-6.26811e-05
2.20032e-07
-1.88795e-05
-0.000109896
5.30225e-06
-0.00010757
2.59467e-05
-8.61263e-05
2.5738e-05
-3.65173e-06
3.14403e-05
1.0513e-05
5.49014e-05
4.15666e-05
2.7744e-05
0.00012566
1.96936e-05
0.000123597
-4.26092e-06
5.1685e-05
-5.78401e-05
2.13858e-05
-5.76139e-05
-5.82131e-05
-5.3121e-05
-7.76009e-06
-4.22939e-05
-0.000111036
-1.64009e-05
-0.000138272
-0.000315128
-2.40268e-05
0.000328911
-2.31874e-05
0.000220356
-3.03902e-05
4.41483e-05
-1.90416e-05
-1.11286e-05
-1.40986e-06
-0.000127528
2.03501e-05
-0.00012933
1.95808e-05
-8.53569e-05
3.53605e-05
-1.94315e-05
3.673e-05
9.14348e-06
5.87883e-05
1.95083e-05
7.21496e-05
0.000112299
6.91173e-05
0.00012663
5.99376e-05
6.08648e-05
2.26866e-05
5.86368e-05
-1.50209e-05
-2.05055e-05
-2.71277e-05
4.34668e-06
-5.39927e-05
-8.41708e-05
-9.15482e-06
-0.00018311
-0.000324283
-1.79976e-05
0.000346909
-4.5113e-06
0.00020687
-4.44466e-06
4.40816e-05
7.82004e-07
-1.63553e-05
1.24404e-05
-0.000139187
1.8746e-05
-0.000135635
2.38857e-05
-9.04967e-05
4.16899e-05
-3.72357e-05
4.51417e-05
5.69172e-06
3.77012e-05
2.69488e-05
4.77997e-05
0.0001022
8.03866e-05
9.40427e-05
8.22578e-05
5.89935e-05
6.33964e-05
7.74982e-05
1.04574e-05
3.24335e-05
-9.52299e-06
2.43271e-05
-6.87721e-06
-8.68166e-05
-7.94104e-07
-0.000189193
-0.000325077
-1.53818e-05
4.68535e-05
-3.00702e-05
4.79047e-05
-3.97969e-05
4.10379e-05
-6.81605e-05
4.05097e-05
-7.17919e-05
1.42969e-05
-7.93897e-05
1.64434e-05
-8.36704e-05
1.28615e-05
-8.12786e-05
4.23795e-06
-7.83431e-05
5.23034e-06
-7.30918e-05
-2.28734e-07
-6.78462e-05
4.17276e-07
-6.21096e-05
-7.17438e-06
-5.86881e-05
-7.5891e-06
-5.83983e-05
-1.07692e-05
-5.42936e-05
-1.80033e-05
-4.99459e-05
-1.9945e-05
-5.15916e-05
-1.64957e-05
-4.29914e-05
-2.30565e-05
-4.2594e-05
-2.32202e-05
-1.85033e-05
-3.49359e-05
6.13249e-07
-6.32526e-05
2.44847e-05
-6.02226e-05
-1.72677e-05
7.23683e-05
-2.77328e-05
7.45863e-05
-5.08766e-05
7.10484e-05
-4.788e-05
3.80413e-05
-4.25617e-05
3.51914e-05
-8.43482e-05
5.60834e-05
-8.97044e-05
2.17996e-05
-8.96976e-05
1.28546e-05
-8.03834e-05
-5.0763e-06
-7.46618e-05
-4.9121e-07
-6.90539e-05
-5.83662e-06
-6.67781e-05
-1.85854e-06
-6.178e-05
-1.21725e-05
-5.42036e-05
-1.51655e-05
-4.8585e-05
-1.63879e-05
-4.96333e-05
-1.6955e-05
-5.00981e-05
-1.94802e-05
-4.34067e-05
-2.31872e-05
-4.93249e-05
-1.71383e-05
-2.06745e-05
-5.18706e-05
-2.18246e-05
-3.37857e-05
2.53572e-07
-8.53308e-05
3.61022e-05
-9.60711e-05
-2.41957e-05
4.30301e-05
-3.18294e-05
0.000106416
-5.34787e-05
9.26977e-05
-9.72467e-05
8.18093e-05
-0.000105486
4.34301e-05
-6.37365e-05
1.43344e-05
-5.78015e-05
1.58646e-05
-5.20539e-05
7.10706e-06
-6.66858e-05
9.55561e-06
-6.54711e-05
-1.70597e-06
-6.6925e-05
-4.38275e-06
-4.6169e-05
-2.26146e-05
-6.28247e-05
4.48329e-06
-5.5806e-05
-2.21842e-05
-6.09009e-05
-1.12929e-05
-6.70394e-05
-1.08165e-05
-7.09587e-05
-1.55609e-05
-7.78275e-05
-1.63184e-05
-5.369e-05
-4.12759e-05
-8.28526e-05
-2.2708e-05
-4.05641e-05
-7.60741e-05
-3.25069e-05
-9.33881e-05
-3.84879e-05
-9.00901e-05
3.75459e-05
-0.00010023
-5.85292e-05
0.000164945
-9.46757e-05
0.000128844
-9.67472e-05
8.38808e-05
-9.60533e-05
4.27363e-05
-7.82636e-05
-3.45538e-06
-7.13156e-05
8.91666e-06
-6.82079e-05
3.99936e-06
-9.55827e-05
3.69304e-05
-9.72168e-05
-7.19217e-08
-9.57991e-05
-5.80046e-06
-0.000101102
-1.7312e-05
-6.79405e-05
-2.86777e-05
-8.21502e-05
-7.9746e-06
-7.69193e-05
-1.65239e-05
-8.49585e-05
-2.77733e-06
-9.31844e-05
-7.33491e-06
-0.000102403
-7.09987e-06
-0.000120752
-2.29273e-05
-0.000134562
-8.89787e-06
-0.000166107
-4.45287e-05
-0.00017612
-8.33756e-05
-0.000217311
-4.88986e-05
7.28238e-05
-0.000252589
-6.1456e-05
0.000226401
-7.79457e-05
0.000145334
-3.88608e-05
4.47959e-05
-4.19418e-05
4.58172e-05
-6.26463e-05
1.72491e-05
-0.000112645
5.89152e-05
-0.000128189
1.95435e-05
-0.000119924
2.86653e-05
-0.000131458
1.14624e-05
-0.000142319
5.06068e-06
-0.000141221
-1.84098e-05
-0.000141944
-2.79549e-05
-0.000134253
-1.56658e-05
-0.000135452
-1.53252e-05
-0.000103578
-3.46515e-05
-8.63083e-05
-2.46043e-05
-7.26837e-05
-2.07245e-05
-8.85642e-05
-7.04672e-06
-0.000117155
1.96934e-05
-0.00012756
-3.41238e-05
-0.000147036
-6.38998e-05
-0.000218326
2.23916e-05
9.51709e-05
-0.000240673
-3.61871e-05
0.000262588
-2.10266e-05
0.000130173
-1.78264e-05
4.15957e-05
-1.68949e-05
4.48857e-05
-4.41802e-05
4.45344e-05
-4.79346e-05
6.26696e-05
-0.00010441
7.60192e-05
-0.000147145
7.13997e-05
-0.000200751
6.50689e-05
-0.000251248
5.55571e-05
-0.000294253
2.45957e-05
-0.000318714
-3.49417e-06
-0.000316821
-1.75584e-05
-0.000304878
-2.72685e-05
-0.00030621
-3.33195e-05
-0.000270333
-6.04814e-05
-0.000246188
-4.4869e-05
-0.000230203
-2.30317e-05
-0.000162731
-4.77786e-05
-0.000175228
-2.16275e-05
-0.000250058
1.0931e-05
-0.00025075
2.30831e-05
5.91731e-05
-0.000214752
-6.92294e-05
0.000331817
-7.61456e-05
0.00013709
-0.000213998
0.000179448
-0.000317325
0.000148212
-0.000370503
9.77131e-05
-0.000404492
9.66582e-05
-0.000422003
9.35305e-05
-0.000438937
8.8333e-05
-0.000451425
7.75571e-05
-0.000450038
5.41704e-05
-0.000441623
1.61806e-05
-0.000433556
-1.15613e-05
-0.000413772
-3.73422e-05
-0.000390222
-5.08183e-05
-0.000375441
-4.81007e-05
-0.000361959
-7.39635e-05
-0.000368817
-3.8011e-05
-0.00035321
-3.86384e-05
-0.000337954
-6.30347e-05
-0.000320792
-3.87899e-05
-0.000306168
-3.69317e-06
-0.0002712
-1.1885e-05
-3.63919e-06
-0.000208387
-0.000122331
0.000454148
-0.000209993
0.000224752
-0.000283565
0.00025302
-0.000325958
0.000190606
-0.000340892
0.000112647
-0.000373258
0.000129024
-0.000402814
0.000123087
-0.000409457
9.4976e-05
-0.00040195
7.005e-05
-0.00038843
4.06504e-05
-0.000375005
2.75528e-06
-0.000370875
-1.56909e-05
-0.000371122
-3.70953e-05
-0.000353945
-6.79951e-05
-0.000351812
-5.02346e-05
-0.000331428
-9.43468e-05
-0.000251276
-0.000118163
-0.000226651
-6.32641e-05
-0.000251727
-3.79585e-05
-0.000295177
4.66039e-06
-0.00030078
1.90989e-06
-0.000303254
-9.41092e-06
-4.94953e-05
-0.000257398
-9.3945e-05
0.000548093
-0.00017454
0.000305347
-0.000233347
0.000311827
-0.000297664
0.000254923
-0.000302437
0.00011742
-0.000330884
0.000157471
-0.000314246
0.000106449
-0.000270054
5.07841e-05
-0.000233892
3.38882e-05
-0.000193816
5.74263e-07
-0.000158611
-3.24498e-05
-0.000142132
-3.21697e-05
-0.000143423
-3.58047e-05
-0.000186488
-2.493e-05
-0.000223586
-1.31364e-05
-0.000271555
-4.63781e-05
-0.000340664
-4.90534e-05
-0.000356292
-4.76366e-05
-0.000359451
-3.4799e-05
-0.000329183
-2.56079e-05
-0.000251676
-7.55972e-05
-0.000227906
-3.31808e-05
-1.1326e-05
-0.000266075
-0.000100362
0.000648455
-0.000163768
0.000368754
-0.000227416
0.000375475
-0.000255288
0.000282795
-0.000263157
0.000125289
-0.000245777
0.000140091
-0.000188439
4.91106e-05
-0.00014057
2.9147e-06
-9.35932e-05
-1.30886e-05
-5.86181e-05
-3.44009e-05
-5.12736e-05
-3.97943e-05
-6.76108e-05
-1.58325e-05
-0.000100897
-2.51819e-06
-0.000126618
7.90768e-07
-0.000144241
4.48622e-06
-0.000171787
-1.88315e-05
-0.000210421
-1.04192e-05
-0.000252316
-5.74246e-06
-0.000275254
-1.1861e-05
-0.000276238
-2.46233e-05
-0.000315174
-3.66616e-05
-0.000327746
-2.06088e-05
-3.05309e-05
-0.000308541
-4.0332e-05
0.000688787
-0.0001112
0.000439622
-9.00506e-05
0.000354325
-9.94227e-05
0.000292167
-0.00022643
0.000252296
-0.000201512
0.000115174
-0.000146504
-5.89792e-06
-8.90067e-05
-5.45824e-05
-6.40955e-05
-3.79998e-05
-4.83504e-05
-5.0146e-05
-8.46076e-05
-3.53729e-06
-0.000121517
2.1077e-05
-0.000158548
3.45128e-05
-0.000192605
3.48473e-05
-0.000210313
2.21946e-05
-0.000234314
5.16978e-06
-0.000256103
1.13692e-05
-0.000272073
1.02272e-05
-0.000284655
7.2167e-07
-0.00028143
-2.78488e-05
-0.000283818
-3.4273e-05
-0.000290151
-1.4276e-05
-1.40841e-05
-0.000306598
-2.15161e-05
0.000710303
-0.000121817
0.000539923
-0.00012372
0.000356229
-0.000149841
0.000318287
-0.00010877
0.000211225
-7.43627e-05
8.07663e-05
-5.37255e-05
-2.65351e-05
-7.08736e-05
-3.74343e-05
-8.02698e-05
-2.86037e-05
-0.000123793
-6.62262e-06
-0.000159633
3.23027e-05
-0.000175264
3.67078e-05
-0.0001762
3.54488e-05
-0.000187347
4.59947e-05
-0.000194072
2.89196e-05
-0.000206913
1.80101e-05
-0.000224028
2.84841e-05
-0.000223713
9.9125e-06
-0.000216652
-6.33935e-06
-0.000217781
-2.672e-05
-0.000215898
-3.61551e-05
-0.000190153
-4.0022e-05
-4.70446e-05
-0.000157192
-2.75698e-05
0.000737873
-4.54546e-05
0.000557808
-7.01716e-05
0.000380946
-0.000101429
0.000349545
-0.00011365
0.000223446
-8.16908e-05
4.88075e-05
-8.69854e-05
-2.12405e-05
-9.98735e-05
-2.45462e-05
-0.000111797
-1.66806e-05
-0.000168746
5.03269e-05
-0.000194337
5.78932e-05
-0.000205956
4.83269e-05
-0.000206742
3.62351e-05
-0.000184172
2.34245e-05
-0.000174827
1.95755e-05
-0.000161493
4.67564e-06
-0.000113553
-1.9456e-05
-9.5917e-05
-7.72341e-06
-8.85286e-05
-1.37278e-05
-8.72648e-05
-2.79838e-05
-8.27864e-05
-4.06335e-05
-7.5691e-05
-4.71174e-05
-6.01785e-05
-6.25572e-05
-2.31916e-05
0.000761065
-1.0171e-05
0.000544787
-5.17881e-05
0.000422563
-6.83661e-05
0.000366123
-7.60864e-05
0.000231166
-7.76569e-05
5.03779e-05
-8.70088e-05
-1.18884e-05
-8.42442e-05
-2.73108e-05
-0.000127665
2.67398e-05
-0.000151588
7.42503e-05
-0.000174689
8.09941e-05
-0.000191901
6.55394e-05
-0.000211747
5.60809e-05
-0.000230077
4.17541e-05
-0.000230539
2.00376e-05
-0.000219996
-5.86707e-06
-0.000226546
-1.29065e-05
-0.000224924
-9.34469e-06
-0.000205111
-3.35405e-05
-0.000179952
-5.31438e-05
-0.000162075
-5.85105e-05
-0.000160916
-4.82764e-05
-4.28998e-05
-0.000178194
-2.20535e-05
0.000783118
-7.13958e-06
0.000529873
-4.04842e-05
0.000455907
-7.50901e-05
0.000400729
-5.50811e-05
0.000211157
-4.92837e-05
4.45804e-05
-7.25215e-05
1.13494e-05
-0.00010608
6.24781e-06
-0.000120243
4.09028e-05
-8.82943e-05
4.23012e-05
-5.75318e-05
5.02315e-05
-4.93396e-05
5.73471e-05
-3.4631e-05
4.13722e-05
-1.92468e-05
2.63698e-05
-5.46901e-06
6.25982e-06
-7.11687e-06
-4.21924e-06
-5.62612e-06
-1.43973e-05
-5.50897e-06
-9.46191e-06
-9.13069e-06
-2.99189e-05
-1.61049e-05
-4.61697e-05
-2.22356e-05
-5.23798e-05
-3.23327e-05
-3.81794e-05
-3.23442e-05
-4.28883e-05
-1.13954e-05
0.000794513
-1.17876e-05
0.000530265
-3.3444e-05
0.000477564
-2.98388e-05
0.000397124
-2.82459e-05
0.000209564
-4.62516e-05
6.25861e-05
-8.19492e-05
4.70469e-05
-0.000108539
3.28381e-05
-9.53704e-05
2.77338e-05
-0.000108309
5.52394e-05
-8.9645e-05
3.1568e-05
-5.5682e-05
2.3384e-05
-2.75951e-05
1.32852e-05
-1.19064e-05
1.06809e-05
2.76552e-06
-8.41224e-06
6.53832e-06
-7.99211e-06
5.87623e-06
-1.37352e-05
1.13003e-05
-1.4886e-05
7.47405e-06
-2.60927e-05
-2.11835e-06
-3.65775e-05
-4.37393e-07
-5.40608e-05
-5.76152e-06
-3.28552e-05
-2.88769e-05
-9.22871e-06
-1.19347e-05
0.000806448
-2.18027e-05
0.000540133
-8.95886e-05
0.00054535
9.99768e-06
0.000297537
5.96302e-06
0.000213599
-4.7113e-05
0.000115662
-7.51095e-05
7.50433e-05
-0.000105614
6.33429e-05
-9.20244e-05
1.41441e-05
-6.21063e-05
2.53213e-05
-4.92643e-05
1.8726e-05
-4.89445e-05
2.30641e-05
-3.04107e-05
-5.24868e-06
-9.25727e-06
-1.04727e-05
-1.02242e-05
-7.4454e-06
-3.97369e-06
-1.42427e-05
-4.33166e-06
-1.33773e-05
-1.10007e-06
-1.81176e-05
1.24557e-05
-3.96485e-05
5.56119e-06
-2.96831e-05
4.85368e-06
-5.33533e-05
2.49439e-06
-3.04959e-05
-2.84739e-05
2.09131e-06
-1.60658e-05
0.000822514
-3.0054e-05
0.000554122
-3.01637e-05
0.000545459
-1.93153e-05
0.000286689
-5.73369e-06
0.000200017
-4.8027e-05
0.000157955
-7.41055e-05
0.000101122
-7.6524e-05
6.57616e-05
-8.96897e-05
2.73099e-05
-9.26601e-05
2.82918e-05
-8.30077e-05
9.07366e-06
-4.85736e-05
-1.13701e-05
-4.12453e-05
-1.25771e-05
-2.36618e-05
-2.80564e-05
-6.13684e-06
-2.49705e-05
-5.97294e-06
-1.44067e-05
4.30192e-06
-2.36521e-05
8.48977e-06
-2.23054e-05
6.04981e-06
-3.72086e-05
8.57711e-06
-3.22105e-05
7.85512e-06
-5.26314e-05
2.68508e-05
-4.94915e-05
-3.13933e-05
2.97701e-05
-5.07395e-06
0.000827588
-3.80595e-05
0.000587108
-1.8556e-05
0.000525956
-0.000108464
0.000376597
-6.01747e-05
0.000151728
-6.29199e-05
0.000160701
-0.000120811
0.000159012
-9.80097e-05
4.29606e-05
-8.98215e-05
1.91216e-05
-7.2632e-05
1.11023e-05
-5.99993e-05
-3.55912e-06
-5.96055e-05
-1.17639e-05
-2.90582e-05
-4.31245e-05
-1.2799e-05
-4.43158e-05
-1.26726e-05
-2.5097e-05
2.00947e-06
-2.90888e-05
1.32776e-05
-3.49203e-05
9.01527e-06
-1.80429e-05
1.48426e-05
-4.30359e-05
1.96845e-05
-3.70524e-05
1.70323e-05
-4.99792e-05
1.76046e-05
-5.00638e-05
-4.7976e-05
3.41874e-05
-6.88734e-06
0.000834475
-6.65127e-05
0.000646733
-1.46266e-06
0.000460906
-5.49923e-05
0.000430127
-9.60278e-05
0.000192763
-9.70147e-05
0.000161687
-0.000114568
0.000176566
-0.000135251
6.36434e-05
-0.000135056
1.89258e-05
-0.000120563
-3.39087e-06
-9.39968e-05
-3.0125e-05
-6.04799e-05
-4.52808e-05
-6.85766e-05
-3.50278e-05
-3.2136e-05
-8.07565e-05
1.93679e-06
-5.91698e-05
1.38269e-05
-4.09789e-05
2.31333e-05
-4.42265e-05
3.14469e-05
-2.63565e-05
3.81528e-05
-4.97418e-05
3.11231e-05
-3.00226e-05
3.41259e-05
-5.2982e-05
4.01121e-05
-5.605e-05
-6.04602e-05
5.25963e-05
3.85068e-06
0.000830624
-1.86212e-05
0.000669205
-2.73356e-05
0.00046962
-3.25791e-05
0.00043537
-9.39158e-05
0.0002541
-6.49632e-05
0.000132734
-9.01801e-05
0.000201783
-0.000108354
8.18176e-05
-0.000131392
4.19633e-05
-0.000138312
3.52882e-06
-8.30223e-05
-8.54147e-05
-8.52594e-05
-4.30437e-05
-2.65344e-05
-9.37528e-05
-1.03715e-05
-9.69194e-05
-1.60018e-06
-6.79411e-05
1.29826e-05
-5.55617e-05
2.28604e-05
-5.41043e-05
4.25031e-05
-4.59992e-05
2.31564e-05
-3.03951e-05
5.17359e-05
-5.86021e-05
3.98118e-05
-4.10579e-05
2.05749e-05
-3.68131e-05
-6.94964e-05
2.96111e-05
1.42886e-05
0.000816336
1.35434e-05
0.00066995
-8.46237e-05
0.000567787
-6.27427e-05
0.000413489
-6.20737e-05
0.000253431
-4.72306e-05
0.000117892
-6.12413e-05
0.000215794
-0.000124186
0.000144762
-0.00010049
1.82678e-05
-9.93707e-05
2.40937e-06
-0.000106115
-7.86706e-05
-4.03634e-05
-0.000108795
-2.35966e-05
-0.00011052
-5.03307e-06
-0.000115483
1.60209e-05
-8.89951e-05
1.17218e-05
-5.12625e-05
2.24384e-05
-6.48209e-05
3.14168e-05
-5.49776e-05
3.45145e-05
-3.34928e-05
3.73671e-05
-6.14547e-05
5.40852e-05
-5.7776e-05
7.34598e-05
-5.61876e-05
-7.44428e-05
7.84062e-05
5.56057e-06
0.000810775
5.1251e-05
0.00062426
-1.83788e-05
0.000637417
-7.63649e-05
0.000471475
-6.74236e-05
0.00024449
-3.81182e-05
8.85864e-05
-3.9166e-05
0.000216841
-6.14946e-05
0.000167091
-0.000106435
6.32076e-05
-8.26235e-05
-2.14017e-05
-7.48504e-05
-8.64437e-05
-4.29863e-05
-0.000140659
-1.58723e-05
-0.000137634
-2.60228e-06
-0.000128753
1.12404e-05
-0.000102838
1.53737e-05
-5.53958e-05
2.26217e-05
-7.20689e-05
2.47843e-05
-5.71402e-05
5.58244e-05
-6.45329e-05
6.16758e-05
-6.73062e-05
6.18165e-05
-5.79166e-05
6.15894e-05
-5.59606e-05
-6.32674e-05
5.04141e-05
-2.45125e-05
0.000835287
5.65226e-05
0.000543224
0.000117104
0.000576836
3.35451e-05
0.000555033
1.85558e-05
0.000259479
2.27871e-05
8.43549e-05
2.03552e-05
0.000219273
2.0135e-07
0.000187245
-4.44433e-05
0.000107852
-5.40664e-05
-1.17786e-05
-3.02232e-05
-0.000110287
-1.30806e-05
-0.000157802
-2.20101e-06
-0.000148513
4.50569e-06
-0.00013546
1.93044e-05
-0.000117637
5.59249e-05
-9.20162e-05
6.5989e-05
-8.2133e-05
4.98599e-05
-4.10111e-05
5.58452e-05
-7.05183e-05
6.74572e-05
-7.89182e-05
7.33876e-05
-6.3847e-05
7.98464e-05
-6.24193e-05
-3.89001e-05
5.5479e-05
1.40589e-05
0.000821229
3.71742e-05
0.000520109
0.00016015
0.000453861
0.000136451
0.000578732
0.000109272
0.000286658
5.55206e-05
0.000138107
0.00011326
0.000161533
0.000139506
0.000160999
7.77912e-05
0.000169568
3.1106e-05
3.49067e-05
1.3151e-05
-9.23317e-05
8.54469e-06
-0.000153195
9.10458e-06
-0.000149073
1.30616e-05
-0.000139417
2.66434e-05
-0.000131218
2.92401e-05
-9.46128e-05
3.43588e-05
-8.72517e-05
6.07104e-05
-6.73628e-05
6.69503e-05
-7.67582e-05
3.87145e-05
-5.06823e-05
4.09284e-05
-6.60609e-05
4.45242e-05
-6.60151e-05
-5.96942e-05
6.53183e-05
1.54596e-05
0.000805769
6.20834e-05
0.000473485
8.76598e-05
0.000428284
0.00010675
0.000559642
0.000197956
0.000195452
0.000179094
0.000156969
0.00014291
0.000197717
0.000101783
0.000202126
8.75121e-05
0.000183839
4.65338e-05
7.5885e-05
2.64646e-05
-7.22623e-05
1.89838e-05
-0.000145714
1.68229e-05
-0.000146912
2.59374e-05
-0.000148531
3.88535e-05
-0.000144134
3.52265e-05
-9.09858e-05
4.11553e-05
-9.31805e-05
2.73726e-05
-5.35801e-05
3.55636e-05
-8.49492e-05
6.50782e-05
-8.01968e-05
5.7772e-05
-5.87548e-05
4.80424e-05
-5.62855e-05
-7.11519e-05
5.95001e-05
3.38153e-05
0.000771954
0.000112152
0.000395148
0.000116746
0.00042369
0.000292356
0.000384033
0.000257646
0.000230161
0.000214135
0.00020048
0.000175602
0.000236249
4.51224e-05
0.000332606
5.50378e-05
0.000173923
4.94473e-05
8.14756e-05
4.18824e-05
-6.46973e-05
5.03453e-05
-0.000154177
8.0875e-06
-0.000104655
3.33649e-05
-0.000173809
2.76553e-05
-0.000138425
3.45151e-05
-9.78456e-05
4.02597e-05
-9.89251e-05
7.92158e-05
-9.25362e-05
8.28919e-05
-8.86253e-05
5.30668e-05
-5.03717e-05
5.72979e-05
-6.29858e-05
5.59171e-05
-5.49047e-05
-6.90868e-05
5.38519e-05
0.000150543
0.000621411
0.000164783
0.000380908
0.000201767
0.000386706
0.000244327
0.000341473
0.000224493
0.000249996
0.000172439
0.000252535
0.000133137
0.000275551
9.38251e-05
0.000371918
0.000100257
0.000167492
0.000102512
7.92198e-05
7.81018e-05
-4.02867e-05
7.38132e-05
-0.000149888
7.55793e-05
-0.000106421
8.58336e-05
-0.000184063
9.33593e-05
-0.00014595
7.22951e-05
-7.67814e-05
7.66286e-05
-0.000103259
6.20215e-05
-7.7929e-05
6.25822e-05
-8.91859e-05
8.59426e-05
-7.3732e-05
7.13739e-05
-4.84171e-05
7.64101e-05
-5.99409e-05
-4.94883e-05
5.68116e-05
0.000205624
0.000415787
0.000195418
0.000391114
0.000207758
0.000374366
0.000217565
0.000331666
0.000179796
0.000287764
0.000149451
0.00028288
0.000138163
0.00028684
0.000145551
0.00036453
0.000121239
0.000191804
0.000114572
8.58873e-05
0.000118594
-4.43093e-05
0.000120593
-0.000151887
0.000117371
-0.000103198
0.000101452
-0.000168143
9.13055e-05
-0.000135804
8.3378e-05
-6.88538e-05
7.69421e-05
-9.68227e-05
8.43522e-05
-8.5339e-05
7.6631e-05
-8.14647e-05
7.05649e-05
-6.76658e-05
5.64683e-05
-3.43204e-05
7.40337e-05
-7.75064e-05
-4.64212e-05
7.09666e-05
9.36426e-05
0.000322145
0.000134596
0.000350161
0.000153542
0.00035542
0.000153032
0.000332176
0.000136714
0.000304082
0.000128873
0.000290721
0.000118417
0.000297296
0.000221785
0.000261162
0.000147134
0.000266455
0.000143364
8.96565e-05
0.000156399
-5.73435e-05
0.000145528
-0.000141017
0.000137759
-9.54285e-05
0.000142437
-0.000172822
0.000132978
-0.000126345
0.00012196
-5.78361e-05
8.54687e-05
-6.03311e-05
8.22311e-05
-8.21014e-05
8.56093e-05
-8.48427e-05
8.35173e-05
-6.55737e-05
0.000105584
-5.63866e-05
7.02024e-05
-4.21252e-05
-4.9774e-05
7.35552e-05
5.3796e-05
0.000268349
6.74894e-05
0.000336467
8.25566e-05
0.000340353
9.69842e-05
0.000317748
0.00011385
0.000287216
0.000122721
0.00028185
0.000144671
0.000275346
0.000174297
0.000231536
0.000194691
0.00024606
0.000212672
7.16755e-05
0.000206613
-5.12843e-05
0.000180099
-0.000114503
0.00016193
-7.72594e-05
0.000100425
-0.000111316
7.46484e-05
-0.000100568
6.15556e-05
-4.47432e-05
9.89793e-05
-9.77547e-05
9.7908e-05
-8.10299e-05
6.00126e-05
-4.69473e-05
4.29914e-05
-4.85524e-05
4.85031e-05
-6.18982e-05
8.39085e-05
-7.75307e-05
-6.05881e-05
9.47226e-05
2.45935e-05
0.000243755
3.15142e-05
0.000329546
4.13383e-05
0.000330529
4.46973e-05
0.000314389
6.39904e-05
0.000267923
9.40028e-05
0.000251838
0.00012766
0.000241689
0.000152726
0.00020647
0.000232997
0.00016579
0.000258075
4.65968e-05
0.000244329
-3.75379e-05
0.000189142
-5.93163e-05
0.000173451
-6.15684e-05
0.000106791
-4.46569e-05
8.60519e-05
-7.98288e-05
0.000122753
-8.14441e-05
0.000104057
-7.90588e-05
5.81036e-05
-3.50764e-05
7.26343e-05
-6.1478e-05
0.000112285
-8.82028e-05
9.57538e-05
-4.53672e-05
6.20269e-05
-4.38038e-05
-8.25733e-05
8.4012e-05
1.5671e-05
0.000228084
3.29013e-05
0.000312316
3.73676e-05
0.000326062
3.60974e-05
0.000315659
4.02607e-05
0.000263759
7.44022e-05
0.000217697
0.000122613
0.000193478
0.000173015
0.000156068
0.000235769
0.000103036
0.000245794
3.65719e-05
0.000213076
-4.82014e-06
0.000186607
-3.28475e-05
0.000195193
-7.01542e-05
0.000189189
-3.86536e-05
0.000150732
-4.1371e-05
0.000116881
-4.75939e-05
6.77925e-05
-2.99698e-05
9.87537e-05
-6.60376e-05
9.83521e-05
-6.10763e-05
5.3345e-05
-4.31958e-05
9.14727e-05
-8.34949e-05
0.000111524
-6.38548e-05
-8.31858e-05
0.000112136
1.66894e-05
0.000211395
4.3411e-05
0.000285594
5.61303e-05
0.000313343
6.56357e-05
0.000306154
7.86423e-05
0.000250753
0.000108296
0.000188043
0.000151612
0.000150162
0.000195612
0.000112067
0.000229304
6.93443e-05
0.00023173
3.41452e-05
0.000200522
2.63879e-05
0.000176293
-8.61864e-06
0.000122818
-1.66789e-05
9.54005e-05
-1.12366e-05
6.99459e-05
-1.59164e-05
7.35626e-05
-5.12105e-05
0.000109458
-6.58651e-05
8.62253e-05
-4.28049e-05
8.76099e-05
-6.24609e-05
0.000108843
-6.44291e-05
0.000104764
-7.9416e-05
0.00010339
-6.2481e-05
-8.74021e-05
0.000107607
1.56669e-05
0.000195728
5.16851e-05
0.000249576
8.35362e-05
0.000281492
0.000110007
0.000279683
0.000131852
0.000228907
0.00015357
0.000166325
0.00018029
0.000123442
0.000203251
8.91064e-05
0.00020952
6.30751e-05
0.000201309
4.2356e-05
0.000182747
4.49498e-05
0.000172472
1.65679e-06
0.000123617
3.21756e-05
0.000103858
8.52305e-06
0.000135513
-4.75722e-05
0.000114667
-3.03641e-05
0.000110662
-6.186e-05
0.000105045
-3.7188e-05
9.29127e-05
-5.03287e-05
6.11205e-05
-3.2637e-05
6.05157e-05
-7.88112e-05
4.74182e-05
-4.93836e-05
-9.74157e-05
5.74318e-05
1.34575e-05
0.00018227
4.70319e-05
0.000216001
8.45769e-05
0.000243947
0.000119442
0.000244819
0.000149561
0.000198788
0.000171802
0.000144085
0.000185189
0.000110055
0.000195288
7.90076e-05
0.000195074
6.32884e-05
0.000161474
7.59565e-05
0.000144951
6.14723e-05
0.000110266
3.63421e-05
0.00011862
2.38206e-05
0.000137902
-1.0758e-05
0.000110473
-2.01432e-05
0.000115233
-3.51247e-05
6.88539e-05
-1.54807e-05
7.36964e-05
-4.20305e-05
5.34026e-05
-3.0035e-05
8.99599e-05
-6.91944e-05
5.50873e-05
-4.39387e-05
0.000104255
-9.8551e-05
-7.69647e-05
8.38036e-05
1.14792e-05
0.000170791
3.72656e-05
0.000190215
7.15076e-05
0.000209705
0.000109142
0.000207185
0.00013851
0.000169419
0.000154667
0.000127928
0.000156579
0.000108143
0.000157528
7.80581e-05
0.00015178
6.90363e-05
0.000140544
8.7193e-05
0.000121942
8.00742e-05
0.000107466
5.08172e-05