/*--------------------------------*- C++ -*----------------------------------*\
| =========                 |                                                 |
| \\      /  F ield         | foam-extend: Open Source CFD                    |
|  \\    /   O peration     | Version:     4.1                                |
|   \\  /    A nd           | Web:         http://www.foam-extend.org         |
|    \\/     M anipulation  |                                                 |
\*---------------------------------------------------------------------------*/
FoamFile
{
    version     2.0;
    format      ascii;
    class       volScalarField;
    location    "0.7";
    object      psi;
}
// * * * * * * * * * * * * * * * * * * * * * * * * * * * * * * * * * * * * * //

dimensions      [1 -1 -2 0 0 0 0];

internalField   nonuniform List<scalar> 
2268
(
0.264893
0.261755
0.218406
0.193562
0.187483
0.17895
0.141291
0.0620972
-0.0196001
-0.0730236
-0.0930058
-0.0906307
-0.0708645
-0.0452667
-0.0239364
-0.00830745
0.00138184
0.00519079
0.00405292
-0.00276515
-0.0110248
-0.0145534
-0.0190788
0.266783
0.274609
0.224936
0.185694
0.178791
0.157203
0.107703
0.022408
-0.0537562
-0.0985861
-0.109673
-0.101837
-0.079165
-0.0511432
-0.0288185
-0.0126876
-0.00208761
0.00263627
0.00206053
-0.00307298
-0.00596583
-0.000265222
-0.00395533
0.169807
0.181059
0.130661
0.0806293
0.0758746
0.0392623
-0.0170842
-0.0959683
-0.147865
-0.166666
-0.151121
-0.134618
-0.102336
-0.0698123
-0.0440124
-0.0260484
-0.0101934
-0.00232336
0.00164752
0.00519692
0.0187108
0.0458162
0.0466121
-0.0120548
-0.0388679
-0.0781687
-0.135141
-0.136763
-0.179362
-0.219913
-0.262316
-0.275691
-0.243088
-0.202619
-0.175243
-0.133846
-0.0987411
-0.0674268
-0.0429048
-0.0177737
-0.00427429
0.0105983
0.0292924
0.0702746
0.121919
0.135356
-0.307168
-0.403271
-0.437737
-0.513215
-0.505471
-0.513755
-0.49155
-0.443281
-0.402713
-0.320616
-0.264035
-0.224986
-0.18114
-0.147268
-0.106696
-0.0670313
-0.0261222
-0.00332828
0.0309834
0.0708441
0.143289
0.21692
0.263488
-0.658607
-0.791038
-0.889604
-1.04031
-1.00807
-0.920015
-0.782807
-0.620222
-0.514493
-0.408356
-0.337329
-0.293709
-0.252875
-0.228354
-0.178285
-0.108818
-0.0412828
-0.0166713
0.0432073
0.109456
0.192452
0.282316
0.416685
-0.809292
-0.836761
-1.15657
-1.51719
-1.45268
-1.22462
-0.969439
-0.740739
-0.599726
-0.509385
-0.438982
-0.400811
-0.360483
-0.355389
-0.302286
-0.18759
-0.0831504
-0.0540686
0.0025227
0.122801
0.152899
0.230158
0.597282
-0.676416
-0.584425
-1.17678
-1.95366
-1.9065
-1.50524
-1.15744
-0.892558
-0.735397
-0.658363
-0.608145
-0.592363
-0.537747
-0.558053
-0.523234
-0.35651
-0.232989
-0.185579
-0.156501
0.0528887
-0.124994
-0.139008
0.640383
-0.256135
-0.740814
-1.6148
-2.9814
-4.08181
-3.86649
-3.0079
-1.72502
0.495883
2.08714
2.52535
2.94409
3.494
2.27553
1.47455
0.91752
0.219916
0.0875855
0.0601883
-0.277046
0.075418
0.703339
0.248154
0.484177
-1.28513
-2.33672
-3.31241
-2.95148
-0.373603
1.48475
2.00392
1.58797
2.68966
2.0415
2.03684
2.05963
0.629891
-0.00559201
-0.0735696
0.338993
1.82881
2.72214
2.59947
1.67979
1.05744
-0.679587
-2.7936
-2.94577
-1.23968
0.412062
-0.0141365
1.43573
1.97707
2.15631
3.0155
1.44912
0.0754411
0.0744866
1.42744
0.643873
2.24462
2.47044
1.89563
1.67218
1.83913
0.615658
-3.50855
-2.15223
-0.731773
0.257188
0.389617
1.27917
1.86348
0.652301
2.18129
0.468379
0.435235
1.81943
0.194744
0.733245
-0.857548
-0.928137
-0.920392
1.11169
1.97898
0.0126451
-1.65089
-0.36985
-0.167154
0.212436
0.613138
1.99536
-0.443027
1.64685
1.03174
0.942426
1.86751
-0.0522536
0.41297
-1.572
-1.33893
-2.90851
-1.1924
0.734011
1.8475
0.1679
-2.17859
-0.544983
-0.251297
-0.0719625
0.885625
0.448023
1.03433
1.47861
1.52347
2.02919
-0.226442
-0.298475
-0.036208
0.111181
-1.97218
-2.23842
-1.46105
0.986783
1.80849
-0.288393
0.629696
0.468594
0.493167
-0.177459
1.41233
0.831605
1.83905
1.48224
2.61893
-0.091088
-0.2818
1.36092
1.06361
-0.495904
-1.9305
-2.42104
-0.534263
1.14836
1.63034
2.12172
1.14251
1.07909
-0.554104
1.17756
0.594482
1.95239
-0.567801
-0.635165
-1.46708
-2.0517
-2.31965
-1.81907
-1.49286
-1.24621
-1.06639
-1.04045
-1.00119
-1.08978
-0.995363
-1.01386
-1.0722
-0.854186
-0.65152
-0.657347
-0.651926
-0.380057
-0.961115
-1.41371
-0.698935
0.880312
0.989438
0.000471478
-0.445977
-0.234706
-0.704812
-0.953569
-1.0938
-0.756019
-0.878025
-0.65768
-1.27335
-1.15283
-1.02287
-1.10265
-1.08611
-0.987314
-1.0365
-1.71732
-0.550182
-1.5371
-2.39089
-2.74731
0.912039
1.64965
2.8671
2.83689
1.69279
0.255504
-0.164704
-0.385708
-0.0657387
-0.0906363
-0.613409
0.619793
-0.765134
0.0124332
-0.102855
-0.680058
-0.706031
-1.32309
-0.86944
-1.48439
-1.11448
-1.2496
-0.87379
1.12357
2.60463
3.01902
2.15579
1.08643
1.67667
1.61399
1.8485
0.900925
0.897464
0.384996
0.899657
0.592498
0.515658
0.728987
0.450294
0.79152
1.15157
1.14954
0.414256
0.815091
1.00653
1.97513
1.35776
2.26274
1.84904
1.5423
1.3664
1.72525
1.41058
1.50799
0.665687
0.671459
0.791697
0.842432
0.914641
1.0809
1.1377
1.00004
0.787441
0.498709
1.40264
2.24743
2.649
1.84028
1.8377
1.33624
1.59642
0.797916
0.875214
0.866136
0.921426
0.332452
0.641005
0.938446
1.41135
1.93553
2.38785
2.66461
2.81336
2.92884
2.96477
2.86078
2.88882
3.0279
2.81016
2.69214
2.14084
2.31162
1.18895
0.99283
1.11544
1.786
1.9681
2.06936
2.28539
2.5376
2.90639
3.19858
3.39719
3.49637
3.53774
3.74888
3.93982
4.02681
4.15053
3.74268
3.11087
2.64767
2.705
2.73656
2.89205
1.06437
0.879399
1.27506
1.75308
2.05185
2.29468
2.3905
2.45268
2.51946
2.37575
2.05813
1.86374
1.69352
1.85242
2.18351
2.06599
2.54575
2.66694
3.00006
3.20724
3.07175
3.10843
3.02994
0.97008
0.706579
1.21057
1.63804
1.94201
2.04344
2.16606
1.90198
1.47008
0.999746
0.631463
0.532224
0.43184
0.483647
0.860033
1.26335
2.28546
2.87566
2.99839
2.97845
2.83282
2.846
2.73116
0.888875
0.628894
1.14478
1.49183
1.60311
1.78629
1.34559
0.724837
0.452267
0.216686
0.0932874
0.0814656
0.07748
0.136476
0.226663
0.375219
0.741708
1.11274
1.55656
1.97348
2.45175
3.1182
3.24681
0.824316
0.50885
0.860026
1.07969
1.2788
1.27307
0.583543
0.273737
0.164105
0.0327835
0.0060486
-0.000767532
0.031008
0.123201
0.262927
0.453373
0.721221
0.96543
1.17714
1.31281
1.63862
2.28001
2.91496
0.749525
0.469087
0.735726
1.02877
1.21625
1.13822
0.462702
0.106472
0.0250252
-0.0123892
-0.00311371
0.00268606
0.038073
0.0927565
0.169955
0.281971
0.447814
0.55802
0.602204
0.579276
0.553376
0.454652
0.291032
0.679029
0.402687
0.596211
0.940182
1.06627
0.578906
0.101289
0.0136913
-0.00554407
-0.00270519
0.00234044
0.02104
0.0495732
0.0746741
0.0942952
0.112589
0.139051
0.161428
0.19612
0.207137
0.19205
0.121285
0.00890394
0.610556
0.303503
0.537856
0.874092
0.893853
0.291626
0.0990788
0.0327089
-0.000897046
-0.000552638
0.00218987
0.0156198
0.0356083
0.0521684
0.0668779
0.0897182
0.122154
0.128919
0.114475
0.0914849
0.0700522
0.0635564
0.0592676
0.539885
0.231269
0.539536
0.780365
0.662109
0.182752
0.0876646
0.0220436
-0.00110814
-0.00130719
-0.00143659
-0.00164573
0.000271692
0.00148817
-0.00219065
-0.00772765
-0.00459582
0.0114619
0.0174654
0.0207989
0.0187169
0.0280103
0.0347244
0.471884
0.215571
0.530209
0.734025
0.433703
0.137136
0.0852946
0.0196813
-0.000111968
-0.000663135
-0.000191602
-0.000893168
-0.00204438
-0.00291889
-0.00410229
-0.00507857
-0.00677807
-0.00713245
-0.00537882
-0.00275925
-0.00291267
0.00187486
0.00852387
0.396169
0.241629
0.538469
0.673574
0.327178
0.109251
0.0950925
0.0304145
0.00531138
0.00144418
0.00118587
0.000639302
1.88273e-05
-0.000386904
-0.000625071
-0.000897081
-0.00145907
-0.00212409
-0.00220748
-0.00205364
-0.00218335
-0.0021729
-0.00111687
0.339549
0.288739
0.536327
0.551068
0.195137
0.0857175
0.109225
0.0633623
0.0162069
0.00172857
0.000704396
0.000600331
0.00026866
4.90508e-05
7.34537e-06
-1.99321e-05
-2.64325e-05
-0.000121837
-0.000158972
-0.000356073
-0.000515029
-0.000775746
-0.00105556
0.294959
0.317256
0.539472
0.289155
0.0711303
0.0761335
0.111515
0.075807
0.017079
0.00165416
0.000217693
0.00022435
6.34273e-05
1.01693e-05
-3.87078e-06
2.19931e-06
2.61557e-05
3.2618e-05
4.45396e-05
2.90552e-05
3.15702e-05
-2.48664e-06
-0.00010904
0.263081
0.334572
0.512394
0.203031
0.0447854
0.062119
0.109314
0.0543334
0.0026169
-0.00113052
-0.00013942
7.34281e-05
-3.22271e-06
-1.57995e-05
-9.51531e-06
-6.94524e-06
-2.08362e-06
1.2128e-06
7.4871e-06
1.34347e-05
1.99303e-05
2.65283e-05
2.99639e-05
0.242486
0.344014
0.449311
0.181988
0.0443655
0.0464434
0.0982217
0.0611311
0.00853491
-8.4102e-05
5.87613e-05
-2.93688e-05
4.39851e-05
9.74693e-07
-9.54824e-06
-4.49731e-06
-2.39246e-06
-2.42609e-06
-1.9142e-06
6.30439e-07
2.72781e-06
6.3853e-06
7.96777e-06
0.227657
0.342948
0.342993
0.137371
0.039866
0.0364115
0.0841917
0.0474327
0.0039274
-0.000416825
0.0011131
0.000849173
0.000384254
5.52639e-05
-1.28197e-05
-6.19424e-06
-9.53527e-07
-3.14947e-07
-4.61546e-07
-2.4609e-07
-2.34707e-07
-2.0178e-07
-4.23956e-07
0.213798
0.326541
0.302722
0.0995328
0.0253899
0.0323612
0.0725299
0.0639263
0.0166359
0.0029563
0.00459488
0.00340101
0.00102983
0.000197316
1.47671e-05
-5.32334e-06
-2.8387e-07
6.33873e-08
1.53148e-07
1.38007e-07
1.87186e-08
-1.03475e-07
-2.27854e-07
0.204081
0.295114
0.265139
0.151852
0.0400637
0.032034
0.0625395
0.0720967
0.0359513
0.0102307
0.0113458
0.00545639
0.00140889
0.000266194
3.82623e-05
8.07242e-06
2.96954e-06
8.88224e-07
2.27501e-07
1.37934e-07
6.84936e-08
2.41472e-08
3.23099e-10
0.19609
0.238654
0.213543
0.154708
0.0593307
0.0331758
0.0625763
0.0740504
0.0671152
0.0340508
0.0156121
0.00541857
0.00158475
0.000278708
2.94689e-05
3.46345e-06
-2.28119e-06
-6.18264e-07
-6.08863e-08
1.39858e-08
2.20114e-09
-1.14638e-09
6.25887e-09
0.189514
0.156697
0.119377
0.132508
0.0487136
0.0320708
0.0524839
0.0728261
0.0615244
0.0357858
0.015867
0.00455327
0.000735947
-4.34499e-05
-3.8362e-05
-9.51228e-06
-2.39208e-06
-3.43307e-07
-1.90986e-08
5.61482e-09
7.25986e-10
-1.77657e-09
-1.65729e-10
0.169483
0.0863615
0.0579768
0.0730924
0.0340125
0.0278814
0.0499706
0.068905
0.0508676
0.0285508
0.0130536
0.00410562
0.00050116
-0.000166544
-4.88439e-05
-1.28631e-05
-1.98068e-06
-1.89537e-07
-8.69254e-09
5.33812e-09
1.68594e-09
-3.22728e-10
-8.61287e-10
0.111378
0.0556311
0.0385919
0.0332375
0.0251824
0.0293481
0.0564207
0.0687341
0.0551664
0.0379293
0.023503
0.00691797
0.00104779
0.000103034
-1.97898e-05
-8.07336e-06
-1.91264e-06
-2.14812e-07
-8.91118e-09
3.18698e-09
9.58255e-10
4.79935e-11
-7.58609e-10
0.0512764
0.039862
0.0346986
0.0314863
0.0301665
0.0359579
0.067858
0.0678743
0.0648424
0.0577822
0.0325899
0.00915791
0.00197022
0.000198589
-2.50653e-05
-1.06778e-05
-2.02406e-06
-2.12686e-07
-6.20061e-09
1.59494e-09
1.72195e-11
-8.43898e-10
-1.71025e-09
0.0424321
0.0412696
0.037593
0.0355935
0.0414599
0.0626456
0.085346
0.0785545
0.0804529
0.0633153
0.0252343
0.00412527
0.000311306
-0.000159982
-4.35842e-05
-7.24053e-06
-9.90986e-07
-8.16533e-08
1.34847e-09
6.00264e-10
-6.84373e-10
-1.31182e-09
-3.41905e-09
0.0507682
0.0468901
0.0488858
0.058213
0.0746731
0.0896428
0.0914059
0.087482
0.0805682
0.0580759
0.0172763
0.00219487
3.42385e-05
-0.000119176
-3.79336e-05
-4.67469e-06
-2.46195e-07
1.23961e-08
4.52868e-09
-3.28595e-10
-1.78618e-09
-2.2736e-09
-6.13336e-09
0.0676638
0.0636146
0.0717185
0.0839967
0.0901883
0.0898023
0.0896107
0.0845694
0.072913
0.0347791
0.00626546
0.000416494
-0.000213258
-7.21728e-05
-1.48486e-05
-1.11654e-06
1.11392e-08
1.33415e-08
1.53952e-09
-1.4115e-09
-2.38163e-09
-3.06416e-09
-2.45085e-09
0.0745296
0.0745548
0.0818415
0.0884776
0.0873754
0.0859529
0.0787931
0.0621361
0.0338225
0.00645065
-7.57328e-05
-0.000486219
-0.000162992
-2.66015e-05
-3.03884e-06
-1.66036e-07
1.3981e-08
5.968e-09
-6.71804e-10
-3.02968e-09
-9.17342e-10
7.17918e-09
1.52638e-08
0.0730101
0.0751958
0.0819999
0.0877534
0.0852853
0.0713892
0.0483235
0.0237116
0.00634965
0.000227829
-0.000448667
-0.000212303
-4.74872e-05
-6.47808e-06
-2.58827e-07
7.5316e-08
1.36788e-08
8.52159e-10
-2.83638e-09
-6.8441e-09
8.33883e-09
5.9652e-08
8.45333e-08
0.0671852
0.0741396
0.0817469
0.083389
0.0746238
0.0474852
0.0188133
0.00544162
0.000239618
-0.00051256
-0.000221945
-5.97056e-05
-8.04042e-06
-3.05117e-07
1.226e-07
2.01467e-08
1.43978e-09
-1.70946e-09
-5.87179e-09
-7.54496e-09
8.09617e-08
1.69509e-07
1.58e-07
0.0420751
0.0555671
0.065057
0.0618856
0.0450117
0.0169705
0.00394388
0.000124587
-0.000419634
-0.000214643
-5.98536e-05
-9.33504e-06
-3.01953e-07
1.65756e-07
3.18242e-08
2.06037e-09
-3.16894e-10
-4.77746e-09
-1.1275e-08
1.8838e-08
1.59209e-07
2.88889e-07
4.59625e-07
0.0117378
0.0198421
0.026077
0.0227122
0.0115992
0.00174131
-0.000395167
-0.000495562
-0.000204267
-4.85235e-05
-7.88983e-06
-2.57712e-07
1.99299e-07
4.27035e-08
2.17421e-09
-1.54068e-10
-1.98689e-09
-9.84883e-09
-1.22568e-08
1.05398e-07
3.54841e-07
3.89331e-07
-2.83265e-07
0.00192461
0.0037418
0.00491941
0.0039264
0.000981903
-0.000582925
-0.000379463
-0.000150569
-3.51904e-05
-4.8552e-06
-6.70143e-08
2.06318e-07
4.15807e-08
1.4001e-09
-2.65434e-10
8.45813e-11
-5.63035e-09
-1.96939e-08
1.17009e-08
3.12455e-07
6.53926e-07
-6.22306e-07
-2.67575e-06
7.50206e-05
0.000355419
0.000373489
0.00010888
-0.00031724
-0.000266409
-9.07133e-05
-2.0102e-05
-1.80559e-06
9.42538e-08
1.60863e-07
3.52103e-08
6.54121e-10
-5.33166e-10
9.14281e-11
-2.52189e-09
-1.35173e-08
-2.53868e-08
1.01804e-07
5.75566e-07
9.55527e-07
-2.87131e-06
-8.88455e-06
-6.0664e-05
-4.64244e-05
-8.35289e-05
-0.000107711
-0.000112797
-4.62321e-05
-9.61698e-06
-7.02204e-07
2.47504e-07
9.37432e-08
2.36078e-08
1.16667e-09
-4.44752e-10
1.30475e-10
-1.16814e-09
-8.07178e-09
-1.96343e-08
1.96319e-08
3.8763e-07
9.08969e-07
1.1123e-06
-5.04756e-06
-2.11317e-05
-2.02839e-05
-2.55931e-05
-3.26491e-05
-2.78412e-05
-1.86334e-05
-4.06054e-06
-1.51287e-07
1.84471e-07
7.11927e-08
1.05341e-08
6.62351e-10
-3.74241e-10
7.26515e-11
-4.24993e-11
-3.86169e-09
-9.73539e-09
-5.61632e-09
1.09411e-07
5.78672e-07
1.08751e-06
8.49919e-07
-5.71895e-06
-2.77925e-05
-4.30226e-06
-6.86206e-06
-6.90134e-06
-3.58483e-06
-1.44169e-06
3.43147e-08
1.17015e-07
2.78444e-08
2.17517e-09
-3.54228e-10
-2.4464e-10
2.21532e-11
9.64651e-11
-6.52132e-10
-4.84073e-09
-9.58983e-09
7.89552e-09
1.45672e-07
6.228e-07
1.16213e-06
8.76381e-07
-5.65136e-06
-3.03067e-05
-0.152659
0.616176
2.16274
-0.544715
-3.69104
-1.87549
2.10066
1.03407
0.946875
1.56188
1.47036
0.99159
3.07557
2.48257
1.04044
1.21301
2.55564
1.93399
1.94633
2.08595
2.35007
2.42062
2.55726
2.90906
3.04052
3.3119
3.73112
3.75327
3.13414
2.90742
2.93103
2.6889
2.8219
2.58755
2.36394
2.11359
3.42266
3.41014
3.48046
3.61275
3.4801
3.4814
3.47756
3.53862
0.481601
0.550335
0.630622
0.704188
-0.0363849
-0.0253233
0.0192095
0.0517186
0.0716629
0.0948267
0.126196
0.148464
0.0276217
0.0171247
0.00803549
0.00516336
0.00972012
0.00679284
0.0031505
0.00270765
0.000152001
0.000258261
-0.000103985
8.51912e-05
-0.000984374
-0.00098247
-0.00121568
-0.00168477
-0.000181191
-0.000232804
-0.000318312
-0.00047119
3.17281e-05
3.34129e-05
2.92214e-05
8.04131e-06
1.12936e-05
1.5248e-05
2.01893e-05
2.53877e-05
-6.05275e-07
9.3379e-08
1.93941e-06
5.16621e-06
-4.46734e-07
-5.78001e-07
-6.49533e-07
-5.30349e-07
-4.81189e-08
-1.27282e-07
-2.05101e-07
-2.83531e-07
1.1694e-08
8.31373e-09
-4.51084e-09
-3.07888e-08
2.64008e-09
3.60668e-09
2.96087e-09
3.39602e-09
-1.79314e-09
-2.74455e-09
-4.53723e-09
-2.88008e-09
-3.2476e-09
-5.85017e-09
-7.62762e-09
-1.16481e-10
-5.34966e-09
-8.77354e-09
-5.3429e-09
1.73088e-08
-1.19095e-08
-9.47783e-09
2.11426e-08
9.06387e-08
-2.3441e-08
-1.91405e-09
1.06134e-07
2.40614e-07
-1.27102e-08
5.76249e-08
2.78774e-07
5.35539e-07
1.09547e-08
2.07935e-07
7.42358e-07
1.27619e-06
2.56605e-07
6.9234e-07
1.71755e-06
2.54272e-06
4.82286e-07
5.44889e-07
1.59938e-06
4.58861e-07
1.70493e-07
-2.31717e-07
-1.61428e-06
-1.01658e-05
-6.36609e-06
-1.39931e-05
-1.95959e-05
-3.16872e-05
-1.47767e-05
-3.40837e-05
-5.10482e-05
-6.20041e-05
-2.598e-05
-4.89259e-05
-8.16953e-05
-9.67916e-05
-5.00166e-05
-7.22973e-05
-9.75789e-05
-0.000117829
-6.08698e-05
-8.98568e-05
-0.000113249
-0.000129358
-6.16741e-05
-9.34403e-05
-0.00011835
-0.000131658
-0.207702
2.96501
1.46679
0.881488
1.62668
1.53342
0.723468
0.071121
-0.285015
-1.35976
0.496194
-0.127223
0.0489396
0.603421
2.30933
3.60093
1.52793
0.643661
1.7852
1.02407
1.19804
0.885008
1.65006
2.7856
2.58834
1.79433
1.7323
1.57377
1.2741
0.255365
0.647747
-0.399519
-0.751263
0.147108
2.54214
-0.652992
1.28316
1.34534
1.41433
1.12853
3.3712
3.13077
3.32595
2.48905
2.20989
1.84053
1.86845
2.63998
0.906759
-0.0127161
0.459408
0.203492
1.85574
1.28669
0.650636
0.723209
0.438624
2.15637
3.01555
3.58703
3.89411
3.12856
2.78567
2.12626
1.79834
1.83958
1.83017
0.608133
0.934066
2.56487
1.49411
2.17841
-1.09555
2.52279
1.4944
-0.607794
2.03396
3.61358
4.26215
0.95182
1.29131
1.86473
1.75283
1.58132
1.39857
1.23457
1.63676
3.78214
2.71959
1.77033
1.65349
1.24546
1.77661
0.322758
-1.03196
3.73578
3.17175
1.56762
1.56117
1.81603
2.0225
2.53876
2.8144
2.60498
1.68588
3.39023
3.29416
3.03267
2.41371
2.08216
3.41079
1.26103
0.0749422
-0.936908
2.88902
1.52484
1.63004
1.83636
2.50716
2.58232
2.64997
2.98646
3.35938
3.61794
3.41645
3.12095
2.47422
2.32286
2.79962
1.95659
1.48766
0.648465
-0.735632
2.38548
2.11116
2.08854
2.53469
3.14191
2.92459
2.4746
2.30198
2.3235
2.64789
2.63719
2.25901
2.12333
2.99499
2.98287
1.91368
2.0912
0.983293
0.123417
1.94507
1.59927
1.77385
1.98283
2.90568
3.36893
3.14182
2.94554
2.16862
1.98806
2.10575
2.53199
3.08558
3.57698
2.99155
2.29172
2.31717
2.50503
1.47355
3.574
3.41255
2.64499
2.34339
1.70255
2.96481
3.87518
3.85476
3.87028
4.00355
3.85367
3.87193
3.86547
2.21375
1.99262
2.23272
1.96073
2.65887
2.72696
3.6226
3.72226
3.71182
3.69762
3.33567
2.97387
2.77285
3.25887
3.64938
3.51521
2.96711
2.48157
1.82283
1.54311
1.3183
1.70563
1.80359
1.77307
2.13855
0.934006
1.94904
2.64482
3.13232
3.17715
2.85832
2.18826
1.97354
2.0653
1.60402
1.56075
1.35336
1.49431
1.27171
1.01179
1.36241
1.57811
1.55928
1.6665
0.16092
0.456378
0.88535
1.00233
0.973414
1.07694
0.908359
0.903217
0.957079
0.876898
0.848762
0.786756
0.76189
0.801689
0.791884
0.932863
1.34172
1.44932
1.50151
0.209509
0.324902
0.394173
0.346235
0.368486
0.442951
0.365241
0.526181
0.613996
0.419119
0.346193
0.50959
0.331388
0.381885
0.458321
0.4248
1.14581
1.25659
1.36779
0.0219401
0.10073
0.179222
0.18451
0.195859
0.217884
0.178858
0.266629
0.302642
0.175955
0.148091
0.204601
0.16664
0.103545
0.197942
0.281914
0.934118
0.972614
1.27656
0.0157027
0.0609497
0.100003
0.114991
0.129923
0.0894591
0.077364
0.0667849
0.0474486
0.0328154
0.0557554
0.0737982
0.0780673
0.00430841
0.073893
0.191737
0.684706
0.746943
1.20774
0.00484779
0.0222884
0.0428573
0.0511685
0.0919969
0.0381291
0.0314768
0.0171137
0.0114755
0.00601575
0.0161198
0.0235589
0.024089
-0.00427241
0.0213034
0.136793
0.353728
0.531941
1.14605
-0.00200485
-0.00231349
0.00367765
0.00583028
0.0628472
0.0184946
0.0176939
0.00959052
0.00674909
0.0033324
0.00293937
0.00435326
0.00548524
-0.000390583
-0.00809714
-0.0115253
0.0539943
0.383405
1.07883
-0.000872623
-0.00168959
-0.00145582
-0.00257947
0.0142938
0.00643559
0.00550499
0.0047972
0.00311545
0.00176004
0.000775298
0.00128195
0.00106962
-0.000160451
-0.00379634
-0.0143919
-0.00334438
0.361896
0.985434
-8.05929e-05
-0.000439902
-0.000822616
-0.00168833
-0.00202001
-0.000163457
0.000416265
0.000913413
0.000971885
0.000685358
0.000302724
0.000402965
0.000458036
-2.90293e-05
-0.00250538
-0.0128522
0.000690743
0.417576
0.88234
2.79048e-05
-6.42048e-06
-0.000116413
-0.000417749
-0.00074648
-0.000503153
-0.000412959
-0.000191243
-5.62268e-05
-1.07283e-05
7.18337e-05
4.15195e-05
0.000151951
-0.000111477
-0.00261873
-0.0146429
0.0225421
0.481762
0.733052
9.86425e-06
1.76666e-05
1.99675e-05
8.66049e-08
-0.000143149
-0.000161211
-0.000161145
-0.000141036
-8.75905e-05
-6.90025e-05
-3.07245e-05
-1.35326e-05
1.70171e-05
-0.000118725
-0.00313745
-0.016037
0.0474454
0.504798
0.583227
3.23653e-07
4.61272e-06
8.68966e-06
1.53745e-05
3.5003e-06
-8.50382e-06
-2.66353e-05
-4.26266e-05
-4.2536e-05
-3.89119e-05
-3.11764e-05
-1.56079e-05
1.75825e-05
-0.000225543
-0.00384374
-0.0123571
0.0759199
0.468116
0.480464
-2.91425e-07
-3.4149e-08
1.50822e-06
3.8622e-06
6.37022e-06
5.96173e-06
1.09445e-06
-3.35714e-06
-6.1218e-06
-9.67892e-06
-1.18358e-05
-8.62651e-06
2.28569e-05
-0.000323246
-0.00385588
-0.00797279
0.0970001
0.362889
0.408129
-7.0506e-08
-1.79614e-07
-1.68405e-07
2.47376e-07
1.36018e-06
1.46472e-06
1.45332e-06
9.22233e-07
-2.75045e-07
-1.70431e-06
-5.36997e-06
-3.68051e-06
1.14213e-05
-0.000422059
-0.0031187
-0.00529014
0.0724472
0.267424
0.352243
9.7881e-09
-9.15945e-09
-1.23692e-08
1.59827e-08
1.66632e-07
3.15219e-07
5.09863e-07
4.4046e-07
-6.85809e-08
-1.56181e-06
-5.43485e-06
-8.70817e-06
8.52334e-06
-0.000206182
-0.00223286
-0.00233888
0.0465881
0.216172
0.303807
1.89595e-08
4.7494e-08
8.15777e-08
1.24407e-07
1.25858e-07
2.17195e-07
1.4324e-07
1.2849e-07
-7.03221e-08
-1.5472e-06
-7.5538e-06
-1.57273e-05
-3.94377e-07
-0.000137667
-0.00168255
-0.00504307
0.0324658
0.181442
0.261595
4.56666e-08
7.60674e-08
1.28561e-07
2.05263e-07
1.71978e-07
-1.08489e-07
-4.65334e-07
-3.2334e-07
-6.89237e-07
-3.01711e-06
-1.11256e-05
-1.9318e-05
-4.52846e-06
-6.74116e-05
-0.00118025
-0.00376039
0.0254929
0.147472
0.226216
8.0829e-08
8.06037e-08
1.30327e-07
-9.82867e-08
-1.32519e-07
-1.75855e-06
-3.91663e-06
-2.38671e-06
-2.4382e-06
-6.8839e-06
-1.82944e-05
-1.75495e-05
5.6512e-07
-4.97146e-05
-0.000946919
-0.00321416
0.0191311
0.116495
0.196934
1.45722e-07
6.49849e-08
-1.51157e-07
-1.56057e-06
-2.74074e-06
-1.01355e-05
-9.63824e-06
-9.31284e-06
-1.34844e-05
-1.6035e-05
-2.2489e-05
-1.95861e-05
7.58486e-06
-2.06854e-05
-0.000661632
-0.00131581
0.0155619
0.0931565
0.172254
3.14716e-07
-6.00007e-07
-3.40038e-06
-5.49049e-06
-1.30618e-05
-2.65825e-05
-2.67769e-05
-3.1956e-05
-3.31837e-05
-3.16809e-05
-3.16176e-05
-3.73028e-05
-3.02211e-05
-7.26766e-05
-0.000798728
-0.00256278
0.00978282
0.0774091
0.151764
8.34438e-07
-7.30612e-07
-9.0106e-06
-1.5309e-05
-3.41375e-05
-4.24578e-05
-4.32626e-05
-4.48513e-05
-4.62774e-05
-4.65309e-05
-4.75773e-05
-5.03466e-05
-4.92959e-05
-0.000137118
-0.000734562
-0.00180668
0.0137422
0.0635008
0.133745
4.17925e-07
-5.17173e-06
-2.57141e-05
-4.2599e-05
-5.07216e-05
-5.52036e-05
-6.15701e-05
-5.64364e-05
-5.88023e-05
-5.74225e-05
-6.2377e-05
-6.60053e-05
-6.76992e-05
-0.00013596
-0.000494907
0.000451728
0.0137053
0.0451218
0.118807
-1.81914e-06
-1.99068e-05
-5.37122e-05
-5.98827e-05
-6.05836e-05
-5.34836e-05
2.5674e-06
-4.71154e-06
-2.06999e-05
-2.26674e-05
-3.49487e-05
-5.80746e-05
-8.16318e-05
-0.000117984
-0.000305773
0.000582542
0.00716918
0.0284725
0.10655
-6.10614e-06
-5.33464e-05
-7.11672e-05
-6.90238e-05
-5.76666e-05
5.42273e-06
0.000220433
0.000161209
0.000185014
0.000166971
0.000126078
4.93038e-05
-2.62815e-05
-8.56915e-05
-0.000151061
-0.000735986
-0.00127358
0.0140771
0.0969945
-3.34203e-05
-8.10921e-05
-8.32952e-05
-6.60759e-05
5.32235e-05
0.000177382
0.000530936
0.000464782
0.000769239
0.000668803
0.000536169
0.000352873
0.000190327
3.03726e-05
-9.20661e-05
-0.000557652
-0.00101758
0.0142114
0.0884531
-6.88628e-05
-8.44816e-05
-8.37316e-05
-2.18196e-07
0.000196653
0.000367434
0.000779289
0.00112786
0.00158559
0.00139179
0.00116385
0.000763813
0.000391135
7.49843e-05
-3.7917e-06
-0.000392681
-0.0028321
-0.0039764
0.0740049
-9.85159e-05
-9.30917e-05
-3.46425e-05
0.000171371
0.000640021
0.00109243
0.00156627
0.00227664
0.00221673
0.00223977
0.00195187
0.00126768
0.000664187
0.000219954
0.00012104
-0.000542797
-0.00289913
0.00686702
0.101859
-0.000113378
-9.33729e-05
5.81831e-05
0.000465874
0.00102382
0.00178601
0.00229187
0.00296138
0.00287579
0.00291503
0.00275066
0.00247512
0.00177641
0.000873612
0.0002842
-0.00063157
-0.00214263
0.00842347
0.09295
-0.000121488
-7.67151e-05
0.000138548
0.000735768
0.00130261
0.00200445
0.00284845
0.00332671
0.00327886
0.0030734
0.00270153
0.00220332
0.00162915
0.0010377
0.000717523
-0.000324014
-0.00164846
0.00534605
0.0636888
-0.000127661
-5.09109e-05
0.00031027
0.000818673
0.0014139
0.00202641
0.00292738
0.00349283
0.00336993
0.00289417
0.00237062
0.00198052
0.00163514
0.00114254
0.000684832
-0.000151351
-0.000918854
-0.00185832
0.0347448
-0.000130631
-5.5982e-05
0.000388601
0.00087929
0.00147375
0.00208042
0.00298968
0.00353449
0.00328006
0.0027457
0.00220335
0.00174426
0.00135509
0.00105841
0.000877457
0.000548807
-0.00054321
-0.00285264
0.00832308
)
;

boundaryField
{
    leftWall
    {
        type            zeroGradient;
    }
    rightWall
    {
        type            zeroGradient;
    }
    lowerWall
    {
        type            zeroGradient;
    }
    atmosphere
    {
        type            zeroGradient;
    }
    defaultFaces
    {
        type            empty;
    }
}


// ************************************************************************* //
