/*--------------------------------*- C++ -*----------------------------------*\
| =========                 |                                                 |
| \\      /  F ield         | foam-extend: Open Source CFD                    |
|  \\    /   O peration     | Version:     4.1                                |
|   \\  /    A nd           | Web:         http://www.foam-extend.org         |
|    \\/     M anipulation  |                                                 |
\*---------------------------------------------------------------------------*/
FoamFile
{
    version     2.0;
    format      ascii;
    class       volVectorField;
    location    "0.7";
    object      U;
}
// * * * * * * * * * * * * * * * * * * * * * * * * * * * * * * * * * * * * * //

dimensions      [0 1 -1 0 0 0 0];

internalField   nonuniform List<vector> 
2268
(
(0.00460852 0.00964895 0)
(-0.0654816 0.0133664 0)
(-0.0831359 0.00807748 0)
(-0.133312 -0.0142833 0)
(-0.162538 0.00259607 0)
(-0.161918 -0.000551735 0)
(-0.168927 0.00153613 0)
(-0.169049 -2.24609e-05 0)
(-0.161998 -0.00402649 0)
(-0.172063 -0.00654242 0)
(-0.14497 -0.0176498 0)
(-0.0871799 0.00250029 0)
(-0.0684865 -0.00858644 0)
(-0.0655175 -0.0119805 0)
(-0.0517701 -0.0156918 0)
(-0.0473355 -0.0102393 0)
(-0.0398376 -0.00273208 0)
(-0.0409093 -0.0138718 0)
(-0.0460091 -0.00279367 0)
(-0.0143964 -0.00275791 0)
(0.00092944 0.000121979 0)
(-0.00192482 -0.000184151 0)
(0.0143477 -0.00444597 0)
(0.00386808 0.0173418 0)
(-0.0651025 0.0301743 0)
(-0.088711 0.0191065 0)
(-0.131655 -0.013453 0)
(-0.159505 0.0033479 0)
(-0.161994 0.00143142 0)
(-0.166473 0.000626416 0)
(-0.166407 -0.00376673 0)
(-0.152168 0.00575278 0)
(-0.145935 -0.000764976 0)
(-0.102567 -0.00368255 0)
(-0.0715127 0.0162097 0)
(-0.0641315 -0.00202848 0)
(-0.0613975 -0.0022972 0)
(-0.0412742 -0.00232951 0)
(-0.0320141 0.00579315 0)
(-0.0286653 -0.00449917 0)
(-0.0187697 -0.00404661 0)
(-0.0225202 0.0113756 0)
(-0.0157628 -0.0213062 0)
(-0.0122339 -0.00615916 0)
(-0.00061756 -0.00599343 0)
(0.0304734 0.0100352 0)
(-0.00499864 0.0259964 0)
(-0.0706076 0.0379294 0)
(-0.0949381 0.023901 0)
(-0.133418 -0.000468448 0)
(-0.160745 0.00917069 0)
(-0.159008 0.00112476 0)
(-0.16394 0.00819415 0)
(-0.161727 -0.00299008 0)
(-0.148214 -0.010344 0)
(-0.158741 -0.0298479 0)
(-0.118238 0.00740726 0)
(-0.0838617 -0.0159053 0)
(-0.0877816 -0.0266845 0)
(-0.0853359 -0.0325099 0)
(-0.0725048 -0.0227631 0)
(-0.071644 -0.0249511 0)
(-0.0452421 -0.0193459 0)
(-0.0314225 -0.0100464 0)
(-0.0289969 -0.0184652 0)
(-0.0148021 -0.0199415 0)
(0.00934124 -0.0143559 0)
(-0.0024714 -0.0378686 0)
(0.0298668 0.010261 0)
(-0.0113413 0.0506682 0)
(-0.0773976 0.0350967 0)
(-0.100397 0.0321764 0)
(-0.135218 0.00646431 0)
(-0.157085 0.00886811 0)
(-0.157095 0.000975605 0)
(-0.173472 0.00363156 0)
(-0.175334 -0.0189716 0)
(-0.157606 0.00422348 0)
(-0.142119 0.0106224 0)
(-0.129201 0.0193352 0)
(-0.137544 -0.00711375 0)
(-0.142824 -0.00325131 0)
(-0.138795 -0.00615215 0)
(-0.118556 -0.00703854 0)
(-0.112125 -0.024172 0)
(-0.084139 -0.00724831 0)
(-0.0767854 -0.00492051 0)
(-0.0595518 -0.0024083 0)
(-0.0541267 -0.0279932 0)
(-0.0119307 -0.0013747 0)
(-0.0120624 -0.02721 0)
(0.0484566 0.0200855 0)
(-0.0204346 0.0664068 0)
(-0.0826403 0.0438683 0)
(-0.104843 0.0361366 0)
(-0.140685 0.0148626 0)
(-0.158929 0.0147975 0)
(-0.171832 0.00455686 0)
(-0.192504 0.0171702 0)
(-0.169935 0.00547644 0)
(-0.157471 -0.0272915 0)
(-0.165927 0.0193088 0)
(-0.163824 0.00851843 0)
(-0.180847 -0.00352245 0)
(-0.176238 -0.021162 0)
(-0.175542 -0.0374429 0)
(-0.172155 -0.0443723 0)
(-0.160329 -0.0409798 0)
(-0.132106 -0.0266886 0)
(-0.125966 -0.0215001 0)
(-0.119159 -0.0210072 0)
(-0.0929787 -0.0515933 0)
(-0.029536 -0.0334646 0)
(-0.0188157 -0.022425 0)
(0.0507827 0.0278262 0)
(-0.01617 0.0773438 0)
(-0.0878343 0.0509677 0)
(-0.116366 0.0473149 0)
(-0.148158 0.0181421 0)
(-0.166178 0.0156916 0)
(-0.172387 0.00755604 0)
(-0.185999 0.00908765 0)
(-0.211234 0.0360793 0)
(-0.202994 0.0184978 0)
(-0.194176 0.020492 0)
(-0.2096 0.0258793 0)
(-0.215439 0.00400165 0)
(-0.212543 -0.010131 0)
(-0.208826 -0.0310831 0)
(-0.188225 -0.0396851 0)
(-0.180298 -0.0420722 0)
(-0.171445 -0.0202595 0)
(-0.171542 -0.0302548 0)
(-0.164848 -0.0227449 0)
(-0.128837 -0.0826065 0)
(-0.0594818 -0.0276957 0)
(0.0101509 -0.044648 0)
(0.05553 0.05964 0)
(-0.0275704 0.0904817 0)
(-0.0988128 0.0777506 0)
(-0.144402 0.0464468 0)
(-0.176135 0.0284022 0)
(-0.187132 0.0208442 0)
(-0.205943 0.00904332 0)
(-0.228269 0.014195 0)
(-0.24043 0.0266848 0)
(-0.233919 0.0456387 0)
(-0.235616 0.021641 0)
(-0.231498 0.0204238 0)
(-0.22845 -0.00155266 0)
(-0.219828 -0.0087305 0)
(-0.219434 -0.0249856 0)
(-0.20348 -0.0335976 0)
(-0.187401 -0.0504579 0)
(-0.180137 -0.0386035 0)
(-0.194035 -0.0839634 0)
(-0.192761 -0.0788134 0)
(-0.120946 -0.087099 0)
(-0.0723346 -0.15154 0)
(0.0356326 -0.0617878 0)
(0.0759871 0.0950844 0)
(-0.022855 0.109387 0)
(-0.12717 0.121252 0)
(-0.173995 0.0935358 0)
(-0.193368 0.036071 0)
(-0.21031 0.0305288 0)
(-0.240677 0.0237926 0)
(-0.279462 0.0239702 0)
(-0.28451 0.0223895 0)
(-0.267556 0.0292671 0)
(-0.258452 0.0233273 0)
(-0.251911 0.026113 0)
(-0.240143 -0.000235057 0)
(-0.23151 -0.0163636 0)
(-0.223356 -0.0308446 0)
(-0.203438 -0.0496728 0)
(-0.185277 -0.0533577 0)
(-0.183922 -0.0560503 0)
(-0.193036 -0.111161 0)
(-0.158423 -0.0771695 0)
(-0.158064 -0.062896 0)
(-0.101469 -0.176972 0)
(0.127287 -0.106935 0)
(0.0931112 0.137341 0)
(-0.990663 0.183838 0)
(-0.943278 0.0994898 0)
(-1.13485 -0.0324824 0)
(-1.26354 -0.0132729 0)
(-1.25327 -0.0613154 0)
(-1.17917 -0.0481984 0)
(-1.17085 -0.0618719 0)
(-1.16725 -0.0763518 0)
(-1.14336 -0.0607212 0)
(-1.13907 -0.0358111 0)
(-1.29384 0.0271583 0)
(-1.44885 0.000719877 0)
(-1.50226 0.0279623 0)
(-1.47324 -0.117877 0)
(-1.59136 -0.177529 0)
(-1.67604 -0.0921864 0)
(-1.20735 -0.00799157 0)
(-0.959038 -0.356747 0)
(-0.253497 -0.0808843 0)
(-0.916369 0.291444 0)
(-0.900691 0.2948 0)
(-0.986058 0.151722 0)
(-1.0755 0.113773 0)
(-0.922776 -0.0375998 0)
(-0.784331 0.0252449 0)
(-0.778966 0.0324416 0)
(-0.823615 0.108506 0)
(-0.917776 0.0953096 0)
(-0.974537 0.132097 0)
(-1.21465 0.146492 0)
(-1.39371 0.0909945 0)
(-1.53881 -0.00620444 0)
(-1.65097 0.00489759 0)
(-1.66497 -0.251253 0)
(-1.76926 -0.0136304 0)
(-1.46299 0.203736 0)
(-0.844943 -0.414038 0)
(-0.309249 -0.45044 0)
(-0.945822 0.555044 0)
(-0.852782 0.481853 0)
(-0.889325 0.0983998 0)
(-1.02287 -0.0103084 0)
(-0.796505 -0.160279 0)
(-0.467082 -0.12762 0)
(-0.375824 0.0340428 0)
(-0.263271 0.0428791 0)
(-0.263232 0.096971 0)
(-0.52699 0.0974104 0)
(-0.867737 0.115773 0)
(-1.09868 -0.0186762 0)
(-1.16346 -0.287376 0)
(-1.50362 -0.191598 0)
(-1.62521 -0.35896 0)
(-1.63234 -0.147317 0)
(-1.47568 0.0308439 0)
(-0.678406 -0.30864 0)
(-0.199112 -0.62647 0)
(-0.830196 0.658472 0)
(-0.678691 0.559522 0)
(-0.541551 0.0472973 0)
(-0.728085 -0.14673 0)
(-0.592176 -0.0720319 0)
(-0.431922 -0.29507 0)
(-0.192719 -0.164875 0)
(-0.123898 0.0290939 0)
(-0.0339683 0.118224 0)
(0.0357592 0.299299 0)
(-0.465531 0.364693 0)
(-0.654724 0.21795 0)
(-0.525323 -0.129316 0)
(-0.971225 -0.224254 0)
(-1.22578 -0.247298 0)
(-1.26051 -0.0978681 0)
(-1.00119 -0.237739 0)
(-0.764391 -0.272166 0)
(-0.0908929 -0.868951 0)
(-0.758533 0.844801 0)
(-0.477982 0.700299 0)
(-0.342431 0.134228 0)
(-0.61778 -0.0699632 0)
(-0.379078 -0.169394 0)
(-0.25342 -0.47292 0)
(0.0558074 -0.144554 0)
(0.0824477 -0.0355864 0)
(0.0915289 0.0685724 0)
(0.245421 0.253164 0)
(0.306906 0.709846 0)
(0.0277181 0.661338 0)
(-0.26648 0.0695618 0)
(-0.655499 -0.103446 0)
(-1.03691 -0.295486 0)
(-1.26646 0.0877303 0)
(-0.946857 -0.311495 0)
(-0.73489 -0.28393 0)
(-0.0350463 -0.956794 0)
(-0.64324 0.913781 0)
(-0.339234 0.67766 0)
(-0.294629 0.140051 0)
(-0.612285 -0.0305132 0)
(-0.344024 -0.293812 0)
(-0.111116 -0.479875 0)
(0.193148 -0.264024 0)
(0.198593 0.000606175 0)
(0.189159 0.0629462 0)
(0.304611 0.186146 0)
(0.511273 0.559519 0)
(0.298665 0.384192 0)
(0.282848 0.250874 0)
(-0.417477 -0.105077 0)
(-0.690139 -0.336232 0)
(-1.00566 -0.103731 0)
(-0.663619 -0.338936 0)
(-0.502187 -0.422062 0)
(0.0271753 -1.03619 0)
(-0.60927 1.04026 0)
(-0.179124 0.747511 0)
(-0.149985 0.129347 0)
(-0.442831 0.0309103 0)
(-0.0534621 -0.376168 0)
(0.0554033 -0.354975 0)
(0.274765 -0.273186 0)
(0.298264 -0.00153046 0)
(0.252264 0.0708974 0)
(0.314615 0.125767 0)
(0.59908 0.370019 0)
(0.533252 0.430618 0)
(0.576788 0.382859 0)
(0.330739 0.205508 0)
(0.0500071 -0.10798 0)
(-0.471872 -0.00166213 0)
(-0.417636 -0.564211 0)
(-0.3709 -0.547891 0)
(0.0769091 -1.09377 0)
(-0.51943 1.12469 0)
(-0.0524474 0.699614 0)
(0.00305298 0.189587 0)
(-0.161084 -0.109922 0)
(0.198293 -0.434019 0)
(0.214608 -0.457615 0)
(0.343848 -0.274501 0)
(0.358558 -0.098252 0)
(0.30144 0.0154521 0)
(0.386519 0.0986502 0)
(0.682322 0.398625 0)
(0.660164 0.401732 0)
(0.694284 0.376063 0)
(0.634777 0.231836 0)
(0.385396 -0.03095 0)
(-0.241135 -0.000579632 0)
(-0.0675978 -0.373816 0)
(-0.117153 -0.603092 0)
(0.106718 -1.09357 0)
(-0.0491736 0.134135 0)
(-0.164913 0.140964 0)
(-0.272713 0.143041 0)
(-0.271185 0.0634393 0)
(-0.240402 0.0515038 0)
(-0.284786 0.0486954 0)
(-0.305216 0.048539 0)
(-0.305556 0.0280985 0)
(-0.284318 0.0254596 0)
(-0.273454 0.00449177 0)
(-0.250314 0.00523733 0)
(-0.234473 -0.0342505 0)
(-0.214999 -0.0556 0)
(-0.214598 -0.0629177 0)
(-0.208433 -0.0590337 0)
(-0.183828 -0.0668968 0)
(-0.191623 -0.0992777 0)
(-0.177404 -0.0758971 0)
(-0.143509 -0.10871 0)
(-0.155022 -0.0788057 0)
(-0.105961 -0.16252 0)
(0.12446 -0.165297 0)
(0.222283 0.0884008 0)
(-0.0732417 0.21768 0)
(-0.327903 0.211732 0)
(-0.369395 0.183951 0)
(-0.310975 0.228331 0)
(-0.287522 0.158366 0)
(-0.319757 0.0692841 0)
(-0.335053 0.0436342 0)
(-0.314519 -0.00134201 0)
(-0.280691 0.0112689 0)
(-0.263929 -0.00885494 0)
(-0.247819 0.00161264 0)
(-0.242165 -0.0714457 0)
(-0.209793 -0.0525592 0)
(-0.186182 -0.0816995 0)
(-0.173474 -0.0704093 0)
(-0.196774 -0.0839657 0)
(-0.162237 -0.120578 0)
(-0.175446 -0.109473 0)
(-0.168835 -0.219407 0)
(-0.136204 -0.196008 0)
(-0.111867 -0.291896 0)
(0.111378 -0.269781 0)
(0.162287 -0.20491 0)
(-0.0987439 0.334159 0)
(-0.359817 0.318957 0)
(-0.368775 0.330178 0)
(-0.348802 0.262395 0)
(-0.444511 0.226647 0)
(-0.4248 0.0808447 0)
(-0.417682 0.0405727 0)
(-0.283087 -0.0336 0)
(-0.232822 -0.0187534 0)
(-0.229835 -0.0323775 0)
(-0.305608 -0.0366401 0)
(-0.299068 -0.00641612 0)
(-0.185294 -0.0614411 0)
(-0.217415 -0.0390095 0)
(-0.233445 -0.0579852 0)
(-0.260486 -0.0573068 0)
(-0.262773 -0.0596556 0)
(-0.34989 -0.139079 0)
(-0.319591 -0.165962 0)
(-0.28838 -0.281333 0)
(-0.270853 -0.347622 0)
(-0.220129 -0.435721 0)
(-0.313036 -0.147279 0)
(-0.0949283 0.469413 0)
(-0.325478 0.377944 0)
(-0.37101 0.295401 0)
(-0.307182 0.105822 0)
(-0.475869 -0.00686884 0)
(-0.558293 0.0411435 0)
(-0.483141 0.0151035 0)
(-0.414711 0.100132 0)
(-0.336415 0.00893761 0)
(-0.375183 -0.00288414 0)
(-0.328718 -0.103487 0)
(-0.48949 0.0195023 0)
(-0.380755 -0.0965111 0)
(-0.259258 -0.0465395 0)
(-0.30919 -0.00293132 0)
(-0.316784 -0.0514102 0)
(-0.37445 -0.0605553 0)
(-0.411564 -0.176827 0)
(-0.45385 -0.172518 0)
(-0.575884 -0.293057 0)
(-0.681195 -0.330365 0)
(-0.691484 -0.170274 0)
(-0.983017 0.508923 0)
(-0.160765 0.703621 0)
(-0.275942 0.545451 0)
(-0.287499 0.333238 0)
(-0.222235 0.181076 0)
(-0.378451 -0.0169285 0)
(-0.440338 0.0825792 0)
(-0.441231 0.048104 0)
(-0.494032 0.162817 0)
(-0.422282 -0.0212905 0)
(-0.540408 -0.100434 0)
(-0.533444 -0.174927 0)
(-0.552924 -0.188531 0)
(-0.528658 -0.0135361 0)
(-0.475659 -0.0533689 0)
(-0.664788 -0.0442489 0)
(-0.680451 -0.0483736 0)
(-0.599402 -0.0561316 0)
(-0.37689 -0.00531321 0)
(-0.261006 0.111138 0)
(-0.793899 -0.352853 0)
(-1.00739 -0.413229 0)
(-0.915241 -0.0772617 0)
(-0.898696 0.500956 0)
(-0.0624141 0.91408 0)
(-0.176523 0.523237 0)
(-0.00366211 0.269252 0)
(-0.0392566 0.20017 0)
(-0.198768 0.280485 0)
(-0.359509 0.405702 0)
(-0.300381 0.260492 0)
(-0.466968 0.261326 0)
(-0.635717 0.210025 0)
(-0.835491 0.198824 0)
(-1.03694 0.0829346 0)
(-1.17127 0.00326672 0)
(-1.18555 -0.097164 0)
(-1.20805 -0.142701 0)
(-1.19358 -0.181403 0)
(-1.10445 -0.142504 0)
(-0.944426 -0.0696098 0)
(-0.860811 -0.0437818 0)
(-1.01834 -0.0276438 0)
(-1.2801 -0.139534 0)
(-1.00245 0.0405444 0)
(-0.916277 0.239099 0)
(-0.928945 0.328272 0)
(-0.210648 1.04335 0)
(-0.218717 0.637844 0)
(-0.46257 0.372534 0)
(-1.04825 0.457254 0)
(-1.25408 0.330095 0)
(-1.40736 0.366862 0)
(-1.52743 0.298987 0)
(-1.61557 0.307151 0)
(-1.63512 0.270129 0)
(-1.61794 0.18041 0)
(-1.59985 0.0558215 0)
(-1.54606 -0.073216 0)
(-1.53719 -0.166026 0)
(-1.51916 -0.250361 0)
(-1.51018 -0.284519 0)
(-1.4459 -0.278794 0)
(-1.43073 -0.242383 0)
(-1.32353 -0.284795 0)
(-1.2805 -0.284765 0)
(-1.20862 -0.179438 0)
(-1.20319 -0.00394064 0)
(-1.01969 0.0285586 0)
(-0.924364 0.085182 0)
(-0.208165 1.33805 0)
(-0.613208 1.21998 0)
(-0.989974 0.909661 0)
(-1.28348 0.65001 0)
(-1.32185 0.46489 0)
(-1.4955 0.471338 0)
(-1.54024 0.473947 0)
(-1.54304 0.393607 0)
(-1.4713 0.301342 0)
(-1.43435 0.196233 0)
(-1.35025 0.0317237 0)
(-1.31092 -0.112025 0)
(-1.3888 -0.217497 0)
(-1.42167 -0.315484 0)
(-1.41859 -0.348401 0)
(-1.36309 -0.346498 0)
(-1.59877 -0.349386 0)
(-1.66138 -0.286315 0)
(-1.56841 -0.207028 0)
(-1.24489 -0.0413747 0)
(-1.12884 0.036633 0)
(-1.15706 -0.0799838 0)
(-1.08841 -0.148946 0)
(-0.450685 1.8576 0)
(-0.598727 1.8909 0)
(-0.871884 1.04095 0)
(-1.13972 0.836661 0)
(-1.12132 0.666797 0)
(-1.26708 0.56834 0)
(-1.22752 0.456059 0)
(-1.04232 0.295214 0)
(-0.875626 0.227316 0)
(-0.779155 0.101447 0)
(-0.563747 -0.0190709 0)
(-0.52269 -0.124551 0)
(-0.490986 -0.265881 0)
(-0.61082 -0.319167 0)
(-0.762296 -0.302101 0)
(-0.930584 -0.373175 0)
(-1.24186 -0.433309 0)
(-1.38871 -0.128648 0)
(-1.3857 -0.0391951 0)
(-1.35468 0.0428954 0)
(-1.60693 -0.119371 0)
(-1.76387 -0.102396 0)
(-1.17249 -0.184655 0)
(-0.343128 2.1749 0)
(-0.457151 2.26876 0)
(-0.800511 1.35491 0)
(-0.964512 1.09633 0)
(-0.897415 0.918347 0)
(-0.99617 0.595153 0)
(-0.757566 0.328265 0)
(-0.528604 0.130446 0)
(-0.433263 0.0540999 0)
(-0.207861 -0.0763423 0)
(-0.186177 -0.174293 0)
(-0.184263 -0.0707347 0)
(-0.338626 -0.00507919 0)
(-0.47225 -0.0104687 0)
(-0.513857 0.10835 0)
(-0.644019 -0.102352 0)
(-0.733932 -0.260159 0)
(-0.900982 -0.21315 0)
(-1.00378 -0.231317 0)
(-1.10689 -0.230946 0)
(-1.23179 -0.335655 0)
(-1.36938 -0.0942498 0)
(-1.33004 -0.0206159 0)
(-0.375405 2.50968 0)
(-0.259275 2.72583 0)
(-0.599552 1.44913 0)
(-0.68981 1.03077 0)
(-0.747765 0.901176 0)
(-0.891286 0.377605 0)
(-0.554192 0.024088 0)
(-0.531098 -0.0914547 0)
(-0.655828 -0.123532 0)
(-0.256858 -0.194573 0)
(-0.340102 -0.115388 0)
(-0.346809 -0.00779202 0)
(-0.572461 0.0258525 0)
(-0.67573 0.0489355 0)
(-0.751644 -0.0102164 0)
(-0.885384 -0.00750594 0)
(-1.00215 0.086893 0)
(-1.01198 0.107943 0)
(-1.05655 0.024925 0)
(-1.12427 -0.139431 0)
(-1.16376 -0.20397 0)
(-1.18383 -0.199434 0)
(-1.16734 -0.200188 0)
(-0.189344 2.58667 0)
(-0.232813 2.6257 0)
(-0.597743 1.45946 0)
(-0.423186 1.10068 0)
(-0.731288 0.876702 0)
(-0.79288 0.404056 0)
(-0.215965 -0.0871825 0)
(-0.193043 -0.281799 0)
(-0.318783 -0.143035 0)
(-0.30363 -0.114724 0)
(-0.615069 0.108402 0)
(-0.66215 0.253525 0)
(-0.694011 0.260887 0)
(-0.693556 0.22179 0)
(-0.716775 0.193922 0)
(-0.757624 0.107872 0)
(-0.81289 0.105201 0)
(-0.823658 0.0397326 0)
(-0.822517 -0.0222463 0)
(-0.79187 -0.0736927 0)
(-0.776296 -0.0742152 0)
(-0.735115 -0.00880641 0)
(-0.603 -0.0252064 0)
(-0.0990309 2.64438 0)
(-0.140547 2.26484 0)
(-0.511654 1.4898 0)
(-0.393185 1.1652 0)
(-0.617526 0.766719 0)
(-0.299938 0.122595 0)
(-0.253502 -0.139396 0)
(-0.400758 -0.21419 0)
(-0.342173 -0.164749 0)
(-0.53705 0.135216 0)
(-0.742009 0.251512 0)
(-0.793842 0.203161 0)
(-0.793583 0.185798 0)
(-0.71957 0.160274 0)
(-0.667668 0.174639 0)
(-0.621894 0.120295 0)
(-0.743305 0.055487 0)
(-0.749429 0.0249371 0)
(-0.618421 -0.0405419 0)
(-0.62588 -0.152517 0)
(-0.608384 -0.222855 0)
(-0.564558 -0.29118 0)
(-0.472947 -0.277859 0)
(-0.113309 2.736 0)
(0.0123559 2.20933 0)
(-0.224848 1.50878 0)
(-0.441311 1.26928 0)
(-0.52243 0.842166 0)
(-0.0383909 0.176578 0)
(-0.537271 -0.0920527 0)
(-0.676586 -0.133057 0)
(-0.460276 0.114949 0)
(-0.512246 0.326899 0)
(-0.62331 0.338106 0)
(-0.67379 0.243399 0)
(-0.733105 0.157888 0)
(-0.812369 0.0487932 0)
(-0.848184 -0.015148 0)
(-0.846016 -0.0910914 0)
(-0.866572 -0.164098 0)
(-0.879557 -0.0948212 0)
(-0.739577 -0.17915 0)
(-0.699521 -0.263565 0)
(-0.613008 -0.320174 0)
(-0.591892 -0.321604 0)
(-0.650796 -0.225263 0)
(-0.156556 2.80034 0)
(0.0320259 2.27789 0)
(-0.150494 1.57252 0)
(-0.371692 1.34345 0)
(-0.276202 0.833897 0)
(-0.0937019 0.12856 0)
(-0.504996 -0.0255163 0)
(-0.490505 -0.0350518 0)
(-0.316533 0.189194 0)
(-0.592699 0.321327 0)
(-0.586142 0.372965 0)
(-0.203379 0.314737 0)
(-0.134104 0.283865 0)
(-0.125791 0.266046 0)
(-0.0150077 0.155821 0)
(-0.00620688 0.0442146 0)
(-0.0112137 -0.030599 0)
(-0.0229101 0.011431 0)
(-0.00488413 -0.094411 0)
(-0.0569178 -0.159652 0)
(-0.0693996 -0.167801 0)
(-0.102037 -0.0780782 0)
(-0.149321 -0.070388 0)
(-0.18188 2.88424 0)
(0.0134886 2.31893 0)
(-0.116071 1.70244 0)
(-0.36142 1.42324 0)
(-0.0690453 0.688394 0)
(-0.101359 0.14526 0)
(-0.575061 0.0782981 0)
(-0.526496 0.0923278 0)
(-0.287953 0.189986 0)
(-0.403617 0.286693 0)
(-0.357169 0.251101 0)
(-0.236129 0.193821 0)
(-0.105243 0.133263 0)
(-0.0435429 0.12405 0)
(0.00738951 -0.0467967 0)
(0.05206 -0.0584412 0)
(0.0346881 -0.0808812 0)
(0.0347193 -0.100538 0)
(0.0660586 -0.182566 0)
(-0.00550663 -0.233041 0)
(-0.0147249 -0.217116 0)
(-0.00823528 -0.208254 0)
(-0.0708934 -0.19417 0)
(-0.14905 2.93773 0)
(-0.0132867 2.26912 0)
(-0.277164 1.81464 0)
(-0.278072 1.60689 0)
(0.330878 0.80868 0)
(-0.189325 0.278605 0)
(-0.516895 0.242894 0)
(-0.485302 0.174728 0)
(-0.277917 0.107513 0)
(-0.400667 0.223774 0)
(-0.456075 0.151014 0)
(-0.205216 0.157386 0)
(-0.113331 0.0223717 0)
(-0.0742313 0.0191067 0)
(-0.0455349 -0.0131406 0)
(-0.000222197 -0.0698206 0)
(-0.0408004 -0.122871 0)
(-0.0232285 -0.13181 0)
(0.0256476 -0.178129 0)
(0.0485966 -0.282009 0)
(0.0309361 -0.192638 0)
(-0.00920182 -0.241982 0)
(0.0147662 -0.195721 0)
(-0.0843407 2.96214 0)
(-0.0109881 2.28137 0)
(-0.296648 2.09238 0)
(-0.190805 2.09883 0)
(0.146959 0.840104 0)
(-0.23089 0.50341 0)
(-0.44671 0.277132 0)
(-0.595936 0.272488 0)
(-0.379598 0.0872956 0)
(-0.323975 0.142482 0)
(-0.299378 0.0782374 0)
(-0.309021 0.0312041 0)
(-0.242496 -0.010006 0)
(-0.0762015 -0.0650908 0)
(-0.0586515 -0.0169857 0)
(-0.0307894 -0.129974 0)
(0.0106626 -0.0659067 0)
(0.0269814 -0.102791 0)
(0.034425 -0.133402 0)
(0.0539989 -0.148303 0)
(0.0540592 -0.20172 0)
(0.0613247 -0.193013 0)
(0.114566 -0.223197 0)
(-0.0128609 2.99748 0)
(-0.0195307 2.32526 0)
(-0.163801 2.14598 0)
(-0.181435 1.81137 0)
(-0.443793 0.687273 0)
(-0.439996 0.617252 0)
(-0.432543 0.4528 0)
(-0.461674 0.264239 0)
(-0.248119 0.170606 0)
(-0.471054 0.136649 0)
(-0.517214 0.0633177 0)
(-0.273076 -0.0225605 0)
(-0.221898 -0.0425264 0)
(-0.147912 -0.091355 0)
(-0.0343644 -0.147353 0)
(-0.0439066 -0.0639128 0)
(0.0798202 -0.0987026 0)
(0.018707 -0.0662615 0)
(0.0489073 -0.135407 0)
(0.0611389 -0.0877559 0)
(0.0720176 -0.182572 0)
(0.0471941 -0.179638 0)
(0.0823379 -0.194585 0)
(0.0104964 3.06089 0)
(-0.15284 2.44478 0)
(-0.196211 2.31568 0)
(0.110344 1.63759 0)
(-0.394185 0.668236 0)
(-0.333951 0.629219 0)
(-0.394006 0.627221 0)
(-0.451936 0.28404 0)
(-0.527404 0.101722 0)
(-0.475891 0.0411607 0)
(-0.38224 -0.00745205 0)
(-0.392991 -0.156473 0)
(-0.342634 -0.211732 0)
(-0.179579 -0.216103 0)
(-0.03521 -0.202053 0)
(0.0428689 -0.146922 0)
(0.0673705 -0.143866 0)
(0.088369 -0.195208 0)
(0.148308 -0.177016 0)
(0.11776 -0.196167 0)
(0.118618 -0.171411 0)
(0.123616 -0.183637 0)
(0.165293 -0.171492 0)
(0.0861878 3.14742 0)
(-0.0914515 2.63893 0)
(-0.159139 2.91008 0)
(0.00952124 1.77377 0)
(-0.460095 0.853173 0)
(-0.221818 0.730241 0)
(-0.344572 0.714015 0)
(-0.341516 0.626353 0)
(-0.460178 0.203183 0)
(-0.515814 0.00733391 0)
(-0.595449 -0.225443 0)
(-0.473229 -0.335749 0)
(-0.195025 -0.283689 0)
(-0.123557 -0.32011 0)
(-0.0399826 -0.198848 0)
(0.0245353 -0.116897 0)
(0.053152 -0.16694 0)
(0.118581 -0.159851 0)
(0.169601 -0.193997 0)
(0.168587 -0.219191 0)
(0.187757 -0.259015 0)
(0.108429 -0.255254 0)
(0.183974 -0.25903 0)
(0.12567 3.35992 0)
(0.0952493 2.61101 0)
(-0.104905 2.86107 0)
(-0.434312 1.75205 0)
(-0.465318 1.10525 0)
(-0.163438 0.953792 0)
(-0.275264 0.739852 0)
(-0.380022 0.502811 0)
(-0.658152 0.109617 0)
(-0.776816 0.0531496 0)
(-0.570582 -0.299011 0)
(-0.295164 -0.277107 0)
(-0.183391 -0.330886 0)
(-0.0923589 -0.355234 0)
(0.0375258 -0.279427 0)
(0.052265 -0.299835 0)
(0.0362997 -0.218448 0)
(0.107389 -0.190354 0)
(0.118078 -0.230239 0)
(0.122892 -0.21821 0)
(0.158465 -0.261846 0)
(0.231953 -0.240556 0)
(0.29221 -0.280463 0)
(0.0619475 3.4105 0)
(0.135685 2.64312 0)
(0.078013 2.53387 0)
(-0.337663 1.74758 0)
(-0.359542 0.974576 0)
(-0.216644 0.738855 0)
(-0.208158 0.862578 0)
(-0.284269 0.602666 0)
(-0.315472 0.207024 0)
(-0.575462 0.0423582 0)
(-0.398884 -0.229602 0)
(-0.233687 -0.4552 0)
(-0.115528 -0.443017 0)
(-0.0614743 -0.445686 0)
(0.0120694 -0.338366 0)
(0.0551303 -0.416653 0)
(0.15761 -0.243742 0)
(0.160178 -0.191231 0)
(0.181689 -0.239243 0)
(0.212191 -0.235249 0)
(0.238302 -0.19188 0)
(0.213116 -0.1908 0)
(0.269295 -0.250809 0)
(-0.135941 3.47704 0)
(0.075189 2.95214 0)
(0.496218 2.59052 0)
(0.136477 1.86952 0)
(0.0137621 0.907201 0)
(0.178245 0.511921 0)
(0.0385235 0.772939 0)
(-0.0406196 0.596965 0)
(-0.0593538 0.231589 0)
(-0.338457 -0.20208 0)
(-0.150496 -0.39872 0)
(-0.128858 -0.558551 0)
(-0.0570752 -0.540038 0)
(-0.00639115 -0.476641 0)
(-0.000888011 -0.391543 0)
(0.10552 -0.357897 0)
(0.265314 -0.288003 0)
(0.201852 -0.262043 0)
(0.169741 -0.249124 0)
(0.218159 -0.255404 0)
(0.269425 -0.244863 0)
(0.267909 -0.246927 0)
(0.329144 -0.258934 0)
(-0.0828713 3.57756 0)
(0.0682109 3.51007 0)
(0.538029 3.0019 0)
(0.525277 2.35463 0)
(0.349278 1.1978 0)
(0.330634 0.742145 0)
(0.358736 0.907879 0)
(0.423889 0.825411 0)
(0.47604 0.540314 0)
(0.100271 0.159416 0)
(0.0382316 -0.366962 0)
(-0.00225123 -0.557482 0)
(-0.0038939 -0.564115 0)
(0.0126453 -0.523542 0)
(0.0371558 -0.452006 0)
(0.11631 -0.33135 0)
(0.271046 -0.314347 0)
(0.214951 -0.250491 0)
(0.217228 -0.276856 0)
(0.254542 -0.346022 0)
(0.305548 -0.211535 0)
(0.255519 -0.202457 0)
(0.385635 -0.222811 0)
(-0.0227371 3.62238 0)
(0.0883378 3.38437 0)
(0.484102 2.984 0)
(0.631751 2.26364 0)
(0.694305 1.05266 0)
(0.706426 0.974673 0)
(0.563169 1.25205 0)
(0.412263 1.36376 0)
(0.375956 0.806961 0)
(0.209448 0.345505 0)
(0.0707701 -0.261918 0)
(0.0552847 -0.517613 0)
(0.0219273 -0.508281 0)
(0.0348634 -0.523697 0)
(0.103137 -0.505836 0)
(0.151768 -0.365095 0)
(0.321296 -0.342787 0)
(0.239015 -0.310174 0)
(0.150353 -0.31891 0)
(0.36432 -0.334769 0)
(0.482004 -0.330502 0)
(0.340322 -0.333912 0)
(0.346039 -0.259148 0)
(-0.0283854 3.5403 0)
(0.155601 2.91799 0)
(0.530151 2.82302 0)
(0.958056 2.43698 0)
(1.071 1.53161 0)
(0.901075 1.2031 0)
(0.784855 1.47593 0)
(0.532844 1.40239 0)
(0.151527 0.655337 0)
(0.220205 0.271014 0)
(0.100062 -0.237982 0)
(0.180465 -0.537379 0)
(0.0807917 -0.65543 0)
(0.0262301 -0.595376 0)
(0.153639 -0.562253 0)
(0.206618 -0.327638 0)
(0.262416 -0.360876 0)
(0.293165 -0.365872 0)
(0.285702 -0.337496 0)
(0.336486 -0.313254 0)
(0.384011 -0.480171 0)
(0.42257 -0.41846 0)
(0.362923 -0.244533 0)
(0.098689 3.07586 0)
(0.715688 2.50178 0)
(0.920198 2.60938 0)
(1.0634 2.4086 0)
(0.98292 1.63738 0)
(0.777931 1.50263 0)
(0.59921 1.75029 0)
(0.518589 1.49916 0)
(0.206447 0.839158 0)
(0.466087 0.381093 0)
(0.299666 -0.165733 0)
(0.229799 -0.539521 0)
(0.238023 -0.78335 0)
(0.286931 -0.697487 0)
(0.310606 -0.565323 0)
(0.306511 -0.483661 0)
(0.249789 -0.395711 0)
(0.259755 -0.409602 0)
(0.218835 -0.359935 0)
(0.254075 -0.330305 0)
(0.372602 -0.406817 0)
(0.596881 -0.398823 0)
(0.477478 -0.316757 0)
(0.360616 2.84086 0)
(1.08712 2.52839 0)
(1.01832 2.47067 0)
(0.941861 2.2459 0)
(0.772432 1.80333 0)
(0.648749 1.88365 0)
(0.577529 1.93905 0)
(0.574134 1.5227 0)
(0.478465 1.37779 0)
(0.425111 0.700743 0)
(0.357253 -0.0581974 0)
(0.423541 -0.514962 0)
(0.395672 -0.733561 0)
(0.411159 -0.718736 0)
(0.342131 -0.529292 0)
(0.308611 -0.523473 0)
(0.293716 -0.388937 0)
(0.28498 -0.385632 0)
(0.322801 -0.344971 0)
(0.246355 -0.261674 0)
(0.286065 -0.275663 0)
(0.49289 -0.366936 0)
(0.519187 -0.357901 0)
(0.251019 2.66955 0)
(0.969803 2.48269 0)
(0.802662 2.42582 0)
(0.674299 2.35514 0)
(0.56267 2.12933 0)
(0.52846 2.05781 0)
(0.48546 1.96425 0)
(0.636079 1.65726 0)
(0.871303 1.2487 0)
(0.454287 0.561243 0)
(0.485582 -0.17638 0)
(0.570983 -0.563031 0)
(0.465028 -0.737269 0)
(0.51902 -0.749372 0)
(0.544155 -0.573441 0)
(0.44966 -0.485884 0)
(0.394401 -0.408416 0)
(0.270902 -0.305595 0)
(0.315453 -0.321099 0)
(0.306129 -0.244879 0)
(0.320939 -0.219579 0)
(0.435153 -0.264438 0)
(0.529217 -0.294176 0)
(-0.00190771 2.1177 0)
(0.570908 2.41038 0)
(0.417504 2.46537 0)
(0.379675 2.36601 0)
(0.427108 2.13219 0)
(0.485454 2.02442 0)
(0.518597 1.93477 0)
(0.59065 1.7462 0)
(0.79315 1.15512 0)
(0.658215 0.396651 0)
(0.792419 -0.171214 0)
(0.748175 -0.464431 0)
(0.574797 -0.607929 0)
(0.648199 -0.568596 0)
(0.657843 -0.418143 0)
(0.432254 -0.329091 0)
(0.398799 -0.411361 0)
(0.34126 -0.353949 0)
(0.41134 -0.352409 0)
(0.383147 -0.286793 0)
(0.251635 -0.210836 0)
(0.427764 -0.299542 0)
(0.685357 -0.439537 0)
(-0.0921117 1.81675 0)
(0.321089 2.39558 0)
(0.164004 2.36623 0)
(0.19973 2.22572 0)
(0.189085 1.93515 0)
(0.325766 1.94759 0)
(0.437326 1.85787 0)
(0.530513 1.60819 0)
(0.667412 0.926743 0)
(0.924972 0.369091 0)
(0.985949 -0.138151 0)
(0.835594 -0.44479 0)
(0.623409 -0.502556 0)
(0.695837 -0.374278 0)
(0.711286 -0.395096 0)
(0.524425 -0.326227 0)
(0.384928 -0.36116 0)
(0.364295 -0.279736 0)
(0.468094 -0.272807 0)
(0.488396 -0.364904 0)
(0.381592 -0.295898 0)
(0.367066 -0.316354 0)
(0.501673 -0.354382 0)
(-0.0974252 1.67768 0)
(0.211256 2.29883 0)
(0.100724 2.26113 0)
(0.17297 2.16719 0)
(0.104468 1.82792 0)
(0.186204 1.65499 0)
(0.331546 1.53466 0)
(0.502125 1.25155 0)
(0.709473 0.858009 0)
(0.943211 0.318283 0)
(0.891899 -0.0915659 0)
(0.712119 -0.359153 0)
(0.745585 -0.386319 0)
(0.780538 -0.261168 0)
(0.708429 -0.246093 0)
(0.471633 -0.340931 0)
(0.449499 -0.243363 0)
(0.437772 -0.232065 0)
(0.343979 -0.243929 0)
(0.37726 -0.32858 0)
(0.354265 -0.329706 0)
(0.374017 -0.28012 0)
(0.43077 -0.302297 0)
(-0.0790459 1.60045 0)
(0.185527 2.1875 0)
(0.146894 2.23974 0)
(0.232509 2.16362 0)
(0.209155 1.82033 0)
(0.293233 1.46943 0)
(0.413355 1.23019 0)
(0.589507 0.976062 0)
(0.775907 0.628455 0)
(0.846026 0.239964 0)
(0.850171 0.0211646 0)
(0.661157 -0.130532 0)
(0.743862 -0.185571 0)
(0.832259 -0.0977053 0)
(0.544374 -0.103862 0)
(0.472937 -0.251855 0)
(0.48419 -0.215338 0)
(0.361668 -0.285745 0)
(0.290502 -0.271101 0)
(0.351236 -0.279792 0)
(0.430952 -0.313584 0)
(0.382527 -0.227367 0)
(0.382113 -0.315833 0)
(-0.0441263 1.4524 0)
(0.152097 1.94234 0)
(0.228204 2.14248 0)
(0.356196 2.09558 0)
(0.417278 1.73258 0)
(0.47746 1.27451 0)
(0.578055 0.969762 0)
(0.66981 0.692472 0)
(0.786669 0.435244 0)
(0.73299 0.261866 0)
(0.743812 0.147148 0)
(0.638884 -0.0149733 0)
(0.722672 0.0499387 0)
(0.875821 -0.00797816 0)
(0.634423 -0.151513 0)
(0.412296 -0.195034 0)
(0.421962 -0.297909 0)
(0.414587 -0.323955 0)
(0.372668 -0.222329 0)
(0.361347 -0.228728 0)
(0.459786 -0.31282 0)
(0.366856 -0.291799 0)
(0.332862 -0.327054 0)
(-0.0150427 1.33188 0)
(0.110265 1.64252 0)
(0.226468 1.87103 0)
(0.38602 1.87014 0)
(0.482541 1.54056 0)
(0.580133 1.12948 0)
(0.659231 0.825315 0)
(0.686097 0.59603 0)
(0.745805 0.458935 0)
(0.701209 0.325511 0)
(0.521654 0.182866 0)
(0.61577 0.034465 0)
(0.857559 0.149334 0)
(0.764222 0.0459296 0)
(0.399453 -0.204881 0)
(0.415289 -0.217852 0)
(0.451225 -0.174909 0)
(0.526478 -0.205631 0)
(0.477696 -0.188108 0)
(0.302558 -0.222392 0)
(0.353083 -0.285298 0)
(0.418032 -0.388484 0)
(0.345836 -0.485306 0)
(0.00751653 1.25579 0)
(0.0705398 1.44258 0)
(0.193312 1.63071 0)
(0.3328 1.62315 0)
(0.466979 1.30963 0)
(0.537574 0.963712 0)
(0.604471 0.761224 0)
(0.572751 0.552817 0)
(0.587754 0.462759 0)
(0.592358 0.267917 0)
(0.49009 0.261354 0)
(0.549399 0.245699 0)
(0.805676 0.190151 0)
(0.589341 -0.143628 0)
(0.291218 -0.0814026 0)
(0.369373 -0.0641261 0)
(0.48851 -0.0639657 0)
(0.460204 -0.121445 0)
(0.416421 -0.238114 0)
(0.278998 -0.347518 0)
(0.314511 -0.335465 0)
(0.265816 -0.36365 0)
(0.332291 -0.51631 0)
(0.011507 1.20776 0)
(0.0497348 1.3124 0)
(0.149771 1.41026 0)
(0.27609 1.37368 0)
(0.416823 1.14483 0)
(0.445498 0.89002 0)
(0.475589 0.78916 0)
(0.484765 0.56028 0)
(0.427005 0.516238 0)
(0.508427 0.422951 0)
(0.54598 0.333468 0)
(0.559556 0.404623 0)
(0.552215 0.259178 0)
(0.297498 -0.019877 0)
(0.326792 0.014531 0)
(0.338332 -0.00444857 0)
(0.321757 -0.101722 0)
(0.315733 -0.181566 0)
(0.228867 -0.22892 0)
(0.261497 -0.356478 0)
(0.427711 -0.323736 0)
(0.255755 -0.3818 0)
(0.269691 -0.357748 0)
(0.00843184 1.09663 0)
(0.0293941 1.15169 0)
(0.117846 1.1831 0)
(0.211122 1.1092 0)
(0.260282 1.00393 0)
(0.326147 0.851869 0)
(0.275155 0.739888 0)
(0.394286 0.641349 0)
(0.46786 0.540888 0)
(0.456556 0.464323 0)
(0.471043 0.282973 0)
(0.463566 0.212823 0)
(0.302544 -0.0440986 0)
(0.212133 -0.0814415 0)
(0.249255 -0.054149 0)
(0.233661 -0.0470852 0)
(0.201637 -0.106732 0)
(0.250882 -0.165291 0)
(0.221946 -0.170364 0)
(0.234135 -0.178579 0)
(0.378108 -0.337364 0)
(0.244548 -0.427064 0)
(0.164571 -0.363204 0)
(0.00252027 1.10263 0)
(0.0397622 1.0902 0)
(0.0746712 1.07754 0)
(0.140134 1.08022 0)
(0.184955 0.940993 0)
(0.231822 0.818081 0)
(0.224287 0.752053 0)
(0.256541 0.740628 0)
(0.300666 0.58654 0)
(0.334108 0.474925 0)
(0.328538 0.33346 0)
(0.395566 0.214458 0)
(0.296249 0.0452705 0)
(0.287159 0.027298 0)
(0.375329 -0.00995946 0)
(0.277087 0.00813939 0)
(0.129278 -0.0711621 0)
(0.21153 -0.082313 0)
(0.193786 -0.172864 0)
(0.0775263 -0.205123 0)
(0.236159 -0.286179 0)