/*--------------------------------*- C++ -*----------------------------------*\
| =========                 |                                                 |
| \\      /  F ield         | foam-extend: Open Source CFD                    |
|  \\    /   O peration     | Version:     4.1                                |
|   \\  /    A nd           | Web:         http://www.foam-extend.org         |
|    \\/     M anipulation  |                                                 |
\*---------------------------------------------------------------------------*/
FoamFile
{
    version     2.0;
    format      ascii;
    class       regIOobject;
    location    "0.65/uniform";
    object      profilingInfo;
}
// * * * * * * * * * * * * * * * * * * * * * * * * * * * * * * * * * * * * * //

profilingInfo
(

    {
        id              12;
        parentId        10;
        description     "Foam::Time::writeObject - outputTime";
        calls           13;
        totalTime       0.200604;
        childTime       0;
        onStack         1;
    }

    {
        id              10;
        parentId        1;
        description     "Foam::Time::writeObject";
        calls           768;
        totalTime       0.201382;
        childTime       0.200604;
        onStack         1;
    }

    {
        id              1;
        description     "application::main";
        calls           1;
        totalTime       8.02838;
        childTime       3.9794;
        onStack         1;
    }

    {
        id              11;
        parentId        1;
        description     "FO::DataSummary::execute";
        calls           767;
        totalTime       0.042157;
        childTime       0;
        onStack         0;
    }

    {
        id              4;
        parentId        1;
        description     "functionObjectList::read";
        calls           1;
        totalTime       0.00813;
        childTime       0;
        onStack         0;
    }

    {
        id              5;
        parentId        1;
        description     "fvMatrix::solve_C";
        calls           3072;
        totalTime       0.409368;
        childTime       0.310456;
        onStack         0;
    }

    {
        id              2;
        parentId        1;
        description     "fvMatrix::solve_pcorr";
        calls           1;
        totalTime       0.000121;
        childTime       6.5e-05;
        onStack         0;
    }

    {
        id              7;
        parentId        1;
        description     "fvMatrix::solve_pd";
        calls           3072;
        totalTime       3.31824;
        childTime       3.20623;
        onStack         0;
    }

    {
        id              6;
        parentId        5;
        description     "lduMatrix::solver_C";
        calls           3072;
        totalTime       0.310456;
        childTime       0;
        onStack         0;
    }

    {
        id              9;
        parentId        8;
        description     "lduMatrix::solver_coarsestLevelCorr";
        calls           14473;
        totalTime       0.102731;
        childTime       0;
        onStack         0;
    }

    {
        id              3;
        parentId        2;
        description     "lduMatrix::solver_pcorr";
        calls           1;
        totalTime       6.5e-05;
        childTime       0;
        onStack         0;
    }

    {
        id              8;
        parentId        7;
        description     "lduMatrix::solver_pd";
        calls           3072;
        totalTime       3.20623;
        childTime       0.102731;
        onStack         0;
    }
);


// ************************************************************************* //
