/*--------------------------------*- C++ -*----------------------------------*\
| =========                 |                                                 |
| \\      /  F ield         | foam-extend: Open Source CFD                    |
|  \\    /   O peration     | Version:     4.1                                |
|   \\  /    A nd           | Web:         http://www.foam-extend.org         |
|    \\/     M anipulation  |                                                 |
\*---------------------------------------------------------------------------*/
FoamFile
{
    version     2.0;
    format      ascii;
    class       volScalarField;
    location    "0.9";
    object      alpha1;
}
// * * * * * * * * * * * * * * * * * * * * * * * * * * * * * * * * * * * * * //

dimensions      [0 0 0 0 0 0 0];

internalField   nonuniform List<scalar> 
2268
(
0.99843
0.995902
0.992758
0.991399
0.992077
0.992979
0.993444
0.993594
0.993771
0.994006
0.994368
0.995017
0.996262
0.997721
0.999308
1
1
1
1
1
1
1
1
0.996954
0.994141
0.990671
0.989412
0.990526
0.991871
0.992668
0.993
0.993209
0.993346
0.993643
0.994404
0.995923
0.99713
0.998268
0.999338
1
1
1
1
1
1
1
0.993648
0.990223
0.986192
0.985273
0.987326
0.989566
0.991014
0.991678
0.991909
0.991795
0.991903
0.992716
0.994263
0.993974
0.993327
0.993456
0.994278
0.997288
1
1
1
1
1
0.98854
0.984251
0.979606
0.979411
0.982854
0.986287
0.988534
0.989532
0.989653
0.989056
0.988642
0.988842
0.988903
0.984065
0.978606
0.977199
0.979209
0.986874
0.995033
1
1
1
1
0.981616
0.976367
0.971273
0.972305
0.977458
0.982121
0.985041
0.986162
0.985853
0.984308
0.982561
0.979992
0.974823
0.959101
0.942552
0.940437
0.946976
0.964414
0.980234
0.992858
0.996347
1
1
0.972805
0.966723
0.961591
0.964365
0.971261
0.976818
0.979919
0.980611
0.97926
0.975829
0.970692
0.960608
0.9429
0.905751
0.869621
0.869527
0.886718
0.920651
0.949578
0.97641
0.984565
0.995752
1
0.961957
0.955435
0.950874
0.955742
0.963945
0.969534
0.971846
0.971045
0.967459
0.96025
0.947178
0.921287
0.880327
0.811359
0.749657
0.753999
0.787806
0.845947
0.892289
0.942272
0.960003
0.981743
0.99933
0.948824
0.942401
0.939035
0.945807
0.95412
0.958517
0.958625
0.954587
0.946383
0.931272
0.901381
0.848454
0.776833
0.680257
0.608742
0.611803
0.657853
0.737618
0.797451
0.879133
0.914632
0.951523
0.984367
0.387713
0.386125
0.392246
0.401911
0.412892
0.432525
0.448195
0.460367
0.469574
0.478309
0.485572
0.490613
0.493867
0.494047
0.497067
0.49076
0.538451
0.550665
0.554693
0.386711
0.3797
0.374718
0.374087
0.375563
0.39245
0.414459
0.43576
0.447866
0.464405
0.483746
0.496893
0.507043
0.510079
0.513167
0.483849
0.515957
0.52993
0.538135
0.385257
0.370826
0.356732
0.34916
0.343783
0.349755
0.364954
0.395199
0.404403
0.427448
0.467254
0.497732
0.518113
0.53009
0.541148
0.486868
0.481638
0.494969
0.509206
0.383785
0.366028
0.356217
0.349248
0.338253
0.335186
0.328866
0.357852
0.354016
0.37255
0.425999
0.479746
0.5131
0.536409
0.567169
0.51026
0.460944
0.464173
0.479107
0.383286
0.367229
0.37373
0.378342
0.365523
0.349634
0.31762
0.332079
0.312613
0.31604
0.36358
0.433883
0.480829
0.517996
0.578383
0.534973
0.467155
0.451019
0.455393
0.383806
0.370364
0.398437
0.418735
0.410373
0.372133
0.320023
0.315227
0.28653
0.272383
0.303026
0.367241
0.423587
0.477789
0.568392
0.558313
0.500804
0.458087
0.43996
0.383036
0.373737
0.412242
0.450807
0.438973
0.382243
0.324218
0.303581
0.27018
0.243856
0.259814
0.304628
0.359402
0.42791
0.539888
0.576035
0.539666
0.476039
0.429813
0.381008
0.373164
0.409585
0.461735
0.442394
0.367224
0.316821
0.289385
0.255234
0.226668
0.234094
0.262247
0.310898
0.388681
0.512222
0.586227
0.563983
0.48911
0.416957
0.924445
0.918842
0.917619
0.926212
0.93201
0.932439
0.925821
0.912881
0.891025
0.851455
0.77464
0.668379
0.573899
0.49444
0.450596
0.448059
0.471795
0.53567
0.605796
0.722748
0.804436
0.86907
0.930212
0.881984
0.877352
0.875122
0.878133
0.871909
0.858101
0.830591
0.793828
0.732846
0.624423
0.479055
0.400494
0.395999
0.410003
0.419045
0.440509
0.463472
0.447157
0.455511
0.48647
0.592019
0.666853
0.750864
0.823206
0.813915
0.792595
0.758198
0.705152
0.653015
0.586063
0.529351
0.447206
0.383264
0.34997
0.361703
0.415549
0.450847
0.47751
0.507972
0.532649
0.547746
0.549623
0.559907
0.630513
0.681218
0.715282
0.736028
0.702473
0.633528
0.544174
0.443401
0.343631
0.27978
0.293584
0.271616
0.29347
0.328793
0.365964
0.373433
0.346519
0.376305
0.431341
0.504789
0.577872
0.610897
0.626349
0.640646
0.64667
0.613078
0.600881
0.507751
0.40355
0.307951
0.28037
0.232149
0.171599
0.193441
0.198343
0.239009
0.270515
0.281526
0.257004
0.227473
0.227218
0.254489
0.299481
0.358339
0.414845
0.456189
0.488997
0.510113
0.498842
0.426813
0.320006
0.247339
0.211309
0.188806
0.167995
0.145166
0.173179
0.205123
0.236445
0.241285
0.220293
0.202527
0.198065
0.205003
0.215426
0.225273
0.235528
0.251547
0.281571
0.313906
0.337631
0.345991
0.291889
0.233378
0.205523
0.193713
0.177815
0.163135
0.15676
0.189703
0.219541
0.227757
0.207041
0.196679
0.194053
0.198947
0.201523
0.202981
0.205893
0.209537
0.215239
0.22979
0.23757
0.241744
0.245076
0.237411
0.217297
0.218382
0.21193
0.195006
0.186168
0.193374
0.212226
0.218193
0.208148
0.191565
0.187335
0.185619
0.184371
0.178055
0.174072
0.172088
0.180697
0.181567
0.180995
0.180512
0.174034
0.166188
0.225093
0.218102
0.21937
0.213488
0.208992
0.207074
0.20769
0.210143
0.204179
0.187467
0.176811
0.169259
0.153518
0.134609
0.120582
0.113787
0.110874
0.119861
0.120352
0.112336
0.108972
0.119504
0.103811
0.21772
0.212315
0.209597
0.203188
0.201226
0.200828
0.197094
0.19189
0.176984
0.162741
0.1541
0.133408
0.100415
0.0744027
0.0616105
0.0570187
0.0563705
0.0630572
0.0648456
0.060346
0.0577632
0.0651846
0.0594082
0.213815
0.205255
0.194996
0.181584
0.177178
0.174449
0.165454
0.156953
0.148601
0.130937
0.114268
0.0850952
0.0538576
0.0328932
0.0249243
0.0230691
0.0234068
0.0275339
0.0284449
0.027613
0.0278362
0.0316072
0.0289793
0.2104
0.193363
0.167289
0.149055
0.140518
0.128362
0.116594
0.10745
0.1082
0.0867127
0.0630841
0.044162
0.0263221
0.0127448
0.00788436
0.00786468
0.00904961
0.0112735
0.0116423
0.0114782
0.0119832
0.0134236
0.0118997
0.206043
0.183473
0.143047
0.11457
0.0972135
0.0827799
0.072293
0.0646405
0.0686699
0.0490884
0.0290277
0.0210574
0.0153632
0.007137
0.00259281
0.00239206
0.00302843
0.0040357
0.00430566
0.00445292
0.00487572
0.00553675
0.00507805
0.202381
0.177683
0.133327
0.0974518
0.0754843
0.0627832
0.0520025
0.0401334
0.043351
0.0305429
0.0173785
0.010947
0.00831762
0.00452495
0.00127346
0.000827406
0.00102914
0.00122728
0.00123338
0.00138815
0.0017131
0.0020733
0.00206905
0.198726
0.173259
0.129695
0.0918435
0.0693316
0.0537614
0.0424381
0.0328975
0.0292389
0.0190968
0.0097031
0.00545031
0.00400081
0.00254569
0.000958422
0.000394773
0.000272329
0.000257393
0.000223029
0.000240842
0.000363196
0.000521855
0.000658176
0.194961
0.169797
0.125509
0.0845447
0.0613975
0.0469284
0.0367085
0.0296404
0.0244216
0.0169061
0.00838602
0.00342649
0.00179138
0.00106195
0.000401902
0.000118062
3.70937e-05
2.03549e-05
1.26642e-05
6.11947e-06
1.38346e-05
4.1145e-05
0.000114724
0.190884
0.166674
0.124976
0.0847754
0.0596976
0.0454384
0.0374754
0.0302522
0.0239655
0.0171809
0.00967472
0.00380116
0.00116599
0.000425607
0.0001695
6.40687e-05
1.45266e-05
0
0
0
0
0
0
0.186489
0.164642
0.127201
0.0880352
0.0610664
0.0496366
0.0432486
0.0330316
0.0250978
0.0199165
0.013388
0.00663941
0.00204069
0.000668073
0.000309567
0.000136827
5.36203e-05
1.41171e-05
2.559e-07
0
0
0
0
0.181446
0.163308
0.132076
0.0920488
0.0656376
0.0554738
0.041605
0.0282259
0.0212142
0.0190306
0.0165685
0.0118404
0.00563208
0.00208695
0.000774375
0.000271281
9.98354e-05
3.42858e-05
1.04336e-05
2.14395e-06
0
0
0
0.175127
0.161582
0.139276
0.102854
0.0740934
0.0541572
0.0364177
0.0233604
0.015449
0.0129942
0.0129774
0.0118468
0.0077346
0.00335652
0.00129983
0.00052003
0.000214979
7.29104e-05
2.24098e-05
5.83949e-06
1.29488e-06
2.95047e-07
0
0.167073
0.157701
0.143255
0.120093
0.0914427
0.0672565
0.0493412
0.0280859
0.0143501
0.00890886
0.00877384
0.00988485
0.00880255
0.00592877
0.00296378
0.00142982
0.000595725
0.000196632
5.23146e-05
1.03389e-05
1.90011e-06
4.16838e-07
1.83795e-07
0.156796
0.151172
0.140794
0.127952
0.107835
0.0870639
0.0609134
0.0296971
0.00984577
0.00409934
0.00417866
0.00645272
0.00759371
0.00668414
0.00460061
0.00268955
0.00111008
0.000337976
8.36128e-05
1.72483e-05
3.07342e-06
5.5966e-07
1.34796e-07
0.143315
0.140384
0.132911
0.127303
0.11574
0.0956456
0.0597588
0.0237099
0.00726157
0.00257325
0.00229408
0.00393945
0.00627227
0.00624343
0.00532405
0.00346077
0.00131457
0.00033249
5.6973e-05
7.75862e-06
6.77131e-07
2.45491e-08
1.92977e-09
0.126775
0.125066
0.121489
0.123127
0.114863
0.0934525
0.0558066
0.0229715
0.00643692
0.00197639
0.00182911
0.00287272
0.00500245
0.00531215
0.00453652
0.00287086
0.00115274
0.000325416
6.37201e-05
9.13576e-06
9.63318e-07
6.165e-08
0
0.112029
0.110654
0.110419
0.115804
0.110287
0.088255
0.0496444
0.0197446
0.00589759
0.00174724
0.00177671
0.00296566
0.00430477
0.00381677
0.00238483
0.000921358
0.000205917
2.77226e-05
0
0
0
0
0
0.102071
0.10171
0.099694
0.10591
0.0988102
0.0761405
0.0417665
0.0160263
0.00427545
0.00112196
0.00159085
0.00278064
0.00326177
0.00192488
0.000743434
0.000142846
0
0
0
0
0
0
0
0.0960011
0.0949763
0.0877602
0.0897278
0.0779092
0.0487047
0.0207215
0.00672083
0.00118344
0.000570046
0.00108534
0.00156341
0.00164389
0.00061882
0.000143512
1.43134e-06
0
0
6.89321e-07
2.0573e-07
0
0
0
0.0923931
0.0891566
0.0758265
0.0655571
0.0487827
0.0267196
0.0100159
0.00283304
0.000462269
0.000371463
0.000483712
0.000509159
0.000454481
0.000196291
6.25621e-05
1.51406e-05
8.77455e-06
7.38357e-06
3.60122e-06
9.86504e-07
1.35737e-07
0
0
0.0890226
0.0814513
0.0622118
0.0436946
0.0254761
0.0124633
0.00435583
0.000973844
0.000235075
0.000376673
0.000455119
0.000492915
0.00050544
0.000493794
0.000250731
8.08366e-05
4.31151e-05
2.4344e-05
1.01032e-05
2.96881e-06
5.24168e-07
8.83188e-09
0
0.0858264
0.0785179
0.0591133
0.0377291
0.0192434
0.00786164
0.00207843
0.000387513
0.000326089
0.000648465
0.000878744
0.00101292
0.00105288
0.000971845
0.00057854
0.000232653
0.000117376
5.50944e-05
2.02176e-05
5.57132e-06
1.03663e-06
7.25634e-08
0
0.0818906
0.0730145
0.0524441
0.0312214
0.0143617
0.00513057
0.00112515
0.000245147
0.000358716
0.0007929
0.00117871
0.00137501
0.00143552
0.00129351
0.00087995
0.000422525
0.000204685
8.57293e-05
2.89663e-05
7.38548e-06
1.18888e-06
6.75768e-08
0
0.0772968
0.0662567
0.0447641
0.0249828
0.0108811
0.00363054
0.000758701
0.000241017
0.000438415
0.000966654
0.00136449
0.00148732
0.00153195
0.0014317
0.00106772
0.000555929
0.000254799
9.88253e-05
3.05879e-05
7.37741e-06
1.60957e-06
2.18318e-07
0
0.0720874
0.058658
0.0370054
0.0189451
0.00795188
0.00258289
0.000571375
0.000255346
0.000411105
0.000790424
0.00117237
0.00129951
0.00144602
0.00147518
0.0011932
0.000634634
0.000256576
8.55103e-05
2.32263e-05
5.36256e-06
1.00696e-06
1.47437e-07
0
0.0661888
0.0498955
0.0288618
0.0133124
0.0055046
0.00192227
0.000566873
0.000295192
0.000380589
0.00058213
0.000900538
0.00103998
0.00129849
0.00143173
0.0012242
0.000662768
0.000259419
9.32263e-05
2.30035e-05
4.75029e-06
8.6304e-07
8.79602e-08
0
0.0601723
0.0417209
0.0225085
0.00944697
0.00393231
0.00158924
0.000635845
0.000397946
0.000432725
0.000558962
0.000739587
0.000934085
0.00125362
0.00141205
0.00124532
0.000743597
0.000263671
7.18558e-05
1.1947e-05
9.97984e-07
0
0
0
0.0545781
0.0348047
0.0175275
0.0067664
0.0028139
0.00140033
0.000812899
0.000637154
0.000676564
0.000736156
0.00085896
0.00111597
0.00145878
0.00144429
0.00115173
0.000486962
0.000121459
1.91192e-05
7.85686e-07
0
0
0
0
0.0492958
0.0283073
0.0127188
0.00453058
0.00207911
0.00141908
0.00116631
0.0011263
0.00123231
0.00122666
0.00130383
0.00147887
0.00156893
0.00133347
0.000873546
0.000320058
6.82482e-05
6.72478e-06
0
0
0
0
0
0.0439683
0.0216166
0.00791756
0.00288548
0.00187156
0.00168213
0.00169738
0.00172923
0.00177625
0.00175309
0.00171601
0.00163514
0.00138916
0.00099736
0.000555734
0.000178967
3.76027e-05
4.89187e-06
0
0
0
0
0
0.0384546
0.0161032
0.00523319
0.00242322
0.00197832
0.00188601
0.00181008
0.00171589
0.0016652
0.00157283
0.00134753
0.00106545
0.000607637
0.000310789
0.000142254
3.46159e-05
1.83287e-06
0
0
0
0
0
0
0.0329974
0.0113763
0.00366805
0.00210555
0.00173574
0.00147496
0.00122391
0.000972947
0.000893625
0.000775033
0.000526705
0.000352689
0.00014607
4.19374e-05
7.59026e-06
0
0
0
0
1.082e-08
0
0
0
0.0258932
0.00646787
0.00219049
0.00124306
0.000706893
0.000452115
0.000317897
0.000211868
0.000185158
0.000149752
6.8836e-05
3.4635e-05
1.63776e-06
0
0
0
0
0
4.92708e-08
1.37815e-08
0
0
0
0.0132288
0.00174389
0.0005509
0.000255677
7.63014e-05
4.0542e-05
2.60798e-05
1.58403e-05
1.50388e-05
8.74413e-06
0
0
0
0
0
0
0
9.73761e-08
4.46051e-08
3.12881e-09
0
0
0
0.927424
0.930313
0.915614
0.820529
0.793378
0.821749
0.831811
0.775251
0.715047
0.711718
0.691683
0.6388
0.580953
0.56458
0.53534
0.501376
0.478382
0.467833
0.445435
0.404002
0.342826
0.335434
0.321087
0.292869
0.243103
0.237197
0.22816
0.219625
0.160921
0.154999
0.148391
0.141884
0.0916285
0.084769
0.0785455
0.072846
0.0500791
0.0453891
0.0412264
0.0370983
0.0254475
0.0235556
0.0219558
0.019794
0.0105895
0.0097293
0.00897422
0.00803558
0.00447293
0.00395272
0.00350296
0.00295139
0.00185335
0.00161772
0.00140573
0.00113415
0.000681767
0.000621174
0.000543335
0.000440502
0.000179492
0.000187044
0.000172863
0.000144047
2.11657e-05
3.08501e-05
3.10618e-05
2.58008e-05
0
0
0
0
0
0
0
0
0
0
0
0
1.23417e-07
8.47213e-08
4.14953e-08
2.03141e-09
7.56482e-08
6.3881e-08
6.09105e-08
5.83588e-08
5.79906e-09
8.74706e-09
1.17348e-08
1.40628e-08
0
0
0
8.83113e-11
0
0
0
0
0
0
0
6.82731e-10
0
0
0
8.98579e-10
0
0
0
0
0
0
0
0
0
0
0
0
0
0
0
0
0
0
0
0
0
0
0
0
0
0
0
0
0
0
0
0
0
0
0
0
0
0
0
0
0
0
0
0
0
0
0
0
0
0
0
0
0
0
0
0
0
0
0
0
0.412392
0.368367
0.396332
0.447193
0.403087
0.307877
0.279015
0.257539
0.22863
0.205886
0.211201
0.22947
0.275885
0.362665
0.500583
0.593586
0.57944
0.489296
0.382926
0.458694
0.386955
0.426751
0.39667
0.292996
0.214142
0.195544
0.190363
0.183926
0.187475
0.204936
0.225925
0.276896
0.401296
0.549902
0.572401
0.551836
0.422919
0.313212
0.447373
0.394798
0.348661
0.271944
0.223701
0.199222
0.183643
0.176137
0.175055
0.201467
0.283496
0.310109
0.353505
0.431968
0.483025
0.442765
0.427283
0.29491
0.234161
0.405481
0.292387
0.235314
0.214579
0.191056
0.208647
0.212967
0.205418
0.217063
0.263766
0.345113
0.370682
0.403449
0.358532
0.295832
0.220552
0.20714
0.144228
0.155581
0.312914
0.216524
0.20467
0.221364
0.232658
0.245246
0.254474
0.270116
0.290416
0.30595
0.260697
0.219055
0.2188
0.162302
0.12395
0.0806104
0.0738275
0.0614708
0.0922417
0.247907
0.228003
0.230639
0.221631
0.211359
0.204243
0.194362
0.191464
0.159846
0.138011
0.102348
0.0772991
0.064664
0.0439919
0.0321753
0.0227401
0.0241203
0.027307
0.0415495
0.207965
0.182032
0.151946
0.124839
0.106448
0.0936915
0.0902301
0.0853698
0.0694625
0.0487841
0.0340562
0.0235923
0.0166183
0.0111966
0.00879244
0.00779982
0.00789621
0.010377
0.0124899
0.131335
0.106159
0.087336
0.0716042
0.059983
0.0502901
0.0490085
0.040652
0.0311725
0.0224216
0.015815
0.0108719
0.00697529
0.00488536
0.004076
0.00362287
0.00326564
0.0032864
0.00352469
0.0646543
0.0534253
0.0446462
0.0373096
0.0356789
0.032537
0.0317975
0.0275977
0.0212877
0.0156472
0.0108565
0.00720287
0.00500446
0.00371968
0.00297978
0.00246027
0.00214628
0.00188466
0.00215909
0.0313707
0.0258644
0.0242696
0.0188014
0.0184726
0.0192318
0.0198422
0.0202702
0.0177026
0.0142564
0.0110353
0.008086
0.00576912
0.00417278
0.00299375
0.00221612
0.00178365
0.00155552
0.00168996
0.0158591
0.0112322
0.0103821
0.00890541
0.00837306
0.00930018
0.0104586
0.0126256
0.013732
0.0118554
0.0102503
0.00892377
0.00743792
0.00583552
0.00386485
0.00243603
0.00164465
0.00132443
0.00136861
0.00644157
0.00471209
0.00381067
0.00344869
0.00326549
0.00390509
0.00437962
0.00583346
0.00752141
0.00730771
0.00684607
0.00664691
0.00653085
0.00584569
0.00445243
0.00250287
0.00148451
0.00114598
0.00115217
0.00221751
0.00169382
0.0013771
0.00118277
0.001151
0.00151993
0.00151282
0.00190283
0.00288895
0.00306721
0.00301621
0.00315974
0.0037907
0.00436289
0.00399801
0.00213284
0.00119989
0.000997461
0.00099941
0.000748477
0.00052355
0.000449137
0.000369081
0.000393378
0.000584408
0.000518615
0.000545261
0.000872051
0.000935894
0.000889605
0.00103702
0.00160209
0.00257251
0.00290615
0.00179202
0.000999363
0.00086481
0.000895623
0.000265928
0.000147551
0.000117202
0.000101777
0.000119998
0.000202892
0.000212856
0.00018639
0.000212188
0.000217146
0.000196017
0.000242952
0.000498736
0.00110741
0.00131583
0.00111562
0.000731151
0.000731331
0.000821573
8.85887e-05
3.54632e-05
2.07007e-05
2.06349e-05
3.08343e-05
6.2264e-05
9.53983e-05
7.94536e-05
5.42796e-05
4.79993e-05
4.12041e-05
3.86819e-05
8.52552e-05
0.0003153
0.000404842
0.000461796
0.000486043
0.000609848
0.00076238
1.69725e-05
3.68017e-06
0
3.77061e-07
3.91764e-06
1.50086e-05
3.29966e-05
3.15565e-05
1.98569e-05
1.50328e-05
1.39256e-05
9.98497e-06
7.51438e-06
4.99259e-05
9.25348e-05
0.00018487
0.000338144
0.000516353
0.000712815
0
0
0
0
0
2.00638e-06
7.14668e-06
8.52859e-06
6.05062e-06
4.62193e-06
5.03485e-06
5.14315e-06
2.03756e-06
1.70135e-06
1.72979e-05
7.25601e-05
0.000218091
0.00044051
0.000670825
0
0
0
0
0
0
1.31606e-07
1.03557e-06
6.06697e-07
3.86003e-07
7.76583e-07
1.50897e-06
4.25244e-07
0
2.92353e-06
4.19649e-05
0.000159955
0.00039086
0.000634537
0
0
0
0
0
0
0
0
0
0
0
0
0
0
2.005e-07
2.94137e-05
0.000130758
0.00035748
0.000601976
0
0
0
0
0
0
0
0
0
0
0
0
0
0
0
2.27267e-05
0.00011242
0.000332123
0.000570442
5.49229e-08
3.9844e-08
2.19962e-08
2.17618e-08
1.12283e-08
0
0
0
0
0
0
0
0
0
0
1.47485e-05
9.48999e-05
0.000310731
0.000539519
1.75724e-08
1.62446e-08
1.67624e-08
2.11269e-08
1.95667e-08
0
0
0
0
0
0
0
0
0
0
1.18265e-05
8.66004e-05
0.000292925
0.000508736
1.64135e-09
2.03584e-09
1.33116e-09
0
0
0
0
0
0
0
0
0
0
0
0
7.86409e-06
7.54744e-05
0.000270462
0.000479043
0
0
0
0
0
0
0
0
0
0
0
0
0
0
0
6.07661e-06
6.63838e-05
0.00025183
0.000452829
3.33615e-10
0
0
0
0
0
0
0
0
0
0
0
0
0
0
4.99462e-06
6.00822e-05
0.000228586
0.000423854
0
0
0
0
0
0
0
0
0
0
0
0
0
0
0
4.82135e-06
5.46922e-05
0.000204802
0.000398666
0
0
0
0
0
0
0
0
0
0
0
0
0
0
0
3.03879e-06
4.31141e-05
0.000176863
0.000376971
0
0
0
0
0
0
0
0
1.7721e-07
5.1256e-07
5.11114e-07
2.53739e-07
0
0
0
6.80039e-07
3.12235e-05
0.000156691
0.000359636
0
0
0
0
0
0
4.88014e-07
1.52287e-06
3.14671e-06
3.20198e-06
2.79377e-06
1.88319e-06
9.69711e-07
2.16588e-08
0
1.09354e-06
2.84366e-05
0.000144937
0.00034565
0
0
0
0
0
1.05007e-06
2.88205e-06
5.98295e-06
8.52038e-06
8.35663e-06
7.4287e-06
5.785e-06
3.93996e-06
1.60838e-06
0
9.81357e-07
2.85598e-05
0.000153914
0.000337678
0
0
0
0
6.5753e-07
3.52774e-06
7.15636e-06
1.39917e-05
1.7625e-05
1.72033e-05
1.56622e-05
1.23729e-05
9.18171e-06
5.60957e-06
1.24127e-06
1.76454e-06
2.87985e-05
0.000147205
0.000321768
0
0
0
0
3.55632e-06
9.51758e-06
1.67284e-05
2.73239e-05
3.20855e-05
3.17824e-05
2.85322e-05
2.22788e-05
1.53756e-05
8.66571e-06
2.0256e-06
2.71232e-06
2.95275e-05
0.000138374
0.000314768
0
0
0
1.7106e-06
8.65746e-06
1.90766e-05
3.26893e-05
4.33058e-05
4.75571e-05
4.73321e-05
4.14817e-05
3.12322e-05
2.10269e-05
1.22006e-05
3.04674e-06
3.67427e-06
3.23991e-05
0.000152618
0.000314028
0
0
0
4.01664e-06
1.25361e-05
2.61173e-05
4.65893e-05
5.87123e-05
6.29923e-05
6.1475e-05
5.50927e-05
4.40184e-05
3.01446e-05
1.68627e-05
4.66351e-06
4.72234e-06
3.09573e-05
0.000138159
0.000288291
0
0
6.78633e-07
6.91821e-06
1.82112e-05
3.38984e-05
5.7643e-05
7.1617e-05
7.52646e-05
7.28274e-05
6.8066e-05
5.79748e-05
4.18215e-05
2.5353e-05
8.3218e-06
6.08855e-06
2.84058e-05
0.000123556
0.000264654
0
0
2.28448e-06
1.00001e-05
2.3198e-05
4.00822e-05
6.49025e-05
7.96376e-05
7.89535e-05
7.2882e-05
6.94344e-05
6.52673e-05
5.35883e-05
3.3658e-05
1.36629e-05
8.15554e-06
2.84076e-05
0.000114995
0.00025478
0
3.93015e-07
5.54732e-06
1.59301e-05
3.32592e-05
5.3744e-05
7.32125e-05
8.15746e-05
7.30896e-05
6.29458e-05
6.07597e-05
6.12739e-05
5.51882e-05
3.99053e-05
2.22948e-05
1.16528e-05
2.61767e-05
0.000110976
0.000268792
0
1.28103e-06
8.3023e-06
2.12077e-05
4.08816e-05
6.51521e-05
7.87325e-05
7.81567e-05
6.46664e-05
5.38903e-05
5.12375e-05
5.38305e-05
5.42418e-05
4.50792e-05
2.80043e-05
1.32189e-05
2.42072e-05
9.00025e-05
0.000220522
0
2.09505e-06
1.05844e-05
2.47237e-05
4.49977e-05
6.96962e-05
7.95041e-05
7.28067e-05
5.79801e-05
4.89973e-05
4.47624e-05
4.60633e-05
4.98134e-05
4.43557e-05
2.98902e-05
1.50315e-05
2.49508e-05
7.71217e-05
0.000191742
0
3.13826e-06
1.30469e-05
2.41318e-05
3.74814e-05
5.75897e-05
7.63735e-05
7.36805e-05
6.04252e-05
4.91345e-05
4.10275e-05
3.91115e-05
4.17907e-05
3.96085e-05
2.76007e-05
1.52397e-05
2.40177e-05
7.27708e-05
0.000195152
0
3.36697e-06
1.44073e-05
2.44777e-05
3.44642e-05
4.77333e-05
6.82548e-05
7.57501e-05
6.62287e-05
5.01058e-05
3.90701e-05
3.44357e-05
3.25147e-05
2.98203e-05
2.09525e-05
1.432e-05
2.13638e-05
5.57102e-05
0.000153122
)
;

boundaryField
{
    leftWall
    {
        type            zeroGradient;
    }
    rightWall
    {
        type            zeroGradient;
    }
    lowerWall
    {
        type            zeroGradient;
    }
    atmosphere
    {
        type            inletOutlet;
        inletValue      uniform 0;
        value           nonuniform List<scalar> 
46
(
0.0132288
0.00174389
0.0005509
0.000255677
7.63014e-05
4.0542e-05
2.60798e-05
1.58403e-05
1.50388e-05
8.74413e-06
0
0
0
0
0
0
0
9.73761e-08
4.46051e-08
3.12881e-09
0
0
0
0
0
0
0
0
3.36697e-06
1.44073e-05
2.44777e-05
3.44642e-05
4.77333e-05
6.82548e-05
7.57501e-05
6.62287e-05
5.01058e-05
3.90701e-05
3.44357e-05
3.25147e-05
2.98203e-05
2.09525e-05
1.432e-05
2.13638e-05
5.57102e-05
0.000153122
)
;
    }
    defaultFaces
    {
        type            empty;
    }
}


// ************************************************************************* //
