/*--------------------------------*- C++ -*----------------------------------*\
| =========                 |                                                 |
| \\      /  F ield         | foam-extend: Open Source CFD                    |
|  \\    /   O peration     | Version:     4.1                                |
|   \\  /    A nd           | Web:         http://www.foam-extend.org         |
|    \\/     M anipulation  |                                                 |
\*---------------------------------------------------------------------------*/
FoamFile
{
    version     2.0;
    format      ascii;
    class       volScalarField;
    location    "0.9";
    object      C;
}
// * * * * * * * * * * * * * * * * * * * * * * * * * * * * * * * * * * * * * //

dimensions      [0 0 0 0 0 0 0];

internalField   nonuniform List<scalar> 
2268
(
0.996859
0.991804
0.985516
0.982799
0.984153
0.985959
0.986888
0.987188
0.987541
0.988011
0.988737
0.990033
0.992525
0.995442
0.998616
1.00151
1.00337
1.00509
1.00664
1.00684
1.00643
1.00642
1.00697
0.993908
0.988282
0.981341
0.978823
0.981051
0.983741
0.985335
0.986
0.986419
0.986692
0.987285
0.988808
0.991846
0.99426
0.996537
0.998676
1.00029
1.00289
1.00596
1.00683
1.00647
1.00666
1.00748
0.987295
0.980445
0.972383
0.970547
0.974652
0.979131
0.982027
0.983357
0.983818
0.983589
0.983806
0.985432
0.988526
0.987948
0.986654
0.986912
0.988555
0.994577
1.00208
1.00549
1.00575
1.00685
1.00851
0.97708
0.968503
0.959212
0.958822
0.965708
0.972575
0.977068
0.979064
0.979307
0.978112
0.977284
0.977683
0.977806
0.968129
0.957211
0.954397
0.958419
0.973749
0.990066
1.00013
1.00245
1.0062
1.00981
0.963232
0.952734
0.942547
0.94461
0.954915
0.964243
0.970082
0.972323
0.971707
0.968615
0.965123
0.959984
0.949646
0.918202
0.885105
0.880874
0.893953
0.928827
0.960469
0.985716
0.992695
1.00266
1.01054
0.945609
0.933445
0.923183
0.92873
0.942523
0.953636
0.959839
0.961221
0.958519
0.951658
0.941383
0.921216
0.8858
0.811502
0.739241
0.739055
0.773436
0.841302
0.899155
0.952819
0.969129
0.991504
1.00852
0.923913
0.910871
0.901749
0.911485
0.927889
0.939068
0.943693
0.942091
0.934917
0.920501
0.894356
0.842573
0.760655
0.622719
0.499314
0.507998
0.575612
0.691893
0.784578
0.884543
0.920006
0.963486
0.99866
0.897648
0.884803
0.878071
0.891614
0.90824
0.917034
0.917249
0.909173
0.892767
0.862544
0.802762
0.696908
0.553666
0.360514
0.217485
0.223607
0.315705
0.475235
0.594902
0.758266
0.829264
0.903047
0.968735
-0.224573
-0.22775
-0.215509
-0.196178
-0.174216
-0.13495
-0.10361
-0.079266
-0.0608529
-0.043383
-0.0288559
-0.0187738
-0.0122662
-0.0119051
-0.00586663
-0.0184805
0.0769015
0.10133
0.109386
-0.226578
-0.2406
-0.250564
-0.251827
-0.248874
-0.2151
-0.171081
-0.128479
-0.104269
-0.071189
-0.032508
-0.00621343
0.0140858
0.0201578
0.0263335
-0.0323017
0.0319135
0.0598605
0.0762706
-0.229486
-0.258349
-0.286536
-0.301679
-0.312434
-0.30049
-0.270092
-0.209602
-0.191193
-0.145104
-0.0654919
-0.00453562
0.0362255
0.0601798
0.0822953
-0.0262634
-0.0367232
-0.0100623
0.0184121
-0.232431
-0.267943
-0.287566
-0.301504
-0.323493
-0.329627
-0.342267
-0.284296
-0.291969
-0.2549
-0.148002
-0.0405083
0.0262005
0.0728182
0.134339
0.0205205
-0.0781129
-0.071653
-0.041785
-0.233428
-0.265543
-0.25254
-0.243316
-0.268954
-0.300732
-0.36476
-0.335843
-0.374773
-0.36792
-0.272839
-0.132234
-0.0383413
0.0359929
0.156766
0.0699467
-0.0656902
-0.0979626
-0.0892137
-0.232387
-0.259271
-0.203126
-0.16253
-0.179255
-0.255733
-0.359955
-0.369546
-0.426939
-0.455234
-0.393948
-0.265518
-0.152827
-0.0444217
0.136785
0.116625
0.00160821
-0.0838255
-0.120079
-0.233927
-0.252527
-0.175516
-0.0983865
-0.122055
-0.235514
-0.351563
-0.392839
-0.459641
-0.512288
-0.480371
-0.390743
-0.281195
-0.144179
0.0797766
0.152069
0.0793315
-0.0479226
-0.140374
-0.237984
-0.253671
-0.180829
-0.07653
-0.115212
-0.265552
-0.366359
-0.42123
-0.489531
-0.546664
-0.531811
-0.475505
-0.378204
-0.222639
0.0244438
0.172454
0.127965
-0.0217808
-0.166085
0.848891
0.837684
0.835238
0.852424
0.864019
0.864877
0.851642
0.825761
0.78205
0.70291
0.549279
0.336758
0.147799
-0.0111202
-0.0988076
-0.103881
-0.05641
0.0713406
0.211592
0.445496
0.608872
0.738141
0.860425
0.763969
0.754704
0.750243
0.756265
0.743817
0.716202
0.661181
0.587655
0.465692
0.248846
-0.0418899
-0.199012
-0.208003
-0.179994
-0.16191
-0.118982
-0.0730568
-0.105685
-0.0889779
-0.0270606
0.184037
0.333706
0.501728
0.646412
0.627829
0.585191
0.516397
0.410304
0.30603
0.172126
0.0587022
-0.105589
-0.233473
-0.30006
-0.276593
-0.168902
-0.0983069
-0.0449799
0.0159448
0.0652986
0.0954924
0.0992468
0.119814
0.261026
0.362435
0.430563
0.472055
0.404946
0.267057
0.0883472
-0.113199
-0.312738
-0.44044
-0.412832
-0.456768
-0.413061
-0.342413
-0.268072
-0.253134
-0.306962
-0.24739
-0.137318
0.0095784
0.155744
0.221794
0.252699
0.281292
0.29334
0.226155
0.201762
0.015503
-0.192899
-0.384099
-0.43926
-0.535701
-0.656803
-0.613118
-0.603315
-0.521982
-0.458971
-0.436948
-0.485991
-0.545054
-0.545563
-0.491023
-0.401037
-0.283322
-0.17031
-0.0876228
-0.0220057
0.020227
-0.00231557
-0.146374
-0.359989
-0.505323
-0.577381
-0.622389
-0.66401
-0.709668
-0.653642
-0.589754
-0.527111
-0.517429
-0.559414
-0.594947
-0.60387
-0.589994
-0.569148
-0.549455
-0.528945
-0.496905
-0.436859
-0.372187
-0.324738
-0.308018
-0.416222
-0.533245
-0.588954
-0.612573
-0.644369
-0.673731
-0.686481
-0.620594
-0.560917
-0.544485
-0.585918
-0.606641
-0.611894
-0.602107
-0.596954
-0.594039
-0.588215
-0.580925
-0.569521
-0.54042
-0.524859
-0.516513
-0.509847
-0.525177
-0.565407
-0.563235
-0.57614
-0.609989
-0.627664
-0.613252
-0.575548
-0.563614
-0.583704
-0.61687
-0.625329
-0.628762
-0.631259
-0.64389
-0.651857
-0.655824
-0.638606
-0.636865
-0.63801
-0.638976
-0.651932
-0.667624
-0.549815
-0.563795
-0.561259
-0.573023
-0.582016
-0.585851
-0.58462
-0.579715
-0.591643
-0.625066
-0.646378
-0.661482
-0.692965
-0.730783
-0.758835
-0.772427
-0.778251
-0.760278
-0.759296
-0.775329
-0.782055
-0.760993
-0.792378
-0.56456
-0.57537
-0.580805
-0.593624
-0.597547
-0.598345
-0.605812
-0.61622
-0.646032
-0.674518
-0.691799
-0.733183
-0.799169
-0.851195
-0.876779
-0.885963
-0.887259
-0.873886
-0.870309
-0.879308
-0.884474
-0.869631
-0.881184
-0.57237
-0.589489
-0.610009
-0.636831
-0.645644
-0.651102
-0.669092
-0.686095
-0.702798
-0.738126
-0.771463
-0.82981
-0.892285
-0.934214
-0.950151
-0.953862
-0.953186
-0.944932
-0.94311
-0.944774
-0.944328
-0.936786
-0.942041
-0.5792
-0.613275
-0.665422
-0.70189
-0.718965
-0.743276
-0.766812
-0.7851
-0.783599
-0.826575
-0.873832
-0.911676
-0.947356
-0.97451
-0.984231
-0.984271
-0.981901
-0.977453
-0.976715
-0.977044
-0.976034
-0.973153
-0.976201
-0.587915
-0.633053
-0.713906
-0.770861
-0.805573
-0.83444
-0.855414
-0.870719
-0.86266
-0.901823
-0.941945
-0.957885
-0.969274
-0.985726
-0.994814
-0.995216
-0.993943
-0.991929
-0.991389
-0.991094
-0.990249
-0.988926
-0.989844
-0.595239
-0.644634
-0.733346
-0.805096
-0.849031
-0.874434
-0.895995
-0.919733
-0.913298
-0.938914
-0.965243
-0.978106
-0.983365
-0.99095
-0.997453
-0.998345
-0.997942
-0.997545
-0.997533
-0.997224
-0.996574
-0.995853
-0.995862
-0.602547
-0.653483
-0.74061
-0.816313
-0.861337
-0.892477
-0.915124
-0.934205
-0.941522
-0.961806
-0.980594
-0.989099
-0.991998
-0.994909
-0.998083
-0.99921
-0.999455
-0.999485
-0.999554
-0.999518
-0.999274
-0.998956
-0.998684
-0.610078
-0.660406
-0.748983
-0.830911
-0.877205
-0.906143
-0.926583
-0.940719
-0.951157
-0.966188
-0.983228
-0.993147
-0.996417
-0.997876
-0.999196
-0.999764
-0.999926
-0.999959
-0.999975
-0.999988
-0.999972
-0.999918
-0.999771
-0.618233
-0.666652
-0.750049
-0.830449
-0.880605
-0.909123
-0.925049
-0.939496
-0.952069
-0.965638
-0.980651
-0.992398
-0.997668
-0.999149
-0.999661
-0.999872
-0.999971
-1.00001
-1.00002
-1.00003
-1.00004
-1.00004
-1
-0.627022
-0.670716
-0.745598
-0.82393
-0.877867
-0.900727
-0.913503
-0.933937
-0.949804
-0.960167
-0.973224
-0.986721
-0.995919
-0.998664
-0.999381
-0.999726
-0.999893
-0.999972
-0.999999
-1.00001
-1.00002
-1.00002
-1.00002
-0.637108
-0.673384
-0.735848
-0.815902
-0.868725
-0.889052
-0.91679
-0.943548
-0.957572
-0.961939
-0.966863
-0.976319
-0.988736
-0.995826
-0.998451
-0.999457
-0.9998
-0.999931
-0.999979
-0.999996
-1
-1
-1.00001
-0.649747
-0.676837
-0.721449
-0.794292
-0.851813
-0.891686
-0.927165
-0.953279
-0.969102
-0.974012
-0.974045
-0.976306
-0.984531
-0.993287
-0.9974
-0.99896
-0.99957
-0.999854
-0.999955
-0.999988
-0.999997
-0.999999
-1
-0.665853
-0.684599
-0.71349
-0.759815
-0.817115
-0.865487
-0.901318
-0.943828
-0.9713
-0.982182
-0.982452
-0.98023
-0.982395
-0.988142
-0.994072
-0.99714
-0.998809
-0.999607
-0.999895
-0.999979
-0.999996
-0.999999
-1
-0.686409
-0.697656
-0.718411
-0.744097
-0.784329
-0.825872
-0.878173
-0.940606
-0.980308
-0.991801
-0.991643
-0.987095
-0.984813
-0.986632
-0.990799
-0.994621
-0.99778
-0.999324
-0.999833
-0.999966
-0.999994
-0.999999
-1
-0.71337
-0.719232
-0.734178
-0.745395
-0.768521
-0.808709
-0.880482
-0.95258
-0.985477
-0.994853
-0.995412
-0.992121
-0.987455
-0.987513
-0.989352
-0.993078
-0.997371
-0.999335
-0.999886
-0.999984
-0.999999
-1
-1
-0.74645
-0.749868
-0.757021
-0.753746
-0.770274
-0.813095
-0.888387
-0.954057
-0.987126
-0.996047
-0.996342
-0.994255
-0.989995
-0.989376
-0.990927
-0.994258
-0.997695
-0.999349
-0.999873
-0.999982
-0.999998
-1
-1
-0.775941
-0.778692
-0.779161
-0.768391
-0.779426
-0.82349
-0.900711
-0.960511
-0.988205
-0.996506
-0.996447
-0.994069
-0.99139
-0.992366
-0.99523
-0.998157
-0.999588
-0.999945
-1
-1
-1
-1
-1
-0.795858
-0.796579
-0.800612
-0.78818
-0.80238
-0.847719
-0.916467
-0.967947
-0.991449
-0.997756
-0.996818
-0.994439
-0.993476
-0.99615
-0.998513
-0.999714
-1.00001
-1.00002
-1.00001
-1
-1
-1
-1
-0.807998
-0.810047
-0.82448
-0.820544
-0.844182
-0.902591
-0.958557
-0.986558
-0.997633
-0.99886
-0.997829
-0.996873
-0.996712
-0.998762
-0.999713
-0.999997
-1.00001
-1
-0.999999
-1
-1
-1
-1
-0.815214
-0.821687
-0.848347
-0.868886
-0.902435
-0.946561
-0.979968
-0.994334
-0.999075
-0.999257
-0.999033
-0.998982
-0.999091
-0.999607
-0.999875
-0.99997
-0.999982
-0.999985
-0.999993
-0.999998
-1
-1
-1
-0.821955
-0.837097
-0.875576
-0.912611
-0.949048
-0.975073
-0.991288
-0.998052
-0.99953
-0.999247
-0.99909
-0.999014
-0.998989
-0.999012
-0.999499
-0.999838
-0.999914
-0.999951
-0.99998
-0.999994
-0.999999
-1
-1
-0.828347
-0.842964
-0.881773
-0.924542
-0.961513
-0.984277
-0.995843
-0.999225
-0.999348
-0.998703
-0.998243
-0.997974
-0.997894
-0.998056
-0.998843
-0.999535
-0.999765
-0.99989
-0.99996
-0.999989
-0.999998
-1
-1
-0.836219
-0.853971
-0.895112
-0.937557
-0.971277
-0.989739
-0.99775
-0.99951
-0.999283
-0.998414
-0.997643
-0.99725
-0.997129
-0.997413
-0.99824
-0.999155
-0.999591
-0.999829
-0.999942
-0.999985
-0.999998
-1
-1
-0.845406
-0.867487
-0.910472
-0.950034
-0.978238
-0.992739
-0.998483
-0.999518
-0.999123
-0.998067
-0.997271
-0.997025
-0.996936
-0.997137
-0.997865
-0.998888
-0.99949
-0.999802
-0.999939
-0.999985
-0.999997
-1
-1
-0.855825
-0.882684
-0.925989
-0.96211
-0.984096
-0.994834
-0.998857
-0.999489
-0.999178
-0.998419
-0.997655
-0.997401
-0.997108
-0.99705
-0.997614
-0.998731
-0.999487
-0.999829
-0.999954
-0.999989
-0.999998
-1
-1
-0.867622
-0.900209
-0.942276
-0.973375
-0.988991
-0.996155
-0.998866
-0.99941
-0.999239
-0.998836
-0.998199
-0.99792
-0.997403
-0.997137
-0.997552
-0.998674
-0.999481
-0.999814
-0.999954
-0.99999
-0.999998
-1
-1
-0.879655
-0.916558
-0.954983
-0.981106
-0.992135
-0.996822
-0.998728
-0.999204
-0.999135
-0.998882
-0.998521
-0.998132
-0.997493
-0.997176
-0.997509
-0.998513
-0.999473
-0.999856
-0.999976
-0.999998
-1
-1
-1
-0.890844
-0.930391
-0.964945
-0.986467
-0.994372
-0.997199
-0.998374
-0.998726
-0.998647
-0.998528
-0.998282
-0.997768
-0.997082
-0.997111
-0.997697
-0.999026
-0.999757
-0.999962
-0.999998
-1
-1
-1
-1
-0.901408
-0.943385
-0.974562
-0.990939
-0.995842
-0.997162
-0.997667
-0.997747
-0.997535
-0.997547
-0.997392
-0.997042
-0.996862
-0.997333
-0.998253
-0.99936
-0.999864
-0.999987
-1
-1
-1
-1
-1
-0.912063
-0.956767
-0.984165
-0.994229
-0.996257
-0.996636
-0.996605
-0.996542
-0.996448
-0.996494
-0.996568
-0.99673
-0.997222
-0.998005
-0.998889
-0.999642
-0.999925
-0.99999
-1
-1
-1
-1
-1
-0.923091
-0.967794
-0.989534
-0.995154
-0.996043
-0.996228
-0.99638
-0.996568
-0.99667
-0.996854
-0.997305
-0.997869
-0.998785
-0.999378
-0.999715
-0.999931
-0.999996
-1
-1
-1
-1
-1
-1
-0.934005
-0.977247
-0.992664
-0.995789
-0.996529
-0.99705
-0.997552
-0.998054
-0.998213
-0.99845
-0.998947
-0.999295
-0.999708
-0.999916
-0.999985
-1.00001
-1.00001
-1
-1
-1
-1
-1
-1
-0.948214
-0.987064
-0.995619
-0.997514
-0.998586
-0.999096
-0.999364
-0.999576
-0.99963
-0.9997
-0.999862
-0.999931
-0.999997
-1.00002
-1.00001
-1.00001
-1
-1
-1
-1
-1
-1
-1
-0.973542
-0.996512
-0.998898
-0.999489
-0.999847
-0.999919
-0.999948
-0.999968
-0.99997
-0.999983
-1.00002
-1.00003
-1.00003
-1.00002
-1.00001
-1
-1
-1
-1
-1
-1
-1
-1
0.854847
0.860626
0.831229
0.641059
0.586756
0.643497
0.663622
0.550502
0.430094
0.423436
0.383366
0.277599
0.161906
0.12916
0.0706799
0.00275122
-0.043235
-0.0643344
-0.109129
-0.191996
-0.314347
-0.329132
-0.357826
-0.414262
-0.513794
-0.525606
-0.54368
-0.56075
-0.678158
-0.690003
-0.703218
-0.716233
-0.816743
-0.830462
-0.842909
-0.854308
-0.899842
-0.909222
-0.917547
-0.925803
-0.949105
-0.952889
-0.956088
-0.960412
-0.978821
-0.980541
-0.982052
-0.983929
-0.991054
-0.992095
-0.992994
-0.994097
-0.996293
-0.996765
-0.997189
-0.997732
-0.998636
-0.998758
-0.998913
-0.999119
-0.999641
-0.999626
-0.999654
-0.999712
-0.999958
-0.999938
-0.999938
-0.999948
-1.00002
-1.00001
-1.00001
-1
-1.00001
-1.00001
-1.00001
-1.00001
-1
-1
-1
-1
-1
-1
-1
-1
-1
-1
-1
-1
-1
-1
-1
-1
-1
-1
-1
-1
-1
-1
-1
-1
-1
-1
-1
-1
-1
-1
-1
-1
-1
-1
-1
-1
-1
-1
-1
-1
-1
-1
-1
-1
-1
-1
-1
-1
-1
-1
-1
-1
-1
-1
-1
-1
-1
-1
-1
-1
-1
-1
-1
-1
-1
-1
-1
-1
-1
-1
-1
-1
-1
-1
-1
-1
-1
-1
-1
-1
-1
-1
-1
-1
-1
-1
-1
-1
-1
-1
-1
-1
-0.175216
-0.263266
-0.207337
-0.105614
-0.193825
-0.384247
-0.441969
-0.484921
-0.54274
-0.588228
-0.577598
-0.54106
-0.44823
-0.274671
0.00116693
0.187173
0.15888
-0.0214075
-0.234148
-0.0826119
-0.226089
-0.146497
-0.206659
-0.414007
-0.571716
-0.608912
-0.619273
-0.632147
-0.625051
-0.590129
-0.54815
-0.446207
-0.197407
0.0998043
0.144801
0.103672
-0.154162
-0.373576
-0.105254
-0.210403
-0.302678
-0.456112
-0.552599
-0.601556
-0.632714
-0.647727
-0.649891
-0.597066
-0.433009
-0.379782
-0.29299
-0.136063
-0.0339509
-0.114469
-0.145434
-0.410181
-0.531677
-0.189037
-0.415225
-0.529372
-0.570841
-0.617888
-0.582706
-0.574067
-0.589163
-0.565873
-0.472467
-0.309775
-0.258637
-0.193102
-0.282937
-0.408335
-0.558896
-0.585721
-0.711543
-0.688838
-0.374172
-0.566952
-0.59066
-0.557272
-0.534685
-0.509509
-0.491052
-0.459767
-0.419168
-0.3881
-0.478605
-0.56189
-0.562401
-0.675396
-0.752101
-0.838779
-0.852345
-0.877058
-0.815517
-0.504187
-0.543994
-0.538721
-0.556737
-0.577283
-0.591513
-0.611277
-0.617072
-0.680308
-0.723979
-0.795304
-0.845402
-0.870672
-0.912016
-0.935649
-0.95452
-0.951759
-0.945386
-0.916901
-0.58407
-0.635937
-0.696108
-0.750323
-0.787104
-0.812617
-0.81954
-0.82926
-0.861075
-0.902432
-0.931888
-0.952815
-0.966763
-0.977607
-0.982415
-0.9844
-0.984208
-0.979246
-0.97502
-0.73733
-0.787681
-0.825328
-0.856792
-0.880034
-0.89942
-0.901983
-0.918696
-0.937655
-0.955157
-0.96837
-0.978256
-0.986049
-0.990229
-0.991848
-0.992754
-0.993469
-0.993427
-0.992951
-0.870691
-0.893149
-0.910708
-0.925381
-0.928642
-0.934926
-0.936405
-0.944805
-0.957425
-0.968706
-0.978287
-0.985594
-0.989991
-0.992561
-0.99404
-0.995079
-0.995707
-0.996231
-0.995682
-0.937259
-0.948271
-0.951461
-0.962397
-0.963055
-0.961536
-0.960316
-0.95946
-0.964595
-0.971487
-0.977929
-0.983828
-0.988462
-0.991654
-0.994012
-0.995568
-0.996433
-0.996889
-0.99662
-0.968282
-0.977536
-0.979236
-0.982189
-0.983254
-0.9814
-0.979083
-0.974749
-0.972536
-0.976289
-0.979499
-0.982152
-0.985124
-0.988329
-0.99227
-0.995128
-0.996711
-0.997351
-0.997263
-0.987117
-0.990576
-0.992379
-0.993103
-0.993469
-0.99219
-0.991241
-0.988333
-0.984957
-0.985385
-0.986308
-0.986706
-0.986938
-0.988309
-0.991095
-0.994994
-0.997031
-0.997708
-0.997696
-0.995565
-0.996612
-0.997246
-0.997634
-0.997698
-0.99696
-0.996974
-0.996194
-0.994222
-0.993866
-0.993968
-0.993681
-0.992419
-0.991274
-0.992004
-0.995734
-0.9976
-0.998005
-0.998001
-0.998503
-0.998953
-0.999102
-0.999262
-0.999213
-0.998831
-0.998963
-0.998909
-0.998256
-0.998128
-0.998221
-0.997926
-0.996796
-0.994855
-0.994188
-0.996416
-0.998001
-0.99827
-0.998209
-0.999468
-0.999705
-0.999766
-0.999796
-0.99976
-0.999594
-0.999574
-0.999627
-0.999576
-0.999566
-0.999608
-0.999514
-0.999003
-0.997785
-0.997368
-0.997769
-0.998538
-0.998537
-0.998357
-0.999823
-0.999929
-0.999959
-0.999959
-0.999938
-0.999875
-0.999809
-0.999841
-0.999891
-0.999904
-0.999918
-0.999923
-0.999829
-0.999369
-0.99919
-0.999076
-0.999028
-0.99878
-0.998475
-0.999966
-0.999993
-1
-0.999999
-0.999992
-0.99997
-0.999934
-0.999937
-0.99996
-0.99997
-0.999972
-0.99998
-0.999985
-0.9999
-0.999815
-0.99963
-0.999324
-0.998967
-0.998574
-1
-1.00001
-1.00001
-1.00001
-1
-0.999996
-0.999986
-0.999983
-0.999988
-0.999991
-0.99999
-0.99999
-0.999996
-0.999997
-0.999965
-0.999855
-0.999564
-0.999119
-0.998658
-1.00001
-1.00001
-1
-1
-1
-1
-1
-0.999998
-0.999999
-0.999999
-0.999998
-0.999997
-0.999999
-1.00001
-0.999994
-0.999916
-0.99968
-0.999218
-0.998731
-1
-1
-1
-1
-1
-1
-1
-1
-1
-1
-1
-1
-1
-1.00001
-1
-0.999941
-0.999738
-0.999285
-0.998796
-1
-1
-1
-1
-1
-1
-1
-1
-1
-1
-1
-1
-1
-1.00001
-1
-0.999955
-0.999775
-0.999336
-0.998859
-1
-1
-1
-1
-1
-1
-1
-1
-1
-1
-1
-1
-1
-1
-1
-0.999971
-0.99981
-0.999379
-0.998921
-1
-1
-1
-1
-1
-1
-1
-1
-1
-1
-1
-1
-1
-1
-1
-0.999976
-0.999827
-0.999414
-0.998983
-1
-1
-1
-1
-1
-1
-1
-1
-1
-1
-1
-1
-1
-1
-1
-0.999984
-0.999849
-0.999459
-0.999042
-1
-1
-1
-1
-1
-1
-1
-1
-1
-1
-1
-1
-1
-1
-1
-0.999988
-0.999867
-0.999496
-0.999094
-1
-1
-1
-1
-1
-1
-1
-1
-1
-1
-1
-1
-1
-1
-1
-0.99999
-0.99988
-0.999543
-0.999152
-1
-1
-1
-1
-1
-1
-1
-1
-1
-1
-1
-1
-1
-1
-1
-0.99999
-0.999891
-0.99959
-0.999203
-1
-1
-1
-1
-1
-1
-1
-1
-1
-1
-1
-1
-1
-1
-1
-0.999994
-0.999914
-0.999646
-0.999246
-1
-1
-1
-1
-1
-1
-1
-1
-1
-0.999999
-0.999999
-0.999999
-1
-1
-1
-0.999999
-0.999938
-0.999687
-0.999281
-1
-1
-1
-1
-1
-1
-0.999999
-0.999997
-0.999994
-0.999994
-0.999994
-0.999996
-0.999998
-1
-1
-0.999998
-0.999943
-0.99971
-0.999309
-1
-1
-1
-1
-1
-0.999998
-0.999994
-0.999988
-0.999983
-0.999983
-0.999985
-0.999988
-0.999992
-0.999997
-1
-0.999998
-0.999943
-0.999692
-0.999325
-1
-1
-1
-1
-0.999999
-0.999993
-0.999986
-0.999972
-0.999965
-0.999966
-0.999969
-0.999975
-0.999982
-0.999989
-0.999998
-0.999996
-0.999942
-0.999706
-0.999356
-1
-1
-1
-1
-0.999993
-0.999981
-0.999967
-0.999945
-0.999936
-0.999936
-0.999943
-0.999955
-0.999969
-0.999983
-0.999996
-0.999995
-0.999941
-0.999723
-0.99937
-1
-1
-1
-0.999997
-0.999983
-0.999962
-0.999935
-0.999913
-0.999905
-0.999905
-0.999917
-0.999938
-0.999958
-0.999976
-0.999994
-0.999993
-0.999935
-0.999695
-0.999372
-1
-1
-1
-0.999992
-0.999975
-0.999948
-0.999907
-0.999883
-0.999874
-0.999877
-0.99989
-0.999912
-0.99994
-0.999966
-0.999991
-0.999991
-0.999938
-0.999724
-0.999423
-1
-1
-0.999999
-0.999986
-0.999964
-0.999932
-0.999885
-0.999857
-0.999849
-0.999854
-0.999864
-0.999884
-0.999916
-0.999949
-0.999983
-0.999988
-0.999943
-0.999753
-0.999471
-1
-1
-0.999995
-0.99998
-0.999954
-0.99992
-0.99987
-0.999841
-0.999842
-0.999854
-0.999861
-0.999869
-0.999893
-0.999933
-0.999973
-0.999984
-0.999943
-0.99977
-0.99949
-1
-0.999999
-0.999989
-0.999968
-0.999933
-0.999893
-0.999854
-0.999837
-0.999854
-0.999874
-0.999878
-0.999877
-0.99989
-0.99992
-0.999955
-0.999977
-0.999948
-0.999778
-0.999462
-1
-0.999997
-0.999983
-0.999958
-0.999918
-0.99987
-0.999843
-0.999844
-0.999871
-0.999892
-0.999898
-0.999892
-0.999892
-0.99991
-0.999944
-0.999974
-0.999952
-0.99982
-0.999559
-1
-0.999996
-0.999979
-0.999951
-0.99991
-0.999861
-0.999841
-0.999854
-0.999884
-0.999902
-0.99991
-0.999908
-0.9999
-0.999911
-0.99994
-0.99997
-0.99995
-0.999846
-0.999617
-1
-0.999994
-0.999974
-0.999952
-0.999925
-0.999885
-0.999847
-0.999853
-0.999879
-0.999902
-0.999918
-0.999922
-0.999916
-0.999921
-0.999945
-0.99997
-0.999952
-0.999854
-0.99961
-1
-0.999993
-0.999971
-0.999951
-0.999931
-0.999905
-0.999863
-0.999848
-0.999868
-0.9999
-0.999922
-0.999931
-0.999935
-0.99994
-0.999958
-0.999971
-0.999957
-0.999889
-0.999694
)
;

boundaryField
{
    leftWall
    {
        type            zeroGradient;
    }
    rightWall
    {
        type            zeroGradient;
    }
    lowerWall
    {
        type            zeroGradient;
    }
    atmosphere
    {
        type            zeroGradient;
    }
    defaultFaces
    {
        type            empty;
    }
}


// ************************************************************************* //
