/*--------------------------------*- C++ -*----------------------------------*\
| =========                 |                                                 |
| \\      /  F ield         | foam-extend: Open Source CFD                    |
|  \\    /   O peration     | Version:     4.1                                |
|   \\  /    A nd           | Web:         http://www.foam-extend.org         |
|    \\/     M anipulation  |                                                 |
\*---------------------------------------------------------------------------*/
FoamFile
{
    version     2.0;
    format      ascii;
    class       volScalarField;
    location    "0.9";
    object      C_0;
}
// * * * * * * * * * * * * * * * * * * * * * * * * * * * * * * * * * * * * * //

dimensions      [0 0 0 0 0 0 0];

internalField   nonuniform List<scalar> 
2268
(
0.996933
0.991878
0.985592
0.982871
0.984223
0.98601
0.98692
0.987205
0.987556
0.988034
0.988765
0.990055
0.992517
0.995413
0.998578
1.00148
1.00335
1.00508
1.0066
1.0068
1.0064
1.00641
1.00697
0.993987
0.988353
0.981409
0.978883
0.981112
0.983788
0.985365
0.986017
0.986437
0.986719
0.987313
0.988824
0.991834
0.994252
0.996545
0.998701
1.00034
1.00295
1.00596
1.00681
1.00645
1.00665
1.00747
0.987382
0.980509
0.97243
0.970583
0.974698
0.97917
0.982054
0.983377
0.983845
0.983624
0.983834
0.98545
0.988544
0.988043
0.986813
0.987065
0.988749
0.994779
1.00217
1.0055
1.00574
1.00684
1.00851
0.977176
0.968553
0.959228
0.958831
0.965737
0.972607
0.977095
0.979096
0.979352
0.978157
0.977325
0.977758
0.977984
0.968511
0.957715
0.954764
0.958834
0.974155
0.99025
1.00018
1.00244
1.00618
1.00981
0.963337
0.952764
0.942524
0.944593
0.954932
0.964274
0.970121
0.972384
0.971788
0.968687
0.965223
0.960267
0.950263
0.919219
0.886278
0.881549
0.894615
0.929456
0.960742
0.985779
0.99268
1.00262
1.01051
0.945716
0.933449
0.923118
0.928696
0.942534
0.953674
0.959904
0.961337
0.958673
0.951804
0.941681
0.922005
0.887345
0.813647
0.741399
0.740026
0.774242
0.842095
0.899444
0.952866
0.969095
0.991428
1.00845
0.92401
0.910843
0.901644
0.911448
0.927901
0.93912
0.943795
0.942299
0.935219
0.920855
0.89517
0.844301
0.763674
0.626258
0.502359
0.509042
0.576276
0.692692
0.784752
0.884556
0.919952
0.963358
0.998476
0.897712
0.88473
0.877932
0.891581
0.908251
0.917089
0.917394
0.909529
0.893361
0.863419
0.804677
0.700045
0.558159
0.364706
0.220317
0.224257
0.316072
0.475851
0.594892
0.758313
0.82922
0.902849
0.968359
-0.224531
-0.228292
-0.216715
-0.197507
-0.175893
-0.136809
-0.105321
-0.0807679
-0.062188
-0.0448599
-0.0302982
-0.0199614
-0.0131864
-0.0126862
-0.00660155
-0.0184117
0.0771024
0.101466
0.109604
-0.22645
-0.2409
-0.251021
-0.252343
-0.249753
-0.216521
-0.172408
-0.129408
-0.104293
-0.0716507
-0.0335865
-0.00739094
0.0133142
0.0195099
0.0255077
-0.0330151
0.0318915
0.0602483
0.0769717
-0.229202
-0.25826
-0.286295
-0.301704
-0.312601
-0.301581
-0.270501
-0.209445
-0.189227
-0.143381
-0.0648436
-0.00480888
0.0360549
0.0600877
0.0816123
-0.0279173
-0.03743
-0.00957243
0.0196343
-0.231986
-0.267585
-0.287195
-0.301507
-0.324271
-0.330317
-0.3422
-0.283314
-0.289002
-0.25138
-0.14479
-0.0383641
0.0276221
0.0738707
0.134309
0.0186488
-0.0797936
-0.0715069
-0.0405101
-0.23287
-0.265138
-0.252582
-0.243905
-0.27121
-0.302651
-0.365114
-0.334753
-0.372485
-0.364394
-0.268293
-0.127412
-0.0346351
0.0388786
0.158014
0.0687007
-0.0681157
-0.0984211
-0.0883992
-0.231772
-0.258928
-0.203587
-0.163479
-0.181931
-0.2574
-0.361227
-0.369205
-0.4262
-0.45277
-0.390147
-0.259783
-0.147328
-0.0397339
0.140006
0.116386
-0.000869687
-0.084967
-0.120037
-0.233271
-0.252288
-0.175913
-0.0989423
-0.12311
-0.236452
-0.352826
-0.3933
-0.460135
-0.511099
-0.478024
-0.385942
-0.275366
-0.138644
0.084541
0.152032
0.078373
-0.0497497
-0.141309
-0.237153
-0.253362
-0.180651
-0.0762188
-0.114336
-0.264032
-0.366102
-0.421485
-0.490456
-0.546271
-0.530456
-0.472013
-0.372999
-0.216895
0.0299892
0.1738
0.127037
-0.0243971
-0.168068
0.848858
0.837505
0.835042
0.852403
0.864008
0.864882
0.851817
0.826447
0.783477
0.705451
0.554003
0.342095
0.152204
-0.00875658
-0.0979584
-0.104041
-0.0564738
0.0716575
0.211428
0.445907
0.608929
0.737784
0.859623
0.763698
0.754293
0.749925
0.756182
0.743582
0.715722
0.661037
0.58888
0.469081
0.25554
-0.0358677
-0.198102
-0.208782
-0.180975
-0.162898
-0.120497
-0.0745642
-0.106375
-0.0897159
-0.0269968
0.184178
0.333654
0.501201
0.645838
0.627137
0.584572
0.515404
0.408095
0.303053
0.169851
0.0586683
-0.103995
-0.231667
-0.300197
-0.279228
-0.171069
-0.0990556
-0.0462621
0.0140547
0.0640664
0.0949212
0.0991383
0.120188
0.261767
0.363623
0.431276
0.471556
0.404314
0.265829
0.0856223
-0.118848
-0.318371
-0.444153
-0.41541
-0.458384
-0.415625
-0.345516
-0.267874
-0.250518
-0.302749
-0.24638
-0.138257
0.00889661
0.155362
0.221711
0.252956
0.282189
0.294544
0.227533
0.203355
0.0165224
-0.194305
-0.38642
-0.443205
-0.541124
-0.660555
-0.615838
-0.605601
-0.524459
-0.460082
-0.436256
-0.483527
-0.54403
-0.545886
-0.492093
-0.402491
-0.285527
-0.173167
-0.0900972
-0.0226097
0.0206154
-0.00103744
-0.141097
-0.358612
-0.506081
-0.578499
-0.62456
-0.666768
-0.710501
-0.654155
-0.590949
-0.527352
-0.516625
-0.557565
-0.594642
-0.60402
-0.590909
-0.570086
-0.550595
-0.530412
-0.499063
-0.440051
-0.375107
-0.32724
-0.310307
-0.411988
-0.533195
-0.589403
-0.612422
-0.644259
-0.673732
-0.685993
-0.620735
-0.560785
-0.543875
-0.585179
-0.606664
-0.612369
-0.602561
-0.597056
-0.59399
-0.58831
-0.581066
-0.569806
-0.541113
-0.525535
-0.517112
-0.510475
-0.523862
-0.565528
-0.562732
-0.574581
-0.607589
-0.624937
-0.611111
-0.574838
-0.563505
-0.583345
-0.616965
-0.625583
-0.628744
-0.630587
-0.642659
-0.650589
-0.654544
-0.637235
-0.635395
-0.63645
-0.637331
-0.650229
-0.665824
-0.549334
-0.563824
-0.560859
-0.572394
-0.581378
-0.58511
-0.584589
-0.579842
-0.592046
-0.62534
-0.646568
-0.661217
-0.691314
-0.728627
-0.756983
-0.770784
-0.776753
-0.758637
-0.757564
-0.773535
-0.78027
-0.759112
-0.790207
-0.564465
-0.575409
-0.580838
-0.594098
-0.597991
-0.598787
-0.606437
-0.617703
-0.647235
-0.675301
-0.69207
-0.732187
-0.797096
-0.849569
-0.875677
-0.88505
-0.886481
-0.872999
-0.869291
-0.878226
-0.883342
-0.868356
-0.879673
-0.572478
-0.589475
-0.610054
-0.638475
-0.647959
-0.653583
-0.671751
-0.688687
-0.70484
-0.739501
-0.771998
-0.828988
-0.890994
-0.933431
-0.949764
-0.953567
-0.952981
-0.944604
-0.942656
-0.944273
-0.943815
-0.936217
-0.941289
-0.579386
-0.61301
-0.665619
-0.703996
-0.722058
-0.746785
-0.770463
-0.788498
-0.786231
-0.82844
-0.874702
-0.911525
-0.946641
-0.974221
-0.984162
-0.984251
-0.981911
-0.977369
-0.976526
-0.976812
-0.975779
-0.972932
-0.975861
-0.588134
-0.632721
-0.713771
-0.771972
-0.807278
-0.83664
-0.857935
-0.873127
-0.864968
-0.903182
-0.942798
-0.958303
-0.969206
-0.985709
-0.994841
-0.995235
-0.993966
-0.991917
-0.991318
-0.990994
-0.99014
-0.988806
-0.989685
-0.595543
-0.644317
-0.732796
-0.805286
-0.849502
-0.875262
-0.897017
-0.920662
-0.914896
-0.940007
-0.965958
-0.978581
-0.983594
-0.99111
-0.997531
-0.998358
-0.997946
-0.997539
-0.997508
-0.997184
-0.996525
-0.995795
-0.995791
-0.602959
-0.653239
-0.739906
-0.816344
-0.861681
-0.892903
-0.915546
-0.93457
-0.942294
-0.962568
-0.981088
-0.989408
-0.992177
-0.995055
-0.998174
-0.999244
-0.999466
-0.999487
-0.999551
-0.999513
-0.999264
-0.99894
-0.998657
-0.610609
-0.66022
-0.748155
-0.830886
-0.877638
-0.906629
-0.926979
-0.941075
-0.95164
-0.966794
-0.983771
-0.993412
-0.996541
-0.997967
-0.999248
-0.999783
-0.999931
-0.99996
-0.999975
-0.999988
-0.999972
-0.999916
-0.999764
-0.61891
-0.666522
-0.749069
-0.830112
-0.880699
-0.909349
-0.925313
-0.939852
-0.952437
-0.966058
-0.98112
-0.992716
-0.997784
-0.999194
-0.999679
-0.999879
-0.999974
-1.00001
-1.00002
-1.00003
-1.00004
-1.00004
-1
-0.627891
-0.670691
-0.744496
-0.823073
-0.877655
-0.90048
-0.913379
-0.934083
-0.950005
-0.960391
-0.973547
-0.987063
-0.996099
-0.998713
-0.999395
-0.999733
-0.999897
-0.999974
-1
-1.00001
-1.00002
-1.00002
-1.00002
-0.638241
-0.673518
-0.734554
-0.814576
-0.867971
-0.888576
-0.916708
-0.943583
-0.957519
-0.96192
-0.966973
-0.976605
-0.989037
-0.995952
-0.998493
-0.999473
-0.999807
-0.999934
-0.99998
-0.999996
-1
-1
-1.00001
-0.651215
-0.677374
-0.720586
-0.792753
-0.850829
-0.891403
-0.927482
-0.953584
-0.969228
-0.973987
-0.974022
-0.976404
-0.984819
-0.993476
-0.997475
-0.998995
-0.999587
-0.999861
-0.999958
-0.999989
-0.999998
-0.999999
-1
-0.667706
-0.685677
-0.713745
-0.758628
-0.815874
-0.865062
-0.901743
-0.944124
-0.971384
-0.982135
-0.982285
-0.980189
-0.982453
-0.988327
-0.994203
-0.99723
-0.998859
-0.999627
-0.999902
-0.999981
-0.999996
-0.999999
-1
-0.688702
-0.699306
-0.719095
-0.743971
-0.783774
-0.825738
-0.878614
-0.940825
-0.9804
-0.991789
-0.991531
-0.986857
-0.984825
-0.986691
-0.99095
-0.994764
-0.997869
-0.99936
-0.999844
-0.999968
-0.999994
-0.999999
-1
-0.716167
-0.721402
-0.735511
-0.745811
-0.76875
-0.809516
-0.881773
-0.95327
-0.985665
-0.994888
-0.995379
-0.991951
-0.987369
-0.987534
-0.989456
-0.99323
-0.997472
-0.999371
-0.999894
-0.999986
-0.999999
-1
-1
-0.749368
-0.752001
-0.758366
-0.754528
-0.770993
-0.814573
-0.890451
-0.955192
-0.987479
-0.996125
-0.99634
-0.994174
-0.989916
-0.989388
-0.991016
-0.994403
-0.997792
-0.999387
-0.999882
-0.999984
-0.999998
-1
-1
-0.777998
-0.779947
-0.780183
-0.76932
-0.78066
-0.825791
-0.903285
-0.961834
-0.988685
-0.996603
-0.996437
-0.993987
-0.991369
-0.992408
-0.995327
-0.998233
-0.999615
-0.999951
-1
-1
-1
-1
-1
-0.797078
-0.797296
-0.801515
-0.789373
-0.804263
-0.850702
-0.919267
-0.969325
-0.991889
-0.99779
-0.996792
-0.994414
-0.9935
-0.996202
-0.998565
-0.999734
-1.00001
-1.00002
-1.00001
-1
-1
-1
-1
-0.808686
-0.810583
-0.825476
-0.822136
-0.846517
-0.905307
-0.960023
-0.987182
-0.997766
-0.998845
-0.997808
-0.996861
-0.996743
-0.998786
-0.999726
-0.999998
-1.00001
-1
-0.999999
-1
-1
-1
-1
-0.815665
-0.822208
-0.849324
-0.870563
-0.904498
-0.948193
-0.980634
-0.994589
-0.999125
-0.999256
-0.999038
-0.998993
-0.999104
-0.999616
-0.999877
-0.999969
-0.999982
-0.999985
-0.999993
-0.999998
-1
-1
-1
-0.822302
-0.83769
-0.876476
-0.913764
-0.950061
-0.975747
-0.991577
-0.998136
-0.999536
-0.999251
-0.999098
-0.999026
-0.999001
-0.999027
-0.999506
-0.999841
-0.999915
-0.999952
-0.99998
-0.999994
-0.999999
-1
-1
-0.828666
-0.843522
-0.882587
-0.925389
-0.962083
-0.984593
-0.995967
-0.999251
-0.999356
-0.998718
-0.998259
-0.997989
-0.997906
-0.998068
-0.998852
-0.999539
-0.999768
-0.999891
-0.99996
-0.999989
-0.999998
-1
-1
-0.836548
-0.854545
-0.895867
-0.93821
-0.97167
-0.98993
-0.997815
-0.999519
-0.99929
-0.998428
-0.997654
-0.997255
-0.99713
-0.997413
-0.998244
-0.999159
-0.999594
-0.99983
-0.999943
-0.999986
-0.999998
-1
-1
-0.84576
-0.868062
-0.911127
-0.950548
-0.97854
-0.992876
-0.998521
-0.999522
-0.999129
-0.998072
-0.997273
-0.997022
-0.996931
-0.99713
-0.997866
-0.998892
-0.999493
-0.999804
-0.99994
-0.999986
-0.999997
-1
-1
-0.856194
-0.883226
-0.92652
-0.962493
-0.984313
-0.99493
-0.998874
-0.999489
-0.999183
-0.998432
-0.997664
-0.997392
-0.997097
-0.997045
-0.997613
-0.998736
-0.99949
-0.99983
-0.999954
-0.999989
-0.999998
-1
-1
-0.867993
-0.900699
-0.942684
-0.973626
-0.989121
-0.996211
-0.998873
-0.999406
-0.999238
-0.998839
-0.998204
-0.997913
-0.997391
-0.997129
-0.997552
-0.998681
-0.999486
-0.999816
-0.999955
-0.999991
-0.999998
-1
-1
-0.879991
-0.91693
-0.95524
-0.981239
-0.992197
-0.996844
-0.998726
-0.999195
-0.999129
-0.998876
-0.998514
-0.998122
-0.99748
-0.997168
-0.99751
-0.99852
-0.999477
-0.999858
-0.999977
-0.999998
-1
-1
-1
-0.89114
-0.930694
-0.965149
-0.986569
-0.994409
-0.997203
-0.998363
-0.99871
-0.998632
-0.998516
-0.998273
-0.997758
-0.997072
-0.997106
-0.997701
-0.999034
-0.999761
-0.999963
-0.999999
-1
-1
-1
-1
-0.901672
-0.943643
-0.974737
-0.991015
-0.99586
-0.997157
-0.997649
-0.997724
-0.997515
-0.997532
-0.997381
-0.99703
-0.996853
-0.997331
-0.99826
-0.999367
-0.999866
-0.999987
-1
-1
-1
-1
-1
-0.912323
-0.956998
-0.98429
-0.994257
-0.996249
-0.99662
-0.996585
-0.996523
-0.996435
-0.996484
-0.996559
-0.996719
-0.997211
-0.998
-0.998891
-0.999644
-0.999926
-0.99999
-1
-1
-1
-1
-1
-0.923333
-0.967911
-0.989567
-0.995146
-0.996029
-0.996214
-0.996369
-0.99656
-0.996664
-0.996844
-0.997292
-0.997855
-0.998776
-0.999375
-0.999716
-0.999931
-0.999996
-1
-1
-1
-1
-1
-1
-0.934185
-0.977264
-0.992645
-0.995766
-0.99651
-0.997039
-0.997545
-0.998048
-0.998207
-0.998439
-0.998939
-0.999289
-0.999705
-0.999915
-0.999985
-1.00001
-1.00001
-1
-1
-1
-1
-1
-1
-0.948253
-0.986986
-0.99557
-0.99748
-0.99857
-0.999091
-0.999362
-0.999576
-0.999629
-0.999698
-0.999861
-0.99993
-0.999996
-1.00002
-1.00001
-1.00001
-1
-1
-1
-1
-1
-1
-1
-0.973442
-0.996459
-0.998872
-0.999477
-0.999847
-0.99992
-0.999948
-0.999969
-0.99997
-0.999983
-1.00002
-1.00003
-1.00003
-1.00002
-1.00001
-1
-1
-1
-1
-1
-1
-1
-1
0.854239
0.859768
0.829894
0.639901
0.585894
0.641753
0.659714
0.545768
0.428064
0.417708
0.372971
0.265619
0.160126
0.124921
0.065593
-0.00111433
-0.0441749
-0.0662881
-0.110812
-0.19219
-0.317073
-0.331981
-0.360199
-0.415994
-0.51423
-0.525786
-0.543273
-0.559833
-0.676364
-0.688123
-0.701223
-0.714242
-0.814798
-0.82862
-0.841149
-0.852608
-0.898566
-0.908081
-0.916541
-0.924895
-0.948344
-0.952168
-0.95544
-0.959848
-0.978453
-0.980192
-0.981733
-0.983652
-0.990883
-0.991935
-0.99285
-0.993977
-0.996222
-0.9967
-0.997133
-0.997688
-0.998608
-0.998732
-0.998892
-0.999103
-0.999632
-0.999617
-0.999647
-0.999707
-0.999956
-0.999937
-0.999936
-0.999947
-1.00002
-1.00001
-1.00001
-1
-1.00001
-1.00001
-1.00001
-1.00001
-1
-1
-1
-1
-1
-1
-1
-1
-1
-1
-1
-1
-1
-1
-1
-1
-1
-1
-1
-1
-1
-1
-1
-1
-1
-1
-1
-1
-1
-1
-1
-1
-1
-1
-1
-1
-1
-1
-1
-1
-1
-1
-1
-1
-1
-1
-1
-1
-1
-1
-1
-1
-1
-1
-1
-1
-1
-1
-1
-1
-1
-1
-1
-1
-1
-1
-1
-1
-1
-1
-1
-1
-1
-1
-1
-1
-1
-1
-1
-1
-1
-1
-1
-1
-1
-1
-1
-1
-1
-1
-1
-1
-0.173732
-0.262506
-0.20615
-0.103679
-0.190682
-0.381202
-0.439395
-0.483809
-0.543214
-0.588068
-0.576819
-0.538977
-0.444083
-0.268561
0.00697236
0.188712
0.157745
-0.0255701
-0.237778
-0.0861637
-0.22425
-0.14515
-0.204552
-0.412664
-0.572367
-0.609101
-0.619126
-0.631947
-0.624607
-0.589612
-0.546995
-0.443292
-0.19306
0.103163
0.145115
0.100944
-0.161752
-0.379336
-0.109063
-0.209619
-0.302215
-0.456432
-0.553552
-0.603091
-0.633773
-0.648222
-0.649992
-0.597112
-0.432422
-0.379508
-0.292015
-0.134683
-0.0321519
-0.113672
-0.151033
-0.419366
-0.538234
-0.190271
-0.416177
-0.529325
-0.57179
-0.61992
-0.584116
-0.575521
-0.591011
-0.567119
-0.47405
-0.309181
-0.257078
-0.191646
-0.281871
-0.407
-0.558167
-0.590807
-0.718068
-0.694753
-0.373047
-0.567455
-0.591824
-0.557955
-0.534503
-0.509786
-0.491373
-0.459809
-0.416692
-0.384937
-0.47283
-0.558151
-0.560283
-0.673547
-0.751074
-0.838814
-0.854916
-0.880225
-0.820535
-0.50503
-0.543584
-0.537041
-0.552821
-0.572043
-0.585592
-0.605588
-0.61108
-0.675247
-0.719951
-0.792144
-0.843559
-0.869882
-0.911399
-0.935437
-0.954816
-0.95276
-0.947056
-0.920176
-0.58237
-0.632398
-0.692339
-0.746515
-0.783676
-0.809496
-0.816474
-0.826372
-0.85864
-0.900834
-0.930767
-0.952162
-0.966461
-0.977439
-0.982381
-0.984496
-0.984458
-0.979895
-0.976225
-0.735282
-0.784575
-0.822292
-0.853957
-0.877821
-0.897764
-0.900499
-0.917583
-0.936778
-0.95454
-0.967906
-0.977932
-0.985887
-0.990164
-0.99182
-0.99274
-0.993482
-0.993484
-0.993082
-0.868962
-0.891191
-0.9089
-0.923813
-0.927212
-0.933823
-0.935508
-0.944153
-0.956956
-0.968368
-0.978028
-0.985405
-0.989878
-0.992496
-0.993999
-0.995048
-0.995684
-0.996209
-0.995656
-0.936398
-0.94735
-0.950439
-0.961593
-0.962318
-0.960859
-0.959735
-0.95899
-0.964274
-0.971267
-0.977753
-0.983671
-0.988343
-0.991574
-0.99396
-0.995534
-0.996408
-0.996868
-0.996596
-0.967823
-0.97715
-0.978802
-0.981775
-0.982914
-0.981038
-0.978741
-0.97442
-0.972257
-0.976125
-0.979383
-0.982048
-0.985025
-0.988237
-0.992195
-0.995088
-0.996688
-0.997331
-0.99724
-0.986895
-0.990397
-0.99222
-0.992946
-0.993341
-0.992031
-0.991089
-0.988178
-0.984783
-0.985281
-0.986266
-0.986697
-0.986918
-0.988275
-0.991048
-0.994966
-0.997015
-0.99769
-0.997675
-0.995475
-0.996541
-0.997183
-0.997582
-0.997653
-0.996896
-0.996917
-0.996143
-0.994158
-0.993824
-0.993963
-0.99371
-0.992464
-0.991308
-0.991973
-0.99572
-0.997589
-0.997989
-0.997984
-0.998472
-0.998931
-0.99908
-0.999244
-0.999196
-0.998807
-0.998943
-0.998894
-0.998238
-0.998118
-0.998225
-0.99795
-0.996842
-0.994913
-0.994205
-0.996421
-0.997996
-0.998256
-0.998193
-0.999458
-0.999699
-0.99976
-0.999791
-0.999754
-0.999586
-0.999567
-0.999622
-0.999572
-0.999563
-0.999609
-0.999523
-0.999027
-0.99783
-0.997404
-0.997791
-0.998537
-0.998525
-0.998343
-0.99982
-0.999928
-0.999957
-0.999957
-0.999937
-0.999873
-0.999806
-0.999839
-0.99989
-0.999903
-0.999917
-0.999924
-0.999836
-0.999391
-0.99921
-0.999092
-0.999026
-0.998769
-0.998462
-0.999965
-0.999992
-1
-0.999999
-0.999992
-0.999969
-0.999933
-0.999936
-0.99996
-0.99997
-0.999972
-0.99998
-0.999985
-0.999905
-0.999821
-0.999633
-0.999319
-0.998958
-0.998563
-1
-1.00001
-1.00001
-1.00001
-1
-0.999996
-0.999985
-0.999983
-0.999988
-0.999991
-0.99999
-0.99999
-0.999996
-0.999997
-0.999967
-0.999855
-0.99956
-0.999111
-0.998648
-1.00001
-1.00001
-1
-1
-1
-1
-1
-0.999998
-0.999999
-0.999999
-0.999998
-0.999997
-0.999999
-1.00001
-0.999994
-0.999916
-0.999677
-0.999212
-0.998721
-1
-1
-1
-1
-1
-1
-1
-1
-1
-1
-1
-1
-1
-1.00001
-1
-0.999941
-0.999736
-0.999279
-0.998787
-1
-1
-1
-1
-1
-1
-1
-1
-1
-1
-1
-1
-1
-1.00001
-1
-0.999954
-0.999773
-0.999331
-0.99885
-1
-1
-1
-1
-1
-1
-1
-1
-1
-1
-1
-1
-1
-1
-1
-0.99997
-0.999809
-0.999374
-0.998913
-1
-1
-1
-1
-1
-1
-1
-1
-1
-1
-1
-1
-1
-1
-1
-0.999976
-0.999826
-0.99941
-0.998975
-1
-1
-1
-1
-1
-1
-1
-1
-1
-1
-1
-1
-1
-1
-1
-0.999984
-0.999848
-0.999455
-0.999035
-1
-1
-1
-1
-1
-1
-1
-1
-1
-1
-1
-1
-1
-1
-1
-0.999988
-0.999866
-0.999492
-0.999088
-1
-1
-1
-1
-1
-1
-1
-1
-1
-1
-1
-1
-1
-1
-1
-0.99999
-0.999879
-0.999539
-0.999146
-1
-1
-1
-1
-1
-1
-1
-1
-1
-1
-1
-1
-1
-1
-1
-0.99999
-0.99989
-0.999587
-0.999197
-1
-1
-1
-1
-1
-1
-1
-1
-1
-1
-1
-1
-1
-1
-1
-0.999994
-0.999913
-0.999644
-0.999241
-1
-1
-1
-1
-1
-1
-1
-1
-1
-0.999999
-0.999999
-1
-1
-1
-1
-0.999999
-0.999937
-0.999684
-0.999276
-1
-1
-1
-1
-1
-1
-0.999999
-0.999997
-0.999994
-0.999994
-0.999994
-0.999996
-0.999998
-1
-1
-0.999998
-0.999943
-0.999708
-0.999304
-1
-1
-1
-1
-1
-0.999998
-0.999994
-0.999988
-0.999983
-0.999983
-0.999985
-0.999988
-0.999992
-0.999997
-1
-0.999998
-0.999942
-0.99969
-0.999321
-1
-1
-1
-1
-0.999999
-0.999993
-0.999986
-0.999972
-0.999965
-0.999966
-0.999969
-0.999975
-0.999982
-0.999989
-0.999998
-0.999996
-0.999942
-0.999704
-0.999353
-1
-1
-1
-1
-0.999993
-0.999981
-0.999966
-0.999945
-0.999936
-0.999937
-0.999943
-0.999956
-0.999969
-0.999983
-0.999996
-0.999995
-0.999941
-0.999722
-0.999368
-1
-1
-1
-0.999997
-0.999983
-0.999962
-0.999934
-0.999913
-0.999905
-0.999905
-0.999917
-0.999938
-0.999958
-0.999976
-0.999994
-0.999993
-0.999935
-0.999694
-0.99937
-1
-1
-1
-0.999992
-0.999975
-0.999948
-0.999907
-0.999883
-0.999874
-0.999877
-0.99989
-0.999912
-0.99994
-0.999966
-0.999991
-0.999991
-0.999938
-0.999723
-0.999421
-1
-1
-0.999999
-0.999986
-0.999963
-0.999932
-0.999885
-0.999857
-0.999849
-0.999854
-0.999864
-0.999884
-0.999916
-0.999949
-0.999983
-0.999988
-0.999943
-0.999752
-0.999468
-1
-1
-0.999995
-0.99998
-0.999953
-0.99992
-0.99987
-0.999841
-0.999842
-0.999854
-0.999861
-0.999869
-0.999892
-0.999932
-0.999973
-0.999984
-0.999943
-0.99977
-0.999488
-1
-0.999999
-0.999989
-0.999968
-0.999933
-0.999892
-0.999853
-0.999837
-0.999854
-0.999874
-0.999878
-0.999877
-0.999889
-0.99992
-0.999955
-0.999977
-0.999948
-0.999778
-0.99946
-1
-0.999997
-0.999983
-0.999958
-0.999918
-0.99987
-0.999842
-0.999843
-0.99987
-0.999892
-0.999898
-0.999892
-0.999891
-0.99991
-0.999944
-0.999974
-0.999952
-0.99982
-0.999557
-1
-0.999996
-0.999979
-0.99995
-0.99991
-0.999861
-0.999841
-0.999854
-0.999884
-0.999902
-0.99991
-0.999908
-0.9999
-0.999911
-0.99994
-0.99997
-0.99995
-0.999845
-0.999614
-1
-0.999994
-0.999974
-0.999952
-0.999925
-0.999885
-0.999847
-0.999852
-0.999879
-0.999901
-0.999918
-0.999922
-0.999917
-0.999921
-0.999945
-0.99997
-0.999952
-0.999854
-0.999607
-1
-0.999993
-0.999971
-0.999951
-0.999931
-0.999904
-0.999863
-0.999848
-0.999867
-0.999899
-0.999922
-0.999931
-0.999935
-0.999941
-0.999958
-0.999971
-0.999957
-0.999888
-0.999692
)
;

boundaryField
{
    leftWall
    {
        type            zeroGradient;
    }
    rightWall
    {
        type            zeroGradient;
    }
    lowerWall
    {
        type            zeroGradient;
    }
    atmosphere
    {
        type            zeroGradient;
    }
    defaultFaces
    {
        type            empty;
    }
}


// ************************************************************************* //
