/*--------------------------------*- C++ -*----------------------------------*\
| =========                 |                                                 |
| \\      /  F ield         | foam-extend: Open Source CFD                    |
|  \\    /   O peration     | Version:     4.1                                |
|   \\  /    A nd           | Web:         http://www.foam-extend.org         |
|    \\/     M anipulation  |                                                 |
\*---------------------------------------------------------------------------*/
FoamFile
{
    version     2.0;
    format      ascii;
    class       volScalarField;
    location    "0.9";
    object      p;
}
// * * * * * * * * * * * * * * * * * * * * * * * * * * * * * * * * * * * * * //

dimensions      [1 -1 -2 0 0 0 0];

internalField   nonuniform List<scalar> 
2268
(
1060.52
1057.29
1050.45
1044.16
1036.8
1021.96
1010.16
994.092
977.768
961.236
941.908
907.818
903.296
876.808
857.83
840.75
825.729
816.075
817.088
798.184
810.971
815.714
813.483
1002.99
999.138
993.037
985.571
978.75
963.72
951.656
936.074
916.275
901.413
883.056
853.812
841.259
819.42
799.077
773.906
765.967
757.549
755.379
750.277
740.76
760.416
751.242
945.574
941.104
935.108
927.002
920.47
905.014
894.226
877.658
864.719
848.444
821.858
789.3
781.931
762.693
732.58
725.488
696.927
689.12
678.743
695.762
687.978
693.256
696.527
888.861
885.912
878.026
868.636
863.846
849.673
835.264
820.368
801.283
789.441
766.204
751.515
714.9
703.047
682.142
649.913
646.065
637.375
616.758
637.317
613.895
641.126
621.469
833.362
828.68
822.083
812.491
803.533
794.076
780.325
765.212
750.192
731.506
706.018
677.998
657.021
643.217
606.716
601.405
583.462
581.637
557.499
579.946
555.402
560.016
583.789
779.46
775.009
766.577
756.154
748.986
736.898
723.503
709.319
687.732
671.914
653.004
639.849
610.469
579.228
560.664
539.34
529.935
509.589
499.795
514.473
500.596
514.75
473.597
725.962
718.99
712.303
699.238
692.443
680.883
667.94
652.736
637.614
621.726
598.996
584.72
557.575
535.733
494.339
487.848
475.225
471.766
435.81
460.745
434.082
439.949
419.634
673.467
667.705
659.82
649.956
637.678
626.589
611.942
598.833
580.965
559.245
536.419
520.298
499.31
486.619
461.978
433.536
422.425
413.346
373.75
382.054
392.113
386.045
306.65
742.302
611.999
348.656
274.412
318.677
357.417
409.695
398.093
418.977
446.07
458.888
462.596
503.493
495.962
518.905
511.002
492.971
486.594
496.385
716.374
489.034
291.661
227.837
279.675
343.46
386.469
368.258
386.755
413.619
429.675
429.86
468.669
455.89
480.858
482.758
455.994
450.257
460.593
603.097
349.733
257.471
167.297
260.595
313.107
358.15
342.348
352.912
380.849
391.954
385.187
419.2
429.645
447.977
465.552
421.708
418.942
427.328
541.405
245.659
200.64
171.984
222.501
291.845
351.555
313.776
325.669
349.708
351.718
358.18
370.066
387.99
417.14
421.336
396.092
389.364
394.016
465.699
169.26
149.81
145.209
176.03
262.907
305.159
297.6
298.116
316.013
322.765
328.413
347.337
343.623
387.291
391.774
362.84
372.414
365.157
404.679
106.324
97.6443
102.517
173.862
240.214
256.67
272.733
278.217
294.418
290.719
297.04
316.619
303.012
329.868
354.084
346.299
335.539
337.042
351.342
55.465
63.9465
79.5982
138.877
205.443
272.109
228.749
254.837
262.215
266.453
275.497
288.682
286.696
300.943
292.912
314.353
299.061
312.456
302.232
46.8346
27.2448
39.8151
135.795
174.602
237.098
228.905
227.902
246.544
239.925
244.483
266.589
257.783
271.402
283.311
292.287
264.468
283.114
594.969
587.071
576.833
563.229
553.351
541.965
527.987
513.322
503.976
482.778
467.694
450.229
429.603
416.001
403.451
383.642
357.907
345.771
342.938
299.328
330.116
275.709
264.17
492.309
484.249
466.379
456.895
444.938
439.494
421.206
427.442
400.583
405.02
383.318
379.669
389.018
388.07
343.594
316.104
266.862
266.191
229.813
273.139
202.68
220.419
167.284
402.536
388.897
382.618
367.606
360.524
344.424
330.772
348.794
333.487
352.942
279.935
359.964
323.451
301.977
287.335
262.78
211.526
184.788
166.239
187.677
124.306
113.608
18.9615
320.833
306.266
295.796
292.864
279.885
283.697
274.686
287.111
276.623
284.559
297.795
200.983
265.366
255.514
225.61
142.368
143.857
142.336
106.198
129.768
93.7227
12.4614
-46.3943
272.886
245.039
234.081
222.802
223.251
214.599
231.341
241.632
236.019
236.178
222.959
219.726
197.963
206.744
142.578
127.864
162.108
137.427
113.414
58.8493
42.763
47.145
14.9088
220.628
213.702
182.627
176.271
147.286
187.696
209.483
217
209.453
205.718
200.118
177.218
179.829
185.286
136.375
100.444
110.756
129.006
-24.2547
-31.6471
112.33
90.8433
66.2444
181.034
155.92
132.137
109.366
113.024
144.447
165.261
182.739
197.262
183.817
177.069
144.726
149.858
129.405
98.8609
90.6823
76.8668
55.2077
34.0515
17.0324
19.9934
26.7686
41.1048
180.642
168.375
147.772
119.272
107.237
112.257
131.361
137.939
137.962
148.07
99.5063
89.9749
87.3493
76.592
60.1108
85.8482
-14.8368
-9.36795
50.9416
47.7255
45.8252
25.0615
27.6998
171.22
151.112
129.517
108.066
102.217
99.6886
108.195
111.288
107.79
110.338
93.0797
77.1464
45.9783
34.8759
26.4746
36.595
11.0323
12.8049
14.1268
28.3712
-10.9767
-5.14497
24.1827
195.613
181.109
138.021
93.7051
118.321
86.4395
85.5079
67.4685
53.3102
84.2638
55.2914
35.1612
21.6171
13.7652
9.36089
6.52475
6.74722
11.0547
6.83737
8.63972
0.0473987
5.06436
4.68323
161.491
149.69
97.9426
80.4654
82.3121
70.647
74.6418
36.8014
32.3069
16.9285
16.483
12.2011
5.87545
5.78371
3.70766
3.26364
2.30754
1.95688
2.3991
2.67239
3.45764
2.78077
2.90265
153.302
110.843
120.572
94.6679
24.8841
49.4687
73.839
25.967
25.3149
5.06723
9.61018
1.31696
1.2136
1.24434
0.979919
0.588498
0.582827
0.457206
0.192801
0.38122
0.177577
0.00537236
0.129411
130.672
90.4419
91.6178
76.1874
38.3082
48.9155
23.6297
21.7517
22.0773
2.0961
0.365027
0.689929
-0.562555
0.120199
-0.0360175
-0.179252
-0.436038
-0.70105
-1.04416
-1.01561
-1.23297
-1.01574
-1.33465
91.6434
74.007
48.6081
49.2838
47.9715
33.2853
19.74
16.1279
9.08611
0.233208
-0.162098
-0.0109615
-0.672379
-0.238929
-0.328084
-0.640002
-0.931732
-1.17317
-1.17447
-1.12141
-1.21715
-1.14299
-1.14239
77.5995
66.3905
53.2007
35.356
23.0691
8.81558
17.5362
9.40469
10.0546
4.86559
-0.882475
0.148339
-0.664328
-0.381424
-0.64226
-0.921845
-1.22032
-1.24844
-1.4156
-1.44416
-1.4745
-1.52803
-1.62348
56.601
47.3604
41.4559
30.091
24.5451
19.7559
13.5998
7.89578
7.60604
1.58181
0.355151
-1.72284
-0.875802
-1.01898
-1.05445
-1.07394
-1.41427
-1.55339
-1.40565
-1.42363
-1.71026
-1.58243
-1.67626
42.1185
39.1826
23.3236
26.9945
19.6341
14.2632
10.8606
6.38943
4.78542
2.29742
0.619227
-1.07443
-0.797841
-1.41312
-1.25277
-1.36556
-1.54894
-1.4702
-1.83992
-1.6724
-1.76987
-1.67806
-1.85643
30.626
30.6477
7.94909
2.4835
12.3135
10.5255
8.97899
4.37829
1.88872
1.84187
0.605745
-0.938213
-1.64265
-1.46386
-1.50394
-1.56118
-1.67782
-1.69455
-1.67644
-2.00447
-1.90307
-1.8156
-1.91902
28.345
24.3044
15.9913
-6.02858
2.29569
5.71416
0.953651
3.12211
0.488596
0.730848
-1.17944
-1.39525
-1.3232
-1.60385
-1.53932
-1.798
-1.9325
-1.82742
-1.97319
-2.0173
-2.01948
-1.99931
-2.04017
6.54679
6.75836
12.8826
6.9876
2.08755
-1.54019
1.38159
-1.95949
-1.36056
-1.565
-2.7232
-0.529798
-1.54644
-1.79549
-1.88432
-1.97934
-2.02246
-2.07494
-2.0963
-2.17754
-2.17867
-2.21226
-2.20757
-15.7068
-10.9771
29.827
-18.7275
-10.4148
-13.6683
-7.3303
-1.2261
-3.70257
-3.02366
-3.62035
-2.26758
-2.4313
-2.48983
-2.22087
-2.17816
-2.27529
-2.28674
-2.24819
-2.47746
-2.2673
-2.28949
-2.38972
-12.2551
-19.9565
-26.6908
-33.7694
-12.7881
-21.0133
-10.5953
-4.15016
-3.13968
-2.40774
-3.31134
-3.76722
-3.14385
-2.57635
-2.47651
-2.66198
-2.53914
-2.5
-2.51998
-2.53368
-2.51685
-2.52022
-2.52473
1.75058
-6.65405
-4.4754
-21.9843
-12.7653
-18.3219
-12.7243
-6.89898
-4.31188
-3.80948
-4.11761
-4.1464
-3.44283
-2.76385
-3.08953
-2.44595
-3.0229
-2.75669
-2.76873
-2.69313
-2.70209
-2.70356
-2.64626
-3.47059
30.8344
-2.67479
-5.23442
-13.024
-10.1678
-6.31239
-7.03081
-4.5245
-4.64332
-4.53108
-4.65011
-4.16381
-3.9011
-2.90372
-2.95945
-3.03221
-2.93341
-2.88546
-2.89451
-2.87309
-2.87872
-2.81319
-14.3613
-24.8565
-26.4519
-7.5924
0.206764
-12.3404
-6.58447
-6.48013
-4.75295
-4.46537
-4.65981
-4.47233
-3.70894
-3.33106
-3.0859
-3.27098
-3.1703
-3.16022
-3.06433
-3.04903
-3.05672
-3.0269
-3.00494
2.09064
-0.928037
3.50083
-4.18517
12.0268
-10.2589
-4.99729
-3.52212
-4.86515
-4.06205
-4.45346
-4.39447
-3.89674
-3.58826
-3.50758
-3.43874
-3.35513
-3.32326
-3.25444
-3.2752
-3.18873
-3.19073
-3.18384
1.19081
-0.137036
1.69779
12.4274
5.04507
-3.09434
-4.9629
-3.2915
-3.68208
-3.896
-4.14441
-4.22064
-3.9086
-3.69055
-3.62633
-3.58065
-3.51115
-3.48473
-3.4212
-3.37071
-3.40394
-3.38303
-3.37107
-0.482048
-2.2232
-4.63655
-3.8635
-7.23632
-1.99415
-3.7557
-3.47347
-3.72251
-3.83177
-4.04105
-4.0587
-3.89253
-3.78383
-3.74519
-3.71981
-3.61351
-3.6183
-3.55491
-3.63568
-3.51926
-3.5813
-3.5024
-2.21501
-2.74915
-5.19491
-2.93028
-2.36446
-2.73197
-4.0108
-3.91379
-3.81642
-3.96225
-4.05514
-4.17579
-3.96698
-3.9325
-3.79509
-3.81735
-3.75297
-3.76368
-3.73965
-3.72394
-3.68848
-3.73598
-3.72084
8.12905
0.127543
-6.52449
-2.32963
-4.78976
-3.86208
-4.14285
-4.03137
-4.12114
-4.19923
-4.41624
-4.28388
-4.24676
-4.06343
-3.94084
-3.98664
-3.87916
-3.91272
-3.86064
-3.92828
-3.86671
-3.86105
-3.87962
-22.0755
-12.1062
-3.67884
-3.66235
-3.639
-4.20193
-4.39369
-4.39871
-4.43854
-4.64857
-5.01835
-4.59942
-4.7527
-4.3113
-4.31851
-4.17575
-4.0842
-4.07269
-4.05482
-4.03882
-4.01109
-4.02578
-4.06583
-5.31773
-5.58049
-3.30695
-4.21909
-4.6043
-4.54293
-4.59296
-4.60958
-4.62076
-5.00202
-5.25012
-5.46964
-4.97465
-4.82815
-4.46439
-4.15696
-4.17139
-4.21658
-4.18627
-4.22015
-4.18992
-4.15612
-4.18465
-5.64551
-4.22926
-4.06079
-4.29538
-4.63714
-4.72329
-4.74062
-4.77948
-4.64452
-5.02646
-5.36766
-5.62591
-5.20671
-4.87014
-4.36253
-4.39817
-4.53439
-4.35593
-4.38545
-4.32772
-4.36523
-4.31766
-4.35614
-5.09802
-4.06929
-4.44429
-4.64916
-4.90335
-5.03006
-4.93765
-5.17402
-5.31123
-5.42931
-5.3209
-5.63754
-5.22271
-5.16172
-5.20714
-4.65143
-4.5026
-4.57487
-4.52366
-4.52958
-4.49938
-4.47657
-4.49614
-4.86844
-4.482
-4.65319
-4.88051
-5.00163
-5.04102
-4.95679
-5.01782
-5.03218
-5.21072
-5.27293
-5.39949
-5.31921
-5.25973
-4.54652
-4.73265
-4.73756
-4.69244
-4.67966
-4.63021
-4.67487
-4.64185
-4.61946
-4.82038
-4.716
-4.93907
-5.08053
-5.08271
-5.11843
-5.05867
-5.06053
-5.11991
-5.07611
-5.09545
-5.22554
-5.4447
-4.921
-5.18158
-4.92138
-4.89762
-4.86141
-4.88963
-4.81877
-4.82763
-4.77845
-4.84314
-4.95821
-5.09322
-4.94233
-5.25153
-5.11012
-5.18457
-5.01691
-5.11528
-4.93507
-5.17495
-5.08456
-5.12835
-5.70715
-5.11734
-5.01829
-5.00959
-5.03892
-4.97927
-4.96181
-4.99547
-4.97865
-4.94274
-4.94149
-5.01717
-5.16554
-5.14876
-5.34578
-5.23524
-5.22131
-5.16313
-5.13357
-5.1985
-5.13991
-5.159
-5.24093
-5.71551
-5.31881
-5.20823
-5.17044
-5.18393
-5.20267
-5.1571
-5.13637
-5.13911
-5.09327
-5.1112
-5.71546
-5.93261
-5.37516
-5.46737
-5.33149
-5.34448
-5.24185
-5.31968
-5.25046
-5.30704
-5.28365
-5.45503
-5.41681
-5.3172
-5.41325
-5.38795
-5.32372
-5.27574
-5.28424
-5.25941
-5.2824
-5.26155
-5.26725
-8.03045
-6.13949
-6.04388
-5.68456
-5.45816
-5.52022
-5.4541
-5.43751
-5.45222
-5.43939
-5.52321
-5.51465
-5.54157
-5.48194
-5.53501
-5.40015
-5.43665
-5.43019
-5.432
-5.43017
-5.4167
-5.42017
-5.42237
-15.4658
-8.10686
-6.41526
-6.02437
-5.86196
-5.76012
-5.70041
-5.70735
-5.67543
-5.70906
-5.67899
-5.68268
-5.64259
-5.65644
-5.55535
-5.57468
-5.61143
-5.53024
-5.5452
-5.55433
-5.56097
-5.52881
-5.56534
-27.5296
-13.3442
-8.2504
-7.13881
-6.36135
-6.07507
-5.87185
-5.77969
-5.78867
-5.71676
-5.69013
-5.68296
-5.68634
-5.68964
-5.73329
-5.72303
-5.68988
-5.72658
-5.72787
-5.70529
-5.70304
-5.75973
-5.69846
222.237
268.78
249.807
294.157
146.285
145.884
149.183
195.35
-92.9841
-77.5125
-62.6267
-79.5267
-53.8483
-40.7832
-129.029
-40.3054
-2.64568
77.9268
85.6333
85.8897
44.3422
46.4366
114.199
74.0642
52.4893
60.6603
56.1868
63.7147
27.7151
32.2783
33.6198
33.0879
16.9307
17.1658
16.2427
16.061
5.27472
6.34879
6.25877
6.07042
2.34289
2.25374
1.89134
1.49658
0.0628942
-0.111932
0.0221868
-0.0766075
-1.37526
-1.12086
-1.10097
-1.01203
-1.11579
-1.16522
-1.09841
-1.17042
-1.56616
-1.57069
-1.52997
-1.47223
-1.61789
-1.59909
-1.63323
-1.6342
-1.82643
-1.82811
-1.83991
-1.81466
-1.92834
-1.93625
-1.94931
-1.97809
-2.05964
-2.0641
-2.07392
-2.09176
-2.19886
-2.18726
-2.19129
-2.14443
-2.37953
-2.39951
-2.41385
-2.43984
-2.52809
-2.52582
-2.47406
-2.58306
-2.75725
-2.73545
-2.75569
-2.75686
-2.90312
-2.86915
-2.86516
-2.864
-3.03993
-3.04116
-3.05064
-3.05625
-3.18914
-3.17607
-3.17477
-3.1785
-3.38455
-3.38332
-3.37974
-3.36839
-3.51244
-3.51633
-3.51609
-3.51779
-3.69869
-3.69933
-3.68806
-3.67397
-3.82923
-3.85093
-3.84242
-3.87695
-4.04157
-4.02162
-4.03613
-3.97588
-4.19866
-4.20974
-4.14177
-4.16756
-4.33176
-4.33365
-4.30423
-4.35488
-4.49241
-4.47079
-4.50631
-4.47843
-4.63236
-4.62012
-4.66587
-4.69898
-4.81134
-4.81645
-4.79219
-4.79746
-4.98271
-4.98544
-4.97482
-4.97997
-5.0792
-5.10725
-5.09143
-5.11273
-5.28013
-5.29245
-5.28411
-5.2667
-5.41384
-5.42438
-5.43828
-5.43444
-5.54009
-5.56195
-5.58659
-5.59245
-5.74017
-5.74874
-5.73019
-5.7396
218.297
100.541
45.1861
98.2598
98.6063
143.485
146.991
177.132
234.556
197.788
203.957
230.369
223.458
207.385
241.684
142.969
210.011
187.967
221.609
175.406
126.959
154.543
127.579
126.245
136.616
115.747
132.569
136.819
171.793
173.584
173.465
196.057
154.021
143.417
117.588
122.18
149.682
149.627
177.472
210.336
148.512
132.073
81.1679
100.451
111.307
105.41
139.675
127.642
129.806
113.055
118.303
101.32
81.4124
75.896
66.7522
74.8258
80.4896
219.176
172.828
167.556
106
84.7847
103.327
77.3976
78.3556
80.4758
95.2242
93.9665
70.4898
74.3727
57.6885
45.0299
38.957
34.3122
46.0701
42.2424
130.992
112.384
140.215
107.585
98.7734
77.6743
44.682
50.2312
59.8562
58.0642
33.3904
30.6028
30.3864
20.0654
14.6427
9.66827
10.6128
8.75241
16.4019
124.476
111.845
77.2626
61.5872
64.5903
21.1722
45.5177
10.7059
28.5359
20.8413
20.0992
9.64683
10.7692
7.23764
6.50118
4.5116
5.84451
3.55999
9.58962
70.1698
51.1909
49.5836
45.9681
21.0469
27.9237
20.5362
19.693
9.26235
8.08555
6.6552
5.19716
4.92286
4.56271
4.37847
3.51193
4.01241
4.50422
6.25333
35.5648
28.1388
29.686
14.0579
10.5684
12.7082
8.10024
3.92486
9.1089
7.05613
5.45023
3.04666
4.38934
3.38348
3.70011
1.53734
3.77115
3.47443
4.80349
18.3832
11.2754
9.62683
5.65786
11.19
2.81364
3.63067
4.52149
2.95552
3.65398
3.27199
2.54945
2.76225
2.65413
2.60345
2.19125
2.5447
2.59483
3.1846
4.85803
5.80089
3.36483
0.333785
2.42406
3.30017
3.70169
1.54152
3.15177
3.13863
2.87582
2.29162
1.81654
1.69961
1.60112
1.38414
1.56384
1.87946
2.22147
1.46754
0.292575
0.890736
1.34596
0.678671
0.498932
0.266778
1.35555
1.11914
0.884052
1.07735
1.22784
1.26187
1.08456
0.768368
0.735302
0.740329
0.928511
0.910054
-0.0103063
-0.393953
-0.238346
-0.596376
-0.40771
-0.184093
-0.344614
-0.326431
-0.03639
-0.0310259
0.155888
0.00445346
0.0781226
0.406112
0.110835
0.158248
0.137355
0.119846
-0.135276
-0.984885
-0.911132
-1.06769
-0.860874
-0.883978
-1.02697
-0.942592
-0.940017
-0.896264
-0.879139
-0.834866
-0.67651
-0.739465
-0.447734
-0.619421
-0.363127
-0.51113
-0.212332
0.364881
-1.13459
-1.20149
-1.0994
-1.20071
-1.16035
-1.20421
-1.11746
-1.12789
-1.18882
-1.19875
-1.16122
-1.16405
-1.20005
-0.961083
-0.929192
-1.04736
-1.04795
-0.976354
-0.733438
-1.4269
-1.43523
-1.38331
-1.34502
-1.33323
-1.34621
-1.40008
-1.39865
-1.39339
-1.38531
-1.39132
-1.3675
-1.42304
-1.32579
-1.48176
-1.38457
-1.40249
-1.31718
-1.06503
-1.52834
-1.57045
-1.58452
-1.55607
-1.61764
-1.56119
-1.56138
-1.58652
-1.56204
-1.55819
-1.55119
-1.55766
-1.58957
-1.60147
-1.63452
-1.59281
-1.60727
-1.63788
-1.34473
-1.6648
-1.769
-1.66739
-1.69718
-1.66999
-1.69805
-1.71762
-1.69524
-1.70514
-1.69343
-1.70353
-1.70334
-1.71444
-1.70674
-1.7432
-1.77678
-1.73937
-1.74642
-1.60987
-1.88886
-1.87361
-1.85586
-1.8744
-1.8618
-1.81654
-1.88264
-1.83476
-1.87147
-1.85787
-1.86727
-1.86768
-1.88727
-1.92493
-1.90641
-1.93509
-1.95773
-1.89278
-1.837
-2.11684
-2.04307
-2.02927
-2.08225
-2.01494
-2.05083
-2.02047
-2.02595
-2.01095
-2.0176
-2.01612
-2.01793
-2.05482
-2.02272
-2.06055
-2.04881
-2.04861
-2.02705
-2.00819
-2.26199
-2.22119
-2.18041
-2.14226
-2.1837
-2.19342
-2.18429
-2.15958
-2.18958
-2.16749
-2.18141
-2.17485
-2.19475
-2.19804
-2.19274
-2.1959
-2.19731
-2.17885
-2.17083
-2.44277
-2.42316
-2.32869
-2.37214
-2.38797
-2.34157
-2.38392
-2.34658
-2.30699
-2.3308
-2.29911
-2.32133
-2.33537
-2.32224
-2.35491
-2.32976
-2.33712
-2.32347
-2.32503
-2.50003
-2.55771
-2.49361
-2.52832
-2.48124
-2.53491
-2.514
-2.49962
-2.50178
-2.46745
-2.51966
-2.47853
-2.50284
-2.48389
-2.47547
-2.49124
-2.48167
-2.47901
-2.47565
-2.8059
-2.65447
-2.67386
-2.66613
-2.64808
-2.69475
-2.66348
-2.66973
-2.65464
-2.63919
-2.61511
-2.64533
-2.62148
-2.62393
-2.65893
-2.60653
-2.62713
-2.61152
-2.66114
-2.82732
-2.84964
-2.78973
-2.82115
-2.80984
-2.84245
-2.81963
-2.78151
-2.80431
-2.79984
-2.85386
-2.76663
-2.82186
-2.79671
-2.81159
-2.79821
-2.78658
-2.79922
-2.74915
-3.11485
-2.97574
-2.98181
-2.9753
-2.93965
-3.0093
-3.01359
-2.97773
-2.94581
-2.97938
-2.95571
-2.98259
-2.92646
-2.99766
-2.95117
-2.90575
-2.93972
-2.92753
-2.9034
-3.16933
-3.15349
-3.17409
-3.1516
-3.14089
-3.18673
-3.14371
-3.14144
-3.13117
-3.11402
-3.11711
-3.09879
-3.10159
-3.11841
-3.11106
-3.11395
-3.0822
-3.08293
-3.07137
-3.37023
-3.35888
-3.31588
-3.32742
-3.3481
-3.3143
-3.30049
-3.3055
-3.29938
-3.29271
-3.27844
-3.26961
-3.2701
-3.27555
-3.31207
-3.21785
-3.25776
-3.24217
-3.23541
-3.53476
-3.48405
-3.45302
-3.43424
-3.46052
-3.5217
-3.40628
-3.48475
-3.44133
-3.43968
-3.40664
-3.43351
-3.40169
-3.41217
-3.43113
-3.38121
-3.40273
-3.37121
-3.38249
-3.64534
-3.71295
-3.61386
-3.72861
-3.67248
-3.69971
-3.61201
-3.68336
-3.60593
-3.61479
-3.63333
-3.62761
-3.65359
-3.54707
-3.64197
-3.58375
-3.5682
-3.55872
-3.55877
-3.79466
-3.8389
-3.81016
-3.82054
-3.82806
-3.8059
-3.83294
-3.83798
-3.85023
-3.67234
-3.70158
-3.80756
-3.78981
-3.73545
-3.71401
-3.70946
-3.65603
-3.69125
-3.68341
-3.95186
-4.00951
-3.9986
-3.94975
-4.01621
-3.91592
-4.04576
-4.13739
-3.94668
-3.99755
-3.95694
-4.02764
-3.94655
-3.85001
-3.91255
-4.05165
-3.96339
-3.89393
-3.87636
-4.14144
-4.15453
-4.15651
-4.19004
-4.18142
-4.15722
-4.17651
-4.2249
-4.22133
-4.17887
-4.14143
-4.14434
-4.07301
-4.13789
-4.32984
-4.13829
-3.99346
-3.98955
-4.06235
-4.31546
-4.29332
-4.3243
-4.28884
-4.42643
-4.35069
-4.42466
-4.27427
-4.47946
-4.532
-4.32101
-4.40389
-4.35593
-4.46153
-4.30697
-4.24258
-4.13085
-4.27647
-4.18431
-4.47798
-4.40725
-4.45933
-4.37088
-4.57695
-4.52138
-4.56741
-4.5115
-4.59535
-4.59898
-4.54723
-4.54938
-4.48035
-4.72523
-4.5035
-4.55689
-4.62361
-4.47708
-4.42603
-4.61693
-4.66463
-4.63876
-4.70531
-4.64436
-4.76074
-4.80468
-4.72483
-4.78565
-4.78516
-4.78201
-4.80198
-4.87993
-4.69419
-4.68302
-4.62665
-4.5621
-4.73533
-4.59148
-4.79666
-4.824
-4.7755
-4.74248
-4.85124
-4.8125
-4.92247
-4.91542
-4.96281
-5.00513
-4.98284
-5.0362
-4.97366
-4.86346
-4.90364
-4.81183
-4.73167
-4.7669
-4.79973
-4.97319
-5.01347
-5.03163
-5.01498
-5.04154
-5.09965
-5.08218
-5.06278
-5.11583
-5.10548
-5.16623
-5.14346
-5.06434
-5.13253
-5.04671
-4.98345
-4.9708
-4.88237
-4.94056
-5.12234
-5.09247
-5.08833
-5.15228
-5.14271
-5.21638
-5.22186
-5.23554
-5.24789
-5.31594
-5.26059
-5.30331
-5.22411
-5.13737
-5.07487
-5.17645
-5.17593
-5.34813
-5.15799
-5.262
-5.24752
-5.28006
-5.23806
-5.37907
-5.37489
-5.41573
-5.40455
-5.43974
-5.3874
-5.47791
-5.47065
-5.56517
-5.61681
-5.49889
-5.39081
-5.37985
-5.32758
-5.39607
-5.44785
-5.4813
-5.53012
-5.54603
-5.49148
-5.48865
-5.55595
-5.50276
-5.58396
-5.65789
-5.62973
-5.62039
-5.67114
-5.47075
-5.58458
-5.48023
-5.44944
-5.36521
-5.47767
-5.60092
-5.5727
-5.68681
-5.6898
-5.66985
-5.67757
-5.69021
-5.75219
-5.80255
-5.81253
-5.6853
-5.78713
-5.77568
-5.65782
-5.58003
-5.64753
-5.6586
-5.94997
-5.62169
-5.74988
-5.87391
-5.79265
-5.83868
-5.90406
-5.91762
-5.97516
-5.95717
-6.05641
-5.88983
-5.90285
-5.83529
-5.83936
-5.78953
-5.78207
-5.72642
-5.66114
-5.85231
-6.10825
)
;

boundaryField
{
    leftWall
    {
        type            calculated;
        value           nonuniform List<scalar> 
50
(
1060.52
1002.99
945.574
888.861
833.362
779.46
725.962
673.467
594.969
492.309
402.536
320.833
272.886
220.628
181.034
180.642
171.22
195.613
161.491
153.302
130.672
91.6434
77.5995
56.601
42.1185
30.626
28.345
6.54679
-15.7068
-12.2551
1.75058
-3.47059
-14.3613
2.09064
1.19081
-0.482048
-2.21501
8.12905
-22.0755
-5.31773
-5.64551
-5.09802
-4.86844
-4.82038
-4.95821
-5.01717
-5.71546
-8.03045
-15.4658
-27.5296
)
;
    }
    rightWall
    {
        type            calculated;
        value           nonuniform List<scalar> 
50
(
496.385
460.593
427.328
394.016
365.157
337.042
312.456
283.114
221.609
149.627
80.4896
42.2424
16.4019
9.58962
6.25333
4.80349
3.1846
2.22147
0.910054
-0.135276
0.364881
-0.733438
-1.06503
-1.34473
-1.60987
-1.837
-2.00819
-2.17083
-2.32503
-2.47565
-2.66114
-2.74915
-2.9034
-3.07137
-3.23541
-3.38249
-3.55877
-3.68341
-3.87636
-4.06235
-4.18431
-4.42603
-4.59148
-4.79973
-4.94056
-5.15799
-5.39607
-5.47767
-5.62169
-6.10825
)
;
    }
    lowerWall
    {
        type            calculated;
        value           nonuniform List<scalar> 
62
(
1089.91
1086.6
1079.67
1073.34
1065.99
1051.18
1039.4
1023.33
1007.01
990.489
971.172
937.101
932.616
906.17
887.239
870.18
855.159
845.504
846.517
827.614
840.4
845.143
842.912
813.483
751.242
696.527
621.469
583.789
473.597
419.634
306.65
280.295
327.019
307.128
345.532
742.302
716.374
603.097
541.405
465.699
404.679
351.342
302.232
753.73
623.38
360.217
286.257
330.845
370.162
422.902
411.657
432.811
460.162
473.193
477.05
518.042
510.516
533.548
525.459
508.831
502.813
512.723
)
;
    }
    atmosphere
    {
        type            calculated;
        value           nonuniform List<scalar> 
46
(
-81.4414
-15.7099
-8.88201
-7.20375
-6.27103
-6.0301
-5.91618
-5.86122
-5.85444
-5.81173
-5.78568
-5.77691
-5.76748
-5.77538
-5.75413
-5.76457
-5.77303
-5.75694
-5.76747
-5.76559
-5.7718
-5.78987
-5.77778
-5.79619
-5.80517
-5.80891
-5.81398
-5.82493
-5.88545
-5.89972
-5.93686
-5.96739
-6.00801
-6.11968
-6.16258
-6.10809
-6.01638
-5.95585
-5.92971
-5.91513
-5.89971
-5.84896
-5.811
-5.85131
-6.04789
-6.60541
)
;
    }
    defaultFaces
    {
        type            empty;
    }
}


// ************************************************************************* //
