/*--------------------------------*- C++ -*----------------------------------*\
| =========                 |                                                 |
| \\      /  F ield         | foam-extend: Open Source CFD                    |
|  \\    /   O peration     | Version:     4.1                                |
|   \\  /    A nd           | Web:         http://www.foam-extend.org         |
|    \\/     M anipulation  |                                                 |
\*---------------------------------------------------------------------------*/
FoamFile
{
    version     2.0;
    format      ascii;
    class       volScalarField;
    location    "0.9";
    object      pd;
}
// * * * * * * * * * * * * * * * * * * * * * * * * * * * * * * * * * * * * * //

dimensions      [1 -1 -2 0 0 0 0];

internalField   nonuniform List<scalar> 
2268
(
1089.91
1086.6
1079.67
1073.34
1065.99
1051.18
1039.4
1023.33
1007.01
990.489
971.172
937.101
932.616
906.17
887.239
870.18
855.159
845.504
846.517
827.614
840.4
845.143
842.912
1091.01
1086.91
1080.5
1072.93
1066.2
1051.29
1039.3
1023.75
1003.96
989.114
970.784
941.607
929.187
907.455
887.212
862.136
854.255
845.837
843.668
838.565
829.048
848.705
839.53
1091.79
1086.81
1080.23
1071.98
1065.75
1050.63
1040.05
1023.58
1010.68
994.385
967.814
935.376
928.235
908.954
878.746
871.673
843.233
835.868
825.89
842.909
835.125
840.403
843.674
1092.51
1088.68
1079.83
1070.4
1066.32
1052.86
1038.91
1024.22
1005.16
993.194
969.872
955.225
918.622
905.773
883.745
851.226
847.792
840.679
821.742
843.323
819.9
847.132
827.474
1093.36
1087.29
1079.35
1070.03
1062.43
1054.21
1041.23
1026.41
1011.31
992.218
966.268
937.568
915.223
897.26
856.38
850.509
834.296
837.085
817.133
842.921
819.299
824.88
848.654
1094.39
1087.97
1077.88
1068.35
1063.42
1053.12
1040.73
1026.77
1004.75
987.82
967.248
950.833
915.726
872.471
842.222
820.868
817.022
807.651
807.212
830.567
819.328
837.099
797.32
1094
1084.54
1076.11
1064.9
1061.24
1051.82
1039.76
1024.25
1007.76
989.115
961.389
937.218
894.418
846.216
781.24
776.408
776.707
795.468
777.225
821.263
801.377
815.553
801.959
1092.34
1083.74
1074.37
1067.5
1058.88
1049.74
1035.14
1020.25
998.76
970.376
934.368
894.906
842.334
787.053
730.874
703.782
712.979
739.076
725.866
770.192
795.906
806.108
741.197
753.73
623.38
360.217
286.257
330.845
370.162
422.902
411.657
432.811
460.162
473.193
477.05
518.042
510.516
533.548
525.459
508.831
502.813
512.723
750.57
522.612
324.799
260.919
312.888
378.162
423.112
406.78
426.345
454.668
472.43
473.774
513.478
500.967
526.207
525.522
501.59
497.085
508.145
659.877
404.391
310.058
218.771
311.278
364.668
411.945
400.589
412.507
443.831
460.788
458.5
495.51
507.715
527.673
537.269
492.656
491.85
502.328
620.594
321.194
274.155
244.065
292.319
361.032
419.441
387.628
398.731
426.585
439.594
457.118
475.868
498.589
534.069
526.554
491.16
485.097
492.822
567.381
266.693
248.964
245.583
273.011
355.685
389.466
385.733
381.098
399.902
419.233
443.484
474.829
480.95
540.595
533.593
486.714
492.018
485.919
529.125
226.423
226.822
238.26
306.899
360.885
360.489
375.001
371.204
382.83
389.041
416.129
453.931
457.852
514.009
534.965
508.583
484.008
479.649
498.12
198.689
221.888
252.279
307.035
351.918
396.408
345.159
358.482
355.799
366.136
392.308
426.428
450.626
507.67
513.454
520.996
481.385
477.113
470.698
211.841
208.313
243.881
331.332
336.989
377.257
356.965
340.901
346.946
343.602
360.575
404.136
429.632
497.733
542.278
541.444
480.606
467.433
1088.17
1077.29
1066.4
1057.37
1050.58
1039.43
1021.92
1000.36
979.367
937.08
881.059
806.965
735.986
680.038
644.123
622.962
609.876
631.781
666.32
685.038
759.36
739.399
760.445
1073.32
1062.21
1042.87
1035.37
1019.31
1004.79
968.395
950.441
883.457
816.551
699.196
643.854
650.245
658.512
619.985
606.619
572.486
561.08
530.2
593.896
592.888
659.869
662.013
1047.95
1027.03
1004.06
962.114
913.493
856.566
790.486
764.098
684.465
653.849
554.771
643.988
649.64
655.806
662.044
661.343
629.413
614.497
597.418
626.909
618.827
647.835
579.863
990.16
945.12
872.038
787.959
683.464
596.671
529.675
554.635
524.198
551.98
597.295
534.239
605.405
571.112
568.258
534.995
603.186
668.035
661.887
699.492
676.429
600.638
511.276
894.757
770.687
652.068
542.014
513.967
455.492
409.673
442.531
441.983
484.16
503.492
511.636
464.537
442.806
378.377
391.838
472.569
508.701
543.071
531.223
549.034
575.234
531.352
716.156
585.518
470.274
422.186
367.135
383.441
378.786
418.75
448.203
480.746
480.753
433.539
415.571
415.861
374.985
351.127
372.844
402.972
268.267
295.65
477.081
483.074
468.159
556.914
456.71
397.18
359.253
342.507
355.09
367.722
427.479
480.295
477.394
444.059
398.418
400.181
386.008
358.77
352.462
342.384
325.402
311.563
313.218
326.164
338.295
356.908
516.426
475.83
456.756
419.168
383.296
375.87
405.122
438.252
446.678
442.64
370.72
355.231
350.188
337.673
312.296
332.424
228.945
246.539
308.074
304.052
301.471
271.584
263.172
517.932
487.104
467.454
436.983
424.239
418.77
428.22
435.074
422.43
399.351
365.753
338.238
282.931
242.832
212.921
212.62
182.592
198.146
200.22
202.172
157.666
179.648
184.911
558.375
534.906
487.31
432.365
453.727
421.184
414.06
387.389
348.508
355.839
312.536
258.087
189.822
138.827
113.206
102.754
101.901
117.299
116.048
110.387
97.5113
114.837
104.875
544.643
517.574
447.527
406.129
400.117
383.584
371.536
318.532
299.141
252.257
222.08
165.765
103.723
66.2382
49.9486
46.1957
45.842
52.8525
54.9195
53.7091
54.8924
60.9417
56.3763
556.802
481.824
441.786
381.08
295
296.384
298.292
232.967
233.747
172.486
131.929
87.5195
53.3651
27.481
17.9394
17.5104
19.7664
23.8856
24.3251
24.2002
24.9604
27.5375
24.7529
551.75
465.62
384.577
311.231
238.053
219.306
172.693
155.251
163.772
103.966
61.4364
45.5516
32.7183
16.671
7.27295
6.72144
7.75888
9.54243
9.74834
10.0764
10.7189
12.2805
11.0287
530.711
459.756
338.601
261.827
213.091
170.985
134.166
104.93
104.835
68.3312
39.5162
25.7827
19.445
11.6907
4.5821
3.30723
3.45101
3.63733
3.64919
4.03637
4.64214
5.49391
5.48535
533.758
464.383
351.698
247.404
183.702
133.888
116.747
86.8256
79.1196
50.7671
23.5647
14.8825
10.7593
7.71888
3.83287
2.26597
1.68784
1.62561
1.37997
1.3921
1.64119
1.95003
2.16592
528.668
458.808
346.214
236.168
174.862
135.217
104.441
81.71
68.8485
44.7196
22.9682
8.94286
5.85097
3.95062
2.32511
1.62186
1.08647
0.907025
1.03624
1.0025
0.73445
0.928068
1.01149
528.362
464.079
342.554
244.356
173.447
131.943
108.362
85.5864
68.0517
48.371
27.672
11.0945
4.69341
2.20197
1.71333
1.33337
1.02445
1.06638
0.696663
0.864175
0.766708
0.858519
0.680148
529.183
471.111
348.852
239.241
177.358
145.177
126.644
94.8748
71.2883
57.4639
38.8676
19.3785
6.44553
2.97439
1.98101
1.46443
1.12654
1.00477
0.986017
0.657308
0.758704
0.846175
0.74275
536.311
481.77
386.502
253.039
187.83
162.95
119.576
84.4951
62.3397
56.5026
47.7372
34.3575
17.1445
6.99356
3.40365
1.74426
1.13243
1.05501
0.842827
0.775637
0.767492
0.787662
0.7468
518.946
479.752
420.983
309.128
220.556
158.929
110.242
68.9141
46.4967
39.1505
37.9435
36.8477
23.8676
10.8816
4.80938
2.44572
1.51513
1.04934
0.881054
0.751609
0.737258
0.70076
0.704588
494.285
470.575
467.546
348.71
270.089
193.447
145.424
87.0328
42.8776
27.046
26.0397
30.7636
27.3158
18.5373
9.80954
5.19774
2.56969
1.34727
0.94791
0.591272
0.775825
0.749137
0.648192
486.286
460.818
421.296
373.642
331.069
257.218
185.016
92.8373
31.1295
13.7062
13.0532
19.782
24.0102
21.704
15.2212
8.99792
4.13059
1.73035
0.906735
0.683371
0.655414
0.644099
0.638247
475.751
457.718
435.353
399.424
370.664
299.11
186.839
74.263
22.8262
7.93001
6.70494
12.0803
20.4459
21.0302
17.6848
12.2086
4.58248
1.62311
0.706137
0.620095
0.587885
0.584264
0.641492
432.185
460.664
414.96
417.983
382.018
311.874
187.375
74.704
20.8353
5.50816
5.11827
8.55745
16.3051
17.6238
15.9766
10.2418
4.31103
1.58905
0.744738
0.549578
0.543132
0.53443
0.599755
385.156
369.8
367.375
405.267
393.564
303.144
172.427
66.8473
19.6308
5.24856
5.15828
9.54823
15.0448
13.6978
8.88164
3.52378
1.09567
0.475904
0.473807
0.489106
0.481411
0.511233
0.533198
379.3
374.962
372.011
387.074
377.303
272.053
151.517
58.7921
14.4449
3.70728
5.03184
9.44509
11.7036
7.1195
2.87647
0.74736
0.308199
0.340067
0.40889
0.38813
0.474596
0.472599
0.47949
368.318
363.112
337.636
355.812
303.699
185.028
77.251
25.9336
4.58545
2.05
3.75185
5.48498
6.10161
2.44004
0.70535
0.213292
0.277373
0.303795
0.369931
0.41859
0.384587
0.405495
0.417455
364.671
350.276
295.744
256.366
187.408
106.388
39.3182
11.5169
1.99859
1.5343
1.76389
1.84573
1.79812
0.897348
0.413132
0.253104
0.334519
0.324283
0.37289
0.281892
0.394994
0.33242
0.411318
361.019
329.935
249.861
177.411
104.467
51.5949
17.6034
4.05446
1.171
1.59649
1.82012
1.85197
2.11132
2.0988
1.25549
0.547728
0.459908
0.373463
0.340031
0.326954
0.35255
0.30297
0.31807
369.326
330.922
243.548
158.785
79.4258
33.006
8.66741
1.74477
1.39948
2.66246
3.40339
4.09391
4.29725
4.1435
2.62996
1.14529
0.773227
0.480583
0.387576
0.259003
0.301708
0.303363
0.284488
333.116
305.051
225.334
134.411
62.1902
22.072
4.7169
0.941049
1.38787
3.03832
4.32175
5.58182
5.68781
5.52073
3.74139
1.92408
1.08218
0.583964
0.358605
0.282125
0.283303
0.263809
0.223477
339.982
291.032
198.521
110.371
47.7967
15.8825
3.16747
0.867823
1.72718
3.6755
5.18191
5.50407
6.19588
5.90026
4.65885
2.70924
1.36679
0.633748
0.363121
0.226887
0.231675
0.25934
0.229849
325.822
266.334
168.304
86.1633
35.9655
11.5302
2.39035
0.918245
1.75959
3.09793
4.48893
4.80725
5.89091
6.35971
5.58852
3.01969
1.16892
0.571569
0.259579
0.236295
0.179032
0.222703
0.183551
308.022
233.119
134.723
62.0545
25.4142
8.59304
2.36899
0.866523
1.12729
1.94843
3.54069
3.87387
5.49343
6.17534
5.16279
3.1021
1.37124
0.524471
0.248432
0.157447
0.169525
0.18873
0.168743
287.864
199.955
107.847
45.1161
18.6057
7.35404
2.87599
1.67655
1.82862
2.25416
3.05629
3.86046
5.4698
6.28741
6.20279
3.61575
1.31426
0.441493
0.167593
0.164647
0.115216
0.148234
0.170617
268.093
171.103
86.0426
33.0602
13.6498
6.67296
3.84823
2.9834
3.11754
3.45396
4.03763
5.16956
6.6337
7.08627
5.38912
2.38506
0.614069
0.147746
0.0295066
0.0965101
0.087642
0.13683
0.0721351
248.308
142.487
64.1429
22.6024
10.3996
7.00157
5.89642
5.59658
6.31059
6.04226
6.52127
7.35885
7.23355
6.63773
4.42086
1.64251
0.345213
0.0950622
0.0786577
0.0449964
0.061818
0.0977344
0.0989763
227.047
111.553
40.8755
14.7104
9.58861
8.62496
8.76188
8.95581
9.13348
9.07256
8.86213
8.36287
6.6189
4.99373
2.8253
0.918776
0.175782
-0.0117643
0.00856557
0.0292906
0.0265546
0.0723989
0.0544645
202.83
84.4731
27.5761
12.6316
10.4159
9.91501
9.61632
9.04065
8.84191
8.2971
7.12965
5.46736
3.08576
1.61636
0.629499
0.0858722
-0.0231694
0.0151169
0.00662412
0.0314446
0.00846148
0.0293043
0.0236128
175.923
60.8296
19.2187
11.1239
9.34937
7.87633
6.58412
5.2428
4.79891
4.17009
2.74266
1.80968
0.664817
0.16102
-0.0778859
0.0158993
-0.0205986
-0.0141354
-0.0159488
-0.0140603
-0.000641535
-0.00411203
-0.0063184
133.413
33.2386
11.2519
6.39812
3.59244
2.28391
1.60063
1.00674
0.890799
0.661169
0.243318
0.0503008
-0.0922794
-0.115194
-0.0141019
-0.0334313
-0.0701782
0.0110104
-0.00368224
-0.0130088
-0.0197227
0.0124352
-0.0240873
53.022
2.19406
0.53457
-0.0250427
-0.262983
-0.179129
-0.0577804
-0.0235766
-0.0371001
-0.000823375
-0.0236892
-0.0165212
-0.0198986
-0.0232003
-0.0668442
-0.0565914
-0.0234327
-0.0595832
-0.0611757
-0.0388275
-0.0365945
-0.0932855
-0.0320199
717.025
765.108
738.303
731.979
668.989
687.256
697.176
706.126
467.733
480.598
479.795
421.483
474.649
472.844
358.045
415.924
492.659
562.331
546.896
504.343
442.591
436.123
487.267
414.448
365.76
366.352
350.28
346.855
255.769
251.991
244.026
234.329
158.977
148.693
138.226
129.305
89.9941
83.2895
76.2953
69.2603
49.5171
46.0535
42.8377
38.5872
22.1856
20.369
19.0619
17.1715
9.75742
8.95385
8.05904
7.02622
5.04628
4.48817
4.09733
3.43902
2.27712
2.1342
1.99715
1.82003
1.22589
1.26288
1.19457
1.12419
0.763781
0.786648
0.77538
0.787296
0.733431
0.725523
0.712468
0.683686
0.727332
0.722868
0.713052
0.695213
0.713304
0.724905
0.72087
0.767735
0.658202
0.638108
0.623636
0.59752
0.634698
0.636938
0.688685
0.579675
0.530516
0.552325
0.532093
0.530935
0.509826
0.543789
0.547783
0.548943
0.498204
0.496974
0.4875
0.481888
0.474185
0.487263
0.48856
0.484837
0.403971
0.405206
0.408781
0.420137
0.401283
0.397394
0.39763
0.395924
0.340227
0.339586
0.350859
0.36494
0.334877
0.313182
0.321687
0.287159
0.247728
0.267684
0.253174
0.31342
0.215841
0.204758
0.272728
0.246935
0.207936
0.206037
0.235457
0.184816
0.172479
0.194101
0.15858
0.186454
0.157725
0.169959
0.124207
0.0911018
0.103938
0.0988245
0.123081
0.11782
0.0577567
0.055035
0.0656524
0.0605039
0.08646
0.0584179
0.0742353
0.0529327
0.0107286
-0.00159251
0.00675113
0.0241575
0.00221679
-0.00832145
-0.02223
-0.0183865
0.00115824
-0.0206999
-0.0453433
-0.0511984
-0.0737282
-0.0823016
-0.0637463
-0.0731532
438.608
297.389
256.938
337.117
313.959
308.096
296.221
314.917
356.934
308.045
317.047
353.195
371.02
401.195
508.995
459.845
519.347
449.262
426.216
477.887
382.235
436.005
389.248
319.697
278.18
245.074
258.487
258.502
295.81
309.091
322.783
378.915
418.734
505.913
494.888
485.949
428.623
356.38
528.581
520.276
422.322
345.809
257.126
257.24
255.897
244.122
277.54
286.189
352.587
356.676
395.906
440.366
460.439
423.397
402.13
306.545
264.639
588.32
439.266
382.164
301.778
259.2
293.717
271.711
265.814
278.509
335.671
408.287
408.03
441.671
384.195
314.597
240.158
223.333
177.959
184.441
455.333
337.133
352.717
337.335
340.192
332.099
308.642
330.353
360.952
375.209
303.78
257.967
257.487
188.792
143.743
93.99
87.9264
73.299
112.741
412.78
377.096
345.567
319.458
310.562
258.903
271.803
233.634
214.842
181.856
139.806
100.34
86.8277
59.3521
44.9286
32.0104
34.9421
36.3486
58.875
338.346
286.086
245.868
207.464
158.942
149.447
137.618
130.537
99.6917
71.9773
51.6459
36.759
27.5345
20.2165
16.9469
14.8065
15.4307
19.1061
23.5669
221.949
179.066
154.101
116.316
96.4594
84.9476
78.5346
62.5898
54.4226
40.0449
29.1342
19.7687
15.6233
11.6739
10.8507
8.04969
9.78038
9.51288
11.1776
119.065
94.7375
79.6263
64.4067
67.4382
54.2438
53.9267
48.3772
37.135
29.1838
21.4553
15.13
11.9716
9.89325
8.70792
7.49907
7.37102
7.01995
8.03057
58.5484
50.3586
45.2775
33.1773
34.7221
36.8574
38.2714
36.821
34.1728
28.444
22.8387
17.3629
13.0452
10.2806
8.22665
6.71992
6.18235
6.11961
6.68459
31.5397
22.1121
21.194
19.0153
17.3985
18.8724
20.7063
25.6603
27.3973
23.8152
21.1455
18.9299
16.3138
13.2784
9.44724
6.86569
5.45919
5.07622
5.13656
14.1953
10.5106
8.94567
7.89674
7.73572
9.18014
9.92536
12.7185
16.2303
15.8278
15.1336
14.602
14.4541
13.4744
10.5198
6.84608
4.88145
4.21778
3.97447
5.56081
4.56951
3.76882
3.58041
3.49269
4.10002
4.16992
4.9657
7.01498
7.39465
7.33521
7.78547
9.00572
10.4612
9.54739
6.01038
3.96497
3.85207
4.43325
2.64224
2.08977
2.03121
1.75707
1.84988
2.21843
2.16314
2.21023
2.85479
2.98269
2.92029
3.2357
4.41959
6.75354
7.5057
4.9823
3.2705
3.05162
3.36106
1.46665
1.18795
1.17056
1.17362
1.22703
1.40336
1.37225
1.31324
1.37742
1.39682
1.34255
1.47357
2.00221
3.48961
3.80966
3.44958
2.55358
2.6393
3.09756
1.09645
0.926363
0.876735
0.905022
0.86802
1.00018
1.07982
1.01627
0.9801
0.968826
0.959455
0.946909
1.02719
1.56946
1.75212
1.93103
1.97498
2.24262
2.90321
0.914785
0.776907
0.869189
0.840352
0.876518
0.876562
0.902571
0.921306
0.881755
0.881244
0.868337
0.858537
0.841177
0.95635
1.02786
1.22827
1.65408
2.09862
2.73302
0.772913
0.788167
0.805917
0.787375
0.799971
0.850568
0.798136
0.849693
0.806395
0.816196
0.807897
0.807773
0.779926
0.741369
0.801365
0.919629
1.28397
1.94036
2.60857
0.670131
0.7439
0.757695
0.704716
0.772032
0.736136
0.766863
0.763897
0.77771
0.770443
0.773008
0.773237
0.733332
0.764244
0.734558
0.854997
1.1837
1.84814
2.54544
0.650173
0.690978
0.731756
0.769904
0.728466
0.718745
0.727876
0.752582
0.722587
0.744675
0.730757
0.737312
0.717416
0.714126
0.720003
0.801838
1.09526
1.77331
2.49263
0.594587
0.614195
0.708664
0.665216
0.649389
0.695787
0.653436
0.690774
0.730367
0.706554
0.738249
0.716032
0.701983
0.715113
0.682444
0.776559
1.04136
1.72166
2.44323
0.662693
0.604966
0.669007
0.634304
0.681345
0.627645
0.648549
0.662929
0.660776
0.6951
0.642888
0.684022
0.659708
0.678664
0.68708
0.717907
0.980707
1.66526
2.39145
0.481907
0.63333
0.613944
0.621689
0.639726
0.592993
0.624263
0.618017
0.633104
0.648554
0.672634
0.642415
0.666264
0.663821
0.628814
0.720057
0.945053
1.63833
2.29753
0.585627
0.563309
0.623212
0.591794
0.603097
0.570489
0.593309
0.63143
0.608633
0.613097
0.559079
0.646314
0.591083
0.616227
0.601349
0.641545
0.883695
1.53587
2.2971
0.423282
0.562391
0.556329
0.562836
0.598481
0.528834
0.524545
0.560403
0.592324
0.558761
0.582422
0.555544
0.611681
0.540479
0.586964
0.653867
0.833057
1.50073
2.23531
0.494005
0.509845
0.489242
0.511732
0.522441
0.476602
0.519616
0.521888
0.532157
0.549312
0.546216
0.564544
0.561742
0.544923
0.552269
0.567655
0.801006
1.41695
2.14313
0.418291
0.429641
0.472648
0.461106
0.440421
0.47422
0.488037
0.483028
0.489148
0.495816
0.510088
0.518916
0.518429
0.51297
0.476456
0.588921
0.737761
1.32147
2.06196
0.378956
0.429666
0.460702
0.479476
0.453203
0.392024
0.507436
0.428965
0.472388
0.474038
0.507075
0.480207
0.512026
0.501551
0.482585
0.544387
0.679561
1.23401
2.00511
0.393573
0.32596
0.425055
0.310303
0.366429
0.339203
0.426907
0.355549
0.433696
0.426187
0.407644
0.412323
0.385321
0.491839
0.396949
0.457906
0.596694
1.11242
1.93123
0.369446
0.325205
0.35395
0.343568
0.336044
0.358208
0.333196
0.332459
0.326973
0.505084
0.474152
0.364384
0.37833
0.428753
0.450099
0.459194
0.626371
1.07579
1.91858
0.337446
0.279788
0.290701
0.339557
0.273094
0.377881
0.255891
0.177548
0.379137
0.32756
0.364199
0.286452
0.359636
0.446182
0.376755
0.241862
0.448296
1.05489
1.85989
0.27306
0.259964
0.257987
0.224456
0.23598
0.272833
0.269549
0.251302
0.270897
0.311494
0.342138
0.324723
0.381983
0.301345
0.0901314
0.283993
0.548045
1.07413
1.77117
0.224228
0.246376
0.215393
0.250848
0.12939
0.232167
0.190896
0.389344
0.205749
0.151833
0.348085
0.236838
0.253497
0.11746
0.241908
0.30941
0.542751
0.89077
1.7829
0.186906
0.25764
0.205558
0.301974
0.128286
0.232404
0.249811
0.355196
0.29116
0.286487
0.310973
0.261054
0.282524
-0.00348925
0.175582
0.125119
0.192263
0.899042
1.7023
0.173151
0.125455
0.151322
0.103996
0.205711
0.154321
0.208341
0.34621
0.305863
0.299096
0.271709
0.198744
0.0543999
0.176589
0.129374
0.186032
0.376118
0.715881
1.57816
0.118613
0.0912726
0.143112
0.206768
0.153457
0.26923
0.275854
0.351523
0.322046
0.267755
0.266659
0.163748
0.146976
0.176304
0.0525032
0.133344
0.323092
0.755081
1.41509
0.0672826
0.0270014
0.0203475
0.0758491
0.115743
0.142655
0.2851
0.378695
0.322208
0.301979
0.223871
0.225656
0.245966
0.0774273
0.0625613
0.0980866
0.212717
0.737152
1.38284
0.04332
0.0752246
0.10596
0.0955903
0.194592
0.226629
0.321614
0.35109
0.294955
0.174552
0.218624
0.17856
0.22635
0.234227
0.205847
0.0493537
0.124815
0.390229
1.39478
0.0288565
0.0501146
0.054683
0.164898
0.127874
0.260336
0.291271
0.299415
0.192918
0.188301
0.0837703
0.104737
0.0123915
-0.0876864
-0.0600139
-0.0300865
0.0389592
0.438992
1.06037
-0.0318007
-0.0539084
-0.0568008
0.00379785
0.168037
0.304507
0.290275
0.307227
0.1458
0.0232656
0.0285124
0.0448971
0.0144321
0.185297
-0.00679735
0.0171485
0.101615
0.468124
0.975827
-0.0596725
-0.0140755
-0.0733415
-0.0149662
0.0788807
0.182474
0.273823
0.19693
0.0731977
0.000716957
0.0830636
-0.0293669
-0.00308773
0.102692
0.114005
-0.0219155
0.0156021
-0.00588398
0.999863
-0.0834375
-0.188412
-0.0446531
-0.0336762
-0.0425231
0.0190293
0.0776591
0.13808
-0.0150592
0.0602489
-0.0152401
0.0260875
0.0111397
0.0457181
0.00298259
0.0210875
0.126237
0.129498
0.424979
)
;

boundaryField
{
    leftWall
    {
        type            zeroGradient;
    }
    rightWall
    {
        type            zeroGradient;
    }
    lowerWall
    {
        type            zeroGradient;
    }
    atmosphere
    {
        type            totalPressure;
        rho             rho;
        psi             none;
        gamma           1;
        p0              uniform 0;
        value           nonuniform List<scalar> 
46
(
0
0
0
-0.011396
-0.105289
-0.0690278
-0.0378749
-0.0415228
-0.039325
-0.0326484
-0.0566441
-0.0478719
-0.0384387
-0.046345
-0.0250862
-0.0355301
-0.0439883
-0.0273431
-0.0381732
-0.036529
-0.0427609
-0.0608272
-0.0487381
-0.0671478
-0.0761283
-0.0798715
-0.0849403
-0.0958883
-0.137137
-0.0882188
-0.0677314
-0.0411041
-0.00578054
0
0
0
-0.000569791
-0.00319834
-0.00358573
0
0
0
0
0
0
0
)
;
    }
    defaultFaces
    {
        type            empty;
    }
}


// ************************************************************************* //
