/*--------------------------------*- C++ -*----------------------------------*\
| =========                 |                                                 |
| \\      /  F ield         | foam-extend: Open Source CFD                    |
|  \\    /   O peration     | Version:     4.1                                |
|   \\  /    A nd           | Web:         http://www.foam-extend.org         |
|    \\/     M anipulation  |                                                 |
\*---------------------------------------------------------------------------*/
FoamFile
{
    version     2.0;
    format      ascii;
    class       surfaceScalarField;
    location    "0.9";
    object      phi;
}
// * * * * * * * * * * * * * * * * * * * * * * * * * * * * * * * * * * * * * //

dimensions      [0 3 -1 0 0 0 0];

internalField   nonuniform List<scalar> 
4432
(
-7.66919e-07
7.66919e-07
-1.20568e-06
4.38763e-07
-4.85366e-07
-7.20317e-07
4.42657e-07
-9.28023e-07
7.25947e-07
-2.8329e-07
8.69746e-07
-1.43799e-07
1.18592e-06
-3.16173e-07
1.82173e-06
-6.3581e-07
2.45909e-06
-6.37362e-07
5.09251e-06
-2.63342e-06
7.84487e-06
-2.75236e-06
1.50599e-05
-7.21503e-06
1.69988e-05
-1.93887e-06
2.01929e-05
-3.19416e-06
2.21531e-05
-1.9602e-06
2.35969e-05
-1.4438e-06
2.34909e-05
1.06042e-07
2.22938e-05
1.19702e-06
1.12092e-05
1.10847e-05
1.65498e-05
-5.34065e-06
1.07865e-05
5.76335e-06
6.68817e-06
4.0983e-06
6.68817e-06
8.19563e-07
-5.26439e-08
2.91227e-07
9.67099e-07
2.28066e-07
-6.57156e-07
3.27525e-07
-1.02748e-06
8.08215e-07
-7.6398e-07
1.05167e-06
-3.87254e-07
1.60333e-06
-8.67837e-07
2.86769e-06
-1.90017e-06
7.14585e-06
-4.91552e-06
1.05121e-05
-5.99963e-06
1.45967e-05
-6.83702e-06
1.4968e-05
-7.5863e-06
1.63521e-05
-3.323e-06
1.88091e-05
-5.65109e-06
2.16297e-05
-4.78086e-06
2.30241e-05
-2.83814e-06
2.331e-05
-1.79868e-07
2.24208e-05
2.08618e-06
2.22564e-05
1.12491e-05
9.74696e-06
7.16877e-06
9.88832e-06
5.62199e-06
6.79544e-06
7.19118e-06
1.34836e-05
4.74556e-07
-5.272e-07
4.20803e-07
1.02085e-06
3.09399e-07
-5.45752e-07
6.70884e-07
-1.38897e-06
1.02981e-06
-1.12291e-06
2.57519e-06
-1.93263e-06
3.13545e-06
-1.4281e-06
3.64772e-06
-2.41243e-06
2.89151e-06
-4.15931e-06
5.34103e-06
-8.44915e-06
6.53697e-06
-8.03296e-06
1.02739e-05
-1.13232e-05
1.13176e-05
-4.36671e-06
1.45998e-05
-8.93329e-06
1.6489e-05
-6.67005e-06
1.07632e-05
2.88759e-06
1.20459e-05
-1.46257e-06
2.16748e-05
-7.54271e-06
1.82141e-05
1.47098e-05
1.66734e-05
8.70953e-06
1.24015e-05
9.8939e-06
6.92493e-06
1.26677e-05
2.04085e-05
3.5317e-08
-5.62517e-07
-4.24656e-08
1.09864e-06
4.31312e-07
-1.01953e-06
1.27489e-06
-2.23254e-06
1.02994e-06
-8.77965e-07
1.08799e-06
-1.99067e-06
1.0829e-06
-1.42302e-06
3.36933e-06
-4.69886e-06
4.80512e-06
-5.5951e-06
2.63811e-06
-6.28215e-06
5.58804e-06
-1.09829e-05
3.9225e-06
-9.65766e-06
8.53835e-06
-8.98256e-06
1.29031e-05
-1.3298e-05
8.33249e-06
-2.09944e-06
1.4181e-05
-2.96095e-06
1.524e-05
-2.52154e-06
9.16216e-06
-1.46487e-06
1.63964e-05
7.47552e-06
1.56933e-05
9.4127e-06
1.0272e-05
1.53151e-05
4.15133e-06
1.87884e-05
2.45599e-05
-3.36357e-07
-2.2616e-07
9.27281e-08
6.6955e-07
4.72224e-07
-1.39903e-06
5.76893e-07
-2.33721e-06
1.22293e-06
-1.524e-06
7.40978e-07
-1.50873e-06
1.18501e-06
-1.86705e-06
2.74089e-07
-3.78793e-06
1.32195e-06
-6.64296e-06
2.84514e-06
-7.80534e-06
1.30068e-06
-9.43842e-06
4.65705e-06
-1.3014e-05
8.78813e-06
-1.31136e-05
6.75859e-06
-1.12685e-05
1.4282e-05
-9.62289e-06
1.4232e-05
-2.91097e-06
1.48329e-05
-3.12235e-06
7.52639e-06
5.8416e-06
1.20941e-05
2.90781e-06
7.73418e-06
1.37726e-05
1.02908e-05
1.27585e-05
1.11749e-06
2.79618e-05
2.56773e-05
-3.91881e-07
1.65721e-07
-3.19457e-07
5.97127e-07
5.72334e-07
-2.29082e-06
2.30118e-06
-4.06606e-06
1.24253e-06
-4.65345e-07
3.00442e-07
-5.66637e-07
-1.12499e-06
-4.41622e-07
-1.36241e-06
-3.55052e-06
-2.56608e-06
-5.43928e-06
-2.79809e-06
-7.57334e-06
-1.00565e-06
-1.12309e-05
1.90014e-06
-1.59198e-05
4.74365e-06
-1.59571e-05
1.55847e-05
-2.21096e-05
1.89092e-05
-1.29474e-05
1.7748e-05
-1.74974e-06
9.38114e-06
5.2445e-06
1.62678e-05
-1.04504e-06
5.75389e-06
1.34217e-05
5.67082e-06
1.38557e-05
1.00221e-05
8.40718e-06
8.78174e-06
2.92022e-05
3.44591e-05
-6.20976e-07
7.86698e-07
-1.74509e-06
1.72124e-06
-1.8934e-06
-2.1425e-06
-2.38851e-06
-3.57096e-06
-3.57959e-06
7.25742e-07
-5.12476e-06
9.78528e-07
-5.88727e-06
3.20889e-07
-5.71978e-06
-3.718e-06
-4.25901e-06
-6.90005e-06
-2.31307e-06
-9.51928e-06
-2.47581e-07
-1.32964e-05
1.97344e-06
-1.81408e-05
9.71463e-06
-2.36983e-05
8.68363e-06
-2.10786e-05
1.96824e-05
-2.39461e-05
1.95343e-05
-1.60163e-06
2.04703e-05
4.30849e-06
1.13657e-05
8.05957e-06
1.5226e-05
9.56133e-06
7.14671e-06
2.1935e-05
6.79697e-06
8.75692e-06
1.06385e-05
2.53606e-05
4.50976e-05
-1.22612e-06
2.01281e-06
-2.91236e-06
3.40748e-06
-6.28893e-06
1.23407e-06
-6.05578e-06
-3.8041e-06
-7.19756e-06
1.86751e-06
-7.99868e-06
1.77965e-06
-8.0591e-06
3.81303e-07
-5.74743e-06
-6.02967e-06
-2.10781e-06
-1.05397e-05
-5.61736e-07
-1.10654e-05
3.73155e-07
-1.42312e-05
1.00832e-06
-1.8776e-05
1.15185e-06
-2.38419e-05
1.15171e-05
-3.14438e-05
1.16e-05
-2.4029e-05
2.51233e-05
-1.51249e-05
2.72296e-05
2.20219e-06
1.68593e-05
1.84298e-05
2.53714e-05
1.04928e-06
1.60606e-05
3.12458e-05
1.76054e-05
7.21212e-06
1.95761e-05
2.33899e-05
6.46737e-05
-8.463e-05
8.46303e-05
-0.000172501
8.78714e-05
-0.000189785
1.72832e-05
-0.000193294
3.50915e-06
-0.000177524
-1.57701e-05
-0.000160239
-1.72843e-05
-0.000140347
-1.98925e-05
-0.000127446
-1.29007e-05
-0.000109799
-1.76473e-05
-9.28491e-05
-1.69498e-05
-7.95234e-05
-1.33257e-05
-6.69444e-05
-1.25789e-05
-5.35768e-05
-1.33677e-05
-4.51303e-05
-8.44649e-06
-2.03055e-05
-2.48248e-05
-1.7079e-05
-3.22651e-06
-2.75506e-05
1.04716e-05
-1.6513e-05
-1.10377e-05
-1.6513e-05
-7.2558e-05
0.000157189
-0.000133182
0.000148495
-0.000136613
2.07143e-05
-0.000133518
4.14419e-07
-0.000114666
-3.4623e-05
-0.000100332
-3.16185e-05
-9.15468e-05
-2.86772e-05
-8.3671e-05
-2.07764e-05
-6.6822e-05
-3.44963e-05
-5.22954e-05
-3.14764e-05
-4.38289e-05
-2.17921e-05
-3.65968e-05
-1.98111e-05
-1.57672e-05
-3.41972e-05
-1.02278e-05
-1.39859e-05
-9.60172e-06
-2.54509e-05
-1.4433e-05
1.60473e-06
-1.19639e-05
8.00252e-06
-1.24621e-05
-1.05395e-05
-2.8975e-05
-5.67972e-05
0.000213986
-9.51273e-05
0.000186825
-8.98838e-05
1.54705e-05
-5.32223e-05
-3.62471e-05
-7.98939e-05
-7.95135e-06
-5.67051e-05
-5.48072e-05
-4.70539e-05
-3.83284e-05
-4.35535e-05
-2.42769e-05
-3.3107e-05
-4.49427e-05
-2.10438e-05
-4.35396e-05
-1.50968e-05
-2.77392e-05
-6.37737e-06
-2.85305e-05
-4.56899e-06
-3.60056e-05
-7.64848e-07
-1.779e-05
-2.11515e-06
-2.41005e-05
-6.51407e-06
6.00365e-06
-6.40453e-06
7.89298e-06
-2.41802e-06
-1.4526e-05
-3.1393e-05
-4.2516e-05
0.000256502
-6.63525e-05
0.000210662
-6.31786e-05
1.22966e-05
-7.58576e-05
-2.35681e-05
-6.25275e-05
-2.12814e-05
-3.82918e-05
-7.90431e-05
-1.28429e-05
-6.37772e-05
-1.68057e-05
-2.03141e-05
-7.52328e-06
-5.42252e-05
-4.28782e-06
-4.67751e-05
1.4213e-06
-3.34483e-05
7.8787e-06
-3.49879e-05
7.59221e-06
-3.57191e-05
2.10547e-05
-3.12526e-05
2.64688e-05
-2.95146e-05
2.72038e-05
5.26861e-06
1.18223e-05
2.32745e-05
2.90555e-06
-5.60922e-06
-2.84875e-05
-3.08001e-05
0.000287302
-4.68901e-05
0.000226752
-4.98031e-05
1.52096e-05
-5.37293e-05
-1.96418e-05
-2.84104e-05
-4.66003e-05
-5.32899e-06
-0.000102125
-6.70608e-06
-6.24001e-05
-2.27346e-06
-2.47467e-05
9.5392e-06
-6.60378e-05
1.874e-05
-5.59758e-05
1.52827e-05
-2.99911e-05
9.63454e-06
-2.93397e-05
1.5252e-05
-4.13365e-05
2.98305e-05
-4.58311e-05
3.09919e-05
-3.0676e-05
1.75201e-05
1.87405e-05
2.85838e-05
1.22107e-05
1.08022e-05
1.21724e-05
-1.76853e-05
-2.24828e-05
0.000309785
-3.34277e-05
0.000237697
-4.28766e-05
2.46585e-05
-4.08673e-05
-2.16511e-05
-1.16959e-06
-8.62981e-05
1.36721e-05
-0.000116966
2.01809e-05
-6.89089e-05
2.50569e-05
-2.96227e-05
3.04899e-05
-7.14708e-05
3.13004e-05
-5.67863e-05
2.85549e-05
-2.72456e-05
2.706e-05
-2.78448e-05
1.68479e-05
-3.11243e-05
1.84538e-05
-4.74371e-05
3.37118e-05
-4.5934e-05
3.35323e-05
1.892e-05
3.3792e-05
1.1951e-05
1.32912e-05
3.26733e-05
-4.39416e-06
-1.23726e-05
0.000322157
-1.32627e-05
0.000238587
-1.62256e-05
2.76215e-05
-3.25175e-06
-3.4625e-05
1.33825e-05
-0.000102932
2.5815e-05
-0.000129399
3.20567e-05
-7.51507e-05
5.37723e-05
-5.13383e-05
5.20347e-05
-6.97332e-05
5.10301e-05
-5.57817e-05
4.18167e-05
-1.80321e-05
3.44416e-05
-2.04698e-05
3.62383e-05
-3.29211e-05
1.98704e-05
-3.10691e-05
2.05871e-05
-4.66507e-05
3.71892e-05
2.31789e-06
3.66077e-05
1.25324e-05
2.71617e-05
4.21193e-05
2.27675e-05
-5.07877e-06
0.000327236
7.97113e-06
0.000225537
7.52751e-06
2.80651e-05
2.51161e-05
-5.22136e-05
2.84559e-05
-0.000106272
3.32624e-05
-0.000134205
3.48856e-05
-7.67739e-05
6.03533e-05
-7.68059e-05
5.90495e-05
-6.84295e-05
3.32104e-05
-2.99426e-05
2.57409e-05
-1.05627e-05
3.80359e-05
-3.27648e-05
3.85498e-05
-3.34349e-05
3.80366e-05
-3.05559e-05
4.00395e-05
-4.86535e-05
4.19954e-05
3.6192e-07
2.09117e-05
3.36162e-05
2.89575e-05
3.40735e-05
5.1725e-05
-2.86781e-06
4.88062e-06
-6.20254e-06
6.74221e-06
-8.96324e-06
3.99477e-06
-1.59497e-05
3.18236e-06
-1.6419e-05
2.33681e-06
-1.8812e-05
4.17261e-06
-1.91104e-05
6.79769e-07
-1.79576e-05
-7.18249e-06
-1.45975e-05
-1.38998e-05
-1.07169e-05
-1.49459e-05
-5.68756e-06
-1.92606e-05
-1.18252e-07
-2.43453e-05
4.41664e-06
-2.83768e-05
1.91491e-06
-2.89421e-05
1.86037e-05
-4.07179e-05
4.8803e-05
-4.53242e-05
5.9655e-05
-8.64986e-06
6.68953e-05
1.11896e-05
3.87058e-05
2.92388e-05
6.03084e-05
9.64314e-06
3.45432e-05
3.29774e-05
3.60653e-05
2.18679e-05
3.39433e-05
6.67957e-05
-2.13648e-06
7.0171e-06
-3.16989e-06
7.77562e-06
-2.00237e-06
2.82725e-06
-1.52638e-06
2.70637e-06
-7.85942e-06
8.66985e-06
-1.61545e-05
1.24677e-05
-2.41483e-05
8.67354e-06
-2.93077e-05
-2.02304e-06
-4.0401e-05
-2.8065e-06
-5.08469e-05
-4.50004e-06
-7.19317e-05
1.82426e-06
-7.79755e-05
-1.83015e-05
-6.03641e-05
-4.59881e-05
-3.76822e-05
-5.1624e-05
-2.30923e-05
-5.53077e-05
-1.54367e-05
-5.29798e-05
2.13798e-05
-4.54664e-05
3.28626e-05
-2.93231e-07
5.21426e-05
9.95879e-06
3.48189e-05
2.69669e-05
6.0128e-05
7.6683e-06
7.44059e-05
7.5899e-06
1.67775e-05
9.15717e-05
2.18948e-06
4.82762e-06
4.85465e-06
5.11044e-06
4.08607e-06
3.59584e-06
2.15323e-07
6.57711e-06
-1.67577e-06
1.05609e-05
-9.36908e-06
2.0161e-05
-1.63899e-05
1.56943e-05
-3.51251e-05
1.67122e-05
-4.81732e-05
1.02416e-05
-7.42337e-05
2.15605e-05
-6.80846e-05
-4.32487e-06
-0.00010327
1.68834e-05
-0.000102516
-4.67414e-05
-0.000113354
-4.07857e-05
-0.000114183
-5.44788e-05
-0.000110172
-5.69915e-05
-8.7204e-05
-6.84342e-05
-5.2532e-05
-3.49652e-05
-2.80752e-05
-1.4498e-05
-1.68813e-06
5.7976e-07
2.18726e-05
-1.58925e-05
3.46957e-05
-5.23319e-06
1.24342e-05
3.9039e-05
9.6629e-06
-4.83528e-06
1.98102e-05
-5.03689e-06
3.21528e-05
-8.74673e-06
4.13271e-05
-2.59719e-06
2.03257e-05
3.15624e-05
-4.84563e-07
4.09712e-05
-1.62087e-05
3.14184e-05
-6.63881e-05
6.68916e-05
-8.8117e-05
3.19705e-05
-9.2128e-05
2.55715e-05
-0.000103341
6.88845e-06
-7.97748e-05
-6.68318e-06
-0.00011967
-6.84636e-06
-0.000114185
-4.62707e-05
-0.000140277
-2.83869e-05
-0.000156826
-4.04424e-05
-0.000151637
-7.36227e-05
-0.000144944
-4.16587e-05
-0.000135766
-2.36758e-05
-0.000112446
-2.274e-05
-9.81174e-05
-3.02214e-05
-0.000103851
5.00671e-07
1.60986e-05
-0.000107516
1.68129e-05
-2.16481e-05
5.34078e-05
-4.16319e-05
6.68762e-05
-2.22151e-05
8.68129e-05
-2.25339e-05
8.91464e-05
2.92288e-05
3.77496e-05
9.2368e-05
-2.15786e-05
9.07466e-05
-4.619e-05
9.1503e-05
-6.07041e-05
4.64846e-05
-6.72877e-05
3.21551e-05
-6.77666e-05
7.3674e-06
-7.47647e-05
3.1493e-07
-8.48905e-05
3.27935e-06
-0.000113429
-1.77326e-05
-9.36662e-05
-4.81493e-05
-9.35826e-05
-4.0526e-05
-0.000147707
-1.94979e-05
-0.000154646
-3.47204e-05
-0.000166353
-1.1968e-05
-0.000177331
-1.17626e-05
-0.000179932
-2.76202e-05
-0.000184012
4.58042e-06
2.27593e-05
-0.000190672
3.11515e-05
-5.27997e-05
6.11569e-05
-7.16372e-05
9.13252e-05
-5.23834e-05
6.29005e-05
5.89085e-06
3.98007e-05
5.23286e-05
2.09533e-05
0.000111215
-1.39435e-05
0.000125643
-3.33995e-05
0.000110959
-7.0425e-05
8.35101e-05
-9.82843e-05
6.00144e-05
-0.000115444
2.45269e-05
-0.000140569
2.54399e-05
-0.000156452
1.91622e-05
-0.000182378
8.19433e-06
-0.000216952
-1.35753e-05
-0.000230297
-2.71811e-05
-0.000228422
-2.13728e-05
-0.000233816
-2.93267e-05
-0.00016497
-8.08143e-05
-0.000148249
-2.84834e-05
-0.000179584
3.71449e-06
-0.000180908
5.9045e-06
3.05765e-05
-0.000188725
2.51321e-05
-7.79318e-05
4.56166e-06
-5.10668e-05
-1.94036e-06
-4.58814e-05
-9.08161e-06
1.30321e-05
-1.99545e-05
6.32014e-05
-3.71373e-05
0.000128398
-5.02803e-05
0.000138786
-7.16066e-05
0.000132285
-0.000103381
0.000115284
-0.000138255
9.4888e-05
-0.00017351
5.97829e-05
-0.000219508
7.14378e-05
-0.000235607
3.52611e-05
-0.000244848
1.74349e-05
-0.00024885
-9.57338e-06
-0.000250387
-2.56441e-05
-0.000258387
-1.33723e-05
-0.000258927
-2.87872e-05
-0.000265988
-7.37528e-05
-0.000272571
-2.19005e-05
-0.000256683
-1.2174e-05
-0.000236405
-1.43732e-05
-1.79976e-06
-0.000204029
-2.86523e-05
-4.92795e-05
-3.78246e-05
-4.18945e-05
-8.66523e-05
2.94636e-06
-0.000105822
3.22013e-05
-0.000120843
7.82225e-05
-0.000119439
0.000126994
-0.000119227
0.000138575
-0.000129536
0.000142594
-0.000149676
0.000135424
-0.000169918
0.00011513
-0.000211822
0.000101687
-0.00022723
8.68462e-05
-0.000227328
3.53587e-05
-0.000223482
1.35891e-05
-0.000226968
-6.08713e-06
-0.00023651
-1.61024e-05
-0.000172055
-7.78275e-05
-0.000160556
-4.02865e-05
-0.000222599
-1.17093e-05
-0.000213953
-3.05463e-05
-0.000212045
-1.40828e-05
-0.000212924
-1.34942e-05
-2.25021e-05
-0.000192221
-4.67241e-05
-2.55536e-06
-0.000104195
1.5576e-05
-0.000150862
4.96134e-05
-0.000170949
5.22884e-05
-0.000171375
7.86492e-05
-0.000168059
0.000123678
-0.000165404
0.000135919
-0.000170242
0.000147433
-0.000179874
0.000145056
-0.000183462
0.000118718
-0.000192992
0.000111217
-0.000195052
8.89067e-05
-0.000205154
4.54607e-05
-0.000200091
8.52573e-06
-0.000194552
-1.16265e-05
-0.00018269
-2.79637e-05
-0.000216124
-4.43938e-05
-0.00022724
-2.91703e-05
-0.000219878
-1.90713e-05
-0.000227201
-2.32231e-05
-0.000152622
-8.86621e-05
-0.000131809
-3.43068e-05
-2.37127e-06
-0.00015194
-8.05518e-05
7.79965e-05
-0.000128971
6.39951e-05
-0.000166747
8.7389e-05
-0.000204042
8.95841e-05
-0.000193734
6.83413e-05
-0.000197286
0.00012723
-0.000192969
0.000131603
-0.000196958
0.000151422
-0.000200141
0.000148239
-0.000167195
8.57716e-05
-0.000169666
0.000113688
-0.000166016
8.5257e-05
-0.000151735
3.11792e-05
-0.000141952
-1.25772e-06
-0.000139612
-1.39657e-05
-0.000139419
-2.81569e-05
-0.000138245
-4.5568e-05
-0.000129189
-3.82258e-05
-0.000119182
-2.90789e-05
-0.000109024
-3.33808e-05
-0.000142293
-5.5393e-05
-0.000150366
-2.62339e-05
-2.82774e-05
-0.00012446
-5.86873e-05
0.000136684
-8.65681e-05
9.18759e-05
-8.83483e-05
8.91692e-05
-0.000110865
0.000112101
-0.000203693
0.000161169
-0.000202983
0.000126519
-0.000193645
0.000122265
-0.000115723
7.34991e-05
-0.000107519
0.000140036
-0.000175817
0.00015407
-0.000153201
9.10712e-05
-0.000113721
4.57779e-05
-8.76544e-05
5.11219e-06
-6.33162e-05
-2.55959e-05
-5.10672e-05
-2.62148e-05
-5.62899e-05
-2.29342e-05
-7.25511e-05
-2.93068e-05
-8.72155e-05
-2.35615e-05
-8.25937e-05
-3.37007e-05
-7.41565e-05
-4.1818e-05
-7.74239e-05
-5.21255e-05
-7.31909e-05
-3.04669e-05
-4.67235e-05
-5.47449e-05
-2.738e-05
0.000164064
-0.00010836
0.000172856
-0.000143148
0.000123957
-0.000164396
0.000133349
-0.000126052
0.000122826
-0.000119506
0.000119973
-0.000154664
0.000157423
-0.00018639
0.000105225
-0.000171534
0.00012518
-0.000141615
0.000124151
-9.27395e-05
4.21956e-05
-7.51224e-05
2.81607e-05
-5.35049e-05
-1.65053e-05
-2.3899e-05
-5.52018e-05
-1.92172e-05
-3.08966e-05
-3.55259e-05
-6.62546e-06
-5.40787e-05
-1.07541e-05
-6.33518e-05
-1.42883e-05
-6.70374e-05
-3.00151e-05
-6.597e-05
-4.28854e-05
-6.68635e-05
-5.1232e-05
-6.37302e-05
-3.36002e-05
-5.57369e-05
-5.47168e-05
-3.76127e-05
0.000201676
-5.41868e-05
0.00018943
-0.000103968
0.000173739
-0.000121078
0.000150459
-0.000109082
0.00011083
-0.000148585
0.000159477
-0.000135736
0.000144574
-7.82547e-05
4.77432e-05
-8.9479e-05
0.000136404
-2.72821e-05
6.19538e-05
1.71849e-06
1.3195e-05
2.44309e-05
5.44839e-06
1.87977e-05
-1.08721e-05
1.56968e-06
-3.79738e-05
-9.42988e-06
-1.9897e-05
-1.90662e-05
3.01085e-06
-1.97135e-05
-1.01067e-05
-2.19689e-05
-1.2033e-05
-2.1123e-05
-3.0861e-05
-2.58164e-05
-3.8192e-05
-3.25073e-05
-4.45411e-05
-2.42819e-05
-4.18256e-05
-5.09155e-05
-2.91033e-05
-2.57487e-05
0.000227425
-3.87284e-05
0.00020241
-5.30302e-05
0.000188041
-6.40399e-05
0.000161468
-0.000108248
0.000155037
-5.47013e-05
0.00010593
-1.6226e-05
0.000106099
-1.15654e-05
4.30826e-05
2.47974e-05
0.000100041
8.67924e-05
-4.11767e-08
0.000115307
-1.532e-05
0.000121274
-5.17815e-07
9.11876e-05
1.92139e-05
4.00891e-05
1.31247e-05
-3.41207e-06
2.36042e-05
-2.39768e-05
2.35756e-05
-3.56848e-05
1.6012e-06
-3.03127e-05
-1.74051e-05
-1.65e-05
-4.46737e-05
-8.12725e-06
-4.65647e-05
-1.05102e-05
-4.21582e-05
-1.33108e-05
-3.9025e-05
-5.23e-05
-1.19263e-05
-1.98548e-05
0.00024728
-3.46111e-05
0.000217166
-3.75246e-05
0.000190954
-2.61236e-05
0.000150067
-1.69418e-05
0.000145856
-3.56259e-05
0.000124614
3.31263e-05
3.73465e-05
2.48675e-05
5.13413e-05
7.41769e-05
5.0732e-05
7.62935e-05
-2.15779e-06
0.000127957
-6.69833e-05
0.000117404
1.00346e-05
0.000127716
8.90236e-06
0.000108597
3.22439e-05
0.000110105
2.20962e-05
0.000118124
1.55559e-05
0.000108906
1.08191e-05
9.78392e-05
-6.33784e-06
7.81125e-05
-2.49471e-05
6.49138e-05
-3.33661e-05
3.14166e-05
-8.66095e-06
2.9938e-05
-3.75463e-05
-4.68219e-05
2.44599e-05
-1.69901e-05
0.00026427
-2.725e-05
0.000227426
-3.72568e-05
0.000200961
-2.22837e-05
0.000135094
-8.44165e-06
0.000132014
3.68876e-05
7.92853e-05
4.22575e-05
3.19766e-05
8.49407e-05
8.6581e-06
0.000103517
3.21557e-05
0.000107567
-6.20736e-06
7.51379e-05
-3.45547e-05
0.000114439
-2.92664e-05
0.000123194
1.4704e-07
0.000114745
4.06929e-05
0.000113308
2.35329e-05
8.92005e-05
3.96638e-05
9.30705e-05
6.94905e-06
0.000113173
-2.64407e-05
9.69671e-05
-8.74078e-06
6.50878e-05
-1.4867e-06
8.88217e-05
-3.23948e-05
8.39098e-05
-3.26345e-05
-2.60549e-05
6.31429e-05
-1.44137e-05
0.000278684
-2.3691e-05
0.000236703
-3.33106e-05
0.00021058
2.27283e-06
9.9511e-05
6.79621e-06
0.00012749
2.31508e-05
6.29306e-05
5.77698e-05
-2.64239e-06
7.60789e-05
-9.65094e-06
8.10624e-05
2.71722e-05
7.68095e-05
-1.95449e-06
7.72047e-05
-3.49498e-05
7.83623e-05
-3.0424e-05
7.77683e-05
7.41003e-07
0.000107815
1.06462e-05
0.000116492
1.48556e-05
0.000126683
2.94735e-05
0.000120884
1.27482e-05
8.26001e-05
1.18427e-05
0.000106993
-3.31336e-05
9.40088e-05
1.14974e-05
8.43946e-05
-2.27806e-05
6.06647e-05
-8.90459e-06
-2.36298e-05
5.82396e-05
-6.8748e-06
0.000285559
-1.57089e-05
0.000245537
-1.50623e-05
0.000209934
-2.02763e-05
0.000104725
-8.68686e-06
0.000115901
2.34501e-06
5.18988e-05
2.99275e-05
-3.02249e-05
4.09029e-05
-2.06264e-05
7.27644e-05
-4.68929e-06
7.64486e-05
-5.63873e-06
3.76374e-05
3.86141e-06
3.47119e-05
-2.74985e-05
5.40484e-05
-1.85955e-05
6.84356e-05
-3.74091e-06
8.92559e-05
-5.96464e-06
0.00010867
1.00596e-05
0.000104452
1.69663e-05
0.000109125
7.16989e-06
7.56909e-05
3.00132e-07
0.000101426
-1.42373e-05
9.39703e-05
-1.53253e-05
0.000105255
-2.01894e-05
-2.07237e-05
0.000102349
-2.39255e-07
0.000285798
-1.03682e-05
0.000255666
-6.93073e-06
0.000206496
-6.06941e-05
0.000158488
-2.63548e-05
8.15615e-05
4.47407e-06
2.10699e-05
1.07469e-05
-3.64977e-05
2.52056e-05
-3.5085e-05
7.92278e-05
-5.87115e-05
0.000114297
-4.07081e-05
0.000105345
1.28132e-05
7.4596e-05
3.25095e-06
6.08119e-05
-4.81148e-06
6.23983e-05
-5.32734e-06
5.59659e-05
4.67781e-07
6.51741e-05
8.5132e-07
9.22354e-05
-1.00949e-05
9.87497e-05
6.55556e-07
0.000103662
-4.61184e-06
9.43173e-05
-4.89292e-06
8.43912e-05
-5.39922e-06
8.43296e-05
-2.01277e-05
-2.25925e-05
8.61983e-05
5.30536e-06
0.000280492
5.30625e-06
0.000255665
1.67599e-05
0.000195043
-1.02755e-05
0.000185524
-2.94737e-05
0.00010076
-2.87642e-05
2.03605e-05
-6.05439e-06
-5.92075e-05
1.71725e-05
-5.83119e-05
5.54847e-05
-9.70238e-05
5.67702e-05
-4.19936e-05
0.000109386
-3.98026e-05
9.17702e-05
2.08668e-05
6.27845e-05
2.41742e-05
4.73502e-05
1.0107e-05
5.00521e-05
-2.23408e-06
6.40846e-05
-1.31812e-05
7.76125e-05
-2.36228e-05
8.574e-05
-7.47201e-06
9.69185e-05
-1.57903e-05
9.10431e-05
9.82497e-07
9.09051e-05
-5.2612e-06
8.90482e-05
-1.82708e-05
-1.68037e-05
8.32594e-05
3.60539e-06
0.000276887
4.85649e-06
0.000254414
6.54648e-05
0.000134434
3.68765e-05
0.000214112
2.3874e-07
0.000137397
-2.40595e-05
4.46587e-05
-1.38384e-05
-6.94286e-05
4.61015e-05
-0.000118252
6.64026e-05
-0.000117325
8.36402e-05
-5.92312e-05
9.48594e-05
-5.10218e-05
0.000104254
1.14719e-05
0.00010204
2.63881e-05
7.57067e-05
3.64406e-05
5.90297e-05
1.4443e-05
7.65145e-05
-3.0666e-05
8.10591e-05
-2.81674e-05
9.34686e-05
-1.98814e-05
6.60584e-05
1.16199e-05
7.65364e-05
-9.49552e-06
6.96193e-05
1.65587e-06
4.86678e-05
2.68075e-06
-1.98017e-05
5.16658e-05
1.69055e-05
0.000259981
3.71873e-05
0.000234132
4.24934e-05
0.000129128
5.09279e-05
0.000205678
3.4632e-05
0.000153693
3.13925e-05
4.78982e-05
3.28072e-05
-7.08434e-05
1.99614e-05
-0.000105406
2.19305e-05
-0.000119294
7.69112e-05
-0.000114212
0.000121809
-9.59192e-05
0.000138806
-5.52571e-06
0.000113706
5.1488e-05
9.74863e-05
5.26605e-05
9.22337e-05
1.96955e-05
8.95574e-05
-2.79897e-05
8.96825e-05
-2.82926e-05
9.13739e-05
-2.15728e-05
8.99797e-05
1.30141e-05
8.42995e-05
-3.81533e-06
8.43958e-05
1.5596e-06
8.36087e-05
3.46779e-06
-1.9149e-05
8.2956e-05
1.55055e-05
0.000244476
4.56127e-05
0.000204025
4.85834e-05
0.000126158
6.36263e-05
0.000190635
5.85554e-05
0.000158764
6.3214e-05
4.32396e-05
2.39368e-05
-3.15662e-05
1.93244e-05
-0.000100794
4.53028e-05
-0.000145272
5.92567e-05
-0.000128166
8.52614e-05
-0.000121924
0.000105719
-2.59831e-05
0.000108199
4.90076e-05
0.000123535
3.73243e-05
0.000122175
2.10561e-05
7.69674e-05
1.72177e-05
6.46382e-05
-1.59635e-05
5.03416e-05
-7.27621e-06
7.06732e-05
-7.31753e-06
6.77937e-05
-9.35824e-07
6.97447e-05
-3.91399e-07
7.45299e-05
-1.31738e-06
-5.07028e-06
6.04512e-05
4.93735e-06
0.000239538
6.5523e-05
0.000143439
5.74762e-05
0.000134204
5.19731e-05
0.000196138
7.03805e-05
0.000140357
7.08217e-05
4.27983e-05
7.74422e-05
-3.81867e-05
3.77967e-05
-6.11481e-05
4.71396e-05
-0.000154615
8.10106e-05
-0.000162037
8.99191e-05
-0.000130832
8.20779e-05
-1.81419e-05
0.000103169
2.79167e-05
9.61498e-05
4.43432e-05
0.000104737
1.24687e-05
0.000110942
1.10125e-05
9.65507e-05
-1.57162e-06
8.19753e-05
7.29917e-06
7.66473e-05
-1.98948e-06
7.72516e-05
-1.5401e-06
7.54692e-05
1.39101e-06
7.62315e-05
-2.07964e-06
1.36033e-05
5.75579e-05
2.51976e-05
0.000214341
4.02957e-05
0.000128341
7.09885e-05
0.000103512
8.11103e-05
0.000186016
9.74993e-05
0.000123968
9.54357e-05
4.48619e-05
8.37222e-05
-2.64733e-05
8.41407e-05
-6.15665e-05
8.50914e-05
-0.000155566
8.33328e-05
-0.000160278
6.56545e-05
-0.000113154
5.59692e-05
-8.4566e-06
1.93964e-05
6.44896e-05
4.81026e-05
1.56371e-05
3.74138e-05
2.31575e-05
3.71334e-05
1.12929e-05
3.00172e-05
5.54463e-06
3.59259e-05
1.39052e-06
3.55693e-05
-1.63289e-06
3.35201e-05
5.09135e-07
4.10945e-05
-6.18344e-06
4.59282e-05
-6.91332e-06
3.40221e-06
5.61293e-05
2.0974e-05
0.000193367
2.39905e-05
0.000125325
4.15976e-05
8.59046e-05
6.84318e-05
0.000159182
0.000117972
7.44276e-05
0.000133483
2.93507e-05
0.000125074
-1.80639e-05
0.000132324
-6.88166e-05
6.38071e-05
-8.70492e-05
2.4763e-05
-0.000121234
-2.54544e-06
-8.58457e-05
-6.82257e-06
-4.17947e-06
9.07826e-06
4.85887e-05
1.63762e-05
8.33912e-06
2.54283e-05
1.41054e-05
3.13647e-05
5.35644e-06
2.22702e-05
1.46391e-05
1.88358e-05
4.825e-06
3.02699e-05
-1.3067e-05
3.53283e-05
-4.54925e-06
3.95362e-05
-1.03914e-05
4.11591e-05
-8.53622e-06
-1.36487e-06
4.59262e-05
1.34872e-05
0.00017988
1.04244e-05
0.000128388
9.84874e-06
8.64803e-05
8.14958e-05
8.75346e-05
7.77091e-05
7.82143e-05
8.85252e-05
1.85346e-05
0.000110491
-4.00293e-05
6.02308e-05
-1.85567e-05
1.50186e-05
-4.18369e-05
-3.46517e-05
-7.15636e-05
-6.144e-05
-5.90574e-05
-4.27249e-05
-2.28946e-05
-8.04683e-06
1.39106e-05
1.23315e-05
-1.20392e-05
1.4694e-05
1.17429e-05
1.5159e-05
4.89149e-06
1.69979e-05
1.28002e-05
2.87782e-05
-6.9553e-06
3.46342e-05
-1.8923e-05
3.12117e-05
-1.12673e-06
3.59173e-05
-1.50969e-05
3.78933e-05
-1.05122e-05
-5.16446e-06
4.16929e-05
1.43296e-05
0.00016555
1.64604e-05
0.000126257
2.04867e-05
8.24539e-05
3.76621e-05
7.03592e-05
8.56956e-05
3.01809e-05
8.9102e-05
1.51282e-05
7.49687e-05
-2.58961e-05
5.3455e-05
2.95702e-06
-1.86957e-06
1.34876e-05
-6.11747e-05
-1.22585e-05
-9.45739e-05
-2.56582e-05
-8.89991e-05
-2.84694e-05
-6.08537e-05
-1.42347e-05
-1.84584e-05
-5.44345e-05
7.26067e-06
-1.39762e-05
4.1186e-06
8.03356e-06
1.72348e-05
-3.16051e-07
3.03748e-05
-2.00952e-05
2.82953e-05
-1.68436e-05
4.27729e-05
-1.56044e-05
3.56012e-05
-7.92523e-06
3.93685e-05
-1.42795e-05
-6.56197e-06
4.0766e-05
7.48004e-06
0.00015807
1.241e-05
0.000121327
1.42495e-05
8.06144e-05
3.3876e-05
5.07328e-05
5.79974e-05
6.05946e-06
7.4595e-05
-1.4693e-06
4.26052e-05
6.0937e-06
-1.18675e-05
5.74297e-05
-5.73117e-05
5.89318e-05
-8.77454e-05
1.81752e-05
-0.000111246
-2.15723e-06
-0.000115205
-2.45105e-05
-9.84801e-05
-3.09599e-05
-5.9022e-05
-9.38926e-05
-2.21106e-06
-7.07871e-05
8.51054e-06
-2.68803e-06
3.01403e-05
-2.19458e-05
3.11234e-05
-2.10784e-05
3.36373e-05
-1.93574e-05
3.62815e-05
-1.82486e-05
3.2042e-05
-3.68579e-06
4.20488e-05
-2.42862e-05
-9.59948e-06
4.50863e-05
4.24449e-05
0.000115625
3.62609e-05
0.000127511
4.21972e-05
7.46781e-05
4.68503e-05
4.60797e-05
4.73544e-05
5.55536e-06
3.21886e-05
1.36965e-05
-4.91035e-06
4.31927e-05
-2.69959e-05
7.95153e-05
-0.000109786
0.000141722
-0.00014239
5.0779e-05
-0.000151772
7.22442e-06
-0.000131162
-4.51201e-05
-0.000109388
-5.27343e-05
-7.9522e-05
-0.000123758
-2.97149e-05
-0.000120594
-3.0899e-07
-3.20939e-05
1.50765e-05
-3.73313e-05
2.71738e-05
-3.31757e-05
2.58154e-05
-1.79989e-05
3.83939e-05
-3.08272e-05
4.40924e-05
-9.38426e-06
3.59095e-05
-1.61033e-05
-1.6331e-05
4.2641e-05
1.9265e-06
0.000113699
1.34825e-05
0.000115955
2.78591e-05
6.03016e-05
3.21689e-05
4.17699e-05
2.7057e-05
1.06673e-05
1.60225e-05
2.4731e-05
-1.37758e-05
7.2991e-05
-4.45279e-05
0.000110267
-4.30556e-05
0.00014025
-6.94096e-05
7.7133e-05
-7.88819e-05
1.66967e-05
-0.000105278
-1.87237e-05
-8.82743e-05
-6.97383e-05
-6.91761e-05
-0.000142857
-3.16783e-05
-0.000158092
-6.42741e-06
-5.73449e-05
8.47831e-06
-5.2237e-05
2.21045e-05
-4.68019e-05
2.83447e-05
-2.42391e-05
1.8028e-05
-2.05105e-05
2.75622e-05
-1.89185e-05
4.37634e-05
-3.23045e-05
-2.38509e-05
5.12833e-05
4.72816e-07
0.000113226
1.41125e-05
0.000102315
2.19242e-05
5.24899e-05
2.91775e-05
3.45166e-05
2.45589e-05
1.52859e-05
1.01364e-05
3.91534e-05
-1.17824e-05
9.49098e-05
-2.35256e-05
0.000122011
-2.93779e-05
0.000146102
-5.59444e-05
0.0001037
-0.000104728
6.54807e-05
-5.42807e-05
-6.91713e-05
-6.28788e-05
-6.11402e-05
-5.27858e-05
-0.00015295
-4.58214e-05
-0.000165056
7.67975e-06
-0.000110846
2.23229e-05
-6.68801e-05
2.18925e-05
-4.63715e-05
2.10688e-05
-2.34154e-05
4.46623e-05
-4.41041e-05
4.22045e-05
-1.64606e-05
2.92785e-05
-1.93785e-05
-3.99916e-05
4.54192e-05
-2.59753e-06
0.000115823
1.19905e-05
8.77273e-05
1.51669e-05
4.93135e-05
2.44966e-05
2.51869e-05
2.09233e-05
1.88591e-05
-1.12423e-06
6.1201e-05
-1.36966e-05
0.000107482
-2.75387e-05
0.000135853
6.9517e-06
0.000111612
3.58738e-05
7.47774e-05
-4.59738e-06
0.000105952
-2.19884e-05
-5.17803e-05
1.8483e-05
-0.000101612
2.14903e-06
-0.000136616
-4.8891e-06
-0.000158018
6.63524e-06
-0.00012237
-3.73008e-06
-5.65148e-05
3.34545e-06
-5.3447e-05
1.9095e-05
-3.9165e-05
1.86786e-05
-4.36876e-05
4.05668e-05
-3.83489e-05
5.62625e-05
-3.50742e-05
-4.49059e-05
6.11768e-05
-6.95859e-06
0.000122782
4.67416e-06
7.60945e-05
7.37997e-06
4.66077e-05
1.74407e-05
1.51262e-05
1.20074e-05
2.42924e-05
9.85052e-09
7.31985e-05
6.81729e-06
0.000100675
2.75623e-05
0.000115108
3.68963e-05
0.000102278
4.40735e-05
6.76002e-05
6.45275e-05
8.54979e-05
5.27627e-05
-4.00155e-05
3.9217e-05
-8.80659e-05
3.79807e-05
-0.000135379
-1.62487e-05
-0.000103789
-2.98776e-06
-0.000135631
3.00651e-05
-8.95676e-05
1.40081e-05
-3.739e-05
2.59827e-05
-5.11397e-05
3.38456e-05
-5.15505e-05
3.58182e-05
-4.03214e-05
4.6331e-05
-4.5587e-05
-5.05484e-05
5.19735e-05
-7.87108e-06
0.000130653
-1.33071e-07
6.83565e-05
1.61045e-06
4.48642e-05
7.6234e-06
9.11328e-06
1.97128e-06
2.99445e-05
-1.74167e-06
7.69114e-05
8.79118e-06
9.01419e-05
2.88199e-05
9.50789e-05
5.28235e-05
7.82743e-05
7.03009e-05
5.01229e-05
9.7451e-05
5.83477e-05
0.00010713
-4.96948e-05
9.25206e-05
-7.34563e-05
2.92759e-05
-7.21346e-05
5.66508e-05
-0.000131164
3.90614e-05
-0.000118042
2.62721e-05
-7.67783e-05
2.302e-05
-3.41379e-05
2.83465e-05
-5.64661e-05
2.25782e-05
-4.57822e-05
3.41753e-05
-5.19186e-05
1.92512e-05
-3.06629e-05
-5.95022e-05
2.8205e-05
-8.23222e-06
0.000138885
-1.72553e-06
6.18498e-05
4.08801e-06
3.90507e-05
2.18748e-06
1.10138e-05
-8.96311e-06
4.10951e-05
-6.7962e-06
7.47445e-05
8.66721e-06
7.46785e-05
3.04389e-05
7.33072e-05
7.10285e-05
3.76847e-05
6.64985e-05
5.46528e-05
0.000103082
2.17639e-05
7.69284e-05
-2.35408e-05
6.55805e-05
-6.21084e-05
9.45311e-05
-0.000101085
3.74411e-05
-7.40737e-05
2.07103e-05
-0.000101311
1.56241e-05
-7.16922e-05
3.81546e-05
-5.66684e-05
1.70155e-05
-3.53271e-05
2.866e-05
-5.74267e-05
1.19622e-05
-3.52209e-05
4.40917e-05
-6.27923e-05
-4.2224e-05
2.68134e-05
-1.07258e-05
0.000149611
-3.47127e-06
5.45953e-05
3.17028e-06
3.24091e-05
-8.21387e-06
2.2398e-05
-2.36588e-05
5.654e-05
-1.54137e-05
6.64994e-05
2.15399e-06
5.71108e-05
2.85289e-05
4.69324e-05
3.87397e-05
2.74739e-05
7.90186e-05
1.43739e-05
0.000104514
-3.73096e-06
8.46636e-05
-3.69087e-06
6.2827e-05
-4.02718e-05
6.1178e-05
-9.94362e-05
4.61719e-05
-5.90676e-05
2.41592e-05
-7.92984e-05
1.5429e-05
-6.2962e-05
1.29591e-05
-5.41985e-05
3.80388e-05
-6.04067e-05
1.89779e-05
-3.83659e-05
2.38392e-05
-4.00821e-05
2.84104e-05
-6.73635e-05
-3.87837e-05
2.49701e-05