/*--------------------------------*- C++ -*----------------------------------*\
| =========                 |                                                 |
| \\      /  F ield         | foam-extend: Open Source CFD                    |
|  \\    /   O peration     | Version:     4.1                                |
|   \\  /    A nd           | Web:         http://www.foam-extend.org         |
|    \\/     M anipulation  |                                                 |
\*---------------------------------------------------------------------------*/
FoamFile
{
    version     2.0;
    format      ascii;
    class       surfaceScalarField;
    location    "0.9";
    object      phi_0;
}
// * * * * * * * * * * * * * * * * * * * * * * * * * * * * * * * * * * * * * //

dimensions      [0 3 -1 0 0 0 0];

internalField   nonuniform List<scalar> 
4432
(
-8.00397e-07
8.00397e-07
-1.25183e-06
4.51436e-07
-5.53617e-07
-6.98216e-07
3.81254e-07
-9.3487e-07
6.67294e-07
-2.8604e-07
8.10023e-07
-1.4273e-07
1.1188e-06
-3.08777e-07
1.74773e-06
-6.28926e-07
2.3814e-06
-6.3367e-07
5.002e-06
-2.6206e-06
7.75054e-06
-2.74854e-06
1.4908e-05
-7.15743e-06
1.68632e-05
-1.9552e-06
2.00623e-05
-3.19918e-06
2.2033e-05
-1.97069e-06
2.34981e-05
-1.46505e-06
2.3409e-05
8.90711e-08
2.22215e-05
1.18752e-06
1.11762e-05
1.10453e-05
1.6513e-05
-5.33679e-06
1.07673e-05
5.74567e-06
6.66806e-06
4.09922e-06
6.66806e-06
8.02443e-07
-2.04626e-09
2.43409e-07
1.01047e-06
1.74618e-07
-6.29426e-07
2.89e-07
-1.04925e-06
7.56836e-07
-7.53875e-07
9.90748e-07
-3.76642e-07
1.53467e-06
-8.52696e-07
2.79152e-06
-1.88578e-06
7.00214e-06
-4.8443e-06
1.03607e-05
-5.97915e-06
1.44435e-05
-6.83136e-06
1.48235e-05
-7.53742e-06
1.62105e-05
-3.34214e-06
1.86706e-05
-5.65937e-06
2.15153e-05
-4.8153e-06
2.29444e-05
-2.89425e-06
2.32466e-05
-2.13126e-07
2.23701e-05
2.06408e-06
2.22055e-05
1.12099e-05
9.71922e-06
7.14946e-06
9.86728e-06
5.59761e-06
6.78541e-06
7.18109e-06
1.34535e-05
4.53586e-07
-4.55632e-07
3.72658e-07
1.0914e-06
2.71951e-07
-5.28719e-07
6.11576e-07
-1.38888e-06
9.73699e-07
-1.116e-06
2.45489e-06
-1.85783e-06
3.01164e-06
-1.40944e-06
3.51611e-06
-2.39025e-06
2.8178e-06
-4.14598e-06
5.25017e-06
-8.41152e-06
6.44427e-06
-8.02547e-06
1.01338e-05
-1.12269e-05
1.11827e-05
-4.39109e-06
1.44519e-05
-8.92858e-06
1.6351e-05
-6.71442e-06
1.06995e-05
2.75729e-06
1.20038e-05
-1.51741e-06
2.16242e-05
-7.55634e-06
1.81813e-05
1.46528e-05
1.66429e-05
8.68793e-06
1.23796e-05
9.86091e-06
6.90274e-06
1.26579e-05
2.03562e-05
8.64931e-09
-4.64281e-07
-7.13838e-08
1.17143e-06
3.90983e-07
-9.91086e-07
1.20702e-06
-2.20492e-06
9.73545e-07
-8.82521e-07
1.0209e-06
-1.90519e-06
1.02288e-06
-1.41143e-06
3.22457e-06
-4.59193e-06
4.67556e-06
-5.59697e-06
2.55821e-06
-6.29418e-06
5.42087e-06
-1.08881e-05
3.82181e-06
-9.62785e-06
8.36587e-06
-8.93514e-06
1.27426e-05
-1.33053e-05
8.23807e-06
-2.20986e-06
1.40554e-05
-3.06e-06
1.51569e-05
-2.61899e-06
9.13225e-06
-1.53165e-06
1.63643e-05
7.42078e-06
1.56543e-05
9.39795e-06
1.02503e-05
1.52648e-05
4.13889e-06
1.87693e-05
2.44951e-05
-3.54639e-07
-1.09642e-07
5.64048e-08
7.60388e-07
4.28487e-07
-1.36317e-06
5.36951e-07
-2.31338e-06
1.1189e-06
-1.46447e-06
6.81361e-07
-1.46765e-06
1.06698e-06
-1.79705e-06
2.01096e-07
-3.72605e-06
1.20141e-06
-6.59728e-06
2.66613e-06
-7.7589e-06
1.20262e-06
-9.42461e-06
4.49405e-06
-1.29193e-05
8.61527e-06
-1.30564e-05
6.63762e-06
-1.13277e-05
1.41372e-05
-9.70949e-06
1.41235e-05
-3.04623e-06
1.47327e-05
-3.22824e-06
7.48899e-06
5.71208e-06
1.20495e-05
2.86028e-06
7.70842e-06
1.3739e-05
1.02654e-05
1.27079e-05
1.10546e-06
2.79293e-05
2.56006e-05
-4.15346e-07
3.05704e-07
-3.53028e-07
6.9807e-07
5.33251e-07
-2.24945e-06
2.22127e-06
-4.0014e-06
1.19186e-06
-4.35051e-07
2.2634e-07
-5.02134e-07
-1.19048e-06
-3.80232e-07
-1.44691e-06
-3.46962e-06
-2.71353e-06
-5.33066e-06
-2.96044e-06
-7.51199e-06
-1.18708e-06
-1.1198e-05
1.78138e-06
-1.58877e-05
4.61954e-06
-1.58945e-05
1.53761e-05
-2.20843e-05
1.87413e-05
-1.30747e-05
1.75832e-05
-1.88805e-06
9.30315e-06
5.05178e-06
1.61875e-05
-1.17227e-06
5.73616e-06
1.33116e-05
5.65354e-06
1.38216e-05
9.99818e-06
8.36323e-06
8.75007e-06
2.91774e-05
3.43506e-05
-6.47355e-07
9.53059e-07
-1.81813e-06
1.86884e-06
-1.98116e-06
-2.08641e-06
-2.46722e-06
-3.51534e-06
-3.6773e-06
7.75025e-07
-5.24177e-06
1.06233e-06
-6.01374e-06
3.91739e-07
-5.87087e-06
-3.61249e-06
-4.43205e-06
-6.76948e-06
-2.49997e-06
-9.44407e-06
-4.59483e-07
-1.32385e-05
1.88698e-06
-1.82342e-05
9.53719e-06
-2.35447e-05
8.56319e-06
-2.11103e-05
1.95089e-05
-2.40204e-05
1.94099e-05
-1.78912e-06
2.03615e-05
4.10015e-06
1.13131e-05
7.87618e-06
1.51932e-05
9.43147e-06
7.12749e-06
2.18874e-05
6.77612e-06
8.71459e-06
1.05934e-05
2.53601e-05
4.4944e-05
-1.24925e-06
2.20231e-06
-2.94967e-06
3.56926e-06
-6.37941e-06
1.34332e-06
-6.14713e-06
-3.74762e-06
-7.31177e-06
1.93966e-06
-8.12367e-06
1.87423e-06
-8.19666e-06
4.64734e-07
-5.92275e-06
-5.8864e-06
-2.29695e-06
-1.03953e-05
-7.37671e-07
-1.10033e-05
2.9168e-07
-1.42678e-05
8.38355e-07
-1.87809e-05
1.07256e-06
-2.37789e-05
1.13884e-05
-3.14261e-05
1.15054e-05
-2.41374e-05
2.49772e-05
-1.52609e-05
2.71227e-05
1.95463e-06
1.6828e-05
1.81708e-05
2.53417e-05
9.1775e-07
1.60198e-05
3.12094e-05
1.75635e-05
7.17082e-06
1.95003e-05
2.34233e-05
6.44443e-05
-8.50369e-05
8.50373e-05
-0.00017359
8.85534e-05
-0.000191304
1.77136e-05
-0.000195167
3.86363e-06
-0.000179245
-1.59223e-05
-0.000161838
-1.74076e-05
-0.000141985
-1.9853e-05
-0.000128858
-1.3127e-05
-0.000111101
-1.77564e-05
-9.38745e-05
-1.72267e-05
-8.02361e-05
-1.36383e-05
-6.74693e-05
-1.27669e-05
-5.39251e-05
-1.35442e-05
-4.54012e-05
-8.5239e-06
-2.04467e-05
-2.49545e-05
-1.72141e-05
-3.23266e-06
-2.77162e-05
1.05021e-05
-1.66085e-05
-1.11076e-05
-1.66085e-05
-7.29755e-05
0.000158013
-0.000134395
0.000149973
-0.000138174
2.14918e-05
-0.000134688
3.7783e-07
-0.000115628
-3.49819e-05
-0.000101339
-3.16962e-05
-9.25789e-05
-2.86136e-05
-8.48255e-05
-2.08803e-05
-6.7876e-05
-3.47059e-05
-5.30276e-05
-3.20751e-05
-4.43587e-05
-2.23072e-05
-3.70597e-05
-2.00659e-05
-1.59442e-05
-3.46597e-05
-1.03322e-05
-1.41359e-05
-9.69759e-06
-2.5589e-05
-1.4568e-05
1.63772e-06
-1.20579e-05
7.99203e-06
-1.25716e-05
-1.0594e-05
-2.91801e-05
-5.71752e-05
0.000215188
-9.59264e-05
0.000188724
-9.04803e-05
1.60455e-05
-5.34483e-05
-3.66542e-05
-8.04419e-05
-7.98826e-06
-5.74901e-05
-5.4648e-05
-4.78559e-05
-3.82478e-05
-4.43603e-05
-2.43759e-05
-3.38145e-05
-4.52518e-05
-2.15014e-05
-4.43882e-05
-1.53446e-05
-2.8464e-05
-6.51774e-06
-2.88927e-05
-4.70879e-06
-3.64687e-05
-7.86026e-07
-1.80587e-05
-2.16656e-06
-2.42085e-05
-6.62107e-06
6.09223e-06
-6.49071e-06
7.86167e-06
-2.51623e-06
-1.45684e-05
-3.16963e-05
-4.26474e-05
0.000257836
-6.67103e-05
0.000212787
-6.32452e-05
1.25804e-05
-7.60559e-05
-2.38436e-05
-6.29966e-05
-2.10475e-05
-3.89843e-05
-7.86603e-05
-1.31716e-05
-6.40605e-05
-1.74125e-05
-2.0135e-05
-8.09214e-06
-5.45722e-05
-4.69084e-06
-4.77895e-05
1.20726e-06
-3.43621e-05
7.83329e-06
-3.55187e-05
7.59309e-06
-3.62285e-05
2.11345e-05
-3.16001e-05
2.65519e-05
-2.96259e-05
2.71648e-05
5.4793e-06
1.16398e-05
2.33867e-05
2.80209e-06
-5.73075e-06
-2.88942e-05
-3.09054e-05
0.000288741
-4.69039e-05
0.000228785
-4.97219e-05
1.53983e-05
-5.3872e-05
-1.96935e-05
-2.90327e-05
-4.58868e-05
-6.21693e-06
-0.000101476
-7.07347e-06
-6.3204e-05
-2.78781e-06
-2.44206e-05
9.3102e-06
-6.66701e-05
1.84232e-05
-5.69025e-05
1.50948e-05
-3.10337e-05
9.62498e-06
-3.0049e-05
1.53077e-05
-4.19112e-05
2.99585e-05
-4.62509e-05
3.09898e-05
-3.06573e-05
1.75095e-05
1.89596e-05
2.84534e-05
1.24428e-05
1.06999e-05
1.20227e-05
-1.81943e-05
-2.23724e-05
0.000311113
-3.33188e-05
0.000239732
-4.26323e-05
2.47118e-05
-4.09472e-05
-2.13786e-05
-2.00699e-06
-8.48271e-05
1.31503e-05
-0.000116633
1.91636e-05
-6.92172e-05
2.43673e-05
-2.96243e-05
2.99953e-05
-7.22982e-05
3.09349e-05
-5.7842e-05
2.8356e-05
-2.84547e-05
2.70025e-05
-2.86955e-05
1.68935e-05
-3.18022e-05
1.85242e-05
-4.78815e-05
3.37475e-05
-4.58806e-05
3.35103e-05
1.91968e-05
3.37364e-05
1.22168e-05
1.32442e-05
3.25149e-05
-4.95013e-06
-1.20873e-05
0.000323201
-1.2847e-05
0.000240491
-1.5928e-05
2.7793e-05
-3.47954e-06
-3.3827e-05
1.30781e-05
-0.000101385
2.56587e-05
-0.000129214
3.18046e-05
-7.53631e-05
5.34119e-05
-5.12317e-05
5.15636e-05
-7.04499e-05
5.05897e-05
-5.68682e-05
4.16175e-05
-1.94824e-05
3.44009e-05
-2.1479e-05
3.63025e-05
-3.37038e-05
1.99238e-05
-3.15029e-05
2.06335e-05
-4.65902e-05
3.72721e-05
2.55813e-06
3.65821e-05
1.29068e-05
2.7056e-05
4.2041e-05
2.21059e-05
-4.58303e-06
0.000327784
8.24392e-06
0.000227664
7.65313e-06
2.83837e-05
2.48586e-05
-5.10325e-05
2.82865e-05
-0.000104813
3.32945e-05
-0.000134222
3.48725e-05
-7.69411e-05
6.03052e-05
-7.66644e-05
5.88962e-05
-6.90409e-05
3.31597e-05
-3.11317e-05
2.57046e-05
-1.20273e-05
3.79751e-05
-3.37494e-05
3.85394e-05
-3.42681e-05
3.80758e-05
-3.10393e-05
4.01482e-05
-4.86627e-05
4.20116e-05
6.94699e-07
2.08337e-05
3.40847e-05
2.87413e-05
3.41334e-05
5.08472e-05
-2.9303e-06
5.13261e-06
-6.30073e-06
6.9397e-06
-9.09813e-06
4.14072e-06
-1.61558e-05
3.31006e-06
-1.66538e-05
2.43761e-06
-1.90815e-05
4.30197e-06
-1.93782e-05
7.61458e-07
-1.82199e-05
-7.04475e-06
-1.49059e-05
-1.37092e-05
-1.1011e-05
-1.48983e-05
-5.90661e-06
-1.93722e-05
-3.33136e-07
-2.43543e-05
4.2607e-06
-2.83728e-05
1.79726e-06
-2.89627e-05
1.84756e-05
-4.08158e-05
4.8696e-05
-4.54813e-05
5.94458e-05
-8.79508e-06
6.6613e-05
1.10036e-05
3.86581e-05
2.88726e-05
6.00783e-05
9.78915e-06
3.43781e-05
3.2871e-05
3.59504e-05
2.1851e-05
3.34593e-05
6.69355e-05
-2.22671e-06
7.35932e-06
-3.30858e-06
8.02157e-06
-2.12172e-06
2.95387e-06
-1.63246e-06
2.82079e-06
-8.03275e-06
8.8379e-06
-1.63071e-05
1.25763e-05
-2.42879e-05
8.74228e-06
-2.94422e-05
-1.89046e-06
-4.03651e-05
-2.78632e-06
-5.06724e-05
-4.591e-06
-7.1698e-05
1.65341e-06
-7.78592e-05
-1.81931e-05
-6.01935e-05
-4.60384e-05
-3.75902e-05
-5.1566e-05
-2.30419e-05
-5.5364e-05
-1.54365e-05
-5.30867e-05
2.13513e-05
-4.55829e-05
3.27836e-05
-4.2867e-07
5.18941e-05
9.76216e-06
3.44754e-05
2.72079e-05
5.95914e-05
7.755e-06
7.40894e-05
7.35303e-06
1.61496e-05
9.13991e-05
2.01875e-06
5.34057e-06
4.63701e-06
5.4033e-06
3.82068e-06
3.7702e-06
-6.63483e-08
6.70782e-06
-1.81982e-06
1.05914e-05
-9.43934e-06
2.01958e-05
-1.63695e-05
1.56725e-05
-3.49841e-05
1.67241e-05
-4.79098e-05
1.01395e-05
-7.39757e-05
2.14749e-05
-6.79986e-05
-4.32368e-06
-0.000103231
1.70394e-05
-0.000102321
-4.69486e-05
-0.000113907
-3.99801e-05
-0.000114521
-5.47497e-05
-0.000110532
-5.70755e-05
-8.76174e-05
-6.84979e-05
-5.29927e-05
-3.50533e-05
-2.87991e-05
-1.44315e-05
-2.2371e-06
6.4587e-07
2.10678e-05
-1.55499e-05
3.36956e-05
-5.27471e-06
1.25155e-05
3.73296e-05
9.4253e-06
-4.08473e-06
1.95722e-05
-4.74358e-06
3.20412e-05
-8.69883e-06
4.14696e-05
-2.72061e-06
2.03886e-05
3.16724e-05
-3.02979e-07
4.08874e-05
-1.59323e-05
3.13018e-05
-6.58223e-05
6.66141e-05
-8.76641e-05
3.19812e-05
-9.19839e-05
2.57946e-05
-0.000103518
7.21025e-06
-8.01837e-05
-6.29476e-06
-0.000120464
-6.66838e-06
-0.000114456
-4.59875e-05
-0.000140668
-2.85384e-05
-0.000157307
-4.04364e-05
-0.000152199
-7.36062e-05
-0.00014561
-4.16415e-05
-0.000136631
-2.34109e-05
-0.000113579
-2.2406e-05
-9.96201e-05
-2.9509e-05
-0.000105692
7.97559e-07
1.64454e-05
-0.000109622
1.65837e-05
-2.06684e-05
5.28272e-05
-4.09871e-05
6.65698e-05
-2.24414e-05
8.6899e-05
-2.30498e-05
8.95058e-05
2.90656e-05
3.83609e-05
9.20323e-05
-2.07341e-05
9.03968e-05
-4.55413e-05
9.14213e-05
-6.0578e-05
4.70179e-05
-6.7607e-05
3.28237e-05
-6.81715e-05
7.77471e-06
-7.51877e-05
7.21442e-07
-8.54026e-05
3.5465e-06
-0.000113772
-1.76182e-05
-9.38199e-05
-4.84903e-05
-9.37863e-05
-4.047e-05
-0.000148007
-1.93859e-05
-0.000155002
-3.46465e-05
-0.000166607
-1.1806e-05
-0.000177476
-1.15368e-05
-0.000179929
-2.70556e-05
-0.000184062
4.93054e-06
2.30391e-05
-0.000190656
3.09153e-05
-5.15837e-05
6.09602e-05
-7.1032e-05
9.11236e-05
-5.26048e-05
6.28647e-05
5.20906e-06
4.00165e-05
5.19139e-05
2.14131e-05
0.000110636
-1.33243e-05
0.000125134
-3.29894e-05
0.000111086
-7.02547e-05
8.42832e-05
-9.85847e-05
6.11537e-05
-0.000115677
2.48669e-05
-0.000140294
2.53386e-05
-0.00015582
1.90722e-05
-0.000182106
8.66839e-06
-0.000217314
-1.32829e-05
-0.00023104
-2.6744e-05
-0.000229401
-2.10244e-05
-0.000234824
-2.92235e-05
-0.000165863
-8.07666e-05
-0.000149042
-2.83588e-05
-0.00018012
4.02315e-06
-0.00018129
6.1004e-06
3.06405e-05
-0.000188891
2.47611e-05
-7.63448e-05
4.35208e-06
-5.0623e-05
-3.00566e-06
-4.5247e-05
-1.08057e-05
1.30091e-05
-2.13646e-05
6.24727e-05
-3.81304e-05
0.000127402
-5.10436e-05
0.000138047
-7.22904e-05
0.000132333
-0.000103822
0.000115815
-0.000138136
9.54677e-05
-0.000173222
5.99532e-05
-0.000219689
7.18055e-05
-0.000236159
3.55415e-05
-0.000245591
1.81006e-05
-0.000249784
-9.08939e-06
-0.000251285
-2.52432e-05
-0.000259214
-1.3096e-05
-0.00025992
-2.85171e-05
-0.000267187
-7.34998e-05
-0.000273944
-2.16021e-05
-0.000258165
-1.17558e-05
-0.000237849
-1.42155e-05
-1.85112e-06
-0.000205357
-2.87321e-05
-4.76127e-05
-3.83886e-05
-4.09665e-05
-8.80349e-05
4.39928e-06
-0.000107478
3.24526e-05
-0.000122373
7.73669e-05
-0.0001211
0.000126129
-0.000121012
0.00013796
-0.000130922
0.000142243
-0.00015054
0.000135433
-0.000170404
0.000115332
-0.000212217
0.000101766
-0.000227665
8.7253e-05
-0.000227951
3.58274e-05
-0.000224146
1.42958e-05
-0.000227433
-5.8021e-06
-0.000236799
-1.58772e-05
-0.0001724
-7.74952e-05
-0.000161083
-3.98341e-05
-0.000223127
-1.14554e-05
-0.000214495
-3.02341e-05
-0.000212565
-1.36867e-05
-0.00021361
-1.31702e-05
-2.23287e-05
-0.000193132
-4.6684e-05
-9.28719e-07
-0.000104293
1.66424e-05
-0.00015142
5.15266e-05
-0.000171941
5.29739e-05
-0.00017271
7.81357e-05
-0.000169644
0.000123063
-0.000166962
0.000135278
-0.000171686
0.000146967
-0.000181026
0.000144773
-0.000184379
0.000118685
-0.000193859
0.000111245
-0.000195911
8.9305e-05
-0.000206329
4.62456e-05
-0.000201025
8.99169e-06
-0.000195308
-1.15193e-05
-0.000183426
-2.77587e-05
-0.000216763
-4.41578e-05
-0.00022772
-2.88773e-05
-0.000220479
-1.86965e-05
-0.000227818
-2.28953e-05
-0.000153239
-8.82661e-05
-0.000132576
-3.38326e-05
-2.10179e-06
-0.000152803
-8.0759e-05
7.98303e-05
-0.00012939
6.52738e-05
-0.000167243
8.93796e-05
-0.000204867
9.05977e-05
-0.000195259
6.85277e-05
-0.000199206
0.00012701
-0.000194635
0.000130706
-0.000198775
0.000151108
-0.000201961
0.000147959
-0.000168946
8.5669e-05
-0.000171479
0.000113779
-0.00016792
8.57461e-05
-0.000153752
3.2078e-05
-0.000143702
-1.05869e-06
-0.000141158
-1.40633e-05
-0.000140942
-2.7975e-05
-0.000139637
-4.54628e-05
-0.000130512
-3.8002e-05
-0.000120507
-2.87014e-05
-0.000110294
-3.31081e-05
-0.000143459
-5.51019e-05
-0.000151428
-2.58629e-05
-2.77268e-05
-0.000125803
-5.88756e-05
0.000138706
-8.68254e-05
9.32237e-05
-8.85588e-05
9.1113e-05
-0.000111057
0.000113096
-0.000204204
0.000161674
-0.000203732
0.000126539
-0.00019499
0.000121963
-0.000116992
7.31103e-05
-0.000108807
0.000139774
-0.000177326
0.000154188
-0.00015505
9.15022e-05
-0.000115682
4.63781e-05
-8.96395e-05
6.0355e-06
-6.49768e-05
-2.57214e-05
-5.22946e-05
-2.67455e-05
-5.70708e-05
-2.31988e-05
-7.30593e-05
-2.94742e-05
-8.77368e-05
-2.33245e-05
-8.32055e-05
-3.32328e-05
-7.47662e-05
-4.15473e-05
-7.80807e-05
-5.17874e-05
-7.37797e-05
-3.01638e-05
-4.61684e-05
-5.53381e-05
-2.73823e-05
0.000166088
-0.000108759
0.0001746
-0.000143135
0.000125489
-0.000164278
0.000134239
-0.000126251
0.000123647
-0.000120017
0.000120306
-0.000155649
0.000157595
-0.000187359
0.00010482
-0.000172757
0.000125172
-0.000142544
0.000123976
-9.34212e-05
4.23794e-05
-7.57946e-05
2.87515e-05
-5.49728e-05
-1.47863e-05
-2.51943e-05
-5.54998e-05
-1.98965e-05
-3.20433e-05
-3.5843e-05
-7.25234e-06
-5.43624e-05
-1.09548e-05
-6.36756e-05
-1.40112e-05
-6.74427e-05
-2.94657e-05
-6.64876e-05
-4.25024e-05
-6.74006e-05
-5.08744e-05
-6.42759e-05
-3.32885e-05
-5.51642e-05
-5.52801e-05
-3.7716e-05
0.000203804
-5.43573e-05
0.000191241
-0.000103945
0.000175077
-0.000120929
0.000151223
-0.000108862
0.00011158
-0.000148224
0.000159667
-0.000135085
0.000144456
-7.80207e-05
4.77559e-05
-8.89623e-05
0.000136113
-2.65881e-05
6.16014e-05
2.2239e-06
1.35674e-05
2.44573e-05
6.51812e-06
1.87043e-05
-9.03324e-06
1.11378e-06
-3.79093e-05
-1.04817e-05
-2.04479e-05
-2.00447e-05
2.31061e-06
-2.04111e-05
-1.05884e-05
-2.25483e-05
-1.1874e-05
-2.15775e-05
-3.04365e-05
-2.62115e-05
-3.78684e-05
-3.28809e-05
-4.42051e-05
-2.46587e-05
-4.15107e-05
-5.04924e-05
-2.93306e-05
-2.58967e-05
0.000229701
-3.89215e-05
0.000204266
-5.31387e-05
0.000189294
-6.38575e-05
0.000161942
-0.000107568
0.00015529
-5.36862e-05
0.000105786
-1.51266e-05
0.000105897
-1.02543e-05
4.28836e-05
2.62972e-05
9.95617e-05
8.77735e-05
1.25121e-07
0.000115986
-1.46454e-05
0.000121363
1.14164e-06
8.98717e-05
2.24579e-05
3.796e-05
1.40025e-05
-6.03328e-06
2.35454e-05
-2.66176e-05
2.28949e-05
-3.78583e-05
6.52361e-07
-3.19103e-05
-1.78221e-05
-1.78946e-05
-4.44522e-05
-9.51369e-06
-4.62493e-05
-1.1847e-05
-4.18718e-05
-1.44605e-05
-3.88972e-05
-5.2151e-05
-1.28018e-05
-2.00449e-05
0.000249746
-3.48854e-05
0.000219107
-3.77349e-05
0.000192144
-2.61462e-05
0.000150353
-1.67837e-05
0.000145928
-3.51076e-05
0.00012411
3.33415e-05
3.74473e-05
2.47893e-05
5.14357e-05
7.35706e-05
5.07805e-05
7.61221e-05
-2.42641e-06
0.000126328
-6.48517e-05
0.000112044
1.54258e-05
0.000124351
1.01512e-05
0.000105844
3.25091e-05
0.000107813
2.15769e-05
0.000115959
1.47486e-05
0.000106969
9.64273e-06
9.59883e-05
-6.84167e-06
7.6738e-05
-2.52019e-05
6.39973e-05
-3.35086e-05
3.09794e-05
-8.85394e-06
2.95569e-05
-3.74747e-05
-4.67292e-05
2.41351e-05
-1.70916e-05
0.000266837
-2.75879e-05
0.000229603
-3.74083e-05
0.000201964
-2.24434e-05
0.000135388
-8.7412e-06
0.000132226
3.6288e-05
7.90805e-05
4.15656e-05
3.21697e-05
8.34085e-05
9.59284e-06
0.00010113
3.30589e-05
0.000105345
-6.64124e-06
7.44299e-05
-3.39367e-05
0.000115438
-2.55827e-05
0.000123047
2.54252e-06
0.000114357
4.11987e-05
0.000111957
2.39772e-05
8.83096e-05
3.83961e-05
9.17362e-05
6.21605e-06
0.000111937
-2.70426e-05
9.58174e-05
-9.08207e-06
6.41137e-05
-1.8049e-06
8.83101e-05
-3.30503e-05
8.33602e-05
-3.25248e-05
-2.62373e-05
6.28683e-05
-1.43479e-05
0.000281185
-2.39764e-05
0.000239232
-3.37027e-05
0.000211691
1.46754e-06
0.000100218
5.97238e-06
0.000127721
2.16433e-05
6.34096e-05
5.61e-05
-2.28699e-06
7.47209e-05
-9.02808e-06
7.92603e-05
2.85196e-05
7.41059e-05
-1.4869e-06
7.42325e-05
-3.40633e-05
7.7936e-05
-2.92862e-05
7.68343e-05
3.64423e-06
0.000106155
1.18779e-05
0.000115508
1.46247e-05
0.000125332
2.8572e-05
0.000119339
1.22093e-05
8.13086e-05
1.09873e-05
0.000105863
-3.36369e-05
9.32851e-05
1.07735e-05
8.39381e-05
-2.37033e-05
6.03732e-05
-8.95987e-06
-2.40162e-05
5.81521e-05
-6.8336e-06
0.000288019
-1.56917e-05
0.00024809
-1.52311e-05
0.00021123
-2.07357e-05
0.000105723
-9.39033e-06
0.000116375
1.81689e-06
5.22024e-05
2.92146e-05
-2.96847e-05
4.02365e-05
-2.00499e-05
7.17984e-05
-3.04227e-06
7.52357e-05
-4.92424e-06
3.6473e-05
4.69939e-06
3.37671e-05
-2.65803e-05
5.37538e-05
-1.63425e-05
6.84517e-05
-2.8199e-06
8.86575e-05
-5.58112e-06
0.000107541
9.68803e-06
0.000103684
1.60663e-05
0.000108055
6.6163e-06
7.4804e-05
-3.85466e-07
0.000100393
-1.4816e-05
9.22787e-05
-1.55886e-05
0.000104816
-2.14971e-05
-2.11179e-05
0.000101917
-3.14619e-07
0.000288333
-9.38801e-06
0.000257163
-6.66297e-06
0.000208505
-6.07965e-05
0.000159856
-2.67307e-05
8.23096e-05
4.39868e-06
2.1073e-05
1.08524e-05
-3.61385e-05
2.5311e-05
-3.45085e-05
7.94169e-05
-5.71482e-05
0.000113618
-3.91254e-05
0.000103676
1.46412e-05
7.30895e-05
4.00644e-06
6.02617e-05
-3.51465e-06
6.17499e-05
-4.30808e-06
5.55463e-05
6.22427e-07
6.45213e-05
7.13054e-07
9.12384e-05
-1.06508e-05
9.78643e-05
-9.56353e-09
0.000103032
-5.55277e-06
9.38205e-05
-5.60482e-06
8.4062e-05
-5.83014e-06
8.37329e-05
-2.1168e-05
-2.31215e-05
8.57365e-05
5.45374e-06
0.000282879
6.00225e-06
0.000256614
1.76993e-05
0.000196808
-9.82392e-06
0.000187379
-2.95091e-05
0.000101995
-2.88963e-05
2.04602e-05
-6.3807e-06
-5.86541e-05
1.67573e-05
-5.76465e-05
5.55361e-05
-9.59269e-05
5.7404e-05
-4.09933e-05
0.000109538
-3.74928e-05
9.02935e-05
2.32509e-05
6.15434e-05
2.52355e-05
4.65505e-05
1.06848e-05
4.94731e-05
-2.30018e-06
6.36681e-05
-1.3482e-05
7.71868e-05
-2.41695e-05
8.52324e-05
-8.05513e-06
9.63211e-05
-1.66414e-05
9.03728e-05
3.43415e-07
9.05869e-05
-6.04421e-06
8.87464e-05
-1.93275e-05
-1.76221e-05
8.32471e-05
4.88681e-06
0.000277993
5.47128e-06
0.00025603
6.6875e-05
0.000135404
3.84134e-05
0.000215841
1.67534e-06
0.000138733
-2.2977e-05
4.51125e-05
-1.29769e-05
-6.86542e-05
4.70013e-05
-0.000117625
6.69895e-05
-0.000115915
8.42961e-05
-5.82999e-05
9.63135e-05
-4.95102e-05
0.000104348
1.52161e-05
0.000102056
2.75273e-05
7.5491e-05
3.72503e-05
5.86973e-05
1.44935e-05
7.65659e-05
-3.13505e-05
8.10095e-05
-2.86132e-05
9.33868e-05
-2.04324e-05
6.58987e-05
1.08466e-05
7.65976e-05
-1.03555e-05
6.95121e-05
1.04131e-06
4.85627e-05
1.62191e-06
-2.05268e-05
5.14674e-05
1.75961e-05
0.000260397
3.79134e-05
0.000235712
4.31942e-05
0.000130123
5.182e-05
0.000207215
3.57893e-05
0.000154763
3.28921e-05
4.80096e-05
3.43829e-05
-7.0145e-05
2.13084e-05
-0.00010455
2.2738e-05
-0.000117345
7.77409e-05
-0.000113303
0.000122751
-9.452e-05
0.0001395
-1.53332e-06
0.000113626
5.34018e-05
9.7294e-05
5.35819e-05
9.20434e-05
1.9744e-05
8.94554e-05
-2.87625e-05
8.96552e-05
-2.88129e-05
9.12556e-05
-2.20329e-05
8.97997e-05
1.23025e-05
8.42912e-05
-4.84695e-06
8.44459e-05
8.8658e-07
8.34148e-05
2.65302e-06
-2.01172e-05
8.30051e-05
1.5625e-05
0.000244772
4.61217e-05
0.000205216
4.90505e-05
0.000127195
6.40921e-05
0.000192173
5.9153e-05
0.000159703
6.40633e-05
4.30993e-05
2.50517e-05
-3.11333e-05
2.08048e-05
-0.000100303
4.85158e-05
-0.000145056
5.8913e-05
-0.0001237
8.60852e-05
-0.000121692
0.000106853
-2.23012e-05
0.000108847
5.14078e-05
0.000124255
3.81742e-05
0.000122735
2.12634e-05
7.70659e-05
1.6907e-05
6.47192e-05
-1.64663e-05
5.04396e-05
-7.7533e-06
7.08309e-05
-8.08877e-06
6.80314e-05
-2.04749e-06
7.00032e-05
-1.08525e-06
7.47497e-05
-2.09349e-06
-5.795e-06
6.04276e-05
4.86006e-06
0.000239911
6.58704e-05
0.000144205
5.75586e-05
0.000135506
5.20369e-05
0.000197695
7.0715e-05
0.000141024
7.14017e-05
4.24126e-05
7.80478e-05
-3.77794e-05
3.86581e-05
-6.09136e-05
4.76503e-05
-0.000154048
8.35322e-05
-0.000159582
9.07907e-05
-0.000128951
8.30245e-05
-1.4535e-05
0.000104598
2.98344e-05
9.70008e-05
4.57714e-05
0.000105405
1.2859e-05
0.0001112
1.11119e-05
9.65014e-05
-1.76741e-06
8.19811e-05
6.76694e-06
7.67327e-05
-2.8403e-06
7.73842e-05
-2.69904e-06
7.56978e-05
6.01202e-07
7.64269e-05
-2.82265e-06
1.28583e-05
5.77736e-05
2.48295e-05
0.000215082
3.91414e-05
0.000129894
7.04396e-05
0.000104208
8.09247e-05
0.00018721
9.76719e-05
0.000124277
9.61587e-05
4.39257e-05
8.38236e-05
-2.54444e-05
8.46474e-05
-6.17374e-05
8.56607e-05
-0.000155061
8.3994e-05
-0.000157915
6.46678e-05
-0.000109624
5.57536e-05
-5.62083e-06
1.94428e-05
6.61452e-05
4.84571e-05
1.67572e-05
3.76993e-05
2.36168e-05
3.74474e-05
1.13639e-05
3.05658e-05
5.11415e-06
3.64886e-05
8.44219e-07
3.63295e-05
-2.68124e-06
3.37833e-05
-1.52874e-07
4.13142e-05
-6.92971e-06
4.61329e-05
-7.6414e-06
2.89869e-06
5.60926e-05
2.05999e-05
0.000194482
2.37936e-05
0.0001267
4.13769e-05
8.66249e-05
6.83516e-05
0.000160235
0.00011813
7.44995e-05
0.000133582
2.84731e-05
0.00012597
-1.78326e-05
0.000132721
-6.84876e-05
6.45002e-05
-8.68409e-05
2.5765e-05
-0.00011918
-1.36724e-06
-8.24922e-05
-5.17408e-06
-1.81399e-06
1.01863e-05
5.07847e-05
1.70429e-05
9.90063e-06
2.61592e-05
1.45004e-05
3.22247e-05
5.29845e-06
2.30461e-05
1.42927e-05
1.94412e-05
4.4491e-06
3.06081e-05
-1.38481e-05
3.57959e-05
-5.34073e-06
3.97648e-05
-1.08985e-05
4.11773e-05
-9.05397e-06
-2.03176e-06
4.61078e-05
1.30857e-05
0.000181396
1.00942e-05
0.000129692
9.6053e-06
8.71137e-05
8.18151e-05
8.80256e-05
7.82089e-05
7.81057e-05
8.8715e-05
1.7967e-05
0.000110051
-3.91685e-05
5.94217e-05
-1.78585e-05
1.40049e-05
-4.14241e-05
-3.54675e-05
-6.97077e-05
-6.10591e-05
-5.69006e-05
-4.18294e-05
-2.10436e-05
-7.03253e-06
1.59878e-05
1.36456e-05
-1.07775e-05
1.56302e-05
1.25158e-05
1.6144e-05
4.78466e-06
1.75656e-05
1.28711e-05
2.95071e-05
-7.49241e-06
3.52564e-05
-1.95974e-05
3.1383e-05
-1.46733e-06
3.60491e-05
-1.55646e-05
3.79768e-05
-1.09817e-05
-5.75688e-06
4.1702e-05
1.40473e-05
0.000167349
1.63665e-05
0.000127372
2.03753e-05
8.3105e-05
3.77679e-05
7.0633e-05
8.58144e-05
3.00592e-05
8.89382e-05
1.48432e-05
7.4271e-05
-2.45013e-05
5.14055e-05
5.00704e-06
-3.90847e-06
1.38899e-05
-6.21236e-05
-1.14926e-05
-9.48422e-05
-2.41821e-05
-8.89457e-05
-2.694e-05
-5.98054e-05
-1.31525e-05
-1.76886e-05
-5.28944e-05
8.15102e-06
-1.33238e-05
4.65566e-06
8.28002e-06
1.78271e-05
-3.0036e-07
3.0782e-05
-2.04473e-05
2.85084e-05
-1.73238e-05
4.32082e-05
-1.61672e-05
3.59305e-05
-8.28692e-06
3.96666e-05
-1.47178e-05
-6.98791e-06
4.08976e-05
7.42226e-06
0.000159927
1.25571e-05
0.000122238
1.44346e-05
8.12275e-05
3.4004e-05
5.10636e-05
5.76032e-05
6.46005e-06
7.35918e-05
-1.14541e-06
4.17063e-05
7.38426e-06
-1.255e-05
5.92633e-05
-5.82059e-05
5.95458e-05
-8.86099e-05
1.89114e-05
-0.000111212
-1.5798e-06
-0.00011456
-2.35924e-05
-9.76936e-05
-3.00186e-05
-5.82391e-05
-9.23489e-05
-2.01141e-06
-6.95514e-05
8.77225e-06
-2.50363e-06
3.05133e-05
-2.20414e-05
3.14224e-05
-2.13563e-05
3.39621e-05
-1.98635e-05
3.64461e-05
-1.86512e-05
3.21474e-05
-3.98821e-06
4.22895e-05
-2.48599e-05
-1.0032e-05
4.53335e-05
4.27453e-05
0.000117182
3.65826e-05
0.0001284
4.25585e-05
7.52516e-05
4.69913e-05
4.66307e-05
4.73416e-05
6.10977e-06
3.16977e-05
1.44985e-05
-5.4958e-06
4.45778e-05
-2.66345e-05
8.0402e-05
-0.000109958
0.000142869
-0.00014269
5.16432e-05
-0.000151851
7.5821e-06
-0.000131566
-4.3878e-05
-0.000109493
-5.20911e-05
-7.91425e-05
-0.0001227
-2.912e-05
-0.000119574
1.83989e-07
-3.18076e-05
1.54894e-05
-3.73469e-05
2.73998e-05
-3.32667e-05
2.59766e-05
-1.84403e-05
3.86095e-05
-3.12841e-05
4.44594e-05
-9.83814e-06
3.61657e-05
-1.65662e-05
-1.67018e-05
4.28355e-05
1.96627e-06
0.000115215
1.36053e-05
0.000116761
2.79885e-05
6.08684e-05
3.21385e-05
4.24808e-05
2.69361e-05
1.13122e-05
1.54333e-05
2.60013e-05
-1.44464e-05
7.44575e-05
-4.46316e-05
0.000110587
-4.31281e-05
0.000141366
-6.96064e-05
7.81215e-05
-7.91755e-05
1.71512e-05
-0.000105241
-1.78123e-05
-8.81487e-05
-6.91836e-05
-6.88326e-05
-0.000142016
-3.12825e-05
-0.000157124
-6.08007e-06
-5.701e-05
8.69241e-06
-5.21193e-05
2.24096e-05
-4.69839e-05
2.86562e-05
-2.46869e-05
1.81501e-05
-2.07779e-05
2.76928e-05
-1.93809e-05
4.39815e-05
-3.28548e-05
-2.42436e-05
5.15234e-05
4.48508e-07
0.000114767
1.41608e-05
0.000103049
2.1811e-05
5.32182e-05
2.89313e-05
3.53605e-05
2.41171e-05
1.61264e-05
9.50564e-06
4.06127e-05
-1.21681e-05
9.61312e-05
-2.38989e-05
0.000122318
-2.98443e-05
0.000147311
-5.6994e-05
0.000105271
-0.000103795
6.39519e-05
-5.43948e-05
-6.72122e-05
-6.30401e-05
-6.05383e-05
-5.26794e-05
-0.000152377
-4.55506e-05
-0.000164253
7.83589e-06
-0.000110397
2.24955e-05
-6.67789e-05
2.21215e-05
-4.661e-05
2.12554e-05
-2.38208e-05
4.51033e-05
-4.46258e-05
4.24777e-05
-1.67553e-05
2.93524e-05
-1.97296e-05
-4.04683e-05
4.55771e-05
-2.56076e-06
0.000117328
1.20113e-05
8.84769e-05
1.49748e-05
5.02547e-05
2.42159e-05
2.61194e-05
2.04367e-05
1.99056e-05
-1.76162e-06
6.2811e-05
-1.38913e-05
0.000108261
-2.77463e-05
0.000136173
7.36416e-06
0.0001122
3.72752e-05
7.53602e-05
-5.53963e-06
0.000106767
-2.19367e-05
-5.08152e-05
1.8423e-05
-0.000100898
2.13582e-06
-0.000136089
-4.76139e-06
-0.000157356
6.8749e-06
-0.000122033
-3.40447e-06
-5.64995e-05
3.66261e-06
-5.3677e-05
1.93423e-05
-3.95005e-05
1.88177e-05
-4.41012e-05
4.07986e-05
-3.87362e-05
5.66242e-05
-3.55552e-05
-4.53516e-05
6.15076e-05
-6.96129e-06
0.000124289
4.50772e-06
7.70079e-05
7.05434e-06
4.77081e-05
1.70663e-05
1.61074e-05
1.15226e-05
2.54492e-05
-2.61328e-07
7.4595e-05
6.68238e-06
0.000101317
2.73871e-05
0.000115468
3.68714e-05
0.000102716
4.39826e-05
6.82489e-05
6.42233e-05
8.65261e-05
5.25373e-05
-3.91292e-05
3.91802e-05
-8.75408e-05
3.79762e-05
-0.000134885
-1.61121e-05
-0.000103267
-2.81798e-06
-0.000135327
3.02792e-05
-8.95967e-05
1.41146e-05
-3.75125e-05
2.62857e-05
-5.16716e-05
3.41727e-05
-5.19882e-05
3.61228e-05
-4.06863e-05
4.65841e-05
-4.60165e-05
-5.10054e-05
5.22379e-05
-7.86435e-06
0.000132153
-2.56672e-07
6.94002e-05
1.45403e-06
4.59974e-05
7.46109e-06
1.01004e-05
1.7446e-06
3.11657e-05
-1.70745e-06
7.8047e-05
8.83926e-06
9.07705e-05
2.87621e-05
9.55455e-05
5.27292e-05
7.87492e-05
7.01518e-05
5.08263e-05
9.72531e-05
5.94248e-05
0.000106964
-4.88407e-05
9.24244e-05
-7.30008e-05
2.93219e-05
-7.1783e-05
5.67269e-05
-0.000130672
3.92005e-05
-0.000117801
2.65124e-05
-7.69086e-05
2.33384e-05
-3.43384e-05
2.86481e-05
-5.69813e-05
2.27906e-05
-4.61307e-05
3.44469e-05
-5.23425e-05
1.93579e-05
-3.09275e-05
-5.995e-05
2.83025e-05
-8.2967e-06
0.00014045
-1.86855e-06
6.29721e-05
3.97031e-06
4.01585e-05
2.05507e-06
1.20156e-05
-9.08324e-06
4.2304e-05
-6.72034e-06
7.56841e-05
8.73919e-06
7.5311e-05
3.05973e-05
7.36873e-05
7.12826e-05
3.80639e-05
6.65645e-05
5.55444e-05
0.00010314
2.2849e-05
7.70122e-05
-2.27125e-05
6.56395e-05
-6.16281e-05
9.45262e-05
-0.00010067
3.75884e-05
-7.37344e-05
2.08648e-05
-0.000101077
1.58068e-05
-7.18506e-05
3.86063e-05
-5.71378e-05
1.7185e-05
-3.556e-05
2.89362e-05
-5.7882e-05
1.20609e-05
-3.54672e-05
4.43473e-05
-6.3214e-05
-4.25356e-05
2.6933e-05
-1.07528e-05
0.000151203
-3.59879e-06
5.58181e-05
3.0115e-06
3.35482e-05
-8.49529e-06
2.35224e-05
-2.38985e-05
5.77073e-05
-1.55093e-05
6.72949e-05
2.16695e-06
5.76347e-05
2.85589e-05
4.72953e-05
3.86857e-05
2.79372e-05
7.89056e-05
1.53244e-05
0.000104686
-2.93172e-06
8.48922e-05
-2.91838e-06
6.29109e-05
-3.96468e-05
6.10888e-05
-9.88475e-05
4.6196e-05
-5.88416e-05
2.42895e-05
-7.91705e-05
1.56295e-05
-6.31906e-05
1.31652e-05
-5.46735e-05
3.83579e-05
-6.07527e-05
1.91259e-05
-3.865e-05
2.4011e-05
-4.03523e-05
2.85604e-05
-6.77634e-05
-3.90512e-05
2.5076e-05