/*--------------------------------*- C++ -*----------------------------------*\
| =========                 |                                                 |
| \\      /  F ield         | foam-extend: Open Source CFD                    |
|  \\    /   O peration     | Version:     4.1                                |
|   \\  /    A nd           | Web:         http://www.foam-extend.org         |
|    \\/     M anipulation  |                                                 |
\*---------------------------------------------------------------------------*/
FoamFile
{
    version     2.0;
    format      ascii;
    class       volScalarField;
    location    "0.9";
    object      psi;
}
// * * * * * * * * * * * * * * * * * * * * * * * * * * * * * * * * * * * * * //

dimensions      [1 -1 -2 0 0 0 0];

internalField   nonuniform List<scalar> 
2268
(
0.0377428
-0.0418678
-0.140794
-0.185631
-0.167848
-0.154368
-0.155967
-0.162365
-0.158952
-0.148797
-0.137128
-0.126027
-0.0977278
-0.0440022
0.0236618
0.0857117
0.114531
0.122311
0.119758
0.105617
0.0937288
0.0888281
0.0967857
0.0117841
-0.0759307
-0.191071
-0.237688
-0.207547
-0.181163
-0.1725
-0.17239
-0.166401
-0.158372
-0.147671
-0.126026
-0.0622195
0.0219056
0.110432
0.166944
0.17845
0.167213
0.16531
0.135621
0.109815
0.0981965
0.10515
-0.0792294
-0.19164
-0.33503
-0.374494
-0.311453
-0.252821
-0.218448
-0.202987
-0.191936
-0.190806
-0.178415
-0.128182
0.0020502
0.106138
0.202007
0.231077
0.192232
0.171318
0.21778
0.179409
0.13585
0.1177
0.129873
-0.214281
-0.363651
-0.538066
-0.556414
-0.445121
-0.343087
-0.275614
-0.242645
-0.227455
-0.233239
-0.215248
-0.113864
0.0861505
0.175838
0.247441
0.182743
0.0764917
0.117788
0.246107
0.224519
0.162958
0.152984
0.176372
-0.390002
-0.5817
-0.781785
-0.758979
-0.587369
-0.439824
-0.340788
-0.29095
-0.275844
-0.288585
-0.244735
-0.10056
0.141031
0.10888
-0.0350781
-0.136538
-0.277457
-0.0531103
0.130933
0.257715
0.163803
0.206118
0.251859
-0.602933
-0.832825
-1.04274
-0.957693
-0.722751
-0.53703
-0.416964
-0.358373
-0.344205
-0.358041
-0.269508
-0.142583
0.0270574
-0.373787
-0.881153
-0.808799
-0.867108
-0.502795
-0.160729
0.249969
0.0617768
0.248017
0.368304
-0.849836
-1.0978
-1.29157
-1.12157
-0.830221
-0.6396
-0.525752
-0.476634
-0.458201
-0.436706
-0.291632
-0.293489
-0.433857
-1.3832
-2.5272
-1.9698
-1.80144
-1.18215
-0.724044
0.0644184
-0.227638
0.194078
0.556011
-1.13386
-1.37062
-1.50961
-1.26433
-0.966639
-0.809815
-0.722213
-0.710766
-0.690571
-0.592944
-0.452386
-0.742471
-1.53591
-3.06528
-3.86579
-3.51876
-2.87283
-1.68856
-1.9107
-0.445975
-0.900084
-0.271026
0.671416
1.63647
1.81074
2.22231
2.53842
2.72947
2.66636
2.1787
1.62197
1.3491
0.905973
0.305977
-0.106376
-0.429512
-0.5941
-0.550962
0.0192119
0.625064
0.171781
-0.0893753
1.66686
1.76886
1.72998
1.61586
1.38944
1.59299
1.88882
1.66492
1.63001
1.45596
0.89229
0.292954
0.035411
-0.314146
-0.443604
-0.628464
0.386388
0.187058
0.00858368
1.72258
1.61941
1.18341
0.987823
0.925734
0.800502
1.19327
1.51228
1.55002
1.66961
1.57526
0.885572
0.457501
0.12645
-0.0384141
-1.01159
-0.4282
-0.103914
0.0178359
1.72484
1.53986
1.19362
0.868579
0.738348
1.0088
0.955314
1.70774
1.44536
1.57547
1.94556
1.60236
1.00498
0.426788
0.285738
-0.263453
-0.925632
-0.285757
0.157808
1.71648
1.58434
1.47279
1.36361
1.15016
1.81912
1.43801
2.09743
1.58896
1.50248
1.62814
1.99606
1.38732
0.458838
0.514004
-0.277946
-1.03191
-0.266929
0.34814
1.78577
1.47598
1.95366
1.73201
2.18143
2.38913
1.89916
2.33272
2.08203
1.72108
1.50505
1.72492
1.4105
0.456433
0.518558
-0.268422
-0.337349
-0.0144446
0.525381
1.76308
1.56128
1.94156
1.97172
2.26639
2.69783
2.4868
2.66697
2.58087
2.02203
1.80667
1.5493
1.1734
0.284515
-0.0571326
-0.251146
0.218104
0.426437
0.788398
0.813763
1.5348
1.42139
1.93289
2.43886
2.59397
2.87581
2.87729
2.80732
2.41652
2.22013
1.69575
1.11187
0.29772
-0.645846
-0.297689
0.0535241
0.675575
1.02815
-1.6245
-1.80946
-1.84376
-1.50908
-1.30283
-1.19888
-1.21738
-1.30008
-1.33645
-1.21723
-1.45356
-2.11642
-2.10685
-1.7805
-1.328
-1.44124
-2.18418
-2.28241
-2.93904
-2.11177
-2.11773
-1.64122
-0.0971802
-2.17017
-2.23386
-2.11829
-1.66336
-1.42484
-1.27161
-1.31654
-1.30735
-1.10856
-1.264
-1.82306
-1.35205
-0.493153
0.196576
0.235448
0.173155
0.194764
-1.17547
-1.78113
-3.31023
-3.32482
-4.26095
-3.85615
-2.44942
-2.27553
-2.0386
-1.78196
-1.67577
-0.971934
-0.771403
-0.461778
-0.395865
-0.0234621
0.62857
1.11601
1.95138
2.12596
1.75406
1.24872
0.490243
0.0616993
-0.50765
-1.36877
-1.36404
-1.7382
-1.67996
-1.97734
-1.42821
-1.00682
-0.343243
-0.0796328
-0.040416
0.11415
1.63575
1.34719
2.09731
2.56548
2.92964
2.7533
1.67616
1.92829
1.74444
1.55012
1.517
0.9423
0.411477
-0.371989
-0.695497
-1.39107
-0.224178
-0.0766727
0.627108
0.531786
2.17064
2.51806
1.26842
2.26871
1.78956
2.43082
2.6138
2.74058
2.23738
1.75759
1.43466
1.34712
1.17564
1.07452
1.06887
0.76484
0.484753
0.47582
0.521427
1.6906
1.08994
1.41326
2.01244
2.08074
2.23432
1.8003
2.40797
2.79185
3.12601
3.09688
2.48093
2.3117
2.46738
2.65273
2.61951
2.34424
1.89258
1.49155
1.48324
1.55951
1.6
1.71304
2.36052
1.90772
2.20968
2.5526
2.52959
2.40079
2.10457
2.80701
3.19725
3.21025
2.59027
2.64515
2.77245
3.01202
3.04529
2.99082
2.98098
2.86461
2.7514
2.87572
2.68085
2.56265
2.656
2.62472
2.50664
3.03288
3.10608
2.79848
2.69583
2.93682
3.20075
3.11833
2.92722
2.71681
2.88378
3.0342
3.1867
3.08715
3.05093
2.92727
3.17078
3.07504
2.98905
2.99442
2.67557
2.59055
2.86745
2.83943
3.01843
2.95285
3.03203
3.08102
3.06727
3.08263
3.07428
2.80874
2.83798
2.99979
2.89503
2.57842
2.33685
2.24539
2.1077
2.42348
2.41364
2.10122
1.94181
2.61774
2.0333
2.87383
2.84453
2.93562
2.91639
2.98648
3.06628
3.05256
3.07938
2.79939
2.74243
2.94529
2.74431
2.01998
1.44864
1.2267
1.17034
1.13768
1.38444
1.4511
1.28756
1.14345
1.50624
1.39844
2.93181
2.91556
2.99228
2.82732
2.89494
3.02222
2.89623
2.82754
2.83607
2.59854
2.53758
1.87038
1.08225
0.568109
0.450336
0.44732
0.442543
0.60541
0.61142
0.59233
0.597932
0.770157
0.685533
3.02325
2.90577
2.64911
2.57245
2.67265
2.46161
2.27989
2.08395
2.44251
1.9036
1.33432
0.97038
0.530674
0.151275
0.0769322
0.128261
0.175932
0.258398
0.252382
0.240015
0.254836
0.316178
0.249715
3.05788
2.9437
2.35653
2.06158
1.87604
1.61197
1.45877
1.289
1.72644
1.08065
0.472777
0.446979
0.423095
0.146206
0.000172962
0.0271888
0.049038
0.0848151
0.0884749
0.0918357
0.104529
0.131698
0.117105
3.08104
2.96591
2.38299
1.86995
1.53227
1.41032
1.22405
0.755778
1.17032
0.764208
0.39126
0.237415
0.226729
0.12181
0.00267262
0.00822266
0.0191744
0.021321
0.0163249
0.0220041
0.0337631
0.0471163
0.0491561
3.0851
2.93787
2.4351
1.89618
1.60286
1.28927
1.05304
0.79223
0.768651
0.44379
0.174499
0.101739
0.0982339
0.0717263
0.0211531
0.00622394
0.00233529
0.00113555
-0.0011553
-0.002136
0.00131784
0.00591756
0.0125603
3.07838
2.93787
2.37744
1.67712
1.36451
1.11577
0.884801
0.751232
0.65441
0.463685
0.186261
0.0482223
0.0301293
0.0230727
0.00550039
-0.000394599
-0.00142922
-0.00140117
-0.00133864
-0.00189118
-0.00263938
-0.0030274
-0.000613765
3.06166
2.90108
2.39701
1.74663
1.3404
1.06121
0.938503
0.790159
0.651493
0.468457
0.241893
0.0593086
0.00337392
0.000149669
0.000247228
0.000231834
-0.00039952
-0.000736729
-0.000635485
-0.00075455
-0.00110318
-0.00141123
-0.00119632
3.03229
2.87689
2.45008
1.84529
1.3225
1.20049
1.22548
0.93404
0.710557
0.602049
0.38866
0.151922
0.00574379
-0.000267621
0.0045129
0.00267451
0.00112462
0.000181136
-6.00646e-05
-0.000166287
-0.000174138
-0.000328023
-0.000476038
2.98898
2.85677
2.56495
1.83777
1.39718
1.48281
1.11346
0.710502
0.563174
0.58285
0.550487
0.400247
0.153488
0.0423847
0.0149338
0.00395255
0.00136002
0.000465707
0.00015008
4.81111e-05
1.21979e-05
1.13171e-05
-3.63184e-05
2.92812
2.8235
2.72791
2.04746
1.57312
1.20483
0.757997
0.511055
0.344953
0.330743
0.386379
0.384842
0.236286
0.065418
0.016309
0.00501922
0.00245727
0.000545387
0.000189434
5.53005e-05
1.79474e-05
1.98824e-05
1.96289e-05
2.85849
2.77154
2.73969
2.52057
1.98373
1.49353
1.29868
0.72426
0.362638
0.215268
0.245843
0.318528
0.291822
0.190362
0.074302
0.0326432
0.0124347
0.00332838
0.000597854
-2.39021e-05
-1.28296e-05
6.69512e-07
6.80834e-06
2.77617
2.74132
2.65316
2.61034
2.32442
2.10142
1.65458
0.769517
0.136371
0.0366427
0.0776149
0.190003
0.240328
0.216267
0.14149
0.0806316
0.0282449
0.00659606
0.00127879
0.000180921
1.63887e-05
3.55733e-06
1.59374e-06
2.65604
2.66079
2.52789
2.54638
2.49453
2.32118
1.49625
0.426422
0.0865965
0.0267399
0.0369886
0.0960949
0.204073
0.194639
0.178072
0.116732
0.0315016
0.00336963
-0.000697571
-0.000256826
-6.35762e-05
-1.02918e-05
-1.37872e-06
2.45349
2.44583
2.34829
2.53676
2.48064
2.22274
1.36605
0.508436
0.0736535
0.015258
0.0392911
0.064002
0.157894
0.1704
0.153537
0.0974063
0.0330668
0.00709356
0.000631391
-5.03181e-05
-2.42459e-05
-4.48252e-06
-5.47459e-07
2.26144
2.21546
2.21805
2.46052
2.4864
2.18371
1.19744
0.408699
0.0926012
0.0167224
0.0430195
0.0884444
0.14618
0.124369
0.0659577
0.00971948
-0.00554761
-0.00292832
-0.000836959
-0.000144691
-1.7103e-05
-1.08897e-06
-1.38612e-07
2.13415
2.15656
2.06927
2.39656
2.35131
2.01848
1.12981
0.375375
0.0595455
-0.000832911
0.0432931
0.0978332
0.117914
0.0500633
0.00718274
-0.00573937
-0.00336631
-0.000836531
-8.95878e-05
2.93916e-06
1.32431e-06
-3.7383e-07
-2.2498e-07
2.06951
2.11656
1.87568
2.19022
2.03625
1.18102
0.354583
0.0682262
-0.0319582
0.00328062
0.0333476
0.0483903
0.054859
0.0052235
-0.00354138
-0.00260087
-0.000520559
2.75722e-05
4.42576e-05
2.90828e-06
-3.52887e-06
-1.69302e-06
-5.76827e-07
2.05787
2.09188
1.75269
1.61966
1.2393
0.611212
0.154862
0.0205947
-0.0117991
0.00729078
0.00991976
0.00637243
0.00404502
-0.00188533
-0.00139116
-0.000402593
4.77e-05
0.000161768
6.34598e-05
2.09167e-06
-4.3631e-06
-2.67383e-06
-8.71011e-07
2.04782
1.92398
1.41453
0.984822
0.49613
0.223201
0.0532996
-0.0071196
-0.00403545
0.00932526
0.0097493
0.00996083
0.0106842
0.0151291
0.00549349
0.000397257
0.000741727
0.000555463
0.000201636
3.93078e-05
-3.33833e-06
-4.31931e-06
-1.55916e-06
2.00425
1.94621
1.50731
0.975101
0.461164
0.159367
0.0115676
-0.0075649
0.00667132
0.0212306
0.0280414
0.0322986
0.0337873
0.033081
0.0169558
0.00443306
0.00287746
0.00138453
0.000426465
7.94886e-05
1.17489e-06
-5.03823e-06
-2.42117e-06
1.95494
1.83573
1.33626
0.799542
0.325261
0.090666
-0.00084178
-0.00313886
0.00725889
0.0236703
0.0376693
0.0441958
0.0469243
0.0424412
0.0275044
0.0108401
0.00550318
0.00213232
0.00060103
9.42146e-05
-1.38976e-05
-8.63289e-06
-3.11142e-06
1.89802
1.69784
1.14117
0.63311
0.244534
0.0621849
-0.000840632
0.000396428
0.0109308
0.0330173
0.0463367
0.0474311
0.0482852
0.0456301
0.033538
0.0150406
0.00666476
0.00236659
0.000575408
7.66932e-05
1.68108e-05
-2.07023e-06
-2.30557e-06
1.83015
1.53386
0.950418
0.462268
0.174345
0.0416541
-0.000347253
0.00299843
0.0101638
0.0236869
0.0377698
0.0389184
0.0444014
0.0472758
0.0387193
0.0176099
0.00569738
0.00134493
0.000215413
2.20205e-05
-6.4855e-06
-1.9793e-06
-1.20522e-06
1.74379
1.3057
0.717515
0.292274
0.113882
0.0332566
0.00615264
0.00489572
0.00946644
0.0144936
0.0273102
0.0282916
0.0386314
0.0452604
0.039574
0.0177073
0.0055006
0.00214894
0.000303112
3.73517e-05
5.21725e-06
-6.96849e-07
-3.16339e-06
1.64352
1.08382
0.554829
0.192328
0.0820521
0.0328565
0.0112704
0.00804804
0.0102442
0.0142447
0.0192322
0.0238875
0.0362952
0.0442804
0.0409782
0.0249104
0.00650546
0.00120429
-9.53077e-05
-7.74934e-05
-2.39292e-05
-6.78623e-06
-7.93577e-06
1.54447
0.901409
0.431886
0.130109
0.0559758
0.0319087
0.0186823
0.0146254
0.0170225
0.0183755
0.0212399
0.0305911
0.047292
0.0465738
0.0391989
0.0108657
0.000369905
-0.000573979
-0.000215083
-6.38544e-05
-1.41956e-05
-3.40392e-06
-8.6599e-06
1.44839
0.722652
0.295194
0.0744904
0.0400507
0.0359858
0.0309364
0.0309535
0.0375987
0.0352053
0.0379671
0.0463921
0.052018
0.0435659
0.0270983
0.00648143
6.76332e-05
-0.000391504
-0.000132029
-2.50627e-05
-5.19142e-07
-2.79766e-06
-1.13717e-05
1.34622
0.510498
0.130436
0.0371507
0.0448092
0.0483584
0.053815
0.0565687
0.0590894
0.0583619
0.0582218
0.0564633
0.0479139
0.0331858
0.0167517
0.00317316
0.000162335
-6.98652e-05
-4.41475e-05
-3.46985e-06
1.07139e-06
-3.89337e-06
-1.54048e-05
1.21907
0.342441
0.0685257
0.0483363
0.0583419
0.0611507
0.0600051
0.0569488
0.0556131
0.0533453
0.044505
0.0344649
0.0136129
0.00423069
0.00111979
-0.00063564
-0.000503075
-0.000128805
-1.92282e-05
1.40111e-06
4.30235e-07
-5.99462e-06
-1.92771e-05
1.09931
0.199893
0.0503211
0.0561167
0.057445
0.049099
0.0391305
0.0273948
0.0262546
0.0225862
0.0116238
0.0071649
0.000500498
-0.00138407
-0.00108687
-0.000522388
-0.000161447
-2.53463e-05
6.74333e-06
2.85602e-06
-5.94773e-08
-7.39902e-06
-2.6598e-05
0.939944
0.0471372
0.0354263
0.0341295
0.0147256
0.00672499
0.00357241
0.000405595
0.000667624
0.000449397
-0.00182773
-0.00143283
-0.00132606
-0.000834688
-0.000388534
-0.000107141
2.41868e-06
1.19578e-05
4.02742e-06
1.01196e-06
-4.43715e-07
-7.1455e-06
-2.86397e-05
0.367762
-0.0863677
-0.00688597
-0.00248232
-0.00480696
-0.0027448
-0.00192505
-0.0014038
-0.00105383
-0.000896554
-0.00123673
-0.000914783
-0.000617138
-0.000337211
-0.000120116
1.05281e-06
1.61468e-05
6.05839e-06
1.17811e-06
3.21521e-07
-2.8043e-07
-6.78505e-06
-2.90847e-05
-0.679705
0.0583105
2.17261
3.73524
-3.40925
-2.03076
0.504452
3.44313
-1.96307
-1.55271
-0.925183
0.638073
-1.63313
-0.871646
-0.933026
0.574297
0.514622
1.28945
1.89986
2.03187
1.99773
2.15437
2.60225
2.14542
2.83914
2.80727
2.70275
2.83024
2.70676
2.60307
2.54459
2.50173
1.72636
1.60597
1.49363
1.37665
1.06351
0.988263
0.91111
0.784749
0.594457
0.565846
0.575578
0.510548
0.225664
0.202839
0.198485
0.172596
0.104616
0.0817176
0.0763792
0.0524073
0.0455423
0.0346328
0.0327718
0.0216161
0.0172277
0.0139972
0.0126559
0.00949975
0.00359518
0.00391426
0.00364984
0.00282805
-0.000327662
0.000210078
0.000166794
-5.45906e-05
-0.000575621
-0.000461313
-0.000348572
-0.000296312
-9.46497e-05
-0.000121511
-0.000139726
-0.000146705
1.32241e-05
6.84623e-06
-1.81297e-06
-8.40098e-06
8.27363e-06
8.29838e-06
7.49338e-06
6.47721e-06
1.36734e-06
1.84697e-06
2.41705e-06
2.62993e-06
-4.02881e-07
-1.45448e-07
4.30805e-08
1.50811e-07
-2.34283e-07
-1.66549e-07
-1.35478e-07
-1.1331e-07
-5.54525e-08
-4.42272e-08
-3.2643e-08
-2.05618e-08
-6.34853e-08
2.32358e-09
4.71357e-08
7.54958e-08
-1.42492e-07
6.93031e-09
1.07638e-07
1.56104e-07
-4.2287e-07
-6.5042e-08
2.0532e-07
2.81479e-07
-7.76084e-07
-2.1705e-07
3.36339e-07
4.23508e-07
-1.2055e-06
-3.74381e-07
3.15258e-07
5.42964e-07
-1.52369e-06
-5.35555e-07
9.98871e-08
-2.29261e-07
-1.44703e-06
-1.04403e-06
-5.32686e-07
-6.93135e-07
-1.37034e-06
-2.22275e-06
-3.37838e-06
-8.00969e-06
-4.46336e-06
-6.73247e-06
-9.97869e-06
-1.73319e-05
-1.17735e-05
-1.68789e-05
-2.22812e-05
-3.15947e-05
-1.81171e-05
-2.66305e-05
-3.73644e-05
-5.04419e-05
-2.933e-05
-4.17375e-05
-5.22801e-05
-6.25788e-05
-3.56058e-05
-5.29189e-05
-6.68932e-05
-7.45477e-05
-3.98546e-05
-5.76191e-05
-7.43779e-05
-7.9426e-05
-5.14498e-05
-6.67466e-05
-7.90955e-05
-8.27444e-05
-5.48448e-05
-7.23821e-05
-8.41797e-05
-8.61424e-05
-5.46606e-05
-7.38994e-05
-8.51939e-05
-8.73273e-05
-2.7175
1.0529
0.860586
1.76445
2.28265
2.05497
2.87747
3.02669
2.87422
2.55689
2.53421
2.25687
1.91456
0.828882
-0.267451
-0.256857
-0.139244
0.88748
1.06276
-1.64513
0.85836
2.5752
2.69464
1.98979
1.68903
2.09201
2.36121
2.41669
2.4284
2.0559
1.82332
1.41603
1.30047
1.26698
0.257628
0.931149
1.53595
1.6529
-0.560757
2.45019
2.59107
1.85527
2.33845
2.56171
2.38094
2.34683
2.11813
1.99716
3.18021
2.50305
1.96999
2.14527
2.03027
1.49791
2.80091
2.20518
2.37394
1.65524
1.89121
1.80371
2.29313
1.85232
2.70866
2.83509
2.38978
2.30863
2.64969
3.82698
3.67281
4.09894
3.1848
2.48055
1.64155
2.43459
1.43466
2.63338
1.90336
1.42908
2.12621
2.95235
3.39874
3.53346
3.64538
3.96424
4.46017
4.81693
3.38664
2.45581
2.99644
1.88127
1.73225
0.825058
1.01019
0.737794
2.14233
2.24096
3.19928
3.88014
3.74671
3.59649
3.5099
3.19186
3.30153
2.2739
1.94339
1.26967
0.895311
0.656657
0.293361
0.223971
0.15784
0.346575
0.50611
0.993469
3.2631
3.11571
2.5133
1.97235
1.64852
1.36765
1.43483
1.44584
1.2136
0.626106
0.422273
0.252111
0.107484
0.057447
0.0735506
0.119989
0.105481
0.211688
0.189709
2.48493
1.96138
1.7308
1.48818
1.25722
0.97914
1.08237
0.78375
0.576577
0.427167
0.314115
0.222088
0.119407
0.0864969
0.0839092
0.0782282
0.0612025
0.0431496
0.0360636
1.25728
1.09361
0.939415
0.800584
0.895457
0.815541
0.83407
0.716535
0.529977
0.387685
0.256669
0.15695
0.114642
0.0904135
0.0759383
0.0626201
0.0560412
0.0418753
0.0575819
0.664896
0.562487
0.638883
0.410397
0.445663
0.508977
0.532585
0.591129
0.508221
0.41299
0.32372
0.230041
0.154759
0.108235
0.0773023
0.0585712
0.0491248
0.0423814
0.0495911
0.386582
0.220275
0.236772
0.20993
0.186049
0.225456
0.263267
0.361022
0.43386
0.357212
0.316924
0.287556
0.240346
0.1881
0.111994
0.0684569
0.0452791
0.0359778
0.0398524
0.136487
0.0998619
0.0701275
0.0709377
0.0626019
0.0884092
0.0917691
0.142388
0.218164
0.211343
0.201083
0.203899
0.211133
0.189472
0.144122
0.0708074
0.0399527
0.0310713
0.0335649
0.0365236
0.0316551
0.0260884
0.0205483
0.0187034
0.0345237
0.0246873
0.0282805
0.0672375
0.0727359
0.0717869
0.0768738
0.106711
0.137679
0.134324
0.0557136
0.029288
0.0278644
0.0291601
0.0108244
0.00715916
0.00792855
0.00518851
0.00600952
0.0141913
0.0084114
0.00482126
0.0154207
0.0156596
0.0118383
0.0154712
0.034431
0.077598
0.100907
0.0535946
0.025296
0.0243903
0.026486
0.00416394
0.00131689
0.0012216
0.00107325
0.00140021
0.00436997
0.00487255
0.00284537
0.00187667
0.00162848
0.000397727
0.000273862
0.00586597
0.0296304
0.0357801
0.0341908
0.018585
0.0208902
0.0248774
0.00148205
3.46051e-05
-0.000185186
-1.89322e-05
0.000189666
0.000984762
0.0026967
0.00188968
0.000344875
0.00018753
2.88758e-05
-0.000818534
-0.00189911
0.00560127
0.0067934
0.0105034
0.0127844
0.0176089
0.0236404
3.07808e-05
-0.000191152
-0.000197972
-0.00016764
-0.000133723
8.19348e-05
0.000791596
0.00078692
0.000350402
0.00021304
0.000267053
6.80613e-05
-0.000770676
-0.000498814
0.00021478
0.00353163
0.0095922
0.015014
0.0225215
-0.000206036
-0.000150281
-0.000120327
-0.000121382
-0.000121832
-4.34862e-05
6.85666e-05
0.00014045
9.56165e-05
6.72183e-05
0.000109562
0.000165718
4.60843e-06
-0.000468066
-0.000337256
0.000735707
0.00533437
0.0127674
0.0215493
-0.000150253
-0.000132781
-7.89276e-05
-8.23828e-05
-8.02111e-05
-4.85659e-05
-5.14195e-05
-1.35017e-05
-2.26562e-05
-2.32243e-05
-7.29509e-06
4.06963e-05
2.49999e-05
-0.000180284
-0.000268921
0.000492387
0.00364158
0.0113507
0.0205937
-1.31092e-05
-1.5625e-05
-1.20133e-05
-1.19497e-05
-1.12548e-05
-3.04122e-05
-3.65921e-05
-2.73272e-05
-2.73604e-05
-2.62031e-05
-2.41575e-05
-1.06331e-05
-2.29838e-05
-0.000143526
-0.000205272
0.000281651
0.00284704
0.0103994
0.0196609
5.9505e-06
4.42681e-06
1.94735e-06
2.50206e-06
1.49234e-06
-6.19762e-06
-9.70558e-06
-1.80249e-05
-1.79498e-05
-1.55298e-05
-1.78768e-05
-1.69153e-05
-3.48374e-05
-0.000124692
-0.000167237
0.000190559
0.00235981
0.00967864
0.0186854
2.93234e-06
2.50306e-06
1.64573e-06
1.70702e-06
1.70086e-06
7.24716e-07
-3.48615e-07
-3.0672e-06
-4.03797e-06
-3.36798e-06
-5.4364e-06
-7.2678e-06
-2.01731e-05
-9.3023e-05
-0.000162086
-8.57391e-05
0.00172087
0.00909021
0.0177033
3.73249e-07
3.83047e-07
5.62083e-07
8.75878e-07
1.10739e-06
7.07282e-07
-1.25146e-07
-1.32162e-06
-1.89687e-06
-1.64846e-06
-1.91133e-06
-1.62162e-06
-4.67392e-06
-5.55143e-05
-0.00014054
-9.77535e-05
0.00161518
0.00866343
0.0166864
-6.70629e-08
-3.22988e-08
-1.04307e-08
-4.44195e-08
-2.38475e-07
-6.94222e-07
-1.70644e-06
-3.55788e-06
-4.14987e-06
-3.85464e-06
-3.66816e-06
-1.88049e-06
-9.74297e-07
-3.12652e-05
-0.000144347
-0.000217227
0.00127173
0.00788943
0.0157314
-1.14827e-08
8.60872e-09
-3.51599e-08
-2.64942e-07
-1.01366e-06
-3.13805e-06
-6.42076e-06
-8.40643e-06
-1.01424e-05
-1.02018e-05
-9.94622e-06
-6.95651e-06
-5.1247e-06
-2.41138e-05
-0.000127609
-0.000215964
0.00101171
0.00739932
0.0149554
6.82496e-08
4.18225e-08
-4.58358e-07
-9.56851e-07
-2.23883e-06
-4.6563e-06
-9.87753e-06
-1.28075e-05
-1.57301e-05
-1.57737e-05
-1.54418e-05
-1.27897e-05
-1.04624e-05
-1.92267e-05
-0.000111351
-0.000220206
0.000929242
0.00658915
0.0139947
1.39193e-07
-2.3405e-08
-1.22377e-06
-3.27863e-06
-7.36622e-06
-1.20727e-05
-1.54266e-05
-1.75405e-05
-1.94076e-05
-1.95157e-05
-1.91033e-05
-1.76301e-05
-1.63237e-05
-2.86522e-05
-0.000106388
-0.000165133
0.000932301
0.00578988
0.0132407
7.56399e-08
-3.84288e-07
-3.55803e-06
-9.53907e-06
-1.92445e-05
-2.1234e-05
-1.957e-05
-2.11672e-05
-2.27321e-05
-1.92754e-05
-1.78018e-05
-1.72802e-05
-1.68791e-05
-2.73382e-05
-0.000100177
-0.000167032
0.000583974
0.00468371
0.0126365
-8.2906e-07
-4.56247e-06
-1.00209e-05
-2.33768e-05
-2.5742e-05
-2.60413e-05
-1.54421e-05
-1.83492e-05
-1.51269e-05
1.78763e-06
4.51632e-06
2.35487e-08
-1.04909e-05
-1.97783e-05
-8.15023e-05
-0.000214772
0.000135745
0.00399626
0.0121533
-1.31316e-06
-9.89372e-06
-1.97792e-05
-3.30057e-05
-3.1935e-05
-1.80927e-05
-1.62954e-06
1.5658e-05
8.32385e-05
7.60757e-05
6.52728e-05
3.52312e-05
1.22333e-05
-3.99492e-06
-6.96334e-05
-0.000148294
0.000152497
0.00348502
0.0116978
-5.45427e-06
-2.10339e-05
-3.57836e-05
-3.8047e-05
-2.46842e-05
1.79434e-05
5.89783e-05
0.000149532
0.00023918
0.000220215
0.000193149
0.000148815
9.99308e-05
2.83273e-05
-8.51503e-05
-0.000169552
0.000117312
0.00427596
0.0114622
-6.37468e-06
-2.57054e-05
-3.88103e-05
-4.01063e-05
-7.2245e-06
6.7085e-05
0.000140294
0.000390878
0.000504838
0.000466976
0.000435899
0.00033646
0.000266838
0.000181151
1.42608e-05
-0.000146958
0.000168775
0.00397003
0.0107684
-2.2742e-05
-4.20755e-05
-4.24283e-05
-3.12429e-05
6.82168e-05
0.000240782
0.000413271
0.000830794
0.000981382
0.000956942
0.000868982
0.000675136
0.000460115
0.000252466
3.31458e-06
-0.000114587
0.000245073
0.00339328
0.0105987
-3.82534e-05
-4.59915e-05
-4.53875e-05
1.36956e-05
0.000242338
0.00056564
0.00101188
0.0013387
0.00144591
0.0014603
0.00125859
0.000892187
0.000582531
0.000354494
1.20493e-05
-0.00010137
0.00031858
0.00448469
0.01075
-4.84149e-05
-4.93232e-05
-3.84083e-05
8.26853e-05
0.000318131
0.000717401
0.0014717
0.0018247
0.00194253
0.00188713
0.00167673
0.00131733
0.000867414
0.000457788
2.83967e-05
-5.8021e-05
0.000325128
0.00378231
0.00965575
-5.92512e-05
-4.70413e-05
-1.81079e-05
0.000166096
0.000514293
0.000961057
0.00181913
0.00224806
0.00235841
0.00228274
0.00216663
0.00182747
0.00124341
0.000758775
0.000121352
-8.80364e-06
0.000276674
0.00327006
0.00878117
-6.3951e-05
-3.90136e-05
1.72735e-05
0.000230094
0.000615119
0.00106283
0.00199282
0.0025351
0.00247155
0.00223552
0.0021586
0.00209692
0.00174552
0.00101874
0.000267616
3.69067e-05
0.00036886
0.00297553
0.00838629
-7.0642e-05
-8.34011e-06
0.000130352
0.000427185
0.000986335
0.00162399
0.00228215
0.00259661
0.00220589
0.00180162
0.00179171
0.00190012
0.00173059
0.00121214
0.000636715
0.000175841
0.000250464
0.00290437
0.00972198
-7.01051e-05
8.90456e-06
0.000206955
0.00059534
0.00121163
0.0020769
0.00248663
0.00243459
0.00188403
0.00150162
0.00145451
0.00161766
0.00171384
0.00145143
0.000849388
0.000197956
0.000285077
0.00211537
0.00734126
-6.79901e-05
2.42919e-05
0.000270517
0.000725867
0.00140922
0.00233239
0.00251935
0.0021657
0.00159475
0.00137364
0.0012629
0.00134211
0.00158065
0.00142104
0.000928618
0.000276089
0.000440888
0.00174601
0.00625314
-6.53671e-05
6.07329e-05
0.00038873
0.000691173
0.00102155
0.0016994
0.00247343
0.00225565
0.00174893
0.00142764
0.00115589
0.00110637
0.00128867
0.00129546
0.000862008
0.00030509
0.000430576
0.00172707
0.00712001
-7.08645e-05
5.57456e-05
0.000447498
0.000730675
0.000971423
0.00127341
0.00204985
0.00239502
0.00206869
0.00145873
0.00109457
0.000959698
0.00088674
0.000842373
0.000544922
0.000314804
0.000406465
0.001028
0.00488923
)
;

boundaryField
{
    leftWall
    {
        type            zeroGradient;
    }
    rightWall
    {
        type            zeroGradient;
    }
    lowerWall
    {
        type            zeroGradient;
    }
    atmosphere
    {
        type            zeroGradient;
    }
    defaultFaces
    {
        type            empty;
    }
}


// ************************************************************************* //
