/*--------------------------------*- C++ -*----------------------------------*\
| =========                 |                                                 |
| \\      /  F ield         | foam-extend: Open Source CFD                    |
|  \\    /   O peration     | Version:     4.1                                |
|   \\  /    A nd           | Web:         http://www.foam-extend.org         |
|    \\/     M anipulation  |                                                 |
\*---------------------------------------------------------------------------*/
FoamFile
{
    version     2.0;
    format      ascii;
    class       volVectorField;
    location    "0.9";
    object      U;
}
// * * * * * * * * * * * * * * * * * * * * * * * * * * * * * * * * * * * * * //

dimensions      [0 1 -1 0 0 0 0];

internalField   nonuniform List<vector> 
2268
(
(-0.000230794 0.00423577 0)
(-0.0110915 0.00197657 0)
(-0.00710942 -0.009052 0)
(0.000426 -0.00495227 0)
(0.00860445 -0.00144143 0)
(0.0116929 -0.000507991 0)
(0.0146598 -0.000569311 0)
(0.0203287 -0.00682773 0)
(0.0343361 -0.0041766 0)
(0.0398184 0.00208199 0)
(0.115006 -0.00771052 0)
(0.119011 -0.0230197 0)
(0.117713 -0.00342366 0)
(0.142986 -0.0123591 0)
(0.168506 -0.0209563 0)
(0.173045 -0.00313875 0)
(0.190227 0.00315512 0)
(0.172789 -0.00432065 0)
(0.175487 0.0012894 0)
(0.158937 -0.0514612 0)
(0.0987575 0.0124608 0)
(0.0668379 -0.0136095 0)
(0.0348961 0.0256061 0)
(0.0225781 0.00134967 0)
(0.00208099 0.00119008 0)
(0.00280066 0.00401369 0)
(0.00187892 -0.00172419 0)
(0.00832005 -0.00251475 0)
(0.014075 -0.0014129 0)
(0.017749 -0.00193915 0)
(0.030324 0.00234386 0)
(0.055347 -0.0062038 0)
(0.0561773 -0.0406781 0)
(0.107394 -0.0119003 0)
(0.117044 -0.0275235 0)
(0.117136 -0.0116218 0)
(0.135819 -0.0330862 0)
(0.156733 -0.00587904 0)
(0.177624 -0.0200989 0)
(0.179461 -0.00115975 0)
(0.177547 0.022837 0)
(0.168666 0.0818609 0)
(0.176552 0.0146687 0)
(0.115241 0.0258004 0)
(0.0408564 0.0461034 0)
(0.0609215 0.0213686 0)
(0.0130708 -0.00195313 0)
(0.00101761 0.0052489 0)
(0.00591382 -0.00914223 0)
(0.00276345 -0.0055769 0)
(0.0114054 -0.00331125 0)
(0.0179789 -0.00454132 0)
(0.0234395 -0.00402802 0)
(0.0249368 -0.0163244 0)
(0.0326937 -0.0267828 0)
(0.0547889 -0.0430389 0)
(0.105822 -0.0391128 0)
(0.088944 -0.0855512 0)
(0.0733912 -0.0342896 0)
(0.101938 -0.0473152 0)
(0.120977 -0.0336336 0)
(0.135593 0.00445418 0)
(0.187139 -0.00283146 0)
(0.178575 -0.0101848 0)
(0.156243 0.0730213 0)
(0.130393 0.0373852 0)
(0.1246 0.0591661 0)
(0.0676692 0.051825 0)
(0.0394196 0.0809416 0)
(0.00674167 -0.00281835 0)
(-0.00586598 0.00259235 0)
(0.00425345 0.00134977 0)
(0.00778556 -0.00473869 0)
(0.0136303 -0.00411363 0)
(0.0162932 -0.00919543 0)
(0.01614 -0.00729443 0)
(0.0164895 -0.0184113 0)
(0.0356708 -0.0358551 0)
(0.0405395 -0.0193411 0)
(0.0371225 -0.0175915 0)
(0.0526213 -0.0613254 0)
(0.0612443 -0.030493 0)
(0.074135 -0.0178332 0)
(0.125832 -0.0094104 0)
(0.122607 0.0115607 0)
(0.0995799 -0.00470758 0)
(0.13677 -0.0420461 0)
(0.136112 0.0363496 0)
(0.123982 0.0257838 0)
(0.11249 0.0753481 0)
(0.0538567 0.134876 0)
(0.0654063 0.0607827 0)
(-0.00613189 -0.00178726 0)
(-0.00444482 0.00434568 0)
(0.00676266 -0.0157419 0)
(0.00682079 -0.01112 0)
(0.0103065 -0.00957746 0)
(0.0100392 -0.00537528 0)
(0.0115963 -0.0110542 0)
(0.00748776 -0.015525 0)
(-0.000348443 -0.0396051 0)
(0.0290587 -0.0255797 0)
(0.0161375 -0.0642038 0)
(0.0212898 -0.0854977 0)
(0.0517986 -0.0985956 0)
(0.086681 -0.0779224 0)
(0.112576 -0.0259249 0)
(0.11192 -0.0282142 0)
(0.106377 -0.0198526 0)
(0.125791 0.0333074 0)
(0.0962905 0.0184793 0)
(0.0973126 0.0446848 0)
(0.129804 0.0388791 0)
(0.0314206 0.121219 0)
(0.00446222 0.142381 0)
(-0.00237988 -0.000455154 0)
(-0.00974938 0.00101241 0)
(-0.000413237 -0.00432948 0)
(0.0148361 -0.00575528 0)
(0.0217165 -0.00727235 0)
(0.0152384 -0.00614573 0)
(-0.00802259 -0.0032511 0)
(-0.0264616 -0.0119626 0)
(-0.0165603 -0.0131619 0)
(-0.0207582 -0.0328176 0)
(-0.021103 -0.0696364 0)
(0.00834798 -0.0900318 0)
(0.0468415 -0.0862124 0)
(0.0939206 -0.0868545 0)
(0.149177 -0.0363407 0)
(0.140578 0.00250969 0)
(0.135883 -0.000709403 0)
(0.145559 0.00368494 0)
(0.104636 0.0241977 0)
(0.0729875 0.0527725 0)
(0.0938216 0.0572881 0)
(0.0680126 0.0951515 0)
(0.0613607 0.198326 0)
(-0.00616953 0.00111722 0)
(-0.0133996 0.00218175 0)
(-0.0120876 -0.0284446 0)
(-0.0167771 -0.0252595 0)
(-0.0181499 0.000250578 0)
(-0.0356457 0.00146475 0)
(-0.0411917 7.41961e-05 0)
(-0.0474669 -0.0145355 0)
(-0.0383114 -0.0240486 0)
(-0.0246714 -0.0190899 0)
(-0.0100065 -0.010579 0)
(0.00856926 -0.0261194 0)
(0.048225 -0.0294802 0)
(0.104949 -0.0696406 0)
(0.150899 -0.0683359 0)
(0.15714 -0.0127904 0)
(0.142855 0.0397851 0)
(0.176877 -0.0065838 0)
(0.158018 0.0730325 0)
(0.0858968 0.150558 0)
(0.123037 0.0555461 0)
(0.0863651 0.111295 0)
(0.0751963 0.308686 0)
(0.000244814 0.00378076 0)
(-0.0379763 0.0103649 0)
(-0.0509435 -0.00158541 0)
(-0.044291 -0.0228347 0)
(-0.0477683 0.00498387 0)
(-0.0607679 0.00551961 0)
(-0.0602804 0.00178201 0)
(-0.0607144 -0.0120551 0)
(-0.0251761 -0.0284935 0)
(-0.00538243 -0.0541397 0)
(-0.00211964 -0.090624 0)
(0.0132034 -0.108839 0)
(0.00289752 -0.145278 0)
(0.0329421 -0.0842417 0)
(0.144774 -0.0976958 0)
(0.205185 -0.0147122 0)
(0.182918 0.0196879 0)
(0.243142 0.0612406 0)
(0.25633 -0.0074064 0)
(0.14379 0.153504 0)
(0.107762 0.0139723 0)
(0.170325 0.0813847 0)
(0.126587 0.304775 0)
(-1.14003 0.246944 0)
(-1.36989 0.190705 0)
(-1.52886 -0.00349713 0)
(-1.59395 -0.0182 0)
(-1.40663 -0.0877532 0)
(-1.28563 -0.0274713 0)
(-1.12619 -0.0483537 0)
(-1.00658 -0.0432175 0)
(-0.921851 -0.0273486 0)
(-0.74342 -0.0511406 0)
(-0.664394 -0.0423414 0)
(-0.545495 -0.0355936 0)
(-0.46282 -0.0468325 0)
(-0.373552 -0.000270363 0)
(-0.315018 -0.0467028 0)
(-0.303908 -0.0428687 0)
(-0.217927 -0.0172455 0)
(-0.204544 -0.0600076 0)
(-0.0436808 -0.0173541 0)
(-1.04945 0.358837 0)
(-1.12409 0.382955 0)
(-1.05641 0.108636 0)
(-1.11567 0.0398263 0)
(-0.952114 -0.125738 0)
(-0.801778 -0.0750844 0)
(-0.719173 -0.0774766 0)
(-0.681873 -0.0412055 0)
(-0.577731 -0.0875604 0)
(-0.428361 -0.0587793 0)
(-0.360759 -0.040411 0)
(-0.314887 -0.0435152 0)
(-0.238227 -0.0381077 0)
(-0.249856 -0.115418 0)
(-0.0531184 -0.120353 0)
(-0.238313 0.0155314 0)
(-0.205906 0.0842438 0)
(-0.156666 -0.084962 0)
(-0.0297153 -0.0907248 0)
(-0.969919 0.655019 0)
(-0.81134 0.617059 0)
(-0.664302 0.0622025 0)
(-0.800657 -0.0515639 0)
(-0.756044 -0.0862902 0)
(-0.480991 -0.142546 0)
(-0.384115 -0.122742 0)
(-0.355186 -0.0909605 0)
(-0.304442 -0.137627 0)
(-0.190368 -0.143177 0)
(-0.129025 -0.100157 0)
(-0.109168 -0.220342 0)
(0.0180452 -0.190371 0)
(-0.0935502 -0.0540874 0)
(0.0700619 -0.207397 0)
(-0.0968173 0.0107228 0)
(-0.112507 0.0161104 0)
(-0.0786677 -0.0505296 0)
(0.0448141 -0.0956176 0)
(-0.797735 0.756322 0)
(-0.569094 0.608691 0)
(-0.425481 0.0295045 0)
(-0.585202 -0.157684 0)
(-0.611524 -0.0215942 0)
(-0.358206 -0.21401 0)
(-0.212333 -0.107808 0)
(-0.200341 -0.0753714 0)
(-0.0457256 -0.150462 0)
(-0.0592631 -0.134726 0)
(-0.00623232 -0.0815787 0)
(0.0331166 -0.141409 0)
(0.087469 -0.279996 0)
(0.141341 -0.0641792 0)
(0.187793 -0.103556 0)
(0.221342 0.0194574 0)
(0.190513 0.0897353 0)
(-0.0068818 -0.0475079 0)
(0.096466 -0.107999 0)
(-0.644142 0.887578 0)
(-0.365723 0.765946 0)
(-0.316935 0.0546459 0)
(-0.456986 -0.150487 0)
(-0.37295 -0.271912 0)
(-0.0425032 -0.317074 0)
(-0.0302503 -0.330511 0)
(-0.186546 -0.0500865 0)
(0.154056 -0.205656 0)
(0.138802 -0.170976 0)
(0.148653 -0.126706 0)
(0.0850413 -0.0837439 0)
(0.210406 -0.168168 0)
(0.240128 -0.14133 0)
(0.228889 -0.0818667 0)
(0.244338 0.0542989 0)
(0.276081 0.0547645 0)
(0.173163 0.0183069 0)
(0.149877 -0.0740481 0)
(-0.557987 0.967851 0)
(-0.194225 0.70648 0)
(-0.281628 0.0386945 0)
(-0.393482 -0.113898 0)
(-0.219677 -0.283173 0)
(0.211442 -0.345463 0)
(0.184992 -0.496128 0)
(0.144243 -0.107841 0)
(0.24897 -0.221602 0)
(0.23854 -0.180386 0)
(0.241495 -0.0701304 0)
(0.203895 -0.109581 0)
(0.225757 -0.104979 0)
(0.269486 -0.167368 0)
(0.290487 -0.135434 0)
(0.239944 0.0716643 0)
(0.280688 0.0397137 0)
(0.242771 0.112006 0)
(0.159911 -0.0397861 0)
(-0.384947 1.03165 0)
(-0.0488312 0.829757 0)
(-0.122064 0.135639 0)
(-0.134024 -0.147161 0)
(0.0382139 -0.307033 0)
(0.359138 -0.425983 0)
(0.433141 -0.298427 0)
(0.468575 -0.291846 0)
(0.412731 -0.255104 0)
(0.3984 -0.202352 0)
(0.385808 -0.0993317 0)
(0.267353 -0.0642455 0)
(0.270551 -0.097802 0)
(0.2809 -0.131965 0)
(0.320992 -0.16432 0)
(0.289228 0.0374908 0)
(0.299526 0.0325295 0)
(0.268697 0.105628 0)
(0.158728 0.0150821 0)
(-0.318351 1.10512 0)
(0.134122 0.750902 0)
(0.132904 0.0283294 0)
(0.0912163 -0.319803 0)
(0.321129 -0.351954 0)
(0.501817 -0.444837 0)
(0.498627 -0.228075 0)
(0.517704 -0.266517 0)
(0.456746 -0.246331 0)
(0.512042 -0.143578 0)
(0.47492 -0.0164342 0)
(0.301108 -0.0890572 0)
(0.303407 -0.111017 0)
(0.291539 -0.0767311 0)
(0.318079 -0.156663 0)
(0.312067 0.00535242 0)
(0.339427 0.0701024 0)
(0.27942 0.183421 0)
(0.182223 0.139159 0)
(-0.017165 0.0135357 0)
(-0.0244994 0.0145258 0)
(-0.064486 0.0161125 0)
(-0.0645956 0.00135626 0)
(-0.0489792 0.00970601 0)
(-0.0679343 0.00690719 0)
(-0.0659745 0.000115383 0)
(-0.0703489 -0.0462657 0)
(-0.0560256 -0.0568573 0)
(-0.0488217 -0.129776 0)
(-0.0259362 -0.121327 0)
(-0.0136111 -0.187782 0)
(0.0123004 -0.228008 0)
(0.0209106 -0.191452 0)
(0.00707421 -0.0741238 0)
(0.126519 -0.131922 0)
(0.223563 0.00704239 0)
(0.211048 0.0857979 0)
(0.285064 0.0472046 0)
(0.249694 0.0306978 0)
(0.203832 0.0590462 0)
(0.273119 0.0828926 0)
(0.243614 0.137804 0)
(-0.00706032 0.0200578 0)
(-0.0237398 0.0333459 0)
(-0.023405 0.0106985 0)
(-0.00495616 0.0212045 0)
(-0.0178889 0.00602196 0)
(-0.0362962 0.0240073 0)
(-0.0818544 0.0103073 0)
(-0.0866201 -0.0523934 0)
(-0.129916 -0.0463614 0)
(-0.15669 -0.0832426 0)
(-0.220154 -0.0156652 0)
(-0.306334 -0.166632 0)
(-0.253533 -0.167295 0)
(-0.177555 -0.198614 0)
(-0.105958 -0.218122 0)
(-0.0543577 -0.199623 0)
(-0.0707057 -0.081433 0)
(0.238621 0.0730921 0)
(0.206866 0.154024 0)
(0.211778 0.118653 0)
(0.236394 0.171879 0)
(0.228282 0.0950371 0)
(0.309005 0.114988 0)
(0.00212544 0.0294582 0)
(0.0127394 0.0215159 0)
(0.0249977 0.0328282 0)
(0.00404637 0.0190791 0)
(-0.000946355 0.0587023 0)
(-0.0245498 0.0642529 0)
(-0.112629 0.051655 0)
(-0.111741 0.0379641 0)
(-0.151228 0.0290646 0)
(-0.177035 0.055713 0)
(-0.423514 0.0187457 0)
(-0.43944 0.0535172 0)
(-0.353053 -0.176793 0)
(-0.406917 -0.202707 0)
(-0.432809 -0.190054 0)
(-0.418058 -0.178792 0)
(-0.406825 -0.23983 0)
(-0.222452 -0.0796488 0)
(-0.158585 -0.00856145 0)
(-0.0278065 0.0643809 0)
(-0.00516178 -0.120473 0)
(0.190192 -0.0465778 0)
(0.295454 -0.00171819 0)
(0.00740555 0.00156155 0)
(0.0612786 0.0139016 0)
(0.0815148 -0.00897741 0)
(0.152675 0.030429 0)
(0.140542 0.0907003 0)
(0.0119223 0.230783 0)
(-0.0209984 0.176384 0)
(-0.192651 0.200777 0)
(-0.299709 0.111245 0)
(-0.344139 0.0940571 0)
(-0.31457 -0.0315049 0)
(-0.5262 0.0335806 0)
(-0.539167 -0.165732 0)
(-0.349352 -0.215555 0)
(-0.482492 -0.208556 0)
(-0.577711 -0.278827 0)
(-0.585695 -0.285637 0)
(-0.52312 -0.171042 0)
(-0.531133 -0.102766 0)
(-0.440164 -0.0530166 0)
(-0.376973 -0.0937466 0)
(-0.330443 -0.0376003 0)
(-0.409814 0.0868761 0)
(0.0614341 -0.035693 0)
(0.171717 -0.0857466 0)
(0.21719 -0.112744 0)
(0.267065 -0.0603146 0)
(0.368764 0.146269 0)
(0.268544 0.332337 0)
(0.0109037 0.263338 0)
(-0.168077 0.279552 0)
(-0.180285 0.338682 0)
(-0.258154 0.272713 0)
(-0.235235 0.0633748 0)
(-0.250504 -0.0592086 0)
(-0.310482 0.0610171 0)
(-0.281573 -0.140263 0)
(-0.593065 -0.21826 0)
(-0.724514 -0.259863 0)
(-0.560082 -0.237189 0)
(-0.5447 -0.127874 0)
(-0.592414 -0.0465238 0)
(-0.655907 -0.112305 0)
(-0.659746 -0.156672 0)
(-0.642854 0.0502413 0)
(-0.687605 0.157995 0)
(0.0550713 -0.126596 0)
(0.174544 -0.206992 0)
(0.254112 -0.205077 0)
(0.424024 -0.0938782 0)
(0.427672 0.237489 0)
(0.167296 0.369955 0)
(-0.0222923 0.414391 0)
(-0.081421 0.397624 0)
(-0.173294 0.321891 0)
(-0.342304 0.191425 0)
(-0.368183 0.0527091 0)
(-0.485267 0.0536566 0)
(-0.535924 -0.00461502 0)
(-0.58747 0.0258688 0)
(-0.777305 -0.113064 0)
(-0.885274 -0.0817558 0)
(-0.888874 -0.0600778 0)
(-0.793442 -0.116657 0)
(-1.0792 -0.161958 0)
(-1.22465 -0.0768009 0)
(-0.749363 -0.0133189 0)
(-0.625449 0.0294357 0)
(-0.702277 0.180817 0)
(0.109785 -0.269443 0)
(0.0676289 -0.344719 0)
(-0.00546407 -0.202735 0)
(-0.0340292 0.120286 0)
(-0.025766 0.147483 0)
(-0.100661 0.436796 0)
(-0.166917 0.479415 0)
(-0.19538 0.417065 0)
(-0.31831 0.311805 0)
(-0.443646 0.24878 0)
(-0.546388 0.314073 0)
(-0.74891 0.146066 0)
(-0.849222 0.154622 0)
(-0.879735 0.022456 0)
(-0.955837 -0.0853054 0)
(-0.95904 -0.129472 0)
(-0.97172 -0.0856517 0)
(-0.997002 -0.311333 0)
(-0.986284 -0.394096 0)
(-1.03892 -0.107509 0)
(-0.995755 0.0154026 0)
(-0.883082 -0.00723536 0)
(-0.826373 0.0270167 0)
(0.0130112 -0.292446 0)
(-0.218246 -0.34649 0)
(-0.32592 -0.10252 0)
(-0.294981 0.089298 0)
(-0.45875 0.328014 0)
(-0.420932 0.51144 0)
(-0.4495 0.547338 0)
(-0.425397 0.547588 0)
(-0.515366 0.507444 0)
(-0.537104 0.432485 0)
(-0.736172 0.438625 0)
(-0.829346 0.363242 0)
(-0.832454 0.327774 0)
(-0.820919 0.100897 0)
(-0.847528 0.0117826 0)
(-0.786417 -0.0477439 0)
(-1.10432 -0.139181 0)
(-1.27766 -0.112457 0)
(-0.910394 -0.1564 0)
(-0.816444 -0.167446 0)
(-0.799308 -0.0710445 0)
(-0.77507 -0.0769981 0)
(-0.756863 -0.0532985 0)
(-0.0873257 -0.0842938 0)
(-0.253117 0.0104437 0)
(-0.496728 0.109799 0)
(-0.588038 0.136396 0)
(-0.636292 0.241942 0)
(-0.612728 0.441907 0)
(-0.616952 0.500609 0)
(-0.601349 0.520728 0)
(-0.632826 0.488007 0)
(-0.655099 0.403991 0)
(-0.702899 0.369765 0)
(-0.704629 0.307603 0)
(-0.720361 0.180892 0)
(-0.745856 -0.00991585 0)
(-0.694171 -0.105017 0)
(-0.687377 -0.199932 0)
(-0.72523 -0.387881 0)
(-0.896216 -0.153394 0)
(-0.85228 -0.031171 0)
(-0.770942 -0.0845058 0)
(-0.993714 -0.167338 0)
(-1.13528 -0.13607 0)
(-0.671944 -0.0997896 0)
(-0.174552 0.0708117 0)
(-0.398264 0.241143 0)
(-0.542119 0.265083 0)
(-0.700281 0.237327 0)
(-0.747292 0.367682 0)
(-0.700931 0.476431 0)
(-0.751773 0.531219 0)
(-0.727551 0.582557 0)
(-0.771713 0.554136 0)
(-0.654503 0.496138 0)
(-0.605205 0.450028 0)
(-0.624041 0.31646 0)
(-0.555885 0.147246 0)
(-0.524375 0.070342 0)
(-0.490006 0.0187089 0)
(-0.519004 -0.0306051 0)
(-0.507287 -0.245736 0)
(-0.494321 -0.263674 0)
(-0.452359 -0.235833 0)
(-0.393196 -0.257306 0)
(-0.441257 -0.449404 0)
(-0.596779 -0.0900955 0)
(-0.52608 0.0547913 0)
(-0.227071 0.459958 0)
(-0.194187 0.640377 0)
(-0.480075 0.332112 0)
(-0.749457 0.411241 0)
(-0.780838 0.576108 0)
(-0.761832 0.475773 0)
(-0.745065 0.489039 0)
(-0.764828 0.576908 0)
(-0.822996 0.576336 0)
(-0.689366 0.643474 0)
(-0.608179 0.38208 0)
(-0.49791 0.296708 0)
(-0.318833 0.0680036 0)
(-0.294923 -0.0757954 0)
(-0.170708 -0.11218 0)
(-0.192162 -0.15115 0)
(-0.219471 -0.0989056 0)
(-0.313294 -0.0622452 0)
(-0.32041 -0.179428 0)
(-0.279194 -0.205841 0)
(-0.258959 -0.317214 0)
(-0.315298 -0.291941 0)
(-0.21402 -0.25104 0)
(-0.113657 0.53501 0)
(-0.290108 0.642163 0)
(-0.497985 0.366006 0)
(-0.561011 0.456628 0)
(-0.758052 0.6072 0)
(-0.924322 0.471984 0)
(-0.673688 0.507283 0)
(-0.634423 0.451576 0)
(-0.758413 0.510629 0)
(-0.583868 0.555513 0)
(-0.446682 0.331024 0)
(-0.262724 0.354875 0)
(-0.26851 0.0137315 0)
(-0.115257 -0.122739 0)
(-0.0551469 -0.0831381 0)
(-0.0865644 -0.0285066 0)
(-0.166001 -0.113006 0)
(-0.226632 -0.0982815 0)
(-0.240078 -0.0723525 0)
(-0.245365 -0.0980962 0)
(-0.239405 -0.1042 0)
(-0.25423 -0.1479 0)
(-0.212541 -0.109368 0)
(-0.00358753 0.638733 0)
(-0.286498 0.678553 0)
(-0.441024 0.53904 0)
(-0.340838 0.536431 0)
(-0.646831 0.395485 0)
(-0.728331 0.485727 0)
(-0.498093 0.64318 0)
(-0.518924 0.36324 0)
(-0.551138 0.44826 0)
(-0.162578 0.372033 0)
(-0.0191781 0.229038 0)
(0.050387 0.0600198 0)
(0.113302 -0.145361 0)
(0.0488074 -0.276869 0)
(-0.0402318 -0.142969 0)
(-0.021236 -0.0115352 0)
(-0.114029 0.0321432 0)
(-0.169228 -0.0144867 0)
(-0.152425 -0.163964 0)
(-0.143356 -0.232033 0)
(-0.232751 -0.286712 0)
(-0.21881 -0.333074 0)
(-0.13564 -0.324085 0)
(0.0348145 0.789096 0)
(-0.218609 0.725408 0)
(-0.345385 0.719998 0)
(-0.375878 0.598361 0)
(-0.498756 0.493877 0)
(-0.324227 0.738378 0)
(-0.0911248 0.4815 0)
(-0.0155539 0.309264 0)
(-0.0912619 0.523696 0)
(0.247533 0.0663059 0)
(0.39133 -0.0246812 0)
(0.445122 0.00529771 0)
(0.428611 0.051635 0)
(0.264055 -0.00163316 0)
(0.0355166 0.00993533 0)
(-0.0554459 0.0322568 0)
(-0.10645 -0.10445 0)
(-0.146102 -0.160581 0)
(-0.0607613 -0.252906 0)
(-0.0471209 -0.285928 0)
(-0.0138798 -0.31929 0)
(-0.0517168 -0.245672 0)
(-0.0415459 -0.356498 0)
(0.0503131 0.847258 0)
(-0.19362 0.747887 0)
(-0.294756 0.697175 0)
(-0.241712 0.628175 0)
(-0.117847 0.620581 0)
(-0.14431 0.693661 0)
(-0.0734918 0.297509 0)
(0.27824 0.289001 0)
(0.100626 0.242732 0)
(0.43035 -0.0470529 0)
(0.547439 -0.197746 0)
(0.525863 0.00168436 0)
(0.611044 0.0786533 0)
(0.406659 0.10777 0)
(0.403487 0.160845 0)
(0.425685 0.138522 0)
(0.434248 0.118463 0)
(0.393105 0.0511335 0)
(0.313603 -0.101743 0)
(0.271836 -0.0996621 0)
(0.209326 -0.00965537 0)
(0.232579 -0.0765686 0)
(0.176873 -0.0834107 0)
(0.0515847 0.916492 0)
(-0.177975 0.80332 0)
(-0.205425 0.700148 0)
(-0.0768754 0.489049 0)
(-0.082774 0.5049 0)
(0.0270148 0.303031 0)
(0.240386 0.230727 0)
(0.343139 0.0963987 0)
(0.32444 0.12608 0)
(0.419742 0.000915463 0)
(0.41129 -0.294426 0)
(0.521049 0.0247953 0)
(0.439337 -0.0213342 0)
(0.460938 0.116835 0)
(0.409585 0.120079 0)
(0.478234 0.0911675 0)
(0.734334 -0.0313365 0)
(0.567705 -0.164398 0)
(0.307922 -0.0503392 0)
(0.422673 -0.11836 0)
(0.411645 -0.124286 0)
(0.30034 -0.188518 0)
(0.29234 -0.241164 0)
(0.0635213 0.975464 0)
(-0.162418 0.836911 0)
(-0.187427 0.778771 0)
(-0.037086 0.527526 0)
(0.0503128 0.466725 0)
(0.0427382 0.250231 0)
(0.138986 -0.00118431 0)
(0.277782 -0.0374091 0)
(0.296204 0.107644 0)
(0.303448 -0.0329726 0)
(0.271212 -0.201279 0)
(0.278716 -0.227266 0)
(0.393512 0.0496371 0)
(0.522747 0.172753 0)
(0.378452 0.159993 0)
(0.49112 0.195873 0)
(0.441961 0.126547 0)
(0.517576 0.00836075 0)
(0.517894 -0.109803 0)
(0.356905 0.090043 0)
(0.314312 -0.0998329 0)
(0.355846 -0.0569734 0)
(0.451631 -0.146666 0)
(0.0521606 1.02025 0)
(-0.0948311 0.873103 0)
(-0.141917 0.775556 0)
(-0.0726322 0.84483 0)
(-0.0553328 0.475802 0)
(-0.079952 0.211472 0)
(0.117125 -0.0123161 0)
(0.295792 -0.100186 0)
(0.280292 0.0835237 0)
(0.266001 0.0124483 0)
(0.289968 -0.0488065 0)
(0.229741 -0.202351 0)
(0.238586 -0.0717361 0)
(0.199561 -0.0605907 0)
(0.29223 -0.0662817 0)
(0.363392 0.0271604 0)
(0.421384 0.0583404 0)
(0.358378 0.0615779 0)
(0.489522 -0.0815049 0)
(0.457898 -0.0218571 0)
(0.334079 -0.072737 0)
(0.392512 -0.0674534 0)
(0.362291 -0.177436 0)
(0.0521363 1.04999 0)
(-0.0569816 0.898493 0)
(-0.0183245 0.783187 0)
(-0.0964253 0.635615 0)
(-0.324102 0.370995 0)
(-0.0328123 0.167545 0)
(0.0533543 -0.236787 0)
(0.116355 -0.178011 0)
(0.212993 -0.122002 0)
(0.372935 -0.0834015 0)
(0.439201 0.0682565 0)
(0.343336 -0.0181686 0)
(0.213071 -0.0463211 0)
(0.221874 0.0090075 0)
(0.261644 0.0358147 0)
(0.501355 0.102836 0)
(0.409268 0.0539773 0)
(0.305701 0.0483489 0)
(0.39985 0.0639518 0)
(0.378594 -0.0592293 0)
(0.324728 -0.0350619 0)
(0.304652 -0.0787615 0)
(0.302477 -0.122076 0)
(0.0488253 1.05689 0)
(-0.00221624 0.969348 0)
(0.0856633 0.713063 0)
(0.0273124 0.571488 0)
(-0.169578 0.25446 0)
(-0.0499982 -0.0116525 0)
(-0.14062 -0.236675 0)
(0.0394629 -0.343504 0)
(0.10823 -0.309912 0)
(0.303877 -0.223827 0)
(0.477135 0.0179862 0)
(0.36399 0.0782824 0)
(0.286805 0.00628318 0)
(0.178927 -0.0465068 0)
(0.174678 -0.0376309 0)
(0.192105 -0.0945013 0)
(0.281657 -0.111754 0)
(0.2894 -0.0462764 0)
(0.35442 -0.0863335 0)
(0.357496 0.0257218 0)
(0.323332 -0.0144773 0)
(0.337044 -0.0779833 0)
(0.317873 -0.0439895 0)
(0.0547361 1.04411 0)
(-0.0373252 0.995469 0)
(0.130946 0.788822 0)
(0.287977 0.753039 0)
(0.039987 0.466708 0)
(-0.0469759 0.149001 0)
(-0.12312 -0.226888 0)
(0.034169 -0.452908 0)
(0.267932 -0.436137 0)
(0.249762 -0.375238 0)
(0.343062 -0.324515 0)
(0.369862 0.0536453 0)
(0.377397 0.159524 0)
(0.367921 0.107792 0)
(0.197468 0.0209709 0)
(0.237481 -0.0857831 0)
(0.317014 -0.0705805 0)
(0.283846 -0.0591624 0)
(0.432911 -0.0219359 0)
(0.419698 -0.0276956 0)
(0.204807 -0.0114099 0)
(0.295241 -0.0352162 0)
(0.378731 -0.079031 0)
(0.0799719 1.02873 0)
(0.0421001 0.994667 0)
(0.257343 1.01248 0)
(0.322188 0.822757 0)
(0.0743936 0.535522 0)
(0.143215 0.170113 0)
(0.0949233 -0.270433 0)
(0.141606 -0.418546 0)
(0.130214 -0.424949 0)
(0.201142 -0.385857 0)
(0.32955 -0.356097 0)
(0.558406 0.0101411 0)
(0.462256 0.219307 0)
(0.375705 0.168762 0)
(0.332452 0.0959769 0)
(0.332684 -0.163555 0)
(0.338412 -0.128852 0)
(0.318943 -0.082851 0)
(0.34673 0.103735 0)
(0.317634 -0.0234272 0)
(0.303306 0.0199157 0)
(0.308942 0.0511169 0)
(0.30722 -0.0624724 0)
(0.115237 0.964615 0)
(0.0843431 0.829377 0)
(0.294232 0.854015 0)
(0.35084 0.73208 0)
(0.137638 0.580234 0)
(0.270682 0.182739 0)
(0.188581 -0.251267 0)
(0.165036 -0.363028 0)
(0.121734 -0.504728 0)
(0.195234 -0.516822 0)
(0.232664 -0.407895 0)
(0.400719 -0.0619235 0)
(0.368494 0.155984 0)
(0.423911 0.223172 0)
(0.46136 0.165261 0)
(0.464249 -0.0152552 0)
(0.568143 -0.103747 0)
(0.383192 -0.0792996 0)
(0.306304 -0.0143545 0)
(0.216612 -0.00258622 0)
(0.270568 0.00154394 0)
(0.236351 -0.00134368 0)
(0.330296 -0.0709193 0)
(0.016746 0.941453 0)
(0.0750606 0.839076 0)
(0.377314 0.913161 0)
(0.443699 0.712433 0)
(0.271402 0.569601 0)
(0.245361 0.148305 0)
(0.271945 -0.175388 0)
(0.274325 -0.376536 0)
(0.0867726 -0.573189 0)
(0.237896 -0.636491 0)
(0.377118 -0.523695 0)
(0.262471 -0.168155 0)
(0.341914 0.173157 0)
(0.38863 0.272841 0)
(0.343877 0.146801 0)
(0.419721 0.129955 0)
(0.401271 0.00239471 0)
(0.32495 0.0330911 0)
(0.279101 -0.0267964 0)
(0.276169 -0.0148303 0)
(0.293103 -0.000923274 0)
(0.252916 -0.015138 0)
(0.325695 0.0359444 0)
(0.0334323 0.890842 0)
(0.149521 0.994924 0)
(0.250707 0.902104 0)
(0.318989 0.757982 0)
(0.297027 0.469742 0)
(0.388648 0.15588 0)
(0.318952 -0.117142 0)
(0.279548 -0.49464 0)
(0.363286 -0.597579 0)
(0.28049 -0.620491 0)
(0.325324 -0.455771 0)
(0.316548 -0.05944 0)
(0.110172 0.253462 0)
(0.162899 0.0821862 0)
(0.190664 0.0315638 0)
(0.315779 0.025696 0)
(0.226311 -0.0131031 0)
(0.189474 0.0162246 0)
(0.0810967 0.0136364 0)
(0.168504 0.0116553 0)
(0.306175 0.0110033 0)
(0.282639 0.00464542 0)
(0.37491 0.0646017 0)
(0.0308627 0.728916 0)
(0.116629 0.867928 0)
(0.231701 0.607123 0)
(0.306214 0.657119 0)
(0.28205 0.473368 0)
(0.552236 0.1756 0)
(0.448231 -0.125075 0)
(0.460816 -0.35299 0)
(0.480229 -0.596062 0)
(0.0961396 -0.586406 0)
(0.0435402 -0.378104 0)
(-0.0640241 -0.0154091 0)
(0.0158138 0.196045 0)
(0.0465365 0.0156396 0)
(0.181834 0.121167 0)
(0.180718 0.0581396 0)
(0.0469365 0.0491524 0)
(0.105548 0.0027933 0)
(0.173465 -0.0233089 0)
(0.246304 -0.013039 0)
(0.273136 -0.0463373 0)
(0.28515 -0.0514116 0)
(0.302132 -0.0168564 0)
(0.0124011 0.655555 0)
(0.0823394 0.886716 0)
(-0.00891086 0.589578 0)
(0.162653 0.56673 0)
(0.4199 0.56749 0)
(0.672806 0.0668883 0)
(0.579689 -0.135658 0)
(0.276478 -0.164857 0)
(0.148341 -0.47852 0)
(-0.0285159 -0.310647 0)
(-0.22522 -0.248569 0)
(-0.225515 -0.0269773 0)
(-0.0740552 0.147783 0)
(-0.0194434 0.0403063 0)
(0.0979536 0.0891079 0)
(0.00115608 0.0155465 0)
(0.108041 0.0561936 0)
(0.131301 0.0312791 0)
(0.0777704 -0.068132 0)
(0.176026 -0.00549503 0)
(0.257941 -0.113763 0)
(0.257568 -0.0744506 0)
(0.283775 0.00431357 0)
(0.0136034 0.645665 0)
(0.0914195 0.926862 0)
(0.0277515 0.626813 0)
(0.135126 0.620108 0)
(0.374299 0.503919 0)
(0.293568 0.189864 0)
(0.332602 -0.150143 0)
(0.254926 -0.0942513 0)
(0.127172 -0.145238 0)
(-0.128648 -0.212687 0)
(-0.320658 -0.19723 0)
(-0.377035 -0.133938 0)
(-0.26351 -0.0502059 0)
(-0.180285 -0.134274 0)
(0.0396322 -0.0137836 0)
(0.00397915 0.0173427 0)
(0.064797 0.043139 0)
(0.0471055 -0.0765613 0)
(0.187951 -0.0620074 0)
(0.17572 -0.0195427 0)
(0.166666 -0.0907736 0)
(0.310538 -0.0808123 0)
(0.263885 -0.0327429 0)
(0.00966125 0.57496 0)
(0.0962559 0.853369 0)
(0.0662426 0.546546 0)
(0.0478025 0.392692 0)
(0.199069 -0.0480248 0)
(0.227228 -0.0823093 0)
(0.300153 -0.0728058 0)
(0.0378795 0.101367 0)
(-0.198008 0.348272 0)
(-0.227133 0.116649 0)
(-0.396432 0.0110994 0)
(-0.436361 -0.11455 0)
(-0.385361 -0.14638 0)
(-0.353251 -0.275751 0)
(-0.0595919 -0.172328 0)
(0.0209787 0.047677 0)
(0.109893 -0.0491545 0)
(0.0989716 -0.0690171 0)
(0.128596 -0.068197 0)
(0.11331 -0.0767511 0)
(0.157967 -0.0265713 0)
(0.284509 -0.123544 0)
(0.315612 -0.06994 0)
(0.06801 0.658936 0)
(0.239175 0.868867 0)
(0.256884 0.590094 0)
(0.0710962 0.335101 0)
(0.243843 0.0726813 0)
(0.128116 0.0564502 0)
(0.0916844 0.168542 0)
(-0.114624 0.336648 0)
(-0.277101 0.482782 0)
(-0.513168 0.1492 0)
(-0.537378 -0.0449788 0)
(-0.551425 -0.222592 0)
(-0.416996 -0.29084 0)
(-0.377885 -0.418571 0)
(-0.199239 -0.340677 0)
(-0.0399466 -0.0876829 0)
(0.0451128 -0.103594 0)
(0.0505697 -0.0827658 0)
(0.162159 -0.0627011 0)
(0.181976 -0.0747814 0)
(0.111179 -0.0296699 0)
(0.20584 -0.0469245 0)
(0.300243 -0.0625941 0)
(-0.0406312 0.883052 0)
(0.0731156 0.890884 0)
(0.126816 0.479714 0)
(0.0640926 0.323981 0)
(0.171012 0.0214623 0)
(0.203976 0.147194 0)
(0.0163364 0.451437 0)
(-0.106437 0.784718 0)
(-0.207469 0.541221 0)
(-0.40378 0.207259 0)
(-0.610493 0.0835227 0)
(-0.45571 -0.104143 0)
(-0.366692 -0.462446 0)
(-0.257428 -0.494702 0)
(-0.282212 -0.57423 0)
(-0.140984 -0.381872 0)
(0.0517076 -0.18063 0)
(0.0639587 -0.160548 0)
(0.0954651 -0.0768338 0)
(0.108342 -0.13832 0)
(0.152257 -0.0327654 0)
(0.238812 -0.0738389 0)
(0.376323 -0.177566 0)
(-0.0425405 0.77943 0)
(0.0485016 0.775314 0)
(0.0630803 0.383017 0)
(0.0894122 0.278643 0)
(0.121283 0.108543 0)
(0.0647952 0.208227 0)
(0.00793261 0.599745 0)
(-0.0894943 0.797195 0)
(-0.0672654 0.492322 0)
(-0.373896 0.348512 0)
(-0.420788 0.166136 0)
(-0.362643 -0.186726 0)
(-0.366485 -0.509772 0)
(-0.108372 -0.585599 0)
(-0.270389 -0.630312 0)
(-0.0525916 -0.408887 0)
(0.0985388 -0.182823 0)
(0.0581178 -0.180345 0)
(0.111878 -0.0903329 0)
(0.176345 -0.163602 0)
(0.152215 -0.105236 0)
(0.159505 -0.155325 0)
(0.25192 -0.155557 0)
(-0.0548449 0.814892 0)
(0.0392524 0.687558 0)
(0.0459063 0.372217 0)
(0.0635243 0.222814 0)
(0.111335 0.120673 0)
(0.0431137 0.363095 0)
(-0.0473274 0.760892 0)
(-0.153048 0.936779 0)
(-0.0209331 0.636402 0)
(0.054284 0.430271 0)
(0.198609 0.418231 0)
(-0.250485 -0.308479 0)
(-0.00913232 -0.362874 0)
(0.133884 -0.521358 0)
(-0.0937035 -0.571475 0)
(0.0159789 -0.42805 0)
(0.0182822 -0.358793 0)
(-0.0316411 -0.154047 0)
(0.044857 -0.0882823 0)
(0.108388 -0.147155 0)
(0.141748 -0.133983 0)
(0.163032 -0.124726 0)
(0.234064 -0.142904 0)
(-0.0689882 0.851585 0)
(0.0218419 0.577442 0)
(0.0103663 0.341111 0)
(0.0449825 0.142282 0)
(0.080772 0.150955 0)
(0.00401861 0.511955 0)
(0.00564352 0.757778 0)
(0.0319041 0.917905 0)
(0.18339 0.828236 0)
(0.0779758 0.585363 0)
(0.284443 0.352706 0)
(0.1477 -0.0761309 0)
(0.285469 -0.362781 0)
(0.261563 -0.515259 0)
(-0.00612149 -0.69834 0)
(-0.0878929 -0.503196 0)
(0.056239 -0.392514 0)
(0.145829 -0.249207 0)
(0.0631256 -0.191098 0)
(0.119391 -0.186928 0)
(0.129525 -0.138215 0)
(0.132011 -0.127744 0)
(0.200766 -0.187779 0)
(-0.0843847 0.921883 0)
(0.0292208 0.520212 0)
(-0.0302836 0.334349 0)
(0.0502367 0.0794737 0)
(0.0573072 0.203941 0)
(-0.0430958 0.549481 0)
(0.0356921 0.690658 0)
(0.0211375 0.742134 0)
(0.201403 0.67935 0)
(0.173711 0.40696 0)
(0.347749 0.25792 0)
(0.349364 -0.209689 0)
(0.436316 -0.282181 0)
(0.237496 -0.519954 0)
(0.208763 -0.592201 0)
(0.182731 -0.513985 0)
(0.111283 -0.291746 0)
(0.0847036 -0.273756 0)
(0.0775148 -0.180029 0)
(0.139159 -0.178415 0)
(0.165997 -0.160254 0)
(0.0893043 -0.206123 0)
(0.186688 -0.17488 0)
(-0.0783285 0.964815 0)
(0.0203244 0.468042 0)
(-0.0328261 0.314592 0)
(0.0616892 0.0557268 0)
(-0.0294376 0.230503 0)
(-0.0390102 0.546816 0)
(-0.00564685 0.596423 0)
(0.128568 0.603572 0)
(0.298608 0.392324 0)
(0.221702 0.315111 0)
(0.263025 0.174103 0)
(0.485911 -0.157146 0)
(0.578309 -0.256254 0)
(0.38711 -0.454368 0)
(0.278731 -0.475084 0)
(0.0548908 -0.388059 0)
(0.088034 -0.274473 0)
(0.138447 -0.220257 0)
(0.128056 -0.247552 0)
(0.124019 -0.165325 0)
(0.0752824 -0.217538 0)
(0.104271 -0.227117 0)
(0.202494 -0.274865 0)
(-0.0941542 1.0403 0)
(0.0163803 0.425453 0)
(-0.0382899 0.253874 0)
(0.0560901 0.106219 0)
(-0.106254 0.366391 0)
(-0.0788885 0.517722 0)
(-0.0188412 0.49075 0)
(0.0258883 0.44623 0)
(0.213307 0.170271 0)
(0.309904 0.0631853 0)
(0.279366 -0.022549 0)
(0.494737 -0.0165881 0)
(0.645023 -0.21316 0)
(0.28675 -0.324636 0)
(0.154307 -0.51861 0)
(0.185747 -0.365781 0)
(0.144854 -0.251223 0)
(0.0828527 -0.184733 0)
(0.102699 -0.234845 0)
(0.16565 -0.258102 0)
(0.105927 -0.286027 0)
(0.0719305 -0.237112 0)
(0.137566 -0.314819 0)
(-0.0687024 1.12084 0)
(-0.0156336 0.366094 0)
(-0.0564498 0.215562 0)
(-0.0643515 0.219724 0)
(-0.200933 0.445094 0)
(-0.118893 0.439276 0)
(-0.0825276 0.326496 0)
(0.0342407 0.234297 0)
(0.11083 0.203805 0)
(0.138026 0.048067 0)
(0.218372 -0.0232423 0)
(0.633777 -0.0345232 0)
(0.597457 -0.354359 0)
(0.287691 -0.428575 0)
(0.204647 -0.330262 0)
(0.166998 -0.222234 0)
(0.106015 -0.208385 0)
(0.120767 -0.232158 0)
(0.0550663 -0.222197 0)
(0.0772091 -0.288541 0)
(0.139442 -0.289835 0)
(0.0970035 -0.2532 0)
(0.0595399 -0.246109 0)
(-0.0926062 1.20295 0)
(-0.0500974 0.396564 0)
(-0.122844 0.33248 0)
(-0.203993 0.422265 0)
(-0.283991 0.4603 0)
(-0.14444 0.292561 0)
(-0.102008 0.195136 0)
(-0.0321587 0.0380573 0)
(0.0375377 0.0190758 0)
(0.1181 -0.0758774 0)
(0.171377 -0.0759935 0)
(0.351552 -0.227511 0)
(0.170297 -0.524615 0)
(0.0540101 -0.308761 0)
(0.153562 -0.26803 0)
(0.0796043 -0.283986 0)
(-0.0404089 -0.208838 0)
(0.0543436 -0.23564 0)
(0.0846421 -0.260645 0)
(0.0810068 -0.217404 0)
(0.150772 -0.28981 0)
(0.0811967 -0.287492 0)
(0.0828525 -0.305995 0)
(-0.0542443 1.38916 0)
(-0.186198 0.464812 0)