/*--------------------------------*- C++ -*----------------------------------*\
| =========                 |                                                 |
| \\      /  F ield         | foam-extend: Open Source CFD                    |
|  \\    /   O peration     | Version:     4.1                                |
|   \\  /    A nd           | Web:         http://www.foam-extend.org         |
|    \\/     M anipulation  |                                                 |
\*---------------------------------------------------------------------------*/
FoamFile
{
    version     2.0;
    format      ascii;
    class       volVectorField;
    location    "0.9";
    object      U_0;
}
// * * * * * * * * * * * * * * * * * * * * * * * * * * * * * * * * * * * * * //

dimensions      [0 1 -1 0 0 0 0];

internalField   nonuniform List<vector> 
2268
(
(-0.000335286 0.00432384 0)
(-0.0114417 0.00201764 0)
(-0.00756899 -0.00899084 0)
(-4.64497e-05 -0.0049766 0)
(0.00784169 -0.00141855 0)
(0.0107777 -0.000495203 0)
(0.0137027 -0.00057467 0)
(0.0192192 -0.00680329 0)
(0.0332145 -0.00438709 0)
(0.0385758 0.00207373 0)
(0.11347 -0.00781368 0)
(0.117707 -0.0227243 0)
(0.116642 -0.0034369 0)
(0.141982 -0.012423 0)
(0.167504 -0.021046 0)
(0.172187 -0.00333413 0)
(0.189551 0.0031478 0)
(0.172185 -0.00442155 0)
(0.174931 0.001179 0)
(0.158529 -0.0513686 0)
(0.0985824 0.0124616 0)
(0.066699 -0.0135406 0)
(0.0347227 0.0255561 0)
(0.0224603 0.0015189 0)
(0.00173047 0.00124629 0)
(0.00233106 0.0041091 0)
(0.00138429 -0.00177668 0)
(0.00756776 -0.00249781 0)
(0.0131429 -0.00142822 0)
(0.0167975 -0.00187158 0)
(0.0291447 0.00239472 0)
(0.0542635 -0.00591476 0)
(0.0550422 -0.0405053 0)
(0.106201 -0.0117671 0)
(0.115874 -0.0274303 0)
(0.116053 -0.0116862 0)
(0.134716 -0.0330624 0)
(0.155649 -0.00596864 0)
(0.176879 -0.0201946 0)
(0.178916 -0.00141696 0)
(0.177106 0.0228142 0)
(0.168267 0.0816772 0)
(0.176112 0.0146037 0)
(0.114893 0.0256833 0)
(0.0408434 0.0460313 0)
(0.0607838 0.0212802 0)
(0.0129176 -0.00175029 0)
(0.000651006 0.00549419 0)
(0.00542694 -0.00907691 0)
(0.00224916 -0.00565099 0)
(0.0106476 -0.00321579 0)
(0.0170819 -0.00435792 0)
(0.0225052 -0.00400856 0)
(0.023943 -0.016286 0)
(0.03172 -0.026647 0)
(0.0535139 -0.0428589 0)
(0.104303 -0.0392371 0)
(0.0877081 -0.0848805 0)
(0.0724161 -0.0345724 0)
(0.100845 -0.0475013 0)
(0.119865 -0.0334624 0)
(0.13454 0.004145 0)
(0.186334 -0.00310646 0)
(0.178113 -0.0103375 0)
(0.155908 0.0726857 0)
(0.130142 0.037303 0)
(0.124385 0.0589197 0)
(0.0675131 0.0517651 0)
(0.0392286 0.0807764 0)
(0.00664535 -0.00251863 0)
(-0.00624904 0.00283807 0)
(0.00364856 0.00152708 0)
(0.00729576 -0.00467405 0)
(0.0129767 -0.00420465 0)
(0.0153129 -0.00882682 0)
(0.0151326 -0.00711067 0)
(0.0153534 -0.0181435 0)
(0.0347359 -0.0357351 0)
(0.0393708 -0.0193075 0)
(0.03595 -0.0173295 0)
(0.0511679 -0.06109 0)
(0.0596987 -0.030525 0)
(0.073074 -0.0175444 0)
(0.124337 -0.0101527 0)
(0.121316 0.0110818 0)
(0.0988624 -0.00475844 0)
(0.136194 -0.0419634 0)
(0.135823 0.0362512 0)
(0.123695 0.0257071 0)
(0.112196 0.0751712 0)
(0.0537465 0.134802 0)
(0.0651873 0.060581 0)
(-0.00629608 -0.00134053 0)
(-0.00483873 0.00464103 0)
(0.00620108 -0.0155458 0)
(0.00615495 -0.0109846 0)
(0.00965015 -0.00956647 0)
(0.009225 -0.00516532 0)
(0.0106101 -0.0107583 0)
(0.00650694 -0.015173 0)
(-0.00138366 -0.0395504 0)
(0.0278675 -0.0256395 0)
(0.0145955 -0.0639291 0)
(0.0198291 -0.0851699 0)
(0.0507776 -0.0978753 0)
(0.084969 -0.0784101 0)
(0.110887 -0.0266175 0)
(0.11098 -0.0283766 0)
(0.10558 -0.0201429 0)
(0.125036 0.0327267 0)
(0.0959321 0.0181884 0)
(0.0969162 0.0446551 0)
(0.129518 0.0386779 0)
(0.0312609 0.121048 0)
(0.00429014 0.141963 0)
(-0.00253391 6.75432e-05 0)
(-0.0102112 0.00131298 0)
(-0.00106149 -0.00403443 0)
(0.014273 -0.00570962 0)
(0.0210534 -0.00703713 0)
(0.0143508 -0.00601832 0)
(-0.00895132 -0.00303627 0)
(-0.0276416 -0.0117535 0)
(-0.0177648 -0.0129179 0)
(-0.0219347 -0.0324719 0)
(-0.022343 -0.0695833 0)
(0.00684362 -0.0893466 0)
(0.0447487 -0.0861132 0)
(0.0922138 -0.0870138 0)
(0.147762 -0.0365175 0)
(0.139264 0.00173286 0)
(0.134608 -0.00113595 0)
(0.144564 0.00338445 0)
(0.104298 0.0237736 0)
(0.072803 0.052562 0)
(0.0935565 0.0570627 0)
(0.0678339 0.0950616 0)
(0.061055 0.197806 0)
(-0.00641497 0.00165408 0)
(-0.0138971 0.00261095 0)
(-0.0127496 -0.0280941 0)
(-0.0173941 -0.0248091 0)
(-0.0187671 0.000399099 0)
(-0.036482 0.0017422 0)
(-0.0421462 0.000322985 0)
(-0.0484847 -0.0142249 0)
(-0.0395183 -0.0235028 0)
(-0.0261564 -0.0189838 0)
(-0.0114202 -0.0103951 0)
(0.00702315 -0.0265016 0)
(0.0470097 -0.0291003 0)
(0.103378 -0.0695113 0)
(0.14902 -0.0687823 0)
(0.156169 -0.0134367 0)
(0.142075 0.0387437 0)
(0.175854 -0.00706753 0)
(0.157504 0.0727658 0)
(0.0858128 0.15027 0)
(0.122683 0.0552962 0)
(0.086079 0.111176 0)
(0.0747992 0.307669 0)
(6.88084e-05 0.00441403 0)
(-0.0384792 0.0109593 0)
(-0.0515979 -0.00113265 0)
(-0.0449785 -0.02257 0)
(-0.0485367 0.00519951 0)
(-0.0616979 0.00580943 0)
(-0.0612706 0.00200267 0)
(-0.0618651 -0.0116706 0)
(-0.026626 -0.0280646 0)
(-0.00680028 -0.0537598 0)
(-0.00353485 -0.0906405 0)
(0.0117808 -0.109118 0)
(0.00156479 -0.144589 0)
(0.0318174 -0.0843997 0)
(0.143911 -0.0978604 0)
(0.203605 -0.0157185 0)
(0.18211 0.0176248 0)
(0.242359 0.0604011 0)
(0.256143 -0.00827901 0)
(0.143512 0.153134 0)
(0.107381 0.0137702 0)
(0.169953 0.081452 0)
(0.125795 0.30376 0)
(-1.14356 0.248053 0)
(-1.37811 0.192308 0)
(-1.54043 -0.00283373 0)
(-1.60725 -0.0172231 0)
(-1.41972 -0.0895778 0)
(-1.29594 -0.0278763 0)
(-1.14017 -0.0468302 0)
(-1.01691 -0.0447203 0)
(-0.932768 -0.0274172 0)
(-0.75174 -0.0513247 0)
(-0.671282 -0.0429604 0)
(-0.549463 -0.036044 0)
(-0.466487 -0.0486657 0)
(-0.376001 -0.000547934 0)
(-0.316801 -0.0471904 0)
(-0.306618 -0.0431953 0)
(-0.219323 -0.0173304 0)
(-0.205488 -0.0605959 0)
(-0.044193 -0.0174367 0)
(-1.05454 0.360922 0)
(-1.13157 0.386461 0)
(-1.06643 0.110982 0)
(-1.12543 0.0404844 0)
(-0.958873 -0.126224 0)
(-0.809755 -0.0754112 0)
(-0.727075 -0.0784585 0)
(-0.689947 -0.0413384 0)
(-0.586842 -0.0881799 0)
(-0.434658 -0.0604662 0)
(-0.365105 -0.0417747 0)
(-0.31867 -0.0443773 0)
(-0.241659 -0.0383715 0)
(-0.251736 -0.116299 0)
(-0.0543533 -0.120789 0)
(-0.240311 0.0164602 0)
(-0.207921 0.0845487 0)
(-0.157612 -0.0853794 0)
(-0.0303672 -0.0912504 0)
(-0.975109 0.657852 0)
(-0.818856 0.622584 0)
(-0.669246 0.064208 0)
(-0.804956 -0.0523776 0)
(-0.758267 -0.0875802 0)
(-0.486584 -0.142326 0)
(-0.390184 -0.122224 0)
(-0.36086 -0.091468 0)
(-0.310999 -0.138362 0)
(-0.194373 -0.145236 0)
(-0.131834 -0.102114 0)
(-0.110272 -0.222854 0)
(0.017092 -0.192525 0)
(-0.094411 -0.0550105 0)
(0.0703337 -0.208589 0)
(-0.0978747 0.010207 0)
(-0.114679 0.0155488 0)
(-0.0792721 -0.0508039 0)
(0.0439799 -0.0963714 0)
(-0.797583 0.760485 0)
(-0.574985 0.615622 0)
(-0.424922 0.0310758 0)
(-0.585911 -0.159629 0)
(-0.613898 -0.0214429 0)
(-0.363244 -0.213083 0)
(-0.217952 -0.107032 0)
(-0.204778 -0.0750405 0)
(-0.0508256 -0.151818 0)
(-0.0625897 -0.13845 0)
(-0.00881806 -0.0843727 0)
(0.0325029 -0.143302 0)
(0.0873308 -0.283928 0)
(0.141525 -0.0649957 0)
(0.189073 -0.10401 0)
(0.221256 0.0206881 0)
(0.190242 0.0899566 0)
(-0.00937036 -0.0474384 0)
(0.0957601 -0.109179 0)
(-0.648032 0.891455 0)
(-0.367597 0.772987 0)
(-0.314783 0.0553994 0)
(-0.456859 -0.151818 0)
(-0.375325 -0.268833 0)
(-0.0494098 -0.315256 0)
(-0.0372516 -0.334881 0)
(-0.190582 -0.0497673 0)
(0.150127 -0.20673 0)
(0.135915 -0.17376 0)
(0.146744 -0.12979 0)
(0.0841432 -0.0854546 0)
(0.210878 -0.170303 0)
(0.241064 -0.142861 0)
(0.230172 -0.081918 0)
(0.243246 0.0556621 0)
(0.276276 0.0554615 0)
(0.171121 0.0174728 0)
(0.148747 -0.0753846 0)
(-0.556721 0.97138 0)
(-0.195411 0.712784 0)
(-0.277924 0.0392951 0)
(-0.392079 -0.113585 0)
(-0.222711 -0.277799 0)
(0.203044 -0.343314 0)
(0.176879 -0.501626 0)
(0.136745 -0.105743 0)
(0.245103 -0.224497 0)
(0.234879 -0.183745 0)
(0.239424 -0.0737972 0)
(0.203011 -0.112391 0)
(0.225857 -0.106947 0)
(0.270605 -0.168691 0)
(0.291423 -0.135336 0)
(0.23959 0.0717469 0)
(0.280865 0.0404041 0)
(0.241916 0.111167 0)
(0.159172 -0.041656 0)
(-0.383016 1.03537 0)
(-0.0474745 0.836379 0)
(-0.115528 0.13634 0)
(-0.134329 -0.14411 0)
(0.0305918 -0.302457 0)
(0.357569 -0.425364 0)
(0.429563 -0.299271 0)
(0.464576 -0.293987 0)
(0.410058 -0.257426 0)
(0.393968 -0.205711 0)
(0.383789 -0.103466 0)
(0.266719 -0.0671916 0)
(0.270729 -0.100314 0)
(0.281883 -0.133517 0)
(0.321437 -0.163951 0)
(0.29014 0.0394471 0)
(0.300005 0.0336127 0)
(0.268056 0.105273 0)
(0.157623 0.0134261 0)
(-0.315713 1.10962 0)
(0.137801 0.757578 0)
(0.137666 0.0293925 0)
(0.0915466 -0.312629 0)
(0.316031 -0.346222 0)
(0.502737 -0.443739 0)
(0.498829 -0.228655 0)
(0.517098 -0.266825 0)
(0.456038 -0.24857 0)
(0.511132 -0.147154 0)
(0.473933 -0.021556 0)
(0.300657 -0.0922668 0)
(0.3032 -0.113767 0)
(0.291913 -0.0781638 0)
(0.318469 -0.156509 0)
(0.313465 0.00679956 0)
(0.33854 0.0711857 0)
(0.277897 0.183707 0)
(0.180275 0.136772 0)
(-0.017468 0.0142829 0)
(-0.0250605 0.0151216 0)
(-0.0653815 0.016331 0)
(-0.065552 0.00149621 0)
(-0.0496407 0.00998584 0)
(-0.0688717 0.00737027 0)
(-0.0670156 0.000616691 0)
(-0.0712461 -0.045374 0)
(-0.0570086 -0.0561244 0)
(-0.0500838 -0.12906 0)
(-0.0267348 -0.121285 0)
(-0.0144064 -0.18768 0)
(0.0117495 -0.228072 0)
(0.020127 -0.191128 0)
(0.00637601 -0.0750799 0)
(0.126237 -0.132548 0)
(0.223086 0.00626094 0)
(0.209855 0.0845728 0)
(0.284449 0.0463029 0)
(0.249282 0.0309958 0)
(0.20268 0.0592281 0)
(0.271926 0.0832231 0)
(0.243187 0.137255 0)
(-0.00732863 0.021113 0)
(-0.0247526 0.034174 0)
(-0.0244015 0.0115462 0)
(-0.00570407 0.021981 0)
(-0.0185088 0.00671725 0)
(-0.0369956 0.0244655 0)
(-0.0822061 0.0109631 0)
(-0.0872913 -0.0514159 0)
(-0.130196 -0.0457448 0)
(-0.156178 -0.0832074 0)
(-0.219262 -0.0166461 0)
(-0.305628 -0.166816 0)
(-0.253062 -0.167136 0)
(-0.177086 -0.198476 0)
(-0.105582 -0.217927 0)
(-0.0545129 -0.200172 0)
(-0.0705066 -0.0818964 0)
(0.238098 0.0716752 0)
(0.206394 0.152031 0)
(0.210051 0.12057 0)
(0.234017 0.170898 0)
(0.226358 0.0946172 0)
(0.308954 0.112438 0)
(0.00157019 0.0308092 0)
(0.0120653 0.0223981 0)
(0.024145 0.0338022 0)
(0.00302851 0.0199204 0)
(-0.0019422 0.0591433 0)
(-0.0257468 0.0646571 0)
(-0.112456 0.0516162 0)
(-0.111521 0.0380312 0)
(-0.150623 0.0285419 0)
(-0.175752 0.0549856 0)
(-0.422736 0.0188666 0)
(-0.439312 0.0544828 0)
(-0.352213 -0.177711 0)
(-0.407945 -0.204821 0)
(-0.43482 -0.190971 0)
(-0.419257 -0.179128 0)
(-0.408281 -0.240241 0)
(-0.224208 -0.0805531 0)
(-0.159689 -0.00930161 0)
(-0.0325017 0.0638834 0)
(-0.00875105 -0.118769 0)
(0.1874 -0.048132 0)
(0.284002 -0.00395049 0)
(0.00674874 0.00389885 0)
(0.0602295 0.0151922 0)
(0.0808061 -0.00865871 0)
(0.152778 0.0306554 0)
(0.141218 0.0904593 0)
(0.0120286 0.230672 0)
(-0.0191917 0.175876 0)
(-0.190021 0.200533 0)
(-0.298625 0.109822 0)
(-0.343063 0.0942017 0)
(-0.314969 -0.0316327 0)
(-0.528617 0.0334665 0)
(-0.542201 -0.166077 0)
(-0.351401 -0.217241 0)
(-0.4833 -0.209221 0)
(-0.579345 -0.278993 0)
(-0.587603 -0.285701 0)
(-0.525208 -0.170537 0)
(-0.53373 -0.101541 0)
(-0.443956 -0.0514259 0)
(-0.381153 -0.0905043 0)
(-0.336693 -0.0362887 0)
(-0.417345 0.0900746 0)
(0.0601038 -0.0327844 0)
(0.169667 -0.0829223 0)
(0.215205 -0.112516 0)
(0.266886 -0.0602127 0)
(0.369748 0.147464 0)
(0.270059 0.331186 0)
(0.0138869 0.262425 0)
(-0.164863 0.278346 0)
(-0.17891 0.341023 0)
(-0.258802 0.276023 0)
(-0.236957 0.0657044 0)
(-0.251887 -0.0564524 0)
(-0.312478 0.0637046 0)
(-0.282957 -0.139433 0)
(-0.593963 -0.220342 0)
(-0.725966 -0.259775 0)
(-0.561309 -0.236815 0)
(-0.545831 -0.128293 0)
(-0.593986 -0.0456833 0)
(-0.656515 -0.111172 0)
(-0.660381 -0.15455 0)
(-0.64295 0.0536356 0)
(-0.688256 0.160262 0)
(0.0541278 -0.122476 0)
(0.173541 -0.205276 0)
(0.254035 -0.208383 0)
(0.422729 -0.0975521 0)
(0.428596 0.234142 0)
(0.169015 0.368768 0)
(-0.0201416 0.412836 0)
(-0.0791952 0.397695 0)
(-0.172483 0.326467 0)
(-0.341886 0.197203 0)
(-0.369757 0.0559744 0)
(-0.48478 0.0539821 0)
(-0.53509 -0.0036839 0)
(-0.583994 0.0266808 0)
(-0.777162 -0.112289 0)
(-0.887331 -0.0806157 0)
(-0.892282 -0.0591002 0)
(-0.797186 -0.11563 0)
(-1.08503 -0.160628 0)
(-1.23108 -0.0749735 0)
(-0.752188 -0.0112459 0)
(-0.627356 0.0313158 0)
(-0.703967 0.182012 0)
(0.107824 -0.264633 0)
(0.0668741 -0.34175 0)
(-0.00776027 -0.200841 0)
(-0.0389429 0.119488 0)
(-0.0327103 0.147401 0)
(-0.103894 0.43397 0)
(-0.170253 0.477452 0)
(-0.197392 0.417673 0)
(-0.320546 0.313768 0)
(-0.444424 0.251438 0)
(-0.544817 0.31573 0)
(-0.746648 0.145652 0)
(-0.85021 0.154408 0)
(-0.882053 0.0249304 0)
(-0.960001 -0.0831618 0)
(-0.962731 -0.128198 0)
(-0.974633 -0.0836436 0)
(-1.0005 -0.310843 0)
(-0.990703 -0.394683 0)
(-1.04413 -0.108089 0)
(-1.00129 0.0148199 0)
(-0.88839 -0.00797887 0)
(-0.831364 0.0264999 0)
(0.0155087 -0.286294 0)
(-0.221605 -0.343319 0)
(-0.330476 -0.0998217 0)
(-0.300493 0.089386 0)
(-0.465 0.323698 0)
(-0.426497 0.50791 0)
(-0.456141 0.54489 0)
(-0.431996 0.547091 0)
(-0.518677 0.509223 0)
(-0.539562 0.433802 0)
(-0.738082 0.43885 0)
(-0.830801 0.364992 0)
(-0.834579 0.331106 0)
(-0.823776 0.103608 0)
(-0.849656 0.0143517 0)
(-0.787207 -0.0452936 0)
(-1.10618 -0.13731 0)
(-1.28107 -0.109745 0)
(-0.913019 -0.154122 0)
(-0.818896 -0.164702 0)
(-0.802701 -0.0676584 0)
(-0.778749 -0.0748764 0)
(-0.760452 -0.0531626 0)
(-0.0880218 -0.0761354 0)
(-0.252362 0.0156165 0)
(-0.497815 0.116162 0)
(-0.590831 0.13787 0)
(-0.640469 0.239617 0)
(-0.618211 0.43894 0)
(-0.623257 0.498578 0)
(-0.607254 0.518731 0)
(-0.637325 0.486944 0)
(-0.658845 0.404417 0)
(-0.706192 0.370409 0)
(-0.707354 0.309539 0)
(-0.724338 0.184302 0)
(-0.750618 -0.00753652 0)
(-0.696516 -0.103669 0)
(-0.690238 -0.199361 0)
(-0.728305 -0.386927 0)
(-0.898115 -0.152117 0)
(-0.854193 -0.0296935 0)
(-0.772662 -0.0835722 0)
(-0.997435 -0.164884 0)
(-1.14003 -0.134096 0)
(-0.676755 -0.0987473 0)
(-0.173842 0.0799028 0)
(-0.400125 0.250303 0)
(-0.544021 0.271829 0)
(-0.702449 0.240331 0)
(-0.751467 0.36683 0)
(-0.706819 0.474969 0)
(-0.757577 0.528666 0)
(-0.734716 0.581421 0)
(-0.778748 0.553361 0)
(-0.661084 0.495658 0)
(-0.611806 0.449784 0)
(-0.629904 0.317336 0)
(-0.563103 0.149356 0)
(-0.532193 0.070999 0)
(-0.496346 0.0180975 0)
(-0.524786 -0.0298723 0)
(-0.512328 -0.243601 0)
(-0.497952 -0.261473 0)
(-0.457056 -0.232243 0)
(-0.3976 -0.254241 0)
(-0.445753 -0.448392 0)
(-0.601046 -0.0879407 0)
(-0.530303 0.0577993 0)
(-0.227674 0.466468 0)
(-0.195031 0.650537 0)
(-0.481715 0.339863 0)
(-0.749865 0.41579 0)
(-0.783815 0.577654 0)
(-0.767977 0.476385 0)
(-0.751707 0.487454 0)
(-0.773255 0.57577 0)
(-0.832728 0.575549 0)
(-0.69609 0.642547 0)
(-0.61408 0.383074 0)
(-0.50496 0.299217 0)
(-0.325782 0.0720278 0)
(-0.301979 -0.0754427 0)
(-0.175786 -0.112523 0)
(-0.19606 -0.150613 0)
(-0.221384 -0.100123 0)
(-0.314835 -0.0623687 0)
(-0.322665 -0.177726 0)
(-0.281353 -0.204614 0)
(-0.26142 -0.314726 0)
(-0.317607 -0.289072 0)
(-0.216112 -0.249419 0)
(-0.112849 0.542662 0)
(-0.291086 0.650343 0)
(-0.499868 0.37292 0)
(-0.55945 0.459393 0)
(-0.758322 0.610293 0)
(-0.927645 0.47431 0)
(-0.677607 0.506918 0)
(-0.637753 0.447852 0)
(-0.764118 0.509835 0)
(-0.588704 0.557203 0)
(-0.449486 0.333653 0)
(-0.265279 0.360271 0)
(-0.271551 0.023011 0)
(-0.122134 -0.124468 0)
(-0.0582262 -0.0869828 0)
(-0.088504 -0.030837 0)
(-0.166728 -0.113006 0)
(-0.227891 -0.0965825 0)
(-0.241366 -0.0708661 0)
(-0.247154 -0.09756 0)
(-0.241342 -0.103881 0)
(-0.256251 -0.146389 0)
(-0.214804 -0.10776 0)
(-0.00342891 0.645614 0)
(-0.287229 0.685379 0)
(-0.442389 0.543952 0)
(-0.339634 0.540121 0)
(-0.646114 0.398682 0)
(-0.728061 0.486434 0)
(-0.495089 0.644926 0)
(-0.516295 0.364046 0)
(-0.550278 0.448842 0)
(-0.161969 0.369191 0)
(-0.0144733 0.228702 0)
(0.0532289 0.0637424 0)
(0.110154 -0.140956 0)
(0.0496779 -0.277339 0)
(-0.0439892 -0.147212 0)
(-0.0248567 -0.0132982 0)
(-0.118681 0.0306819 0)
(-0.173797 -0.0138414 0)
(-0.156262 -0.161097 0)
(-0.146168 -0.229627 0)
(-0.235364 -0.284566 0)
(-0.221448 -0.330132 0)
(-0.138488 -0.320995 0)
(0.035157 0.797072 0)
(-0.219907 0.732568 0)
(-0.346702 0.725382 0)
(-0.375454 0.600718 0)
(-0.497099 0.495616 0)
(-0.320911 0.738364 0)
(-0.0856865 0.478764 0)
(-0.0135473 0.308246 0)
(-0.0831989 0.520116 0)
(0.249848 0.0675469 0)
(0.39578 -0.0194489 0)
(0.446786 0.01442 0)
(0.426391 0.0620001 0)
(0.25661 -0.000340673 0)
(0.0276339 0.0101576 0)
(-0.0665996 0.0291645 0)
(-0.115076 -0.106906 0)
(-0.153038 -0.158885 0)
(-0.0659959 -0.250061 0)
(-0.0519474 -0.283827 0)
(-0.0191878 -0.316876 0)
(-0.056026 -0.244457 0)
(-0.0457219 -0.35429 0)
(0.0500844 0.855718 0)
(-0.194751 0.754905 0)
(-0.296977 0.702604 0)
(-0.242663 0.629359 0)
(-0.117537 0.621093 0)
(-0.142674 0.692293 0)
(-0.0712046 0.298343 0)
(0.277752 0.28768 0)
(0.0997894 0.241921 0)
(0.426524 -0.0469504 0)
(0.539281 -0.1887 0)
(0.528885 0.0163805 0)
(0.611029 0.0889178 0)
(0.395518 0.11171 0)
(0.396152 0.159096 0)
(0.417572 0.136153 0)
(0.426647 0.114045 0)
(0.385145 0.0462779 0)
(0.307662 -0.102296 0)
(0.267269 -0.0994154 0)
(0.206553 -0.0105268 0)
(0.229864 -0.0762016 0)
(0.174615 -0.0831918 0)
(0.0515967 0.925281 0)
(-0.179016 0.810501 0)
(-0.207614 0.704976 0)
(-0.077113 0.491088 0)
(-0.0836087 0.505252 0)
(0.0266843 0.300968 0)
(0.236085 0.231552 0)
(0.338004 0.0986 0)
(0.317223 0.127617 0)
(0.410139 -0.00478543 0)
(0.403185 -0.290199 0)
(0.52109 0.0417698 0)
(0.443689 -0.0162273 0)
(0.460272 0.117067 0)
(0.40644 0.114194 0)
(0.473148 0.0841663 0)
(0.726014 -0.0365619 0)
(0.559093 -0.166657 0)
(0.304878 -0.0524432 0)
(0.417013 -0.119797 0)
(0.407337 -0.125736 0)
(0.298631 -0.18899 0)
(0.290481 -0.24161 0)
(0.0639163 0.98503 0)
(-0.162832 0.844898 0)
(-0.189609 0.784563 0)
(-0.038143 0.529705 0)
(0.046652 0.467498 0)
(0.0368337 0.25061 0)
(0.132627 -0.000639659 0)
(0.272695 -0.0331104 0)
(0.290744 0.112672 0)
(0.295645 -0.0303528 0)
(0.260684 -0.196666 0)
(0.270796 -0.213575 0)
(0.39685 0.062421 0)
(0.515657 0.175069 0)
(0.373558 0.156061 0)
(0.487001 0.192268 0)
(0.436286 0.122311 0)
(0.510039 0.00563248 0)
(0.511201 -0.112441 0)
(0.353023 0.0866372 0)
(0.312585 -0.104491 0)
(0.35412 -0.0549593 0)
(0.44997 -0.1481 0)
(0.0517591 1.03019 0)
(-0.0936317 0.882229 0)
(-0.143564 0.781488 0)
(-0.0719986 0.851388 0)
(-0.0598723 0.477016 0)
(-0.0846883 0.213886 0)
(0.113563 -0.0103837 0)
(0.290139 -0.0955036 0)
(0.276467 0.0891036 0)
(0.263034 0.0153363 0)
(0.283683 -0.0468575 0)
(0.219516 -0.199473 0)
(0.235505 -0.0653602 0)
(0.201284 -0.055526 0)
(0.292834 -0.065033 0)
(0.359213 0.0235718 0)
(0.418045 0.054795 0)
(0.355564 0.0583541 0)
(0.484357 -0.083432 0)
(0.449869 -0.0237717 0)
(0.336166 -0.0747229 0)
(0.394656 -0.0695862 0)
(0.357924 -0.180877 0)
(0.051221 1.05581 0)
(-0.0552717 0.906589 0)
(-0.0158977 0.790476 0)
(-0.0940495 0.641738 0)
(-0.327638 0.373494 0)
(-0.0341619 0.167761 0)
(0.0539315 -0.234144 0)
(0.11774 -0.175116 0)
(0.213497 -0.114544 0)
(0.373317 -0.0765478 0)
(0.434395 0.072537 0)
(0.335366 -0.0140621 0)
(0.209838 -0.0383219 0)
(0.220726 0.0162066 0)
(0.259297 0.0377697 0)
(0.496456 0.102053 0)
(0.404908 0.051312 0)
(0.302486 0.0442798 0)
(0.39694 0.059244 0)
(0.376247 -0.0614576 0)
(0.323495 -0.0351921 0)
(0.303029 -0.0857573 0)
(0.300436 -0.125192 0)
(0.0486948 1.05708 0)
(0.00172861 0.97335 0)
(0.0895576 0.720583 0)
(0.0314006 0.577314 0)
(-0.16861 0.257197 0)
(-0.0506261 -0.0121933 0)
(-0.141938 -0.235334 0)
(0.0365482 -0.3381 0)
(0.10613 -0.305598 0)
(0.30715 -0.218131 0)
(0.482522 0.0264118 0)
(0.36004 0.0856384 0)
(0.280344 0.00874606 0)
(0.175667 -0.0454981 0)
(0.172678 -0.0381844 0)
(0.190271 -0.0953527 0)
(0.280476 -0.113239 0)
(0.287411 -0.050188 0)
(0.352651 -0.0886017 0)
(0.354797 0.0226946 0)
(0.321494 -0.0167332 0)
(0.336454 -0.0806177 0)
(0.317006 -0.0460818 0)
(0.0575697 1.04658 0)
(-0.0309803 1.00082 0)
(0.136591 0.795799 0)
(0.292963 0.760349 0)
(0.0451797 0.472855 0)
(-0.0447061 0.150519 0)
(-0.118598 -0.223816 0)
(0.0364422 -0.447337 0)
(0.271407 -0.431418 0)
(0.250095 -0.366703 0)
(0.348907 -0.313946 0)
(0.373267 0.0639335 0)
(0.37585 0.164461 0)
(0.369032 0.110355 0)
(0.195611 0.0214603 0)
(0.237378 -0.08816 0)
(0.317323 -0.072298 0)
(0.283617 -0.06228 0)
(0.432224 -0.0257855 0)
(0.418629 -0.0313044 0)
(0.205486 -0.0139409 0)
(0.294258 -0.0383012 0)
(0.377079 -0.0818229 0)
(0.0803848 1.03866 0)
(0.0465997 1.00227 0)
(0.261411 1.01894 0)
(0.326696 0.828849 0)
(0.0777808 0.539657 0)
(0.147829 0.171723 0)
(0.100711 -0.267953 0)
(0.148168 -0.418549 0)
(0.136935 -0.420266 0)
(0.205763 -0.381877 0)
(0.332513 -0.348042 0)
(0.560999 0.0264939 0)
(0.465015 0.229058 0)
(0.373437 0.172745 0)
(0.33272 0.095917 0)
(0.331283 -0.166738 0)
(0.3387 -0.130692 0)
(0.318672 -0.0842506 0)
(0.346167 0.101688 0)
(0.317116 -0.0265476 0)
(0.30345 0.0155299 0)
(0.308771 0.0460922 0)
(0.306678 -0.0661056 0)
(0.115984 0.970334 0)
(0.0860925 0.83576 0)
(0.296511 0.860851 0)
(0.353662 0.738217 0)
(0.139565 0.584421 0)
(0.273179 0.18268 0)
(0.192463 -0.248445 0)
(0.174299 -0.363636 0)
(0.137584 -0.501199 0)
(0.198172 -0.523637 0)
(0.229478 -0.405865 0)
(0.408006 -0.0465398 0)
(0.372144 0.162932 0)
(0.42576 0.226768 0)
(0.464601 0.165771 0)
(0.465134 -0.0173438 0)
(0.568175 -0.105358 0)
(0.384291 -0.0809843 0)
(0.306542 -0.0172531 0)
(0.217618 -0.00605939 0)
(0.271549 -0.00194596 0)
(0.237285 -0.0051374 0)
(0.33081 -0.0737928 0)
(0.0165224 0.944056 0)
(0.0755051 0.844103 0)
(0.378407 0.920519 0)
(0.444079 0.718949 0)
(0.272215 0.573354 0)
(0.247052 0.147081 0)
(0.274326 -0.172139 0)
(0.275915 -0.371221 0)
(0.0869068 -0.573187 0)
(0.243312 -0.64056 0)
(0.383455 -0.523247 0)
(0.265145 -0.1482 0)
(0.346533 0.186332 0)
(0.394725 0.279607 0)
(0.346131 0.149405 0)
(0.421953 0.129929 0)
(0.401186 0.000551003 0)
(0.32484 0.0316398 0)
(0.279533 -0.0293996 0)
(0.276732 -0.0179297 0)
(0.294016 -0.0041503 0)
(0.253799 -0.0180371 0)
(0.326667 0.0333201 0)
(0.0322699 0.892906 0)
(0.150633 1.00316 0)
(0.251809 0.908909 0)
(0.317599 0.763376 0)
(0.296904 0.472051 0)
(0.390283 0.154267 0)
(0.321488 -0.119513 0)
(0.279618 -0.495979 0)
(0.364398 -0.595517 0)
(0.282769 -0.609022 0)
(0.334956 -0.44227 0)
(0.321539 -0.0404662 0)
(0.11197 0.265804 0)
(0.16286 0.087025 0)
(0.192206 0.0335599 0)
(0.318072 0.0265964 0)
(0.229077 -0.0129597 0)
(0.192361 0.0125476 0)
(0.0837736 0.00975483 0)
(0.170761 0.00721743 0)
(0.307845 0.00886188 0)
(0.284042 0.00254922 0)
(0.3759 0.0614083 0)
(0.0293906 0.731493 0)
(0.115763 0.878775 0)
(0.229783 0.612316 0)
(0.305396 0.661961 0)
(0.281271 0.474448 0)
(0.55353 0.171215 0)
(0.449826 -0.130174 0)
(0.463743 -0.353841 0)
(0.481632 -0.594358 0)
(0.0960634 -0.577703 0)
(0.04952 -0.366206 0)
(-0.0585555 -0.00571561 0)
(0.0202662 0.200682 0)
(0.0508796 0.019421 0)
(0.186973 0.123211 0)
(0.185397 0.0581327 0)
(0.0490092 0.0464262 0)
(0.109706 -0.000161308 0)
(0.176261 -0.0267393 0)
(0.249289 -0.0156386 0)
(0.276391 -0.0495455 0)
(0.285496 -0.0549128 0)
(0.302405 -0.0204085 0)
(0.0114581 0.660826 0)
(0.0811061 0.896329 0)
(-0.011103 0.594115 0)
(0.16201 0.570096 0)
(0.422244 0.567029 0)
(0.676851 0.0639417 0)
(0.579975 -0.130408 0)
(0.272037 -0.161882 0)
(0.146374 -0.476345 0)
(-0.0338249 -0.303916 0)
(-0.225108 -0.237863 0)
(-0.223261 -0.0182399 0)
(-0.0685797 0.155938 0)
(-0.0134203 0.0466017 0)
(0.101482 0.0916075 0)
(0.00427828 0.0143365 0)
(0.112366 0.0561459 0)
(0.134677 0.029939 0)
(0.0803264 -0.0708424 0)
(0.17794 -0.0084791 0)
(0.258793 -0.117776 0)
(0.258628 -0.0781882 0)
(0.283792 0.00267196 0)
(0.0131792 0.652832 0)
(0.0903051 0.935563 0)
(0.0279106 0.631715 0)
(0.134733 0.622506 0)
(0.376075 0.502466 0)
(0.292791 0.185678 0)
(0.331817 -0.148509 0)
(0.251717 -0.0879486 0)
(0.116042 -0.142896 0)
(-0.13176 -0.208125 0)
(-0.32224 -0.191607 0)
(-0.378875 -0.126091 0)
(-0.260203 -0.0417441 0)
(-0.177006 -0.129748 0)
(0.0418749 -0.00994995 0)
(0.00830845 0.0181451 0)
(0.0681285 0.0435613 0)
(0.048563 -0.0783036 0)
(0.189363 -0.064075 0)
(0.177187 -0.0222257 0)
(0.168536 -0.093291 0)
(0.313174 -0.0839388 0)
(0.265303 -0.0353014 0)
(0.00935887 0.582989 0)
(0.0954097 0.859777 0)
(0.0680194 0.55079 0)
(0.0478852 0.394201 0)
(0.199859 -0.0482131 0)
(0.224115 -0.0800219 0)
(0.297052 -0.0656893 0)
(0.0328869 0.108916 0)
(-0.201471 0.353009 0)
(-0.230894 0.120339 0)
(-0.397883 0.0178572 0)
(-0.434549 -0.108335 0)
(-0.382302 -0.138961 0)
(-0.350065 -0.269467 0)
(-0.0575784 -0.167645 0)
(0.0224122 0.0481937 0)
(0.112184 -0.0494312 0)
(0.0996959 -0.0702686 0)
(0.130041 -0.0700018 0)
(0.114379 -0.0782874 0)
(0.15827 -0.0292251 0)
(0.285578 -0.126371 0)
(0.317704 -0.0734468 0)
(0.0686656 0.667591 0)
(0.240537 0.874636 0)
(0.259738 0.594311 0)
(0.0718059 0.338453 0)
(0.244421 0.0753594 0)
(0.127721 0.0598071 0)
(0.0887008 0.179598 0)
(-0.114648 0.343292 0)
(-0.274726 0.486474 0)
(-0.515147 0.153782 0)
(-0.537483 -0.0421382 0)
(-0.552551 -0.218534 0)
(-0.418729 -0.285451 0)
(-0.377157 -0.41389 0)
(-0.197211 -0.336252 0)
(-0.0372153 -0.0857252 0)
(0.0475578 -0.103928 0)
(0.0511887 -0.0833364 0)
(0.163285 -0.0644662 0)
(0.182737 -0.0762481 0)
(0.112324 -0.0314611 0)
(0.207361 -0.0484787 0)
(0.30228 -0.0652098 0)
(-0.0403134 0.893741 0)
(0.0734884 0.896765 0)
(0.127971 0.483383 0)
(0.0641332 0.328463 0)
(0.171303 0.0272124 0)
(0.201215 0.155888 0)
(0.0113025 0.461566 0)
(-0.106659 0.789468 0)
(-0.206827 0.54437 0)
(-0.405692 0.209829 0)
(-0.611926 0.0819916 0)
(-0.456391 -0.0979063 0)
(-0.36631 -0.458585 0)
(-0.256556 -0.491175 0)
(-0.280185 -0.57036 0)
(-0.137859 -0.379503 0)
(0.0537247 -0.180382 0)
(0.065033 -0.160862 0)
(0.0966449 -0.0784415 0)
(0.109436 -0.140145 0)
(0.152978 -0.034188 0)
(0.239893 -0.075621 0)
(0.378157 -0.180447 0)
(-0.0427055 0.790309 0)
(0.0484083 0.780956 0)
(0.0634632 0.387531 0)
(0.0883282 0.284325 0)
(0.120682 0.113636 0)
(0.0624745 0.217533 0)
(0.00571327 0.6103 0)
(-0.0902651 0.799034 0)
(-0.0690952 0.496528 0)
(-0.380105 0.353966 0)
(-0.421395 0.17972 0)
(-0.361118 -0.178992 0)
(-0.367236 -0.505522 0)
(-0.108741 -0.582902 0)
(-0.26923 -0.626769 0)
(-0.0518905 -0.406797 0)
(0.0989802 -0.182197 0)
(0.0588318 -0.181071 0)
(0.112811 -0.0920082 0)
(0.177868 -0.165713 0)
(0.154046 -0.107443 0)
(0.159822 -0.157751 0)
(0.252767 -0.157819 0)
(-0.0549963 0.825393 0)
(0.0396969 0.692452 0)
(0.0455642 0.378264 0)
(0.062618 0.229338 0)
(0.11022 0.127935 0)
(0.0407943 0.374632 0)
(-0.0492575 0.767312 0)
(-0.154135 0.938822 0)
(-0.0209303 0.641478 0)
(0.057423 0.436011 0)
(0.20295 0.429968 0)
(-0.255878 -0.303856 0)
(-0.0083346 -0.359486 0)
(0.132874 -0.51957 0)
(-0.0927949 -0.568721 0)
(0.0170281 -0.426568 0)
(0.0188577 -0.358617 0)
(-0.0304458 -0.154953 0)
(0.0456491 -0.0894846 0)
(0.10941 -0.14879 0)
(0.142559 -0.135765 0)
(0.164082 -0.12711 0)
(0.23554 -0.144513 0)
(-0.069136 0.862484 0)
(0.0219875 0.583332 0)
(0.00904124 0.348673 0)
(0.0440303 0.149142 0)
(0.07908 0.158782 0)
(0.00198287 0.523336 0)
(0.00505707 0.763031 0)
(0.0311955 0.920221 0)
(0.1831 0.831422 0)
(0.0783174 0.589041 0)
(0.284084 0.354133 0)
(0.145351 -0.0729334 0)
(0.285694 -0.360976 0)
(0.261372 -0.513267 0)
(-0.00600278 -0.695385 0)
(-0.0872684 -0.501985 0)
(0.0570117 -0.392475 0)
(0.146531 -0.249995 0)
(0.0639862 -0.192322 0)
(0.120431 -0.188602 0)
(0.130893 -0.139393 0)
(0.132968 -0.128993 0)
(0.201715 -0.189496 0)
(-0.0844333 0.932732 0)
(0.0293263 0.527506 0)
(-0.0312507 0.342483 0)
(0.0493873 0.0868037 0)
(0.0558228 0.212828 0)
(-0.0433429 0.558405 0)
(0.0362146 0.694859 0)
(0.0209022 0.74518 0)
(0.201152 0.682729 0)
(0.173477 0.412295 0)
(0.347098 0.261927 0)
(0.348536 -0.20623 0)
(0.435674 -0.279851 0)
(0.237625 -0.517479 0)
(0.209137 -0.590209 0)
(0.183018 -0.512874 0)
(0.112015 -0.292093 0)
(0.0857456 -0.274866 0)
(0.0784914 -0.181784 0)
(0.14035 -0.179851 0)
(0.167304 -0.161824 0)
(0.0901304 -0.208062 0)
(0.187415 -0.176486 0)
(-0.0785176 0.97558 0)
(0.0200355 0.475769 0)
(-0.0334673 0.322554 0)
(0.0614925 0.0626096 0)
(-0.031033 0.239212 0)
(-0.0386157 0.553757 0)
(-0.00538331 0.601624 0)
(0.129201 0.606956 0)
(0.299966 0.395474 0)
(0.222633 0.319391 0)
(0.263361 0.177888 0)
(0.486207 -0.155035 0)
(0.579177 -0.255451 0)
(0.387179 -0.452545 0)
(0.278682 -0.472797 0)
(0.0550118 -0.387154 0)
(0.0890052 -0.275191 0)
(0.140115 -0.221915 0)
(0.129543 -0.249107 0)
(0.125229 -0.166722 0)
(0.0759893 -0.219116 0)
(0.105061 -0.228859 0)
(0.20344 -0.276859 0)
(-0.094027 1.05205 0)
(0.0160254 0.433862 0)
(-0.0387833 0.261671 0)
(0.0554349 0.113788 0)
(-0.107481 0.375114 0)
(-0.0794998 0.524221 0)
(-0.0188485 0.495019 0)
(0.0259691 0.448552 0)
(0.213674 0.172942 0)
(0.30888 0.0659266 0)
(0.279782 -0.0171564 0)
(0.495731 -0.0113175 0)
(0.646375 -0.210012 0)
(0.286665 -0.323153 0)
(0.15391 -0.516219 0)
(0.186362 -0.364809 0)
(0.146044 -0.251756 0)
(0.0845322 -0.186601 0)
(0.10391 -0.236196 0)
(0.166792 -0.260124 0)
(0.106827 -0.287989 0)
(0.0724284 -0.238611 0)
(0.138214 -0.317015 0)
(-0.0686366 1.1321 0)
(-0.016136 0.375225 0)
(-0.0575867 0.22402 0)
(-0.0658761 0.228167 0)
(-0.202404 0.452904 0)
(-0.119533 0.443828 0)
(-0.0823858 0.32963 0)
(0.0337257 0.237102 0)
(0.110127 0.207289 0)
(0.138432 0.0522685 0)
(0.219342 -0.018391 0)
(0.633874 -0.0298672 0)
(0.597749 -0.349007 0)
(0.287487 -0.425156 0)
(0.206257 -0.329313 0)
(0.168703 -0.222163 0)
(0.107966 -0.209599 0)
(0.122701 -0.23392 0)
(0.0562974 -0.223645 0)
(0.0780455 -0.290406 0)
(0.140821 -0.29164 0)
(0.0976602 -0.254739 0)
(0.0599086 -0.247779 0)
(-0.0924166 1.21552 0)
(-0.0507387 0.407327 0)
(-0.12332 0.342033 0)
(-0.205084 0.431368 0)
(-0.285165 0.46745 0)
(-0.145386 0.296625 0)
(-0.102519 0.199317 0)
(-0.0326057 0.0416852 0)
(0.0373386 0.0225828 0)
(0.118093 -0.0721637 0)
(0.170256 -0.0728468 0)
(0.354484 -0.224107 0)
(0.173364 -0.521462 0)
(0.0562653 -0.307332 0)
(0.155816 -0.268411 0)
(0.0823291 -0.283552 0)
(-0.0386567 -0.209448 0)
(0.0556572 -0.236452 0)
(0.0858277 -0.261849 0)
(0.0818985 -0.218426 0)
(0.152112 -0.29138 0)
(0.0818199 -0.288993 0)
(0.0832377 -0.307757 0)
(-0.0545282 1.40202 0)
(-0.187112 0.475157 0)