/*--------------------------------*- C++ -*----------------------------------*\
| =========                 |                                                 |
| \\      /  F ield         | foam-extend: Open Source CFD                    |
|  \\    /   O peration     | Version:     4.1                                |
|   \\  /    A nd           | Web:         http://www.foam-extend.org         |
|    \\/     M anipulation  |                                                 |
\*---------------------------------------------------------------------------*/
FoamFile
{
    version     2.0;
    format      ascii;
    class       volScalarField;
    location    "0.4";
    object      alpha1;
}
// * * * * * * * * * * * * * * * * * * * * * * * * * * * * * * * * * * * * * //

dimensions      [0 0 0 0 0 0 0];

internalField   nonuniform List<scalar> 
2268
(
1
1
1
0.999999
0.999999
1
1
1
1
1
1
1
1
1
1
1
1
1
1
1
1
1
0.999951
0.999999
0.999999
0.999999
0.999999
1
1
1
1
1
1
1
1
1
1
1
1
1
1
1
1
1
1
0.999947
0.999999
0.999999
1
1
1
1
1
1
1
1
1
1
1
1
1
1
1
1
1
1
1
1
0.999926
1
1
1
1
1
1
1
1
1
1
1
1
1
1
1
1
1
1
1
1
1
1
0.9998
1
1
1
1
1
1
1
1
1
1
1
1
1
1
1
1
1
1
1
1
1
1
0.999584
1
1
1
1
1
1
1
1
1
1
1
1
1
1
1
1
1
1
1
1
1
1
0.99958
1
1
1
1
1
1
1
1
1
1
1
1
1
1
1
1
1
1
1
1
1
1
0.999739
1
1
1
1
1
1
1
1
1
1
1
1
1
1
1
1
1
1
1
1
1
1
0.999931
0.405181
0.386984
0.361438
0.327946
0.182276
0.0365682
0.00899187
0.0326338
0.0682882
0.0595492
0.013934
2.80706e-06
1.33582e-13
1.05814e-13
8.5248e-17
1.7729e-22
7.10781e-24
4.05605e-24
2.80344e-24
0.162008
0.0630647
0.018789
0.0223494
0.0396898
0.0384854
0.0112132
0.0111367
0.0221221
0.0241003
0.00528791
7.9702e-08
2.37196e-10
3.88093e-10
1.59202e-11
7.22677e-19
3.67627e-24
-7.80715e-24
5.80816e-25
0.00365969
0.00113302
0.000230283
0.000343313
0.00316219
0.00858761
0.00579771
0.00398101
0.00528588
0.00508123
0.000506764
1.05385e-08
1.85622e-08
3.93934e-08
1.67531e-09
9.50949e-15
-5.48428e-24
1.66498e-20
3.19578e-23
0.000687541
7.83786e-05
3.22705e-05
9.00094e-05
0.00110137
0.000419174
0.000434419
0.00106317
0.000875248
0.000485579
1.0511e-05
2.96168e-07
1.99846e-06
3.27133e-06
2.12216e-07
1.18298e-10
4.26322e-16
4.64549e-14
3.11957e-15
0.000129998
1.12752e-05
2.43674e-05
6.18182e-05
6.52208e-05
1.39845e-05
0.000126998
0.000191142
6.42914e-05
2.19082e-05
6.77036e-06
1.10205e-05
8.166e-05
0.00016197
1.57884e-05
1.75313e-07
9.80403e-12
1.57605e-09
2.30128e-09
1.7261e-05
6.55166e-06
1.64654e-05
1.47589e-05
1.19022e-06
6.8573e-06
2.15952e-05
1.43689e-05
2.4025e-06
2.19354e-06
2.20375e-05
0.000262779
0.00106846
0.00155091
0.000357684
1.58487e-05
3.53938e-09
1.36441e-07
1.10188e-05
6.55166e-06
6.43065e-06
8.90472e-06
5.99753e-06
1.79493e-07
9.82712e-07
1.68894e-06
4.97768e-07
2.68701e-07
4.6325e-06
8.40633e-05
0.000704929
0.00192134
0.00251003
0.00248443
0.000372431
2.07674e-06
3.81805e-07
0.00192354
0.000135256
6.30777e-06
6.18508e-06
2.15963e-06
1.47353e-08
4.98071e-08
1.05284e-07
8.91155e-08
2.67079e-07
9.17499e-06
0.000138783
0.000631851
0.000529144
0.00235427
0.00880028
0.00429068
0.000410272
3.33142e-07
0.0396741
0.998925
0.998496
0.998428
0.997552
0.997521
0.99566
0.99486
0.992529
0.988895
0.985808
0.984079
0.988087
0.99436
0.998077
0.999453
0.999897
0.999978
0.999992
0.999995
0.999999
1
1
0.999991
0.929083
0.917672
0.91644
0.88356
0.891736
0.857929
0.844114
0.80614
0.753875
0.718043
0.701859
0.734095
0.809095
0.90054
0.956734
0.984719
0.995961
0.998921
0.999679
0.999936
0.999995
1
0.999998
0.415255
0.39115
0.384397
0.307377
0.326089
0.263173
0.232977
0.169675
0.117875
0.0970927
0.092922
0.105214
0.144024
0.260666
0.506414
0.812111
0.948679
0.976853
0.987772
0.994109
0.998233
0.999605
0.99987
0.017294
0.017258
0.0157966
0.0111905
0.0116663
0.00827991
0.00614571
0.00330963
0.00184803
0.00164252
0.00172392
0.00207214
0.00426833
0.0206335
0.0760964
0.179041
0.288747
0.375615
0.610049
0.873631
0.975946
0.993855
0.997466
0.000305907
0.000408452
0.000279371
0.000210931
0.000233525
0.000175643
0.000133486
5.38629e-05
2.59135e-05
2.25758e-05
1.78775e-05
3.2567e-05
0.000218917
0.0014856
0.0050581
0.0116508
0.015164
0.0202028
0.0482441
0.235989
0.44591
0.785313
0.944501
8.83245e-06
1.14333e-05
3.61603e-06
2.65648e-06
4.24715e-06
4.64117e-06
4.51215e-06
1.92119e-06
9.02545e-07
4.36611e-07
5.81631e-07
4.73942e-06
2.00804e-05
4.81154e-05
8.91003e-05
0.000178485
0.000193936
0.000401063
0.000823477
0.0079785
0.0340234
0.223461
0.395755
2.03395e-07
2.22588e-07
2.89935e-08
1.86264e-08
4.1615e-08
9.01687e-08
1.54109e-07
1.08493e-07
6.18551e-08
3.93194e-08
3.1276e-07
2.11194e-06
1.54112e-05
2.98158e-05
4.64164e-05
2.74588e-05
1.74476e-05
3.50116e-05
9.01722e-05
0.000312955
0.00171761
0.0147311
0.0248539
3.47222e-09
2.93499e-09
3.50801e-10
6.45631e-11
1.95283e-10
8.27131e-10
3.75171e-09
3.65415e-09
2.44634e-09
1.99082e-08
6.38656e-07
2.15343e-06
3.40665e-05
5.14113e-05
4.09558e-05
1.67942e-05
3.55718e-06
5.92479e-06
2.37797e-05
7.36515e-05
0.000109405
0.0003202
0.000627385
4.05982e-11
2.42135e-11
3.0085e-12
3.25535e-13
1.41796e-12
8.00508e-12
5.27321e-11
5.23655e-11
3.80693e-10
2.80577e-08
7.86215e-07
9.38331e-07
4.35437e-06
3.25221e-05
1.58208e-05
6.17027e-06
8.47354e-07
7.60173e-07
4.84934e-06
5.02182e-05
0.000106758
0.000108182
6.88037e-05
1.06416e-12
5.71579e-13
8.22451e-14
3.34619e-14
3.68027e-13
2.11979e-12
8.75722e-12
2.05321e-11
4.46656e-10
7.18774e-09
2.5892e-07
2.37085e-07
9.31878e-07
8.91863e-07
4.48222e-07
2.00114e-07
3.7698e-08
3.47398e-07
7.77388e-07
8.91379e-07
2.7436e-06
1.2477e-05
1.70346e-05
1.37683e-13
7.86158e-14
8.99735e-15
1.2665e-14
3.9642e-13
2.21211e-12
9.8081e-12
2.01471e-11
8.19765e-10
2.52429e-09
1.64117e-08
1.29854e-08
1.94934e-08
1.15304e-08
4.02009e-09
2.21305e-09
6.94293e-10
1.35394e-09
8.75821e-10
9.07665e-10
1.6374e-09
1.83214e-07
4.49301e-07
2.41513e-14
1.29527e-14
1.70768e-15
5.36575e-15
4.7485e-13
1.70698e-12
5.56985e-12
5.10143e-12
9.84139e-10
1.13328e-09
2.83703e-09
1.24885e-09
1.73902e-09
1.03511e-09
7.37937e-10
5.04805e-10
3.05946e-10
1.32572e-10
3.77526e-11
9.73835e-12
2.27611e-11
3.42705e-10
2.61484e-10
3.64689e-15
2.18214e-15
4.98034e-16
2.84849e-15
4.85779e-13
4.94937e-13
5.29752e-13
5.56757e-13
2.61933e-10
3.25623e-10
1.27293e-09
4.9659e-10
5.33293e-10
4.72588e-10
5.11742e-10
4.27722e-10
2.72798e-10
1.30837e-10
4.98451e-11
8.18518e-12
1.91415e-12
1.23582e-12
9.38067e-13
9.94612e-16
6.25832e-16
1.48162e-16
1.62714e-15
2.38923e-13
9.63678e-14
7.26406e-14
9.77026e-14
9.27265e-11
1.0044e-10
8.54078e-11
2.82513e-11
1.62352e-10
3.01055e-10
2.81198e-10
1.56374e-10
7.9525e-11
3.02901e-11
1.53897e-11
3.38535e-12
3.31991e-13
1.02353e-14
9.8986e-14
2.8572e-16
1.62864e-16
4.3237e-17
8.45086e-16
6.51117e-14
1.50049e-14
1.46962e-14
2.07421e-14
3.10318e-14
7.88818e-14
4.4783e-13
4.3873e-12
1.29761e-10
1.20582e-10
6.23268e-11
2.58882e-11
6.23194e-12
1.42066e-12
2.01682e-13
1.63585e-14
5.83075e-16
3.57077e-16
1.53974e-12
6.82071e-17
3.71193e-17
1.17956e-17
4.18887e-16
1.85756e-14
3.11872e-15
4.25491e-15
3.95506e-15
4.68802e-15
1.00004e-14
1.96743e-13
3.68765e-12
2.14142e-11
1.43856e-11
4.80045e-12
2.73065e-12
6.02962e-13
1.46562e-13
1.58409e-14
1.39318e-15
2.44018e-16
3.70872e-16
2.3083e-12
1.30336e-17
7.63281e-18
3.30009e-18
1.65522e-16
2.72185e-15
9.56177e-16
1.63687e-15
1.21064e-15
1.0452e-15
9.01452e-16
2.56822e-14
1.59485e-13
1.30515e-12
8.28299e-13
3.36932e-13
1.98243e-13
6.83349e-14
2.27731e-14
3.77589e-15
6.43283e-16
2.31869e-16
5.33978e-16
1.018e-12
1.83628e-18
1.60472e-18
1.09306e-18
6.16626e-17
6.31522e-16
1.89318e-16
5.9586e-16
3.7152e-16
2.06295e-16
1.29361e-16
4.97789e-15
2.27405e-14
9.73561e-14
5.60302e-14
2.92841e-14
1.36699e-14
5.2703e-15
1.67744e-15
6.3684e-16
3.09471e-16
1.64881e-16
1.31132e-15
4.82537e-13
2.664e-19
3.35194e-19
4.1552e-19
2.63814e-17
6.93059e-17
5.38187e-17
1.90727e-16
5.94242e-17
3.68662e-17
2.40823e-17
7.78853e-16
2.60194e-15
4.14246e-15
2.51667e-15
1.2098e-15
1.13753e-15
5.05899e-16
2.90819e-16
1.62169e-16
9.93168e-17
5.11024e-17
3.29826e-15
1.41408e-12
2.4433e-24
1.66994e-23
2.133e-19
9.57748e-19
2.06543e-18
6.28793e-18
1.51332e-17
1.87692e-17
5.65699e-18
4.44175e-18
1.13874e-16
4.09098e-16
2.03447e-16
2.66799e-16
2.08887e-16
1.60262e-16
6.61716e-17
3.40736e-17
1.99145e-17
1.02764e-17
7.15982e-18
8.13216e-15
5.59584e-12
9.95605e-25
5.53755e-24
2.59194e-22
8.28279e-21
1.17631e-19
8.49874e-19
1.77684e-18
2.56736e-18
7.78042e-19
7.70974e-19
1.7358e-17
3.25713e-17
3.63272e-17
3.60608e-17
2.62401e-17
1.85829e-17
6.74848e-18
2.97414e-18
1.36274e-18
2.58089e-18
4.72052e-18
1.63572e-14
6.71018e-12
3.59581e-25
1.14064e-24
2.48853e-23
5.19071e-22
8.38553e-21
5.19106e-20
1.27618e-19
3.5503e-20
2.29536e-20
1.93397e-19
5.79277e-18
5.8115e-18
4.55367e-18
2.88997e-18
2.05507e-18
1.39561e-18
6.59593e-19
2.70913e-19
9.66646e-20
4.69465e-18
7.00187e-18
2.48108e-12
6.83702e-12
1.08045e-25
2.15085e-25
9.74861e-25
1.86044e-24
4.48907e-25
3.13661e-23
2.48075e-23
8.66788e-23
1.9767e-22
6.29616e-20
2.24196e-19
3.07827e-19
2.18946e-19
8.31603e-20
4.16163e-20
1.7439e-20
5.78559e-21
1.7889e-21
7.05411e-21
9.61115e-18
1.10882e-17
3.1417e-09
5.33371e-09
1.49104e-28
2.01446e-27
1.84261e-26
6.46488e-27
1.73456e-26
1.02275e-25
2.16125e-25
1.1883e-24
1.28012e-24
4.18481e-22
5.28636e-22
4.10131e-22
1.9003e-22
6.63687e-23
7.76351e-24
5.29061e-24
4.10779e-24
6.79423e-23
6.76096e-20
2.01022e-17
8.48818e-15
4.24357e-07
8.45098e-07
2.67618e-36
1.09423e-36
2.81381e-35
7.77982e-33
3.53216e-31
3.13069e-30
4.6147e-28
2.50236e-27
5.03168e-26
1.19982e-25
8.6231e-26
9.62636e-26
4.97645e-26
4.58682e-26
2.33795e-25
1.39558e-24
5.43491e-24
1.39459e-22
7.32351e-19
1.78525e-14
1.2887e-11
1.00704e-05
2.69259e-05
2.59341e-38
6.1326e-38
2.05452e-36
4.56602e-34
2.44258e-33
3.55961e-32
2.56911e-28
8.51074e-28
1.35126e-27
2.88979e-27
3.12102e-27
3.44022e-27
2.78066e-27
4.11893e-26
4.64063e-25
5.05134e-24
1.11289e-23
2.78528e-22
7.08892e-18
3.65776e-12
2.55407e-09
6.96956e-05
0.000271271
3.58825e-40
3.01682e-40
2.39689e-38
7.07203e-38
4.10147e-35
2.1109e-33
4.24167e-33
1.00156e-32
2.68049e-32
1.01338e-31
1.14552e-30
1.97504e-29
9.37431e-28
9.11938e-26
1.04771e-24
1.2793e-23
3.13934e-23
5.2665e-22
4.3652e-17
1.0944e-10
9.583e-08
0.000187418
0.000991685
9.47015e-45
1.45676e-40
1.49428e-38
3.05627e-38
1.00208e-37
6.36473e-37
1.04865e-35
1.78959e-34
3.79584e-33
7.27853e-32
1.72066e-30
3.85316e-29
1.90757e-27
2.0863e-25
2.35481e-24
2.85588e-23
8.7601e-23
1.05632e-21
1.85154e-16
7.62594e-10
7.83895e-07
0.00026815
0.00132706
5.03938e-50
3.50456e-45
9.93572e-43
8.59017e-41
4.98897e-39
2.54215e-37
7.66389e-36
1.93304e-34
4.86467e-33
1.10446e-31
2.91858e-30
8.5498e-29
4.33376e-27
4.77572e-25
5.23853e-24
6.05276e-23
2.5745e-22
2.22909e-21
8.98889e-16
1.79997e-09
1.89941e-06
0.000107867
0.000902781
8.38935e-50
8.52066e-45
1.89913e-42
1.12872e-40
5.70205e-39
2.308e-37
8.77231e-36
2.84568e-34
8.43191e-33
2.35319e-31
6.92361e-30
2.30242e-28
1.03742e-26
1.08315e-24
1.11676e-23
1.22829e-22
6.19642e-22
7.18699e-21
4.35438e-15
2.61082e-10
1.89382e-07
2.53222e-05
0.000450319
2.37819e-49
1.09066e-45
3.27352e-43
4.62579e-41
3.91245e-39
2.50913e-37
1.25182e-35
5.17555e-34
1.71904e-32
5.72683e-31
1.74415e-29
6.84427e-28
1.7105e-26
2.12272e-24
1.93303e-23
2.14519e-22
1.28653e-21
2.42911e-20
1.38951e-14
1.27534e-10
7.28514e-08
5.53931e-06
0.000148813
6.21639e-49
1.52247e-45
4.24181e-43
6.13835e-41
4.94225e-39
3.81282e-37
2.29053e-35
1.18115e-33
5.04592e-32
2.0222e-30
6.51012e-29
2.42705e-27
6.16854e-26
1.6127e-24
1.99771e-23
2.34054e-22
2.14054e-21
1.03206e-19
1.276e-14
8.84902e-11
4.39679e-08
3.11932e-06
6.76136e-05
3.92525e-49
5.72059e-46
1.96293e-43
3.25329e-41
3.61834e-39
3.26549e-37
2.41009e-35
1.49247e-33
7.70651e-32
3.34393e-30
1.21623e-28
3.51836e-27
7.82119e-26
1.28948e-24
1.37044e-23
1.24652e-22
8.7288e-22
6.18466e-21
1.82392e-16
4.76003e-12
9.75524e-09
1.92671e-06
4.53897e-05
2.32842e-49
2.60812e-46
8.84383e-44
1.57215e-41
2.039e-39
2.0196e-37
1.63729e-35
1.10746e-33
6.16935e-32
2.74955e-30
9.65622e-29
2.50488e-27
5.06575e-26
8.00711e-25
9.96043e-24
9.97464e-23
6.58004e-22
4.06898e-21
5.07936e-17
3.28672e-12
5.89469e-09
9.35475e-07
2.40869e-05
2.26862e-50
2.37858e-47
8.03481e-45
1.69744e-42
2.83136e-40
3.56466e-38
3.65711e-36
3.04197e-34
2.08332e-32
1.0721e-30
4.39313e-29
1.39208e-27
3.36335e-26
6.16885e-25
8.621e-24
9.83331e-23
8.19987e-22
5.81531e-21
2.88252e-16
8.64987e-12
1.23773e-08
1.43862e-06
2.47198e-05
4.21922e-52
4.78906e-49
2.05929e-46
5.79431e-44
1.22906e-41
1.96938e-39
2.49062e-37
2.47465e-35
1.95618e-33
1.19483e-31
5.6069e-30
2.01913e-28
5.70494e-27
1.24438e-25
2.21019e-24
3.162e-23
2.95371e-22
1.90919e-21
1.11928e-17
1.26119e-12
5.31814e-09
1.07056e-06
2.78891e-05
1.97293e-55
3.81107e-52
3.14567e-49
1.65293e-46
5.99383e-44
1.60185e-41
3.26545e-39
5.12576e-37
6.42648e-35
6.1929e-33
4.32272e-31
2.31985e-29
9.12395e-28
2.59831e-26
5.7099e-25
1.00534e-23
1.15377e-22
8.9797e-22
4.85395e-21
2.09744e-17
1.05584e-12
3.01346e-09
7.10727e-07
4.38457e-59
1.51576e-55
1.77808e-52
1.23468e-49
5.89628e-47
2.09391e-44
5.72643e-42
1.23673e-39
2.13518e-37
3.0588e-35
3.4333e-33
3.26669e-31
2.20966e-29
1.3841e-27
4.88352e-26
1.32553e-24
2.52248e-23
3.70855e-22
3.31604e-21
4.94755e-20
1.53106e-14
2.24802e-10
1.19699e-07
9.87351e-67
1.90729e-62
5.52413e-59
8.6981e-56
8.99449e-53
6.99577e-50
4.12199e-47
2.02666e-44
7.98017e-42
3.02759e-39
9.87107e-37
3.47431e-34
1.11202e-31
3.05994e-29
4.92965e-27
4.2015e-25
2.07672e-23
6.60685e-22
1.26532e-20
1.14996e-19
9.37422e-19
2.57729e-14
8.2175e-11
2.46762e-91
1.94961e-87
6.35089e-85
8.99439e-83
7.56883e-81
4.5664e-79
9.63353e-63
4.01117e-58
9.10486e-54
1.28781e-49
1.93169e-45
1.58896e-41
2.62107e-37
9.0125e-34
5.5706e-30
1.54612e-27
1.8161e-25
9.1928e-24
3.05623e-22
7.39779e-21
1.60984e-19
1.25873e-16
4.80566e-14
3.53396e-105
3.2239e-101
1.49279e-98
2.45809e-96
2.29565e-94
1.51153e-92
7.17309e-91
2.65885e-89
8.46123e-88
2.81717e-86
1.21091e-84
7.07946e-83
8.63287e-81
2.25716e-78
5.39643e-31
8.9134e-29
9.94901e-27
9.49029e-25
8.26498e-23
5.20399e-21
1.97898e-19
4.77448e-18
5.61287e-16
0
0
0
0
0
0
0
0
0
0
0
0
0
0
0
4.52606e-31
5.5044e-29
4.15148e-27
3.2281e-25
2.21577e-23
1.22517e-21
7.05039e-20
9.23228e-19
0.999997
0.999997
0.999929
0.895876
0.999999
0.999999
0.999993
0.992509
0.999962
0.999988
0.999991
0.999927
0.999029
0.999537
0.99979
0.999902
0.987948
0.992798
0.995814
0.996526
0.557015
0.671643
0.824199
0.88568
0.059922
0.105204
0.194635
0.226013
0.00178827
0.00460447
0.012166
0.0120954
4.83459e-05
6.19513e-05
0.00012526
0.000127945
1.43982e-05
9.95437e-06
5.50989e-06
4.69447e-06
4.79952e-07
4.28667e-07
3.07993e-07
1.70786e-07
3.11722e-10
3.97417e-10
6.26925e-10
1.06621e-09
1.05502e-12
1.33128e-12
1.68464e-12
1.86241e-12
4.16605e-13
1.02218e-12
2.66603e-12
5.28973e-12
5.24588e-12
1.10663e-11
2.19532e-11
4.06241e-11
6.9853e-12
1.2349e-11
2.11023e-11
4.04691e-11
2.70584e-12
4.77631e-12
8.37343e-12
1.86424e-11
1.30575e-12
2.58307e-12
7.12982e-12
1.74317e-11
3.9979e-12
8.36897e-12
2.03435e-11
1.81798e-11
1.37199e-11
2.69842e-11
2.05034e-11
1.89456e-11
1.94798e-11
7.58876e-11
3.75618e-11
3.93793e-11
4.90515e-11
1.99673e-08
4.08053e-08
3.31194e-08
3.13688e-08
1.77843e-06
1.12657e-05
6.30534e-06
4.27517e-06
7.86393e-05
0.000250397
0.000153725
0.000112149
0.000726018
0.000768322
0.000676391
0.000754385
0.00118275
0.000727796
0.000124673
0.00132706
0.00107553
0.000131663
1.89975e-05
0.00132706
0.000500225
3.34712e-05
7.45182e-06
0.00128462
0.000425709
2.28826e-05
4.82996e-06
0.00130802
0.000726954
0.00013036
2.17773e-05
0.000827181
0.00103088
0.000736865
0.000106482
0.000418188
0.00104415
0.00107455
0.000624088
0.000283041
0.000915773
0.00107451
0.00102142
0.000134507
0.000511973
0.00100143
0.00106671
9.8078e-05
0.000305421
0.000726734
0.001056
0.000126476
0.000320025
0.000526992
0.000664744
1.49204e-05
0.000156428
0.000475715
0.00072555
2.72405e-06
5.29277e-05
0.000283804
0.000655443
5.22304e-09
1.5317e-06
4.55322e-05
0.000264609
1.17547e-12
4.29874e-09
1.25676e-06
3.24575e-05
4.85837e-14
3.02793e-11
7.08603e-10
1.93976e-23
2.91478e-17
1.77713e-15
3.3731e-15
1.84858e-25
0.210456
0.0373074
6.48203e-06
1.63253e-06
4.74742e-07
1.18844e-07
2.04219e-07
5.06115e-07
2.22866e-06
3.4003e-05
0.000295761
0.0018493
0.000860515
0.00382642
0.0501892
0.106674
0.0800056
0.0218804
0.32235
0.930239
0.30297
5.82153e-05
9.64503e-06
1.44226e-05
1.85217e-06
3.71409e-06
9.60873e-05
0.000441832
0.000608767
0.00288517
0.0195638
0.013311
0.038554
0.189814
0.465445
0.37805
0.172914
0.797331
0.997976
0.967766
0.499269
0.0321484
0.00309988
0.000324211
4.15849e-05
5.64137e-05
0.000274306
0.000846902
0.00661781
0.0939714
0.180402
0.439067
0.839195
0.894141
0.778164
0.650689
0.939516
0.999901
0.999487
0.971146
0.663855
0.323338
0.0586878
0.00834729
0.000437472
0.000290941
0.000930013
0.0121784
0.290708
0.873549
0.992607
0.994253
0.925463
0.927935
0.967084
0.969951
0.995514
0.996971
0.996848
0.974503
0.918429
0.708203
0.364822
0.0574011
0.00324022
0.00304025
0.0482494
0.594832
0.971652
0.994253
0.99427
0.989651
0.992933
0.995024
0.967183
0.931102
0.907593
0.886563
0.924134
0.94147
0.941034
0.921355
0.665636
0.224839
0.167886
0.560445
0.946246
0.984293
0.984234
0.981914
0.988748
0.995024
0.995024
0.878503
0.459812
0.253224
0.220175
0.40203
0.581968
0.558557
0.786273
0.776817
0.72603
0.769254
0.904766
0.929706
0.916704
0.773329
0.774382
0.909604
0.991774
0.991551
0.83072
0.0620912
0.0284315
0.013188
0.0359424
0.0677645
0.0675588
0.17292
0.228969
0.313718
0.435225
0.45672
0.448047
0.470625
0.224814
0.371778
0.852445
0.971817
0.874072
0.866147
0.00134178
0.00083478
0.00043483
0.000622439
0.000829958
0.00132516
0.00117876
0.00786109
0.0276915
0.0492865
0.0575076
0.0596481
0.072063
0.0612606
0.433834
0.93145
0.940445
0.482117
0.777756
9.15097e-06
1.05351e-05
9.95889e-06
1.196e-05
4.20798e-05
0.000182431
0.000285598
0.00023004
0.00049778
0.00100921
0.00303879
0.00377657
0.00884843
0.0726957
0.48899
0.930984
0.880241
0.331123
0.661134
1.12121e-07
1.4907e-07
1.2055e-06
2.85495e-05
0.000186851
0.000230267
0.000115799
1.93009e-05
1.41134e-05
1.41035e-05
0.00015498
0.00346106
0.0228168
0.0548097
0.245675
0.710577
0.471647
0.243928
0.331973
1.18249e-09
1.61779e-09
5.06372e-08
4.29823e-06
2.57528e-05
0.000119196
0.000119538
6.58214e-05
1.39618e-05
1.39618e-05
8.66102e-05
0.00435248
0.0134316
0.00492475
0.0624493
0.343693
0.0651062
0.0371203
0.0450497
1.24342e-11
1.24568e-11
5.16862e-10
6.77375e-08
7.08046e-07
1.45911e-05
7.53701e-05
7.52861e-05
4.48239e-05
1.39618e-05
3.57859e-05
0.00301317
0.00267088
0.00128942
0.0217058
0.268044
0.0540467
0.0365219
0.0841049
6.49466e-11
1.3603e-10
1.11618e-10
2.15026e-10
3.85213e-08
1.11231e-06
1.09592e-05
4.14021e-05
5.08705e-05
4.84771e-05
5.02646e-05
0.000947806
0.000644802
0.000549673
0.00784264
0.246015
0.0545949
0.104547
0.408169
1.40626e-10
5.76172e-10
5.77559e-10
2.38904e-10
4.57657e-10
1.62807e-08
2.84933e-07
5.58771e-06
2.29036e-05
3.46909e-05
9.80455e-05
0.000386215
0.000216965
0.000222856
0.00329728
0.237713
0.0550648
0.128573
0.426094
8.88662e-11
3.8653e-10
6.16137e-09
4.84829e-09
2.23059e-09
2.28272e-09
2.8879e-09
5.13162e-07
2.98793e-06
1.5273e-05
0.000159348
0.000183149
7.82633e-05
7.00949e-05
0.000844953
0.120167
0.105636
0.100848
0.237604
4.53505e-11
8.55551e-11
1.39576e-08
8.31715e-07
7.72884e-07
4.71544e-07
1.23428e-07
1.26605e-07
3.1588e-07
4.48727e-06
7.00819e-05
5.54642e-05
1.6728e-05
1.34607e-05
0.000378207
0.0559368
0.0746262
0.0644645
0.231062
2.17419e-11
6.86763e-10
8.70133e-08
5.58417e-06
5.23907e-06
3.62628e-06
1.52706e-06
4.12652e-07
3.26092e-07
9.32887e-07
7.90405e-06
5.77444e-06
1.48854e-06
2.32493e-06
0.00100836
0.035403
0.0314075
0.0281804
0.421848
3.59308e-10
2.87521e-07
1.78338e-07
9.26478e-07
2.86397e-05
1.85861e-05
1.42641e-05
5.63845e-06
1.51316e-06
1.32362e-07
1.31673e-07
1.37007e-07
1.04517e-06
8.06271e-06
0.0101045
0.0164123
0.0161526
0.0160871
0.473178
2.76982e-08
6.40312e-06
7.78398e-06
3.31231e-06
3.19457e-05
7.39484e-05
0.000292813
0.000156978
3.87095e-05
1.83253e-06
1.20727e-07
3.8069e-06
0.000232328
0.00182876
0.0854869
0.0164421
0.0171015
0.0499054
0.586892
5.85341e-07
3.13941e-05
0.000106079
3.55104e-05
4.77942e-05
0.000331492
0.00179909
0.000914281
0.000161111
4.15228e-06
0.000498658
0.00847251
0.0305359
0.0775181
0.139403
0.0164738
0.0713412
0.148887
0.646952
5.19175e-06
0.00015426
0.000802468
0.000709031
0.000255136
0.00105509
0.00214177
0.00162254
0.000348626
6.14757e-05
0.00426194
0.0635076
0.159982
0.160379
0.139123
0.0164961
0.0341375
0.0857513
0.613872
4.45154e-05
0.000592813
0.00142413
0.00142271
0.000736177
0.00117458
0.00214177
0.00196262
0.000442077
0.000157831
0.0107272
0.0636422
0.129663
0.160695
0.0900136
0.020272
0.0077618
0.00885318
0.37435
0.000255754
0.000716638
0.00131338
0.00119467
0.000542501
0.000508965
0.00184165
0.00186762
0.000427059
0.00138137
0.0182991
0.0251275
0.0373444
0.0613831
0.0357391
0.037273
0.0102566
0.00398477
0.0852385
0.000404113
0.00012489
3.00395e-05
0.000112929
0.000121497
0.000112563
0.00108064
0.00183443
0.000472452
0.00435622
0.0126012
0.00445882
0.00632627
0.0121281
0.0190653
0.0344802
0.00501652
0.00300991
0.0742965
2.82448e-05
1.07034e-06
1.21439e-06
5.06793e-06
9.57991e-06
5.1251e-05
0.00087729
0.00172999
0.000803356
0.00509483
0.00520327
0.00418642
0.0108689
0.0122818
0.0121827
0.00750026
0.00701914
0.0051105
0.301349
3.82386e-06
3.06422e-07
2.30431e-06
1.13214e-05
1.27698e-05
0.000146306
0.00074765
0.000915813
0.00119524
0.00499063
0.00187174
0.00425959
0.00679361
0.00796169
0.010258
0.0197395
0.0237028
0.0582034
0.489184
2.60579e-06
2.93976e-07
4.74469e-06
2.25579e-05
6.50468e-05
0.000260584
0.000566805
0.00155709
0.00357447
0.00359522
0.000938379
0.00202955
0.000693289
0.000686367
0.00580772
0.0200753
0.0341151
0.0865012
0.464103
1.62374e-06
1.67308e-07
2.86495e-06
2.04524e-05
7.52423e-05
0.000212133
0.000427867
0.00156271
0.00274257
0.00152064
0.000396535
0.000801035
0.000538234
0.000172892
0.00151913
0.0153813
0.0440446
0.0577585
0.14237
5.48523e-06
1.62074e-07
2.86949e-07
5.43948e-06
3.0154e-05
9.12657e-05
0.000316742
0.000851178
0.000992431
0.000368582
0.000107162
0.000306391
0.000554849
0.00013997
0.000137026
0.004517
0.0535256
0.134513
0.0108863
2.15226e-05
1.80504e-07
1.53477e-07
1.85676e-07
2.14561e-06
2.07116e-05
0.000116799
0.000171737
0.000199113
4.99022e-05
1.50693e-05
4.68796e-05
0.000267917
0.00017769
0.000122236
0.000220991
0.0107587
0.196216
0.148409
9.1317e-05
5.37525e-06
3.36569e-06
2.41574e-06
3.0032e-06
1.01766e-05
2.4826e-05
1.91793e-05
1.94418e-05
2.40392e-06
1.6827e-06
6.5964e-06
2.9985e-05
0.000103451
0.000226322
0.000744279
0.00532338
0.18746
0.407611
0.000270591
3.58546e-05
6.1079e-05
7.11911e-05
3.83829e-05
2.60913e-05
2.88633e-06
1.98206e-06
1.9737e-06
2.21595e-06
1.6827e-06
3.32092e-05
9.32686e-05
0.000142157
0.000415009
0.00127917
0.022101
0.300407
0.407611
0.000266407
9.27529e-05
0.000340094
0.000399468
0.000150345
2.44542e-05
5.37119e-06
8.76579e-06
1.33476e-05
0.00014643
0.000100194
0.000162021
0.00110478
0.00169099
0.00186988
0.0101501
0.184175
0.407611
0.407611
0.000246957
7.13474e-05
0.000313364
0.000405768
0.000218893
3.53499e-05
3.22636e-05
0.000256147
0.00118131
0.00547933
0.00516906
0.00242691
0.00491413
0.0125819
0.0166042
0.0907678
0.241985
0.272413
0.407611
0.000675762
6.33334e-05
9.73397e-05
0.000349705
0.000382604
0.000198299
0.000273791
0.00144721
0.00851376
0.00894728
0.00890373
0.0034656
0.00781261
0.0158556
0.0163196
0.0561529
0.0517062
0.070168
0.407611
0.000760954
6.55509e-05
6.84099e-05
0.000404349
0.00134688
0.00135317
0.00132894
0.00322436
0.00551305
0.00505081
0.00328103
0.00106968
0.00266978
0.00376235
0.00243289
0.00691126
0.004881
0.0106626
0.22362
0.000754567
0.00055621
0.000234986
0.000556863
0.000835524
0.000782762
0.00113853
0.00169217
0.00109635
0.000363302
0.000145796
3.75145e-05
0.000141222
7.08786e-05
1.4437e-05
0.000154399
0.000136905
0.000712872
0.0354883
0.000686513
0.000842409
0.000840992
0.000706322
0.000181612
0.000145443
0.000348916
0.000208191
2.89162e-05
2.46635e-07
7.67023e-11
1.55407e-07
3.71943e-08
1.77631e-07
3.0556e-06
2.11364e-06
2.12314e-06
0.000390933
0.0706244
0.000263948
0.000633066
0.000634302
0.000341403
9.83866e-06
7.09893e-06
2.38783e-05
2.22074e-06
3.22377e-08
1.04633e-14
9.21936e-15
1.78366e-11
1.92394e-09
2.85462e-07
6.47126e-06
2.74146e-06
2.87505e-06
0.00157158
0.360933
2.75458e-05
0.00013196
0.000148676
5.87003e-05
9.12142e-08
6.26922e-08
2.11312e-07
1.46873e-09
1.04259e-12
1.91139e-19
7.57057e-16
3.18211e-12
1.86496e-09
2.0596e-07
6.37226e-06
1.12949e-05
8.48657e-06
0.0361508
0.404741
1.99078e-07
2.8608e-06
5.306e-06
1.81268e-06
8.94281e-11
5.60002e-11
1.4746e-10
4.73837e-14
9.56527e-19
1.77672e-19
4.56446e-19
1.01992e-17
5.19611e-15
5.66087e-13
6.73193e-11
3.12715e-09
1.39503e-06
0.0096246
0.23878
)
;

boundaryField
{
    leftWall
    {
        type            zeroGradient;
    }
    rightWall
    {
        type            zeroGradient;
    }
    lowerWall
    {
        type            zeroGradient;
    }
    atmosphere
    {
        type            inletOutlet;
        inletValue      uniform 0;
        value           nonuniform List<scalar> 
46
(
0
0
0
0
0
0
0
0
0
0
0
0
0
0
0
0
0
0
0
0
0
7.05039e-20
9.23228e-19
2.91478e-17
1.77713e-15
3.3731e-15
1.84858e-25
1.99078e-07
2.8608e-06
5.306e-06
1.81268e-06
8.94281e-11
5.60002e-11
1.4746e-10
4.73837e-14
9.56527e-19
0
0
0
0
0
0
0
1.39503e-06
0.0096246
0.23878
)
;
    }
    defaultFaces
    {
        type            empty;
    }
}


// ************************************************************************* //
