/*--------------------------------*- C++ -*----------------------------------*\
| =========                 |                                                 |
| \\      /  F ield         | foam-extend: Open Source CFD                    |
|  \\    /   O peration     | Version:     4.1                                |
|   \\  /    A nd           | Web:         http://www.foam-extend.org         |
|    \\/     M anipulation  |                                                 |
\*---------------------------------------------------------------------------*/
FoamFile
{
    version     2.0;
    format      ascii;
    class       volVectorField;
    location    "0.9";
    object      U;
}
// * * * * * * * * * * * * * * * * * * * * * * * * * * * * * * * * * * * * * //

dimensions      [0 1 -1 0 0 0 0];

internalField   nonuniform List<vector> 
2268
(
(-0.00125064 0.0102508 0)
(-0.0308822 0.00927035 0)
(-0.0283977 0.00893865 0)
(-0.0585655 -0.0115951 0)
(-0.0904459 0.00885938 0)
(-0.162067 0.00936292 0)
(-0.198345 0.00130329 0)
(-0.208565 -0.0113422 0)
(-0.207015 -0.0306639 0)
(-0.120611 0.0146434 0)
(-0.0982385 0.0210043 0)
(-0.108208 -0.0357093 0)
(-0.0508727 0.0150172 0)
(-0.0345549 -0.0219548 0)
(0.00638867 -0.0152846 0)
(0.0504697 -0.0179102 0)
(0.0943265 -0.0224353 0)
(0.0954749 -0.00133156 0)
(0.0800169 -0.00188623 0)
(0.0696436 -0.00395313 0)
(0.0420969 -0.00166995 0)
(0.0241597 0.00240227 0)
(0.0197996 0.00587792 0)
(0.00709642 0.00496666 0)
(-0.0140311 0.00443307 0)
(-0.0158932 0.00277044 0)
(-0.0658297 0.00802838 0)
(-0.0868883 0.0145798 0)
(-0.158068 0.0440295 0)
(-0.196038 0.0180561 0)
(-0.200236 0.013087 0)
(-0.165652 0.00978649 0)
(-0.116229 0.0371325 0)
(-0.125545 -0.0321914 0)
(-0.1178 -0.0231264 0)
(-0.0647218 -0.007085 0)
(-0.0797576 -0.0480804 0)
(-0.0198308 -0.0170402 0)
(0.029181 -0.0190103 0)
(0.0625082 -0.0261433 0)
(0.0818772 0.00995172 0)
(0.0641935 0.0138068 0)
(0.0587446 0.0230294 0)
(0.0387366 0.0241841 0)
(0.0227138 0.00740087 0)
(0.0120136 0.0152239 0)
(0.00487045 0.0125362 0)
(-0.0271456 0.0131788 0)
(-0.0306769 0.0212139 0)
(-0.0779889 0.00333427 0)
(-0.103117 0.0303994 0)
(-0.163902 0.00770775 0)
(-0.202679 0.00226383 0)
(-0.207853 -0.0205153 0)
(-0.187277 0.0433716 0)
(-0.190065 -0.037337 0)
(-0.156815 -0.0229934 0)
(-0.126758 -0.0104504 0)
(-0.114707 -0.00539503 0)
(-0.107612 -0.0305566 0)
(-0.0356499 -0.0431176 0)
(0.003516 -0.0474255 0)
(0.0109997 -0.0385943 0)
(0.0530147 -0.00116183 0)
(0.0418233 0.0053152 0)
(0.0437961 0.0350879 0)
(0.0218712 0.0286029 0)
(0.0105156 0.00743093 0)
(0.0134995 0.0149877 0)
(-0.00763874 0.0164519 0)
(-0.0157965 0.0229724 0)
(-0.0407457 0.0245671 0)
(-0.0700264 0.0521659 0)
(-0.0882467 0.0505665 0)
(-0.176375 0.0310519 0)
(-0.211393 0.0257449 0)
(-0.202258 0.0159856 0)
(-0.230477 0.053493 0)
(-0.225996 -0.0430247 0)
(-0.197037 0.00566452 0)
(-0.20953 -0.0393673 0)
(-0.167599 -0.0893435 0)
(-0.144837 -0.092086 0)
(-0.0709493 -0.0849943 0)
(-0.000988838 -0.084845 0)
(0.0188121 -0.0596462 0)
(0.0155826 -0.000821684 0)
(-0.00410089 0.0181513 0)
(0.0140345 0.0059621 0)
(0.00418588 0.0439751 0)
(0.010878 0.0108791 0)
(0.0160074 0.026303 0)
(-0.00698406 0.0219578 0)
(-0.0172123 0.0273054 0)
(-0.013077 0.0217783 0)
(-0.057941 0.0596995 0)
(-0.0969436 0.0561158 0)
(-0.203172 0.0589792 0)
(-0.248253 0.0431867 0)
(-0.233805 0.0780391 0)
(-0.274 -0.0157204 0)
(-0.241426 0.0327386 0)
(-0.227478 -0.0163172 0)
(-0.250912 -0.0311611 0)
(-0.198249 -0.102952 0)
(-0.129669 -0.108548 0)
(-0.0524791 -0.105844 0)
(-0.00983227 -0.0249443 0)
(0.026765 -0.0399019 0)
(0.017739 0.0159701 0)
(-0.0514872 0.0158418 0)
(-0.0152877 0.0362821 0)
(-0.028993 0.0890366 0)
(-0.0108802 -0.000789517 0)
(0.0188747 0.030293 0)
(-0.00635039 0.0294428 0)
(-0.0223439 0.0285979 0)
(-0.0412081 0.0427168 0)
(-0.0664097 0.0540808 0)
(-0.111575 0.0454188 0)
(-0.202722 0.115015 0)
(-0.23043 0.0433838 0)
(-0.255744 0.112101 0)
(-0.289041 0.0382067 0)
(-0.264278 0.066132 0)
(-0.276252 0.00562516 0)
(-0.264475 -0.0423119 0)
(-0.210296 -0.0807298 0)
(-0.153449 -0.0552073 0)
(-0.0623214 -0.147261 0)
(0.0396898 -0.128549 0)
(0.00456022 -0.0723539 0)
(-0.0061871 0.054215 0)
(-0.0728814 0.0497597 0)
(-0.06361 0.0220085 0)
(-0.0792414 0.0468086 0)
(-0.0395884 -0.0124691 0)
(0.0274829 0.027454 0)
(-0.00716633 0.0271571 0)
(-0.00377928 0.0499355 0)
(-0.0187064 0.0382242 0)
(-0.0765745 0.0783409 0)
(-0.0903828 0.0525177 0)
(-0.213755 0.105618 0)
(-0.275683 0.0571412 0)
(-0.282692 0.115511 0)
(-0.305452 0.109002 0)
(-0.275121 0.0999621 0)
(-0.293915 -0.0104963 0)
(-0.303415 -0.0687896 0)
(-0.235894 -0.128921 0)
(-0.241773 -0.197091 0)
(-0.188022 -0.197499 0)
(-0.0201601 -0.216131 0)
(0.0388218 -0.137627 0)
(0.0741893 0.0471983 0)
(-0.0774369 0.0543735 0)
(-0.0860699 0.0136374 0)
(-0.0991848 0.018672 0)
(-0.0317492 -0.0297119 0)
(0.0399006 0.0355439 0)
(0.00806634 0.0365964 0)
(-0.00125105 0.0322567 0)
(-0.0371854 0.0644639 0)
(-0.0958315 0.0849195 0)
(-0.156638 0.0659986 0)
(-0.24474 0.0700292 0)
(-0.250676 0.147659 0)
(-0.269286 0.149009 0)
(-0.316787 0.185903 0)
(-0.322787 0.0616125 0)
(-0.364175 0.022096 0)
(-0.366955 -0.0619684 0)
(-0.399394 -0.153582 0)
(-0.308616 -0.306821 0)
(-0.224995 -0.266399 0)
(-0.180182 -0.368688 0)
(0.0233703 -0.112855 0)
(0.14255 0.107934 0)
(-0.0719143 0.0834276 0)
(-0.109865 0.0261414 0)
(-0.113183 -0.00864277 0)
(-0.0383041 -0.0819487 0)
(0.0881321 0.0840024 0)
(-0.340544 0.125927 0)
(-0.508196 -0.00515112 0)
(-0.522155 -0.0854542 0)
(-0.256647 -0.128323 0)
(-0.155849 -0.0114388 0)
(-0.215806 0.0144964 0)
(-0.344808 -0.0266743 0)
(-0.413143 -0.0288765 0)
(-0.444431 -0.0367849 0)
(-0.402951 -0.0877113 0)
(-0.207712 -0.122518 0)
(-0.0919398 -0.0330325 0)
(-0.0220137 0.0243958 0)
(0.00336027 -0.0513548 0)
(0.0464843 -0.0736228 0)
(0.151206 0.00623917 0)
(0.135953 0.00443587 0)
(0.0735925 0.0286328 0)
(-0.0263801 0.0146249 0)
(-0.288715 0.221532 0)
(-0.362301 0.0747115 0)
(-0.377251 -0.0997555 0)
(0.00126282 -0.18499 0)
(0.207066 -0.0238581 0)
(0.113409 0.159248 0)
(-0.00609973 0.176906 0)
(-0.205831 0.0809157 0)
(-0.339842 0.0300878 0)
(-0.224457 -0.0956847 0)
(0.00335133 -0.137259 0)
(0.0946021 -0.0336827 0)
(0.229196 -0.0727481 0)
(0.212066 0.018873 0)
(0.231886 -0.00312317 0)
(0.353268 -0.0860007 0)
(0.283924 0.0701345 0)
(0.0574788 0.0372316 0)
(-0.0567599 0.00733255 0)
(-0.15081 0.368369 0)
(-0.139753 0.0785669 0)
(-0.115675 -0.138647 0)
(0.106854 -0.248563 0)
(0.23623 -0.0433929 0)
(0.199701 0.164849 0)
(0.0318237 0.143373 0)
(0.0196521 0.151525 0)
(-0.17309 0.0104318 0)
(-0.0535832 -0.157619 0)
(0.0457686 -0.154263 0)
(0.138618 -0.11349 0)
(0.214918 -0.0810573 0)
(0.336666 -0.0328515 0)
(0.331455 -0.0136286 0)
(0.4211 -0.0766592 0)
(0.346382 0.132571 0)
(0.0478882 0.108721 0)
(0.0269168 0.0342696 0)
(-0.122441 0.332644 0)
(0.25891 0.105261 0)
(0.14382 -0.217333 0)
(0.223984 -0.314954 0)
(0.196933 -0.0639933 0)
(0.213834 0.140175 0)
(0.114546 0.102176 0)
(0.0295816 0.169359 0)
(-0.0787524 0.0267158 0)
(-0.096085 -0.167249 0)
(0.0293802 -0.206209 0)
(0.192072 -0.228249 0)
(0.242699 -0.0503254 0)
(0.284684 -0.143887 0)
(0.273026 -0.0417497 0)
(0.384014 0.0169574 0)
(0.37863 0.145445 0)
(0.148731 0.153327 0)
(0.20391 0.0703997 0)
(-0.0715098 0.278396 0)
(0.374141 0.0363468 0)
(0.324667 -0.428876 0)
(0.360912 -0.321216 0)
(0.198597 -0.0601307 0)
(0.264301 0.182251 0)
(0.193995 0.224026 0)
(0.0545168 0.229036 0)
(-0.265533 0.0389631 0)
(-0.282186 -0.169446 0)
(0.0261266 -0.2399 0)
(0.271808 -0.182002 0)
(0.28078 -0.220718 0)
(0.298543 -0.199033 0)
(0.274903 -0.0611114 0)
(0.365522 0.0606127 0)
(0.417067 0.180689 0)
(0.255529 0.180863 0)
(0.18877 0.152046 0)
(8.2887e-05 0.182613 0)
(0.342942 0.0392425 0)
(0.39262 -0.352208 0)
(0.413331 -0.298132 0)
(0.279758 -0.0438181 0)
(0.290833 0.143923 0)
(0.362565 0.547717 0)
(-0.0707779 0.333485 0)
(-0.735773 0.165563 0)
(-0.0599112 -0.38616 0)
(0.0227059 -0.36609 0)
(0.192216 -0.114059 0)
(0.340366 -0.29313 0)
(0.403223 -0.202097 0)
(0.284969 -0.0621142 0)
(0.345182 0.124222 0)
(0.377261 0.0745315 0)
(0.336875 0.128445 0)
(0.27343 0.234273 0)
(0.0685028 0.126764 0)
(0.202437 0.0260204 0)
(0.326173 -0.27373 0)
(0.394861 -0.292003 0)
(0.170288 0.0603174 0)
(0.125246 0.281484 0)
(0.312526 0.485184 0)
(-0.61334 0.483183 0)
(-0.621654 0.213428 0)
(0.0283103 -0.46623 0)
(0.0310711 -0.616429 0)
(0.00574268 -0.401761 0)
(0.262879 -0.323857 0)
(0.454836 -0.152373 0)
(0.389324 -0.0554442 0)
(0.319661 0.153636 0)
(0.309222 0.0743216 0)
(0.329329 0.177769 0)
(0.324998 0.39734 0)
(0.0496921 0.0583249 0)
(0.240942 -0.0675045 0)
(0.229986 -0.486855 0)
(0.183088 -0.479821 0)
(0.267487 0.0781454 0)
(-0.0681706 0.184642 0)
(-0.0217512 0.455293 0)
(-0.861902 0.600891 0)
(-0.308254 -0.0384025 0)
(0.0151701 -0.537755 0)
(0.00705995 -0.721544 0)
(0.0656373 -0.584789 0)
(0.296746 -0.294847 0)
(0.418564 -0.0853283 0)
(0.347179 0.0227831 0)
(0.241166 0.177879 0)
(0.233026 0.151091 0)
(0.262193 0.16531 0)
(0.300074 0.419145 0)
(-0.00387235 0.0130141 0)
(0.0515971 0.101611 0)
(0.036569 0.0719895 0)
(-0.125216 0.153518 0)
(-0.170872 0.1568 0)
(-0.174773 0.182034 0)
(-0.285111 0.203907 0)
(-0.304747 0.134656 0)
(-0.351874 0.132774 0)
(-0.374345 0.028984 0)
(-0.374819 0.00518335 0)
(-0.500096 -0.0896716 0)
(-0.527666 -0.136002 0)
(-0.428536 -0.23163 0)
(-0.374917 -0.214266 0)
(-0.349502 -0.423104 0)
(-0.117743 -0.0684886 0)
(0.0720552 -0.0103778 0)
(-0.0344712 0.17121 0)
(-0.117167 0.0415457 0)
(-0.132848 -0.0272077 0)
(-0.0513765 -0.153248 0)
(0.115795 -0.0371745 0)
(0.0369398 0.00172724 0)
(-0.0211955 0.106193 0)
(0.00215862 0.169602 0)
(-0.0221523 0.179299 0)
(-0.177707 0.209712 0)
(-0.24326 0.228157 0)
(-0.276669 0.154138 0)
(-0.306148 0.186631 0)
(-0.399217 0.179277 0)
(-0.418386 0.0923656 0)
(-0.450734 0.168704 0)
(-0.531395 0.127531 0)
(-0.541764 -0.198024 0)
(-0.598634 -0.355886 0)
(-0.708288 -0.400443 0)
(-0.639322 -0.496337 0)
(-0.597903 -0.379097 0)
(-0.467388 0.159149 0)
(-0.140681 0.233931 0)
(-0.151977 0.104354 0)
(-0.0408264 -0.143329 0)
(-0.0945792 -0.250191 0)
(-0.152517 -0.150734 0)
(0.00992799 -0.0217629 0)
(0.132465 0.0582431 0)
(0.0824727 0.226047 0)
(-0.0604806 0.256249 0)
(-0.0622086 0.298122 0)
(-0.214292 0.283308 0)
(-0.302755 0.264641 0)
(-0.314507 0.248475 0)
(-0.563335 0.186452 0)
(-0.574836 0.1882 0)
(-0.475873 0.156768 0)
(-0.660767 -0.0657019 0)
(-0.7103 -0.363882 0)
(-0.804806 -0.556203 0)
(-0.885898 -0.644456 0)
(-0.817144 -0.490224 0)
(-0.678536 -0.535811 0)
(-0.637624 -0.171883 0)
(-0.46576 -0.102581 0)
(-0.426018 -0.0299111 0)
(-0.135939 -0.248514 0)
(-0.092257 -0.25101 0)
(-0.225578 -0.189611 0)
(0.032541 -0.125093 0)
(0.135641 0.00825005 0)
(0.310731 0.224804 0)
(0.184506 0.305831 0)
(-0.00693793 0.635975 0)
(-0.0691883 0.381643 0)
(-0.203968 0.443893 0)
(-0.364818 0.378944 0)
(-0.509579 0.249992 0)
(-0.538658 0.328597 0)
(-0.555453 0.299522 0)
(-0.609363 0.337324 0)
(-0.844789 0.144472 0)
(-0.924559 -0.420687 0)
(-0.931399 -0.860108 0)
(-0.951093 -0.436928 0)
(-0.741934 -0.39387 0)
(-0.440784 -0.340311 0)
(-0.346769 -0.27361 0)
(-0.175291 -0.192062 0)
(-0.0902943 -0.190727 0)
(-0.0836142 -0.125254 0)
(-0.173637 -0.095226 0)
(-0.0430816 -0.211242 0)
(0.15334 0.0141988 0)
(0.251037 0.465778 0)
(0.199779 0.433627 0)
(-0.00852518 0.656288 0)
(-0.151959 0.447084 0)
(-0.301661 0.413798 0)
(-0.413434 0.449527 0)
(-0.517601 0.430315 0)
(-0.584325 0.293998 0)
(-0.522313 0.274386 0)
(-0.331151 0.80952 0)
(-0.379118 0.468841 0)
(-0.504434 -0.203372 0)
(-1.0585 -0.892151 0)
(-0.856994 -0.483671 0)
(-0.798716 -0.315063 0)
(-0.711164 -0.355148 0)
(-0.482025 -0.379584 0)
(-0.269866 -0.252048 0)
(-0.0900812 -0.122327 0)
(-0.0588698 -0.142242 0)
(-0.14668 -0.0523127 0)
(-0.0991241 -0.240399 0)
(-0.191046 -0.0632103 0)
(0.01216 0.273411 0)
(-0.0188396 0.368713 0)
(-0.198024 0.459483 0)
(-0.397999 0.69324 0)
(-0.58471 0.646006 0)
(-0.607801 0.577579 0)
(-0.584158 0.43748 0)
(-0.544909 0.236374 0)
(-0.493102 0.070147 0)
(-0.451898 0.357443 0)
(-0.576197 0.260696 0)
(-0.549286 -0.323514 0)
(-0.817432 -0.491497 0)
(-0.980722 -0.489549 0)
(-1.05871 -0.50365 0)
(-0.914933 -0.615592 0)
(-0.588539 -0.698342 0)
(-0.390425 -0.69603 0)
(-0.271487 -0.484171 0)
(-0.198088 -0.366347 0)
(-0.109501 0.014311 0)
(-0.0539651 -0.0746673 0)
(-0.0681827 -0.0543883 0)
(-0.447015 0.117098 0)
(-0.666316 0.632973 0)
(-0.710507 0.894716 0)
(-1.05269 0.903209 0)
(-0.733421 0.683512 0)
(-0.629282 0.532646 0)
(-0.595146 0.384678 0)
(-0.472013 0.157662 0)
(-0.479008 0.152323 0)
(-0.674315 0.416014 0)
(-0.532514 0.298911 0)
(-0.424447 -0.110102 0)
(-0.647192 -0.340395 0)
(-0.637456 -0.577427 0)
(-0.742332 -0.854944 0)
(-0.703526 -0.652792 0)
(-0.605224 -0.731327 0)
(-0.568475 -0.796026 0)
(-0.27721 -0.648088 0)
(-0.0759504 -0.505123 0)
(-0.0255853 -0.171547 0)
(-0.17442 -0.0215121 0)
(-0.128668 0.331656 0)
(-0.370317 0.521869 0)
(-0.52623 0.87033 0)
(-0.877299 1.18026 0)
(-0.939056 0.924801 0)
(-0.729905 0.749659 0)
(-0.672692 0.412939 0)
(-0.58627 0.285124 0)
(-0.640439 0.136856 0)
(-0.81147 0.344108 0)
(-0.773102 0.330581 0)
(-0.557057 0.106011 0)
(-0.600169 -0.16394 0)
(-0.619692 -0.293337 0)
(-0.538413 -0.518701 0)
(-0.521556 -0.585216 0)
(-0.430441 -0.692089 0)
(-0.435329 -0.927714 0)
(-0.414267 -1.04149 0)
(-0.238368 -0.561202 0)
(-0.1348 -0.312945 0)
(-0.27375 0.166797 0)
(-0.276997 0.0714889 0)
(-0.164804 0.458727 0)
(-0.414984 0.941628 0)
(-0.594206 1.10753 0)
(-0.777133 1.08575 0)
(-0.80124 0.760535 0)
(-0.742099 0.404403 0)
(-0.825562 0.356189 0)
(-0.763016 0.35411 0)
(-0.972797 0.321006 0)
(-0.998907 0.291991 0)
(-0.853161 0.189932 0)
(-0.782266 0.0327438 0)
(-0.838307 -0.115749 0)
(-0.873008 -0.296612 0)
(-0.648533 -0.570862 0)
(-0.504776 -0.738532 0)
(-0.377429 -0.760599 0)
(-0.291736 -0.853 0)
(-0.380841 -0.765564 0)
(-0.19362 -0.70858 0)
(-0.263879 -0.518266 0)
(-0.0634679 0.24309 0)
(-0.306401 0.198604 0)
(-0.0657197 0.673802 0)
(-0.353996 1.33589 0)
(-0.390643 1.28223 0)
(-0.588116 1.21039 0)
(-0.475161 0.803948 0)
(-0.486762 0.323334 0)
(-0.65717 0.317895 0)
(-0.915482 0.490462 0)
(-1.01764 0.463467 0)
(-0.91132 0.375396 0)
(-0.925991 0.346478 0)
(-1.01495 0.122497 0)
(-0.82492 -0.0900773 0)
(-0.982081 -0.417229 0)
(-1.01267 -0.716922 0)
(-0.779962 -0.970248 0)
(-0.578497 -0.930616 0)
(-0.468088 -0.917613 0)
(-0.644081 -0.925735 0)
(-0.630975 -0.730632 0)
(-0.795823 -0.480383 0)
(-0.656118 0.277606 0)
(-0.273761 0.253211 0)
(0.141619 0.759086 0)
(-0.328362 1.26623 0)
(-0.38367 1.30306 0)
(-0.312589 1.21544 0)
(-0.241865 0.704334 0)
(-0.540364 0.562077 0)
(-0.517691 0.687204 0)
(-0.83229 0.890108 0)
(-1.00446 0.886758 0)
(-0.96596 0.626336 0)
(-1.18683 0.518572 0)
(-1.34123 -0.0765183 0)
(-1.08869 -0.319523 0)
(-1.2066 -0.642967 0)
(-1.17502 -0.769857 0)
(-0.856245 -0.970766 0)
(-0.598 -1.07166 0)
(-0.634082 -1.09878 0)
(-0.750904 -0.912891 0)
(-0.740376 -0.688506 0)
(-0.862675 -0.48681 0)
(-1.00786 -0.165063 0)
(-0.234965 0.264799 0)
(0.0833152 0.813892 0)
(-0.379358 1.16942 0)
(-0.319737 1.28191 0)
(-0.325429 1.20099 0)
(-0.179727 1.04742 0)
(-0.31872 0.873414 0)
(-0.744852 1.16905 0)
(-1.05617 0.947281 0)
(-1.30417 0.869765 0)
(-1.33359 0.590116 0)
(-1.74547 0.394619 0)
(-1.73207 -0.167572 0)
(-1.27029 -0.359956 0)
(-1.23267 -0.670113 0)
(-1.09452 -0.862809 0)
(-1.02429 -0.947697 0)
(-0.966094 -1.21073 0)
(-0.939562 -1.27889 0)
(-0.75725 -0.957849 0)
(-0.664543 -0.6349 0)
(-0.735883 -0.390837 0)
(-0.836186 -0.177897 0)
(-0.207886 0.352981 0)
(-0.0620059 0.941902 0)
(-0.421103 1.24015 0)
(-0.27037 1.17025 0)
(-0.233932 1.1789 0)
(-0.390394 1.10479 0)
(-0.526552 0.984332 0)
(-0.807661 1.3093 0)
(-1.04366 1.14756 0)
(-1.13885 0.775316 0)
(-1.19925 0.483681 0)
(-1.39897 -0.078678 0)
(-1.1358 -0.328309 0)
(-1.03029 -0.366305 0)
(-1.14441 -0.571729 0)
(-1.26286 -0.874709 0)
(-1.11083 -1.14468 0)
(-1.07165 -1.2522 0)
(-1.08834 -1.32968 0)
(-1.19856 -1.26288 0)
(-0.892411 -0.81246 0)
(-0.606405 -0.52265 0)
(-0.675154 -0.0777219 0)
(-0.181818 0.528824 0)
(-0.18063 1.09628 0)
(-0.562625 1.41185 0)
(-0.338345 1.25322 0)
(-0.277155 1.22623 0)
(-0.361993 1.16138 0)
(-0.487986 1.26834 0)
(-0.72097 1.54965 0)
(-0.944494 1.2392 0)
(-0.924606 0.791319 0)
(-1.23751 0.437225 0)
(-1.54406 0.166424 0)
(-1.01276 -0.645911 0)
(-0.767986 -0.74251 0)
(-0.755514 -0.659159 0)
(-1.12062 -0.76159 0)
(-1.1054 -1.20914 0)
(-0.996214 -1.33035 0)
(-0.835958 -1.12618 0)
(-1.06957 -0.896414 0)
(-1.12266 -0.707536 0)
(-0.873065 -0.740703 0)
(-0.755196 -0.634829 0)
(-0.0433168 0.658887 0)
(-0.123433 1.14251 0)
(-0.411124 1.56686 0)
(-0.242049 1.61228 0)
(-0.302733 1.37291 0)
(-0.437608 1.45047 0)
(-0.478538 1.64141 0)
(-0.691535 1.80215 0)
(-0.833938 1.55923 0)
(-0.457173 0.907135 0)
(-0.640572 0.16866 0)
(-1.18255 -0.0760115 0)
(-0.961598 -0.704655 0)
(-0.181151 -0.919786 0)
(0.262051 -0.414662 0)
(-0.681724 -0.598023 0)
(-0.757078 -0.937856 0)
(-0.63943 -1.17003 0)
(-0.553529 -1.16226 0)
(-0.642544 -0.863069 0)
(-0.920126 -0.815054 0)
(-0.912887 -0.542948 0)
(-0.86884 -0.465244 0)
(0.0429336 0.739704 0)
(-0.0492573 1.11119 0)
(0.0160909 1.579 0)
(-0.230849 1.57275 0)
(-0.372964 1.34592 0)
(-0.276147 1.51789 0)
(-0.354169 1.64772 0)
(-0.376178 1.84305 0)
(-0.400185 1.61965 0)
(0.14942 1.74784 0)
(-0.454604 0.465308 0)
(-0.20947 -0.279332 0)
(0.00880341 -0.622027 0)
(0.0733371 -0.686476 0)
(0.657907 -0.320226 0)
(0.603708 -0.272132 0)
(0.361729 -0.639103 0)
(-0.0597807 -0.912835 0)
(-0.364835 -1.14334 0)
(-0.451142 -1.0531 0)
(-0.679402 -0.86819 0)
(-0.590256 -0.651524 0)
(-0.65743 -0.761462 0)
(0.0571479 0.707175 0)
(0.0811112 1.13326 0)
(-0.0191026 1.5658 0)
(-0.165074 1.33035 0)
(-0.282823 1.29456 0)
(-0.13105 1.47066 0)
(-0.138108 1.45218 0)
(-0.123748 1.65343 0)
(0.0732262 1.65218 0)
(0.731337 1.4515 0)
(0.474587 0.967223 0)
(0.459807 0.0183059 0)
(0.527102 -1.17233 0)
(0.819112 -1.25233 0)
(1.25798 -1.09986 0)
(1.1628 -0.306136 0)
(1.10109 -0.444841 0)
(0.861838 -0.628374 0)
(0.21539 -0.741916 0)
(-0.211518 -1.14015 0)
(-0.287332 -0.704804 0)
(-0.407454 -0.532226 0)
(-0.44536 -0.507819 0)
(0.0413737 0.62066 0)
(0.139958 1.22312 0)
(-0.14285 1.60663 0)
(-0.199149 1.48486 0)
(-0.193875 1.40669 0)
(-0.0654137 1.54876 0)
(-0.0688827 1.51492 0)
(0.358484 1.76524 0)
(0.931316 1.78153 0)
(0.97495 1.44764 0)
(0.987608 0.696123 0)
(0.690156 -0.262425 0)
(0.967003 -1.18376 0)
(1.22611 -1.44858 0)
(1.60678 -1.13018 0)
(1.63439 -0.70133 0)
(1.32492 -0.544473 0)
(1.09717 -0.488604 0)
(0.643005 -0.321818 0)
(-0.154284 -0.164238 0)
(-0.215986 -0.363866 0)
(-0.258424 -0.436537 0)
(-0.335856 -0.33541 0)
(-0.163814 0.47526 0)
(0.0656718 1.36593 0)
(-0.246784 1.6035 0)
(-0.0318536 1.57979 0)
(0.0464184 1.78293 0)
(0.128385 1.62089 0)
(0.250012 1.74471 0)
(0.605606 1.74549 0)
(0.982408 1.43599 0)
(0.920379 0.980293 0)
(0.994738 0.524772 0)
(1.25213 -0.0343296 0)
(1.09595 -0.618785 0)
(1.57255 -1.22851 0)
(1.51631 -0.790144 0)
(1.11876 -0.932096 0)
(0.76425 -0.442534 0)
(0.0251991 0.117127 0)
(-0.130853 0.336758 0)
(-0.207626 0.242091 0)
(-0.376422 -0.194855 0)
(-0.211006 -0.46993 0)
(-0.178483 -0.516233 0)
(-0.636416 0.606787 0)
(-0.0866008 1.54492 0)
(-0.383705 1.52053 0)
(0.0770624 1.40258 0)
(0.302563 1.64584 0)
(0.503851 1.39824 0)
(0.657108 1.4714 0)
(0.759599 1.19487 0)
(1.27628 1.04287 0)
(1.40852 0.522696 0)
(1.66195 0.353263 0)
(1.80493 -0.0848965 0)
(1.45922 -0.48509 0)
(1.2178 -0.570261 0)
(0.938363 -0.72565 0)
(0.515183 -0.858189 0)
(-0.174799 -0.0760679 0)
(-0.439039 0.439808 0)
(-0.385087 0.247079 0)
(-0.565828 0.125653 0)
(-0.578285 -0.279155 0)
(-0.286789 -0.564044 0)
(-0.179741 -0.790329 0)
(-0.793406 0.828134 0)
(0.0798126 1.64934 0)
(-0.70604 1.24225 0)
(0.522394 1.18637 0)
(1.23201 0.736036 0)
(1.55156 0.617071 0)
(1.45754 0.193537 0)
(1.69419 0.0280466 0)
(1.83875 0.167008 0)
(2.00183 0.338175 0)
(2.0883 0.279239 0)
(2.0201 0.196648 0)
(1.48588 0.0173474 0)
(1.04918 0.0487429 0)
(0.756705 -0.302586 0)
(0.281518 -0.0308363 0)
(-0.326441 0.765063 0)
(-0.376396 0.460445 0)
(-0.608691 0.218839 0)
(-0.54788 -0.128671 0)
(-0.346368 -0.32273 0)
(-0.413632 -0.496015 0)
(-0.326786 -0.734092 0)
(-0.832753 0.914604 0)
(0.540017 1.73145 0)
(-0.578281 1.06097 0)
(0.894968 0.523521 0)
(1.391 0.285315 0)
(1.28298 0.404791 0)
(1.02539 0.197864 0)
(1.03189 0.193229 0)
(1.07762 0.197771 0)
(1.24727 0.270477 0)
(1.34639 0.354538 0)
(1.28512 0.380142 0)
(0.92138 0.356688 0)
(0.731672 0.140778 0)
(0.696062 0.093799 0)
(0.328424 0.413904 0)
(-0.418057 1.10142 0)
(-0.540656 0.578745 0)
(-0.670795 0.38394 0)
(-0.576015 -0.219609 0)
(-0.320616 -0.431405 0)
(-0.23905 -0.539731 0)
(-0.322443 -0.642219 0)
(-0.81037 0.954601 0)
(0.757217 1.57489 0)
(0.0521656 0.65975 0)
(0.621662 0.423617 0)
(1.11325 0.20534 0)
(0.951972 0.029437 0)
(0.833731 0.126152 0)
(0.882791 0.132382 0)
(0.859641 0.0495929 0)
(0.89318 0.152323 0)
(0.914002 0.22228 0)
(0.856792 0.47477 0)
(0.824857 0.448583 0)
(0.681129 0.279408 0)
(0.610116 0.341759 0)
(0.0957082 0.957517 0)
(-0.487162 1.09625 0)
(-0.482719 0.695685 0)
(-0.372047 0.401114 0)
(-0.229211 -0.444148 0)
(-0.354921 -0.770601 0)
(-0.244756 -0.756543 0)
(-0.248636 -0.7941 0)
(-0.759514 0.964615 0)
(0.759724 1.38932 0)
(0.437119 0.353283 0)
(0.618841 0.370774 0)
(0.799073 0.137568 0)
(0.968112 -0.302115 0)
(0.957856 0.0205136 0)
(0.779999 0.1966 0)
(0.887201 0.0917048 0)
(0.818521 0.168006 0)
(0.769498 0.281008 0)
(0.807519 0.49646 0)
(0.769885 0.49165 0)
(0.643916 0.433512 0)
(0.30823 0.816258 0)
(-0.403224 1.38156 0)
(-0.544013 1.19774 0)
(-0.26419 0.780013 0)
(-0.31092 0.20645 0)
(-0.128597 -0.545024 0)
(-0.286278 -0.895601 0)
(-0.00729136 -0.857591 0)
(-0.117389 -0.802301 0)
(-0.675621 0.982967 0)
(0.646684 1.14175 0)
(0.429246 0.396777 0)
(0.609961 0.363434 0)
(0.856096 0.0775889 0)
(1.05417 -0.184016 0)
(1.11868 -0.250567 0)
(1.0208 -0.0630565 0)
(1.1287 0.0813842 0)
(1.04096 0.264776 0)
(0.632531 0.656084 0)
(0.677061 0.620995 0)
(0.587529 0.588276 0)
(0.545579 0.720963 0)
(-0.0512776 1.36566 0)
(-0.661583 1.77619 0)
(-0.587114 1.47325 0)
(-0.135177 1.002 0)
(0.197272 0.633136 0)
(-0.134851 -0.676352 0)
(-0.117116 -0.591528 0)
(0.1085 -0.84557 0)
(0.0211304 -0.854227 0)
(-0.481456 1.00567 0)
(0.18878 0.44331 0)
(0.348637 0.343016 0)
(0.805896 0.0452371 0)
(1.39933 -0.505453 0)
(1.30281 -0.448246 0)
(1.39271 -0.109029 0)
(1.09296 0.379296 0)
(1.14992 0.402276 0)
(0.947514 0.355307 0)
(0.394469 0.695096 0)
(0.332946 0.599198 0)
(0.439781 0.630158 0)
(0.254332 1.0009 0)
(-0.372698 1.7088 0)
(-0.571073 1.87053 0)
(-0.312785 1.47168 0)
(-0.284801 0.666913 0)
(-0.396631 -0.137169 0)
(0.202524 -0.780817 0)
(0.244666 -0.748114 0)
(0.156287 -0.935488 0)
(0.196989 -0.870981 0)
(-0.158544 1.29836 0)
(0.054889 0.196959 0)
(0.2861 0.0447476 0)
(0.808428 -0.349691 0)
(1.02425 -0.944911 0)
(0.980399 -0.60446 0)
(1.03455 -0.253368 0)
(0.645226 0.505643 0)
(0.814121 0.90387 0)
(0.592336 0.483348 0)
(0.254779 0.692871 0)
(0.0181731 1.01615 0)
(0.198973 0.821877 0)
(-0.09353 1.28611 0)
(-0.333119 1.82907 0)
(-0.467135 1.91883 0)
(0.0646982 1.22658 0)
(-0.104834 0.495156 0)
(0.2822 -0.190712 0)
(0.25676 -0.585048 0)
(0.28482 -0.969156 0)
(0.329614 -1.01957 0)
(0.256596 -0.923819 0)
(0.268631 1.14949 0)
(0.0806937 0.12061 0)
(0.577556 -0.41702 0)
(0.498976 -0.829829 0)
(0.177794 -0.60335 0)
(-0.0816716 -0.108933 0)
(-0.120706 0.420606 0)
(-0.3547 0.734116 0)
(0.187192 0.914166 0)
(-0.0337976 0.588209 0)
(-0.0235784 0.870176 0)
(-0.145031 0.883406 0)
(-0.316915 0.80262 0)
(-0.317721 1.50412 0)
(-0.223367 1.81394 0)
(-0.296777 1.83307 0)
(0.147174 0.654787 0)
(-0.000237899 0.204031 0)
(0.315304 -0.599473 0)
(0.427328 -0.639754 0)
(0.365165 -0.725689 0)
(0.433743 -0.927061 0)
(0.335828 -0.871514 0)
(0.327856 0.799821 0)
(0.181839 0.258484 0)
(0.287847 -0.227922 0)
(-0.31237 -0.50288 0)
(-0.61451 -0.326299 0)
(-0.617655 -0.0415209 0)
(-0.771134 0.277654 0)
(-0.796085 0.350467 0)
(-0.486277 0.668403 0)
(-0.490093 0.773384 0)
(-0.304544 0.688497 0)
(-0.427407 0.623261 0)
(-0.351713 0.941287 0)
(-0.369293 1.44252 0)
(-0.193808 1.63677 0)
(-0.0758321 1.62278 0)
(0.356668 0.452953 0)
(0.388205 0.213299 0)
(0.490589 -0.265219 0)
(0.620275 -0.539188 0)
(0.49393 -0.816623 0)
(0.453105 -0.924293 0)
(0.287017 -0.976961 0)
(0.223198 0.637244 0)
(0.0612241 0.339878 0)
(-0.419553 -0.103878 0)
(-0.522274 -0.343029 0)
(-0.85343 -0.233245 0)
(-0.905726 0.037968 0)
(-0.828535 0.184743 0)
(-0.862758 0.228441 0)
(-0.771286 0.522701 0)
(-0.912395 0.692988 0)
(-0.668456 0.839319 0)
(-0.483832 0.772531 0)
(-0.61347 1.13404 0)
(-0.616562 1.3666 0)
(-0.0537815 1.44852 0)
(0.425985 1.31958 0)
(0.561687 0.641835 0)
(0.468108 0.169038 0)
(0.550736 -0.369828 0)
(0.56643 -0.638272 0)
(0.585885 -1.05941 0)
(0.451042 -1.05023 0)
(0.22734 -0.88255 0)
(0.0319767 0.629516 0)
(-0.0387507 0.658841 0)
(-0.296513 0.513837 0)
(-0.733194 0.0892971 0)
(-0.876809 -0.0481488 0)
(-0.938115 -0.0239231 0)
(-0.887657 0.119225 0)
(-0.846107 0.11823 0)
(-0.812032 0.404336 0)
(-0.8268 0.595072 0)
(-0.721304 0.828564 0)
(-0.611869 0.839494 0)
(-0.695907 1.11825 0)
(-0.602519 1.33614 0)
(-0.128314 1.46401 0)
(0.377427 1.14659 0)
(0.48505 0.432156 0)
(0.516993 0.203086 0)
(0.617668 -0.33065 0)
(0.603469 -0.566931 0)
(0.425451 -0.782619 0)
(0.389052 -0.705208 0)
(0.444613 -0.558884 0)
(0.0164246 0.678689 0)
(-0.114892 1.32172 0)
(-0.614635 0.81743 0)
(-0.720928 0.426686 0)
(-0.609823 0.166013 0)
(-0.795766 0.040515 0)
(-0.819527 0.148739 0)
(-0.836039 0.207059 0)
(-0.736441 0.303893 0)
(-0.732704 0.328697 0)
(-0.75736 0.571128 0)
(-0.579014 0.624713 0)
(-0.688706 0.825459 0)
(-0.506974 0.999995 0)
(-0.220837 0.794276 0)
(0.0187045 0.518597 0)
(0.827547 0.0360876 0)
(0.870887 -0.215281 0)
(0.661986 -0.418101 0)
(0.50498 -0.517035 0)
(0.552462 -0.519079 0)
(0.541735 -0.503457 0)
(0.415195 -0.447604 0)
(-0.0869048 0.76928 0)
(-0.32107 1.47378 0)
(-0.460985 1.01083 0)
(-0.414852 1.02385 0)
(-0.599045 0.379145 0)
(-0.664864 0.229879 0)
(-0.677475 0.260895 0)
(-0.68983 0.28537 0)
(-0.612228 0.354218 0)
(-0.65059 0.28563 0)
(-0.670717 0.558181 0)
(-0.524122 0.594122 0)
(-0.48442 0.664542 0)
(-0.0419961 0.892637 0)
(0.349403 0.455946 0)
(0.433449 0.251805 0)
(0.827457 0.0296679 0)
(0.739076 -0.337993 0)
(0.654191 -0.319665 0)
(0.577314 -0.383387 0)
(0.480067 -0.329323 0)
(0.406065 -0.385584 0)
(0.273414 -0.448952 0)
(-0.142473 0.965185 0)
(-0.337163 1.90706 0)
(-0.311997 1.57101 0)
(-0.356857 1.32199 0)
(-0.824211 0.71904 0)
(-0.55053 0.346288 0)
(-0.406756 0.280161 0)
(-0.41721 0.290408 0)
(-0.312521 0.250734 0)
(-0.288623 0.333291 0)
(-0.312685 0.399191 0)
(-0.043522 0.533856 0)
(0.0255778 0.736247 0)
(0.31285 0.800197 0)
(0.396705 0.484675 0)
(0.527378 0.186641 0)
(0.857009 -0.290753 0)
(0.784485 -0.357458 0)
(0.732742 -0.297588 0)
(0.455825 -0.331623 0)
(0.355953 -0.3103 0)
(0.330485 -0.289198 0)
(0.218945 -0.316368 0)
(-0.213559 1.05614 0)
(-0.28747 1.89358 0)
(-0.131056 1.5936 0)
(-0.324385 1.21238 0)
(-0.693081 0.737233 0)
(-0.294462 0.464751 0)
(-0.266757 0.154452 0)
(-0.243793 0.0969454 0)
(-0.173937 0.117845 0)
(-0.150092 0.234303 0)
(0.0160481 0.255089 0)
(0.215631 0.149074 0)
(0.21969 0.239768 0)
(0.430967 0.316585 0)
(0.495641 0.186745 0)
(0.699366 0.145796 0)
(0.727138 -0.0867322 0)
(0.678354 -0.0908956 0)
(0.543368 -0.305865 0)
(0.380753 -0.291822 0)
(0.398532 -0.268101 0)
(0.332899 -0.259436 0)
(0.197874 -0.219113 0)
(-0.210637 1.25533 0)
(-0.190791 2.00697 0)
(-0.0523369 1.66484 0)
(-0.264515 1.2917 0)
(-0.426281 0.788854 0)
(-0.179584 0.334108 0)
(-0.250569 0.0219396 0)
(-0.133032 0.0172072 0)
(-0.0701431 0.0635801 0)
(0.0164469 0.135921 0)
(0.144658 0.213057 0)
(0.176978 0.151096 0)
(0.225997 0.19718 0)
(0.307489 0.15923 0)
(0.427713 0.148086 0)
(0.389344 0.0607559 0)
(0.465579 0.00900428 0)
(0.531994 -0.191739 0)
(0.399484 -0.257419 0)
(0.382513 -0.187902 0)
(0.212662 -0.212093 0)
(0.247914 -0.296 0)
(0.193465 -0.284281 0)
(-0.112256 1.28062 0)
(-0.0412762 1.99741 0)
(-0.0888086 1.68607 0)
(-0.132128 1.39998 0)
(-0.218632 0.685415 0)
(-0.0810643 0.151263 0)
(-0.110706 -0.0158777 0)
(-0.0210999 -0.0134631 0)
(-0.0248244 -0.0188384 0)
(0.0489464 0.0222643 0)
(0.0972022 -0.00361028 0)
(0.154223 0.0149393 0)
(0.165152 0.018544 0)
(0.260663 0.0333072 0)
(0.438032 0.102458 0)
(0.54666 0.0565389 0)
(0.499262 0.10269 0)
(0.351777 0.0293883 0)
(0.31947 -0.0190664 0)
(0.268042 -0.178424 0)
(0.132419 -0.179689 0)
(0.173137 -0.227479 0)
(0.288757 -0.310903 0)
(0.0939072 1.52577 0)
(0.238483 2.16635 0)
(-0.0210436 1.83728 0)
(-0.064995 1.52065 0)
(-0.205695 0.689775 0)
(-0.0161775 0.166989 0)
(0.00116743 0.00706917 0)
(0.022137 -0.0548492 0)
(0.0154674 -0.0345084 0)
(0.0652179 -0.00305565 0)
(0.0915276 0.00852965 0)
(0.0984309 -0.00471126 0)
(0.159056 -0.000925201 0)
(0.340498 0.109834 0)
(0.367833 0.138015 0)
(0.337312 0.0493833 0)
(0.401768 -0.188539 0)
(0.339378 -0.114371 0)
(0.23356 -0.153665 0)
(0.237171 -0.141871 0)
(0.190508 -0.118156 0)
(0.228473 -0.124916 0)
(0.291194 -0.266797 0)
(-0.0335006 2.12907 0)
(0.126611 2.38478 0)
(-0.115332 1.97051 0)
(-0.126063 1.52976 0)
(-0.155488 0.658269 0)
(0.0268391 0.22466 0)
(-0.0226216 -0.050009 0)
(0.0677331 -0.0935027 0)
(0.061524 -0.116129 0)
(0.0936817 -0.0998014 0)
(0.0884132 -0.0675095 0)
(0.120029 -0.094098 0)
(0.180801 0.0263587 0)
(0.394562 -0.0566929 0)
(0.379798 -0.017327 0)
(0.294611 0.0228155 0)
(0.368709 -0.0436238 0)
(0.332596 -0.089918 0)
(0.314419 -0.0448969 0)
(0.298051 0.0178841 0)
(0.261703 -0.0254871 0)
(0.189 -0.120305 0)
(0.246202 -0.269103 0)
(-0.0567246 2.10351 0)
(-0.0375402 2.36402 0)
(-0.421189 2.25709 0)
(-0.328589 1.50973 0)
(-0.0951169 0.56886 0)
(0.067211 0.0603635 0)
(0.0882615 -0.116487 0)
(0.0887482 -0.0608475 0)
(0.0446211 -0.07483 0)
(0.120587 -0.0568429 0)
(0.0779353 -0.0303345 0)
(0.181156 -0.0465647 0)
(0.180481 -0.0101704 0)
(0.212128 -0.00213208 0)
(0.376584 -0.0853456 0)
(0.219075 -0.0276931 0)
(0.236176 -0.0759092 0)
(0.420526 -0.175706 0)
(0.429823 -0.0627459 0)
(0.324308 -0.09451 0)
(0.159169 -0.00235823 0)
(0.287137 -0.0675722 0)
(0.253412 -0.159187 0)
(-0.110293 2.17847 0)
(-0.137326 2.54889 0)
(-0.562041 2.12401 0)
(-0.531877 1.06181 0)
(-0.101717 0.213764 0)