/*--------------------------------*- C++ -*----------------------------------*\
| =========                 |                                                 |
| \\      /  F ield         | foam-extend: Open Source CFD                    |
|  \\    /   O peration     | Version:     4.1                                |
|   \\  /    A nd           | Web:         http://www.foam-extend.org         |
|    \\/     M anipulation  |                                                 |
\*---------------------------------------------------------------------------*/
FoamFile
{
    version     2.0;
    format      ascii;
    class       volScalarField;
    location    "0.6";
    object      alpha1;
}
// * * * * * * * * * * * * * * * * * * * * * * * * * * * * * * * * * * * * * //

dimensions      [0 0 0 0 0 0 0];

internalField   nonuniform List<scalar> 
2268
(
1
1
1
1
1
1
1
1
1
0.999639
0.998048
0.997569
0.997789
0.998377
0.999055
0.999622
1
1
1
1
1
1
1
1
1
1
1
1
1
1
1
1
0.998085
0.99676
0.99658
0.997057
0.997863
0.9987
0.999375
0.999855
1
1
1
1
1
1
0.998002
0.998202
0.99736
0.998005
0.998312
0.9997
1
0.999776
0.997051
0.994434
0.993921
0.994474
0.995507
0.996757
0.997906
0.998802
0.999454
0.999759
0.999968
1
1
1
0.999958
0.985557
0.986373
0.985479
0.987729
0.989224
0.99292
0.995522
0.993416
0.990137
0.988483
0.989599
0.991335
0.993134
0.994985
0.996569
0.997787
0.998709
0.999184
0.999582
0.999811
0.999933
0.999932
1
0.954299
0.956717
0.956589
0.962848
0.967509
0.976518
0.982324
0.980231
0.978409
0.979758
0.98363
0.986943
0.989631
0.992226
0.994378
0.996048
0.997387
0.998146
0.998877
0.999336
0.999648
1
1
0.885165
0.891214
0.893818
0.908622
0.920392
0.94048
0.953912
0.955304
0.959863
0.967168
0.975153
0.980414
0.984232
0.987852
0.990783
0.993085
0.995084
0.996333
0.997633
0.99856
0.999304
1
1
0.753798
0.766086
0.774256
0.80334
0.827901
0.867862
0.897809
0.911142
0.930525
0.947938
0.961996
0.969957
0.975647
0.980893
0.984966
0.988176
0.991212
0.993381
0.995553
0.997296
0.998844
1
1
0.557299
0.575182
0.589209
0.63227
0.67175
0.737719
0.796811
0.836372
0.882214
0.916512
0.940268
0.952728
0.961943
0.969906
0.975719
0.980302
0.984943
0.988698
0.99214
0.995107
0.997876
1
1
0.250552
0.276821
0.286278
0.293656
0.297019
0.304651
0.315947
0.333305
0.363043
0.395946
0.427028
0.45248
0.479647
0.503035
0.513912
0.52988
0.529809
0.52199
0.521809
0.247363
0.264428
0.259658
0.281301
0.292253
0.299768
0.311059
0.289132
0.292821
0.311481
0.345121
0.364535
0.382175
0.438389
0.464752
0.501297
0.515796
0.513186
0.516964
0.23914
0.240437
0.208558
0.249457
0.294306
0.338095
0.416652
0.330881
0.282685
0.240692
0.248053
0.254609
0.26088
0.330294
0.376316
0.426021
0.457859
0.491365
0.509871
0.228287
0.206023
0.157563
0.200481
0.284056
0.398867
0.591964
0.511173
0.431412
0.292669
0.221341
0.188102
0.168245
0.226833
0.278153
0.331139
0.350688
0.452449
0.504072
0.216149
0.170889
0.110568
0.135552
0.233671
0.433833
0.724669
0.705708
0.655088
0.489415
0.302771
0.187306
0.123363
0.158148
0.19496
0.243574
0.250113
0.394935
0.499782
0.204526
0.144923
0.0793058
0.0892524
0.200183
0.470964
0.793698
0.81835
0.796691
0.689375
0.446612
0.211997
0.111215
0.121496
0.136163
0.17641
0.186642
0.335711
0.496857
0.194731
0.128212
0.0648685
0.068026
0.201942
0.536611
0.83188
0.861897
0.838381
0.763685
0.571239
0.279082
0.125085
0.100031
0.0951297
0.12843
0.148336
0.285376
0.495044
0.184835
0.120497
0.0628053
0.0674432
0.236315
0.617752
0.852407
0.869763
0.831233
0.724794
0.57572
0.31749
0.145004
0.0910023
0.0748611
0.0957104
0.11712
0.239316
0.494178
0.248688
0.262512
0.274984
0.313271
0.357021
0.445512
0.557579
0.655758
0.76184
0.837351
0.8853
0.909791
0.928692
0.943627
0.953663
0.961544
0.970237
0.977622
0.983564
0.988659
0.99394
1
1
0.0634834
0.0679166
0.0741984
0.091859
0.120206
0.1729
0.259646
0.34753
0.494073
0.634707
0.735535
0.791706
0.832889
0.868644
0.891227
0.907932
0.92686
0.941973
0.952127
0.961451
0.97287
0.9899
0.980957
0.0188263
0.0210204
0.0262851
0.0362278
0.0518718
0.0736014
0.117623
0.167434
0.245555
0.341467
0.436157
0.530623
0.581656
0.666323
0.723527
0.75863
0.797451
0.818568
0.847838
0.844915
0.875255
0.935598
0.987239
0.00784851
0.00968438
0.0140312
0.0198005
0.027722
0.0424796
0.0656768
0.0934481
0.117635
0.155354
0.198341
0.252473
0.274016
0.330544
0.386251
0.417651
0.460574
0.468465
0.503202
0.475407
0.550121
0.713696
0.866779
0.00405043
0.0051758
0.00759851
0.0119578
0.0187381
0.0322514
0.04475
0.0558704
0.0617957
0.0748573
0.0872251
0.104884
0.113147
0.112357
0.115429
0.128134
0.136495
0.136243
0.126722
0.106005
0.148
0.26453
0.429405
0.00223027
0.00296126
0.00461352
0.00756441
0.0119025
0.0192367
0.0239379
0.0266505
0.0264853
0.0291347
0.0330999
0.0343073
0.0337821
0.033678
0.0295403
0.0354664
0.0362867
0.0339761
0.0330831
0.0415268
0.0681086
0.101835
0.132689
0.00123707
0.0015853
0.00282481
0.00498207
0.00809499
0.0111725
0.012459
0.01199
0.0110046
0.0109008
0.0119233
0.00993707
0.00956255
0.0103963
0.0111957
0.0162828
0.0224155
0.0323514
0.0454222
0.0599696
0.0744414
0.0886182
0.0992274
0.000632164
0.000724208
0.00160638
0.00278662
0.00423369
0.00530656
0.00569564
0.00520556
0.00460836
0.00417376
0.00366567
0.00368615
0.00677998
0.00991329
0.012954
0.0175072
0.0245602
0.0364357
0.0548846
0.0785797
0.102247
0.121811
0.136964
0.000264431
0.00025865
0.000775055
0.00135154
0.00188649
0.00233212
0.00240302
0.00250314
0.00299862
0.00441303
0.00639384
0.00938534
0.013668
0.01888
0.0261035
0.0352544
0.0456715
0.0578764
0.0721727
0.0887118
0.107625
0.126706
0.152952
5.01963e-05
3.36979e-05
0.000292967
0.000580969
0.000792603
0.00109734
0.00111268
0.00138275
0.00222091
0.00408823
0.0066604
0.00984067
0.0148603
0.0229697
0.0329527
0.0420619
0.0505468
0.0596449
0.0706513
0.0836378
0.0945067
0.10419
0.114125
0
0
1.50697e-05
0.000148068
0.000232554
0.000467313
0.000675698
0.000859292
0.00112821
0.00205112
0.00378174
0.00546028
0.00826949
0.0160153
0.0252621
0.0303649
0.0328971
0.035242
0.0382304
0.0430297
0.0462086
0.0487399
0.0507893
0.000355326
0.000142566
2.02498e-05
4.4937e-05
0.000137602
0.000539175
0.00116923
0.00195032
0.00300369
0.00528514
0.0083097
0.0110901
0.0135383
0.0150897
0.015497
0.0124421
0.0105681
0.0102367
0.010562
0.0131996
0.0169395
0.019677
0.0214685
0.0013296
0.000786817
0.000129122
9.66744e-05
0.000504752
0.00185688
0.0035208
0.00489011
0.00609796
0.00715858
0.00809935
0.00849003
0.00827254
0.0074567
0.00518793
0.00294767
0.00174009
0.00152594
0.00225371
0.00456102
0.00695092
0.00851618
0.00957767
0.00173109
0.000864561
0.0003683
0.00048397
0.00175004
0.00360988
0.00467974
0.00510982
0.00526221
0.00519776
0.00409069
0.00282915
0.00129034
0.000802872
0.000524274
0.000218557
1.49298e-07
0.000175211
0.00174835
0.00424612
0.00485683
0.00461136
0.00455285
0.00204271
0.00128784
0.00095065
0.00145348
0.00310316
0.00441305
0.00469031
0.0043317
0.00285257
0.00166893
0.00081971
0.000336734
5.01227e-05
0
0
0
0
0
0.000133129
0.00146959
0.00234058
0.00192324
0.0017012
0.00234097
0.00220523
0.00220448
0.00297392
0.00399625
0.00430002
0.00405214
0.00263797
0.00126232
0.00057869
0.000303888
0.000160131
6.80349e-05
7.51135e-06
0
0
0
0
0
9.73943e-05
0.000450891
0.000521487
0.000474782
0.00245446
0.00284369
0.00306441
0.00352885
0.00396489
0.00403891
0.00337016
0.00220062
0.00116501
0.000526378
0.000237373
8.80361e-05
1.79835e-05
0
0
0
0
0
0
0
0
3.15221e-05
5.11517e-05
0.00243249
0.00293515
0.00311148
0.00335656
0.00373914
0.00355068
0.00256868
0.0015979
0.00078237
0.000339817
0.000110044
2.01098e-05
0
0
0
0
0
0
4.21313e-07
0
0
0
0
0.00231697
0.00283156
0.0028211
0.00267076
0.00317536
0.00275009
0.00161204
0.000796856
0.000336976
0.000130497
4.51909e-05
8.36541e-06
0
0
0
0
0
0
3.5184e-07
5.16813e-07
0
0
0
0.00196826
0.00247128
0.00184515
0.00149801
0.00208042
0.00155526
0.000916809
0.000435836
0.000174422
6.51588e-05
2.03921e-05
2.27033e-06
0
0
0
0
0
0
2.75519e-08
1.60911e-07
2.53638e-07
1.99883e-07
4.00482e-08
0.00136718
0.00173596
0.000919755
0.000512715
0.000787831
0.000489994
0.000241533
9.5101e-05
3.48483e-05
1.01676e-05
1.02847e-06
0
0
0
0
0
0
8.75304e-09
1.38061e-08
5.30943e-09
2.27383e-08
6.41659e-08
1.43028e-07
0.000709904
0.000814761
0.000456014
0.000129508
0.000226545
0.000121233
5.04799e-05
1.74331e-05
6.14856e-06
1.38607e-06
0
0
0
0
0
0
0
1.27937e-08
9.4701e-09
0
0
0
6.33272e-09
0.000284579
0.000246128
0.000166689
4.82211e-05
5.10563e-05
2.74389e-05
7.63188e-06
1.9412e-06
4.94562e-07
0
0
0
0
0
0
4.5065e-10
1.00334e-08
7.02181e-09
2.43648e-09
2.23239e-10
0
0
0
8.12758e-05
4.73536e-05
3.65538e-05
1.39311e-05
9.03937e-06
4.16288e-06
9.4697e-07
1.52186e-07
2.87605e-08
0
0
1.44542e-08
2.11043e-08
1.39406e-08
9.93455e-09
9.67351e-09
8.04425e-09
3.90366e-09
7.54353e-10
3.60887e-11
1.14251e-11
0
0
1.46673e-05
6.74946e-06
4.25286e-06
2.10109e-06
1.491e-06
6.4265e-07
1.70544e-07
3.63367e-08
1.02506e-08
4.94938e-09
1.24007e-08
1.78494e-08
1.48293e-08
9.02483e-09
6.58241e-09
4.91358e-09
2.73732e-09
8.37072e-10
6.65931e-11
0
0
6.91605e-11
1.36371e-10
1.44114e-06
5.88571e-07
3.50643e-07
1.5001e-07
2.21951e-07
9.99234e-08
2.67474e-08
8.18544e-09
5.26055e-09
5.94097e-09
8.95455e-09
7.86e-09
5.11534e-09
3.33921e-09
2.54112e-09
1.7915e-09
6.17136e-10
3.59771e-11
0
0
0
0
1.1333e-10
5.0755e-08
1.18694e-08
1.64408e-08
6.75333e-09
2.24122e-08
1.07476e-08
3.15785e-09
1.22775e-09
1.28956e-09
1.84663e-09
2.71561e-09
1.84302e-09
9.1928e-10
7.88954e-10
6.42136e-10
4.56611e-10
8.77261e-11
0
0
0
0
0
2.95643e-11
0
0
5.01527e-11
0
1.98174e-09
8.32123e-10
1.43236e-10
3.97343e-12
8.80115e-11
1.79123e-10
3.69213e-10
1.33776e-10
9.36995e-12
7.90217e-11
1.03233e-10
6.77951e-11
0
0
0
0
0
0
2.67913e-11
0
0
0
0
9.20203e-11
0
0
0
0
0
0
0
0
0
0
0
0
0
0
0
0
0
1.28117e-10
0
0
0
0
0
0
0
0
0
0
0
0
0
0
0
0
0
0
0
0
0
1.04901e-11
3.74362e-10
0
0
0
0
0
0
0
0
0
0
0
0
0
0
0
0
2.14162e-13
0
0
0
0
1.28324e-10
8.60828e-10
0
0
2.05724e-13
2.65232e-13
1.46327e-13
1.26732e-13
2.78333e-13
3.51275e-13
3.23297e-13
2.57239e-13
0
0
1.86406e-13
2.2593e-14
2.37144e-13
1.5376e-12
1.56292e-12
0
0
0
0
3.53061e-10
1.5745e-09
0
0
4.90719e-14
5.4623e-14
3.02536e-14
4.14668e-14
7.33302e-14
8.78742e-14
8.66529e-14
1.11133e-13
0
7.08877e-14
7.91589e-14
1.44051e-13
8.22453e-13
2.3419e-12
0
0
0
0
2.82147e-10
1.27037e-09
2.76985e-09
0
7.43849e-15
7.60503e-15
5.88418e-15
2.16493e-15
1.4988e-15
5.88418e-15
8.77076e-15
9.60343e-15
1.77636e-14
6.71685e-15
0
3.2474e-14
4.33098e-13
2.08883e-12
2.61452e-12
0
0
0
0
1.29425e-09
3.6044e-09
4.46983e-09
5.88418e-15
7.60503e-15
6.21725e-15
5.66214e-15
4.10783e-15
3.38618e-15
4.60743e-15
6.4948e-15
5.93969e-15
2.60902e-15
0
0
8.68194e-14
9.76774e-13
3.84465e-12
1.78335e-12
0
0
0
6.71349e-10
4.12216e-09
5.75529e-09
2.94669e-10
4.16334e-15
5.32907e-15
6.38378e-15
5.82867e-15
4.77396e-15
4.21885e-15
5.66214e-15
9.38138e-15
7.54952e-15
0
0
0
3.00593e-13
1.74594e-12
3.93297e-12
0
0
0
6.34996e-11
1.95059e-09
6.64214e-09
4.46649e-09
0
4.32987e-15
5.82867e-15
7.66054e-15
5.9952e-15
6.93889e-15
6.27276e-15
6.55032e-15
1.08802e-14
6.71685e-15
0
0
4.34652e-14
9.38138e-13
3.77215e-12
2.40258e-12
0
0
0
7.24003e-10
4.61801e-09
8.29612e-09
0
0
5.05151e-15
5.21805e-15
5.66214e-15
4.44089e-15
5.32907e-15
4.55191e-15
6.16174e-15
9.99201e-15
3.33067e-15
0
0
2.30482e-13
1.75215e-12
4.48225e-12
0
0
0
2.26968e-12
2.60462e-09
1.03364e-08
7.24683e-09
0
0
4.71845e-15
4.66294e-15
5.93969e-15
4.82947e-15
5.32907e-15
4.4964e-15
5.32907e-15
7.54952e-15
0
0
0
6.72462e-13
3.05689e-12
2.4199e-12
0
0
0
7.50823e-10
6.31263e-09
1.68782e-08
1.89099e-09
0
0
4.66294e-15
4.16334e-15
5.4956e-15
4.88498e-15
4.05231e-15
5.27356e-15
6.99441e-15
6.16174e-15
0
0
6.72795e-14
1.05438e-12
2.99683e-12
0
0
0
1.14463e-11
2.7536e-09
1.30277e-08
2.55172e-08
0
0
0
4.10783e-15
1.4988e-15
2.88658e-15
5.05151e-15
3.60822e-15
4.55191e-15
8.43769e-15
4.82947e-15
0
0
2.36366e-13
1.66073e-12
2.39847e-12
0
0
0
5.16177e-10
5.27604e-09
1.92205e-08
3.25689e-08
0
0
0
5.9952e-15
2.9976e-15
2.38698e-15
1.83187e-15
1.27676e-15
3.9968e-15
8.82627e-15
4.88498e-15
0
0
4.3604e-13
2.27529e-12
2.54052e-12
0
0
0
7.5145e-10
6.33489e-09
2.18462e-08
3.61223e-08
0
0
0
0.935008
0.793643
0.537478
0.282588
0.848603
0.647069
0.394169
0.225704
0.949044
0.822088
0.574967
0.326653
0.924054
0.915741
0.835401
0.677963
0.585118
0.674434
0.729269
0.744226
0.164601
0.19867
0.25106
0.318515
0.106924
0.111785
0.117979
0.125143
0.144528
0.146953
0.148699
0.150541
0.173618
0.183291
0.191651
0.199155
0.120886
0.123345
0.12618
0.127202
0.0529414
0.0534146
0.0538005
0.0534289
0.0228847
0.0232819
0.0230478
0.022936
0.0104122
0.0109319
0.0111754
0.0111596
0.00496312
0.00549597
0.00599704
0.00627269
0.00187765
0.00222306
0.00264003
0.0029587
0.0004981
0.000584695
0.000735464
0.000914839
6.1932e-05
7.77007e-05
0.000109441
0.000163328
0
0
0
0
0
0
0
0
0
0
0
0
2.38504e-07
2.99992e-07
2.76995e-07
7.16666e-08
3.04237e-08
6.58675e-08
1.10779e-07
1.28923e-07
0
1.83092e-09
1.39504e-08
2.89807e-08
0
0
0
3.03343e-09
3.73073e-11
2.09277e-11
1.82044e-10
7.32497e-10
3.09891e-10
5.21901e-10
8.48964e-10
1.33761e-09
1.83207e-10
3.83478e-10
7.41505e-10
1.36338e-09
1.77682e-10
4.05162e-10
8.67639e-10
1.72923e-09
4.19127e-10
8.1023e-10
1.55578e-09
2.85745e-09
1.00298e-09
1.76e-09
2.95772e-09
4.62644e-09
2.12719e-09
3.66465e-09
5.88244e-09
8.18672e-09
3.3553e-09
5.32964e-09
7.66744e-09
8.55766e-09
4.98874e-09
7.43495e-09
8.39096e-09
1.46846e-09
5.44888e-09
4.84724e-09
0
0
0
0
0
0
0
0
0
0
0
0
0
0
0
0
0
0
0
0
0
0
0
0
0
0
0
0
0
0
0
0
0
0
0.163332
0.108929
0.0665153
0.0982002
0.34538
0.725933
0.870246
0.866051
0.778276
0.556559
0.501004
0.401139
0.216022
0.106968
0.071127
0.066528
0.0913563
0.206933
0.494618
0.123473
0.0970069
0.119029
0.300702
0.714762
0.880694
0.887637
0.839253
0.700403
0.408888
0.225595
0.287372
0.240849
0.147682
0.0817805
0.0602698
0.0753903
0.195566
0.504785
0.147797
0.148085
0.327565
0.660603
0.831089
0.871637
0.773375
0.765089
0.661598
0.321347
0.119851
0.179392
0.21151
0.176211
0.107131
0.0634431
0.0967883
0.252848
0.545293
0.446889
0.459019
0.717992
0.827957
0.779499
0.688287
0.545771
0.67569
0.603946
0.268009
0.0955392
0.0997286
0.169126
0.15696
0.110967
0.0731363
0.18004
0.405156
0.605755
0.729643
0.69862
0.730233
0.573516
0.448635
0.412047
0.405116
0.589212
0.428154
0.0867497
0.036998
0.0712353
0.142005
0.135675
0.103652
0.0848474
0.214415
0.446022
0.610931
0.401786
0.364177
0.281982
0.214829
0.232427
0.276232
0.360412
0.497153
0.286724
0.0577092
0.0367796
0.0809469
0.110422
0.110135
0.0885938
0.0729714
0.187105
0.389807
0.596413
0.134447
0.139703
0.162013
0.212761
0.280159
0.325471
0.372537
0.455096
0.240086
0.0577597
0.047362
0.0696241
0.07748
0.0815972
0.0649444
0.0856983
0.277374
0.524306
0.603454
0.155381
0.169958
0.203023
0.261813
0.334729
0.381643
0.39939
0.35191
0.134226
0.0396063
0.0335674
0.0447921
0.0470701
0.0509269
0.0575513
0.168933
0.358276
0.574736
0.587661
0.211081
0.234703
0.257278
0.282331
0.3374
0.377886
0.371048
0.268048
0.0954833
0.0374245
0.0316971
0.0418477
0.0571872
0.0801662
0.135508
0.336421
0.51106
0.606175
0.583821
0.128979
0.143819
0.203121
0.243144
0.293606
0.332091
0.339357
0.271258
0.127675
0.0650732
0.0546666
0.0687305
0.143329
0.270027
0.302981
0.411271
0.557506
0.630179
0.584399
0.0552154
0.0654373
0.100538
0.139079
0.185559
0.268525
0.325531
0.346104
0.288297
0.191599
0.161607
0.17597
0.312422
0.392419
0.398716
0.428016
0.553057
0.63057
0.586062
0.0245822
0.032586
0.0511461
0.0900191
0.137205
0.217207
0.291307
0.33448
0.344342
0.337543
0.333997
0.338183
0.379494
0.381892
0.369071
0.310769
0.434449
0.565749
0.576442
0.0110927
0.0124418
0.0170613
0.0261583
0.040372
0.0720598
0.132879
0.189351
0.222802
0.238831
0.244178
0.256105
0.209128
0.198817
0.2008
0.180331
0.323677
0.465033
0.555623
0.00664937
0.00781182
0.011105
0.0151374
0.0230738
0.0343427
0.0485286
0.0663239
0.0791127
0.0838083
0.0862021
0.103282
0.0899824
0.103521
0.123683
0.143779
0.275748
0.399544
0.517968
0.00332684
0.00368925
0.0050454
0.00651829
0.0101587
0.0152567
0.0212397
0.0284404
0.0325874
0.0343058
0.0374643
0.0467052
0.0521762
0.0632132
0.0917081
0.127632
0.238132
0.342137
0.476682
0.00120122
0.00129333
0.00176624
0.00239648
0.00369246
0.00542587
0.00858323
0.0118316
0.0142479
0.0166189
0.0207381
0.0259504
0.0298396
0.0359753
0.0612045
0.0930289
0.186047
0.298564
0.434365
0.000291706
0.000390225
0.00068831
0.00119241
0.00191207
0.00235808
0.00407902
0.00597026
0.00781174
0.0101764
0.012969
0.014431
0.0145969
0.0204482
0.0367605
0.0663925
0.128248
0.232902
0.376863
8.91338e-06
5.13936e-05
0.000161313
0.000438988
0.00107284
0.000851451
0.00126053
0.00233772
0.00352581
0.00464992
0.00622099
0.00626547
0.00577691
0.00840687
0.0174328
0.0388405
0.0874426
0.186034
0.309319
0
0
1.70176e-05
0.000125404
0.000521805
0.000422107
0.000641687
0.00139366
0.00174134
0.00181608
0.002524
0.00275191
0.00241967
0.00355058
0.00884776
0.0242865
0.0648063
0.14865
0.25408
0
0
0
1.03451e-05
0.000118802
0.000144175
0.000198029
0.000368707
0.000498172
0.000460427
0.000691096
0.00118577
0.00112532
0.0015043
0.00491674
0.0164706
0.0495334
0.12275
0.215246
0
0
0
0
7.86164e-06
3.04836e-05
4.86471e-05
7.54785e-05
9.68908e-05
0.000102061
0.000197949
0.000441029
0.000504019
0.000665846
0.00314682
0.0124768
0.0395302
0.102762
0.187105
5.39732e-08
0
0
0
0
1.00033e-06
4.92774e-06
1.13997e-05
1.16766e-05
1.3334e-05
4.15567e-05
0.000130073
0.000167883
0.000274924
0.00192928
0.00942986
0.0322378
0.0879121
0.166103
4.86714e-08
3.60047e-08
0
0
0
0
0
0
0
0
8.95003e-06
3.07169e-05
4.90633e-05
0.00013798
0.0011601
0.00656729
0.0254194
0.0750522
0.149585
1.17234e-08
2.60189e-08
1.06577e-08
0
0
0
0
0
0
0
6.5839e-07
4.72399e-06
1.55021e-05
7.67486e-05
0.000666021
0.00414993
0.0190519
0.0631166
0.136082
2.52087e-09
6.87207e-09
1.22237e-08
0
0
0
0
0
0
0
2.86062e-07
2.10127e-06
1.13281e-05
5.52149e-05
0.000434168
0.00304054
0.0147976
0.0536693
0.124483
2.42997e-09
2.94362e-09
3.24706e-09
0
0
0
0
0
0
0
2.93436e-07
1.35684e-06
6.26026e-06
4.30797e-05
0.000399937
0.0026028
0.0122975
0.0472933
0.113743
2.9307e-09
3.68149e-09
2.51329e-09
0
0
0
0
0
0
0
0
1.44169e-06
9.85134e-06
6.68084e-05
0.000397039
0.00226163
0.0104335
0.0427188
0.103483
4.02903e-09
6.46635e-09
5.47923e-09
0
0
0
0
0
0
0
0
1.30128e-06
1.26702e-05
9.81237e-05
0.000529029
0.00217521
0.00845463
0.0367296
0.092025
6.14496e-09
9.85459e-09
9.92586e-09
6.36351e-09
0
0
0
0
0
0
0
3.94447e-06
1.89399e-05
9.83865e-05
0.000462282
0.00181593
0.00693694
0.0309253
0.0824466
7.78311e-09
1.05361e-08
7.97057e-09
0
0
0
0
0
0
0
1.74598e-06
1.13547e-05
3.62358e-05
0.000136896
0.000502458
0.00147865
0.00561671
0.0275729
0.0760946
1.04878e-08
2.50665e-09
0
0
0
0
0
0
0
0
0
4.00149e-06
1.79379e-05
7.51064e-05
0.000278047
0.000951613
0.00496669
0.0260952
0.0728023
3.64993e-09
0
0
0
0
0
0
0
0
0
0
1.33975e-06
8.94992e-06
4.60751e-05
0.000222546
0.000938947
0.00498051
0.0249368
0.0706488
0
0
0
0
0
0
0
0
0
0
0
2.32465e-07
9.74482e-06
5.87876e-05
0.000243109
0.0009465
0.00517456
0.0241072
0.0680944
0
0
0
0
0
0
0
0
0
0
0
0
9.03039e-06
4.60228e-05
0.000163394
0.00062807
0.00415462
0.0215626
0.0642324
0
0
0
0
0
0
0
0
0
0
0
0
4.07069e-06
2.77528e-05
0.000118542
0.000637551
0.0038881
0.0194846
0.0577019
0
0
0
0
0
0
1.97933e-06
2.23258e-06
2.06169e-06
3.92594e-07
0
0
0
8.50726e-06
8.4229e-05
0.000707961
0.0046342
0.0190575
0.0459296
0
0
0
0
2.12237e-06
4.90605e-06
1.08674e-05
1.49989e-05
1.35324e-05
8.21753e-06
1.52063e-06
0
0
4.27265e-06
4.96402e-05
0.000402395
0.00235422
0.0104086
0.035356
0
0
0
3.8766e-06
1.24996e-05
2.0686e-05
3.33391e-05
4.28736e-05
3.62202e-05
2.53628e-05
1.06769e-05
2.41667e-06
5.63794e-07
3.36377e-06
1.82297e-05
0.000115022
0.00084831
0.0065081
0.0307387
0
0
2.29847e-06
1.48041e-05
3.03402e-05
5.06527e-05
7.23933e-05
7.70894e-05
6.63512e-05
4.97902e-05
3.0229e-05
1.6346e-05
5.39467e-06
5.96423e-06
2.00139e-05
9.1418e-05
0.000525888
0.00424036
0.0221516
0
0
6.49191e-06
2.627e-05
4.71185e-05
7.27398e-05
0.000101892
0.000105684
9.69095e-05
7.76033e-05
5.39455e-05
2.83076e-05
1.08037e-05
8.75004e-06
1.32147e-05
3.59579e-05
0.000198731
0.00258332
0.0168813
0
0
1.22677e-05
3.32909e-05
5.82546e-05
8.39896e-05
0.000113193
0.000120692
0.000108862
9.16703e-05
7.11515e-05
4.98179e-05
2.66789e-05
1.58719e-05
1.8161e-05
2.42522e-05
4.24743e-05
0.000944046
0.00983551
0
0
1.58408e-05
3.76055e-05
6.41437e-05
9.10561e-05
0.000118779
0.000126837
0.000116539
0.00010356
8.86645e-05
7.39498e-05
5.04996e-05
2.99204e-05
2.80119e-05
2.9052e-05
0
7.48069e-05
0.00300242
)
;

boundaryField
{
    leftWall
    {
        type            zeroGradient;
    }
    rightWall
    {
        type            zeroGradient;
    }
    lowerWall
    {
        type            zeroGradient;
    }
    atmosphere
    {
        type            inletOutlet;
        inletValue      uniform 0;
        value           nonuniform List<scalar> 
46
(
5.9952e-15
2.9976e-15
2.38698e-15
1.83187e-15
1.27676e-15
3.9968e-15
8.82627e-15
4.88498e-15
0
0
4.3604e-13
2.27529e-12
2.54052e-12
0
0
0
7.5145e-10
6.33489e-09
2.18462e-08
3.61223e-08
0
0
0
0
0
0
0
0
0
1.58408e-05
3.76055e-05
6.41437e-05
9.10561e-05
0.000118779
0.000126837
0.000116539
0.00010356
8.86645e-05
7.39498e-05
5.04996e-05
2.99204e-05
2.80119e-05
2.9052e-05
0
7.48069e-05
0.00300242
)
;
    }
    defaultFaces
    {
        type            empty;
    }
}


// ************************************************************************* //
