/*--------------------------------*- C++ -*----------------------------------*\
| =========                 |                                                 |
| \\      /  F ield         | foam-extend: Open Source CFD                    |
|  \\    /   O peration     | Version:     4.1                                |
|   \\  /    A nd           | Web:         http://www.foam-extend.org         |
|    \\/     M anipulation  |                                                 |
\*---------------------------------------------------------------------------*/
FoamFile
{
    version     2.0;
    format      ascii;
    class       volScalarField;
    location    "0.6";
    object      C;
}
// * * * * * * * * * * * * * * * * * * * * * * * * * * * * * * * * * * * * * //

dimensions      [0 0 0 0 0 0 0];

internalField   nonuniform List<scalar> 
2268
(
1.00639
1.00624
1.00534
1.00524
1.005
1.00541
1.0066
1.0065
1.00398
0.999277
0.996095
0.995138
0.995578
0.996753
0.998111
0.999245
1.00004
1.00037
1.00049
1.00055
1.00058
1.00044
1.00022
1.00447
1.00444
1.00323
1.0034
1.00329
1.00425
1.00579
1.00491
1.0013
0.99617
0.993521
0.99316
0.994114
0.995727
0.9974
0.998751
0.99971
1.00013
1.00034
1.00045
1.0005
1.00031
1.00009
0.996005
0.996404
0.99472
0.99601
0.996624
0.999401
1.00199
0.999552
0.994102
0.988867
0.987842
0.988948
0.991013
0.993513
0.995813
0.997603
0.998907
0.999518
0.999937
1.00017
1.00027
1.00007
0.999916
0.971114
0.972747
0.970958
0.975459
0.978447
0.985839
0.991043
0.986831
0.980274
0.976967
0.979198
0.982671
0.986267
0.98997
0.993138
0.995574
0.997418
0.998368
0.999164
0.999622
0.999867
0.999864
1.00013
0.908597
0.913433
0.913179
0.925696
0.935019
0.953035
0.964649
0.960461
0.956817
0.959517
0.96726
0.973886
0.979261
0.984453
0.988757
0.992097
0.994774
0.996293
0.997754
0.998672
0.999295
1.00014
1.00169
0.77033
0.782429
0.787636
0.817243
0.840784
0.880959
0.907823
0.910608
0.919727
0.934336
0.950306
0.960827
0.968464
0.975704
0.981566
0.98617
0.990169
0.992666
0.995266
0.997119
0.998608
1.00158
1.00589
0.507596
0.532173
0.548511
0.606679
0.655803
0.735724
0.795618
0.822284
0.86105
0.895877
0.923992
0.939914
0.951293
0.961787
0.969932
0.976353
0.982425
0.986761
0.991105
0.994592
0.997688
1.0045
1.01322
0.114597
0.150365
0.178419
0.264541
0.3435
0.475439
0.593621
0.672744
0.764427
0.833023
0.880536
0.905456
0.923886
0.939813
0.951438
0.960603
0.969887
0.977395
0.984281
0.990214
0.995752
1.00772
1.02028
-0.498896
-0.446358
-0.427443
-0.412687
-0.405962
-0.390699
-0.368107
-0.33339
-0.273913
-0.208109
-0.145943
-0.0950408
-0.0407057
0.0060699
0.0278234
0.0597593
0.0596184
0.0439791
0.0436174
-0.505274
-0.471144
-0.480685
-0.437399
-0.415493
-0.400464
-0.377882
-0.421736
-0.414359
-0.377037
-0.309759
-0.270929
-0.23565
-0.123222
-0.0704953
0.0025944
0.0315922
0.0263721
0.0339281
-0.52172
-0.519127
-0.582884
-0.501085
-0.411387
-0.323811
-0.166697
-0.338237
-0.43463
-0.518615
-0.503894
-0.490782
-0.47824
-0.339411
-0.247367
-0.147958
-0.0842826
-0.0172702
0.019741
-0.543426
-0.587954
-0.684874
-0.599038
-0.431887
-0.202267
0.183927
0.0223457
-0.137175
-0.414662
-0.557317
-0.623796
-0.663511
-0.546333
-0.443693
-0.337721
-0.298625
-0.095101
0.00814346
-0.567702
-0.658222
-0.778863
-0.728897
-0.532659
-0.132334
0.449339
0.411416
0.310175
-0.0211693
-0.394459
-0.625387
-0.753275
-0.683703
-0.61008
-0.512852
-0.499774
-0.21013
-0.000435744
-0.590949
-0.710154
-0.841388
-0.821495
-0.599634
-0.0580713
0.587396
0.636699
0.593382
0.37875
-0.106776
-0.576006
-0.77757
-0.757008
-0.727675
-0.647179
-0.626716
-0.328578
-0.00628507
-0.610538
-0.743575
-0.870263
-0.863948
-0.596115
0.0732227
0.66376
0.723795
0.676761
0.52737
0.142478
-0.441835
-0.74983
-0.799938
-0.809741
-0.743141
-0.703329
-0.429248
-0.00991297
-0.630329
-0.759005
-0.874389
-0.865114
-0.527371
0.235504
0.704813
0.739525
0.662466
0.449588
0.15144
-0.36502
-0.709993
-0.817995
-0.850278
-0.808579
-0.765759
-0.521368
-0.0116446
-0.502623
-0.474977
-0.450033
-0.373457
-0.285958
-0.108976
0.115157
0.311515
0.52368
0.674702
0.770599
0.819583
0.857384
0.887255
0.907327
0.923087
0.940473
0.955244
0.967127
0.977318
0.98788
1.00847
1.01315
-0.873033
-0.864167
-0.851603
-0.816282
-0.759588
-0.654201
-0.480708
-0.304939
-0.0118538
0.269414
0.471069
0.583412
0.665777
0.737287
0.782454
0.815863
0.85372
0.883945
0.904253
0.922902
0.94574
0.979799
0.961913
-0.962347
-0.957959
-0.94743
-0.927544
-0.896256
-0.852797
-0.764754
-0.665133
-0.508891
-0.317065
-0.127685
0.0612453
0.163312
0.332645
0.447055
0.51726
0.594903
0.637137
0.695676
0.689829
0.750509
0.871196
0.974477
-0.984303
-0.980631
-0.971938
-0.960399
-0.944556
-0.915041
-0.868646
-0.813104
-0.764729
-0.689291
-0.603317
-0.495053
-0.451968
-0.338913
-0.227498
-0.164698
-0.0788526
-0.06307
0.00640415
-0.0491851
0.100241
0.427391
0.733559
-0.991899
-0.989648
-0.984803
-0.976084
-0.962524
-0.935497
-0.9105
-0.888259
-0.876409
-0.850285
-0.82555
-0.790232
-0.773707
-0.775286
-0.769143
-0.743731
-0.727009
-0.727513
-0.746555
-0.787989
-0.703999
-0.470939
-0.141189
-0.995539
-0.994077
-0.990773
-0.984871
-0.976195
-0.961527
-0.952124
-0.946699
-0.947029
-0.941731
-0.9338
-0.931385
-0.932436
-0.932644
-0.940919
-0.929067
-0.927427
-0.932048
-0.933834
-0.916946
-0.863783
-0.79633
-0.734622
-0.997526
-0.996829
-0.99435
-0.990036
-0.98381
-0.977655
-0.975082
-0.97602
-0.977991
-0.978198
-0.976153
-0.980126
-0.980875
-0.979207
-0.977609
-0.967434
-0.955169
-0.935297
-0.909156
-0.880061
-0.851117
-0.822764
-0.801545
-0.998736
-0.998552
-0.996787
-0.994427
-0.991533
-0.989387
-0.988609
-0.989589
-0.990783
-0.991652
-0.992669
-0.992628
-0.98644
-0.980173
-0.974092
-0.964986
-0.95088
-0.927129
-0.890231
-0.842841
-0.795505
-0.756378
-0.726072
-0.999471
-0.999483
-0.99845
-0.997297
-0.996227
-0.995336
-0.995194
-0.994994
-0.994003
-0.991174
-0.987212
-0.981229
-0.972664
-0.96224
-0.947793
-0.929491
-0.908657
-0.884247
-0.855655
-0.822576
-0.784749
-0.746587
-0.694097
-0.9999
-0.999933
-0.999414
-0.998838
-0.998415
-0.997805
-0.997775
-0.997234
-0.995558
-0.991824
-0.986679
-0.980319
-0.970279
-0.954061
-0.934095
-0.915876
-0.898906
-0.88071
-0.858697
-0.832724
-0.810987
-0.791621
-0.77175
-1.00007
-1.0001
-0.99997
-0.999704
-0.999535
-0.999065
-0.998649
-0.998281
-0.997744
-0.995898
-0.992437
-0.989079
-0.983461
-0.967969
-0.949476
-0.93927
-0.934206
-0.929516
-0.923539
-0.913941
-0.907583
-0.90252
-0.898421
-0.999289
-0.999715
-0.99996
-0.99991
-0.999725
-0.998922
-0.997662
-0.996099
-0.993993
-0.98943
-0.983381
-0.97782
-0.972923
-0.969821
-0.969006
-0.975116
-0.978864
-0.979527
-0.978876
-0.973601
-0.966121
-0.960646
-0.957063
-0.997341
-0.998426
-0.999742
-0.999807
-0.99899
-0.996286
-0.992958
-0.99022
-0.987804
-0.985683
-0.983801
-0.98302
-0.983455
-0.985087
-0.989624
-0.994105
-0.99652
-0.996948
-0.995493
-0.990878
-0.986098
-0.982968
-0.980845
-0.996538
-0.998271
-0.999263
-0.999032
-0.9965
-0.99278
-0.990641
-0.98978
-0.989476
-0.989604
-0.991819
-0.994342
-0.997419
-0.998394
-0.998951
-0.999563
-1
-0.99965
-0.996503
-0.991508
-0.990286
-0.990777
-0.990894
-0.995915
-0.997424
-0.998099
-0.997093
-0.993794
-0.991174
-0.990619
-0.991337
-0.994295
-0.996662
-0.998361
-0.999327
-0.9999
-1.00009
-1.00016
-1.0002
-1.00027
-1.00031
-0.999734
-0.997061
-0.995319
-0.996154
-0.996598
-0.995318
-0.99559
-0.995591
-0.994052
-0.992008
-0.9914
-0.991896
-0.994724
-0.997475
-0.998843
-0.999392
-0.99968
-0.999864
-0.999985
-1.00005
-1.00007
-1.00007
-1.0001
-1.00015
-0.999805
-0.999098
-0.998957
-0.99905
-0.995091
-0.994313
-0.993871
-0.992942
-0.99207
-0.991922
-0.99326
-0.995599
-0.99767
-0.998947
-0.999525
-0.999824
-0.999964
-1.00001
-1.00003
-1.00003
-1.00002
-1.00001
-1.00003
-1.00007
-1.00001
-0.999937
-0.999898
-0.995135
-0.99413
-0.993777
-0.993287
-0.992522
-0.992899
-0.994863
-0.996804
-0.998435
-0.99932
-0.99978
-0.99996
-1.00001
-1.00002
-1.00003
-1.00002
-1.00001
-1
-0.999999
-1.00001
-1.00002
-1.00003
-1.00003
-0.995366
-0.994337
-0.994358
-0.994658
-0.993649
-0.9945
-0.996776
-0.998406
-0.999326
-0.999739
-0.99991
-0.999983
-1.00001
-1.00001
-1.00001
-1.00001
-1.00001
-1
-0.999999
-0.999999
-1
-1
-1.00001
-0.996063
-0.995057
-0.99631
-0.997004
-0.995839
-0.996889
-0.998166
-0.999128
-0.999651
-0.99987
-0.999959
-0.999995
-1
-1.00001
-1.00001
-1
-1
-1
-1
-1
-0.999999
-1
-1
-0.997266
-0.996528
-0.99816
-0.998975
-0.998424
-0.99902
-0.999517
-0.99981
-0.99993
-0.99998
-0.999998
-1
-1
-1
-1
-1
-1
-1
-1
-1
-1
-1
-1
-0.99858
-0.99837
-0.999088
-0.999741
-0.999547
-0.999758
-0.999899
-0.999965
-0.999988
-0.999997
-1
-1
-1
-1
-1
-1
-1
-1
-1
-1
-1
-1
-1
-0.999431
-0.999508
-0.999667
-0.999904
-0.999898
-0.999945
-0.999985
-0.999996
-0.999999
-1
-1
-1
-1
-1
-1
-1
-1
-1
-1
-1
-1
-1
-1
-0.999837
-0.999905
-0.999927
-0.999972
-0.999982
-0.999992
-0.999998
-1
-1
-1
-1
-1
-1
-1
-1
-1
-1
-1
-1
-1
-1
-1
-1
-0.999971
-0.999987
-0.999991
-0.999996
-0.999997
-0.999999
-1
-1
-1
-1
-1
-1
-1
-1
-1
-1
-1
-1
-1
-1
-1
-1
-1
-0.999997
-0.999999
-0.999999
-1
-1
-1
-1
-1
-1
-1
-1
-1
-1
-1
-1
-1
-1
-1
-1
-1
-1
-1
-1
-1
-1
-1
-1
-1
-1
-1
-1
-1
-1
-1
-1
-1
-1
-1
-1
-1
-1
-1
-1
-1
-1
-1
-1
-1
-1
-1
-1
-1
-1
-1
-1
-1
-1
-1
-1
-1
-1
-1
-1
-1
-1
-1
-1
-1
-1
-1
-1
-1
-1
-1
-1
-1
-1
-1
-1
-1
-1
-1
-1
-1
-1
-1
-1
-1
-1
-1
-1
-1
-1
-1
-1
-1
-1
-1
-1
-1
-1
-1
-1
-1
-1
-1
-1
-1
-1
-1
-1
-1
-1
-1
-1
-1
-1
-1
-1
-1
-1
-1
-1
-1
-1
-1
-1
-1
-1
-1
-1
-1
-1
-1
-1
-1
-1
-1
-1
-1
-1
-1
-1
-1
-1
-1
-1
-1
-1
-1
-1
-1
-1
-1
-1
-1
-1
-1
-1
-1
-1
-1
-1
-1
-1
-1
-1
-1
-1
-1
-1
-1
-1
-1
-1
-1
-1
-1
-1
-1
-1
-1
-1
-1
-1
-1
-1
-1
-1
-1
-1
-1
-1
-1
-1
-1
-1
-1
-1
-1
-1
-1
-1
-1
-1
-1
-1
-1
-1
-1
-1
-1
-1
-1
-1
-1
-1
-1
-1
-1
-1
-1
-1
-1
-1
-1
-1
-1
-1
-1
-1
-1
-1
-1
-1
-1
-1
-1
-1
-1
-1
-1
-1
-1
-1
-1
-1
-1
-1
-1
-1
-1
-1
-1
-1
-1
-1
-1
-1
-1
-1
-1
-1
-1
-1
-1
-1
-1
-1
-1
-1
-1
-1
-1
-1
-1
-1
-1
-1
-1
-1
-1
-1
-1
-1
-1
-1
-1
-1
-1
-1
-1
-1
-1
-1
-1
-1
-1
-1
-1
-1
-1
-1
-1
-1
-1
-1
-1
-1
-1
-1
-1
-1
-1
-1
-1
-1
-1
-1
-1
-1
-1
-1
-1
-1
-1
-1
-1
-1
-1
-1
-1
-1
-1
-1
-1
-1
-1
-1
-1
-1
-1
-1
-1
-1
-1
-1
-1
-1
-1
-1
-1
-1
-1
-1
-1
-1
-1
-1
-1
-1
-1
-1
-1
-1
-1
-1
-1
-1
-1
-1
-1
-1
-1
-1
-1
-1
-1
-1
-1
-1
-1
-1
-1
-1
-1
-1
-1
-1
-1
-1
0.870016
0.587286
0.074956
-0.434824
0.697206
0.294137
-0.211662
-0.548592
0.898089
0.644177
0.149934
-0.346693
0.848108
0.831482
0.670803
0.355927
0.170236
0.348869
0.458539
0.488452
-0.670797
-0.602659
-0.49788
-0.36297
-0.786152
-0.776429
-0.764042
-0.749714
-0.710945
-0.706093
-0.702602
-0.698919
-0.652764
-0.633418
-0.616699
-0.60169
-0.758227
-0.753309
-0.74764
-0.745597
-0.894117
-0.893171
-0.892399
-0.893142
-0.954231
-0.953436
-0.953904
-0.954128
-0.979176
-0.978136
-0.977649
-0.977681
-0.990074
-0.989008
-0.988006
-0.987455
-0.996245
-0.995554
-0.99472
-0.994083
-0.999004
-0.998831
-0.998529
-0.99817
-0.999876
-0.999845
-0.999781
-0.999673
-1.00003
-1.00003
-1.00003
-1.00002
-1.00001
-1.00001
-1.00002
-1.00002
-1
-1
-1
-1
-1
-0.999999
-0.999999
-1
-1
-1
-1
-1
-1
-1
-1
-1
-1
-1
-1
-1
-1
-1
-1
-1
-1
-1
-1
-1
-1
-1
-1
-1
-1
-1
-1
-1
-1
-1
-1
-1
-1
-1
-1
-1
-1
-1
-1
-1
-1
-1
-1
-1
-1
-1
-1
-1
-1
-1
-1
-1
-1
-1
-1
-1
-1
-1
-1
-1
-1
-1
-1
-1
-1
-1
-1
-1
-1
-1
-1.00001
-1.00001
-1
-1.00001
-1.00001
-1.00001
-1
-1.00001
-1.00001
-1.00001
-1.00001
-1.00001
-1.00001
-1.00001
-0.673335
-0.782143
-0.866969
-0.8036
-0.309239
0.451867
0.740491
0.732103
0.556552
0.113119
0.00200715
-0.197723
-0.567956
-0.786063
-0.857746
-0.866944
-0.817287
-0.586134
-0.0107636
-0.753054
-0.805986
-0.761942
-0.398597
0.429525
0.761389
0.775274
0.678507
0.400805
-0.182224
-0.548809
-0.425256
-0.518301
-0.704637
-0.836439
-0.87946
-0.849219
-0.608869
0.00956966
-0.704406
-0.703829
-0.344869
0.321206
0.662177
0.743273
0.54675
0.530177
0.323196
-0.357306
-0.760299
-0.641216
-0.57698
-0.647578
-0.785737
-0.873114
-0.806423
-0.494304
0.0905851
-0.106222
-0.0819615
0.435984
0.655915
0.558999
0.376574
0.0915427
0.35138
0.207892
-0.463983
-0.808922
-0.800543
-0.661747
-0.68608
-0.778066
-0.853727
-0.63992
-0.189687
0.21151
0.459285
0.397239
0.460466
0.147032
-0.10273
-0.175906
-0.189768
0.178424
-0.143693
-0.826501
-0.926004
-0.857529
-0.715989
-0.728651
-0.792697
-0.830305
-0.57117
-0.107956
0.221861
-0.196427
-0.271645
-0.436036
-0.570342
-0.535146
-0.447537
-0.279175
-0.00569378
-0.426551
-0.884582
-0.926441
-0.838106
-0.779156
-0.77973
-0.822812
-0.854057
-0.62579
-0.220386
0.192827
-0.731106
-0.720594
-0.675973
-0.574477
-0.439682
-0.349058
-0.254927
-0.0898086
-0.519829
-0.884481
-0.905276
-0.860752
-0.84504
-0.836806
-0.870111
-0.828603
-0.445252
0.0486123
0.206909
-0.689237
-0.660085
-0.593955
-0.476375
-0.330543
-0.236713
-0.201219
-0.296179
-0.731547
-0.920787
-0.932865
-0.910416
-0.90586
-0.898146
-0.884897
-0.662135
-0.283448
0.149471
0.175322
-0.577837
-0.530594
-0.485443
-0.435338
-0.3252
-0.244228
-0.257904
-0.463904
-0.809033
-0.925151
-0.936606
-0.916305
-0.885626
-0.839668
-0.728984
-0.327159
0.0221201
0.21235
0.167643
-0.742043
-0.712361
-0.593758
-0.513711
-0.412788
-0.335818
-0.321285
-0.457483
-0.744649
-0.869854
-0.890667
-0.862539
-0.713343
-0.459946
-0.394038
-0.177459
0.115012
0.260358
0.168798
-0.889569
-0.869125
-0.798923
-0.721841
-0.628883
-0.46295
-0.348937
-0.307792
-0.423406
-0.616803
-0.676786
-0.648059
-0.375156
-0.215162
-0.202567
-0.143968
0.106114
0.26114
0.172123
-0.950836
-0.934828
-0.897708
-0.819962
-0.72559
-0.565586
-0.417387
-0.331041
-0.311315
-0.324914
-0.332006
-0.323635
-0.241011
-0.236217
-0.261857
-0.378462
-0.131101
0.131498
0.152884
-0.977815
-0.975116
-0.965877
-0.947683
-0.919256
-0.85588
-0.734242
-0.621298
-0.554395
-0.522338
-0.511643
-0.487789
-0.581745
-0.602367
-0.5984
-0.639337
-0.352646
-0.0699348
0.111246
-0.986701
-0.984376
-0.97779
-0.969725
-0.953852
-0.931315
-0.902943
-0.867352
-0.841775
-0.832383
-0.827596
-0.793436
-0.820035
-0.792958
-0.752635
-0.712443
-0.448505
-0.200912
0.0359356
-0.993346
-0.992621
-0.989909
-0.986963
-0.979683
-0.969487
-0.957521
-0.943119
-0.934825
-0.931388
-0.925071
-0.90659
-0.895648
-0.873574
-0.816584
-0.744736
-0.523735
-0.315726
-0.0466364
-0.997598
-0.997413
-0.996468
-0.995207
-0.992615
-0.989148
-0.982834
-0.976337
-0.971504
-0.966762
-0.958524
-0.948099
-0.940321
-0.928049
-0.877591
-0.813942
-0.627905
-0.402872
-0.13127
-0.999417
-0.99922
-0.998623
-0.997615
-0.996176
-0.995284
-0.991842
-0.988059
-0.984377
-0.979647
-0.974062
-0.971138
-0.970806
-0.959104
-0.926479
-0.867215
-0.743505
-0.534196
-0.246274
-0.999982
-0.999897
-0.999677
-0.999122
-0.997854
-0.998297
-0.997479
-0.995325
-0.992948
-0.9907
-0.987558
-0.987469
-0.988446
-0.983186
-0.965134
-0.922319
-0.825115
-0.627933
-0.381363
-1.00003
-1.00002
-0.999966
-0.999749
-0.998956
-0.999156
-0.998717
-0.997213
-0.996517
-0.996368
-0.994952
-0.994496
-0.995161
-0.992899
-0.982304
-0.951427
-0.870387
-0.7027
-0.49184
-1.00001
-1.00002
-1.00002
-0.999979
-0.999762
-0.999712
-0.999604
-0.999263
-0.999004
-0.999079
-0.998618
-0.997628
-0.997749
-0.996991
-0.990167
-0.967059
-0.900933
-0.754501
-0.569508
-1
-1
-1.00001
-1.00001
-0.999984
-0.999939
-0.999903
-0.999849
-0.999806
-0.999796
-0.999604
-0.999118
-0.998992
-0.998668
-0.993706
-0.975046
-0.92094
-0.794476
-0.625791
-1
-1
-1
-1.00001
-1.00001
-0.999998
-0.99999
-0.999977
-0.999977
-0.999973
-0.999917
-0.99974
-0.999664
-0.99945
-0.996141
-0.98114
-0.935524
-0.824176
-0.667794
-1
-1
-1
-1
-1
-1
-1
-1
-1
-1
-0.999982
-0.999939
-0.999902
-0.999724
-0.99768
-0.986865
-0.949161
-0.849896
-0.700831
-1
-1
-1
-1
-1
-1
-1
-1
-1
-1
-0.999999
-0.999991
-0.999969
-0.999847
-0.998668
-0.9917
-0.961896
-0.873767
-0.727837
-1
-1
-1
-1
-1
-1
-1
-1
-1
-1
-0.999999
-0.999996
-0.999977
-0.99989
-0.999132
-0.993919
-0.970405
-0.892661
-0.751035
-1
-1
-1
-1
-1
-1
-1
-1
-1
-1
-0.999999
-0.999997
-0.999987
-0.999914
-0.9992
-0.994794
-0.975405
-0.905413
-0.772515
-1
-1
-1
-1
-1
-1
-1
-1
-1
-1
-1
-0.999997
-0.99998
-0.999866
-0.999206
-0.995477
-0.979133
-0.914562
-0.793035
-1
-1
-1
-1
-1
-1
-1
-1
-1
-1
-1
-0.999997
-0.999975
-0.999804
-0.998942
-0.99565
-0.983091
-0.926541
-0.81595
-1
-1
-1
-1
-1
-1
-1
-1
-1
-1
-1
-0.999992
-0.999962
-0.999803
-0.999075
-0.996368
-0.986126
-0.938149
-0.835107
-1
-1
-1
-1
-1
-1
-1
-1
-1
-1
-0.999997
-0.999977
-0.999928
-0.999726
-0.998995
-0.997043
-0.988767
-0.944854
-0.847811
-1
-1
-1
-1
-1
-1
-1
-1
-1
-1
-1
-0.999992
-0.999964
-0.99985
-0.999444
-0.998097
-0.990067
-0.94781
-0.854395
-1
-1
-1
-1
-1
-1
-1
-1
-1
-1
-1
-0.999997
-0.999982
-0.999908
-0.999555
-0.998122
-0.990039
-0.950126
-0.858702
-1
-1
-1
-1
-1
-1
-1
-1
-1
-1
-1
-1
-0.999981
-0.999882
-0.999514
-0.998107
-0.989651
-0.951786
-0.863811
-1
-1
-1
-1
-1
-1.00001
-1.00001
-1.00001
-1.00001
-1.00001
-1.00001
-1
-0.999982
-0.999908
-0.999673
-0.998744
-0.991691
-0.956875
-0.871535
-1
-1
-1
-1.00001
-1.00001
-1.00001
-1
-1
-1.00001
-1.00001
-1.00001
-1
-0.999992
-0.999944
-0.999763
-0.998725
-0.992224
-0.961031
-0.884596
-1
-1.00001
-1.00001
-1.00001
-1
-1
-0.999996
-0.999996
-0.999996
-0.999999
-1
-1
-1
-0.999983
-0.999832
-0.998584
-0.990732
-0.961885
-0.908141
-1
-1.00001
-1.00001
-1
-0.999996
-0.99999
-0.999978
-0.99997
-0.999973
-0.999984
-0.999997
-1
-1
-0.999991
-0.999901
-0.999195
-0.995292
-0.979183
-0.929288
-1.00001
-1.00001
-1
-0.999992
-0.999975
-0.999959
-0.999933
-0.999914
-0.999928
-0.999949
-0.999979
-0.999995
-0.999999
-0.999993
-0.999964
-0.99977
-0.998303
-0.986984
-0.938523
-1.00001
-1.00001
-0.999995
-0.99997
-0.999939
-0.999899
-0.999855
-0.999846
-0.999867
-0.9999
-0.99994
-0.999967
-0.999989
-0.999988
-0.99996
-0.999817
-0.998948
-0.991519
-0.955697
-1.00001
-1
-0.999987
-0.999947
-0.999906
-0.999855
-0.999796
-0.999789
-0.999806
-0.999845
-0.999892
-0.999943
-0.999978
-0.999982
-0.999974
-0.999928
-0.999603
-0.994833
-0.966237
-1.00001
-1
-0.999975
-0.999933
-0.999883
-0.999832
-0.999774
-0.999759
-0.999782
-0.999817
-0.999858
-0.9999
-0.999947
-0.999968
-0.999964
-0.999951
-0.999915
-0.998112
-0.980329
-1.00001
-1
-0.999968
-0.999925
-0.999872
-0.999818
-0.999762
-0.999746
-0.999767
-0.999793
-0.999823
-0.999852
-0.999899
-0.99994
-0.999944
-0.999942
-1.00002
-0.99985
-0.993995
)
;

boundaryField
{
    leftWall
    {
        type            zeroGradient;
    }
    rightWall
    {
        type            zeroGradient;
    }
    lowerWall
    {
        type            zeroGradient;
    }
    atmosphere
    {
        type            zeroGradient;
    }
    defaultFaces
    {
        type            empty;
    }
}


// ************************************************************************* //
