/*--------------------------------*- C++ -*----------------------------------*\
| =========                 |                                                 |
| \\      /  F ield         | foam-extend: Open Source CFD                    |
|  \\    /   O peration     | Version:     4.1                                |
|   \\  /    A nd           | Web:         http://www.foam-extend.org         |
|    \\/     M anipulation  |                                                 |
\*---------------------------------------------------------------------------*/
FoamFile
{
    version     2.0;
    format      ascii;
    class       volScalarField;
    location    "0.6";
    object      C_0;
}
// * * * * * * * * * * * * * * * * * * * * * * * * * * * * * * * * * * * * * //

dimensions      [0 0 0 0 0 0 0];

internalField   nonuniform List<scalar> 
2268
(
1.00629
1.00615
1.00525
1.00517
1.00494
1.00535
1.00655
1.00649
1.00403
0.999348
0.996155
0.995192
0.99562
0.996783
0.998132
0.999259
1.00005
1.00037
1.00049
1.00055
1.00058
1.00044
1.00023
1.00441
1.00437
1.00317
1.00336
1.00326
1.0042
1.00576
1.00493
1.00137
0.996235
0.993569
0.993204
0.994148
0.995753
0.99742
0.998765
0.99972
1.00013
1.00034
1.00045
1.0005
1.00032
1.0001
0.996096
0.996468
0.994779
0.996069
0.996661
0.99941
1.00203
0.999643
0.994196
0.988901
0.987855
0.988966
0.991031
0.99353
0.995828
0.997616
0.998919
0.999525
0.999941
1.00017
1.00028
1.00008
0.999919
0.971576
0.973132
0.971284
0.975729
0.978615
0.98593
0.991184
0.986982
0.980328
0.976917
0.979143
0.982648
0.986258
0.989973
0.993147
0.995588
0.997434
0.998378
0.999172
0.999633
0.99988
0.999861
1.0001
0.909847
0.914497
0.914043
0.92635
0.935375
0.953204
0.964865
0.960549
0.956665
0.959281
0.967091
0.973801
0.979211
0.984434
0.988756
0.992112
0.994794
0.996306
0.997765
0.998684
0.999299
1.00008
1.00157
0.773002
0.784708
0.789425
0.818485
0.841314
0.88107
0.9079
0.910244
0.919063
0.93373
0.949941
0.960634
0.968339
0.975646
0.981549
0.986188
0.990194
0.992682
0.995279
0.997125
0.998579
1.00142
1.00565
0.512198
0.536097
0.551507
0.608608
0.656292
0.735311
0.794865
0.820609
0.859317
0.894568
0.923258
0.939503
0.951021
0.961656
0.969888
0.976373
0.982451
0.986777
0.99112
0.994586
0.99761
1.00424
1.01294
0.120364
0.15533
0.182166
0.266826
0.343494
0.47352
0.590543
0.668338
0.760615
0.830381
0.879076
0.904606
0.923335
0.939546
0.951346
0.960623
0.96991
0.977412
0.984311
0.990209
0.995633
1.00745
1.02031
-0.504004
-0.450374
-0.430841
-0.4154
-0.408365
-0.392649
-0.368586
-0.332481
-0.2745
-0.212321
-0.151765
-0.100988
-0.0455268
0.00235028
0.0250599
0.0584036
0.0591838
0.0441514
0.0440347
-0.510703
-0.476342
-0.486697
-0.442891
-0.420765
-0.406927
-0.386786
-0.426641
-0.417376
-0.379984
-0.315452
-0.277414
-0.241017
-0.127382
-0.0737729
0.000829698
0.0308603
0.0269627
0.0352607
-0.527652
-0.526163
-0.591353
-0.510253
-0.419869
-0.336767
-0.188762
-0.356698
-0.450167
-0.524344
-0.509068
-0.496882
-0.482716
-0.343137
-0.251244
-0.150805
-0.0857702
-0.017187
0.0214971
-0.549886
-0.596583
-0.693501
-0.609063
-0.440777
-0.215901
0.161653
-0.00596244
-0.170202
-0.433872
-0.567143
-0.63092
-0.66746
-0.549433
-0.447704
-0.341052
-0.300269
-0.0953827
0.00998253
-0.574584
-0.6673
-0.785588
-0.736584
-0.538663
-0.141385
0.436663
0.389289
0.278088
-0.0549029
-0.415856
-0.63767
-0.758309
-0.686678
-0.613659
-0.51565
-0.500069
-0.209395
0.00142498
-0.597892
-0.718216
-0.845692
-0.825411
-0.601798
-0.0617591
0.583438
0.624533
0.57657
0.349429
-0.140149
-0.593536
-0.785132
-0.760521
-0.730619
-0.649056
-0.625871
-0.326688
-0.00460146
-0.617307
-0.749944
-0.872763
-0.86521
-0.594654
0.0745868
0.664782
0.718796
0.668707
0.509709
0.109324
-0.468781
-0.759951
-0.804694
-0.812093
-0.744589
-0.702583
-0.427217
-0.00864107
-0.636849
-0.763482
-0.875584
-0.864855
-0.523507
0.23959
0.70802
0.738118
0.65682
0.439874
0.12443
-0.393919
-0.723956
-0.824911
-0.852627
-0.81001
-0.765483
-0.5192
-0.010751
-0.498304
-0.471084
-0.446932
-0.37148
-0.286771
-0.114809
0.105869
0.300442
0.514466
0.668449
0.767056
0.817478
0.856086
0.886622
0.907121
0.923108
0.940488
0.955291
0.967251
0.977411
0.987771
1.00848
1.01476
-0.87213
-0.863444
-0.851293
-0.816763
-0.76274
-0.662206
-0.492143
-0.319783
-0.0289107
0.255433
0.462099
0.577977
0.662514
0.735659
0.781981
0.815966
0.853941
0.884421
0.905109
0.923776
0.946145
0.980706
0.967252
-0.96228
-0.958053
-0.947975
-0.928881
-0.898918
-0.857112
-0.770798
-0.672803
-0.518889
-0.328834
-0.138856
0.0525973
0.15744
0.329483
0.446548
0.518388
0.597014
0.640559
0.699182
0.693692
0.752295
0.871886
0.975821
-0.984466
-0.981012
-0.972724
-0.961565
-0.946284
-0.917554
-0.87199
-0.81714
-0.769063
-0.69424
-0.60831
-0.499389
-0.454856
-0.339825
-0.22567
-0.160535
-0.0718472
-0.0534115
0.0150772
-0.0419599
0.102325
0.426354
0.731032
-0.992102
-0.989981
-0.985359
-0.976912
-0.963834
-0.937346
-0.912595
-0.890442
-0.878362
-0.852
-0.826813
-0.79079
-0.773274
-0.773772
-0.7666
-0.740758
-0.723303
-0.723445
-0.74421
-0.786837
-0.705394
-0.475109
-0.148233
-0.995707
-0.994332
-0.991185
-0.985483
-0.977082
-0.962596
-0.953129
-0.947562
-0.947682
-0.942125
-0.933906
-0.931215
-0.931966
-0.932013
-0.940708
-0.928918
-0.927078
-0.93233
-0.935365
-0.92017
-0.868544
-0.800721
-0.738323
-0.997652
-0.997002
-0.994652
-0.990492
-0.984411
-0.978174
-0.975493
-0.976264
-0.978162
-0.978213
-0.976107
-0.980239
-0.981082
-0.979592
-0.978716
-0.96975
-0.958669
-0.940224
-0.915074
-0.886768
-0.857723
-0.82795
-0.805276
-0.998822
-0.99865
-0.997
-0.994729
-0.991854
-0.989605
-0.988792
-0.989675
-0.990873
-0.991605
-0.992746
-0.993206
-0.987812
-0.981528
-0.975699
-0.967458
-0.954712
-0.932478
-0.897502
-0.851766
-0.803661
-0.763178
-0.731656
-0.999522
-0.999533
-0.998585
-0.997477
-0.996409
-0.995458
-0.995304
-0.995196
-0.994535
-0.991994
-0.988298
-0.982793
-0.97472
-0.964739
-0.950997
-0.933288
-0.913219
-0.889438
-0.861545
-0.829368
-0.791402
-0.752817
-0.700933
-0.999923
-0.999956
-0.999499
-0.99896
-0.998542
-0.997923
-0.997925
-0.997556
-0.996272
-0.992909
-0.988023
-0.982153
-0.973003
-0.957867
-0.938092
-0.919388
-0.901973
-0.883603
-0.861512
-0.835007
-0.811408
-0.790741
-0.770355
-1.00008
-1.00011
-1
-0.999763
-0.999602
-0.99915
-0.998717
-0.998372
-0.997971
-0.996432
-0.993224
-0.989958
-0.984674
-0.97061
-0.951656
-0.939875
-0.933723
-0.928434
-0.92218
-0.912273
-0.905137
-0.899867
-0.895823
-0.999312
-0.999716
-0.99996
-0.999912
-0.999748
-0.998949
-0.997591
-0.995936
-0.993901
-0.989623
-0.983799
-0.97832
-0.973297
-0.969935
-0.968587
-0.9738
-0.977869
-0.978647
-0.978144
-0.973097
-0.965332
-0.959561
-0.955874
-0.997367
-0.998372
-0.999693
-0.999792
-0.998967
-0.996147
-0.992716
-0.990026
-0.987797
-0.985906
-0.984033
-0.983211
-0.983569
-0.984845
-0.989056
-0.99362
-0.996253
-0.996814
-0.995597
-0.991093
-0.986074
-0.982672
-0.980426
-0.996485
-0.998131
-0.999138
-0.998947
-0.996432
-0.992679
-0.990559
-0.989798
-0.98972
-0.990003
-0.992147
-0.994448
-0.9974
-0.998396
-0.998904
-0.99951
-0.999986
-0.999739
-0.996898
-0.991565
-0.990012
-0.990436
-0.990659
-0.995767
-0.99712
-0.997797
-0.996922
-0.993705
-0.991165
-0.990614
-0.991384
-0.994538
-0.996878
-0.998466
-0.999345
-0.999898
-1.00009
-1.00016
-1.0002
-1.00027
-1.00032
-0.999798
-0.99712
-0.995147
-0.995949
-0.996472
-0.995262
-0.995214
-0.995179
-0.993904
-0.991995
-0.99142
-0.991881
-0.994629
-0.997419
-0.998811
-0.999373
-0.999663
-0.999854
-0.999981
-1.00005
-1.00007
-1.00007
-1.00009
-1.00015
-0.999822
-0.999075
-0.998898
-0.999006
-0.995141
-0.994197
-0.993769
-0.993015
-0.992133
-0.991982
-0.993218
-0.995445
-0.997568
-0.998919
-0.999516
-0.999819
-0.999962
-1.00001
-1.00003
-1.00003
-1.00002
-1.00001
-1.00003
-1.00007
-1.00001
-0.999935
-0.999893
-0.995241
-0.994147
-0.993829
-0.993494
-0.992696
-0.993077
-0.994969
-0.996816
-0.998423
-0.99932
-0.999784
-0.999963
-1.00001
-1.00002
-1.00003
-1.00002
-1.00001
-1
-0.999999
-1.00001
-1.00002
-1.00003
-1.00003
-0.995615
-0.994493
-0.994616
-0.995155
-0.993981
-0.99484
-0.996981
-0.998491
-0.999349
-0.999748
-0.999916
-0.999987
-1.00001
-1.00001
-1.00001
-1.00001
-1.00001
-1
-0.999999
-0.999999
-1
-1
-1.00001
-0.996521
-0.995466
-0.996793
-0.997527
-0.996365
-0.997304
-0.998403
-0.999239
-0.999692
-0.999884
-0.999965
-0.999997
-1.00001
-1.00001
-1.00001
-1
-1
-1
-1
-1
-0.999999
-1
-1
-0.997844
-0.997154
-0.998512
-0.999198
-0.99875
-0.999226
-0.999609
-0.999837
-0.99994
-0.999983
-0.999999
-1
-1
-1
-1
-1
-1
-1
-1
-1
-1
-1
-1
-0.998997
-0.998832
-0.999332
-0.99981
-0.99966
-0.999822
-0.999923
-0.999972
-0.99999
-0.999998
-1
-1
-1
-1
-1
-1
-1
-1
-1
-1
-1
-1
-1
-0.999641
-0.999688
-0.999782
-0.999938
-0.999926
-0.999961
-0.999989
-0.999997
-0.999999
-1
-1
-1
-1
-1
-1
-1
-1
-1
-1
-1
-1
-1
-1
-0.999911
-0.999948
-0.999957
-0.999984
-0.999988
-0.999994
-0.999999
-1
-1
-1
-1
-1
-1
-1
-1
-1
-1
-1
-1
-1
-1
-1
-1
-0.999987
-0.999994
-0.999996
-0.999998
-0.999998
-0.999999
-1
-1
-1
-1
-1
-1
-1
-1
-1
-1
-1
-1
-1
-1
-1
-1
-1
-0.999999
-1
-1
-1
-1
-1
-1
-1
-1
-1
-1
-1
-1
-1
-1
-1
-1
-1
-1
-1
-1
-1
-1
-1
-1
-1
-1
-1
-1
-1
-1
-1
-1
-1
-1
-1
-1
-1
-1
-1
-1
-1
-1
-1
-1
-1
-1
-1
-1
-1
-1
-1
-1
-1
-1
-1
-1
-1
-1
-1
-1
-1
-1
-1
-1
-1
-1
-1
-1
-1
-1
-1
-1
-1
-1
-1
-1
-1
-1
-1
-1
-1
-1
-1
-1
-1
-1
-1
-1
-1
-1
-1
-1
-1
-1
-1
-1
-1
-1
-1
-1
-1
-1
-1
-1
-1
-1
-1
-1
-1
-1
-1
-1
-1
-1
-1
-1
-1
-1
-1
-1
-1
-1
-1
-1
-1
-1
-1
-1
-1
-1
-1
-1
-1
-1
-1
-1
-1
-1
-1
-1
-1
-1
-1
-1
-1
-1
-1
-1
-1
-1
-1
-1
-1
-1
-1
-1
-1
-1
-1
-1
-1
-1
-1
-1
-1
-1
-1
-1
-1
-1
-1
-1
-1
-1
-1
-1
-1
-1
-1
-1
-1
-1
-1
-1
-1
-1
-1
-1
-1
-1
-1
-1
-1
-1
-1
-1
-1
-1
-1
-1
-1
-1
-1
-1
-1
-1
-1
-1
-1
-1
-1
-1
-1
-1
-1
-1
-1
-1
-1
-1
-1
-1
-1
-1
-1
-1
-1
-1
-1
-1
-1
-1
-1
-1
-1
-1
-1
-1
-1
-1
-1
-1
-1
-1
-1
-1
-1
-1
-1
-1
-1
-1
-1
-1
-1
-1
-1
-1
-1
-1
-1
-1
-1
-1
-1
-1
-1
-1
-1
-1
-1
-1
-1
-1
-1
-1
-1
-1
-1
-1
-1
-1
-1
-1
-1
-1
-1
-1
-1
-1
-1
-1
-1
-1
-1
-1
-1
-1
-1
-1
-1
-1
-1
-1
-1
-1
-1
-1
-1
-1
-1
-1
-1
-1
-1
-1
-1
-1
-1
-1
-1
-1
-1
-1
-1
-1
-1
-1
-1
-1
-1
-1
-1
-1
-1
-1
-1
-1
-1
-1
-1
-1
-1
-1
-1
-1
-1
-1
-1
-1
-1
-1
-1
-1
-1
-1
-1
-1
-1
-1
-1
-1
-1
-1
-1
-1
-1
-1
-1
-1
-1
-1
-1
-1
-1
-1
-1
-1
-1
-1
-1
-1
-1
-1
-1
-1
-1
-1
-1
-1
0.873918
0.590025
0.0725829
-0.441039
0.713826
0.317912
-0.193328
-0.542957
0.91062
0.67057
0.188063
-0.318872
0.848954
0.839763
0.694522
0.397411
0.15927
0.33956
0.455152
0.49229
-0.675319
-0.609434
-0.509641
-0.378457
-0.789906
-0.780445
-0.768753
-0.755279
-0.715867
-0.710737
-0.706985
-0.703119
-0.659153
-0.639423
-0.622143
-0.606338
-0.756486
-0.751275
-0.744538
-0.741735
-0.891892
-0.891112
-0.890166
-0.890779
-0.953124
-0.952335
-0.95288
-0.953282
-0.978796
-0.977755
-0.977271
-0.97738
-0.99
-0.988963
-0.987958
-0.98741
-0.996218
-0.995556
-0.994725
-0.994076
-0.99898
-0.99882
-0.998527
-0.998169
-0.999871
-0.999841
-0.999779
-0.999673
-1.00003
-1.00003
-1.00003
-1.00002
-1.00001
-1.00001
-1.00002
-1.00002
-1
-1
-1
-1
-1
-0.999999
-0.999999
-1
-1
-1
-1
-1
-1
-1
-1
-1
-1
-1
-1
-1
-1
-1
-1
-1
-1
-1
-1
-1
-1
-1
-1
-1
-1
-1
-1
-1
-1
-1
-1
-1
-1
-1
-1
-1
-1
-1
-1
-1
-1
-1
-1
-1
-1
-1
-1
-1
-1
-1
-1
-1
-1
-1
-1
-1
-1
-1
-1
-1
-1
-1
-1
-1
-1
-1
-1
-1
-1
-1
-1.00001
-1.00001
-1
-1.00001
-1.00001
-1.00001
-1.00001
-1.00001
-1.00001
-1.00001
-1.00001
-1.00001
-1.00001
-1.00001
-0.679685
-0.785213
-0.86616
-0.801243
-0.303306
0.458462
0.745903
0.733446
0.547299
0.103192
-0.0128414
-0.221789
-0.589201
-0.79346
-0.861066
-0.868467
-0.817182
-0.584258
-0.01056
-0.754445
-0.805461
-0.756657
-0.380399
0.445341
0.769338
0.783079
0.680343
0.386604
-0.204487
-0.546374
-0.436211
-0.525255
-0.710531
-0.838648
-0.879561
-0.848524
-0.608164
0.00850394
-0.698808
-0.695091
-0.31689
0.348204
0.677654
0.75365
0.566239
0.54053
0.31944
-0.367378
-0.763375
-0.641442
-0.585889
-0.653407
-0.787006
-0.873664
-0.807457
-0.496235
0.0903241
-0.0588505
-0.0478394
0.459798
0.662185
0.567544
0.391509
0.112248
0.365851
0.222227
-0.459278
-0.809794
-0.801812
-0.667601
-0.691539
-0.780852
-0.854804
-0.641033
-0.190015
0.212545
0.472943
0.406173
0.4652
0.154762
-0.0932922
-0.164469
-0.181426
0.193101
-0.116411
-0.823151
-0.926945
-0.860021
-0.721068
-0.734457
-0.796409
-0.831676
-0.572252
-0.107572
0.223243
-0.208645
-0.279655
-0.437059
-0.572498
-0.537296
-0.448517
-0.279489
0.00456837
-0.39729
-0.882793
-0.928162
-0.841798
-0.783997
-0.786509
-0.827156
-0.855005
-0.627774
-0.219251
0.194341
-0.737378
-0.726438
-0.682899
-0.585529
-0.451619
-0.359489
-0.259242
-0.0781562
-0.484182
-0.882763
-0.907684
-0.864371
-0.849749
-0.84316
-0.874338
-0.831081
-0.452077
0.046963
0.20893
-0.693818
-0.666134
-0.602207
-0.487609
-0.340973
-0.240405
-0.19941
-0.263852
-0.70173
-0.919213
-0.934681
-0.912927
-0.907695
-0.900979
-0.889259
-0.672812
-0.296343
0.146396
0.175652
-0.581403
-0.534831
-0.490889
-0.44188
-0.332398
-0.242005
-0.24491
-0.425588
-0.786901
-0.922998
-0.937371
-0.920078
-0.889407
-0.845816
-0.734715
-0.337241
0.0150942
0.209378
0.167168
-0.737599
-0.709764
-0.592968
-0.515313
-0.415206
-0.333355
-0.313294
-0.425914
-0.720911
-0.864692
-0.889958
-0.868831
-0.726988
-0.471951
-0.402084
-0.179515
0.11652
0.260598
0.167949
-0.887709
-0.86833
-0.799333
-0.723645
-0.634013
-0.469187
-0.351322
-0.305455
-0.406084
-0.605691
-0.674143
-0.655279
-0.38638
-0.215429
-0.202455
-0.137543
0.11693
0.264421
0.171197
-0.950354
-0.934874
-0.898609
-0.822455
-0.730994
-0.574053
-0.422942
-0.331063
-0.308195
-0.320333
-0.328424
-0.322258
-0.23515
-0.222745
-0.243718
-0.354972
-0.106044
0.144333
0.153146
-0.977573
-0.975043
-0.965967
-0.948285
-0.921178
-0.860739
-0.740752
-0.624291
-0.553136
-0.516275
-0.501352
-0.472372
-0.564746
-0.58662
-0.583712
-0.633127
-0.342996
-0.0608792
0.112867
-0.986651
-0.984399
-0.977917
-0.970086
-0.954529
-0.932219
-0.903798
-0.867681
-0.841131
-0.830065
-0.823545
-0.78802
-0.814182
-0.787735
-0.749117
-0.710996
-0.445418
-0.198198
0.0387685
-0.993301
-0.992535
-0.989847
-0.986985
-0.979824
-0.969653
-0.957557
-0.942824
-0.934213
-0.930435
-0.923693
-0.904743
-0.893559
-0.871756
-0.81513
-0.74264
-0.521275
-0.311843
-0.0423992
-0.997582
-0.997375
-0.996431
-0.995184
-0.992668
-0.989303
-0.98302
-0.976425
-0.971494
-0.9666
-0.958014
-0.94719
-0.939043
-0.926402
-0.875209
-0.80939
-0.621811
-0.395068
-0.124762
-0.999414
-0.99921
-0.998618
-0.997609
-0.996209
-0.995396
-0.992019
-0.988207
-0.984455
-0.97954
-0.973519
-0.970191
-0.969668
-0.957492
-0.923894
-0.862354
-0.736794
-0.525003
-0.235198
-0.999982
-0.999896
-0.999678
-0.999125
-0.997854
-0.998316
-0.997535
-0.995383
-0.992942
-0.990541
-0.987101
-0.98684
-0.987786
-0.982375
-0.963784
-0.920047
-0.821547
-0.621545
-0.368895
-1.00003
-1.00002
-0.999967
-0.999752
-0.998956
-0.999162
-0.998741
-0.997211
-0.996454
-0.996256
-0.994733
-0.99418
-0.994862
-0.992591
-0.981782
-0.950496
-0.868324
-0.697733
-0.481426
-1.00001
-1.00002
-1.00002
-0.99998
-0.999762
-0.999713
-0.99961
-0.999264
-0.998991
-0.999051
-0.99855
-0.997488
-0.99762
-0.996884
-0.990035
-0.966813
-0.899596
-0.750269
-0.561159
-1
-1
-1.00001
-1.00001
-0.999984
-0.999939
-0.999904
-0.99985
-0.999805
-0.999789
-0.999579
-0.999066
-0.998932
-0.998619
-0.993688
-0.974978
-0.919867
-0.791001
-0.619021
-1
-1
-1
-1.00001
-1.00001
-0.999998
-0.99999
-0.999977
-0.999977
-0.999972
-0.999911
-0.999723
-0.999642
-0.999423
-0.996078
-0.980853
-0.934346
-0.821255
-0.662136
-1
-1
-1
-1
-1
-1
-1
-1
-1
-1
-0.99998
-0.999934
-0.999894
-0.999705
-0.997567
-0.986296
-0.947618
-0.847091
-0.69594
-1
-1
-1
-1
-1
-1
-1
-1
-1
-1
-0.999998
-0.99999
-0.999966
-0.999833
-0.998575
-0.991212
-0.960355
-0.870983
-0.723457
-1
-1
-1
-1
-1
-1
-1
-1
-1
-1
-0.999999
-0.999995
-0.999975
-0.99988
-0.99908
-0.993634
-0.969287
-0.890232
-0.746925
-1
-1
-1
-1
-1
-1
-1
-1
-1
-1
-0.999999
-0.999997
-0.999986
-0.999908
-0.999163
-0.994589
-0.974614
-0.903561
-0.768482
-1
-1
-1
-1
-1
-1
-1
-1
-1
-1
-1
-0.999997
-0.999979
-0.99986
-0.999172
-0.995289
-0.978528
-0.913049
-0.788905
-1
-1
-1
-1
-1
-1
-1
-1
-1
-1
-1
-0.999997
-0.999973
-0.999794
-0.998893
-0.995455
-0.98258
-0.924824
-0.811914
-1
-1
-1
-1
-1
-1
-1
-1
-1
-1
-1
-0.999991
-0.99996
-0.999794
-0.999033
-0.996209
-0.985714
-0.936778
-0.831877
-1
-1
-1
-1
-1
-1
-1
-1
-1
-1
-0.999996
-0.999976
-0.999924
-0.999713
-0.998944
-0.996908
-0.988467
-0.943995
-0.845634
-1
-1
-1
-1
-1
-1
-1
-1
-1
-1
-1
-0.999991
-0.999962
-0.999842
-0.999414
-0.998014
-0.989856
-0.947225
-0.852816
-1
-1
-1
-1
-1
-1
-1
-1
-1
-1
-1
-0.999997
-0.999981
-0.999902
-0.99953
-0.998054
-0.989869
-0.949581
-0.857239
-1
-1
-1
-1
-1
-1
-1
-1
-1
-1
-1
-0.999999
-0.999979
-0.999876
-0.999492
-0.998063
-0.989515
-0.951128
-0.862077
-1
-1
-1
-1
-1
-1.00001
-1.00001
-1.00001
-1.00001
-1.00001
-1.00001
-1
-0.999981
-0.999903
-0.999659
-0.998705
-0.99152
-0.956075
-0.869161
-1
-1
-1
-1.00001
-1.00001
-1.00001
-1
-1
-1.00001
-1.00001
-1.00001
-1
-0.999991
-0.999941
-0.999751
-0.998665
-0.991969
-0.960075
-0.881298
-1
-1.00001
-1.00001
-1.00001
-1
-1
-0.999996
-0.999996
-0.999996
-1
-1
-1
-1
-0.999981
-0.999822
-0.998511
-0.990324
-0.960458
-0.90449
-1
-1.00001
-1.00001
-1
-0.999996
-0.99999
-0.999978
-0.999971
-0.999974
-0.999984
-0.999997
-1
-1
-0.99999
-0.999894
-0.999148
-0.995014
-0.978169
-0.926446
-1.00001
-1.00001
-1
-0.999992
-0.999975
-0.999959
-0.999933
-0.999915
-0.999929
-0.99995
-0.99998
-0.999996
-0.999999
-0.999993
-0.99996
-0.999752
-0.998204
-0.986424
-0.936185
-1.00001
-1.00001
-0.999995
-0.99997
-0.999939
-0.999899
-0.999855
-0.999847
-0.999869
-0.999902
-0.999941
-0.999969
-0.99999
-0.999988
-0.999957
-0.999804
-0.998894
-0.991195
-0.95416
-1.00001
-1
-0.999987
-0.999947
-0.999906
-0.999854
-0.999796
-0.999789
-0.999807
-0.999846
-0.999894
-0.999945
-0.999979
-0.999982
-0.999972
-0.999923
-0.999582
-0.994662
-0.96516
-1.00001
-1
-0.999975
-0.999933
-0.999883
-0.999832
-0.999773
-0.999759
-0.999783
-0.999818
-0.999859
-0.999902
-0.999948
-0.999968
-0.999963
-0.999948
-0.99991
-0.998053
-0.97967
-1.00001
-1
-0.999968
-0.999924
-0.999871
-0.999817
-0.999762
-0.999746
-0.999767
-0.999793
-0.999823
-0.999852
-0.999899
-0.99994
-0.999943
-0.99994
-1.00002
-0.999847
-0.993806
)
;

boundaryField
{
    leftWall
    {
        type            zeroGradient;
    }
    rightWall
    {
        type            zeroGradient;
    }
    lowerWall
    {
        type            zeroGradient;
    }
    atmosphere
    {
        type            zeroGradient;
    }
    defaultFaces
    {
        type            empty;
    }
}


// ************************************************************************* //
