/*--------------------------------*- C++ -*----------------------------------*\
| =========                 |                                                 |
| \\      /  F ield         | foam-extend: Open Source CFD                    |
|  \\    /   O peration     | Version:     4.1                                |
|   \\  /    A nd           | Web:         http://www.foam-extend.org         |
|    \\/     M anipulation  |                                                 |
\*---------------------------------------------------------------------------*/
FoamFile
{
    version     2.0;
    format      ascii;
    class       volScalarField;
    location    "0.6";
    object      p;
}
// * * * * * * * * * * * * * * * * * * * * * * * * * * * * * * * * * * * * * //

dimensions      [1 -1 -2 0 0 0 0];

internalField   nonuniform List<scalar> 
2268
(
471.466
477.89
486.438
504.48
526.059
557.101
595.148
633.08
671.561
708.13
731.072
757.183
780.098
795.463
814.484
832.614
844.662
862.008
878.169
891.006
902.803
910.6
912.853
411.94
418.346
426.872
444.907
466.424
497.695
536.583
574.701
614.228
651.623
671.94
696.213
719.604
737.298
755.484
773.413
784.588
803.361
818.024
833.87
844.465
852.988
854.677
351.735
358.138
366.57
384.516
405.896
437.528
476.478
514.756
554.847
591.91
611.593
637.32
660.514
680.369
699.407
716.094
729.244
748.65
760.189
776.704
786.059
797.683
796.877
291.408
297.763
306.025
323.86
345.113
377.272
416.339
457.823
501.685
529.52
554.56
580.157
603.093
622.552
641.541
659.876
671.681
687.369
703.01
718.471
729.673
745.178
739.83
231.66
237.834
245.67
263.455
283.677
316.671
356.995
397.194
441.759
469.126
496.863
522.919
546.368
567.309
586.65
601.895
617.981
632.827
642.03
665.835
669.513
689.195
684.15
174.392
180.285
187.718
204.688
224.418
256.713
294.319
345.792
380.306
410.848
439.255
465
488.816
509.913
526.111
549.803
560.508
572.328
585.675
611.097
614.585
638.087
629.722
122.601
127.714
134.348
149.865
167.805
199.134
238.817
286.792
320.567
353.734
382.439
410.247
434.811
458.354
473.326
494.308
507.903
519.178
527.272
553.189
554.105
581.277
574.321
81.1939
85.3212
90.7304
103.488
120.112
147.59
188.253
229.583
265.179
298.524
326.263
353.99
377.295
399.868
416.98
442.08
439.637
465.496
470.315
503.836
508.031
520.019
518.939
859.472
762.533
480.014
403.426
462.121
497.559
652.194
789.712
862.431
893.716
815.147
687.344
639.891
659.408
401.115
476.344
708.398
987.586
1238.85
823.545
645.006
432.637
371.408
413.618
418.908
634.156
772.303
861.748
891.863
800.142
691.479
542.192
587.737
405.608
477.913
523.895
904.735
1181.39
704.355
504.749
395.088
313.384
418.835
425.641
604.16
770.669
853.809
892.371
768.991
615.849
547.086
515.277
420.233
507.276
513.674
845.158
1051.34
625.507
418.725
360.122
335.66
355.499
394.093
579.976
722.388
837.31
868.666
740.57
574.153
523.374
518.877
394.283
489.937
449.037
721.205
903.712
558.957
363.733
335.182
317.768
323.911
360.447
500.875
667.429
786.408
805.141
678.113
554.658
518.806
499.117
417.488
426.864
426.291
615.892
788.784
497.386
346.675
315.905
309.764
319.647
338.802
549.959
610.345
671.335
708.598
620.175
533.054
510.228
483.038
405.553
401.301
402.61
547.148
693.766
435.757
332.884
303.513
296.804
311.698
344.56
478.787
608.697
578.622
608.569
485.596
495.173
497.276
452.905
394.795
384.414
386.184
465.319
621.275
372.591
326.655
306.043
298.049
310.248
427.414
442.535
484.995
489.321
465.83
362.83
447.529
462.781
426.17
383.516
373.345
370.878
428.514
564.298
45.1981
47.4117
51.5618
59.6426
69.7069
91.4078
118.363
153.893
186.789
219.172
242.128
276.928
295.526
318.376
334.495
353.502
360.555
381.861
396.109
389.392
412.025
442.314
428.466
24.419
25.0559
27.2849
29.7907
38.0644
45.1417
56.6296
85.3584
109.687
131.99
150.143
170.075
193.747
206.043
225.584
234.968
260.81
260.722
276.007
286.947
293.563
323.958
336.31
18.509
18.7146
21.4422
22.2211
19.5369
29.8808
32.7271
54.9864
50.5104
75.8445
57.0521
106.699
108.456
123.448
130.274
142.926
159.616
155.317
183.568
167.021
214.888
239.143
267.696
15.7581
15.813
16.4002
18.2133
13.0211
20.5864
21.2056
40.605
35.767
41.6676
51.498
31.8249
66.5307
64.2429
68.984
75.0975
74.7235
84.6212
96.4952
97.639
123.849
151.807
176.871
13.9572
14.0796
14.2788
14.4704
13.0327
19.4968
17.0024
21.226
22.493
23.145
26.7033
29.6545
31.97
38.0665
32.2695
40.1316
40.3251
52.4253
59.2262
54.8983
77.014
103.947
116.747
12.5291
12.6501
12.4762
11.7816
11.9393
13.5121
16.0178
15.7534
16.2973
13.053
20.9279
21.8402
20.1191
27.403
27.1474
32.2652
36.0317
49.21
38.3528
46.6374
75.1337
81.0597
80.8161
11.5518
11.696
11.8882
11.2357
11.2199
11.742
11.683
12.2425
12.4846
13.8539
15.9976
17.9895
20.9702
24.0393
26.0139
29.1316
29.6944
29.6221
26.6777
41.7055
67.3027
77.2294
60.7412
10.5515
10.5331
10.5916
10.5699
10.2539
10.8434
10.1637
10.4147
9.82376
12.606
14.5469
16.381
18.4294
21.6849
25.0404
27.1479
12.1489
17.9537
23.0605
71.889
65.7268
47.1256
35.9919
10.0263
10.0206
9.85788
9.98111
10.0548
10.9563
10.9024
10.1276
8.47268
10.3886
13.7804
14.818
14.0511
16.9777
17.8275
19.8405
19.3648
15.1172
12.8903
41.2248
45.0119
-17.1637
18.6567
9.53893
9.48162
9.41871
9.45632
9.54528
9.75634
9.83438
9.69271
9.16934
9.03789
6.90283
5.18264
5.07413
5.80043
3.86247
3.60569
7.90496
10.3857
15.6252
20.9032
20.8791
3.95448
6.51455
9.16529
8.96354
8.86151
8.90947
8.87479
9.06565
9.18747
8.89182
7.93461
6.42537
4.09515
2.58238
3.5787
5.24169
5.09725
1.07545
-1.626
-1.88585
-2.54393
-2.62092
-0.170413
1.20565
1.32242
8.48948
8.03893
8.21902
8.54753
8.62259
8.21566
7.29712
6.69247
6.9164
5.26329
2.95288
0.344551
-0.226902
-1.44641
-3.21587
-3.87812
-3.09277
-2.64473
-1.99235
-0.656274
0.405736
2.45141
3.86458
7.07682
6.58497
7.33206
7.87201
7.93723
7.31996
5.81245
5.19991
4.48924
2.39207
0.0260466
-2.47114
-2.89891
-3.3735
-3.84532
-3.46146
-3.04754
-2.90504
-2.39798
-1.61962
-1.24491
-0.474847
0.151105
5.69067
4.96633
6.35947
6.95951
6.43501
5.41287
1.93036
1.51939
2.05629
-1.473
-2.62673
-3.34227
-3.42904
-3.21016
-3.35451
-3.31977
-3.01491
-2.80015
-2.56522
-2.58816
-2.80323
-1.87912
-1.8458
7.89459
5.68152
6.1161
6.36602
4.29986
2.94557
-1.98198
-0.935432
-2.35355
-2.951
-3.30537
-3.42806
-3.42924
-3.32258
-3.31289
-3.24709
-3.12262
-3.08673
-3.07989
-3.17536
-3.05815
-2.71097
-2.03619
7.82191
6.01146
6.74511
5.8442
4.91117
2.01337
-2.12315
-4.89427
-3.76527
-3.69969
-3.78741
-3.64635
-3.57294
-3.44974
-3.40393
-3.34836
-3.23588
-3.16164
-3.12401
-3.07179
-3.06928
-2.79903
-2.49726
8.4264
4.9692
4.98411
3.5148
3.45997
-0.872188
-3.61565
-5.9846
-5.12461
-4.54029
-4.09704
-4.02017
-3.75164
-3.59833
-3.51667
-3.44612
-3.36513
-3.30115
-3.20385
-3.20958
-3.09894
-3.01405
-2.79984
7.49449
3.17914
1.61186
-1.51614
-2.85003
-4.13706
-6.24985
-6.27932
-5.76132
-5.177
-4.57761
-4.0405
-4.07877
-3.7267
-3.55624
-3.51985
-3.40094
-3.34981
-3.33323
-3.23985
-3.21873
-3.09231
-2.97079
4.13474
1.39884
-0.458482
-3.5533
-5.66857
-7.23637
-7.37507
-7.07795
-6.0209
-5.11356
-4.75713
-4.33398
-3.95187
-3.9819
-3.74312
-3.52924
-3.54815
-3.5044
-3.36335
-3.36847
-3.28188
-3.21087
-3.09079
0.43914
-3.78956
-5.36814
-2.94703
-5.01713
-6.36881
-6.94877
-6.49109
-5.58989
-5.07439
-4.73733
-4.22274
-4.09253
-4.01853
-3.85551
-3.69717
-3.651
-3.60026
-3.52476
-3.50203
-3.36964
-3.35287
-3.30148
-1.45085
-3.64226
-7.00527
-3.63428
-4.97772
-6.38623
-6.17423
-5.86602
-5.07068
-4.66202
-4.72111
-4.14133
-4.01605
-4.03062
-3.89498
-3.71895
-3.71333
-3.6191
-3.58764
-3.64439
-3.55608
-3.46772
-3.45068
-2.96916
-2.74665
-4.76494
-4.80818
-5.01513
-5.67958
-6.01602
-4.92682
-4.58435
-4.52282
-4.32064
-3.97563
-4.07145
-4.07813
-4.03244
-3.868
-3.82929
-3.76139
-3.67048
-3.65262
-3.56965
-3.56709
-3.60498
-2.3617
-2.39106
-4.19976
-4.31017
-4.58315
-4.21237
-4.33341
-4.46991
-4.21864
-4.45149
-4.37122
-3.88546
-4.02438
-3.91531
-4.02435
-3.89083
-3.85987
-3.83437
-3.8572
-3.69956
-3.70636
-3.69667
-3.6281
-1.30217
-1.89064
-3.124
-3.59405
-3.66491
-3.59214
-3.81632
-4.48164
-4.71056
-4.15482
-4.16343
-4.00858
-3.9624
-3.9738
-3.99077
-3.91096
-3.97142
-3.90403
-3.84814
-3.85604
-3.87312
-3.80488
-3.75146
-1.13608
-2.13741
-2.86157
-3.35407
-3.47903
-3.53099
-3.60626
-4.01311
-4.01213
-3.95468
-4.12291
-3.9569
-3.96791
-3.96156
-3.95919
-3.90146
-4.11066
-4.10299
-3.85806
-3.8803
-3.92355
-3.97248
-3.87018
-2.4018
-2.62586
-2.89025
-3.02038
-3.54517
-3.58117
-3.64654
-3.781
-3.85094
-3.95267
-4.00583
-3.925
-3.98437
-3.99937
-4.01955
-3.96221
-4.14044
-4.049
-3.96059
-4.01775
-4.09361
-4.03523
-4.03001
-2.61762
-2.63992
-2.9532
-3.26028
-3.51539
-3.52945
-3.65305
-3.76678
-3.89059
-3.94445
-3.96261
-3.95611
-4.02224
-4.0507
-3.98905
-4.17047
-4.1863
-4.2268
-4.01447
-4.05511
-4.19137
-4.16199
-4.13646
-2.79182
-2.82881
-3.09801
-3.28567
-3.58021
-3.50564
-3.66159
-3.7795
-3.8483
-3.91801
-3.99306
-3.99822
-4.0409
-4.13536
-4.16052
-4.16281
-4.22794
-4.15583
-4.13432
-4.14444
-4.13745
-4.35241
-4.30943
-3.17633
-3.24574
-3.35465
-3.42267
-3.49474
-3.61696
-3.73373
-3.83434
-3.91765
-3.98952
-4.06334
-4.08084
-4.13763
-4.16827
-4.20552
-4.22463
-4.28288
-4.24411
-4.22049
-4.2522
-4.18592
-4.37827
-4.43757
-3.40662
-3.43635
-3.51312
-3.58694
-3.68184
-3.76598
-3.84389
-3.92428
-3.99303
-4.0588
-4.11568
-4.14343
-4.19092
-4.21341
-4.2898
-4.25949
-4.43576
-4.28768
-4.33251
-4.36992
-4.35293
-4.36723
-4.49782
-3.65125
-3.67125
-3.72318
-3.77674
-3.84027
-3.90495
-3.97102
-4.03786
-4.09658
-4.15324
-4.20411
-4.22613
-4.27798
-4.26706
-4.44076
-4.44018
-4.49694
-4.33822
-4.38853
-4.49776
-4.45848
-4.51557
-4.66356
-3.86915
-3.88361
-3.91923
-3.95962
-4.00826
-4.06235
-4.113
-4.16963
-4.21591
-4.26781
-4.30518
-4.34344
-4.38735
-4.3893
-4.50072
-4.57107
-4.4741
-4.47015
-4.58285
-4.64241
-4.52744
-4.50322
-4.67672
-4.07823
-4.08854
-4.11387
-4.14382
-4.17966
-4.22105
-4.26036
-4.30651
-4.34338
-4.38964
-4.42217
-4.47424
-4.50034
-4.55778
-4.60412
-4.59836
-4.55655
-4.69336
-4.61993
-4.5953
-4.783
-4.65345
-4.75641
-4.27446
-4.28227
-4.30056
-4.32398
-4.35062
-4.38501
-4.41545
-4.45548
-4.4861
-4.52834
-4.55225
-4.61601
-4.56997
-4.66352
-4.7299
-4.66171
-4.74715
-4.70171
-4.73855
-4.77828
-4.79444
-4.80151
-4.79866
-4.46438
-4.47008
-4.48299
-4.50007
-4.51945
-4.54465
-4.56711
-4.59716
-4.61921
-4.65748
-4.66488
-4.66451
-4.68925
-4.79731
-4.81084
-4.77465
-4.80847
-4.82456
-4.84865
-4.78671
-4.92685
-4.91618
-4.90255
-4.64601
-4.65045
-4.65983
-4.67357
-4.68786
-4.70916
-4.72654
-4.75364
-4.77377
-4.82067
-4.7936
-4.8086
-4.85774
-4.96111
-4.88654
-4.8717
-4.90293
-4.97918
-4.95284
-5.01751
-4.94535
-5.09451
-5.06452
-4.82517
-4.82833
-4.83428
-4.84403
-4.85318
-4.86742
-4.87903
-4.89326
-4.90911
-4.90615
-4.93941
-4.91981
-5.03306
-5.01113
-5.00179
-5.00741
-5.05794
-5.06909
-5.11604
-5.07233
-5.08291
-5.12538
-5.08148
-4.99669
-4.99892
-5.00297
-5.01101
-5.01784
-5.0287
-5.03874
-5.04843
-5.06536
-5.06566
-5.10297
-5.13196
-5.1629
-5.10126
-5.16413
-5.12835
-5.17876
-5.15605
-5.18058
-5.17384
-5.21936
-5.27065
-5.17415
-5.17563
-5.17637
-5.17632
-5.18421
-5.18314
-5.19297
-5.1957
-5.1983
-5.21829
-5.23154
-5.24153
-5.26815
-5.26458
-5.24112
-5.28064
-5.27754
-5.27285
-5.27978
-5.30176
-5.28229
-5.3452
-5.37692
-5.3238
-5.32744
-5.32941
-5.33278
-5.33394
-5.34042
-5.34088
-5.35064
-5.35422
-5.36137
-5.35686
-5.36598
-5.36089
-5.37947
-5.3653
-5.40271
-5.40697
-5.40202
-5.40058
-5.43386
-5.42112
-5.41668
-5.49841
-5.4716
-5.54178
-5.52291
-5.51272
-5.54534
-5.50549
-5.54224
-5.50724
-5.54071
-5.5095
-5.52359
-5.51217
-5.52675
-5.50985
-5.53897
-5.51638
-5.53006
-5.52585
-5.52828
-5.55102
-5.53696
-5.55415
-5.5792
-5.57301
-5.605
-5.63593
-5.64741
-5.60361
-5.6564
-5.60932
-5.65921
-5.60935
-5.65695
-5.61918
-5.63024
-5.63229
-5.66574
-5.64711
-5.66352
-5.66834
-5.664
-5.66774
-5.66577
-5.67678
-5.68324
-5.73229
-5.71347
413.293
376.846
348.651
296.862
345.781
346.216
349.488
376.016
335.373
330.181
348.744
368.713
210.533
239.837
256.822
289.048
139.481
156.221
179.235
198.266
88.1318
90.7815
77.793
99.5709
65.9358
72.465
78.9201
92.5234
68.5543
82.7327
90.9492
106.739
114.514
116.897
98.8558
83.5506
28.2977
40.5248
47.7573
52.669
6.36192
10.5844
12.1516
15.2303
4.23202
3.24195
4.48016
5.4686
0.432881
1.1065
2.3256
2.10097
-1.2199
-0.770732
-0.394381
-0.207326
-1.87794
-1.82662
-1.76966
-1.77854
-2.36324
-2.33163
-2.33348
-2.35071
-2.68465
-2.62882
-2.60564
-2.59819
-2.9579
-2.93711
-2.92013
-2.91475
-3.0845
-3.07155
-3.07431
-3.0769
-3.25787
-3.24803
-3.23422
-3.20166
-3.42643
-3.41096
-3.41518
-3.42033
-3.60012
-3.56378
-3.51586
-3.6026
-3.71477
-3.70586
-3.71682
-3.7307
-3.86134
-3.84532
-3.84689
-3.84317
-3.94495
-3.9255
-3.92129
-3.93728
-4.05896
-4.07035
-4.0449
-4.04114
-4.13301
-4.16102
-4.18977
-4.19348
-4.25542
-4.2634
-4.25827
-4.25531
-4.40829
-4.41341
-4.39412
-4.36527
-4.48941
-4.48002
-4.53838
-4.62964
-4.61128
-4.59037
-4.57573
-4.561
-4.7185
-4.72652
-4.80451
-4.70743
-4.72462
-4.73433
-4.71581
-4.78939
-4.81984
-4.81212
-4.92443
-4.9164
-4.97113
-4.98883
-5.06379
-5.12598
-5.0507
-5.11325
-5.09549
-5.14182
-5.18585
-5.19521
-5.12201
-5.11648
-5.29576
-5.30465
-5.32297
-5.28433
-5.39714
-5.40035
-5.45377
-5.40999
-5.47002
-5.53372
-5.52086
-5.56958
-5.58071
-5.62138
-5.64624
-5.66869
-5.75262
-5.77365
-5.7536
-5.7685
288.399
289.483
318.236
303.234
281.791
373.872
379.463
437.49
386.5
371.585
233.383
419.726
392.65
406.617
370.985
365.134
366.054
386.044
488.439
366.479
292.029
336.028
306.906
328.095
381.482
352.987
385.197
328.418
258.239
172.179
234.798
241.399
342.431
334.534
365.748
356.886
374.412
523.087
374.087
297.742
284.908
281.129
303.013
272.203
287.094
286.779
159.271
156.893
126.285
129.24
223.719
308.653
342.114
350.162
365.521
288.163
199.153
316.047
263.613
315.804
248.144
269.395
305.985
232.583
135.334
234.509
133.176
129.173
126.334
160.181
239.569
316.296
346.854
368.052
321.871
253.764
259.465
251.317
271.773
254.152
252.233
240.052
230.915
210.87
132.533
116.333
122.195
80.6605
137.32
177.303
304.118
349.304
340.82
439.793
527.594
161.701
204.798
239.028
239.401
211.807
195.194
175.632
179.049
119.498
128.691
130.762
103.874
168.88
239.566
296.708
311.514
320.671
290.122
445.875
130.793
155.554
176.891
201.396
197.575
169.894
150.393
143.679
120.381
144.2
149.436
128.43
160.512
225.129
273.63
302.855
283.562
267.368
195.897
143.83
99.9596
149.765
183.414
98.4065
95.0102
115.26
117.326
105.736
150.121
163.427
152.058
203.866
238.675
271.62
290.324
238.283
374.376
299.339
100.242
84.575
65.1363
-8.59336
104.412
116.424
106.858
108.251
108.56
144.871
160.799
166.053
198.098
230.289
274.371
269.582
322.225
184.036
250.687
40.4093
-5.07635
6.27347
40.5044
45.1264
109.1
96.6463
86.2469
89.4913
135.706
159.732
157.115
186.187
221.07
242.134
248.998
287.003
193.836
203.346
20.4504
-1.43733
-10.3336
33.5508
28.0418
44.0806
47.1597
18.0245
126.564
126.807
142.354
141.212
156.326
162.332
198.849
208.18
238.712
226.91
186.594
9.45935
6.16209
-0.841737
6.01026
11.1207
17.2956
17.0331
24.8294
56.7099
103.835
120.255
83.24
97.2545
170.699
142.907
150.264
107.018
123.535
139.859
2.41684
0.296389
-0.972286
4.77424
9.34653
15.7775
14.1373
9.55657
39.6305
58.685
-9.21799
64.6412
55.9261
95.2524
56.0426
108.872
95.2351
95.4587
74.1614
-0.325726
-1.91442
-2.57966
0.676394
1.75176
1.96279
-10.9987
-0.120863
24.518
20.2035
3.21105
24.033
24.2305
40.4892
42.4299
81.142
-10.986
62.3002
105.65
-2.03634
-2.01304
-2.04072
-1.77589
0.300762
0.978928
-2.67486
0.325063
5.94611
4.06722
5.11127
3.39687
11.3987
28.2663
24.9778
23.2068
0.710519
48.4581
68.3281
-2.46285
-2.55454
-2.27851
-2.29682
-1.69548
-1.3932
-1.41222
-1.28749
1.16959
-1.03929
0.944057
3.54839
9.01474
4.43825
7.25511
-1.16003
3.40142
2.99695
51.786
-2.61841
-2.64029
-2.48863
-2.64264
-2.17527
-2.61441
-2.45372
-2.22462
-2.43634
-2.7647
-2.07819
-0.439583
0.0627
-0.125034
5.26771
6.96264
36.1988
13.9475
45.3273
-2.91639
-2.91453
-2.88547
-2.80638
-2.84046
-3.21734
-3.16424
-3.12851
-3.64316
-3.58835
-3.78741
-2.88914
-1.90119
-2.41449
-1.24236
0.805114
8.92795
23.9372
20.3202
-3.07583
-3.00526
-3.05955
-2.99868
-3.16167
-3.28666
-3.29558
-3.55275
-3.8389
-3.87599
-3.47225
-3.1766
-2.36878
-2.62078
-2.1001
-1.32401
4.52067
15.8448
20.3332
-3.34871
-3.30509
-3.16188
-3.22238
-3.33417
-3.51211
-3.63371
-3.83367
-4.00641
-3.90248
-3.74959
-3.8172
-3.65429
-3.20722
-2.88314
-2.61713
-0.180824
5.35163
16.826
-3.41685
-3.41051
-3.2979
-3.37881
-3.39079
-3.64559
-3.81667
-3.6618
-3.81175
-3.90543
-3.74204
-3.86109
-3.84727
-3.59831
-3.57237
-2.9423
-0.6835
0.615702
5.81105
-3.56932
-3.58246
-3.44272
-3.49982
-3.6457
-3.76671
-3.76663
-3.91209
-3.7701
-3.81149
-3.9087
-3.77355
-3.8664
-3.74365
-3.82811
-3.25354
-1.70268
-0.09421
-1.0337
-3.75199
-3.57225
-3.61207
-3.65918
-3.64026
-3.86556
-3.90258
-3.92423
-3.94671
-3.8057
-3.98904
-3.94806
-3.90866
-3.77103
-3.87578
-3.97668
-3.28122
-0.174967
0.716602
-3.81532
-3.8144
-3.71961
-3.79261
-3.84281
-3.93491
-3.9178
-3.91837
-3.9053
-3.97967
-4.03987
-3.86943
-3.94517
-3.90556
-4.21526
-4.21555
-3.6784
-0.652411
2.16869
-4.00943
-3.86293
-3.83311
-3.8697
-3.85602
-4.06616
-4.11934
-3.94917
-4.01071
-4.04664
-4.05641
-3.97881
-3.87862
-4.07178
-3.95114
-3.83947
-3.68624
-1.99581
-1.80828
-4.04149
-3.9914
-4.04813
-3.97145
-4.04315
-4.13563
-4.12134
-4.10308
-4.13024
-4.06122
-4.03351
-4.0691
-3.99548
-4.07693
-3.90733
-3.89681
-3.18855
-2.08189
-1.28795
-4.17261
-4.13571
-4.07538
-4.08319
-4.14541
-4.13798
-4.14965
-4.2025
-4.1969
-4.17132
-4.12492
-4.13692
-4.0649
-4.16439
-4.26446
-4.22286
-4.08372
-2.55921
1.80183
-4.2956
-4.18289
-4.16184
-4.17766
-4.31786
-4.39382
-4.22703
-4.33134
-4.33882
-4.22962
-4.24329
-4.22644
-4.218
-4.17208
-4.34658
-4.24277
-4.24155
-4.2381
-4.37705
-4.32529
-4.37665
-4.29059
-4.30153
-4.39063
-4.40299
-4.34591
-4.45517
-4.38916
-4.35605
-4.34132
-4.33877
-4.26095
-4.42977
-4.38789
-4.28103
-4.82887
-5.87452
-7.57105
-4.42659
-4.4934
-4.4023
-4.40037
-4.4517
-4.4306
-4.44442
-4.58436
-4.57643
-4.38484
-4.41309
-4.45566
-4.4975
-4.456
-4.34174
-4.57338
-4.3018
-4.15395
-3.86558
-4.46452
-4.50649
-4.61643
-4.51806
-4.51988
-4.53772
-4.75095
-4.72287
-4.53596
-4.57062
-4.56057
-4.50367
-4.51252
-4.48658
-4.68265
-4.82446
-4.74248
-4.79945
-2.91978
-4.68597
-4.64578
-4.75004
-4.65094
-4.66348
-4.67245
-4.7204
-4.70644
-4.71525
-4.59451
-4.79631
-4.60557
-4.62177
-4.70916
-4.58748
-4.7384
-4.43623
-4.83007
-3.81072
-4.78702
-4.70116
-4.73941
-4.79995
-4.89514
-4.83961
-4.85419
-4.72277
-4.8998
-4.92139
-4.66782
-4.73325
-4.69173
-4.8936
-4.77948
-4.87579
-4.66025
-5.00811
-3.38712
-4.90628
-4.82622
-4.88919
-4.85819
-4.98682
-5.0217
-5.15715
-4.81364
-4.91128
-4.89092
-4.85254
-4.81662
-4.95687
-5.0596
-5.09089
-5.05559
-4.76577
-4.92498
-1.15788
-5.00138
-4.94566
-4.93876
-5.12676
-5.07635
-5.23239
-5.34118
-4.92116
-5.04881
-5.10535
-5.05035
-4.95606
-4.99569
-5.13265
-5.23647
-5.20286
-5.62925
-8.15445
-0.729071
-5.04865
-5.19572
-5.06382
-5.14482
-5.16037
-5.3254
-5.41201
-5.13902
-5.19939
-5.38575
-5.33696
-5.13963
-5.1815
-5.31407
-5.51359
-5.1383
-5.45926
-6.03267
-1.93825
-5.29415
-5.36304
-5.23558
-5.21263
-5.41368
-5.51782
-5.50903
-5.33373
-5.29931
-5.71527
-5.60138
-5.20447
-5.21132
-5.55148
-5.63252
-5.33135
-5.47017
-7.82826
-10.7705
-5.35282
-5.29892
-5.39172
-5.4024
-5.55171
-5.59338
-5.60886
-5.54995
-5.60406
-5.95494
-5.75325
-5.55864
-5.34146
-5.50855
-5.6743
-5.38372
-5.53312
-5.99776
-6.66335
-5.38612
-5.45045
-5.53828
-5.47506
-5.60823
-5.70121
-5.8257
-5.82856
-6.03115
-6.01435
-5.96643
-5.63694
-5.70809
-5.63743
-5.65793
-5.43956
-5.61912
-5.52116
-5.77992
-5.56915
-5.66557
-5.85201
-5.99177
-5.87489
-5.94067
-5.98691
-5.99405
-5.96385
-6.09461
-5.92147
-5.76492
-5.67621
-5.78471
-5.80152
-5.66301
-5.55995
-5.80288
-5.63982
-5.70738
-5.75009
-5.99012
-6.08592
-6.20675
-6.14682
-6.16884
-6.19326
-6.26905
-6.17469
-6.09728
-6.04768
-5.83967
-5.73145
-5.70123
-5.67648
-5.59315
-6.24621
-7.55303
-5.82102
-6.07408
-5.92684
-6.03435
-6.15271
-6.28416
-6.34096
-6.41722
-6.28229
-6.25691
-6.17062
-6.06794
-5.94663
-5.91835
-5.85754
-5.82861
-5.87922
-7.56886
-10.7486
)
;

boundaryField
{
    leftWall
    {
        type            calculated;
        value           nonuniform List<scalar> 
50
(
471.466
411.94
351.735
291.408
231.66
174.392
122.601
81.1939
45.1981
24.419
18.509
15.7581
13.9572
12.5291
11.5518
10.5515
10.0263
9.53893
9.16529
8.48948
7.07682
5.69067
7.89459
7.82191
8.4264
7.49449
4.13474
0.43914
-1.45085
-2.96916
-2.3617
-1.30217
-1.13608
-2.4018
-2.61762
-2.79182
-3.17633
-3.40662
-3.65125
-3.86915
-4.07823
-4.27446
-4.46438
-4.64601
-4.82517
-4.99669
-5.17563
-5.32744
-5.54178
-5.605
)
;
    }
    rightWall
    {
        type            calculated;
        value           nonuniform List<scalar> 
50
(
1238.85
1181.39
1051.34
903.712
788.784
693.766
621.275
564.298
488.439
523.087
199.153
253.764
527.594
445.875
195.897
299.339
250.687
203.346
186.594
139.859
74.1614
105.65
68.3281
51.786
45.3273
20.3202
20.3332
16.826
5.81105
-1.0337
0.716602
2.16869
-1.80828
-1.28795
1.80183
-4.37705
-7.57105
-3.86558
-2.91978
-3.81072
-3.38712
-1.15788
-0.729071
-1.93825
-10.7705
-6.66335
-5.77992
-5.63982
-7.55303
-10.7486
)
;
    }
    lowerWall
    {
        type            calculated;
        value           nonuniform List<scalar> 
62
(
500.896
507.32
515.867
533.91
555.488
586.53
624.577
662.51
700.99
737.548
760.444
786.541
809.463
824.844
843.886
862.032
874.091
891.437
907.598
920.435
932.232
940.029
942.283
912.853
854.677
796.877
739.83
684.15
629.722
574.321
518.939
471.826
426.539
382.325
314.596
859.472
823.545
704.355
625.507
558.957
497.386
435.757
372.591
866.868
770.701
488.46
412.089
470.883
506.545
661.512
799.541
873.134
905.386
827.731
700.676
654.022
674.227
416.253
491.952
724.004
1002.96
1254.22
)
;
    }
    atmosphere
    {
        type            calculated;
        value           nonuniform List<scalar> 
46
(
-5.72904
-5.72904
-5.72904
-5.72904
-5.72904
-5.72904
-5.72904
-5.72904
-5.72904
-5.72904
-5.72904
-5.72904
-5.72904
-5.72904
-5.72904
-5.72904
-5.72904
-5.72908
-5.73226
-5.73527
-5.74531
-5.77965
-5.76727
-5.78877
-5.81683
-5.82432
-5.82916
-5.88127
-6.03466
-6.08927
-6.14311
-6.27843
-6.36377
-6.42779
-6.47546
-6.39913
-6.33206
-6.23724
-6.16706
-6.01806
-5.90028
-5.88936
-5.89531
-5.72904
-6.16325
-22.9128
)
;
    }
    defaultFaces
    {
        type            empty;
    }
}


// ************************************************************************* //
