/*--------------------------------*- C++ -*----------------------------------*\
| =========                 |                                                 |
| \\      /  F ield         | foam-extend: Open Source CFD                    |
|  \\    /   O peration     | Version:     4.1                                |
|   \\  /    A nd           | Web:         http://www.foam-extend.org         |
|    \\/     M anipulation  |                                                 |
\*---------------------------------------------------------------------------*/
FoamFile
{
    version     2.0;
    format      ascii;
    class       volScalarField;
    location    "0.6";
    object      pd;
}
// * * * * * * * * * * * * * * * * * * * * * * * * * * * * * * * * * * * * * //

dimensions      [1 -1 -2 0 0 0 0];

internalField   nonuniform List<scalar> 
2268
(
500.896
507.32
515.867
533.91
555.488
586.53
624.577
662.51
700.99
737.548
760.444
786.541
809.463
824.844
843.886
862.032
874.091
891.437
907.598
920.435
932.232
940.029
942.283
500.228
506.634
515.16
533.195
554.712
585.983
624.871
662.989
702.516
739.742
759.942
784.199
807.632
825.398
843.657
861.646
872.863
891.649
906.312
922.158
932.753
941.276
942.965
498.588
505.021
513.329
531.37
552.795
584.63
623.625
661.869
701.561
738.238
757.847
783.654
807
827.039
846.246
863.065
876.31
895.762
907.331
923.851
933.205
944.83
944.017
494.441
500.964
509.042
527.34
548.9
581.821
621.423
662.474
705.661
733.155
758.425
784.38
807.685
827.525
846.84
865.426
877.421
893.206
908.929
924.437
935.665
951.17
945.835
484.431
491.246
499.048
518.489
539.944
575.321
617.182
656.827
700.91
728.635
757.396
784.329
808.488
830.117
850.027
865.713
882.154
897.201
906.597
930.524
934.284
954.059
949.014
460.977
468.827
477.102
498.86
522.396
561.187
603.137
655.06
691.049
723.953
754.942
782.389
807.44
829.707
846.854
871.29
882.641
894.865
908.632
934.354
938.083
961.81
953.445
411.085
420.894
430.65
457.283
484.611
531.212
582.342
635.412
676.595
716.417
750.496
781.347
808.085
833.634
850.162
872.371
887.126
899.23
908.154
934.737
936.245
963.859
956.903
327.403
339.418
351.013
382.76
416.795
473.364
540.087
598.863
654.675
703.146
741.362
774.583
801.953
828.037
847.712
874.833
874.438
901.952
908.29
943.119
948.535
961.459
960.379
866.868
770.701
488.46
412.089
470.883
506.545
661.512
799.541
873.134
905.386
827.731
700.676
654.022
674.227
416.253
491.952
724.004
1002.96
1254.22
845.45
668.417
455.627
396.307
439.483
445.436
661.68
797.892
887.663
919.424
830.67
723.719
575.988
626.491
446.687
522.216
569.476
950.087
1227.08
739.655
540.24
425.893
350.201
462.245
475.488
665.555
819.456
895.511
927.9
805.602
653.424
585.582
563.978
475.698
570.048
581.126
917.535
1126.44
672.695
461.33
392.754
377.125
414.164
476.386
702.008
827.793
926.301
929.104
786.328
613.07
558.205
565.765
451.733
558.292
521.414
814.525
1007.66
616.415
409.215
364.704
353.899
386.005
475.504
692.887
854.424
960.009
934.905
758.49
604.484
551.713
541.228
469.339
491.578
492.736
720.656
921.291
563.853
393.867
341.876
338.952
384.71
491.435
806.964
875.323
929.308
931.865
764.933
601.937
546.519
522.654
449.912
458.676
463.293
656.04
854.773
510.566
382.269
328.688
323.186
389.263
550.035
797.114
938.496
899.433
900.831
704.305
602.221
545.466
491.52
431.536
433.882
443.261
574.772
810.862
454.544
380.236
334.182
328.233
414.904
700.283
818.887
869.001
856.335
785.904
617.163
587.983
527.169
466.743
416.972
415.994
422.97
534.494
782.671
178.266
187.846
198.643
227.129
260.509
329.37
416.049
503.902
593.333
665.958
714.467
762.32
790.99
821.801
843.267
866.475
878.161
903.402
920.817
916.815
942.263
975.781
961.933
66.85
70.4038
76.7663
90.8928
117.819
159.569
228.136
314.693
435.447
550.288
634.785
691.678
742.449
778.271
812.673
833.048
871.345
881.201
903.168
920.243
934.373
975.974
982.441
34.0352
35.9589
42.8092
51.3739
60.9401
88.2999
125.618
186.883
243.581
344.022
399.379
522.999
564.718
646.011
697.632
737.773
784.862
797.099
848.271
829.434
901.06
972.568
1041.56
23.7947
25.5169
30.0515
37.104
39.1056
60.0729
81.7585
126.378
143.506
183.66
232.529
262.016
316.285
365.332
420.663
455.293
493.899
510.963
554.383
530.285
624.346
800.853
964.938
19.1764
20.4615
23.164
27.8595
33.4273
53.8536
64.2728
79.9862
87.3753
101.523
117.859
139.056
149.909
155.189
152.566
173.556
182.388
194.228
191.191
165.458
230.964
378.296
561.447
16.2718
17.2395
18.9794
21.7028
26.8852
36.953
44.904
47.7816
48.1342
47.9586
60.4264
62.737
60.4077
67.571
62.5228
74.5047
79.2214
89.7233
77.8318
95.8965
155.182
200.173
235.667
14.424
15.0151
16.7981
18.9141
22.8933
27.3649
28.957
28.9145
27.892
29.1281
32.584
32.0268
34.527
38.6659
41.6665
51.3127
59.7459
72.4248
86.2549
119.952
164.122
192.242
189.369
12.8516
12.9629
14.2639
15.9044
17.6266
19.7271
19.5954
19.1561
17.7241
19.8943
21.1195
22.9825
29.3883
37.0568
44.6948
53.2152
48.1497
70.6804
101.771
183.972
211.144
220.096
230.304
11.9668
11.9523
12.5814
13.5887
14.4827
16.0676
16.1224
15.5012
14.6061
18.691
25.1203
30.7453
36.5459
47.465
59.392
75.4378
90.9366
105.405
125.101
178.798
211.589
178.674
254.741
11.2824
11.1977
11.5648
12.0801
12.5201
13.2366
13.34
13.6463
14.5131
17.4787
19.6097
23.1642
31.3811
45.5571
60.1766
75.0279
93.4
110.97
134.465
161.282
179.284
178.419
197.458
10.9507
10.749
10.6738
10.959
11.075
11.6846
12.1781
12.2099
11.7323
11.8692
12.6258
14.1069
20.1138
35.5925
51.9409
57.0205
58.8355
62.7582
67.4302
75.9134
84.0339
89.9248
93.697
11.0783
10.2217
10.1683
10.5439
10.7958
11.1554
11.4394
12.3256
14.5601
17.2616
20.7242
23.4227
27.5242
29.2659
28.2738
21.7806
18.9891
18.8047
20.078
26.4483
34.6487
41.9193
46.752
11.8167
10.221
9.63047
10.1044
10.9996
13.1322
15.0087
17.181
18.9269
18.9867
18.534
16.8314
15.9613
13.8275
8.74152
4.56921
2.52719
2.23417
4.22133
9.69224
14.9274
18.8809
21.6656
11.5888
8.99377
9.31557
10.1653
12.3741
15.367
14.1941
14.7116
15.5775
11.9091
8.3654
4.9264
1.51759
0.684103
-0.0616896
-0.686948
-0.85359
-0.260899
3.37017
8.73951
9.84285
10.2371
10.144
14.8461
10.909
10.5735
11.9718
13.6734
15.3107
11.0164
11.2439
6.44765
3.14687
0.85296
-0.372803
-1.02857
-1.03639
-1.0267
-0.960903
-0.83643
-0.800543
-0.489643
2.46723
4.57369
3.96772
4.13538
15.8726
13.7352
14.467
15.4197
16.9494
14.7834
10.0497
3.87192
1.68701
0.105741
-0.643963
-0.849218
-0.997657
-1.02026
-0.992543
-0.936977
-0.824496
-0.75026
-0.712629
-0.425781
0.428289
0.868602
1.05787
17.1827
14.7118
15.286
14.9936
16.0437
11.8992
7.46106
2.12845
0.364158
-0.669844
-0.958943
-1.26051
-1.16949
-1.06175
-0.980087
-0.909545
-0.828555
-0.764566
-0.667273
-0.673001
-0.562357
-0.397597
-0.133639
16.6245
13.6458
12.5474
10.0711
9.75454
7.96637
3.24234
0.631446
-1.01914
-1.61161
-1.62322
-1.32525
-1.417
-1.06493
-0.894466
-0.858073
-0.739169
-0.688041
-0.670337
-0.578079
-0.556958
-0.430538
-0.309014
13.3726
12.0694
10.1829
6.66954
5.95918
3.20734
-0.0998994
-2.07239
-2.29573
-1.96326
-1.84434
-1.52372
-1.1649
-1.19493
-0.956147
-0.742274
-0.761179
-0.717436
-0.575398
-0.580063
-0.494913
-0.423904
-0.303817
9.07747
6.31219
2.91201
4.32321
3.9475
1.06799
-1.36938
-2.31097
-2.17029
-1.97266
-1.76584
-1.30397
-1.18036
-1.10636
-0.94335
-0.785004
-0.738832
-0.6881
-0.61252
-0.589401
-0.456737
-0.440126
-0.389205
5.73498
4.66257
-1.17708
0.958819
0.450171
-1.86208
-2.40398
-2.5401
-1.92758
-1.59382
-1.68063
-1.10398
-0.97869
-0.993265
-0.857624
-0.681589
-0.675968
-0.581713
-0.550239
-0.607017
-0.518651
-0.43017
-0.41289
2.43625
2.99005
-0.161665
-1.23646
-1.13683
-2.134
-2.69398
-1.70919
-1.40238
-1.35589
-1.15809
-0.813073
-0.908894
-0.91558
-0.869885
-0.705449
-0.666733
-0.598793
-0.507903
-0.490072
-0.407098
-0.404533
-0.442404
1.86074
1.70509
-0.364534
-0.864047
-1.12772
-0.834506
-1.0206
-1.17579
-0.929271
-1.16374
-1.08347
-0.597715
-0.736634
-0.627559
-0.736607
-0.603086
-0.572087
-0.546603
-0.569449
-0.411812
-0.418618
-0.408925
-0.340351
2.38789
1.68375
0.413569
-0.133611
-0.221151
-0.16501
-0.400148
-1.06818
-1.29752
-0.741883
-0.75049
-0.595593
-0.549382
-0.560814
-0.577791
-0.497982
-0.558449
-0.49108
-0.435199
-0.443095
-0.460183
-0.391939
-0.338516
2.45389
1.42458
0.691602
0.191488
0.0643741
0.00941369
-0.0675255
-0.474846
-0.473954
-0.416527
-0.584726
-0.418703
-0.429718
-0.423396
-0.421035
-0.363305
-0.572512
-0.564852
-0.319925
-0.342161
-0.385414
-0.434341
-0.332042
1.2668
1.03962
0.774364
0.643498
0.118976
0.0825211
0.016892
-0.117641
-0.187589
-0.289319
-0.342465
-0.261641
-0.321023
-0.336023
-0.356213
-0.29887
-0.477109
-0.385666
-0.297264
-0.354419
-0.430275
-0.3719
-0.366681
1.17109
1.14865
0.835384
0.528266
0.273224
0.259117
0.135485
0.0217497
-0.102062
-0.155916
-0.174072
-0.167582
-0.233712
-0.262175
-0.200527
-0.381943
-0.397773
-0.438277
-0.225949
-0.266583
-0.402843
-0.373462
-0.347937
1.1219
1.08491
0.815711
0.628053
0.333522
0.408083
0.252127
0.134216
0.0654159
-0.00428537
-0.0793414
-0.0845038
-0.127182
-0.221639
-0.2468
-0.249088
-0.314217
-0.242115
-0.220604
-0.230722
-0.223734
-0.438687
-0.39571
0.86258
0.793177
0.684263
0.616248
0.544179
0.421955
0.305186
0.204571
0.121263
0.0493924
-0.0244252
-0.0419286
-0.0987206
-0.12936
-0.166605
-0.185714
-0.243969
-0.205198
-0.181576
-0.213291
-0.14701
-0.33936
-0.398654
0.75749
0.727763
0.650985
0.577169
0.482264
0.398125
0.320223
0.239827
0.171083
0.105307
0.0484288
0.0206769
-0.0268096
-0.0493026
-0.125691
-0.0953862
-0.271653
-0.123575
-0.168399
-0.205809
-0.188818
-0.203122
-0.333715
0.638049
0.618048
0.566125
0.512567
0.449036
0.384356
0.318279
0.251448
0.192719
0.13606
0.0851912
0.0631718
0.0113244
0.0222468
-0.151458
-0.15088
-0.207635
-0.0489142
-0.0992264
-0.208458
-0.169177
-0.226265
-0.374252
0.545343
0.530891
0.495268
0.454879
0.406238
0.35215
0.3015
0.244872
0.198588
0.146684
0.109322
0.0710572
0.0271438
0.0251929
-0.0862203
-0.156577
-0.0595992
-0.0556501
-0.168352
-0.227912
-0.112941
-0.0887245
-0.262211
0.461458
0.451156
0.425825
0.395871
0.360036
0.318638
0.279333
0.233178
0.196312
0.150049
0.117519
0.0654532
0.0393509
-0.0180875
-0.0644245
-0.0586685
-0.0168555
-0.15367
-0.0802394
-0.0556097
-0.243305
-0.113748
-0.216707
0.390429
0.382612
0.364331
0.340911
0.314271
0.279877
0.249432
0.209409
0.178782
0.136544
0.112639
0.0488772
0.0949168
0.00136623
-0.0650172
0.00317638
-0.0822627
-0.0368217
-0.0736595
-0.113395
-0.129551
-0.136603
-0.133756
0.325698
0.319997
0.307091
0.290013
0.270635
0.24543
0.222975
0.19292
0.170867
0.132598
0.125197
0.125574
0.100829
-0.00722843
-0.0207591
0.0154354
-0.018385
-0.0344808
-0.0585663
0.00337822
-0.136749
-0.126068
-0.112463
0.269268
0.264821
0.255442
0.241709
0.22742
0.206113
0.188731
0.161633
0.141505
0.0946072
0.121676
0.106679
0.057532
-0.0458369
0.028732
0.0435735
0.0123407
-0.0639081
-0.0375664
-0.10222
-0.030039
-0.179217
-0.149247
0.215295
0.212137
0.20619
0.196441
0.187291
0.173052
0.161445
0.147214
0.131364
0.134315
0.101059
0.120661
0.00741015
0.0293373
0.0386786
0.0330639
-0.0174712
-0.0286237
-0.0755685
-0.0318407
-0.0424004
-0.0849134
-0.0410061
0.168978
0.166748
0.162691
0.154651
0.147821
0.136962
0.126921
0.117237
0.100308
0.100002
0.0626917
0.0337086
0.00276721
0.0644025
0.00153456
0.0373179
-0.0130952
0.00961086
-0.0149022
-0.00812611
-0.053658
-0.104986
-0.00848759
0.115231
0.114486
0.114538
0.106654
0.10772
0.0978846
0.0951641
0.0925589
0.0725727
0.0593163
0.0493259
0.0227068
0.0262778
0.049736
0.0102182
0.0133203
0.0180123
0.0110867
-0.0108689
0.00866106
-0.0543286
-0.086059
-0.0329398
0.0886121
0.0866412
0.0832785
0.0821137
0.075632
0.0751755
0.0654102
0.0618362
0.0546789
0.0591942
0.0500762
0.0551634
0.0365805
0.0507564
0.0133438
0.00908071
0.0140299
0.015489
-0.0177395
-0.00492815
-0.000626439
-0.0823593
-0.055542
-0.0005359
0.0183376
0.0285321
-0.00409597
0.0357596
-0.00099442
0.0340066
0.000534718
0.0317496
0.0176578
0.0290788
0.0144945
0.0313998
0.00227616
0.0248692
0.0111851
0.015405
0.0129983
-0.00966106
0.00447286
-0.0128995
-0.0379485
-0.0317571
0.0614425
0.0305127
0.0190332
0.0628317
0.0100412
0.0571185
0.0072305
0.0570916
0.00948805
0.0472639
0.0362054
0.0341539
0.000702103
0.0193337
0.00292022
-0.00190086
0.00245105
-0.00126587
0.000800827
-0.0101326
-0.0167946
-0.0658446
-0.0470319
912.123
800.339
635.625
447.996
904.822
772.648
609.511
525.188
1079.33
974.719
799.768
625.29
1050.61
1072.37
1016.39
905.644
745.066
854.088
933.758
968.242
279.946
322.057
369.75
469.66
204.441
217.209
231.613
254.41
273.52
291.114
301.789
320.173
382.29
399.506
394.285
390.487
230.455
246.76
258.695
265.3
102.575
107.642
109.897
112.313
49.8226
49.5906
50.382
51.157
23.6447
25.3752
27.0895
26.8328
11.6557
13.2552
14.7132
15.4954
4.69663
5.53684
6.54612
7.26504
1.24805
1.48827
1.84962
2.2645
0.00887132
0.104659
0.208268
0.352272
-0.296129
-0.27534
-0.258352
-0.252974
-0.297527
-0.284585
-0.287337
-0.289936
-0.345704
-0.335867
-0.322058
-0.289499
-0.388353
-0.372695
-0.37698
-0.382758
-0.437476
-0.401021
-0.35296
-0.439641
-0.42702
-0.418107
-0.429026
-0.442861
-0.448395
-0.432384
-0.433953
-0.430218
-0.406815
-0.387365
-0.383157
-0.399144
-0.395628
-0.407014
-0.381565
-0.377802
-0.344488
-0.372493
-0.401246
-0.404953
-0.341703
-0.349682
-0.344548
-0.341585
-0.369377
-0.374492
-0.355201
-0.326349
-0.325299
-0.315903
-0.37426
-0.465512
-0.321965
-0.301049
-0.286403
-0.271667
-0.303988
-0.311994
-0.38998
-0.292891
-0.184904
-0.194605
-0.176081
-0.249696
-0.154928
-0.147214
-0.259546
-0.251517
-0.181053
-0.198746
-0.27371
-0.335902
-0.135428
-0.197977
-0.18021
-0.226542
-0.145384
-0.154739
-0.0815383
-0.0760132
-0.130098
-0.138981
-0.157304
-0.118663
-0.106285
-0.109489
-0.162908
-0.11913
-0.0539622
-0.117666
-0.104807
-0.153528
-0.0394585
-0.0801292
-0.104997
-0.127439
-0.0861774
-0.107208
-0.0871527
-0.102055
375.978
348.068
354.218
356.102
466.389
761.279
843.78
899.571
801.803
668.728
500.918
634.04
508.309
464.157
409.424
401.122
415.275
496.859
752.571
448.383
356.518
415.008
505.428
799.07
961.64
937.713
938.087
789.943
527.947
321.28
424.549
400.537
440.265
389.005
406.064
407.151
503.754
855.896
490.607
414.487
542.199
799.213
954.599
955.541
893.486
886.683
678.134
409.315
220.92
270.501
390.131
447.422
426.789
400.627
442.097
486.945
626.94
722.795
681.376
968.751
1000.96
978.2
931.957
729.13
749.866
783.887
377.474
216.845
217.811
314.681
383.02
417.979
414.181
532.463
690.719
804.784
1014.37
974.172
1027.29
847.749
716.802
666.818
650.52
820.685
575.941
206.998
161.456
155.296
285.076
318.517
412.246
438.004
563.391
901.662
1159.85
628.241
627.777
566.802
489.393
482.181
516.307
594.25
756.052
452.765
196.694
174.523
198.793
297.939
368.292
400.483
397.195
538.551
742.788
1137.85
304.62
336.127
386.096
475.728
558.401
588.872
629.773
729.01
429.779
219.61
211.503
219.067
261.231
331.131
358.261
414.121
640.815
941.521
971.625
364.082
340.741
437.116
553.566
571.254
633.934
679.179
614.373
296.193
207.313
212.114
216.554
271.57
311.811
354.086
529.662
744.296
1185.25
1128.42
425.468
446.024
461.205
425.893
623.346
697.444
677.391
520.835
256.517
203.796
210.941
231.761
287.329
354.758
483.705
787.014
1107.47
1115.13
1147.51
255.988
235.117
344.822
445.434
533.749
661.552
661.15
537.805
302.908
245.294
252.06
272.769
425.565
670.585
746.306
932.774
1213.32
1240.68
1174.27
120.72
117.064
170.775
283.402
360.794
524.814
629.572
637.13
642.564
470.333
432.386
456.863
715.356
864.046
911.795
973.386
1226.95
1353.4
1233.7
58.29
70.2696
98.6912
179.74
274.914
433.789
574.96
665.16
715.865
750.013
759.664
730.638
823.505
901.525
849.262
745.338
938.161
1205.29
1242.02
27.0126
27.6358
35.7622
60.0099
93.4895
164.366
286.417
396.688
494.794
546.447
489.42
587.535
483.279
501.635
466.458
477.659
755.554
1043.26
1206.2
16.1902
17.111
23.5552
35.5165
53.7252
78.2639
95.9276
145.222
197.47
203.293
191.468
249.162
220.649
266.135
311.601
393.697
586.469
927.01
1226.02
7.84803
8.69906
11.7687
15.3975
25.7885
38.11
48.1207
67.5663
82.6588
84.7046
92.9624
112.353
132.85
174.925
236.717
316.992
546.868
832.152
1159.31
2.84224
2.97244
4.38771
5.88762
9.61093
14.089
21.6759
29.6258
37.9037
41.4066
53.3129
68.4737
83.3089
93.5132
157.107
225.356
453.996
724.641
1100.57
0.657366
0.885135
1.79215
2.91557
5.20658
5.89764
10.4193
15.4408
19.8955
25.5593
33.3224
38.6657
39.5886
54.2282
100.957
177.741
363.72
606.668
1002.85
-0.230913
-0.116095
0.205248
1.02271
2.67411
1.70854
2.84944
5.74953
8.39415
11.4381
15.4167
16.4332
16.1221
22.6021
47.7751
106.748
244.11
521.284
845.495
-0.28886
-0.218287
-0.225197
0.137437
1.0781
0.675531
1.27796
3.11442
3.79627
3.96727
6.34201
7.27219
7.15498
10.0516
25.3206
69.081
187.74
432.5
730.524
-0.436544
-0.392925
-0.249717
-0.280124
-0.0763781
-0.180507
-0.145426
0.151154
0.355056
0.349177
1.17315
2.54468
2.53172
4.08131
14.3331
48.2121
146.836
365.373
645.942
-0.37949
-0.373148
-0.260543
-0.341452
-0.329574
-0.515738
-0.631702
-0.395421
-0.480394
-0.558386
-0.104046
0.514496
0.719441
1.45944
9.01346
37.9537
122.301
315.465
576.584
-0.406602
-0.419913
-0.280164
-0.33727
-0.483144
-0.600996
-0.588506
-0.713518
-0.570662
-0.606806
-0.614855
-0.200046
-0.173443
0.287494
5.4298
29.7016
103.312
280.817
526.912
-0.464088
-0.284381
-0.324321
-0.371437
-0.35251
-0.577813
-0.614829
-0.636484
-0.658959
-0.517949
-0.6719
-0.559425
-0.45977
-0.0300964
3.22229
20.8811
83.4954
249.619
495.309
-0.402335
-0.40137
-0.306635
-0.379666
-0.429866
-0.52197
-0.504863
-0.505428
-0.492356
-0.566727
-0.624685
-0.440377
-0.479372
-0.230938
1.4685
13.3467
64.6925
217.958
469.556
-0.471281
-0.324771
-0.294932
-0.331565
-0.317889
-0.528024
-0.581202
-0.411032
-0.472579
-0.508508
-0.517266
-0.433245
-0.300442
-0.338479
1.1216
10.4458
52.1555
191.242
441.726
-0.378148
-0.328057
-0.384784
-0.308116
-0.379818
-0.472299
-0.458012
-0.439745
-0.46691
-0.397892
-0.369102
-0.400802
-0.30924
-0.255938
1.21963
9.29189
45.4797
174.659
418.635
-0.384078
-0.347175
-0.286841
-0.294661
-0.356889
-0.349458
-0.361121
-0.413975
-0.408378
-0.382797
-0.336391
-0.34294
-0.239094
-0.123017
1.02675
8.12533
39.193
162.909
397.244
-0.381864
-0.269148
-0.248101
-0.263945
-0.404139
-0.480098
-0.313311
-0.417618
-0.425097
-0.315904
-0.329567
-0.307629
-0.254745
0.125289
1.63554
8.1756
32.7281
143.281
359.337
-0.286347
-0.337695
-0.251638
-0.262592
-0.351714
-0.364073
-0.306997
-0.416254
-0.350248
-0.317133
-0.302406
-0.283945
-0.145617
0.00611918
1.51628
7.08495
27.1997
122.944
329.13
-0.262448
-0.329243
-0.238156
-0.236265
-0.287596
-0.26649
-0.280307
-0.420252
-0.412325
-0.22073
-0.241716
-0.244312
-0.182652
0.277584
1.91257
5.74185
23.2275
114.712
316.848
-0.175168
-0.217172
-0.327123
-0.228753
-0.230577
-0.248418
-0.461652
-0.43357
-0.246655
-0.281312
-0.271267
-0.197218
-0.146348
0.124558
0.798084
3.54251
20.8292
111.308
313.329
-0.271455
-0.231284
-0.33554
-0.236439
-0.248982
-0.257949
-0.305905
-0.291945
-0.300755
-0.180014
-0.381813
-0.185167
-0.167806
-0.0914705
0.80847
3.81694
21.9427
109.558
312.171
-0.247331
-0.161473
-0.199723
-0.260259
-0.355449
-0.299918
-0.314497
-0.183074
-0.360109
-0.381699
-0.128129
-0.192503
-0.107839
-0.087302
0.862754
3.95643
23.3469
108.861
309.971
-0.241392
-0.161329
-0.224302
-0.193304
-0.32193
-0.356809
-0.492259
-0.148757
-0.246392
-0.22603
-0.187651
-0.151736
-0.249904
-0.180242
0.335449
2.53624
19.2606
100.226
302.844
-0.211297
-0.155578
-0.148678
-0.336679
-0.286265
-0.442313
-0.551096
-0.131081
-0.258729
-0.315267
-0.260269
-0.165979
-0.186133
-0.209761
0.120871
2.63809
17.7665
89.8752
280.181
-0.133374
-0.280445
-0.14854
-0.229543
-0.245093
-0.410129
-0.487014
-0.212782
-0.27399
-0.468551
-0.421681
-0.224353
-0.266228
-0.357025
-0.184725
3.25332
22.2116
92.4617
228.508
-0.253676
-0.322572
-0.195106
-0.172163
-0.362527
-0.452643
-0.41384
-0.21773
-0.190702
-0.633422
-0.553257
-0.164003
-0.170854
-0.489495
-0.342089
1.73535
11.4248
49.6238
172.303
-0.187151
-0.133251
-0.226051
-0.216735
-0.321542
-0.320964
-0.271144
-0.16304
-0.251486
-0.658394
-0.532491
-0.380502
-0.172885
-0.325526
-0.414563
0.375512
4.01025
32.753
157.129
-0.0952567
-0.15959
-0.235267
-0.105953
-0.157002
-0.142618
-0.152206
-0.130241
-0.389583
-0.46032
-0.515796
-0.259685
-0.388718
-0.315044
-0.261286
0.334492
2.45135
22.1824
116.595
-0.153098
-0.249519
-0.400828
-0.433581
-0.203891
-0.131044
-0.0195514
-0.0061831
-0.0234521
-0.258673
-0.213533
-0.195705
-0.201698
-0.321312
-0.313965
-0.0523996
0.931363
13.5906
91.1148
-0.166136
-0.208843
-0.380962
-0.360385
-0.343018
-0.140627
-0.00098216
0.0161018
-0.125176
-0.125986
-0.162156
-0.230652
-0.150733
-0.102339
-0.0594518
-0.000975363
0.183219
4.521
52.4347
-0.154573
-0.407634
-0.170723
-0.155028
-0.123166
-0.102273
-0.00213953
-0.0327799
0.0438505
-0.00424002
-0.00227171
0.0171157
0.0056799
-0.082534
-0.0325271
0.00228871
-0.212775
-1.47896
11.9139
)
;

boundaryField
{
    leftWall
    {
        type            zeroGradient;
    }
    rightWall
    {
        type            zeroGradient;
    }
    lowerWall
    {
        type            zeroGradient;
    }
    atmosphere
    {
        type            totalPressure;
        rho             rho;
        psi             none;
        gamma           1;
        p0              uniform 0;
        value           nonuniform List<scalar> 
46
(
0
0
0
0
0
0
0
0
0
0
0
0
0
0
0
0
0
0
-0.00309675
-0.00601985
-0.0162686
-0.05061
-0.0382255
-0.0597302
-0.0877875
-0.0952801
-0.100119
-0.152234
-0.305621
-0.269563
-0.19884
-0.182279
-0.113585
-0.0189388
-0.0204869
-0.00310287
-0.0103127
-0.000746792
-0.0147802
0
0
0
0
0
-0.00606863
0
)
;
    }
    defaultFaces
    {
        type            empty;
    }
}


// ************************************************************************* //
