/*--------------------------------*- C++ -*----------------------------------*\
| =========                 |                                                 |
| \\      /  F ield         | foam-extend: Open Source CFD                    |
|  \\    /   O peration     | Version:     4.1                                |
|   \\  /    A nd           | Web:         http://www.foam-extend.org         |
|    \\/     M anipulation  |                                                 |
\*---------------------------------------------------------------------------*/
FoamFile
{
    version     2.0;
    format      ascii;
    class       surfaceScalarField;
    location    "0.6";
    object      phi;
}
// * * * * * * * * * * * * * * * * * * * * * * * * * * * * * * * * * * * * * //

dimensions      [0 3 -1 0 0 0 0];

internalField   nonuniform List<scalar> 
4432
(
2.01811e-06
-2.01811e-06
2.75919e-06
-7.41082e-07
3.61903e-06
-8.5984e-07
4.30666e-06
-6.87622e-07
4.65464e-06
-3.47981e-07
4.11066e-06
5.43974e-07
3.53421e-06
5.76452e-07
2.65227e-06
8.81939e-07
9.72479e-07
1.67979e-06
-7.48305e-07
1.72078e-06
-1.29079e-06
5.42486e-07
-7.68478e-07
-5.22314e-07
-1.11373e-07
-6.57106e-07
4.53039e-07
-5.64413e-07
6.01331e-07
-1.48293e-07
6.42387e-07
-4.10561e-08
1.65317e-07
4.77069e-07
-6.29815e-07
7.95131e-07
-1.75042e-06
1.1206e-06
-4.30647e-07
-1.31977e-06
-9.68778e-07
5.3813e-07
-7.60879e-07
-2.07899e-07
-7.60879e-07
1.8473e-06
-3.86541e-06
2.78574e-06
-1.67952e-06
3.79686e-06
-1.87096e-06
4.41634e-06
-1.30709e-06
4.60194e-06
-5.33586e-07
4.19557e-06
9.50342e-07
3.79409e-06
9.77931e-07
2.84339e-06
1.83264e-06
2.00625e-06
2.51693e-06
3.1674e-06
5.5963e-07
2.10397e-06
1.60592e-06
1.91746e-06
-3.35809e-07
2.01225e-06
-7.51893e-07
2.22982e-06
-7.81981e-07
2.19668e-06
-1.15155e-07
2.25079e-06
-9.5174e-08
1.18043e-06
1.54743e-06
1.10672e-06
8.68846e-07
3.91134e-07
1.83618e-06
-3.96449e-07
-5.32192e-07
-1.0598e-06
1.20148e-06
2.22897e-07
-1.4906e-06
-5.37982e-07
1.41965e-06
-5.28506e-06
2.71613e-06
-2.976e-06
4.07811e-06
-3.23295e-06
4.54457e-06
-1.77355e-06
4.79776e-06
-7.86778e-07
4.69991e-06
1.04819e-06
4.27551e-06
1.40233e-06
3.37006e-06
2.73808e-06
1.76297e-06
4.12402e-06
1.02854e-06
1.29406e-06
-2.58246e-07
2.89271e-06
-3.81308e-07
-2.12747e-07
-6.7031e-07
-4.62892e-07
-9.66287e-07
-4.86005e-07
-8.44701e-07
-2.36741e-07
-2.59248e-07
-6.80628e-07
4.38777e-07
8.494e-07
9.32455e-07
3.75167e-07
4.8256e-07
2.28608e-06
3.04243e-07
-3.53875e-07
-1.43484e-06
2.94056e-06
-4.74842e-08
-2.87795e-06
-5.85466e-07
1.20937e-06
-6.49443e-06
2.90478e-06
-4.67141e-06
4.41981e-06
-4.74798e-06
4.99288e-06
-2.34662e-06
5.41996e-06
-1.21386e-06
4.88334e-06
1.58481e-06
3.84816e-06
2.43751e-06
3.07196e-06
3.51429e-06
4.06439e-06
3.13159e-06
1.03139e-06
4.32706e-06
-1.42857e-06
5.35267e-06
-4.69864e-06
3.05733e-06
-6.84443e-06
1.6829e-06
-7.51431e-06
1.83874e-07
-7.34873e-06
-4.02328e-07
-5.86163e-06
-2.16773e-06
-5.3357e-06
3.23476e-07
-4.88927e-06
-7.12636e-08
-3.67616e-06
1.07296e-06
-1.16775e-06
-2.86228e-06
-2.45836e-06
4.23117e-06
-6.45152e-08
-5.2718e-06
-6.4998e-07
1.43722e-06
-7.93165e-06
3.23634e-06
-6.47052e-06
4.714e-06
-6.22565e-06
5.45541e-06
-3.08803e-06
5.61406e-06
-1.37251e-06
4.52927e-06
2.6696e-06
3.63289e-06
3.33389e-06
2.51924e-06
4.62793e-06
6.89137e-07
4.96169e-06
-3.31464e-06
8.33083e-06
-6.69564e-06
8.73368e-06
-1.05028e-05
6.86447e-06
-1.23757e-05
3.55582e-06
-1.32899e-05
1.09803e-06
-1.34478e-05
-2.44398e-07
-1.2957e-05
-2.6585e-06
-1.2193e-05
-4.40542e-07
-1.18193e-05
-4.44961e-07
-1.12819e-05
5.35522e-07
-7.53678e-06
-6.60737e-06
-3.34925e-06
4.36472e-08
-7.82569e-07
-7.83848e-06
-1.43255e-06
1.95082e-06
-9.88248e-06
3.6688e-06
-8.1885e-06
4.98913e-06
-7.54598e-06
5.59382e-06
-3.69272e-06
5.58926e-06
-1.36795e-06
4.57225e-06
3.68662e-06
3.08571e-06
4.82043e-06
1.80654e-06
5.90711e-06
-4.36515e-06
1.11334e-05
-8.99115e-06
1.29568e-05
-1.28009e-05
1.25434e-05
-1.53974e-05
9.46096e-06
-1.63858e-05
4.54425e-06
-1.65549e-05
1.26715e-06
-1.67151e-05
-8.42593e-08
-1.58699e-05
-3.50368e-06
-1.63899e-05
7.95123e-08
-9.58114e-06
-7.25376e-06
-9.11394e-06
6.83227e-08
-1.18282e-05
-3.89313e-06
-4.95123e-06
-6.8333e-06
-1.36683e-06
-1.14229e-05
-2.79938e-06
2.10907e-06
-1.19915e-05
3.70365e-06
-9.78307e-06
4.87333e-06
-8.71566e-06
5.5186e-06
-4.33799e-06
5.55095e-06
-1.4003e-06
3.90828e-06
5.32928e-06
8.14021e-07
7.91469e-06
-4.48597e-06
1.12071e-05
-1.05356e-05
1.7183e-05
-1.34775e-05
1.58987e-05
-1.62385e-05
1.53045e-05
-1.76559e-05
1.08783e-05
-1.85635e-05
5.45189e-06
-1.94661e-05
2.16981e-06
-1.95406e-05
-9.80171e-09
-1.82295e-05
-4.81481e-06
-1.77195e-05
-4.30508e-07
-1.85708e-05
-6.4024e-06
-1.03263e-05
-8.17615e-06
-8.48495e-06
-5.73452e-06
-6.61224e-06
-8.70601e-06
-3.55692e-06
-1.44782e-05
-6.3563e-06
1.8372e-06
-1.38287e-05
3.36369e-06
-1.13096e-05
4.59311e-06
-9.94508e-06
5.14936e-06
-4.89425e-06
4.96956e-06
-1.22049e-06
2.91082e-06
7.38802e-06
-1.58202e-06
1.24075e-05
-9.34045e-06
1.89655e-05
-1.38265e-05
2.1669e-05
-1.75694e-05
1.96417e-05
-1.9906e-05
1.76411e-05
-2.06587e-05
1.1631e-05
-2.08085e-05
5.60166e-06
-2.07053e-05
2.06662e-06
-1.981e-05
-9.05073e-07
-1.84319e-05
-6.19292e-06
-1.07088e-05
-8.15363e-06
-1.08616e-05
-6.24963e-06
-1.11454e-05
-7.89234e-06
-1.78553e-05
9.75397e-07
-1.35769e-05
-1.29844e-05
-4.54572e-06
-2.35094e-05
-1.0902e-05
-0.000111456
0.000111456
-0.000214904
0.000103447
-0.000239851
2.49475e-05
-0.000252504
1.26528e-05
-0.00027083
1.83259e-05
-0.000282185
1.13544e-05
-0.000263561
-1.86231e-05
-0.00023282
-3.07416e-05
-0.000201938
-3.08822e-05
-0.000184741
-1.71961e-05
-0.000183336
-1.40532e-06
-0.000179748
-3.58845e-06
-0.00017824
-1.50758e-06
-0.000169808
-8.43232e-06
-0.000115771
-5.40369e-05
-9.93718e-05
-1.63991e-05
-0.000138074
3.87022e-05
-7.56129e-05
-6.2461e-05
-7.56129e-05
-9.69683e-05
0.000208425
-0.000164763
0.000171242
-0.000180716
4.09012e-05
-0.000197427
2.93637e-05
-0.000182177
3.07548e-06
-0.000176405
5.58282e-06
-0.000151311
-4.37174e-05
-0.00014815
-3.39022e-05
-0.000146177
-3.28555e-05
-0.000145886
-1.74868e-05
-0.000158172
1.08805e-05
-0.00016822
6.45889e-06
-0.000109675
-6.00522e-05
-0.000106926
-1.11811e-05
-0.000117412
-4.35509e-05
-0.000106572
-2.72389e-05
-8.14002e-05
1.353e-05
-7.60724e-05
-6.77888e-05
-0.000151685
-6.89408e-05
0.000277366
-0.000112365
0.000214666
-0.000112657
4.11927e-05
-8.02412e-05
-3.05161e-06
-0.000101535
2.43688e-05
-6.3879e-05
-3.20727e-05
-3.78544e-05
-6.9742e-05
-2.0148e-05
-5.16086e-05
-1.01902e-05
-4.28132e-05
-3.30288e-05
5.35178e-06
-8.33497e-05
6.12013e-05
-0.000116929
4.00386e-05
-0.000148414
-2.85673e-05
-9.72768e-05
-6.23186e-05
-0.000108529
-3.22986e-05
-0.000101225
-3.45434e-05
-7.39296e-05
-1.37649e-05
-5.94378e-05
-8.22807e-05
-0.000211123
-4.8404e-05
0.00032577
-7.60582e-05
0.00024232
-8.4121e-05
4.92554e-05
-9.83801e-05
1.12075e-05
-6.26965e-05
-1.13147e-05
-1.42451e-05
-8.05241e-05
8.54522e-06
-9.25324e-05
2.29206e-05
-6.59839e-05
4.28628e-05
-6.27554e-05
2.65598e-05
2.16548e-05
2.07374e-05
6.70237e-05
-6.87931e-09
6.07828e-05
-4.35368e-05
1.49625e-05
-0.000100032
-5.82305e-06
-8.50891e-05
-4.72418e-05
-0.000136454
1.68211e-05
-6.53545e-05
-8.4864e-05
-5.93808e-05
-8.82544e-05
-0.000270504
-3.49669e-05
0.000360737
-4.36975e-05
0.000251051
-4.49879e-05
5.05458e-05
-3.64013e-05
2.62097e-06
-1.30283e-05
-3.46878e-05
9.5843e-06
-0.000103137
2.62211e-05
-0.000109169
4.14688e-05
-8.12316e-05
6.46181e-05
-8.59047e-05
9.99626e-05
-1.36897e-05
0.000118296
4.86908e-05
5.65823e-05
0.000122496
1.64795e-05
5.50653e-05
-3.46444e-05
4.53008e-05
-6.95212e-05
-1.2365e-05
-6.57864e-05
1.30863e-05
-5.81013e-05
-9.25491e-05
-2.82958e-05
-0.00011806
-0.0002988
-2.03194e-05
0.000381056
-1.20049e-05
0.000242736
-3.16084e-05
7.01492e-05
-2.11392e-05
-7.84825e-06
1.12306e-05
-6.70575e-05
2.25418e-05
-0.000114448
5.1659e-05
-0.000138286
5.88004e-05
-8.83729e-05
7.53694e-05
-0.000102474
0.000100291
-3.86118e-05
6.42909e-05
8.46913e-05
5.44092e-05
0.000132378
1.63692e-05
9.31053e-05
-5.73144e-05
0.000118984
-6.09124e-05
-8.76708e-06
-5.41679e-05
6.34185e-06
-4.14873e-05
-0.00010523
-1.82408e-05
-0.000141306
-0.000317041
-1.04822e-05
0.000391538
6.99174e-06
0.000225263
-9.58228e-06
8.67232e-05
-5.83962e-06
-1.15909e-05
2.60227e-05
-9.89198e-05
2.4949e-05
-0.000113374
3.07757e-05
-0.000144113
6.52757e-05
-0.000122873
7.65028e-05
-0.000113701
0.000101766
-6.38754e-05
0.000104099
8.23588e-05
9.81263e-05
0.000138351
5.38173e-05
0.000137414
-1.13746e-06
0.000173939
-2.58109e-05
1.59063e-05
-3.59954e-05
1.65263e-05
-5.4892e-05
-8.63332e-05
-2.5794e-05
-0.000170404
-0.000342835
-9.69164e-07
0.000392507
3.47271e-05
0.000189566
3.69632e-05
8.4487e-05
2.41371e-05
1.2353e-06
2.04438e-05
-9.52265e-05
3.0014e-05
-0.000122944
3.41274e-05
-0.000148227
6.03529e-05
-0.000149098
7.01678e-05
-0.000123516
5.7091e-05
-5.07986e-05
5.61118e-05
8.3338e-05
8.00049e-05
0.000114457
6.81005e-05
0.000149319
4.29195e-05
0.00019912
-2.65774e-06
6.14836e-05
-1.86578e-05
3.25264e-05
-2.12128e-05
-8.37782e-05
-1.14382e-05
-0.000180179
-0.000354273
1.99389e-06
-1.58226e-05
3.57769e-06
-1.28934e-05
4.76958e-06
-1.1137e-05
5.57333e-06
-5.698e-06
3.02997e-06
1.32288e-06
-7.76352e-06
1.81815e-05
-2.14182e-05
2.60622e-05
-3.04173e-05
2.79646e-05
-3.80277e-05
2.92794e-05
-4.27506e-05
2.43645e-05
-4.62374e-05
2.11279e-05
-4.58687e-05
1.12623e-05
-4.85132e-05
8.24608e-06
-4.81432e-05
1.69665e-06
-4.55e-05
-3.54823e-06
-4.25519e-05
-9.14106e-06
-4.26373e-05
-8.06819e-06
-3.86926e-05
-1.01943e-05
-3.85864e-05
-7.99859e-06
-2.52807e-05
-1.23303e-05
-2.1658e-05
-1.66071e-05
-2.53217e-05
-1.98457e-05
-3.1925e-05
-4.29865e-06
-6.18747e-06
-9.63517e-06
-1.17282e-05
-7.35265e-06
-1.86176e-05
-4.24758e-06
-2.84301e-05
4.11455e-06
-5.89206e-05
3.18133e-05
-6.37724e-05
2.30333e-05
-6.8207e-05
3.04968e-05
-5.70249e-05
1.67826e-05
-4.81015e-05
2.0356e-05
-4.76409e-05
2.39038e-05
-4.93374e-05
2.28244e-05
-4.89011e-05
1.0826e-05
-4.50392e-05
4.38418e-06
-4.25445e-05
-7.98018e-07
-3.9815e-05
-6.27776e-06
-3.77302e-05
-1.12258e-05
-3.33406e-05
-1.24578e-05
-3.529e-05
-8.24494e-06
-1.92903e-05
-2.39983e-05
-2.15424e-05
-1.00782e-05
-2.49031e-05
-1.32463e-05
-2.59484e-05
-1.88004e-05
-1.16006e-05
-4.62729e-05
-1.5118e-05
5.48282e-06
-3.22115e-05
9.74087e-06
-6.64399e-05
2.99808e-05
-8.69743e-05
2.46489e-05
-7.24409e-05
1.72799e-05
-7.03101e-05
2.09025e-05
-6.24794e-05
2.26661e-05
-7.7423e-05
3.17262e-05
-6.91741e-05
1.21072e-05
-5.59115e-05
1.06412e-05
-3.58257e-05
2.73869e-06
-4.97677e-05
2.4768e-05
-4.34972e-05
-1.88632e-06
-4.14205e-05
-2.8747e-06
-4.00277e-05
-7.67059e-06
-3.66414e-05
-1.46121e-05
-3.46312e-05
-1.4468e-05
-1.92801e-05
-2.3596e-05
-3.34858e-05
-9.79266e-06
-2.41913e-05
-1.93727e-05
-2.25661e-05
-1.48716e-05
-2.42017e-05
-1.71648e-05
-7.848e-06
-2.79543e-05
-3.81138e-05
4.35966e-05
-7.43448e-05
4.59719e-05
-9.8872e-05
5.4508e-05
-0.000116089
4.18658e-05
-0.000102661
3.85233e-06
-9.13445e-05
9.58574e-06
-8.03039e-05
1.16255e-05
-9.04556e-05
4.18778e-05
-9.02121e-05
1.18637e-05
-8.51491e-05
5.57818e-06
-7.74573e-05
-4.95308e-06
-4.91218e-05
-3.56758e-06
-5.80932e-05
7.08506e-06
-5.08621e-05
-1.01058e-05
-5.24749e-05
-6.05779e-06
-4.92466e-05
-1.78404e-05
-4.9257e-05
-1.44575e-05
-4.56933e-05
-2.71597e-05
-4.23021e-05
-1.31839e-05
-4.90181e-05
-1.26567e-05
-4.75668e-05
-1.63228e-05
-4.60534e-05
-1.86782e-05
-7.16035e-06
-4.6741e-05
-3.91356e-05
8.27322e-05
-7.1497e-05
7.83333e-05
-5.98446e-05
4.28556e-05
-8.20528e-05
6.40739e-05
-0.000102318
2.41177e-05
-0.000139375
4.66427e-05
-0.000140037
1.22875e-05
-0.000130754
3.2595e-05
-0.000129653
1.07624e-05
-0.000124778
7.03334e-07
-0.000111002
-1.87289e-05
-0.000103991
-1.0579e-05
-9.61856e-05
-7.20186e-07
-9.17142e-05
-1.45772e-05
-5.83966e-05
-3.93754e-05
-5.13908e-05
-2.48463e-05
-4.16637e-05
-2.41846e-05
-6.31876e-05
-5.63578e-06
-7.66506e-05
2.79109e-07
-6.16716e-05
-2.76356e-05
-4.75398e-05
-3.04546e-05
-5.70358e-05
-9.18222e-06
-1.43369e-05
-4.98593e-05
-3.4506e-05
0.000117238
-6.55436e-05
0.000109371
-0.000110793
8.8105e-05
-8.39597e-05
3.72407e-05
-8.81653e-05
2.83233e-05
-7.43337e-05
3.28111e-05
-0.000106229
4.41833e-05
-0.000101815
2.81802e-05
-9.92109e-05
8.15872e-06
-7.73526e-05
-2.1155e-05
-0.000104346
8.26427e-06
-0.000106739
-8.1857e-06
-6.97787e-05
-3.76806e-05
-8.14699e-05
-2.88592e-06
-0.000106603
-1.42427e-05
-0.000146074
1.46246e-05
-0.000178409
8.1503e-06
-0.000179351
-4.693e-06
-0.000151971
-2.71011e-05
-0.000149105
-3.05016e-05
-0.000163233
-1.63265e-05
-0.000136095
-3.6321e-05
-4.59937e-05
-0.000104438
-4.91419e-05
0.00016638
-3.61709e-05
9.64e-05
-7.76248e-05
0.000129559
-0.000117449
7.70644e-05
-0.000123853
3.47274e-05
-0.000118055
2.70137e-05
-0.000112392
3.85203e-05
-0.000102408
1.81961e-05
-0.000109391
1.51411e-05
-0.000125211
-5.3343e-06
-0.000130802
1.38555e-05
-0.000170851
3.18626e-05
-0.000250301
4.17701e-05
-0.000308103
5.49156e-05
-0.000356538
3.41923e-05
-0.000390813
4.88993e-05
-0.000427747
4.50842e-05
-0.000412304
-2.01356e-05
-0.000381828
-5.75773e-05
-0.000320086
-9.22437e-05
-0.000283764
-5.26477e-05
-0.00026607
-5.40149e-05
-5.20892e-05
-0.000259975
-1.13407e-05
0.000177721
-2.20857e-05
0.000107145
-6.17074e-05
0.000169181
-8.30099e-05
9.83669e-05
-0.000106247
5.79645e-05
-9.58688e-05
1.66354e-05
-5.8652e-05
1.30346e-06
-5.47668e-05
1.4311e-05
-8.98782e-05
5.02525e-05
-0.00019599
0.000100778
-0.000280852
9.87177e-05
-0.000342099
9.31088e-05
-0.000362684
6.23555e-05
-0.000374317
6.65481e-05
-0.000379188
3.90635e-05
-0.00033907
8.78127e-06
-0.000261334
-3.26519e-05
-0.000245704
-3.57656e-05
-0.000258336
-4.49445e-05
-0.000324896
-2.56843e-05
-0.000341539
-3.60044e-05
-0.000356507
-3.90469e-05
-5.58569e-05
-0.000352739
2.90036e-06
0.000174821
-6.36997e-07
0.000110683
-2.64665e-05
0.00019501
-7.74204e-05
0.000149321
-7.53205e-05
5.58645e-05
-0.000152626
9.39407e-05
-0.000239441
8.81181e-05
-0.000352547
0.000127418
-0.000449436
0.000147142
-0.000466511
0.000117852
-0.000494437
0.000126644
-0.000522269
0.000120941
-0.000498647
3.87329e-05
-0.000440512
8.41364e-06
-0.000394686
-6.7626e-06
-0.000370048
-1.58564e-05
-0.00037689
-2.58098e-05
-0.000367566
-4.50899e-05
-0.000359023
-5.34874e-05
-0.000342419
-4.22889e-05
-0.000313528
-6.48946e-05
-0.000257279
-9.52964e-05
-6.47961e-05
-0.00024834
2.78611e-05
0.00014696
1.41296e-05
0.000124414
-2.58628e-05
0.000235002
-7.72384e-05
0.000200696
-0.000133764
0.00011239
-0.000208339
0.000168516
-0.000288817
0.000168595
-0.000360415
0.000199016
-0.000415044
0.000201771
-0.000451824
0.000154632
-0.000467919
0.000142738
-0.000420235
7.32576e-05
-0.000397406
1.59039e-05
-0.000394717
5.72466e-06
-0.000397124
-4.35568e-06
-0.000384767
-2.82129e-05
-0.000356247
-5.43301e-05
-0.000335988
-6.53494e-05
-0.000316
-7.34753e-05
-0.000306443
-5.18459e-05
-0.000305669
-6.56684e-05
-0.000330148
-7.08177e-05
-6.93611e-05
-0.000325583
7.53346e-05
7.16249e-05
8.10024e-05
0.000118746
3.1742e-05
0.000284263
-2.45341e-05
0.000256972
-0.000116383
0.000204238
-0.000139861
0.000191994
-0.00012987
0.000158604
-9.12074e-05
0.000160353
-9.00942e-05
0.000200658
-0.000110068
0.000174606
-9.57126e-05
0.000128382
-0.000121531
9.90763e-05
-0.000189184
8.35569e-05
-0.000251762
6.83021e-05
-0.000285663
2.95459e-05
-0.000293688
-2.01879e-05
-0.000298747
-4.92716e-05
-0.000304296
-5.97999e-05
-0.00030175
-7.60215e-05
-0.000272004
-8.1592e-05
-0.00024582
-9.18528e-05
-0.000230487
-8.61506e-05
-9.15485e-05
-0.000208299
0.000109903
-3.82783e-05
9.30687e-05
0.00013558
3.73498e-05
0.000339981
-1.63567e-05
0.000310678
-3.27542e-05
0.000220636
-5.17125e-05
0.000210952
-0.000158141
0.000265033
-0.000286138
0.000288351
-0.000334298
0.000248818
-0.000358495
0.000198802
-0.000363347
0.000133234
-0.000368133
0.000103862
-0.000348953
6.43768e-05
-0.000317981
3.73299e-05
-0.000268211
-2.0224e-05
-0.000203311
-8.50873e-05
-0.00015473
-9.78531e-05
-0.000127811
-8.67191e-05
-0.000121289
-8.2543e-05
-0.00012611
-7.67709e-05
-0.000140643
-7.73196e-05
-0.000147631
-7.91623e-05
-8.03828e-05
-0.000158797
6.14582e-05
-9.97366e-05
2.04379e-05
0.0001766
-4.87123e-06
0.000365291
-4.97555e-05
0.000355563
-0.000146372
0.000317252
-0.000294759
0.000359339
-0.000385563
0.000355838
-0.000409119
0.000311907
-0.000383443
0.000223142
-0.000368166
0.000183525
-0.000334772
9.98411e-05
-0.000291853
6.09428e-05
-0.000213443
-1.40328e-05
-0.000128921
-4.71925e-05
-6.32849e-05
-8.58599e-05
-3.69717e-05
-0.000111401
-3.45567e-05
-0.000100268
-3.60583e-05
-8.52174e-05
-4.87146e-05
-6.98866e-05
-5.88738e-05
-6.66117e-05
-6.87283e-05
-6.74651e-05
-7.81376e-05
-6.9753e-05
-6.49636e-05
-9.35567e-05
-8.55519e-05
-1.41847e-05
-0.000129351
0.000220399
-0.000131881
0.000367821
-0.00018671
0.000410393
-0.000322408
0.00045295
-0.000209666
0.000246597
-0.00024814
0.000394311
-0.000228526
0.000292293
-0.000247111
0.000241727
-0.00019875
0.000135164
-0.000158033
5.91242e-05
-9.65274e-05
-5.63018e-07
-3.31937e-05
-7.73664e-05
6.02379e-07
-8.09885e-05
2.47148e-06
-8.7729e-05
-3.87078e-05
-7.02212e-05
-7.81951e-05
-6.07808e-05
-0.000124545
-3.88677e-05
-0.000176487
-1.79441e-05
-0.000214047
-2.90521e-05
-0.000216137
-6.53743e-05
-0.000192348
-9.35422e-05
-7.01271e-05
-0.000187185
-0.000172483
0.000158299
-0.000282861
0.000330777
-0.000281309
0.000366269
-0.000263857
0.000392941
-0.000195909
0.000385002
-0.000347256
0.000397944
-0.000275333
0.000322388
-0.00028826
0.000305221
-0.000209934
0.0001634
-0.000105083
3.03134e-05
-6.69287e-05
2.09696e-05
-3.32546e-05
-3.42371e-05
-1.37212e-05
-9.68998e-05
1.79691e-06
-9.65067e-05
3.14713e-06
-8.90792e-05
-9.00452e-06
-5.80695e-05
-1.7777e-05
-5.20082e-05
-2.1726e-05
-3.49186e-05
-1.32943e-05
-2.63757e-05
-3.99688e-05
-2.37753e-06
-7.45613e-05
-3.07818e-05
-8.47386e-05
-8.33649e-05
-7.57711e-05
-7.90945e-05
-0.000134379
0.000292678
-0.000215858
0.000412255
-0.00028898
0.000439391
-0.000305116
0.000409077
-0.000333699
0.000413585
-0.000350406
0.000414652
-0.000342569
0.000314551
-0.000272132
0.000234783
-0.000163771
5.50387e-05
-0.000124625
-8.83147e-06
-5.33989e-05
-5.02569e-05
-6.25958e-07
-8.701e-05
2.36122e-05
-0.000121138
3.96868e-05
-0.000112581
3.72397e-05
-8.66322e-05
2.76731e-05
-4.85028e-05
1.86594e-05
-4.29945e-05
1.76611e-05
-3.39202e-05
2.23095e-05
-3.10239e-05
3.66804e-05
-1.67484e-05
5.5698e-05
-4.97993e-05
2.90975e-05
-5.67643e-05
-5.16242e-05
4.95061e-06
-0.000144003
0.000436682
-0.000231012
0.000499264
-0.000286982
0.000495361
-0.000222184
0.00034428
-0.000294779
0.00048618
-0.000294682
0.000414554
-0.000247158
0.000267027
-0.000134694
0.00012232
-8.40502e-05
4.3952e-06
-3.50162e-06
-8.93799e-05
2.80393e-05
-8.17977e-05
2.35039e-05
-8.24745e-05
3.82163e-05
-0.00013585
4.65415e-05
-0.000120906
4.30588e-05
-8.31494e-05
3.91195e-05
-4.45635e-05
3.73587e-05
-4.12336e-05
3.72156e-05
-3.3777e-05
6.21577e-05
-5.59658e-05
7.41822e-05
-2.87727e-05
8.05401e-05
-5.61572e-05
6.34527e-05
-3.96768e-05
-3.82182e-05
5.00466e-05
-0.000133998
0.00057068
-0.000202205
0.000567471
-0.000221397
0.000514552
-0.000187094
0.000309978
-0.000164219
0.000463305
-0.000158576
0.00040891
-0.000102803
0.000211254
-3.16341e-05
5.11507e-05
5.13089e-05
-7.85478e-05
4.56788e-05
-8.37498e-05
3.54356e-05
-7.15544e-05
8.39999e-05
-0.000131039
5.26804e-05
-0.000104531
5.14458e-05
-0.000119672
4.63748e-05
-7.80785e-05
4.35285e-05
-4.17171e-05
5.44841e-05
-5.21891e-05
6.15653e-05
-4.08581e-05
3.51566e-05
-2.9557e-05
4.90444e-05
-4.26604e-05
4.95337e-05
-5.66464e-05
8.00523e-05
-7.01954e-05
-3.62779e-05
7.8112e-05
-0.000119319
0.000689998
-0.000230632
0.000678785
-9.30224e-05
0.000376942
-0.000184581
0.000401536
-0.000125054
0.000403778
-3.50258e-05
0.000318882
2.2521e-05
0.000153707
6.94248e-05
4.24693e-06
7.27942e-05
-8.19172e-05
0.000114094
-0.00012505
0.000162976
-0.000120436
0.000119097
-8.71603e-05
0.00013278
-0.000118213
9.48226e-05
-8.17148e-05
6.11462e-05
-4.44021e-05
7.41877e-05
-5.47585e-05
7.25576e-05
-5.0559e-05
6.02027e-05
-2.85031e-05
7.68971e-05
-4.62513e-05
7.78874e-05
-4.36506e-05
7.45768e-05
-5.33357e-05
6.85162e-05
-6.41348e-05
-5.06526e-05
8.28909e-05
-6.20191e-05
0.000752017
-6.29881e-05
0.000679753
-3.17309e-05
0.000345686
-1.24614e-05
0.000382266
2.28712e-05
0.000368446
0.000185225
0.000156528
0.000247584
9.13481e-05
0.00025795
-6.11877e-06
0.000262302
-8.62694e-05
0.000243108
-0.000105856
0.000175403
-5.27301e-05
0.000146034
-5.77915e-05
7.88429e-05
-5.10218e-05
7.11921e-05
-7.4064e-05
9.41003e-05
-6.73101e-05
7.33141e-05
-3.39723e-05
7.39788e-05
-5.12236e-05
7.9078e-05
-3.36022e-05
8.88704e-05
-5.60435e-05
7.6398e-05
-3.11781e-05
8.08369e-05
-5.77745e-05
8.49355e-05
-6.82333e-05
-5.76766e-05
9.19595e-05
8.59301e-06
0.000743424
3.95593e-05
0.000648787
-1.44582e-05
0.000399703
0.000152972
0.000214836
0.000167829
0.000353589
0.000202222
0.000122136
0.000215397
7.8173e-05
0.000264295
-5.50169e-05
0.000228659
-5.06331e-05
0.000161663
-3.88605e-05
0.000175638
-6.67042e-05
0.000158768
-4.09212e-05
0.000151696
-4.39499e-05
0.000129175
-5.15426e-05
0.000107615
-4.57501e-05
0.000108266
-3.46239e-05
9.51539e-05
-3.81111e-05
9.91757e-05
-3.76239e-05
6.20553e-05
-1.8923e-05
9.41273e-05
-6.325e-05
7.89817e-05
-4.26289e-05
4.56988e-05
-3.49503e-05
-6.09934e-05
4.90156e-05
2.45842e-05
0.000718841
0.000159047
0.000514325
0.000104923
0.000453826
0.000158713
0.000161047
0.000223856
0.000288446
0.000261763
8.42295e-05
0.000344943
-5.00723e-06
0.000312022
-2.20963e-05
0.000284989
-2.35996e-05
0.000256487
-1.03579e-05
0.000204521
-1.47385e-05
0.000191149
-2.75492e-05
0.00017344
-2.62401e-05
0.00016649
-4.45929e-05
0.000146761
-2.60211e-05
0.00013577
-2.36333e-05
0.000120667
-2.30077e-05
0.000103202
-2.01586e-05
9.63569e-05
-1.20779e-05
8.60502e-05
-5.29432e-05
9.25864e-05
-4.91651e-05
0.000102956
-4.53201e-05
-6.33299e-05
0.000105293
7.38882e-05
0.000644952
0.00025442
0.000333792
0.000323446
0.0003848
0.00021251
0.000271983
0.000339396
0.00016156
0.000340015
8.36103e-05
0.000310074
2.49344e-05
0.000260133
2.78442e-05
0.00016681
6.97234e-05
0.000147184
9.2689e-06
0.000166473
-3.40273e-05
0.000142263
-3.33969e-06
0.000126517
-1.04939e-05
8.67556e-05
-4.83128e-06
7.88727e-05
-1.81382e-05
7.56731e-05
-2.04338e-05
7.71457e-05
-2.44802e-05
7.58847e-05
-1.88976e-05
0.000103868
-4.00612e-05
9.74595e-05
-4.65345e-05
9.22508e-05
-4.39564e-05
8.91615e-05
-4.22308e-05
-4.29115e-05
6.87431e-05
0.000149746
0.000495206
0.000176973
0.000306566
0.000343494
0.000218279
0.000335943
0.000279535
0.000295325
0.000202178
0.000288743
9.01925e-05
0.000194147
0.00011953
0.0001847
3.72918e-05
0.000236387
1.8037e-05
0.000213829
3.18265e-05
0.000175559
4.24296e-06
0.000170317
1.90288e-06
0.000158943
8.7989e-07
0.000151585
2.52618e-06
0.000140268
-6.82056e-06
0.000146732
-2.68982e-05
0.000130596
-8.34371e-06
0.000114132
-2.43397e-06
0.000113833
-3.97618e-05
0.000120705
-5.34066e-05
0.000108087
-3.1338e-05
0.000104999
-3.91433e-05
-1.56014e-05
7.76888e-05
0.000158818
0.000336388
0.000171039
0.000294346
0.000175514
0.000213804
0.000307977
0.000147072
0.000287009
0.000223146
0.000265401
0.0001118
0.000288717
9.62138e-05
0.000259427
6.65822e-05
0.000223572
5.38924e-05
0.000222246
3.31523e-05
0.000185921
4.05683e-05
0.000174856
1.29677e-05
0.000155904
1.98317e-05
0.000139255
1.91759e-05
0.000128536
3.89852e-06
9.93811e-05
2.25635e-06
0.000101579
-1.05413e-05
0.000119635
-2.04901e-05
9.85329e-05
-1.86597e-05
6.6763e-05
-2.16367e-05
7.49456e-05
-3.95206e-05
6.70007e-05
-3.11983e-05
-2.78159e-05
7.92152e-05
6.98829e-05
0.000266505
0.000139767
0.000224462
0.000161945
0.000191625
0.00014028
0.000168737
0.000234251
0.000129175
0.000230453
0.000115599
0.000225425
0.000101242
0.000211164
8.0843e-05
0.000209747
5.53096e-05
0.000198883
4.40165e-05
0.000178458
6.09932e-05
0.000166698
2.47273e-05
0.000152298
3.42316e-05
0.000136603
3.48713e-05
0.000128921
1.15803e-05
8.78875e-05
4.32901e-05
6.93081e-05
8.03813e-06
5.25738e-05
-3.75566e-06
6.14465e-05
-2.75324e-05
7.35238e-05
-3.37139e-05
6.85044e-05
-3.45011e-05
6.83513e-05
-3.10453e-05
-3.59287e-05
7.64641e-05
5.7264e-05
0.000209241
0.000105056
0.00017667
0.000132837
0.000163844
0.000156847
0.000144727
0.000158696
0.000127326
0.000169794
0.000104501
0.000174981
9.60554e-05
0.000176345
7.94796e-05
0.000167134
6.45202e-05
0.000161158
4.99926e-05
0.000150893
7.12584e-05
0.00014455
3.10701e-05
0.000134102
4.46797e-05
0.000126397
4.25765e-05
8.89626e-05
4.90147e-05
9.46462e-05
3.76066e-05
9.16387e-05
1.10457e-05
9.98374e-05
-1.19543e-05
8.97542e-05
-1.74491e-05
6.91432e-05
-1.31029e-05
7.61893e-05
-4.15471e-05
7.4917e-05
-2.9773e-05
-3.66826e-05
7.56709e-05
3.45247e-05
0.000174716
5.01055e-05
0.000161089
6.88518e-05
0.000145098
8.47256e-05
0.000128854
0.000114087
9.79649e-05
0.000124426
9.41622e-05
0.000133404
8.70772e-05
0.000140603
7.22803e-05
0.000142248
6.28752e-05
0.000140628
5.16134e-05
0.000128944
8.29423e-05
0.000125083
3.49306e-05
0.000136319
3.34435e-05
0.000132566
4.63299e-05
0.000135471
4.61099e-05
0.000154231
1.88467e-05
0.00013947
2.5807e-05
0.000126219
1.29658e-06
0.000116651
-7.88119e-06
0.000115146
-1.1598e-05
8.83049e-05
-1.47058e-05
8.89399e-05
-3.0408e-05
-2.62776e-05
7.85349e-05
3.12335e-05
0.000143483
5.74657e-05
0.000134857
8.11619e-05
0.000121402
9.59277e-05
0.000114088
0.000102029
9.18637e-05
0.000109263
8.6928e-05
0.000116112
8.02286e-05
0.000120679
6.77127e-05
0.000123526
6.00283e-05
0.000124445
5.0695e-05
0.000119937
8.74504e-05
0.000119759
3.51085e-05
0.000120505
3.26974e-05
0.000125069
4.17659e-05
0.000127043
4.41361e-05
0.0001292
1.66891e-05
0.00011829
3.67175e-05
0.000113351
6.23535e-06
0.000104045
1.42474e-06
9.47572e-05
-2.30965e-06
7.76933e-05
2.35805e-06
8.74129e-05
-4.01274e-05
-2.5486e-05
8.66213e-05
2.29879e-05
0.000120495
4.32136e-05
0.000114632
6.17752e-05
0.00010284
7.82096e-05
9.76535e-05
8.35029e-05
8.65702e-05
9.1047e-05
7.93839e-05
9.773e-05
7.35457e-05
0.00010212
6.33227e-05
0.000104821
5.73276e-05
0.000107728
4.77875e-05
0.000108894
8.62845e-05
0.000108063
3.59399e-05
0.000109272
3.14885e-05
0.000113547
3.74909e-05
0.000113758
4.39251e-05
7.83092e-05
5.21382e-05
9.85602e-05
1.64665e-05
0.000103342
1.45346e-06
0.000110863
-6.09593e-06
0.00010658
1.9736e-06
0.000111648
-2.71055e-06
8.19104e-05
-1.03896e-05
-3.55854e-05
9.20098e-05
1.72812e-05
0.000103214
3.36515e-05
9.82616e-05
4.722e-05
8.92715e-05
6.0066e-05
8.48074e-05
6.78491e-05
7.8787e-05
7.54238e-05
7.18092e-05
8.217e-05
6.67996e-05
8.67057e-05
5.8787e-05
9.0048e-05
5.39855e-05
9.21531e-05
4.56824e-05
9.46988e-05
8.37389e-05
9.17002e-05
3.89385e-05
8.91015e-05
3.40872e-05
6.85391e-05
5.80533e-05
7.23317e-05
4.01325e-05
7.21879e-05
5.22821e-05
8.29471e-05
5.70737e-06
7.69998e-05
7.40078e-06
5.9726e-05
1.11779e-05
6.47991e-05
-3.09945e-06
7.25146e-05
-1.04261e-05
8.89818e-05
-2.68567e-05
-3.24779e-05
8.58743e-05
1.38755e-05
8.93384e-05
2.73357e-05
8.48012e-05
3.83417e-05
7.82653e-05
4.87926e-05
7.43563e-05
5.72715e-05
7.03081e-05
6.43782e-05
6.47025e-05
7.06359e-05
6.0542e-05
7.47146e-05
5.47085e-05
7.86252e-05
5.0075e-05
7.98064e-05
4.45012e-05
8.36038e-05
7.99416e-05
8.0638e-05
4.19044e-05
7.91122e-05
3.56131e-05
6.25905e-05
7.4575e-05
7.27887e-05
2.99343e-05
0.000104871
2.01996e-05
9.8444e-05
1.21347e-05
6.97847e-05
3.60601e-05
7.40085e-05
6.95409e-06
9.87077e-05
-2.77986e-05
9.37338e-05
-5.45219e-06
7.45749e-05
-7.6979e-06
-4.37358e-05
8.58329e-05
1.11886e-05
7.81496e-05
2.20467e-05
7.3943e-05
3.10382e-05
6.92739e-05
3.92722e-05
6.61224e-05
4.6625e-05
6.29554e-05
5.29018e-05
5.84258e-05
5.85447e-05
5.48994e-05
6.25826e-05
5.06706e-05
6.62338e-05
4.64239e-05
6.83652e-05
4.23699e-05
7.45118e-05
7.3795e-05
7.64996e-05
3.99166e-05
8.38658e-05
2.8247e-05
9.54937e-05
6.29472e-05
9.27559e-05
3.2672e-05
8.6841e-05
2.61145e-05
5.98249e-05
3.91508e-05
8.89287e-05
6.95634e-06
9.2866e-05
3.0168e-06
7.20688e-05
-7.00147e-06
0.00010272
-3.6103e-05
0.00011762
-2.25987e-05
-4.20988e-05
0.000115983
9.39846e-06
6.8751e-05
1.8373e-05
6.49685e-05
2.60963e-05
6.15507e-05
3.3333e-05
5.88858e-05
3.99915e-05
5.62971e-05
4.6039e-05
5.23785e-05
5.14797e-05
4.94588e-05
5.64795e-05
4.56709e-05
6.07499e-05
4.21535e-05
6.34241e-05
3.96957e-05
6.96029e-05
6.76163e-05
6.21273e-05
4.73922e-05
4.69909e-05
4.33834e-05
5.14607e-05
5.84773e-05
4.3073e-05
4.10597e-05
5.01096e-05
1.9078e-05
8.46855e-05
4.57486e-06
9.09676e-05
6.743e-07
0.000100506
-6.52143e-06
0.000105532
-1.20275e-05
0.000104312
-3.48834e-05
0.000101429
-1.97152e-05
-4.15093e-05
0.000100839
7.49295e-06
6.12581e-05
1.44249e-05
5.80368e-05
2.05437e-05
5.54321e-05
2.61975e-05
5.32322e-05
3.14005e-05
5.10943e-05
3.60693e-05
4.77098e-05
4.01348e-05
4.53933e-05
4.41166e-05
4.16891e-05
4.74962e-05
3.87739e-05
4.95756e-05
3.76163e-05
5.15039e-05
6.5688e-05
5.83941e-05
4.05019e-05
4.90538e-05
5.27237e-05
4.99009e-05
5.76302e-05
7.4172e-05
1.67886e-05
7.6454e-05
1.6796e-05
8.15034e-05
-4.74617e-07
7.72187e-05
4.95902e-06
7.12461e-05
-5.4879e-07
5.83712e-05
8.47346e-07
5.65476e-05
-3.30598e-05
5.34005e-05
-1.65681e-05
-5.14304e-05
6.33216e-05
6.3176e-06
5.49407e-05
1.21103e-05
5.22443e-05
1.73909e-05
5.01516e-05
2.24822e-05
4.8141e-05
2.71845e-05
4.6392e-05
3.19627e-05
4.29316e-05
3.62676e-05
4.10884e-05
4.2073e-05
3.58837e-05
4.65868e-05
3.426e-05
3.42558e-05
4.99472e-05
3.84045e-05
6.15393e-05
3.40993e-05
4.4807e-05
5.05663e-05
3.62567e-05
7.76877e-05
3.05087e-05
6.24096e-05
3.20667e-05
6.88766e-05
1.0329e-05
4.75875e-05
2.08144e-05
5.21011e-05
4.45419e-07
4.98844e-05
1.66791e-06
7.58461e-05
-2.51144e-05
5.7506e-05
-1.47197e-05
9.25515e-05
-5.16136e-05
-4.6408e-05
8.75292e-05
4.77537e-06
5.01654e-05
9.20372e-06
4.7816e-05
1.33264e-05
4.60289e-05
1.68634e-05
4.4604e-05
2.04148e-05
4.28406e-05
2.33231e-05
4.00232e-05
2.6009e-05
3.84024e-05
2.85688e-05
3.33237e-05
2.95588e-05
3.32699e-05
2.82764e-05
5.12295e-05
2.9457e-05
6.03587e-05
3.77359e-05
3.6528e-05
3.70714e-05
3.69212e-05
5.49746e-05
1.26055e-05
5.495e-05
3.20913e-05
3.90943e-05
2.61847e-05
4.79108e-05
1.19979e-05
4.96275e-05
-1.27127e-06
6.84155e-05
-1.712e-05
6.68797e-05
-2.35785e-05
7.21529e-05
-1.9993e-05
7.0521e-05
-4.99816e-05
-3.74838e-05
6.15968e-05
3.83392e-06
4.63315e-05