/*--------------------------------*- C++ -*----------------------------------*\
| =========                 |                                                 |
| \\      /  F ield         | foam-extend: Open Source CFD                    |
|  \\    /   O peration     | Version:     4.1                                |
|   \\  /    A nd           | Web:         http://www.foam-extend.org         |
|    \\/     M anipulation  |                                                 |
\*---------------------------------------------------------------------------*/
FoamFile
{
    version     2.0;
    format      ascii;
    class       surfaceScalarField;
    location    "0.6";
    object      phi_0;
}
// * * * * * * * * * * * * * * * * * * * * * * * * * * * * * * * * * * * * * //

dimensions      [0 3 -1 0 0 0 0];

internalField   nonuniform List<scalar> 
4432
(
2.05503e-06
-2.05503e-06
2.83412e-06
-7.79096e-07
3.73742e-06
-9.03296e-07
4.47009e-06
-7.32675e-07
4.86689e-06
-3.96793e-07
4.35829e-06
5.08601e-07
3.79376e-06
5.64525e-07
2.9091e-06
8.84656e-07
1.1988e-06
1.7103e-06
-5.763e-07
1.7751e-06
-1.08626e-06
5.09962e-07
-5.29574e-07
-5.56689e-07
1.71802e-07
-7.01376e-07
7.06026e-07
-5.34224e-07
8.35213e-07
-1.29188e-07
8.57536e-07
-2.2323e-08
3.68191e-07
4.89344e-07
-5.00989e-07
8.6918e-07
-1.60531e-06
1.10432e-06
-3.35568e-07
-1.26975e-06
-8.83534e-07
5.47966e-07
-7.17395e-07
-1.66138e-07
-7.17394e-07
1.88504e-06
-3.94007e-06
2.86117e-06
-1.75523e-06
3.91545e-06
-1.95757e-06
4.57907e-06
-1.3963e-06
4.81491e-06
-6.32631e-07
4.44865e-06
8.74856e-07
4.05862e-06
9.5456e-07
3.10508e-06
1.83819e-06
2.23777e-06
2.5776e-06
3.51418e-06
4.987e-07
2.4277e-06
1.59643e-06
2.22125e-06
-3.50241e-07
2.28044e-06
-7.60566e-07
2.47848e-06
-7.32262e-07
2.42239e-06
-7.30984e-08
2.46021e-06
-6.01456e-08
1.28273e-06
1.66683e-06
1.22929e-06
9.22617e-07
4.82335e-07
1.85128e-06
-3.18016e-07
-4.69394e-07
-1.02899e-06
1.25894e-06
2.43368e-07
-1.43849e-06
-4.74026e-07
1.4584e-06
-5.39847e-06
2.79208e-06
-3.08892e-06
4.19749e-06
-3.36298e-06
4.70595e-06
-1.90476e-06
5.01215e-06
-9.38835e-07
4.95567e-06
9.31336e-07
4.54098e-06
1.36925e-06
3.63451e-06
2.74466e-06
1.98997e-06
4.22215e-06
1.3835e-06
1.10516e-06
7.6973e-08
2.90296e-06
-1.25656e-07
-1.47613e-07
-4.52958e-07
-4.33265e-07
-7.38832e-07
-4.46389e-07
-6.44635e-07
-1.67296e-07
-1.05718e-07
-5.99064e-07
6.42804e-07
9.18305e-07
1.14404e-06
4.21382e-07
6.59752e-07
2.33557e-06
4.79853e-07
-2.89494e-07
-1.31517e-06
3.05396e-06
-2.59846e-08
-2.72767e-06
-5.0001e-07
1.24661e-06
-6.64507e-06
2.98065e-06
-4.82296e-06
4.53895e-06
-4.92128e-06
5.1555e-06
-2.52131e-06
5.63881e-06
-1.42215e-06
5.14032e-06
1.42983e-06
4.1321e-06
2.37747e-06
3.33801e-06
3.53875e-06
4.48199e-06
3.07817e-06
1.3848e-06
4.20235e-06
-1.12232e-06
5.41008e-06
-4.38494e-06
3.11501e-06
-6.55874e-06
1.74054e-06
-7.2513e-06
2.4617e-07
-7.12965e-06
-2.8895e-07
-5.66228e-06
-2.06644e-06
-5.14342e-06
3.99443e-07
-4.68962e-06
-3.24104e-08
-3.4898e-06
1.13574e-06
-1.07495e-06
-2.70434e-06
-2.32154e-06
4.30055e-06
-5.38844e-08
-4.99533e-06
-5.53895e-07
1.47236e-06
-8.11744e-06
3.31086e-06
-6.66146e-06
4.8334e-06
-6.44382e-06
5.62356e-06
-3.31147e-06
5.83764e-06
-1.63623e-06
4.78949e-06
2.47798e-06
3.92443e-06
3.24253e-06
2.78255e-06
4.68063e-06
1.11613e-06
4.74459e-06
-2.96186e-06
8.28034e-06
-6.34917e-06
8.79739e-06
-1.01769e-05
6.94272e-06
-1.20737e-05
3.63733e-06
-1.30301e-05
1.20257e-06
-1.32208e-05
-9.82175e-08
-1.27517e-05
-2.53555e-06
-1.20109e-05
-3.41396e-07
-1.16408e-05
-4.02455e-07
-1.10993e-05
5.94245e-07
-7.38157e-06
-6.42209e-06
-3.27735e-06
1.96331e-07
-7.66401e-07
-7.50628e-06
-1.3203e-06
1.98691e-06
-1.01043e-05
3.74543e-06
-8.41998e-06
5.11264e-06
-7.81103e-06
5.76814e-06
-3.96697e-06
5.81319e-06
-1.68127e-06
4.84709e-06
3.44407e-06
3.39866e-06
4.69096e-06
2.28732e-06
5.79197e-06
-3.92432e-06
1.09562e-05
-8.60688e-06
1.29629e-05
-1.24429e-05
1.26334e-05
-1.50768e-05
9.57655e-06
-1.60929e-05
4.65348e-06
-1.62919e-05
1.40159e-06
-1.64677e-05
7.75273e-08
-1.56541e-05
-3.34917e-06
-1.61741e-05
1.78652e-07
-9.4672e-06
-7.10938e-06
-9.02119e-06
1.4824e-07
-1.16662e-05
-3.77712e-06
-4.86718e-06
-6.60264e-06
-1.35733e-06
-1.10161e-05
-2.67763e-06
2.15002e-06
-1.22544e-05
3.78756e-06
-1.00575e-05
5.00285e-06
-9.02632e-06
5.70357e-06
-4.66769e-06
5.79489e-06
-1.7726e-06
4.18911e-06
5.04986e-06
1.12195e-06
7.75812e-06
-3.95389e-06
1.08678e-05
-1.00898e-05
1.70921e-05
-1.30755e-05
1.59487e-05
-1.58652e-05
1.54231e-05
-1.7314e-05
1.10253e-05
-1.82409e-05
5.58042e-06
-1.92142e-05
2.37486e-06
-1.9336e-05
1.99387e-07
-1.80423e-05
-4.64289e-06
-1.75391e-05
-3.24546e-07
-1.83507e-05
-6.29782e-06
-1.02232e-05
-7.9792e-06
-8.40981e-06
-5.59055e-06
-6.52727e-06
-8.48518e-06
-3.56164e-06
-1.39818e-05
-6.23927e-06
1.88621e-06
-1.41406e-05
3.46115e-06
-1.16325e-05
4.74093e-06
-1.03061e-05
5.36357e-06
-5.29033e-06
5.23739e-06
-1.64642e-06
3.21116e-06
7.07609e-06
-1.0844e-06
1.20537e-05
-8.81375e-06
1.85972e-05
-1.33182e-05
2.15965e-05
-1.71297e-05
1.97602e-05
-1.95283e-05
1.78217e-05
-2.03397e-05
1.18367e-05
-2.0511e-05
5.75179e-06
-2.04385e-05
2.30237e-06
-1.96015e-05
-6.37671e-07
-1.82523e-05
-5.99208e-06
-1.06151e-05
-7.96172e-06
-1.0771e-05
-6.14191e-06
-1.10538e-05
-7.69647e-06
-1.76587e-05
1.01434e-06
-1.35205e-05
-1.26234e-05
-4.4997e-06
-2.30025e-05
-1.0739e-05
-0.000111469
0.000111469
-0.000214545
0.000103076
-0.000238443
2.38979e-05
-0.000249349
1.09061e-05
-0.000267695
1.83459e-05
-0.00027889
1.11957e-05
-0.000261973
-1.69176e-05
-0.000232356
-2.96164e-05
-0.000202908
-2.9448e-05
-0.000185833
-1.70755e-05
-0.000183641
-2.19153e-06
-0.000180133
-3.50813e-06
-0.000178727
-1.40632e-06
-0.00017039
-8.33683e-06
-0.000116129
-5.42613e-05
-9.97842e-05
-1.63446e-05
-0.000138807
3.9023e-05
-7.61385e-05
-6.26688e-05
-7.61385e-05
-9.63041e-05
0.000207773
-0.000163117
0.000169889
-0.00017979
4.05704e-05
-0.000196457
2.75738e-05
-0.000179092
9.79977e-07
-0.000177829
9.93332e-06
-0.000154293
-4.04541e-05
-0.000151299
-3.26097e-05
-0.000148771
-3.19763e-05
-0.000147728
-1.81182e-05
-0.0001598
9.88022e-06
-0.000168898
5.59023e-06
-0.000109616
-6.06888e-05
-0.000107083
-1.08694e-05
-0.000117771
-4.35735e-05
-0.000106967
-2.71492e-05
-8.1632e-05
1.36885e-05
-7.6149e-05
-6.81518e-05
-0.000152287
-6.83467e-05
0.00027612
-0.000111216
0.000212758
-0.000111389
4.07436e-05
-8.06146e-05
-3.20071e-06
-0.000103596
2.39611e-05
-6.55986e-05
-2.80638e-05
-3.78716e-05
-6.81811e-05
-2.05145e-05
-4.99668e-05
-1.18024e-05
-4.06885e-05
-3.47163e-05
4.79574e-06
-8.35721e-05
5.8736e-05
-0.000116815
3.88334e-05
-0.000148498
-2.90059e-05
-9.75941e-05
-6.17735e-05
-0.000108771
-3.23966e-05
-0.000101451
-3.44689e-05
-7.41927e-05
-1.35703e-05
-5.92636e-05
-8.30809e-05
-0.000211551
-4.79614e-05
0.000324082
-7.51474e-05
0.000239944
-8.356e-05
4.91562e-05
-9.90771e-05
1.23165e-05
-6.36838e-05
-1.14322e-05
-1.38281e-05
-7.79196e-05
9.74205e-06
-9.17512e-05
2.44306e-05
-6.46553e-05
4.39006e-05
-6.01584e-05
2.67697e-05
2.19267e-05
1.97841e-05
6.57216e-05
-1.63116e-06
6.02486e-05
-4.44703e-05
1.38333e-05
-0.000100453
-5.79082e-06
-8.52548e-05
-4.75948e-05
-0.000136573
1.68498e-05
-6.58382e-05
-8.43055e-05
-5.96673e-05
-8.92518e-05
-0.000271218
-3.47505e-05
0.000358832
-4.35152e-05
0.000248709
-4.5166e-05
5.08069e-05
-3.4794e-05
1.9445e-06
-1.32071e-05
-3.30191e-05
1.01481e-05
-0.000101275
2.67406e-05
-0.000108344
4.22838e-05
-8.01986e-05
6.63347e-05
-8.42093e-05
0.000101281
-1.30193e-05
0.000117627
4.9375e-05
5.48567e-05
0.000123019
1.41136e-05
5.45764e-05
-3.55739e-05
4.38967e-05
-6.98326e-05
-1.33362e-05
-6.59176e-05
1.29349e-05
-5.85268e-05
-9.16963e-05
-2.84936e-05
-0.000119285
-0.000299712
-1.96884e-05
0.000378521
-1.13133e-05
0.000240334
-3.22694e-05
7.1763e-05
-2.17009e-05
-8.62404e-06
1.16929e-05
-6.64129e-05
2.37486e-05
-0.000113331
5.2344e-05
-0.000136939
5.9412e-05
-8.72665e-05
7.61793e-05
-0.000100977
0.00010093
-3.77698e-05
6.39271e-05
8.63777e-05
5.26293e-05
0.000134317
1.22337e-05
9.4972e-05
-5.93106e-05
0.000115441
-6.11521e-05
-1.14947e-05
-5.44113e-05
6.19405e-06
-4.19022e-05
-0.000104205
-1.84034e-05
-0.000142784
-0.000318115
-1.06861e-05
0.000389207
6.92567e-06
0.000222722
-9.19321e-06
8.7882e-05
-5.62579e-06
-1.21915e-05
2.63055e-05
-9.83442e-05
2.51599e-05
-0.000112185
3.11168e-05
-0.000142896
6.58714e-05
-0.000122021
7.71325e-05
-0.000112238
0.000101825
-6.24626e-05
0.000103441
8.47616e-05
9.67525e-05
0.000141006
5.20153e-05
0.000139709
-1.9554e-06
0.000169412
-2.62935e-05
1.28434e-05
-3.56679e-05
1.55684e-05
-5.45474e-05
-8.53259e-05
-2.59149e-05
-0.000171416
-0.00034403
2.80599e-07
0.000388926
3.46699e-05
0.000188332
3.75295e-05
8.50224e-05
2.43745e-05
9.63437e-07
2.07112e-05
-9.46808e-05
3.01926e-05
-0.000121666
3.43854e-05
-0.000147089
6.07035e-05
-0.000148339
7.06497e-05
-0.000122184
5.76203e-05
-4.94332e-05
5.5975e-05
8.64069e-05
7.91238e-05
0.000117857
6.72991e-05
0.000151534
4.07149e-05
0.000195996
-3.99961e-06
5.75579e-05
-1.80783e-05
2.9647e-05
-2.11787e-05
-8.22254e-05
-1.19908e-05
-0.000180604
-0.000356021
2.15053e-06
-1.62911e-05
3.89451e-06
-1.33764e-05
5.20216e-06
-1.16138e-05
6.23671e-06
-6.32487e-06
3.6753e-06
9.14989e-07
-6.51968e-06
1.72711e-05
-2.00318e-05
2.55658e-05
-2.91552e-05
2.77205e-05
-3.69134e-05
2.93547e-05
-4.17559e-05
2.46027e-05
-4.53306e-05
2.13964e-05
-4.50719e-05
1.15779e-05
-4.78604e-05
8.54036e-06
-4.76003e-05
2.0422e-06
-4.51088e-05
-3.12915e-06
-4.22199e-05
-8.88097e-06
-4.22843e-05
-7.89736e-06
-3.84266e-05
-9.9996e-06
-3.82742e-05
-7.84882e-06
-2.50642e-05
-1.21956e-05
-2.14258e-05
-1.62618e-05
-2.51383e-05
-1.92901e-05
-3.10074e-05
-4.86983e-06
-5.94418e-06
-1.03469e-05
-1.12164e-05
-8.10423e-06
-1.7821e-05
-5.00908e-06
-2.76176e-05
3.47168e-06
-5.75726e-05
3.08701e-05
-6.2572e-05
2.22704e-05
-6.69658e-05
2.99597e-05
-5.60964e-05
1.68511e-05
-4.72531e-05
2.05114e-05
-4.68475e-05
2.41971e-05
-4.85809e-05
2.31299e-05
-4.82634e-05
1.12604e-05
-4.45227e-05
4.79966e-06
-4.21052e-05
-3.75346e-07
-3.93645e-05
-5.86983e-06
-3.73459e-05
-1.08995e-05
-3.30408e-05
-1.22025e-05
-3.49553e-05
-8.08509e-06
-1.91118e-05
-2.36923e-05
-2.13006e-05
-1.00069e-05
-2.45883e-05
-1.2974e-05
-2.57597e-05
-1.81187e-05
-1.09103e-05
-4.58568e-05
-1.45561e-05
4.2092e-06
-3.09969e-05
8.33663e-06
-6.44101e-05
2.84041e-05
-8.50525e-05
2.41142e-05
-7.15632e-05
1.73807e-05
-7.00843e-05
2.07915e-05
-6.24086e-05
2.22841e-05
-7.72322e-05
3.16747e-05
-6.89689e-05
1.22481e-05
-5.56007e-05
1.08289e-05
-3.54633e-05
2.99238e-06
-4.92751e-05
2.50723e-05
-4.31385e-05
-1.33695e-06
-4.10133e-05
-2.50058e-06
-3.96204e-05
-7.26274e-06
-3.62514e-05
-1.42685e-05
-3.42751e-05
-1.41789e-05
-1.90689e-05
-2.32913e-05
-3.30288e-05
-9.73236e-06
-2.36818e-05
-1.9354e-05
-2.20166e-05
-1.46391e-05
-2.3515e-05
-1.66204e-05
-7.18832e-06
-2.7237e-05
-3.64617e-05
4.0671e-05
-7.17861e-05
4.36611e-05
-9.63235e-05
5.29415e-05
-0.00011447
4.22611e-05
-0.00010157
4.48006e-06
-9.06588e-05
9.8806e-06
-8.00676e-05
1.16929e-05
-9.02688e-05
4.1876e-05
-9.00186e-05
1.19979e-05
-8.4876e-05
5.68627e-06
-7.71365e-05
-4.74702e-06
-4.89398e-05
-3.12437e-06
-5.77334e-05
7.4566e-06
-5.04337e-05
-9.80028e-06
-5.18833e-05
-5.81313e-06
-4.8656e-05
-1.74958e-05
-4.8591e-05
-1.42438e-05
-4.49908e-05
-2.68915e-05
-4.14214e-05
-1.33017e-05
-4.76673e-05
-1.31081e-05
-4.62491e-05
-1.60574e-05
-4.47946e-05
-1.80749e-05
-6.96446e-06
-4.50184e-05
-3.77235e-05
7.83945e-05
-6.95221e-05
7.54598e-05
-5.88187e-05
4.22381e-05
-8.11291e-05
6.45715e-05
-0.000101391
2.47423e-05
-0.000138652
4.71417e-05
-0.000139482
1.2522e-05
-0.00013034
3.2734e-05
-0.000129273
1.09311e-05
-0.000124513
9.26373e-07
-0.00011077
-1.84899e-05
-0.000103492
-1.04029e-05
-9.55138e-05
-5.2116e-07
-9.11008e-05
-1.42133e-05
-5.79233e-05
-3.89906e-05
-5.10258e-05
-2.43933e-05
-4.07776e-05
-2.4492e-05
-6.1549e-05
-6.12005e-06
-7.45416e-05
-3.09139e-07
-5.95975e-05
-2.80522e-05
-4.589e-05
-2.97648e-05
-5.53416e-05
-8.62333e-06
-1.39276e-05
-4.83785e-05
-3.38278e-05
0.000112222
-6.4403e-05
0.000106035
-0.000109421
8.72562e-05
-8.31469e-05
3.82974e-05
-8.76136e-05
2.92089e-05
-7.37934e-05
3.33215e-05
-0.000105817
4.45454e-05
-0.00010139
2.83068e-05
-9.82608e-05
7.80225e-06
-7.6352e-05
-2.09824e-05
-0.000103111
8.26944e-06
-0.000105229
-8.28543e-06
-6.89267e-05
-3.68233e-05
-7.99204e-05
-3.21956e-06
-0.000102312
-1.65986e-05
-0.000140944
1.42385e-05
-0.000174025
8.5891e-06
-0.000176535
-3.6101e-06
-0.000148695
-2.81489e-05
-0.000147128
-2.96192e-05
-0.000161912
-1.49815e-05
-0.000135884
-3.46513e-05
-4.5188e-05
-0.000104623
-4.71407e-05
0.000159363
-3.46809e-05
9.35752e-05
-7.61061e-05
0.000128681
-0.00011649
7.86814e-05
-0.000122929
3.56478e-05
-0.000117485
2.78775e-05
-0.000112062
3.91225e-05
-0.000101401
1.7645e-05
-0.000106202
1.2604e-05
-0.000120977
-6.20814e-06
-0.000124978
1.22707e-05
-0.000159593
2.63292e-05
-0.000236132
3.97165e-05
-0.000292308
5.29565e-05
-0.000343558
3.46511e-05
-0.000379984
5.06642e-05
-0.000422716
5.13216e-05
-0.000410077
-1.62494e-05
-0.000382739
-5.54871e-05
-0.000320627
-9.17312e-05
-0.000283306
-5.23023e-05
-0.000264464
-5.34936e-05
-5.27629e-05
-0.000256889
-1.0077e-05
0.00016944
-2.0661e-05
0.000104159
-5.96351e-05
0.000167655
-8.15326e-05
0.000100579
-0.000105881
5.99965e-05
-9.6191e-05
1.8187e-05
-5.96552e-05
2.58667e-06
-5.35953e-05
1.15851e-05
-8.2129e-05
4.11376e-05
-0.00018402
9.56833e-05
-0.000269893
9.81432e-05
-0.000339663
9.60992e-05
-0.000361787
6.18404e-05
-0.000375674
6.68439e-05
-0.000382291
4.12675e-05
-0.000342443
1.08168e-05
-0.000262999
-2.81225e-05
-0.000246822
-3.24261e-05
-0.000257298
-4.50112e-05
-0.000323493
-2.55361e-05
-0.000340893
-3.49023e-05
-0.000355591
-3.87958e-05
-5.63503e-05
-0.000352004
3.6399e-06
0.0001658
1.21826e-06
0.00010658
-2.37354e-05
0.000192609
-7.37217e-05
0.000150565
-7.11066e-05
5.73813e-05
-0.000146018
9.30981e-05
-0.000229911
8.648e-05
-0.00034164
0.000123314
-0.000445285
0.000144782
-0.000467066
0.000117465
-0.000491989
0.000123066
-0.000523946
0.000128057
-0.000503608
4.15022e-05
-0.000444278
7.51333e-06
-0.000396086
-6.92398e-06
-0.000369492
-1.57775e-05
-0.000371892
-2.57224e-05
-0.000362744
-4.15743e-05
-0.000356013
-5.17417e-05
-0.000341034
-4.05154e-05
-0.000312644
-6.32924e-05
-0.000256827
-9.46131e-05
-6.55424e-05
-0.000247635
2.81382e-05
0.000137662
1.60366e-05
0.000118682
-2.1953e-05
0.000230598
-7.15013e-05
0.000200113
-0.000126216
0.000112096
-0.00019829
0.000165172
-0.000276635
0.000164825
-0.000349798
0.000196478
-0.000408431
0.000203415
-0.000445753
0.000154786
-0.000468309
0.000145622
-0.000420128
7.98754e-05
-0.000394628
1.60031e-05
-0.00039322
6.10473e-06
-0.000396754
-3.39015e-06
-0.000387527
-2.5004e-05
-0.000362447
-5.0803e-05
-0.00034057
-6.3451e-05
-0.000318339
-7.39728e-05
-0.000308561
-5.02929e-05
-0.000306245
-6.56082e-05
-0.000329898
-7.09601e-05
-6.94515e-05
-0.000325989
7.58577e-05
6.18038e-05
8.25516e-05
0.000111988
3.61433e-05
0.000277007
-2.08682e-05
0.000257125
-0.000111911
0.000203139
-0.000133658
0.000186918
-0.000120997
0.000152164
-8.16391e-05
0.000157121
-8.01879e-05
0.000201963
-0.000104196
0.000178794
-9.07318e-05
0.000132158
-0.000112709
0.000101852
-0.000181674
8.49685e-05
-0.000246751
7.11819e-05
-0.000285488
3.53469e-05
-0.000294845
-1.56476e-05
-0.000300065
-4.55825e-05
-0.000306312
-5.72041e-05
-0.000306714
-7.3571e-05
-0.000277197
-7.98096e-05
-0.000251946
-9.08591e-05
-0.000236139
-8.67678e-05
-9.23921e-05
-0.000213198
0.000108083
-4.62793e-05
9.44126e-05
0.000125658
4.18734e-05
0.000329546
-1.41858e-05
0.000313184
-3.30915e-05
0.000222045
-5.80571e-05
0.000211884
-0.000171275
0.000265381
-0.000303151
0.000288997
-0.000349311
0.000248123
-0.000370073
0.000199556
-0.000372029
0.000134114
-0.000375979
0.000105802
-0.000357377
6.6367e-05
-0.000326774
4.0579e-05
-0.000279613
-1.1814e-05
-0.00021709
-7.81706e-05
-0.000166644
-9.60293e-05
-0.00013767
-8.6178e-05
-0.000128055
-8.3186e-05
-0.000130125
-7.77394e-05
-0.000143061
-7.79231e-05
-0.000149395
-8.04334e-05
-8.21604e-05
-0.000159627
6.44377e-05
-0.000110717
2.08813e-05
0.000169215
-6.2176e-06
0.000356645
-5.54678e-05
0.000362434
-0.00015812
0.000324698
-0.000309795
0.000363558
-0.000399539
0.000355125
-0.000419081
0.000308539
-0.000392287
0.000221329
-0.000375154
0.000182423
-0.000340809
9.9769e-05
-0.000298642
6.36346e-05
-0.000221434
-1.08408e-05
-0.000136776
-4.40789e-05
-6.84832e-05
-8.0107e-05
-3.77008e-05
-0.000108953
-3.35426e-05
-0.000100188
-3.41816e-05
-8.5539e-05
-4.61386e-05
-7.1229e-05
-5.70787e-05
-6.67993e-05
-6.66984e-05
-6.83034e-05
-7.64157e-05
-7.07161e-05
-6.60573e-05
-9.25188e-05
-9.81939e-05
-1.2523e-05
-0.000148657
0.000219678
-0.000157378
0.000365365
-0.000205461
0.000410517
-0.000334618
0.000453855
-0.000215703
0.000244642
-0.000252198
0.000391621
-0.000235227
0.000291568
-0.000250007
0.000236109
-0.000200122
0.000132538
-0.000159333
5.89794e-05
-9.97283e-05
4.03029e-06
-3.62948e-05
-7.42742e-05
1.87757e-07
-8.05614e-05
4.59106e-06
-8.45103e-05
-3.46984e-05
-6.96636e-05
-7.31789e-05
-6.17071e-05
-0.000118643
-4.00746e-05
-0.000171403
-1.84689e-05
-0.00021226
-2.5943e-05
-0.000216587
-6.39762e-05
-0.000192818
-9.44849e-05
-7.2167e-05
-0.000186708
-0.000187936
0.000175413
-0.000303789
0.000335531
-0.000302526
0.000364102
-0.000278524
0.000386515
-0.000200082
0.000375413
-0.000349409
0.00039397
-0.000277869
0.00032008
-0.000287921
0.00030162
-0.000215949
0.000164137
-0.00011244
2.90293e-05
-7.27272e-05
1.92665e-05
-3.60552e-05
-3.26416e-05
-1.47506e-05
-9.55787e-05
1.20617e-06
-9.65181e-05
4.38024e-06
-8.76844e-05
-7.74146e-06
-5.75419e-05
-1.75371e-05
-5.19114e-05
-2.26805e-05
-3.49311e-05
-1.49651e-05
-2.61843e-05
-4.07792e-05
-1.28807e-07
-7.78021e-05
-2.69532e-05
-8.87423e-05
-8.35448e-05
-7.94356e-05
-8.14737e-05
-0.000137705
0.000313118
-0.000221959
0.000419786
-0.000290984
0.000433126
-0.000303756
0.000399287
-0.000338485
0.000410142
-0.000355789
0.000411274
-0.000349413
0.000313704
-0.000280002
0.000232209
-0.00016898
5.31149e-05
-0.000127953
-1.19978e-05
-5.48705e-05
-5.3816e-05
2.21683e-07
-8.77337e-05
2.5498e-05
-0.000120855
4.092e-05
-0.00011194
3.87447e-05
-8.5509e-05
2.93787e-05
-4.81759e-05
2.0161e-05
-4.26937e-05
1.88261e-05
-3.35962e-05
2.2986e-05
-3.03443e-05
3.80844e-05
-1.52271e-05
5.88023e-05
-4.76711e-05
3.18196e-05
-5.6562e-05
-5.33708e-05
5.75483e-06
-0.000146632
0.00045975
-0.000233583
0.000506736
-0.000289913
0.000489457
-0.000225408
0.000334782
-0.000297387
0.000482121
-0.000293283
0.000407171
-0.00024245
0.00026287
-0.000130519
0.000120279
-8.07896e-05
3.38504e-06
5.84026e-07
-9.33715e-05
3.11711e-05
-8.4403e-05
2.71695e-05
-8.37321e-05
4.12399e-05
-0.000134925
4.90346e-05
-0.000119735
4.51763e-05
-8.16507e-05
4.09074e-05
-4.39069e-05
3.90099e-05
-4.07961e-05
3.88097e-05
-3.3396e-05
6.36645e-05
-5.51991e-05
7.64275e-05
-2.79901e-05
8.37108e-05
-5.49543e-05
6.68752e-05
-3.97263e-05
-3.92313e-05
5.27358e-05
-0.000134292
0.000594042
-0.000204085
0.000576529
-0.000224418
0.00050979
-0.000189846
0.00030021
-0.000162547
0.000454822
-0.000153217
0.000397841
-9.51962e-05
0.00020485
-2.2818e-05
4.79006e-05
6.0021e-05
-7.94538e-05
5.01808e-05
-8.35312e-05
3.7774e-05
-7.19962e-05
8.62922e-05
-0.00013225
5.54558e-05
-0.000104089
5.35796e-05
-0.000117859
4.83029e-05
-7.6374e-05
4.52431e-05
-4.08471e-05
5.57233e-05
-5.12763e-05
6.25704e-05
-4.02431e-05
3.62024e-05
-2.88311e-05
5.0424e-05
-4.22117e-05
5.15275e-05
-5.60577e-05
8.22661e-05
-7.04648e-05
-3.66442e-05
7.96791e-05
-0.00011537
0.000709412
-0.000218862
0.000680022
-8.10972e-05
0.000372024
-0.000170861
0.000389975
-0.000110011
0.000393972
-2.09449e-05
0.000308775
3.93205e-05
0.000144584
8.60647e-05
1.15642e-06
8.00556e-05
-7.34446e-05
0.000120235
-0.00012371
0.000169109
-0.00012087
0.000122363
-8.55044e-05
0.000135077
-0.000116803
9.61754e-05
-7.8957e-05
6.32662e-05
-4.34648e-05
7.59667e-05
-5.35476e-05
7.41085e-05
-4.9418e-05
6.18366e-05
-2.79713e-05
7.85639e-05
-4.55583e-05
7.96026e-05
-4.32503e-05
7.65102e-05
-5.29654e-05
7.03112e-05
-6.42658e-05
-5.07397e-05
8.44067e-05
-4.71539e-05
0.000756566
-4.96338e-05
0.000682502
-1.35077e-05
0.000335898
6.6696e-06
0.000369797
4.9602e-05
0.000351039
0.000211551
0.000146825
0.000270762
8.53737e-05
0.000274504
-2.58569e-06
0.000279205
-7.81452e-05
0.000251608
-9.61141e-05
0.000179411
-4.86724e-05
0.000148648
-5.47418e-05
8.0339e-05
-4.84942e-05
7.2841e-05
-7.1459e-05
9.50373e-05
-6.56611e-05
7.43983e-05
-3.29086e-05
7.52127e-05
-5.02325e-05
8.02517e-05
-3.30102e-05
9.00785e-05
-5.53851e-05
7.77247e-05
-3.08965e-05
8.22672e-05
-5.75078e-05
8.63056e-05
-6.83042e-05
-5.78123e-05
9.33782e-05
1.91759e-05
0.00073739
6.90974e-05
0.000632581
1.08792e-05
0.000394116
0.000181432
0.000199244
0.000190928
0.000341543
0.000217419
0.000120334
0.000223374
7.94186e-05
0.000263735
-4.29464e-05
0.000227929
-4.23393e-05
0.000164656
-3.28408e-05
0.00017618
-6.01965e-05
0.00015891
-3.74724e-05
0.000152068
-4.16522e-05
0.000130197
-4.95877e-05
0.000108532
-4.39958e-05
0.000109133
-3.35099e-05
9.58713e-05
-3.69706e-05
9.96776e-05
-3.68164e-05
6.28285e-05
-1.8536e-05
9.48386e-05
-6.29065e-05
7.98095e-05
-4.24786e-05
4.63085e-05
-3.48032e-05
-6.07168e-05
4.9213e-05
2.4945e-05
0.000712445
0.000174257
0.000483269
0.000128107
0.000440265
0.000171265
0.000156086
0.000233021
0.000279788
0.000265718
8.76374e-05
0.000342788
2.34848e-06
0.000315514
-1.56723e-05
0.000286796
-1.36211e-05
0.000257735
-3.78016e-06
0.000208738
-1.11991e-05
0.000194346
-2.30801e-05
0.000175236
-2.2542e-05
0.000167377
-4.1729e-05
0.000147386
-2.40052e-05
0.000136174
-2.22973e-05
0.000121054
-2.18512e-05
0.00010381
-1.95718e-05
9.70373e-05
-1.17633e-05
8.66091e-05
-5.24783e-05
9.30553e-05
-4.89247e-05
0.000103243
-4.49908e-05
-6.29297e-05
0.000105456
9.65089e-05
0.000615937
0.000267911
0.000311867
0.00033309
0.000375086
0.000217119
0.000272058
0.000330901
0.000166005
0.000332081
8.64574e-05
0.000304677
2.97525e-05
0.000256413
3.25919e-05
0.000166564
7.62282e-05
0.000147385
1.53984e-05
0.000167054
-3.08678e-05
0.000143523
4.50664e-07
0.000127749
-6.76792e-06
8.79497e-05
-1.92934e-06
7.94036e-05
-1.54591e-05
7.6266e-05
-1.91597e-05
7.75978e-05
-2.31829e-05
7.60808e-05
-1.80548e-05
0.000103796
-3.94784e-05
9.75429e-05
-4.62252e-05
9.24159e-05
-4.37976e-05
8.94025e-05
-4.19773e-05
-4.25323e-05
6.90051e-05
0.000153504
0.000462433
0.000173171
0.000292199
0.000334417
0.000213841
0.000326386
0.000280088
0.000286677
0.000205714
0.000278898
9.4237e-05
0.000189536
0.000119114
0.000180342
4.17866e-05
0.000234861
2.17095e-05
0.000213436
3.68231e-05
0.000173102
9.46586e-06
0.000169903
3.64984e-06
0.000158805
4.33047e-06
0.000151354
5.52181e-06
0.000140321
-4.42675e-06
0.000146395
-2.52333e-05
0.000130732
-7.52037e-06
0.000114562
-1.88405e-06
0.0001143
-3.92168e-05
0.000120991
-5.29158e-05
0.000108088
-3.08953e-05
0.000104829
-3.87175e-05
-1.53064e-05
7.76027e-05
0.000146795
0.000315638
0.000160088
0.000278905
0.000162424
0.000211506
0.00029546
0.000147052
0.00027605
0.000225123
0.000257375
0.000112912
0.000279517
9.69721e-05
0.000253154
6.81501e-05
0.000217207
5.7657e-05
0.00021861
3.54199e-05
0.000183369
4.47061e-05
0.000172631
1.43885e-05
0.000154607
2.23547e-05
0.000138488
2.16404e-05
0.000127941
6.12048e-06
9.94846e-05
3.22308e-06
0.00010164
-9.67545e-06
0.00011945
-1.96941e-05
9.83936e-05
-1.81607e-05
6.67553e-05
-2.12774e-05
7.49683e-05
-3.91084e-05
6.70646e-05
-3.08137e-05
-2.74284e-05
7.91865e-05
6.21816e-05
0.000253457
0.000126622
0.000214465
0.000150293
0.000187835
0.000130779
0.000166566
0.000225883
0.000130019
0.000222567
0.000116228
0.000218222
0.000101317
0.000204783
8.15898e-05
0.000205302
5.71381e-05
0.000195156
4.55654e-05
0.000176099
6.37636e-05
0.000164548
2.59393e-05
0.000150633
3.6269e-05
0.000135366
3.69074e-05
0.000128756
1.27305e-05
8.75805e-05
4.4399e-05
6.92099e-05
8.69519e-06
5.28734e-05
-3.35755e-06
6.16161e-05
-2.69033e-05
7.34795e-05
-3.31408e-05
6.84739e-05
-3.41028e-05
6.83428e-05
-3.06827e-05
-3.55281e-05
7.64425e-05
5.31285e-05
0.000200328
9.71564e-05
0.000170437
0.000124925
0.000160066
0.00014933
0.000142162
0.00015266
0.000126688
0.000164313
0.000104576
0.000169669
9.59615e-05
0.000171631
7.96273e-05
0.000163551
6.52179e-05
0.000158387
5.07293e-05
0.000149099
7.3052e-05
0.000142966
3.20722e-05
0.000133135
4.61005e-05
0.000125939
4.41027e-05
8.83628e-05
5.03069e-05
9.41388e-05
3.86231e-05
9.13076e-05
1.15264e-05
9.92253e-05
-1.12752e-05
8.9346e-05
-1.7024e-05
6.90055e-05
-1.28004e-05
7.60745e-05
-4.11719e-05
7.48532e-05
-2.94614e-05
-3.63668e-05
7.56919e-05
3.17142e-05
0.000168614
4.63368e-05
0.000155814
6.48219e-05
0.000141581
8.07065e-05
0.000126277
0.00010989
9.75055e-05
0.000120604
9.38615e-05
0.000129846
8.6719e-05
0.000137248
7.22253e-05
0.000139231
6.32347e-05
0.000137953
5.20078e-05
0.00012704
8.39647e-05
0.000123474
3.56381e-05
0.000135225
3.43494e-05
0.000131644
4.76844e-05
0.000134721
4.72302e-05
0.000153904
1.94399e-05
0.000138835
2.65951e-05
0.000125642
1.91821e-06
0.000116262
-7.64452e-06
0.000114835
-1.13733e-05
8.80135e-05
-1.43504e-05
8.86958e-05
-3.01437e-05
-2.62185e-05
7.85475e-05
2.93545e-05
0.00013926
5.41746e-05
0.000130994
7.71885e-05
0.000118567
9.17158e-05
0.00011175
9.84301e-05
9.07914e-05
0.000106064
8.62276e-05
0.00011309
7.96928e-05
0.000117835
6.74805e-05
0.000120954
6.01156e-05
0.000122077
5.08846e-05
0.000117831
8.82106e-05
0.000117787
3.56824e-05
0.00011884
3.32965e-05
0.000123932
4.25924e-05
0.000126186
4.49763e-05
0.000128458
1.71683e-05
0.000117751
3.73017e-05
0.000113111
6.55819e-06
0.000103697
1.76991e-06
9.45907e-05
-2.26726e-06
7.78666e-05
2.37369e-06
8.76733e-05
-3.99504e-05
-2.52263e-05
8.6681e-05
2.18594e-05
0.0001174
4.11737e-05
0.00011168
5.91643e-05
0.000100577
7.52001e-05
9.57143e-05
8.06313e-05
8.53601e-05
8.83865e-05
7.84723e-05
9.52243e-05
7.28548e-05
9.97692e-05
6.29355e-05
0.000102707
5.71782e-05
0.000105789
4.78017e-05
0.000107324
8.66764e-05
0.000106775
3.6231e-05
0.000108214
3.18583e-05
0.000112597
3.82089e-05
0.000113087
4.44867e-05
7.77257e-05
5.25293e-05
9.81849e-05
1.68426e-05
0.000103044
1.69934e-06
0.000110651
-5.83783e-06
0.000106379
2.00562e-06
0.000111414
-2.66207e-06
8.17684e-05
-1.03045e-05
-3.53905e-05
9.19326e-05
1.65517e-05
0.000100848
3.22906e-05
9.59409e-05
4.54629e-05
8.74046e-05
5.79879e-05
8.31891e-05
6.57693e-05
7.75786e-05
7.33823e-05
7.08592e-05
8.01707e-05
6.60663e-05
8.47914e-05
5.83148e-05
8.82762e-05
5.36934e-05
9.05162e-05
4.55618e-05
9.32902e-05
8.39025e-05
9.04672e-05
3.90541e-05
8.80816e-05
3.42439e-05
6.78704e-05
5.84201e-05
7.18433e-05
4.05139e-05
7.18145e-05
5.25581e-05
8.26269e-05
6.03016e-06
7.67653e-05
7.56089e-06
5.96087e-05
1.13188e-05
6.46508e-05
-3.03651e-06
7.22887e-05
-1.03e-05
8.87077e-05
-2.67235e-05
-3.23908e-05
8.5708e-05
1.33914e-05
8.74572e-05
2.63967e-05
8.29356e-05
3.70969e-05
7.67042e-05
4.72926e-05
7.29932e-05
5.56929e-05
6.91781e-05
6.27654e-05
6.37866e-05
6.90123e-05
5.98193e-05
7.31414e-05
5.41857e-05
7.71311e-05
4.97037e-05
7.84127e-05
4.42803e-05
8.238e-05
7.99353e-05
7.95429e-05
4.18913e-05
7.8147e-05
3.56399e-05
6.19165e-05
7.46506e-05
7.22763e-05
3.01542e-05
0.000104385
2.04498e-05
9.80532e-05
1.23615e-05
6.9509e-05
3.61052e-05
7.38104e-05
7.01736e-06
9.8489e-05
-2.77151e-05
9.35595e-05
-5.37058e-06
7.43958e-05
-7.55979e-06
-4.35253e-05
8.55303e-05
1.08489e-05
7.66082e-05
2.13697e-05
7.24145e-05
3.01255e-05
6.79482e-05
3.81763e-05
6.49422e-05
4.54234e-05
6.19309e-05
5.16428e-05
5.75672e-05
5.72594e-05
5.42027e-05
6.13231e-05
5.01221e-05
6.50193e-05
4.60076e-05
6.72158e-05
4.20839e-05
7.3575e-05
7.35761e-05
7.56698e-05
3.97966e-05
8.30267e-05
2.82829e-05
9.47299e-05
6.29474e-05
9.21398e-05
3.27443e-05
8.63131e-05
2.62765e-05
5.94344e-05
3.92402e-05
8.85338e-05
7.00578e-06
9.25717e-05
2.97935e-06
7.18306e-05
-6.97395e-06
0.000102449
-3.59889e-05
0.000117348
-2.2459e-05
-4.19067e-05
0.000115729
9.14645e-06
6.74616e-05
1.78658e-05
6.36949e-05
2.54013e-05
6.04125e-05
3.24895e-05
5.7854e-05
3.90409e-05
5.53795e-05
4.50178e-05
5.15904e-05
5.04186e-05
4.8802e-05
5.54172e-05
4.51237e-05
5.96953e-05
4.17296e-05
6.24173e-05
3.9362e-05
6.87509e-05
6.72425e-05
6.1406e-05
4.71415e-05
4.64255e-05
4.32634e-05
5.10448e-05
5.8328e-05
4.28245e-05
4.09645e-05
4.98868e-05
1.92142e-05
8.44694e-05
4.65748e-06
9.07319e-05
7.43282e-07
0.000100235
-6.52374e-06
0.000105236
-1.19751e-05
0.000104129
-3.48822e-05
0.000101186
-1.95161e-05
-4.13175e-05
0.000100597
7.30534e-06
6.01561e-05
1.40499e-05
5.69503e-05
2.00242e-05
5.44382e-05
2.55634e-05
5.23149e-05
3.06779e-05
5.02651e-05
3.52876e-05
4.69808e-05
3.93262e-05
4.47636e-05
4.3301e-05
4.1149e-05
4.66748e-05
3.83558e-05
4.87951e-05
3.72417e-05
5.08118e-05
6.52258e-05
5.77368e-05
4.02165e-05
4.85435e-05
5.24566e-05
4.9451e-05
5.74204e-05
7.36696e-05
1.67459e-05
7.60834e-05
1.68003e-05
8.122e-05
-4.79127e-07
7.69251e-05
5.03812e-06
7.11006e-05
-6.99309e-07
5.82389e-05
8.8663e-07
5.632e-05
-3.29633e-05
5.32747e-05
-1.64708e-05
-5.12794e-05
6.32366e-05
6.17367e-06
5.39824e-05
1.18263e-05
5.12977e-05
1.69942e-05
4.92704e-05
2.19876e-05
4.73217e-05
2.66157e-05
4.56371e-05
3.13307e-05
4.22659e-05
3.55998e-05
4.04945e-05
4.13598e-05
3.5389e-05
4.58417e-05
3.38739e-05
3.36702e-05
4.94132e-05
3.78813e-05
6.10146e-05
3.36959e-05
4.44017e-05
5.00937e-05
3.60587e-05
7.71296e-05
3.03844e-05
6.19412e-05
3.19342e-05
6.84929e-05
1.02485e-05
4.73832e-05
2.06305e-05
5.19008e-05
5.20455e-07
4.96775e-05
1.52394e-06
7.56126e-05
-2.50485e-05
5.73138e-05
-1.46645e-05
9.23204e-05
-5.14774e-05
-4.62806e-05
8.73216e-05
4.67071e-06
4.93117e-05
8.9982e-06
4.69704e-05
1.30356e-05
4.52332e-05
1.65006e-05
4.38567e-05
1.99955e-05
4.21423e-05
2.28575e-05
3.94039e-05
2.55199e-05
3.78322e-05
2.80461e-05
3.28627e-05
2.90616e-05
3.28584e-05
2.78072e-05
5.06675e-05
2.90656e-05
5.97561e-05
3.73227e-05
3.61445e-05
3.67238e-05
3.66575e-05
5.45679e-05
1.25403e-05
5.46175e-05
3.18845e-05
3.88944e-05
2.59716e-05
4.76661e-05
1.18587e-05
4.94221e-05
-1.23563e-06
6.80558e-05
-1.71098e-05
6.65683e-05
-2.35609e-05
7.18738e-05
-1.99701e-05
7.03267e-05
-4.99304e-05
-3.74059e-05
6.14521e-05