/*--------------------------------*- C++ -*----------------------------------*\
| =========                 |                                                 |
| \\      /  F ield         | foam-extend: Open Source CFD                    |
|  \\    /   O peration     | Version:     4.1                                |
|   \\  /    A nd           | Web:         http://www.foam-extend.org         |
|    \\/     M anipulation  |                                                 |
\*---------------------------------------------------------------------------*/
FoamFile
{
    version     2.0;
    format      ascii;
    class       volScalarField;
    location    "0.6";
    object      psi;
}
// * * * * * * * * * * * * * * * * * * * * * * * * * * * * * * * * * * * * * //

dimensions      [1 -1 -2 0 0 0 0];

internalField   nonuniform List<scalar> 
2268
(
0.136038
0.134366
0.119768
0.116992
0.107025
0.101365
0.121854
0.141428
0.124901
0.0463582
-0.0148043
-0.0373053
-0.0384045
-0.027649
-0.0122784
0.000556611
0.0094741
0.01133
0.0107143
0.0103378
0.0112011
0.00941744
0.00514572
0.201945
0.200168
0.173623
0.166622
0.14649
0.136671
0.159177
0.163635
0.119483
0.0185255
-0.0417774
-0.0604963
-0.0559501
-0.0388373
-0.0188932
-0.0032288
0.00799641
0.0103839
0.0105132
0.0105123
0.0114006
0.00740325
0.000914838
0.277987
0.278733
0.223159
0.215645
0.177544
0.171741
0.200519
0.159079
0.0489511
-0.087113
-0.125921
-0.123245
-0.0997003
-0.0670459
-0.0370357
-0.0150506
0.00115684
0.00491253
0.0076426
0.00859576
0.00908952
-5.36317e-05
-0.00996703
0.357958
0.362855
0.260006
0.258332
0.190749
0.201123
0.230677
0.100631
-0.100679
-0.241347
-0.237121
-0.199517
-0.153606
-0.103521
-0.0622577
-0.032672
-0.0102491
-0.00438952
0.002326
0.00373833
0.00260647
-0.0132063
-0.0242529
0.36324
0.378712
0.212585
0.241776
0.134922
0.190426
0.202984
-0.0709251
-0.348328
-0.428919
-0.353949
-0.278816
-0.219417
-0.154766
-0.101752
-0.0624107
-0.0312169
-0.0224831
-0.00850994
-0.00592568
-0.00908635
-0.0249684
-0.0224987
0.185892
0.238447
0.0101684
0.118805
-0.0345361
0.105683
0.0677883
-0.390424
-0.632372
-0.613545
-0.465674
-0.372668
-0.313059
-0.234811
-0.16881
-0.118084
-0.0721924
-0.0612128
-0.0318458
-0.0207961
-0.0226382
-0.0135381
0.0437071
-0.224196
-0.0809841
-0.33872
-0.0911333
-0.290908
-0.0405692
-0.162869
-0.77034
-0.852418
-0.779004
-0.593522
-0.513138
-0.456072
-0.358339
-0.277087
-0.214836
-0.147258
-0.121338
-0.0714543
-0.0396804
-0.0303921
0.0525028
0.246039
-0.968027
-0.68128
-0.893008
-0.434189
-0.631287
-0.327811
-0.528965
-1.11126
-1.06977
-1.00378
-0.810709
-0.759089
-0.680976
-0.554747
-0.457644
-0.381397
-0.28957
-0.222473
-0.138025
-0.0615374
-0.0283724
0.169696
0.608015
2.71765
3.29044
3.70739
3.08185
2.6821
2.63205
2.5191
3.9299
4.75416
4.97592
4.48119
4.31413
4.35064
2.71493
1.78339
0.856613
0.194802
-0.0197683
-0.124735
2.87399
3.36299
3.55688
3.50985
2.2967
0.685927
-1.90437
-1.16116
-0.0420555
1.72552
2.81068
2.78389
2.34723
2.91603
2.06496
2.07137
1.70523
0.293632
-0.130651
2.91805
3.49311
2.30983
3.46348
3.05288
0.966724
-0.446182
-3.77126
-3.98198
-2.61752
-0.104878
0.977293
1.08516
2.21315
2.09798
2.01656
2.63974
0.945276
-0.061805
3.06239
3.08152
1.85285
3.20624
4.03096
1.92048
2.48226
-0.761068
-1.65205
-3.9255
-1.8924
0.018801
0.20225
1.46532
2.0158
2.16922
1.13375
1.84113
0.26257
3.17312
2.50391
0.989156
1.22221
1.37407
0.199296
2.27626
1.0768
2.16276
0.181072
-0.632741
1.39141
0.332152
1.3669
1.7493
2.2787
0.221248
1.8601
0.729456
3.22475
2.27668
0.566535
0.195231
0.20429
-1.13431
0.640682
0.384849
1.90629
3.78524
1.51552
0.110106
0.380501
1.74042
1.61821
2.22523
0.751241
1.71937
1.20356
3.34391
2.07353
0.561041
-0.200787
0.00959001
-0.885789
-0.0489531
-0.687183
-0.32686
2.7218
4.66378
2.79185
1.22517
1.47529
0.928423
1.94087
1.47208
1.88142
1.59933
3.45985
2.32626
0.880316
-0.445315
-0.219532
-0.0631085
-0.635559
-1.64841
-1.15083
0.489104
1.87216
1.08653
0.677853
0.933341
0.735238
1.49443
0.991484
0.782965
1.94126
0.522428
0.639371
0.359924
0.397746
-0.207267
-0.556571
-0.966649
-1.59126
-1.59191
-1.60935
-1.42413
-1.40207
-1.18865
-0.998848
-0.87519
-0.765058
-0.58145
-0.419673
-0.276293
-0.159073
-0.0796015
0.335909
1.30545
0.219215
0.261
0.238707
0.412371
0.625303
0.884521
1.31235
0.3449
-0.0330616
-0.662379
-0.945904
-1.4154
-1.28493
-1.21608
-1.23881
-1.17347
-0.899244
-0.58915
-0.552223
-0.220717
-0.0951072
0.312749
0.749172
0.200648
0.232949
0.351932
0.551838
0.850163
0.899925
1.48262
1.52535
1.53638
1.15198
0.373349
0.102711
-0.975758
-0.726684
-0.906117
-1.09957
-0.799044
-0.818388
-0.177444
-0.684485
-0.635641
0.0493025
1.7446
0.145255
0.193928
0.333147
0.45548
0.55484
0.837109
1.25806
1.74678
1.57553
1.6747
1.59109
1.88465
1.00972
1.16269
1.21972
0.614291
0.787853
0.0560478
0.818881
-0.581049
-0.853531
-0.424889
1.0675
0.0904326
0.118467
0.171271
0.288735
0.443985
0.901891
1.16756
1.36318
1.25611
1.43814
1.38365
1.58773
1.64599
0.988812
0.557435
0.712828
0.583052
0.531427
-0.0220386
-1.1401
-0.988189
-0.336191
-0.684433
0.0515189
0.0710318
0.112253
0.190287
0.285756
0.517874
0.593905
0.623093
0.518454
0.52835
0.612561
0.511084
0.397232
0.433482
0.0925486
0.320928
0.204858
-0.0221419
-0.165111
0.160764
0.776229
0.826731
-0.00447105
0.0298542
0.0339522
0.069528
0.133424
0.235418
0.317227
0.32948
0.276328
0.225163
0.197938
0.25147
0.106327
0.0693166
0.0916415
0.0986213
0.264507
0.440546
0.788615
1.18334
1.47257
1.54851
1.58321
1.47999
0.0157284
0.0105756
0.0412021
0.0726766
0.113784
0.135033
0.142728
0.11596
0.0898361
0.0595692
0.00263865
-0.0290028
0.108744
0.200408
0.252099
0.319274
0.459181
0.747876
1.25175
1.88992
2.41093
2.7016
2.79214
0.00650074
0.000671
0.0192268
0.0343004
0.0451051
0.0563679
0.0523274
0.0557154
0.0722033
0.129255
0.199393
0.306846
0.432797
0.555282
0.75527
1.02695
1.30775
1.59201
1.85249
2.09168
2.40544
2.63736
3.15362
0.000447671
-0.00283919
0.00656662
0.0148487
0.0177581
0.0296347
0.0228076
0.0302195
0.0589095
0.129047
0.216943
0.310825
0.464347
0.719307
1.02464
1.27043
1.48092
1.68804
1.93793
2.23891
2.39276
2.49221
2.54759
-0.00513332
-0.00467724
-0.00277073
0.0018357
0.00127678
0.00770255
0.011771
0.00994793
0.000305269
0.00504056
0.0439916
0.057832
0.085922
0.384229
0.751439
0.901751
0.927076
0.938143
0.948469
1.03434
1.02042
1.00658
0.968146
0.00715908
-0.00073067
-0.00169836
-0.000703881
-0.00297424
0.00252292
0.0162708
0.0382185
0.0659766
0.160039
0.286119
0.396575
0.490194
0.499755
0.475918
0.268107
0.166668
0.140129
0.105993
0.173253
0.311248
0.395826
0.436974
0.0495526
0.0295359
-0.00311516
-0.00424766
-0.00173611
0.0479985
0.117049
0.169393
0.214988
0.244118
0.274424
0.279265
0.26078
0.220981
0.0999497
0.0155729
-0.0223685
-0.0306715
-0.0192154
0.0569566
0.137767
0.184978
0.213059
0.0599465
0.019048
0.00215942
-0.00155444
0.0452476
0.121988
0.1534
0.161091
0.170169
0.175868
0.114698
0.0569761
-0.0238649
-0.0310611
-0.0212286
-0.0163038
-0.0182408
-0.0169898
0.0532519
0.16433
0.153882
0.122246
0.107885
0.0673706
0.0297459
0.0142913
0.0273891
0.0986278
0.147198
0.149114
0.145649
0.0738008
0.024002
-0.00420974
-0.012933
-0.0117348
-0.010199
-0.00844354
-0.00628596
-0.00639005
-0.0113726
-0.0185409
0.0349366
0.0751807
0.0432608
0.0311943
0.0719709
0.0663591
0.0615334
0.0940075
0.132312
0.132494
0.130028
0.0659151
0.0173596
0.00392675
0.00371299
0.00332457
0.0023489
0.000550779
-0.000455192
-0.000667937
-0.000232542
-0.000749199
-0.00651359
-0.0101022
0.00289985
0.00823061
0.00603882
0.0700073
0.090274
0.0953389
0.110587
0.121462
0.127414
0.104782
0.0651981
0.0334225
0.0136109
0.00631231
0.00184541
-0.000164559
-0.000329246
-0.000388122
-0.000312364
-5.94296e-05
0.000339364
8.76143e-05
-0.00283935
-0.00427125
-0.00295843
-0.00170091
0.0679368
0.091188
0.0939888
0.102098
0.118147
0.114488
0.0770105
0.0476057
0.0203166
0.00832897
0.0014091
-0.00052896
-0.000416281
-0.00048102
-0.000479521
-0.000377981
-0.000143406
3.66681e-05
0.000207351
7.70542e-05
-0.00059499
-0.00101612
-0.00111729
0.0657183
0.0905574
0.0906138
0.0770888
0.106816
0.091162
0.0422859
0.0163237
0.00508422
0.00144497
0.000530083
-2.25426e-05
-0.000273007
-0.000210553
-0.000204087
-0.000163573
-6.71051e-05
-1.98819e-05
2.16351e-05
7.90054e-05
9.09068e-05
3.98872e-05
-4.59964e-05
0.0557763
0.0866724
0.0514638
0.0340157
0.0734063
0.0458359
0.0255203
0.010719
0.00356612
0.0012462
0.000310549
-8.05382e-05
-9.61631e-05
-6.77402e-05
-5.58965e-05
-3.51719e-05
-2.57311e-07
3.52572e-06
-1.68934e-06
3.32696e-06
1.78854e-05
2.82566e-05
3.4171e-05
0.0375518
0.0638992
0.0192614
0.00342936
0.0219531
0.00772551
0.00181312
-0.000368895
-0.000303772
-0.000262539
-0.000195685
-9.64108e-05
-3.89681e-05
-2.10068e-05
-1.33283e-05
-6.96569e-06
1.986e-06
2.83824e-06
4.49057e-07
-1.45134e-06
-1.39579e-06
9.30221e-07
5.96486e-06
0.0179573
0.0251946
0.0116371
-0.00281004
0.0050702
0.000773738
-0.000199679
-0.000249666
-8.76045e-05
-5.19583e-05
-4.42438e-05
-1.95743e-05
-8.55339e-06
-1.82899e-06
-2.19411e-06
-1.09279e-06
7.8862e-07
7.92555e-07
3.62582e-07
-9.00942e-08
-5.25184e-07
-7.3371e-07
-1.17672e-06
0.00677436
0.00430969
0.00385608
-0.000114155
0.000542847
0.000136785
-0.000233116
-0.000106384
-4.00625e-05
-2.44036e-05
-6.8495e-06
-4.5521e-07
2.47872e-06
1.37388e-06
8.88691e-07
1.0262e-06
6.96463e-07
1.9884e-07
1.71437e-09
8.2461e-10
3.60465e-09
-6.99436e-08
-3.24925e-07
0.00147939
-0.000248997
0.000302407
4.55838e-05
-4.59555e-05
-7.17912e-05
-4.8052e-05
-1.69204e-05
-3.64553e-06
-2.04494e-06
6.23964e-07
1.91362e-06
1.35531e-06
7.3979e-07
5.15705e-07
4.27381e-07
2.92288e-07
1.0633e-07
-9.05979e-09
-6.22147e-09
1.00541e-08
2.08081e-08
8.30051e-09
2.18167e-05
-0.000163534
-0.000135798
-4.18743e-05
-1.07758e-05
-1.15277e-05
-3.81604e-06
-7.16539e-07
-1.03297e-08
5.11512e-07
7.29431e-07
7.30156e-07
4.97412e-07
2.44069e-07
1.94644e-07
1.35668e-07
4.96967e-08
-6.20415e-09
-9.30092e-09
-3.93849e-09
-7.73603e-10
4.49767e-09
1.53067e-08
-5.72581e-05
-3.90962e-05
-2.24611e-05
-1.45388e-05
-1.37257e-06
-1.61771e-06
-8.04776e-07
-9.41969e-08
1.13724e-07
2.01314e-07
3.29247e-07
2.12414e-07
9.26859e-08
6.15728e-08
5.54885e-08
4.08236e-08
-1.64093e-09
-1.02612e-08
-3.26582e-09
-9.87918e-10
-1.75078e-09
-1.89144e-09
2.63607e-09
-1.02847e-05
-5.16885e-06
-2.27799e-06
-1.27588e-06
-7.15673e-07
-4.41001e-07
-1.45948e-07
-3.41675e-08
8.48496e-09
2.98418e-08
6.12045e-08
1.59305e-08
-9.96947e-09
6.80363e-09
7.02662e-09
6.62419e-09
-3.65697e-09
-2.76215e-09
-3.65332e-10
-3.0445e-10
-1.5314e-09
-2.06765e-09
-1.14958e-09
-8.21036e-07
-2.50527e-07
-1.15194e-07
-9.12466e-08
-7.96911e-08
-6.23395e-08
-2.65072e-08
-1.25642e-08
-7.26796e-09
-8.83886e-09
-2.96813e-09
-1.08884e-08
-9.23812e-09
-2.82596e-09
-3.32425e-10
-4.44005e-10
-1.66088e-09
-8.34953e-10
-1.37396e-10
-1.19707e-10
-9.98756e-10
-1.56619e-09
-1.49856e-09
-2.2018e-09
1.46184e-08
-1.96225e-10
-5.16944e-09
-1.0981e-08
-7.9013e-09
-4.16103e-09
-2.68413e-09
-2.30901e-09
-3.33545e-09
-3.53524e-09
-4.15044e-09
-2.73443e-09
-1.30221e-09
-7.98122e-10
-1.06171e-09
-7.07548e-10
-2.24643e-10
-4.32348e-11
-2.86773e-10
-1.45417e-09
-1.78355e-09
1.83112e-10
5.69302e-09
2.86996e-09
4.39056e-10
-4.69261e-11
-8.50927e-10
-6.18351e-10
-2.94187e-10
-2.4882e-10
-1.79338e-10
-3.14936e-10
-1.0817e-09
-7.241e-10
-3.92892e-10
-1.56094e-10
-2.78535e-10
-2.61924e-10
-1.06656e-10
8.76947e-11
8.31491e-11
-9.22373e-10
-2.29436e-09
-3.27319e-09
4.41453e-09
4.87218e-10
1.43242e-10
9.16322e-11
1.09059e-10
1.75593e-11
3.31704e-11
8.91053e-11
1.02402e-10
8.01957e-11
1.10872e-10
-2.5393e-10
2.05129e-11
9.39336e-11
2.149e-11
-5.75925e-11
-2.96566e-11
9.46691e-11
1.34581e-10
-5.47691e-10
-3.36958e-09
-3.97895e-09
-2.07826e-09
1.43969e-08
1.9701e-11
8.11377e-12
1.69247e-11
2.03276e-11
1.12854e-11
1.70845e-11
2.31921e-11
2.37708e-11
2.17684e-11
3.91862e-11
-3.68757e-12
3.65038e-11
3.08102e-11
9.11143e-12
1.3995e-11
7.78263e-11
1.70122e-10
2.46742e-10
-1.50644e-09
-5.65925e-09
-8.34459e-09
-3.22259e-09
3.13398e-08
3.7718e-12
2.73606e-12
1.00157e-12
4.21627e-13
-2.31178e-13
6.28664e-13
1.08321e-12
1.0744e-12
8.81178e-13
4.73082e-12
4.57296e-12
6.68199e-12
1.27719e-12
-2.90179e-12
1.04678e-11
1.11149e-10
2.54492e-10
-5.29859e-11
-4.43559e-09
-7.85862e-09
-3.12311e-09
2.01011e-08
6.37102e-08
8.83819e-13
5.47812e-13
-1.22432e-13
-2.48965e-13
-2.37989e-13
-3.83743e-13
-4.14513e-13
-4.21309e-13
-4.5149e-13
-8.59237e-15
1.04065e-12
-7.48014e-13
-3.34317e-12
-1.02208e-12
6.79833e-11
1.75971e-10
3.03519e-10
-8.24567e-10
-7.83666e-09
-1.6146e-08
1.26087e-08
1.22025e-07
1.82036e-07
2.3048e-13
2.76506e-13
1.62899e-13
1.73528e-13
1.2565e-13
9.20808e-14
1.09386e-13
1.68168e-13
1.54237e-13
9.49324e-14
-1.61035e-13
-2.61153e-12
-5.97467e-12
8.73067e-12
1.74795e-10
3.3742e-10
1.44875e-10
-4.9285e-09
-1.21225e-08
-1.00154e-08
1.41975e-07
2.67639e-07
2.67125e-07
9.5509e-14
1.33813e-13
1.93891e-13
1.77798e-13
1.23841e-13
9.56876e-14
1.48416e-13
3.42683e-13
3.38656e-13
9.64149e-14
-1.5443e-12
-4.29458e-12
-5.23757e-12
3.35578e-11
2.33174e-10
4.75579e-10
-1.04468e-09
-9.76268e-09
-1.75161e-08
1.94358e-08
2.68424e-07
4.30464e-07
6.016e-07
1.09916e-13
1.80249e-13
2.89454e-13
1.69289e-13
2.55304e-13
2.12239e-13
1.68818e-13
4.23307e-13
3.82683e-13
-1.94131e-13
-3.32365e-12
-7.07123e-12
8.38548e-12
1.62753e-10
3.60533e-10
1.09627e-10
-5.20407e-09
-1.52452e-08
-1.72145e-08
1.1132e-07
4.56754e-07
6.96268e-07
-2.05583e-07
1.58184e-13
1.5148e-13
1.62457e-13
9.43025e-14
1.58761e-13
9.78287e-14
1.66557e-13
4.07481e-13
3.69763e-13
-8.55765e-13
-5.11826e-12
-6.83387e-12
3.64295e-11
2.49614e-10
5.09185e-10
-4.07029e-10
-1.04545e-08
-2.71024e-08
1.34359e-08
3.99162e-07
7.41656e-07
2.22595e-07
-2.18817e-06
1.38313e-13
1.25776e-13
2.05318e-13
1.31202e-13
1.8201e-13
1.10293e-13
1.22535e-13
3.42059e-13
1.45268e-13
-2.10765e-12
-6.56898e-12
4.84443e-12
1.31064e-10
3.70884e-10
3.02957e-10
-3.77391e-09
-1.88328e-08
-3.13802e-08
1.13959e-07
7.17552e-07
1.17976e-06
-1.44621e-06
-7.34562e-06
1.47714e-13
1.26319e-13
2.01063e-13
1.45807e-13
9.33899e-14
1.65382e-13
2.33383e-13
3.38952e-13
-1.50591e-13
-3.03557e-12
-6.84654e-12
2.04659e-11
2.01158e-10
3.60275e-10
-1.49853e-09
-1.07192e-08
-2.52214e-08
7.64843e-09
3.71256e-07
1.1947e-06
1.66076e-06
-3.72137e-06
-2.14877e-05
1.23448e-13
-3.03719e-14
5.9761e-14
2.14217e-13
1.02687e-13
1.0638e-13
3.29124e-13
3.25705e-13
-6.51745e-13
-4.13001e-12
-3.81383e-12
5.55722e-11
2.66307e-10
1.28207e-10
-3.80456e-09
-1.52794e-08
-1.9106e-08
8.54181e-08
6.08835e-07
1.57918e-06
1.79993e-06
-4.54791e-06
-3.05645e-05
2.2246e-13
8.04921e-14
6.59878e-14
2.4824e-14
-1.32388e-14
9.45209e-14
3.46359e-13
3.78996e-13
-1.04434e-12
-4.75376e-12
2.05941e-12
8.76771e-11
3.16372e-10
6.50101e-11
-4.17631e-09
-1.73955e-08
-1.78174e-08
1.06327e-07
6.84118e-07
1.74874e-06
1.95673e-06
-4.56605e-06
-3.4278e-05
3.15412
3.2154
0.700605
-4.44143
0.445218
-2.80821
-4.9368
-3.02399
4.07945
2.90054
-1.76508
-5.8574
2.95407
4.11969
3.78305
-0.514215
-0.0450912
1.28502
2.34869
2.7002
-1.1292
-1.45192
-0.98786
0.953896
1.36401
1.12173
0.827745
0.509496
2.78833
2.64615
2.5259
2.39947
3.67558
3.74804
3.86118
3.9652
2.60937
2.49466
2.58596
2.47332
1.02339
0.981929
1.00088
0.887566
0.494486
0.507802
0.460696
0.419224
0.236257
0.262444
0.270508
0.258594
0.112543
0.142131
0.167604
0.170555
0.0303199
0.0477272
0.0685977
0.0795919
0.00321482
0.00437179
0.00895691
0.0156604
-0.00181189
-0.00213761
-0.00224959
-0.00136288
-0.00116352
-0.00135175
-0.00171982
-0.00215803
-8.49176e-05
-0.000125492
-0.000233996
-0.000436357
4.40895e-05
5.48451e-05
5.66375e-05
2.0922e-05
1.19626e-05
2.02141e-05
2.86473e-05
3.5988e-05
-1.50629e-06
1.48776e-08
3.76144e-06
7.85579e-06
-6.38128e-07
-7.65043e-07
-4.57284e-07
3.21249e-07
-8.98966e-08
-1.69778e-07
-2.32998e-07
-1.95724e-07
1.48758e-08
6.55894e-09
-1.09636e-08
-2.6065e-08
9.30237e-09
1.65834e-08
2.56082e-08
3.82694e-08
1.4306e-10
3.42164e-09
9.00795e-09
2.44551e-08
-2.3633e-09
-1.15635e-09
4.18016e-09
2.33245e-08
8.97442e-10
4.47563e-09
1.67565e-08
5.17749e-08
1.0277e-08
2.53845e-08
5.45273e-08
1.12184e-07
3.23354e-08
8.2957e-08
1.81522e-07
3.10611e-07
6.16587e-08
1.39276e-07
2.97102e-07
4.79715e-07
1.16698e-07
3.25065e-07
6.79013e-07
1.00948e-06
3.89623e-07
7.48927e-07
1.49296e-06
1.86369e-06
5.52766e-07
6.48399e-07
1.33626e-06
4.2749e-07
7.12433e-07
3.03365e-07
-1.10093e-06
-8.03652e-06
-5.06932e-06
-1.23351e-05
-1.89567e-05
-3.2652e-05
-1.31765e-05
-3.17845e-05
-4.94847e-05
-6.51005e-05
-2.40951e-05
-4.98847e-05
-8.88725e-05
-0.00011128
-5.48163e-05
-8.37363e-05
-0.000117488
-0.000145152
-7.25371e-05
-0.000110397
-0.000142289
-0.000165258
-7.50019e-05
-0.000116166
-0.000151087
-0.000170319
1.98655
2.13034
0.612899
-0.959666
-0.934014
-0.975941
-1.31216
-1.70015
-1.79943
-2.80956
1.90006
4.12169
2.94343
1.51046
1.30637
1.0744
1.16355
1.27419
2.1398
0.962197
1.16048
-0.241218
-0.680259
1.55841
0.304319
-0.683144
-1.6114
-1.71458
-0.0479268
-0.528525
3.34191
3.65642
2.54165
1.40006
1.1199
0.633302
0.8079
1.96017
-1.74547
-1.0696
-0.548452
0.82995
-0.259932
0.155298
-2.48405
-1.98046
-0.21007
0.966754
-0.308854
2.74985
3.47984
3.4795
2.23877
0.906341
0.613859
0.889
1.33367
-1.5817
-0.587478
1.93847
2.25331
0.0119048
-1.16961
-3.50003
-0.808275
1.57212
2.64954
1.06953
1.18136
3.23126
2.96717
2.32037
0.620092
2.36892
2.55674
0.501104
2.9553
2.28235
2.91018
-0.355212
-0.949658
-0.236031
-0.942335
1.34437
2.07754
-1.61995
-0.178769
1.06395
3.20691
2.76818
2.15916
1.0224
2.65809
2.17512
-0.155819
2.00311
1.19818
-0.483467
-1.02687
0.233342
0.668704
1.00082
2.17747
1.86524
-0.389699
0.390408
2.15315
2.50751
2.45545
2.00727
0.523061
1.09367
-0.211149
-0.0329895
-0.043364
0.122296
1.04558
2.26729
2.73588
2.19955
1.37053
3.43964
3.1126
0.312375
1.19153
1.88658
1.79863
2.03684
1.14184
0.00964317
2.32345
1.65867
-0.671544
2.31128
2.31305
2.54139
2.88898
2.85325
2.42313
2.42355
3.10025
0.994346
0.233436
0.661192
1.02405
0.825422
0.722349
-0.134605
1.41073
1.07765
0.607234
-1.27421
4.06274
4.25712
3.72484
2.93999
2.69163
2.44162
2.5357
2.4284
0.57377
0.327227
0.508752
0.780467
0.667945
0.132845
0.633542
3.20975
1.3989
-0.56101
-1.41681
2.30758
2.15925
3.43964
3.32119
3.21778
2.60717
2.53879
2.596
0.687692
0.280608
0.418728
0.455156
1.45608
4.0073
2.56314
1.52263
0.170437
-0.702668
-1.56912
0.927368
0.977711
1.63499
2.00611
2.006
2.78263
2.73319
3.44211
3.82379
2.16235
1.79552
1.37841
3.74489
3.28547
2.41374
1.55385
0.616574
-0.301382
-1.46941
0.478297
0.680564
1.00267
2.06768
2.74804
3.75551
3.9223
3.65432
3.83086
4.36405
4.52626
4.10139
4.14074
3.34273
3.41425
1.1695
0.828342
0.267979
-0.926661
0.225307
0.189965
0.191179
0.19701
0.202109
0.50275
1.86956
2.80259
3.18304
3.41317
3.37664
3.84458
2.11682
1.9575
2.18845
0.727946
1.73454
0.574398
0.0138836
0.178604
0.206062
0.314321
0.378313
0.573716
0.72561
0.691006
0.856202
0.995821
0.953262
0.830489
1.53157
1.05232
1.63473
2.01154
1.58373
2.62709
1.39789
0.650492
0.0880557
0.0851964
0.121359
0.132633
0.222892
0.341585
0.448662
0.602758
0.636383
0.615549
0.653448
0.900311
1.13285
1.28686
1.95122
2.07429
3.00233
1.75641
1.35907
0.0267699
0.0218083
0.0309336
0.0390899
0.0624607
0.0862376
0.173377
0.247225
0.297035
0.353656
0.488275
0.6374
0.726994
0.706594
1.39308
1.51022
2.73049
2.5333
2.10983
0.00355072
0.00494137
0.0138388
0.0295688
0.0499217
0.0457876
0.103022
0.154195
0.203079
0.281513
0.370926
0.389294
0.313719
0.460678
0.828224
1.36426
1.99428
2.36967
2.8836
-0.00220632
-0.00150421
4.71261e-05
0.00635161
0.0355145
0.0106947
0.0122532
0.0436011
0.0812773
0.108289
0.164896
0.144157
0.0955223
0.130165
0.300608
0.701104
1.41664
2.5531
3.22761
-0.000894572
-0.00104859
-0.00118834
-0.00023671
0.0178256
0.00875668
0.0134497
0.0449715
0.0485469
0.0354384
0.0609795
0.0674793
0.0416112
0.0476113
0.137708
0.420946
1.17615
2.37524
3.40565
-0.000148507
-0.000284564
-0.000628444
-0.00126334
0.00148422
0.00256988
0.00232274
0.00457411
0.008345
0.0025591
0.00629642
0.0317448
0.0238915
0.0108213
0.0634066
0.269867
0.911955
2.21509
3.4498
1.91171e-05
-3.70021e-05
-0.000128279
-0.000481889
-0.000741378
0.000170754
0.000416473
0.000192279
0.000116182
-0.000105324
0.00170638
0.0104697
0.0116084
-0.00165407
0.0364218
0.215878
0.743705
1.97107
3.39112
1.08165e-05
1.34911e-05
-3.84257e-06
-0.00014192
-0.000226813
-0.000215603
-0.000217997
-9.32301e-05
-0.000326289
-0.000487587
-0.000344587
0.00231066
0.00248529
-0.0057059
0.00924469
0.156253
0.61719
1.77644
3.28974
2.03474e-06
5.22694e-06
9.27277e-06
-1.78427e-05
-6.42251e-05
-7.48066e-05
-8.46786e-05
-0.000101869
-0.000150129
-0.000190044
-4.98414e-05
0.000268808
0.000152852
-0.00355914
-0.000902409
0.0868084
0.464481
1.55792
3.17646
7.951e-08
1.07759e-06
3.13888e-06
2.3653e-06
-9.62918e-06
-1.42901e-05
-1.59754e-05
-1.98423e-05
-2.35365e-05
-4.17869e-05
-7.28265e-05
-0.000122881
-0.000184237
-0.00202406
-0.00425453
0.024573
0.296962
1.29609
3.06842
-2.19549e-08
5.78711e-08
6.44096e-07
1.70352e-06
1.20333e-06
-8.02542e-07
-1.78543e-06
-4.10175e-07
2.65918e-06
3.17216e-06
-6.07148e-06
-1.00379e-05
8.58843e-05
-0.000946917
-0.00554869
0.0150579
0.201787
1.08005
2.95159
7.4378e-08
4.6445e-08
4.80993e-08
1.87947e-07
2.48307e-07
-1.49255e-08
-2.2389e-06
-6.39381e-06
-4.66343e-06
-2.86905e-08
6.88854e-06
4.07544e-06
-0.000131234
-0.00143634
-0.00219999
0.0199007
0.157222
0.96037
2.80429
9.23991e-08
1.04994e-07
7.70817e-08
-4.30781e-08
-3.88114e-07
-1.40866e-06
-5.48598e-06
-1.65471e-05
-2.18892e-05
-1.85739e-05
-8.97406e-06
-6.62576e-06
-6.27295e-05
-0.00012502
-0.000904062
0.0173148
0.121307
0.911074
2.64943
1.16271e-07
2.12098e-07
2.06611e-07
-1.23227e-08
-1.09211e-06
-2.85362e-06
-7.11933e-06
-2.0158e-05
-3.4702e-05
-3.35204e-05
-3.33573e-05
-5.79362e-05
-0.00020812
0.000618119
0.00842822
0.0320874
0.0763888
0.770209
2.42034
1.93593e-07
3.44499e-07
3.80271e-07
4.27979e-07
3.11887e-07
-5.84156e-07
-3.5667e-06
-1.38868e-05
-3.79082e-05
-4.23746e-05
-4.47969e-05
-7.32533e-06
-1.91055e-05
0.000449386
0.00534816
0.0253189
0.0591327
0.607139
2.23132
2.33933e-07
4.32024e-07
5.39081e-07
5.49265e-07
5.79302e-07
-3.92628e-07
-4.99266e-06
-2.62906e-05
-4.02657e-05
-3.52511e-05
3.57921e-05
0.000357827
0.00083498
0.00300132
0.0127547
0.0218508
0.0249122
0.537019
2.10441
4.82139e-07
4.70835e-07
4.7476e-08
-1.43966e-07
-1.31618e-06
-3.98086e-06
-1.09195e-05
-2.74179e-05
-4.81917e-05
-5.11813e-05
-4.45946e-05
4.037e-06
0.000125155
0.000843411
0.00319817
-0.00144818
0.0115346
0.521557
2.05103
6.70395e-07
3.22036e-07
-1.45129e-06
-3.75251e-06
-1.03341e-05
-1.44375e-05
-1.64541e-05
-2.66993e-05
-4.98474e-05
-5.0713e-05
-4.00537e-05
-1.40119e-05
-4.36864e-05
-5.24293e-05
0.00188163
0.00280524
0.0252889
0.490877
2.01923
2.4154e-07
-2.20243e-06
-9.35666e-06
-1.81382e-05
-3.37814e-05
-4.81396e-05
-4.41308e-05
-5.07738e-05
-6.84935e-05
-6.38956e-05
-6.13427e-05
-5.41195e-05
8.12574e-06
0.000968234
0.00425493
0.00469571
0.0526212
0.493641
1.96815
-2.04475e-06
-1.09091e-05
-3.22255e-05
-5.31176e-05
-7.59646e-05
-8.90771e-05
-8.91521e-05
-8.9656e-05
-9.6813e-05
-9.55311e-05
-9.2123e-05
-5.58686e-05
0.000101011
0.000816905
0.00194023
-0.0072243
0.0113796
0.406753
1.89855
-5.2945e-06
-3.62825e-05
-7.05822e-05
-8.42592e-05
-9.67789e-05
-0.000101896
-9.77461e-05
-0.000112306
-0.000117387
-0.000121878
-0.000113576
-0.000110565
-1.31943e-05
0.000332191
0.000227161
-0.00204416
0.0127513
0.361398
1.76145
-2.73547e-05
-9.23707e-05
-0.000101392
-0.00010458
-8.38806e-05
-6.89785e-05
3.49526e-05
-4.37327e-06
1.06326e-05
-2.40627e-05
-9.37701e-05
-9.0764e-05
-0.000112852
-0.000381487
-0.0015867
-0.000239475
0.0849671
0.516081
1.37147
-6.89292e-05
-0.000115899
-0.000114936
-8.55841e-05
9.54153e-06
2.9805e-05
0.000212541
0.000349453
0.000328326
0.00016938
-3.57567e-05
-8.84598e-05
-7.73872e-05
-0.000203561
-0.000849132
-0.000164395
0.0168206
0.130158
1.07316
-0.000118296
-0.00012336
-8.93148e-05
3.84757e-05
0.00030642
0.000451618
0.00086211
0.00133612
0.00103908
0.000715356
0.000174334
-6.91309e-05
-4.88467e-05
-2.21519e-05
-0.000372741
-0.00374054
-0.0224297
0.0360351
1.04747
-0.000152863
-0.000129188
1.16927e-05
0.000412111
0.000875012
0.00156526
0.00236384
0.00245535
0.0020097
0.00147
0.000817329
0.000481485
6.89539e-05
7.4827e-05
0.000244545
0.000294952
-0.00884358
0.0128102
0.718233
-0.000157474
-0.000120295
9.6069e-05
0.000812655
0.00141497
0.00223225
0.00338032
0.0033553
0.00312547
0.00246197
0.00167598
0.000692854
0.000110109
0.000171673
0.000148928
-0.000376254
-0.0122421
-0.01295
0.599145
-0.00016537
-8.57123e-05
0.00032527
0.000983853
0.00177185
0.00250599
0.00357463
0.00380811
0.00331097
0.00276641
0.00211593
0.00146886
0.000627775
0.000310455
0.000466234
0.000479174
-0.00628983
-0.0386956
0.347959
-0.000170013
-9.31923e-05
0.000461225
0.00112041
0.00195551
0.00276187
0.003724
0.00395848
0.00354983
0.00319733
0.00279082
0.00248093
0.00169529
0.000877249
0.000899649
0.00119587
-0.00162895
-0.0269311
0.0479159
)
;

boundaryField
{
    leftWall
    {
        type            zeroGradient;
    }
    rightWall
    {
        type            zeroGradient;
    }
    lowerWall
    {
        type            zeroGradient;
    }
    atmosphere
    {
        type            zeroGradient;
    }
    defaultFaces
    {
        type            empty;
    }
}


// ************************************************************************* //
