/*--------------------------------*- C++ -*----------------------------------*\
| =========                 |                                                 |
| \\      /  F ield         | foam-extend: Open Source CFD                    |
|  \\    /   O peration     | Version:     4.1                                |
|   \\  /    A nd           | Web:         http://www.foam-extend.org         |
|    \\/     M anipulation  |                                                 |
\*---------------------------------------------------------------------------*/
FoamFile
{
    version     2.0;
    format      ascii;
    class       volVectorField;
    location    "0.6";
    object      U_0;
}
// * * * * * * * * * * * * * * * * * * * * * * * * * * * * * * * * * * * * * //

dimensions      [0 1 -1 0 0 0 0];

internalField   nonuniform List<vector> 
2268
(
(0.034555 -0.00395648 0)
(0.0287303 -0.00130831 0)
(0.0574438 -0.0012705 0)
(0.0579077 -0.00249861 0)
(0.0788192 0.00133246 0)
(0.0712659 -0.000482728 0)
(0.0642772 0.000998109 0)
(0.0536147 0.00392906 0)
(0.0375885 -0.00240808 0)
(0.00182036 0.00495875 0)
(-0.0187237 -0.0114664 0)
(-0.00762518 -0.0123317 0)
(-0.00362978 -0.0130119 0)
(0.0039432 -0.0109164 0)
(0.00494538 -0.00911485 0)
(0.00618063 -0.0092422 0)
(0.00412159 -0.00882744 0)
(0.000551119 -0.00680629 0)
(-0.0128128 -0.0155599 0)
(-0.0127293 -0.00582343 0)
(0.00442792 0.00576693 0)
(-0.0183219 -0.000349349 0)
(0.0063157 -0.00791752 0)
(0.0305089 -0.0106625 0)
(0.0276101 -0.00413633 0)
(0.0593942 -0.00502067 0)
(0.0613813 -0.00255023 0)
(0.0786304 -0.0039558 0)
(0.0698779 0.0044521 0)
(0.0685416 0.00429076 0)
(0.057214 0.00918471 0)
(0.0400577 0.0156335 0)
(0.0314078 0.00909505 0)
(0.0173144 0.0155126 0)
(0.0171512 0.00342164 0)
(0.0142569 0.00235401 0)
(0.0175579 0.00306109 0)
(0.0179888 0.00690993 0)
(0.0174099 0.0086415 0)
(0.0166954 0.0114759 0)
(0.0245428 0.0121247 0)
(0.0131196 0.0228416 0)
(0.00295669 -0.00297413 0)
(-0.0121317 0.00231928 0)
(-0.0170709 -0.0018982 0)
(0.0240591 0.00254158 0)
(0.0217003 -0.0174208 0)
(0.0234413 -0.00821211 0)
(0.061469 -0.00872024 0)
(0.067978 -0.00715939 0)
(0.0761341 -0.000220814 0)
(0.0786872 0.00226292 0)
(0.0751117 0.00893642 0)
(0.065239 0.016098 0)
(0.0482661 0.0189739 0)
(0.0154636 -0.00532654 0)
(0.000947274 0.00575067 0)
(-0.00146908 -0.00737705 0)
(-0.00245324 -0.0136228 0)
(-0.00724354 -0.0130773 0)
(-0.00684281 -0.00692678 0)
(-0.00585782 -0.00881954 0)
(0.00243824 0.00136415 0)
(0.00717653 0.0027852 0)
(0.00729542 0.00427181 0)
(0.00233476 -0.00357995 0)
(0.00289741 0.00617525 0)
(-0.0228167 -0.0164599 0)
(0.0215691 -0.00639529 0)
(0.0162279 -0.0209489 0)
(0.0224706 -0.013505 0)
(0.0681629 -0.0148455 0)
(0.07164 -0.0059374 0)
(0.0858796 -0.00571502 0)
(0.0878723 0.00615157 0)
(0.0711889 0.0104883 0)
(0.0568754 0.0246885 0)
(0.0486155 0.0150834 0)
(0.014785 0.0132233 0)
(0.00304766 0.0162215 0)
(-0.0247168 0.00609603 0)
(-0.045443 0.00788828 0)
(-0.0581367 0.00632166 0)
(-0.0556408 0.00413329 0)
(-0.0547642 0.000357725 0)
(-0.0357695 0.0109866 0)
(-0.0444179 -0.00134684 0)
(-0.0296529 0.013303 0)
(-0.0250971 -0.00118407 0)
(-0.00744445 0.0164027 0)
(-0.0270958 -0.0159029 0)
(0.0245845 0.00121495 0)
(0.0177869 -0.026272 0)
(0.0278106 -0.0206282 0)
(0.0727294 -0.0199577 0)
(0.0761105 -0.011472 0)
(0.0950783 -0.00397052 0)
(0.0847684 0.00529824 0)
(0.0639921 0.0243646 0)
(0.0573474 0.0219141 0)
(0.0315537 0.00630275 0)
(-0.0192628 0.017683 0)
(-0.0302348 0.0224942 0)
(-0.0704959 0.0162554 0)
(-0.0881341 0.0176824 0)
(-0.0997436 -0.00195957 0)
(-0.102184 -0.005389 0)
(-0.103716 -0.0183096 0)
(-0.0941088 -0.00397833 0)
(-0.0916102 0.00243102 0)
(-0.0909533 -0.00669036 0)
(-0.0777936 -0.0304516 0)
(-0.0413113 0.0130052 0)
(-0.0521454 -0.0235328 0)
(0.0268202 -0.00823078 0)
(0.0247714 -0.0312449 0)
(0.0364747 -0.0264299 0)
(0.0773238 -0.0253336 0)
(0.0800174 -0.011413 0)
(0.0955849 -0.00642896 0)
(0.0837363 0.013709 0)
(0.0654193 0.0178176 0)
(0.04307 0.018475 0)
(-0.0132768 0.0284846 0)
(-0.0537482 0.0426249 0)
(-0.0814403 0.0406468 0)
(-0.112694 0.0326791 0)
(-0.120861 0.0340481 0)
(-0.127143 0.0174207 0)
(-0.126227 0.00250934 0)
(-0.128338 -0.0133463 0)
(-0.118175 -0.001783 0)
(-0.133259 -0.00953418 0)
(-0.153826 0.0164271 0)
(-0.115003 -0.0168121 0)
(-0.0710897 -0.00945071 0)
(-0.0684853 -0.0298089 0)
(0.0242515 -0.00874737 0)
(0.0273416 -0.0406559 0)
(0.0389048 -0.0336068 0)
(0.0762311 -0.030069 0)
(0.0780277 -0.016235 0)
(0.095481 -0.00494069 0)
(0.0832682 0.0123135 0)
(0.0469092 0.0179719 0)
(-0.00884788 0.0220093 0)
(-0.0683067 0.0510917 0)
(-0.0900843 0.0505273 0)
(-0.114003 0.0503543 0)
(-0.132678 0.0372476 0)
(-0.136091 0.0347524 0)
(-0.147066 0.00528627 0)
(-0.15544 -0.000283743 0)
(-0.146478 -0.0137226 0)
(-0.136981 0.00629197 0)
(-0.138071 -0.0409688 0)
(-0.152242 -0.014276 0)
(-0.150863 -0.0391579 0)
(-0.108452 -0.0465238 0)
(-0.0824276 -0.0540443 0)
(0.024735 -0.0292718 0)
(0.024636 -0.0461978 0)
(0.0337963 -0.037399 0)
(0.0715332 -0.0334608 0)
(0.0749739 -0.0159956 0)
(0.0888054 -0.00559562 0)
(0.0727043 0.0258189 0)
(0.0292529 0.0411914 0)
(-0.0525235 0.0580238 0)
(-0.0876532 0.0731677 0)
(-0.121267 0.0641943 0)
(-0.147007 0.061182 0)
(-0.159743 0.0410077 0)
(-0.16078 0.0436148 0)
(-0.158355 0.00911516 0)
(-0.160034 0.000909658 0)
(-0.142674 -0.0195663 0)
(-0.150389 -0.0135273 0)
(-0.162668 -0.0482414 0)
(-0.166309 -0.0476021 0)
(-0.158995 0.00375005 0)
(-0.11861 -0.0603347 0)
(-0.086394 -0.0854822 0)
(0.0156073 -0.0592013 0)
(-1.46499 0.355029 0)
(-1.76791 0.248317 0)
(-2.02499 0.0355107 0)
(-2.21602 0.0721448 0)
(-2.24014 0.0586195 0)
(-2.17402 -0.0675605 0)
(-2.07259 -0.108244 0)
(-1.89515 -0.134393 0)
(-1.69826 -0.110193 0)
(-1.59878 -0.0934553 0)
(-1.56217 -0.0747761 0)
(-1.57088 -0.0720807 0)
(-1.57485 -0.0366078 0)
(-1.5206 -0.114867 0)
(-1.61997 -0.183511 0)
(-1.70466 -0.103433 0)
(-1.19654 -0.0225297 0)
(-0.936466 -0.3748 0)
(-0.188944 -0.0482412 0)
(-1.36545 0.492438 0)
(-1.47996 0.416383 0)
(-1.47229 0.116987 0)
(-1.72029 0.0695756 0)
(-1.70223 0.0299304 0)
(-1.54464 0.101172 0)
(-1.25587 -0.0674648 0)
(-1.16985 -0.08435 0)
(-1.13252 -0.0726909 0)
(-1.11747 -0.0113031 0)
(-1.19208 0.0711342 0)
(-1.24294 0.0711219 0)
(-1.45597 -0.0196821 0)
(-1.57902 0.00329179 0)
(-1.62181 -0.192116 0)
(-1.73918 -0.00727658 0)
(-1.48834 0.195735 0)
(-0.846804 -0.452576 0)
(-0.29016 -0.427524 0)
(-1.17509 0.829341 0)
(-0.974631 0.7324 0)
(-0.848134 0.195828 0)
(-1.16049 0.0691394 0)
(-1.05091 0.0287801 0)
(-0.664217 0.0697015 0)
(-0.324499 -0.259016 0)
(-0.257521 -0.108044 0)
(-0.0715258 -0.14377 0)
(-0.0657575 -0.0876726 0)
(-0.505343 0.0479437 0)
(-0.818414 -0.061549 0)
(-1.02577 -0.32398 0)
(-1.38884 -0.167109 0)
(-1.53936 -0.300957 0)
(-1.6406 -0.150686 0)
(-1.50855 0.0284232 0)
(-0.679388 -0.3464 0)
(-0.241714 -0.600759 0)
(-0.99634 1.01124 0)
(-0.575258 0.713882 0)
(-0.582953 0.0843992 0)
(-0.827939 -0.0439473 0)
(-0.76247 0.0815238 0)
(-0.240749 -0.424864 0)
(0.0501484 -0.559297 0)
(0.0920966 -0.281949 0)
(0.286929 -0.127853 0)
(0.42023 0.125468 0)
(0.309995 0.440308 0)
(-0.0464479 0.327829 0)
(0.0449512 -0.071265 0)
(-0.652649 -0.196759 0)
(-1.10972 -0.152349 0)
(-1.20471 -0.0778356 0)
(-1.08242 -0.233697 0)
(-0.759643 -0.293445 0)
(-0.156845 -0.842947 0)
(-0.847586 1.10781 0)
(-0.328976 0.866753 0)
(-0.280941 0.273204 0)
(-0.460015 0.0937321 0)
(-0.219432 -0.223253 0)
(0.00504433 -0.574214 0)
(0.16378 -0.655864 0)
(0.262672 -0.518922 0)
(0.410212 -0.274745 0)
(0.600083 0.00406324 0)
(0.929044 0.349105 0)
(0.950463 0.442892 0)
(0.654579 0.253377 0)
(-0.247863 0.108789 0)
(-0.871239 -0.113899 0)
(-1.13206 0.152969 0)
(-0.902317 -0.295179 0)
(-0.742858 -0.324242 0)
(-0.0843996 -0.946154 0)
(-0.719937 1.24459 0)
(0.0356761 0.814942 0)
(-0.178038 0.362749 0)
(-0.313117 -0.0576642 0)
(-0.00217189 -0.168983 0)
(0.152079 -0.723515 0)
(0.340364 -0.530587 0)
(0.467162 -0.494779 0)
(0.484946 -0.319004 0)
(0.701502 -0.172705 0)
(0.876237 0.308718 0)
(0.893686 0.473568 0)
(0.561377 0.414189 0)
(-0.311339 0.225236 0)
(-0.75815 -0.0827018 0)
(-1.01594 0.0255483 0)
(-0.681749 -0.327531 0)
(-0.470035 -0.436003 0)
(-0.00323546 -1.03142 0)
(-0.609518 1.30742 0)
(0.235841 0.816356 0)
(-0.0188668 0.496987 0)
(-0.150992 -0.0862623 0)
(0.0805223 -0.280445 0)
(0.309097 -0.724688 0)
(0.443168 -0.48552 0)
(0.490232 -0.444295 0)
(0.531623 -0.353364 0)
(0.715101 -0.227056 0)
(0.902823 0.260124 0)
(0.941359 0.527098 0)
(0.791636 0.769642 0)
(0.0316383 0.551852 0)
(-0.12043 0.0181078 0)
(-0.649969 0.0394147 0)
(-0.461973 -0.362685 0)
(-0.379619 -0.567788 0)
(0.0202612 -1.08828 0)
(-0.566249 1.5261 0)
(0.553693 1.15009 0)
(0.464241 0.650667 0)
(0.0860983 0.0292973 0)
(0.279837 -0.342581 0)
(0.383295 -0.505295 0)
(0.497581 -0.499314 0)
(0.515773 -0.498882 0)
(0.524495 -0.4387 0)
(0.691614 -0.265777 0)
(0.895101 0.325421 0)
(0.765935 0.485849 0)
(0.666994 0.853703 0)
(0.446805 0.6442 0)
(0.17284 0.116145 0)
(-0.209628 0.0704387 0)
(-0.358929 -0.247414 0)
(-0.212161 -0.522394 0)
(0.0846333 -1.08955 0)
(0.0177679 -0.059993 0)
(0.0138892 -0.0507655 0)
(0.0425461 -0.0433104 0)
(0.0347353 -0.0234876 0)
(0.0527947 -0.00901338 0)
(0.00449835 0.0268431 0)
(-0.0604806 0.0459172 0)
(-0.0894266 0.087831 0)
(-0.12704 0.0874676 0)
(-0.143083 0.08566 0)
(-0.165996 0.0701334 0)
(-0.161472 0.0510999 0)
(-0.168426 0.0380534 0)
(-0.17619 0.00801024 0)
(-0.168507 -0.0122488 0)
(-0.15733 -0.0325515 0)
(-0.155642 -0.0569236 0)
(-0.154209 -0.0328004 0)
(-0.126725 -0.0344617 0)
(-0.160439 -0.00398303 0)
(-0.191529 -0.0296651 0)
(-0.105444 -0.078914 0)
(-0.082359 -0.117236 0)
(-0.018854 -0.053601 0)
(-0.066174 -0.0424486 0)
(-0.0893933 -0.0398649 0)
(-0.16775 -0.0230974 0)
(-0.212124 0.024257 0)
(-0.21741 0.0991101 0)
(-0.251636 0.138418 0)
(-0.235418 0.114343 0)
(-0.182918 0.130049 0)
(-0.166385 0.0925953 0)
(-0.178816 0.0897932 0)
(-0.178912 0.0283834 0)
(-0.170647 0.0231806 0)
(-0.153161 0.00383033 0)
(-0.148523 -0.0172722 0)
(-0.141022 -0.0355468 0)
(-0.128104 -0.0522367 0)
(-0.120072 -0.0436954 0)
(-0.134495 -0.0809284 0)
(-0.136257 -0.0787224 0)
(-0.16808 -0.0933026 0)
(-0.174709 -0.0694212 0)
(-0.190907 -0.112804 0)
(-0.0376213 -0.0169544 0)
(-0.176109 -0.0112364 0)
(-0.236674 0.0154777 0)
(-0.239112 0.0751045 0)
(-0.440578 0.184564 0)
(-0.507907 0.0793703 0)
(-0.506844 0.0884299 0)
(-0.329829 0.12855 0)
(-0.270274 0.145177 0)
(-0.21536 0.0872548 0)
(-0.238183 0.0641178 0)
(-0.219915 0.0679263 0)
(-0.153942 0.00755725 0)
(-0.154555 -0.0058825 0)
(-0.145165 -0.0284753 0)
(-0.145144 -0.0433545 0)
(-0.118372 -0.0384514 0)
(-0.140823 -0.0710173 0)
(-0.117577 -0.088881 0)
(-0.138941 -0.0690445 0)
(-0.181974 -0.0795522 0)
(-0.131244 -0.0612234 0)
(-0.205609 -0.0296971 0)
(-0.0580322 0.0655334 0)
(-0.215725 0.106235 0)
(-0.327464 0.176315 0)
(-0.349566 0.108816 0)
(-0.633398 0.0545233 0)
(-0.67828 0.0612331 0)
(-0.641894 0.0731358 0)
(-0.401758 0.124044 0)
(-0.328943 0.0441008 0)
(-0.344511 0.0648379 0)
(-0.276097 -0.00616731 0)
(-0.354648 0.0924535 0)
(-0.269619 -0.0139451 0)
(-0.174756 -0.0164017 0)
(-0.193391 -0.0225139 0)
(-0.182699 -0.0620438 0)
(-0.17547 -0.0723029 0)
(-0.179349 -0.0994727 0)
(-0.150139 -0.0530891 0)
(-0.164872 -0.0660296 0)
(-0.186808 -0.0352261 0)
(-0.15599 -0.0647756 0)
(-0.178367 -0.0302854 0)
(-0.0794045 0.239178 0)
(-0.198079 0.231982 0)
(-0.309313 0.238236 0)
(-0.496433 0.194052 0)
(-0.688923 0.0242961 0)
(-0.588685 0.0999304 0)
(-0.535168 0.093311 0)
(-0.519 0.164246 0)
(-0.467786 0.0356144 0)
(-0.48722 0.0127763 0)
(-0.430984 -0.0767065 0)
(-0.406967 -0.100198 0)
(-0.381664 0.0558975 0)
(-0.31724 -0.0550568 0)
(-0.385157 -0.0674075 0)
(-0.412018 -0.0701496 0)
(-0.323131 -0.128812 0)
(-0.244002 -0.100587 0)
(-0.211142 -0.0362119 0)
(-0.39253 -0.0649868 0)
(-0.406148 -0.10809 0)
(-0.223695 -0.0656783 0)
(-0.19505 -0.0609084 0)
(-0.0652119 0.34206 0)
(-0.171075 0.320866 0)
(-0.299031 0.335291 0)
(-0.525285 0.271594 0)
(-0.624605 0.157596 0)
(-0.579329 0.223819 0)
(-0.424184 0.100152 0)
(-0.405434 0.123868 0)
(-0.352674 0.0509657 0)
(-0.494228 -0.0145307 0)
(-0.443329 -0.0440374 0)
(-0.355633 -0.0557419 0)
(-0.493268 -0.0669415 0)
(-0.368987 -0.0570209 0)
(-0.297211 -0.209207 0)
(-0.472449 -0.107315 0)
(-0.613777 -0.0358018 0)
(-0.62635 0.0836449 0)
(-0.925482 0.0229979 0)
(-1.10354 -0.131059 0)
(-0.697867 -0.0890295 0)
(-0.529234 -0.068482 0)
(-0.473818 -0.0511349 0)
(-0.13926 0.515399 0)
(-0.209305 0.490094 0)
(-0.201007 0.370235 0)
(-0.428422 0.289741 0)
(-0.466472 0.253542 0)
(-0.456032 0.260564 0)
(-0.425591 0.203901 0)
(-0.380338 0.0761045 0)
(-0.373567 0.00687544 0)
(-0.440644 -0.104736 0)
(-0.492642 0.0873923 0)
(-0.4717 -0.0661499 0)
(-0.768361 -0.158044 0)
(-1.02812 0.0187827 0)
(-1.24979 -0.0227204 0)
(-1.45889 0.197754 0)
(-1.56624 0.184128 0)
(-1.61492 -0.165768 0)
(-1.53186 -0.33422 0)
(-1.32666 -0.331566 0)
(-1.1609 -0.137744 0)
(-1.04082 -0.163477 0)
(-1.04777 -0.274469 0)
(-0.0570563 0.645988 0)
(-0.0878633 0.766587 0)
(-0.180284 0.561008 0)
(-0.265917 0.297143 0)
(-0.383926 0.226488 0)
(-0.358499 0.13195 0)
(-0.404351 0.0794628 0)
(-0.378353 0.042961 0)
(-0.434881 0.0787988 0)
(-0.585351 0.0122174 0)
(-0.825729 0.091815 0)
(-1.28392 0.305575 0)
(-1.50145 0.405435 0)
(-1.57033 0.375762 0)
(-1.53128 0.287362 0)
(-1.48005 0.229061 0)
(-1.76045 0.0717512 0)
(-1.85408 -0.0634492 0)
(-1.68612 -0.295888 0)
(-1.42117 -0.279609 0)
(-1.36373 -0.250908 0)
(-1.50756 -0.256933 0)
(-1.52647 -0.371598 0)
(0.0142285 0.661814 0)
(0.0459335 0.736727 0)
(-0.0535242 0.690481 0)
(-0.22049 0.436688 0)
(-0.374171 0.237547 0)
(-0.476578 0.167443 0)
(-0.654648 -0.0103196 0)
(-1.05258 0.135183 0)
(-1.7113 0.400846 0)
(-1.86972 0.646763 0)
(-1.94273 0.694851 0)
(-2.01096 0.545045 0)
(-1.9229 0.267463 0)
(-1.69374 0.125481 0)
(-1.59629 -0.00641346 0)
(-1.50638 -0.143992 0)
(-1.49164 -0.209891 0)
(-1.50336 -0.166387 0)
(-1.50753 -0.143557 0)
(-1.40873 -0.116671 0)
(-1.36899 -0.230479 0)
(-1.65616 -0.337989 0)
(-1.73596 -0.358935 0)
(0.052504 0.609517 0)
(0.154797 0.755078 0)
(0.0508591 0.751956 0)
(-0.220818 0.663507 0)
(-0.348665 0.576613 0)
(-0.604422 0.466563 0)
(-0.911257 0.582026 0)
(-1.24987 0.78379 0)
(-1.65553 0.88749 0)
(-1.75123 0.976752 0)
(-1.91122 0.697951 0)
(-1.76901 0.30521 0)
(-1.57882 -0.00905657 0)
(-1.50799 -0.103487 0)
(-1.46553 -0.124928 0)
(-1.43389 -0.111179 0)
(-1.36762 -0.165645 0)
(-1.27721 -0.239417 0)
(-1.21664 -0.233799 0)
(-1.19208 -0.230894 0)
(-1.17581 -0.304984 0)
(-1.25209 -0.329886 0)
(-1.33737 -0.158393 0)
(0.157716 0.671868 0)
(0.385379 0.932421 0)
(0.219673 0.999887 0)
(0.0587117 0.810903 0)
(-0.319199 0.895227 0)
(-0.547669 0.804633 0)
(-0.503482 0.837823 0)
(-0.501379 0.891445 0)
(-0.524286 0.781234 0)
(-0.439312 0.755512 0)
(-0.640068 0.557712 0)
(-0.583612 0.389259 0)
(-0.571624 0.283363 0)
(-0.848582 0.223857 0)
(-1.01734 0.137131 0)
(-1.06579 -0.0410401 0)
(-1.04651 -0.241358 0)
(-1.07672 -0.347783 0)
(-1.10325 -0.463683 0)
(-1.06891 -0.549529 0)
(-0.981015 -0.630221 0)
(-0.934227 -0.667133 0)
(-0.864352 -0.520491 0)
(0.263598 -0.102686 0)
(0.483569 0.598841 0)
(0.257807 1.19517 0)
(0.071526 1.18164 0)
(-0.161472 0.880352 0)
(-0.167711 0.738174 0)
(-0.437464 0.99083 0)
(-0.896385 1.14726 0)
(-1.25012 1.01681 0)
(-1.32113 0.770472 0)
(-1.41966 0.542331 0)
(-1.37029 0.408891 0)
(-1.36144 0.31222 0)
(-1.21926 0.227719 0)
(-1.12198 0.043863 0)
(-0.853732 -0.198376 0)
(-0.652618 -0.37885 0)
(-0.532093 -0.407587 0)
(-0.480975 -0.462559 0)
(-0.468702 -0.454708 0)
(-0.503068 -0.448834 0)
(-0.548866 -0.486565 0)
(-0.593694 -0.511926 0)
(0.121171 -0.638032 0)
(0.26771 0.330084 0)
(0.0801568 1.34542 0)
(-0.108129 1.20571 0)
(-0.301199 0.959079 0)
(-0.992795 1.09117 0)
(-1.45168 1.25344 0)
(-1.6357 1.12899 0)
(-1.49061 0.852989 0)
(-1.43241 0.724502 0)
(-1.34341 0.459994 0)
(-1.18913 0.356249 0)
(-0.966548 0.162936 0)
(-0.617888 0.0682653 0)
(-0.357665 -0.138371 0)
(-0.134189 -0.352759 0)
(-0.142232 -0.33955 0)
(-0.1649 -0.267835 0)
(-0.236766 -0.216504 0)
(-0.348367 -0.182274 0)
(-0.438497 -0.182869 0)
(-0.469848 -0.175587 0)
(-0.575576 -0.180126 0)
(-0.488747 -0.243097 0)
(-0.455147 0.856672 0)
(-0.459809 1.3669 0)
(-0.562401 1.52649 0)
(-0.940237 1.59309 0)
(-1.4567 1.64134 0)
(-1.66173 1.58283 0)
(-1.77174 1.20975 0)
(-1.22218 0.88861 0)
(-0.84371 0.621186 0)
(-0.646304 0.2724 0)
(-0.545818 0.110341 0)
(-0.173136 -0.241809 0)
(-0.0573212 -0.35154 0)
(0.045023 -0.420776 0)
(-0.0250087 -0.506446 0)
(-0.228864 -0.459053 0)
(-0.377448 -0.364507 0)
(-0.539549 -0.323415 0)
(-0.818299 -0.357717 0)
(-0.889911 -0.374134 0)
(-0.802646 -0.361148 0)
(-0.796693 -0.36252 0)
(-0.513593 0.232335 0)
(-0.979609 1.13008 0)
(-1.13445 1.55567 0)
(-1.08792 1.73559 0)
(-1.15051 1.73636 0)
(-1.49772 1.72846 0)
(-1.7311 1.54283 0)
(-1.6505 1.18192 0)
(-0.855643 0.846927 0)
(-0.780688 0.426825 0)
(-0.807882 0.252593 0)
(-0.199505 -0.0702407 0)
(-0.0593621 -0.30804 0)
(-0.0279927 -0.308243 0)
(0.0322822 -0.334326 0)
(-0.00864538 -0.464987 0)
(-0.0394514 -0.432839 0)
(-0.0970822 -0.25252 0)
(-0.0618358 0.0290039 0)
(-0.0546171 0.0883689 0)
(-0.24123 -0.0734414 0)
(-0.31816 -0.399831 0)
(-0.30228 -0.459114 0)
(-0.747082 0.855166 0)
(-1.31492 1.3236 0)
(-1.37695 1.66291 0)
(-1.28971 1.75249 0)
(-1.3186 1.67075 0)
(-1.44526 1.66009 0)
(-1.52718 1.31267 0)
(-1.31122 1.11584 0)
(-0.638125 0.454904 0)
(-0.63206 0.0042766 0)
(-0.312293 -0.128585 0)
(-0.0564017 -0.187565 0)
(0.0503568 -0.420922 0)
(0.136126 -0.411387 0)
(0.153383 -0.353938 0)
(0.120426 -0.374834 0)
(0.0980905 -0.313535 0)
(0.0404565 -0.228896 0)
(0.0847026 -0.195652 0)
(0.250719 -0.0673279 0)
(0.252037 -0.128835 0)
(0.183596 -0.191645 0)
(0.057204 -0.142771 0)
(-0.854725 1.42613 0)
(-1.35888 1.76941 0)
(-1.41725 1.88971 0)
(-1.32229 1.9477 0)
(-1.31322 1.77503 0)
(-1.20001 1.59911 0)
(-0.947674 1.0504 0)
(-0.969822 0.649885 0)
(-0.525624 0.252431 0)
(-0.0886011 -0.201281 0)
(0.0910107 -0.225645 0)
(0.0876792 -0.498881 0)
(0.117964 -0.448644 0)
(0.164013 -0.411026 0)
(0.178245 -0.308723 0)
(0.145547 -0.307697 0)
(0.151352 -0.304178 0)
(0.122585 -0.262176 0)
(0.168848 -0.230637 0)
(0.270349 -0.172599 0)
(0.30468 -0.236338 0)
(0.29219 -0.27303 0)
(0.210743 -0.260573 0)
(-0.830305 1.91837 0)
(-1.23877 2.09559 0)
(-1.2374 2.12503 0)
(-1.10437 2.02185 0)
(-1.20394 1.97548 0)
(-0.743239 1.43328 0)
(-0.499227 0.802919 0)
(-0.195855 0.275067 0)
(-0.00545971 -0.214884 0)
(0.397668 -0.502217 0)
(0.334641 -0.422671 0)
(0.247129 -0.555039 0)
(0.300371 -0.642025 0)
(0.208108 -0.456714 0)
(0.173865 -0.288905 0)
(0.155503 -0.312142 0)
(0.187316 -0.241587 0)
(0.213843 -0.179482 0)
(0.234047 -0.198397 0)
(0.294043 -0.183226 0)
(0.398063 -0.22006 0)
(0.339256 -0.2693 0)
(0.278105 -0.286201 0)
(-0.728018 2.31646 0)
(-0.938695 2.22284 0)
(-0.741947 2.06634 0)
(-0.376371 1.7963 0)
(-1.00231 1.88554 0)
(-0.236845 1.42268 0)
(0.00228641 0.71221 0)
(0.203919 0.0123945 0)
(0.389304 -0.394163 0)
(0.794864 -0.576266 0)
(0.801573 -0.551903 0)
(0.492792 -0.546947 0)
(0.457262 -0.603548 0)
(0.489999 -0.514558 0)
(0.258111 -0.319091 0)
(0.217978 -0.227157 0)
(0.310474 -0.175534 0)
(0.240573 -0.151547 0)
(0.248494 -0.163543 0)
(0.309354 -0.146325 0)
(0.290858 -0.194574 0)
(0.267281 -0.264694 0)
(0.269424 -0.217303 0)
(-0.241733 2.87 0)
(-0.543664 2.51612 0)
(-0.183973 2.43279 0)
(0.207781 1.45827 0)
(-0.199613 1.45842 0)
(0.596408 1.15704 0)
(0.842334 0.475432 0)
(1.01983 0.0444218 0)
(0.993288 -0.320857 0)
(1.01647 -0.41376 0)
(0.878471 -0.361511 0)
(0.520899 -0.442333 0)
(0.548457 -0.355294 0)
(0.569266 -0.333571 0)
(0.461338 -0.28762 0)
(0.249108 -0.21937 0)
(0.284792 -0.209265 0)
(0.275722 -0.239669 0)
(0.334786 -0.219445 0)
(0.323704 -0.182926 0)
(0.289387 -0.199328 0)
(0.318843 -0.240826 0)
(0.336493 -0.185773 0)
(0.105275 3.35965 0)
(0.121969 2.73348 0)
(0.090824 2.138 0)
(0.335368 1.35979 0)
(0.718338 1.35145 0)
(1.50257 0.77105 0)
(1.69855 0.26354 0)
(1.40561 -0.0950001 0)
(0.897533 -0.33761 0)
(1.02642 -0.35178 0)
(0.992413 -0.336243 0)
(0.585726 -0.324488 0)
(0.5481 -0.243945 0)
(0.548459 -0.228884 0)
(0.448886 -0.202113 0)
(0.38881 -0.172772 0)
(0.399784 -0.16682 0)
(0.3403 -0.180889 0)
(0.415976 -0.192051 0)
(0.422788 -0.262865 0)
(0.304236 -0.282259 0)
(0.295087 -0.28077 0)
(0.342704 -0.238273 0)
(0.147776 3.38667 0)
(0.316063 2.72558 0)
(0.788861 1.54467 0)
(1.14784 1.19446 0)
(1.36846 1.22253 0)
(1.72904 0.664991 0)
(1.72219 0.174122 0)
(1.16674 -0.209131 0)
(1.11585 -0.223013 0)
(1.07272 -0.0731968 0)
(0.872966 -0.0621113 0)
(0.70322 -0.150099 0)
(0.697949 -0.128874 0)
(0.664637 -0.217795 0)
(0.625234 -0.186563 0)
(0.50175 -0.128003 0)
(0.474145 -0.131204 0)
(0.403543 -0.120065 0)
(0.368844 -0.0458855 0)
(0.338969 -0.196402 0)
(0.324656 -0.237733 0)
(0.370434 -0.202925 0)
(0.408858 -0.241715 0)
(0.259892 2.8078 0)
(0.55406 2.28393 0)
(1.25341 1.64773 0)
(1.43962 1.10317 0)
(1.45694 0.95343 0)
(1.3419 0.673265 0)
(1.23985 -0.0208443 0)
(1.10958 0.00211454 0)
(1.01595 0.133895 0)
(1.11549 0.0077262 0)
(0.884521 -0.130538 0)
(0.491407 -0.0212478 0)
(0.484192 -0.0498493 0)
(0.524392 -0.0664091 0)
(0.63129 -0.120051 0)
(0.522605 -0.152422 0)
(0.531874 -0.131029 0)
(0.556354 -0.143635 0)
(0.479919 -0.141953 0)
(0.341618 -0.194557 0)
(0.37547 -0.150302 0)
(0.324322 -0.151142 0)
(0.380737 -0.211836 0)
(0.318491 2.06737 0)
(0.783539 1.94666 0)
(1.34337 1.49176 0)
(1.38842 1.09136 0)
(1.23282 0.697605 0)
(1.04883 0.533476 0)
(1.14189 0.34713 0)
(1.31431 0.202105 0)
(1.10763 0.277938 0)
(0.792253 0.135851 0)
(0.723729 -0.0737899 0)
(0.68091 -0.00146988 0)
(0.60254 -0.0181214 0)
(0.58797 0.0271684 0)
(0.55075 -0.0098506 0)
(0.533177 -0.115634 0)
(0.546888 -0.058455 0)
(0.459617 0.0164638 0)
(0.405183 -0.133344 0)
(0.435035 -0.188097 0)
(0.44837 -0.204372 0)
(0.383008 -0.162992 0)
(0.434413 -0.119248 0)
(0.36099 1.99738 0)
(0.739056 1.93153 0)
(0.996469 1.44709 0)
(1.15283 0.986436 0)
(1.13665 0.793897 0)
(0.994612 0.732239 0)
(0.980412 0.643497 0)
(1.08314 0.439682 0)
(0.885455 0.121371 0)
(0.79411 0.125513 0)
(0.768687 0.113471 0)
(0.672654 0.0710676 0)
(0.577178 0.0373038 0)
(0.553614 0.0259074 0)
(0.480008 -0.0251927 0)
(0.536038 -0.0698544 0)
(0.777033 -0.0565118 0)
(0.641242 -0.0563404 0)
(0.332314 -0.155468 0)
(0.382967 -0.186096 0)
(0.546682 -0.167697 0)
(0.478309 -0.162415 0)
(0.490186 -0.0900008 0)
(0.231892 1.9518 0)
(0.46518 1.72334 0)
(0.500828 1.45122 0)
(0.680224 1.161 0)
(0.95803 0.884898 0)
(0.854609 0.840498 0)
(0.828329 0.716885 0)
(0.754811 0.539088 0)
(0.774368 0.274964 0)
(0.779585 0.271319 0)
(0.737361 0.220255 0)
(0.603702 0.147638 0)
(0.569241 0.115843 0)
(0.540034 0.120502 0)
(0.476728 0.0532844 0)
(0.542536 0.121689 0)
(0.596705 -0.00760963 0)
(0.398435 -0.0562378 0)
(0.362094 -0.111932 0)
(0.491576 -0.130443 0)
(0.521793 -0.155685 0)
(0.456419 -0.194945 0)
(0.497711 -0.132282 0)
(0.154704 1.55676 0)
(0.2927 1.30291 0)
(0.417047 1.24304 0)
(0.514086 1.13184 0)
(0.588739 0.975072 0)
(0.576303 0.816171 0)
(0.611782 0.737103 0)
(0.630236 0.607946 0)
(0.618559 0.502707 0)
(0.581385 0.385773 0)
(0.574724 0.247667 0)
(0.523926 0.219487 0)
(0.534029 0.139171 0)
(0.486842 0.151715 0)
(0.52253 0.149834 0)
(0.653753 0.178433 0)
(0.682425 0.0688646 0)
(0.561022 -0.00980556 0)
(0.263201 -0.0793358 0)
(0.387056 -0.103995 0)
(0.545848 -0.332854 0)
(0.541638 -0.237328 0)
(0.517313 -0.121634 0)
(0.059319 1.25454 0)
(0.213851 1.12023 0)
(0.392971 1.05345 0)
(0.522252 0.904318 0)
(0.516048 0.808433 0)
(0.406482 0.689853 0)
(0.476415 0.640867 0)
(0.483121 0.539584 0)
(0.526182 0.451772 0)
(0.490201 0.355279 0)
(0.506907 0.270447 0)
(0.449724 0.240025 0)
(0.48138 0.216856 0)
(0.524981 0.174851 0)
(0.499851 0.199304 0)
(0.548495 0.156317 0)
(0.574925 0.0975164 0)
(0.472936 -0.048021 0)
(0.442247 -0.0647997 0)
(0.405452 -0.0790359 0)
(0.478975 -0.202581 0)
(0.681966 -0.198585 0)
(0.588433 -0.160669 0)
(0.0578158 1.09969 0)
(0.158518 1.03902 0)
(0.239127 0.945912 0)
(0.338461 0.858156 0)
(0.360829 0.617039 0)
(0.378821 0.620967 0)
(0.418822 0.584192 0)
(0.41471 0.496677 0)
(0.444697 0.444498 0)
(0.433624 0.383283 0)
(0.444939 0.328175 0)
(0.422889 0.263498 0)
(0.439478 0.255074 0)
(0.455255 0.18679 0)
(0.466998 0.173981 0)
(0.488386 0.105077 0)
(0.476765 0.10928 0)
(0.42047 0.0515692 0)
(0.413486 0.0133489 0)
(0.339224 -0.00878423 0)
(0.414428 0.000284031 0)
(0.611345 -0.208919 0)
(0.613793 -0.20685 0)
(0.0425536 0.89434 0)
(0.121483 0.845552 0)
(0.17902 0.762541 0)
(0.25834 0.728293 0)
(0.290354 0.639502 0)
(0.300651 0.596705 0)
(0.344521 0.550352 0)
(0.346352 0.470025 0)
(0.379218 0.422309 0)
(0.364444 0.351717 0)
(0.399997 0.309518 0)
(0.38123 0.254111 0)
(0.391324 0.227677 0)
(0.424278 0.132937 0)
(0.421555 0.167139 0)
(0.489721 0.151659 0)
(0.472833 0.154599 0)
(0.349408 0.046339 0)
(0.40056 -0.00591547 0)
(0.411648 -0.00778257 0)
(0.396267 0.00871466 0)
(0.458868 -0.0731415 0)
(0.651246 -0.111447 0)
(0.0314827 0.771936 0)
(0.0919149 0.735022 0)
(0.142902 0.667644 0)
(0.190848 0.636571 0)
(0.232892 0.585386 0)
(0.247615 0.531135 0)
(0.286437 0.494428 0)
(0.295063 0.433024 0)
(0.321035 0.398122 0)
(0.318054 0.33521 0)
(0.334839 0.310976 0)
(0.347025 0.268986 0)
(0.308122 0.22517 0)
(0.379034 0.159436 0)
(0.513121 0.152915 0)
(0.511627 0.226438 0)
(0.45256 0.0824925 0)
(0.215848 -0.0176342 0)
(0.334094 -0.0248969 0)
(0.4836 0.0374319 0)
(0.452091 -0.0440304 0)
(0.564482 -0.0941301 0)
(0.645145 -0.202934 0)
(0.0249364 0.667438 0)
(0.0740469 0.633862 0)
(0.117843 0.583014 0)
(0.153344 0.554086 0)
(0.191454 0.523756 0)
(0.212985 0.482248 0)
(0.244328 0.451686 0)
(0.254907 0.402302 0)
(0.277303 0.372012 0)
(0.279106 0.318194 0)
(0.290162 0.29283 0)
(0.311223 0.286492 0)
(0.280312 0.254581 0)
(0.329245 0.27385 0)
(0.512637 0.16883 0)
(0.474789 0.167037 0)
(0.349316 0.0167371 0)
(0.39185 0.122605 0)
(0.560133 0.0871075 0)
(0.457231 -0.0906685 0)
(0.32228 -0.0171312 0)
(0.396775 -0.0773806 0)
(0.625151 -0.221407 0)
(0.0200338 0.579826 0)
(0.0598067 0.548609 0)
(0.0953741 0.512953 0)
(0.124288 0.489476 0)
(0.153701 0.466048 0)
(0.175768 0.431764 0)
(0.200308 0.405887 0)
(0.213374 0.375568 0)
(0.233103 0.341983 0)
(0.235142 0.318604 0)
(0.260128 0.289373 0)
(0.28301 0.305151 0)
(0.297858 0.238104 0)
(0.329964 0.276471 0)
(0.381543 0.252977 0)
(0.315722 0.132653 0)
(0.362995 0.158754 0)
(0.404041 0.119842 0)
(0.295941 0.0277831 0)
(0.419478 -0.0816289 0)
(0.459769 -0.0802966 0)
(0.409826 -0.0415722 0)
(0.440089 -0.119468 0)
(0.0164819 0.514627 0)
(0.0505151 0.485575 0)
(0.0792638 0.459181 0)
(0.10533 0.439648 0)
(0.131382 0.420243 0)
(0.150907 0.391604 0)
(0.177248 0.369598 0)
(0.186204 0.340915 0)
(0.217405 0.31527 0)
(0.213444 0.281398 0)
(0.25668 0.259352 0)
(0.24512 0.240848 0)
(0.246329 0.166944 0)
(0.373527 0.212972 0)
(0.324185 0.19999 0)
(0.306606 0.0638362 0)
(0.345756 0.114137 0)
(0.314358 -0.000856688 0)
(0.350028 -0.0118404 0)
(0.37837 -0.0401878 0)
(0.404723 -0.158044 0)
(0.390411 -0.136139 0)
(0.394599 -0.188233 0)
(0.0132053 0.448837 0)
(0.0401565 0.423941 0)
(0.061872 0.404814 0)
(0.0834847 0.388296 0)
(0.102612 0.37261 0)
(0.119169 0.34809 0)
(0.137907 0.330721 0)
(0.145405 0.308089 0)
(0.172346 0.284792 0)
(0.167893 0.281904 0)
(0.199253 0.251617 0)
(0.184066 0.137355 0)
(0.253132 0.154944 0)
(0.400082 0.229181 0)
(0.296521 0.105685 0)
(0.256867 0.0707853 0)
(0.295097 -0.0382871 0)
(0.314193 0.00267349 0)
(0.252171 -0.0357648 0)
(0.316743 -0.0216854 0)
(0.436247 -0.147167 0)
(0.367237 -0.088717 0)
(0.391272 -0.123959 0)
(0.0103393 0.411516 0)
(0.0345988 0.390362 0)
(0.0513308 0.374346 0)
(0.0716082 0.360259 0)
(0.0886212 0.346592 0)
(0.103162 0.323364 0)
(0.125451 0.308746 0)
(0.130906 0.277659 0)
(0.174964 0.25593 0)
(0.152584 0.230258 0)
(0.108547 0.230271 0)
(0.168387 0.150349 0)
(0.309352 0.230534 0)
(0.36033 0.187388 0)
(0.240104 0.136275 0)
(0.214627 0.0595469 0)
(0.287544 0.0366388 0)
(0.370346 0.0274591 0)
(0.387012 0.0343903 0)
(0.286033 0.0113282 0)
(0.328972 -0.07717 0)
(0.403946 -0.161729 0)
(0.317631 -0.284607 0)
(0.00682712 0.35969 0)
(0.0270578 0.342393 0)
(0.0384056 0.330267 0)
(0.0556729 0.316888 0)
(0.0646375 0.30684 0)
(0.0795182 0.282681 0)
(0.0870048 0.272011 0)
(0.0982696 0.231873 0)
(0.104323 0.22898 0)
(0.116692 0.156268 0)
(0.0813971 0.220968 0)
(0.167823 0.197793 0)
(0.310016 0.275267 0)
(0.222315 0.0599631 0)
(0.184484 0.103252 0)
(0.225088 0.077746 0)
(0.315056 0.106472 0)
(0.365966 -0.0171782 0)
(0.315063 -0.0298786 0)
(0.208815 -0.179461 0)
(0.285633 -0.139949 0)
(0.245708 -0.200071 0)
(0.32553 -0.332661 0)
(0.00481173 0.346216 0)
(0.0225513 0.32996 0)
(0.0297552 0.317582 0)
(0.0458545 0.310817 0)
(0.0507242 0.296117 0)
(0.0669807 0.280555 0)
(0.0672002 0.26742 0)
(0.086786 0.234839 0)
(0.0711629 0.234815 0)
(0.110345 0.215111 0)
(0.127048 0.221922 0)
(0.216542 0.289759 0)
(0.191417 0.246545 0)
(0.174373 0.119412 0)
(0.194671 0.125869 0)
(0.196555 0.120768 0)
(0.231342 0.0628171 0)
(0.211067 0.0110258 0)
(0.174696 -0.0823994 0)
(0.210391 -0.158868 0)
(0.390822 -0.142861 0)
(0.246169 -0.199871 0)
(0.282349 -0.1955 0)
(0.000891463 0.298328 0)
(0.0118766 0.287052 0)
(0.0221648 0.27884 0)
(0.0317248 0.271312 0)
(0.0307542 0.261264 0)
(0.0488352 0.247415 0)
(0.0321982 0.235288 0)
(0.0673856 0.222625 0)
(0.0811854 0.203955 0)
(0.10502 0.205903 0)
(0.12768 0.174108 0)
(0.200636 0.147617 0)
(0.0809098 0.0480326 0)
(0.122406 0.0901363 0)
(0.169179 0.0422552 0)
(0.143883 0.0883135 0)
(0.134328 0.0403184 0)
(0.170838 0.0104441 0)
(0.145947 -0.0296357 0)
(0.177963 -0.0505843 0)
(0.330868 -0.194607 0)
(0.217195 -0.270726 0)
(0.183745 -0.217352 0)
(0.00276897 0.331025 0)
(0.0147349 0.298449 0)
(0.0141335 0.278321 0)
(0.0269412 0.311244 0)
(0.0247539 0.255625 0)
(0.0392691 0.289991 0)
(0.0344293 0.231724 0)
(0.0519038 0.271872 0)
(0.0502842 0.202093 0)
(0.0741355 0.204058 0)
(0.0831352 0.169256 0)
(0.13804 0.119248 0)
(0.0895135 0.0557855 0)
(0.118904 0.123458 0)
(0.185609 0.0356416 0)
(0.14103 0.0542924 0)
(0.0702969 0.0203716 0)
(0.148708 0.00924666 0)
(0.162878 -0.0631249 0)
(0.0703668 -0.0926019 0)
(0.210331 -0.154411 0)
(0.180899 -0.278387 0)
(0.063385 -0.280213 0)
(-0.0286442 0.224189 0)
(-0.0349556 0.241579 0)