/*--------------------------------*- C++ -*----------------------------------*\
| =========                 |                                                 |
| \\      /  F ield         | foam-extend: Open Source CFD                    |
|  \\    /   O peration     | Version:     4.1                                |
|   \\  /    A nd           | Web:         http://www.foam-extend.org         |
|    \\/     M anipulation  |                                                 |
\*---------------------------------------------------------------------------*/
FoamFile
{
    version     2.0;
    format      ascii;
    class       volScalarField;
    location    "0.15";
    object      alpha1;
}
// * * * * * * * * * * * * * * * * * * * * * * * * * * * * * * * * * * * * * //

dimensions      [0 0 0 0 0 0 0];

internalField   nonuniform List<scalar> 
2268
(
1
1
1
1
1
1
1
1
1
1
1
1
1
1
1
1
1
1
1
1
1
1
0.953026
1
0.999999
1
1
1
1
1
1
1
1
1
1
1
1
1
1
1
1
1
1
1
0.999999
0.925548
1
0.999999
1
1
1
1
1
1
1
1
1
1
1
1
1
1
1
1
1
1
1
0.999999
0.869983
0.999999
0.999999
1
1
1
1
1
1
1
1
1
1
1
1
1
1
1
1
1
0.999999
0.999999
0.999998
0.87838
0.999999
0.999999
1
1
1
1
1
1
1
1
1
1
1
1
1
1
1
1
1
0.999998
0.999998
0.999994
0.93204
0.999999
1
1
1
1
1
1
1
1
1
1
1
1
1
1
1
1
1
0.999999
0.999994
0.999995
0.999986
0.975109
1
1
1
1
1
1
1
1
1
1
1
1
1
1
1
1
1
1
0.999998
0.999979
0.999988
0.999967
0.992444
1
1
1
1
1
1
1
1
1
1
1
1
1
1
1
1
1
1
0.999992
0.999923
0.999944
0.999963
0.998289
6.07365e-31
1.08699e-29
8.8582e-29
3.33883e-28
1.76032e-30
1.24786e-32
2.96372e-34
1.34416e-35
1.97529e-37
5.51955e-39
9.54804e-41
1.52083e-42
3.2967e-44
6.47038e-47
4.11456e-48
9.98304e-51
6.25448e-53
1.83351e-55
3.26955e-58
2.4417e-28
3.70478e-27
2.78614e-26
1.11665e-25
1.45281e-28
1.1121e-30
2.60573e-32
1.00436e-33
1.67218e-35
4.80563e-37
8.74158e-39
1.39859e-40
1.81692e-42
1.85219e-44
2.6998e-46
1.19426e-48
7.48735e-51
2.939e-53
5.60844e-56
6.539e-26
5.94219e-25
3.10175e-24
1.06071e-23
6.4913e-27
4.33995e-29
1.05963e-30
3.45932e-32
6.20803e-34
1.79066e-35
3.5256e-37
6.08579e-39
7.29879e-41
6.85893e-43
8.69855e-45
4.56842e-47
2.86211e-49
1.06133e-51
2.03985e-54
9.09949e-24
5.82459e-23
1.98195e-22
4.71333e-22
2.46673e-25
1.02368e-27
2.71241e-29
7.42861e-31
1.33339e-32
3.77996e-34
8.07305e-36
1.4656e-37
1.38096e-39
1.71586e-41
2.0278e-43
1.39234e-45
9.41926e-48
3.82105e-50
7.47939e-53
3.26916e-22
1.79719e-21
5.23781e-21
9.58666e-21
8.61017e-24
1.57867e-26
4.77822e-28
1.1682e-29
1.93296e-31
5.19394e-33
1.1058e-34
1.97331e-36
1.53059e-38
2.63848e-40
2.9826e-42
2.21029e-44
1.50905e-46
6.21248e-49
1.23536e-51
4.55104e-21
1.96629e-20
5.53754e-20
1.02674e-19
1.79765e-22
1.80944e-25
6.25631e-27
1.47569e-28
2.32721e-30
5.86654e-32
1.18763e-33
1.46989e-35
1.4039e-37
2.43042e-39
3.03961e-41
2.58453e-43
1.80421e-45
7.64365e-48
1.52283e-50
2.07158e-20
9.49995e-20
2.88893e-19
5.83666e-19
2.4557e-21
1.63269e-24
5.66114e-26
1.5092e-27
2.7932e-29
7.40736e-31
1.09409e-32
1.14399e-34
8.55936e-37
1.36007e-38
1.76603e-40
1.79458e-42
1.31037e-44
6.03922e-47
1.21863e-49
2.41964e-20
5.68894e-20
5.52462e-20
8.57813e-19
4.4615e-20
2.13382e-23
3.87599e-25
1.21877e-26
2.98241e-28
7.12585e-30
1.30381e-31
1.50989e-33
4.79119e-36
4.545e-38
2.40754e-40
1.12047e-42
6.3728e-45
2.52144e-47
5.05914e-50
1
1
1
1
1
1
1
1
1
1
1
1
1
1
1
0.999998
0.999975
0.99972
0.996571
0.99629
0.998155
0.999764
0.999726
1
1
1
1
1
1
1
1
1
1
1
1
1
1
0.999999
0.999945
0.998545
0.994484
0.976362
0.88577
0.950206
0.987127
0.998078
1
1
1
1
1
1
1
1
1
1
1
1
1
0.999999
0.999984
0.999069
0.967706
0.884308
0.723294
0.328317
0.433928
0.615824
0.903169
1
1
1
1
1
1
1
1
1
1
1
1
1
0.999993
0.99943
0.985455
0.73954
0.201478
0.0472657
0.0189207
0.0449604
0.0840996
0.50733
1
1
1
1
1
1
1
1
1
1
1
0.999998
0.999999
0.999958
0.987168
0.827001
0.289254
0.0246158
0.000678633
0.000135336
0.000959603
0.00299923
0.131857
1
1
1
1
1
1
1
1
1
1
1
0.999921
0.999911
0.998046
0.847533
0.24478
0.0285926
0.00152115
2.54625e-05
1.29054e-07
3.85908e-06
3.48473e-05
0.0185186
1
1
1
1
1
1
1
1
1
1
1
0.999362
0.997421
0.948163
0.351185
0.0304344
0.000848377
5.95476e-06
9.643e-08
1.03382e-11
2.50045e-09
1.03291e-07
0.00102888
1
1
1
1
1
0.999999
0.999992
0.999967
0.999988
1
0.999997
0.997962
0.962879
0.590519
0.0670078
0.00173486
8.83258e-06
8.06089e-09
3.94375e-11
1.09632e-16
1.27041e-13
4.00717e-11
1.10646e-05
0.999982
0.99998
0.999961
0.999908
0.999761
0.999224
0.996956
0.992882
0.998194
0.999969
0.999978
0.988122
0.762883
0.153101
0.00647468
6.27023e-05
1.32812e-08
9.07001e-12
2.21908e-15
4.51906e-19
4.34217e-19
8.51743e-16
1.03277e-08
0.995368
0.994906
0.992378
0.987302
0.976943
0.951778
0.887352
0.820578
0.959968
0.999046
0.998958
0.81197
0.463941
0.0628521
0.00247105
1.19087e-05
3.61734e-12
5.91924e-15
5.05609e-19
3.0382e-19
1.55426e-19
7.45812e-20
3.45849e-13
0.861881
0.853688
0.819635
0.764413
0.673978
0.532882
0.325413
0.196152
0.756928
0.971716
0.964607
0.223542
0.366288
0.0864805
0.00491934
3.00611e-05
4.08789e-09
1.78465e-18
3.91841e-19
1.68026e-19
9.62068e-20
5.00403e-20
1.9363e-19
0.27653
0.260312
0.208229
0.144434
0.0857354
0.0414118
0.012753
0.00917988
0.377342
0.657965
0.735898
0.0323029
0.153316
0.0896438
0.00680439
1.40556e-05
8.56838e-10
6.60459e-19
2.7808e-19
8.70277e-20
4.50182e-20
2.47903e-20
5.10632e-21
0.00957096
0.00839117
0.00638347
0.00436258
0.00257697
0.00147083
0.000655761
0.00289721
0.0342879
0.0749127
0.132653
0.0129391
0.0156008
0.0364492
0.0156417
8.65952e-06
3.97459e-10
8.01824e-16
1.69188e-19
4.27758e-20
1.78397e-20
9.74164e-21
3.64309e-21
0.000351043
0.000286295
0.000261005
0.000204339
0.000130972
8.5148e-05
5.78839e-05
0.000447357
0.00108939
0.00142859
0.00242356
0.0012735
0.00132347
0.0052319
0.0175886
0.00563344
0.000126068
2.19474e-08
2.85741e-16
1.88725e-20
6.53932e-21
3.04637e-21
1.87871e-21
1.85153e-05
1.42316e-05
1.2565e-05
1.08216e-05
7.67259e-06
5.27934e-06
5.24736e-06
1.50207e-05
1.71975e-05
2.78667e-05
3.62392e-05
2.63363e-05
0.000104936
0.000524852
0.00663825
0.00209169
3.31214e-05
4.9209e-09
2.68688e-16
7.62552e-21
2.03302e-21
1.09558e-21
7.41352e-22
9.93588e-07
6.99088e-07
4.85184e-07
5.13629e-07
3.48306e-07
2.64838e-07
2.18914e-07
1.8231e-07
2.28832e-07
2.03523e-06
4.21087e-06
1.36541e-05
7.77651e-05
0.000535413
0.00179153
0.000674963
3.36613e-06
4.46343e-10
1.17284e-16
2.25633e-21
7.54446e-22
3.1979e-22
2.34928e-22
5.31638e-08
3.3121e-08
1.60863e-08
2.36749e-08
1.5091e-08
9.71764e-09
4.16744e-09
6.56799e-09
1.4447e-07
3.28047e-06
2.001e-05
0.000123024
0.000517286
0.00115946
0.00103894
0.000121661
2.99431e-07
4.36666e-11
3.67422e-17
6.98062e-22
2.06634e-22
7.99716e-23
6.85195e-23
2.62967e-09
1.47482e-09
4.45859e-10
1.06066e-09
7.49268e-10
3.93736e-10
1.03312e-10
5.75131e-09
6.29244e-07
9.79941e-06
5.4249e-05
0.000257762
0.000722323
0.000941102
0.000424912
1.64402e-05
2.10409e-08
3.65698e-12
8.7652e-18
1.8778e-22
4.90083e-23
1.75669e-23
1.52995e-23
1.10684e-10
5.27517e-11
5.13857e-12
5.44059e-11
3.60308e-11
2.27945e-11
7.45911e-11
1.88032e-08
8.12788e-07
1.03386e-05
4.491e-05
7.50574e-05
0.000116106
0.000151408
0.000122889
4.54385e-06
1.69809e-09
2.29058e-13
1.62627e-18
4.28834e-23
1.02115e-23
3.30485e-24
2.54077e-24
1.1516e-24
3.45798e-23
2.25918e-21
1.15925e-20
1.38749e-19
2.82026e-14
1.71266e-10
2.41052e-08
1.58222e-07
3.66925e-07
9.33465e-07
3.25287e-06
1.31268e-05
2.35655e-05
1.735e-05
1.38274e-06
6.33938e-11
3.77444e-15
2.9985e-19
9.21826e-24
1.92945e-24
5.17187e-25
3.11554e-25
2.40846e-24
7.63138e-23
1.83944e-21
2.23953e-20
2.58537e-19
1.06115e-15
7.46399e-13
5.16524e-11
9.05827e-10
1.17818e-08
7.19486e-08
3.20884e-07
7.39529e-07
1.05814e-06
6.24926e-07
2.02915e-07
1.35978e-12
8.60257e-18
6.15436e-20
1.70866e-24
3.14316e-25
7.02647e-26
3.33981e-26
1.83935e-24
7.10277e-23
1.57494e-21
1.94266e-20
1.70846e-19
1.39566e-18
1.78807e-15
9.12933e-13
1.58039e-10
3.56564e-09
1.21168e-08
1.61583e-08
1.21327e-08
3.70218e-09
3.07658e-09
3.71555e-09
9.10206e-14
1.63379e-18
1.35642e-20
2.62246e-25
4.33023e-26
8.3058e-27
3.1444e-27
1.1713e-24
3.44997e-23
5.18309e-22
4.8729e-21
2.54353e-20
2.37194e-19
1.11007e-18
4.65578e-16
3.11411e-13
1.64336e-11
1.19919e-10
2.71796e-10
3.22817e-10
1.49537e-10
1.90267e-11
1.16256e-12
5.91811e-15
1.09274e-18
2.57408e-21
3.36545e-26
5.03793e-27
8.32948e-28
2.55014e-28
1.62615e-25
5.30481e-24
9.04483e-23
8.32028e-22
1.85939e-20
1.50195e-19
2.03037e-18
1.31643e-17
5.44308e-17
1.63504e-16
2.56564e-16
3.33563e-16
3.39256e-16
2.43158e-16
1.16737e-16
6.72391e-17
9.28933e-17
3.22277e-19
3.68662e-22
3.51703e-27
4.80735e-28
7.19217e-29
1.81113e-29
7.69388e-36
5.15396e-34
1.42382e-32
1.72485e-27
6.37393e-26
1.11613e-24
1.13851e-23
1.15877e-22
5.90779e-22
1.72908e-21
4.48675e-21
1.01103e-20
1.91457e-20
2.96976e-20
3.65938e-20
3.89868e-20
3.41498e-20
4.8715e-20
2.97759e-23
3.20988e-28
3.85938e-29
5.18941e-30
1.08444e-30
1.39727e-35
1.21473e-33
5.4096e-32
1.53091e-30
2.83772e-29
2.85097e-28
2.83796e-27
1.5227e-26
8.32455e-26
3.79344e-25
1.75437e-24
7.57927e-24
3.08214e-23
1.13927e-22
4.30512e-22
1.42202e-21
3.83882e-21
7.87993e-21
1.859e-24
2.06259e-29
2.18373e-30
3.32283e-31
5.68367e-32
8.47432e-46
2.52708e-44
7.67413e-43
2.05979e-35
2.80711e-34
2.23682e-33
1.15252e-32
5.09652e-32
1.49605e-31
3.72679e-31
7.7766e-31
1.35863e-30
2.17838e-30
5.38825e-30
3.52953e-29
3.04663e-28
2.58573e-27
1.87522e-26
1.14745e-25
1.24694e-30
1.0448e-31
1.45122e-32
2.21159e-33
1.98949e-48
9.52008e-47
1.84569e-45
2.25353e-44
3.1872e-43
4.53951e-42
5.64396e-41
5.51777e-40
4.83655e-39
5.34764e-38
7.39372e-37
1.18509e-35
1.8904e-34
2.88669e-33
4.17482e-32
5.49517e-31
6.40722e-30
6.3553e-29
5.13749e-28
6.99832e-32
4.07178e-33
5.71088e-34
7.7136e-35
4.25664e-54
5.46898e-52
3.12215e-50
1.06623e-48
2.48623e-47
4.18329e-46
5.34255e-45
4.66577e-44
3.85946e-43
2.88653e-42
2.08404e-41
1.50469e-40
1.09798e-39
8.01092e-39
5.91342e-38
4.27489e-37
3.03353e-36
2.21955e-35
1.57906e-34
1.06771e-33
1.43972e-34
1.68867e-35
2.13439e-36
7.01474e-59
9.31993e-57
5.44582e-55
1.88934e-53
5.05593e-52
1.05491e-50
1.36873e-49
1.55317e-48
1.56621e-47
1.40471e-46
1.18885e-45
1.00113e-44
8.98736e-44
8.8353e-43
9.0353e-42
9.28658e-41
9.4148e-40
9.26716e-39
8.93492e-38
8.61629e-37
7.09634e-36
4.16679e-37
4.78758e-38
1.78762e-64
3.33873e-62
2.9413e-60
1.71452e-58
7.51508e-57
1.98554e-55
4.58866e-54
9.57089e-53
1.82403e-51
3.21062e-50
5.35e-49
8.44776e-48
1.29643e-46
1.91186e-45
2.30202e-44
2.77815e-43
3.39741e-42
4.18288e-41
5.36032e-40
6.44002e-39
6.50851e-38
9.30836e-39
8.24311e-40
6.34373e-68
1.30408e-65
1.21728e-63
7.67088e-62
2.81243e-60
8.88146e-59
2.46927e-57
6.15462e-56
1.39839e-54
2.93746e-53
5.78546e-52
1.08698e-50
1.94691e-49
3.3669e-48
5.63301e-47
9.18989e-46
1.4654e-44
2.31965e-43
3.65576e-42
5.57834e-41
6.53071e-40
8.18508e-41
1.2868e-41
3.40426e-71
6.59395e-69
6.21855e-67
3.58268e-65
1.66587e-63
6.64384e-62
2.28149e-60
7.01519e-59
1.94455e-57
4.95508e-56
1.17108e-54
2.60353e-53
5.51528e-52
1.09916e-50
2.03307e-49
3.75085e-48
6.82859e-47
1.23992e-45
2.2687e-44
4.00062e-43
6.74384e-42
7.58465e-45
2.02988e-43
1.32352e-75
2.71769e-73
2.82033e-71
1.97128e-69
1.14077e-67
5.4467e-66
2.27899e-64
8.46929e-63
2.87731e-61
9.06584e-60
2.69917e-58
7.68442e-57
2.10311e-55
5.58434e-54
1.44243e-52
3.64515e-51
8.93875e-50
2.11632e-48
4.94327e-47
1.2015e-45
2.71647e-44
6.68571e-47
1.53816e-45
1.32329e-82
3.24929e-80
4.20752e-78
4.1593e-76
4.00929e-74
4.06829e-72
3.93989e-70
3.43344e-68
2.61387e-66
1.75037e-64
1.03701e-62
5.51441e-61
2.65427e-59
1.17309e-57
4.76517e-56
1.84396e-54
6.77476e-53
2.42252e-51
8.45673e-50
2.88511e-48
9.26048e-47
2.69306e-49
4.8912e-50
1.31982e-89
4.20378e-87
6.66612e-85
7.06232e-83
5.97843e-81
4.23854e-79
2.71055e-77
1.60409e-75
9.08116e-74
4.95715e-72
2.62854e-70
1.35342e-68
6.76727e-67
3.29916e-65
1.57589e-63
7.45623e-62
3.49823e-60
1.6539e-58
7.985e-57
4.04048e-55
2.10279e-53
1.07243e-51
7.57633e-52
1.26058e-95
5.29819e-93
1.07221e-90
1.39273e-88
1.30446e-86
9.61388e-85
5.81831e-83
3.07806e-81
1.52214e-79
7.76331e-78
4.37777e-76
2.72528e-74
1.77497e-72
1.17994e-70
8.16929e-69
6.43526e-67
5.98061e-65
6.1949e-63
6.26381e-61
5.78976e-59
4.65074e-57
3.28421e-55
4.24366e-54
3.41944e-103
2.68021e-100
1.0774e-97
2.95482e-95
6.33103e-93
1.12166e-90
1.71933e-88
2.33354e-86
2.8699e-84
3.24557e-82
3.42871e-80
3.4348e-78
3.29609e-76
3.06481e-74
2.77577e-72
2.49338e-70
2.23881e-68
2.15573e-66
2.1772e-64
2.32568e-62
2.68669e-60
2.92434e-58
1.32964e-56
4.43078e-109
4.54009e-106
2.35073e-103
8.3211e-101
2.29012e-98
5.2453e-96
1.04947e-93
1.89063e-91
3.14039e-89
4.89325e-87
7.25568e-85
1.03409e-82
1.42597e-80
1.92089e-78
2.55301e-76
3.43701e-74
4.63955e-72
6.40489e-70
9.20213e-68
1.38802e-65
2.0981e-63
3.19256e-61
1.80632e-59
1.0165e-116
1.52052e-113
1.12462e-110
5.66395e-108
2.23069e-105
7.29809e-103
2.09126e-100
5.42848e-98
1.32764e-95
3.17846e-93
7.80366e-91
2.06424e-88
6.09952e-86
2.01484e-83
6.68537e-81
2.04065e-78
5.45623e-76
1.3324e-73
3.00199e-71
6.49454e-69
1.40008e-66
2.94146e-64
9.45749e-63
1.68274e-123
4.96451e-120
6.61257e-117
5.67822e-114
3.61456e-111
1.82379e-108
7.64508e-106
2.74622e-103
8.68722e-101
2.46649e-98
6.42583e-96
1.55347e-93
3.61639e-91
8.13701e-89
2.05806e-86
6.28048e-84
2.2435e-81
9.86544e-79
5.08384e-76
2.86147e-73
1.69866e-70
9.43434e-68
5.55925e-66
0
0
0
0
0
0
0
0
0
0
0
0
0
0
0
3.54339e-88
6.24556e-85
3.7604e-82
1.85645e-79
8.17324e-77
3.59176e-74
2.82146e-71
5.33669e-69
0.99956
0.753718
0.00966508
9.09638e-13
0.997913
0.769144
0.0718495
0.000215666
0.988499
0.860233
0.192988
0.00408308
0.953762
0.912957
0.307212
0.0157933
0.723873
0.897785
0.609245
0.114228
0.231903
0.783376
0.748964
0.311688
0.0249604
0.241102
0.47832
0.268406
0.000631121
0.0153614
0.0608878
0.0916099
1.40581e-06
0.00013243
0.00109847
0.00735288
9.27237e-11
7.19809e-08
2.35653e-06
0.000120101
6.63944e-17
9.62403e-13
5.43978e-10
3.2929e-07
1.4964e-20
2.66387e-19
1.73835e-14
8.40523e-11
1.17857e-20
3.5813e-20
4.96105e-19
1.79644e-15
6.36182e-21
1.35302e-20
1.52881e-20
3.89342e-21
2.7187e-21
5.33353e-21
3.47122e-21
1.19223e-21
8.82871e-22
1.73588e-21
9.93607e-22
4.76425e-22
2.41067e-22
4.34813e-22
2.62238e-22
1.47494e-22
4.85219e-23
8.33732e-23
5.36557e-23
3.30796e-23
7.12435e-24
1.17669e-23
8.3844e-24
5.31145e-24
7.8992e-25
1.27641e-24
9.1771e-25
6.57195e-25
7.55741e-26
1.16907e-25
8.33897e-26
6.91593e-26
6.182e-27
9.18981e-27
6.58642e-27
6.04793e-27
4.31913e-28
6.21317e-28
4.58231e-28
4.3721e-28
2.60562e-29
3.59752e-29
2.69932e-29
2.6271e-29
1.32281e-30
1.75392e-30
1.35667e-30
1.3188e-30
5.75766e-32
7.29854e-32
5.67245e-32
5.40753e-32
1.86127e-33
2.15776e-33
2.30198e-33
2.0501e-33
5.46781e-35
5.84892e-35
5.95977e-35
5.36251e-35
1.26578e-36
1.32392e-36
1.3773e-36
1.22862e-36
2.45195e-38
2.55328e-38
2.58408e-38
2.22259e-38
4.09475e-40
4.12686e-40
4.02325e-40
3.28014e-40
5.33263e-42
5.40176e-42
4.99556e-42
3.92714e-42
5.53147e-44
5.87545e-44
5.153e-44
3.95996e-44
4.40744e-46
4.77996e-46
4.24579e-46
3.17462e-46
3.34351e-48
3.26016e-48
2.99229e-48
2.0727e-48
3.75232e-50
1.86472e-50
1.67172e-50
1.12641e-50
4.84149e-53
8.37554e-53
6.17873e-53
5.02725e-53
1.03291e-55
2.57007e-55
1.95865e-55
1.86728e-55
2.89169e-58
5.12034e-58
5.85285e-58
5.92023e-58
7.73547e-61
7.63854e-61
1.77435e-60
1.64355e-60
1.72309e-63
8.24416e-64
5.26359e-63
4.01476e-63
2.84815e-66
2.45189e-66
1.13431e-65
1.00323e-65
2.13715e-12
5.87187e-12
4.74487e-13
7.31362e-18
3.67223e-19
5.45385e-22
1.98896e-24
7.9507e-26
2.3961e-27
5.62087e-29
1.71634e-30
1.89829e-32
9.29732e-35
8.76651e-37
5.2506e-39
1.91612e-41
7.57899e-44
1.95155e-46
3.03816e-49
2.9514e-09
6.07892e-09
1.12891e-10
3.18221e-14
1.75694e-18
2.16141e-20
1.30144e-23
7.03466e-25
2.68843e-26
8.15199e-28
2.77797e-29
3.76878e-31
3.22807e-33
2.88462e-35
1.86138e-37
8.11429e-40
3.30701e-42
8.49465e-45
1.21078e-47
3.01072e-05
2.60782e-07
1.92734e-08
4.72966e-11
1.80562e-16
3.82944e-19
5.71459e-23
4.34768e-24
2.25501e-25
1.07472e-26
3.93502e-28
6.74401e-30
7.77943e-32
7.3978e-34
4.61852e-36
2.16234e-38
7.30142e-41
1.61392e-43
1.68058e-46
0.000535033
2.94635e-06
9.41345e-07
7.31847e-09
4.00185e-13
3.76875e-18
2.26517e-22
2.08254e-23
1.67432e-24
1.05288e-25
3.63482e-27
6.43671e-29
7.34816e-31
7.47837e-33
5.2479e-35
2.54042e-37
8.91461e-40
1.83933e-42
1.81614e-45
0.00622292
2.87174e-05
1.38317e-05
2.04155e-07
8.57837e-11
6.00272e-16
2.06849e-21
6.90928e-23
5.68278e-24
3.10628e-25
1.1267e-26
2.85438e-28
4.90908e-30
5.61256e-32
4.32187e-34
2.24978e-36
7.82631e-39
1.63115e-41
1.61471e-44
0.0208364
0.000206269
5.03059e-05
2.01548e-06
3.22053e-09
9.43522e-14
6.24527e-20
1.50738e-22
1.7746e-23
1.22181e-24
5.13504e-26
1.33567e-27
2.25351e-29
2.60727e-31
2.05293e-33
1.0933e-35
3.91933e-38
8.28005e-41
7.99861e-44
0.038829
0.00161895
0.000166245
9.77639e-06
3.30102e-08
2.55046e-12
1.9698e-18
2.58455e-22
3.41223e-23
2.24698e-24
8.77513e-26
2.25094e-27
3.82193e-29
4.36274e-31
3.4052e-33
1.80103e-35
6.20967e-38
1.26757e-40
1.15008e-43
0.0432525
0.00768756
0.000931362
3.67928e-05
1.27516e-07
1.34719e-11
1.52391e-17
3.4916e-22
4.7512e-23
3.16316e-24
1.20662e-25
2.86487e-27
4.41586e-29
4.57422e-31
3.25963e-33
1.57834e-35
4.99725e-38
9.39163e-41
7.84441e-44
0.0174552
0.00705633
0.000864581
1.72358e-05
2.14625e-08
5.1785e-13
7.46689e-20
7.3154e-22
8.20554e-23
4.13573e-24
1.18907e-25
2.17076e-27
2.63687e-29
2.2234e-31
1.33096e-33
5.52504e-36
1.55798e-38
2.6475e-41
2.0606e-44
0.00175272
0.0013098
0.000172048
1.55773e-06
3.87497e-10
8.49091e-16
3.07528e-21
5.43813e-22
3.99914e-23
1.55641e-24
3.64969e-26
5.57861e-28
5.8935e-30
4.44914e-32
2.46094e-34
9.66975e-37
2.60409e-39
4.31554e-42
3.31828e-45
2.31681e-05
2.36729e-05
2.29679e-06
6.62609e-09
1.96251e-13
2.77699e-20
1.57456e-21
1.64199e-22
8.19025e-24
2.45654e-25
4.87444e-27
6.74559e-29
6.75453e-31
4.96223e-33
2.71122e-35
1.06042e-37
2.83808e-40
4.62523e-43
3.48696e-46
1.98407e-08
1.867e-08
8.3717e-10
4.42464e-13
8.74226e-19
5.92867e-21
6.10781e-22
3.23991e-23
1.16735e-24
2.95455e-26
5.3145e-28
6.89625e-30
6.60568e-32
4.66468e-34
2.50662e-36
9.60893e-39
2.51747e-41
4.01622e-44
2.95433e-47
4.82229e-13
2.86977e-13
3.16991e-15
5.68875e-19
1.42968e-20
1.08624e-21
7.92094e-23
3.80554e-24
1.26368e-25
2.92019e-27
4.84344e-29
5.86869e-31
5.30851e-33
3.55619e-35
1.80551e-37
6.5162e-40
1.61729e-42
2.44918e-45
1.71766e-48
1.65174e-19
3.51263e-20
2.54573e-21
3.58316e-21
1.19652e-21
1.34841e-22
9.36203e-24
3.96615e-25
1.15846e-26
2.38626e-28
3.58154e-30
3.98401e-32
3.33323e-34
2.06757e-36
1.04521e-38
3.75345e-41
9.08655e-44
1.34203e-46
9.08266e-50
8.57535e-22
1.10874e-21
1.13649e-21
7.88677e-22
1.62826e-22
1.57763e-23
9.69756e-25
3.56285e-26
9.22837e-28
1.69889e-29
2.31187e-31
2.34855e-33
1.81325e-35
1.03702e-37
4.77431e-40
1.56998e-42
3.53488e-45
4.89781e-48
3.14143e-51
4.00825e-22
4.66019e-22
3.41428e-22
1.37297e-22
2.06495e-23
1.65968e-24
9.14513e-26
4.07775e-27
1.31772e-28
3.28457e-30
6.21819e-32
9.03546e-34
9.54826e-36
7.49444e-38
2.9526e-40
8.18501e-43
1.43342e-45
1.52125e-48
7.36448e-52
1.26493e-22
1.29547e-22
7.30762e-23
2.043e-23
2.5919e-24
2.00516e-25
1.0066e-26
3.945e-28
1.18595e-29
2.7715e-31
4.98273e-33
6.94437e-35
7.37275e-37
5.96332e-39
3.55794e-41
1.54107e-43
4.50738e-46
8.10643e-49
6.71514e-52
2.79198e-23
2.52975e-23
1.10733e-23
2.31053e-24
2.45302e-25
1.7401e-26
7.88766e-28
2.77075e-29
7.49665e-31
1.57279e-32
2.55163e-34
3.25268e-36
3.21317e-38
2.46325e-40
1.48476e-42
6.49426e-45
1.92113e-47
3.47992e-50
2.88702e-53
4.62458e-24
3.64338e-24
1.24418e-24
1.91766e-25
1.63674e-26
1.00754e-27
4.24344e-29
1.38814e-30
3.47081e-32
6.64759e-34
9.96515e-36
1.17552e-37
1.08104e-39
7.73726e-42
4.2506e-44
1.71368e-46
4.7934e-49
8.275e-52
6.60365e-55
5.94444e-25
4.12784e-25
1.13173e-25
1.28924e-26
8.97245e-28
4.3661e-29
1.57365e-30
4.53951e-32
9.97919e-34
1.85163e-35
2.70725e-37
3.01899e-39
2.64839e-41
1.79504e-43
9.33297e-46
3.57047e-48
9.52394e-51
1.5674e-53
1.19537e-56
6.1007e-26
3.80016e-26
8.44489e-27
7.22288e-28
4.1583e-29
1.66703e-30
5.18652e-32
1.3508e-33
2.74944e-35
4.61631e-37
6.43235e-39
6.71884e-41
5.59703e-43
3.51795e-45
1.70357e-47
6.11087e-50
1.53839e-52
2.39802e-55
1.7341e-58
5.09747e-27
2.82922e-27
5.23849e-28
3.45133e-29
1.62957e-30
5.52054e-32
1.47269e-33
3.19263e-35
5.69784e-37
8.41631e-39
1.09194e-40
1.1408e-42
9.37655e-45
5.6676e-47
2.63825e-49
9.04046e-52
2.17714e-54
3.17806e-57
2.16496e-60
3.51447e-28
1.73836e-28
2.71723e-29
1.41224e-30
5.53688e-32
1.58025e-33
3.67866e-35
6.90312e-37
1.07938e-38
1.40481e-40
1.56311e-42
1.49797e-44
1.17406e-46
7.25039e-49
3.32546e-51
1.11249e-53
2.60555e-56
3.64864e-59
2.3413e-62
1.9983e-29
8.74231e-30
1.19547e-30
5.04049e-32
1.65324e-33
3.94525e-35
7.99878e-37
1.32929e-38
1.84694e-40
2.16667e-42
2.1312e-44
1.8383e-46
1.28256e-48
7.33062e-51
3.16664e-53
9.99348e-56
2.23115e-58
3.27673e-61
2.04269e-64
9.55326e-31
3.67579e-31
4.43001e-32
1.54475e-33
4.38929e-35
8.87503e-37
1.52856e-38
2.31612e-40
2.88141e-42
3.04911e-44
2.69861e-46
2.1213e-48
1.35673e-50
7.08326e-53
2.85427e-55
8.42487e-58
1.75561e-60
2.43695e-63
1.56459e-66
3.72161e-32
1.26841e-32
1.41151e-33
4.14446e-35
1.03032e-36
1.78687e-38
2.6307e-40
3.54865e-42
4.00669e-44
3.91529e-46
3.20843e-48
2.31133e-50
1.37113e-52
6.54863e-55
2.48533e-57
6.95232e-60
1.36145e-62
1.77601e-65
1.08234e-68
1.22718e-33
3.7359e-34
3.76779e-35
9.43573e-37
2.16839e-38
3.25559e-40
4.14354e-42
5.04721e-44
5.14829e-46
4.66115e-48
3.46167e-50
2.33758e-52
1.32549e-54
5.79034e-57
2.05503e-59
5.42099e-62
9.99334e-65
1.25756e-67
7.33323e-71
2.97482e-35
8.25851e-36
9.16336e-37
2.00205e-38
4.02502e-40
5.197e-42
5.79145e-44
6.63446e-46
5.93812e-48
5.12866e-50
3.73836e-52
2.28272e-54
1.22379e-56
4.91316e-59
1.67216e-61
4.32672e-64
8.3299e-67
9.7712e-70
5.50461e-73
6.49453e-37
1.5928e-37
1.5361e-38
3.16895e-40
7.06558e-42
7.89334e-44
7.65936e-46
8.87846e-48
6.49047e-50
4.90846e-52
3.47906e-54
2.03313e-56
1.11172e-58
4.20934e-61
1.31951e-63
3.0937e-66
5.88124e-69
6.88508e-72
3.84551e-75
1.13764e-38
2.55264e-39
2.40968e-40
4.64479e-42
9.23905e-44
9.22244e-46
8.07264e-48
1.08092e-49
6.69672e-52
4.875e-54
3.86568e-56
1.9094e-58
9.30313e-61
3.36916e-63
1.11433e-65
2.98421e-68
5.21545e-71
6.03128e-74
3.59773e-77
1.66225e-40
3.44167e-41
3.13338e-42
5.70102e-44
1.11555e-45
1.05766e-47
8.23967e-50
1.00055e-51
5.50895e-54
3.63534e-56
3.54997e-58
1.55785e-60
9.76897e-63
2.90603e-65
7.67383e-68
2.19571e-70
3.85209e-73
4.53191e-76
2.7681e-79
1.96577e-42
3.91048e-43
3.48794e-44
6.11815e-46
1.15694e-47
1.04456e-49
7.43708e-52
8.87483e-54
4.70072e-56
2.70689e-58
2.48717e-60
9.47087e-63
8.55987e-65
2.21874e-67
7.55922e-70
3.44999e-72
5.84865e-75
6.84557e-78
3.67904e-81
1.89332e-44
3.76941e-45
3.29081e-46
5.74116e-48
1.07198e-49
9.31891e-52
6.2116e-54
7.09901e-56
3.62995e-58
1.92236e-60
1.85065e-62
6.83561e-65
5.61763e-67
1.4553e-69
4.76084e-72
3.4833e-74
5.10302e-77
6.18924e-80
3.25558e-83
1.50073e-46
3.04821e-47
2.66899e-48
4.69909e-50
8.74639e-52
7.41376e-54
4.75018e-56
5.32104e-58
2.65402e-60
1.32566e-62
1.29016e-64
4.80441e-67
4.08204e-69
1.13093e-71
3.9058e-74
3.0512e-76
6.30978e-79
7.22822e-82
3.61553e-85
1.02055e-48
2.08049e-49
1.8749e-50
3.40257e-52
6.39526e-54
5.35888e-56
3.36995e-58
3.72963e-60
1.84116e-62
8.98755e-65
9.05113e-67
3.41347e-69
3.03234e-71
8.90751e-74
3.21162e-76
2.64862e-78
6.03916e-81
6.88064e-84
3.34179e-87
5.7132e-51
1.21261e-51
1.14499e-52
2.18197e-54
4.2039e-56
3.54965e-58
2.24354e-60
2.49976e-62
1.24688e-64
6.16196e-67
6.47875e-69
2.54316e-71
2.42584e-73
7.5138e-76
2.79804e-78
2.38951e-80
5.77796e-83
6.52453e-86
3.06805e-89
2.42077e-53
6.17181e-54
6.08124e-55
1.26436e-56
2.53178e-58
2.19985e-60
1.42931e-62
1.63853e-64
8.50675e-67
4.39631e-69
4.89412e-71
2.01559e-73
2.05704e-75
6.59427e-78
2.53174e-80
2.23483e-82
5.58073e-85
6.2134e-88
2.82169e-91
9.04491e-56
2.70737e-56
2.89913e-57
6.66626e-59
1.42448e-60
1.30522e-62
8.97884e-65
1.08779e-66
6.06106e-69
3.35547e-71
3.97578e-73
1.71047e-75
1.8469e-77
6.02981e-80
2.3631e-82
2.13842e-84
5.38558e-87
5.89432e-90
2.57954e-93
3.21338e-58
1.04737e-58
1.28252e-59
3.28437e-61
7.7388e-63
7.67843e-65
5.76882e-67
7.5818e-69
4.63485e-71
2.7725e-73
3.46479e-75
1.53603e-77
1.72636e-79
5.66423e-82
2.24824e-84
2.07686e-86
5.22061e-89
5.61613e-92
2.36339e-95
1.12499e-60
3.66074e-61
5.40409e-62
1.55944e-63
4.19942e-65
4.63548e-67
3.90899e-69
5.66906e-71
3.81818e-73
2.45415e-75
3.19098e-77
1.43909e-79
1.66198e-81
5.43537e-84
2.1709e-86
2.04159e-88
5.09171e-91
5.37256e-94
2.16752e-97
3.97582e-63
1.21571e-63
2.26531e-64
7.46125e-66
2.37342e-67
2.97213e-69
2.84874e-71
4.566e-73
3.35084e-75
2.28624e-77
3.05748e-79
1.39149e-81
1.63711e-83
5.31596e-86
2.12741e-88
2.03253e-90
5.00561e-93
5.17051e-96
1.99428e-99
1.26633e-65
4.13439e-66
9.54635e-67
3.71448e-68
1.41787e-69
2.03376e-71
2.21006e-73
3.88647e-75
3.06384e-77
2.19658e-79
3.00345e-81
1.3761e-83
1.64199e-85
5.28791e-88
2.11276e-90
2.04517e-92
4.95447e-95
4.99857e-98
1.83943e-101
)
;

boundaryField
{
    leftWall
    {
        type            zeroGradient;
    }
    rightWall
    {
        type            zeroGradient;
    }
    lowerWall
    {
        type            zeroGradient;
    }
    atmosphere
    {
        type            inletOutlet;
        inletValue      uniform 0;
        value           nonuniform List<scalar> 
46
(
0
0
0
0
0
0
0
0
0
0
0
0
0
0
0
0
0
0
0
0
0
0
5.33669e-69
2.84815e-66
2.45189e-66
1.13431e-65
1.00323e-65
1.26633e-65
4.13439e-66
9.54635e-67
3.71448e-68
1.41787e-69
2.03376e-71
2.21006e-73
3.88647e-75
3.06384e-77
2.19658e-79
3.00345e-81
1.3761e-83
1.64199e-85
5.28791e-88
2.11276e-90
2.04517e-92
4.95447e-95
4.99857e-98
1.83943e-101
)
;
    }
    defaultFaces
    {
        type            empty;
    }
}


// ************************************************************************* //
