/*--------------------------------*- C++ -*----------------------------------*\
| =========                 |                                                 |
| \\      /  F ield         | foam-extend: Open Source CFD                    |
|  \\    /   O peration     | Version:     4.1                                |
|   \\  /    A nd           | Web:         http://www.foam-extend.org         |
|    \\/     M anipulation  |                                                 |
\*---------------------------------------------------------------------------*/
FoamFile
{
    version     2.0;
    format      ascii;
    class       volScalarField;
    location    "0.15";
    object      p;
}
// * * * * * * * * * * * * * * * * * * * * * * * * * * * * * * * * * * * * * //

dimensions      [1 -1 -2 0 0 0 0];

internalField   nonuniform List<scalar> 
2268
(
2504.98
2501.86
2505.2
2494
2502.04
2475.48
2486.44
2474.55
2456.35
2502.91
2467.86
2723.75
2603.48
2611.46
2629.82
2681.31
2766.94
2842.41
2935.86
3196.53
3525.36
3795.1
3917.95
2444.81
2441.85
2444.82
2434.26
2441.47
2415.45
2426.31
2414.29
2396.42
2449.73
2403.86
2622.89
2529.69
2539.39
2560.93
2612.61
2702.05
2784.92
2879.67
3111.35
3440.38
3711.31
3825.85
2383.25
2380.66
2382.98
2373.52
2379.39
2355.08
2363.73
2348.72
2329.15
2370.02
2416.45
2495.56
2443.04
2461.8
2478.72
2524.62
2610.38
2718.63
2822.39
3020.24
3348.46
3624.24
3679.52
2320.49
2318.32
2319.61
2312.09
2315.45
2292.14
2303.04
2280.63
2265.23
2377.48
2336.9
2384.28
2367.43
2379.48
2402.73
2448.56
2508.61
2631.86
2745.68
2890.6
3215.83
3503.69
3466.51
2256.22
2254.76
2254.94
2249.28
2249.99
2230.66
2234.37
2232.82
2189.05
2297.64
2262.29
2299.62
2277.28
2289.2
2308.47
2348.48
2407.65
2509.15
2668.49
2766.18
3080.16
3371.31
3146.14
2190.98
2190.03
2188.72
2186.21
2184.42
2165.91
2160.71
2135.92
2186.26
2205.92
2182.95
2207.04
2188.74
2191.13
2208.84
2254.6
2294.02
2370.01
2519.93
2658.31
2894.74
3145.57
2858.16
2123.89
2123.89
2121.67
2119.94
2114.24
2094.82
2116.31
2055.8
2122.24
2114.46
2098.65
2113.65
2094.55
2092.31
2105.02
2137.49
2163.24
2222.26
2380.3
2484.94
2691.97
2812.79
2476.98
2057.06
2056.97
2052.29
2048.45
2036.64
2040.57
2015.7
2019.88
2038.35
2027.24
2014.17
2016.03
1999.14
1985.04
1992.72
2018.9
2025.84
2063.93
2184.15
2275.23
2456.55
2313.79
1970.75
1.47808
1.38908
1.22874
1.05037
0.920004
0.794967
0.689091
0.601393
0.524488
0.466773
0.417661
0.38716
0.33118
0.332768
0.304097
0.308766
0.30486
0.301408
0.300017
1.43811
1.35563
1.17107
0.987688
0.855611
0.728241
0.623873
0.536154
0.461145
0.404285
0.356502
0.325697
0.273271
0.259994
0.249289
0.24911
0.244934
0.242173
0.240795
1.41665
1.31107
1.11873
0.917121
0.791712
0.655381
0.553369
0.465238
0.392252
0.337489
0.291539
0.25779
0.213113
0.204458
0.189097
0.188147
0.184809
0.182505
0.181145
1.40085
1.27794
1.06588
0.835154
0.711768
0.57184
0.473267
0.387497
0.318738
0.264174
0.222782
0.170767
0.149929
0.139768
0.128906
0.126499
0.124285
0.122514
0.120982
1.41157
1.25141
1.01414
0.744724
0.644544
0.482197
0.388552
0.303744
0.241221
0.194572
0.144245
0.11347
0.0808518
0.0694685
0.0681094
0.0647153
0.0628273
0.0621551
0.0598266
1.43605
1.22209
0.963419
0.659486
0.5409
0.380528
0.290843
0.213574
0.157581
0.107438
0.0797813
0.0423735
0.0148089
0.00854249
0.00689107
0.00304398
0.00113575
0.000366343
-0.0013113
1.45278
1.18502
0.872965
0.505722
0.431223
0.267298
0.183842
0.107663
0.0705642
0.0425915
0.01142
-0.0259296
-0.0632672
-0.057535
-0.0566488
-0.0592808
-0.0606678
-0.0616877
-0.0629552
1.44714
1.09067
0.735797
0.37258
0.27898
0.141155
0.0633291
0.00353513
-0.0107705
-0.0293455
-0.0610634
-0.114605
-0.127022
-0.123541
-0.120534
-0.122583
-0.122928
-0.124031
-0.124958
1947.05
1949.62
1937.14
1968.12
1941.53
1871.59
1948.4
1895.66
1910.22
1892.36
1874.18
1854.99
1838.25
1802.67
1841.92
1832.79
1800.9
1790.3
1906.44
1688.63
1938.21
1204.68
960.878
1798.63
1796.77
1784.37
1756.49
1795.04
1754.08
1757.95
1745.66
1732.65
1705.91
1662.43
1622.94
1525.74
1515.23
1481.62
1565.06
1445.8
1269.33
1434.73
507.289
377.353
650.319
627.81
1638.21
1631.99
1628.35
1609.69
1614.59
1596.74
1599.09
1570.68
1558.03
1512.4
1468.04
1392.47
1289.22
1102.11
1137.36
932.511
630.161
295.424
155.07
71.3896
76.7485
102.93
129.579
1459.89
1455.41
1456.29
1442.12
1445.58
1429.62
1416.86
1402.92
1369.18
1324.54
1238.35
1146.37
886.624
985.167
988.603
509.75
358.511
16.3608
2.46064
-0.061787
6.09611
-7.19038
-76.9197
1279.27
1275.26
1274.61
1263.87
1262.07
1249.35
1244.77
1222.72
1197.32
1150.5
1063.66
950.155
683.021
653.168
559.049
202.532
44.3802
-1.40178
-4.00741
-5.18029
-5.39175
-3.63043
2.36691
1090.65
1087.69
1086.98
1078.01
1076.89
1065.71
1061.43
1046.11
1029.36
979.089
899.829
749.53
509.381
451.128
247.22
23.0663
-1.3255
-5.21154
-5.85937
-6.39681
-5.86231
-4.83026
-2.32353
898.973
896.663
894.05
886.086
884.143
874.237
878.861
866.486
882.253
838.467
773.979
580.378
334.072
220.93
39.7287
-2.16842
-4.85843
-5.48676
-5.91988
-6.86853
-6.01243
-5.52597
-5.05797
703.34
701.526
697.388
690.177
686.895
676.675
683.821
666.939
705.313
649.815
637.111
440.601
183.296
68.6261
-1.08316
-4.52142
-5.10339
-5.21529
-5.15028
-5.42464
-5.18096
-4.99862
-4.73011
506.537
504.231
496.332
488.421
479.487
468.676
476.754
458.786
560.664
555.429
552.236
328.667
71.9255
4.09666
-4.00948
-4.60296
-4.62968
-4.80582
-4.77753
-4.70188
-4.44795
-4.22875
-4.11318
311.923
311.261
297.22
287.082
266.03
259.428
243.007
223.481
481.948
583.46
546.599
106.916
8.8133
-3.84886
-4.13877
-4.1603
-4.16581
-4.34439
-4.28038
-4.12988
-4.03068
-3.84979
-3.46509
122.551
125.842
111.191
95.6301
63.3645
43.1509
19.8175
21.779
-40.9869
-54.156
-172.176
-21.4577
-23.2989
9.74455
-3.36911
-4.16331
-3.97101
-4.06882
-4.02157
-4.02682
-3.89187
-3.6472
-3.29883
17.7278
16.5663
10.3526
7.91472
4.31047
0.988124
-0.738493
2.65352
0.953248
10.6789
-17.4498
-7.92387
-1.09358
8.28232
-3.36523
-4.33564
-3.93853
-4.05879
-4.03697
-3.94778
-3.81875
-3.57219
-3.34646
-1.20829
-1.42287
-1.44115
-1.63473
-1.67611
-1.75982
-1.90812
-1.70094
-2.05313
0.409301
2.57271
-1.55131
-6.13275
-14.1216
-3.43578
-3.65404
-3.93283
-4.05521
-3.97434
-3.91009
-3.72388
-3.57956
-3.34734
-1.91561
-1.97087
-1.89702
-1.9998
-2.08045
-2.17228
-2.36354
-2.84536
-3.78326
-4.81488
-5.40561
-5.04485
-5.75244
-7.36527
-5.54516
-4.33991
-4.64071
-4.30294
-4.06215
-3.88357
-3.75397
-3.60019
-3.06115
-2.11321
-2.14297
-2.15398
-2.21195
-2.28078
-2.34114
-2.51875
-2.74567
-3.43085
-4.36503
-4.96466
-5.25145
-5.68064
-6.55018
-8.02383
-7.26973
-5.75041
-4.75923
-4.15238
-3.96243
-3.7644
-3.30314
-3.01301
-2.31451
-2.32711
-2.34783
-2.37721
-2.43253
-2.52991
-2.66692
-2.89388
-3.17619
-3.74496
-4.79563
-5.29921
-5.80371
-6.22621
-6.50013
-6.38864
-5.40973
-4.88783
-4.29236
-3.98061
-3.60198
-3.25533
-3.10124
-2.42896
-2.45178
-2.48334
-2.51828
-2.54737
-2.65825
-2.85383
-2.99025
-3.16335
-3.98182
-4.87304
-5.32686
-5.6895
-5.8125
-5.92071
-5.40777
-5.1844
-4.31429
-3.86194
-3.54575
-3.40009
-3.30099
-3.11189
-2.4246
-2.46521
-2.50766
-2.50481
-2.59514
-2.77102
-2.84475
-2.95985
-3.45037
-3.85607
-4.35193
-5.18777
-5.38729
-5.93807
-4.80197
-4.56477
-4.53992
-4.10325
-3.85035
-3.67981
-3.47225
-3.27919
-3.1191
-3.09663
-3.09612
-2.80962
-3.137
-3.28654
-3.39243
-3.4584
-3.52987
-4.02292
-3.79086
-4.17307
-5.0802
-5.37638
-4.45378
-4.13152
-4.6545
-4.35624
-3.84176
-3.75102
-3.63594
-3.47734
-3.30752
-3.1796
-3.24793
-3.22783
-3.45221
-3.38928
-3.41653
-3.41441
-3.63642
-3.90971
-3.69292
-4.00237
-4.46267
-4.81856
-4.6671
-3.68215
-3.75959
-4.41323
-4.24258
-4.08572
-3.79059
-3.63867
-3.47886
-3.35337
-3.21996
-3.37852
-3.38469
-3.45584
-3.4829
-3.54695
-3.55766
-3.50923
-3.71549
-3.63429
-3.70484
-4.10062
-4.38086
-3.75862
-3.67111
-3.55185
-4.17927
-3.99949
-3.92846
-3.79742
-3.68128
-3.54644
-3.44081
-3.32922
-3.46846
-3.48049
-3.55305
-3.67984
-3.61389
-3.65238
-3.65982
-3.50856
-3.6178
-3.75559
-3.92269
-3.92101
-3.77715
-3.65017
-3.53219
-4.09584
-3.97188
-3.8873
-3.81184
-3.71421
-3.60597
-3.51051
-3.41187
-3.51712
-3.55559
-3.66069
-3.60296
-3.49287
-3.57681
-3.41512
-3.52471
-3.72972
-3.8206
-3.50703
-3.61102
-3.68007
-3.65792
-3.54265
-3.97061
-3.96784
-3.93296
-3.84778
-3.76196
-3.66414
-3.59051
-3.50906
-3.75085
-3.73921
-3.68859
-3.46804
-3.53153
-3.46887
-3.51127
-3.53798
-3.75402
-3.58666
-3.67143
-3.69282
-3.75011
-3.7604
-3.65619
-3.7501
-4.03243
-3.93156
-3.85701
-3.82292
-3.75452
-3.68145
-3.6055
-3.50726
-3.5131
-3.46339
-3.57468
-3.61415
-3.5407
-3.60226
-3.91441
-3.86162
-3.80139
-3.78594
-3.78212
-3.79225
-3.82902
-3.80154
-3.75185
-3.9381
-3.97349
-4.00677
-3.89254
-3.78986
-3.77249
-3.72064
-3.69965
-3.69613
-3.67672
-3.64013
-3.5924
-3.66425
-3.98345
-4.00466
-3.7909
-3.83914
-3.84301
-3.86307
-3.89673
-3.85
-3.8922
-3.88035
-3.88726
-4.00595
-4.06996
-4.03356
-3.99462
-3.86193
-3.78899
-3.6839
-3.6945
-3.74649
-3.92901
-3.99982
-4.04894
-4.09205
-3.95381
-3.94842
-3.95067
-3.94648
-3.95144
-3.9707
-3.97568
-3.98484
-3.95367
-3.98439
-3.90664
-4.07337
-4.05749
-4.03917
-4.02895
-3.98852
-4.0921
-4.10682
-4.13695
-4.04631
-4.06463
-4.0744
-4.15271
-3.98076
-4.04197
-4.03345
-4.04185
-4.04723
-4.05622
-4.0584
-4.06565
-4.06799
-4.07404
-4.08639
-4.00566
-4.17249
-4.1066
-4.08805
-4.05623
-4.13458
-4.13928
-4.15237
-4.16101
-4.16845
-4.24607
-4.12076
-4.14045
-4.14365
-4.14631
-4.15138
-4.15541
-4.16165
-4.16754
-4.16002
-4.16485
-4.14632
-4.15533
-4.13415
-4.1881
-4.20991
-4.18839
-4.16067
-4.2757
-4.27761
-4.28691
-4.26917
-4.32922
-4.23714
-4.24479
-4.24424
-4.25038
-4.24918
-4.25332
-4.25653
-4.25673
-4.2576
-4.26771
-4.26618
-4.26509
-4.26623
-4.25876
-4.24118
-4.29842
-4.29392
-4.26522
-4.37751
-4.38021
-4.37463
-4.41885
-4.35517
-4.36389
-4.36014
-4.36443
-4.36409
-4.36736
-4.36597
-4.37466
-4.35568
-4.39473
-4.38211
-4.37231
-4.37149
-4.36384
-4.35982
-4.37019
-4.32616
-4.40996
-4.37272
-4.50183
-4.49888
-4.50937
-4.47216
-4.4783
-4.47559
-4.47644
-4.47535
-4.47704
-4.47673
-4.47828
-4.48092
-4.48487
-4.48691
-4.48643
-4.48301
-4.4793
-4.4776
-4.47101
-4.4745
-4.45445
-4.49852
-4.47776
-4.60604
-4.60244
-4.60309
-4.59411
-4.5968
-4.59413
-4.59479
-4.59548
-4.59513
-4.59709
-4.59578
-4.59831
-4.5958
-4.60063
-4.59962
-4.59548
-4.5937
-4.58949
-4.58649
-4.58458
-4.57999
-4.56835
-4.61519
-4.71907
-4.71815
-4.71962
-4.71584
-4.71483
-4.71313
-4.71281
-4.71137
-4.71195
-4.71116
-4.71192
-4.71235
-4.71264
-4.71425
-4.7122
-4.71022
-4.70732
-4.70588
-4.70309
-4.69716
-4.70424
-4.67585
-4.7083
-4.8379
-4.83708
-4.83623
-4.83448
-4.83386
-4.83338
-4.8325
-4.83287
-4.83169
-4.83238
-4.83093
-4.83183
-4.82999
-4.83146
-4.82907
-4.82651
-4.82422
-4.8214
-4.81956
-4.81783
-4.8176
-4.81196
-4.82591
-4.95647
-4.95601
-4.95606
-4.95453
-4.95439
-4.95253
-4.95237
-4.95069
-4.9505
-4.94934
-4.94898
-4.94855
-4.9478
-4.94819
-4.9466
-4.94438
-4.94254
-4.94073
-4.93813
-4.93699
-4.93281
-4.93534
-4.91697
-5.07819
-5.07788
-5.07736
-5.07689
-5.07598
-5.07569
-5.07443
-5.07396
-5.07258
-5.07196
-5.07042
-5.06998
-5.06827
-5.06836
-5.06599
-5.06299
-5.06131
-5.05884
-5.05789
-5.05557
-5.05695
-5.05167
-5.05771
-5.19487
-5.19467
-5.19454
-5.19401
-5.19386
-5.19289
-5.19231
-5.19118
-5.19046
-5.1896
-5.18885
-5.18848
-5.18739
-5.18726
-5.18569
-5.18352
-5.1831
-5.18007
-5.18117
-5.17645
-5.17799
-5.16981
-5.18132
-5.32711
-5.3268
-5.32609
-5.32494
-5.32389
-5.32286
-5.3218
-5.32057
-5.31908
-5.31765
-5.31545
-5.3138
-5.31102
-5.31004
-5.30663
-5.30293
-5.30158
-5.29873
-5.29916
-5.29595
-5.29883
-5.29379
-5.30146
-5.43457
-5.43445
-5.43405
-5.43337
-5.43264
-5.43183
-5.43123
-5.43056
-5.42998
-5.42964
-5.42915
-5.42927
-5.4287
-5.42921
-5.42845
-5.42791
-5.42762
-5.4254
-5.4256
-5.42217
-5.42421
-5.41757
-5.42426
-5.58818
-5.58793
-5.58707
-5.58582
-5.58418
-5.58216
-5.57987
-5.57735
-5.57448
-5.57157
-5.56799
-5.56479
-5.56016
-5.55617
-5.54964
-5.54208
-5.5424
-5.54123
-5.54199
-5.54154
-5.54197
-5.54211
-5.54228
-5.65833
-5.65839
-5.65843
-5.65857
-5.65862
-5.65897
-5.65933
-5.65989
-5.66059
-5.66171
-5.66288
-5.66525
-5.66695
-5.67309
-5.67608
-5.67821
-5.67557
-5.67403
-5.67277
-5.66959
-5.6709
-5.66777
-5.66892
-144.41
-79.7842
-5.62085
0.922941
127.997
-66.5405
2.96655
2.42867
-55.7946
19.6125
-0.28086
1.29748
-360.306
-82.8031
-1.49602
5.31926
87.1169
25.2553
-13.6424
0.575879
16.6075
50.6699
126.222
18.3745
-3.46981
7.06898
36.1064
-16.7185
-4.62479
-6.0459
-12.7187
-22.2936
-3.7756
-3.84708
-4.14295
-4.70331
-3.25659
-3.03956
-2.73827
-2.49783
-3.20256
-2.87258
-2.54566
-2.23788
-3.21477
-2.88071
-2.57846
-2.29702
-2.98278
-2.71338
-2.50344
-2.2519
-2.80042
-2.70859
-2.53446
-2.3383
-2.86102
-2.74327
-2.59909
-2.46185
-2.89868
-2.7982
-2.68981
-2.58869
-2.95364
-2.88228
-2.80149
-2.72178
-3.00355
-2.93471
-2.86878
-2.78706
-3.07676
-3.00736
-3.00771
-2.91395
-3.14735
-3.09087
-3.0382
-3.02043
-3.26064
-3.21481
-3.17091
-3.13072
-3.3513
-3.30913
-3.27362
-3.239
-3.45808
-3.42324
-3.39251
-3.36457
-3.56062
-3.52998
-3.50633
-3.4805
-3.68267
-3.65366
-3.62798
-3.60307
-3.74983
-3.72072
-3.7317
-3.72522
-3.9533
-3.93942
-3.87496
-3.83443
-4.04257
-4.03835
-4.04046
-4.02988
-4.14566
-4.13461
-4.12217
-4.10926
-4.25517
-4.24723
-4.23978
-4.23081
-4.36706
-4.35924
-4.35222
-4.34536
-4.47652
-4.47032
-4.46586
-4.46127
-4.59066
-4.58907
-4.58292
-4.57953
-4.70057
-4.70025
-4.69775
-4.69589
-4.8241
-4.8211
-4.81771
-4.81575
-4.94823
-4.94115
-4.93895
-4.93787
-5.04148
-5.06031
-5.05065
-5.05464
-5.16769
-5.17955
-5.17486
-5.17743
-5.29002
-5.29864
-5.29398
-5.29619
-5.41844
-5.42329
-5.42044
-5.42282
-5.54113
-5.54014
-5.54226
-5.54061
-5.66905
-5.66895
-5.66889
-5.66964
1.90499
1.11699
0.608472
0.180695
0.0566793
-0.0455463
-0.119842
-0.16111
-0.166428
-0.179009
-0.212793
-0.218531
-0.221583
-0.223406
-0.221594
-0.221635
-0.221712
-0.22226
-0.22285
1.96559
0.933175
0.35477
-0.49271
-0.528118
-0.395374
-0.406751
-0.396554
-0.378504
-0.371657
-0.366737
-0.358607
-0.353531
-0.361594
-0.35891
-0.358058
-0.358317
-0.35889
-0.359288
2.35898
0.470798
-0.682821
-0.985668
-0.824543
-0.78646
-0.804789
-0.730557
-0.610672
-0.554786
-0.55605
-0.523577
-0.511917
-0.504209
-0.49922
-0.496934
-0.4969
-0.497233
-0.498185
1.10962
-1.14017
-1.80067
-1.84295
-1.37206
-1.05526
-0.909716
-0.802884
-0.722894
-0.726502
-0.684056
-0.666837
-0.648964
-0.647065
-0.638616
-0.638239
-0.637659
-0.637712
-0.63834
-2.47666
-3.279
-3.94523
-2.87407
-1.93639
-1.45524
-1.20097
-1.05678
-0.955466
-0.889565
-0.856117
-0.81657
-0.796984
-0.788785
-0.782007
-0.780871
-0.780177
-0.779385
-0.779154
-7.56521
-3.98871
-5.71669
-3.8054
-2.35052
-1.68706
-1.38972
-1.19891
-1.09856
-1.03644
-0.995749
-0.962336
-0.942138
-0.934016
-0.927809
-0.925045
-0.922941
-0.920696
-0.9199
-12.5939
-6.91764
-6.31636
-4.87144
-2.90553
-1.95113
-1.59449
-1.36766
-1.25285
-1.18406
-1.14017
-1.10807
-1.0893
-1.08027
-1.07353
-1.06766
-1.06383
-1.06018
-1.05888
-15.722
-9.36602
-5.47552
-3.96876
-2.99884
-1.99201
-1.68743
-1.49577
-1.39264
-1.32717
-1.28438
-1.25583
-1.23652
-1.22533
-1.21603
-1.20762
-1.20209
-1.19768
-1.19581
-4.70569
-5.38345
-2.80893
-2.92333
-2.45968
-1.92049
-1.75046
-1.60607
-1.52281
-1.4655
-1.42777
-1.40065
-1.3811
-1.36558
-1.35446
-1.34399
-1.33792
-1.33397
-1.33212
-1.92649
-1.17511
-1.35818
-2.20086
-2.07804
-1.90573
-1.80766
-1.70483
-1.6422
-1.59575
-1.56291
-1.53761
-1.51811
-1.50106
-1.48915
-1.47986
-1.47416
-1.47002
-1.46827
-1.49972
-1.09304
-1.50665
-1.80571
-1.9479
-1.87465
-1.8367
-1.78391
-1.74782
-1.71344
-1.68762
-1.665
-1.64809
-1.63308
-1.62363
-1.61467
-1.60956
-1.60552
-1.60389
-1.66155
-1.29871
-1.53246
-1.74145
-1.8661
-1.89124
-1.90026
-1.87569
-1.85923
-1.83395
-1.81385
-1.79303
-1.77893
-1.76462
-1.75737
-1.74868
-1.74453
-1.74064
-1.73923
-1.88889
-1.55881
-1.65667
-1.7877
-1.90181
-1.95192
-1.97973
-1.97117
-1.96668
-1.95006
-1.93629
-1.92032
-1.90902
-1.89693
-1.89052
-1.88245
-1.87871
-1.87508
-1.87378
-2.05624
-1.8099
-1.82594
-1.90373
-1.98948
-2.03934
-2.08195
-2.06869
-2.0768
-2.06407
-2.05654
-2.04341
-2.03663
-2.02463
-2.02289
-2.01488
-2.01256
-2.00921
-2.00824
-2.24004
-2.04488
-2.01759
-2.04669
-2.10487
-2.14432
-2.1848
-2.17722
-2.19109
-2.18408
-2.1799
-2.17095
-2.16593
-2.15755
-2.1549
-2.14744
-2.14537
-2.14232
-2.14145
-2.41731
-2.25289
-2.21331
-2.2135
-2.24575
-2.27641
-2.33241
-2.27975
-2.3099
-2.2991
-2.29879
-2.2909
-2.29018
-2.27721
-2.28678
-2.27883
-2.27828
-2.27577
-2.27524
-2.59423
-2.45771
-2.39538
-2.36558
-2.37565
-2.39206
-2.38779
-2.41109
-2.42646
-2.4219
-2.4243
-2.42196
-2.42049
-2.41987
-2.41531
-2.41059
-2.4095
-2.40746
-2.407
-2.68745
-2.56589
-2.53628
-2.49605
-2.50391
-2.52825
-2.53822
-2.54442
-2.55306
-2.54901
-2.5515
-2.54881
-2.54912
-2.54441
-2.54582
-2.54268
-2.54248
-2.54097
-2.54072
-2.81953
-2.70844
-2.67486
-2.63978
-2.64584
-2.69369
-2.66317
-2.67908
-2.68208
-2.67637
-2.68051
-2.67924
-2.68003
-2.67772
-2.6771
-2.67504
-2.67438
-2.67321
-2.67291
-2.94046
-2.86405
-2.82512
-2.79642
-2.79238
-2.79538
-2.80019
-2.81402
-2.83673
-2.80098
-2.81417
-2.81089
-2.81139
-2.80909
-2.80916
-2.80747
-2.80727
-2.80624
-2.80607
-3.06885
-3.00163
-2.96856
-2.93945
-2.93574
-2.94727
-2.93754
-2.96393
-2.93935
-2.93766
-2.94528
-2.94136
-2.94404
-2.94084
-2.94159
-2.93996
-2.93964
-2.93871
-2.9385
-3.19799
-3.14081
-3.10918
-3.08337
-3.07287
-3.07718
-3.07324
-3.07699
-3.07981
-3.07668
-3.08899
-3.07263
-3.07768
-3.07277
-3.07435
-3.07267
-3.07306
-3.07162
-3.07162
-3.32503
-3.27648
-3.2462
-3.22218
-3.21161
-3.21032
-3.20908
-3.21711
-3.21304
-3.20936
-3.20841
-3.20655
-3.21655
-3.20484
-3.20825
-3.20518
-3.20519
-3.20387
-3.20373
-3.44747
-3.40564
-3.37836
-3.35975
-3.34891
-3.34296
-3.34203
-3.34621
-3.34542
-3.34214
-3.34518
-3.33989
-3.34127
-3.33955
-3.34078
-3.33844
-3.34016
-3.33616
-3.33713
-3.56937
-3.52525
-3.50641
-3.49061
-3.48026
-3.47546
-3.47424
-3.47763
-3.47671
-3.47484
-3.47585
-3.47273
-3.47725
-3.47338
-3.47242
-3.47043
-3.46955
-3.46925
-3.46854
-3.70129
-3.6692
-3.63709
-3.61652
-3.61271
-3.60796
-3.6097
-3.60682
-3.60715
-3.60536
-3.6059
-3.60466
-3.60701
-3.60443
-3.60415
-3.60339
-3.60321
-3.60291
-3.60252
-3.79228
-3.74609
-3.76665
-3.75675
-3.74175
-3.73782
-3.73628
-3.73746
-3.74065
-3.73661
-3.73599
-3.73845
-3.73836
-3.7358
-3.73484
-3.73382
-3.73337
-3.73393
-3.73246
-4.00913
-3.98496
-3.88434
-3.85584
-3.88151
-3.87386
-3.88135
-3.86565
-3.86843
-3.86814
-3.86191
-3.86786
-3.86828
-3.86688
-3.86544
-3.86781
-3.8643
-3.86714
-3.86653
-4.09173
-4.07562
-4.07983
-4.06782
-3.99367
-3.98665
-3.982
-3.99883
-4.00014
-4.00513
-4.00212
-3.99868
-4.00063
-3.99809
-3.99454
-3.99482
-3.99451
-3.99338
-3.99279
-4.2179
-4.20099
-4.18525
-4.17424
-4.19131
-4.1781
-4.17577
-4.11887
-4.12128
-4.11599
-4.12308
-4.1321
-4.12929
-4.128
-4.12584
-4.12611
-4.12952
-4.13047
-4.12987
-4.33398
-4.32172
-4.31029
-4.30115
-4.28789
-4.28091
-4.28169
-4.30098
-4.29426
-4.29365
-4.2558
-4.25867
-4.25446
-4.26045
-4.25983
-4.25656
-4.2524
-4.25073
-4.25022
-4.45298
-4.44317
-4.43406
-4.42715
-4.42365
-4.41682
-4.41388
-4.40405
-4.4012
-4.40168
-4.41941
-4.41308
-4.38607
-4.38676
-4.3806
-4.39045
-4.3939
-4.39327
-4.39422
-4.57103
-4.56423
-4.55525
-4.55005
-4.54395
-4.54086
-4.53786
-4.53944
-4.53586
-4.53749
-4.5291
-4.54131
-4.54344
-4.54553
-4.53837
-4.5117
-4.50595
-4.50567
-4.50464
-4.6909
-4.68566
-4.67932
-4.67553
-4.67066
-4.66758
-4.66511
-4.66312
-4.66133
-4.66118
-4.66244
-4.66193
-4.65719
-4.6581
-4.67324
-4.68218
-4.68681
-4.69164
-4.69194
-4.80937
-4.80667
-4.7997
-4.79778
-4.79321
-4.79205
-4.78968
-4.78928
-4.78729
-4.78767
-4.78612
-4.78887
-4.78757
-4.78719
-4.78469
-4.77977
-4.77466
-4.77214
-4.77058
-4.93194
-4.93001
-4.92541
-4.92389
-4.92053
-4.91938
-4.91759
-4.9171
-4.9159
-4.91586
-4.91549
-4.91611
-4.91586
-4.91688
-4.92032
-4.9225
-4.92372
-4.92496
-4.92512
-5.04871
-5.04971
-5.04481
-5.04511
-5.04186
-5.04173
-5.03977
-5.03953
-5.03865
-5.03844
-5.03821
-5.03844
-5.03803
-5.03779
-5.03738
-5.03638
-5.0348
-5.03467
-5.03409
-5.17478
-5.17541
-5.17246
-5.1729
-5.1707
-5.17112
-5.17015
-5.17056
-5.17037
-5.17059
-5.17066
-5.17113
-5.17136
-5.17189
-5.17273
-5.17346
-5.17346
-5.17382
-5.17383
-5.29342
-5.29467
-5.29119
-5.29173
-5.28951
-5.28955
-5.28828
-5.28816
-5.28762
-5.2875
-5.28737
-5.2874
-5.28731
-5.2873
-5.28724
-5.28713
-5.287
-5.28693
-5.28673
-5.42083
-5.423
-5.42178
-5.42394
-5.42378
-5.42516
-5.42539
-5.42631
-5.42678
-5.42742
-5.4279
-5.42845
-5.42888
-5.42935
-5.42976
-5.43014
-5.43022
-5.43044
-5.43041
-5.54057
-5.53935
-5.53788
-5.5374
-5.53609
-5.53565
-5.53477
-5.53445
-5.53401
-5.53379
-5.53358
-5.53346
-5.53334
-5.53328
-5.53319
-5.53316
-5.53304
-5.53304
-5.53298
-5.67061
-5.6725
-5.67523
-5.67744
-5.68016
-5.68228
-5.68422
-5.68597
-5.68746
-5.68875
-5.68984
-5.69077
-5.69155
-5.69219
-5.69273
-5.69312
-5.69341
-5.69358
-5.69336
)
;

boundaryField
{
    leftWall
    {
        type            calculated;
        value           nonuniform List<scalar> 
50
(
2504.98
2444.81
2383.25
2320.49
2256.22
2190.98
2123.89
2057.06
1947.05
1798.63
1638.21
1459.89
1279.27
1090.65
898.973
703.34
506.537
311.923
122.551
17.7278
-1.20829
-1.91561
-2.11321
-2.31451
-2.42896
-2.4246
-3.09663
-3.24793
-3.37852
-3.46846
-3.51712
-3.75085
-3.50726
-3.69965
-3.6839
-4.0921
-4.13458
-4.2757
-4.37751
-4.50183
-4.60604
-4.71907
-4.8379
-4.95647
-5.07819
-5.19487
-5.32711
-5.43457
-5.58818
-5.65833
)
;
    }
    rightWall
    {
        type            calculated;
        value           nonuniform List<scalar> 
50
(
0.300017
0.240795
0.181145
0.120982
0.0598266
-0.0013113
-0.0629552
-0.124958
-0.22285
-0.359288
-0.498185
-0.63834
-0.779154
-0.9199
-1.05888
-1.19581
-1.33212
-1.46827
-1.60389
-1.73923
-1.87378
-2.00824
-2.14145
-2.27524
-2.407
-2.54072
-2.67291
-2.80607
-2.9385
-3.07162
-3.20373
-3.33713
-3.46854
-3.60252
-3.73246
-3.86653
-3.99279
-4.12987
-4.25022
-4.39422
-4.50464
-4.69194
-4.77058
-4.92512
-5.03409
-5.17383
-5.28673
-5.43041
-5.53298
-5.69336
)
;
    }
    lowerWall
    {
        type            calculated;
        value           nonuniform List<scalar> 
62
(
2534.41
2531.29
2534.63
2523.43
2531.47
2504.91
2515.87
2503.98
2485.78
2532.34
2497.29
2753.18
2632.91
2640.89
2659.25
2710.74
2796.37
2871.84
2965.29
3225.96
3554.79
3824.53
3945.99
3917.95
3825.85
3679.52
3466.51
3146.14
2858.16
2476.98
1970.75
-81.8406
-32.5881
-4.95385
0.985538
1.47808
1.43811
1.41665
1.40085
1.41157
1.43605
1.45278
1.44714
1.50751
1.41851
1.25817
1.0798
0.949433
0.824396
0.71852
0.630823
0.553918
0.496203
0.44709
0.416589
0.36061
0.362197
0.333526
0.338195
0.334289
0.330837
0.329446
)
;
    }
    atmosphere
    {
        type            calculated;
        value           nonuniform List<scalar> 
46
(
-5.74711
-5.7473
-5.74683
-5.74616
-5.74527
-5.74426
-5.74311
-5.74189
-5.74061
-5.73939
-5.73814
-5.73733
-5.73625
-5.73706
-5.73641
-5.73522
-5.73374
-5.73211
-5.73097
-5.72983
-5.72947
-5.72905
-5.72904
-5.72904
-5.72904
-5.72904
-5.72904
-5.72904
-5.72904
-5.72904
-5.72904
-5.72904
-5.72904
-5.72904
-5.72904
-5.72904
-5.72904
-5.72904
-5.72904
-5.72904
-5.72904
-5.72904
-5.72904
-5.72904
-5.72904
-5.72904
)
;
    }
    defaultFaces
    {
        type            empty;
    }
}


// ************************************************************************* //
