/*--------------------------------*- C++ -*----------------------------------*\
| =========                 |                                                 |
| \\      /  F ield         | foam-extend: Open Source CFD                    |
|  \\    /   O peration     | Version:     4.1                                |
|   \\  /    A nd           | Web:         http://www.foam-extend.org         |
|    \\/     M anipulation  |                                                 |
\*---------------------------------------------------------------------------*/
FoamFile
{
    version     2.0;
    format      ascii;
    class       volVectorField;
    location    "0.15";
    object      U;
}
// * * * * * * * * * * * * * * * * * * * * * * * * * * * * * * * * * * * * * //

dimensions      [0 1 -1 0 0 0 0];

internalField   nonuniform List<vector> 
2268
(
(0.0592146 -0.0106424 0)
(0.120445 -0.0102933 0)
(0.23796 -0.0115941 0)
(0.311653 -0.00895646 0)
(0.401206 -0.0136442 0)
(0.531987 -0.0089476 0)
(0.570875 -0.0103586 0)
(0.702624 -0.01343 0)
(0.73823 -0.00327481 0)
(0.84121 -0.0227798 0)
(0.741489 -0.0629954 0)
(0.720024 -0.0199589 0)
(0.794273 -0.00410174 0)
(0.836201 -0.0196458 0)
(0.876041 -0.000702534 0)
(0.907749 -0.00275088 0)
(0.917058 0.00831226 0)
(0.945836 0.0119351 0)
(0.922334 0.00753693 0)
(0.83369 0.0146419 0)
(0.68178 0.0302424 0)
(0.461037 0.0462971 0)
(0.246429 0.11132 0)
(0.0594812 -0.0317563 0)
(0.120613 -0.0309761 0)
(0.23919 -0.034674 0)
(0.31194 -0.0272369 0)
(0.403679 -0.041279 0)
(0.532912 -0.0288899 0)
(0.57312 -0.0323256 0)
(0.704693 -0.026956 0)
(0.740978 -0.0271136 0)
(0.843 0.0070822 0)
(0.743727 -0.17758 0)
(0.713145 -0.0852564 0)
(0.786192 -0.0525579 0)
(0.813355 -0.0490047 0)
(0.856119 -0.0313607 0)
(0.881874 -0.0128662 0)
(0.891539 0.0209484 0)
(0.932853 0.0405199 0)
(0.91575 0.0418849 0)
(0.833886 0.0583281 0)
(0.687923 0.129924 0)
(0.502454 0.150417 0)
(0.254804 0.229251 0)
(0.0595142 -0.0531976 0)
(0.120023 -0.0518544 0)
(0.239819 -0.0577558 0)
(0.310284 -0.0456698 0)
(0.404395 -0.0684457 0)
(0.532289 -0.0459467 0)
(0.576347 -0.0545768 0)
(0.695204 -0.0568927 0)
(0.787663 -0.0385427 0)
(0.755975 -0.105429 0)
(0.707554 -0.217267 0)
(0.697556 -0.134261 0)
(0.770744 -0.0644809 0)
(0.804813 -0.0727236 0)
(0.852309 -0.0377727 0)
(0.879466 -0.0400054 0)
(0.908653 -0.0086334 0)
(0.921986 0.0215031 0)
(0.922316 0.045301 0)
(0.8622 0.102804 0)
(0.714861 0.183443 0)
(0.471797 0.257533 0)
(0.329295 0.471035 0)
(0.0596985 -0.0739825 0)
(0.119365 -0.0727511 0)
(0.241087 -0.0805038 0)
(0.307441 -0.0639344 0)
(0.410728 -0.0962825 0)
(0.526365 -0.0684396 0)
(0.577895 -0.0711322 0)
(0.734912 -0.0881063 0)
(0.683204 -0.103767 0)
(0.655771 -0.203952 0)
(0.677648 -0.189534 0)
(0.686246 -0.137031 0)
(0.736409 -0.0909601 0)
(0.769106 -0.0869286 0)
(0.833662 -0.058469 0)
(0.866114 -0.0498604 0)
(0.923535 -0.0206575 0)
(0.933517 0.0383277 0)
(0.968074 0.0769551 0)
(0.917854 0.131771 0)
(0.764497 0.290693 0)
(0.544065 0.31084 0)
(0.317527 0.624107 0)
(0.0595791 -0.095549 0)
(0.118347 -0.0941074 0)
(0.242592 -0.102611 0)
(0.303587 -0.0846482 0)
(0.418872 -0.122648 0)
(0.510932 -0.0810966 0)
(0.59407 -0.117185 0)
(0.73324 -0.0721565 0)
(0.640656 -0.239734 0)
(0.610674 -0.197377 0)
(0.633496 -0.194399 0)
(0.663246 -0.177695 0)
(0.712046 -0.110325 0)
(0.772047 -0.117674 0)
(0.855537 -0.0929067 0)
(0.884698 -0.0533514 0)
(0.952964 -0.014699 0)
(0.96565 0.0442675 0)
(1.00261 0.118389 0)
(0.974611 0.203848 0)
(0.784705 0.371898 0)
(0.623345 0.462568 0)
(0.449739 0.861752 0)
(0.0596938 -0.115537 0)
(0.117938 -0.1155 0)
(0.242894 -0.124856 0)
(0.305434 -0.103918 0)
(0.419292 -0.145662 0)
(0.502619 -0.111302 0)
(0.642972 -0.139774 0)
(0.597715 -0.141743 0)
(0.548202 -0.261743 0)
(0.562447 -0.218065 0)
(0.615715 -0.211215 0)
(0.661928 -0.200631 0)
(0.722376 -0.137518 0)
(0.817427 -0.163317 0)
(0.866744 -0.107604 0)
(0.913746 -0.0851445 0)
(0.967312 -0.0594814 0)
(1.05042 0.0105026 0)
(1.04147 0.145588 0)
(1.03167 0.280575 0)
(0.809209 0.453158 0)
(0.779286 0.613712 0)
(0.49288 0.991378 0)
(0.0587605 -0.137903 0)
(0.116881 -0.137352 0)
(0.244779 -0.146416 0)
(0.306971 -0.128045 0)
(0.417481 -0.174625 0)
(0.515926 -0.14721 0)
(0.573706 -0.122029 0)
(0.535655 -0.274007 0)
(0.517499 -0.268932 0)
(0.550228 -0.239186 0)
(0.625381 -0.24099 0)
(0.674317 -0.229762 0)
(0.741595 -0.17895 0)
(0.838256 -0.189159 0)
(0.869839 -0.139257 0)
(0.959209 -0.114635 0)
(1.0151 -0.0777188 0)
(1.10742 0.0034397 0)
(1.09475 0.169142 0)
(1.08191 0.309044 0)
(0.935219 0.518199 0)
(0.786973 0.833851 0)
(0.64331 1.17269 0)
(0.058466 -0.154215 0)
(0.119029 -0.157724 0)
(0.244693 -0.170764 0)
(0.308062 -0.154654 0)
(0.41701 -0.215474 0)
(0.518107 -0.12849 0)
(0.45608 -0.204343 0)
(0.480418 -0.301247 0)
(0.497964 -0.28023 0)
(0.556936 -0.270672 0)
(0.636006 -0.269531 0)
(0.688754 -0.25897 0)
(0.751283 -0.205199 0)
(0.851925 -0.219529 0)
(0.90717 -0.165638 0)
(0.996079 -0.153986 0)
(1.05704 -0.125693 0)
(1.17815 -0.0196401 0)
(1.13295 0.114451 0)
(1.18305 0.419478 0)
(1.06067 0.603288 0)
(0.901135 1.06913 0)
(0.571881 1.46059 0)
(-0.0287471 0.0371512 0)
(-0.12349 0.0347267 0)
(-0.184845 0.00852986 0)
(-0.205195 0.0069894 0)
(-0.197484 -6.1767e-05 0)
(-0.187987 -0.00418515 0)
(-0.175331 -0.00645672 0)
(-0.158422 -0.00827245 0)
(-0.137731 -0.00780572 0)
(-0.121838 -0.00697666 0)
(-0.102824 -0.00873394 0)
(-0.0821406 -0.000257115 0)
(-0.0844388 -0.00518715 0)
(-0.071731 0.0100389 0)
(-0.04387 -0.00663961 0)
(-0.0406922 -0.00161398 0)
(-0.0201432 -0.00155368 0)
(-0.0139634 -0.00101444 0)
(-0.00216742 -0.000936541 0)
(-0.020157 0.100227 0)
(-0.141547 0.0480746 0)
(-0.197891 0.0238119 0)
(-0.204149 0.00527855 0)
(-0.199116 -0.00907289 0)
(-0.184273 -0.016444 0)
(-0.169924 -0.020574 0)
(-0.152921 -0.0274259 0)
(-0.130338 -0.0237127 0)
(-0.115138 -0.0264617 0)
(-0.09288 -0.02302 0)
(-0.074739 -0.012402 0)
(-0.0715482 -0.0242526 0)
(-0.0658461 -0.00629155 0)
(-0.0420058 -0.0165427 0)
(-0.0344068 -0.00493547 0)
(-0.016236 -0.00389858 0)
(-0.0116425 -0.00260684 0)
(-0.00138645 -0.00232818 0)
(-0.0407888 0.187539 0)
(-0.155202 0.0830065 0)
(-0.211385 0.0391347 0)
(-0.21336 0.0142101 0)
(-0.208073 -0.00722044 0)
(-0.186787 -0.0288582 0)
(-0.172872 -0.0346573 0)
(-0.153804 -0.0447391 0)
(-0.130179 -0.041204 0)
(-0.114204 -0.0420294 0)
(-0.0898737 -0.0423967 0)
(-0.0759356 -0.0221984 0)
(-0.0732643 -0.0355688 0)
(-0.056356 -0.0162292 0)
(-0.0375087 -0.0190154 0)
(-0.0320134 -0.00762706 0)
(-0.0153746 -0.00601355 0)
(-0.0110917 -0.00401998 0)
(-0.00124051 -0.00351034 0)
(-0.0630649 0.270936 0)
(-0.202331 0.122999 0)
(-0.243767 0.0471855 0)
(-0.219886 0.0101856 0)
(-0.224764 -0.0339049 0)
(-0.198751 -0.0455962 0)
(-0.176754 -0.0543151 0)
(-0.155684 -0.0668189 0)
(-0.130023 -0.0584809 0)
(-0.114439 -0.06604 0)
(-0.0857816 -0.0546921 0)
(-0.0709002 -0.0674959 0)
(-0.0740327 -0.0257704 0)
(-0.0502396 -0.0195424 0)
(-0.0366129 -0.0197864 0)
(-0.0282246 -0.00989604 0)
(-0.0144091 -0.00808052 0)
(-0.0103985 -0.00545842 0)
(-0.0010737 -0.00473151 0)
(-0.0549287 0.430421 0)
(-0.240481 0.159541 0)
(-0.282704 0.045966 0)
(-0.255351 0.0065644 0)
(-0.238544 -0.00919747 0)
(-0.199492 -0.0628958 0)
(-0.182862 -0.0741227 0)
(-0.155201 -0.0865096 0)
(-0.131233 -0.0780145 0)
(-0.111051 -0.0735796 0)
(-0.0939761 -0.0910145 0)
(-0.0635397 -0.0678587 0)
(-0.0495297 -0.0420819 0)
(-0.0486936 -0.0275286 0)
(-0.037409 -0.0232843 0)
(-0.0258957 -0.0124031 0)
(-0.0133586 -0.00984812 0)
(-0.0095779 -0.00657283 0)
(-0.000847958 -0.00615277 0)
(-0.163261 0.531624 0)
(-0.330754 0.220454 0)
(-0.352765 0.0659751 0)
(-0.259185 0.0137331 0)
(-0.277306 -0.0869137 0)
(-0.23197 -0.0797821 0)
(-0.184812 -0.101109 0)
(-0.155695 -0.110434 0)
(-0.128757 -0.0973137 0)
(-0.119225 -0.11423 0)
(-0.0819513 -0.0822399 0)
(-0.0530467 -0.0539547 0)
(-0.0562877 -0.0510019 0)
(-0.0367157 -0.0368273 0)
(-0.031862 -0.0243172 0)
(-0.0224739 -0.0147163 0)
(-0.0118807 -0.0112434 0)
(-0.00871837 -0.00761797 0)
(-0.000790237 -0.00739242 0)
(-0.160361 0.84635 0)
(-0.4065 0.259596 0)
(-0.475319 0.0429279 0)
(-0.383482 -0.0670841 0)
(-0.312767 -0.0740825 0)
(-0.21618 -0.127195 0)
(-0.199278 -0.146848 0)
(-0.15446 -0.143633 0)
(-0.140579 -0.11311 0)
(-0.103019 -0.0945662 0)
(-0.0681292 -0.0653149 0)
(-0.0533457 -0.0643837 0)
(-0.0427364 -0.0555267 0)
(-0.036966 -0.0367209 0)
(-0.0271985 -0.0272499 0)
(-0.0200856 -0.0164757 0)
(-0.010289 -0.0125047 0)
(-0.00781089 -0.00865756 0)
(-0.000624967 -0.00815374 0)
(-0.271967 0.889473 0)
(-0.692549 0.332565 0)
(-0.657915 -0.0214191 0)
(-0.462423 -0.130587 0)
(-0.34828 -0.0366726 0)
(-0.273451 -0.159138 0)
(-0.210806 -0.166849 0)
(-0.159335 -0.158169 0)
(-0.111878 -0.137428 0)
(-0.103548 -0.0768092 0)
(-0.0693429 -0.0897716 0)
(-0.0481593 -0.0670556 0)
(-0.0440073 -0.0623451 0)
(-0.0255313 -0.0412524 0)
(-0.0224396 -0.027654 0)
(-0.016094 -0.0182752 0)
(-0.00850636 -0.0137194 0)
(-0.00671267 -0.009562 0)
(-0.000425997 -0.00894347 0)
(0.0530492 -0.193791 0)
(0.120236 -0.192946 0)
(0.23229 -0.208211 0)
(0.28009 -0.154215 0)
(0.421791 -0.225265 0)
(0.3905 -0.252067 0)
(0.397907 -0.302806 0)
(0.460483 -0.308832 0)
(0.496888 -0.303176 0)
(0.570982 -0.326928 0)
(0.645981 -0.317872 0)
(0.699905 -0.297622 0)
(0.791581 -0.277968 0)
(0.909611 -0.281708 0)
(0.944469 -0.195657 0)
(1.02385 -0.190847 0)
(1.11684 -0.150393 0)
(1.1931 -0.0238292 0)
(1.32925 0.0328327 0)
(1.29656 0.317974 0)
(1.47569 0.68697 0)
(1.39743 1.47292 0)
(1.0128 1.79114 0)
(0.056128 -0.224822 0)
(0.106236 -0.242309 0)
(0.254696 -0.234582 0)
(0.247315 -0.292892 0)
(0.267665 -0.282142 0)
(0.337381 -0.353146 0)
(0.379993 -0.325261 0)
(0.440679 -0.349234 0)
(0.488292 -0.387367 0)
(0.585033 -0.402058 0)
(0.633451 -0.396151 0)
(0.732083 -0.388126 0)
(0.865924 -0.428773 0)
(0.956574 -0.32754 0)
(0.982966 -0.324303 0)
(1.0314 -0.307386 0)
(1.21741 -0.269756 0)
(1.21494 -0.103214 0)
(1.52508 0.0982808 0)
(1.90691 0.517346 0)
(1.86548 1.16557 0)
(1.40566 1.52585 0)
(1.31826 2.03548 0)
(0.0362761 -0.276202 0)
(0.0774335 -0.298532 0)
(0.150555 -0.285084 0)
(0.208279 -0.362451 0)
(0.251556 -0.340211 0)
(0.317188 -0.366899 0)
(0.358699 -0.399101 0)
(0.421465 -0.42228 0)
(0.492585 -0.449192 0)
(0.552799 -0.476413 0)
(0.633102 -0.4548 0)
(0.734313 -0.534492 0)
(0.914309 -0.464425 0)
(0.887515 -0.528417 0)
(0.954039 -0.623811 0)
(1.05232 -0.536401 0)
(1.32133 -0.520848 0)
(1.47991 -0.353682 0)
(1.54516 0.194776 0)
(1.73775 0.620681 0)
(1.91932 1.28714 0)
(1.57106 1.50762 0)
(1.24979 2.16363 0)
(0.0364091 -0.342082 0)
(0.077608 -0.35413 0)
(0.146112 -0.360688 0)
(0.187693 -0.382288 0)
(0.236986 -0.38114 0)
(0.290091 -0.437685 0)
(0.341903 -0.445489 0)
(0.396844 -0.467921 0)
(0.451209 -0.532493 0)
(0.54055 -0.529655 0)
(0.5976 -0.584863 0)
(0.772574 -0.625434 0)
(0.798238 -0.640228 0)
(0.743878 -0.693345 0)
(0.846857 -0.678979 0)
(1.06005 -0.616938 0)
(1.32231 -0.592306 0)
(1.84767 -0.373047 0)
(1.72391 0.211713 0)
(1.65333 1.12499 0)
(1.89545 1.6859 0)
(1.75228 1.72602 0)
(1.27283 2.43764 0)
(0.0244292 -0.389674 0)
(0.0720492 -0.404559 0)
(0.118286 -0.396512 0)
(0.166204 -0.43918 0)
(0.21178 -0.449132 0)
(0.263769 -0.47081 0)
(0.305195 -0.500669 0)
(0.352612 -0.538416 0)
(0.432485 -0.585373 0)
(0.464492 -0.625983 0)
(0.570295 -0.644986 0)
(0.606836 -0.749476 0)
(0.764831 -0.809425 0)
(0.791186 -0.770265 0)
(0.876086 -0.694871 0)
(1.05334 -0.702276 0)
(1.24158 -0.57921 0)
(1.65614 -0.644901 0)
(1.95028 -0.116613 0)
(1.81788 1.0585 0)
(1.57107 2.78682 0)
(1.34867 2.10618 0)
(0.98792 2.46468 0)
(0.0245397 -0.440802 0)
(0.0643161 -0.447162 0)
(0.109992 -0.458134 0)
(0.155882 -0.472431 0)
(0.188009 -0.480585 0)
(0.234301 -0.525101 0)
(0.272097 -0.541967 0)
(0.321222 -0.590517 0)
(0.374876 -0.643774 0)
(0.410185 -0.672501 0)
(0.495644 -0.71678 0)
(0.568268 -0.875133 0)
(0.702758 -0.871954 0)
(0.733037 -0.869954 0)
(0.796834 -0.9133 0)
(0.989752 -0.947522 0)
(1.30977 -0.79762 0)
(1.547 -0.593201 0)
(1.06086 -0.131587 0)
(0.738086 0.804982 0)
(1.07127 2.78264 0)
(0.322051 3.07692 0)
(0.604713 2.58007 0)
(0.0177701 -0.478925 0)
(0.0582931 -0.488461 0)
(0.09384 -0.490944 0)
(0.130911 -0.513733 0)
(0.166845 -0.531949 0)
(0.204439 -0.552932 0)
(0.234585 -0.58871 0)
(0.270354 -0.636809 0)
(0.312004 -0.670665 0)
(0.316254 -0.730868 0)
(0.425139 -0.79904 0)
(0.472108 -0.984388 0)
(0.617865 -0.99428 0)
(0.64605 -1.0159 0)
(0.728395 -1.02663 0)
(0.944631 -1.03615 0)
(1.08289 -0.702681 0)
(0.331678 0.0964433 0)
(-0.101816 0.548306 0)
(-0.158409 1.32757 0)
(0.193399 2.72155 0)
(0.16768 3.10304 0)
(0.534911 2.7335 0)
(0.0168965 -0.517812 0)
(0.0517917 -0.523271 0)
(0.0837568 -0.532618 0)
(0.12181 -0.542981 0)
(0.143661 -0.556213 0)
(0.176742 -0.586453 0)
(0.205034 -0.616906 0)
(0.225878 -0.671559 0)
(0.232055 -0.723805 0)
(0.232539 -0.813711 0)
(0.348355 -0.905558 0)
(0.367307 -1.08812 0)
(0.522945 -1.11831 0)
(0.543918 -1.16211 0)
(0.676175 -1.25064 0)
(0.797843 -1.139 0)
(-0.00608072 -0.0445495 0)
(-0.1825 0.447923 0)
(-0.357321 0.759662 0)
(-0.374424 1.22323 0)
(-0.289441 2.08527 0)
(0.0192149 2.5838 0)
(0.527706 2.53571 0)
(0.0132276 -0.547985 0)
(0.0455824 -0.556235 0)
(0.0733314 -0.562953 0)
(0.104646 -0.573153 0)
(0.124427 -0.591433 0)
(0.152792 -0.60927 0)
(0.160599 -0.643125 0)
(0.172824 -0.676536 0)
(0.157906 -0.751192 0)
(0.1913 -0.857246 0)
(0.2855 -0.97045 0)
(0.225092 -1.16002 0)
(0.390028 -1.26558 0)
(0.428143 -1.36472 0)
(0.607503 -1.34066 0)
(0.247617 -0.428584 0)
(-0.302822 0.624579 0)
(-0.249495 0.829788 0)
(-0.439804 1.03613 0)
(-0.410403 1.2394 0)
(-0.3703 1.69332 0)
(-0.11325 1.89633 0)
(0.269462 2.02568 0)
(0.0112986 -0.57601 0)
(0.0386277 -0.583435 0)
(0.0653106 -0.590562 0)
(0.0955497 -0.593499 0)
(0.108192 -0.612518 0)
(0.136484 -0.616746 0)
(0.130105 -0.651617 0)
(0.154763 -0.66356 0)
(0.132774 -0.750618 0)
(0.166441 -0.853228 0)
(0.151478 -0.959627 0)
(0.0352766 -1.27817 0)
(0.219991 -1.42155 0)
(0.191552 -1.39244 0)
(0.48857 -1.22116 0)
(-0.0810521 -0.0839291 0)
(-0.161097 0.674125 0)
(-0.217036 0.840499 0)
(-0.409439 1.03157 0)
(-0.311807 1.19394 0)
(-0.22157 1.4239 0)
(-0.11196 1.46659 0)
(0.134724 1.51419 0)
(0.00905032 -0.607499 0)
(0.0330772 -0.61388 0)
(0.062996 -0.615601 0)
(0.0862246 -0.620839 0)
(0.109411 -0.649286 0)
(0.119079 -0.66243 0)
(0.122313 -0.72464 0)
(0.262307 -0.667919 0)
(0.270858 -1.14271 0)
(0.163313 -1.25106 0)
(0.0107496 -1.33822 0)
(-0.0966337 -1.32104 0)
(0.131671 -1.44952 0)
(0.130136 -1.30204 0)
(0.654389 -1.15118 0)
(0.344951 0.119788 0)
(-0.0184563 0.930582 0)
(-0.164635 0.923059 0)
(-0.228934 1.13113 0)
(-0.162197 1.24481 0)
(-0.183119 1.33672 0)
(-0.122229 1.36227 0)
(-0.0152963 1.25694 0)
(0.00774795 -0.627298 0)
(0.0317848 -0.631747 0)
(0.0617889 -0.631848 0)
(0.0633979 -0.634586 0)
(0.0732491 -0.663652 0)
(0.0713653 -0.679967 0)
(0.00162792 -0.771377 0)
(-0.107454 -0.805854 0)
(0.0684341 -1.39819 0)
(0.065084 -1.39359 0)
(0.0992582 -1.48918 0)
(0.110679 -1.5715 0)
(0.124103 -1.46024 0)
(0.179581 -1.27039 0)
(0.102701 -0.84633 0)
(0.228927 0.536394 0)
(-0.111051 1.07503 0)
(-0.0980439 1.1122 0)
(-0.117659 1.22057 0)
(-0.143046 1.23374 0)
(-0.131864 1.2507 0)
(-0.1765 1.28015 0)
(0.0116977 1.2263 0)
(0.00348189 -0.636145 0)
(0.0394676 -0.668662 0)
(0.0785268 -0.685139 0)
(0.0493007 -0.686668 0)
(0.0698582 -0.679016 0)
(0.0708658 -0.687266 0)
(-0.0173095 -0.587758 0)
(-0.0861543 -0.861721 0)
(-0.00135602 -1.40163 0)
(0.0393011 -1.3836 0)
(0.125468 -1.41232 0)
(0.304289 -1.44514 0)
(0.205064 -1.49047 0)
(0.0964667 -1.49326 0)
(-0.192242 -0.827036 0)
(0.240613 0.740857 0)
(0.0820804 1.18789 0)
(-0.0184343 1.21524 0)
(-0.0958479 1.23189 0)
(-0.146836 1.21718 0)
(-0.135386 1.19961 0)
(-0.15456 1.25283 0)
(-0.125295 1.1272 0)
(0.0156154 -0.694532 0)
(0.0018071 -0.75118 0)
(0.0321493 -0.690713 0)
(0.0783757 -0.697354 0)
(0.0925934 -0.696338 0)
(0.11016 -0.63204 0)
(0.237963 -0.533972 0)
(0.275336 -0.782343 0)
(0.112577 -1.57649 0)
(0.282212 -1.78248 0)
(0.572167 -1.88613 0)
(0.514444 -1.71296 0)
(0.319131 -1.56323 0)
(0.238723 -1.71964 0)
(0.30838 -1.04285 0)
(0.206109 -0.223518 0)
(0.21406 1.44947 0)
(-0.0527074 1.43506 0)
(-0.139662 1.25604 0)
(-0.170114 1.21694 0)
(-0.118405 1.20441 0)
(-0.262869 1.09156 0)
(-0.437448 0.827298 0)
(0.00761976 -0.683078 0)
(0.00677257 -0.695854 0)
(-0.00505782 -0.692638 0)
(0.027113 -0.661235 0)
(0.0344676 -0.66907 0)
(0.101499 -0.644281 0)
(0.251394 -0.631667 0)
(0.301964 -0.779267 0)
(0.584267 -1.29582 0)
(0.703509 -1.73456 0)
(0.733693 -1.98784 0)
(0.643138 -1.92318 0)
(0.706859 -1.57943 0)
(0.519314 -1.38409 0)
(0.312137 -0.957096 0)
(-0.436401 0.403007 0)
(-0.2499 1.71728 0)
(-0.390045 1.61244 0)
(-0.306302 1.35909 0)
(-0.216327 1.20439 0)
(-0.273219 1.08615 0)
(-0.53328 0.783444 0)
(-0.412079 0.803885 0)
(-0.0117922 -0.670601 0)
(-0.0385556 -0.679671 0)
(-0.0599941 -0.76435 0)
(-0.0299984 -0.701974 0)
(-0.0466015 -0.717591 0)
(-0.0213055 -0.698444 0)
(0.026276 -0.82481 0)
(0.143925 -0.939348 0)
(0.378127 -1.10063 0)
(0.424035 -1.39804 0)
(0.869205 -1.73182 0)
(0.723511 -1.74226 0)
(0.526042 -1.50158 0)
(-0.197571 -0.659037 0)
(-0.303101 -0.6643 0)
(-0.588062 0.990836 0)
(-0.556647 1.68135 0)
(-0.663729 1.44364 0)
(-0.489459 1.22439 0)
(-0.543869 0.899507 0)
(-0.601877 0.77436 0)
(-0.581144 0.715769 0)
(-0.414462 0.794308 0)
(-0.0493766 -0.655071 0)
(-0.0744921 -0.672589 0)
(-0.0664127 -0.780623 0)
(-0.0455519 -0.690675 0)
(-0.0856216 -0.699737 0)
(-0.0962523 -0.721492 0)
(-0.11066 -0.874567 0)
(-0.0723077 -0.986759 0)
(0.039817 -1.17971 0)
(-0.115257 -1.50812 0)
(0.166471 -1.76491 0)
(-0.0850692 -1.3031 0)
(-0.495418 -0.84229 0)
(-0.740184 -0.632148 0)
(-0.337796 -0.0746629 0)
(-1.08844 0.991881 0)
(-1.07573 1.34619 0)
(-1.03769 0.87094 0)
(-0.64424 0.743362 0)
(-0.626894 0.568358 0)
(-0.524835 0.606856 0)
(-0.517625 0.693763 0)
(-0.414245 0.725755 0)
(-0.0642151 -0.55884 0)
(-0.0721062 -0.565006 0)
(-0.0794489 -0.721981 0)
(-0.0326103 -0.586593 0)
(-0.103167 -0.624497 0)
(-0.17193 -0.694758 0)
(-0.181224 -0.841489 0)
(-0.167101 -0.900879 0)
(-0.341566 -1.18363 0)
(-0.506932 -1.53203 0)
(-0.60343 -1.57387 0)
(-0.827106 -0.989985 0)
(-1.13135 -0.824504 0)
(-1.1815 -0.464525 0)
(-1.10198 0.320602 0)
(-1.0524 0.711969 0)
(-1.05869 0.61353 0)
(-0.954313 0.539882 0)
(-0.720668 0.629261 0)
(-0.654239 0.558286 0)
(-0.562669 0.596253 0)
(-0.527621 0.624987 0)
(-0.410443 0.600841 0)
(-0.112737 -0.914436 0)
(-0.117738 -0.871942 0)
(-0.0744954 -0.794497 0)
(-0.0108867 -0.912177 0)
(-0.22221 -1.03862 0)
(-0.290036 -1.06165 0)
(-0.263944 -1.10635 0)
(-0.446981 -1.12907 0)
(-0.481722 -1.34363 0)
(-0.641469 -1.35237 0)
(-0.936229 -1.23398 0)
(-1.37065 -1.30873 0)
(-1.63601 -0.836547 0)
(-1.2403 -0.178139 0)
(-1.04984 0.423103 0)
(-1.2196 0.642535 0)
(-1.36593 0.529082 0)
(-0.8349 0.528225 0)
(-0.662287 0.495452 0)
(-0.628475 0.499566 0)
(-0.541479 0.52367 0)
(-0.473384 0.50567 0)
(-0.360074 0.49855 0)
(-0.0527785 -1.07673 0)
(0.120244 -1.05032 0)
(-0.0780426 -1.08799 0)
(-0.285315 -1.09383 0)
(-0.261468 -1.1821 0)
(-0.265238 -1.17795 0)
(-0.174538 -1.25632 0)
(-0.52462 -1.24793 0)
(-0.605413 -1.26798 0)
(-0.564124 -1.34481 0)
(-1.10787 -1.22879 0)
(-1.64076 -1.13683 0)
(-1.7063 -0.533579 0)
(-1.13643 -0.0246882 0)
(-0.968189 0.217026 0)
(-1.26131 0.445169 0)
(-1.32407 0.477862 0)
(-0.914107 0.546844 0)
(-0.797965 0.445884 0)
(-0.688288 0.409741 0)
(-0.600873 0.42737 0)
(-0.496312 0.435278 0)
(-0.393124 0.410679 0)
(-0.0128332 -1.05219 0)
(-0.0257937 -1.04245 0)
(-0.0993916 -1.16159 0)
(-0.241703 -1.096 0)
(-0.259915 -1.11942 0)
(-0.363861 -1.08011 0)
(-0.416451 -1.11006 0)
(-0.435376 -1.15347 0)
(-0.618408 -0.943235 0)
(-0.790627 -1.0919 0)
(-0.894095 -1.17059 0)
(-1.46825 -0.716617 0)
(-1.28234 -0.178793 0)
(-1.09235 0.0400771 0)
(-1.02672 0.065889 0)
(-1.21839 0.22222 0)
(-1.25778 0.289616 0)
(-0.92934 0.373037 0)
(-0.857755 0.319021 0)
(-0.691322 0.38784 0)
(-0.603456 0.391825 0)
(-0.493886 0.395796 0)
(-0.417177 0.392897 0)
(-0.0285048 -1.0049 0)
(-0.0575854 -1.02482 0)
(-0.136075 -0.996463 0)
(-0.304314 -1.08079 0)
(-0.261617 -1.08348 0)
(-0.239515 -1.02286 0)
(-0.350934 -0.838414 0)
(-0.322075 -0.777132 0)
(-0.505099 -0.832125 0)
(-0.797351 -0.858102 0)
(-0.939914 -0.826014 0)
(-0.999286 -0.440478 0)
(-1.08419 -0.257353 0)
(-0.930717 -0.131788 0)
(-0.873888 -0.0894285 0)
(-1.12517 0.0169614 0)
(-1.18301 0.146268 0)
(-0.901166 0.224097 0)
(-0.841939 0.29988 0)
(-0.697935 0.295736 0)
(-0.629427 0.32916 0)
(-0.50836 0.354031 0)
(-0.422628 0.346528 0)
(-0.0237213 -0.922961 0)
(-0.116375 -0.919632 0)
(-0.242477 -0.970841 0)
(-0.286951 -0.863341 0)
(-0.216216 -0.716905 0)
(-0.244559 -0.910572 0)
(-0.164888 -0.688741 0)
(-0.275547 -0.597187 0)
(-0.590228 -0.688177 0)
(-0.720561 -0.800396 0)
(-0.594833 -0.619285 0)
(-0.621166 -0.489458 0)
(-0.711364 -0.279742 0)
(-0.719822 -0.218627 0)
(-0.635682 -0.202975 0)
(-0.892826 -0.216346 0)
(-1.04435 0.126145 0)
(-0.853582 0.164046 0)
(-0.813517 0.217432 0)
(-0.677469 0.275435 0)
(-0.591785 0.296575 0)
(-0.485508 0.290884 0)
(-0.431417 0.297231 0)
(-0.0382359 -0.919677 0)
(-0.169666 -0.918598 0)
(-0.225003 -0.810974 0)
(-0.094243 -0.589233 0)
(-0.189165 -0.554122 0)
(-0.159221 -0.573263 0)
(-0.193446 -0.477963 0)
(-0.415104 -0.490765 0)
(-0.559787 -0.581474 0)
(-0.561837 -0.436805 0)
(-0.51084 -0.293649 0)
(-0.601837 -0.249789 0)
(-0.607151 -0.179175 0)
(-0.634369 -0.149219 0)
(-0.578867 -0.132593 0)
(-0.564288 -0.182232 0)
(-0.868983 0.0742489 0)
(-0.91509 0.136878 0)
(-0.73017 0.233631 0)
(-0.642675 0.188313 0)
(-0.593516 0.221537 0)
(-0.493349 0.278955 0)
(-0.42367 0.28464 0)
(-0.00873017 -0.52145 0)
(-0.0494363 -0.537325 0)
(0.0148666 -0.557422 0)
(-0.0197827 -0.477095 0)
(-0.206219 -0.488051 0)
(-0.162092 -0.438632 0)
(-0.204129 -0.454927 0)
(-0.490478 -0.568373 0)
(-0.572256 -0.554356 0)
(-0.508868 -0.39778 0)
(-0.508989 -0.379401 0)
(-0.467747 -0.302446 0)
(-0.486355 -0.260196 0)
(-0.475052 -0.217412 0)
(-0.476521 -0.168233 0)
(-0.419712 -0.213381 0)
(-0.565556 -0.169576 0)
(-0.768256 0.19382 0)
(-0.755218 0.264482 0)
(-0.683226 0.215252 0)
(-0.520943 0.257324 0)
(-0.447729 0.216714 0)
(-0.421418 0.213502 0)
(-0.0167636 -0.369525 0)
(-0.047943 -0.391916 0)
(-0.0768794 -0.372247 0)
(-0.114566 -0.403995 0)
(-0.169576 -0.371582 0)
(-0.119026 -0.411099 0)
(-0.468143 -0.614518 0)
(-0.572454 -0.707719 0)
(-0.412949 -0.491366 0)
(-0.34825 -0.433628 0)
(-0.398997 -0.327254 0)
(-0.401286 -0.272417 0)
(-0.441582 -0.22971 0)
(-0.399056 -0.181406 0)
(-0.403035 -0.143164 0)
(-0.420078 -0.133497 0)
(-0.424071 -0.140909 0)
(-0.622408 0.0498796 0)
(-0.689682 0.210483 0)
(-0.666083 0.277137 0)
(-0.644608 0.30774 0)
(-0.526428 0.244869 0)
(-0.395524 0.258845 0)
(-0.00693898 -0.332792 0)
(-0.00787219 -0.362628 0)
(-0.00937416 -0.388026 0)
(-0.000617799 -0.493435 0)
(-0.202583 -0.546021 0)
(-0.358272 -0.574243 0)
(-0.532245 -0.671892 0)
(-0.361155 -0.528031 0)
(-0.34002 -0.378208 0)
(-0.372653 -0.370335 0)
(-0.354426 -0.291393 0)
(-0.369632 -0.260248 0)
(-0.375094 -0.195503 0)
(-0.393163 -0.149073 0)
(-0.407037 -0.146449 0)
(-0.396739 -0.119606 0)
(-0.409323 -0.116016 0)
(-0.375684 -0.108564 0)
(-0.535116 0.0635652 0)
(-0.585007 0.192766 0)
(-0.498015 0.219792 0)
(-0.481368 0.325936 0)
(-0.441009 0.350325 0)
(-0.0304671 -0.561857 0)
(-0.0930733 -0.577193 0)
(-0.229605 -0.56359 0)
(-0.262266 -0.642018 0)
(-0.221718 -0.663504 0)
(-0.275678 -0.652608 0)
(-0.378686 -0.596172 0)
(-0.345214 -0.399278 0)
(-0.251388 -0.409233 0)
(-0.309305 -0.342391 0)
(-0.297105 -0.295559 0)
(-0.317742 -0.247022 0)
(-0.317978 -0.219496 0)
(-0.319167 -0.146424 0)
(-0.323307 -0.114432 0)
(-0.330999 -0.0554327 0)
(-0.341108 -0.0378755 0)
(-0.372953 0.0209537 0)
(-0.315119 -0.0153836 0)
(-0.440899 0.172759 0)
(-0.528783 0.181891 0)
(-0.430394 0.236117 0)
(-0.397132 0.256879 0)
(-0.0245971 -0.654863 0)
(-0.0617595 -0.675074 0)
(-0.125864 -0.67674 0)
(-0.170183 -0.578839 0)
(-0.223107 -0.56082 0)
(-0.336816 -0.575485 0)
(-0.27904 -0.42226 0)
(-0.234877 -0.345082 0)
(-0.263605 -0.353732 0)
(-0.270615 -0.291361 0)
(-0.278328 -0.268241 0)
(-0.284916 -0.224745 0)
(-0.292178 -0.198368 0)
(-0.301672 -0.154481 0)
(-0.298389 -0.133349 0)
(-0.305896 -0.0973905 0)
(-0.270511 -0.0738673 0)
(-0.268462 -0.034875 0)
(-0.247473 -0.00696264 0)
(-0.292478 -0.0703251 0)
(-0.446854 0.15645 0)
(-0.418232 0.181819 0)
(-0.386734 0.219207 0)
(-0.0292152 -0.555066 0)
(-0.0709773 -0.5632 0)
(-0.147871 -0.547053 0)
(-0.184464 -0.540571 0)
(-0.253713 -0.56502 0)
(-0.208308 -0.451296 0)
(-0.193352 -0.37774 0)
(-0.21735 -0.364821 0)
(-0.213068 -0.325055 0)
(-0.238936 -0.292644 0)
(-0.230895 -0.256012 0)
(-0.254699 -0.21688 0)
(-0.24007 -0.189464 0)
(-0.258276 -0.129532 0)
(-0.264044 -0.117233 0)
(-0.256524 -0.0744117 0)
(-0.258593 -0.0473972 0)
(-0.258331 -0.0394656 0)
(-0.257911 -0.0155513 0)
(-0.240612 -0.0183748 0)
(-0.37048 0.081585 0)
(-0.387731 0.175167 0)
(-0.338733 0.175422 0)
(-0.0238289 -0.546663 0)
(-0.0678727 -0.552923 0)
(-0.111947 -0.523307 0)
(-0.187587 -0.531007 0)
(-0.160284 -0.4368 0)
(-0.157678 -0.378022 0)
(-0.179864 -0.366065 0)
(-0.183108 -0.323777 0)
(-0.198334 -0.305035 0)
(-0.201525 -0.26672 0)
(-0.20527 -0.238705 0)
(-0.218044 -0.21462 0)
(-0.195851 -0.192696 0)
(-0.24199 -0.152085 0)
(-0.264821 -0.133252 0)
(-0.231316 -0.102117 0)
(-0.237261 -0.0663439 0)
(-0.211396 -0.0400145 0)
(-0.208845 -0.00336302 0)
(-0.234108 0.0158577 0)
(-0.19185 0.0105077 0)
(-0.286805 0.142134 0)
(-0.357575 0.129176 0)
(-0.0323274 -0.478699 0)
(-0.0532622 -0.473842 0)
(-0.140065 -0.47475 0)
(-0.121953 -0.423748 0)
(-0.11905 -0.377131 0)
(-0.144401 -0.37158 0)
(-0.145118 -0.333415 0)
(-0.165079 -0.322037 0)
(-0.165071 -0.2887 0)
(-0.180809 -0.272079 0)
(-0.179158 -0.239323 0)
(-0.19119 -0.21559 0)
(-0.196547 -0.191896 0)
(-0.200422 -0.195384 0)
(-0.198091 -0.121641 0)
(-0.203494 -0.0959251 0)
(-0.197067 -0.0642202 0)
(-0.197659 -0.0368704 0)
(-0.182358 -0.0227674 0)
(-0.192827 0.000753008 0)
(-0.16668 0.0278096 0)
(-0.223866 -0.0186515 0)
(-0.311277 0.151578 0)
(-0.0115619 -0.451706 0)
(-0.0396522 -0.443452 0)
(-0.0653893 -0.428868 0)
(-0.0978005 -0.365262 0)
(-0.10072 -0.369167 0)
(-0.117893 -0.330917 0)
(-0.126348 -0.320808 0)
(-0.135831 -0.287913 0)
(-0.144444 -0.272393 0)
(-0.151217 -0.243347 0)
(-0.156929 -0.22358 0)
(-0.163307 -0.20042 0)
(-0.162988 -0.175624 0)
(-0.180248 -0.150062 0)
(-0.181155 -0.122834 0)
(-0.178273 -0.100638 0)
(-0.177956 -0.075261 0)
(-0.168848 -0.0505976 0)
(-0.165304 -0.0266302 0)
(-0.16865 -0.00381514 0)
(-0.163751 0.0237776 0)
(-0.133975 -0.00496035 0)
(-0.238522 0.124461 0)
(-0.0163349 -0.378409 0)
(-0.0335727 -0.375597 0)
(-0.0631524 -0.368996 0)
(-0.0731359 -0.357556 0)
(-0.0866006 -0.332678 0)
(-0.0996224 -0.321503 0)
(-0.106383 -0.296446 0)
(-0.118146 -0.283123 0)
(-0.122127 -0.258095 0)
(-0.131433 -0.24174 0)
(-0.133885 -0.216398 0)
(-0.140762 -0.198498 0)
(-0.142635 -0.171798 0)
(-0.14731 -0.157192 0)
(-0.146392 -0.119909 0)
(-0.154221 -0.100275 0)
(-0.149024 -0.0718475 0)
(-0.157673 -0.0509134 0)
(-0.143968 -0.0278617 0)
(-0.130536 -0.00551482 0)
(-0.151658 0.0181966 0)
(-0.114675 0.0289524 0)
(-0.18434 0.0165444 0)
(-0.00741556 -0.352253 0)
(-0.0249674 -0.352089 0)
(-0.0380029 -0.345826 0)
(-0.0553163 -0.322936 0)
(-0.066321 -0.316962 0)
(-0.0774517 -0.293553 0)
(-0.0873458 -0.282656 0)
(-0.0949358 -0.260009 0)
(-0.102883 -0.245127 0)
(-0.10877 -0.223424 0)
(-0.11403 -0.20518 0)
(-0.119289 -0.184307 0)
(-0.121609 -0.163296 0)
(-0.127013 -0.141968 0)
(-0.12798 -0.117226 0)
(-0.129524 -0.0975727 0)
(-0.128787 -0.0730074 0)
(-0.123437 -0.0550792 0)
(-0.121285 -0.0267205 0)
(-0.110906 -0.0133892 0)
(-0.113656 0.0037437 0)
(-0.0874135 0.0363197 0)
(-0.121229 -0.0225229 0)
(-0.00812733 -0.312943 0)
(-0.0200988 -0.314675 0)
(-0.0356203 -0.308437 0)
(-0.0456646 -0.301227 0)
(-0.0558195 -0.288 0)
(-0.0653259 -0.277995 0)
(-0.0721754 -0.261812 0)
(-0.0801161 -0.248812 0)
(-0.0849275 -0.230981 0)
(-0.0909445 -0.215531 0)
(-0.0942665 -0.196403 0)
(-0.0986745 -0.179488 0)
(-0.100673 -0.158787 0)
(-0.104241 -0.141459 0)
(-0.104393 -0.117227 0)
(-0.109179 -0.0996714 0)
(-0.107458 -0.0777424 0)
(-0.109217 -0.0597126 0)
(-0.104408 -0.0403586 0)
(-0.100619 -0.0233196 0)
(-0.0955898 -0.00496766 0)
(-0.105234 0.00224194 0)
(-0.0494945 1.42656e-05 0)
(-0.00459033 -0.295434 0)
(-0.0144214 -0.297379 0)
(-0.023069 -0.292904 0)
(-0.0324485 -0.283184 0)
(-0.0403611 -0.275377 0)
(-0.0479045 -0.262541 0)
(-0.0548615 -0.251576 0)
(-0.0610149 -0.236822 0)
(-0.0668101 -0.223074 0)
(-0.0720854 -0.206802 0)
(-0.0766192 -0.190357 0)
(-0.0811958 -0.172515 0)
(-0.0837665 -0.153717 0)
(-0.0872629 -0.134504 0)
(-0.0878044 -0.112575 0)
(-0.0894943 -0.0944308 0)
(-0.088976 -0.0726618 0)
(-0.0863211 -0.0570939 0)
(-0.0877834 -0.0362887 0)
(-0.080343 -0.0298806 0)
(-0.0869643 0.000746192 0)
(-0.0735063 0.00277914 0)
(-0.0963829 0.053959 0)
(-0.0041779 -0.270807 0)
(-0.0121073 -0.273476 0)
(-0.0201762 -0.268945 0)
(-0.0273073 -0.262294 0)
(-0.0337192 -0.253758 0)
(-0.0396343 -0.243763 0)
(-0.0446023 -0.232211 0)
(-0.0492293 -0.219707 0)
(-0.0529414 -0.205871 0)
(-0.0563777 -0.19143 0)
(-0.0586473 -0.176422 0)
(-0.0607779 -0.161822 0)
(-0.061849 -0.146942 0)
(-0.0640085 -0.131205 0)
(-0.0647603 -0.114717 0)
(-0.0680116 -0.0993569 0)
(-0.0711908 -0.0817784 0)
(-0.0674545 -0.0630038 0)
(-0.0773551 -0.0471281 0)
(-0.0621504 -0.0302019 0)
(-0.0650002 -0.0132097 0)
(-0.0540722 0.00455562 0)
(-0.0764639 0.0184589 0)
(-0.00278707 -0.269186 0)
(-0.00830269 -0.271769 0)
(-0.0139628 -0.26816 0)
(-0.0191489 -0.262285 0)
(-0.0244954 -0.255207 0)
(-0.0291425 -0.246032 0)
(-0.0335039 -0.235977 0)
(-0.0372411 -0.224299 0)
(-0.0403639 -0.211811 0)
(-0.0431763 -0.198141 0)
(-0.0447947 -0.183706 0)
(-0.0473705 -0.167147 0)
(-0.0478976 -0.149148 0)
(-0.0510829 -0.128981 0)
(-0.0495714 -0.109371 0)
(-0.0515162 -0.0885538 0)
(-0.0514551 -0.0713573 0)
(-0.0504652 -0.0514286 0)
(-0.0512138 -0.0371173 0)
(-0.0458539 -0.0147158 0)
(-0.0525376 -0.00730092 0)
(-0.0374157 0.010698 0)
(-0.0619706 0.0119816 0)
(-0.00182682 -0.236153 0)
(-0.00569541 -0.23867 0)
(-0.00967341 -0.235154 0)
(-0.0131663 -0.229905 0)
(-0.0164862 -0.223427 0)