/*--------------------------------*- C++ -*----------------------------------*\
| =========                 |                                                 |
| \\      /  F ield         | foam-extend: Open Source CFD                    |
|  \\    /   O peration     | Version:     4.1                                |
|   \\  /    A nd           | Web:         http://www.foam-extend.org         |
|    \\/     M anipulation  |                                                 |
\*---------------------------------------------------------------------------*/
FoamFile
{
    version     2.0;
    format      ascii;
    class       volVectorField;
    location    "0.15";
    object      U_0;
}
// * * * * * * * * * * * * * * * * * * * * * * * * * * * * * * * * * * * * * //

dimensions      [0 1 -1 0 0 0 0];

internalField   nonuniform List<vector> 
2268
(
(0.059271 -0.0107085 0)
(0.121464 -0.0103549 0)
(0.23914 -0.0116504 0)
(0.313484 -0.00903243 0)
(0.403816 -0.0136835 0)
(0.534372 -0.00895776 0)
(0.573547 -0.0104919 0)
(0.706639 -0.0133598 0)
(0.742651 -0.00342076 0)
(0.846063 -0.0230726 0)
(0.745919 -0.0629038 0)
(0.725233 -0.020513 0)
(0.799491 -0.00455498 0)
(0.842835 -0.0205731 0)
(0.884476 -0.000530528 0)
(0.91753 -0.00316418 0)
(0.927334 0.00862212 0)
(0.956825 0.0123872 0)
(0.934278 0.00746454 0)
(0.84633 0.0135214 0)
(0.693639 0.0303841 0)
(0.465996 0.0478464 0)
(0.247039 0.112113 0)
(0.059541 -0.0319617 0)
(0.121628 -0.031161 0)
(0.240364 -0.0348416 0)
(0.313776 -0.0274793 0)
(0.406255 -0.041411 0)
(0.535295 -0.028863 0)
(0.575808 -0.0326198 0)
(0.708708 -0.0273952 0)
(0.745254 -0.0272916 0)
(0.847854 0.00726035 0)
(0.748328 -0.178581 0)
(0.718072 -0.0860478 0)
(0.790741 -0.0535384 0)
(0.81948 -0.0506532 0)
(0.864281 -0.0324842 0)
(0.891352 -0.0134083 0)
(0.903606 0.0204732 0)
(0.944533 0.0413271 0)
(0.927813 0.0431642 0)
(0.845884 0.0587301 0)
(0.702015 0.131325 0)
(0.505879 0.153265 0)
(0.257005 0.23119 0)
(0.0595887 -0.0535364 0)
(0.121037 -0.0521583 0)
(0.24099 -0.0580417 0)
(0.312138 -0.0460518 0)
(0.406923 -0.0686277 0)
(0.53476 -0.0460142 0)
(0.579044 -0.0550654 0)
(0.698922 -0.057248 0)
(0.792018 -0.0390491 0)
(0.760446 -0.105904 0)
(0.712171 -0.218518 0)
(0.702181 -0.134898 0)
(0.775696 -0.0653888 0)
(0.811679 -0.0755185 0)
(0.861109 -0.0392891 0)
(0.88952 -0.0432844 0)
(0.921729 -0.012028 0)
(0.933498 0.0213554 0)
(0.936208 0.0467481 0)
(0.875128 0.10372 0)
(0.727908 0.185875 0)
(0.475051 0.263669 0)
(0.330695 0.47554 0)
(0.0597928 -0.0744621 0)
(0.120361 -0.0731718 0)
(0.242265 -0.0809037 0)
(0.309388 -0.0644815 0)
(0.412956 -0.0966361 0)
(0.529115 -0.0683565 0)
(0.58074 -0.0718468 0)
(0.738461 -0.0889259 0)
(0.68649 -0.104796 0)
(0.659818 -0.205013 0)
(0.682672 -0.190924 0)
(0.691943 -0.13819 0)
(0.741723 -0.0925749 0)
(0.776381 -0.0903828 0)
(0.843424 -0.0609188 0)
(0.877325 -0.0534728 0)
(0.937207 -0.0234989 0)
(0.948809 0.0356997 0)
(0.984203 0.0775103 0)
(0.931181 0.133381 0)
(0.775283 0.297044 0)
(0.548394 0.317042 0)
(0.319791 0.629807 0)
(0.0597044 -0.0961635 0)
(0.119307 -0.0946334 0)
(0.243808 -0.103154 0)
(0.305352 -0.0852377 0)
(0.421187 -0.122957 0)
(0.513831 -0.0814068 0)
(0.597054 -0.117929 0)
(0.736829 -0.0727361 0)
(0.644462 -0.241318 0)
(0.61495 -0.198911 0)
(0.638783 -0.196525 0)
(0.667876 -0.178985 0)
(0.718099 -0.112097 0)
(0.781082 -0.122448 0)
(0.865245 -0.0961955 0)
(0.895937 -0.0556456 0)
(0.966661 -0.0175662 0)
(0.982721 0.0389073 0)
(1.01706 0.119876 0)
(0.989225 0.209701 0)
(0.792455 0.379766 0)
(0.634229 0.471465 0)
(0.455409 0.870197 0)
(0.0598596 -0.116295 0)
(0.118845 -0.116153 0)
(0.244211 -0.125483 0)
(0.30714 -0.104683 0)
(0.421563 -0.146393 0)
(0.505585 -0.111369 0)
(0.646066 -0.140825 0)
(0.600838 -0.143009 0)
(0.551913 -0.2637 0)
(0.566609 -0.22015 0)
(0.621177 -0.213589 0)
(0.666949 -0.202638 0)
(0.729008 -0.14046 0)
(0.826324 -0.168059 0)
(0.876049 -0.110703 0)
(0.923972 -0.090757 0)
(0.982768 -0.0651006 0)
(1.06784 0.00760381 0)
(1.05552 0.150404 0)
(1.04432 0.285804 0)
(0.821303 0.459374 0)
(0.785085 0.621684 0)
(0.499939 0.996875 0)
(0.0589797 -0.138784 0)
(0.117729 -0.138108 0)
(0.24615 -0.147187 0)
(0.308454 -0.12891 0)
(0.419849 -0.175275 0)
(0.518909 -0.147841 0)
(0.577366 -0.122749 0)
(0.539406 -0.27593 0)
(0.521362 -0.2709 0)
(0.554494 -0.241435 0)
(0.630748 -0.243688 0)
(0.679159 -0.232058 0)
(0.749208 -0.182539 0)
(0.845599 -0.194112 0)
(0.87897 -0.143542 0)
(0.971373 -0.121118 0)
(1.02978 -0.0832329 0)
(1.12486 0.00191993 0)
(1.10654 0.173051 0)
(1.09193 0.313287 0)
(0.953438 0.534129 0)
(0.780622 0.849266 0)
(0.633773 1.19065 0)
(0.0587645 -0.155227 0)
(0.119751 -0.158617 0)
(0.246227 -0.171579 0)
(0.309567 -0.155692 0)
(0.41939 -0.216704 0)
(0.521833 -0.128871 0)
(0.459387 -0.205848 0)
(0.484053 -0.303553 0)
(0.501786 -0.282593 0)
(0.561735 -0.273093 0)
(0.641044 -0.272285 0)
(0.6933 -0.261961 0)
(0.758192 -0.209029 0)
(0.859689 -0.225384 0)
(0.917531 -0.169525 0)
(1.00775 -0.162024 0)
(1.07075 -0.132409 0)
(1.1951 -0.022342 0)
(1.14484 0.121951 0)
(1.19923 0.421733 0)
(1.07876 0.612978 0)
(0.932199 1.08896 0)
(0.574997 1.45469 0)
(-0.032208 0.0395479 0)
(-0.133409 0.03799 0)
(-0.199424 0.0089022 0)
(-0.219484 0.00669733 0)
(-0.209483 -0.000467722 0)
(-0.198929 -0.00491968 0)
(-0.184647 -0.00706359 0)
(-0.166466 -0.00890381 0)
(-0.144343 -0.00827383 0)
(-0.127108 -0.00732591 0)
(-0.106976 -0.0090608 0)
(-0.0861202 -0.00045823 0)
(-0.0870703 -0.0050799 0)
(-0.0732553 0.00864338 0)
(-0.0450189 -0.0061929 0)
(-0.0407436 -0.00170442 0)
(-0.0205167 -0.00166662 0)
(-0.0142072 -0.00105444 0)
(-0.00223494 -0.000975218 0)
(-0.0232946 0.10795 0)
(-0.152003 0.0535956 0)
(-0.214281 0.0251435 0)
(-0.218384 0.00411537 0)
(-0.211108 -0.00988369 0)
(-0.195138 -0.0185748 0)
(-0.178988 -0.0223034 0)
(-0.16071 -0.0292638 0)
(-0.13667 -0.0251997 0)
(-0.120177 -0.0276234 0)
(-0.0968325 -0.0239932 0)
(-0.0785325 -0.0134858 0)
(-0.0745768 -0.0243629 0)
(-0.0670521 -0.0073802 0)
(-0.0425447 -0.0162449 0)
(-0.0346422 -0.00525552 0)
(-0.0165595 -0.00414504 0)
(-0.0118357 -0.00273231 0)
(-0.00144935 -0.00245044 0)
(-0.0453447 0.1996 0)
(-0.16769 0.0900861 0)
(-0.229109 0.0412779 0)
(-0.228217 0.0112635 0)
(-0.220184 -0.00913109 0)
(-0.19798 -0.0325244 0)
(-0.181855 -0.0378462 0)
(-0.161543 -0.0477873 0)
(-0.136337 -0.0437377 0)
(-0.119074 -0.0442109 0)
(-0.0938408 -0.0442358 0)
(-0.0795392 -0.0256716 0)
(-0.0757159 -0.0363262 0)
(-0.0575592 -0.0164938 0)
(-0.0382719 -0.0193071 0)
(-0.0322436 -0.00815609 0)
(-0.0156398 -0.00632243 0)
(-0.0112637 -0.00422517 0)
(-0.00130272 -0.00373215 0)
(-0.0672687 0.290853 0)
(-0.217108 0.133976 0)
(-0.264386 0.049912 0)
(-0.23619 0.00600381 0)
(-0.236881 -0.0366382 0)
(-0.210197 -0.0510558 0)
(-0.185593 -0.0588675 0)
(-0.163195 -0.0711854 0)
(-0.135975 -0.0618511 0)
(-0.119214 -0.0686567 0)
(-0.0902094 -0.057261 0)
(-0.0742206 -0.0705617 0)
(-0.0757613 -0.027165 0)
(-0.0512831 -0.0213477 0)
(-0.0372391 -0.0201219 0)
(-0.0284668 -0.0105072 0)
(-0.0145992 -0.00853071 0)
(-0.010554 -0.00573711 0)
(-0.00114378 -0.00511278 0)
(-0.0636402 0.459336 0)
(-0.259654 0.174713 0)
(-0.30667 0.0497669 0)
(-0.272835 0.00130197 0)
(-0.250998 -0.0121522 0)
(-0.211314 -0.0698519 0)
(-0.191453 -0.0803798 0)
(-0.16244 -0.0920933 0)
(-0.1366 -0.0825042 0)
(-0.115687 -0.0769004 0)
(-0.0979684 -0.0938668 0)
(-0.0668542 -0.0694531 0)
(-0.0514771 -0.0439618 0)
(-0.0494306 -0.0288804 0)
(-0.0376773 -0.0237526 0)
(-0.0261711 -0.0130162 0)
(-0.0134853 -0.0104229 0)
(-0.00972058 -0.00704249 0)
(-0.000953986 -0.00663755 0)
(-0.173913 0.571192 0)
(-0.354921 0.240337 0)
(-0.381637 0.0670642 0)
(-0.278608 0.00594425 0)
(-0.29034 -0.0972926 0)
(-0.244951 -0.0891943 0)
(-0.193246 -0.109198 0)
(-0.162599 -0.11828 0)
(-0.133592 -0.102309 0)
(-0.123174 -0.118321 0)
(-0.0857108 -0.0846783 0)
(-0.0559569 -0.0560762 0)
(-0.0579732 -0.0538019 0)
(-0.037104 -0.0378542 0)
(-0.032167 -0.0250728 0)
(-0.0227644 -0.0153849 0)
(-0.0120127 -0.0118552 0)
(-0.00883467 -0.00826719 0)
(-0.000866574 -0.00792975 0)
(-0.174584 0.90322 0)
(-0.438054 0.280061 0)
(-0.508959 0.0401908 0)
(-0.403879 -0.080698 0)
(-0.32643 -0.0883538 0)
(-0.227391 -0.138578 0)
(-0.207134 -0.157579 0)
(-0.160111 -0.153339 0)
(-0.144364 -0.118547 0)
(-0.106288 -0.0975669 0)
(-0.0712612 -0.0671593 0)
(-0.0568315 -0.0685225 0)
(-0.0441849 -0.0580665 0)
(-0.036837 -0.0382259 0)
(-0.0273354 -0.0282878 0)
(-0.0202988 -0.0173172 0)
(-0.0104088 -0.0131765 0)
(-0.00791991 -0.00936555 0)
(-0.00068303 -0.00878316 0)
(-0.289036 0.950843 0)
(-0.740162 0.363061 0)
(-0.697065 -0.0228892 0)
(-0.485656 -0.147089 0)
(-0.3597 -0.053096 0)
(-0.283835 -0.171538 0)
(-0.217804 -0.178935 0)
(-0.163279 -0.167697 0)
(-0.113847 -0.144292 0)
(-0.106242 -0.0814403 0)
(-0.0735055 -0.0954182 0)
(-0.0514485 -0.0709106 0)
(-0.0447393 -0.0630574 0)
(-0.0252205 -0.0425991 0)
(-0.0224633 -0.028803 0)
(-0.0162302 -0.0192265 0)
(-0.00858341 -0.014538 0)
(-0.00680982 -0.0103521 0)
(-0.000468821 -0.00967578 0)
(0.0534405 -0.194995 0)
(0.120934 -0.194037 0)
(0.233868 -0.209417 0)
(0.28221 -0.155227 0)
(0.42479 -0.226613 0)
(0.393674 -0.253626 0)
(0.401087 -0.304688 0)
(0.46424 -0.31114 0)
(0.500874 -0.306 0)
(0.575338 -0.329829 0)
(0.650426 -0.320422 0)
(0.704946 -0.301995 0)
(0.798212 -0.283929 0)
(0.917037 -0.288194 0)
(0.953036 -0.201234 0)
(1.03488 -0.197549 0)
(1.12649 -0.153673 0)
(1.21781 -0.0389864 0)
(1.33775 0.0167322 0)
(1.32199 0.307621 0)
(1.52036 0.704045 0)
(1.38856 1.5045 0)
(1.00673 1.8073 0)
(0.0565173 -0.226328 0)
(0.107183 -0.243721 0)
(0.256782 -0.236107 0)
(0.249489 -0.294971 0)
(0.270075 -0.284019 0)
(0.340322 -0.355566 0)
(0.383664 -0.327433 0)
(0.444217 -0.351996 0)
(0.492018 -0.39023 0)
(0.588379 -0.404314 0)
(0.63676 -0.399252 0)
(0.737586 -0.393248 0)
(0.869786 -0.435893 0)
(0.964237 -0.3348 0)
(0.991107 -0.333897 0)
(1.04061 -0.325264 0)
(1.21869 -0.292367 0)
(1.225 -0.133078 0)
(1.56013 0.0820296 0)
(1.91394 0.529335 0)
(1.87805 1.19106 0)
(1.38368 1.55669 0)
(1.29255 2.08123 0)
(0.0365187 -0.2782 0)
(0.0783299 -0.300537 0)
(0.152011 -0.287108 0)
(0.210351 -0.365068 0)
(0.253938 -0.342739 0)
(0.320415 -0.369548 0)
(0.361453 -0.401645 0)
(0.425138 -0.424856 0)
(0.495919 -0.451819 0)
(0.555799 -0.478596 0)
(0.636129 -0.45858 0)
(0.737245 -0.538902 0)
(0.917371 -0.471617 0)
(0.888448 -0.539698 0)
(0.957158 -0.63808 0)
(1.05655 -0.556045 0)
(1.33028 -0.538706 0)
(1.46545 -0.363049 0)
(1.55286 0.21753 0)
(1.74885 0.720283 0)
(1.90504 1.36675 0)
(1.54367 1.56266 0)
(1.20009 2.2261 0)
(0.0366955 -0.3447 0)
(0.0783445 -0.356726 0)
(0.147468 -0.363325 0)
(0.189729 -0.38499 0)
(0.239253 -0.383943 0)
(0.292858 -0.44074 0)
(0.345211 -0.448044 0)
(0.400272 -0.471296 0)
(0.454716 -0.53468 0)
(0.543558 -0.531306 0)
(0.600479 -0.588909 0)
(0.774266 -0.628183 0)
(0.797029 -0.646908 0)
(0.742868 -0.705705 0)
(0.845318 -0.689289 0)
(1.06254 -0.627945 0)
(1.33741 -0.612855 0)
(1.8326 -0.387562 0)
(1.71405 0.218574 0)
(1.66408 1.25575 0)
(1.88339 1.82968 0)
(1.71182 1.84096 0)
(1.17454 2.52419 0)
(0.0247345 -0.392739 0)
(0.0727375 -0.40759 0)
(0.119603 -0.3998 0)
(0.167821 -0.442585 0)
(0.21429 -0.45234 0)
(0.26677 -0.474338 0)
(0.308579 -0.503912 0)
(0.356843 -0.541189 0)
(0.435792 -0.587697 0)
(0.467827 -0.626241 0)
(0.572082 -0.648447 0)
(0.606951 -0.750008 0)
(0.763851 -0.811306 0)
(0.791144 -0.773245 0)
(0.874184 -0.70245 0)
(1.05055 -0.698151 0)
(1.23861 -0.60989 0)
(1.66555 -0.671186 0)
(1.87885 -0.127213 0)
(1.74536 1.06455 0)
(1.47116 2.98065 0)
(1.23188 2.3536 0)
(0.91399 2.55374 0)
(0.0247602 -0.444378 0)
(0.0650354 -0.450818 0)
(0.11113 -0.461675 0)
(0.157559 -0.476352 0)
(0.190145 -0.484635 0)
(0.23742 -0.529264 0)
(0.275885 -0.545544 0)
(0.325874 -0.593961 0)
(0.37979 -0.645259 0)
(0.415032 -0.67256 0)
(0.497546 -0.717617 0)
(0.567341 -0.872956 0)
(0.700786 -0.870377 0)
(0.72846 -0.872307 0)
(0.792075 -0.917551 0)
(0.988901 -0.953785 0)
(1.31164 -0.823201 0)
(1.50668 -0.615559 0)
(0.895244 -0.0829342 0)
(0.603798 0.854306 0)
(0.966716 2.87784 0)
(0.322375 3.13773 0)
(0.610305 2.63129 0)
(0.018042 -0.482997 0)
(0.0588344 -0.492482 0)
(0.0948107 -0.495307 0)
(0.132446 -0.518282 0)
(0.168974 -0.536454 0)
(0.207648 -0.55817 0)
(0.238376 -0.593324 0)
(0.276718 -0.641094 0)
(0.318882 -0.672495 0)
(0.322121 -0.729626 0)
(0.426865 -0.797141 0)
(0.471118 -0.9787 0)
(0.614864 -0.990493 0)
(0.641371 -1.01528 0)
(0.723049 -1.02572 0)
(0.936362 -1.03408 0)
(1.04925 -0.69212 0)
(0.227352 0.170249 0)
(-0.200414 0.610228 0)
(-0.216252 1.38428 0)
(0.120791 2.7028 0)
(0.192138 3.10195 0)
(0.624391 2.74245 0)
(0.0170785 -0.522238 0)
(0.0522538 -0.527743 0)
(0.0844784 -0.537225 0)
(0.122899 -0.548098 0)
(0.145418 -0.561886 0)
(0.179708 -0.592535 0)
(0.20881 -0.623316 0)
(0.233354 -0.679217 0)
(0.240987 -0.725126 0)
(0.239191 -0.809897 0)
(0.350578 -0.900414 0)
(0.368368 -1.08008 0)
(0.520916 -1.11161 0)
(0.540061 -1.15795 0)
(0.67167 -1.24439 0)
(0.784317 -1.11229 0)
(-0.0599127 0.0260387 0)
(-0.195963 0.5043 0)
(-0.374737 0.829783 0)
(-0.389885 1.3043 0)
(-0.322038 2.06261 0)
(0.00605493 2.49354 0)
(0.557434 2.51592 0)
(0.0134142 -0.552654 0)
(0.0458227 -0.560761 0)
(0.0736607 -0.568087 0)
(0.105318 -0.578867 0)
(0.125494 -0.597873 0)
(0.154908 -0.616972 0)
(0.163995 -0.6522 0)
(0.180239 -0.689235 0)
(0.167999 -0.7515 0)
(0.197029 -0.850623 0)
(0.288767 -0.963692 0)
(0.229363 -1.15468 0)
(0.392884 -1.2554 0)
(0.430818 -1.35459 0)
(0.600448 -1.32821 0)
(0.236604 -0.387306 0)
(-0.31708 0.687306 0)
(-0.254699 0.88668 0)
(-0.433851 1.09153 0)
(-0.397579 1.29965 0)
(-0.348175 1.70535 0)
(-0.10833 1.87886 0)
(0.276962 2.00752 0)
(0.0114951 -0.580608 0)
(0.0385916 -0.58784 0)
(0.0648325 -0.595649 0)
(0.0950707 -0.599529 0)
(0.107817 -0.619288 0)
(0.13707 -0.625386 0)
(0.130083 -0.663484 0)
(0.162596 -0.678892 0)
(0.142786 -0.747495 0)
(0.170139 -0.842618 0)
(0.151001 -0.948065 0)
(0.0384322 -1.27648 0)
(0.23026 -1.40836 0)
(0.195634 -1.37853 0)
(0.47168 -1.19168 0)
(-0.0995633 -0.0205657 0)
(-0.158722 0.724839 0)
(-0.214776 0.885798 0)
(-0.394693 1.07962 0)
(-0.285982 1.23123 0)
(-0.198592 1.44111 0)
(-0.084818 1.47495 0)
(0.151706 1.52025 0)
(0.00944267 -0.610979 0)
(0.0328986 -0.617887 0)
(0.0616108 -0.620148 0)
(0.0847333 -0.626099 0)
(0.107189 -0.655022 0)
(0.117923 -0.669958 0)
(0.122213 -0.736977 0)
(0.2591 -0.693466 0)
(0.273306 -1.12985 0)
(0.163999 -1.23881 0)
(0.00690713 -1.32382 0)
(-0.0831702 -1.31434 0)
(0.139637 -1.43784 0)
(0.134293 -1.28276 0)
(0.653906 -1.12033 0)
(0.303164 0.186634 0)
(-0.0127583 0.973843 0)
(-0.161263 0.959034 0)
(-0.209013 1.1645 0)
(-0.148025 1.26557 0)
(-0.159836 1.35036 0)
(-0.0968972 1.37953 0)
(0.0021433 1.26023 0)
(0.00769653 -0.631283 0)
(0.0308328 -0.636068 0)
(0.0602083 -0.63605 0)
(0.0648881 -0.640404 0)
(0.0728064 -0.667859 0)
(0.068207 -0.684682 0)
(0.00556425 -0.775834 0)
(-0.0922376 -0.838871 0)
(0.0769609 -1.3761 0)
(0.0650909 -1.37957 0)
(0.0966994 -1.47449 0)
(0.0962717 -1.53054 0)
(0.126995 -1.44406 0)
(0.186379 -1.24883 0)
(0.0791999 -0.804341 0)
(0.198485 0.604955 0)
(-0.100942 1.09513 0)
(-0.0964288 1.1365 0)
(-0.105498 1.23967 0)
(-0.131538 1.25052 0)
(-0.110134 1.26465 0)
(-0.155962 1.29103 0)
(0.0340192 1.23485 0)
(0.00316934 -0.636923 0)
(0.0382482 -0.665336 0)
(0.0780909 -0.67585 0)
(0.0469124 -0.685929 0)
(0.0683212 -0.681468 0)
(0.0653568 -0.69177 0)
(-0.02774 -0.606427 0)
(-0.108276 -0.894993 0)
(-0.000831914 -1.37541 0)
(0.0407044 -1.36519 0)
(0.124942 -1.39014 0)
(0.282052 -1.4244 0)
(0.16243 -1.47071 0)
(0.104956 -1.4524 0)
(-0.228718 -0.80228 0)
(0.217886 0.789259 0)
(0.0830613 1.19412 0)
(-0.018334 1.22916 0)
(-0.0865309 1.24379 0)
(-0.135278 1.23232 0)
(-0.118687 1.21222 0)
(-0.135344 1.26227 0)
(-0.103944 1.13557 0)
(0.0139964 -0.69545 0)
(0.00219487 -0.750904 0)
(0.0360087 -0.691273 0)
(0.0737229 -0.700161 0)
(0.0877838 -0.705018 0)
(0.0983953 -0.640888 0)
(0.205304 -0.544166 0)
(0.217139 -0.809692 0)
(0.0524185 -1.57451 0)
(0.215837 -1.73794 0)
(0.503124 -1.80141 0)
(0.458453 -1.68179 0)
(0.240361 -1.51959 0)
(0.232321 -1.66874 0)
(0.314599 -1.02748 0)
(0.208479 -0.190137 0)
(0.219536 1.45936 0)
(-0.0395292 1.43387 0)
(-0.126143 1.26559 0)
(-0.159065 1.22644 0)
(-0.101606 1.21608 0)
(-0.244292 1.09904 0)
(-0.417244 0.831237 0)
(0.00752973 -0.690497 0)
(0.00690131 -0.702788 0)
(-0.00201665 -0.695631 0)
(0.0279626 -0.664614 0)
(0.0369759 -0.671454 0)
(0.0974002 -0.645826 0)
(0.243532 -0.619757 0)
(0.270224 -0.767466 0)
(0.53391 -1.29752 0)
(0.652616 -1.71388 0)
(0.673388 -1.98522 0)
(0.590521 -1.9409 0)
(0.658059 -1.55094 0)
(0.489088 -1.39266 0)
(0.32314 -0.960362 0)
(-0.428708 0.399659 0)
(-0.20681 1.72824 0)
(-0.351861 1.6047 0)
(-0.287591 1.3697 0)
(-0.202007 1.212 0)
(-0.257523 1.09609 0)
(-0.519014 0.787813 0)
(-0.387904 0.809895 0)
(-0.0095775 -0.675326 0)
(-0.0355535 -0.683193 0)
(-0.0608471 -0.765388 0)
(-0.0327255 -0.70473 0)
(-0.0501344 -0.718043 0)
(-0.0231814 -0.697897 0)
(0.030637 -0.816349 0)
(0.152447 -0.92861 0)
(0.383656 -1.09107 0)
(0.43265 -1.3952 0)
(0.864186 -1.73217 0)
(0.710026 -1.75867 0)
(0.536234 -1.51274 0)
(-0.142862 -0.658015 0)
(-0.264728 -0.680185 0)
(-0.561522 0.988052 0)
(-0.524865 1.71108 0)
(-0.636644 1.46208 0)
(-0.465625 1.23779 0)
(-0.533087 0.909944 0)
(-0.585902 0.779396 0)
(-0.563997 0.722159 0)
(-0.394283 0.799653 0)
(-0.0472637 -0.657876 0)
(-0.0760668 -0.676215 0)
(-0.0685329 -0.783165 0)
(-0.0489752 -0.695158 0)
(-0.0886827 -0.70357 0)
(-0.0997621 -0.721357 0)
(-0.112828 -0.871461 0)
(-0.0706916 -0.982265 0)
(0.0571574 -1.17392 0)
(-0.0898415 -1.48781 0)
(0.200807 -1.74373 0)
(-0.0362565 -1.32566 0)
(-0.428421 -0.860368 0)
(-0.715013 -0.641591 0)
(-0.304036 -0.109857 0)
(-1.06529 1.01484 0)
(-1.05702 1.3815 0)
(-1.0225 0.903058 0)
(-0.631986 0.750668 0)
(-0.614099 0.577575 0)
(-0.511773 0.613575 0)
(-0.501671 0.697403 0)
(-0.397278 0.726092 0)
(-0.0637892 -0.561755 0)
(-0.0739965 -0.568254 0)
(-0.0821648 -0.723162 0)
(-0.0376509 -0.589011 0)
(-0.108358 -0.623158 0)
(-0.175424 -0.690186 0)
(-0.184865 -0.837847 0)
(-0.166144 -0.89526 0)
(-0.336332 -1.17686 0)
(-0.496272 -1.53718 0)
(-0.577867 -1.59713 0)
(-0.786549 -0.983065 0)
(-1.10227 -0.823967 0)
(-1.15522 -0.480871 0)
(-1.06843 0.30797 0)
(-1.04195 0.73521 0)
(-1.05591 0.645241 0)
(-0.941659 0.554195 0)
(-0.708972 0.638812 0)
(-0.643104 0.566606 0)
(-0.550501 0.601338 0)
(-0.513755 0.627121 0)
(-0.398135 0.601117 0)
(-0.115694 -0.917358 0)
(-0.120698 -0.87307 0)
(-0.0766233 -0.797336 0)
(-0.0111462 -0.912197 0)
(-0.225247 -1.04003 0)
(-0.29856 -1.05993 0)
(-0.268569 -1.10507 0)
(-0.444696 -1.12752 0)
(-0.478359 -1.34284 0)
(-0.639869 -1.35416 0)
(-0.928014 -1.23713 0)
(-1.36088 -1.30679 0)
(-1.61109 -0.864162 0)
(-1.23177 -0.187966 0)
(-1.04517 0.432275 0)
(-1.22655 0.663007 0)
(-1.37198 0.552713 0)
(-0.829783 0.543845 0)
(-0.65438 0.506001 0)
(-0.619254 0.506499 0)
(-0.531333 0.526793 0)
(-0.462647 0.507434 0)
(-0.350614 0.499356 0)
(-0.0542434 -1.08008 0)
(0.119513 -1.05268 0)
(-0.0792137 -1.09191 0)
(-0.287879 -1.09655 0)
(-0.262714 -1.18548 0)
(-0.270171 -1.18009 0)
(-0.176048 -1.25637 0)
(-0.523024 -1.24773 0)
(-0.6038 -1.26954 0)
(-0.561004 -1.34734 0)
(-1.09811 -1.23029 0)
(-1.62972 -1.14978 0)
(-1.70773 -0.543395 0)
(-1.14136 -0.0300541 0)
(-0.972819 0.222611 0)
(-1.27187 0.459536 0)
(-1.33145 0.496585 0)
(-0.910494 0.558607 0)
(-0.793854 0.453364 0)
(-0.680623 0.415819 0)
(-0.593149 0.431053 0)
(-0.487894 0.437646 0)
(-0.385844 0.412405 0)
(-0.0132958 -1.05333 0)
(-0.0255533 -1.0429 0)
(-0.100238 -1.1648 0)
(-0.243472 -1.09843 0)
(-0.261822 -1.12141 0)
(-0.367157 -1.08248 0)
(-0.418071 -1.10982 0)
(-0.436491 -1.15703 0)
(-0.619404 -0.94579 0)
(-0.789923 -1.09478 0)
(-0.8896 -1.1733 0)
(-1.46593 -0.723156 0)
(-1.28608 -0.181086 0)
(-1.09877 0.0431454 0)
(-1.03499 0.0737774 0)
(-1.22733 0.230145 0)
(-1.26505 0.300543 0)
(-0.926522 0.382042 0)
(-0.854409 0.326002 0)
(-0.68548 0.392814 0)
(-0.596552 0.394989 0)
(-0.486848 0.398001 0)
(-0.410158 0.39409 0)
(-0.0287926 -1.00729 0)
(-0.0568025 -1.02775 0)
(-0.13576 -0.998394 0)
(-0.306056 -1.08298 0)
(-0.262743 -1.08496 0)
(-0.241227 -1.02449 0)
(-0.353106 -0.840648 0)
(-0.324008 -0.778727 0)
(-0.505581 -0.83475 0)
(-0.798848 -0.862275 0)
(-0.943617 -0.831596 0)
(-1.00283 -0.441331 0)
(-1.08886 -0.258342 0)
(-0.936374 -0.129504 0)
(-0.879894 -0.0832655 0)
(-1.13033 0.0217338 0)
(-1.18662 0.153107 0)
(-0.899716 0.227929 0)
(-0.839017 0.306193 0)
(-0.69302 0.299494 0)
(-0.623434 0.332043 0)
(-0.502534 0.355955 0)
(-0.416677 0.347521 0)
(-0.0248443 -0.925086 0)
(-0.116992 -0.921201 0)
(-0.243491 -0.971977 0)
(-0.288014 -0.864417 0)
(-0.217362 -0.717591 0)
(-0.245663 -0.911102 0)
(-0.165203 -0.690211 0)
(-0.276249 -0.599674 0)
(-0.591718 -0.690131 0)
(-0.723334 -0.804082 0)
(-0.59918 -0.620953 0)
(-0.62293 -0.492237 0)
(-0.714284 -0.277902 0)
(-0.722605 -0.214047 0)
(-0.639124 -0.196378 0)
(-0.896127 -0.212147 0)
(-1.05002 0.132962 0)
(-0.851649 0.171013 0)
(-0.808817 0.222019 0)
(-0.673347 0.279103 0)
(-0.586398 0.299192 0)
(-0.480392 0.293058 0)
(-0.426006 0.298349 0)
(-0.0376435 -0.921834 0)
(-0.170593 -0.920294 0)
(-0.225691 -0.811832 0)
(-0.0948297 -0.589471 0)
(-0.190324 -0.555192 0)
(-0.159625 -0.574468 0)
(-0.19295 -0.47874 0)
(-0.415927 -0.492198 0)
(-0.561807 -0.583266 0)
(-0.563125 -0.440057 0)
(-0.511801 -0.295918 0)
(-0.604691 -0.249824 0)
(-0.610066 -0.176729 0)
(-0.636549 -0.146531 0)
(-0.580818 -0.129072 0)
(-0.565931 -0.17853 0)
(-0.869421 0.0799818 0)
(-0.916161 0.142309 0)
(-0.728961 0.238624 0)
(-0.639123 0.191999 0)
(-0.589685 0.224057 0)
(-0.4892 0.280708 0)
(-0.419112 0.285709 0)
(-0.00924419 -0.521993 0)
(-0.0501367 -0.537825 0)
(0.0145835 -0.5583 0)
(-0.0200052 -0.47819 0)
(-0.207067 -0.48952 0)
(-0.16352 -0.439231 0)
(-0.203269 -0.455408 0)
(-0.491562 -0.569494 0)
(-0.57445 -0.555941 0)
(-0.511686 -0.399176 0)
(-0.51165 -0.380665 0)
(-0.470176 -0.301791 0)
(-0.489143 -0.258125 0)
(-0.477484 -0.214408 0)
(-0.478988 -0.164724 0)
(-0.421543 -0.209721 0)
(-0.565799 -0.167994 0)
(-0.768174 0.195808 0)
(-0.753702 0.268392 0)
(-0.680259 0.218432 0)
(-0.517065 0.259377 0)
(-0.443912 0.218564 0)
(-0.417668 0.214592 0)
(-0.0169656 -0.370014 0)
(-0.0490446 -0.392017 0)
(-0.0777289 -0.37286 0)
(-0.116384 -0.404106 0)
(-0.170952 -0.372582 0)
(-0.118982 -0.411057 0)
(-0.470285 -0.615314 0)
(-0.57423 -0.709264 0)
(-0.41423 -0.492327 0)
(-0.349827 -0.43498 0)
(-0.400807 -0.327998 0)
(-0.402711 -0.272747 0)
(-0.443179 -0.228787 0)
(-0.400086 -0.179503 0)
(-0.403398 -0.140956 0)
(-0.419709 -0.130854 0)
(-0.423414 -0.138062 0)
(-0.6214 0.0520589 0)
(-0.688245 0.213395 0)
(-0.663232 0.279825 0)
(-0.642115 0.309743 0)
(-0.523673 0.246658 0)
(-0.3921 0.259786 0)
(-0.00670754 -0.332507 0)
(-0.00774853 -0.362385 0)
(-0.00815396 -0.388132 0)
(-7.62026e-05 -0.494199 0)
(-0.203531 -0.545837 0)
(-0.359473 -0.574702 0)
(-0.534319 -0.672302 0)
(-0.361826 -0.529441 0)
(-0.341335 -0.37839 0)
(-0.374045 -0.370838 0)
(-0.355792 -0.291426 0)
(-0.371097 -0.25984 0)
(-0.376512 -0.194951 0)
(-0.394242 -0.147917 0)
(-0.407819 -0.144648 0)
(-0.396929 -0.117519 0)
(-0.409349 -0.113767 0)
(-0.375131 -0.105818 0)
(-0.533496 0.0664267 0)
(-0.582622 0.196174 0)
(-0.495941 0.221572 0)
(-0.478858 0.327391 0)
(-0.438638 0.351138 0)
(-0.030843 -0.5625 0)
(-0.0937082 -0.577816 0)
(-0.230908 -0.564138 0)
(-0.263355 -0.643376 0)
(-0.222526 -0.664414 0)
(-0.276021 -0.65365 0)
(-0.379871 -0.597929 0)
(-0.346657 -0.399567 0)
(-0.252089 -0.409551 0)
(-0.310366 -0.342834 0)
(-0.298133 -0.295788 0)
(-0.318782 -0.246759 0)
(-0.318921 -0.219223 0)
(-0.320077 -0.145733 0)
(-0.323944 -0.11335 0)
(-0.331295 -0.0543756 0)
(-0.340559 -0.0367931 0)
(-0.372665 0.023022 0)
(-0.314513 -0.0131201 0)
(-0.439787 0.175704 0)
(-0.527396 0.183988 0)
(-0.428447 0.237339 0)
(-0.395248 0.257466 0)
(-0.0245759 -0.65588 0)
(-0.0619578 -0.675873 0)
(-0.125504 -0.677689 0)
(-0.17029 -0.579473 0)
(-0.223329 -0.561175 0)
(-0.337359 -0.57628 0)
(-0.279738 -0.422922 0)
(-0.235623 -0.344948 0)
(-0.26442 -0.35411 0)
(-0.271344 -0.291357 0)
(-0.279155 -0.26811 0)
(-0.285672 -0.224452 0)
(-0.292979 -0.197768 0)
(-0.302541 -0.153677 0)
(-0.298993 -0.132446 0)
(-0.306362 -0.0961777 0)
(-0.270932 -0.0724187 0)
(-0.268717 -0.033193 0)
(-0.247373 -0.00465485 0)
(-0.291832 -0.068397 0)
(-0.445523 0.157883 0)
(-0.416407 0.182574 0)
(-0.385311 0.220099 0)
(-0.0293307 -0.555315 0)
(-0.0711515 -0.563431 0)
(-0.148169 -0.547432 0)
(-0.185024 -0.541182 0)
(-0.254565 -0.565703 0)
(-0.208774 -0.452065 0)
(-0.194026 -0.378003 0)
(-0.218014 -0.365157 0)
(-0.213617 -0.325273 0)
(-0.239681 -0.292745 0)
(-0.231538 -0.256085 0)
(-0.255391 -0.21641 0)
(-0.240885 -0.188923 0)
(-0.258787 -0.128882 0)
(-0.264494 -0.116598 0)
(-0.256812 -0.0736599 0)
(-0.258668 -0.0465082 0)
(-0.258154 -0.0384218 0)
(-0.257341 -0.0142211 0)
(-0.239477 -0.0175885 0)
(-0.369241 0.0829164 0)
(-0.386194 0.176456 0)
(-0.337457 0.176124 0)
(-0.0237888 -0.547445 0)
(-0.0678974 -0.55362 0)
(-0.111966 -0.523779 0)
(-0.187962 -0.531483 0)
(-0.160381 -0.437164 0)
(-0.15806 -0.378222 0)
(-0.180244 -0.366524 0)
(-0.183474 -0.323885 0)
(-0.198762 -0.305115 0)
(-0.201961 -0.266692 0)
(-0.20578 -0.238525 0)
(-0.218605 -0.214258 0)
(-0.196089 -0.192257 0)
(-0.242492 -0.15154 0)
(-0.265357 -0.13249 0)
(-0.231539 -0.101481 0)
(-0.237475 -0.0655436 0)
(-0.211363 -0.0391244 0)
(-0.20843 -0.00261243 0)
(-0.233796 0.0168959 0)
(-0.190961 0.0116132 0)
(-0.28578 0.14339 0)
(-0.35663 0.12997 0)
(-0.0324026 -0.479112 0)
(-0.0534342 -0.474173 0)
(-0.140414 -0.474965 0)
(-0.122258 -0.42425 0)
(-0.119441 -0.377358 0)
(-0.144766 -0.371964 0)
(-0.14552 -0.333564 0)
(-0.165541 -0.322164 0)
(-0.165518 -0.288715 0)
(-0.181258 -0.272007 0)
(-0.179648 -0.239202 0)
(-0.191638 -0.215373 0)
(-0.196974 -0.191394 0)
(-0.200769 -0.195112 0)
(-0.198286 -0.121171 0)
(-0.203542 -0.095442 0)
(-0.197159 -0.0636471 0)
(-0.197666 -0.0362261 0)
(-0.182256 -0.0220611 0)
(-0.192536 0.00148222 0)
(-0.16626 0.0289544 0)
(-0.223172 -0.018117 0)
(-0.310379 0.152482 0)
(-0.0115897 -0.452145 0)
(-0.0397043 -0.443845 0)
(-0.0654777 -0.429383 0)
(-0.0979657 -0.365408 0)
(-0.100966 -0.369515 0)
(-0.118109 -0.331059 0)
(-0.126707 -0.320966 0)
(-0.136078 -0.287994 0)
(-0.144797 -0.272422 0)
(-0.151501 -0.243321 0)
(-0.15723 -0.223448 0)
(-0.163621 -0.200191 0)
(-0.163249 -0.175267 0)
(-0.180436 -0.149644 0)
(-0.181394 -0.122291 0)
(-0.178384 -0.100091 0)
(-0.178037 -0.0747698 0)
(-0.168747 -0.0500892 0)
(-0.165097 -0.0262963 0)
(-0.168415 -0.00339089 0)
(-0.163584 0.024435 0)
(-0.133141 -0.00453453 0)
(-0.237833 0.125313 0)
(-0.0163302 -0.378723 0)
(-0.033624 -0.375903 0)
(-0.0632679 -0.369238 0)
(-0.0733247 -0.357816 0)
(-0.0867254 -0.33291 0)
(-0.0998571 -0.321661 0)
(-0.10658 -0.29655 0)
(-0.118394 -0.283103 0)
(-0.122393 -0.258052 0)
(-0.131696 -0.241573 0)
(-0.134194 -0.216223 0)
(-0.141029 -0.198246 0)
(-0.142922 -0.171511 0)
(-0.147548 -0.156839 0)
(-0.146587 -0.119548 0)
(-0.154311 -0.0998802 0)
(-0.149031 -0.071433 0)
(-0.157719 -0.0504728 0)
(-0.14393 -0.0275545 0)
(-0.130271 -0.00530453 0)
(-0.151317 0.0186041 0)
(-0.113968 0.0294888 0)
(-0.184103 0.0172851 0)
(-0.00746409 -0.352594 0)
(-0.0250126 -0.352292 0)
(-0.0381356 -0.346073 0)
(-0.0554383 -0.323136 0)
(-0.0665191 -0.317099 0)
(-0.0776454 -0.293686 0)
(-0.0875674 -0.282703 0)
(-0.0951598 -0.260063 0)
(-0.103093 -0.245069 0)
(-0.108984 -0.223364 0)
(-0.114218 -0.205005 0)
(-0.119469 -0.184106 0)
(-0.121777 -0.163006 0)
(-0.127142 -0.14167 0)
(-0.128077 -0.116879 0)
(-0.129605 -0.0971967 0)
(-0.128818 -0.0726254 0)
(-0.123448 -0.0547077 0)
(-0.121306 -0.0262893 0)
(-0.110886 -0.0131133 0)
(-0.113697 0.00417913 0)
(-0.0872672 0.0367831 0)
(-0.120942 -0.0220624 0)
(-0.00812489 -0.313142 0)
(-0.0201554 -0.31485 0)
(-0.0356516 -0.308583 0)
(-0.0457691 -0.301353 0)
(-0.0559198 -0.288143 0)
(-0.065453 -0.278045 0)
(-0.0723229 -0.261857 0)
(-0.080262 -0.24875 0)
(-0.085104 -0.230913 0)
(-0.091101 -0.215362 0)
(-0.0944476 -0.196224 0)
(-0.0988235 -0.179235 0)
(-0.100836 -0.158529 0)
(-0.104361 -0.14115 0)
(-0.10451 -0.116926 0)
(-0.109244 -0.0993209 0)
(-0.107497 -0.0774065 0)
(-0.109182 -0.0593618 0)
(-0.104381 -0.0400252 0)
(-0.100467 -0.0230133 0)
(-0.0953805 -0.00458485 0)
(-0.105171 0.00270236 0)
(-0.0488648 0.000280651 0)
(-0.00461596 -0.295599 0)
(-0.0144714 -0.297473 0)
(-0.0231857 -0.292992 0)
(-0.0325787 -0.283272 0)
(-0.0405418 -0.275439 0)
(-0.0480923 -0.262605 0)
(-0.0550591 -0.251586 0)
(-0.0612147 -0.23682 0)
(-0.0669993 -0.223011 0)
(-0.0722579 -0.206724 0)
(-0.076772 -0.190212 0)
(-0.0813121 -0.172342 0)
(-0.0838691 -0.153486 0)
(-0.0873267 -0.134259 0)
(-0.0878588 -0.112298 0)
(-0.0895496 -0.0941379 0)
(-0.088995 -0.0723933 0)
(-0.0863361 -0.0568264 0)
(-0.0877343 -0.0360104 0)
(-0.0802993 -0.0297521 0)
(-0.0869425 0.000991937 0)
(-0.0732476 0.00294028 0)
(-0.0962624 0.0542048 0)
(-0.00417745 -0.27084 0)
(-0.0121191 -0.273463 0)
(-0.0201871 -0.268914 0)
(-0.0273352 -0.262243 0)
(-0.0337664 -0.253683 0)
(-0.0396853 -0.243668 0)
(-0.0446762 -0.232107 0)
(-0.0493037 -0.219589 0)
(-0.0530356 -0.205747 0)
(-0.0564694 -0.191291 0)
(-0.05876 -0.176274 0)
(-0.0608762 -0.161648 0)
(-0.0619722 -0.146728 0)
(-0.0640871 -0.130952 0)
(-0.0648736 -0.114414 0)
(-0.068124 -0.0990502 0)
(-0.0712736 -0.0814927 0)
(-0.0675155 -0.0627531 0)
(-0.0774027 -0.046849 0)
(-0.0621263 -0.0299201 0)
(-0.0647624 -0.0130285 0)
(-0.0540189 0.0048398 0)
(-0.0763783 0.0185738 0)
(-0.00280177 -0.269373 0)
(-0.00833361 -0.27191 0)
(-0.0140029 -0.268274 0)
(-0.019216 -0.262367 0)
(-0.0245694 -0.255236 0)
(-0.0292369 -0.246035 0)
(-0.0335824 -0.235957 0)
(-0.0373268 -0.224259 0)
(-0.0404524 -0.211739 0)
(-0.0432605 -0.198042 0)
(-0.0448946 -0.183567 0)
(-0.0474665 -0.166979 0)
(-0.0480179 -0.148955 0)
(-0.0511626 -0.128764 0)
(-0.0496821 -0.109095 0)
(-0.0516418 -0.088286 0)
(-0.0515089 -0.0710808 0)
(-0.0504871 -0.0511738 0)
(-0.0511895 -0.0368973 0)
(-0.0458454 -0.0144883 0)
(-0.0525362 -0.00721234 0)
(-0.0373602 0.0108227 0)
(-0.0617807 0.0121822 0)
(-0.001835 -0.23604 0)
(-0.00570666 -0.238517 0)
(-0.00967551 -0.235003 0)
(-0.0131681 -0.229761 0)
(-0.0164944 -0.223272 0)