/*--------------------------------*- C++ -*----------------------------------*\
| =========                 |                                                 |
| \\      /  F ield         | foam-extend: Open Source CFD                    |
|  \\    /   O peration     | Version:     4.1                                |
|   \\  /    A nd           | Web:         http://www.foam-extend.org         |
|    \\/     M anipulation  |                                                 |
\*---------------------------------------------------------------------------*/
FoamFile
{
    version     2.0;
    format      ascii;
    class       volScalarField;
    location    "0.35";
    object      alpha1;
}
// * * * * * * * * * * * * * * * * * * * * * * * * * * * * * * * * * * * * * //

dimensions      [0 0 0 0 0 0 0];

internalField   nonuniform List<scalar> 
2268
(
1
1
1
1
1
1
1
1
1
1
1
1
1
0.999998
0.999986
0.999915
0.9998
0.999643
0.999363
0.980602
0.979916
0.928753
0.450038
1
1
1
1
1
1
1
1
1
0.999999
1
1
0.999998
0.999885
0.999788
0.999536
0.999047
0.993568
0.989675
0.935767
0.908688
0.922968
0.913172
1
1
1
1
1
1
1
1
1
0.999996
0.999989
0.999994
0.999965
0.999582
0.996993
0.996574
0.995248
0.979804
0.941892
0.826667
0.746557
0.871674
0.896178
1
1
1
1
1
1
1
0.999999
0.999999
0.999975
0.999925
0.999932
0.99973
0.998717
0.995648
0.989191
0.978633
0.959756
0.898472
0.764991
0.747204
0.838164
0.882706
1
1
1
1
1
1
0.999999
0.999995
0.999988
0.999848
0.99943
0.999719
0.999417
0.999219
0.998012
0.993929
0.987227
0.978969
0.945018
0.807538
0.777573
0.799733
0.863353
1
1
1
0.999999
0.999998
0.999997
0.99999
0.99997
0.999812
0.999164
0.998142
0.998892
0.999247
0.999748
0.999454
0.99858
0.997001
0.995308
0.987238
0.886688
0.844316
0.813438
0.839745
1
0.999999
0.999999
0.999992
0.999989
0.999986
0.999943
0.999781
0.998748
0.995251
0.994761
0.99468
0.996747
0.998521
0.997921
0.998414
0.998581
0.998416
0.997223
0.972704
0.948451
0.884396
0.844289
0.999998
0.999995
0.999991
0.999955
0.999954
0.99994
0.999768
0.998897
0.994946
0.982958
0.980486
0.982977
0.991884
0.993456
0.994959
0.997107
0.9973
0.997117
0.991859
0.968575
0.957083
0.932095
0.857642
0.00330647
0.00397431
0.00380598
0.00413874
0.00667323
0.00937069
0.0114633
0.0136034
0.036505
0.0601955
0.100739
0.0547333
0.147694
0.19596
0.183627
0.153512
0.11106
0.0730354
0.0308839
0.00280636
0.00233282
0.000584923
0.000345508
0.000355835
0.000772124
0.00336698
0.00305332
0.0183219
0.0668585
0.232462
0.150026
0.229494
0.284574
0.26227
0.198784
0.136961
0.077336
0.0305536
0.0022586
0.00173196
0.000527094
0.000251438
0.000441693
0.000675817
0.00600022
0.00438517
0.0337942
0.249141
0.343742
0.310481
0.338782
0.329851
0.293866
0.233999
0.156809
0.0730492
0.0284754
0.00166262
0.000992611
0.000252761
0.000187556
0.00146019
0.00194689
0.00647149
0.0203231
0.0792672
0.351556
0.432023
0.406955
0.399424
0.370102
0.321892
0.259874
0.179857
0.0817318
0.0262348
0.000844596
0.00032668
7.74393e-05
0.000151878
0.0048596
0.00716135
0.00996363
0.0170744
0.136458
0.314631
0.440776
0.447366
0.438437
0.3961
0.341363
0.272897
0.191844
0.0944291
0.0258807
0.000264619
0.000235966
0.000743176
0.00130516
0.0233124
0.0219089
0.0224849
0.0451808
0.146377
0.308589
0.459035
0.47486
0.462758
0.419024
0.354126
0.269174
0.176944
0.0969646
0.026234
0.000523607
0.00157219
0.0101792
0.0353485
0.0663486
0.0651234
0.0418276
0.0444165
0.116251
0.323656
0.465525
0.484469
0.470158
0.425209
0.347816
0.236023
0.122295
0.0813641
0.0258193
0.00274192
0.00530174
0.0813722
0.181781
0.195459
0.184363
0.0994863
0.0968795
0.173945
0.356568
0.477582
0.487938
0.471167
0.421283
0.33
0.204575
0.0919566
0.0603297
0.0243281
0.999969
0.999944
0.999915
0.999722
0.99978
0.999678
0.998972
0.992672
0.971547
0.926417
0.913053
0.928376
0.946024
0.971658
0.986946
0.986797
0.986802
0.988946
0.988218
0.985155
0.975993
0.958923
0.904908
0.999645
0.999345
0.999218
0.998484
0.998911
0.998035
0.995199
0.958648
0.829844
0.660973
0.644049
0.63554
0.677185
0.780021
0.881547
0.906302
0.91569
0.922912
0.943215
0.959386
0.961623
0.951697
0.910708
0.996133
0.995227
0.994818
0.993701
0.994623
0.99057
0.98502
0.890147
0.596784
0.452323
0.425873
0.401657
0.389331
0.408496
0.511987
0.652915
0.698804
0.733968
0.801611
0.875045
0.935409
0.930873
0.907927
0.976647
0.961837
0.976181
0.977091
0.976187
0.961614
0.962824
0.858821
0.555058
0.464021
0.432304
0.404729
0.329941
0.283003
0.253378
0.279796
0.310009
0.34888
0.491144
0.739939
0.865667
0.886791
0.882475
0.911199
0.806849
0.903199
0.934483
0.888882
0.881171
0.917162
0.862832
0.765296
0.647884
0.544266
0.505962
0.463487
0.404746
0.318783
0.220721
0.162968
0.17064
0.243041
0.391051
0.558982
0.687977
0.74144
0.752032
0.514199
0.774447
0.831876
0.668534
0.677493
0.797984
0.800424
0.798372
0.682481
0.538236
0.505874
0.491256
0.446242
0.362458
0.272136
0.163769
0.134301
0.163725
0.226239
0.293124
0.341669
0.407036
0.467015
0.35468
0.649326
0.618885
0.403794
0.378944
0.51964
0.550863
0.545286
0.457487
0.307011
0.302764
0.366004
0.370865
0.247087
0.171296
0.125325
0.101472
0.0984325
0.115205
0.126515
0.1368
0.182025
0.240185
0.315847
0.527996
0.414893
0.22338
0.182361
0.294375
0.362122
0.273753
0.156207
0.11257
0.119384
0.214352
0.207925
0.0491433
0.0329467
0.0394547
0.0506557
0.0531756
0.0567446
0.0590063
0.0909993
0.112821
0.146154
0.242194
0.327888
0.242971
0.0954246
0.102392
0.244284
0.214746
0.116311
0.0777511
0.0563792
0.0448594
0.107026
0.0272805
0.00478385
0.0036729
0.004542
0.0146887
0.0243822
0.0255965
0.0333076
0.0451191
0.0327572
0.121738
0.136244
0.175876
0.132848
0.0402466
0.0549037
0.108921
0.0769651
0.0323098
0.0561216
0.0371903
0.0138698
0.00896099
0.00261745
0.000765733
0.000847628
0.00159068
0.00739778
0.0127395
0.00797399
0.00964259
0.0147154
0.00718038
0.105644
0.0823144
0.117103
0.0758995
0.0207173
0.0201917
0.0469218
0.0202114
0.0158018
0.051541
0.0337379
0.00907784
0.00347677
0.000655688
0.000438731
0.000686137
0.00130347
0.00295635
0.00475325
0.0022671
0.00278379
0.00450278
0.00226541
0.0687487
0.0429765
0.0762606
0.0374809
0.0132435
0.0039851
0.0116905
0.00550474
0.0131849
0.050734
0.0385468
0.0126232
0.00565551
0.000443567
0.00030953
0.000623747
0.000824871
0.00119953
0.00180514
0.00154768
0.00151126
0.00174179
0.000702926
0.0358437
0.0193503
0.0313775
0.0116605
0.00752308
0.000972675
0.00252009
0.00135462
0.0101206
0.0529639
0.0601186
0.0242764
0.00999124
0.000366179
0.000145563
0.000489071
0.000859653
0.000945051
0.00109378
0.00109782
0.000953692
0.00074714
0.000201644
0.0210011
0.00733206
0.0122034
0.00292572
0.000378773
9.48682e-05
0.000274345
0.00021471
0.0068669
0.0482979
0.0680216
0.0320598
0.0106248
0.0004479
5.7081e-05
0.000114656
0.000301378
0.000378681
0.000556545
0.000587091
0.000591761
0.000167198
4.10834e-05
0.0120964
0.00200288
0.00553782
0.00123177
4.57577e-05
7.11252e-06
1.65994e-05
5.59378e-05
0.000389112
0.0126531
0.0561622
0.037323
0.00540535
8.27656e-05
1.84074e-05
1.88091e-05
3.63581e-05
6.27483e-05
0.000175449
0.000252272
0.000280974
4.46534e-05
1.08042e-05
0.00696795
0.000835779
0.00287068
0.000718143
1.18575e-05
1.50441e-06
4.92382e-06
8.38863e-05
0.000228717
0.00165751
0.0174167
0.072464
0.0148756
4.36823e-05
8.5898e-06
6.38885e-06
4.80048e-06
5.33651e-06
1.72236e-05
3.55579e-05
4.07547e-05
4.42747e-06
3.28998e-06
0.00338685
0.000315512
0.00126057
0.000246625
3.2333e-06
7.93222e-07
1.9851e-06
0.000152622
0.000960257
0.00582105
0.0468266
0.181815
0.0454816
0.000330367
3.86773e-06
2.93555e-06
1.38116e-06
7.04261e-07
6.91271e-07
6.37384e-07
9.05944e-07
3.11347e-07
6.63543e-07
0.000281147
0.000118908
0.000542637
7.11049e-05
6.307e-07
3.00889e-07
1.49602e-06
1.69951e-05
0.000189928
0.00165084
0.0104934
0.0596336
0.00210216
7.08833e-07
8.61541e-07
8.14394e-07
2.68584e-07
1.08767e-07
8.24709e-08
7.82563e-08
8.2145e-08
7.31755e-08
1.12327e-07
1.99025e-06
9.51127e-06
0.000206721
8.92075e-06
8.39257e-08
4.73957e-08
4.01502e-08
7.29136e-08
9.4234e-08
5.56882e-08
3.20269e-07
1.31498e-06
5.55402e-08
5.6063e-08
6.99082e-08
9.65707e-08
6.93992e-08
1.70455e-08
9.34472e-09
9.57334e-09
1.24308e-08
1.53806e-08
1.88282e-08
3.80205e-07
2.71187e-06
8.69863e-05
6.09475e-07
1.42828e-08
1.27199e-08
1.40414e-08
2.32936e-08
3.02152e-08
4.84015e-10
3.53516e-10
9.09415e-10
1.45061e-09
2.72435e-09
5.17512e-09
7.55219e-09
9.05965e-09
1.00206e-08
4.62755e-09
2.28605e-09
1.60949e-09
1.4305e-09
1.60689e-09
6.3651e-08
2.72464e-07
8.01664e-07
8.57776e-09
1.65746e-09
9.51377e-10
2.88644e-09
2.42263e-09
8.33593e-09
4.75888e-10
1.18419e-10
3.02092e-11
2.265e-10
5.13897e-10
8.98785e-10
1.04353e-09
1.20789e-09
1.22037e-09
1.02819e-09
2.51154e-10
9.51601e-11
3.6789e-11
7.04072e-11
1.5889e-09
2.33609e-09
7.41744e-09
1.57976e-10
9.63478e-11
1.43111e-10
6.46827e-10
3.83339e-10
8.53773e-10
4.75356e-10
3.93492e-10
3.28182e-13
8.78908e-13
3.89777e-12
1.16407e-11
3.42784e-11
6.11926e-11
5.89585e-11
6.56704e-11
1.1028e-11
4.3085e-12
2.57416e-12
6.88166e-12
3.64376e-10
2.20337e-11
4.51666e-12
3.86385e-12
1.34359e-12
1.84784e-11
3.31082e-11
5.7066e-12
4.07618e-12
3.6593e-13
1.00087e-13
2.65898e-14
4.34652e-14
1.78302e-13
4.97269e-13
2.47252e-12
4.3372e-12
4.54276e-12
4.41785e-12
1.43346e-12
3.68261e-13
1.64202e-13
4.79283e-13
6.16763e-11
6.17822e-12
3.00315e-13
3.56604e-13
0
2.58243e-12
3.51874e-12
4.61853e-14
7.27196e-15
4.44089e-15
4.77396e-15
5.10703e-15
7.88258e-15
1.12133e-14
2.93654e-14
8.25451e-14
2.26097e-13
2.71894e-13
2.68785e-13
1.20848e-13
1.62648e-14
7.54952e-15
2.62568e-14
4.04504e-12
1.2903e-12
1.77081e-14
4.51306e-14
1.808e-13
5.61773e-14
1.00198e-13
1.31006e-14
4.44089e-15
5.9952e-15
5.16254e-15
4.82947e-15
5.77316e-15
5.05151e-15
5.82867e-15
6.27276e-15
1.39333e-14
1.64313e-14
1.98175e-14
1.30451e-14
3.88578e-16
0
4.27436e-15
1.5099e-14
0
7.04992e-15
6.77236e-15
6.21725e-15
5.9952e-15
6.21725e-15
6.60583e-15
6.27276e-15
4.77396e-15
6.32827e-15
6.77236e-15
4.66294e-15
6.27276e-15
5.38458e-15
5.05151e-15
5.4956e-15
3.16414e-15
2.22045e-15
1.05471e-15
0
0
3.55271e-15
4.996e-15
0
6.27276e-15
8.04912e-15
7.21645e-15
6.21725e-15
6.88338e-15
6.93889e-15
6.66134e-15
4.94049e-15
5.66214e-15
5.32907e-15
5.93969e-15
6.10623e-15
6.27276e-15
6.88338e-15
4.05231e-15
2.10942e-15
2.05391e-15
1.22125e-15
0
0
4.27436e-15
7.04992e-15
0
6.10623e-15
7.99361e-15
5.88418e-15
5.44009e-15
5.93969e-15
6.16174e-15
4.4964e-15
4.27436e-15
3.66374e-15
5.10703e-15
4.60743e-15
7.10543e-15
3.9968e-15
6.16174e-15
5.4956e-15
3.94129e-15
3.66374e-15
3.38618e-15
9.99201e-16
3.33067e-16
3.77476e-15
7.77156e-15
0
4.996e-15
6.71685e-15
5.9952e-15
6.16174e-15
6.21725e-15
5.9952e-15
5.93969e-15
5.10703e-15
4.996e-15
5.93969e-15
6.60583e-15
6.99441e-15
6.32827e-15
5.77316e-15
6.27276e-15
4.10783e-15
3.27516e-15
3.16414e-15
1.66533e-15
0
4.71845e-15
6.82787e-15
0
4.55191e-15
8.38218e-15
7.82707e-15
7.66054e-15
7.21645e-15
6.38378e-15
4.32987e-15
6.55032e-15
5.66214e-15
5.10703e-15
7.77156e-15
5.82867e-15
6.38378e-15
7.93809e-15
7.21645e-15
3.83027e-15
2.10942e-15
1.88738e-15
7.77156e-16
0
2.05391e-15
7.60503e-15
0
5.10703e-15
6.71685e-15
7.16094e-15
6.82787e-15
7.88258e-15
6.27276e-15
5.66214e-15
6.05072e-15
5.93969e-15
5.55112e-15
7.16094e-15
6.88338e-15
4.88498e-15
6.05072e-15
7.38298e-15
5.27356e-15
4.16334e-15
3.16414e-15
3.33067e-16
0
3.88578e-15
9.60343e-15
0
6.27276e-15
7.04992e-15
5.93969e-15
6.88338e-15
7.38298e-15
5.82867e-15
4.21885e-15
5.21805e-15
5.55112e-15
5.88418e-15
6.77236e-15
8.43769e-15
6.43929e-15
7.54952e-15
6.38378e-15
7.04992e-15
4.66294e-15
8.88178e-16
0
0
1.66533e-15
8.16014e-15
0
5.9952e-15
6.55032e-15
5.4956e-15
4.10783e-15
7.88258e-15
7.21645e-15
6.71685e-15
7.10543e-15
6.77236e-15
5.82867e-15
5.71765e-15
5.82867e-15
6.93889e-15
6.38378e-15
6.21725e-15
5.4956e-15
5.71765e-15
2.33147e-15
5.55112e-16
0
1.22125e-15
8.04912e-15
0
6.4948e-15
5.4956e-15
4.60743e-15
3.4972e-15
6.66134e-15
9.15934e-15
6.43929e-15
5.9952e-15
7.32747e-15
6.4948e-15
6.38378e-15
5.66214e-15
7.77156e-15
7.49401e-15
7.88258e-15
4.10783e-15
4.82947e-15
2.27596e-15
0
0
2.94209e-15
5.32907e-15
0
5.60663e-15
4.88498e-15
5.10703e-15
2.94209e-15
9.04832e-15
8.9373e-15
5.4956e-15
5.32907e-15
5.88418e-15
7.10543e-15
6.21725e-15
6.88338e-15
6.21725e-15
6.32827e-15
8.04912e-15
5.66214e-15
6.10623e-15
3.77476e-15
2.10942e-15
0
2.66454e-15
4.996e-15
0
4.16334e-15
3.27516e-15
4.16334e-15
1.55431e-15
6.05072e-15
6.05072e-15
5.38458e-15
5.44009e-15
5.32907e-15
6.27276e-15
5.77316e-15
5.55112e-15
4.27436e-15
6.4948e-15
5.27356e-15
6.55032e-15
4.66294e-15
4.4964e-15
1.66533e-16
0
1.27676e-15
2.16493e-15
0
1.77636e-15
1.72085e-15
2.55351e-15
4.44089e-16
4.05231e-15
2.88658e-15
2.498e-15
6.05072e-15
3.88578e-15
5.66214e-15
6.16174e-15
3.10862e-15
3.83027e-15
6.27276e-15
6.10623e-15
6.99441e-15
7.60503e-15
4.27436e-15
1.9984e-15
0
3.55271e-15
1.72085e-15
0
1.44329e-15
1.60982e-15
2.72005e-15
2.88658e-15
2.27596e-15
1.22125e-15
3.05311e-15
3.4972e-15
2.22045e-15
2.44249e-15
5.05151e-15
8.88178e-16
1.55431e-15
3.55271e-15
3.27516e-15
6.93889e-15
5.44009e-15
4.16334e-15
1.72085e-15
1.66533e-16
4.32987e-15
0
0
7.21645e-16
2.22045e-16
1.9984e-15
2.16493e-15
2.05391e-15
0
5.55112e-16
1.33227e-15
1.77636e-15
2.44249e-15
7.77156e-16
0
6.10623e-16
1.11022e-15
2.72005e-15
5.05151e-15
4.05231e-15
4.10783e-15
3.44169e-15
0
3.9968e-15
0
0
1.38778e-15
0
8.88178e-16
1.9984e-15
0
0
0
0
0
0
0
3.33067e-16
0
7.77156e-16
0
0
9.99201e-16
1.72085e-15
2.498e-15
0
1.72085e-15
0
0
3.4972e-15
3.88578e-16
8.32667e-16
3.77476e-15
1.27676e-15
0
6.66134e-16
0
0
0
0
0
0
1.88738e-15
0
0
0
0
2.10942e-15
5.71765e-15
5.16254e-15
0
0
5.4956e-15
2.9976e-15
3.94129e-15
4.94049e-15
2.10942e-15
0
1.66533e-15
0
2.60902e-15
0
0
2.88658e-15
1.72085e-15
2.22045e-15
1.77636e-15
3.21965e-15
2.38698e-15
2.9976e-15
4.996e-15
9.76996e-15
3.21965e-15
0.892584
0.880057
0.846384
0.0999725
0.887539
0.877058
0.865036
0.730918
0.880898
0.863881
0.85252
0.836775
0.873222
0.862431
0.848361
0.83578
0.776348
0.792541
0.798942
0.800138
0.482919
0.558094
0.618221
0.644442
0.247557
0.317858
0.378533
0.385704
0.140565
0.171021
0.18771
0.158881
0.0425166
0.0603111
0.0599871
0.0436256
0.00981301
0.0191078
0.0214186
0.0293227
0.0028216
0.00477532
0.00502248
0.0118374
0.000522516
0.000900672
0.000533203
0.000670576
0.000128716
0.000130438
5.04452e-05
3.0034e-05
2.66046e-05
2.43084e-05
1.0331e-05
1.22636e-05
4.16546e-06
3.62992e-06
2.2768e-06
4.78477e-06
8.62804e-07
6.97567e-07
8.2502e-07
1.19753e-06
2.71411e-07
1.84878e-07
1.63088e-07
2.30294e-07
5.96481e-08
4.40126e-08
4.02869e-08
4.47417e-08
1.09165e-08
8.89598e-09
8.42625e-09
8.44611e-09
1.16806e-09
1.13587e-09
1.13712e-09
1.02279e-09
8.74277e-11
9.26972e-11
1.26534e-10
1.43084e-10
1.02979e-11
1.2477e-11
1.75773e-11
2.26216e-11
1.00603e-12
1.47438e-12
2.0865e-12
2.85144e-12
5.91194e-14
1.02585e-13
1.6126e-13
2.57572e-13
5.9952e-15
8.99281e-15
1.79301e-14
3.27516e-14
1.60982e-15
1.60982e-15
7.27196e-15
8.60423e-15
1.72085e-15
9.99201e-16
4.94049e-15
5.44009e-15
0
0
4.10783e-15
6.66134e-15
1.38778e-15
0
3.38618e-15
3.27516e-15
0
0
4.55191e-15
5.77316e-15
0
0
2.88658e-15
2.94209e-15
8.32667e-16
0
4.05231e-15
5.05151e-15
0
0
2.83107e-15
5.21805e-15
7.77156e-16
0
7.77156e-16
2.9976e-15
0
0
2.55351e-15
5.16254e-15
7.21645e-16
0
1.4988e-15
2.83107e-15
0
0
1.55431e-15
3.83027e-15
6.10623e-16
0
0
2.05391e-15
0
0
0
2.05391e-15
0
0
0
1.55431e-15
2.77556e-16
2.72005e-15
5.77316e-15
6.82787e-15
4.60743e-15
0
0
0
0.0367414
0.0885656
0.30527
0.451488
0.488327
0.46075
0.359869
0.358772
0.399239
0.487183
0.502143
0.490768
0.44926
0.383737
0.268781
0.138704
0.057761
0.0369579
0.0202267
0.606408
0.592339
0.656604
0.735993
0.749828
0.742696
0.712354
0.669149
0.616283
0.56645
0.510747
0.423196
0.294221
0.225479
0.132032
0.0624867
0.026516
0.0223138
0.0160431
0.793032
0.767092
0.775786
0.786716
0.790694
0.786468
0.768078
0.71932
0.654245
0.528243
0.370714
0.174661
0.1061
0.0777249
0.0523125
0.016194
0.00484541
0.00527992
0.0116524
0.813231
0.796269
0.797831
0.793341
0.784428
0.769695
0.744157
0.670881
0.507441
0.2917
0.140606
0.0558602
0.0420784
0.0396588
0.0404347
0.0378532
0.0274942
0.013707
0.00914504
0.792906
0.75044
0.745906
0.699663
0.660193
0.629252
0.645989
0.615177
0.451283
0.213578
0.0878885
0.0301222
0.0182269
0.0169668
0.0192023
0.0210911
0.0201659
0.0131014
0.00713001
0.577017
0.334606
0.381689
0.330154
0.338152
0.421564
0.528637
0.518514
0.380394
0.149132
0.043806
0.0117104
0.00688913
0.00731732
0.00967302
0.0108788
0.0131674
0.0115147
0.00606268
0.282497
0.149751
0.127293
0.123881
0.184932
0.399478
0.42057
0.313067
0.10991
0.0306698
0.0101051
0.00498255
0.00431875
0.00478301
0.00646598
0.00564413
0.00708348
0.00938507
0.00544271
0.110349
0.0721334
0.0213545
0.0241163
0.0799011
0.237636
0.237253
0.147809
0.0495
0.0214507
0.0109596
0.00566928
0.00385069
0.00391909
0.00431715
0.00454217
0.00464787
0.00712722
0.00486935
0.0616781
0.0330223
0.00448619
0.00380109
0.0301264
0.160085
0.130334
0.0639102
0.0219551
0.00958305
0.0052342
0.00347266
0.00311916
0.00315644
0.00266894
0.00174929
0.00208959
0.0050632
0.0043885
0.0105971
0.00106343
0.000507231
0.000583687
0.00166407
0.026814
0.0276715
0.0205363
0.0100292
0.00433519
0.00285311
0.00245036
0.00258619
0.00251824
0.00170602
0.000435916
0.000846692
0.0035891
0.0039408
0.00129829
0.0003011
0.000205851
0.000305886
0.000568281
0.00103187
0.0015442
0.00167964
0.00193159
0.00230266
0.0023663
0.0022386
0.00199833
0.00209945
0.00159353
0.000398446
0.000570304
0.00283073
0.00353225
0.00013329
7.39506e-05
9.7628e-05
0.000153394
0.000302761
0.000627775
0.000985165
0.000970334
0.00133213
0.00234453
0.00271708
0.00240408
0.00206963
0.00224848
0.00190142
0.000512248
0.00064371
0.00260326
0.00312416
2.4478e-05
3.49129e-05
5.7713e-05
6.88576e-05
0.000126352
0.000150631
0.000245968
0.000339844
0.000914884
0.00251291
0.00320706
0.0027387
0.0026038
0.00270759
0.00143777
0.000221792
0.000783202
0.00241653
0.00268335
1.25175e-05
1.90368e-05
2.3853e-05
2.61464e-05
5.23164e-05
5.08985e-05
9.493e-05
0.000220123
0.000570825
0.00149477
0.00317828
0.00338228
0.00339766
0.00294956
0.000778576
0.000141178
0.00082082
0.0020784
0.00220898
5.09983e-06
5.48572e-06
6.6677e-06
7.35963e-06
1.61491e-05
2.17678e-05
6.39887e-05
0.000201459
0.000581781
0.00117816
0.00269038
0.00339189
0.00334073
0.00241478
0.000351921
0.000141654
0.000716113
0.00154529
0.00169419
1.04748e-06
8.56289e-07
1.4799e-06
2.08931e-06
6.70552e-06
1.65829e-05
6.28194e-05
0.000145128
0.00028024
0.000765011
0.00176198
0.00273383
0.0023464
0.00100345
0.000123556
0.00010072
0.000456004
0.000911035
0.00107323
2.91228e-07
3.34682e-07
6.86057e-07
1.24259e-06
4.57751e-06
1.39626e-05
3.73694e-05
6.81545e-05
0.000157843
0.000429123
0.000803462
0.00106846
0.00111825
0.000414577
5.90249e-05
4.71914e-05
0.000203474
0.000404385
0.000470102
6.68154e-08
8.97292e-08
3.49844e-07
8.74002e-07
2.12775e-06
4.93396e-06
1.10517e-05
2.04841e-05
3.08262e-05
5.69158e-05
0.000140952
0.000262584
0.000355981
9.49379e-05
2.11326e-05
1.89818e-05
7.20324e-05
0.000134742
0.000143401
1.54524e-08
2.84824e-08
7.02174e-08
1.89636e-07
7.60499e-07
1.42961e-06
2.00369e-06
3.58404e-06
5.22442e-06
1.87217e-05
5.57711e-05
9.94131e-05
0.000117906
2.6697e-05
6.81763e-06
5.352e-06
1.77873e-05
3.51231e-05
3.17886e-05
1.38218e-09
3.25259e-09
1.07691e-08
3.65457e-08
6.12722e-08
7.62501e-08
1.85435e-07
5.81831e-07
1.93587e-06
8.25345e-06
2.0045e-05
2.61848e-05
2.64351e-05
6.80161e-06
1.83869e-06
1.29372e-06
3.95214e-06
7.50591e-06
5.73205e-06
2.36299e-10
5.29566e-10
1.17425e-09
3.27103e-09
6.87103e-09
1.92326e-08
6.19066e-08
1.81013e-07
6.63629e-07
2.53308e-06
5.94467e-06
6.86108e-06
6.76419e-06
2.13402e-06
5.06023e-07
2.6793e-07
6.93809e-07
1.25958e-06
8.20337e-07
3.82555e-11
7.05563e-11
1.55803e-10
3.37623e-10
7.26898e-10
2.33419e-09
1.11483e-08
5.79443e-08
2.77883e-07
7.34273e-07
1.30037e-06
1.44237e-06
1.37259e-06
4.63342e-07
1.04368e-07
5.63385e-08
1.02952e-07
1.74407e-07
9.71385e-08
4.62685e-12
9.88409e-12
2.08139e-11
4.59399e-11
1.38809e-10
6.22712e-10
3.21006e-09
1.47691e-08
4.13865e-08
7.38982e-08
1.7583e-07
3.11071e-07
3.42769e-07
9.76001e-08
2.18469e-08
9.73653e-09
1.31829e-08
1.95579e-08
9.66965e-09
4.92661e-13
1.14408e-12
2.35562e-12
5.4835e-12
1.87977e-11
8.33484e-11
4.15705e-10
1.83551e-09
5.34506e-09
9.01757e-09
2.64299e-08
5.80714e-08
6.94928e-08
1.36827e-08
4.00296e-09
1.58049e-09
1.53328e-09
1.85547e-09
8.14979e-10
5.19029e-14
1.12244e-13
2.45859e-13
6.99607e-13
2.61963e-12
1.08011e-11
4.89107e-11
2.16964e-10
7.7049e-10
1.42994e-09
4.87838e-09
7.91744e-09
8.72868e-09
1.74074e-09
7.29801e-10
2.20115e-10
1.59926e-10
1.48869e-10
5.91265e-11
6.32827e-15
1.41553e-14
2.82552e-14
7.32747e-14
2.74225e-13
1.16801e-12
5.34028e-12
2.48268e-11
1.19279e-10
2.31918e-10
7.19625e-10
9.30766e-10
1.03558e-09
2.88417e-10
1.20384e-10
2.9251e-11
1.35772e-11
1.08268e-11
3.90682e-12
3.77476e-15
5.21805e-15
5.32907e-15
9.10383e-15
3.44724e-14
1.56042e-13
7.89313e-13
4.19031e-12
1.74086e-11
3.33378e-11
9.37669e-11
9.4344e-11
1.20493e-10
4.08246e-11
1.61514e-11
3.67983e-12
1.09618e-12
7.40963e-13
2.42195e-13
4.77396e-15
4.44089e-15
5.38458e-15
3.94129e-15
6.32827e-15
2.28151e-14
9.93094e-14
5.03486e-13
1.29713e-12
4.60332e-12
1.10105e-11
8.15809e-12
1.35564e-11
5.00749e-12
1.75499e-12
4.23661e-13
8.58758e-14
4.95159e-14
1.92069e-14
2.27596e-15
5.05151e-15
4.4964e-15
3.60822e-15
3.9968e-15
3.77476e-15
1.11577e-14
5.26801e-14
1.35891e-13
5.49782e-13
8.25562e-13
6.73128e-13
1.37135e-12
5.31741e-13
1.89182e-13
4.30767e-14
7.32747e-15
1.88738e-15
5.88418e-15
3.38618e-15
6.55032e-15
5.88418e-15
4.996e-15
4.38538e-15
1.9984e-15
3.9968e-15
8.65974e-15
1.7375e-14
5.37903e-14
7.30527e-14
7.39409e-14
8.85958e-14
5.29021e-14
2.14273e-14
5.21805e-15
1.38778e-15
0
3.10862e-15
2.16493e-15
5.27356e-15
4.16334e-15
4.10783e-15
2.66454e-15
2.27596e-15
2.498e-15
3.9968e-15
3.88578e-15
8.32667e-15
9.15934e-15
9.82547e-15
1.15463e-14
8.32667e-15
6.05072e-15
3.77476e-15
8.88178e-16
0
2.10942e-15
2.72005e-15
5.82867e-15
4.60743e-15
2.66454e-15
2.66454e-15
2.88658e-15
3.27516e-15
3.27516e-15
3.16414e-15
5.21805e-15
4.4964e-15
5.32907e-15
4.77396e-15
3.38618e-15
3.27516e-15
2.83107e-15
1.11022e-15
0
3.21965e-15
3.77476e-15
6.27276e-15
6.32827e-15
3.27516e-15
3.33067e-15
2.33147e-15
1.94289e-15
1.94289e-15
1.66533e-15
3.66374e-15
4.16334e-15
2.83107e-15
3.94129e-15
4.77396e-15
3.55271e-15
3.66374e-15
2.22045e-15
0
2.83107e-15
1.44329e-15
3.88578e-15
2.498e-15
2.498e-15
3.66374e-15
3.33067e-15
4.55191e-15
3.9968e-15
3.27516e-15
2.83107e-15
3.9968e-15
2.88658e-15
5.05151e-15
5.05151e-15
3.94129e-15
3.27516e-15
2.83107e-15
0
5.10703e-15
3.10862e-15
7.43849e-15
2.66454e-15
1.22125e-15
3.21965e-15
3.38618e-15
3.10862e-15
3.33067e-15
3.44169e-15
3.21965e-15
3.77476e-15
4.71845e-15
5.38458e-15
5.55112e-15
4.32987e-15
2.22045e-15
1.88738e-15
9.4369e-16
3.88578e-15
1.66533e-15
3.83027e-15
3.88578e-15
2.05391e-15
3.94129e-15
2.9976e-15
3.16414e-15
3.66374e-15
4.32987e-15
4.32987e-15
3.10862e-15
4.60743e-15
4.16334e-15
6.60583e-15
5.32907e-15
2.77556e-15
2.33147e-15
0
2.55351e-15
0
3.55271e-15
4.88498e-15
3.94129e-15
4.94049e-15
5.77316e-15
4.55191e-15
5.93969e-15
3.66374e-15
3.83027e-15
2.88658e-15
3.4972e-15
2.05391e-15
5.77316e-15
6.10623e-15
2.44249e-15
1.44329e-15
1.66533e-16
3.60822e-15
0
2.83107e-15
5.71765e-15
5.9952e-15
6.88338e-15
3.83027e-15
3.94129e-15
4.82947e-15
3.71925e-15
3.33067e-15
2.83107e-15
1.4988e-15
1.88738e-15
3.66374e-15
4.60743e-15
5.44009e-15
2.83107e-15
6.66134e-16
5.77316e-15
8.88178e-16
3.88578e-15
3.4972e-15
6.32827e-15
4.94049e-15
2.27596e-15
9.4369e-16
2.88658e-15
1.9984e-15
1.83187e-15
2.94209e-15
2.44249e-15
2.72005e-15
3.33067e-15
3.94129e-15
3.9968e-15
4.66294e-15
0
4.32987e-15
1.05471e-15
1.83187e-15
5.10703e-15
5.55112e-15
5.38458e-15
3.33067e-15
2.72005e-15
3.27516e-15
3.44169e-15
3.60822e-15
4.32987e-15
5.27356e-15
4.94049e-15
2.9976e-15
5.88418e-15
5.4956e-15
5.21805e-15
0
3.71925e-15
7.71605e-15
3.88578e-16
0
0
1.88738e-15
0
0
5.55112e-16
3.88578e-16
1.27676e-15
2.10942e-15
1.33227e-15
1.88738e-15
1.27676e-15
3.27516e-15
2.10942e-15
3.05311e-15
0
4.44089e-16
2.55351e-15
4.10783e-15
0
2.16493e-15
1.66533e-15
4.44089e-16
0
1.77636e-15
1.88738e-15
2.88658e-15
1.88738e-15
2.16493e-15
2.60902e-15
6.10623e-16
1.9984e-15
1.83187e-15
3.10862e-15
0
1.22125e-15
)
;

boundaryField
{
    leftWall
    {
        type            zeroGradient;
    }
    rightWall
    {
        type            zeroGradient;
    }
    lowerWall
    {
        type            zeroGradient;
    }
    atmosphere
    {
        type            inletOutlet;
        inletValue      uniform 0;
        value           nonuniform List<scalar> 
46
(
0
0
5.4956e-15
2.9976e-15
3.94129e-15
4.94049e-15
2.10942e-15
0
1.66533e-15
0
2.60902e-15
0
0
2.88658e-15
1.72085e-15
2.22045e-15
1.77636e-15
3.21965e-15
2.38698e-15
2.9976e-15
4.996e-15
9.76996e-15
3.21965e-15
4.60743e-15
0
0
0
2.55351e-15
4.10783e-15
0
2.16493e-15
1.66533e-15
4.44089e-16
0
1.77636e-15
1.88738e-15
2.88658e-15
1.88738e-15
2.16493e-15
2.60902e-15
6.10623e-16
1.9984e-15
1.83187e-15
3.10862e-15
0
1.22125e-15
)
;
    }
    defaultFaces
    {
        type            empty;
    }
}


// ************************************************************************* //
