/*--------------------------------*- C++ -*----------------------------------*\
| =========                 |                                                 |
| \\      /  F ield         | foam-extend: Open Source CFD                    |
|  \\    /   O peration     | Version:     4.1                                |
|   \\  /    A nd           | Web:         http://www.foam-extend.org         |
|    \\/     M anipulation  |                                                 |
\*---------------------------------------------------------------------------*/
FoamFile
{
    version     2.0;
    format      ascii;
    class       volScalarField;
    location    "0.35";
    object      C;
}
// * * * * * * * * * * * * * * * * * * * * * * * * * * * * * * * * * * * * * //

dimensions      [0 0 0 0 0 0 0];

internalField   nonuniform List<scalar> 
2268
(
1
1
1
1
1
1
1
1
1
1
1
1
1
0.999995
0.999971
0.99983
0.9996
0.999287
0.998726
0.961205
0.959831
0.857506
-0.0999238
1
1
1
1
1
1
1
1
1
0.999998
1
1
0.999996
0.999769
0.999576
0.999072
0.998094
0.987136
0.979349
0.871534
0.817376
0.845936
0.826343
1
1
1
1
1
1
1
1
1
0.999992
0.999978
0.999988
0.99993
0.999165
0.993987
0.993147
0.990496
0.959607
0.883785
0.653334
0.493114
0.743347
0.792356
1
1
1
1
1
1
1
0.999998
0.999998
0.99995
0.999851
0.999864
0.999461
0.997435
0.991296
0.978382
0.957266
0.919512
0.796944
0.529983
0.494408
0.676328
0.765412
1
1
1
1
0.999999
0.999999
0.999998
0.999989
0.999975
0.999697
0.998861
0.999438
0.998834
0.998438
0.996023
0.987857
0.974454
0.957939
0.890036
0.615076
0.555147
0.599466
0.726706
1
1
1
0.999997
0.999996
0.999994
0.99998
0.99994
0.999624
0.998329
0.996284
0.997784
0.998495
0.999495
0.998907
0.99716
0.994003
0.990615
0.974476
0.773376
0.688633
0.626876
0.67949
1
0.999999
0.999998
0.999983
0.999978
0.999972
0.999887
0.999563
0.997496
0.990503
0.989521
0.98936
0.993493
0.997043
0.995842
0.996827
0.997162
0.996833
0.994446
0.945408
0.896901
0.768792
0.688579
0.999995
0.999991
0.999982
0.99991
0.999909
0.99988
0.999535
0.997795
0.989893
0.965916
0.960973
0.965954
0.983769
0.986912
0.989919
0.994214
0.994599
0.994235
0.983718
0.937149
0.914165
0.86419
0.715285
-0.993387
-0.992051
-0.992388
-0.991723
-0.986654
-0.981259
-0.977073
-0.972793
-0.92699
-0.879609
-0.798522
-0.890533
-0.704613
-0.608081
-0.632746
-0.692975
-0.77788
-0.853929
-0.938232
-0.994387
-0.995334
-0.99883
-0.999309
-0.999288
-0.998456
-0.993266
-0.993893
-0.963356
-0.866283
-0.535076
-0.699948
-0.541012
-0.430852
-0.475461
-0.602433
-0.726078
-0.845328
-0.938893
-0.995483
-0.996536
-0.998946
-0.999497
-0.999117
-0.998648
-0.988
-0.99123
-0.932412
-0.501718
-0.312516
-0.379037
-0.322436
-0.340298
-0.412268
-0.532002
-0.686382
-0.853902
-0.943049
-0.996675
-0.998015
-0.999494
-0.999625
-0.99708
-0.996106
-0.987057
-0.959354
-0.841466
-0.296888
-0.135954
-0.18609
-0.201152
-0.259796
-0.356216
-0.480252
-0.640285
-0.836536
-0.94753
-0.998311
-0.999347
-0.999845
-0.999696
-0.990281
-0.985677
-0.980073
-0.965851
-0.727085
-0.370738
-0.118448
-0.105268
-0.123126
-0.2078
-0.317275
-0.454205
-0.616313
-0.811142
-0.948239
-0.999471
-0.999528
-0.998514
-0.99739
-0.953375
-0.956182
-0.95503
-0.909638
-0.707246
-0.382821
-0.0819295
-0.05028
-0.0744848
-0.161951
-0.291748
-0.461653
-0.646112
-0.806071
-0.947532
-0.998953
-0.996856
-0.979642
-0.929303
-0.867303
-0.869753
-0.916345
-0.911167
-0.767498
-0.352687
-0.0689508
-0.0310629
-0.0596844
-0.149582
-0.304367
-0.527953
-0.755409
-0.837272
-0.948361
-0.994516
-0.989397
-0.837256
-0.636437
-0.609081
-0.631274
-0.801027
-0.806241
-0.652109
-0.286863
-0.0448365
-0.0241248
-0.0576664
-0.157435
-0.340001
-0.590851
-0.816087
-0.879341
-0.951344
0.999939
0.999888
0.999829
0.999445
0.999559
0.999355
0.997943
0.985343
0.943094
0.852835
0.826105
0.856751
0.892048
0.943316
0.973892
0.973593
0.973603
0.977893
0.976436
0.97031
0.951986
0.917846
0.809815
0.99929
0.99869
0.998436
0.996968
0.997822
0.996069
0.990397
0.917297
0.659688
0.321946
0.288098
0.27108
0.354369
0.560041
0.763095
0.812604
0.831379
0.845825
0.88643
0.918771
0.923246
0.903395
0.821416
0.992266
0.990454
0.989636
0.987402
0.989247
0.981141
0.97004
0.780293
0.193567
-0.0953534
-0.148255
-0.196686
-0.221337
-0.183007
0.0239748
0.305829
0.397609
0.467937
0.603222
0.75009
0.870817
0.861746
0.815854
0.953295
0.923674
0.952362
0.954182
0.952374
0.923229
0.925649
0.717642
0.110116
-0.071959
-0.135391
-0.190542
-0.340118
-0.433995
-0.493244
-0.440408
-0.379983
-0.30224
-0.0177111
0.479878
0.731334
0.773582
0.764951
0.822399
0.613697
0.806397
0.868966
0.777763
0.762343
0.834324
0.725663
0.530592
0.295768
0.0885328
0.0119243
-0.0730266
-0.190509
-0.362434
-0.558558
-0.674064
-0.65872
-0.513918
-0.217898
0.117965
0.375953
0.482881
0.504065
0.0283979
0.548893
0.663752
0.337069
0.354985
0.595969
0.600848
0.596745
0.364962
0.076471
0.011748
-0.0174889
-0.107516
-0.275085
-0.455727
-0.672462
-0.731399
-0.672549
-0.547522
-0.413752
-0.316661
-0.185927
-0.06597
-0.29064
0.298652
0.237769
-0.192411
-0.242113
0.0392791
0.101726
0.0905713
-0.0850266
-0.385978
-0.394473
-0.267992
-0.25827
-0.505825
-0.657408
-0.749349
-0.797055
-0.803135
-0.76959
-0.74697
-0.7264
-0.635949
-0.51963
-0.368306
0.0559913
-0.170214
-0.553239
-0.635278
-0.411251
-0.275756
-0.452494
-0.687586
-0.774859
-0.761232
-0.571296
-0.584149
-0.901713
-0.934107
-0.921091
-0.898689
-0.893649
-0.886511
-0.881987
-0.818001
-0.774358
-0.707693
-0.515613
-0.344225
-0.514058
-0.809151
-0.795216
-0.511432
-0.570508
-0.767379
-0.844498
-0.887242
-0.910281
-0.785949
-0.945439
-0.990432
-0.992654
-0.990916
-0.970623
-0.951236
-0.948807
-0.933385
-0.909762
-0.934486
-0.756525
-0.727511
-0.648248
-0.734303
-0.919507
-0.890193
-0.782157
-0.84607
-0.93538
-0.887757
-0.925619
-0.97226
-0.982078
-0.994765
-0.998469
-0.998305
-0.996819
-0.985204
-0.974521
-0.984052
-0.980715
-0.970569
-0.985639
-0.788713
-0.835371
-0.765793
-0.848201
-0.958565
-0.959617
-0.906156
-0.959577
-0.968396
-0.896918
-0.932524
-0.981844
-0.993046
-0.998689
-0.999123
-0.998628
-0.997393
-0.994087
-0.990493
-0.995466
-0.994432
-0.990994
-0.995469
-0.862503
-0.914047
-0.847479
-0.925038
-0.973513
-0.99203
-0.976619
-0.988991
-0.97363
-0.898532
-0.922906
-0.974754
-0.988689
-0.999113
-0.999381
-0.998753
-0.99835
-0.997601
-0.99639
-0.996905
-0.996977
-0.996516
-0.998594
-0.928313
-0.961299
-0.937245
-0.976679
-0.984954
-0.998055
-0.99496
-0.997291
-0.979759
-0.894072
-0.879763
-0.951447
-0.980018
-0.999268
-0.999709
-0.999022
-0.998281
-0.99811
-0.997812
-0.997804
-0.998093
-0.998506
-0.999597
-0.957998
-0.985336
-0.975593
-0.994149
-0.999242
-0.99981
-0.999451
-0.999571
-0.986266
-0.903404
-0.863957
-0.93588
-0.97875
-0.999104
-0.999886
-0.999771
-0.999397
-0.999243
-0.998887
-0.998826
-0.998816
-0.999666
-0.999918
-0.975807
-0.995994
-0.988924
-0.997536
-0.999908
-0.999986
-0.999967
-0.999888
-0.999222
-0.974694
-0.887676
-0.925354
-0.989189
-0.999834
-0.999963
-0.999962
-0.999927
-0.999875
-0.999649
-0.999495
-0.999438
-0.999911
-0.999978
-0.986064
-0.998328
-0.994259
-0.998564
-0.999976
-0.999997
-0.99999
-0.999832
-0.999543
-0.996685
-0.965167
-0.855072
-0.970249
-0.999913
-0.999983
-0.999987
-0.99999
-0.999989
-0.999966
-0.999929
-0.999918
-0.999991
-0.999993
-0.993226
-0.999369
-0.997479
-0.999507
-0.999994
-0.999998
-0.999996
-0.999695
-0.998079
-0.988358
-0.906347
-0.636369
-0.909037
-0.999339
-0.999992
-0.999994
-0.999997
-0.999999
-0.999999
-0.999999
-0.999998
-0.999999
-0.999999
-0.999438
-0.999762
-0.998915
-0.999858
-0.999999
-0.999999
-0.999997
-0.999966
-0.99962
-0.996698
-0.979013
-0.880733
-0.995796
-0.999999
-0.999998
-0.999998
-0.999999
-1
-1
-1
-1
-1
-1
-0.999996
-0.999981
-0.999587
-0.999982
-1
-1
-1
-1
-1
-1
-0.999999
-0.999997
-1
-1
-1
-1
-1
-1
-1
-1
-1
-1
-1
-0.999999
-0.999995
-0.999826
-0.999999
-1
-1
-1
-1
-1
-1
-1
-1
-1
-1
-1
-1
-1
-1
-1
-1
-1
-1
-1
-1
-0.999999
-0.999998
-1
-1
-1
-1
-1
-1
-1
-1
-1
-1
-1
-1
-1
-1
-1
-1
-1
-1
-1
-1
-1
-1
-1
-1
-1
-1
-1
-1
-1
-1
-1
-1
-1
-1
-1
-1
-1
-1
-1
-1
-1
-1
-1
-1
-1
-1
-1
-1
-1
-1
-1
-1
-1
-1
-1
-1
-1
-1
-1
-1
-1
-1
-1
-1
-1
-1
-1
-1
-1
-1
-1
-1
-1
-1
-1
-1
-1
-1
-1
-1
-1
-1
-1
-1
-1
-1
-1
-1
-1
-1
-1
-1
-1
-1
-1
-1
-1
-1
-1
-1
-1
-1
-1
-1
-1
-1
-1
-1
-1
-1
-1
-1
-1
-1
-1
-1
-1
-1
-1
-1
-1
-1
-1
-1
-1
-1
-1
-1
-1
-1
-1
-1
-1
-1
-1
-1
-1
-1
-1
-1
-1
-1
-1
-1
-1
-1
-1
-1
-1
-1
-1
-1
-1
-1
-1
-1
-1
-1
-1
-1
-1
-1
-1
-1
-1
-1
-1
-1
-1
-1
-1
-1
-1
-1
-1
-1
-1
-1
-1
-1
-1
-1
-1
-1
-1
-1
-1
-1
-1
-1
-1
-1
-1
-1
-1
-1
-1
-1
-1
-1
-1
-1
-1
-1
-1
-1
-1
-1
-1
-1
-1
-1
-1
-1
-1
-1
-1
-1
-1
-1
-1
-1
-1
-1
-1
-1
-1
-1
-1
-1
-1
-1
-1
-1
-1
-1
-1
-1
-1
-1
-1
-1
-1
-1
-1
-1
-1
-1
-1
-1
-1
-1
-1
-1
-1
-1
-1
-1
-1
-1
-1
-1
-1
-1
-1
-1
-1
-1
-1
-1
-1
-1
-1
-1
-1
-1
-1
-1
-1
-1
-1
-1
-1
-1
-1
-1
-1
-1
-1
-1
-1
-1
-1
-1
-1
-1
-1
-1
-1
-1
-1
-1
-1
-1
-1
-1
-1
-1
-1
-1
-1
-1
-1
-1
-1
-1
-1
-1
-1
-1
-1
-1
-1
-1
-1
-1
-1
-1
-1
-1
-1
-1
-1
-1
-1
-1
-1
-1
-1
-1
-1
-1
-1
-1
-1
-1
-1
-1
-1
-1
-1
-1
-1
-1
-1
-1
-1
-1
-1
-1
-1
-1
-1
-1
-1
-1
-1
-1
-1
-1
-1
-1
-1
-1
-1
-1
-1
-1
-1
-1
-1
-1
-1
-1
-1
-1
-1
-1
-1
-1
-1
-1
-1
-1
-1
-1
-1
-1
-1
-1
-1
-1
-1
-1
-1
-1
-1
-1
-1
-1
-1
-1
-1
-1
-1
-1
-1
-1
-1
-1
-1
-1
-1
-1
-1
-1
-1
-1
-1
-1
-1
-1
-1
-1
-1
-1
-1
-1
-1
-1
-1
-1
-1
-1
-1
-1
-1
-1
-1
-1
-1
-1
-1
-1
-1
-1
-1
-1
-1
-1
-1
-1
-1
-1
-1
-1
-1
-1
-1
-1
-1
-1
-1
-1
-1
-1
-1
-1
-1
-1
-1
-1
-1
-1
-1
-1
-1
-1
-1
-1
-1
-1
-1
-1
-1
-1
-1
-1
-1
-1
-1
-1
-1
0.785169
0.760114
0.692767
-0.800055
0.775078
0.754116
0.730073
0.461836
0.761797
0.727762
0.70504
0.673551
0.746444
0.724862
0.696721
0.67156
0.552696
0.585081
0.597883
0.600276
-0.0341627
0.116188
0.236442
0.288883
-0.504886
-0.364284
-0.242935
-0.228591
-0.71887
-0.657959
-0.62458
-0.682238
-0.914967
-0.879378
-0.880026
-0.912749
-0.980374
-0.961784
-0.957163
-0.941355
-0.994357
-0.990449
-0.989955
-0.976325
-0.998955
-0.998199
-0.998934
-0.998659
-0.999743
-0.999739
-0.999899
-0.99994
-0.999947
-0.999951
-0.999979
-0.999975
-0.999992
-0.999993
-0.999995
-0.99999
-0.999998
-0.999999
-0.999998
-0.999998
-0.999999
-1
-1
-1
-1
-1
-1
-1
-1
-1
-1
-1
-1
-1
-1
-1
-1
-1
-1
-1
-1
-1
-1
-1
-1
-1
-1
-1
-1
-1
-1
-1
-1
-1
-1
-1
-1
-1
-1
-1
-1
-1
-1
-1
-1
-1
-1
-1
-1
-1
-1
-1
-1
-1
-1
-1
-1
-1
-1
-1
-1
-1
-1
-1
-1
-1
-1
-1
-1
-1
-1
-1
-1
-1
-1
-1
-1
-1
-1
-1
-1
-1
-1
-1
-1
-1
-1
-1
-1
-1
-1
-1
-1
-1
-1
-1
-1
-1
-1
-1
-1
-1
-1
-1
-0.926517
-0.822869
-0.38946
-0.0970248
-0.0233465
-0.078501
-0.280261
-0.282456
-0.201522
-0.0256334
0.00428512
-0.0184642
-0.10148
-0.232526
-0.462437
-0.722592
-0.884478
-0.926084
-0.959547
0.212815
0.184679
0.313207
0.471986
0.499656
0.485393
0.424707
0.338298
0.232566
0.1329
0.0214947
-0.153609
-0.411558
-0.549042
-0.735935
-0.875027
-0.946968
-0.955372
-0.967914
0.586064
0.534184
0.551572
0.573432
0.581387
0.572935
0.536157
0.43864
0.30849
0.0564869
-0.258573
-0.650678
-0.7878
-0.84455
-0.895375
-0.967612
-0.990309
-0.98944
-0.976695
0.626462
0.592538
0.595662
0.586682
0.568856
0.53939
0.488314
0.341762
0.0148812
-0.416599
-0.718788
-0.88828
-0.915843
-0.920682
-0.919131
-0.924294
-0.945012
-0.972586
-0.98171
0.585811
0.50088
0.491813
0.399326
0.320387
0.258504
0.291978
0.230353
-0.0974337
-0.572844
-0.824223
-0.939756
-0.963546
-0.966066
-0.961595
-0.957818
-0.959668
-0.973797
-0.98574
0.154035
-0.330788
-0.236622
-0.339691
-0.323697
-0.156871
0.0572741
0.0370283
-0.239212
-0.701735
-0.912388
-0.976579
-0.986222
-0.985365
-0.980654
-0.978242
-0.973665
-0.976971
-0.987875
-0.435005
-0.700498
-0.745414
-0.752238
-0.630136
-0.201043
-0.15886
-0.373866
-0.780181
-0.93866
-0.97979
-0.990035
-0.991362
-0.990434
-0.987068
-0.988712
-0.985833
-0.98123
-0.989115
-0.779302
-0.855733
-0.957291
-0.951767
-0.840198
-0.524728
-0.525495
-0.704382
-0.901
-0.957099
-0.978081
-0.988661
-0.992299
-0.992162
-0.991366
-0.990916
-0.990704
-0.985746
-0.990261
-0.876644
-0.933955
-0.991028
-0.992398
-0.939747
-0.67983
-0.739333
-0.87218
-0.95609
-0.980834
-0.989532
-0.993055
-0.993762
-0.993687
-0.994662
-0.996501
-0.995821
-0.989874
-0.991223
-0.978806
-0.997873
-0.998986
-0.998833
-0.996672
-0.946372
-0.944657
-0.958927
-0.979942
-0.99133
-0.994294
-0.995099
-0.994828
-0.994964
-0.996588
-0.999128
-0.998307
-0.992822
-0.992118
-0.997403
-0.999398
-0.999588
-0.999388
-0.998863
-0.997936
-0.996912
-0.996641
-0.996137
-0.995395
-0.995267
-0.995523
-0.996003
-0.995801
-0.996813
-0.999203
-0.998859
-0.994339
-0.992935
-0.999733
-0.999852
-0.999805
-0.999693
-0.999394
-0.998744
-0.99803
-0.998059
-0.997336
-0.995311
-0.994566
-0.995192
-0.995861
-0.995503
-0.996197
-0.998976
-0.998713
-0.994793
-0.993752
-0.999951
-0.99993
-0.999885
-0.999862
-0.999747
-0.999699
-0.999508
-0.99932
-0.99817
-0.994974
-0.993586
-0.994523
-0.994792
-0.994585
-0.997124
-0.999556
-0.998434
-0.995167
-0.994633
-0.999975
-0.999962
-0.999952
-0.999948
-0.999895
-0.999898
-0.99981
-0.99956
-0.998858
-0.99701
-0.993643
-0.993235
-0.993205
-0.994101
-0.998443
-0.999718
-0.998358
-0.995843
-0.995582
-0.99999
-0.999989
-0.999987
-0.999985
-0.999968
-0.999956
-0.999872
-0.999597
-0.998836
-0.997644
-0.994619
-0.993216
-0.993319
-0.99517
-0.999296
-0.999717
-0.998568
-0.996909
-0.996612
-0.999998
-0.999998
-0.999997
-0.999996
-0.999987
-0.999967
-0.999874
-0.99971
-0.99944
-0.99847
-0.996476
-0.994532
-0.995307
-0.997993
-0.999753
-0.999799
-0.999088
-0.998178
-0.997854
-0.999999
-0.999999
-0.999999
-0.999998
-0.999991
-0.999972
-0.999925
-0.999864
-0.999684
-0.999142
-0.998393
-0.997863
-0.997763
-0.999171
-0.999882
-0.999906
-0.999593
-0.999191
-0.99906
-1
-1
-0.999999
-0.999998
-0.999996
-0.99999
-0.999978
-0.999959
-0.999938
-0.999886
-0.999718
-0.999475
-0.999288
-0.99981
-0.999958
-0.999962
-0.999856
-0.999731
-0.999713
-1
-1
-1
-1
-0.999998
-0.999997
-0.999996
-0.999993
-0.99999
-0.999963
-0.999888
-0.999801
-0.999764
-0.999947
-0.999986
-0.999989
-0.999964
-0.99993
-0.999936
-1
-1
-1
-1
-1
-1
-1
-0.999999
-0.999996
-0.999983
-0.99996
-0.999948
-0.999947
-0.999986
-0.999996
-0.999997
-0.999992
-0.999985
-0.999989
-1
-1
-1
-1
-1
-1
-1
-1
-0.999999
-0.999995
-0.999988
-0.999986
-0.999986
-0.999996
-0.999999
-0.999999
-0.999999
-0.999997
-0.999998
-1
-1
-1
-1
-1
-1
-1
-1
-0.999999
-0.999999
-0.999997
-0.999997
-0.999997
-0.999999
-1
-1
-1
-1
-1
-1
-1
-1
-1
-1
-1
-1
-1
-1
-1
-1
-0.999999
-0.999999
-1
-1
-1
-1
-1
-1
-1
-1
-1
-1
-1
-1
-1
-1
-1
-1
-1
-1
-1
-1
-1
-1
-1
-1
-1
-1
-1
-1
-1
-1
-1
-1
-1
-1
-1
-1
-1
-1
-1
-1
-1
-1
-1
-1
-1
-1
-1
-1
-1
-1
-1
-1
-1
-1
-1
-1
-1
-1
-1
-1
-1
-1
-1
-1
-1
-1
-1
-1
-1
-1
-1
-1
-1
-1
-1
-1
-1
-1
-1
-1
-1
-1
-1
-1
-1
-1
-1
-1
-1
-1
-1
-1
-1
-1
-1
-1
-1
-1
-1
-1
-1
-1
-1
-1
-1
-1
-1
-1
-1
-1
-1
-1
-1
-1
-1
-1
-1
-1
-1
-1
-1
-1
-1
-1
-1
-1
-1
-1
-1
-1
-1
-1
-1
-1
-1
-1
-1
-1
-1
-1
-1
-1
-1
-1
-1
-1
-1
-1
-1
-1
-1
-1
-1
-1
-1
-1
-1
-1
-1
-1
-1
-1
-1
-1
-1
-1
-1
-1
-1
-1
-1
-1
-1
-1
-1
-1
-1
-1
-1
-1
-1
-1
-1
-1
-1
-1
-1
-1
-1
-1
-1
-1
-1
-1
-1
-1
-1
-1
-1
-1
-1
-1
-1
-1
-1
-1
-1
-1
-1
-1
-1
-1
-1
-1
-1
-1
-1
-1
-1
-1
-1
-1
-1
-1
-1
-1
-1
-1
-1
-1
-1
-1
-1
-1
-1
-1
-1
-1
-1
-1
-1
-1
-1
-1
-1
-1
-1
-1
-1
-1
-1
-1
-1
-1
-1
-1
-1
-1
-1
-1
-1
-1
-1
-1
-1
-1
-1
-1
-1
-1
-1
-1
-1
-1
-1
-1
-1
-1
-1
-1
-1
-1
-1
-1
-1
-1
-1
-1
-1
-1
-1
-1
-1
-1
-1
-1
-1
-1
-1
-1
-1
-1
-1
-1
-1
-1
-1
-1
-1
-1
-1
-1
-1
-1
-1
-1
-1
-1
-1
-1
-1
-1
-1
-1
-1
-1
-1
-1
-1
-1
-1
-1
-1
-1
-1
-1
-1
-1
-1
-1
-1
-1
-1
-1
-1
-1
-1
-1
-1
-1
-1
-1
-1
-1
-1
-1
-1
-1
-1
-1
-1
-1
-1
-1
-1
-1
-1
)
;

boundaryField
{
    leftWall
    {
        type            zeroGradient;
    }
    rightWall
    {
        type            zeroGradient;
    }
    lowerWall
    {
        type            zeroGradient;
    }
    atmosphere
    {
        type            zeroGradient;
    }
    defaultFaces
    {
        type            empty;
    }
}


// ************************************************************************* //
