/*--------------------------------*- C++ -*----------------------------------*\
| =========                 |                                                 |
| \\      /  F ield         | foam-extend: Open Source CFD                    |
|  \\    /   O peration     | Version:     4.1                                |
|   \\  /    A nd           | Web:         http://www.foam-extend.org         |
|    \\/     M anipulation  |                                                 |
\*---------------------------------------------------------------------------*/
FoamFile
{
    version     2.0;
    format      ascii;
    class       volScalarField;
    location    "0.35";
    object      C_0;
}
// * * * * * * * * * * * * * * * * * * * * * * * * * * * * * * * * * * * * * //

dimensions      [0 0 0 0 0 0 0];

internalField   nonuniform List<scalar> 
2268
(
1
1
1
1
1
1
1
1
1
1
1
1
1
0.999995
0.999969
0.999822
0.99959
0.999274
0.998698
0.960898
0.959747
0.856818
-0.103571
1
1
1
1
1
1
1
1
1
0.999998
1
1
0.999996
0.99975
0.999546
0.999021
0.998022
0.986695
0.978615
0.86803
0.815538
0.845092
0.825297
1
1
1
1
1
1
1
1
1
0.999992
0.999979
0.999988
0.999925
0.999096
0.993713
0.992906
0.990235
0.958496
0.879582
0.645148
0.489686
0.743097
0.791407
1
1
1
1
1
1
1
0.999998
0.999998
0.999952
0.999858
0.99987
0.999426
0.997253
0.990717
0.977164
0.955406
0.916692
0.789856
0.524903
0.494325
0.673403
0.764113
1
1
1
1
0.999999
0.999999
0.999998
0.99999
0.999976
0.999709
0.998915
0.999465
0.9988
0.99839
0.995849
0.987382
0.973826
0.957068
0.886739
0.609949
0.556591
0.59845
0.724267
1
1
1
0.999998
0.999996
0.999995
0.999982
0.999944
0.999639
0.998386
0.996442
0.997886
0.99857
0.999507
0.99891
0.997104
0.993951
0.99057
0.974043
0.771775
0.692508
0.628421
0.6782
1
0.999999
0.999998
0.999984
0.999979
0.999973
0.999893
0.999583
0.997587
0.990783
0.989917
0.989809
0.993793
0.997119
0.995918
0.99685
0.99716
0.996827
0.994325
0.946045
0.900373
0.773983
0.688584
0.999996
0.999991
0.999983
0.999916
0.999915
0.999887
0.999558
0.997878
0.990239
0.966742
0.962215
0.967243
0.984608
0.987403
0.99011
0.994236
0.994563
0.994143
0.982759
0.935195
0.913722
0.865931
0.716352
-0.993527
-0.99203
-0.992308
-0.991847
-0.987039
-0.981429
-0.977149
-0.972891
-0.928077
-0.881663
-0.800968
-0.893075
-0.709207
-0.614901
-0.639725
-0.700163
-0.785086
-0.860149
-0.941567
-0.994548
-0.99522
-0.998759
-0.999301
-0.999306
-0.998529
-0.993484
-0.993937
-0.962754
-0.86604
-0.5416
-0.699535
-0.546411
-0.436675
-0.481611
-0.610285
-0.73589
-0.853274
-0.94235
-0.995682
-0.996535
-0.998898
-0.999502
-0.999177
-0.998741
-0.988124
-0.99174
-0.933527
-0.505512
-0.322688
-0.385486
-0.331545
-0.348131
-0.418934
-0.541021
-0.698498
-0.86247
-0.94662
-0.996936
-0.998099
-0.999485
-0.999626
-0.997226
-0.996509
-0.987211
-0.960202
-0.842527
-0.291597
-0.137616
-0.193704
-0.210087
-0.26857
-0.363882
-0.489552
-0.65247
-0.845767
-0.951057
-0.99858
-0.999426
-0.999866
-0.999693
-0.990613
-0.986852
-0.980888
-0.965638
-0.717099
-0.349766
-0.111736
-0.108641
-0.130262
-0.216443
-0.325913
-0.464197
-0.62835
-0.821181
-0.951819
-0.999525
-0.999531
-0.998678
-0.997548
-0.955223
-0.959168
-0.956383
-0.907687
-0.68937
-0.355138
-0.0739859
-0.0513369
-0.0786769
-0.170153
-0.301163
-0.473392
-0.657471
-0.814915
-0.951095
-0.998851
-0.996654
-0.981395
-0.933735
-0.871589
-0.877209
-0.920422
-0.911251
-0.753958
-0.328747
-0.0607005
-0.0310837
-0.0626217
-0.157264
-0.315481
-0.542568
-0.764857
-0.84516
-0.95191
-0.993579
-0.989001
-0.843971
-0.651649
-0.621898
-0.648843
-0.814212
-0.81669
-0.654938
-0.274046
-0.0396682
-0.0236655
-0.0607791
-0.164897
-0.351823
-0.605454
-0.82484
-0.885685
-0.954766
0.999941
0.999893
0.999838
0.999477
0.999587
0.999393
0.998033
0.985768
0.944813
0.856036
0.830813
0.861619
0.896576
0.946102
0.974544
0.973435
0.97339
0.977803
0.97606
0.970229
0.950942
0.915826
0.808685
0.999312
0.998749
0.998515
0.997129
0.997952
0.996288
0.990776
0.919079
0.667659
0.330619
0.299776
0.284965
0.369644
0.578429
0.772667
0.814251
0.830574
0.844836
0.886342
0.91844
0.922474
0.900775
0.815803
0.992469
0.990884
0.990139
0.988018
0.989835
0.982165
0.971162
0.780362
0.193592
-0.0970572
-0.14948
-0.197711
-0.218534
-0.173064
0.0453949
0.311161
0.394433
0.464501
0.602791
0.7514
0.870545
0.859342
0.81106
0.954253
0.92716
0.954332
0.956182
0.954722
0.927162
0.92846
0.714169
0.0938039
-0.0844569
-0.145445
-0.201852
-0.347633
-0.441498
-0.493918
-0.443739
-0.385791
-0.307925
-0.0155195
0.486586
0.733328
0.772349
0.762278
0.825407
0.628559
0.812589
0.874103
0.786553
0.772598
0.841223
0.724693
0.520661
0.285644
0.0842933
0.00958246
-0.078965
-0.201192
-0.375138
-0.569164
-0.679371
-0.661771
-0.509617
-0.204472
0.125345
0.37973
0.487057
0.511358
0.0418348
0.55762
0.674802
0.354704
0.37554
0.612479
0.617954
0.603889
0.361167
0.0822086
0.0192661
-0.0150291
-0.112666
-0.283279
-0.465263
-0.680762
-0.734062
-0.66988
-0.542503
-0.415835
-0.318299
-0.177551
-0.0576097
-0.289466
0.306156
0.254821
-0.180905
-0.224976
0.0663015
0.128343
0.113766
-0.0692473
-0.367488
-0.372357
-0.24878
-0.251602
-0.508011
-0.656255
-0.752762
-0.798462
-0.804191
-0.771314
-0.750637
-0.727499
-0.627634
-0.517081
-0.367314
0.0706639
-0.153384
-0.546455
-0.627363
-0.39379
-0.255538
-0.439071
-0.679557
-0.765432
-0.748304
-0.554512
-0.58124
-0.899992
-0.931931
-0.918715
-0.897085
-0.893905
-0.888445
-0.883529
-0.815593
-0.771713
-0.706961
-0.507613
-0.321927
-0.499335
-0.803498
-0.790162
-0.498907
-0.558545
-0.760915
-0.841426
-0.883563
-0.904515
-0.77699
-0.945343
-0.990062
-0.9923
-0.990442
-0.969397
-0.95132
-0.949959
-0.933838
-0.909935
-0.935124
-0.755826
-0.722464
-0.63734
-0.727674
-0.91725
-0.886984
-0.775845
-0.840872
-0.933772
-0.88689
-0.924569
-0.971129
-0.981451
-0.994661
-0.998435
-0.998281
-0.996749
-0.984912
-0.974968
-0.984556
-0.981129
-0.970966
-0.985914
-0.786991
-0.832325
-0.759316
-0.844359
-0.957681
-0.95838
-0.903161
-0.958345
-0.968183
-0.896737
-0.932112
-0.981802
-0.993055
-0.998675
-0.999109
-0.998627
-0.997393
-0.994099
-0.990697
-0.995563
-0.994555
-0.991133
-0.995576
-0.859833
-0.911642
-0.840361
-0.921718
-0.972509
-0.991932
-0.975816
-0.988702
-0.973939
-0.898456
-0.923764
-0.975151
-0.988603
-0.999101
-0.99937
-0.998754
-0.998367
-0.997648
-0.996438
-0.996912
-0.997013
-0.996557
-0.998607
-0.926906
-0.959577
-0.933472
-0.975144
-0.983855
-0.997999
-0.994757
-0.997237
-0.979907
-0.894122
-0.88005
-0.951261
-0.979163
-0.999251
-0.999702
-0.999013
-0.998278
-0.998111
-0.997816
-0.997809
-0.998101
-0.998515
-0.999597
-0.957479
-0.984474
-0.974528
-0.993832
-0.999181
-0.999802
-0.999422
-0.999552
-0.986059
-0.901478
-0.863313
-0.93494
-0.977874
-0.999071
-0.999883
-0.999766
-0.999393
-0.999244
-0.998892
-0.998835
-0.998812
-0.999661
-0.999917
-0.97553
-0.995827
-0.988482
-0.99746
-0.999903
-0.999985
-0.999965
-0.999888
-0.999185
-0.972771
-0.884934
-0.924061
-0.988691
-0.999826
-0.999962
-0.999962
-0.999928
-0.999878
-0.999656
-0.999502
-0.999439
-0.99991
-0.999978
-0.985886
-0.998265
-0.993984
-0.998496
-0.999975
-0.999997
-0.99999
-0.999837
-0.999554
-0.996697
-0.964785
-0.852153
-0.969972
-0.999916
-0.999982
-0.999987
-0.99999
-0.999989
-0.999967
-0.99993
-0.999919
-0.999991
-0.999993
-0.993102
-0.999344
-0.997347
-0.999475
-0.999993
-0.999998
-0.999996
-0.999699
-0.998132
-0.988701
-0.90749
-0.633928
-0.909987
-0.999386
-0.999992
-0.999994
-0.999997
-0.999999
-0.999999
-0.999999
-0.999998
-0.999999
-0.999999
-0.999421
-0.999754
-0.998856
-0.999847
-0.999999
-0.999999
-0.999997
-0.999966
-0.999621
-0.996739
-0.979328
-0.882509
-0.996123
-0.999999
-0.999998
-0.999998
-0.999999
-1
-1
-1
-1
-1
-1
-0.999996
-0.99998
-0.999564
-0.999981
-1
-1
-1
-1
-1
-1
-0.999999
-0.999997
-1
-1
-1
-1
-1
-1
-1
-1
-1
-1
-1
-0.999999
-0.999994
-0.999817
-0.999999
-1
-1
-1
-1
-1
-1
-1
-1
-1
-1
-1
-1
-1
-1
-1
-1
-1
-1
-1
-1
-0.999999
-0.999998
-1
-1
-1
-1
-1
-1
-1
-1
-1
-1
-1
-1
-1
-1
-1
-1
-1
-1
-1
-1
-1
-1
-1
-1
-1
-1
-1
-1
-1
-1
-1
-1
-1
-1
-1
-1
-1
-1
-1
-1
-1
-1
-1
-1
-1
-1
-1
-1
-1
-1
-1
-1
-1
-1
-1
-1
-1
-1
-1
-1
-1
-1
-1
-1
-1
-1
-1
-1
-1
-1
-1
-1
-1
-1
-1
-1
-1
-1
-1
-1
-1
-1
-1
-1
-1
-1
-1
-1
-1
-1
-1
-1
-1
-1
-1
-1
-1
-1
-1
-1
-1
-1
-1
-1
-1
-1
-1
-1
-1
-1
-1
-1
-1
-1
-1
-1
-1
-1
-1
-1
-1
-1
-1
-1
-1
-1
-1
-1
-1
-1
-1
-1
-1
-1
-1
-1
-1
-1
-1
-1
-1
-1
-1
-1
-1
-1
-1
-1
-1
-1
-1
-1
-1
-1
-1
-1
-1
-1
-1
-1
-1
-1
-1
-1
-1
-1
-1
-1
-1
-1
-1
-1
-1
-1
-1
-1
-1
-1
-1
-1
-1
-1
-1
-1
-1
-1
-1
-1
-1
-1
-1
-1
-1
-1
-1
-1
-1
-1
-1
-1
-1
-1
-1
-1
-1
-1
-1
-1
-1
-1
-1
-1
-1
-1
-1
-1
-1
-1
-1
-1
-1
-1
-1
-1
-1
-1
-1
-1
-1
-1
-1
-1
-1
-1
-1
-1
-1
-1
-1
-1
-1
-1
-1
-1
-1
-1
-1
-1
-1
-1
-1
-1
-1
-1
-1
-1
-1
-1
-1
-1
-1
-1
-1
-1
-1
-1
-1
-1
-1
-1
-1
-1
-1
-1
-1
-1
-1
-1
-1
-1
-1
-1
-1
-1
-1
-1
-1
-1
-1
-1
-1
-1
-1
-1
-1
-1
-1
-1
-1
-1
-1
-1
-1
-1
-1
-1
-1
-1
-1
-1
-1
-1
-1
-1
-1
-1
-1
-1
-1
-1
-1
-1
-1
-1
-1
-1
-1
-1
-1
-1
-1
-1
-1
-1
-1
-1
-1
-1
-1
-1
-1
-1
-1
-1
-1
-1
-1
-1
-1
-1
-1
-1
-1
-1
-1
-1
-1
-1
-1
-1
-1
-1
-1
-1
-1
-1
-1
-1
-1
-1
-1
-1
-1
-1
-1
-1
-1
-1
-1
-1
-1
-1
-1
-1
-1
-1
-1
-1
-1
-1
-1
-1
-1
-1
-1
-1
-1
-1
-1
-1
-1
-1
-1
-1
-1
-1
-1
-1
-1
-1
-1
-1
-1
-1
-1
-1
-1
-1
-1
-1
-1
-1
-1
-1
-1
-1
-1
-1
-1
-1
-1
-1
-1
-1
-1
-1
-1
-1
-1
-1
-1
-1
-1
-1
-1
-1
-1
-1
-1
-1
-1
-1
-1
-1
-1
-1
-1
-1
-1
-1
-1
-1
-1
-1
-1
-1
-1
-1
-1
-1
-1
-1
-1
-1
-1
-1
-1
-1
-1
-1
-1
-1
-1
-1
-1
-1
-1
-1
-1
-1
-1
-1
-1
-1
-1
-1
-1
-1
-1
-1
-1
-1
-1
0.782363
0.756716
0.68901
-0.795674
0.77062
0.750143
0.72621
0.463789
0.754849
0.721308
0.699237
0.668764
0.742559
0.719881
0.691
0.666286
0.555822
0.586077
0.596723
0.598081
-0.0167505
0.133142
0.242305
0.28505
-0.488002
-0.347204
-0.242322
-0.24006
-0.715975
-0.658523
-0.634331
-0.701638
-0.915364
-0.883452
-0.888013
-0.918147
-0.981349
-0.964453
-0.959807
-0.941778
-0.994737
-0.99132
-0.990771
-0.976691
-0.99902
-0.998383
-0.999024
-0.998755
-0.999747
-0.999751
-0.999903
-0.99994
-0.999947
-0.999951
-0.999979
-0.999975
-0.999992
-0.999993
-0.999995
-0.99999
-0.999998
-0.999999
-0.999998
-0.999998
-0.999999
-1
-1
-1
-1
-1
-1
-1
-1
-1
-1
-1
-1
-1
-1
-1
-1
-1
-1
-1
-1
-1
-1
-1
-1
-1
-1
-1
-1
-1
-1
-1
-1
-1
-1
-1
-1
-1
-1
-1
-1
-1
-1
-1
-1
-1
-1
-1
-1
-1
-1
-1
-1
-1
-1
-1
-1
-1
-1
-1
-1
-1
-1
-1
-1
-1
-1
-1
-1
-1
-1
-1
-1
-1
-1
-1
-1
-1
-1
-1
-1
-1
-1
-1
-1
-1
-1
-1
-1
-1
-1
-1
-1
-1
-1
-1
-1
-1
-1
-1
-1
-1
-1
-1
-0.922292
-0.819252
-0.382592
-0.109157
-0.039283
-0.101579
-0.307919
-0.307733
-0.214801
-0.0262775
0.00376232
-0.0192901
-0.104757
-0.23886
-0.473744
-0.732892
-0.889979
-0.929856
-0.96255
0.20068
0.183535
0.318082
0.473492
0.496029
0.478505
0.409916
0.323171
0.221112
0.127311
0.0171863
-0.16207
-0.415676
-0.551777
-0.741005
-0.878804
-0.948845
-0.957389
-0.970342
0.581051
0.533795
0.552032
0.574487
0.581822
0.572262
0.532737
0.431461
0.299929
0.0497323
-0.267384
-0.659878
-0.791028
-0.846242
-0.897024
-0.968501
-0.990602
-0.990121
-0.97855
0.62239
0.591311
0.595416
0.586832
0.570258
0.540734
0.486272
0.332646
-0.00584083
-0.433569
-0.725778
-0.890566
-0.915972
-0.920331
-0.919185
-0.924702
-0.945435
-0.972849
-0.98309
0.582946
0.496214
0.490199
0.400192
0.328384
0.272551
0.296766
0.225777
-0.118395
-0.589446
-0.831188
-0.942063
-0.963814
-0.965812
-0.961369
-0.958158
-0.960338
-0.974453
-0.986764
0.131695
-0.343934
-0.242395
-0.338253
-0.312133
-0.137326
0.066628
0.038896
-0.255481
-0.715682
-0.916896
-0.977695
-0.986292
-0.985204
-0.980451
-0.978266
-0.97417
-0.977508
-0.988577
-0.457113
-0.705786
-0.746215
-0.747718
-0.612635
-0.184985
-0.155276
-0.381196
-0.78818
-0.941278
-0.980559
-0.990222
-0.991353
-0.990335
-0.986982
-0.988746
-0.986057
-0.981713
-0.989653
-0.784361
-0.85706
-0.957891
-0.949729
-0.830624
-0.515524
-0.525226
-0.710285
-0.90362
-0.958152
-0.978731
-0.989018
-0.992372
-0.992114
-0.991268
-0.990933
-0.990966
-0.986241
-0.990682
-0.876839
-0.935712
-0.991462
-0.992045
-0.936394
-0.67795
-0.742001
-0.875461
-0.95732
-0.981228
-0.98971
-0.993141
-0.993767
-0.99366
-0.994663
-0.99664
-0.996006
-0.990265
-0.991591
-0.979481
-0.99794
-0.998982
-0.9988
-0.996475
-0.945054
-0.944617
-0.959904
-0.98069
-0.991503
-0.994356
-0.995108
-0.994823
-0.994963
-0.99666
-0.999171
-0.998345
-0.993039
-0.99246
-0.997436
-0.999399
-0.999584
-0.999372
-0.998831
-0.997888
-0.996873
-0.99659
-0.996054
-0.995357
-0.995274
-0.995564
-0.996023
-0.995791
-0.996915
-0.999276
-0.998844
-0.994382
-0.993272
-0.99974
-0.999851
-0.999802
-0.999685
-0.999374
-0.998692
-0.99795
-0.997976
-0.997199
-0.995174
-0.994584
-0.995241
-0.995866
-0.995487
-0.996268
-0.999079
-0.998685
-0.994835
-0.994103
-0.999951
-0.999929
-0.999883
-0.999858
-0.99974
-0.999685
-0.999481
-0.999289
-0.998061
-0.994806
-0.993573
-0.994531
-0.994762
-0.994568
-0.997237
-0.999576
-0.998414
-0.995319
-0.995006
-0.999975
-0.999961
-0.999951
-0.999946
-0.999892
-0.999894
-0.999802
-0.999548
-0.998828
-0.99691
-0.99359
-0.993216
-0.993188
-0.994128
-0.998506
-0.999724
-0.998418
-0.996119
-0.995965
-0.99999
-0.999989
-0.999986
-0.999985
-0.999967
-0.999956
-0.99987
-0.999591
-0.998823
-0.997609
-0.994567
-0.993207
-0.993325
-0.99521
-0.999307
-0.999738
-0.998701
-0.997274
-0.997017
-0.999998
-0.999998
-0.999997
-0.999996
-0.999986
-0.999967
-0.999875
-0.999708
-0.999432
-0.998462
-0.996475
-0.994561
-0.995352
-0.997998
-0.99976
-0.99983
-0.999238
-0.998504
-0.99826
-0.999999
-0.999999
-0.999999
-0.999998
-0.999991
-0.999972
-0.999924
-0.999861
-0.999683
-0.999152
-0.998405
-0.997883
-0.997807
-0.99917
-0.999886
-0.999923
-0.999676
-0.999375
-0.999297
-1
-1
-0.999999
-0.999998
-0.999996
-0.99999
-0.999977
-0.999958
-0.999938
-0.999888
-0.999726
-0.999488
-0.999298
-0.999808
-0.99996
-0.99997
-0.99989
-0.999801
-0.9998
-1
-1
-1
-1
-0.999998
-0.999997
-0.999996
-0.999993
-0.99999
-0.999964
-0.999893
-0.999807
-0.999769
-0.999947
-0.999987
-0.999991
-0.999974
-0.999949
-0.999958
-1
-1
-1
-1
-1
-1
-1
-0.999999
-0.999996
-0.999984
-0.999961
-0.999949
-0.999948
-0.999987
-0.999997
-0.999998
-0.999994
-0.999989
-0.999993
-1
-1
-1
-1
-1
-1
-1
-1
-0.999999
-0.999995
-0.999989
-0.999987
-0.999987
-0.999996
-0.999999
-1
-0.999999
-0.999998
-0.999999
-1
-1
-1
-1
-1
-1
-1
-1
-0.999999
-0.999999
-0.999998
-0.999997
-0.999997
-0.999999
-1
-1
-1
-1
-1
-1
-1
-1
-1
-1
-1
-1
-1
-1
-1
-1
-0.999999
-0.999999
-1
-1
-1
-1
-1
-1
-1
-1
-1
-1
-1
-1
-1
-1
-1
-1
-1
-1
-1
-1
-1
-1
-1
-1
-1
-1
-1
-1
-1
-1
-1
-1
-1
-1
-1
-1
-1
-1
-1
-1
-1
-1
-1
-1
-1
-1
-1
-1
-1
-1
-1
-1
-1
-1
-1
-1
-1
-1
-1
-1
-1
-1
-1
-1
-1
-1
-1
-1
-1
-1
-1
-1
-1
-1
-1
-1
-1
-1
-1
-1
-1
-1
-1
-1
-1
-1
-1
-1
-1
-1
-1
-1
-1
-1
-1
-1
-1
-1
-1
-1
-1
-1
-1
-1
-1
-1
-1
-1
-1
-1
-1
-1
-1
-1
-1
-1
-1
-1
-1
-1
-1
-1
-1
-1
-1
-1
-1
-1
-1
-1
-1
-1
-1
-1
-1
-1
-1
-1
-1
-1
-1
-1
-1
-1
-1
-1
-1
-1
-1
-1
-1
-1
-1
-1
-1
-1
-1
-1
-1
-1
-1
-1
-1
-1
-1
-1
-1
-1
-1
-1
-1
-1
-1
-1
-1
-1
-1
-1
-1
-1
-1
-1
-1
-1
-1
-1
-1
-1
-1
-1
-1
-1
-1
-1
-1
-1
-1
-1
-1
-1
-1
-1
-1
-1
-1
-1
-1
-1
-1
-1
-1
-1
-1
-1
-1
-1
-1
-1
-1
-1
-1
-1
-1
-1
-1
-1
-1
-1
-1
-1
-1
-1
-1
-1
-1
-1
-1
-1
-1
-1
-1
-1
-1
-1
-1
-1
-1
-1
-1
-1
-1
-1
-1
-1
-1
-1
-1
-1
-1
-1
-1
-1
-1
-1
-1
-1
-1
-1
-1
-1
-1
-1
-1
-1
-1
-1
-1
-1
-1
-1
-1
-1
-1
-1
-1
-1
-1
-1
-1
-1
-1
-1
-1
-1
-1
-1
-1
-1
-1
-1
-1
-1
-1
-1
-1
-1
-1
-1
-1
-1
-1
-1
-1
-1
-1
-1
-1
-1
-1
-1
-1
-1
-1
-1
-1
-1
-1
-1
-1
-1
-1
-1
-1
-1
-1
-1
-1
-1
-1
-1
-1
-1
-1
-1
-1
-1
-1
-1
-1
-1
-1
-1
-1
-1
-1
-1
-1
-1
-1
-1
-1
-1
-1
-1
-1
-1
-1
)
;

boundaryField
{
    leftWall
    {
        type            zeroGradient;
    }
    rightWall
    {
        type            zeroGradient;
    }
    lowerWall
    {
        type            zeroGradient;
    }
    atmosphere
    {
        type            zeroGradient;
    }
    defaultFaces
    {
        type            empty;
    }
}


// ************************************************************************* //
