/*--------------------------------*- C++ -*----------------------------------*\
| =========                 |                                                 |
| \\      /  F ield         | foam-extend: Open Source CFD                    |
|  \\    /   O peration     | Version:     4.1                                |
|   \\  /    A nd           | Web:         http://www.foam-extend.org         |
|    \\/     M anipulation  |                                                 |
\*---------------------------------------------------------------------------*/
FoamFile
{
    version     2.0;
    format      ascii;
    class       volScalarField;
    location    "0.35";
    object      p;
}
// * * * * * * * * * * * * * * * * * * * * * * * * * * * * * * * * * * * * * //

dimensions      [1 -1 -2 0 0 0 0];

internalField   nonuniform List<scalar> 
2268
(
1721.26
1725.44
1726.27
1740.92
1722.19
1720.82
1651.64
1682.39
1526.57
1438.3
1746.64
1620.19
1600.47
1569.51
1630.99
1390.39
1401.58
1475.57
1658.2
1598.68
1862.74
1945.36
2479.34
1662.19
1666.07
1666.79
1681.26
1662.96
1657.28
1591.93
1623.55
1463.9
1347.19
1647.58
1565.11
1532.8
1460.24
1469.12
1449.83
1297.93
1368.49
1674.42
1686.31
1844.95
1765.19
1895.34
1600.32
1605.71
1605.89
1620.86
1602.51
1602.76
1540.88
1544.36
1392.86
1389.03
1415.94
1567.15
1460.51
1507.65
1372.44
1338.13
1280.22
1376.73
1573.28
2158.67
2543.41
1914.76
1964.7
1541.65
1545.51
1545.24
1560.04
1542.18
1525.99
1496.09
1496.69
1325.99
1363.6
1364.17
1417.24
1481.95
1185.54
1281.97
1227.79
1286.66
1393.91
1765.74
2418.8
2484.07
1989.76
1894.85
1475.41
1483.1
1482.69
1497.57
1478.74
1458.23
1400.88
1456.63
1229.1
1345.23
1267.84
1415.41
1183.9
1352.61
1148.48
1203.39
1308.66
1340.54
1462.48
2138.55
2262.61
2175.13
1911.34
1418.28
1422.99
1421.22
1437.27
1413.47
1397.06
1346.92
1358.42
1149.9
1317.06
1208.25
1250.14
1215.94
1274.65
861.219
1016.8
1272.76
1244.14
1345.61
1611.23
1848.18
2031.02
1938.82
1353.99
1357.86
1356.98
1370.44
1349.37
1330.79
1322.75
1364.44
1007.2
1273.29
1246.32
1059.74
1241.02
1119.62
922.863
804.593
1281.32
1223.56
1302.56
1163.5
1351.98
1524.97
1817.86
1293.94
1300.83
1295.49
1316.55
1281.04
1265.69
1190.55
1258.02
1006.36
1150.35
1130.5
1155.39
852.095
1180.07
966.636
658.101
1140.23
1092.11
1159.77
1086.36
1260.48
1216
1502.29
364.651
355.709
354.321
354.609
355.985
358.841
363.587
365.387
394.271
436.753
618.38
500.026
918.31
1308.41
1198.76
909.385
573.691
533.063
515.475
361.954
353.513
353.124
353.885
354.342
355.99
359.819
359.71
368.291
449.498
1254.53
869.638
1348.42
1723.06
1569.4
1106.37
703.186
532.539
500.068
355.299
352.039
352.952
353.593
353.949
355.839
359.945
361.405
383.51
1235.27
1757.94
1630.16
1925.06
1949.9
1612.15
1288.59
811.537
489.819
467.692
354.9
351.924
352.658
353.42
353.534
355.607
358.601
373.563
490.719
1672.96
1981.67
1936.57
2067.42
2095.21
1701.31
1403.88
914.7
490.7
431.641
355.708
353.407
353.074
352.878
353.088
356.197
361.249
375.371
725.979
1434.13
2044.73
1959.6
2092.6
2095.25
1748.14
1426.24
953.839
500.364
390.961
356.558
354.671
353.169
352.951
362.812
368.487
372.355
419.951
768.224
1464.92
2008.25
1992.61
2074.01
2092.83
1760.48
1359.48
826.33
457.645
340.066
356.883
355.58
355.381
384.082
458.396
456.802
408.388
425.027
608.192
1431.27
1989.94
1954.94
2006.47
2028
1687.76
1128
507.168
346.564
282.828
356.029
357.565
499.127
915.326
990.76
968.056
598.141
610.123
917.645
1513.97
1962.69
1933.95
1954.23
1967.65
1577.83
910.739
339.536
234.059
222.156
1194.48
1193.64
1190.64
1199.01
1117.5
1124.04
1110.46
1053.57
918.965
1054
1132.76
1104.73
1043.81
1154.44
437.972
482.468
1312.28
969.914
988.411
870.037
1108.29
734.404
695.623
1064.67
1077.55
1059.61
1040.69
1084.31
993.728
952.846
865.651
1235.36
1896.24
2057.6
1940.32
1969.29
1418.94
1001.26
839.956
963.193
908.779
802.794
810.262
626.229
259.654
-28.4151
896.121
903.323
920.11
918.751
864.159
806.604
830.981
995.401
2092.38
2114.23
2062.37
1904.28
2000.35
1866.15
1957.64
1702.7
1667.91
1476.83
1233.98
826.771
444.233
280.781
-216.213
766.29
830.572
752.367
887.763
834.517
976.93
863.987
1044.77
2084.14
2102.73
2088.86
1929.83
1707.64
1424.18
1150.8
1222.68
1521.48
1597.46
1916.01
1310.33
377.735
252.506
258.513
721.946
1217.23
703.1
521.347
683.089
644.496
621.916
787.804
1343.28
1665.66
2071.25
1954.19
1940.85
1821.87
1490.8
941.575
674.041
642.396
1003.43
1606.41
1631.51
1346.69
1174.7
1327.04
2014.85
1217.66
928.32
1637.24
1578.25
1095.66
1037.11
1228.51
1382.08
1764.51
1866.86
1843.93
1788.18
1556.66
1147.9
599.076
364.443
496.182
894.446
1245.13
1394.76
1581.77
1926.84
1654.14
1681.47
1801.69
1733.88
1551.09
1816.24
1716.51
1817.22
1645.97
1263.81
1226.96
1511.09
1525.8
925.934
535.819
342.593
214.295
262.883
327.965
400.464
399.618
638.262
1039.08
1436.27
1856.48
1727.24
968.407
656.867
1259.84
1468.43
1152.94
542.903
292.811
293.617
745.913
699.255
66.5034
26.7016
31.9177
62.0393
62.0209
78.8237
99.4638
190.177
255.168
481.919
991.236
1400.92
977.298
254.868
248.997
975.68
833.559
319.406
169.647
87.4574
44.7002
241.329
17.137
-0.951625
-2.78117
-4.76811
-1.02997
8.76675
15.719
31.9534
53.3878
27.1925
361.235
426.227
632.342
379.28
51.2795
80.0118
273.468
146.356
35.6357
91.3584
38.8774
1.7281
0.280822
-1.70064
-1.84433
-2.36837
-3.46442
-4.76455
-0.807096
-0.466944
0.351266
3.9695
-2.39415
288.509
184.36
343.332
151.614
24.7332
12.8577
62.674
12.8357
11.2945
74.0443
31.6434
1.06089
-1.40062
-2.21769
-2.23997
-2.90506
-4.00006
-4.60967
-3.90966
-3.29634
-3.11744
-2.04458
-2.46457
118.007
40.4572
136.258
30.2207
1.20301
-2.62606
1.66378
-0.399399
4.96572
69.1475
42.1352
4.19316
-2.21547
-2.47663
-2.80854
-3.22964
-3.27688
-3.64065
-3.85034
-2.84415
-2.89662
-2.78923
-2.60411
32.3132
12.4907
19.0932
1.55711
-2.12751
-2.25239
-1.96978
-1.95856
1.99578
73.1821
89.5456
13.612
-1.34895
-3.38623
-2.71574
-3.42343
-3.11619
-3.36016
-3.26721
-3.19388
-2.94763
-3.03011
-2.56337
13.3066
-1.21228
4.87884
-2.78551
-2.34466
-2.20168
-2.46347
-2.2003
-1.66993
58.4576
116.313
25.9224
0.0601641
-3.37843
-3.32403
-3.45796
-2.89523
-3.24216
-3.09504
-3.11184
-2.92002
-2.87658
-2.72197
2.56285
-2.27774
-0.773763
-2.31547
-2.23388
-2.3334
-2.57859
-2.29799
-3.15158
0.515858
80.3696
33.3352
-3.47669
-3.40469
-3.21701
-3.25033
-3.09277
-3.04489
-3.02719
-3.00996
-2.92353
-2.925
-2.81266
-0.679205
-2.44972
-2.07261
-2.77347
-2.58718
-2.78103
-2.88604
-2.7196
-3.02437
-4.30228
1.11276
119.976
1.06674
-3.28873
-2.96467
-3.08805
-3.03477
-3.11167
-3.02702
-3.08907
-2.9811
-3.02704
-2.92175
-2.45656
-2.71231
-2.61309
-2.78298
-2.69606
-2.9359
-2.63899
-3.47149
-3.2695
-2.40096
54.8795
595.236
50.5665
-2.94779
-3.05394
-2.99924
-3.05222
-3.04929
-3.02392
-3.14271
-3.06053
-3.08619
-3.01793
-3.00363
-3.08274
-2.7476
-2.81688
-2.7927
-2.98826
-3.04778
-3.35086
-3.36718
-3.43395
-0.37003
87.5599
-2.70757
-2.9829
-3.10769
-3.02254
-3.10776
-3.16762
-3.16836
-3.23859
-3.16911
-3.19621
-3.12839
-3.07011
-3.09055
-3.28289
-2.85173
-3.27327
-3.23018
-3.16549
-3.21011
-3.2805
-3.46065
-3.45815
-3.15638
-2.99472
-3.16681
-3.11933
-3.1142
-3.18575
-3.20397
-3.23259
-3.2449
-3.25989
-3.2927
-3.20579
-3.26239
-3.28674
-3.25131
-3.3964
-3.39034
-3.25473
-3.13231
-3.19228
-3.30933
-3.26808
-3.20403
-3.0942
-3.32596
-3.19667
-3.2134
-3.1869
-3.27315
-3.31336
-3.29909
-3.33073
-3.3292
-3.35421
-3.29478
-3.35378
-3.37855
-3.36831
-3.41474
-3.40288
-3.1627
-3.45772
-3.38974
-3.16317
-3.32146
-3.30878
-3.55229
-3.26147
-3.34634
-3.31307
-3.35222
-3.36959
-3.43278
-3.4512
-3.46248
-3.39782
-3.42705
-3.47702
-3.4585
-3.47571
-3.47861
-3.58518
-3.43249
-3.31589
-3.41463
-3.51313
-3.50946
-3.4689
-3.43885
-3.46427
-3.48728
-3.39344
-3.47208
-3.44245
-3.45412
-3.57651
-3.53496
-3.55521
-3.52184
-3.53412
-3.53752
-3.63359
-3.67473
-3.69465
-3.53134
-3.65674
-3.66736
-3.60009
-3.57479
-3.64009
-3.60593
-3.56845
-3.65608
-3.49087
-3.54625
-3.55139
-3.64258
-3.58429
-3.64355
-3.57466
-3.6136
-3.61494
-3.6462
-3.65233
-3.64731
-3.56712
-3.50625
-3.62755
-3.52188
-3.77753
-3.6839
-3.6835
-3.6678
-3.65477
-3.63606
-3.63976
-3.64745
-3.60084
-3.68582
-3.65379
-3.68052
-3.74733
-3.66708
-3.78952
-3.71988
-3.75492
-3.7068
-3.63617
-3.69567
-3.69535
-3.71072
-3.71196
-3.6743
-3.68729
-3.78109
-3.765
-3.78533
-3.81882
-3.8297
-3.82733
-3.79101
-3.80606
-3.86879
-3.83614
-3.73094
-3.85679
-3.81728
-3.82892
-3.84287
-3.83471
-3.81404
-3.80915
-3.80698
-3.81235
-3.8046
-3.82186
-3.83494
-3.76677
-3.81847
-3.83552
-3.79905
-3.80577
-3.79257
-3.87347
-3.86916
-3.92323
-3.83809
-3.96311
-3.90713
-3.93235
-3.93231
-3.93794
-3.93429
-3.91623
-3.92541
-3.92617
-3.92829
-3.93614
-3.93055
-3.94076
-3.95102
-3.95906
-3.96558
-3.97657
-3.96856
-4.01126
-3.91913
-4.02126
-3.92231
-4.0541
-3.97965
-4.03233
-4.02443
-4.02261
-4.03885
-4.02048
-4.03939
-4.03786
-4.04208
-4.03963
-4.03891
-4.03396
-4.04048
-4.03459
-4.0351
-4.04134
-4.02327
-4.03576
-4.0716
-4.09722
-4.10712
-4.08642
-4.11518
-4.08523
-4.11431
-4.06761
-4.15998
-4.13195
-4.15329
-4.1604
-4.16284
-4.16425
-4.16576
-4.1709
-4.17501
-4.18235
-4.17774
-4.19141
-4.17908
-4.22169
-4.20405
-4.21778
-4.17342
-4.16932
-4.25298
-4.17163
-4.24332
-4.24591
-4.21652
-4.24896
-4.23412
-4.23754
-4.27642
-4.27541
-4.27067
-4.26723
-4.2634
-4.22826
-4.2425
-4.2737
-4.27876
-4.29082
-4.27273
-4.31055
-4.31018
-4.31301
-4.34767
-4.29726
-4.3387
-4.31221
-4.31964
-4.34086
-4.29116
-4.36695
-4.33501
-4.39776
-4.39943
-4.4005
-4.4119
-4.41265
-4.45844
-4.4643
-4.42136
-4.41239
-4.4026
-4.43383
-4.41129
-4.4277
-4.42062
-4.3975
-4.41756
-4.39775
-4.44369
-4.41409
-4.45034
-4.46819
-4.45418
-4.46015
-4.51238
-4.51356
-4.5108
-4.51078
-4.50635
-4.50276
-4.51419
-4.53188
-4.57279
-4.55346
-4.5499
-4.54733
-4.53105
-4.53773
-4.55382
-4.54182
-4.59297
-4.50665
-4.57596
-4.53187
-4.54703
-4.5254
-4.56196
-4.63226
-4.63321
-4.6356
-4.63813
-4.65048
-4.6843
-4.65714
-4.64193
-4.61215
-4.59199
-4.63344
-4.60368
-4.64564
-4.63867
-4.64575
-4.6318
-4.61614
-4.65298
-4.65651
-4.63918
-4.66189
-4.67316
-4.66694
-4.75003
-4.75074
-4.7489
-4.74978
-4.75068
-4.70891
-4.74685
-4.71973
-4.74993
-4.76912
-4.76786
-4.78675
-4.78521
-4.76629
-4.77556
-4.76391
-4.78906
-4.75191
-4.74689
-4.7709
-4.78558
-4.76581
-4.77474
-4.86833
-4.86799
-4.86673
-4.86762
-4.8371
-4.87089
-4.86894
-4.89841
-4.87506
-4.85289
-4.86559
-4.85918
-4.87642
-4.87148
-4.87062
-4.87151
-4.8567
-4.8703
-4.87154
-4.87375
-4.85453
-4.87185
-4.88442
-4.9894
-4.98603
-4.99505
-4.98393
-5.03039
-4.98406
-4.99694
-4.98409
-5.00178
-5.01167
-5.01836
-5.00442
-4.99267
-4.98507
-4.99811
-4.99117
-4.99743
-4.99306
-4.98472
-4.98912
-4.99636
-4.96941
-5.00579
-5.10235
-5.10454
-5.10816
-5.10704
-5.10872
-5.112
-5.10534
-5.11095
-5.10016
-5.06501
-5.07443
-5.09188
-5.11805
-5.10829
-5.10359
-5.09744
-5.09876
-5.09218
-5.10145
-5.08013
-5.10121
-5.08102
-5.11164
-5.22779
-5.22607
-5.22571
-5.2224
-5.2317
-5.22389
-5.22646
-5.22796
-5.23119
-5.27101
-5.23947
-5.2369
-5.23305
-5.22868
-5.22748
-5.22363
-5.22667
-5.21487
-5.22005
-5.21478
-5.21426
-5.21507
-5.20909
-5.32916
-5.33553
-5.34339
-5.34929
-5.35191
-5.35188
-5.36723
-5.35282
-5.33905
-5.32707
-5.33242
-5.33049
-5.33705
-5.33014
-5.32802
-5.32268
-5.32288
-5.31919
-5.32653
-5.31601
-5.33141
-5.31833
-5.3115
-5.47948
-5.47053
-5.46842
-5.43408
-5.4563
-5.45997
-5.439
-5.4637
-5.46717
-5.47544
-5.47261
-5.46784
-5.47001
-5.46759
-5.46462
-5.4636
-5.46231
-5.45897
-5.4481
-5.45102
-5.44236
-5.44745
-5.43382
-5.52132
-5.53118
-5.55348
-5.62575
-5.59797
-5.56016
-5.55281
-5.57886
-5.54656
-5.57139
-5.54823
-5.56388
-5.56529
-5.54403
-5.54113
-5.53676
-5.5364
-5.53808
-5.55026
-5.54808
-5.5544
-5.55661
-5.54934
-5.79698
-5.78965
-5.76678
-5.71743
-5.71061
-5.73782
-5.7438
-5.69419
-5.75584
-5.68764
-5.74678
-5.69924
-5.71127
-5.72312
-5.72869
-5.71922
-5.72182
-5.71012
-5.68991
-5.69571
-5.67514
-5.68078
-5.66898
-144.954
-589.016
14.6272
553.351
-514.493
-799.994
-886.766
24.1331
162.134
111.999
647.004
597.508
751.677
716.922
736.194
734.453
950.72
820.342
799.921
762.694
1750.83
1735.58
1552.93
1429.04
1012.9
1352.56
1578.94
1586.94
429.821
583.957
691.184
547.007
42.4341
91.2438
106.265
75.4245
-3.22749
6.32645
13.4816
27.6538
-2.21025
-1.61212
-0.873618
2.97118
-2.46837
-2.2215
-2.29577
-2.13542
-2.50795
-2.41609
-2.31802
-2.25998
-2.62962
-2.56966
-2.52351
-2.47527
-2.77558
-2.73046
-2.71609
-2.69717
-2.88983
-2.83847
-2.8462
-2.83516
-3.0271
-3.02836
-3.03858
-2.97401
-3.15876
-3.09427
-3.10424
-3.09863
-3.22072
-3.17379
-3.22831
-3.19671
-3.36124
-3.31604
-3.33038
-3.34587
-3.46062
-3.46731
-3.44207
-3.39528
-3.49044
-3.51545
-3.51317
-3.54682
-3.68115
-3.68676
-3.6789
-3.69999
-3.69814
-3.72682
-3.73562
-3.73072
-3.86169
-3.83906
-3.83528
-3.86006
-3.91903
-3.95056
-3.94708
-3.9339
-4.0734
-4.01954
-4.06268
-4.04024
-4.11163
-4.15228
-4.13454
-4.13876
-4.24618
-4.23073
-4.23411
-4.24853
-4.36208
-4.3522
-4.34075
-4.3241
-4.42986
-4.45702
-4.44533
-4.44922
-4.57019
-4.54887
-4.55361
-4.55071
-4.66394
-4.66016
-4.66792
-4.66467
-4.7694
-4.77071
-4.758
-4.765
-4.86151
-4.8836
-4.87147
-4.88115
-4.99903
-4.98578
-4.98566
-4.98083
-5.08778
-5.09727
-5.09397
-5.09406
-5.211
-5.21315
-5.21252
-5.20648
-5.3331
-5.31841
-5.32511
-5.321
-5.45097
-5.44296
-5.44319
-5.43668
-5.55453
-5.54975
-5.55314
-5.55317
-5.68015
-5.66771
-5.68273
-5.66163
359.833
472.265
1350.92
1996.92
2035.22
2059.42
1655.36
1741.11
1985.54
1706.2
1916.35
1856.59
1746.93
1765.24
1212.23
510.205
174.593
128.944
138.485
211.283
906.349
1168.14
928.049
836.094
1232.04
1485.56
1682.37
2093
1594.02
1814.57
1743.77
1239.95
927.156
435.683
139.39
74.3999
75.0001
92.988
424.983
846.112
830.822
993.507
303.639
872.319
1006.66
1324.98
1607.28
1736.84
1427.92
614.111
324.183
193.789
122.526
50.1218
47.9403
52.1707
70.6033
709.972
848.179
1120.46
385.928
518.889
672.211
818.031
1396.39
1775.62
1371.26
433.292
104.128
65.8015
61.4084
68.1179
68.7178
65.0354
55.2511
63.4193
853.547
1144.01
1357.66
890.477
1257.16
1566.14
1208.84
1566.23
1662.49
833.311
191.815
30.0096
17.636
13.961
21.7455
29.9661
41.7465
42.0698
45.2516
1623.7
1394.58
1515.41
1244.12
1362.09
1627.3
1447.78
1714.03
1400.01
452.245
51.0997
6.18272
4.60922
4.05877
7.03339
9.36136
26.2044
32.5087
32.336
1199.62
477.537
366.547
313.893
623.959
1424.26
1532.9
1283.05
285.982
28.1234
1.82369
-0.227741
0.987978
0.847544
5.47358
5.28414
12.069
16.4338
20.9782
310.517
154.911
14.8942
17.3764
140.858
935.815
872.012
451.149
63.3523
10.2392
0.991133
-1.49903
-1.58919
-1.91794
-3.7547
2.82038
4.28723
7.7561
10.9021
104.083
30.8939
2.52285
-0.539608
17.5283
458.287
338.351
96.852
6.19378
-3.68353
-3.38963
-4.03571
-3.4978
-3.3934
-3.94095
-3.54192
-2.09686
-0.640664
2.97699
3.24225
-1.01986
-0.981418
-1.20942
-3.48202
11.3306
21.7727
9.9943
1.02091
-6.46509
-4.44808
-5.01055
-4.98612
-5.69632
-6.36059
-6.74762
-5.51516
-5.7491
-3.063
-1.49964
-1.58094
-1.53262
-1.50344
-1.64389
-2.79182
-3.19913
-3.64706
-3.96423
-7.05952
-5.64025
-6.43099
-6.75613
-6.78749
-7.59225
-8.00771
-8.42787
-9.70353
-7.21131
-1.99205
-1.97572
-1.81813
-2.15123
-2.23145
-2.51194
-3.249
-4.0267
-5.46867
-6.61681
-7.29437
-7.31651
-7.62078
-8.02011
-8.85007
-10.2073
-12.0007
-14.4083
-9.75095
-2.22353
-2.18545
-2.19167
-2.32855
-2.37504
-2.89213
-3.30609
-3.93939
-4.33064
-5.77939
-9.12857
-8.4956
-8.20644
-9.32014
-9.65866
-11.3665
-13.7405
-15.5608
-8.96773
-2.42056
-2.34428
-2.34414
-2.48286
-2.64811
-2.99238
-3.5461
-4.01968
-4.92182
-7.48545
-9.20633
-8.45935
-8.16357
-8.65702
-9.57917
-11.318
-14.3875
-13.7721
-9.52933
-2.67758
-2.65296
-2.70075
-2.80538
-2.96871
-3.17619
-3.473
-4.93991
-6.10572
-6.21313
-7.54288
-8.92577
-7.91953
-8.23437
-9.04512
-10.7942
-13.5216
-12.2315
-12.7263
-2.7859
-2.79882
-2.9238
-2.9416
-2.97846
-3.25178
-4.34869
-4.98157
-4.8255
-6.09869
-7.51765
-8.31148
-7.66808
-7.3899
-7.81555
-8.8843
-10.8447
-9.43603
-7.58604
-3.03135
-3.06355
-2.93803
-3.01987
-3.44924
-3.56152
-4.29222
-4.12902
-4.31095
-5.71275
-6.54556
-8.51432
-7.40492
-6.75965
-7.22558
-6.2801
-6.45108
-3.84449
-2.28777
-3.07591
-2.99474
-3.19158
-3.45934
-3.33102
-3.65089
-3.74489
-4.06913
-4.29299
-5.34284
-6.07071
-5.09166
-5.71247
-5.53013
-5.7196
-5.68321
-4.11886
-1.53869
-0.450309
-3.26517
-3.2644
-3.39205
-3.25833
-3.5185
-3.84751
-3.94589
-4.07803
-4.07793
-5.34794
-5.32436
-5.58741
-5.50436
-4.27191
-4.2901
-4.55433
-3.30885
-1.34969
-0.336232
-3.37202
-3.337
-3.62559
-3.53791
-3.66944
-3.66799
-3.83435
-3.84625
-4.42533
-4.93503
-4.02441
-4.65003
-4.71671
-4.49062
-3.82451
-2.99184
-2.81276
-1.82407
-1.33486
-3.60225
-3.39031
-3.59367
-3.49885
-3.63899
-3.68574
-3.87494
-4.24959
-3.99862
-4.25312
-4.2578
-4.17927
-4.06342
-3.91379
-3.54474
-2.48964
-2.33351
-1.634
-1.46014
-3.52283
-3.58505
-3.65129
-3.68257
-3.7488
-3.68889
-3.87151
-4.19234
-3.7793
-3.79577
-4.36395
-4.427
-3.52536
-3.68049
-3.36109
-2.96548
-2.4123
-1.94114
-1.75069
-3.69001
-3.65075
-3.74746
-3.69875
-3.84722
-3.79498
-3.93158
-3.69701
-3.78592
-3.77394
-3.69329
-3.87913
-3.69219
-3.8147
-3.27979
-2.50766
-2.45745
-2.08948
-1.99466
-3.77573
-3.82844
-3.83373
-3.7749
-3.84953
-3.86696
-3.93181
-3.91987
-3.84316
-3.97549
-3.53405
-3.46483
-3.77552
-3.35597
-2.98605
-2.94365
-2.60358
-2.34386
-2.22287
-3.86545
-3.86557
-3.87125
-3.92126
-3.93717
-3.89148
-3.9719
-3.77837
-3.92837
-3.87362
-3.82661
-3.62336
-3.61887
-3.25806
-3.25373
-2.88538
-2.80538
-2.5146
-2.42326
-3.92155
-3.96213
-3.96526
-3.95575
-3.99354
-3.95724
-4.04806
-3.90457
-3.99184
-3.82918
-3.83336
-3.66459
-3.71693
-3.52502
-3.20321
-3.01957
-2.76391
-2.76471
-2.69326
-4.05897
-4.01797
-4.05004
-4.04541
-4.064
-4.02485
-4.17755
-3.75454
-4.19043
-3.87331
-3.9502
-3.71003
-3.70896
-3.53771
-3.31725
-3.23264
-3.05541
-2.94404
-2.91213
-4.13914
-4.14004
-4.12582
-4.11795
-4.15709
-4.09459
-4.211
-4.00845
-4.17228
-3.76826
-4.1429
-3.80376
-3.79126
-3.68005
-3.33308
-3.50261
-3.23334
-3.14881
-3.15033
-4.24503
-4.22939
-4.23612
-4.20128
-4.24344
-4.15516
-4.25757
-4.16406
-4.28138
-3.96656
-4.11353
-3.72225
-3.98927
-3.74943
-3.61016
-3.47722
-3.30814
-3.35927
-3.29605
-4.36095
-4.3337
-4.33124
-4.30061
-4.30272
-4.26867
-4.30574
-4.25785
-4.31479
-4.24749
-4.22465
-3.97211
-3.81783
-3.91177
-3.66843
-3.82119
-3.57828
-3.58107
-3.52303
-4.44428
-4.43666
-4.43848
-4.40203
-4.40388
-4.25236
-4.46546
-4.36684
-4.39559
-4.32022
-4.35564
-4.333
-4.08034
-3.91652
-3.90123
-3.69704
-3.58555
-3.55756
-3.68388
-4.55304
-4.54843
-4.54154
-4.53116
-4.50667
-4.47733
-4.37789
-4.5683
-4.47239
-4.46065
-4.40235
-4.36957
-4.42112
-4.34898
-4.27754
-4.25913
-4.24208
-4.07983
-3.85336
-4.64591
-4.64389
-4.64378
-4.62027
-4.65178
-4.51906
-4.56503
-4.48224
-4.64988
-4.57125
-4.55633
-4.4869
-4.41805
-4.35019
-4.30369
-4.26378
-4.23565
-4.29301
-4.34563
-4.76569
-4.75202
-4.77095
-4.68831
-4.73701
-4.73363
-4.59454
-4.71919
-4.53346
-4.73998
-4.63095
-4.62613
-4.58622
-4.54759
-4.50397
-4.47936
-4.43693
-4.41776
-4.38582
-4.87342
-4.86576
-4.86152
-4.85366
-4.82533
-4.8032
-4.81394
-4.71781
-4.76693
-4.72933
-4.84415
-4.75575
-4.70902
-4.673
-4.63463
-4.61623
-4.58968
-4.58532
-4.5797
-4.97869
-4.97578
-4.96684
-4.95483
-4.91249
-4.96052
-4.85415
-4.95745
-4.85231
-4.85926
-4.80119
-4.8525
-4.81837
-4.81336
-4.78384
-4.77424
-4.75284
-4.74683
-4.73855
-5.08964
-5.08946
-5.07501
-5.08452
-5.04259
-5.03304
-5.06658
-5.00079
-4.99073
-5.03033
-5.02298
-5.06712
-4.98057
-4.96573
-4.93363
-4.92271
-4.9057
-4.90223
-4.89584
-5.20653
-5.20289
-5.18422
-5.18984
-5.17259
-5.17139
-5.12931
-5.15106
-5.13913
-5.08015
-5.07128
-5.11109
-5.09376
-5.10062
-5.08435
-5.08321
-5.07296
-5.07051
-5.06769
-5.31733
-5.31875
-5.30671
-5.30629
-5.30918
-5.26565
-5.2907
-5.24604
-5.28929
-5.27997
-5.26397
-5.2519
-5.24502
-5.23534
-5.22076
-5.21726
-5.20625
-5.20612
-5.20167
-5.43922
-5.43673
-5.41569
-5.42405
-5.41406
-5.43369
-5.38662
-5.40377
-5.38138
-5.37058
-5.37292
-5.37804
-5.39861
-5.39734
-5.39998
-5.40376
-5.40282
-5.40478
-5.40405
-5.54612
-5.55797
-5.54557
-5.54376
-5.5597
-5.53646
-5.55935
-5.5175
-5.55248
-5.53724
-5.51943
-5.51925
-5.51407
-5.50083
-5.49222
-5.48714
-5.48177
-5.48036
-5.47837
-5.6823
-5.6565
-5.68362
-5.65574
-5.65577
-5.65446
-5.65512
-5.65807
-5.58844
-5.62162
-5.62806
-5.68426
-5.70004
-5.72823
-5.74488
-5.75832
-5.76734
-5.77239
-5.77427
)
;

boundaryField
{
    leftWall
    {
        type            calculated;
        value           nonuniform List<scalar> 
50
(
1721.26
1662.19
1600.32
1541.65
1475.41
1418.28
1353.99
1293.94
1194.48
1064.67
896.121
766.29
721.946
1327.04
1926.84
1039.08
481.919
361.235
288.509
118.007
32.3132
13.3066
2.56285
-0.679205
-2.45656
-3.00363
-3.07011
-3.26239
-3.35378
-3.4585
-3.63359
-3.64731
-3.63617
-3.81404
-3.91623
-4.03939
-4.1604
-4.27642
-4.39776
-4.51238
-4.63226
-4.75003
-4.86833
-4.9894
-5.10235
-5.22779
-5.32916
-5.47948
-5.52132
-5.79698
)
;
    }
    rightWall
    {
        type            calculated;
        value           nonuniform List<scalar> 
50
(
515.475
500.068
467.692
431.641
390.961
340.066
282.828
222.156
138.485
92.988
70.6033
63.4193
45.2516
32.336
20.9782
10.9021
2.97699
-3.063
-7.21131
-9.75095
-8.96773
-9.52933
-12.7263
-7.58604
-2.28777
-0.450309
-0.336232
-1.33486
-1.46014
-1.75069
-1.99466
-2.22287
-2.42326
-2.69326
-2.91213
-3.15033
-3.29605
-3.52303
-3.68388
-3.85336
-4.34563
-4.38582
-4.5797
-4.73855
-4.89584
-5.06769
-5.20167
-5.40405
-5.47837
-5.77427
)
;
    }
    lowerWall
    {
        type            calculated;
        value           nonuniform List<scalar> 
62
(
1750.69
1754.87
1755.7
1770.35
1751.62
1750.25
1681.07
1711.82
1555.99
1467.73
1776.07
1649.62
1629.9
1598.94
1660.42
1419.81
1431
1504.98
1687.61
1627.53
1891.57
1972.7
2492.6
2479.34
1895.34
1964.7
1894.85
1911.34
1938.82
1817.86
1502.29
-89.0736
-533.919
67.6181
559.666
364.651
361.954
355.299
354.9
355.708
356.558
356.883
356.029
364.778
355.855
354.463
354.761
356.211
359.146
363.953
365.816
395.374
438.552
621.371
501.665
922.682
1314.2
1204.19
913.927
576.986
535.24
516.412
)
;
    }
    atmosphere
    {
        type            calculated;
        value           nonuniform List<scalar> 
46
(
-5.777
-5.77847
-5.77897
-5.78883
-5.77198
-5.76687
-5.76406
-5.7541
-5.76575
-5.74753
-5.76023
-5.74867
-5.75364
-5.75008
-5.75043
-5.74401
-5.74201
-5.73732
-5.73446
-5.73367
-5.73123
-5.73166
-5.72917
-5.72954
-5.72904
-5.72909
-5.72904
-5.72904
-5.72904
-5.72904
-5.72904
-5.72904
-5.72904
-5.72904
-5.72904
-5.72904
-5.72904
-5.72904
-5.72904
-5.72904
-5.72904
-5.72904
-5.72904
-5.72904
-5.72904
-5.72904
)
;
    }
    defaultFaces
    {
        type            empty;
    }
}


// ************************************************************************* //
