/*--------------------------------*- C++ -*----------------------------------*\
| =========                 |                                                 |
| \\      /  F ield         | foam-extend: Open Source CFD                    |
|  \\    /   O peration     | Version:     4.1                                |
|   \\  /    A nd           | Web:         http://www.foam-extend.org         |
|    \\/     M anipulation  |                                                 |
\*---------------------------------------------------------------------------*/
FoamFile
{
    version     2.0;
    format      ascii;
    class       volScalarField;
    location    "0.35";
    object      pd;
}
// * * * * * * * * * * * * * * * * * * * * * * * * * * * * * * * * * * * * * //

dimensions      [1 -1 -2 0 0 0 0];

internalField   nonuniform List<scalar> 
2268
(
1750.69
1754.87
1755.7
1770.35
1751.62
1750.25
1681.07
1711.82
1555.99
1467.73
1776.07
1649.62
1629.9
1598.94
1660.42
1419.81
1431
1504.98
1687.61
1627.53
1891.57
1972.7
2492.6
1750.47
1754.36
1755.08
1769.55
1751.25
1745.57
1680.22
1711.84
1552.19
1435.48
1735.87
1653.4
1621.09
1548.52
1557.39
1538.08
1386.14
1456.21
1761.8
1768.93
1925.18
1846.68
1975.97
1747.47
1752.86
1753.04
1768
1749.66
1749.91
1688.02
1691.51
1540.01
1536.18
1563.08
1714.3
1607.65
1654.74
1519.14
1484.78
1426.67
1520.91
1711.89
2280.34
2653.3
2043.05
2096.59
1747.66
1751.52
1751.24
1766.05
1748.19
1732
1702.1
1702.69
1531.99
1569.6
1570.16
1623.23
1687.9
1391.28
1487.08
1431.57
1488.27
1591.63
1950.85
2576.44
2638.05
2162.46
2076.72
1740.28
1747.96
1747.55
1762.43
1743.6
1723.1
1665.74
1721.49
1493.96
1610.06
1532.56
1680.2
1448.61
1617.27
1412.82
1466.65
1570.14
1599.84
1712.8
2352.49
2468.62
2387.01
2140.04
1742
1746.72
1744.94
1760.99
1737.19
1720.78
1670.64
1682.13
1473.56
1640.51
1531.37
1573.51
1539.42
1598.29
1184.77
1340.06
1595.51
1566.34
1665.2
1898.3
2121.56
2294.41
2210.71
1736.57
1740.44
1739.56
1753.02
1731.95
1713.37
1705.31
1746.94
1389.31
1654.06
1626.9
1440.28
1622.36
1501.63
1304.65
1186.57
1663.36
1605.54
1684.08
1535.65
1714.86
1863.37
2140.93
1735.38
1742.27
1736.92
1757.97
1722.46
1707.1
1631.89
1698.97
1445.57
1584.28
1563.33
1589.32
1289.96
1618.62
1405.85
1098.27
1580.48
1532.28
1597.62
1513.94
1682.99
1627.5
1880.95
364.778
355.855
354.463
354.761
356.211
359.146
363.953
365.816
395.374
438.552
621.371
501.665
922.682
1314.2
1204.19
913.927
576.986
535.24
516.412
362.29
353.807
353.264
354.003
354.461
356.147
360.204
360.067
369.995
455.483
1275.12
882.959
1368.75
1748.25
1592.62
1123.99
715.355
539.448
502.851
355.778
352.441
353.177
353.777
354.161
356.085
360.974
362.196
388.625
1272.04
1808.61
1675.95
1975.01
1998.53
1655.5
1323.14
834.735
500.704
472.025
355.448
352.335
352.916
353.664
354.04
356.214
360.139
377.952
507.238
1745.51
2070.79
2020.53
2149.82
2171.58
1767.76
1457.56
951.921
507.726
437.247
356.196
353.759
353.36
353.183
354.638
358.357
364.15
380.154
762.351
1517.64
2161.62
2078.24
2208.88
2200.33
1838.73
1498.71
1004.87
525.615
398.074
356.968
355.071
353.733
353.697
370.675
375.896
379.95
434.886
815.886
1565.04
2157.02
2146.5
2223.99
2228.67
1875.33
1446.86
883.877
489.327
348.873
357.466
356.563
359.654
397.975
484.137
482.075
424.757
442.385
653.005
1555.36
2168.24
2140.48
2186.55
2190.9
1821.08
1218.59
554.292
378.044
293.079
357.679
360.345
535.454
995.933
1077.4
1049.8
642.456
653.288
994.796
1671.66
2173.74
2149.57
2162.46
2153.88
1723.8
1001.4
380.531
261.106
233.326
1727.93
1727.08
1724.06
1732.33
1650.85
1657.33
1643.38
1583.13
1437.27
1548.26
1619.88
1600.02
1548.51
1672.8
964.482
1008.9
1838.72
1497.49
1515.6
1395.59
1628.96
1245.98
1178.41
1723.1
1735.78
1717.76
1698.35
1742.26
1651.1
1608.35
1497.1
1782.06
2331.82
2482.05
2359.17
2415.54
1932.86
1581.97
1436.96
1566.38
1516.72
1424.09
1442.2
1259.64
886.533
571.492
1676.95
1683.44
1699.91
1697.67
1643.81
1583.08
1603.11
1693.23
2560.48
2469.21
2396.64
2219.59
2306.01
2186.82
2359.35
2214.76
2215.91
2052.37
1862.49
1512.78
1177.51
1010.51
495.543
1654.13
1704.96
1639.79
1776.01
1721.94
1851.12
1739.28
1825.61
2589.12
2525.03
2482.36
2298.29
2008.19
1682.1
1381.81
1477.68
1803.92
1915.2
2362.95
1983.21
1164.79
1058.75
1060.84
1664.44
2051.91
1637.33
1487.9
1602.53
1555.97
1570.57
1680.33
2135.02
2336.1
2634.63
2477.99
2420.76
2241.1
1821.2
1170.66
843.455
819.737
1255.58
2011.48
2210.09
2058.55
1941.8
2199.26
2611.6
2115.85
1893.02
2412.75
2364.13
2021.11
1965.38
2154.41
2173.75
2389.09
2453.96
2414.1
2306.22
1977.65
1464.27
789.926
521.16
686.982
1157.65
1585.81
1791.66
2054.39
2527.47
2110.6
2516.07
2597.22
2253.37
2038.69
2484.41
2424.74
2518.29
2234.37
1659.09
1616.79
1982.09
2003.03
1244.32
756.936
504.714
345.804
390.491
477.098
564.111
576.465
873.149
1378.77
1882.53
2601.53
2312.99
1284.43
915.117
1675.85
1979.86
1539.91
764.318
452.767
463.169
1049.22
993.511
137.128
74.5142
88.8963
134.794
138.324
160.154
183.979
319.752
415.477
707.578
1364.17
1905.27
1351.43
402.736
407.549
1351.82
1164.4
499.302
290.413
175.449
115.026
406.987
60.5064
7.91937
4.3862
3.73201
23.0299
47.6916
56.506
84.5653
124.112
78.9604
564.804
653.856
925.703
601.276
119.691
172.733
455.781
275.667
90.8836
186.099
102.22
26.3922
16.8034
4.30076
1.0859
0.697692
0.834041
9.16532
21.9824
14.4186
18.0043
30.0361
11.1751
478.723
332.963
553.986
288.775
63.4705
50.6576
148.15
50.6708
41.2644
167.76
93.6048
19.0378
6.58605
0.73723
0.32797
0.104165
0.110248
2.44877
6.35379
2.53273
3.63321
7.77211
3.3615
251.138
124.397
283.727
103.671
28.3914
6.8909
25.8879
12.0181
32.0423
167.894
117.62
30.1977
10.4898
0.280608
-0.307138
-0.128493
0.208158
0.559487
1.50572
2.02051
1.89853
2.44593
0.64817
107.247
53.8805
84.9435
27.3075
15.2085
1.76161
5.19129
2.83222
24.6146
182.934
213.849
65.0204
21.0067
-0.605704
-0.3839
-0.392973
0.667944
0.597652
0.993085
1.07462
1.02776
0.525197
-0.11747
60.8054
16.7774
33.385
5.69164
0.634046
0.164119
0.289789
0.424223
15.3156
164.886
265.321
97.2953
25.1584
-0.25049
-1.03981
-1.04944
-0.083607
-0.263651
0.267443
0.316588
0.518489
-0.354637
-0.472283
32.4762
4.58285
14.1603
2.78397
0.156813
-0.030968
-0.254489
0.115962
0.0233028
31.7004
210.925
120.864
11.1548
-0.929473
-0.888774
-0.921185
-0.723541
-0.615386
-0.340287
-0.147602
0.00437957
-0.536823
-0.501799
18.5178
1.97504
7.25417
1.3679
-0.147226
-0.366021
-0.462797
-0.10614
-0.0620127
2.10201
45.4805
296.951
39.313
-0.772119
-0.532592
-0.661273
-0.611819
-0.687434
-0.574142
-0.592028
-0.471537
-0.604991
-0.502437
8.66244
0.623791
3.11781
0.378553
-0.151291
-0.397306
-0.0973834
-0.548156
1.70041
14.8864
176.077
1058.5
168.355
0.425949
-0.507557
-0.455217
-0.512143
-0.510923
-0.485586
-0.604513
-0.521659
-0.54882
-0.479665
0.405749
-0.104775
1.35711
0.0339715
-0.12925
-0.32569
-0.382025
-0.643892
-0.200367
3.6176
30.1949
248.794
5.54408
-0.319238
-0.443621
-0.358598
-0.445274
-0.505559
-0.506369
-0.576609
-0.507114
-0.534243
-0.466314
-0.277605
-0.277098
0.0796251
-0.0399206
-0.486069
-0.443078
-0.378412
-0.422935
-0.493268
-0.673531
-0.67029
-0.365747
-0.207599
-0.379681
-0.332166
-0.326967
-0.398593
-0.416956
-0.445596
-0.457902
-0.472883
-0.505686
-0.418771
-0.349123
-0.36669
-0.0860807
-0.482463
-0.478139
-0.342533
-0.220101
-0.28005
-0.397081
-0.355912
-0.29187
-0.182033
-0.413789
-0.284497
-0.301222
-0.274717
-0.360959
-0.401165
-0.38691
-0.418563
-0.417036
-0.44204
-0.382611
-0.31623
-0.340362
-0.328518
-0.377361
-0.365514
-0.125336
-0.42035
-0.35237
-0.125788
-0.284104
-0.271417
-0.514931
-0.224111
-0.308979
-0.275714
-0.314858
-0.332229
-0.39542
-0.413843
-0.425126
-0.36046
-0.38969
-0.439658
-0.295947
-0.313148
-0.316037
-0.422626
-0.269937
-0.153337
-0.252074
-0.350581
-0.346904
-0.306347
-0.276295
-0.301716
-0.324731
-0.230886
-0.309526
-0.279898
-0.291568
-0.413957
-0.372412
-0.392654
-0.359285
-0.371567
-0.374971
-0.345841
-0.386984
-0.406907
-0.243596
-0.368994
-0.379609
-0.312341
-0.287046
-0.352344
-0.318179
-0.280698
-0.36833
-0.203127
-0.2585
-0.263647
-0.35483
-0.296539
-0.355803
-0.286914
-0.325855
-0.32719
-0.358453
-0.364581
-0.234367
-0.154183
-0.0933052
-0.214606
-0.108939
-0.364587
-0.270964
-0.270561
-0.254864
-0.241828
-0.223122
-0.226821
-0.234507
-0.187894
-0.27288
-0.240849
-0.267578
-0.334385
-0.254134
-0.376578
-0.306935
-0.341981
-0.29386
-0.0980352
-0.157537
-0.157213
-0.172589
-0.173829
-0.136164
-0.149156
-0.242953
-0.226867
-0.247197
-0.28068
-0.291563
-0.289192
-0.252878
-0.267929
-0.330654
-0.298005
-0.192803
-0.318656
-0.279144
-0.290786
-0.30473
-0.296576
-0.150712
-0.14582
-0.143646
-0.149018
-0.141274
-0.158525
-0.171612
-0.103442
-0.155135
-0.172193
-0.135721
-0.142438
-0.129244
-0.210139
-0.205825
-0.259902
-0.174755
-0.299775
-0.243795
-0.269024
-0.268983
-0.274613
-0.270957
-0.127702
-0.136884
-0.137644
-0.139766
-0.147614
-0.142021
-0.152232
-0.162492
-0.17054
-0.177054
-0.188047
-0.180037
-0.222735
-0.130603
-0.232734
-0.133783
-0.265574
-0.191121
-0.243801
-0.235906
-0.234081
-0.250328
-0.231953
-0.125671
-0.124142
-0.128357
-0.125914
-0.125192
-0.120241
-0.126762
-0.120868
-0.121376
-0.127617
-0.109548
-0.122042
-0.157881
-0.1835
-0.193396
-0.1727
-0.20146
-0.171512
-0.200589
-0.153889
-0.246264
-0.218226
-0.239571
-0.121483
-0.123928
-0.125336
-0.126843
-0.131986
-0.136093
-0.143438
-0.138823
-0.152493
-0.140162
-0.18278
-0.165134
-0.178862
-0.134502
-0.13041
-0.214068
-0.132719
-0.204403
-0.206997
-0.177605
-0.210051
-0.195205
-0.198628
-0.112314
-0.111297
-0.106561
-0.10312
-0.0992886
-0.0641542
-0.0783866
-0.109593
-0.114655
-0.126713
-0.108621
-0.146445
-0.146067
-0.1489
-0.183558
-0.133156
-0.174596
-0.148101
-0.155533
-0.176748
-0.127047
-0.202838
-0.170904
-0.108454
-0.110132
-0.111197
-0.122594
-0.12335
-0.169142
-0.174998
-0.132057
-0.12309
-0.113296
-0.144524
-0.121984
-0.138395
-0.131315
-0.108199
-0.128258
-0.108443
-0.154386
-0.124783
-0.161037
-0.178882
-0.164878
-0.170845
-0.0978857
-0.0990579
-0.0962996
-0.0962875
-0.0918551
-0.0882651
-0.0996975
-0.117383
-0.158297
-0.138962
-0.135407
-0.132838
-0.116551
-0.123233
-0.139322
-0.127323
-0.178472
-0.0921564
-0.161463
-0.117375
-0.132536
-0.110906
-0.147463
-0.0925721
-0.093517
-0.0959046
-0.0984411
-0.110789
-0.144609
-0.117451
-0.102242
-0.072462
-0.0523018
-0.0937499
-0.0639837
-0.105952
-0.098979
-0.106055
-0.092112
-0.0764439
-0.113286
-0.116818
-0.0994836
-0.122197
-0.133468
-0.127251
-0.0851464
-0.0858529
-0.0840135
-0.0848891
-0.0857893
-0.0440244
-0.0819651
-0.0548433
-0.0850454
-0.104238
-0.102978
-0.121861
-0.120326
-0.101399
-0.110676
-0.0990212
-0.124172
-0.0870226
-0.0820045
-0.106018
-0.120693
-0.100926
-0.109852
-0.078245
-0.0779083
-0.0766443
-0.0775391
-0.0470227
-0.0808111
-0.0788632
-0.108327
-0.0849791
-0.0628056
-0.0755133
-0.0690996
-0.0863365
-0.0814004
-0.0805388
-0.0814272
-0.0666201
-0.0802227
-0.0814621
-0.0836727
-0.0644447
-0.0817687
-0.0943346
-0.0741247
-0.0707498
-0.0797761
-0.0686586
-0.115113
-0.0687867
-0.0816653
-0.0688134
-0.086502
-0.0963928
-0.103083
-0.0891411
-0.077397
-0.0697897
-0.0828368
-0.0758904
-0.0821504
-0.0777862
-0.0694417
-0.0738458
-0.0810815
-0.0541321
-0.090514
-0.061881
-0.0640688
-0.0676911
-0.0665731
-0.0682485
-0.0715304
-0.0648675
-0.0704753
-0.0596866
-0.0245381
-0.033963
-0.0514115
-0.0775802
-0.067815
-0.0631213
-0.0569711
-0.0582851
-0.0517128
-0.060977
-0.0396569
-0.0607409
-0.0405481
-0.0711736
-0.0621271
-0.0604064
-0.0600466
-0.0567305
-0.0660377
-0.0582237
-0.0607974
-0.0622976
-0.0655262
-0.105342
-0.0738009
-0.0712331
-0.0673845
-0.0630113
-0.061813
-0.0579682
-0.0610022
-0.0492058
-0.0543817
-0.0491139
-0.0485908
-0.049407
-0.0434267
-0.0383025
-0.0446721
-0.0525341
-0.058428
-0.0610557
-0.0610182
-0.0763721
-0.0619638
-0.0481894
-0.0362077
-0.0415618
-0.039627
-0.0461877
-0.0392805
-0.037165
-0.0318238
-0.0320257
-0.0283336
-0.0356687
-0.0251509
-0.0405502
-0.0274687
-0.0206367
-0.063422
-0.0544756
-0.0523628
-0.0180243
-0.0402426
-0.0439152
-0.0229488
-0.0476426
-0.0511159
-0.0593911
-0.056561
-0.0517906
-0.0539524
-0.0515353
-0.0485646
-0.0475453
-0.0462516
-0.0429116
-0.0320427
-0.0349665
-0.0263014
-0.0313957
-0.0177633
0.0199284
0.0100711
-0.0122286
-0.0844998
-0.05672
-0.0189122
-0.0115601
-0.0376163
-0.00531229
-0.0301421
-0.00697702
-0.0226339
-0.0240422
-0.00278676
0.000113687
0.00448595
0.00484433
0.00316792
-0.0090146
-0.00683203
-0.0131469
-0.0153572
-0.00809126
-0.130538
-0.123212
-0.100333
-0.0509838
-0.0441657
-0.071378
-0.0773574
-0.0277468
-0.0894015
-0.0211984
-0.0803375
-0.0327996
-0.0448258
-0.0566749
-0.0622431
-0.0527783
-0.0553742
-0.0436731
-0.0234707
-0.0292651
-0.00870225
-0.0143372
-0.00253829
331.268
-119.47
466.227
607.163
70.1685
-222.229
-316.911
505.738
852.725
789.265
1315.37
1253.55
1545.6
1501.04
1507.53
1494.37
1753.89
1640.24
1626.43
1590.44
2311.34
2383.17
2270.16
2176.64
1331.88
1761.76
2066.02
2083.22
629.205
826.236
956.968
772.188
109.168
185.265
199.79
143.859
14.7082
39.6781
50.6658
77.9474
4.60785
8.69067
9.87003
25.87
0.43956
1.40822
0.632557
1.05512
-0.21037
-0.115004
-0.179629
-0.163097
-0.41119
-0.356188
-0.340213
-0.287797
-0.47988
-0.435979
-0.424701
-0.400052
-0.476368
-0.425407
-0.432825
-0.420885
-0.489834
-0.49131
-0.501586
-0.436851
-0.496823
-0.432377
-0.442363
-0.436739
-0.433726
-0.386799
-0.441316
-0.409713
-0.449078
-0.403875
-0.418216
-0.433708
-0.423258
-0.429951
-0.404714
-0.357919
-0.327891
-0.352897
-0.35062
-0.384266
-0.393405
-0.399008
-0.391151
-0.412242
-0.285198
-0.313878
-0.322676
-0.317783
-0.323551
-0.30092
-0.297148
-0.321928
-0.255702
-0.287227
-0.283753
-0.270566
-0.284873
-0.231019
-0.274159
-0.251712
-0.197915
-0.238558
-0.220825
-0.22504
-0.207265
-0.191819
-0.195199
-0.209616
-0.197971
-0.188087
-0.176637
-0.159992
-0.140553
-0.167715
-0.156025
-0.159914
-0.155695
-0.134371
-0.139116
-0.136214
-0.124249
-0.120466
-0.12823
-0.12498
-0.104513
-0.10582
-0.0931152
-0.100117
-0.0714285
-0.0935166
-0.0813924
-0.0910701
-0.0837531
-0.070503
-0.0703869
-0.0655559
-0.0473055
-0.0568023
-0.0534981
-0.053588
-0.0453392
-0.0474804
-0.0468562
-0.0408194
-0.042237
-0.0275543
-0.0342519
-0.0301394
-0.0349131
-0.0269098
-0.02714
-0.020628
-0.0132819
-0.00850604
-0.0118885
-0.0119194
-0.013705
-0.00126902
-0.0162875
0.00481157
379.947
519.998
1514.14
2238.06
2295.99
2305.5
1847.68
1932.84
2198.84
1966.37
2184.49
2118.67
1986.89
1970.28
1356
584.658
205.909
149.173
149.798
610.96
1296.77
1600.84
1412.99
1330.14
1721.4
1954.94
2123.33
2499.17
1967.4
2151.3
2022.9
1434.21
1076.18
523.219
181.165
92.5062
90.3413
104.203
1046.77
1447.58
1439.1
1610.35
923.593
1488.96
1608.91
1889.05
2120.38
2151.28
1719
751.667
408.051
255.437
164.275
63.5867
52.5184
57.0892
80.5119
1449.41
1572.21
1845.92
1107.3
1232.17
1372.11
1494.74
2006.55
2237.36
1637.08
561.891
155.766
104.924
98.3333
105.747
104.003
90.913
68.608
72.6333
1673.82
1920.41
2129.38
1614.41
1940.31
2217.32
1877.32
2202.87
2129.8
1055.02
283.657
62.1664
37.5025
32.5255
42.6197
52.7919
63.6164
56.6406
53.6526
2293.21
1783.31
1958.68
1627.69
1754.93
2116.75
2061.25
2315.78
1841.77
626.142
102.999
20.9061
13.7482
13.6937
19.3969
23.1214
42.6154
47.0054
40.5178
1563.45
671.005
531.193
474.16
862.576
1938.22
2073.92
1686.11
428.319
68.768
16.0767
7.45125
7.81508
8.27045
15.0563
13.8122
22.4442
29.7627
29.2478
467.344
257.914
46.3802
52.7521
254.802
1271.92
1207.57
660.736
134.479
41.8607
17.8367
7.89553
5.24401
5.0116
3.73549
10.6275
12.2432
19.204
19.17
200.201
83.0682
10.9374
6.82434
65.2617
705.31
539.752
196.393
41.3967
12.547
6.17198
2.8246
2.82043
2.98199
1.68687
0.675626
2.64252
8.65871
11.2417
22.4783
2.40413
1.52007
1.41888
0.938153
57.4635
69.3277
45.7152
19.3152
2.38529
1.9442
0.713727
0.963439
0.140533
-1.87084
-4.36442
-2.45065
1.86385
5.13326
2.60143
0.741524
0.619955
0.82756
1.15512
0.834059
1.34055
1.13419
1.26641
-1.16702
0.365754
-0.652745
-1.40644
-1.25745
-2.96458
-5.51162
-5.62525
-2.86915
0.874325
0.172965
0.0760358
0.278817
0.0521563
0.257038
0.596898
0.541983
-0.264023
-1.01543
-0.231202
-0.197674
-0.817237
-1.75988
-1.81785
-3.31024
-7.31901
-8.86148
-7.52888
-1.87728
-0.137951
-0.0786423
-0.0384982
-0.152705
-0.0822708
-0.549979
-0.770047
-1.21243
-0.434181
1.36709
-0.570351
-0.889927
-0.875124
-1.77773
-4.69876
-8.87966
-10.1119
-8.61035
-1.47463
-0.232542
-0.142189
-0.131648
-0.265413
-0.37417
-0.721503
-1.18017
-1.38347
-1.52851
-2.0975
-0.183957
1.00344
1.33241
-0.128425
-5.73736
-8.85224
-10.4545
-7.12413
-2.59952
-0.379738
-0.354236
-0.399332
-0.502383
-0.645636
-0.840285
-1.04066
-2.19361
-2.4908
-1.23613
0.887889
1.10717
1.99657
-0.43305
-5.95517
-8.18444
-9.59984
-6.41598
-6.57076
-0.371991
-0.385371
-0.508846
-0.525185
-0.550923
-0.800445
-1.78598
-2.22058
-1.73902
-1.84442
-0.861696
0.685624
0.395711
-2.56124
-5.10652
-6.23028
-7.33479
-4.82998
-2.58928
-0.494037
-0.526118
-0.399713
-0.480142
-0.901063
-0.989557
-1.66095
-1.41973
-1.37439
-2.08875
-1.97298
-3.27021
-2.03464
-3.17251
-4.53943
-3.62393
-3.39889
-0.283187
1.44007
-0.41396
-0.332729
-0.52888
-0.79524
-0.663587
-0.976
-1.05373
-1.35289
-1.54925
-2.52972
-3.03413
-1.73165
-2.1041
-2.6159
-3.00163
-2.97096
-1.26554
1.48138
2.59278
-0.478158
-0.477354
-0.604885
-0.470837
-0.72941
-1.05656
-1.15334
-1.28108
-1.27641
-2.50885
-2.38211
-2.52365
-2.38913
-1.41061
-1.48415
-1.75246
-0.472359
1.53507
2.53924
-0.459856
-0.42483
-0.7134
-0.625642
-0.757102
-0.755606
-0.921643
-0.93239
-1.50753
-1.99885
-1.05393
-1.66169
-1.72764
-1.55866
-0.906996
-0.0759095
0.1109
1.10993
1.59398
-0.564895
-0.352952
-0.556313
-0.461482
-0.601616
-0.648329
-0.837399
-1.21168
-0.959249
-1.20808
-1.20241
-1.1211
-1.00554
-0.869956
-0.505851
0.548534
0.705951
1.40718
1.57971
-0.360281
-0.422498
-0.488738
-0.520016
-0.586247
-0.526335
-0.708924
-1.0296
-0.615872
-0.630893
-1.19729
-1.25989
-0.358474
-0.51647
-0.19821
0.197249
0.750575
1.22197
1.41217
-0.402262
-0.363001
-0.459709
-0.411006
-0.559468
-0.507235
-0.643827
-0.409216
-0.498039
-0.485949
-0.404962
-0.590357
-0.403322
-0.526628
0.00802405
0.780121
0.830339
1.19833
1.29312
-0.362792
-0.415499
-0.420792
-0.361958
-0.43659
-0.454014
-0.518867
-0.506922
-0.430196
-0.562513
-0.121015
-0.0516901
-0.362346
0.0570211
0.426909
0.469292
0.809371
1.06909
1.19007
-0.327317
-0.327432
-0.333119
-0.383127
-0.399035
-0.353341
-0.433765
-0.240233
-0.39023
-0.335478
-0.288457
-0.0852013
-0.0807032
0.280085
0.284411
0.652761
0.732754
1.02353
1.11488
-0.258217
-0.298798
-0.301933
-0.292417
-0.330212
-0.293908
-0.384733
-0.241244
-0.328509
-0.165845
-0.170026
-0.00125736
-0.0535969
0.13831
0.460121
0.643765
0.899419
0.898617
0.970073
-0.270442
-0.229448
-0.261513
-0.256887
-0.275476
-0.236328
-0.389022
0.0339819
-0.401908
-0.0847853
-0.161679
0.0784946
0.0795703
0.250811
0.471276
0.555882
0.733111
0.844488
0.876394
-0.225419
-0.226316
-0.212101
-0.204229
-0.24337
-0.180869
-0.297281
-0.094726
-0.258565
0.145461
-0.229181
0.109962
0.122459
0.233672
0.580636
0.411108
0.680377
0.764907
0.763386
-0.206113
-0.190472
-0.197203
-0.162368
-0.204524
-0.116249
-0.218658
-0.125143
-0.24247
0.0723571
-0.0746162
0.316663
0.0496432
0.289483
0.428757
0.561694
0.730773
0.67964
0.742861
-0.196846
-0.169587
-0.16713
-0.136497
-0.138607
-0.10456
-0.141631
-0.093745
-0.150683
-0.0833794
-0.0605455
0.191996
0.346279
0.252334
0.495674
0.34292
0.585833
0.583039
0.641075
-0.154979
-0.147354
-0.149175
-0.112727
-0.114581
0.036945
-0.176158
-0.0775333
-0.106284
-0.0309144
-0.0663394
-0.0436999
0.208967
0.372785
0.388072
0.592262
0.70375
0.731738
0.60542
-0.138546
-0.133933
-0.127043
-0.116661
-0.0921747
-0.0628288
0.0366065
-0.153805
-0.0578942
-0.0461544
0.0121501
0.0449298
-0.0066275
0.0655135
0.136957
0.155366
0.172416
0.334662
0.561133
-0.106215
-0.104195
-0.10409
-0.0805815
-0.112088
0.0206288
-0.0253408
0.0574553
-0.110185
-0.0315574
-0.0166341
0.0527957
0.121645
0.1895
0.236001
0.275915
0.304041
0.246678
0.194057
-0.100804
-0.0871356
-0.106067
-0.0234249
-0.0721212
-0.0687403
0.0703484
-0.0543081
0.131429
-0.0750953
0.0339333
0.0387576
0.0786693
0.117295
0.16092
0.185527
0.227956
0.247124
0.279062
-0.0833407
-0.0756774
-0.0714357
-0.063576
-0.0352506
-0.0131163
-0.0238603
0.0722676
0.0231514
0.0607546
-0.054066
0.0343294
0.0810608
0.117082
0.155452
0.173848
0.200404
0.204761
0.210385
-0.0634106
-0.0605047
-0.0515672
-0.039556
0.00278466
-0.0452472
0.0611241
-0.0421725
0.0629668
0.056013
0.114082
0.0627767
0.0969033
0.101911
0.131439
0.141039
0.162436
0.168442
0.176726
-0.0491735
-0.0489936
-0.0345442
-0.0440487
-0.0021195
0.00743259
-0.026112
0.0396789
0.0497374
0.0101433
0.0174892
-0.0266503
0.0598959
0.0747427
0.106844
0.117765
0.13477
0.138235
0.144628
-0.0408623
-0.0372271
-0.0185529
-0.0241722
-0.00692131
-0.005726
0.0363561
0.0146023
0.0265311
0.0855185
0.0943811
0.054576
0.0719024
0.0650456
0.0813172
0.0824525
0.0927007
0.09515
0.0979795
-0.0264667
-0.0278935
-0.0158545
-0.0154259
-0.0183238
0.0252108
0.000158558
0.0448189
0.00156587
0.0108935
0.02689
0.0389573
0.0458352
0.0555193
0.0700982
0.0735956
0.0846063
0.0847376
0.0891921
-0.0231643
-0.0206789
0.000360751
-0.0079993
0.00199345
-0.0176375
0.0294348
0.0122865
0.0346732
0.0454737
0.0431296
0.0380147
0.017444
0.0187165
0.0160769
0.0122979
0.013235
0.0112766
0.0120009
-0.00486735
-0.0167253
-0.00431803
-0.0025118
-0.0184539
0.00478723
-0.0181018
0.0237508
-0.0112305
0.00401126
0.0218191
0.0219941
0.0271795
0.0404157
0.0490306
0.0541105
0.059479
0.0608906
0.0628815
-0.0158555
0.00993953
-0.0171819
0.0107027
0.0106713
0.0119803
0.0113269
0.00837537
0.0780053
0.0448218
0.0383805
-0.0178149
-0.0335928
-0.0617824
-0.0784409
-0.091877
-0.100896
-0.105946
-0.107832
)
;

boundaryField
{
    leftWall
    {
        type            zeroGradient;
    }
    rightWall
    {
        type            zeroGradient;
    }
    lowerWall
    {
        type            zeroGradient;
    }
    atmosphere
    {
        type            totalPressure;
        rho             rho;
        psi             none;
        gamma           1;
        p0              uniform 0;
        value           nonuniform List<scalar> 
46
(
-0.0479621
-0.0494329
-0.0499258
-0.0597898
-0.0429432
-0.0378275
-0.0350221
-0.0250627
-0.0367119
-0.018494
-0.0311854
-0.0196267
-0.0246039
-0.0210374
-0.0213918
-0.0149726
-0.0129744
-0.00828276
-0.00541906
-0.0046326
-0.00218533
-0.00262346
-0.000131141
-0.000501156
0
-4.92998e-05
0
0
0
0
0
0
0
0
0
0
0
0
0
0
0
0
0
0
0
0
)
;
    }
    defaultFaces
    {
        type            empty;
    }
}


// ************************************************************************* //
