/*--------------------------------*- C++ -*----------------------------------*\
| =========                 |                                                 |
| \\      /  F ield         | foam-extend: Open Source CFD                    |
|  \\    /   O peration     | Version:     4.1                                |
|   \\  /    A nd           | Web:         http://www.foam-extend.org         |
|    \\/     M anipulation  |                                                 |
\*---------------------------------------------------------------------------*/
FoamFile
{
    version     2.0;
    format      ascii;
    class       surfaceScalarField;
    location    "0.35";
    object      phi;
}
// * * * * * * * * * * * * * * * * * * * * * * * * * * * * * * * * * * * * * //

dimensions      [0 3 -1 0 0 0 0];

internalField   nonuniform List<scalar> 
4432
(
1.45287e-06
-1.45287e-06
4.42858e-06
-2.97571e-06
8.96353e-06
-4.53495e-06
1.55801e-05
-6.61652e-06
2.40037e-05
-8.42367e-06
3.30685e-05
-9.06475e-06
3.74949e-05
-4.42639e-06
5.13386e-05
-1.38437e-05
5.81379e-05
-6.79933e-06
9.06043e-05
-3.24664e-05
8.87187e-05
1.88556e-06
9.21225e-05
-3.4038e-06
9.31638e-05
-1.04129e-06
9.46097e-05
-1.4459e-06
6.16159e-05
3.29938e-05
6.46021e-05
-2.98627e-06
5.76905e-05
6.91165e-06
5.04479e-05
7.24256e-06
4.77441e-05
2.7038e-06
7.65673e-05
-2.88232e-05
7.02873e-05
6.28005e-06
-6.05746e-06
7.63447e-05
-6.05746e-06
1.60179e-06
-3.05466e-06
4.51038e-06
-5.8843e-06
8.87098e-06
-8.89555e-06
1.54057e-05
-1.31512e-05
2.41812e-05
-1.71992e-05
3.29957e-05
-1.78793e-05
3.7542e-05
-8.97261e-06
5.24123e-05
-2.87141e-05
5.85423e-05
-1.29293e-05
8.73907e-05
-6.13148e-05
8.84646e-05
8.1167e-07
9.20396e-05
-6.97882e-06
9.64119e-05
-5.41353e-06
9.62962e-05
-1.3302e-06
0.000100267
2.90231e-05
6.11168e-05
3.61638e-05
5.8593e-05
9.43551e-06
8.99605e-05
-2.4125e-05
8.30001e-05
9.66418e-06
7.946e-05
-2.52831e-05
7.56924e-05
1.00477e-05
6.6535e-05
8.5502e-05
6.04776e-05
1.45553e-06
-4.5102e-06
4.37714e-06
-8.8059e-06
8.50644e-06
-1.30249e-05
1.47709e-05
-1.94157e-05
2.30525e-05
-2.54807e-05
3.25504e-05
-2.73772e-05
3.9656e-05
-1.60783e-05
5.15706e-05
-4.06286e-05
5.52195e-05
-1.65782e-05
4.96737e-05
-5.57689e-05
8.19167e-05
-3.14313e-05
8.25388e-05
-7.60097e-06
8.24723e-05
-5.34701e-06
5.02392e-05
3.09029e-05
5.73319e-05
2.19304e-05
6.2405e-05
3.10906e-05
5.71114e-05
1.47291e-05
4.65495e-05
-1.3563e-05
6.8309e-05
-1.20954e-05
4.20292e-05
9.96772e-07
4.10193e-05
1.10576e-05
2.95108e-05
9.70105e-05
8.99884e-05
1.98767e-06
-6.49787e-06
4.69571e-06
-1.15139e-05
8.08172e-06
-1.64109e-05
1.41934e-05
-2.55274e-05
2.40461e-05
-3.53334e-05
3.39644e-05
-3.72954e-05
4.10372e-05
-2.31511e-05
5.0248e-05
-4.98395e-05
5.00606e-05
-1.63908e-05
4.62576e-05
-5.19659e-05
4.171e-05
-2.68838e-05
7.87342e-05
-4.46251e-05
5.11257e-05
2.22615e-05
9.73814e-05
-1.53528e-05
0.000101593
1.77187e-05
0.000104149
2.85343e-05
0.000100325
1.85539e-05
7.7845e-05
8.91667e-06
5.42823e-05
1.14673e-05
1.31259e-05
4.21533e-05
4.17927e-06
2.00042e-05
2.00448e-05
8.1145e-05
0.000110033
1.53048e-06
-8.02835e-06
4.14599e-06
-1.41294e-05
7.29501e-06
-1.95599e-05
1.3558e-05
-3.17904e-05
2.46385e-05
-4.64138e-05
3.28994e-05
-4.55564e-05
3.64444e-05
-2.66961e-05
4.64783e-05
-5.98734e-05
4.55198e-05
-1.54323e-05
4.46323e-05
-5.10784e-05
8.06054e-05
-6.28569e-05
4.9283e-05
-1.33028e-05
8.89555e-05
-1.74109e-05
0.000101161
-2.7558e-05
9.73798e-05
2.14994e-05
8.87559e-05
3.71583e-05
8.59111e-05
2.13987e-05
7.85575e-05
1.62702e-05
6.04545e-05
2.95704e-05
2.9168e-05
7.34398e-05
4.67067e-06
4.45015e-05
1.31677e-05
7.2648e-05
0.000123201
2.31587e-06
-1.03442e-05
4.32147e-06
-1.6135e-05
6.85062e-06
-2.2089e-05
1.34183e-05
-3.83581e-05
2.3014e-05
-5.60095e-05
2.9936e-05
-5.24784e-05
6.48084e-05
-6.15685e-05
4.51423e-05
-4.02074e-05
8.1152e-05
-5.1442e-05
8.35853e-05
-5.35117e-05
8.4862e-05
-6.41336e-05
8.64938e-05
-1.49346e-05
9.02093e-05
-2.11263e-05
6.4065e-05
-1.41366e-06
0.00011233
-2.67656e-05
9.48744e-05
5.46138e-05
9.36688e-05
2.26043e-05
8.77267e-05
2.22123e-05
7.80776e-05
3.92195e-05
6.55218e-05
8.59956e-05
3.62798e-05
7.37435e-05
1.42246e-05
9.47031e-05
0.000137425
1.56204e-06
-1.19063e-05
3.45455e-06
-1.80275e-05
6.31902e-06
-2.49535e-05
1.38653e-05
-4.59044e-05
2.20463e-05
-6.41904e-05
2.68435e-05
-5.72755e-05
3.44558e-05
-6.91807e-05
4.90514e-05
-5.48031e-05
7.88732e-05
-8.12637e-05
8.32642e-05
-5.79027e-05
5.22429e-05
-3.31122e-05
9.51619e-05
-5.78536e-05
5.72447e-05
1.67908e-05
6.85308e-05
-1.26998e-05
7.18044e-05
-3.00392e-05
0.000102928
2.34899e-05
8.93493e-05
3.61833e-05
8.63743e-05
2.51873e-05
9.10199e-05
3.45739e-05
8.54355e-05
9.15799e-05
6.82389e-05
9.09402e-05
4.69907e-05
0.000115951
0.000184416
2.54498e-06
-1.44512e-05
3.22571e-06
-1.87083e-05
6.56614e-06
-2.82939e-05
1.42197e-05
-5.3558e-05
2.12856e-05
-7.12563e-05
2.76961e-05
-6.36861e-05
6.09454e-05
-0.00010243
7.90747e-05
-7.29323e-05
8.18958e-05
-8.40848e-05
8.84044e-05
-6.44114e-05
9.62102e-05
-4.0918e-05
5.88654e-05
-2.05088e-05
9.32969e-05
-1.76407e-05
0.000112052
-3.14547e-05
6.72412e-05
1.47714e-05
5.0213e-05
4.05182e-05
8.11843e-05
5.21204e-06
7.63095e-05
3.0062e-05
4.48342e-05
6.60492e-05
8.87218e-05
4.76924e-05
8.40814e-05
9.55806e-05
5.7953e-05
0.00014208
0.000242369
-0.000174076
0.000174076
-0.000241615
6.75397e-05
-0.000215059
-2.65568e-05
-0.000178859
-3.61996e-05
-0.00016091
-1.7949e-05
-0.000138335
-2.2575e-05
-0.000111966
-2.63688e-05
-5.16214e-05
-6.03448e-05
-4.36126e-05
-8.00879e-06
-6.45849e-05
2.09723e-05
-4.05726e-05
-2.40123e-05
-5.30794e-05
1.25067e-05
1.8742e-05
-7.18214e-05
0.000116291
-9.75491e-05
0.000183212
-6.69211e-05
0.000134273
4.89397e-05
0.000145788
-1.15153e-05
0.000132218
1.35702e-05
0.000132218
-0.000117893
0.000291969
-0.000136529
8.61751e-05
-9.73809e-05
-6.57045e-05
-8.80499e-05
-4.55306e-05
-7.48441e-05
-3.11547e-05
-2.75397e-05
-6.98794e-05
3.54761e-05
-8.93848e-05
3.37716e-05
-5.86402e-05
-7.53333e-06
3.32961e-05
4.65803e-06
8.78093e-06
3.73552e-05
-5.67094e-05
7.05271e-05
-2.06652e-05
0.000111029
-0.000112323
0.000162221
-0.000148742
0.000110551
-1.52506e-05
0.000137385
2.21061e-05
0.000137804
-1.19351e-05
0.000126046
2.53284e-05
0.000258264
-5.0877e-05
0.000342846
-6.23074e-05
9.76055e-05
-4.1761e-05
-8.62508e-05
-8.40188e-05
-3.27291e-06
-4.17773e-05
-7.33961e-05
-7.21825e-06
-0.000104439
5.03678e-05
-0.000146971
1.96699e-05
-2.79422e-05
-1.74674e-05
7.04333e-05
3.73513e-05
-4.60378e-05
6.55946e-05
-8.49527e-05
0.000120101
-7.51718e-05
0.000139572
-0.000131793
9.66688e-05
-0.000105839
0.000108669
-2.72505e-05
0.000125699
5.07613e-06
0.00012215
-8.38622e-06
0.000104174
4.33044e-05
0.000362438
-1.01209e-05
0.000352967
1.81239e-05
6.93607e-05
4.16352e-05
-0.000109762
2.1154e-05
1.72082e-05
4.00729e-06
-5.62494e-05
1.82344e-05
-0.000118666
1.00601e-05
-0.000138797
-2.88268e-05
1.09448e-05
-1.7283e-05
5.88895e-05
5.73198e-05
-0.000120641
0.000147026
-0.000174659
0.000154313
-8.2458e-05
0.00015759
-0.000135071
0.000101152
-4.94015e-05
0.000112052
-3.81505e-05
0.000121444
-4.31525e-06
0.000116859
-3.80154e-06
9.60066e-05
6.4157e-05
0.000458444
6.47233e-05
0.000288243
9.28245e-05
4.12596e-05
4.45416e-05
-6.14791e-05
6.55553e-05
-3.80559e-06
5.98317e-05
-5.05258e-05
5.96669e-05
-0.000118501
3.04532e-05
-0.000109583
7.90011e-06
3.34979e-05
8.78137e-05
-2.10241e-05
0.000139925
-0.000172752
9.36211e-05
-0.000128355
9.59541e-05
-8.47911e-05
9.78782e-05
-0.000136995
0.000109159
-6.06824e-05
0.000114455
-4.34461e-05
0.000121698
-1.15586e-05
0.000120093
-2.19628e-06
9.41444e-05
9.01054e-05
0.000552589
7.5114e-05
0.000213129
7.30808e-05
4.32928e-05
4.35525e-05
-3.19507e-05
5.25646e-05
-1.28177e-05
9.11396e-05
-8.91008e-05
5.17809e-05
-7.91421e-05
6.5828e-06
-6.43851e-05
2.93954e-05
1.06853e-05
0.000176289
-0.000167918
0.000103517
-9.99797e-05
0.000107609
-0.000132448
0.000107081
-8.42626e-05
0.000105243
-0.000135157
0.00011204
-6.74794e-05
0.000114679
-4.60852e-05
0.000118206
-1.50856e-05
0.00011823
-2.22001e-06
9.47419e-05
0.000113593
0.00064733
3.22576e-05
0.000180872
2.56532e-05
4.98972e-05
3.32e-05
-3.94976e-05
0.000100743
-8.03609e-05
5.61149e-05
-4.44725e-05
5.47052e-05
-7.77324e-05
6.74256e-05
-7.71055e-05
0.000111022
-3.29114e-05
0.000105627
-0.000162522
0.000111526
-0.000105879
0.000113861
-0.000134782
0.000114629
-8.50312e-05
0.000110044
-0.000130571
0.000110032
-6.74677e-05
0.000110307
-4.63606e-05
0.00011225
-1.70278e-05
0.000108235
1.7943e-06
8.47102e-05
0.000137118
0.000732041
1.58142e-06
0.00017929
1.25344e-05
3.89442e-05
6.11771e-05
-8.81403e-05
8.71401e-05
-0.000106324
9.52198e-05
-5.25522e-05
9.41257e-05
-7.66383e-05
5.23122e-05
-3.52919e-05
0.000122389
-0.000102988
0.000110838
-0.000150971
0.000120883
-0.000115924
0.00012459
-0.000138489
0.000120519
-8.09599e-05
0.000108852
-0.000118905
0.000105329
-6.39445e-05
0.000106408
-4.74392e-05
0.000110553
-2.11736e-05
0.000104971
7.37685e-06
7.73056e-05
0.000164783
0.000809346
6.8347e-06
-2.1286e-05
1.66174e-05
-2.8491e-05
3.11863e-05
-4.28628e-05
6.0344e-05
-8.27157e-05
7.84611e-05
-8.93735e-05
0.000101858
-8.70829e-05
0.000130231
-0.000130803
0.000175659
-0.00011836
0.000194902
-0.000103328
0.000201091
-7.06004e-05
0.000211395
-5.12218e-05
0.000207677
-1.67912e-05
0.00021213
-2.20933e-05
0.000175253
5.42242e-06
0.000184449
5.57516e-06
0.000229209
-4.242e-06
0.000207135
2.72864e-05
0.000204562
3.26346e-05
0.000205524
6.50878e-05
0.000188082
6.51338e-05
0.000226204
5.74585e-05
0.000216754
0.00015153
0.000163142
0.000295982
-1.69299e-06
-1.9593e-05
1.62355e-05
-4.64195e-05
3.1434e-05
-5.80613e-05
4.89217e-05
-0.000100203
4.27502e-05
-8.32019e-05
6.06456e-05
-0.000104978
7.64081e-05
-0.000146565
8.72814e-05
-0.000129234
9.73442e-05
-0.000113391
0.00010763
-8.08865e-05
0.000124729
-6.83203e-05
0.000200798
-9.28606e-05
0.000212294
-3.35888e-05
0.000235619
-1.79025e-05
0.00025481
-1.36162e-05
0.000231597
1.89714e-05
0.000227946
3.09373e-05
0.000221737
3.88437e-05
0.000209713
7.71116e-05
0.000229697
4.515e-05
0.000160953
0.000126202
0.000190814
0.000121669
0.000128754
0.000225202
1.2388e-05
-3.1981e-05
6.1886e-06
-4.022e-05
2.95105e-05
-8.13832e-05
3.06606e-05
-0.000101354
3.83094e-05
-9.08507e-05
4.94256e-05
-0.000116095
4.95131e-05
-0.000146653
2.27597e-05
-0.00010248
2.71978e-05
-0.000117829
4.17786e-05
-9.54673e-05
0.000106262
-0.000132804
0.000100526
-8.71248e-05
0.000184134
-0.000117196
0.000225807
-5.95763e-05
0.000222214
-1.00226e-05
0.000187824
5.33609e-05
0.000164827
5.39346e-05
0.000148459
5.52117e-05
0.000169768
5.58028e-05
0.00011729
9.7628e-05
0.000165664
7.78276e-05
0.00022496
6.23728e-05
0.000122307
0.000231406
8.15029e-06
-4.01313e-05
3.7388e-05
-6.94578e-05
1.88937e-05
-6.28889e-05
4.15451e-05
-0.000124005
2.63019e-05
-7.56075e-05
4.81542e-05
-0.000137947
4.45675e-05
-0.000143066
1.77748e-05
-7.56877e-05
4.24745e-05
-0.000142529
6.46036e-05
-0.000117596
6.27503e-05
-0.000130951
0.000130515
-0.00015489
8.24728e-05
-6.91535e-05
0.000127497
-0.000104601
0.000150438
-3.29636e-05
0.000226068
-2.22689e-05
0.000226065
5.39377e-05
0.00020134
7.99368e-05
0.00011134
0.000145803
0.000136411
7.25564e-05
0.00016283
5.14093e-05
0.000184381
4.08213e-05
1.76809e-05
0.000289007
7.7822e-06
-4.79135e-05
3.94096e-05
-0.000101085
6.12861e-05
-8.47654e-05
4.11898e-05
-0.000103909
9.38321e-05
-0.00012825
7.96819e-05
-0.000123797
3.69798e-05
-0.000100364
8.31877e-05
-0.000121896
8.85058e-05
-0.000147847
0.000111327
-0.000140418
9.03947e-05
-0.000110018
8.83501e-05
-0.000152845
0.000167146
-0.000147949
0.000185648
-0.000123103
0.000216568
-6.38836e-05
0.000218334
-2.4035e-05
0.000259383
1.28894e-05
0.000264858
7.44611e-05
0.000267742
0.000142919
0.000263867
7.64313e-05
0.000225685
8.95911e-05
0.000209977
5.65296e-05
1.37034e-05
0.000213955
6.31251e-06
-5.4226e-05
1.06937e-05
-0.000105466
1.96468e-05
-9.37185e-05
3.93231e-05
-0.000123585
5.0715e-05
-0.000139642
4.78729e-05
-0.000120955
6.10406e-05
-0.000113532
0.000127904
-0.000188759
0.000108742
-0.000128684
0.000100758
-0.000132434
0.000148523
-0.000157783
0.000153269
-0.000157591
0.00016266
-0.00015734
0.000165014
-0.000125457
0.000171381
-7.02503e-05
0.000199218
-5.18722e-05
0.000156064
5.60431e-05
0.000171071
5.94546e-05
0.000286466
2.7524e-05
0.00026844
9.44573e-05
0.000271144
8.68864e-05
0.000274071
5.36028e-05
3.42961e-05
0.000253478
-1.54139e-05
-3.88121e-05
-1.59488e-05
-0.000104931
1.53348e-05
-0.000125002
5.88008e-05
-0.000167051
7.39609e-05
-0.000154802
6.13897e-05
-0.000108383
6.95672e-05
-0.000121709
0.000117753
-0.000236945
0.000132146
-0.000143077
0.000122957
-0.000123245
0.000139384
-0.00017421
0.000152623
-0.00017083
0.000149183
-0.000153901
0.00010878
-8.50531e-05
8.86431e-05
-5.01136e-05
8.04859e-05
-4.37151e-05
0.000134133
2.39558e-06
0.000216137
-2.25486e-05
0.000225036
1.86251e-05
0.000235154
8.43388e-05
0.000267121
5.49197e-05
0.00028256
3.81638e-05
3.7377e-05
0.000279479
-1.20048e-05
-2.68073e-05
-1.53169e-05
-0.000101619
4.35085e-05
-0.000183827
9.06952e-05
-0.000214238
7.76476e-05
-0.000141754
0.00014252
-0.000173256
0.000151139
-0.000130328
4.20366e-05
-0.000127842
3.38198e-05
-0.00013486
5.98291e-05
-0.000149255
9.84382e-05
-0.000212819
0.00013954
-0.000211932
0.000110514
-0.000124875
1.054e-05
1.49208e-05
1.49498e-05
-5.45233e-05
6.69103e-05
-9.56756e-05
0.000173808
-0.000104502
0.000188344
-3.70849e-05
0.000186953
2.0016e-05
0.00018699
8.43027e-05
0.000133037
0.000108873
0.000142475
2.87251e-05
-2.98746e-05
0.000209727
2.24677e-05
-4.92751e-05
2.31454e-05
-0.000102297
5.26931e-05
-0.000213375
5.63499e-05
-0.000217895
0.000135053
-0.000220457
5.57163e-05
-9.39195e-05
4.12297e-05
-0.000115841
4.4445e-05
-0.000131058
1.00385e-05
-0.000100454
3.79883e-05
-0.000177205
4.81579e-05
-0.000222989
2.59034e-05
-0.000189677
-5.26584e-05
-4.63131e-05
-1.69871e-05
-2.07505e-05
2.81951e-05
-9.97056e-05
5.72913e-05
-0.000124772
9.88225e-05
-0.000146033
0.000134565
-7.28279e-05
8.35922e-05
7.09893e-05
8.61082e-05
8.17868e-05
0.000138966
5.60143e-05
0.000126998
4.06933e-05
-8.83604e-07
9.80071e-05
4.53059e-05
-9.45809e-05
5.66886e-05
-0.00011368
6.07138e-05
-0.0002174
4.50535e-05
-0.000202234
4.31691e-05
-0.000218572
5.65721e-05
-0.000107323
3.87359e-05
-9.80053e-05
-6.36499e-06
-8.59568e-05
-7.94989e-06
-9.88688e-05
-4.62018e-06
-0.000180534
-3.17092e-05
-0.0001959
-7.17914e-05
-0.000149595
-3.0933e-05
-8.71716e-05
5.90521e-06
-5.75887e-05
3.36975e-05
-0.000127498
4.03982e-05
-0.000131472
4.66794e-05
-0.000152315
4.09717e-06
-3.02457e-05
1.93547e-06
7.3151e-05
3.15072e-05
5.22151e-05
4.62014e-05
4.132e-05
4.15229e-05
4.53718e-05
4.3366e-05
-2.72667e-06
2.00131e-05
-0.000114594
3.1681e-05
-0.000125347
4.21512e-05
-0.000227871
1.9332e-05
-0.000179415
2.32809e-05
-0.000222521
-6.96872e-06
-7.70729e-05
-1.94676e-05
-8.55064e-05
-2.46287e-05
-8.07957e-05
-3.5192e-06
-0.000119978
-1.24434e-05
-0.00017161
-3.26686e-05
-0.000175675
-3.999e-05
-0.000142274
-1.18419e-05
-0.00011532
-4.5926e-05
-2.35047e-05
-3.29471e-05
-0.000140477
-1.7102e-05
-0.000147318
-7.51274e-05
-9.42892e-05
-6.1434e-05
-4.39391e-05
-4.63815e-05
5.80985e-05
-2.12129e-05
2.70465e-05
-3.31481e-05
5.32553e-05
-5.50141e-05
6.72378e-05
5.24585e-05
-6.41066e-05
-5.47388e-06
-0.00010912
7.26753e-06
-0.000138089
7.6966e-06
-0.0002283
-1.33e-05
-0.000158418
-4.62266e-05
-0.000189595
-3.45124e-05
-8.87871e-05
-3.81298e-05
-8.1889e-05
-4.02855e-05
-7.86401e-05
-2.17237e-05
-0.00013854
-3.83244e-05
-0.000155009
-5.68685e-05
-0.00015713
-5.88685e-05
-0.000140274
-8.69247e-05
-8.72635e-05
-0.000104161
-6.26872e-06
-8.08218e-05
-0.000163816
-7.6595e-05
-0.000151544
-0.000106824
-6.40599e-05
-0.000120705
-3.00588e-05
-6.84759e-05
5.86977e-06
-6.95751e-05
2.81457e-05
-7.94959e-05
6.31761e-05
-9.3537e-05
8.12788e-05
2.59974e-05
-6.70759e-05
-3.42606e-05
-7.48596e-05
2.48337e-05
-0.000197183
-3.19692e-05
-0.000171497
-4.97828e-06
-0.000185409
-4.92309e-05
-0.000145342
-3.35542e-05
-0.000104464
-2.89529e-05
-8.64904e-05
-2.09556e-05
-8.66374e-05
-1.78078e-05
-0.000141688
-3.21645e-05
-0.000140653
-4.47873e-05
-0.000144508
-0.000107335
-7.77259e-05
-9.7436e-05
-9.71625e-05
-7.48054e-05
-2.88992e-05
-8.81677e-05
-0.000150453
-8.50074e-05
-0.000154705
-0.000103971
-4.50962e-05
-9.65273e-05
-3.75026e-05
-9.56469e-05
4.9894e-06
-9.80768e-05
3.05756e-05
-0.000106043
7.11427e-05
-5.43999e-05
2.96353e-05
1.51311e-05
-4.35337e-05
-5.97546e-06
-6.88841e-05
-2.96275e-05
-0.000173531
2.48554e-06
-0.00020361
-1.64855e-05
-0.000166438
-3.22971e-05
-0.000129531
-2.39493e-05
-0.000112812
4.28824e-06
-0.000114728
3.07078e-05
-0.000113057
-2.08073e-05
-9.01728e-05
-2.75587e-05
-0.000133901
-5.60593e-05
-0.000116007
-8.32817e-05
-5.05036e-05
-6.38597e-05
-0.000116585
-6.37201e-05
-2.90388e-05
-9.91582e-05
-0.000115015
-0.000103777
-0.000150086
-0.000111787
-3.70856e-05
-0.000109407
-3.9883e-05
-0.000107766
3.3479e-06
-0.000109495
3.23056e-05
-9.37311e-05
5.53783e-05
-7.89956e-05
1.48999e-05
-5.54633e-06
-5.83182e-05
-7.38455e-06
-6.14996e-05
-1.44895e-05
-0.000166426
-6.5589e-06
-0.000211541
-1.14337e-05
-0.000161564
-1.58445e-05
-0.00012512
-1.40054e-05
-0.000114651
1.20736e-06
-0.000129941
6.59357e-05
-0.000177785
5.96725e-05
-8.39097e-05
2.75793e-05
-0.000101808
-9.90008e-06
-7.85277e-05
-7.78855e-05
1.74818e-05
-0.000107487
-8.69825e-05
-8.52576e-05
-5.12687e-05
-8.7446e-05
-0.000112827
-0.000152687
-8.4845e-05
-0.000148154
-4.16188e-05
-0.000128669
-5.93684e-05
-0.000112488
-1.28323e-05
-9.31603e-05
1.29775e-05
-6.07549e-05
2.2973e-05
-4.61288e-05
2.73764e-07
-7.13029e-06
-4.45449e-05
-1.41135e-05
-4.73861e-05
-1.62314e-05
-0.000164308
-1.50351e-05
-0.000212737
-1.87036e-05
-0.000157895
-1.12775e-05
-0.000132546
-9.03453e-06
-0.000116894
-1.44962e-05
-0.000124479
5.15425e-05
-0.000243824
8.62162e-05
-0.000118583
6.33212e-05
-7.89129e-05
1.09216e-05
-2.61281e-05
-4.30058e-05
7.14093e-05
-7.86071e-05
-5.13813e-05
-5.05151e-05
-7.93607e-05
-0.000100836
-6.25066e-05
-0.000112859
-7.28218e-05
-0.000116124
-3.83532e-05
-0.000119963
-5.55299e-05
-0.000109441
-2.33542e-05
-9.17265e-05
-4.73697e-06
-6.60517e-05
-2.70184e-06
-3.76065e-05
-2.81714e-05
-1.0369e-05
-3.43677e-05
-1.74647e-05
-2.99215e-05
-7.41926e-06
-0.000174354
-2.48656e-05
-0.000195291
-3.71647e-05
-0.000145596
-1.83505e-05
-0.00015136
-1.96344e-05
-0.00011561
2.60961e-05
-0.00017021
-5.54211e-05
-0.000162307
-4.30409e-05
-0.000130964
-3.13268e-05
-9.0627e-05
-2.6063e-05
-3.13919e-05
1.67688e-05
2.85774e-05
4.45856e-06
-3.9071e-05
-2.68934e-05
-4.80087e-05
-4.53717e-05
-4.40284e-05
-7.76231e-05
-4.05704e-05
-8.2411e-05
-3.35654e-05
-8.69495e-05
-5.09914e-05
-9.13115e-05
-1.89922e-05
-6.01061e-05
-3.59423e-05
-4.99702e-05
-1.28377e-05
-3.50082e-05
-4.31334e-05
-2.11185e-05
-2.42587e-05
4.57914e-05
-7.57129e-05
-1.22385e-05
-0.000116324
-2.42192e-05
-0.00018331
-4.46115e-05
-0.000125204
-1.8141e-05
-0.000177831
-2.60817e-05
-0.00010767
-1.99261e-05
-0.000176365
-4.671e-05
-0.000135523
-5.51942e-05
-0.00012248
-6.1443e-05
-8.43782e-05
-4.19518e-05
-5.08831e-05
1.2209e-05
-2.55834e-05
-9.16022e-06
-1.77018e-05
-3.87167e-05
-1.84523e-05
-4.24068e-05
-4.03382e-05
-5.96239e-05
-2.33534e-05
-6.68374e-05
-2.63518e-05
-9.08243e-05
-2.70044e-05
-5.21593e-05
-5.76571e-05
-5.81597e-05
-2.99419e-05
-5.38873e-05
-1.711e-05
-5.05113e-05
-4.65094e-05
-2.50793e-05
-4.65505e-05
3.39307e-05
-0.000109644
2.75697e-05
-0.000109963
-4.12713e-05
-0.000114469
-2.87701e-05
-0.000137705
-8.55777e-05
-0.000121023
-8.3464e-05
-0.000109783
-8.45849e-05
-0.000175245
-4.31831e-05
-0.000176925
-5.92181e-05
-0.000106445
-5.94288e-05
-8.41674e-05
-2.99887e-05
-8.03232e-05
-4.32137e-05
-1.23583e-05
-5.72379e-05
-3.67753e-06
-5.23314e-05
-2.33587e-05
-4.63143e-05
-4.63553e-05
-3.81426e-05
-3.1525e-05
-4.67893e-05
-1.77051e-05
-4.81366e-05
-2.5657e-05
-8.27182e-05
-2.30754e-05
-8.79169e-05
-2.47432e-05
-5.2137e-05
-5.289e-05
-5.47405e-05
-4.39059e-05
-3.45852e-05
-4.52346e-05
2.35846e-06
-0.000112002
2.79998e-07
-0.000107885
-5.77615e-06
-0.000108413
-3.61645e-05
-0.000107317
-4.52015e-05
-0.000111986
-5.96538e-05
-9.5331e-05
-7.7236e-05
-0.000157662
-0.000111404
-0.000142757
-0.000134607
-8.3241e-05
-0.000146706
-7.2068e-05
-0.000143608
-8.34213e-05
-0.000131198
-2.47685e-05
-7.7385e-05
-5.74904e-05
-5.84392e-05
-4.23045e-05
-7.70159e-05
-2.77786e-05
-7.53848e-05
-3.31562e-05
-5.13976e-05
-4.16924e-05
-5.73677e-05
-1.96868e-05
-5.20557e-05
-2.83874e-05
-4.58898e-05
-3.0909e-05
-7.45908e-05
-2.41889e-05
-7.48109e-05
-4.36858e-05
-3.38268e-05
-7.55692e-05
-7.64977e-06
-0.000104352
-1.04571e-05
-0.000105077
-2.37203e-05
-9.51498e-05
-2.67668e-05
-0.00010427
-4.64063e-05
-9.23471e-05
-7.22598e-06
-0.000134511
-6.53537e-05
-9.95346e-05
-5.85704e-05
-0.000149541
-8.42441e-05
-5.75672e-05
-9.10853e-05
-6.52268e-05
-0.000113635
-6.08712e-05
-7.58931e-05
-6.25106e-05
-9.96767e-05
-3.37068e-05
-8.56995e-05
-5.62817e-05
-8.28614e-05
-3.06167e-05
-7.68356e-05
-3.9182e-05
-8.90217e-05
-2.95063e-05
-5.62933e-05
-5.24152e-05
-5.71199e-05
-2.75608e-05
-5.09943e-05
-3.70345e-05
-3.94671e-05
-3.57162e-05
-4.01895e-05
-4.29635e-05
-2.55373e-05
-4.84789e-05
-5.5494e-06
-9.88031e-05
-1.03847e-05
-0.000100242
-7.76358e-06
-9.7771e-05
-2.2028e-05
-9.0006e-05
-2.37557e-05
-9.06194e-05
-1.19834e-05
-0.000146284
-1.6657e-05
-9.48611e-05
-7.47856e-05
-9.14121e-05
-5.80133e-05
-7.43395e-05
-5.58128e-05
-6.74271e-05
-5.2728e-05
-6.39559e-05
-5.51193e-05
-6.01192e-05
-4.64841e-05
-4.23419e-05
-6.70768e-05
-3.5689e-05
-4.30556e-05
-5.46379e-05
-3.9275e-05
-4.29625e-05
-3.90037e-05
-2.97776e-05
-5.46249e-05
-3.67939e-05
-5.25092e-05
-2.96765e-05
-4.90871e-05
-4.04566e-05
-4.59843e-05
-3.8819e-05
-4.74244e-05
-4.15233e-05
-2.63807e-05
-4.65811e-05
-6.8049e-06
-9.19983e-05
-1.93603e-05
-8.76869e-05
-2.88831e-05
-8.82482e-05
1.19824e-05
-0.000130871
4.04367e-06
-8.26808e-05
-4.36108e-05
-9.86292e-05
-5.17015e-05
-8.67704e-05
-5.44234e-05
-8.86901e-05
-4.17137e-05
-8.70492e-05
-4.05662e-05
-6.85745e-05
-4.40491e-05
-6.04729e-05
-4.96814e-05
-5.44869e-05
-5.58932e-05
-3.613e-05
-5.35189e-05
-3.80633e-05
-3.99468e-05
-6.821e-05
-4.9423e-05
-3.34863e-05
-4.88618e-05
-3.03388e-05
-4.85975e-05
-3.70581e-05
-4.19023e-05
-3.63718e-05
-4.21837e-05
-4.01752e-05
-4.13293e-05
-3.96735e-05
-3.94219e-05
-4.34307e-05
-2.66156e-05
-3.9187e-05
-2.50494e-05
-6.69489e-05
-3.93944e-06
-0.000108797
7.186e-06
-9.93737e-05
-1.48792e-05
-0.000108806
8.72487e-07
-9.84325e-05
-1.49094e-05
-8.28474e-05
-3.26793e-05
-6.90005e-05
-4.17994e-05
-7.95699e-05
-5.76317e-05
-7.12168e-05
-6.31008e-05
-6.31053e-05
-6.37146e-05
-5.9859e-05
-6.35896e-05
-5.46118e-05
-5.73552e-05
-4.23643e-05
-5.33821e-05
-4.20364e-05
-7.72769e-05
-4.43153e-05
-4.16908e-05
-6.90723e-05
-4.00292e-05
-3.20004e-05
-4.20993e-05
-3.4988e-05
-3.97076e-05
-3.87635e-05
-4.92545e-05
-3.06284e-05
-4.98453e-05
-3.90826e-05
-5.0626e-05
-4.265e-05
-3.66093e-05
-4.06323e-05
1.6481e-05
-8.34298e-05
6.98923e-07
-9.30149e-05
-1.32029e-05
-8.54719e-05
-2.56646e-05
-9.63446e-05
-3.49573e-05
-8.91398e-05
-2.59881e-05
-9.18166e-05
-6.5008e-06
-8.84877e-05
-2.36341e-05
-6.24365e-05
-3.96551e-05
-5.51957e-05
-4.71424e-05
-5.56179e-05
-5.28685e-05
-5.41328e-05
-5.43775e-05
-5.31027e-05
-4.59402e-05
-5.08016e-05
-3.56635e-05
-5.2313e-05
-2.9631e-05
-5.03478e-05
-4.93795e-05
-4.93238e-05
-4.65825e-05
-3.47974e-05
-3.33698e-05
-4.82008e-05
-4.12582e-05
-3.08751e-05
-4.33211e-05
-2.85656e-05
-4.16317e-05
-4.0772e-05
-4.27596e-05
-4.15222e-05
-3.30617e-05
-4.63072e-05
-3.18825e-06
-8.02416e-05
-7.54556e-06
-8.86576e-05
-5.22076e-06
-8.77967e-05
-1.53293e-05
-8.6236e-05
-2.01608e-05
-8.43083e-05
-3.23978e-05
-7.95796e-05
-4.21414e-05
-7.8744e-05
-3.24557e-05
-7.21222e-05
-4.54564e-05
-4.2195e-05
-5.98444e-05
-4.12299e-05
-4.93359e-05
-6.46412e-05
-3.72145e-05
-6.52241e-05
-2.63804e-05
-6.16357e-05
-3.4673e-05
-4.40204e-05
-4.53952e-05
-3.96256e-05
-4.86825e-05
-4.60365e-05
-2.5587e-05
-5.78929e-05
-3.94508e-05
-3.4337e-05
-3.99005e-05
-3.04254e-05
-3.91257e-05
-2.93404e-05
-4.14413e-05
-3.84563e-05
-4.23908e-05
-4.05727e-05
-3.45313e-05
-4.09211e-05
-1.36704e-07
-8.01049e-05
-5.4286e-06
-8.33657e-05
-9.82258e-06
-8.34027e-05
-1.47403e-05
-8.13182e-05
-1.92591e-05
-7.97895e-05
-2.14982e-05
-7.73405e-05
-2.54451e-05
-7.47971e-05
-2.79296e-05
-6.96377e-05
-3.235e-05
-3.77745e-05
-3.75735e-05
-3.60064e-05
-4.33716e-05
-5.8843e-05
-5.01088e-05
-5.84869e-05
-5.23193e-05
-5.94252e-05
-3.85433e-05
-5.77964e-05
-4.1621e-05
-3.65479e-05
-3.26994e-05
-5.49581e-05
-5.32585e-05
-3.73338e-05
-3.06621e-05
-5.69335e-05
-3.39091e-05
-2.71783e-05
-3.52787e-05
-2.79709e-05
-3.7528e-05
-3.6207e-05
-4.03631e-05
-3.77375e-05
-2.99122e-05
-4.49821e-05
-3.60848e-06
-7.64964e-05
-7.24319e-06
-7.97309e-05
-9.83597e-06
-8.08099e-05
-1.31207e-05
-7.80335e-05
-1.65739e-05
-7.63362e-05
-2.13419e-05
-7.25726e-05
-2.69109e-05
-6.9228e-05
-2.8443e-05
-6.81056e-05
-3.17642e-05
-3.44532e-05
-3.4786e-05
-3.29845e-05
-3.73206e-05
-5.63084e-05
-4.14149e-05
-5.43925e-05
-4.11172e-05
-5.97228e-05
-4.11428e-05
-5.77707e-05
-4.30986e-05
-3.45922e-05
-4.10183e-05
-5.70384e-05
-4.37498e-05
-3.46023e-05
-5.33901e-05
-4.72931e-05
-3.09735e-05
-4.95949e-05
-2.61587e-05
-3.27858e-05
-3.64089e-05
-2.59567e-05
-4.32886e-05
-3.08578e-05
-3.19625e-05
-4.12383e-05
-1.17607e-06
-7.53203e-05
-2.82685e-06
-7.808e-05
-6.67548e-06
-7.69612e-05
-9.32775e-06
-7.53812e-05
-1.22382e-05
-7.34257e-05
-1.59543e-05
-6.88565e-05
-2.04105e-05
-6.47717e-05
-2.11828e-05
-6.73333e-05
-1.92076e-05
-3.64283e-05
-1.68408e-05
-3.53513e-05
-3.80177e-05
-3.51315e-05
-3.02183e-05
-6.21919e-05
-2.96103e-05
-6.03308e-05
-3.65401e-05
-5.0841e-05
-1.59458e-05
-5.51865e-05
-3.70761e-05
-3.59081e-05
-2.06891e-05
-5.09893e-05
-3.66988e-05
-3.12834e-05
-3.14557e-05
-5.4838e-05
-3.20539e-05
-3.21876e-05
-3.40379e-05
-2.39727e-05
-3.72593e-05
-2.76364e-05
-2.80837e-05
-4.1138e-05
-1.69519e-06
-7.36251e-05
-3.15086e-06
-7.66243e-05
-7.31615e-06
-7.27958e-05
-1.0514e-05
-7.21832e-05
-1.39052e-05
-7.00345e-05
-1.58137e-05
-6.69479e-05
-1.95716e-05
-6.10137e-05
-2.14096e-05
-6.54953e-05
-2.36686e-05
-3.41693e-05
-2.2844e-05
-3.61759e-05
-2.51222e-05
-3.28532e-05
-2.05936e-05
-6.67205e-05
-2.27083e-05
-5.82161e-05
-2.26013e-05
-5.0948e-05
-2.28572e-05
-5.49306e-05
-3.08992e-05
-2.78661e-05
-3.20631e-05
-4.98253e-05
-3.27367e-05
-3.06097e-05
-4.128e-05
-4.62947e-05
-2.85336e-05
-4.49339e-05
-2.72305e-05
-2.52757e-05
-3.44345e-05
-2.04323e-05
-2.26868e-05
-3.98314e-05
-1.06243e-06
-7.25626e-05
-2.11011e-06
-7.55765e-05
-2.38141e-06
-7.25245e-05
-2.91274e-07
-7.42733e-05
3.19484e-06
-7.35205e-05
-1.66154e-05
-4.71377e-05
-3.42274e-05
-4.34017e-05
-2.83707e-05
-7.13521e-05
-2.32298e-05
-3.93102e-05
-2.02297e-05
-3.91759e-05
-1.55848e-05
-3.74981e-05
-2.02961e-05
-6.20093e-05
-2.46545e-05
-5.38577e-05
-2.31184e-05
-5.24841e-05
-3.48001e-05
-4.32489e-05
-1.59899e-05
-4.66762e-05
-2.20416e-05
-4.37735e-05
-2.49243e-05
-2.77269e-05
-3.00909e-05
-4.1128e-05
-2.45072e-05
-5.05175e-05
-3.33174e-05
-1.64654e-05
-3.51714e-05
-1.85782e-05
-2.3118e-05
-3.47401e-05
-1.69082e-06
-7.08717e-05
-3.62468e-06
-7.36425e-05
-5.25373e-06
-7.08953e-05
-8.60032e-06
-7.09267e-05
-1.15576e-05
-7.05632e-05
-1.25395e-05
-4.61557e-05
-1.37546e-05
-4.21866e-05
-1.3413e-05
-7.16937e-05
-1.13822e-05
-4.13411e-05
-1.2142e-05
-3.84161e-05
-1.03333e-05
-3.93069e-05
-1.44306e-05
-5.79121e-05
-1.86314e-05
-4.96568e-05
-1.96532e-05
-5.14624e-05
-1.8192e-05
-4.471e-05
-1.73684e-05
-4.74998e-05
-3.43554e-05
-2.67864e-05
-1.92367e-05
-4.28456e-05
-3.20718e-05
-2.82929e-05
-4.2603e-05
-3.99864e-05
-2.44703e-05
-3.45981e-05
-2.60074e-05
-1.70411e-05
-1.20297e-05
-3.70956e-05
-6.3041e-07
-7.02413e-05
-1.45943e-06
-7.28134e-05
-2.27117e-06
-7.00835e-05
-4.49491e-06
-6.87029e-05
-5.31251e-06
-6.97456e-05
-1.13141e-05
-4.01541e-05
-1.56431e-05
-3.78576e-05
-2.85234e-05
-5.88134e-05
-1.61852e-05
-5.36794e-05
-3.5794e-06
-5.10219e-05
-1.182e-05
-3.10664e-05
-2.02618e-05
-4.94702e-05
-1.87312e-05
-5.11875e-05
-2.18586e-05
-4.83349e-05
-2.13154e-05
-4.52532e-05
-3.1075e-05
-3.77401e-05
-1.7988e-05
-3.98733e-05
-2.10255e-05
-3.9808e-05
-2.35216e-05
-2.57967e-05
-2.94202e-05
-3.40878e-05
-2.44694e-05
-3.95488e-05
-3.12852e-05
-1.02253e-05
-1.03078e-05
-3.30071e-05
-5.11883e-07
-6.97293e-05
-1.22148e-06
-7.21037e-05
-2.48776e-06
-6.88172e-05
-7.11517e-06
-6.40754e-05
-1.65694e-05
-6.02913e-05
-1.75806e-07
-5.65477e-05
-4.1588e-06
-3.38746e-05
-8.53201e-06
-5.44403e-05
-9.99265e-06
-5.22188e-05
-6.78952e-06
-5.42251e-05
-6.59499e-06
-3.12609e-05
-2.49635e-05
-3.11018e-05
-1.83018e-05
-5.78491e-05
-1.76168e-05
-4.902e-05
-1.70414e-05
-4.58286e-05
-1.69425e-05
-3.7839e-05
-1.81615e-05
-3.86542e-05
-2.43084e-05
-3.36611e-05
-1.53379e-05
-3.47672e-05
-2.99707e-05
-1.9455e-05
-4.87828e-05
-2.07367e-05
-2.92028e-05
-2.98054e-05
-7.65922e-06
-3.18514e-05
-2.31705e-07
-6.94975e-05
-1.14201e-06
-7.11933e-05
-7.23928e-07
-6.92352e-05
-4.1764e-06
-6.06228e-05
-3.92671e-06
-6.0541e-05
-1.89696e-06
-5.85774e-05
-2.40238e-06
-3.33692e-05
-2.13265e-05
-3.55162e-05
-1.216e-05
-6.13854e-05
-9.60648e-06
-5.67786e-05
-7.2012e-06
-3.36662e-05
-8.07761e-06
-3.02254e-05
-1.3386e-05
-5.25408e-05
-1.53682e-05
-4.70377e-05
-1.70557e-05
-4.41411e-05
-1.58192e-05
-3.90755e-05
-2.10197e-05
-3.34537e-05
-2.19824e-05
-3.26983e-05
-2.6859e-05
-2.98905e-05
-2.74044e-05
-1.89096e-05
-2.36686e-05
-2.44725e-05
-3.65514e-05
-1.69226e-05
-1.96257e-05
-2.4585e-05
3.10649e-08
-6.95286e-05
-2.61882e-07
-7.09003e-05
1.95435e-06
-7.14513e-05
2.49356e-06
-6.1162e-05
-1.60962e-05
-4.19512e-05
-8.29943e-06
-6.63741e-05
-5.83571e-06
-3.5833e-05
-8.10023e-06
-3.32517e-05
-5.53243e-06
-6.39532e-05
-8.052e-06
-5.42591e-05
-8.00375e-06
-3.37145e-05
-9.61842e-06
-2.86107e-05
-1.24854e-05
-4.96738e-05
-1.27673e-05
-4.67558e-05
-1.28611e-05
-4.40474e-05
-1.30559e-05
-3.88807e-05
-1.36057e-05
-3.29039e-05
-1.16032e-05
-3.47008e-05
-1.57535e-05
-2.57403e-05
-1.91406e-05
-1.55224e-05
-2.09891e-05
-2.2624e-05
-2.54417e-05
-1.24698e-05
-1.70771e-05
-2.79902e-05
-9.57787e-07
-6.85707e-05
-1.02575e-06
-7.08322e-05
-2.08e-06
-7.0397e-05
-2.30433e-06
-6.09376e-05
-5.66344e-06