/*--------------------------------*- C++ -*----------------------------------*\
| =========                 |                                                 |
| \\      /  F ield         | foam-extend: Open Source CFD                    |
|  \\    /   O peration     | Version:     4.1                                |
|   \\  /    A nd           | Web:         http://www.foam-extend.org         |
|    \\/     M anipulation  |                                                 |
\*---------------------------------------------------------------------------*/
FoamFile
{
    version     2.0;
    format      ascii;
    class       surfaceScalarField;
    location    "0.35";
    object      phi_0;
}
// * * * * * * * * * * * * * * * * * * * * * * * * * * * * * * * * * * * * * //

dimensions      [0 3 -1 0 0 0 0];

internalField   nonuniform List<scalar> 
4432
(
1.46383e-06
-1.46383e-06
4.45523e-06
-2.9914e-06
9.00791e-06
-4.55268e-06
1.5641e-05
-6.63308e-06
2.40501e-05
-8.40908e-06
3.31153e-05
-9.06526e-06
3.75302e-05
-4.41492e-06
5.13402e-05
-1.38099e-05
5.81217e-05
-6.78152e-06
9.05618e-05
-3.24401e-05
8.8668e-05
1.8938e-06
9.20914e-05
-3.42341e-06
9.31591e-05
-1.06774e-06
9.46165e-05
-1.45737e-06
6.16309e-05
3.29856e-05
6.46181e-05
-2.9872e-06
5.77337e-05
6.88438e-06
5.05397e-05
7.194e-06
4.78668e-05
2.6729e-06
7.69456e-05
-2.90788e-05
7.05962e-05
6.3494e-06
-6.23305e-06
7.68292e-05
-6.23305e-06
1.61266e-06
-3.07649e-06
4.53665e-06
-5.91539e-06
8.91561e-06
-8.93165e-06
1.5467e-05
-1.31844e-05
2.42287e-05
-1.71708e-05
3.30472e-05
-1.78838e-05
3.75778e-05
-8.94552e-06
5.24051e-05
-2.86372e-05
5.85174e-05
-1.28939e-05
8.73587e-05
-6.12813e-05
8.84395e-05
8.12967e-07
9.20058e-05
-6.98975e-06
9.63557e-05
-5.41763e-06
9.62759e-05
-1.37757e-06
0.000100254
2.90076e-05
6.11445e-05
3.61222e-05
5.86282e-05
9.40074e-06
9.00644e-05
-2.42422e-05
8.31961e-05
9.54114e-06
7.95943e-05
-2.5477e-05
7.57686e-05
1.01752e-05
6.66554e-05
8.59424e-05
6.04224e-05
1.46637e-06
-4.54286e-06
4.40283e-06
-8.85185e-06
8.55104e-06
-1.30799e-05
1.48343e-05
-1.94677e-05
2.31077e-05
-2.54442e-05
3.26031e-05
-2.73791e-05
3.96827e-05
-1.60251e-05
5.15595e-05
-4.05141e-05
5.52053e-05
-1.65396e-05
4.96698e-05
-5.57458e-05
8.19194e-05
-3.14366e-05
8.25445e-05
-7.61486e-06
8.25004e-05
-5.37357e-06
5.02479e-05
3.08749e-05
5.73328e-05
2.19227e-05
6.24398e-05
3.10152e-05
5.71333e-05
1.47073e-05
4.65749e-05
-1.36838e-05
6.80858e-05
-1.19697e-05
4.12106e-05
1.39818e-06
4.0415e-05
1.09707e-05
2.95315e-05
9.68259e-05
8.99539e-05
1.99973e-06
-6.54258e-06
4.72191e-06
-1.1574e-05
8.12777e-06
-1.64857e-05
1.42536e-05
-2.55935e-05
2.4099e-05
-3.52896e-05
3.40225e-05
-3.73027e-05
4.10678e-05
-2.30704e-05
5.02477e-05
-4.9694e-05
5.00624e-05
-1.63543e-05
4.62621e-05
-5.19455e-05
4.17049e-05
-2.68794e-05
7.87138e-05
-4.46238e-05
5.11103e-05
2.223e-05
9.73727e-05
-1.53875e-05
0.00010153
1.77655e-05
0.000104064
2.84815e-05
0.000100047
1.87238e-05
7.7468e-05
8.89526e-06
5.37877e-05
1.17107e-05
1.2514e-05
4.26719e-05
3.50834e-06
1.99763e-05
1.99385e-05
8.03957e-05
0.000109892
1.54115e-06
-8.08373e-06
4.1704e-06
-1.42033e-05
7.33944e-06
-1.96548e-05
1.36127e-05
-3.18668e-05
2.46881e-05
-4.63649e-05
3.29644e-05
-4.55791e-05
3.65007e-05
-2.66067e-05
4.65022e-05
-5.96955e-05
4.55276e-05
-1.53797e-05
4.46304e-05
-5.10483e-05
8.06023e-05
-6.28513e-05
4.92798e-05
-1.33013e-05
8.89554e-05
-1.74457e-05
0.000101112
-2.75442e-05
9.73268e-05
2.1551e-05
8.87462e-05
3.7062e-05
8.59462e-05
2.15238e-05
7.85806e-05
1.62609e-05
6.04198e-05
2.98714e-05
2.94548e-05
7.36369e-05
4.9426e-06
4.44885e-05
1.32189e-05
7.21195e-05
0.000123111
2.33164e-06
-1.04154e-05
4.34914e-06
-1.62208e-05
6.89061e-06
-2.21962e-05
1.34567e-05
-3.84329e-05
2.30628e-05
-5.5971e-05
3.00141e-05
-5.25304e-05
6.48869e-05
-6.14795e-05
4.51573e-05
-3.99659e-05
8.11467e-05
-5.1369e-05
8.35645e-05
-5.34662e-05
8.48394e-05
-6.41261e-05
8.64408e-05
-1.49027e-05
9.01423e-05
-2.11472e-05
6.40442e-05
-1.44614e-06
0.000112306
-2.67106e-05
9.49364e-05
5.44314e-05
9.37439e-05
2.27162e-05
8.79102e-05
2.20946e-05
7.8547e-05
3.92346e-05
6.62499e-05
8.5934e-05
3.70453e-05
7.36932e-05
1.44396e-05
9.47251e-05
0.000137551
1.57263e-06
-1.1988e-05
3.47552e-06
-1.81237e-05
6.34963e-06
-2.50703e-05
1.38935e-05
-4.59768e-05
2.20839e-05
-6.41614e-05
2.6898e-05
-5.73445e-05
3.44826e-05
-6.90641e-05
4.90794e-05
-5.45627e-05
7.8881e-05
-8.11707e-05
8.32575e-05
-5.78427e-05
5.22353e-05
-3.31039e-05
9.51041e-05
-5.77715e-05
5.72187e-05
1.67382e-05
6.84953e-05
-1.27227e-05
7.17665e-05
-2.99818e-05
0.000102791
2.34067e-05
8.93132e-05
3.61943e-05
8.64111e-05
2.49968e-05
9.13291e-05
3.43166e-05
8.59081e-05
9.13549e-05
6.9027e-05
9.05743e-05
4.76835e-05
0.000116069
0.000185234
2.5627e-06
-1.45507e-05
3.24254e-06
-1.88035e-05
6.58469e-06
-2.84125e-05
1.42379e-05
-5.36299e-05
2.13156e-05
-7.12392e-05
2.77216e-05
-6.37504e-05
6.10078e-05
-0.00010235
7.91616e-05
-7.27165e-05
8.19822e-05
-8.39913e-05
8.84753e-05
-6.43358e-05
9.62834e-05
-4.0912e-05
5.88928e-05
-2.03809e-05
9.32925e-05
-1.76615e-05
0.000112057
-3.1487e-05
6.72652e-05
1.48097e-05
5.02469e-05
4.0425e-05
8.13726e-05
5.0685e-06
7.62673e-05
3.01021e-05
4.48826e-05
6.57014e-05
8.89276e-05
4.73099e-05
8.42854e-05
9.52165e-05
5.83054e-05
0.000142049
0.00024354
-0.000175658
0.000175658
-0.000246905
7.12472e-05
-0.000220104
-2.68011e-05
-0.000181495
-3.86092e-05
-0.000161402
-2.00929e-05
-0.000139017
-2.23853e-05
-0.000113679
-2.53373e-05
-5.2898e-05
-6.07812e-05
-4.43005e-05
-8.59748e-06
-6.47736e-05
2.0473e-05
-3.99943e-05
-2.47793e-05
-5.25092e-05
1.25149e-05
1.92837e-05
-7.17928e-05
0.000117501
-9.82176e-05
0.000185514
-6.80127e-05
0.000136462
4.90519e-05
0.000148782
-1.232e-05
0.000135799
1.29832e-05
0.000135799
-0.00012212
0.000297778
-0.000143442
9.25691e-05
-0.000101423
-6.88206e-05
-8.81113e-05
-5.19205e-05
-7.14936e-05
-3.67109e-05
-2.39714e-05
-6.99074e-05
3.66207e-05
-8.59296e-05
3.27164e-05
-5.68769e-05
-7.74278e-06
3.18616e-05
5.44142e-06
7.28884e-06
3.80761e-05
-5.74139e-05
7.15893e-05
-2.09984e-05
0.000112166
-0.000112369
0.000163061
-0.000149113
0.00011101
-1.59612e-05
0.000138508
2.15539e-05
0.000139658
-1.34706e-05
0.000128319
2.43224e-05
0.000264118
-4.90928e-05
0.00034687
-6.02375e-05
0.000103714
-4.15723e-05
-8.74861e-05
-8.26164e-05
-1.08763e-05
-4.02703e-05
-7.90575e-05
-4.55785e-06
-0.00010562
5.22889e-05
-0.000142777
2.06115e-05
-2.51995e-05
-1.75236e-05
6.99966e-05
3.81158e-05
-4.83506e-05
6.6283e-05
-8.55811e-05
0.000120924
-7.56396e-05
0.000140259
-0.000131704
9.69811e-05
-0.000105835
0.000108975
-2.79554e-05
0.000126476
4.05326e-06
0.000123092
-1.00862e-05
0.0001057
4.17136e-05
0.000369818
-8.39658e-06
0.000355267
2.22775e-05
7.30397e-05
4.24372e-05
-0.000107646
1.88722e-05
1.26888e-05
3.47346e-06
-6.36591e-05
1.86208e-05
-0.000120767
1.0746e-05
-0.000134902
-2.87915e-05
1.4338e-05
-1.8339e-05
5.95441e-05
5.72152e-05
-0.000123905
0.000147268
-0.000175634
0.000154435
-8.28068e-05
0.000157792
-0.000135061
0.000101371
-4.94143e-05
0.000112293
-3.88778e-05
0.000121918
-5.57143e-06
0.000117531
-5.69936e-06
9.70272e-05
6.22176e-05
0.000466846
6.89174e-05
0.00028635
9.24243e-05
4.95326e-05
4.53583e-05
-6.05805e-05
6.43863e-05
-6.33906e-06
5.72683e-05
-5.65413e-05
5.76343e-05
-0.000121133
3.16727e-05
-0.00010894
6.88062e-06
3.91301e-05
8.66911e-05
-2.02664e-05
0.000139537
-0.000176751
9.33979e-05
-0.000129494
9.58655e-05
-8.52744e-05
9.7989e-05
-0.000137184
0.000109271
-6.06968e-05
0.000114589
-4.41951e-05
0.000122005
-1.29881e-05
0.000120609
-4.30314e-06
9.49725e-05
8.78543e-05
0.000561818
6.97977e-05
0.000216552
7.00992e-05
4.9231e-05
4.57911e-05
-3.62728e-05
5.11124e-05
-1.16603e-05
9.08379e-05
-9.62669e-05
5.14572e-05
-8.17525e-05
4.83184e-06
-6.23149e-05
2.58958e-05
1.80661e-05
0.000176187
-0.000170557
0.000102693
-0.000103257
0.000107276
-0.000134078
0.000106919
-8.49176e-05
0.000105149
-0.000135415
0.000111918
-6.74655e-05
0.000114706
-4.69831e-05
0.000118509
-1.67907e-05
0.000118687
-4.48207e-06
9.51957e-05
0.000111346
0.000657014
2.83524e-05
0.000188199
2.22962e-05
5.52871e-05
3.27193e-05
-4.66959e-05
0.000101786
-8.07267e-05
5.6715e-05
-5.11962e-05
5.55221e-05
-8.05597e-05
6.81792e-05
-7.4972e-05
0.000111857
-2.56117e-05
0.000105077
-0.000163778
0.000111002
-0.000109182
0.000113486
-0.000136562
0.000114398
-8.58295e-05
0.000109856
-0.000130873
0.000110021
-6.76302e-05
0.000110647
-4.76092e-05
0.000112609
-1.87524e-05
0.000108501
-3.74409e-07
8.48296e-05
0.000135018
0.000741843
3.55193e-07
0.000187844
9.72646e-06
4.59159e-05
6.07976e-05
-9.77671e-05
8.85024e-05
-0.000108431
9.59481e-05
-5.8642e-05
9.5723e-05
-8.03345e-05
5.41935e-05
-3.34426e-05
0.000125534
-9.69522e-05
0.000111786
-0.00015003
0.000121224
-0.000118619
0.000124586
-0.000139924
0.000120306
-8.15495e-05
0.000108627
-0.000119193
0.000105256
-6.42592e-05
0.000106545
-4.88987e-05
0.000110745
-2.29523e-05
0.000105008
5.36253e-06
7.73401e-05
0.000162686
0.000819183
6.86537e-06
-2.14161e-05
1.66365e-05
-2.85746e-05
3.12145e-05
-4.29905e-05
6.0387e-05
-8.28024e-05
7.84996e-05
-8.93519e-05
0.000101831
-8.70821e-05
0.00013039
-0.000130909
0.000176173
-0.0001185
0.000195365
-0.000103184
0.000201414
-7.03844e-05
0.000211812
-5.13104e-05
0.000207953
-1.65212e-05
0.000212956
-2.26647e-05
0.00017557
5.89902e-06
0.00018434
6.03927e-06
0.000228406
-3.64106e-06
0.000206625
2.68495e-05
0.000204392
3.23352e-05
0.000205396
6.4698e-05
0.000188202
6.4504e-05
0.00022641
5.70081e-05
0.000217319
0.000151139
0.000163525
0.000297334
-1.69428e-06
-1.97218e-05
1.61763e-05
-4.64452e-05
3.13966e-05
-5.82107e-05
4.89875e-05
-0.000100393
4.27998e-05
-8.31641e-05
6.06307e-05
-0.000104913
7.65815e-05
-0.00014686
8.80034e-05
-0.000129921
9.82498e-05
-0.00011343
0.000108363
-8.04978e-05
0.000125497
-6.84447e-05
0.000202357
-9.33808e-05
0.000213532
-3.38396e-05
0.000237228
-1.77973e-05
0.000254777
-1.15099e-05
0.000231077
2.00592e-05
0.000227348
3.05783e-05
0.000221427
3.82571e-05
0.000209803
7.63219e-05
0.000229727
4.45795e-05
0.000161028
0.000125707
0.000190321
0.000121847
0.000129477
0.000224369
1.25353e-05
-3.22571e-05
6.16967e-06
-4.00796e-05
2.94887e-05
-8.15297e-05
3.07523e-05
-0.000101657
3.8428e-05
-9.08398e-05
4.94407e-05
-0.000115926
4.94809e-05
-0.0001469
2.26965e-05
-0.000103137
2.69641e-05
-0.000117698
4.18229e-05
-9.53566e-05
0.0001071
-0.000133722
0.000101723
-8.80039e-05
0.000185391
-0.000117507
0.000225776
-5.81821e-05
0.000222124
-7.85821e-06
0.000187915
5.42679e-05
0.00016473
5.37633e-05
0.000148433
5.45544e-05
0.000169701
5.5054e-05
0.000117673
9.66074e-05
0.000165951
7.74294e-05
0.000225256
6.25417e-05
0.000122395
0.000232338
8.35872e-06
-4.06158e-05
3.74405e-05
-6.91614e-05
1.89619e-05
-6.30511e-05
4.15624e-05
-0.000124257
2.62493e-05
-7.55267e-05
4.79382e-05
-0.000137615
4.38038e-05
-0.000142766
1.59903e-05
-7.53235e-05
3.98062e-05
-0.000141514
6.24851e-05
-0.000118036
6.18264e-05
-0.000133063
0.000129952
-0.000156129
8.20247e-05
-6.958e-05
0.000127016
-0.000103173
0.000150372
-3.12137e-05
0.000226152
-2.1512e-05
0.000226312
5.36032e-05
0.000202154
7.87116e-05
0.000112074
0.000145135
0.000136616
7.20652e-05
0.000162905
5.11403e-05
0.000184425
4.10213e-05
1.8136e-05
0.000288684
7.55045e-06
-4.81662e-05
3.95759e-05
-0.000101187
6.13843e-05
-8.48595e-05
4.07396e-05
-0.000103613
9.32749e-05
-0.000128062
7.95836e-05
-0.000123923
3.66923e-05
-9.98743e-05
8.12322e-05
-0.000119863
8.73999e-05
-0.000147681
0.000111203
-0.000141839
8.98654e-05
-0.000111726
8.80019e-05
-0.000154266
0.000167121
-0.000148699
0.000186296
-0.000122349
0.000217974
-6.2891e-05
0.000220128
-2.36663e-05
0.000260923
1.28082e-05
0.000265496
7.41383e-05
0.000267009
0.000143622
0.000262155
7.69183e-05
0.000224265
8.90308e-05
0.00021017
5.51167e-05
1.37327e-05
0.000214573
6.45054e-06
-5.46168e-05
1.12224e-05
-0.000105959
1.98744e-05
-9.35115e-05
3.84757e-05
-0.000122214
5.01473e-05
-0.000139734
4.82178e-05
-0.000121994
6.12231e-05
-0.00011288
0.000127535
-0.000186176
0.000108018
-0.000128164
0.000100024
-0.000133845
0.000148255
-0.000159957
0.000153682
-0.000159693
0.000163086
-0.000158103
0.000165664
-0.000124926
0.000173852
-7.10796e-05
0.0002021
-5.19143e-05
0.000157624
5.72842e-05
0.00017116
6.06022e-05
0.000286045
2.87373e-05
0.000267093
9.58703e-05
0.000269845
8.6279e-05
0.000274155
5.08072e-05
3.36391e-05
0.000254248
-1.46581e-05
-3.99587e-05
-1.4842e-05
-0.000105775
1.49395e-05
-0.000123293
5.80005e-05
-0.000165275
7.29402e-05
-0.000154673
6.01764e-05
-0.00010923
6.89739e-05
-0.000121677
0.000118151
-0.000235352
0.000133661
-0.000143674
0.000125722
-0.000125906
0.000141146
-0.000175381
0.000153216
-0.000171763
0.000148583
-0.00015347
0.000108136
-8.44791e-05
9.17046e-05
-5.46484e-05
8.32066e-05
-4.34163e-05
0.00013718
3.31052e-06
0.00021741
-1.96274e-05
0.000224856
2.12914e-05
0.000234867
8.58592e-05
0.000266937
5.42083e-05
0.000280275
3.74694e-05
3.9226e-05
0.000274688
-1.2273e-05
-2.76857e-05
-1.6185e-05
-0.000101863
4.25026e-05
-0.000181981
9.04982e-05
-0.000213271
7.77028e-05
-0.000141878
0.000142377
-0.000173904
0.000150998
-0.000130298
4.28614e-05
-0.000127216
3.58437e-05
-0.000136656
6.19391e-05
-0.000152001
0.000101281
-0.000214723
0.000141418
-0.0002119
0.000109978
-0.000122029
1.04107e-05
1.5088e-05
1.53901e-05
-5.96278e-05
6.70761e-05
-9.51024e-05
0.000173879
-0.000103492
0.000188394
-3.41426e-05
0.000186575
2.31101e-05
0.000185883
8.65518e-05
0.000131914
0.000108176
0.000141064
2.83194e-05
-2.68324e-05
0.000207123
2.04694e-05
-4.81551e-05
2.10235e-05
-0.000102417
5.24217e-05
-0.000213379
5.75282e-05
-0.000218377
0.000137444
-0.000221794
5.66314e-05
-9.30914e-05
4.21514e-05
-0.000115819
4.66542e-05
-0.000131718
1.24832e-05
-0.000102485
3.87647e-05
-0.000178283
4.88401e-05
-0.000224798
2.82117e-05
-0.000191272
-4.99119e-05
-4.39057e-05
-1.65243e-05
-1.82995e-05
2.64366e-05
-0.000102589
5.62324e-05
-0.000124898
0.000100501
-0.000147761
0.000134124
-6.77657e-05
8.17236e-05
7.55107e-05
8.49589e-05
8.33165e-05
0.000137471
5.56639e-05
0.000125208
4.05826e-05
2.49825e-06
9.58776e-05
4.54939e-05
-9.3649e-05
5.67396e-05
-0.000113662
6.06092e-05
-0.000217248
4.55678e-05
-0.000203336
4.36657e-05
-0.000219892
5.82585e-05
-0.000107684
4.0398e-05
-9.7958e-05
-5.13145e-06
-8.6189e-05
-7.43613e-06
-0.000100181
-4.81129e-06
-0.000180908
-3.31505e-05
-0.000196459
-7.50086e-05
-0.000149414
-3.29956e-05
-8.59187e-05
6.6301e-06
-5.79252e-05
3.30453e-05
-0.000129004
4.02116e-05
-0.000132065
4.36914e-05
-0.00015124
4.00011e-06
-2.80744e-05
1.98489e-06
7.7526e-05
3.15977e-05
5.37037e-05
4.57937e-05
4.1468e-05
3.97817e-05
4.65946e-05
4.65143e-05
-4.23435e-06
2.10595e-05
-0.000114709
3.31672e-05
-0.00012577
4.28323e-05
-0.000226914
1.9345e-05
-0.000179848
2.18704e-05
-0.000222417
-7.23303e-06
-7.85808e-05
-1.9083e-05
-8.6108e-05
-2.37971e-05
-8.1475e-05
-2.97639e-06
-0.000121001
-1.2387e-05
-0.000171497
-3.3381e-05
-0.000175465
-4.16195e-05
-0.000141175
-1.23561e-05
-0.000115182
-4.63097e-05
-2.39716e-05
-3.33074e-05
-0.000142006
-1.75691e-05
-0.000147803
-7.52353e-05
-9.35741e-05
-6.20442e-05
-4.12655e-05
-4.65245e-05
6.20063e-05
-2.0808e-05
2.79872e-05
-3.3814e-05
5.44741e-05
-5.63911e-05
6.91717e-05
5.52878e-05
-6.51646e-05
-5.51138e-06
-0.000109197
6.93424e-06
-0.000138216
9.73096e-06
-0.00022971
-1.00097e-05
-0.000160108
-4.41631e-05
-0.000188264
-3.24242e-05
-9.03197e-05
-3.64464e-05
-8.20858e-05
-3.90057e-05
-7.89157e-05
-2.07525e-05
-0.000139254
-3.78755e-05
-0.000154374
-5.68294e-05
-0.000156511
-5.88561e-05
-0.000139149
-8.69936e-05
-8.70446e-05
-0.000104346
-6.61913e-06
-8.16344e-05
-0.000164718
-7.78045e-05
-0.000151633
-0.000108289
-6.30897e-05
-0.000120897
-2.86577e-05
-6.78659e-05
8.9755e-06
-6.86015e-05
2.87228e-05
-7.93525e-05
6.52251e-05
-9.31091e-05
8.29283e-05
2.72846e-05
-6.51059e-05
-3.5021e-05
-7.41762e-05
2.47842e-05
-0.000198021
-3.12823e-05
-0.000173644
-3.9688e-06
-0.000187421
-4.74918e-05
-0.000144741
-3.30751e-05
-0.000104736
-2.87055e-05
-8.64555e-05
-2.01148e-05
-8.75063e-05
-1.69235e-05
-0.000142446
-3.18164e-05
-0.000139481
-4.49387e-05
-0.000143389
-0.000107043
-7.70441e-05
-9.64767e-05
-9.76111e-05
-7.43132e-05
-2.87827e-05
-8.85678e-05
-0.000150463
-8.57576e-05
-0.000154443
-0.000104638
-4.42093e-05
-9.67359e-05
-3.65598e-05
-9.44653e-05
6.70487e-06
-9.71956e-05
3.14532e-05
-0.000105172
7.32014e-05
-5.3317e-05
3.10734e-05
1.55962e-05
-4.16286e-05
-6.29664e-06
-6.78796e-05
-2.96553e-05
-0.000174662
1.55974e-06
-0.000204859
-1.91099e-05
-0.000166751
-3.38335e-05
-0.000130017
-2.48421e-05
-0.000113728
3.86765e-06
-0.000115165
2.94263e-05
-0.000113065
-2.20727e-05
-9.09467e-05
-2.82301e-05
-0.000133324
-5.68823e-05
-0.000114737
-8.39962e-05
-4.99303e-05
-6.28599e-05
-0.000118747
-6.38224e-05
-2.78202e-05
-9.94748e-05
-0.000114811
-0.000104324
-0.000149594
-0.000112059
-3.64745e-05
-0.000109369
-3.92493e-05
-0.000106877
4.21285e-06
-0.000108821
3.33973e-05
-9.27097e-05
5.70899e-05
-7.76728e-05
1.60365e-05
-5.09488e-06
-5.69817e-05
-7.13417e-06
-6.07454e-05
-1.42951e-05
-0.000167501
-6.79888e-06
-0.000212355
-1.24871e-05
-0.000161063
-1.68075e-05
-0.000125697
-1.47117e-05
-0.000115824
6.02435e-07
-0.000130479
6.44073e-05
-0.00017687
5.93662e-05
-8.59057e-05
2.65178e-05
-0.000100475
-1.00911e-05
-7.81276e-05
-7.84307e-05
1.84093e-05
-0.000108597
-8.85807e-05
-8.57952e-05
-5.06224e-05
-8.80592e-05
-0.000112547
-0.000153125
-8.45284e-05
-0.000148403
-4.11957e-05
-0.000128969
-5.86833e-05
-0.000112676
-1.20802e-05
-9.30327e-05
1.37536e-05
-6.00571e-05
2.41143e-05
-4.51433e-05
1.12255e-06
-6.77396e-06
-4.34642e-05
-1.43055e-05
-4.64399e-05
-1.64462e-05
-0.000165361
-1.49427e-05
-0.000213858
-1.81647e-05
-0.000157841
-1.15744e-05
-0.000132287
-9.78214e-06
-0.000117616
-1.5397e-05
-0.000124864
5.19402e-05
-0.000244207
8.42172e-05
-0.000118183
6.25837e-05
-7.88418e-05
1.10897e-05
-2.66337e-05
-4.27631e-05
7.22621e-05
-7.92791e-05
-5.20646e-05
-5.08722e-05
-7.90293e-05
-0.000101343
-6.20759e-05
-0.000113359
-7.25125e-05
-0.00011662
-3.79343e-05
-0.000120382
-5.49211e-05
-0.000109828
-2.26342e-05
-9.19051e-05
-4.16935e-06
-6.57003e-05
-2.09049e-06
-3.71736e-05
-2.74042e-05
-1.00465e-05
-3.3901e-05
-1.74414e-05
-2.89984e-05
-8.11042e-06
-0.000174692
-2.52153e-05
-0.000196754
-3.77031e-05
-0.000145354
-1.8744e-05
-0.000151246
-2.04392e-05
-0.000115921
2.51779e-05
-0.000170481
-5.63526e-05
-0.000162677
-4.33107e-05
-0.000131224
-3.1254e-05
-9.08985e-05
-2.64611e-05
-3.14266e-05
1.70745e-05
2.87266e-05
4.20062e-06
-3.91908e-05
-2.71873e-05
-4.76414e-05
-4.57272e-05
-4.35359e-05
-7.80099e-05
-4.02298e-05
-8.27552e-05
-3.31889e-05
-8.72e-05
-5.04763e-05
-9.12457e-05
-1.85885e-05
-6.00539e-05
-3.53611e-05
-4.99258e-05
-1.22186e-05
-3.47711e-05
-4.25588e-05
-2.08578e-05
-2.39598e-05
4.62123e-05
-7.52107e-05
-1.17016e-05
-0.000116778
-2.42346e-05
-0.000184221
-4.47975e-05
-0.000124791
-1.81778e-05
-0.000177866
-2.61417e-05
-0.000107957
-2.02048e-05
-0.000176418
-4.73581e-05
-0.000135523
-5.59036e-05
-0.000122679
-6.21469e-05
-8.46551e-05
-4.26772e-05
-5.08964e-05
1.2117e-05
-2.60676e-05
-9.67401e-06
-1.73998e-05
-3.92814e-05
-1.8034e-05
-4.2698e-05
-4.01192e-05
-5.99415e-05
-2.29864e-05
-6.71217e-05
-2.60086e-05
-9.0974e-05
-2.66241e-05
-5.23422e-05
-5.72203e-05
-5.81963e-05
-2.95069e-05
-5.37542e-05
-1.66607e-05
-5.03422e-05
-4.59708e-05
-2.48245e-05
-4.63755e-05
3.44753e-05
-0.000109686
2.78868e-05
-0.000110189
-4.1664e-05
-0.00011467
-2.88741e-05
-0.00013758
-8.56096e-05
-0.00012113
-8.36262e-05
-0.00010994
-8.47656e-05
-0.000175279
-4.34161e-05
-0.000176873
-5.97241e-05
-0.000106371
-6.00756e-05
-8.43036e-05
-3.01849e-05
-8.07871e-05
-4.37557e-05
-1.24968e-05
-5.76431e-05
-3.51237e-06
-5.25831e-05
-2.30939e-05
-4.65329e-05
-4.61693e-05
-3.83316e-05
-3.11877e-05
-4.69346e-05
-1.74056e-05
-4.83379e-05
-2.52207e-05
-8.283e-05
-2.27282e-05
-8.79791e-05
-2.43578e-05
-5.22263e-05
-5.24136e-05
-5.4739e-05
-4.3458e-05
-3.42783e-05
-4.52852e-05
2.56822e-06
-0.000112254
3.39908e-07
-0.000107961
-5.90212e-06
-0.000108428
-3.61832e-05
-0.000107299
-4.52228e-05
-0.000112091
-5.97942e-05
-9.53688e-05
-7.73415e-05
-0.000157732
-0.000111466
-0.000142748
-0.000134693
-8.31436e-05
-0.000146886
-7.21109e-05
-0.000144035
-8.36375e-05
-0.000131741
-2.4791e-05
-7.77934e-05
-5.74601e-05
-5.87396e-05
-4.21477e-05
-7.7331e-05
-2.7578e-05
-7.56207e-05
-3.28979e-05
-5.15867e-05
-4.14396e-05
-5.7506e-05
-1.93013e-05
-5.22229e-05
-2.80113e-05
-4.6058e-05
-3.05226e-05
-7.46207e-05
-2.38508e-05
-7.47823e-05
-4.32965e-05
-3.35444e-05
-7.55161e-05
-7.75892e-06
-0.000104495
-1.05557e-05
-0.000105164
-2.38853e-05
-9.50982e-05
-2.68961e-05
-0.000104289
-4.65688e-05
-9.2418e-05
-7.33267e-06
-0.000134605
-6.5528e-05
-9.95363e-05
-5.86903e-05
-0.000149586
-8.43185e-05
-5.75155e-05
-9.12076e-05
-6.52218e-05
-0.000113909
-6.09358e-05
-7.61467e-05
-6.25536e-05
-9.99569e-05
-3.36499e-05
-8.59954e-05
-5.61092e-05
-8.32146e-05
-3.03587e-05
-7.71655e-05
-3.8947e-05
-8.92909e-05
-2.93141e-05
-5.64633e-05
-5.21289e-05
-5.71689e-05
-2.73056e-05
-5.0989e-05
-3.67025e-05
-3.95153e-05
-3.53244e-05
-4.02166e-05
-4.25952e-05
-2.53183e-05
-4.84426e-05
-5.6405e-06
-9.88548e-05
-1.05195e-05
-0.000100285
-7.78987e-06
-9.78278e-05
-2.20478e-05
-9.00307e-05
-2.38068e-05
-9.06591e-05
-1.2061e-05
-0.000146351
-1.67272e-05
-9.48701e-05
-7.48906e-05
-9.14227e-05
-5.81094e-05
-7.42967e-05
-5.59198e-05
-6.74114e-05
-5.2882e-05
-6.39736e-05
-5.53243e-05
-6.01113e-05
-4.66874e-05
-4.22868e-05
-6.72528e-05
-3.55437e-05
-4.31952e-05
-5.44163e-05
-3.94365e-05
-4.27056e-05
-3.91628e-05
-2.95878e-05
-5.47127e-05
-3.6579e-05
-5.25835e-05
-2.94347e-05
-4.91462e-05
-4.01397e-05
-4.59931e-05
-3.84776e-05
-4.74092e-05
-4.1179e-05
-2.61467e-05
-4.65808e-05
-6.83989e-06
-9.20149e-05
-1.94119e-05
-8.77131e-05
-2.89584e-05
-8.82813e-05
1.19443e-05
-0.000130933
3.9929e-06
-8.27077e-05
-4.37155e-05
-9.86422e-05
-5.18065e-05
-8.6779e-05
-5.45416e-05
-8.86876e-05
-4.17911e-05
-8.70472e-05
-4.06456e-05
-6.85568e-05
-4.41622e-05
-6.0457e-05
-4.9834e-05
-5.44395e-05
-5.60758e-05
-3.6045e-05
-5.36808e-05
-3.79386e-05
-4.00822e-05
-6.80149e-05
-4.95085e-05
-3.32793e-05
-4.89395e-05
-3.01567e-05
-4.86794e-05
-3.68391e-05
-4.19992e-05
-3.6115e-05
-4.22519e-05
-3.98869e-05
-4.13785e-05
-3.93509e-05
-3.94764e-05
-4.30811e-05
-2.63613e-05
-3.92617e-05
-2.50481e-05
-6.69669e-05
-3.94965e-06
-0.000108812
7.16736e-06
-9.93984e-05
-1.4953e-05
-0.000108813
8.01889e-07
-9.84626e-05
-1.49905e-05
-8.28499e-05
-3.27886e-05
-6.89809e-05
-4.19208e-05
-7.95554e-05
-5.77553e-05
-7.12128e-05
-6.3239e-05
-6.3073e-05
-6.38723e-05
-5.98237e-05
-6.37708e-05
-5.4541e-05
-5.75429e-05
-4.22729e-05
-5.35583e-05
-4.19232e-05
-7.74213e-05
-4.4152e-05
-4.18183e-05
-6.88823e-05
-4.01558e-05
-3.18192e-05
-4.22007e-05
-3.47942e-05
-3.98026e-05
-3.85131e-05
-4.92819e-05
-3.04077e-05
-4.98607e-05
-3.87721e-05
-5.06303e-05
-4.23114e-05
-3.63005e-05
-4.0691e-05
1.64764e-05
-8.34433e-05
6.8312e-07
-9.30182e-05
-1.32431e-05
-8.54721e-05
-2.57105e-05
-9.63458e-05
-3.50324e-05
-8.91406e-05
-2.60794e-05
-9.1803e-05
-6.56292e-06
-8.84973e-05
-2.3721e-05
-6.23973e-05
-3.97793e-05
-5.51545e-05
-4.72836e-05
-5.55687e-05
-5.30346e-05
-5.40727e-05
-5.4555e-05
-5.30205e-05
-4.61121e-05
-5.07158e-05
-3.5842e-05
-5.21932e-05
-2.97612e-05
-5.02327e-05
-4.94671e-05
-4.91764e-05
-4.66707e-05
-3.46156e-05
-3.34904e-05
-4.79744e-05
-4.13238e-05
-3.06797e-05
-4.33725e-05
-2.83589e-05
-4.1677e-05
-4.04675e-05
-4.27825e-05
-4.1206e-05
-3.27857e-05
-4.62972e-05
-3.19776e-06
-8.02455e-05
-7.56806e-06
-8.86479e-05
-5.24193e-06
-8.77982e-05
-1.5368e-05
-8.62197e-05
-2.02159e-05
-8.42927e-05
-3.24804e-05
-7.95385e-05
-4.22477e-05
-7.873e-05
-3.25788e-05
-7.20661e-05
-4.55849e-05
-4.21484e-05
-5.99762e-05
-4.11774e-05
-4.94722e-05
-6.45767e-05
-3.73615e-05
-6.51312e-05
-2.65565e-05
-6.15208e-05
-3.48376e-05
-4.3912e-05
-4.5537e-05
-3.95334e-05
-4.88178e-05
-4.58955e-05
-2.5714e-05
-5.77194e-05
-3.95332e-05
-3.41552e-05
-3.99677e-05
-3.02451e-05
-3.91851e-05
-2.91415e-05
-4.1469e-05
-3.81835e-05
-4.23852e-05
-4.02898e-05
-3.42709e-05
-4.08999e-05
-1.41303e-07
-8.01042e-05
-5.44195e-06
-8.33473e-05
-9.85495e-06
-8.33852e-05
-1.47834e-05
-8.12912e-05
-1.93145e-05
-7.97616e-05
-2.15627e-05
-7.72903e-05
-2.55341e-05
-7.47586e-05
-2.80195e-05
-6.95808e-05
-3.24393e-05
-3.77286e-05
-3.76663e-05
-3.59503e-05
-4.34761e-05
-5.87669e-05
-5.02243e-05
-5.83831e-05
-5.2437e-05
-5.93081e-05
-3.86642e-05
-5.76848e-05
-4.17594e-05
-3.64381e-05
-3.28311e-05
-5.48238e-05
-5.33419e-05
-3.72086e-05
-3.07476e-05
-5.67495e-05
-3.39811e-05
-2.70116e-05
-3.53272e-05
-2.77953e-05
-3.75484e-05
-3.59623e-05
-4.03571e-05
-3.7481e-05
-2.96697e-05
-4.49583e-05
-3.62512e-06
-7.64791e-05
-7.27179e-06
-7.97006e-05
-9.87125e-06
-8.07857e-05
-1.31649e-05
-7.79976e-05
-1.66303e-05
-7.62962e-05
-2.14071e-05
-7.25134e-05
-2.69908e-05
-6.91749e-05
-2.85271e-05
-6.80445e-05
-3.18491e-05
-3.44066e-05
-3.48702e-05
-3.29293e-05
-3.74068e-05
-5.62302e-05
-4.15099e-05
-5.428e-05
-4.12136e-05
-5.96045e-05
-4.12452e-05
-5.76531e-05
-4.32035e-05
-3.44798e-05
-4.11059e-05
-5.69214e-05
-4.38257e-05
-3.44888e-05
-5.34488e-05
-4.71263e-05
-3.10378e-05
-4.94226e-05
-2.62538e-05
-3.25792e-05
-3.64338e-05
-2.57824e-05
-4.32811e-05
-3.06338e-05
-3.17041e-05
-4.12466e-05
-1.18046e-06
-7.52986e-05
-2.84216e-06
-7.80389e-05
-6.70419e-06
-7.69237e-05
-9.35631e-06
-7.53454e-05
-1.22786e-05
-7.3374e-05
-1.60013e-05
-6.87907e-05
-2.04644e-05
-6.47118e-05
-2.12449e-05
-6.7264e-05
-1.92803e-05
-3.63712e-05
-1.69204e-05
-3.52892e-05
-3.80921e-05
-3.50585e-05
-3.02819e-05
-6.20902e-05
-2.96714e-05
-6.0215e-05
-3.66223e-05
-5.07021e-05
-1.60231e-05
-5.5079e-05
-3.71576e-05
-3.57869e-05
-2.07878e-05
-5.08585e-05
-3.67647e-05
-3.11494e-05
-3.1497e-05
-5.46902e-05
-3.21046e-05
-3.19716e-05
-3.40627e-05
-2.38242e-05
-3.72651e-05
-2.74313e-05
-2.78609e-05
-4.11083e-05
-1.70254e-06
-7.35961e-05
-3.16738e-06
-7.65741e-05
-7.34872e-06
-7.27424e-05
-1.05529e-05
-7.21412e-05
-1.39563e-05
-6.99706e-05
-1.58598e-05
-6.68872e-05
-1.96173e-05
-6.09542e-05
-2.14635e-05
-6.54178e-05
-2.37294e-05
-3.41053e-05
-2.29073e-05
-3.61112e-05
-2.51891e-05
-3.27768e-05
-2.064e-05
-6.66392e-05
-2.27536e-05
-5.81015e-05
-2.26456e-05
-5.081e-05
-2.29081e-05
-5.48166e-05
-3.09555e-05
-2.77395e-05
-3.21181e-05
-4.96959e-05
-3.278e-05
-3.04875e-05
-4.13307e-05
-4.61395e-05
-2.85704e-05
-4.47319e-05
-2.72859e-05
-2.51086e-05
-3.4439e-05
-2.02783e-05
-2.24968e-05
-3.98031e-05
-1.07796e-06
-7.25181e-05
-2.13778e-06
-7.55142e-05
-2.41446e-06
-7.24657e-05
-3.32276e-07
-7.42234e-05
3.14631e-06
-7.34492e-05
-1.66581e-05
-4.70828e-05
-3.42703e-05
-4.3342e-05
-2.8416e-05
-7.12721e-05
-2.32702e-05
-3.92511e-05
-2.02744e-05
-3.91071e-05
-1.56201e-05
-3.74311e-05
-2.03383e-05
-6.1921e-05
-2.46956e-05
-5.37442e-05
-2.31464e-05
-5.23592e-05
-3.48454e-05
-4.31176e-05
-1.6034e-05
-4.65509e-05
-2.21028e-05
-4.36271e-05
-2.49706e-05
-2.76197e-05
-3.01606e-05
-4.09495e-05
-2.45429e-05
-5.03495e-05
-3.33187e-05
-1.63329e-05
-3.51499e-05
-1.8447e-05
-2.29297e-05
-3.47169e-05
-1.70492e-06
-7.08132e-05
-3.64733e-06
-7.35718e-05
-5.28296e-06
-7.08301e-05
-8.63239e-06
-7.0874e-05
-1.15895e-05
-7.04921e-05
-1.25708e-05
-4.61015e-05
-1.3781e-05
-4.21318e-05
-1.34427e-05
-7.16104e-05
-1.14134e-05
-4.12804e-05
-1.21759e-05
-3.83445e-05
-1.03619e-05
-3.92451e-05
-1.44587e-05
-5.78241e-05
-1.86677e-05
-4.95352e-05
-1.96819e-05
-5.13451e-05
-1.82232e-05
-4.45762e-05
-1.74001e-05
-4.73739e-05
-3.43679e-05
-2.66593e-05
-1.92851e-05
-4.27024e-05
-3.20705e-05
-2.81641e-05
-4.25861e-05
-3.98339e-05
-2.44727e-05
-3.44463e-05
-2.60227e-05
-1.6897e-05
-1.19106e-05
-3.70418e-05
-6.38604e-07
-7.01746e-05
-1.47035e-06
-7.27401e-05
-2.28975e-06
-7.00107e-05
-4.51317e-06
-6.86506e-05
-5.32625e-06
-6.96791e-05
-1.13313e-05
-4.00964e-05
-1.56641e-05
-3.77991e-05
-2.85383e-05
-5.87361e-05
-1.62194e-05
-5.35993e-05
-3.61546e-06
-5.09485e-05
-1.18662e-05
-3.09943e-05
-2.03027e-05
-4.93876e-05
-1.87587e-05
-5.10792e-05
-2.18869e-05
-4.8217e-05
-2.13363e-05
-4.51268e-05
-3.11099e-05
-3.76003e-05
-1.80286e-05
-3.97406e-05
-2.10512e-05
-3.96799e-05
-2.35271e-05
-2.56881e-05
-2.94241e-05
-3.39369e-05
-2.4461e-05
-3.94094e-05
-3.12539e-05
-1.01041e-05
-1.01837e-05
-3.29808e-05
-5.16263e-07
-6.96583e-05
-1.22885e-06
-7.20275e-05
-2.4991e-06
-6.87404e-05
-7.12737e-06
-6.40223e-05
-1.65852e-05
-6.02213e-05
-2.03366e-07
-5.64782e-05
-4.19306e-06
-3.38094e-05
-8.55404e-06
-5.43751e-05
-1.00277e-05
-5.21257e-05
-6.82467e-06
-5.41515e-05
-6.63113e-06
-3.11879e-05
-2.49924e-05
-3.10263e-05
-1.83259e-05
-5.77458e-05
-1.76416e-05
-4.89012e-05
-1.70643e-05
-4.5704e-05
-1.69577e-05
-3.77069e-05
-1.81632e-05
-3.85351e-05
-2.43159e-05
-3.35272e-05
-1.53667e-05
-3.46373e-05
-2.99547e-05
-1.93489e-05
-4.8746e-05
-2.06181e-05
-2.92048e-05
-2.96452e-05
-7.54064e-06
-3.18478e-05
-2.34634e-07
-6.94237e-05
-1.14814e-06
-7.1114e-05
-7.27456e-07
-6.91611e-05
-4.19042e-06
-6.05593e-05
-3.93699e-06
-6.04747e-05
-1.91833e-06
-5.84969e-05
-2.41635e-06
-3.33114e-05
-2.13366e-05
-3.54548e-05
-1.21762e-05
-6.12861e-05
-9.62932e-06
-5.66984e-05
-7.22181e-06
-3.35954e-05
-8.09208e-06
-3.0156e-05
-1.34013e-05
-5.24366e-05
-1.53879e-05
-4.69146e-05
-1.70765e-05
-4.40154e-05
-1.5834e-05
-3.89494e-05
-2.10463e-05
-3.33227e-05
-2.20017e-05
-3.25718e-05
-2.68747e-05
-2.97643e-05
-2.74125e-05
-1.88111e-05
-2.37035e-05
-2.43271e-05
-3.65252e-05
-1.68235e-05
-1.94698e-05
-2.45959e-05
3.35627e-08
-6.94573e-05
-2.60394e-07
-7.082e-05
1.94962e-06
-7.13711e-05
2.47595e-06
-6.10857e-05
-1.6107e-05
-4.18918e-05
-8.31399e-06
-6.62899e-05
-5.85053e-06
-3.57748e-05
-8.11301e-06
-3.31924e-05
-5.54224e-06
-6.38569e-05
-8.0692e-06
-5.41714e-05
-8.02524e-06
-3.36393e-05
-9.63662e-06
-2.85446e-05
-1.25032e-05
-4.957e-05
-1.27859e-05
-4.66319e-05
-1.28784e-05
-4.39229e-05
-1.30683e-05
-3.87595e-05
-1.36155e-05
-3.27756e-05
-1.16076e-05
-3.45797e-05
-1.57647e-05
-2.56073e-05
-1.91459e-05
-1.54298e-05
-2.09971e-05
-2.24759e-05
-2.54558e-05
-1.23648e-05
-1.69769e-05
-2.79487e-05
-9.57611e-07
-6.84997e-05
-1.02349e-06
-7.07542e-05