/*--------------------------------*- C++ -*----------------------------------*\
| =========                 |                                                 |
| \\      /  F ield         | foam-extend: Open Source CFD                    |
|  \\    /   O peration     | Version:     4.1                                |
|   \\  /    A nd           | Web:         http://www.foam-extend.org         |
|    \\/     M anipulation  |                                                 |
\*---------------------------------------------------------------------------*/
FoamFile
{
    version     2.0;
    format      ascii;
    class       volScalarField;
    location    "0.35";
    object      psi;
}
// * * * * * * * * * * * * * * * * * * * * * * * * * * * * * * * * * * * * * //

dimensions      [1 -1 -2 0 0 0 0];

internalField   nonuniform List<scalar> 
2268
(
-3.00133e-10
-4.27323e-11
-1.17043e-09
-2.41419e-08
-8.75926e-08
-2.95412e-07
-8.65529e-08
-8.099e-06
-4.68664e-06
-0.00285427
-0.000938428
-0.000425761
-0.0011168
-0.0673786
-0.423741
-2.52613
-5.93167
-10.5777
-18.8752
-542.988
-561.013
-1685.15
734.465
-3.97412e-10
-9.76752e-09
-6.08964e-08
-1.13404e-06
-3.89634e-06
-1.05396e-05
-4.22557e-06
-0.000224305
-0.000150217
-0.0259663
-0.00741354
-0.00740288
-0.0540428
-3.4271
-6.2961
-13.7595
-28.2282
-187.355
-297.211
-1555.77
-2014.18
-1786.2
-1945.83
-2.52153e-08
-3.33835e-07
-1.63794e-06
-2.61387e-05
-8.14847e-05
-0.000176546
-0.000122258
-0.0028416
-0.00241991
-0.11862
-0.327269
-0.182695
-1.04398
-12.3898
-88.4876
-100.712
-139.126
-563.946
-1436.53
-2780.24
-2770.93
-2469.42
-2189.47
-9.28848e-07
-7.26995e-06
-2.85526e-05
-0.00039394
-0.00108801
-0.00186019
-0.00212635
-0.0242449
-0.0290761
-0.746177
-2.21892
-2.01799
-8.00294
-37.9486
-127.567
-310.676
-594.467
-1054.76
-2159
-2829.68
-2773.51
-2724.56
-2353.54
-2.28573e-05
-0.000116755
-0.000374706
-0.00435789
-0.00995755
-0.014148
-0.0262638
-0.16233
-0.367518
-4.49958
-16.8909
-8.33174
-17.2778
-23.147
-58.6962
-177.039
-364.921
-585.724
-1373.42
-2839.04
-2851.48
-2851.37
-2546.14
-0.000431397
-0.00145067
-0.003909
-0.0371263
-0.0651327
-0.0855491
-0.292375
-0.88615
-5.57571
-24.7534
-54.8666
-32.8035
-22.3047
-7.48825
-16.1986
-41.9977
-88.2524
-137.401
-364.627
-2307.66
-2688.25
-2825.3
-2715.67
-0.00602473
-0.0151449
-0.034598
-0.249921
-0.328711
-0.420489
-1.68048
-6.48828
-37.0466
-139.021
-153.161
-155.48
-95.6818
-43.7149
-61.3532
-46.8921
-41.9606
-46.8068
-81.7872
-745.474
-1302.31
-2334.33
-2688.42
-0.0686234
-0.134379
-0.261762
-1.33176
-1.35534
-1.78097
-6.89565
-32.6376
-147.817
-480.54
-546.038
-480.033
-235.181
-190.542
-147.439
-85.1719
-79.5512
-84.8679
-235.897
-847.143
-1115.17
-1624.44
-2593.58
97.2253
116.627
111.745
121.393
194.235
270.521
328.826
387.664
968.304
1477.83
2148.35
1368.32
2634.16
2845.37
2817.01
2674.33
2280.74
1716.93
833.975
82.6443
68.7972
17.3407
10.2503
10.5562
22.8775
98.986
89.8494
514.588
1605.08
2835.32
2650.77
2841.11
2605.09
2732.09
2849.53
2548.85
1791.37
825.917
66.6231
51.1697
15.6292
7.46169
13.1002
20.03
175.003
128.524
904.175
2787.39
2093.7
2409.89
2145.08
2234
2540.68
2831.98
2695.24
1717.17
774.805
49.1312
29.3913
7.50091
5.56699
43.1755
57.4823
188.478
567.266
1823.89
2010
990.756
1333.81
1433.05
1798.7
2309.18
2743.29
2804.95
1864.57
718.885
25.0197
9.69236
2.29926
4.50841
142.225
208.134
287.118
481.402
2544.49
2374.26
867.094
772.914
900.303
1476.21
2118.52
2676.59
2837.78
2059.96
709.97
7.8525
7.0028
22.0216
38.6082
644.674
608.52
623.398
1165.41
2624.48
2425.76
604.214
372.367
549.954
1170.89
1981.75
2697.1
2794.52
2096.17
718.865
15.5258
46.4715
293.136
941.089
1595.59
1572.61
1090.68
1148.54
2341.73
2292.85
509.5
230.409
441.556
1085.74
2050.46
2827.25
2408.1
1858.56
708.422
80.7614
154.956
1858.69
2811.31
2844.55
2819.18
2131.25
2094.96
2782.76
1954.58
332.226
179.013
426.728
1139.92
2232.56
2855.38
2023.76
1480.47
670.631
-0.911003
-1.6663
-2.53598
-8.23752
-6.54141
-9.56255
-30.4481
-212.88
-774.245
-1726.56
-1947.7
-1691.89
-1352.78
-771.494
-372.636
-376.725
-376.586
-317.472
-337.638
-421.428
-662.439
-1073.7
-2069.52
-10.5328
-19.4177
-23.1754
-44.8244
-32.2349
-58.026
-140.544
-1079.93
-2766.41
-2142.57
-1961.48
-1864.77
-2300.66
-2853.92
-2366.48
-2049.35
-1906.17
-1787.14
-1410.01
-1063.2
-1011.88
-1233.34
-1983.76
-113.514
-139.723
-151.516
-183.551
-157.109
-272.174
-425.088
-2266.04
-1383.32
701.523
1076.54
1403.82
1562.83
1313.25
-177.903
-2058.29
-2485.39
-2713.51
-2849
-2435.74
-1562.56
-1646.84
-2025.49
-645.705
-1006.92
-657.647
-634.313
-657.486
-1012.08
-983.976
-2584.13
-807.659
531.5
986.8
1363.34
2233.12
2615.33
2771.18
2635.64
2413.88
2039.03
131.455
-2742.43
-2525.71
-2306.44
-2356.13
-1976.27
-2840.39
-2093.86
-1580.02
-2281.45
-2370.64
-1882.54
-2550.64
-2830.38
-2003.87
-652.17
-88.5198
539.305
1363.12
2337.46
2853.24
2730.73
2768.59
2807.89
1540.99
-863.657
-2396.78
-2749.23
-2791.59
-210.68
-2847.49
-2756.94
-2218.28
-2303.5
-2853.23
-2850.54
-2852.84
-2348.77
-564.447
-87.2104
129.81
789.04
1887.85
2680.87
2735.02
2525.42
2734.79
2846.49
2546.06
2115.34
1332.72
487.671
1975.6
-2019.6
-1665.54
1375.69
1692.22
-291.182
-747.46
-666.94
626.727
2438.8
2473.06
1846.84
1789.65
2794.67
2771.51
2439.52
2158.25
2116.7
2329.74
2451.52
2547.46
2812.08
2816.32
2363.59
-414.407
1227.16
2850.36
2813.14
2536.97
1891.7
2671.72
2691.52
2298.87
2376.75
2857.27
2857.14
1251.36
883.878
1036.7
1283.5
1336.24
1409.2
1454.39
2009.51
2301.85
2622.82
2810.47
2252.91
2808.1
2074.29
2170.56
2803.99
2857.14
2342.41
1798.4
1401.82
1158.32
2230.77
745.086
140.04
107.88
133.058
417.196
672.009
702.8
892.539
1164.05
879.325
2402.18
2542.63
2790.45
2512.24
1054.82
1371.82
2254.54
1785.06
868.546
1396.61
984.322
394.931
259.015
77.1247
22.6889
25.1093
47.0156
214.851
364.008
231.18
278.139
417.922
208.674
2213.13
1874.06
2351.39
1766.81
577.56
563.828
1203.48
564.343
447.276
1302.14
902.834
262.3
102.18
19.4346
13.0125
20.3353
38.5597
87.022
139.158
66.8722
81.985
131.925
66.8227
1639.93
1116.49
1773.02
991.089
377.823
116.94
335.107
160.792
376.219
1285.15
1015.8
360.814
165.121
13.1557
9.18403
18.4897
24.4368
35.496
53.3198
45.7507
44.6789
51.4586
20.8318
952.771
541.744
845.98
334.278
218.407
28.8026
74.2778
40.0668
291.503
1331.84
1476.33
669.315
287.89
10.8629
4.32109
14.5034
25.4646
27.9871
32.3772
32.4962
28.2422
22.1392
5.98488
584.955
212.985
349.262
86.1283
11.2361
2.81663
8.1409
6.37238
199.754
1233.24
1626.59
862.511
305.554
13.284
1.69492
3.40392
8.94239
11.2335
16.5009
17.405
17.5432
4.96302
1.21996
346.314
59.1255
161.743
36.4466
1.35873
0.211225
0.492951
1.66099
11.5424
361.632
1397.43
987.414
157.937
2.45735
0.546641
0.558571
1.07966
1.86318
5.20784
7.48642
8.33747
1.32596
0.320856
202.632
24.7591
84.5221
21.2818
0.352131
0.0446783
0.146227
2.49067
6.78787
48.9808
490.536
1706.83
422.261
1.29699
0.255097
0.189735
0.142565
0.158483
0.511488
1.0559
1.2102
0.131487
0.0977064
99.5647
9.36131
37.2954
7.31895
0.096021
0.0235574
0.0589527
4.53057
28.4361
169.869
1201.42
2811.42
1172.02
9.80127
0.114861
0.0871807
0.0410181
0.0209154
0.0205295
0.018929
0.0269047
0.00924647
0.0197062
8.34257
3.53012
16.0893
2.11125
0.0187301
0.00893591
0.0444293
0.5047
5.63735
48.785
301.896
1466.79
62.0369
0.0210289
0.0255864
0.0241862
0.00797651
0.0032302
0.00244926
0.00232409
0.00243958
0.0021732
0.00333594
0.0591045
0.282459
6.13549
0.264923
0.00249238
0.00140758
0.00119239
0.00216527
0.00279688
0.0016388
0.00941583
0.0385091
0.00163028
0.00166498
0.00207616
0.002868
0.00206105
0.000506223
0.000277523
0.000284313
0.000369175
0.00045678
0.00055917
0.0112915
0.0805369
2.58269
0.0180996
0.000424173
0.000377762
0.000417007
0.000691785
0.000897346
1.43737e-05
1.0496e-05
2.69963e-05
4.30803e-05
8.09087e-05
0.000153693
0.000224288
0.000269057
0.000297597
0.000137431
6.78922e-05
4.77994e-05
4.24835e-05
4.7722e-05
0.00189034
0.00809175
0.0238074
0.000254734
4.92238e-05
2.82543e-05
8.57229e-05
7.19482e-05
0.000247564
1.41331e-05
3.51685e-06
8.97156e-07
6.72671e-06
1.5262e-05
2.66925e-05
3.09912e-05
3.58723e-05
3.6243e-05
3.05358e-05
7.45887e-06
2.8261e-06
1.09256e-06
2.09097e-06
4.71874e-05
6.93759e-05
0.00022028
4.69149e-06
2.86137e-06
4.25016e-06
1.92098e-05
1.13846e-05
2.53557e-05
1.41174e-05
1.16861e-05
9.74225e-09
2.61004e-08
1.15753e-07
3.45703e-07
1.01801e-06
1.81732e-06
1.75097e-06
1.9503e-06
3.27513e-07
1.27955e-07
7.64481e-08
2.04375e-07
1.08214e-05
6.54342e-07
1.3407e-07
1.1475e-07
3.99012e-08
5.48779e-07
9.83258e-07
1.69473e-07
1.21049e-07
1.08632e-08
2.96864e-09
7.89438e-10
1.29056e-09
5.29504e-09
1.47683e-08
7.34296e-08
1.28808e-07
1.34912e-07
1.31203e-07
4.25715e-08
1.09366e-08
4.87669e-09
1.42335e-08
1.83169e-06
1.83484e-07
8.91841e-09
1.05901e-08
-6.35742e-09
7.66939e-08
1.04501e-07
1.37144e-09
2.15513e-10
1.31873e-10
1.4188e-10
1.51885e-10
2.3374e-10
3.32873e-10
8.72201e-10
2.45107e-09
6.71476e-09
8.07446e-09
7.9826e-09
3.58885e-09
4.82938e-10
2.24644e-10
7.79433e-10
1.20131e-07
3.83197e-08
5.25673e-10
1.34059e-09
5.36966e-09
1.66799e-09
2.97584e-09
3.89263e-10
1.31877e-10
1.78261e-10
1.53705e-10
1.437e-10
1.71895e-10
1.50067e-10
1.72804e-10
1.86446e-10
4.13818e-10
4.88396e-10
5.88441e-10
3.87444e-10
1.18232e-11
-2.63755e-11
1.27329e-10
4.48344e-10
-1.19662e-14
2.09184e-10
2.00998e-10
1.84626e-10
1.7826e-10
1.84627e-10
1.96451e-10
1.86446e-10
1.41881e-10
1.88265e-10
2.00998e-10
1.38243e-10
1.86446e-10
1.60071e-10
1.50067e-10
1.628e-10
9.36778e-11
6.6393e-11
3.09227e-11
-4.91128e-11
-3.27419e-11
1.05501e-10
1.48248e-10
-6.36655e-12
1.86446e-10
2.39197e-10
2.14641e-10
1.84627e-10
2.04636e-10
2.06455e-10
1.9827e-10
1.46429e-10
1.68257e-10
1.58252e-10
1.76442e-10
1.80989e-10
1.86446e-10
2.04636e-10
1.20053e-10
6.27551e-11
6.09361e-11
3.63798e-11
-2.27374e-11
-1.00045e-11
1.27329e-10
2.09184e-10
-6.91218e-11
1.8099e-10
2.37378e-10
1.74623e-10
1.6189e-10
1.76442e-10
1.82808e-10
1.33696e-10
1.27329e-10
1.09139e-10
1.51886e-10
1.36424e-10
2.11003e-10
1.19144e-10
1.82808e-10
1.628e-10
1.17325e-10
1.09139e-10
1.00954e-10
3.00133e-11
1.00044e-11
1.11868e-10
2.31012e-10
-7.91262e-11
1.48248e-10
1.99179e-10
1.78261e-10
1.82808e-10
1.84627e-10
1.78261e-10
1.76442e-10
1.51886e-10
1.48248e-10
1.76442e-10
1.96451e-10
2.07365e-10
1.88265e-10
1.71894e-10
1.86446e-10
1.21872e-10
9.73159e-11
9.3678e-11
4.91127e-11
-3.65437e-17
1.40062e-10
2.02817e-10
-4.63843e-11
1.35515e-10
2.49202e-10
2.32831e-10
2.27374e-10
2.14641e-10
1.89175e-10
1.28239e-10
1.94632e-10
1.68257e-10
1.51886e-10
2.31012e-10
1.72804e-10
1.89175e-10
2.35559e-10
2.14641e-10
1.13687e-10
6.27551e-11
5.63887e-11
2.27374e-11
-8.27641e-11
6.09362e-11
2.25555e-10
-7.27598e-11
1.51886e-10
1.99179e-10
2.12822e-10
2.02817e-10
2.3374e-10
1.86446e-10
1.68257e-10
1.8008e-10
1.76442e-10
1.64619e-10
2.12822e-10
2.04636e-10
1.45519e-10
1.8008e-10
2.19188e-10
1.56433e-10
1.23691e-10
9.3678e-11
1.00044e-11
-5.63887e-11
1.15506e-10
2.85581e-10
-5.91173e-11
1.86446e-10
2.09184e-10
1.76442e-10
2.04636e-10
2.19188e-10
1.72804e-10
1.2551e-10
1.54614e-10
1.64619e-10
1.74623e-10
2.00998e-10
2.51021e-10
1.90994e-10
2.24645e-10
1.89175e-10
2.09184e-10
1.38243e-10
2.63753e-11
-3.27418e-11
-8.54926e-11
4.91128e-11
2.41926e-10
-8.27642e-11
1.78261e-10
1.94632e-10
1.628e-10
1.21872e-10
2.3374e-10
2.14641e-10
1.99179e-10
2.11003e-10
2.00998e-10
1.72804e-10
1.70075e-10
1.72804e-10
2.06455e-10
1.89175e-10
1.84627e-10
1.628e-10
1.70076e-10
6.91216e-11
1.63709e-11
-5.91172e-11
3.63798e-11
2.39197e-10
-7.91262e-11
1.92813e-10
1.628e-10
1.36424e-10
1.03682e-10
1.9827e-10
2.71939e-10
1.90994e-10
1.78261e-10
2.17369e-10
1.92813e-10
1.89175e-10
1.68256e-10
2.31012e-10
2.22826e-10
2.3374e-10
1.21872e-10
1.437e-10
6.73026e-11
-1.36425e-11
-6.27552e-11
8.73116e-11
1.58252e-10
-7.27597e-11
1.66438e-10
1.45519e-10
1.51886e-10
8.73114e-11
2.68301e-10
2.65573e-10
1.628e-10
1.58252e-10
1.74623e-10
2.11003e-10
1.84627e-10
2.04636e-10
1.84627e-10
1.88265e-10
2.39197e-10
1.68256e-10
1.80989e-10
1.11868e-10
6.27552e-11
-6.63932e-11
7.91261e-11
1.48248e-10
-4.27463e-11
1.23691e-10
9.73159e-11
1.23691e-10
4.63842e-11
1.8008e-10
1.8008e-10
1.60071e-10
1.6189e-10
1.58252e-10
1.86446e-10
1.71894e-10
1.64619e-10
1.27329e-10
1.92813e-10
1.56433e-10
1.94632e-10
1.38243e-10
1.33696e-10
4.54742e-12
-5.27507e-11
3.81988e-11
6.45742e-11
-1.11868e-10
5.27507e-11
5.09317e-11
7.54881e-11
1.36423e-11
1.20053e-10
8.54925e-11
7.45785e-11
1.8008e-10
1.15506e-10
1.68257e-10
1.82808e-10
9.27684e-11
1.13687e-10
1.86446e-10
1.80989e-10
2.07365e-10
2.25555e-10
1.27329e-10
5.91172e-11
-5.63888e-11
1.05502e-10
5.09318e-11
-1.51886e-10
4.27463e-11
4.82032e-11
8.0945e-11
8.54925e-11
6.73026e-11
3.63798e-11
9.09495e-11
1.03682e-10
6.63931e-11
7.27595e-11
1.50067e-10
2.63753e-11
4.63842e-11
1.05501e-10
9.73159e-11
2.06455e-10
1.6189e-10
1.23691e-10
5.09317e-11
4.54745e-12
1.28239e-10
-4.91127e-11
-1.45519e-10
2.18279e-11
6.36645e-12
5.91172e-11
6.45741e-11
6.09362e-11
-2.27374e-11
1.63709e-11
4.00178e-11
5.27507e-11
7.27596e-11
2.27373e-11
-1.00045e-11
1.81899e-11
3.27418e-11
8.0945e-11
1.50067e-10
1.20053e-10
1.21872e-10
1.01863e-10
-3.63799e-11
1.19144e-10
-6.63931e-11
-1.41881e-10
4.09273e-11
-5.27508e-11
2.63754e-11
5.91172e-11
-3.638e-12
-1.09139e-10
-1.36424e-11
-2.00089e-11
-5.27508e-11
-2.63754e-11
-5.27507e-11
1.00045e-11
-7.91261e-11
2.27374e-11
-2.27374e-11
-1.6371e-11
3.00133e-11
5.09317e-11
7.45786e-11
-4.63844e-11
5.09317e-11
-3.27418e-11
-1.28239e-10
1.03682e-10
1.18234e-11
2.45563e-11
1.11868e-10
3.81988e-11
-1.11868e-10
2.0009e-11
-8.91306e-11
3.12759e-17
-3.63798e-11
-5.91172e-11
-1.63709e-11
-7.27597e-11
5.63888e-11
-4.91128e-11
-6.27552e-11
-4.91128e-11
-9.91351e-11
6.27551e-11
1.70076e-10
1.53705e-10
-3.63798e-11
-4.63843e-11
1.628e-10
8.91305e-11
1.17325e-10
1.46429e-10
6.27551e-11
-2.63754e-11
4.91128e-11
-4.00178e-11
7.73071e-11
-2.00089e-11
-3.63798e-12
8.54926e-11
5.09317e-11
6.63931e-11
5.27507e-11
9.5497e-11
7.09406e-11
8.91305e-11
1.48248e-10
2.90129e-10
9.54968e-11
-2235.7
-2382.86
-2674.99
2137.88
-2297.57
-2414.91
-2531.34
-2697.58
-2373.65
-2541.54
-2632.61
-2732.11
-2454.14
-2554.08
-2661.86
-2737.39
-2850.03
-2856.96
-2852.25
-2850.89
253.348
-851.003
-1657.35
-1965.85
2793.03
2345.76
1697.25
1608.52
2579.14
2770.29
2828.27
2707.69
1106.19
1480.1
1473.74
1130.98
282.908
535.358
595.811
795.731
83.0892
139.794
146.92
339.166
15.4936
26.6764
15.8099
19.875
3.82118
3.8723
1.49791
0.891876
0.790051
0.721871
0.306804
0.364198
0.123706
0.107802
0.0676169
0.142099
0.0256238
0.0207166
0.0245018
0.0355646
0.00806048
0.00549058
0.00484346
0.00683936
0.00177146
0.00130711
0.00119646
0.00132876
0.000324204
0.000264197
0.000250246
0.000250836
3.46895e-05
3.37335e-05
3.37707e-05
3.03753e-05
2.59646e-06
2.75296e-06
3.75786e-06
4.24938e-06
3.05832e-07
3.70546e-07
5.22019e-07
6.71825e-07
2.98777e-08
4.37866e-08
6.19656e-08
8.46829e-08
1.75532e-09
3.04679e-09
4.78938e-09
7.64974e-09
1.7826e-10
2.6739e-10
5.32053e-10
9.72248e-10
4.82031e-11
4.82029e-11
2.1555e-10
2.55568e-10
5.09317e-11
3.00131e-11
1.46429e-10
1.6189e-10
-3.63807e-12
-3.27421e-11
1.21872e-10
1.9827e-10
4.09273e-11
-3.27421e-11
1.00954e-10
9.73159e-11
-3.00134e-11
-6.9122e-11
1.35515e-10
1.71895e-10
-1.00045e-11
-2.27375e-11
8.54926e-11
8.73115e-11
2.45564e-11
-1.00047e-11
1.20053e-10
1.50067e-10
-1.63709e-11
-4.27465e-11
8.36736e-11
1.54614e-10
2.27374e-11
-2.27375e-11
2.27373e-11
8.91306e-11
-2.27374e-11
-1.0914e-10
7.54882e-11
1.53705e-10
2.18281e-11
-9.91353e-11
4.45654e-11
8.36736e-11
-2.63753e-11
-1.31877e-10
4.63844e-11
1.13687e-10
1.819e-11
-7.91262e-11
-5.27508e-11
6.09364e-11
-1.63709e-11
-9.27686e-11
-4.27463e-11
6.09363e-11
-3.27418e-11
-1.25511e-10
-8.54927e-11
4.63844e-11
8.1852e-12
8.09451e-11
1.71895e-10
2.02817e-10
1.36425e-10
-6.27554e-11
-8.27641e-11
-1.15506e-10
973.832
1972.67
2453
713.592
173.246
579.25
1917.39
1929.82
1435.46
190.195
-31.8144
137.044
745.693
1633.07
2699.19
2563.71
1429.61
978.897
564.744
-1508.51
-1324.4
-2097.32
-2723.66
-2783.59
-2754.76
-2584.51
-2224.27
-1633.32
-969.3
-159.514
1113.58
2538.09
2847.6
2504.71
1522.37
725.948
618.984
453.769
-2856.76
-2834.37
-2849.32
-2857.54
-2857.53
-2857.49
-2836.43
-2630.12
-2072.45
-418.054
1791.45
2785.66
2218.99
1797.96
1318.29
457.823
141.816
154.33
334.055
-2825.84
-2854.75
-2853.38
-2856.61
-2856.81
-2839.61
-2761.03
-2241.08
-110.463
2556.27
2579.47
1391.3
1096.34
1041.38
1059.11
999.744
750.421
390.491
264.188
-2856.81
-2785.86
-2768.29
-2492.07
-2134.57
-1791.04
-1983.02
-1619.53
716.542
2857.48
1962.27
815.366
512.073
478.529
537.847
587.297
563.153
373.933
207.243
-1116.51
2187.24
1658.46
2231.05
2151.51
1136.05
-423.843
-274.542
1674.43
2644.49
1134.99
335.659
200.387
212.566
278.991
312.615
375.739
330.247
176.791
2618.58
2648.85
2459.26
2424.69
2820.81
1432.34
1149.71
2387.82
2266.73
828.751
291.069
145.77
126.603
140.016
188.321
164.795
205.919
270.924
159.011
2272.1
1700.96
594.146
665.231
1834.44
2823.21
2824.19
2635
1258.97
596.645
314.861
165.516
113.042
115.026
126.557
133.063
136.116
207.163
142.507
1506.75
885.695
131.445
111.602
815.468
2714.69
2488.76
1549.63
609.716
276.472
153.015
102.061
91.7694
92.8556
78.6301
51.6791
61.6692
148.093
128.621
304.782
31.4813
15.041
17.3042
49.1734
733.422
754.838
572.837
288.951
127.079
84.0093
72.2378
76.2111
74.2237
50.4073
12.9291
25.0816
105.446
115.656
38.4069
8.93412
6.10968
9.07602
16.8483
30.5498
45.6479
49.6314
57.0332
67.9139
69.7773
66.0372
58.9921
61.9582
47.0993
11.8191
16.9082
83.3558
103.793
3.95692
2.19573
2.89855
4.55346
8.98337
18.6089
29.1715
28.7336
39.4043
69.1401
80.0367
70.8835
61.0838
66.3266
56.1475
15.1896
19.0803
76.7103
91.9149
0.726905
1.03675
1.71369
2.04454
3.75104
4.47149
7.29949
10.0826
27.0961
74.0681
94.3305
80.6681
76.7258
79.7593
42.5157
6.5825
23.2053
71.2479
79.051
0.371737
0.565332
0.708347
0.776448
1.55347
1.51138
2.81847
6.53299
16.9236
44.1935
93.492
99.4317
99.8791
86.8238
23.0685
4.191
24.3171
61.3411
65.1692
0.151455
0.162915
0.198016
0.218565
0.47958
0.646427
1.9
5.97942
17.2479
34.866
79.2566
99.7112
98.2226
71.1967
10.4405
4.20511
21.2218
45.6802
50.0594
0.0311083
0.0254304
0.0439506
0.062049
0.19914
0.492462
1.86529
4.30822
8.31569
22.6675
52.0519
80.5259
69.1946
29.7112
3.66806
2.99033
13.5241
26.9824
31.7707
0.008649
0.00993954
0.0203748
0.0369029
0.135943
0.414652
1.10969
2.02367
4.68547
12.7279
23.8041
31.63
33.0991
12.297
1.75264
1.40131
6.03919
11.995
13.9416
0.00198431
0.00266482
0.0103898
0.0259565
0.0631906
0.146529
0.328206
0.608309
0.915406
1.69002
4.1843
7.7922
10.5608
2.81871
0.627565
0.563699
2.13879
4.00002
4.25696
0.000458913
0.000845883
0.00208535
0.00563189
0.0225856
0.0424571
0.0595062
0.106439
0.155155
0.555976
1.65604
2.95154
3.50038
0.792797
0.202469
0.158944
0.528227
1.04299
0.943982
4.10484e-05
9.65967e-05
0.000319824
0.00108535
0.00181969
0.0022645
0.00550711
0.0172794
0.0574919
0.245109
0.595269
0.777587
0.78502
0.201993
0.0546059
0.0384212
0.117371
0.222909
0.17023
7.01771e-06
1.57273e-05
3.48734e-05
9.71444e-05
0.000204059
0.000571178
0.00183853
0.0053758
0.0197087
0.0752281
0.176545
0.203759
0.200882
0.0633767
0.0150281
0.00795711
0.020605
0.0374075
0.0243627
1.13613e-06
2.09541e-06
4.6271e-06
1.00269e-05
2.15877e-05
6.93218e-05
0.000331088
0.00172086
0.00825271
0.0218067
0.0386188
0.0428359
0.0407637
0.0137605
0.00309956
0.00167317
0.00305751
0.00517962
0.00288486
1.37411e-07
2.93543e-07
6.18141e-07
1.36434e-06
4.12242e-06
1.84936e-05
9.53339e-05
0.00043862
0.00122911
0.00219466
0.00522187
0.00923833
0.0101797
0.00289857
0.000648819
0.00028916
0.000391513
0.000580838
0.000287173
1.4631e-08
3.39777e-08
6.99582e-08
1.62851e-07
5.58263e-07
2.47532e-06
1.23458e-05
5.45116e-05
0.00015874
0.000267808
0.000784928
0.00172463
0.00206383
0.000406353
0.000118882
4.6938e-05
4.55359e-05
5.51044e-05
2.42036e-05
1.54159e-09
3.33329e-09
7.3014e-09
2.07774e-08
7.77989e-08
3.20777e-07
1.45257e-06
6.44348e-06
2.28823e-05
4.2467e-05
0.00014488
0.000235136
0.000259228
5.16971e-05
2.16739e-05
6.53708e-06
4.74955e-06
4.42117e-06
1.75596e-06
1.88265e-10
4.20186e-10
8.39462e-10
2.17641e-09
8.14359e-09
3.4688e-08
1.58598e-07
7.37315e-07
3.5424e-06
6.88759e-06
2.13717e-05
2.76423e-05
3.07551e-05
8.56553e-06
3.5752e-06
8.6871e-07
4.0322e-07
3.2154e-07
1.16026e-07
1.11868e-10
1.54614e-10
1.58252e-10
2.70119e-10
1.02409e-09
4.63386e-09
2.34413e-08
1.24446e-07
5.17008e-07
9.9008e-07
2.78473e-06
2.80187e-06
3.57844e-06
1.21243e-06
4.7967e-07
1.09286e-07
3.25543e-08
2.20051e-08
7.19316e-09
1.41881e-10
1.31877e-10
1.60071e-10
1.17325e-10
1.88265e-10
6.77572e-10
2.94948e-09
1.4953e-08
3.85224e-08
1.36711e-07
3.26995e-07
2.42282e-07
4.02603e-07
1.48715e-07
5.21203e-08
1.25819e-08
2.55021e-09
1.47065e-09
5.70251e-10
6.73025e-11
1.50067e-10
1.33696e-10
1.0732e-10
1.19144e-10
1.11868e-10
3.31055e-10
1.56433e-09
4.03542e-09
1.63281e-08
2.45181e-08
1.99906e-08
4.07271e-08
1.57915e-08
5.61884e-09
1.27966e-09
2.17368e-10
5.63882e-11
1.74623e-10
1.00954e-10
1.94632e-10
1.74623e-10
1.48248e-10
1.30058e-10
5.91171e-11
1.19144e-10
2.57387e-10
5.15682e-10
1.59707e-09
2.16914e-09
2.19552e-09
2.63116e-09
1.57069e-09
6.36645e-10
1.54614e-10
4.09272e-11
-2.00089e-11
9.27685e-11
6.45741e-11
1.56433e-10
1.23691e-10
1.21872e-10
7.9126e-11
6.73026e-11
7.45785e-11
1.19144e-10
1.15506e-10
2.47382e-10
2.71938e-10
2.91947e-10
3.42879e-10
2.47382e-10
1.8008e-10
1.11868e-10
2.63753e-11
-6.91217e-11
6.27551e-11
8.0945e-11
1.72804e-10
1.36424e-10
7.9126e-11
7.9126e-11
8.54925e-11
9.7316e-11
9.73159e-11
9.36779e-11
1.54614e-10
1.33696e-10
1.58252e-10
1.41881e-10
1.00954e-10
9.73159e-11
8.36735e-11
3.27418e-11
-4.00178e-11
9.5497e-11
1.11868e-10
1.86446e-10
1.88265e-10
9.73159e-11
9.91349e-11
6.91216e-11
5.72981e-11
5.72981e-11
4.91127e-11
1.09139e-10
1.23691e-10
8.36735e-11
1.17325e-10
1.41881e-10
1.05501e-10
1.09139e-10
6.63931e-11
-4.91128e-11
8.36735e-11
4.27462e-11
1.15506e-10
7.45785e-11
7.45786e-11
1.09139e-10
9.91349e-11
1.35515e-10
1.19144e-10
9.73159e-11
8.36735e-11
1.19144e-10
8.54925e-11
1.50067e-10
1.50067e-10
1.17325e-10
9.73159e-11
8.36736e-11
-4.27464e-11
1.51886e-10
9.27684e-11
2.21007e-10
7.9126e-11
3.63797e-11
9.54969e-11
1.00954e-10
9.27684e-11
9.91349e-11
1.01863e-10
9.54969e-11
1.11868e-10
1.40062e-10
1.60071e-10
1.64619e-10
1.28239e-10
6.63931e-11
5.63887e-11
2.81943e-11
1.15506e-10
4.91127e-11
1.13687e-10
1.15506e-10
6.09361e-11
1.17325e-10
8.91304e-11
9.36779e-11
1.09139e-10
1.28239e-10
1.28239e-10
9.27684e-11
1.36424e-10
1.23691e-10
1.96451e-10
1.58252e-10
8.2764e-11
6.91216e-11
-4.65812e-17
7.54881e-11
-7.57376e-17
1.05501e-10
1.45519e-10
1.17325e-10
1.46429e-10
1.71895e-10
1.35515e-10
1.76442e-10
1.09139e-10
1.13687e-10
8.54925e-11
1.03682e-10
6.09361e-11
1.71895e-10
1.80989e-10
7.27595e-11
4.27462e-11
4.54744e-12
1.0732e-10
-2.0009e-11
8.36735e-11
1.70076e-10
1.78261e-10
2.04636e-10
1.13687e-10
1.17325e-10
1.437e-10
1.10049e-10
9.91349e-11
8.36735e-11
4.45652e-11
5.63887e-11
1.09139e-10
1.36424e-10
1.6189e-10
8.36735e-11
2.00088e-11
1.71895e-10
2.63753e-11
1.15506e-10
1.03682e-10
1.88265e-10
1.46429e-10
6.73026e-11
2.81943e-11
8.54925e-11
5.91171e-11
5.45696e-11
8.73115e-11
7.27596e-11
8.0945e-11
9.91349e-11
1.17325e-10
1.19144e-10
1.38243e-10
-1.6371e-11
1.28239e-10
3.09227e-11
5.45697e-11
1.51886e-10
1.64619e-10
1.60071e-10
9.9135e-11
8.09451e-11
9.7316e-11
1.01863e-10
1.0732e-10
1.28239e-10
1.56433e-10
1.46429e-10
8.91305e-11
1.74623e-10
1.628e-10
1.54614e-10
-9.91351e-11
1.10049e-10
2.29193e-10
1.18234e-11
-1.68257e-10
-1.6371e-11
5.63887e-11
-8.27642e-11
-1.00045e-11
1.63709e-11
1.18234e-11
3.81987e-11
6.27551e-11
4.00177e-11
5.63886e-11
3.81987e-11
9.73159e-11
6.27551e-11
9.09495e-11
-7.91261e-11
1.36424e-11
7.54881e-11
1.21872e-10
-5.63887e-11
6.45742e-11
4.91127e-11
1.36424e-11
-1.36424e-11
5.27507e-11
5.63887e-11
8.54925e-11
5.63887e-11
6.45741e-11
7.73071e-11
1.81899e-11
5.91172e-11
5.45697e-11
9.27685e-11
-3.63799e-12
3.63798e-11
)
;

boundaryField
{
    leftWall
    {
        type            zeroGradient;
    }
    rightWall
    {
        type            zeroGradient;
    }
    lowerWall
    {
        type            zeroGradient;
    }
    atmosphere
    {
        type            zeroGradient;
    }
    defaultFaces
    {
        type            empty;
    }
}


// ************************************************************************* //
