/*--------------------------------*- C++ -*----------------------------------*\
| =========                 |                                                 |
| \\      /  F ield         | foam-extend: Open Source CFD                    |
|  \\    /   O peration     | Version:     4.1                                |
|   \\  /    A nd           | Web:         http://www.foam-extend.org         |
|    \\/     M anipulation  |                                                 |
\*---------------------------------------------------------------------------*/
FoamFile
{
    version     2.0;
    format      ascii;
    class       volVectorField;
    location    "0.35";
    object      U_0;
}
// * * * * * * * * * * * * * * * * * * * * * * * * * * * * * * * * * * * * * //

dimensions      [0 1 -1 0 0 0 0];

internalField   nonuniform List<vector> 
2268
(
(-0.0133047 -0.012246 0)
(0.0583842 -0.00752012 0)
(0.0763896 -0.0101776 0)
(0.200517 -0.0139296 0)
(0.272825 -0.0142051 0)
(0.463704 -0.0182485 0)
(0.53446 -0.00250372 0)
(0.62064 -0.0229146 0)
(0.907582 -0.0130425 0)
(0.817018 -0.058427 0)
(0.659472 0.00841179 0)
(0.703251 -0.00915253 0)
(0.746341 0.00610112 0)
(0.724947 0.0410408 0)
(0.81781 0.146018 0)
(0.981233 -0.0368802 0)
(0.961533 0.00914262 0)
(0.766733 0.103546 0)
(0.772819 0.0117666 0)
(0.628785 -0.121146 0)
(0.616414 -0.00598373 0)
(0.447985 0.197559 0)
(-0.528467 -0.32613 0)
(-0.0103329 -0.00853035 0)
(0.0599153 -0.0138864 0)
(0.0773425 -0.0224624 0)
(0.196731 -0.0338133 0)
(0.271631 -0.046373 0)
(0.469678 -0.0487423 0)
(0.527113 -0.0619599 0)
(0.628218 -0.0749655 0)
(0.933097 -0.0365891 0)
(0.790188 -0.203203 0)
(0.674844 0.0240492 0)
(0.71806 -0.0434297 0)
(0.761272 -0.0206466 0)
(0.781699 -0.0704804 0)
(0.793738 0.0894901 0)
(0.838301 0.0290776 0)
(0.970548 0.031112 0)
(0.790424 -0.0628959 0)
(0.653691 0.0396243 0)
(0.63171 -0.0910587 0)
(0.650244 0.0344538 0)
(0.541144 0.332027 0)
(0.534662 0.227248 0)
(-0.0125671 -0.0364109 0)
(0.0578647 -0.0287084 0)
(0.0751314 -0.0419423 0)
(0.187949 -0.061095 0)
(0.260887 -0.0776599 0)
(0.446915 -0.0766856 0)
(0.536602 -0.0660227 0)
(0.674706 -0.140207 0)
(0.862694 -0.0601405 0)
(0.796264 -0.242452 0)
(0.676258 -0.0326573 0)
(0.624995 0.00715177 0)
(0.659539 -0.0637618 0)
(0.674634 0.0846065 0)
(0.821536 0.141737 0)
(0.905831 0.225052 0)
(0.950385 0.108897 0)
(0.766692 -0.103164 0)
(0.634716 0.00298037 0)
(0.430137 -0.0853194 0)
(0.202109 0.120527 0)
(0.432419 0.341777 0)
(0.465802 0.252488 0)
(-0.00500274 -0.0276129 0)
(0.0662131 -0.0346967 0)
(0.0764316 -0.0518377 0)
(0.173773 -0.0788154 0)
(0.258388 -0.105465 0)
(0.471525 -0.124918 0)
(0.554386 -0.0449586 0)
(0.689175 -0.156281 0)
(0.794772 -0.0578385 0)
(0.722776 -0.182593 0)
(0.668208 -0.175733 0)
(0.592558 -0.135092 0)
(0.666335 0.046963 0)
(0.807006 0.0810985 0)
(0.781005 0.172757 0)
(0.830475 0.19772 0)
(0.833151 0.0935469 0)
(0.719033 0.00535607 0)
(0.490449 -0.0613765 0)
(0.326243 0.0867441 0)
(-0.129768 0.0370432 0)
(0.186003 0.361991 0)
(0.431187 0.391803 0)
(-0.0127065 -0.0683427 0)
(0.0600417 -0.0493447 0)
(0.0654176 -0.067086 0)
(0.160873 -0.105767 0)
(0.25178 -0.149169 0)
(0.492023 -0.147746 0)
(0.489662 -0.136334 0)
(0.622765 -0.206933 0)
(0.731287 -0.0694087 0)
(0.665314 -0.199085 0)
(0.642315 -0.213782 0)
(0.683089 -0.16785 0)
(0.726933 0.0695697 0)
(0.749346 -0.148464 0)
(0.834735 0.0884625 0)
(0.717492 0.228102 0)
(0.690485 0.100677 0)
(0.645768 0.0663597 0)
(0.576085 0.122279 0)
(0.369897 0.238484 0)
(0.0644733 0.106646 0)
(0.0133438 0.249802 0)
(0.400768 0.416698 0)
(0.00156109 -0.0459331 0)
(0.0694746 -0.0526914 0)
(0.0611599 -0.0740008 0)
(0.151419 -0.122898 0)
(0.255895 -0.185356 0)
(0.445798 -0.184536 0)
(0.450117 -0.235188 0)
(0.602229 -0.266005 0)
(0.703783 -0.132741 0)
(0.641263 -0.185277 0)
(0.68887 -0.269742 0)
(0.698041 -0.0323843 0)
(0.692301 -0.170237 0)
(0.788655 -0.0893326 0)
(1.04031 0.0329059 0)
(0.82104 0.261771 0)
(0.734597 0.161686 0)
(0.700508 0.146002 0)
(0.667959 0.109164 0)
(0.561495 0.299716 0)
(0.480789 0.223439 0)
(0.0979434 0.294957 0)
(0.347681 0.47849 0)
(-0.0104821 -0.030555 0)
(0.0583707 -0.0665335 0)
(0.0459599 -0.0865929 0)
(0.149644 -0.157052 0)
(0.271531 -0.21684 0)
(0.399224 -0.196448 0)
(0.410727 -0.207714 0)
(0.646509 -0.201468 0)
(0.728243 -0.281375 0)
(0.614856 -0.216426 0)
(0.713468 -0.183188 0)
(0.804719 -0.202535 0)
(0.76851 0.0449468 0)
(0.924265 0.0575712 0)
(1.10392 -0.200337 0)
(0.996026 0.137278 0)
(0.680349 0.17891 0)
(0.678795 0.185369 0)
(0.721455 0.19641 0)
(0.71298 0.329816 0)
(0.685118 0.318626 0)
(0.373093 0.400628 0)
(0.39311 0.566142 0)
(-0.0142308 -0.0551037 0)
(0.0547604 -0.0623226 0)
(0.0415421 -0.0927309 0)
(0.163858 -0.169855 0)
(0.261381 -0.24469 0)
(0.387416 -0.216508 0)
(0.437772 -0.32909 0)
(0.545032 -0.220018 0)
(0.695707 -0.320134 0)
(0.672449 -0.236145 0)
(0.726811 -0.117408 0)
(0.850967 -0.190516 0)
(0.808005 0.0258216 0)
(0.795497 -0.126549 0)
(1.00654 0.00538004 0)
(0.915146 0.195348 0)
(0.645882 0.0524857 0)
(0.590066 0.136228 0)
(0.616809 0.26639 0)
(0.710053 0.370975 0)
(0.71889 0.369151 0)
(0.601164 0.489177 0)
(0.350783 0.829863 0)
(-1.23686 0.469664 0)
(-1.9235 0.0751919 0)
(-1.86614 -0.292353 0)
(-1.49829 -0.343776 0)
(-1.29565 -0.147448 0)
(-1.18333 -0.126782 0)
(-0.938553 -0.180831 0)
(-0.817773 -0.189164 0)
(-0.783077 -0.0825566 0)
(-0.61667 0.0216518 0)
(-0.35774 -0.0741637 0)
(-0.83747 0.0607521 0)
(0.0262042 -0.280412 0)
(0.605546 -0.245526 0)
(1.1889 -0.255376 0)
(1.60269 0.0424449 0)
(2.35018 -0.0964437 0)
(2.19456 -0.0617672 0)
(1.97329 0.263454 0)
(-1.00952 0.999119 0)
(-1.34215 0.353927 0)
(-0.829734 -0.0893176 0)
(-0.742517 -0.148934 0)
(-0.721532 -0.089455 0)
(-0.463242 -0.153582 0)
(0.13332 -0.127308 0)
(0.398606 -0.273342 0)
(0.225656 0.054526 0)
(-0.521066 0.108752 0)
(0.726297 -0.25219 0)
(0.435957 0.105404 0)
(0.675239 -0.23583 0)
(1.10526 -0.4994 0)
(1.44814 -0.199511 0)
(1.87562 0.233887 0)
(2.20785 0.026046 0)
(1.98556 0.156205 0)
(1.97244 0.645166 0)
(-0.730723 2.26983 0)
(-0.853023 0.723874 0)
(-0.546042 -0.34019 0)
(-0.696345 -0.19684 0)
(-0.697646 -0.146419 0)
(-0.451942 -0.315518 0)
(0.369076 -0.452213 0)
(0.559956 -0.354185 0)
(-0.366084 0.334047 0)
(0.164173 -0.00875977 0)
(0.951449 -0.485032 0)
(0.980749 -0.387651 0)
(1.02118 -0.463471 0)
(1.27195 -0.473694 0)
(1.55835 -0.0409102 0)
(1.769 0.0614382 0)
(1.9738 -0.0986265 0)
(1.68327 0.111923 0)
(1.61679 1.06473 0)
(-0.362187 2.38855 0)
(0.0695573 0.591718 0)
(0.515953 -0.367097 0)
(0.149236 0.17593 0)
(0.131235 -0.348486 0)
(-0.00631459 -0.371805 0)
(0.503076 -0.7074 0)
(-0.129054 0.182175 0)
(-0.84757 0.403428 0)
(0.664508 -0.305395 0)
(1.05476 -0.634536 0)
(1.19124 -0.584785 0)
(1.19909 -0.469823 0)
(1.29227 -0.224895 0)
(1.68156 -0.119627 0)
(1.76455 -0.0148265 0)
(1.85867 -0.045898 0)
(1.60538 0.201149 0)
(1.42619 1.42853 0)
(0.282583 2.18887 0)
(0.669651 0.462922 0)
(0.917661 -0.284493 0)
(0.441925 -0.123971 0)
(0.619704 -0.431092 0)
(0.358614 -0.480303 0)
(0.634998 -0.540982 0)
(-0.100863 0.0444523 0)
(0.306925 0.357098 0)
(0.987421 -0.546634 0)
(1.28765 -0.467668 0)
(1.45017 -0.497915 0)
(1.44801 -0.429679 0)
(1.49111 -0.157008 0)
(1.71572 -0.129591 0)
(1.77886 -0.0675327 0)
(1.88052 -0.0297121 0)
(1.67666 0.25555 0)
(1.28338 1.71695 0)
(0.465009 1.37484 0)
(0.635604 0.163134 0)
(0.495585 -0.130967 0)
(0.467547 0.138022 0)
(0.843623 -0.366009 0)
(0.7289 -0.327713 0)
(0.765078 -0.270518 0)
(-0.666307 0.161687 0)
(1.17964 -0.625783 0)
(1.54487 -0.516951 0)
(1.55647 -0.435117 0)
(1.59564 -0.547232 0)
(1.58274 -0.48945 0)
(1.56055 -0.245391 0)
(1.74357 -0.157749 0)
(1.74163 -0.105005 0)
(1.80053 -0.0386871 0)
(1.69506 0.349644 0)
(1.28117 2.02137 0)
(0.20484 0.802693 0)
(0.301337 0.459953 0)
(0.220092 -0.300018 0)
(0.779869 -0.315654 0)
(0.836596 -0.199944 0)
(0.813552 -0.271441 0)
(0.833389 -0.351378 0)
(0.491274 -0.00592431 0)
(1.31017 -0.568585 0)
(1.70261 -0.301012 0)
(1.63552 -0.453123 0)
(1.70994 -0.545044 0)
(1.67845 -0.456989 0)
(1.59659 -0.222983 0)
(1.66929 -0.156119 0)
(1.64144 -0.11902 0)
(1.66916 -0.0212383 0)
(1.49937 0.427837 0)
(1.17686 2.35757 0)
(0.041272 0.943617 0)
(0.00802009 0.317207 0)
(0.240426 -0.33968 0)
(0.657708 -0.385026 0)
(0.763121 -0.187209 0)
(0.791446 -0.274803 0)
(0.787438 -0.168907 0)
(0.818607 -0.303618 0)
(1.31611 -0.571471 0)
(1.88041 -0.400608 0)
(1.76813 -0.495296 0)
(1.79702 -0.520665 0)
(1.71403 -0.425218 0)
(1.56493 -0.206122 0)
(1.61415 -0.139972 0)
(1.61463 -0.1297 0)
(1.64888 0.00716008 0)
(1.39077 0.494 0)
(1.04112 2.69582 0)
(-0.00933849 -0.0479586 0)
(0.0586484 -0.0837225 0)
(0.0596828 -0.123497 0)
(0.169986 -0.245403 0)
(0.257817 -0.316351 0)
(0.321786 -0.277153 0)
(0.428735 -0.454145 0)
(0.542528 -0.40126 0)
(0.74236 -0.356026 0)
(0.720131 -0.25704 0)
(0.772387 -0.22696 0)
(0.802143 -0.0720978 0)
(0.760436 -0.184841 0)
(0.920878 -0.105772 0)
(1.42375 0.0844903 0)
(1.16217 0.0423459 0)
(0.675779 0.0421192 0)
(0.784529 0.0792887 0)
(0.772047 0.208369 0)
(0.720303 0.242003 0)
(0.739364 0.35802 0)
(0.887533 0.580223 0)
(0.819814 1.11753 0)
(-0.0377473 -0.103548 0)
(0.0275246 -0.116817 0)
(0.0869514 -0.184917 0)
(0.136894 -0.361064 0)
(0.236596 -0.323379 0)
(0.359728 -0.354364 0)
(0.497056 -0.534845 0)
(0.57316 -0.481925 0)
(0.682173 -0.414238 0)
(0.695876 -0.26454 0)
(0.879034 -0.143325 0)
(0.826425 -0.164539 0)
(0.733067 -0.0944974 0)
(0.845106 0.127017 0)
(0.951803 0.0326244 0)
(0.922694 -0.0522643 0)
(0.829875 0.118462 0)
(0.826193 0.172906 0)
(0.796199 0.271334 0)
(0.815112 0.272294 0)
(0.933643 0.394759 0)
(1.33135 0.512248 0)
(1.38179 1.16871 0)
(0.0465448 -0.183067 0)
(0.0425022 -0.223919 0)
(0.0470516 -0.232569 0)
(0.166553 -0.386686 0)
(0.263166 -0.318044 0)
(0.271987 -0.442784 0)
(0.429247 -0.578371 0)
(0.243376 -0.470135 0)
(0.0906804 -0.417664 0)
(0.26688 -0.32572 0)
(0.343289 -0.405494 0)
(0.404515 -0.552411 0)
(0.472975 -0.405727 0)
(0.834709 -0.378002 0)
(0.844148 -0.190556 0)
(0.761625 0.191369 0)
(0.62025 0.330018 0)
(0.56175 0.342548 0)
(0.574172 0.317323 0)
(0.707452 0.332678 0)
(0.936755 0.576949 0)
(1.43788 0.419597 0)
(1.63162 0.672518 0)
(-0.0334966 -0.275976 0)
(0.103863 -0.34121 0)
(0.150436 -0.355355 0)
(0.136558 -0.336565 0)
(0.148119 -0.324451 0)
(0.242452 -0.361145 0)
(0.419023 -0.492443 0)
(0.159542 -0.279295 0)
(0.0742582 -0.478396 0)
(0.225781 -0.363945 0)
(0.284423 -0.55731 0)
(0.509138 -0.637113 0)
(0.507296 -0.448259 0)
(0.643829 -0.364968 0)
(1.11089 0.0570206 0)
(0.964808 0.154873 0)
(0.818669 0.423115 0)
(0.809856 0.425498 0)
(0.728996 0.456293 0)
(0.875793 0.390714 0)
(1.01809 0.465247 0)
(1.2904 0.429843 0)
(1.26055 0.289981 0)
(-0.0105609 -0.315659 0)
(0.0681224 -0.65474 0)
(0.218493 -0.551233 0)
(0.225373 -0.630738 0)
(0.355433 -0.783659 0)
(0.320711 -0.759354 0)
(0.296809 -0.61202 0)
(0.192063 -0.29572 0)
(0.437824 -0.583848 0)
(0.655102 -0.541034 0)
(0.504942 -0.415907 0)
(0.604632 -0.56899 0)
(0.634507 -0.540789 0)
(0.618268 -0.432853 0)
(0.759151 -0.258977 0)
(0.807189 -0.264903 0)
(0.909925 0.00152573 0)
(0.980698 0.171242 0)
(1.02196 0.619113 0)
(1.04104 0.596008 0)
(0.918144 0.304803 0)
(0.757571 0.181481 0)
(0.788208 -0.0224872 0)
(-0.00404374 -0.378623 0)
(0.0460275 -0.776596 0)
(0.033836 -0.650127 0)
(0.121473 -0.817234 0)
(0.387183 -0.990342 0)
(0.310022 -0.92756 0)
(0.397793 -0.789493 0)
(0.446248 -0.564221 0)
(0.547318 -0.479857 0)
(0.812737 -0.508576 0)
(0.610285 -0.48402 0)
(0.530487 -0.593532 0)
(0.62252 -0.591097 0)
(0.608889 -0.504863 0)
(0.610766 -0.234783 0)
(0.631668 -0.0946711 0)
(0.881794 0.180645 0)
(1.22904 0.353351 0)
(1.16503 0.43646 0)
(1.03246 0.489847 0)
(0.999123 0.371646 0)
(0.992268 0.211542 0)
(0.951549 0.107907 0)
(-0.00361792 -0.382684 0)
(-0.111551 -0.736885 0)
(0.00799103 -0.6953 0)
(0.212704 -0.920211 0)
(0.545046 -0.99803 0)
(0.437055 -0.848606 0)
(0.448703 -0.83853 0)
(0.482276 -0.835798 0)
(0.440757 -0.515681 0)
(0.475487 -0.473655 0)
(0.486422 -0.670316 0)
(0.538802 -0.630036 0)
(0.594563 -0.584019 0)
(0.485204 -0.412884 0)
(0.290147 -0.279358 0)
(0.373154 -0.296059 0)
(0.853009 0.221419 0)
(0.98362 0.129297 0)
(0.784866 0.046227 0)
(0.874194 0.247562 0)
(0.938529 0.292605 0)
(1.02286 0.173686 0)
(1.1003 0.160267 0)
(-0.0171023 -0.218136 0)
(-0.154637 -0.761142 0)
(0.0447802 -1.05389 0)
(0.256419 -1.42571 0)
(0.459248 -1.1111 0)
(0.542864 -0.67661 0)
(0.578076 -0.883181 0)
(0.508249 -0.938942 0)
(0.127276 -0.532194 0)
(0.133517 -0.465171 0)
(0.296254 -0.659332 0)
(0.44481 -0.642797 0)
(0.557288 -0.546177 0)
(0.242842 -0.212681 0)
(-0.0718962 -0.144411 0)
(0.264592 -0.282617 0)
(0.65475 -0.164554 0)
(0.667668 -0.254266 0)
(0.707594 0.0429322 0)
(0.673415 0.343218 0)
(0.752032 0.387214 0)
(1.07422 0.10514 0)
(0.85819 0.0888642 0)
(0.0939097 -0.182464 0)
(0.062685 -0.714683 0)
(0.0916332 -1.50617 0)
(0.313729 -1.57354 0)
(0.503523 -0.91299 0)
(0.463104 -0.612713 0)
(0.368587 -0.959318 0)
(0.24222 -0.808603 0)
(0.0722592 -0.457122 0)
(0.0643398 -0.636527 0)
(0.20261 -0.920046 0)
(0.164287 -0.896443 0)
(0.016447 -0.306799 0)
(-0.349421 0.296288 0)
(0.117098 -0.260248 0)
(0.187766 -0.42435 0)
(0.246199 -0.55883 0)
(0.557018 -0.248975 0)
(0.405063 0.333401 0)
(0.229018 0.323721 0)
(0.409987 0.44917 0)
(0.598359 0.150644 0)
(0.353149 -0.23856 0)
(0.0861403 -0.486068 0)
(0.238678 -0.727547 0)
(0.186245 -1.48488 0)
(0.246668 -1.5356 0)
(0.137363 -0.828706 0)
(0.175076 -0.716563 0)
(0.238392 -0.702213 0)
(0.056746 -0.264889 0)
(-0.0898273 -0.299662 0)
(0.0331696 -0.686344 0)
(-0.110817 -0.765715 0)
(-0.155886 -0.584006 0)
(-0.384045 -0.273051 0)
(-0.048692 -0.38671 0)
(0.106539 -0.455831 0)
(0.250265 -0.492783 0)
(0.2778 -0.563862 0)
(-0.00187775 -0.259827 0)
(0.0690874 0.204514 0)
(-0.0292324 0.292375 0)
(0.241097 0.33177 0)
(0.415193 0.137712 0)
(0.142705 0.224316 0)
(-0.0383028 -0.829537 0)
(0.169658 -0.877145 0)
(0.111193 -1.54975 0)
(0.172748 -1.34 0)
(0.134102 -0.75741 0)
(-0.0133675 -0.795362 0)
(-0.0160592 -0.678404 0)
(-0.147411 -0.342736 0)
(-0.012579 -0.433089 0)
(-0.0320178 -0.63944 0)
(-0.150291 -0.662425 0)
(-0.0978982 -0.575128 0)
(-0.194128 -0.417373 0)
(0.00466632 -0.207885 0)
(-0.310021 -0.49277 0)
(-0.176542 -0.550354 0)
(-0.0920047 -0.68343 0)
(-0.460485 -0.122887 0)
(-0.4128 0.329377 0)
(-0.214336 0.353385 0)
(-0.101799 0.248415 0)
(-0.124487 0.200344 0)
(-0.293033 0.165299 0)
(-0.192082 -0.850576 0)
(0.102814 -0.967568 0)
(0.000210375 -1.71086 0)
(0.0594665 -1.28807 0)
(-0.126491 -1.09824 0)
(-0.241958 -0.382027 0)
(-0.0874362 -0.589425 0)
(-0.193409 -0.286403 0)
(-0.100674 -0.48691 0)
(-0.0531807 -0.610975 0)
(-0.223087 -0.600801 0)
(-0.200851 -0.494846 0)
(-0.283784 -0.473942 0)
(-0.30852 -0.0856852 0)
(-0.541263 -0.583062 0)
(-0.623226 -0.541751 0)
(-0.445373 -0.587408 0)
(-0.360176 -0.174811 0)
(-0.550027 0.105309 0)
(-0.325343 0.0814766 0)
(-0.217022 0.179493 0)
(-0.367099 0.292867 0)
(-0.311765 0.210475 0)
(-0.374657 -0.695269 0)
(0.157821 -0.875077 0)
(-0.0225369 -1.55439 0)
(-0.165902 -0.95415 0)
(0.090301 -1.50317 0)
(-0.396873 -0.755991 0)
(-0.0918065 -0.550846 0)
(-0.147204 -0.297973 0)
(-0.0995223 -0.525557 0)
(-0.022576 -0.534732 0)
(-0.24237 -0.556 0)
(-0.380023 -0.576669 0)
(-0.427603 -0.764547 0)
(-0.314561 -0.0360338 0)
(-0.664935 -0.588843 0)
(-0.671059 -0.580456 0)
(-0.47488 -0.323148 0)
(-0.311866 -0.247435 0)
(-0.377814 -0.04496 0)
(-0.324637 0.272731 0)
(-0.37498 0.282856 0)
(-0.426248 0.300561 0)
(-0.264235 0.187862 0)
(-0.102938 -0.328702 0)
(-0.0122588 -0.70578 0)
(-0.160461 -0.888523 0)
(0.137257 -0.560199 0)
(-0.224895 -0.527979 0)
(-0.249431 -0.733754 0)
(-0.139515 -0.697379 0)
(0.218118 -0.341633 0)
(-0.0492259 -0.531459 0)
(-0.0941194 -0.497148 0)
(-0.104813 -0.471885 0)
(-0.30296 -0.501092 0)
(-0.313499 -0.593915 0)
(-0.217895 -0.16144 0)
(-0.667406 -0.635001 0)
(-0.763056 -0.576826 0)
(-0.556062 -0.274668 0)
(-0.347841 -0.273371 0)
(-0.428045 0.0827986 0)
(-0.374585 0.18835 0)
(-0.414183 0.249424 0)
(-0.276118 0.164053 0)
(-0.285744 0.0209399 0)
(-0.19279 -0.199901 0)
(0.0711352 -0.595641 0)
(-0.154492 -0.746034 0)
(0.0415834 -0.676352 0)
(-0.108289 -0.562545 0)
(-0.1342 -0.870176 0)
(-0.101348 -0.933504 0)
(0.150438 -0.480704 0)
(0.28841 -0.214134 0)
(0.127967 -0.474293 0)
(0.115715 -0.355906 0)
(-0.265849 -0.207186 0)
(-0.318477 -0.328574 0)
(-0.471753 -0.224797 0)
(-0.759609 -0.949916 0)
(-0.503024 -0.539485 0)
(-0.621692 -0.26756 0)
(-0.478004 -0.261961 0)
(-0.459426 -0.0219888 0)
(-0.358354 0.0593697 0)
(-0.315997 0.166439 0)
(-0.13255 0.0601107 0)
(-0.187516 -0.0559623 0)
(-0.292481 -0.237739 0)
(0.0684845 -0.702871 0)
(-0.175539 -0.8678 0)
(-0.0547986 -0.570504 0)
(-0.0503646 -0.428919 0)
(-0.132012 -0.805488 0)
(-0.0155921 -0.969023 0)
(-0.0681978 -0.810198 0)
(0.470412 -0.704962 0)
(0.266867 -0.379192 0)
(0.172633 -0.259631 0)
(-0.0980419 0.474103 0)
(-0.20166 -0.349464 0)
(-0.341005 -0.201592 0)
(-0.406541 -0.608827 0)
(-0.3809 -0.651114 0)
(-0.42982 -0.296544 0)
(-0.423265 -0.191851 0)
(-0.426962 -0.0729985 0)
(-0.386524 0.0299987 0)
(-0.262826 0.00307054 0)
(-0.234448 -0.0567097 0)
(-0.2797 -0.0415078 0)
(-0.330116 -0.110265 0)
(0.0724955 -0.552533 0)
(-0.175606 -0.719997 0)
(-0.19279 -0.580473 0)
(-0.0594829 -0.54862 0)
(-0.237187 -0.844578 0)
(0.14164 -0.723558 0)
(-0.0162816 -1.08063 0)
(-0.360321 -0.974625 0)
(-0.263322 -0.727956 0)
(-0.167485 0.0943245 0)
(-0.0213091 0.555308 0)
(0.13869 -0.0116025 0)
(-0.0782695 -0.54331 0)
(-0.314212 -0.289063 0)
(-0.316148 -0.369515 0)
(-0.26233 -0.246484 0)
(-0.342339 -0.196725 0)
(-0.287359 -0.0880522 0)
(-0.401181 -0.08168 0)
(-0.433073 -0.0324951 0)
(-0.287228 -0.142474 0)
(-0.197053 -0.0996296 0)
(0.223235 -0.294328 0)
(0.094968 -0.790347 0)
(-0.163364 -0.68518 0)
(-0.196016 -0.497619 0)
(-0.111626 -0.535689 0)
(-0.160951 -0.773467 0)
(-0.169534 -0.619498 0)
(-0.13699 -1.16021 0)
(-0.190915 -0.882803 0)
(-0.226593 -0.576479 0)
(-0.232769 -0.315455 0)
(-0.0661441 -0.109182 0)
(0.125329 -0.230529 0)
(-0.264252 -0.140192 0)
(-0.305156 -0.328146 0)
(-0.272962 -0.205352 0)
(-0.175945 -0.224797 0)
(-0.313955 -0.192592 0)
(-0.340014 -0.187092 0)
(-0.412312 -0.187026 0)
(-0.398782 -0.0606171 0)
(-0.374471 -0.173458 0)
(-0.325649 -0.198549 0)
(0.0315982 -0.760247 0)
(0.227476 -0.829221 0)
(-0.0552927 -0.696964 0)
(-0.193799 -0.40583 0)
(-0.262443 -0.805531 0)
(-0.349359 -0.772426 0)
(-0.275581 -0.712132 0)
(-0.371049 -0.747358 0)
(-0.23522 -0.8516 0)
(-0.220831 -0.622042 0)
(-0.243047 -0.368907 0)
(-0.119409 -0.0956064 0)
(-0.511796 0.0906702 0)
(-0.335385 -0.130455 0)
(-0.392292 -0.233915 0)
(-0.264967 -0.126391 0)
(-0.287975 -0.144719 0)
(-0.375952 -0.177097 0)
(-0.310701 -0.230223 0)
(-0.294382 -0.220953 0)
(-0.344958 -0.176308 0)
(-0.403444 -0.167326 0)
(-0.360334 -0.151978 0)
(0.0260949 -0.814743 0)
(-0.0111363 -0.74552 0)
(0.0205904 -0.889862 0)
(-0.115545 -0.692815 0)
(-0.396908 -0.897604 0)
(-0.233788 -0.781597 0)
(-0.198401 -0.587411 0)
(-0.38743 -0.57612 0)
(-0.457308 -0.679962 0)
(-0.525139 -0.552111 0)
(-0.559584 -0.247307 0)
(-0.486067 -0.0628661 0)
(-0.528138 -0.157 0)
(-0.540573 -0.171631 0)
(-0.301484 -0.112742 0)
(-0.254668 -0.096916 0)
(-0.304636 -0.10341 0)
(-0.430404 -0.0109899 0)
(-0.384337 -0.0829646 0)
(-0.365354 -0.126762 0)
(-0.286335 -0.207116 0)
(-0.264904 -0.150873 0)
(-0.270303 -0.0965487 0)
(-0.0269946 -0.780306 0)
(-0.0330085 -0.77645 0)
(-0.0396914 -0.654736 0)
(-0.141416 -0.787752 0)
(-0.250525 -0.692041 0)
(-0.0578404 -0.555794 0)
(-0.0710217 -0.641754 0)
(-0.403073 -0.521169 0)
(-0.376501 -0.450796 0)
(-0.284446 -0.479993 0)
(-0.366151 -0.397405 0)
(-0.527234 -0.330715 0)
(-0.479773 -0.230919 0)
(-0.286755 -0.15492 0)
(-0.333203 -0.0875933 0)
(-0.279456 -0.156581 0)
(-0.280633 -0.200758 0)
(-0.377222 -0.129856 0)
(-0.422851 -0.13012 0)
(-0.394914 -0.101612 0)
(-0.32094 -0.128808 0)
(-0.244163 -0.167827 0)
(-0.331522 -0.166016 0)
(-0.0127534 -0.704083 0)
(-0.0302846 -0.706853 0)
(-0.0405784 -0.693921 0)
(-0.084235 -0.721877 0)
(-0.0611509 -0.61881 0)
(-0.103571 -0.445321 0)
(-0.0766617 -0.727305 0)
(-0.163761 -0.602503 0)
(-0.388161 -0.396442 0)
(-0.42733 -0.44995 0)
(-0.359152 -0.467981 0)
(-0.391114 -0.488095 0)
(-0.399421 -0.273223 0)
(-0.244971 -0.248973 0)
(-0.260448 -0.144603 0)
(-0.342873 -0.120907 0)
(-0.212308 -0.212963 0)
(-0.356398 -0.259962 0)
(-0.406284 -0.257173 0)
(-0.346101 -0.166815 0)
(-0.343397 -0.136534 0)
(-0.309805 -0.149291 0)
(-0.364373 -0.182528 0)
(-0.0289394 -0.714811 0)
(-0.025178 -0.738895 0)
(-0.127251 -0.724733 0)
(-0.0618048 -0.548831 0)
(0.132303 -0.702502 0)
(-0.0729863 -0.663577 0)
(-0.240964 -0.635464 0)
(-0.136876 -0.686015 0)
(-0.274853 -0.659248 0)
(-0.31427 -0.5154 0)
(-0.255538 -0.443174 0)
(-0.390458 -0.391622 0)
(-0.284731 -0.303643 0)
(-0.140018 -0.268074 0)
(-0.242912 -0.246396 0)
(-0.340441 -0.212904 0)
(-0.347864 -0.212763 0)
(-0.3598 -0.253468 0)
(-0.317572 -0.156195 0)
(-0.287136 -0.120787 0)
(-0.308678 -0.145346 0)
(-0.281571 -0.155396 0)
(-0.275579 -0.195316 0)
(-0.0854658 -0.591592 0)
(-0.0916886 -0.473644 0)
(0.06926 -0.472715 0)
(-0.0317594 -0.416876 0)
(-0.0538738 -0.430514 0)
(0.0435391 -0.736948 0)
(-0.135064 -0.598385 0)
(-0.110519 -0.576229 0)
(-0.19408 -0.577149 0)
(-0.222425 -0.45505 0)
(-0.234854 -0.406263 0)
(-0.232361 -0.356402 0)
(-0.238955 -0.216637 0)
(-0.170022 -0.257783 0)
(-0.233398 -0.254593 0)
(-0.32049 -0.232489 0)
(-0.273889 -0.210798 0)
(-0.305302 -0.278847 0)
(-0.26959 -0.10687 0)
(-0.314515 -0.18958 0)
(-0.364078 -0.145475 0)
(-0.350568 -0.16379 0)
(-0.358678 -0.171301 0)
(0.0729727 -0.353753 0)
(0.0422435 -0.347361 0)
(-0.0304721 -0.290615 0)
(-0.0685845 -0.375612 0)
(-0.120058 -0.325602 0)
(-0.133618 -0.412338 0)
(-0.0556315 -0.374134 0)
(-0.0453359 -0.560724 0)
(-0.119898 -0.450972 0)
(-0.168945 -0.453027 0)
(-0.177678 -0.46337 0)
(-0.206058 -0.44333 0)
(-0.190481 -0.398294 0)
(-0.140416 -0.351892 0)
(-0.119608 -0.378335 0)
(-0.310765 -0.294357 0)
(-0.388944 -0.252125 0)
(-0.252077 -0.188926 0)
(-0.242568 -0.19211 0)
(-0.329693 -0.226939 0)
(-0.287174 -0.142231 0)
(-0.303724 -0.148098 0)
(-0.297973 -0.102586 0)
(-0.00294898 -0.276808 0)
(-0.0200717 -0.338272 0)
(-0.0348089 -0.334484 0)
(-0.0410146 -0.323659 0)
(-0.0677209 -0.325656 0)
(-0.0817785 -0.28534 0)
(-0.161901 -0.290876 0)
(-0.136772 -0.308443 0)
(-0.108843 -0.331763 0)
(-0.222436 -0.327669 0)
(-0.208718 -0.281659 0)
(-0.152421 -0.289486 0)
(-0.112352 -0.292291 0)
(-0.0921969 -0.386347 0)
(-0.154106 -0.330097 0)
(-0.189552 -0.398493 0)
(-0.147485 -0.213206 0)
(-0.236926 -0.193467 0)
(-0.307543 -0.230168 0)
(-0.265067 -0.182018 0)
(-0.290063 -0.156218 0)
(-0.300262 -0.155555 0)
(-0.302236 -0.138105 0)
(0.00476478 -0.308898 0)
(-0.00728528 -0.311237 0)
(-0.0317349 -0.304864 0)
(-0.038846 -0.301229 0)
(-0.0686523 -0.293083 0)
(-0.0701848 -0.301141 0)
(-0.0888072 -0.289261 0)
(-0.098657 -0.242174 0)
(-0.105201 -0.279104 0)
(-0.128088 -0.266291 0)
(-0.144873 -0.208267 0)
(-0.167186 -0.206547 0)
(-0.213063 -0.190773 0)
(-0.154994 -0.227731 0)
(-0.156635 -0.241287 0)
(-0.126239 -0.239314 0)
(-0.146071 -0.23104 0)
(-0.224734 -0.270101 0)
(-0.220569 -0.206314 0)
(-0.257983 -0.234164 0)
(-0.243041 -0.120328 0)
(-0.291933 -0.141775 0)
(-0.27177 -0.111035 0)
(-0.00472434 -0.281826 0)
(-0.0213594 -0.296351 0)
(-0.0317874 -0.296254 0)
(-0.038624 -0.288332 0)
(-0.0568324 -0.28317 0)
(-0.0629596 -0.266464 0)
(-0.0949555 -0.258695 0)
(-0.101138 -0.26286 0)
(-0.105992 -0.252837 0)
(-0.125322 -0.241548 0)
(-0.122885 -0.203565 0)
(-0.148225 -0.213301 0)
(-0.158061 -0.236135 0)
(-0.145393 -0.213639 0)
(-0.157911 -0.273917 0)
(-0.154333 -0.175302 0)
(-0.153463 -0.289282 0)
(-0.161332 -0.152548 0)
(-0.238821 -0.172729 0)
(-0.18861 -0.151795 0)
(-0.197904 -0.148364 0)
(-0.308832 -0.133399 0)
(-0.311358 -0.113807 0)
(-0.000953672 -0.279936 0)
(-0.0160277 -0.287102 0)
(-0.0244484 -0.288958 0)
(-0.0239448 -0.284491 0)
(-0.0445459 -0.278097 0)
(-0.0448045 -0.274834 0)
(-0.072806 -0.256336 0)
(-0.0749178 -0.245025 0)
(-0.0826778 -0.246769 0)
(-0.0526869 -0.233991 0)
(-0.0765987 -0.221927 0)
(-0.1932 -0.196357 0)
(-0.240748 -0.211954 0)
(-0.173785 -0.202876 0)
(-0.0909385 -0.207658 0)
(-0.148594 -0.251944 0)
(-0.104383 -0.194074 0)
(-0.0615832 -0.204162 0)
(-0.203685 -0.195172 0)
(-0.238599 -0.0944579 0)
(-0.223431 -0.218841 0)
(-0.25659 -0.0903166 0)
(-0.272652 -0.116643 0)
(-0.00656695 -0.269319 0)
(-0.0177016 -0.282875 0)
(-0.0269544 -0.270559 0)
(-0.0267014 -0.265528 0)
(-0.0521954 -0.256307 0)
(-0.0453928 -0.216384 0)
(-0.0720913 -0.205659 0)
(-0.0735474 -0.244696 0)
(-0.0807929 -0.26535 0)
(-0.0936296 -0.267988 0)
(-0.0678824 -0.262729 0)
(-0.120354 -0.25752 0)
(-0.170835 -0.22454 0)
(-0.150813 -0.175691 0)
(-0.176454 -0.21186 0)
(-0.136941 -0.24687 0)
(-0.097605 -0.190393 0)
(-0.130475 -0.230105 0)
(-0.110016 -0.201791 0)
(-0.196771 -0.139219 0)
(-0.197432 -0.108144 0)
(-0.202658 -0.115032 0)
(-0.277024 -0.0866885 0)
(-0.0034605 -0.265438 0)
(-0.00436649 -0.277268 0)
(-0.0104394 -0.26621 0)
(-0.00842079 -0.270133 0)
(0.00749989 -0.265139 0)
(0.0120198 -0.296591 0)
(-0.13327 -0.262573 0)
(-0.112576 -0.241952 0)
(-0.0968169 -0.222184 0)
(-0.0700966 -0.244614 0)
(-0.0827625 -0.213468 0)
(-0.133788 -0.227587 0)
(-0.159806 -0.199282 0)
(-0.190716 -0.195589 0)
(-0.133846 -0.17758 0)
(-0.124243 -0.153194 0)
(-0.096857 -0.160857 0)
(-0.0721045 -0.211398 0)
(-0.101468 -0.13386 0)
(-0.122805 -0.189676 0)
(-0.227053 -0.0912116 0)
(-0.243464 -0.172227 0)
(-0.25954 -0.0809621 0)
(-0.00745557 -0.260305 0)
(-0.0051146 -0.271379 0)
(-0.0208392 -0.264874 0)
(-0.0181059 -0.271841 0)
(-0.0446896 -0.269678 0)
(-0.0385829 -0.356584 0)
(-0.0527142 -0.33938 0)
(-0.0468617 -0.281577 0)
(-0.056485 -0.346711 0)
(-0.100978 -0.321656 0)
(-0.073079 -0.320989 0)
(-0.0752443 -0.230247 0)
(-0.128468 -0.189463 0)
(-0.137367 -0.190797 0)
(-0.143747 -0.149093 0)
(-0.1092 -0.189843 0)
(-0.147565 -0.178621 0)
(-0.0871653 -0.173629 0)
(-0.073442 -0.17423 0)
(-0.149763 -0.177105 0)
(-0.164676 -0.133397 0)
(-0.178603 -0.0846154 0)
(-0.196534 -0.0853165 0)
(-0.00668495 -0.256278 0)
(0.00203613 -0.267633 0)
(-0.0128351 -0.257513 0)
(-0.00329163 -0.251938 0)
(-0.0289807 -0.254692 0)
(-0.0509582 -0.319313 0)
(-0.105075 -0.269874 0)
(-0.118508 -0.247574 0)
(-0.0875065 -0.230237 0)
(-0.0273853 -0.210081 0)
(-0.0293736 -0.235458 0)
(-0.0493459 -0.179404 0)
(-0.104539 -0.171938 0)
(-0.158929 -0.182314 0)
(-0.154607 -0.17156 0)
(-0.147554 -0.153543 0)
(-0.0756521 -0.176722 0)
(-0.0605898 -0.146763 0)
(-0.0917524 -0.222395 0)
(-0.0756722 -0.114431 0)
(-0.140835 -0.119586 0)
(-0.207578 -0.0472369 0)
(-0.236538 -0.0847881 0)
(-0.00756851 -0.255938 0)
(3.67103e-05 -0.265529 0)
(-0.0170416 -0.256012 0)
(-0.0186569 -0.249121 0)
(-0.0843163 -0.25552 0)
(-0.0293221 -0.238241 0)
(0.0232511 -0.265205 0)
(-0.0484364 -0.174031 0)
(-0.018452 -0.168324 0)
(-0.054995 -0.176946 0)
(-0.039542 -0.213043 0)
(-0.0571532 -0.19337 0)
(-0.123139 -0.207166 0)
(-0.134944 -0.17071 0)
(-0.119428 -0.160589 0)
(-0.120275 -0.125469 0)
(-0.125989 -0.129802 0)
(-0.126213 -0.140355 0)
(-0.0500818 -0.142829 0)
(-0.0631404 -0.136551 0)
(-0.155156 -0.17185 0)
(-0.193681 -0.0930275 0)
(-0.224974 -0.060607 0)
(-0.0071814 -0.254181 0)
(0.00551337 -0.260761 0)
(-0.0136332 -0.247492 0)
(0.00205481 -0.217462 0)
(-0.0281686 -0.177622 0)
(-0.0320721 -0.185006 0)
(0.0210562 -0.219704 0)
(-0.0589017 -0.232571 0)
(-0.0926882 -0.213296 0)
(-0.0779858 -0.210574 0)
(-0.0617864 -0.228712 0)
(-0.0387132 -0.239273 0)
(-0.078495 -0.212618 0)
(-0.11058 -0.183199 0)
(-0.108665 -0.167556 0)
(-0.135469 -0.147771 0)
(-0.0873734 -0.142287 0)
(-0.0673971 -0.105595 0)
(-0.0911707 -0.112329 0)
(-0.104661 -0.137293 0)
(-0.0909107 -0.114857 0)
(-0.0827168 -0.123827 0)
(-0.183879 -0.0463805 0)
(-0.00558262 -0.256386 0)
(0.00636498 -0.258585 0)
(-0.0109591 -0.259951 0)
(0.0415843 -0.224317 0)
(-0.0289603 -0.27568 0)
(-0.0801992 -0.240259 0)
(-0.0418121 -0.25865 0)
(-0.0377684 -0.266688 0)
(-0.0236594 -0.238451 0)
(-0.0547332 -0.215408 0)
(-0.0609624 -0.259923 0)
(-0.0520262 -0.198956 0)
(-0.0847058 -0.172376 0)
(-0.0923082 -0.158189 0)
(-0.091952 -0.156224 0)
(-0.0896662 -0.136616 0)
(-0.097777 -0.107923 0)
(-0.0954885 -0.133758 0)
(-0.0687493 -0.103786 0)
(-0.0455162 -0.133378 0)
(-0.0947843 -0.0695499 0)
(-0.0513687 -0.115531 0)
(-0.137942 -0.0968153 0)
(-0.00217063 -0.252582 0)
(-0.00485363 -0.25819 0)
(-0.00994894 -0.262444 0)
(-0.0048267 -0.224413 0)
(-0.0120662 -0.313637 0)
(-0.0296863 -0.245825 0)
(-0.0253352 -0.252027 0)
(-0.0467406 -0.210641 0)
(-0.0597018 -0.227294 0)
(-0.0751989 -0.16688 0)
(-0.0285422 -0.208101 0)
(0.0563567 -0.20271 0)
(-0.0374632 -0.191214 0)
(-0.0912079 -0.181306 0)
(-0.0952399 -0.162103 0)
(-0.0779217 -0.142699 0)
(-0.0965209 -0.12751 0)
(-0.0584967 -0.115455 0)
(-0.0708731 -0.0831587 0)
(-0.0554258 -0.0832907 0)
(-0.0535279 -0.0923071 0)
(-0.0474491 -0.0610577 0)
(-0.096966 -0.145726 0)
(-0.00551458 -0.252528 0)
(-0.00868261 -0.260811 0)
(-0.0147476 -0.254596 0)
(-0.0023083 -0.220658 0)
(-0.0178685 -0.239599 0)
(-0.0257474 -0.246976 0)
(-0.0202759 -0.24532 0)
(-0.0176455 -0.227361 0)
(0.0161962 -0.227652 0)
(-0.00924322 -0.215842 0)
(-0.0776275 -0.178762 0)
(-0.0555652 -0.198119 0)
(-0.0599257 -0.218992 0)
(-0.0564751 -0.195555 0)
(-0.0597457 -0.166914 0)
(-0.0549715 -0.14186 0)
(-0.0735697 -0.122566 0)
(-0.064725 -0.0905029 0)
(-0.0423539 -0.100722 0)
(-0.0501365 -0.0598795 0)
(-0.0543988 -0.0698843 0)
(-0.0671469 -0.0550375 0)
(-0.057455 -0.106141 0)
(-0.00258219 -0.238845 0)
(-0.00573846 -0.252385 0)
(-0.0110192 -0.25576 0)
(-0.0108176 -0.230929 0)
(-0.0186821 -0.253577 0)
(-0.0198545 -0.252158 0)
(-0.0224726 -0.309052 0)
(-0.0252007 -0.24605 0)
(-0.0440032 -0.234522 0)
(-0.0270715 -0.280509 0)
(-0.0221554 -0.216827 0)
(-0.025869 -0.208043 0)
(-0.0321595 -0.188052 0)
(-0.0469009 -0.179004 0)
(-0.0529494 -0.156922 0)
(-0.0521528 -0.130739 0)
(-0.0541864 -0.114033 0)
(-0.0503854 -0.0753693 0)
(-0.0365255 -0.0922139 0)
(-0.0204398 -0.0641154 0)
(-0.0400946 -0.0751377 0)
(-0.0802957 -0.0460542 0)
(-0.0129889 -0.051508 0)
(-0.0109756 -0.257643 0)
(-0.0243399 -0.260144 0)
(-0.0283151 -0.26354 0)
(-0.025096 -0.189466 0)
(-0.0249694 -0.216272 0)