/*--------------------------------*- C++ -*----------------------------------*\
| =========                 |                                                 |
| \\      /  F ield         | foam-extend: Open Source CFD                    |
|  \\    /   O peration     | Version:     4.1                                |
|   \\  /    A nd           | Web:         http://www.foam-extend.org         |
|    \\/     M anipulation  |                                                 |
\*---------------------------------------------------------------------------*/
FoamFile
{
    version     2.0;
    format      ascii;
    class       volScalarField;
    location    "0.65";
    object      alpha1;
}
// * * * * * * * * * * * * * * * * * * * * * * * * * * * * * * * * * * * * * //

dimensions      [0 0 0 0 0 0 0];

internalField   nonuniform List<scalar> 
2268
(
1
1
1
0.999999
0.999999
0.999999
0.999999
1
1
1
1
1
1
1
1
1
1
1
1
1
1
1
0.99999
0.999999
0.999999
0.999999
1
1
1
1
1
1
1
1
1
1
1
1
1
1
1
1
1
1
1
0.99998
1
1
1
1
1
1
1
1
1
1
1
1
1
1
1
1
1
1
1
1
1
1
0.999979
1
1
1
1
1
1
1
1
1
1
1
1
1
1
1
1
1
1
1
1
1
1
0.999985
0.999978
0.99999
0.999987
0.999998
1
1
1
1
1
1
1
1
1
1
1
1
1
1
1
1
1
1
0.999993
0.995511
0.997079
0.997519
0.99929
0.999831
0.999985
0.999999
1
1
1
1
1
1
1
1
1
1
1
1
1
1
1
0.999997
0.885576
0.911595
0.93314
0.974008
0.990626
0.99879
0.999897
0.999868
0.999963
0.999996
1
1
1
1
1
1
1
1
1
1
1
1
0.999999
0.420782
0.491859
0.577601
0.765305
0.902624
0.986907
0.997545
0.998688
0.999497
0.999946
0.999999
1
1
1
1
1
1
1
1
1
1
1
1
0.993215
0.9933
0.994904
0.995068
0.995068
0.995068
0.995068
0.995068
0.995068
0.995068
0.995068
0.995068
0.995068
0.995068
0.994009
0.988557
0.987572
0.986854
0.980659
0.989253
0.976404
0.976022
0.988908
0.988849
0.990539
0.994539
0.992072
0.990371
0.989445
0.988725
0.987479
0.991145
0.994361
0.995068
0.995068
0.995021
0.995068
0.994726
0.980574
0.921281
0.863787
0.950146
0.951661
0.91749
0.935163
0.968333
0.86162
0.690259
0.669381
0.85486
0.825528
0.947381
0.99505
0.995068
0.995068
0.995068
0.995068
0.971892
0.767537
0.41137
0.89875
0.974634
0.950884
0.704349
0.577306
0.368279
0.175528
0.175535
0.33817
0.345307
0.746253
0.988347
0.991165
0.991042
0.995068
0.995068
0.953732
0.484429
0.253365
0.829051
0.975154
0.99034
0.856433
0.320304
0.174556
0.174565
0.373694
0.678158
0.651606
0.560473
0.967787
0.967935
0.936746
0.954617
0.981356
0.922663
0.16608
0.164305
0.504248
0.953844
0.991975
0.986192
0.753361
0.374543
0.419762
0.79309
0.967871
0.924345
0.556315
0.919372
0.678667
0.501126
0.583443
0.954081
0.842273
0.164305
0.164305
0.277174
0.923815
0.991975
0.991975
0.977557
0.885041
0.92864
0.972431
0.98038
0.768338
0.416807
0.836672
0.199523
0.108103
0.123592
0.866169
0.820433
0.164305
0.164305
0.264274
0.891274
0.990131
0.991975
0.991975
0.98644
0.986424
0.977433
0.980363
0.900739
0.414686
0.658154
0.10808
0.10806
0.108103
0.55629
0.0574529
0.0743971
0.109351
0.198226
0.395939
0.790594
0.954343
0.983843
0.991677
0.99524
0.996505
0.997002
0.997824
0.998909
0.999371
0.99889
0.999856
0.999726
0.999883
0.99992
0.999991
1
1
0.00113562
0.00144855
0.00362444
0.012402
0.0728629
0.345185
0.705381
0.855252
0.882384
0.884731
0.89161
0.898489
0.906313
0.921388
0.922285
0.934061
0.9774
0.974394
0.983815
0.988588
0.99657
0.999294
0.999852
4.83722e-05
4.41727e-05
0.000129092
0.00145256
0.0137769
0.0662578
0.175651
0.286402
0.273114
0.258569
0.251585
0.28038
0.317135
0.363968
0.388096
0.484458
0.634064
0.665847
0.735538
0.796002
0.877323
0.938215
0.983281
4.40218e-06
1.11249e-06
2.7004e-05
0.00162979
0.0112369
0.0205261
0.0200123
0.0165871
0.00484742
0.00392644
0.00688695
0.0118027
0.0187633
0.0174277
0.0200089
0.0411094
0.0701914
0.103848
0.117812
0.170014
0.274811
0.458984
0.757824
7.06745e-07
7.8102e-08
1.83755e-05
0.000664326
0.00230111
0.00168906
0.000668182
0.000262397
9.06737e-05
0.000121685
0.000532987
0.00107031
0.00156958
0.00182354
0.00252171
0.00476912
0.00734198
0.0080412
0.00573543
0.00574484
0.00530828
0.0251594
0.210704
1.57969e-07
7.24398e-09
1.31207e-06
5.35493e-05
0.000201997
0.000133942
5.5497e-05
1.6045e-05
5.89361e-06
1.2374e-05
3.63506e-05
6.58844e-05
0.000105756
0.00017182
0.000329036
0.000595474
0.000949096
0.000574795
0.000259393
0.000167181
9.44659e-05
0.000970502
0.00820908
3.88556e-08
1.78819e-09
7.305e-09
7.19828e-07
4.77603e-06
4.25657e-06
2.66031e-06
1.70583e-06
1.0912e-06
7.42949e-06
1.94492e-05
2.44155e-05
3.27297e-05
5.22213e-05
5.23479e-05
3.69598e-05
9.53901e-06
2.03297e-06
7.79199e-07
7.24503e-07
2.24725e-06
3.05005e-05
0.0001506
8.52449e-09
6.00179e-10
2.08327e-12
9.55661e-10
1.91143e-08
3.49414e-08
3.63583e-08
7.22983e-08
1.03668e-06
9.25735e-06
1.93987e-05
7.21618e-06
3.45712e-06
3.74312e-06
2.9389e-06
8.0508e-07
8.33737e-08
1.13309e-08
6.37973e-09
4.06553e-08
3.76812e-06
9.52658e-05
0.000764856
1.47456e-09
1.21055e-10
1.00294e-14
2.29269e-12
1.32288e-10
4.54776e-10
5.3809e-10
6.90117e-08
2.06469e-06
1.00781e-05
1.36989e-05
2.04172e-06
4.83581e-07
1.04476e-06
1.66236e-06
4.01005e-07
1.90089e-08
5.27927e-09
5.36174e-09
8.60397e-08
5.3004e-06
0.000173727
0.00170767
1.59976e-10
1.0032e-11
6.25866e-16
4.89386e-13
5.37881e-11
2.26639e-10
3.00611e-10
5.06156e-08
1.70571e-06
5.83774e-06
6.32687e-06
8.24202e-07
2.20774e-07
2.58593e-07
3.99454e-07
1.22388e-07
1.24367e-08
5.18837e-09
1.26862e-08
9.58528e-07
1.75029e-05
0.000110992
0.000329268
7.5262e-12
2.72245e-13
6.20848e-16
3.44987e-14
1.58519e-11
1.25068e-10
2.83941e-10
4.11113e-08
7.21765e-07
1.71407e-06
1.69672e-06
2.60283e-07
5.16633e-08
3.52057e-08
4.71435e-08
2.66652e-08
7.25255e-09
5.09849e-09
5.69146e-09
1.48266e-08
1.19582e-06
2.69804e-05
0.000138862
1.82547e-13
1.07199e-14
6.77912e-16
2.12772e-14
1.73119e-12
3.04023e-11
6.01906e-10
3.18975e-08
1.9044e-07
2.75452e-07
2.23429e-07
7.44529e-08
2.78112e-08
7.96627e-09
4.9748e-09
3.03577e-09
2.46745e-09
4.26098e-09
7.22786e-09
4.01255e-08
1.03617e-05
0.000490413
0.00305937
2.279e-14
3.69767e-15
3.92199e-15
6.81604e-14
5.58058e-13
3.58402e-11
2.4733e-09
2.43948e-08
4.15721e-08
2.81038e-08
9.76749e-09
9.94954e-09
8.8765e-09
1.87378e-09
6.825e-10
4.4732e-10
4.24258e-10
7.11435e-10
1.13153e-07
3.43037e-05
0.00147442
0.0121689
0.0271138
9.03327e-15
1.9616e-15
9.32154e-15
1.22207e-13
5.93969e-13
4.63885e-11
2.63272e-09
1.457e-08
1.24875e-08
2.71185e-09
2.58056e-10
7.44562e-10
1.32721e-09
5.52191e-10
2.13431e-10
9.14771e-11
8.99597e-11
5.67094e-10
1.63432e-06
0.000364255
0.00771427
0.0293831
0.0291008
4.11976e-15
1.13753e-15
8.41398e-15
1.40673e-13
7.88643e-13
4.21548e-11
1.73913e-09
5.80572e-09
3.88367e-09
9.3895e-10
2.04227e-10
1.99322e-10
2.09388e-10
1.9244e-10
8.48678e-11
1.84655e-11
2.35256e-09
2.82519e-06
0.000307832
0.00527227
0.0173142
0.0203531
0.00420816
1.66623e-15
7.20635e-16
6.41155e-15
1.28953e-13
8.39317e-13
3.75199e-11
6.37443e-10
1.42212e-09
9.60478e-10
4.14087e-10
2.10055e-10
1.99207e-10
1.95257e-10
1.52267e-10
5.97523e-11
1.84972e-11
4.82307e-10
1.01294e-06
0.000136266
0.00157114
0.0037097
0.00432199
0.00129936
7.83022e-16
4.51954e-16
8.29533e-15
1.18298e-13
6.83458e-13
1.8063e-11
1.41888e-10
2.42356e-10
1.77839e-10
1.8537e-10
1.97907e-10
1.95829e-10
1.93033e-10
1.69472e-10
6.8117e-11
1.84655e-11
5.76427e-10
5.78805e-07
3.25639e-05
0.000203946
0.000675383
0.000677152
0.000388112
5.00921e-16
3.48061e-16
1.51733e-14
9.79345e-14
4.31764e-13
7.91996e-12
3.00433e-11
5.00498e-11
2.89569e-11
5.74312e-11
1.30057e-10
1.69561e-10
1.75389e-10
1.79325e-10
6.96452e-11
4.03126e-10
1.24664e-06
0.000174805
0.00327106
0.0120687
0.0163462
0.00641616
0.00243197
3.1172e-16
1.94478e-16
1.06638e-14
4.93144e-14
2.23411e-13
2.16376e-12
5.13702e-12
1.46981e-11
5.55892e-12
8.33144e-12
4.61352e-11
9.60655e-11
1.42153e-10
1.70163e-10
1.13747e-10
6.37309e-07
0.000298275
0.0100078
0.0504288
0.0653468
0.0594285
0.00913038
0.00160806
1.8385e-16
1.0088e-16
4.81213e-15
1.62582e-14
3.55688e-14
1.4651e-13
6.58177e-13
3.36469e-12
9.45006e-13
4.24379e-13
6.09924e-12
2.01747e-11
9.85422e-11
1.55383e-10
9.52417e-11
3.00372e-07
0.000180728
0.00559715
0.0245211
0.0365826
0.0197699
0.00151679
0.000175801
1.04129e-16
4.95163e-17
1.19511e-15
3.14452e-15
2.06516e-15
1.43212e-15
2.79912e-14
3.27002e-13
8.56546e-14
5.57718e-15
1.82917e-13
1.29004e-12
5.19442e-11
1.26181e-10
8.02446e-11
1.87897e-08
2.92465e-05
0.00163903
0.0085019
0.0130287
0.00521652
0.000192502
1.12066e-05
5.69662e-17
2.34593e-17
2.86556e-16
5.53914e-16
3.99867e-16
5.03542e-17
3.16681e-16
7.6612e-15
2.46549e-15
8.15666e-17
1.086e-15
9.1464e-14
1.95413e-11
7.2282e-11
5.75694e-11
1.575e-10
9.16546e-07
0.000146996
0.00108133
0.00313906
0.00461271
0.00301817
0.000273891
3.00981e-17
1.00805e-17
1.24732e-16
2.69024e-16
2.9469e-16
5.09613e-17
4.00976e-17
5.48953e-17
4.96151e-17
3.56735e-17
1.87116e-16
1.25864e-14
4.57919e-12
2.37343e-11
2.51769e-11
1.80531e-11
3.74654e-09
2.96621e-06
4.50596e-05
0.00021406
0.000572598
0.00215503
0.00194342
1.52431e-17
4.1122e-18
5.0602e-17
1.63547e-16
1.92643e-16
3.11568e-17
2.83867e-17
1.88969e-17
2.46302e-17
2.60538e-17
1.51156e-16
1.3024e-15
5.34749e-13
3.54224e-12
4.29382e-12
7.63415e-12
3.70896e-12
8.31248e-09
4.59927e-07
2.71908e-06
7.84517e-06
0.000336085
0.00198794
7.24952e-18
1.59238e-18
1.90898e-17
8.86958e-17
1.09587e-16
2.10572e-17
1.77929e-17
1.10658e-17
1.63648e-17
1.77365e-17
1.0282e-16
1.56992e-16
2.04283e-14
1.70763e-13
1.72235e-13
1.32322e-12
2.8858e-13
2.16334e-12
9.62916e-10
5.74069e-09
1.99829e-08
8.34791e-06
0.000815811
3.21427e-18
7.73347e-19
6.61141e-18
4.18836e-17
5.4872e-17
1.40012e-17
9.44876e-18
5.43662e-18
9.78197e-18
1.12115e-17
6.22182e-17
7.34888e-17
2.43626e-16
1.80128e-15
1.065e-15
3.72739e-14
1.23817e-14
8.46569e-14
5.99354e-13
2.63494e-12
8.5436e-12
3.9094e-08
5.22411e-05
1.16831e-18
2.92721e-19
2.98935e-18
1.77791e-17
2.05785e-17
6.72389e-18
4.2806e-18
2.52225e-18
5.2762e-18
6.59019e-18
2.6897e-17
3.76762e-17
3.02484e-17
3.07028e-17
3.43175e-17
9.74198e-17
2.34732e-16
2.70944e-14
1.01285e-13
2.96826e-13
4.36601e-13
6.94813e-11
1.89588e-07
3.70829e-19
9.80119e-20
1.08622e-18
5.15732e-18
7.11011e-18
2.6027e-18
1.34565e-18
1.10701e-18
2.39686e-18
3.45597e-18
1.09137e-17
1.49354e-17
2.0124e-17
2.05036e-17
2.30647e-17
3.0467e-17
9.24097e-17
5.93171e-15
1.7178e-14
4.9754e-14
1.22576e-13
1.03373e-11
1.09463e-10
1.51359e-19
2.48992e-20
3.49517e-19
1.33016e-18
2.75547e-18
8.13338e-19
3.72161e-19
4.02403e-19
1.05892e-18
1.59143e-18
3.76826e-18
6.10826e-18
1.22703e-17
1.14332e-17
1.60088e-17
2.00454e-17
5.09981e-17
2.72496e-16
1.05939e-15
3.04591e-15
1.21608e-14
3.04028e-12
2.36651e-11
6.0119e-20
5.93365e-21
1.00516e-19
3.17928e-19
9.33445e-19
2.51566e-19
9.48274e-20
1.38673e-19
2.974e-19
6.44094e-19
1.61274e-18
2.08936e-18
4.46682e-18
6.40865e-18
8.80451e-18
1.10157e-17
4.12033e-17
1.38648e-16
4.03452e-16
7.39272e-16
1.61619e-15
1.92342e-13
1.91869e-12
2.3528e-20
1.54681e-21
2.66035e-20
6.58973e-20
2.18941e-19
6.92913e-20
2.50983e-20
3.26069e-20
7.87119e-20
2.50229e-19
4.29657e-19
7.62056e-19
1.82294e-18
2.21779e-18
3.98351e-18
1.01798e-17
1.05991e-16
3.40245e-16
2.32695e-15
6.65962e-15
1.38149e-14
3.57956e-14
2.65351e-13
9.23751e-21
4.19954e-22
4.80824e-21
1.22821e-20
5.07709e-20
1.62233e-20
5.69206e-21
6.81315e-21
1.73444e-20
8.36113e-20
1.06277e-19
2.55506e-19
6.46468e-19
6.61113e-19
1.91794e-18
5.37811e-17
1.2703e-15
3.74309e-15
1.25046e-14
4.84965e-14
1.26972e-13
2.10741e-13
5.04599e-13
3.39102e-21
1.94223e-22
8.10681e-22
1.996e-21
9.50986e-21
3.32513e-21
1.12521e-21
1.21733e-21
3.18578e-21
2.5087e-20
3.28043e-20
5.10285e-20
1.44951e-19
1.99604e-19
1.86467e-18
1.18319e-16
1.30443e-15
4.20598e-15
1.40713e-14
5.97321e-14
2.11662e-13
4.47222e-13
1.56217e-11
1.11466e-21
7.43126e-23
1.21254e-22
2.96753e-22
1.56994e-21
5.88014e-22
1.92737e-22
1.9111e-22
5.00606e-22
6.68633e-21
9.03335e-21
9.10704e-21
2.7539e-20
5.1189e-20
9.65544e-18
2.95056e-16
1.61169e-12
8.00296e-11
4.41221e-09
8.29855e-09
2.54012e-07
3.10611e-07
1.12193e-07
3.20825e-22
3.91997e-23
1.8106e-23
3.99902e-23
2.32414e-22
9.11482e-23
2.84476e-23
2.64896e-23
6.98993e-23
1.62922e-21
2.25285e-21
1.56145e-21
4.37713e-21
8.99222e-21
1.9515e-15
1.21241e-12
5.24862e-10
5.05601e-08
1.24616e-06
4.84509e-06
9.27236e-06
9.31611e-06
9.30632e-06
6.5502e-23
7.50331e-24
2.64224e-24
5.28376e-24
3.28411e-23
1.30399e-23
3.9463e-24
3.52339e-24
9.59281e-24
2.35672e-22
5.06429e-22
2.60002e-22
8.86558e-22
1.40764e-19
2.77464e-12
1.85723e-09
8.85669e-07
1.5195e-05
1.94245e-05
1.94263e-05
1.00706e-05
2.77464e-06
6.72813e-07
1.17297e-23
1.31472e-24
3.57699e-25
6.36422e-25
4.23851e-24
1.68313e-24
4.89347e-25
4.16372e-25
1.16331e-24
2.91318e-23
1.01419e-22
4.24139e-23
1.50311e-21
1.37588e-15
3.96692e-09
1.5972e-06
1.39626e-05
1.83379e-05
1.50282e-05
3.57334e-06
1.76808e-07
5.95724e-08
9.85977e-08
1.78407e-24
1.92115e-25
4.33647e-26
7.06353e-26
5.06607e-25
1.98222e-25
5.58228e-26
4.56991e-26
1.31944e-25
3.26629e-24
1.16037e-23
7.65369e-24
1.0214e-18
3.5413e-12
1.74386e-07
2.52556e-05
2.25265e-05
4.10368e-06
1.89961e-07
5.87593e-09
1.19664e-09
2.77582e-08
1.18293e-06
2.40777e-25
2.51322e-26
4.82271e-27
7.20629e-27
5.53184e-26
2.13598e-26
5.80047e-27
4.53591e-27
1.36073e-26
3.2195e-25
1.14117e-24
2.83695e-23
8.0666e-16
4.99923e-10
1.66354e-06
3.29726e-05
2.01206e-05
2.97679e-06
1.10349e-07
1.00928e-09
4.74705e-10
1.02819e-07
1.74526e-05
2.91829e-26
2.90559e-27
4.8152e-28
6.75556e-28
5.48615e-27
2.10965e-27
5.6613e-28
4.16917e-28
1.38051e-27
2.95316e-26
1.0573e-25
1.31311e-21
1.93272e-13
3.17504e-08
7.01593e-06
3.30311e-05
1.28775e-05
1.99962e-06
1.24979e-07
1.17856e-09
3.10487e-10
1.95861e-07
0.000128743
3.25053e-27
3.12385e-28
4.57077e-29
5.92228e-29
4.98622e-28
1.97853e-28
5.44229e-29
3.60764e-29
1.28107e-28
2.58977e-27
9.52489e-27
2.32558e-20
4.36023e-11
1.36585e-07
7.30155e-06
1.80174e-05
9.23951e-06
1.91304e-06
7.35921e-08
2.05038e-10
3.74392e-11
2.50904e-07
0.000263038
3.31742e-28
2.96045e-29
3.82663e-30
4.81726e-30
4.08991e-29
1.39928e-29
5.86412e-30
2.54305e-30
1.38136e-29
1.79204e-28
1.48811e-25
2.24844e-19
4.08561e-11
1.24048e-07
2.89033e-06
5.7447e-06
4.74604e-06
1.06252e-06
2.72105e-08
5.07223e-11
3.64864e-14
6.3543e-11
3.89594e-05
0.999991
0.998388
0.998037
0.989136
0.999785
0.994019
0.937314
0.961185
0.998069
0.992739
0.925634
0.933505
0.968476
0.984328
0.943753
0.882211
0.84873
0.949547
0.944054
0.931676
0.0760982
0.381788
0.764519
0.878775
0.000516294
0.00106395
0.0359955
0.305902
0.00307011
0.0159553
0.0440044
0.0602969
0.00585078
0.00983735
0.00739258
0.00519714
0.000529891
0.000533324
0.000491048
0.00161962
0.000314039
0.000961121
0.00364732
0.010833
0.00633335
0.00327
0.00556298
0.0210756
0.0224642
0.00893716
0.00338209
0.0178797
0.0123936
0.000674371
0.00052198
0.00163956
0.000363073
0.000364992
0.000438522
0.00238076
0.000364992
0.000874018
0.00966718
0.0318989
0.000677304
0.0128763
0.0589742
0.0999349
0.0197933
0.061643
0.0654465
0.0569791
0.00241651
0.00147841
0.000595954
0.000392976
6.73957e-05
9.25643e-05
0.000103672
0.000102517
1.12071e-05
1.20183e-05
1.79328e-05
2.43289e-05
1.12066e-05
1.12071e-05
4.57841e-05
0.000117616
4.9244e-05
1.12066e-05
5.1262e-05
0.000174046
0.00100055
0.0001676
0.000388178
0.00146703
0.000999262
0.000728612
0.000198633
0.000305818
0.000114734
0.000160191
8.96978e-05
5.87644e-05
1.06999e-06
4.69534e-06
4.37914e-06
2.44467e-06
5.88804e-10
5.257e-09
1.16773e-08
8.9767e-09
4.77011e-11
7.10833e-11
9.62514e-11
1.14889e-10
4.20422e-12
6.42933e-12
8.55072e-12
1.1422e-11
9.16754e-13
2.19561e-12
5.84633e-12
1.17234e-11
1.0004e-12
1.68181e-12
3.21756e-12
5.57869e-12
6.25909e-12
4.51263e-12
5.85307e-12
9.11747e-12
7.94518e-09
1.11632e-09
8.81673e-10
5.58239e-10
6.03435e-06
2.11846e-06
4.25876e-07
1.49241e-07
1.96552e-07
2.03583e-07
7.65468e-07
4.11035e-06
1.87382e-07
3.13564e-07
3.14822e-07
3.15553e-07
4.01529e-06
8.43783e-06
6.43202e-06
2.65224e-06
3.60225e-05
9.63702e-05
9.87097e-05
5.46635e-05
0.000156285
0.000262475
0.000263626
0.000262475
0.00026134
0.000110935
4.37436e-05
3.58991e-05
0.000184315
7.72136e-06
1.78663e-06
2.54854e-06
0.871047
0.194849
0.164305
0.405843
0.813255
0.787399
0.890969
0.973333
0.963446
0.889129
0.701873
0.728429
0.893125
0.580975
0.518936
0.10806
0.108103
0.224463
0.193158
0.84834
0.195366
0.694338
0.69434
0.460257
0.264919
0.5397
0.77118
0.656345
0.491942
0.310581
0.253551
0.374346
0.706938
0.417378
0.10811
0.172645
0.403369
0.0857092
0.739765
0.220358
0.829541
0.679801
0.077234
0.101107
0.238749
0.284181
0.237895
0.142705
0.309752
0.239223
0.269079
0.706959
0.464907
0.126071
0.408943
0.395074
0.0856587
0.773348
0.748039
0.82
0.336087
0.0311017
0.0285415
0.0723094
0.0538149
0.0308497
0.0302316
0.292896
0.108305
0.224523
0.705148
0.555721
0.13588
0.408644
0.226207
0.103038
0.917612
0.90697
0.395294
0.0251411
0.0148313
0.0198207
0.015907
0.00540559
0.00566816
0.0227601
0.0392384
0.0286526
0.141768
0.706795
0.545624
0.135224
0.300933
0.233782
0.423751
0.850186
0.62703
0.0441785
0.0104534
0.00950106
0.0117653
0.0121887
0.0359178
0.1122
0.136718
0.154278
0.0590335
0.279368
0.706694
0.551323
0.188568
0.0650958
0.2346
0.489184
0.389379
0.137432
0.00989096
0.00461702
0.00315396
0.002782
0.0217347
0.164029
0.431758
0.469572
0.469559
0.251857
0.204157
0.348558
0.503768
0.31431
0.0400736
0.0758982
0.249792
0.0574132
0.0186982
0.00378196
0.00262865
0.00214623
0.00214369
0.0137584
0.157351
0.410312
0.469449
0.469572
0.460352
0.35994
0.354306
0.288757
0.112327
0.0250426
0.0191824
0.0152156
0.00878635
0.0160314
0.0290557
0.028721
0.0157556
0.00941183
0.0046765
0.0149368
0.0723368
0.366407
0.469449
0.0888513
0.0608424
0.137129
0.142832
0.0734281
0.0168688
0.0121211
0.0121211
0.00542052
0.0139551
0.0259761
0.0472232
0.06571
0.0541456
0.0149081
0.00359397
0.0169156
0.164102
0.417377
0.0918472
0.0322491
0.0278566
0.0304768
0.13924
0.0421088
0.0175981
0.0121211
0.032645
0.0651093
0.0839684
0.0832358
0.0636895
0.0409861
0.0119836
0.00331117
0.0213509
0.119683
0.191007
0.243037
0.207466
0.0733007
0.10627
0.138805
0.033092
0.0929516
0.0252692
0.0658052
0.0949321
0.0947165
0.0634744
0.0098175
0.00328365
0.00327687
0.00333717
0.0272555
0.0954594
0.0761493
0.158953
0.120942
0.0883108
0.0819138
0.0818307
0.0682904
0.124145
0.0514037
0.0474652
0.0765558
0.0256969
0.00549638
0.00509924
0.00482404
0.00431525
0.0148479
0.0767122
0.0896177
0.0158542
0.00258797
0.0038278
0.00372018
0.00315283
0.0228117
0.113875
0.0956256
0.0254451
0.00321879
0.00951409
0.0380938
0.0712536
0.0716041
0.0443454
0.0432681
0.0744002
0.135831
0.0897176
0.0109863
0.0020769
0.00063886
0.000401489
0.00063595
0.0120534
0.0566471
0.0150976
0.0153391
0.0208596
0.0640476
0.127209
0.161102
0.16085
0.130636
0.136516
0.141451
0.135025
0.0487265
0.0127109
0.00597339
0.000552354
0.000250896
0.00025375
0.000795728
0.00207634
0.0125438
0.0473756
0.0842605
0.148869
0.148223
0.131815
0.144948
0.14549
0.148766
0.119202
0.0454164
0.0313381
0.00758483
0.00528352
0.000806191
0.00027914
0.000208728
0.000207966
0.0004868
0.0207126
0.139734
0.0986763
0.0502093
0.0174028
0.0102137
0.0173797
0.00845048
0.0147055
0.00794658
0.00833281
0.0184329
0.00385932
0.00103895
0.000994997
0.000395704
0.00022551
0.000211097
0.000239888
0.00864718
0.14421
0.0179769
0.00138999
0.000502949
0.00035961
0.000331264
0.00017426
0.000270717
0.00105395
0.00338696
0.00534939
0.000913589
0.000166326
0.000214461
0.000177295
0.000191834
0.000343308
0.000303792
0.0026053
0.0762109
0.000323484
0.000242774
0.000234856
0.000111382
4.38932e-05
2.79866e-05
3.58838e-05
0.000242247
0.000927082
0.00203352
0.000545116
3.53607e-05
1.54643e-05
9.52102e-06
8.82687e-05
0.000239966
0.000448403
0.00246745
0.00404707
0.000102072
9.83221e-05
0.000142928
0.000124465
8.87979e-05
3.68173e-05
3.50283e-05
6.38174e-05
0.000174413
0.000199941
6.43918e-05
6.4174e-06
6.63832e-07
8.9399e-07
1.32664e-05
6.33799e-05
0.000785839
0.00263874
0.000205828
3.18169e-05
3.1763e-05
4.29485e-05
0.00017026
0.000397729
0.000434796
0.000149794
0.000111115
0.000146174
0.000126173
2.70367e-05
3.66919e-07
3.28138e-08
5.42289e-08
1.55448e-06
7.50092e-05
0.00104224
0.00201375
1.2655e-05
0.000173361
0.000188044
0.000117947
5.39518e-05
0.000328036
0.0013489
0.00161096
0.000851039
0.000529083
0.000385624
0.000159127
2.22737e-07
1.0298e-08
9.71922e-08
6.45856e-06
8.44057e-05
0.000780715
0.000150099
2.0589e-06
0.000659237
0.00108007
0.000541143
4.01548e-05
3.62823e-05
0.00138895
0.00466994
0.00489712
0.000581294
0.000532523
0.000281139
3.96539e-07
1.03362e-08
2.17326e-07
1.14993e-05
0.000130083
0.000221716
5.38472e-06
1.18295e-06
0.00175067
0.00175067
0.000936105
7.57042e-05
2.7181e-06
0.000377341
0.00489578
0.00818453
0.000604053
0.000409456
0.00022564
6.43605e-07
1.30259e-08
2.59895e-07
6.54217e-06
2.85315e-05
2.05521e-05
9.55436e-07
1.16167e-06
0.00126698
0.00142778
0.000528852
4.27202e-05
5.65782e-07
5.73764e-06
0.00105802
0.00815518
0.00156285
0.00140876
9.57847e-05
1.32372e-06
1.39504e-06
4.90778e-07
4.22646e-07
1.16093e-06
5.48065e-07
7.96889e-07
5.09774e-05
0.000224746
0.00017451
7.22959e-05
1.01678e-05
3.83894e-07
1.58378e-06
0.00016823
0.00276327
0.0036935
0.00444694
0.00056918
7.12365e-05
6.2017e-05
1.75137e-05
2.22606e-07
1.12212e-08
1.00345e-08
1.13943e-06
0.00257181
1.02674e-05
1.54987e-05
1.13559e-05
3.94936e-06
3.99202e-07
8.09459e-07
9.56233e-06
6.83984e-05
0.00416613
0.00500673
0.00286371
0.00102748
0.000850543
0.000238672
5.81359e-06
1.10669e-08
1.24159e-08
2.05056e-06
0.0336384
1.69963e-08
5.64292e-08
5.23972e-08
2.67088e-08
9.51576e-09
3.69329e-08
2.27509e-07
8.29774e-06
0.000648935
0.00431401
0.00536841
0.0041516
0.00377666
0.00111803
3.77952e-05
1.38072e-07
4.1744e-07
2.96871e-06
0.13568
1.84316e-10
5.27879e-10
6.02462e-10
4.15991e-10
2.71929e-10
2.53528e-09
7.4918e-08
2.31942e-06
4.11903e-05
0.00108063
0.00525595
0.00541353
0.00541353
0.00212848
9.83054e-05
6.46992e-07
3.36755e-06
1.14175e-05
0.186722
2.02707e-11
7.95279e-11
8.61892e-11
8.50917e-11
1.97513e-10
3.25799e-09
1.13375e-07
1.44462e-06
2.42241e-05
0.000231224
0.00204277
0.00541112
0.00541353
0.00211483
0.000116581
1.04206e-06
9.77164e-06
6.46981e-05
0.186722
5.47293e-11
9.8444e-10
1.38494e-09
1.14365e-09
9.02146e-09
6.87539e-08
4.91872e-07
3.13436e-06
9.44323e-06
2.35058e-05
0.000162922
0.00220419
0.00226093
0.000671607
3.88134e-05
2.41647e-07
1.54919e-05
0.000231239
0.120403
4.38823e-11
1.32892e-09
4.12513e-09
2.8491e-09
2.83288e-09
9.0923e-09
1.17059e-07
1.68741e-06
2.46791e-06
3.82927e-06
2.50264e-05
0.000361544
0.000586886
0.00022835
1.66746e-05
1.31337e-07
1.74348e-05
0.000514127
0.014508
3.0088e-11
5.7928e-10
5.75929e-09
2.8244e-08
1.42033e-08
1.27911e-08
9.89197e-08
2.92449e-07
5.08648e-07
2.58462e-06
2.23782e-05
0.000215152
0.000373864
0.000120016
7.67322e-06
5.77929e-08
1.66813e-05
0.000724304
0.00243592
4.79797e-10
4.7032e-10
2.31624e-09
1.10452e-07
1.49225e-07
1.0298e-07
9.85921e-08
9.85672e-08
1.18135e-07
2.90035e-07
4.56789e-05
0.000521486
0.000401825
7.61259e-05
2.12537e-06
1.1644e-08
1.0738e-05
0.000791859
0.0010937
1.55136e-07
5.39e-08
8.38413e-09
8.17047e-08
4.44796e-07
4.74132e-07
2.77026e-07
1.61642e-07
2.84162e-07
2.77018e-06
0.000244112
0.00135569
0.00070322
7.08598e-05
8.1107e-07
3.21756e-09
6.15567e-06
0.000464963
0.00059179
7.00633e-06
3.4139e-06
5.28305e-07
1.82577e-07
2.34708e-07
7.31832e-07
1.40261e-06
8.73406e-07
1.0549e-06
2.6018e-05
0.00140902
0.00188535
0.000647845
2.91895e-05
1.19671e-07
1.78815e-10
6.38425e-07
5.56167e-05
0.000280688
5.75454e-06
1.68187e-05
1.52023e-05
5.82565e-06
7.72981e-07
1.49932e-06
6.56496e-06
4.42418e-06
4.96176e-06
0.00036383
0.00225289
0.00189641
0.00041056
1.79669e-05
1.09096e-07
7.2514e-11
1.23798e-07
5.70873e-06
0.000118286
3.2516e-05
7.426e-05
3.12897e-05
4.09055e-06
3.1645e-06
1.40453e-05
2.74683e-05
1.16401e-05
6.14027e-06
0.000171421
0.00223745
0.00155568
0.00032583
1.43742e-05
5.63898e-08
5.42924e-12
1.54207e-08
1.12266e-06
4.99581e-05
8.38024e-05
0.000102646
5.03798e-05
4.87308e-06
3.63133e-06
4.08888e-05
4.29915e-05
1.16091e-05
1.54448e-05
0.000541665
0.00198861
0.000772376
6.03252e-05
5.74525e-07
3.52433e-10
9.74545e-15
2.47983e-09
1.05416e-07
1.37536e-06
0.00018151
7.83059e-05
2.24976e-05
2.08539e-06
9.15584e-06
5.38092e-05
5.08567e-05
1.19803e-05
3.82626e-05
0.000915196
0.00093671
0.000244913
7.9433e-06
9.73837e-09
4.51117e-13
1.21169e-15
8.50863e-11
2.08917e-08
5.33075e-08
5.90754e-05
3.00553e-05
6.8348e-06
1.5121e-06
2.732e-06
2.61753e-05
6.20775e-05
2.45695e-05
8.45074e-05
0.000883722
0.000305616
1.57389e-05
7.17188e-08
1.03881e-11
2.80952e-17
4.88157e-16
1.89998e-11
4.59449e-10
5.18378e-10
7.36976e-06
4.70233e-06
1.7074e-06
1.5121e-06
1.5121e-06
5.52892e-06
0.000120724
0.000185023
0.000375237
0.000251008
1.11125e-05
1.57696e-08
4.5128e-13
3.27221e-19
3.12603e-23
3.5265e-25
5.55531e-26
1.18829e-24
4.9478e-13
)
;

boundaryField
{
    leftWall
    {
        type            zeroGradient;
    }
    rightWall
    {
        type            zeroGradient;
    }
    lowerWall
    {
        type            zeroGradient;
    }
    atmosphere
    {
        type            inletOutlet;
        inletValue      uniform 0;
        value           nonuniform List<scalar> 
46
(
3.31742e-28
2.96045e-29
3.82663e-30
4.81726e-30
4.08991e-29
1.39928e-29
5.86412e-30
2.54305e-30
1.38136e-29
1.79204e-28
1.48811e-25
2.24844e-19
4.08561e-11
1.24048e-07
2.89033e-06
5.7447e-06
0
0
0
0
0
0
0
0.000184315
0
0
0
0
0
1.7074e-06
1.5121e-06
1.5121e-06
5.52892e-06
0.000120724
0.000185023
0.000375237
0.000251008
0
0
0
0
0
0
0
0
0
)
;
    }
    defaultFaces
    {
        type            empty;
    }
}


// ************************************************************************* //
