/*--------------------------------*- C++ -*----------------------------------*\
| =========                 |                                                 |
| \\      /  F ield         | foam-extend: Open Source CFD                    |
|  \\    /   O peration     | Version:     4.1                                |
|   \\  /    A nd           | Web:         http://www.foam-extend.org         |
|    \\/     M anipulation  |                                                 |
\*---------------------------------------------------------------------------*/
FoamFile
{
    version     2.0;
    format      ascii;
    class       volScalarField;
    location    "0.65";
    object      p;
}
// * * * * * * * * * * * * * * * * * * * * * * * * * * * * * * * * * * * * * //

dimensions      [1 -1 -2 0 0 0 0];

internalField   nonuniform List<scalar> 
2268
(
447.739
461.234
476.196
492.579
531.153
561.008
606.217
645.943
669.627
694.419
699.265
718.128
726.195
739.809
748.614
758.661
767.539
772.608
781.387
785.184
792.152
794.701
797.036
387.796
398.411
415.03
435.414
470.724
504.646
547.909
586.347
611.395
635.698
637.628
662.32
667.203
677.417
693.139
698.986
709.604
713.259
722.63
726.034
733.495
736.445
739.346
326.728
337.328
356.071
379.114
411.941
438.708
491.472
531.69
557.401
570.696
584.87
602.301
603.488
625.901
627.368
642.602
651.257
655.554
664.197
668.589
675.413
677.417
679.286
264.932
271.761
290.585
317.102
348.278
389.151
432.678
483.676
486.789
522.209
522.944
544.711
549.341
562.618
575.562
581.415
592.041
595.54
607.543
608.227
617.115
620.31
624.081
199.992
208.464
225.568
263.105
283.96
329.114
382.981
410.55
439.147
472.207
467.651
486.262
487.995
505.599
513.372
519.884
536.521
540.32
546.205
553.384
560.698
562.501
562.526
134.912
143.591
159.243
198.126
223.25
271.947
324.522
375.251
386.725
409.275
410.292
426.248
433.559
442.657
457.621
462.768
473.44
476.925
491.438
491.22
502.233
504.206
510.547
71.3946
79.7477
94.5023
128.799
166.754
216.177
288.628
300.723
325.795
348.677
352.376
367.562
373.471
383.508
392.286
391.814
418.46
419.496
437.065
443.869
447.421
453.577
447.303
26.3949
31.351
40.8149
68.9102
111.392
153.327
210.51
290.087
277.748
296.247
296.522
308.681
316.992
322.937
346.451
329.801
377.301
353.667
382.426
366.572
388.914
388.015
396.701
1861.04
1044.57
679.396
762.383
835.827
975.372
797.627
735.913
706.177
627
502.596
768.37
872.419
969.155
949.279
955.52
1184.29
1231.88
1302.56
1548.05
829.682
571.763
649.85
789.927
930.945
798.074
635.116
597.009
590.577
386.804
741.643
866.864
730.719
927.459
857.792
1053.1
1175.03
1261.82
984.584
723.234
367.306
540.251
731.152
905.587
693.742
552.557
602.336
512.183
206.183
729.134
706.654
580.179
887.228
850.597
1021.21
1066.8
1189.89
891.611
464.174
182.201
542.279
695.311
828.41
724.729
567.863
409.689
444.489
289.942
498.215
663.45
599.387
863.128
818.42
880.049
986.24
1131.64
639.708
273.689
255.015
324.741
617.689
733.391
665.956
562.669
431.56
377.442
308.499
595.406
585.464
629.209
845.629
700.044
722.916
833.943
965.372
511.411
168.955
196.07
208.436
536.785
731.124
600.98
525.777
411.123
421.913
304.847
499.943
648.897
610.882
734.343
578.359
604.343
672.568
825.61
408.03
130.003
172.362
168.282
410.203
540.659
524.128
491.594
391.818
412.904
251.597
483.549
596.028
560.236
553.612
536.411
554.562
601.309
699.326
295.17
95.3931
145.199
138.263
382.205
459.536
434.683
442.294
387.625
436.567
282.682
420.074
559.068
586.357
584.935
501.096
539.626
572.841
613.52
8.37101
9.62661
12.8286
18.5316
54.6073
93.8503
148.032
167.689
182.996
198.859
204.983
215.296
224.663
226.922
254.896
211.717
289.052
269.577
302.467
304.67
304.59
330.951
299.91
4.6678
4.94338
4.77803
6.03031
10.703
48.4347
53.6505
88.8706
86.6226
92.8096
92.1754
98.8153
103.052
119.813
110.277
123.123
160.539
130.173
170.078
160.119
189.072
138.79
138.889
4.24409
4.34917
4.10466
4.39775
6.49229
1.74853
8.42728
27.226
21.3069
19.8989
20.1582
22.516
25.4393
29.1746
33.7939
37.182
50.644
57.7494
64.9686
76.275
61.1745
104.916
4.64589
4.13972
4.33833
4.00254
4.69449
4.32691
4.5174
3.5296
4.08186
4.08052
3.15744
3.71951
2.82044
5.4908
6.6514
3.66007
5.87543
3.95794
12.4448
11.0331
13.3419
16.8347
23.3931
-5.50358
3.48582
3.46507
3.14107
2.9394
3.0461
2.99426
2.99818
3.15092
3.27629
3.00174
3.28578
3.03815
3.27401
3.41731
3.55591
1.16026
3.66796
2.96696
2.03389
1.21391
-1.0872
0.166328
-0.776039
3.30969
3.18765
3.24716
2.65138
2.57988
2.91168
2.75572
2.90586
3.03282
3.01401
3.02219
3.0347
3.08136
3.37001
2.15443
3.11327
2.41964
2.68081
1.66578
1.09966
-1.14981
-0.400683
-2.88459
2.90395
2.72335
2.83315
2.86232
2.72303
2.66418
2.64499
3.00205
2.81826
2.93435
2.95063
3.0085
2.86938
3.02269
2.58156
2.72643
2.40802
2.37548
1.13458
0.43813
-1.15443
-3.28885
-4.34513
2.70061
2.7801
2.66346
2.57495
2.52407
2.57894
2.60387
2.58937
2.59352
2.95797
2.79801
2.94217
2.76347
2.5887
2.71663
2.78736
2.76495
1.71924
2.10687
0.197812
-2.28448
-4.05835
-7.43295
2.42206
2.41046
2.40388
2.46776
2.36935
2.5046
2.4906
2.52387
2.55396
2.5662
2.53547
2.88331
2.1249
2.09597
3.18669
3.02145
2.64839
2.42849
2.35142
-1.18936
0.597748
-3.02085
-12.1785
2.19622
2.18277
2.16451
2.18032
2.13919
2.16165
2.26227
2.12645
2.30177
2.0357
2.56953
2.89583
2.74305
2.20148
2.46882
3.42003
2.40886
2.06031
1.40634
0.264809
1.17938
-0.166064
-3.15521
1.94199
1.92976
1.96942
2.13877
2.00942
1.99456
2.14803
2.25074
1.90827
2.26021
2.08054
2.03218
2.05718
2.05084
2.63801
2.429
2.19955
-0.354716
-0.05495
-1.11418
2.4396
0.596042
0.0975456
1.68404
1.64533
1.66552
1.56121
1.68869
1.71921
1.67005
1.77962
1.77584
1.99453
1.53241
2.10639
1.71616
1.60909
2.28795
2.13728
2.15993
0.765741
-0.155516
-0.271064
-2.35119
-0.134519
-2.79496
1.42825
1.43546
1.44936
1.44076
1.51454
1.49317
1.56523
1.55907
1.57161
1.90149
1.61065
2.17152
1.479
1.86034
2.10301
1.7076
1.40196
0.427382
0.947352
0.275812
0.948525
3.79941
-10.8501
1.1734
1.14449
1.20676
1.14948
1.16234
1.17805
1.13922
1.07797
0.757268
1.01738
1.00949
0.991863
0.954927
1.15362
0.225286
0.530856
0.691053
-0.0594641
0.269651
-2.24615
-2.38355
13.6828
3.28513
0.881468
0.827207
0.950177
0.608026
1.21542
1.01866
1.02339
1.07371
1.11308
0.835125
0.687023
0.737593
1.0451
0.935813
0.405878
0.922112
0.651198
0.456557
-1.03272
1.31892
-2.33127
1.33085
0.772678
0.651377
0.649485
0.810977
0.852511
0.0972841
0.596974
0.521102
0.751662
0.622694
0.848974
0.835637
0.76019
0.996783
0.772377
0.661719
0.658157
0.159837
0.516547
-0.195322
-0.980751
-1.31438
-1.02596
-0.840152
0.270585
0.266118
0.0474707
0.314561
0.731677
0.476238
0.420646
0.187299
0.170874
0.257154
0.579536
-0.690554
-0.637856
-0.366001
0.23401
-0.852925
-0.244161
1.34612
-0.120887
-0.159211
-1.11806
-1.23482
-1.15597
-0.0144734
0.119384
-0.311351
0.355448
-0.145912
0.0498138
0.319051
0.133412
-0.101116
-0.207885
-0.452302
0.0554076
0.130392
-0.59749
-0.94166
-0.716832
-0.108505
1.09835
0.744505
0.333829
-2.49335
-3.8283
-4.15002
-0.264945
-0.284033
-0.229641
-0.999888
-0.985298
-0.0468388
-1.01212
-0.327933
-0.557113
-0.318101
-1.52618
0.0865586
-1.68816
-0.735365
-0.530503
-0.0326857
-0.950875
0.652075
-1.51894
-2.19488
-7.57966
-10.1775
-8.89841
-0.485058
-0.45279
-0.471491
-0.221778
-0.476897
-0.881685
-1.13202
-0.706496
-0.843311
-0.75593
-0.569515
-1.21827
-0.662172
-1.00822
-1.94664
-2.59092
-5.08433
-7.72904
2.95822
-43.1352
-16.2659
-8.35435
-10.5814
-0.740456
-0.728013
-0.767948
-0.770025
-0.829077
-0.831558
-0.508492
-0.839017
-1.032
-1.15371
-1.31459
-1.35426
-1.56829
-1.88506
-2.31117
-3.59885
-5.59597
-7.99008
-8.96723
-8.58134
-10.5302
-10.4215
-10.891
-0.971453
-0.973882
-1.00592
-0.969561
-1.0586
-1.2008
-1.18214
-1.17275
-1.26415
-1.45766
-1.67174
-1.79405
-2.00002
-2.28273
-2.82474
-4.12037
-5.76713
-8.93268
-10.9008
-11.6923
-8.05836
-9.84221
-10.8232
-1.24929
-1.26687
-1.28525
-1.31116
-1.3616
-1.791
-1.49663
-1.50804
-1.60279
-1.65373
-2.01151
-2.11763
-2.38425
-2.75656
-3.15123
-4.56527
-5.69287
-7.51331
-9.36618
-9.09032
-8.08194
-11.0137
-11.4349
-1.42416
-1.45983
-1.48434
-1.49591
-1.4361
-1.22363
-1.58265
-1.28459
-1.86551
-2.00595
-2.37852
-3.04428
-2.70686
-3.01168
-3.95815
-4.9418
-5.49967
-6.80666
-7.95139
-8.09719
-8.19049
-10.6098
-10.5774
-1.77182
-1.78583
-1.7917
-1.7694
-1.85728
-1.9636
-2.05136
-2.36756
-2.45399
-2.20116
-2.3208
-2.33775
-2.57572
-3.41704
-4.22288
-4.09372
-5.26405
-6.03164
-7.25183
-6.85034
-8.99737
-9.35223
-11.1699
-1.63058
-1.89723
-1.94994
-1.99494
-1.74208
-2.10124
-2.11255
-2.22623
-2.4817
-2.49015
-2.46127
-2.9032
-3.23421
-3.62872
-3.51225
-4.30789
-5.25811
-5.2352
-7.48116
-7.58488
-7.87713
-9.08748
-9.6426
-2.74481
-2.41256
-2.3553
-2.03325
-2.6556
-2.51202
-2.3451
-3.19456
-2.69508
-2.94608
-3.23073
-2.9672
-3.24965
-3.93394
-4.04048
-4.32344
-5.71884
-6.35527
-6.75237
-6.53041
-7.60777
-8.61796
-6.76484
-3.10952
-2.36187
-2.82523
-2.9741
-3.2084
-2.37909
-2.94133
-2.77734
-2.85808
-3.11059
-3.50668
-3.57879
-4.09421
-4.01167
-5.46178
-5.14764
-5.72176
-5.79761
-5.94589
-6.5083
-7.80718
-6.6133
-7.7673
-2.58504
-3.13234
-2.79525
-2.8755
-2.67345
-3.19601
-3.13306
-2.94668
-3.05991
-3.48913
-3.9622
-3.92468
-3.93291
-4.82304
-4.82794
-4.73434
-5.1955
-5.42506
-5.70865
-5.81006
-6.24485
-5.02391
-7.58583
-3.11197
-3.20444
-3.01523
-3.28086
-2.84182
-3.27428
-3.17496
-3.16069
-3.77508
-3.44721
-3.60598
-4.40324
-4.23872
-4.17524
-4.263
-4.89462
-4.67817
-5.04528
-5.67341
-5.26531
-5.55563
-5.27121
-7.76248
-3.28122
-3.43195
-3.09659
-3.58426
-3.71533
-3.69966
-3.76739
-3.95027
-3.89253
-3.94094
-4.10406
-3.79534
-3.95935
-4.42488
-4.36833
-4.41084
-4.52833
-5.76932
-4.81366
-4.9347
-5.86458
-5.78818
-5.92497
-3.63665
-3.78377
-3.92077
-3.78657
-3.82666
-3.79037
-3.84725
-3.86165
-3.97094
-3.9304
-4.32862
-3.81355
-3.9718
-4.7572
-4.20077
-4.24118
-5.24526
-5.39115
-4.97376
-5.06181
-5.23005
-5.64483
-5.89266
-3.75953
-3.83987
-3.8333
-3.92278
-3.88662
-3.967
-3.99235
-4.02529
-4.10189
-4.08374
-4.08972
-4.34486
-4.46
-4.31516
-4.45897
-4.50674
-4.93923
-4.85674
-4.7223
-4.92179
-5.14594
-5.31743
-5.58346
-4.11367
-4.17004
-4.15101
-4.18838
-4.19424
-4.21474
-4.23839
-4.24623
-4.30626
-4.30626
-4.40122
-4.339
-4.44471
-4.28416
-4.70766
-4.60271
-4.97198
-4.83715
-5.45475
-4.58298
-4.92081
-5.16393
-4.98935
-3.87013
-4.22312
-4.20042
-4.29083
-4.30342
-4.32689
-4.34771
-4.33316
-4.33338
-4.22585
-4.5387
-4.57488
-4.63674
-4.74987
-4.73417
-4.48357
-4.80375
-4.89248
-4.67275
-4.75452
-4.74244
-5.1515
-5.47823
-4.85199
-4.73066
-4.62591
-4.62233
-4.60878
-4.62332
-4.64462
-4.67759
-4.73831
-4.84139
-4.75135
-4.7653
-4.75411
-4.78694
-4.81684
-5.08278
-4.8266
-4.97352
-5.01475
-4.98231
-4.82383
-5.82312
-5.44217
-4.73779
-4.70411
-4.71392
-4.72722
-4.73677
-4.74073
-4.75754
-4.74784
-4.75063
-4.71532
-4.72328
-5.11602
-4.77265
-5.00627
-4.8997
-4.81978
-4.93618
-4.98588
-5.17077
-5.28874
-5.26946
-5.23347
-6.86791
-4.9919
-4.98988
-4.98209
-4.98101
-4.98083
-4.99009
-4.99413
-5.01418
-5.02352
-5.07764
-5.07526
-4.88992
-5.04588
-4.93638
-5.07278
-5.05765
-5.18429
-4.99473
-5.01011
-5.46953
-4.94671
-5.53305
-6.69562
-5.11504
-5.11672
-5.12014
-5.13281
-5.13975
-5.1588
-5.19184
-5.15852
-5.18161
-5.13462
-5.10242
-5.12442
-5.06288
-5.26204
-5.3641
-5.21425
-5.23456
-5.27217
-5.26267
-5.02486
-5.61038
-5.30463
-6.23129
-5.40512
-5.40202
-5.39172
-5.38237
-5.36209
-5.35395
-5.30828
-5.33482
-5.29893
-5.32865
-5.3334
-5.32248
-5.25446
-5.20252
-5.28453
-5.26151
-5.45004
-5.42105
-5.49452
-5.88873
-5.83471
-7.16437
-7.23037
-5.41313
-5.422
-5.42455
-5.46821
-5.4594
-5.62335
-5.78634
-5.56458
-5.81533
-5.56782
-5.64417
-5.74359
-5.6425
-5.6816
-5.73469
-5.8229
-5.61373
-5.76939
-5.37577
-5.41722
-5.65519
-6.4354
-6.42096
-5.95134
-5.94031
-5.91542
-5.87151
-5.80453
-5.691
-5.3202
-5.67191
-5.29523
-5.61521
-5.57413
-5.37411
-5.59367
-5.43938
-5.48048
-5.67665
-5.73198
-5.71542
-6.52864
-6.49374
-7.07406
-6.25124
-7.06238
284.555
256.115
234.223
371.984
61.8434
59.3939
-10.3554
48.5157
-40.2541
-116.149
-255.302
-270.393
-96.7047
-123.248
-186.538
71.0869
40.8677
5.58795
186.156
151.25
-2.93895
17.2622
-5.77982
72.7216
-4.51167
-3.53287
-4.19597
-0.609817
-6.45541
-7.19328
-6.62945
-1.86111
-10.1117
-5.37952
6.65875
13.0293
-1.98166
0.10791
4.04597
7.69063
2.09807
3.35618
4.40622
3.42061
1.75455
4.93525
5.03332
6.55255
-1.56772
2.12962
3.58724
3.55804
4.8771
3.96401
3.35211
2.3056
0.934401
1.00214
1.0677
1.44681
-0.307915
-0.425538
-0.336004
2.35561
-0.613547
-1.10561
-0.41817
10.8962
-3.10757
-3.79253
-5.12969
-4.25705
-9.00547
-8.72838
-9.01601
-9.22233
-10.3634
-10.2321
-10.1026
-10.3147
-10.6125
-10.7795
-10.9125
-11.1136
-10.8112
-11.7643
-12.405
-12.7491
-12.7106
-13.1505
-13.8198
-14.9779
-12.3609
-13.1817
-13.8147
-13.9681
-10.3174
-11.6707
-12.3524
-12.5952
-9.09011
-9.18244
-11.2527
-12.6236
-9.49007
-10.0815
-10.8818
-10.8335
-8.47896
-8.5561
-8.64448
-8.67493
-8.53416
-9.22218
-9.7956
-7.61582
-7.55349
-7.45004
-7.64098
-7.44851
-7.70228
-7.56834
-7.4258
-7.19032
-6.34659
-6.29442
-6.3831
-6.53628
-6.02159
-6.04873
-6.0475
-6.18772
-6.72309
-6.64028
-6.64137
-6.66992
-5.86377
-5.92373
-5.85026
-6.04641
-5.38537
-5.63997
-5.84046
-6.0288
-5.81471
-5.54838
-5.9192
-6.16646
-7.23474
-6.1851
-6.19198
-6.29304
-7.30617
-6.98244
-6.71454
-6.65369
-6.60238
-6.81942
-7.3834
-7.06095
-6.75771
-6.94579
-7.15698
-7.1147
-6.70511
-6.43139
-6.23431
-6.28608
179.45
122.597
169.15
118.118
141.479
363.773
290.768
367.977
343.078
347.027
258.153
262.809
401.234
510.888
487.857
485.357
516.644
543.477
544.753
48.0961
-180.471
155.077
138.911
118.273
138.633
200.137
239.945
257.738
218.341
217.156
185.367
237.21
322.899
473.929
398.83
465.606
462.028
498.309
-127.13
-171.632
5.13847
127.465
102.6
133.106
111.048
149.025
128.951
138.566
121.217
129.484
120.271
244.995
489.726
406.245
521.521
432.012
477.609
-39.9227
252.172
28.2675
134.4
106.901
109.651
129.799
120.336
118.673
98.7314
79.559
35.315
71.4909
168.676
265.21
372.308
365.931
453.375
464.097
387.856
-4.26818
105.331
102.91
104.615
107.53
124.597
121.596
108.946
96.8351
72.938
39.3953
-1.21202
127.212
271.904
280.449
224.797
344.45
408.345
-61.0144
113.628
93.4803
95.2288
96.9186
102.822
123.559
108.167
110.279
73.9682
32.8752
-48.9341
-33.2504
135.365
202.066
264.406
137.828
214.224
291.99
10.982
86.1667
88.2742
90.5939
90.1683
91.678
93.7421
111.777
149.26
33.7495
-0.249973
82.8818
73.7191
303.6
49.674
183.555
114.291
78.5719
136.221
54.132
76.7057
85.8168
88.1953
88.3881
87.5449
74.6896
68.0449
99.8645
122.657
114.385
159.371
195.784
212.129
155.893
160.65
119.591
116.431
112.164
27.4155
53.6264
81.4201
84.7229
88.4036
84.7013
73.0591
63.2976
45.9731
95.7427
117.175
155.173
158.402
155.727
169.167
123.07
113.108
116.429
116.555
19.1811
23.602
49.9079
75.0424
82.8344
77.4043
66.2482
64.3401
68.149
24.6438
113.406
144.134
141.932
132.121
151.716
106.868
98.276
112.566
110.43
16.0422
9.97741
41.471
71.7308
57.5743
57.5376
59.412
60.9226
51.8432
70.7602
31.6972
104.725
85.7174
113.954
126.066
85.8016
97.7303
96.4767
107.705
15.4416
43.2111
64.4936
54.0908
53.0498
54.1847
55.6457
57.7085
43.5171
66.9708
33.1114
18.8696
17.5327
22.3884
14.2998
42.3657
58.8258
106.52
81.4672
1.76615
57.2416
51.3221
45.8111
52.4198
49.8929
53.9023
51.7046
46.0013
30.3483
16.3255
8.80615
5.71356
6.852
3.40269
15.1529
50.4395
20.1559
61.0019
-0.369082
14.1131
40.586
18.5124
47.7506
35.1783
46.1833
63.6023
34.8908
13.3656
3.29413
6.18906
4.51895
3.78842
3.05763
3.99389
11.1023
44.1676
75.1054
3.95645
31.1944
-27.7958
17.1307
39.4302
90.054
47.7942
38.8397
7.31514
6.48159
8.12176
4.27396
3.22467
3.01606
2.17816
1.03856
1.15665
5.8803
66.1622
7.25025
15.9322
0.909873
9.25254
-15.9955
8.68484
13.1572
12.1483
6.32725
2.9971
0.694098
1.30815
1.75661
1.58916
1.10528
0.616069
0.698226
-1.55278
32.1793
-16.7224
-6.58257
-8.0107
-8.17014
-3.5622
-4.43259
-2.89936
1.63482
3.6376
-3.42808
-1.39021
-0.380307
0.420315
0.788022
0.567365
0.471904
0.935756
0.456665
19.5085
-8.63812
-7.20379
-7.11611
-7.89676
-6.86473
-5.33514
-4.91219
-2.49939
-5.13866
-4.82551
-3.21803
-2.05445
-0.629279
-0.703742
-0.0741533
-0.617188
-0.580099
-3.29318
0.466842
-9.01487
-8.12322
-9.43495
-7.87832
-6.53311
-5.64959
-5.10933
-4.02679
-4.7069
-3.95958
-2.37818
-1.83313
-1.51317
-0.875001
-1.01878
-1.30067
-0.345053
0.427021
-1.86825
-9.53805
-9.35981
-9.17574
-7.86074
-7.04718
-5.80628
-5.28589
-4.79679
-4.60631
-4.65312
-3.86276
-2.22924
-2.49373
-1.27568
-0.981262
-0.976323
-0.125043
-1.39306
-1.81107
-10.9202
-12.1021
-10.8207
-8.86029
-6.77453
-5.47564
-6.81155
-5.19152
-4.97815
-4.69148
-2.55314
-2.34227
-2.65468
-1.52141
-1.50634
-2.02159
-0.290198
-1.72211
-2.2406
-13.441
-14.2885
-9.86116
-8.7603
-7.72771
-7.07482
-6.23436
-5.83819
-4.53099
-3.99422
-2.2788
-2.6911
-2.56073
-1.84647
-2.01151
-2.33972
-2.96252
-2.39552
-2.50525
-15.3791
-16.2585
-11.4939
-9.34069
-8.00549
-6.66882
-10.6325
-3.49831
-4.53231
-4.91103
-3.34323
-3.31998
-3.10571
-2.35024
-2.60415
-2.63804
-2.52451
-2.57459
-2.36694
-15.4003
-14.464
-11.6007
-9.17545
-7.78101
-7.47251
-7.36754
-3.89923
-4.59106
-3.09733
-3.65635
-3.04598
-3.47096
-2.77547
-3.22013
-3.1782
-3.76485
-3.08565
-2.65342
-13.2423
-12.5644
-10.2403
-8.70866
-6.68338
-5.37748
-6.13712
-4.22398
-4.40561
-3.83236
-3.78199
-3.85009
-3.94574
-3.32444
-3.86469
-3.63076
-2.29061
-2.99822
-2.62697
-9.07343
-7.69642
-9.92349
-8.54678
-6.49863
-5.14017
-5.8087
-5.0622
-5.29099
-4.48478
-4.09129
-4.28189
-3.92107
-3.55295
-3.54547
-2.27725
-2.94895
-2.98268
-2.78135
-10.7987
-7.29826
-8.50417
-7.87559
-6.85728
-5.97314
-5.16262
-5.27476
-4.70309
-4.42674
-4.61957
-4.37416
-4.50172
-3.94834
-3.464
-3.19223
-3.02224
-3.14876
-2.98637
-8.07814
-7.06713
-7.54312
-6.85088
-5.60038
-5.28846
-5.49033
-5.00936
-5.67379
-3.75654
-5.74296
-5.56704
-5.85391
-4.32176
-3.34195
-3.17621
-3.24908
-3.20954
-2.7226
-6.50916
-6.47572
-6.4682
-6.26663
-5.93255
-5.98739
-5.37412
-5.12365
-5.35921
-5.04631
-5.01318
-3.50441
-2.71977
-5.26743
-3.84903
-3.32853
-3.20702
-3.25248
-2.72752
-7.8086
-5.63033
-6.14185
-6.32537
-5.97908
-5.23373
-5.04367
-5.01779
-4.86333
-5.38429
-4.98703
-5.17569
-3.30503
-3.36468
-3.88545
-3.3559
-3.27156
-3.27317
-2.32016
-7.59337
-4.95382
-6.4323
-5.55276
-6.51637
-6.16024
-4.7902
-5.22299
-5.15024
-5.11357
-5.33068
-5.72129
-2.90106
-4.0441
-3.85435
-3.46404
-3.40955
-3.35936
-1.81997
-6.88855
-5.07832
-6.88904
-7.16031
-5.1701
-5.18043
-5.06905
-5.17224
-4.84281
-5.1772
-4.8702
-4.63158
-3.64829
-4.24239
-4.28501
-3.74498
-3.60541
-3.64956
-4.18454
-6.43747
-4.92771
-6.8413
-6.93621
-4.75001
-5.27344
-5.03298
-5.13075
-4.54249
-5.44617
-5.05147
-4.26537
-3.99468
-4.21183
-4.17327
-3.92495
-3.39374
-2.8494
-3.92673
-7.16496
-4.90755
-5.3334
-6.71996
-6.40659
-4.75923
-5.14691
-5.21295
-4.86088
-4.99963
-4.48544
-5.1847
-4.01634
-4.33052
-4.14281
-3.52489
-4.26702
-5.45055
-4.48303
-6.41023
-5.5615
-5.95294
-5.44913
-6.70559
-4.84713
-4.71892
-5.63908
-4.95989
-5.47665
-4.38397
-4.73792
-4.67547
-4.61776
-4.3395
-5.29247
-4.32691
-4.96892
-4.60938
-6.11936
-5.99643
-5.78615
-5.89199
-5.69007
-5.3501
-5.15689
-5.38
-5.07697
-4.77069
-5.33301
-4.33989
-4.17034
-4.5563
-4.70974
-4.55343
-4.91778
-5.22266
-4.30158
-6.24341
-6.4333
-6.03733
-5.80929
-5.72185
-5.55823
-5.3495
-5.25735
-5.04568
-5.18973
-5.0747
-4.95877
-4.71745
-5.22758
-4.91853
-5.40856
-5.03737
-4.54257
-5.50189
-6.0319
-7.12264
-6.28859
-6.2286
-5.53743
-5.33272
-5.9072
-5.29633
-5.72092
-5.40982
-4.91217
-5.19284
-4.81254
-4.94784
-4.84085
-4.63693
-4.91655
-5.08758
-5.05201
-6.63129
-6.99649
-6.52809
-5.65609
-6.00294
-5.81434
-5.88501
-5.58162
-5.28754
-5.0659
-5.10215
-5.03473
-4.76957
-4.99897
-4.87479
-5.05052
-4.69891
-4.94706
-5.69028
-7.29691
-6.45607
-6.01601
-5.47107
-6.53298
-5.79083
-6.44686
-5.2826
-5.61287
-5.62551
-5.62087
-5.24812
-5.30404
-5.47144
-5.24705
-5.67193
-5.81169
-6.0304
-5.2468
-6.436
-6.36459
-5.93603
-6.09248
-5.95998
-5.74781
-5.84347
-5.9105
-6.00842
-5.86122
-5.17665
-5.36839
-5.11249
-5.36639
-5.17723
-5.35909
-5.79574
-5.87335
-5.56256
-6.35515
-6.00507
-6.06659
-5.91471
-5.8524
-5.75635
-5.22334
-5.63648
-5.17611
-5.92123
-5.77688
-5.74118
-6.06074
-6.06118
-6.35553
-6.47948
-6.1474
-6.19569
-6.45414
)
;

boundaryField
{
    leftWall
    {
        type            calculated;
        value           nonuniform List<scalar> 
50
(
447.739
387.796
326.728
264.932
199.992
134.912
71.3946
26.3949
8.37101
4.6678
4.24409
4.13972
3.48582
3.30969
2.90395
2.70061
2.42206
2.19622
1.94199
1.68404
1.42825
1.1734
0.881468
0.651377
0.270585
-0.0144734
-0.264945
-0.485058
-0.740456
-0.971453
-1.24929
-1.42416
-1.77182
-1.63058
-2.74481
-3.10952
-2.58504
-3.11197
-3.28122
-3.63665
-3.75953
-4.11367
-3.87013
-4.85199
-4.73779
-4.9919
-5.11504
-5.40512
-5.41313
-5.95134
)
;
    }
    rightWall
    {
        type            calculated;
        value           nonuniform List<scalar> 
50
(
1302.56
1261.82
1189.89
1131.64
965.372
825.61
699.326
613.52
544.753
498.309
477.609
464.097
408.345
291.99
136.221
112.164
116.555
110.43
107.705
81.4672
61.0019
75.1054
66.1622
32.1793
19.5085
0.466842
-1.86825
-1.81107
-2.2406
-2.50525
-2.36694
-2.65342
-2.62697
-2.78135
-2.98637
-2.7226
-2.72752
-2.32016
-1.81997
-4.18454
-3.92673
-4.48303
-4.60938
-4.30158
-5.50189
-5.05201
-5.69028
-5.2468
-5.56256
-6.45414
)
;
    }
    lowerWall
    {
        type            calculated;
        value           nonuniform List<scalar> 
62
(
477.169
490.663
505.626
522.008
560.582
590.438
635.646
675.372
699.056
723.849
728.694
747.557
755.624
769.238
778.044
788.091
796.968
802.037
810.817
814.613
821.581
824.13
826.466
797.036
739.346
679.286
624.081
562.526
510.547
447.303
396.701
347.152
318.611
296.697
433.902
1861.04
1548.05
984.584
891.611
639.708
511.411
408.03
295.17
1890.27
1073.8
708.676
791.667
865.111
1004.66
826.912
765.198
735.462
656.284
531.88
797.655
901.703
998.44
978.532
984.612
1213.36
1260.92
1331.42
)
;
    }
    atmosphere
    {
        type            calculated;
        value           nonuniform List<scalar> 
46
(
-5.72904
-5.72904
-5.72904
-5.72904
-5.72904
-5.72904
-5.72904
-5.72904
-5.72904
-5.72904
-5.72904
-5.72904
-5.72904
-5.72975
-5.74558
-5.76192
-5.72904
-5.80816
-6.08104
-6.36193
-6.67981
-6.79797
-6.02387
-6.78393
-6.21555
-6.39353
-6.2679
-5.76315
-5.74549
-5.73881
-5.73769
-5.73769
-5.76068
-6.41998
-6.78798
-7.87664
-7.16564
-5.72915
-5.75604
-5.82616
-6.0109
-6.13523
-6.24327
-6.26778
-6.31984
-6.27785
)
;
    }
    defaultFaces
    {
        type            empty;
    }
}


// ************************************************************************* //
