/*--------------------------------*- C++ -*----------------------------------*\
| =========                 |                                                 |
| \\      /  F ield         | foam-extend: Open Source CFD                    |
|  \\    /   O peration     | Version:     4.1                                |
|   \\  /    A nd           | Web:         http://www.foam-extend.org         |
|    \\/     M anipulation  |                                                 |
\*---------------------------------------------------------------------------*/
FoamFile
{
    version     2.0;
    format      ascii;
    class       volScalarField;
    location    "0.85";
    object      pd;
}
// * * * * * * * * * * * * * * * * * * * * * * * * * * * * * * * * * * * * * //

dimensions      [1 -1 -2 0 0 0 0];

internalField   nonuniform List<scalar> 
2268
(
894.736
891.62
892.121
888.147
897.758
909.45
932.501
959.632
993.019
1034.88
1030.53
1038.33
1071.73
1044.29
1074.53
1063.41
1046.6
1032.97
1020.33
1012.86
1009.56
1002.79
999.255
895.196
892.062
891.343
889.161
896.867
906.331
931.584
960.449
1002.04
1025.12
1022
1056.51
1059.51
1058.26
1085.7
1063.73
1058.84
1032.32
1024.7
1014.36
1011.58
1001.91
998.046
895.86
891.994
892.104
887.863
897.858
904.849
927.088
949.141
992.31
1019.43
1038.95
1052.99
1046.51
1065.53
1076.23
1060.63
1056.41
1029.8
1013.72
1007.91
1004.83
1001.45
997.199
897.167
892.763
890.548
890.298
892.539
904.078
928.907
964.178
974.306
1028.39
1037.42
1055.68
1056.89
1070.06
1082.88
1066.63
1048.41
1029.02
1020.54
1009.84
1008.04
1001.04
997.72
898.616
892.939
891.997
877.683
887.449
894.201
922.387
957.741
968.355
1036.82
1023.3
1052.99
1062.15
1079.6
1089.99
1065.75
1070.73
1030.02
1012.77
1006.97
997.455
999.997
995.777
902.026
893.179
892.065
882.215
883.424
890.061
916.21
933.535
982.128
1000.21
1023.22
1049.75
1064.83
1077.98
1106.53
1048.59
1012.34
1020.91
1005.98
1002.52
988.403
999.812
988.753
903.598
895.315
890.179
872.289
885.705
866.97
911.258
926.034
983.261
988.582
1015
1051.6
1073.76
1068.82
1111.37
1045.05
1006.84
1010.23
999.669
998.829
986.266
997.53
978.332
913.025
894.036
895.81
872.702
882.532
881.669
915.03
905.264
953.682
940.325
1002.51
1045.8
1081.85
1099.79
1102.63
1009.8
1040.06
943.607
969.726
985.6
985.63
995.493
978.621
822.298
543.688
485.026
617.22
630.638
569.946
463.424
462.411
447.255
493.698
527.42
582.301
597.964
597.961
624.126
612.189
590.302
571.954
552.337
774.777
486.507
441.717
634.07
632.939
521.86
435.838
434.459
402.336
453.432
517.422
572.11
567.373
584.35
629.763
597.318
579.492
562.663
536.322
673.163
459.703
443.748
625.123
597.973
551.235
478.105
474.322
418.687
458.935
521.441
548.373
568.871
545.039
631.993
658.099
482.337
568.964
498.26
681.72
448.472
496.594
612.189
561.805
449.251
429.583
481.966
511.056
543.506
561.135
567.729
611.016
577.139
623.084
677.223
480.078
566.618
501.06
669.927
466.969
551.931
605.355
541.766
330.762
298.272
323.282
398.887
503.804
567.379
635.78
534.328
609.087
590.088
629.619
470.478
492.217
426.105
708.235
593.725
640.924
644.76
525.925
309.256
242.075
249.475
264.696
321.638
462.704
591.739
532.472
551.674
535.537
614.119
468.374
463.04
382.582
745.781
680.667
673.5
483.473
356.016
277.207
238.465
248.685
253.919
267.014
304.966
416.898
577.283
582.232
439.752
534.525
551.634
499.557
357.964
784.021
754.041
656.754
429.133
274.592
290.037
235.445
245.252
252.987
271.423
335.131
401.87
552.794
512.455
263.164
442.776
506.439
595.948
421.084
903.19
906.194
887.245
854.014
872.654
872.486
851.672
903.025
896.374
965.616
1004.58
1058.72
1087.73
1142.54
1150.89
985.911
938.803
879.068
812.55
951.893
921.783
937.545
930.592
959.444
894.64
910.911
813.29
774.806
783.102
830.87
840.97
852.047
886.025
955.513
1022.8
1015.07
1116.02
850.869
810.892
985.049
772.55
605.747
667.366
699.176
872.99
960.862
973.355
870.768
621.521
462.743
330.156
363.782
445.098
496.189
431.723
476.83
725.314
857.014
859.898
1039.69
727.367
1126.3
843.239
885.66
685.25
530.391
586.31
905.942
978.151
1022.37
641.963
233.715
112.95
186.524
128.82
80.9721
83.4852
72.4097
91.5349
212.979
351.59
369.871
522.966
591.84
847.822
1227.16
1210.62
983.789
767.482
815.376
1077.05
1040.16
816.777
206.161
95.2408
77.6397
69.0794
57.4012
49.2617
24.6232
15.2806
20.4073
47.9642
80.2146
93.4793
60.3372
71.9939
461.745
852.022
1080.06
1112.67
1165.67
1129.01
964.589
758.965
526.641
105.282
69.3461
72.8481
31.1204
8.42477
7.92355
5.77205
5.73507
8.81979
15.6801
26.5782
24.9517
8.61799
7.51531
32.3234
97.2239
574.362
1013.93
1053.94
558.779
345.631
204.272
434.082
55.651
28.8875
17.039
6.62179
5.42021
5.31923
4.88269
4.51281
6.75382
14.0031
15.8437
5.84763
3.01391
3.03395
3.75879
8.2748
81.2007
384.631
719.434
624.708
431.378
272.762
419.428
34.9361
13.7572
7.66507
6.0033
5.28969
5.0217
4.92124
5.13159
8.41142
12.7373
6.76576
3.1155
2.94535
2.81168
2.7351
2.7547
4.57194
23.7758
147.446
520.753
745.455
477.458
294.055
23.3859
7.93274
6.47199
5.93314
5.48158
5.28844
7.76361
9.04783
8.5199
6.68596
2.26986
2.31443
2.57223
2.51166
2.72954
2.29519
2.16686
3.29845
20.5435
183.143
560.367
353.537
107.021
23.6779
8.06906
6.59146
7.42681
8.20174
10.0018
9.46495
8.29333
6.64035
2.8253
1.95538
2.23589
2.47929
2.12404
2.30857
1.79058
1.74521
2.16217
4.00933
13.166
17.8242
7.05206
27.1893
26.1877
7.70363
7.53219
10.1349
7.69959
4.19631
4.44724
3.9348
1.45284
1.22077
1.00317
1.36928
1.86225
2.09561
2.54254
1.94963
2.13086
1.61926
0.807958
4.7121
12.0026
15.0467
27.3711
24.9005
8.72946
7.43647
8.64784
2.90225
-0.0192952
-0.115351
-0.704876
-0.619811
0.0158346
-1.13009
0.26172
1.5141
2.62706
2.46149
1.68046
1.65256
1.30506
0.842702
1.48153
12.04
61.2803
48.4343
14.4057
3.86152
4.18752
4.86145
0.344659
-1.35677
-1.21335
-1.31015
-1.13549
-1.17263
-0.895763
0.130508
1.10339
2.63764
1.35901
1.4566
1.57319
1.35236
1.11158
1.76902
2.16256
6.30667
286.425
6.95201
1.6032
-0.432877
-0.0750971
-0.819982
-0.89611
-2.11939
-2.00126
-2.13274
-2.91303
-1.84749
-1.05034
-0.621105
1.7541
1.85049
1.47326
1.55439
1.60342
1.39916
1.49599
1.60074
1.29791
632.894
1.41699
-1.0534
-4.02345
-2.37659
-1.57786
-1.87003
-2.43252
-3.77347
-3.98871
-3.51255
-2.40552
-1.43426
0.268379
1.5307
2.18089
2.11814
2.20997
2.01187
1.68644
1.13785
1.81754
0.492332
660.919
2.54441
-1.01862
-3.74035
-2.15151
-1.69713
-1.61109
-2.31894
-3.89985
-4.74263
-3.73647
-2.16723
-1.12149
1.14209
1.84304
2.88744
2.10985
2.0084
1.89352
1.21345
1.09995
1.14115
0.915316
600.581
11.9358
0.834719
-0.254165
-0.734578
-1.56337
-0.683994
-1.58868
-2.77021
-3.39401
-2.99607
-1.68034
2.13645
6.38852
3.50643
3.0217
2.34966
2.2108
2.15498
1.50089
1.27075
1.01633
1.06596
176.632
14.1185
2.74952
1.589
-0.595593
-1.36737
-1.70141
-1.93594
-2.50578
-2.08071
-1.02875
0.972272
9.35142
15.0037
6.45477
3.51993
3.12747
2.48219
1.93405
1.47622
1.51068
1.17126
1.02137
14.3648
6.86406
4.1159
1.76487
-0.200283
-0.753808
-1.53726
-1.19246
-0.881251
-0.506049
5.3962
11.6545
12.797
4.70669
2.66046
2.73398
2.23556
2.2943
2.04839
1.46661
0.937444
0.779133
0.426886
5.35282
4.45462
4.39518
2.55188
0.900489
0.214112
-0.533461
-0.760147
1.30009
18.1702
22.9032
12.024
2.25242
0.46878
0.756773
0.722987
0.728098
1.68753
2.21801
1.48279
0.764717
0.611785
0.168192
5.50799
5.40965
10.3719
22.137
26.073
22.0372
9.4231
1.16754
4.58795
22.5496
24.8811
10.0057
-0.351001
-1.02907
-0.179901
-0.870168
-0.722133
0.849686
0.779191
1.03166
0.899788
0.21829
0.506179
5.18027
5.52728
43.7541
44.1913
20.2144
21.2862
23.3178
13.1578
3.1539
7.40643
19.6146
7.91502
-1.02687
-1.37355
-1.02977
-1.64831
-1.56999
-0.367225
-0.326628
-0.301298
0.589135
-0.162394
0.00320669
5.66106
18.7295
57.8414
27.4258
1.73053
1.34909
8.5365
6.42803
0.872161
0.706433
9.99835
4.05634
-1.45451
-1.63117
-1.2452
-1.35254
-0.984952
-0.9814
-2.05028
-1.56692
-0.902418
-0.677756
-0.269977
8.85452
56.9475
46.1296
8.95489
-0.0398743
-0.872248
-0.970202
0.254532
-1.29983
-1.23868
2.66378
1.97449
-1.88827
-1.42915
-1.57348
-1.54786
-0.857826
-1.90195
-2.1547
-1.05465
-1.33766
-0.539827
-0.146984
9.58562
58.8701
7.54247
1.20472
0.41386
0.390302
-0.678871
-2.30131
-2.19777
-2.44147
8.97706
8.29724
-1.55792
-1.10557
-0.977226
-1.31215
-1.63739
-1.67053
-1.40036
-0.634157
-0.295257
-1.1692
-0.453428
24.4035
53.7846
2.24022
1.69375
1.24293
-0.141043
-2.05372
-2.8166
-2.48962
3.554
7.70131
8.44988
-0.783701
-0.86169
-0.432404
-0.850989
-1.32893
-1.20809
-0.149036
0.263931
-0.568498
-0.455986
-0.52111
48.1045
26.8915
2.54703
1.92664
1.02246
-0.681505
-1.11169
1.51156
6.4151
10.5717
10.7024
0.0126606
-0.909314
-0.621811
-0.961107
-0.331281
0.338968
0.625315
0.158375
-0.413126
-0.84371
-0.695184
-0.461453
48.4097
11.3339
2.24773
1.53472
0.793022
-0.249253
-0.277755
2.46373
8.6938
10.6599
3.80544
-0.35016
-0.0702879
0.489346
0.904234
0.785116
0.4071
0.429492
-0.349598
-0.425347
-0.71263
-0.428555
-0.409997
35.2988
6.11336
2.15791
1.70782
0.890745
0.204099
-0.157281
0.682998
3.24113
3.53708
2.3663
1.50316
1.03707
1.04505
1.47638
0.845514
-0.222632
-0.507669
-0.590596
-0.685081
-0.986861
-0.496092
-0.689608
10.9467
3.81821
1.60948
1.35861
0.801945
0.263273
0.0186763
0.29562
0.817641
0.601561
2.66511
3.83406
3.27006
2.82863
0.92442
0.000869977
-0.412768
-0.308312
-0.332422
-0.384923
-0.395663
-0.409933
-0.0477383
2.49295
2.6407
1.45438
1.22164
0.44187
0.122903
0.0749042
0.376465
0.925603
0.811157
1.01111
1.96936
3.08233
1.9003
0.234604
-0.148014
-0.597791
-0.421923
-0.0652107
-0.0757106
-0.125513
0.0467868
0.0544802
1.30619
0.881118
1.19944
1.55381
0.578887
0.313119
0.0249759
0.431949
0.547787
0.624555
0.565437
0.748711
1.2918
0.493846
0.0088982
0.230517
-0.338843
-0.543673
-0.0773751
0.0261564
0.123381
-0.119193
-0.0540638
1.2907
0.935055
1.87103
1.54017
0.861768
0.182502
0.196375
0.360522
0.479322
0.519541
0.598551
0.491635
0.665788
0.252203
-0.0181225
-0.0396196
-0.288449
-0.26772
0.0640569
-0.00226168
0.0236805
-0.0297471
-0.0794224
1.09064
0.857943
0.566272
1.51269
0.806297
0.17078
0.152499
0.138321
0.293265
0.364477
0.334386
0.260681
0.272697
0.236722
0.173094
0.410204
-0.056603
0.0191797
-0.157338
-0.0518958
0.0398842
0.0145642
0.0922435
1.13843
1.95123
1.43061
1.27387
0.387707
0.0470679
0.119815
0.113136
0.184033
0.222649
0.237257
0.181724
0.193012
0.156109
0.103675
-0.0111719
-0.0167889
-0.0746485
-0.0876287
0.0312187
-0.043314
-0.11893
0.0338086
2.53871
3.60902
1.21473
0.307906
0.288749
-0.124513
0.106727
0.00431125
0.0676508
0.0951959
0.11869
0.121362
0.134849
0.141852
0.146167
0.257222
0.303862
0.0245948
0.0766505
-0.0505592
0.0181858
-0.0656942
-0.16808
22.835
4.18077
0.583199
-0.172141
0.145623
-0.144354
-0.059608
-0.0940408
-0.0265005
0.0123726
0.0464206
0.0849621
0.115046
0.158134
-0.00645318
0.0492413
-0.0817652
0.0220374
0.0135952
-0.0429461
-0.0129459
0.0174753
-0.0825498
46.9605
9.35616
0.696477
-0.528913
-0.315639
-0.360211
-0.240793
-0.195381
-0.115349
-0.0724192
-0.0216306
0.0262735
0.11919
0.0424812
0.0703472
0.0928791
0.0307146
-0.00962224
0.0391165
0.0192302
0.0255551
-0.00675685
-0.126499
35.8143
17.6088
1.19136
-0.865546
-0.525305
-0.493932
-0.323615
-0.261073
-0.177655
-0.113679
-0.0521467
0.0377066
0.0833627
0.0109047
-0.0830092
0.102921
0.0195781
-0.0279933
0.0230852
-0.025586
-0.0286115
-0.037187
-0.0404616
36.553
15.7869
0.689271
-1.14151
-0.610515
-0.467111
-0.303402
-0.187692
-0.111947
-0.0194956
-0.00936007
0.056471
-0.0220426
0.0999939
-0.0423728
-0.0621678
0.150846
0.0078996
-0.0400458
-0.0652603
0.060422
-0.0142384
-0.0155886
31.0695
6.73731
-0.105852
-0.940742
-0.480678
-0.334283
-0.0650149
-0.200235
0.0314317
0.130378
0.122871
0.119101
0.0157131
0.0355888
-0.0660406
0.0312232
-0.00941085
0.0578309
-0.0731041
-0.0279165
-0.11948
0.0432086
-0.191171
2.06651
-1.83508
-1.13514
-0.754352
-0.323657
-0.1564
-0.0476516
0.0730768
-0.0899971
0.046422
-0.0339615
-0.0444494
-0.0187124
-0.0892649
-0.0182615
-0.0658065
0.0113012
0.0932668
-0.153977
0.0799828
0.16856
-0.0249127
0.0231403
927.84
924.435
943.175
921.634
926.199
891.945
880.654
920.333
1070.95
1042.81
1042.95
959.512
1018.38
1004.13
988.776
813.912
623.009
788.353
914.032
428.763
184.725
302.868
351.808
206.443
53.1964
49.8727
67.2664
64.7669
8.12476
6.42861
7.943
16.4856
61.574
2.92767
2.76958
4.42902
6.00702
4.06954
4.7184
5.41887
6.28571
6.74441
7.157
7.78161
78.1161
60.9132
14.4678
12.1374
26.9381
46.2947
45.8307
25.5138
3.52934
5.80742
6.71647
3.90927
0.39491
0.587269
0.704523
0.866444
0.782009
0.785342
0.981407
1.01882
0.971096
0.752797
0.844067
0.852588
0.897726
0.99332
0.932347
1.0639
0.452158
0.680468
0.798381
0.840059
0.209399
0.222702
0.259852
0.354186
0.533472
0.434396
0.474988
0.585641
0.226117
0.431722
0.692233
0.507969
-0.127169
-0.0779786
-0.122582
0.0598979
0.0188622
0.0898262
0.169436
0.0381987
0.0522209
0.211503
0.299516
0.402417
-0.395062
-0.0631713
0.114425
0.113666
-0.342077
-0.205828
0.0936032
0.282288
-0.366012
-0.405206
-0.484903
-0.330062
-0.512122
-0.26637
-0.274912
-0.325893
-0.341787
-0.318279
-0.302655
-0.168346
-0.0739874
0.0222502
0.195661
0.160723
-0.184602
-0.0836671
-0.0445977
-0.0118366
-0.131473
-0.118622
-0.102101
-0.108599
0.0467233
-0.0480914
-0.00141186
0.0279947
-0.0234222
-0.093269
-0.122669
-0.199684
-0.044634
-0.0436087
-0.0254299
-0.0179544
-0.171055
-0.0921937
-0.159351
-0.0661329
-0.138001
-0.299154
-0.261697
-0.274458
-0.130732
-0.0358981
-0.0380906
-0.0722846
0.0363309
0.0583271
0.0130955
-0.0781219
-0.255847
-0.272414
-0.24378
-0.179268
-0.00110631
-0.0203222
-0.0797206
-0.179222
870.758
824.158
602.505
360.035
264.207
244.514
234.442
240.077
253.966
424.633
543.543
664.418
594.435
392.022
171.915
152.568
173.053
285.107
486.972
898.243
453.572
273.977
294.339
270.166
223.906
225.146
232.516
378.75
669.537
861.626
649.943
460.75
178.997
132.894
102.887
143.179
92.0743
373.333
798.531
278.224
207.344
450.688
466.126
336.646
215.444
230.987
420.581
508.636
807.204
653.552
122.422
79.4624
88.2994
81.7284
125.098
62.3819
128.429
390.731
172.931
419.169
411.819
455.934
560.605
276.224
247.285
317.005
232.425
583.727
256.129
35.7912
25.5309
44.8883
51.5492
30.1285
20.4229
19.4262
137.556
75.8742
64.1819
94.8088
375.005
541.905
545.815
608.182
671.111
606.098
522.994
153.992
29.0401
20.2378
34.6158
30.0508
14.5411
19.1884
22.004
91.0711
36.0931
21.9707
17.2402
47.2837
219.598
476.778
459.98
312.863
447.338
233.61
75.8948
15.4875
4.86529
3.47842
3.58641
10.1677
37.0907
63.3934
59.9985
32.4708
14.5406
12.6827
24.6789
25.0424
34.2271
38.4624
26.0533
66.1267
56.0296
43.8517
7.05289
3.22998
2.0931
0.838114
3.95505
7.53402
8.25299
29.2609
25.6237
25.3354
8.46235
9.15086
17.3425
39.8848
17.9704
14.4898
23.373
28.3821
14.7866
3.55828
2.52033
1.70064
1.24529
2.31738
6.4388
6.35744
6.96472
8.99011
32.4951
8.9963
6.32035
16.9659
29.7859
16.8519
14.5333
29.6106
43.501
6.02791
2.65297
1.96355
0.79128
0.269502
2.41177
9.28082
8.3582
6.62297
9.21649
25.9944
8.39625
5.83359
17.6499
21.7155
14.9622
14.0882
58.6092
130.922
26.6861
2.93131
1.75726
0.899723
-0.0621679
3.68421
8.55125
12.3465
7.90737
16.3971
3.86135
3.611
8.02215
9.80172
11.5733
12.1444
16.3511
48.4511
150.578
156.184
11.9886
1.68561
0.58957
0.368027
3.0158
7.80495
10.3323
16.7212
23.6065
3.70836
2.48877
3.66935
4.84054
9.64759
20.8019
36.7046
45.6512
70.302
170.964
45.1823
2.4951
1.16265
1.17475
4.02355
7.63293
3.99692
10.8644
4.45153
1.74076
1.36092
2.23717
5.74846
16.3702
25.1154
18.7563
17.5382
16.0126
59.2332
55.2049
3.25845
1.18591
1.90342
10.8337
4.48055
2.71248
2.60427
1.14637
1.36221
0.978425
2.58925
3.54792
2.20237
3.29223
1.62323
2.23101
2.41506
10.0778
58.8149
43.7232
22.5256
22.6474
14.0963
3.39002
2.43616
1.02143
1.2552
1.57319
2.43623
2.62601
1.88717
0.897611
0.691236
0.757036
0.986418
1.05283
4.40635
20.0913
32.9343
33.0153
24.6906
5.36303
1.89143
2.2667
1.11141
1.5618
1.8634
1.45107
1.38201
0.954316
0.848522
0.733888
0.821094
0.854691
0.935257
1.05654
1.10129
1.67917
3.88508
2.12167
1.44817
1.49493
2.13739
1.23004
1.3419
1.28144
0.981786
0.841514
0.837578
0.890139
0.690426
0.822633
0.776105
0.568458
0.924423
0.688538
0.934594
0.97893
1.13029
1.13423
1.16312
1.5244
1.06697
1.09874
0.968254
0.901521
0.837785
0.771973
0.803239
0.776639
0.904417
0.853437
0.848204
0.842103
0.864683
0.900813
0.981928
0.998394
1.22086
1.19458
1.20634
0.969943
0.870214
0.887802
0.930553
0.868795
0.828022
0.7833
0.755969
0.722073
0.645664
0.806116
0.838366
0.91125
0.968882
1.03075
1.14225
1.23906
1.27174
1.31115
0.895639
0.975576
0.625187
0.884365
0.854751
0.830369
0.788271
0.756439
0.785979
0.723176
0.751993
0.823056
0.889665
0.956731
0.935369
1.45513
1.64439
1.6294
1.63042
0.0457498
0.247105
0.993055
0.768208
0.815034
0.856496
0.771722
0.513505
0.766406
0.887406
0.87622
0.846323
0.881103
0.918824
0.964761
1.55465
1.75623
1.76432
1.77006
0.386822
0.311741
0.695047
0.729623
0.739427
0.523249
0.803036
0.711165
0.728266
0.766992
0.846928
0.839041
0.842589
0.81284
0.782272
1.10035
0.95629
0.989246
0.945851
0.819155
0.289858
0.51953
0.518957
0.642925
0.559759
0.360727
0.850234
0.658202
0.623134
0.685403
0.80287
0.832743
0.762544
0.751264
0.845379
0.864919
0.895981
0.800214
-0.0340946
0.821914
0.505088
0.492803
0.458514
0.423704
0.552274
0.515275
0.702145
0.795064
0.658533
0.761577
0.813602
0.658819
0.679387
0.77161
1.86738
1.40561
0.778228
0.257207
0.389039
0.489724
0.495375
0.648028
0.834239
0.706027
0.536385
0.656603
0.615826
0.504616
0.70227
0.683423
0.565439
0.628935
1.38454
3.62674
2.53953
0.897697
0.588325
0.455078
0.390835
0.450027
0.38981
0.567846
0.706328
0.440629
0.674253
0.54647
0.34772
0.690923
0.534315
0.44745
0.54546
2.0255
3.43824
3.19494
0.873531
0.297974
0.184236
0.282378
0.565003
0.603295
0.652772
0.950405
0.485205
0.648775
0.87119
0.316106
0.300172
0.497564
0.434742
0.391969
2.03689
3.365
2.69535
0.831129
0.0855634
0.0877319
0.163686
-0.211829
-0.0465412
0.291081
0.489997
0.210684
0.163345
0.83079
0.757074
0.340137
0.361276
0.347346
0.207442
0.819667
3.41965
1.51826
0.624179
-0.388069
-0.252875
-0.388775
-0.233388
-0.139243
0.180431
0.584826
0.612343
0.0966181
0.568814
0.514937
0.470269
0.404121
0.432687
0.172823
0.615085
2.36728
1.13297
0.482385
0.0758514
0.0674726
-0.206663
0.111682
0.237755
-0.368861
0.026686
0.211913
-0.140664
0.280703
0.290085
0.112345
0.275156
0.405429
0.332021
1.00745
1.79966
0.910626
0.417689
-0.0724382
-0.255993
-0.252639
0.0720037
0.0302178
0.234345
-0.586387
-0.125036
-0.170136
0.221379
0.2373
0.0959417
0.130969
-0.0789125
0.267509
0.997873
1.67148
0.906818
0.373509
0.0467051
0.0724878
0.0987326
0.412517
0.0571518
-0.0640514
-0.409964
-0.247376
0.0146348
0.0979896
0.370381
0.282929
0.152125
0.19479
0.468251
0.549745
1.22026
0.80487
0.349003
-0.266533
-0.00127279
0.440718
0.180341
0.0687058
0.144199
0.26772
-0.379898
0.0278647
0.0939975
0.140263
0.0501313
0.00424433
0.122683
0.356726
1.7651
1.35677
0.41079
0.256436
0.131832
-0.140803
-0.339205
-0.159231
-0.0873636
0.0281059
0.0875589
-0.221844
-0.343737
-0.315713
-0.0836646
0.137946
0.0597488
0.118973
2.07614
2.78192
1.41455
0.304707
0.176091
-0.0445384
-0.149009
-0.297879
-0.203574
-0.241897
-0.0772168
-0.771418
-0.355734
-0.344786
-0.356183
-0.309325
-0.212848
0.00171495
0.0489354
4.66678
2.73748
0.550096
0.193561
0.148516
0.0146221
-0.00943081
0.121257
-0.212521
-0.342018
-0.899807
-0.689527
-0.434706
-0.319917
-0.268891
-0.218308
-0.173521
0.0515867
0.880956
4.67509
0.82012
0.0908247
0.018762
0.0972488
-0.0114924
-0.0635944
-0.0962652
-0.133413
-0.277872
-0.512169
0.00305737
-0.255409
-0.176138
-0.316962
-0.0304341
0.0039862
0.677959
3.51524
4.08907
0.88999
0.0737421
0.122634
0.110329
-0.415015
-0.199549
-0.0686565
0.0171181
-0.17127
0.131279
-0.0103847
-0.0812836
-0.121746
-0.104317
-0.112854
0.0325863
0.243801
3.69048
2.33438
0.526757
0.0392913
0.0790807
0.118884
-0.154977
-0.245507
-0.0631756
-0.542127
-0.267066
-0.132342
-0.407265
-0.454866
-0.324313
-0.134404
-0.0758047
-0.0679791
0.0770939
1.26818
2.35052
0.969309
0.0446461
0.0595938
0.0398064
0.0575324
-0.237103
-0.522511
-0.409638
-0.329055
-0.61305
-0.313725
-0.397984
-0.228771
-0.167312
-0.0331639
-0.00293972
0.0108421
0.0787062
1.56869
1.48075
0.166778
0.0202879
-0.00297137
-0.0822072
-0.142252
-0.369705
-0.429975
-0.194617
-0.343929
-0.334504
-0.273653
-0.200403
-0.0599954
0.00407762
0.0506442
0.12356
0.0334331
1.04273
0.811638
0.108418
0.044854
0.0420426
-0.241194
-0.346356
-0.179443
-0.126102
-0.396578
-0.136736
-0.0697306
-0.0452135
-0.0296538
0.004214
-0.0734167
-0.0324188
-0.159389
-0.0168828
0.140925
0.225017
-0.0268932
-0.0393284
-0.0224021
)
;

boundaryField
{
    leftWall
    {
        type            zeroGradient;
    }
    rightWall
    {
        type            zeroGradient;
    }
    lowerWall
    {
        type            zeroGradient;
    }
    atmosphere
    {
        type            totalPressure;
        rho             rho;
        psi             none;
        gamma           1;
        p0              uniform 0;
        value           nonuniform List<scalar> 
46
(
0
0
0
0
0
0
0
0
0
0
0
0
-0.000134413
-9.77014e-05
-0.0131182
-0.0137032
-0.00284963
0
-0.0036252
0
0
-0.0033695
-0.0756136
-0.139316
-0.157074
-0.165956
-0.177523
-0.175745
-0.227744
-0.261588
-0.25157
-0.261697
-0.243273
-0.194613
-0.143598
-0.0914553
-0.0459643
-0.0217346
-0.0165345
-0.00704956
0
0
0
0
0
0
)
;
    }
    defaultFaces
    {
        type            empty;
    }
}


// ************************************************************************* //
