/*--------------------------------*- C++ -*----------------------------------*\
| =========                 |                                                 |
| \\      /  F ield         | foam-extend: Open Source CFD                    |
|  \\    /   O peration     | Version:     4.1                                |
|   \\  /    A nd           | Web:         http://www.foam-extend.org         |
|    \\/     M anipulation  |                                                 |
\*---------------------------------------------------------------------------*/
FoamFile
{
    version     2.0;
    format      ascii;
    class       volScalarField;
    location    "0.8";
    object      alpha1;
}
// * * * * * * * * * * * * * * * * * * * * * * * * * * * * * * * * * * * * * //

dimensions      [0 0 0 0 0 0 0];

internalField   nonuniform List<scalar> 
2268
(
1
1
0.999999
0.999999
0.999999
0.999999
1
1
1
1
1
1
1
1
1
1
1
1
1
1
1
1
0.999993
0.999999
0.999999
1
1
1
1
1
1
1
1
1
1
1
1
1
1
1
1
1
1
1
0.999999
0.999982
0.999999
1
1
1
1
1
1
1
1
1
1
1
1
1
1
1
1
1
1
1
1
0.999999
0.999979
1
1
1
1
1
1
1
1
1
1
1
1
1
1
1
1
1
1
1
1
1
0.999998
0.999984
1
1
1
0.999999
0.999999
1
1
1
1
1
1
1
1
1
1
1
1
1
1
1
1
0.999999
0.999996
1
0.999998
0.999951
0.999792
0.999727
0.999998
0.999999
1
1
1
1
1
1
1
1
1
1
1
1
1
1
1
0.999998
0.999998
0.999979
0.999813
0.999341
0.999551
0.999981
0.999994
0.999998
1
1
1
1
1
1
1
1
1
1
1
1
1
0.999993
0.999828
0.999991
0.999894
0.999572
0.999363
0.999947
0.999946
0.99988
0.999978
1
1
1
1
1
1
1
1
1
0.99948
0.999321
0.999995
1
0.999538
0.99525
0.995562
0.974
0.899836
0.805832
0.771327
0.78211
0.868127
0.911614
0.927603
0.946545
0.981323
0.989607
0.990226
0.988229
0.990868
0.989953
0.990394
0.987426
0.987682
0.992259
0.846759
0.433477
0.359062
0.363601
0.566854
0.502946
0.401512
0.407367
0.472185
0.669981
0.820762
0.926736
0.950881
0.944158
0.876878
0.893727
0.905749
0.905747
0.993217
0.859698
0.565404
0.541917
0.806949
0.961135
0.964384
0.606802
0.207217
0.205868
0.247793
0.371871
0.804679
0.960907
0.935654
0.747329
0.414511
0.423508
0.578335
0.994367
0.944441
0.902383
0.912619
0.892571
0.960507
0.965287
0.967562
0.925633
0.813128
0.924201
0.927596
0.953134
0.9854
0.982505
0.82857
0.244115
0.180691
0.439476
0.995925
0.992303
0.99011
0.919006
0.378854
0.612364
0.605558
0.855688
0.973655
0.986489
0.989584
0.987443
0.987175
0.986905
0.986652
0.881419
0.293695
0.17412
0.578405
0.995943
0.995943
0.984626
0.804294
0.172803
0.187712
0.101719
0.250546
0.668618
0.958459
0.989527
0.988354
0.970411
0.980067
0.986456
0.919775
0.470774
0.174671
0.575108
0.995943
0.995943
0.946934
0.543038
0.146684
0.122799
0.0441242
0.0298331
0.0989814
0.576244
0.933983
0.91604
0.865055
0.927497
0.956333
0.939204
0.527733
0.0953102
0.346843
0.995943
0.995943
0.852009
0.396713
0.1682
0.104918
0.0356225
0.029836
0.0298331
0.082704
0.629502
0.771671
0.778862
0.901944
0.759077
0.657587
0.269985
0.0380013
0.120723
0.997655
0.995921
0.997377
0.993202
0.991485
0.990897
0.996953
0.997301
0.997333
0.996725
0.995619
0.994994
0.993224
0.985699
0.973699
0.956624
0.961336
0.873605
0.854327
0.872824
0.924551
0.942516
0.981588
0.983718
0.953764
0.914544
0.887976
0.823867
0.812222
0.823219
0.879405
0.87331
0.842885
0.810971
0.807965
0.806805
0.75684
0.620756
0.570779
0.670486
0.520214
0.46072
0.411626
0.513486
0.762044
0.985084
0.959568
0.587254
0.222375
0.19873
0.163722
0.193658
0.188939
0.233332
0.242474
0.210345
0.161798
0.166411
0.175652
0.168545
0.0887101
0.0848021
0.326237
0.75337
0.878476
0.41621
0.24189
0.390921
0.969064
0.893122
0.105425
0.0182517
0.0180463
0.0756692
0.161632
0.104545
0.0267301
0.0219119
0.0223931
0.0243874
0.0176705
0.0110032
0.0160925
0.00811906
0.0891293
0.561907
0.960106
0.980395
0.942635
0.652438
0.648366
0.995514
0.622557
0.0652816
0.0628948
0.130201
0.106524
0.0197303
0.00696863
0.0067296
0.0248317
0.0467857
0.0464648
0.0168624
0.00231176
0.00111735
0.00276005
0.065743
0.464917
0.93316
0.980441
0.980395
0.960441
0.96609
0.994426
0.479699
0.0943739
0.0871133
0.0789126
0.0184486
0.00292169
0.0135024
0.061807
0.0886287
0.0890982
0.0743524
0.0138227
0.00166954
0.00111735
0.0011748
0.0279866
0.293663
0.842344
0.980371
0.98044
0.910958
0.758761
0.637496
0.407554
0.0444184
0.0245147
0.0113548
0.0018416
0.00159259
0.0124695
0.0384146
0.0562376
0.0398087
0.00852308
0.00373911
0.00173157
0.00111735
0.00534011
0.0852089
0.362441
0.632172
0.846086
0.954247
0.714257
0.22561
0.0675188
0.295263
0.0163539
0.00214957
0.000648713
0.000345081
0.00170899
0.00279214
0.000878115
0.000529454
0.000474193
0.000850544
0.00151445
0.00173319
0.00189074
0.00851313
0.0184149
0.0211179
0.0417547
0.208414
0.553476
0.772688
0.774207
0.613781
0.132098
0.00739364
6.59495e-05
2.25071e-05
0.000193293
0.00047301
0.00020508
4.41643e-05
3.61143e-05
4.81527e-05
0.000128918
0.000603152
0.0022307
0.00447662
0.00470882
0.0020566
0.00145691
0.00162976
0.00829096
0.0402072
0.178976
0.378186
0.582639
0.0378594
0.00281302
1.13999e-05
1.10053e-05
2.98602e-05
4.35767e-05
4.3307e-05
3.355e-05
3.3552e-05
0.000203473
0.000701409
0.0010464
0.00112886
0.00143301
0.000913493
0.000271148
0.000148729
0.000343567
0.00164097
0.00623611
0.020611
0.0617245
0.204528
0.00964645
0.0013001
1.28439e-05
1.08753e-05
3.02724e-05
5.70068e-05
5.91717e-05
4.02071e-05
0.000101462
0.000825783
0.00239605
0.00278812
0.00154853
0.000307817
7.66076e-05
5.39451e-05
5.21532e-05
6.13643e-05
0.000404898
0.00227739
0.00688969
0.0119504
0.0224655
0.0027496
0.00176701
0.000131699
8.28997e-05
0.00027692
0.000566368
0.00055849
0.000209721
0.000203345
0.0008946
0.00258846
0.00278816
0.00278812
0.00120353
7.24884e-05
5.21117e-05
5.17357e-05
5.17581e-05
0.000108181
0.000587908
0.00158131
0.00355436
0.00907878
0.000681981
0.00134602
0.000878419
0.00031075
0.00026114
0.000343146
0.000304487
0.000474606
0.000475815
0.000275536
0.000926554
0.00276612
0.00248192
0.000327494
5.0815e-05
5.05664e-05
5.17581e-05
5.17357e-05
5.17581e-05
0.000174756
0.000434962
0.0008766
0.00631153
7.88834e-05
0.000452257
0.000736989
0.000291075
0.000111659
4.67676e-05
1.36685e-05
1.10455e-05
3.84087e-05
0.000230605
0.000283391
0.00102848
0.00137622
0.000288933
9.85753e-05
5.18101e-05
5.17357e-05
5.53176e-05
0.000214921
0.000410579
0.000405181
0.00018311
5.28508e-05
5.57045e-05
5.57045e-05
0.00016307
7.38357e-05
1.83275e-05
3.28615e-06
2.31221e-06
2.31111e-06
2.31221e-06
5.61077e-06
9.1027e-05
0.000377509
0.000480482
0.000463153
0.000411972
0.000187775
5.21368e-05
0.00011171
0.000466425
0.000598115
0.000592665
0.000161755
1.5033e-05
0.000146033
0.000120649
0.000127514
6.71774e-05
3.48488e-05
9.72776e-06
2.31111e-06
2.95968e-06
3.27095e-06
3.28174e-06
8.30379e-06
3.61046e-05
5.95613e-05
9.06472e-05
0.000489356
0.000585152
0.00017083
9.31689e-05
0.000246368
0.000417624
0.000320049
0.000116282
4.62779e-05
0.000902956
0.000812632
0.000736508
0.00040633
0.000125025
1.21392e-05
9.52136e-06
6.42405e-05
0.000133712
9.74659e-05
4.16133e-05
3.73414e-05
3.84669e-05
5.88989e-05
0.000390035
0.000446145
0.000155562
0.000125141
8.66756e-05
1.1275e-05
1.77523e-06
1.21177e-06
2.27472e-06
0.00050143
0.000896138
0.000724182
0.000339506
0.000116958
0.000384025
0.000413109
0.00139727
0.000989083
0.000439159
0.000471006
0.00029993
8.90313e-05
6.01516e-05
0.000172887
0.000144122
3.1872e-05
1.3491e-05
4.49132e-06
6.47809e-07
8.80809e-08
4.63937e-08
2.58613e-07
7.07432e-05
0.00039378
0.000278368
0.00025703
0.000917609
0.0119275
0.0140276
0.0117266
0.00415178
0.00485082
0.00518782
0.00274017
0.000438022
6.19608e-05
7.07277e-05
3.05686e-05
6.69261e-06
1.00248e-06
3.28915e-07
3.4497e-07
5.67429e-08
1.0932e-08
1.00678e-08
1.9381e-05
0.00072762
0.00880904
0.0209583
0.0147036
0.00727458
0.00926196
0.00604091
0.00655531
0.00654626
0.00655531
0.00523144
0.000817183
9.73977e-05
0.000184074
5.24888e-05
2.9739e-05
4.68121e-06
1.23373e-05
2.31593e-05
2.64529e-06
2.96489e-07
5.95884e-09
7.94114e-05
0.00348149
0.0199886
0.0215375
0.0150064
0.00180778
0.0013495
0.00125517
0.00406206
0.00340582
0.00262159
0.00341637
0.00118063
0.000358015
0.000373564
9.71788e-05
4.02698e-05
3.11174e-05
0.000155356
0.000215576
4.70601e-05
8.1519e-06
3.20621e-07
0.000941507
0.0101786
0.0199695
0.00676362
0.000607949
0.000166753
0.000217843
0.000812535
0.00128716
0.000726962
0.000429382
0.00108923
0.00103838
0.000789873
0.00091419
0.000407313
7.74779e-05
6.60999e-05
0.000414183
0.000572192
0.000321243
7.8475e-05
3.35157e-06
0.000981065
0.0103563
0.0195164
0.00259488
9.35211e-05
5.95889e-05
0.000116491
0.000618821
0.00101345
0.000197822
0.000124987
0.000139693
0.000365568
0.000552155
0.00091916
0.000892836
0.000174648
0.000100498
0.000424072
0.00057156
0.000572192
0.000233491
1.10436e-05
0.00168954
0.0103036
0.00995341
0.000303288
5.95579e-05
5.94206e-05
9.87756e-05
0.000468749
0.000851625
0.00040685
0.000118623
9.03043e-05
0.000101212
0.000570424
0.000919167
0.00091946
0.000492757
9.23776e-05
8.09054e-05
0.000480527
0.00057156
0.000309369
1.76391e-05
0.00232328
0.0102922
0.00361042
5.95579e-05
5.94206e-05
5.94144e-05
5.93952e-05
0.000131891
0.000442976
0.000554598
0.000326826
9.02987e-05
9.57561e-05
0.000548907
0.000888095
0.000919511
0.000513414
7.81826e-05
6.89827e-05
0.000292216
0.000521677
0.000154998
6.23792e-06
0.00347247
0.0103036
0.00134255
7.29293e-05
5.94144e-05
5.93782e-05
5.92344e-05
5.92253e-05
0.000124723
0.000328176
0.00037087
0.000261212
0.00014183
0.000298688
0.000242051
0.00040653
0.000160047
7.49822e-05
0.000181176
0.000335817
0.000160292
1.87486e-05
5.90745e-07
0.00403159
0.00742602
0.0026782
0.000965348
0.000426782
0.000200551
0.000193738
0.000161865
5.92434e-05
4.3694e-05
9.7761e-05
0.000132747
0.000111478
9.01342e-05
7.936e-05
7.98584e-05
0.000167805
0.00050964
0.000513499
0.000310553
4.65959e-05
1.34356e-06
8.70322e-09
0.00255309
0.0029667
0.00206704
0.00131397
0.00109227
0.000544396
0.000281472
0.00011493
3.50786e-05
2.77751e-05
2.04818e-05
1.80686e-05
4.92115e-05
3.97394e-05
7.90284e-05
0.000216195
0.000279597
0.000232432
9.52164e-05
1.81782e-05
2.18405e-06
1.08585e-07
1.47834e-09
0.000878691
0.000672372
0.000517833
0.00034766
0.000429913
0.00023736
0.000114838
3.78812e-05
5.47329e-06
1.46687e-06
9.68375e-07
9.25522e-07
5.50311e-06
1.14175e-05
3.20286e-05
7.8684e-05
7.475e-05
5.02321e-05
1.91134e-05
4.01435e-06
3.60425e-07
1.0011e-08
1.60856e-10
0.000165613
8.31206e-05
4.54971e-05
1.37511e-05
3.05125e-05
1.23298e-05
4.93562e-06
1.72273e-06
2.86895e-07
2.222e-08
6.35568e-09
9.84262e-09
5.67917e-08
4.6919e-07
1.2691e-06
2.00199e-06
1.30122e-06
6.10726e-07
1.8295e-07
3.432e-08
4.60624e-09
2.10649e-10
1.52892e-10
1.50508e-05
3.88636e-06
1.56915e-06
1.48169e-07
2.09325e-07
4.44885e-08
1.03199e-08
3.88572e-09
8.22555e-10
7.99663e-11
2.46209e-11
2.95241e-11
5.5553e-11
7.48699e-10
1.93002e-09
8.06573e-10
2.29418e-10
8.04456e-11
2.49505e-11
4.82795e-12
1.11717e-12
7.70147e-12
1.69475e-09
4.7765e-07
4.30979e-08
1.55024e-08
1.85838e-09
1.29949e-10
3.01383e-11
2.48634e-11
2.10926e-11
1.97083e-11
2.06028e-11
2.25284e-11
2.26659e-11
2.22325e-11
2.08919e-11
1.96959e-11
1.59997e-11
1.0683e-11
5.6416e-12
2.24945e-12
7.93027e-13
8.31906e-13
3.75133e-10
3.01179e-08
3.17467e-09
1.62658e-10
5.74149e-11
4.53303e-11
3.92579e-11
3.51899e-11
3.01899e-11
2.22553e-11
1.84989e-11
1.90299e-11
2.13173e-11
2.15983e-11
2.05634e-11
1.80034e-11
1.44805e-11
1.01051e-11
5.49912e-12
1.99276e-12
7.94563e-13
7.83965e-13
1.08613e-11
6.9952e-09
2.48705e-07
7.54307e-11
8.3684e-11
7.31531e-11
5.11126e-11
3.84863e-11
3.07823e-11
2.03088e-11
1.20321e-11
1.00859e-11
1.1815e-11
1.55825e-11
1.48965e-11
1.22366e-11
8.36536e-12
4.53999e-12
1.76093e-12
5.75942e-13
1.32997e-13
3.01593e-12
3.85291e-12
3.02666e-10
7.26226e-08
8.03254e-07
9.95682e-11
1.1809e-10
7.4497e-11
3.42501e-11
2.00286e-11
1.1015e-11
3.78818e-12
2.0137e-12
1.9578e-12
3.10228e-12
5.89528e-12
5.19834e-12
3.58791e-12
1.72732e-12
5.42027e-13
1.54246e-13
3.98816e-14
2.45085e-14
1.87983e-11
8.01715e-11
1.45255e-08
4.70668e-07
1.09308e-06
1.38915e-10
1.0943e-10
3.34015e-11
7.32279e-12
2.6884e-12
7.39837e-13
1.07756e-13
7.78744e-14
9.15334e-14
1.32189e-13
7.48665e-13
5.88971e-13
3.06222e-13
8.47171e-14
1.3457e-14
2.22111e-15
1.83735e-15
4.02557e-14
7.45943e-11
1.40952e-08
4.3952e-07
1.44953e-06
7.97691e-07
9.75049e-11
3.94233e-11
3.03067e-12
2.46338e-13
4.60376e-14
4.83347e-15
5.78003e-16
6.40555e-16
7.28499e-16
6.55978e-16
2.35069e-14
1.59813e-14
4.79825e-15
6.92046e-16
2.49513e-16
2.13782e-15
1.44632e-14
2.0949e-13
4.60596e-10
5.7544e-07
3.12538e-06
1.85983e-06
2.31202e-07
1.84654e-11
2.51463e-12
2.96268e-14
1.10246e-15
3.8452e-16
2.32725e-16
1.47151e-16
9.33543e-17
6.02591e-17
4.04456e-17
9.62748e-17
1.11971e-16
4.69599e-17
3.16094e-17
1.81469e-16
5.27769e-14
8.64668e-11
6.48907e-09
2.97163e-07
5.12892e-06
5.54888e-06
1.9752e-06
8.21513e-08
3.68095e-13
1.54582e-14
2.94268e-16
2.54663e-16
2.12448e-16
1.56416e-16
1.01894e-16
6.38259e-17
4.01222e-17
2.61116e-17
1.6959e-17
2.08474e-17
2.06058e-17
2.59826e-17
3.47658e-16
4.62795e-14
3.62902e-11
4.36994e-09
2.91697e-07
5.35916e-06
3.629e-06
6.70538e-07
2.28763e-08
7.17337e-16
2.04693e-16
1.84354e-16
1.77463e-16
1.30844e-16
8.7073e-17
5.5062e-17
3.45888e-17
2.15401e-17
1.35543e-17
9.31388e-18
9.64387e-18
1.25073e-17
4.14442e-17
2.73442e-14
1.77022e-13
1.84137e-10
3.09298e-07
1.95764e-06
7.86121e-06
3.26839e-06
3.09286e-07
2.27534e-09
2.29863e-16
1.23627e-16
1.09175e-16
9.26685e-17
6.06531e-17
3.98021e-17
2.64203e-17
1.56277e-17
9.91996e-18
5.54904e-18
3.88263e-18
3.96014e-18
8.6963e-16
8.29293e-16
1.2929e-13
7.77419e-12
3.89424e-10
2.97715e-07
6.45034e-06
8.94156e-06
3.21883e-06
2.14737e-07
1.16908e-09
1.43201e-16
6.28502e-17
4.95763e-17
3.80224e-17
2.24026e-17
1.27721e-17
1.24934e-17
5.95227e-18
4.54608e-18
2.1232e-18
1.18896e-18
1.75768e-18
2.87224e-14
6.16941e-13
5.7295e-11
3.47525e-10
3.08091e-09
7.98211e-07
1.28548e-05
1.32482e-05
3.8291e-06
1.33536e-07
2.65574e-10
0.998228
0.999829
0.999835
0.999835
0.999835
0.999835
0.999835
0.999835
0.999835
0.999835
0.999835
0.998406
0.99967
0.99091
0.936615
0.747393
0.986213
0.846405
0.4458
0.18732
0.434955
0.174177
0.0759734
0.0575971
0.0263714
0.020785
0.0130041
0.0125613
0.173129
0.057237
0.0305476
0.0107885
0.766249
0.76578
0.368765
0.0334889
0.459701
0.340029
0.0631868
0.017532
0.0559692
0.0950012
0.0922671
0.0402656
0.0184418
0.0371787
0.0591241
0.0561295
0.018654
0.0249066
0.0173312
0.0165128
9.5701e-05
0.000196803
0.000322392
0.000412474
5.44921e-06
3.77676e-05
0.000117995
0.000214162
5.04886e-06
7.06284e-05
0.00034834
0.000616103
5.31852e-06
2.81673e-05
9.38033e-05
0.000220546
6.56198e-07
6.61037e-07
4.51405e-07
3.65254e-07
1.56084e-08
1.54565e-08
1.67605e-08
1.53361e-08
1.2014e-10
3.46965e-10
7.22052e-10
7.34941e-10
5.7271e-13
1.88799e-12
9.07348e-12
6.40275e-12
1.89202e-13
2.38251e-13
4.81675e-13
3.77333e-13
1.72941e-13
1.72941e-13
1.9531e-13
1.83651e-13
1.72941e-13
1.72941e-13
1.76304e-13
1.83207e-13
1.72941e-13
1.72941e-13
1.75087e-13
1.82146e-13
1.72941e-13
1.72941e-13
1.74204e-13
1.78449e-13
1.72941e-13
1.72941e-13
1.89803e-13
1.79014e-13
1.72941e-13
1.30314e-12
1.5152e-12
6.86206e-12
1.99387e-11
4.44842e-11
1.0981e-10
1.453e-09
2.27946e-10
7.35664e-10
5.07228e-09
7.35115e-08
3.62014e-09
1.59866e-08
9.9947e-08
5.84135e-07
5.15727e-08
1.29738e-07
7.61467e-07
1.78274e-06
6.57896e-07
1.01612e-06
2.76815e-06
2.81384e-06
2.79467e-06
2.77786e-06
9.79094e-07
4.79034e-07
1.08119e-06
6.34633e-07
2.29863e-07
4.44065e-08
1.85088e-07
3.83753e-08
7.90384e-09
9.72022e-09
4.48461e-17
6.08183e-10
2.98596e-09
1.74111e-08
4.40197e-17
1.15481e-09
8.78848e-09
1.78555e-08
4.32144e-17
3.77351e-09
4.40783e-09
2.20645e-09
4.24238e-17
1.27236e-10
1.65914e-10
7.49659e-11
4.16532e-17
9.70017e-17
5.84741e-16
4.76622e-13
4.08966e-17
7.89984e-19
7.00912e-19
6.54536e-19
0.995564
0.96958
0.853393
0.632074
0.210702
0.166546
0.0510131
0.0298331
0.029836
0.0344386
0.39747
0.671309
0.782932
0.772693
0.225402
0.100423
0.0412443
0.0374649
0.0640849
0.969493
0.524228
0.249024
0.236859
0.128321
0.0585081
0.0298434
0.029836
0.0301603
0.113636
0.571134
0.784423
0.78007
0.456278
0.150263
0.141428
0.191912
0.104302
0.0331587
0.805973
0.136476
0.136041
0.234381
0.0723572
0.0759755
0.0684891
0.0298434
0.0557604
0.365284
0.759955
0.784217
0.493736
0.173142
0.17206
0.124925
0.191891
0.099796
0.0188463
0.364175
0.119554
0.139902
0.164798
0.143425
0.299366
0.288052
0.0647848
0.0546584
0.180859
0.546865
0.784423
0.484856
0.2354
0.0879589
0.0350582
0.0355723
0.0351936
0.0120506
0.103534
0.0757448
0.0382366
0.03951
0.192148
0.380336
0.386472
0.285871
0.135035
0.13351
0.321169
0.712924
0.537406
0.120794
0.0388894
0.0350822
0.0840375
0.0837296
0.0416798
0.0419655
0.0217736
0.00729155
0.0190133
0.0578139
0.0988402
0.386659
0.508267
0.511705
0.419875
0.630034
0.633365
0.317886
0.0439123
0.0136743
0.0171539
0.0282523
0.0360543
0.070979
0.0113491
0.00347105
0.00742217
0.0470514
0.0548345
0.0498885
0.0799283
0.358006
0.569895
0.650419
0.650411
0.375799
0.0898765
0.0101979
0.0019535
0.000472559
0.000184735
0.000101093
9.95024e-05
0.00462827
0.00347628
0.00470172
0.054401
0.0422108
0.0492644
0.0323656
0.0115906
0.0609695
0.298831
0.364502
0.0747656
0.0174746
0.00215012
0.000239521
6.61605e-05
6.88553e-05
5.36739e-05
3.10712e-05
0.00891927
0.00349573
0.0242505
0.0384884
0.00682847
0.0115993
0.0126696
0.0115976
0.0121898
0.0275608
0.0641659
0.0495107
0.00400577
0.000685518
0.0001084
6.32817e-05
6.10458e-05
2.10318e-05
1.86618e-05
0.00733947
0.00353589
0.0244475
0.00496313
0.00076879
0.00380267
0.0100487
0.0162287
0.0147298
0.0148583
0.0440744
0.0592644
0.00271673
0.000364626
0.00014419
0.000321207
7.01453e-05
1.86618e-05
1.86618e-05
0.01724
0.00939498
0.0224368
0.00184494
0.000619088
0.00484424
0.0142711
0.0162339
0.00767513
0.0161274
0.0497045
0.0959898
0.00430872
0.000498751
0.000266065
0.000780817
0.000101231
1.86618e-05
1.86618e-05
0.0307999
0.0201895
0.00448901
0.000218148
0.000631303
0.00419009
0.00875149
0.00648574
0.00434605
0.0110437
0.0444745
0.0959598
0.0156231
0.00142445
0.000866839
0.00150812
0.000430078
4.47636e-05
1.86618e-05
0.0133922
0.00398975
1.37933e-05
5.58233e-06
1.13194e-05
0.000157309
0.000929391
0.00193673
0.00339378
0.00624242
0.0246832
0.075355
0.0362299
0.0157484
0.0071882
0.00377563
0.00104345
0.000208026
3.98274e-05
0.000460861
7.32538e-05
3.01598e-06
2.72937e-06
2.78239e-06
6.28481e-05
0.000886137
0.00441239
0.0102755
0.0157315
0.0305201
0.0373155
0.0227971
0.0200954
0.0137211
0.0061482
0.00227107
0.000555367
6.6352e-05
0.000240144
9.43315e-05
3.1247e-05
2.33909e-05
3.63251e-05
0.00035214
0.00164087
0.00535546
0.0127556
0.0170032
0.0166818
0.012321
0.00653292
0.00674201
0.00810912
0.00734986
0.00368801
0.000988217
8.37561e-05
0.00061507
0.000616103
0.000364122
0.000188636
0.000230425
0.000863466
0.00154663
0.000976461
0.00058955
0.00132585
0.00262101
0.00505074
0.00304662
0.000814374
0.00119311
0.00135044
0.00258313
0.00131372
0.000122353
0.000383602
0.000481204
0.000506508
0.00037127
0.000649119
0.00077493
0.000634399
0.000329166
0.000212765
0.000173632
0.000140739
0.000171604
0.000161457
5.27374e-05
0.000283865
0.000185764
0.000616066
0.000243802
1.91477e-05
2.75728e-06
2.0554e-05
7.73606e-05
5.32836e-05
0.000232849
0.000186673
0.000137178
0.000123154
0.00011127
0.000110764
8.2709e-05
1.08617e-05
1.04903e-05
6.52176e-06
8.67369e-05
5.40035e-05
0.000216752
3.1013e-05
3.9295e-06
2.54225e-08
1.22953e-07
4.15969e-07
3.65064e-08
4.9562e-07
1.27494e-06
1.14893e-05
1.77682e-05
2.30471e-05
4.3451e-05
4.98433e-05
7.35611e-06
1.29663e-06
2.36049e-06
1.92765e-05
3.7409e-05
8.79581e-05
5.8713e-06
3.9295e-06
6.19845e-10
7.42854e-09
4.94218e-08
1.67976e-09
2.51789e-09
6.64164e-09
6.05657e-08
8.22406e-07
6.005e-07
7.31912e-06
1.48603e-05
7.72953e-06
8.03639e-07
1.28105e-06
1.15269e-05
4.37597e-05
6.67596e-05
3.13728e-05
3.24988e-05
2.96239e-11
3.9274e-10
9.37756e-10
2.58719e-10
2.3467e-10
4.66767e-10
6.13602e-10
2.95567e-08
2.06437e-08
2.08502e-07
8.59307e-07
5.33219e-07
7.51731e-07
6.15814e-07
1.18978e-05
8.35214e-05
0.000176283
0.000211777
0.000210048
2.76365e-12
2.97928e-11
3.29553e-11
3.44156e-11
4.65551e-11
1.63289e-10
3.12963e-10
6.31791e-09
2.26429e-09
1.76846e-09
1.17899e-08
1.47279e-08
2.92059e-07
4.87249e-07
1.04722e-05
0.000116816
0.000326536
0.000326536
0.000326536
1.33815e-12
1.50283e-11
5.8949e-11
4.85957e-11
4.63169e-11
8.28527e-11
3.02687e-10
2.61233e-10
2.40795e-10
2.41575e-10
2.99766e-10
2.12722e-09
2.27117e-07
4.59179e-07
4.76546e-06
6.0393e-05
0.000116197
0.000128521
0.0001834
8.98757e-13
1.19859e-11
1.31442e-10
3.92703e-10
1.47283e-09
6.07611e-10
2.27535e-10
2.25816e-10
2.40051e-10
2.43562e-10
2.40729e-10
2.55433e-09
3.14424e-07
5.56546e-07
1.00404e-06
4.1794e-06
9.56602e-06
7.24305e-06
5.09048e-06
1.04486e-12
5.28704e-11
6.21125e-10
2.63527e-09
3.61585e-08
8.05504e-08
8.77411e-09
3.05808e-10
2.4048e-10
2.4075e-10
2.4048e-10
5.93257e-09
3.50285e-07
8.58196e-07
6.75889e-06
1.42188e-05
4.49872e-05
1.07883e-05
1.48556e-06
9.14074e-11
6.35695e-09
5.43892e-08
3.20812e-08
2.54396e-07
1.16236e-06
2.9511e-07
4.23941e-08
2.76276e-09
2.8064e-10
4.02301e-10
5.76545e-09
1.28304e-07
7.30226e-07
1.78024e-05
0.00015714
0.000386698
0.000108945
4.39525e-06
5.13218e-09
1.9093e-07
1.02366e-06
4.53001e-07
7.55614e-07
3.17457e-06
4.31488e-06
2.04165e-06
4.85077e-07
4.22639e-08
8.28116e-09
9.01981e-09
6.47467e-08
8.32106e-07
1.25089e-05
0.00045781
0.000795765
0.000280305
1.31267e-05
9.15023e-08
1.65101e-06
4.49187e-06
2.51603e-06
1.24793e-06
2.63367e-06
1.58866e-05
1.76945e-05
1.12902e-05
2.45637e-06
1.58141e-07
1.15247e-08
4.91985e-08
1.21654e-06
1.44986e-05
0.000624778
0.00079573
0.00036708
1.88542e-05
6.54618e-07
4.98605e-06
5.93682e-06
4.65586e-06
8.35808e-07
1.00624e-06
1.67573e-05
6.82199e-05
6.71704e-05
2.31914e-05
2.16086e-06
3.91734e-08
1.65164e-08
4.60445e-07
1.6133e-05
0.0006279
0.000795765
0.000268265
1.47826e-05
2.42854e-06
5.93682e-06
5.94079e-06
3.45452e-06
3.92786e-07
4.57873e-07
1.15177e-05
0.00010806
0.000138808
4.58878e-05
2.23717e-06
2.12078e-08
1.64961e-08
4.7232e-07
4.33386e-05
0.000769832
0.000563703
9.8886e-05
4.21754e-06
4.08405e-06
4.21219e-06
2.99581e-06
6.49459e-07
3.35776e-08
8.48949e-08
2.41567e-06
9.22784e-05
0.000138963
9.2892e-05
1.13121e-05
1.43269e-07
1.65164e-08
2.90829e-07
7.19713e-05
0.000766294
0.000359808
4.26751e-05
1.20716e-06
3.87523e-06
7.58864e-07
1.61685e-07
2.62789e-08
1.08984e-08
1.79789e-07
1.72925e-06
5.98223e-05
0.000138808
0.000138374
5.28472e-05
4.10475e-06
3.27182e-08
4.6833e-07
9.64593e-05
0.000511695
0.000262116
2.5126e-05
4.94905e-07
1.23665e-06
1.13725e-07
1.76564e-08
2.3048e-09
1.04534e-08
5.82583e-07
6.29641e-06
6.40019e-05
0.000138963
7.49572e-05
2.18706e-05
1.76246e-06
2.16779e-08
3.0852e-07
0.000221207
0.000420735
0.000166551
8.99284e-06
2.13988e-07
1.17823e-07
2.59893e-08
4.03111e-09
1.63264e-09
1.05175e-08
8.68738e-07
2.34928e-05
9.03086e-05
0.000103848
4.5383e-05
4.27739e-06
1.28623e-07
2.06371e-08
2.60989e-06
0.000570088
0.000382559
7.57193e-05
2.8092e-06
1.37353e-07
2.55138e-08
1.14292e-08
2.46483e-09
1.20775e-09
4.71664e-09
9.27622e-07
3.54718e-05
4.07442e-05
2.15271e-05
8.89645e-06
2.936e-07
3.21421e-08
8.00364e-07
0.000150953
0.000922231
0.000414716
3.63389e-05
2.02647e-07
7.24146e-08
1.9952e-08
7.49804e-09
4.30017e-10
2.11762e-10
8.5595e-10
4.21392e-07
4.91115e-06
1.88352e-05
2.89159e-05
2.31101e-06
3.77581e-08
3.23488e-08
9.2391e-06
0.00100738
0.000935942
0.000166017
3.62153e-06
8.83281e-09
3.15915e-08
1.73843e-08
3.25842e-09
9.80052e-11
5.80638e-11
4.14539e-10
5.88373e-08
9.78692e-07
7.00764e-06
3.40273e-05
4.11552e-06
6.65596e-08
5.1842e-07
5.59729e-05
0.00101813
0.00071556
0.000164509
2.89268e-06
4.50291e-09
1.56389e-08
5.57532e-09
9.91452e-11
3.88498e-12
7.18479e-12
2.93565e-10
4.70449e-08
1.00323e-06
5.67593e-06
2.05487e-05
6.501e-06
1.83276e-07
5.9774e-07
4.08191e-05
0.000636932
0.000503012
0.000117327
3.54865e-06
3.1811e-09
1.19813e-08
3.0369e-10
2.34723e-12
3.15551e-13
2.73827e-12
2.09373e-10
4.91306e-08
9.12149e-07
2.44086e-06
3.84988e-06
4.14015e-06
6.97313e-07
6.57285e-07
1.69544e-05
0.000183696
0.00050276
0.000169349
5.12333e-06
2.70272e-09
2.1708e-09
3.67245e-12
1.68933e-14
4.52432e-14
9.05908e-13
1.88749e-12
1.16545e-09
2.43361e-08
1.69224e-07
7.03505e-07
1.6689e-06
3.32723e-07
3.36995e-07
3.88264e-06
5.71022e-05
0.000360002
0.00017462
1.20046e-05
4.97294e-08
5.7354e-11
2.76733e-14
4.17266e-16
4.57064e-15
2.62603e-14
2.36309e-15
1.53291e-12
1.70815e-10
9.47159e-09
1.69831e-07
6.4152e-07
2.12622e-07
2.03949e-07
1.04217e-06
9.00413e-05
0.000179491
5.82122e-05
2.60051e-06
5.18392e-09
4.78166e-13
7.53235e-19
6.60393e-18
1.30376e-17
2.76933e-17
5.05269e-17
1.84562e-16
6.22532e-16
7.94494e-14
2.22406e-11
6.9095e-09
3.42629e-08
9.73388e-08
8.31662e-07
4.94919e-05
3.96839e-05
4.99565e-06
7.73696e-08
3.11373e-11
1.00149e-15
)
;

boundaryField
{
    leftWall
    {
        type            zeroGradient;
    }
    rightWall
    {
        type            zeroGradient;
    }
    lowerWall
    {
        type            zeroGradient;
    }
    atmosphere
    {
        type            inletOutlet;
        inletValue      uniform 0;
        value           nonuniform List<scalar> 
46
(
1.43201e-16
6.28502e-17
4.95763e-17
3.80224e-17
2.24026e-17
1.27721e-17
1.24934e-17
5.95227e-18
4.54608e-18
2.1232e-18
1.18896e-18
1.75768e-18
2.87224e-14
6.16941e-13
5.7295e-11
3.47525e-10
3.08091e-09
7.98211e-07
1.28548e-05
1.32482e-05
0
0
0
0
0
0
0
0
0
0
0
0
0
0
0
0
0
0
0
8.31662e-07
4.94919e-05
3.96839e-05
4.99565e-06
7.73696e-08
3.11373e-11
1.00149e-15
)
;
    }
    defaultFaces
    {
        type            empty;
    }
}


// ************************************************************************* //
