/*--------------------------------*- C++ -*----------------------------------*\
| =========                 |                                                 |
| \\      /  F ield         | foam-extend: Open Source CFD                    |
|  \\    /   O peration     | Version:     4.1                                |
|   \\  /    A nd           | Web:         http://www.foam-extend.org         |
|    \\/     M anipulation  |                                                 |
\*---------------------------------------------------------------------------*/
FoamFile
{
    version     2.0;
    format      ascii;
    class       surfaceScalarField;
    location    "0.8";
    object      phi;
}
// * * * * * * * * * * * * * * * * * * * * * * * * * * * * * * * * * * * * * //

dimensions      [0 3 -1 0 0 0 0];

internalField   nonuniform List<scalar> 
4432
(
-2.98843e-06
2.98843e-06
-5.46011e-06
2.47168e-06
-6.98678e-06
1.52666e-06
-4.53301e-06
-2.45376e-06
-5.92715e-06
1.39414e-06
-7.75811e-06
1.83096e-06
-7.68242e-06
-7.56927e-08
-6.88132e-06
-8.01097e-07
-4.82093e-06
-2.06039e-06
-5.46735e-06
6.46415e-07
-5.07045e-06
-3.969e-07
-2.05425e-06
-3.0162e-06
-3.61076e-06
1.55651e-06
-1.69678e-06
-1.91398e-06
-3.25008e-06
1.55331e-06
-6.04073e-07
-2.64601e-06
7.97356e-07
-1.40143e-06
1.99623e-06
-1.19887e-06
2.65285e-06
-6.56629e-07
2.14462e-06
5.08236e-07
7.80241e-07
1.36438e-06
3.39715e-07
4.40526e-07
3.39715e-07
-1.53974e-06
4.52817e-06
-1.70248e-06
2.63442e-06
-3.29537e-06
3.11954e-06
-5.00935e-06
-7.39777e-07
-5.8038e-06
2.18859e-06
-7.47335e-06
3.50052e-06
-7.21346e-06
-3.35587e-07
-5.5171e-06
-2.49746e-06
-8.12093e-06
5.43437e-07
-6.05186e-06
-1.42265e-06
-3.10083e-06
-3.34793e-06
-5.10128e-06
-1.01576e-06
-5.38361e-06
1.83885e-06
-3.32693e-06
-3.97067e-06
-3.51752e-06
1.7439e-06
-2.3358e-06
-3.82773e-06
-1.48296e-06
-2.25428e-06
4.95246e-07
-3.17707e-06
1.39945e-06
-1.56084e-06
1.16689e-06
7.40802e-07
-8.72545e-08
2.61852e-06
-8.03618e-07
1.15689e-06
-4.63903e-07
-2.9067e-06
7.43487e-06
-5.87969e-06
5.60742e-06
-8.1991e-06
5.43895e-06
-1.06071e-05
1.6682e-06
-1.28037e-05
4.38522e-06
-7.9357e-06
-1.3675e-06
-7.42881e-06
-8.42476e-07
-6.05936e-06
-3.86691e-06
-1.02489e-05
4.73295e-06
-5.00683e-06
-6.6647e-06
-8.53503e-06
1.80275e-07
-8.54995e-06
-1.00084e-06
-5.35161e-06
-1.35949e-06
-9.74446e-06
4.22186e-07
-5.22453e-06
-2.77604e-06
-9.24601e-06
1.93756e-07
-3.56761e-06
-7.93268e-06
-1.72905e-06
-5.01563e-06
-7.13348e-07
-2.57654e-06
-5.88503e-08
8.63047e-08
-7.1602e-07
3.27569e-06
-8.73407e-07
1.31428e-06
-1.33731e-06
-3.5948e-06
1.10297e-05
-5.20032e-06
7.21295e-06
-4.43947e-06
4.67809e-06
-5.17837e-06
2.40711e-06
-6.15299e-06
5.35984e-06
-8.37962e-06
8.59137e-07
-7.82955e-06
-1.39255e-06
-1.43895e-05
2.69308e-06
-7.83752e-06
-1.81907e-06
-1.36751e-05
-8.27166e-07
-1.4629e-05
1.13422e-06
-1.62933e-05
6.63511e-07
-1.69942e-05
-6.58601e-07
-1.74623e-05
8.90242e-07
-1.74888e-05
-2.74953e-06
-1.67563e-05
-5.3879e-07
-1.40365e-05
-1.06524e-05
-9.58454e-06
-9.4676e-06
-6.0074e-06
-6.15368e-06
-3.23002e-06
-2.69107e-06
-2.48816e-06
2.53383e-06
-1.77042e-06
5.96538e-07
-3.10773e-06
-3.97636e-06
1.5006e-05
-6.10312e-06
9.33971e-06
-8.09661e-06
6.67158e-06
-9.865e-06
4.1755e-06
-6.80732e-06
2.30216e-06
-9.54016e-06
3.59197e-06
-9.36488e-06
-1.56783e-06
-9.43122e-06
2.75942e-06
-9.259e-06
-1.99129e-06
-1.55144e-05
5.42824e-06
-1.72866e-05
2.90645e-06
-1.94906e-05
2.86743e-06
-2.04323e-05
2.83105e-07
-2.07317e-05
1.18966e-06
-2.1499e-05
-1.98225e-06
-2.07464e-05
-1.29133e-06
-1.77854e-05
-1.36134e-05
-1.48779e-05
-1.23751e-05
-1.23745e-05
-8.65716e-06
-8.98125e-06
-6.08429e-06
-5.63261e-06
-8.14815e-07
-2.56775e-06
-2.46832e-06
-5.67548e-06
-2.66909e-06
1.76751e-05
-7.90003e-06
1.45706e-05
-1.14959e-05
1.02675e-05
-1.32713e-05
5.95085e-06
-7.97916e-06
-2.98994e-06
-1.04823e-05
6.09511e-06
-1.03121e-05
-1.73804e-06
-9.58653e-06
2.03386e-06
-1.9131e-05
7.55322e-06
-2.00159e-05
6.31311e-06
-2.14226e-05
4.31319e-06
-2.14519e-05
2.89673e-06
-2.17914e-05
6.22527e-07
-2.1372e-05
7.70328e-07
-2.07541e-05
-2.60015e-06
-2.09251e-05
-1.12031e-06
-1.97403e-05
-1.47983e-05
-1.66251e-05
-1.54903e-05
-1.41642e-05
-1.11181e-05
-1.36136e-05
-6.6349e-06
-5.77567e-06
-8.65276e-06
-2.74502e-06
-5.49896e-06
-8.4205e-06
-3.37023e-06
2.10453e-05
-2.76618e-06
1.39666e-05
-6.01626e-06
1.35175e-05
-7.65785e-06
7.59244e-06
-7.78044e-06
-2.86735e-06
-1.0054e-05
8.3687e-06
-2.06686e-05
8.87652e-06
-2.10223e-05
2.38762e-06
-2.05827e-05
7.11358e-06
-2.04625e-05
6.19294e-06
-2.12596e-05
5.11021e-06
-2.14813e-05
3.11849e-06
-2.14961e-05
6.37345e-07
-2.14424e-05
7.16627e-07
-2.26285e-05
-1.41408e-06
-2.411e-05
3.6115e-07
-1.97588e-05
-1.91495e-05
-1.56647e-05
-1.95843e-05
-1.33875e-05
-1.33953e-05
-1.37138e-05
-6.30859e-06
-1.20189e-05
-1.03476e-05
-5.20188e-06
-1.2316e-05
-1.36224e-05
-2.41045e-06
2.34558e-05
-8.78545e-06
2.03416e-05
-1.53632e-05
2.00953e-05
-1.83865e-05
1.06158e-05
-2.01086e-05
-1.14522e-06
-1.28063e-05
1.06635e-06
-1.2236e-05
8.30621e-06
-2.06387e-05
1.07904e-05
-2.15898e-05
8.06465e-06
-2.35788e-05
8.18195e-06
-2.32435e-05
4.77492e-06
-2.24941e-05
2.36905e-06
-2.30605e-05
1.20373e-06
-2.34732e-05
1.12932e-06
-2.55424e-05
6.55186e-07
-2.85555e-05
3.37423e-06
-1.92412e-05
-2.84638e-05
-1.39294e-05
-2.48962e-05
-1.20372e-05
-1.52874e-05
-1.44577e-05
-3.88808e-06
-1.44538e-05
-1.03515e-05
-4.71062e-06
-2.20592e-05
-1.8333e-05
-5.66795e-05
5.66795e-05
-9.10683e-05
3.43889e-05
-0.000112945
2.18769e-05
-0.00011976
6.81479e-06
-0.000112803
-6.95672e-06
-8.9887e-05
-2.29162e-05
-7.30738e-05
-1.68132e-05
-6.90116e-05
-4.06217e-06
-5.98761e-05
-9.13551e-06
-4.72477e-05
-1.26284e-05
-3.79764e-05
-9.27123e-06
-2.67804e-05
-1.1196e-05
-1.16545e-05
-1.51259e-05
-9.7669e-07
-1.06778e-05
8.35408e-06
-9.33077e-06
1.16921e-05
-3.338e-06
-2.50816e-06
1.42002e-05
-8.82004e-06
6.31188e-06
-8.82004e-06
-4.63811e-05
0.000103061
-7.13273e-05
5.93351e-05
-9.28616e-05
4.34111e-05
-9.81426e-05
1.20958e-05
-7.24359e-05
-3.26634e-05
-4.07487e-05
-5.46035e-05
-3.09747e-05
-2.65872e-05
-3.39532e-05
-1.08367e-06
-3.01153e-05
-1.29734e-05
-2.19194e-05
-2.08243e-05
-1.42542e-05
-1.69364e-05
-3.63093e-06
-2.18193e-05
6.34419e-06
-2.5101e-05
7.83277e-06
-1.21664e-05
6.44268e-06
-7.94069e-06
1.56763e-05
-1.25716e-05
-6.06797e-08
2.99372e-05
-1.22436e-05
1.84948e-05
-2.10636e-05
-2.36944e-05
0.000126755
-5.78871e-05
9.35277e-05
-5.95887e-05
4.51127e-05
-4.63402e-05
-1.15267e-06
-2.77651e-05
-5.12386e-05
-1.52904e-05
-6.70782e-05
6.33716e-06
-4.82148e-05
2.02071e-05
-1.49536e-05
1.36577e-05
-6.42405e-06
2.00213e-05
-2.71878e-05
3.99816e-05
-3.68968e-05
3.90793e-05
-2.0917e-05
2.26912e-05
-8.71293e-06
3.93615e-05
-2.88367e-05
4.38811e-05
-1.24603e-05
3.4897e-05
-3.58749e-06
4.36908e-05
2.11434e-05
1.4306e-05
4.78796e-05
-6.75761e-06
-1.92113e-05
0.000145966
-3.99313e-05
0.000114248
-1.47389e-05
1.99204e-05
-1.13612e-05
-4.53034e-06
-6.58665e-06
-5.60131e-05
-7.86564e-06
-6.57992e-05
7.62501e-06
-6.37054e-05
2.36152e-05
-3.09438e-05
3.48637e-05
-1.76725e-05
2.26515e-05
-1.49757e-05
2.62826e-05
-4.05279e-05
2.70292e-05
-2.16635e-05
5.22969e-05
-3.39807e-05
4.77944e-05
-2.43341e-05
5.03747e-05
-1.50406e-05
4.69765e-05
-1.89299e-07
6.60798e-05
2.04005e-06
3.34172e-05
8.05423e-05
2.66595e-05
-1.42655e-05
0.000160232
-1.82642e-05
0.000118246
-1.3821e-05
1.54772e-05
1.67298e-06
-2.00244e-05
4.1159e-06
-5.8456e-05
4.51447e-08
-6.17284e-05
3.95528e-06
-6.76155e-05
2.31846e-05
-5.01732e-05
3.70465e-05
-3.15343e-05
4.24272e-05
-2.03564e-05
2.58601e-05
-2.39608e-05
5.29631e-05
-4.87665e-05
5.27136e-05
-3.37313e-05
5.29482e-05
-2.45687e-05
5.3931e-05
-1.60234e-05
4.07011e-05
1.30406e-05
2.89206e-05
1.38206e-05
2.12414e-05
8.82214e-05
4.7901e-05
-9.98681e-06
0.000170219
-2.97989e-06
0.000111239
8.47326e-06
4.02405e-06
2.16383e-05
-3.31894e-05
2.15259e-05
-5.83436e-05
9.47868e-06
-4.96812e-05
1.02123e-05
-6.83492e-05
1.13068e-05
-5.12677e-05
3.23197e-05
-5.25472e-05
3.50389e-05
-2.30756e-05
3.84818e-05
-2.74037e-05
4.04656e-05
-5.07503e-05
4.69782e-05
-4.02438e-05
4.99418e-05
-2.75322e-05
5.15345e-05
-1.76162e-05
3.25749e-05
3.20002e-05
3.86005e-05
7.79502e-06
1.17508e-05
0.000115071
5.96517e-05
-6.42118e-06
0.00017664
5.55089e-06
9.92673e-05
2.90033e-05
-1.94284e-05
4.12282e-05
-4.54143e-05
1.43068e-05
-3.14222e-05
2.08905e-05
-5.62649e-05
3.11815e-05
-7.86402e-05
1.39374e-05
-3.40236e-05
1.26549e-05
-5.12647e-05
3.09636e-05
-4.13842e-05
3.16621e-05
-2.81022e-05
1.4438e-05
-3.35262e-05
3.36737e-05
-5.94795e-05
4.2464e-05
-3.63226e-05
4.40958e-05
-1.9248e-05
4.65713e-05
2.95247e-05
2.00323e-05
3.43339e-05
1.96716e-05
0.000115432
7.93233e-05
-7.022e-06
0.000183662
2.33901e-05
6.88552e-05
2.3386e-05
-1.94243e-05
2.51868e-05
-4.72151e-05
2.93514e-05
-3.55867e-05
2.36283e-05
-5.05418e-05
1.95733e-05
-7.45851e-05
1.77946e-05
-3.22449e-05
2.32743e-05
-5.67444e-05
2.54968e-05
-4.36067e-05
2.92761e-05
-3.18816e-05
2.58056e-05
-3.00557e-05
1.25012e-05
-4.61751e-05
1.0555e-05
-3.43764e-05
9.8986e-06
-1.85916e-05
3.19271e-05
7.4962e-06
3.56518e-05
3.06093e-05
3.91573e-05
0.000111926
0.000118481
-1.49235e-07
2.3605e-05
-3.51878e-06
2.37111e-05
-1.6309e-05
3.28855e-05
-2.38694e-05
1.81761e-05
-3.98e-05
1.47854e-05
-4.0094e-05
1.36031e-06
-4.57104e-05
1.39226e-05
-4.77287e-05
1.28087e-05
-4.85823e-05
8.91827e-06
-4.62405e-05
5.84015e-06
-4.54932e-05
4.02757e-06
-4.63234e-05
3.19925e-06
-4.74108e-05
2.29118e-06
-4.83133e-05
2.03183e-06
-5.86575e-05
1.09994e-05
-4.05923e-05
-1.46909e-05
-5.18567e-05
-1.71994e-05
-3.36594e-05
-4.30935e-05
-1.61144e-05
-3.28324e-05
-1.26437e-05
-7.35878e-06
-1.62021e-05
-6.7931e-06
-1.85714e-06
-3.64041e-05
-3.63267e-05
1.61366e-05
-4.29181e-05
6.65231e-05
-5.76388e-05
3.84319e-05
-3.69155e-05
1.21622e-05
-3.36217e-05
1.48823e-05
-2.19559e-05
3.11957e-06
-2.66021e-05
6.00655e-06
-3.15573e-05
1.88778e-05
-4.30097e-05
2.42611e-05
-4.59137e-05
1.18222e-05
-4.43767e-05
4.30315e-06
-4.09899e-05
6.40783e-07
-3.99854e-05
2.19473e-06
-3.91592e-05
1.46498e-06
-4.8673e-05
1.15456e-05
-4.5313e-05
7.63944e-06
-5.68201e-05
-3.18389e-06
-4.43412e-05
-2.96783e-05
-3.28896e-05
-5.45451e-05
9.80029e-06
-7.55223e-05
1.10724e-05
-8.63089e-06
-1.99367e-05
2.4216e-05
-4.71734e-05
-9.16743e-06
-3.38378e-05
-4.96624e-05
-6.64417e-06
7.31673e-05
8.25154e-06
2.35362e-05
-3.80837e-06
2.42221e-05
-5.02218e-06
1.60961e-05
-1.03171e-05
8.41454e-06
-7.12181e-06
2.81122e-06
3.69283e-06
8.06316e-06
-1.04267e-05
3.83807e-05
-3.89097e-05
4.03053e-05
-4.02932e-05
5.68663e-06
-2.60019e-05
-1.36505e-05
-3.60053e-05
1.21981e-05
-6.72013e-05
3.2661e-05
-0.00014017
8.45146e-05
-0.000231671
9.91406e-05
-0.000213964
-2.0891e-05
-0.000125159
-0.000118483
-9.04339e-05
-8.92703e-05
-3.26948e-05
-0.000133261
-1.73315e-05
-2.39943e-05
-1.58315e-05
2.2716e-05
-2.95265e-05
4.52766e-06
-5.24648e-06
-5.81178e-05
9.12832e-06
6.4039e-05
4.0064e-05
-7.3995e-06
4.5807e-05
1.84791e-05
3.51237e-06
5.83907e-05
-5.70369e-05
6.89638e-05
-7.02176e-05
1.5992e-05
-9.57065e-05
3.35521e-05
-0.000149937
9.26112e-05
-0.000126566
1.69338e-05
-6.44618e-05
-5.64172e-05
4.23223e-05
-0.000120435
0.00011781
-6.32897e-05
-2.08244e-06
0.000152554
-0.000202526
0.000284958
-0.000174121
7.07359e-05
-0.000112227
-8.27852e-05
-0.000147839
-8.2871e-05
-9.28951e-05
-0.000144215
-9.12032e-05
-0.000134953
-4.30851e-05
-7.21123e-05
-3.51266e-05
1.47575e-05
-5.47475e-05
2.41486e-05
4.04856e-05
-0.00010048
-5.08528e-05
0.000114892
-0.000111092
5.28393e-05
-0.000171733
7.91205e-05
-0.000187143
7.38009e-05
-0.000228824
0.000110645
-0.00036715
0.000154318
-0.000448652
0.000115054
-0.000395715
3.9674e-05
-0.000315415
-6.33663e-05
-0.000249467
-0.000122365
-0.000164129
-0.000205773
-6.7622e-05
-0.000159796
-0.000103189
0.000188121
-0.000132565
0.000314334
-0.000194603
0.000132773
-0.000208261
-6.91267e-05
-0.000165009
-0.000126123
-0.000164987
-0.000144237
-0.000166065
-0.000133875
-0.000154649
-8.35282e-05
-0.000143422
3.53071e-06
-0.000135006
1.57328e-05
2.40693e-05
-0.00011859
-0.000137724
0.000252615
-0.00022926
0.000144376
-0.000281761
0.000131621
-0.000324178
0.000116217
-0.000475208
0.000261675
-0.000562295
0.000241405
-0.000527088
7.98467e-05
-0.00042805
-5.93632e-05
-0.000380815
-0.000110602
-0.000294135
-0.000209045
-0.000277194
-0.000222714
-0.000278417
-0.000158573
-0.000225028
0.000134731
-0.000191135
0.000280441
-0.000149743
9.13811e-05
-0.000117984
-0.000100886
-0.000103687
-0.00014042
-0.000101426
-0.000146498
-0.000108205
-0.000127097
-0.000163018
-2.87146e-05
-0.000152429
-7.05816e-06
-0.000140867
4.17026e-06
-4.01719e-06
-0.00011278
-0.000199554
0.000452169
-0.000265288
0.00021011
-0.000369429
0.000235762
-0.000468317
0.000215106
-0.000543172
0.00033653
-0.000517436
0.00021567
-0.000489729
5.21396e-05
-0.000421975
-0.000127117
-0.000364584
-0.000167993
-0.000332696
-0.000240933
-0.000324559
-0.000230851
-0.000347892
-0.00013524
-0.000329448
0.000116287
-0.000256
0.000206994
-0.000203984
3.9365e-05
-0.000218832
-8.6038e-05
-0.000230211
-0.000129042
-0.000198524
-0.000178184
-0.000180229
-0.000145392
-0.000168363
-4.05801e-05
-0.000149463
-2.59579e-05
-0.000112501
-3.27921e-05
-3.26808e-05
-8.38375e-05
-0.000179682
0.000631851
-0.000250281
0.000280709
-0.000273873
0.000259354
-0.000469434
0.000410667
-0.000460987
0.000328083
-0.000419432
0.000174115
-0.000364243
-3.04902e-06
-0.000343379
-0.000147981
-0.00032225
-0.000189123
-0.000365925
-0.000197258
-0.000410148
-0.000186628
-0.000415719
-0.000129668
-0.000351123
5.16898e-05
-0.000268844
0.000124715
-0.000267498
3.8019e-05
-0.000259883
-9.36527e-05
-0.000265527
-0.000123397
-0.000247544
-0.000196167
-0.000209797
-0.00018314
-8.73051e-05
-0.000163072
-6.24288e-05
-5.08342e-05
-8.09725e-05
-1.42483e-05
-1.47156e-05
-9.89377e-05
-0.000159192
0.000791043
-0.000239786
0.000361302
-0.000314514
0.000334082
-0.000350423
0.000446576
-0.000414123
0.000391782
-0.000365893
0.000125885
-0.000351526
-1.74153e-05
-0.000369439
-0.000130068
-0.000359725
-0.000198837
-0.000405476
-0.000151507
-0.000442443
-0.000149662
-0.000429043
-0.000143068
-0.00036135
-1.60038e-05
-0.000296246
5.96113e-05
-0.000279179
2.09522e-05
-0.000291837
-8.09944e-05
-0.000280165
-0.000135069
-0.000267642
-0.00020869
-0.000241279
-0.000209503
-0.000180244
-0.000224107
-0.000106687
-0.000124391
-7.96413e-05
-4.12941e-05
-4.75782e-05
-4.67788e-05
-0.000147054
0.000938098
-0.000234022
0.000448269
-0.000352739
0.0004528
-0.000368188
0.000462026
-0.000357512
0.000381107
-0.000426836
0.000195209
-0.000451764
7.51246e-06
-0.000451727
-0.000130105
-0.000442742
-0.000207823
-0.000438993
-0.000155256
-0.000427631
-0.000161024
-0.000404319
-0.000166379
-0.000323124
-9.71993e-05
-0.00025159
-1.19222e-05
-0.00021548
-1.51584e-05
-0.000227222
-6.92523e-05
-0.000249832
-0.000112459
-0.000250633
-0.000207888
-0.000246863
-0.000213273
-0.00024141
-0.000229561
-0.000226972
-0.000138829
-0.000158839
-0.000109427
-9.75272e-05
-0.00010889
-0.000146522
0.00108462
-0.00027752
0.000579267
-0.000344939
0.000520219
-0.00035017
0.000467256
-0.000361928
0.000392864
-0.000418918
0.000252199
-0.000449822
3.84159e-05
-0.000448442
-0.000131485
-0.00044658
-0.000209684
-0.00045138
-0.000150456
-0.000388772
-0.000223632
-0.000425977
-0.000129175
-0.000346735
-0.000176441
-0.000236927
-0.00012173
-0.000126724
-0.000125361
-0.000112517
-8.346e-05
-0.000103884
-0.000121092
-0.000191359
-0.000120413
-0.0001823
-0.000222332
-0.000252374
-0.000159486
-0.00024665
-0.000144553
-0.000226993
-0.000129083
-0.000110329
-0.000214192
-0.000154434
0.00123905
-0.000311726
0.000736559
-0.000363223
0.000571716
-0.000282306
0.000386339
-0.000266105
0.000376663
-0.000185237
0.000171331
-0.000180283
3.34625e-05
-0.000286602
-2.51668e-05
-0.000329779
-0.000166507
-0.000332958
-0.000147276
-0.000348043
-0.000208547
-0.000233721
-0.000243497
-0.00022175
-0.000188412
-0.000177593
-0.000165887
-0.000232065
-7.08891e-05
-0.000232278
-8.3247e-05
-0.000246849
-0.00010652
-0.00023943
-0.000127832
-0.000261828
-0.000199934
-0.000285325
-0.000135989
-0.000287701
-0.000142177
-0.000149368
-0.000267416
-0.000121037
-0.00013866
-8.74884e-05
0.00132654
-0.000213887
0.000862958
-0.000260894
0.000618723
-0.000166002
0.000291447
-9.36173e-05
0.000304279
-3.96769e-05
0.00011739
-1.5781e-06
-4.63628e-06
2.86449e-05
-5.53898e-05
-3.35395e-05
-0.000104322
-0.000159974
-2.08415e-05
-0.000195159
-0.000173363
-0.000355518
-8.31383e-05
-0.000364703
-0.000179227
-0.000368572
-0.000162018
-0.000308273
-0.000131188
-0.000329264
-6.22561e-05
-0.000339915
-9.58687e-05
-0.000314454
-0.000153293
-0.000333961
-0.000180427
-0.0003664
-0.000103551
-0.000313405
-0.000195172
-0.000314839
-0.000265982
-0.000278142
-0.000157734
0.000116158
0.00121038
1.86438e-05
0.000960472
8.04457e-06
0.000629322
0.000104846
0.000194645
0.000136318
0.000272807
0.000209398
4.43099e-05
0.000192764
1.19977e-05
0.000160464
-2.30897e-05
9.63343e-05
-4.01924e-05
9.45871e-05
-1.90943e-05
-4.02762e-05
-3.84992e-05
-0.000152882
2.94673e-05
-0.000301191
-3.09173e-05
-0.000352058
-0.000111151
-0.00032302
-0.000160226
-0.000217822
-0.000167454
-0.000215411
-9.82799e-05
-0.000305059
-6.36453e-05
-0.000317445
-0.000168042
-0.000212567
-0.000208429
-0.000220646
-0.000187092
-0.000340735
-0.000145894
-0.000210539
-0.000408337
0.000215125
0.00099526
0.000333326
0.000842271
0.00040788
0.000554768
0.000264569
0.000337956
0.0004346
0.000102777
0.000478071
8.38726e-07
0.000445176
4.48933e-05
0.000444572
-2.24858e-05
0.000419305
-1.49255e-05
0.000359581
4.06297e-05
0.000200304
0.000120777
9.82828e-05
0.000131489
-6.37572e-05
0.000131123
-8.961e-05
-8.52987e-05
-0.00011159
-0.000138246
-0.000260973
-1.80709e-05
-0.000307448
-5.18046e-05
-0.00030738
-6.37138e-05
-0.000312354
-0.000163068
-0.000328306
-0.000192476
-0.000388583
-0.000126815
-0.000344045
-0.000190432
-0.000131358
-0.000423225
0.000363479
0.000631781
0.000471187
0.000734563
0.000460932
0.000565023
0.000434815
0.000364073
0.000523924
1.36672e-05
0.000594789
-7.00264e-05
0.000696982
-5.72992e-05
0.000743235
-6.87389e-05
0.000737896
-9.58693e-06
0.000623471
0.000155054
0.000550212
0.000194036
0.00049983
0.000181871
0.00037351
0.000257442
7.21742e-05
0.000216037
-4.57264e-05
-2.03454e-05
-0.000118612
5.48143e-05
-0.000152909
-1.75078e-05
-0.000154594
-6.20279e-05
-0.00024659
-7.10721e-05
-0.000314692
-0.000124374
-0.000315909
-0.000125599
-0.000302253
-0.000204087
-0.000120363
-0.000313248
0.000271901
0.000359881
0.000380137
0.000626327
0.000675991
0.000269169
0.000690944
0.00034912
0.000610378
9.42336e-05
0.000674695
-0.000134343
0.000788279
-0.000170883
0.000818134
-9.85944e-05
0.000718314
9.02334e-05
0.000636179
0.000237189
0.000572065
0.000258151
0.000471414
0.000282523
0.000245439
0.000483416
6.05471e-05
0.000400929
-0.000122209
0.00016241
-0.000208422
0.000141027
-0.000265182
3.92525e-05
-0.000281877
-4.5333e-05
-0.000259346
-9.36029e-05
-0.000288994
-9.47259e-05
-0.000294557
-0.000120037
-0.000295326
-0.000203318
-0.000173221
-0.000242468
0.000178795
0.000181086
0.000317933
0.000487188
0.000479687
0.000107415
0.000754384
7.44236e-05
0.000825623
2.29941e-05
0.000746424
-5.51442e-05
0.000568634
6.90636e-06
0.000372081
9.79583e-05
0.000288707
0.000173608
0.00033858
0.000187315
0.000351646
0.000245085
0.000282795
0.000351373
0.00021654
0.000549671
0.000129479
0.000487991
-1.23396e-05
0.000304229
-0.000104029
0.000232717
-0.000218382
0.000153605
-0.000281011
1.72962e-05
-0.000301381
-7.32332e-05
-0.000316667
-7.94397e-05
-0.00024996
-0.000186744
-0.000242556
-0.000210722
-0.000189737
-0.000226039
7.09556e-05
0.00011013
0.000290776
0.000267368
0.000364442
3.37492e-05
0.000378908
5.99575e-05
0.000257168
0.000144734
4.87867e-05
0.000153238
-7.43884e-06
6.31318e-05
4.73625e-05
4.3157e-05
0.000102753
0.000118218
0.000144654
0.000145414
0.000141063
0.000248675
0.000209267
0.00028317
0.000157244
0.000601694
9.67127e-05
0.000548522
3.36619e-06
0.000397575
-9.05764e-05
0.000326659
-0.000175348
0.000238377
-0.000245648
8.75966e-05
-0.000299157
-1.97247e-05
-0.000312134
-6.64625e-05
-0.000267986
-0.000230892
-0.000190383
-0.000288325
-0.000177063
-0.000203057
-0.000100134
0.000210265
-4.05427e-05
0.000207776
-7.91689e-05
7.23754e-05
-6.74091e-05
4.81978e-05
1.3009e-05
6.43158e-05
2.17702e-05
0.000144476
8.66267e-06
7.62394e-05
1.49362e-05
3.68835e-05
-1.81544e-06
0.00013497
3.39629e-05
0.000109636
9.61753e-05
0.000186463
6.65741e-05
0.000312771
2.21085e-05
0.00064616
-9.84637e-05
0.000669094
-2.31054e-05
0.000322217
-0.000127927
0.000431481
-9.59407e-05
0.00020639
-0.000260314
0.00025197
-0.000288628
8.58894e-06
-0.000194197
-0.000160893
-0.000173437
-0.000251652
-0.00017592
-0.000285842
-0.00021306
-0.000139924
-0.00010414
0.000314405
-8.78627e-05
0.000191499
-0.000112464
9.69772e-05
-0.000121538
5.72718e-05
-7.82417e-05
2.10189e-05
-2.20018e-05
8.82364e-05
-1.76666e-05
7.19042e-05
-2.03031e-05
3.95201e-05
-6.46939e-06
0.000121136
1.59844e-06
0.000101568
-2.96215e-05
0.000217683
-0.000231883
0.000515033
-0.000251166
0.000665443
-0.000257566
0.000675495
-0.000235003
0.000299654
-0.000243374
0.000439851
-0.00027746
0.000240476
-0.000293444
0.000267954
-0.000283643
-1.2116e-06
-0.000282203
-0.000162333
-0.000268413
-0.000265442
-0.000230202
-0.000324053
-0.000336032
-0.00010723
-0.000146044
0.000460449
-0.000161848
0.000207303
-0.00016552
0.000100649
-0.000152819
4.45715e-05
-0.000158338
2.65377e-05
-0.000156382
8.62802e-05
-0.000160178
7.56997e-05
-0.000148832
2.81747e-05
-0.000100667
7.29713e-05
-0.000115085
0.000115986
-0.000192462
0.00029506
-0.000197259
0.000519829
-0.00019894
0.000667124
-0.000168365
0.00064492
-0.000300333
0.000431622
-0.000149937
0.000289455
-0.000243141
0.00033368
-0.000164056
0.00018887
-8.81277e-05
-7.71403e-05
-0.000159864
-9.05968e-05
-0.000135171
-0.000290135
-8.72282e-05
-0.000371996
-0.000365509
-5.7751e-05
-6.30621e-05
0.000523511
-8.99492e-05
0.00023419
-0.000111066
0.000121766
-0.000130649
6.41547e-05
-0.000164614
6.05024e-05
-0.000180881
0.000102548
-0.000158246
5.30645e-05
-0.000219342
8.92707e-05
-0.000221057
7.46868e-05
-0.000340441
0.000235369
-0.000227956
0.000182576
-0.000254523
0.000546396
-0.000224248
0.000636849
-0.000200362
0.000621034
-0.000162296
0.000393557
-0.00019726
0.000324419
-0.00012571
0.00026213
-1.63329e-05
7.94929e-05
1.58431e-05
-0.000109316
3.06718e-05
-0.000105425
-4.76373e-05
-0.000211826
-2.41468e-05
-0.000395486
-0.000386869
-2.78681e-06
-0.0001284
0.000651911
-0.00016692
0.00027271
-0.000221285
0.000176131
-0.000319305
0.000162175
-0.00041896
0.000160157
-0.000411306
9.48935e-05
-0.000417739
5.94974e-05
-0.000382069
5.3601e-05
-0.000408269
0.000100887
-0.000270769
9.78689e-05
-0.000296826
0.000208632
-0.000260297
0.000509867
-0.000214614
0.000591166
-0.000167737
0.000574157
-0.000123718
0.000349538
-0.000109878
0.000310579
3.4744e-05
0.000117508
9.92142e-05
1.50228e-05
8.69014e-05
-9.70035e-05
0.000141452
-0.000159976
7.95683e-05
-0.000149942
4.34833e-05
-0.000359401
-0.000382215
3.88293e-05
-0.000105692
0.000757603
-0.000195219
0.000362237
-0.000286531
0.000267444
-0.000427366
0.000303009
-0.000507867
0.000240658
-0.000505054
9.20805e-05
-0.000551466
0.000105909
-0.000532508
3.46435e-05
-0.000486412
5.47904e-05
-0.000491973
0.000103429
-0.000512664
0.000229324
-0.000253144
0.000250348
-0.000190447
0.000528468
-0.000148175
0.000531885
7.52735e-06
0.000193836
9.36317e-05
0.000224475
0.000140763
7.03766e-05
0.000178558
-2.27723e-05
0.00017346
-9.19055e-05
0.000105568
-9.20842e-05
0.00022269
-0.000267064
8.09591e-05
-0.000217671
-0.000399143
9.78866e-05
-0.000161538
0.000919141
-0.000306171
0.00050687
-0.000386959
0.000348232
-0.000438191
0.000354241
-0.000365889
0.000168357
-0.000512023
0.000238214
-0.000532816
0.000126703
-0.000549419
5.1246e-05
-0.000513721
1.90924e-05
-0.000444055
3.37638e-05
-0.000352298
0.000137566
-0.00032923
0.00022728
-0.000182254
0.000381492
-1.41009e-05
0.000363732
1.36617e-05
0.000166073
0.000146975
9.11612e-05
0.00019295
2.4402e-05
0.000182331
-1.21534e-05
0.000147656
-5.72304e-05
0.000224383
-0.000168812
0.000115035
-0.000157716
0.000228325
-0.00033096
-0.000366417
0.000195599
-0.000165002
0.00108414
-0.000306027
0.000647894
-0.000354286
0.000396491
-0.000368666
0.000368622
-0.000395813
0.000195503
-0.000390024
0.000232425
-0.0003359
7.25794e-05
-0.000352943
6.82889e-05
-0.00034769
1.38385e-05
-0.000350794
3.68688e-05
-0.000285274
7.20459e-05
-0.000186068
0.000128074
-4.53391e-05
0.000240764
8.50517e-05
0.000233341
0.000138706
0.000112418
0.00013943
9.04377e-05
0.000164294
-4.62096e-07
0.000189231
-3.70905e-05
0.000225735
-9.37342e-05
0.000171679
-0.000114755
0.000166322
-0.000152359
0.000142622
-0.000307261
-0.000343072
0.000119278
-0.000113807
0.00119795
-0.000168935
0.000703023
-0.000280574
0.000508129
-0.000143918
0.000231965
-0.00026273
0.000314316
-0.000133213
0.000102908
-0.000141413
8.07799e-05
-0.000137343
6.42187e-05
-0.000150464
2.69593e-05
-0.000139995
2.64002e-05
-0.000105769
3.78198e-05
-6.62116e-05
8.85162e-05
-4.1655e-06
0.000178717
0.00012117
0.000108006
0.000114409
0.00011918
0.000136648
6.81984e-05
0.000141307
-5.12104e-06
0.000145848
-4.16311e-05
0.000176291
-0.000124177
0.000215292
-0.000153756
0.000296442
-0.000233509
0.000270544
-0.000281363
-0.000331936
0.000259409
-3.20622e-05
0.00123001
-6.64584e-05
0.000737419
-9.7216e-05
0.000538887
-7.60985e-05
0.000210848
-4.95831e-05
0.0002878
-3.01138e-05
8.34387e-05
-3.47891e-06
5.41448e-05
1.66988e-05
4.4041e-05
2.44081e-05
1.925e-05
2.54564e-05
2.53519e-05
3.3456e-05
2.98201e-05
6.78698e-05
5.41023e-05
0.000172643
7.39443e-05
0.000185304
9.53444e-05
0.000258597
4.58866e-05
0.000306666
2.01299e-05
0.000324293
-2.27483e-05
0.000341259
-5.85972e-05
0.000342504
-0.000125422
0.000351288
-0.000162541
0.000265328
-0.000147549
0.000267463
-0.000283498
-0.000189407
0.000124934
1.80245e-05
0.00121199
0.000161154
0.00059429
0.00015267
0.000547371
0.000164931
0.000198586
0.000183859
0.000268873
0.00019671
7.05869e-05
0.000205217
4.56383e-05
0.000213727
3.55312e-05
0.000212238
2.07384e-05
0.000200013
3.75775e-05
0.000207414
2.24187e-05
0.000228542
3.29748e-05
0.000249703
5.27833e-05
0.000296807
4.82403e-05
0.000314126
2.85676e-05
0.000344218
-9.96188e-06
0.000360338
-3.88688e-05
0.000352175
-5.04338e-05
0.00033443
-0.000107677
0.000315149
-0.000143259
0.000284924
-0.000117325
0.000136844
-0.000135419
-0.000215973
0.000163411
4.9889e-05
0.0011621
0.000157557
0.000486622
0.000152193
0.000552735
0.000161439
0.00018934
0.000312688
0.000117624
0.000309117
7.41581e-05
0.000305268
4.94875e-05
0.000297284
4.35152e-05
0.000279469
3.85529e-05
0.000252363
6.4683e-05
0.000243221
3.15614e-05
0.000239615
3.65808e-05
0.000269735
2.26634e-05
0.000302298
1.56772e-05
0.000325625
5.24026e-06
0.000349647
-3.3984e-05
0.00033277
-2.19919e-05
0.000305671
-2.3334e-05
0.000286976
-8.89821e-05
0.000251864
-0.000108148
0.000209155
-7.46157e-05
0.000201633
-0.000127896
-0.000129879
0.000115539
7.63541e-05
0.00108574
0.000123907
0.000439069
0.000379842
0.0002968
0.000372158
0.000197024
0.000361759
0.000128023
0.000347145
8.87721e-05
0.000332175
6.44574e-05
0.000320554
5.51355e-05
0.000309614
4.94932e-05
0.000295581
7.87159e-05
0.000253912
7.32307e-05
0.000263811
2.6682e-05
0.000254169
3.23046e-05
0.000249489
2.03581e-05
0.000244003
1.07263e-05
0.000202079
7.93971e-06
0.000213704
-3.36174e-05
0.000276364
-8.59939e-05
0.000222313
-3.49309e-05
0.000197094
-8.29283e-05
0.000209017
-8.65384e-05
0.000187019
-0.000105899
-0.000126249
0.000183389
0.000158132
0.000927612
0.000260617
0.000336584
0.000322756
0.000234661
0.000343579
0.000176201
0.000338537
0.000133065
0.000327235
0.000100075
0.000319228
7.24638e-05
0.000310068
6.42958e-05
0.000304472
5.50893e-05
0.000286652
9.65361e-05
0.000264772
9.51107e-05
0.00025754
3.39138e-05
0.000262866
2.69786e-05
0.000264245
1.8979e-05
0.00026626
8.71153e-06
0.000273099
1.10092e-06
0.00024771
-8.22923e-06
0.000199461
-3.7744e-05
0.000186245
-2.17152e-05
0.000168701
-6.53839e-05
0.000155117
-7.29552e-05
0.000136355
-8.71361e-05
-0.000128657
0.000138763
0.000166535
0.000761077
0.000214798
0.000288321
0.000259235
0.000190224
0.000274616
0.000160821
0.000277174
0.000130507
0.000270281
0.000106968
0.000263886
7.88585e-05
0.000261108
6.7074e-05
0.000255669
6.0528e-05
0.000247061
0.000105145
0.000241668
0.000100503
0.000227714
4.78687e-05
0.000213824
4.08677e-05
0.000202789
3.00145e-05
0.000178069
3.34314e-05
0.000141112
3.80578e-05
0.000141133
-8.25008e-06
0.000130602
-2.72131e-05
0.000163325
-5.44381e-05
0.000126241
-2.83002e-05
0.000119797
-6.65113e-05
0.000104465
-7.18031e-05
-9.39094e-05
6.97165e-05
0.000195873
0.000565204
0.000209555
0.000274639
0.000220664
0.000179115
0.000220837
0.000160648
0.000217957
0.000133387
0.00021355
0.000111375
0.000198555
9.3854e-05
0.000191488
7.41407e-05
0.000178503
7.3513e-05
0.000229825
5.38223e-05
0.000223605
0.000106724
0.000215021
5.64518e-05
0.000210032
4.5857e-05
0.000204125
3.59216e-05
0.000190576
4.69806e-05
0.00020126
2.73736e-05
0.000188412
4.59744e-06
0.00016506
-3.86039e-06
0.000138868
-2.82459e-05
0.000132197
-2.16293e-05
0.000131483
-6.57981e-05
0.000106735
-4.70546e-05
-9.7148e-05
0.000109974
0.000187401
0.000377804
0.000186038
0.000276002
0.000177871
0.000187281
0.000174695
0.000163824
0.000173773
0.000134309
0.000176032
0.000109116
0.000171676
9.82104e-05
0.000166286
7.95308e-05
0.000165258
7.45408e-05
0.000168967
5.01129e-05
0.000166109
0.000109582
0.000167263
5.52979e-05
0.000175503
3.76168e-05
0.000178501
3.29236e-05
0.000164092
6.13895e-05
0.000147158
4.43078e-05
0.000101143
5.06121e-05
9.52983e-05
1.98466e-06
8.51146e-05
-1.80623e-05
0.000105547
-4.2062e-05
9.72129e-05
-5.74637e-05
0.000103782
-5.36238e-05
-7.2525e-05
7.9159e-05
7.15217e-05
0.000306282
0.00012111
0.000226413
0.000124412
0.00018398
0.000131317
0.000156919
0.000135809
0.000129817
0.000136661
0.000108264
0.000135331
9.954e-05
0.000125722
8.91401e-05
0.000122383
7.78796e-05
0.000100683
7.18135e-05
0.000166253
4.40117e-05
0.000132453
8.90982e-05
0.000131633
3.84366e-05
8.4252e-05
8.03043e-05
7.71614e-05
6.848e-05
7.35005e-05
4.79687e-05
0.00011455
9.56312e-06