/*--------------------------------*- C++ -*----------------------------------*\
| =========                 |                                                 |
| \\      /  F ield         | foam-extend: Open Source CFD                    |
|  \\    /   O peration     | Version:     4.1                                |
|   \\  /    A nd           | Web:         http://www.foam-extend.org         |
|    \\/     M anipulation  |                                                 |
\*---------------------------------------------------------------------------*/
FoamFile
{
    version     2.0;
    format      ascii;
    class       volVectorField;
    location    "0.8";
    object      U;
}
// * * * * * * * * * * * * * * * * * * * * * * * * * * * * * * * * * * * * * //

dimensions      [0 1 -1 0 0 0 0];

internalField   nonuniform List<vector> 
2268
(
(-0.00616761 0.013229 0)
(-0.0395979 0.0134512 0)
(-0.0426089 0.0099964 0)
(-0.0644807 -0.00897751 0)
(-0.0727686 0.00199476 0)
(-0.108627 -0.00208349 0)
(-0.126746 -0.00137071 0)
(-0.107361 0.0022964 0)
(-0.101784 -0.0126416 0)
(-0.0445347 -0.0160873 0)
(-0.039629 0.00866507 0)
(-0.0369426 -0.0145708 0)
(-0.0264634 0.00399461 0)
(-0.0277098 0.014358 0)
(-0.0246897 0.00145375 0)
(-0.0242111 0.00692963 0)
(0.00553913 -0.0172749 0)
(0.00727245 0.00262683 0)
(0.0222096 -0.000271746 0)
(0.0190821 0.00247929 0)
(0.0129165 0.00582897 0)
(-7.08854e-05 0.000727008 0)
(0.00484476 0.000452105 0)
(-0.000421793 0.00804907 0)
(-0.0230418 0.0045899 0)
(-0.0285217 0.000522221 0)
(-0.0730952 -0.00901986 0)
(-0.0784216 0.00745678 0)
(-0.0992817 0.0276115 0)
(-0.127241 0.000904828 0)
(-0.0926191 -0.00747453 0)
(-0.0754783 -0.00282396 0)
(-0.0475065 0.0262281 0)
(-0.0464013 -0.0147894 0)
(-0.0464543 -0.00686358 0)
(-0.0328642 0.0187836 0)
(-0.0486655 -0.0427166 0)
(-0.0532513 0.0206165 0)
(-0.0520904 -0.027219 0)
(-0.0187641 -0.00197051 0)
(-0.00374008 -0.0115429 0)
(0.0106119 -0.00444782 0)
(0.0114678 0.00114984 0)
(0.00573511 0.00433405 0)
(-0.00657013 0.00249723 0)
(-0.00619918 0.0020817 0)
(-0.00517138 0.0248276 0)
(-0.0394412 0.0141724 0)
(-0.0490846 0.022732 0)
(-0.0774154 0.00400278 0)
(-0.082543 0.0132234 0)
(-0.114528 -0.00173376 0)
(-0.125742 -0.00580608 0)
(-0.100967 -0.0298032 0)
(-0.0816701 0.0118327 0)
(-0.0758866 -0.0484919 0)
(-0.0763198 -0.00892929 0)
(-0.0532782 -0.00803622 0)
(-0.0801696 -0.00678123 0)
(-0.0789312 -0.012314 0)
(-0.0740201 -0.00867801 0)
(-0.0810637 0.0013107 0)
(-0.0624981 -0.015507 0)
(-0.0446029 -0.0112909 0)
(-0.00901706 -0.0182242 0)
(-0.00104473 0.00960649 0)
(-0.00126426 0.0139576 0)
(-0.00868869 0.00566919 0)
(-0.00535415 -0.00545181 0)
(-0.0267937 0.0275946 0)
(-0.028229 0.0259081 0)
(-0.0503166 0.0151865 0)
(-0.0857342 0.00862598 0)
(-0.0710506 0.016593 0)
(-0.116929 -0.00797027 0)
(-0.137382 -0.00613091 0)
(-0.0998557 0.00360222 0)
(-0.122536 0.0197977 0)
(-0.112573 -0.0446578 0)
(-0.0992078 0.0104324 0)
(-0.12432 0.00122587 0)
(-0.12782 -0.00152106 0)
(-0.13296 0.0148089 0)
(-0.137987 -0.0099724 0)
(-0.131162 -0.000636273 0)
(-0.127591 -0.0419193 0)
(-0.086676 -0.0254804 0)
(-0.060023 0.000463788 0)
(-0.0312843 -0.00912503 0)
(-0.0183249 0.0108338 0)
(-0.0186504 0.00396737 0)
(-0.00900061 -0.00375745 0)
(-0.0217739 0.0530508 0)
(-0.0397687 0.0267305 0)
(-0.0515262 0.0206706 0)
(-0.0741166 0.0245539 0)
(-0.0741193 0.0246516 0)
(-0.134906 0.0196071 0)
(-0.154091 -0.00406703 0)
(-0.129864 0.0154858 0)
(-0.157242 -0.0316182 0)
(-0.12173 0.032748 0)
(-0.118145 0.00541754 0)
(-0.145564 0.00331578 0)
(-0.154683 -0.00401566 0)
(-0.159384 -0.00268763 0)
(-0.162357 -0.0115667 0)
(-0.169382 -0.00529388 0)
(-0.14781 -0.034168 0)
(-0.123875 -0.0424697 0)
(-0.104597 -0.0473114 0)
(-0.0828245 -0.0102797 0)
(-0.0556233 0.0242107 0)
(-0.0285956 8.4178e-05 0)
(-0.0117568 -0.0190009 0)
(-0.0354899 0.053209 0)
(-0.0467024 0.0390658 0)
(-0.0727687 0.0258468 0)
(-0.104406 0.00775918 0)
(-0.0972067 -0.00888043 0)
(-0.146512 0.0329961 0)
(-0.170871 -0.019222 0)
(-0.142546 0.0226652 0)
(-0.147458 0.0166659 0)
(-0.146978 0.0426506 0)
(-0.162902 0.0154072 0)
(-0.166766 0.019228 0)
(-0.166205 0.00774003 0)
(-0.170067 0.0123021 0)
(-0.160191 -0.00190504 0)
(-0.159313 -0.00183311 0)
(-0.164812 -0.068675 0)
(-0.140167 -0.048434 0)
(-0.117016 -0.0746096 0)
(-0.100401 -0.0326721 0)
(-0.110105 -0.0294137 0)
(-0.0636121 -0.0177793 0)
(-0.02121 -0.020715 0)
(-0.0294203 0.0773778 0)
(-0.0232381 0.0677214 0)
(-0.0595043 0.0499121 0)
(-0.126111 0.0337377 0)
(-0.103074 -0.0118461 0)
(-0.13681 0.0502677 0)
(-0.163869 0.0084 0)
(-0.156738 0.00710165 0)
(-0.16564 0.0393997 0)
(-0.152233 0.0495 0)
(-0.162396 0.0181726 0)
(-0.163528 0.014892 0)
(-0.165546 0.000335578 0)
(-0.164117 -0.00201179 0)
(-0.165348 -0.0164502 0)
(-0.189246 -0.0160842 0)
(-0.180269 -0.142845 0)
(-0.129021 -0.0664894 0)
(-0.111324 -0.0849504 0)
(-0.0949526 -0.0167154 0)
(-0.116426 -0.0333981 0)
(-0.0646266 -0.0218027 0)
(-0.016062 -0.0412783 0)
(-0.0352284 0.0719161 0)
(-0.0395818 0.0309288 0)
(-0.0937457 0.0475424 0)
(-0.145112 0.0255029 0)
(-0.133986 -0.00722049 0)
(-0.176516 0.0126267 0)
(-0.209824 0.054836 0)
(-0.161026 0.0264749 0)
(-0.155278 0.0618762 0)
(-0.178242 0.0349886 0)
(-0.184322 0.0174376 0)
(-0.173711 0.0121612 0)
(-0.17452 0.00623634 0)
(-0.182805 0.00798845 0)
(-0.178904 -0.00472753 0)
(-0.227969 0.0218232 0)
(-0.200686 -0.118156 0)
(-0.108691 -0.0766654 0)
(-0.101398 -0.104877 0)
(-0.0854757 -0.0266459 0)
(-0.136353 -0.0416672 0)
(-0.0817239 -0.0664693 0)
(0.00832956 -0.0525955 0)
(-0.309077 0.143803 0)
(-0.57853 0.0725958 0)
(-0.850069 0.0524157 0)
(-0.946376 -0.026013 0)
(-0.961458 -0.039957 0)
(-0.778305 -0.123063 0)
(-0.590894 -0.058511 0)
(-0.536039 -0.0426752 0)
(-0.510185 -0.0451994 0)
(-0.397065 -0.0715504 0)
(-0.317609 -0.0926706 0)
(-0.263026 -0.042421 0)
(-0.137044 -0.0141594 0)
(-0.0440809 -0.108933 0)
(0.0329787 -0.0451931 0)
(0.104686 -0.0228201 0)
(0.0660022 0.00439149 0)
(-0.0959838 -0.0109275 0)
(-0.0386592 -0.00935998 0)
(-0.254909 0.239833 0)
(-0.469048 0.153471 0)
(-0.65246 0.211261 0)
(-0.785625 0.0868145 0)
(-0.722863 -0.0520796 0)
(-0.377746 -0.158002 0)
(-0.241689 -0.0466052 0)
(-0.251352 -0.0127798 0)
(-0.264555 -0.0800703 0)
(-0.192335 -0.0988912 0)
(-0.134872 -0.0253405 0)
(-0.0834968 -0.100845 0)
(0.034174 -0.0927897 0)
(0.0650515 -0.0224611 0)
(0.0605543 -0.0143474 0)
(0.135573 -0.0228431 0)
(0.0964231 0.0890034 0)
(-0.0924755 0.0528118 0)
(-0.0950449 -0.0495157 0)
(-0.301721 0.41004 0)
(-0.423034 0.235867 0)
(-0.463798 0.0861234 0)
(-0.443296 -0.0211655 0)
(-0.248135 -0.164497 0)
(-0.166428 -0.208339 0)
(-0.0638104 -0.126814 0)
(0.154236 0.0103653 0)
(0.159993 0.0138961 0)
(0.249145 -0.130331 0)
(0.337836 -0.0904929 0)
(0.306106 -0.0420231 0)
(0.318523 -0.0626595 0)
(0.354292 -0.0647441 0)
(0.268555 -0.037883 0)
(0.433532 -0.0533393 0)
(0.539419 0.106338 0)
(0.183153 0.123285 0)
(0.0396138 -0.0880142 0)
(-0.266163 0.435207 0)
(-0.331709 0.355084 0)
(-0.275244 0.193751 0)
(-0.174166 0.0139671 0)
(0.00431314 -0.172881 0)
(-0.0981785 -0.232304 0)
(-0.0204258 -0.185216 0)
(0.131472 -0.212939 0)
(0.230227 -0.110492 0)
(0.305102 -0.0571399 0)
(0.374891 -0.166957 0)
(0.417509 -0.109972 0)
(0.40158 -0.0537757 0)
(0.412917 -0.128971 0)
(0.347686 -0.0467137 0)
(0.458052 0.00320137 0)
(0.831922 0.0243141 0)
(0.305247 0.232056 0)
(0.213198 0.0463501 0)
(-0.239112 0.496025 0)
(-0.20468 0.389817 0)
(-0.0761778 0.0709984 0)
(-0.130572 -0.0683873 0)
(0.169614 -0.190497 0)
(-0.0367719 -0.17974 0)
(0.0329171 -0.226621 0)
(0.0897345 -0.183541 0)
(0.261989 -0.112995 0)
(0.306828 -0.0379106 0)
(0.350951 -0.0925239 0)
(0.422651 -0.169265 0)
(0.406807 -0.173172 0)
(0.427222 -0.152615 0)
(0.393433 -0.0553019 0)
(0.4575 -0.00369071 0)
(0.714206 0.0150048 0)
(0.173243 0.287346 0)
(0.167611 0.129105 0)
(-0.208243 0.543782 0)
(-0.105801 0.369263 0)
(0.059617 0.0273567 0)
(0.0797253 -0.0556614 0)
(0.252696 -0.191568 0)
(0.0903176 -0.24777 0)
(0.192059 -0.201428 0)
(0.10445 -0.149174 0)
(0.240615 -0.100403 0)
(0.252903 -0.106464 0)
(0.294767 -0.062723 0)
(0.298 -0.145251 0)
(0.32504 -0.261815 0)
(0.403457 -0.176268 0)
(0.357993 -0.0526184 0)
(0.445045 0.0901264 0)
(0.50363 0.0526328 0)
(0.130652 0.30356 0)
(0.21968 0.18123 0)
(-0.194158 0.564709 0)
(-0.000354984 0.353684 0)
(0.0806763 -0.00729132 0)
(0.363274 -0.20362 0)
(0.310423 -0.20794 0)
(0.0827514 -0.37193 0)
(0.260258 -0.260157 0)
(0.236584 -0.160641 0)
(0.173532 -0.240042 0)
(0.220451 -0.18099 0)
(0.251989 -0.143666 0)
(0.238102 -0.197848 0)
(0.199119 -0.238224 0)
(0.320953 -0.154665 0)
(0.320102 -0.068797 0)
(0.365365 0.111898 0)
(0.359574 0.0657586 0)
(0.250309 0.548799 0)
(0.326269 0.210032 0)
(-0.192307 0.633853 0)
(0.0945861 0.291236 0)
(0.261123 -0.120461 0)
(0.446091 -0.35947 0)
(0.340955 -0.167287 0)
(0.0874844 -0.333954 0)
(0.284598 -0.264528 0)
(0.291667 -0.0632783 0)
(0.211345 -0.1936 0)
(0.169414 -0.103533 0)
(0.226797 -0.207455 0)
(0.222975 -0.230696 0)
(0.175319 -0.157488 0)
(0.200042 -0.10334 0)
(0.114324 -0.0569504 0)
(0.191875 0.0845231 0)
(0.295736 0.147923 0)
(0.281434 0.723721 0)
(0.322605 0.319549 0)
(-0.0111972 0.118577 0)
(0.00814132 0.172794 0)
(-0.0579252 0.12998 0)
(-0.179829 0.0613608 0)
(-0.157364 -0.0013767 0)
(-0.130158 -0.0124038 0)
(-0.162615 0.0689341 0)
(-0.16486 0.0675177 0)
(-0.179842 0.0470439 0)
(-0.170424 0.0240871 0)
(-0.163224 0.0221646 0)
(-0.164393 0.0217825 0)
(-0.167814 0.010867 0)
(-0.177004 0.00554373 0)
(-0.169614 0.0266414 0)
(-0.282102 -0.0133889 0)
(-0.256031 -0.0844726 0)
(-0.136063 -0.12461 0)
(-0.0952742 -0.11668 0)
(-0.0286071 -0.0355954 0)
(-0.145622 -0.0294422 0)
(-0.0854749 -0.109433 0)
(0.0571149 -0.107872 0)
(-0.14436 0.216305 0)
(-0.167516 0.16028 0)
(-0.243656 0.10801 0)
(-0.284722 0.0741991 0)
(-0.195254 0.111142 0)
(-0.116528 0.0305188 0)
(-0.0789877 0.0329302 0)
(-0.146941 0.0272391 0)
(-0.16528 0.0186251 0)
(-0.166956 0.0156299 0)
(-0.151732 0.00468895 0)
(-0.143595 0.00269616 0)
(-0.147828 0.00595409 0)
(-0.131404 0.011713 0)
(-0.229478 0.0494054 0)
(-0.415583 -0.083201 0)
(-0.342977 -0.0351198 0)
(-0.306857 -0.185762 0)
(-0.147338 -0.120261 0)
(0.206341 -0.011992 0)
(-0.0327696 -0.0140227 0)
(-0.144047 -0.155042 0)
(-0.201373 -0.149335 0)
(-0.115883 0.268965 0)
(0.0159945 0.132067 0)
(0.0426901 0.0676419 0)
(-0.063949 0.0333754 0)
(0.0156026 -0.0939609 0)
(-0.0794269 0.0136666 0)
(-0.0260026 0.107706 0)
(0.044402 0.142263 0)
(-0.114728 0.0664473 0)
(-0.169997 0.0541558 0)
(-0.112587 0.00783588 0)
(-0.0764384 0.0286364 0)
(-0.182167 0.00928386 0)
(-0.289918 0.0753298 0)
(-0.774723 0.045699 0)
(-0.997752 0.0212726 0)
(-0.570773 -0.371454 0)
(-0.365101 -0.610648 0)
(-0.294259 -0.446224 0)
(-0.168367 -0.109737 0)
(-0.0713895 0.175287 0)
(-0.0359431 0.0281545 0)
(-0.411023 -0.109011 0)
(-0.132728 0.247759 0)
(0.18528 0.000149969 0)
(0.399456 0.0442298 0)
(0.234988 0.187187 0)
(-0.173382 0.232556 0)
(-0.248054 0.0257163 0)
(-0.272172 -0.0508372 0)
(-0.467565 0.186274 0)
(-0.548994 0.346079 0)
(-0.531624 -0.0285094 0)
(-0.172501 -0.213033 0)
(0.433814 0.0570268 0)
(0.417901 0.330135 0)
(-0.387519 0.524989 0)
(-1.32284 0.671235 0)
(-1.00016 -0.20587 0)
(-0.622233 -0.569467 0)
(-0.411402 -0.603304 0)
(-0.30568 -0.511062 0)
(-0.36447 -0.254779 0)
(-0.208248 0.0155661 0)
(-0.0636876 0.00884662 0)
(-0.34116 0.0803083 0)
(-0.188927 0.220587 0)
(-0.199692 -0.0134423 0)
(-0.591496 0.284487 0)
(-0.70197 0.263584 0)
(-0.676882 0.241521 0)
(-1.0318 0.103359 0)
(-1.74899 0.491664 0)
(-1.79754 0.523016 0)
(-1.3208 -0.253916 0)
(-1.07958 -0.790194 0)
(-0.707354 -0.690403 0)
(-0.536349 -0.502646 0)
(0.0110937 0.806545 0)
(-0.720132 1.48671 0)
(-0.969527 0.338308 0)
(-0.872137 -0.450459 0)
(-0.643703 -0.521565 0)
(-0.609593 -0.506466 0)
(-0.645357 -0.485294 0)
(-0.58446 -0.279105 0)
(-0.53952 0.0701917 0)
(-0.49847 0.145527 0)
(-0.496866 0.198377 0)
(-0.457332 0.613318 0)
(-0.622568 0.362585 0)
(-1.01126 0.299896 0)
(-1.09566 0.278222 0)
(-1.27384 0.586165 0)
(-2.2603 0.978921 0)
(-2.19433 0.34088 0)
(-1.67764 -0.316141 0)
(-1.48827 -0.673552 0)
(-1.17404 -0.805032 0)
(-1.01066 -0.79163 0)
(-0.970775 -0.60911 0)
(-0.960559 0.838415 0)
(-0.807682 1.32363 0)
(-0.723897 0.677503 0)
(-0.441623 -0.389566 0)
(-0.704384 -0.503228 0)
(-0.70466 -0.577878 0)
(-0.758308 -0.529034 0)
(-0.689892 -0.290299 0)
(-0.531865 -0.000219745 0)
(-0.553835 0.113316 0)
(-0.472296 0.168585 0)
(-0.795247 1.14422 0)
(-0.740501 0.680215 0)
(-1.2357 0.644047 0)
(-1.4545 0.58131 0)
(-2.04269 1.3961 0)
(-2.1459 1.3103 0)
(-1.94834 0.220074 0)
(-1.68691 -0.515869 0)
(-1.41674 -0.808786 0)
(-1.30152 -0.830671 0)
(-1.29609 -0.892648 0)
(-1.23375 -0.41845 0)
(-1.33378 0.62716 0)
(-1.20741 0.866045 0)
(-0.803222 0.0514123 0)
(-0.797638 -0.439321 0)
(-0.883734 -0.526978 0)
(-0.79511 -0.512661 0)
(-0.686215 -0.397104 0)
(-0.642126 -0.142571 0)
(-0.584815 -0.120478 0)
(-0.465681 -0.116375 0)
(-0.351256 -0.212109 0)
(-1.08838 2.03262 0)
(-1.31417 0.998891 0)
(-0.807427 1.16628 0)
(-1.63515 1.73219 0)
(-1.86496 2.17725 0)
(-1.62435 1.37018 0)
(-1.45039 0.0512238 0)
(-1.28456 -0.527547 0)
(-1.30092 -0.628498 0)
(-1.34236 -0.912055 0)
(-1.46993 -0.769938 0)
(-1.59539 -0.488014 0)
(-1.38459 0.374792 0)
(-1.1275 0.68352 0)
(-0.95363 0.143402 0)
(-0.997727 -0.637077 0)
(-1.0283 -0.971718 0)
(-1.00769 -0.803361 0)
(-0.815335 -0.697934 0)
(-0.694399 -0.432536 0)
(-0.559471 -0.199544 0)
(-0.317418 -0.0881785 0)
(-0.295826 -0.0497716 0)
(-1.14159 2.53847 0)
(-1.17173 1.23364 0)
(-0.794843 2.16083 0)
(-1.4854 1.87933 0)
(-1.60056 2.03164 0)
(-1.46305 1.18964 0)
(-1.22471 -0.0864417 0)
(-1.37903 -0.499181 0)
(-1.3601 -0.649985 0)
(-1.5123 -0.809415 0)
(-1.69798 -0.824817 0)
(-1.71656 -0.482905 0)
(-1.46057 0.0570785 0)
(-1.19076 0.285643 0)
(-0.985016 0.114346 0)
(-1.02903 -0.368095 0)
(-1.11695 -0.72177 0)
(-1.06901 -0.764422 0)
(-0.995035 -0.727852 0)
(-0.825808 -0.732497 0)
(-0.489734 -0.168117 0)
(-0.283173 -0.0248243 0)
(-0.319446 -0.150319 0)
(-1.09427 3.18694 0)
(-1.04382 1.53482 0)
(-1.00129 2.06324 0)
(-1.57796 1.92682 0)
(-1.3192 1.41167 0)
(-1.44151 0.708223 0)
(-1.62395 -0.0468643 0)
(-1.65149 -0.478649 0)
(-1.83389 -0.880616 0)
(-1.81674 -1.12074 0)
(-1.69846 -1.16427 0)
(-1.57671 -0.472193 0)
(-1.3719 -0.109853 0)
(-1.03596 0.310473 0)
(-0.836386 0.228579 0)
(-0.740849 -0.245543 0)
(-0.920731 -0.449206 0)
(-0.972887 -0.855671 0)
(-0.964764 -0.904401 0)
(-0.926006 -0.930275 0)
(-0.948155 -0.836957 0)
(-0.688566 -0.579096 0)
(-0.48027 -0.495987 0)
(-1.02656 3.71433 0)
(-1.13488 1.89517 0)
(-1.08042 2.03374 0)
(-1.49358 1.98966 0)
(-1.28707 1.47612 0)
(-1.48312 0.886885 0)
(-1.6616 0.0828717 0)
(-1.64769 -0.54203 0)
(-1.88958 -0.830899 0)
(-1.85456 -0.973575 0)
(-1.51346 -0.892332 0)
(-1.52014 -0.739613 0)
(-1.55969 -0.605504 0)
(-1.05325 -0.373284 0)
(-0.83362 -0.402272 0)
(-0.900408 -0.294668 0)
(-0.690828 -0.417826 0)
(-0.743522 -0.785501 0)
(-0.661535 -0.826909 0)
(-0.936853 -0.970659 0)
(-0.963884 -1.04902 0)
(-0.867771 -0.935981 0)
(-0.778543 -0.831379 0)
(-0.922163 4.17208 0)
(-1.26661 2.41926 0)
(-1.28426 2.20513 0)
(-1.29073 1.99948 0)
(-0.892216 1.61261 0)
(-1.1598 0.895664 0)
(-1.42913 0.141597 0)
(-1.06702 -0.423445 0)
(-1.16484 -0.800843 0)
(-1.34064 -0.87976 0)
(-1.30376 -0.873732 0)
(-1.54514 -0.967315 0)
(-1.63474 -0.720828 0)
(-1.52528 -0.60297 0)
(-0.967829 -0.543301 0)
(-0.843214 -0.344087 0)
(-0.9492 -0.463025 0)
(-0.816844 -0.60974 0)
(-1.02384 -0.917061 0)
(-1.05343 -1.09876 0)
(-1.01924 -0.9868 0)
(-1.04775 -0.908346 0)
(-1.09725 -0.791276 0)
(-0.344388 4.85044 0)
(-0.862242 2.84308 0)
(-1.19028 2.37343 0)
(-0.73141 2.2419 0)
(-0.637314 1.1887 0)
(-0.328833 0.465055 0)
(-0.0558298 0.178346 0)
(0.00828654 0.0509771 0)
(0.162183 -0.397639 0)
(-0.379233 -0.176691 0)
(-1.09901 -0.832813 0)
(-1.42988 -0.847727 0)
(-1.34923 -0.692074 0)
(-1.49668 -0.607529 0)
(-1.29218 -0.414437 0)
(-1.2566 -0.31171 0)
(-1.36161 -0.389729 0)
(-1.19893 -0.561433 0)
(-1.2505 -0.711764 0)
(-1.41871 -0.758661 0)
(-1.32072 -0.954841 0)
(-1.16608 -1.11792 0)
(-1.37238 -0.910779 0)
(0.414939 5.43035 0)
(0.336768 3.52733 0)
(-0.432045 2.34333 0)
(0.462856 1.68281 0)
(0.192182 1.21435 0)
(0.653002 0.349331 0)
(0.799014 -0.203501 0)
(0.537225 -0.437465 0)
(0.609062 -0.399641 0)
(0.760417 -0.153289 0)
(0.620412 -0.354354 0)
(-1.12952 -0.225822 0)
(-1.066 -0.650924 0)
(-1.29334 -0.702894 0)
(-1.29006 -0.633975 0)
(-1.37408 -0.64361 0)
(-1.6374 -0.428623 0)
(-1.24229 -0.562294 0)
(-1.12727 -0.674244 0)
(-1.3983 -0.71815 0)
(-1.50065 -0.703115 0)
(-1.41725 -1.08582 0)
(-1.5127 -1.14055 0)
(0.80107 5.11911 0)
(1.28571 3.9176 0)
(0.810576 2.41155 0)
(2.01283 1.13052 0)
(1.69834 0.91315 0)
(1.83103 0.391806 0)
(1.83343 0.408198 0)
(1.73493 0.120107 0)
(1.62081 -0.0552893 0)
(1.40094 0.0345542 0)
(1.31424 0.0355719 0)
(1.20326 0.3614 0)
(-0.392668 0.202345 0)
(-0.560674 -0.89924 0)
(-0.639852 -0.6174 0)
(-0.938732 -0.467585 0)
(-1.10373 -0.299484 0)
(-1.22899 -0.339676 0)
(-1.09857 -0.678619 0)
(-1.23925 -0.805482 0)
(-1.40858 -0.802038 0)
(-1.41872 -0.793688 0)
(-1.61386 -0.863465 0)
(0.834121 3.30289 0)
(1.85223 3.04858 0)
(2.64809 2.05599 0)
(3.07674 1.33973 0)
(3.19898 -0.288338 0)
(3.92588 -0.491252 0)
(3.67186 -0.137422 0)
(2.86444 -0.229373 0)
(2.69376 0.000136808 0)
(2.61997 0.295959 0)
(2.19944 0.855806 0)
(2.1515 0.846095 0)
(1.73579 0.75089 0)
(1.14385 0.395327 0)
(-0.0989597 -0.338615 0)
(-0.613612 0.164735 0)
(-1.05533 -0.0963589 0)
(-1.12893 -0.166628 0)
(-0.876627 -0.547519 0)
(-1.13119 -0.812693 0)
(-1.25745 -0.894207 0)
(-1.20291 -0.789305 0)
(-1.21321 -0.896015 0)
(-0.0631382 1.57953 0)
(2.03643 2.5183 0)
(2.70859 2.15861 0)
(2.83912 1.54664 0)
(2.92322 0.57549 0)
(4.38924 -0.422081 0)
(4.18857 -0.717025 0)
(3.25395 -0.82393 0)
(2.97103 -0.16152 0)
(2.59505 0.721338 0)
(2.24775 1.1742 0)
(2.02668 1.47086 0)
(1.91204 1.43755 0)
(1.37515 1.10047 0)
(-0.444602 0.183253 0)
(-0.563878 0.27359 0)
(-0.912476 -0.0246985 0)
(-1.01912 -0.29935 0)
(-0.97384 -0.45118 0)
(-1.07684 -0.783485 0)
(-1.12008 -0.84653 0)
(-1.11214 -0.776003 0)
(-1.06055 -0.750669 0)
(-0.326221 0.936656 0)
(1.78975 2.1314 0)
(2.10481 1.53151 0)
(2.63655 1.17799 0)
(3.38713 0.0116466 0)
(3.01586 -0.682522 0)
(2.80524 -0.402112 0)
(2.04043 0.227492 0)
(2.31281 0.677669 0)
(1.65588 0.898031 0)
(1.25167 0.964713 0)
(1.49092 1.2132 0)
(1.8859 2.04802 0)
(1.24993 1.80349 0)
(-0.120642 0.982983 0)
(-0.116255 0.731416 0)
(-0.610274 0.484418 0)
(-0.949426 -0.0332035 0)
(-1.09201 -0.282185 0)
(-1.23606 -0.53968 0)
(-1.07094 -0.695692 0)
(-0.936581 -0.730257 0)
(-0.942341 -0.550904 0)
(-0.521681 0.394586 0)
(1.23419 1.54027 0)
(1.2221 0.0642293 0)
(1.64913 0.0607049 0)
(1.61586 0.419856 0)
(0.338949 0.455886 0)
(-0.0237507 0.344636 0)
(0.0242801 0.415795 0)
(0.377184 0.788951 0)
(0.44575 0.778713 0)
(0.614598 0.950718 0)
(1.26356 1.53863 0)
(1.53282 2.17348 0)
(0.83448 1.97595 0)
(-0.0765361 1.25328 0)
(-0.00175648 0.987425 0)
(-0.549101 0.640083 0)
(-0.743679 0.315097 0)
(-0.989266 -0.241814 0)
(-1.1876 -0.506588 0)
(-1.16751 -0.847137 0)
(-0.835405 -1.05234 0)
(-0.713139 -1.0225 0)
(-0.655096 0.49267 0)
(0.0105846 0.60237 0)
(-0.251225 0.131929 0)
(-0.349848 0.207703 0)
(-0.0854574 0.431812 0)
(0.225604 0.59947 0)
(0.00935677 0.214119 0)
(0.091567 0.241541 0)
(0.0143189 0.843683 0)
(0.00256631 1.09489 0)
(0.241907 1.61393 0)
(0.448184 2.25486 0)
(0.583293 2.26093 0)
(-0.297947 2.16586 0)
(-0.404429 1.8142 0)
(-0.0644125 1.39413 0)
(-0.679113 1.17713 0)
(-0.817808 0.934608 0)
(-0.918257 0.115077 0)
(-1.30427 -0.493246 0)
(-1.39286 -0.890047 0)
(-0.911423 -1.15828 0)
(-0.591437 -1.45489 0)
(-0.28867 0.979398 0)
(-0.503073 0.802255 0)
(-0.762445 0.372509 0)
(-0.852379 0.172118 0)
(-0.888106 0.127774 0)
(-0.241741 0.505395 0)
(-0.0952621 0.310136 0)
(-0.179474 0.105977 0)
(-0.0737654 0.449825 0)
(-0.0704272 0.501747 0)
(0.142157 1.07515 0)
(-0.698744 2.20361 0)
(-0.798209 2.5526 0)
(-1.04393 2.59641 0)
(-1.0147 2.22253 0)
(-0.713749 1.84457 0)
(-1.09272 1.64299 0)
(-1.00349 0.939058 0)
(-1.09807 -0.0683423 0)
(-0.997658 -0.648091 0)
(-0.954054 -0.915738 0)
(-1.04862 -1.09589 0)
(-0.654936 -1.38758 0)
(-0.510469 1.2933 0)
(-0.581213 0.669083 0)
(-0.659501 0.340656 0)
(-0.596012 0.221704 0)
(-0.538551 0.148367 0)
(-0.574556 0.317935 0)
(-0.529953 0.204877 0)
(-0.619797 0.125769 0)
(-0.402014 0.382027 0)
(-0.361832 0.376251 0)
(-0.353609 0.796864 0)
(-1.20528 1.87495 0)
(-1.3709 2.64282 0)
(-1.2821 2.73282 0)
(-1.11992 1.93582 0)
(-1.11337 1.50882 0)
(-1.04122 1.50971 0)
(-0.7649 0.983691 0)
(-0.482122 0.00345159 0)
(-0.738562 -0.549978 0)
(-0.425734 -1.01504 0)
(-0.584832 -1.31447 0)
(-0.618004 -1.29433 0)
(-0.358314 1.91701 0)
(-0.543468 0.865556 0)
(-0.791153 0.401477 0)
(-0.828683 0.152917 0)
(-1.00756 0.2556 0)
(-1.28046 0.357528 0)
(-1.34025 0.351445 0)
(-0.855538 0.30339 0)
(-0.669262 0.67514 0)
(-1.03753 1.05043 0)
(-1.34204 1.21256 0)
(-1.84076 2.01445 0)
(-1.61518 2.63694 0)
(-1.39477 2.62495 0)
(-1.20854 1.49182 0)
(-0.952324 1.14592 0)
(-0.644266 1.19392 0)
(-0.238732 0.481169 0)
(0.0289891 -0.51075 0)
(0.204497 -0.78688 0)
(-0.0381876 -1.49704 0)
(-0.208765 -1.51139 0)
(-0.140002 -1.47033 0)
(-0.353207 2.11125 0)
(-0.574403 0.893091 0)
(-0.771208 0.477168 0)
(-0.841414 0.352271 0)
(-1.50934 0.584555 0)
(-1.6436 0.437442 0)
(-1.65203 0.394953 0)
(-1.47649 0.372409 0)
(-1.42262 0.409125 0)
(-1.65915 0.704776 0)
(-2.19983 1.371 0)
(-1.83584 2.17151 0)
(-1.58087 2.58065 0)
(-1.23328 2.40235 0)
(-0.917384 1.37225 0)
(-0.747665 1.25422 0)
(-0.0711568 0.747188 0)
(0.308796 0.265657 0)
(0.381902 -0.301766 0)
(0.323124 -0.592147 0)
(0.677193 -1.19836 0)
(0.476666 -1.34352 0)
(0.150745 -1.30495 0)
(-0.52696 2.54616 0)
(-0.764573 1.11228 0)
(-0.823887 0.826221 0)
(-1.24382 0.918239 0)
(-1.97789 0.699943 0)
(-2.04357 0.39122 0)
(-2.08835 0.339409 0)
(-2.03388 0.344095 0)
(-1.76583 0.403485 0)
(-1.72925 0.721091 0)
(-2.00786 1.45333 0)
(-1.86633 1.95912 0)
(-1.57773 2.1559 0)
(-1.01548 2.01618 0)
(-0.0746937 1.32841 0)
(0.0634122 1.06371 0)
(0.527571 0.784397 0)
(0.583534 -0.0581058 0)
(0.658937 -0.379043 0)
(0.60758 -0.675865 0)
(0.885897 -0.966234 0)
(0.703962 -1.42816 0)
(0.472405 -1.57393 0)
(-0.986546 2.91738 0)
(-1.12424 1.57465 0)
(-1.24512 1.24377 0)
(-1.55171 1.41 0)
(-1.89933 1.15506 0)
(-1.94819 0.91696 0)
(-1.98889 0.468489 0)
(-2.12192 0.147864 0)
(-1.99352 0.00542336 0)
(-1.75332 0.127005 0)
(-1.44974 0.715941 0)
(-1.25445 1.45669 0)
(-1.08183 1.85655 0)
(-0.32902 1.83593 0)
(0.126221 1.18247 0)
(0.145802 0.717399 0)
(0.756563 0.280896 0)
(0.758347 -0.0863794 0)
(0.511882 -0.342303 0)
(0.642363 -0.538924 0)
(0.903638 -1.0123 0)
(0.819185 -1.4616 0)
(0.851119 -1.46794 0)
(-1.07378 3.60068 0)
(-1.00713 2.06971 0)
(-1.41949 1.4351 0)
(-1.4856 1.39596 0)
(-1.37805 1.2702 0)
(-1.59025 0.846023 0)
(-1.3349 0.429193 0)
(-1.41306 0.207132 0)
(-1.37423 0.128108 0)
(-1.39337 0.139814 0)
(-1.21666 0.292274 0)
(-0.837406 0.434728 0)
(-0.526876 1.02711 0)
(0.154525 0.911101 0)
(0.496132 0.390775 0)
(0.530488 0.462778 0)
(0.491344 0.0829149 0)
(0.719302 -0.0919473 0)
(0.651893 -0.466306 0)
(1.0457 -0.753133 0)
(1.26064 -1.174 0)
(1.0756 -1.20737 0)
(0.898817 -1.33871 0)
(-0.777765 4.17897 0)
(-0.705937 2.59859 0)
(-1.17869 1.69901 0)
(-1.07249 1.52839 0)
(-0.961007 1.38611 0)
(-1.06206 0.863458 0)
(-0.556046 0.61376 0)
(-0.880425 0.358945 0)
(-0.662159 0.088293 0)
(-0.593692 0.13551 0)
(-0.458498 0.216464 0)
(-0.381462 0.409372 0)
(-0.341717 0.714234 0)
(0.268563 0.800579 0)
(0.615411 0.384007 0)
(0.997321 0.201937 0)
(0.977233 -0.0957291 0)
(1.02784 -0.431011 0)
(1.05853 -0.736133 0)
(1.38928 -0.779372 0)
(1.37644 -0.936291 0)
(1.08223 -1.109 0)
(0.982162 -1.30634 0)
(-0.25059 4.72622 0)
(-0.140421 2.54311 0)
(-0.739997 2.01889 0)
(-0.195586 1.53368 0)
(-0.438087 0.984388 0)
(-0.201455 0.594168 0)
(-0.0216187 0.436305 0)
(-0.0671215 0.0986294 0)
(0.12086 0.081402 0)
(0.0294197 0.0859651 0)
(0.0766458 0.081916 0)
(0.466672 0.324576 0)
(0.522231 0.632879 0)
(0.658136 0.601176 0)
(0.759248 0.476191 0)
(1.06121 0.289833 0)
(1.14314 0.00984708 0)
(1.20585 -0.173108 0)
(1.2737 -0.381954 0)
(1.33635 -0.52784 0)
(1.24439 -0.925079 0)
(0.989765 -1.07826 0)
(0.922487 -1.39172 0)
(-0.130847 5.29375 0)
(0.455916 3.08568 0)
(0.442695 2.07536 0)
(0.68539 1.59196 0)
(0.438797 1.14109 0)
(0.68962 0.584023 0)
(0.708779 0.340051 0)
(0.685367 0.211733 0)
(0.794678 0.0768434 0)
(0.756622 0.0919914 0)
(0.694206 0.163101 0)
(0.780551 0.310126 0)
(0.863366 0.334732 0)
(0.953805 0.203583 0)
(1.15796 0.158923 0)
(1.16206 0.0203965 0)
(1.32555 -0.145632 0)
(1.29223 -0.246192 0)
(1.3195 -0.505838 0)
(1.15975 -0.660543 0)
(1.19107 -1.04228 0)
(0.951101 -1.15148 0)
(1.01118 -1.11296 0)
(-0.0376808 5.34539 0)
(0.460653 3.66535 0)
(0.735395 1.96039 0)
(1.37094 1.20523 0)
(1.06065 0.791207 0)
(1.05577 0.490018 0)
(1.12401 0.333021 0)
(1.08502 0.306318 0)
(1.10011 0.231954 0)
(0.962696 0.214046 0)
(0.89969 0.159467 0)
(0.900439 0.16655 0)
(0.937985 0.125739 0)
(1.03618 0.130507 0)
(1.15512 0.0781507 0)
(1.24229 -0.182237 0)
(1.34205 -0.164733 0)
(1.25667 -0.125805 0)
(1.11007 -0.30848 0)
(0.983889 -0.390463 0)
(0.82515 -0.636191 0)
(0.733622 -0.617839 0)
(0.793784 -0.563765 0)
(0.0195626 4.74913 0)
(0.524651 3.2124 0)
(1.25383 2.08767 0)
(1.50163 1.43391 0)
(1.32994 0.873797 0)
(1.23004 0.581492 0)
(1.25087 0.402889 0)
(1.19221 0.336248 0)
(1.22768 0.302182 0)
(1.13687 0.247946 0)
(1.02496 0.230396 0)
(1.01715 0.135338 0)
(0.9309 0.0666368 0)
(0.985157 0.0446426 0)
(0.927415 0.000875836 0)
(1.05747 -0.0265673 0)
(1.58539 -0.168577 0)
(1.35908 -0.252615 0)
(0.820163 -0.332174 0)
(0.728044 -0.406317 0)
(0.741882 -0.423763 0)
(0.76494 -0.418111 0)
(0.683602 -0.440031 0)
(0.40107 3.80465 0)
(0.656857 2.77234 0)
(1.21876 2.01231 0)
(1.29284 1.41384 0)
(1.25111 0.988307 0)
(1.19134 0.707638 0)
(1.183 0.532362 0)
(1.11976 0.452974 0)
(1.14136 0.418849 0)
(1.11082 0.351983 0)
(0.999568 0.33096 0)
(0.93073 0.208673 0)
(0.929814 0.156991 0)
(0.990541 0.0968004 0)
(0.97388 0.0695402 0)
(0.985448 0.0446514 0)
(1.0265 -0.0462159 0)
(0.857671 -0.338872 0)
(0.712842 -0.181298 0)
(0.651579 -0.227882 0)
(0.596131 -0.241816 0)
(0.53285 -0.345517 0)
(0.457496 -0.504346 0)
(0.460907 3.19998 0)
(0.693028 2.06462 0)
(0.928567 1.38775 0)
(0.990425 1.14981 0)
(0.999019 0.936877 0)
(0.997578 0.75879 0)
(0.951586 0.538764 0)
(0.950478 0.497866 0)
(0.983407 0.377431 0)
(0.972134 0.370733 0)
(0.895817 0.347286 0)
(0.863236 0.293308 0)
(0.774106 0.238133 0)
(0.810603 0.133901 0)
(0.686304 0.0631958 0)
(0.75677 0.00674445 0)
(1.06582 -0.091612 0)
(0.979715 -0.199109 0)
(0.809219 -0.153432 0)
(0.452518 -0.245913 0)
(0.472288 -0.293478 0)
(0.426251 -0.299765 0)
(0.376581 -0.418054 0)
(0.572402 2.46399 0)
(0.811525 1.93725 0)
(0.778738 1.27219 0)
(0.809288 1.14496 0)
(0.804213 0.948211 0)
(0.76251 0.795642 0)
(0.783577 0.611915 0)
(0.670619 0.469041 0)
(0.737138 0.469425 0)
(0.899929 0.396331 0)
(0.830383 0.385233 0)
(0.811217 0.387284 0)
(0.759597 0.336958 0)
(0.780731 0.28741 0)
(0.727237 0.179045 0)
(0.74652 0.22832 0)
(0.760393 -0.0280991 0)
(0.680464 -0.0167353 0)
(0.561565 -0.221632 0)
(0.488273 -0.158088 0)
(0.496345 -0.214871 0)
(0.446245 -0.251527 0)
(0.374633 -0.284983 0)
(0.679552 2.37829 0)
(0.865532 1.93926 0)
(0.610893 1.32861 0)
(0.666243 1.18555 0)
(0.630718 0.980541 0)
(0.621501 0.809731 0)
(0.654696 0.733941 0)
(0.612472 0.583512 0)
(0.622341 0.577539 0)
(0.642496 0.356814 0)
(0.642135 0.421634 0)
(0.6189 0.415061 0)
(0.629787 0.317927 0)
(0.643353 0.234055 0)
(0.654963 0.200829 0)
(0.558825 0.17749 0)
(0.592758 0.118913 0)
(0.751809 -0.0464824 0)
(0.645182 -0.174047 0)
(0.52985 -0.161462 0)
(0.279867 -0.260285 0)
(0.409383 -0.411537 0)
(0.347332 -0.465789 0)
(0.481502 2.39468 0)
(0.540121 1.788 0)
(0.364807 1.34829 0)
(0.511155 1.17221 0)
(0.464832 0.961177 0)
(0.511502 0.775793 0)
(0.476925 0.698879 0)
(0.504937 0.576483 0)
(0.412453 0.503567 0)
(0.544231 0.389945 0)
(0.706548 0.366194 0)
(0.578061 0.359887 0)
(0.407557 0.232045 0)
(0.553655 0.247625 0)
(0.603336 0.220186 0)
(0.526435 0.145522 0)
(0.467277 0.196014 0)
(0.403466 0.0872584 0)
(0.365161 0.03095 0)
(0.302389 -0.124893 0)
(0.154946 -0.16664 0)
(0.260086 -0.334229 0)
(0.471906 -0.539149 0)
(0.271729 1.91391 0)
(0.251445 1.42579 0)
(0.326846 1.27677 0)
(0.365483 1.08191 0)
(0.376769 0.899517 0)
(0.390385 0.778866 0)
(0.400376 0.729624 0)
(0.405652 0.687884 0)
(0.396277 0.579461 0)
(0.400187 0.572811 0)
(0.417365 0.289504 0)
(0.42104 0.325701 0)
(0.450384 0.296445 0)
(0.564131 0.333555 0)
(0.520029 0.304413 0)
(0.437836 0.199069 0)
(0.457824 -0.0333178 0)
(0.337028 -0.0476521 0)
(0.178046 -0.0355616 0)
(0.198163 -0.0767406 0)
(0.105379 -0.153848 0)
(0.261336 -0.238689 0)
(0.37954 -0.473415 0)
(0.155427 1.64836 0)
(0.15989 1.37271 0)
(0.247474 1.22572 0)
(0.275574 1.0683 0)
(0.304281 0.894437 0)
(0.333205 0.748304 0)
(0.309702 0.671739 0)
(0.306777 0.625659 0)
(0.318336 0.544024 0)
(0.244552 0.451089 0)
(0.348665 0.317765 0)
(0.383542 0.261332 0)
(0.411384 0.314646 0)
(0.615444 0.231068 0)
(0.50435 0.243775 0)
(0.319165 0.198555 0)
(0.380204 0.112684 0)
(0.333185 0.0332775 0)
(0.290317 0.10071 0)
(0.22374 0.0859656 0)
(0.147033 -0.0799159 0)
(0.199898 -0.294387 0)
(0.291467 -0.516219 0)
(0.0969579 1.33546 0)
(0.0986466 1.18688 0)
(0.178295 1.0441 0)
(0.187905 0.936846 0)
(0.23797 0.747156 0)
(0.24193 0.778398 0)
(0.23957 0.752362 0)
(0.238309 0.697867 0)
(0.238924 0.666599 0)
(0.239386 0.575284 0)
(0.201707 0.531446 0)
(0.269684 0.397363 0)
(0.319957 0.439517 0)
(0.428394 0.35335 0)
(0.554042 0.188382 0)
(0.365458 0.217684 0)
(0.361473 0.173532 0)
(0.465788 0.033506 0)
(0.356648 0.126241 0)
(0.214299 0.033324 0)
(0.192498 -0.087168 0)
(0.266702 -0.410969 0)
(0.183621 -0.450301 0)
(0.0606637 1.33342 0)
(0.0575287 1.21119 0)
(0.148131 1.07774 0)
(0.120086 0.968979 0)
(0.275663 0.801515 0)
(0.363886 0.717016 0)
(0.264454 0.596004 0)
(0.225597 0.58313 0)
(0.206691 0.506006 0)
(0.11359 0.447863 0)
(0.193657 0.355806 0)
(0.221353 0.370064 0)
(0.205308 0.306459 0)
(0.405106 0.325114 0)
(0.419701 0.210879 0)
(0.336669 0.207569 0)
(0.262261 0.195683 0)
(0.38475 0.101816 0)