/*--------------------------------*- C++ -*----------------------------------*\
| =========                 |                                                 |
| \\      /  F ield         | foam-extend: Open Source CFD                    |
|  \\    /   O peration     | Version:     4.1                                |
|   \\  /    A nd           | Web:         http://www.foam-extend.org         |
|    \\/     M anipulation  |                                                 |
\*---------------------------------------------------------------------------*/
FoamFile
{
    version     2.0;
    format      ascii;
    class       volScalarField;
    location    "1";
    object      alpha1;
}
// * * * * * * * * * * * * * * * * * * * * * * * * * * * * * * * * * * * * * //

dimensions      [0 0 0 0 0 0 0];

internalField   nonuniform List<scalar> 
2268
(
1
1
0.999999
0.999999
0.999999
1
1
1
1
1
1
1
1
1
1
1
1
1
1
1
1
1
0.999996
0.999999
0.999999
0.999999
1
1
1
1
1
1
1
1
1
1
1
1
1
1
1
1
1
1
1
0.999989
0.999999
1
1
1
1
1
1
1
1
1
0.999996
0.999958
0.999991
0.999998
0.999998
0.999999
1
1
1
1
1
0.999999
0.999979
1
1
1
1
1
1
1
1
1
0.999999
0.9998
0.998394
0.998937
0.999419
0.999757
0.999942
0.999986
0.999999
1
1
1
0.999978
0.999982
1
1
1
1
1
1
1
1
1
0.999986
0.9989
0.991662
0.985419
0.988583
0.996034
0.999133
0.999818
0.999987
1
0.999998
0.999822
0.99818
0.999992
1
0.999998
0.999996
0.999998
0.999998
1
1
1
1
0.99994
0.998054
0.984569
0.957443
0.947244
0.98284
0.995805
0.999297
0.999984
0.999998
0.999714
0.994863
0.98386
0.99971
1
0.999992
0.999975
0.999978
0.999982
1
1
1
0.999978
0.999679
0.9971
0.970936
0.910082
0.876949
0.957238
0.985994
0.998824
0.99993
0.998083
0.984136
0.960957
0.965116
0.998245
1
0.999987
0.999959
0.99998
0.999998
1
0.999999
0.999879
0.998598
0.996096
0.978149
0.850431
0.713225
0.721561
0.870828
0.986298
0.998952
0.99887
0.974521
0.922302
0.926883
0.978892
0.995909
0.977068
0.977068
0.971555
0.924755
0.855086
0.855431
0.894817
0.894817
0.894817
0.894817
0.894817
0.868852
0.936446
0.951581
0.925576
0.952931
0.97813
0.990252
0.987245
0.974337
0.880312
0.73008
0.731804
0.907069
0.855361
0.848518
0.82579
0.799517
0.867405
0.865611
0.839998
0.857032
0.796191
0.719029
0.722318
0.906792
0.978565
0.870483
0.97706
0.856109
0.530321
0.530321
0.729026
0.921766
0.767468
0.450477
0.554839
0.714671
0.647902
0.665035
0.812029
0.762875
0.84816
0.926503
0.962793
0.944699
0.660242
0.977068
0.857094
0.557388
0.631201
0.697186
0.920957
0.545065
0.409321
0.607672
0.594219
0.357277
0.586392
0.590475
0.630258
0.836369
0.975598
0.984051
0.975628
0.784676
0.968017
0.76704
0.870027
0.92475
0.924852
0.92475
0.726764
0.409201
0.603388
0.433681
0.12319
0.624695
0.632848
0.551031
0.551082
0.857476
0.981682
0.986598
0.894488
0.749119
0.80777
0.91865
0.85491
0.774323
0.899246
0.871939
0.45456
0.439039
0.298815
0.0771636
0.358398
0.617567
0.558533
0.5101
0.595957
0.940295
0.989332
0.970522
0.952399
0.951711
0.916979
0.500928
0.686584
0.918387
0.935002
0.58898
0.570865
0.264127
0.0532468
0.0346207
0.224094
0.535163
0.624595
0.657214
0.900986
0.989284
0.98965
0.979382
0.922044
0.59782
0.116853
0.363504
0.849852
0.937385
0.885353
0.508317
0.0705321
0.0180176
0.0109073
0.0205526
0.275567
0.706012
0.870067
0.966906
0.98965
0.98965
0.999874
0.999929
0.999938
0.99996
0.999994
0.999992
0.999813
0.99689
0.981757
0.927146
0.721544
0.407898
0.384648
0.787795
0.95803
0.991414
0.995306
0.975728
0.894106
0.855562
0.941888
0.990058
0.989007
0.998346
0.999622
0.999759
0.999921
0.999975
0.999974
0.999545
0.994508
0.945059
0.63736
0.188059
0.0984279
0.410886
0.754832
0.859353
0.90385
0.912762
0.88166
0.824801
0.858437
0.983014
0.989856
0.956499
0.995729
0.998601
0.999452
0.999708
0.999754
0.999932
0.99972
0.995036
0.9383
0.483603
0.0387549
0.0118658
0.0356865
0.0923108
0.2337
0.404171
0.450363
0.487623
0.445283
0.692154
0.944363
0.944636
0.57721
0.983458
0.996372
0.998021
0.99847
0.998433
0.999724
0.999661
0.995842
0.911682
0.400427
0.0118803
0.00205898
0.000830674
0.00214932
0.00777284
0.0225935
0.0371122
0.0426073
0.045615
0.27503
0.72509
0.800744
0.101367
0.833369
0.937712
0.982633
0.995267
0.997016
0.998226
0.996183
0.982823
0.851131
0.318059
0.0184159
0.000574171
0.000101595
0.00043359
0.00280293
0.00859901
0.0131001
0.00907893
0.00338001
0.0176853
0.178555
0.671663
0.223417
0.229425
0.542529
0.916653
0.990499
0.995654
0.987276
0.912302
0.701071
0.46456
0.18519
0.0246477
0.000584664
1.82589e-05
0.00033325
0.00185131
0.00600061
0.0115499
0.00949154
0.0034697
0.00338001
0.0516778
0.397598
0.588499
0.0529965
0.108523
0.67596
0.989338
0.976185
0.689664
0.334394
0.144152
0.0724566
0.0533938
0.0208212
0.000389465
5.53509e-06
0.000156728
0.00108359
0.00588839
0.0179914
0.0222248
0.0216217
0.0176316
0.0459858
0.251802
0.537861
0.120635
0.105943
0.709633
0.9717
0.621032
0.058281
0.00732515
0.00280116
0.00626008
0.0122002
0.00986401
0.000145214
4.79168e-06
4.00912e-05
0.000272453
0.00115686
0.00480549
0.0214186
0.0429754
0.0537954
0.091074
0.126121
0.116458
0.188073
0.238343
0.70592
0.617796
0.0362513
0.00278731
6.62385e-05
0.000544386
0.00168691
0.00259296
0.00204876
2.2073e-05
5.23504e-06
7.48301e-05
0.00032231
0.000700144
0.000905521
0.00373102
0.00967825
0.0112531
0.00427325
0.00398598
0.0123841
0.191291
0.291077
0.356169
0.0445285
0.00142975
5.75914e-06
2.3472e-05
0.000138192
0.000297859
0.000335539
0.000175257
1.89029e-05
4.95941e-05
0.000337277
0.000881986
0.000999905
9.59322e-05
0.000175722
0.00107882
0.00102003
0.00127282
0.00193179
0.00343086
0.0957872
0.149308
0.0628841
5.5955e-05
1.34835e-06
1.00963e-06
2.52913e-06
1.17769e-05
2.19112e-05
2.14083e-05
1.73054e-05
2.86566e-05
0.000186655
0.000656816
0.00101373
0.000955926
2.61597e-05
8.01661e-05
0.000981645
0.000926759
0.000928489
0.00193596
0.00143052
0.0103498
0.0458239
0.00712932
5.22591e-05
1.00963e-06
1.0099e-06
1.00963e-06
1.01204e-06
1.01806e-06
2.56227e-06
1.79622e-05
7.62464e-05
0.000173414
0.00048189
0.000947917
0.00023778
2.4919e-05
0.000253116
0.00247399
0.00216079
0.00129828
0.000891313
0.00100158
0.00647754
0.018987
0.00075854
8.60732e-05
1.50342e-06
1.00963e-06
1.01204e-06
1.01288e-06
1.01319e-06
2.96892e-06
2.26814e-05
8.32038e-05
0.000228162
0.000375274
0.00014505
2.94722e-05
2.41467e-05
0.000284728
0.00239377
0.00394777
0.00260727
0.000388359
0.000139906
0.00518401
0.0127341
0.000718221
0.0001032
1.66079e-06
1.01204e-06
1.01298e-06
1.01319e-06
1.37109e-06
7.12845e-06
2.8566e-05
5.82166e-05
8.26176e-05
7.80862e-05
2.19352e-05
2.10102e-05
2.23707e-05
0.000127599
0.000937672
0.0037255
0.00257361
0.000368658
4.55451e-05
0.00319617
0.0085963
0.000997946
0.000145505
2.51189e-06
1.14081e-06
1.01333e-06
1.01305e-06
3.08404e-06
1.77076e-05
3.54269e-05
3.41623e-05
3.77e-05
5.28178e-05
2.12317e-05
4.76306e-05
3.99926e-05
5.58345e-05
0.000260914
0.000587783
0.000384345
5.3145e-05
1.66245e-06
0.00139088
0.00449812
0.00323555
0.000224165
9.54078e-06
1.30759e-05
1.01332e-06
1.01342e-06
3.75637e-06
3.3697e-05
0.000110746
3.34574e-05
3.46896e-05
2.76082e-05
2.98247e-05
0.000174208
0.000327648
6.34838e-05
2.67243e-05
2.24115e-05
4.10522e-05
3.67439e-06
2.69632e-08
0.000493382
0.0016549
0.00340607
0.000406617
0.000203649
0.000186691
3.22715e-06
1.01332e-06
4.70323e-06
9.73069e-05
0.000116878
6.02442e-05
7.34055e-05
2.52961e-05
1.4424e-05
0.000160153
0.00101175
0.00054068
7.53524e-05
1.45903e-06
9.08119e-07
7.53936e-08
5.04258e-10
0.00027278
0.000347475
0.00172829
0.000363004
0.000594855
0.001487
6.35133e-05
1.01436e-06
4.26379e-06
7.99514e-05
0.000116878
0.000116878
7.6894e-05
1.42987e-05
1.14006e-05
1.79112e-05
0.00108952
0.00243191
0.00102679
1.88244e-05
1.47584e-06
1.74025e-08
1.40335e-09
0.000313451
0.000100595
0.000264023
0.000120003
0.000413671
0.00306201
0.000224866
2.67718e-06
2.74461e-06
2.2166e-05
0.000101798
0.000117318
5.84517e-05
1.16754e-05
1.14006e-05
1.14006e-05
0.000373618
0.00468962
0.00317803
0.00031407
1.29348e-05
9.14996e-08
4.48453e-09
0.00038528
0.000100943
8.91673e-05
8.94998e-05
0.000308603
0.00310182
0.000685861
3.84981e-05
3.49298e-06
3.8047e-06
3.83703e-05
4.69708e-05
2.10424e-05
1.14006e-05
1.14006e-05
1.14006e-05
0.000311872
0.00565989
0.00458819
0.00103956
3.91776e-05
1.77035e-07
5.45147e-09
0.00182468
0.000401758
0.000111752
8.91673e-05
0.000213
0.0030873
0.00190372
0.000281369
2.13055e-05
7.09665e-06
7.65066e-06
9.83774e-06
1.1652e-05
1.73817e-05
1.44478e-05
3.87674e-05
0.00181246
0.00589738
0.00458648
0.00125346
4.82544e-05
2.37886e-07
5.57508e-09
0.00504622
0.00157123
0.000189078
8.94998e-05
0.000372596
0.00271621
0.00157161
0.000703505
0.000221378
7.1569e-05
1.71017e-05
2.56465e-05
0.000135385
0.000708442
0.000704235
0.00072451
0.00448656
0.00578869
0.00286602
0.000322777
1.0482e-05
4.41897e-07
1.30372e-08
0.00878817
0.00126582
0.000140267
0.000104537
0.00279092
0.00191025
0.000628171
0.000424529
0.000226151
4.79494e-05
5.90163e-05
0.000155371
0.00123991
0.00489581
0.00567969
0.00433162
0.005357
0.0054187
0.00213987
0.000208383
6.30158e-06
7.25966e-07
3.77829e-08
0.0142556
0.000877323
0.000124195
0.000438444
0.00327198
0.00202453
0.000333837
6.89234e-05
5.21193e-05
4.09317e-05
4.0784e-05
8.39423e-05
0.0028406
0.00887275
0.00887277
0.00817456
0.00248025
0.00109178
0.000456901
4.72999e-05
4.95784e-06
1.17395e-06
5.69774e-08
0.0329681
0.000870815
0.000124195
0.0010338
0.00302928
0.00145142
0.000263243
6.19108e-05
9.9652e-05
0.000248997
0.000330992
0.000455634
0.00245102
0.00866524
0.00887275
0.00624943
0.00168576
0.000969318
0.000501381
7.01466e-05
1.25073e-05
1.3856e-06
2.2932e-08
0.0983098
0.000651319
0.000124195
0.0016576
0.00175914
0.00115264
0.000437146
0.000262103
0.000858151
0.00406334
0.00433282
0.00369367
0.00138525
0.00236845
0.00269012
0.00132402
0.00286924
0.00255222
0.000939404
0.00010796
1.47785e-05
5.97056e-07
5.46963e-09
0.2636
0.000830067
0.000391456
0.00249356
0.00443312
0.00450402
0.00449817
0.00252116
0.000652567
0.000197189
0.00012244
9.65733e-05
0.000122529
0.000518183
0.000535838
0.000682259
0.00387596
0.00370874
0.00104798
9.65848e-05
7.02438e-06
1.90872e-07
2.21087e-09
0.27582
0.00270874
0.00276856
0.00262806
0.00136666
0.000517732
0.00039528
0.000452698
0.00032384
0.000119216
9.65733e-05
9.65745e-05
9.65733e-05
9.65841e-05
9.64848e-05
0.00115787
0.00392495
0.00299015
0.000673216
4.84963e-05
3.16878e-06
1.54877e-07
2.49036e-09
0.248777
0.0319768
0.00738267
0.00125986
0.000167311
0.000155895
0.00027432
0.00061057
0.000616879
0.000337307
9.77363e-05
9.65733e-05
9.6574e-05
9.65733e-05
0.000262368
0.00377638
0.00369648
0.00135372
0.000246541
2.23769e-05
2.78171e-06
2.25319e-07
3.12128e-09
0.072494
0.0271352
0.00543705
0.0010903
0.000150693
0.000153631
0.000624473
0.000571995
0.000354059
0.000118057
7.98019e-05
0.000139912
9.65733e-05
0.000114826
0.00239091
0.0040223
0.00189118
0.000177105
2.70572e-05
1.48671e-05
5.36056e-06
4.21914e-07
5.7457e-09
0.00613303
0.00278792
0.00120115
6.53039e-05
4.00006e-05
0.000238915
0.000352118
7.81342e-05
1.6667e-05
1.66486e-05
2.3894e-05
0.000139922
0.000114832
0.000739719
0.00354969
0.00363098
0.00046152
4.27623e-05
3.74855e-05
6.89145e-05
9.26093e-06
4.10895e-07
8.35362e-09
0.000239903
0.000463038
0.000555434
2.83684e-05
2.05756e-05
0.000104031
0.000127696
1.7887e-05
5.51628e-06
5.47256e-06
9.40119e-06
0.000107455
0.000315954
0.00183965
0.00279193
0.00130911
6.73038e-05
5.48977e-05
0.000257434
0.00010767
1.12424e-05
4.79678e-07
4.50539e-08
0.000125068
0.000125068
0.000380453
5.53445e-05
1.27003e-05
6.56918e-05
0.000119307
4.29575e-05
2.03613e-05
5.51628e-06
2.04989e-05
0.000138412
0.000495302
0.000962418
0.00096163
0.000210823
5.99396e-05
0.000106629
0.000376108
0.000148569
1.23927e-05
3.01396e-07
2.84628e-07
0.000126741
0.000194465
0.000194214
3.5675e-05
3.65665e-06
3.04611e-05
8.0716e-05
8.98559e-05
7.05123e-05
1.74481e-05
2.21246e-05
9.10579e-05
0.000203612
0.000122823
0.000101862
2.50466e-05
6.58747e-05
0.000382759
0.000404348
0.000159593
8.58399e-06
2.51586e-07
9.87485e-07
0.00165729
0.00084668
7.88736e-05
5.4861e-06
2.7192e-07
3.18816e-06
3.12797e-05
7.69284e-05
6.76989e-05
2.79358e-05
9.59981e-05
0.000138039
0.00011927
2.68662e-05
2.50173e-05
2.50744e-05
0.000194719
0.000407294
0.000313335
9.62061e-05
9.1174e-06
2.76677e-07
2.44223e-06
0.00868487
0.000674015
8.97682e-06
2.64791e-07
1.23616e-07
1.2515e-08
5.4032e-08
1.72863e-06
7.94209e-06
6.98053e-06
1.11157e-05
7.06318e-05
0.00017733
0.000190078
7.06211e-05
8.33471e-05
0.000329335
0.000275952
6.60591e-05
3.83369e-06
4.06816e-08
1.18401e-07
3.67771e-06
0.011297
0.000288583
1.2201e-06
7.66103e-07
1.73057e-06
1.20114e-08
2.98943e-10
1.71105e-08
1.30253e-07
1.99753e-07
1.99401e-07
3.54367e-06
4.17857e-05
0.000136942
0.000314163
0.000329335
0.000325417
0.000222647
5.37253e-05
3.43991e-06
2.92035e-08
2.11338e-07
3.69396e-06
0.0116258
0.000221254
1.64322e-06
2.41882e-06
5.73792e-06
3.63841e-08
1.03659e-13
5.78509e-14
8.92749e-13
2.40148e-12
8.45977e-12
7.74573e-09
8.70208e-07
1.30189e-05
0.000145759
0.000175799
9.12985e-05
1.15565e-05
3.0108e-07
1.00894e-09
1.36878e-10
1.5387e-08
3.12528e-06
0.00647032
0.000186739
2.25419e-06
3.09625e-06
3.45655e-06
4.04535e-10
1.14099e-13
8.46392e-16
6.38812e-17
5.50431e-17
5.55806e-17
1.09168e-13
8.85655e-10
4.75444e-08
1.24128e-05
2.01239e-05
5.84059e-06
3.40193e-07
2.53418e-09
8.76708e-11
9.02849e-11
9.01473e-09
2.53272e-06
0.00197819
0.000128894
6.78363e-06
9.3483e-06
2.57725e-07
3.59037e-12
1.73939e-13
1.15587e-15
5.33314e-17
5.00757e-17
4.6235e-17
3.72938e-17
1.73585e-14
2.50141e-12
4.22722e-08
1.51485e-07
1.67359e-08
1.03604e-10
1.76594e-11
9.10994e-11
1.78823e-09
1.38561e-07
4.87658e-06
0.000411304
0.000113642
1.18236e-05
9.39357e-06
2.7667e-08
2.27266e-13
2.73197e-14
1.10955e-15
3.57337e-17
2.66343e-17
2.80548e-17
2.3994e-17
2.88899e-16
9.79597e-16
2.08646e-12
1.39045e-11
2.05233e-12
1.8607e-12
1.70434e-11
3.55833e-10
2.93104e-08
4.0594e-07
5.21023e-06
3.81825e-05
6.32896e-05
2.35246e-05
8.11816e-07
3.87704e-12
7.12623e-16
1.53254e-17
4.48953e-18
6.18108e-18
8.73155e-18
9.53526e-18
1.03935e-17
1.79447e-16
2.15534e-15
6.88567e-14
6.78558e-13
1.26662e-12
1.59535e-11
2.41613e-11
4.77455e-10
7.78681e-08
4.76326e-06
3.38666e-06
0.987946
0.990196
0.995102
0.96841
0.930197
0.886021
0.87259
0.339882
0.314358
0.0549892
0.0420059
0.0409631
0.00708827
0.00541287
0.0300056
0.0750764
0.00457801
0.00457598
0.00878921
0.0118029
0.0499231
0.00457268
0.00448367
0.00439842
0.0364669
0.00457598
0.0046096
0.00435549
0.100838
0.0213603
0.00634635
0.0043986
0.0626205
0.0139435
0.00826938
0.00785469
0.00743759
0.00734513
0.00666503
0.00825959
0.00146847
0.00196385
0.00471147
0.00701624
0.00150741
0.0015629
0.00154538
0.00195972
0.00149392
0.00388402
0.00387956
0.00386203
0.000335079
0.00100486
0.0019461
0.00205258
6.54237e-06
1.25476e-05
4.9016e-05
0.000122447
5.43541e-08
1.69515e-07
5.57562e-07
1.48858e-06
8.57324e-11
2.1422e-10
2.86188e-10
6.69183e-10
1.72941e-13
1.72941e-13
1.72941e-13
1.72941e-13
2.04414e-13
7.20846e-13
2.99843e-13
1.73073e-13
1.72941e-13
3.28009e-12
1.68183e-12
2.83589e-13
1.72941e-13
6.09703e-12
3.78196e-12
8.51716e-13
1.72941e-13
7.86097e-12
5.58669e-12
2.8336e-12
1.72941e-13
5.22315e-12
1.89663e-11
1.16062e-10
1.72941e-13
5.57745e-12
5.80899e-11
1.73972e-09
1.72941e-13
6.21309e-12
1.16246e-10
8.47774e-09
1.72941e-13
6.38234e-12
7.52337e-11
1.0854e-08
1.72941e-13
5.93441e-12
3.2138e-11
7.12214e-10
1.72941e-13
4.4037e-11
1.01275e-09
1.64604e-08
2.56331e-11
9.35515e-10
3.42266e-08
1.7682e-07
1.71911e-09
2.41838e-08
3.25028e-07
6.78898e-07
2.02488e-08
3.59947e-07
1.13409e-06
1.13067e-06
1.43492e-07
1.29922e-06
1.28969e-06
7.29678e-07
9.30416e-07
2.07153e-06
1.17855e-06
1.65856e-07
2.9643e-06
2.08271e-06
6.48862e-07
6.7111e-08
3.20499e-06
2.10882e-06
6.14411e-07
6.90745e-08
3.21179e-06
1.84365e-06
5.84524e-07
6.92349e-08
3.66059e-06
2.29601e-06
7.6646e-07
9.97335e-08
2.86474e-06
1.84118e-06
7.39548e-07
1.34062e-07
4.87933e-06
2.94436e-06
1.00058e-06
1.47309e-07
6.00574e-06
4.93249e-06
1.73602e-06
2.26538e-07
5.99177e-06
5.42796e-06
1.90058e-06
1.80056e-07
1.10923e-06
1.13979e-07
1.79684e-09
3.19583e-12
0.75109
0.452892
0.166679
0.0386174
0.136488
0.840905
0.937352
0.937385
0.177201
0.0136327
0.0109073
0.0109081
0.0193788
0.0727302
0.228882
0.716625
0.961552
0.984126
0.98965
0.0478099
0.0422165
0.0294793
0.0283226
0.170773
0.742386
0.914817
0.500258
0.0354504
0.0152679
0.0378686
0.0109073
0.017907
0.0461938
0.158578
0.416385
0.740039
0.878465
0.98965
0.0556236
0.0795526
0.0530782
0.0281926
0.0454286
0.194238
0.328918
0.0415032
0.0210024
0.0392635
0.0548708
0.0255475
0.0180545
0.0629599
0.0857892
0.0940498
0.340033
0.673704
0.98965
0.122056
0.125694
0.124826
0.0646422
0.0548237
0.0376285
0.0374259
0.0210024
0.0211044
0.05477
0.0549375
0.0418974
0.0201255
0.0355033
0.0493985
0.0523546
0.248542
0.577321
0.902697
0.0100527
0.0312986
0.0734278
0.141531
0.143687
0.109491
0.0719496
0.0652163
0.0419505
0.0265379
0.0200259
0.011975
0.0320569
0.0327387
0.0350665
0.0516746
0.24147
0.543872
0.656545
0.00447975
0.00251621
0.00119802
0.00212407
0.0173344
0.0440291
0.0714321
0.0631122
0.0279159
0.007115
0.00345422
0.00648033
0.0138555
0.0266971
0.0228822
0.0399924
0.0364334
0.0790449
0.22829
0.00287901
0.00230465
0.00119273
0.0011827
0.00398718
0.0078405
0.0192561
0.0187363
0.00715775
0.0016069
0.000286376
0.000696298
0.00311661
0.0136831
0.0102717
0.0172778
0.00129153
0.00140536
0.00247742
0.0082708
0.00679133
0.00136531
0.000831718
0.000863203
0.00145725
0.00259406
0.00187968
0.000387262
8.77157e-05
2.21654e-05
0.000294353
0.00177487
0.00493528
0.00365719
0.00622566
0.000244982
0.000288081
0.000469383
0.00826
0.00646486
0.00107727
0.000453115
0.000235626
4.5636e-05
6.46086e-05
2.12601e-05
3.09506e-06
2.21654e-06
2.15733e-05
0.000269683
0.00127352
0.0102328
0.00320794
0.00181158
0.00027451
0.000370148
0.00150797
0.0082708
0.00261268
0.000286575
2.8629e-05
1.70771e-05
1.39981e-06
2.55843e-06
1.50278e-07
1.74103e-07
1.07745e-06
6.05818e-05
0.000164231
0.000358609
0.00874834
0.00379014
0.000653801
9.20815e-05
0.000653456
0.00372624
0.00488946
0.000425649
4.21348e-05
5.18192e-06
1.76021e-06
9.73927e-08
3.02556e-08
9.27654e-09
5.56691e-08
1.37583e-05
0.000555171
0.00129145
0.000699099
0.00300901
0.00557635
0.00115793
8.89557e-05
0.000369996
0.00402355
0.00214415
0.000712922
5.67951e-05
2.05031e-05
1.99497e-06
1.10926e-07
2.14548e-09
2.71151e-09
2.01138e-07
5.94116e-05
0.00114576
0.0024712
0.00181787
0.00258676
0.00568371
0.00250923
0.000201369
0.00011886
0.00258904
0.00158991
0.000481414
0.00010718
8.88821e-05
1.09418e-05
3.72542e-07
1.66371e-09
1.57888e-09
1.26472e-07
7.17568e-05
0.000777642
0.00237021
0.00313231
0.00315757
0.00565744
0.00228924
0.000144807
0.00011813
0.00489481
0.000953689
0.000237586
0.000237687
0.00013672
1.73869e-05
5.19309e-07
1.62864e-09
7.22316e-10
1.04063e-09
1.76765e-06
6.85217e-05
0.00062469
0.00217876
0.00315219
0.00514012
0.000912029
9.06804e-05
0.000729975
0.00760553
0.000257884
0.000265273
0.00022702
5.65669e-05
8.06645e-06
5.2989e-07
5.08662e-09
8.24405e-10
7.94342e-10
6.50004e-09
5.26433e-07
0.000163816
0.00111454
0.00241763
0.00171033
0.000188774
8.79718e-05
0.00283418
0.00798062
8.47802e-06
2.03993e-05
7.84106e-06
3.56302e-06
3.71534e-06
9.67885e-07
1.03151e-07
2.93245e-08
2.02211e-09
3.04508e-09
2.49607e-08
4.63237e-06
0.000269031
0.00144022
0.00167747
0.00164072
0.00112748
0.0028385
0.00753669
6.79213e-09
1.03797e-07
1.69914e-07
1.43463e-06
2.86308e-06
3.70631e-06
1.0812e-06
3.82132e-07
4.27566e-08
3.92495e-09
2.33519e-08
1.07639e-06
6.40457e-05
0.000597453
0.00118164
0.00106547
0.000871655
0.00117666
0.00356808
5.20565e-09
1.58353e-07
3.66574e-07
3.10056e-06
5.67893e-06
5.67956e-06
3.66525e-06
1.31129e-06
3.35469e-07
1.47481e-08
7.3186e-08
2.9785e-06
2.64629e-05
8.9356e-05
0.000145025
0.000129346
0.000119634
0.000128191
0.00084821
1.02317e-08
3.57564e-07
1.19665e-06
2.25602e-06
3.80057e-06
5.67893e-06
5.21713e-06
1.77463e-06
9.19407e-07
1.92205e-07
1.07016e-07
6.41006e-06
6.55402e-05
0.000170936
0.000161162
4.80975e-05
3.93573e-05
3.71991e-05
9.40086e-05
1.05003e-08
3.27968e-07
1.20407e-06
2.2692e-07
2.75374e-07
3.07709e-06
1.52699e-06
6.12785e-07
9.70046e-07
9.52093e-07
1.62029e-07
8.06767e-07
7.26332e-05
0.000251956
0.000324667
0.000334053
0.000380207
6.1753e-05
3.9616e-05
2.32794e-08
2.64235e-07
6.66568e-07
1.32229e-07
3.77476e-08
1.82137e-07
1.22326e-07
4.23676e-08
4.68541e-07
1.10111e-06
7.71972e-07
5.32111e-07
2.33247e-05
0.000194453
0.000229729
0.000619954
0.00079579
0.000403951
5.6467e-05
4.65186e-08
5.09493e-07
4.07204e-07
2.23791e-07
3.39841e-08
1.09472e-08
3.64388e-09
2.71544e-09
4.67443e-09
4.07801e-07
1.15331e-06
5.45361e-07
1.54096e-06
6.33132e-05
0.000115125
0.000248965
0.00079579
0.00079579
0.000117873
5.49555e-08
7.17381e-07
7.19204e-07
3.145e-07
4.82182e-08
3.30632e-09
6.00708e-10
6.37075e-10
6.4841e-10
8.2872e-09
1.11576e-06
4.78144e-07
5.34073e-07
1.21546e-05
4.06569e-05
0.000226865
0.00079579
0.000587353
0.000102002
8.75882e-08
5.37184e-07
2.43871e-07
5.46503e-08
1.13806e-08
1.23145e-09
5.96462e-10
8.48486e-10
6.59786e-10
6.71408e-10
3.26131e-08
3.1797e-07
5.75455e-07
1.90339e-06
7.63684e-06
5.27128e-05
0.000599974
0.000145589
8.87094e-05
1.89514e-07
1.645e-07
5.611e-08
6.3111e-09
1.00324e-09
3.70886e-10
5.26692e-10
4.79788e-09
6.1015e-09
1.91098e-09
1.04799e-08
4.07653e-07
1.16305e-06
4.6456e-07
1.0159e-06
0.000101048
0.000210189
8.28119e-05
0.000196047
1.94055e-07
1.14903e-07
3.79031e-08
3.71055e-09
1.44457e-10
1.23232e-10
3.79304e-10
1.27185e-08
9.60189e-08
4.07062e-08
3.41182e-08
4.51416e-07
1.18093e-06
4.64497e-07
8.21485e-07
0.000216932
7.4706e-05
7.38578e-05
0.000242909
1.40397e-07
2.24583e-07
7.75134e-08
6.8714e-09
1.16643e-10
1.07512e-10
1.10569e-09
1.7567e-08
4.44812e-07
3.41483e-07
2.5584e-07
2.15617e-06
1.71248e-06
4.78347e-07
9.07953e-07
0.000220788
7.62808e-05
7.14673e-05
0.000134097
4.59527e-07
3.13331e-07
5.57392e-08
3.42229e-09
5.58236e-11
1.9228e-10
5.30295e-09
3.35215e-08
9.11574e-07
1.54126e-06
8.97682e-07
3.86368e-06
4.52352e-06
1.10248e-06
1.22816e-06
0.000156766
9.88864e-05
8.07453e-05
4.71461e-05
6.84285e-07
2.39662e-07
1.47454e-08
1.1011e-10
2.43365e-12
7.67558e-10
2.32028e-08
7.73717e-08
1.07689e-06
7.10623e-06
4.17747e-06
3.97758e-06
1.26878e-05
3.30462e-06
3.59858e-06
4.65083e-05
4.26628e-05
0.000159199
4.36792e-05
6.80127e-07
1.02818e-07
3.09985e-09
2.17265e-11
1.95517e-12
3.94872e-09
9.05495e-08
4.10271e-07
2.01643e-06
1.85695e-05
2.63968e-05
8.72378e-06
1.33756e-05
1.32854e-05
4.99775e-06
6.31675e-06
1.72438e-05
0.000159427
3.86667e-05
2.20649e-07
4.66219e-09
5.49219e-11
3.03903e-12
2.0207e-12
1.35456e-08
2.33439e-07
3.10896e-06
4.37138e-06
2.35206e-05
7.51253e-05
2.1777e-05
1.19919e-05
1.04863e-05
2.59156e-06
1.34309e-06
7.43631e-06
0.000101573
6.48118e-05
5.59254e-08
3.65876e-10
1.00733e-11
3.70251e-13
1.28743e-11
3.1404e-08
6.17802e-07
1.49756e-05
3.19568e-05
2.63365e-05
0.000112712
5.37874e-05
6.50835e-06
2.5499e-06
1.34309e-06
1.34309e-06
2.97835e-06
2.85318e-05
3.06831e-05
9.25858e-09
5.24373e-11
2.88993e-12
7.19886e-14
7.99902e-11
4.8462e-08
1.96139e-06
4.00203e-05
0.000103398
0.000108215
0.000124621
0.000103907
4.44023e-06
1.34309e-06
1.34309e-06
1.34309e-06
2.90989e-06
3.84045e-05
3.78636e-05
3.66599e-09
1.79365e-11
5.28657e-13
1.74406e-14
1.8009e-10
5.45767e-08
3.72483e-06
5.74116e-05
0.000124623
0.000124621
0.000124623
4.55957e-05
4.85077e-06
1.46938e-05
6.23554e-05
4.25887e-05
3.09929e-05
7.54659e-05
7.12906e-05
3.60897e-09
1.35252e-11
1.08767e-13
1.65442e-14
2.30365e-10
3.49881e-08
1.18866e-06
1.57055e-05
7.20896e-05
0.00011586
5.44134e-05
2.07601e-05
2.00033e-05
0.000156689
0.000508285
0.000678033
0.000685348
0.000485138
0.0002046
5.76918e-09
2.62309e-11
7.82278e-15
2.41908e-14
1.63084e-10
1.51425e-08
1.91211e-07
1.54713e-06
1.16521e-05
2.5462e-05
2.49226e-05
4.47318e-05
0.000210878
0.000446485
7.52284e-05
0.000294813
0.000481484
0.000426651
0.000220071
8.7363e-09
3.71872e-11
3.6279e-15
6.3281e-14
9.64428e-11
7.35283e-09
6.13939e-08
1.78693e-07
8.48276e-07
6.84985e-06
4.98229e-05
0.000215856
0.000495305
0.0004434
3.95291e-05
2.58945e-05
0.000127808
0.000149976
0.000106319
1.19532e-08
2.88564e-11
3.31604e-15
7.16348e-15
2.5395e-11
2.78542e-09
4.33834e-08
1.73577e-07
7.24998e-07
1.12689e-05
0.000116927
0.000399709
0.000495187
0.000463334
9.02809e-05
4.68079e-06
9.15155e-06
2.03727e-05
1.96832e-05
1.08906e-08
3.82837e-11
3.82726e-15
2.20743e-15
6.32708e-12
1.55636e-09
4.92424e-08
2.68331e-07
8.29511e-07
5.65351e-06
5.5869e-05
0.000214786
0.000348665
0.000224017
0.000118095
1.48603e-05
7.7951e-07
8.77409e-07
1.00867e-06
1.05813e-08
3.18672e-11
3.91101e-15
2.55973e-17
1.39065e-14
1.37045e-11
9.66521e-10
2.02813e-08
2.82702e-07
2.01849e-06
1.33007e-05
3.77769e-05
6.75737e-05
2.40052e-05
6.22506e-05
0.000125984
1.12941e-06
9.25497e-09
1.05956e-08
7.63757e-09
1.17422e-11
3.95736e-16
2.26318e-18
8.28717e-19
6.59126e-15
5.77001e-12
9.18166e-10
3.46722e-08
2.89519e-07
1.11548e-06
9.51086e-07
2.80767e-06
6.83371e-07
1.60749e-06
0.000101271
6.93863e-06
1.39983e-08
1.25462e-09
6.05019e-14
1.70485e-17
1.87196e-21
4.24907e-21
9.91479e-20
3.3895e-19
1.22202e-18
4.39638e-14
1.18788e-10
1.92255e-09
1.20272e-08
9.70537e-10
1.47995e-08
2.05491e-09
1.82065e-08
3.84532e-05
9.09565e-06
1.42533e-08
1.25462e-09
)
;

boundaryField
{
    leftWall
    {
        type            zeroGradient;
    }
    rightWall
    {
        type            zeroGradient;
    }
    lowerWall
    {
        type            zeroGradient;
    }
    atmosphere
    {
        type            inletOutlet;
        inletValue      uniform 0;
        value           nonuniform List<scalar> 
46
(
3.81825e-05
6.32896e-05
2.35246e-05
0
0
0
0
0
0
0
0
0
0
2.15534e-15
0
6.78558e-13
1.26662e-12
1.59535e-11
0
0
0
4.76326e-06
3.38666e-06
1.10923e-06
0
0
0
0
0
0
0
0
0
0
0
1.18788e-10
1.92255e-09
1.20272e-08
0
0
0
0
3.84532e-05
9.09565e-06
1.42533e-08
1.25462e-09
)
;
    }
    defaultFaces
    {
        type            empty;
    }
}


// ************************************************************************* //
