/*--------------------------------*- C++ -*----------------------------------*\
| =========                 |                                                 |
| \\      /  F ield         | foam-extend: Open Source CFD                    |
|  \\    /   O peration     | Version:     4.1                                |
|   \\  /    A nd           | Web:         http://www.foam-extend.org         |
|    \\/     M anipulation  |                                                 |
\*---------------------------------------------------------------------------*/
FoamFile
{
    version     2.0;
    format      ascii;
    class       volScalarField;
    location    "1";
    object      pd;
}
// * * * * * * * * * * * * * * * * * * * * * * * * * * * * * * * * * * * * * //

dimensions      [1 -1 -2 0 0 0 0];

internalField   nonuniform List<scalar> 
2268
(
1106.81
1100.65
1090.6
1075.74
1052.53
1017.59
970.078
918.187
868.688
811.129
771.198
735.198
719.097
720.322
737.294
769.138
798.901
818.45
833.379
847.43
860.836
865.264
861.649
1108.36
1102.23
1092.15
1075.71
1053.01
1020.67
969.781
918.307
867.132
817.361
768.373
730.251
707.762
715.528
735.864
767.883
802.211
819.634
832.628
846.323
862.631
866.735
861.533
1110.15
1104.57
1095.75
1077.98
1054.42
1024.14
972.056
920.392
869.977
815.492
758.513
724.529
706.485
708.909
735.551
765.026
803.568
818.412
836.322
848.556
865.393
867.134
861.138
1113.38
1107.57
1100.58
1076.51
1056.4
1020.71
976.213
919.115
880.7
810.928
753.609
712.727
691.678
695.436
729.845
770.506
804.376
822.692
831.129
858.02
865.316
869.817
859.99
1117.7
1111.01
1104.93
1086.98
1067.28
1025.17
977.751
924.434
877.716
811.883
746.718
696.338
664.729
679.54
715.38
759.103
804.017
822.261
837.712
853.926
870.23
868.384
858.675
1123.13
1115.86
1108.33
1087.3
1070.54
1029.5
979.941
930.707
875.734
814.668
738.154
674.36
630.082
633.184
699.649
756.616
807.5
822.377
842.711
858.582
872.042
867.445
856.938
1129.42
1121.92
1115.85
1094.44
1074.19
1039.48
981.781
941.503
882.236
820.139
732.373
650.19
594.294
586.588
678.498
739.146
808.996
818.536
842.579
856.944
862.414
854.554
850.907
1136.3
1129.49
1121.15
1102.81
1079.05
1041.63
980.291
948.606
887.616
815.001
704.478
578.957
489.111
506.138
650.959
713.472
810.672
804.427
840.032
832.064
847.882
848.246
839.785
526.625
444.014
406.468
446.367
494.057
473.407
425.763
353.529
323.758
313.419
307.053
326.321
354.859
373.482
420.193
462.101
520.714
561.908
575.919
522.599
424.452
378.479
431.055
496.355
485.186
422.34
335.735
300.626
297.921
287.451
320.027
347.945
369.092
401.904
447.874
520.963
565.348
568.202
504.836
417.808
356.726
398.638
475.643
489.68
418.432
295.056
273.278
273.774
250.914
291.244
330.671
365.464
416.766
465.667
539.566
569.429
552.183
517.119
423.496
360.673
419.071
459.698
497.526
379.904
280.556
282.863
250.943
180.516
264.972
289.869
331.452
410.485
476.653
556.117
589.082
574.895
534.068
427.157
407.826
475.714
490.737
492.781
413.833
269.995
291.482
212.208
117.415
273.791
296.042
305.576
341.643
452.17
562.347
606.196
609.321
486.622
461.566
441.868
412.927
427.576
479.757
467.013
276.58
250.913
173.377
92.4606
181.493
284.775
299.934
325.706
383.881
562.582
620.865
647.333
549.658
531.695
450.1
249.795
382.084
462.307
495.002
348.518
302.282
156.612
73.552
63.8714
140.26
291.425
373.341
412.827
556.861
633.073
668.418
542.548
534.684
313.455
88.3277
218.261
477.986
546.271
520.2
283.509
76.4864
55.9842
52.2545
56.2711
177.45
407.847
511.809
590.12
657.152
691.641
1149.1
1141.17
1134.65
1112.53
1087.46
1063.17
1020.4
970.276
901.809
786.313
569.418
342.317
325.929
578.263
676.981
758.118
806.25
796.543
771.294
794.005
847.277
869.86
823.229
1171.12
1172.33
1148.65
1148.31
1104.7
1088.87
1037.7
987.391
867.355
587.374
193.223
107.343
330.319
538.366
643.857
723
749.374
731.73
713.256
759.227
785.864
781.607
746.924
1196.89
1195.56
1195.9
1172.61
1138.17
1108.88
1061.93
1015.5
912.531
428.486
53.7159
24.1033
39.8058
84.6323
206.104
354.449
402.108
441.181
399.311
618.951
850.234
858.623
503.592
1201.34
1221.86
1196.61
1213.38
1176.84
1164.18
1116.38
1068.27
902.359
386.224
22.4997
10.6285
8.70393
9.17193
13.4011
29.8776
51.9812
56.2505
57.3321
272.742
740.407
775.511
108.908
1084.49
1183.8
1254.1
1244.05
1247.31
1199.67
1169
1108.73
951.892
344.245
27.0944
7.29643
6.75951
6.89699
9.61138
15.8268
25.9192
21.0202
13.9808
27.6269
199.762
682.265
237.998
419.875
792.657
1228.89
1306.14
1279.65
1240.57
1125.03
858.376
564.039
222.519
33.6633
5.41865
5.35361
5.74673
7.49805
12.3297
20.3551
19.2246
13.051
11.9799
66.3152
461.065
693.543
204.466
270.515
1002.93
1372.94
1322.07
923.9
448.87
192.582
96.2063
66.8322
27.5745
3.76012
4.15916
4.27853
5.23577
11.7303
27.4502
34.6913
35.4146
28.8726
61.0568
315.85
697.386
289.213
263.981
1095.39
1440.84
907.89
84.5713
8.95214
2.31993
6.00775
12.8782
12.5371
1.93098
3.04719
3.01656
3.1793
4.1306
8.93072
32.5815
63.4079
79.3811
133.321
188
165.437
378.644
442.96
1144.12
971.061
56.5948
3.43134
-1.41093
-0.852759
0.17005
0.411133
1.71579
0.989705
1.72611
2.08084
2.39317
2.84443
2.81405
7.06161
15.9482
18.2063
7.21123
6.82313
17.6084
364.096
502.788
589.388
74.7885
1.43881
-0.80518
-1.27341
-0.960321
-1.24094
-1.63479
-0.626608
0.0211243
0.631014
1.80398
2.61245
2.82236
1.06937
1.03617
2.42188
2.15264
2.32646
3.08322
5.57264
183.67
269.222
112.167
-0.467817
-0.554982
-0.681871
-0.795819
-0.850255
-1.21808
-1.30113
-0.782032
-0.348141
0.172518
1.41558
2.30576
2.21521
0.557977
0.541357
2.15714
1.87955
2.00684
3.61353
2.92765
22.7559
89.0001
14.0961
0.130072
0.00655731
-0.368054
-0.509538
-0.517138
-0.862479
-0.996236
-0.937831
-0.53097
-0.255294
0.567739
1.48834
0.340152
0.0539357
0.590402
4.82956
4.12923
2.58108
2.00935
2.34356
14.4154
39.3378
1.80086
0.274523
0.176953
-0.132
-0.316477
-0.475245
-0.807176
-1.08373
-1.16849
-1.01592
-0.530025
-0.282832
-0.377679
-0.342498
-0.24175
0.304226
4.46237
7.97249
5.31846
1.01711
0.678113
11.7951
28.0028
1.8394
0.424376
0.168492
0.135096
-0.0870636
-0.578377
-0.953606
-1.34739
-1.64938
-1.55419
-1.37197
-1.27333
-1.12529
-0.795017
-0.759277
-0.492875
1.15118
7.06314
5.19023
0.932422
0.393578
8.04974
20.2504
2.43259
0.515282
0.109001
-0.0234827
-0.279003
-0.80098
-1.0965
-1.3496
-1.9258
-2.16413
-1.90432
-1.65099
-1.31723
-1.07374
-1.03423
-0.664248
0.093831
0.885473
0.684805
0.288048
0.360615
3.9278
11.3646
7.70865
0.470646
0.0621492
0.0187325
-0.24699
-0.791232
-1.46552
-1.77098
-1.754
-2.30572
-2.35194
-2.06972
-1.6552
-1.17712
-0.513054
-0.41905
-0.0154058
0.224147
0.286516
0.332836
0.42998
1.76454
4.6883
8.95967
0.790761
0.527108
0.395085
-0.237136
-0.692567
-1.29715
-1.5597
-1.8579
-2.28962
-2.60606
-2.47837
-1.95327
-1.50541
1.25522
1.14787
0.627627
0.50032
0.513
0.562083
0.57642
1.1989
1.38533
4.88666
0.999366
1.73361
3.79001
-0.153201
-0.638796
-1.1929
-1.47464
-1.80399
-2.17381
-2.4164
-2.47372
-2.05852
-1.69737
1.8112
6.31865
3.52674
0.468702
0.532827
0.63502
0.673955
1.28063
0.621634
0.902253
0.265459
0.989784
8.31321
0.270838
-0.683138
-0.899439
-1.56898
-1.42999
-1.72391
-1.88493
-2.0294
-2.10479
-1.59268
0.27422
12.4171
9.09729
1.37111
0.651207
0.622779
0.588437
1.53085
0.608064
0.431246
0.22281
0.772743
9.06435
1.84825
-0.652082
-1.01205
-1.06088
-0.823798
-1.08091
-1.31732
-1.36946
-1.6077
-1.37859
0.200852
16.2419
13.9697
3.6289
0.850115
0.704005
0.626127
5.97829
1.61118
0.521424
0.221576
0.45767
9.29611
5.35272
0.308948
-0.429229
-0.388361
-0.521264
-0.753398
-0.928611
-0.92653
-1.16917
-1.05118
4.97697
18.2784
14.7454
4.51007
0.927906
0.763492
0.711257
16.4012
4.9045
0.555575
0.417054
1.25735
8.49547
4.88311
2.15001
0.63886
-0.0155907
-0.35542
-0.451165
-0.268053
1.59527
1.52239
1.26211
12.9272
18.5511
10.0619
1.77375
0.765407
0.719664
0.690976
28.5087
3.70033
0.666235
0.802093
9.61003
6.5759
2.41932
1.54398
0.803341
0.0222407
-0.0717475
0.114289
3.36406
15.3153
18.3255
14.1138
17.7076
18.3285
7.78821
1.45264
0.803976
0.725024
0.671142
49.612
2.97665
1.15785
2.09556
11.7027
7.23688
1.44366
0.468636
0.316209
0.0981071
-0.0108634
-0.105406
8.77
29.56
30.1324
29.4586
9.29081
4.30162
2.11263
0.7943
0.649089
0.637856
0.638324
118.556
3.33016
1.39694
4.32575
11.1962
5.59216
1.21798
0.498377
0.439128
0.871643
1.25986
1.48497
8.42544
30.9342
31.6931
22.9385
7.1243
4.33571
2.56676
0.945921
0.635309
0.627336
0.593346
360.881
2.82663
1.49097
6.56904
7.16251
4.65726
2.02873
1.32023
3.24105
14.524
15.6896
13.4361
4.81494
8.86947
9.3974
4.94549
11.5307
10.0118
4.12801
1.06932
0.714142
0.567968
0.517276
1001.79
3.62858
2.7476
10.1447
17.984
17.7149
17.5174
9.88067
2.46598
-0.0634205
-0.80835
-0.301695
-0.0603385
1.42672
1.78544
2.856
15.2558
14.6198
4.36774
0.857172
0.582807
0.489301
0.454614
1080.88
11.1579
11.8871
10.7881
5.89055
2.42618
1.79844
1.86872
0.915609
-0.417047
-0.54768
-0.589185
-0.646794
-0.269309
0.106932
4.56044
15.5327
11.8852
2.98296
0.660818
0.435883
0.425304
0.417348
1011.42
128.671
30.3877
5.51834
1.10716
0.927693
1.21692
2.4329
2.10469
0.674273
-0.479419
-0.723018
-0.730786
-0.406233
0.673974
15.0633
14.8843
5.6946
1.37538
0.573759
0.454145
0.373247
0.37647
304.89
113.37
22.914
4.84067
0.920609
0.897626
2.70712
2.23374
1.06822
-0.207435
-0.517457
-0.383214
-0.52069
-0.277658
9.50632
16.4378
7.73366
0.95359
0.458442
0.457035
0.338017
0.306451
0.275449
26.4261
11.6892
5.17103
0.369708
0.299471
1.17724
1.35115
0.0995962
-0.441092
-0.613554
-0.68759
-0.234857
-0.305019
2.50874
14.4718
14.957
1.52606
0.0204833
0.285247
0.497272
0.198143
0.194883
0.220113
0.852442
1.85098
2.28825
0.144213
0.113262
0.469889
0.43703
-0.223753
-0.450533
-0.550851
-0.694666
-0.279329
0.67152
7.59748
11.446
5.17389
-0.184533
-0.0432284
0.924593
0.463991
0.115376
0.0914491
0.136163
0.457844
0.43538
1.59966
0.190015
0.000267705
0.186843
0.378877
-0.0810965
-0.207708
-0.472615
-0.508434
-0.0616609
1.54323
3.93098
4.08741
0.52772
-0.144615
-0.136092
1.21336
0.559898
-0.00661527
0.0197079
0.0578567
0.603942
0.860507
0.812415
0.123534
-0.0744259
0.0374371
0.250671
0.208855
0.0352719
-0.290631
-0.364945
-0.0830126
0.352211
0.0472333
-0.0693781
-0.450652
-0.44194
1.00141
1.33734
0.413574
-0.077363
-0.0080186
0.0296071
7.87015
4.02862
0.350877
0.0107065
-0.0715365
-0.112254
0.00645888
0.15709
0.112167
-0.111013
0.211663
0.373202
0.209998
-0.272944
-0.288762
-0.452259
0.177427
1.29521
0.988955
0.190005
-0.0987566
-0.0819736
0.0164118
42.4019
3.18411
0.0134024
-0.0392022
-0.0671254
-0.0975948
-0.106799
-0.143259
-0.144652
-0.153819
-0.123808
0.213923
0.697495
0.807448
0.234029
0.142175
0.913417
0.852053
-0.0907064
-0.253408
-0.128598
-0.0745406
-0.0212586
56.8654
1.39882
-0.0330775
-0.0398131
-0.0436836
-0.0786013
-0.118997
-0.121408
-0.112647
-0.101946
-0.0833002
-0.03202
0.169681
0.681068
1.64845
1.63831
1.3601
0.822635
0.0293703
-0.169038
-0.0653689
-0.0477283
-0.0416395
59.8412
1.01529
-0.10641
-0.0638772
-0.0176747
-0.10055
-0.0501892
-0.122761
-0.0796136
-0.0677048
-0.0404064
-0.0239136
0.0277378
0.108065
0.818355
0.878621
0.295234
-0.124689
-0.0765855
-0.0718843
-0.0407569
-0.00245202
-0.0476942
34.0171
0.831129
-0.0231837
-0.0361961
-0.0307286
-0.0746473
-0.0594886
-0.040123
-0.0581575
-0.0485229
-0.0266243
-0.0171538
0.00802643
0.0491156
0.160142
0.141196
0.0187005
-0.0599421
-0.0339561
-0.0678274
-0.0304023
-0.00822279
-0.000794741
10.6525
0.631333
0.0549461
-0.0383296
-0.0499895
-0.0315788
-0.0454743
-0.0580093
-0.0152174
-0.0198513
-0.00780306
-0.0149082
0.0163025
0.0173135
0.0397932
0.0652749
0.0694867
-0.0426502
-0.0363358
-0.0620217
0.00262998
0.0170676
-0.0333479
2.09699
0.406772
0.00255332
-0.0316789
-0.0810186
-0.0453616
-0.0359467
-0.0505681
-0.0597969
-0.0181866
-0.0275564
-0.0100666
0.00710434
0.0191815
0.0309466
0.0539399
0.0377709
0.00924053
-0.0217351
-0.0180851
-0.0157795
-0.0394514
-0.0109819
-0.0211254
0.0936101
0.0104576
-0.0708368
-0.0473753
-0.0868875
-0.0765137
-0.0357479
-0.0235698
-0.0302985
-0.00490728
-0.0061121
0.00302226
0.00885896
0.0244714
0.0112589
0.0122766
0.0230545
-0.0113119
-0.00523905
-0.0237595
-0.00223446
0.00954196
765.118
755.621
741.352
698.996
688.744
649.609
648.543
290.351
276.339
66.5424
57.7753
60.2547
19.9913
18.0375
40.3371
80.8841
13.1879
12.2931
14.8568
16.4728
63.3163
9.57623
8.71926
8.4954
50.6957
10.163
9.7473
9.10079
145.362
33.5186
12.1208
9.29833
95.0292
22.364
14.5738
14.2765
12.6066
12.9584
12.3724
14.9361
3.29012
4.26821
9.30012
13.4356
3.50041
3.68133
3.6102
4.44397
3.39925
8.24979
8.42978
8.46775
1.07456
2.61083
4.69502
5.00227
0.413526
0.469925
0.569653
0.798765
0.456907
0.492067
0.522851
0.554109
0.599644
0.545475
0.572728
0.577148
0.659823
0.662277
0.651264
0.665517
0.600942
0.638275
0.674877
0.665377
0.574928
0.572369
0.586903
0.608221
0.674413
0.637154
0.616213
0.57344
0.672513
0.657603
0.630147
0.606169
0.636612
0.618601
0.601618
0.605847
0.615948
0.596744
0.551342
0.533163
0.559839
0.559879
0.546341
0.511142
0.504306
0.491062
0.498968
0.498173
0.466876
0.443265
0.430109
0.441381
0.380583
0.370786
0.350401
0.355848
0.333139
0.328396
0.328047
0.331527
0.280905
0.256576
0.259348
0.25326
0.227405
0.227104
0.228367
0.236655
0.140908
0.158117
0.164334
0.168118
0.0765275
0.105883
0.122082
0.128881
0.0793442
0.0759872
0.0887888
0.100894
0.0334399
0.0379017
0.0463461
0.0450686
0.033149
0.0325867
0.0446089
0.0518
0.0336868
0.0532624
0.0402254
0.0614704
-0.0186046
0.0156886
0.00390491
0.00512318
0.0591985
0.0574826
0.042798
0.00895527
0.001145
0.0439801
0.0190832
0.0145289
0.0930348
0.0849989
0.0775954
0.0373826
0.0058998
-0.00279007
-0.0163561
-0.0218078
498.741
312.884
126.233
52.0846
110.513
500.963
598.102
591.722
140.208
49.2022
50.6287
49.1701
54.1262
86.3174
182.791
481.041
643.97
678.485
722.398
82.3419
62.7267
42.1975
39.3994
140.327
543.329
645.797
376.428
54.1642
46.9902
64.0284
45.567
50.0518
71.5229
147.917
336.914
590.351
719.972
802.224
74.1341
86.5761
60.9545
44.1137
55.4202
178.588
285.037
51.612
38.0415
55.9313
71.9764
49.7504
44.3231
81.5851
99.0796
112.546
314.793
623.946
880.65
123.647
128.852
117.606
68.7405
67.8388
49.4487
51.3519
35.9778
35.6259
64.081
66.6707
56.5024
42.4111
56.3764
67.9985
77.7631
248.312
580.008
869.406
14.3251
38.0018
82.4151
157.429
159
123.758
82.4859
77.483
51.5823
35.3686
28.467
24.7158
50.4008
52.9581
55.5191
73.7796
259.857
593.599
708.97
8.13372
5.69728
3.86557
4.65745
22.9745
55.0091
88.4151
78.1977
36.5715
11.8758
7.57672
11.2947
23.1826
39.2733
36.1995
54.9489
44.4013
96.2918
280.105
6.69943
5.56328
3.71143
3.28533
6.77992
11.9593
26.3665
26.2717
11.0551
4.27069
2.53209
2.99725
6.8658
20.9663
15.0309
22.6323
1.66569
1.81345
3.88158
14.3745
11.5329
3.55796
2.70924
2.40652
3.23857
4.91948
3.88097
1.90854
1.71161
1.69801
2.07309
4.06502
8.65077
5.76157
8.54552
-0.0450178
0.102575
0.68637
14.4059
11.226
2.94467
1.88251
1.46862
1.16442
1.14926
1.19596
1.27432
1.43787
1.56085
1.90529
3.35897
16.7472
4.98073
2.40819
-0.0255829
0.17658
2.2563
15.0369
5.37047
1.54786
1.10989
1.12528
1.06721
1.06625
1.15806
1.24393
1.34453
1.56893
1.72679
1.82915
15.1139
6.50778
1.09583
0.0671129
1.00914
6.26486
9.62349
1.62571
1.0096
0.974265
0.991175
0.993312
1.06652
1.11952
1.15619
1.21963
2.35364
3.37389
2.05988
5.68644
10.236
2.25022
0.266393
0.814342
7.45743
4.95593
2.16719
0.935922
0.889548
0.862496
0.914365
0.974904
0.988639
1.03362
1.15364
3.24427
5.26522
3.92748
4.48965
10.5192
4.81142
0.709215
0.506638
5.31631
3.86916
1.68969
0.917434
0.931629
0.917618
0.862688
0.911815
0.870937
0.929653
1.0616
2.3823
5.62131
6.54481
5.53557
11.2961
5.09868
0.757402
0.712931
10.4059
2.64477
1.18459
1.19327
1.02853
0.856658
0.829639
0.843164
0.862301
0.850794
0.787555
0.846485
2.01389
4.96644
6.38679
11.2647
2.82711
0.754341
2.14569
16.9001
1.15828
1.29384
1.19548
0.85404
0.776194
0.787338
0.79744
0.795303
0.794879
0.752069
0.675398
0.93409
3.00172
5.82207
4.41681
1.10921
0.867506
7.21732
19.2132
0.597528
0.703942
0.701222
0.725695
0.733405
0.753959
0.757852
0.758357
0.758192
0.724293
0.68759
0.643272
1.20143
4.01976
4.65541
4.54235
3.51608
7.6993
19.2856
0.650397
0.654716
0.607969
0.704601
0.695665
0.725571
0.721267
0.723124
0.720431
0.685321
0.654042
0.619928
0.746421
2.04539
3.59008
3.33242
2.84207
3.62661
9.6197
0.642173
0.645506
0.631752
0.677737
0.681714
0.693032
0.699868
0.697698
0.703848
0.683077
0.666649
0.642019
0.657245
0.787104
0.914184
0.865098
0.874653
0.851671
2.76661
0.645476
0.631787
0.622734
0.63811
0.660974
0.674287
0.666155
0.673997
0.67296
0.660206
0.654559
0.646536
0.736059
1.0454
0.95529
0.662562
0.660387
0.582448
0.657769
0.632605
0.648379
0.598365
0.594472
0.605823
0.634437
0.640435
0.634646
0.653138
0.639718
0.654222
0.626281
0.79645
1.23691
1.3275
1.47832
1.65072
0.640573
0.579508
0.537038
0.543501
0.629205
0.584686
0.585768
0.59262
0.610172
0.551951
0.604658
0.594592
0.602969
0.59867
0.602464
1.04943
1.04322
2.2312
2.88762
1.68535
0.601726
0.573398
0.530247
0.539818
0.556356
0.551707
0.53795
0.576615
0.575321
0.554008
0.540513
0.57425
0.571317
0.492188
0.618224
0.68643
1.07057
2.74794
2.89496
0.765389
0.604261
0.530493
0.478086
0.508889
0.505112
0.485226
0.454225
0.522779
0.516648
0.533524
0.464978
0.520176
0.502859
0.358998
0.360801
1.02715
2.84284
2.22543
0.692368
0.511411
0.540002
0.496103
0.465873
0.42001
0.415355
0.42174
0.346516
0.453271
0.471995
0.450674
0.502911
0.438819
0.28173
0.347241
0.463498
2.3268
0.784735
0.65826
0.476927
0.43468
0.446507
0.442733
0.458786
0.447324
0.397962
0.306737
0.350679
0.315913
0.248296
0.397366
0.358122
0.22009
0.305597
0.714653
1.09199
0.5995
1.04072
0.471859
0.453558
0.414619
0.406438
0.366242
0.383409
0.372923
0.238881
0.265551
0.193843
0.0986108
0.255236
0.204053
0.177331
0.35047
1.11562
0.581223
0.59795
1.2293
0.426261
0.414332
0.397109
0.425287
0.424096
0.399495
0.419564
0.214139
0.202568
0.197167
0.0354734
0.0917946
0.179071
0.235994
0.27562
1.10168
0.549664
0.569268
0.810077
0.334521
0.356758
0.352131
0.244151
0.243336
0.2169
0.268687
0.158029
0.0969247
0.0669708
0.0724993
0.0111054
0.111627
0.167533
0.162043
0.839036
0.622691
0.603875
0.480652
0.285623
0.241015
0.193754
0.156923
0.11665
0.116819
0.158868
0.0845569
0.00783899
-0.0329126
-0.0758411
-0.07835
0.109009
0.168506
0.176392
0.458643
0.444785
0.927459
0.463766
0.253655
0.246188
0.211934
0.189997
0.201597
0.177435
0.0464792
-0.00628951
-0.114787
-0.0616966
-0.0513813
-0.0826
0.0619269
0.126822
0.247413
0.300863
0.326251
0.904808
0.430261
0.225927
0.169946
0.129815
0.0964511
0.115347
0.0252258
-0.20542
-0.106381
-0.152132
-0.0441941
0.154752
-0.0368057
0.00111774
0.132643
0.235398
0.304594
0.292496
0.696911
0.556453
0.180587
0.165334
0.171649
0.206902
0.12542
0.0227642
-0.152941
-0.0946168
-0.0632845
-0.115501
0.300162
0.0834842
-0.0275527
0.0958645
0.258256
0.131441
0.175804
0.341364
0.368351
0.155027
0.16246
0.252313
0.171652
0.127635
0.0334711
0.0238021
-0.0129615
0.195535
0.189306
0.364738
0.266843
-0.041378
0.0861146
0.102604
0.145857
0.146147
0.393093
0.3985
0.103563
0.119548
0.0488659
0.150885
0.110784
0.0993584
0.0235099
0.198907
0.391917
0.272563
0.40093
0.0863838
0.079446
0.203125
0.471116
0.396142
0.433747
0.524894
0.560124
0.0740989
0.0871615
0.031424
0.104817
0.123126
0.0879459
0.0188047
0.0482158
0.244954
0.458814
0.115563
-0.0210758
0.0713117
0.929661
2.64641
3.45732
3.44405
2.51536
1.17616
0.0701196
0.0834947
0.14028
0.0889892
0.107438
-0.0355431
0.0336743
-0.0590686
-0.00502914
0.191114
0.0797674
0.160387
1.06302
2.30325
0.436988
1.47512
2.37442
2.0852
1.14862
0.078278
0.0899686
0.102352
0.0916928
0.0653221
0.0881498
0.0567341
0.0906081
0.0171671
0.101767
0.268583
1.01824
2.49267
2.2549
0.24236
0.123997
0.638634
0.776723
0.583468
-0.00107444
0.0691231
0.0998086
0.118741
0.0991334
0.123932
0.0483638
0.104797
0.0617166
0.0461455
0.589475
1.95611
2.50033
2.41494
0.462298
0.0219387
0.0339215
0.111503
0.192635
0.0445061
0.0475986
0.105306
0.0311553
0.0970508
0.0764549
0.105766
0.0951713
0.0936354
0.0835951
0.265363
1.06763
1.74132
1.15781
0.650814
0.069858
0.0183248
-0.0111138
-0.0384466
0.022863
0.0303467
0.0165007
0.0463163
0.0505703
0.0391314
0.0927659
0.0385914
0.0853452
0.0409624
0.100812
0.172295
0.340849
0.103899
0.371775
0.740912
0.0534713
0.0225634
-0.0408358
0.0273061
0.0485753
0.01356
0.00747501
0.0326499
0.043218
0.047061
0.0460965
0.06114
0.0188687
0.0171058
-0.00859378
0.00927736
-0.0191575
0.0107976
0.557459
0.111006
0.0604051
0.0839843
0.00160977
-0.0212266
-0.0101847
-0.00137617
-0.0205296
-0.00463076
0.00832202
0.0115889
0.0286308
0.0177848
0.018201
0.00216878
-0.0163146
-0.00207368
-0.0235558
0.185766
0.0220368
0.023459
0.0326736
)
;

boundaryField
{
    leftWall
    {
        type            zeroGradient;
    }
    rightWall
    {
        type            zeroGradient;
    }
    lowerWall
    {
        type            zeroGradient;
    }
    atmosphere
    {
        type            totalPressure;
        rho             rho;
        psi             none;
        gamma           1;
        p0              uniform 0;
        value           nonuniform List<scalar> 
46
(
0
0
0
-0.0772829
-0.0780842
-0.0665837
-0.0508745
-0.0364589
-0.0317412
-0.0173137
-0.0102298
-0.00196749
-0.000348518
0
-6.97397e-05
0
0
0
-0.00347129
-0.00725333
-0.00695682
0
0
0
-3.44956e-07
-0.00272343
-0.00909325
-0.0107964
-0.0245229
-0.0332977
-0.0325596
-0.0276965
-0.0179685
-0.00820338
-0.00224588
0
0
0
-0.000495941
-0.000246823
-0.00956254
-0.017371
0
0
0
0
)
;
    }
    defaultFaces
    {
        type            empty;
    }
}


// ************************************************************************* //
