/*--------------------------------*- C++ -*----------------------------------*\
| =========                 |                                                 |
| \\      /  F ield         | foam-extend: Open Source CFD                    |
|  \\    /   O peration     | Version:     4.1                                |
|   \\  /    A nd           | Web:         http://www.foam-extend.org         |
|    \\/     M anipulation  |                                                 |
\*---------------------------------------------------------------------------*/
FoamFile
{
    version     2.0;
    format      ascii;
    class       volVectorField;
    location    "1";
    object      U;
}
// * * * * * * * * * * * * * * * * * * * * * * * * * * * * * * * * * * * * * //

dimensions      [0 1 -1 0 0 0 0];

internalField   nonuniform List<vector> 
2268
(
(0.00023979 0.00594965 0)
(-0.0129387 0.00228111 0)
(0.00549636 -0.000852559 0)
(0.00214299 -0.0113561 0)
(0.0169239 0.00131718 0)
(-0.0106472 -0.00684546 0)
(-0.00708865 -0.00851701 0)
(0.0129616 -0.0130988 0)
(0.0461601 -0.0226349 0)
(0.101888 -0.0172326 0)
(0.121749 0.00252789 0)
(0.13991 -0.00530615 0)
(0.164649 0.00866761 0)
(0.151386 0.00722373 0)
(0.104875 0.00922207 0)
(0.0671852 -0.00190361 0)
(0.0564312 -2.69026e-05 0)
(0.0350566 0.00101458 0)
(0.0110958 0.00235656 0)
(-0.00526405 -0.00554579 0)
(-0.0186028 -0.00377306 0)
(-0.00437231 -0.00606921 0)
(0.0254054 0.00305809 0)
(0.00983119 0.000284002 0)
(0.000487577 -0.00449015 0)
(0.0196058 -0.00643509 0)
(-0.00654046 0.00466543 0)
(0.0142112 0.0017264 0)
(0.000296919 0.0182335 0)
(0.00517033 0.0025035 0)
(0.0240133 -0.0140755 0)
(0.0644701 -0.0257223 0)
(0.0759154 -0.0410893 0)
(0.111179 -0.0221747 0)
(0.13525 -0.0138124 0)
(0.148246 -0.0206698 0)
(0.126989 0.0190916 0)
(0.0642768 0.0307768 0)
(0.0474015 0.0241026 0)
(0.0330141 0.0164014 0)
(0.0027207 0.0218602 0)
(-0.0067987 0.0155763 0)
(-0.0166969 0.0179859 0)
(-0.0236853 0.00375135 0)
(-0.0073615 -0.0145207 0)
(0.0225905 0.00773734 0)
(0.00803591 0.00184075 0)
(-0.012517 -0.00238918 0)
(-0.00361646 -0.00260853 0)
(-0.023153 -0.00562678 0)
(-0.00551546 -0.00051039 0)
(-0.01623 -0.00931791 0)
(-0.0118994 -0.0196013 0)
(0.00526313 -0.0414713 0)
(0.0218781 -0.0304301 0)
(0.0236198 -0.0543391 0)
(0.087686 -0.0317123 0)
(0.0922747 -0.0205285 0)
(0.129203 0.026875 0)
(0.117262 0.0473629 0)
(0.0498951 0.0549607 0)
(0.0232191 0.0302081 0)
(-0.0200681 0.0111252 0)
(-0.0373727 0.0175484 0)
(-0.0347191 0.0179128 0)
(-0.0435552 0.0127422 0)
(-0.0410658 0.00494099 0)
(-0.0136633 -0.0310241 0)
(0.0258428 0.0113003 0)
(-0.00352899 0.00259536 0)
(-0.00815456 0.00418067 0)
(-0.00889671 0.00158054 0)
(-0.0168386 0.00319186 0)
(0.00526596 -0.00180493 0)
(-0.0176453 0.00453107 0)
(-0.0183638 -0.00729571 0)
(-0.00262575 -0.00269499 0)
(-0.0142115 -0.0240773 0)
(0.0132239 -0.0578207 0)
(0.0656301 -0.0660606 0)
(0.0789414 -0.0361467 0)
(0.108173 0.0270479 0)
(0.0945841 0.0294678 0)
(0.0354346 0.0676596 0)
(4.59661e-05 0.07429 0)
(-0.0420582 0.0226311 0)
(-0.085847 0.0255944 0)
(-0.0872352 0.0209421 0)
(-0.0740712 -0.00481674 0)
(-0.0554146 -0.000604465 0)
(-0.0220603 -0.04318 0)
(0.0365086 0.0139636 0)
(-0.00422782 0.00694123 0)
(-0.0085856 0.0010896 0)
(0.000445306 -0.00929046 0)
(-0.0195746 -0.0018621 0)
(-0.00289024 0.00244759 0)
(-0.0497003 0.00542361 0)
(-0.051 -0.020711 0)
(-0.0330031 -0.0304084 0)
(-0.0462571 -0.0554954 0)
(0.0121252 -0.0721369 0)
(0.0428602 -0.0760399 0)
(0.0576181 -0.0391616 0)
(0.0928552 0.0143952 0)
(0.0944378 0.06381 0)
(0.0383579 0.0941014 0)
(-0.0227954 0.171269 0)
(-0.064182 0.0507747 0)
(-0.123216 0.0318481 0)
(-0.13228 -0.00250905 0)
(-0.108322 0.0189667 0)
(-0.088897 -0.0141449 0)
(-0.0425244 -0.0822494 0)
(0.0470774 0.0195784 0)
(-0.0102194 0.00826321 0)
(-0.0208853 0.00334222 0)
(-0.0162921 0.00704266 0)
(-0.026453 0.0004241 0)
(-0.0175046 -0.0104176 0)
(-0.0505133 0.0247954 0)
(-0.0609399 -0.013937 0)
(-0.0485047 -0.00611075 0)
(-0.0501096 -0.0364557 0)
(-0.016328 -0.088986 0)
(-0.0217123 -0.0881238 0)
(-0.0193978 -0.0656013 0)
(0.0300324 0.0178829 0)
(0.0492209 0.100649 0)
(0.00290202 0.128384 0)
(-0.0590194 0.18897 0)
(-0.109736 0.0692509 0)
(-0.170213 0.0616242 0)
(-0.186044 0.00695542 0)
(-0.151344 -0.0130219 0)
(-0.131833 -0.0478184 0)
(-0.0419541 -0.0991953 0)
(0.0693447 0.0183936 0)
(-0.0109053 0.0136688 0)
(-0.0150633 0.0125648 0)
(-0.0167797 -0.00660268 0)
(-0.0349136 0.00446134 0)
(-0.0105675 -0.00336663 0)
(-0.0641179 0.0311251 0)
(-0.0869159 -0.0123438 0)
(-0.066069 -0.0447191 0)
(-0.0744363 -0.0591258 0)
(-0.0912663 -0.0835819 0)
(-0.153075 -0.0679263 0)
(-0.182389 -0.0625771 0)
(-0.136369 -0.0184546 0)
(-0.0549419 0.0521231 0)
(-0.087841 0.131492 0)
(-0.112451 0.268794 0)
(-0.175496 0.094699 0)
(-0.225338 0.0732582 0)
(-0.236844 -0.0215252 0)
(-0.179576 -0.0253856 0)
(-0.117333 -0.0960873 0)
(-0.0524861 -0.145963 0)
(0.076679 0.0331721 0)
(-0.00630221 0.0195551 0)
(-0.0256905 0.00834209 0)
(-0.0439676 -0.00112986 0)
(-0.0652009 -0.0010902 0)
(-0.072407 -0.00846221 0)
(-0.10355 0.00376614 0)
(-0.118147 0.0234262 0)
(-0.0976583 -0.0051608 0)
(-0.0994173 -0.0139898 0)
(-0.20243 -0.0662207 0)
(-0.314959 -0.0618874 0)
(-0.371754 -0.0753488 0)
(-0.396787 -0.05396 0)
(-0.259073 0.0378749 0)
(-0.162594 0.176054 0)
(-0.181875 0.24567 0)
(-0.22868 0.114791 0)
(-0.29046 0.0861371 0)
(-0.278976 0.00229145 0)
(-0.16587 -0.0511798 0)
(-0.117584 -0.112566 0)
(-0.0797557 -0.20336 0)
(0.0992592 0.0833584 0)
(-0.166967 0.0815894 0)
(-0.298379 0.0361533 0)
(-0.353333 0.0177547 0)
(-0.27552 -0.0410226 0)
(-0.203006 -0.0229349 0)
(-0.179054 -0.0411379 0)
(-0.238866 -0.0192628 0)
(-0.26883 -0.0477845 0)
(-0.259788 -0.0798124 0)
(-0.175799 -0.132313 0)
(-0.0336519 -0.129075 0)
(0.0991716 -0.0437733 0)
(-0.00331853 0.0430104 0)
(-0.15219 -0.0220825 0)
(-0.162469 -0.020303 0)
(-0.140407 0.0183031 0)
(-0.148609 -0.0262186 0)
(-0.0675138 -0.0214282 0)
(-0.0370484 -0.000548551 0)
(-0.134587 0.110006 0)
(-0.177484 0.0402348 0)
(-0.214083 -0.0200544 0)
(-0.0254962 -0.0812155 0)
(0.0861318 -0.0283033 0)
(0.090873 0.0888926 0)
(-0.0601984 0.0934104 0)
(-0.168991 0.0586143 0)
(-0.195833 -0.00968579 0)
(-0.135382 -0.0796779 0)
(-0.0580122 -0.109365 0)
(0.151546 0.0305415 0)
(0.143948 0.0607706 0)
(0.0641431 0.0538087 0)
(-0.0823949 0.0682583 0)
(-0.00316789 -0.0209415 0)
(-0.00862188 -0.0161006 0)
(-0.0325764 -0.0478724 0)
(-0.0651495 -0.0264758 0)
(-0.0756268 0.18377 0)
(-0.0330496 0.0863146 0)
(0.0535102 -0.0239666 0)
(0.196182 -0.126009 0)
(0.185254 -0.0737613 0)
(0.24218 0.0569896 0)
(0.256938 0.10283 0)
(0.0210422 0.0925719 0)
(0.0124447 -0.0370127 0)
(0.127582 -0.0851586 0)
(-0.0127532 -0.110096 0)
(0.0534319 -0.108774 0)
(0.14906 0.0501419 0)
(0.113396 0.0615917 0)
(0.0483175 0.0653026 0)
(0.0665853 0.00142818 0)
(0.0648035 -0.00399249 0)
(-0.012651 -0.0179174 0)
(-0.0284003 -0.0503744 0)
(-0.0580238 0.162686 0)
(0.19491 0.00398767 0)
(0.274182 -0.0529321 0)
(0.379833 -0.156761 0)
(0.391098 -0.0668554 0)
(0.317926 0.0126854 0)
(0.391181 0.0900518 0)
(0.313446 0.147209 0)
(0.0861668 -0.0554516 0)
(0.251683 -0.0849204 0)
(0.0924461 -0.0815303 0)
(-0.0149986 -0.146897 0)
(0.149707 0.0634254 0)
(0.145005 0.112262 0)
(0.0743837 0.0957428 0)
(0.0382583 0.0189379 0)
(0.0590352 -0.0285485 0)
(0.0164985 -0.00911873 0)
(0.0374858 -0.0179092 0)
(0.0159066 0.111416 0)
(0.274007 -0.0428915 0)
(0.463764 -0.262176 0)
(0.458669 -0.209671 0)
(0.460209 -0.0786436 0)
(0.319908 0.0428685 0)
(0.364478 0.0923213 0)
(0.39142 0.23815 0)
(0.175549 -0.0065539 0)
(0.313967 -0.0651135 0)
(0.188628 0.00411457 0)
(-0.053043 -0.0994561 0)
(0.0718541 -0.0563464 0)
(0.124384 0.135455 0)
(0.0727792 0.152506 0)
(0.0373579 0.0249243 0)
(0.061628 -0.015718 0)
(-0.00637147 -0.00507914 0)
(0.0195405 -0.0183105 0)
(0.0575113 0.0333441 0)
(0.326982 -0.0489328 0)
(0.507164 -0.284684 0)
(0.489227 -0.2065 0)
(0.468311 -0.0286228 0)
(0.321989 0.0706267 0)
(0.289671 0.230259 0)
(0.367676 0.24326 0)
(0.260928 -0.0375139 0)
(0.369896 -0.0914588 0)
(0.404313 0.111257 0)
(-0.00711439 -0.0359228 0)
(-0.00888376 -0.0794856 0)
(0.0559058 0.108651 0)
(0.0352682 0.140802 0)
(0.00617504 0.0534386 0)
(0.0609641 -0.0360025 0)
(0.00621596 -0.00304748 0)
(0.0326739 -0.0126575 0)
(0.269115 -0.0915988 0)
(0.355402 -0.191021 0)
(0.497822 -0.276123 0)
(0.469745 -0.237367 0)
(0.384557 0.00485756 0)
(0.292251 0.0934567 0)
(0.216259 0.217581 0)
(0.322342 0.182682 0)
(0.274367 -0.0292 0)
(0.3463 -0.124525 0)
(0.42099 0.116404 0)
(0.0716256 0.0858209 0)
(-0.0736449 -0.119616 0)
(0.0218275 0.0126391 0)
(0.0965654 0.0571902 0)
(0.0789302 0.0357769 0)
(0.105431 -0.0178956 0)
(0.0525807 0.00577731 0)
(0.0446408 -0.000700188 0)
(0.376266 -0.232746 0)
(0.414645 -0.229628 0)
(0.458499 -0.317144 0)
(0.391035 -0.31742 0)
(0.271228 0.112476 0)
(0.181289 0.219663 0)
(0.169233 0.129266 0)
(0.237895 0.100695 0)
(0.292396 -0.050687 0)
(0.296446 -0.111998 0)
(0.37012 0.298331 0)
(0.368244 0.329443 0)
(-0.183985 0.0589648 0)
(0.0229564 0.0115405 0)
(0.159078 0.0882391 0)
(0.150277 0.0520885 0)
(0.122007 0.00378157 0)
(0.0604716 0.0164659 0)
(0.0876523 0.00786746 0)
(-0.0132899 0.0220425 0)
(0.00646301 0.0534953 0)
(-0.0265913 0.0227945 0)
(-0.107908 0.0253897 0)
(-0.0988795 0.033275 0)
(-0.0960274 0.0122581 0)
(-0.125074 0.037301 0)
(-0.1648 0.0163898 0)
(-0.246421 0.0260104 0)
(-0.321499 0.00346015 0)
(-0.471098 0.075521 0)
(-0.649083 -0.00290811 0)
(-0.68687 -0.0552075 0)
(-0.557808 -0.0496394 0)
(-0.417622 0.105232 0)
(-0.351268 0.101355 0)
(-0.292905 0.124405 0)
(-0.255747 0.0656847 0)
(-0.280851 0.0435896 0)
(-0.21829 -0.120257 0)
(-0.118431 -0.1526 0)
(-0.110324 -0.21013 0)
(0.0588369 -0.0538445 0)
(0.0018205 0.0238939 0)
(-0.0538812 0.069774 0)
(-0.0612405 0.033719 0)
(-0.098012 0.032863 0)
(-0.118462 0.0721823 0)
(-0.102534 0.043668 0)
(-0.0950189 0.0507316 0)
(-0.149827 0.103938 0)
(-0.231244 0.107325 0)
(-0.275524 0.158263 0)
(-0.476174 0.158407 0)
(-0.824299 0.0294198 0)
(-0.815582 -0.232418 0)
(-0.745081 -0.258058 0)
(-0.539002 -0.0379211 0)
(-0.425782 0.111333 0)
(-0.319694 0.113957 0)
(-0.282075 0.11156 0)
(-0.211803 -0.0143216 0)
(-0.201345 -0.226432 0)
(-0.126522 -0.377627 0)
(-0.151656 -0.363835 0)
(-0.140246 -0.262654 0)
(-0.0112181 0.0535863 0)
(-0.053646 0.0650922 0)
(-0.099117 0.0625884 0)
(-0.0925359 0.0326204 0)
(-0.120338 0.0484788 0)
(-0.144566 0.0530528 0)
(-0.0698923 0.101316 0)
(-0.0476836 0.140792 0)
(-0.0553713 0.201522 0)
(-0.0376776 0.411728 0)
(-0.437228 0.606739 0)
(-0.718613 0.293629 0)
(-0.771273 -0.307075 0)
(-0.737093 -0.46514 0)
(-0.557635 -0.244491 0)
(-0.437642 -0.137102 0)
(-0.337516 -0.131477 0)
(-0.307982 -0.117133 0)
(-0.340625 -0.121023 0)
(-0.40614 -0.271795 0)
(-0.238104 -0.441034 0)
(-0.156656 -0.409989 0)
(-0.189881 -0.262604 0)
(-0.0751276 0.0815434 0)
(-0.0843792 0.0886555 0)
(-0.0994947 0.073299 0)
(-0.1104 0.0610061 0)
(-0.0760133 0.0399918 0)
(-0.0743745 0.0260865 0)
(-0.0487832 0.0779 0)
(-0.00503635 0.100903 0)
(0.013485 0.189198 0)
(-0.0649165 0.360439 0)
(0.0995942 1.00617 0)
(-0.120009 1.00211 0)
(-0.655743 -0.148776 0)
(-0.968622 -0.458575 0)
(-1.14559 -0.390891 0)
(-0.938668 -0.138807 0)
(-0.405959 -0.00658221 0)
(-0.284499 0.0568178 0)
(-0.460916 -0.161391 0)
(-0.424923 -0.287994 0)
(-0.246849 -0.337723 0)
(-0.200765 -0.345357 0)
(-0.168856 -0.227373 0)
(-0.0832059 0.150616 0)
(-0.106131 0.142224 0)
(-0.0604801 0.154255 0)
(-0.0829717 0.0748448 0)
(-0.106756 0.0356616 0)
(-0.0659255 0.00073008 0)
(-0.0456352 0.00630783 0)
(-0.0337734 0.09406 0)
(-0.00249027 0.118355 0)
(-0.0120268 0.277954 0)
(0.20735 0.775137 0)
(0.300942 1.99377 0)
(-0.392069 0.805704 0)
(-1.07098 -0.206809 0)
(-1.16817 -0.532395 0)
(-1.08957 -0.53666 0)
(-0.724412 -0.504 0)
(-0.461105 -0.466529 0)
(0.0937632 0.339809 0)
(-0.317049 -0.433377 0)
(-0.15401 -0.471279 0)
(-0.229126 -0.497654 0)
(-0.221991 -0.175816 0)
(-0.00136153 0.251927 0)
(-0.108097 0.194959 0)
(-0.109836 0.104594 0)
(-0.0669421 0.0490534 0)
(-0.0919297 0.043873 0)
(-0.0772196 -0.0109549 0)
(-0.0656423 0.0340906 0)
(-0.028729 0.0821593 0)
(0.0630779 0.10065 0)
(0.111333 0.129922 0)
(0.217851 0.583643 0)
(0.155381 1.9401 0)
(-0.870568 1.0391 0)
(-0.810133 0.2622 0)
(-0.935717 -0.40055 0)
(-0.893501 -0.731564 0)
(-0.765534 -0.770399 0)
(-0.669097 -0.748472 0)
(-0.223908 -0.143223 0)
(0.210615 0.0364123 0)
(-0.187053 -0.548366 0)
(-0.231238 -0.561761 0)
(-0.133951 -0.267951 0)
(0.192706 0.257055 0)
(0.07727 0.290947 0)
(-0.105835 0.0865026 0)
(-0.0895944 0.0437191 0)
(-0.135031 0.067332 0)
(-0.108125 -0.0247321 0)
(0.048399 -0.0311865 0)
(0.161182 -0.0431935 0)
(0.320862 -0.0103197 0)
(0.0975292 0.150045 0)
(0.0832443 0.637905 0)
(-0.218248 2.08278 0)
(-0.937182 1.41577 0)
(-0.460854 0.6922 0)
(-0.853317 -0.218824 0)
(-0.767894 -0.720704 0)
(-0.733646 -0.822851 0)
(-0.676923 -0.785098 0)
(-0.582385 -0.579218 0)
(-0.336868 -0.475744 0)
(-0.220778 -0.52321 0)
(-0.265518 -0.507715 0)
(-0.171448 -0.278011 0)
(0.040779 -0.020692 0)
(0.12455 0.380724 0)
(-0.252933 0.133323 0)
(-0.16565 0.10076 0)
(-0.109384 0.0731806 0)
(0.279696 -0.247927 0)
(0.433545 -0.272781 0)
(0.519767 -0.234746 0)
(0.369527 0.194864 0)
(-0.258673 0.34945 0)
(-0.20609 0.91659 0)
(-0.997531 2.31377 0)
(-0.958292 1.52248 0)
(-0.518896 0.867753 0)
(-0.722887 0.00364176 0)
(-0.655697 -0.569142 0)
(-0.593228 -0.780029 0)
(-0.62699 -0.794161 0)
(-0.656588 -0.656112 0)
(-0.518325 -0.529072 0)
(-0.453633 -0.49155 0)
(-0.284609 -0.389531 0)
(-0.170551 -0.314296 0)
(0.000236067 0.0489109 0)
(-0.171458 0.528255 0)
(-0.318855 0.256477 0)
(-0.126521 0.0984087 0)
(0.0772813 -0.431238 0)
(0.526857 -0.25741 0)
(0.0858468 -0.388532 0)
(-0.177494 0.2633 0)
(-0.582684 0.471952 0)
(-1.09565 0.83518 0)
(-0.944949 1.53314 0)
(-1.61069 2.31932 0)
(-0.856006 1.43832 0)
(-0.818065 0.651347 0)
(-0.542805 -0.219866 0)
(-0.33618 -0.699162 0)
(-0.224026 -0.704556 0)
(-0.373074 -0.632651 0)
(-0.468261 -0.616203 0)
(-0.425184 -0.580171 0)
(-0.323657 -0.68605 0)
(-0.353319 -0.528554 0)
(-0.398247 -0.46227 0)
(-0.0142976 0.100809 0)
(-0.090833 0.761505 0)
(-0.371382 0.492492 0)
(-0.124816 -0.383555 0)
(0.339073 -0.54802 0)
(-0.665182 0.044307 0)
(-0.892731 0.268496 0)
(-0.941698 0.482033 0)
(-1.26528 0.812346 0)
(-1.78396 1.20645 0)
(-1.64359 1.86842 0)
(-1.64645 2.08425 0)
(-0.919087 0.901406 0)
(-0.936313 0.0495315 0)
(-0.42752 -0.759144 0)
(-0.237941 -0.955883 0)
(-0.135034 -0.722284 0)
(-0.0525228 -0.713172 0)
(0.117021 -0.660771 0)
(-0.173446 -0.754749 0)
(-0.214525 -0.753816 0)
(-0.379835 -0.72029 0)
(-0.569284 -0.44233 0)
(-0.123792 0.066089 0)
(0.11023 0.882947 0)
(-0.344074 0.628476 0)
(-0.542476 -0.69501 0)
(-0.813074 0.249811 0)
(-0.944804 0.466445 0)
(-1.14962 0.585049 0)
(-1.2688 0.86788 0)
(-1.53703 1.01471 0)
(-1.75798 1.46649 0)
(-1.65337 1.73435 0)
(-1.34841 1.42458 0)
(-0.953748 0.190091 0)
(-0.634656 -0.227996 0)
(-0.527945 -0.973657 0)
(-0.325501 -1.07923 0)
(-0.289842 -0.71684 0)
(-0.162619 -0.764018 0)
(0.152967 -0.604482 0)
(-0.0215027 -0.576882 0)
(-0.301158 -0.708424 0)
(-0.454514 -0.666585 0)
(-0.529295 -0.527049 0)
(-0.206774 0.113356 0)
(0.163394 0.955758 0)
(-0.397342 0.539156 0)
(-0.214767 -0.115369 0)
(-0.652655 0.142278 0)
(-0.776839 0.505303 0)
(-1.07338 0.658961 0)
(-1.25907 1.0898 0)
(-1.49641 1.24657 0)
(-1.59498 1.43947 0)
(-1.5217 1.48257 0)
(-1.25303 0.944227 0)
(-1.01611 0.315584 0)
(-0.480533 -0.402493 0)
(-0.514522 -1.02995 0)
(-0.478654 -1.08633 0)
(-0.550508 -0.863366 0)
(-0.344509 -0.868381 0)
(0.0839734 -0.699583 0)
(0.0439977 -0.613341 0)
(0.087814 -0.345385 0)
(-0.159244 -0.292674 0)
(-0.283286 -0.335159 0)
(-0.216763 0.238856 0)
(0.152878 1.0707 0)
(-0.308918 0.590567 0)
(-0.121653 0.148157 0)
(-0.46659 0.315432 0)
(-0.737433 0.703207 0)
(-1.06599 0.914125 0)
(-1.13926 1.18734 0)
(-1.23854 1.23381 0)
(-1.22664 1.26784 0)
(-1.0825 0.881294 0)
(-0.813573 0.280192 0)
(-0.7121 -0.0578317 0)
(-0.681722 -0.785733 0)
(-0.699349 -1.01969 0)
(-0.670842 -1.10193 0)
(-0.748026 -1.11965 0)
(-0.587764 -1.15026 0)
(-0.115365 -0.8198 0)
(0.0258626 -0.528505 0)
(0.189215 -0.229412 0)
(0.168389 -0.113116 0)
(-0.187489 -0.32667 0)
(-0.179475 0.221982 0)
(0.100369 1.05735 0)
(-0.200984 0.714138 0)
(-0.180125 0.310682 0)
(-0.493124 0.556884 0)
(-0.55349 0.723042 0)
(-0.73619 1.03951 0)
(-0.787832 1.24469 0)
(-0.892908 1.22771 0)
(-0.924387 1.11709 0)
(-0.817539 1.0122 0)
(-0.574468 0.425995 0)
(-0.650986 -0.263866 0)
(-0.633926 -0.714659 0)
(-0.780933 -0.880943 0)
(-0.75009 -1.197 0)
(-0.897587 -1.40447 0)
(-0.909379 -1.4861 0)
(-0.526624 -1.0888 0)
(-0.0944386 -0.560451 0)
(-0.190321 -0.272198 0)
(-0.122042 0.125732 0)
(-0.373593 -0.124464 0)
(-0.124756 0.158216 0)
(0.0824803 1.06774 0)
(-0.140404 0.782492 0)
(-0.0505614 0.517812 0)
(-0.217921 0.735779 0)
(-0.176311 1.0024 0)
(-0.515227 1.23017 0)
(-0.57739 1.34958 0)
(-0.629465 1.29058 0)
(-0.361119 1.19906 0)
(-0.341755 0.963142 0)
(-0.741412 0.329853 0)
(-0.768644 -0.154511 0)
(-0.531558 -0.502835 0)
(-0.692079 -0.785396 0)
(-0.749433 -1.19308 0)
(-0.960343 -1.47653 0)
(-1.03875 -1.55855 0)
(-0.797294 -1.2474 0)
(-0.520573 -0.641397 0)
(-0.642773 -0.155023 0)
(-0.520718 -0.012725 0)
(-0.370682 -0.269557 0)
(-0.0906746 0.20034 0)
(0.100521 1.09114 0)
(-0.163196 0.912929 0)
(-0.0934578 0.969656 0)
(-0.194981 0.757026 0)
(0.102147 0.947846 0)
(-0.180708 1.21352 0)
(-0.204174 1.33541 0)
(-0.301492 1.4337 0)
(-0.0593095 1.49455 0)
(-0.115167 0.861065 0)
(-0.46263 0.374721 0)
(-0.416389 0.26078 0)
(-0.266765 -0.397621 0)
(-0.395916 -0.554789 0)
(-0.705152 -1.02147 0)
(-0.877817 -1.41685 0)
(-1.02979 -1.47154 0)
(-0.871151 -1.28529 0)
(-0.745261 -0.722956 0)
(-0.765435 -0.372984 0)
(-0.637426 -0.202302 0)
(-0.323594 -0.414817 0)
(-0.0629567 0.168472 0)
(0.149126 1.10797 0)
(-0.0650151 0.973808 0)
(-0.0684448 0.872232 0)
(-0.247184 0.581925 0)
(0.115726 0.899097 0)
(0.00904109 1.25327 0)
(0.102751 1.32246 0)
(0.0378648 1.44926 0)
(0.263488 1.47094 0)
(0.0869303 0.925428 0)
(0.0681753 0.401496 0)
(-0.0192886 0.0503714 0)
(0.250358 -0.574339 0)
(0.203881 -0.461682 0)
(-0.117837 -0.709115 0)
(-0.263806 -1.13689 0)
(-0.491698 -1.1112 0)
(-0.614396 -1.20369 0)
(-0.600164 -0.758297 0)
(-0.441535 -0.634319 0)
(-0.364641 -0.46687 0)
(-0.20535 -0.426076 0)
(-0.0627907 0.114618 0)
(0.224385 1.12831 0)
(0.0873211 1.05525 0)
(-0.000306203 0.796579 0)
(-0.111871 0.520225 0)
(0.101836 0.739254 0)
(0.178499 1.25916 0)
(0.342436 1.26791 0)
(0.348123 1.18603 0)
(0.548235 1.40763 0)
(0.385877 1.16739 0)
(0.591227 0.886503 0)
(0.273738 0.340371 0)
(0.643047 -0.413512 0)
(0.752675 -0.509291 0)
(0.474689 -0.608649 0)
(0.363974 -1.02352 0)
(0.341665 -0.975498 0)
(0.0562014 -1.10573 0)
(-0.411838 -0.97848 0)
(-0.266845 -0.662038 0)
(-0.121127 -0.531666 0)
(-0.0624942 -0.332242 0)
(-0.0196599 -0.00837087 0)
(0.244326 1.1023 0)
(0.221346 1.13651 0)
(0.0972186 0.873838 0)
(0.158739 0.668587 0)
(0.160399 0.659129 0)
(0.187967 1.10454 0)
(0.410503 1.33093 0)
(0.613915 1.29651 0)
(0.932871 1.20256 0)
(0.789616 1.02296 0)
(0.952416 0.738707 0)
(0.692682 0.274795 0)
(1.03458 -0.350851 0)
(1.16737 -0.747093 0)
(0.832556 -0.831293 0)
(0.765984 -0.816038 0)
(0.726763 -0.941609 0)
(0.484676 -1.12074 0)
(0.1155 -1.04085 0)
(0.138116 -0.724203 0)
(0.0461984 -0.523812 0)
(0.0869995 -0.555563 0)
(0.152795 -0.134596 0)
(0.1856 1.02042 0)
(0.351978 1.06663 0)
(0.282548 0.988897 0)
(0.239741 0.871906 0)
(0.166708 0.720735 0)
(0.302843 0.943882 0)
(0.593651 1.21019 0)
(0.784532 1.13153 0)
(0.872981 0.943888 0)
(0.787405 0.744977 0)
(1.01263 0.533533 0)
(0.987417 0.0850629 0)
(1.15988 -0.214939 0)
(1.37783 -0.672852 0)
(1.14156 -0.774929 0)
(0.959692 -0.769394 0)
(0.872095 -0.768123 0)
(0.707111 -0.810864 0)
(0.63451 -0.688419 0)
(0.309817 -0.517885 0)
(0.118757 -0.51789 0)
(0.136464 -0.634552 0)
(0.152231 -0.241724 0)
(0.0979865 0.726046 0)
(0.49195 1.12553 0)
(0.568106 0.962361 0)
(0.410434 0.820956 0)
(0.183535 0.767798 0)
(0.244303 0.921865 0)
(0.52186 1.05703 0)
(0.653903 0.944093 0)
(0.692072 0.560784 0)
(0.766019 0.396488 0)
(1.04818 0.279684 0)
(1.08285 -0.0222355 0)
(1.19923 -0.20413 0)
(1.38735 -0.563009 0)
(1.26196 -0.662455 0)
(1.0378 -0.666422 0)
(0.877044 -0.638488 0)
(0.726691 -0.559796 0)
(0.601349 -0.321843 0)
(0.216462 -0.216467 0)
(0.122898 -0.386418 0)
(0.114667 -0.447871 0)
(-0.0299948 -0.299852 0)
(0.170129 0.504471 0)
(0.435398 1.11442 0)
(0.524913 0.885354 0)
(0.419309 0.737262 0)
(0.21467 0.618286 0)
(0.166377 0.620728 0)
(0.379259 0.730327 0)
(0.484622 0.640853 0)
(0.688108 0.48733 0)
(0.747635 0.35296 0)
(0.906282 0.256875 0)
(0.941993 -0.0254669 0)
(1.16475 -0.391694 0)
(1.29769 -0.656485 0)
(1.30962 -0.689936 0)
(1.03086 -0.647888 0)
(0.750986 -0.517622 0)
(0.503499 -0.259847 0)
(0.398727 -0.0901863 0)
(0.173258 -0.127014 0)
(0.180749 -0.347942 0)
(0.151037 -0.380693 0)
(-0.327165 -0.53446 0)
(0.0827109 0.567386 0)
(0.155921 1.04067 0)
(0.250601 0.86583 0)
(0.338144 0.696474 0)
(0.256067 0.485094 0)
(0.230906 0.389549 0)
(0.35209 0.400794 0)
(0.453283 0.474975 0)
(0.635839 0.40841 0)
(0.76085 0.299978 0)
(0.892706 0.0613198 0)
(1.001 -0.212405 0)
(1.08628 -0.361331 0)
(1.09317 -0.430027 0)
(1.03694 -0.531902 0)
(0.809711 -0.566504 0)
(0.724045 -0.424187 0)
(0.591164 -0.0841432 0)
(0.383091 0.159003 0)
(0.210058 0.00157772 0)
(0.204756 -0.325917 0)
(0.172132 -0.380274 0)
(-0.449225 -0.60497 0)
(0.166339 0.41301 0)
(-0.123784 0.656343 0)
(0.237213 0.8334 0)
(0.307474 0.718644 0)
(0.387069 0.492161 0)
(0.372355 0.481818 0)
(0.434451 0.377263 0)
(0.584787 0.346903 0)
(0.820874 0.2341 0)
(1.0678 0.0294107 0)
(1.25471 -0.113678 0)
(1.15157 -0.201813 0)
(1.10791 -0.272395 0)
(1.04231 -0.325531 0)
(0.88135 -0.371242 0)
(0.811127 -0.286122 0)
(0.544316 -0.0591788 0)
(0.267639 0.179439 0)
(0.154143 0.238722 0)
(0.110073 -0.0314469 0)
(0.194167 -0.334735 0)
(0.160489 -0.338612 0)
(-0.635767 -0.37097 0)
(0.341187 0.397014 0)
(-0.339198 0.64377 0)
(0.271521 0.856663 0)
(0.305915 0.713304 0)
(0.463241 0.527171 0)
(0.631224 0.41618 0)
(0.761779 0.373576 0)
(0.865312 0.15023 0)
(1.03961 0.136731 0)
(1.24369 -0.0129739 0)
(1.2938 -0.0942049 0)
(1.15355 -0.105115 0)
(1.11354 -0.196806 0)
(1.10584 -0.197523 0)
(1.01535 -0.0908391 0)
(0.608173 0.0182041 0)
(0.544646 0.0762019 0)
(0.380217 0.227319 0)
(0.216997 0.241578 0)
(0.144147 -0.028213 0)
(0.224691 -0.293349 0)
(0.196532 -0.309212 0)
(-0.735804 -0.0749188 0)
(0.0262256 0.469065 0)
(-0.410603 0.538114 0)
(0.368827 0.800001 0)
(0.369147 0.555813 0)
(0.565927 0.357701 0)
(0.734714 0.100425 0)
(0.871572 0.0601132 0)
(0.969631 -0.0483027 0)
(1.08295 -0.181053 0)
(1.17298 -0.141871 0)
(1.26185 -0.161788 0)
(1.21212 -0.174392 0)
(1.21903 -0.104235 0)
(1.1917 0.0345031 0)
(0.733716 0.149155 0)
(0.331966 0.243314 0)
(0.394174 0.199572 0)
(0.32587 0.37227 0)
(0.176326 0.393385 0)
(0.207394 0.0793639 0)
(0.286453 -0.256777 0)
(0.184445 -0.290559 0)
(-0.737999 -0.00616618 0)
(0.511812 0.570145 0)
(-0.453971 0.284987 0)
(0.339119 0.38434 0)
(0.302547 0.14623 0)
(0.536524 -0.0815834 0)
(0.751704 -0.15912 0)
(0.892179 -0.164392 0)
(1.1692 -0.135241 0)
(1.83071 -0.105308 0)
(1.75444 -0.0737501 0)
(1.46162 -0.0196004 0)
(1.22229 0.122502 0)
(1.11494 0.349604 0)
(0.907918 0.302478 0)
(0.434566 0.250825 0)
(0.340668 0.297204 0)
(0.399299 0.360121 0)
(0.287589 0.516431 0)
(0.121622 0.452356 0)
(0.128939 0.0112228 0)
(0.222583 -0.254599 0)
(0.124745 -0.318618 0)
(-0.723236 -0.0257019 0)
(0.694507 0.446564 0)
(0.00046427 0.285105 0)
(0.373315 -0.10369 0)
(0.424592 -0.0752317 0)
(0.53977 -0.167062 0)
(0.546738 -0.255126 0)
(0.675627 -0.267042 0)
(1.17025 -0.151961 0)
(1.16339 -0.245941 0)
(0.948965 -0.45168 0)
(0.798926 -0.292143 0)
(0.849368 0.0618168 0)
(0.667721 0.44447 0)
(0.317813 0.590901 0)
(0.371572 0.363444 0)
(0.36394 0.369209 0)
(0.282339 0.445249 0)
(0.0212062 0.571885 0)
(0.0491471 0.283055 0)
(0.131621 -0.0175444 0)
(0.194097 -0.22899 0)
(0.141045 -0.32217 0)
(-0.617201 0.00357055 0)
(0.620035 0.268808 0)
(0.339269 0.202683 0)
(0.319073 0.0242733 0)
(0.285651 -0.0161334 0)
(0.427754 -0.218292 0)
(0.255034 -0.330932 0)
(0.293683 -0.318155 0)
(0.451131 -0.351442 0)
(0.431311 -0.470435 0)
(0.347892 -0.348792 0)
(0.332049 -0.00548986 0)
(0.277475 0.417775 0)
(0.00943269 0.719928 0)
(0.203824 0.590784 0)
(0.374119 0.29894 0)
(0.255253 0.3635 0)
(-0.00258815 0.576991 0)
(-0.0444192 0.657651 0)
(0.021739 0.291203 0)
(0.225731 -0.0490391 0)
(0.198095 -0.241597 0)
(0.117129 -0.306716 0)
(-0.468147 -0.0477504 0)
(0.497173 0.0266165 0)
(0.253399 0.0868595 0)
(0.144962 0.0183927 0)
(0.185157 0.0992665 0)
(0.163128 -0.111565 0)
(0.103172 -0.26833 0)
(0.133817 -0.253126 0)
(0.278871 -0.227455 0)
(0.235951 -0.221068 0)
(0.127203 -0.115352 0)
(0.0385556 0.046349 0)
(-0.0408126 0.479364 0)
(-0.0846471 0.648677 0)
(0.209735 0.415654 0)
(0.279559 0.304344 0)
(-0.0286464 0.584266 0)
(-0.406334 1.06737 0)
(-0.0847671 0.63838 0)
(-0.0528802 0.096322 0)
(0.128336 -0.132089 0)
(0.117058 -0.233346 0)
(0.11451 -0.284253 0)
(-0.342737 -0.0607405 0)
(-0.070544 -0.0956229 0)
(-0.21399 0.177979 0)
(-0.191844 0.0523357 0)
(-0.119066 0.0113808 0)
(0.0226535 -0.204494 0)
(0.0041447 -0.421109 0)
(-0.0293123 -0.461911 0)
(0.155776 -0.575812 0)
(0.0159833 -0.351541 0)
(0.129584 -0.166908 0)
(-0.0691156 0.27618 0)
(-0.0783187 0.490759 0)
(0.0809357 0.495466 0)
(0.142129 0.556205 0)
(0.144953 0.533399 0)
(-0.439941 0.97596 0)
(-0.667339 1.02364 0)
(-0.270203 0.256564 0)
(-0.137601 -0.136724 0)
(0.0224575 -0.286431 0)
(0.0716968 -0.268353 0)
(0.0767764 -0.267939 0)
(-0.371723 0.123651 0)
(-0.19474 0.12307 0)
(-0.349627 0.119452 0)
(-0.338055 -0.0416408 0)
(-0.146868 -0.0979731 0)
(-0.158172 -0.294752 0)
(-0.115457 -0.491354 0)
(-0.204937 -0.497021 0)
(-0.208828 -0.623931 0)
(-0.20843 -0.421051 0)
(-0.0163563 -0.191205 0)
(-0.0838381 0.253678 0)
(-0.105478 0.449188 0)
(0.106091 0.386048 0)
(-0.0534506 0.627738 0)
(-0.332986 0.759979 0)
(-0.67136 1.0584 0)
(-0.588281 0.758251 0)
(-0.147856 0.0564087 0)
(-0.243949 -0.243671 0)
(0.00547087 -0.333535 0)
(0.101251 -0.315121 0)
(0.0895427 -0.256702 0)
(-0.158448 0.275743 0)
(0.0357627 0.266418 0)
(-0.17796 0.113352 0)
(-0.031651 0.125587 0)
(-0.243642 -0.110571 0)
(-0.236286 -0.297981 0)
(-0.311663 -0.401209 0)
(-0.38303 -0.400261 0)
(-0.373326 -0.41186 0)
(-0.350537 -0.360619 0)
(-0.30038 -0.0989186 0)
(-0.202358 0.199885 0)
(-0.210769 0.397522 0)
(-0.112316 0.40507 0)
(-0.225195 0.660622 0)
(-0.510068 0.98502 0)
(-0.598881 1.13652 0)
(-0.267093 0.777683 0)
(-0.028386 -0.0174228 0)
(-0.035537 -0.318114 0)
(0.0129579 -0.326376 0)
(0.0784998 -0.323926 0)
(0.0441829 -0.249821 0)
(-0.0251119 0.192264 0)
(0.262123 0.383816 0)
(0.0416777 0.35732 0)
(0.00257049 0.256347 0)
(-0.229573 0.0904251 0)
(-0.20662 -0.155418 0)
(-0.260312 -0.267633 0)
(-0.381339 -0.331034 0)
(-0.432126 -0.381028 0)
(-0.447077 -0.408964 0)
(-0.46359 -0.253039 0)
(-0.400831 0.0655214 0)
(-0.429003 0.400911 0)
(-0.302272 0.680896 0)
(-0.238009 0.841129 0)
(-0.396465 1.19027 0)
(-0.354517 1.36267 0)
(0.0177505 0.343241 0)
(0.272874 -0.232674 0)
(0.0635972 -0.414407 0)
(0.0451694 -0.403597 0)
(0.0840464 -0.31967 0)
(0.0319214 -0.220271 0)
(0.0545682 -0.0194262 0)
(0.193193 0.438858 0)
(-0.0310217 0.424722 0)
(-0.016393 0.362793 0)
(-0.228513 0.123207 0)
(-0.122979 -0.0937585 0)
(-0.113324 -0.170108 0)
(-0.181601 -0.268974 0)
(-0.262296 -0.268907 0)
(-0.401834 -0.299585 0)
(-0.454422 -0.240129 0)
(-0.390612 0.0427545 0)
(-0.423036 0.341937 0)
(-0.278601 0.606031 0)
(-0.210409 0.827879 0)
(-0.303202 1.14017 0)
(-0.0914287 1.237 0)
(0.147668 0.404958 0)
(0.320882 -0.149101 0)
(0.235178 -0.346944 0)
(0.214708 -0.37089 0)
(0.15946 -0.347915 0)
(0.0443289 -0.195034 0)
(0.0149156 -0.0169878 0)
(-0.0264977 0.657854 0)
(-0.148829 0.65007 0)
(-0.170582 0.340923 0)
(-0.293635 0.188009 0)
(-0.106825 -0.0361926 0)
(-0.13868 -0.175751 0)
(-0.106213 -0.227663 0)
(-0.100492 -0.218235 0)
(-0.221335 -0.194057 0)
(-0.333452 -0.119697 0)
(-0.348155 -0.0313546 0)
(-0.34944 0.134373 0)
(-0.247925 0.301026 0)
(-0.143484 0.706464 0)
(-0.0481258 0.948636 0)
(0.127659 0.768765 0)
(0.356371 -0.108573 0)
(0.434306 -0.398508 0)
(0.39968 -0.358795 0)
(0.25016 -0.332157 0)
(0.215233 -0.372553 0)
(0.184823 -0.260246 0)
(-0.0618463 0.00735094 0)
(-0.167014 0.823857 0)
(-0.197673 0.676743 0)
(-0.243842 0.245783 0)
(-0.171319 0.0657389 0)
(-0.143516 -0.108499 0)
(-0.134295 -0.191188 0)
(-0.10377 -0.190252 0)
(-0.128461 -0.217561 0)
(-0.125357 -0.228776 0)
(-0.160868 -0.168449 0)
(-0.14077 -0.00788907 0)
(-0.187661 0.070767 0)
(-0.255725 0.151794 0)
(-0.168113 0.48159 0)
(0.198924 0.639108 0)
(0.511911 0.352075 0)
(0.610956 0.125116 0)
(0.550347 -0.052297 0)
(0.453062 -0.208218 0)
(0.274081 -0.202626 0)
(0.34053 -0.222464 0)
(0.304367 -0.177913 0)
(-0.0341772 0.0847572 0)
(-0.0744354 1.08967 0)
(-0.212543 0.74217 0)
(-0.332648 0.287844 0)
(-0.213072 -0.0126466 0)
(-0.131217 -0.17651 0)
(-0.0530671 -0.198375 0)
(-0.0679811 -0.255602 0)
(-0.0901407 -0.201424 0)
(-0.0861288 -0.155198 0)
(-0.101344 -0.0855825 0)
(-0.127434 -0.0311629 0)
(-0.139689 0.0227382 0)
(-0.0397918 0.0879239 0)
(-0.023572 0.414545 0)
(0.376023 0.51881 0)
(0.687211 0.0916374 0)
(0.559862 -0.140885 0)
(0.356636 -0.234279 0)
(0.3526 -0.214656 0)
(0.305541 -0.141765 0)
(0.341624 -0.105364 0)
(0.348498 -0.146728 0)
(-0.0876544 0.30878 0)
(-0.132247 1.19718 0)
(-0.333705 0.797399 0)
(-0.281939 0.281462 0)
(-0.238006 -0.100048 0)
(-0.0555973 -0.226075 0)
(-0.0228012 -0.221129 0)
(-0.00879587 -0.196464 0)
(-0.00624756 -0.243732 0)
(-0.0186895 -0.188334 0)
(-0.0483512 -0.118768 0)
(-0.00581334 -0.0768869 0)
(-0.0430485 0.060137 0)
(0.0684255 0.0808959 0)
(0.109991 0.263748 0)
(0.377298 0.340841 0)
(0.507733 0.15232 0)
(0.463367 -0.0426162 0)
(0.426257 -0.0553763 0)
(0.397477 -0.0140188 0)
(0.336039 -0.0345887 0)
(0.322431 -0.0322849 0)
(0.271813 -0.0491821 0)
(-0.178578 0.515544 0)
(-0.218011 1.23713 0)
(-0.365292 0.795113 0)
(-0.222145 0.189921 0)
(-0.220914 -0.135238 0)
(-0.0489075 -0.274523 0)
(0.0399521 -0.225496 0)
(-0.0156825 -0.142373 0)
(-0.0423612 -0.128178 0)
(0.0467462 -0.121706 0)
(0.0277025 -0.0533471 0)