/*--------------------------------*- C++ -*----------------------------------*\
| =========                 |                                                 |
| \\      /  F ield         | foam-extend: Open Source CFD                    |
|  \\    /   O peration     | Version:     4.1                                |
|   \\  /    A nd           | Web:         http://www.foam-extend.org         |
|    \\/     M anipulation  |                                                 |
\*---------------------------------------------------------------------------*/
FoamFile
{
    version     2.0;
    format      ascii;
    class       volScalarField;
    location    "0.75";
    object      p;
}
// * * * * * * * * * * * * * * * * * * * * * * * * * * * * * * * * * * * * * //

dimensions      [1 -1 -2 0 0 0 0];

internalField   nonuniform List<scalar> 
2268
(
817.847
812.191
797.269
775.062
764.361
740.925
740.258
738.801
746.549
755.771
754.384
757.88
757.902
757.545
759.628
763.402
759.421
760.606
757.772
757.348
756.519
756.572
757.616
759.239
755.007
734.143
714.592
705.718
680.018
682.427
679.838
688.525
699.786
692.507
700.751
699.66
702.438
700.357
703.674
701.604
701.645
698.876
698.357
697.222
697.65
698.76
702.467
697.464
678.74
657.134
649.936
616.084
619.774
616.275
633.388
628.996
635.689
643.242
633.933
648.242
638.982
648.037
641.428
643.122
639.78
639.323
638.451
638.626
640.288
641.607
639.68
610.72
595.015
581.647
555.864
557.172
569.53
558.03
583.837
577.188
583.283
581.152
585.608
583.641
586.562
582.975
584.026
581.463
579.763
578.51
579.427
581.459
587.241
581.641
559.372
536.256
526.199
494.393
500.141
501.433
502.051
524.367
517.67
525.645
519.864
526.543
523.68
526.92
526.54
528.324
521.063
520.82
518.859
520.358
523.416
523.753
525.599
488.548
471.797
452.07
424.929
435.534
439.007
450.719
457.357
459.424
465.678
464.214
468.18
471.035
466.07
461.618
464.832
462.896
462.397
455.388
459.906
464.551
480.912
462.071
429.091
399.216
399.035
351.958
380.168
374.879
390.54
397.454
399.436
406.58
405.101
410.424
404.198
401.663
404.266
406.629
407.003
403.714
397.022
401.453
408.629
403.382
412.267
362.811
334.939
336.714
288.825
303.116
330.359
328.174
332.042
339.56
349.32
347.368
352.517
360.025
330.217
365.252
342.414
351.278
337.085
332.342
336.065
345.678
1224.52
990.534
790.941
639.443
513.165
472.92
517.84
552.074
573.157
592.441
670.362
709.493
675.712
661.803
558.145
460.113
425.569
408.945
443.462
1097.76
899.993
690.688
574.143
462.569
403.889
460.532
505.466
515.721
512.677
626.032
677.083
605.136
611.69
499.204
399.486
359.302
339.717
385.292
899.703
838.584
559.096
490.615
397.78
355.477
438.033
493.154
490.887
498.796
572.667
608.735
572.173
536.547
436.015
357.375
322.239
307.848
340.119
812.654
665.919
514.317
370.421
338.399
343.69
400.766
451.642
480.974
487.097
542.014
558.942
493.813
503.209
391.805
333.277
304.835
285.078
302.04
696.578
561.498
396.772
335.533
301.879
339.955
385.066
429.564
431.007
472.241
525.319
452.121
447.944
437.993
351.37
321.132
288.769
261.286
266.012
597.095
462.16
358.511
285.432
255.036
263.636
369.257
323.486
366.648
384.615
456.868
420.894
393.813
369.146
312.201
299.937
263.2
243.676
244.808
497.372
371.857
294.495
255.309
246.246
250.535
295.187
283.031
218.401
341.131
354.91
372.622
342.771
306.668
288.12
275.998
246.301
237.562
234.198
384.915
311.789
270.772
246.938
229.484
234.596
270.901
233.429
226.15
241.422
301.707
316.123
312.541
254.272
252.861
253.434
237.995
233.394
232.538
353.11
350.98
271.843
203.156
238.6
208.735
206.977
223.209
224.098
240.557
247.089
256.851
258.687
260.036
268.174
220.567
266.5
254.19
265.684
243.318
237.73
244.733
250.89
117.002
130.045
71.2525
83.9842
55.92
87.7821
77.9264
95.3015
105.525
119.001
135.206
146.831
154.476
160.269
139.469
131.929
165.57
138.294
159.943
155.671
116.12
133.298
155.537
91.717
41.3041
21.94
19.647
19.464
17.6677
16.714
35.0063
41.6006
53.6853
71.4392
85.711
87.7092
87.906
79.5749
77.8424
80.7504
86.8178
107.299
89.8864
88.9578
83.2283
93.8807
17.6648
14.3111
13.1295
14.0114
13.9504
13.8254
14.7537
24.2293
36.5599
38.5421
56.0459
67.3558
74.4405
72.4252
68.901
68.2367
66.955
72.1525
72.5208
74.9741
-13.8958
-82.9416
-14.5276
11.7208
13.0248
12.8439
13.2756
13.314
13.0768
14.0302
19.0112
23.9477
33.1008
54.3452
67.001
72.9933
71.7984
68.5848
66.9196
65.7017
66.2211
65.6849
9.35711
-103.09
-137.828
-197.918
10.9467
11.3135
11.4656
11.495
11.692
10.6321
11.3506
14.8792
19.4681
30.2086
49.8028
59.9334
72.1187
70.9991
65.0811
64.1622
63.4905
60.4328
56.1817
97.0579
10.7772
34.8845
-68.5368
9.89194
9.36461
9.82681
10.0984
8.6057
7.63584
9.28922
14.5449
19.8713
16.6097
35.2176
53.4417
60.0566
59.3994
60.3312
59.8457
60.3496
58.0624
56.9684
61.5391
-30.281
115.012
106.588
8.44171
8.36259
7.51213
7.64794
6.63686
3.80348
2.1149
11.9694
-2.25225
-10.0312
28.3193
7.61985
3.70332
11.558
42.2252
53.1068
53.266
51.2004
43.0129
4.33296
-45.6154
127.304
78.4607
6.91428
7.10059
6.88448
6.38185
4.65143
2.40097
-1.57847
-6.60948
-0.440635
4.52233
-3.40745
-5.29614
-1.37483
1.99603
9.37417
22.5558
25.209
32.4164
18.2723
11.3944
5.76383
61.8545
36.2016
5.47791
5.41908
5.27052
5.03611
3.60892
-0.557252
-2.46753
-6.66651
-5.44875
-4.234
-4.15255
-3.65552
-2.00968
-0.987357
0.505399
5.47237
7.80527
2.90978
4.94932
5.5882
2.31108
10.5549
-8.70396
4.30244
4.10857
3.66213
4.02492
2.76101
0.583785
-2.92457
-6.3961
-5.99168
-5.15483
-3.76386
-2.76461
-2.45657
-1.75905
0.149614
1.07722
-0.188292
-0.0965983
1.92872
0.25724
-0.133457
-0.301405
-7.8196
3.23559
2.93978
2.15108
1.5032
0.963543
-0.358859
-3.31965
-6.18109
-6.64482
-5.21486
-4.04041
-3.23813
-2.71226
-2.72919
0.419581
0.112287
-1.2054
-1.24261
-0.568948
-1.12022
-1.14527
-2.29925
-1.06728
2.39152
2.20075
1.63675
0.988256
0.341739
-1.09454
-3.42638
-6.24648
-6.50623
-5.49911
-3.93029
-3.13036
-2.24853
-1.91006
1.87604
-0.813142
-1.29292
-0.328786
-0.89354
-1.81153
-1.8738
-3.10135
-5.69677
1.72308
1.79064
2.04198
0.765273
1.01039
-0.322211
-2.30926
-4.72562
-5.15113
-5.17318
-3.52665
-2.53962
-1.75385
-0.796583
-0.578641
-1.71219
-1.38396
0.204437
-0.569618
-2.79797
-2.6797
-3.13
-5.35247
1.63959
1.47816
1.97266
0.720973
1.92697
0.886012
-1.17616
-2.24958
-3.82259
-4.03491
-2.88908
-2.6394
-1.97883
-0.993334
-0.855267
-0.612473
-1.38097
-1.72494
-1.21702
-2.17899
-4.19509
-4.25258
-4.42466
1.61577
1.25171
2.41043
2.25705
2.60137
1.98603
0.809179
0.0345929
-1.54482
-3.18867
-4.38119
-3.55803
-2.80098
-1.7176
-1.38525
-1.18924
-1.64947
-3.5273
-0.818418
-4.28192
-4.70162
-4.14231
-4.40422
0.975025
1.22679
0.809259
1.84072
3.15418
3.04733
2.43669
0.958706
-0.359137
-2.20437
-7.30079
-6.2334
-4.84571
-2.32032
-1.52596
-1.25712
-1.82565
-3.78282
-4.15189
-4.72314
-5.20065
-4.81884
-4.58839
0.794724
0.897877
-0.0430973
1.07636
2.80481
4.18334
3.95084
0.0529044
-1.27484
-3.87312
-9.58351
-11.3142
-7.08812
-4.13574
-2.97501
-2.79438
-3.87061
-4.84919
-5.43538
-6.44184
-5.8138
-5.13381
-5.11846
0.109392
0.329309
0.693251
1.29666
2.45562
2.93853
7.95375
-0.907783
-5.31807
-6.99489
-8.13846
-10.5566
-8.18518
-5.98445
-5.29968
-4.57906
-5.25931
-6.21952
-6.52463
-7.00055
-6.24047
-5.78181
-5.91829
-1.36735
-0.720219
-0.228774
-0.352408
-0.701354
-0.900416
-1.13372
-5.77039
-7.07888
-7.17621
-7.6124
-8.21376
-8.7557
-8.50056
-6.83851
-6.77658
-6.45615
-7.36832
-7.60581
-7.85509
-7.15493
-6.63427
-6.54066
-1.92926
-2.01938
-2.37301
-3.58347
-6.03952
-10.5713
-4.32663
-6.87315
-7.08354
-7.51357
-7.07661
-8.02116
-8.45638
-8.07605
-7.95726
-8.79635
-8.69061
-8.7212
-8.54978
-8.08005
-7.28373
-6.15412
-5.56161
-2.20043
-2.68908
-3.32717
-4.25473
-7.17925
-8.86344
-7.7795
-6.04344
-6.57668
-7.05758
-7.27085
-7.86373
-7.14517
-6.59488
-7.05748
-7.20623
-8.37363
-8.76228
-9.07186
-8.37201
-7.23205
-6.26894
-5.53481
-2.99714
-3.42251
-3.83691
-4.83037
-7.77673
-11.1543
-11.8089
-4.37737
-6.08913
-6.21628
-8.44057
-7.56645
-7.00664
-6.51782
-6.88726
-6.71328
-7.41357
-8.44576
-9.01699
-8.72697
-8.35486
-6.6066
-5.66654
-3.03338
-3.85458
-4.37531
-5.43365
-7.72683
-8.98567
-9.47377
-9.86537
-8.0887
-9.6731
-7.83851
-7.26404
-6.61234
-6.61559
-7.03008
-7.18226
-7.73204
-8.61738
-9.18391
-7.93148
-8.30288
-7.76838
-6.84846
-3.30371
-3.87576
-4.63057
-5.817
-6.73897
-7.7068
-9.29624
-9.01006
-8.83653
-8.40874
-7.31145
-7.56059
-6.47136
-6.26552
-6.77567
-7.39013
-8.40392
-8.76635
-9.14291
-8.66895
-7.38552
-7.07566
-6.13452
-3.58756
-4.08849
-4.5049
-4.64814
-5.4313
-7.12775
-8.13359
-8.05132
-8.65496
-8.77334
-7.58095
-6.89675
-6.2167
-6.41168
-7.48112
-6.57852
-8.31064
-8.74107
-8.87952
-7.39952
-7.51137
-6.75715
-6.09016
-5.75472
-4.8351
-4.65235
-5.3392
-6.06046
-6.97545
-7.21661
-7.6144
-8.56821
-7.48266
-6.80934
-6.82577
-6.33717
-6.84579
-6.94952
-7.10411
-7.25211
-7.31316
-7.62382
-7.34503
-7.16307
-6.60948
-6.08902
-6.65661
-4.39406
-5.15993
-4.84078
-6.97738
-6.20995
-6.82745
-6.95233
-6.98703
-6.45736
-6.46461
-6.7091
-6.36292
-6.96553
-6.10677
-6.90111
-6.79386
-6.64242
-6.46093
-6.40816
-6.72407
-6.19483
-6.3693
-4.53679
-5.29395
-5.68815
-5.81763
-6.20522
-5.69698
-5.96922
-5.79302
-6.46717
-6.21015
-6.18598
-6.86719
-7.10815
-6.38689
-5.86402
-6.49219
-6.52524
-6.34679
-6.36008
-6.19431
-6.30519
-5.73387
-5.91781
-4.48255
-5.08642
-5.16244
-5.10789
-5.27567
-5.34456
-5.41208
-6.25175
-6.36025
-6.09408
-5.81412
-6.8164
-6.11601
-5.38938
-5.90269
-5.90333
-5.83831
-5.96499
-5.92122
-5.46981
-5.39983
-5.45806
-5.34932
-4.66235
-5.05205
-4.33587
-5.33078
-5.17016
-5.61586
-5.88534
-5.99927
-5.8011
-5.74153
-5.70548
-5.83903
-5.30646
-5.44764
-5.56368
-5.38219
-5.56584
-5.52661
-5.13755
-5.19283
-5.13185
-5.01713
-5.27888
-4.83165
-5.16968
-5.26976
-5.59387
-5.74455
-5.42581
-5.46839
-5.38181
-5.35354
-5.39676
-5.21765
-5.69943
-5.12238
-5.45023
-5.35956
-5.01732
-6.02338
-6.082
-4.82583
-4.94506
-4.79388
-5.08199
-4.87841
-4.90726
-5.2181
-5.27665
-5.30508
-5.09352
-5.12655
-5.21889
-5.22322
-5.31639
-5.44078
-5.45819
-5.43208
-5.30922
-5.30886
-5.25688
-5.13668
-5.41688
-5.26664
-4.93662
-4.9199
-4.9176
-4.94888
-4.97285
-4.97086
-5.19824
-5.1284
-5.21166
-5.24545
-5.26339
-5.27819
-5.27326
-5.27047
-5.36346
-5.30924
-5.13417
-5.13352
-5.01234
-5.27876
-4.9829
-5.51858
-5.37792
-5.35953
-4.91134
-4.89886
-4.89852
-4.795
-4.70743
-5.23866
-5.19684
-5.24069
-5.21061
-5.21975
-5.16528
-5.1688
-4.99624
-5.34881
-5.23249
-5.19443
-5.25918
-5.2516
-5.27509
-5.17124
-5.32081
-5.18881
-5.08397
-4.99355
-4.96411
-5.11705
-4.89188
-5.62192
-5.52608
-5.30327
-5.33871
-5.30132
-5.31763
-5.32512
-5.34431
-5.40277
-5.40067
-5.30453
-5.3425
-5.25675
-5.21919
-5.21838
-5.25088
-5.03467
-5.25122
-5.18814
-5.24602
-5.0773
-5.29955
-5.3591
-5.52086
-5.39177
-5.32983
-5.35929
-5.3402
-5.34604
-5.32744
-5.30628
-5.27892
-5.18078
-5.40305
-5.49067
-5.15833
-5.25217
-5.31322
-5.20858
-5.33615
-5.19695
-5.17453
-5.12485
-5.14147
-5.08462
-5.32049
-5.50506
-5.4189
-5.44041
-5.43206
-5.42583
-5.43574
-5.41931
-5.43696
-5.43344
-5.49106
-5.4475
-5.27325
-5.26451
-5.30744
-5.3659
-5.33114
-5.27967
-5.29108
-5.24497
-5.28829
-5.23937
-5.25139
-5.4681
-5.52557
-5.50034
-5.50737
-5.49718
-5.49618
-5.508
-5.50303
-5.49236
-5.45346
-5.42103
-5.33721
-5.43445
-5.33206
-5.48533
-5.57642
-5.33816
-5.37865
-5.37363
-5.44218
-5.36298
-5.40345
-5.3335
-5.40657
-5.61838
-5.60954
-5.61005
-5.60701
-5.59316
-5.60154
-5.56559
-5.56908
-5.55422
-5.54019
-5.56894
-5.50038
-5.49964
-5.40875
-5.46217
-5.46343
-5.44952
-5.5163
-5.52508
-5.51805
-5.43381
-5.59038
-5.47695
-5.64921
-5.63668
-5.63107
-5.64303
-5.60037
-5.78175
-5.81763
-5.72078
-5.80991
-5.69848
-5.69843
-5.76619
-5.67783
-5.6839
-5.70865
-5.64272
-5.55598
-5.5105
-5.70435
-5.60048
-5.67321
-5.61335
-5.78969
-5.97855
-5.96162
-5.93468
-5.90917
-5.83768
-5.782
-5.45786
-5.64132
-5.46465
-5.64014
-5.62289
-5.52075
-5.63751
-5.5561
-5.63144
-5.66548
-5.5929
-5.68972
-5.8149
-5.6217
-5.75116
-5.7649
-6.00584
227.371
215.473
169.347
183.513
147.666
173.371
142.512
181.29
199.841
224.431
223.589
134.983
-48.5815
46.7008
99.5633
152.637
-12.7812
-144.937
37.1695
54.5261
-9.72931
-17.6449
-12.2401
-0.328305
115.325
-1.36799
-39.2448
53.3828
76.3654
88.0876
55.2776
42.3661
15.9296
6.0133
11.7176
9.00862
-5.14544
-5.36629
-1.92618
-1.22463
-8.4257
-7.76349
-7.38182
-5.42501
1.22389
0.59247
0.356401
1.4916
-4.48905
-4.53364
-3.64855
0.398632
-5.68586
-5.40925
-4.57233
-3.78257
-4.3366
-4.00599
-3.53666
-2.98709
-4.1235
-3.82572
-3.23559
-3.15473
-4.11599
-4.06095
-3.58875
-3.47078
-4.82687
-4.0921
-3.93666
-3.21371
-5.66284
-4.91183
-4.14152
-3.64168
-6.02761
-5.44011
-5.0451
-4.65163
-5.13145
-5.14575
-5.12565
-5.07931
-5.27272
-5.00256
-4.61747
-4.48462
-5.45557
-5.40672
-5.40404
-5.06211
-5.99044
-5.46167
-5.15282
-5.34836
-5.48818
-5.20097
-5.04844
-4.78015
-5.82389
-5.27612
-5.03177
-4.81739
-5.64054
-5.43419
-5.03749
-4.85795
-6.25072
-6.28292
-5.79696
-5.2104
-6.01513
-6.14535
-5.99448
-5.51027
-5.7673
-5.62533
-5.81146
-5.59206
-5.41219
-5.22506
-4.96096
-5.00785
-5.30866
-5.14555
-5.04222
-5.03964
-5.20092
-5.24347
-5.37892
-5.21054
-4.83795
-5.01156
-4.87953
-5.03791
-5.04521
-5.13729
-5.18162
-5.30832
-5.06433
-5.03604
-5.03083
-5.03271
-5.34687
-5.17771
-5.25939
-5.14379
-5.49509
-5.68472
-5.6458
-5.65915
-5.57989
-5.45856
-5.46888
-5.54678
-5.4373
-5.41668
-5.4934
-5.67835
-5.99586
-6.01959
-6.0158
-5.9092
-5.86783
-5.91565
-5.97097
-6.12145
139.028
317.089
254.193
206.379
203.818
218.061
211.16
147.611
136.154
145.585
218.428
272.898
228.804
228.761
241.086
241.193
236.355
229.237
220.307
171.34
227.909
177.169
125.918
152.877
140.596
74.2926
77.7821
35.8776
43.9351
89.5108
172.433
160.196
202.955
179.508
225.429
217.189
213.704
202.275
215.377
211.756
136.583
102.342
97.3692
88.5915
72.0827
58.8317
42.6013
37.1532
68.8366
103.454
169.631
156.502
142.316
166.199
166.582
188.289
190.626
179.054
137.627
139.53
65.9024
47.2913
48.2238
65.5201
43.4851
41.045
45.6679
53.7173
78.5293
79.9311
146.556
136.428
120.646
114.953
146.254
181.895
63.2979
83.1014
44.6991
29.6595
29.5831
32.8259
28.8606
29.9582
60.3873
58.1294
56.1782
58.9727
86.0673
123.583
130.457
103.713
113.748
149.552
183.943
18.2682
26
24.1954
23.147
25.9494
27.1847
25.4838
13.4792
43.9173
48.1744
51.5096
35.9795
81.0426
107.904
90.3541
94.2968
108.52
165.275
198.448
18.1382
21.93
20.5631
21.2767
25.255
24.9975
20.5404
30.1783
32.7798
13.2674
23.5269
61.6346
80.2684
74.7094
57.9785
67.6652
103.856
137.425
200.616
24.6478
19.2316
18.5327
19.0599
22.1632
21.9701
17.7342
17.7386
30.0282
39.8071
30.1852
40.5495
65.6826
44.1983
32.9217
36.0938
40.6243
82.3011
172.675
22.2848
15.1128
16.3097
19.3376
16.0771
16.5001
13.091
12.6788
6.76948
33.9011
38.8284
32.1276
30.8333
12.1955
13.3339
12.2603
-3.54049
-6.38177
86.6213
3.75483
12.1486
13.8468
13.3054
6.70845
1.03994
8.56203
5.67482
9.14172
10.007
13.0682
17.478
8.83336
5.98501
3.4134
-6.5951
-10.6736
-8.41346
6.30645
1.60694
5.58488
7.3412
6.20865
2.90362
2.6548
4.81571
4.11974
4.69499
6.18077
5.69787
10.6573
3.12604
3.08772
1.86324
-5.0372
-7.37712
-5.39097
-0.104681
0.65804
6.27664
5.61814
1.43817
0.144526
0.430748
3.06954
2.40571
3.40812
0.685508
5.8619
6.89311
3.79164
2.86597
0.52013
-1.52209
-2.55327
-1.79455
0.635806
-3.73618
2.23376
0.887242
0.492551
-0.120755
-0.269153
-0.627698
-1.04549
-0.873887
-1.45748
-1.26212
1.24641
2.49897
3.36171
2.08894
0.567883
-0.141378
0.437346
0.553549
-3.50068
-0.759009
-0.272588
-0.981838
-0.69856
-0.925765
-1.12357
-1.29822
-1.80739
-1.97005
-2.03492
1.07004
2.4697
2.38653
2.48977
1.70475
0.661334
0.554795
0.826592
-2.97715
-1.59048
-1.08929
-1.17333
-1.24349
-0.867675
-1.37639
-1.74059
-2.13839
-2.71228
-3.90085
-1.34025
2.60838
3.40412
2.66348
1.3142
1.18339
1.24168
0.95301
-2.79056
-1.46448
-1.98978
-1.7142
-1.42243
-1.28762
-1.30399
-1.51492
-1.83496
-1.82822
-1.58994
2.93339
5.48442
3.96058
3.01315
1.21624
1.10383
1.4356
0.819729
-3.05295
-1.83319
-2.71562
-2.1099
-1.21796
-1.26904
-1.33082
-1.56344
-1.5364
-1.39224
-2.26232
1.97452
2.57473
2.54083
2.09302
1.21368
0.344998
1.00049
0.903204
-2.35201
-2.26636
-2.47186
-2.026
-1.59358
-1.68837
-1.57007
-1.68595
-1.65244
-1.60686
-2.10056
-1.41758
-2.1804
-0.153091
0.961245
0.444121
0.0588817
0.506506
0.439612
-3.03884
-2.68153
-2.70898
-2.34769
-2.03235
-1.9959
-1.75
-1.81376
-1.86437
-2.5132
-2.02106
-2.3208
-0.312979
-1.39181
-1.53722
-0.914369
-0.648261
-0.38675
-0.157154
-3.38905
-2.93954
-3.34753
-2.85016
-2.33108
-2.37793
-2.15603
-1.68299
-2.14913
-2.44219
-2.4445
-2.25569
-1.73406
-1.70011
-1.27092
-1.61969
-1.21642
-0.540703
-0.55309
-4.99151
-4.37976
-2.96892
-3.08429
-2.66916
-2.41405
-2.41826
-2.84419
-2.29661
-1.98292
-1.99036
-2.1169
-1.84104
-1.82847
-1.80961
-1.79453
-1.59699
-1.05722
-0.935256
-4.73381
-4.38479
-3.67687
-3.04355
-3.06343
-2.96985
-2.65171
-2.63184
-2.55516
-2.40734
-2.21904
-2.09189
-2.10191
-1.95486
-1.82958
-1.59383
-1.60393
-1.30165
-1.27318
-4.16002
-4.30308
-4.13245
-3.71318
-3.18559
-3.16286
-3.3161
-2.69456
-2.74216
-2.78486
-2.57138
-2.21074
-2.22183
-2.03896
-2.15726
-1.84208
-1.95017
-1.69643
-1.59801
-5.15996
-3.76588
-3.84679
-3.78512
-3.62621
-3.40193
-3.24991
-3.27966
-2.80575
-2.52207
-2.60247
-2.34564
-2.34254
-2.13778
-2.31155
-2.20249
-2.19954
-2.08035
-1.99776
-4.91132
-4.22087
-3.95793
-3.80044
-3.28735
-3.25341
-3.20885
-3.38578
-3.01219
-2.87713
-2.84655
-2.50806
-2.58472
-2.467
-2.53342
-2.46297
-2.3431
-2.32935
-2.26571
-4.72956
-5.10631
-4.54961
-4.08444
-3.77531
-3.48528
-3.29478
-3.57893
-3.18821
-3.10677
-3.10874
-2.69966
-2.75976
-2.68657
-2.63744
-2.50967
-2.54012
-2.52294
-2.50398
-4.55163
-4.77245
-4.12445
-4.02764
-3.52458
-3.49773
-3.26194
-3.54224
-3.24527
-3.04793
-3.28911
-2.96596
-2.93072
-2.89921
-2.85791
-2.7721
-2.73191
-2.73163
-2.69115
-4.57177
-4.2218
-4.62241
-4.76157
-4.34125
-3.74139
-3.67805
-3.71889
-3.65402
-3.20002
-3.2455
-3.22814
-3.1639
-3.14957
-3.06764
-3.00079
-2.91497
-2.9468
-2.89187
-5.4718
-4.7331
-5.08091
-4.664
-4.63
-4.06509
-3.67176
-3.82288
-3.83919
-3.53575
-3.53271
-3.38989
-3.34442
-3.32034
-3.29276
-3.1616
-3.10708
-3.14898
-3.07964
-5.34324
-5.52148
-4.80417
-4.25721
-4.39054
-4.71223
-3.82408
-3.71316
-3.89297
-3.94462
-3.70699
-3.67812
-3.53437
-3.52901
-3.56804
-3.32869
-3.3015
-3.39092
-3.29574
-5.26606
-5.0688
-5.13245
-4.81761
-4.68998
-4.7749
-4.56581
-4.04399
-4.04064
-3.84193
-4.1008
-3.87494
-3.66401
-3.58317
-3.815
-3.4918
-3.5523
-3.53684
-3.49722
-5.06569
-4.77533
-5.18418
-4.7092
-4.70563
-4.67935
-4.77836
-4.54054
-4.50966
-4.44313
-4.24086
-4.05281
-3.92171
-4.08283
-4.07077
-3.69443
-3.83273
-3.7257
-3.72281
-5.34265
-4.97708
-4.91822
-5.07688
-5.53952
-5.04246
-5.11215
-4.91425
-4.67893
-4.76951
-4.59843
-4.21665
-4.13077
-4.0917
-4.10922
-4.01055
-3.91961
-3.91539
-3.89825
-4.86677
-5.17172
-5.56748
-5.31079
-5.06293
-5.35958
-5.2108
-5.38846
-5.08853
-4.93937
-4.60983
-4.60751
-4.53893
-4.2201
-4.30798
-4.17222
-4.21995
-4.1298
-4.11779
-5.05953
-5.35294
-5.77101
-6.07188
-5.50587
-5.8559
-5.64941
-5.59659
-5.36564
-5.08898
-4.88902
-4.70584
-4.56589
-4.51363
-4.39322
-4.41639
-4.35781
-4.33055
-4.31655
-5.01248
-5.17732
-5.01459
-5.35624
-5.86805
-6.30465
-5.75139
-5.77777
-5.40496
-5.31831
-5.07017
-5.09409
-4.94311
-4.83101
-4.64905
-4.62466
-4.59493
-4.57336
-4.52863
-5.11392
-5.26071
-5.39441
-5.54382
-6.00415
-6.26084
-5.88839
-5.89391
-5.67329
-5.35294
-5.3436
-5.01344
-5.05014
-5.21348
-4.79118
-4.86548
-4.779
-4.7466
-4.6926
-5.83949
-5.53075
-5.28636
-5.33568
-5.78646
-5.57961
-5.97839
-5.91987
-5.79535
-5.76741
-5.43939
-5.43455
-5.37315
-5.2328
-5.01771
-5.04426
-4.94745
-4.9336
-4.91917
-5.67742
-5.73635
-5.415
-6.21925
-5.99444
-5.77945
-6.23023
-5.9694
-5.86237
-5.59516
-5.62935
-5.39272
-5.4196
-5.37589
-5.15152
-5.20672
-5.13215
-5.10928
-5.09771
-5.44858
-5.84014
-6.31241
-6.15694
-6.08966
-6.39475
-6.13369
-5.91842
-5.84805
-5.6917
-5.58728
-5.43309
-5.5443
-5.44138
-5.31727
-5.33782
-5.27376
-5.25987
-5.28158
-5.79676
-5.8687
-6.30448
-6.30002
-6.04202
-6.14276
-6.16506
-5.99385
-5.83091
-5.685
-5.58965
-5.58206
-5.6687
-5.75214
-5.48619
-5.5531
-5.43292
-5.47452
-5.47443
-6.25543
-6.41317
-6.1652
-6.06332
-6.50504
-6.05986
-5.88471
-5.81605
-5.78514
-5.75223
-5.82021
-5.59577
-6.04311
-5.88935
-5.54772
-5.66701
-5.63028
-5.64243
-5.62688
)
;

boundaryField
{
    leftWall
    {
        type            calculated;
        value           nonuniform List<scalar> 
50
(
817.847
759.239
702.467
641.607
587.241
523.753
480.912
403.382
353.11
117.002
91.717
17.6648
11.7208
10.9467
9.89194
8.44171
6.91428
5.47791
4.30244
3.23559
2.39152
1.72308
1.63959
1.61577
0.975025
0.794724
0.109392
-1.36735
-1.92926
-2.20043
-2.99714
-3.03338
-3.30371
-3.58756
-5.75472
-6.65661
-4.53679
-4.48255
-4.66235
-4.83165
-4.90726
-4.97086
-4.70743
-5.62192
-5.52086
-5.50506
-5.52557
-5.61838
-5.64921
-5.97855
)
;
    }
    rightWall
    {
        type            calculated;
        value           nonuniform List<scalar> 
50
(
443.462
385.292
340.119
302.04
266.012
244.808
234.198
232.538
220.307
202.275
190.626
181.895
183.943
198.448
200.616
172.675
86.6213
6.30645
-0.104681
0.635806
0.553549
0.826592
0.95301
0.819729
0.903204
0.439612
-0.157154
-0.55309
-0.935256
-1.27318
-1.59801
-1.99776
-2.26571
-2.50398
-2.69115
-2.89187
-3.07964
-3.29574
-3.49722
-3.72281
-3.89825
-4.11779
-4.31655
-4.52863
-4.6926
-4.91917
-5.09771
-5.28158
-5.47443
-5.62688
)
;
    }
    lowerWall
    {
        type            calculated;
        value           nonuniform List<scalar> 
62
(
847.276
841.621
826.698
804.491
793.79
770.354
769.687
768.231
775.978
785.201
783.813
787.31
787.332
786.974
789.057
792.831
788.85
790.035
787.201
786.777
785.949
786.002
787.045
757.616
698.76
640.288
581.459
523.416
464.551
408.629
345.678
289.918
278.059
231.932
246.098
1224.52
1097.76
899.703
812.654
696.578
597.095
497.372
384.915
1253.8
1019.82
820.23
668.73
542.27
501.505
545.701
579.523
600.914
621.236
699.529
738.741
704.963
691.019
587.356
489.284
454.702
438.019
472.527
)
;
    }
    atmosphere
    {
        type            calculated;
        value           nonuniform List<scalar> 
46
(
-5.72904
-5.72904
-5.72904
-5.72904
-5.72904
-5.72904
-5.72904
-5.72904
-5.72904
-5.72904
-5.72904
-5.72904
-5.72904
-5.72904
-5.72906
-5.72963
-5.74838
-5.83459
-5.79895
-5.72935
-5.82826
-5.8281
-6.04176
-6.10922
-6.17276
-6.16734
-6.18598
-6.19221
-6.31609
-6.40048
-6.32973
-6.40329
-6.21707
-6.10482
-5.98441
-5.87271
-5.74579
-5.72935
-5.74501
-6.73498
-6.21238
-5.74668
-5.72907
-5.72904
-5.72904
-5.72904
)
;
    }
    defaultFaces
    {
        type            empty;
    }
}


// ************************************************************************* //
