/*--------------------------------*- C++ -*----------------------------------*\
| =========                 |                                                 |
| \\      /  F ield         | foam-extend: Open Source CFD                    |
|  \\    /   O peration     | Version:     4.1                                |
|   \\  /    A nd           | Web:         http://www.foam-extend.org         |
|    \\/     M anipulation  |                                                 |
\*---------------------------------------------------------------------------*/
FoamFile
{
    version     2.0;
    format      ascii;
    class       volScalarField;
    location    "0.35";
    object      alpha1;
}
// * * * * * * * * * * * * * * * * * * * * * * * * * * * * * * * * * * * * * //

dimensions      [0 0 0 0 0 0 0];

internalField   nonuniform List<scalar> 
2268
(
1
1
1
0.999999
1
1
1
1
1
1
1
1
1
1
1
1
1
1
1
1
1
1
0.999811
0.999999
0.999999
0.999999
0.999999
1
1
1
1
1
1
1
1
1
1
1
1
1
1
1
1
1
1
0.999648
0.999999
0.999999
0.999999
1
1
1
1
1
1
1
1
1
1
1
1
1
1
1
1
1
1
1
0.999568
1
1
1
1
1
1
1
1
1
1
1
1
1
1
1
1
1
1
1
1
1
1
0.999651
1
1
1
1
1
1
1
1
1
1
1
1
1
1
1
1
1
1
1
1
1
1
0.999831
1
1
1
1
1
1
1
1
1
1
1
1
1
1
1
1
1
1
1
1
1
1
0.999935
1
1
1
1
1
1
1
1
1
1
1
1
1
1
1
1
1
1
1
1
1
1
0.999978
1
1
1
1
1
1
1
1
1
1
1
1
1
1
1
1
1
1
1
1
1
1
0.999995
0.00290445
0.0257775
0.0693514
0.0562918
0.0190684
0.00245699
4.78406e-05
3.82847e-23
2.21104e-23
4.41383e-23
6.05763e-23
9.20145e-23
2.13738e-22
5.84071e-22
8.89649e-23
3.76548e-23
8.33454e-25
2.88219e-26
7.47263e-28
0.017149
0.0652772
0.0693514
0.0363589
0.00919338
0.000883916
8.40695e-06
4.61555e-22
1.10668e-21
4.43927e-21
1.15595e-20
1.73129e-20
1.28513e-20
1.2146e-19
2.0756e-21
4.12294e-22
7.07787e-24
4.33607e-25
1.09054e-26
0.25298
0.139404
0.0320534
0.00538344
0.000792313
8.03374e-05
2.33313e-07
2.66222e-17
1.65144e-16
4.43132e-15
2.75805e-14
4.72809e-14
2.90657e-15
2.42761e-14
1.28289e-17
2.1091e-21
4.37123e-23
3.21473e-24
8.5822e-26
0.570814
0.105739
0.00412831
0.00180133
4.30016e-05
1.18599e-06
8.52565e-10
4.55917e-15
1.93691e-12
8.08151e-11
5.35055e-10
1.02016e-09
3.75817e-10
2.45063e-10
1.06961e-12
5.29381e-21
1.38445e-22
1.70581e-23
5.47895e-25
0.558705
0.0226316
0.000271127
0.000915218
4.53418e-06
2.28897e-09
2.76003e-13
1.23298e-13
1.39453e-10
1.26645e-08
1.77227e-07
4.86584e-07
3.6536e-07
2.23301e-07
4.58319e-09
7.24686e-21
2.45561e-22
5.46053e-23
2.99124e-24
0.160015
0.000534779
0.00013762
0.000357263
1.8422e-06
4.96058e-13
5.87232e-18
2.77004e-14
6.12303e-11
2.27144e-08
1.11472e-06
1.07945e-05
2.71636e-05
2.27711e-05
1.58717e-06
3.98058e-21
2.04663e-22
1.14549e-22
1.49004e-23
0.0769142
0.00136955
7.13589e-05
8.93796e-05
4.5473e-07
5.97696e-14
2.88259e-18
9.53864e-16
4.09067e-12
2.31289e-09
1.97064e-07
5.22283e-06
0.000117434
0.000458113
8.04856e-05
1.38699e-21
8.94876e-23
1.21719e-22
7.00375e-23
0.0336423
0.00212253
8.84305e-06
6.86603e-06
3.78673e-06
2.45106e-05
6.94046e-05
4.26215e-14
1.35049e-11
2.09287e-10
2.62357e-20
-1.49867e-21
3.05872e-20
0.00364124
0.000924367
2.00376e-23
6.73566e-24
2.08822e-23
2.27864e-22
0.999997
0.999995
0.999996
0.999992
0.999993
0.999984
0.999983
0.999972
0.999898
0.999809
0.99971
0.999462
0.999563
0.9998
0.999945
0.999978
0.999987
0.999993
0.999997
1
1
1
0.999999
0.998223
0.997549
0.997897
0.996334
0.996947
0.995249
0.995077
0.993049
0.984563
0.974587
0.964941
0.945354
0.950994
0.969853
0.989162
0.996854
0.998486
0.99905
0.999561
0.999907
0.999993
1
0.999998
0.908185
0.894379
0.901414
0.87224
0.884577
0.858409
0.850129
0.817626
0.723496
0.630373
0.556285
0.451081
0.474138
0.59389
0.794165
0.92646
0.967481
0.974657
0.982627
0.991433
0.99724
0.999101
0.999565
0.362032
0.335079
0.349053
0.291843
0.317811
0.269997
0.24682
0.189292
0.1048
0.0576939
0.0345241
0.021087
0.0278824
0.0489562
0.108784
0.334582
0.707288
0.798869
0.778025
0.811886
0.901019
0.961613
0.985522
0.0144313
0.0132771
0.0135046
0.0102155
0.0123589
0.00957867
0.00726468
0.00431859
0.00224643
0.00101314
0.000367184
0.000221203
0.000551528
0.00252279
0.00650187
0.0152568
0.0394041
0.150042
0.196873
0.247044
0.302837
0.463766
0.665882
0.000301555
0.00032236
0.0002507
0.000222742
0.000310859
0.000266339
0.000194733
0.000105344
4.88908e-05
1.36192e-05
2.6062e-06
7.41658e-06
1.73582e-05
6.91666e-05
0.000145073
0.000368486
0.000971581
0.00969438
0.0158562
0.0244372
0.0248517
0.0602318
0.108867
5.96669e-06
6.7101e-06
3.5002e-06
3.47429e-06
5.59485e-06
6.00065e-06
6.04219e-06
4.27618e-06
1.9881e-06
4.09494e-07
6.68341e-07
5.95127e-06
1.60453e-05
3.14118e-05
3.09691e-05
3.19358e-05
5.35532e-05
0.000281592
0.000604551
0.00100971
0.000968296
0.00186132
0.00207902
1.01252e-07
1.04203e-07
3.37178e-08
2.23603e-08
4.27724e-08
7.82782e-08
1.55507e-07
1.31838e-07
7.01213e-08
8.73697e-08
1.05764e-06
1.07026e-05
5.65924e-05
5.74876e-05
2.7735e-05
1.14871e-05
2.17638e-05
7.34238e-05
9.93204e-05
0.000105287
0.000109091
0.00014868
0.000555201
1.36862e-09
1.02401e-09
1.9848e-10
8.33696e-11
2.62104e-10
7.03465e-10
1.93804e-09
1.4103e-09
2.14627e-09
9.38029e-08
2.26333e-06
5.00943e-06
5.09738e-05
5.74844e-05
3.31428e-05
4.84118e-06
6.0785e-06
5.08057e-05
0.000167465
0.00016882
0.00012026
0.000108589
0.000219822
1.70649e-11
9.64221e-12
1.65388e-12
5.07869e-13
1.94679e-12
7.00439e-12
2.46163e-11
6.48599e-11
1.57972e-09
8.77347e-08
2.35823e-06
1.65368e-06
9.71782e-06
1.06484e-05
3.2056e-06
5.46698e-07
6.00027e-07
4.21584e-06
5.98518e-06
5.38296e-06
7.60639e-06
6.32143e-06
6.14399e-06
1.09414e-12
6.86658e-13
1.13313e-13
1.03184e-13
8.2832e-13
4.9344e-12
2.36207e-11
8.13892e-11
3.40731e-09
1.70087e-08
5.02066e-07
1.82724e-07
2.34351e-07
1.30006e-07
3.89979e-08
1.69347e-08
5.97223e-09
1.72586e-08
1.39336e-08
1.09424e-08
1.46924e-08
9.8943e-08
2.89699e-07
2.52362e-13
1.55925e-13
1.75745e-14
5.22836e-14
9.78437e-13
5.80764e-12
2.59884e-11
4.40924e-11
4.15918e-09
9.13176e-09
2.49687e-08
8.88784e-09
1.50101e-08
6.33323e-09
2.04594e-09
5.26011e-10
1.20185e-10
7.63379e-11
7.44633e-11
1.20567e-10
1.12181e-09
1.13034e-08
8.25906e-09
4.06876e-14
2.38439e-14
3.34835e-15
3.01257e-14
1.0551e-12
3.22524e-12
5.37218e-12
7.1411e-12
1.48221e-09
2.10985e-09
8.10127e-09
1.9859e-09
2.32208e-09
1.37442e-09
8.80033e-10
3.94395e-10
1.10817e-10
1.49271e-11
4.64356e-12
5.38526e-12
1.72271e-11
1.82235e-11
1.56038e-11
5.00482e-15
2.98776e-15
1.06145e-15
1.47737e-14
8.91729e-13
7.50354e-13
8.62641e-13
1.58577e-12
9.13134e-10
6.95995e-10
3.77733e-10
1.24249e-10
8.49659e-10
9.31377e-10
7.45405e-10
3.76349e-10
1.16812e-10
1.31773e-11
5.34686e-13
1.6244e-14
1.38382e-14
1.05397e-14
1.11396e-14
1.15926e-15
7.28771e-16
3.69371e-16
5.25072e-15
3.12468e-13
1.29896e-13
1.56885e-13
3.38074e-13
8.00404e-13
1.9201e-12
1.12542e-11
6.33097e-11
7.60699e-10
5.81405e-10
2.17536e-10
6.76566e-11
8.58723e-12
5.91272e-13
1.0539e-14
1.71569e-16
6.60159e-17
6.70425e-17
3.27743e-14
3.25063e-16
1.81532e-16
1.25545e-16
2.1799e-15
9.58944e-14
2.04274e-14
3.45481e-14
5.71698e-14
1.74277e-13
4.00304e-13
8.70046e-12
6.06699e-11
1.9319e-10
9.71781e-11
2.49188e-11
7.64564e-12
6.81597e-13
3.02021e-14
8.10787e-16
1.07342e-16
8.01335e-17
1.36725e-16
1.17105e-11
7.12939e-17
3.96715e-17
4.04352e-17
9.0287e-16
1.34198e-14
3.67671e-15
9.70941e-15
1.11994e-14
2.87657e-14
3.08756e-14
2.04137e-12
7.05127e-12
1.94175e-11
9.69494e-12
2.8541e-12
8.83328e-13
1.26233e-13
9.75999e-15
5.7465e-16
1.40691e-16
9.48811e-17
1.40475e-15
4.00489e-10
1.06013e-17
8.95665e-18
1.25317e-17
3.12693e-16
2.00061e-15
8.48835e-16
2.92578e-15
2.00476e-15
1.41094e-15
1.22458e-15
2.51504e-13
8.59239e-13
1.71751e-12
8.29704e-13
3.01843e-13
8.20717e-14
1.16425e-14
1.61754e-15
3.45008e-16
1.5109e-16
8.84118e-17
1.06215e-14
2.60643e-09
1.35988e-18
2.40029e-18
3.62977e-18
1.03802e-16
3.40218e-16
2.92328e-16
9.75902e-16
4.5407e-16
2.8699e-16
2.56858e-16
1.86599e-14
7.45618e-14
8.15572e-14
3.7273e-14
9.07248e-15
3.54608e-15
1.04795e-15
3.66758e-16
1.75927e-16
8.6041e-17
5.77691e-17
5.57139e-14
7.48945e-09
7.76947e-24
1.02543e-22
1.43823e-18
6.90713e-18
1.50192e-17
4.83217e-17
1.33171e-16
1.55194e-16
5.06258e-17
5.76633e-17
1.00745e-15
3.54866e-15
1.96963e-15
1.6886e-15
1.04983e-15
5.39388e-16
1.87195e-16
8.18698e-17
3.71086e-17
1.31763e-17
4.06377e-17
2.23526e-13
1.39616e-08
3.42988e-24
4.09015e-23
3.18702e-21
6.59486e-20
9.80176e-19
8.56312e-18
2.03026e-17
2.55241e-17
8.06073e-18
1.32885e-17
1.77358e-16
3.04481e-16
3.05993e-16
2.32045e-16
1.49127e-16
9.02543e-17
2.75319e-17
1.01888e-17
3.6612e-18
1.25259e-18
4.48515e-17
5.4271e-13
1.517e-08
1.42858e-24
1.04627e-23
4.17734e-22
6.16885e-21
9.30665e-20
7.09371e-19
1.76946e-18
5.04452e-19
3.7019e-19
3.91407e-18
5.69923e-17
4.97094e-17
3.57777e-17
2.0662e-17
1.31119e-17
8.13638e-18
3.15965e-18
1.11103e-18
3.32886e-19
1.35672e-19
4.68149e-17
1.32441e-12
9.21238e-09
5.45689e-25
2.12356e-24
1.16916e-23
2.28305e-23
8.23403e-24
4.96097e-22
7.00725e-22
3.51029e-21
1.17304e-20
1.25739e-18
3.21044e-18
3.15689e-18
1.76608e-18
5.35455e-19
1.99038e-19
6.87346e-20
1.77768e-20
4.6046e-21
2.40938e-21
1.59295e-21
4.2641e-17
3.75487e-12
9.29904e-09
1.65888e-27
3.55284e-26
2.62149e-25
1.07711e-25
3.94237e-25
2.83282e-24
7.26338e-24
3.43576e-23
4.87155e-23
4.98098e-21
5.61814e-21
3.53995e-21
1.66359e-21
5.16293e-22
3.74267e-23
2.75538e-23
8.66433e-24
1.88459e-23
6.08361e-23
1.54428e-21
3.92382e-17
1.20693e-11
1.35205e-08
1.75821e-35
2.16405e-35
6.75773e-34
2.25274e-31
1.02621e-29
1.08906e-28
4.05458e-27
3.28862e-26
4.79368e-25
1.10472e-24
9.90563e-25
1.03732e-24
6.16091e-25
3.55514e-25
6.88027e-26
1.92661e-25
5.73618e-25
2.19853e-23
8.93328e-23
2.25226e-21
2.28006e-17
2.64623e-11
1.61278e-08
1.22584e-37
1.61592e-36
6.09374e-35
6.31029e-33
5.00721e-32
1.29796e-30
2.12281e-27
7.62768e-27
1.40292e-26
3.08432e-26
3.81648e-26
4.16398e-26
1.5206e-26
3.44293e-27
3.05803e-26
2.84197e-25
8.21765e-25
2.86754e-23
1.26627e-22
3.44783e-21
1.11331e-17
5.58447e-11
3.23835e-08
1.52946e-39
2.46829e-39
1.30499e-37
3.81908e-37
5.46321e-34
1.38278e-32
3.20926e-32
8.43189e-32
2.19635e-31
4.93314e-31
8.70754e-31
2.15387e-30
6.22352e-29
4.85974e-27
4.63055e-26
4.43256e-25
1.51932e-24
3.40156e-23
1.52406e-22
5.22159e-21
4.64683e-18
7.25159e-11
4.67479e-08
1.04497e-43
7.09125e-40
8.77533e-38
2.0157e-37
6.97952e-37
3.37421e-36
1.98354e-35
6.95334e-35
2.81125e-34
2.24491e-33
5.10321e-32
1.5146e-30
1.17621e-28
7.32057e-27
6.61619e-26
5.90624e-25
2.37149e-24
4.10358e-23
1.83803e-22
7.4301e-21
4.41653e-18
2.31488e-11
1.26694e-08
2.59796e-49
7.09051e-47
2.47033e-44
1.74495e-42
9.89986e-41
4.60815e-39
1.24134e-37
2.89643e-36
7.11892e-35
1.76676e-33
6.00084e-32
2.54148e-30
1.85594e-28
1.01823e-26
9.10224e-26
7.39334e-25
3.38773e-24
4.87714e-23
2.26265e-22
8.90393e-21
3.51935e-17
3.03607e-12
3.91629e-09
3.96741e-51
9.91506e-47
2.02298e-44
1.14621e-42
5.46906e-41
1.95245e-39
6.76373e-38
2.0472e-36
6.42453e-35
2.05165e-33
7.75404e-32
3.35441e-30
2.64869e-28
1.37187e-26
1.05176e-25
9.10211e-25
4.28406e-24
3.29614e-23
2.87264e-22
8.98185e-21
2.32003e-17
1.41171e-12
1.64241e-09
4.83562e-51
9.7081e-48
2.4404e-45
2.60395e-43
1.88514e-41
9.54352e-40
4.05185e-38
1.49752e-36
5.35292e-35
2.00552e-33
8.48125e-32
3.87301e-30
1.16427e-28
1.5983e-26
1.02865e-25
9.68197e-25
5.59693e-24
3.55248e-23
5.11768e-22
6.52483e-21
1.53206e-18
9.50075e-14
2.80693e-10
9.32571e-51
6.40361e-48
1.39446e-45
1.51009e-43
9.81062e-42
6.2781e-40
3.44182e-38
1.8424e-36
9.76502e-35
4.75542e-33
2.10502e-31
8.98231e-30
2.45208e-28
5.9601e-27
5.44069e-26
6.07701e-25
6.05674e-24
5.32522e-23
5.30291e-22
5.29888e-21
4.88723e-20
1.42915e-15
5.86462e-12
6.8346e-52
5.22021e-49
1.18474e-46
1.46867e-44
1.52998e-42
1.44513e-40
1.22776e-38
9.77784e-37
6.80778e-35
4.00193e-33
1.86872e-31
6.33862e-30
1.49237e-28
2.37445e-27
2.19547e-26
2.60759e-25
2.74645e-24
2.30845e-23
1.86033e-22
7.13932e-22
4.09373e-21
2.10277e-19
9.12154e-17
2.8359e-54
2.17357e-51
6.23593e-49
9.86592e-47
1.5952e-44
2.40318e-42
3.23026e-40
3.49339e-38
2.8252e-36
1.77793e-34
8.48667e-33
3.08912e-31
8.38698e-30
1.78684e-28
2.97905e-27
4.67955e-26
5.45227e-25
6.19267e-24
3.91346e-23
7.06035e-22
2.41598e-21
7.24916e-21
1.30461e-20
1.22617e-56
1.39512e-53
6.36085e-51
1.91648e-48
5.30817e-46
1.24653e-43
2.41385e-41
3.48794e-39
3.82151e-37
3.21755e-35
2.09247e-33
1.02564e-31
3.5604e-30
9.2632e-29
1.87249e-27
3.51503e-26
5.21463e-25
6.25634e-24
5.61781e-23
4.33206e-22
1.93457e-21
6.98254e-21
1.5704e-20
1.06803e-59
1.64032e-56
9.14734e-54
4.17849e-51
1.482e-48
4.27256e-46
9.64969e-44
1.82106e-41
2.86602e-39
3.7146e-37
3.68102e-35
2.7525e-33
1.52689e-31
6.29886e-30
2.03131e-28
5.54509e-27
1.07854e-25
1.63207e-24
2.00826e-23
2.34719e-22
1.83995e-21
5.69993e-21
1.89026e-20
9.87987e-64
1.47169e-60
7.85383e-58
3.90712e-55
1.65156e-52
7.55105e-50
3.21621e-47
1.32619e-44
4.70807e-42
1.33561e-39
2.49138e-37
3.34587e-35
3.22133e-33
2.21362e-31
1.11021e-29
4.29113e-28
1.12236e-26
2.30438e-25
3.47514e-24
4.18173e-23
3.46223e-22
2.22126e-21
1.14842e-20
5.2625e-68
1.44507e-64
9.02339e-62
3.91044e-59
1.24165e-56
3.43243e-54
9.16774e-52
2.77548e-49
9.97437e-47
3.70423e-44
1.21615e-41
3.91624e-39
1.02795e-36
2.71049e-34
3.72685e-32
3.23099e-30
1.43212e-28
4.23845e-27
8.63705e-26
1.33027e-24
3.88097e-23
5.06617e-22
6.09937e-21
3.03053e-76
6.20849e-72
6.67497e-69
3.52286e-66
1.15724e-63
3.04292e-61
5.73406e-59
1.01662e-56
1.46447e-54
2.42367e-52
4.74012e-50
1.18327e-47
3.15295e-45
3.13667e-42
7.92987e-35
1.43479e-32
6.60049e-31
1.74892e-29
3.52155e-28
5.95824e-27
1.03245e-25
1.6896e-24
3.19454e-23
2.29993e-90
4.66569e-87
1.78052e-84
3.04943e-82
3.15786e-80
2.31971e-78
1.31652e-76
6.21074e-75
2.43318e-73
8.4462e-72
3.54668e-70
1.84932e-68
1.62452e-66
5.43113e-64
9.01689e-46
2.72099e-35
2.77823e-33
8.37659e-32
1.70456e-30
2.46334e-29
3.41829e-28
3.63345e-27
4.50631e-26
4.34633e-104
2.45611e-100
9.75756e-98
1.76881e-95
1.8885e-93
1.44011e-91
7.83433e-90
3.16665e-88
1.02963e-86
3.47418e-85
1.48244e-83
8.64314e-82
9.68469e-80
2.04499e-77
6.40775e-72
6.13707e-39
1.29635e-36
6.80004e-35
2.60381e-33
8.12306e-32
3.66924e-30
2.61267e-28
3.42773e-27
0
0
0
0
0
0
0
0
0
0
0
0
0
0
0
1.30834e-57
4.11003e-40
9.943e-38
9.46688e-36
4.60405e-34
1.26552e-32
5.2327e-31
1.40523e-28
0.99998
0.999684
0.998408
0.909299
0.999994
0.999958
0.9998
0.992492
0.999863
0.999879
0.999875
0.999784
0.995731
0.998042
0.998945
0.999126
0.796748
0.855687
0.903244
0.940533
0.165766
0.21251
0.280288
0.306033
0.00478185
0.00870331
0.0157373
0.0158771
0.00134989
0.00134155
0.00106853
0.000773898
0.000312365
0.000275002
0.000132999
8.32538e-05
6.16748e-06
7.13902e-06
6.2539e-06
7.16163e-06
3.46515e-07
3.67454e-07
4.30352e-07
6.27806e-07
8.67607e-09
1.38259e-08
2.17079e-08
1.51995e-08
1.19737e-11
1.27803e-11
1.17101e-11
8.8397e-12
1.0561e-14
9.59177e-15
8.33911e-15
6.48466e-15
1.2666e-13
2.29651e-13
3.22487e-13
4.40078e-13
3.73568e-11
9.91668e-11
9.45675e-11
6.1165e-11
1.06296e-09
2.71512e-09
2.2257e-09
1.15975e-09
6.34111e-09
1.68509e-08
9.85178e-09
1.2792e-08
1.74715e-08
3.91848e-08
4.55202e-08
9.71046e-08
4.27101e-08
8.62486e-08
2.60072e-07
2.05259e-06
8.5953e-08
6.52523e-07
2.8264e-06
2.8331e-05
1.90767e-07
5.79869e-06
2.19986e-05
0.00011355
6.9319e-07
2.92072e-05
0.000194016
0.000385063
1.9725e-06
8.52515e-05
0.000738885
0.00160639
2.73417e-06
0.000123042
0.00107504
0.00180507
5.2886e-07
3.81753e-05
0.00057391
0.00174486
9.6118e-07
2.89874e-05
0.000242416
0.000740206
4.34359e-07
2.14456e-05
0.000178856
0.000441344
1.66946e-07
1.28878e-05
0.000161784
0.000582375
6.63978e-08
7.79835e-06
0.000159175
0.000776551
1.62811e-08
3.01103e-06
7.1745e-05
0.000403419
4.21192e-10
2.69681e-07
1.71899e-05
0.000196814
2.2095e-14
5.59854e-10
4.79579e-07
3.01502e-05
1.30819e-20
7.01709e-21
7.00613e-22
3.56202e-22
2.05038e-20
1.4128e-20
2.1698e-21
-9.29393e-23
3.7612e-20
3.18378e-20
8.86391e-21
-1.53794e-24
4.45244e-20
5.08774e-20
3.1153e-20
4.06625e-27
2.36129e-20
4.97407e-20
4.51175e-20
-2.98449e-31
4.71349e-22
3.26923e-21
1.34492e-20
1.08485e-27
9.12602e-25
4.32521e-24
7.01269e-23
1.88525e-21
4.38803e-26
3.62235e-25
2.17793e-24
1.32124e-23
2.64694e-27
1.41636e-26
5.86119e-26
2.27431e-25
0.0287031
0.000198786
8.97395e-06
7.37662e-06
2.32837e-05
0.00151316
0.0102408
0.000132013
0.00522263
0.00152394
0.00232525
0.00583828
0.0165691
0.0235099
0.00512938
1.95525e-06
3.25344e-11
5.47599e-15
6.62291e-21
0.785984
0.220188
0.0502005
0.000683064
6.69578e-05
0.00087606
0.00462713
0.0113916
0.0950237
0.0483735
0.081555
0.101614
0.112139
0.0710401
0.0111639
8.97976e-05
2.53609e-07
6.44391e-10
1.29521e-14
0.989103
0.883082
0.69424
0.342101
0.146419
0.0261023
0.0188507
0.102309
0.566249
0.480606
0.547002
0.595162
0.434703
0.106577
0.00361628
0.000309998
0.000161346
2.9834e-06
8.33571e-10
0.999108
0.996372
0.989193
0.936579
0.847296
0.493391
0.302677
0.476219
0.832482
0.974988
0.985036
0.981201
0.85883
0.326831
0.0734364
0.0343208
0.0136171
0.000892594
1.90175e-06
0.948394
0.968492
0.978714
0.976627
0.97624
0.943229
0.915311
0.942372
0.978468
0.994714
0.995068
0.992318
0.982919
0.945399
0.780606
0.486589
0.234325
0.0337727
0.000338141
0.417642
0.502518
0.535629
0.635966
0.77243
0.687839
0.71993
0.763998
0.823843
0.941072
0.990088
0.994964
0.994964
0.993467
0.990709
0.982992
0.900359
0.337275
0.0159989
0.0517887
0.0241007
0.0325167
0.109888
0.171709
0.0763005
0.154875
0.155324
0.167666
0.325066
0.45467
0.736951
0.946367
0.993992
0.995024
0.995024
0.986303
0.666812
0.0723613
0.00215609
0.0014936
0.00084585
0.00321031
0.00611166
0.00280907
0.00641456
0.00282247
0.00457836
0.0203573
0.0324833
0.0733781
0.471669
0.915379
0.994852
0.987233
0.892802
0.537955
0.0785391
0.000494777
0.00101042
0.000538049
0.000125243
4.17926e-05
1.77287e-05
1.85889e-05
1.91347e-05
4.29754e-05
0.000339077
0.00749446
0.0569397
0.454263
0.906072
0.987812
0.886831
0.323185
0.0487862
0.0608738
6.3884e-05
0.00032916
0.000299711
9.06708e-05
1.05333e-05
8.48077e-06
8.49637e-06
6.9269e-05
5.80458e-05
0.00010934
0.00376618
0.0190949
0.212623
0.738925
0.962399
0.687963
0.110314
0.00377433
0.0250172
2.84888e-06
0.000102176
0.000309264
0.000311875
0.00016859
2.32771e-05
9.53101e-05
0.000346673
0.00019621
0.000227215
0.00207711
0.0105303
0.0715832
0.535894
0.935188
0.673568
0.129649
0.00403158
0.00664787
1.71514e-07
9.25887e-06
4.09344e-05
0.000247007
0.000297683
0.00017027
0.000191524
0.000370351
0.000371265
0.00031826
0.00073941
0.00162195
0.0101402
0.279832
0.828635
0.406704
0.0308892
0.000623979
0.000539041
1.30788e-09
6.28692e-09
6.41111e-07
1.6529e-05
8.27207e-05
0.000162705
0.000122356
0.000162346
0.000204691
0.000156069
0.000132116
0.000286036
0.00408064
0.221558
0.71574
0.268967
0.00671804
0.000650672
0.00179112
6.26144e-15
3.79381e-14
4.13275e-13
2.52351e-07
8.2146e-06
4.79294e-05
3.98841e-05
3.01897e-05
4.23936e-05
3.28938e-05
1.51242e-05
3.49729e-05
0.000155061
0.0113015
0.429078
0.221009
0.00564845
0.00593896
0.054665
8.81469e-14
3.77559e-12
1.96831e-12
9.87762e-10
1.31072e-07
1.85875e-06
4.10669e-06
3.14905e-06
3.15077e-06
2.02847e-06
1.27102e-06
2.97396e-06
5.0353e-06
0.00048563
0.310443
0.155096
0.00429435
0.00903146
0.258767
1.43414e-11
1.48791e-09
4.90952e-09
1.82842e-09
1.71328e-09
2.0841e-08
1.08773e-07
1.23514e-07
6.43901e-08
2.47204e-08
6.41294e-08
1.66812e-07
2.46547e-06
0.00230104
0.324073
0.048597
0.00171951
0.00336458
0.467135
1.50301e-09
1.50299e-07
2.72283e-06
2.07841e-06
6.62232e-07
7.92012e-08
3.87102e-09
1.89755e-09
1.05949e-09
1.04879e-09
3.56771e-09
2.50364e-08
0.000217575
0.0245337
0.323776
0.00440145
0.00171403
0.053538
0.550715
3.27103e-07
7.71706e-06
0.000116032
9.07468e-05
2.21495e-05
1.90937e-06
5.24456e-08
1.04879e-09
1.04879e-09
1.04879e-09
1.86738e-09
2.64044e-05
0.027559
0.147484
0.182706
0.00669365
0.117204
0.49536
0.512445
2.09634e-05
0.000211888
0.000863735
0.000713332
0.000269787
3.80655e-05
1.62741e-06
1.80801e-08
1.04879e-09
1.04879e-09
2.28042e-09
0.00104258
0.0419394
0.120662
0.065951
0.10304
0.261888
0.648286
0.654572
0.000257385
0.0014342
0.00213193
0.00207379
0.00086923
0.000112723
4.41478e-06
4.43643e-08
1.04879e-09
1.09406e-09
1.59517e-06
0.00215582
0.0267638
0.0384647
0.0253852
0.12448
0.0874971
0.266038
0.654572
0.000930864
0.00213193
0.00214104
0.00213193
0.00114961
0.000197619
1.01063e-05
1.1897e-07
1.06628e-09
2.13192e-08
4.58403e-05
0.00174674
0.00617781
0.00494142
0.00503652
0.0586483
0.0153979
0.0404942
0.585092
0.00124393
0.00134657
0.000990076
0.000644976
0.000537629
0.000175174
1.12885e-05
1.06441e-07
1.06804e-09
9.12167e-08
3.75626e-05
0.000440687
0.000402799
0.000316673
0.000835106
0.00516762
0.00368362
0.00992473
0.563707
0.00126409
0.000491785
0.000344152
0.000183515
0.000159227
7.34377e-05
5.6734e-06
5.49684e-08
1.11285e-09
2.16316e-08
8.18435e-06
3.35742e-05
4.81232e-05
0.000293655
0.00129442
0.00177448
0.00149418
0.00391538
0.500467
0.00109464
0.000397846
0.000845837
0.000167631
2.04761e-05
9.35675e-06
1.02849e-06
1.38228e-08
1.13174e-09
3.70032e-09
3.03715e-07
2.79186e-06
8.22118e-05
0.000536699
0.00121566
0.000360934
0.0002296
0.00109994
0.254677
0.00180689
0.000510478
0.000852578
0.000208694
6.11142e-06
4.12788e-07
5.90082e-08
3.62105e-09
1.30864e-09
2.66592e-09
4.21966e-08
3.9269e-06
0.000165366
0.00142337
0.00861982
0.00233817
0.000221216
0.000238864
0.0602995
0.00180507
0.000574648
0.000490133
0.000202406
4.29143e-06
3.4665e-07
4.99496e-08
1.85748e-08
1.59284e-08
2.11599e-08
2.26555e-06
8.32873e-05
0.00165181
0.00454768
0.0129993
0.00726782
0.00031251
0.000151769
0.100818
0.00125716
0.000571154
0.00069105
0.000462094
7.64769e-06
1.4053e-06
7.36364e-07
1.49805e-06
2.07477e-06
1.73746e-05
0.000346943
0.00130399
0.00169528
0.00217983
0.0115784
0.0237186
0.000862815
0.000150909
0.318184
0.000606529
0.000809455
0.00106483
0.00100834
2.79257e-05
2.68617e-06
3.04057e-05
0.000157781
0.00031017
0.000419966
0.00119093
0.00122538
0.000386472
0.000167621
0.00425911
0.0365145
0.0101337
0.00114375
0.407275
0.00107111
0.000796311
0.000497827
0.000717525
8.28719e-05
9.51911e-06
0.000161925
0.000819468
0.00104636
0.00105006
0.000999817
0.000480987
3.18509e-05
3.06304e-05
0.00117669
0.0294019
0.0613637
0.0111902
0.401628
0.0012498
0.0010753
0.000169462
0.000228555
0.000174925
0.000180982
0.000608462
0.00067244
0.000467288
0.000577159
0.000398208
7.63783e-05
3.06304e-05
5.42323e-05
0.00111399
0.0734485
0.182707
0.0559987
0.164141
0.0011397
0.00160428
5.68765e-05
2.85739e-05
0.000136629
0.000312585
0.000383092
0.00016836
0.000142131
0.000140085
0.00014618
0.000100847
8.61509e-05
0.000762308
0.014289
0.26915
0.356482
0.164902
0.0218914
0.000932339
0.00160565
8.93515e-05
1.37113e-05
4.75457e-05
0.000175906
0.000175127
0.000220816
0.000212011
0.000282189
0.000990005
0.00116763
0.00312768
0.0491403
0.28766
0.356482
0.356685
0.162
0.00894089
0.000446025
0.00116748
0.000437661
1.37113e-05
5.1533e-05
0.000265382
0.000271945
0.000823116
0.00548966
0.00684988
0.02577
0.0275382
0.156889
0.353181
0.360428
0.316898
0.162027
0.0622035
0.00653769
0.000169699
0.000837803
0.00132805
0.000155899
0.00058849
0.00183107
0.00290616
0.00915352
0.0221031
0.0272328
0.0308757
0.0664473
0.208697
0.284506
0.254817
0.0999067
0.0205381
0.0114757
0.00645971
3.25314e-05
0.000462219
0.00142427
0.0019017
0.00199475
0.00220019
0.00472773
0.0103927
0.010941
0.00981193
0.0131129
0.0347775
0.064253
0.0519155
0.0352754
0.00763835
0.00137052
0.00223986
0.00357717
9.98513e-07
8.06623e-05
0.000687794
0.00125077
0.000717403
0.000772045
0.00226887
0.00260842
0.00130146
0.000582181
0.000911207
0.00214483
0.00422717
0.00222673
0.000688577
0.000103138
0.000439109
0.000772598
0.00111281
2.78972e-09
2.04675e-06
7.51723e-05
0.000278061
3.8969e-05
4.25787e-05
0.000219971
7.87648e-05
9.53311e-06
1.46243e-06
4.23093e-06
1.05518e-05
3.25371e-05
1.31645e-05
1.453e-06
2.36889e-05
0.000259661
0.000160102
0.000140875
8.57703e-13
5.17405e-09
8.83175e-07
8.02061e-06
1.15982e-07
2.0019e-07
1.65665e-06
8.81373e-08
1.16941e-09
3.85018e-11
3.3111e-10
3.36517e-09
2.78275e-08
6.74011e-09
2.38039e-07
2.66375e-05
0.000123643
5.78633e-05
5.78633e-05
9.2246e-18
5.15793e-13
4.28374e-10
8.96388e-09
9.07023e-12
4.79011e-11
3.89443e-10
1.84988e-12
1.60714e-15
3.84911e-16
2.47662e-14
4.04444e-13
2.87091e-12
3.03147e-11
1.28371e-07
2.29369e-05
0.000236609
0.000196083
0.000113403
4.48971e-20
2.50096e-18
3.71096e-15
1.57337e-13
1.5883e-17
2.93737e-16
1.51513e-15
5.58853e-19
7.1855e-20
4.39438e-19
2.64978e-18
1.04538e-17
8.97841e-17
9.3198e-12
5.32775e-08
1.39086e-05
0.000316971
0.00120182
0.00131519
7.49343e-23
6.38445e-22
1.37741e-21
2.34056e-20
4.81042e-21
7.19896e-21
9.49615e-21
1.35674e-20
2.78643e-20
6.79744e-20
1.1639e-19
2.02368e-19
8.3604e-19
4.34263e-13
7.54363e-09
4.74422e-06
0.000189372
0.000925814
0.00120489
1.15537e-24
3.40338e-23
1.99962e-22
8.45993e-22
2.44759e-21
4.52818e-21
6.68673e-21
9.19051e-21
1.52134e-20
3.19251e-20
7.09924e-20
1.60444e-19
3.11053e-19
9.35967e-16
9.53364e-11
2.40444e-07
2.44298e-05
0.000207355
0.000381158
)
;

boundaryField
{
    leftWall
    {
        type            zeroGradient;
    }
    rightWall
    {
        type            zeroGradient;
    }
    lowerWall
    {
        type            zeroGradient;
    }
    atmosphere
    {
        type            inletOutlet;
        inletValue      uniform 0;
        value           nonuniform List<scalar> 
46
(
0
0
0
0
0
0
0
0
0
0
0
0
0
0
0
0
0
0
0
0
0
0
0
0
0
0
0
0
3.40338e-23
1.99962e-22
8.45993e-22
2.44759e-21
4.52818e-21
6.68673e-21
9.19051e-21
1.52134e-20
3.19251e-20
7.09924e-20
1.60444e-19
3.11053e-19
9.35967e-16
9.53364e-11
2.40444e-07
2.44298e-05
0.000207355
0.000381158
)
;
    }
    defaultFaces
    {
        type            empty;
    }
}


// ************************************************************************* //
