/*--------------------------------*- C++ -*----------------------------------*\
| =========                 |                                                 |
| \\      /  F ield         | foam-extend: Open Source CFD                    |
|  \\    /   O peration     | Version:     4.1                                |
|   \\  /    A nd           | Web:         http://www.foam-extend.org         |
|    \\/     M anipulation  |                                                 |
\*---------------------------------------------------------------------------*/
FoamFile
{
    version     2.0;
    format      ascii;
    class       volScalarField;
    location    "0.7";
    object      p;
}
// * * * * * * * * * * * * * * * * * * * * * * * * * * * * * * * * * * * * * //

dimensions      [1 -1 -2 0 0 0 0];

internalField   nonuniform List<scalar> 
2268
(
572.767
579.811
597.787
600.572
634.611
635.71
659.592
673.685
691.541
704.569
707.208
715.388
721.475
728.135
734.466
744.155
749.489
756.592
761.111
767.151
772.159
777.665
780.933
510.56
516.97
532.802
545.643
576.334
579.08
601.613
612.236
633.113
647.424
644.218
658.839
662.064
665.914
675.421
684.974
691.819
697.064
701.838
708.267
713.199
719.252
722.793
448.505
460.226
476.379
489.154
520.918
510.828
542.077
556.336
579.565
577.706
590.581
600.644
596.134
617.668
610.024
630.159
628.672
638.778
643.593
650.076
654.962
661.234
664.959
378.408
395.17
402.295
432.955
458.898
462.116
482.567
505.943
504.47
533.529
527.656
541.509
543.259
552.174
557.457
566.667
571.97
578.521
584.683
590.083
595.314
603.727
608.753
311.762
328.651
351.248
380.866
396.987
398.86
432.168
442.891
449.373
475.442
470.74
483.133
481.56
494.919
496.251
506.23
514.238
522.57
524.444
532.241
538.467
546.796
551.893
230.969
263.135
280.946
319.453
344.973
345.57
376.641
382.275
399.89
410.197
411.137
422.03
425.417
433.783
442.734
444.362
450.324
457.319
465.883
471.204
475.186
489.519
497.842
162.765
179.488
215.703
255.501
303.912
289.797
324.87
331.904
338.209
350.57
352.894
363.074
366.36
375.669
378.519
380.041
394.298
397.921
410.028
417.059
419.859
435.653
445.95
78.141
120.748
152.403
195.012
252.634
227.722
244.749
283.704
279.144
288.876
293.483
302.636
307.034
313.066
330.354
310.332
354.178
331.315
353.688
341.073
355.206
369.278
393.48
1854.01
1484.62
1155.94
1099.38
1068.22
1013.1
737.657
590.386
532.436
554.946
650.335
774.168
853.055
799.472
696.021
550.162
602.046
555.248
510.079
1688.48
1355.46
1056.95
1033.89
1034.51
955.742
657.744
524.013
413.727
440.419
535.383
765.765
807.862
679.544
617.872
516.817
526.968
493.074
437.051
1367.17
1312.25
895.057
930.261
976.663
928.921
553.523
457.787
412.365
379.465
540.129
712.602
718.756
621.011
585.732
457.296
479.677
421.284
384.868
1268.85
1135
795.026
885.651
933.783
830.161
607.363
452.897
331.244
337.808
474.74
640.471
662.332
583.972
494.922
417.621
424.895
379.17
296.928
1106.96
1003.2
744.718
773.585
863.463
752.959
560.434
454.904
390.502
347.752
465.667
546.096
566.86
539.388
432
399.62
408.285
341.644
251.4
959.81
817.876
653.547
628.216
749.949
728.323
568.219
431.721
322.455
328.333
454.763
489.628
492.063
469.073
373.74
383.145
373.681
279.267
222.561
823.612
700.095
580.952
594.626
664.642
636.399
528.597
443.896
287.06
337.192
291.638
379.022
358.69
372.023
323.128
352.067
316.053
195.012
210.319
676.803
611.593
547.69
558.25
585.412
580.284
504.629
450.666
315.602
267.595
258.046
297.292
350.491
278.195
288.537
321.064
276.608
161.91
208.059
31.8442
47.551
65.1837
93.0631
197.599
172.212
189.765
186.477
188.407
196.705
201.442
210.383
217.637
220.343
244.543
187.438
263.287
239.959
266.225
253.064
261.871
317.133
314.889
12.5545
17.78
8.46939
52.7162
28.7989
92.1247
68.2919
77.0426
72.6442
77.9606
83.4032
92.0814
96.9082
114.352
96.0985
105.237
143.757
106.529
135.936
116.672
131.161
124.088
211.069
11.1484
11.9779
10.3331
15.5555
15.5601
11.6334
10.5153
15.5937
12.7604
14.3126
17.1129
21.6096
23.8281
27.1958
26.7737
28.98
37.7062
40.736
39.0477
30.9581
28.614
60.6558
-11.6465
7.37027
6.21275
3.29813
4.76677
4.23105
4.19601
4.05979
4.32999
4.8067
3.95277
4.96707
4.55632
6.06147
5.41057
4.55221
4.94038
7.00117
8.03228
7.68958
7.20057
4.12286
-27.694
-190.53
4.90783
4.85487
4.63621
3.75494
3.93252
3.70526
3.81054
3.91769
4.20477
3.95621
4.26394
4.11027
3.85558
3.79979
3.81757
3.75043
4.21325
5.07741
6.1166
6.68151
4.20233
-45.0963
-156.384
3.85748
2.91482
3.34975
3.6825
3.32882
3.88738
3.60624
3.89219
3.97835
3.89907
4.09491
3.89121
4.04129
3.6804
3.57899
3.32406
4.04446
4.62691
6.01314
6.48106
7.36703
22.8045
28.757
3.32127
2.47478
3.0228
3.46087
3.58513
3.20014
3.37043
3.85633
3.47526
3.84927
3.71071
3.80987
3.55151
3.43135
2.73682
2.15929
3.47665
4.65357
5.89748
5.64319
5.71986
5.86869
-5.95288
3.51038
3.42359
3.282
3.29684
3.39239
3.39463
3.41969
3.40158
3.19904
4.19487
3.92413
3.63612
3.32672
2.86944
2.21724
1.72366
1.97993
3.74108
5.40484
3.11408
3.64544
13.5426
21.0697
3.11265
3.16238
3.08446
3.21855
3.22255
3.25985
3.30711
3.13555
2.83112
3.23875
2.85321
2.39043
2.18152
1.03197
0.63159
1.23254
0.805977
1.48143
-0.695876
1.46672
8.79831
34.8661
-11.3378
2.85499
2.86671
2.89256
2.98747
2.85322
3.14898
3.21039
3.12978
2.0238
2.65172
1.46265
0.28988
-0.712602
-1.31593
-1.80757
3.9055
12.3707
4.38871
3.8935
12.5861
47.3589
29.2598
6.74474
2.56402
2.59725
2.50309
2.9339
2.65067
2.5263
2.90124
2.81106
1.69803
0.290171
-0.721611
-2.1043
-2.1458
-1.01951
2.91196
1.25244
8.72097
-2.94508
-1.90597
9.9655
-14.2289
-52.7787
0.334599
2.167
2.16837
2.11401
2.07819
2.23708
2.16022
1.94559
1.83872
1.22263
-0.00047776
-1.83839
-2.46417
-2.25239
-1.71438
1.94077
1.26938
-0.492593
-3.43807
-2.13195
1.43059
3.56436
-27.295
7.4371
1.79786
1.77319
1.81696
1.68811
1.75845
1.68478
1.50718
1.15074
0.892129
-0.0502418
-0.743818
-1.61705
-1.64047
-1.70987
-0.492381
-4.91829
-6.60106
-3.1865
-3.07671
-6.02509
-9.26268
-6.11883
-9.22774
1.384
1.33856
1.44432
1.26349
1.33258
1.26069
1.12463
0.698721
-0.502206
-0.424515
-1.14427
-1.461
-1.86486
-1.82766
-2.18083
-3.37619
-4.0901
-2.66794
-3.52667
-8.22816
12.7912
-2.49471
-6.35994
0.938097
0.833378
1.09138
0.22619
0.765381
0.929344
0.816541
0.814082
0.395856
0.071243
-0.880735
-1.03005
-1.67112
-1.86287
-2.87134
-3.27956
-3.63755
-2.73179
-2.89588
-3.61514
-4.44792
-3.61904
-5.49737
0.504449
0.511982
1.00343
0.809677
0.762901
0.449326
0.410279
0.425838
0.249683
0.50261
-0.000336968
-0.635886
-1.62389
-2.30879
-3.15156
-3.2954
-3.55257
-3.5018
0.756784
-2.55148
-4.30685
-4.74309
-6.29974
0.0295788
-0.0967836
-0.452579
-0.0308561
0.543613
0.18598
0.142102
0.0799876
-0.067532
0.449401
0.101073
0.0272772
-1.31073
-2.54371
-4.19787
-4.01911
-3.66357
-3.41655
-2.84066
-3.5507
-5.4388
-5.94932
-6.97297
-0.488937
-0.440392
-1.33544
-0.795309
-0.981076
-0.484079
0.1309
-0.0591962
-0.270096
0.547368
1.0359
-0.235698
-3.74648
-2.55938
-6.48266
-5.82283
-4.62762
-4.59646
-3.90609
-6.19273
-6.51001
-6.66266
-7.75885
-0.702233
-0.63587
-0.468209
-0.669931
-2.13771
-0.496657
-1.48424
-0.725191
-0.391697
-0.208831
-0.287708
-3.0232
-9.83336
-5.5735
-8.18873
-7.44509
-5.99829
-6.04129
-5.31475
-6.29349
-7.04112
-7.67346
-8.60829
-0.910121
-1.00819
-1.02322
-0.972338
-1.15897
-1.6026
-2.49938
-1.73465
-1.64409
-2.74032
-4.28403
-3.11448
-10.236
-6.69346
-7.20077
-7.65621
-7.59277
-7.80073
-7.1879
-7.65398
-8.00033
-8.13766
-9.59975
-1.18995
-1.23502
-1.24438
-1.31675
-1.43628
-1.76171
-1.29414
-2.06814
-3.35409
-5.61864
-8.91034
-9.00861
-14.5864
-5.8497
-6.8187
-6.77823
-7.34813
-8.01272
-7.59198
-7.79307
-8.36554
-8.98149
-10.862
-1.43148
-1.37322
-1.44068
-1.50456
-1.79213
-2.11964
-2.00123
-2.495
-3.44372
-5.52552
-7.26637
-9.29938
-9.56043
-9.67283
-6.53081
-6.66431
-7.19049
-8.30103
-7.2466
-7.08534
-7.9123
-9.62462
-10.4064
-1.60801
-1.63635
-1.76547
-1.83763
-2.23772
-3.07668
-2.55637
-2.76348
-3.61402
-5.1259
-6.92862
-7.29232
-7.88313
-7.42278
-8.32716
-6.97192
-8.22641
-8.86035
-7.87656
-7.63417
-7.54368
-8.5913
-9.17927
-1.88095
-1.87237
-2.0086
-2.17762
-2.07545
-2.17002
-2.69759
-2.67508
-3.80955
-4.9154
-6.77307
-7.24715
-7.57415
-7.78853
-8.11567
-8.97916
-9.7487
-9.0166
-8.12834
-7.58631
-7.62341
-7.94456
-8.37095
-2.23973
-2.24664
-2.26314
-2.41207
-2.45237
-2.66955
-3.24411
-3.91255
-4.79471
-5.2227
-5.44293
-6.56032
-6.26468
-7.45425
-7.67769
-10.0754
-9.16591
-8.47099
-7.9268
-7.18011
-7.66229
-8.17805
-8.68635
-2.15495
-2.58415
-2.61512
-2.51001
-2.46526
-3.07142
-3.28832
-3.95147
-4.79962
-4.82335
-5.05425
-5.50353
-5.83888
-7.14906
-7.68493
-8.83954
-7.35223
-7.5163
-7.1622
-6.78033
-6.95588
-8.02388
-8.35076
-3.6768
-3.0997
-3.12981
-2.63614
-3.67317
-3.42409
-3.45237
-4.8957
-4.7366
-4.66068
-4.45342
-5.70459
-5.57026
-7.2988
-7.90577
-6.97768
-6.67053
-6.81492
-6.44064
-6.09903
-7.47083
-7.09838
-7.37407
-4.18558
-3.00349
-3.66421
-3.99453
-4.53504
-3.21659
-3.9564
-4.45002
-4.11454
-4.59556
-5.25421
-5.25465
-6.53969
-6.81876
-5.51364
-6.48522
-6.46808
-7.18731
-5.78442
-6.87994
-7.55337
-6.44063
-7.19155
-3.2286
-3.90029
-3.6511
-3.5354
-3.65215
-4.11105
-4.3324
-3.90809
-4.31786
-4.78578
-5.34365
-5.81307
-6.14716
-5.70634
-6.72408
-6.14142
-6.00454
-6.05035
-5.95004
-5.91604
-6.1845
-5.66915
-7.29797
-3.57586
-3.93155
-3.58859
-3.89389
-3.41341
-4.12647
-4.0212
-4.31659
-4.8185
-4.59732
-5.33574
-5.77882
-5.12839
-6.00211
-5.78803
-5.62437
-5.64918
-5.99651
-5.53223
-5.38649
-5.67791
-5.36006
-6.42567
-3.81799
-4.1171
-3.61331
-4.39403
-4.53039
-4.63016
-4.72889
-4.95018
-4.94824
-5.03471
-5.20938
-4.90606
-5.0026
-5.34282
-5.23921
-5.30448
-5.6679
-5.57599
-5.2966
-5.31323
-5.41413
-5.38183
-5.40391
-4.13733
-4.4036
-4.56034
-4.53554
-4.63042
-4.54449
-4.63914
-4.69778
-4.74914
-4.78778
-4.91486
-4.90999
-4.8178
-5.50607
-5.08671
-4.9292
-5.8531
-6.05118
-5.03069
-5.20442
-5.15114
-5.23425
-5.29652
-4.29167
-4.42086
-4.45314
-4.52244
-4.45914
-4.56585
-4.62058
-4.68322
-4.76458
-4.78686
-4.86636
-4.99121
-5.08978
-5.10179
-5.11864
-5.0494
-5.45729
-5.00784
-5.05406
-4.9936
-5.06346
-5.13107
-5.24802
-4.52866
-4.66095
-4.61663
-4.70168
-4.71458
-4.75085
-4.7833
-4.79312
-4.80553
-4.86072
-4.95004
-4.92082
-4.96176
-4.87897
-5.19481
-4.94109
-5.43783
-5.41511
-5.48328
-4.84154
-4.98095
-4.9895
-4.97904
-4.27215
-4.72252
-4.71194
-4.79563
-4.77747
-4.81123
-4.80596
-4.84155
-4.74663
-4.86785
-5.05656
-5.05537
-5.07322
-5.13811
-5.16436
-5.00983
-5.2106
-5.1079
-4.99963
-4.93714
-4.91486
-4.97011
-4.75016
-5.29926
-5.12282
-4.98784
-5.00831
-4.98304
-5.01674
-5.04455
-5.0941
-5.18427
-5.21969
-5.13705
-5.14883
-5.11297
-5.1233
-5.1617
-5.27892
-5.06806
-5.20992
-5.192
-5.13793
-5.0121
-5.53951
-5.43068
-5.15711
-5.04444
-5.07906
-5.08139
-5.08713
-5.09732
-5.10653
-5.09711
-5.09894
-5.01569
-5.14844
-5.37632
-5.05605
-5.19035
-5.20696
-5.09033
-5.17956
-5.11777
-5.13115
-5.06819
-5.13715
-4.96817
-5.34147
-5.23956
-5.21899
-5.23205
-5.23195
-5.23805
-5.25063
-5.26293
-5.28423
-5.29761
-5.3622
-5.33255
-5.14698
-5.20605
-5.17895
-5.29814
-5.25737
-5.33963
-5.12809
-5.25341
-5.21387
-5.08915
-5.16142
-5.60062
-5.35478
-5.34251
-5.3546
-5.35506
-5.35989
-5.37659
-5.38986
-5.37051
-5.36343
-5.31682
-5.26407
-5.29629
-5.24303
-5.40225
-5.50907
-5.27876
-5.2311
-5.25969
-5.31324
-5.12367
-5.2935
-5.06178
-5.33088
-5.52351
-5.52073
-5.51927
-5.51651
-5.5068
-5.50947
-5.48073
-5.48828
-5.47812
-5.47511
-5.4984
-5.45669
-5.40474
-5.34045
-5.41807
-5.38658
-5.51389
-5.4466
-5.45816
-5.4992
-5.41044
-5.68015
-5.41619
-5.55819
-5.55714
-5.55552
-5.5821
-5.55559
-5.73723
-5.82757
-5.65735
-5.82422
-5.64912
-5.68908
-5.77281
-5.67974
-5.68469
-5.74515
-5.72466
-5.58671
-5.55075
-5.68217
-5.49417
-5.61008
-5.74593
-6.02673
-5.95134
-5.94272
-5.92031
-5.89208
-5.83421
-5.73407
-5.3933
-5.6637
-5.40294
-5.64106
-5.63766
-5.43733
-5.62901
-5.50838
-5.53632
-5.61418
-5.62518
-5.6629
-5.83143
-5.71917
-5.97398
-5.87924
-6.3041
326.691
363.127
394.375
422.483
228.264
277.414
308.687
389.048
-23.4394
52.5
39.7893
137.224
-247.115
-174.765
-128.474
99.1271
-167.831
-315.594
-33.5496
58.8081
136.165
67.4611
37.8871
13.7775
73.2679
68.567
0.0409016
127.817
52.521
44.6174
47.1777
65.6431
-0.111416
-2.46907
18.5241
30.8374
8.88186
12.0939
22.9382
27.506
9.84617
11.0016
14.442
15.5941
12.5436
4.19176
4.96142
23.6646
6.30084
0.611912
2.13087
3.25825
-5.43914
-4.60315
-5.34516
-5.8481
-5.71516
-5.73879
-6.01087
-6.1055
-6.41137
-6.54281
-6.51898
-6.208
-7.05583
-6.93187
-6.46909
-6.67931
-7.83067
-7.77655
-7.79547
-7.49526
-8.79076
-8.55438
-7.71868
-6.78391
-9.98433
-9.78585
-9.37444
-8.92167
-10.9547
-10.4839
-10.5342
-10.2647
-10.4354
-10.2532
-9.64844
-9.43247
-9.56671
-9.52065
-9.26479
-8.8658
-8.47559
-8.30765
-8.29522
-8.39546
-7.1909
-7.08948
-7.21503
-7.18923
-6.72408
-6.41256
-6.40894
-6.77397
-6.63887
-6.38016
-6.65528
-6.80804
-6.92167
-6.51023
-6.05141
-5.95695
-6.79053
-6.96801
-6.90134
-5.90514
-6.79559
-6.77209
-6.82581
-6.47515
-6.07287
-5.73087
-5.7808
-5.84048
-5.84135
-5.75379
-5.75239
-5.78467
-5.62399
-5.71368
-5.66723
-5.51405
-5.03886
-5.12141
-5.27192
-5.41742
-5.26765
-5.57463
-5.89724
-5.91605
-5.00614
-5.02651
-5.10881
-5.40905
-5.4001
-5.07243
-5.18835
-5.31833
-5.73921
-6.11119
-6.17827
-6.13449
-5.8107
-5.53844
-5.64098
-5.71722
-5.45968
-5.48412
-5.55157
-6.03502
-6.33141
-6.34564
-6.37524
-6.2404
-6.09177
-6.10054
-6.15856
-6.31707
469.403
639.044
546.843
532.973
475.103
524.565
486.593
402.244
259.044
182.849
159.756
165.499
240.76
230.847
178.878
250.33
197.123
155.366
194.643
378.726
568.842
535.952
466.675
440.259
466.912
366.605
318.373
151.022
151.199
114.982
161.944
186.521
201.374
142.829
71.2685
93.6108
112.62
141.482
254.676
366.195
451.347
388.765
375.742
435.856
426.338
298.701
104.481
81.3811
77.6411
119.902
91.2659
120.669
118.373
72.1416
92.1037
98.084
101.071
240.161
310.827
362.856
342.132
376.822
438.856
406.816
67.1969
19.4701
45.8192
60.2704
78.2051
93.212
124.146
85.4585
92.9819
93.9595
95.9678
95.0239
245.767
347.385
306.443
306.373
313.246
194.638
47.22
12.2893
82.6832
46.4484
55.8606
62.9524
66.411
106.337
118.979
113.027
96.7228
88.9533
91.253
131.067
124.195
142.474
122.32
72.4232
38.5587
30.9535
36.2645
42.4896
33.3121
56.5231
61.4734
76.0335
103.554
103.98
84.2196
88.9172
82.1204
83.0031
74.7529
111.594
26.5284
12.6601
22.9378
25.4136
25.8652
28.663
30.6023
11.784
59.4817
29.8448
45.9299
50.836
139.554
64.2427
91.6847
72.9569
79.2202
63.1745
39.949
4.0483
-3.75266
13.9957
21.7907
24.3919
25.3352
29.0589
30.2925
15.831
87.0276
81.169
87.7961
108.517
87.4372
68.1878
54.6977
66.919
34.3955
32.9279
24.3921
14.6695
18.0556
21.9028
23.2832
22.1201
23.7111
46.4456
52.0299
61.2255
82.4404
85.5005
79.23
67.9133
51.7365
53.3046
62.9208
26.6358
26.6988
25.9592
23.7264
20.8591
22.1818
20.7976
19.7145
34.7701
30.291
43.6751
48.2286
16.4348
14.7918
20.6009
20.0355
21.9675
14.9667
48.5442
19.1812
23.0789
30.929
28.4739
21.716
19.6187
18.6667
17.244
16.5736
28.8777
34.173
28.6139
16.8184
15.4193
-1.68902
2.42446
3.94767
6.10207
17.948
21.5637
22.698
29.891
28.3794
18.7212
17.8261
17.295
15.038
11.3487
13.4436
17.3814
17.4586
7.66053
4.40178
1.41406
2.05622
3.57992
4.80566
4.76594
-0.944461
19.2066
26.1201
14.0219
15.9645
11.4439
10.7754
4.12729
1.93847
1.12853
2.3983
5.80914
4.57866
3.20044
1.72032
2.77787
2.23905
4.13092
3.9754
-6.4233
2.7067
2.17848
1.4194
5.40798
0.971803
0.864403
0.650243
0.317567
0.0327453
-0.375024
-1.10219
0.638036
1.17255
1.46919
2.16666
2.3408
2.34279
3.37502
-5.77216
-2.67346
-2.18882
-2.26033
-2.33608
-1.81293
-1.09056
-1.12195
-1.04157
-1.59765
-2.23992
-2.07628
-0.206817
1.14792
1.50268
2.23477
2.12567
2.46096
3.1593
-5.00399
-2.25881
-4.472
-3.22681
-1.89948
-1.10782
-1.03315
-0.913561
-0.72069
-1.10042
-1.55702
-0.70834
0.279767
1.30306
1.36237
1.63913
1.62096
1.62898
2.49666
-7.1598
-3.93357
-5.91812
-2.92266
-0.776608
-0.843511
-0.804454
-0.884918
-0.675694
-0.792491
-0.774682
-0.373788
0.114661
0.710189
0.830503
0.971463
0.872189
0.920341
3.23934
-5.24608
-4.80749
-5.54879
-3.40517
-1.53499
-0.948373
-0.89316
-0.854015
-0.528888
-1.01086
-1.02257
-0.135436
-0.0651116
0.607422
0.486446
0.194157
-0.0747987
-1.51931
4.54859
-6.41185
-5.94388
-5.81151
-3.96121
-2.38282
-1.4225
-1.02458
-0.969709
-0.803283
-0.833732
-0.763135
-0.219105
-0.499458
0.205745
0.0626857
-0.144532
-0.360266
-0.499653
-0.786946
-7.02698
-7.068
-6.08122
-4.58525
-3.09911
-1.64153
-0.879154
-1.18757
-1.04651
-1.16348
-1.2238
-0.904164
-1.15029
0.252948
0.574687
0.121338
-0.211124
-0.61952
0.475495
-10.5415
-9.14394
-5.09151
-4.38608
-2.97968
-1.548
-2.28166
-1.66136
-1.41272
-1.6239
-1.41223
-1.83219
-1.37791
-0.153352
-0.0498574
-0.782477
-0.182525
-0.823625
-0.954199
-9.48171
-8.18664
-5.66935
-4.56721
-3.54061
-3.07691
-2.19927
-2.66804
-1.79444
-1.71417
-1.82573
-2.73307
-2.59314
-0.826615
-0.4878
-0.84676
-1.08984
-1.00047
-1.2353
-8.38436
-8.00712
-6.03037
-4.70719
-3.5822
-2.95427
-3.5659
-2.24029
-2.67193
-3.51963
-2.23857
-2.92363
-4.01423
-2.11018
-1.10916
-1.04731
-1.2315
-1.221
-1.22862
-8.3434
-6.33198
-6.25151
-4.997
-4.00516
-3.81531
-3.295
-3.10744
-2.80757
-2.52209
-2.41035
-2.88177
-3.08357
-2.40391
-1.67449
-1.53106
-1.8014
-1.62951
-1.66453
-7.30945
-5.90148
-5.35394
-4.7503
-3.20122
-3.21485
-3.18336
-3.55264
-2.65715
-2.95169
-3.04614
-2.55899
-2.50057
-2.85753
-1.9902
-2.12389
-1.57613
-1.70655
-1.90001
-7.47651
-5.78479
-5.01901
-5.06229
-4.12826
-3.17941
-3.03371
-3.74252
-3.08993
-3.1377
-3.3208
-2.67088
-2.38643
-2.70844
-2.11881
-1.83221
-1.96739
-1.87961
-2.06643
-7.153
-5.05883
-4.67896
-5.01471
-4.28911
-3.91192
-3.15294
-3.72172
-3.24032
-2.79604
-3.39752
-3.13319
-2.46948
-2.68455
-2.41871
-2.26916
-2.22043
-2.10031
-2.20311
-5.77959
-4.82309
-5.24651
-5.23811
-4.42525
-3.56009
-3.79904
-3.60832
-3.92368
-3.11823
-3.15131
-3.33768
-2.85408
-2.95228
-2.63451
-2.4866
-2.52598
-2.38841
-2.4483
-5.7061
-4.92362
-5.41813
-4.81058
-4.57839
-4.05155
-3.79013
-3.80416
-3.78542
-3.42163
-3.41317
-3.23474
-2.9677
-2.98947
-2.90758
-2.70971
-2.72959
-2.71952
-2.64283
-5.92535
-5.38991
-4.95097
-4.66171
-4.98502
-4.58339
-3.76601
-3.93362
-3.80487
-3.83704
-3.59485
-3.44106
-3.13037
-3.08874
-3.17953
-2.87883
-2.87885
-2.97068
-2.8649
-5.99592
-5.46608
-5.22323
-4.60261
-4.57109
-4.87667
-4.12918
-3.82971
-3.96113
-3.7158
-3.9359
-3.78707
-3.46402
-3.14662
-3.3999
-3.03534
-3.12364
-3.10974
-3.04654
-5.56544
-4.77774
-5.73443
-5.75547
-4.4333
-4.73861
-4.1614
-4.14589
-4.02426
-4.06961
-3.81359
-3.6576
-3.38285
-3.50473
-3.70618
-3.28561
-3.36745
-3.24997
-3.2352
-5.85422
-4.73001
-5.45063
-6.51514
-4.67456
-4.37845
-4.5537
-4.45991
-4.05506
-4.63085
-4.36633
-3.66123
-3.76423
-3.69782
-3.6975
-3.58939
-3.36448
-3.30839
-3.35618
-5.42716
-4.7775
-5.46686
-6.57779
-5.90439
-4.60199
-4.64815
-4.77053
-4.39113
-4.39761
-4.06172
-4.31377
-3.73447
-3.9556
-3.87779
-3.56317
-3.81251
-3.9416
-3.66896
-5.90739
-5.25257
-5.67321
-5.5788
-5.95474
-5.37441
-4.48831
-5.02319
-4.62697
-4.91184
-4.39208
-4.23455
-4.22985
-4.18732
-4.00751
-4.11091
-3.96761
-3.97006
-3.90361
-5.19267
-5.89641
-6.04765
-5.95381
-5.86624
-5.19712
-5.02098
-5.04475
-4.75949
-4.55388
-4.75533
-4.3417
-4.19625
-4.34928
-4.30337
-4.12544
-4.3026
-4.30569
-4.10323
-5.44146
-6.0408
-6.12417
-6.50438
-6.12342
-5.81256
-5.40046
-5.27962
-5.07359
-4.96467
-5.00049
-4.68329
-4.82022
-4.81573
-4.49952
-4.58209
-4.47973
-4.35639
-4.52047
-6.43185
-5.96182
-6.40149
-6.57886
-6.14655
-6.03233
-5.83461
-5.47375
-5.60167
-5.50571
-4.93466
-4.96464
-4.81418
-4.80499
-4.65488
-4.7219
-4.63857
-4.6891
-4.63832
-6.03566
-6.20436
-6.09038
-6.83095
-6.14638
-6.14256
-5.76962
-5.59575
-5.34656
-5.4462
-5.4081
-4.8678
-5.071
-4.99031
-4.80291
-4.96353
-4.8114
-4.8383
-4.9656
-5.39547
-6.28553
-7.01333
-6.68899
-6.10599
-6.12418
-5.93123
-5.44817
-5.64109
-5.3186
-5.49547
-5.04287
-5.19789
-5.27128
-5.08469
-5.18814
-5.14466
-5.20959
-5.11925
-5.93916
-6.1649
-6.56676
-6.47105
-6.48077
-6.05745
-5.97004
-5.5939
-5.71561
-5.54369
-5.47336
-5.50883
-5.43773
-5.44166
-5.32368
-5.36299
-5.37175
-5.37693
-5.36148
-6.52076
-6.79081
-6.2869
-5.98182
-5.92402
-5.88304
-5.77799
-6.06962
-5.53342
-5.49467
-5.35391
-5.8044
-5.58611
-5.61174
-5.59516
-5.60398
-5.64395
-5.66796
-5.67216
)
;

boundaryField
{
    leftWall
    {
        type            calculated;
        value           nonuniform List<scalar> 
50
(
572.767
510.56
448.505
378.408
311.762
230.969
162.765
78.141
31.8442
12.5545
11.1484
7.37027
4.90783
3.85748
3.32127
3.51038
3.11265
2.85499
2.56402
2.167
1.79786
1.384
0.938097
0.504449
0.0295788
-0.488937
-0.702233
-0.910121
-1.18995
-1.43148
-1.60801
-1.88095
-2.23973
-2.15495
-3.6768
-4.18558
-3.2286
-3.57586
-3.81799
-4.13733
-4.29167
-4.52866
-4.27215
-5.29926
-5.15711
-5.23956
-5.35478
-5.52351
-5.55819
-5.95134
)
;
    }
    rightWall
    {
        type            calculated;
        value           nonuniform List<scalar> 
50
(
510.079
437.051
384.868
296.928
251.4
222.561
210.319
208.059
194.643
141.482
101.071
95.0239
91.253
83.0031
79.2202
66.919
62.9208
48.5442
17.948
4.76594
3.9754
3.37502
3.1593
2.49666
3.23934
4.54859
-0.786946
0.475495
-0.954199
-1.2353
-1.22862
-1.66453
-1.90001
-2.06643
-2.20311
-2.4483
-2.64283
-2.8649
-3.04654
-3.2352
-3.35618
-3.66896
-3.90361
-4.10323
-4.52047
-4.63832
-4.9656
-5.11925
-5.36148
-5.67216
)
;
    }
    lowerWall
    {
        type            calculated;
        value           nonuniform List<scalar> 
62
(
602.197
609.24
627.216
630.001
664.04
665.139
689.022
703.114
720.97
733.998
736.638
744.818
750.904
757.564
763.895
773.584
778.918
786.021
790.541
796.581
801.589
807.095
810.362
780.933
722.793
664.959
608.753
551.893
497.842
445.95
393.48
389.277
425.715
456.943
484.979
1854.01
1688.48
1367.17
1268.85
1106.96
959.81
823.612
676.803
1883.3
1513.9
1185.22
1128.66
1097.5
1042.38
766.941
619.67
561.711
584.155
679.493
803.405
882.332
828.64
725.129
579.287
631.202
584.391
539.073
)
;
    }
    atmosphere
    {
        type            calculated;
        value           nonuniform List<scalar> 
46
(
-5.72904
-5.72904
-5.72904
-5.72904
-5.72904
-5.72904
-5.72904
-5.72904
-5.72904
-5.72904
-5.72904
-5.72904
-5.72904
-5.72907
-5.73072
-5.76715
-5.85083
-5.78649
-5.76379
-5.80576
-5.99726
-6.02179
-6.25605
-6.38064
-6.42242
-6.45346
-6.45553
-6.40692
-6.58278
-6.46601
-6.20791
-6.11976
-5.94975
-5.76489
-5.74194
-5.75616
-5.76817
-6.18112
-6.74394
-5.92371
-5.7442
-5.73446
-5.74908
-5.77682
-5.79191
-5.78631
)
;
    }
    defaultFaces
    {
        type            empty;
    }
}


// ************************************************************************* //
