/*--------------------------------*- C++ -*----------------------------------*\
| =========                 |                                                 |
| \\      /  F ield         | foam-extend: Open Source CFD                    |
|  \\    /   O peration     | Version:     4.1                                |
|   \\  /    A nd           | Web:         http://www.foam-extend.org         |
|    \\/     M anipulation  |                                                 |
\*---------------------------------------------------------------------------*/
FoamFile
{
    version     2.0;
    format      ascii;
    class       volVectorField;
    location    "0.7";
    object      U;
}
// * * * * * * * * * * * * * * * * * * * * * * * * * * * * * * * * * * * * * //

dimensions      [0 1 -1 0 0 0 0];

internalField   nonuniform List<vector> 
2268
(
(-0.00123325 0.00926103 0)
(-0.0628724 0.0199918 0)
(-0.0922003 0.0154145 0)
(-0.137607 -0.0147441 0)
(-0.165141 0.00401797 0)
(-0.186123 -0.0104409 0)
(-0.206261 -0.0023524 0)
(-0.164556 0.00388179 0)
(-0.140412 -0.0091541 0)
(-0.0810279 -0.00609574 0)
(-0.0582922 0.00504676 0)
(-0.0528409 -0.0148173 0)
(-0.0326113 0.00359176 0)
(-0.0265704 0.0142469 0)
(-0.0197401 -0.00220442 0)
(-0.00947706 0.00164409 0)
(0.00595916 -0.0099634 0)
(0.0126648 0.00189206 0)
(0.0216267 -0.000259788 0)
(0.0215938 0.00206969 0)
(0.0187571 0.00486589 0)
(0.00978615 0.00102815 0)
(0.00791545 0.00152381 0)
(-0.000891646 0.0205414 0)
(-0.0573811 0.0226006 0)
(-0.0952508 0.0162455 0)
(-0.140978 -0.0186352 0)
(-0.166648 0.00557848 0)
(-0.184421 0.0249376 0)
(-0.199971 -0.00325779 0)
(-0.164291 -0.0204683 0)
(-0.121489 -0.0113122 0)
(-0.066453 0.0227399 0)
(-0.0682114 -0.0205568 0)
(-0.0645305 -0.0169623 0)
(-0.038604 0.0117861 0)
(-0.0490581 -0.0359976 0)
(-0.0476068 0.00823401 0)
(-0.0329185 -0.0153548 0)
(-0.0132063 -0.00842795 0)
(0.00163361 -0.00976127 0)
(0.0105073 -0.00398428 0)
(0.0134731 -0.000873485 0)
(0.0119933 0.000731887 0)
(0.00492408 0.00405853 0)
(-0.00366135 0.00686104 0)
(-0.0160023 0.0382295 0)
(-0.0672875 0.0323604 0)
(-0.0988276 0.0402381 0)
(-0.145559 0.0022571 0)
(-0.15536 0.0146301 0)
(-0.201243 -0.00790791 0)
(-0.221718 -0.0196879 0)
(-0.160343 -0.0462132 0)
(-0.107441 0.0136824 0)
(-0.0826183 -0.0530887 0)
(-0.0795515 -0.0205154 0)
(-0.0551176 -0.0147697 0)
(-0.0735508 -0.0123893 0)
(-0.068546 -0.0273978 0)
(-0.0604809 -0.0112934 0)
(-0.0611201 -0.0045863 0)
(-0.0443294 -0.00862175 0)
(-0.0293725 -0.00871135 0)
(-0.00748289 -0.0147597 0)
(0.000744519 0.00195161 0)
(0.00558143 0.00941262 0)
(0.00570112 0.00834678 0)
(-0.000495371 0.00191007 0)
(-0.0251418 0.0577032 0)
(-0.0601793 0.058849 0)
(-0.0954755 0.0443549 0)
(-0.161846 0.0104986 0)
(-0.166423 0.025893 0)
(-0.203857 -0.0329961 0)
(-0.218957 -0.0257532 0)
(-0.14511 -0.012462 0)
(-0.141989 0.00714826 0)
(-0.117741 -0.0655749 0)
(-0.0959936 -0.00049244 0)
(-0.122723 -0.00578386 0)
(-0.123652 -0.00975662 0)
(-0.128798 0.00469843 0)
(-0.128605 -0.017079 0)
(-0.119021 -0.000579298 0)
(-0.114236 -0.0367836 0)
(-0.0877181 -0.0199578 0)
(-0.066109 -0.00130545 0)
(-0.0311979 -0.0120219 0)
(-0.0117677 -0.00216238 0)
(-0.00278313 0.0068769 0)
(-0.00322715 0.00969604 0)
(-0.0293247 0.0827378 0)
(-0.0726654 0.0644299 0)
(-0.105227 0.0406746 0)
(-0.154444 0.0210888 0)
(-0.167101 0.0235753 0)
(-0.226104 -0.00750884 0)
(-0.22588 -0.0438751 0)
(-0.17162 -0.0178658 0)
(-0.179319 -0.0513225 0)
(-0.139099 0.0108328 0)
(-0.125729 -0.0122625 0)
(-0.137722 -0.00258648 0)
(-0.147523 -0.0132582 0)
(-0.154369 -0.0121585 0)
(-0.156825 -0.0201887 0)
(-0.162705 -0.0081 0)
(-0.14744 -0.0229965 0)
(-0.127808 -0.0290838 0)
(-0.120724 -0.0418096 0)
(-0.095422 -0.017975 0)
(-0.051959 -0.00249032 0)
(-0.00682812 0.0042872 0)
(-0.00017876 -0.00155659 0)
(-0.0359247 0.101032 0)
(-0.0719966 0.0968161 0)
(-0.106405 0.0747126 0)
(-0.173879 0.0374141 0)
(-0.187838 -0.035421 0)
(-0.248684 -0.0192954 0)
(-0.245781 -0.0567129 0)
(-0.181195 -0.0342168 0)
(-0.167663 0.00100877 0)
(-0.151901 0.0242704 0)
(-0.165937 -0.000403596 0)
(-0.173769 0.00250033 0)
(-0.174503 -0.0082926 0)
(-0.177983 -0.000273626 0)
(-0.168096 -0.00788267 0)
(-0.162715 -0.00481335 0)
(-0.163272 -0.0554298 0)
(-0.150604 -0.0372475 0)
(-0.135651 -0.0718963 0)
(-0.118168 -0.046501 0)
(-0.115519 -0.0464421 0)
(-0.0377496 -0.0183804 0)
(-0.00860869 0.00676924 0)
(-0.0199772 0.118449 0)
(-0.0671525 0.113757 0)
(-0.115348 0.092952 0)
(-0.205245 0.0584676 0)
(-0.210509 -0.0365425 0)
(-0.247808 0.0193266 0)
(-0.240566 -0.00832458 0)
(-0.195241 -0.0509343 0)
(-0.189264 0.0120205 0)
(-0.178323 0.010424 0)
(-0.177865 -0.00027231 0)
(-0.179014 0.00134771 0)
(-0.174549 -0.00973028 0)
(-0.176685 -0.0158446 0)
(-0.171092 -0.0342074 0)
(-0.186537 -0.0241598 0)
(-0.17518 -0.108166 0)
(-0.149484 -0.0388297 0)
(-0.144066 -0.070941 0)
(-0.122357 -0.0232036 0)
(-0.114332 -0.0718034 0)
(-0.03575 -0.0190051 0)
(4.65803e-05 -0.0145062 0)
(-0.0351274 0.133045 0)
(-0.0901465 0.112231 0)
(-0.146704 0.108965 0)
(-0.235984 0.0639233 0)
(-0.223198 -0.0347384 0)
(-0.261283 -0.0127118 0)
(-0.309591 0.0202128 0)
(-0.215518 -0.0150905 0)
(-0.18394 0.00332423 0)
(-0.195126 0.0101757 0)
(-0.191314 0.000791478 0)
(-0.189132 0.000325905 0)
(-0.188148 -0.00895697 0)
(-0.193932 -0.00868774 0)
(-0.176272 -0.0287382 0)
(-0.203407 0.0122368 0)
(-0.183307 -0.0861733 0)
(-0.129546 -0.0547551 0)
(-0.131238 -0.0978978 0)
(-0.115927 -0.0695035 0)
(-0.131222 -0.0907939 0)
(-0.0519142 -0.0807429 0)
(-0.0329811 -0.00904849 0)
(-0.515341 0.168599 0)
(-0.766917 -0.00309967 0)
(-0.950863 -0.00413972 0)
(-0.995996 -0.0406923 0)
(-0.960933 -0.0347261 0)
(-0.953919 0.00440106 0)
(-1.11139 0.0392633 0)
(-1.20244 -0.0128354 0)
(-1.22822 -0.00239572 0)
(-1.21275 -0.0372291 0)
(-1.05943 -0.0890583 0)
(-0.841652 -0.135281 0)
(-0.708667 -0.0131186 0)
(-0.596285 -0.0457691 0)
(-0.581666 -0.111588 0)
(-0.547182 -0.0207796 0)
(-0.262718 -0.0287834 0)
(-0.147015 -0.13855 0)
(0.0177938 -0.0265811 0)
(-0.466689 0.371137 0)
(-0.710305 0.160256 0)
(-0.855669 0.190031 0)
(-0.901162 0.0566787 0)
(-0.862504 0.0289473 0)
(-0.855472 0.0888792 0)
(-1.02826 0.145663 0)
(-1.12134 0.0575634 0)
(-1.14133 0.0307747 0)
(-1.08172 -0.0640781 0)
(-0.926445 -0.247779 0)
(-0.682372 -0.154375 0)
(-0.581648 -0.0944938 0)
(-0.588378 -0.0700837 0)
(-0.609556 -0.152569 0)
(-0.596927 -0.037722 0)
(-0.601365 0.0198608 0)
(-0.215817 -0.0927376 0)
(-0.0759444 -0.032115 0)
(-0.517142 0.611503 0)
(-0.487411 0.205007 0)
(-0.639726 0.123471 0)
(-0.652929 -0.0474731 0)
(-0.558991 -0.0586525 0)
(-0.587542 0.0435453 0)
(-0.852373 0.051688 0)
(-0.952075 0.0388478 0)
(-0.931385 0.0592971 0)
(-0.654344 -0.211136 0)
(-0.459615 -0.331787 0)
(-0.44009 -0.168632 0)
(-0.109318 -0.23092 0)
(-0.460665 -0.204088 0)
(-0.538908 -0.0892773 0)
(-0.473369 -0.0921754 0)
(-0.387668 -0.103318 0)
(-0.0450223 -0.142324 0)
(-0.0705271 -0.0746286 0)
(-0.471126 0.661458 0)
(-0.345075 0.334145 0)
(-0.591835 0.147717 0)
(-0.568588 0.0329301 0)
(-0.338142 0.0320352 0)
(-0.350094 0.156706 0)
(-0.459684 -0.0104297 0)
(-0.570512 0.113767 0)
(-0.573072 0.161347 0)
(-0.391225 -0.195067 0)
(0.107153 -0.34012 0)
(-0.115748 -0.11423 0)
(0.252594 -0.0646519 0)
(-0.170337 -0.0853786 0)
(-0.578747 -0.00268847 0)
(-0.457532 -0.0202849 0)
(-0.179291 -0.199182 0)
(0.242203 -0.217465 0)
(0.321021 -0.0987237 0)
(-0.459206 0.737192 0)
(-0.322636 0.444982 0)
(-0.50122 0.140651 0)
(-0.479252 0.0677126 0)
(-0.196024 -0.159978 0)
(0.0703111 0.0985765 0)
(0.265473 0.0998307 0)
(0.304784 0.0385152 0)
(0.374635 -0.046799 0)
(0.323489 -0.233864 0)
(0.299718 -0.333291 0)
(0.16517 -0.213913 0)
(0.238639 -0.104249 0)
(0.0237296 -0.00821984 0)
(-0.398686 0.0398851 0)
(-0.352372 -0.0346791 0)
(-0.122085 -0.377546 0)
(-0.00611324 -0.365671 0)
(0.541955 0.186996 0)
(-0.412212 0.834454 0)
(-0.257872 0.478639 0)
(-0.4328 0.0780296 0)
(-0.316904 -0.133049 0)
(0.0222605 -0.212534 0)
(0.0395189 0.0261954 0)
(0.320525 0.0573276 0)
(0.659095 -0.0559205 0)
(0.732736 -0.00030855 0)
(0.546513 -0.179651 0)
(0.367587 -0.213631 0)
(0.212849 -0.167537 0)
(0.280498 -0.08771 0)
(0.142676 0.0998041 0)
(-0.35477 0.217887 0)
(-0.289792 -0.128671 0)
(-0.162206 -0.401898 0)
(-0.29848 -0.489331 0)
(0.393684 0.125604 0)
(-0.407463 0.886418 0)
(-0.192163 0.616322 0)
(-0.424191 0.168487 0)
(-0.299474 -0.254223 0)
(0.160876 -0.305724 0)
(0.0867534 -0.118225 0)
(0.210951 0.0112893 0)
(0.400259 -0.039199 0)
(0.536606 -0.229784 0)
(0.459833 -0.217136 0)
(0.374003 -0.266738 0)
(0.195014 -0.193648 0)
(0.242813 -0.0713644 0)
(0.00457665 0.210518 0)
(-0.470531 0.274839 0)
(-0.340753 -0.14819 0)
(-0.299808 -0.500402 0)
(-0.439844 -0.548289 0)
(0.277485 0.247469 0)
(-0.36512 0.987633 0)
(-0.146179 0.600773 0)
(-0.385721 0.134904 0)
(0.108213 -0.372011 0)
(0.203861 -0.344262 0)
(0.0831868 -0.166924 0)
(0.18888 -0.0641483 0)
(0.415757 -0.0403139 0)
(0.390371 -0.194314 0)
(0.277277 -0.164901 0)
(0.250995 -0.315702 0)
(0.114099 -0.216094 0)
(0.106297 0.0135125 0)
(-0.2862 0.293535 0)
(-0.514724 0.323605 0)
(-0.312109 -0.158634 0)
(-0.373017 -0.507674 0)
(-0.47352 -0.584109 0)
(-0.197097 0.0852926 0)
(-0.0786262 0.176964 0)
(-0.154747 0.219774 0)
(-0.268021 0.187151 0)
(-0.41945 0.106843 0)
(-0.296295 -0.0118122 0)
(-0.257337 -0.0898032 0)
(-0.244931 -0.0143989 0)
(-0.216219 0.00318017 0)
(-0.212055 -0.00663188 0)
(-0.193615 0.00192255 0)
(-0.186122 -0.00322081 0)
(-0.1814 -0.00173466 0)
(-0.175517 -0.00397919 0)
(-0.179568 -0.00695613 0)
(-0.155439 0.00865607 0)
(-0.235359 -0.0386414 0)
(-0.211246 -0.0463034 0)
(-0.141489 -0.0533668 0)
(-0.150334 -0.0850807 0)
(-0.104368 -0.10593 0)
(-0.132171 -0.105988 0)
(-0.0631532 -0.0310217 0)
(0.0462911 -0.080392 0)
(-0.310901 0.564985 0)
(-0.441344 0.504839 0)
(-0.748341 0.202029 0)
(-0.617111 0.0855235 0)
(-0.522974 0.109965 0)
(-0.330654 -0.0240545 0)
(-0.244563 -0.0318352 0)
(-0.221971 -0.0426829 0)
(-0.184521 -0.0131653 0)
(-0.17914 -0.0128775 0)
(-0.166147 -0.00957819 0)
(-0.159619 -0.0122544 0)
(-0.15168 -0.021564 0)
(-0.123523 -0.0204012 0)
(-0.172878 -0.00730752 0)
(-0.236467 -0.100308 0)
(-0.128779 -0.0194095 0)
(-0.135176 -0.106558 0)
(-0.168883 -0.0568304 0)
(-0.139881 -0.111833 0)
(-0.0866975 -0.100971 0)
(-0.0852662 -0.217982 0)
(0.0551174 -0.110938 0)
(-0.624023 0.946241 0)
(-0.721729 0.237609 0)
(-0.721723 -0.0397198 0)
(-0.569096 -0.0670483 0)
(-0.515824 -0.119238 0)
(-0.475975 0.0340148 0)
(-0.449775 -0.105036 0)
(-0.27461 -0.0630349 0)
(-0.251215 -0.0468462 0)
(-0.272161 -0.0166193 0)
(-0.236454 -0.0221774 0)
(-0.212562 -0.0182757 0)
(-0.200925 -0.0243554 0)
(-0.198352 -0.0113136 0)
(-0.221754 -0.0709097 0)
(-0.243046 -0.0658932 0)
(-0.200005 -0.0782078 0)
(-0.178997 -0.139494 0)
(-0.161274 -0.0892794 0)
(-0.182879 -0.142544 0)
(-0.204028 -0.144971 0)
(0.0918447 -0.324596 0)
(0.214696 -0.192067 0)
(-0.291548 1.52798 0)
(-0.494768 0.447956 0)
(-0.659478 -0.00266127 0)
(-0.460204 -0.133827 0)
(-0.317983 -0.119715 0)
(-0.38628 -0.489627 0)
(-0.489517 -0.112623 0)
(-0.472142 0.0954167 0)
(-0.440727 -0.0516752 0)
(-0.575551 -0.0734769 0)
(-0.592173 -0.0682485 0)
(-0.586034 -0.0579333 0)
(-0.455004 -0.028859 0)
(-0.413487 0.0206048 0)
(-0.520511 -0.00884036 0)
(-0.54135 -0.116208 0)
(-0.402911 -0.077634 0)
(-0.296225 -0.0293378 0)
(-0.215752 -0.0529173 0)
(-0.124743 -0.085335 0)
(0.0646448 -0.373701 0)
(0.121757 -0.288329 0)
(-0.120078 -0.286434 0)
(-0.370182 1.81267 0)
(-0.420458 0.61402 0)
(-0.509506 0.0289273 0)
(-0.782789 0.052896 0)
(-0.850613 -0.0204836 0)
(-0.688064 -0.201941 0)
(-0.761467 -0.176148 0)
(-0.650338 -0.0710073 0)
(-0.534044 -0.0504362 0)
(-0.518354 -0.266287 0)
(-0.451416 -0.0476661 0)
(-0.290493 -0.0548442 0)
(-0.299458 0.266276 0)
(0.00300791 0.0370344 0)
(0.16932 -0.387612 0)
(0.212794 -0.327034 0)
(0.125897 -0.227481 0)
(-0.140811 0.0241724 0)
(-0.220235 -0.25892 0)
(-0.251147 -0.388276 0)
(-0.38901 -0.312131 0)
(-0.424375 -0.173991 0)
(-0.574564 0.119591 0)
(-0.158551 1.98991 0)
(-0.0227946 1.38989 0)
(-0.403533 0.222044 0)
(-0.376217 -0.189036 0)
(-0.740664 0.129158 0)
(-0.809361 -0.071461 0)
(-0.726197 -0.185657 0)
(-0.756233 -0.250427 0)
(-0.617885 -0.190146 0)
(-0.592152 -0.413638 0)
(-0.418035 -0.329392 0)
(-0.302246 -0.49687 0)
(-0.0494938 -0.249072 0)
(0.328026 -0.410148 0)
(0.264464 -0.250758 0)
(0.409522 0.0351982 0)
(0.372648 0.358131 0)
(0.248391 0.322071 0)
(0.0415696 0.233976 0)
(-0.643704 -0.0981104 0)
(-0.726426 -0.179557 0)
(-0.576951 -0.0773216 0)
(-0.603777 0.174249 0)
(0.188189 1.87521 0)
(0.224262 1.3507 0)
(-0.445809 0.407368 0)
(-0.407977 0.20449 0)
(-0.453381 0.0445712 0)
(-0.652785 0.203173 0)
(-0.987159 -0.0573535 0)
(-0.730912 -0.0562776 0)
(-0.8361 -0.288429 0)
(-0.822777 -0.500929 0)
(-0.69736 -0.492834 0)
(-0.694961 -0.555699 0)
(-0.644191 -0.533037 0)
(-0.59127 -0.858169 0)
(-0.843937 -0.648554 0)
(-1.00464 -0.438643 0)
(-0.494555 -0.22386 0)
(-0.360672 0.411657 0)
(-0.256957 0.531888 0)
(-0.267091 0.553626 0)
(-0.328445 -0.111968 0)
(-0.368587 -0.316803 0)
(-0.524888 0.151428 0)
(0.230203 1.55707 0)
(0.306871 1.06853 0)
(-0.0191707 0.470207 0)
(-0.072041 0.221269 0)
(-0.198955 0.157302 0)
(-0.377495 -0.0965573 0)
(-0.6924 0.0311639 0)
(-0.872872 0.203446 0)
(-1.16497 -0.0600911 0)
(-1.07597 -0.155378 0)
(-1.39646 -0.235868 0)
(-2.21083 -0.159363 0)
(-2.34342 -0.196982 0)
(-2.33742 -0.204905 0)
(-2.34564 -0.299275 0)
(-2.3843 -0.345106 0)
(-2.28864 -0.254141 0)
(-1.76476 0.123361 0)
(-1.44636 -0.0731572 0)
(-1.51403 -0.235199 0)
(-1.51282 -0.315273 0)
(-0.706167 0.0382343 0)
(-0.597012 0.215991 0)
(0.109387 1.43323 0)
(0.251297 1.13375 0)
(0.109504 0.721473 0)
(-0.0566442 0.411315 0)
(-0.238343 0.367111 0)
(-0.527023 0.111328 0)
(-0.76009 0.186137 0)
(-0.887014 0.187088 0)
(-1.13434 0.2311 0)
(-1.54279 0.401002 0)
(-2.35745 0.538189 0)
(-2.7636 0.154073 0)
(-2.80862 -0.308812 0)
(-2.84951 -0.494085 0)
(-2.89506 -0.664302 0)
(-2.80091 -0.839912 0)
(-2.51176 -0.577925 0)
(-2.21356 -0.197395 0)
(-1.88743 -0.133676 0)
(-1.67434 -0.197937 0)
(-1.54626 -0.301347 0)
(-1.30584 -0.174337 0)
(-1.2395 -0.0857867 0)
(0.0544666 1.24774 0)
(0.167038 1.07183 0)
(0.103484 0.849824 0)
(0.04329 0.493276 0)
(-0.331784 0.616237 0)
(-0.572546 0.482621 0)
(-0.713947 0.380956 0)
(-1.1625 0.571898 0)
(-1.87115 0.915936 0)
(-2.08301 1.16396 0)
(-2.31405 0.965308 0)
(-2.58634 0.229892 0)
(-2.49893 -0.42168 0)
(-2.4634 -0.73612 0)
(-2.3872 -0.843871 0)
(-2.19668 -0.750459 0)
(-2.30281 -0.580084 0)
(-2.39203 -0.459295 0)
(-2.06597 -0.565264 0)
(-1.72674 -0.598734 0)
(-1.57157 -0.649408 0)
(-1.47153 -0.601993 0)
(-1.41493 -0.658771 0)
(0.0166887 1.19714 0)
(0.0544062 1.02978 0)
(-0.0972858 0.924508 0)
(-0.015666 0.700989 0)
(-0.109683 0.777076 0)
(-0.633554 0.837262 0)
(-0.716909 0.829636 0)
(-0.822101 1.01603 0)
(-1.52445 1.33537 0)
(-1.72437 1.52154 0)
(-1.94102 1.11497 0)
(-1.83073 0.224284 0)
(-1.7609 -0.550167 0)
(-1.71244 -0.79319 0)
(-1.47965 -0.803718 0)
(-1.42867 -0.637626 0)
(-1.4002 -0.563745 0)
(-1.63844 -0.476801 0)
(-2.07772 -0.770636 0)
(-1.58148 -0.729757 0)
(-1.55043 -0.735219 0)
(-1.71196 -0.735208 0)
(-1.79188 -0.745251 0)
(0.00363622 1.20294 0)
(0.0276102 1.07545 0)
(-0.0919073 0.989762 0)
(-0.131106 1.21421 0)
(-0.170488 0.920344 0)
(-0.427258 0.923799 0)
(-0.510265 1.12113 0)
(-0.703338 1.16509 0)
(-0.929712 1.23723 0)
(-0.936308 1.36971 0)
(-1.01353 1.0368 0)
(-1.09202 0.203627 0)
(-0.988623 -0.302931 0)
(-1.53666 -0.438803 0)
(-1.27431 -0.562865 0)
(-1.28324 -0.613825 0)
(-1.31142 -0.614458 0)
(-1.39826 -0.772029 0)
(-1.68562 -0.479789 0)
(-1.44732 -0.504372 0)
(-1.2635 -1.02869 0)
(-1.44965 -0.956226 0)
(-1.58915 -0.815469 0)
(0.00442681 1.21639 0)
(-0.0283049 1.09185 0)
(-0.0793566 1.01242 0)
(-0.122024 1.22036 0)
(-0.212644 1.02962 0)
(-0.401861 1.13798 0)
(-0.455649 1.25386 0)
(-0.636336 1.45958 0)
(-0.675313 1.56172 0)
(-0.35378 1.34124 0)
(-0.191189 0.84113 0)
(-0.161549 0.301809 0)
(-0.425677 -0.249756 0)
(-0.935804 -0.313793 0)
(-0.94468 -0.418214 0)
(-1.24246 -0.619472 0)
(-1.32619 -0.638512 0)
(-1.22699 -0.788434 0)
(-1.03247 -0.740174 0)
(-1.12669 -0.80469 0)
(-1.08213 -0.989919 0)
(-0.998439 -0.941421 0)
(-1.11562 -0.855843 0)
(-0.010027 1.25355 0)
(-0.0644017 1.17817 0)
(-0.0712849 1.07265 0)
(-0.107931 1.51149 0)
(-0.205347 1.2398 0)
(-0.290153 1.19468 0)
(-0.259941 1.29922 0)
(-0.310013 1.45401 0)
(-0.373009 1.5524 0)
(-0.352758 1.33162 0)
(-0.130375 1.13061 0)
(-0.128536 0.534194 0)
(-0.209267 0.256439 0)
(-0.368252 0.175975 0)
(-0.482158 -0.11471 0)
(-0.838981 -0.56469 0)
(-1.21203 -0.457216 0)
(-1.152 -0.477315 0)
(-0.955816 -0.774441 0)
(-1.24031 -0.798119 0)
(-1.03913 -0.804128 0)
(-0.90844 -0.891381 0)
(-0.984342 -0.908913 0)
(0.0276829 1.28864 0)
(-0.0964009 1.20707 0)
(0.119541 0.99791 0)
(-0.113973 1.4258 0)
(-0.396882 1.25186 0)
(-0.313696 1.30477 0)
(-0.235994 1.33199 0)
(-0.24781 1.24329 0)
(-0.230821 1.16757 0)
(-0.18756 1.14196 0)
(-0.148262 0.826947 0)
(-0.215532 0.410105 0)
(-0.147756 0.124938 0)
(0.0545347 0.140541 0)
(-0.436293 -0.0341891 0)
(-0.625744 -0.333538 0)
(-0.865105 -0.468672 0)
(-1.00334 -0.488391 0)
(-0.955427 -0.77287 0)
(-1.03418 -0.722739 0)
(-1.05383 -0.697493 0)
(-0.925971 -0.8671 0)
(-1.34309 -0.846334 0)
(0.00544092 1.31938 0)
(-0.234266 1.27603 0)
(0.0287023 1.15779 0)
(-0.0556729 1.24046 0)
(-0.268791 1.184 0)
(-0.246861 1.33155 0)
(-0.273408 1.36985 0)
(-0.280501 1.27464 0)
(-0.292261 1.20989 0)
(-0.335188 0.926369 0)
(-0.267582 0.552089 0)
(-0.214977 0.398817 0)
(-0.0139376 0.19601 0)
(0.434939 0.148562 0)
(0.443351 0.299194 0)
(0.2665 0.4258 0)
(-0.171859 -0.0846955 0)
(-1.07477 -0.372451 0)
(-0.896175 -0.525787 0)
(-1.01082 -0.648707 0)
(-1.1628 -0.707061 0)
(-2.11821 0.0427298 0)
(-3.03108 -0.228608 0)
(0.0474867 1.40711 0)
(-0.153887 1.36009 0)
(-0.0630924 1.84716 0)
(-0.253981 1.42606 0)
(-0.288771 1.3818 0)
(-0.0749292 1.45557 0)
(-0.235846 1.30482 0)
(-0.313559 1.34905 0)
(-0.461408 1.29725 0)
(-0.550302 0.935404 0)
(-0.41304 0.598566 0)
(-0.335415 0.483625 0)
(-0.265714 -0.391979 0)
(-0.190411 -0.594246 0)
(0.274639 0.154528 0)
(0.211947 0.562544 0)
(-0.154163 0.602827 0)
(-0.626389 0.271371 0)
(-0.852471 -0.114128 0)
(-1.13122 -0.378794 0)
(-2.15347 0.290157 0)
(-2.5486 0.400574 0)
(-2.75047 0.0275288 0)
(0.0168284 1.42593 0)
(0.123798 1.30523 0)
(-0.0290884 1.68731 0)
(-0.370492 1.53304 0)
(-0.357783 2.06116 0)
(-0.299345 1.4384 0)
(-0.327826 1.50073 0)
(-0.182926 1.46084 0)
(-0.679658 1.41767 0)
(-0.845592 1.28529 0)
(-0.62295 1.12486 0)
(-0.959959 -0.00491005 0)
(-1.20724 -0.298388 0)
(-0.919659 -0.174072 0)
(-0.831416 0.0174591 0)
(-0.839949 0.365817 0)
(-0.826419 0.436138 0)
(-0.883678 0.291369 0)
(-1.03089 0.0791006 0)
(-1.73962 0.500616 0)
(-2.18431 0.75922 0)
(-2.17238 0.603911 0)
(-2.15074 0.0912488 0)
(-0.0161011 1.37507 0)
(0.0444512 1.28261 0)
(-0.0430462 1.26403 0)
(0.0120041 1.42694 0)
(-0.411879 1.90306 0)
(-0.397759 1.66539 0)
(-0.108257 2.22196 0)
(-0.29708 1.70554 0)
(-0.683076 1.61356 0)
(-0.971679 1.62224 0)
(-1.3504 0.387526 0)
(-1.43671 0.0626343 0)
(-1.33568 -0.00647719 0)
(-1.32184 -0.0184375 0)
(-1.28066 0.111086 0)
(-1.18642 0.569488 0)
(-1.20301 0.643013 0)
(-1.09958 0.622247 0)
(-1.09889 0.597431 0)
(-1.53352 1.03684 0)
(-1.87675 0.952531 0)
(-1.9096 0.698194 0)
(-2.05059 0.185929 0)
(-0.00472737 1.35324 0)
(0.0558801 1.29066 0)
(-0.0708292 1.34601 0)
(0.0828456 1.43099 0)
(-0.207019 1.4843 0)
(0.123675 1.84544 0)
(-0.116557 2.05643 0)
(-0.461139 1.86792 0)
(-0.558563 2.02423 0)
(-0.844379 1.8218 0)
(-1.3822 0.582454 0)
(-1.43031 0.120512 0)
(-1.55406 -0.093282 0)
(-1.60602 -0.232607 0)
(-1.419 -0.180816 0)
(-1.48303 0.633786 0)
(-1.55645 0.956085 0)
(-1.54334 1.03421 0)
(-1.50812 1.07761 0)
(-1.7127 1.09936 0)
(-1.8112 1.1165 0)
(-1.4555 0.894816 0)
(-1.45098 0.272199 0)
(-0.015344 1.36842 0)
(0.0946984 1.30868 0)
(-0.0599191 1.35301 0)
(0.0978582 1.46524 0)
(-0.0438254 1.43021 0)
(0.0746198 1.73363 0)
(-0.0101336 1.58703 0)
(-0.193942 1.79577 0)
(-0.0423691 2.27767 0)
(-0.129673 2.34208 0)
(-1.07676 1.02154 0)
(-1.2618 0.405429 0)
(-1.62499 0.101995 0)
(-1.59021 -0.123917 0)
(-1.29765 -0.074309 0)
(-1.6572 0.446188 0)
(-1.54189 0.728251 0)
(-1.63461 0.831442 0)
(-1.62578 0.747176 0)
(-1.49336 0.787932 0)
(-1.45624 0.960138 0)
(-0.839823 0.854162 0)
(-0.772736 -0.0995038 0)
(-0.0283509 1.35503 0)
(0.0926353 1.31917 0)
(-0.0389007 1.33812 0)
(0.125837 1.48181 0)
(0.0691999 1.54417 0)
(0.12056 1.89524 0)
(0.0368718 1.69396 0)
(0.166014 1.84033 0)
(0.464926 2.11275 0)
(0.648185 2.43193 0)
(-0.0363507 1.47067 0)
(-0.594352 0.486812 0)
(-1.35453 0.250628 0)
(-1.56395 0.509858 0)
(-1.76373 0.452045 0)
(-1.49624 0.561437 0)
(-1.57536 0.686463 0)
(-1.91935 0.48797 0)
(-1.8112 0.17674 0)
(-0.811996 0.170924 0)
(-0.484678 0.627367 0)
(0.444671 0.954463 0)
(-0.0156201 0.352478 0)
(-0.00692827 1.30472 0)
(0.103088 1.29535 0)
(-0.00754441 1.30938 0)
(0.192904 1.45831 0)
(0.332899 1.45294 0)
(0.155092 1.7464 0)
(-0.0741889 1.6752 0)
(0.324625 1.5716 0)
(0.684908 1.83955 0)
(0.93005 2.25816 0)
(0.509741 1.98607 0)
(0.629062 1.56187 0)
(-0.571761 0.529043 0)
(-1.1285 0.417996 0)
(-1.33999 0.683094 0)
(-1.19041 0.450757 0)
(-0.925546 0.348142 0)
(-1.12903 -0.125527 0)
(-1.23993 -0.0888055 0)
(-0.337936 -0.0993985 0)
(0.0518585 0.216225 0)
(0.416938 0.28674 0)
(0.531488 -0.0530163 0)
(-0.00892219 1.30821 0)
(0.130007 1.25128 0)
(0.0813825 1.24669 0)
(0.152049 1.41911 0)
(0.248312 1.4086 0)
(0.309751 1.30217 0)
(-0.0239043 1.62421 0)
(0.387901 1.60146 0)
(0.862146 1.82275 0)
(1.44974 1.98785 0)
(1.16698 1.99108 0)
(1.24651 1.92942 0)
(0.426594 1.30631 0)
(-0.0617004 0.632988 0)
(-0.435949 0.576805 0)
(-0.393062 0.915487 0)
(0.143949 0.640151 0)
(0.159134 -0.25256 0)
(0.0133821 -0.313812 0)
(0.446113 -0.582643 0)
(0.665862 -0.183959 0)
(0.861268 -0.0664088 0)
(0.908547 -0.083976 0)
(-0.0116926 1.2178 0)
(0.116796 1.25864 0)
(0.110943 1.22338 0)
(0.180017 1.33534 0)
(0.229781 1.30442 0)
(0.368937 1.33689 0)
(0.213949 1.6228 0)
(0.590883 1.79543 0)
(0.907186 1.86114 0)
(1.34395 1.92895 0)
(1.46416 1.55428 0)
(1.50925 1.58118 0)
(1.29456 1.29229 0)
(1.22033 1.14006 0)
(1.27809 0.874302 0)
(1.29197 0.944035 0)
(1.14651 0.583699 0)
(1.25136 -0.000698822 0)
(1.08893 -0.389633 0)
(1.20103 -0.456406 0)
(1.73288 -0.605308 0)
(2.16168 -0.115049 0)
(1.87408 0.0516951 0)
(0.139297 1.3925 0)
(0.220103 1.32492 0)
(0.106597 1.27344 0)
(0.0682667 1.22147 0)
(0.243058 1.40425 0)
(0.535421 1.38929 0)
(0.325947 1.43124 0)
(0.704798 1.78597 0)
(0.917275 1.7613 0)
(1.24746 1.71345 0)
(1.37616 1.30986 0)
(1.46094 1.25428 0)
(1.71574 1.05752 0)
(1.73921 1.08201 0)
(2.0131 1.1247 0)
(2.06638 0.647292 0)
(1.57999 0.0982134 0)
(1.70012 -0.215253 0)
(1.5493 -0.334894 0)
(1.54866 -0.374657 0)
(1.71917 -0.249428 0)
(2.28157 -0.368914 0)
(2.05723 -0.566634 0)
(-0.104022 1.9648 0)
(0.115252 1.24828 0)
(-0.0571417 1.4048 0)
(0.0985258 1.42149 0)
(0.414649 1.90913 0)
(0.453045 1.3398 0)
(0.682853 1.33761 0)
(0.937795 1.6708 0)
(0.743431 1.58306 0)
(0.830968 1.56924 0)
(1.23634 1.47354 0)
(1.41024 1.12794 0)
(1.64686 1.15993 0)
(2.18174 1.07852 0)
(2.07493 0.918265 0)
(1.81089 0.469672 0)
(1.68477 0.193477 0)
(1.64848 0.168362 0)
(1.49014 -0.112837 0)
(1.65456 -0.0940233 0)
(2.03186 0.208679 0)
(2.04567 -0.044846 0)
(1.93575 -0.545466 0)
(-0.463828 1.61886 0)
(-0.0739335 1.31893 0)
(0.160447 1.36758 0)
(0.444533 1.57999 0)
(0.155784 1.74613 0)
(0.162003 1.39715 0)
(0.714845 1.49154 0)
(0.947481 1.2733 0)
(0.799414 1.24963 0)
(0.853712 1.38412 0)
(1.0899 1.5884 0)
(1.28042 1.34673 0)
(1.74222 1.33854 0)
(1.7569 1.01727 0)
(1.62367 0.777909 0)
(1.81584 0.541723 0)
(1.92613 0.232196 0)
(1.63903 0.100984 0)
(1.41076 0.0136649 0)
(2.00523 0.0722767 0)
(1.91403 -0.0643874 0)
(1.73951 -0.52509 0)
(1.92973 -0.527217 0)
(-0.229312 1.25521 0)
(0.0979848 1.47836 0)
(0.047521 1.27498 0)
(0.308621 1.30058 0)
(0.292293 1.2066 0)
(0.308866 1.4856 0)
(0.442165 1.40656 0)
(0.643805 1.0882 0)
(0.827744 1.28632 0)
(1.05777 1.21009 0)
(1.08345 1.34973 0)
(1.26459 1.44369 0)
(1.39543 1.26515 0)
(1.63132 0.859787 0)
(1.62403 0.856149 0)
(1.41027 0.662729 0)
(1.4372 0.501928 0)
(1.3646 0.028081 0)
(1.318 0.0911935 0)
(1.43016 -0.0808027 0)
(1.24767 -0.452017 0)
(1.46951 -0.633624 0)
(2.14103 -0.79736 0)
(-0.14158 1.30162 0)
(0.0712191 1.3325 0)
(0.0115224 1.00789 0)
(0.156008 1.41304 0)
(0.280428 1.27233 0)
(0.494877 1.38329 0)
(0.45133 1.35981 0)
(0.723469 1.25265 0)
(0.788232 1.35387 0)
(0.981624 1.25501 0)
(1.32364 1.09958 0)
(1.2395 1.08756 0)
(1.21574 0.876567 0)
(1.44061 0.813581 0)
(1.39257 0.5751 0)
(1.2869 0.37761 0)
(1.27743 0.309372 0)
(1.33624 0.207791 0)
(1.28354 0.029912 0)
(1.19634 -0.051706 0)
(1.14426 -0.26537 0)
(1.35884 -0.17805 0)
(1.83149 -0.644187 0)
(-0.0659873 1.32739 0)
(-0.084356 1.32318 0)
(0.0825679 1.11035 0)
(0.409406 1.35175 0)
(0.342073 1.57649 0)
(0.450847 1.41511 0)
(0.484243 1.42218 0)
(0.595389 1.34978 0)
(0.654638 1.27164 0)
(0.794105 1.26895 0)
(0.992859 1.11893 0)
(1.00106 0.767448 0)
(1.0734 0.667542 0)
(1.15585 0.584419 0)
(1.14887 0.467363 0)
(1.26829 0.225162 0)
(1.28683 0.280583 0)
(1.16332 0.338189 0)
(1.07982 0.105195 0)
(1.07378 0.0206599 0)
(1.12673 -0.19143 0)
(1.14863 -0.187356 0)
(1.36084 -0.343781 0)
(0.00967134 1.316 0)
(0.0738052 1.28555 0)
(0.123125 1.38283 0)
(0.373622 1.26361 0)
(0.31858 1.40407 0)
(0.353615 1.27805 0)
(0.433019 1.24752 0)
(0.530918 1.14492 0)
(0.563653 0.982738 0)
(0.722332 1.02908 0)
(0.753294 0.855575 0)
(0.684715 0.768618 0)
(0.944892 0.771652 0)
(1.06927 0.579321 0)
(0.869816 0.501653 0)
(1.05394 0.356689 0)
(1.59303 0.198781 0)
(1.35863 0.174939 0)
(0.966317 -0.0159498 0)
(1.04902 -0.0828726 0)
(1.0393 -0.183179 0)
(1.11297 -0.343904 0)
(1.2955 -0.317516 0)
(0.0497084 1.30587 0)
(0.147262 1.20808 0)
(0.141567 1.24289 0)
(0.239546 1.16122 0)
(0.262003 1.11919 0)
(0.354404 1.12164 0)
(0.392145 1.10432 0)
(0.473283 1.06173 0)
(0.499195 0.929986 0)
(0.615741 0.975274 0)
(0.701123 0.848577 0)
(0.697912 0.746179 0)
(0.769994 0.779451 0)
(0.847379 0.467698 0)
(0.809698 0.471173 0)
(0.890783 0.459252 0)
(1.08861 0.299236 0)
(0.97896 0.0124286 0)
(0.993118 0.127466 0)
(0.992843 0.0284192 0)
(1.01961 -0.132713 0)
(1.07548 -0.240933 0)
(1.08844 -0.470088 0)
(0.0830534 1.16308 0)
(0.164858 1.09615 0)
(0.145311 1.08579 0)
(0.218236 1.04977 0)
(0.236842 1.07679 0)
(0.30553 1.05499 0)
(0.324798 0.998035 0)
(0.415636 0.952627 0)
(0.423614 0.765149 0)
(0.49622 0.793461 0)
(0.586857 0.792623 0)
(0.605607 0.722529 0)
(0.539521 0.630157 0)
(0.674406 0.482784 0)
(0.725811 0.455227 0)
(0.818252 0.395965 0)
(1.03002 0.15899 0)
(1.09452 0.00124181 0)
(0.932599 -0.0428479 0)
(0.646973 -0.200614 0)
(0.761415 -0.266873 0)
(0.749565 -0.384789 0)
(0.873121 -0.634224 0)
(0.224427 1.25391 0)
(0.336317 1.16162 0)
(0.214845 1.09871 0)
(0.238841 1.02113 0)
(0.222959 0.98756 0)
(0.254135 0.973941 0)
(0.26282 0.928812 0)
(0.257369 0.916583 0)
(0.305274 0.843876 0)
(0.495884 0.846286 0)
(0.600264 0.784767 0)
(0.590253 0.761161 0)
(0.553441 0.67244 0)
(0.585585 0.643002 0)
(0.544588 0.479379 0)
(0.664269 0.521648 0)
(0.821964 0.265378 0)
(0.763992 0.166094 0)
(0.651975 -0.152933 0)
(0.627794 -0.104593 0)
(0.638876 -0.180366 0)
(0.682834 -0.350567 0)
(0.876757 -0.380147 0)
(0.135765 1.46076 0)
(0.17105 1.18503 0)
(0.13324 1.10245 0)
(0.205419 1.01501 0)
(0.188105 0.980347 0)
(0.229375 0.958862 0)
(0.245235 0.925622 0)
(0.285721 0.892981 0)
(0.317787 0.871055 0)
(0.383615 0.848937 0)
(0.488704 0.74557 0)
(0.485752 0.775917 0)
(0.490943 0.633669 0)
(0.52384 0.591386 0)
(0.574991 0.462139 0)
(0.543704 0.470735 0)
(0.508243 0.365967 0)
(0.6025 0.0376617 0)
(0.614102 -0.0671589 0)
(0.466013 -0.187793 0)
(0.53995 -0.369214 0)
(0.838366 -0.8054 0)
(0.786939 -0.92255 0)
(0.0893479 1.29879 0)
(0.103133 1.02538 0)
(0.145041 1.05036 0)
(0.180923 0.970162 0)
(0.177953 0.940927 0)
(0.214021 0.901392 0)
(0.205057 0.859504 0)
(0.240529 0.827798 0)
(0.215486 0.763476 0)
(0.276786 0.715329 0)
(0.553064 0.706628 0)
(0.503871 0.682142 0)
(0.326611 0.56823 0)
(0.448092 0.486082 0)
(0.447131 0.435079 0)
(0.437525 0.255233 0)
(0.475159 0.352986 0)
(0.427875 0.18241 0)
(0.50399 0.0494332 0)
(0.460934 -0.33589 0)
(0.366103 -0.655409 0)
(0.640718 -0.960325 0)
(1.03798 -1.09922 0)
(0.0780565 1.07387 0)
(0.0826853 0.980786 0)
(0.118105 0.978888 0)
(0.145185 0.930883 0)
(0.146917 0.906927 0)
(0.17335 0.895045 0)
(0.176142 0.863281 0)
(0.201308 0.84195 0)
(0.226733 0.774918 0)
(0.242714 0.748745 0)
(0.326952 0.709626 0)
(0.380211 0.492149 0)
(0.342729 0.48736 0)
(0.407329 0.437189 0)
(0.437036 0.47574 0)
(0.457026 0.34966 0)
(0.354769 0.255592 0)
(0.0342992 -0.0391835 0)
(0.244165 -0.155484 0)
(0.253343 -0.546335 0)
(0.293681 -0.5809 0)
(0.615784 -0.637823 0)
(0.703322 -1.00431 0)
(0.0452987 1.02127 0)
(0.0507215 0.96393 0)
(0.0881259 0.95733 0)
(0.111125 0.920046 0)
(0.127122 0.891079 0)
(0.159279 0.851327 0)
(0.138302 0.805672 0)
(0.143905 0.770394 0)
(0.149619 0.712671 0)
(0.112949 0.631811 0)
(0.144891 0.571443 0)
(0.269753 0.525955 0)
(0.326115 0.440483 0)
(0.509697 0.378833 0)
(0.402967 0.404558 0)
(0.246871 0.31984 0)
(0.228604 0.24377 0)
(0.312857 0.176561 0)
(0.196114 -0.0736201 0)
(0.329957 -0.320212 0)
(0.333331 -0.469772 0)
(0.444584 -0.612396 0)
(0.410269 -0.874501 0)
(0.0248743 0.870723 0)
(0.0307578 0.861408 0)
(0.0563628 0.841668 0)
(0.0694329 0.831035 0)
(0.086614 0.7906 0)
(0.109907 0.865723 0)
(0.100303 0.904059 0)
(0.105489 0.794193 0)
(0.112354 0.842001 0)
(0.109331 0.719159 0)
(0.107992 0.717155 0)
(0.105723 0.786757 0)
(0.191678 0.609337 0)
(0.411815 0.469073 0)
(0.390808 0.424456 0)
(0.332892 0.473493 0)
(0.306468 0.444065 0)
(0.217645 0.128839 0)
(0.462653 -0.124874 0)
(0.290708 -0.41721 0)
(0.366296 -0.55039 0)
(0.350919 -0.923925 0)
(0.136283 -0.905268 0)
(0.0177647 0.93648 0)
(0.0228506 0.928903 0)
(0.0591752 0.903741 0)
(0.056622 0.877931 0)
(0.147662 0.821034 0)
(0.267576 0.80651 0)
(0.13814 0.702746 0)
(0.0954218 0.739539 0)
(0.12131 0.615642 0)
(-0.0250599 0.624733 0)
(0.173678 0.599451 0)
(0.126022 0.563895 0)
(0.0510759 0.538535 0)
(0.366903 0.433651 0)
(0.380328 0.353459 0)
(0.250469 0.429775 0)
(0.15397 0.354488 0)