/*--------------------------------*- C++ -*----------------------------------*\
| =========                 |                                                 |
| \\      /  F ield         | foam-extend: Open Source CFD                    |
|  \\    /   O peration     | Version:     4.1                                |
|   \\  /    A nd           | Web:         http://www.foam-extend.org         |
|    \\/     M anipulation  |                                                 |
\*---------------------------------------------------------------------------*/
FoamFile
{
    version     2.0;
    format      ascii;
    class       volScalarField;
    location    "0.5";
    object      alpha1;
}
// * * * * * * * * * * * * * * * * * * * * * * * * * * * * * * * * * * * * * //

dimensions      [0 0 0 0 0 0 0];

internalField   nonuniform List<scalar> 
2268
(
1
1
1
0.999999
0.999999
0.999999
1
1
1
1
1
1
1
1
1
1
1
1
1
1
1
1
0.999977
0.999999
0.999999
0.999999
0.999999
1
1
1
1
1
1
1
1
1
1
1
1
1
1
1
1
1
1
0.999976
1
0.999999
1
1
1
1
1
1
1
1
1
1
1
1
1
1
1
1
1
1
1
1
0.999983
1
1
1
1
1
1
1
1
1
1
1
1
1
1
1
1
1
1
1
1
1
1
0.999991
1
1
1
1
1
1
1
1
1
1
1
1
1
1
1
1
1
1
1
1
1
1
0.999997
1
1
1
1
1
1
1
1
1
1
1
1
1
1
1
1
1
1
1
1
1
1
0.999999
0.999999
0.999999
0.999992
0.999998
0.999994
0.999981
0.999979
0.999852
0.999924
0.999995
1
1
1
1
1
1
1
1
1
1
1
1
1
0.998067
0.997938
0.995265
0.99742
0.995632
0.991663
0.989692
0.983482
0.988645
0.998187
0.999963
1
1
1
1
1
1
1
1
1
1
1
0.999999
0.157131
0.172987
0.19718
0.199608
0.697346
0.970825
0.970825
0.970825
0.969576
0.970682
0.975578
0.981219
0.988133
0.989497
0.985311
0.974694
0.976107
0.984222
0.974832
0.0075042
0.00948648
0.00799878
0.112595
0.559831
0.826748
0.505076
0.38627
0.46155
0.527251
0.544846
0.653799
0.832358
0.933207
0.99392
0.993917
0.993917
0.993917
0.993917
0.0103881
0.135417
0.012057
0.0317061
0.35913
0.5212
0.0426408
0.00446391
0.0036454
0.0078933
0.0144289
0.0575381
0.200478
0.574915
0.980835
0.993917
0.993917
0.993917
0.993917
0.0128516
0.485738
0.160658
0.029026
0.365914
0.539588
0.0691744
0.00138628
0.00133384
0.00132676
0.00219934
0.00360732
0.0150448
0.172504
0.869696
0.979802
0.993168
0.993917
0.993917
0.00767024
0.68894
0.709011
0.0553401
0.434855
0.526513
0.106528
0.00538447
0.0016787
0.000608206
0.00352839
0.00524967
0.00617558
0.0646079
0.51327
0.883072
0.970242
0.993738
0.993917
0.271116
0.906583
0.957333
0.131564
0.280004
0.259609
0.109206
0.0302058
0.00154671
0.000155972
0.00187242
0.00925263
0.00611312
0.0154481
0.133582
0.43986
0.895539
0.986242
0.993917
0.963423
0.994332
0.979638
0.209601
0.0695088
0.0707251
0.0452569
0.0197868
0.000781558
0.00016225
0.000415045
0.00648079
0.00475107
0.00428975
0.0175673
0.1304
0.720313
0.978987
0.993917
0.999767
0.999757
0.988095
0.466854
0.0596746
0.00748224
0.00643668
0.00507272
0.00297805
0.000690464
4.86332e-05
0.000219529
0.00408331
0.00265857
0.00546248
0.0724825
0.561702
0.972689
0.993917
0.771135
0.769615
0.741136
0.75196
0.741175
0.669457
0.683442
0.665825
0.702287
0.808326
0.900822
0.958615
0.98375
0.995337
0.998696
0.99976
0.999945
0.999988
0.999993
0.999998
1
1
0.999976
0.140108
0.138987
0.12262
0.105478
0.114992
0.0749708
0.0848745
0.0833629
0.104445
0.175072
0.296162
0.511325
0.746788
0.911851
0.974624
0.990571
0.993627
0.996606
0.999171
0.9999
0.999991
1
0.999959
0.00264199
0.00269331
0.00218713
0.00111713
0.00186765
0.00137982
0.00152702
0.00147224
0.00226111
0.0078232
0.0255617
0.087478
0.198388
0.379758
0.612559
0.762403
0.857873
0.912702
0.978342
0.986226
0.995524
0.997043
0.997676
4.09763e-05
5.4346e-05
2.30713e-05
1.67477e-05
3.19754e-05
1.86992e-05
2.31711e-05
2.11232e-05
7.04289e-05
0.000262374
0.00130714
0.00791837
0.0306606
0.0673421
0.122336
0.165401
0.180622
0.244156
0.414055
0.512396
0.68111
0.792594
0.841032
1.46465e-06
1.58616e-06
2.53963e-07
2.22807e-07
3.89902e-07
5.26956e-07
8.81652e-07
6.82797e-07
1.86147e-06
8.73664e-06
7.77588e-05
0.000650929
0.00227501
0.00344261
0.00455102
0.00676112
0.00752229
0.0160559
0.0307953
0.0378644
0.0639739
0.0812976
0.130843
1.06468e-07
6.86717e-08
1.6068e-09
8.87586e-10
4.20455e-09
3.28744e-08
1.25595e-07
8.1994e-08
8.75229e-08
3.34687e-07
3.98266e-06
1.88585e-05
4.1688e-05
7.82231e-05
6.47339e-05
6.85158e-05
0.000149503
0.000512229
0.000589695
0.00299749
0.00591425
0.00583427
0.00876165
4.47267e-09
2.67354e-09
1.18843e-11
2.84784e-12
2.71315e-11
9.27203e-10
8.95556e-09
9.12616e-09
9.45316e-09
4.09149e-08
3.80245e-07
1.67152e-06
1.11081e-05
2.02516e-05
3.45138e-05
3.63061e-05
2.03267e-05
2.18611e-05
2.41076e-05
3.74826e-05
3.74963e-05
0.000103925
0.00106341
8.54429e-11
3.88226e-11
8.4752e-13
4.15268e-14
3.50284e-13
9.2805e-12
3.0575e-10
5.02361e-10
8.74233e-10
2.58308e-08
4.27179e-07
1.03777e-06
1.73832e-05
3.70259e-05
1.73387e-05
1.31824e-05
5.89897e-06
2.3088e-06
2.59583e-06
5.07508e-06
9.37772e-06
1.66513e-05
4.10315e-05
1.89815e-12
6.48492e-13
1.59497e-14
4.4959e-15
1.46598e-13
1.19739e-12
1.07841e-11
1.98765e-11
2.0489e-10
1.51615e-08
3.91109e-07
4.97773e-07
9.46092e-07
1.43757e-05
4.72817e-06
2.48416e-06
1.05009e-06
3.69591e-07
3.39114e-07
7.93681e-07
2.90748e-06
6.17122e-06
9.54041e-06
1.1865e-13
3.97877e-14
1.40866e-15
2.10769e-15
1.50313e-13
1.11055e-12
5.44079e-12
1.18107e-11
1.90421e-10
2.76274e-09
9.44319e-08
8.36571e-08
2.09143e-07
2.13022e-07
7.90639e-08
5.59509e-08
1.30431e-08
5.5225e-08
1.46273e-07
1.2517e-07
1.3516e-07
3.04199e-07
1.01451e-06
1.79514e-14
6.2423e-15
4.02515e-16
1.17525e-15
2.05866e-13
1.12251e-12
5.08653e-12
7.94716e-12
3.10352e-10
8.22574e-10
4.89143e-09
4.82728e-09
3.9401e-09
3.08655e-09
1.41762e-09
1.03212e-09
4.36143e-10
5.51059e-10
2.76935e-10
1.36828e-10
5.71683e-10
7.71811e-09
8.5655e-09
3.35818e-15
1.59477e-15
1.16741e-16
9.53846e-16
2.41639e-13
5.58267e-13
1.70983e-12
1.40157e-12
4.37384e-10
3.86677e-10
9.56478e-10
7.25644e-10
6.16125e-10
3.97964e-10
4.12831e-10
3.88116e-10
3.34526e-10
2.34303e-10
1.12925e-10
4.0337e-11
2.28875e-11
3.14878e-11
1.55315e-11
9.7534e-16
4.9486e-16
4.17433e-17
2.83757e-15
2.45158e-13
1.08825e-13
1.10125e-13
1.56554e-13
1.13486e-10
8.16744e-11
4.48171e-10
2.98869e-10
2.66028e-10
1.95597e-10
2.84884e-10
3.15523e-10
2.67868e-10
1.50513e-10
9.70787e-11
5.59134e-11
2.88179e-11
7.57364e-12
8.04682e-13
2.88733e-16
1.24852e-16
1.28002e-17
3.53302e-15
1.19932e-13
1.59121e-14
1.1654e-14
1.36729e-14
1.12395e-11
1.6253e-11
3.44325e-11
1.21727e-11
1.66688e-11
4.3506e-11
1.53996e-10
1.246e-10
8.76172e-11
3.5852e-11
2.28431e-11
8.75491e-12
1.05917e-11
3.96703e-12
5.14044e-13
7.52652e-17
2.50653e-17
2.83273e-18
1.23317e-15
3.45119e-14
2.64369e-15
2.93062e-15
3.14186e-15
2.69986e-15
4.4884e-15
1.39007e-14
1.12505e-13
9.84002e-12
3.97542e-11
4.39799e-11
2.65138e-11
9.79292e-12
3.55013e-12
2.02818e-12
5.85362e-13
6.23241e-13
4.24678e-13
1.52744e-13
1.70499e-17
4.511e-18
1.57988e-18
3.54823e-16
1.00428e-14
7.85662e-16
1.18288e-15
8.972e-16
7.88193e-16
9.32445e-16
2.98314e-15
1.17958e-13
2.23648e-12
8.55848e-12
3.31688e-12
2.18882e-12
5.95998e-13
3.52888e-13
1.03043e-13
3.48911e-14
9.67129e-15
5.27337e-15
4.88953e-14
3.32462e-18
7.76843e-19
2.98305e-18
2.33991e-16
1.87701e-15
2.11132e-16
4.15304e-16
2.7085e-16
1.94931e-16
1.29849e-16
8.48425e-16
3.29728e-15
9.82861e-14
1.44735e-13
8.51126e-14
8.60151e-14
4.70938e-14
3.80632e-14
1.53511e-14
5.28241e-15
1.63167e-15
7.34289e-16
2.02237e-14
5.46401e-19
1.38278e-19
2.02653e-18
4.11457e-17
3.44215e-16
2.96691e-17
1.03533e-16
6.97789e-17
4.03555e-17
2.0402e-17
3.72686e-16
1.15886e-15
6.27839e-15
5.21201e-15
5.23729e-15
4.16185e-15
4.35606e-15
3.19951e-15
1.9401e-15
1.07967e-15
6.57011e-16
5.35934e-16
5.18998e-15
9.07458e-20
4.99521e-20
2.52878e-19
6.83865e-18
1.7753e-17
8.1875e-18
3.02082e-17
5.91911e-18
5.06369e-18
2.90097e-18
8.06397e-17
3.04772e-16
5.19564e-16
4.89447e-16
3.09354e-16
4.05886e-16
4.14329e-16
3.19962e-16
2.51205e-16
1.96745e-16
2.28455e-16
3.73567e-15
6.72441e-15
7.80108e-23
1.49448e-24
3.19758e-20
1.34635e-19
2.6989e-19
5.77343e-19
1.23937e-18
1.64621e-18
6.8494e-19
4.19431e-19
8.99852e-18
4.97653e-17
3.24402e-17
4.4655e-17
3.98228e-17
5.70763e-17
3.56364e-17
3.57905e-17
3.23124e-17
5.08526e-17
5.39084e-17
6.97003e-12
1.94274e-11
2.95248e-25
3.89648e-25
4.26985e-23
1.2228e-21
1.17269e-20
5.63762e-20
1.05015e-19
1.87894e-19
7.59103e-20
4.30377e-20
1.15344e-18
2.80424e-18
4.02562e-18
6.59612e-18
5.19881e-18
5.33464e-18
2.97025e-18
3.78126e-18
5.75793e-18
2.26732e-17
3.03814e-15
7.50495e-10
1.93324e-09
8.57855e-26
7.16261e-26
1.62242e-24
3.43438e-23
6.07599e-22
2.49757e-21
6.03931e-21
2.0661e-21
1.37048e-21
6.32074e-21
4.47623e-19
5.76916e-19
6.05633e-19
4.36771e-19
3.73823e-19
3.07421e-19
2.59498e-19
3.8793e-19
1.47391e-18
5.29067e-16
1.49703e-13
3.20341e-09
1.48156e-08
1.93713e-26
1.04467e-26
4.61824e-26
1.08455e-25
1.73978e-26
1.17566e-24
6.26106e-25
1.43762e-24
2.19948e-24
1.90572e-21
8.98733e-21
2.05704e-20
2.34979e-20
1.32521e-20
1.04037e-20
5.84655e-21
7.70497e-21
3.02157e-19
1.55652e-18
2.21694e-15
2.43739e-13
9.21137e-10
2.83005e-08
1.71069e-29
7.25652e-29
7.21135e-28
2.13019e-28
5.20851e-28
1.858e-27
3.61294e-27
2.2194e-26
2.47711e-26
2.21129e-23
3.15473e-23
4.31807e-23
2.57035e-23
1.59001e-23
6.26519e-22
1.0579e-21
5.25431e-21
5.87539e-19
3.41271e-18
1.34775e-13
2.22984e-12
8.42531e-10
5.2261e-08
3.76534e-37
2.06093e-38
5.0034e-37
1.30701e-34
6.3999e-33
4.18748e-32
2.29212e-29
1.32065e-28
1.97127e-27
1.0525e-26
6.50902e-27
6.74973e-27
1.43366e-26
3.32022e-24
7.07423e-21
1.35204e-20
2.34333e-20
1.33439e-18
8.1861e-18
1.30921e-11
1.74761e-11
2.86344e-10
3.29379e-08
8.88018e-39
8.23378e-40
3.36347e-38
1.66822e-35
7.05109e-35
6.02878e-34
8.5134e-30
5.84036e-29
6.59551e-29
1.64701e-28
2.13339e-28
1.7364e-27
2.95666e-26
1.20087e-23
4.43604e-20
1.35704e-19
8.45694e-20
2.76056e-18
2.65855e-17
1.30155e-11
4.88455e-11
7.59378e-09
1.04531e-07
1.68392e-40
1.35762e-41
2.32413e-39
8.10186e-39
9.81503e-37
1.07724e-34
3.35535e-34
4.20293e-33
1.2955e-31
5.27158e-30
1.32025e-28
4.74829e-27
9.22519e-26
2.22855e-23
3.28001e-19
4.51452e-19
2.3876e-19
1.24753e-17
1.42711e-15
1.4378e-11
4.08543e-10
7.62258e-08
5.21293e-07
6.67968e-46
9.00801e-43
1.8155e-39
5.41776e-39
6.46882e-38
3.35634e-36
1.81017e-34
8.77989e-33
3.43512e-31
1.53235e-29
4.36004e-28
1.38202e-26
3.24603e-25
3.9441e-23
1.90509e-18
1.03804e-18
2.26636e-15
3.45285e-13
4.50311e-11
2.5062e-10
1.58144e-09
1.21463e-07
4.50758e-06
8.13815e-49
1.02095e-44
1.22675e-41
1.01911e-39
7.23174e-38
5.60261e-36
3.60088e-34
1.96385e-32
8.83696e-31
3.78242e-29
1.34922e-27
3.99532e-26
9.48701e-25
7.23433e-23
8.7043e-18
1.4319e-16
1.56908e-11
7.17208e-10
6.55455e-08
1.6785e-07
9.552e-07
1.86449e-06
4.7527e-05
1.25305e-48
1.14299e-44
1.02552e-41
1.22131e-39
1.10547e-37
9.85748e-36
6.8515e-34
4.0697e-32
2.08511e-30
9.20307e-29
3.98732e-27
1.17549e-25
2.47917e-24
1.56741e-22
3.08442e-17
1.6526e-13
2.73284e-09
1.63952e-07
3.67034e-06
1.11644e-05
5.27466e-05
4.53636e-05
0.000331057
1.61792e-48
1.28128e-44
6.91285e-42
1.32659e-39
1.50836e-37
1.46468e-35
1.1308e-33
7.46077e-32
4.34622e-30
2.20077e-28
9.75173e-27
3.10848e-25
7.24605e-24
3.70546e-22
3.72838e-16
1.57844e-11
5.33332e-08
4.01297e-06
3.61366e-05
0.000139535
0.00028919
0.000198161
0.000535508
1.67839e-48
1.32802e-44
7.42057e-42
1.54052e-39
1.93664e-37
1.97339e-35
1.67539e-33
1.26881e-31
8.60433e-30
4.96466e-28
2.2012e-26
7.46556e-25
1.57571e-23
1.38958e-21
4.59201e-15
1.75207e-10
2.15789e-07
1.36783e-05
0.000123998
0.000393094
0.000394655
0.000376854
0.000506802
1.32016e-48
1.04822e-44
6.11334e-42
1.35415e-39
1.89041e-37
2.16338e-35
2.13794e-33
1.94938e-31
1.54426e-29
9.66313e-28
4.34503e-26
1.3345e-24
2.51687e-23
4.4661e-21
1.63385e-14
4.56649e-10
3.0272e-07
1.56907e-05
0.000199905
0.000394655
0.000276272
5.90924e-05
4.75014e-05
7.85872e-49
5.74859e-45
3.71708e-42
9.27091e-40
1.51998e-37
2.14183e-35
2.66412e-33
2.90557e-31
2.53525e-29
1.63672e-27
7.20249e-26
2.01813e-24
3.56381e-23
1.06998e-20
2.28188e-14
5.43437e-10
2.87523e-07
9.92218e-06
4.40657e-05
0.000183957
7.59061e-05
1.4898e-05
1.0081e-05
4.5645e-49
2.03183e-45
1.46268e-42
4.98084e-40
1.10885e-37
2.13065e-35
3.27411e-33
3.92544e-31
3.48949e-29
2.19581e-27
8.9929e-26
2.33703e-24
4.06091e-23
1.37376e-20
1.50037e-14
3.00247e-10
1.53492e-07
6.92107e-06
3.35988e-05
6.32225e-05
6.83374e-05
2.74962e-05
1.7483e-05
2.66256e-49
1.08033e-45
7.48518e-43
2.98836e-40
8.20857e-38
1.884e-35
3.18305e-33
3.93879e-31
3.46642e-29
2.09438e-27
7.77197e-26
1.99843e-24
3.91844e-23
3.41629e-21
5.42671e-15
2.2474e-10
3.03789e-07
2.36346e-05
0.000164512
0.000221941
0.000214227
3.41153e-05
1.39182e-05
1.26743e-50
7.58381e-47
9.12601e-44
6.43962e-41
2.61934e-38
7.47455e-36
1.44328e-33
1.98195e-31
1.90596e-29
1.25181e-27
4.77457e-26
1.5275e-24
3.63721e-23
1.31044e-20
3.04715e-14
9.86955e-10
7.55722e-07
3.52422e-05
0.000258593
0.000323953
0.000258651
2.9796e-05
8.34895e-06
2.56327e-51
1.99941e-47
2.46028e-44
1.64152e-41
6.71022e-39
1.94274e-36
3.83603e-34
5.28746e-32
4.75694e-30
3.46708e-28
1.52086e-26
7.31164e-25
2.06288e-23
5.31502e-20
1.86236e-13
2.85155e-09
1.085e-06
3.4135e-05
0.000172652
0.000323924
0.000142675
2.2372e-05
3.5527e-06
9.95693e-56
8.96886e-50
2.56481e-46
2.99186e-43
1.71922e-40
7.06564e-38
1.75263e-35
3.19996e-33
3.71707e-31
3.42325e-29
2.33547e-27
1.31944e-25
5.13015e-24
3.31385e-19
3.33255e-12
1.69943e-08
1.87291e-06
2.51185e-05
0.000199781
0.000468727
7.74695e-05
8.9066e-06
2.85857e-06
4.81313e-70
6.47029e-54
5.02762e-50
1.19602e-46
1.20301e-43
1.0685e-40
4.53615e-38
1.94942e-35
4.31735e-33
6.12049e-31
8.56349e-29
7.8675e-27
1.00765e-24
1.94535e-18
1.22701e-11
3.59393e-08
2.56831e-06
4.99584e-05
0.000576615
0.00130735
0.000345557
9.23915e-06
7.39169e-06
1.23236e-106
2.71223e-58
1.73737e-53
8.37402e-50
1.71323e-46
2.38243e-43
2.17795e-40
1.95918e-37
1.40185e-34
5.83268e-32
1.5967e-29
2.05822e-27
2.80548e-25
4.71466e-20
3.85087e-13
5.49637e-09
1.36822e-06
6.93839e-05
0.000785982
0.00137073
0.000797533
2.65113e-05
2.54254e-05
0
0
0
0
0
0
0
0
0
0
0
0
0
0
7.69995e-17
1.52987e-11
2.62241e-08
2.56008e-06
6.02402e-05
0.000529425
0.00159916
0.00120277
0.000109363
0.999816
0.999776
0.999858
0.999966
0.999846
0.999832
0.999879
0.999961
0.998407
0.997342
0.997075
0.998309
0.85328
0.847865
0.858231
0.901249
0.165876
0.190125
0.2229
0.317414
0.0102696
0.00866896
0.0118669
0.03737
0.00167681
0.001336
0.00122401
0.00164413
3.81933e-05
5.5104e-05
9.02027e-05
9.5037e-05
9.14966e-06
9.54582e-06
4.59471e-06
1.73156e-06
1.79079e-06
6.3288e-07
6.0858e-08
3.43416e-08
1.90265e-08
2.54368e-08
1.04945e-08
2.7223e-09
3.76381e-11
4.4523e-11
5.43481e-11
5.5804e-11
3.85723e-13
3.79126e-13
4.33585e-13
6.18922e-13
9.90059e-14
1.15832e-13
1.85835e-13
1.8246e-13
2.27965e-13
7.9084e-13
2.12678e-12
3.51308e-12
1.61023e-13
3.90815e-13
7.08448e-13
8.09342e-13
5.87428e-14
1.06794e-13
1.62524e-13
1.53544e-13
8.52341e-15
1.29538e-14
1.97424e-14
7.14483e-15
7.04651e-15
6.45679e-15
6.45652e-15
6.94441e-15
1.69581e-11
2.67691e-11
3.07859e-11
6.88193e-11
3.50945e-09
6.99412e-09
1.12397e-08
2.31398e-08
3.03194e-08
4.68271e-08
9.05011e-08
2.50398e-07
7.72787e-08
1.4343e-07
1.99758e-07
3.37399e-07
1.17046e-07
2.33976e-07
4.7347e-07
1.01416e-06
8.16677e-08
1.44435e-07
2.31017e-07
4.00252e-07
2.67205e-07
3.11896e-07
2.64278e-07
4.34503e-07
9.9775e-07
3.20925e-06
1.06354e-05
1.23955e-05
8.1618e-06
1.06785e-05
4.30952e-05
0.000287775
0.000165809
0.000611319
0.000680266
0.00068054
0.000692732
0.000692743
0.000591792
0.000189329
0.000692743
0.000692732
0.000633207
0.000206799
0.000473061
0.000333309
0.000174908
5.26661e-05
7.48516e-05
5.5032e-05
2.46001e-05
1.64304e-05
1.04157e-05
1.01286e-05
1.26165e-05
1.68461e-05
2.79306e-05
2.75142e-05
1.37292e-05
1.6081e-05
1.46023e-05
1.36223e-05
8.57296e-06
9.19157e-06
2.88302e-06
2.87897e-06
2.87611e-06
3.71677e-06
2.86919e-06
2.86371e-06
2.87897e-06
2.86735e-06
2.85306e-06
2.86899e-06
2.86371e-06
2.87297e-06
1.82795e-05
1.30824e-05
1.02676e-05
6.07157e-06
0.000164274
0.000431191
0.000927719
0.00149825
0.000232269
0.00103491
0.00227564
0.00235848
0.999975
0.999886
0.995826
0.809595
0.239771
0.0449868
0.00707683
0.00107208
0.000214643
0.000125706
3.76719e-05
4.73917e-05
0.000511886
0.00192486
0.00556695
0.0412611
0.498661
0.966684
0.993915
0.999975
0.999975
0.999096
0.946055
0.668594
0.291202
0.0511195
0.00503717
0.000308278
1.31527e-05
5.26199e-06
5.33345e-06
3.1778e-05
0.000499317
0.00392792
0.0283607
0.567209
0.965369
0.972192
0.999499
0.999934
0.99972
0.99585
0.976643
0.849239
0.241188
0.0107998
0.000138678
7.17088e-06
5.26393e-06
5.26199e-06
6.39765e-06
0.000202797
0.00317787
0.0505429
0.696707
0.974317
0.90306
0.966371
0.994328
0.982984
0.987574
0.988316
0.982407
0.740976
0.0873092
0.000871926
4.61461e-05
6.32396e-06
5.26393e-06
8.90478e-06
0.000211837
0.0015776
0.0751134
0.735964
0.974533
0.880472
0.642853
0.852004
0.719098
0.73732
0.865578
0.953116
0.953606
0.513244
0.0345756
0.000137606
1.82943e-05
1.156e-05
5.42493e-05
0.000977135
0.00365419
0.139688
0.749035
0.971129
0.88377
0.100584
0.196755
0.121142
0.135406
0.339688
0.527809
0.858737
0.882087
0.346123
0.0113966
0.00766767
0.000398692
0.0004804
0.0046767
0.0110922
0.162135
0.71655
0.948765
0.940291
0.00169238
0.00250729
0.00396919
0.0100776
0.0221234
0.0319073
0.292864
0.644315
0.789295
0.788501
0.265832
0.000765191
0.000673274
0.00466216
0.011499
0.171542
0.752019
0.936641
0.93961
1.44872e-05
9.02795e-05
0.000314152
0.00102652
0.00170241
0.00154348
0.00474928
0.0217267
0.403459
0.789295
0.488312
0.039597
0.00129999
0.00244628
0.0111993
0.298965
0.796463
0.803033
0.893475
3.52182e-07
5.18772e-06
2.38669e-05
7.49961e-05
0.000110671
0.000115425
0.000190482
0.00449815
0.0380698
0.389036
0.453161
0.0274118
0.00115976
0.000590996
0.0116382
0.4185
0.46309
0.413121
0.7427
2.69535e-08
1.43919e-07
3.01459e-06
2.51932e-05
6.0615e-05
6.46643e-05
3.23052e-05
3.67994e-05
0.00153284
0.139845
0.449536
0.0214306
0.000583484
0.000460883
0.072301
0.471811
0.260198
0.187377
0.701313
2.4332e-09
2.12566e-08
1.21355e-06
1.14923e-05
2.91471e-05
2.97953e-05
1.58634e-05
1.58538e-05
2.51564e-05
0.0830633
0.425385
0.0258081
0.000558843
0.00568851
0.441322
0.418903
0.183999
0.184546
0.774693
8.62673e-11
7.58712e-09
4.83772e-07
2.4907e-06
4.94578e-06
7.28202e-06
2.08343e-05
9.60118e-05
0.00164581
0.0738005
0.282453
0.0811068
0.00154917
0.232385
0.620819
0.198447
0.272712
0.686692
0.772734
7.44331e-12
5.34066e-10
2.6791e-08
2.21695e-07
7.67552e-07
5.49442e-06
9.32448e-05
0.000468572
0.0025415
0.0284622
0.115009
0.232081
0.159863
0.621069
0.620273
0.541065
0.416298
0.36137
0.302309
1.24308e-11
9.16389e-11
1.37472e-09
1.24338e-08
2.04103e-07
1.21798e-05
0.00022122
0.00133288
0.00492825
0.0190145
0.0746299
0.239039
0.360103
0.466453
0.440672
0.220561
0.111934
0.113634
0.129837
1.73081e-11
1.17427e-10
3.21553e-10
1.02024e-09
2.55628e-07
1.56349e-05
0.000274349
0.00192518
0.00727339
0.0190576
0.0414109
0.0852284
0.115913
0.108536
0.095055
0.0444769
0.045261
0.116143
0.403312
1.03031e-11
2.03505e-10
5.46093e-10
5.92245e-10
6.89461e-08
1.0018e-05
0.000200326
0.00121317
0.00333206
0.00540735
0.00645281
0.00700207
0.00961024
0.010022
0.00858901
0.00946894
0.0510825
0.113316
0.474724
1.16239e-12
8.26952e-11
8.52625e-10
2.51476e-09
7.08502e-08
6.61245e-06
8.29033e-05
0.000265485
0.000393364
0.000492466
0.000376557
0.000425254
0.000841493
0.000926714
0.00082298
0.00344483
0.0132695
0.0507835
0.538319
2.81344e-12
9.3688e-11
6.18013e-10
4.85129e-09
9.47421e-09
5.12072e-07
1.37971e-05
6.03913e-05
8.31481e-05
6.55637e-05
3.29719e-05
2.81591e-05
5.15128e-05
0.000148526
0.00083646
0.00249272
0.00575136
0.0247862
0.583051
1.85895e-13
8.59898e-12
2.75009e-09
5.88687e-08
1.39434e-07
5.05934e-08
1.00393e-06
7.87302e-06
1.23582e-05
1.09533e-05
5.21224e-06
5.26314e-06
5.39303e-06
0.000187423
0.00316447
0.00924372
0.00648279
0.021986
0.541174
1.79548e-10
1.30927e-10
5.03592e-10
3.05429e-08
1.78525e-07
3.72352e-08
4.29203e-08
3.00928e-07
7.987e-07
2.02409e-06
5.80416e-06
1.57156e-05
0.000160532
0.0021932
0.0121762
0.0258961
0.0250755
0.0649456
0.121482
2.02964e-07
6.74304e-07
3.611e-07
6.15601e-08
1.62176e-07
5.53467e-08
3.88978e-08
5.0095e-08
8.63625e-07
1.63263e-05
0.000294448
0.00163848
0.00294656
0.00625737
0.0198031
0.036155
0.0539053
0.0615946
0.00812944
2.05808e-05
4.37464e-05
1.66802e-05
1.3814e-06
1.93312e-07
2.20703e-07
4.64957e-08
8.1317e-08
7.72282e-06
0.000493712
0.00622569
0.0215712
0.0198979
0.00982476
0.00968713
0.011027
0.0254426
0.0154951
0.00644979
2.9664e-05
0.000268369
0.000254995
3.78282e-05
4.86833e-07
9.29537e-07
1.64017e-07
9.44345e-08
1.12845e-05
0.00125566
0.0320989
0.100049
0.072339
0.0219598
0.0177936
0.0335066
0.0530426
0.00790808
0.00657101
8.83272e-05
0.00076486
0.001122
0.000412929
2.28237e-05
1.04647e-06
2.64336e-07
4.77087e-07
0.000186343
0.0120956
0.0820242
0.160092
0.151522
0.0422936
0.0834134
0.166189
0.201206
0.0940944
0.0712843
2.28677e-05
0.000312829
0.0011214
0.000859174
0.000109924
1.34729e-06
3.57958e-07
9.02024e-05
0.00761378
0.0824832
0.160092
0.160092
0.135655
0.0392372
0.114792
0.2744
0.340005
0.373497
0.367818
2.93752e-05
0.000136367
0.000572988
0.000857688
0.000252841
3.22577e-06
4.74208e-07
0.000150442
0.00868534
0.0632667
0.122491
0.0929143
0.0267521
0.0101696
0.0220611
0.0516455
0.0521319
0.441167
0.489184
3.10202e-05
7.13075e-05
0.000161333
0.000856556
0.000255374
2.66531e-06
6.69738e-06
0.000815065
0.016445
0.0423781
0.0171738
0.00710198
0.00607658
0.00395854
0.000266235
0.000634467
0.00143634
0.066015
0.489184
0.000258671
2.25742e-05
3.91813e-05
0.000626241
0.000245119
2.75994e-06
0.000284872
0.00566155
0.019967
0.0197406
0.00528593
0.0018457
0.000145006
4.95815e-05
4.87624e-05
4.77468e-05
0.00054369
0.01981
0.478445
0.000258977
1.13747e-05
1.61251e-05
0.000278086
0.000168757
1.19e-05
0.000682749
0.00851463
0.0155949
0.00281778
0.000829266
0.000388645
3.77427e-05
3.0451e-05
0.000127613
0.0002631
0.000975407
0.00562938
0.347598
5.86037e-05
2.16964e-06
1.02035e-05
0.000128364
6.41541e-05
2.50417e-05
0.00129593
0.0077997
0.00858721
0.000559373
0.00014387
9.49274e-05
3.04294e-05
3.05175e-05
0.00096769
0.00165144
0.00121138
0.00175191
0.228756
2.69338e-05
1.06873e-06
4.63504e-06
6.72212e-05
4.54427e-05
4.65731e-05
0.0011491
0.0038814
0.00520029
0.000173376
5.51815e-05
2.43281e-05
1.84729e-05
9.11651e-05
0.00225235
0.00261751
0.000527172
0.000955149
0.0606567
1.2518e-05
1.06547e-06
5.09344e-06
4.81935e-05
5.90216e-05
5.77961e-05
0.000788999
0.00364773
0.00287117
0.000168519
3.83168e-05
1.89202e-05
3.13685e-05
0.000867916
0.00264538
0.00253657
0.000328084
0.000612785
0.0167868
1.14706e-05
2.29574e-06
5.12952e-06
3.87815e-05
5.89256e-05
5.1173e-05
0.000497425
0.00586223
0.00217893
0.000124396
2.50658e-05
2.86178e-05
0.000567311
0.00260616
0.0026457
0.000966956
9.72469e-05
0.000450963
0.0213426
1.6763e-05
2.2896e-06
4.63752e-06
2.06162e-05
3.63561e-05
4.9352e-05
0.000771142
0.0058649
0.00148815
7.07874e-05
4.7403e-05
0.000507047
0.00257167
0.00285492
0.00220915
0.000315482
7.75675e-06
0.000380223
0.096726
1.65785e-05
1.65811e-06
1.71287e-06
3.90308e-06
6.51683e-06
9.6224e-05
0.00279262
0.00563792
0.000398907
0.000400615
0.00088081
0.00224313
0.00278159
0.00219474
0.000299965
1.37377e-05
1.27627e-06
0.000403697
0.14421
1.0855e-05
1.31703e-06
1.31802e-06
1.31703e-06
1.26205e-05
0.000313484
0.00339729
0.00220607
0.000215926
0.00163816
0.00254576
0.00252937
0.00182577
0.000219917
6.37744e-06
1.16136e-07
4.86912e-07
0.000471386
0.132593
4.6502e-06
1.31802e-06
1.31581e-06
1.25572e-05
0.000267631
0.00170096
0.00321976
0.000262325
0.000246245
0.00187319
0.00174673
0.000582874
4.38208e-05
4.92887e-07
5.88367e-09
9.55752e-09
1.33599e-07
5.57015e-05
0.0581898
2.88665e-06
2.67889e-06
2.62903e-05
0.000382993
0.00186995
0.00220589
0.00125228
0.000674531
0.0015942
0.00042064
5.51595e-05
8.61891e-06
5.52483e-07
4.50833e-09
1.82387e-09
4.64689e-09
5.19913e-08
3.74173e-05
0.106036
3.57438e-06
5.47217e-05
0.000536913
0.00218703
0.00237232
0.0022054
0.000716215
0.0013902
0.00128627
0.000129561
1.25057e-06
1.07923e-09
4.51927e-12
6.59803e-13
1.78131e-09
1.96696e-09
9.06234e-09
3.6766e-05
0.171171
4.79796e-05
0.000431318
0.00257814
0.00258931
0.00209651
0.000962254
0.000712443
0.000477333
8.77493e-05
5.47385e-06
3.05081e-08
1.11466e-11
8.56756e-13
3.46164e-13
8.09438e-10
7.42095e-11
5.87112e-10
0.000173719
0.329812
0.00158914
0.0014125
0.00164651
0.00125329
0.000567488
0.000313532
0.000315032
3.54263e-06
7.93491e-08
1.59392e-10
1.4227e-14
6.8477e-15
6.00116e-13
8.87531e-14
1.66643e-12
1.8655e-13
3.95238e-11
4.21955e-05
0.196007
0.00235848
0.000670258
0.000241887
0.00010107
6.47512e-05
8.18696e-05
2.92626e-06
7.92108e-10
5.87346e-13
4.34882e-21
2.40705e-20
8.16684e-20
2.68716e-18
1.95035e-18
2.42206e-18
1.10013e-18
6.06096e-17
3.32233e-08
0.0310324
)
;

boundaryField
{
    leftWall
    {
        type            zeroGradient;
    }
    rightWall
    {
        type            zeroGradient;
    }
    lowerWall
    {
        type            zeroGradient;
    }
    atmosphere
    {
        type            inletOutlet;
        inletValue      uniform 0;
        value           nonuniform List<scalar> 
46
(
0
0
0
0
0
0
0
0
0
0
0
0
0
0
0
0
0
0
6.02402e-05
0.000529425
0.00159916
0.00120277
0.000109363
0.000232269
0.00103491
0.00227564
0.00235848
0.00235848
0.000670258
0.000241887
0.00010107
6.47512e-05
8.18696e-05
0
0
0
0
0
0
0
0
0
0
0
0
0.0310324
)
;
    }
    defaultFaces
    {
        type            empty;
    }
}


// ************************************************************************* //
