/*--------------------------------*- C++ -*----------------------------------*\
| =========                 |                                                 |
| \\      /  F ield         | foam-extend: Open Source CFD                    |
|  \\    /   O peration     | Version:     4.1                                |
|   \\  /    A nd           | Web:         http://www.foam-extend.org         |
|    \\/     M anipulation  |                                                 |
\*---------------------------------------------------------------------------*/
FoamFile
{
    version     2.0;
    format      ascii;
    class       surfaceScalarField;
    location    "0.5";
    object      phi;
}
// * * * * * * * * * * * * * * * * * * * * * * * * * * * * * * * * * * * * * //

dimensions      [0 3 -1 0 0 0 0];

internalField   nonuniform List<scalar> 
4432
(
3.13315e-06
-3.13315e-06
4.97126e-06
-1.83811e-06
8.5371e-06
-3.56585e-06
1.12253e-05
-2.68816e-06
1.39061e-05
-2.68086e-06
1.57822e-05
-1.87607e-06
1.71087e-05
-1.32654e-06
1.7686e-05
-5.77251e-07
1.72601e-05
4.25859e-07
1.63481e-05
9.1207e-07
2.68809e-05
-1.05328e-05
2.73513e-05
-4.70463e-07
2.81551e-05
-8.03716e-07
2.79332e-05
2.21874e-07
2.75524e-05
3.80825e-07
2.69546e-05
5.97802e-07
2.62874e-05
6.6715e-07
2.51751e-05
1.11232e-06
2.35612e-05
1.61386e-06
2.02e-05
3.36125e-06
1.50473e-05
5.15271e-06
8.83778e-06
6.20949e-06
8.83778e-06
3.1012e-06
-6.23435e-06
5.23275e-06
-3.96965e-06
8.77204e-06
-7.10515e-06
1.12382e-05
-5.15428e-06
1.39701e-05
-5.41281e-06
1.59616e-05
-3.8676e-06
1.74757e-05
-2.84063e-06
1.79255e-05
-1.02701e-06
1.78208e-05
5.30576e-07
1.64839e-05
2.24891e-06
2.42058e-05
-1.82547e-05
2.46995e-05
-9.64215e-07
2.53462e-05
-1.45039e-06
2.52389e-05
3.29162e-07
2.54443e-05
1.7545e-07
2.52291e-05
8.12981e-07
2.45088e-05
1.38742e-06
2.37787e-05
1.84247e-06
2.2712e-05
2.68051e-06
1.96789e-05
6.39437e-06
1.49495e-05
9.88217e-06
7.63688e-06
1.35221e-05
1.64747e-05
2.8696e-06
-9.10395e-06
5.46284e-06
-6.56289e-06
8.85784e-06
-1.05001e-05
1.09296e-05
-7.22606e-06
1.38721e-05
-8.35533e-06
1.604e-05
-6.0355e-06
1.74512e-05
-4.2518e-06
1.86471e-05
-2.22294e-06
1.79213e-05
1.2564e-06
2.9838e-05
-9.66773e-06
2.44316e-05
-1.28483e-05
2.39379e-05
-4.70477e-07
2.34704e-05
-9.82937e-07
2.28937e-05
9.05865e-07
2.27174e-05
3.51803e-07
2.24068e-05
1.12358e-06
2.21961e-05
1.5981e-06
2.20346e-05
2.00396e-06
2.13941e-05
3.32105e-06
1.91558e-05
8.63262e-06
1.55983e-05
1.34397e-05
9.83457e-06
1.92858e-05
2.63092e-05
2.61442e-06
-1.17184e-05
5.66964e-06
-9.61812e-06
8.94166e-06
-1.37722e-05
1.1083e-05
-9.36744e-06
1.42009e-05
-1.14732e-05
1.6202e-05
-8.0366e-06
1.79132e-05
-5.963e-06
1.74515e-05
-1.76118e-06
2.74608e-05
-8.75295e-06
2.45351e-05
-6.74206e-06
2.02253e-05
-8.53849e-06
1.74417e-05
2.31308e-06
1.58155e-05
6.43263e-07
1.42254e-05
2.49594e-06
1.39718e-05
6.05444e-07
1.39303e-05
1.16507e-06
1.43197e-05
1.20876e-06
1.47902e-05
1.53341e-06
1.56114e-05
2.49982e-06
1.56746e-05
8.56949e-06
1.44609e-05
1.46534e-05
9.15233e-06
2.45944e-05
3.54616e-05
2.42709e-06
-1.41455e-05
5.77477e-06
-1.29658e-05
9.12045e-06
-1.71178e-05
1.15139e-05
-1.17609e-05
1.4121e-05
-1.40803e-05
1.54531e-05
-9.36861e-06
1.74327e-05
-7.94267e-06
1.63687e-05
-6.97106e-07
2.44213e-05
-1.68056e-05
2.07575e-05
-3.07829e-06
1.65923e-05
-4.37332e-06
1.44444e-05
4.46097e-06
1.31495e-05
1.93825e-06
1.17256e-05
3.91984e-06
1.0091e-05
2.23997e-06
8.75741e-06
2.49869e-06
8.63001e-06
1.33616e-06
8.00275e-06
2.16067e-06
8.64835e-06
1.85422e-06
9.60114e-06
7.6167e-06
1.05522e-05
1.37024e-05
9.39072e-06
2.57558e-05
4.48523e-05
2.6896e-06
-1.68351e-05
6.22042e-06
-1.64966e-05
9.34266e-06
-2.02401e-05
1.13242e-05
-1.37424e-05
1.37208e-05
-1.64769e-05
1.59486e-05
-1.15964e-05
1.57354e-05
-7.72944e-06
2.46113e-05
-9.57303e-06
2.10844e-05
-1.32786e-05
1.92481e-05
-1.24198e-06
1.45881e-05
2.86614e-07
1.1588e-05
7.46108e-06
9.77996e-06
3.7463e-06
7.66155e-06
6.03825e-06
6.80746e-06
3.09406e-06
6.16269e-06
3.14346e-06
5.62689e-06
1.87196e-06
5.29619e-06
2.49136e-06
6.0913e-06
1.05912e-06
5.88314e-06
7.82486e-06
7.53432e-06
1.20512e-05
8.13055e-06
2.51596e-05
5.29828e-05
3.09561e-06
-1.99307e-05
6.37463e-06
-1.97756e-05
9.02452e-06
-2.289e-05
1.11185e-05
-1.58364e-05
1.37429e-05
-1.91013e-05
1.4839e-05
-1.26926e-05
1.4064e-05
-6.95437e-06
2.25109e-05
-1.80199e-05
2.01228e-05
-1.08905e-05
1.77576e-05
1.12326e-06
1.30864e-05
4.95781e-06
1.05592e-05
9.98822e-06
8.92103e-06
5.38451e-06
7.41296e-06
7.54632e-06
5.94703e-06
4.55999e-06
5.0069e-06
4.08359e-06
4.98995e-06
1.88891e-06
4.47456e-06
3.00675e-06
5.25445e-06
2.7924e-07
5.1554e-06
7.92391e-06
7.85098e-06
9.35561e-06
5.13225e-06
2.78783e-05
5.81151e-05
3.34533e-06
-2.3276e-05
6.47146e-06
-2.29018e-05
9.16157e-06
-2.55801e-05
1.11517e-05
-1.78266e-05
1.38467e-05
-2.17962e-05
1.39773e-05
-1.28232e-05
2.35966e-05
-1.65737e-05
2.20375e-05
-1.64609e-05
2.01697e-05
-9.02276e-06
1.73747e-05
3.91829e-06
1.33585e-05
8.97399e-06
1.0365e-05
1.29817e-05
7.89636e-06
7.85317e-06
5.32676e-06
1.01159e-05
5.03262e-06
4.85413e-06
5.50234e-06
3.61387e-06
5.469e-06
1.92225e-06
5.90845e-06
2.5673e-06
7.03111e-06
-8.43418e-07
6.66595e-06
8.28907e-06
9.0696e-06
6.95196e-06
5.41103e-06
3.15368e-05
6.35261e-05
-5.50645e-07
5.50645e-07
1.0474e-05
-1.10246e-05
-6.17088e-06
1.66449e-05
-0.000118045
0.000111874
-0.000216239
9.81941e-05
-0.000259209
4.29706e-05
-0.0002744
1.51909e-05
-0.00028551
1.11102e-05
-0.00028418
-1.32988e-06
-0.000275094
-9.08674e-06
-0.000265471
-9.62287e-06
-0.00024718
-1.82907e-05
-0.000225929
-2.12512e-05
-0.000207797
-1.81315e-05
-0.000114766
-9.30316e-05
-7.88908e-05
-3.5875e-05
-6.2032e-05
-1.68588e-05
-1.64201e-05
-4.56119e-05
-1.64201e-05
-0.000144508
0.000145059
-2.6193e-05
-0.00012934
-4.05042e-07
-9.14293e-06
-0.000107637
0.000219106
-0.000207568
0.000198125
-0.000259219
9.46217e-05
-0.000272343
2.83149e-05
-0.000250859
-1.03743e-05
-0.000236281
-1.59073e-05
-0.000228917
-1.64516e-05
-0.000209656
-2.88837e-05
-0.000196332
-3.16142e-05
-0.000186504
-3.10796e-05
-9.8722e-05
-0.000105913
-9.32832e-05
-9.84703e-05
-7.83604e-05
-5.07978e-05
-4.34419e-05
-5.17773e-05
-2.2954e-05
-6.60998e-05
-3.93741e-05
-3.33189e-05
0.000178378
1.42006e-05
-0.00017686
1.94777e-05
-1.44198e-05
-3.28774e-05
0.000271461
-0.000193247
0.000358494
-0.000233033
0.000134408
-0.000184895
-1.98228e-05
-0.000175201
-2.00685e-05
-0.000222089
3.09803e-05
-0.000206088
-3.24523e-05
-0.000114262
-0.000120709
-0.000177609
3.17327e-05
-0.000165297
-4.3392e-05
-9.5684e-05
-0.000175526
-0.000144192
-4.99625e-05
-0.000115537
-7.94529e-05
-6.84096e-05
-9.89045e-05
-2.83747e-05
-0.000106135
-6.77488e-05
-6.28194e-06
0.00018466
1.08777e-05
-0.000194019
5.50322e-05
-5.85744e-05
5.10586e-05
0.000275435
-8.61094e-05
0.000495662
-0.000117517
0.000165816
-0.000158252
2.09123e-05
-0.000233776
5.54556e-05
-0.000196048
-6.74743e-06
-0.000106317
-0.000122184
-0.000175496
-5.15303e-05
-0.000137391
-6.37202e-06
-7.81591e-05
-0.000102624
-0.000100957
-0.000152728
-7.50636e-05
-7.58559e-05
-0.000101085
-5.34315e-05
-6.37826e-05
-0.000136207
-2.86975e-05
-0.00014122
-9.64463e-05
0.000119836
6.48238e-05
1.64919e-05
-9.0675e-05
4.86762e-05
-9.07587e-05
6.38635e-05
0.000260247
-7.38376e-05
0.000633363
-0.000127372
0.00021935
-0.00014981
4.33498e-05
-0.000140804
4.64497e-05
-0.00012031
-2.72415e-05
-0.000179538
-6.29558e-05
-0.000118693
-0.000112374
-8.35913e-05
-4.14741e-05
-7.53936e-05
-0.000110821
-0.000100665
-0.000127457
-0.000132139
-4.43815e-05
-8.88317e-05
-9.67387e-05
-5.49595e-05
-0.000170079
-2.93495e-05
-0.00016683
-0.000125796
4.77331e-05
1.70907e-05
2.623e-05
-6.91719e-05
4.59754e-05
-0.000110504
7.74064e-05
0.000228816
-4.20148e-05
0.000752784
-9.81832e-05
0.000275519
-0.000118071
6.32379e-05
-0.000113187
4.15659e-05
-0.000132049
-8.37971e-06
-0.000157581
-3.74244e-05
-4.80539e-05
-0.000221901
-3.8531e-05
-5.0997e-05
-8.22117e-05
-6.71408e-05
-0.000123167
-8.65022e-05
-0.000138948
-2.86001e-05
-7.4018e-05
-0.000161669
-4.4221e-05
-0.000199876
-1.46058e-05
-0.000196445
-0.000140402
4.30409e-05
-2.59502e-05
3.09522e-05
-5.70833e-05
4.2224e-05
-0.000121776
0.0001597
0.00011134
0.000150958
0.000761527
8.81592e-06
0.00041766
-0.000113955
0.000186009
-0.000116112
4.37229e-05
-9.95393e-05
-2.49519e-05
-4.68809e-05
-9.0083e-05
-3.9482e-05
-0.0002293
-5.24709e-05
-3.80081e-05
-0.000139012
1.94009e-05
-0.000127055
-9.84599e-05
-9.80512e-05
-5.76035e-05
-6.78348e-05
-0.000191885
-2.97239e-05
-0.000237987
-1.07716e-05
-0.000215397
-0.000151173
2.55185e-05
-5.14687e-05
6.06047e-05
-9.21696e-05
2.6771e-05
-8.79421e-05
0.000173981
-3.58705e-05
0.000437029
0.000498479
0.000349244
0.000505446
0.000388296
0.000146957
0.000287539
0.000144479
0.000239658
2.29301e-05
0.000250369
-0.000100794
0.000168323
-0.000147254
7.25896e-05
5.77253e-05
3.59362e-05
5.60544e-05
-5.02232e-05
-1.23004e-05
-7.96454e-05
-2.81813e-05
-5.78442e-05
-0.000213686
-2.34985e-05
-0.000272333
-8.02915e-06
-0.000230867
-0.000159202
7.04933e-06
-3.03253e-05
1.35316e-05
-2.9384e-05
1.85457e-05
-3.05943e-05
2.36788e-05
-2.29596e-05
2.73288e-05
-2.54462e-05
4.82058e-05
-3.37003e-05
5.00247e-05
-1.83925e-05
4.92826e-05
-1.57188e-05
4.34285e-05
-3.16867e-06
3.74693e-05
9.87749e-06
3.14282e-05
1.5015e-05
2.51653e-05
1.92446e-05
1.61128e-05
1.69057e-05
1.31735e-05
1.30552e-05
1.20399e-05
5.98771e-06
9.87084e-06
5.78296e-06
1.09397e-05
8.5337e-07
1.43605e-05
-8.53517e-07
1.67834e-05
-3.2663e-06
2.05053e-05
4.56719e-06
1.95606e-05
7.89662e-06
2.44167e-05
2.66807e-05
1.98187e-05
6.81242e-05
6.64602e-06
-3.69713e-05
1.4244e-05
-3.69819e-05
2.07262e-05
-3.70765e-05
3.94768e-05
-4.17103e-05
4.39453e-05
-2.99146e-05
4.8684e-05
-3.84391e-05
5.24214e-05
-2.21299e-05
5.33144e-05
-1.66117e-05
4.85928e-05
1.55291e-06
3.97249e-05
1.87453e-05
3.0267e-05
2.4473e-05
2.18535e-05
2.76581e-05
1.77566e-05
2.10026e-05
1.5744e-05
1.50678e-05
1.22795e-05
9.45221e-06
1.37457e-05
4.31682e-06
1.44217e-05
1.7734e-07
1.66485e-05
-3.08025e-06
1.43231e-05
-9.40917e-07
2.25014e-05
-3.61117e-06
2.76535e-05
2.74456e-06
5.38402e-05
4.94029e-07
3.71937e-06
6.99395e-05
3.50022e-06
-4.04716e-05
4.43801e-06
-3.79197e-05
1.05642e-05
-4.32027e-05
2.18878e-05
-5.30339e-05
3.03166e-05
-3.83434e-05
3.35015e-05
-4.1624e-05
4.04026e-05
-2.9031e-05
4.05815e-05
-1.67906e-05
3.32411e-05
8.89333e-06
1.38843e-05
3.81022e-05
8.05201e-07
3.7552e-05
-2.75372e-06
3.1217e-05
-4.46404e-06
2.27129e-05
7.50053e-07
9.85367e-06
6.31997e-06
3.88229e-06
1.30601e-05
-2.42329e-06
2.06546e-05
-7.41714e-06
2.71118e-05
-9.53751e-06
2.94574e-05
-3.28653e-06
3.14522e-05
-5.60593e-06
3.62768e-05
-2.08008e-06
4.17803e-05
-5.00943e-06
-6.2699e-06
5.17695e-05
-7.28071e-06
-3.31909e-05
-1.30485e-05
-3.2152e-05
-9.23798e-06
-4.70132e-05
-1.45451e-05
-4.77268e-05
-1.23631e-05
-4.05254e-05
-1.96393e-05
-3.43478e-05
-3.06287e-05
-1.80417e-05
-3.87196e-05
-8.69976e-06
-4.63435e-05
1.65173e-05
-3.72969e-05
2.90555e-05
-4.21533e-05
4.24085e-05
-4.03636e-05
2.94274e-05
-5.62054e-05
3.85547e-05
-3.31955e-05
-1.31562e-05
-8.6863e-06
-2.06269e-05
-4.36473e-06
-6.74487e-06
3.47303e-07
-1.21292e-05
1.20441e-05
-2.12344e-05
2.10154e-05
-1.22577e-05
2.54702e-05
-1.00608e-05
3.32527e-05
-9.86252e-06
3.95127e-05
-1.12694e-05
-1.05633e-05
4.38061e-05
-1.34021e-05
-1.97887e-05
-1.93505e-05
-2.62036e-05
-1.76192e-05
-4.87445e-05
-1.41542e-05
-5.11918e-05
-1.69797e-05
-3.76999e-05
-3.10905e-05
-2.02369e-05
-4.47187e-05
-4.41354e-06
-5.08668e-05
-2.55164e-06
-4.71135e-05
1.2764e-05
-5.26925e-05
3.46345e-05
-4.79918e-05
3.77077e-05
-5.48512e-05
3.62868e-05
-2.84118e-05
1.21153e-05
-3.64267e-05
-5.14132e-06
-3.28136e-05
-2.424e-05
-1.79842e-05
-2.15742e-05
-2.71567e-05
-2.95668e-06
-2.13232e-05
-2.70679e-05
-7.38819e-06
-2.61927e-05
-8.55356e-06
-8.89546e-06
-9.09153e-06
-9.32455e-06
-9.29131e-06
-1.10697e-05
-2.05809e-05
7.26367e-07
-6.71413e-06
-1.30746e-05
-1.18796e-05
-2.10382e-05
-8.64016e-06
-5.1984e-05
-6.33298e-06
-5.3499e-05
-6.28027e-06
-3.77526e-05
-1.08122e-05
-1.5705e-05
-1.75077e-05
2.28197e-06
-2.41338e-05
4.07452e-06
-2.62428e-05
1.4873e-05
-1.88303e-05
2.7222e-05
-2.33679e-05
4.22453e-05
-1.02875e-05
2.32064e-05
4.60339e-07
1.36751e-06
-3.55619e-06
-1.12479e-06
-3.53358e-07
-2.74429e-05
-1.19752e-05
-9.95241e-06
-1.565e-05
7.18176e-07
-3.8915e-05
-3.80297e-06
-4.92846e-05
-1.5823e-05
-4.60611e-05
-1.2119e-05
-3.20512e-05
-2.33344e-05
-1.39974e-05
-2.91235e-05
-1.01261e-06
-3.35657e-05
-1.6595e-06
-1.14151e-05
-4.17285e-06
-1.85249e-05
-6.83059e-07
-5.54738e-05
2.05756e-07
-5.43878e-05
-2.57636e-06
-3.49705e-05
-6.53693e-06
-1.17444e-05
-1.14187e-05
7.16372e-06
-2.11253e-05
1.37812e-05
-2.63378e-05
2.00854e-05
-2.02097e-05
2.10939e-05
-2.77976e-06
2.48154e-05
2.67566e-06
1.7751e-05
6.10335e-06
-2.06018e-06
9.75028e-06
-4.77173e-06
8.90553e-07
-1.85832e-05
-9.87399e-07
-8.07445e-06
6.75945e-07
-9.45164e-07
-6.85004e-06
3.72302e-06
-1.90176e-05
-3.65547e-06
-2.47511e-05
-6.38552e-06
-3.29206e-05
-1.51649e-05
-4.05749e-05
-2.14692e-05
-7.6398e-06
-3.39477e-05
-1.61901e-06
-9.79611e-06
-2.62456e-06
-1.75193e-05
3.29782e-06
-6.13961e-05
6.39671e-06
-5.74867e-05
1.91605e-06
-3.04899e-05
-2.53692e-06
-7.29145e-06
-6.93626e-06
1.15631e-05
-8.82832e-06
1.56732e-05
-4.3183e-06
1.55754e-05
-2.25422e-06
1.90298e-05
-4.44897e-06
2.70101e-05
-1.23196e-07
1.34252e-05
-1.47676e-06
-7.06624e-07
-4.75203e-06
-1.49646e-06
-8.53862e-06
-1.47966e-05
-1.2453e-05
-4.16006e-06
-1.05429e-05
-2.85522e-06
-6.07488e-06
-7.45029e-07
-9.99822e-07
-8.73051e-06
2.26917e-06
-9.65452e-06
1.57125e-06
-1.4467e-05
1.11152e-06
-2.10096e-05
-2.62241e-05
1.96958e-05
-1.50311e-06
-8.293e-06
-1.63937e-06
-1.73831e-05
6.31869e-06
-6.93542e-05
8.89393e-06
-6.00619e-05
3.40299e-06
-2.49989e-05
-1.31287e-06
-2.5756e-06
-4.17391e-06
1.44241e-05
-2.59849e-06
1.40978e-05
-2.83411e-06
1.5811e-05
-3.68172e-06
1.98774e-05
3.29437e-06
2.0034e-05
3.25274e-06
1.34668e-05
1.72624e-06
8.1987e-07
2.04706e-07
2.50586e-08
-5.63999e-06
-8.95188e-06
-9.46499e-06
-3.35066e-07
-8.5134e-06
-3.80681e-06
-7.76004e-06
-1.49836e-06
-1.27669e-05
-3.72359e-06
-9.61814e-06
-1.28033e-05
-5.79895e-06
-1.82862e-05
2.50159e-06
-2.93102e-05
-4.16474e-05
1.79248e-05
-1.19889e-06
-7.09412e-06
-4.86479e-07
-1.80955e-05
8.49989e-06
-7.83406e-05
1.04966e-05
-6.20587e-05
2.84862e-06
-1.73509e-05
-1.24717e-06
1.52019e-06
-4.17098e-07
1.3594e-05
-4.94886e-07
1.41756e-05
-5.69693e-06
2.10131e-05
1.6332e-06
1.25473e-05
3.28757e-06
1.83796e-05
5.60314e-06
1.11513e-05
5.82219e-06
6.00808e-07
3.73412e-06
2.11313e-06
-2.25166e-06
-2.96612e-06
-4.13883e-06
1.5521e-06
-3.80029e-06
-4.14534e-06
-6.4569e-06
1.15827e-06
-4.04326e-06
-6.13719e-06
-8.72482e-06
-8.12173e-06
-1.8649e-05
-8.36202e-06
-3.80639e-05
-9.89521e-06
-3.42588e-05
-4.54525e-05
-3.40022e-07
-6.7541e-06
1.00828e-06
-1.94438e-05
8.62105e-06
-8.59534e-05
8.8848e-06
-6.23224e-05
-1.14914e-06
-7.31698e-06
-3.16805e-06
3.5391e-06
-1.54814e-06
1.19741e-05
1.20725e-06
1.14202e-05
2.92178e-06
1.92986e-05
4.24366e-06
1.12254e-05
1.01393e-05
1.2484e-05
7.46203e-06
1.38285e-05
6.13066e-06
1.93217e-06
7.23877e-06
1.00501e-06
2.91735e-06
1.35528e-06
1.75983e-06
2.70961e-06
-3.59083e-06
1.20532e-06
-4.83579e-06
2.40325e-06
-6.40555e-06
-4.5674e-06
-1.29264e-05
-1.60086e-06
-1.86451e-05
-2.64322e-06
-1.25035e-05
-1.60368e-05
-3.24977e-05
-1.42646e-05
1.58295e-06
-8.33706e-06
2.57451e-06
-2.04353e-05
8.15946e-06
-9.15383e-05
3.85616e-06
-5.80191e-05
-6.94841e-06
3.48758e-06
-7.09784e-06
3.68852e-06
-3.40753e-06
8.2838e-06
1.44642e-06
6.56626e-06
3.5908e-06
1.71542e-05
1.3903e-05
9.13266e-07
5.89116e-06
2.04958e-05
1.50633e-05
4.65641e-06
1.17343e-05
5.26117e-06
1.83662e-05
-5.62689e-06
7.76511e-06
1.19563e-05
2.46601e-06
8.0087e-06
-1.1993e-06
4.87062e-06
-2.39701e-07
1.44366e-06
-8.92431e-07
-3.91465e-06
-3.67592e-06
1.18266e-06
-6.37144e-06
5.23367e-08
-1.79004e-05
-4.50781e-06
-1.97495e-05
-3.06486e-05
1.33289e-06
-9.66995e-06
3.20602e-06
-2.23085e-05
5.7874e-06
-9.41197e-05
-3.37158e-06
-4.88601e-05
-1.14421e-05
1.15581e-05
-9.81802e-06
2.0644e-06
-4.07355e-06
2.53933e-06
-1.39052e-06
3.88324e-06
9.37349e-06
6.39017e-06
1.00414e-05
2.45328e-07
1.97312e-05
1.08061e-05
2.13702e-05
3.01748e-06
2.31098e-05
3.52155e-06
1.7613e-05
-1.30105e-07
1.37902e-05
1.57791e-05
1.01222e-05
1.16766e-05
8.63826e-06
6.35454e-06
1.01559e-05
-7.3951e-08
3.0739e-06
3.16731e-06
5.13941e-07
3.74264e-06
-1.14696e-05
1.20359e-05
-1.61772e-05
1.99856e-07
2.32364e-06
-3.82503e-05
2.23463e-07
-9.89342e-06
4.55678e-06
-2.66418e-05
4.45456e-06
-9.40175e-05
-5.03377e-06
-3.93718e-05
-9.89965e-06
1.6424e-05
-5.2178e-06
-2.61745e-06
-6.15445e-07
-2.06302e-06
9.18737e-07
2.34906e-06
7.08972e-06
2.19187e-07
1.1621e-05
-4.28596e-06
1.95417e-05
2.88542e-06
3.34649e-05
-1.09057e-05
3.42171e-05
2.76932e-06
2.26974e-05
1.13896e-05
1.52045e-05
2.3272e-05
2.3404e-05
3.47715e-06
2.219e-05
7.56846e-06
2.15558e-05
5.60261e-07
9.23359e-06
1.54895e-05
3.02853e-06
9.94769e-06
-7.66165e-06
2.2726e-05
-2.78332e-05
2.03714e-05
1.18247e-05
-3.73342e-05
-2.54372e-06
-7.34971e-06
2.73938e-06
-3.19249e-05
1.79347e-06
-9.30716e-05
-6.67991e-06
-3.08984e-05
-4.09018e-06
1.38343e-05
-3.03273e-07
-6.40436e-06
4.04045e-06
-6.40675e-06
7.79083e-06
-1.40132e-06
2.23849e-05
-1.43749e-05
1.79675e-05
1.3148e-07
3.16309e-05
-1.0778e-05
2.53086e-05
-4.58343e-06
2.64752e-05
1.60275e-06
1.25496e-05
2.53152e-05
2.94271e-05
6.39454e-06
1.91992e-05
1.3705e-05
3.16132e-05
-4.84556e-06
1.18325e-05
2.0341e-05
1.61438e-05
1.11782e-05
-4.20655e-07
2.65121e-05
2.20613e-06
2.00993e-05
-1.63556e-06
2.42131e-05
3.33241e-05
-2.3135e-05
-3.49065e-06
-3.85907e-06
2.76191e-06
-3.81775e-05
1.64608e-06
-9.19558e-05
-2.52715e-06
-2.67252e-05
-8.79473e-06
2.01019e-05
-2.02427e-07
-1.49967e-05
3.02683e-06
-9.636e-06
1.50331e-05
-1.34075e-05
1.25599e-05
-1.19017e-05
2.20123e-05
-9.32084e-06
1.80202e-05
-6.78597e-06
1.7533e-05
-4.09622e-06
1.52992e-05
3.83653e-06
2.71579e-05
1.34566e-05
3.03304e-05
3.22197e-06
1.84904e-05
2.5545e-05
1.36024e-05
4.24463e-08
9.47061e-06
2.44727e-05
1.10912e-05
9.55763e-06
1.52985e-05
2.23049e-05
1.02061e-05
2.51916e-05
-1.21788e-05
4.6598e-05
3.73855e-05
-1.62401e-05
-5.69957e-06
1.8405e-06
-4.51525e-07
-4.34255e-05
-3.48381e-06
-8.89235e-05
-1.15484e-05
-1.86606e-05
-6.73972e-07
9.22739e-06
3.09076e-06
-1.87614e-05
5.66985e-06
-1.22151e-05
1.1569e-05
-1.93067e-05
1.57252e-05
-1.60579e-05
2.75387e-05
-2.11343e-05
2.28057e-05
-2.05296e-06
2.05866e-05
-1.87712e-06
1.68667e-05
7.55646e-06
2.64652e-05
3.85811e-06
1.94714e-05
1.02158e-05
3.54134e-05
9.60292e-06
2.15412e-05
1.39146e-05
1.73919e-05
2.86221e-05
1.48423e-05
1.21072e-05
6.6551e-06
3.0492e-05
4.93078e-06
2.69159e-05
1.66748e-06
4.98613e-05
5.46977e-05
-1.56447e-05
-1.06198e-05
1.24603e-05
-2.76688e-07
-5.37686e-05
-7.506e-06
-8.16942e-05
-6.31987e-06
-1.98467e-05
-2.08732e-06
4.99484e-06
8.55259e-06
-2.94013e-05
1.18786e-05
-1.55411e-05
1.29411e-05
-2.03692e-05
1.51368e-05
-1.82536e-05
2.00953e-05
-2.60926e-05
2.15358e-05
-3.49348e-06
2.47313e-05
-5.07261e-06
2.61269e-05
6.16089e-06
3.46245e-05
-4.63944e-06
3.45986e-05
1.02417e-05
4.061e-05
3.59153e-06
2.08382e-05
3.36864e-05
3.55047e-05
1.39556e-05
2.02574e-05
2.73546e-05
2.90945e-05
2.16549e-05
1.28438e-05
4.31667e-05
-1.1288e-06
6.38339e-05
4.27574e-05
1.08115e-05
9.95124e-06
2.50903e-06
-5.59302e-06
-3.82243e-05
-3.68808e-06
-8.35991e-05
-6.21534e-06
-1.73195e-05
5.36352e-06
-6.58401e-06
1.10514e-06
-2.51429e-05
7.2342e-07
-1.51594e-05
1.57474e-05
-3.53932e-05
1.41134e-05
-1.66196e-05
1.34144e-05
-2.53936e-05
1.92944e-05
-9.37343e-06
1.84893e-05
-4.2675e-06
2.68113e-05
-2.16111e-06
2.30578e-05
-8.85972e-07
5.06609e-05
-1.73614e-05
3.17809e-05
2.24716e-05
5.43259e-05
1.11414e-05
3.97098e-05
2.85717e-05
4.22653e-05
2.47991e-05
2.14238e-05
4.24965e-05
2.4022e-05
4.05686e-05
3.04322e-05
5.74237e-05
7.89389e-05
-5.74916e-06
9.5235e-06
-7.01448e-06
1.56069e-05
-4.43077e-05
-1.60792e-05
-5.1913e-05
-8.71503e-06
-2.46837e-05
3.37417e-06
-1.86732e-05
6.85676e-06
-2.86255e-05
1.85954e-05
-2.68981e-05
8.41141e-06
-2.52091e-05
1.82397e-05
-2.64479e-05
2.04165e-05
-2.75704e-05
2.28825e-05
-1.18394e-05
2.10833e-05
-2.46831e-06
4.08263e-05
-2.19041e-05
2.80968e-05
1.18436e-05
2.23834e-05
-1.1648e-05
3.49223e-05
9.9327e-06
4.42605e-05
1.80327e-06
4.91143e-05
2.37179e-05
3.15258e-05
4.23876e-05
3.97159e-05
3.43064e-05
2.80242e-05
5.22603e-05
2.20912e-05
6.33568e-05
6.4271e-05
3.67592e-05
2.40569e-06
-9.42017e-06
1.54137e-06
-4.34434e-05
-8.95659e-07
-4.9476e-05
-8.21446e-08
-2.54972e-05
6.53997e-06
-2.52953e-05
6.23745e-06
-2.8323e-05
1.23129e-05
-3.29735e-05
1.05346e-05
-2.34308e-05
1.50651e-05
-3.09784e-05
2.92482e-05
-4.17534e-05
2.48683e-05
-7.45952e-06
3.34334e-05
-1.10334e-05
1.80441e-05
-6.51468e-06
2.89157e-05
9.71936e-07
2.5099e-05
-7.83129e-06
3.61731e-05
-1.1413e-06
3.83457e-05
-3.69329e-07
3.63643e-05
2.56994e-05
3.8048e-05
4.07039e-05
4.47247e-05
2.76297e-05
4.01696e-05
5.68155e-05
5.01595e-05
5.33669e-05
9.75401e-05
1.68904e-05
3.51104e-06
-1.29312e-05
3.94276e-06
-4.38751e-05
-6.73654e-08
-4.54659e-05
5.69326e-06
-3.12578e-05
5.18819e-06
-2.47903e-05
1.02481e-05
-3.33828e-05
9.02714e-06
-3.17525e-05
2.6153e-05
-4.05567e-05
3.06605e-05
-3.54859e-05
1.3061e-05
-2.41538e-05
1.99311e-05
-1.43296e-05
2.49053e-05
-1.60076e-05
2.75768e-05
-9.1861e-06
4.57693e-05
-1.72205e-05
4.84066e-05
-1.04686e-05
5.71762e-05
-9.91087e-06
4.43377e-05
1.24692e-05
3.99009e-05
3.01361e-05
7.38311e-05
6.77377e-06
4.50583e-05
5.64025e-05
5.81421e-05
4.37317e-05
5.24693e-05
5.90398e-05
6.47217e-05
8.52877e-05
-1.58029e-06
-1.13509e-05
3.6484e-07
-4.58202e-05
-2.97724e-07
-4.48033e-05
3.37323e-07
-3.18928e-05
1.19155e-05
-3.63684e-05
9.56675e-06
-3.10341e-05
2.87117e-05
-5.08975e-05
1.70024e-05
-2.88474e-05
2.73839e-05
-4.58674e-05
1.97474e-05
-1.65173e-05
3.17468e-05
-2.6329e-05
2.62447e-05
-1.05054e-05
2.91073e-05
-1.20487e-05
4.0958e-05
-2.90713e-05
3.42318e-05
-3.74233e-06
4.94039e-05
-2.5083e-05
5.42743e-05
7.59885e-06
8.8701e-05
-4.29054e-06
0.000103789
-8.31409e-06
0.00011631
4.3881e-05
0.000121317
3.87249e-05
9.4137e-05
8.62201e-05
9.73765e-05
6.14822e-05
1.97842e-06
-1.33293e-05
-1.30962e-06
-4.25322e-05
-3.27893e-06
-4.2834e-05
1.14194e-05
-4.65911e-05
9.80447e-06
-3.47534e-05
2.64162e-05
-4.76459e-05
1.66863e-05
-4.11676e-05
2.17089e-05
-3.38699e-05
2.74608e-05
-5.16193e-05
2.10299e-05
-1.00863e-05
2.47348e-05
-3.00339e-05
2.58854e-05
-1.1656e-05
4.08738e-05
-2.7037e-05
3.66865e-05
-2.48839e-05
7.00384e-05
-3.70942e-05
5.11535e-05
-6.19806e-06
8.93913e-05
-3.0639e-05
9.13278e-05
-6.22702e-06
7.33399e-05
9.67387e-06
8.23562e-05
3.48647e-05
8.95019e-05
3.15791e-05
8.69702e-05
8.87518e-05
3.50006e-05
0.000149346
-1.49824e-05
1.65304e-06
3.03122e-06
-6.05457e-05
2.27795e-05
-6.25822e-05
2.10016e-05
-4.48132e-05
2.04816e-05
-3.42335e-05
1.60845e-05
-4.32487e-05
3.40518e-05
-5.91349e-05
2.65512e-05
-2.63692e-05
7.91229e-06
-3.29804e-05
2.11721e-05
-2.33461e-05
2.19535e-05
-3.08153e-05
3.84976e-05
-2.82e-05
5.03493e-05
-3.88887e-05
4.78763e-05
-2.24109e-05
8.17187e-05
-7.09366e-05
8.54477e-05
-9.92706e-06
9.75077e-05
-4.26991e-05
9.65777e-05
-5.29702e-06
7.74788e-05
2.87728e-05
9.65828e-05
1.57607e-05
0.000109981
1.81809e-05
0.000170882
2.7851e-05
6.11229e-05
0.00014476
-3.33985e-06
4.9929e-06
2.02488e-06
-6.59104e-05
4.57196e-07
-6.10145e-05
5.12249e-06
-4.94785e-05
1.27818e-05
-4.18928e-05
2.55308e-05
-5.59977e-05
5.78225e-06
-3.93862e-05
1.27923e-05
-3.33792e-05
1.68048e-05
-3.69928e-05
2.70728e-05
-3.36141e-05
2.57333e-05
-2.94758e-05
3.70422e-05
-3.95089e-05
3.14973e-05
-3.33438e-05
7.4417e-05
-6.53306e-05
5.61115e-05
-5.26311e-05
9.75316e-05
-5.13472e-05
7.0117e-05
-1.52845e-05
8.39852e-05
-1.91652e-05
0.000118202
-5.44403e-06
0.000190693
-5.67304e-05
0.000187729
2.11445e-05
0.000179906
3.5674e-05
3.63539e-05
0.000204675
8.19347e-06
-3.20057e-06
2.20824e-05
-7.97994e-05
2.82986e-05
-6.72307e-05
1.81493e-05
-3.93292e-05
1.70303e-05
-4.07737e-05
4.71174e-06
-4.36791e-05
1.07192e-05
-4.53937e-05
1.86314e-05
-4.12914e-05
2.26211e-05
-4.09825e-05
2.9494e-05
-4.04871e-05
3.46222e-05
-3.4604e-05
4.11378e-05
-4.60245e-05
3.79649e-05
-3.01708e-05
5.17437e-05
-7.91095e-05
5.70554e-05
-5.79428e-05
9.04189e-05
-8.47107e-05
8.69271e-05
-1.17928e-05
0.000129838
-6.20758e-05
0.000154795
-3.0402e-05
0.000122317
-2.42519e-05
0.00013447
8.99156e-06
0.000198841
-2.86974e-05
2.8207e-05
0.000206988
2.89116e-05
-3.21122e-05
3.75761e-06
-5.46453e-05
-1.15301e-05
-5.19429e-05
9.34862e-08
-5.09528e-05
8.87051e-06
-4.95507e-05
1.30255e-05
-4.78341e-05
1.4232e-05
-4.66001e-05
1.91931e-05
-4.62524e-05
1.9312e-05
-4.11015e-05
2.87926e-05
-4.99676e-05
3.30234e-05
-3.88348e-05
3.11336e-05
-4.41347e-05
4.06455e-05
-3.96827e-05
4.39586e-05
-8.24226e-05
5.41446e-05
-6.81288e-05
6.57992e-05
-9.63653e-05
7.95879e-05
-2.55816e-05
0.000117296
-9.97839e-05
0.000107689
-2.07954e-05
0.000133332
-4.98945e-05
0.000207401
-6.50775e-05
0.000221813
-4.31098e-05
3.7978e-06
0.000246222
1.0172e-05
-4.22842e-05
8.04249e-06
-5.25158e-05
1.20885e-05
-5.59889e-05
1.34638e-05
-5.23281e-05
1.50206e-05
-5.11075e-05
1.65537e-05
-4.93672e-05
1.9654e-05
-4.97004e-05
2.32316e-05
-4.98299e-05
2.8852e-05
-4.67219e-05
3.12868e-05
-5.24023e-05
3.61564e-05
-4.37044e-05
3.52649e-05
-4.32432e-05
4.16946e-05
-4.61125e-05
4.53907e-05
-8.61187e-05
7.15404e-05
-9.42786e-05
6.06522e-05
-8.54772e-05
0.000133958
-9.8887e-05
8.96811e-05
-5.55075e-05
0.000168166
-9.92803e-05
0.000190541
-7.22692e-05
0.000181958
-5.64953e-05
0.000165815
-2.69663e-05
-6.19832e-06
0.000175811
4.85707e-06
-4.71412e-05
5.70791e-06
-5.33666e-05
5.24376e-06
-5.55247e-05
6.74166e-06
-5.3826e-05
8.8307e-06
-5.31965e-05
1.48643e-05
-5.54009e-05
1.87294e-05
-5.35654e-05
2.19908e-05
-5.30914e-05
2.89577e-05
-5.36888e-05
2.74788e-05
-5.09235e-05
4.11973e-05
-5.74229e-05
5.1586e-05
-5.36319e-05
4.40067e-05
-3.85333e-05
7.54028e-05
-0.000117515
8.18975e-05
-0.000100773
9.43709e-05
-9.79507e-05
0.000112268
-0.000116784
9.98452e-05
-4.30847e-05
0.000163383
-0.000162818
0.000150509
-5.93954e-05
0.000205861
-0.000111847
0.000168132
1.07623e-05
-6.49559e-06
0.000168429
4.62555e-06
-5.17668e-05
8.13584e-06
-5.68768e-05
1.06743e-05
-5.80632e-05
1.40927e-05
-5.72444e-05
1.71139e-05
-5.62177e-05
1.99777e-05
-5.82646e-05
2.37551e-05
-5.73428e-05
2.80572e-05
-5.73935e-05
3.28871e-05
-5.85187e-05
3.86718e-05
-5.67081e-05
4.66958e-05
-6.54469e-05
5.13283e-05
-5.82645e-05
7.64907e-05
-6.36957e-05
3.54414e-05
-7.64656e-05
5.73612e-05
-0.000122693
8.14682e-05
-0.000122058
7.59091e-05
-0.000111225
0.000150276
-0.000117452
8.61255e-05
-9.86677e-05
0.000127108
-0.000100377
9.67292e-05
-8.14687e-05
0.000185153
-7.7662e-05
8.18389e-06
0.000170474
2.9035e-06
-5.46703e-05
5.10558e-06
-5.90789e-05
6.06168e-06
-5.90193e-05
8.44477e-06
-5.96274e-05
1.36734e-05
-6.14463e-05
1.63304e-05
-6.09216e-05
2.00018e-05
-6.10142e-05
2.40227e-05
-6.14144e-05
2.68028e-05
-6.12988e-05
3.23971e-05
-6.23024e-05
2.97728e-05
-6.28227e-05
3.71287e-05
-6.56204e-05
5.2827e-05
-7.93941e-05
5.38526e-05
-7.74912e-05
5.70505e-05
-0.000125891
5.57237e-05
-0.000120731
6.22955e-05
-0.000117797
9.67848e-05
-0.000151941
0.000109574
-0.000111457
0.000118328
-0.000109131
0.000114838
-7.79791e-05
0.000210916
-0.00017374
-1.24579e-05
0.000231558
3.67519e-06
-5.83455e-05
6.78484e-06
-6.21885e-05
9.76263e-06
-6.1997e-05
1.2855e-05
-6.27198e-05
1.54525e-05
-6.40438e-05
1.87677e-05
-6.42368e-05
2.2326e-05
-6.45726e-05
2.65446e-05
-6.56329e-05
3.1086e-05
-6.58402e-05
3.66756e-05
-6.78921e-05
4.17854e-05
-6.79326e-05
4.87786e-05
-7.26135e-05
4.89951e-05
-7.96106e-05
5.01298e-05
-7.86259e-05
5.27088e-05
-0.00012847
5.46926e-05
-0.000122715
8.07258e-05
-0.00014383
8.73532e-05
-0.000158568
6.39503e-05
-8.80539e-05
0.000135898
-0.000181079
0.000200711
-0.000142792
0.00012909
-0.000102119
-6.62037e-05
0.000182836
2.97536e-06
-6.13208e-05
5.48811e-06
-6.47012e-05
8.48727e-06
-6.49962e-05
1.14587e-05
-6.56912e-05
1.36919e-05
-6.6277e-05
1.67072e-05
-6.72521e-05
1.99368e-05
-6.78022e-05
2.36274e-05
-6.93235e-05
2.76041e-05
-6.98169e-05
3.20421e-05
-7.23301e-05
3.76553e-05
-7.35458e-05
4.20958e-05
-7.70541e-05
4.27919e-05
-8.03067e-05
4.53247e-05
-8.11587e-05
4.87286e-05
-0.000131874
4.99708e-05
-0.000123957
5.52464e-05
-0.000149106
7.07022e-05
-0.000174024
0.000151241
-0.000168593
7.97177e-05
-0.000109555
0.000131316
-0.000194391
0.000139879
-0.000110681
-3.35122e-05
0.000107187
2.8362e-06
-6.4157e-05
5.23985e-06
-6.71049e-05
7.62096e-06
-6.73773e-05
1.00054e-05
-6.80756e-05
1.23852e-05
-6.86568e-05
1.487e-05
-6.97369e-05
1.73908e-05
-7.0323e-05
2.00569e-05
-7.19896e-05
2.30797e-05
-7.28397e-05
2.64149e-05
-7.56653e-05
2.97292e-05
-7.68601e-05
3.36718e-05
-8.09967e-05
3.61959e-05
-8.28309e-05
3.62002e-05
-8.11629e-05
5.17661e-05
-0.00014744
7.20606e-05
-0.000144252
9.14151e-05
-0.00016846
0.000108094
-0.000190703
0.000126354
-0.000186854
0.00011863
-0.000101831
0.000105652
-0.000181413
9.38892e-05
-9.89181e-05
5.86998e-06
5.4507e-05
2.2684e-06
-6.64254e-05
4.21558e-06
-6.9052e-05
6.2275e-06
-6.93892e-05
8.16646e-06
-7.00146e-05
1.00945e-05
-7.05848e-05
1.20985e-05
-7.17409e-05
1.43149e-05
-7.25394e-05
1.66788e-05
-7.43536e-05
1.92846e-05
-7.54455e-05
2.17835e-05
-7.81643e-05
2.47914e-05
-7.9868e-05
2.88045e-05
-8.50098e-05
3.11285e-05
-8.51549e-05
3.48273e-05
-8.48617e-05
4.05799e-05
-0.000153193
4.95403e-05
-0.000153212
4.54621e-05
-0.000164382
5.15129e-05
-0.000196753
7.51312e-05
-0.000210472
9.03744e-05
-0.000117074
8.96314e-06
-0.000100002
-3.99043e-05
-5.00506e-05
3.46909e-05
-6.87252e-05
1.97212e-06
-6.83975e-05
3.57038e-06
-7.06503e-05
5.16731e-06
-7.09861e-05
6.7403e-06
-7.15876e-05
8.36444e-06
-7.22089e-05
9.94143e-06
-7.33179e-05
1.16185e-05
-7.42165e-05
1.31034e-05
-7.58385e-05
1.47506e-05
-7.70927e-05
1.55762e-05
-7.89899e-05
1.75935e-05
-8.18854e-05
1.65135e-05
-8.39298e-05
1.71704e-05
-8.58119e-05
1.48986e-05
-8.25899e-05
1.6351e-05
-0.000154645
1.95598e-05
-0.000156421
3.16507e-05
-0.000176473
4.25874e-05
-0.00020769
5.38182e-05
-0.000221703
4.02419e-05
-0.000103498
1.6501e-05
-7.62611e-05
-2.17193e-05
-1.18303e-05
0.000133564