/*--------------------------------*- C++ -*----------------------------------*\
| =========                 |                                                 |
| \\      /  F ield         | foam-extend: Open Source CFD                    |
|  \\    /   O peration     | Version:     4.1                                |
|   \\  /    A nd           | Web:         http://www.foam-extend.org         |
|    \\/     M anipulation  |                                                 |
\*---------------------------------------------------------------------------*/
FoamFile
{
    version     2.0;
    format      ascii;
    class       volScalarField;
    location    "0.05";
    object      pd;
}
// * * * * * * * * * * * * * * * * * * * * * * * * * * * * * * * * * * * * * //

dimensions      [1 -1 -2 0 0 0 0];

internalField   nonuniform List<scalar> 
2268
(
1655.75
1638.25
1603.12
1550.19
1479.24
1390.13
1282.99
1158.51
1020.4
874.91
718.091
664.945
470.212
243.522
74.6128
10.1044
3.45049
3.15858
3.07341
2.85572
2.77042
2.76346
2.75264
1655.99
1638.47
1603.28
1550.27
1479.23
1389.98
1282.6
1157.52
1018.59
873.79
728.321
652.555
455.187
210.985
45.0769
6.15772
3.19487
3.13006
3.0271
2.83198
2.7637
2.7435
2.73501
1656.48
1638.9
1603.6
1550.44
1479.2
1389.71
1281.91
1155.47
1017.88
873.33
762.381
647.646
441.553
165.192
23.9601
3.99049
3.0444
3.06875
2.95392
2.79838
2.74489
2.70288
2.69909
1657.21
1639.55
1604.1
1550.7
1479.17
1389.34
1281
1154.93
1010.05
907.704
777.468
641.923
425.165
127.568
14.4559
3.25005
2.94366
2.99808
2.88677
2.76948
2.71276
2.65756
2.64552
1658.2
1640.44
1604.78
1551.08
1479.16
1388.86
1279.91
1153.96
1023.76
928.729
792.867
638.836
412.084
104.797
10.2641
2.96716
2.8208
2.92145
2.83212
2.73219
2.66617
2.60589
2.5691
1659.44
1641.56
1605.69
1551.64
1479.27
1388.43
1278.81
1148.6
1055.72
946.946
808.266
640.228
402.388
90.1074
7.89063
2.83238
2.74235
2.84566
2.77622
2.68027
2.6049
2.53963
2.46491
1660.94
1642.98
1606.95
1552.61
1479.75
1388.14
1276.11
1161.67
1081.38
967.182
827.783
653.749
395.6
79.8733
6.27637
2.74135
2.70806
2.76812
2.71684
2.61672
2.53104
2.46007
2.34164
1662.66
1644.69
1608.58
1554.02
1480.53
1387.16
1274.58
1187.15
1104.46
988.921
851.405
679.666
396.872
72.6753
5.16876
2.66777
2.65988
2.69126
2.65692
2.5469
2.44437
2.3737
2.24534
1.34061
1.33211
1.31048
1.27564
1.2368
1.19835
1.16162
1.12785
1.09607
1.06436
1.03147
0.996778
0.960784
0.925495
0.894567
0.869772
0.851404
0.839306
0.833293
1.3438
1.33649
1.31205
1.27645
1.23691
1.19813
1.16141
1.12747
1.09527
1.06324
1.03008
0.995189
0.959091
0.923924
0.893232
0.86864
0.850415
0.838407
0.832439
1.35018
1.34575
1.31514
1.27807
1.2372
1.19782
1.16072
1.12633
1.09354
1.06095
1.02733
0.992091
0.955843
0.920986
0.890774
0.866583
0.84864
0.836809
0.830926
1.35899
1.35444
1.31947
1.2804
1.23771
1.19731
1.15952
1.12433
1.09073
1.05742
1.02317
0.987483
0.951138
0.916849
0.887346
0.863728
0.846187
0.834608
0.828847
1.37001
1.36294
1.32512
1.28338
1.23855
1.19653
1.15758
1.12124
1.08663
1.05245
1.01747
0.981287
0.945081
0.911628
0.883021
0.860119
0.843085
0.831824
0.826218
1.3829
1.37439
1.33208
1.28699
1.23918
1.19525
1.15445
1.11668
1.08094
1.04582
1.01004
0.973484
0.937835
0.905439
0.87788
0.855815
0.839376
0.828492
0.823071
1.40053
1.3885
1.34013
1.29152
1.24016
1.19254
1.14942
1.11021
1.07333
1.03727
1.00078
0.964357
0.929618
0.898452
0.87207
0.850943
0.835174
0.824717
0.819504
1.44374
1.40448
1.34936
1.29839
1.23828
1.18701
1.14203
1.10162
1.06366
1.02681
0.990225
0.954371
0.920736
0.890948
0.865842
0.845723
0.830676
0.82068
0.815694
1665.96
1647.99
1611.82
1556.76
1481.26
1381.81
1301.06
1226.97
1139.58
1025.99
893.24
728.224
417.559
65.424
4.25464
2.54855
2.5647
2.57962
2.54465
2.42293
2.32967
2.22671
2.01474
1674.08
1655.92
1618.98
1561.54
1491.22
1424.79
1357.87
1284.27
1197.63
1090.72
968.156
814.409
416.897
47.8474
2.91647
2.3696
2.41366
2.43338
2.37884
2.27095
2.18751
2.0744
1.92131
1682.41
1664.12
1630.36
1584.72
1531.49
1474.48
1412.35
1341.77
1259.2
1159.78
1048.47
910.001
421.007
36.9671
2.38112
2.20777
2.25145
2.27354
2.22963
2.14393
2.07236
1.95465
1.87453
1695.72
1681.3
1654.36
1617.42
1572.81
1521.93
1464.1
1397.38
1319.76
1228.3
1129.59
1009.43
417.735
28.0661
2.13351
2.06278
2.10048
2.11435
2.09401
2.03254
1.9601
1.88416
1.80565
1717.96
1706.4
1684.28
1653.06
1613.94
1567.5
1513.47
1450.9
1378.91
1296.56
1212.23
1111.46
408.5
21.0938
2.00116
1.94677
1.98083
1.99397
1.98371
1.94793
1.86717
1.79496
1.72357
1747.18
1737.42
1718.4
1690.82
1655.32
1612.27
1561.73
1503.64
1438.35
1366.79
1298.21
1216.42
394.319
15.7644
1.88731
1.85814
1.88684
1.89854
1.88327
1.82835
1.75629
1.69361
1.63152
1782.08
1773.45
1756.4
1731.24
1698.33
1658.03
1610.88
1557.75
1500.3
1440.85
1388.38
1324.83
376.765
11.7553
1.7683
1.76935
1.79319
1.7947
1.75875
1.69352
1.63545
1.58392
1.53413
1822.35
1814.53
1798.93
1775.64
1744.84
1706.98
1663.11
1615.14
1566.06
1519.13
1482.36
1436.54
357.316
8.79301
1.64727
1.65857
1.67472
1.65045
1.60238
1.55198
1.50869
1.47014
1.43507
1868.37
1861.32
1847.16
1825.77
1797.14
1761.65
1720.66
1677.2
1635.89
1601.04
1579.44
1551.07
336.934
6.60026
1.51747
1.52633
1.51616
1.47961
1.4408
1.40634
1.37687
1.35136
1.32934
1920.4
1914.34
1902.05
1883.31
1857.81
1825.26
1786.66
1745.96
1710.34
1686.43
1679.68
1668.19
316.585
4.96496
1.37853
1.37631
1.34493
1.31263
1.28481
1.26159
1.24274
1.22745
1.21424
1978.3
1973.61
1964.13
1949.57
1929.68
1902.66
1867.41
1827.85
1795.85
1780.01
1785.5
1788.02
297.174
3.77927
1.24414
1.21155
1.18313
1.15875
1.13793
1.12195
1.11016
1.10175
1.09235
2051.22
2048.25
2042.43
2033.09
2020.11
2001.39
1973.51
1936.55
1910.62
1897.35
1901.87
1910.72
280.435
2.91724
1.12192
1.06578
1.03886
1.01723
0.999379
0.988096
0.98068
0.97687
0.965351
2147.89
2146.32
2143.28
2138.09
2130.32
2120.53
2106.38
2084.16
2057.46
2040.95
2033.19
2038.17
276.508
2.48425
1.01461
0.943752
0.909746
0.886697
0.870259
0.862035
0.846982
0.837087
0.840357
2245.3
2244.12
2241.54
2238.17
2234.8
2234.63
2237.71
2247.39
2221.53
2192.55
2178.36
2164.66
278.894
2.4952
0.874876
0.813524
0.780717
0.75742
0.743722
0.717575
0.704639
0.706416
0.740096
2335.83
2334.76
2332.44
2330.14
2329.74
2333.81
2345.07
2374.97
2386.65
2345.75
2316.85
2281.36
254.852
1.6555
0.719563
0.663952
0.632786
0.614766
0.583636
0.572378
0.573702
0.621112
0.672381
2431.86
2430.83
2428.96
2427.15
2427.08
2430.84
2441.03
2459.26
2480.2
2507.92
2449.54
2414.49
372.483
5.11129
0.525928
0.477453
0.461886
0.430845
0.424318
0.457985
0.512427
0.570521
0.62223
2517.52
2516.64
2515.09
2513.38
2512.6
2514.09
2518.95
2527.52
2542.29
2554.85
2579.41
2497.96
856.899
49.0688
0.419414
0.237961
0.236035
0.272473
0.351122
0.418923
0.476438
0.528396
0.57674
2296.95
2294.01
2288.43
2280.11
2269.42
2256.76
2242.11
2225.12
2207.43
2176.44
2146.05
1831.94
786.192
93.9022
1.12128
-0.0387631
0.104072
0.219426
0.300503
0.370071
0.428631
0.481786
0.529637
734.72
729.727
720.166
705.754
686.708
663.281
635.331
602.712
565.627
508.84
426.25
163.711
69.7018
70.0192
9.78809
-0.193357
-0.0067785
0.122084
0.218661
0.300058
0.370167
0.43082
0.482949
-2.45065
-2.43852
-2.40399
-2.34978
-2.27696
-2.1885
-2.07647
-1.95478
-1.86118
-1.75348
-1.6408
-1.5719
-1.35365
0.720431
0.757338
-0.571533
-0.219874
-0.0048807
0.131651
0.234807
0.317239
0.38575
0.443967
-2.2341
-2.22295
-2.19368
-2.13523
-2.05573
-1.96177
-1.82938
-1.73109
-1.58628
-1.49976
-1.4573
-1.44053
-1.34903
-1.28372
-1.03554
-0.709276
-0.354814
-0.101899
0.0577587
0.175435
0.267085
0.341955
0.404912
-1.99872
-1.98271
-1.9463
-1.88074
-1.7891
-1.70284
-1.59787
-1.5
-1.42896
-1.35853
-1.27089
-1.17609
-1.04907
-0.92485
-0.818061
-0.661599
-0.379877
-0.155228
0.00407958
0.126548
0.223437
0.302832
0.369423
-1.75807
-1.7399
-1.70157
-1.63892
-1.55293
-1.48151
-1.40168
-1.35598
-1.29948
-1.21319
-1.09523
-0.920499
-0.840333
-0.731989
-0.636063
-0.592686
-0.390264
-0.178641
-0.0319242
0.090193
0.188373
0.270108
0.338942
-1.52808
-1.51078
-1.4769
-1.43034
-1.376
-1.31838
-1.28684
-1.24911
-1.20527
-1.0767
-0.914444
-0.834405
-0.746144
-0.651844
-0.556088
-0.488984
-0.421251
-0.247008
-0.067288
0.064513
0.161937
0.244631
0.314066
-1.36733
-1.35672
-1.33685
-1.30855
-1.27339
-1.24327
-1.20802
-1.17377
-1.07664
-0.931938
-0.84283
-0.758309
-0.675107
-0.583592
-0.497796
-0.426719
-0.378154
-0.286582
-0.139964
-0.000776163
0.125453
0.219489
0.291017
-1.2778
-1.27071
-1.25667
-1.23598
-1.20865
-1.18398
-1.14163
-1.05583
-0.919095
-0.830478
-0.761708
-0.68892
-0.613045
-0.528707
-0.45647
-0.391058
-0.335662
-0.292581
-0.181487
-0.060693
0.052894
0.157839
0.249601
-1.20989
-1.2032
-1.18922
-1.16936
-1.1415
-1.09369
-1.01609
-0.907989
-0.804722
-0.747077
-0.689566
-0.626529
-0.56058
-0.491762
-0.424985
-0.361121
-0.309274
-0.26604
-0.21206
-0.10365
0.000626737
0.0953552
0.183545
-1.13094
-1.12252
-1.10411
-1.07453
-1.02897
-0.962005
-0.877227
-0.78043
-0.722313
-0.675322
-0.624949
-0.570421
-0.513544
-0.456052
-0.395589
-0.338507
-0.289039
-0.246899
-0.208932
-0.139491
-0.0418758
0.047926
0.129325
-1.02169
-1.01032
-0.986546
-0.949496
-0.897489
-0.829674
-0.75053
-0.69195
-0.650722
-0.610127
-0.566065
-0.519086
-0.47067
-0.42308
-0.36737
-0.315299
-0.268498
-0.228839
-0.194172
-0.153106
-0.0769855
0.00729928
0.0850237
-0.896086
-0.883549
-0.85831
-0.820628
-0.770553
-0.709481
-0.656055
-0.619071
-0.585328
-0.549673
-0.511247
-0.470707
-0.42917
-0.388343
-0.338418
-0.291567
-0.248254
-0.212439
-0.179332
-0.145988
-0.0982515
-0.0262734
0.046807
-0.770939
-0.759004
-0.735388
-0.700609
-0.656404
-0.613845
-0.581551
-0.552955
-0.52394
-0.492813
-0.459454
-0.424329
-0.38802
-0.351097
-0.308565
-0.267331
-0.228899
-0.195173
-0.165009
-0.135719
-0.101042
-0.0493319
0.0149543
-0.654524
-0.643806
-0.622868
-0.593529
-0.563781
-0.537721
-0.514041
-0.490562
-0.465706
-0.438878
-0.410122
-0.379717
-0.347909
-0.314974
-0.278828
-0.242922
-0.208925
-0.177522
-0.150585
-0.124732
-0.0965043
-0.0597921
-0.00893623
-0.549191
-0.540167
-0.524535
-0.505902
-0.487059
-0.468803
-0.450506
-0.431207
-0.410267
-0.387477
-0.362921
-0.33677
-0.309163
-0.280546
-0.249826
-0.21874
-0.188981
-0.161176
-0.137089
-0.113986
-0.0899777
-0.0618263
-0.0241166
-0.456944
-0.451409
-0.441927
-0.430346
-0.417843
-0.404656
-0.390455
-0.374817
-0.357481
-0.338399
-0.317668
-0.295419
-0.271811
-0.247458
-0.221656
-0.194896
-0.169077
-0.144801
-0.122687
-0.102231
-0.0825723
-0.0601872
-0.0315388
-0.378752
-0.375643
-0.370095
-0.362878
-0.354442
-0.344836
-0.333886
-0.321394
-0.307262
-0.291514
-0.274249
-0.255603
-0.235794
-0.215503
-0.194233
-0.17143
-0.149256
-0.12822
-0.108485
-0.0916211
-0.0745725
-0.0563155
-0.0339897
-0.311579
-0.309827
-0.306534
-0.301936
-0.296143
-0.28911
-0.280717
-0.270859
-0.259504
-0.246702
-0.232559
-0.21723
-0.200993
-0.184505
-0.167435
-0.148345
-0.129611
-0.111786
-0.0951577
-0.0805113
-0.0662255
-0.051077
-0.0333267
-0.252441
-0.25141
-0.249372
-0.246341
-0.242282
-0.237102
-0.230701
-0.223011
-0.214024
-0.203797
-0.192444
-0.180143
-0.167213
-0.154253
-0.141087
-0.125566
-0.110094
-0.0952949
-0.081464
-0.0688184
-0.0563669
-0.0446563
-0.0306606
-0.199042
-0.198397
-0.197069
-0.194998
-0.192099
-0.188272
-0.183426
-0.177512
-0.170529
-0.162539
-0.153658
-0.144088
-0.134176
-0.124486
-0.115022
-0.103053
-0.0907348
-0.0787893
-0.0675173
-0.0570388
-0.0473231
-0.0376608
-0.0266679
-0.149508
-0.149085
-0.148183
-0.146735
-0.144655
-0.141851
-0.138249
-0.133809
-0.128536
-0.122491
-0.115799
-0.108682
-0.101523
-0.0949224
-0.0891173
-0.0808747
-0.071664
-0.0624107
-0.0534971
-0.0450368
-0.0377429
-0.0302725
-0.0217199
-0.101572
-0.101315
-0.100738
-0.099783
-0.0983768
-0.0964473
-0.0939374
-0.0908188
-0.0871028
-0.0828529
-0.078205
-0.0734111
-0.0689119
-0.0653952
-0.0633274
-0.0591842
-0.0531085
-0.0463742
-0.0396414
-0.0331426
-0.0278574
-0.0222039
-0.0158789
-0.052319
-0.0522479
-0.052052
-0.0516581
-0.0510129
-0.0500688
-0.0487893
-0.047163
-0.0452075
-0.0429921
-0.0406558
-0.0384603
-0.0368502
-0.0364893
-0.0377982
-0.0377444
-0.0349821
-0.0307571
-0.0260559
-0.0215804
-0.01738
-0.0130517
-0.0089768
-0.0102626
-0.0102198
-0.0101529
-0.0100706
-0.00996249
-0.00981896
-0.00963629
-0.00941798
-0.00918663
-0.00898548
-0.00889726
-0.00905772
-0.00967738
-0.0110162
-0.01313
-0.0147317
-0.0146993
-0.0133791
-0.0112513
-0.0084934
-0.00618899
-0.00417406
-0.00340246
1.72132
1.61507
1.55619
1.55132
1.8124
1.75462
1.71693
1.67786
1.81868
1.76274
1.71243
1.66867
1.74593
1.70328
1.6626
1.6238
1.67026
1.63444
1.59834
1.56336
1.58426
1.55647
1.52573
1.49437
1.49908
1.47627
1.44982
1.42196
1.41127
1.39236
1.36981
1.3458
1.31348
1.29958
1.28206
1.26308
1.2041
1.19545
1.1843
1.17199
1.08654
1.08293
1.07886
1.07422
0.965884
0.969905
0.974362
0.977688
0.859317
0.872128
0.883346
0.89256
0.772574
0.790846
0.806804
0.820265
0.706521
0.725547
0.74304
0.759112
0.655418
0.674733
0.691972
0.707565
0.607996
0.626874
0.644398
0.660245
0.561083
0.580244
0.598405
0.615488
0.516202
0.536232
0.555689
0.575197
0.48108
0.503273
0.5241
0.54374
0.444954
0.469029
0.491542
0.512352
0.411653
0.43708
0.46089
0.482831
0.382706
0.409104
0.43386
0.456659
0.358644
0.385655
0.411032
0.434378
0.336886
0.3648
0.390885
0.414742
0.30396
0.335909
0.36478
0.390724
0.243166
0.279422
0.313513
0.344969
0.185051
0.219643
0.253105
0.284993
0.137319
0.169619
0.200856
0.230889
0.0962088
0.126601
0.155963
0.184322
0.0611255
0.0896862
0.11732
0.144105
0.0326264
0.0589517
0.0846647
0.109772
0.0114258
0.0348629
0.0581976
0.0812692
-0.00266883
0.0173232
0.0378129
0.0584394
-0.0112197
0.00531823
0.0228064
0.0407494
-0.0154895
-0.00218064
0.0123273
0.027496
-0.0167296
-0.00625497
0.00544852
0.0178878
-0.0159051
-0.00782988
0.00131727
0.011157
-0.0136201
-0.0076053
-0.000775906
0.00662298
-0.0101918
-0.00603984
-0.00135254
0.00372258
-0.00579897
-0.00362829
-0.00120758
0.00144048
-0.00319049
-0.00297034
-0.00261858
-0.00214253
1.53264
1.42769
1.35718
1.2935
1.23397
1.18017
1.13146
1.08752
1.04727
1.00934
0.972875
0.938165
0.906505
0.879026
0.855963
0.837447
0.823551
0.814293
0.809669
1.61335
1.45302
1.36294
1.28792
1.22145
1.16369
1.1122
1.06563
1.02317
0.984223
0.94841
0.915984
0.887733
0.86345
0.843032
0.826564
0.814144
0.805841
0.801689
1.60543
1.46318
1.35512
1.26625
1.19834
1.13855
1.08552
1.03799
0.995169
0.956854
0.92317
0.894373
0.869832
0.848574
0.830562
0.815943
0.804865
0.797434
0.793715
1.56241
1.47031
1.3444
1.24557
1.16486
1.10427
1.05125
1.00465
0.96374
0.928441
0.898907
0.874456
0.853146
0.834472
0.81853
0.805521
0.795625
0.788972
0.78564
1.50757
1.43578
1.33219
1.22633
1.1397
1.06961
1.01547
0.971109
0.934087
0.903595
0.878465
0.856926
0.837935
0.821256
0.806996
0.79534
0.78646
0.780484
0.777492
1.44373
1.38037
1.30613
1.20496
1.11772
1.04788
0.992286
0.948284
0.913279
0.885047
0.861682
0.841653
0.824161
0.808941
0.796002
0.785457
0.777434
0.772038
0.769341
1.37654
1.3207
1.26036
1.17625
1.09274
1.02617
0.97333
0.931008
0.897113
0.869733
0.847129
0.827988
0.811535
0.797414
0.785526
0.775895
0.768594
0.763695
0.761249
1.30636
1.25746
1.20572
1.13691
1.06313
1.00166
0.952828
0.91348
0.881479
0.855279
0.833552
0.815257
0.799703
0.786506
0.775499
0.766644
0.759961
0.755489
0.753262
1.23156
1.19062
1.14603
1.08911
1.02814
0.974517
0.930632
0.894803
0.865281
0.840778
0.820283
0.803004
0.788376
0.776049
0.76584
0.757672
0.751534
0.747439
0.745403
1.15091
1.11959
1.08215
1.03723
0.989537
0.945269
0.907223
0.875304
0.848564
0.826078
0.807089
0.791
0.777375
0.765923
0.756475
0.748945
0.743304
0.739549
0.737686
1.06497
1.04532
1.01868
0.98595
0.950089
0.914932
0.883057
0.855315
0.831544
0.811253
0.793934
0.779161
0.766609
0.756053
0.747354
0.740434
0.735259
0.731819
0.730113
0.980555
0.97467
0.959749
0.93778
0.911653
0.884452
0.858502
0.835019
0.81435
0.796378
0.780839
0.767465
0.756037
0.746397
0.738443
0.732117
0.727388
0.724245
0.722686
0.90491
0.910768
0.905969
0.892985
0.874804
0.854334
0.833795
0.814505
0.797027
0.781486
0.767819
0.755908
0.745642
0.736934
0.729725
0.723981
0.719682
0.716823
0.715402
0.839302
0.85348
0.856595
0.851005
0.839444
0.824698
0.809038
0.793814
0.779593
0.766587
0.754877
0.744488
0.735415
0.727649
0.721183
0.716012
0.712132
0.709545
0.708253
0.781931
0.801513
0.810855
0.81138
0.805402
0.79554
0.784281
0.773013
0.762088
0.751689
0.742003
0.733181
0.725327
0.718511
0.712784
0.708179
0.704708
0.702382
0.701211
0.730949
0.753686
0.768318
0.773956
0.772711
0.767006
0.759765
0.752385
0.744646
0.736777
0.729104
0.72187
0.715254
0.709397
0.704412
0.70037
0.697306
0.695236
0.694182
0.684727
0.711219
0.728868
0.738782
0.742015
0.740872
0.737278
0.7326
0.727221
0.721453
0.715599
0.709906
0.70457
0.699756
0.695591
0.692167
0.689547
0.687768
0.686863
0.642003
0.672417
0.694239
0.707699
0.714468
0.716481
0.715595
0.713362
0.710053
0.706093
0.701821
0.697489
0.693304
0.689444
0.686048
0.683218
0.681028
0.679536
0.678779
0.606095
0.639188
0.662871
0.678959
0.688866
0.69404
0.695142
0.695091
0.693498
0.691055
0.688113
0.684904
0.68168
0.678629
0.675892
0.673571
0.671756
0.670514
0.669884
0.574479
0.608406
0.63382
0.652072
0.664406
0.67213
0.676112
0.677801
0.677607
0.676455
0.674589
0.672278
0.669836
0.667444
0.665231
0.663314
0.661806
0.660768
0.66024
0.544395
0.579683
0.606954
0.627082
0.641558
0.65147
0.657466
0.660782
0.662213
0.662189
0.661148
0.659586
0.657788
0.655899
0.654085
0.652477
0.651216
0.650336
0.649888
0.516436
0.553446
0.582137
0.604115
0.620259
0.632002
0.639485
0.644302
0.646955
0.647851
0.647627
0.646637
0.645403
0.643867
0.642367
0.641013
0.639936
0.639178
0.638795
0.491513
0.529817
0.559741
0.583017
0.600595
0.613346
0.622312
0.628169
0.631736
0.633352
0.633859
0.633403
0.63248
0.631113
0.629947
0.628776
0.627814
0.627155
0.626824
0.469983
0.508923
0.539579
0.563627
0.582078
0.595539
0.60557
0.612179
0.61632
0.618619
0.619612
0.61948
0.618785
0.617771
0.616722
0.615564
0.614646
0.614058
0.613748
0.450798
0.489894
0.52082
0.545216
0.564071
0.57826
0.588622
0.595866
0.600452
0.60324
0.604504
0.604727
0.604216
0.603301
0.602403
0.601259
0.60038
0.599726
0.599379
0.428952
0.469472
0.501139
0.526075
0.545448
0.56023
0.570875
0.57855
0.583617
0.586686
0.588148
0.588746
0.588347
0.587559
0.586605
0.585571
0.584667
0.584
0.58361
0.392099
0.43995
0.475545
0.502881
0.52383
0.539605
0.55111
0.559336
0.564932
0.568349
0.570207
0.570864
0.570732
0.570048
0.569108
0.568136
0.567246
0.566585
0.566186
0.335366
0.392083
0.436624
0.4704
0.49545
0.513847
0.52731
0.536796
0.543291
0.547423
0.5498
0.550667
0.550822
0.550356
0.549488
0.548596
0.547774
0.547147
0.546776
0.279132
0.337084
0.385749
0.425332
0.456369
0.479867
0.497003
0.509037
0.517306
0.522729
0.525947
0.527531
0.528094
0.527959
0.527308
0.526569
0.525868
0.525316
0.524994
0.229976
0.285755
0.334116
0.375493
0.409811
0.437296
0.458504
0.474272
0.485466
0.493008
0.49775
0.500542
0.50188
0.502279
0.502098
0.501639
0.501128
0.5007
0.500446
0.187324
0.240353
0.286652
0.327201
0.362069
0.39123
0.414852
0.433362
0.447325
0.457426
0.464386
0.468876
0.471465
0.472776
0.473311
0.473338
0.473139
0.472905
0.472747
0.150474
0.200573
0.244225
0.282709
0.316429
0.345434
0.369763
0.389601
0.405279
0.417262
0.426082
0.432257
0.436377
0.438983
0.440487
0.441225
0.441503
0.441558
0.441538
0.118979
0.16581
0.20652
0.242358
0.273994
0.301653
0.325403
0.345336
0.361638
0.374605
0.384605
0.392003
0.397278
0.400996
0.403514
0.405074
0.405957
0.406392
0.406553
0.092549
0.135578
0.17303
0.205876
0.234892
0.260465
0.282749
0.301834
0.317841
0.330961
0.341455
0.349609
0.355625
0.359999
0.363204
0.365378
0.366758
0.367538
0.367866
0.0707981
0.109457
0.14328
0.172841
0.198887
0.221896
0.242112
0.259665
0.274656
0.287222
0.29755
0.305869
0.312295
0.317029
0.320534
0.323054
0.324727
0.325737
0.326178
0.0532202
0.0870235
0.116834
0.142824
0.165624
0.185737
0.203468
0.218993
0.232426
0.243875
0.253468
0.261358
0.267701
0.272569
0.276174
0.278825
0.280634
0.281743
0.282259
0.0392231
0.0678305
0.0932777
0.115419
0.134729
0.151686
0.166628
0.179768
0.191243
0.201154
0.209594
0.216664
0.222463
0.227091
0.230631
0.233264
0.235102
0.236228
0.236771
0.028185
0.0514026
0.0721957
0.0902225
0.105815
0.119401
0.131325
0.141826
0.151062
0.159137
0.166129
0.172101
0.17711
0.181211
0.184463
0.186949
0.188731
0.189861
0.190401
0.0194993
0.0372281
0.0531207
0.0667821
0.0784453
0.0884869
0.0972403
0.104954
0.111799
0.117879
0.123259
0.127972
0.132038
0.135469
0.138283
0.140506
0.142172
0.143296
0.143858
0.0125435
0.0246454
0.0353796
0.0444426
0.0520277
0.0584628
0.0640498
0.0690187
0.0735232
0.0776503
0.0814366
0.0848838
0.0879737
0.09068
0.0929789
0.0948579
0.0963206
0.0973456
0.0978859
0.00604784
0.012299
0.0177526
0.0222665
0.0259976
0.0291829
0.0320312
0.0346918
0.0372519
0.0397458
0.0421674
0.0444844
0.0466506
0.0486159
0.0503349
0.0517728
0.052909
0.0537066
0.0541284
-0.00123999
9.82955e-05
0.00134818
0.00245522
0.00346197
0.00443282
0.00541771
0.00644365
0.00751567
0.00862132
0.00973616
0.0108291
0.011867
0.0128184
0.0136559
0.0143583
0.0149102
0.015295
0.0154988
)
;

boundaryField
{
    leftWall
    {
        type            zeroGradient;
    }
    rightWall
    {
        type            zeroGradient;
    }
    lowerWall
    {
        type            zeroGradient;
    }
    atmosphere
    {
        type            totalPressure;
        rho             rho;
        psi             none;
        gamma           1;
        p0              uniform 0;
        value           nonuniform List<scalar> 
46
(
-0.00648291
-0.00644531
-0.00624945
-0.00597231
-0.00562794
-0.00523143
-0.00479849
-0.0043439
-0.0038823
-0.00342663
-0.00298922
-0.0025802
-0.00220769
-0.00187471
-0.0015727
-0.00126404
-0.000937121
-0.000621702
-0.000353362
-0.00015712
-4.09423e-05
-4.25454e-07
0
0
0
0
0
0
0
0
0
0
0
0
0
0
0
0
0
0
0
0
0
0
0
0
)
;
    }
    defaultFaces
    {
        type            empty;
    }
}


// ************************************************************************* //
