/*--------------------------------*- C++ -*----------------------------------*\
| =========                 |                                                 |
| \\      /  F ield         | foam-extend: Open Source CFD                    |
|  \\    /   O peration     | Version:     4.1                                |
|   \\  /    A nd           | Web:         http://www.foam-extend.org         |
|    \\/     M anipulation  |                                                 |
\*---------------------------------------------------------------------------*/
FoamFile
{
    version     2.0;
    format      ascii;
    class       volVectorField;
    location    "0.05";
    object      U;
}
// * * * * * * * * * * * * * * * * * * * * * * * * * * * * * * * * * * * * * //

dimensions      [0 1 -1 0 0 0 0];

internalField   nonuniform List<vector> 
2268
(
(0.0233782 -0.00691724 0)
(0.0704821 -0.00696648 0)
(0.118614 -0.00706108 0)
(0.168443 -0.0072063 0)
(0.220629 -0.00740223 0)
(0.275705 -0.00763324 0)
(0.334082 -0.0078583 0)
(0.394781 -0.00778072 0)
(0.457563 -0.00901348 0)
(0.527656 -0.00458893 0)
(0.545775 -0.0514328 0)
(0.5802 -0.0407762 0)
(0.676202 -0.026692 0)
(0.79029 -0.0326828 0)
(1.00779 -0.0407389 0)
(1.34617 -0.028512 0)
(1.77538 0.0472986 0)
(1.171 0.0748004 0)
(0.752505 0.0679625 0)
(0.502024 0.0383734 0)
(0.266145 0.0248007 0)
(0.127534 0.0347617 0)
(0.0411517 0.0344642 0)
(0.023387 -0.0207333 0)
(0.070508 -0.0208826 0)
(0.118656 -0.0211693 0)
(0.168503 -0.0216091 0)
(0.220716 -0.0222031 0)
(0.275854 -0.0229141 0)
(0.334417 -0.0235791 0)
(0.394905 -0.0235688 0)
(0.458409 -0.0251265 0)
(0.510792 -0.0273744 0)
(0.536203 -0.133665 0)
(0.569288 -0.113315 0)
(0.658463 -0.0943795 0)
(0.802069 -0.119652 0)
(1.08914 -0.125043 0)
(1.57855 -0.0175626 0)
(1.65897 0.157087 0)
(1.03728 0.179113 0)
(0.734447 0.156848 0)
(0.497952 0.10241 0)
(0.274077 0.0750885 0)
(0.136162 0.104474 0)
(0.0420243 0.104479 0)
(0.023342 -0.0345309 0)
(0.0703714 -0.0347835 0)
(0.118424 -0.0352684 0)
(0.168171 -0.036011 0)
(0.220294 -0.0370161 0)
(0.275405 -0.0382395 0)
(0.334151 -0.0393204 0)
(0.394357 -0.0405987 0)
(0.457966 -0.034401 0)
(0.463027 -0.0896291 0)
(0.512018 -0.183399 0)
(0.564416 -0.163952 0)
(0.632997 -0.176939 0)
(0.778273 -0.232596 0)
(1.09343 -0.237791 0)
(1.68724 0.0453827 0)
(1.39353 0.269319 0)
(0.841454 0.301702 0)
(0.669062 0.239315 0)
(0.469869 0.148437 0)
(0.278634 0.125587 0)
(0.14578 0.165019 0)
(0.0417006 0.176143 0)
(0.023274 -0.0482953 0)
(0.0701651 -0.0486562 0)
(0.118073 -0.0493483 0)
(0.167671 -0.0504058 0)
(0.219652 -0.0518411 0)
(0.274729 -0.0535733 0)
(0.333223 -0.0553571 0)
(0.397216 -0.0548974 0)
(0.429192 -0.0763688 0)
(0.424536 -0.159446 0)
(0.508481 -0.202301 0)
(0.545969 -0.208304 0)
(0.589781 -0.254915 0)
(0.735526 -0.333542 0)
(1.04556 -0.325306 0)
(1.53982 0.124383 0)
(1.10115 0.362662 0)
(0.708081 0.368966 0)
(0.608967 0.274293 0)
(0.445071 0.182954 0)
(0.28732 0.17482 0)
(0.159653 0.211686 0)
(0.0458627 0.252766 0)
(0.0231807 -0.0618523 0)
(0.0698822 -0.0623309 0)
(0.117594 -0.0632497 0)
(0.166985 -0.0646493 0)
(0.218775 -0.0665456 0)
(0.273704 -0.0688855 0)
(0.332952 -0.0712057 0)
(0.384552 -0.0729465 0)
(0.395749 -0.145891 0)
(0.406272 -0.188358 0)
(0.495405 -0.230451 0)
(0.516445 -0.254097 0)
(0.545357 -0.322368 0)
(0.686299 -0.405023 0)
(0.963014 -0.364736 0)
(1.31363 0.198756 0)
(0.854542 0.431308 0)
(0.598102 0.407907 0)
(0.554071 0.29319 0)
(0.427584 0.220954 0)
(0.296697 0.223151 0)
(0.180055 0.255591 0)
(0.058879 0.337135 0)
(0.0230585 -0.0747416 0)
(0.0695117 -0.0753534 0)
(0.116966 -0.0765321 0)
(0.166089 -0.0783202 0)
(0.217594 -0.0807288 0)
(0.27236 -0.0838641 0)
(0.330716 -0.0863366 0)
(0.358744 -0.112473 0)
(0.36469 -0.188395 0)
(0.390357 -0.214916 0)
(0.48002 -0.261672 0)
(0.485132 -0.299595 0)
(0.504714 -0.372295 0)
(0.631347 -0.446828 0)
(0.872496 -0.37287 0)
(1.08572 0.266536 0)
(0.638557 0.454773 0)
(0.513241 0.435592 0)
(0.506072 0.312391 0)
(0.416055 0.259324 0)
(0.3066 0.268079 0)
(0.209145 0.297672 0)
(0.0807767 0.43948 0)
(0.0229024 -0.0861771 0)
(0.0690377 -0.0869314 0)
(0.116164 -0.0883907 0)
(0.164945 -0.0905826 0)
(0.216037 -0.0934951 0)
(0.270511 -0.0973405 0)
(0.317617 -0.10571 0)
(0.331079 -0.163746 0)
(0.343141 -0.208403 0)
(0.373115 -0.235856 0)
(0.458343 -0.287958 0)
(0.45381 -0.337113 0)
(0.468855 -0.405498 0)
(0.577027 -0.471699 0)
(0.788246 -0.365843 0)
(0.848719 0.329045 0)
(0.492141 0.466744 0)
(0.450854 0.453208 0)
(0.46428 0.330767 0)
(0.409344 0.286909 0)
(0.315514 0.311451 0)
(0.256063 0.33612 0)
(0.122288 0.456549 0)
(0.0227169 -0.096002 0)
(0.0684739 -0.0969031 0)
(0.115217 -0.0986554 0)
(0.163612 -0.101268 0)
(0.214198 -0.104772 0)
(0.265568 -0.109667 0)
(0.297096 -0.139274 0)
(0.305956 -0.194157 0)
(0.327041 -0.224048 0)
(0.355586 -0.252002 0)
(0.432593 -0.305746 0)
(0.42118 -0.358094 0)
(0.436165 -0.433141 0)
(0.531004 -0.490891 0)
(0.714264 -0.3444 0)
(0.639784 0.387568 0)
(0.401481 0.492077 0)
(0.39405 0.463004 0)
(0.426197 0.352067 0)
(0.403471 0.316001 0)
(0.327533 0.333155 0)
(0.277844 0.376522 0)
(0.145277 0.530828 0)
(0.0139106 -0.0104076 0)
(0.0428524 -0.0106076 0)
(0.0708094 -0.00534959 0)
(0.0893552 -0.0025633 0)
(0.096278 -0.000578879 0)
(0.097236 0.000732005 0)
(0.0955534 0.00130877 0)
(0.0922044 0.00193094 0)
(0.0881791 0.00248482 0)
(0.0837417 0.00275757 0)
(0.0785435 0.00285985 0)
(0.0723916 0.00286182 0)
(0.0650368 0.00279202 0)
(0.0561734 0.00261672 0)
(0.0461235 0.00240527 0)
(0.0357024 0.00222971 0)
(0.0253464 0.00210294 0)
(0.0151498 0.00202141 0)
(0.00504477 0.00197436 0)
(0.0141773 -0.0316025 0)
(0.0459098 -0.031914 0)
(0.0756237 -0.0158381 0)
(0.0931421 -0.00760617 0)
(0.0995929 -0.00176394 0)
(0.100109 0.00196714 0)
(0.0980596 0.00430983 0)
(0.0945559 0.00616051 0)
(0.090334 0.0075478 0)
(0.0855828 0.00825253 0)
(0.0801217 0.00850765 0)
(0.0737341 0.0084811 0)
(0.0661307 0.00824175 0)
(0.057025 0.0076853 0)
(0.0467877 0.00704898 0)
(0.036215 0.00652585 0)
(0.0257135 0.00614841 0)
(0.0153705 0.00590592 0)
(0.00511837 0.00576645 0)
(0.0147728 -0.0533703 0)
(0.0501555 -0.049235 0)
(0.082515 -0.0255318 0)
(0.0971008 -0.0122527 0)
(0.102277 -0.00287038 0)
(0.101895 0.00341083 0)
(0.0993298 0.00783505 0)
(0.0954488 0.0108989 0)
(0.0908904 0.0128171 0)
(0.0858472 0.0137718 0)
(0.0801895 0.0140838 0)
(0.0736637 0.0139659 0)
(0.0659089 0.0134796 0)
(0.0566931 0.0124859 0)
(0.0464683 0.0114333 0)
(0.0359677 0.0105805 0)
(0.0255435 0.00996618 0)
(0.0152713 0.00957166 0)
(0.00508563 0.00934499 0)
(0.0175605 -0.0766095 0)
(0.0572402 -0.0611452 0)
(0.0912448 -0.0342015 0)
(0.10277 -0.016199 0)
(0.106233 -0.00347145 0)
(0.104664 0.00564571 0)
(0.101247 0.0120182 0)
(0.096668 0.0160634 0)
(0.091562 0.0183479 0)
(0.0861306 0.0194156 0)
(0.0802144 0.0196995 0)
(0.0734876 0.0194283 0)
(0.0655117 0.0185665 0)
(0.0561647 0.0171117 0)
(0.0459863 0.0156783 0)
(0.0355983 0.0145288 0)
(0.0252896 0.0136991 0)
(0.0151232 0.0131652 0)
(0.00503683 0.0128572 0)
(0.0237782 -0.104626 0)
(0.0682158 -0.0748189 0)
(0.101335 -0.0420999 0)
(0.110116 -0.0192419 0)
(0.111512 -0.00295963 0)
(0.10844 0.00924025 0)
(0.103724 0.0171941 0)
(0.0981112 0.0217945 0)
(0.092294 0.0242041 0)
(0.0864057 0.0252408 0)
(0.080183 0.0254014 0)
(0.0731737 0.0248628 0)
(0.0649189 0.0234688 0)
(0.0554627 0.0215828 0)
(0.0453694 0.0198166 0)
(0.0351261 0.0184041 0)
(0.0249637 0.0173791 0)
(0.0149326 0.016717 0)
(0.00497395 0.0163326 0)
(0.0361632 -0.144055 0)
(0.0845127 -0.0933741 0)
(0.114153 -0.0490756 0)
(0.119289 -0.0212126 0)
(0.118246 -8.53268e-05 0)
(0.113159 0.0149744 0)
(0.106527 0.0235759 0)
(0.0996054 0.0281331 0)
(0.0929967 0.0304071 0)
(0.0866175 0.0312547 0)
(0.0800377 0.0311541 0)
(0.0726551 0.0300815 0)
(0.0641109 0.0281128 0)
(0.0546092 0.025851 0)
(0.0446339 0.0237892 0)
(0.0345617 0.0221396 0)
(0.0245723 0.0209372 0)
(0.0147029 0.0201577 0)
(0.00489801 0.0197022 0)
(0.0720346 -0.199326 0)
(0.112238 -0.11352 0)
(0.130517 -0.0539689 0)
(0.130658 -0.021452 0)
(0.126684 0.00728656 0)
(0.118357 0.0228367 0)
(0.109219 0.0307273 0)
(0.100952 0.0347983 0)
(0.093579 0.0367732 0)
(0.0866942 0.0372707 0)
(0.0796644 0.0365867 0)
(0.0718685 0.0348315 0)
(0.0631141 0.0323957 0)
(0.053622 0.0297984 0)
(0.0437907 0.0274686 0)
(0.0339135 0.0256075 0)
(0.0241212 0.0242475 0)
(0.0144375 0.0233636 0)
(0.00481021 0.0228436 0)
(0.189025 -0.228174 0)
(0.171461 -0.124245 0)
(0.151265 -0.0475169 0)
(0.144596 -0.0090904 0)
(0.136569 0.0149567 0)
(0.122782 0.0280441 0)
(0.111435 0.0359087 0)
(0.102077 0.0403645 0)
(0.093989 0.0423428 0)
(0.0865022 0.0424952 0)
(0.0789794 0.0412046 0)
(0.0708619 0.0389418 0)
(0.061966 0.0361388 0)
(0.0525128 0.0332424 0)
(0.0428519 0.0306933 0)
(0.0331926 0.0286647 0)
(0.0236186 0.0271801 0)
(0.0141412 0.0262129 0)
(0.00471207 0.0256392 0)
(0.0223498 -0.112547 0)
(0.0673523 -0.113723 0)
(0.113313 -0.116099 0)
(0.160815 -0.119963 0)
(0.209807 -0.128366 0)
(0.245304 -0.148764 0)
(0.262355 -0.188191 0)
(0.278865 -0.223252 0)
(0.304892 -0.25014 0)
(0.329289 -0.279768 0)
(0.393066 -0.334169 0)
(0.367467 -0.383019 0)
(0.385807 -0.457162 0)
(0.487886 -0.500059 0)
(0.670638 -0.285912 0)
(0.467905 0.429626 0)
(0.317491 0.496063 0)
(0.327139 0.45557 0)
(0.383401 0.380984 0)
(0.389919 0.344648 0)
(0.349955 0.344055 0)
(0.37483 0.380948 0)
(0.439806 0.506385 0)
(0.0216475 -0.137763 0)
(0.0651225 -0.139645 0)
(0.109106 -0.144414 0)
(0.151175 -0.154219 0)
(0.184582 -0.172128 0)
(0.209296 -0.201715 0)
(0.230884 -0.230789 0)
(0.251716 -0.256475 0)
(0.274771 -0.283493 0)
(0.293388 -0.314572 0)
(0.342177 -0.365243 0)
(0.308892 -0.412691 0)
(0.333947 -0.473054 0)
(0.411757 -0.518281 0)
(0.540919 -0.116115 0)
(0.291373 0.457838 0)
(0.239706 0.482238 0)
(0.272391 0.447123 0)
(0.344838 0.398979 0)
(0.366638 0.355446 0)
(0.355702 0.338611 0)
(0.387956 0.354121 0)
(0.443262 0.335154 0)
(0.0204076 -0.166689 0)
(0.0603623 -0.170381 0)
(0.0979389 -0.178593 0)
(0.131712 -0.19314 0)
(0.160493 -0.213679 0)
(0.18472 -0.235665 0)
(0.205989 -0.258615 0)
(0.225485 -0.28284 0)
(0.244658 -0.30978 0)
(0.25806 -0.34084 0)
(0.29496 -0.387187 0)
(0.256437 -0.431596 0)
(0.285905 -0.488353 0)
(0.358432 -0.515017 0)
(0.449397 0.0235249 0)
(0.219963 0.451324 0)
(0.199613 0.469421 0)
(0.234215 0.44849 0)
(0.302411 0.403994 0)
(0.331815 0.357947 0)
(0.347429 0.335111 0)
(0.358487 0.316353 0)
(0.340641 0.25547 0)
(0.0178867 -0.199474 0)
(0.052854 -0.204306 0)
(0.0856153 -0.213604 0)
(0.115188 -0.227075 0)
(0.141078 -0.243882 0)
(0.163519 -0.262899 0)
(0.183178 -0.283726 0)
(0.200348 -0.306689 0)
(0.215468 -0.332793 0)
(0.223999 -0.362997 0)
(0.251817 -0.404878 0)
(0.211122 -0.445279 0)
(0.244136 -0.497238 0)
(0.310061 -0.5067 0)
(0.36886 0.158146 0)
(0.192633 0.44617 0)
(0.179599 0.455057 0)
(0.205212 0.439681 0)
(0.258818 0.402783 0)
(0.297288 0.356984 0)
(0.310764 0.335354 0)
(0.306258 0.289459 0)
(0.30053 0.25212 0)
(0.0155688 -0.232827 0)
(0.0460706 -0.237183 0)
(0.0748129 -0.245401 0)
(0.101013 -0.257074 0)
(0.124288 -0.271602 0)
(0.144594 -0.288438 0)
(0.162008 -0.307493 0)
(0.176335 -0.32913 0)
(0.187497 -0.354026 0)
(0.191886 -0.382701 0)
(0.213181 -0.419967 0)
(0.172764 -0.455614 0)
(0.20765 -0.503603 0)
(0.263888 -0.493196 0)
(0.290378 0.267332 0)
(0.168094 0.443264 0)
(0.159719 0.439108 0)
(0.180997 0.420333 0)
(0.219215 0.393979 0)
(0.260194 0.36131 0)
(0.277189 0.332101 0)
(0.270178 0.296973 0)
(0.264535 0.262499 0)
(0.0135837 -0.264213 0)
(0.0402631 -0.267977 0)
(0.0655681 -0.275045 0)
(0.0888194 -0.285111 0)
(0.109567 -0.297763 0)
(0.12752 -0.312739 0)
(0.142399 -0.330071 0)
(0.153732 -0.350092 0)
(0.161259 -0.373263 0)
(0.16239 -0.399709 0)
(0.179156 -0.43233 0)
(0.140728 -0.463599 0)
(0.175251 -0.508295 0)
(0.225466 -0.472696 0)
(0.205709 0.347851 0)
(0.135839 0.442486 0)
(0.136925 0.428533 0)
(0.159006 0.408404 0)
(0.197319 0.390843 0)
(0.232401 0.371347 0)
(0.242186 0.335908 0)
(0.236112 0.301603 0)
(0.230968 0.268323 0)
(0.0118888 -0.293452 0)
(0.0352899 -0.296739 0)
(0.0576049 -0.302885 0)
(0.0782158 -0.311673 0)
(0.0965902 -0.322775 0)
(0.112224 -0.336003 0)
(0.124574 -0.351425 0)
(0.133017 -0.369371 0)
(0.137353 -0.390213 0)
(0.135977 -0.413877 0)
(0.149368 -0.442113 0)
(0.113974 -0.469823 0)
(0.146751 -0.511966 0)
(0.190541 -0.441529 0)
(0.12943 0.39326 0)
(0.102745 0.444058 0)
(0.114143 0.42517 0)
(0.142328 0.410974 0)
(0.180172 0.397809 0)
(0.203672 0.372637 0)
(0.207038 0.337055 0)
(0.203093 0.303997 0)
(0.198277 0.272095 0)
(0.0103963 -0.320571 0)
(0.0309072 -0.323558 0)
(0.0505832 -0.329103 0)
(0.0688717 -0.336995 0)
(0.0851778 -0.346863 0)
(0.0988018 -0.358427 0)
(0.108931 -0.371672 0)
(0.114785 -0.38696 0)
(0.116307 -0.404832 0)
(0.112785 -0.425397 0)
(0.12322 -0.449775 0)
(0.091472 -0.474599 0)
(0.121637 -0.514652 0)
(0.157763 -0.398575 0)
(0.0710185 0.414927 0)
(0.0765389 0.442053 0)
(0.0980196 0.427988 0)
(0.130553 0.419499 0)
(0.157739 0.40239 0)
(0.17083 0.37248 0)
(0.173537 0.339957 0)
(0.171594 0.309295 0)
(0.168831 0.280188 0)
(0.00900813 -0.345382 0)
(0.0268389 -0.348268 0)
(0.0441086 -0.353596 0)
(0.0603828 -0.361108 0)
(0.0750783 -0.370292 0)
(0.0873256 -0.380553 0)
(0.0959249 -0.391548 0)
(0.0996884 -0.403623 0)
(0.0985505 -0.417859 0)
(0.092707 -0.435057 0)
(0.100125 -0.45609 0)
(0.072432 -0.47837 0)
(0.0994009 -0.51662 0)
(0.125773 -0.344358 0)
(0.0251778 0.42085 0)
(0.0622561 0.434282 0)
(0.0890804 0.430144 0)
(0.115672 0.420539 0)
(0.132266 0.400209 0)
(0.140593 0.373427 0)
(0.143625 0.345609 0)
(0.143485 0.318862 0)
(0.143288 0.293897 0)
(0.00761828 -0.367592 0)
(0.0227646 -0.370562 0)
(0.0376532 -0.376098 0)
(0.0520608 -0.383905 0)
(0.0656083 -0.393357 0)
(0.0774185 -0.403356 0)
(0.0857264 -0.412827 0)
(0.0883127 -0.421724 0)
(0.0845911 -0.432011 0)
(0.0757824 -0.44506 0)
(0.0798397 -0.462267 0)
(0.0564442 -0.481519 0)
(0.0800523 -0.518051 0)
(0.0978672 -0.277339 0)
(0.00296614 0.413 0)
(0.0566899 0.425818 0)
(0.0831508 0.424391 0)
(0.0999429 0.413555 0)
(0.10993 0.395701 0)
(0.115654 0.374122 0)
(0.118665 0.351497 0)
(0.119912 0.329341 0)
(0.121092 0.308683 0)
(0.00613206 -0.38939 0)
(0.0183519 -0.392468 0)
(0.0305818 -0.398383 0)
(0.0428848 -0.40674 0)
(0.0553768 -0.416914 0)
(0.0676212 -0.427805 0)
(0.0773442 -0.437694 0)
(0.0802956 -0.445173 0)
(0.0750002 -0.452507 0)
(0.0633671 -0.459798 0)
(0.0635813 -0.469708 0)
(0.043802 -0.484382 0)
(0.0642013 -0.519377 0)
(0.0718825 -0.210369 0)
(-0.0109453 0.394654 0)
(0.057177 0.412473 0)
(0.0762779 0.411835 0)
(0.0865576 0.40419 0)
(0.0923196 0.391002 0)
(0.0959634 0.374194 0)
(0.09864 0.356192 0)
(0.100763 0.337939 0)
(0.101498 0.321234 0)
(0.0045013 -0.415004 0)
(0.0133887 -0.417746 0)
(0.0225475 -0.422968 0)
(0.0324526 -0.430521 0)
(0.0435112 -0.439924 0)
(0.0558405 -0.451495 0)
(0.0677383 -0.464174 0)
(0.072737 -0.475801 0)
(0.0695981 -0.479372 0)
(0.0592935 -0.479864 0)
(0.0551636 -0.479228 0)
(0.0352956 -0.487552 0)
(0.0541088 -0.521728 0)
(0.0620812 -0.151242 0)
(0.00266415 0.3684 0)
(0.0657721 0.391005 0)
(0.0748571 0.396003 0)
(0.078862 0.394145 0)
(0.0796069 0.386379 0)
(0.0806127 0.373301 0)
(0.0824226 0.363254 0)
(0.085288 0.349158 0)
(0.0826022 0.327745 0)
(0.0034813 -0.42879 0)
(0.0103754 -0.430888 0)
(0.017636 -0.434524 0)
(0.0257004 -0.440308 0)
(0.0340778 -0.448949 0)
(0.0430918 -0.461442 0)
(0.0535787 -0.477835 0)
(0.0648573 -0.496998 0)
(0.0692121 -0.504461 0)
(0.0639196 -0.499381 0)
(0.0559965 -0.49122 0)
(0.0332881 -0.488985 0)
(0.0539167 -0.522922 0)
(0.076899 -0.113243 0)
(0.0366168 0.349701 0)
(0.080771 0.376475 0)
(0.0801222 0.388347 0)
(0.0767435 0.390297 0)
(0.0715618 0.385836 0)
(0.072987 0.384606 0)
(0.0749314 0.375202 0)
(0.0656723 0.355116 0)
(0.0515521 0.320976 0)
(0.00285496 -0.426299 0)
(0.00879204 -0.42776 0)
(0.0145968 -0.430043 0)
(0.0197664 -0.434095 0)
(0.0237684 -0.440967 0)
(0.0274179 -0.451711 0)
(0.031479 -0.467842 0)
(0.0481171 -0.490924 0)
(0.0688237 -0.511378 0)
(0.0713687 -0.511204 0)
(0.0650179 -0.500599 0)
(0.0373719 -0.4867 0)
(0.0539813 -0.520887 0)
(0.10417 -0.127757 0)
(0.0768391 0.34315 0)
(0.0973739 0.381074 0)
(0.0875492 0.396605 0)
(0.0760862 0.39963 0)
(0.0750629 0.405621 0)
(0.070454 0.402721 0)
(0.0531373 0.379016 0)
(0.0315466 0.339564 0)
(0.0144009 0.30027 0)
(0.00216815 -0.407172 0)
(0.00662022 -0.408388 0)
(0.0108818 -0.410912 0)
(0.0140016 -0.414728 0)
(0.0153604 -0.42026 0)
(0.0149202 -0.427582 0)
(0.0127134 -0.437559 0)
(0.0184287 -0.450378 0)
(0.049056 -0.479833 0)
(0.0756173 -0.511049 0)
(0.0813045 -0.505015 0)
(0.0450345 -0.490126 0)
(0.0331492 -0.557391 0)
(0.0351629 -0.0620281 0)
(0.150383 0.338743 0)
(0.125376 0.406424 0)
(0.0972935 0.423976 0)
(0.0876286 0.440198 0)
(0.0709754 0.437468 0)
(0.0460762 0.398169 0)
(0.0124651 0.350568 0)
(-0.0128143 0.306182 0)
(-0.0171548 0.275364 0)
(0.0016358 -0.392006 0)
(0.00484929 -0.393258 0)
(0.00783949 -0.395664 0)
(0.00994031 -0.399145 0)
(0.0105026 -0.403416 0)
(0.00961033 -0.407942 0)
(0.00783071 -0.412289 0)
(0.00531964 -0.415808 0)
(0.00783551 -0.42704 0)
(0.0467054 -0.462989 0)
(0.0863796 -0.505874 0)
(0.0538663 -0.499902 0)
(0.0597631 -0.618862 0)
(0.154626 -0.434739 0)
(0.273518 0.34102 0)
(0.171129 0.468036 0)
(0.127975 0.497694 0)
(0.0800149 0.479543 0)
(0.0357189 0.417082 0)
(-0.0153572 0.352927 0)
(-0.0379939 0.302462 0)
(-0.0426768 0.273733 0)
(-0.0382715 0.253889 0)
(0.000982145 -0.389817 0)
(0.00287482 -0.391091 0)
(0.00459331 -0.393356 0)
(0.00579096 -0.39663 0)
(0.00611845 -0.400296 0)
(0.00562256 -0.403684 0)
(0.00444383 -0.406242 0)
(0.00247176 -0.40777 0)
(-0.000825394 -0.408104 0)
(-0.00524199 -0.412405 0)
(0.0458632 -0.461674 0)
(0.0599717 -0.496231 0)
(0.109417 -0.506938 0)
(0.204239 -0.487103 0)
(0.288927 0.371109 0)
(0.207484 0.610096 0)
(0.0871514 0.544719 0)
(0.015553 0.443886 0)
(-0.0524299 0.354281 0)
(-0.0650818 0.300919 0)
(-0.0645781 0.271687 0)
(-0.0604471 0.252156 0)
(-0.0536158 0.236605 0)
(0.000333615 -0.370345 0)
(0.000900436 -0.371406 0)
(0.00141191 -0.373287 0)
(0.00175102 -0.375932 0)
(0.00182855 -0.378899 0)
(0.00165375 -0.381653 0)
(0.00127331 -0.383752 0)
(0.000197085 -0.384764 0)
(-0.000192732 -0.383789 0)
(-0.00876966 -0.380555 0)
(0.000942096 -0.371342 0)
(0.0586345 -0.41391 0)
(0.182925 -0.428457 0)
(0.305399 -0.358994 0)
(0.166751 0.291811 0)
(0.144606 0.624883 0)
(-0.0322199 0.49758 0)
(-0.0932845 0.37892 0)
(-0.0988095 0.32385 0)
(-0.0948785 0.28618 0)
(-0.0853438 0.258885 0)
(-0.0769347 0.238052 0)
(-0.0674488 0.222216 0)
(0.000191465 -0.323645 0)
(0.000406511 -0.324928 0)
(0.00067895 -0.327285 0)
(0.00097237 -0.330688 0)
(0.00126469 -0.334778 0)
(0.00159925 -0.339094 0)
(0.00204248 -0.3433 0)
(0.00273468 -0.347036 0)
(0.00410433 -0.348502 0)
(0.00729939 -0.351819 0)
(0.0373145 -0.33818 0)
(0.107914 -0.38892 0)
(0.217262 -0.480039 0)
(0.415697 -0.29891 0)
(0.293006 -0.0105162 0)
(-0.0665943 0.660684 0)
(-0.149847 0.499957 0)
(-0.149971 0.381429 0)
(-0.141009 0.318009 0)
(-0.127309 0.277147 0)
(-0.11144 0.246377 0)
(-0.0965332 0.223764 0)
(-0.0825764 0.206469 0)
(0.000104856 -0.678771 0)
(-0.0506394 -0.679579 0)
(-0.0887339 -0.680174 0)
(-0.129666 -0.686752 0)
(-0.170573 -0.698813 0)
(-0.215235 -0.705526 0)
(-0.243452 -0.719634 0)
(-0.243375 -0.717646 0)
(-0.239093 -0.761418 0)
(-0.255958 -0.80632 0)
(-0.224008 -0.822734 0)
(-0.298135 -0.804519 0)
(-0.389049 -0.902216 0)
(-0.353035 -0.13146 0)
(-0.278817 0.400698 0)
(-0.589568 0.723504 0)
(-0.339187 0.500784 0)
(-0.262669 0.373915 0)
(-0.2038 0.305337 0)
(-0.167554 0.26182 0)
(-0.139553 0.231806 0)
(-0.11743 0.209899 0)
(-0.0985678 0.193005 0)
(-0.017669 -0.566215 0)
(-0.0504724 -0.569525 0)
(-0.0932237 -0.570682 0)
(-0.140529 -0.573877 0)
(-0.185005 -0.576999 0)
(-0.234966 -0.56895 0)
(-0.261197 -0.55147 0)
(-0.284046 -0.533882 0)
(-0.298145 -0.513503 0)
(-0.292083 -0.531793 0)
(-0.311133 -0.586649 0)
(-0.552745 -0.690054 0)
(-0.78738 -0.522533 0)
(-0.832333 -0.0621911 0)
(-0.79227 0.340245 0)
(-0.725909 0.5218 0)
(-0.467305 0.374103 0)
(-0.343803 0.321104 0)
(-0.254727 0.272892 0)
(-0.201796 0.239887 0)
(-0.164061 0.21551 0)
(-0.135786 0.197142 0)
(-0.112795 0.182721 0)
(-0.0173548 -0.552122 0)
(-0.0549089 -0.556725 0)
(-0.0981204 -0.558641 0)
(-0.144999 -0.556923 0)
(-0.178299 -0.550108 0)
(-0.205259 -0.527011 0)
(-0.228371 -0.484525 0)
(-0.222021 -0.446571 0)
(-0.265251 -0.418144 0)
(-0.369241 -0.469374 0)
(-0.428651 -0.546643 0)
(-0.48602 -0.521754 0)
(-0.585426 -0.335306 0)
(-0.651302 -0.172927 0)
(-0.689222 0.135921 0)
(-0.656866 0.286304 0)
(-0.497344 0.274145 0)
(-0.371349 0.252359 0)
(-0.284617 0.232705 0)
(-0.225233 0.212473 0)
(-0.182458 0.195723 0)
(-0.150336 0.182085 0)
(-0.12467 0.170771 0)
(-0.0178181 -0.489455 0)
(-0.0541633 -0.489766 0)
(-0.0929314 -0.484674 0)
(-0.131804 -0.470351 0)
(-0.155275 -0.446213 0)
(-0.17016 -0.423533 0)
(-0.181333 -0.386689 0)
(-0.211586 -0.362855 0)
(-0.295657 -0.372653 0)
(-0.375564 -0.411672 0)
(-0.427354 -0.410258 0)
(-0.415676 -0.339868 0)
(-0.413924 -0.248634 0)
(-0.45963 -0.131584 0)
(-0.460398 -0.00741985 0)
(-0.517773 0.150772 0)
(-0.508762 0.237295 0)
(-0.388761 0.230743 0)
(-0.295399 0.203692 0)
(-0.239065 0.18688 0)
(-0.194565 0.176442 0)
(-0.160812 0.166694 0)
(-0.133623 0.158539 0)
(-0.0161958 -0.412705 0)
(-0.0482977 -0.409999 0)
(-0.0786878 -0.400024 0)
(-0.106253 -0.383323 0)
(-0.130749 -0.359145 0)
(-0.147112 -0.337242 0)
(-0.169046 -0.326174 0)
(-0.210142 -0.334062 0)
(-0.317489 -0.361917 0)
(-0.384686 -0.365554 0)
(-0.352884 -0.302028 0)
(-0.331952 -0.216017 0)
(-0.359845 -0.177528 0)
(-0.368546 -0.107884 0)
(-0.359591 -0.039064 0)
(-0.372348 0.0390046 0)
(-0.420468 0.166896 0)
(-0.408138 0.219065 0)
(-0.329774 0.206315 0)
(-0.253548 0.187626 0)
(-0.203312 0.168078 0)
(-0.16843 0.156198 0)
(-0.140105 0.149127 0)
(-0.0133979 -0.340422 0)
(-0.0400783 -0.337713 0)
(-0.0667375 -0.329939 0)
(-0.0921787 -0.319707 0)
(-0.111134 -0.308926 0)
(-0.137717 -0.300527 0)
(-0.175128 -0.30603 0)
(-0.249509 -0.332339 0)
(-0.317303 -0.361208 0)
(-0.320872 -0.298005 0)
(-0.290343 -0.221979 0)
(-0.297446 -0.190859 0)
(-0.310409 -0.147576 0)
(-0.311398 -0.100498 0)
(-0.299269 -0.0488878 0)
(-0.290594 -0.00268443 0)
(-0.315652 0.0667762 0)
(-0.349704 0.15759 0)
(-0.329633 0.193571 0)
(-0.278907 0.19113 0)
(-0.226605 0.177719 0)
(-0.180209 0.162279 0)
(-0.146906 0.149103 0)
(-0.0119997 -0.302802 0)
(-0.0362334 -0.30245 0)
(-0.0608353 -0.29935 0)
(-0.0852453 -0.295582 0)
(-0.10818 -0.293015 0)
(-0.14277 -0.302516 0)
(-0.202425 -0.319295 0)
(-0.267114 -0.340474 0)
(-0.283502 -0.315279 0)
(-0.254569 -0.242666 0)
(-0.248794 -0.20365 0)
(-0.257963 -0.167092 0)
(-0.268819 -0.129009 0)
(-0.266155 -0.0861931 0)
(-0.256111 -0.0489763 0)
(-0.248757 -0.0154812 0)
(-0.247608 0.019649 0)
(-0.276958 0.0820467 0)
(-0.294871 0.142211 0)
(-0.269766 0.165992 0)
(-0.233693 0.17241 0)
(-0.197637 0.167588 0)
(-0.162377 0.157115 0)
(-0.0115595 -0.292495 0)
(-0.0350776 -0.293877 0)
(-0.0592546 -0.294225 0)
(-0.0853544 -0.296223 0)
(-0.118808 -0.302936 0)
(-0.162687 -0.317278 0)
(-0.214225 -0.328733 0)
(-0.241604 -0.31403 0)
(-0.227363 -0.255388 0)
(-0.211897 -0.212849 0)
(-0.215882 -0.182182 0)
(-0.223139 -0.15139 0)
(-0.229362 -0.117654 0)
(-0.229753 -0.0799432 0)
(-0.226439 -0.0520608 0)
(-0.218735 -0.0244398 0)
(-0.212414 0.00229122 0)
(-0.220118 0.0339748 0)
(-0.243941 0.0898173 0)
(-0.248318 0.126915 0)
(-0.223969 0.143498 0)
(-0.196201 0.151881 0)
(-0.168221 0.153341 0)
(-0.0119412 -0.295574 0)
(-0.0365317 -0.298133 0)
(-0.0630666 -0.300729 0)
(-0.0932899 -0.305264 0)
(-0.129575 -0.312125 0)
(-0.168464 -0.315472 0)
(-0.197447 -0.304122 0)
(-0.197309 -0.265085 0)
(-0.183934 -0.22043 0)
(-0.18286 -0.192494 0)
(-0.187862 -0.16696 0)
(-0.193331 -0.140361 0)
(-0.197176 -0.111992 0)
(-0.200432 -0.0816221 0)
(-0.199837 -0.0568485 0)
(-0.192937 -0.0323211 0)
(-0.186737 -0.0104027 0)
(-0.185629 0.0134592 0)
(-0.198873 0.0459668 0)
(-0.214725 0.0896336 0)
(-0.208792 0.113807 0)
(-0.187323 0.126711 0)
(-0.163879 0.13497 0)
(-0.0127251 -0.298801 0)
(-0.0388235 -0.301122 0)
(-0.0666266 -0.302694 0)
(-0.0968074 -0.303964 0)
(-0.128376 -0.302053 0)
(-0.15567 -0.291625 0)
(-0.164946 -0.265616 0)
(-0.158944 -0.227131 0)
(-0.155802 -0.199637 0)
(-0.158967 -0.17723 0)
(-0.163803 -0.155238 0)
(-0.167996 -0.132362 0)
(-0.170407 -0.108543 0)
(-0.174827 -0.0839906 0)
(-0.176566 -0.0603867 0)
(-0.171521 -0.0391629 0)
(-0.165658 -0.0197863 0)
(-0.161958 -0.000180308 0)
(-0.16545 0.0218217 0)
(-0.178914 0.054244 0)
(-0.185991 0.0860595 0)
(-0.174854 0.103819 0)
(-0.155792 0.114895 0)
(-0.0129259 -0.293054 0)
(-0.0390886 -0.293987 0)
(-0.0658898 -0.292604 0)
(-0.0928911 -0.288786 0)
(-0.117607 -0.279694 0)
(-0.132129 -0.260477 0)
(-0.133399 -0.230828 0)
(-0.13198 -0.204608 0)
(-0.134426 -0.184153 0)
(-0.138563 -0.165103 0)
(-0.142907 -0.145812 0)
(-0.14644 -0.125922 0)
(-0.148561 -0.105672 0)
(-0.152438 -0.0855869 0)
(-0.154619 -0.0635325 0)
(-0.151777 -0.043826 0)
(-0.147159 -0.0256317 0)
(-0.143117 -0.00892838 0)
(-0.143106 0.00883907 0)
(-0.149059 0.030408 0)
(-0.158322 0.0593227 0)
(-0.158046 0.0821362 0)
(-0.145201 0.0963325 0)
(-0.012381 -0.279643 0)
(-0.0370905 -0.279213 0)
(-0.0614052 -0.275225 0)
(-0.083879 -0.267422 0)
(-0.100116 -0.252768 0)
(-0.106972 -0.230577 0)
(-0.109401 -0.207677 0)
(-0.112493 -0.188985 0)
(-0.116372 -0.171893 0)
(-0.120565 -0.155051 0)
(-0.12448 -0.137877 0)
(-0.127664 -0.120282 0)
(-0.129848 -0.10248 0)
(-0.132664 -0.0847847 0)
(-0.134594 -0.0652104 0)
(-0.133235 -0.0472964 0)
(-0.130266 -0.0304415 0)
(-0.126979 -0.0154656 0)
(-0.125353 0.000176497 0)
(-0.127444 0.0172769 0)
(-0.133399 0.0383016 0)
(-0.137331 0.0617374 0)
(-0.13204 0.0788517 0)
(-0.011292 -0.262117 0)
(-0.0334678 -0.260613 0)
(-0.054104 -0.254421 0)
(-0.0704592 -0.24333 0)
(-0.080822 -0.226988 0)
(-0.0871555 -0.208645 0)
(-0.091903 -0.192068 0)
(-0.0962149 -0.176621 0)
(-0.10043 -0.161594 0)
(-0.104427 -0.146463 0)
(-0.107976 -0.131003 0)
(-0.110854 -0.115194 0)
(-0.11286 -0.0991364 0)
(-0.115065 -0.0829047 0)
(-0.116987 -0.0658152 0)
(-0.116745 -0.0496658 0)
(-0.114944 -0.0345048 0)
(-0.112162 -0.0201835 0)
(-0.109898 -0.0062548 0)
(-0.110306 0.00847726 0)
(-0.11317 0.025083 0)
(-0.116984 0.0446083 0)
(-0.116754 0.0627345 0)
(-0.00975216 -0.242636 0)
(-0.0282806 -0.240086 0)
(-0.04414 -0.232483 0)
(-0.0564588 -0.220866 0)
(-0.0654508 -0.207157 0)
(-0.0720649 -0.193216 0)
(-0.0773449 -0.179557 0)
(-0.0819434 -0.166128 0)
(-0.0861037 -0.152669 0)
(-0.0898343 -0.138978 0)
(-0.093048 -0.124961 0)
(-0.095618 -0.110616 0)
(-0.0973746 -0.0959956 0)
(-0.0992245 -0.0811715 0)
(-0.101238 -0.0658894 0)
(-0.101722 -0.051199 0)
(-0.100506 -0.0371968 0)
(-0.0984289 -0.0235995 0)
(-0.0963738 -0.0110729 0)
(-0.0956932 0.00205862 0)
(-0.096779 0.0163205 0)
(-0.0992223 0.0320938 0)
(-0.101075 0.0486878 0)
(-0.00769157 -0.222574 0)
(-0.0222683 -0.219735 0)
(-0.0348763 -0.212558 0)
(-0.0451064 -0.202983 0)
(-0.0531353 -0.192051 0)
(-0.0594927 -0.180552 0)
(-0.0647287 -0.16884 0)
(-0.0692214 -0.156957 0)
(-0.0731552 -0.144833 0)
(-0.0765768 -0.1324 0)
(-0.0794591 -0.119628 0)
(-0.0817235 -0.106531 0)
(-0.0832502 -0.0931558 0)
(-0.0848387 -0.0796229 0)
(-0.0869084 -0.0657356 0)
(-0.0878925 -0.0522273 0)
(-0.087131 -0.0392499 0)
(-0.0857574 -0.0267316 0)
(-0.0840067 -0.0150037 0)
(-0.0826256 -0.00294931 0)
(-0.0827856 0.00969756 0)
(-0.0842499 0.023181 0)
(-0.0864783 0.0374313 0)
(-0.0059247 -0.204022 0)
(-0.0172649 -0.201806 0)
(-0.0273519 -0.196035 0)
(-0.035895 -0.188333 0)
(-0.0429465 -0.179383 0)
(-0.0487656 -0.16968 0)
(-0.0536488 -0.15949 0)
(-0.0578241 -0.14891 0)
(-0.0614223 -0.137959 0)
(-0.0644935 -0.126636 0)
(-0.0670343 -0.114953 0)
(-0.0689962 -0.102937 0)
(-0.0703186 -0.0906488 0)
(-0.0716859 -0.078226 0)
(-0.0737412 -0.0654794 0)
(-0.0751007 -0.0529363 0)
(-0.0748358 -0.0408199 0)
(-0.0739544 -0.0291556 0)
(-0.0723951 -0.0177244 0)
(-0.0707743 -0.00667659 0)
(-0.0703852 0.00466514 0)
(-0.0711997 0.0165304 0)
(-0.0732341 0.0289405 0)
(-0.00454744 -0.188445 0)
(-0.0133361 -0.186863 0)
(-0.0213565 -0.182298 0)
(-0.0283874 -0.176072 0)
(-0.0344022 -0.168635 0)
(-0.0395085 -0.160335 0)
(-0.0438577 -0.151392 0)
(-0.0475811 -0.141927 0)
(-0.0507636 -0.132002 0)
(-0.0534446 -0.121655 0)
(-0.0556272 -0.110922 0)
(-0.0572843 -0.0998458 0)
(-0.058406 -0.0884948 0)
(-0.0595543 -0.0769939 0)
(-0.0615198 -0.0651734 0)
(-0.0631132 -0.0534114 0)
(-0.0632071 -0.0419676 0)
(-0.0624783 -0.0308747 0)
(-0.0613264 -0.0198735 0)
(-0.0600594 -0.00960004 0)
(-0.0593778 0.000709327 0)
(-0.0597455 0.0114456 0)
(-0.0613267 0.0225339 0)
(-0.00347072 -0.175886 0)
(-0.0102282 -0.174765 0)
(-0.0165153 -0.171085 0)
(-0.022169 -0.165949 0)
(-0.0271328 -0.159653 0)
(-0.031436 -0.15245 0)
(-0.0351463 -0.144525 0)
(-0.0383319 -0.136 0)
(-0.0410412 -0.126956 0)
(-0.0432981 -0.117453 0)
(-0.0451041 -0.107542 0)
(-0.0464458 -0.0972729 0)
(-0.0473453 -0.0867121 0)
(-0.0482536 -0.0759522 0)
(-0.0500607 -0.06485 0)
(-0.0517823 -0.0536909 0)
(-0.052172 -0.0428091 0)
(-0.0517092 -0.0322727 0)
(-0.0509385 -0.0220371 0)
(-0.0500462 -0.0122215 0)
(-0.0491773 -0.00251107 0)
(-0.0491867 0.00747461 0)
(-0.0504613 0.0176567 0)
(-0.00260133 -0.166053 0)
(-0.00769349 -0.165239 0)
(-0.0124978 -0.162171 0)
(-0.0168979 -0.15781 0)
(-0.0208347 -0.152357 0)
(-0.0243013 -0.145996 0)
(-0.0273195 -0.138879 0)
(-0.0299174 -0.131122 0)
(-0.0321163 -0.122812 0)
(-0.0339242 -0.11402 0)
(-0.0353361 -0.104802 0)
(-0.0363418 -0.0952095 0)
(-0.0369732 -0.0852938 0)
(-0.0375852 -0.075101 0)
(-0.039161 -0.0645013 0)
(-0.0409646 -0.0537495 0)
(-0.0416736 -0.0433288 0)
(-0.041577 -0.0333144 0)
(-0.041124 -0.0236805 0)
(-0.040405 -0.0142638 0)
(-0.0395434 -0.00487074 0)
(-0.0394182 0.00441533 0)
(-0.0403663 0.013902 0)
(-0.00186899 -0.158586 0)
(-0.00554363 -0.157965 0)
(-0.00904818 -0.155304 0)
(-0.0123018 -0.151475 0)
(-0.0152539 -0.146619 0)
(-0.0178839 -0.140876 0)
(-0.0201897 -0.13437 0)
(-0.0221759 -0.127206 0)
(-0.0238441 -0.119472 0)
(-0.0251876 -0.111241 0)
(-0.02619 -0.102575 0)
(-0.0268319 -0.0935202 0)
(-0.0271307 -0.0841095 0)
(-0.0273565 -0.074347 0)
(-0.0286114 -0.0641097 0)
(-0.030506 -0.0535993 0)
(-0.0316298 -0.0435271 0)
(-0.0319442 -0.0339527 0)