/*--------------------------------*- C++ -*----------------------------------*\
| =========                 |                                                 |
| \\      /  F ield         | foam-extend: Open Source CFD                    |
|  \\    /   O peration     | Version:     4.1                                |
|   \\  /    A nd           | Web:         http://www.foam-extend.org         |
|    \\/     M anipulation  |                                                 |
\*---------------------------------------------------------------------------*/
FoamFile
{
    version     2.0;
    format      ascii;
    class       volScalarField;
    location    "0.25";
    object      alpha1;
}
// * * * * * * * * * * * * * * * * * * * * * * * * * * * * * * * * * * * * * //

dimensions      [0 0 0 0 0 0 0];

internalField   nonuniform List<scalar> 
2268
(
1
1
0.999999
1
1
1
1
1
1
1
1
1
1
1
1
1
1
1
1
1
1
1
0.998211
1
0.999999
0.999999
1
1
1
1
1
1
1
1
1
1
1
1
1
1
1
1
1
1
1
0.997465
0.999999
0.999999
0.999999
1
1
1
1
1
1
1
1
1
1
1
1
1
1
1
1
1
1
1
0.99423
0.999999
0.999999
1
1
1
1
1
1
1
1
1
1
1
1
1
1
1
1
1
1
1
1
0.99258
1
1
1
1
1
1
1
1
1
1
1
1
1
1
1
1
1
1
1
1
1
1
0.993588
1
1
1
1
1
1
1
1
1
1
1
1
1
1
1
1
1
1
1
1
1
1
0.996889
1
1
1
1
1
1
1
1
1
1
1
1
1
1
1
1
1
1
1
1
1
1
0.998886
1
1
1
1
1
1
1
1
1
1
1
1
1
1
1
1
1
1
1
1
1
1
0.99965
1.82628e-24
1.19477e-24
7.08679e-26
3.03893e-27
2.86474e-28
1.22104e-29
3.79791e-30
5.10116e-30
2.73723e-30
6.76617e-30
1.50067e-30
1.97547e-31
7.87824e-33
5.24655e-34
1.46862e-35
3.7082e-37
5.0496e-39
4.59112e-41
1.99077e-43
3.29199e-23
2.57741e-23
2.67239e-24
2.03009e-25
2.89679e-26
1.2209e-27
4.33476e-28
6.27887e-28
3.38359e-28
1.05018e-27
2.48637e-28
2.93701e-29
1.25679e-30
7.11562e-32
2.21385e-33
3.46321e-35
5.18129e-37
5.11997e-39
2.42412e-41
3.49039e-18
2.06332e-20
1.31967e-22
8.01802e-24
1.23914e-24
3.77987e-26
2.12809e-26
2.82309e-26
1.79822e-26
7.1039e-26
1.72173e-26
1.81484e-27
8.95176e-29
3.24925e-30
6.39931e-32
1.11566e-33
1.76495e-35
1.83269e-37
9.09071e-40
9.96625e-12
2.2855e-13
3.03893e-17
1.03822e-20
9.46155e-23
1.6346e-24
5.78275e-25
6.65879e-25
5.48525e-25
2.5879e-24
6.58947e-25
6.87326e-26
3.90787e-27
1.45203e-28
3.4189e-30
1.20109e-31
2.08979e-33
2.41634e-35
1.31078e-37
2.36476e-07
2.56627e-08
3.22309e-11
1.25035e-16
2.57278e-22
4.66306e-23
7.68884e-24
8.32059e-24
1.05382e-23
5.90567e-23
1.51227e-23
1.61837e-24
9.89839e-26
4.43016e-27
2.11997e-28
4.84395e-30
9.18425e-32
1.10231e-33
6.18432e-36
0.000144662
4.5401e-05
4.37511e-07
3.23408e-11
1.62397e-21
5.21713e-22
4.80021e-23
5.44172e-23
1.26891e-22
8.20076e-22
2.19714e-22
2.1451e-23
1.23045e-24
5.14511e-26
1.57061e-27
3.84292e-29
7.51608e-31
9.35042e-33
5.4963e-35
0.00706534
0.00234547
4.47064e-05
5.63178e-09
6.54013e-21
1.24402e-21
1.27498e-22
1.55685e-22
8.82834e-22
7.14292e-21
1.8614e-21
2.53483e-22
2.53979e-23
1.738e-24
6.60192e-26
2.00928e-27
4.5892e-29
6.51059e-31
4.29414e-33
0.0717158
0.00941035
5.30561e-05
3.17258e-10
4.34108e-21
1.23607e-22
1.23599e-22
1.23607e-22
1.00007e-21
3.6779e-20
1.11009e-20
1.93371e-21
2.21062e-22
1.96362e-23
9.1639e-25
3.3053e-26
8.64262e-28
1.38028e-29
1.01387e-31
1
1
1
1
1
1
1
1
1
1
1
1
1
1
1
1
1
1
1
1
1
1
0.999894
1
1
1
1
1
1
1
1
1
1
0.99999
0.999743
0.999653
0.999794
0.99996
0.999776
0.999738
0.999851
0.999967
0.999997
1
1
0.999996
1
1
1
1
1
1
1
1
1
0.999991
0.998743
0.981133
0.974802
0.985938
0.992277
0.970741
0.949268
0.953253
0.976165
0.991204
0.997903
0.999623
0.999946
0.999984
0.99998
0.999981
0.999975
0.999977
0.999972
0.999977
0.999994
0.999983
0.998647
0.967609
0.769163
0.701044
0.809236
0.785878
0.596947
0.435988
0.445654
0.569988
0.73626
0.890964
0.964192
0.988701
0.994767
0.994287
0.994425
0.993662
0.993958
0.993484
0.99442
0.99789
0.995759
0.945822
0.687754
0.227988
0.127506
0.198215
0.133044
0.0449122
0.0145453
0.0250869
0.0710442
0.226794
0.219744
0.279199
0.402105
0.842373
0.838106
0.83983
0.830308
0.835964
0.832217
0.848324
0.915145
0.865999
0.509035
0.10462
0.0163963
0.010988
0.00661606
0.00205792
0.000461802
9.44037e-05
0.000856932
0.00325182
0.00483652
0.00243175
0.0145321
0.0349158
0.231737
0.229012
0.23153
0.217101
0.228801
0.228379
0.259722
0.398558
0.261021
0.0504025
0.00470458
0.000491627
0.000451448
0.000379486
0.000166748
4.53516e-05
7.65726e-06
7.41014e-06
1.17738e-05
4.21783e-05
0.000118902
0.0003484
0.000423164
0.0061369
0.00645091
0.00657939
0.00603419
0.00708493
0.00838674
0.0106939
0.0171871
0.00824704
0.00205133
0.000526505
0.00011665
2.82758e-05
1.08156e-05
9.60235e-06
6.90149e-06
4.66046e-06
4.66667e-06
4.65072e-06
1.70754e-05
0.000186787
0.000387212
0.000207503
0.000132629
0.000137466
0.000146876
0.000141717
0.000191395
0.000286132
0.000404866
0.000370422
0.000180266
4.62304e-05
5.37332e-05
5.73028e-05
4.66107e-05
0.000122743
0.000192147
0.000116665
2.79402e-05
7.82309e-06
1.64372e-05
0.000224219
0.000981202
0.000625318
0.000159629
2.90282e-06
2.43699e-06
2.50633e-06
2.52443e-06
3.48799e-06
4.69677e-06
5.76349e-06
5.78497e-06
4.54161e-06
5.57018e-06
1.15448e-05
9.2669e-05
0.000276274
0.000757088
0.000819589
0.000331001
5.37075e-05
0.000141438
0.000788432
0.000983769
0.000989571
0.00065017
0.000126873
5.23799e-08
3.70072e-08
2.22639e-08
2.47735e-08
3.71147e-08
3.1261e-08
2.2833e-08
6.51499e-08
1.49435e-07
7.07822e-06
8.79323e-05
0.000126412
0.000613814
0.000961369
0.000964368
0.000462376
0.00030651
0.000734268
0.00086869
0.000874164
0.000384432
6.48966e-05
3.92012e-06
1.09431e-09
6.50034e-10
1.60736e-10
2.28154e-10
3.26711e-10
1.70606e-10
8.75274e-10
7.35377e-08
8.13322e-07
3.33704e-05
0.000203059
6.7854e-05
0.000492741
0.000638997
0.000961021
0.000964368
0.000904264
0.000165539
0.000135043
5.19646e-05
9.4312e-06
2.96715e-07
1.03439e-09
4.91019e-11
3.30778e-11
4.17769e-12
9.20975e-12
1.19816e-11
3.99678e-11
3.09684e-09
2.68912e-07
2.36318e-06
4.57182e-05
0.000204603
7.3178e-06
3.50772e-05
5.86328e-05
0.000334768
0.000590573
0.000322312
8.90215e-06
3.14343e-07
9.31705e-09
1.48818e-10
4.52319e-13
5.49528e-15
1.28849e-11
7.55433e-12
8.46278e-13
2.97363e-12
7.26198e-12
9.03346e-11
5.07989e-09
3.40603e-07
3.40728e-06
1.68038e-05
9.21194e-05
2.03973e-06
1.67566e-06
1.74917e-06
5.97388e-06
2.25113e-05
1.40301e-06
3.41905e-10
3.16357e-16
3.64218e-18
3.61324e-17
5.5238e-17
1.12796e-16
3.64992e-12
1.57608e-12
1.23575e-13
8.68494e-13
6.67561e-12
1.11142e-10
5.03869e-09
1.82515e-07
1.00901e-06
1.51674e-06
2.02815e-06
6.08443e-07
3.68844e-08
1.84869e-08
1.14088e-08
2.42415e-08
1.91363e-09
1.78402e-13
3.33289e-17
3.24276e-18
4.38719e-18
5.25323e-18
6.00757e-18
6.02971e-13
2.07883e-13
1.36772e-14
4.75862e-13
6.85808e-12
9.97717e-11
1.20247e-09
6.59476e-09
1.20408e-08
3.14776e-08
1.42907e-07
1.56265e-07
1.35844e-08
6.32137e-10
4.17641e-10
5.402e-10
7.27541e-13
4.5853e-14
1.41099e-16
2.50875e-18
1.69548e-18
1.22845e-18
8.41065e-19
6.46479e-14
1.93342e-14
5.28481e-15
4.4627e-13
6.591e-12
3.36706e-11
8.15922e-11
6.58355e-11
6.43528e-10
4.97761e-09
3.03107e-08
2.31954e-08
1.82294e-08
7.73449e-10
4.96079e-12
1.05319e-12
1.4184e-14
1.47807e-15
2.78336e-17
2.52871e-18
7.24002e-19
4.08031e-19
2.48816e-19
5.08476e-15
1.71645e-15
3.9994e-15
4.33889e-13
3.40674e-12
3.96854e-12
6.21925e-12
2.25057e-11
3.43865e-10
1.96369e-09
7.05517e-09
6.83902e-09
1.23944e-08
1.475e-09
5.01905e-12
4.29114e-13
4.47178e-16
5.38434e-17
1.12808e-17
1.45179e-18
2.75886e-19
1.18525e-19
9.03121e-20
5.548e-16
2.65238e-16
2.43398e-15
2.63743e-13
5.54464e-13
3.78571e-13
1.1986e-12
1.07137e-11
1.13315e-10
3.26018e-10
1.32195e-09
1.02316e-09
1.23757e-09
9.81205e-10
3.88554e-12
3.90913e-13
1.56208e-16
8.79629e-18
4.73469e-19
5.78137e-20
3.00139e-20
3.71298e-20
6.63429e-20
1.22759e-22
3.25085e-21
7.44339e-16
5.34554e-15
1.77108e-14
3.97173e-14
4.1292e-13
1.60155e-12
6.73008e-12
2.43486e-11
1.2601e-10
9.65837e-11
4.82003e-11
1.44683e-10
1.19143e-12
1.40921e-13
4.5774e-17
1.81849e-18
9.52873e-20
8.04171e-21
1.12862e-20
3.17978e-20
7.29745e-20
1.05931e-22
3.06027e-21
2.79364e-19
4.41681e-18
2.14814e-16
6.83623e-15
8.02677e-14
1.63687e-13
9.4802e-14
8.35124e-13
5.46551e-12
7.29014e-12
2.57954e-12
3.1209e-12
4.19909e-13
5.56885e-14
1.40809e-17
1.56532e-19
3.02474e-21
2.43215e-21
9.45072e-21
3.43995e-20
7.63258e-20
7.71131e-23
2.43514e-21
2.00699e-19
4.37114e-18
1.1616e-16
1.17281e-15
3.62471e-15
4.25544e-15
9.02337e-15
1.39105e-13
3.578e-13
3.33402e-13
1.86463e-13
6.87927e-14
2.04014e-14
1.6865e-15
3.94428e-18
1.07837e-20
6.01347e-22
1.90389e-21
9.60927e-21
3.53492e-20
7.41785e-20
3.84584e-23
6.30062e-22
5.19977e-21
1.94109e-20
3.25421e-20
1.15599e-18
9.21036e-18
2.50469e-16
1.43303e-15
1.23263e-14
6.05919e-15
1.5259e-15
4.18289e-16
1.10702e-16
2.78542e-17
4.57393e-18
7.15149e-19
3.18237e-21
3.66898e-22
1.41883e-21
8.69243e-21
3.3575e-20
6.90235e-20
3.8618e-24
5.88589e-23
2.74903e-22
3.72693e-22
5.73494e-21
2.13504e-20
1.56488e-19
6.47046e-19
2.10858e-18
5.70976e-18
4.01518e-18
2.5647e-18
1.37818e-18
5.78312e-19
1.57062e-19
1.02257e-19
9.9816e-21
1.65258e-22
1.09506e-22
7.8523e-22
6.16518e-21
2.70211e-20
6.53188e-20
3.38806e-34
1.83122e-32
1.3411e-30
4.22036e-27
2.05479e-25
1.44869e-24
7.07041e-24
1.71308e-22
4.18725e-22
6.45678e-22
8.46127e-22
9.56723e-22
8.86159e-22
6.36856e-22
3.09502e-22
5.97693e-22
1.00035e-22
2.42518e-23
3.32319e-23
3.82793e-22
4.22252e-21
2.02645e-20
6.19361e-20
1.14155e-34
5.60346e-33
4.97885e-31
2.08865e-29
3.9627e-28
1.88564e-26
5.97686e-25
2.00169e-24
7.09323e-24
1.81689e-23
3.69501e-23
5.54319e-23
5.69324e-23
3.18491e-23
2.99202e-23
7.91897e-23
1.35662e-23
1.35283e-24
9.41268e-24
1.75514e-22
3.3041e-21
1.40585e-20
5.38704e-20
7.3706e-41
7.28064e-39
1.99843e-37
6.59341e-35
3.06068e-32
3.05458e-31
1.80288e-30
1.10386e-29
4.93526e-29
1.82299e-28
5.45266e-28
1.31377e-27
2.23488e-27
2.05844e-27
3.26244e-27
4.56985e-27
9.84094e-27
3.48598e-26
1.01061e-24
6.9661e-23
8.4006e-22
7.70034e-21
4.00519e-20
9.48657e-41
1.37026e-38
3.52724e-37
2.39682e-36
2.48612e-35
2.40367e-34
1.86618e-33
9.90355e-33
4.69601e-32
1.77179e-31
5.33271e-31
1.24112e-30
2.08591e-30
1.9659e-30
3.28927e-30
6.28644e-30
2.3571e-29
2.10985e-28
6.60365e-27
2.3116e-25
1.50683e-23
5.31146e-22
7.51072e-21
7.4357e-48
7.04663e-46
2.47628e-44
4.61212e-43
6.60324e-42
7.54487e-41
6.62912e-40
4.90734e-39
3.51588e-38
2.53668e-37
2.10813e-36
1.90924e-35
1.70594e-34
1.3102e-33
9.63508e-33
6.56643e-32
5.2098e-31
2.03311e-29
2.13837e-28
2.3795e-27
3.09268e-26
2.99918e-25
2.16268e-24
5.11631e-51
5.33738e-49
2.35366e-47
6.18107e-46
1.27971e-44
2.18169e-43
3.07943e-42
4.28751e-41
5.56868e-40
7.20529e-39
9.43955e-38
1.17647e-36
1.31679e-35
1.22351e-34
1.00211e-33
7.31635e-33
6.39462e-32
8.76094e-31
1.09338e-29
2.83334e-28
2.32988e-27
2.86674e-26
2.3148e-25
7.48785e-54
7.1326e-52
3.10757e-50
9.18341e-49
2.09041e-47
3.45762e-46
6.05535e-45
1.07108e-43
1.92567e-42
3.43395e-41
5.96531e-40
9.96042e-39
1.68885e-37
3.79574e-36
2.60517e-35
2.32789e-34
2.67007e-33
3.92079e-32
1.47494e-30
1.99812e-29
2.21514e-28
1.59169e-27
1.49919e-26
1.07323e-56
1.29066e-54
6.92047e-53
2.62755e-51
6.54359e-50
1.7072e-48
4.38592e-47
1.1062e-45
2.66231e-44
6.01408e-43
1.17788e-41
1.98104e-40
2.84779e-39
3.6436e-38
3.91401e-37
5.32709e-36
8.51903e-35
1.52163e-33
2.8762e-32
4.5396e-31
6.49929e-30
7.93667e-29
9.94021e-28
4.69136e-59
4.75585e-57
2.60205e-55
9.69643e-54
3.41144e-52
1.17597e-50
3.79862e-49
1.16309e-47
3.2954e-46
8.44428e-45
1.88579e-43
3.61998e-42
5.88313e-41
8.07113e-40
1.00747e-38
1.63395e-37
3.02627e-36
5.67083e-35
1.01395e-33
1.50951e-32
2.51926e-31
4.27478e-30
3.64773e-29
1.41049e-62
1.45359e-60
8.29505e-59
3.40158e-57
1.31046e-55
4.96883e-54
1.90248e-52
6.90978e-51
2.28626e-49
6.62727e-48
1.65114e-46
3.51908e-45
6.4458e-44
1.06118e-42
1.73747e-41
3.66627e-40
8.69827e-39
2.04506e-37
4.27018e-36
1.75406e-34
3.16032e-33
6.11002e-32
1.17752e-30
1.32572e-66
2.15417e-64
1.82638e-62
1.12103e-60
5.9632e-59
3.08254e-57
1.51609e-55
6.8934e-54
2.78681e-52
9.86914e-51
3.032e-49
8.16897e-48
2.01122e-46
4.98923e-45
1.39388e-43
4.60437e-42
1.53272e-40
4.78594e-39
1.32783e-37
3.522e-36
8.14213e-35
1.57327e-33
2.388e-32
7.47602e-71
2.71015e-68
4.89688e-66
5.89335e-64
5.55439e-62
4.27735e-60
2.78402e-58
1.56037e-56
7.53936e-55
3.19071e-53
1.18114e-51
3.95068e-50
1.24707e-48
4.10278e-47
1.52614e-45
6.45457e-44
2.59425e-42
9.44714e-41
3.09369e-39
9.70736e-38
2.85024e-36
4.87185e-35
9.41833e-34
5.55571e-76
3.11799e-73
8.37272e-71
1.45319e-68
1.88274e-66
1.96463e-64
1.69068e-62
1.25873e-60
8.16699e-59
4.75117e-57
2.53735e-55
1.29034e-53
6.50926e-52
3.40885e-50
1.86156e-48
1.03849e-46
5.31465e-45
2.44236e-43
9.56813e-42
3.24424e-40
1.00647e-38
2.75798e-37
7.1774e-36
4.20454e-81
2.34979e-78
6.34351e-76
1.18489e-73
1.78822e-71
2.27184e-69
2.605e-67
2.69628e-65
2.62866e-63
2.42108e-61
2.16974e-59
1.90396e-57
1.60794e-55
1.29158e-53
1.00173e-51
7.34019e-50
4.61426e-48
2.47983e-46
1.1186e-44
4.23713e-43
2.49499e-41
1.12143e-39
4.40279e-38
2.61104e-88
3.18544e-85
1.91259e-82
7.76061e-80
2.40662e-77
6.19792e-75
1.35333e-72
2.6415e-70
4.65496e-68
7.70163e-66
1.21754e-63
1.89146e-61
2.82288e-59
3.97769e-57
5.27851e-55
6.46477e-53
6.21288e-51
5.04467e-49
3.52587e-47
2.07404e-45
1.19734e-43
5.8496e-42
2.65453e-40
2.77729e-94
3.58764e-91
2.13359e-88
8.34597e-86
2.54577e-83
6.47005e-81
1.44589e-78
2.94629e-76
5.61375e-74
1.02863e-71
1.85774e-69
3.4451e-67
8.0485e-65
3.01104e-62
2.50809e-59
7.02404e-57
1.0642e-54
1.23592e-52
1.17848e-50
9.55437e-49
7.55691e-47
4.95213e-45
2.88898e-43
1.62705e-103
3.04029e-100
1.99969e-97
7.55168e-95
1.90764e-92
3.48973e-90
4.81316e-88
5.10885e-86
4.25475e-84
2.77982e-82
1.4819e-80
9.35561e-79
9.93308e-77
1.72556e-74
4.9383e-67
1.29246e-60
3.23467e-58
4.88061e-56
6.00607e-54
6.61318e-52
8.49411e-50
1.72288e-47
1.06221e-45
0
0
0
0
0
0
0
0
0
0
0
0
0
0
0
2.66617e-66
2.12421e-63
3.84597e-61
4.52258e-59
3.64654e-57
2.07258e-55
3.02242e-53
1.55106e-49
0.999913
0.999973
0.999975
0.99526
0.999985
0.999993
0.999992
0.999432
0.999991
0.999994
0.999994
0.999985
0.997941
0.99942
0.999849
0.999925
0.580141
0.786947
0.928481
0.975502
0.0683632
0.125909
0.212835
0.252771
0.00115758
0.00332759
0.00777348
0.0165295
7.77279e-05
8.27825e-05
0.000124061
0.000394837
1.72417e-06
1.92397e-07
2.73355e-07
1.59979e-06
9.8182e-15
1.13501e-11
7.26078e-11
1.19668e-09
9.17234e-15
9.8182e-15
1.86226e-14
1.63157e-13
8.57388e-15
1.45482e-14
6.10199e-14
1.97566e-13
8.01653e-15
9.51576e-15
1.06948e-14
1.22935e-14
1.39303e-16
1.65291e-16
1.96321e-16
2.61221e-16
6.46127e-18
3.62895e-17
3.60534e-16
4.0287e-16
6.68309e-19
1.8989e-16
7.57666e-12
6.79288e-12
1.76915e-19
5.55227e-16
6.88238e-09
1.41983e-08
6.75977e-20
1.03458e-15
4.05588e-07
2.4308e-06
6.69709e-20
2.4253e-15
4.5484e-06
5.83627e-05
6.72835e-20
4.16359e-15
1.5095e-05
0.00031657
6.56446e-20
8.49925e-16
1.63837e-05
0.000475812
6.37677e-20
1.32571e-17
3.37928e-11
7.05083e-06
5.63674e-20
2.64066e-20
2.08895e-21
3.21163e-21
6.23953e-20
3.5321e-20
4.63719e-21
1.38936e-22
7.81811e-20
5.02168e-20
6.64574e-21
4.67126e-22
1.02981e-19
7.42604e-20
2.06026e-20
-1.67477e-23
1.0534e-19
1.25232e-19
9.90511e-20
3.07488e-23
6.57067e-20
1.94816e-19
3.00375e-19
-1.52774e-35
2.17203e-23
4.51777e-22
9.24753e-21
9.77453e-20
1.53094e-24
4.98321e-24
1.45159e-23
3.81265e-23
1.27367e-25
5.07085e-25
1.79754e-24
5.81055e-24
8.68733e-27
3.79204e-26
1.54241e-25
5.84448e-25
4.05816e-28
2.07738e-27
9.96748e-27
4.42369e-26
1.38702e-29
8.30536e-29
4.93869e-28
2.62711e-27
4.54176e-31
3.35187e-30
2.11997e-29
1.26573e-28
1.17757e-32
8.66027e-32
6.47164e-31
4.95834e-30
1.90755e-34
1.92216e-33
1.75027e-32
1.57431e-31
1.14857e-36
1.80896e-35
2.55775e-34
3.39539e-33
1.17769e-38
2.16844e-37
3.69941e-36
5.96386e-35
2.75471e-41
7.08302e-40
2.39908e-38
5.45594e-37
7.14639e-44
3.04841e-42
1.05131e-40
4.88715e-39
3.97255e-47
3.26197e-45
2.03991e-43
1.06249e-41
0.402363
0.000869746
0.000452523
1.0596e-11
3.57979e-14
5.05549e-13
4.57526e-14
3.784e-15
2.36737e-19
9.11369e-20
3.49149e-20
6.73232e-21
7.51782e-22
5.54806e-23
3.18849e-24
1.37221e-25
4.20257e-27
7.77595e-29
6.56408e-31
0.996181
0.928135
0.355937
0.00868823
1.5816e-08
1.20648e-07
1.62559e-09
5.7858e-10
2.00009e-13
5.14132e-17
8.17529e-20
2.49885e-20
5.0385e-21
5.42373e-22
4.56165e-23
2.62994e-24
1.0125e-25
2.29443e-27
2.335e-29
0.999983
0.999133
0.909462
0.309323
0.0320286
0.000767963
7.33328e-06
3.15045e-06
5.14804e-09
2.81122e-11
4.9442e-15
5.02108e-20
8.98676e-21
1.52685e-21
1.70268e-22
1.24603e-23
5.92293e-25
1.63942e-26
2.01155e-28
0.999956
0.999956
0.997962
0.922842
0.668237
0.223604
0.0274946
0.00125107
1.07634e-05
2.21798e-07
2.2282e-10
3.39807e-15
4.18907e-21
9.57973e-22
1.45158e-22
1.29373e-23
6.99742e-25
2.11109e-26
2.75647e-28
0.988393
0.997746
0.997809
0.996633
0.977224
0.870434
0.392518
0.0556862
0.00225228
8.4256e-05
1.82832e-07
9.02038e-12
4.57912e-18
3.01425e-22
6.86328e-23
7.85393e-24
5.00147e-25
1.71213e-26
2.49814e-28
0.633627
0.937225
0.990409
0.996533
0.996426
0.99149
0.927303
0.558848
0.0926549
0.00235329
4.92238e-06
4.09718e-10
6.70529e-16
2.65007e-22
4.95532e-23
6.58788e-24
5.03824e-25
2.07759e-26
3.68527e-28
0.127766
0.350298
0.7815
0.974239
0.996216
0.996065
0.975801
0.589965
0.0909078
0.00283458
1.01699e-05
2.07058e-09
1.27905e-14
2.29391e-21
1.17418e-22
1.73575e-23
1.54487e-24
7.82172e-26
1.72392e-27
0.00975009
0.0243153
0.135192
0.633399
0.955068
0.995744
0.992422
0.84025
0.263572
0.0198145
0.000237074
2.33531e-07
8.96035e-12
6.6388e-18
1.87282e-22
3.66713e-23
4.22783e-24
2.55187e-25
6.36667e-27
0.000213947
0.000322014
0.00334606
0.0429326
0.174209
0.609969
0.950624
0.957005
0.71019
0.148354
0.00539501
2.02198e-05
3.93203e-09
2.18857e-14
3.06939e-21
5.9384e-23
6.56977e-24
3.93957e-25
1.0162e-26
8.72978e-07
1.06602e-06
1.33916e-05
0.000229762
0.00532019
0.0529795
0.356704
0.891933
0.889522
0.378013
0.0343341
0.000551525
9.42865e-07
7.63139e-11
1.21436e-16
9.74482e-23
7.00842e-24
4.31271e-25
1.17351e-26
2.01554e-10
4.46689e-10
3.30116e-08
2.82261e-06
0.000275045
0.0186859
0.431183
0.922833
0.939656
0.561081
0.0716257
0.00122575
1.54083e-06
7.26966e-11
5.94198e-17
6.35776e-23
5.87379e-24
3.91337e-25
1.07222e-26
3.49206e-12
2.06169e-11
3.64016e-10
1.34e-07
2.04426e-05
0.00405649
0.203507
0.83514
0.938005
0.621478
0.0908775
0.00182622
2.52314e-06
1.00388e-10
4.91741e-17
4.28794e-23
4.75151e-24
3.23814e-25
8.59405e-27
6.91401e-14
2.58484e-10
5.38399e-09
1.72972e-07
1.78524e-05
0.00155757
0.142332
0.820635
0.939656
0.668019
0.100017
0.00176958
1.78984e-06
4.07813e-11
8.33069e-18
3.04763e-23
4.00267e-24
2.48644e-25
5.9043e-27
1.80578e-15
5.07437e-10
1.66205e-07
6.92524e-06
0.000506562
0.00401737
0.177935
0.839077
0.924676
0.479368
0.0482518
0.000571542
2.73618e-07
1.79765e-12
2.15694e-19
7.97882e-23
7.4986e-24
2.98838e-25
4.90604e-27
5.54543e-14
5.47234e-09
3.01262e-06
2.84299e-05
0.00077798
0.0150208
0.192723
0.52355
0.415049
0.10186
0.00496692
2.52632e-05
2.88791e-09
2.23623e-15
8.04179e-21
3.66047e-22
1.3027e-23
2.67007e-25
2.891e-27
1.93992e-10
1.16997e-08
1.47699e-05
0.000555905
0.00337762
0.0147994
0.051752
0.0667368
0.0346785
0.00361033
5.64109e-05
6.6785e-08
6.50626e-13
4.67819e-19
8.08679e-21
3.06863e-22
6.64849e-24
1.0863e-25
1.05804e-27
1.24273e-07
1.09013e-07
5.65648e-05
0.00153816
0.0029495
0.00289519
0.00195812
0.00102647
0.000279077
1.08872e-05
4.48864e-08
4.19545e-12
1.24011e-18
1.25385e-19
3.53213e-21
1.09884e-22
2.89825e-24
6.51129e-26
8.59649e-28
1.49529e-05
6.98315e-06
0.000192125
0.000991836
0.00040597
4.4834e-05
1.59229e-05
1.937e-06
2.40849e-07
3.43812e-09
1.77107e-12
7.60572e-17
2.69287e-20
2.2291e-20
6.29622e-22
2.70484e-23
1.11456e-24
3.72839e-26
6.72015e-28
0.000358573
0.000162014
0.000185274
0.000211548
2.27861e-05
2.17701e-05
2.81557e-05
8.06496e-05
8.87392e-05
8.28493e-06
4.4268e-09
4.69449e-14
6.80057e-20
2.92831e-21
1.22644e-22
8.70069e-24
5.47999e-25
2.36631e-26
4.85376e-28
0.00185773
0.000205301
5.46988e-05
2.13335e-05
2.17701e-05
4.56851e-05
0.000121324
0.000636501
0.00330967
0.003082
2.99882e-05
5.54671e-10
5.75805e-16
4.44041e-22
3.95737e-23
4.09446e-24
3.17532e-25
1.47935e-26
3.03712e-28
0.00254623
0.000209519
2.72471e-05
2.53463e-05
2.67405e-05
0.000530507
0.00825803
0.0256285
0.0525407
0.0208638
0.000618438
3.12846e-07
1.38379e-12
4.5758e-20
2.07976e-23
2.61839e-24
1.96208e-25
8.59485e-27
1.62981e-28
0.000761744
0.00130536
0.000123744
0.000137004
0.000409171
0.0228657
0.348905
0.441775
0.204135
0.0221235
0.000332127
2.37139e-07
2.2795e-12
9.85867e-20
2.14424e-23
2.30811e-24
1.31547e-25
4.65687e-27
7.59618e-29
0.000664046
0.00620453
0.00228836
0.00501799
0.0852506
0.470664
0.540746
0.520926
0.15686
0.0103259
7.3179e-05
2.35729e-08
1.33096e-13
4.64764e-21
5.318e-23
3.08114e-24
9.8332e-26
2.33371e-27
3.01068e-29
0.000326486
0.00626259
0.0155914
0.0574696
0.405087
0.527396
0.492838
0.212173
0.0312939
0.000962459
2.07085e-06
1.15908e-10
1.28505e-16
3.5762e-21
1.09373e-22
1.96696e-24
4.50773e-26
8.52442e-28
9.44369e-30
4.17438e-05
0.00189224
0.0187423
0.0734406
0.210906
0.222595
0.115952
0.0186556
0.000807947
8.1252e-06
2.72156e-09
1.11398e-14
1.26766e-18
1.41198e-20
1.13201e-22
7.43222e-25
1.30833e-26
2.25887e-28
2.28759e-30
1.68425e-06
0.000198915
0.00475949
0.0212905
0.0248859
0.0165889
0.00375938
0.000140901
1.52277e-06
3.33801e-09
7.04478e-14
2.47407e-19
3.12938e-19
2.07469e-21
1.4824e-23
1.58933e-25
2.91544e-27
4.90919e-29
4.63192e-31
3.43128e-10
5.40552e-07
4.95163e-05
0.000458782
0.00033079
0.000161015
8.23135e-06
5.6238e-08
1.1938e-10
3.23933e-14
1.02322e-19
1.35656e-19
4.12892e-20
2.09888e-22
2.10982e-24
3.09579e-26
5.80095e-28
9.43613e-30
8.50863e-32
1.29706e-16
1.00034e-11
8.36444e-09
1.93563e-07
2.32714e-07
8.001e-08
6.56407e-10
6.12747e-13
2.08962e-16
8.6545e-19
5.31832e-20
5.29271e-20
3.76919e-21
2.35618e-23
3.5117e-25
5.73308e-27
1.05401e-28
1.65086e-30
1.42594e-32
5.25063e-19
2.72722e-18
3.65784e-15
7.81058e-13
4.00914e-12
8.98679e-13
1.07657e-15
2.67744e-19
3.73164e-19
6.05731e-19
2.60638e-20
1.40092e-20
3.18756e-22
3.27415e-24
5.90112e-26
9.94902e-28
1.77022e-29
2.66197e-31
2.18352e-33
9.06421e-23
3.29659e-22
1.38942e-21
3.19941e-20
8.84692e-19
1.14855e-19
3.64053e-20
9.4727e-20
2.43641e-19
3.35825e-19
8.76309e-21
2.76055e-21
3.44972e-23
4.85141e-25
9.30008e-27
1.56405e-28
2.76229e-30
3.98249e-32
3.07207e-34
1.69806e-23
7.91225e-23
3.01261e-22
9.31732e-22
2.55398e-21
6.92416e-21
2.00761e-20
5.11404e-20
1.14185e-19
9.83176e-20
2.43084e-21
4.00424e-22
4.52685e-24
6.85266e-26
1.31689e-27
2.27616e-29
4.03195e-31
5.48341e-33
3.99912e-35
2.0482e-24
1.21435e-23
6.15701e-23
2.56563e-22
8.42123e-22
2.43257e-21
6.63269e-21
1.65553e-20
3.30772e-20
2.7614e-20
4.81545e-22
3.95419e-23
6.23119e-25
8.97552e-27
1.6785e-28
3.11021e-30
5.45972e-32
6.9736e-34
4.82636e-36
1.83249e-25
1.34864e-24
8.72134e-24
4.39685e-23
1.68379e-22
5.33845e-22
1.52526e-21
3.89718e-21
7.39607e-21
6.18819e-21
8.0268e-23
3.89303e-24
6.49302e-26
1.147e-27
1.72176e-29
4.11444e-31
6.87674e-33
8.2384e-35
5.42387e-37
1.28762e-26
1.16107e-25
9.39294e-25
5.57317e-24
2.45054e-23
8.59546e-23
2.64257e-22
7.1169e-22
1.33771e-21
1.12491e-21
1.1291e-23
3.56369e-25
6.74846e-27
1.25762e-28
1.88527e-30
4.30623e-32
7.99528e-34
8.86763e-36
5.7245e-38
7.47545e-28
8.38512e-27
8.02643e-26
5.53563e-25
2.78974e-24
1.09062e-23
3.63678e-23
1.03569e-22
1.98593e-22
1.68616e-22
1.36696e-24
3.16684e-26
6.606e-28
1.28988e-29
1.94893e-31
4.56981e-33
7.97138e-35
8.98325e-37
5.34347e-39
3.52939e-29
4.93454e-28
5.5403e-27
4.46905e-26
2.58628e-25
1.13068e-24
4.10302e-24
1.24002e-23
2.47259e-23
2.1391e-23
1.46271e-25
2.75317e-27
6.05547e-29
1.23126e-30
1.85205e-32
4.42709e-34
7.40608e-36
8.43887e-38
4.62262e-40
1.35769e-30
2.36251e-29
3.15156e-28
3.0119e-27
2.00057e-26
9.83503e-26
3.89316e-25
1.25364e-24
2.62827e-24
2.34107e-24
1.395e-26
2.32775e-28
5.22011e-30
1.08402e-31
1.62024e-33
3.92967e-35
6.46431e-37
7.3426e-39
3.73038e-41
3.83373e-32
8.79535e-31
1.48108e-29
1.70189e-28
1.31303e-27
7.30657e-27
3.17051e-26
1.09354e-25
2.42625e-25
2.23935e-25
1.19569e-27
1.86661e-29
4.19225e-31
8.83932e-33
1.32236e-34
3.24333e-36
5.28709e-38
5.93823e-40
2.81671e-42
8.95584e-34
2.74012e-32
5.98931e-31
8.25414e-30
7.49554e-29
4.7317e-28
2.26196e-27
8.39792e-27
1.97828e-26
1.8961e-26
9.31923e-29
1.39937e-30
3.14189e-32
6.71776e-34
1.01449e-35
2.50582e-37
4.06111e-39
4.48212e-41
1.99637e-43
1.2617e-35
6.34032e-34
1.97234e-32
3.38952e-31
3.71713e-30
2.68541e-29
1.42737e-28
5.75329e-28
1.44478e-27
1.43661e-27
6.65583e-30
9.76273e-32
2.20785e-33
4.79512e-35
7.37452e-37
1.82784e-38
2.9369e-40
3.17385e-42
1.33461e-44
1.73118e-37
1.29251e-35
5.55648e-34
1.20728e-32
1.62606e-31
1.35638e-30
8.09808e-30
3.57491e-29
9.59656e-29
9.83094e-29
4.38581e-31
6.36394e-33
1.46622e-34
3.24401e-36
5.11377e-38
1.26791e-39
2.00858e-41
2.11938e-43
8.46088e-46
6.68371e-40
1.50366e-37
1.15472e-35
3.56858e-34
6.28132e-33
6.19943e-32
4.20418e-31
2.05209e-30
5.90057e-30
6.1508e-30
2.69195e-32
3.91386e-34
9.2822e-36
2.09318e-37
3.39321e-39
8.39551e-41
1.30457e-42
1.33939e-44
5.1055e-47
)
;

boundaryField
{
    leftWall
    {
        type            zeroGradient;
    }
    rightWall
    {
        type            zeroGradient;
    }
    lowerWall
    {
        type            zeroGradient;
    }
    atmosphere
    {
        type            inletOutlet;
        inletValue      uniform 0;
        value           nonuniform List<scalar> 
46
(
0
0
0
0
0
0
0
0
0
0
0
0
0
0
0
0
0
0
0
0
0
0
0
0
0
0
0
0
1.50366e-37
1.15472e-35
3.56858e-34
6.28132e-33
6.19943e-32
4.20418e-31
2.05209e-30
5.90057e-30
6.1508e-30
2.69195e-32
3.91386e-34
9.2822e-36
2.09318e-37
3.39321e-39
8.39551e-41
1.30457e-42
1.33939e-44
5.1055e-47
)
;
    }
    defaultFaces
    {
        type            empty;
    }
}


// ************************************************************************* //
