/*--------------------------------*- C++ -*----------------------------------*\
| =========                 |                                                 |
| \\      /  F ield         | foam-extend: Open Source CFD                    |
|  \\    /   O peration     | Version:     4.1                                |
|   \\  /    A nd           | Web:         http://www.foam-extend.org         |
|    \\/     M anipulation  |                                                 |
\*---------------------------------------------------------------------------*/
FoamFile
{
    version     2.0;
    format      ascii;
    class       volScalarField;
    location    "0.25";
    object      p;
}
// * * * * * * * * * * * * * * * * * * * * * * * * * * * * * * * * * * * * * //

dimensions      [1 -1 -2 0 0 0 0];

internalField   nonuniform List<scalar> 
2268
(
1287.61
1286.8
1283.18
1271.28
1268.66
1249.82
1242.18
1227.34
1203.42
1216.15
1176
1296.18
1225.27
1230.18
1232.71
1246.91
1265.68
1290.63
1339.96
1404.12
1481.31
1556.15
1604.33
1228.44
1227.63
1223.83
1212.27
1209.4
1190.13
1183.22
1167.45
1143.91
1165.72
1105.19
1221.14
1165.21
1168.84
1171.21
1185.86
1207.15
1234.06
1276.82
1334.97
1419.77
1489.47
1542.59
1168.92
1168.12
1164.09
1153.36
1149.38
1130.52
1123.26
1106.78
1083.62
1084.76
1090.75
1127.21
1095.85
1103.49
1105.69
1118.75
1140.16
1174.45
1218.32
1265.23
1343.2
1415.33
1455.5
1109.16
1108.33
1103.79
1094.09
1089
1069.58
1064.31
1043.55
1022.09
1066.9
1019.66
1045.33
1031.85
1037.85
1040.03
1055.36
1076.53
1107.95
1148.32
1195.85
1268.76
1337.81
1358.26
1048.96
1048.16
1043.28
1034.59
1028.76
1009.15
1003.26
991.973
956.709
996.591
961.938
973.551
963.804
970.729
973.766
988.187
1008.86
1037.98
1083.92
1129.36
1189.26
1247.6
1247.76
988.648
987.762
982.089
974.649
967.078
949.106
937.718
917.909
926.969
927.532
901.996
902.617
895.401
900.756
905.437
919.821
937.509
967.312
1010.71
1053.75
1109.69
1159.36
1094.61
927.702
926.951
920.887
914.596
906.816
884.183
890.603
851.064
866.094
857.337
839.954
834.668
826.883
827.981
836.296
850.27
863.018
884.177
939.098
970.423
1022.74
1049.76
883.199
867.029
866.084
858.948
850.964
842.625
830.868
812.269
806.395
799.184
789.44
775.605
765.117
756.13
755.709
760.295
777.532
789.843
810.379
851.577
888.49
936.084
863.235
703.098
10.3515
10.3875
10.2857
10.2679
10.2372
10.2084
10.1883
10.175
10.1608
10.1559
10.1432
10.1386
10.1109
10.1025
10.0452
10.032
9.95819
9.9476
9.93105
10.2883
10.3344
10.2237
10.2067
10.1789
10.1489
10.1263
10.1141
10.1003
10.0963
10.0846
10.0819
10.0524
10.0487
9.98632
9.96416
9.89999
9.88729
9.87075
10.213
10.28
10.148
10.1442
10.1207
10.0795
10.0631
10.0499
10.0381
10.0359
10.0248
10.0185
9.99403
9.9954
9.91608
9.90512
9.83945
9.82534
9.80871
10.1189
10.2309
10.0669
10.0755
10.0517
10.02
9.99864
9.98168
9.97384
9.97416
9.96779
9.96253
9.93472
9.94007
9.84473
9.8492
9.77626
9.76181
9.7452
10.037
10.1756
9.95705
9.99028
9.98039
9.94954
9.92053
9.91728
9.90892
9.91466
9.90405
9.91413
9.86969
9.87713
9.80826
9.76661
9.71501
9.69643
9.67963
9.71006
10.0072
9.71997
9.85422
9.95053
9.87395
9.85018
9.84614
9.83896
9.84135
9.86433
9.84808
9.82094
9.82086
9.72871
9.70708
9.65158
9.62981
9.6126
8.80041
9.34883
9.45226
9.85595
9.87503
9.79446
9.76713
9.76617
9.76954
9.80471
9.79812
9.80106
9.77014
9.76447
9.67295
9.63978
9.5858
9.56133
9.54356
9.01364
7.83715
9.07827
9.72638
9.82079
9.70481
9.66742
9.67249
9.69109
9.72358
9.74238
9.73911
9.71448
9.70388
9.60851
9.57272
9.51889
9.49134
9.4727
770.081
770.019
759.181
767.926
751.39
704.566
738.833
703.553
698.618
683.597
669.015
654.251
644.551
638.252
644.766
655.947
660.266
683.284
737.647
710.359
821.3
454.522
406.959
640.265
638.272
629.194
609.876
622.621
598.331
595.213
577.754
563.833
541.754
515.499
493.672
471.243
490.342
471.651
515.512
466.287
540.921
627.087
340.202
428.679
276.099
539.693
505.855
502.321
497.511
486.135
486.03
467.423
465.737
444.619
429.332
398.411
367.798
324.028
299.386
273.934
300.265
295.867
268.251
253.711
273.521
208.361
310.421
260.475
459.084
366.583
363.69
361.619
352.028
351.13
338.474
332.601
318.638
295.875
256.787
210.075
153.986
119.24
141.828
104.493
43.9846
40.6343
40.1913
56.1229
103.137
131.704
144.215
160.85
226.688
224.228
222.868
215.81
216.058
205.195
204.344
192.086
169.666
125.681
62.1129
23.0543
13.2187
10.2992
7.01152
1.0382
-0.436733
0.722731
-0.00451756
11.1339
3.89606
28.8366
30.2364
92.7344
91.1937
90.7715
87.89
88.6495
85.0665
88.0493
84.2468
70.8336
32.3077
4.36027
0.209663
-0.511164
-2.83888
-2.69031
-2.49972
-2.25234
-2.0802
-2.20102
-2.00958
-2.04124
-2.20767
-5.36214
13.563
13.0585
13.2791
12.0599
13.1606
13.3646
15.2338
22.6023
15.2468
0.688055
-1.12868
-1.97451
-1.69642
-2.6184
-2.83696
-2.68931
-2.60423
-2.6036
-3.02053
-3.11599
-3.26571
-3.23374
-3.66754
-2.25164
-2.15665
-2.17581
-2.20801
-2.1089
-1.99678
-1.97284
-1.84907
-2.63831
-2.66012
-2.25231
-2.4483
-2.35526
-2.57165
-2.96962
-3.18351
-3.147
-3.01607
-3.36457
-3.62379
-3.68806
-3.8903
-3.7073
-2.76772
-2.75118
-2.73939
-2.75559
-2.75731
-2.7859
-2.82405
-2.86425
-2.82703
-2.99557
-2.65078
-2.76606
-2.90352
-3.00258
-3.57409
-4.06845
-4.04947
-3.64444
-3.46176
-3.58562
-3.50139
-5.06884
-5.57113
-2.92943
-2.92353
-2.9098
-2.92623
-2.9068
-2.91507
-2.90471
-2.92785
-2.83321
-3.10572
-2.86248
-3.14071
-3.14243
-3.25092
-4.38066
-4.6993
-4.85117
-4.4112
-4.67993
-4.01858
-4.65193
-5.03393
-4.8822
-3.08811
-3.09955
-3.06354
-3.09639
-3.09524
-3.1608
-3.11074
-2.99833
-2.91758
-2.97011
-2.82524
-3.24279
-3.44309
-3.80494
-4.82359
-4.81725
-4.95373
-4.82054
-4.7158
-4.61928
-4.72642
-5.40223
-5.59153
-3.25814
-3.25344
-3.27956
-3.29594
-3.30375
-3.30724
-3.25887
-3.35238
-3.33321
-3.34714
-3.7169
-3.67997
-3.85753
-4.21555
-4.80644
-5.14906
-4.92074
-4.87454
-4.87056
-4.9332
-5.28834
-5.37777
-5.4381
-3.41537
-3.42254
-3.46966
-3.47631
-3.44313
-3.47824
-3.52044
-3.62505
-3.76557
-4.1226
-3.91341
-3.94664
-4.13155
-4.35177
-4.63593
-4.62502
-4.88851
-5.05445
-5.16809
-5.15939
-5.16726
-5.56815
-5.46473
-3.56635
-3.57191
-3.58916
-3.58473
-3.62989
-3.65034
-3.78069
-3.93037
-4.16161
-4.16353
-4.14166
-4.15821
-4.37853
-4.8318
-4.72581
-4.8589
-4.94053
-5.07007
-5.25276
-5.39647
-5.68957
-5.74622
-5.98545
-3.72925
-3.73401
-3.73957
-3.76098
-3.76702
-3.84792
-3.90424
-4.03821
-3.93003
-4.46817
-4.46299
-4.69327
-4.67804
-4.71311
-4.86972
-5.27337
-5.08269
-5.50743
-5.23661
-5.43348
-5.73538
-5.96646
-6.2938
-3.9248
-3.92777
-3.93142
-3.94721
-3.97318
-4.04201
-4.06484
-4.13273
-4.15618
-4.14419
-4.48933
-4.63567
-4.8087
-4.98186
-5.20329
-5.36916
-5.41142
-5.50176
-5.54877
-5.6973
-6.01183
-6.40379
-6.8277
-4.05457
-4.07203
-4.09069
-4.08183
-4.05284
-4.13912
-4.22791
-4.29447
-4.32097
-4.40456
-4.63364
-4.77073
-4.93755
-5.04964
-5.22187
-5.04527
-5.4316
-5.71478
-5.7748
-5.93596
-6.25591
-6.69477
-7.23518
-4.04157
-4.08674
-4.15353
-4.16897
-4.40529
-4.18749
-4.31004
-4.41209
-4.45651
-4.56689
-4.76618
-4.95362
-5.09817
-5.19179
-5.19923
-5.14772
-5.47221
-5.50411
-5.77482
-6.14098
-6.51148
-6.91377
-7.77979
-4.71061
-4.73583
-4.35233
-4.82101
-4.70762
-4.87934
-4.87238
-4.6099
-4.78015
-4.9172
-4.96317
-5.20432
-5.2516
-5.27472
-5.1777
-5.60764
-5.75134
-5.78656
-6.03048
-6.24535
-6.75897
-7.53544
-7.9384
-4.87834
-4.90263
-5.07027
-4.9507
-4.98504
-5.07277
-5.02495
-5.2768
-5.15158
-5.14002
-5.15122
-5.4015
-5.09765
-5.78343
-5.83775
-5.86553
-5.87845
-5.96356
-6.11482
-6.36995
-6.92901
-7.73022
-8.66418
-5.0378
-5.04948
-5.08253
-5.09535
-5.14117
-5.17666
-5.24217
-5.57036
-5.28814
-5.19711
-5.37446
-5.54326
-5.78004
-5.79632
-5.9266
-6.01214
-6.08592
-6.15676
-6.25126
-6.53949
-7.06599
-7.9032
-8.85969
-5.13263
-5.13725
-5.19843
-5.28623
-5.40016
-5.30669
-5.4792
-5.24173
-5.37658
-5.69132
-5.53525
-5.67903
-5.77338
-5.88268
-6.05141
-6.04716
-6.30003
-6.30424
-6.35026
-6.71441
-7.22764
-8.13436
-8.98864
-5.23734
-5.23179
-5.25647
-5.40121
-5.04763
-5.42912
-5.1179
-5.23823
-5.38676
-5.57733
-5.60723
-5.73387
-5.82221
-5.98636
-6.09936
-5.81083
-6.27155
-6.40873
-7.06517
-6.90941
-7.40026
-7.93875
-9.03898
-5.3821
-5.38591
-5.41388
-5.08614
-5.15602
-5.08638
-5.16215
-5.19454
-5.32902
-5.55688
-5.66378
-5.76814
-5.85854
-6.01838
-5.81862
-6.38534
-6.11572
-6.45436
-6.90417
-6.93466
-7.29373
-7.78741
-8.76903
-5.00652
-4.99464
-5.0154
-5.15486
-5.178
-5.19833
-5.24098
-5.61897
-5.81506
-5.74938
-5.8015
-5.84903
-5.98635
-6.13981
-6.13159
-6.32101
-6.1348
-6.56672
-6.86195
-6.91881
-7.09073
-7.92903
-9.56762
-5.14335
-5.13883
-5.12515
-5.11072
-5.1362
-5.26003
-5.71707
-5.77264
-5.72774
-5.76947
-5.8068
-5.84929
-5.94368
-5.76378
-6.22175
-6.4933
-6.73787
-6.71816
-6.75624
-6.90888
-7.51304
-8.34506
-9.06698
-5.21376
-5.17954
-5.27775
-5.58092
-5.72201
-5.83628
-5.82489
-5.7562
-5.80098
-5.82788
-5.8663
-5.9011
-5.96548
-6.00074
-6.04542
-5.9938
-6.50115
-6.49715
-6.31313
-7.29186
-7.46412
-7.99998
-8.70701
-5.76932
-5.79463
-5.89009
-5.79635
-5.75852
-5.82388
-5.79852
-5.81686
-5.83678
-5.8692
-5.90019
-5.93913
-5.98617
-6.00234
-6.05122
-6.2322
-6.4676
-6.50224
-6.73541
-6.82414
-7.16954
-8.14831
-8.23753
-5.74051
-5.75498
-5.79806
-5.79157
-5.81955
-5.87248
-5.80579
-5.84948
-5.85866
-5.89044
-5.91018
-5.94111
-5.96175
-5.98058
-6.08587
-6.22535
-5.98606
-6.81904
-6.57867
-6.84408
-6.98671
-7.59069
-7.67874
-5.811
-5.824
-5.84302
-5.84207
-5.87652
-5.82085
-5.84148
-5.86603
-5.87305
-5.88491
-5.9016
-5.92815
-5.89309
-5.94609
-6.11349
-6.17545
-6.22598
-6.41708
-6.16489
-6.72547
-6.50876
-7.08338
-7.17791
-5.85557
-5.86764
-5.85814
-5.89788
-5.85413
-5.86489
-5.88064
-5.89676
-5.90741
-5.92259
-5.94585
-5.99384
-6.00325
-6.26611
-6.1257
-6.12347
-6.14065
-6.01056
-6.41444
-6.33944
-6.64869
-6.59773
-6.49445
-5.89289
-5.8926
-5.89129
-5.87625
-5.8835
-5.89582
-5.90387
-5.91654
-5.92857
-5.94798
-5.96209
-5.98757
-5.99778
-6.07329
-6.0427
-6.04493
-6.05424
-6.10138
-6.25917
-6.30199
-6.22121
-6.39583
-6.4954
-5.89878
-5.89598
-5.9003
-5.89467
-5.90707
-5.91194
-5.9195
-5.92821
-5.93716
-5.95327
-5.96306
-5.98088
-5.98912
-6.02739
-6.00497
-6.00549
-6.016
-6.0443
-6.10348
-5.88793
-5.74211
-6.0699
-6.19952
-5.91496
-5.9157
-5.9199
-5.91813
-5.92044
-5.92383
-5.92725
-5.93227
-5.93922
-5.94704
-5.9552
-5.96603
-5.97381
-5.98823
-5.96829
-5.95725
-5.95844
-5.97525
-5.82242
-5.97769
-5.88529
-6.10105
-6.19497
-5.92981
-5.92963
-5.92937
-5.92884
-5.93061
-5.93271
-5.93505
-5.93892
-5.94245
-5.9473
-5.94946
-5.95307
-5.95189
-5.9563
-5.94318
-5.9278
-5.90728
-5.88778
-5.84681
-5.81302
-5.84008
-5.86728
-5.77871
-5.93702
-5.93728
-5.9385
-5.93964
-5.94031
-5.94321
-5.94313
-5.94572
-5.94496
-5.94728
-5.94514
-5.94527
-5.93904
-5.93843
-5.922
-5.89757
-5.87974
-5.8568
-5.82384
-5.81885
-5.95309
-5.65003
-5.72132
-5.94893
-5.94892
-5.94956
-5.94941
-5.95007
-5.95027
-5.95023
-5.94987
-5.94826
-5.94699
-5.94252
-5.94043
-5.93144
-5.9286
-5.91212
-5.88524
-5.86507
-5.84322
-5.84754
-5.82964
-5.79611
-5.7089
-5.5127
-5.96063
-5.96121
-5.96138
-5.96132
-5.96118
-5.96022
-5.95936
-5.95722
-5.95497
-5.95204
-5.94645
-5.94498
-5.93233
-5.9254
-5.90206
-5.86297
-5.84285
-5.80848
-5.823
-5.65025
-5.71197
-5.65907
-5.66487
-5.97281
-5.9723
-5.97128
-5.97016
-5.96834
-5.96717
-5.96478
-5.96323
-5.95972
-5.95705
-5.95007
-5.94882
-5.93441
-5.93218
-5.90109
-5.86811
-5.8463
-5.80919
-5.78633
-5.72809
-5.7377
-5.70039
-5.6742
-6.00236
-6.00162
-6.00026
-5.99832
-5.99602
-5.99343
-5.99011
-5.98673
-5.98183
-5.97693
-5.96944
-5.95883
-5.94506
-5.93599
-5.90405
-5.86488
-5.84857
-5.81502
-5.78918
-5.74088
-5.70856
-5.70349
-5.62935
-6.03214
-6.03197
-6.03076
-6.02907
-6.02692
-6.02446
-6.02158
-6.01876
-6.01567
-6.01365
-6.01115
-6.00795
-5.99819
-5.97164
-5.91389
-5.84791
-5.83492
-5.80952
-5.79244
-5.78122
-5.79995
-5.82651
-5.70951
-5.80679
-5.80684
-5.8062
-5.80569
-5.804
-5.80239
-5.80059
-5.79849
-5.79787
-5.79739
-5.79967
-5.81036
-5.83786
-5.92757
-6.10665
-6.13067
-6.11871
-6.08044
-6.02408
-5.95883
-5.83401
-5.75344
-5.80542
-129.635
-328.378
-123.161
-5.52963
183.186
72.6859
262.773
294.164
486.694
410.531
183.421
194.427
253.904
166.451
94.9515
74.204
27.6861
35.5762
74.1666
47.5881
8.03226
10.0528
14.0965
12.5747
-3.25894
-2.49582
-1.84769
-1.04537
-4.38322
-4.49811
-4.78841
-5.40131
-4.98314
-5.08067
-5.3729
-5.52502
-5.03679
-5.13221
-5.19135
-5.36092
-5.44948
-5.44287
-5.42067
-5.56138
-5.64374
-5.83532
-6.01726
-6.22887
-6.07621
-6.29908
-6.53149
-6.71135
-6.188
-6.39123
-6.64736
-6.96199
-6.45736
-6.52613
-6.79389
-7.21828
-7.23044
-7.20342
-7.57067
-7.7813
-7.18784
-7.44856
-7.70918
-8.41224
-7.90098
-8.38495
-9.05904
-9.67324
-8.59848
-9.35717
-10.3525
-11.454
-9.3661
-10.0919
-11.1461
-12.3333
-9.84763
-10.8278
-12.058
-12.0261
-10.1775
-11.6164
-12.9345
-13.5772
-10.6587
-12.0835
-13.0404
-14.0128
-10.2307
-11.347
-12.2789
-13.1656
-10.2228
-10.5801
-11.6286
-12.6977
-9.78355
-10.6876
-11.5535
-12.1721
-9.30776
-9.6796
-10.3052
-10.7206
-8.57871
-8.85208
-9.19877
-9.45774
-7.88696
-8.00505
-8.17861
-8.29399
-7.2775
-7.36205
-7.46905
-7.54117
-6.69397
-6.78126
-6.85239
-6.89634
-6.50761
-6.50502
-6.50711
-6.48444
-6.22815
-6.18756
-6.17091
-6.13221
-5.95845
-5.88943
-5.91365
-5.8894
-5.83632
-5.89642
-5.85456
-5.74933
-5.88783
-5.76991
-5.6994
-5.67336
-5.66032
-5.78601
-5.6929
-5.63211
-5.70731
-5.65091
-5.62219
-5.60802
-5.61718
-5.67231
-5.62068
-5.58636
-5.6671
-5.62912
-5.64368
-5.57666
-5.64865
-5.6504
-5.64156
-5.65164
-5.7728
-5.76093
-5.74404
-5.71537
0.930796
5.96857
8.64711
9.64056
9.72029
9.57692
9.53124
9.54876
9.59528
9.65084
9.67632
9.67982
9.64636
9.58286
9.52107
9.46652
9.4109
9.37833
9.35819
267.527
-53.7929
-12.3081
9.15255
9.81025
9.29203
9.27104
9.25871
9.36341
9.3828
9.53498
9.56364
9.56078
9.45342
9.39127
9.32188
9.2572
9.21674
9.19342
63.1565
294.436
-211.983
-38.6155
7.54995
8.81476
8.56363
8.72965
9.09206
9.32687
9.37441
9.553
9.44876
9.36057
9.25607
9.16947
9.09255
9.04278
9.01556
12.3131
155.865
-207.693
-197.819
-22.2688
-4.62523
6.92625
9.17854
9.23427
9.10046
9.3598
9.43247
9.38002
9.24538
9.12187
9.00838
8.91598
8.85472
8.82265
30.3067
190.669
-264.481
-598.798
-62.4158
-189.86
-18.8869
8.7709
9.22036
8.72007
9.46843
9.37623
9.30477
9.13771
8.97245
8.8313
8.72066
8.64772
8.61047
21.739
-304.235
7.20814
319.868
-227.865
-583.409
18.8948
0.297319
9.85601
9.17926
9.41326
9.32448
9.2356
9.01653
8.80708
8.6339
8.50359
8.41832
8.37574
-2.70993
-0.709409
70.6537
-110.374
-223.179
-161.789
-9.74578
-29.7202
20.1824
13.3328
9.64586
9.3476
9.19547
8.86811
8.60736
8.4042
8.2562
8.16085
8.11386
-5.58046
-5.47753
0.952462
2.84218
-30.8555
-156.781
-194.496
255.097
46.547
13.6552
9.19168
9.25253
9.11886
8.67523
8.36776
8.13782
7.975
7.87184
7.82154
-6.02896
-6.27684
-6.22037
-5.7009
1.44121
19.788
144.872
508.506
65.5067
9.23271
8.16413
8.8924
8.80584
8.35365
8.04691
7.81466
7.65033
7.54622
7.4955
-5.85464
-6.17934
-6.71861
-7.18185
-6.62813
-2.68878
54.7482
415.673
-29.3181
-45.2815
3.21713
8.27344
8.58491
7.95168
7.68258
7.4459
7.28507
7.18395
7.13475
-5.91494
-5.86329
-6.77603
-6.98307
-6.31017
-6.00399
10.6301
83.1827
137.569
-37.2467
6.66657
8.31503
7.8005
7.45043
7.23851
7.01768
6.87308
6.78337
6.7396
-6.56708
-7.30554
-6.69762
-6.81851
-6.39047
-5.56295
1.17514
115.765
360.42
-11.1214
4.55912
7.57898
7.2922
6.91502
6.71525
6.54097
6.42119
6.34844
6.31261
-7.1997
-6.67284
-6.95522
-7.25521
-7.2317
-8.64452
-17.9993
46.7839
56.9196
94.9179
5.31653
5.70951
6.45273
6.24416
6.11158
6.00957
5.93025
5.88284
5.85865
-7.53571
-7.86567
-7.96272
-7.86971
-8.30618
-10.9226
-15.5671
22.2518
15.619
32.2562
5.65727
3.99632
5.33625
5.4396
5.43956
5.43961
5.41184
5.39566
5.38501
-7.88948
-8.85717
-8.82196
-9.05627
-8.49993
-8.1423
-26.2487
39.6344
38.6554
6.08875
0.380563
2.46137
4.17849
4.60624
4.75641
4.84648
4.87517
4.89396
4.89835
-8.12254
-9.60679
-9.25584
-9.04761
-9.36317
-8.09783
-3.87561
-3.01462
-4.17204
-3.49143
-0.823062
1.48502
3.09469
3.76671
4.08132
4.26525
4.34389
4.39478
4.41252
-9.26404
-10.1523
-9.87425
-9.94929
-10.1456
-10.8988
-10.684
-7.68488
-5.30291
-3.5246
-1.36659
0.797953
2.41917
3.09386
3.48769
3.70407
3.81993
3.89732
3.92601
-11.1264
-10.3771
-10.4786
-9.58484
-8.70982
-9.72312
-10.6563
-8.77382
-5.85624
-3.24667
-1.54375
0.582203
1.97077
2.68709
2.97547
3.19527
3.32642
3.405
3.43647
-13.5537
-13.5464
-12.6487
-11.3037
-10.1166
-11.0884
-11.0031
-9.81963
-7.49123
-3.86992
-1.77971
0.470398
1.6663
2.29594
2.56051
2.79166
2.88493
2.95667
2.98839
-15.1693
-15.1344
-14.3588
-12.8627
-10.8699
-11.0974
-12.9789
-13.2484
-12.9186
-4.66393
-1.58066
0.535884
1.48164
1.96665
2.17457
2.38963
2.46374
2.53098
2.56249
-14.1249
-14.741
-15.3874
-13.5648
-9.6757
-10.4691
-12.3735
-18.4382
-19.3957
-2.16382
-0.491542
1.02355
1.377
1.68058
1.87824
1.996
2.07841
2.13548
2.16308
-14.3078
-15.3191
-13.537
-15.2568
-2.591
-11.725
-75.5026
-49.0768
5.42823
1.52762
0.729544
1.33689
1.39915
1.49952
1.60342
1.66547
1.72671
1.76652
1.78843
-15.0291
-16.056
-12.6705
-16.3785
-15.0326
-30.7752
5.69203
22.7702
13.6521
1.72592
1.1289
1.36199
1.30173
1.2761
1.3137
1.31565
1.38094
1.41451
1.43214
-14.1387
-17.3846
-17.4428
-37.1414
19.1604
81.5282
34.3691
26.5853
1.75459
0.294057
1.11692
1.09246
1.0638
0.978898
0.992729
1.00039
1.04963
1.07323
1.08989
-14.2417
-15.486
-14.6559
-19.5044
16.7986
29.8943
5.97747
-0.846882
-0.76725
0.136269
0.55921
0.64264
0.661116
0.675246
0.71736
0.745753
0.73085
0.744131
0.757418
-13.132
-14.7187
-16.2279
-13.3713
-7.79091
-5.84576
-3.5297
-1.58998
-0.884699
-0.269925
0.195858
0.262211
0.309261
0.349544
0.368323
0.380909
0.404351
0.415395
0.43491
-11.3167
-12.638
-13.8617
-12.3112
-8.33399
-5.90987
-3.59431
-1.8753
-0.955818
-0.619617
-0.159867
-0.117994
-0.026179
0.0267979
0.0487026
0.0363879
0.0752338
0.0880568
0.0981701
-9.82548
-10.5343
-10.8877
-9.6308
-7.30865
-5.47103
-3.76526
-1.99221
-1.13631
-0.754766
-0.526342
-0.468593
-0.349857
-0.311513
-0.276607
-0.246457
-0.26133
-0.2561
-0.261869
-8.43471
-8.68111
-8.88341
-8.06755
-6.36014
-5.13832
-3.76484
-2.17949
-1.75744
-1.18267
-0.898662
-0.780463
-0.654258
-0.682907
-0.635737
-0.597355
-0.615386
-0.593442
-0.584096
-7.57571
-7.54834
-7.44777
-7.00094
-6.18792
-4.79304
-3.6535
-2.52234
-1.96587
-1.46463
-1.22487
-1.18181
-1.04521
-1.04433
-0.996483
-0.987386
-0.976952
-0.894124
-0.867796
-6.87263
-6.78793
-6.55228
-6.10196
-5.626
-5.11135
-4.49739
-3.38532
-2.71339
-2.28528
-1.74393
-1.41006
-1.48213
-1.43128
-1.34843
-1.35088
-1.31325
-1.19743
-1.20529
-6.40894
-6.25224
-6.01496
-5.66261
-5.226
-4.78522
-4.4943
-4.15276
-3.65496
-3.24258
-2.95663
-2.46078
-1.93515
-1.78017
-1.52898
-1.65472
-1.61937
-1.57144
-1.60931
-6.061
-5.88789
-5.65976
-5.36901
-5.04179
-4.68619
-4.34434
-4.06928
-3.73895
-3.40871
-3.25808
-3.16123
-2.89462
-2.38788
-2.54646
-1.98889
-1.9698
-1.82886
-1.93937
-5.81561
-5.65951
-5.45548
-5.21618
-4.95192
-4.68453
-4.42434
-4.13634
-3.88503
-3.62604
-3.46911
-3.34676
-3.26933
-3.25771
-3.22156
-3.00537
-2.74246
-2.82713
-2.62181
-5.65881
-5.51259
-5.33418
-5.1364
-4.92417
-4.71153
-4.50115
-4.30081
-4.12352
-3.93173
-3.8062
-3.65728
-3.54779
-3.48184
-3.46547
-3.48996
-3.53252
-3.52074
-3.50265
-5.5703
-5.44685
-5.28615
-5.12616
-4.95467
-4.78735
-4.61998
-4.46349
-4.32447
-4.18421
-4.08296
-3.99675
-3.92095
-3.83154
-3.80418
-3.76208
-3.76727
-3.74765
-3.73744
-5.53286
-5.4105
-5.27349
-5.14396
-5.00735
-4.87953
-4.75211
-4.63708
-4.53369
-4.43468
-4.35189
-4.28633
-4.23637
-4.19662
-4.18139
-4.13886
-4.11301
-4.09857
-4.08774
-5.518
-5.4188
-5.31202
-5.21415
-5.11302
-5.0197
-4.92764
-4.84565
-4.7711
-4.70221
-4.64347
-4.59289
-4.55546
-4.52855
-4.52154
-4.50756
-4.51483
-4.51146
-4.50729
-5.52781
-5.43783
-5.35877
-5.28425
-5.21122
-5.14784
-5.08789
-5.03681
-4.99097
-4.94893
-4.91057
-4.87776
-4.85659
-4.85174
-4.85814
-4.8522
-4.85778
-4.8555
-4.85204
-5.55657
-5.49644
-5.45656
-5.40991
-5.37114
-5.33646
-5.30491
-5.27909
-5.25586
-5.23494
-5.2142
-5.1958
-5.18627
-5.18992
-5.20115
-5.20443
-5.20918
-5.20913
-5.20758
-5.61743
-5.57793
-5.54479
-5.52014
-5.50114
-5.48773
-5.47863
-5.4745
-5.47292
-5.47348
-5.47558
-5.48076
-5.48612
-5.4872
-5.48683
-5.49097
-5.49705
-5.49921
-5.49916
-5.69869
-5.68216
-5.70289
-5.71278
-5.74429
-5.77821
-5.81161
-5.84189
-5.8694
-5.8938
-5.91586
-5.93202
-5.9401
-5.93451
-5.93308
-5.938
-5.94381
-5.94669
-5.94663
)
;

boundaryField
{
    leftWall
    {
        type            calculated;
        value           nonuniform List<scalar> 
50
(
1287.61
1228.44
1168.92
1109.16
1048.96
988.648
927.702
867.029
770.081
640.265
505.855
366.583
226.688
92.7344
13.563
-2.25164
-2.76772
-2.92943
-3.08811
-3.25814
-3.41537
-3.56635
-3.72925
-3.9248
-4.05457
-4.04157
-4.71061
-4.87834
-5.0378
-5.13263
-5.23734
-5.3821
-5.00652
-5.14335
-5.21376
-5.76932
-5.74051
-5.811
-5.85557
-5.89289
-5.89878
-5.91496
-5.92981
-5.93702
-5.94893
-5.96063
-5.97281
-6.00236
-6.03214
-5.80679
)
;
    }
    rightWall
    {
        type            calculated;
        value           nonuniform List<scalar> 
50
(
9.93105
9.87075
9.80871
9.7452
9.67963
9.6126
9.54356
9.4727
9.35819
9.19342
9.01556
8.82265
8.61047
8.37574
8.11386
7.82154
7.4955
7.13475
6.7396
6.31261
5.85865
5.38501
4.89835
4.41252
3.92601
3.43647
2.98839
2.56249
2.16308
1.78843
1.43214
1.08989
0.757418
0.43491
0.0981701
-0.261869
-0.584096
-0.867796
-1.20529
-1.60931
-1.93937
-2.62181
-3.50265
-3.73744
-4.08774
-4.50729
-4.85204
-5.20758
-5.49916
-5.94663
)
;
    }
    lowerWall
    {
        type            calculated;
        value           nonuniform List<scalar> 
62
(
1317.04
1316.23
1312.61
1300.71
1298.09
1279.25
1271.61
1256.77
1232.85
1245.58
1205.43
1325.61
1254.69
1259.61
1262.14
1276.34
1295.11
1320.06
1369.39
1433.55
1510.74
1585.58
1633.71
1604.33
1542.59
1455.5
1358.26
1247.76
1094.61
883.199
703.098
-67.0435
-265.782
-60.565
56.7712
10.3515
10.2883
10.213
10.1189
10.037
9.71006
8.80041
9.01364
10.3809
10.417
10.3151
10.2973
10.2666
10.2379
10.2177
10.2045
10.1902
10.1853
10.1726
10.168
10.1403
10.1319
10.0747
10.0615
9.98762
9.97703
9.96048
)
;
    }
    atmosphere
    {
        type            calculated;
        value           nonuniform List<scalar> 
46
(
-5.95847
-5.95987
-5.95866
-5.95705
-5.95449
-5.9516
-5.94822
-5.94465
-5.94128
-5.93848
-5.93613
-5.93796
-5.94164
-5.96667
-6.00803
-5.99843
-5.98831
-5.95685
-5.91585
-5.87437
-5.83767
-5.81311
-5.79012
-5.76412
-5.75743
-5.751
-5.73855
-5.73006
-5.72904
-5.72904
-5.72904
-5.72904
-5.72904
-5.72904
-5.72904
-5.72904
-5.72904
-5.72904
-5.72904
-5.72904
-5.72904
-5.72904
-5.72904
-5.72904
-5.72904
-5.72904
)
;
    }
    defaultFaces
    {
        type            empty;
    }
}


// ************************************************************************* //
