/*--------------------------------*- C++ -*----------------------------------*\
| =========                 |                                                 |
| \\      /  F ield         | foam-extend: Open Source CFD                    |
|  \\    /   O peration     | Version:     4.1                                |
|   \\  /    A nd           | Web:         http://www.foam-extend.org         |
|    \\/     M anipulation  |                                                 |
\*---------------------------------------------------------------------------*/
FoamFile
{
    version     2.0;
    format      ascii;
    class       surfaceScalarField;
    location    "0.25";
    object      phi_0;
}
// * * * * * * * * * * * * * * * * * * * * * * * * * * * * * * * * * * * * * //

dimensions      [0 3 -1 0 0 0 0];

internalField   nonuniform List<scalar> 
4432
(
3.78273e-06
-3.78273e-06
7.47789e-06
-3.69515e-06
1.20809e-05
-4.60302e-06
1.47851e-05
-2.70421e-06
1.93393e-05
-4.55419e-06
2.34779e-05
-4.13858e-06
2.77488e-05
-4.27091e-06
3.14535e-05
-3.70468e-06
3.32924e-05
-1.83891e-06
3.39102e-05
-6.17843e-07
5.35487e-05
-1.96385e-05
5.84646e-05
-4.91594e-06
6.19262e-05
-3.46156e-06
6.63601e-05
-4.43393e-06
6.86976e-05
-2.33746e-06
6.91285e-05
-4.30889e-07
6.77173e-05
1.41111e-06
6.58942e-05
1.82311e-06
6.26183e-05
3.27595e-06
5.49607e-05
7.65764e-06
4.21684e-05
1.27923e-05
2.52638e-05
1.69046e-05
2.52638e-05
3.81123e-06
-7.59397e-06
7.57273e-06
-7.45665e-06
1.21087e-05
-9.13895e-06
1.482e-05
-5.41558e-06
1.95538e-05
-9.28796e-06
2.37407e-05
-8.32552e-06
2.80003e-05
-8.53048e-06
3.14885e-05
-7.19292e-06
3.34508e-05
-3.80113e-06
3.46153e-05
-1.78239e-06
5.13144e-05
-3.63376e-05
5.69073e-05
-1.05088e-05
6.07247e-05
-7.27892e-06
6.47004e-05
-8.40967e-06
6.67601e-05
-4.39717e-06
6.70726e-05
-7.43405e-07
6.57992e-05
2.68456e-06
6.39018e-05
3.72049e-06
6.13364e-05
5.84134e-06
5.33541e-05
1.564e-05
4.10874e-05
2.50589e-05
2.25081e-05
3.54839e-05
4.77719e-05
3.79117e-06
-1.13851e-05
7.6061e-06
-1.12716e-05
1.20127e-05
-1.35455e-05
1.48751e-05
-8.27798e-06
1.97519e-05
-1.41648e-05
2.37944e-05
-1.2368e-05
2.76113e-05
-1.23474e-05
3.2296e-05
-1.18777e-05
3.34362e-05
-4.94136e-06
5.85305e-05
-2.68767e-05
5.27077e-05
-3.05147e-05
5.66105e-05
-1.44116e-05
5.94723e-05
-1.01408e-05
6.07732e-05
-9.71055e-06
6.22371e-05
-5.86113e-06
6.3959e-05
-2.46529e-06
6.42594e-05
2.38416e-06
6.25328e-05
5.44711e-06
5.98175e-05
8.55668e-06
5.33311e-05
2.21264e-05
4.17359e-05
3.66541e-05
2.73576e-05
4.98622e-05
7.51295e-05
3.79012e-06
-1.51753e-05
7.67875e-06
-1.51602e-05
1.19451e-05
-1.78118e-05
1.54515e-05
-1.17845e-05
2.01258e-05
-1.8839e-05
2.32781e-05
-1.55204e-05
2.84121e-05
-1.74814e-05
3.0704e-05
-1.41695e-05
5.10257e-05
-2.52631e-05
5.11084e-05
-2.69593e-05
4.85591e-05
-2.79655e-05
5.03506e-05
-1.62031e-05
5.18232e-05
-1.16133e-05
5.40588e-05
-1.19461e-05
5.64006e-05
-8.20292e-06
5.79908e-05
-4.0555e-06
5.86092e-05
1.76575e-06
5.8647e-05
5.40929e-06
5.65219e-05
1.06818e-05
4.99532e-05
2.86951e-05
4.12565e-05
4.53508e-05
2.63679e-05
6.47507e-05
0.000101497
3.74086e-06
-1.89161e-05
7.65171e-06
-1.9071e-05
1.19341e-05
-2.20942e-05
1.5807e-05
-1.56573e-05
2.00213e-05
-2.30533e-05
2.30396e-05
-1.85388e-05
2.79889e-05
-2.24307e-05
2.87762e-05
-1.49568e-05
4.41065e-05
-4.05934e-05
4.33174e-05
-2.61702e-05
4.1958e-05
-2.66062e-05
4.50572e-05
-1.93023e-05
4.83882e-05
-1.49444e-05
5.26089e-05
-1.61668e-05
5.57785e-05
-1.13725e-05
5.77442e-05
-6.02116e-06
5.88112e-05
6.98672e-07
5.82205e-05
6e-06
5.71515e-05
1.17509e-05
5.15352e-05
3.43114e-05
4.35615e-05
5.33244e-05
3.34225e-05
7.48898e-05
0.00013492
3.7221e-06
-2.26382e-05
7.73589e-06
-2.30848e-05
1.19013e-05
-2.62596e-05
1.57751e-05
-1.95312e-05
1.98834e-05
-2.71615e-05
2.38653e-05
-2.25207e-05
2.5338e-05
-2.39034e-05
4.07739e-05
-3.03927e-05
3.72673e-05
-3.70868e-05
3.88025e-05
-2.77054e-05
4.03492e-05
-2.81529e-05
4.43278e-05
-2.32809e-05
4.86427e-05
-1.92593e-05
5.3857e-05
-2.13811e-05
5.68049e-05
-1.43204e-05
5.93084e-05
-8.52461e-06
6.09281e-05
-9.21047e-07
6.11826e-05
5.74553e-06
6.09615e-05
1.1972e-05
5.661e-05
3.86629e-05
4.91855e-05
6.07489e-05
3.54195e-05
8.86559e-05
0.000170339
3.6392e-06
-2.62774e-05
7.75997e-06
-2.72056e-05
1.17367e-05
-3.02364e-05
1.54614e-05
-2.32558e-05
1.98238e-05
-3.15239e-05
2.10875e-05
-2.37845e-05
2.10513e-05
-2.38672e-05
3.481e-05
-4.41514e-05
3.51686e-05
-3.74453e-05
3.76694e-05
-3.02062e-05
4.10384e-05
-3.15219e-05
4.5778e-05
-2.80205e-05
5.07149e-05
-2.41961e-05
5.51056e-05
-2.57718e-05
5.73623e-05
-1.65771e-05
6.15773e-05
-1.27397e-05
6.51224e-05
-4.46611e-06
6.50412e-05
5.82674e-06
6.58814e-05
1.11317e-05
5.98601e-05
4.46842e-05
5.76078e-05
6.30012e-05
2.81647e-05
0.000118099
0.000198504
3.74244e-06
-3.00199e-05
7.87818e-06
-3.13414e-05
1.13636e-05
-3.37218e-05
1.47894e-05
-2.66816e-05
1.87276e-05
-3.54621e-05
1.87176e-05
-2.37744e-05
3.31308e-05
-3.82804e-05
3.36244e-05
-4.4645e-05
3.52134e-05
-3.90343e-05
3.88113e-05
-3.38041e-05
4.34186e-05
-3.61292e-05
4.82227e-05
-3.28246e-05
5.221e-05
-2.81834e-05
5.53565e-05
-2.89184e-05
5.84236e-05
-1.96441e-05
6.36845e-05
-1.80005e-05
6.80377e-05
-8.81932e-06
6.93013e-05
4.56306e-06
6.95182e-05
1.09149e-05
6.59553e-05
4.82471e-05
6.53335e-05
6.3623e-05
2.99111e-05
0.000153521
0.000228415
9.99794e-06
-9.99794e-06
2.02761e-05
-1.02781e-05
1.67633e-05
3.5128e-06
1.11939e-05
5.56943e-06
6.90771e-06
4.28632e-06
4.38308e-06
2.52468e-06
4.26146e-06
1.21671e-07
5.39511e-06
-1.13364e-06
7.37285e-06
-1.97769e-06
1.00869e-05
-2.71409e-06
1.29182e-05
-2.83116e-06
1.62527e-05
-3.33471e-06
1.7881e-05
-1.62827e-06
2.1356e-05
-3.47492e-06
2.16017e-05
-2.4586e-07
1.22066e-05
9.39527e-06
8.52128e-06
3.68524e-06
4.21237e-06
4.309e-06
4.21234e-06
1.17478e-05
-2.17457e-05
2.18477e-05
-2.03779e-05
1.80257e-05
7.33492e-06
1.12385e-05
1.23567e-05
6.5031e-06
9.02186e-06
3.57292e-06
5.4549e-06
3.89354e-06
-1.98893e-07
5.65302e-06
-2.89316e-06
7.90929e-06
-4.23381e-06
1.08543e-05
-5.65922e-06
1.41401e-05
-6.11689e-06
1.7668e-05
-6.86277e-06
1.88617e-05
-2.82203e-06
2.31545e-05
-7.76751e-06
1.25033e-05
1.04051e-05
1.26714e-05
9.22736e-06
8.8273e-06
7.52921e-06
4.4238e-06
8.71244e-06
8.63614e-06
1.59575e-05
-3.77033e-05
2.72289e-05
-3.16492e-05
1.93176e-05
1.52463e-05
9.86023e-06
2.18141e-05
3.19994e-06
1.56823e-05
2.73445e-06
5.92038e-06
3.04242e-06
-5.06809e-07
5.01112e-06
-4.86194e-06
7.54528e-06
-6.76784e-06
1.12826e-05
-9.39675e-06
1.50015e-05
-9.83563e-06
1.73643e-05
-9.22567e-06
1.92576e-05
-4.71547e-06
1.35631e-05
-2.07267e-06
1.30208e-05
1.09471e-05
1.26883e-05
9.56003e-06
8.86761e-06
1.13498e-05
4.46845e-06
1.31115e-05
1.31046e-05
2.2945e-05
-6.06483e-05
3.42337e-05
-4.29378e-05
2.27628e-05
2.67173e-05
4.84174e-06
3.97351e-05
1.60313e-06
1.89209e-05
4.78162e-07
7.04532e-06
1.18377e-06
-1.21237e-06
4.07181e-06
-7.75002e-06
6.94536e-06
-9.64125e-06
1.06213e-05
-1.30728e-05
1.52852e-05
-1.44995e-05
1.85097e-05
-1.24502e-05
2.07806e-05
-6.98649e-06
1.47003e-05
4.00789e-06
2.42819e-05
1.3653e-06
1.28885e-05
2.09535e-05
9.22562e-06
1.50126e-05
4.61901e-06
1.77181e-05
1.77237e-05
3.94224e-05
-0.000100071
4.50809e-05
-4.85963e-05
2.2458e-05
4.93402e-05
3.82852e-06
5.83646e-05
-3.02861e-06
2.57781e-05
-2.72388e-06
6.74059e-06
-5.06629e-07
-3.42957e-06
2.30303e-06
-1.05597e-05
5.76321e-06
-1.31013e-05
1.0875e-05
-1.81847e-05
1.58528e-05
-1.94773e-05
2.16685e-05
-1.82658e-05
2.22246e-05
-7.54276e-06
2.71777e-05
-9.44996e-07
1.44669e-05
1.40759e-05
1.30168e-05
2.24037e-05
8.95938e-06
1.907e-05
4.5068e-06
2.21706e-05
2.22305e-05
4.23457e-05
-0.000142416
5.80867e-05
-6.43373e-05
2.75214e-05
7.99056e-05
-2.45161e-06
8.83376e-05
-9.44092e-06
3.27673e-05
-5.74794e-06
3.04759e-06
-3.18079e-06
-5.99664e-06
1.12568e-06
-1.48663e-05
4.73379e-06
-1.67093e-05
9.80378e-06
-2.32548e-05
1.87244e-05
-2.83978e-05
1.2148e-05
-1.16894e-05
1.30425e-05
-8.43741e-06
1.64089e-05
-4.3112e-06
1.48499e-05
1.56347e-05
1.29965e-05
2.42571e-05
9.01451e-06
2.3052e-05
4.5919e-06
2.65931e-05
2.68225e-05
2.65933e-05
-0.00016901
4.72277e-05
-8.49718e-05
9.24816e-06
0.000117885
-4.91346e-06
0.000102499
-1.50996e-05
4.29534e-05
-1.12595e-05
-7.92456e-07
-7.39974e-06
-9.85634e-06
-1.36653e-06
-2.08996e-05
1.89384e-06
-1.99696e-05
7.27605e-06
-2.86371e-05
1.10291e-05
-3.21509e-05
2.4951e-05
-2.56111e-05
2.64953e-05
-9.98194e-06
1.71925e-05
4.99175e-06
1.58356e-05
1.69914e-05
1.32279e-05
2.68647e-05
9.1128e-06
2.71672e-05
4.63566e-06
3.10703e-05
3.14582e-05
3.93719e-05
-0.000208382
2.11806e-05
-6.67805e-05
-9.22979e-06
0.000148295
-2.22921e-05
0.000115561
-1.2123e-05
3.27844e-05
-9.17698e-06
-3.73846e-06
-5.34001e-06
-1.36932e-05
-1.18305e-06
-2.50566e-05
2.64584e-06
-2.37985e-05
1.26747e-05
-3.86659e-05
2.11655e-05
-4.06417e-05
2.70673e-05
-3.15128e-05
2.95584e-05
-1.24732e-05
1.83005e-05
1.62497e-05
1.66184e-05
1.86734e-05
1.36306e-05
2.98525e-05
9.34445e-06
3.14533e-05
4.74742e-06
3.56674e-05
3.62055e-05
7.58435e-06
-3.76042e-05
1.60515e-05
-3.98085e-05
2.1661e-05
-3.93313e-05
3.00756e-05
-3.50962e-05
3.50953e-05
-4.04818e-05
5.87656e-05
-4.74447e-05
6.69038e-05
-4.64186e-05
7.22822e-05
-5.00235e-05
7.78095e-05
-4.45616e-05
8.68178e-05
-4.28125e-05
9.70311e-05
-4.63425e-05
0.000104953
-4.07464e-05
0.000113693
-3.69234e-05
0.000120679
-3.59047e-05
0.000127616
-2.65809e-05
0.000142044
-3.24283e-05
0.000152035
-1.88108e-05
0.000156229
3.69397e-07
0.000162378
4.7654e-06
0.000155907
5.4718e-05
0.000116004
0.000103527
0.000106604
0.000162922
0.000111226
0.000223793
7.03529e-06
-4.46395e-05
1.54962e-05
-4.82694e-05
2.15733e-05
-4.54084e-05
4.06191e-05
-5.4142e-05
4.99163e-05
-4.9779e-05
5.73156e-05
-5.4844e-05
6.52265e-05
-5.43294e-05
7.31238e-05
-5.79208e-05
8.26816e-05
-5.41194e-05
9.30495e-05
-5.31803e-05
0.000101485
-5.47784e-05
0.00010901
-4.8271e-05
0.000115566
-4.34795e-05
0.000123827
-4.41655e-05
0.000124609
-2.73633e-05
0.000144697
-5.25161e-05
0.000142169
-1.62823e-05
0.000146447
-3.90893e-06
0.00011284
3.83721e-05
0.000129464
3.80947e-05
0.000143781
8.92089e-05
0.000249742
5.69609e-05
7.7119e-05
0.000283849
1.07694e-05
-5.5409e-05
2.09652e-05
-5.84651e-05
3.20005e-05
-5.64438e-05
4.01637e-05
-6.23052e-05
4.97369e-05
-5.93522e-05
5.78656e-05
-6.29728e-05
6.76224e-05
-6.40862e-05
7.73344e-05
-6.76328e-05
8.74606e-05
-6.42455e-05
9.60711e-05
-6.17908e-05
0.000106972
-6.56792e-05
0.000112932
-5.42311e-05
0.000113643
-4.41903e-05
0.000107058
-3.75812e-05
0.000119204
-3.95092e-05
0.000142436
-7.5748e-05
0.000167476
-4.13225e-05
0.000190519
-2.6952e-05
0.00021248
1.64111e-05
0.000225101
2.54744e-05
0.00025933
5.49795e-05
0.000256556
5.97351e-05
4.78673e-05
0.000285808
1.12604e-05
-6.66694e-05
2.17081e-05
-6.89128e-05
3.18658e-05
-6.66015e-05
3.96213e-05
-7.00607e-05
4.90525e-05
-6.87834e-05
5.79258e-05
-7.18461e-05
6.67139e-05
-7.28743e-05
7.6984e-05
-7.79029e-05
8.98836e-05
-7.71451e-05
0.000105747
-7.76539e-05
0.000121698
-8.16305e-05
0.00011255
-4.50828e-05
8.72255e-05
-1.8866e-05
9.13587e-05
-4.17144e-05
0.000133913
-8.20639e-05
0.000173282
-0.000115117
0.00019785
-6.589e-05
0.000207804
-3.69063e-05
0.000207634
1.65807e-05
0.000220098
1.30105e-05
0.000242503
3.2575e-05
0.000263923
3.83146e-05
4.6677e-05
0.000265114
1.06069e-05
-7.72763e-05
1.98198e-05
-7.81257e-05
2.92688e-05
-7.60505e-05
3.8612e-05
-7.94038e-05
4.74176e-05
-7.7589e-05
5.44085e-05
-7.8837e-05
6.36577e-05
-8.21236e-05
7.68054e-05
-9.10505e-05
9.2727e-05
-9.30667e-05
0.000118489
-0.000103416
0.000142951
-0.000106093
0.000123265
-2.53961e-05
0.000102049
2.35e-06
0.000111416
-5.10822e-05
0.000136042
-0.000106689
0.000150825
-0.0001299
0.000181613
-9.66785e-05
0.000116435
2.82723e-05
0.000132362
6.54022e-07
0.000155732
-1.03599e-05
0.000298103
-0.000109796
0.000296715
3.97025e-05
5.21818e-05
0.00029121
1.09655e-05
-8.82418e-05
2.04049e-05
-8.75651e-05
3.00068e-05
-8.56524e-05
3.77617e-05
-8.71587e-05
4.53004e-05
-8.51277e-05
5.1195e-05
-8.47316e-05
5.86494e-05
-8.9578e-05
6.90936e-05
-0.000101495
8.64256e-05
-0.000110399
0.000123801
-0.000140791
0.000161934
-0.000144226
0.000139843
-3.30485e-06
0.000114964
2.72295e-05
9.67728e-05
-3.28915e-05
0.000128284
-0.000138201
0.000148429
-0.000150045
0.000184151
-0.0001324
0.000220652
-8.2296e-06
0.000238657
-1.73503e-05
0.000243507
-1.52099e-05
0.000172937
-3.92263e-05
0.000191885
2.07548e-05
-3.63227e-05
0.000280389
1.16164e-05
-9.98582e-05
1.99045e-05
-9.58532e-05
2.82606e-05
-9.40084e-05
3.77596e-05
-9.66578e-05
4.42185e-05
-9.15866e-05
4.44572e-05
-8.49703e-05
4.68879e-05
-9.20087e-05
5.74224e-05
-0.000112029
8.74486e-05
-0.000140425
0.000139697
-0.00019304
0.000123971
-0.0001285
0.000226197
-0.000105531
0.000289162
-3.57353e-05
0.00030514
-4.88696e-05
0.000337377
-0.000170437
0.000334559
-0.000147228
0.000326935
-0.000124776
0.000356118
-3.74121e-05
0.000369086
-3.03184e-05
0.00039725
-4.33744e-05
0.000389203
-3.11791e-05
0.000391924
1.80341e-05
-1.81597e-07
0.000355783
1.29739e-05
-0.000112832
2.29984e-05
-0.000105878
3.33166e-05
-0.000104327
4.05179e-05
-0.000103859
4.32769e-05
-9.43456e-05
3.82985e-05
-7.99918e-05
3.72138e-05
-9.0924e-05
5.87175e-05
-0.000133533
0.000120184
-0.000201892
0.00014814
-0.000220996
0.000126923
-0.000107283
0.00026138
-0.000239988
0.000336586
-0.000110941
0.000402432
-0.000114716
0.000423916
-0.000191921
0.00042561
-0.000148922
0.000398238
-9.74032e-05
0.000396393
-3.55673e-05
0.000388246
-2.2171e-05
0.000385025
-4.01539e-05
0.000400098
-4.62518e-05
0.000403502
1.463e-05
0.000123829
0.000279491
3.40655e-06
-0.000116239
1.6757e-05
-0.000119228
3.09463e-05
-0.000118516
4.25803e-05
-0.000115493
5.36147e-05
-0.00010538
7.03425e-05
-9.67196e-05
8.89666e-05
-0.000109548
0.000107399
-0.000151965
9.8559e-05
-0.000193052
0.000103969
-0.000226406
0.000249495
-0.00025281
0.000303922
-0.000294414
0.000352032
-0.000159051
0.000391666
-0.00015435
0.000421406
-0.000221661
0.000444404
-0.00017192
0.000420532
-7.35316e-05
0.000384991
-2.5331e-08
0.000355738
7.08146e-06
0.000324091
-8.50687e-06
0.000275866
1.97323e-06
0.000277232
1.32645e-05
2.13273e-05
0.000379734
5.13235e-06
-0.000121371
1.2984e-05
-0.00012708
3.31424e-05
-0.000138674
5.16605e-05
-0.000134011
6.81594e-05
-0.000121879
9.52974e-05
-0.000123858
0.000120288
-0.000134538
0.000137249
-0.000168927
0.000110292
-0.000166094
0.000104023
-0.000220137
0.000125969
-0.000274755
0.000131552
-0.000299998
0.000144797
-0.000172295
0.000271848
-0.000281401
0.00028544
-0.000235253
0.000183988
-7.04678e-05
0.000185394
-7.49374e-05
0.000200439
-1.50708e-05
0.000277473
-6.99527e-05
0.000285155
-1.61882e-05
0.000298678
-1.15502e-05
0.000294097
1.78454e-05
1.97833e-05
0.000295641
5.73057e-06
-0.000127102
1.28059e-05
-0.000134155
2.89766e-05
-0.000154845
4.182e-05
-0.000146855
5.41467e-05
-0.000134206
7.71146e-05
-0.000146826
0.000104919
-0.000162343
0.000118023
-0.000182031
0.00012704
-0.000175112
0.000124521
-0.000217617
0.000116047
-0.000266281
9.3042e-05
-0.000276993
8.93351e-05
-0.000168589
7.05006e-05
-0.000262567
5.53964e-05
-0.000220148
9.8133e-05
-0.000113204
0.000112096
-8.89006e-05
0.000202993
-0.000105968
0.000177715
-4.46739e-05
0.000183148
-2.16219e-05
0.000160584
1.10141e-05
0.00018401
-5.57988e-06
-6.72027e-05
0.000270996
6.64797e-06
-0.00013375
1.10125e-05
-0.00013852
2.46057e-05
-0.000168438
2.82005e-05
-0.000150449
3.75081e-05
-0.000143513
4.29405e-05
-0.000152258
5.98687e-05
-0.000179271
9.7098e-05
-0.00021926
5.05503e-05
-0.000128564
9.81392e-05
-0.000265206
2.21101e-05
-0.000190252
2.07451e-05
-0.000275628
7.11025e-06
-0.000154954
-8.04611e-06
-0.000247411
-9.82096e-06
-0.000218373
-6.77446e-06
-0.000116251
1.33605e-05
-0.000109036
2.14308e-05
-0.000114038
7.34019e-05
-9.66448e-05
9.15942e-05
-3.98141e-05
0.0001177
-1.50915e-05
0.000132369
-2.02494e-05
-9.89848e-05
0.000164151
4.82573e-06
-0.000138575
1.11292e-05
-0.000144823
1.98818e-05
-0.000177191
2.43261e-05
-0.000154894
2.39053e-05
-0.000143093
3.49694e-05
-0.000163322
6.08456e-05
-0.000205147
7.47275e-05
-0.000233142
9.66586e-05
-0.000150495
2.66832e-05
-0.000195231
1.56331e-05
-0.000179202
-1.33494e-06
-0.00025866
-8.80366e-06
-0.000147485
-3.95204e-05
-0.000216694
-4.90574e-05
-0.000208836
-1.48532e-05
-0.000150455
6.61993e-06
-0.000130509
1.06292e-05
-0.000118047
6.80148e-06
-9.2817e-05
8.77781e-05
-0.000120791
0.000104369
-3.1682e-05
0.000188941
-0.000104822
-9.46882e-05
0.000184645
5.03709e-06
-0.000143613
1.0581e-05
-0.000150367
1.70079e-05
-0.000183618
1.70728e-05
-0.000154959
2.01252e-05
-0.000146145
2.76698e-05
-0.000170867
3.32186e-05
-0.000210696
3.69598e-05
-0.000236883
4.50549e-05
-0.00015859
2.39874e-05
-0.000174163
7.09483e-06
-0.00016231
-9.12247e-06
-0.000242443
-1.09544e-05
-0.000145653
-4.75333e-05
-0.000180115
-4.83859e-05
-0.000207984
-3.47965e-05
-0.000164045
3.9494e-06
-0.000169255
1.89022e-05
-0.000133
3.13458e-05
-0.00010526
8.01963e-05
-0.000169641
0.000196625
-0.00014811
0.000248906
-0.000157104
-0.000167612
0.00032183
5.91778e-06
-0.00014953
1.0417e-05
-0.000154867
1.68717e-05
-0.000190073
2.12799e-05
-0.000159367
1.47392e-05
-0.000139604
1.795e-05
-0.000174078
3.68695e-06
-0.000196433
-1.15217e-05
-0.000221675
3.64552e-05
-0.000206567
2.81048e-05
-0.000165813
2.34678e-05
-0.000157673
-5.00197e-05
-0.000168955
-5.08197e-05
-0.000144853
-3.87493e-06
-0.00022706
-5.17006e-06
-0.000206689
-3.56092e-05
-0.000133606
-2.26883e-06
-0.000202595
-8.36716e-06
-0.000126902
6.34559e-05
-0.000177083
8.33751e-05
-0.00018956
0.000122576
-0.000187311
0.00017302
-0.000207548
-0.000206024
0.000211432
4.5649e-06
-0.000154095
6.05937e-06
-0.000156361
8.06636e-06
-0.00019208
1.12726e-05
-0.000162573
1.17305e-05
-0.000140062
1.00906e-05
-0.000172438
3.92074e-07
-0.000186735
-1.83558e-05
-0.000202927
-2.44793e-05
-0.000200444
2.42282e-05
-0.000214521
7.72236e-06
-0.000141167
-1.45354e-05
-0.000146697
-2.04033e-05
-0.000138985
-9.35685e-06
-0.000238106
-2.32331e-05
-0.000192812
-1.20564e-05
-0.000144782
1.71651e-05
-0.000231816
2.58887e-05
-0.000135625
5.18369e-05
-0.000203031
9.19645e-05
-0.000229688
0.000141443
-0.00023679
0.000191636
-0.00025774
-0.000261605
0.000247217
2.48665e-06
-0.000156582
5.43243e-06
-0.000159307
1.00949e-05
-0.000196742
8.99207e-06
-0.000161471
1.01888e-05
-0.000141259
1.28666e-06
-0.000163536
-4.30378e-06
-0.000181144
-1.56772e-05
-0.000191554
-1.01387e-05
-0.000205982
-5.72687e-06
-0.000218932
-1.35264e-05
-0.000133367
-2.50102e-05
-0.000135214
-2.84434e-05
-0.000135552
-4.087e-05
-0.00022568
-2.14243e-05
-0.000212258
1.23987e-05
-0.000178605
1.56023e-05
-0.00023502
2.93337e-05
-0.000149357
5.7462e-05
-0.00023116
9.1567e-05
-0.000263793
0.000139388
-0.00028461
0.000173089
-0.000291442
-0.000335058
0.000246543
6.73917e-07
-0.000157256
4.76002e-06
-0.000163393
1.01794e-05
-0.000202162
2.39249e-05
-0.000175216
-9.52647e-06
-0.000107808
-3.75738e-06
-0.000169305
-1.34302e-05
-0.000171472
-2.24636e-05
-0.00018252
-2.53866e-05
-0.000203059
-2.41978e-05
-0.000220121
-2.92938e-05
-0.000128271
-2.53504e-05
-0.000139157
-2.09228e-05
-0.000139979
-2.2288e-05
-0.000224314
-2.32789e-05
-0.000211267
-1.59092e-05
-0.000185975
-1.94669e-05
-0.000231462
5.44672e-05
-0.000223291
5.64852e-05
-0.000233178
8.18806e-05
-0.000289188
0.000116212
-0.000318942
0.000157626
-0.000332856
-0.000446567
0.000269135
-8.1491e-06
-0.000149107
-2.23991e-05
-0.000149143
1.26218e-06
-0.000225823
-2.00721e-05
-0.000153882
1.08661e-05
-0.000138746
-5.91762e-06
-0.000152521
-4.27266e-05
-0.000134663
-1.55177e-05
-0.000209729
-2.63982e-05
-0.000192179
-1.85125e-05
-0.000228007
-1.50623e-05
-0.000131721
-1.32919e-05
-0.000140927
-1.08952e-06
-0.000152182
-1.2444e-05
-0.00021296
-1.06658e-05
-0.000213046
-4.91403e-05
-0.0001475
-1.21567e-05
-0.000268446
1.91521e-05
-0.0002546
5.13112e-05
-0.000265337
6.68781e-05
-0.000304755
9.934e-05
-0.000351404
0.000192888
-0.000426404
-0.000488681
0.000235003
9.02849e-06
-0.000158136
2.16292e-05
-0.000161744
-2.73046e-05
-0.00017689
-2.17023e-05
-0.000159484
-5.49588e-06
-0.000154952
5.02725e-06
-0.000163044
1.30003e-05
-0.000142636
-3.91571e-05
-0.000157572
-1.17855e-05
-0.000219551
-1.31204e-05
-0.000226672
-9.34623e-06
-0.000135496
-1.18146e-05
-0.000138459
4.08434e-05
-0.00020484
-8.09364e-06
-0.000164023
-5.09679e-05
-0.000170171
-2.39648e-05
-0.000174504
-7.19847e-06
-0.000285212
2.15418e-05
-0.00028334
2.51938e-05
-0.000268989
4.30745e-05
-0.000322636
6.81751e-05
-0.000376504
9.48623e-05
-0.000453091
-0.000543972
0.000150153
1.13808e-06
-0.000159274
2.76129e-06
-0.000163367
-7.83847e-06
-0.00016629
-8.79769e-06
-0.000158525
-5.64339e-06
-0.000158107
-7.25754e-06
-0.00016143
5.57597e-07
-0.000150451
3.06572e-06
-0.00016008
6.61198e-06
-0.000223097
-1.04123e-06
-0.000219019
5.4927e-06
-0.000142029
1.15857e-05
-0.000144552
-2.22768e-05
-0.000170977
-1.63052e-05
-0.000169994
-1.07521e-05
-0.000175725
-4.88969e-06
-0.000180366
-4.71932e-06
-0.000285383
6.15673e-06
-0.000294216
1.22823e-05
-0.000275114
1.65152e-05
-0.000326869
3.03356e-05
-0.000390325
3.6991e-05
-0.000459746
-0.0005518
4.48187e-05
-3.45005e-07
-0.000158929
-5.46596e-07
-0.000163166
-8.63945e-06
-0.000158197
-7.3075e-06
-0.000159857
-8.75155e-06
-0.000156663
-7.50362e-06
-0.000162678
-7.36365e-06
-0.000150591
4.37852e-05
-0.000211229
4.17345e-05
-0.000221046
-1.53998e-05
-0.000161885
-1.12983e-05
-0.000146131
-4.07643e-06
-0.000151774
-1.17666e-05
-0.000163287
-1.62526e-05
-0.000165508
-1.5281e-05
-0.000176696
2.40899e-07
-0.000195888
-6.16223e-07
-0.000284526
6.67969e-06
-0.000301512
2.38822e-06
-0.000270823
-8.38672e-06
-0.000316094
-4.54981e-06
-0.000394162
1.54886e-06
-0.000465845
-0.000541859
-8.39237e-06
-3.86909e-06
-0.00015506
-8.22431e-06
-0.000158811
-1.64715e-05
-0.00014995
-2.91615e-05
-0.000147167
1.31057e-05
-0.00019893
1.41466e-06
-0.000150987
3.61729e-05
-0.000185349
1.66487e-05
-0.000191705
8.75444e-06
-0.000213152
-5.72065e-06
-0.00014741
-8.69194e-06
-0.00014316
-1.20719e-05
-0.000148394
-2.45589e-05
-0.0001508
-2.42535e-05
-0.000165814
-2.03682e-05
-0.000180582
6.35709e-06
-0.000222613
4.07451e-06
-0.000282243
2.09003e-05
-0.000318338
-2.67159e-05
-0.000223206
-1.92265e-05
-0.000323583
-3.29491e-05
-0.000380439
-6.50769e-05
-0.000433717
-0.000514942
-9.19939e-05
-1.91542e-06
-0.000153144
-8.74937e-06
-0.000151977
-1.46586e-05
-0.000144041
1.44851e-05
-0.000176311
3.0973e-06
-0.000187542
2.77436e-05
-0.000175633
1.85251e-05
-0.000176131
1.33617e-05
-0.000186541
-3.46647e-06
-0.000196324
-1.80701e-05
-0.000132806
-2.15793e-05
-0.00013965
-2.50566e-05
-0.000144917
-2.73719e-05
-0.000148485
-2.89259e-05
-0.00016426
2.29251e-05
-0.000232433
-1.30535e-05
-0.000186635
-1.46252e-05
-0.000280671
-1.04925e-05
-0.00032247
-2.69439e-05
-0.000206755
-2.43268e-05
-0.0003262
-4.23101e-05
-0.000362456
-7.02187e-05
-0.000405809
-0.000440579
-0.000144582
1.15546e-06
-0.0001543
1.07731e-05
-0.000161594
3.97579e-05
-0.000173026
2.34946e-05
-0.000160047
1.61729e-05
-0.00018022
1.44244e-05
-0.000173885
3.4565e-05
-0.000196271
-1.57505e-05
-0.000136226
-5.55803e-05
-0.000156494
-4.34321e-05
-0.000144954
-3.76884e-05
-0.000145394
-3.60184e-05
-0.000146586
-3.01522e-05
-0.000154351
-2.26863e-05
-0.000171726
3.70678e-07
-0.00025549
-6.52612e-06
-0.000179738
-1.48625e-05
-0.000272335
-2.61785e-05
-0.000311154
-3.30657e-05
-0.000199868
-3.33083e-05
-0.000325958
-5.54691e-05
-0.000340295
-8.50129e-05
-0.000376265
-0.000317325
-0.000208267
1.17188e-06
-0.000155472
4.80008e-06
-0.000165223
6.60081e-06
-0.000174826
1.02177e-05
-0.000163664
7.72622e-06
-0.000177729
1.27208e-06
-0.000167431
-4.65551e-05
-0.000148444
-3.29225e-05
-0.000149859
-4.10171e-05
-0.000148399
-4.15106e-05
-0.000144461
-4.40723e-05
-0.000142833
-4.74935e-05
-0.000143165
-5.44387e-05
-0.000147406
-7.36337e-06
-0.000218801
5.67031e-06
-0.000268523
1.4527e-05
-0.000188595
-4.68542e-05
-0.000210954
-3.81152e-05
-0.000319893
-3.45393e-05
-0.000203444
-3.14819e-05
-0.000329015
-0.000140223
-0.000231554
-0.000132457
-0.000384031
-0.000276469
-0.000173313
1.12614e-06
-0.000156598
7.90495e-06
-0.000172001
3.41224e-05
-0.000201044
4.45451e-06
-0.000133996
-2.11513e-05
-0.000152123
-3.45837e-05
-0.000153998
-2.90827e-05
-0.000153945
-3.43468e-05
-0.000144594
-3.81797e-05
-0.000144567
-4.03511e-05
-0.00014229
-4.12474e-05
-0.000141936
-4.28081e-05
-0.000141605
-4.74073e-05
-0.000142807
-3.32506e-05
-0.000232958
-5.22474e-05
-0.000249527
-2.70248e-06
-0.00023814
-2.89544e-05
-0.000184702
-6.3809e-05
-0.000285038
-2.27442e-05
-0.000244509
-0.000111239
-0.00024052
-0.000110205
-0.000232588
-0.000162345
-0.000331891
-0.00023933
-0.000199483
-1.27775e-06
-0.00015532
-1.13163e-05
-0.000161963
-4.72482e-05
-0.000165112
-2.45864e-05
-0.000156658
-2.28504e-05
-0.000153859
-2.55019e-05
-0.000151347
-3.37299e-05
-0.000145717
-3.37486e-05
-0.000144576
-3.76811e-05
-0.000140634
-4.08595e-05
-0.000139111
-4.38333e-05
-0.000138963
-4.61217e-05
-0.000139316
-5.02296e-05
-0.000138699
-4.95086e-05
-0.000233679
-4.99427e-05
-0.000249092
-4.2367e-05
-0.000245715
-4.54886e-05
-0.00018158
-5.6149e-05
-0.000274378
-0.000113915
-0.000186743
-6.57083e-05
-0.000288726
-9.63691e-05
-0.000201927
-0.000186909
-0.00024135
-0.000210179
-0.000216061
-2.65526e-06
-0.000152665
-7.41066e-06
-0.000157207
-1.48599e-05
-0.000157662
-1.77963e-05
-0.000153722
-2.0994e-05
-0.000150661
-2.64113e-05
-0.00014593
-3.10976e-05
-0.00014103
-3.46103e-05
-0.000141063
-3.938e-05
-0.000135865
-4.17248e-05
-0.000136767
-4.41665e-05
-0.000136521
-4.63482e-05
-0.000137135
-5.07585e-05
-0.000134289
-5.94138e-05
-0.000225023
-6.47044e-05
-0.000243802
-6.36387e-05
-0.000246781
-1.63373e-05
-0.000228882
-9.57717e-05
-0.000194944
-9.99461e-05
-0.000182568
-9.35275e-05
-0.000295145
-0.000115314
-0.000180141
-0.000162725
-0.00019394
-0.000178764
-0.000194139
-3.72301e-06
-0.000148942
-8.73602e-06
-0.000152194
-1.50681e-05
-0.00015133
-1.87011e-05
-0.000150089
-2.23098e-05
-0.000147053
-2.7216e-05
-0.000141023
-2.94651e-05
-0.000138781
-3.44812e-05
-0.000136047
-3.6726e-05
-0.00013362
-3.74274e-05
-0.000136065
-3.87035e-05
-0.000135245
-4.06983e-05
-0.00013514
-4.47601e-05
-0.000130227
-5.81555e-05
-0.000211628
-7.28749e-05
-0.000229082
-7.83208e-05
-0.000241335
-6.99376e-05
-0.000237265
-9.64975e-05
-0.000168384
-5.06582e-05
-0.000228408
-0.000171456
-0.000174347
-0.000111086
-0.000240511
-0.000159338
-0.000145688
-0.000148825
-0.000189277
-3.99679e-06
-0.000144945
-9.18278e-06
-0.000147008
-1.31086e-05
-0.000147405
-1.73244e-05
-0.000145873
-2.54204e-05
-0.000138957
-2.7007e-05
-0.000139437
-2.99904e-05
-0.000135798
-3.16149e-05
-0.000134423
-3.2197e-05
-0.000133038
-3.22906e-05
-0.000135972
-3.18191e-05
-0.000135716
-2.93502e-05
-0.000137609
-2.09459e-05
-0.000138631
-8.14525e-05
-0.000151121
-7.93097e-05
-0.000231225
-8.19081e-05
-0.000238737
-8.61973e-05
-0.000232976
-3.81645e-05
-0.000216417
-0.000113654
-0.000152918
-0.000139263
-0.000148738
-0.000220357
-0.000159418
-0.000160096
-0.000205948
-0.00014452
-0.000164401
-3.24079e-06
-0.000141704
-7.90548e-06
-0.000142343
-1.17172e-05
-0.000143593
-2.00316e-05
-0.000137558
-2.22888e-05
-0.000136699
-2.59173e-05
-0.000135808
-2.82864e-05
-0.000133429
-3.01864e-05
-0.000132523
-3.17004e-05
-0.000131523
-3.54384e-05
-0.000132234
-3.94809e-05
-0.000131674
-4.43788e-05
-0.000132711
-4.9117e-05
-0.000133893
-6.38683e-05
-0.00013637
-6.95605e-05
-0.000225533
-8.00308e-05
-0.000228267
-8.97503e-05
-0.000223256
-9.25759e-05
-0.000213591
-0.000108769
-0.000136725
-0.000118209
-0.000139298
-0.000135345
-0.000142282
-0.00013148
-0.000209813
-0.000101367
-0.000174633
-4.53931e-06
-0.000137165
-8.95331e-06
-0.000137929
-1.47593e-05
-0.000137787
-1.78455e-05
-0.000134472
-2.08133e-05
-0.000133732
-2.42258e-05
-0.000132396
-2.6492e-05
-0.000131163
-2.87096e-05
-0.000130305
-3.11336e-05
-0.000129099
-3.45475e-05
-0.00012882
-3.86124e-05
-0.000127609
-4.41763e-05
-0.000127147
-5.26258e-05
-0.000125443
-6.49457e-05
-0.00012405
-7.13843e-05
-0.000219094
-8.23623e-05
-0.000217289
-9.64512e-05
-0.000209167
-0.000107194
-0.000202848
-0.000124296
-0.000119624
-0.000109567
-0.000154026
-0.00010403
-0.000147818
-0.000206826
-0.000107017
-0.000156636
-0.000151557
-4.48836e-06
-0.000132676
-8.40027e-06
-0.000134018
-1.26092e-05
-0.000133578
-1.51543e-05
-0.000131927
-1.81138e-05
-0.000130772
-2.05924e-05
-0.000129917
-2.34064e-05
-0.000128349
-2.61791e-05
-0.000127532
-2.93743e-05
-0.000125904
-3.30092e-05
-0.000125185
-3.70092e-05
-0.000123609
-4.16808e-05
-0.000122476
-4.67453e-05
-0.000120379
-5.31756e-05
-0.00011762
-5.93856e-05
-0.000212884
-6.82169e-05
-0.000208457
-7.88146e-05
-0.00019857
-9.20777e-05
-0.000189585
-4.47759e-05
-0.000166926
-9.96606e-05
-9.91418e-05
-9.40215e-05
-0.000153458
-9.16671e-05
-0.000109372
-9.71937e-05
-0.000151109
-3.12448e-06
-0.000129552
-6.19546e-06
-0.000130947
-9.25196e-06
-0.000130521
-1.22551e-05
-0.000128924
-1.4935e-05
-0.000128092
-1.78847e-05
-0.000126967
-2.06658e-05
-0.000125567
-2.36499e-05
-0.000124548
-2.67521e-05
-0.000122802
-3.03501e-05
-0.000121587
-3.44175e-05
-0.000119542
-3.91436e-05
-0.00011775
-4.43163e-05
-0.000115206
-4.99778e-05
-0.000111958
-5.69813e-05
-0.000205881
-6.45096e-05
-0.000200929
-7.22869e-05
-0.000190793
-8.21682e-05
-0.000179704
-8.50424e-05
-0.000164051
-9.30568e-05
-9.11274e-05
-0.000110558
-0.000135956
-0.000133255
-8.66754e-05
-0.000128432
-0.000102017
-2.97861e-06
-0.000126573
-5.94467e-06
-0.000127981
-8.84796e-06
-0.000127618
-1.11727e-05
-0.000126599
-1.35104e-05
-0.000125754
-1.57802e-05
-0.000124698
-1.80363e-05
-0.000123311
-2.05725e-05
-0.000122012
-2.30783e-05
-0.000120296
-2.61068e-05
-0.000118558
-2.91552e-05
-0.000116494
-3.27793e-05
-0.000114125
-3.64534e-05
-0.000111532
-4.05129e-05
-0.000107899
-4.65235e-05
-0.00019987
-5.49665e-05
-0.000192486
-6.35091e-05
-0.00018225
-7.11217e-05
-0.000172091
-7.33547e-05
-0.000161818
-7.47595e-05
-8.97224e-05
-0.000127514
-8.32018e-05
-0.000108583
-0.000105606
-7.38426e-05
-0.000163172
-1.96613e-06
-0.000124607
-4.11196e-06
-0.000125835
-6.33683e-06
-0.000125393
-8.43031e-06
-0.000124506
-1.03937e-05
-0.000123791
-1.25447e-05
-0.000122546
-1.44726e-05
-0.000121383
-1.66844e-05
-0.0001198
-1.89201e-05