/*--------------------------------*- C++ -*----------------------------------*\
| =========                 |                                                 |
| \\      /  F ield         | foam-extend: Open Source CFD                    |
|  \\    /   O peration     | Version:     4.1                                |
|   \\  /    A nd           | Web:         http://www.foam-extend.org         |
|    \\/     M anipulation  |                                                 |
\*---------------------------------------------------------------------------*/
FoamFile
{
    version     2.0;
    format      ascii;
    class       volVectorField;
    location    "0.25";
    object      U;
}
// * * * * * * * * * * * * * * * * * * * * * * * * * * * * * * * * * * * * * //

dimensions      [0 1 -1 0 0 0 0];

internalField   nonuniform List<vector> 
2268
(
(0.0454875 -0.00694929 0)
(0.0697202 -0.00668731 0)
(0.158099 -0.0083667 0)
(0.207778 -0.00411436 0)
(0.244313 -0.00960761 0)
(0.340514 -0.00647091 0)
(0.374034 -0.00599557 0)
(0.468475 -0.00937697 0)
(0.479375 -0.00275475 0)
(0.52977 -0.0235143 0)
(0.462143 -0.0473949 0)
(0.416017 -0.00123534 0)
(0.474444 -0.00134497 0)
(0.487142 -0.00364968 0)
(0.515698 -0.00218877 0)
(0.523287 0.00217756 0)
(0.539451 0.00423532 0)
(0.532002 0.000735716 0)
(0.508665 0.0118871 0)
(0.453735 0.00565849 0)
(0.383015 0.0336291 0)
(0.257129 0.0162036 0)
(0.131238 0.0559242 0)
(0.0454765 -0.0202315 0)
(0.0706175 -0.0198887 0)
(0.160038 -0.0248786 0)
(0.206806 -0.0154073 0)
(0.246358 -0.0229743 0)
(0.345008 -0.0234392 0)
(0.377907 -0.0247544 0)
(0.471013 -0.0176198 0)
(0.475532 -0.0106774 0)
(0.540465 0.0223005 0)
(0.457365 -0.114528 0)
(0.419128 -0.033679 0)
(0.464241 -0.0216946 0)
(0.4791 -0.0266232 0)
(0.502882 -0.0142819 0)
(0.509908 -0.00480455 0)
(0.523114 0.0170164 0)
(0.518913 0.0151178 0)
(0.494313 0.0107205 0)
(0.457557 0.0476971 0)
(0.36445 0.0609941 0)
(0.258708 0.10406 0)
(0.0924493 0.132107 0)
(0.0445206 -0.034387 0)
(0.0709867 -0.0337724 0)
(0.160573 -0.0410454 0)
(0.203633 -0.0234729 0)
(0.251068 -0.0436783 0)
(0.34711 -0.0360319 0)
(0.378018 -0.0374846 0)
(0.457578 -0.0344379 0)
(0.51322 -0.0170853 0)
(0.493479 -0.0557296 0)
(0.433089 -0.139993 0)
(0.413157 -0.0563067 0)
(0.451684 -0.0331474 0)
(0.460422 -0.0324809 0)
(0.470977 -0.0180234 0)
(0.47747 -0.00717183 0)
(0.488036 0.0164579 0)
(0.481433 0.039479 0)
(0.466223 0.0438409 0)
(0.442512 0.0659354 0)
(0.375117 0.116431 0)
(0.259549 0.148133 0)
(0.157007 0.212482 0)
(0.0433169 -0.0474092 0)
(0.0722008 -0.047298 0)
(0.161399 -0.0567561 0)
(0.200908 -0.0361304 0)
(0.270911 -0.0579224 0)
(0.338675 -0.053074 0)
(0.371188 -0.0512908 0)
(0.481061 -0.0559829 0)
(0.430385 -0.05171 0)
(0.399689 -0.123087 0)
(0.398991 -0.108592 0)
(0.37461 -0.0484398 0)
(0.392088 -0.0352078 0)
(0.401405 -0.0347715 0)
(0.424971 -0.0233349 0)
(0.433261 -0.00839382 0)
(0.447053 0.00356763 0)
(0.446044 0.0374692 0)
(0.441999 0.0748913 0)
(0.41225 0.0933157 0)
(0.347552 0.148551 0)
(0.278972 0.210101 0)
(0.117851 0.329863 0)
(0.0411433 -0.0617375 0)
(0.0729132 -0.0617898 0)
(0.159732 -0.0715821 0)
(0.202438 -0.0487482 0)
(0.279761 -0.0769672 0)
(0.326703 -0.0581854 0)
(0.372625 -0.0752557 0)
(0.472386 -0.041995 0)
(0.379488 -0.146695 0)
(0.341359 -0.0943288 0)
(0.336971 -0.0974944 0)
(0.332844 -0.0673021 0)
(0.35889 -0.0456287 0)
(0.378838 -0.0477587 0)
(0.418204 -0.0341647 0)
(0.426914 -0.0201777 0)
(0.446781 0.00960418 0)
(0.440799 0.0391828 0)
(0.439618 0.0809209 0)
(0.425202 0.116817 0)
(0.357934 0.175923 0)
(0.304424 0.249308 0)
(0.198894 0.408265 0)
(0.0382236 -0.0741082 0)
(0.0753267 -0.0753141 0)
(0.159708 -0.0877491 0)
(0.20202 -0.064208 0)
(0.278564 -0.0892977 0)
(0.322098 -0.0743051 0)
(0.397137 -0.0944793 0)
(0.357506 -0.0755537 0)
(0.29865 -0.147546 0)
(0.300157 -0.101685 0)
(0.309568 -0.101804 0)
(0.324158 -0.0738423 0)
(0.350522 -0.0577609 0)
(0.385113 -0.0639487 0)
(0.426285 -0.0459977 0)
(0.432405 -0.0216359 0)
(0.466406 0.00126967 0)
(0.46091 0.0493046 0)
(0.468022 0.0849322 0)
(0.448108 0.129829 0)
(0.403176 0.207995 0)
(0.351872 0.292746 0)
(0.178697 0.577838 0)
(0.033707 -0.0887527 0)
(0.077426 -0.0907115 0)
(0.15823 -0.101125 0)
(0.197206 -0.0764862 0)
(0.271674 -0.105616 0)
(0.320499 -0.0936275 0)
(0.322037 -0.0708083 0)
(0.297548 -0.155056 0)
(0.274495 -0.14212 0)
(0.286625 -0.103588 0)
(0.300726 -0.106141 0)
(0.334884 -0.093315 0)
(0.360635 -0.0755761 0)
(0.409523 -0.0850215 0)
(0.427901 -0.0537013 0)
(0.442933 -0.0372625 0)
(0.489069 -0.00754319 0)
(0.491326 0.0260087 0)
(0.491903 0.0903946 0)
(0.497825 0.14633 0)
(0.425885 0.229729 0)
(0.481905 0.361668 0)
(0.311615 0.655656 0)
(0.0305075 -0.0992143 0)
(0.0842211 -0.104203 0)
(0.154314 -0.11653 0)
(0.187685 -0.0969756 0)
(0.260042 -0.124919 0)
(0.3048 -0.0734163 0)
(0.255314 -0.119779 0)
(0.265141 -0.166625 0)
(0.26991 -0.146516 0)
(0.286035 -0.114298 0)
(0.30836 -0.12144 0)
(0.355517 -0.106523 0)
(0.3759 -0.093298 0)
(0.423205 -0.0962825 0)
(0.430505 -0.0655228 0)
(0.458665 -0.0505317 0)
(0.495661 -0.0202735 0)
(0.525637 0.0226255 0)
(0.527333 0.0621024 0)
(0.536265 0.185497 0)
(0.505176 0.234415 0)
(0.527438 0.507218 0)
(0.318713 0.847401 0)
(0.0319418 -0.0296289 0)
(0.136592 -0.014213 0)
(0.170763 0.00719367 0)
(0.110009 0.0199675 0)
(0.0734987 0.0153688 0)
(0.0462126 0.00781882 0)
(0.034385 0.00166977 0)
(0.0405524 -0.0020121 0)
(0.0475269 -0.00635325 0)
(0.0720861 -0.00659471 0)
(0.0850887 -0.0103944 0)
(0.120241 -0.00937505 0)
(0.130702 -0.000480004 0)
(0.158293 -0.0138819 0)
(0.171032 -0.00779356 0)
(0.182135 0.020923 0)
(0.177819 0.00610902 0)
(0.0891135 0.00704184 0)
(0.0380117 0.00681006 0)
(0.0528169 -0.0963948 0)
(0.146598 -0.0588437 0)
(0.184451 0.0408857 0)
(0.116747 0.0516715 0)
(0.0690352 0.0401262 0)
(0.0440033 0.0273922 0)
(0.0336515 0.000109647 0)
(0.0409949 -0.0120304 0)
(0.0504538 -0.0188501 0)
(0.0769909 -0.028435 0)
(0.0915929 -0.026091 0)
(0.132751 -0.011118 0)
(0.139267 -0.0110615 0)
(0.168585 -0.0301349 0)
(0.192175 0.00684247 0)
(0.196755 0.0392109 0)
(0.18137 0.0194603 0)
(0.0940327 0.0219811 0)
(0.0399807 0.0215527 0)
(0.0799229 -0.18043 0)
(0.192298 -0.0928415 0)
(0.216282 0.0541431 0)
(0.105961 0.1092 0)
(0.0593171 0.078743 0)
(0.0329199 0.0377847 0)
(0.0207075 -0.00101635 0)
(0.0359389 -0.0237925 0)
(0.0454701 -0.0350678 0)
(0.0760222 -0.0444431 0)
(0.0991709 -0.0542862 0)
(0.13732 -0.0380743 0)
(0.132298 -0.0153436 0)
(0.183118 -0.0228453 0)
(0.211961 0.0612201 0)
(0.194545 0.0247812 0)
(0.181224 0.0313059 0)
(0.095428 0.0365339 0)
(0.0401055 0.0363757 0)
(0.149405 -0.307786 0)
(0.250724 -0.136559 0)
(0.263211 0.0554844 0)
(0.118146 0.17439 0)
(0.0285315 0.125579 0)
(0.00809102 0.0436112 0)
(0.00763023 -0.000243563 0)
(0.0265813 -0.0382623 0)
(0.0402902 -0.0516394 0)
(0.0708142 -0.0775945 0)
(0.0941242 -0.0712294 0)
(0.147944 -0.081582 0)
(0.139274 -0.0167502 0)
(0.203398 0.00901558 0)
(0.219991 0.00612656 0)
(0.18961 0.0496865 0)
(0.188092 0.0441782 0)
(0.0998916 0.0516806 0)
(0.040237 0.0517574 0)
(0.294888 -0.386173 0)
(0.381384 -0.162321 0)
(0.307602 0.173399 0)
(0.12836 0.344877 0)
(-0.0136158 0.107038 0)
(-0.0201161 0.0490985 0)
(-0.0131724 -0.0138873 0)
(0.012578 -0.0588473 0)
(0.0248827 -0.0707602 0)
(0.0686815 -0.0872877 0)
(0.0978152 -0.122192 0)
(0.158704 -0.073337 0)
(0.171846 -0.0404369 0)
(0.187894 0.0138335 0)
(0.232308 0.0171544 0)
(0.212021 0.083474 0)
(0.180383 0.0579076 0)
(0.0973915 0.0672991 0)
(0.0399708 0.0671923 0)
(0.318318 -0.782377 0)
(0.451359 -0.163925 0)
(0.393922 0.443553 0)
(0.0955825 0.34864 0)
(-0.118107 0.0830073 0)
(-0.0337571 0.0420884 0)
(-0.0390416 -0.0233093 0)
(-0.00190295 -0.0740741 0)
(0.0204988 -0.0973081 0)
(0.053232 -0.154922 0)
(0.104847 -0.114922 0)
(0.186726 -0.0601696 0)
(0.176764 -0.0538557 0)
(0.230072 -0.0215046 0)
(0.252258 0.0651401 0)
(0.209037 0.0774565 0)
(0.180136 0.0700507 0)
(0.100199 0.0816485 0)
(0.0400633 0.0823121 0)
(0.292042 -1.09552 0)
(0.349053 -0.4172 0)
(0.340156 0.610364 0)
(-0.0224615 0.323955 0)
(-0.13893 0.11488 0)
(-0.0856678 0.00294615 0)
(-0.0709887 -0.0478231 0)
(-0.0363483 -0.111985 0)
(-0.0106323 -0.113313 0)
(0.0698513 -0.1115 0)
(0.137231 -0.087157 0)
(0.196313 -0.0795053 0)
(0.193517 -0.0571338 0)
(0.236647 -0.0101988 0)
(0.271027 0.0482577 0)
(0.218445 0.0857668 0)
(0.181387 0.0837217 0)
(0.101668 0.0967255 0)
(0.0402536 0.0979254 0)
(0.2799 -0.825378 0)
(0.321209 -0.668332 0)
(-0.00358336 0.740861 0)
(-0.19039 0.322337 0)
(-0.220081 0.163451 0)
(-0.159661 -0.006653 0)
(-0.112836 -0.0754442 0)
(-0.0514149 -0.153347 0)
(0.0112545 -0.145975 0)
(0.0671658 -0.0963575 0)
(0.123459 -0.132148 0)
(0.204923 -0.106506 0)
(0.220342 -0.0787655 0)
(0.256282 0.042226 0)
(0.285553 0.0614453 0)
(0.228771 0.0955423 0)
(0.184669 0.0983367 0)
(0.104496 0.112396 0)
(0.0406523 0.114234 0)
(0.0281143 -0.125185 0)
(0.0815437 -0.12882 0)
(0.143192 -0.135039 0)
(0.168895 -0.0915303 0)
(0.257336 -0.134 0)
(0.226746 -0.141062 0)
(0.222078 -0.170844 0)
(0.258299 -0.17106 0)
(0.270387 -0.145839 0)
(0.291139 -0.133667 0)
(0.334478 -0.145824 0)
(0.362029 -0.137579 0)
(0.390194 -0.107135 0)
(0.430727 -0.120111 0)
(0.455375 -0.0777799 0)
(0.485863 -0.091027 0)
(0.543671 -0.0531553 0)
(0.551773 0.0022776 0)
(0.613376 0.00448389 0)
(0.58134 0.161884 0)
(0.638764 0.274947 0)
(0.866247 0.651586 0)
(0.694487 0.939239 0)
(0.0377902 -0.14391 0)
(0.0632638 -0.156686 0)
(0.155323 -0.151781 0)
(0.145269 -0.172964 0)
(0.160208 -0.163961 0)
(0.202358 -0.200101 0)
(0.223391 -0.177498 0)
(0.24921 -0.191198 0)
(0.279311 -0.177217 0)
(0.315146 -0.17118 0)
(0.358305 -0.187073 0)
(0.383269 -0.151167 0)
(0.408504 -0.153929 0)
(0.438701 -0.12525 0)
(0.446954 -0.116251 0)
(0.485909 -0.132995 0)
(0.561329 -0.0810699 0)
(0.512392 0.0130154 0)
(0.624642 0.0799889 0)
(0.859643 0.212679 0)
(1.01371 0.431589 0)
(0.932436 0.543807 0)
(0.994799 0.648419 0)
(0.0244819 -0.176812 0)
(0.0522752 -0.190713 0)
(0.0983423 -0.179712 0)
(0.13059 -0.218851 0)
(0.162241 -0.202262 0)
(0.191374 -0.204535 0)
(0.226919 -0.21642 0)
(0.255869 -0.230872 0)
(0.303275 -0.214436 0)
(0.326611 -0.209177 0)
(0.370345 -0.20391 0)
(0.400814 -0.189365 0)
(0.434448 -0.154255 0)
(0.408712 -0.19798 0)
(0.395942 -0.257226 0)
(0.484881 -0.248669 0)
(0.546782 -0.139326 0)
(0.649029 -0.0756697 0)
(0.743576 0.178193 0)
(0.813013 0.158124 0)
(0.916282 0.280832 0)
(0.973182 0.290079 0)
(0.975953 0.419676 0)
(0.0247678 -0.221683 0)
(0.0553308 -0.229596 0)
(0.100588 -0.227992 0)
(0.125527 -0.232818 0)
(0.159434 -0.225668 0)
(0.189413 -0.249356 0)
(0.226125 -0.246258 0)
(0.251656 -0.259193 0)
(0.303341 -0.253597 0)
(0.347328 -0.237815 0)
(0.431349 -0.26893 0)
(0.481363 -0.197982 0)
(0.383412 -0.165706 0)
(0.309797 -0.300867 0)
(0.376988 -0.295457 0)
(0.59922 -0.332971 0)
(0.65483 -0.198592 0)
(0.758476 -0.139386 0)
(0.766057 0.0504922 0)
(0.809026 0.0502262 0)
(0.838788 0.12921 0)
(0.959124 0.156818 0)
(0.951073 0.220815 0)
(0.0206147 -0.256982 0)
(0.054758 -0.265296 0)
(0.0874436 -0.251288 0)
(0.12016 -0.271023 0)
(0.156714 -0.268964 0)
(0.179408 -0.269158 0)
(0.209529 -0.279313 0)
(0.242863 -0.309034 0)
(0.306839 -0.311068 0)
(0.360225 -0.331106 0)
(0.497728 -0.33803 0)
(0.568653 -0.179694 0)
(0.406948 -0.102961 0)
(0.381963 -0.296706 0)
(0.455579 -0.317617 0)
(0.567182 -0.482723 0)
(0.582832 -0.340794 0)
(0.792492 -0.134853 0)
(0.810505 0.0748153 0)
(1.06174 0.0402674 0)
(1.09913 0.0949064 0)
(1.09253 0.133763 0)
(1.12071 0.144553 0)
(0.0234455 -0.298393 0)
(0.0544826 -0.297213 0)
(0.09139 -0.296475 0)
(0.121062 -0.299363 0)
(0.147757 -0.289943 0)
(0.173329 -0.297233 0)
(0.189291 -0.311606 0)
(0.22403 -0.353253 0)
(0.267625 -0.367272 0)
(0.346278 -0.428044 0)
(0.534775 -0.455074 0)
(0.678183 -0.0950058 0)
(0.464158 0.156034 0)
(0.424474 -0.36121 0)
(0.440463 -0.459814 0)
(0.595915 -0.509598 0)
(0.626358 -0.376149 0)
(0.811295 0.306107 0)
(0.825173 -0.0155839 0)
(0.932786 -0.0742421 0)
(0.998125 -0.669377 0)
(1.42031 0.144507 0)
(1.25887 0.208144 0)
(0.0224418 -0.33299 0)
(0.0589438 -0.334537 0)
(0.0826242 -0.316552 0)
(0.113248 -0.324852 0)
(0.153117 -0.323622 0)
(0.160309 -0.31621 0)
(0.152099 -0.335606 0)
(0.176952 -0.377571 0)
(0.223654 -0.432452 0)
(0.381037 -0.604055 0)
(0.660928 -0.60959 0)
(1.00734 0.0101283 0)
(1.03313 0.281857 0)
(1.11567 0.000474594 0)
(1.35088 -0.508495 0)
(1.41493 -0.564504 0)
(1.39483 -0.529585 0)
(1.30013 -0.362106 0)
(1.32848 -0.268394 0)
(1.44878 -0.164 0)
(1.45319 0.028129 0)
(1.57856 0.214895 0)
(1.61326 -0.381543 0)
(0.0472645 -0.381413 0)
(0.0465309 -0.349685 0)
(0.115383 -0.359568 0)
(0.129616 -0.374877 0)
(0.169786 -0.33374 0)
(0.154357 -0.317728 0)
(0.14023 -0.348215 0)
(0.147481 -0.442624 0)
(0.27127 -0.610971 0)
(0.5843 -0.848473 0)
(0.632189 -0.566928 0)
(0.929726 -0.790526 0)
(1.09222 -0.585065 0)
(1.35552 -0.676452 0)
(1.54189 -0.67788 0)
(1.62798 -0.525244 0)
(1.63842 -0.378873 0)
(1.5969 -0.144148 0)
(1.65222 -0.142829 0)
(1.63747 -0.149257 0)
(1.63691 -0.209248 0)
(1.62179 -0.0663218 0)
(1.67042 0.328173 0)
(0.00503342 -0.434011 0)
(0.0200761 -0.405549 0)
(0.0950342 -0.39309 0)
(0.12173 -0.386578 0)
(0.189881 -0.34683 0)
(0.208377 -0.29383 0)
(0.335143 -0.344321 0)
(0.350166 -0.56337 0)
(0.505849 -0.867778 0)
(0.678488 -0.882545 0)
(0.813916 -0.913692 0)
(0.948856 -1.04438 0)
(1.16208 -1.0171 0)
(1.38759 -1.00732 0)
(1.42075 -0.810777 0)
(1.55628 -0.644326 0)
(1.64492 -0.351034 0)
(1.4581 -0.111565 0)
(1.44905 0.0927379 0)
(1.38205 -0.0655081 0)
(1.46296 -0.0544085 0)
(1.89582 0.12136 0)
(1.81338 0.296929 0)
(0.0178574 -0.437936 0)
(0.0173477 -0.44545 0)
(0.0766247 -0.466373 0)
(0.149805 -0.44648 0)
(0.219319 -0.406378 0)
(0.258622 -0.410341 0)
(0.435225 -0.46344 0)
(0.437051 -0.599099 0)
(0.640067 -0.659508 0)
(0.639727 -0.883559 0)
(0.83918 -1.01822 0)
(0.761362 -1.14663 0)
(1.02262 -1.163 0)
(0.934431 -1.11435 0)
(0.904221 -0.931349 0)
(1.1557 -0.667765 0)
(1.33889 -0.238004 0)
(1.35515 0.109733 0)
(1.25322 -0.0352345 0)
(1.04059 -0.0350431 0)
(1.10155 0.0352083 0)
(1.15372 0.107779 0)
(1.17818 0.106291 0)
(-0.0105298 -0.448323 0)
(0.0486277 -0.475004 0)
(0.0681611 -0.529812 0)
(0.127802 -0.517663 0)
(0.179354 -0.487586 0)
(0.199529 -0.54379 0)
(0.380262 -0.596788 0)
(0.387454 -0.64944 0)
(0.457256 -0.592511 0)
(0.448213 -0.736802 0)
(0.514957 -0.931756 0)
(0.253749 -1.07595 0)
(0.436607 -1.20706 0)
(0.186083 -1.06826 0)
(0.198704 -0.891428 0)
(0.556541 -0.332628 0)
(0.732599 -0.299951 0)
(0.786919 -0.314552 0)
(0.708231 -0.390458 0)
(0.646441 -0.189108 0)
(0.793438 -0.0733829 0)
(1.27879 -0.0197395 0)
(1.22911 -0.0492727 0)
(-0.0166816 -0.488604 0)
(0.0789938 -0.497311 0)
(0.071855 -0.608255 0)
(0.111168 -0.564229 0)
(0.103806 -0.536141 0)
(0.175548 -0.579672 0)
(0.434269 -0.626442 0)
(0.36087 -0.721397 0)
(0.333018 -0.770679 0)
(0.355783 -0.889848 0)
(0.300299 -1.2279 0)
(0.0363967 -1.0984 0)
(0.123479 -1.15325 0)
(-0.0493995 -0.954573 0)
(-0.0690872 -0.816666 0)
(-0.0824803 -0.671467 0)
(0.03333 -0.385829 0)
(0.118069 -0.462632 0)
(0.175171 -0.20934 0)
(0.373868 0.0175288 0)
(0.838373 0.111 0)
(0.836902 0.00843661 0)
(1.00843 -0.397635 0)
(-0.00730798 -0.500059 0)
(0.0797181 -0.511267 0)
(0.0558307 -0.665592 0)
(0.0968818 -0.587872 0)
(0.106059 -0.553132 0)
(0.219484 -0.579811 0)
(0.281719 -0.705629 0)
(0.155264 -0.857015 0)
(0.411178 -0.990379 0)
(0.274121 -1.22234 0)
(0.140725 -1.30743 0)
(-0.0118619 -1.00464 0)
(0.0196206 -1.01121 0)
(-0.102917 -0.930627 0)
(-0.191536 -0.888915 0)
(-0.122863 -0.743746 0)
(0.0238756 -0.452325 0)
(0.0838567 -0.437972 0)
(0.0102662 -0.562076 0)
(0.108185 -0.375453 0)
(0.591221 -0.156176 0)
(0.697615 -0.311401 0)
(0.92284 -0.295903 0)
(-0.00505842 -0.502374 0)
(0.041162 -0.52987 0)
(0.0358247 -0.676896 0)
(0.103746 -0.580464 0)
(0.124565 -0.545531 0)
(0.172268 -0.619687 0)
(0.210374 -0.778693 0)
(0.0578084 -0.903641 0)
(0.197666 -1.14278 0)
(0.178662 -1.32648 0)
(0.166292 -1.15685 0)
(-0.0406497 -0.981222 0)
(-0.0627404 -1.04267 0)
(-0.102915 -1.0057 0)
(-0.14383 -0.790606 0)
(-0.196844 -0.505631 0)
(-0.00722282 -0.535642 0)
(0.0701461 -0.399407 0)
(0.0935854 -0.731193 0)
(0.394691 -0.590702 0)
(0.706749 -0.365483 0)
(0.795633 -0.444912 0)
(1.01459 -0.451125 0)
(0.00692014 -0.533567 0)
(0.0366335 -0.557929 0)
(0.042273 -0.689069 0)
(0.0779523 -0.592557 0)
(0.100863 -0.518918 0)
(0.0912801 -0.642342 0)
(0.0635389 -0.742004 0)
(-0.0433711 -0.887425 0)
(0.00767841 -0.885535 0)
(0.204255 -1.18584 0)
(0.256028 -1.13104 0)
(-0.0784464 -1.07531 0)
(-0.253684 -0.989917 0)
(-0.0717053 -0.975003 0)
(0.0501072 -0.8593 0)
(-0.115633 -0.81946 0)
(-0.0263216 -0.730207 0)
(-0.0312886 -0.737827 0)
(0.0424791 -0.684 0)
(0.451327 -0.63705 0)
(0.731032 -0.664133 0)
(1.05528 -0.68097 0)
(1.41963 -0.681363 0)
(0.0128516 -0.588924 0)
(0.0217161 -0.597434 0)
(0.0257557 -0.740873 0)
(0.082518 -0.624021 0)
(0.0824443 -0.520061 0)
(0.0647959 -0.665336 0)
(0.0257514 -0.693521 0)
(-0.0195884 -0.757207 0)
(-0.100744 -0.790557 0)
(-0.0392945 -0.944303 0)
(0.205549 -1.03757 0)
(-0.0625981 -1.10517 0)
(-0.121833 -0.977973 0)
(-0.0849482 -0.917862 0)
(-0.0424092 -0.991794 0)
(-0.0788898 -1.07476 0)
(0.0304899 -0.881475 0)
(0.123402 -0.950996 0)
(0.262134 -0.730152 0)
(0.511659 -0.776085 0)
(0.808643 -0.748198 0)
(1.22376 -0.864707 0)
(1.47628 -0.849137 0)
(0.019691 -0.602368 0)
(0.011657 -0.608652 0)
(0.0294956 -0.761057 0)
(0.0739392 -0.617774 0)
(0.0634632 -0.474429 0)
(0.00875453 -0.609614 0)
(0.00665412 -0.685006 0)
(-0.0322059 -0.718249 0)
(-0.0665501 -0.79726 0)
(-0.0448841 -0.803733 0)
(-0.0301218 -0.959769 0)
(-0.127907 -0.935629 0)
(-0.203644 -0.935923 0)
(-0.15119 -0.927396 0)
(-0.144442 -0.920522 0)
(0.0447471 -0.782235 0)
(0.031261 -0.933251 0)
(0.156862 -1.0162 0)
(0.287512 -0.890224 0)
(0.566415 -0.893125 0)
(0.747363 -0.993557 0)
(1.20586 -1.02744 0)
(1.12194 -1.0955 0)
(0.018617 -0.50934 0)
(-0.0143511 -0.533835 0)
(0.0475829 -0.737186 0)
(0.116109 -0.554323 0)
(0.0136724 -0.600333 0)
(-0.0449628 -0.55131 0)
(-0.0186338 -0.624274 0)
(-0.0839832 -0.665619 0)
(-0.0703271 -0.781971 0)
(-0.0886609 -0.830272 0)
(-0.0561461 -0.896564 0)
(-0.122659 -0.963571 0)
(-0.199304 -0.959819 0)
(-0.0657345 -0.81375 0)
(-0.0747202 -0.806179 0)
(-0.0658743 -0.608825 0)
(-0.182233 -0.894765 0)
(0.0948908 -0.923387 0)
(0.341107 -0.890842 0)
(0.473068 -1.02941 0)
(0.718145 -1.09176 0)
(0.984159 -1.1005 0)
(1.10901 -1.41975 0)
(-0.0171315 -0.913361 0)
(-0.119435 -0.889424 0)
(0.0245464 -0.737319 0)
(-0.0746306 -0.954613 0)
(-0.0162594 -0.934669 0)
(0.0724004 -0.928123 0)
(-0.112987 -0.817496 0)
(-0.153076 -0.661327 0)
(-0.0869201 -0.831652 0)
(-0.0750544 -0.865694 0)
(-0.117988 -0.907559 0)
(-0.0963702 -0.995449 0)
(-0.000611024 -1.01631 0)
(0.00751748 -0.819139 0)
(-0.0336139 -0.798647 0)
(-0.13364 -0.882123 0)
(-0.202223 -0.92586 0)
(0.0697207 -0.895532 0)
(0.186543 -0.945535 0)
(0.296218 -1.07094 0)
(0.684516 -1.22637 0)
(0.664349 -1.42563 0)
(0.885396 -1.66243 0)
(0.000982602 -1.09779 0)
(0.133557 -1.11456 0)
(0.00219933 -1.11258 0)
(-0.17567 -1.09977 0)
(-0.039276 -1.05409 0)
(-0.0428919 -1.12597 0)
(0.141388 -0.994385 0)
(-0.0587143 -1.02701 0)
(-0.156413 -0.847447 0)
(-0.00998706 -0.884863 0)
(-0.0516945 -0.942591 0)
(-0.0898912 -0.952665 0)
(0.098173 -0.834742 0)
(0.151032 -0.982565 0)
(-0.15402 -1.06715 0)
(-0.192073 -1.1683 0)
(-0.115735 -1.04457 0)
(0.0343932 -1.02882 0)
(0.161358 -1.04506 0)
(0.239602 -1.14653 0)
(0.395298 -1.32066 0)
(0.592841 -1.6328 0)
(0.768849 -1.96576 0)
(-0.00466225 -1.11877 0)
(0.022535 -1.15344 0)
(-0.00259288 -1.22172 0)
(-0.0999414 -1.10427 0)
(-0.0175765 -1.11868 0)
(-0.0121575 -1.12514 0)
(-0.0124209 -1.02467 0)
(-0.00907289 -1.21166 0)
(0.0968562 -0.839496 0)
(0.014989 -0.838132 0)
(-0.0227601 -0.956195 0)
(0.125619 -0.979102 0)
(-0.0335085 -1.07059 0)
(-0.0810231 -1.19187 0)
(-0.029999 -1.22735 0)
(-0.0172876 -1.26055 0)
(-0.0321148 -1.09424 0)
(0.0142903 -1.08549 0)
(0.0989097 -1.05264 0)
(0.0975486 -1.19336 0)
(0.176467 -1.39962 0)
(0.257993 -1.62608 0)
(0.325855 -2.02082 0)
(-0.0077666 -1.11666 0)
(0.00802383 -1.14579 0)
(-0.0148372 -1.12799 0)
(-0.0975778 -1.12898 0)
(-0.0127633 -1.16635 0)
(-0.0152234 -1.1523 0)
(-0.110996 -1.1484 0)
(0.105594 -0.909705 0)
(0.224504 -0.899648 0)
(0.0651772 -1.03298 0)
(-0.119112 -1.00434 0)
(0.0167839 -1.07668 0)
(-0.0175897 -1.2135 0)
(-0.0411341 -1.17385 0)
(-0.0835034 -1.24332 0)
(0.0219436 -1.25864 0)
(-0.0104151 -1.16319 0)
(0.0547008 -1.19318 0)
(0.0793026 -1.0501 0)
(-0.0301528 -1.27427 0)
(-0.0295562 -1.44342 0)
(-0.000782272 -1.73707 0)
(0.140081 -2.05266 0)
(-0.012994 -1.09701 0)
(-0.0127705 -1.12412 0)
(-0.0989209 -1.11258 0)
(-0.163837 -1.14254 0)
(0.0232596 -0.853637 0)
(0.0219086 -1.1737 0)
(0.0547836 -0.81813 0)
(0.195163 -0.757531 0)
(0.0443783 -0.834229 0)
(0.023865 -1.10685 0)
(-0.037023 -1.01786 0)
(-0.0208431 -1.08412 0)
(-0.0357787 -1.09194 0)
(-0.127974 -1.15365 0)
(-0.108813 -1.22881 0)
(0.0438133 -1.06404 0)
(-0.00158533 -1.18929 0)
(0.116115 -1.21232 0)
(0.0162401 -1.38769 0)
(-0.100041 -1.32604 0)
(-0.165116 -1.47324 0)
(-0.174352 -1.67159 0)
(-0.258811 -2.08769 0)
(-0.0133437 -1.11624 0)
(-0.00863168 -1.14226 0)
(-0.132783 -1.08347 0)
(0.0709407 -0.789842 0)
(0.00929767 -0.72861 0)
(0.0524214 -0.784904 0)
(0.152319 -0.68208 0)
(0.123056 -0.668222 0)
(-0.00525186 -0.779964 0)
(-0.0458741 -0.926342 0)
(-0.0683942 -0.978499 0)
(-0.0723741 -1.0398 0)
(-0.0809973 -1.05691 0)
(-0.163905 -1.13618 0)
(0.028145 -1.04501 0)
(0.0955481 -1.12863 0)
(-0.099391 -1.15237 0)
(-0.105981 -1.23756 0)
(-0.0441994 -1.49438 0)
(-0.0754077 -1.35179 0)
(-0.234255 -1.43829 0)
(-0.27302 -1.52313 0)
(-0.48444 -1.91547 0)
(-0.00943418 -0.707008 0)
(0.0283178 -0.742154 0)
(0.130454 -0.794658 0)
(0.15833 -0.631091 0)
(0.0513481 -0.703965 0)
(0.0849534 -0.65337 0)
(0.145283 -0.657711 0)
(0.0851862 -0.854449 0)
(-0.190654 -0.963226 0)
(-0.194817 -0.961324 0)
(-0.137433 -1.01555 0)
(-0.117611 -1.05255 0)
(-0.139659 -1.08218 0)
(-0.0905607 -1.19835 0)
(-0.0396839 -1.00461 0)
(0.0391439 -1.28097 0)
(-0.0236851 -1.10298 0)
(-0.200391 -1.243 0)
(-0.149674 -1.42176 0)
(-0.0759341 -1.30998 0)
(-0.255605 -1.4014 0)
(-0.464344 -1.56122 0)
(-0.772364 -2.12204 0)
(-0.0106002 -0.571301 0)
(0.0186978 -0.608284 0)
(0.0228399 -0.591777 0)
(0.0763513 -0.537371 0)
(0.0224381 -0.614459 0)
(0.105167 -0.646222 0)
(-0.116435 -0.964966 0)
(-0.201749 -1.04271 0)
(-0.174915 -1.06675 0)
(-0.14906 -1.00703 0)
(-0.159811 -1.00509 0)
(-0.15859 -1.01208 0)
(-0.23804 -1.04014 0)
(-0.0998586 -0.982503 0)
(-0.0262093 -1.11089 0)
(0.133235 -1.3075 0)
(-0.0106272 -1.33235 0)
(-0.297335 -1.29535 0)
(-0.182043 -1.41466 0)
(-0.0263493 -1.3 0)
(-0.400904 -1.54337 0)
(-0.831269 -1.6398 0)
(-0.900463 -2.1591 0)
(-0.0101884 -0.57247 0)
(0.0320623 -0.608504 0)
(0.0868845 -0.690292 0)
(0.138676 -0.807332 0)
(-0.0640436 -0.947329 0)
(-0.230751 -0.949874 0)
(-0.232202 -1.07478 0)
(-0.13535 -1.0295 0)
(-0.133059 -1.00218 0)
(-0.149138 -0.991372 0)
(-0.155719 -0.986835 0)
(-0.153105 -0.984174 0)
(-0.178911 -0.990601 0)
(-0.179799 -0.920072 0)
(-0.215025 -1.06729 0)
(-0.104214 -1.05011 0)
(0.0437256 -1.3963 0)
(-0.211038 -1.1779 0)
(-0.158353 -1.21242 0)
(-0.226316 -1.45942 0)
(-0.463482 -1.6129 0)
(-0.937109 -1.55233 0)
(-1.30737 -1.82069 0)
(0.0105334 -0.966904 0)
(-0.0129853 -1.00108 0)
(-0.156527 -0.999519 0)
(-0.18634 -1.04504 0)
(-0.141473 -1.07689 0)
(-0.189862 -1.12358 0)
(-0.14445 -1.05503 0)
(-0.113405 -1.0047 0)
(-0.137893 -1.01357 0)
(-0.138553 -1.00093 0)
(-0.155289 -0.999374 0)
(-0.161954 -0.994297 0)
(-0.180123 -0.998806 0)
(-0.18837 -0.953475 0)
(-0.179425 -0.984332 0)
(-0.199521 -0.971933 0)
(-0.135992 -1.25139 0)
(-0.161532 -1.1173 0)
(-0.377305 -1.20909 0)
(-0.452466 -1.32707 0)
(-0.369016 -1.5059 0)
(-0.996151 -1.58522 0)
(-1.43214 -1.59963 0)
(-0.00847947 -1.09059 0)
(-0.0240994 -1.12529 0)
(-0.0819519 -1.14842 0)
(-0.111648 -1.08406 0)
(-0.131655 -1.0498 0)
(-0.1729 -1.03949 0)
(-0.14169 -0.98823 0)
(-0.108518 -1.00707 0)
(-0.138125 -0.983935 0)
(-0.143062 -0.985566 0)
(-0.152019 -0.974712 0)
(-0.169609 -0.971376 0)
(-0.164412 -0.958677 0)
(-0.197427 -0.888086 0)
(-0.244902 -0.956668 0)
(-0.287007 -1.01147 0)
(-0.0917562 -1.05113 0)
(-0.208386 -1.28188 0)
(-0.401078 -1.32017 0)
(-0.467863 -1.22045 0)
(-0.723165 -1.34255 0)
(-0.928842 -1.58811 0)
(-1.27006 -1.39736 0)
(-0.0141907 -1.04126 0)
(-0.0362603 -1.06423 0)
(-0.0850838 -1.06121 0)
(-0.114912 -1.05173 0)
(-0.154105 -1.06172 0)
(-0.110771 -1.01207 0)
(-0.101405 -0.97436 0)
(-0.119531 -0.982915 0)
(-0.124069 -0.970252 0)
(-0.13755 -0.95929 0)
(-0.137174 -0.945036 0)
(-0.160126 -0.937127 0)
(-0.129565 -0.908647 0)
(-0.202421 -0.856794 0)
(-0.267343 -0.925529 0)
(-0.272859 -0.959948 0)
(-0.31373 -0.962124 0)
(-0.337368 -1.26931 0)
(-0.30929 -1.05264 0)
(-0.474797 -1.23785 0)
(-0.702925 -1.03433 0)
(-0.947743 -1.13692 0)
(-1.22851 -1.21054 0)
(-0.0184432 -1.04767 0)
(-0.0400769 -1.06681 0)
(-0.0752292 -1.05577 0)
(-0.117054 -1.05811 0)
(-0.0980626 -1.0007 0)
(-0.0954851 -0.97628 0)
(-0.104465 -0.974786 0)
(-0.110411 -0.969075 0)
(-0.111738 -0.960154 0)
(-0.121808 -0.953908 0)
(-0.120375 -0.947205 0)
(-0.126904 -0.950789 0)
(-0.0665906 -0.938211 0)
(-0.258122 -0.969864 0)
(-0.325647 -0.932171 0)
(-0.305584 -0.936308 0)
(-0.345671 -0.950934 0)
(-0.251147 -0.96027 0)
(-0.332792 -1.00384 0)
(-0.446856 -1.13919 0)
(-0.65781 -1.02533 0)
(-1.01697 -0.909739 0)
(-1.08918 -0.812247 0)
(-0.0186203 -1.03058 0)
(-0.0279495 -1.03438 0)
(-0.0832652 -1.03415 0)
(-0.0739054 -1.00458 0)
(-0.0704693 -0.984134 0)
(-0.0913177 -0.982447 0)
(-0.0935684 -0.970126 0)
(-0.10663 -0.965391 0)
(-0.105841 -0.959004 0)
(-0.122087 -0.959319 0)
(-0.133363 -0.958732 0)
(-0.157037 -0.971362 0)
(-0.164099 -0.982271 0)
(-0.226717 -1.02518 0)
(-0.241879 -0.887478 0)
(-0.267622 -0.868599 0)
(-0.301596 -0.854781 0)
(-0.360911 -0.856496 0)
(-0.392268 -1.04387 0)
(-0.45611 -1.05586 0)
(-0.421145 -1.13187 0)
(-0.673504 -0.77956 0)
(-1.13763 -0.664306 0)
(-0.00527737 -1.00931 0)
(-0.0262275 -1.01451 0)
(-0.0388571 -1.0091 0)
(-0.0628661 -0.973763 0)
(-0.0655728 -0.978323 0)
(-0.0795007 -0.962161 0)
(-0.0902779 -0.960025 0)
(-0.0953448 -0.948079 0)
(-0.105264 -0.942966 0)
(-0.114596 -0.939404 0)
(-0.126875 -0.932187 0)
(-0.147801 -0.927174 0)
(-0.165027 -0.913359 0)
(-0.226198 -0.902068 0)
(-0.240716 -0.827525 0)
(-0.276765 -0.822786 0)
(-0.309873 -0.806606 0)
(-0.394253 -0.837764 0)
(-0.474227 -0.862464 0)
(-0.46802 -0.735328 0)
(-0.336241 -0.734729 0)
(-0.552363 -0.801948 0)
(-1.00108 -0.654308 0)
(-0.0118513 -0.965272 0)
(-0.0194898 -0.974164 0)
(-0.0408196 -0.971548 0)
(-0.0467623 -0.966536 0)
(-0.0597223 -0.954307 0)
(-0.0675724 -0.953103 0)
(-0.0769106 -0.939814 0)
(-0.0878677 -0.936446 0)
(-0.0969217 -0.927931 0)
(-0.110554 -0.924093 0)
(-0.123083 -0.91697 0)
(-0.139324 -0.911178 0)
(-0.15496 -0.897633 0)
(-0.181293 -0.878922 0)
(-0.194676 -0.804074 0)
(-0.230175 -0.789048 0)
(-0.261255 -0.752787 0)
(-0.33575 -0.741232 0)
(-0.314727 -0.740485 0)
(-0.342816 -0.645506 0)
(-0.37265 -0.610714 0)
(-0.404676 -0.78397 0)
(-0.909768 -0.663893 0)
(-0.0030776 -0.948977 0)
(-0.0188841 -0.959852 0)
(-0.0249522 -0.955767 0)
(-0.0401853 -0.942229 0)
(-0.0461285 -0.939206 0)
(-0.059162 -0.92468 0)
(-0.0669204 -0.92043 0)
(-0.0791622 -0.906497 0)
(-0.0879023 -0.898026 0)
(-0.101715 -0.886754 0)
(-0.11332 -0.875204 0)
(-0.131726 -0.863373 0)
(-0.145748 -0.848523 0)
(-0.172531 -0.823298 0)
(-0.183804 -0.769485 0)
(-0.2244 -0.756401 0)
(-0.237637 -0.727067 0)
(-0.289585 -0.690516 0)
(-0.328141 -0.646998 0)
(-0.333578 -0.671534 0)
(-0.411958 -0.589243 0)
(-0.461022 -0.7303 0)
(-0.510747 -0.601282 0)
(-0.00728163 -0.923087 0)
(-0.01354 -0.933067 0)
(-0.0283533 -0.930187 0)
(-0.0338945 -0.925712 0)
(-0.0442535 -0.916669 0)
(-0.0510528 -0.913798 0)
(-0.0593736 -0.899989 0)
(-0.068011 -0.896837 0)
(-0.0762979 -0.882946 0)
(-0.0870975 -0.874373 0)
(-0.0966318 -0.858893 0)
(-0.110542 -0.84474 0)
(-0.120787 -0.824753 0)
(-0.140212 -0.801701 0)
(-0.147477 -0.746979 0)
(-0.182236 -0.722207 0)
(-0.210979 -0.681766 0)
(-0.245657 -0.661249 0)
(-0.269841 -0.629964 0)
(-0.267793 -0.619136 0)
(-0.453041 -0.563025 0)
(-0.447367 -0.48595 0)
(-0.412018 -0.464899 0)
(-0.00160156 -0.909764 0)
(-0.0119424 -0.920206 0)
(-0.0167524 -0.916973 0)
(-0.0272202 -0.908884 0)
(-0.0318155 -0.906094 0)
(-0.0409012 -0.893386 0)
(-0.0471108 -0.88776 0)
(-0.0546471 -0.872286 0)
(-0.0625377 -0.862021 0)
(-0.0709577 -0.845519 0)
(-0.0792951 -0.831656 0)
(-0.0917261 -0.811635 0)
(-0.10015 -0.794866 0)
(-0.119147 -0.766045 0)
(-0.124704 -0.726616 0)
(-0.155568 -0.699705 0)
(-0.173126 -0.665516 0)
(-0.202988 -0.630461 0)
(-0.257844 -0.618603 0)
(-0.273149 -0.675379 0)
(-0.287347 -0.57394 0)
(-0.334316 -0.398368 0)
(-0.264412 -0.415813 0)
(-0.00395213 -0.889593 0)
(-0.00777961 -0.898258 0)
(-0.0173706 -0.895157 0)
(-0.0206455 -0.891205 0)
(-0.028524 -0.884091 0)
(-0.0324003 -0.878756 0)
(-0.0379793 -0.868738 0)
(-0.0427243 -0.860859 0)
(-0.0461988 -0.84791 0)
(-0.0519542 -0.836014 0)
(-0.0535295 -0.818556 0)
(-0.0638058 -0.800625 0)
(-0.0670138 -0.777624 0)
(-0.0892478 -0.748182 0)
(-0.0882913 -0.70695 0)
(-0.124848 -0.669459 0)
(-0.148947 -0.627608 0)
(-0.177833 -0.583461 0)
(-0.260056 -0.553976 0)
(-0.204457 -0.492515 0)
(-0.163421 -0.50808 0)
(-0.213434 -0.382909 0)
(-0.240828 -0.315931 0)
(-0.000961556 -0.864392 0)
(-0.00526179 -0.871485 0)
(-0.00809666 -0.86928 0)
(-0.0126513 -0.864807 0)
(-0.0153137 -0.86034 0)
(-0.0196753 -0.852979 0)
(-0.0222951 -0.845754 0)
(-0.0263808 -0.835566 0)
(-0.0284442 -0.82475 0)
(-0.0326163 -0.811131 0)
(-0.0322908 -0.794999 0)
(-0.0394024 -0.777082 0)
(-0.0351618 -0.750373 0)
(-0.0570887 -0.721044 0)
(-0.043841 -0.688947 0)
(-0.0852937 -0.652537 0)
(-0.0984502 -0.610873 0)
(-0.124557 -0.558353 0)
(-0.151918 -0.523955 0)
(-0.171294 -0.418637 0)
(-0.178447 -0.434228 0)
(-0.200322 -0.375703 0)
(-0.221468 -0.425773 0)
(-0.00114879 -0.85855 0)
(-0.00433084 -0.864263 0)
(-0.00800091 -0.86154 0)
(-0.0111708 -0.857368 0)
(-0.0142749 -0.852126 0)
(-0.017188 -0.845663 0)
(-0.019564 -0.837629 0)
(-0.021975 -0.828742 0)
(-0.0230153 -0.817172 0)
(-0.02468 -0.804795 0)