/*--------------------------------*- C++ -*----------------------------------*\
| =========                 |                                                 |
| \\      /  F ield         | foam-extend: Open Source CFD                    |
|  \\    /   O peration     | Version:     4.1                                |
|   \\  /    A nd           | Web:         http://www.foam-extend.org         |
|    \\/     M anipulation  |                                                 |
\*---------------------------------------------------------------------------*/
FoamFile
{
    version     2.0;
    format      ascii;
    class       volScalarField;
    location    "0.55";
    object      alpha1;
}
// * * * * * * * * * * * * * * * * * * * * * * * * * * * * * * * * * * * * * //

dimensions      [0 0 0 0 0 0 0];

internalField   nonuniform List<scalar> 
2268
(
1
0.999999
1
1
0.999999
0.999992
0.999996
0.999978
0.999985
0.999819
0.999839
0.999873
0.999912
0.99994
0.999965
0.99998
0.999992
0.999997
0.999998
0.999974
0.99977
0.986834
0.561408
0.999996
0.999959
0.999993
0.999988
0.999979
0.999857
0.999923
0.999692
0.999813
0.999056
0.999357
0.999508
0.999606
0.999658
0.999803
0.99988
0.999951
0.999978
0.999991
0.999988
0.999972
0.99891
0.989321
0.999884
0.999398
0.999881
0.999817
0.999685
0.998758
0.999285
0.998076
0.998943
0.997884
0.997643
0.997682
0.997529
0.998
0.999174
0.999709
0.999887
0.999944
0.999969
0.999969
0.999859
0.998034
0.99074
0.998216
0.994575
0.99871
0.99822
0.996901
0.992885
0.995782
0.992506
0.99614
0.99435
0.992752
0.982588
0.986458
0.990601
0.994464
0.997598
0.998686
0.999276
0.999629
0.99987
0.999795
0.998354
0.990385
0.983783
0.965103
0.990768
0.987832
0.979615
0.973476
0.979934
0.972288
0.986102
0.986888
0.971684
0.96438
0.972744
0.97263
0.979407
0.990124
0.994506
0.997528
0.998634
0.99954
0.999639
0.998596
0.990127
0.910612
0.835122
0.951416
0.941165
0.90758
0.913569
0.864085
0.905715
0.955044
0.965257
0.953186
0.946777
0.937115
0.941417
0.951438
0.972936
0.98443
0.992895
0.995328
0.998018
0.999166
0.998369
0.98895
0.71731
0.494717
0.819785
0.798175
0.708268
0.761971
0.586065
0.782598
0.806124
0.866556
0.88187
0.896989
0.889542
0.91627
0.92262
0.956475
0.970392
0.98411
0.987412
0.99248
0.996744
0.99773
0.990349
0.562144
0.267597
0.588776
0.578895
0.442409
0.501569
0.185307
0.433909
0.545541
0.721108
0.804198
0.834982
0.839583
0.847401
0.876348
0.942195
0.95816
0.97178
0.971409
0.9748
0.981699
0.995453
0.990162
0.278889
0.300433
0.320119
0.357087
0.406139
0.487598
0.526522
0.546933
0.552311
0.551443
0.536612
0.510221
0.503533
0.499764
0.505253
0.451665
0.43222
0.186552
0.198898
0.267491
0.200893
0.124005
0.105264
0.215378
0.410794
0.512461
0.563283
0.576555
0.575718
0.568373
0.629976
0.694853
0.704793
0.721708
0.700362
0.659306
0.328877
0.239173
0.246368
0.105347
0.0328814
0.127096
0.314823
0.434839
0.51333
0.538124
0.543554
0.503765
0.328114
0.557341
0.688178
0.708063
0.736305
0.718517
0.673121
0.398974
0.273247
0.231326
0.0682214
0.00707461
0.0175216
0.157206
0.307887
0.398155
0.26191
0.506745
0.457403
0.232263
0.36511
0.612757
0.672066
0.743884
0.735976
0.709875
0.485147
0.302117
0.217771
0.0618186
0.0132881
0.00873736
0.0172022
0.102451
0.128761
0.0551025
0.189247
0.204312
0.211722
0.275552
0.443535
0.631819
0.740087
0.74872
0.732649
0.631696
0.349781
0.198679
0.0518402
0.0160106
0.028422
0.0165117
0.0200155
0.0163846
0.0287828
0.259356
0.226995
0.218672
0.22571
0.352456
0.60376
0.731597
0.753698
0.743394
0.694687
0.417179
0.176584
0.0348328
0.0400577
0.0617419
0.0372217
0.0200793
0.0201939
0.172531
0.418424
0.280846
0.273755
0.255446
0.373952
0.595817
0.722708
0.75429
0.746786
0.712897
0.493788
0.1224
0.0277964
0.0829927
0.106198
0.0454015
0.082002
0.0786299
0.0511475
0.230566
0.349829
0.410568
0.372488
0.459877
0.597965
0.713013
0.752261
0.746502
0.717737
0.526867
0.478817
0.214347
0.284671
0.353239
0.224374
0.225475
0.0874425
0.188445
0.275908
0.436443
0.576549
0.707354
0.657651
0.694764
0.801153
0.871532
0.889343
0.894579
0.889535
0.850517
0.84422
0.902299
0.973175
0.616997
0.207815
0.0865114
0.142831
0.0918151
0.0865927
0.05165
0.0765929
0.0799584
0.177368
0.265061
0.388133
0.388612
0.479102
0.638041
0.702879
0.728686
0.722677
0.696511
0.623159
0.612234
0.688339
0.866197
0.641622
0.255029
0.0722459
0.0446416
0.0532126
0.0508492
0.0371336
0.0411827
0.0311653
0.0359329
0.0619096
0.0934312
0.150321
0.263701
0.350327
0.494589
0.572436
0.581209
0.571345
0.533438
0.538106
0.563347
0.688435
0.557758
0.245783
0.0914392
0.0274377
0.0373639
0.0321341
0.0270214
0.0257135
0.0161146
0.0151484
0.0204368
0.0350823
0.110802
0.140676
0.167109
0.225003
0.342394
0.453626
0.502551
0.484216
0.479215
0.489983
0.551235
0.527238
0.158993
0.0416765
0.0226334
0.0242651
0.0216814
0.0191783
0.0167145
0.0124008
0.0124384
0.0190601
0.0130714
0.034249
0.0484674
0.0712253
0.105225
0.189583
0.237306
0.278915
0.275903
0.297212
0.354734
0.410994
0.502759
0.130508
0.0103587
0.0133251
0.0156612
0.0131578
0.0136163
0.0129652
0.0101914
0.00965206
0.0157951
0.007129
0.019418
0.042106
0.0729025
0.137661
0.250946
0.20781
0.205619
0.220145
0.264688
0.324314
0.364414
0.116249
0.0121935
0.00750898
0.00787425
0.00977389
0.0070325
0.00767547
0.00860321
0.00869182
0.00930413
0.0149551
0.0157787
0.0131031
0.0206655
0.0580396
0.120433
0.121775
0.0695954
0.0411925
0.0806069
0.163552
0.208321
0.245231
0.00540189
0.00506067
0.00583782
0.00515767
0.00606268
0.00409201
0.00490134
0.00529142
0.00670751
0.00649787
0.0164669
0.0308842
0.00911499
0.00737056
0.00941304
0.031175
0.041404
0.0191539
0.00709995
0.0390707
0.0732659
0.0566561
0.0717617
0.00140844
0.00132909
0.00103355
0.00248465
0.00406667
0.0022195
0.0027049
0.00350295
0.00364649
0.00170253
0.00977635
0.0306759
0.0146004
0.00588863
0.00668193
0.0140567
0.00764151
0.00458251
0.00253433
0.00794978
0.0219825
0.00987181
0.0157047
0.00072544
0.000561651
0.000408176
0.000829362
0.00181834
0.00136977
0.00110258
0.00174759
0.00109984
0.000443209
0.00144032
0.0187075
0.00785788
0.00306528
0.00503725
0.00546346
0.00185454
0.00130215
0.00118578
0.00262618
0.00522298
0.00386444
0.00605041
0.000358119
0.000189404
0.000131478
0.00016544
0.000387482
0.000453925
0.000380828
0.000455926
0.0001419
0.000102027
0.00100018
0.0121872
0.00635568
0.00277586
0.00363655
0.00208172
0.00090867
0.000794865
0.000613377
0.000806125
0.000926894
0.00133581
0.00247315
0.000180835
7.08711e-05
3.97863e-05
2.24227e-05
3.44337e-05
7.21193e-05
7.14237e-05
4.20806e-05
1.0332e-05
3.96694e-05
0.000748032
0.00846674
0.00356333
0.0013514
0.0018136
0.000918825
0.000400068
0.0004659
0.000353366
0.000246095
0.000145827
0.000305872
0.00069154
8.06884e-05
2.28209e-05
1.8163e-05
1.1042e-06
1.74896e-06
2.4512e-06
2.11768e-06
6.60775e-07
1.64782e-06
4.9696e-05
0.00039688
0.00597493
0.00205197
0.00176192
0.000776349
0.000341784
0.000254094
0.000317773
0.00017809
6.35806e-05
1.58443e-05
2.57347e-05
0.000100827
3.04682e-05
5.7472e-06
6.75758e-06
6.20537e-08
1.39875e-08
8.17574e-08
1.0447e-07
4.41011e-08
1.11675e-06
5.1714e-05
0.000381438
0.0103006
0.000823396
0.00145758
0.000482337
0.000169386
0.000130463
0.000131822
7.68749e-05
2.20657e-05
2.52925e-06
1.37316e-06
5.39602e-06
6.56582e-06
1.0852e-06
1.42206e-06
7.55602e-09
6.39305e-10
1.37165e-08
1.26413e-08
1.13475e-08
1.13964e-06
3.27149e-05
0.000122263
0.00178309
0.000162608
0.000158398
0.000120327
5.53504e-05
3.76729e-05
2.52386e-05
2.59389e-05
1.58671e-05
6.59607e-07
2.94638e-07
2.28659e-07
1.84643e-06
2.92961e-07
3.23662e-07
2.54663e-09
2.71741e-10
2.83367e-09
1.76999e-09
9.37249e-09
2.01868e-06
2.90277e-05
4.94075e-05
0.000825429
6.42389e-05
5.50089e-05
1.64625e-05
3.55646e-06
2.68098e-06
1.49561e-06
1.53741e-06
7.65062e-07
8.08372e-08
6.42019e-08
1.60849e-07
2.46169e-07
5.4801e-08
6.73245e-08
1.31389e-09
6.95192e-11
3.0014e-10
1.91039e-10
1.02759e-08
1.05869e-07
1.43173e-06
1.33577e-05
5.73572e-05
4.0476e-06
3.42979e-06
2.22865e-06
1.09225e-07
1.47722e-07
3.38623e-08
3.10781e-08
2.07624e-08
1.07091e-08
6.50228e-09
2.343e-08
2.92182e-08
1.16483e-08
1.45626e-08
6.82624e-10
8.42298e-12
3.86595e-11
7.68027e-11
2.46776e-09
5.15457e-08
8.82576e-07
6.87573e-06
8.27016e-06
1.17064e-07
9.07641e-08
2.05651e-07
1.02644e-08
5.27521e-09
2.93481e-09
2.12364e-09
1.67354e-09
1.11424e-09
1.18368e-09
3.23986e-09
1.50618e-10
3.68482e-10
3.09944e-09
2.88566e-10
2.22261e-12
4.82359e-12
8.81895e-12
5.12226e-11
4.04001e-10
1.23684e-09
2.3249e-09
4.64515e-09
1.43787e-09
2.39183e-09
4.53621e-09
6.226e-09
1.70859e-09
5.51606e-10
1.99629e-10
1.19563e-10
6.94111e-11
1.53722e-10
3.58705e-10
1.38903e-11
3.92241e-11
7.12711e-10
7.70953e-11
3.2252e-13
4.08229e-13
6.9228e-13
3.76421e-12
9.029e-12
9.58089e-12
1.80235e-11
5.16867e-11
6.72095e-11
1.47325e-10
2.40133e-10
2.73539e-10
2.30255e-10
7.47413e-11
2.26484e-11
1.08137e-11
6.46949e-12
1.39663e-11
2.1286e-11
1.32261e-12
1.32683e-12
1.64452e-12
4.70735e-14
3.12528e-14
1.89848e-14
1.4283e-13
7.70883e-13
2.45415e-12
1.17517e-12
6.76903e-13
2.1384e-12
3.05073e-12
5.64598e-12
8.29398e-12
6.55381e-12
4.61997e-12
2.0921e-12
1.07925e-12
3.37674e-13
3.54494e-13
9.13769e-13
2.02038e-12
1.80467e-13
5.55112e-15
4.66849e-14
1.13798e-14
1.36557e-14
9.15934e-15
1.54321e-14
8.93174e-14
2.29594e-13
2.13052e-13
1.40998e-14
2.226e-14
5.83977e-14
9.03722e-14
2.01617e-13
4.03955e-13
5.92082e-13
1.66256e-13
1.34837e-13
2.22045e-14
4.00235e-14
1.48881e-13
2.47358e-13
2.66454e-14
0
9.10383e-15
8.77076e-15
1.18794e-14
9.10383e-15
9.76996e-15
8.65974e-15
9.54792e-15
1.07137e-14
8.82627e-15
1.09357e-14
1.21569e-14
1.21014e-14
1.36002e-14
3.16969e-14
3.4861e-14
1.45439e-14
6.71685e-15
2.05391e-15
4.16334e-15
1.00475e-14
3.58602e-14
6.66134e-15
0
1.06026e-14
1.01585e-14
1.12688e-14
1.19349e-14
9.9365e-15
8.38218e-15
1.15463e-14
1.17129e-14
9.54792e-15
1.08247e-14
1.02141e-14
7.54952e-15
7.99361e-15
9.88098e-15
8.21565e-15
6.10623e-15
5.16254e-15
2.77556e-15
2.16493e-15
5.60663e-15
1.84297e-14
6.82787e-15
0
1.06026e-14
8.82627e-15
1.24345e-14
1.40998e-14
8.43769e-15
7.66054e-15
9.10383e-15
1.0103e-14
1.07692e-14
1.16573e-14
1.29341e-14
1.0103e-14
8.38218e-15
8.16014e-15
7.49401e-15
5.27356e-15
5.10703e-15
4.27436e-15
3.33067e-15
4.66294e-15
1.67644e-14
5.05151e-15
0
1.08247e-14
9.76996e-15
1.2379e-14
1.31561e-14
1.07692e-14
6.38378e-15
8.88178e-15
1.06581e-14
8.82627e-15
1.09912e-14
1.30451e-14
1.02141e-14
9.4369e-15
1.06026e-14
7.60503e-15
5.21805e-15
4.66294e-15
4.27436e-15
4.996e-15
4.38538e-15
1.34892e-14
8.60423e-15
0
1.15463e-14
1.21014e-14
9.32587e-15
1.25455e-14
1.16573e-14
7.32747e-15
8.04912e-15
1.12133e-14
9.54792e-15
1.34892e-14
1.04916e-14
9.54792e-15
7.10543e-15
1.12133e-14
8.9373e-15
4.60743e-15
4.44089e-15
4.77396e-15
4.38538e-15
4.66294e-15
1.66533e-14
6.21725e-15
0
1.12688e-14
1.03251e-14
1.07692e-14
1.21014e-14
9.71445e-15
9.88098e-15
9.49241e-15
1.16573e-14
1.09912e-14
1.16573e-14
1.18794e-14
1.10467e-14
1.08802e-14
1.13243e-14
1.07692e-14
7.32747e-15
6.60583e-15
4.27436e-15
2.9976e-15
1.72085e-15
1.51545e-14
5.93969e-15
0
1.28231e-14
1.06026e-14
8.99281e-15
9.32587e-15
1.2379e-14
1.05471e-14
8.38218e-15
1.06026e-14
1.07137e-14
1.15463e-14
1.28786e-14
1.2379e-14
1.28786e-14
9.71445e-15
1.2268e-14
8.43769e-15
6.77236e-15
3.4972e-15
2.16493e-15
1.16573e-15
1.32672e-14
3.71925e-15
0
1.26565e-14
8.32667e-15
9.71445e-15
8.99281e-15
1.13798e-14
1.08247e-14
6.99441e-15
1.17684e-14
1.15463e-14
1.02696e-14
1.32117e-14
1.12688e-14
1.18239e-14
1.19349e-14
1.09357e-14
1.14353e-14
6.55032e-15
3.21965e-15
3.05311e-15
1.11022e-15
1.49325e-14
1.4988e-15
0
1.02696e-14
8.71525e-15
9.10383e-15
6.43929e-15
1.06026e-14
1.20459e-14
7.82707e-15
1.36557e-14
1.0103e-14
1.03251e-14
1.16573e-14
1.04361e-14
1.28786e-14
8.43769e-15
1.31006e-14
9.76996e-15
6.71685e-15
3.05311e-15
5.32907e-15
1.11022e-15
1.60427e-14
0
0
7.27196e-15
1.13243e-14
7.60503e-15
8.9373e-15
9.60343e-15
1.24345e-14
7.66054e-15
1.46549e-14
1.12688e-14
1.03251e-14
1.09357e-14
1.04916e-14
9.76996e-15
1.249e-14
1.33227e-14
9.27036e-15
6.82787e-15
3.21965e-15
2.16493e-15
1.9984e-15
1.60982e-14
0
0
6.55032e-15
7.10543e-15
7.88258e-15
7.32747e-15
1.09357e-14
8.16014e-15
7.32747e-15
1.16018e-14
9.99201e-15
1.06026e-14
9.71445e-15
7.82707e-15
7.32747e-15
1.10467e-14
8.60423e-15
1.07692e-14
1.07692e-14
7.27196e-15
2.16493e-15
2.05391e-15
1.92069e-14
0
0
6.88338e-15
6.27276e-15
4.82947e-15
8.9373e-15
8.82627e-15
7.60503e-15
5.55112e-15
8.27116e-15
9.27036e-15
1.04916e-14
7.32747e-15
4.10783e-15
3.55271e-15
1.16573e-14
8.99281e-15
1.04361e-14
9.4369e-15
6.05072e-15
3.05311e-15
1.94289e-15
1.7486e-14
0
0
5.82867e-15
6.10623e-15
6.4948e-15
1.17684e-14
1.01585e-14
6.21725e-15
6.4948e-15
6.05072e-15
7.88258e-15
9.71445e-15
5.32907e-15
1.33227e-15
2.72005e-15
6.66134e-15
3.33067e-15
1.2268e-14
6.82787e-15
7.82707e-15
2.16493e-15
1.38778e-15
1.42664e-14
0
0
8.49321e-15
5.05151e-15
7.54952e-15
9.60343e-15
4.60743e-15
3.9968e-15
5.21805e-15
5.21805e-15
7.99361e-15
7.04992e-15
4.94049e-15
5.4956e-15
5.27356e-15
5.38458e-15
4.27436e-15
6.27276e-15
4.44089e-15
7.49401e-15
4.10783e-15
9.4369e-16
1.57652e-14
0
0
1.23235e-14
8.54872e-15
5.32907e-15
9.38138e-15
6.10623e-15
1.72085e-15
1.94289e-15
4.16334e-15
4.4964e-15
5.32907e-15
2.88658e-15
8.99281e-15
1.05471e-15
4.38538e-15
4.27436e-15
5.4956e-15
3.33067e-15
5.4956e-15
3.27516e-15
3.10862e-15
1.70974e-14
0
0
1.56541e-14
9.4369e-15
5.16254e-15
9.9365e-15
6.10623e-15
3.16414e-15
3.44169e-15
3.66374e-15
5.05151e-15
5.05151e-15
4.10783e-15
8.65974e-15
7.60503e-15
6.77236e-15
4.60743e-15
6.10623e-15
5.4956e-15
3.77476e-15
3.71925e-15
9.99201e-16
1.59872e-14
0
0
1.90958e-14
1.08802e-14
7.54952e-15
1.37668e-14
3.21965e-15
4.32987e-15
8.60423e-15
6.32827e-15
5.88418e-15
3.71925e-15
6.05072e-15
1.14908e-14
7.77156e-15
8.49321e-15
5.66214e-15
1.02696e-14
6.66134e-15
5.27356e-15
5.38458e-15
4.32987e-15
1.45994e-14
0
4.21885e-15
2.20934e-14
1.68199e-14
1.19904e-14
1.85962e-14
8.27116e-15
6.71685e-15
1.08247e-14
6.38378e-15
1.12688e-14
5.21805e-15
5.27356e-15
1.54876e-14
9.76996e-15
8.65974e-15
1.2268e-14
1.34337e-14
9.21485e-15
9.76996e-15
9.38138e-15
8.60423e-15
8.38218e-15
0
7.82707e-15
2.76446e-14
2.18159e-14
1.62093e-14
1.94844e-14
1.249e-14
1.30451e-14
1.44329e-14
1.07692e-14
1.34892e-14
1.37113e-14
1.11577e-14
1.51545e-14
1.40998e-14
1.32117e-14
1.53211e-14
1.87628e-14
1.64868e-14
1.66533e-14
8.38218e-15
1.34337e-14
0
0
1.06026e-14
3.11418e-14
2.34812e-14
1.78746e-14
1.77636e-14
1.23235e-14
1.37113e-14
1.53211e-14
1.4766e-14
1.64313e-14
1.39333e-14
1.55431e-14
1.4877e-14
1.71529e-14
1.41553e-14
1.73195e-14
1.70419e-14
1.9762e-14
1.65423e-14
1.66533e-14
1.57652e-14
0
0.974413
0.974374
0.872914
0.111958
0.931344
0.964231
0.936719
0.876765
0.787685
0.866646
0.899899
0.906927
0.615586
0.673165
0.756185
0.83306
0.458023
0.496574
0.555308
0.649575
0.388717
0.409161
0.437175
0.482567
0.239521
0.246525
0.268148
0.317741
0.059953
0.0633388
0.109081
0.128221
0.0227128
0.0338656
0.0431175
0.0462983
0.0087444
0.012507
0.0174791
0.0200699
0.00320041
0.00214494
0.00396403
0.00516691
0.000567924
0.000321461
0.000426085
0.000520479
4.51657e-05
4.00033e-05
7.26801e-05
0.000144706
4.62777e-06
1.02849e-05
1.23086e-05
2.77934e-05
2.79245e-07
6.53098e-07
1.31845e-06
3.01659e-06
2.63577e-08
5.01702e-08
8.40983e-08
1.35474e-07
7.53759e-09
1.46773e-08
2.50913e-08
4.45116e-08
1.31832e-09
2.10187e-09
3.71062e-09
7.5701e-09
2.12911e-10
5.32608e-10
7.8502e-10
1.28213e-09
2.57749e-11
3.09962e-11
3.3911e-11
3.39636e-11
2.91656e-12
2.17648e-12
4.74148e-12
7.39203e-12
3.34177e-13
4.996e-13
8.99836e-13
1.47504e-12
4.4853e-14
7.64944e-14
1.22902e-13
1.71252e-13
4.21885e-15
3.4972e-15
1.34337e-14
1.90403e-14
2.77556e-15
1.77636e-15
4.996e-15
6.27276e-15
3.9968e-15
2.22045e-15
3.44169e-15
5.88418e-15
2.10942e-15
0
6.55032e-15
6.27276e-15
1.77636e-15
1.88738e-15
5.71765e-15
4.71845e-15
7.21645e-16
0
6.4948e-15
1.55431e-15
1.44329e-15
1.38778e-15
2.9976e-15
1.88738e-15
1.27676e-15
0
2.77556e-15
3.38618e-15
6.66134e-16
0
3.21965e-15
3.71925e-15
1.72085e-15
0
3.55271e-15
2.33147e-15
2.77556e-15
0
4.77396e-15
2.9976e-15
2.55351e-15
0
6.88338e-15
2.9976e-15
0
0
2.55351e-15
3.38618e-15
4.4964e-15
0
6.10623e-16
2.9976e-15
3.55271e-15
0
1.72085e-15
4.05231e-15
4.55191e-15
0
0
8.65974e-15
4.38538e-15
2.55351e-15
6.21725e-15
7.99361e-15
8.88178e-16
0
7.66054e-15
3.66374e-15
0
0
0
0
0.125825
0.156672
0.201261
0.250523
0.199864
0.243447
0.269304
0.219262
0.326395
0.332763
0.423083
0.443298
0.504178
0.593307
0.694897
0.747564
0.74351
0.71817
0.568748
0.854144
0.849234
0.814572
0.68014
0.777693
0.745132
0.744366
0.787053
0.824367
0.78997
0.777557
0.750483
0.768555
0.750175
0.737451
0.752379
0.74332
0.711909
0.583316
0.921966
0.927384
0.925745
0.925528
0.926011
0.924381
0.920886
0.915747
0.89384
0.803246
0.682138
0.487876
0.472399
0.439091
0.444676
0.49695
0.61408
0.671271
0.611815
0.865845
0.880237
0.893021
0.915875
0.927919
0.926053
0.909183
0.850232
0.626983
0.457268
0.316535
0.221025
0.203064
0.210124
0.231016
0.34644
0.544487
0.6471
0.622993
0.724493
0.757885
0.83658
0.879752
0.867264
0.864256
0.829559
0.686439
0.359862
0.182412
0.136511
0.131922
0.132522
0.13944
0.151839
0.32003
0.522678
0.640729
0.623902
0.55887
0.54206
0.619755
0.595531
0.538812
0.665322
0.719152
0.634317
0.341164
0.142235
0.0965265
0.0838214
0.0865338
0.0907338
0.0980109
0.250272
0.454686
0.639756
0.622547
0.329026
0.232922
0.243138
0.220759
0.254851
0.473074
0.540473
0.445467
0.189455
0.0749964
0.0592246
0.0474105
0.0477086
0.052429
0.074743
0.175422
0.398185
0.634407
0.617948
0.0952797
0.0892544
0.18437
0.192692
0.228363
0.368438
0.375301
0.229932
0.0652502
0.0316098
0.0363986
0.0308414
0.0224648
0.0298475
0.0483436
0.126963
0.342137
0.626281
0.608883
0.0456623
0.0925638
0.176188
0.120092
0.202534
0.317577
0.214484
0.0711772
0.0178385
0.0131241
0.0231042
0.024633
0.0164966
0.0205121
0.048838
0.119141
0.335785
0.611409
0.594595
0.0204121
0.0394797
0.111191
0.0756178
0.100965
0.154561
0.109182
0.0426401
0.0105483
0.00498989
0.0116301
0.0205155
0.0138978
0.0205082
0.0431166
0.094203
0.329198
0.584425
0.574715
0.00470959
0.0163669
0.0333887
0.0215812
0.0323691
0.0370632
0.0204069
0.00629235
0.00205287
0.00263427
0.00709811
0.00918024
0.0112316
0.021553
0.0497968
0.123214
0.312175
0.543925
0.549296
0.00095335
0.0044118
0.00379544
0.00223962
0.00692714
0.00753517
0.00178498
0.000945333
0.000998798
0.00267356
0.00491535
0.00709672
0.0103186
0.0249068
0.0522564
0.130785
0.296578
0.493272
0.520439
0.000273773
0.000850999
0.00035503
0.000455284
0.000910019
0.000505513
0.000295655
0.000856516
0.00158965
0.00302018
0.00589742
0.0104059
0.017129
0.0410971
0.0745516
0.146032
0.287303
0.456059
0.495854
6.22798e-05
6.94418e-05
2.59703e-05
7.1352e-05
0.000121475
0.000123529
0.000310874
0.000660913
0.00107496
0.00200781
0.00580642
0.0176314
0.0391308
0.0741529
0.113797
0.184993
0.285969
0.428621
0.478564
4.42961e-06
4.93201e-06
2.9524e-06
1.05833e-05
2.7941e-05
6.78717e-05
0.000195138
0.000404728
0.000680939
0.00121484
0.00267502
0.00687516
0.0138323
0.0370218
0.0761496
0.197838
0.308692
0.414976
0.467885
2.13568e-07
4.58419e-07
1.27144e-06
3.23875e-06
1.24715e-05
3.51931e-05
0.000102934
0.000293663
0.000589635
0.000907302
0.00117249
0.0021517
0.00360104
0.00811747
0.0367219
0.150646
0.319151
0.412101
0.460955
8.18551e-08
1.63806e-07
4.09073e-07
7.77705e-07
2.58178e-06
6.50279e-06
2.6054e-05
0.000112118
0.000356246
0.000541966
0.000549871
0.00143777
0.00217142
0.00260062
0.0134963
0.0750839
0.2672
0.407516
0.454439
1.49388e-08
2.75661e-08
7.07504e-08
1.47809e-07
4.60585e-07
1.02252e-06
5.16497e-06
2.14266e-05
8.7407e-05
0.000167943
0.000181751
0.000478752
0.00112146
0.00232554
0.0034781
0.0191202
0.103164
0.322583
0.439118
2.22592e-09
5.03332e-09
1.07415e-08
5.99016e-08
1.69633e-07
4.84056e-07
1.65772e-06
5.1993e-06
1.66527e-05
5.09652e-05
5.41898e-05
9.84529e-05
0.000506392
0.00237518
0.00250427
0.00540329
0.0266142
0.157023
0.42954
9.51238e-11
6.92599e-10
2.91565e-09
2.11462e-08
6.96631e-08
2.36586e-07
7.5118e-07
1.97841e-06
5.04654e-06
1.43132e-05
2.03209e-05
4.92716e-05
0.000233893
0.00166785
0.00246989
0.00518683
0.020257
0.119281
0.429461
3.20179e-11
1.44824e-10
8.21673e-10
4.59075e-09
1.82776e-08
9.17884e-08
2.99095e-07
8.25339e-07
2.18134e-06
5.30284e-06
1.17326e-05
2.69613e-05
0.000172173
0.00117267
0.00269834
0.00655273
0.020625
0.0977408
0.424038
4.89347e-12
2.53811e-11
1.25734e-10
5.98466e-10
2.76099e-09
1.5192e-08
4.79498e-08
1.8373e-07
5.9401e-07
1.07957e-06
3.01807e-06
7.00332e-06
6.48999e-05
0.000831386
0.00297911
0.007112
0.0189524
0.095881
0.41118
5.33962e-13
3.58397e-12
2.48876e-11
1.28933e-10
5.51445e-10
2.43488e-09
5.17307e-09
2.9385e-08
1.10636e-07
1.26531e-07
6.89111e-07
1.84045e-05
0.000111326
0.000629542
0.00291332
0.00613892
0.0135538
0.102167
0.401716
7.08322e-14
4.35152e-13
2.09238e-12
8.3264e-12
4.57558e-11
2.12631e-10
1.07897e-09
6.67182e-09
5.11625e-08
5.16247e-07
6.27707e-06
5.90284e-05
0.000270174
0.00107031
0.00318371
0.00526589
0.0167805
0.122775
0.397868
6.66134e-15
5.57332e-14
3.13527e-13
1.84597e-12
1.00986e-11
3.99514e-11
2.00499e-10
9.62703e-10
1.02173e-08
1.33735e-07
2.02724e-06
2.05967e-05
0.000175549
0.00113221
0.00343373
0.00685134
0.0383836
0.161513
0.394582
0
1.81521e-14
4.14113e-14
2.74336e-13
2.14928e-12
1.40234e-11
1.14206e-10
1.69094e-09
1.59899e-08
1.99025e-07
1.50247e-06
1.13252e-05
8.5188e-05
0.000733354
0.00325496
0.0104261
0.0462576
0.176362
0.388477
1.27676e-15
1.0103e-14
9.65894e-15
4.42424e-14
3.91298e-13
6.14969e-12
1.25703e-10
2.45775e-09
3.81385e-08
4.12524e-07
2.65494e-06
1.5533e-05
9.5905e-05
0.00058209
0.00322859
0.0111893
0.0474323
0.173626
0.375688
1.88738e-15
8.82627e-15
8.38218e-15
8.27116e-15
4.22995e-14
5.04596e-13
1.2396e-11
3.50616e-10
7.35718e-09
2.00333e-07
2.39538e-06
1.78996e-05
8.47766e-05
0.000421986
0.00253268
0.0110567
0.047076
0.165442
0.356146
2.72005e-15
8.38218e-15
8.21565e-15
8.16014e-15
2.05391e-14
3.53662e-13
7.04176e-12
1.20852e-10
2.69287e-09
3.38787e-08
1.49378e-06
1.64363e-05
0.000109306
0.0004439
0.00216019
0.0109141
0.0474187
0.162531
0.333905
9.99201e-16
8.60423e-15
8.21565e-15
4.44089e-15
7.04992e-15
9.81437e-14
2.63067e-12
9.34202e-11
1.38525e-09
2.34088e-08
2.92117e-07
3.11007e-06
4.45059e-05
0.000250762
0.00139073
0.0080189
0.0422249
0.157938
0.308096
2.16493e-15
7.93809e-15
5.77316e-15
6.82787e-15
1.42109e-14
2.5735e-13
4.36412e-12
6.18169e-11
2.31483e-09
1.38531e-08
1.23013e-07
2.18998e-06
1.18476e-05
7.90571e-05
0.000429465
0.00339595
0.0265307
0.126772
0.266771
0
5.82867e-15
2.83107e-15
6.99441e-15
6.245e-14
1.02796e-12
1.92203e-11
2.45265e-10
7.78819e-09
2.98823e-08
1.37489e-07
1.69384e-06
7.2142e-06
2.83346e-05
0.000100041
0.000743432
0.00957725
0.0561922
0.189338
0
7.10543e-15
1.83187e-15
1.39888e-14
1.70419e-13
2.78921e-12
3.56566e-11
5.2785e-10
1.5249e-08
8.82636e-08
5.41112e-07
7.19182e-06
4.73669e-05
0.000158454
0.000110106
0.000180342
0.00285522
0.0124362
0.105498
0
7.16094e-15
6.32827e-15
2.84772e-14
2.32037e-13
3.84859e-12
4.44086e-11
7.14759e-10
1.99215e-08
2.31051e-07
1.26707e-06
1.13816e-05
0.000112097
0.000479033
0.000322319
0.000202967
0.000895333
0.00172104
0.0640366
0
9.60343e-15
7.99361e-15
1.29896e-14
6.50591e-14
1.51895e-12
4.92915e-11
1.11441e-09
2.54409e-08
3.20992e-07
2.54687e-06
1.37e-05
7.94132e-05
0.000556106
0.000625161
0.000292492
0.000613295
0.0193038
0.0576349
0
9.15934e-15
8.49321e-15
1.82632e-14
2.39142e-13
3.36736e-12
9.17392e-11
1.48668e-09
3.03564e-08
2.99624e-07
3.12736e-06
1.77798e-05
0.000110762
0.000592641
0.000704747
0.000357849
0.000632466
0.0134971
0.0506502
0
8.65974e-15
7.49401e-15
7.38298e-15
6.18949e-14
4.02006e-12
3.64939e-11
1.11409e-09
3.52923e-08
1.65296e-07
1.47361e-06
1.35584e-05
0.000131325
0.000856215
0.000841196
0.000485388
0.000727826
0.0121923
0.0488636
0
8.10463e-15
6.93889e-15
7.77156e-15
1.38778e-14
1.06748e-13
2.64561e-12
7.33278e-11
8.06801e-10
1.81865e-08
5.29018e-07
5.50043e-06
5.17156e-05
0.00104003
0.00092706
0.000543128
0.000794951
0.0108329
0.0463909
1.38778e-15
5.66214e-15
2.16493e-15
4.21885e-15
1.31006e-14
2.50022e-13
4.01107e-12
5.85542e-11
4.10117e-10
1.32172e-08
4.00247e-07
1.85938e-06
1.36424e-05
0.000256297
0.000831107
0.000523162
0.000760471
0.00876979
0.0428745
5.93969e-15
1.04361e-14
0
2.44249e-15
5.38458e-15
2.35922e-14
5.8592e-13
6.80334e-12
9.46216e-11
3.84493e-09
1.06756e-07
2.15186e-07
1.53616e-06
1.82836e-05
0.000738016
0.000549613
0.000716318
0.00628398
0.0375536
1.55986e-14
6.71685e-15
0
6.66134e-16
1.66533e-16
5.55112e-16
1.11022e-15
4.19331e-13
2.18264e-12
3.0698e-11
2.68015e-09
4.04251e-09
4.19893e-08
3.05317e-07
7.70546e-05
0.000397165
0.000619443
0.00274971
0.0292634
6.88338e-15
1.32117e-14
0
5.27356e-15
6.60583e-15
6.66134e-15
3.77476e-15
1.33227e-15
1.4444e-13
7.48385e-12
4.37992e-11
1.09761e-09
7.94688e-09
3.95645e-08
2.67852e-07
0.000127718
0.000397925
0.00072603
0.0136591
)
;

boundaryField
{
    leftWall
    {
        type            zeroGradient;
    }
    rightWall
    {
        type            zeroGradient;
    }
    lowerWall
    {
        type            zeroGradient;
    }
    atmosphere
    {
        type            inletOutlet;
        inletValue      uniform 0;
        value           nonuniform List<scalar> 
46
(
0
1.06026e-14
3.11418e-14
2.34812e-14
1.78746e-14
1.77636e-14
1.23235e-14
1.37113e-14
1.53211e-14
1.4766e-14
1.64313e-14
1.39333e-14
1.55431e-14
1.4877e-14
1.71529e-14
1.41553e-14
1.73195e-14
1.70419e-14
1.9762e-14
1.65423e-14
1.66533e-14
1.57652e-14
0
0
0
0
0
6.88338e-15
1.32117e-14
0
5.27356e-15
6.60583e-15
6.66134e-15
3.77476e-15
1.33227e-15
1.4444e-13
7.48385e-12
4.37992e-11
1.09761e-09
7.94688e-09
3.95645e-08
2.67852e-07
0.000127718
0.000397925
0.00072603
0.0136591
)
;
    }
    defaultFaces
    {
        type            empty;
    }
}


// ************************************************************************* //
