/*--------------------------------*- C++ -*----------------------------------*\
| =========                 |                                                 |
| \\      /  F ield         | foam-extend: Open Source CFD                    |
|  \\    /   O peration     | Version:     4.1                                |
|   \\  /    A nd           | Web:         http://www.foam-extend.org         |
|    \\/     M anipulation  |                                                 |
\*---------------------------------------------------------------------------*/
FoamFile
{
    version     2.0;
    format      ascii;
    class       volScalarField;
    location    "0.55";
    object      C;
}
// * * * * * * * * * * * * * * * * * * * * * * * * * * * * * * * * * * * * * //

dimensions      [0 0 0 0 0 0 0];

internalField   nonuniform List<scalar> 
2268
(
1
0.999997
1
0.999999
0.999999
0.999984
0.999991
0.999956
0.99997
0.999638
0.999678
0.999746
0.999823
0.999881
0.999929
0.99996
0.999983
0.999995
0.999996
0.999948
0.99954
0.973667
0.122817
0.999992
0.999918
0.999985
0.999977
0.999959
0.999713
0.999845
0.999384
0.999627
0.998112
0.998714
0.999015
0.999213
0.999315
0.999606
0.999759
0.999901
0.999955
0.999983
0.999976
0.999943
0.99782
0.978641
0.999768
0.998797
0.999763
0.999634
0.99937
0.997516
0.998569
0.996152
0.997886
0.995767
0.995286
0.995364
0.995059
0.995999
0.998349
0.999418
0.999774
0.999889
0.999938
0.999937
0.999718
0.996068
0.98148
0.996432
0.989149
0.997419
0.99644
0.993802
0.985769
0.991564
0.985013
0.99228
0.988701
0.985503
0.965176
0.972915
0.981202
0.988929
0.995195
0.997372
0.998551
0.999258
0.99974
0.999589
0.996707
0.980771
0.967566
0.930205
0.981537
0.975664
0.95923
0.946951
0.959869
0.944575
0.972204
0.973777
0.943369
0.928761
0.945489
0.94526
0.958814
0.980248
0.989012
0.995056
0.997269
0.999081
0.999277
0.997192
0.980254
0.821223
0.670245
0.902832
0.882331
0.81516
0.827139
0.728171
0.81143
0.910089
0.930515
0.906372
0.893555
0.874231
0.882835
0.902877
0.945871
0.968861
0.98579
0.990655
0.996036
0.998332
0.996738
0.9779
0.43462
-0.0105656
0.639571
0.596349
0.416537
0.523941
0.17213
0.565197
0.612248
0.733111
0.76374
0.793977
0.779083
0.832541
0.845241
0.91295
0.940784
0.96822
0.974825
0.984959
0.993488
0.995459
0.980697
0.124287
-0.464806
0.177552
0.15779
-0.115181
0.00313832
-0.629386
-0.132183
0.0910828
0.442216
0.608397
0.669963
0.679165
0.694802
0.752696
0.884391
0.91632
0.943559
0.942818
0.9496
0.963397
0.990905
0.980323
-0.442222
-0.399135
-0.359762
-0.285826
-0.187722
-0.0248044
0.0530443
0.0938655
0.104622
0.102886
0.073225
0.0204418
0.00706556
-0.000472499
0.0105061
-0.0966697
-0.135559
-0.626897
-0.602204
-0.465017
-0.598214
-0.751991
-0.789471
-0.569243
-0.178412
0.0249214
0.126566
0.153111
0.151435
0.136746
0.259951
0.389705
0.409585
0.443417
0.400723
0.318612
-0.342245
-0.521654
-0.507264
-0.789305
-0.934237
-0.745808
-0.370353
-0.130321
0.0266594
0.0762481
0.0871072
0.00752976
-0.343771
0.114681
0.376357
0.416126
0.47261
0.437034
0.346242
-0.202051
-0.453505
-0.537349
-0.863557
-0.985851
-0.964957
-0.685589
-0.384226
-0.20369
-0.476181
0.0134892
-0.0851931
-0.535474
-0.269781
0.225514
0.344132
0.487768
0.471951
0.419749
-0.0297067
-0.395766
-0.564457
-0.876363
-0.973424
-0.982525
-0.965596
-0.795097
-0.742478
-0.889795
-0.621506
-0.591377
-0.576556
-0.448895
-0.11293
0.263638
0.480174
0.497439
0.465299
0.263391
-0.300439
-0.602643
-0.89632
-0.967979
-0.943156
-0.966977
-0.959969
-0.967231
-0.942434
-0.481288
-0.54601
-0.562656
-0.54858
-0.295088
0.207521
0.463195
0.507397
0.486788
0.389373
-0.165641
-0.646831
-0.930334
-0.919885
-0.876516
-0.925557
-0.959841
-0.959612
-0.654937
-0.163151
-0.438307
-0.452491
-0.489108
-0.252096
0.191633
0.445415
0.50858
0.493572
0.425794
-0.0124249
-0.7552
-0.944407
-0.834015
-0.787604
-0.909197
-0.835996
-0.84274
-0.897705
-0.538868
-0.300343
-0.178864
-0.255025
-0.0802462
0.195929
0.426026
0.504522
0.493003
0.435474
0.0537334
-0.0423651
-0.571306
-0.430658
-0.293522
-0.551252
-0.549051
-0.825115
-0.62311
-0.448184
-0.127115
0.153099
0.414709
0.315301
0.389527
0.602305
0.743064
0.778685
0.789158
0.779071
0.701033
0.68844
0.804597
0.94635
0.233994
-0.58437
-0.826977
-0.714339
-0.81637
-0.826815
-0.8967
-0.846814
-0.840083
-0.645264
-0.469878
-0.223734
-0.222776
-0.0417966
0.276081
0.405758
0.457372
0.445354
0.393023
0.246319
0.224469
0.376678
0.732393
0.283245
-0.489942
-0.855508
-0.910717
-0.893575
-0.898302
-0.925733
-0.917635
-0.937669
-0.928134
-0.876181
-0.813138
-0.699359
-0.472598
-0.299345
-0.0108227
0.144871
0.162418
0.142689
0.0668763
0.0762113
0.126694
0.37687
0.115515
-0.508433
-0.817122
-0.945125
-0.925272
-0.935732
-0.945957
-0.948573
-0.967771
-0.969703
-0.959126
-0.929835
-0.778395
-0.718648
-0.665782
-0.549994
-0.315212
-0.0927482
0.00510156
-0.0315672
-0.0415694
-0.0200349
0.10247
0.0544756
-0.682013
-0.916647
-0.954733
-0.95147
-0.956637
-0.961643
-0.966571
-0.975198
-0.975123
-0.96188
-0.973857
-0.931502
-0.903065
-0.857549
-0.78955
-0.620834
-0.525388
-0.44217
-0.448194
-0.405575
-0.290532
-0.178013
0.00551752
-0.738984
-0.979283
-0.97335
-0.968678
-0.973684
-0.972767
-0.97407
-0.979617
-0.980696
-0.96841
-0.985742
-0.961164
-0.915788
-0.854195
-0.724677
-0.498109
-0.584381
-0.588762
-0.55971
-0.470623
-0.351372
-0.271173
-0.767502
-0.975613
-0.984982
-0.984251
-0.980452
-0.985935
-0.984649
-0.982794
-0.982616
-0.981392
-0.97009
-0.968443
-0.973794
-0.958669
-0.883921
-0.759135
-0.756449
-0.860809
-0.917615
-0.838786
-0.672896
-0.583359
-0.509538
-0.989196
-0.989879
-0.988324
-0.989685
-0.987875
-0.991816
-0.990197
-0.989417
-0.986585
-0.987004
-0.967066
-0.938232
-0.98177
-0.985259
-0.981174
-0.93765
-0.917192
-0.961692
-0.9858
-0.921859
-0.853468
-0.886688
-0.856477
-0.997183
-0.997342
-0.997933
-0.995031
-0.991867
-0.995561
-0.99459
-0.992994
-0.992707
-0.996595
-0.980447
-0.938648
-0.970799
-0.988223
-0.986636
-0.971887
-0.984717
-0.990835
-0.994931
-0.9841
-0.956035
-0.980256
-0.968591
-0.998549
-0.998877
-0.999184
-0.998341
-0.996363
-0.99726
-0.997795
-0.996505
-0.9978
-0.999114
-0.997119
-0.962585
-0.984284
-0.993869
-0.989925
-0.989073
-0.996291
-0.997396
-0.997628
-0.994748
-0.989554
-0.992271
-0.987899
-0.999284
-0.999621
-0.999737
-0.999669
-0.999225
-0.999092
-0.999238
-0.999088
-0.999716
-0.999796
-0.998
-0.975626
-0.987289
-0.994448
-0.992727
-0.995837
-0.998183
-0.99841
-0.998773
-0.998388
-0.998146
-0.997328
-0.995054
-0.999638
-0.999858
-0.99992
-0.999955
-0.999931
-0.999856
-0.999857
-0.999916
-0.999979
-0.999921
-0.998504
-0.983067
-0.992873
-0.997297
-0.996373
-0.998162
-0.9992
-0.999068
-0.999293
-0.999508
-0.999708
-0.999388
-0.998617
-0.999839
-0.999954
-0.999964
-0.999998
-0.999997
-0.999995
-0.999996
-0.999999
-0.999997
-0.999901
-0.999206
-0.98805
-0.995896
-0.996476
-0.998447
-0.999316
-0.999492
-0.999364
-0.999644
-0.999873
-0.999968
-0.999949
-0.999798
-0.999939
-0.999989
-0.999986
-1
-1
-1
-1
-1
-0.999998
-0.999897
-0.999237
-0.979399
-0.998353
-0.997085
-0.999035
-0.999661
-0.999739
-0.999736
-0.999846
-0.999956
-0.999995
-0.999997
-0.999989
-0.999987
-0.999998
-0.999997
-1
-1
-1
-1
-1
-0.999998
-0.999935
-0.999755
-0.996434
-0.999675
-0.999683
-0.999759
-0.999889
-0.999925
-0.99995
-0.999948
-0.999968
-0.999999
-0.999999
-1
-0.999996
-0.999999
-0.999999
-1
-1
-1
-1
-1
-0.999996
-0.999942
-0.999901
-0.998349
-0.999872
-0.99989
-0.999967
-0.999993
-0.999995
-0.999997
-0.999997
-0.999998
-1
-1
-1
-1
-1
-1
-1
-1
-1
-1
-1
-1
-0.999997
-0.999973
-0.999885
-0.999992
-0.999993
-0.999996
-1
-1
-1
-1
-1
-1
-1
-1
-1
-1
-1
-1
-1
-1
-1
-1
-1
-0.999998
-0.999986
-0.999983
-1
-1
-1
-1
-1
-1
-1
-1
-1
-1
-1
-1
-1
-1
-1
-1
-1
-1
-1
-1
-1
-1
-1
-1
-1
-1
-1
-1
-1
-1
-1
-1
-1
-1
-1
-1
-1
-1
-1
-1
-1
-1
-1
-1
-1
-1
-1
-1
-1
-1
-1
-1
-1
-1
-1
-1
-1
-1
-1
-1
-1
-1
-1
-1
-1
-1
-1
-1
-1
-1
-1
-1
-1
-1
-1
-1
-1
-1
-1
-1
-1
-1
-1
-1
-1
-1
-1
-1
-1
-1
-1
-1
-1
-1
-1
-1
-1
-1
-1
-1
-1
-1
-1
-1
-1
-1
-1
-1
-1
-1
-1
-1
-1
-1
-1
-1
-1
-1
-1
-1
-1
-1
-1
-1
-1
-1
-1
-1
-1
-1
-1
-1
-1
-1
-1
-1
-1
-1
-1
-1
-1
-1
-1
-1
-1
-1
-1
-1
-1
-1
-1
-1
-1
-1
-1
-1
-1
-1
-1
-1
-1
-1
-1
-1
-1
-1
-1
-1
-1
-1
-1
-1
-1
-1
-1
-1
-1
-1
-1
-1
-1
-1
-1
-1
-1
-1
-1
-1
-1
-1
-1
-1
-1
-1
-1
-1
-1
-1
-1
-1
-1
-1
-1
-1
-1
-1
-1
-1
-1
-1
-1
-1
-1
-1
-1
-1
-1
-1
-1
-1
-1
-1
-1
-1
-1
-1
-1
-1
-1
-1
-1
-1
-1
-1
-1
-1
-1
-1
-1
-1
-1
-1
-1
-1
-1
-1
-1
-1
-1
-1
-1
-1
-1
-1
-1
-1
-1
-1
-1
-1
-1
-1
-1
-1
-1
-1
-1
-1
-1
-1
-1
-1
-1
-1
-1
-1
-1
-1
-1
-1
-1
-1
-1
-1
-1
-1
-1
-1
-1
-1
-1
-1
-1
-1
-1
-1
-1
-1
-1
-1
-1
-1
-1
-1
-1
-1
-1
-1
-1
-1
-1
-1
-1
-1
-1
-1
-1
-1
-1
-1
-1
-1
-1
-1
-1
-1
-1
-1
-1
-1
-1
-1
-1
-1
-1
-1
-1
-1
-1
-1
-1
-1
-1
-1
-1
-1
-1
-1
-1
-1
-1
-1
-1
-1
-1
-1
-1
-1
-1
-1
-1
-1
-1
-1
-1
-1
-1
-1
-1
-1
-1
-1
-1
-1
-1
-1
-1
-1
-1
-1
-1
-1
-1
-1
-1
-1
-1
-1
-1
-1
-1
-1
-1
-1
-1
-1
-1
-1
-1
-1
-1
-1
-1
-1
-1
-1
-1
-1
-1
-1
-1
-1
-1
-1
-1
-1
-1
-1
-1
-1
-1
-1
-1
-1
-1
-1
-1
-1
-1
-1
-1
-1
-1
-1
-1
-1
-1
-1
-1
-1
-1
-1
-1
-1
-1
-1
-1
-1
-1
-1
-1
-1
-1
-1
-1
-1
-1
-1
-1
-1
-1
-1
-1
-1
-1
-1
-1
-1
-1
-1
-1
-1
-1
-1
-1
-1
-1
-1
-1
-1
-1
-1
-1
-1
-1
-1
-1
-1
-1
-1
-1
-1
-1
-1
-1
-1
-1
-1
-1
-1
-1
-1
-1
-1
-1
-1
-1
-1
-1
-1
-1
-1
-1
-1
-1
-1
-1
-1
-1
-1
-1
-1
-1
-1
-1
-1
-1
-1
-1
-1
-1
-1
-1
-1
-1
-1
-1
-1
-1
-1
-1
-1
-1
-1
-1
-1
-1
-1
-1
-1
-1
-1
-1
-1
-1
-1
-1
-1
-1
-1
-1
-1
-1
0.948826
0.948749
0.745828
-0.776084
0.862688
0.928462
0.873439
0.753529
0.575369
0.733292
0.799797
0.813855
0.231173
0.34633
0.51237
0.66612
-0.0839545
-0.0068519
0.110616
0.29915
-0.222565
-0.181679
-0.125651
-0.0348667
-0.520958
-0.506951
-0.463704
-0.364518
-0.880094
-0.873322
-0.781837
-0.743557
-0.954574
-0.932269
-0.913765
-0.907403
-0.982511
-0.974986
-0.965042
-0.95986
-0.993599
-0.99571
-0.992072
-0.989666
-0.998864
-0.999357
-0.999148
-0.998959
-0.99991
-0.99992
-0.999855
-0.999711
-0.999991
-0.999979
-0.999975
-0.999944
-0.999999
-0.999999
-0.999997
-0.999994
-1
-1
-1
-1
-1
-1
-1
-1
-1
-1
-1
-1
-1
-1
-1
-1
-1
-1
-1
-1
-1
-1
-1
-1
-1
-1
-1
-1
-1
-1
-1
-1
-1
-1
-1
-1
-1
-1
-1
-1
-1
-1
-1
-1
-1
-1
-1
-1
-1
-1
-1
-1
-1
-1
-1
-1
-1
-1
-1
-1
-1
-1
-1
-1
-1
-1
-1
-1
-1
-1
-1
-1
-1
-1
-1
-1
-1
-1
-1
-1
-1
-1
-1
-1
-1
-1
-1
-1
-1
-1
-1
-1
-1
-1
-1
-1
-1
-1
-1
-1
-1
-1
-1
-1
-1
-1
-1
-1
-0.748351
-0.686657
-0.597477
-0.498953
-0.600273
-0.513107
-0.461393
-0.561476
-0.347209
-0.334473
-0.153834
-0.113403
0.00835583
0.186615
0.389794
0.495128
0.48702
0.43634
0.137497
0.708289
0.698469
0.629145
0.360279
0.555385
0.490264
0.488731
0.574106
0.648735
0.57994
0.555115
0.500965
0.537109
0.500351
0.474902
0.504758
0.486641
0.423819
0.166632
0.843933
0.854768
0.85149
0.851056
0.852021
0.848763
0.841772
0.831494
0.78768
0.606493
0.364275
-0.024248
-0.0552027
-0.121817
-0.110649
-0.00610063
0.228161
0.342541
0.223629
0.731689
0.760474
0.786043
0.83175
0.855837
0.852105
0.818367
0.700464
0.253966
-0.0854642
-0.366931
-0.55795
-0.593872
-0.579753
-0.537969
-0.30712
0.0889749
0.294201
0.245987
0.448986
0.515769
0.67316
0.759503
0.734527
0.728512
0.659117
0.372877
-0.280277
-0.635176
-0.726977
-0.736156
-0.734955
-0.72112
-0.696323
-0.35994
0.0453553
0.281457
0.247804
0.11774
0.0841198
0.23951
0.191063
0.0776243
0.330644
0.438304
0.268635
-0.317671
-0.71553
-0.806947
-0.832357
-0.826932
-0.818532
-0.803978
-0.499456
-0.0906287
0.279512
0.245094
-0.341949
-0.534156
-0.513725
-0.558482
-0.490299
-0.0538515
0.0809468
-0.109065
-0.621089
-0.850007
-0.881551
-0.905179
-0.904583
-0.895142
-0.850514
-0.649156
-0.20363
0.268814
0.235896
-0.809441
-0.821491
-0.631259
-0.614617
-0.543274
-0.263124
-0.249397
-0.540137
-0.8695
-0.93678
-0.927203
-0.938317
-0.95507
-0.940305
-0.903313
-0.746073
-0.315726
0.252561
0.217765
-0.908675
-0.814872
-0.647624
-0.759817
-0.594931
-0.364846
-0.571033
-0.857646
-0.964323
-0.973752
-0.953792
-0.950734
-0.967007
-0.958976
-0.902324
-0.761718
-0.328429
0.222818
0.189191
-0.959176
-0.921041
-0.777619
-0.848764
-0.798071
-0.690877
-0.781636
-0.91472
-0.978903
-0.99002
-0.97674
-0.958969
-0.972204
-0.958984
-0.913767
-0.811594
-0.341605
0.16885
0.14943
-0.990581
-0.967266
-0.933223
-0.956838
-0.935262
-0.925874
-0.959186
-0.987415
-0.995894
-0.994731
-0.985804
-0.98164
-0.977537
-0.956894
-0.900406
-0.753572
-0.37565
0.0878505
0.0985919
-0.998093
-0.991176
-0.992409
-0.995521
-0.986146
-0.98493
-0.99643
-0.998109
-0.998002
-0.994653
-0.990169
-0.985807
-0.979363
-0.950186
-0.895487
-0.73843
-0.406845
-0.0134563
0.0408789
-0.999452
-0.998298
-0.99929
-0.999089
-0.99818
-0.998989
-0.999409
-0.998287
-0.996821
-0.99396
-0.988205
-0.979188
-0.965742
-0.917806
-0.850897
-0.707937
-0.425394
-0.087882
-0.00829277
-0.999875
-0.999861
-0.999948
-0.999857
-0.999757
-0.999753
-0.999378
-0.998678
-0.99785
-0.995984
-0.988387
-0.964737
-0.921738
-0.851694
-0.772406
-0.630013
-0.428062
-0.142757
-0.0428713
-0.999991
-0.99999
-0.999994
-0.999979
-0.999944
-0.999864
-0.99961
-0.999191
-0.998638
-0.99757
-0.99465
-0.98625
-0.972335
-0.925956
-0.847701
-0.604325
-0.382616
-0.170049
-0.064231
-1
-0.999999
-0.999997
-0.999994
-0.999975
-0.99993
-0.999794
-0.999413
-0.998821
-0.998185
-0.997655
-0.995697
-0.992798
-0.983765
-0.926556
-0.698708
-0.361698
-0.175798
-0.0780907
-1
-1
-0.999999
-0.999998
-0.999995
-0.999987
-0.999948
-0.999776
-0.999288
-0.998916
-0.9989
-0.997124
-0.995657
-0.994799
-0.973007
-0.849832
-0.4656
-0.184967
-0.0911225
-1
-1
-1
-1
-0.999999
-0.999998
-0.99999
-0.999957
-0.999825
-0.999664
-0.999636
-0.999042
-0.997757
-0.995349
-0.993044
-0.96176
-0.793673
-0.354834
-0.121764
-1
-1
-1
-1
-1
-0.999999
-0.999997
-0.99999
-0.999967
-0.999898
-0.999892
-0.999803
-0.998987
-0.99525
-0.994991
-0.989193
-0.946772
-0.685954
-0.140919
-1
-1
-1
-1
-1
-1
-0.999998
-0.999996
-0.99999
-0.999971
-0.999959
-0.999901
-0.999532
-0.996664
-0.99506
-0.989626
-0.959486
-0.761438
-0.141077
-1
-1
-1
-1
-1
-1
-0.999999
-0.999998
-0.999996
-0.999989
-0.999977
-0.999946
-0.999656
-0.997655
-0.994603
-0.986895
-0.95875
-0.804518
-0.151925
-1
-1
-1
-1
-1
-1
-1
-1
-0.999999
-0.999998
-0.999994
-0.999986
-0.99987
-0.998337
-0.994042
-0.985776
-0.962095
-0.808238
-0.177639
-1
-1
-1
-1
-1
-1
-1
-1
-1
-1
-0.999999
-0.999963
-0.999777
-0.998741
-0.994173
-0.987722
-0.972892
-0.795666
-0.196568
-1
-1
-1
-1
-1
-1
-1
-1
-1
-0.999999
-0.999987
-0.999882
-0.99946
-0.997859
-0.993633
-0.989468
-0.966439
-0.754449
-0.204264
-1
-1
-1
-1
-1
-1
-1
-1
-1
-1
-0.999996
-0.999959
-0.999649
-0.997736
-0.993133
-0.986297
-0.923233
-0.676975
-0.210836
-1
-1
-1
-1
-1
-1
-1
-1
-1
-1
-0.999997
-0.999977
-0.99983
-0.998533
-0.99349
-0.979148
-0.907485
-0.647276
-0.223047
-1
-1
-1
-1
-1
-1
-1
-1
-1
-0.999999
-0.999995
-0.999969
-0.999808
-0.998836
-0.993543
-0.977621
-0.905135
-0.652749
-0.248624
-1
-1
-1
-1
-1
-1
-1
-1
-1
-1
-0.999995
-0.999964
-0.99983
-0.999156
-0.994935
-0.977887
-0.905848
-0.669116
-0.287708
-1
-1
-1
-1
-1
-1
-1
-1
-1
-1
-0.999997
-0.999967
-0.999781
-0.999112
-0.99568
-0.978172
-0.905163
-0.674939
-0.33219
-1
-1
-1
-1
-1
-1
-1
-1
-1
-1
-0.999999
-0.999994
-0.999911
-0.999498
-0.997219
-0.983962
-0.91555
-0.684124
-0.383809
-1
-1
-1
-1
-1
-1
-1
-1
-1
-1
-1
-0.999996
-0.999976
-0.999842
-0.999141
-0.993208
-0.946939
-0.746456
-0.466457
-1
-1
-1
-1
-1
-1
-1
-1
-1
-1
-1
-0.999997
-0.999986
-0.999943
-0.9998
-0.998513
-0.980845
-0.887616
-0.621324
-1
-1
-1
-1
-1
-1
-1
-1
-1
-1
-0.999999
-0.999986
-0.999905
-0.999683
-0.99978
-0.999639
-0.99429
-0.975128
-0.789004
-1
-1
-1
-1
-1
-1
-1
-1
-1
-1
-0.999997
-0.999977
-0.999776
-0.999042
-0.999355
-0.999594
-0.998209
-0.996558
-0.871927
-1
-1
-1
-1
-1
-1
-1
-1
-1
-0.999999
-0.999995
-0.999973
-0.999841
-0.998888
-0.99875
-0.999415
-0.998773
-0.961392
-0.88473
-1
-1
-1
-1
-1
-1
-1
-1
-1
-0.999999
-0.999994
-0.999964
-0.999778
-0.998815
-0.998591
-0.999284
-0.998735
-0.973006
-0.8987
-1
-1
-1
-1
-1
-1
-1
-1
-1
-1
-0.999997
-0.999973
-0.999737
-0.998288
-0.998318
-0.999029
-0.998544
-0.975615
-0.902273
-1
-1
-1
-1
-1
-1
-1
-1
-1
-1
-0.999999
-0.999989
-0.999897
-0.99792
-0.998146
-0.998914
-0.99841
-0.978334
-0.907218
-1
-1
-1
-1
-1
-1
-1
-1
-1
-1
-0.999999
-0.999996
-0.999973
-0.999487
-0.998338
-0.998954
-0.998479
-0.98246
-0.914251
-1
-1
-1
-1
-1
-1
-1
-1
-1
-1
-1
-1
-0.999997
-0.999963
-0.998524
-0.998901
-0.998567
-0.987432
-0.924893
-1
-1
-1
-1
-1
-1
-1
-1
-1
-1
-1
-1
-1
-0.999999
-0.999846
-0.999206
-0.998761
-0.994501
-0.941473
-1
-1
-1
-1
-1
-1
-1
-1
-1
-1
-1
-1
-1
-1
-0.999999
-0.999745
-0.999204
-0.998548
-0.972682
)
;

boundaryField
{
    leftWall
    {
        type            zeroGradient;
    }
    rightWall
    {
        type            zeroGradient;
    }
    lowerWall
    {
        type            zeroGradient;
    }
    atmosphere
    {
        type            zeroGradient;
    }
    defaultFaces
    {
        type            empty;
    }
}


// ************************************************************************* //
