/*--------------------------------*- C++ -*----------------------------------*\
| =========                 |                                                 |
| \\      /  F ield         | foam-extend: Open Source CFD                    |
|  \\    /   O peration     | Version:     4.1                                |
|   \\  /    A nd           | Web:         http://www.foam-extend.org         |
|    \\/     M anipulation  |                                                 |
\*---------------------------------------------------------------------------*/
FoamFile
{
    version     2.0;
    format      ascii;
    class       volScalarField;
    location    "0.55";
    object      C_0;
}
// * * * * * * * * * * * * * * * * * * * * * * * * * * * * * * * * * * * * * //

dimensions      [0 0 0 0 0 0 0];

internalField   nonuniform List<scalar> 
2268
(
1
0.999998
1
0.999999
0.999999
0.999983
0.999991
0.999956
0.99997
0.999638
0.99968
0.999748
0.999825
0.999882
0.99993
0.999961
0.999983
0.999995
0.999996
0.999948
0.99954
0.973765
0.122718
0.999993
0.999928
0.999986
0.999978
0.99996
0.999711
0.999848
0.999389
0.999628
0.998111
0.998718
0.999019
0.999215
0.999317
0.999608
0.999761
0.999903
0.999956
0.999983
0.999976
0.999942
0.997767
0.978442
0.999799
0.998934
0.999773
0.999646
0.999385
0.997507
0.998593
0.996186
0.997896
0.99576
0.995257
0.995327
0.995035
0.995991
0.998355
0.999423
0.999777
0.99989
0.999938
0.999937
0.999712
0.996016
0.981428
0.996851
0.990265
0.997581
0.996535
0.993953
0.985781
0.991731
0.98517
0.992374
0.988657
0.985378
0.964782
0.972836
0.98121
0.988985
0.99523
0.997398
0.998566
0.999265
0.99974
0.999585
0.996665
0.980675
0.970686
0.936915
0.982528
0.976206
0.960313
0.947158
0.96124
0.945564
0.972629
0.973674
0.94244
0.928266
0.945431
0.945321
0.958999
0.980375
0.989094
0.995089
0.997279
0.999083
0.999274
0.997152
0.980133
0.834263
0.698801
0.907503
0.884424
0.820365
0.828406
0.738302
0.816298
0.911294
0.929922
0.904819
0.892159
0.873766
0.882865
0.903344
0.946283
0.969078
0.985855
0.990662
0.996032
0.998323
0.996705
0.977711
0.45525
0.0368154
0.64928
0.601672
0.431871
0.529118
0.197834
0.581671
0.616964
0.73082
0.761145
0.790519
0.77802
0.832741
0.845823
0.913372
0.941046
0.968279
0.974766
0.984914
0.993501
0.995429
0.980541
0.13332
-0.447179
0.179639
0.1638
-0.0970726
0.00923881
-0.605707
-0.106117
0.103355
0.43803
0.604755
0.665529
0.677705
0.69498
0.753819
0.884723
0.916329
0.943324
0.942411
0.949416
0.963763
0.990988
0.980172
-0.443468
-0.401626
-0.364037
-0.29295
-0.198038
-0.0332331
0.0476413
0.0917263
0.10465
0.104346
0.0766668
0.0221644
0.006438
-0.00359385
0.0042466
-0.108173
-0.152599
-0.630989
-0.60202
-0.466125
-0.59859
-0.754564
-0.793894
-0.577704
-0.189689
0.0172038
0.123651
0.153596
0.153305
0.139694
0.257782
0.388243
0.408096
0.441088
0.399745
0.316835
-0.345988
-0.520369
-0.508049
-0.790248
-0.934917
-0.753886
-0.378186
-0.139127
0.021804
0.0759173
0.08806
0.0120917
-0.336738
0.111186
0.374176
0.415131
0.471187
0.436105
0.349346
-0.20096
-0.452399
-0.539195
-0.864197
-0.985958
-0.966883
-0.697128
-0.397308
-0.216113
-0.477783
0.0110156
-0.0788792
-0.529646
-0.271035
0.219172
0.346728
0.487992
0.470407
0.419081
-0.0340115
-0.394874
-0.567164
-0.877859
-0.973303
-0.982563
-0.967462
-0.80628
-0.753577
-0.892415
-0.630739
-0.594114
-0.575833
-0.445271
-0.113517
0.269613
0.482338
0.496809
0.463778
0.257148
-0.30071
-0.606397
-0.898881
-0.96793
-0.943825
-0.967151
-0.962204
-0.968585
-0.942891
-0.480343
-0.547792
-0.56375
-0.547743
-0.289845
0.216592
0.467315
0.507508
0.48601
0.386515
-0.165431
-0.651268
-0.933397
-0.919436
-0.876979
-0.926274
-0.960018
-0.959444
-0.649287
-0.155593
-0.440871
-0.455237
-0.487762
-0.242132
0.203063
0.451412
0.509293
0.493135
0.423995
-0.0128826
-0.759561
-0.943079
-0.832746
-0.78731
-0.909481
-0.83245
-0.844714
-0.897948
-0.523667
-0.295464
-0.178432
-0.249553
-0.0698643
0.206825
0.43328
0.506051
0.492675
0.433964
0.0526375
-0.0358797
-0.571097
-0.436254
-0.289262
-0.541782
-0.543244
-0.820055
-0.610317
-0.440684
-0.130111
0.147649
0.405419
0.31167
0.391191
0.605135
0.744121
0.77875
0.788217
0.777802
0.699595
0.689429
0.806649
0.946784
0.233104
-0.591666
-0.827614
-0.714894
-0.813392
-0.824275
-0.895166
-0.843527
-0.839267
-0.649256
-0.47625
-0.241112
-0.229003
-0.0315547
0.285384
0.408819
0.457619
0.444366
0.389829
0.242382
0.22366
0.380485
0.736268
0.287878
-0.488439
-0.856987
-0.911241
-0.892539
-0.897056
-0.924957
-0.916155
-0.937274
-0.92926
-0.879057
-0.819503
-0.696905
-0.462046
-0.290597
-0.00330972
0.147432
0.162648
0.141905
0.0653712
0.075656
0.128286
0.38222
0.121408
-0.50053
-0.815789
-0.945326
-0.924778
-0.935069
-0.945471
-0.947677
-0.96753
-0.969742
-0.959307
-0.931254
-0.776469
-0.716027
-0.661595
-0.539954
-0.298727
-0.0868242
0.004775
-0.0326983
-0.0415815
-0.0189205
0.106658
0.0614798
-0.675654
-0.913112
-0.95476
-0.951229
-0.956268
-0.961386
-0.966286
-0.975175
-0.975179
-0.961381
-0.974154
-0.930537
-0.902331
-0.85645
-0.788401
-0.618339
-0.526098
-0.448092
-0.45022
-0.399861
-0.280698
-0.17041
0.00511195
-0.736713
-0.979143
-0.973371
-0.968499
-0.97354
-0.972776
-0.974035
-0.979601
-0.980806
-0.968206
-0.985764
-0.961192
-0.916196
-0.854422
-0.723791
-0.495376
-0.582795
-0.587583
-0.555374
-0.460654
-0.343162
-0.266487
-0.768501
-0.975835
-0.984921
-0.984238
-0.98034
-0.985934
-0.984831
-0.982952
-0.982691
-0.981447
-0.97018
-0.970177
-0.973853
-0.958489
-0.882541
-0.753715
-0.751413
-0.859798
-0.915998
-0.832108
-0.662912
-0.579786
-0.511437
-0.989046
-0.989652
-0.988186
-0.989706
-0.987837
-0.99188
-0.990323
-0.989625
-0.986632
-0.986629
-0.967253
-0.938669
-0.982072
-0.985368
-0.980908
-0.935378
-0.914371
-0.961032
-0.985468
-0.9184
-0.852086
-0.88684
-0.85919
-0.997139
-0.997293
-0.997922
-0.995074
-0.991873
-0.995614
-0.994691
-0.993091
-0.992726
-0.9964
-0.979777
-0.937093
-0.971047
-0.98844
-0.98658
-0.971019
-0.984286
-0.990678
-0.994831
-0.983718
-0.955697
-0.980319
-0.96942
-0.998526
-0.998858
-0.999178
-0.998354
-0.996387
-0.997296
-0.997842
-0.996548
-0.997798
-0.999088
-0.996968
-0.960422
-0.984255
-0.993966
-0.989879
-0.988932
-0.99631
-0.997374
-0.997589
-0.994704
-0.989468
-0.992334
-0.988339
-0.999272
-0.999615
-0.999735
-0.999671
-0.999237
-0.999109
-0.99926
-0.999102
-0.999718
-0.999789
-0.997931
-0.974385
-0.987049
-0.994482
-0.992747
-0.995846
-0.998163
-0.998397
-0.998759
-0.998371
-0.998137
-0.997401
-0.995291
-0.999633
-0.999856
-0.999919
-0.999955
-0.999931
-0.999859
-0.999862
-0.99992
-0.999979
-0.999918
-0.998455
-0.982335
-0.992556
-0.997325
-0.996405
-0.998159
-0.999196
-0.999062
-0.999283
-0.9995
-0.999708
-0.999421
-0.9987
-0.999836
-0.999954
-0.999963
-0.999998
-0.999996
-0.999995
-0.999996
-0.999999
-0.999997
-0.999896
-0.999167
-0.987567
-0.995757
-0.996468
-0.998457
-0.99932
-0.99949
-0.99936
-0.999636
-0.999869
-0.999968
-0.999952
-0.999816
-0.999938
-0.999988
-0.999986
-1
-1
-1
-1
-1
-0.999998
-0.999893
-0.999207
-0.978471
-0.998273
-0.997012
-0.999022
-0.999662
-0.999738
-0.999734
-0.999843
-0.999955
-0.999995
-0.999997
-0.99999
-0.999987
-0.999998
-0.999997
-1
-1
-1
-1
-1
-0.999998
-0.999933
-0.999746
-0.996249
-0.999664
-0.999676
-0.999756
-0.999889
-0.999924
-0.999949
-0.999948
-0.999968
-0.999999
-0.999999
-1
-0.999996
-0.999999
-0.999999
-1
-1
-1
-1
-1
-0.999996
-0.999941
-0.999898
-0.998283
-0.999869
-0.999887
-0.999966
-0.999993
-0.999995
-0.999997
-0.999997
-0.999998
-1
-1
-1
-1
-1
-1
-1
-1
-1
-1
-1
-1
-0.999997
-0.999973
-0.99988
-0.999992
-0.999993
-0.999995
-1
-1
-1
-1
-1
-1
-1
-1
-1
-1
-1
-1
-1
-1
-1
-1
-1
-0.999998
-0.999986
-0.999983
-1
-1
-1
-1
-1
-1
-1
-1
-1
-1
-1
-1
-1
-1
-1
-1
-1
-1
-1
-1
-1
-1
-1
-1
-1
-1
-1
-1
-1
-1
-1
-1
-1
-1
-1
-1
-1
-1
-1
-1
-1
-1
-1
-1
-1
-1
-1
-1
-1
-1
-1
-1
-1
-1
-1
-1
-1
-1
-1
-1
-1
-1
-1
-1
-1
-1
-1
-1
-1
-1
-1
-1
-1
-1
-1
-1
-1
-1
-1
-1
-1
-1
-1
-1
-1
-1
-1
-1
-1
-1
-1
-1
-1
-1
-1
-1
-1
-1
-1
-1
-1
-1
-1
-1
-1
-1
-1
-1
-1
-1
-1
-1
-1
-1
-1
-1
-1
-1
-1
-1
-1
-1
-1
-1
-1
-1
-1
-1
-1
-1
-1
-1
-1
-1
-1
-1
-1
-1
-1
-1
-1
-1
-1
-1
-1
-1
-1
-1
-1
-1
-1
-1
-1
-1
-1
-1
-1
-1
-1
-1
-1
-1
-1
-1
-1
-1
-1
-1
-1
-1
-1
-1
-1
-1
-1
-1
-1
-1
-1
-1
-1
-1
-1
-1
-1
-1
-1
-1
-1
-1
-1
-1
-1
-1
-1
-1
-1
-1
-1
-1
-1
-1
-1
-1
-1
-1
-1
-1
-1
-1
-1
-1
-1
-1
-1
-1
-1
-1
-1
-1
-1
-1
-1
-1
-1
-1
-1
-1
-1
-1
-1
-1
-1
-1
-1
-1
-1
-1
-1
-1
-1
-1
-1
-1
-1
-1
-1
-1
-1
-1
-1
-1
-1
-1
-1
-1
-1
-1
-1
-1
-1
-1
-1
-1
-1
-1
-1
-1
-1
-1
-1
-1
-1
-1
-1
-1
-1
-1
-1
-1
-1
-1
-1
-1
-1
-1
-1
-1
-1
-1
-1
-1
-1
-1
-1
-1
-1
-1
-1
-1
-1
-1
-1
-1
-1
-1
-1
-1
-1
-1
-1
-1
-1
-1
-1
-1
-1
-1
-1
-1
-1
-1
-1
-1
-1
-1
-1
-1
-1
-1
-1
-1
-1
-1
-1
-1
-1
-1
-1
-1
-1
-1
-1
-1
-1
-1
-1
-1
-1
-1
-1
-1
-1
-1
-1
-1
-1
-1
-1
-1
-1
-1
-1
-1
-1
-1
-1
-1
-1
-1
-1
-1
-1
-1
-1
-1
-1
-1
-1
-1
-1
-1
-1
-1
-1
-1
-1
-1
-1
-1
-1
-1
-1
-1
-1
-1
-1
-1
-1
-1
-1
-1
-1
-1
-1
-1
-1
-1
-1
-1
-1
-1
-1
-1
-1
-1
-1
-1
-1
-1
-1
-1
-1
-1
-1
-1
-1
-1
-1
-1
-1
-1
-1
-1
-1
-1
-1
-1
-1
-1
-1
-1
-1
-1
-1
-1
-1
-1
-1
-1
-1
-1
-1
-1
-1
-1
-1
-1
-1
-1
-1
-1
-1
-1
-1
-1
-1
-1
-1
-1
-1
-1
-1
-1
-1
-1
-1
-1
-1
-1
-1
-1
-1
-1
-1
-1
-1
-1
-1
-1
-1
-1
-1
-1
-1
-1
-1
-1
-1
-1
-1
-1
-1
-1
-1
-1
-1
-1
-1
-1
-1
-1
-1
-1
-1
-1
-1
-1
-1
-1
-1
-1
-1
-1
-1
-1
-1
-1
-1
-1
-1
-1
-1
-1
-1
-1
-1
-1
-1
-1
-1
-1
-1
-1
-1
-1
-1
-1
-1
-1
-1
-1
-1
-1
-1
-1
-1
-1
-1
-1
-1
-1
-1
0.948891
0.948741
0.742319
-0.776134
0.864942
0.927916
0.872987
0.749782
0.581216
0.737485
0.802825
0.816081
0.238302
0.355538
0.522872
0.671045
-0.0765614
0.00166949
0.122438
0.309198
-0.219199
-0.178654
-0.12189
-0.0282824
-0.525165
-0.510971
-0.464797
-0.366544
-0.88364
-0.875778
-0.784569
-0.753898
-0.956488
-0.935428
-0.917804
-0.91198
-0.983399
-0.976484
-0.96685
-0.960988
-0.993917
-0.995913
-0.992597
-0.989864
-0.998934
-0.999384
-0.999185
-0.998943
-0.999917
-0.999922
-0.999852
-0.999702
-0.999991
-0.999979
-0.999975
-0.999944
-0.999999
-0.999999
-0.999997
-0.999994
-1
-1
-1
-1
-1
-1
-1
-1
-1
-1
-1
-1
-1
-1
-1
-1
-1
-1
-1
-1
-1
-1
-1
-1
-1
-1
-1
-1
-1
-1
-1
-1
-1
-1
-1
-1
-1
-1
-1
-1
-1
-1
-1
-1
-1
-1
-1
-1
-1
-1
-1
-1
-1
-1
-1
-1
-1
-1
-1
-1
-1
-1
-1
-1
-1
-1
-1
-1
-1
-1
-1
-1
-1
-1
-1
-1
-1
-1
-1
-1
-1
-1
-1
-1
-1
-1
-1
-1
-1
-1
-1
-1
-1
-1
-1
-1
-1
-1
-1
-1
-1
-1
-1
-1
-1
-1
-1
-1
-0.750279
-0.689156
-0.596461
-0.490119
-0.602944
-0.507065
-0.460765
-0.566054
-0.34397
-0.334062
-0.152303
-0.110069
0.0144168
0.193916
0.398293
0.497446
0.486658
0.434763
0.135723
0.707514
0.698089
0.626829
0.374474
0.555627
0.49398
0.493739
0.57664
0.648382
0.582002
0.555452
0.502043
0.538046
0.501893
0.477244
0.506022
0.48579
0.421472
0.165279
0.845263
0.854942
0.851494
0.851407
0.85203
0.848582
0.841813
0.831105
0.785583
0.602572
0.36209
-0.0215169
-0.050886
-0.115754
-0.103912
0.00272915
0.233448
0.342745
0.223559
0.732508
0.760547
0.786889
0.833051
0.856686
0.85235
0.815973
0.692429
0.236596
-0.0978556
-0.371133
-0.555913
-0.591458
-0.576654
-0.533303
-0.296135
0.0997909
0.297395
0.246214
0.448542
0.514696
0.675423
0.760797
0.739965
0.732015
0.6546
0.355159
-0.302683
-0.64057
-0.726677
-0.733946
-0.733173
-0.719589
-0.693812
-0.347255
0.0549591
0.284978
0.247516
0.113215
0.0740319
0.234764
0.18894
0.0937146
0.350436
0.443079
0.2558
-0.343922
-0.723971
-0.807807
-0.830895
-0.825406
-0.817724
-0.803353
-0.489887
-0.0852216
0.281903
0.244206
-0.359733
-0.549164
-0.523782
-0.561684
-0.481176
-0.0298642
0.0876053
-0.12197
-0.639145
-0.853709
-0.881535
-0.904594
-0.903791
-0.894621
-0.849798
-0.644781
-0.201899
0.269709
0.233911
-0.822006
-0.823184
-0.627447
-0.610145
-0.534407
-0.246067
-0.24727
-0.555382
-0.875628
-0.937011
-0.92658
-0.938424
-0.954946
-0.940123
-0.90258
-0.743262
-0.315447
0.251304
0.214408
-0.910839
-0.81129
-0.645401
-0.757477
-0.585417
-0.364984
-0.576027
-0.862434
-0.965561
-0.973608
-0.952733
-0.950521
-0.967463
-0.958904
-0.901825
-0.762237
-0.330358
0.218001
0.184377
-0.958795
-0.917667
-0.773886
-0.845958
-0.792412
-0.694083
-0.785154
-0.918376
-0.980146
-0.990012
-0.975893
-0.958619
-0.97243
-0.95927
-0.914753
-0.816139
-0.352842
0.160808
0.143289
-0.990296
-0.965754
-0.93164
-0.955231
-0.932712
-0.925298
-0.960505
-0.987894
-0.996068
-0.994725
-0.98569
-0.981744
-0.978024
-0.957914
-0.902436
-0.757317
-0.387555
0.0769882
0.0915341
-0.99803
-0.990724
-0.992152
-0.995335
-0.985489
-0.984815
-0.996455
-0.998164
-0.998028
-0.994722
-0.990308
-0.986022
-0.979855
-0.951233
-0.897623
-0.742401
-0.415388
-0.0242547
0.03435
-0.999438
-0.998208
-0.99927
-0.999077
-0.998095
-0.998967
-0.999433
-0.998348
-0.996923
-0.994188
-0.988636
-0.979824
-0.966589
-0.919234
-0.852028
-0.710466
-0.431178
-0.0953315
-0.0129771
-0.999873
-0.999855
-0.999947
-0.999857
-0.999754
-0.999762
-0.9994
-0.998721
-0.997931
-0.996214
-0.989062
-0.966524
-0.924485
-0.85496
-0.774524
-0.630931
-0.430049
-0.147283
-0.0458646
-0.999991
-0.99999
-0.999994
-0.999979
-0.999945
-0.999871
-0.999626
-0.999216
-0.998671
-0.997658
-0.994933
-0.986886
-0.973434
-0.928153
-0.85084
-0.608009
-0.382507
-0.17212
-0.0660655
-1
-0.999999
-0.999997
-0.999994
-0.999976
-0.999933
-0.999804
-0.999433
-0.998847
-0.998218
-0.997687
-0.995789
-0.992975
-0.984405
-0.928992
-0.704546
-0.365027
-0.17709
-0.0794827
-1
-1
-0.999999
-0.999998
-0.999995
-0.999988
-0.999951
-0.999787
-0.999307
-0.99893
-0.998915
-0.997162
-0.995673
-0.994951
-0.97442
-0.855916
-0.477231
-0.186881
-0.0924551
-1
-1
-1
-1
-0.999999
-0.999998
-0.99999
-0.999959
-0.999832
-0.999671
-0.999641
-0.999055
-0.997755
-0.995353
-0.993253
-0.963844
-0.804573
-0.36789
-0.123498
-1
-1
-1
-1
-1
-0.999999
-0.999997
-0.99999
-0.999968
-0.999901
-0.999893
-0.999804
-0.998983
-0.995242
-0.994996
-0.989326
-0.948191
-0.689528
-0.139557
-1
-1
-1
-1
-1
-1
-0.999999
-0.999996
-0.99999
-0.999972
-0.99996
-0.999901
-0.999528
-0.996637
-0.995049
-0.989589
-0.959341
-0.761902
-0.141245
-1
-1
-1
-1
-1
-1
-0.999999
-0.999998
-0.999996
-0.99999
-0.999977
-0.999946
-0.99965
-0.997628
-0.994572
-0.986793
-0.95846
-0.805344
-0.154481
-1
-1
-1
-1
-1
-1
-1
-1
-0.999999
-0.999998
-0.999994
-0.999986
-0.999869
-0.998315
-0.994009
-0.985706
-0.961766
-0.808387
-0.181111
-1
-1
-1
-1
-1
-1
-1
-1
-1
-1
-0.999999
-0.999963
-0.999779
-0.998729
-0.994139
-0.987677
-0.972657
-0.796383
-0.198166
-1
-1
-1
-1
-1
-1
-1
-1
-1
-0.999999
-0.999988
-0.999882
-0.999459
-0.997856
-0.993599
-0.989411
-0.966107
-0.754895
-0.205091
-1
-1
-1
-1
-1
-1
-1
-1
-1
-1
-0.999996
-0.999959
-0.999647
-0.997735
-0.993121
-0.98625
-0.923779
-0.677343
-0.211696
-1
-1
-1
-1
-1
-1
-1
-1
-1
-1
-0.999997
-0.999978
-0.999832
-0.998546
-0.993527
-0.979455
-0.908882
-0.650636
-0.224847
-1
-1
-1
-1
-1
-1
-1
-1
-1
-0.999999
-0.999995
-0.99997
-0.999813
-0.998862
-0.993654
-0.978066
-0.906848
-0.65717
-0.251979
-1
-1
-1
-1
-1
-1
-1
-1
-1
-1
-0.999995
-0.999965
-0.999834
-0.999179
-0.995046
-0.978387
-0.907526
-0.673167
-0.291886
-1
-1
-1
-1
-1
-1
-1
-1
-1
-1
-0.999997
-0.999968
-0.999788
-0.999145
-0.995862
-0.978874
-0.907055
-0.678074
-0.336393
-1
-1
-1
-1
-1
-1
-1
-1
-1
-1
-0.999999
-0.999994
-0.999914
-0.99952
-0.997404
-0.984798
-0.918192
-0.688678
-0.388733
-1
-1
-1
-1
-1
-1
-1
-1
-1
-1
-1
-0.999996
-0.999977
-0.999845
-0.999213
-0.993733
-0.949748
-0.754955
-0.473942
-1
-1
-1
-1
-1
-1
-1
-1
-1
-1
-1
-0.999997
-0.999985
-0.999943
-0.999807
-0.998649
-0.982209
-0.895489
-0.63148
-1
-1
-1
-1
-1
-1
-1
-1
-1
-1
-0.999999
-0.999985
-0.999903
-0.999677
-0.999779
-0.999651
-0.994608
-0.977877
-0.794524
-1
-1
-1
-1
-1
-1
-1
-1
-1
-1
-0.999997
-0.999977
-0.999772
-0.999032
-0.999347
-0.999595
-0.998256
-0.996664
-0.873513
-1
-1
-1
-1
-1
-1
-1
-1
-1
-0.999999
-0.999995
-0.999972
-0.999838
-0.99887
-0.99874
-0.999415
-0.998774
-0.961062
-0.88518
-1
-1
-1
-1
-1
-1
-1
-1
-1
-0.999999
-0.999994
-0.999964
-0.999775
-0.9988
-0.998584
-0.999282
-0.998724
-0.972672
-0.898431
-1
-1
-1
-1
-1
-1
-1
-1
-1
-1
-0.999997
-0.999972
-0.99973
-0.99827
-0.998312
-0.999028
-0.998528
-0.975341
-0.902104
-1
-1
-1
-1
-1
-1
-1
-1
-1
-1
-0.999999
-0.999989
-0.999893
-0.997899
-0.998148
-0.998918
-0.998401
-0.978159
-0.907178
-1
-1
-1
-1
-1
-1
-1
-1
-1
-1
-0.999999
-0.999996
-0.999972
-0.99947
-0.998338
-0.998955
-0.998471
-0.982382
-0.914304
-1
-1
-1
-1
-1
-1
-1
-1
-1
-1
-1
-1
-0.999997
-0.999962
-0.998508
-0.998897
-0.998564
-0.987411
-0.925002
-1
-1
-1
-1
-1
-1
-1
-1
-1
-1
-1
-1
-1
-0.999999
-0.999832
-0.99919
-0.998755
-0.994471
-0.941509
-1
-1
-1
-1
-1
-1
-1
-1
-1
-1
-1
-1
-1
-1
-0.999999
-0.999735
-0.999194
-0.998527
-0.972617
)
;

boundaryField
{
    leftWall
    {
        type            zeroGradient;
    }
    rightWall
    {
        type            zeroGradient;
    }
    lowerWall
    {
        type            zeroGradient;
    }
    atmosphere
    {
        type            zeroGradient;
    }
    defaultFaces
    {
        type            empty;
    }
}


// ************************************************************************* //
