/*--------------------------------*- C++ -*----------------------------------*\
| =========                 |                                                 |
| \\      /  F ield         | foam-extend: Open Source CFD                    |
|  \\    /   O peration     | Version:     4.1                                |
|   \\  /    A nd           | Web:         http://www.foam-extend.org         |
|    \\/     M anipulation  |                                                 |
\*---------------------------------------------------------------------------*/
FoamFile
{
    version     2.0;
    format      ascii;
    class       volScalarField;
    location    "0.55";
    object      p;
}
// * * * * * * * * * * * * * * * * * * * * * * * * * * * * * * * * * * * * * //

dimensions      [1 -1 -2 0 0 0 0];

internalField   nonuniform List<scalar> 
2268
(
416.464
489.902
331.665
360.745
325.338
294.178
332.717
370.912
317.906
361.395
523.872
484.123
559.58
586.974
649.026
676.163
747.696
812.047
884.327
920.915
947.556
974.906
1516.17
351.574
433.678
269.08
299.661
266.213
230.25
273.249
311.867
254.504
289.563
451.609
431.992
495.348
527.942
585.928
630.56
682.605
751.982
827.496
856.578
888.948
916.8
952.75
283.336
376.463
201.282
236.152
206.766
163.293
213.865
254.43
191.804
249.691
364.154
373.163
438.166
465.296
524.399
568.58
631.851
692.976
764.967
795.23
845.79
865.001
895.039
203.972
327.549
129.129
174.152
147.656
91.4534
161.321
207.458
114.804
196.102
307.153
309.701
381.523
394.695
463.773
510.089
584.87
632.683
703.204
744.047
789.273
810.785
839.025
79.595
290.875
48.4971
110.909
97.6224
33.453
103.851
161.866
-4.45852
150.176
250.76
268.654
331.523
376.036
418.545
470.846
530.823
578.511
646.465
681.675
736.356
756.093
784.946
265.269
724.811
13.624
127.871
226.275
116.325
412.648
345.88
-45.1825
100.07
233.736
215.568
356.29
352.192
393.836
423.075
495.759
518.196
580.055
630.932
686.622
711.451
729.654
1049.17
1617.9
447.545
682.163
1095.77
755.367
1393.55
829.17
519.486
363.933
424.753
292.201
474.453
381.292
432.889
401.661
457.977
471.994
531.846
583.382
642.579
647.211
675.95
1565.03
974.078
1265.69
1497.92
1503.27
1459.21
737.419
1452.78
1436.42
978.416
754.278
568.349
672.015
630.228
570.646
375.342
440.751
423.806
485.306
548.937
602.794
613.279
592.082
1817.9
1852.41
1828.34
1846.7
2136.18
2314.89
2259.23
1960.29
1854.31
2247.21
1891.51
2273.31
2317.09
2393.81
2655.99
2828.25
2956.12
1921.29
1986.36
1713.53
1296.16
874.904
767.41
1319.22
2174.99
2157.36
1948.11
1798.65
2062.86
1953.32
1869.75
1788.74
1839.58
1989.72
2356.25
2643.33
2620.2
2192.13
1511.38
796.608
565.608
873.206
1818.81
2199.07
2142.98
2035.85
1860.91
1938.11
1641.28
2089.22
1730.64
1724.15
1864.21
2195.19
2550.34
2863.76
2362.91
1420.05
646.424
535.726
543.989
996.346
1734.43
1937.35
1446.1
1910.62
1823.35
1127.18
1907.92
1964.84
1816.48
1768.32
2105.38
2384.56
2988.01
2495.19
1332.78
626.891
537.874
537.185
544.664
772.197
867.98
579.622
1013.96
957.982
1012.18
1469.19
2047.76
1930.54
1749.59
1913.92
2183.86
2738.87
2689.89
1225.64
596.503
538.373
554.543
543.475
544.263
534.466
534.721
1371.52
1125.39
1059.77
1166.49
1769.54
1972.24
1759.53
1872.27
2097.39
2446.21
2877.49
1105.76
556.386
570.407
629.141
571.828
542.397
537.201
1031.99
1984.47
1393.88
1356.04
1298.2
1823.35
1970.57
1777.19
1837.34
2071.19
2321.16
2945.67
829.662
545.555
689.576
789.944
584.642
690.381
666.633
547.616
1189.29
1689.72
1891.77
1812.41
1994.7
1947.91
1795.76
1852.08
2001.94
2275.44
2899.09
1550.76
735.939
1188.11
1478.84
869.283
892.321
210.391
672.574
1084.22
1678.11
1649.39
1145.07
1492.27
1309.33
874.921
555.484
560.112
554.281
609.555
810.189
874.872
651.909
427.554
1382.76
744.444
241.037
448.913
224.932
210.815
91.5499
159.722
170.714
598.995
1016.64
1411.26
1530.36
1742.49
1558.16
1310.94
1245.15
1280.9
1448.12
1745.03
1813.06
1442.89
603.937
1260.59
994.776
164.624
80.9343
94.5541
85.5309
52.079
57.5332
36.9169
48.9298
123.443
250.408
525.839
1112.98
1516.01
1795.82
1779.81
1755.23
1801.86
1882.45
1832.56
1843.71
1449.24
1499.61
921.933
199.094
32.8611
49.1046
39.6295
33.8353
31.3753
16.6298
27.3949
43.2587
61.8382
312.847
444.28
594.98
852.007
1518.6
1827.85
1880.22
1778.75
1847.95
1871.64
1836.62
1302.33
485.613
48.6826
19.3958
25.2757
22.2561
21.7069
13.0407
14.8466
19.6454
28.1614
22.7271
51.944
83.6449
147.223
258.702
702.171
981.258
1164.87
1140.41
1268.69
1557.54
1752.93
1245.5
337.487
4.68598
8.5912
11.4091
8.69078
10.2414
7.59879
8.79833
11.3242
18.2204
18.7879
23.9724
60.1298
149.256
427.378
1011.84
776.554
713.127
850.199
1087.64
1366.38
1527.09
289.301
5.10905
4.41601
3.78279
5.26685
3.97795
4.22021
3.21246
4.05124
7.32471
16.8626
17.4825
14.2963
18.2425
88.7878
321.866
345.604
127.64
47.545
160.439
525.934
736.147
927.718
1.71865
0.914191
1.26543
1.38921
1.95169
1.54694
2.25338
1.00941
0.670689
-0.270167
9.5079
26.3356
7.32876
5.12733
6.03109
28.758
47.8855
11.908
2.04534
40.6054
130.331
81.1414
122.28
0.0463059
-0.182336
-0.293577
-0.115834
0.300621
-0.282068
-0.382256
-0.846868
-1.7469
-2.00005
-0.609045
33.9747
7.77571
1.98399
1.07479
6.47349
1.51202
-0.0860687
-0.17785
0.00337508
11.8195
2.30688
5.98172
-0.488478
-0.604279
-0.614679
-0.660852
-0.596547
-0.510669
-0.682802
-1.03256
-1.4261
-1.01245
-1.80143
7.94974
1.86552
-0.588297
0.379327
0.255559
-0.927909
-0.841163
-0.989339
-1.01783
-0.699438
-1.37237
-0.765479
-0.833784
-0.878821
-0.889971
-0.894147
-0.923841
-0.982965
-0.947006
-1.11638
-1.38307
-1.07762
-1.01136
3.32872
-0.335728
-1.19493
-0.708831
-0.999931
-1.16607
-1.18214
-1.30518
-1.43739
-1.597
-1.39848
-1.20565
-1.05322
-1.06354
-1.06899
-1.07397
-1.12768
-1.10948
-1.15153
-1.21331
-1.37766
-1.18212
-1.49766
1.93551
-2.48283
-1.82785
-1.40646
-1.49672
-1.46559
-1.44731
-1.49372
-1.5417
-1.61825
-1.57747
-1.5374
-1.29812
-1.28702
-1.30319
-1.29931
-1.30172
-1.29867
-1.28317
-1.2993
-1.35299
-1.46353
-1.74699
-1.92138
-1.42328
-2.01095
-1.6891
-1.66472
-1.6532
-1.63243
-1.67346
-1.66417
-1.65521
-1.61845
-1.53198
-1.41428
-1.41967
-1.42374
-1.4252
-1.44429
-1.44659
-1.46962
-1.50896
-1.57105
-1.47772
-1.7171
0.605317
-1.97257
-2.05797
-1.90617
-1.92065
-1.79584
-1.77035
-1.77822
-1.77589
-1.75273
-1.74426
-1.67622
-1.60604
-1.60012
-1.6113
-1.61387
-1.62485
-1.6404
-1.63894
-1.69352
-1.71185
-1.76391
-1.77412
-2.06162
-1.89219
-1.97651
-1.94231
-2.00064
-1.90704
-1.96241
-1.89811
-1.9383
-1.85162
-1.87128
-1.80522
-1.73263
-1.74702
-1.73849
-1.76352
-1.76406
-1.7807
-1.80592
-1.78616
-1.84477
-1.87
-1.92079
-1.8596
-2.02256
-2.09461
-2.08696
-2.08848
-2.03834
-2.05407
-2.03387
-2.04119
-1.99089
-2.03496
-1.97824
-1.9044
-1.89976
-1.9235
-1.93701
-1.92913
-1.99449
-1.93619
-2.05976
-1.99247
-2.09076
-2.02872
-2.14734
-2.09289
-2.22233
-2.22597
-2.19708
-2.18334
-2.19071
-2.13961
-2.19326
-2.15085
-2.1398
-2.07699
-2.06098
-2.06451
-2.04404
-2.09067
-2.06616
-2.1185
-2.11945
-2.18495
-2.1868
-2.20909
-2.21586
-2.31451
-2.28958
-2.35041
-2.35218
-2.29273
-2.30596
-2.30604
-2.30639
-2.30712
-2.2736
-2.28299
-2.28442
-2.24101
-2.24122
-2.24618
-2.22082
-2.26599
-2.28171
-2.28402
-2.29969
-2.30056
-2.35666
-2.34249
-2.41049
-2.3906
-2.46655
-2.43511
-2.42845
-2.43325
-2.44054
-2.42238
-2.43047
-2.4373
-2.42402
-2.37933
-2.4034
-2.40449
-2.40623
-2.41258
-2.41994
-2.44781
-2.41222
-2.44818
-2.46436
-2.47824
-2.48079
-2.49579
-2.55578
-2.55801
-2.54903
-2.54539
-2.56602
-2.56973
-2.56672
-2.56659
-2.53884
-2.53942
-2.57682
-2.58201
-2.58176
-2.591
-2.57759
-2.60679
-2.58831
-2.6139
-2.59125
-2.60455
-2.62247
-2.6402
-2.69002
-2.66541
-2.6909
-2.67664
-2.69441
-2.68826
-2.70743
-2.69811
-2.70953
-2.7034
-2.68866
-2.69771
-2.73544
-2.74099
-2.73718
-2.75505
-2.74527
-2.73014
-2.74662
-2.76243
-2.7627
-2.77639
-2.78391
-2.79178
-2.81707
-2.80454
-2.82764
-2.81642
-2.82798
-2.83628
-2.84004
-2.83442
-2.8287
-2.83085
-2.82309
-2.91717
-2.92072
-2.92971
-2.91256
-2.93144
-2.91412
-2.91813
-2.92012
-2.92738
-2.93951
-2.94171
-2.9686
-2.94684
-2.96445
-2.94949
-2.98866
-2.96299
-2.99715
-2.96355
-2.98302
-2.97221
-2.97257
-2.9674
-3.06239
-3.06257
-3.05511
-3.06092
-3.06075
-3.07991
-3.07582
-3.06861
-3.07236
-3.07495
-3.07837
-3.07958
-3.093
-3.08001
-3.1068
-3.08899
-3.12521
-3.0949
-3.11496
-3.10392
-3.10931
-3.11754
-3.10644
-3.21368
-3.20953
-3.2139
-3.20875
-3.21529
-3.21615
-3.22017
-3.23503
-3.22582
-3.23744
-3.24372
-3.25397
-3.25088
-3.25823
-3.23673
-3.28032
-3.2392
-3.26599
-3.22928
-3.26667
-3.24926
-3.25028
-3.25085
-3.35264
-3.3529
-3.35044
-3.35411
-3.35306
-3.35911
-3.36011
-3.36209
-3.36399
-3.37063
-3.37372
-3.37691
-3.38159
-3.38214
-3.39923
-3.386
-3.39461
-3.38774
-3.40367
-3.39426
-3.38642
-3.40525
-3.37219
-3.49984
-3.49942
-3.5009
-3.50089
-3.50328
-3.50606
-3.50723
-3.5147
-3.51361
-3.52081
-3.52197
-3.52854
-3.52894
-3.54098
-3.52835
-3.54081
-3.53249
-3.54551
-3.52713
-3.53904
-3.53953
-3.52218
-3.54774
-3.6413
-3.64156
-3.64014
-3.64182
-3.64033
-3.64302
-3.6423
-3.64842
-3.64602
-3.65438
-3.64925
-3.65854
-3.66387
-3.67029
-3.67791
-3.67183
-3.67493
-3.66965
-3.68709
-3.67873
-3.66488
-3.68502
-3.6678
-3.78772
-3.78801
-3.78847
-3.7899
-3.79041
-3.79384
-3.79343
-3.79812
-3.79763
-3.80075
-3.80123
-3.80758
-3.81096
-3.81765
-3.81665
-3.8204
-3.8233
-3.8132
-3.8185
-3.81947
-3.80951
-3.81649
-3.81742
-3.92919
-3.92962
-3.92797
-3.92806
-3.92541
-3.92133
-3.92183
-3.9345
-3.93248
-3.94176
-3.93677
-3.94663
-3.94901
-3.95423
-3.96047
-3.95866
-3.95955
-3.9602
-3.96147
-3.95762
-3.96546
-3.94741
-3.95548
-4.07493
-4.07556
-4.07544
-4.07781
-4.07676
-4.07916
-4.07714
-4.084
-4.08179
-4.085
-4.08712
-4.08818
-4.09206
-4.09672
-4.09997
-4.10101
-4.10365
-4.09574
-4.09889
-4.09384
-4.0923
-4.0973
-4.09479
-4.21728
-4.21791
-4.21634
-4.2183
-4.21474
-4.22006
-4.21549
-4.22599
-4.2273
-4.23403
-4.22965
-4.23343
-4.23412
-4.239
-4.23914
-4.24499
-4.24005
-4.25013
-4.23944
-4.24611
-4.24476
-4.24904
-4.22958
-4.36229
-4.36295
-4.36271
-4.36549
-4.36459
-4.37455
-4.36627
-4.37313
-4.37401
-4.37296
-4.37218
-4.36744
-4.37241
-4.3764
-4.37973
-4.38214
-4.38777
-4.38185
-4.38095
-4.37199
-4.3824
-4.36614
-4.38476
-4.50549
-4.50618
-4.50506
-4.50661
-4.50598
-4.50983
-4.50772
-4.5051
-4.51072
-4.51531
-4.51546
-4.51345
-4.51811
-4.52084
-4.5234
-4.52619
-4.52845
-4.52806
-4.53027
-4.52367
-4.51989
-4.53248
-4.52142
-4.64887
-4.64952
-4.64811
-4.65128
-4.64257
-4.65357
-4.64967
-4.65008
-4.6552
-4.65066
-4.65671
-4.65429
-4.65474
-4.6588
-4.66004
-4.66285
-4.66375
-4.66439
-4.66506
-4.66287
-4.67085
-4.65582
-4.6618
-4.794
-4.79372
-4.79378
-4.79227
-4.79091
-4.79419
-4.79573
-4.79554
-4.79958
-4.80215
-4.80569
-4.80317
-4.80162
-4.80469
-4.80708
-4.80888
-4.81119
-4.81047
-4.81083
-4.81127
-4.80807
-4.80828
-4.80301
-4.93489
-4.93574
-4.93696
-4.93751
-4.93753
-4.93927
-4.93841
-4.93845
-4.9401
-4.93101
-4.94318
-4.93838
-4.93534
-4.94105
-4.94172
-4.9443
-4.94478
-4.94809
-4.94644
-4.95529
-4.9479
-4.95164
-4.94407
-5.08351
-5.08209
-5.0826
-5.07985
-5.08425
-5.08187
-5.08554
-5.08388
-5.08552
-5.08533
-5.08821
-5.08901
-5.09002
-5.09088
-5.09203
-5.0927
-5.09495
-5.09264
-5.09591
-5.09142
-5.09517
-5.08621
-5.0988
-5.21906
-5.22074
-5.22426
-5.22503
-5.22776
-5.22674
-5.23008
-5.22769
-5.22631
-5.22445
-5.22592
-5.22481
-5.22486
-5.22554
-5.22415
-5.22603
-5.22618
-5.22787
-5.22921
-5.22692
-5.22842
-5.24122
-5.22924
-5.37465
-5.37129
-5.37417
-5.36452
-5.37038
-5.37462
-5.38058
-5.37582
-5.37689
-5.37608
-5.37698
-5.37761
-5.37779
-5.37713
-5.37725
-5.3765
-5.37749
-5.37748
-5.37445
-5.37639
-5.37482
-5.37552
-5.37427
-5.50113
-5.50168
-5.506
-5.51306
-5.51455
-5.51182
-5.50777
-5.51683
-5.50668
-5.51571
-5.50806
-5.51255
-5.51177
-5.51013
-5.50672
-5.51029
-5.50911
-5.5103
-5.51251
-5.51234
-5.51161
-5.5061
-5.51526
-5.66461
-5.66469
-5.66948
-5.66488
-5.66682
-5.66247
-5.66712
-5.66357
-5.66667
-5.66388
-5.66639
-5.66628
-5.66686
-5.66165
-5.65877
-5.65505
-5.65633
-5.65462
-5.65272
-5.65717
-5.65959
-5.66358
-5.65317
325.512
179.091
641.731
784.079
302.383
180.993
310.457
649.719
991.792
505.951
534.553
495.062
1788.52
1563.75
1157.57
741.557
1837.23
1862.46
1819.79
1553.78
1610.46
1652.94
1716.63
1761.04
895.693
927.206
1037.82
1287.12
91.6723
101.845
278.634
375.319
15.3716
31.0394
50.3288
62.7044
1.59918
2.80831
8.47069
14.5577
-0.810306
-1.05267
-0.897325
-0.642942
-1.4236
-1.4023
-1.32903
-1.2054
-1.5143
-1.48326
-1.44731
-1.43176
-1.65205
-1.63927
-1.62139
-1.64888
-1.81202
-1.78826
-1.78189
-1.76902
-1.96824
-1.95408
-1.95452
-1.94893
-2.12865
-2.10013
-2.10691
-2.08733
-2.25155
-2.23872
-2.26158
-2.25095
-2.39162
-2.38522
-2.38985
-2.37339
-2.52352
-2.53526
-2.53304
-2.53189
-2.68163
-2.69911
-2.66566
-2.67213
-2.83768
-2.8089
-2.82043
-2.81811
-2.95936
-2.95796
-2.95351
-2.95189
-3.12215
-3.10002
-3.10293
-3.1112
-3.24966
-3.2503
-3.25999
-3.23712
-3.40624
-3.3897
-3.40052
-3.39741
-3.52413
-3.53504
-3.52411
-3.53817
-3.68426
-3.67032
-3.68813
-3.67666
-3.81556
-3.82092
-3.81256
-3.81766
-3.95638
-3.95692
-3.96046
-3.95841
-4.09989
-4.09351
-4.10267
-4.09787
-4.23645
-4.23324
-4.24109
-4.23593
-4.37399
-4.38042
-4.37984
-4.38225
-4.52551
-4.51945
-4.52495
-4.51872
-4.66426
-4.65344
-4.66152
-4.65864
-4.79968
-4.80856
-4.80398
-4.80722
-4.95097
-4.94324
-4.94739
-4.94117
-5.08385
-5.09138
-5.0855
-5.09298
-5.23499
-5.23292
-5.22656
-5.22466
-5.37396
-5.37203
-5.37986
-5.36998
-5.51261
-5.51745
-5.51103
-5.5156
-5.6571
-5.65549
-5.66092
-5.65985
837.772
895.526
1180.03
1465.26
1097.5
1368.09
1472.7
1095.2
1675.97
1571.26
1892.65
1952.25
1986.07
1916.45
1848.64
1848.34
1924.47
2221.19
2791.95
773.675
866.29
1071.67
1591.96
1097.19
1367.59
1374.66
1120.99
1240.79
1144.44
1145.44
1319.27
1218.33
1342.11
1478.04
1699.3
1834.9
2188.66
2660.12
409.065
476.822
480.039
618.665
313.158
496.822
438.899
442.089
673.032
1054.31
1415.36
1598.52
1875.21
1836.73
1949.14
2155.25
2209.6
2297.78
2464.8
582.941
547.786
573.362
367.06
364.587
368.258
350.406
617.468
1411.6
1809.39
1420.59
944.97
860.639
902.923
1031.51
1576.3
2060.32
2030.05
2209.8
1232.77
1055.23
674.514
457.61
591.551
610.266
594.309
1466.45
1510.79
743.363
466.206
451.176
459.178
509.277
568.338
1450.03
1894.63
1833.76
2052.06
1711.5
1717.17
1553.48
1504.53
1699.21
1406.13
1110.36
1611.61
1404.27
484.248
259.604
207.853
221.798
240.082
301.511
1037.23
1833.54
1607.93
1895.36
1340.55
976.578
1059.63
915.154
1088.7
1711.29
1660.78
1714.09
678.366
164.701
118.656
90.1789
80.4227
104.762
173.026
637.581
1600.66
1607.21
1808.34
255.561
247.286
716.061
722.936
916.135
1562.67
1504.89
875.966
118.466
40.1719
53.1795
42.4266
28.2394
41.7189
76.6548
373.176
1356.82
1497.51
1719.79
76.2491
226.217
641.361
325.738
766.885
1268.54
795.974
133.101
14.2363
10.4
20.8961
29.4541
17.7024
21.6066
72.5879
336.549
1307.33
1500.58
1732.77
16.7166
47.8152
283.098
147.243
231.724
470.226
271.245
49.8755
5.70329
2.94971
4.83557
13.8793
11.809
18.9419
59.0816
217.676
1274.12
1555.36
1733.16
0.772277
8.10527
30.6642
12.5532
26.8006
37.3229
11.3728
0.752457
0.741192
1.94707
2.12079
3.41413
6.44252
16.6248
68.5858
340.897
1219.41
1706.3
1700.68
-0.894141
-0.615433
-1.04154
-0.965766
-1.00649
-0.179238
-1.49817
-0.988123
-0.227892
0.972585
1.4535
1.75017
5.9281
24.5171
69.9067
376.846
1199.78
1743.33
1736.77
-1.23915
-1.38497
-1.38037
-1.49241
-2.02802
-1.80264
-1.73163
-1.35136
-0.64731
-0.326997
0.480284
4.3364
4.70732
45.3574
140.037
447.751
1167.6
1731.84
1732.35
-1.53919
-1.63187
-1.64763
-1.65079
-1.97825
-1.64949
-1.69145
-1.67245
-1.0453
-1.28655
-1.62238
11.3056
43.8686
148.001
292.401
656.11
1174.12
1698.11
1748.16
-1.72957
-1.76272
-1.77005
-1.82901
-2.07671
-1.77441
-1.83657
-1.91754
-1.50582
-1.12868
-2.34336
-0.710022
5.93143
39.0373
134.564
712.246
1269.7
1642.44
1760.18
-1.92801
-1.95166
-1.89908
-1.9229
-1.98162
-1.93884
-1.88537
-2.05848
-2.08039
-2.11746
-2.49261
-2.30732
-0.97559
0.055398
33.5582
449.156
1298.83
1611.63
1727.06
-2.09314
-2.07413
-2.12777
-2.05924
-2.10236
-2.08621
-2.16277
-2.19685
-2.30615
-2.34585
-2.43822
-2.30178
-1.96548
-1.3498
2.33112
132.243
1045.16
1657.97
1719.7
-2.25892
-2.23762
-2.22857
-2.1932
-2.25648
-2.2304
-2.23156
-2.25847
-2.30159
-2.47229
-2.45197
-2.48802
-2.33267
-2.21419
-2.00002
7.75593
250.502
1338.18
1620.63
-2.4059
-2.35466
-2.42752
-2.35811
-2.3824
-2.3785
-2.4094
-2.40081
-2.55062
-2.51002
-2.59338
-2.55027
-2.52402
-2.18448
-2.20263
-0.986958
20.0464
485.513
1438.94
-2.54843
-2.53633
-2.53869
-2.53996
-2.5376
-2.54825
-2.54658
-2.57345
-2.57428
-2.66592
-2.67978
-2.68427
-2.69844
-2.57534
-2.35098
-1.85447
10.6223
298.608
1370.49
-2.66215
-2.68883
-2.66009
-2.6742
-2.66691
-2.70127
-2.71415
-2.71324
-2.76096
-2.74785
-2.80315
-2.80932
-2.83665
-2.76583
-2.6529
-1.54158
10.4526
210.947
1307.38
-2.82547
-2.80759
-2.8311
-2.82002
-2.84228
-2.83195
-2.86842
-2.84126
-2.88748
-2.89621
-2.93875
-2.92711
-2.98784
-2.9856
-2.75778
-1.5908
7.32025
201.985
1297.48
-2.95296
-2.96849
-2.94537
-2.97636
-2.97494
-2.98859
-2.99086
-3.02079
-3.01024
-3.03038
-3.05576
-3.0782
-3.12861
-3.12338
-3.00485
-2.10134
1.76534
221.836
1324.07
-3.09393
-3.08295
-3.09904
-3.10977
-3.11667
-3.12402
-3.13946
-3.13369
-3.16133
-3.17849
-3.18921
-3.22715
-3.23894
-3.26436
-3.14467
-3.16216
4.63596
307.251
1394.23
-3.24453
-3.25733
-3.25007
-3.24758
-3.25162
-3.26095
-3.26731
-3.28469
-3.30128
-3.31044
-3.32247
-3.35954
-3.41027
-3.4473
-3.19194
-2.46836
34.8755
492.441
1471.56
-3.40655
-3.37606
-3.39542
-3.39701
-3.41475
-3.39333
-3.42079
-3.42189
-3.43181
-3.4497
-3.44666
-3.48964
-3.48618
-3.54293
-3.2253
-0.287365
52.7305
575.916
1496.97
-3.53457
-3.55158
-3.54407
-3.54245
-3.54497
-3.55765
-3.56011
-3.56333
-3.56977
-3.58029
-3.57817
-3.60099
-3.66494
-3.70188
-3.2114
-0.3231
55.039
565.977
1484.35
-3.6808
-3.67359
-3.69961
-3.68234
-3.68192
-3.68646
-3.68878
-3.69698
-3.69876
-3.70965
-3.70804
-3.76445
-3.6894
-3.82484
-3.52262
-0.701125
54.4468
526.259
1435.68
-3.81799
-3.81909
-3.82506
-3.81992
-3.82653
-3.82402
-3.8281
-3.82293
-3.82559
-3.82513
-3.81728
-3.84478
-3.82571
-3.8868
-3.63532
-1.08637
54.6064
509.169
1362.98
-3.94683
-3.95537
-3.96759
-3.9512
-3.96833
-3.9627
-3.95958
-3.97061
-3.96443
-3.95926
-3.96395
-3.93963
-3.94823
-3.93974
-3.84732
-2.68738
42.1971
483.743
1264.01
-4.10546
-4.09437
-4.10811
-4.09959
-4.10972
-4.09575
-4.09913
-4.09527
-4.09221
-4.09252
-4.07518
-4.0525
-4.06706
-3.98636
-3.83024
-4.01299
14.3185
341.464
1080.69
-4.24176
-4.22438
-4.24671
-4.24042
-4.23715
-4.23545
-4.2384
-4.23364
-4.22976
-4.19866
-4.2185
-4.14028
-4.18985
-4.06203
-4.11236
-4.09137
-1.96371
80.2081
668.233
-4.39647
-4.37849
-4.38388
-4.38208
-4.3795
-4.37218
-4.37887
-4.36661
-4.35731
-4.34832
-4.33298
-4.292
-4.28863
-4.19183
-4.1817
-4.12208
-4.31156
0.692261
252.261
-4.53313
-4.50478
-4.5334
-4.50585
-4.53099
-4.51272
-4.5184
-4.50971
-4.5066
-4.48874
-4.5063
-4.42966
-4.43337
-4.28707
-4.30262
-4.29292
-4.23049
-5.07638
97.646
-4.67498
-4.65851
-4.65574
-4.66292
-4.66465
-4.65452
-4.66128
-4.64809
-4.65826
-4.63466
-4.65
-4.59544
-4.64461
-4.53801
-4.63368
-4.63134
-4.33528
4.5601
82.735
-4.80833
-4.79966
-4.80491
-4.79564
-4.79979
-4.79941
-4.79701
-4.79236
-4.79144
-4.78036
-4.80077
-4.73883
-4.76663
-4.62444
-4.79241
-4.80367
-4.74767
-0.308665
58.1581
-4.9499
-4.94101
-4.9435
-4.9392
-4.94307
-4.92924
-4.94048
-4.93615
-4.9382
-4.93012
-4.9449
-4.91413
-5.0089
-4.86076
-5.13458
-4.94407
-5.28178
-1.43079
57.7603
-5.08989
-5.08941
-5.08602
-5.09048
-5.08108
-5.09793
-5.08199
-5.08219
-5.08086
-5.0723
-5.09509
-5.05983
-5.09233
-5.12084
-5.07085
-5.19252
-5.42359
-2.33299
51.4533
-5.2178
-5.22795
-5.2265
-5.22359
-5.22775
-5.2224
-5.22623
-5.22873
-5.22666
-5.22658
-5.24918
-5.25753
-5.28611
-5.31798
-5.31366
-5.50879
-5.54094
-3.75471
42.9844
-5.37989
-5.37157
-5.36752
-5.3751
-5.35672
-5.37723
-5.36929
-5.36758
-5.37263
-5.37097
-5.37688
-5.35327
-5.40273
-5.37156
-5.50574
-5.12265
-5.67822
-5.35928
29.5904
-5.51005
-5.52845
-5.51079
-5.51521
-5.51265
-5.51147
-5.51113
-5.51346
-5.51518
-5.51315
-5.56671
-5.54587
-5.6656
-5.61349
-5.84182
-5.61777
-7.25785
-9.61512
4.42936
-5.66453
-5.64606
-5.66342
-5.65388
-5.66024
-5.65899
-5.66024
-5.67165
-5.67653
-5.7011
-5.65184
-5.74149
-5.65256
-5.75268
-5.86065
-6.27817
-7.17695
-11.6779
-26.795
)
;

boundaryField
{
    leftWall
    {
        type            calculated;
        value           nonuniform List<scalar> 
50
(
416.464
351.574
283.336
203.972
79.595
265.269
1049.17
1565.03
1550.76
1382.76
1260.59
1499.61
1302.33
1245.5
289.301
1.71865
0.0463059
-0.488478
-0.833784
-1.05322
-1.29812
-1.41428
-1.60604
-1.73263
-1.9044
-2.06098
-2.24101
-2.4034
-2.58201
-2.73544
-2.91717
-3.06239
-3.21368
-3.35264
-3.49984
-3.6413
-3.78772
-3.92919
-4.07493
-4.21728
-4.36229
-4.50549
-4.64887
-4.794
-4.93489
-5.08351
-5.21906
-5.37465
-5.50113
-5.66461
)
;
    }
    rightWall
    {
        type            calculated;
        value           nonuniform List<scalar> 
50
(
1986.36
2192.13
2362.91
2495.19
2689.89
2877.49
2945.67
2899.09
2791.95
2660.12
2464.8
2209.8
2052.06
1895.36
1808.34
1719.79
1732.77
1733.16
1700.68
1736.77
1732.35
1748.16
1760.18
1727.06
1719.7
1620.63
1438.94
1370.49
1307.38
1297.48
1324.07
1394.23
1471.56
1496.97
1484.35
1435.68
1362.98
1264.01
1080.69
668.233
252.261
97.646
82.735
58.1581
57.7603
51.4533
42.9844
29.5904
4.42936
-26.795
)
;
    }
    lowerWall
    {
        type            calculated;
        value           nonuniform List<scalar> 
62
(
445.893
519.332
361.094
390.175
354.767
323.607
362.146
400.34
347.335
390.819
553.297
513.549
589.007
616.402
678.455
705.591
777.125
841.476
913.757
950.344
976.978
1003.95
1532.71
1516.17
952.75
895.039
839.025
784.946
729.654
675.95
592.082
386.51
240.086
696.381
791.143
1817.9
1713.53
1511.38
1420.05
1332.78
1225.64
1105.76
829.662
1826.13
1861.27
1837.78
1857.23
2148.15
2329.26
2274.74
1976.4
1870.58
2263.46
1907.31
2288.34
2331.92
2408.53
2670.87
2841.56
2968.86
1926.8
1992.24
)
;
    }
    atmosphere
    {
        type            calculated;
        value           nonuniform List<scalar> 
46
(
-5.73368
-5.7348
-5.73738
-5.74064
-5.73753
-5.73468
-5.73417
-5.73351
-5.73446
-5.73202
-5.73431
-5.73221
-5.73545
-5.73282
-5.73193
-5.73061
-5.73075
-5.72995
-5.72987
-5.73044
-5.7301
-5.72998
-5.72958
-5.72922
-5.72951
-5.72965
-5.7294
-5.72957
-5.72914
-5.7291
-5.72977
-5.7302
-5.73155
-5.73329
-5.7436
-5.74282
-5.75728
-5.76383
-5.80027
-5.82466
-5.86498
-5.98541
-6.46001
-8.00649
-9.88433
-83.9042
)
;
    }
    defaultFaces
    {
        type            empty;
    }
}


// ************************************************************************* //
