/*--------------------------------*- C++ -*----------------------------------*\
| =========                 |                                                 |
| \\      /  F ield         | foam-extend: Open Source CFD                    |
|  \\    /   O peration     | Version:     4.1                                |
|   \\  /    A nd           | Web:         http://www.foam-extend.org         |
|    \\/     M anipulation  |                                                 |
\*---------------------------------------------------------------------------*/
FoamFile
{
    version     2.0;
    format      ascii;
    class       volScalarField;
    location    "0.55";
    object      pd;
}
// * * * * * * * * * * * * * * * * * * * * * * * * * * * * * * * * * * * * * //

dimensions      [1 -1 -2 0 0 0 0];

internalField   nonuniform List<scalar> 
2268
(
445.893
519.332
361.094
390.175
354.767
323.607
362.146
400.34
347.335
390.819
553.297
513.549
589.007
616.402
678.455
705.591
777.125
841.476
913.757
950.344
976.978
1003.95
1532.71
439.861
521.962
357.367
387.948
354.499
318.526
361.53
400.128
342.776
377.768
539.84
520.237
583.601
616.199
674.199
718.837
770.889
840.268
915.784
944.865
977.234
1004.99
1040.1
430.466
523.521
348.411
383.272
353.866
310.258
360.906
401.294
338.795
396.527
510.955
519.969
584.95
612.148
671.425
715.684
778.981
840.115
912.109
942.372
992.917
1011.86
1040.82
409.611
532.438
334.869
379.791
353.024
295.995
366.458
411.921
320.016
400.945
511.667
512.123
584.741
598.766
668.639
715.6
790.605
838.539
909.133
950.026
995.236
1016.45
1043.05
340.168
546.506
310.919
372.553
357.093
291.299
363.406
419.398
256.728
411.571
508.131
524.094
589.175
633.658
677.961
733.097
794.233
842.722
910.968
946.418
1001.12
1020.59
1047.2
560.084
995.212
321.635
432.567
520.11
412.096
692.416
639.111
264.002
412.557
542.32
522.079
659.676
656.97
701.855
738.045
814.447
839.621
902.267
954.014
1010.08
1034.65
1049.8
1323.71
1807.36
761.249
987.608
1366.85
1046.97
1617.92
1128.66
827.968
695.513
762.186
635.412
814.817
731.872
785.897
767.607
829.243
848.503
909.617
963.09
1023.92
1028.92
1054.84
1813.38
1092.53
1525.78
1753.65
1698.81
1680.84
819.58
1644.58
1677.44
1296.87
1109.37
937.017
1042.71
1004.37
957.556
791.291
863.74
852.801
914.138
979.264
1036.16
1052.71
1029.18
1826.13
1861.27
1837.78
1857.23
2148.15
2329.26
2274.74
1976.4
1870.58
2263.46
1907.31
2288.34
2331.92
2408.53
2670.87
2841.56
2968.86
1926.8
1992.24
1737.21
1313.97
885.93
776.783
1338.31
2211.31
2202.65
1997.88
1849.59
2113.73
2003.54
1925.4
1850.11
1901.83
2053.46
2418.11
2701.57
2649.3
2213.31
1547.75
812.241
570.589
892.036
1865.23
2263.14
2218.59
2115.1
1940.96
2012.31
1689.66
2171.29
1831.95
1828.38
1972.59
2300.96
2649.43
2922.56
2403.22
1467.86
660.67
537.388
547.801
1028.9
1798
2019.5
1500.2
2015.12
1917.69
1175.19
1983.26
2091.15
1954.99
1921.61
2257.05
2530.86
3088.06
2557.57
1390.67
643.513
541.655
539.761
549.48
799.57
902.315
594.467
1064.3
1012.31
1068.47
1542.36
2165.38
2097.99
1945.68
2112.29
2377.98
2906.28
2782.71
1290.21
613.592
543.875
564.058
549.139
551.059
540.089
544.353
1455.72
1199.12
1130.81
1239.81
1883.85
2167.82
1996.46
2116.34
2338.13
2671.19
3012.73
1173.63
570.082
586.1
653.121
586.437
550.454
545.302
1098.31
2144.77
1501.6
1461.05
1396.22
1966.66
2198.67
2053.79
2126.01
2357
2594.01
3134.78
884.082
558.255
726.617
837.219
605.105
726.985
701.75
570.614
1291.41
1844.43
2073.27
1977.12
2197.94
2212.05
2110.64
2184.27
2331.58
2592.4
3131.87
1806.47
850.705
1340.36
1667.63
989.393
1013.02
257.525
773.537
1231.79
1911.24
1957.19
1522.57
1843.28
1680.13
1302.42
1020.49
1034.61
1031.57
1084.15
1263.99
1325.32
1133.31
946.725
1789.41
881.845
298.62
543.555
286.005
268.452
126.194
210.779
223.986
716.363
1191.71
1667.31
1786.73
2058.4
1978.65
1774.1
1725.28
1757.08
1907.09
2155.72
2216.57
1896.48
1174.56
1763.81
1195.27
221.982
116.676
137.007
126.133
81.9412
90.5661
62.1054
77.8518
172.706
324.356
644.335
1320.26
1791.13
2183.9
2228.86
2211.14
2250.05
2300.96
2254.72
2285.64
1989.11
2007.04
1146.05
283.043
58.6876
83.9453
69.7209
59.2836
55.6359
32.1732
42.0609
62.7272
94.6069
414.38
572.943
747.648
1057.25
1830.45
2240.72
2337.52
2219.39
2284.06
2317.52
2338.13
1848.11
650.921
92.7775
43.8151
51.3809
45.6918
42.5564
31.3446
28.6935
33.5312
48.8887
37.2668
88.3647
134.756
221.848
368.456
899.085
1227.48
1454.08
1426.51
1576.81
1925.09
2178.61
1829
489.811
17.8437
25.1848
30.7086
25.0906
27.1723
23.7755
21.7622
23.6635
37.6749
28.2048
47.6233
110.06
234.857
587.988
1303.66
1018.42
952.451
1106.35
1395.39
1743.19
1950.34
439.774
22.0423
15.3373
15.1728
19.0948
14.2877
15.3552
15.538
16.4905
20.5498
37.3398
39.0167
32.3968
46.0482
164.558
477.708
503.169
218.24
101.694
265.17
737.113
1004.78
1243.72
10.7366
9.45156
10.8974
10.0632
11.9003
8.72002
10.5663
9.87177
11.5275
10.2914
34.1101
71.2433
21.5763
16.918
20.6984
74.0752
107.609
40.2945
13.4549
97.0431
234.93
162.347
224.761
3.74115
3.39084
2.82638
5.22937
8.07183
4.65653
5.30069
6.05989
5.37997
2.14579
15.9179
82.5509
31.7003
12.5492
12.8565
29.5643
14.7652
8.47619
5.24353
13.7293
47.0644
18.9802
31.5997
2.37492
1.98747
1.72252
2.37491
4.07949
3.42139
2.80611
3.52614
2.05827
1.38285
2.24764
40.6374
16.5585
6.15586
10.3941
10.9772
3.80818
2.97874
2.63756
4.99806
9.62339
6.69725
10.9297
1.59038
1.24442
1.12995
1.18635
1.55269
1.61208
1.51766
1.48223
0.655444
0.889765
2.558
26.8516
12.7859
5.54158
7.56283
4.49849
2.24007
2.02101
1.57427
1.78585
1.84165
2.76952
4.99093
1.20255
0.982342
0.917554
0.87943
0.848655
0.938776
0.895407
0.777612
0.552672
0.804208
1.84072
20.0066
6.22909
2.66217
3.96575
2.16764
1.20862
1.35255
1.09136
0.838628
0.5707
0.916953
1.69315
0.901783
0.79519
0.769554
0.738735
0.737636
0.742113
0.75694
0.737845
0.686166
0.673344
1.09597
12.266
4.78574
3.60819
1.92561
1.06619
0.899373
1.04965
0.72453
0.500937
0.412815
0.469688
0.708884
0.812489
0.753735
0.751846
0.735931
0.716737
0.714587
0.691599
0.652129
0.592358
0.794919
1.26736
25.0037
1.966
3.24971
1.29611
0.60602
0.646808
0.675233
0.548736
0.432739
0.413723
0.419699
0.496424
0.695146
0.68855
0.678138
0.672338
0.661338
0.645822
0.647279
0.592696
0.576942
0.596994
0.791307
4.29698
0.765381
0.671449
0.618699
0.411967
0.465191
0.381425
0.447325
0.384132
0.436073
0.41558
0.481495
0.683207
0.665069
0.673674
0.647875
0.647327
0.63069
0.605465
0.625247
0.571481
0.611311
0.609612
2.54022
0.54358
0.449287
0.364087
0.33147
0.379505
0.360922
0.381222
0.372036
0.420689
0.376577
0.43353
0.632799
0.636959
0.613253
0.599577
0.607452
0.542095
0.600395
0.476842
0.544376
0.449447
0.54171
0.534581
0.45395
0.322945
0.316256
0.339774
0.353618
0.345953
0.397045
0.343374
0.385754
0.396801
0.45965
0.600869
0.597293
0.617772
0.571107
0.595618
0.543277
0.542323
0.476834
0.475111
0.455032
0.464201
0.369251
0.372508
0.311609
0.310139
0.369075
0.355829
0.355739
0.355388
0.354657
0.388177
0.378791
0.377358
0.54596
0.545752
0.5408
0.566146
0.520978
0.505259
0.502951
0.487276
0.48641
0.43031
0.444482
0.376491
0.396378
0.320425
0.351876
0.358533
0.353725
0.346429
0.364587
0.356498
0.349672
0.362952
0.407642
0.508765
0.507672
0.505938
0.499587
0.492221
0.464353
0.49994
0.463984
0.447799
0.433924
0.431373
0.416377
0.35638
0.354153
0.363136
0.366772
0.346145
0.342435
0.345447
0.345569
0.373326
0.372745
0.335345
0.45535
0.455599
0.446362
0.459771
0.430571
0.449051
0.42346
0.446104
0.432804
0.414891
0.397159
0.347333
0.371946
0.346456
0.36072
0.342944
0.349098
0.329923
0.339245
0.327829
0.33396
0.348698
0.339643
0.427111
0.421558
0.42537
0.4075
0.417286
0.432416
0.415927
0.400127
0.399857
0.386157
0.378644
0.370776
0.345487
0.358014
0.334909
0.346129
0.334571
0.326272
0.322508
0.328131
0.33385
0.3317
0.339465
0.370582
0.367026
0.358041
0.375188
0.356307
0.373627
0.369614
0.367631
0.360365
0.348235
0.346033
0.319148
0.340903
0.3233
0.338258
0.299086
0.324759
0.290595
0.324196
0.30473
0.315537
0.315178
0.320346
0.350548
0.350375
0.357834
0.352025
0.35219
0.333032
0.337124
0.344334
0.340586
0.337992
0.334567
0.333366
0.319945
0.332935
0.306144
0.323951
0.287728
0.318041
0.29798
0.309022
0.303628
0.295401
0.306502
0.324457
0.328604
0.324237
0.329383
0.322845
0.321984
0.317969
0.303104
0.312319
0.300694
0.294418
0.28417
0.28726
0.279902
0.301405
0.257814
0.29894
0.272142
0.308855
0.27147
0.288871
0.287851
0.287282
0.310686
0.310428
0.312894
0.309216
0.310268
0.304223
0.303215
0.30124
0.299338
0.292696
0.289608
0.286417
0.281743
0.281186
0.264098
0.277331
0.268723
0.27559
0.259663
0.269068
0.276909
0.258083
0.291139
0.288686
0.289104
0.287629
0.287635
0.28525
0.282463
0.281296
0.273823
0.27491
0.267717
0.266558
0.259986
0.25959
0.247544
0.260175
0.247718
0.256036
0.243015
0.261398
0.249481
0.248999
0.26634
0.240789
0.272416
0.272157
0.273584
0.2719
0.273392
0.270699
0.27142
0.265299
0.267697
0.259338
0.264472
0.255178
0.249853
0.243426
0.235804
0.241891
0.238789
0.24407
0.226627
0.234986
0.248837
0.228704
0.245918
0.251199
0.250905
0.250444
0.249009
0.248503
0.24507
0.245488
0.240796
0.241288
0.238162
0.237688
0.231338
0.227953
0.22126
0.22226
0.218513
0.215617
0.225712
0.220415
0.219443
0.229401
0.222426
0.221494
0.234919
0.234487
0.236136
0.236051
0.238694
0.242776
0.242276
0.229605
0.231625
0.22235
0.227337
0.217478
0.215098
0.209883
0.203634
0.205444
0.204555
0.203904
0.202637
0.206491
0.198646
0.216698
0.208626
0.214371
0.213744
0.213859
0.211497
0.212548
0.21014
0.212167
0.205304
0.207509
0.204306
0.202187
0.201125
0.197245
0.192587
0.189338
0.188291
0.185656
0.193558
0.190411
0.19546
0.197006
0.192007
0.194517
0.197221
0.196584
0.198153
0.196202
0.19976
0.194434
0.199011
0.188508
0.1872
0.18047
0.184844
0.181072
0.180377
0.175502
0.175361
0.169507
0.174444
0.164364
0.175056
0.16839
0.169741
0.165454
0.18492
0.177398
0.176745
0.176979
0.174197
0.175099
0.165137
0.173418
0.166566
0.165683
0.166733
0.167507
0.172252
0.167286
0.163293
0.159957
0.157553
0.151921
0.157844
0.158742
0.167706
0.157288
0.173555
0.154935
0.159396
0.158703
0.159823
0.158279
0.158908
0.155056
0.157166
0.159791
0.15417
0.149576
0.149426
0.151441
0.146781
0.144048
0.141485
0.138693
0.136432
0.136824
0.134619
0.141218
0.145001
0.132408
0.143465
0.141215
0.140558
0.14197
0.138799
0.147511
0.136509
0.140413
0.139997
0.134877
0.139417
0.13337
0.135793
0.135337
0.131281
0.130042
0.127229
0.126332
0.125689
0.125024
0.127209
0.119235
0.134262
0.12828
0.121273
0.121551
0.121494
0.123003
0.124365
0.121082
0.119549
0.119738
0.115692
0.113121
0.109588
0.11211
0.113655
0.11059
0.108198
0.106392
0.104084
0.104802
0.10445
0.104003
0.107201
0.106998
0.112264
0.105578
0.104734
0.103507
0.102959
0.102943
0.101195
0.102057
0.10202
0.100373
0.109463
0.0972946
0.102093
0.105128
0.0994202
0.0987542
0.0961691
0.0956873
0.0923823
0.0940349
0.0851849
0.0925715
0.088835
0.0963954
0.0821516
0.0835776
0.0830616
0.0858172
0.0814189
0.0837897
0.0801269
0.0817827
0.0801443
0.0803324
0.0774527
0.076655
0.0756464
0.0747824
0.0736387
0.0729597
0.0707129
0.0730269
0.0697575
0.0742398
0.0704927
0.079458
0.0668652
0.0717955
0.0701226
0.0665974
0.0658288
0.0630958
0.0641239
0.0607801
0.0631727
0.0645469
0.066411
0.0649379
0.0660528
0.0660034
0.0653219
0.0667137
0.0648272
0.0646797
0.0629909
0.0616469
0.0639437
0.0624369
0.049639
0.0616166
0.0414072
0.0447682
0.0418818
0.0515313
0.0456752
0.0414304
0.0354696
0.0402314
0.0391597
0.0399727
0.0390745
0.0384456
0.0382598
0.0389243
0.0388058
0.039555
0.0385685
0.038572
0.0416011
0.0396673
0.0412367
0.0405303
0.0417791
0.0401156
0.0395702
0.0352501
0.0281868
0.0266994
0.029428
0.0334732
0.0244136
0.0345706
0.0255395
0.0331867
0.0287002
0.0294745
0.0311141
0.0345289
0.0309612
0.0321341
0.0309513
0.0287357
0.0289124
0.0296347
0.035152
0.0259879
0.00183222
0.00175293
-0.00303608
0.00155987
-0.000373438
0.0039766
-0.000679042
0.00287414
-0.000230923
0.00256213
5.68297e-05
0.000166503
-0.00041278
0.00479552
0.00767488
0.0113897
0.0101169
0.0118274
0.0137248
0.00927247
0.00684966
0.00286704
0.0132761
845.343
698.901
1107.47
844.279
915.869
816.119
927.479
1227.29
1609.39
1185.38
1240.02
1206.04
2348.46
2175.99
1845.2
1499
2311.5
2376.56
2394.58
2225.96
2061.86
2128.02
2224.16
2321.15
1204.37
1244.87
1383.23
1696.17
177.521
192.463
433.676
557.319
51.7364
84.5069
117.984
135.237
17.7625
25.212
39.121
49.5051
6.68344
4.55852
7.95843
10.3583
1.571
1.12188
1.39485
1.69864
0.613362
0.633896
0.73631
0.898334
0.518939
0.543928
0.56618
0.572115
0.474805
0.499424
0.507316
0.524056
0.443209
0.457422
0.457064
0.46278
0.407945
0.436492
0.429737
0.449362
0.410226
0.423062
0.400205
0.410849
0.395348
0.401751
0.397123
0.413585
0.388638
0.376899
0.379125
0.380273
0.355728
0.338249
0.3717
0.365231
0.324876
0.353654
0.342121
0.344439
0.328386
0.329789
0.334241
0.335861
0.29079
0.312921
0.310013
0.301736
0.288475
0.287831
0.278145
0.301019
0.257095
0.273635
0.262809
0.265925
0.264391
0.253481
0.264412
0.250354
0.229456
0.243398
0.225586
0.237063
0.223356
0.21799
0.226357
0.221251
0.207731
0.207189
0.203652
0.205697
0.189411
0.195796
0.186629
0.191434
0.178046
0.181261
0.173406
0.17857
0.165705
0.159271
0.159849
0.157439
0.139374
0.145432
0.139936
0.146166
0.125825
0.136644
0.12856
0.131438
0.115595
0.106717
0.111295
0.108059
0.0894952
0.0972317
0.0930837
0.0992967
0.0818188
0.0742801
0.0801685
0.0726843
0.0558643
0.0579414
0.0642966
0.0662024
0.0420952
0.0440254
0.0361981
0.0460785
0.028638
0.0237947
0.0302137
0.0256476
0.00934065
0.0109567
0.00552353
0.00659094
905.362
979.555
1287.82
1599.31
1204.55
1498.36
1616.75
1212.59
1850.45
1749.13
2118.66
2189.03
2255.29
2233.17
2219.51
2247.28
2321.24
2604.46
3095.59
1336.36
1425.75
1608.32
2040.15
1609.58
1858.55
1865.12
1639.53
1783.89
1664.9
1657.73
1813.75
1724.7
1836.39
1963.95
2195.03
2324.66
2657.76
3044.6
1131.82
1203.82
1205.75
1344.2
1039.08
1221.46
1160.8
1159.97
1373.76
1684.09
1950.31
1981.35
2245.92
2181.35
2298.14
2545.18
2691.26
2824.22
2944.68
1370.16
1348.08
1385.26
1199.71
1208.18
1210.15
1176.98
1390.51
1981.9
2225.56
1708.96
1146.6
1045.96
1094.65
1242.21
1891.83
2555.7
2618.62
2776.47
1982.36
1839.32
1539.91
1367.61
1488.65
1504.26
1452.45
2176.72
1883.64
932.868
608.286
588.514
597.136
654.382
726.253
1781.72
2435.7
2496.8
2697.71
2359.99
2346.19
2272.49
2195.48
2324.46
2177.92
1944.5
2347.49
1800.59
650.156
372.568
306.101
323.188
346.336
416.194
1328.28
2361.35
2350.11
2617.6
1764.09
1276.78
1372.94
1199.75
1417.05
2319.7
2355.68
2287.06
922.788
262.232
195.947
152.308
142.934
173.332
270.232
863.993
2112.95
2422.66
2602.66
391.165
374.404
977.142
995.737
1239.18
2082.99
2034.89
1201.22
211.775
86.1016
105.854
87.2741
61.289
85.1664
146.153
553.403
1840.1
2380.99
2578.76
147.807
369.697
913.079
511.432
1079
1757.07
1126.42
243.785
43.1265
32.0608
57.8611
68.7634
44.5348
54.5966
149.015
520.785
1823.79
2439.71
2646.11
52.2314
114.955
469.175
274.32
400.84
728.235
453.99
122.257
24.8585
12.8859
25.7849
49.5657
36.5195
54.6161
132.253
375.578
1821.77
2526.33
2688.02
10.9578
39.0832
92.0026
52.8314
86.3204
105.215
49.5565
13.7611
6.18815
8.43105
16.5666
21.5737
28.2609
56.8528
159.19
562.45
1778
2678.25
2682.2
2.83612
9.71597
8.11342
5.21959
14.1259
16.1137
3.81942
2.72684
3.58912
7.98621
12.746
17.2063
27.5338
73.9673
171.559
628.386
1767.77
2686.75
2732.04
1.35344
2.38157
1.37748
1.46933
1.85854
1.26126
0.905464
2.42639
4.62147
7.85114
14.51
27.5354
41.5795
130.975
293.693
746.78
1753.94
2661.4
2742.84
0.756262
0.679038
0.569436
0.664246
0.444992
0.778189
1.14067
1.91535
3.43637
5.20898
13.0737
51.5298
130.507
310.246
540.231
1057.64
1793.64
2625.59
2783.46
0.566738
0.534732
0.522885
0.481354
0.273293
0.666797
0.895297
1.29301
2.33557
3.93208
6.05232
17.2784
39.8093
125.878
310.768
1166.37
1977.01
2592.49
2831.07
0.483891
0.460826
0.515367
0.496287
0.459804
0.55732
0.773981
1.06033
1.75141
2.47959
2.74328
5.28746
10.1106
22.0216
124.432
814.469
2070.06
2606.78
2839.89
0.443644
0.462869
0.409845
0.479312
0.440765
0.466844
0.439831
0.623839
1.13318
1.56409
1.49175
3.87817
6.07356
7.77685
39.0679
325.045
1724.79
2693.17
2873.8
0.402892
0.424224
0.433396
0.468967
0.406516
0.434091
0.443953
0.460279
0.592606
0.63606
0.693099
1.44681
3.31118
6.63147
9.91041
61.2606
527.487
2198.62
2790.95
0.381073
0.432321
0.359474
0.429021
0.405037
0.409821
0.382181
0.400629
0.282716
0.418844
0.344463
0.510807
1.67283
7.21541
7.55669
16.8438
96.9321
925.48
2637.64
0.363732
0.375839
0.373483
0.372265
0.374764
0.364604
0.367765
0.344465
0.352567
0.287881
0.2915
0.371236
0.894176
5.18902
7.7467
16.1475
72.4672
648.539
2622.82
0.375203
0.348531
0.377268
0.36317
0.370503
0.336362
0.324119
0.326618
0.283012
0.305603
0.269805
0.309847
0.723133
3.82977
8.57208
21.3789
76.0727
510.561
2597.08
0.337079
0.354964
0.331449
0.342537
0.320281
0.330646
0.294287
0.321873
0.27695
0.269752
0.233335
0.25757
0.379753
2.80362
9.81695
24.0413
70.3607
508.073
2599.73
0.334785
0.319256
0.342374
0.311385
0.312805
0.299162
0.296908
0.267056
0.277868
0.25778
0.234251
0.269991
0.524784
2.23207
9.85159
21.3494
49.5699
560.688
2646.77
0.319015
0.329987
0.313899
0.303171
0.296275
0.288924
0.273485
0.279277
0.251787
0.236209
0.245135
0.387049
1.09517
3.79783
11.1232
18.205
65.2624
729.27
2754.18
0.293605
0.28081
0.288066
0.290559
0.286513
0.277182
0.270827
0.253451
0.236894
0.228173
0.222835
0.251395
0.748359
4.09274
12.4831
25.2865
174.084
1066.86
2869.79
0.256778
0.287271
0.267908
0.266323
0.24858
0.27
0.242537
0.241443
0.231577
0.214357
0.222169
0.215136
0.488908
2.80423
12.3501
41.5322
225.681
1225
2922.33
0.253956
0.236944
0.244451
0.246071
0.243554
0.230875
0.228417
0.225206
0.218903
0.209801
0.220406
0.246326
0.486559
2.2897
12.7965
45.814
238.346
1226.89
2910.02
0.232921
0.240126
0.21411
0.231381
0.231801
0.227257
0.224935
0.216738
0.214989
0.204856
0.215047
0.219249
0.555783
1.73876
10.2934
46.4419
242.419
1177.02
2832.05
0.220923
0.219827
0.213858
0.218999
0.212384
0.214891
0.210812
0.215982
0.213337
0.21392
0.227665
0.260453
0.654238
1.94319
9.11968
46.9896
249.974
1169
2714.29
0.217282
0.208743
0.196516
0.212905
0.195778
0.201411
0.204524
0.193497
0.199686
0.204947
0.201373
0.23742
0.401017
1.26753
6.10215
34.8349
222.014
1144.92
2549.84
0.183847
0.194934
0.18119
0.18971
0.179588
0.193554
0.190172
0.194028
0.197108
0.196846
0.214646
0.246185
0.273012
0.641704
2.29932
14.828
132.292
888.973
2228.1
0.172734
0.190118
0.167789
0.174074
0.177348
0.179046
0.176099
0.180861
0.184774
0.215968
0.196605
0.281689
0.256464
0.477427
0.743332
3.60172
44.6873
332.435
1507.64
0.143218
0.161206
0.155812
0.15761
0.160191
0.167515
0.160822
0.17308
0.182456
0.19177
0.209169
0.280303
0.465875
1.06648
0.857338
1.23549
13.177
61.632
735.25
0.131753
0.160109
0.131482
0.15904
0.133893
0.152164
0.146486
0.155181
0.158381
0.177223
0.164494
0.288271
0.753917
2.61022
1.86434
1.31783
4.60685
7.60895
400.736
0.1151
0.131568
0.134342
0.127164
0.125429
0.135565
0.128802
0.142
0.131945
0.156961
0.152269
0.260196
0.52549
2.9132
3.14797
1.5584
3.38959
101.724
363.325
0.106942
0.115614
0.110366
0.119632
0.115486
0.11587
0.118266
0.122921
0.123982
0.136389
0.12986
0.263751
0.692524
3.20092
3.58343
1.86877
3.27324
70.8821
311.784
0.0905653
0.0994639
0.0969696
0.101266
0.0973999
0.11123
0.0999947
0.10433
0.102446
0.111182
0.102985
0.194616
0.692847
4.49112
4.14167
2.54053
3.42361
65.0033
308.85
0.0757735
0.0762511
0.079643
0.075188
0.0845846
0.0677301
0.0836782
0.0834772
0.0848051
0.0934552
0.0733064
0.134217
0.340209
5.41188
4.87891
2.77596
3.84441
58.7358
296.019
0.0730595
0.0629063
0.0643593
0.0672665
0.0631076
0.0684545
0.0646294
0.062133
0.064203
0.064348
0.0437942
0.0431546
0.0768613
1.32755
4.37007
2.54728
3.76944
47.8895
274.891
0.0361658
0.044484
0.0485349
0.0409554
0.0593353
0.0388263
0.0467599
0.0484775
0.0434223
0.0451075
0.0397559
0.0639477
0.021639
0.143424
3.90345
3.26716
3.61357
34.0571
238.196
0.0311959
0.0127952
0.0304561
0.0260379
0.0286026
0.0297743
0.0301143
0.0277874
0.026073
0.028099
-0.0254518
-0.00459964
-0.124123
-0.0705524
0.125981
2.12206
1.71245
11.1477
171.964
0.0019172
0.020386
0.00302576
0.0125654
0.00619896
0.00745087
0.00620449
-0.0052095
-0.0100877
-0.0346527
0.0146008
-0.0750412
0.0139323
-0.086016
-0.192691
0.111255
0.74206
-1.90154
56.1924
)
;

boundaryField
{
    leftWall
    {
        type            zeroGradient;
    }
    rightWall
    {
        type            zeroGradient;
    }
    lowerWall
    {
        type            zeroGradient;
    }
    atmosphere
    {
        type            totalPressure;
        rho             rho;
        psi             none;
        gamma           1;
        p0              uniform 0;
        value           nonuniform List<scalar> 
46
(
-0.0046385
-0.00576453
-0.00833566
-0.0116037
-0.00849349
-0.00563871
-0.0051289
-0.00447348
-0.00542051
-0.00298244
-0.00527042
-0.00317166
-0.00640636
-0.00377783
-0.00289296
-0.00157326
-0.0017073
-0.000913742
-0.00082955
-0.001398
-0.00105742
-0.000941916
-0.000539147
-0.000183872
-0.000468012
-0.000612026
-0.00035739
-0.000527509
-0.000101144
-6.0255e-05
-0.000727657
-0.00116483
-0.00250851
-0.0042459
-0.0145645
-0.0137832
-0.0282364
-0.0347871
-0.0712199
-0.0955727
-0.135709
-0.25484
0
0
0
0
)
;
    }
    defaultFaces
    {
        type            empty;
    }
}


// ************************************************************************* //
