/*--------------------------------*- C++ -*----------------------------------*\
| =========                 |                                                 |
| \\      /  F ield         | foam-extend: Open Source CFD                    |
|  \\    /   O peration     | Version:     4.1                                |
|   \\  /    A nd           | Web:         http://www.foam-extend.org         |
|    \\/     M anipulation  |                                                 |
\*---------------------------------------------------------------------------*/
FoamFile
{
    version     2.0;
    format      ascii;
    class       surfaceScalarField;
    location    "0.55";
    object      phi;
}
// * * * * * * * * * * * * * * * * * * * * * * * * * * * * * * * * * * * * * //

dimensions      [0 3 -1 0 0 0 0];

internalField   nonuniform List<scalar> 
4432
(
7.06425e-06
-7.06425e-06
1.90343e-05
-1.19701e-05
2.10293e-05
-1.99496e-06
2.48302e-05
-3.80098e-06
2.78679e-05
-3.03764e-06
2.87297e-05
-8.61805e-07
2.94783e-05
-7.48605e-07
3.36712e-05
-4.19296e-06
3.19711e-05
1.7001e-06
4.39658e-05
-1.19947e-05
3.82139e-05
5.75189e-06
3.58385e-05
2.37543e-06
3.37557e-05
2.08275e-06
3.22875e-05
1.46828e-06
1.94343e-05
1.28531e-05
2.10057e-05
-1.5714e-06
1.92302e-05
1.77553e-06
1.28758e-05
6.35442e-06
7.08441e-06
5.79139e-06
8.68867e-07
6.21554e-06
-2.7155e-07
1.14042e-06
-1.77837e-07
-9.37137e-08
-1.77836e-07
7.75985e-06
-1.48241e-05
2.00408e-05
-2.4251e-05
2.15432e-05
-3.49739e-06
2.51329e-05
-7.39069e-06
2.85852e-05
-6.48985e-06
2.93047e-05
-1.58131e-06
3.01455e-05
-1.58939e-06
3.51636e-05
-9.21106e-06
3.21292e-05
4.73447e-06
4.17485e-05
-2.16139e-05
3.74851e-05
1.00153e-05
3.51637e-05
4.69688e-06
3.42452e-05
3.00117e-06
3.30658e-05
2.64773e-06
3.39426e-05
1.19763e-05
1.8744e-05
1.36273e-05
1.7975e-05
2.54449e-06
2.76404e-05
-3.31094e-06
2.34615e-05
9.97024e-06
2.17065e-05
7.97054e-06
1.77278e-05
5.11918e-06
1.58701e-05
1.76394e-06
1.56923e-05
9.38811e-06
-2.42122e-05
2.19295e-05
-3.67924e-05
2.22159e-05
-3.78381e-06
2.52218e-05
-1.03966e-05
2.92483e-05
-1.05164e-05
3.00135e-05
-2.34653e-06
3.22084e-05
-3.78423e-06
3.69162e-05
-1.39189e-05
3.24676e-05
9.18299e-06
2.16792e-05
-1.08255e-05
2.89123e-05
2.78213e-06
2.26995e-05
1.09097e-05
2.17346e-05
3.96608e-06
1.21938e-05
1.21885e-05
1.60372e-05
8.13291e-06
1.86039e-05
1.10606e-05
1.70704e-05
4.07798e-06
1.19889e-05
1.7705e-06
1.90442e-05
2.91497e-06
1.63137e-05
1.07011e-05
1.33885e-05
8.0444e-06
6.8899e-06
8.26249e-06
2.25822e-05
1.17441e-05
-3.59563e-05
2.49598e-05
-5.00081e-05
2.34865e-05
-2.31049e-06
2.56565e-05
-1.25666e-05
3.14177e-05
-1.62776e-05
3.3037e-05
-3.96578e-06
3.59215e-05
-6.66875e-06
4.05045e-05
-1.85019e-05
3.25635e-05
1.7124e-05
2.03551e-05
1.38289e-06
1.38639e-05
9.27332e-06
2.07749e-05
3.9987e-06
1.13434e-05
1.33976e-05
2.37904e-05
-2.5846e-07
2.63099e-05
5.61334e-06
2.88515e-05
8.51901e-06
2.9679e-05
3.25053e-06
2.52303e-05
6.21921e-06
2.0831e-05
7.31425e-06
1.77618e-05
1.37702e-05
1.50336e-05
1.07726e-05
7.73711e-06
1.5559e-05
3.03193e-05
1.29222e-05
-4.88785e-05
2.76581e-05
-6.47439e-05
2.42446e-05
1.103e-06
2.69825e-05
-1.53045e-05
3.4107e-05
-2.34021e-05
3.57077e-05
-5.56647e-06
3.93397e-05
-1.03007e-05
4.45446e-05
-2.37068e-05
3.33566e-05
2.83121e-05
2.10054e-05
1.37341e-05
2.81353e-05
2.14342e-06
1.09996e-05
2.11344e-05
2.07803e-05
3.61685e-06
2.20208e-05
-1.49888e-06
2.11647e-05
6.46942e-06
1.92979e-05
1.03858e-05
1.93498e-05
3.19862e-06
1.72043e-05
8.36473e-06
1.71155e-05
7.40308e-06
1.65528e-05
1.43329e-05
1.56546e-05
1.16708e-05
8.55708e-06
2.26565e-05
3.88764e-05
1.29933e-05
-6.18718e-05
3.0362e-05
-8.21127e-05
2.54746e-05
5.99041e-06
2.75342e-05
-1.73641e-05
3.60384e-05
-3.19064e-05
3.64565e-05
-5.98456e-06
7.07278e-05
-4.4572e-05
4.61833e-05
8.37691e-07
7.02754e-05
4.21999e-06
5.42007e-05
2.98087e-05
4.3445e-05
1.28991e-05
2.8238e-05
3.63414e-05
2.55729e-05
6.28192e-06
1.47448e-05
9.32924e-06
2.83466e-05
-7.13241e-06
2.02754e-05
1.8457e-05
1.78878e-05
5.58619e-06
1.70209e-05
9.23168e-06
1.60521e-05
8.37185e-06
1.60585e-05
1.43265e-05
1.69012e-05
1.08281e-05
9.41759e-06
3.01401e-05
4.8294e-05
2.30941e-06
-6.41812e-05
2.68482e-05
-0.000106652
1.94603e-05
1.33784e-05
2.05279e-05
-1.84317e-05
3.18302e-05
-4.32086e-05
3.79475e-05
-1.21019e-05
3.98743e-05
-4.64988e-05
5.25387e-05
-1.18267e-05
7.13574e-05
-1.45987e-05
5.47122e-05
4.64539e-05
2.44259e-05
4.31855e-05
2.34981e-05
3.72692e-05
1.06586e-05
1.91214e-05
1.38573e-05
6.13052e-06
1.26907e-05
-5.96582e-06
1.92576e-05
1.18902e-05
1.76256e-05
7.21819e-06
1.55391e-05
1.13182e-05
1.47325e-05
9.17839e-06
1.74473e-05
1.16117e-05
2.05831e-05
7.69236e-06
2.17015e-05
2.90217e-05
6.99954e-05
-1.08996e-05
-5.32816e-05
1.70256e-05
-0.000134577
-1.18564e-07
3.05225e-05
-2.85902e-06
-1.56912e-05
1.46133e-05
-6.0681e-05
1.23869e-05
-9.87549e-06
6.92386e-05
-0.000103351
7.89156e-05
-2.15037e-05
5.21021e-05
1.22149e-05
2.88042e-05
6.97517e-05
2.67603e-05
4.52294e-05
5.50004e-06
5.85295e-05
8.59891e-06
1.60225e-05
1.86949e-05
-3.96542e-06
9.49603e-06
3.23301e-06
4.10226e-06
1.72839e-05
7.53199e-06
3.78846e-06
6.80553e-06
1.20447e-05
2.74767e-06
1.32362e-05
1.43519e-05
7.52301e-09
2.63719e-05
-4.32768e-06
2.68729e-05
2.85207e-05
9.68683e-05
-7.9023e-05
7.9023e-05
-9.99153e-05
2.08922e-05
-0.00011431
1.43952e-05
-0.000124973
1.06623e-05
-0.000115322
-9.65107e-06
-0.0001163
9.78248e-07
-0.000138693
2.2393e-05
-9.54578e-05
-4.32351e-05
-0.000108611
1.31529e-05
-0.000141664
3.30538e-05
-9.98818e-05
-4.17826e-05
-0.00014768
4.77987e-05
-0.000141443
-6.2376e-06
-0.000130622
-1.08214e-05
-9.12188e-05
-3.94028e-05
-4.69908e-05
-4.42279e-05
1.12865e-05
-5.82773e-05
2.09345e-05
-9.64804e-06
2.09345e-05
-2.72775e-05
0.000106301
-4.37054e-05
3.73201e-05
-3.50194e-05
5.70919e-06
-1.75707e-05
-6.78631e-06
-4.99211e-05
2.26994e-05
-7.59761e-05
2.70332e-05
-6.50755e-05
1.14924e-05
-8.90982e-05
-1.92123e-05
-0.00010026
2.43142e-05
-0.000142229
7.5023e-05
-0.000145104
-3.89074e-05
-6.86183e-05
-2.8687e-05
-8.49744e-05
1.01185e-05
-6.79955e-05
-2.78003e-05
-2.30584e-05
-8.43398e-05
-1.50465e-05
-5.22399e-05
2.72683e-06
-7.60506e-05
7.42749e-06
-1.43487e-05
2.8362e-05
-2.04145e-05
0.000126715
-3.06604e-05
4.7566e-05
-2.94092e-05
4.45807e-06
-3.77723e-05
1.57671e-06
-5.42425e-05
3.91697e-05
-6.83397e-05
4.11304e-05
-0.000102628
4.57802e-05
-0.000117262
-4.57749e-06
-0.000119679
2.67307e-05
-8.18737e-05
3.72179e-05
-6.46546e-05
-5.61266e-05
-4.30072e-05
-5.03344e-05
-6.06836e-05
2.7795e-05
-3.59278e-05
-5.25562e-05
-2.33634e-05
-9.69041e-05
-1.1988e-05
-6.36153e-05
-2.2567e-05
-6.54716e-05
-6.0239e-06
-3.08918e-05
2.23381e-05
-4.60891e-06
0.000131324
-6.20956e-06
4.91666e-05
-1.44432e-05
1.26917e-05
-1.9393e-05
6.52659e-06
1.13834e-06
1.86384e-05
-9.33499e-06
5.16038e-05
-8.48078e-07
3.72933e-05
-5.47858e-06
5.29827e-08
-4.55349e-05
6.67869e-05
-2.15425e-05
1.32254e-05
1.53747e-05
-9.30437e-05
-2.85062e-05
-6.45339e-06
-1.64952e-05
1.5784e-05
-3.33656e-06
-6.57149e-05
6.7166e-07
-0.000100912
2.97926e-06
-6.59229e-05
-1.08398e-05
-5.16525e-05
-4.27696e-06
-3.74546e-05
1.80612e-05
5.2079e-06
0.000126116
-3.59836e-06
5.79728e-05
-1.02097e-05
1.93031e-05
-3.18087e-06
-5.02154e-07
-1.02624e-06
1.64838e-05
8.70896e-06
4.18685e-05
2.8972e-05
1.70302e-05
7.1211e-05
-4.2186e-05
7.45459e-05
6.3452e-05
9.07939e-05
-3.02263e-06
3.28661e-05
-3.5116e-05
1.56132e-05
1.07995e-05
5.37997e-06
2.60173e-05
1.60429e-05
-7.63778e-05
1.78514e-05
-0.000102721
1.53691e-05
-6.34406e-05
7.03255e-06
-4.3316e-05
6.81241e-06
-3.72345e-05
2.48735e-05
6.8865e-06
0.00011923
3.31472e-06
6.15446e-05
6.25641e-06
1.63614e-05
2.65936e-05
-2.08393e-05
2.41201e-05
1.89573e-05
4.01259e-05
2.58628e-05
3.58608e-05
2.12953e-05
4.0999e-06
-1.0425e-05
7.8828e-05
-1.12761e-05
5.86993e-05
1.7106e-05
4.37946e-05
-2.02112e-05
2.31244e-05
3.14698e-05
2.0376e-05
2.87656e-05
2.81726e-05
-8.41744e-05
2.54811e-05
-0.000100029
2.47255e-05
-6.2685e-05
2.03375e-05
-3.8928e-05
8.26263e-06
-2.51596e-05
3.31362e-05
9.8524e-06
0.000109377
1.67263e-05
5.46707e-05
3.38739e-05
-7.86144e-07
3.87474e-05
-2.57128e-05
1.75374e-05
4.01674e-05
2.20436e-05
2.13567e-05
2.39231e-05
1.94158e-05
9.5768e-06
3.92126e-06
3.78383e-05
-3.95376e-05
4.82656e-05
6.67877e-06
3.69414e-05
-8.88704e-06
2.90427e-05
3.93685e-05
3.70028e-05
2.08055e-05
4.38137e-05
-9.09854e-05
4.01297e-05
-9.63453e-05
3.51538e-05
-5.7709e-05
2.75615e-05
-3.13357e-05
1.25569e-05
-1.0155e-05
4.56931e-05
-1.14337e-05
0.000120811
3.95083e-05
3.72873e-06
5.12139e-05
-1.24917e-05
1.99865e-05
5.51458e-06
3.28254e-05
2.73285e-05
3.57361e-05
1.8446e-05
8.62873e-05
-3.11354e-05
5.55086e-05
3.47e-05
4.14475e-05
-2.54764e-05
3.23672e-05
1.57589e-05
2.98102e-05
-6.33002e-06
3.67424e-05
3.24364e-05
5.18231e-05
5.72471e-06
5.68357e-05
-9.59979e-05
4.98367e-05
-8.93463e-05
4.20736e-05
-4.99459e-05
2.98228e-05
-1.90849e-05
1.39182e-05
5.74964e-06
5.96113e-05
-2.75058e-05
-2.57758e-05
-3.55285e-05
-0.000126554
-1.17987e-05
6.79273e-06
-4.01332e-05
1.26433e-05
-2.51237e-05
-7.56905e-05
2.35675e-05
-5.85667e-05
6.16543e-05
-0.000141437
0.000128953
-8.88023e-05
0.000135952
5.21585e-06
0.000109571
9.61327e-05
7.53146e-05
7.94857e-05
3.0537e-05
0.000103307
2.53022e-05
2.12573e-05
2.56714e-05
-4.33466e-06
3.62776e-05
-7.37313e-06
6.08931e-05
-7.33161e-06
5.91045e-05
5.57704e-06
6.37707e-05
7.37848e-06
7.36532e-05
3.35375e-06
7.89469e-05
-5.2862e-06
8.25889e-05
-7.96968e-06
8.5806e-05
2.53037e-05
6.31684e-05
0.000119506
3.29271e-05
-5.8703e-05
-4.4545e-05
-4.90818e-05
-1.22824e-05
-2.54698e-05
4.75549e-06
-4.39466e-06
1.33413e-06
-7.22691e-05
1.98059e-05
-7.70385e-05
5.31482e-06
-0.000126946
4.81356e-06
-8.8301e-05
5.03647e-05
-4.03354e-05
0.000106506
3.99913e-05
0.00011658
6.94119e-05
0.000139406
8.04813e-05
0.000105252
5.5411e-05
8.70648e-05
1.38527e-05
8.36945e-05
-4.00285e-06
7.53881e-05
9.74779e-07
8.53634e-05
-4.39824e-06
9.70061e-05
-4.26429e-06
0.000103473
-3.11336e-06
0.000105826
-7.63908e-06
7.24442e-05
2.54122e-05
8.05146e-05
1.72333e-05
4.89078e-05
9.47752e-05
-2.0005e-05
-3.86979e-05
4.96142e-06
-7.40483e-05
6.70561e-05
-8.75646e-05
4.67594e-05
1.5902e-05
2.44549e-05
-4.99646e-05
1.31416e-05
-6.57253e-05
-2.76594e-05
-8.61452e-05
-8.12131e-05
-3.47473e-05
-9.4961e-05
-2.65875e-05
1.54155e-05
-7.03851e-05
0.000113825
-2.89977e-05
0.000119995
7.43114e-05
0.000145802
2.96037e-05
0.000143969
1.56855e-05
0.000126098
1.38682e-05
8.96305e-05
3.74428e-05
7.94281e-05
5.80411e-06
7.20669e-05
3.09689e-06
7.36577e-05
-4.70413e-06
5.70506e-05
8.96807e-06
7.45322e-05
7.93057e-06
8.75811e-05
4.18449e-06
3.9235e-05
9.72539e-05
-3.61072e-05
-2.59076e-06
-5.46224e-06
-0.000104693
2.19682e-06
-9.52236e-05
2.66829e-06
1.54306e-05
-1.54089e-05
-3.18873e-05
-2.58384e-05
-5.52958e-05
-7.07066e-05
-4.1277e-05
-0.000129201
2.37465e-05
-0.000116983
-3.88047e-05
-0.000133655
-5.3714e-05
-4.58799e-06
-0.000158064
2.92466e-05
4.04767e-05
6.19385e-05
-3.08808e-06
0.000104824
-2.71999e-05
0.000147489
-2.8797e-05
0.000223278
-3.83465e-05
0.000181757
4.73258e-05
0.00013026
5.45934e-05
6.75734e-05
5.79827e-05
6.05913e-05
1.59501e-05
7.04133e-05
-1.89155e-06
7.75389e-05
-2.94104e-06
-1.70496e-06
0.000118479
-3.62412e-05
3.36505e-05
-1.60093e-05
-0.000124925
-4.54204e-05
-6.58125e-05
-2.65225e-05
-3.46731e-06
-2.96352e-05
-2.87747e-05
-5.95861e-05
-2.53449e-05
-9.87517e-05
-2.11141e-06
-9.96589e-05
2.46537e-05
-0.000148157
9.69346e-06
-7.24231e-05
-0.000129448
-6.58804e-07
-0.000229829
2.98165e-05
1.00012e-05
4.59523e-05
-1.92239e-05
4.56893e-05
-2.6937e-05
6.15458e-05
-4.46535e-05
7.2009e-05
-4.88097e-05
0.000132232
-1.28977e-05
0.000174791
1.20351e-05
0.000183457
4.9316e-05
0.000191059
8.34892e-06
0.000195345
-6.17751e-06
0.000190794
1.60941e-06
8.71482e-06
0.000180375
2.53257e-05
8.32479e-06
-2.05211e-05
-7.90784e-05
-4.11218e-05
-4.52117e-05
-2.9441e-05
-1.51482e-05
-3.46418e-05
-2.35739e-05
-3.56243e-05
-2.43624e-05
-5.22823e-05
1.45466e-05
-8.90542e-05
6.14256e-05
-0.000130784
5.14242e-05
-8.86297e-05
-0.000171603
-6.09708e-05
-0.000257488
1.20391e-05
-6.30084e-05
-2.13676e-05
1.41829e-05
-3.68651e-05
-1.14395e-05
-7.88552e-06
-7.36331e-05
2.08698e-05
-7.75651e-05
5.76653e-05
-4.96932e-05
0.000107029
-3.73286e-05
0.000179543
-2.31985e-05
0.000197972
-1.00792e-05
0.000216061
-2.42669e-05
0.000216237
1.43311e-06
2.19234e-05
0.000203029
1.13467e-05
-3.02188e-06
-1.59723e-05
-5.17595e-05
-1.44025e-05
-4.67815e-05
-2.01702e-05
-9.38054e-06
-2.93085e-05
-1.44356e-05
-7.64887e-05
2.28178e-05
-0.000126271
6.4329e-05
-9.73597e-05
3.25142e-05
-8.23399e-05
3.64044e-05
-6.77538e-05
-0.000186189
-6.61352e-05
-0.000259106
1.46332e-05
-0.000143777
2.67088e-05
2.10737e-06
6.12558e-06
9.14364e-06
-1.68099e-05
-5.06976e-05
-3.22309e-06
-9.11519e-05
2.65112e-05
-7.94275e-05
4.10857e-05
-5.19031e-05
8.4374e-05
-6.64867e-05
0.000139333
-6.50387e-05
0.00014871
-3.36432e-05
0.000146497
3.64572e-06
3.36215e-05
0.000134799
4.81505e-05
-5.11724e-05
5.78109e-05
-6.14199e-05
3.77162e-05
-2.66867e-05
1.06855e-05
1.76501e-05
-1.79076e-05
1.41575e-05
-3.815e-05
4.30602e-05
-3.99432e-05
6.61222e-05
-9.84519e-05
9.1023e-05
-8.08923e-05
1.88445e-05
-8.79848e-05
-0.000179096
-7.17857e-05
-0.000275305
3.70143e-06
-0.000219264
9.0277e-05
-8.44683e-05
7.76266e-05
2.1794e-05
2.91273e-05
-2.19834e-06
2.91617e-05
-9.11862e-05
1.23499e-05
-6.26157e-05
1.47982e-05
-5.43514e-05
1.76447e-05
-6.93333e-05
4.07486e-05
-8.81425e-05
2.39767e-05
-1.68713e-05
3.84221e-05
-1.07997e-05
1.13931e-05
6.06505e-05
1.2012e-05
-6.31843e-05
1.01567e-06
-5.04236e-05
-1.05023e-05
-1.51687e-05
-1.41541e-05
2.13018e-05
-1.92567e-05
1.92602e-05
-3.9214e-05
6.30175e-05
-2.4831e-05
5.17392e-05
1.16887e-05
5.45033e-05
3.8625e-05
-8.09178e-06
4.26371e-06
-0.000144735
-7.47329e-05
-0.000196309
4.72174e-05
-0.000341214
6.67355e-05
-0.000103987
6.81743e-05
2.03553e-05
6.11696e-05
4.80636e-06
1.61989e-05
-4.62156e-05
2.61536e-05
-7.25704e-05
1.30265e-05
-4.12243e-05
1.82192e-05
-7.4526e-05
-1.38893e-05
-5.60339e-05
-1.89463e-05
-1.18143e-05
-3.36866e-05
3.94055e-06
5.75999e-05
-7.98933e-05
5.45328e-07
-6.37297e-05
-7.70477e-06
-4.21736e-05
-1.45034e-06
-2.14232e-05
1.00724e-05
9.77905e-06
6.92348e-06
2.24091e-05
3.13437e-05
3.85973e-05
2.39782e-05
5.91046e-05
4.65193e-05
3.19622e-05
0.000109953
-7.15253e-05
7.4427e-05
-0.000109209
6.30216e-06
-0.000128184
5.50894e-06
-0.000340421
6.72015e-05
-0.000165679
7.11336e-05
1.64231e-05
5.28148e-05
2.31252e-05
3.14109e-05
-2.48117e-05
7.04544e-07
-4.18641e-05
-2.88804e-06
-3.76317e-05
-6.98596e-06
-7.04281e-05
-2.31379e-05
-3.9882e-05
-8.47498e-06
-2.64773e-05
-2.89488e-05
2.44143e-05
9.22089e-05
-6.35578e-05
-9.00321e-06
-5.47265e-05
-1.47625e-05
-3.64143e-05
-1.07091e-05
-2.54766e-05
1.78293e-06
-2.71304e-06
1.9361e-05
4.83103e-06
3.15594e-05
2.63988e-05
4.64684e-05
4.41956e-05
6.76818e-05
1.07489e-05
8.83862e-05
-9.22298e-05
5.56656e-05
-7.64884e-05
1.04064e-05
-8.29247e-05
1.6287e-05
-0.000346302
2.95653e-05
-0.000178958
3.38291e-05
1.21594e-05
2.37423e-05
3.3212e-05
1.61796e-06
-2.6874e-06
-7.80246e-06
-3.24437e-05
-1.04636e-06
-4.43878e-05
-1.91448e-05
-5.23296e-05
-3.66143e-05
-2.24125e-05
-4.95596e-05
-1.3532e-05
-6.13962e-05
3.6251e-05
0.000104906
-7.4093e-05
-1.04055e-05
-4.4321e-05
-1.97156e-05
-2.71042e-05
-1.208e-05
-3.31123e-05
-2.1988e-06
-1.25942e-05
1.83185e-05
-1.56863e-05
4.25994e-05
2.11789e-06
8.49907e-05
1.80423e-06
0.000113368
-1.76286e-05
9.05721e-05
-6.94339e-05
6.54874e-05
-5.14037e-05
4.36662e-06
-2.18039e-05
1.18867e-06
-0.000343124
-7.83381e-05
-9.94307e-05
-2.70391e-05
-3.91396e-05
-1.3969e-06
7.56983e-06
-1.01623e-05
6.07804e-06
-1.25756e-05
-3.00305e-05
-3.15014e-05
-2.5462e-05
-4.15618e-05
-4.22692e-05
-4.80446e-05
-1.59298e-05
-5.74846e-05
-4.09206e-06
-4.65822e-05
2.53487e-05
7.37751e-05
-1.54517e-05
-1.27611e-05
-3.15599e-05
-3.20651e-06
-3.66588e-05
-8.67547e-06
-2.76434e-05
9.94355e-06
-3.12133e-05
1.56207e-05
-2.13635e-05
3.37904e-05
-1.60518e-05
4.9073e-05
-1.34784e-05
7.60545e-05
-4.461e-05
5.70864e-05
-5.04659e-05
7.3514e-05
-6.78314e-05
9.16343e-05
-3.99242e-05
-4.9317e-05
-0.000202172
-1.98995e-05
-0.000128848
6.53025e-06
-6.55693e-05
8.77586e-06
5.32422e-06
-5.71275e-06
2.05666e-05
-2.36839e-05
-1.20594e-05
-2.97724e-05
-1.93734e-05
-5.11829e-05
-2.08588e-05
-5.6353e-05
-1.07596e-05
-5.49702e-05
-5.47495e-06
-3.65554e-05
6.93387e-06
3.02054e-05
7.01443e-06
-1.27906e-07
-3.1432e-05
-5.13169e-06
-3.1655e-05
-9.30512e-07
-3.18446e-05
3.85442e-06
-3.59982e-05
2.30568e-05
-4.05659e-05
2.63365e-05
-1.93315e-05
3.57406e-05
-2.28826e-05
6.32556e-05
-7.2125e-05
5.10372e-05
-3.82475e-05
4.03287e-05
-5.71228e-05
5.53311e-05
-5.49267e-05
-1.42459e-05
-0.000132595
-3.48236e-05
-0.00010827
-4.13066e-05
-5.90863e-05
-3.07598e-05
-5.22263e-06
-2.77596e-05
1.75665e-05
-2.70115e-05
-1.28074e-05
-4.21277e-05
-4.25726e-06
-5.05878e-05
-1.23988e-05
-5.62826e-05
-5.0647e-06
-5.5073e-05
-6.68463e-06
-4.9382e-05
1.24284e-06
1.30286e-06
-2.04794e-05
-6.53329e-06
-2.48988e-05
-4.47819e-06
-3.37102e-05
-1.49119e-06
-3.48316e-05
3.83113e-06
-4.13206e-05
9.69543e-06
-4.64302e-05
1.55957e-05
-2.52318e-05
2.90619e-05
-3.63488e-05
4.23487e-05
-8.54119e-05
5.35404e-05
-4.94392e-05
3.37863e-05
-3.73687e-05
4.79494e-05
-6.90898e-05
-9.9992e-06
-7.46467e-05
-3.24166e-05
-8.5853e-05
-4.98512e-05
-4.16517e-05
-4.87106e-05
-6.36328e-06
-2.50119e-05
-6.13226e-06
-3.2378e-05
-5.44131e-06
-2.39171e-05
-1.27182e-05
-2.87378e-05
-7.57808e-06
-3.10979e-05
-2.70463e-06
-4.12531e-05
3.47061e-06
-4.10673e-05
1.05704e-06
-1.80567e-06
-3.79588e-05
-1.49418e-06
-2.34046e-05
-2.85768e-06
-3.23467e-05
-5.02416e-07
-3.71869e-05
7.60892e-07
-4.25839e-05
1.43265e-06
-4.7102e-05
8.25443e-06
-3.20536e-05
9.06906e-06
-3.71634e-05
1.23005e-05
-8.86433e-05
1.28833e-05
-5.00221e-05
1.28199e-05
-3.73053e-05
3.37858e-06
-5.96485e-05
8.27372e-06
-7.95419e-05
-2.29133e-05
-5.4666e-05
-4.01725e-05
-2.43925e-05
-4.194e-05
-4.59573e-06
-3.12499e-05
-1.68224e-05
-3.92135e-05
2.52225e-06
-4.12523e-05
-1.06794e-05
-4.52479e-05
-3.58253e-06
-4.75137e-05
-4.3883e-07
-4.28455e-05
-1.19758e-06
-2.68697e-05
-1.49188e-05
-5.9639e-06
-2.27115e-05
-7.27363e-06
-1.6131e-05
-1.87059e-06
-3.77497e-05
-2.59978e-06
-3.64577e-05
-1.486e-06
-4.36977e-05
-4.30656e-06
-4.42814e-05
6.15084e-08
-3.64217e-05
2.05303e-05
-5.76322e-05
-8.30172e-06
-5.98113e-05
-4.55088e-06
-5.3773e-05
4.38277e-06
-4.62389e-05
2.64329e-06
-5.79091e-05
-3.77953e-05
-3.91033e-05
-6.39027e-05
-2.85587e-05
-4.82222e-05
-4.0073e-05
-4.29589e-05
-9.85903e-06
-5.2641e-05
-7.14034e-06
-4.77421e-05
-2.3766e-06
-4.8003e-05
-1.04185e-05
-4.76281e-05
-3.95747e-06
-3.17233e-05
-1.63436e-05
-2.60515e-05
-6.86944e-06
-2.48334e-05
-1.61369e-05
-1.51766e-06
-2.92796e-05
6.48436e-06
-2.26154e-05
-6.54316e-06
-2.47222e-05
-2.86448e-06
-4.01364e-05
-8.51962e-06
-3.80425e-05
-3.67442e-06
-4.91266e-05
-7.73088e-06
-3.23653e-05
-4.1708e-06
-6.11923e-05
-1.38202e-05
-5.01619e-05
-1.86291e-05
-4.89641e-05
-1.87433e-05
-4.61248e-05
-4.06508e-05
-3.60016e-05
-4.06845e-05
-3.90696e-05
-4.3793e-05
-2.54502e-05
-5.0926e-05
-3.294e-05
-4.23178e-05
-1.84672e-05
-4.28162e-05
-6.64203e-06
-3.82818e-05
-6.91098e-06
-4.04175e-05
-8.28284e-06
-2.31914e-05
-2.11835e-05
-2.67706e-05
-1.27645e-05
-2.46311e-05
-9.00888e-06
-2.61019e-05
-1.46661e-05
-6.32485e-06
-2.12948e-05
4.12752e-06
-2.67429e-05
6.55122e-06
-2.71459e-05
-5.42067e-06
-2.81646e-05
-5.01572e-06
-3.84475e-05
-2.30037e-05
-3.11386e-05
-2.48305e-05
-3.05385e-05
-2.62552e-05
-5.97676e-05
-1.4594e-05
-6.18232e-05
-3.0893e-05
-3.26651e-05
-4.32155e-05
-3.38022e-05
-2.39926e-05
-5.52245e-05
-3.09254e-05
-3.21367e-05
-3.31369e-05
-2.32388e-05
-3.72934e-05
-2.87835e-05
-3.08025e-05
-2.49581e-05
-2.39393e-05
-1.35052e-05
-2.45182e-05
-6.33212e-06
-2.25363e-05
-1.02648e-05
-3.42101e-05
-9.50963e-06
-3.70813e-05
-9.89328e-06
-2.44529e-05
-2.16373e-05
-2.46928e-05
-1.44262e-05
-8.10457e-07
-3.02072e-05
2.89778e-06
-2.96407e-05
3.5885e-06
-2.78367e-05
3.93843e-06
-2.85145e-05
-8.27706e-06
-2.6232e-05
-1.02056e-05
-2.92101e-05
-1.287e-05
-2.78742e-05
-1.58153e-05
-5.68223e-05
-2.4828e-05
-5.28106e-05
-2.98514e-05
-2.76417e-05
-3.6811e-05
-2.68426e-05
-4.13404e-05
-5.06952e-05
-5.10201e-05
-2.24571e-05
-3.35123e-05
-4.07466e-05
-2.94328e-05
-3.2863e-05
-4.0426e-05
-1.39649e-05
-3.82379e-05
-1.56933e-05
-2.55684e-05
-1.90017e-05
-2.78084e-05
-8.02479e-06
-2.46902e-05
-1.26278e-05
-2.283e-05
-1.17535e-05
-3.57022e-05
-8.76517e-06
-4.04668e-05
-9.66162e-06
-1.86379e-05
-2.26394e-05
5.50423e-07
-3.01911e-05
4.76848e-07
-2.77631e-05
-1.69291e-06
-2.63448e-05
-3.08035e-06
-2.48446e-05
-3.80823e-06
-2.84822e-05
6.78082e-06
-3.84632e-05
-1.43021e-05
-3.57394e-05
-1.31324e-05
-5.39803e-05
-1.50928e-05
-2.56813e-05
-1.70171e-05
-2.49183e-05
-3.73337e-05
-3.03786e-05
-2.82766e-05
-3.15142e-05
-4.62505e-05
-2.27727e-05
-4.28116e-05
-3.63019e-05
-4.04693e-05
-1.63072e-05
-3.66364e-05
-1.95261e-05
-4.05504e-05
-1.50877e-05
-2.54374e-05
-2.31377e-05
-2.67387e-05
-1.13265e-05
-2.47849e-05
-1.37073e-05
-1.80077e-05
-1.55424e-05
-1.7063e-05
-1.06064e-05
-1.34956e-05
-2.22053e-05
-2.42598e-07
-2.99486e-05
1.19419e-07
-2.81252e-05
1.19472e-07
-2.63448e-05
-2.80009e-06
-2.1925e-05
-2.52641e-06
-2.87559e-05
3.50533e-06
-4.4495e-05
8.97564e-07
-3.31316e-05
-1.96897e-05
-3.33931e-05
-1.54867e-05
-2.98843e-05
-1.377e-05
-2.6635e-05
-1.49516e-05
-2.91969e-05
-1.80397e-05
-2.84262e-05
-1.75461e-05
-2.32662e-05
-3.23346e-05
-2.15134e-05
-2.12853e-05
-2.73565e-05
-1.81259e-05
-2.26856e-05
-1.77552e-05
-1.54584e-05
-2.28752e-05
-1.80178e-05
-2.18334e-05
-1.23683e-05
-2.09887e-05
-1.4552e-05
-2.11321e-05
-1.5399e-05
-2.07189e-05
-1.10196e-05
-9.73598e-06
-2.44786e-05
-2.07424e-06
-2.78743e-05
-5.06923e-06
-2.51302e-05
-6.64385e-06
-2.47702e-05
1.00612e-05
-3.86301e-05
5.5739e-06
-2.42686e-05
-7.24722e-06
-3.16739e-05
-1.14485e-05
-2.89303e-05
-1.19595e-05
-3.28821e-05
-1.01648e-05
-3.1679e-05
-9.40099e-06
-2.73989e-05
-1.20822e-05
-2.65158e-05
-1.59843e-05
-2.45241e-05
-2.19721e-05
-1.72784e-05
-2.31369e-05
-2.03487e-05
-1.7211e-05
-3.32824e-05
-2.29139e-05
-1.69826e-05
-2.22405e-05
-1.61318e-05
-2.11381e-05
-1.91202e-05
-1.61696e-05
-1.73367e-05
-1.76105e-05
-1.31112e-05
-1.69581e-05
-1.60513e-05
-1.47766e-05
-1.32011e-05
-7.58816e-06
-1.69244e-05
-9.46291e-06
-1.84114e-05
2.93735e-07
-3.48868e-05
5.75346e-06
-3.023e-05
1.23151e-07
-3.29998e-05
7.38036e-06
-3.15259e-05
2.95662e-06
-2.72501e-05
-3.00268e-06
-2.29711e-05
-7.609e-06
-2.82758e-05
-1.35704e-05
-2.57176e-05
-1.67214e-05
-2.42479e-05
-1.83148e-05
-2.49223e-05
-1.93598e-05
-2.34791e-05
-1.78932e-05
-1.87449e-05
-1.91924e-05
-1.90495e-05
-3.2058e-05
-2.04169e-05
-1.56575e-05
-3.33831e-05
-1.41685e-05
-1.76208e-05
-2.07708e-05
-1.2518e-05
-1.48652e-05
-2.32423e-05
-1.90245e-05
-8.95184e-06
-1.84279e-05
-1.6648e-05
-1.73593e-05
-1.42697e-05
-9.80702e-06
-1.51404e-05
5.63349e-06
-2.40449e-05
1.34107e-06
-3.05944e-05
-2.11865e-06
-2.67702e-05
-5.11977e-06
-2.99986e-05
-8.25402e-06
-2.83916e-05
-1.50435e-06
-3.39998e-05
6.06052e-06
-3.05359e-05
6.15631e-08
-2.22768e-05
-5.42887e-06
-2.02271e-05
-8.53368e-06
-2.11431e-05
-1.31625e-05
-2.02935e-05
-1.61019e-05
-2.05398e-05
-1.48926e-05
-1.99542e-05
-1.06866e-05
-2.32555e-05
-1.02886e-05
-2.08149e-05
-2.02866e-05
-2.33851e-05
-2.63204e-05
-1.1587e-05
-1.14312e-05
-2.74071e-05
-2.2565e-05
-1.21085e-05
-1.58242e-05
-1.56926e-05
-1.62964e-05
-1.61758e-05
-1.42279e-05
-1.63383e-05
-7.57991e-06
-1.6455e-05
-7.13982e-07
-2.33309e-05
-9.6116e-07
-3.03472e-05
2.88356e-07
-2.80198e-05
-1.66223e-06
-2.80481e-05
-2.6671e-06
-2.73868e-05
-7.19598e-06
-2.94709e-05
-1.03306e-05
-2.74013e-05
-6.82253e-06
-2.57849e-05
-1.17818e-05
-1.52678e-05
-1.78039e-05
-1.51211e-05
-1.3275e-05
-2.48224e-05
-8.33796e-06
-2.54768e-05
-1.61464e-06
-2.66775e-05
-7.48264e-06
-1.73875e-05
-1.08775e-05
-1.74201e-05
-1.69414e-05
-1.73211e-05
-5.65062e-06
-2.28779e-05
-1.73884e-05
-1.56694e-05
-1.42356e-05
-1.52613e-05
-1.29923e-05
-1.6936e-05
-1.3528e-05
-1.56401e-05
-1.39224e-05
-1.5944e-05
-2.52098e-06
-1.89813e-05
1.06623e-06
-2.43972e-05
4.68592e-07
-2.97496e-05
-5.72189e-07
-2.6979e-05
-2.00991e-06
-2.66104e-05
-2.80796e-06
-2.65887e-05
-2.27902e-06
-2.99999e-05
-2.83522e-06
-2.68451e-05
-5.1617e-06
-2.34584e-05
-6.67881e-06
-1.37507e-05
-8.11016e-06
-1.36897e-05
-1.08985e-05
-2.20341e-05
-1.36878e-05
-2.26875e-05
-1.60202e-05
-2.43452e-05
-8.85662e-06
-2.45511e-05
-1.28292e-05
-1.34475e-05
-7.8657e-06
-2.22846e-05
-1.71588e-05
-1.35847e-05
-8.37239e-06
-2.44558e-05
-1.24208e-05
-1.12129e-05
-1.67237e-05
-1.2633e-05
-1.1756e-05
-2.06078e-05
-2.32233e-05
-4.47661e-06
-1.24459e-05
-1.32984e-05
-1.54641e-07
-2.42425e-05
-5.61028e-07
-2.93432e-05
-5.87542e-07
-2.69525e-05
-2.40389e-06
-2.4794e-05
-3.22182e-06
-2.57708e-05
-4.13348e-06
-2.90882e-05
-5.62608e-06
-2.53525e-05
-6.11466e-06
-2.29698e-05
-7.44043e-06
-1.2425e-05
-7.88526e-06
-1.32449e-05
-7.19642e-06
-2.27229e-05
-9.05311e-06
-2.08308e-05
-1.0198e-05
-2.32003e-05
-1.12158e-05
-2.35333e-05
-1.38821e-05
-1.07812e-05
-7.9768e-06
-2.819e-05
-1.28005e-05
-8.76102e-06
-1.5949e-05
-2.13074e-05
-1.07827e-05
-1.63793e-05
-6.80915e-06
-1.66065e-05
-1.68444e-05
-1.05726e-05
-1.30464e-05
-8.27459e-06
-8.68414e-06
-1.68082e-05
5.57626e-07
-2.48002e-05
6.26243e-07
-2.94118e-05
6.29244e-07
-2.69555e-05
-7.12766e-07
-2.3452e-05
-1.70265e-06
-2.47809e-05
-2.7629e-06
-2.8028e-05
-3.78078e-06
-2.43347e-05
-3.71253e-06
-2.30381e-05
-2.24823e-06
-1.38893e-05
-1.13188e-06
-1.43613e-05
-9.4107e-06
-1.44441e-05
-7.63578e-06
-2.26058e-05
-8.09927e-06
-2.27368e-05
-8.32827e-06
-2.33043e-05
-1.16666e-06
-1.79428e-05
-1.10031e-05
-1.83536e-05
-5.9498e-06
-1.38143e-05
-1.2829e-05
-1.44281e-05
-1.01599e-05
-1.90484e-05
-9.45302e-06
-1.73134e-05
-1.42745e-05
-5.75106e-06
-9.52958e-06
-1.30196e-05
-5.05169e-06
-1.3162e-05
5.20455e-08
-2.48522e-05
-2.73091e-07
-2.90867e-05
-5.57339e-07
-2.66712e-05
-2.58726e-06
-2.14221e-05
-3.75625e-06
-2.36119e-05
-3.27517e-06
-2.85091e-05
-4.24806e-06
-2.33618e-05
-4.39455e-06
-2.28916e-05
-5.3165e-06
-1.29673e-05
-5.4973e-06
-1.41805e-05
-5.68572e-06
-1.42557e-05
-5.12578e-06
-2.31657e-05
-5.91139e-06
-2.19512e-05
-6.40703e-06
-2.28087e-05
-5.95175e-06
-1.8398e-05
-1.0745e-05
-1.35603e-05
-1.12915e-05
-1.32677e-05
-1.30178e-05
-1.27018e-05
-1.45498e-05
-1.75165e-05
-1.36777e-05
-1.81855e-05
-7.75055e-06
-1.16782e-05
-1.39102e-05
-6.85986e-06
-8.82815e-06
-1.01338e-05
5.01369e-07
-2.53536e-05
6.9593e-07
-2.92813e-05
1.45418e-06
-2.74295e-05
2.17519e-06
-2.21431e-05
4.54466e-06
-2.59814e-05
-4.47847e-06
-1.94859e-05
-1.16277e-05
-1.62126e-05
-9.01605e-06
-2.55032e-05
-7.0386e-06
-1.49448e-05
-6.22649e-06
-1.49926e-05
-4.66426e-06
-1.58179e-05
-5.83165e-06
-2.19983e-05
-6.57355e-06
-2.12093e-05
-7.09477e-06
-2.22875e-05
-7.92222e-06
-1.75706e-05
-5.06149e-06
-1.64211e-05
-3.26083e-06
-1.50684e-05
-8.35899e-06
-7.60368e-06
-5.86238e-06
-2.00131e-05
-7.54498e-06
-1.65029e-05
-1.12635e-05
-7.95969e-06
-1.08297e-05
-7.29369e-06
-6.78848e-06
-1.28694e-05
-3.49529e-08
-2.53186e-05
-2.16202e-07
-2.91e-05
-8.1309e-08
-2.75644e-05
-7.75678e-07
-2.14487e-05
-2.19796e-06
-2.45591e-05
-3.01262e-06
-1.86713e-05
-3.08554e-06
-1.61397e-05
-1.52526e-06
-2.70635e-05
-1.63894e-06
-1.48311e-05
-2.80462e-06
-1.38269e-05
-2.67493e-06
-1.59476e-05
-4.28315e-06
-2.03901e-05
-5.03565e-06
-2.04568e-05
-5.06215e-06
-2.2261e-05
-5.81152e-06
-1.68212e-05
-4.31007e-06
-1.79225e-05
-1.00992e-05
-9.27925e-06
-4.74399e-06
-1.29589e-05
-1.30758e-05
-1.16813e-05
-1.62415e-05
-1.33372e-05
-1.26987e-05
-1.15025e-05
-5.43626e-06
-1.45561e-05
-5.47171e-06
-6.75304e-06
1.47667e-07
-2.54663e-05
3.27967e-07
-2.92803e-05
7.07229e-07
-2.79437e-05
5.29728e-07
-2.12712e-05
6.86436e-07
-2.47158e-05
-4.03124e-06
-1.39536e-05
-5.08064e-06
-1.50903e-05
-9.08291e-06
-2.30612e-05
-3.71644e-06
-2.01976e-05
9.68504e-07
-1.85119e-05
-2.10117e-06
-1.28779e-05
-3.20939e-06
-1.92819e-05
-4.26044e-06
-1.94057e-05
-5.28889e-06
-2.12325e-05
-4.89504e-06
-1.72151e-05
-6.70622e-06
-1.61113e-05
-1.35754e-06
-1.46279e-05
-2.15048e-06
-1.2166e-05
-6.12547e-06
-7.70631e-06
-7.17433e-06
-1.22883e-05
-6.51001e-06
-1.21668e-05
-1.44346e-05
-6.63157e-06
-1.24448e-05
-7.46149e-06
-3.39684e-07
-2.51266e-05
-5.00404e-07
-2.91196e-05
-1.05134e-06
-2.73927e-05
-1.92144e-06
-2.04011e-05
-5.22302e-06
-2.14143e-05
2.1545e-06
-2.13311e-05
8.78163e-07
-1.3814e-05
-2.51984e-07
-2.19311e-05
-6.81896e-07
-1.97677e-05
-1.33e-07
-1.90608e-05
4.09748e-07
-1.34207e-05
-6.77702e-06
-1.20951e-05
-5.00945e-06
-2.11733e-05
-4.25054e-06
-2.19914e-05
-2.94939e-06
-1.85162e-05
-3.17647e-06
-1.58843e-05
-4.1418e-06
-1.36626e-05
-3.51454e-06
-1.27932e-05
-2.15641e-06
-9.06444e-06
-5.34564e-06
-9.0991e-06
-1.24607e-05
-5.05177e-06
-5.25513e-06
-1.38371e-05
-9.77229e-06
-7.92766e-06
-2.09031e-07
-2.49176e-05
-6.12593e-07
-2.8716e-05
-4.65094e-07
-2.75402e-05
-9.7861e-07
-1.98876e-05
-4.19195e-07
-2.19737e-05
1.24955e-06
-2.29999e-05
4.99948e-08
-1.26144e-05
-8.40717e-06
-1.34739e-05
-4.62621e-06
-2.35486e-05
-2.79342e-06
-2.08936e-05
-1.84597e-06
-1.43681e-05
-2.35627e-06
-1.15848e-05
-3.68765e-06
-1.98419e-05
-4.18413e-06
-2.14949e-05
-3.79266e-06
-1.89077e-05
-3.29017e-06
-1.63868e-05
-3.50716e-06
-1.34456e-05
-3.75378e-06
-1.25466e-05
-3.62977e-06
-9.18846e-06
-3.66627e-06
-9.0626e-06
-4.27919e-06
-4.43885e-06
-9.88248e-06
-8.23382e-06
-1.05107e-05
-9.14407e-06
-2.29967e-07
-2.46876e-05
-4.38456e-07
-2.85076e-05
8.64661e-07
-2.88433e-05
1.31525e-06
-2.03382e-05
-5.72022e-06
-1.49382e-05
-2.55588e-06
-2.61642e-05
-1.21045e-06
-1.39598e-05
-2.37666e-06
-1.23077e-05
-1.51323e-06
-2.44121e-05
-2.23774e-06
-2.0169e-05
-3.36017e-06
-1.32457e-05
-3.78317e-06
-1.11618e-05
-3.45988e-06
-2.01652e-05
-3.78246e-06
-2.11724e-05
-2.88452e-06
-1.98056e-05
-2.97135e-06
-1.62999e-05
-2.88812e-06
-1.35289e-05
-3.03431e-06
-1.24004e-05
-1.42812e-06
-1.07946e-05
-4.42661e-06
-6.0641e-06
-2.78515e-06
-6.08032e-06
-2.64168e-06
-8.37727e-06
-7.63657e-06
-5.51582e-06
-4.20028e-07
-2.42676e-05
-5.76563e-07
-2.8351e-05
-7.11852e-07
-2.87081e-05
8.53913e-08
-2.11354e-05
-1.71817e-06
-1.31346e-05