/*--------------------------------*- C++ -*----------------------------------*\
| =========                 |                                                 |
| \\      /  F ield         | foam-extend: Open Source CFD                    |
|  \\    /   O peration     | Version:     4.1                                |
|   \\  /    A nd           | Web:         http://www.foam-extend.org         |
|    \\/     M anipulation  |                                                 |
\*---------------------------------------------------------------------------*/
FoamFile
{
    version     2.0;
    format      ascii;
    class       surfaceScalarField;
    location    "0.55";
    object      phi_0;
}
// * * * * * * * * * * * * * * * * * * * * * * * * * * * * * * * * * * * * * //

dimensions      [0 3 -1 0 0 0 0];

internalField   nonuniform List<scalar> 
4432
(
7.13042e-06
-7.13042e-06
1.88327e-05
-1.17023e-05
2.09317e-05
-2.09906e-06
2.48143e-05
-3.88255e-06
2.78257e-05
-3.01137e-06
2.88398e-05
-1.0141e-06
2.96008e-05
-7.6105e-07
3.37545e-05
-4.15366e-06
3.20738e-05
1.68067e-06
4.41768e-05
-1.2103e-05
3.84333e-05
5.74348e-06
3.61188e-05
2.31446e-06
3.40845e-05
2.03428e-06
3.26819e-05
1.40267e-06
1.96986e-05
1.29833e-05
2.12963e-05
-1.59773e-06
1.94941e-05
1.80229e-06
1.30832e-05
6.41089e-06
7.25465e-06
5.82851e-06
1.11188e-06
6.14277e-06
-1.12628e-07
1.2245e-06
-1.59252e-07
4.66245e-08
-1.59252e-07
7.83251e-06
-1.49629e-05
1.98287e-05
-2.36984e-05
2.14365e-05
-3.70685e-06
2.51225e-05
-7.56854e-06
2.85433e-05
-6.43224e-06
2.94105e-05
-1.88129e-06
3.02635e-05
-1.61401e-06
3.52453e-05
-9.13549e-06
3.22038e-05
4.72223e-06
4.19124e-05
-2.18116e-05
3.77226e-05
9.93326e-06
3.54477e-05
4.58939e-06
3.45867e-05
2.89529e-06
3.34565e-05
2.53287e-06
3.43873e-05
1.20525e-05
1.90189e-05
1.37706e-05
1.82367e-05
2.58457e-06
2.80376e-05
-3.39004e-06
2.38001e-05
1.00661e-05
2.19513e-05
7.99149e-06
1.79444e-05
5.23141e-06
1.60688e-05
1.92223e-06
1.59096e-05
9.46098e-06
-2.44239e-05
2.16712e-05
-3.59087e-05
2.20758e-05
-4.11144e-06
2.5198e-05
-1.06907e-05
2.92099e-05
-1.04442e-05
3.01149e-05
-2.78628e-06
3.23446e-05
-3.84372e-06
3.69968e-05
-1.37877e-05
3.25314e-05
9.18767e-06
2.17763e-05
-1.10566e-05
2.90912e-05
2.61837e-06
2.29949e-05
1.06857e-05
2.2054e-05
3.83616e-06
1.24097e-05
1.21772e-05
1.62959e-05
8.16628e-06
1.88853e-05
1.11812e-05
1.73308e-05
4.13909e-06
1.21928e-05
1.7479e-06
1.93841e-05
2.87477e-06
1.65805e-05
1.07951e-05
1.35831e-05
8.22881e-06
6.98088e-06
8.52447e-06
2.28905e-05
1.18608e-05
-3.62847e-05
2.46981e-05
-4.8746e-05
2.33158e-05
-2.72908e-06
2.56606e-05
-1.30355e-05
3.14252e-05
-1.62088e-05
3.31644e-05
-4.52546e-06
3.60531e-05
-6.73246e-06
4.05309e-05
-1.82655e-05
3.25648e-05
1.71537e-05
2.04224e-05
1.08586e-06
1.39919e-05
9.04893e-06
2.10667e-05
3.6109e-06
1.15669e-05
1.33359e-05
2.42717e-05
-5.27584e-07
2.68312e-05
5.6068e-06
2.9373e-05
8.63937e-06
3.01768e-05
3.33524e-06
2.5633e-05
6.2917e-06
2.11871e-05
7.32067e-06
1.8063e-05
1.39192e-05
1.52683e-05
1.10235e-05
7.83706e-06
1.59557e-05
3.07275e-05
1.31838e-05
-4.94685e-05
2.74312e-05
-6.29934e-05
2.40708e-05
6.3139e-07
2.70235e-05
-1.59882e-05
3.41252e-05
-2.33105e-05
3.58328e-05
-6.23308e-06
3.95353e-05
-1.04349e-05
4.46126e-05
-2.33428e-05
3.33328e-05
2.84335e-05
2.11146e-05
1.3304e-05
2.83424e-05
1.82109e-06
1.123e-05
2.07233e-05
2.12377e-05
3.32831e-06
2.25029e-05
-1.79284e-06
2.16632e-05
6.44649e-06
1.97727e-05
1.05299e-05
1.98047e-05
3.30324e-06
1.76132e-05
8.48323e-06
1.75129e-05
7.421e-06
1.68911e-05
1.4541e-05
1.59082e-05
1.20064e-05
8.65828e-06
2.32056e-05
3.93858e-05
1.33901e-05
-6.28586e-05
3.00177e-05
-7.9621e-05
2.53331e-05
5.31601e-06
2.76557e-05
-1.83108e-05
3.60968e-05
-3.17515e-05
3.65824e-05
-6.71875e-06
7.14451e-05
-4.52976e-05
4.6363e-05
1.73932e-06
6.9963e-05
4.83348e-06
5.41595e-05
2.91075e-05
4.35853e-05
1.23953e-05
2.8418e-05
3.58906e-05
2.59415e-05
5.8048e-06
1.50735e-05
9.07525e-06
2.89685e-05
-7.44859e-06
2.07537e-05
1.87447e-05
1.83063e-05
5.75063e-06
1.74475e-05
9.342e-06
1.65106e-05
8.35793e-06
1.64539e-05
1.45977e-05
1.72057e-05
1.12547e-05
9.5241e-06
3.08872e-05
4.89099e-05
2.56078e-06
-6.54193e-05
2.52631e-05
-0.000102323
1.94082e-05
1.11709e-05
2.08473e-05
-1.97499e-05
3.19423e-05
-4.28465e-05
3.78455e-05
-1.2622e-05
4.07174e-05
-4.81694e-05
5.27187e-05
-1.0262e-05
7.1103e-05
-1.35508e-05
5.46488e-05
4.55617e-05
2.44367e-05
4.26074e-05
2.37542e-05
3.65731e-05
1.09077e-05
1.86513e-05
1.419e-05
5.79288e-06
1.30223e-05
-6.28089e-06
1.97542e-05
1.20128e-05
1.80557e-05
7.44916e-06
1.59454e-05
1.14523e-05
1.51966e-05
9.1067e-06
1.78623e-05
1.1932e-05
2.09012e-05
8.21575e-06
2.19075e-05
2.98809e-05
7.08174e-05
-1.14063e-05
-5.4013e-05
1.74958e-05
-0.000131226
1.6402e-07
2.85027e-05
-2.26648e-06
-1.73194e-05
1.35404e-05
-5.86534e-05
1.27165e-05
-1.17981e-05
6.99095e-05
-0.000105362
7.81757e-05
-1.85282e-05
5.18896e-05
1.27353e-05
2.92074e-05
6.82439e-05
2.70114e-05
4.48034e-05
5.63686e-06
5.79477e-05
9.18107e-06
1.51071e-05
1.9388e-05
-4.41409e-06
9.85671e-06
3.25044e-06
4.36452e-06
1.7505e-05
7.89359e-06
3.92009e-06
7.16559e-06
1.21803e-05
3.0333e-06
1.3239e-05
1.48899e-05
7.53497e-08
2.67831e-05
-3.67743e-06
2.70809e-05
2.95832e-05
9.78983e-05
-7.97163e-05
7.97163e-05
-0.000100855
2.11392e-05
-0.000114739
1.38831e-05
-0.000124933
1.01941e-05
-0.000114904
-1.00287e-05
-0.000115617
7.12669e-07
-0.000137767
2.21503e-05
-9.52168e-05
-4.25499e-05
-0.000108682
1.3465e-05
-0.000141847
3.31655e-05
-9.99629e-05
-4.18842e-05
-0.000147621
4.76585e-05
-0.000140992
-6.62919e-06
-0.000130469
-1.05231e-05
-9.16731e-05
-3.8796e-05
-4.80768e-05
-4.35963e-05
9.88311e-06
-5.79599e-05
2.01705e-05
-1.02874e-05
2.01705e-05
-2.73665e-05
0.000107083
-4.43019e-05
3.80746e-05
-3.52112e-05
4.79232e-06
-1.70708e-05
-7.9463e-06
-4.90943e-05
2.19948e-05
-7.5141e-05
2.67594e-05
-6.45545e-05
1.15638e-05
-8.89231e-05
-1.81813e-05
-0.000100355
2.4897e-05
-0.000142484
7.52946e-05
-0.00014536
-3.90088e-05
-6.87016e-05
-2.89998e-05
-8.49002e-05
9.56946e-06
-6.74911e-05
-2.79323e-05
-2.24079e-05
-8.38791e-05
-1.41285e-05
-5.18758e-05
3.90164e-06
-7.599e-05
7.82241e-06
-1.42082e-05
2.79929e-05
-2.02754e-05
0.000127358
-3.04298e-05
4.8229e-05
-2.9215e-05
3.57748e-06
-3.79711e-05
8.09796e-07
-5.41529e-05
3.81766e-05
-6.77699e-05
4.03764e-05
-0.000102379
4.61725e-05
-0.000117504
-3.05607e-06
-0.000119846
2.72394e-05
-8.19594e-05
3.74077e-05
-6.4507e-05
-5.64612e-05
-4.28887e-05
-5.0618e-05
-6.05347e-05
2.72155e-05
-3.54307e-05
-5.30364e-05
-2.22631e-05
-9.70467e-05
-1.07779e-05
-6.3361e-05
-2.16652e-05
-6.51027e-05
-5.80344e-06
-3.00699e-05
2.21895e-05
-4.7292e-06
0.000132087
-6.36991e-06
4.98696e-05
-1.37378e-05
1.09453e-05
-1.83641e-05
5.43605e-06
1.87572e-06
1.79368e-05
-9.03444e-06
5.12866e-05
-8.49861e-07
3.79878e-05
-5.16859e-06
1.26262e-06
-4.53284e-05
6.73991e-05
-2.15336e-05
1.36129e-05
1.62778e-05
-9.42726e-05
-2.78301e-05
-6.51003e-06
-1.61423e-05
1.55277e-05
-2.48407e-06
-6.66947e-05
1.13761e-06
-0.000100668
3.43631e-06
-6.56597e-05
-1.03981e-05
-5.12683e-05
-4.26672e-06
-3.62012e-05
1.79228e-05
5.18843e-06
0.000126899
-3.29949e-06
5.83575e-05
-9.43048e-06
1.70763e-05
-2.63449e-06
-1.35994e-06
-1.51774e-06
1.68201e-05
8.49436e-06
4.12745e-05
3.02467e-05
1.62355e-05
7.28847e-05
-4.13754e-05
7.67742e-05
6.35096e-05
9.23545e-05
-1.96745e-06
3.31234e-05
-3.50416e-05
1.59399e-05
1.06735e-05
5.90772e-06
2.55598e-05
1.65182e-05
-7.73052e-05
1.84233e-05
-0.000102573
1.57878e-05
-6.30242e-05
7.12961e-06
-4.26101e-05
6.83789e-06
-3.59095e-05
2.47607e-05
6.87714e-06
0.000120022
3.55794e-06
6.16767e-05
7.58122e-06
1.3053e-05
2.71973e-05
-2.09761e-05
2.40546e-05
1.99629e-05
3.97059e-05
2.56232e-05
3.53192e-05
2.06222e-05
3.46133e-06
-9.51749e-06
7.95215e-05
-1.25506e-05
5.92729e-05
1.82811e-05
4.39467e-05
-1.97154e-05
2.30106e-05
3.16097e-05
2.10253e-05
2.75451e-05
2.87732e-05
-8.50531e-05
2.60985e-05
-9.98988e-05
2.52635e-05
-6.21892e-05
2.06645e-05
-3.80111e-05
8.5026e-06
-2.37476e-05
3.32633e-05
9.99486e-06
0.000110027
1.67417e-05
5.49299e-05
3.44517e-05
-4.6571e-06
3.89015e-05
-2.54258e-05
1.731e-05
4.15545e-05
2.17194e-05
2.12139e-05
2.3574e-05
1.87676e-05
8.88087e-06
5.17558e-06
3.74634e-05
-4.1133e-05
4.83519e-05
7.39267e-06
3.71515e-05
-8.51514e-06
2.92128e-05
3.95484e-05
3.76811e-05
1.90768e-05
4.43952e-05
-9.17672e-05
4.06504e-05
-9.6154e-05
3.5613e-05
-5.71518e-05
2.78089e-05
-3.0207e-05
1.27895e-05
-8.72826e-06
4.60528e-05
-1.06595e-05
0.000120686
4.01636e-05
4.10677e-06
5.12444e-05
-1.57379e-05
1.99175e-05
5.90116e-06
3.25842e-05
2.88877e-05
3.56067e-05
1.81914e-05
8.6451e-05
-3.20766e-05
5.28748e-05
3.87518e-05
4.02366e-05
-2.84948e-05
3.20156e-05
1.56136e-05
2.98931e-05
-6.39271e-06
3.71722e-05
3.22693e-05
5.23909e-05
3.85806e-06
5.73079e-05
-9.66842e-05
5.02508e-05
-8.90969e-05
4.23837e-05
-4.92847e-05
3.00452e-05
-1.78685e-05
1.41086e-05
7.20831e-06
6.01614e-05
-3.01695e-05
-2.38435e-05
-3.533e-05
-0.000126065
-1.15188e-05
4.69147e-06
-4.0249e-05
1.14108e-05
-2.49353e-05
-7.39671e-05
2.29223e-05
-5.96557e-05
6.15315e-05
-0.000143972
0.000128913
-8.59098e-05
0.00013638
5.26851e-06
0.000110456
9.4168e-05
7.61659e-05
7.90933e-05
3.18334e-05
0.00010228
2.67943e-05
2.01462e-05
2.6772e-05
-4.39171e-06
3.72811e-05
-7.25867e-06
6.22497e-05
-7.46363e-06
6.00573e-05
6.11246e-06
6.46303e-05
7.60736e-06
7.44184e-05
3.45089e-06
7.97241e-05
-5.23039e-06
8.35168e-05
-7.47012e-06
8.66461e-05
2.64538e-05
6.40778e-05
0.000120467
3.30294e-05
-5.68729e-05
-4.50456e-05
-4.799e-05
-1.26203e-05
-2.77338e-05
3.98996e-06
-5.19946e-06
1.1353e-06
-7.11125e-05
1.91616e-05
-7.7682e-05
3.5432e-06
-0.000128353
4.59206e-06
-8.69587e-05
4.991e-05
-4.00495e-05
0.000105814
3.82638e-05
0.000116402
6.85053e-05
0.000141445
7.72375e-05
0.000107364
5.42275e-05
8.83573e-05
1.46147e-05
8.48141e-05
-3.71537e-06
7.63553e-05
9.95167e-07
8.64813e-05
-4.01363e-06
9.77094e-05
-3.62071e-06
0.00010397
-2.80944e-06
0.000106307
-7.56797e-06
7.28729e-05
2.59643e-05
8.10636e-05
1.82631e-05
4.9856e-05
9.52854e-05
-1.87912e-05
-3.80817e-05
5.3285e-06
-7.21097e-05
6.57734e-05
-8.81787e-05
4.62467e-05
1.43272e-05
2.54639e-05
-5.03297e-05
1.36801e-05
-6.58982e-05
-2.68975e-05
-8.77757e-05
-7.99842e-05
-3.3872e-05
-9.51626e-05
-2.48712e-05
1.26568e-05
-6.95554e-05
0.000110452
-2.92903e-05
0.00011884
6.88499e-05
0.000145095
2.79728e-05
0.000142857
1.68525e-05
0.000125223
1.39187e-05
8.95022e-05
3.67157e-05
7.96471e-05
5.84147e-06
7.25346e-05
3.49174e-06
7.39082e-05
-4.18303e-06
5.75156e-05
8.82462e-06
7.53639e-05
8.11606e-06
8.87432e-05
4.88382e-06
4.06144e-05
9.79847e-05
-3.51358e-05
-2.94594e-06
-2.73632e-06
-0.000104509
3.87783e-06
-9.47929e-05
4.01816e-06
1.41869e-05
-1.44722e-05
-3.18393e-05
-2.45676e-05
-5.58029e-05
-6.86068e-05
-4.37364e-05
-0.000126446
2.39673e-05
-0.000115442
-3.58757e-05
-0.000132905
-5.20926e-05
-4.53292e-06
-0.000157662
2.87801e-05
3.55369e-05
6.21002e-05
-5.34725e-06
0.000105891
-2.69386e-05
0.000148947
-2.91369e-05
0.000222427
-3.67642e-05
0.000179343
4.8925e-05
0.000128331
5.45044e-05
6.69683e-05
5.71793e-05
6.09293e-05
1.48636e-05
7.13688e-05
-2.32352e-06
7.83484e-05
-2.09577e-06
-7.42547e-07
0.000119705
-3.59217e-05
3.29757e-05
-1.41938e-05
-0.000126237
-4.28416e-05
-6.61451e-05
-2.55989e-05
-3.05576e-06
-2.83713e-05
-2.9067e-05
-5.80329e-05
-2.61413e-05
-9.77628e-05
-4.00642e-06
-9.84273e-05
2.46317e-05
-0.000146629
1.23256e-05
-7.00154e-05
-0.000128706
3.96353e-06
-0.000231641
3.07715e-05
8.72861e-06
4.67652e-05
-2.13409e-05
4.69164e-05
-2.70898e-05
6.26653e-05
-4.48858e-05
7.33711e-05
-4.74701e-05
0.00013372
-1.14235e-05
0.00017586
1.23642e-05
0.000184736
4.83036e-05
0.000191673
7.92623e-06
0.000194732
-5.38301e-06
0.000190502
2.13481e-06
9.80215e-06
0.000179957
2.65521e-05
6.42361e-06
-2.01627e-05
-7.95222e-05
-4.09123e-05
-4.53956e-05
-2.90361e-05
-1.4932e-05
-3.41227e-05
-2.39803e-05
-3.45693e-05
-2.56947e-05
-5.16553e-05
1.30796e-05
-8.81291e-05
6.11055e-05
-0.000128581
5.27781e-05
-8.40745e-05
-0.000173213
-5.73507e-05
-0.000258365
1.2532e-05
-6.11539e-05
-2.21266e-05
1.33177e-05
-3.67454e-05
-1.24709e-05
-7.75796e-06
-7.38733e-05
2.07375e-05
-7.59656e-05
5.83749e-05
-4.90609e-05
0.000107817
-3.70784e-05
0.00018071
-2.45893e-05
0.000198709
-1.00728e-05
0.000215977
-2.26511e-05
0.000215026
3.08625e-06
2.31418e-05
0.000201686
1.11284e-05
-4.70479e-06
-1.61515e-05
-5.22423e-05
-1.46722e-05
-4.68748e-05
-2.00771e-05
-9.52716e-06
-2.91075e-05
-1.49498e-05
-7.55084e-05
2.07061e-05
-0.000125008
6.25794e-05
-9.67682e-05
3.28655e-05
-8.09147e-05
3.69247e-05
-6.60363e-05
-0.000188091
-6.59164e-05
-0.000258484
1.49954e-05
-0.000142066
2.47963e-05
3.5168e-06
3.63608e-06
8.68928e-06
-1.80923e-05
-5.2145e-05
-3.13161e-06
-9.09262e-05
2.68811e-05
-7.90735e-05
4.21596e-05
-5.23569e-05
8.57486e-05
-6.81782e-05
0.000138986
-6.33104e-05
0.000146472
-3.01372e-05
0.000144167
5.39167e-06
3.48569e-05
0.000132452
4.80551e-05
-5.27599e-05
5.81511e-05
-6.23384e-05
3.82765e-05
-2.70002e-05
1.13264e-05
1.7423e-05
-1.72966e-05
1.36731e-05
-3.79916e-05
4.14011e-05
-4.04571e-05
6.50449e-05
-9.93811e-05
9.17895e-05
-8.27634e-05
2.03067e-05
-8.94719e-05
-0.000181382
-7.19491e-05
-0.000276007
4.56628e-06
-0.000218581
9.02931e-05
-8.22101e-05
7.69497e-05
2.20327e-05
2.84818e-05
-3.67705e-06
2.90076e-05
-9.1452e-05
1.192e-05
-6.19859e-05
1.43632e-05
-5.48001e-05
1.76592e-05
-7.14743e-05
4.12313e-05
-8.68825e-05
2.44114e-05
-1.33173e-05
3.77171e-05
-7.91398e-06
1.27428e-05
5.98312e-05
1.16e-05
-6.43599e-05
6.49324e-07
-5.13877e-05
-1.05012e-05
-1.58497e-05
-1.41185e-05
2.10403e-05
-1.95335e-05
1.90881e-05
-3.96608e-05
6.15284e-05
-2.58986e-05
5.12827e-05
1.0364e-05
5.55268e-05
3.71838e-05
-6.51309e-06
1.90432e-06
-0.000146103
-7.49598e-05
-0.000199143
4.63143e-05
-0.000339855
6.66127e-05
-0.000102509
6.76592e-05
2.09862e-05
6.02266e-05
3.75555e-06
1.55137e-05
-4.67392e-05
2.6035e-05
-7.25073e-05
1.2611e-05
-4.13761e-05
1.74371e-05
-7.63004e-05
-1.37358e-05
-5.57096e-05
-1.82198e-05
-8.83328e-06
-3.32213e-05
7.08758e-06
6.08721e-05
-8.13506e-05
3.9339e-07
-6.47533e-05
-8.07397e-06
-4.29203e-05
-1.8534e-06
-2.20703e-05
1.02993e-05
8.88761e-06
7.06788e-06
2.23195e-05
2.9811e-05
3.87852e-05
2.36272e-05
5.74666e-05
4.66837e-05
3.24703e-05
0.000111209
-7.10382e-05
7.42068e-05
-0.000109101
5.2283e-06
-0.000130165
6.01e-06
-0.000340637
6.75681e-05
-0.000164067
7.12344e-05
1.73199e-05
5.19999e-05
2.299e-05
3.06552e-05
-2.53945e-05
3.22765e-07
-4.21748e-05
-3.15354e-06
-3.78998e-05
-7.71194e-06
-7.1742e-05
-2.42113e-05
-3.92103e-05
-8.5062e-06
-2.45384e-05
-2.85845e-05
2.71659e-05
9.44013e-05
-6.21138e-05
-9.14493e-06
-5.56084e-05
-1.49301e-05
-3.71352e-05
-1.08483e-05
-2.61521e-05
1.27508e-06
-3.23574e-06
1.89475e-05
4.64704e-06
3.1658e-05
2.60747e-05
4.59402e-05
4.31845e-05
6.77375e-05
1.0673e-05
8.96368e-05
-9.29374e-05
5.70893e-05
-7.65532e-05
1.04964e-05
-8.35716e-05
1.62201e-05
-0.000346361
3.03937e-05
-0.00017824
3.4321e-05
1.33926e-05
2.38224e-05
3.34886e-05
1.31469e-06
-2.88672e-06
-8.15152e-06
-3.27086e-05
-1.26887e-06
-4.47824e-05
-2.02922e-05
-5.27186e-05
-3.73234e-05
-2.21791e-05
-4.92395e-05
-1.26223e-05
-5.97589e-05
3.76853e-05
0.000106407
-7.17647e-05
-1.05144e-05
-4.5094e-05
-1.99279e-05
-2.77217e-05
-1.23086e-05
-3.37714e-05
-2.44044e-06
-1.31039e-05
1.81638e-05
-1.59572e-05
4.27443e-05
1.49423e-06
8.45156e-05
1.41315e-06
0.000113428
-1.824e-05
9.05933e-05
-7.01023e-05
6.60737e-05
-5.20336e-05
4.68974e-06
-2.21877e-05
1.68033e-06
-0.000343351
-7.74534e-05
-9.91067e-05
-2.68095e-05
-3.72511e-05
-1.13787e-06
7.81688e-06
-1.00574e-05
6.03279e-06
-1.2535e-05
-3.0231e-05
-3.17282e-05
-2.55893e-05
-4.20805e-05
-4.23663e-05
-4.84693e-05
-1.57902e-05
-5.75566e-05
-3.53502e-06
-4.54822e-05
2.56109e-05
7.40877e-05
-1.31626e-05
-1.29442e-05
-3.21498e-05
-3.24029e-06
-3.74256e-05
-8.85059e-06
-2.81611e-05
9.98486e-06
-3.19394e-05
1.57832e-05
-2.17555e-05
3.37764e-05
-1.6499e-05
4.90527e-05
-1.38632e-05
7.61953e-05
-4.53826e-05
5.69299e-05
-5.08368e-05
7.31508e-05
-6.82545e-05
9.12831e-05
-4.03201e-05
-4.96642e-05
-0.000202404
-1.99889e-05
-0.000128782
7.24471e-06
-6.44848e-05
9.40466e-06
5.65694e-06
-5.22451e-06
2.0662e-05
-2.34722e-05
-1.19833e-05
-2.96042e-05
-1.94572e-05
-5.10401e-05
-2.09304e-05
-5.60574e-05
-1.07729e-05
-5.43773e-05
-5.21509e-06
-3.5653e-05
6.88662e-06
3.00572e-05
8.37753e-06
-9.95867e-08
-3.20502e-05
-5.22722e-06
-3.2298e-05
-9.69124e-07
-3.24192e-05
3.77067e-06
-3.66792e-05
2.31418e-05
-4.11267e-05
2.6334e-05
-1.96911e-05
3.56914e-05
-2.32206e-05
6.31464e-05
-7.28376e-05
5.06817e-05
-3.83722e-05
3.99657e-05
-5.75385e-05
5.46926e-05
-5.5047e-05
-1.47997e-05
-0.000132912
-3.49129e-05
-0.000108669
-4.04863e-05
-5.89114e-05
-2.98673e-05
-4.96209e-06
-2.73122e-05
1.81069e-05
-2.67439e-05
-1.25516e-05
-4.19099e-05
-4.29129e-06
-5.03951e-05
-1.24452e-05
-5.60165e-05
-5.1515e-06
-5.46368e-05
-6.59482e-06
-4.89014e-05
1.15121e-06
1.1142e-06
-1.99584e-05
-6.59913e-06
-2.54511e-05
-4.58676e-06
-3.43103e-05
-1.62425e-06
-3.53818e-05
3.72285e-06
-4.20263e-05
9.59551e-06
-4.69994e-05
1.54979e-05
-2.55935e-05
2.89937e-05
-3.67164e-05
4.2271e-05
-8.61149e-05
5.34904e-05
-4.95915e-05
3.3568e-05
-3.76162e-05
4.77514e-05
-6.92304e-05
-1.02567e-05
-7.49036e-05
-3.29493e-05
-8.5976e-05
-5.00984e-05
-4.17623e-05
-4.87662e-05
-6.29436e-06
-2.48006e-05
-5.85867e-06
-3.21818e-05
-5.17044e-06
-2.37513e-05
-1.27217e-05
-2.85588e-05
-7.63773e-06
-3.09208e-05
-2.78952e-06
-4.0827e-05
3.31137e-06
-4.05684e-05
8.92646e-07
-1.96036e-06
-3.74939e-05
-1.52357e-06
-2.39276e-05
-2.96187e-06
-3.2872e-05
-5.71317e-07
-3.77723e-05
6.80259e-07
-4.32779e-05
1.31355e-06
-4.76327e-05
8.15136e-06
-3.24314e-05
8.9861e-06
-3.75511e-05
1.22046e-05
-8.93334e-05
1.28408e-05
-5.02277e-05
1.27059e-05
-3.74813e-05
3.33381e-06
-5.98584e-05
8.14856e-06
-7.97184e-05
-2.29186e-05
-5.49088e-05
-4.01527e-05
-2.45282e-05
-4.19507e-05
-4.49635e-06
-3.12236e-05
-1.65857e-05
-3.89989e-05
2.60486e-06
-4.10778e-05
-1.06429e-05
-4.49826e-05
-3.73294e-06
-4.73328e-05
-4.39321e-07
-4.26716e-05
-1.34984e-06
-2.67568e-05
-1.50221e-05
-6.23234e-06
-2.24848e-05
-7.45638e-06
-1.64712e-05
-1.97396e-06
-3.83545e-05
-2.69626e-06
-3.705e-05
-1.67727e-06
-4.42969e-05
-4.43765e-06
-4.48723e-05
-8.38362e-08
-3.67852e-05
2.05638e-05
-5.81988e-05
-8.5182e-06
-6.02514e-05
-4.598e-06
-5.41479e-05
4.41724e-06
-4.64965e-05
2.76634e-06
-5.82075e-05
-3.75725e-05
-3.93796e-05
-6.39248e-05
-2.85565e-05
-4.83903e-05
-4.00628e-05
-4.30832e-05
-9.80342e-06
-5.25787e-05
-7.09023e-06
-4.75998e-05
-2.37407e-06
-4.78316e-05
-1.04111e-05
-4.75368e-05
-4.02771e-06
-3.16135e-05
-1.63626e-05
-2.58723e-05
-7.09103e-06
-2.45031e-05
-1.63914e-05
-1.67358e-06
-2.90619e-05
6.52688e-06
-2.29981e-05
-6.71291e-06
-2.51147e-05
-2.9669e-06
-4.07961e-05
-8.7072e-06
-3.85566e-05
-3.77647e-06
-4.9803e-05
-7.91463e-06
-3.2647e-05
-4.27415e-06
-6.18393e-05
-1.40063e-05
-5.05192e-05
-1.873e-05
-4.94243e-05
-1.87584e-05
-4.64681e-05
-4.07387e-05
-3.62271e-05
-4.09242e-05
-3.91941e-05
-4.39929e-05
-2.54878e-05
-5.10853e-05
-3.29703e-05
-4.24027e-05
-1.84861e-05
-4.28496e-05
-6.64336e-06
-3.83009e-05
-6.92279e-06
-4.03906e-05
-8.32131e-06
-2.31231e-05
-2.12953e-05
-2.66758e-05
-1.28098e-05
-2.45771e-05
-9.18981e-06
-2.60573e-05
-1.49112e-05
-6.56743e-06
-2.11634e-05
4.14669e-06
-2.71448e-05
6.58537e-06
-2.75534e-05
-5.58579e-06
-2.86249e-05
-5.11763e-06
-3.90247e-05
-2.33522e-05
-3.15685e-05
-2.51326e-05
-3.08667e-05
-2.65778e-05
-6.0394e-05
-1.47499e-05
-6.23471e-05
-3.11822e-05
-3.2992e-05
-4.3591e-05
-3.40594e-05
-2.42232e-05
-5.55949e-05
-3.1161e-05
-3.22564e-05
-3.33442e-05
-2.33046e-05
-3.74596e-05
-2.88548e-05
-3.08919e-05
-2.50538e-05
-2.3976e-05
-1.35593e-05
-2.45299e-05
-6.36886e-06
-2.25001e-05
-1.03511e-05
-3.41968e-05
-9.59855e-06
-3.70043e-05
-1.00023e-05
-2.43159e-05
-2.18783e-05
-2.45529e-05
-1.46741e-05
-9.5505e-07
-3.01653e-05
2.89968e-06
-3.00445e-05
3.59984e-06
-2.82535e-05
3.92657e-06
-2.89517e-05
-8.42785e-06
-2.66703e-05
-1.03793e-05
-2.9617e-05
-1.3056e-05
-2.819e-05
-1.6035e-05
-5.7415e-05
-2.51109e-05
-5.32712e-05
-3.01913e-05
-2.79116e-05
-3.71924e-05
-2.70582e-05
-4.17158e-05
-5.10715e-05
-5.13914e-05
-2.25808e-05
-3.37136e-05
-4.09824e-05
-2.95728e-05
-3.29957e-05
-4.05563e-05
-1.40703e-05
-3.8318e-05
-1.57975e-05
-2.55927e-05
-1.90941e-05
-2.78233e-05
-8.12056e-06
-2.46317e-05
-1.27902e-05
-2.27279e-05
-1.19061e-05
-3.56596e-05
-8.94654e-06
-4.04549e-05
-9.87884e-06
-1.88586e-05
-2.25514e-05
5.39666e-07
-3.05842e-05
4.48796e-07
-2.81627e-05
-1.76569e-06
-2.67372e-05
-3.16546e-06
-2.52706e-05
-3.94081e-06
-2.88417e-05
6.80073e-06
-3.89316e-05
-1.45021e-05
-3.61123e-05
-1.3286e-05
-5.44872e-05
-1.52855e-05
-2.59121e-05
-1.7198e-05
-2.51457e-05
-3.76444e-05
-3.06251e-05
-2.84782e-05
-3.1747e-05
-4.65321e-05
-2.29285e-05
-4.29954e-05
-3.65323e-05
-4.05996e-05
-1.64662e-05
-3.67266e-05
-1.96705e-05
-4.06224e-05
-1.51983e-05
-2.54437e-05
-2.32993e-05
-2.67839e-05
-1.145e-05
-2.481e-05
-1.38801e-05
-1.79395e-05
-1.5817e-05
-1.69716e-05
-1.08468e-05
-1.36515e-05
-2.21787e-05
-2.4829e-07
-3.03359e-05
1.09942e-07
-2.85209e-05
9.90256e-08
-2.67263e-05
-2.88365e-06
-2.22879e-05
-2.6025e-06
-2.91228e-05
3.48838e-06
-4.50224e-05
8.67144e-07
-3.3491e-05
-1.98914e-05
-3.37287e-05
-1.56349e-05
-3.01686e-05
-1.38964e-05
-2.68842e-05
-1.5073e-05
-2.94486e-05
-1.8163e-05
-2.8657e-05
-1.76452e-05
-2.34463e-05
-3.24928e-05
-2.16848e-05
-2.13548e-05
-2.76041e-05
-1.81587e-05
-2.28667e-05
-1.77642e-05
-1.55929e-05
-2.29127e-05
-1.81507e-05
-2.18414e-05
-1.25213e-05
-2.09743e-05
-1.47472e-05
-2.11377e-05
-1.56536e-05
-2.0721e-05
-1.12636e-05
-9.90867e-06
-2.44638e-05
-2.08998e-06
-2.82459e-05
-5.13676e-06
-2.54742e-05
-6.74253e-06
-2.51205e-05
1.01381e-05
-3.91685e-05
5.61952e-06
-2.46043e-05
-7.35694e-06
-3.2046e-05
-1.15828e-05
-2.92652e-05
-1.20916e-05
-3.32199e-05
-1.02613e-05
-3.19989e-05
-9.48734e-06
-2.76582e-05
-1.21707e-05
-2.67652e-05
-1.60756e-05
-2.47521e-05
-2.20728e-05
-1.74491e-05
-2.32275e-05
-2.05301e-05
-1.72693e-05
-3.35623e-05
-2.30006e-05
-1.71354e-05
-2.23174e-05
-1.62761e-05
-2.11868e-05
-1.92812e-05
-1.61652e-05
-1.7543e-05
-1.76024e-05
-1.33099e-05
-1.6929e-05
-1.6327e-05
-1.47033e-05
-1.34893e-05
-7.7796e-06
-1.68324e-05
-9.56132e-06
-1.86846e-05
2.96136e-07
-3.53316e-05
5.81628e-06
-3.06407e-05
1.14079e-07
-3.34663e-05
7.43305e-06
-3.19232e-05
2.96388e-06
-2.75768e-05
-3.05933e-06
-2.3242e-05
-7.69391e-06
-2.85853e-05
-1.37002e-05
-2.59927e-05
-1.68574e-05
-2.4501e-05
-1.84453e-05
-2.51773e-05
-1.94802e-05
-2.37171e-05
-1.79872e-05
-1.89421e-05
-1.92758e-05
-1.92415e-05
-3.22235e-05
-2.06146e-05
-1.56949e-05
-3.3664e-05
-1.41803e-05
-1.77908e-05
-2.07907e-05
-1.26708e-05
-1.48469e-05
-2.34868e-05
-1.9056e-05
-9.10079e-06
-1.84626e-05
-1.69204e-05
-1.73901e-05
-1.45618e-05
-1.0077e-05
-1.50927e-05
5.71975e-06
-2.44043e-05
1.35914e-06
-3.0971e-05
-2.14573e-06
-2.71358e-05
-5.19566e-06
-3.04164e-05
-8.36513e-06
-2.87538e-05
-1.55047e-06
-3.43915e-05
6.09875e-06
-3.08912e-05
5.3081e-08
-2.25397e-05
-5.49092e-06
-2.04487e-05
-8.61228e-06
-2.13797e-05
-1.32616e-05
-2.0528e-05
-1.62036e-05
-2.07751e-05
-1.49737e-05
-2.0172e-05
-1.07187e-05
-2.34966e-05
-1.03093e-05
-2.1024e-05
-2.03686e-05
-2.36046e-05
-2.64068e-05
-1.17526e-05
-1.13968e-05
-2.76808e-05
-2.26044e-05
-1.22792e-05
-1.58346e-05
-1.58706e-05
-1.62789e-05
-1.64761e-05
-1.42035e-05
-1.66372e-05
-7.79341e-06
-1.64871e-05
-7.25787e-07
-2.36786e-05
-9.74952e-07
-3.07219e-05
2.77736e-07
-2.83885e-05
-1.70039e-06
-2.84383e-05
-2.70895e-06
-2.77452e-05
-7.28671e-06
-2.98137e-05
-1.04461e-05
-2.77318e-05
-6.87126e-06
-2.61145e-05
-1.18796e-05
-1.54404e-05
-1.79635e-05
-1.52957e-05
-1.33847e-05
-2.51068e-05
-8.37894e-06
-2.57809e-05
-1.57227e-06
-2.69786e-05
-7.48365e-06
-1.75852e-05
-1.09047e-05
-1.7603e-05
-1.69913e-05
-1.7518e-05
-5.61021e-06
-2.31337e-05
-1.74284e-05
-1.58627e-05
-1.42588e-05
-1.54487e-05
-1.30006e-05
-1.71288e-05
-1.35416e-05
-1.5935e-05
-1.3871e-05
-1.63078e-05
-2.66e-06
-1.90044e-05
1.07659e-06
-2.47552e-05
4.65731e-07
-3.0111e-05
-5.87707e-07
-2.73351e-05
-2.04212e-06
-2.69839e-05
-2.84911e-06
-2.69382e-05
-2.32231e-06
-3.03405e-05
-2.87678e-06
-2.71773e-05
-5.21219e-06
-2.37791e-05
-6.74075e-06
-1.39118e-05
-8.18818e-06
-1.38483e-05
-1.09945e-05
-2.23005e-05
-1.38009e-05
-2.29745e-05
-1.6133e-05
-2.46465e-05
-8.87949e-06
-2.48387e-05
-1.285e-05
-1.36325e-05
-7.86598e-06
-2.2502e-05
-1.72209e-05
-1.37788e-05
-8.35359e-06
-2.473e-05
-1.23998e-05
-1.14026e-05
-1.67065e-05
-1.28221e-05
-1.17461e-05
-2.08954e-05
-2.32728e-05
-4.78115e-06
-1.26688e-05
-1.32641e-05
-1.59274e-07
-2.45959e-05
-5.70305e-07
-2.97e-05
-6.01166e-07
-2.73042e-05
-2.42789e-06
-2.51571e-05
-3.25256e-06
-2.61136e-05
-4.18185e-06
-2.94113e-05
-5.68873e-06
-2.56705e-05
-6.17563e-06
-2.32922e-05
-7.511e-06
-1.25764e-05
-7.96155e-06
-1.33978e-05
-7.26624e-06
-2.29958e-05
-9.12644e-06
-2.11143e-05
-1.02659e-05
-2.3507e-05
-1.12809e-05
-2.38237e-05
-1.39534e-05
-1.09601e-05
-7.99621e-06
-2.84591e-05
-1.28317e-05
-8.94328e-06
-1.60209e-05
-2.15409e-05
-1.07625e-05
-1.66609e-05
-6.73092e-06
-1.68537e-05
-1.68404e-05
-1.0786e-05
-1.31108e-05
-8.5108e-06
-8.98776e-06
-1.67918e-05
5.57761e-07
-2.51537e-05
6.22225e-07
-2.97645e-05
6.21455e-07
-2.73034e-05
-7.24417e-07
-2.38113e-05
-1.71819e-06
-2.51198e-05
-2.79267e-06
-2.83368e-05
-3.8213e-06
-2.46418e-05
-3.74572e-06
-2.33678e-05
-2.26615e-06
-1.4056e-05
-1.13609e-06
-1.45278e-05
-9.50877e-06
-1.46231e-05
-7.70251e-06
-2.29206e-05
-8.16597e-06
-2.30435e-05
-8.38081e-06
-2.36089e-05
-1.13409e-06
-1.82068e-05
-1.10118e-05
-1.85814e-05
-5.90191e-06
-1.40532e-05
-1.28184e-05
-1.46244e-05
-1.01688e-05
-1.93104e-05
-9.43794e-06
-1.75846e-05
-1.42846e-05
-5.93932e-06
-9.54065e-06
-1.32548e-05
-5.32924e-06
-1.31992e-05
5.05597e-08
-2.52042e-05
-2.77336e-07
-2.94366e-05
-5.67138e-07
-2.70136e-05
-2.60267e-06
-2.17757e-05
-3.78051e-06
-2.3942e-05
-3.30567e-06
-2.88116e-05
-4.29397e-06
-2.36535e-05
-4.44374e-06
-2.3218e-05
-5.3656e-06
-1.31341e-05
-5.5413e-06
-1.43521e-05
-5.7334e-06
-1.4431e-05
-5.1637e-06
-2.34903e-05
-5.94766e-06
-2.22596e-05
-6.43987e-06
-2.31167e-05
-5.96778e-06
-1.86789e-05
-1.07785e-05
-1.37707e-05
-1.1323e-05
-1.35086e-05
-1.30415e-05
-1.29059e-05
-1.45893e-05
-1.77627e-05
-1.36586e-05
-1.85153e-05
-7.68282e-06
-1.19151e-05
-1.38755e-05
-7.06208e-06
-9.0472e-06
-1.01576e-05
5.0191e-07
-2.57061e-05
6.98014e-07
-2.96327e-05
1.46068e-06
-2.77763e-05
2.1934e-06
-2.25085e-05
4.59927e-06
-2.63479e-05
-4.50973e-06
-1.97027e-05
-1.17476e-05
-1.64157e-05
-9.10553e-06
-2.586e-05
-7.09513e-06
-1.51445e-05
-6.26753e-06
-1.51797e-05
-4.69584e-06
-1.60027e-05
-5.87405e-06
-2.23121e-05
-6.62183e-06
-2.15118e-05
-7.14961e-06
-2.25889e-05
-7.98326e-06
-1.78452e-05
-5.03981e-06
-1.67141e-05
-3.21521e-06
-1.53332e-05
-8.33416e-06
-7.78695e-06
-5.83265e-06
-2.02642e-05
-7.51433e-06
-1.68336e-05
-1.12905e-05
-8.13889e-06
-1.08773e-05
-7.4753e-06
-7.05329e-06
-1.28712e-05
-3.52536e-08
-2.56709e-05
-2.20246e-07
-2.94477e-05
-8.44845e-08
-2.79121e-05
-7.9302e-07
-2.17999e-05
-2.22703e-06
-2.49138e-05
-3.03486e-06
-1.88948e-05
-3.11282e-06
-1.63378e-05
-1.55839e-06
-2.74145e-05
-1.66096e-06
-1.5042e-05
-2.82678e-06
-1.40139e-05
-2.69147e-06
-1.6138e-05
-4.31311e-06
-2.06904e-05
-5.06562e-06
-2.07593e-05
-5.09029e-06
-2.25642e-05
-5.81902e-06
-1.71165e-05
-4.31715e-06
-1.8216e-05
-1.01771e-05
-9.47325e-06
-4.72681e-06
-1.32373e-05
-1.31091e-05
-1.1882e-05
-1.63295e-05
-1.36131e-05
-1.26662e-05
-1.18022e-05
-5.36273e-06
-1.47788e-05
-5.63952e-06
-6.77651e-06
1.4775e-07
-2.58186e-05
3.27577e-07
-2.96275e-05
7.08067e-07
-2.82926e-05
5.25909e-07
-2.16178e-05
6.7441e-07
-2.50624e-05
-4.07187e-06
-1.41486e-05
-5.13451e-06
-1.52751e-05
-9.20255e-06
-2.33464e-05
-3.74606e-06
-2.04985e-05
1.01261e-06
-1.87726e-05
-2.08816e-06
-1.30372e-05
-3.22336e-06
-1.95552e-05
-4.29032e-06
-1.96923e-05
-5.32645e-06
-2.15281e-05
-4.94038e-06
-1.75026e-05
-6.75987e-06
-1.63965e-05
-1.31386e-06
-1.49193e-05
-2.11009e-06
-1.24411e-05
-6.09523e-06
-7.89684e-06
-7.13219e-06
-1.25762e-05
-6.48556e-06
-1.24489e-05
-1.4475e-05
-6.78932e-06
-1.26253e-05
-7.48925e-06
-3.40552e-07
-2.54781e-05
-5.02069e-07
-2.9466e-05
-1.05839e-06
-2.77363e-05
-1.94155e-06
-2.07346e-05
-5.28729e-06
-2.17166e-05
2.17471e-06
-2.16106e-05
8.8678e-07
-1.39872e-05
-2.54537e-07
-2.22051e-05
-6.88346e-07
-2.00647e-05
-1.14782e-07
-1.93462e-05
4.39218e-07
-1.35912e-05
-6.84337e-06
-1.22726e-05
-5.05137e-06
-2.14843e-05
-4.27904e-06
-2.23004e-05
-2.96881e-06
-1.88128e-05
-3.18877e-06
-1.61766e-05
-4.16729e-06
-1.39407e-05
-3.51026e-06
-1.30981e-05
-2.05431e-06
-9.35278e-06
-5.34566e-06
-9.28484e-06
-1.25559e-05
-5.23865e-06
-5.23015e-06
-1.4115e-05
-9.93703e-06
-7.91842e-06
-2.09784e-07
-2.52683e-05
-6.15141e-07
-2.90607e-05
-4.64846e-07
-2.78865e-05
-9.84002e-07
-2.02155e-05
-4.20879e-07
-2.22797e-05
1.26623e-06
-2.32977e-05
6.44659e-08
-1.27854e-05
-8.47909e-06
-1.36616e-05
-4.66017e-06
-2.38836e-05
-2.80861e-06
-2.11977e-05
-1.84774e-06
-1.45521e-05
-2.36223e-06
-1.17581e-05
-3.71104e-06
-2.01355e-05
-4.20979e-06
-2.18017e-05
-3.81699e-06
-1.92056e-05
-3.30731e-06
-1.66862e-05
-3.50916e-06
-1.37389e-05
-3.75173e-06
-1.28555e-05
-3.64802e-06
-9.45649e-06
-3.67062e-06
-9.26224e-06
-4.19567e-06
-4.71361e-06
-9.90658e-06
-8.40414e-06
-1.07763e-05
-9.06731e-06
-2.26803e-07
-2.50415e-05
-4.33164e-07
-2.88543e-05
8.84476e-07
-2.92042e-05
1.34324e-06
-2.06742e-05
-5.78391e-06
-1.51526e-05
-2.57879e-06
-2.65028e-05
-1.21961e-06
-1.41446e-05
-2.39078e-06
-1.24904e-05
-1.52306e-06
-2.47513e-05
-2.25585e-06
-2.04649e-05
-3.38157e-06
-1.34264e-05
-3.81384e-06
-1.13259e-05
-3.48431e-06
-2.04651e-05
-3.80421e-06
-2.14818e-05
-2.89803e-06
-2.01118e-05
-2.97941e-06
-1.66049e-05
-2.89249e-06
-1.38258e-05
-3.03715e-06
-1.27109e-05
-1.3966e-06
-1.1097e-05
-4.41037e-06
-6.24847e-06
-2.75236e-06
-6.37161e-06
-2.59815e-06
-8.55835e-06
-7.82412e-06
-5.55034e-06
-4.22033e-07
-2.46195e-05
-5.77267e-07
-2.86991e-05
-7.14533e-07
-2.90669e-05
8.22902e-08
-2.14711e-05
-1.73469e-06
-1.33356e-05