/*--------------------------------*- C++ -*----------------------------------*\
| =========                 |                                                 |
| \\      /  F ield         | foam-extend: Open Source CFD                    |
|  \\    /   O peration     | Version:     4.1                                |
|   \\  /    A nd           | Web:         http://www.foam-extend.org         |
|    \\/     M anipulation  |                                                 |
\*---------------------------------------------------------------------------*/
FoamFile
{
    version     2.0;
    format      ascii;
    class       volScalarField;
    location    "0.55";
    object      psi;
}
// * * * * * * * * * * * * * * * * * * * * * * * * * * * * * * * * * * * * * //

dimensions      [1 -1 -2 0 0 0 0];

internalField   nonuniform List<scalar> 
2268
(
-0.00206066
-0.0384948
-0.00643779
-0.010217
-0.0201974
-0.244871
-0.128718
-0.656133
-0.445381
-5.36664
-4.77837
-3.7716
-2.62051
-1.77415
-1.04834
-0.590663
-0.250524
-0.0798007
-0.0629433
-0.76989
-6.83115
-375.709
-898.134
-0.125777
-1.21721
-0.222218
-0.345392
-0.613257
-4.25697
-2.29554
-9.13839
-5.54141
-27.9561
-19.0594
-14.6006
-11.6727
-10.1578
-5.8524
-3.57152
-1.46475
-0.666019
-0.252775
-0.353048
-0.840643
-32.2665
-307.053
-3.44394
-17.8364
-3.52401
-5.42485
-9.35163
-36.7537
-21.1966
-56.8147
-31.2882
-62.4517
-69.5038
-68.3698
-72.8301
-59.0551
-24.461
-8.62874
-3.35547
-1.65137
-0.915187
-0.931718
-4.18039
-58.0422
-267.419
-52.7034
-158.514
-38.1727
-52.5878
-91.1825
-206.826
-123.693
-217.568
-113.308
-164.949
-210.603
-490.415
-385.996
-271.314
-161.677
-70.8307
-38.8771
-21.4685
-11
-3.86396
-6.09363
-48.651
-277.355
-458.445
-930.417
-266.615
-348.287
-568.881
-726.157
-560.522
-755.856
-395.698
-374.214
-770.847
-947.495
-744.468
-747.319
-574.31
-284.663
-160.483
-72.8746
-40.3906
-13.6338
-10.723
-41.5197
-284.58
-1985.22
-2740.81
-1239.37
-1450.99
-2030.61
-1939.64
-2539.74
-2057.88
-1160.44
-926.746
-1201.14
-1337.21
-1530.02
-1445.99
-1238.9
-739.687
-441.021
-206.538
-136.821
-58.5064
-24.7024
-48.1942
-317.363
-2617.35
78.4273
-2806.16
-2853.04
-2556.05
-2822.18
-1240.13
-2855.84
-2841.76
-2517.68
-2362.9
-2178.79
-2273.44
-1896.89
-1792.11
-1128.74
-802.754
-449.645
-359.835
-218.328
-95.7507
-66.9704
-278.388
-908.533
2705.42
-1276.7
-1142.36
843.826
-23.3006
2821.85
964.252
-670.65
-2641.22
-2845.12
-2741.54
-2716.59
-2668.31
-2422.32
-1430.48
-1090.96
-768.478
-777.663
-692.766
-514.042
-133.213
-283.62
2641.24
2491.33
2325.39
1948.79
1344.65
184.053
-392.725
-690.776
-768.277
-755.808
-540.754
-151.714
-52.4644
3.4996
-78.0038
711.018
987.972
2825.26
2849.68
2705.99
2852.07
2425.97
2208.23
2856.88
1282.47
-184.917
-924.652
-1110.14
-1098.56
-996.292
-1799.61
-2453.98
-2530.85
-2644.88
-2497.45
-2125.42
2243.4
2819.13
2797.13
2209.31
882.307
2457.31
2372.59
951.158
-197.79
-562.811
-641.83
-55.9025
2250.73
-840.259
-2398.51
-2554.58
-2725.19
-2625.06
-2262.53
1438.91
2674.6
2837.64
1630.26
205.665
493.325
2697.66
2431.59
1449.58
2733.8
-100.12
627.945
2835.73
1857.23
-1589.2
-2252.46
-2759.87
-2723.57
-2567.39
220.364
2478.17
2855.62
1509.47
379.044
252.723
484.811
2171.35
2473.65
1375.87
2832.01
2855.18
2857.73
2661.28
827.765
-1821.37
-2743.11
-2779.41
-2706.72
-1819.91
2029.3
2849.39
1308.41
452.894
773.482
466.348
559.21
462.937
782.403
2745.65
2845.33
2854.98
2847.27
2000.13
-1474.41
-2701.2
-2797.35
-2757.78
-2452.64
1196.08
2793.17
928.888
1050.51
1507.98
985.053
560.882
563.883
2776.87
1179.11
2629.08
2671.7
2762.7
1752.76
-1370.55
-2650.94
-2799.33
-2771.84
-2588.2
92.2361
2409.21
757.944
1885.04
2220.24
1170.26
1868.98
1813.21
1293.86
2839.11
2028.78
1285.52
1770.32
591.963
-1398.86
-2588.99
-2792.4
-2770.7
-2620.09
-397.8
313.981
2857.27
2604.45
1991.53
2849.11
2847.61
1955.38
2830.1
2659.18
928.529
-1110.06
-2549.51
-2108.26
-2453.27
-2849.61
-2470.81
-2275.86
-2210.26
-2273.51
-2646.97
-2688.86
-2106.51
-733.698
-1642.19
2857.1
1940.9
2597.33
2021.67
1942.17
1304.43
1778.71
1835.39
2796.1
2718.42
1577.99
1571.94
309.781
-1893.56
-2516.61
-2685.44
-2650.76
-2467.3
-1717.87
-1582.62
-2399.88
-2520.94
-1934.26
2764.44
1702.96
1153.52
1337
1287.58
982.999
1076.1
840.823
954.87
1511.23
2045.46
2652.82
2725.16
2023.37
80.346
-1053.04
-1174.08
-1037.84
-494.311
-562.554
-925.558
-2400.7
-846.209
2799.09
2016.08
749.012
988.368
864.306
738.612
705.754
455.693
429.646
570.236
934.798
2277.62
2580.05
2752.04
2848.26
2107.8
682.698
-37.8741
234.142
308.105
148.692
-752.814
-403.257
2708.35
1087.27
627.226
669.026
602.629
537.215
471.781
354.697
355.731
534.1
373.111
915.02
1236.88
1684.76
2207.73
2832.81
2824.06
2641.08
2659.21
2515.92
1975.01
1279.8
-40.9575
2490.41
298.141
380.056
443.489
375.477
388.015
370.199
293.477
278.404
447.096
207.214
543.525
1096.96
1714.59
2554.87
2780.69
2857.1
2856.05
2853.78
2720.28
2286.72
1865.3
2341.71
348.989
218.007
228.358
281.814
204.469
222.728
248.946
251.442
268.654
424.415
446.655
373.979
576.208
1435.17
2388.18
2402.59
1655.36
1076.32
1846.11
2733.87
2857.27
2800.92
157.836
148.02
170.35
150.813
176.791
120.039
143.429
154.661
195.212
189.231
465.149
833.981
263.344
214.078
271.708
841.059
1081.12
536.572
206.387
1027.88
1720.99
1407.41
1694.34
41.6518
39.3148
30.5997
73.2412
119.304
65.4775
79.6806
102.942
107.113
50.3046
281.883
828.903
414.803
171.806
194.483
400.023
221.765
134.228
74.6943
230.495
610.425
284.552
444.661
21.4976
16.6521
12.1073
24.5695
53.7077
40.5131
32.6367
51.6291
32.5559
13.1451
42.5904
524.792
227.894
90.1986
147.346
159.607
54.771
38.5208
35.0907
77.3801
152.692
113.441
176.44
10.6242
5.6218
3.90317
4.91088
11.4942
13.4625
11.2971
13.5218
4.21241
3.02909
29.6146
348.817
185.17
81.7534
106.825
61.4384
26.9126
23.55
18.1829
23.8828
27.4508
39.5127
72.9047
5.36763
2.10432
1.18145
0.665874
1.02252
2.14137
2.12072
1.24957
0.306833
1.17797
22.1655
245.099
104.697
39.9721
53.5683
27.2125
11.8672
13.8172
10.4833
7.30324
4.32893
9.07561
20.4951
2.39574
0.677699
0.539385
0.0327926
0.0519408
0.0727958
0.062891
0.0196236
0.0489371
1.47567
11.7727
174.278
60.5656
52.0502
23.0027
10.1401
7.54044
9.42839
5.28617
1.88789
0.470529
0.764219
2.99351
0.904776
0.17068
0.200686
0.00184283
0.00041539
0.00242805
0.00310258
0.00130972
0.0331651
1.53559
11.3151
296.525
24.3932
43.0989
14.304
5.02796
3.87304
3.91337
2.28254
0.655274
0.075114
0.0407805
0.16025
0.194991
0.0322285
0.0422329
0.000224389
1.89861e-05
0.00040736
0.000375427
0.000336991
0.0338451
0.971488
3.62968
52.6721
4.82682
4.70193
3.57225
1.64355
1.1187
0.74949
0.770287
0.471206
0.0195891
0.00875028
0.00679079
0.0548359
0.00870046
0.00961226
7.56281e-05
8.07024e-06
8.41558e-05
5.25658e-05
0.00027833
0.0599513
0.862005
1.4671
24.4533
1.90742
1.63341
0.488885
0.10562
0.0796201
0.044417
0.0456582
0.022721
0.00240073
0.0019067
0.00477697
0.00731083
0.0016275
0.00199943
3.902e-05
2.0646e-06
8.91368e-06
5.67345e-06
0.000305178
0.00314412
0.0425198
0.396688
1.70312
0.120205
0.101858
0.066187
0.00324376
0.00438711
0.00100565
0.00092296
0.000616604
0.000318044
0.000193107
0.000695833
0.000867735
0.000345936
0.000432487
2.02728e-05
2.50143e-07
1.14813e-06
2.2809e-06
7.32881e-05
0.00153082
0.0262111
0.204195
0.245605
0.0034765
0.00269553
0.00610752
0.000304836
0.000156664
8.71592e-05
6.30685e-05
4.97014e-05
3.30911e-05
3.51535e-05
9.62188e-05
4.47287e-06
1.09432e-05
9.20487e-05
8.56994e-06
6.60057e-08
1.43253e-07
2.61908e-07
1.52121e-06
1.19978e-05
3.67241e-05
6.89832e-05
0.000137879
4.27015e-05
7.1033e-05
0.000134717
0.000184903
5.07426e-05
1.63819e-05
5.92866e-06
3.55081e-06
2.06139e-06
4.56531e-06
1.0653e-05
4.12521e-07
1.16489e-06
2.11664e-05
2.28961e-06
9.57808e-09
1.21235e-08
2.05599e-08
1.11791e-07
2.68144e-07
2.84527e-07
5.35248e-07
1.53497e-06
1.99601e-06
4.3753e-06
7.13156e-06
8.12363e-06
6.83823e-06
2.2197e-06
6.72622e-07
3.21151e-07
1.92134e-07
4.14776e-07
6.3216e-07
3.92792e-08
3.94044e-08
4.88334e-08
1.39718e-09
9.28592e-10
5.63882e-10
4.24187e-09
2.28938e-08
7.28842e-08
3.49009e-08
2.01024e-08
6.35069e-08
9.06015e-08
1.67676e-07
2.46316e-07
1.94636e-07
1.37204e-07
6.21315e-08
3.20522e-08
1.0028e-08
1.05283e-08
2.71374e-08
6.00019e-08
5.35964e-09
1.64605e-10
1.38606e-09
3.38331e-10
4.05635e-10
2.71939e-10
4.58384e-10
2.65299e-09
6.81846e-09
6.32735e-09
4.1836e-10
6.61183e-10
1.73438e-09
2.68387e-09
5.98804e-09
1.19971e-08
1.75841e-08
4.93763e-09
4.0045e-09
6.5938e-10
1.18871e-09
4.42196e-09
7.34597e-09
7.9126e-10
-3.65618e-10
2.7012e-10
2.60115e-10
3.52884e-10
2.7012e-10
2.90129e-10
2.57386e-10
2.8376e-10
3.18321e-10
2.61934e-10
3.2469e-10
3.61069e-10
3.5925e-10
4.03814e-10
9.41324e-10
1.035e-09
4.32009e-10
1.99178e-10
6.09359e-11
1.23691e-10
2.98313e-10
1.06502e-09
1.9827e-10
-4.54748e-10
3.14685e-10
3.01952e-10
3.34694e-10
3.54703e-10
2.94676e-10
2.49202e-10
3.4288e-10
3.47427e-10
2.83762e-10
3.21052e-10
3.03771e-10
2.24645e-10
2.37378e-10
2.93767e-10
2.43744e-10
1.80989e-10
1.53705e-10
8.2764e-11
6.45741e-11
1.66437e-10
5.47516e-10
2.02817e-10
-2.67392e-10
3.14685e-10
2.61934e-10
3.69255e-10
4.18368e-10
2.5102e-10
2.27374e-10
2.7012e-10
3.00133e-10
3.20142e-10
3.46517e-10
3.83807e-10
3.00133e-10
2.49202e-10
2.41926e-10
2.22826e-10
1.56433e-10
1.51886e-10
1.27329e-10
9.91349e-11
1.38243e-10
4.97494e-10
1.50067e-10
-4.64752e-10
3.21052e-10
2.90129e-10
3.67436e-10
3.91083e-10
3.20142e-10
1.89175e-10
2.63753e-10
3.16504e-10
2.61934e-10
3.26509e-10
3.87445e-10
3.03771e-10
2.80124e-10
3.14685e-10
2.25555e-10
1.54614e-10
1.38243e-10
1.27329e-10
1.48248e-10
1.30058e-10
4.00178e-10
2.55568e-10
-4.74757e-10
3.4288e-10
3.5925e-10
2.77396e-10
3.72893e-10
3.46518e-10
2.17369e-10
2.39197e-10
3.32875e-10
2.83762e-10
4.00178e-10
3.11957e-10
2.83762e-10
2.11003e-10
3.32875e-10
2.65572e-10
1.36424e-10
1.31877e-10
1.41881e-10
1.30058e-10
1.38243e-10
4.94765e-10
1.84628e-10
-4.62024e-10
3.34694e-10
3.065e-10
3.20142e-10
3.5925e-10
2.8831e-10
2.93767e-10
2.81943e-10
3.46518e-10
3.26509e-10
3.46517e-10
3.52884e-10
3.28328e-10
3.22871e-10
3.36513e-10
3.20142e-10
2.17369e-10
1.96451e-10
1.27329e-10
8.91305e-11
5.09315e-11
4.502e-10
1.76442e-10
-4.09273e-10
3.81079e-10
3.14685e-10
2.67391e-10
2.77396e-10
3.67436e-10
3.12866e-10
2.49202e-10
3.14685e-10
3.18323e-10
3.4288e-10
3.82897e-10
3.67436e-10
3.82897e-10
2.8831e-10
3.64707e-10
2.51021e-10
2.00998e-10
1.03682e-10
6.45741e-11
3.45607e-11
3.93811e-10
1.10049e-10
-4.28372e-10
3.75622e-10
2.47382e-10
2.8831e-10
2.67391e-10
3.38332e-10
3.21052e-10
2.07365e-10
3.49246e-10
3.4288e-10
3.04681e-10
3.91992e-10
3.34694e-10
3.51065e-10
3.54703e-10
3.2469e-10
3.39242e-10
1.94632e-10
9.54969e-11
9.09495e-11
3.27417e-11
4.43834e-10
4.45654e-11
-4.3201e-10
3.04681e-10
2.59206e-10
2.7012e-10
1.90994e-10
3.14685e-10
3.57431e-10
2.32831e-10
4.05635e-10
3.00133e-10
3.065e-10
3.46517e-10
3.10138e-10
3.82897e-10
2.5102e-10
3.89264e-10
2.90129e-10
1.99179e-10
9.09494e-11
1.58252e-10
3.27416e-11
4.76576e-10
-3.63788e-12
-3.36513e-10
2.1555e-10
3.36513e-10
2.25555e-10
2.65572e-10
2.85581e-10
3.69255e-10
2.27374e-10
4.35648e-10
3.34694e-10
3.065e-10
3.2469e-10
3.11957e-10
2.90129e-10
3.71074e-10
3.9563e-10
2.75577e-10
2.02817e-10
9.54969e-11
6.45741e-11
5.9117e-11
4.78395e-10
-2.63752e-11
-3.52884e-10
1.94632e-10
2.11003e-10
2.3374e-10
2.17369e-10
3.2469e-10
2.41926e-10
2.17369e-10
3.44699e-10
2.96495e-10
3.14685e-10
2.8831e-10
2.32831e-10
2.17369e-10
3.28328e-10
2.55568e-10
3.20142e-10
3.20142e-10
2.1555e-10
6.45741e-11
6.0936e-11
5.70254e-10
-4.63841e-11
-3.4288e-10
2.04636e-10
1.86446e-10
1.437e-10
2.65572e-10
2.61934e-10
2.25555e-10
1.64618e-10
2.45564e-10
2.75577e-10
3.11957e-10
2.17369e-10
1.21872e-10
1.05501e-10
3.46518e-10
2.67391e-10
3.10138e-10
2.80124e-10
1.8008e-10
9.09495e-11
5.7298e-11
5.19322e-10
-3.00132e-11
-3.32875e-10
1.72804e-10
1.80989e-10
1.92813e-10
3.49246e-10
3.01952e-10
1.84627e-10
1.92813e-10
1.8008e-10
2.3374e-10
2.8831e-10
1.58252e-10
4.00177e-11
8.0945e-11
1.9827e-10
9.91347e-11
3.64708e-10
2.02817e-10
2.32831e-10
6.45741e-11
4.09271e-11
4.23825e-10
-3.27417e-11
-2.90129e-10
2.5193e-10
1.50067e-10
2.24645e-10
2.85581e-10
1.36424e-10
1.19144e-10
1.54614e-10
1.54614e-10
2.37378e-10
2.09184e-10
1.46429e-10
1.628e-10
1.56433e-10
1.60071e-10
1.27329e-10
1.86446e-10
1.31877e-10
2.22826e-10
1.21872e-10
2.81941e-11
4.6839e-10
-3.63797e-11
-2.31012e-10
3.65617e-10
2.53749e-10
1.58252e-10
2.78305e-10
1.80989e-10
5.09316e-11
5.72981e-11
1.23691e-10
1.33696e-10
1.58252e-10
8.54924e-11
2.67392e-10
3.09226e-11
1.30058e-10
1.27329e-10
1.628e-10
9.91349e-11
1.628e-10
9.73159e-11
9.27684e-11
5.07498e-10
-8.2764e-11
-1.54614e-10
4.64752e-10
2.80124e-10
1.53704e-10
2.94676e-10
1.80989e-10
9.36779e-11
1.01863e-10
1.09139e-10
1.50067e-10
1.50067e-10
1.21872e-10
2.57387e-10
2.25555e-10
2.00998e-10
1.36424e-10
1.80989e-10
1.628e-10
1.11868e-10
1.10049e-10
3.00131e-11
4.74757e-10
-9.5497e-11
-4.91129e-11
5.67525e-10
3.22871e-10
2.24645e-10
4.09273e-10
9.54968e-11
1.28239e-10
2.55568e-10
1.88265e-10
1.74623e-10
1.10049e-10
1.8008e-10
3.41061e-10
2.31012e-10
2.5193e-10
1.68256e-10
3.04681e-10
1.9827e-10
1.56433e-10
1.60071e-10
1.28239e-10
4.33829e-10
-3.27418e-11
1.2551e-10
6.55746e-10
4.99313e-10
3.56522e-10
5.52063e-10
2.45563e-10
1.99179e-10
3.21052e-10
1.89175e-10
3.34694e-10
1.54614e-10
1.56433e-10
4.60205e-10
2.90129e-10
2.57387e-10
3.64707e-10
3.99268e-10
2.73758e-10
2.90129e-10
2.78305e-10
2.55568e-10
2.49202e-10
-8.91306e-11
2.32831e-10
8.21274e-10
6.4756e-10
4.81123e-10
5.78439e-10
3.71074e-10
3.87445e-10
4.28372e-10
3.20142e-10
4.00178e-10
4.07454e-10
3.31056e-10
4.502e-10
4.18368e-10
3.91992e-10
4.54747e-10
5.5752e-10
4.89308e-10
4.94765e-10
2.49201e-10
3.99268e-10
-9.27687e-11
-6.27552e-11
3.14685e-10
9.24956e-10
6.97582e-10
5.31145e-10
5.27507e-10
3.65617e-10
4.07454e-10
4.54747e-10
4.38376e-10
4.88399e-10
4.1382e-10
4.62023e-10
4.42014e-10
5.09317e-10
4.20187e-10
5.14774e-10
5.05679e-10
5.86624e-10
4.91127e-10
4.94765e-10
4.6839e-10
-1.71895e-10
-702.557
-703.531
-2457.18
2291.52
-1638.24
-951.004
-1537.61
-2417.98
-2857.69
-2516.86
-2139.67
-2040.21
-1624.65
-2262.95
-2805.48
-2751.21
618.936
50.8687
-811.233
-2022.31
1570.61
1304.37
918.182
258.558
2818.17
2796.59
2702.54
2346.8
1473.07
1538.72
2256.52
2468.4
629.269
905.883
1119.65
1189.9
252.922
357.617
492.2
560.639
94.1367
63.2919
116.329
151.079
16.8377
9.53768
12.6379
15.4333
1.34117
1.18789
2.15801
4.29567
0.137435
0.305437
0.365531
0.825351
0.0082931
0.0193959
0.0391556
0.0895871
0.000782777
0.00148997
0.00249758
0.00402333
0.000223854
0.000435894
0.000745172
0.00132193
3.91521e-05
6.24223e-05
0.0001102
0.00022482
6.32312e-06
1.58176e-05
2.33139e-05
3.80773e-05
7.65475e-07
9.20536e-07
1.0071e-06
1.00865e-06
8.66174e-08
6.46374e-08
1.40815e-07
2.19531e-07
9.92438e-09
1.48375e-08
2.67236e-08
4.38066e-08
1.33241e-09
2.27191e-09
3.6498e-09
5.08588e-09
1.2551e-10
1.03681e-10
3.99267e-10
5.65703e-10
8.27637e-11
5.27505e-11
1.48248e-10
1.86446e-10
1.19144e-10
6.6393e-11
1.01863e-10
1.74623e-10
6.27548e-11
-6.36688e-12
1.94632e-10
1.86447e-10
5.27503e-11
5.63886e-11
1.70076e-10
1.40062e-10
2.18276e-11
-2.63758e-11
1.92813e-10
4.6384e-11
4.27459e-11
4.09272e-11
8.91306e-11
5.63886e-11
3.81985e-11
-3.27421e-11
8.27641e-11
1.00954e-10
2.00085e-11
-1.36426e-11
9.54971e-11
1.10049e-10
5.09314e-11
-4.27466e-11
1.05502e-10
6.91216e-11
8.27638e-11
-4.27467e-11
1.41881e-10
8.91305e-11
7.54879e-11
-4.91132e-11
2.04637e-10
8.91305e-11
-1.36427e-11
-1.74624e-10
7.54884e-11
1.00954e-10
1.33696e-10
-1.31877e-10
1.819e-11
8.91307e-11
1.05501e-10
-5.91175e-11
5.09318e-11
1.20053e-10
1.35515e-10
-3.27421e-11
-4.27468e-11
2.57388e-10
1.30058e-10
7.54879e-11
1.84628e-10
2.37378e-10
2.63755e-11
-1.63713e-11
2.27374e-10
1.09139e-10
-1.00043e-11
-3.63799e-11
-2.00089e-11
-7.27599e-11
2444.57
2694.39
2852.46
2782.28
2850.89
2806.63
2696.4
2854.52
2267.12
2205.52
1115.13
831.147
-62.0366
-1337.29
-2454.35
-2774.93
-2758.28
-2622.85
-1001.56
-2620.58
-2655.89
-2822.2
-2327.73
-2851.61
-2765.11
-2761.91
-2857.6
-2789.5
-2857.65
-2851.46
-2786.01
-2837.39
-2784.88
-2730.75
-2792.81
-2757.46
-2581.48
-1202.83
-1803.18
-1709.52
-1738.33
-1742.1
-1733.68
-1761.98
-1821.32
-1905.26
-2219.75
-2846.63
-2345.71
179.925
408.61
891.024
811.464
45.2918
-1605.82
-2244.83
-1577.33
-2524.11
-2380.9
-2230.18
-1903.22
-1700.04
-1732.95
-2006.78
-2648.97
-1763.98
629.904
2357.52
2852.95
2854.19
2857.66
2838.25
2065.17
-655.375
-1995.26
-1715.85
-2661.54
-2810.7
-2733.16
-2386.18
-2511.21
-2538.25
-2767.7
-2383.55
1917.48
2813.3
2544.96
2503.69
2509.24
2569.87
2663.21
2326.19
-336.052
-1924.17
-1726.87
-862.056
-620.138
-1676.26
-1366.78
-572.86
-2186.52
-2629.07
-1850.57
2120.57
2592.61
2089.98
1898.36
1941.26
2005.53
2110.83
2783.22
667.357
-1913.13
-1710.41
2241.98
2834.34
2807.59
2853.21
2765.18
398.668
-597.06
800.136
2832.51
1751.22
1458.71
1214.08
1220.53
1320.72
1746.82
2788.68
1449.19
-1851.62
-1653.98
2072.21
1983.19
2819.2
2839.49
2843.1
1818.34
1736.51
2840.31
1575
851.616
965.808
832.939
622.88
808.631
1234.22
2455.99
2110.47
-1755.56
-1540.15
1175.99
2032.74
2791.66
2384.48
2853.72
2348.26
2857.23
1683.9
501.763
374.555
639.333
678.388
465.944
572.203
1244.83
2374.08
2175.43
-1572.21
-1354.39
569.591
1037.27
2282.33
1761.96
2151.4
2681.13
2257.77
1108.96
303.425
145.981
333.438
572.294
395.695
572.102
1119.63
2056.69
2240.32
-1217.9
-1084.68
137.898
462.467
894.481
600.03
869.976
981.356
569.456
183.36
60.592
77.6167
206.336
265.176
322.406
599.299
1265.29
2417.76
2395.49
-647.221
-724.892
28.2321
129.295
111.438
66.0668
201.47
218.75
52.7274
27.9953
29.5739
78.765
143.833
206.296
297.026
685.342
1317.12
2493.04
2520.68
99.8912
-303.003
8.12396
25.2089
10.5326
13.5028
26.9524
14.9902
8.77271
25.3719
46.9853
88.8837
172.058
299.459
482.863
1074.16
1743.49
2621.91
2586.85
647.452
61.5667
1.84927
2.06188
0.771214
2.11859
3.60629
3.66726
9.22387
19.5892
31.8219
59.2703
169.45
496.254
1029.26
1736.54
2313.36
2820.99
2595.84
1038.32
317.718
0.131551
0.14647
0.0876807
0.314296
0.829735
2.01528
5.7919
12.0052
20.1815
35.9474
78.8076
199.99
393.909
980.389
1771.11
2848.24
2424.9
1226.04
474.924
0.00634262
0.0136143
0.0377597
0.0961848
0.370371
1.04507
3.05603
8.71367
17.4803
26.8722
34.6988
63.4904
105.793
235.237
973.38
2655.07
2334.15
1264.9
576.259
0.00243097
0.00486478
0.0121488
0.0230966
0.0766742
0.193119
0.773701
3.3286
10.5687
16.0694
16.3034
42.5156
64.0683
76.6327
384.737
1752.74
2707.51
1326.33
670.933
0.000443659
0.00081867
0.00210118
0.0043897
0.0136786
0.0303671
0.153389
0.636297
2.59517
4.98513
5.39477
14.1978
33.1936
68.584
102.219
535.685
2180.8
2302.81
890.645
6.61064e-05
0.000149482
0.000319005
0.00177898
0.00503784
0.0143757
0.0492314
0.154409
0.494535
1.51336
1.60909
2.92303
15.0162
70.0373
73.8153
157.878
728.412
2696.55
1025.5
2.82501e-06
2.05691e-05
8.65903e-05
0.000628008
0.00206889
0.00702622
0.0223088
0.0587553
0.149872
0.425062
0.603462
1.46307
6.94138
49.2852
72.8093
151.652
565.536
2375.62
1026.6
9.50882e-07
4.30104e-06
2.44024e-05
0.000136338
0.000542817
0.00272597
0.00888265
0.0245113
0.0647819
0.157484
0.348429
0.800644
5.11064
34.704
79.489
190.797
575.151
2107.06
1101.95
1.45329e-07
7.5378e-07
3.73409e-06
1.77735e-05
8.19972e-05
0.000451179
0.00142403
0.00545651
0.0176412
0.0320614
0.0896311
0.207983
1.92705
24.6293
87.6859
206.73
531.258
2080.8
1277.29
1.58579e-08
1.06438e-07
7.39122e-07
3.82912e-06
1.6377e-05
7.23122e-05
0.000153632
0.000872687
0.00328572
0.00375775
0.0204653
0.546554
3.3051
18.6611
85.7665
178.973
386.306
2167.56
1403.05
2.10366e-09
1.2923e-08
6.21401e-08
2.4728e-07
1.35887e-06
6.31481e-06
3.20437e-05
0.000198143
0.00151945
0.0153317
0.186416
1.75274
8.01725
31.6846
93.6502
153.927
473.546
2413.16
1453.31
1.98269e-10
1.65528e-09
9.31138e-09
5.48224e-08
2.99914e-07
1.18649e-06
5.95451e-06
2.85907e-05
0.000303436
0.0039717
0.0602056
0.611652
5.21079
33.5108
100.929
199.311
1012.03
2722.76
1495.79
-7.27599e-11
5.3933e-10
1.22963e-09
8.14723e-09
6.383e-08
4.16473e-07
3.39172e-06
5.02184e-05
0.000474873
0.00591073
0.0446207
0.336328
2.5293
21.7316
95.7254
300.023
1189.02
2792.32
1573.65
3.81987e-11
3.00133e-10
2.8649e-10
1.31422e-09
1.16206e-08
1.82636e-07
3.73316e-06
7.29913e-05
0.00113265
0.0122513
0.0788469
0.461285
2.84741
17.257
94.9575
321.234
1214.56
2781.45
1731.83
5.63886e-11
2.61935e-10
2.49202e-10
2.45563e-10
1.25601e-09
1.49856e-08
3.68138e-07
1.04127e-05
0.000218495
0.00594957
0.0711386
0.531563
2.51709
12.5165
74.646
317.554
1206.83
2743.71
1959.31
8.0945e-11
2.49202e-10
2.43745e-10
2.41926e-10
6.10268e-10
1.05028e-08
2.09128e-07
3.58909e-06
7.9974e-05
0.00100613
0.0443627
0.488109
3.24516
13.1656
63.7391
313.597
1214.26
2728.37
2194.22
3.00132e-11
2.55568e-10
2.43745e-10
1.31877e-10
2.09183e-10
2.91491e-09
7.81267e-08
2.77443e-06
4.11396e-05
0.000695203
0.0086754
0.0923632
1.32158
7.44164
41.1303
232.451
1099.63
2702.09
2429.86
6.45741e-11
2.35559e-10
1.71894e-10
2.02817e-10
4.22003e-10
7.64245e-09
1.29607e-07
1.83585e-06
6.87467e-05
0.000411416
0.00365328
0.0650385
0.351844
2.34732
12.738
99.8291
726.318
2454.08
2709.72
-4.63844e-11
1.72804e-10
8.36734e-11
2.07364e-10
1.85445e-09
3.05289e-08
5.70814e-07
7.28393e-06
0.000231297
0.000887459
0.00408319
0.0503042
0.214246
0.841421
2.97017
22.0295
276.31
1398.04
2832.24
-6.91217e-11
2.11003e-10
5.45695e-11
4.15638e-10
5.06132e-09
8.28347e-08
1.05894e-06
1.56762e-05
0.000452871
0.00262129
0.0160701
0.213581
1.40653
4.70361
3.2689
5.35295
84.0705
355.67
2211.26
-4.00179e-11
2.12822e-10
1.88265e-10
8.45829e-10
6.89122e-09
1.14297e-07
1.31886e-06
2.12271e-05
0.000591637
0.00686185
0.0376299
0.338004
3.32799
14.2061
9.56313
6.02413
26.5186
50.8481
1552.03
-8.91307e-11
2.85581e-10
2.37378e-10
3.85625e-10
1.93175e-09
4.51106e-08
1.46387e-06
3.30961e-05
0.000755553
0.00953294
0.0756375
0.406853
2.35789
16.488
18.5315
8.67896
18.1803
540.52
1427.09
-5.91173e-11
2.71939e-10
2.5193e-10
5.42057e-10
7.10223e-09
1.00005e-07
2.72451e-06
4.41519e-05
0.000901538
0.00889835
0.0928768
0.528005
3.28836
17.5693
20.8857
10.6162
18.7476
384.758
1283.38
-6.63933e-11
2.57387e-10
2.22826e-10
2.19188e-10
1.83806e-09
1.19389e-07
1.08381e-06
3.30865e-05
0.00104813
0.00490903
0.0437637
0.402648
3.8986
25.363
24.9192
14.3943
21.5681
348.957
1245.38
-4.27464e-11
2.41016e-10
2.06455e-10
2.31012e-10
4.12e-10
3.17044e-09
7.85695e-08
2.17771e-06
2.39603e-05
0.000540106
0.015711
0.163351
1.53563
30.7909
27.4558
16.1038
23.5525
311.34
1191.93
4.09271e-11
1.68257e-10
6.45741e-11
1.2551e-10
3.89262e-10
7.42509e-09
1.19123e-07
1.73897e-06
1.21798e-05
0.000392527
0.0118867
0.0552202
0.405139
7.60578
24.6211
15.5127
22.5333
253.637
1114.21
1.76442e-10
3.10138e-10
-2.27375e-11
7.27596e-11
1.60071e-10
7.00305e-10
1.74013e-08
2.02048e-07
2.81009e-06
0.000114188
0.00317049
0.00639067
0.0456211
0.542959
21.8695
16.2958
21.2278
183.121
992.783
4.62933e-10
1.99179e-10
-1.15506e-10
2.00089e-11
4.54736e-12
1.63706e-11
3.27333e-11
1.24536e-08
6.48205e-08
9.1163e-07
7.95956e-05
0.000120054
0.001247
0.0090667
2.28787
11.7812
18.3623
80.9896
794.272
2.04636e-10
3.91992e-10
-9.27686e-11
1.56433e-10
1.96451e-10
1.9827e-10
1.11868e-10
4.00129e-11
4.29001e-09
2.22258e-07
1.30074e-06
3.25974e-05
0.00023601
0.001175
0.00795314
3.79158
11.8037
21.5149
389.183
)
;

boundaryField
{
    leftWall
    {
        type            zeroGradient;
    }
    rightWall
    {
        type            zeroGradient;
    }
    lowerWall
    {
        type            zeroGradient;
    }
    atmosphere
    {
        type            zeroGradient;
    }
    defaultFaces
    {
        type            empty;
    }
}


// ************************************************************************* //
