/*--------------------------------*- C++ -*----------------------------------*\
| =========                 |                                                 |
| \\      /  F ield         | foam-extend: Open Source CFD                    |
|  \\    /   O peration     | Version:     4.1                                |
|   \\  /    A nd           | Web:         http://www.foam-extend.org         |
|    \\/     M anipulation  |                                                 |
\*---------------------------------------------------------------------------*/
FoamFile
{
    version     2.0;
    format      ascii;
    class       volVectorField;
    location    "0.55";
    object      U;
}
// * * * * * * * * * * * * * * * * * * * * * * * * * * * * * * * * * * * * * //

dimensions      [0 1 -1 0 0 0 0];

internalField   nonuniform List<vector> 
2268
(
(-0.0041603 -0.0308789 0)
(0.235546 -0.0270696 0)
(0.30289 -0.00754074 0)
(0.352016 -0.00988456 0)
(0.398706 -0.00589635 0)
(0.441931 -0.00479022 0)
(0.431155 0.0036081 0)
(0.465872 0.000327198 0)
(0.538933 0.0110538 0)
(0.426503 -0.0191708 0)
(0.275168 0.024509 0)
(0.29622 0.0137719 0)
(0.270043 0.0153935 0)
(0.241937 0.0258166 0)
(0.259571 0.0619918 0)
(0.323545 -0.0101904 0)
(0.317539 0.00600739 0)
(0.266073 0.051873 0)
(0.129002 0.0426772 0)
(0.0864251 -0.024306 0)
(-0.0755323 -0.0426226 0)
(0.0711494 -0.00390952 0)
(-0.0774455 -0.0466335 0)
(0.00362505 -0.0713045 0)
(0.250282 -0.0600782 0)
(0.316351 -0.00616615 0)
(0.354147 -0.0170564 0)
(0.406008 -0.0160801 0)
(0.455135 -0.00105796 0)
(0.436144 -0.0144711 0)
(0.480157 -0.0312985 0)
(0.56724 0.00782775 0)
(0.399032 -0.0755453 0)
(0.276477 0.0573113 0)
(0.29011 0.00881629 0)
(0.266408 0.0112668 0)
(0.26192 -0.0116189 0)
(0.256115 0.0321345 0)
(0.269313 0.00162335 0)
(0.299193 0.00460515 0)
(0.248239 -0.00604989 0)
(0.175439 0.0417373 0)
(0.17802 0.0675338 0)
(0.154227 0.0486412 0)
(0.115085 0.00308628 0)
(0.128697 0.0434577 0)
(0.0272264 -0.141107 0)
(0.278329 -0.11895 0)
(0.33832 -0.0181811 0)
(0.349722 -0.0360071 0)
(0.410991 -0.0309575 0)
(0.467473 -0.00880046 0)
(0.446392 -0.00909023 0)
(0.530093 -0.0376821 0)
(0.563013 0.0300938 0)
(0.417579 -0.0769788 0)
(0.246194 0.00981553 0)
(0.186671 0.0592469 0)
(0.168195 0.0133987 0)
(0.161006 0.0501451 0)
(0.21329 0.0564959 0)
(0.271741 0.095105 0)
(0.294667 0.0332348 0)
(0.22351 -0.0173537 0)
(0.145597 0.0290148 0)
(0.139738 0.0454393 0)
(0.112572 0.0285548 0)
(0.0884462 0.00954533 0)
(0.124139 0.0693815 0)
(0.0607556 -0.199398 0)
(0.321952 -0.147184 0)
(0.375957 -0.00705175 0)
(0.352318 -0.0377401 0)
(0.420357 -0.0451452 0)
(0.518919 -0.00675475 0)
(0.488557 -0.038809 0)
(0.594747 -0.0620147 0)
(0.59273 0.104339 0)
(0.39442 -0.00376376 0)
(0.231058 0.0343362 0)
(0.175697 0.018154 0)
(0.149629 0.0432137 0)
(0.186257 0.0329595 0)
(0.184062 0.0590163 0)
(0.216086 0.061283 0)
(0.230195 0.0267991 0)
(0.222501 0.0289588 0)
(0.167008 0.0120745 0)
(0.147731 0.0354002 0)
(0.124403 0.0268931 0)
(0.102249 0.0487995 0)
(0.135763 0.0918742 0)
(0.0598557 -0.338293 0)
(0.361467 -0.229791 0)
(0.394766 -0.00802451 0)
(0.35811 -0.0530217 0)
(0.452385 -0.0741 0)
(0.562046 -0.0197848 0)
(0.526657 -0.019538 0)
(0.661759 -0.101884 0)
(0.624459 0.117666 0)
(0.399988 0.0257512 0)
(0.235818 0.0281552 0)
(0.182909 0.041487 0)
(0.159357 0.0523347 0)
(0.154349 -0.0291025 0)
(0.181252 0.0241129 0)
(0.141317 0.0658979 0)
(0.15291 0.0143303 0)
(0.139423 0.018337 0)
(0.124474 0.0435993 0)
(0.131533 0.0611116 0)
(0.125809 0.0504251 0)
(0.111195 0.0609263 0)
(0.15174 0.125475 0)
(0.0272944 -0.275405 0)
(0.392878 -0.25951 0)
(0.433003 0.0189778 0)
(0.362188 -0.0569133 0)
(0.464654 -0.0989862 0)
(0.604438 -0.0168665 0)
(0.50169 -0.103411 0)
(0.639964 -0.0515565 0)
(0.67026 0.0885441 0)
(0.480746 0.136823 0)
(0.372973 0.00515282 0)
(0.285111 0.110334 0)
(0.175766 0.000895989 0)
(0.205849 0.000637539 0)
(0.246663 0.0176354 0)
(0.187877 0.0760307 0)
(0.126449 0.0349754 0)
(0.139831 0.0399706 0)
(0.12214 0.0579612 0)
(0.120357 0.0442997 0)
(0.126643 0.0331434 0)
(0.129518 0.105869 0)
(0.158076 0.151666 0)
(-0.183486 -0.214032 0)
(0.277079 -0.346175 0)
(0.387173 0.0359766 0)
(0.239024 -0.0649083 0)
(0.365578 -0.131256 0)
(0.601781 -0.0329803 0)
(0.500897 -0.241571 0)
(0.763064 0.0446737 0)
(0.717964 -0.0436347 0)
(0.469175 0.108211 0)
(0.405307 0.0927084 0)
(0.289234 0.148767 0)
(0.0997684 0.0667103 0)
(0.207431 0.0789644 0)
(0.219081 -0.06378 0)
(0.165574 0.0623263 0)
(0.13364 0.0391733 0)
(0.129948 0.0950289 0)
(0.108748 0.0653795 0)
(0.113329 0.0598895 0)
(0.157611 0.0455444 0)
(0.152811 0.103461 0)
(0.182285 0.198666 0)
(-0.233102 -0.231874 0)
(0.0748394 -0.492912 0)
(0.138814 0.102188 0)
(-0.105923 -0.0635517 0)
(0.0103271 -0.203357 0)
(0.191011 -0.0411336 0)
(0.269164 -0.390348 0)
(0.696863 -0.127387 0)
(0.572051 -0.0459003 0)
(0.27354 0.231749 0)
(0.211985 0.229744 0)
(0.177343 0.160428 0)
(0.00271115 0.0803646 0)
(0.110704 0.00737683 0)
(0.178415 0.0206613 0)
(0.107528 0.103533 0)
(0.0265405 0.0175275 0)
(0.0770727 0.0609497 0)
(0.0273747 0.0617975 0)
(0.0594551 0.0221027 0)
(0.157761 0.00660604 0)
(0.243525 0.114578 0)
(0.167189 0.306146 0)
(-0.564762 0.169351 0)
(-0.67797 -0.0452477 0)
(-0.880714 -0.00899747 0)
(-0.998255 -0.0271394 0)
(-0.952088 -0.0726177 0)
(-0.889388 -0.0406855 0)
(-0.924921 -0.00811515 0)
(-1.31351 -0.18413 0)
(-1.52939 -0.0449916 0)
(-1.34495 0.00103552 0)
(-1.33064 -0.133069 0)
(-1.32446 0.155359 0)
(-1.12823 -0.0304433 0)
(-1.1009 -0.0249637 0)
(-0.863868 -0.0666453 0)
(-0.54082 -0.147246 0)
(-0.157765 -0.155437 0)
(0.300912 -0.00822248 0)
(0.0670803 0.0265721 0)
(-0.493577 0.370277 0)
(-0.344565 0.176542 0)
(-0.316779 0.0999906 0)
(-0.241924 0.0726526 0)
(-0.288857 0.0165795 0)
(-0.451494 0.0546392 0)
(-0.747574 0.123078 0)
(-1.19469 -0.107567 0)
(-1.4665 0.138836 0)
(-1.32405 0.220686 0)
(-1.15795 -0.105369 0)
(-1.22524 0.113743 0)
(-0.764988 -0.0468316 0)
(-0.565882 -0.0374741 0)
(-0.473701 -0.216064 0)
(-0.203402 -0.138639 0)
(-0.0576304 -0.254357 0)
(0.0874103 -0.0848699 0)
(0.148671 0.102248 0)
(-0.411721 0.833178 0)
(-0.197452 0.303497 0)
(-0.277984 -0.0555873 0)
(-0.623075 -0.0893823 0)
(-0.461567 0.132548 0)
(-0.390085 0.122825 0)
(-0.702471 0.0494076 0)
(-0.906183 -0.00698354 0)
(-1.01665 0.165092 0)
(-0.931458 0.264037 0)
(-0.362919 -0.414549 0)
(-0.641265 -0.279681 0)
(-0.663027 0.10456 0)
(-0.297157 -0.161795 0)
(-0.244439 -0.329721 0)
(-0.125711 -0.234969 0)
(-0.0907083 -0.263483 0)
(-0.270595 -0.0892827 0)
(0.0840955 0.0898943 0)
(-0.352235 0.823156 0)
(0.187563 0.304411 0)
(-0.252117 0.120348 0)
(-0.19784 0.089133 0)
(-0.0837462 0.1255 0)
(0.102157 0.146375 0)
(-0.418923 0.230116 0)
(0.446733 -0.0214932 0)
(-0.646799 0.196112 0)
(-0.728495 0.200405 0)
(0.383832 -0.326094 0)
(-0.0784803 -0.0364972 0)
(-0.465154 0.082784 0)
(-0.0394 -0.184139 0)
(-0.0022955 -0.307286 0)
(0.0309864 -0.147437 0)
(0.0569498 -0.143491 0)
(-0.22502 -0.120603 0)
(0.0867264 0.0592701 0)
(-0.287279 0.8377 0)
(0.352258 0.352182 0)
(-0.389884 0.025099 0)
(0.0970787 0.0157081 0)
(-0.147319 0.103746 0)
(0.143221 0.192876 0)
(-0.0283576 0.264962 0)
(0.603768 -0.0140718 0)
(0.453729 0.24454 0)
(0.694185 -0.0138783 0)
(0.741187 -0.278346 0)
(0.287162 -0.0604483 0)
(-0.0805796 0.116505 0)
(0.232832 -0.231806 0)
(0.284243 -0.348272 0)
(0.255814 -0.346015 0)
(0.217903 -0.234737 0)
(-0.0030353 -0.125239 0)
(0.100589 0.0623907 0)
(-0.26394 0.775717 0)
(0.349959 0.386253 0)
(-0.229221 0.136438 0)
(0.302528 -0.0445587 0)
(0.146022 0.0315971 0)
(0.225379 0.138322 0)
(0.631161 -0.0387216 0)
(-0.144381 -0.183874 0)
(0.299486 0.158483 0)
(0.890577 0.00914393 0)
(0.871715 -0.149403 0)
(0.484762 0.199478 0)
(0.149772 0.0666341 0)
(0.4652 -0.26643 0)
(0.425698 -0.32054 0)
(0.353292 -0.440231 0)
(0.400237 -0.310876 0)
(0.211256 -0.122575 0)
(0.0514157 0.0986069 0)
(-0.249913 0.749361 0)
(0.358978 0.38083 0)
(0.169597 0.0193905 0)
(0.350482 -0.0771563 0)
(0.271218 0.0946688 0)
(0.245332 0.149199 0)
(0.407768 0.227485 0)
(-0.075905 0.00435636 0)
(0.358175 -0.212529 0)
(0.745445 0.0720055 0)
(0.709211 -0.0258661 0)
(0.419268 0.174067 0)
(0.423942 0.124277 0)
(0.690628 -0.273333 0)
(0.674562 -0.328076 0)
(0.542043 -0.373984 0)
(0.529013 -0.164173 0)
(0.291566 -0.0530038 0)
(0.10197 0.121168 0)
(-0.308281 0.652828 0)
(0.164542 0.135615 0)
(0.408868 -0.0101683 0)
(0.386448 -0.100043 0)
(0.223408 0.158463 0)
(0.301051 0.0438496 0)
(0.765567 -0.146323 0)
(0.745097 0.0939995 0)
(0.716086 -0.080377 0)
(0.498409 0.012771 0)
(0.480109 -0.071741 0)
(0.430022 0.121736 0)
(0.661471 0.0727111 0)
(0.900098 -0.312863 0)
(0.847764 -0.307586 0)
(0.667292 -0.351202 0)
(0.593298 -0.069108 0)
(0.314102 -0.0138275 0)
(0.111283 0.174958 0)
(-0.283714 -0.173708 0)
(-0.120758 -0.534349 0)
(-0.114809 0.149631 0)
(-0.0726772 -0.0379611 0)
(-0.208209 -0.246603 0)
(0.0379896 -0.0945779 0)
(0.126942 -0.44107 0)
(0.357889 -0.187114 0)
(0.537467 0.184565 0)
(0.46987 0.336566 0)
(0.327428 0.493661 0)
(0.207976 0.322269 0)
(0.0347303 0.00983248 0)
(0.120051 -0.11782 0)
(0.266599 -0.00732588 0)
(0.244677 -0.0170864 0)
(0.201674 0.0421894 0)
(0.21766 0.0192865 0)
(0.243477 0.0204295 0)
(0.282445 -0.0466875 0)
(0.286409 -0.0676908 0)
(0.319207 0.0684484 0)
(0.304442 0.43986 0)
(0.0436644 -0.127955 0)
(0.138113 -0.42043 0)
(-0.36427 -0.0520873 0)
(0.13546 0.120311 0)
(-0.0533103 -0.319282 0)
(0.0668076 -0.30578 0)
(0.0768569 -0.574609 0)
(-0.0384536 -0.457004 0)
(0.121079 -0.0960807 0)
(0.594785 0.355317 0)
(0.896586 0.611932 0)
(0.650649 0.478854 0)
(0.420952 0.265687 0)
(0.30771 0.0926056 0)
(0.313713 -0.0572112 0)
(0.278203 -0.069257 0)
(0.274502 -0.00758979 0)
(0.328069 0.028822 0)
(0.376106 0.0311097 0)
(0.375617 -0.0245951 0)
(0.423784 0.0167041 0)
(0.582852 0.0974412 0)
(0.581933 0.461396 0)
(-0.0575254 -0.316599 0)
(-0.0722624 -0.288023 0)
(0.0924614 -0.110814 0)
(0.41735 -0.127624 0)
(0.230853 -0.214711 0)
(0.0842419 -0.264876 0)
(0.00747147 -0.359084 0)
(-0.210707 -0.205158 0)
(-0.389957 -0.183063 0)
(-0.314349 -0.0445753 0)
(0.468305 0.348682 0)
(0.428541 0.476153 0)
(0.493058 0.18729 0)
(0.55748 0.123674 0)
(0.514766 0.0371317 0)
(0.408232 0.092302 0)
(0.271736 -0.0482376 0)
(0.299484 -0.066546 0)
(0.231839 -0.0815391 0)
(0.316806 -0.0272926 0)
(0.472511 0.14532 0)
(0.599918 0.0489357 0)
(0.626322 0.254743 0)
(-0.17843 -0.178552 0)
(-0.0818562 -0.77481 0)
(0.0323884 -0.572119 0)
(0.0141142 0.216737 0)
(-0.0128959 -0.171775 0)
(-0.105273 -0.220107 0)
(-0.240622 -0.250344 0)
(-0.285157 -0.0308303 0)
(-0.756031 -0.19338 0)
(-0.768264 -0.407359 0)
(-0.172991 -0.502557 0)
(0.0802538 0.225235 0)
(0.364547 0.0208966 0)
(0.490407 -0.0245219 0)
(1.02099 0.0529729 0)
(0.94774 0.13965 0)
(0.764594 0.141658 0)
(0.531278 0.12481 0)
(0.437278 0.0620279 0)
(0.463548 0.08074 0)
(0.422878 -0.0135899 0)
(0.568278 0.0116422 0)
(0.507498 0.015958 0)
(-0.242628 0.122512 0)
(-0.0167801 -0.667914 0)
(-0.116561 -0.720405 0)
(-0.249542 0.00594592 0)
(-0.106682 -0.263468 0)
(-0.136911 -0.166293 0)
(-0.272143 -0.03244 0)
(-0.567021 0.170423 0)
(-0.774942 -0.0742864 0)
(-0.329815 -0.38471 0)
(-0.219086 -0.805929 0)
(0.197164 0.0610464 0)
(0.239985 -0.0436166 0)
(0.0971619 -0.169196 0)
(0.242733 -0.281491 0)
(0.174237 -0.393827 0)
(0.397036 0.178499 0)
(0.569768 0.24357 0)
(0.677908 0.329926 0)
(0.687044 0.141751 0)
(0.720813 -0.0248614 0)
(0.732659 -0.03141 0)
(0.696235 -0.0253399 0)
(0.0615964 0.161613 0)
(0.11837 -0.283751 0)
(-0.262061 -0.232309 0)
(-0.312816 -0.0222946 0)
(-0.102855 -0.162351 0)
(-0.173472 -0.221569 0)
(-0.222318 -0.0154892 0)
(-0.547779 0.194135 0)
(-0.675813 0.116618 0)
(-0.342748 -0.624986 0)
(-0.399705 -0.904223 0)
(0.0198215 0.121636 0)
(0.0192459 -0.0828417 0)
(-0.166173 -0.224731 0)
(-0.0955246 -0.328992 0)
(0.00346118 -0.261908 0)
(0.134089 -0.299721 0)
(0.714375 -0.137577 0)
(0.73179 0.0594544 0)
(0.694195 -0.00564991 0)
(0.792908 -0.0314383 0)
(0.822271 0.0361344 0)
(0.767758 0.075737 0)
(0.00732436 -0.108759 0)
(0.0552062 -0.282634 0)
(-0.15471 -0.371625 0)
(-0.0734513 -0.0905856 0)
(-0.197176 -0.167021 0)
(-0.222309 -0.0885161 0)
(-0.323711 0.219849 0)
(-0.63749 0.263254 0)
(-0.727877 0.250952 0)
(-0.425686 -0.651086 0)
(-0.419378 -0.978106 0)
(-0.103295 -0.618771 0)
(0.246153 0.291621 0)
(0.120344 0.0608307 0)
(-0.0664692 -0.223929 0)
(-0.0626662 -0.3407 0)
(0.0514024 -0.365593 0)
(0.126448 -0.145402 0)
(0.175432 -0.228963 0)
(0.466739 -0.163227 0)
(0.543512 -0.172558 0)
(0.535751 -0.0314434 0)
(0.537165 0.0819516 0)
(0.0669446 0.0516305 0)
(0.270182 -0.493641 0)
(0.158673 -0.334858 0)
(0.114421 -0.0482565 0)
(-0.041065 -0.0456094 0)
(-0.214686 0.257111 0)
(-0.289331 0.293453 0)
(-0.304794 0.209735 0)
(-0.39632 0.0124662 0)
(-0.219917 -0.805712 0)
(-0.367587 -1.05679 0)
(-0.205554 -1.45944 0)
(0.283325 -0.286763 0)
(0.328849 0.0769825 0)
(0.266625 -0.0968794 0)
(0.130153 -0.331011 0)
(0.169737 -0.26849 0)
(0.00687898 -0.225567 0)
(0.0995416 -0.249838 0)
(0.157514 -0.287967 0)
(0.122486 -0.073303 0)
(0.236586 0.0969033 0)
(0.281599 0.1415 0)
(-0.0101459 -0.402005 0)
(0.0910947 -0.376317 0)
(-0.081066 -0.0282427 0)
(-0.0307351 0.293674 0)
(-0.0660849 0.243245 0)
(-0.0772546 0.304576 0)
(-0.196099 0.537329 0)
(-0.163892 0.421483 0)
(0.23828 0.102312 0)
(0.338721 -0.518368 0)
(-0.345923 -1.04405 0)
(-0.123463 -1.47846 0)
(0.438543 -0.889808 0)
(0.532283 0.070702 0)
(0.398367 0.0368748 0)
(0.097696 -0.351113 0)
(0.104778 -0.38285 0)
(0.0841006 -0.194651 0)
(0.126401 -0.279295 0)
(-0.0209902 -0.36747 0)
(-0.0760197 -0.0670654 0)
(-0.0499556 -0.164291 0)
(-0.234797 0.0544655 0)
(-0.053589 -0.503328 0)
(0.0551046 -0.357386 0)
(-0.103134 -0.19259 0)
(0.0883257 0.0126814 0)
(0.0540354 0.0355256 0)
(0.0533147 0.213717 0)
(0.221279 0.23317 0)
(0.103666 0.386622 0)
(0.525571 -0.137718 0)
(0.427514 -0.494966 0)
(0.107918 -0.486339 0)
(-0.0184428 -1.31989 0)
(0.116778 -0.556001 0)
(0.336054 0.206803 0)
(0.214071 0.0470183 0)
(0.166247 -0.318593 0)
(0.0593315 -0.19711 0)
(-0.0415646 -0.367051 0)
(-0.00449278 -0.273741 0)
(-0.0967949 -0.395852 0)
(-0.0665188 -0.0501271 0)
(-0.05965 0.167381 0)
(-0.355141 0.316589 0)
(-0.122165 -0.411492 0)
(-0.0106307 -0.251922 0)
(-0.0946241 -0.122614 0)
(-0.0565631 0.0672741 0)
(0.0709931 0.133573 0)
(0.0660424 0.300953 0)
(0.180565 0.208191 0)
(0.476415 0.074178 0)
(0.430568 -0.406105 0)
(0.291523 -0.398187 0)
(0.0980175 -0.49751 0)
(0.0539526 -1.38686 0)
(0.0631506 -0.668641 0)
(0.146162 0.0440536 0)
(0.104044 0.112375 0)
(0.0628254 -0.0322188 0)
(-0.0517465 -0.388707 0)
(0.00127814 -0.17966 0)
(-0.018664 -0.226423 0)
(-0.114432 -0.189636 0)
(-0.16016 -0.16423 0)
(-0.185958 0.100177 0)
(-0.27735 0.374031 0)
(-0.100194 -0.370694 0)
(-0.0500356 -0.265342 0)
(-0.091611 -0.236277 0)
(-0.0782109 -0.105859 0)
(0.0410623 -0.0719414 0)
(0.102664 0.0875545 0)
(0.200871 0.114725 0)
(0.424183 -0.00171538 0)
(0.375885 -0.284841 0)
(0.389038 -0.178879 0)
(0.0125888 -0.18436 0)
(0.0814158 -1.31063 0)
(-0.1083 -0.671603 0)
(-0.406654 0.0360635 0)
(0.0381598 0.127964 0)
(-0.0633597 -0.0123313 0)
(-0.074079 -0.0850239 0)
(-0.10311 -0.1444 0)
(-0.127716 -0.150005 0)
(-0.168876 -0.126205 0)
(-0.182287 -0.0252191 0)
(-0.223954 0.137697 0)
(-0.124785 0.365419 0)
(-0.0696738 -0.278971 0)
(-0.0194401 -0.133024 0)
(-0.0289432 -0.251007 0)
(-0.0312965 -0.0855318 0)
(0.102159 -0.15572 0)
(0.120146 -0.0749818 0)
(0.128567 -0.0853857 0)
(0.228599 -0.118623 0)
(0.321905 -0.202708 0)
(0.492519 -0.243226 0)
(0.556853 -0.129388 0)
(0.0669897 -1.38104 0)
(-0.38051 -0.613658 0)
(0.0609548 -0.350014 0)
(0.0542137 -0.0153194 0)
(0.0497893 0.108069 0)
(-0.0945492 -0.131658 0)
(-0.0744694 -0.219743 0)
(-0.148559 -0.162448 0)
(-0.219072 -0.105979 0)
(-0.189037 -0.0313095 0)
(-0.210951 0.0539217 0)
(-0.0509879 0.186689 0)
(0.010489 -0.162498 0)
(-0.0124805 -0.121796 0)
(-0.0242718 -0.13317 0)
(0.0133266 -0.127755 0)
(0.0382968 -0.14714 0)
(0.12963 -0.150465 0)
(0.244879 -0.113512 0)
(0.26135 -0.213607 0)
(0.19497 -0.193353 0)
(0.234405 -0.222923 0)
(0.320471 -0.163619 0)
(0.0609222 -1.43037 0)
(-0.143046 -0.420834 0)
(-0.172226 -0.576858 0)
(-0.113412 0.0456704 0)
(-0.141743 0.154867 0)
(-0.233042 -0.0397884 0)
(-0.153675 -0.0518881 0)
(-0.156572 -0.130777 0)
(-0.214068 -0.045489 0)
(-0.196307 -0.0496792 0)
(-0.211947 -0.00899858 0)
(-0.138918 0.019363 0)
(-0.066718 -0.073723 0)
(-0.0248619 -0.111497 0)
(-0.00908395 -0.105139 0)
(-0.000192999 -0.136821 0)
(0.0280291 -0.149608 0)
(0.0409362 -0.134593 0)
(0.0774942 -0.214566 0)
(0.127834 -0.321529 0)
(0.188314 -0.348856 0)
(0.196029 -0.231639 0)
(0.300694 -0.257942 0)
(0.0425469 -0.467017 0)
(-0.0980668 -0.345328 0)
(-0.175661 -0.237327 0)
(-0.172811 -0.0746507 0)
(-0.197731 -0.0169739 0)
(-0.125465 -0.0520721 0)
(-0.132287 -0.0163052 0)
(-0.188032 -0.0459832 0)
(-0.234836 -0.0328596 0)
(-0.18825 0.00356388 0)
(-0.12766 0.0281389 0)
(-0.160919 0.00114767 0)
(-0.0183701 -0.0980389 0)
(-0.00490487 -0.128893 0)
(-0.0124054 -0.138035 0)
(0.00314196 -0.15638 0)
(0.00918528 -0.180192 0)
(0.00118103 -0.219503 0)
(0.0552479 -0.308419 0)
(0.0801009 -0.285629 0)
(0.00271297 -0.35611 0)
(0.0959571 -0.281537 0)
(0.0768717 -0.264553 0)
(-0.0212478 -0.572796 0)
(0.0731557 -0.308733 0)
(-0.246183 -0.0898506 0)
(-0.319601 -0.0228142 0)
(-0.282248 -0.0693825 0)
(-0.154352 0.00196072 0)
(-0.138584 -0.0680185 0)
(-0.156352 -0.0127902 0)
(-0.179362 0.0181889 0)
(-0.156003 0.0210078 0)
(-0.169896 -0.0234815 0)
(-0.200239 -0.0321379 0)
(-0.0472546 -0.0736235 0)
(-0.00241195 -0.103377 0)
(-0.0266388 -0.137222 0)
(-0.0115666 -0.154567 0)
(0.00516549 -0.162989 0)
(-0.075362 -0.251019 0)
(0.0862548 -0.217266 0)
(0.0425853 -0.385566 0)
(-0.0862347 -0.356014 0)
(0.00915253 -0.267444 0)
(0.06604 -0.163914 0)
(-0.057787 -0.0519497 0)
(-0.200171 -0.0771326 0)
(-0.287405 -0.0883591 0)
(-0.391313 -0.0128593 0)
(-0.215334 -0.057298 0)
(-0.168198 0.0140449 0)
(-0.186818 -0.0168444 0)
(-0.151754 -0.00814736 0)
(-0.207788 -0.0268226 0)
(-0.234352 -0.0412029 0)
(-0.141731 -0.0783711 0)
(-0.0276863 -0.00139958 0)
(0.0447173 -0.156435 0)
(0.000159044 -0.167889 0)
(-0.0416456 -0.115265 0)
(-0.00548505 -0.16253 0)
(-0.0477301 -0.150312 0)
(-0.0109367 -0.261318 0)
(-0.0380642 -0.206936 0)
(-0.0276862 -0.459255 0)
(-0.0668509 -0.422322 0)
(-0.0702696 -0.384865 0)
(-0.0588848 -0.267272 0)
(-0.251638 -0.238544 0)
(-0.307527 -0.150874 0)
(-0.321753 -0.204699 0)
(-0.401338 -0.129826 0)
(-0.189825 -0.0397522 0)
(-0.127576 -0.0441688 0)
(-0.149944 -0.0570708 0)
(-0.144081 -0.0540959 0)
(-0.187743 -0.0883502 0)
(-0.186844 -0.00345047 0)
(-0.166522 -0.0409881 0)
(-0.207283 -0.0275868 0)
(-0.00115011 -0.172037 0)
(0.0601821 -0.189475 0)
(-0.015442 -0.18158 0)
(-0.0177456 -0.106758 0)
(-0.0592436 -0.211849 0)
(-0.104784 -0.204591 0)
(-0.0743657 -0.241985 0)
(-0.119717 -0.254583 0)
(-0.0818241 -0.271064 0)
(-0.150494 -0.279072 0)
(-0.153891 -0.241723 0)
(-0.196901 -0.313387 0)
(-0.227149 -0.198216 0)
(-0.256756 -0.266166 0)
(-0.264751 -0.128611 0)
(-0.175253 -0.0587759 0)
(-0.166174 -0.0546075 0)
(-0.184832 -0.0631254 0)
(-0.132183 -0.0950064 0)
(-0.117459 -0.0943877 0)
(-0.152113 -0.0709358 0)
(-0.195706 -0.0665878 0)
(-0.147734 -0.00732598 0)
(0.00986869 -0.210417 0)
(0.0110481 -0.198932 0)
(0.0403205 -0.218909 0)
(-0.0121392 -0.176398 0)
(-0.10501 -0.230069 0)
(-0.0460368 -0.235788 0)
(-0.0385951 -0.1873 0)
(-0.0825856 -0.200956 0)
(-0.0956801 -0.20212 0)
(-0.118715 -0.20139 0)
(-0.144332 -0.162213 0)
(-0.152692 -0.13383 0)
(-0.222925 -0.140841 0)
(-0.251146 -0.140439 0)
(-0.166652 -0.0545132 0)
(-0.124787 -0.0360774 0)
(-0.154182 -0.0372385 0)
(-0.209743 -0.00997331 0)
(-0.186193 -0.0437384 0)
(-0.167824 -0.0481423 0)
(-0.152622 -0.0778583 0)
(-0.106942 -0.0339843 0)
(-0.198708 -0.00939861 0)
(-0.00364377 -0.218308 0)
(0.0119771 -0.203386 0)
(-0.00972359 -0.195105 0)
(0.000710529 -0.198643 0)
(-0.0494629 -0.195623 0)
(0.0267216 -0.163052 0)
(0.017078 -0.235229 0)
(-0.114287 -0.182177 0)
(-0.0747652 -0.191637 0)
(-0.0340214 -0.185092 0)
(-0.0863907 -0.210753 0)
(-0.192413 -0.199501 0)
(-0.201585 -0.147832 0)
(-0.139829 -0.103878 0)
(-0.166139 -0.0462734 0)
(-0.131581 -0.082172 0)
(-0.130786 -0.0980799 0)
(-0.166031 -0.0489585 0)
(-0.192341 -0.0457035 0)
(-0.191045 -0.0380581 0)
(-0.161984 -0.0539964 0)
(-0.0925119 -0.0384843 0)
(-0.153386 -0.120333 0)
(-0.00140282 -0.211702 0)
(-0.00266017 -0.193175 0)
(0.00508407 -0.177691 0)
(-0.0054682 -0.161664 0)
(-0.0129791 -0.207991 0)
(-0.00295619 -0.111932 0)
(0.0264054 -0.269441 0)
(-0.0205401 -0.213446 0)
(-0.119717 -0.177038 0)
(-0.102187 -0.172187 0)
(-0.0936016 -0.221615 0)
(-0.118161 -0.238586 0)
(-0.143104 -0.183651 0)
(-0.102404 -0.155679 0)
(-0.134739 -0.0756872 0)
(-0.163945 -0.054849 0)
(-0.0953958 -0.119714 0)
(-0.157594 -0.115409 0)
(-0.168478 -0.118829 0)
(-0.14158 -0.0578654 0)
(-0.156709 -0.0537482 0)
(-0.145381 -0.0370615 0)
(-0.146709 -0.0722435 0)
(-0.0164556 -0.223335 0)
(0.00161918 -0.21503 0)
(-0.0403884 -0.20824 0)
(-0.00345872 -0.153838 0)
(0.0712814 -0.212352 0)
(0.0117023 -0.213406 0)
(-0.0653757 -0.209363 0)
(-0.0166895 -0.264587 0)
(-0.069654 -0.254048 0)
(-0.0766541 -0.212673 0)
(-0.0551188 -0.198863 0)
(-0.121814 -0.1775 0)
(-0.0993002 -0.148264 0)
(-0.064107 -0.159276 0)
(-0.0968441 -0.117542 0)
(-0.155421 -0.119517 0)
(-0.160657 -0.0997307 0)
(-0.164032 -0.148991 0)
(-0.127436 -0.0553556 0)
(-0.108001 -0.0507338 0)
(-0.139549 -0.0585879 0)
(-0.102839 -0.0417093 0)
(-0.107338 -0.0695264 0)
(-0.0383675 -0.175411 0)
(-0.0299339 -0.143336 0)
(0.0349233 -0.140457 0)
(0.00518978 -0.12396 0)
(-0.00275519 -0.1307 0)
(0.0530428 -0.242217 0)
(-0.00996143 -0.206887 0)
(-0.0105707 -0.204871 0)
(-0.0450353 -0.199874 0)
(-0.0518986 -0.177101 0)
(-0.0686593 -0.177632 0)
(-0.062474 -0.16439 0)
(-0.0800736 -0.100334 0)
(-0.0447777 -0.124839 0)
(-0.100183 -0.127135 0)
(-0.124787 -0.108759 0)
(-0.105454 -0.136577 0)
(-0.0864252 -0.114578 0)
(-0.0693873 -0.0743675 0)
(-0.138701 -0.0393616 0)
(-0.133277 -0.0561202 0)
(-0.130984 -0.0537968 0)
(-0.11305 -0.0393436 0)
(0.0217435 -0.0915134 0)
(0.0194796 -0.109023 0)
(-0.00274574 -0.0813905 0)
(-0.0112325 -0.114346 0)
(-0.0267839 -0.099863 0)
(-0.0319429 -0.146595 0)
(0.0217507 -0.123467 0)
(0.0196961 -0.205035 0)
(-0.0175174 -0.172541 0)
(-0.0231605 -0.174965 0)
(-0.0374606 -0.184317 0)
(-0.0583332 -0.180014 0)
(-0.0557937 -0.171706 0)
(-0.0543638 -0.155655 0)
(-0.0171766 -0.161599 0)
(-0.138034 -0.146702 0)
(-0.138575 -0.109813 0)
(-0.062119 -0.0727349 0)
(-0.0857762 -0.0870312 0)
(-0.0872301 -0.0939169 0)
(-0.132403 -0.0639115 0)
(-0.100802 -0.0460893 0)
(-0.102213 -0.032179 0)
(0.00104072 -0.0799253 0)
(-0.00634347 -0.111478 0)
(-2.12039e-05 -0.109188 0)
(0.00163261 -0.10121 0)
(-0.0127121 -0.102997 0)
(-0.00733744 -0.0995452 0)
(-0.0440545 -0.0963516 0)
(-0.0301174 -0.11058 0)
(-0.0184838 -0.117314 0)
(-0.0663675 -0.12568 0)
(-0.0614204 -0.103527 0)
(-0.0337031 -0.109521 0)
(-0.026609 -0.112122 0)
(0.00860557 -0.171717 0)
(-0.0666146 -0.141636 0)
(-0.0843084 -0.17835 0)
(-0.040644 -0.0604356 0)
(-0.0365357 -0.120277 0)
(-0.0927306 -0.0936226 0)
(-0.108059 -0.127664 0)
(-0.0750496 -0.0510687 0)
(-0.122487 -0.0754048 0)
(-0.0645898 -0.0173824 0)
(0.00163233 -0.0887252 0)
(0.00617847 -0.10806 0)
(-0.0029919 -0.0944532 0)
(-0.000826443 -0.100285 0)
(-0.0135896 -0.0957029 0)
(-0.00667387 -0.114501 0)
(-0.00911956 -0.102773 0)
(-0.0123154 -0.0783349 0)
(-0.0236454 -0.104508 0)
(-0.025083 -0.0937067 0)
(-0.0321562 -0.0775368 0)
(-0.0466615 -0.0775052 0)
(-0.0506766 -0.0824398 0)
(-0.0674535 -0.0823519 0)
(-0.0548871 -0.105191 0)
(-0.0410275 -0.0747372 0)
(-0.0680753 -0.103057 0)
(-0.0590572 -0.109228 0)
(-0.0551166 -0.119335 0)
(-0.0376945 -0.117184 0)
(-0.0835323 -0.0642081 0)
(-0.0791976 -0.033455 0)
(-0.0954592 -0.0239608 0)
(-0.00224623 -0.0859944 0)
(0.000962734 -0.10606 0)
(-0.00469891 -0.09861 0)
(-1.78967e-05 -0.0899211 0)
(-0.0167528 -0.0940149 0)
(-0.00698752 -0.100708 0)
(-0.0220675 -0.0890727 0)
(-0.0194254 -0.0883499 0)
(-0.0231714 -0.0911211 0)
(-0.0318481 -0.101241 0)
(-0.0226776 -0.0772476 0)
(-0.0300227 -0.0832547 0)
(-0.0347007 -0.0916215 0)
(-0.0386552 -0.0917351 0)
(-0.0429238 -0.0907162 0)
(-0.0553455 -0.0837612 0)
(-0.0595756 -0.092643 0)
(-0.0306643 -0.0636127 0)
(-0.0878505 -0.0461768 0)
(-0.0644762 -0.0642736 0)
(-0.0292572 -0.0810251 0)
(-0.0979373 -0.00560451 0)
(-0.0821026 -0.0603171 0)
(-0.00229204 -0.0890083 0)
(0.00629938 -0.1063 0)
(-0.00169775 -0.0968271 0)
(0.00616322 -0.0895479 0)
(-0.0110156 -0.0936079 0)
(-0.00173848 -0.112086 0)
(-0.017546 -0.0964967 0)
(-0.0102312 -0.0786152 0)
(-0.015771 -0.0901092 0)
(-0.000756957 -0.0905606 0)
(-0.0148035 -0.0882485 0)
(-0.0529523 -0.0687019 0)
(-0.0556605 -0.0769553 0)
(-0.0606604 -0.0799583 0)
(0.00185993 -0.0637459 0)
(-0.0186805 -0.122195 0)
(-0.061659 -0.0350882 0)
(-0.0207845 -0.0909966 0)
(-0.0730009 -0.0684015 0)
(-0.0724249 -0.0551928 0)
(-0.0602229 -0.072033 0)
(-0.0439531 -0.051427 0)
(-0.0919097 -0.00373699 0)
(-0.00345425 -0.0883756 0)
(0.00371032 -0.105331 0)
(-0.00545965 -0.0963062 0)
(0.00114054 -0.0775913 0)
(-0.0196543 -0.0827936 0)
(-0.00694732 -0.0865146 0)
(-0.016065 -0.0755932 0)
(-0.0164418 -0.0847135 0)
(-0.0133727 -0.107689 0)
(-0.0266139 -0.115613 0)
(-0.0109847 -0.11755 0)
(-0.0313939 -0.0931912 0)
(-0.0410329 -0.0858838 0)
(-0.043416 -0.0870452 0)
(-0.048678 -0.0655726 0)
(-0.0355553 -0.140671 0)
(-0.0420847 -0.0626641 0)
(-0.0392469 -0.117624 0)
(-0.0550151 -0.0693985 0)
(-0.0488077 -0.0692156 0)
(-0.0528072 -0.0137871 0)
(-0.0531608 -0.0403225 0)
(-0.0495592 -0.0307643 0)
(-0.00330002 -0.0901222 0)
(0.00677119 -0.105092 0)
(0.00334835 -0.0969013 0)
(0.0169754 -0.0776315 0)
(0.0145384 -0.0892735 0)
(0.0174942 -0.122138 0)
(-0.0486756 -0.0957456 0)
(-0.0360358 -0.0810693 0)
(-0.027624 -0.0802504 0)
(-0.0232851 -0.0882152 0)
(-0.021423 -0.0891371 0)
(-0.0448376 -0.0735231 0)
(-0.038526 -0.072599 0)
(-0.055469 -0.0776604 0)
(-0.0459599 -0.0658672 0)
(-0.010532 -0.0545617 0)
(-0.0268839 -0.033352 0)
(-0.0176392 -0.0631514 0)
(-0.043992 -0.0560131 0)
(-0.0385438 -0.0600594 0)
(-0.0688755 -0.0664027 0)
(-0.0928774 -0.0600559 0)
(-0.0606131 -0.0325299 0)
(-0.00361625 -0.091513 0)
(0.0030107 -0.105782 0)
(-0.00427593 -0.100021 0)
(0.00281104 -0.0802416 0)
(-0.00756996 -0.0960869 0)
(-0.00970045 -0.156417 0)
(-0.0103863 -0.135582 0)
(-0.0137455 -0.101761 0)
(0.00378458 -0.134705 0)
(-0.0282234 -0.128726 0)
(-0.0103654 -0.137996 0)
(-0.028533 -0.0857977 0)
(-0.0321173 -0.0802301 0)
(-0.0403386 -0.0831207 0)
(-0.0311532 -0.0599739 0)
(-0.0118528 -0.0634747 0)
(-0.0476244 -0.0733524 0)
(-0.0273237 -0.0492748 0)
(-0.0371221 -0.0881844 0)
(-0.0586992 -0.0609047 0)
(-0.0567859 -0.0511447 0)
(-0.036811 -0.047579 0)
(-0.0354179 -0.0138105 0)
(-0.00261814 -0.0910088 0)
(0.00358852 -0.104507 0)
(-0.000760757 -0.0993377 0)
(0.0102716 -0.0745287 0)
(-0.00200365 -0.0819985 0)
(0.00569782 -0.114892 0)
(-0.0323662 -0.0981921 0)
(-0.0415889 -0.094703 0)
(-0.0230899 -0.0797147 0)
(-0.00329602 -0.0694925 0)
(0.00977963 -0.0914978 0)
(-0.0241368 -0.0588161 0)
(-0.0224082 -0.0660214 0)
(-0.0385094 -0.076012 0)
(-0.0371274 -0.0604622 0)
(-0.0326178 -0.0639711 0)
(-0.0163866 -0.0617622 0)
(3.62761e-05 -0.0408778 0)
(-0.0314545 -0.0799281 0)
(-0.0109839 -0.0310641 0)
(-0.0445806 -0.0296962 0)
(-0.0425912 -0.051607 0)
(-0.0662562 -0.0676752 0)
(-0.00268957 -0.0921531 0)
(2.31279e-05 -0.106671 0)
(-0.00676811 -0.101837 0)
(-0.00113884 -0.0774884 0)
(-0.0258453 -0.095565 0)
(-0.0121659 -0.0846021 0)
(0.027931 -0.118424 0)
(-0.014877 -0.069133 0)
(0.0108237 -0.0641003 0)
(-0.0160852 -0.0636818 0)
(0.0151807 -0.0942664 0)
(-0.0111439 -0.0804023 0)
(-0.0378144 -0.0745979 0)
(-0.0336705 -0.0770841 0)
(-0.0270973 -0.0636036 0)
(-0.0151066 -0.0523498 0)
(-0.0304117 -0.0426596 0)
(-0.0284171 -0.0474925 0)
(0.00236323 -0.0330573 0)
(-0.0175825 -0.0590436 0)
(-0.0575946 -0.0561674 0)
(-0.0343299 -0.0493209 0)
(-0.037239 -0.110094 0)
(-0.00320964 -0.0885649 0)
(7.20831e-05 -0.103406 0)
(-0.00410425 -0.0954881 0)
(-0.00329107 -0.0693661 0)
(-0.00223759 -0.0570675 0)
(-0.0050145 -0.0694587 0)
(0.02402 -0.0803169 0)
(-0.0237173 -0.0889691 0)
(-0.0374733 -0.0784785 0)
(-0.0270239 -0.0714241 0)
(-0.0140122 -0.0985117 0)
(-0.0114491 -0.0932137 0)
(-0.0220919 -0.0763903 0)
(-0.0310184 -0.0796895 0)
(-0.0284629 -0.0679838 0)
(-0.0259879 -0.0602178 0)
(-0.0209215 -0.0538014 0)
(-0.00430831 -0.0424294 0)
(-0.0229319 -0.0295342 0)
(-0.0280582 -0.0709883 0)
(-0.00103798 -0.018688 0)
(-0.0274304 -0.0449514 0)
(-0.0451603 -0.030934 0)
(-0.00345447 -0.0911309 0)
(0.00182707 -0.103722 0)
(-0.0081526 -0.103374 0)
(0.0207371 -0.0727591 0)
(-0.011142 -0.101529 0)
(-0.0301871 -0.0955057 0)
(-0.00629636 -0.101972 0)
(-0.0105724 -0.10547 0)
(-0.00691965 -0.0912928 0)
(-0.014526 -0.081448 0)
(-0.0179243 -0.109743 0)
(-0.00566464 -0.0753538 0)
(-0.0211281 -0.06779 0)
(-0.0286692 -0.0757948 0)
(-0.0253617 -0.0691595 0)
(-0.0157523 -0.0583798 0)
(-0.0269594 -0.0437861 0)
(-0.0140184 -0.0481304 0)
(-0.00781085 -0.0369973 0)
(-0.0028932 -0.0609636 0)
(-0.0284618 -0.0111657 0)
(0.00768989 -0.0764557 0)
(-0.044755 -0.0438558 0)
(-0.00144235 -0.0856642 0)
(-0.00161297 -0.100973 0)
(-0.00666032 -0.104314 0)
(0.00160718 -0.0733228 0)
(-0.000282354 -0.113614 0)
(-0.0123287 -0.0927331 0)
(-0.0101238 -0.0986396 0)
(-0.0169496 -0.0716736 0)
(-0.0309851 -0.0838635 0)
(-0.0216068 -0.0602077 0)
(-0.00564569 -0.0797546 0)
(0.038913 -0.0835838 0)
(-0.00432235 -0.0748351 0)
(-0.0284446 -0.0747643 0)
(-0.0302106 -0.0711581 0)
(-0.0241586 -0.0567605 0)
(-0.0310647 -0.0506662 0)
(-0.0151117 -0.0391169 0)
(-0.0162529 -0.0379326 0)
(-0.0106087 -0.0272055 0)
(-0.00745825 -0.0310639 0)
(-0.0113461 -0.0447249 0)
(-0.0507555 -0.065711 0)
(-0.0052456 -0.0902792 0)
(-0.00541381 -0.104088 0)
(-0.0134216 -0.103239 0)
(0.00224387 -0.077418 0)
(-0.0045146 -0.0760024 0)
(-0.00811209 -0.0953076 0)
(-0.00627809 -0.0984928 0)
(0.00336789 -0.0858487 0)
(0.0103861 -0.0884723 0)
(0.00536025 -0.091536 0)
(-0.0322087 -0.0721371 0)
(-0.0114539 -0.0836091 0)
(-0.0328832 -0.0856985 0)
(-0.0192624 -0.0814264 0)
(-0.0251901 -0.0758246 0)
(-0.0200554 -0.061097 0)