/*--------------------------------*- C++ -*----------------------------------*\
| =========                 |                                                 |
| \\      /  F ield         | foam-extend: Open Source CFD                    |
|  \\    /   O peration     | Version:     4.1                                |
|   \\  /    A nd           | Web:         http://www.foam-extend.org         |
|    \\/     M anipulation  |                                                 |
\*---------------------------------------------------------------------------*/
FoamFile
{
    version     2.0;
    format      ascii;
    class       volVectorField;
    location    "0.55";
    object      U_0;
}
// * * * * * * * * * * * * * * * * * * * * * * * * * * * * * * * * * * * * * //

dimensions      [0 1 -1 0 0 0 0];

internalField   nonuniform List<vector> 
2268
(
(-0.0016871 -0.0312018 0)
(0.234427 -0.0265671 0)
(0.299394 -0.00768649 0)
(0.352663 -0.0100149 0)
(0.39737 -0.00585333 0)
(0.442665 -0.00514506 0)
(0.43354 0.00376341 0)
(0.467016 0.000414189 0)
(0.539716 0.0108814 0)
(0.428392 -0.0195826 0)
(0.276761 0.0243646 0)
(0.298076 0.0139346 0)
(0.272447 0.0151897 0)
(0.244627 0.0259225 0)
(0.263062 0.0626081 0)
(0.327941 -0.0103521 0)
(0.321904 0.00597936 0)
(0.269631 0.0522988 0)
(0.131793 0.0425743 0)
(0.0886326 -0.0246783 0)
(-0.0739852 -0.0426238 0)
(0.0719157 -0.00352147 0)
(-0.077539 -0.0469218 0)
(0.00628478 -0.071895 0)
(0.249132 -0.0585994 0)
(0.312575 -0.0067364 0)
(0.35489 -0.0175198 0)
(0.404677 -0.0159176 0)
(0.455905 -0.00184073 0)
(0.438477 -0.0148658 0)
(0.48116 -0.0311836 0)
(0.568072 0.00792531 0)
(0.400091 -0.0759689 0)
(0.278469 0.0574406 0)
(0.29198 0.007858 0)
(0.269003 0.0110205 0)
(0.264898 -0.0125343 0)
(0.259419 0.0324675 0)
(0.273125 0.00165583 0)
(0.303584 0.00476887 0)
(0.251751 -0.00611863 0)
(0.17821 0.0424559 0)
(0.180354 0.0674206 0)
(0.155821 0.0492405 0)
(0.116867 0.00364102 0)
(0.129971 0.0440767 0)
(0.0301601 -0.142293 0)
(0.276801 -0.116269 0)
(0.333957 -0.0189422 0)
(0.350384 -0.0368444 0)
(0.410007 -0.0306255 0)
(0.468293 -0.010191 0)
(0.448902 -0.00867555 0)
(0.531057 -0.0371699 0)
(0.563695 0.0303596 0)
(0.418698 -0.0778357 0)
(0.247813 0.00879267 0)
(0.188149 0.0589837 0)
(0.170763 0.0124897 0)
(0.16362 0.0495636 0)
(0.217185 0.0566372 0)
(0.275788 0.0960236 0)
(0.299032 0.0336795 0)
(0.226977 -0.0178484 0)
(0.148344 0.0288327 0)
(0.142203 0.0457982 0)
(0.114292 0.029452 0)
(0.0898704 0.0102795 0)
(0.12536 0.0703207 0)
(0.0649842 -0.201671 0)
(0.320584 -0.143492 0)
(0.371192 -0.00845368 0)
(0.352463 -0.0390731 0)
(0.419799 -0.0448684 0)
(0.520465 -0.0086478 0)
(0.491466 -0.0400257 0)
(0.59491 -0.0617916 0)
(0.592622 0.103928 0)
(0.394713 -0.00547722 0)
(0.233038 0.0332185 0)
(0.177549 0.0162033 0)
(0.152565 0.0426837 0)
(0.189816 0.0331882 0)
(0.187958 0.0594392 0)
(0.220251 0.0620524 0)
(0.23431 0.0273011 0)
(0.226215 0.0292456 0)
(0.169716 0.011867 0)
(0.150431 0.0357554 0)
(0.12646 0.0274963 0)
(0.103842 0.0499467 0)
(0.137131 0.0931684 0)
(0.0668473 -0.340235 0)
(0.362116 -0.223769 0)
(0.389821 -0.010149 0)
(0.358706 -0.0551544 0)
(0.4522 -0.0736793 0)
(0.563507 -0.0219759 0)
(0.530054 -0.0196642 0)
(0.662786 -0.101611 0)
(0.623674 0.117891 0)
(0.401152 0.0227167 0)
(0.237059 0.0270885 0)
(0.185404 0.0384139 0)
(0.16355 0.0518556 0)
(0.157585 -0.0315907 0)
(0.185379 0.0239045 0)
(0.144868 0.0670106 0)
(0.156723 0.0150608 0)
(0.142705 0.0185666 0)
(0.127656 0.0437105 0)
(0.134464 0.0618258 0)
(0.128275 0.0515659 0)
(0.112731 0.0626969 0)
(0.153197 0.127166 0)
(0.0391682 -0.278079 0)
(0.393769 -0.252626 0)
(0.427294 0.0172049 0)
(0.36398 -0.0598879 0)
(0.465884 -0.098589 0)
(0.605753 -0.0198309 0)
(0.507045 -0.10556 0)
(0.644272 -0.0482234 0)
(0.668718 0.0896804 0)
(0.478582 0.134214 0)
(0.373575 0.00203773 0)
(0.286304 0.109159 0)
(0.177805 -0.00236685 0)
(0.209456 -0.00184827 0)
(0.252421 0.0172813 0)
(0.192231 0.0770321 0)
(0.129602 0.0359161 0)
(0.143098 0.0405657 0)
(0.125747 0.0581179 0)
(0.123897 0.0451186 0)
(0.12943 0.0345999 0)
(0.13151 0.108153 0)
(0.159253 0.153684 0)
(-0.178665 -0.218757 0)
(0.26982 -0.332327 0)
(0.379719 0.0303124 0)
(0.243695 -0.0690034 0)
(0.370728 -0.130787 0)
(0.599864 -0.0344429 0)
(0.51057 -0.246435 0)
(0.77017 0.0464146 0)
(0.717851 -0.0420799 0)
(0.465915 0.105963 0)
(0.40555 0.0911194 0)
(0.289792 0.147632 0)
(0.103066 0.0654219 0)
(0.211757 0.078309 0)
(0.224684 -0.0655613 0)
(0.16998 0.0632446 0)
(0.137196 0.0402228 0)
(0.13309 0.0960981 0)
(0.112401 0.0649437 0)
(0.117296 0.0612217 0)
(0.160641 0.0471873 0)
(0.15483 0.106582 0)
(0.18358 0.201274 0)
(-0.236729 -0.236506 0)
(0.0773457 -0.475171 0)
(0.137776 0.0933737 0)
(-0.0961304 -0.0692865 0)
(0.0149213 -0.198083 0)
(0.198867 -0.0430197 0)
(0.274152 -0.401853 0)
(0.69307 -0.115158 0)
(0.566468 -0.0401966 0)
(0.274893 0.226889 0)
(0.214706 0.2273 0)
(0.178002 0.159491 0)
(0.00669975 0.0784054 0)
(0.115058 0.00338316 0)
(0.184572 0.0201656 0)
(0.112421 0.104566 0)
(0.0296841 0.0183838 0)
(0.0793187 0.0616777 0)
(0.0311363 0.0613837 0)
(0.0640261 0.0228688 0)
(0.161753 0.00881414 0)
(0.245956 0.118085 0)
(0.168068 0.309487 0)
(-0.567704 0.171314 0)
(-0.687125 -0.0457181 0)
(-0.885861 -0.0105898 0)
(-0.999389 -0.0281767 0)
(-0.949878 -0.0741374 0)
(-0.886329 -0.0421324 0)
(-0.917116 -0.00874985 0)
(-1.30877 -0.182737 0)
(-1.52709 -0.0454756 0)
(-1.34627 0.000308629 0)
(-1.33306 -0.133833 0)
(-1.32534 0.154816 0)
(-1.12599 -0.0314655 0)
(-1.09643 -0.0233848 0)
(-0.865365 -0.0658629 0)
(-0.548402 -0.144933 0)
(-0.165277 -0.154803 0)
(0.288902 -0.00984118 0)
(0.0638508 0.0242136 0)
(-0.494123 0.372596 0)
(-0.347879 0.178424 0)
(-0.322188 0.0984634 0)
(-0.236783 0.0708367 0)
(-0.280827 0.0153343 0)
(-0.445649 0.0518065 0)
(-0.738871 0.12268 0)
(-1.19061 -0.105597 0)
(-1.46524 0.142228 0)
(-1.3256 0.222108 0)
(-1.1608 -0.105525 0)
(-1.22709 0.112934 0)
(-0.765246 -0.050294 0)
(-0.562785 -0.0364914 0)
(-0.466382 -0.212819 0)
(-0.193953 -0.136822 0)
(-0.0502628 -0.253843 0)
(0.096701 -0.0836466 0)
(0.152546 0.0999713 0)
(-0.409893 0.837156 0)
(-0.197275 0.310495 0)
(-0.272289 -0.0581829 0)
(-0.624351 -0.0934967 0)
(-0.462295 0.129749 0)
(-0.388251 0.122064 0)
(-0.693692 0.0505913 0)
(-0.912196 -0.00263101 0)
(-1.01906 0.167382 0)
(-0.931323 0.264852 0)
(-0.364047 -0.415096 0)
(-0.637872 -0.280498 0)
(-0.663076 0.104299 0)
(-0.294226 -0.162424 0)
(-0.239204 -0.329958 0)
(-0.114538 -0.233961 0)
(-0.0829618 -0.262716 0)
(-0.264755 -0.0870926 0)
(0.0848218 0.0894528 0)
(-0.351162 0.827039 0)
(0.182143 0.307707 0)
(-0.246867 0.111172 0)
(-0.18665 0.0840904 0)
(-0.0750574 0.121867 0)
(0.103463 0.14324 0)
(-0.411168 0.231872 0)
(0.440728 -0.0153707 0)
(-0.634645 0.200698 0)
(-0.731488 0.200407 0)
(0.388241 -0.331251 0)
(-0.0741971 -0.0373833 0)
(-0.460645 0.0800092 0)
(-0.033589 -0.187354 0)
(0.00384234 -0.307049 0)
(0.0399778 -0.147224 0)
(0.0628547 -0.142327 0)
(-0.224814 -0.117001 0)
(0.0869699 0.0588735 0)
(-0.28694 0.841923 0)
(0.351667 0.357837 0)
(-0.3845 0.0162593 0)
(0.109035 0.00712945 0)
(-0.148348 0.100253 0)
(0.137954 0.193412 0)
(-0.0240993 0.269037 0)
(0.614862 -0.0117905 0)
(0.473585 0.248141 0)
(0.710103 -0.00845529 0)
(0.750548 -0.280768 0)
(0.285581 -0.0611591 0)
(-0.0735886 0.11515 0)
(0.239984 -0.234531 0)
(0.291637 -0.347456 0)
(0.264702 -0.344198 0)
(0.222348 -0.23248 0)
(-0.00462804 -0.120901 0)
(0.102425 0.0620842 0)
(-0.264013 0.779508 0)
(0.35117 0.387133 0)
(-0.219058 0.122786 0)
(0.309095 -0.0459312 0)
(0.149724 0.0354997 0)
(0.220118 0.134793 0)
(0.628847 -0.049428 0)
(-0.154795 -0.177698 0)
(0.303676 0.152668 0)
(0.897234 0.0143357 0)
(0.879384 -0.145231 0)
(0.479742 0.199615 0)
(0.157521 0.0652288 0)
(0.474806 -0.269939 0)
(0.434184 -0.320883 0)
(0.362654 -0.436582 0)
(0.407647 -0.304044 0)
(0.2136 -0.117983 0)
(0.056112 0.098319 0)
(-0.251775 0.754357 0)
(0.362154 0.385459 0)
(0.174288 0.00586215 0)
(0.353744 -0.0762139 0)
(0.270912 0.0973827 0)
(0.23844 0.152526 0)
(0.409583 0.226915 0)
(-0.085565 0.00521202 0)
(0.34727 -0.214337 0)
(0.742373 0.0729643 0)
(0.715927 -0.0241751 0)
(0.417627 0.174885 0)
(0.433458 0.119958 0)
(0.700558 -0.276458 0)
(0.682159 -0.327336 0)
(0.54987 -0.371092 0)
(0.534736 -0.160567 0)
(0.293364 -0.0485188 0)
(0.10712 0.122195 0)
(-0.309408 0.654763 0)
(0.176022 0.143453 0)
(0.410704 -0.0221389 0)
(0.386488 -0.100495 0)
(0.221312 0.166037 0)
(0.298999 0.0376278 0)
(0.767599 -0.15056 0)
(0.725744 0.107264 0)
(0.691403 -0.0897461 0)
(0.485952 0.0112917 0)
(0.481671 -0.0701621 0)
(0.430828 0.121693 0)
(0.674032 0.0640338 0)
(0.907405 -0.315117 0)
(0.854617 -0.307048 0)
(0.672442 -0.346585 0)
(0.597474 -0.06517 0)
(0.316797 -0.00926129 0)
(0.114466 0.176504 0)
(-0.285819 -0.170092 0)
(-0.119606 -0.528943 0)
(-0.112872 0.137316 0)
(-0.0720396 -0.0438344 0)
(-0.208333 -0.237263 0)
(0.0373201 -0.0991612 0)
(0.122721 -0.452751 0)
(0.361739 -0.160216 0)
(0.534892 0.180361 0)
(0.473859 0.329597 0)
(0.330137 0.490629 0)
(0.211724 0.319063 0)
(0.0396091 0.00253028 0)
(0.126037 -0.119491 0)
(0.275727 -0.00657026 0)
(0.250779 -0.0165706 0)
(0.205217 0.0430212 0)
(0.221026 0.0196201 0)
(0.246606 0.0209792 0)
(0.284973 -0.0464091 0)
(0.289944 -0.0654034 0)
(0.32237 0.0729457 0)
(0.307979 0.44483 0)
(0.0382076 -0.117475 0)
(0.14031 -0.420666 0)
(-0.364457 -0.0681484 0)
(0.12757 0.116391 0)
(-0.0567811 -0.312477 0)
(0.0672333 -0.307989 0)
(0.0696477 -0.581901 0)
(-0.0410518 -0.452776 0)
(0.11991 -0.0932959 0)
(0.589008 0.347721 0)
(0.893132 0.608609 0)
(0.654171 0.472855 0)
(0.432564 0.259003 0)
(0.31307 0.0944536 0)
(0.31833 -0.0564333 0)
(0.282859 -0.0663031 0)
(0.278692 -0.00437691 0)
(0.331647 0.0299205 0)
(0.378176 0.032088 0)
(0.377372 -0.0243505 0)
(0.426088 0.0179819 0)
(0.586086 0.101104 0)
(0.586154 0.469104 0)
(-0.0537407 -0.310643 0)
(-0.0664361 -0.272583 0)
(0.0887327 -0.118689 0)
(0.413877 -0.126973 0)
(0.2242 -0.213982 0)
(0.0830064 -0.26723 0)
(0.00947952 -0.36592 0)
(-0.204615 -0.203524 0)
(-0.383824 -0.179648 0)
(-0.329586 -0.051985 0)
(0.457265 0.338102 0)
(0.417552 0.451122 0)
(0.497015 0.181557 0)
(0.553227 0.130909 0)
(0.512061 0.0382993 0)
(0.406128 0.0896275 0)
(0.271628 -0.0475042 0)
(0.301385 -0.0618508 0)
(0.232644 -0.0781159 0)
(0.319295 -0.0269244 0)
(0.475689 0.147534 0)
(0.608239 0.0526635 0)
(0.633336 0.260253 0)
(-0.176333 -0.179511 0)
(-0.0758223 -0.765823 0)
(0.047996 -0.568091 0)
(0.0225753 0.203495 0)
(-0.0108629 -0.17237 0)
(-0.0994947 -0.220046 0)
(-0.232947 -0.255535 0)
(-0.274655 -0.0254333 0)
(-0.743904 -0.177 0)
(-0.765477 -0.392567 0)
(-0.163877 -0.492907 0)
(0.0766444 0.20759 0)
(0.36387 0.014393 0)
(0.495261 -0.0219846 0)
(1.03007 0.0525294 0)
(0.956808 0.138258 0)
(0.754675 0.142091 0)
(0.52393 0.126076 0)
(0.430722 0.061695 0)
(0.463011 0.0788012 0)
(0.428148 -0.012844 0)
(0.573865 0.0166161 0)
(0.512944 0.0204776 0)
(-0.241887 0.117904 0)
(-0.0154764 -0.675395 0)
(-0.1037 -0.723199 0)
(-0.243147 0.0040328 0)
(-0.101194 -0.264656 0)
(-0.131312 -0.169921 0)
(-0.268203 -0.0457461 0)
(-0.560434 0.167986 0)
(-0.76567 -0.0668619 0)
(-0.326833 -0.377232 0)
(-0.201346 -0.812164 0)
(0.206943 0.0439546 0)
(0.243538 -0.054013 0)
(0.101199 -0.170019 0)
(0.246116 -0.283295 0)
(0.179284 -0.382999 0)
(0.402201 0.188318 0)
(0.574469 0.242731 0)
(0.681259 0.325386 0)
(0.693424 0.131034 0)
(0.727777 -0.0297785 0)
(0.735276 -0.0308345 0)
(0.695208 -0.0216473 0)
(0.0653371 0.159291 0)
(0.12335 -0.286142 0)
(-0.26364 -0.235096 0)
(-0.309044 -0.0183897 0)
(-0.100818 -0.165193 0)
(-0.171829 -0.229944 0)
(-0.219201 -0.0317418 0)
(-0.54051 0.193567 0)
(-0.669283 0.126207 0)
(-0.324655 -0.627197 0)
(-0.385481 -0.924389 0)
(0.0304261 0.116179 0)
(0.013002 -0.0893277 0)
(-0.16678 -0.227115 0)
(-0.094158 -0.330354 0)
(0.00128774 -0.253692 0)
(0.136131 -0.294982 0)
(0.722068 -0.134919 0)
(0.73616 0.0555052 0)
(0.69904 -0.00499438 0)
(0.795151 -0.0262514 0)
(0.81963 0.0387506 0)
(0.761302 0.0786246 0)
(0.00575138 -0.119684 0)
(0.0550152 -0.283612 0)
(-0.156728 -0.369692 0)
(-0.0749679 -0.091666 0)
(-0.195433 -0.169512 0)
(-0.220782 -0.0960344 0)
(-0.318032 0.213417 0)
(-0.634623 0.264466 0)
(-0.721485 0.257164 0)
(-0.408717 -0.657341 0)
(-0.413728 -0.978567 0)
(-0.101987 -0.59086 0)
(0.239015 0.286267 0)
(0.106254 0.0537566 0)
(-0.0744518 -0.225209 0)
(-0.0628772 -0.337242 0)
(0.0519798 -0.360754 0)
(0.12877 -0.145999 0)
(0.179956 -0.234697 0)
(0.472825 -0.164025 0)
(0.534558 -0.163956 0)
(0.526003 -0.0202488 0)
(0.530183 0.0884672 0)
(0.0645985 0.0403575 0)
(0.272896 -0.50127 0)
(0.159252 -0.338163 0)
(0.117363 -0.0501686 0)
(-0.0391712 -0.0506517 0)
(-0.208157 0.248 0)
(-0.293073 0.287223 0)
(-0.30895 0.214287 0)
(-0.398248 0.0211179 0)
(-0.232261 -0.809901 0)
(-0.370494 -1.05889 0)
(-0.20312 -1.43585 0)
(0.29233 -0.270719 0)
(0.32615 0.0743733 0)
(0.260325 -0.105479 0)
(0.131517 -0.332483 0)
(0.17108 -0.272348 0)
(0.00341541 -0.228232 0)
(0.097665 -0.256863 0)
(0.159101 -0.275224 0)
(0.126068 -0.0581548 0)
(0.235689 0.106606 0)
(0.278827 0.144275 0)
(-0.0118451 -0.407952 0)
(0.0895443 -0.381342 0)
(-0.0830314 -0.0311935 0)
(-0.0304336 0.293579 0)
(-0.0669277 0.241728 0)
(-0.0772361 0.292834 0)
(-0.201619 0.531543 0)
(-0.170701 0.424182 0)
(0.236083 0.101313 0)
(0.318373 -0.53054 0)
(-0.348553 -1.05153 0)
(-0.12986 -1.46725 0)
(0.446159 -0.875494 0)
(0.525349 0.0762072 0)
(0.395269 0.0252267 0)
(0.0934495 -0.351854 0)
(0.102381 -0.392632 0)
(0.0852213 -0.194914 0)
(0.119679 -0.288055 0)
(-0.02012 -0.369707 0)
(-0.0741552 -0.0530934 0)
(-0.0466298 -0.154008 0)
(-0.234049 0.0704895 0)
(-0.0545722 -0.512462 0)
(0.054338 -0.364502 0)
(-0.104969 -0.197896 0)
(0.0883165 0.00810511 0)
(0.0564937 0.0337769 0)
(0.0548438 0.213311 0)
(0.225154 0.229392 0)
(0.0989298 0.395028 0)
(0.534405 -0.126031 0)
(0.422851 -0.482351 0)
(0.103576 -0.491602 0)
(-0.0224128 -1.32424 0)
(0.126232 -0.551054 0)
(0.334749 0.213113 0)
(0.211615 0.0439495 0)
(0.162561 -0.323676 0)
(0.0570855 -0.197272 0)
(-0.0424508 -0.368403 0)
(-0.00848918 -0.279802 0)
(-0.102079 -0.38884 0)
(-0.0692264 -0.037497 0)
(-0.0598235 0.170867 0)
(-0.347061 0.326705 0)
(-0.123455 -0.417854 0)
(-0.0114518 -0.256472 0)
(-0.0949903 -0.127136 0)
(-0.0582944 0.0653943 0)
(0.0689085 0.134834 0)
(0.0657002 0.299823 0)
(0.179994 0.203775 0)
(0.470657 0.0750236 0)
(0.435172 -0.410094 0)
(0.298074 -0.407381 0)
(0.101727 -0.496819 0)
(0.0500235 -1.38572 0)
(0.0675121 -0.6595 0)
(0.14856 0.0482325 0)
(0.104928 0.112937 0)
(0.0620379 -0.0347444 0)
(-0.0530243 -0.391555 0)
(0.00042012 -0.182222 0)
(-0.0216225 -0.229815 0)
(-0.119582 -0.188335 0)
(-0.160441 -0.158388 0)
(-0.183212 0.106778 0)
(-0.26748 0.38138 0)
(-0.101138 -0.376875 0)
(-0.0506569 -0.27098 0)
(-0.0926279 -0.241293 0)
(-0.0803801 -0.110809 0)
(0.0396138 -0.0744981 0)
(0.103295 0.0852101 0)
(0.200582 0.110847 0)
(0.422313 -0.00341075 0)
(0.377878 -0.287567 0)
(0.386276 -0.179577 0)
(0.0213802 -0.189675 0)
(0.0778833 -1.3106 0)
(-0.0995281 -0.677173 0)
(-0.407499 0.0417084 0)
(0.0420602 0.12995 0)
(-0.0627248 -0.0126027 0)
(-0.0722254 -0.0865118 0)
(-0.103898 -0.145027 0)
(-0.129093 -0.150414 0)
(-0.171404 -0.124254 0)
(-0.182965 -0.0192944 0)
(-0.223767 0.139577 0)
(-0.116187 0.368429 0)
(-0.0705599 -0.284251 0)
(-0.0196967 -0.136374 0)
(-0.0293771 -0.255768 0)
(-0.031877 -0.0884182 0)
(0.103123 -0.158219 0)
(0.120827 -0.0768651 0)
(0.128189 -0.0876264 0)
(0.229014 -0.120916 0)
(0.32267 -0.203693 0)
(0.489029 -0.244524 0)
(0.555965 -0.130552 0)
(0.0645874 -1.38351 0)
(-0.38216 -0.606964 0)
(0.0630385 -0.339868 0)
(0.0626309 -0.0135415 0)
(0.0516275 0.108024 0)
(-0.0932064 -0.131472 0)
(-0.0741042 -0.220721 0)
(-0.148018 -0.163064 0)
(-0.218338 -0.105931 0)
(-0.187678 -0.0286639 0)
(-0.208438 0.0541221 0)
(-0.0464863 0.187057 0)
(0.0110212 -0.165418 0)
(-0.0126479 -0.123957 0)
(-0.0246607 -0.135662 0)
(0.0127347 -0.129877 0)
(0.0379495 -0.149611 0)
(0.130353 -0.153486 0)
(0.244269 -0.116318 0)
(0.261111 -0.216378 0)
(0.194651 -0.194647 0)
(0.23198 -0.224785 0)
(0.318794 -0.164924 0)
(0.0569893 -1.43136 0)
(-0.143105 -0.425635 0)
(-0.170603 -0.573029 0)
(-0.109253 0.0458972 0)
(-0.13918 0.1562 0)
(-0.229706 -0.0386579 0)
(-0.153182 -0.0520529 0)
(-0.155533 -0.131181 0)
(-0.213567 -0.0459917 0)
(-0.194968 -0.0487188 0)
(-0.210023 -0.00936036 0)
(-0.137191 0.0178509 0)
(-0.0670827 -0.0756099 0)
(-0.0253301 -0.113866 0)
(-0.00950961 -0.106861 0)
(-0.000600736 -0.139433 0)
(0.027571 -0.151393 0)
(0.0408268 -0.137016 0)
(0.0769391 -0.216934 0)
(0.127889 -0.324113 0)
(0.18819 -0.349679 0)
(0.195221 -0.233302 0)
(0.299319 -0.257387 0)
(0.0418037 -0.47013 0)
(-0.0992659 -0.344389 0)
(-0.177489 -0.23774 0)
(-0.17287 -0.0730066 0)
(-0.197467 -0.0144048 0)
(-0.124078 -0.0518742 0)
(-0.131724 -0.0166321 0)
(-0.186557 -0.0460556 0)
(-0.23359 -0.0334991 0)
(-0.187147 0.00337606 0)
(-0.125651 0.027115 0)
(-0.159099 -7.03259e-05 0)
(-0.0186109 -0.099852 0)
(-0.0051272 -0.130857 0)
(-0.0128665 -0.140112 0)
(0.0025064 -0.158871 0)
(0.00863479 -0.182178 0)
(0.000892205 -0.222327 0)
(0.0547495 -0.311464 0)
(0.0794811 -0.287826 0)
(0.00276804 -0.357395 0)
(0.0951333 -0.2832 0)
(0.0769037 -0.266375 0)
(-0.0222788 -0.573251 0)
(0.073505 -0.310859 0)
(-0.246195 -0.0908329 0)
(-0.319458 -0.0232848 0)
(-0.282629 -0.0679602 0)
(-0.153396 0.00216576 0)
(-0.138113 -0.0678466 0)
(-0.155425 -0.0133658 0)
(-0.178301 0.0180361 0)
(-0.155593 0.0198236 0)
(-0.169255 -0.0234489 0)
(-0.198718 -0.0332794 0)
(-0.0477921 -0.0756771 0)
(-0.00306258 -0.105054 0)
(-0.0276123 -0.13938 0)
(-0.0118757 -0.15702 0)
(0.00425448 -0.164946 0)
(-0.0765019 -0.253849 0)
(0.0860001 -0.219539 0)
(0.0429104 -0.388708 0)
(-0.087779 -0.357878 0)
(0.00984114 -0.268507 0)
(0.0659224 -0.163734 0)
(-0.0568921 -0.0535699 0)
(-0.199206 -0.076974 0)
(-0.288592 -0.0885072 0)
(-0.39277 -0.0122899 0)
(-0.21545 -0.0570738 0)
(-0.167699 0.0140748 0)
(-0.186096 -0.0168898 0)
(-0.151348 -0.00868886 0)
(-0.207455 -0.0268059 0)
(-0.233114 -0.042224 0)
(-0.140527 -0.0790436 0)
(-0.0266081 -0.00246022 0)
(0.04499 -0.159253 0)
(0.000162873 -0.170594 0)
(-0.0427783 -0.11715 0)
(-0.00592247 -0.164494 0)
(-0.0486158 -0.152424 0)
(-0.0115346 -0.263415 0)
(-0.0388259 -0.209078 0)
(-0.0284281 -0.462247 0)
(-0.067415 -0.425975 0)
(-0.0703968 -0.387486 0)
(-0.0585317 -0.269207 0)
(-0.252997 -0.239118 0)
(-0.309308 -0.151164 0)
(-0.323019 -0.20458 0)
(-0.402356 -0.129497 0)
(-0.190024 -0.039342 0)
(-0.127606 -0.0439487 0)
(-0.149981 -0.057089 0)
(-0.143844 -0.0545476 0)
(-0.187024 -0.088559 0)
(-0.186313 -0.00410723 0)
(-0.166339 -0.0421194 0)
(-0.206545 -0.0288101 0)
(-0.00120577 -0.174836 0)
(0.0605663 -0.192426 0)
(-0.0157114 -0.184618 0)
(-0.0183994 -0.108312 0)
(-0.0603001 -0.21472 0)
(-0.106058 -0.206713 0)
(-0.0753251 -0.24451 0)
(-0.12109 -0.256703 0)
(-0.082694 -0.273906 0)
(-0.151639 -0.281364 0)
(-0.155404 -0.243225 0)
(-0.198724 -0.314508 0)
(-0.228725 -0.198406 0)
(-0.258248 -0.266629 0)
(-0.265651 -0.12906 0)
(-0.175619 -0.0590455 0)
(-0.166448 -0.0548998 0)
(-0.184678 -0.0635598 0)
(-0.13192 -0.0954805 0)
(-0.117603 -0.0949652 0)
(-0.151274 -0.0715644 0)
(-0.194592 -0.0674828 0)
(-0.147309 -0.0082976 0)
(0.00997308 -0.213396 0)
(0.0109375 -0.201921 0)
(0.0406275 -0.22239 0)
(-0.0125441 -0.179218 0)
(-0.106812 -0.233345 0)
(-0.046756 -0.238412 0)
(-0.0391194 -0.189315 0)
(-0.0836071 -0.202684 0)
(-0.0967151 -0.204108 0)
(-0.12001 -0.202824 0)
(-0.145743 -0.163436 0)
(-0.154057 -0.13435 0)
(-0.224333 -0.141563 0)
(-0.252663 -0.140962 0)
(-0.167194 -0.0548744 0)
(-0.12511 -0.0363232 0)
(-0.154366 -0.0374255 0)
(-0.209997 -0.0102398 0)
(-0.186219 -0.0444516 0)
(-0.166918 -0.0489473 0)
(-0.152263 -0.0790467 0)
(-0.106979 -0.0348323 0)
(-0.198239 -0.0106788 0)
(-0.00366339 -0.22118 0)
(0.0118292 -0.206401 0)
(-0.00974412 -0.197995 0)
(0.000282879 -0.202034 0)
(-0.0503641 -0.198279 0)
(0.0268064 -0.164959 0)
(0.0170728 -0.237688 0)
(-0.115578 -0.183808 0)
(-0.0757193 -0.193412 0)
(-0.0344239 -0.186742 0)
(-0.0871966 -0.212456 0)
(-0.193901 -0.200885 0)
(-0.202974 -0.148827 0)
(-0.140471 -0.104417 0)
(-0.16675 -0.0467242 0)
(-0.131872 -0.0827336 0)
(-0.131137 -0.0986601 0)
(-0.166066 -0.0493972 0)
(-0.192529 -0.0462433 0)
(-0.191489 -0.0385213 0)
(-0.161881 -0.0553622 0)
(-0.0917168 -0.0393638 0)
(-0.152979 -0.121171 0)
(-0.0014237 -0.214474 0)
(-0.00276589 -0.195941 0)
(0.00505582 -0.180376 0)
(-0.0057323 -0.164573 0)
(-0.0132341 -0.210494 0)
(-0.00316711 -0.113345 0)
(0.0264808 -0.272221 0)
(-0.0207924 -0.215589 0)
(-0.12086 -0.178658 0)
(-0.103199 -0.173846 0)
(-0.0944145 -0.223439 0)
(-0.119108 -0.240402 0)
(-0.144004 -0.184937 0)
(-0.102984 -0.156862 0)
(-0.135224 -0.0764636 0)
(-0.164493 -0.0553487 0)
(-0.0953465 -0.120683 0)
(-0.15784 -0.11622 0)
(-0.168782 -0.120069 0)
(-0.14138 -0.0586639 0)
(-0.156766 -0.0544807 0)
(-0.145362 -0.0379053 0)
(-0.146854 -0.0733652 0)
(-0.0164808 -0.226219 0)
(0.00152862 -0.218024 0)
(-0.0408284 -0.211219 0)
(-0.00363446 -0.156102 0)
(0.0719571 -0.215255 0)
(0.0116741 -0.215887 0)
(-0.0661027 -0.211799 0)
(-0.0168975 -0.26721 0)
(-0.0703742 -0.256512 0)
(-0.0773569 -0.2146 0)
(-0.0556681 -0.200657 0)
(-0.122611 -0.179092 0)
(-0.0997973 -0.149553 0)
(-0.064321 -0.160554 0)
(-0.0971944 -0.118582 0)
(-0.156005 -0.120507 0)
(-0.161256 -0.100685 0)
(-0.164604 -0.150056 0)
(-0.127514 -0.0562214 0)
(-0.107935 -0.0513841 0)
(-0.139488 -0.0597242 0)
(-0.102504 -0.042724 0)
(-0.106675 -0.0709867 0)
(-0.0386982 -0.177879 0)
(-0.0303039 -0.145228 0)
(0.0353434 -0.142332 0)
(0.00511694 -0.125652 0)
(-0.00289165 -0.132444 0)
(0.053427 -0.245102 0)
(-0.0102068 -0.209304 0)
(-0.0107023 -0.207093 0)
(-0.0454714 -0.202042 0)
(-0.0523551 -0.178891 0)
(-0.0691294 -0.179359 0)
(-0.062902 -0.165941 0)
(-0.0804923 -0.101478 0)
(-0.0449482 -0.126078 0)
(-0.100645 -0.128275 0)
(-0.125413 -0.109671 0)
(-0.105482 -0.13769 0)
(-0.0866024 -0.115838 0)
(-0.0692461 -0.0750526 0)
(-0.138706 -0.040205 0)
(-0.133752 -0.0569824 0)
(-0.13116 -0.054852 0)
(-0.113439 -0.0404943 0)
(0.0220764 -0.0929903 0)
(0.019769 -0.110365 0)
(-0.00275489 -0.0825838 0)
(-0.0113949 -0.115971 0)
(-0.0271711 -0.101098 0)
(-0.0323345 -0.148317 0)
(0.0218566 -0.124923 0)
(0.0198405 -0.20732 0)
(-0.0177196 -0.174377 0)
(-0.0233975 -0.176867 0)
(-0.0377501 -0.186336 0)
(-0.0587093 -0.181981 0)
(-0.0561175 -0.173454 0)
(-0.0545768 -0.157244 0)
(-0.0171115 -0.163225 0)
(-0.138522 -0.147998 0)
(-0.139259 -0.111163 0)
(-0.0619528 -0.073631 0)
(-0.085673 -0.0881788 0)
(-0.0875429 -0.0952249 0)
(-0.132359 -0.0649821 0)
(-0.100743 -0.0472228 0)
(-0.102171 -0.0330262 0)
(0.00102785 -0.0810592 0)
(-0.00641402 -0.112855 0)
(-3.18439e-05 -0.110582 0)
(0.00156757 -0.102623 0)
(-0.0128812 -0.104327 0)
(-0.00748157 -0.100723 0)
(-0.0445479 -0.0974957 0)
(-0.030402 -0.111977 0)
(-0.0185454 -0.118672 0)
(-0.0669715 -0.127118 0)
(-0.0619219 -0.104757 0)
(-0.0339563 -0.110812 0)
(-0.0266308 -0.113411 0)
(0.00871178 -0.17348 0)
(-0.0666981 -0.143021 0)
(-0.0847026 -0.180108 0)
(-0.0404671 -0.0613829 0)
(-0.0363475 -0.121507 0)
(-0.0930913 -0.0948991 0)
(-0.10808 -0.128849 0)
(-0.0751277 -0.0522104 0)
(-0.122542 -0.0766632 0)
(-0.0648834 -0.0187193 0)
(0.00168272 -0.0900613 0)
(0.00620319 -0.109383 0)
(-0.00302783 -0.0957345 0)
(-0.00089142 -0.10165 0)
(-0.0137404 -0.0969652 0)
(-0.00680295 -0.115797 0)
(-0.00927666 -0.104017 0)
(-0.0124466 -0.0794063 0)
(-0.0238401 -0.105692 0)
(-0.0253124 -0.09484 0)
(-0.0324567 -0.0784446 0)
(-0.0470144 -0.0784977 0)
(-0.0511365 -0.083421 0)
(-0.0677459 -0.0834603 0)
(-0.0550098 -0.106434 0)
(-0.0409652 -0.0757668 0)
(-0.0682906 -0.104082 0)
(-0.0591697 -0.110672 0)
(-0.0548403 -0.120762 0)
(-0.0378066 -0.118769 0)
(-0.0833137 -0.0652233 0)
(-0.079329 -0.0346303 0)
(-0.0953354 -0.0252566 0)
(-0.00225572 -0.0872455 0)
(0.000945156 -0.107352 0)
(-0.00473923 -0.0998884 0)
(-6.57309e-05 -0.0912337 0)
(-0.0168627 -0.0952532 0)
(-0.00708633 -0.101868 0)
(-0.0223017 -0.0902131 0)
(-0.0196267 -0.0895476 0)
(-0.0233803 -0.0922367 0)
(-0.0321408 -0.102366 0)
(-0.0228795 -0.0781677 0)
(-0.0303177 -0.0843065 0)
(-0.0349073 -0.0928142 0)
(-0.0389213 -0.0927299 0)
(-0.0431147 -0.0921812 0)
(-0.0556027 -0.0843354 0)
(-0.0596532 -0.0943665 0)
(-0.0307739 -0.0641855 0)
(-0.0882667 -0.04744 0)
(-0.0637817 -0.0653155 0)
(-0.0289407 -0.0821877 0)
(-0.0982923 -0.00666944 0)
(-0.0823994 -0.0613698 0)
(-0.00229144 -0.090297 0)
(0.00630464 -0.107589 0)
(-0.00172718 -0.0980962 0)
(0.00615001 -0.0908615 0)
(-0.0110771 -0.0948685 0)
(-0.00177346 -0.113311 0)
(-0.0177112 -0.0977028 0)
(-0.0103377 -0.079777 0)
(-0.0158865 -0.0912379 0)
(-0.000732587 -0.0916766 0)
(-0.0149514 -0.0893701 0)
(-0.053466 -0.0697551 0)
(-0.05611 -0.0780336 0)
(-0.0612021 -0.0810812 0)
(0.00212487 -0.0647893 0)
(-0.0186277 -0.12365 0)
(-0.0616111 -0.0359661 0)
(-0.0203262 -0.0922092 0)
(-0.0733045 -0.0692089 0)
(-0.0722914 -0.0560192 0)
(-0.0601669 -0.0739412 0)
(-0.0440526 -0.0520705 0)
(-0.0919386 -0.00485216 0)
(-0.00347079 -0.0896256 0)
(0.00372018 -0.106593 0)
(-0.00549644 -0.0975426 0)
(0.00112198 -0.0788518 0)
(-0.0197479 -0.0839465 0)
(-0.00699573 -0.0874422 0)
(-0.016229 -0.0765341 0)
(-0.016614 -0.0858837 0)
(-0.0135238 -0.108942 0)
(-0.0268133 -0.116902 0)
(-0.0110645 -0.118939 0)
(-0.0316607 -0.0944149 0)
(-0.041304 -0.0870301 0)
(-0.0436892 -0.0881475 0)
(-0.0488723 -0.0665138 0)
(-0.0356258 -0.142453 0)
(-0.0422242 -0.0635886 0)
(-0.0393243 -0.119171 0)
(-0.0550962 -0.0704948 0)
(-0.049016 -0.0703561 0)
(-0.0523879 -0.0145643 0)
(-0.0527131 -0.041376 0)
(-0.0497066 -0.0316039 0)
(-0.00331944 -0.0913905 0)
(0.00679696 -0.106369 0)
(0.00334972 -0.0981507 0)
(0.0170567 -0.0789468 0)
(0.0147085 -0.0905511 0)
(0.017722 -0.1235 0)
(-0.0491178 -0.0970103 0)
(-0.0364411 -0.0822826 0)
(-0.0278555 -0.081429 0)
(-0.0234441 -0.0893963 0)
(-0.0215553 -0.0903109 0)
(-0.0451566 -0.0746527 0)
(-0.038824 -0.073699 0)
(-0.0558791 -0.0787936 0)
(-0.0463302 -0.0669095 0)
(-0.0106158 -0.0557748 0)
(-0.0265989 -0.034102 0)
(-0.0173808 -0.0645903 0)
(-0.0439919 -0.0566948 0)
(-0.038149 -0.061333 0)
(-0.0688731 -0.0674266 0)
(-0.093255 -0.0619364 0)
(-0.0609084 -0.033266 0)
(-0.00364854 -0.0927814 0)
(0.00303721 -0.107049 0)
(-0.00432669 -0.101278 0)
(0.0028075 -0.0815439 0)
(-0.00768024 -0.0974282 0)
(-0.00978204 -0.158106 0)
(-0.0104476 -0.137172 0)
(-0.0138761 -0.10312 0)
(0.00368675 -0.136437 0)
(-0.0284547 -0.130294 0)
(-0.0104457 -0.1395 0)
(-0.0287122 -0.0869894 0)
(-0.0323632 -0.0813492 0)
(-0.0405385 -0.0842079 0)
(-0.0313625 -0.0609612 0)
(-0.0116808 -0.0644757 0)
(-0.0479912 -0.0746294 0)
(-0.0274186 -0.0504506 0)
(-0.0369108 -0.08939 0)
(-0.0591123 -0.0620438 0)
(-0.0570201 -0.052642 0)
(-0.0362959 -0.0482548 0)
(-0.0349747 -0.0149986 0)
(-0.00264031 -0.0922908 0)
(0.00361417 -0.105766 0)
(-0.000786041 -0.100608 0)
(0.0103033 -0.0757789 0)
(-0.00209498 -0.0832543 0)
(0.00570574 -0.11651 0)
(-0.0326315 -0.0995014 0)
(-0.042117 -0.0959195 0)
(-0.0233991 -0.0809833 0)
(-0.00318644 -0.0705553 0)
(0.00997683 -0.0927155 0)
(-0.0242008 -0.0597206 0)
(-0.0225745 -0.067074 0)
(-0.0387822 -0.0771044 0)
(-0.0373921 -0.0615829 0)
(-0.0330238 -0.0650836 0)
(-0.0163247 -0.0631664 0)
(0.000429744 -0.0417431 0)
(-0.0312809 -0.0815672 0)
(-0.0109218 -0.0319124 0)
(-0.0443258 -0.0303811 0)
(-0.0425579 -0.0526175 0)
(-0.0665548 -0.0689041 0)
(-0.00270925 -0.0934221 0)
(3.82175e-05 -0.107932 0)
(-0.00681269 -0.103098 0)
(-0.00113424 -0.0787315 0)
(-0.0261619 -0.0968199 0)
(-0.0122718 -0.0857394 0)
(0.0281533 -0.11977 0)
(-0.0149582 -0.0699204 0)
(0.0108474 -0.0650342 0)
(-0.0161343 -0.0645648 0)
(0.0153691 -0.0954071 0)
(-0.0112098 -0.0815225 0)
(-0.0382015 -0.0756595 0)
(-0.0338963 -0.0781529 0)
(-0.027288 -0.0646086 0)
(-0.0151919 -0.0533384 0)
(-0.0305297 -0.0434574 0)
(-0.0286398 -0.0486251 0)
(0.00261504 -0.0341933 0)
(-0.017092 -0.0603095 0)
(-0.0581192 -0.0575626 0)
(-0.0344024 -0.0505426 0)
(-0.0369308 -0.111472 0)
(-0.00323073 -0.0898417 0)
(8.00772e-05 -0.104661 0)
(-0.0041233 -0.0967095 0)
(-0.00328248 -0.0705385 0)
(-0.00225566 -0.0579431 0)
(-0.00504086 -0.0703827 0)
(0.0242963 -0.0814914 0)
(-0.0239018 -0.0902035 0)
(-0.0377852 -0.0796799 0)
(-0.0271871 -0.0725487 0)
(-0.0140896 -0.0997992 0)
(-0.0113918 -0.094616 0)
(-0.0222383 -0.0775699 0)
(-0.0312163 -0.0808566 0)
(-0.0286261 -0.0691145 0)
(-0.0261829 -0.0613312 0)
(-0.0209676 -0.0549661 0)
(-0.0042763 -0.0435025 0)
(-0.0229298 -0.0304684 0)
(-0.0283663 -0.0723538 0)
(-0.000703591 -0.0199342 0)
(-0.0271834 -0.0457726 0)
(-0.0455334 -0.0319036 0)
(-0.00346497 -0.0923991 0)
(0.00186529 -0.104956 0)
(-0.00812168 -0.104666 0)
(0.0209966 -0.0739525 0)
(-0.0112296 -0.102923 0)
(-0.0305174 -0.0967165 0)
(-0.00631578 -0.103283 0)
(-0.0106752 -0.10692 0)
(-0.00691941 -0.0925397 0)
(-0.0146766 -0.0825957 0)
(-0.0180356 -0.111158 0)
(-0.00570198 -0.0764889 0)
(-0.0212936 -0.0687483 0)
(-0.0288631 -0.0768919 0)
(-0.0254788 -0.0702165 0)
(-0.0158283 -0.0594588 0)
(-0.0270136 -0.0447932 0)
(-0.0140101 -0.0493126 0)
(-0.00781777 -0.0380285 0)
(-0.00275548 -0.0625367 0)
(-0.0284538 -0.0119443 0)
(0.00795272 -0.0780851 0)
(-0.0444299 -0.0448313 0)
(-0.00143659 -0.0869555 0)
(-0.00163335 -0.102231 0)
(-0.00665153 -0.105636 0)
(0.00158477 -0.0745583 0)
(-0.000312157 -0.115273 0)
(-0.0124161 -0.0939812 0)
(-0.0101103 -0.0999946 0)
(-0.0170735 -0.0728782 0)
(-0.0311173 -0.0850606 0)
(-0.0218816 -0.0611144 0)
(-0.00566965 -0.0808907 0)
(0.0394521 -0.0847881 0)
(-0.0043347 -0.07606 0)
(-0.0287328 -0.0759247 0)
(-0.0303655 -0.0723116 0)
(-0.0242792 -0.0578762 0)
(-0.0311994 -0.0517831 0)
(-0.0151428 -0.0401844 0)
(-0.0164857 -0.0390954 0)
(-0.0106459 -0.0282346 0)
(-0.00727804 -0.032323 0)
(-0.0111056 -0.0456833 0)
(-0.0509534 -0.0674138 0)
(-0.00522347 -0.0915526 0)
(-0.00541706 -0.105352 0)
(-0.0133916 -0.104533 0)
(0.00223669 -0.0785862 0)
(-0.00457295 -0.0772822 0)
(-0.00823037 -0.0965633 0)
(-0.00627308 -0.0997805 0)
(0.00340591 -0.0871348 0)
(0.0106044 -0.0896637 0)
(0.00537644 -0.0928046 0)
(-0.0325292 -0.0731454 0)
(-0.0115226 -0.084846 0)
(-0.033034 -0.0871229 0)
(-0.0193572 -0.0826336 0)
(-0.0252806 -0.0770015 0)
(-0.0201199 -0.0622409 0)