/*--------------------------------*- C++ -*----------------------------------*\
| =========                 |                                                 |
| \\      /  F ield         | foam-extend: Open Source CFD                    |
|  \\    /   O peration     | Version:     4.1                                |
|   \\  /    A nd           | Web:         http://www.foam-extend.org         |
|    \\/     M anipulation  |                                                 |
\*---------------------------------------------------------------------------*/
FoamFile
{
    version     2.0;
    format      ascii;
    class       surfaceScalarField;
    location    "0.3";
    object      phi;
}
// * * * * * * * * * * * * * * * * * * * * * * * * * * * * * * * * * * * * * //

dimensions      [0 3 -1 0 0 0 0];

internalField   nonuniform List<scalar> 
4432
(
3.53053e-06
-3.53053e-06
6.8672e-06
-3.33668e-06
1.14468e-05
-4.57963e-06
1.4266e-05
-2.81919e-06
1.82305e-05
-3.96451e-06
2.1821e-05
-3.5905e-06
2.62935e-05
-4.47249e-06
3.03197e-05
-4.02616e-06
3.2532e-05
-2.21227e-06
3.28825e-05
-3.50573e-07
5.38648e-05
-2.09823e-05
5.75282e-05
-3.66338e-06
6.07001e-05
-3.17198e-06
6.16957e-05
-9.95601e-07
6.20583e-05
-3.62554e-07
6.19084e-05
1.49887e-07
6.09003e-05
1.00815e-06
5.95384e-05
1.36184e-06
5.63541e-05
3.18436e-06
4.85982e-05
7.75586e-06
3.68808e-05
1.17174e-05
2.2299e-05
1.45818e-05
2.2299e-05
3.55692e-06
-7.08745e-06
6.98443e-06
-6.76419e-06
1.149e-05
-9.08521e-06
1.42602e-05
-5.58937e-06
1.84077e-05
-8.11197e-06
2.21479e-05
-7.3307e-06
2.67144e-05
-9.03907e-06
3.02808e-05
-7.59258e-06
3.26438e-05
-4.57523e-06
3.31574e-05
-8.64132e-07
5.18809e-05
-3.97058e-05
5.64833e-05
-8.26583e-06
5.97935e-05
-6.48219e-06
6.09161e-05
-2.11816e-06
6.13685e-05
-8.14926e-07
6.10632e-05
4.55197e-07
5.96462e-05
2.42511e-06
5.77807e-05
3.22731e-06
5.53317e-05
5.63335e-06
4.78381e-05
1.52495e-05
3.65653e-05
2.29903e-05
1.99427e-05
3.12043e-05
4.22417e-05
3.51759e-06
-1.0605e-05
7.02994e-06
-1.02765e-05
1.13441e-05
-1.33994e-05
1.41841e-05
-8.4294e-06
1.87012e-05
-1.26291e-05
2.24671e-05
-1.10966e-05
2.63654e-05
-1.29373e-05
3.12596e-05
-1.24868e-05
3.22786e-05
-5.59426e-06
5.80479e-05
-2.66334e-05
5.19998e-05
-3.36577e-05
5.61549e-05
-1.24209e-05
5.8878e-05
-9.2053e-06
5.94817e-05
-2.72194e-06
5.92778e-05
-6.11024e-07
5.81236e-05
1.60941e-06
5.62989e-05
4.24983e-06
5.46751e-05
4.85117e-06
5.2074e-05
8.23438e-06
4.64288e-05
2.08947e-05
3.6854e-05
3.25651e-05
2.34184e-05
4.46398e-05
6.56601e-05
3.48687e-06
-1.40919e-05
7.10927e-06
-1.38989e-05
1.1155e-05
-1.74451e-05
1.46627e-05
-1.19371e-05
1.92979e-05
-1.72643e-05
2.23321e-05
-1.41308e-05
2.69469e-05
-1.75522e-05
2.85291e-05
-1.40689e-05
5.01106e-05
-2.71758e-05
5.06556e-05
-2.71784e-05
4.69324e-05
-2.99346e-05
4.86262e-05
-1.41146e-05
5.01901e-05
-1.07692e-05
5.11027e-05
-3.63459e-06
5.16238e-05
-1.1321e-06
5.11787e-05
2.05452e-06
4.98254e-05
5.60309e-06
4.88689e-05
5.80772e-06
4.75893e-05
9.51399e-06
4.1544e-05
2.694e-05
3.46887e-05
3.94204e-05
2.17817e-05
5.75468e-05
8.74419e-05
3.37937e-06
-1.74713e-05
7.06701e-06
-1.75866e-05
1.1087e-05
-2.14651e-05
1.48386e-05
-1.56887e-05
1.91336e-05
-2.15592e-05
2.18804e-05
-1.68776e-05
2.65292e-05
-2.22009e-05
2.68668e-05
-1.44066e-05
4.35939e-05
-4.39028e-05
4.28224e-05
-2.64069e-05
4.14091e-05
-2.85213e-05
4.44995e-05
-1.7205e-05
4.63289e-05
-1.25986e-05
4.7594e-05
-4.89961e-06
4.90438e-05
-2.58198e-06
4.98467e-05
1.2517e-06
4.97244e-05
5.72536e-06
4.76361e-05
7.896e-06
4.60203e-05
1.11298e-05
3.9971e-05
3.29893e-05
3.4224e-05
4.51674e-05
2.60949e-05
6.56759e-05
0.000113537
3.31525e-06
-2.07865e-05
7.2105e-06
-2.14818e-05
1.10873e-05
-2.53419e-05
1.45071e-05
-1.91085e-05
1.85861e-05
-2.56382e-05
2.24789e-05
-2.07704e-05
2.33777e-05
-2.30997e-05
3.95381e-05
-3.05671e-05
3.76641e-05
-4.20288e-05
4.02646e-05
-2.90074e-05
4.02953e-05
-2.8552e-05
4.35059e-05
-2.04157e-05
4.56098e-05
-1.47025e-05
4.77747e-05
-7.06453e-06
4.9844e-05
-4.6513e-06
5.06833e-05
4.12443e-07
5.08313e-05
5.57736e-06
4.94135e-05
9.31373e-06
4.80224e-05
1.2521e-05
4.14848e-05
3.95268e-05
3.61839e-05
5.04683e-05
2.66388e-05
7.5221e-05
0.000140176
3.2621e-06
-2.40486e-05
7.22605e-06
-2.54458e-05
1.06847e-05
-2.88005e-05
1.39202e-05
-2.2344e-05
1.81255e-05
-2.98435e-05
1.97999e-05
-2.24448e-05
1.98078e-05
-2.31077e-05
3.5163e-05
-4.59222e-05
3.60184e-05
-4.28842e-05
3.89813e-05
-3.19702e-05
4.06583e-05
-3.0229e-05
4.45777e-05
-2.43351e-05
4.75858e-05
-1.77106e-05
5.09222e-05
-1.04009e-05
5.24684e-05
-6.19743e-06
5.32671e-05
-3.86335e-07
5.36601e-05
5.18444e-06
5.08666e-05
1.21072e-05
5.09278e-05
1.24597e-05
4.41462e-05
4.63085e-05
4.30866e-05
5.15278e-05
1.98349e-05
9.84727e-05
0.000160011
3.43144e-06
-2.74801e-05
7.31209e-06
-2.93264e-05
1.03558e-05
-3.18442e-05
1.33042e-05
-2.52925e-05
1.73613e-05
-3.39006e-05
1.78719e-05
-2.29555e-05
3.24111e-05
-3.76468e-05
3.33513e-05
-4.68625e-05
3.60177e-05
-4.55506e-05
3.96263e-05
-3.55789e-05
4.26369e-05
-3.32396e-05
4.70571e-05
-2.87552e-05
5.05967e-05
-2.12502e-05
5.36094e-05
-1.34136e-05
5.44831e-05
-7.07113e-06
5.45106e-05
-4.13796e-07
5.58663e-05
3.82876e-06
5.52132e-05
1.27603e-05
5.39323e-05
1.37406e-05
4.88302e-05
5.14106e-05
4.88217e-05
5.15364e-05
2.06395e-05
0.000126655
0.00018065
2.28384e-06
-2.28384e-06
5.28704e-05
-5.05865e-05
6.84505e-05
-1.55801e-05
4.55357e-05
2.29148e-05
2.36241e-05
2.19116e-05
1.22518e-05
1.13722e-05
1.14025e-05
8.49332e-07
1.37319e-05
-2.32935e-06
1.91805e-05
-5.44859e-06
2.51721e-05
-5.99163e-06
3.38773e-05
-8.70518e-06
4.46342e-05
-1.07569e-05
5.20977e-05
-7.46354e-06
6.64099e-05
-1.43122e-05
7.03967e-05
-3.98676e-06
4.19966e-05
2.84e-05
3.04496e-05
1.15471e-05
1.54888e-05
1.49608e-05
1.54887e-05
5.72173e-06
-8.00557e-06
5.95856e-05
-0.00010445
7.55807e-05
-3.15752e-05
4.88412e-05
4.96543e-05
2.34806e-05
4.72722e-05
9.37791e-06
2.54749e-05
1.00716e-05
1.55673e-07
1.39794e-05
-6.2371e-06
1.97555e-05
-1.12247e-05
2.6211e-05
-1.24472e-05
3.56639e-05
-1.81581e-05
4.63359e-05
-2.14289e-05
5.44102e-05
-1.55378e-05
7.2464e-05
-3.23661e-05
3.97346e-05
2.87427e-05
4.32382e-05
2.48964e-05
3.12112e-05
2.35741e-05
1.61121e-05
3.006e-05
3.16008e-05
1.70575e-05
-2.50631e-05
5.50995e-05
-0.000142492
7.52542e-05
-5.17298e-05
4.48954e-05
8.00131e-05
7.02138e-06
8.51462e-05
5.24659e-06
2.72497e-05
7.93651e-06
-2.53423e-06
1.15686e-05
-9.8692e-06
1.81027e-05
-1.77588e-05
2.64693e-05
-2.08138e-05
3.83679e-05
-3.00568e-05
4.63802e-05
-2.94413e-05
5.46546e-05
-2.38122e-05
4.10145e-05
-1.87259e-05
4.12618e-05
2.84954e-05
4.37744e-05
2.23838e-05
3.19656e-05
3.53829e-05
1.65358e-05
4.54898e-05
4.81366e-05
2.03604e-05
-4.54235e-05
3.37274e-05
-0.000155859
5.66811e-05
-7.46835e-05
1.82747e-05
0.000118419
-5.36152e-06
0.000108782
-9.03985e-06
3.09281e-05
1.48505e-06
-1.30591e-05
9.41094e-06
-1.77951e-05
1.59021e-05
-2.42499e-05
2.41723e-05
-2.90841e-05
3.86861e-05
-4.45706e-05
4.87177e-05
-3.94728e-05
5.8128e-05
-3.32225e-05
4.45751e-05
-5.17299e-06
8.10791e-05
-8.00861e-06
4.37158e-05
5.97472e-05
3.32972e-05
4.58014e-05
1.76037e-05
6.11834e-05
6.57402e-05
3.59555e-05
-8.1379e-05
9.98858e-06
-0.000129892
2.07268e-05
-8.54217e-05
2.31358e-06
0.000136833
-1.74967e-05
0.000128593
-2.27859e-05
3.62172e-05
-1.02199e-06
-3.4823e-05
3.91528e-06
-2.27323e-05
1.17331e-05
-3.20678e-05
2.33942e-05
-4.07452e-05
3.96828e-05
-6.08592e-05
5.72952e-05
-5.70852e-05
5.86494e-05
-3.45766e-05
8.16685e-05
-2.81921e-05
4.72699e-05
2.63899e-05
4.55383e-05
6.14788e-05
3.31405e-05
5.81992e-05
1.73463e-05
7.69777e-05
8.30865e-05
9.53313e-06
-9.09121e-05
4.73357e-06
-0.000125093
-4.40662e-06
-7.62815e-05
-5.58445e-05
0.00018827
-3.10255e-05
0.000103774
-3.14023e-05
3.6594e-05
-5.45254e-06
-6.07728e-05
1.6965e-06
-2.98814e-05
7.91167e-06
-3.8283e-05
1.81948e-05
-5.10284e-05
4.70579e-05
-8.97223e-05
3.18323e-05
-4.18595e-05
3.64969e-05
-3.92413e-05
5.07923e-05
-4.24874e-05
4.99653e-05
2.72169e-05
4.62064e-05
6.52377e-05
3.35367e-05
7.0869e-05
1.76636e-05
9.28508e-05
0.00010075
7.5201e-06
-9.84322e-05
-1.45357e-05
-0.000103037
-4.49648e-05
-4.58525e-05
-4.17205e-05
0.000185026
-3.83585e-05
0.000100412
-4.35425e-05
4.17781e-05
-9.71214e-06
-9.46032e-05
-4.33124e-06
-3.52623e-05
2.87121e-06
-4.54854e-05
1.24931e-05
-6.06503e-05
2.42831e-05
-0.000101512
6.50544e-05
-8.26308e-05
7.38296e-05
-4.80164e-05
5.18201e-05
-2.04779e-05
5.3134e-05
2.5903e-05
4.7824e-05
7.05478e-05
3.46336e-05
8.40594e-05
1.81103e-05
0.000109374
0.00011886
2.84395e-05
-0.000126872
2.78138e-05
-0.000102411
-1.22092e-05
-5.82947e-06
-4.57752e-05
0.000218592
-8.33754e-05
0.000138012
-6.41127e-05
2.25153e-05
-1.30365e-05
-0.000145679
-9.04037e-07
-4.73947e-05
7.80007e-06
-5.41895e-05
2.2029e-05
-7.48792e-05
4.47964e-05
-0.00012428
6.80429e-05
-0.000105877
8.4224e-05
-6.41975e-05
5.54222e-05
8.32391e-06
5.68578e-05
2.44674e-05
5.08978e-05
7.65079e-05
3.64652e-05
9.8492e-05
1.88977e-05
0.000126942
0.000137758
6.95087e-06
-3.44309e-05
1.42929e-05
-3.66685e-05
1.97113e-05
-3.72626e-05
2.79504e-05
-3.35315e-05
3.25693e-05
-3.85195e-05
5.63635e-05
-4.67497e-05
6.49108e-05
-4.6194e-05
7.01204e-05
-5.20721e-05
7.70219e-05
-5.2452e-05
8.6982e-05
-4.5539e-05
9.76454e-05
-4.39029e-05
0.00010809
-3.92e-05
0.000115358
-2.85185e-05
0.000119598
-1.76536e-05
0.000121461
-8.93382e-06
0.000122547
-1.50027e-06
0.000123196
3.1799e-06
0.000123673
1.22837e-05
0.000126236
1.11774e-05
0.000119118
5.8529e-05
8.36281e-05
8.7026e-05
7.7425e-05
0.000132858
8.27135e-05
0.000175361
6.39973e-06
-4.08307e-05
1.40786e-05
-4.43474e-05
1.95362e-05
-4.27202e-05
3.71681e-05
-5.11634e-05
4.5803e-05
-4.71544e-05
5.46172e-05
-5.55639e-05
6.06663e-05
-5.22431e-05
6.91009e-05
-6.05068e-05
8.18403e-05
-6.51914e-05
9.50584e-05
-5.8757e-05
0.000109052
-5.78968e-05
0.000122156
-5.23035e-05
0.000128408
-3.47704e-05
0.000128725
-1.79713e-05
0.00012501
-5.21797e-06
0.000128226
-4.71692e-06
0.000126108
5.29851e-06
0.000121274
1.71174e-05
8.29261e-05
4.95252e-05
9.31551e-05
4.83e-05
0.000100579
7.96025e-05
0.000189735
4.37013e-05
5.13119e-05
0.000221137
9.52273e-06
-5.03534e-05
1.88646e-05
-5.36892e-05
2.84693e-05
-5.2325e-05
3.61853e-05
-5.88794e-05
4.43253e-05
-5.52943e-05
5.06468e-05
-6.18854e-05
6.00553e-05
-6.16516e-05
7.04416e-05
-7.08931e-05
8.40159e-05
-7.87656e-05
9.82674e-05
-7.30086e-05
0.000116866
-7.64958e-05
0.000136254
-7.16912e-05
0.000143471
-4.19876e-05
0.000136284
-1.07836e-05
0.000135524
-4.4579e-06
0.00013932
-8.51307e-06
0.000140635
3.98286e-06
0.000142778
1.49749e-05
0.000157006
3.52974e-05
0.000163952
4.13534e-05
0.000181587
6.19683e-05
0.000180809
4.44789e-05
3.24002e-05
0.000199721
9.81916e-06
-6.01725e-05
1.88726e-05
-6.27426e-05
2.76674e-05
-6.11197e-05
3.39283e-05
-6.51403e-05
4.14044e-05
-6.27705e-05
4.82685e-05
-6.87495e-05
5.55867e-05
-6.89698e-05
6.50854e-05
-8.03918e-05
7.98833e-05
-9.35636e-05
0.000100999
-9.4124e-05
0.000134506
-0.000110003
0.000158784
-9.59687e-05
0.000156341
-3.95453e-05
0.000150864
-5.30679e-06
0.000147218
-8.11314e-07
0.000146897
-8.19203e-06
0.000156312
-5.43196e-06
0.000160796
1.04908e-05
0.000152752
4.33406e-05
0.000154532
3.95741e-05
0.000168296
4.8204e-05
0.000179659
3.31156e-05
2.89356e-05
0.000183124
9.05419e-06
-6.92267e-05
1.63335e-05
-7.0022e-05
2.50396e-05
-6.98258e-05
3.24139e-05
-7.25146e-05
3.8184e-05
-6.85406e-05
4.39462e-05
-7.45117e-05
4.92973e-05
-7.43209e-05
5.8317e-05
-8.94115e-05
7.54289e-05
-0.000110675
0.000111597
-0.000130292
0.000147209
-0.000145615
0.000162915
-0.000111675
0.000169761
-4.63917e-05
0.000171136
-6.68136e-06
0.00017427
-3.94557e-06
0.000181407
-1.53286e-05
0.000186281
-1.0306e-05
0.000102672
9.40992e-05
9.29318e-05
5.3081e-05
9.5259e-05
3.72469e-05
0.000177638
-3.41754e-05
0.000187928
2.28264e-05
2.12712e-05
0.000195592
9.28267e-06
-7.85094e-05
1.70154e-05
-7.77547e-05
2.7552e-05
-8.03624e-05
3.16308e-05
-7.65934e-05
3.59645e-05
-7.28744e-05
4.24279e-05
-8.09751e-05
4.93107e-05
-8.12037e-05
5.51589e-05
-9.52597e-05
6.92377e-05
-0.000124754
9.55596e-05
-0.000156614
0.000107214
-0.000157269
0.000116577
-0.000121038
0.000152155
-8.197e-05
0.000169847
-2.4373e-05
0.00018411
-1.82082e-05
0.000211842
-4.30606e-05
0.00025285
-5.13148e-05
0.000311655
3.52949e-05
0.000307475
5.72606e-05
0.00027669
6.80317e-05
0.000183892
5.86232e-05
0.000161191
4.55276e-05
-2.23826e-05
0.000204844
5.62415e-06
-8.41336e-05
1.21737e-05
-8.43042e-05
2.29432e-05
-9.1132e-05
3.68258e-05
-9.0476e-05
4.69132e-05
-8.29617e-05
5.03589e-05
-8.44207e-05
5.55797e-05
-8.64245e-05
6.5098e-05
-0.000104778
7.38536e-05
-0.00013351
7.0659e-05
-0.000153419
5.39483e-05
-0.000140558
8.25289e-05
-0.000149619
0.000105881
-0.000105322
0.000131235
-4.97267e-05
0.000167392
-5.43652e-05
0.000219853
-9.55217e-05
0.000279052
-0.000110514
0.000355394
-4.10465e-05
0.000450854
-3.82e-05
0.000517153
1.73337e-06
0.000538225
3.75513e-05
0.000529797
5.3955e-05
2.80858e-05
0.000479329
5.04091e-06
-8.91744e-05
1.22145e-05
-9.14778e-05
3.11154e-05
-0.000110033
4.9446e-05
-0.000108807
6.07057e-05
-9.42214e-05
6.94037e-05
-9.31187e-05
7.89546e-05
-9.59755e-05
9.24486e-05
-0.000118272
0.000100558
-0.00014162
0.000103613
-0.000156474
5.4766e-05
-9.17115e-05
8.81251e-05
-0.000182978
7.02942e-05
-8.74914e-05
9.11432e-05
-7.05758e-05
0.000145123
-0.000108345
0.000194003
-0.000144401
0.000235995
-0.000152506
0.000282015
-8.70666e-05
0.00036421
-0.000120395
0.000435866
-6.99226e-05
0.000488571
-1.51539e-05
0.00047453
6.79961e-05
0.000192397
0.000310218
4.57829e-06
-9.37527e-05
1.19662e-05
-9.88657e-05
2.68979e-05
-0.000124964
4.22211e-05
-0.00012413
5.20096e-05
-0.00010401
6.29859e-05
-0.000104095
7.06524e-05
-0.000103642
7.60194e-05
-0.000123639
4.87214e-05
-0.000114322
4.29772e-05
-0.00015073
0.000112884
-0.000161619
0.000108663
-0.000178756
0.000112193
-9.10221e-05
0.000121436
-7.98189e-05
0.000151632
-0.000138541
0.000169788
-0.000162558
0.000186394
-0.000169112
0.000239353
-0.000140026
0.000251357
-0.000132399
0.000261425
-7.99907e-05
0.000255502
-9.23085e-06
0.000315266
8.2325e-06
2.84306e-05
0.000479233
9.0276e-06
-0.00010278
2.03102e-05
-0.000110148
3.13015e-05
-0.000135956
4.33208e-05
-0.000136149
5.0153e-05
-0.000110842
6.05941e-05
-0.000114536
7.2138e-05
-0.000115186
7.3748e-05
-0.000125249
7.24032e-05
-0.000112977
4.97926e-05
-0.000128119
4.99213e-05
-0.000161747
4.17152e-05
-0.00017055
4.27838e-05
-9.20907e-05
0.00010384
-0.000140875
0.000123648
-0.000158349
9.5903e-05
-0.000134813
0.000102864
-0.000176073
9.7681e-05
-0.000134843
0.000140349
-0.000175067
0.000195824
-0.000135466
0.00026926
-8.26667e-05
0.000315714
-3.82212e-05
-1.61728e-05
0.000360317
1.07614e-05
-0.000113542
2.37027e-05
-0.00012309
3.56467e-05
-0.0001479
4.51353e-05
-0.000145638
5.13499e-05
-0.000117057
6.26009e-05
-0.000125787
6.85895e-05
-0.000121174
7.14328e-05
-0.000128092
7.62429e-05
-0.000117787
8.49433e-05
-0.000136819
8.53481e-05
-0.000162152
8.45437e-05
-0.000169746
8.23103e-05
-8.98573e-05
9.45814e-05
-0.000153146
8.10713e-05
-0.000144839
9.65216e-05
-0.000150263
9.86256e-05
-0.000178177
0.000140397
-0.000176614
0.000142997
-0.000177667
0.000157915
-0.000150384
0.000139113
-6.3865e-05
0.000182687
-8.17949e-05
-0.000138199
0.000304713
1.01096e-05
-0.000123651
1.43943e-05
-0.000127374
3.13902e-05
-0.000164896
3.79049e-05
-0.000152152
4.61726e-05
-0.000125324
4.23912e-05
-0.000122006
4.87655e-05
-0.000127549
8.30007e-05
-0.000162327
4.64226e-05
-8.12087e-05
9.48449e-05
-0.000185242
3.14106e-05
-9.8718e-05
5.50297e-05
-0.000193365
4.99199e-05
-8.47475e-05
9.2555e-05
-0.000195781
0.000116152
-0.000168436
0.000144151
-0.000178262
0.00015658
-0.000190605
0.000143103
-0.000163138
0.000143171
-0.000177735
0.000124811
-0.000132024
0.000169794
-0.000108849
0.000161793
-7.37935e-05
-0.000157745
0.000181339
7.45533e-06
-0.000131107
1.35404e-05
-0.000133459
2.68407e-05
-0.000178196
3.43148e-05
-0.000159626
3.19145e-05
-0.000122924
3.89865e-05
-0.000129078
6.00919e-05
-0.000148654
7.71694e-05
-0.000179405
9.86935e-05
-0.000102733
3.82817e-05
-0.00012483
5.12175e-05
-0.000111654
6.29094e-05
-0.000205057
7.17285e-05
-9.35667e-05
8.11791e-05
-0.000205232
9.7847e-05
-0.000185104
8.45998e-05
-0.000165015
9.91059e-05
-0.000205112
0.000159705
-0.000223737
0.0001085
-0.000126529
0.000208842
-0.000232366
0.000175754
-7.57609e-05
0.000286702
-0.000184742
-8.04006e-05
0.000209358
8.7273e-06
-0.000139834
1.73212e-05
-0.000142053
2.5393e-05
-0.000186268
2.30156e-05
-0.000157249
2.69032e-05
-0.000126812
3.45903e-05
-0.000136765
5.12674e-05
-0.000165331
5.13495e-05
-0.000179487
5.56498e-05
-0.000107033
4.65623e-05
-0.000115742
4.47839e-05
-0.000109875
5.20441e-05
-0.000212317
5.56364e-05
-9.71589e-05
4.85121e-05
-0.000198107
6.10882e-05
-0.00019768
0.000113188
-0.000217115
0.000122711
-0.000214635
0.000132809
-0.000233835
0.000127788
-0.000121509
0.000149918
-0.000254496
0.000293724
-0.000219567
0.000332185
-0.000223202
-0.000181718
0.000433503
8.59078e-06
-0.000148425
1.86956e-05
-0.000152158
2.82516e-05
-0.000195824
3.26892e-05
-0.000161687
2.1954e-05
-0.000116076
3.92582e-05
-0.000154069
2.86562e-05
-0.000154729
1.81208e-05
-0.000168952
8.88564e-05
-0.000177769
7.54546e-05
-0.000102341
0.000101365
-0.000135786
2.18718e-05
-0.000132824
4.47496e-05
-0.000120037
5.82406e-05
-0.000211599
0.000120716
-0.000260155
6.29761e-05
-0.000159375
0.000126791
-0.00027845
5.0306e-05
-0.000157349
0.000182373
-0.000253575
0.000150831
-0.000222954
0.000182362
-0.000251099
0.000218889
-0.000259729
-0.000210585
0.000247755
4.4161e-06
-0.000152841
1.06895e-05
-0.000158431
1.52104e-05
-0.000200345
1.80754e-05
-0.000164552
1.50521e-05
-0.000113053
3.05073e-05
-0.000169524
2.77804e-05
-0.000152002
2.91481e-05
-0.000170319
2.33581e-05
-0.000171979
8.38811e-05
-0.000162864
5.3481e-05
-0.000105386
4.30797e-05
-0.000122422
4.46701e-05
-0.000121627
7.88522e-05
-0.000245781
8.98978e-05
-0.000271201
6.43087e-05
-0.000133786
7.51625e-05
-0.000289304
8.63908e-05
-0.000168578
0.000122531
-0.000289715
0.000159844
-0.000260267
0.000199423
-0.000290677
0.000229729
-0.000290036
-0.000236646
0.00025579
3.16918e-06
-0.00015601
7.42232e-06
-0.000162685
1.48349e-05
-0.000207757
1.06212e-05
-0.000160338
2.16519e-05
-0.000124084
2.28748e-05
-0.000170747
2.07844e-05
-0.000149912
2.44704e-05
-0.000174005
4.29034e-05
-0.000190412
7.93684e-05
-0.000199329
7.5304e-05
-0.000101321
6.84431e-05
-0.000115562
6.80196e-05
-0.000121204
7.33208e-05
-0.000251082
4.03378e-05
-0.000238218
0.000105247
-0.000198695
8.55698e-05
-0.000269627
9.37789e-05
-0.000176787
0.000119307
-0.000315244
0.000162369
-0.000303329
0.000209734
-0.000338042
0.000225043
-0.000305344
-0.000334219
0.000322616
7.44371e-06
-0.000163454
1.83417e-05
-0.000173583
1.41778e-05
-0.000203593
2.90047e-05
-0.000175165
2.39314e-07
-9.53184e-05
1.71539e-05
-0.000187662
2.17924e-05
-0.00015455
2.11411e-05
-0.000173354
3.85467e-05
-0.000207817
6.69793e-05
-0.000227761
7.55513e-05
-0.000109893
8.29634e-05
-0.000122974
8.991e-05
-0.00012815
9.13137e-05
-0.000252486
5.1394e-05
-0.000198298
7.01555e-05
-0.000217456
5.5386e-05
-0.000254858
0.00016427
-0.000285671
0.000140717
-0.00029169
0.000180312
-0.000342924
0.000209426
-0.000367156
0.000236777
-0.000332696
-0.000467077
0.000369635
-1.17249e-05
-0.000151729
-2.83366e-05
-0.000156971
1.25383e-05
-0.000244468
-6.61666e-06
-0.00015601
3.23979e-05
-0.000134333
2.16542e-06
-0.000157429
-2.82495e-05
-0.000124135
1.84207e-05
-0.000220024
3.37348e-05
-0.000223131
4.23207e-05
-0.000236347
6.48837e-05
-0.000132456
7.64768e-05
-0.000134567
8.95341e-05
-0.000141207
7.07882e-05
-0.00023374
0.000119115
-0.000246624
4.74133e-05
-0.000145755
0.000108402
-0.000315846
0.000137062
-0.000314331
0.000184565
-0.000339193
0.000184435
-0.000342795
0.000227765
-0.000410485
0.000380251
-0.000485182
-0.000542817
0.000455992
1.56665e-05
-0.000167395
3.59733e-05
-0.000177278
-2.20009e-05
-0.000186494
-1.21351e-05
-0.000165876
1.48308e-05
-0.000161299
2.50279e-05
-0.000167626
6.14715e-05
-0.000160579
1.1819e-05
-0.000170372
4.07783e-05
-0.000252091
5.00963e-05
-0.000245665
5.00421e-05
-0.000132402
4.70996e-05
-0.000131624
0.000162571
-0.000256679
7.96402e-05
-0.000150809
3.11753e-05
-0.000198159
6.08758e-05
-0.000175455
9.41524e-05
-0.000349122
0.000121892
-0.00034207
0.000111805
-0.000329106
0.000151486
-0.000382476
0.000195687
-0.000454687
0.000259666
-0.000549161
-0.000733185
0.000450034
2.75605e-06
-0.000170151
3.65602e-06
-0.000178178
4.82473e-07
-0.000183321
1.02677e-06
-0.00016642
1.27401e-05
-0.000173012
1.33693e-05
-0.000168256
2.88826e-05
-0.000176092
2.72594e-05
-0.000168749
4.04901e-05
-0.000265321
6.87684e-05
-0.000273943
8.14267e-05
-0.00014506
0.000106184
-0.000156382
2.90405e-05
-0.000179535
5.21255e-05
-0.000173894
4.53949e-05
-0.000191429
5.49901e-05
-0.000185051
6.48618e-05
-0.000358994
7.52591e-05
-0.000352468
8.92336e-05
-0.000343081
0.000121017
-0.000414258
0.000149437
-0.000483108
0.00020147
-0.000601194
-0.000793977
0.000262263
6.27284e-06
-0.000176424
7.67843e-06
-0.000179583
2.50919e-06
-0.000178151
1.27819e-05
-0.000176693
9.85469e-06
-0.000170085
1.65603e-05
-0.000174961
1.27992e-05
-0.000172331
9.63097e-05
-0.000252259
9.75601e-05
-0.000266572
1.02476e-05
-0.000186631
2.44234e-05
-0.000159236
4.0733e-05
-0.000172692
4.48142e-05
-0.000183616
6.33795e-05
-0.000192459
7.18361e-05
-0.000199886
8.70253e-05
-0.00020024
7.08448e-05
-0.000342814
7.16785e-05
-0.000353301
0.000113654
-0.000385057
9.35258e-05
-0.00039413
0.000110558
-0.00050014
0.000132229
-0.000622865
-0.000795157
0.000133408
-8.46148e-06
-0.000167963
-6.27673e-06
-0.000181768
-1.07342e-05
-0.000173694
-2.20464e-05
-0.00016538
3.58857e-05
-0.000228017
1.88552e-05
-0.000157931
7.94532e-05
-0.000232929
4.28061e-05
-0.000215612
4.08507e-05
-0.000264616
2.2668e-05
-0.000168448
3.05898e-05
-0.000167158
2.80258e-05
-0.000170128
2.48984e-05
-0.000180489
3.95245e-05
-0.000207085
4.89618e-05
-0.000209323
6.81094e-05
-0.000219387
8.36401e-05
-0.000358344
0.000151428
-0.000421089
4.64529e-05
-0.000280082
0.000102812
-0.000450489
0.00011092
-0.000508248
7.48071e-05
-0.000586752
-0.000754499
3.4149e-05
4.58208e-05
-0.000213783
1.47362e-05
-0.000150683
-2.09952e-06
-0.000156858
3.79778e-05
-0.000205458
1.81626e-05
-0.000208202
6.90895e-05
-0.000208858
3.7286e-05
-0.000201126
4.27797e-05
-0.000221105
2.94356e-05
-0.000251272
9.90257e-06
-0.000148915
5.78731e-06
-0.000163042
6.10073e-06
-0.000170441
2.85239e-06
-0.00017724
1.06672e-06
-0.0002053
9.76744e-05
-0.00030593
7.99155e-05
-0.000201629
9.28311e-05
-0.00037126
7.83207e-05
-0.000406578
5.6423e-05
-0.000258185
5.95029e-05
-0.000453569
4.85108e-05
-0.000497256
4.64133e-05
-0.000584655
-0.000684263
-2.38227e-05
-3.29324e-05
-0.000180851
8.51138e-06
-0.000192127
6.35588e-05
-0.000211906
4.66447e-05
-0.000188543
4.31364e-05
-0.000204694
3.62211e-05
-0.000201942
8.44414e-05
-0.000249346
2.29195e-05
-0.000159583
-4.64672e-05
-0.000181885
-2.63749e-05
-0.000169007
-1.22303e-05
-0.000177187
-3.55836e-06
-0.000179113
1.00207e-05
-0.00019082
1.24355e-05
-0.000207714
5.68493e-05
-0.000350344
5.44162e-05
-0.000199195
7.136e-05
-0.000388204
5.85562e-05
-0.000393775
5.152e-05
-0.000251148
5.03957e-05
-0.000452444
4.26605e-05
-0.00048952
5.26917e-05
-0.000594686
-0.000476544
-0.000155027
3.41416e-06
-0.000184265
7.26921e-06
-0.000195982
4.35055e-06
-0.000208987
1.6136e-05
-0.000200329
2.45021e-05
-0.00021306
4.50743e-05
-0.000222514
-3.20189e-05
-0.000172253
-1.88913e-05
-0.000172711
-2.13467e-05
-0.00017943
-1.77486e-05
-0.000172606
-1.98577e-05
-0.000175078
-2.48478e-05
-0.000174123
-4.02177e-05
-0.00017545
3.30265e-05
-0.000280959
3.76034e-05
-0.000354921
0.000148384
-0.000309976
2.54619e-05
-0.000265282
3.43615e-05
-0.000402674
5.16885e-05
-0.000268475
8.48302e-05
-0.000485586
-4.92926e-05
-0.000355398
-4.28474e-05
-0.000601131
-0.000419414
-9.99768e-05
-6.28892e-06
-0.000177976
1.99096e-05
-0.000222181
6.46346e-05
-0.000253712
2.0795e-05
-0.000156489
-1.31872e-05
-0.000179078
-4.72725e-05
-0.000188429
-2.85594e-05
-0.000190966
-2.36591e-05
-0.000177611
-2.42109e-05
-0.000178878
-2.12449e-05
-0.000175572
-1.855e-05
-0.000177773
-1.83871e-05
-0.000174286
-1.69467e-05
-0.00017689
4.7626e-06
-0.000302668
4.85127e-06
-0.00035501
3.19161e-05
-0.000337041
1.71558e-05
-0.000250521
1.06662e-05
-0.000396185
1.44439e-05
-0.000272253
2.76255e-06
-0.000473905
-4.76583e-05
-0.000304977
-8.09134e-05
-0.000567876
-0.000340636
-0.000159692
1.19763e-05
-0.000189953
-1.27245e-05
-0.00019748
-6.51721e-05
-0.000201264
-2.96359e-05
-0.000192025
-1.87283e-05
-0.000189985
-1.4736e-05
-0.000192421
-2.26228e-05
-0.000183079
-2.12757e-05
-0.000178958
-2.121e-05
-0.000178944
-2.01986e-05
-0.000176583
-2.06514e-05
-0.00017732
-2.1334e-05
-0.000173603
-1.94855e-05
-0.000178739
-7.83849e-06
-0.000314315
-1.02187e-05
-0.000352629
8.96636e-06
-0.000356226
4.20129e-08
-0.000241597
6.94139e-06
-0.000403084
2.02746e-06
-0.000267339
3.9521e-06
-0.000475829
-1.51875e-05
-0.000285837
-0.000223406
-0.000359658
-0.000369943
-0.000194099
-1.50222e-06
-0.00018845
-4.434e-06
-0.000194548
-8.65096e-06
-0.000197047
-1.07699e-05
-0.000189907
-1.27083e-05
-0.000188047
-2.17923e-05
-0.000183337
-2.22537e-05
-0.000182618
-2.03903e-05
-0.000180822
-2.0045e-05
-0.000179289
-1.87489e-05
-0.000177879
-1.87262e-05
-0.000177343
-1.69009e-05
-0.000175428
-1.65026e-05
-0.000179137
-2.33198e-05
-0.000307498
-2.7042e-05
-0.000348907
-2.26049e-05
-0.000360663
3.39377e-05
-0.00029814
-9.00112e-05
-0.000279135
-1.76276e-05
-0.000339723
-6.05584e-05
-0.000432899
-6.82711e-05
-0.000278125
-0.000119262
-0.000308667
-0.000319539
-0.000169666
-1.90638e-06
-0.000186544
-6.01132e-06
-0.000190443
-1.26511e-05
-0.000190408
-1.40544e-05
-0.000188503
-1.77737e-05
-0.000184328
-1.77989e-05
-0.000183312
-1.82405e-05
-0.000182176
-1.73616e-05
-0.000181701
-1.64892e-05
-0.000180162
-1.51335e-05
-0.000179235
-1.24871e-05
-0.000179989
-1.05205e-05
-0.000177395
-1.41631e-05
-0.000175494
-1.78764e-05
-0.000303784
-3.82551e-05
-0.000328529
-4.35128e-05
-0.000355405
-1.77864e-05
-0.000323866
-3.10578e-05
-0.000265864
-2.26019e-05
-0.000348179
-0.000185168
-0.000270333
-7.65256e-05
-0.000386767
-0.000127104
-0.000258088
-0.000270195
-0.000176449
-2.15271e-06
-0.000184391
-5.06363e-06
-0.000187532
-7.93574e-06
-0.000187535
-1.01866e-05
-0.000186252
-1.31761e-05
-0.000181338
-1.46161e-05
-0.000181872
-1.55437e-05
-0.000181248
-1.55219e-05
-0.000181722
-1.43393e-05
-0.000181344
-1.08002e-05
-0.000182774
-6.95057e-06
-0.000183839
6.08939e-06
-0.000190435
1.4726e-05
-0.000184131
-7.36384e-05
-0.00021542
-6.75918e-05
-0.000334575
-7.4171e-05
-0.000348826
-5.06599e-05
-0.000347377
2.46856e-05
-0.000341209
-7.02051e-05
-0.000253288
-8.59283e-05
-0.000254609
-0.000227282
-0.000245413
-0.000120004
-0.000365366
-0.000235525
-0.000154673
-2.26041e-06
-0.000182131
-5.30315e-06
-0.000184489
-7.4869e-06
-0.000185352
-1.2401e-05
-0.000181338
-1.23987e-05
-0.00018134
-1.42922e-05
-0.000179979
-1.543e-05
-0.000180111
-1.70649e-05
-0.000180087
-1.81829e-05
-0.000180226
-1.96425e-05
-0.000181314
-2.17241e-05
-0.000181757
-2.5961e-05
-0.000186198
-2.76234e-05
-0.000182468
-4.55985e-05
-0.000197445
-4.91269e-05
-0.000331047
-5.82804e-05
-0.000339672
-6.7233e-05
-0.000338425
-7.13775e-05
-0.000337065
-9.04309e-05
-0.000234235
-0.000123182
-0.000221858
-0.000143129
-0.000225466
-0.000136728
-0.000371767
-0.000207673
-0.00016458
-2.78361e-06
-0.000179347
-5.52148e-06
-0.000181751
-8.91981e-06
-0.000181953
-1.07161e-05
-0.000179542
-1.21717e-05
-0.000179885
-1.34665e-05
-0.000178684
-1.52305e-05
-0.000178347
-1.72383e-05
-0.00017808
-1.93642e-05
-0.0001781
-2.21833e-05
-0.000178495
-2.48767e-05
-0.000179064
-2.9878e-05
-0.000181197
-3.37932e-05
-0.000178553
-5.11767e-05
-0.000180061
-5.76237e-05
-0.0003246
-6.98443e-05
-0.000327452
-8.75158e-05
-0.000320753
-0.000107484
-0.000317097
-0.000145799
-0.000195919
-0.000100364
-0.000267293
-4.86081e-05
-0.000277222
-0.00023255
-0.000187825
-0.000296885
-0.000143338
-2.30569e-06
-0.000177041
-4.6868e-06
-0.00017937
-7.41121e-06
-0.000179229
-8.95894e-06
-0.000177994
-1.11155e-05
-0.000177728
-1.28717e-05
-0.000176928
-1.47755e-05
-0.000176443
-1.68977e-05
-0.000175958
-1.94346e-05
-0.000175563
-2.27341e-05
-0.000175196
-2.62936e-05
-0.000175504
-3.14846e-05
-0.000176006
-3.59659e-05
-0.000174072
-4.27969e-05
-0.00017323
-4.83918e-05
-0.000319005
-5.86186e-05
-0.000317225
-7.67605e-05
-0.000302611
-9.08118e-05
-0.000303046
-2.06085e-05
-0.000266122
-0.000110248
-0.000177654
-0.00011547
-0.000272001
-0.000119211
-0.000184084
-0.000235882
-0.000180214
-1.46617e-06
-0.000175575
-3.61473e-06
-0.000177222
-5.39433e-06
-0.000177449
-7.30574e-06
-0.000176083
-9.4119e-06
-0.000175622
-1.12755e-05
-0.000175064
-1.32597e-05
-0.000174459
-1.5366e-05
-0.000173851
-1.78282e-05
-0.000173101
-2.07405e-05
-0.000172284
-2.48739e-05
-0.000171371
-2.99274e-05
-0.000170952
-3.50496e-05
-0.00016895
-4.14554e-05
-0.000166824
-4.60362e-05
-0.000314424
-5.24548e-05
-0.000310806
-5.90348e-05
-0.000296031
-7.49368e-05
-0.000287144
-8.18594e-05
-0.0002592
-0.000103189
-0.000156324
-0.000120633
-0.000254557
-0.000142599
-0.000162117
-0.0002538
-0.000124681
-1.22966e-06
-0.000174346
-2.90062e-06
-0.000175551
-4.51838e-06
-0.000175832
-5.89966e-06
-0.000174702
-7.34356e-06
-0.000174178
-8.74493e-06
-0.000173663
-1.04242e-05
-0.000172779
-1.22265e-05
-0.000172049
-1.44713e-05
-0.000170856
-1.69866e-05
-0.000169768
-2.01918e-05
-0.000168166
-2.40349e-05
-0.000167109
-2.83925e-05
-0.000164592
-3.27831e-05
-0.000162434
-3.81791e-05
-0.000309028
-4.56204e-05
-0.000303365
-5.11165e-05
-0.000290535
-5.83566e-05
-0.000279903
-5.18767e-05
-0.000265679
-5.09826e-05
-0.000157218
-0.00015975
-0.000145789
-0.000114451
-0.000207417
-0.000193358
-0.000174892
-1.20301e-06
-0.000173143
-2.33725e-06
-0.000174417
-3.67936e-06
-0.000174489
-4.82252e-06
-0.000173558
-5.91917e-06
-0.000173081
-7.24352e-06
-0.000172338
-8.56659e-06
-0.000171456
-1.01197e-05
-0.000170496
-1.19747e-05
-0.000169001
-1.40796e-05
-0.000167663
-1.70145e-05
-0.000165231
-2.04989e-05
-0.000163625
-2.4982e-05
-0.000160109
-2.84414e-05
-0.000158974
-3.3655e-05