/*--------------------------------*- C++ -*----------------------------------*\
| =========                 |                                                 |
| \\      /  F ield         | foam-extend: Open Source CFD                    |
|  \\    /   O peration     | Version:     4.1                                |
|   \\  /    A nd           | Web:         http://www.foam-extend.org         |
|    \\/     M anipulation  |                                                 |
\*---------------------------------------------------------------------------*/
FoamFile
{
    version     2.0;
    format      ascii;
    class       volVectorField;
    location    "0.3";
    object      U;
}
// * * * * * * * * * * * * * * * * * * * * * * * * * * * * * * * * * * * * * //

dimensions      [0 1 -1 0 0 0 0];

internalField   nonuniform List<vector> 
2268
(
(0.0441487 -0.00655513 0)
(0.063098 -0.00606057 0)
(0.146537 -0.00851557 0)
(0.200488 -0.00378214 0)
(0.235182 -0.00821459 0)
(0.317755 -0.00641737 0)
(0.347048 -0.00642725 0)
(0.453061 -0.00846574 0)
(0.46487 -0.00216016 0)
(0.529549 -0.0378194 0)
(0.453067 -0.0383588 0)
(0.396319 -0.00145339 0)
(0.477306 -0.00260504 0)
(0.473209 -0.000145717 0)
(0.48232 0.000993325 0)
(0.479821 0.00257106 0)
(0.4739 0.00630878 0)
(0.462307 0.00129614 0)
(0.45093 0.00376778 0)
(0.412554 0.00997941 0)
(0.335155 0.0300766 0)
(0.228322 0.0150367 0)
(0.114767 0.0475415 0)
(0.0439561 -0.0188384 0)
(0.0641062 -0.0179504 0)
(0.149068 -0.02451 0)
(0.199314 -0.0165214 0)
(0.236174 -0.0203729 0)
(0.322167 -0.0193794 0)
(0.352638 -0.0259264 0)
(0.458604 -0.0208147 0)
(0.455241 -0.0129987 0)
(0.544351 0.0379303 0)
(0.43913 -0.126272 0)
(0.391429 -0.0231474 0)
(0.469569 -0.0198649 0)
(0.465886 -0.00659855 0)
(0.477396 -0.0037414 0)
(0.475015 -0.00167694 0)
(0.466511 0.00708369 0)
(0.447936 0.0161747 0)
(0.437903 0.0209058 0)
(0.40918 0.0458215 0)
(0.32876 0.0557498 0)
(0.229564 0.0908847 0)
(0.0783434 0.115752 0)
(0.0424066 -0.0322101 0)
(0.0644783 -0.0307598 0)
(0.150028 -0.0409567 0)
(0.193995 -0.0236269 0)
(0.23922 -0.0379385 0)
(0.328034 -0.0334165 0)
(0.356712 -0.0389275 0)
(0.445035 -0.0330464 0)
(0.500931 -0.0219568 0)
(0.481177 -0.0558793 0)
(0.413658 -0.152777 0)
(0.40014 -0.045466 0)
(0.460002 -0.0299838 0)
(0.45377 -0.00986352 0)
(0.458144 -0.00202113 0)
(0.450742 0.0088198 0)
(0.43989 0.0111216 0)
(0.423037 0.0298505 0)
(0.415102 0.0580903 0)
(0.38059 0.0651247 0)
(0.33345 0.1093 0)
(0.229527 0.133709 0)
(0.130149 0.189101 0)
(0.0402615 -0.0440573 0)
(0.0657118 -0.0432028 0)
(0.151127 -0.0556686 0)
(0.187233 -0.0370937 0)
(0.260356 -0.0532679 0)
(0.325235 -0.0460302 0)
(0.355298 -0.0551282 0)
(0.461818 -0.0592336 0)
(0.398722 -0.0540709 0)
(0.388761 -0.125183 0)
(0.38477 -0.107727 0)
(0.352991 -0.0429236 0)
(0.391565 -0.0367213 0)
(0.386901 -0.00994889 0)
(0.39668 -0.00280678 0)
(0.393971 0.0116367 0)
(0.390479 0.0195413 0)
(0.373157 0.0406544 0)
(0.377256 0.061259 0)
(0.34932 0.0863968 0)
(0.290401 0.127331 0)
(0.239374 0.190518 0)
(0.094406 0.28712 0)
(0.0364624 -0.0574622 0)
(0.0662765 -0.0568858 0)
(0.149205 -0.0699789 0)
(0.18717 -0.0485595 0)
(0.265846 -0.0706506 0)
(0.314043 -0.0565178 0)
(0.352809 -0.0694842 0)
(0.452729 -0.0392596 0)
(0.356112 -0.152841 0)
(0.329049 -0.0857809 0)
(0.32738 -0.107694 0)
(0.320173 -0.060449 0)
(0.360595 -0.0431313 0)
(0.354422 -0.0166729 0)
(0.374896 -0.00520375 0)
(0.375952 0.00568911 0)
(0.388934 0.0215537 0)
(0.373971 0.0404327 0)
(0.359979 0.0763785 0)
(0.340574 0.108585 0)
(0.27534 0.157161 0)
(0.246447 0.223897 0)
(0.15423 0.346216 0)
(0.0317073 -0.0681523 0)
(0.0691 -0.0697056 0)
(0.150699 -0.0847595 0)
(0.185723 -0.0648985 0)
(0.256838 -0.085516 0)
(0.307229 -0.062946 0)
(0.374861 -0.0964917 0)
(0.331901 -0.0672791 0)
(0.282993 -0.162278 0)
(0.30346 -0.104662 0)
(0.311955 -0.103853 0)
(0.314126 -0.0659048 0)
(0.350067 -0.0492172 0)
(0.351523 -0.0187735 0)
(0.380854 -0.0137927 0)
(0.38239 0.00323147 0)
(0.394801 0.0201085 0)
(0.384783 0.0755583 0)
(0.376994 0.0811109 0)
(0.357076 0.131669 0)
(0.283192 0.16836 0)
(0.270414 0.253411 0)
(0.138418 0.481061 0)
(0.0262309 -0.0816189 0)
(0.0730199 -0.0849302 0)
(0.147077 -0.0977323 0)
(0.177001 -0.0717097 0)
(0.247255 -0.0983737 0)
(0.299 -0.0912226 0)
(0.306772 -0.0633951 0)
(0.286872 -0.158328 0)
(0.263854 -0.151331 0)
(0.294124 -0.108733 0)
(0.302404 -0.104438 0)
(0.325396 -0.0817708 0)
(0.354364 -0.05719 0)
(0.374604 -0.032493 0)
(0.404955 -0.0196425 0)
(0.399975 -0.000354514 0)
(0.422248 0.0204404 0)
(0.399759 0.0525657 0)
(0.388425 0.103447 0)
(0.382998 0.154012 0)
(0.306352 0.199888 0)
(0.358217 0.296397 0)
(0.237686 0.53222 0)
(0.0249914 -0.0911809 0)
(0.0794324 -0.0982301 0)
(0.143083 -0.10987 0)
(0.169939 -0.0921003 0)
(0.234021 -0.119855 0)
(0.292319 -0.0654808 0)
(0.247537 -0.114958 0)
(0.25379 -0.172405 0)
(0.260289 -0.163982 0)
(0.294485 -0.122502 0)
(0.309671 -0.116158 0)
(0.344763 -0.0950044 0)
(0.372479 -0.0724045 0)
(0.401659 -0.0427473 0)
(0.417759 -0.0258128 0)
(0.414552 -0.00191224 0)
(0.421303 0.0170424 0)
(0.430773 0.0382854 0)
(0.421568 0.0682154 0)
(0.403026 0.185251 0)
(0.366663 0.172652 0)
(0.385651 0.424566 0)
(0.238024 0.639511 0)
(-0.119951 -0.0199191 0)
(0.203134 -0.053964 0)
(0.586648 -0.0326457 0)
(0.473423 0.0647678 0)
(0.235532 0.0766564 0)
(0.119895 0.0597381 0)
(0.0716319 0.000194625 0)
(0.0976808 -0.00959883 0)
(0.114384 -0.0179545 0)
(0.17723 -0.0173541 0)
(0.206527 -0.0290423 0)
(0.320902 -0.037672 0)
(0.353115 -0.0148655 0)
(0.474782 -0.0650775 0)
(0.521637 -0.0323356 0)
(0.605612 0.075028 0)
(0.614036 0.0211691 0)
(0.324849 0.0248572 0)
(0.133152 0.024367 0)
(-0.0810663 0.00574014 0)
(0.268543 -0.265771 0)
(0.643154 -0.060251 0)
(0.516892 0.230015 0)
(0.25209 0.209731 0)
(0.0988271 0.0708814 0)
(0.0502814 0.0112913 0)
(0.0977876 -0.01695 0)
(0.117301 -0.0517684 0)
(0.182762 -0.0594422 0)
(0.217099 -0.0813778 0)
(0.33886 -0.0285412 0)
(0.360186 -0.0343105 0)
(0.510857 -0.114629 0)
(0.584312 0.00521156 0)
(0.645482 0.100389 0)
(0.62052 0.0570931 0)
(0.338863 0.0733624 0)
(0.139126 0.0772951 0)
(-0.00545403 -0.111876 0)
(0.261655 -0.504248 0)
(0.61313 -0.165567 0)
(0.527712 0.409096 0)
(0.179809 0.39195 0)
(0.0371488 0.12587 0)
(0.0384071 -0.0106939 0)
(0.0790652 -0.0294682 0)
(0.0988278 -0.0933465 0)
(0.175289 -0.101326 0)
(0.229857 -0.155861 0)
(0.364728 -0.122172 0)
(0.342413 -0.0695463 0)
(0.53956 -0.0991998 0)
(0.644833 0.188005 0)
(0.636667 0.0882191 0)
(0.633415 0.0983836 0)
(0.349568 0.124558 0)
(0.141275 0.129565 0)
(0.145818 -0.214507 0)
(0.192504 -0.365969 0)
(0.32357 -0.157142 0)
(0.541457 0.631889 0)
(0.0288821 0.705585 0)
(-0.122825 0.191788 0)
(-0.018629 -0.021009 0)
(0.065096 -0.0314353 0)
(0.0780999 -0.133843 0)
(0.160598 -0.167755 0)
(0.212686 -0.219834 0)
(0.386386 -0.256088 0)
(0.357131 -0.0815455 0)
(0.582283 -0.0261064 0)
(0.697479 -0.0209417 0)
(0.627874 0.158335 0)
(0.643222 0.132157 0)
(0.378564 0.17432 0)
(0.145039 0.186172 0)
(0.397017 -0.065255 0)
(0.146597 -0.781022 0)
(0.0227095 -0.467397 0)
(0.288218 0.858175 0)
(-0.215232 0.633865 0)
(-0.305728 0.221366 0)
(-0.0555438 -0.0663054 0)
(0.0263113 -0.0995316 0)
(0.0349284 -0.178487 0)
(0.140063 -0.198472 0)
(0.215645 -0.371821 0)
(0.417828 -0.222098 0)
(0.440492 -0.173948 0)
(0.507216 -0.0382888 0)
(0.729599 -0.00922307 0)
(0.710324 0.225282 0)
(0.639027 0.173026 0)
(0.37288 0.227494 0)
(0.14496 0.244011 0)
(0.194109 -0.472751 0)
(0.0942333 -0.868647 0)
(-0.013777 -0.607429 0)
(-0.140578 0.866025 0)
(-0.670296 0.270349 0)
(-0.302161 0.217822 0)
(-0.170546 -0.163946 0)
(0.00515573 -0.183376 0)
(0.023122 -0.231727 0)
(0.0830707 -0.345708 0)
(0.22381 -0.352249 0)
(0.49117 -0.201253 0)
(0.464339 -0.250748 0)
(0.666397 -0.154122 0)
(0.818294 0.152427 0)
(0.716852 0.204375 0)
(0.644805 0.208885 0)
(0.381519 0.278098 0)
(0.146911 0.300753 0)
(0.188176 -0.718652 0)
(0.0489327 -0.742334 0)
(-0.429958 -0.279466 0)
(-0.360812 0.527129 0)
(-0.818889 0.419448 0)
(-0.385021 0.260717 0)
(-0.263405 -0.235461 0)
(-0.0284844 -0.199754 0)
(-0.0434842 -0.260293 0)
(0.121047 -0.236028 0)
(0.263653 -0.277509 0)
(0.48006 -0.267273 0)
(0.508841 -0.247377 0)
(0.659377 -0.120338 0)
(0.870633 0.0687924 0)
(0.755244 0.223382 0)
(0.665363 0.254098 0)
(0.392813 0.330563 0)
(0.150051 0.358891 0)
(0.263001 -0.539008 0)
(0.196737 -0.572816 0)
(0.239991 -0.0804352 0)
(-0.439571 0.691427 0)
(-0.810856 0.863615 0)
(-0.58006 0.246841 0)
(-0.362621 -0.41817 0)
(-0.0306696 -0.246004 0)
(0.00423996 -0.328232 0)
(0.130029 -0.177376 0)
(0.244774 -0.389863 0)
(0.431222 -0.305101 0)
(0.615696 -0.383259 0)
(0.718495 -0.00988094 0)
(0.922191 0.0861802 0)
(0.816702 0.242425 0)
(0.699215 0.29731 0)
(0.410729 0.387872 0)
(0.155577 0.421522 0)
(0.0260429 -0.115272 0)
(0.0736343 -0.120647 0)
(0.129635 -0.12681 0)
(0.152625 -0.0856133 0)
(0.247253 -0.128236 0)
(0.208892 -0.13362 0)
(0.21026 -0.171131 0)
(0.252638 -0.174698 0)
(0.257782 -0.168748 0)
(0.295636 -0.144464 0)
(0.330169 -0.129143 0)
(0.372252 -0.122477 0)
(0.4044 -0.0848522 0)
(0.424264 -0.0606546 0)
(0.437184 -0.0236367 0)
(0.434562 -0.00053274 0)
(0.453994 0.00959845 0)
(0.435648 0.0653687 0)
(0.479429 0.0209009 0)
(0.42058 0.196217 0)
(0.477769 0.248195 0)
(0.66697 0.53896 0)
(0.450448 0.712696 0)
(0.0357384 -0.132353 0)
(0.0556915 -0.143464 0)
(0.145898 -0.142381 0)
(0.1294 -0.160522 0)
(0.143549 -0.152177 0)
(0.186347 -0.201198 0)
(0.211273 -0.170527 0)
(0.227757 -0.200014 0)
(0.270359 -0.212432 0)
(0.318932 -0.184872 0)
(0.363883 -0.189384 0)
(0.421228 -0.161368 0)
(0.456705 -0.124278 0)
(0.467862 -0.0667162 0)
(0.458503 -0.0433314 0)
(0.442564 -0.0103067 0)
(0.491945 0.0317255 0)
(0.414417 0.101375 0)
(0.502211 0.14668 0)
(0.637506 0.219638 0)
(0.722278 0.364627 0)
(0.686234 0.436901 0)
(0.720107 0.467606 0)
(0.0220365 -0.161831 0)
(0.0463596 -0.176318 0)
(0.0900886 -0.167022 0)
(0.114517 -0.20842 0)
(0.14878 -0.19005 0)
(0.168385 -0.204638 0)
(0.198826 -0.207758 0)
(0.231131 -0.240674 0)
(0.276844 -0.258978 0)
(0.326584 -0.241125 0)
(0.380397 -0.228651 0)
(0.4584 -0.216423 0)
(0.524597 -0.124255 0)
(0.504031 -0.0653079 0)
(0.485445 -0.0281181 0)
(0.49604 -0.0226208 0)
(0.522397 0.0121671 0)
(0.497738 0.0307867 0)
(0.556717 0.207888 0)
(0.579284 0.149169 0)
(0.648697 0.241517 0)
(0.667184 0.19696 0)
(0.683166 0.277617 0)
(0.0239771 -0.201409 0)
(0.0464859 -0.21102 0)
(0.0897549 -0.21109 0)
(0.108429 -0.218334 0)
(0.137027 -0.210103 0)
(0.160259 -0.242572 0)
(0.18848 -0.238496 0)
(0.211454 -0.271517 0)
(0.256917 -0.311332 0)
(0.318439 -0.286871 0)
(0.40698 -0.326708 0)
(0.560022 -0.306603 0)
(0.581266 -0.188125 0)
(0.548681 -0.0865101 0)
(0.538746 -0.0391606 0)
(0.535257 -0.041858 0)
(0.537772 0.0131315 0)
(0.597835 0.0733066 0)
(0.570739 0.278389 0)
(0.553157 0.158522 0)
(0.584458 0.208677 0)
(0.653461 0.131477 0)
(0.650947 0.163173 0)
(0.0204811 -0.233309 0)
(0.0442431 -0.242375 0)
(0.0734358 -0.230608 0)
(0.105701 -0.252416 0)
(0.127778 -0.245275 0)
(0.146556 -0.254987 0)
(0.169518 -0.260774 0)
(0.185218 -0.311891 0)
(0.234215 -0.365507 0)
(0.306633 -0.3962 0)
(0.493039 -0.472072 0)
(0.567902 -0.390339 0)
(0.61742 -0.359046 0)
(0.615593 0.00749033 0)
(0.623071 0.0349115 0)
(0.650352 -0.0131913 0)
(0.664538 -0.0478668 0)
(0.74548 0.0911166 0)
(0.651132 0.0762495 0)
(0.687653 0.1321 0)
(0.653379 0.153061 0)
(0.655692 0.113492 0)
(0.714382 0.0673052 0)
(0.031512 -0.266083 0)
(0.0348816 -0.262339 0)
(0.0875226 -0.273753 0)
(0.109472 -0.270095 0)
(0.119419 -0.252989 0)
(0.140315 -0.282696 0)
(0.164981 -0.27591 0)
(0.189024 -0.334093 0)
(0.210609 -0.436999 0)
(0.291587 -0.546656 0)
(0.403342 -0.597302 0)
(0.379172 -0.4249 0)
(0.468169 -0.317565 0)
(0.616524 -0.0570903 0)
(0.628265 -0.0630134 0)
(0.7063 -0.105695 0)
(0.830722 -0.0967015 0)
(1.03636 0.544784 0)
(1.2723 0.329556 0)
(0.990544 0.36814 0)
(1.19572 -0.323975 0)
(1.31054 0.0440691 0)
(0.925065 0.0642117 0)
(0.0121699 -0.298561 0)
(0.0275608 -0.296446 0)
(0.0624087 -0.302785 0)
(0.0996315 -0.282106 0)
(0.168211 -0.278184 0)
(0.169288 -0.302949 0)
(0.198735 -0.309748 0)
(0.197434 -0.355668 0)
(0.285516 -0.465385 0)
(0.235969 -0.58892 0)
(0.32717 -0.52749 0)
(0.361744 -0.45358 0)
(0.2924 -0.257106 0)
(0.440028 -0.267197 0)
(0.533975 -0.0731869 0)
(0.659425 -0.202965 0)
(0.930553 -0.28083 0)
(1.09256 -0.0168414 0)
(1.46689 0.0607159 0)
(1.78244 0.153723 0)
(2.00569 0.63091 0)
(2.08117 0.590119 0)
(1.95103 -0.182569 0)
(0.0280841 -0.313858 0)
(0.00786433 -0.312338 0)
(0.0806294 -0.357485 0)
(0.14274 -0.368898 0)
(0.214995 -0.321147 0)
(0.22267 -0.312078 0)
(0.284094 -0.324802 0)
(0.289862 -0.414146 0)
(0.381975 -0.533668 0)
(0.358118 -0.555336 0)
(0.396132 -0.57816 0)
(0.381672 -0.652161 0)
(0.261315 -0.557814 0)
(0.246455 -0.448927 0)
(0.410806 -0.322632 0)
(0.635853 -0.483169 0)
(0.776009 -0.514592 0)
(0.909984 -0.587578 0)
(1.16514 -0.508194 0)
(1.40694 -0.150754 0)
(1.7663 -0.0512206 0)
(1.75027 0.175672 0)
(1.86131 0.646661 0)
(0.0058699 -0.329086 0)
(0.0256435 -0.348344 0)
(0.0638724 -0.437507 0)
(0.127034 -0.420218 0)
(0.179195 -0.361482 0)
(0.191911 -0.365901 0)
(0.265675 -0.36971 0)
(0.239349 -0.451427 0)
(0.344055 -0.468559 0)
(0.287359 -0.598168 0)
(0.360191 -0.657156 0)
(0.433423 -0.689191 0)
(0.38744 -0.661813 0)
(0.414136 -0.576195 0)
(0.486216 -0.467117 0)
(0.608762 -0.597742 0)
(0.631864 -0.60448 0)
(0.764319 -0.625355 0)
(0.975308 -0.409143 0)
(0.86686 -0.375874 0)
(1.15422 -0.0604794 0)
(2.32742 0.252241 0)
(2.06602 0.557846 0)
(-5.46586e-05 -0.349051 0)
(0.0644881 -0.365873 0)
(0.0830611 -0.469419 0)
(0.141583 -0.477403 0)
(0.170977 -0.391238 0)
(0.191324 -0.388873 0)
(0.246613 -0.388194 0)
(0.278888 -0.47086 0)
(0.257999 -0.404762 0)
(0.284066 -0.494976 0)
(0.407919 -0.574377 0)
(0.312485 -0.629176 0)
(0.280764 -0.650636 0)
(0.346681 -0.551251 0)
(0.383276 -0.581044 0)
(0.584585 -0.555177 0)
(0.724992 -0.642154 0)
(0.764318 -0.414607 0)
(0.548654 -0.568981 0)
(0.570979 -0.511666 0)
(0.831458 -0.0930446 0)
(1.11227 -0.0912502 0)
(1.1907 -0.0375609 0)
(-0.00306763 -0.391897 0)
(0.0772868 -0.43477 0)
(0.0993691 -0.510287 0)
(0.153329 -0.510698 0)
(0.176472 -0.411838 0)
(0.193328 -0.451573 0)
(0.261845 -0.449656 0)
(0.246191 -0.435287 0)
(0.271121 -0.401977 0)
(0.284151 -0.441525 0)
(0.335713 -0.574108 0)
(0.281526 -0.60537 0)
(0.329261 -0.664423 0)
(0.274052 -0.48386 0)
(0.440713 -0.547157 0)
(0.679426 -0.461589 0)
(0.711049 -0.641265 0)
(0.626401 -0.625866 0)
(0.483934 -0.722954 0)
(0.539437 -0.611142 0)
(0.658179 -0.507227 0)
(1.30577 -0.250888 0)
(1.21965 -0.256571 0)
(-0.0182662 -0.431665 0)
(0.0930889 -0.455297 0)
(0.10931 -0.561874 0)
(0.124825 -0.544836 0)
(0.139295 -0.451484 0)
(0.212955 -0.456506 0)
(0.381853 -0.436072 0)
(0.308663 -0.527806 0)
(0.295105 -0.474929 0)
(0.375976 -0.554824 0)
(0.30713 -0.614364 0)
(0.136603 -0.660805 0)
(0.302066 -0.602716 0)
(0.358332 -0.66842 0)
(0.351132 -0.550072 0)
(0.482397 -0.649436 0)
(0.58501 -0.678643 0)
(0.574195 -0.614312 0)
(0.486125 -0.576869 0)
(0.597552 -0.409141 0)
(1.16305 -0.397267 0)
(1.1958 -0.379321 0)
(1.16166 -0.701438 0)
(0.0193107 -0.462077 0)
(0.0897151 -0.467077 0)
(0.0995198 -0.638337 0)
(0.0963646 -0.581059 0)
(0.159606 -0.449606 0)
(0.293256 -0.442754 0)
(0.255874 -0.494406 0)
(0.191152 -0.650067 0)
(0.369534 -0.676419 0)
(0.34614 -0.837327 0)
(0.19812 -0.820875 0)
(0.192383 -0.774267 0)
(0.253576 -0.647365 0)
(0.274454 -0.765617 0)
(0.307799 -0.700021 0)
(0.450983 -0.626698 0)
(0.721681 -0.7703 0)
(0.622101 -0.730335 0)
(0.640652 -0.814271 0)
(0.800468 -0.714358 0)
(0.816141 -0.393323 0)
(0.987297 -0.622592 0)
(1.18764 -0.51923 0)
(0.0217024 -0.487168 0)
(0.0435891 -0.496701 0)
(0.0756996 -0.66797 0)
(0.124677 -0.586495 0)
(0.18075 -0.461454 0)
(0.221268 -0.487538 0)
(0.239108 -0.603728 0)
(0.162214 -0.666187 0)
(0.182563 -0.810492 0)
(0.256298 -0.896412 0)
(0.386715 -0.717939 0)
(0.255575 -0.713524 0)
(0.120477 -0.65574 0)
(0.275705 -0.740966 0)
(0.429718 -0.627262 0)
(0.40991 -0.594439 0)
(0.461154 -0.698214 0)
(0.399043 -0.826546 0)
(0.631524 -0.906609 0)
(1.05545 -0.992662 0)
(1.07035 -0.704306 0)
(1.13474 -0.764417 0)
(1.35214 -0.625651 0)
(0.0317525 -0.528234 0)
(0.0302424 -0.532375 0)
(0.103965 -0.698314 0)
(0.0985365 -0.581058 0)
(0.14791 -0.442813 0)
(0.159368 -0.506253 0)
(0.125782 -0.59638 0)
(0.0872308 -0.641064 0)
(0.172635 -0.701142 0)
(0.490523 -0.78827 0)
(0.525186 -0.925105 0)
(0.259019 -0.899328 0)
(0.0347462 -0.773184 0)
(0.329787 -0.711034 0)
(0.456204 -0.870209 0)
(0.422582 -1.05835 0)
(0.506524 -0.945927 0)
(0.359372 -0.98297 0)
(0.419904 -0.846407 0)
(0.910557 -0.877533 0)
(1.19317 -0.905817 0)
(1.44887 -0.874737 0)
(1.67179 -0.71579 0)
(0.0325324 -0.535288 0)
(-0.00109864 -0.560317 0)
(0.0798376 -0.722979 0)
(0.135346 -0.597867 0)
(0.118622 -0.40749 0)
(0.101477 -0.607154 0)
(0.117997 -0.548821 0)
(0.083701 -0.61002 0)
(0.123679 -0.614805 0)
(0.223488 -0.625923 0)
(0.387961 -0.90168 0)
(0.351797 -0.956527 0)
(0.279032 -0.904967 0)
(0.332338 -0.879803 0)
(0.254289 -1.02317 0)
(0.416272 -1.15623 0)
(0.493486 -1.1036 0)
(0.547393 -1.19717 0)
(0.71235 -1.03867 0)
(1.01133 -0.81541 0)
(1.26781 -0.918404 0)
(1.55944 -1.03691 0)
(1.71399 -0.7879 0)
(0.0311874 -0.62873 0)
(-0.00886658 -0.635232 0)
(0.0718323 -0.758345 0)
(0.10968 -0.646152 0)
(0.0555366 -0.398117 0)
(0.0855106 -0.664519 0)
(0.0853455 -0.583293 0)
(0.07049 -0.640656 0)
(0.280958 -0.655579 0)
(0.314592 -0.621112 0)
(0.276342 -0.663522 0)
(0.269543 -0.81225 0)
(0.231871 -0.850679 0)
(0.265886 -0.916511 0)
(0.267497 -0.968719 0)
(0.307754 -0.769794 0)
(0.488374 -1.04798 0)
(0.656419 -1.25808 0)
(0.70021 -1.18185 0)
(0.995984 -1.07639 0)
(1.30628 -1.17401 0)
(1.65717 -1.1461 0)
(1.38776 -1.00608 0)
(0.0607766 -0.436002 0)
(0.0463929 -0.494006 0)
(0.0696056 -0.770992 0)
(0.158822 -0.462446 0)
(0.0113865 -0.507532 0)
(0.0157372 -0.528614 0)
(0.0875828 -0.492863 0)
(0.0714183 -0.648704 0)
(0.243429 -0.725353 0)
(0.283511 -0.836363 0)
(0.233952 -0.74358 0)
(0.299311 -0.824594 0)
(0.31928 -0.858194 0)
(0.314081 -0.94436 0)
(0.391649 -0.759643 0)
(0.271733 -0.685449 0)
(0.291 -0.892535 0)
(0.461425 -1.14274 0)
(0.799425 -1.11417 0)
(1.09756 -1.23125 0)
(1.4457 -1.30991 0)
(1.58139 -1.06677 0)
(1.49689 -1.49687 0)
(0.0191445 -0.889971 0)
(-0.204389 -0.898276 0)
(0.0498686 -0.698652 0)
(-0.00790831 -0.940797 0)
(-0.008031 -0.855553 0)
(0.19831 -0.951876 0)
(-0.157652 -0.687359 0)
(-0.031988 -0.594498 0)
(0.147305 -0.78724 0)
(0.32963 -0.862796 0)
(0.251039 -0.877977 0)
(0.253446 -0.955422 0)
(0.268108 -1.02214 0)
(0.469382 -0.864416 0)
(0.507624 -0.680742 0)
(0.35491 -0.915194 0)
(0.33704 -1.03193 0)
(0.456871 -1.06894 0)
(0.551054 -1.18848 0)
(0.90472 -1.29521 0)
(1.62782 -1.44413 0)
(1.46894 -1.60383 0)
(1.48775 -1.79258 0)
(0.0190335 -1.20548 0)
(0.209834 -1.27205 0)
(0.0244851 -1.20364 0)
(-0.159575 -1.21824 0)
(0.0258142 -1.09025 0)
(0.0858929 -1.22892 0)
(0.274332 -1.07367 0)
(0.14723 -1.07608 0)
(0.0492033 -0.858015 0)
(0.226392 -0.908159 0)
(0.149594 -0.961785 0)
(0.213222 -0.925821 0)
(0.482389 -0.86936 0)
(0.692136 -0.917182 0)
(0.363674 -1.25734 0)
(0.122957 -1.1828 0)
(0.314621 -1.2868 0)
(0.369479 -1.2632 0)
(0.589369 -1.29521 0)
(0.945609 -1.3163 0)
(1.22055 -1.58215 0)
(1.55787 -1.93685 0)
(1.9439 -2.45396 0)
(-0.0144486 -1.20178 0)
(0.0325003 -1.25803 0)
(0.0135513 -1.37072 0)
(-0.0147387 -1.15492 0)
(0.0345239 -1.18359 0)
(0.135112 -1.1688 0)
(0.0656049 -1.20207 0)
(0.120095 -1.34242 0)
(0.289789 -0.995083 0)
(0.285375 -0.883431 0)
(0.206812 -0.949987 0)
(0.414695 -0.982838 0)
(0.330355 -1.12221 0)
(0.114688 -1.20072 0)
(0.263467 -1.42971 0)
(0.364998 -1.28963 0)
(0.407449 -1.35971 0)
(0.498916 -1.32708 0)
(0.587249 -1.21147 0)
(0.652033 -1.55186 0)
(1.09167 -1.72475 0)
(1.02198 -2.10619 0)
(1.8893 -2.90005 0)
(-0.0163528 -1.20755 0)
(0.0608418 -1.26744 0)
(0.0228965 -1.26897 0)
(0.0224697 -1.21131 0)
(0.0452886 -1.3475 0)
(0.121606 -1.23052 0)
(-0.0353166 -1.36089 0)
(0.250137 -1.03396 0)
(0.442695 -0.980663 0)
(0.23437 -1.22886 0)
(-0.0552685 -1.09575 0)
(0.20978 -1.24309 0)
(0.379311 -1.3708 0)
(0.2426 -1.28336 0)
(0.238922 -1.31523 0)
(0.27181 -1.33371 0)
(0.410176 -1.31058 0)
(0.567237 -1.24646 0)
(0.436071 -1.24607 0)
(0.468929 -1.44847 0)
(0.791489 -1.81831 0)
(0.782246 -2.33546 0)
(1.16775 -2.97284 0)
(-0.054746 -1.36187 0)
(-0.00422237 -1.29946 0)
(-0.0301767 -1.25407 0)
(-0.152534 -1.35537 0)
(0.041942 -0.977861 0)
(0.15968 -1.29687 0)
(0.150298 -1.0179 0)
(0.408985 -0.85939 0)
(0.169302 -1.03041 0)
(0.164515 -1.35751 0)
(0.123085 -1.20172 0)
(0.124825 -1.23388 0)
(0.263414 -1.29101 0)
(0.090243 -1.46907 0)
(0.212344 -1.56704 0)
(0.446539 -1.55377 0)
(0.551954 -1.32103 0)
(0.59308 -1.47883 0)
(0.46785 -1.79451 0)
(0.260268 -1.6363 0)
(0.479348 -1.88491 0)
(0.37746 -2.25934 0)
(0.667055 -2.92978 0)
(0.106623 -0.953579 0)
(0.210373 -1.28528 0)
(-0.115785 -1.25753 0)
(0.122764 -0.896514 0)
(0.114806 -0.754434 0)
(0.172035 -0.8783 0)
(0.305691 -0.745899 0)
(0.231908 -0.699868 0)
(0.0935618 -0.858936 0)
(0.10631 -1.03363 0)
(0.0402208 -1.15461 0)
(0.0415448 -1.20135 0)
(0.0594376 -1.24956 0)
(-0.0586341 -1.42153 0)
(0.107478 -1.24733 0)
(0.569297 -1.47829 0)
(0.538691 -1.40611 0)
(0.178366 -1.60545 0)
(0.400071 -1.96919 0)
(0.391183 -1.7739 0)
(0.423917 -1.89753 0)
(0.243182 -2.17151 0)
(0.463788 -2.58259 0)
(-0.13192 -0.657226 0)
(-0.0923508 -0.804668 0)
(0.205281 -0.908736 0)
(0.247915 -0.713144 0)
(0.109308 -0.818786 0)
(0.215025 -0.72886 0)
(0.310841 -0.724282 0)
(0.2903 -0.990782 0)
(-0.13684 -1.13684 0)
(-0.174866 -1.12657 0)
(-0.0597026 -1.21906 0)
(-0.0196478 -1.26608 0)
(-0.0343077 -1.348 0)
(0.0935188 -1.58701 0)
(0.10145 -1.20546 0)
(0.310723 -1.44974 0)
(0.465655 -1.3416 0)
(0.0665405 -1.46256 0)
(0.365611 -1.72474 0)
(0.355816 -1.70227 0)
(0.367364 -1.75848 0)
(0.266776 -2.26323 0)
(0.0114426 -3.11177 0)
(-0.0175013 -0.695554 0)
(0.0364046 -0.698974 0)
(0.0190829 -0.721127 0)
(0.0490607 -0.625402 0)
(0.0671665 -0.612199 0)
(0.297258 -0.678092 0)
(-0.0170779 -1.12958 0)
(-0.183893 -1.24304 0)
(-0.0874325 -1.3489 0)
(-0.0724016 -1.24459 0)
(-0.0623076 -1.26795 0)
(-0.0862124 -1.26442 0)
(-0.275373 -1.3106 0)
(0.0258462 -1.1865 0)
(0.15952 -1.36751 0)
(0.441062 -1.26139 0)
(0.535711 -1.71521 0)
(-0.104261 -1.53569 0)
(0.345072 -1.87764 0)
(0.406941 -1.81581 0)
(0.125256 -2.27089 0)
(-0.377215 -2.3365 0)
(-0.286567 -3.34227 0)
(-0.0810676 -0.601863 0)
(0.052054 -0.635701 0)
(0.200947 -0.765537 0)
(0.26338 -0.909982 0)
(0.0269311 -1.09091 0)
(-0.209141 -1.13448 0)
(-0.257171 -1.33693 0)
(-0.117154 -1.2456 0)
(-0.0825909 -1.23708 0)
(-0.0919401 -1.22829 0)
(-0.0725857 -1.24297 0)
(-0.0611031 -1.2329 0)
(-0.0831504 -1.22089 0)
(-0.0356574 -1.02961 0)
(0.0667444 -1.28038 0)
(0.00429468 -1.12125 0)
(0.23509 -1.88975 0)
(0.00181196 -1.53762 0)
(0.125656 -1.90691 0)
(-0.0196987 -1.84103 0)
(0.0400655 -2.40372 0)
(-0.352042 -2.10711 0)
(-0.818242 -2.45969 0)
(0.0465774 -1.19468 0)
(0.0335883 -1.20768 0)
(-0.213841 -1.24812 0)
(-0.260088 -1.31529 0)
(-0.151567 -1.38108 0)
(-0.116694 -1.45125 0)
(-0.0906692 -1.33543 0)
(-0.0787256 -1.27293 0)
(-0.07864 -1.28511 0)
(-0.0796023 -1.26589 0)
(-0.0699911 -1.27347 0)
(-0.0822481 -1.24738 0)
(-0.0759481 -1.28791 0)
(-0.0659389 -1.18621 0)
(0.0168172 -1.28477 0)
(-0.0838661 -1.35122 0)
(0.120751 -1.81853 0)
(-0.0701376 -1.34748 0)
(0.0905956 -2.04872 0)
(-0.057198 -1.82632 0)
(0.139621 -1.96698 0)
(-0.406455 -2.39809 0)
(-1.21545 -2.48834 0)
(-0.00328483 -1.40698 0)
(-0.00970294 -1.466 0)
(-0.0485606 -1.49603 0)
(-0.0748705 -1.3808 0)
(-0.0816966 -1.34414 0)
(-0.0876647 -1.30308 0)
(-0.0790849 -1.28491 0)
(-0.0833998 -1.28108 0)
(-0.0677438 -1.27458 0)
(-0.0803235 -1.27051 0)
(-0.0542966 -1.26286 0)
(-0.0857408 -1.25031 0)
(-0.0364245 -1.29484 0)
(-0.0833078 -1.1667 0)
(-0.0734215 -1.29441 0)
(-0.351949 -1.3492 0)
(0.277876 -1.34105 0)
(-0.165122 -1.79862 0)
(-0.312375 -1.51056 0)
(-0.00656954 -1.70477 0)
(-0.432101 -2.13408 0)
(-0.54681 -2.5205 0)
(-1.10646 -2.56153 0)
(-0.0073432 -1.30419 0)
(-0.0204413 -1.33346 0)
(-0.0637632 -1.33671 0)
(-0.113625 -1.32919 0)
(-0.0796012 -1.33891 0)
(-0.0559726 -1.30804 0)
(-0.0724451 -1.30277 0)
(-0.0655879 -1.29327 0)
(-0.0603739 -1.28303 0)
(-0.0618834 -1.27869 0)
(-0.0495751 -1.26889 0)
(-0.124428 -1.23529 0)
(0.0215955 -1.25219 0)
(-0.105263 -1.02624 0)
(-0.16243 -1.24074 0)
(-0.144771 -1.36045 0)
(-0.133539 -1.07646 0)
(-0.180924 -2.13128 0)
(0.0629772 -1.06983 0)
(-0.490207 -1.7511 0)
(-0.700462 -1.62468 0)
(-0.515582 -1.95196 0)
(-1.11718 -1.99321 0)
(-0.00853759 -1.33692 0)
(-0.0223619 -1.3613 0)
(-0.0454858 -1.35093 0)
(-0.0717002 -1.35206 0)
(-0.0583537 -1.29145 0)
(-0.046005 -1.30774 0)
(-0.0582469 -1.29006 0)
(-0.0594511 -1.29317 0)
(-0.0529071 -1.28669 0)
(-0.0586539 -1.2966 0)
(-0.0115938 -1.30127 0)
(-0.0996841 -1.32612 0)
(0.206424 -1.27339 0)
(-0.14328 -1.38596 0)
(-0.337048 -1.2484 0)
(-0.214743 -1.31847 0)
(-0.360581 -1.32637 0)
(0.0568862 -1.47362 0)
(0.0575425 -1.65714 0)
(-0.504233 -1.94708 0)
(-0.75863 -1.55631 0)
(-0.867729 -1.57041 0)
(-0.879138 -1.81053 0)
(-0.0094296 -1.31263 0)
(-0.0224387 -1.32925 0)
(-0.0531044 -1.32469 0)
(-0.0502597 -1.31112 0)
(-0.0419761 -1.28988 0)
(-0.0500439 -1.29767 0)
(-0.053271 -1.29339 0)
(-0.0610116 -1.29538 0)
(-0.0625129 -1.29593 0)
(-0.0734068 -1.30948 0)
(-0.0660854 -1.31452 0)
(-0.102921 -1.36335 0)
(-0.0766177 -1.33123 0)
(-0.143906 -1.54602 0)
(-0.183178 -1.26302 0)
(-0.189334 -1.26649 0)
(-0.231675 -1.28487 0)
(-0.266322 -1.22892 0)
(-0.266299 -1.83881 0)
(-0.440999 -1.74519 0)
(-0.420184 -1.83919 0)
(-0.71638 -1.32902 0)
(-1.16819 -1.56479 0)
(-0.00582377 -1.30214 0)
(-0.0142611 -1.31794 0)
(-0.0263704 -1.32128 0)
(-0.0377626 -1.29339 0)
(-0.0412576 -1.29406 0)
(-0.0470039 -1.2896 0)
(-0.0507358 -1.28914 0)
(-0.0597727 -1.28706 0)
(-0.0635469 -1.28803 0)
(-0.0790343 -1.29083 0)
(-0.0771832 -1.28751 0)
(-0.111262 -1.30191 0)
(-0.0954456 -1.28353 0)
(-0.166086 -1.29004 0)
(-0.196469 -1.2017 0)
(-0.233289 -1.22335 0)
(-0.27096 -1.20517 0)
(-0.361555 -1.27166 0)
(-0.517262 -1.51258 0)
(-0.52086 -1.19992 0)
(-0.196335 -1.21783 0)
(-0.575452 -1.38882 0)
(-1.04948 -1.25233 0)
(-0.00508769 -1.27758 0)
(-0.0115938 -1.29642 0)
(-0.0228173 -1.29233 0)
(-0.0303082 -1.28767 0)
(-0.0353332 -1.28572 0)
(-0.044715 -1.28038 0)
(-0.048739 -1.27563 0)
(-0.0582426 -1.27388 0)
(-0.0632613 -1.2724 0)
(-0.0781704 -1.27305 0)
(-0.08424 -1.28089 0)
(-0.108664 -1.29022 0)
(-0.114896 -1.27552 0)
(-0.151223 -1.27692 0)
(-0.153218 -1.17934 0)
(-0.206141 -1.16826 0)
(-0.202271 -1.1303 0)
(-0.423839 -1.14771 0)
(-0.150125 -1.15291 0)
(-0.221235 -1.09204 0)
(-0.492848 -0.997223 0)
(-0.479365 -1.2945 0)
(-1.16585 -1.10187 0)
(-0.000740135 -1.26103 0)
(-0.0102684 -1.27694 0)
(-0.0158218 -1.27875 0)
(-0.0235815 -1.27071 0)
(-0.0295478 -1.269 0)
(-0.038179 -1.26289 0)
(-0.0436575 -1.2609 0)
(-0.052075 -1.25558 0)
(-0.0584953 -1.25161 0)
(-0.0709811 -1.24617 0)
(-0.0770326 -1.24033 0)
(-0.105034 -1.23796 0)
(-0.107574 -1.2268 0)
(-0.149201 -1.20899 0)
(-0.147587 -1.14908 0)
(-0.187485 -1.145 0)
(-0.188488 -1.08478 0)
(-0.24685 -1.08777 0)
(-0.297672 -0.931873 0)
(-0.314202 -1.22526 0)
(-0.429334 -1.01158 0)
(-0.54174 -1.34888 0)
(-0.458164 -1.10201 0)
(-0.00335004 -1.24504 0)
(-0.00590796 -1.26162 0)
(-0.0150304 -1.2588 0)
(-0.0181128 -1.26109 0)
(-0.02447 -1.25621 0)
(-0.028769 -1.25456 0)
(-0.0342544 -1.24789 0)
(-0.0414658 -1.24399 0)
(-0.046333 -1.23757 0)
(-0.0589904 -1.2316 0)
(-0.0623954 -1.2229 0)
(-0.0850738 -1.21777 0)
(-0.085939 -1.20225 0)
(-0.121521 -1.18521 0)
(-0.11317 -1.13462 0)
(-0.162392 -1.11232 0)
(-0.164436 -1.06179 0)
(-0.209309 -1.02856 0)
(-0.206004 -0.982784 0)
(-0.176376 -1.03369 0)
(-0.578306 -0.946939 0)
(-0.541161 -0.865447 0)
(-0.326708 -0.761614 0)
(-0.000296919 -1.24271 0)
(-0.00829313 -1.25758 0)
(-0.00925863 -1.25509 0)
(-0.0172119 -1.25061 0)
(-0.0178836 -1.24823 0)
(-0.0250556 -1.24191 0)
(-0.0271729 -1.23644 0)
(-0.0352525 -1.22813 0)
(-0.0373978 -1.21864 0)
(-0.049886 -1.20973 0)
(-0.0506998 -1.195 0)
(-0.0734071 -1.18537 0)
(-0.0725344 -1.16545 0)
(-0.109593 -1.15038 0)
(-0.0945749 -1.11258 0)
(-0.146247 -1.09253 0)
(-0.152929 -1.05196 0)
(-0.182308 -1.02137 0)
(-0.234422 -0.998057 0)
(-0.232977 -1.218 0)
(-0.285815 -1.09815 0)
(-0.284891 -0.740826 0)
(-0.256883 -0.680452 0)
(-0.00313641 -1.24059 0)
(-0.00403951 -1.25069 0)
(-0.0111329 -1.24926 0)
(-0.0126075 -1.24548 0)
(-0.0177443 -1.24117 0)
(-0.019518 -1.23676 0)
(-0.0234133 -1.22975 0)
(-0.026397 -1.22333 0)
(-0.0282999 -1.21168 0)
(-0.0343369 -1.20151 0)
(-0.0337384 -1.18015 0)
(-0.0480073 -1.16606 0)
(-0.042151 -1.13215 0)
(-0.0762553 -1.13047 0)
(-0.0533628 -1.09145 0)
(-0.120125 -1.0482 0)
(-0.134061 -1.0059 0)
(-0.178457 -0.948017 0)
(-0.290851 -0.930941 0)
(-0.227647 -0.83773 0)
(-0.115741 -0.888059 0)
(-0.18231 -0.762309 0)
(-0.322002 -0.803987 0)
(-0.000427139 -1.23138 0)
(-0.00379101 -1.23981 0)
(-0.00648512 -1.23805 0)
(-0.00989128 -1.23498 0)
(-0.0119554 -1.23092 0)
(-0.0148473 -1.22651 0)
(-0.0160433 -1.22067 0)
(-0.0181883 -1.21417 0)
(-0.0180447 -1.20368 0)
(-0.019247 -1.19297 0)
(-0.0169902 -1.17468 0)
(-0.0155429 -1.15941 0)
(-0.012216 -1.12399 0)
(-0.0357275 -1.12535 0)
(-0.00567313 -1.0663 0)
(-0.0877734 -1.02659 0)
(-0.0949559 -0.986657 0)
(-0.137518 -0.91622 0)
(-0.16074 -0.879024 0)
(-0.189635 -0.723336 0)
(-0.180022 -0.775564 0)
(-0.24318 -0.687949 0)
(-0.297187 -0.922088 0)
(-0.000125256 -1.19615 0)
(-0.00178393 -1.20276 0)
(-0.00403737 -1.20083 0)
(-0.0053115 -1.1989 0)
(-0.00661364 -1.19545 0)
(-0.00709582 -1.19242 0)
(-0.00712107 -1.18771 0)
(-0.00685272 -1.1823 0)
(-0.00498511 -1.17379 0)
(-0.00273462 -1.16525 0)
(0.00282426 -1.15223 0)
(0.0106985 -1.13695 0)
(0.0166054 -1.11689 0)
(0.0365195 -1.07858 0)
(0.0513908 -1.06516 0)
(-0.0635509 -0.989875 0)
(-0.0730158 -0.97845 0)
(-0.129052 -0.909775 0)
(-0.149939 -0.861634 0)
(-0.196608 -0.771499 0)
(-0.153051 -0.702864 0)
(-0.253491 -0.602855 0)
(-0.115795 -0.675355 0)
(2.19592e-05 -1.29819 0)
(-0.00077627 -1.30308 0)
(-0.00207023 -1.30172 0)
(-0.00275651 -1.30064 0)
(-0.00337671 -1.2982 0)
(-0.00352367 -1.29599 0)
(-0.00306583 -1.29232 0)
(-0.00206667 -1.28884 0)