/*--------------------------------*- C++ -*----------------------------------*\
| =========                 |                                                 |
| \\      /  F ield         | foam-extend: Open Source CFD                    |
|  \\    /   O peration     | Version:     4.1                                |
|   \\  /    A nd           | Web:         http://www.foam-extend.org         |
|    \\/     M anipulation  |                                                 |
\*---------------------------------------------------------------------------*/
FoamFile
{
    version     2.0;
    format      ascii;
    class       volScalarField;
    location    "0.05";
    object      alpha1;
}
// * * * * * * * * * * * * * * * * * * * * * * * * * * * * * * * * * * * * * //

dimensions      [0 0 0 0 0 0 0];

internalField   nonuniform List<scalar> 
2268
(
1
1
1
1
1
1
0.999989
0.999911
1
1
1
1
0.963585
0.771728
0.397973
0.149389
0.0582317
0.0262828
0.0134933
0.0070508
0.00286952
0.000676005
5.54846e-05
1
1
1
1
1
1
0.999989
0.99991
1
1
1
1
0.942845
0.695501
0.302273
0.0932717
0.02766
0.00990051
0.00454994
0.00247662
0.0011854
0.00029392
1.68863e-05
1
1
1
1
1
1
0.999989
0.99991
1
1
1
1
0.910929
0.59598
0.226115
0.069236
0.0194515
0.00529319
0.00151837
0.000569451
0.000279182
5.90573e-05
0
1
1
1
1
1
1
0.999988
0.999909
1
1
1
1
0.873485
0.485598
0.150543
0.0384878
0.0086977
0.00175838
0.00029216
5.65024e-05
3.00158e-05
5.26441e-07
0
1
1
1
1
1
1
0.999988
0.999907
1
1
1
0.997756
0.835878
0.393475
0.100006
0.0204303
0.00371561
0.000497255
0
0
0
0
0
1
1
1
1
1
1
0.999987
0.999904
1
1
1
0.9957
0.799012
0.31927
0.0647889
0.0086878
0.000829279
0
0
0
0
0
0
1
1
1
1
1
1
0.999987
0.999903
1
1
1
0.993533
0.763664
0.263522
0.0443908
0.00370986
0
0
0
0
0
0
4.50803e-08
1
1
1
1
1
1
0.999987
0.999903
1
1
1
0.991085
0.73004
0.22321
0.0324334
0.00187682
0
0
0
0
0
5.91439e-08
3.546e-08
4.996e-16
1.05471e-15
1.27676e-15
0
0
0
0
0
0
0
0
0
4.996e-16
5.55112e-16
3.33067e-16
5.55112e-16
5.55112e-17
8.32667e-16
2.22045e-16
2.22045e-16
1.11022e-15
9.4369e-16
4.44089e-16
0
1.66533e-16
0
0
1.66533e-16
2.77556e-16
0
1.66533e-16
3.88578e-16
0
3.88578e-16
5.55112e-16
1.66533e-16
8.32667e-16
5.55112e-17
1.05471e-15
8.88178e-16
9.4369e-16
2.22045e-16
0
4.44089e-16
2.77556e-16
3.33067e-16
3.88578e-16
4.44089e-16
2.22045e-16
2.22045e-16
1.66533e-16
0
3.88578e-16
3.33067e-16
5.55112e-17
1.05471e-15
5.55112e-16
7.49401e-15
1.88738e-15
9.4369e-16
0
2.22045e-16
4.44089e-16
4.996e-16
0
5.55112e-16
4.996e-16
2.77556e-16
1.66533e-16
0
0
6.10623e-16
0
5.55112e-17
7.21645e-16
1.11022e-15
1.40443e-14
6.43929e-15
1.27676e-15
2.22045e-16
4.996e-16
0
1.11022e-16
0
4.996e-16
4.44089e-16
1.11022e-16
5.55112e-17
0
0
7.21645e-16
1.66533e-16
3.33067e-16
4.996e-16
9.4369e-16
0
7.38298e-15
2.66454e-15
2.22045e-16
2.77556e-16
2.77556e-16
5.55112e-17
0
9.99201e-16
3.88578e-16
4.44089e-16
0
0
0
6.66134e-16
2.22045e-16
0
4.996e-16
8.32667e-16
0
0
2.72005e-15
5.55112e-16
2.22045e-16
3.33067e-16
2.22045e-16
2.22045e-16
8.88178e-16
2.77556e-16
4.996e-16
1.66533e-16
0
0
6.66134e-16
4.44089e-16
1.11022e-16
4.996e-16
6.66134e-16
0
0
0
6.66134e-16
0
2.77556e-16
1.11022e-16
6.66134e-16
1.05471e-15
0
3.33067e-16
1.66533e-16
3.88578e-16
0
3.33067e-16
4.996e-16
1.66533e-16
3.33067e-16
6.66134e-16
1
1
1
1
1
1
0.999987
0.999899
1
1
1
0.986222
0.676384
0.176261
0.0192217
0.000478725
0
0
5.597e-06
1.82907e-06
1.82131e-07
2.05819e-08
4.33281e-09
1
1
1
1
1
1
0.999985
0.999892
1
1
1
0.978949
0.598174
0.117085
0.00516712
0
0
1.0949e-05
9.66481e-06
1.11044e-06
0
0
0
1
1
1
1
1
1
0.999983
0.999884
1
1
1
0.971701
0.533792
0.0882618
0.000703527
0
0
2.88379e-05
8.77394e-06
4.74787e-07
0
0
0
1
1
1
1
1
1
0.999982
0.999877
1
1
1
0.963986
0.471777
0.0630009
0
0
0
3.78553e-05
8.22554e-06
2.84047e-07
0
0
0
1
1
1
1
1
1
0.99998
0.999871
1
1
1
0.956237
0.418485
0.0451897
0
0
0
4.0994e-05
8.39749e-06
3.11242e-07
0
0
0
1
1
1
1
1
1
0.999978
0.999866
1
1
1
0.94841
0.371338
0.0308298
0
0
0
4.35831e-05
8.31625e-06
2.7093e-07
0
0
0
1
1
1
1
1
1
0.999976
0.999861
1
1
1
0.940527
0.32951
0.0194096
0
0
0
4.71353e-05
7.74222e-06
9.44841e-08
0
0
3.93722e-11
1
1
1
1
1
1
0.999975
0.999857
1
1
1
0.932411
0.290319
0.00900167
0
0
2.81079e-05
4.80475e-05
6.30547e-06
0
0
0
7.55091e-10
1
1
1
1
1
1
0.999974
0.999854
1
1
1
0.92375
0.254096
0.0010675
0
0
8.14803e-05
4.75027e-05
3.96407e-06
0
0
0
1.1145e-09
1
1
1
1
1
1
0.999973
0.999851
1
1
1
0.914312
0.218634
0
0
0
0.000116855
4.47229e-05
2.55004e-06
0
0
0
1.28485e-09
1
1
1
1
1
1
0.999972
0.999849
1
1
1
0.907975
0.198362
0
0
0
0.000124366
4.24694e-05
1.78321e-06
0
0
1.81559e-09
1.31908e-09
0.999998
0.999998
0.999998
0.999998
0.999999
0.999999
0.99997
0.999846
1
1
1
0.908195
0.201463
0
0
0
0.000125703
4.18971e-05
1.41525e-06
0
0
3.64957e-09
1.29703e-09
1
1
1
1
1
1
0.999986
0.999856
1
1
1
0.911095
0.20791
0
0
0
0.00012584
4.19174e-05
1.30555e-06
0
0
4.71843e-09
1.24039e-09
1
1
1
1
1
1
1
1
1
1
1
0.910046
0.184682
0
0
0
0.000127195
4.31739e-05
1.34175e-06
0
0
5.16562e-09
1.17399e-09
1
1
1
1
1
1
1
1
1
1
1
0.91127
0.180835
0
0
0
8.58306e-05
4.8563e-05
1.91451e-06
0
0
5.4902e-09
1.18885e-09
1
1
1
1
1
0.999887
0.999655
0.999402
1
1
1
0.919805
0.254498
0.0191517
0
0
0
5.17674e-05
3.54521e-06
0
0
4.81902e-09
1.23211e-09
0.974899
0.974577
0.973993
0.97317
0.972168
0.971078
0.969976
0.968903
0.969219
0.975367
0.984901
0.888913
0.305707
0.0436942
0
0
0
4.19889e-05
4.49267e-06
0
0
2.54904e-09
1.17836e-09
0.803654
0.802471
0.800305
0.797271
0.793609
0.78971
0.786101
0.782339
0.779783
0.779176
0.772309
0.644276
0.265997
0.0553218
0.00100206
0
0
3.15293e-05
4.15955e-06
0
0
2.44987e-10
9.30034e-10
0.298317
0.297001
0.294581
0.291236
0.287321
0.283204
0.279427
0.275258
0.271503
0.26689
0.254369
0.177238
0.0534666
0.00577357
0
0
0
1.88982e-05
2.5447e-06
0
0
3.44431e-11
5.87522e-10
0.0104023
0.010291
0.010086
0.00980558
0.00948662
0.00916737
0.0089004
0.00859422
0.00843622
0.00885393
0.0110007
0.00866311
0
0
0
0
0
1.18261e-05
1.08071e-06
0
0
6.32375e-10
3.74844e-10
0
0
0
0
0
0
0
0
0
0
0
0
0
0
0
0
1.65293e-05
4.36121e-06
0
0
0
1.36855e-09
2.0312e-10
0
0
0
0
0
0
0
0
0
0
0
0
0
0
1.39367e-05
1.91825e-05
7.02502e-06
3.8513e-07
0
0
2.41687e-09
8.4511e-10
2.78912e-11
0
0
0
0
0
0
0
0
0
0
0
0
8.66431e-05
5.52918e-05
1.77894e-05
4.14253e-06
3.1021e-07
0
0
2.01299e-09
1.94691e-09
1.14084e-10
0
8.77547e-05
8.76977e-05
8.77035e-05
8.77794e-05
8.79394e-05
8.82358e-05
8.88456e-05
9.02132e-05
9.167e-05
9.01971e-05
6.99753e-05
5.17248e-05
2.9196e-05
8.07032e-06
3.51209e-07
0
0
0
2.3927e-09
2.9223e-09
2.56269e-10
0
0
9.89063e-06
9.87888e-06
9.90619e-06
9.95751e-06
1.0039e-05
1.0162e-05
1.035e-05
1.08205e-05
1.21633e-05
1.36579e-05
1.18005e-05
6.07982e-06
1.07903e-06
0
0
0
0
7.02701e-09
3.03466e-09
2.87598e-10
0
0
1.07137e-14
0
0
0
0
0
0
0
0
0
0
0
0
0
0
0
1.10867e-08
9.11451e-09
2.27929e-09
1.19801e-10
0
0
5.40401e-13
5.51503e-13
0
0
0
0
0
0
0
0
0
0
0
0
0
0
1.3713e-08
6.46582e-09
9.53587e-10
0
0
0
1.24012e-12
7.03382e-13
5.80647e-14
0
0
0
0
0
0
0
0
0
0
0
0
3.95955e-09
6.83169e-09
2.70494e-09
1.99255e-10
0
0
0
2.00123e-12
6.82787e-13
3.89133e-14
0
3.60779e-09
3.61954e-09
3.65136e-09
3.71104e-09
3.77618e-09
3.8695e-09
4.01788e-09
4.23632e-09
4.30302e-09
3.79886e-09
2.82833e-09
2.38887e-09
1.78947e-09
6.84287e-10
0
0
0
0
2.25286e-12
5.04874e-13
5.66214e-15
0
0
2.82637e-10
2.8413e-10
2.89237e-10
2.9843e-10
3.08603e-10
3.22149e-10
3.41372e-10
3.75655e-10
4.30063e-10
4.61905e-10
3.77033e-10
2.16584e-10
6.54365e-11
0
0
0
1.78818e-12
1.61643e-12
2.60902e-13
0
0
0
1.22125e-15
0
0
0
0
0
0
0
0
0
0
0
0
0
0
0
1.34176e-12
8.10019e-13
9.95315e-14
0
0
0
5.55112e-17
0
0
0
0
0
0
0
0
0
0
0
0
0
0
0
5.71543e-13
2.93154e-13
2.36478e-14
0
0
1.16573e-15
5.55112e-16
0
0
9.12048e-14
9.07052e-14
8.97615e-14
8.57647e-14
8.24341e-14
7.93809e-14
7.81042e-14
6.63913e-14
7.71605e-15
0
0
2.05391e-14
1.14797e-13
1.58706e-13
7.40519e-14
0
0
0
2.22045e-16
1.16573e-15
2.22045e-16
0
1.11022e-16
5.44009e-14
5.43454e-14
5.51781e-14
5.65104e-14
5.76206e-14
5.86198e-14
6.19504e-14
6.61138e-14
6.93889e-14
6.26721e-14
4.75175e-14
3.7581e-14
2.67564e-14
1.10467e-14
0
0
0
0
4.996e-16
6.10623e-16
8.32667e-16
0
9.99201e-16
1.94289e-15
1.94289e-15
1.77636e-15
1.60982e-15
9.99201e-16
1.27676e-15
1.33227e-15
2.05391e-15
2.22045e-15
3.05311e-15
2.27596e-15
1.9984e-15
9.99201e-16
0
0
0
0
1.11022e-16
2.22045e-16
1.66533e-16
3.33067e-16
5.55112e-16
0
0
2.77556e-16
2.22045e-16
0
0
0
0
0
0
0
0
3.33067e-16
7.21645e-16
0
4.44089e-16
8.32667e-16
3.88578e-16
2.22045e-16
0
0
0
4.44089e-16
1.66533e-16
6.10623e-16
7.21645e-16
0
2.22045e-16
3.88578e-16
2.77556e-16
2.22045e-16
0
0
0
2.22045e-16
9.99201e-16
7.77156e-16
0
1.05471e-15
7.77156e-16
8.32667e-16
2.77556e-16
8.88178e-16
7.21645e-16
1.11022e-15
7.77156e-16
5.55112e-16
8.88178e-16
6.10623e-16
0
2.77556e-16
2.77556e-16
5.55112e-16
9.4369e-16
4.996e-16
0
0
0
4.44089e-16
1.16573e-15
5.55112e-17
1.66533e-16
6.66134e-16
3.88578e-16
0
3.88578e-16
3.88578e-16
9.99201e-16
2.77556e-16
7.21645e-16
0
3.33067e-16
0
6.10623e-16
1.66533e-16
4.996e-16
1.11022e-16
0
0
3.33067e-16
5.55112e-17
4.996e-16
4.44089e-16
2.22045e-16
1.66533e-16
0
0
0
6.10623e-16
8.32667e-16
7.77156e-16
7.21645e-16
4.44089e-16
0
0
0
6.66134e-16
0
0
0
0
0
0
3.33067e-16
0
0
0
5.55112e-16
1.11022e-16
2.77556e-16
2.22045e-16
3.88578e-16
0
5.55112e-17
0
2.22045e-16
0
0
0
1.33227e-15
9.99201e-16
0
0
0
0
0
4.996e-16
4.44089e-16
1.11022e-16
0
8.88178e-16
3.33067e-16
1.33227e-15
5.55112e-16
1.22125e-15
8.32667e-16
1.27676e-15
5.55112e-17
1.66533e-16
4.996e-16
0
0
0
6.66134e-16
0
0
0
0
0
6.66134e-16
7.77156e-16
4.996e-16
0
6.10623e-16
4.996e-16
1.66533e-15
2.22045e-16
4.996e-16
6.66134e-16
6.10623e-16
2.22045e-16
7.21645e-16
0
0
2.27151e-11
2.97692e-11
0
1.11873e-11
8.46247e-11
3.87547e-11
0
1.75307e-10
1.05152e-10
2.56565e-11
9.05188e-11
2.01613e-10
8.43819e-11
8.94673e-12
2.15934e-10
1.89346e-10
5.2936e-11
0
3.27436e-10
1.68568e-10
2.55208e-11
0
3.70117e-10
1.30743e-10
3.62332e-12
0
3.80129e-10
8.38162e-11
0
0
3.48346e-10
4.73622e-11
0
0
3.0015e-10
1.46925e-11
0
0
2.29888e-10
0
0
0
1.71298e-10
0
0
0
1.27399e-10
0
0
0
9.78842e-11
0
0
0
8.55082e-11
0
0
0
9.73779e-11
0
0
0
1.31878e-10
0
0
0
1.39436e-10
0
0
0
9.05178e-11
0
0
0
4.63997e-11
0
0
0
3.94945e-12
0
0
0
0
0
0
5.14255e-13
0
0
6.18394e-13
5.29798e-13
0
7.21923e-13
4.38594e-13
1.17906e-13
6.14508e-13
2.87936e-13
4.84612e-14
0
1.27065e-13
4.4964e-15
0
0
0
0
0
0
0
0
1.27676e-15
1.38778e-15
1.27676e-15
9.4369e-16
8.32667e-16
4.996e-16
8.32667e-16
6.66134e-16
3.88578e-16
1.66533e-16
5.55112e-17
0
0
0
1.66533e-16
6.10623e-16
4.44089e-16
2.22045e-16
0
1.66533e-16
0
5.55112e-17
1.16573e-15
9.4369e-16
2.22045e-16
2.22045e-16
4.44089e-16
8.88178e-16
8.32667e-16
7.77156e-16
9.99201e-16
9.4369e-16
8.32667e-16
5.55112e-16
7.21645e-16
4.44089e-16
3.88578e-16
8.32667e-16
1.33227e-15
1.33227e-15
7.77156e-16
3.88578e-16
1.38778e-15
9.99201e-16
7.21645e-16
3.33067e-16
9.99201e-16
6.66134e-16
6.66134e-16
5.55112e-16
0
5.55112e-17
7.77156e-16
1.05471e-15
6.10623e-16
3.33067e-16
1.11022e-16
4.996e-16
2.72132e-12
0
0
4.44089e-16
1.11022e-16
1.11022e-16
0
0
1.66533e-16
7.21645e-16
1.05471e-15
6.10623e-16
3.88578e-16
6.10623e-16
0
1.27676e-15
5.55112e-16
0
2.77556e-16
1.47365e-12
0
0
1.11022e-15
1.66533e-16
7.21645e-16
6.66134e-16
2.22045e-16
1.22125e-15
1.05471e-15
2.22045e-16
6.10623e-16
8.88178e-16
1.44329e-15
6.66134e-16
1.27676e-15
7.77156e-16
3.88578e-16
0
0
0
0
1.55431e-15
7.77156e-16
1.11022e-16
8.88178e-16
2.77556e-16
1.05471e-15
2.05391e-15
9.99201e-16
4.996e-16
3.88578e-16
6.66134e-16
1.66533e-16
4.44089e-16
8.32667e-16
9.99201e-16
6.66134e-16
0
0
6.16174e-15
1.60982e-15
0
5.55112e-17
1.66533e-16
0
9.4369e-16
8.88178e-16
2.22045e-16
1.11022e-16
4.44089e-16
4.44089e-16
3.88578e-16
6.10623e-16
0
2.77556e-16
2.77556e-16
0
0
9.4369e-15
2.10942e-15
0
0
4.996e-16
0
0
0
2.77556e-16
7.77156e-16
0
0
0
3.33067e-16
0
0
0
0
0
1.21569e-14
8.88178e-16
0
0
1.05471e-15
5.55112e-17
0
4.996e-16
0
0
5.55112e-16
6.10623e-16
5.55112e-17
0
0
0
6.66134e-16
0
1.10467e-14
1.33782e-14
6.66134e-16
7.21645e-16
0
0
2.22045e-16
0
2.22045e-16
6.66134e-16
0
0
6.10623e-16
3.33067e-16
3.33067e-16
5.55112e-16
9.4369e-16
2.77556e-16
0
6.55587e-14
1.19904e-14
0
5.55112e-17
2.77556e-16
0
0
0
0
8.32667e-16
3.88578e-16
3.33067e-16
2.22045e-16
4.996e-16
4.44089e-16
0
6.66134e-16
0
0
1.01974e-13
1.07137e-14
1.11022e-16
0
6.66134e-16
0
0
0
0
3.33067e-16
9.99201e-16
2.77556e-16
2.22045e-16
6.10623e-16
1.11022e-16
0
0
0
0
1.19293e-13
7.60503e-15
0
5.55112e-17
7.21645e-16
8.32667e-16
6.10623e-16
6.66134e-16
0
1.11022e-16
2.77556e-16
0
0
3.88578e-16
8.32667e-16
4.44089e-16
6.10623e-16
1.44329e-15
0
1.22347e-13
4.32987e-15
0
4.996e-16
9.4369e-16
1.11022e-16
5.55112e-17
4.44089e-16
0
0
1.11022e-16
7.21645e-16
8.32667e-16
3.88578e-16
0
0
0
2.77556e-16
2.916e-13
1.18738e-13
1.94289e-15
0
0
3.88578e-16
1.66533e-16
0
0
0
0
0
0
0
0
3.33067e-16
4.44089e-16
3.88578e-16
5.55112e-16
5.76372e-13
1.10134e-13
0
0
1.66533e-16
1.66533e-16
8.88178e-16
0
0
0
0
4.996e-16
0
0
0
2.22045e-16
0
5.55112e-17
6.66134e-16
7.41018e-13
9.84213e-14
0
0
0
4.44089e-16
0
0
5.55112e-17
6.10623e-16
6.66134e-16
0
0
0
0
0
5.55112e-17
0
1.11022e-15
8.73579e-13
9.33142e-14
0
0
0
8.88178e-16
0
0
1.11022e-15
5.55112e-16
7.77156e-16
1.33227e-15
8.32667e-16
5.55112e-16
6.10623e-16
0
8.88178e-16
0
2.77556e-16
9.01224e-13
9.79772e-14
0
0
1.11022e-16
0
0
0
1.83187e-15
8.32667e-16
2.22045e-16
1.66533e-16
3.33067e-16
4.996e-16
3.88578e-16
2.77556e-16
4.996e-16
3.88578e-16
1.66533e-16
6.89726e-13
9.99756e-14
0
0
3.88578e-16
0
0
1.11022e-16
8.32667e-16
2.22045e-16
8.88178e-16
4.44089e-16
5.55112e-16
0
1.66533e-16
7.77156e-16
4.44089e-16
6.66134e-16
6.10623e-16
3.57492e-13
8.01026e-14
3.88578e-16
0
0
0
0
1.05471e-15
3.88578e-16
6.10623e-16
0
1.11022e-16
0
0
1.66533e-16
5.55112e-17
0
7.77156e-16
2.77556e-16
2.55185e-13
5.36793e-14
0
0
0
2.22045e-16
6.10623e-16
0
8.88178e-16
1.33227e-15
6.66134e-16
7.21645e-16
2.77556e-16
0
1.11022e-16
7.21645e-16
3.88578e-16
2.22045e-16
1.66533e-16
2.13274e-13
3.08642e-14
0
0
0
0
1.11022e-16
1.66533e-16
0
0
9.4369e-16
4.996e-16
0
0
0
0
3.33067e-16
2.77556e-16
1.66533e-16
2.367e-13
1.58762e-14
0
2.77556e-16
0
0
2.77556e-16
0
0
0
9.4369e-16
0
0
0
0
0
0
9.4369e-16
7.21645e-16
1.69753e-13
9.4369e-16
0
0
1.11022e-16
0
0
0
1.66533e-16
4.44089e-16
9.99201e-16
0
1.66533e-16
4.44089e-16
0
3.88578e-16
0
8.32667e-16
1.33227e-15
3.4972e-14
0
0
3.33067e-16
6.66134e-16
0
0
0
0
4.44089e-16
4.996e-16
4.44089e-16
0
6.66134e-16
1.66533e-16
2.77556e-16
0
0
0
0
0
2.22045e-16
0
1.66533e-16
0
2.22045e-16
0
7.77156e-16
0
6.66134e-16
7.21645e-16
0
5.55112e-17
0
0
6.66134e-16
1.11022e-16
5.55112e-16
0
4.996e-16
8.88178e-16
6.66134e-16
1.11022e-15
8.32667e-16
7.21645e-16
9.4369e-16
2.77556e-16
8.88178e-16
0
0
0
0
0
3.88578e-16
4.44089e-16
0
1.05471e-15
2.77556e-16
1.66533e-16
0
1.11022e-16
1.22125e-15
0
3.33067e-16
1.66533e-16
0
2.77556e-16
0
3.33067e-16
6.66134e-16
2.22045e-16
6.10623e-16
7.77156e-16
3.88578e-16
5.55112e-17
1.16573e-15
3.33067e-16
0
0
1.11022e-16
6.66134e-16
0
0
1.66533e-16
7.77156e-16
0
0
6.66134e-16
6.66134e-16
0
3.33067e-16
7.77156e-16
4.44089e-16
0
1.72085e-15
2.22045e-16
4.996e-16
3.88578e-16
0
0
2.22045e-16
1.16573e-15
0
8.88178e-16
0
6.10623e-16
2.22045e-16
5.55112e-16
2.22045e-16
6.66134e-16
0
0
0
4.996e-16
0
0
0
0
9.99201e-16
0
0
0
2.77556e-16
2.77556e-16
1.11022e-16
3.33067e-16
1.66533e-16
2.22045e-16
0
0
0
1.66533e-16
9.4369e-16
0
0
0
1.11022e-15
1.05471e-15
6.66134e-16
0
0
4.44089e-16
6.10623e-16
4.44089e-16
5.55112e-17
9.99201e-16
1.66533e-16
0
8.88178e-16
4.44089e-16
4.996e-16
4.996e-16
0
3.88578e-16
0
0
0
0
4.996e-16
0
2.22045e-16
8.88178e-16
0
0
5.55112e-17
0
0
1.11022e-16
2.77556e-16
5.55112e-16
7.21645e-16
0
0
1.66533e-16
0
0
3.33067e-16
1.83187e-15
0
6.10623e-16
5.55112e-16
0
1.66533e-16
6.10623e-16
5.55112e-16
5.55112e-17
1.11022e-16
0
4.44089e-16
6.66134e-16
0
2.77556e-16
3.33067e-16
6.10623e-16
6.10623e-16
6.66134e-16
5.55112e-16
0
6.10623e-16
6.66134e-16
1.11022e-16
7.77156e-16
4.44089e-16
0
0
0
2.22045e-16
0
0
1.66533e-16
9.4369e-16
3.33067e-16
0
6.10623e-16
0
0
0
0
3.33067e-16
0
1.66533e-16
4.44089e-16
2.22045e-16
3.88578e-16
0
1.11022e-16
0
0
3.33067e-16
5.55112e-16
1.66533e-16
2.77556e-16
5.55112e-17
0
0
0
6.10623e-16
0
3.88578e-16
3.88578e-16
0
3.88578e-16
3.88578e-16
4.44089e-16
0
2.22045e-16
2.22045e-16
7.21645e-16
8.32667e-16
0
2.77556e-16
0
0
0
2.22045e-16
0
0
0
0
3.33067e-16
7.21645e-16
0
1.05471e-15
3.88578e-16
4.996e-16
0
3.88578e-16
0
0
4.44089e-16
1.66533e-16
3.88578e-16
6.66134e-16
4.44089e-16
0
1.4988e-15
0
6.66134e-16
6.10623e-16
1.66533e-16
1.11022e-16
7.77156e-16
9.99201e-16
4.44089e-16
0
0
6.10623e-16
0
0
4.996e-16
0
6.10623e-16
4.996e-16
0
1.66533e-16
0
0
5.55112e-16
1.66533e-16
4.996e-16
0
0
0
1.66533e-16
5.55112e-16
0
8.32667e-16
0
0
2.22045e-16
3.88578e-16
5.55112e-17
4.44089e-16
3.88578e-16
2.22045e-16
9.4369e-16
0
0
0
0
1.11022e-16
7.21645e-16
1.11022e-16
1.11022e-16
5.55112e-16
6.66134e-16
4.44089e-16
3.88578e-16
1.66533e-16
0
1.66533e-16
0
5.55112e-17
0
0
5.55112e-17
2.77556e-16
3.33067e-16
1.66533e-16
0
3.33067e-16
0
1.66533e-16
0
0
0
2.77556e-16
0
0
2.22045e-16
0
0
4.996e-16
7.77156e-16
6.66134e-16
4.44089e-16
0
7.21645e-16
3.88578e-16
0
0
9.4369e-16
1.33227e-15
8.88178e-16
5.55112e-17
0
3.88578e-16
0
0
0
0
1.05471e-15
0
4.44089e-16
1.11022e-16
2.22045e-16
0
0
0
4.996e-16
)
;

boundaryField
{
    leftWall
    {
        type            zeroGradient;
    }
    rightWall
    {
        type            zeroGradient;
    }
    lowerWall
    {
        type            zeroGradient;
    }
    atmosphere
    {
        type            inletOutlet;
        inletValue      uniform 0;
        value           nonuniform List<scalar> 
46
(
4.996e-16
0
0
0
6.66134e-16
0
0
0
0
0
6.66134e-16
7.77156e-16
4.996e-16
0
6.10623e-16
4.996e-16
1.66533e-15
2.22045e-16
4.996e-16
6.66134e-16
6.10623e-16
2.22045e-16
7.21645e-16
6.10623e-16
3.33067e-16
1.11022e-16
4.996e-16
9.4369e-16
1.33227e-15
8.88178e-16
5.55112e-17
0
3.88578e-16
0
0
0
0
1.05471e-15
0
4.44089e-16
1.11022e-16
2.22045e-16
0
0
0
4.996e-16
)
;
    }
    defaultFaces
    {
        type            empty;
    }
}


// ************************************************************************* //
