/*--------------------------------*- C++ -*----------------------------------*\
| =========                 |                                                 |
| \\      /  F ield         | foam-extend: Open Source CFD                    |
|  \\    /   O peration     | Version:     4.1                                |
|   \\  /    A nd           | Web:         http://www.foam-extend.org         |
|    \\/     M anipulation  |                                                 |
\*---------------------------------------------------------------------------*/
FoamFile
{
    version     2.0;
    format      ascii;
    class       volScalarField;
    location    "0.05";
    object      C;
}
// * * * * * * * * * * * * * * * * * * * * * * * * * * * * * * * * * * * * * //

dimensions      [0 0 0 0 0 0 0];

internalField   nonuniform List<scalar> 
2268
(
1
1
1
1
1
1
0.999977
0.999822
1.00006
1.00488
1.02605
1.01824
0.92717
0.543456
-0.204053
-0.701222
-0.883537
-0.947434
-0.973013
-0.985898
-0.994261
-0.998648
-0.999889
1
1
1
1
1
1
0.999977
0.999821
1.00002
1.0044
1.02397
1.01248
0.885691
0.391003
-0.395454
-0.813457
-0.94468
-0.980199
-0.9909
-0.995047
-0.997629
-0.999412
-0.999966
1
1
1
1
1
1
0.999977
0.999821
1.00001
1.00422
1.02273
1.00572
0.821859
0.191959
-0.547769
-0.861528
-0.961097
-0.989414
-0.996963
-0.998861
-0.999442
-0.999882
-1
1
1
1
1
1
1
0.999977
0.999818
1.00001
1.00427
1.02303
1.00009
0.74697
-0.0288038
-0.698914
-0.923024
-0.982605
-0.996483
-0.999416
-0.999887
-0.99994
-0.999999
-1
1
1
1
1
1
1
0.999976
0.999814
1.00004
1.00467
1.02472
0.995512
0.671756
-0.21305
-0.799989
-0.959139
-0.992569
-0.999005
-1.00004
-1.00006
-1.00002
-1.00001
-1
1
1
1
1
1
1
0.999975
0.999809
1.00006
1.00511
1.0265
0.991399
0.598024
-0.36146
-0.870422
-0.982624
-0.998341
-1.00021
-1.00016
-1.00005
-1.00002
-1
-1
1
1
1
1
1
1
0.999974
0.999805
1.00008
1.00556
1.02809
0.987066
0.527328
-0.472957
-0.911218
-0.99258
-1.00041
-1.00044
-1.00011
-1.00002
-1.00001
-1
-1
1
1
1
1
1
1
0.999975
0.999806
1.00011
1.006
1.02943
0.982169
0.460079
-0.553581
-0.935133
-0.996246
-1.00086
-1.00032
-1.00004
-1
-1
-1
-1
-1
-1
-1
-1
-1
-1
-1
-1
-1
-1
-1
-1
-1
-1
-1
-1
-1
-1
-1
-1
-1
-1
-1
-1
-1
-1
-1
-1
-1
-1
-1
-1
-1
-1
-1
-1
-1
-1
-1
-1
-1
-1
-1
-1
-1
-1
-1
-1
-1
-1
-1
-1
-1
-1
-1
-1
-1
-1
-1
-1
-1
-1
-1
-1
-1
-1
-1
-1
-1
-1
-1
-1
-1
-1
-1
-1
-1
-1
-1
-1
-1
-1
-1
-1
-1
-1
-1
-1
-1
-1
-1
-1
-1
-1
-1
-1
-1
-1
-1
-1
-1
-1
-1
-1
-1
-1
-1
-1
-1
-1
-1
-1
-1
-1
-1
-1
-1
-1
-1
-1
-1
-1
-1
-1
-1
-1
-1
-1
-1
-1
-1
-1
-1
-1
-1
-1
-1
-1
-1
-1
-1
-1
-1
-1
-1
-1
-1
-1
-1
-1
-1
-1
1
1
1
1
1
1
0.999974
0.999798
1.00018
1.00679
1.03131
0.972444
0.352768
-0.647479
-0.961557
-0.999043
-1.00083
-1.00011
-0.999989
-0.999996
-1
-1
-1
1
1
1
1
1
1
0.999971
0.999783
1.00028
1.00792
1.03367
0.957898
0.196347
-0.765831
-0.989666
-1.00356
-1.00069
-0.999978
-0.999981
-0.999998
-1
-1
-1
1
1
1
1
1
1
0.999967
0.999768
1.00038
1.00903
1.03558
0.943403
0.0675833
-0.823476
-0.998593
-1.0042
-1.0005
-0.999942
-0.999982
-0.999999
-1
-1
-1
1
1
1
1
1
1
0.999963
0.999755
1.00048
1.01012
1.03713
0.927972
-0.0564451
-0.873998
-1.00609
-1.00432
-1.00028
-0.999924
-0.999984
-0.999999
-1
-1
-1
1
1
1
1
1
1
0.999959
0.999743
1.00059
1.01117
1.03838
0.912474
-0.16303
-0.909621
-1.00982
-1.00415
-1.00021
-0.999918
-0.999983
-0.999999
-1
-1
-1
1
1
1
1
1
1
0.999956
0.999732
1.0007
1.01218
1.03939
0.896821
-0.257325
-0.93834
-1.01272
-1.00403
-1.00014
-0.999913
-0.999983
-0.999999
-1
-1
-1
1
1
1
1
1
1
0.999953
0.999722
1.00081
1.01313
1.04019
0.881055
-0.34098
-0.961181
-1.0145
-1.00383
-1.00003
-0.999906
-0.999985
-1
-1
-1
-1
1
1
1
1
1
1
0.99995
0.999714
1.00091
1.01402
1.04083
0.864822
-0.419363
-0.981997
-1.01651
-1.0036
-0.999944
-0.999904
-0.999987
-1
-1
-1
-1
1
1
1
1
1
1
0.999948
0.999708
1.001
1.01485
1.04132
0.8475
-0.491809
-0.997865
-1.01838
-1.00308
-0.999837
-0.999905
-0.999992
-1
-1
-1
-1
1
1
1
1
1
1
0.999946
0.999703
1.00107
1.0156
1.04163
0.828624
-0.562733
-1.00978
-1.01914
-1.00252
-0.999766
-0.999911
-0.999995
-1
-1
-1
-1
0.999999
0.999999
0.999999
0.999999
1
1
0.999944
0.999698
1.00114
1.01623
1.04161
0.815951
-0.603276
-1.0136
-1.01892
-1.00234
-0.999751
-0.999915
-0.999996
-1
-1
-1
-1
0.999997
0.999997
0.999997
0.999997
0.999998
0.999998
0.99994
0.999693
1.0012
1.01653
1.04187
0.816391
-0.597073
-1.01207
-1.01904
-1.00234
-0.999749
-0.999916
-0.999997
-1
-1
-1
-1
1.00001
1.00002
1.00002
1.00002
1.00002
1.00003
0.999971
0.999713
1.00123
1.01643
1.0419
0.82219
-0.584181
-1.01053
-1.01916
-1.00237
-0.999748
-0.999916
-0.999997
-1
-1
-1
-1
1.00035
1.00036
1.00037
1.00038
1.00038
1.00041
1.00036
1.00009
1.00155
1.01652
1.04207
0.820092
-0.630636
-1.01891
-1.02004
-1.00254
-0.999746
-0.999914
-0.999997
-1
-1
-1
-1
1.00173
1.00173
1.00173
1.00172
1.00175
1.00174
1.00166
1.00137
1.00293
1.01777
1.0429
0.82254
-0.638331
-1.01545
-1.02233
-1.004
-0.999828
-0.999903
-0.999996
-1
-1
-1
-1
1.00099
1.00089
1.00071
1.00045
1.00013
0.999775
0.999309
0.998803
1.00057
1.01573
1.04037
0.839611
-0.491004
-0.961697
-1.02039
-1.00598
-1.00012
-0.999896
-0.999993
-1
-1
-1
-1
0.949798
0.949154
0.947986
0.94634
0.944335
0.942156
0.939953
0.937807
0.938437
0.950733
0.969802
0.777826
-0.388586
-0.912612
-1.01288
-1.00578
-1.00032
-0.999916
-0.999991
-1
-1
-1
-1
0.607308
0.604942
0.60061
0.594542
0.587219
0.579419
0.572202
0.564678
0.559566
0.558351
0.544617
0.288552
-0.468005
-0.889356
-0.997996
-1.00418
-1.00031
-0.999937
-0.999992
-1
-1
-1
-1
-0.403365
-0.405999
-0.410838
-0.417528
-0.425357
-0.433592
-0.441145
-0.449484
-0.456993
-0.466219
-0.491263
-0.645524
-0.893067
-0.988453
-1.00367
-1.00221
-1.00016
-0.999962
-0.999995
-1
-1
-1
-1
-0.979195
-0.979418
-0.979828
-0.980389
-0.981027
-0.981665
-0.982199
-0.982812
-0.983128
-0.982292
-0.977999
-0.982674
-1.00329
-1.00693
-1.00272
-1.00074
-1.00001
-0.999976
-0.999998
-1
-1
-1
-1
-1.02899
-1.02894
-1.02886
-1.02876
-1.02863
-1.0285
-1.02836
-1.02824
-1.02809
-1.02737
-1.02385
-1.01602
-1.00873
-1.00283
-1.00069
-1.00009
-0.999967
-0.999991
-1
-1
-1
-1
-1
-1.00567
-1.00565
-1.00563
-1.0056
-1.00557
-1.00554
-1.00552
-1.00552
-1.00555
-1.0056
-1.0053
-1.00326
-1.00102
-1.00016
-0.999972
-0.999962
-0.999986
-0.999999
-1
-1
-1
-1
-1
-1.00008
-1.00008
-1.00008
-1.00008
-1.00008
-1.00008
-1.00008
-1.00008
-1.00009
-1.00014
-1.00023
-1
-0.999827
-0.999889
-0.999964
-0.999992
-0.999999
-1
-1
-1
-1
-1
-1
-0.999824
-0.999825
-0.999825
-0.999824
-0.999824
-0.999824
-0.999822
-0.99982
-0.999817
-0.99982
-0.99986
-0.999897
-0.999942
-0.999984
-0.999999
-1
-1
-1
-1
-1
-1
-1
-1
-0.99998
-0.99998
-0.99998
-0.99998
-0.99998
-0.99998
-0.999979
-0.999978
-0.999976
-0.999973
-0.999976
-0.999988
-0.999998
-1
-1
-1
-1
-1
-1
-1
-1
-1
-1
-1
-1
-1
-1
-1
-1
-1
-1
-1
-1
-1
-1
-1
-1
-1
-1
-1
-1
-1
-1
-1
-1
-1
-1
-1
-1
-1
-1
-1
-1
-1
-1
-1
-1
-1
-1
-1
-1
-1
-1
-1
-1
-1
-1
-1
-1
-1
-1
-1
-1
-1
-1
-1
-1
-1
-1
-1
-1
-1
-1
-1
-1
-1
-1
-1
-1
-1
-1
-1
-1
-1
-1
-1
-1
-1
-1
-1
-1
-1
-1
-1
-1
-1
-1
-1
-1
-1
-1
-1
-1
-1
-1
-1
-1
-1
-1
-1
-1
-1
-1
-1
-1
-1
-1
-1
-1
-1
-1
-1
-1
-1
-1
-1
-1
-1
-1
-1
-1
-1
-1
-1
-1
-1
-1
-1
-1
-1
-1
-1
-1
-1
-1
-1
-1
-1
-1
-1
-1
-1
-1
-1
-1
-1
-1
-1
-1
-1
-1
-1
-1
-1
-1
-1
-1
-1
-1
-1
-1
-1
-1
-1
-1
-1
-1
-1
-1
-1
-1
-1
-1
-1
-1
-1
-1
-1
-1
-1
-1
-1
-1
-1
-1
-1
-1
-1
-1
-1
-1
-1
-1
-1
-1
-1
-1
-1
-1
-1
-1
-1
-1
-1
-1
-1
-1
-1
-1
-1
-1
-1
-1
-1
-1
-1
-1
-1
-1
-1
-1
-1
-1
-1
-1
-1
-1
-1
-1
-1
-1
-1
-1
-1
-1
-1
-1
-1
-1
-1
-1
-1
-1
-1
-1
-1
-1
-1
-1
-1
-1
-1
-1
-1
-1
-1
-1
-1
-1
-1
-1
-1
-1
-1
-1
-1
-1
-1
-1
-1
-1
-1
-1
-1
-1
-1
-1
-1
-1
-1
-1
-1
-1
-1
-1
-1
-1
-1
-1
-1
-1
-1
-1
-1
-1
-1
-1
-1
-1
-1
-1
-1
-1
-1
-1
-1
-1
-1
-1
-1
-1
-1
-1
-1
-1
-1
-1
-1
-1
-1
-1
-1
-1
-1
-1
-1
-1
-1
-1
-1
-1
-1
-1
-1
-1
-1
-1
-1
-1
-1
-1
-1
-1
-1
-1
-1
-1
-1
-1
-1
-1
-1
-1
-1
-1
-1
-1
-1
-1
-1
-1
-1
-1
-1
-1
-1
-1
-1
-1
-1
-1
-1
-1
-1
-1
-1
-1
-1
-1
-1
-1
-1
-1
-1
-1
-1
-1
-1
-1
-1
-1
-1
-1
-1
-1
-1
-1
-1
-1
-1
-1
-1
-1
-1
-1
-1
-1
-1
-1
-1
-1
-1
-1
-1
-1
-1
-1
-1
-1
-1
-1
-1
-1
-1
-1
-1
-1
-1
-1
-1
-1
-1
-1
-1
-1
-1
-1
-1
-1
-1
-1
-1
-1
-1
-1
-1
-1
-1
-1
-1
-1
-1
-1
-1
-1
-1
-1
-1
-1
-1
-1
-1
-1
-1
-1
-1
-1
-1
-1
-1
-1
-1
-1
-1
-1
-1
-1
-1
-1
-1
-1
-1
-1
-1
-1
-1
-1
-1
-1
-1
-1
-1
-1
-1
-1
-1
-1
-1
-1
-1
-1
-1
-1
-1
-1
-1
-1
-1
-1
-1
-1
-1
-1
-1
-1
-1
-1
-1
-1
-1
-1
-1
-1
-1
-1
-1
-1
-1
-1
-1
-1
-1
-1
-1
-1
-1
-1
-1
-1
-1
-1
-1
-1
-1
-1
-1
-1
-1
-1
-1
-1
-1
-1
-1
-1
-1
-1
-1
-1
-1
-1
-1
-1
-1
-1
-1
-1
-1
-1
-1
-1
-1
-1
-1
-1
-1
-1
-1
-1
-1
-1
-1
-1
-1
-1
-1
-1
-1
-1
-1
-1
-1
-1
-1
-1
-1
-1
-1
-1
-1
-1
-1
-1
-1
-1
-1
-1
-1
-1
-1
-1
-1
-1
-1
-1
-1
-1
-1
-1
-1
-1
-1
-1
-1
-1
-1
-1
-1
-1
-1
-1
-1
-1
-1
-1
-1
-1
-1
-1
-1
-1
-1
-1
-1
-1
-1
-1
-1
-1
-1
-1
-1
-1
-1
-1
-1
-1
-1
-1
-1
-1
-1
-1
-1
-1
-1
-1
-1
-1
-1
-1
-1
-1
-1
-1
-1
-1
-1
-1
-1
-1
-1
-1
-1
-1
-1
-1
-1
-1
-1
-1
-1
-1
-1
-1
-1
-1
-1
-1
-1
-1
-1
-1
-1
-1
-1
-1
-1
-1
-1
-1
-1
-1
-1
-1
-1
-1
-1
-1
-1
-1
-1
-1
-1
-1
-1
-1
-1
-1
-1
-1
-1
-1
-1
-1
-1
-1
-1
-1
-1
-1
-1
-1
-1
-1
-1
-1
-1
-1
-1
-1
-1
-1
-1
-1
-1
-1
-1
-1
-1
-1
-1
-1
-1
-1
-1
-1
-1
-1
-1
-1
-1
-1
-1
-1
-1
-1
-1
-1
-1
-1
-1
-1
-1
-1
-1
-1
-1
-1
-1
-1
-1
-1
-1
-1
-1
-1
-1
-1
-1
-1
-1
-1
-1
-1
-1
-1
-1
-1
-1
-1
-1
-1
-1
-1
-1
-1
-1
-1
-1
-1
-1
-1
-1
-1
-1
-1
-1
-1
-1
-1
-1
-1
-1
-1
-1
-1
-1
-1
-1
-1
-1
-1
-1
-1
-1
-1
-1
-1
-1
-1
-1
-1
-1
-1
-1
-1
-1
-1
-1
-1
-1
-1
-1
-1
-1
-1
-1
-1
-1
-1
-1
-1
-1
-1
-1
-1
-1
-1
-1
-1
-1
-1
-1
-1
-1
-1
-1
-1
-1
-1
-1
-1
-1
-1
-1
-1
-1
-1
-1
-1
-1
-1
-1
-1
-1
-1
-1
-1
-1
-1
-1
-1
-1
-1
-1
-1
-1
-1
-1
-1
-1
-1
-1
-1
-1
-1
-1
-1
-1
-1
-1
-1
-1
-1
-1
-1
-1
-1
-1
-1
-1
-1
-1
-1
-1
-1
-1
-1
-1
-1
-1
-1
-1
-1
-1
-1
-1
-1
-1
-1
-1
-1
-1
-1
-1
-1
-1
-1
-1
-1
-1
-1
-1
-1
-1
-1
-1
-1
-1
-1
-1
-1
-1
-1
-1
-1
-1
-1
-1
-1
-1
-1
-1
-1
-1
-1
-1
-1
-1
-1
-1
-1
-1
-1
-1
-1
-1
-1
-1
-1
-1
-1
-1
-1
-1
-1
-1
-1
-1
-1
-1
-1
-1
-1
-1
-1
-1
-1
-1
-1
-1
-1
-1
-1
-1
-1
-1
-1
-1
-1
-1
-1
-1
-1
-1
-1
-1
-1
-1
-1
-1
-1
-1
-1
-1
-1
-1
-1
-1
-1
-1
-1
-1
-1
-1
-1
-1
-1
-1
-1
-1
-1
-1
-1
-1
-1
-1
-1
-1
-1
-1
-1
-1
-1
-1
-1
-1
-1
-1
-1
-1
-1
-1
-1
-1
-1
-1
-1
-1
-1
-1
-1
-1
-1
-1
-1
-1
-1
-1
-1
-1
-1
-1
-1
-1
-1
-1
-1
-1
-1
-1
-1
-1
-1
-1
-1
-1
-1
-1
-1
-1
-1
-1
-1
-1
-1
-1
-1
-1
-1
-1
-1
-1
-1
-1
-1
-1
-1
-1
-1
-1
-1
-1
-1
-1
-1
-1
-1
-1
-1
-1
-1
-1
-1
-1
-1
-1
-1
-1
-1
-1
-1
-1
-1
-1
-1
-1
-1
-1
-1
-1
-1
-1
-1
-1
-1
-1
-1
-1
-1
-1
-1
-1
-1
-1
-1
-1
-1
-1
-1
-1
-1
-1
-1
-1
-1
-1
-1
-1
-1
-1
-1
-1
-1
-1
-1
-1
-1
-1
-1
-1
-1
-1
-1
-1
-1
-1
-1
-1
-1
-1
-1
-1
-1
-1
-1
-1
-1
-1
-1
-1
-1
-1
-1
-1
-1
-1
-1
-1
-1
-1
-1
-1
-1
-1
-1
-1
-1
-1
-1
-1
-1
-1
-1
-1
-1
-1
-1
-1
-1
-1
-1
-1
-1
-1
-1
-1
-1
-1
-1
-1
-1
-1
-1
-1
-1
-1
-1
-1
-1
-1
-1
-1
-1
-1
-1
-1
-1
-1
-1
-1
-1
-1
-1
-1
-1
-1
-1
-1
-1
-1
-1
-1
-1
-1
-1
-1
-1
-1
-1
-1
-1
-1
-1
-1
-1
-1
-1
-1
-1
-1
-1
-1
-1
-1
-1
-1
-1
-1
-1
-1
-1
-1
-1
-1
-1
-1
-1
-1
-1
-1
-1
-1
-1
-1
-1
-1
-1
-1
)
;

boundaryField
{
    leftWall
    {
        type            zeroGradient;
    }
    rightWall
    {
        type            zeroGradient;
    }
    lowerWall
    {
        type            zeroGradient;
    }
    atmosphere
    {
        type            zeroGradient;
    }
    defaultFaces
    {
        type            empty;
    }
}


// ************************************************************************* //
