/*--------------------------------*- C++ -*----------------------------------*\
| =========                 |                                                 |
| \\      /  F ield         | foam-extend: Open Source CFD                    |
|  \\    /   O peration     | Version:     4.1                                |
|   \\  /    A nd           | Web:         http://www.foam-extend.org         |
|    \\/     M anipulation  |                                                 |
\*---------------------------------------------------------------------------*/
FoamFile
{
    version     2.0;
    format      ascii;
    class       volScalarField;
    location    "0.05";
    object      C_0;
}
// * * * * * * * * * * * * * * * * * * * * * * * * * * * * * * * * * * * * * //

dimensions      [0 0 0 0 0 0 0];

internalField   nonuniform List<scalar> 
2268
(
1
1
1
1
1
1
0.999978
0.999823
1.00006
1.00507
1.02693
1.01699
0.905601
0.45538
-0.316138
-0.753802
-0.905534
-0.957385
-0.978254
-0.989522
-0.996413
-0.999374
-0.999969
1
1
1
1
1
1
0.999978
0.999821
1.00003
1.00459
1.02477
1.01069
0.857795
0.290408
-0.488992
-0.849428
-0.956317
-0.984302
-0.992688
-0.996159
-0.998473
-0.999745
-0.999993
1
1
1
1
1
1
0.999978
0.999821
1.00002
1.00445
1.02326
1.00345
0.784929
0.0817459
-0.624083
-0.891156
-0.971023
-0.992401
-0.997805
-0.999142
-0.999653
-0.999961
-1
1
1
1
1
1
1
0.999977
0.999819
1.00002
1.00453
1.02403
0.996705
0.700178
-0.137752
-0.755325
-0.942407
-0.987966
-0.997791
-0.999661
-0.999927
-0.999975
-1.00001
-1
1
1
1
1
1
1
0.999977
0.999815
1.00005
1.00493
1.02579
0.991579
0.61762
-0.310256
-0.841526
-0.971078
-0.995458
-0.99965
-1.0001
-1.00005
-1.00002
-1.00001
-1
1
1
1
1
1
1
0.999976
0.99981
1.00007
1.00538
1.02756
0.987012
0.537857
-0.445257
-0.899634
-0.988677
-0.99943
-1.00036
-1.00014
-1.00004
-1.00001
-1
-1
1
1
1
1
1
1
0.999975
0.999806
1.00009
1.00582
1.02909
0.982337
0.463216
-0.544905
-0.932934
-0.996088
-1.00084
-1.0004
-1.00008
-1.00001
-1
-1
-1
1
1
1
1
1
1
0.999975
0.999806
1.00012
1.00626
1.03038
0.977143
0.393455
-0.616376
-0.952081
-0.998712
-1.00105
-1.00025
-1.00002
-0.999999
-1
-1
-1
-1
-1
-1
-1
-1
-1
-1
-1
-1
-1
-1
-1
-1
-1
-1
-1
-1
-1
-1
-1
-1
-1
-1
-1
-1
-1
-1
-1
-1
-1
-1
-1
-1
-1
-1
-1
-1
-1
-1
-1
-1
-1
-1
-1
-1
-1
-1
-1
-1
-1
-1
-1
-1
-1
-1
-1
-1
-1
-1
-1
-1
-1
-1
-1
-1
-1
-1
-1
-1
-1
-1
-1
-1
-1
-1
-1
-1
-1
-1
-1
-1
-1
-1
-1
-1
-1
-1
-1
-1
-1
-1
-1
-1
-1
-1
-1
-1
-1
-1
-1
-1
-1
-1
-1
-1
-1
-1
-1
-1
-1
-1
-1
-1
-1
-1
-1
-1
-1
-1
-1
-1
-1
-1
-1
-1
-1
-1
-1
-1
-1
-1
-1
-1
-1
-1
-1
-1
-1
-1
-1
-1
-1
-1
-1
-1
-1
-1
-1
-1
-1
-1
-1
1
1
1
1
1
1
0.999975
0.999799
1.00018
1.00703
1.03216
0.967031
0.284932
-0.697428
-0.972786
-1.00059
-1.00082
-1.00006
-0.999985
-0.999997
-1
-1
-1
1
1
1
1
1
1
0.999972
0.999785
1.00028
1.00813
1.03436
0.952053
0.129826
-0.799849
-0.995136
-1.00385
-1.00058
-0.999964
-0.999982
-0.999998
-1
-1
-1
1
1
1
1
1
1
0.999968
0.999771
1.00037
1.00919
1.03613
0.937351
0.00422016
-0.849192
-1.0018
-1.00415
-1.00038
-0.999938
-0.999985
-0.999999
-1
-1
-1
1
1
1
1
1
1
0.999965
0.999758
1.00047
1.01022
1.03756
0.922043
-0.112674
-0.893578
-1.00782
-1.00405
-1.00022
-0.999926
-0.999986
-1
-1
-1
-1
1
1
1
1
1
1
0.999962
0.999747
1.00057
1.01121
1.03871
0.90689
-0.211844
-0.924829
-1.01097
-1.00393
-1.00016
-0.999921
-0.999985
-1
-1
-1
-1
1
1
1
1
1
1
0.999959
0.999737
1.00067
1.01215
1.03963
0.89188
-0.298609
-0.949897
-1.01343
-1.0038
-1.0001
-0.999916
-0.999986
-1
-1
-1
-1
1
1
1
1
1
1
0.999956
0.999728
1.00076
1.01303
1.04037
0.877072
-0.374646
-0.969706
-1.01493
-1.00356
-0.999991
-0.999911
-0.999987
-1
-1
-1
-1
1
1
1
1
1
1
0.999953
0.99972
1.00085
1.01384
1.04096
0.862222
-0.444717
-0.987417
-1.01679
-1.00325
-0.999897
-0.99991
-0.999991
-1
-1
-1
-1
1
1
1
1
1
1
0.999951
0.999714
1.00093
1.01458
1.04143
0.846969
-0.507949
-1.0004
-1.01822
-1.00273
-0.99981
-0.999913
-0.999994
-1
-1
-1
-1
1
1
1
1
1
1
0.99995
0.999709
1.00099
1.01526
1.04177
0.831125
-0.568315
-1.01038
-1.01856
-1.00229
-0.999762
-0.999919
-0.999996
-1
-1
-1
-1
1
1
0.999999
1
1
1
0.999948
0.999705
1.00105
1.01581
1.04191
0.819512
-0.607016
-1.01455
-1.01832
-1.00214
-0.999751
-0.999922
-0.999997
-1
-1
-1
-1
0.999997
0.999997
0.999997
0.999997
0.999998
0.999998
0.999944
0.9997
1.0011
1.01605
1.04197
0.817989
-0.60929
-1.01449
-1.01847
-1.00214
-0.999748
-0.999923
-0.999998
-1
-1
-1
-1
1
1
1.00001
1.00001
1.00001
1.00001
0.99996
0.999707
1.00111
1.01598
1.04194
0.822419
-0.597808
-1.01261
-1.01864
-1.00219
-0.999748
-0.999923
-0.999998
-1
-1
-1
-1
1.00024
1.00025
1.00026
1.00027
1.00029
1.00032
1.00028
1.00001
1.00137
1.01604
1.04209
0.822341
-0.632742
-1.01987
-1.01943
-1.00234
-0.999748
-0.999921
-0.999998
-1
-1
-1
-1
1.00164
1.00164
1.00164
1.00165
1.00166
1.00166
1.00161
1.00132
1.00275
1.01729
1.04292
0.822824
-0.650041
-1.02015
-1.02167
-1.00363
-0.999815
-0.999912
-0.999997
-1
-1
-1
-1
1.00245
1.00239
1.00226
1.00207
1.00184
1.00157
1.00121
1.00074
1.00228
1.01713
1.04196
0.838762
-0.518753
-0.97126
-1.02037
-1.00567
-1.00008
-0.999904
-0.999994
-1
-1
-1
-1
0.962773
0.962269
0.961337
0.959999
0.958331
0.95645
0.954562
0.952446
0.952698
0.964795
0.984192
0.789848
-0.408187
-0.922649
-1.01398
-1.00547
-1.00027
-0.99992
-0.999992
-1
-1
-1
-1
0.660911
0.658912
0.655204
0.649912
0.643361
0.636143
0.629307
0.621433
0.6154
0.613843
0.600785
0.342525
-0.458856
-0.892948
-0.99963
-1.00406
-1.00027
-0.999939
-0.999993
-1
-1
-1
-1
-0.338135
-0.340729
-0.345553
-0.35234
-0.360455
-0.369284
-0.377683
-0.387679
-0.3972
-0.408722
-0.438656
-0.606923
-0.882044
-0.986539
-1.00354
-1.00209
-1.00013
-0.999964
-0.999996
-1
-1
-1
-1
-0.974283
-0.97451
-0.97493
-0.975516
-0.976199
-0.976911
-0.977543
-0.978327
-0.978832
-0.978186
-0.974209
-0.979747
-1.00295
-1.00696
-1.00272
-1.00069
-1
-0.999978
-0.999998
-1
-1
-1
-1
-1.02998
-1.02993
-1.02986
-1.02976
-1.02964
-1.0295
-1.02935
-1.02922
-1.02906
-1.02833
-1.02472
-1.0166
-1.00911
-1.0029
-1.0007
-1.00007
-0.999966
-0.999992
-1
-1
-1
-1
-1
-1.00594
-1.00592
-1.0059
-1.00587
-1.00584
-1.00581
-1.00578
-1.00577
-1.00579
-1.00584
-1.00551
-1.00341
-1.00106
-1.00015
-0.999964
-0.99996
-0.999987
-1
-1
-1
-1
-1
-1
-1.00009
-1.00009
-1.00009
-1.00009
-1.00009
-1.00008
-1.00008
-1.00008
-1.0001
-1.00014
-1.00023
-1.00001
-0.999823
-0.999887
-0.999964
-0.999992
-1
-1
-1
-1
-1
-1
-1
-0.999824
-0.999824
-0.999824
-0.999824
-0.999824
-0.999823
-0.999822
-0.99982
-0.999817
-0.99982
-0.999859
-0.999897
-0.999941
-0.999984
-1
-1
-1
-1
-1
-1
-1
-1
-1
-0.999981
-0.999981
-0.999981
-0.999981
-0.99998
-0.99998
-0.99998
-0.999979
-0.999977
-0.999974
-0.999977
-0.999988
-0.999998
-1
-1
-1
-1
-1
-1
-1
-1
-1
-1
-1
-1
-1
-1
-1
-1
-1
-1
-1
-1
-1
-1
-1
-1
-1
-1
-1
-1
-1
-1
-1
-1
-1
-1
-1
-1
-1
-1
-1
-1
-1
-1
-1
-1
-1
-1
-1
-1
-1
-1
-1
-1
-1
-1
-1
-1
-1
-1
-1
-1
-1
-1
-1
-1
-1
-1
-1
-1
-1
-1
-1
-1
-1
-1
-1
-1
-1
-1
-1
-1
-1
-1
-1
-1
-1
-1
-1
-1
-1
-1
-1
-1
-1
-1
-1
-1
-1
-1
-1
-1
-1
-1
-1
-1
-1
-1
-1
-1
-1
-1
-1
-1
-1
-1
-1
-1
-1
-1
-1
-1
-1
-1
-1
-1
-1
-1
-1
-1
-1
-1
-1
-1
-1
-1
-1
-1
-1
-1
-1
-1
-1
-1
-1
-1
-1
-1
-1
-1
-1
-1
-1
-1
-1
-1
-1
-1
-1
-1
-1
-1
-1
-1
-1
-1
-1
-1
-1
-1
-1
-1
-1
-1
-1
-1
-1
-1
-1
-1
-1
-1
-1
-1
-1
-1
-1
-1
-1
-1
-1
-1
-1
-1
-1
-1
-1
-1
-1
-1
-1
-1
-1
-1
-1
-1
-1
-1
-1
-1
-1
-1
-1
-1
-1
-1
-1
-1
-1
-1
-1
-1
-1
-1
-1
-1
-1
-1
-1
-1
-1
-1
-1
-1
-1
-1
-1
-1
-1
-1
-1
-1
-1
-1
-1
-1
-1
-1
-1
-1
-1
-1
-1
-1
-1
-1
-1
-1
-1
-1
-1
-1
-1
-1
-1
-1
-1
-1
-1
-1
-1
-1
-1
-1
-1
-1
-1
-1
-1
-1
-1
-1
-1
-1
-1
-1
-1
-1
-1
-1
-1
-1
-1
-1
-1
-1
-1
-1
-1
-1
-1
-1
-1
-1
-1
-1
-1
-1
-1
-1
-1
-1
-1
-1
-1
-1
-1
-1
-1
-1
-1
-1
-1
-1
-1
-1
-1
-1
-1
-1
-1
-1
-1
-1
-1
-1
-1
-1
-1
-1
-1
-1
-1
-1
-1
-1
-1
-1
-1
-1
-1
-1
-1
-1
-1
-1
-1
-1
-1
-1
-1
-1
-1
-1
-1
-1
-1
-1
-1
-1
-1
-1
-1
-1
-1
-1
-1
-1
-1
-1
-1
-1
-1
-1
-1
-1
-1
-1
-1
-1
-1
-1
-1
-1
-1
-1
-1
-1
-1
-1
-1
-1
-1
-1
-1
-1
-1
-1
-1
-1
-1
-1
-1
-1
-1
-1
-1
-1
-1
-1
-1
-1
-1
-1
-1
-1
-1
-1
-1
-1
-1
-1
-1
-1
-1
-1
-1
-1
-1
-1
-1
-1
-1
-1
-1
-1
-1
-1
-1
-1
-1
-1
-1
-1
-1
-1
-1
-1
-1
-1
-1
-1
-1
-1
-1
-1
-1
-1
-1
-1
-1
-1
-1
-1
-1
-1
-1
-1
-1
-1
-1
-1
-1
-1
-1
-1
-1
-1
-1
-1
-1
-1
-1
-1
-1
-1
-1
-1
-1
-1
-1
-1
-1
-1
-1
-1
-1
-1
-1
-1
-1
-1
-1
-1
-1
-1
-1
-1
-1
-1
-1
-1
-1
-1
-1
-1
-1
-1
-1
-1
-1
-1
-1
-1
-1
-1
-1
-1
-1
-1
-1
-1
-1
-1
-1
-1
-1
-1
-1
-1
-1
-1
-1
-1
-1
-1
-1
-1
-1
-1
-1
-1
-1
-1
-1
-1
-1
-1
-1
-1
-1
-1
-1
-1
-1
-1
-1
-1
-1
-1
-1
-1
-1
-1
-1
-1
-1
-1
-1
-1
-1
-1
-1
-1
-1
-1
-1
-1
-1
-1
-1
-1
-1
-1
-1
-1
-1
-1
-1
-1
-1
-1
-1
-1
-1
-1
-1
-1
-1
-1
-1
-1
-1
-1
-1
-1
-1
-1
-1
-1
-1
-1
-1
-1
-1
-1
-1
-1
-1
-1
-1
-1
-1
-1
-1
-1
-1
-1
-1
-1
-1
-1
-1
-1
-1
-1
-1
-1
-1
-1
-1
-1
-1
-1
-1
-1
-1
-1
-1
-1
-1
-1
-1
-1
-1
-1
-1
-1
-1
-1
-1
-1
-1
-1
-1
-1
-1
-1
-1
-1
-1
-1
-1
-1
-1
-1
-1
-1
-1
-1
-1
-1
-1
-1
-1
-1
-1
-1
-1
-1
-1
-1
-1
-1
-1
-1
-1
-1
-1
-1
-1
-1
-1
-1
-1
-1
-1
-1
-1
-1
-1
-1
-1
-1
-1
-1
-1
-1
-1
-1
-1
-1
-1
-1
-1
-1
-1
-1
-1
-1
-1
-1
-1
-1
-1
-1
-1
-1
-1
-1
-1
-1
-1
-1
-1
-1
-1
-1
-1
-1
-1
-1
-1
-1
-1
-1
-1
-1
-1
-1
-1
-1
-1
-1
-1
-1
-1
-1
-1
-1
-1
-1
-1
-1
-1
-1
-1
-1
-1
-1
-1
-1
-1
-1
-1
-1
-1
-1
-1
-1
-1
-1
-1
-1
-1
-1
-1
-1
-1
-1
-1
-1
-1
-1
-1
-1
-1
-1
-1
-1
-1
-1
-1
-1
-1
-1
-1
-1
-1
-1
-1
-1
-1
-1
-1
-1
-1
-1
-1
-1
-1
-1
-1
-1
-1
-1
-1
-1
-1
-1
-1
-1
-1
-1
-1
-1
-1
-1
-1
-1
-1
-1
-1
-1
-1
-1
-1
-1
-1
-1
-1
-1
-1
-1
-1
-1
-1
-1
-1
-1
-1
-1
-1
-1
-1
-1
-1
-1
-1
-1
-1
-1
-1
-1
-1
-1
-1
-1
-1
-1
-1
-1
-1
-1
-1
-1
-1
-1
-1
-1
-1
-1
-1
-1
-1
-1
-1
-1
-1
-1
-1
-1
-1
-1
-1
-1
-1
-1
-1
-1
-1
-1
-1
-1
-1
-1
-1
-1
-1
-1
-1
-1
-1
-1
-1
-1
-1
-1
-1
-1
-1
-1
-1
-1
-1
-1
-1
-1
-1
-1
-1
-1
-1
-1
-1
-1
-1
-1
-1
-1
-1
-1
-1
-1
-1
-1
-1
-1
-1
-1
-1
-1
-1
-1
-1
-1
-1
-1
-1
-1
-1
-1
-1
-1
-1
-1
-1
-1
-1
-1
-1
-1
-1
-1
-1
-1
-1
-1
-1
-1
-1
-1
-1
-1
-1
-1
-1
-1
-1
-1
-1
-1
-1
-1
-1
-1
-1
-1
-1
-1
-1
-1
-1
-1
-1
-1
-1
-1
-1
-1
-1
-1
-1
-1
-1
-1
-1
-1
-1
-1
-1
-1
-1
-1
-1
-1
-1
-1
-1
-1
-1
-1
-1
-1
-1
-1
-1
-1
-1
-1
-1
-1
-1
-1
-1
-1
-1
-1
-1
-1
-1
-1
-1
-1
-1
-1
-1
-1
-1
-1
-1
-1
-1
-1
-1
-1
-1
-1
-1
-1
-1
-1
-1
-1
-1
-1
-1
-1
-1
-1
-1
-1
-1
-1
-1
-1
-1
-1
-1
-1
-1
-1
-1
-1
-1
-1
-1
-1
-1
-1
-1
-1
-1
-1
-1
-1
-1
-1
-1
-1
-1
-1
-1
-1
-1
-1
-1
-1
-1
-1
-1
-1
-1
-1
-1
-1
-1
-1
-1
-1
-1
-1
-1
-1
-1
-1
-1
-1
-1
-1
-1
-1
-1
-1
-1
-1
-1
-1
-1
-1
-1
-1
-1
-1
-1
-1
-1
-1
-1
-1
-1
-1
-1
-1
-1
-1
-1
-1
-1
-1
-1
-1
-1
-1
-1
-1
-1
-1
-1
-1
-1
-1
-1
-1
-1
-1
-1
-1
-1
-1
-1
-1
-1
-1
-1
-1
-1
-1
-1
-1
-1
-1
-1
-1
-1
-1
-1
-1
-1
-1
-1
-1
-1
-1
-1
-1
-1
-1
-1
-1
-1
-1
-1
-1
-1
-1
-1
-1
-1
-1
-1
-1
-1
-1
-1
-1
-1
-1
-1
-1
-1
-1
-1
-1
-1
-1
-1
-1
-1
-1
-1
-1
-1
-1
-1
-1
-1
-1
-1
-1
-1
-1
-1
-1
-1
-1
-1
-1
-1
-1
-1
-1
-1
-1
-1
-1
-1
-1
-1
-1
-1
-1
-1
-1
-1
-1
-1
-1
-1
-1
-1
-1
-1
-1
-1
-1
-1
-1
-1
-1
-1
-1
-1
-1
-1
-1
-1
-1
-1
-1
-1
-1
-1
-1
-1
-1
-1
-1
-1
-1
-1
-1
-1
-1
-1
-1
-1
-1
-1
)
;

boundaryField
{
    leftWall
    {
        type            zeroGradient;
    }
    rightWall
    {
        type            zeroGradient;
    }
    lowerWall
    {
        type            zeroGradient;
    }
    atmosphere
    {
        type            zeroGradient;
    }
    defaultFaces
    {
        type            empty;
    }
}


// ************************************************************************* //
