/*--------------------------------*- C++ -*----------------------------------*\
| =========                 |                                                 |
| \\      /  F ield         | foam-extend: Open Source CFD                    |
|  \\    /   O peration     | Version:     4.1                                |
|   \\  /    A nd           | Web:         http://www.foam-extend.org         |
|    \\/     M anipulation  |                                                 |
\*---------------------------------------------------------------------------*/
FoamFile
{
    version     2.0;
    format      ascii;
    class       volScalarField;
    location    "0.05";
    object      p;
}
// * * * * * * * * * * * * * * * * * * * * * * * * * * * * * * * * * * * * * //

dimensions      [1 -1 -2 0 0 0 0];

internalField   nonuniform List<scalar> 
2268
(
1487.32
1474.97
1449.89
1411.32
1359.3
1292.42
1215.6
1118.35
1012.99
898.935
797.63
746.205
520.408
264.119
67.6459
0.498831
-0.473304
1.90312
3.35282
3.8474
2.27812
5.98875
8.85463
1429.54
1417.21
1392.17
1353.55
1301.57
1234.32
1157.98
1060.05
951.399
830.458
773.526
657.512
462.515
224.736
73.7857
7.1034
0.317925
3.07519
3.11131
1.32931
1.13654
4.28114
7.40072
1372.87
1360.57
1335.62
1296.88
1245.01
1176.97
1101.61
1002.69
893.636
781.526
709.499
577.811
398.962
184.223
32.5504
1.78191
1.06404
2.25873
2.6929
2.77088
1.69008
3.6713
5.69519
1317.3
1305.04
1280.24
1241.3
1189.65
1120.38
1046.62
949.423
838.503
769.143
639.055
504.306
330.251
132.583
27.9179
2.3619
1.79748
1.88464
2.18159
2.07072
2.13291
3.29224
4.40275
1262.82
1250.62
1226.06
1186.8
1135.56
1064.08
993.12
903.882
782.541
721.42
581.45
446.664
257.349
90.6727
18.5744
2.29719
1.32449
1.40296
1.98301
2.10714
2.26443
2.98383
3.48266
1209.36
1197.23
1173.04
1133.33
1082.65
1008.18
944.769
834.518
768.063
665.424
532.492
404.521
195.973
62.0139
12.8715
1.93816
1.24997
1.07772
1.68469
1.96358
2.20182
2.69776
2.80506
1156.95
1144.9
1121.22
1080.95
1031.11
955.746
903.354
784.958
729.114
618.987
488.608
364.276
136.258
40.4292
7.51679
0.873857
1.24764
1.11507
1.59185
1.81648
2.06647
2.39819
2.26055
1105.56
1093.61
1070.56
1029.54
981.596
910.988
837.266
762.514
684.467
578.034
452.149
327.887
87.7283
25.0064
3.16273
0.183684
1.06883
1.22692
1.54837
1.69208
1.90625
2.10792
1.98011
1.16901
1.16758
1.14473
1.11804
1.08627
1.05465
1.02412
0.99557
0.967326
0.940114
0.919274
0.923839
0.887756
0.841435
0.826859
0.816127
0.809003
0.804491
0.802321
1.11122
1.11113
1.08588
1.05973
1.02726
0.995783
0.965
0.9361
0.907825
0.880798
0.861488
0.870519
0.821062
0.78115
0.767923
0.757883
0.750853
0.746282
0.744061
1.05595
1.06501
1.02781
1.0023
0.968141
0.936315
0.904954
0.875893
0.847666
0.821034
0.804184
0.811615
0.753079
0.722158
0.709962
0.700178
0.692947
0.688152
0.685806
0.999369
1.00173
0.970355
0.944953
0.908403
0.876124
0.844032
0.814944
0.78702
0.761654
0.750908
0.742248
0.68823
0.664349
0.652209
0.642172
0.634552
0.629471
0.626983
0.946107
0.949198
0.914389
0.888308
0.848776
0.815104
0.781984
0.753153
0.725636
0.70322
0.698788
0.668833
0.625652
0.606685
0.594144
0.583621
0.575586
0.570235
0.567619
0.895114
0.897193
0.858888
0.832495
0.78843
0.752468
0.718172
0.69003
0.665146
0.657605
0.623303
0.596917
0.564212
0.548869
0.535659
0.524549
0.51612
0.510533
0.507806
0.82077
0.840774
0.801121
0.775145
0.726443
0.689659
0.655207
0.633992
0.611199
0.582972
0.553337
0.525763
0.504294
0.490536
0.476501
0.464841
0.456091
0.450325
0.447517
0.816001
0.776494
0.745274
0.73253
0.66374
0.625412
0.589415
0.563374
0.538092
0.513386
0.485567
0.45339
0.444923
0.430935
0.41631
0.404314
0.395389
0.389531
0.38668
1026.29
1014.56
992.735
952.251
913.584
807.799
800.837
695.656
616.52
512.892
400.069
282.577
85.1698
9.84407
1.09428
0.501138
0.64106
1.29239
1.46189
1.52019
1.67267
1.7053
1.46071
925.837
915.93
893.686
836.747
799.311
760.052
694.523
615.972
538.256
439.118
338.856
228.87
45.5451
6.09125
1.07387
0.135154
0.823739
1.0978
1.18344
1.27179
1.38691
1.37244
1.12562
817.613
813.321
797.056
762.298
722.948
668.929
611.259
541.149
467.251
375.618
289.517
186.199
34.8389
0.943102
3.2765
1.05175
0.897837
0.926911
0.883671
0.95057
1.08535
0.946467
0.877131
733.232
725.543
707.217
674.772
634.784
589.978
536.066
471.995
403.657
320.792
245.896
147.992
23.9864
-0.117092
1.9736
0.985574
0.482723
0.683659
0.622379
0.575916
0.608484
0.574196
0.540524
649.015
640.224
622.77
595.637
560.402
517.685
467.333
408.441
345.913
272.198
206.88
112.591
13.7562
-1.46505
-0.385052
0.597522
0.196644
0.279984
0.322829
0.422464
0.318971
0.297106
0.261081
570.674
562.764
546.856
522.536
490.448
451.317
404.873
350.224
293.265
228.693
171.268
80.6324
6.56722
-1.57312
-0.991313
0.252136
-0.133825
-0.00776471
0.0646106
0.0157279
0.0236802
0.044987
0.0470796
499.098
491.889
477.467
455.783
427.162
391.856
349.372
295.912
243.6
188.791
138.972
52.873
0.667034
-2.72012
-1.61867
-0.273908
-0.299341
-0.153727
-0.133336
-0.209342
-0.198286
-0.203977
-0.274595
433.775
427.37
414.541
395.409
370.44
340.256
305.319
256.968
200.39
150.864
112.216
30.5638
-0.414594
-2.77251
-2.00108
-0.585579
-0.595799
-0.534435
-0.468621
-0.43208
-0.414689
-0.466265
-0.369949
374.448
368.848
357.574
340.817
319.542
295.424
271.604
244.991
196.595
146.704
97.3395
7.6367
-0.566372
0.0341365
-1.37635
-0.750468
-0.64124
-0.636178
-0.597191
-0.59399
-0.587938
-0.622597
-0.559738
322.243
317.229
307.095
291.661
272.514
252.826
239.356
232.541
199.286
146.119
58.1894
-11.8996
-0.0313944
1.25553
-0.424814
-0.663824
-0.668912
-0.733695
-0.737792
-0.754211
-0.755471
-0.753329
-0.738377
274.174
268.748
259.511
245.211
225.721
204.997
193.124
177.726
41.7732
-43.0053
-99.8376
9.22518
-0.497452
0.751897
-0.154807
-0.669504
-0.754144
-0.880369
-0.917813
-0.936956
-0.947345
-0.93154
-0.921218
212.857
209.893
205.027
194.387
177.536
154.756
134.292
80.6632
42.8952
36.4694
2.39568
50.3454
-1.32523
-0.545693
-0.590452
-0.97746
-0.990156
-1.10517
-1.13508
-1.1421
-1.15277
-1.11947
-1.10931
148.978
154.348
152.555
145.361
134.95
116.873
76.286
47.5712
30.8708
20.6101
7.65458
5.77394
-2.82575
-1.71806
-1.1793
-1.37521
-1.36524
-1.38257
-1.38955
-1.37322
-1.46663
-1.34531
-1.30711
118.642
123.813
116.092
107.494
96.1686
71.7542
44.6651
-9.40468
-51.6976
-31.9658
-28.8169
-90.2761
-2.44367
-1.2057
-1.48816
-1.75352
-1.72085
-1.66854
-1.63906
-1.58253
-1.55924
-1.53085
-1.51895
91.0861
84.4929
75.1176
68.8955
60.4797
52.2052
42.5479
22.1726
96.6914
-39.4721
-21.6921
-17.3872
-3.8791
-2.63826
-1.93638
-2.30035
-2.07657
-1.9628
-1.88479
-1.89085
-1.81282
-1.73871
-1.7138
49.5921
42.6095
36.386
32.4878
30.646
36.6811
25.0874
29.3669
45.6877
93.0052
-30.3421
-6.08186
-4.47896
-6.10031
-2.28156
-2.79839
-2.35733
-2.20502
-2.17063
-2.03335
-1.99083
-1.94721
-1.91537
26.3959
23.8105
20.6337
18.3914
17.725
20.1898
7.63973
16.5498
32.5414
38.7958
83.0435
-2.46573
9.36683
-2.30516
-2.25755
-2.58346
-2.55554
-2.4439
-2.31404
-2.25016
-2.19379
-2.13276
-2.09548
12.9726
11.9515
10.5106
9.21655
8.01768
5.11678
2.134
7.01283
14.104
20.4325
16.4411
34.2651
-7.33406
-4.05922
-3.48835
-2.89454
-2.64523
-2.57157
-2.51163
-2.43567
-2.37708
-2.31024
-2.29266
-28.833
-29.0885
-29.4642
-29.7981
-29.9742
-29.9638
-29.6423
-28.0042
-25.8982
-23.6941
-18.169
-11.6082
-5.33551
-4.14349
-3.87172
-3.3789
-3.00574
-2.77907
-2.71039
-2.61047
-2.58054
-2.48393
-2.43156
-7.40765
-7.4191
-7.4351
-7.44253
-7.43284
-7.40381
-7.3433
-7.20535
-6.98992
-6.63856
-5.96831
-5.06072
-4.18385
-3.64627
-3.46672
-3.34767
-3.1583
-3.01179
-2.88396
-2.77597
-2.70643
-2.64032
-2.59376
-4.97973
-4.96872
-4.94539
-4.90927
-4.86117
-4.8037
-4.73442
-4.65458
-4.56093
-4.45288
-4.29478
-4.0546
-3.65047
-3.50771
-3.53403
-3.5629
-3.29602
-3.1395
-3.03247
-2.9392
-2.87077
-2.80403
-2.75041
-4.69335
-4.68643
-4.67289
-4.65172
-4.62216
-4.58289
-4.53069
-4.45722
-4.39525
-4.29864
-3.97592
-3.94404
-3.8217
-3.61759
-3.7065
-3.59229
-3.43388
-3.28693
-3.18099
-3.0878
-3.01949
-2.95804
-2.90352
-4.84624
-4.83756
-4.81936
-4.79119
-4.75216
-4.70082
-4.63337
-4.55042
-4.47822
-4.23444
-3.97181
-3.93676
-3.82684
-3.70473
-3.57533
-3.6599
-3.52158
-3.3917
-3.3354
-3.24641
-3.17894
-3.11488
-3.05688
-4.72366
-4.71456
-4.69611
-4.66775
-4.62908
-4.57884
-4.51683
-4.44393
-4.37645
-4.23033
-4.08947
-3.9941
-3.94269
-3.81923
-3.73443
-3.65142
-3.71741
-3.58682
-3.43956
-3.35155
-3.30878
-3.2663
-3.21159
-4.70348
-4.69462
-4.6764
-4.64839
-4.61032
-4.55917
-4.50725
-4.45238
-4.24106
-4.21158
-4.12038
-4.06043
-3.99309
-3.91953
-3.84621
-3.74188
-3.79999
-3.68972
-3.63325
-3.55814
-3.45207
-3.36627
-3.31284
-4.69396
-4.68525
-4.6673
-4.63923
-4.60136
-4.5627
-4.51955
-4.35484
-4.32684
-4.25631
-4.19599
-4.13579
-4.07823
-4.0124
-3.94275
-3.88157
-3.80294
-3.84989
-3.75509
-3.69713
-3.63366
-3.57624
-3.5213
-4.68861
-4.68048
-4.66365
-4.63626
-4.60931
-4.57656
-4.44729
-4.42789
-4.36784
-4.31945
-4.26594
-4.21376
-4.16287
-4.10942
-4.05525
-4.00331
-3.94697
-3.89289
-3.94003
-3.83301
-3.77684
-3.71873
-3.67134
-4.69939
-4.69223
-4.67884
-4.65405
-4.61315
-4.54997
-4.52632
-4.47637
-4.43392
-4.38869
-4.34291
-4.29701
-4.2518
-4.20428
-4.15775
-4.10463
-4.0687
-4.01405
-4.05044
-3.96597
-3.91545
-3.86573
-3.81779
-4.72165
-4.71506
-4.70018
-4.64189
-4.64827
-4.61405
-4.57614
-4.5396
-4.50145
-4.46288
-4.42322
-4.38344
-4.34387
-4.30306
-4.2639
-4.22373
-4.18393
-4.13909
-4.09967
-4.13108
-4.05541
-4.01237
-3.96755
-4.73922
-4.73883
-4.73205
-4.71232
-4.69265
-4.66374
-4.63582
-4.60528
-4.57358
-4.54073
-4.50687
-4.47274
-4.43828
-4.40308
-4.36761
-4.33277
-4.28943
-4.26169
-4.22441
-4.20381
-4.22517
-4.15207
-4.1134
-4.79039
-4.78685
-4.77752
-4.76124
-4.74509
-4.72467
-4.7016
-4.67658
-4.65
-4.62217
-4.5934
-4.56415
-4.53426
-4.50425
-4.47311
-4.44397
-4.41196
-4.38407
-4.35316
-4.32364
-4.34622
-4.29468
-4.25099
-4.84666
-4.84277
-4.83505
-4.82358
-4.80965
-4.79286
-4.7739
-4.75309
-4.73075
-4.70719
-4.68281
-4.65789
-4.63219
-4.60669
-4.57971
-4.55391
-4.52765
-4.50026
-4.47529
-4.44768
-4.42951
-4.45092
-4.39261
-4.91094
-4.90789
-4.9017
-4.89259
-4.88113
-4.86739
-4.85169
-4.83432
-4.81553
-4.7956
-4.77493
-4.75375
-4.73159
-4.70974
-4.68617
-4.66319
-4.64011
-4.61049
-4.59366
-4.57104
-4.54858
-4.54165
-4.55179
-4.98231
-4.97985
-4.97492
-4.96767
-4.95833
-4.94707
-4.93411
-4.91965
-4.90391
-4.8871
-4.86957
-4.8515
-4.83219
-4.81365
-4.79354
-4.77447
-4.75533
-4.73514
-4.71647
-4.69717
-4.67688
-4.66368
-4.68355
-5.05934
-5.05739
-5.05347
-5.04768
-5.04014
-5.031
-5.02039
-5.00849
-4.99544
-4.98141
-4.9666
-4.95112
-4.93377
-4.91807
-4.90099
-4.88556
-4.86873
-4.85167
-4.83021
-4.81949
-4.80355
-4.79039
-4.80495
-5.1409
-5.13936
-5.13627
-5.1317
-5.12571
-5.11838
-5.10984
-5.10021
-5.08964
-5.07823
-5.06609
-5.05321
-5.03732
-5.02474
-5.00949
-4.99776
-4.98369
-4.97036
-4.95532
-4.94346
-4.92911
-4.91595
-4.91782
-5.22603
-5.22483
-5.22245
-5.21893
-5.21428
-5.20853
-5.20178
-5.19417
-5.18584
-5.17693
-5.16767
-5.1584
-5.14649
-5.14646
-5.12167
-5.11128
-5.09906
-5.08771
-5.07593
-5.06558
-5.05378
-5.04198
-5.03731
-5.31382
-5.31292
-5.3112
-5.30864
-5.30518
-5.30078
-5.29557
-5.28967
-5.28319
-5.27625
-5.26904
-5.26196
-5.25328
-5.25675
-5.23235
-5.22326
-5.21348
-5.20412
-5.19446
-5.18636
-5.17707
-5.16751
-5.1612
-5.40386
-5.40318
-5.40189
-5.4
-5.39746
-5.39421
-5.39033
-5.38594
-5.3811
-5.37577
-5.36994
-5.36355
-5.3556
-5.348
-5.33962
-5.33357
-5.32732
-5.32052
-5.31334
-5.30703
-5.30003
-5.29242
-5.28713
-5.49944
-5.49888
-5.49769
-5.49597
-5.49383
-5.49137
-5.48854
-5.48538
-5.48195
-5.47823
-5.47425
-5.47012
-5.46575
-5.4601
-5.45054
-5.44439
-5.44067
-5.43648
-5.43185
-5.42724
-5.42286
-5.4161
-5.41338
-5.60329
-5.60287
-5.60185
-5.60039
-5.59861
-5.59665
-5.59443
-5.59194
-5.58921
-5.58634
-5.58349
-5.58105
-5.57938
-5.57635
-5.56548
-5.55733
-5.55379
-5.5511
-5.54909
-5.54743
-5.54405
-5.54174
-5.53985
-5.66512
-5.66508
-5.66498
-5.66482
-5.66465
-5.66449
-5.66432
-5.66412
-5.6639
-5.66374
-5.6637
-5.66409
-5.66518
-5.67053
-5.68986
-5.69077
-5.68742
-5.68323
-5.67946
-5.67196
-5.66843
-5.66749
-5.66666
0.7586
0.546752
0.620668
0.691115
0.945305
0.85412
0.863039
0.825626
0.845285
0.736787
0.700751
0.658392
0.496354
0.47013
0.459378
0.437602
0.20186
0.241857
0.238318
0.227483
0.0572659
0.0551089
0.0409708
0.0291583
-0.189211
-0.186236
-0.184857
-0.182591
-0.367462
-0.372308
-0.371961
-0.372265
-0.559514
-0.558747
-0.557478
-0.557732
-0.739752
-0.739732
-0.739472
-0.739906
-0.921652
-0.921336
-0.920911
-0.9209
-1.10737
-1.10571
-1.10413
-1.10269
-1.297
-1.29289
-1.28914
-1.28576
-1.49435
-1.48364
-1.47752
-1.47059
-1.68865
-1.67812
-1.66915
-1.65448
-1.89626
-1.8895
-1.86728
-1.8388
-2.07685
-2.06929
-2.04134
-2.0113
-2.23557
-2.21375
-2.19411
-2.17431
-2.3955
-2.37527
-2.35607
-2.33759
-2.5582
-2.53673
-2.51663
-2.49795
-2.71502
-2.6937
-2.67375
-2.65526
-2.86884
-2.84796
-2.82845
-2.81034
-3.02183
-3.00095
-2.98176
-2.96406
-3.17764
-3.15755
-3.13907
-3.12165
-3.28432
-3.26991
-3.26248
-3.25578
-3.47775
-3.44776
-3.41445
-3.38266
-3.63958
-3.61961
-3.60051
-3.58199
-3.78582
-3.76596
-3.74721
-3.72995
-3.93671
-3.91748
-3.89894
-3.88152
-4.08392
-4.06582
-4.04847
-4.03207
-4.22609
-4.2097
-4.19377
-4.17862
-4.36672
-4.35169
-4.33674
-4.32261
-4.50895
-4.4926
-4.47757
-4.46409
-4.64206
-4.62544
-4.61274
-4.60135
-4.77751
-4.75856
-4.74679
-4.73708
-4.91888
-4.89828
-4.88326
-4.87344
-5.04593
-5.03535
-5.01862
-5.00866
-5.16742
-5.16736
-5.15218
-5.14233
-5.29109
-5.29364
-5.28251
-5.27402
-5.41592
-5.41867
-5.41176
-5.40532
-5.54044
-5.54168
-5.53796
-5.53343
-5.66677
-5.66709
-5.66776
-5.66744
0.799147
0.66349
0.650994
0.611035
0.565087
0.525746
0.490304
0.461264
0.433436
0.406907
0.379963
0.346473
0.350187
0.33524
0.320415
0.308349
0.299417
0.293564
0.290716
0.777537
0.565095
0.536765
0.481033
0.428683
0.384193
0.348674
0.317513
0.289305
0.262902
0.222767
0.22715
0.216463
0.201002
0.186857
0.175383
0.166864
0.161263
0.15853
0.630735
0.447537
0.388767
0.320814
0.286683
0.241932
0.208227
0.175808
0.14772
0.111023
0.1029
0.0956928
0.0800151
0.0650784
0.051889
0.0411901
0.0332042
0.0279265
0.0253443
0.387073
0.364093
0.233032
0.189441
0.115193
0.071295
0.0492838
0.0146016
-0.0154018
-0.0207491
-0.0254733
-0.0414816
-0.0574331
-0.0716822
-0.0839641
-0.0939053
-0.101352
-0.106293
-0.108716
0.199343
0.194809
0.0767851
0.0327468
-0.00634313
-0.0462312
-0.0943542
-0.115709
-0.129597
-0.146234
-0.164106
-0.180655
-0.1959
-0.209291
-0.220691
-0.229903
-0.236818
-0.241419
-0.243681
0.00670236
-0.0351059
-0.0337618
-0.127062
-0.16047
-0.19123
-0.222282
-0.246316
-0.269449
-0.28956
-0.306191
-0.321398
-0.335379
-0.347745
-0.358261
-0.366762
-0.373155
-0.377418
-0.379515
-0.188534
-0.217819
-0.215051
-0.275985
-0.317684
-0.344121
-0.373221
-0.395959
-0.41619
-0.433906
-0.448725
-0.462728
-0.475569
-0.486936
-0.4966
-0.504412
-0.510294
-0.514221
-0.516156
-0.377331
-0.398496
-0.4207
-0.40618
-0.473848
-0.494663
-0.520351
-0.542534
-0.561035
-0.577402
-0.591526
-0.604514
-0.616353
-0.626795
-0.635644
-0.642788
-0.648168
-0.651764
-0.653535
-0.561064
-0.57451
-0.594681
-0.579436
-0.630545
-0.650205
-0.669255
-0.689099
-0.706567
-0.721776
-0.734872
-0.746843
-0.757745
-0.767299
-0.77535
-0.781836
-0.786719
-0.789984
-0.791593
-0.742183
-0.751227
-0.766751
-0.776174
-0.766493
-0.806396
-0.819602
-0.836907
-0.853229
-0.867119
-0.87883
-0.889746
-0.899765
-0.908435
-0.915682
-0.921506
-0.925892
-0.928826
-0.930271
-0.92153
-0.926102
-0.934303
-0.944284
-0.940052
-0.959136
-0.973903
-0.98565
-1.00095
-1.0134
-1.02332
-1.0332
-1.04242
-1.05018
-1.05659
-1.06175
-1.06564
-1.06824
-1.06952
-1.10035
-1.10008
-1.10281
-1.10806
-1.11494
-1.11806
-1.12198
-1.13698
-1.15117
-1.16081
-1.16809
-1.1771
-1.1857
-1.19246
-1.19801
-1.20251
-1.20591
-1.20817
-1.20928
-1.27918
-1.27287
-1.27068
-1.27165
-1.27482
-1.28149
-1.2869
-1.28002
-1.3022
-1.30969
-1.31422
-1.32232
-1.32991
-1.33525
-1.33991
-1.34375
-1.34665
-1.34857
-1.34951
-1.45836
-1.44428
-1.43725
-1.43495
-1.43489
-1.43727
-1.44215
-1.44584
-1.45365
-1.45791
-1.45572
-1.46513
-1.47454
-1.47868
-1.48262
-1.48583
-1.4882
-1.48972
-1.49043
-1.63194
-1.61245
-1.60109
-1.59701
-1.5946
-1.59425
-1.59584
-1.59778
-1.60297
-1.60739
-1.60998
-1.61451
-1.61885
-1.62206
-1.62504
-1.6275
-1.62932
-1.63043
-1.63091
-1.80891
-1.78254
-1.76599
-1.75809
-1.75337
-1.75061
-1.75009
-1.75053
-1.75286
-1.75528
-1.75732
-1.7606
-1.76403
-1.76677
-1.76913
-1.77107
-1.77251
-1.77342
-1.77382
-1.97809
-1.95223
-1.93266
-1.9169
-1.91048
-1.90592
-1.90369
-1.90262
-1.903
-1.90398
-1.90523
-1.90722
-1.90946
-1.91147
-1.91324
-1.91473
-1.91587
-1.91662
-1.91699
-2.14461
-2.11652
-2.09456
-2.07843
-2.06774
-2.05924
-2.05664
-2.05377
-2.05275
-2.05261
-2.05299
-2.05395
-2.05522
-2.05651
-2.05772
-2.05877
-2.0596
-2.06017
-2.06045
-2.30853
-2.27794
-2.25383
-2.23664
-2.22438
-2.21442
-2.2076
-2.20434
-2.20207
-2.20098
-2.20052
-2.20061
-2.20111
-2.20177
-2.20247
-2.20313
-2.20368
-2.20407
-2.20426
-2.46897
-2.43706
-2.41192
-2.39267
-2.37866
-2.36779
-2.35989
-2.35439
-2.35081
-2.34924
-2.34787
-2.34715
-2.34704
-2.34717
-2.34742
-2.34774
-2.34804
-2.34827
-2.34839
-2.62656
-2.59416
-2.56803
-2.54743
-2.53199
-2.51994
-2.51101
-2.50443
-2.50001
-2.49686
-2.495
-2.49369
-2.49305
-2.49266
-2.49253
-2.49255
-2.49263
-2.49272
-2.49278
-2.78212
-2.74933
-2.72237
-2.70107
-2.68453
-2.67153
-2.66154
-2.65413
-2.64866
-2.64466
-2.64182
-2.6401
-2.63914
-2.63823
-2.63776
-2.63756
-2.63744
-2.6374
-2.63741
-2.93655
-2.90298
-2.87547
-2.85364
-2.83622
-2.82246
-2.81167
-2.80352
-2.79702
-2.79236
-2.78902
-2.78657
-2.78487
-2.78374
-2.78296
-2.78274
-2.78243
-2.7823
-2.78234
-3.09279
-3.05621
-3.02812
-3.00545
-2.98731
-2.97287
-2.96131
-2.95247
-2.94539
-2.94005
-2.93613
-2.93304
-2.93096
-2.92946
-2.92842
-2.92783
-2.92739
-2.92721
-2.92718
-3.23567
-3.20461
-3.18074
-3.15772
-3.13764
-3.12273
-3.11025
-3.10109
-3.09348
-3.08743
-3.08304
-3.07956
-3.07704
-3.07521
-3.07387
-3.07295
-3.0724
-3.07211
-3.07201
-3.34289
-3.30924
-3.30355
-3.29542
-3.28074
-3.27073
-3.25819
-3.24865
-3.24049
-3.23385
-3.2295
-3.22572
-3.22281
-3.22064
-3.21903
-3.21791
-3.21723
-3.21683
-3.21664
-3.5507
-3.50735
-3.44704
-3.40485
-3.38745
-3.39699
-3.39373
-3.39022
-3.38451
-3.37834
-3.37433
-3.37032
-3.36732
-3.36501
-3.36325
-3.3621
-3.36135
-3.36088
-3.36061
-3.70269
-3.6708
-3.63903
-3.60739
-3.57067
-3.52132
-3.49956
-3.50493
-3.51145
-3.51254
-3.51339
-3.51109
-3.50947
-3.50778
-3.50631
-3.5055
-3.50492
-3.50448
-3.50422
-3.8539
-3.82079
-3.79108
-3.76643
-3.74507
-3.71937
-3.69114
-3.65004
-3.62217
-3.61851
-3.6317
-3.63701
-3.64246
-3.64446
-3.64498
-3.64579
-3.64607
-3.64599
-3.64587
-4.00584
-3.97345
-3.94357
-3.91807
-3.89671
-3.87752
-3.86116
-3.84134
-3.81772
-3.78592
-3.75205
-3.74114
-3.75145
-3.76032
-3.76654
-3.77268
-3.7759
-3.77723
-3.77774
-4.15425
-4.12381
-4.09574
-4.07091
-4.04907
-4.03012
-4.01421
-3.99963
-3.98643
-3.97123
-3.94954
-3.92266
-3.88986
-3.87096
-3.86803
-3.87651
-3.88262
-3.88605
-3.88778
-4.30001
-4.27171
-4.24551
-4.22204
-4.20137
-4.18323
-4.16725
-4.15336
-4.14124
-4.13066
-4.11969
-4.10657
-4.08826
-4.06632
-4.04172
-4.01726
-4.00291
-3.99663
-3.99476
-4.44317
-4.41732
-4.39323
-4.37143
-4.35212
-4.3351
-4.32019
-4.30719
-4.29569
-4.28584
-4.27681
-4.26827
-4.25954
-4.2495
-4.23701
-4.2215
-4.20683
-4.19565
-4.18962
-4.58342
-4.56064
-4.53901
-4.51915
-4.50145
-4.48578
-4.47197
-4.45993
-4.44949
-4.4405
-4.43232
-4.42513
-4.41858
-4.41247
-4.40665
-4.40081
-4.39476
-4.3898
-4.387
-4.72186
-4.70217
-4.6831
-4.66535
-4.64944
-4.63528
-4.62276
-4.61178
-4.60222
-4.59401
-4.58692
-4.58078
-4.57512
-4.5702
-4.56604
-4.56276
-4.55991
-4.55777
-4.55665
-4.85948
-4.84234
-4.82576
-4.81021
-4.7962
-4.78369
-4.77259
-4.7628
-4.75422
-4.74677
-4.74037
-4.73493
-4.73023
-4.72618
-4.72271
-4.71991
-4.7179
-4.71638
-4.71547
-4.9959
-4.98122
-4.96716
-4.95389
-4.94188
-4.93114
-4.92157
-4.91307
-4.90556
-4.89896
-4.89321
-4.88826
-4.88403
-4.88048
-4.87756
-4.8753
-4.87369
-4.87256
-4.87187
-5.13095
-5.11886
-5.10741
-5.09654
-5.08666
-5.07779
-5.06984
-5.06271
-5.05633
-5.05064
-5.04557
-5.04109
-5.03718
-5.03385
-5.03113
-5.02906
-5.02764
-5.02685
-5.02651
-5.26479
-5.25557
-5.24688
-5.23851
-5.23085
-5.2239
-5.2176
-5.21186
-5.20662
-5.20181
-5.1974
-5.19335
-5.18968
-5.18645
-5.18375
-5.18174
-5.18037
-5.17965
-5.17938
-5.39852
-5.39202
-5.38585
-5.37979
-5.37413
-5.3689
-5.36407
-5.35955
-5.3553
-5.35128
-5.34747
-5.34389
-5.34058
-5.33762
-5.33512
-5.33322
-5.33193
-5.33121
-5.33092
-5.52864
-5.52421
-5.52013
-5.51623
-5.51267
-5.50946
-5.50654
-5.50387
-5.5014
-5.49913
-5.49704
-5.49518
-5.49358
-5.49229
-5.49128
-5.49055
-5.49015
-5.49004
-5.49007
-5.66794
-5.66909
-5.67008
-5.67092
-5.67167
-5.67236
-5.67297
-5.67353
-5.67402
-5.67446
-5.67487
-5.67525
-5.6756
-5.67593
-5.67622
-5.67642
-5.67662
-5.6768
-5.67685
)
;

boundaryField
{
    leftWall
    {
        type            calculated;
        value           nonuniform List<scalar> 
50
(
1487.32
1429.54
1372.87
1317.3
1262.82
1209.36
1156.95
1105.56
1026.29
925.837
817.613
733.232
649.015
570.674
499.098
433.775
374.448
322.243
274.174
212.857
148.978
118.642
91.0861
49.5921
26.3959
12.9726
-28.833
-7.40765
-4.97973
-4.69335
-4.84624
-4.72366
-4.70348
-4.69396
-4.68861
-4.69939
-4.72165
-4.73922
-4.79039
-4.84666
-4.91094
-4.98231
-5.05934
-5.1409
-5.22603
-5.31382
-5.40386
-5.49944
-5.60329
-5.66512
)
;
    }
    rightWall
    {
        type            calculated;
        value           nonuniform List<scalar> 
50
(
0.802321
0.744061
0.685806
0.626983
0.567619
0.507806
0.447517
0.38668
0.290716
0.15853
0.0253443
-0.108716
-0.243681
-0.379515
-0.516156
-0.653535
-0.791593
-0.930271
-1.06952
-1.20928
-1.34951
-1.49043
-1.63091
-1.77382
-1.91699
-2.06045
-2.20426
-2.34839
-2.49278
-2.63741
-2.78234
-2.92718
-3.07201
-3.21664
-3.36061
-3.50422
-3.64587
-3.77774
-3.88778
-3.99476
-4.18962
-4.387
-4.55665
-4.71547
-4.87187
-5.02651
-5.17938
-5.33092
-5.49007
-5.67685
)
;
    }
    lowerWall
    {
        type            calculated;
        value           nonuniform List<scalar> 
62
(
1516.75
1504.4
1479.32
1440.75
1388.73
1321.85
1245.03
1147.78
1042.42
928.364
827.06
775.635
548.767
286.837
79.3757
4.92028
1.26813
2.70526
3.77896
4.08412
2.39191
6.03805
8.88569
8.85463
7.40072
5.69519
4.40275
3.48266
2.80506
2.26055
1.98011
0.821197
0.60935
0.683266
0.753712
1.16901
1.11122
1.05595
0.999369
0.946107
0.895114
0.82077
0.816001
1.19844
1.19701
1.17416
1.14747
1.1157
1.08407
1.05355
1.025
0.996755
0.969543
0.948704
0.953268
0.917186
0.870864
0.856288
0.845557
0.838433
0.83392
0.831751
)
;
    }
    atmosphere
    {
        type            calculated;
        value           nonuniform List<scalar> 
46
(
-5.73597
-5.73595
-5.73578
-5.73554
-5.73523
-5.73487
-5.73446
-5.73402
-5.73356
-5.7331
-5.73266
-5.73225
-5.73191
-5.73172
-5.73194
-5.73154
-5.73096
-5.73036
-5.72983
-5.72939
-5.72917
-5.72907
-5.72904
-5.72904
-5.72904
-5.72904
-5.72904
-5.72904
-5.72904
-5.72904
-5.72904
-5.72904
-5.72904
-5.72904
-5.72904
-5.72904
-5.72904
-5.72904
-5.72904
-5.72904
-5.72904
-5.72904
-5.72904
-5.72904
-5.72904
-5.72904
)
;
    }
    defaultFaces
    {
        type            empty;
    }
}


// ************************************************************************* //
