/*--------------------------------*- C++ -*----------------------------------*\
| =========                 |                                                 |
| \\      /  F ield         | foam-extend: Open Source CFD                    |
|  \\    /   O peration     | Version:     4.1                                |
|   \\  /    A nd           | Web:         http://www.foam-extend.org         |
|    \\/     M anipulation  |                                                 |
\*---------------------------------------------------------------------------*/
FoamFile
{
    version     2.0;
    format      ascii;
    class       volScalarField;
    location    "0.05";
    object      pd;
}
// * * * * * * * * * * * * * * * * * * * * * * * * * * * * * * * * * * * * * //

dimensions      [1 -1 -2 0 0 0 0];

internalField   nonuniform List<scalar> 
2268
(
1516.75
1504.4
1479.32
1440.75
1388.73
1321.85
1245.03
1147.78
1042.42
928.364
827.06
775.635
548.767
286.837
79.3757
4.92028
1.26813
2.70526
3.77896
4.08412
2.39191
6.03805
8.88569
1517.83
1505.5
1480.46
1441.84
1389.86
1322.61
1246.26
1148.33
1039.69
918.746
861.815
745.8
545.762
286.167
100.534
15.4182
2.84582
4.0367
3.6009
1.63604
1.32938
4.39535
7.4905
1520.02
1507.72
1482.77
1444.03
1392.16
1324.12
1248.76
1149.82
1040.78
928.673
856.646
724.958
533.015
271.979
65.9364
12.1067
4.07055
3.18398
3.06325
3.00173
1.87827
3.82713
5.84234
1523.3
1511.05
1486.25
1447.31
1395.65
1326.38
1252.63
1155.41
1044.51
975.148
845.061
710.312
510.22
232.725
59.1056
10.4887
3.79347
2.45252
2.44772
2.28836
2.3451
3.49835
4.60875
1527.68
1515.48
1490.93
1451.67
1400.43
1328.94
1257.98
1168.72
1047.41
986.284
846.314
710.935
478.787
195.051
45.3007
7.9679
2.5725
1.7994
2.24787
2.372
2.5293
3.2487
3.74752
1533.08
1520.95
1496.76
1457.06
1406.37
1331.91
1268.49
1158.21
1091.79
989.147
856.215
726.853
454.696
165.589
34.1479
5.07151
1.84188
1.40144
2.00841
2.28731
2.52555
3.02148
3.12878
1539.53
1527.48
1503.81
1463.53
1413.69
1338.33
1285.93
1167.5
1111.7
1001.57
871.19
744.386
428.513
141.53
24.8655
2.67434
1.63023
1.49765
1.97443
2.19907
2.44905
2.78077
2.64315
1547
1535.05
1512
1470.98
1423.04
1352.43
1278.7
1203.91
1125.91
1019.47
893.59
765.396
410.117
123.883
17.9072
1.4528
1.51027
1.66836
1.98981
2.13352
2.34769
2.54939
2.42156
1.19844
1.19701
1.17416
1.14747
1.1157
1.08407
1.05355
1.025
0.996755
0.969543
0.948704
0.953268
0.917186
0.870864
0.856288
0.845557
0.838433
0.83392
0.831751
1.19951
1.19942
1.17417
1.14802
1.11555
1.08407
1.05329
1.02439
0.996113
0.969086
0.949776
0.958807
0.90935
0.869438
0.856211
0.846171
0.839142
0.83457
0.832349
1.2031
1.21215
1.17496
1.14944
1.11529
1.08346
1.0521
1.02304
0.994813
0.968181
0.95133
0.958761
0.900226
0.869304
0.857109
0.847324
0.840094
0.835299
0.832953
1.20537
1.20774
1.17636
1.15096
1.11441
1.08213
1.05004
1.02095
0.993026
0.96766
0.956913
0.948254
0.894235
0.870355
0.858215
0.848177
0.840558
0.835477
0.832989
1.21097
1.21406
1.17925
1.15317
1.11364
1.07997
1.04685
1.01802
0.9905
0.968084
0.963653
0.933698
0.890516
0.87155
0.859008
0.848485
0.840451
0.8351
0.832483
1.21884
1.22092
1.18261
1.15622
1.11215
1.07619
1.04189
1.01375
0.988869
0.981328
0.947026
0.92064
0.887935
0.872592
0.859382
0.848272
0.839843
0.834256
0.831529
1.20335
1.22336
1.1837
1.15773
1.10902
1.07224
1.03779
1.01657
0.993781
0.965554
0.935919
0.908344
0.886876
0.873118
0.859082
0.847423
0.838673
0.832907
0.830098
1.25744
1.21793
1.18671
1.17397
1.10518
1.06685
1.03086
1.00481
0.979532
0.954826
0.927007
0.894831
0.886363
0.872376
0.85775
0.845754
0.83683
0.830971
0.828121
1559.76
1548.02
1526.2
1485.72
1447.05
1341.27
1334.3
1229.07
1149.99
1046.36
933.536
808.701
446.171
104.313
11.8717
1.28973
1.17453
1.82586
1.99834
2.05463
2.20623
2.23878
1.99418
1584.5
1574.59
1552.35
1495.41
1457.97
1418.71
1353.18
1274.56
1196.92
1097.78
997.518
873.68
439.804
83.792
5.13251
0.793816
1.4824
1.76367
1.84846
1.93118
2.04557
2.03111
1.78428
1601.47
1597.18
1580.91
1546.15
1506.8
1452.79
1395.1
1324.91
1251.11
1159.47
1073.37
947.895
453.62
70.8423
4.61126
1.8356
1.68169
1.73335
1.6744
1.7348
1.8692
1.73032
1.66099
1642.28
1634.59
1616.27
1583.82
1543.84
1499.03
1445.1
1380.93
1312.71
1229.84
1154.95
1024.34
453.336
58.0057
2.88265
1.89462
1.39177
1.62709
1.5389
1.48522
1.51754
1.48325
1.44957
1683.26
1674.47
1657.01
1629.88
1594.65
1551.93
1501.56
1442.55
1380.16
1306.44
1241.12
1101.62
447.174
46.2597
0.649193
1.63177
1.23089
1.35658
1.36575
1.45703
1.35322
1.33135
1.29533
1730.11
1722.2
1706.3
1681.98
1649.89
1610.76
1564.29
1509.51
1452.7
1388.13
1330.71
1180.32
437.84
35.2959
0.168127
1.41158
1.02561
1.20216
1.23368
1.17548
1.18312
1.20443
1.20652
1783.73
1776.52
1762.1
1740.42
1711.8
1676.49
1633.98
1580.37
1528.23
1473.43
1423.61
1261.18
424.828
23.4738
-0.334041
1.01073
0.985293
1.1914
1.16123
1.07541
1.08635
1.08066
1.01004
1843.6
1837.2
1824.37
1805.24
1780.27
1750.08
1715.11
1666.6
1610.22
1560.69
1522.04
1345.2
409.885
11.3154
-0.59125
0.824249
0.853618
0.943065
0.950089
0.977749
0.995139
0.943564
1.03988
1909.47
1903.87
1892.6
1875.84
1854.57
1830.45
1806.59
1779.79
1731.62
1681.73
1632.36
1425.73
390.621
3.20616
0.158673
0.784555
1.01873
0.97169
0.943911
0.941033
0.947085
0.912426
0.975287
1982.46
1977.45
1967.31
1951.88
1932.73
1913.04
1899.53
1892.51
1859.5
1806.34
1718.41
1506.2
364.245
2.91575
1.2354
0.996394
1.18512
1.0007
0.926655
0.906007
0.904746
0.906889
0.921843
2059.59
2054.16
2044.92
2030.62
2011.13
1990.41
1978.49
1962.87
1827.19
1742.41
1685.57
1630.5
355.092
2.53731
1.6306
1.11591
1.25309
0.980793
0.87078
0.848456
0.838068
0.853875
0.864197
2123.46
2120.5
2115.63
2104.99
2088.14
2065.36
2044.84
1990.98
1953.5
1947.08
1913
1785.73
385.118
1.36491
1.32015
0.933147
1.16038
0.885405
0.77823
0.768505
0.757838
0.791148
0.801302
2184.78
2190.15
2188.36
2181.16
2170.75
2152.67
2112.06
2083.08
2066.67
2056.41
2043.46
1860.76
422.049
0.317739
0.856498
0.660591
0.926488
0.738484
0.648907
0.662578
0.569171
0.690499
0.728697
2279.64
2284.81
2277.09
2268.49
2257.16
2232.75
2205.66
2151.59
2109.3
2129.03
2132.18
1876.52
398.415
0.9553
0.672839
0.407472
0.714735
0.585665
0.524828
0.578467
0.60176
0.630161
0.642049
2377.28
2370.68
2361.31
2355.09
2346.67
2338.4
2328.74
2308.36
2382.88
2246.72
2264.5
2066.15
411.416
-0.352066
0.349814
-0.0141551
0.405646
0.434303
0.405773
0.39534
0.473368
0.547492
0.57239
2460.98
2453.99
2447.77
2443.87
2442.03
2447.79
2435.64
2439.31
2457.07
2504.39
2381.04
2212.12
611.012
42.447
0.129826
-0.387004
0.0540525
0.331071
0.249298
0.378031
0.420556
0.464185
0.496019
2499.37
2495.97
2491.31
2486.98
2483.78
2483.48
2468.14
2474.33
2491.12
2512.95
2581.36
2252.61
786.578
110.954
0.279028
-0.0468756
-0.0189566
0.199079
0.233924
0.286418
0.342793
0.403823
0.441107
2152.64
2148.47
2141.27
2131.91
2120.98
2107.7
2095.13
2090
2090.3
2095.01
2072.76
1750.13
702.645
145.709
1.83803
-0.232771
0.0165487
0.17404
0.161207
0.226104
0.284695
0.351537
0.369115
804.524
800.602
793.489
783.843
772.768
761.314
751.121
741.151
732.803
722.164
692.827
484.642
146.312
14.7181
-1.08475
-0.59193
-0.218767
0.0605194
0.0836615
0.176499
0.206424
0.303037
0.355408
25.7674
25.4323
24.8196
23.9965
23.0783
22.1785
21.4624
20.7095
20.4653
22.0319
28.9477
23.0546
-1.27169
-0.734108
-0.554552
-0.435502
-0.246133
-0.0652224
0.0313454
0.136192
0.205737
0.271848
0.318409
-1.94238
-1.93136
-1.90803
-1.87191
-1.82381
-1.76634
-1.69706
-1.61722
-1.52357
-1.41552
-1.25742
-1.01724
-0.613115
-0.470357
-0.496671
-0.525541
-0.208512
-0.0889098
0.00488911
0.0981589
0.166587
0.233334
0.286951
-1.5308
-1.52388
-1.51034
-1.48917
-1.45961
-1.42033
-1.36814
-1.29466
-1.2327
-1.13609
-0.813363
-0.781493
-0.659145
-0.455033
-0.499918
-0.369131
-0.249131
-0.12316
-0.0184364
0.0747486
0.14307
0.204517
0.259033
-1.5585
-1.54981
-1.53161
-1.50344
-1.46442
-1.41307
-1.34562
-1.26267
-1.19047
-0.946694
-0.684067
-0.649016
-0.254519
-0.235382
-0.229151
-0.358547
-0.232819
-0.10395
-0.0476536
0.0413481
0.108812
0.172865
0.230863
-1.01152
-1.00261
-0.98414
-0.955519
-0.916302
-0.865052
-0.800964
-0.723401
-0.650955
-0.509862
-0.437951
-0.404797
-0.430203
-0.378773
-0.320292
-0.238481
-0.304464
-0.173875
-0.0266092
0.0613992
0.104162
0.14664
0.20135
-1.13038
-1.12157
-1.10325
-1.07506
-1.0367
-0.985115
-0.932532
-0.875998
-0.659932
-0.625165
-0.540536
-0.500802
-0.451142
-0.381398
-0.308076
-0.203745
-0.261855
-0.151555
-0.0951026
-0.0200047
0.0860677
0.171862
0.225297
-1.03063
-1.02192
-1.00397
-0.975904
-0.938027
-0.89937
-0.856223
-0.69151
-0.663514
-0.592977
-0.53266
-0.472456
-0.414898
-0.349072
-0.279416
-0.218203
-0.139577
-0.186556
-0.0917588
-0.0337993
0.0296738
0.0870913
0.142031
-0.900085
-0.891951
-0.875124
-0.847737
-0.820787
-0.788037
-0.658767
-0.639365
-0.579317
-0.530928
-0.477411
-0.425235
-0.374348
-0.320891
-0.266674
-0.21476
-0.158444
-0.104364
-0.151505
-0.0444835
0.0116848
0.0697932
0.117186
-0.785671
-0.778513
-0.765118
-0.740326
-0.699426
-0.636255
-0.612603
-0.562652
-0.520204
-0.474973
-0.429194
-0.38329
-0.338062
-0.290537
-0.244025
-0.190909
-0.154983
-0.100326
-0.136724
-0.0522475
-0.00172656
0.0479878
0.0959321
-0.682721
-0.676136
-0.66125
-0.602957
-0.609336
-0.575121
-0.537213
-0.500669
-0.462523
-0.423946
-0.384298
-0.344517
-0.304948
-0.264141
-0.224986
-0.184819
-0.145019
-0.100176
-0.060755
-0.0921704
-0.0164929
0.0265477
0.0713608
-0.575107
-0.574722
-0.567945
-0.548212
-0.528538
-0.499627
-0.471712
-0.441167
-0.409474
-0.376617
-0.342764
-0.308627
-0.274172
-0.238971
-0.203503
-0.168659
-0.125318
-0.0975798
-0.0603041
-0.0396968
-0.061063
0.0120395
0.0507071
-0.501091
-0.497544
-0.488219
-0.471939
-0.45579
-0.435367
-0.412296
-0.387279
-0.360694
-0.332866
-0.304093
-0.274846
-0.244955
-0.214943
-0.183811
-0.154666
-0.122653
-0.0947645
-0.0638592
-0.0343414
-0.0569161
-0.00538006
0.0383149
-0.43216
-0.428277
-0.420551
-0.409087
-0.395157
-0.378358
-0.359407
-0.338589
-0.316254
-0.292695
-0.268313
-0.243398
-0.217692
-0.192188
-0.165209
-0.13941
-0.113154
-0.0857595
-0.0607881
-0.0331846
-0.0150122
-0.0364177
0.0218829
-0.371253
-0.368193
-0.362012
-0.352901
-0.341435
-0.327697
-0.311999
-0.294624
-0.275838
-0.255907
-0.235241
-0.214058
-0.191895
-0.170044
-0.14648
-0.123495
-0.100418
-0.0708007
-0.0539697
-0.0313502
-0.00888593
-0.00196188
-0.0121013
-0.317426
-0.314967
-0.310034
-0.302781
-0.293445
-0.282187
-0.269223
-0.254765
-0.239024
-0.222216
-0.204681
-0.186615
-0.167305
-0.148766
-0.128651
-0.109583
-0.0904476
-0.0702517
-0.0515859
-0.032279
-0.0119943
0.00120374
-0.0186598
-0.269264
-0.267309
-0.263385
-0.257595
-0.250063
-0.240917
-0.23031
-0.218406
-0.205364
-0.19133
-0.176518
-0.161037
-0.14369
-0.127988
-0.110913
-0.0954794
-0.078649
-0.0615887
-0.0401288
-0.0294134
-0.013466
-0.000307288
-0.0148677
-0.225627
-0.224086
-0.220994
-0.216422
-0.21043
-0.203104
-0.194561
-0.184938
-0.174364
-0.162953
-0.150813
-0.137932
-0.122048
-0.10946
-0.0942172
-0.0824863
-0.0684152
-0.055087
-0.040047
-0.0281831
-0.0138299
-0.000675586
-0.00254665
-0.185555
-0.18436
-0.181983
-0.178461
-0.173806
-0.168055
-0.161311
-0.153702
-0.145368
-0.136462
-0.127203
-0.117925
-0.106022
-0.105993
-0.0812047
-0.0708142
-0.0585924
-0.047238
-0.0354618
-0.0251109
-0.0133084
-0.00150996
0.00316135
-0.148156
-0.147254
-0.145532
-0.142971
-0.139515
-0.135119
-0.129905
-0.124004
-0.117528
-0.11059
-0.103378
-0.0962919
-0.0876121
-0.0910857
-0.066688
-0.0575991
-0.0478163
-0.0384549
-0.0287907
-0.0206954
-0.01141
-0.00184766
0.00446135
-0.113003
-0.11232
-0.111033
-0.109138
-0.106597
-0.103348
-0.0994672
-0.0950785
-0.0902378
-0.0849131
-0.0790772
-0.0726877
-0.0647389
-0.0571378
-0.048764
-0.0427083
-0.0364589
-0.0296611
-0.0224838
-0.0161694
-0.00917486
-0.0015588
0.00372476
-0.0833912
-0.0828312
-0.0816329
-0.0799166
-0.0777786
-0.075313
-0.0724814
-0.0693258
-0.0658951
-0.0621779
-0.0581983
-0.0540623
-0.0496915
-0.0440479
-0.0344827
-0.0283364
-0.0246182
-0.0204241
-0.0157946
-0.0111828
-0.00680933
-4.36697e-05
0.00267644
-0.0620375
-0.0616194
-0.0606059
-0.0591404
-0.0573628
-0.0553978
-0.0531851
-0.0506924
-0.0479582
-0.0450924
-0.0422385
-0.0397996
-0.0381322
-0.0351013
-0.0242269
-0.0160866
-0.0125409
-0.00985274
-0.00784197
-0.00617827
-0.00280251
-0.000489024
0.00140295
0.00132305
0.0013665
0.00146121
0.00161896
0.00179217
0.00195364
0.00211975
0.00232259
0.00254381
0.00270492
0.00274136
0.0023508
0.00126055
-0.0040878
-0.0234174
-0.0243261
-0.0209823
-0.0167827
-0.013016
-0.00551499
-0.00198613
-0.00104311
-0.000221991
1.29207
1.08022
1.15414
1.22458
1.60397
1.51278
1.5217
1.48429
1.62914
1.52064
1.48461
1.44225
1.40541
1.37918
1.36843
1.34665
1.23611
1.2761
1.27256
1.26173
1.21671
1.21455
1.20041
1.1886
1.09542
1.0984
1.09978
1.10204
1.04237
1.03752
1.03787
1.03756
0.975509
0.976276
0.977545
0.977291
0.920467
0.920486
0.920746
0.920312
0.863761
0.864077
0.864502
0.864513
0.80324
0.804901
0.806476
0.80792
0.738805
0.742913
0.746663
0.750046
0.666647
0.677355
0.683478
0.690402
0.59754
0.608074
0.617044
0.631713
0.515123
0.521884
0.544108
0.572585
0.459731
0.467294
0.495235
0.52528
0.426202
0.448024
0.467663
0.48746
0.391471
0.411703
0.4309
0.44938
0.353961
0.375432
0.395537
0.414218
0.322335
0.343658
0.363604
0.3821
0.293716
0.314594
0.334103
0.352214
0.265918
0.286795
0.305988
0.323685
0.235304
0.255388
0.27387
0.29129
0.253813
0.268229
0.275655
0.282351
0.185578
0.215572
0.248877
0.280672
0.148947
0.168911
0.188014
0.206536
0.127903
0.147759
0.166514
0.183769
0.102202
0.121434
0.139976
0.157389
0.0801896
0.0982907
0.115643
0.132042
0.0632175
0.0795983
0.0955294
0.110684
0.0477727
0.0628087
0.0777609
0.091889
0.0307436
0.0470932
0.0621235
0.0756006
0.0228259
0.0394493
0.0521451
0.0635327
0.0125726
0.0315169
0.0432959
0.0529973
-0.00360247
0.0170001
0.0320197
0.0418335
-0.00546396
0.00512481
0.0218541
0.0318053
-0.0017585
-0.00169567
0.0134855
0.0233367
-0.000232248
-0.00277771
0.00834546
0.0168351
0.000129864
-0.00261724
0.00429729
0.0107355
0.000803345
-0.000434081
0.00328603
0.00781408
-0.000327777
-0.000646234
-0.00132016
-0.00100129
1.33261
1.19696
1.18446
1.1445
1.09855
1.05921
1.02377
0.994731
0.966903
0.940374
0.91343
0.87994
0.883654
0.868707
0.853882
0.841816
0.832884
0.827031
0.824183
1.4362
1.22376
1.19543
1.13969
1.08734
1.04285
1.00734
0.976174
0.947967
0.921564
0.881428
0.885812
0.875125
0.859664
0.845519
0.834044
0.825526
0.819924
0.817192
1.41459
1.23139
1.17262
1.10467
1.07054
1.02579
0.992083
0.959664
0.931577
0.894879
0.886756
0.879549
0.863871
0.848935
0.835745
0.825046
0.81706
0.811783
0.8092
1.29612
1.27314
1.14208
1.09849
1.02424
0.980346
0.958334
0.923652
0.893649
0.888302
0.883577
0.867569
0.851618
0.837368
0.825086
0.815145
0.807699
0.802758
0.800335
1.23359
1.22905
1.11103
1.06699
1.0279
0.988014
0.939891
0.918536
0.904648
0.888011
0.870139
0.85359
0.838345
0.824954
0.813554
0.804343
0.797427
0.792826
0.790565
1.16614
1.12433
1.12568
1.03238
0.99897
0.96821
0.937158
0.913124
0.88999
0.86988
0.853248
0.838041
0.824061
0.811695
0.801178
0.792678
0.786285
0.782022
0.779924
1.0961
1.06682
1.06958
1.00865
0.96695
0.940514
0.911414
0.888675
0.868444
0.850728
0.83591
0.821906
0.809066
0.797698
0.788034
0.780222
0.77434
0.770413
0.768479
1.0325
1.01133
0.989128
1.00365
0.935981
0.915166
0.889478
0.867295
0.848794
0.832427
0.818303
0.805315
0.793475
0.783034
0.774185
0.767041
0.76166
0.758065
0.756294
0.973959
0.960513
0.940342
0.955587
0.904478
0.884819
0.865768
0.845924
0.828456
0.813247
0.800151
0.78818
0.777278
0.767725
0.759673
0.753188
0.748305
0.74504
0.743431
0.918035
0.908991
0.893467
0.884044
0.893725
0.853822
0.840616
0.823311
0.806989
0.793099
0.781388
0.770472
0.760453
0.751782
0.744536
0.738712
0.734326
0.731392
0.729947
0.863882
0.85931
0.85111
0.841128
0.84536
0.826276
0.811509
0.799762
0.78446
0.772013
0.762097
0.752211
0.74299
0.735235
0.728821
0.723664
0.719776
0.717175
0.715894
0.810255
0.810531
0.807797
0.802552
0.795667
0.792549
0.788628
0.773624
0.759441
0.749796
0.742513
0.73351
0.724906
0.718152
0.712592
0.708096
0.704702
0.702435
0.701322
0.756621
0.762934
0.765122
0.764149
0.760979
0.754313
0.748903
0.75578
0.7336
0.726112
0.721581
0.713485
0.705896
0.700547
0.695895
0.692054
0.689154
0.687231
0.686296
0.702635
0.716718
0.723742
0.726042
0.726109
0.723724
0.71885
0.715154
0.707346
0.703091
0.705279
0.695865
0.686457
0.682311
0.678377
0.675167
0.672797
0.671275
0.670571
0.654255
0.673741
0.685096
0.689177
0.691587
0.691941
0.690346
0.688409
0.683219
0.678797
0.676207
0.671679
0.667339
0.664127
0.661154
0.658688
0.656875
0.655758
0.655279
0.602477
0.628846
0.645394
0.6533
0.658014
0.660777
0.66129
0.660853
0.658525
0.656105
0.654066
0.650783
0.647352
0.644612
0.642253
0.640315
0.638874
0.637965
0.637563
0.558487
0.584354
0.603916
0.61968
0.626104
0.630657
0.632887
0.633961
0.633575
0.632596
0.631353
0.629361
0.62712
0.625113
0.623342
0.621854
0.620713
0.619956
0.619593
0.517163
0.545258
0.567213
0.58334
0.594034
0.602531
0.605135
0.608002
0.609028
0.609166
0.608788
0.607828
0.606554
0.605261
0.604057
0.603006
0.602176
0.601608
0.601329
0.478434
0.509027
0.533139
0.550325
0.562591
0.572544
0.579371
0.582626
0.584897
0.585991
0.586452
0.586359
0.585859
0.585195
0.584497
0.583835
0.58329
0.582902
0.582708
0.443188
0.475104
0.50024
0.519497
0.533503
0.54437
0.552274
0.557776
0.561349
0.562918
0.564298
0.565016
0.565118
0.564997
0.564743
0.56442
0.564125
0.563897
0.563778
0.410802
0.443198
0.469332
0.489925
0.505369
0.517414
0.526349
0.532925
0.537349
0.540493
0.542356
0.543664
0.544305
0.544698
0.54483
0.544805
0.544726
0.544638
0.54458
0.380432
0.413222
0.44018
0.461485
0.478026
0.491023
0.501017
0.508425
0.513897
0.517896
0.520732
0.522448
0.523415
0.524321
0.524796
0.524992
0.525112
0.525152
0.525146
0.351192
0.384764
0.412276
0.434106
0.451529
0.46529
0.476078
0.484227
0.490725
0.495384
0.498728
0.501172
0.502877
0.504012
0.504785
0.505009
0.505319
0.505445
0.50541
0.32015
0.356728
0.384822
0.407488
0.425634
0.44007
0.451633
0.460475
0.46755
0.472887
0.476808
0.479901
0.481984
0.48348
0.484524
0.485108
0.48555
0.485733
0.485762
0.302466
0.33353
0.357394
0.380413
0.400492
0.415405
0.427884
0.43705
0.444653
0.450709
0.455091
0.45858
0.461092
0.462929
0.464267
0.465182
0.465731
0.466029
0.466122
0.320441
0.354087
0.359779
0.36791
0.382586
0.392601
0.405145
0.414684
0.422837
0.429479
0.433835
0.437615
0.44052
0.442688
0.444302
0.44542
0.446103
0.446501
0.446692
0.237823
0.281171
0.341484
0.383679
0.401077
0.391531
0.394792
0.398309
0.404017
0.410183
0.414197
0.418203
0.4212
0.423513
0.425271
0.426426
0.427177
0.427646
0.427912
0.211033
0.242921
0.274688
0.30633
0.343048
0.3924
0.41416
0.408786
0.402274
0.40118
0.400327
0.402628
0.404252
0.405942
0.407406
0.40822
0.408801
0.409241
0.409499
0.185014
0.218122
0.247832
0.272481
0.293844
0.319546
0.34777
0.388875
0.416745
0.420401
0.407211
0.401907
0.396452
0.394454
0.393934
0.393128
0.392843
0.392926
0.393041
0.158271
0.190663
0.220539
0.246034
0.267401
0.286591
0.302951
0.322764
0.346387
0.378191
0.412063
0.422966
0.412655
0.403793
0.39757
0.391424
0.388212
0.386881
0.386372
0.135048
0.165496
0.193563
0.218394
0.240237
0.259184
0.27509
0.289669
0.302875
0.318076
0.339767
0.366638
0.399446
0.418345
0.421275
0.412792
0.406682
0.40325
0.401519
0.11449
0.142788
0.16899
0.192457
0.213123
0.231271
0.247249
0.261135
0.273254
0.283839
0.294812
0.307929
0.326237
0.34818
0.372774
0.397238
0.41159
0.417868
0.419734
0.0965217
0.122376
0.146463
0.168265
0.187574
0.204589
0.219505
0.232505
0.244006
0.253855
0.262879
0.271427
0.280151
0.290197
0.302679
0.318194
0.332867
0.344042
0.35007
0.0814709
0.104242
0.125881
0.145735
0.163432
0.17911
0.192913
0.204952
0.215398
0.224388
0.232563
0.239759
0.246307
0.25242
0.258239
0.26408
0.27013
0.275087
0.277885
0.0682221
0.0879139
0.106985
0.124728
0.140643
0.1548
0.167318
0.178306
0.18786
0.196071
0.203158
0.2093
0.214962
0.219883
0.22404
0.227325
0.230166
0.232315
0.233431
0.0557945
0.0729327
0.0895111
0.105064
0.119077
0.131582
0.142682
0.152477
0.161058
0.168507
0.174903
0.180345
0.185043
0.189098
0.192561
0.195363
0.197378
0.198896
0.199807
0.0445731
0.059249
0.0733123
0.086584
0.0985866
0.109326
0.118899
0.1274
0.134913
0.141511
0.14726
0.152214
0.156437
0.159991
0.162912
0.165167
0.166778
0.167908
0.168598
0.0347097
0.0468057
0.0582498
0.0691226
0.0790014
0.0878743
0.0958284
0.102955
0.109332
0.115027
0.120094
0.124573
0.128486
0.131816
0.134536
0.136607
0.138021
0.138813
0.139157
0.0260642
0.0352908
0.0439815
0.0523451
0.0600136
0.06696
0.0732593
0.0789947
0.0842386
0.089048
0.093464
0.0975106
0.10118
0.104411
0.107104
0.109123
0.110489
0.111211
0.11148
0.0175384
0.0240322
0.0302019
0.0362667
0.0419276
0.0471491
0.0519865
0.0565044
0.0607559
0.0647766
0.0685812
0.0721604
0.0754723
0.0784341
0.0809343
0.0828289
0.0841253
0.0848463
0.0851297
0.0126112
0.0170388
0.0211202
0.0250187
0.0285765
0.0317896
0.0347079
0.0373813
0.0398462
0.0421216
0.0442068
0.0460725
0.0476675
0.0489627
0.0499642
0.0507014
0.0510944
0.0512089
0.0511791
-0.00149811
-0.00264729
-0.00364018
-0.00447979
-0.00523187
-0.00591466
-0.00653077
-0.00708284
-0.00757645
-0.00801998
-0.00842551
-0.0088053
-0.00916018
-0.009484
-0.00977485
-0.00998116
-0.0101795
-0.0103599
-0.0104025
)
;

boundaryField
{
    leftWall
    {
        type            zeroGradient;
    }
    rightWall
    {
        type            zeroGradient;
    }
    lowerWall
    {
        type            zeroGradient;
    }
    atmosphere
    {
        type            totalPressure;
        rho             rho;
        psi             none;
        gamma           1;
        p0              uniform 0;
        value           nonuniform List<scalar> 
46
(
-0.00693292
-0.00691157
-0.00674394
-0.00650165
-0.0061929
-0.00582772
-0.00541792
-0.00497693
-0.00451908
-0.00406023
-0.00361793
-0.00321437
-0.00286537
-0.00268469
-0.00289702
-0.00250015
-0.00192014
-0.00132264
-0.000792888
-0.000346385
-0.000130339
-2.86898e-05
-4.15165e-10
0
0
0
0
0
0
0
0
0
0
0
0
0
0
0
0
0
0
0
0
0
0
0
)
;
    }
    defaultFaces
    {
        type            empty;
    }
}


// ************************************************************************* //
