/*--------------------------------*- C++ -*----------------------------------*\
| =========                 |                                                 |
| \\      /  F ield         | foam-extend: Open Source CFD                    |
|  \\    /   O peration     | Version:     4.1                                |
|   \\  /    A nd           | Web:         http://www.foam-extend.org         |
|    \\/     M anipulation  |                                                 |
\*---------------------------------------------------------------------------*/
FoamFile
{
    version     2.0;
    format      ascii;
    class       surfaceScalarField;
    location    "0.05";
    object      phi_0;
}
// * * * * * * * * * * * * * * * * * * * * * * * * * * * * * * * * * * * * * //

dimensions      [0 3 -1 0 0 0 0];

internalField   nonuniform List<scalar> 
4432
(
3.25242e-06
-3.25242e-06
6.54882e-06
-3.29639e-06
9.92674e-06
-3.37792e-06
1.34096e-05
-3.4829e-06
1.70336e-05
-3.62395e-06
2.07921e-05
-3.75849e-06
2.48628e-05
-4.07073e-06
2.8976e-05
-4.11318e-06
3.30627e-05
-4.08676e-06
3.42118e-05
-1.14907e-06
6.17058e-05
-2.7494e-05
8.60227e-05
-2.43168e-05
0.000107268
-2.12457e-05
0.000119771
-1.25026e-05
0.000138
-1.82286e-05
0.000182887
-4.48876e-05
0.000241308
-5.84209e-05
0.000289434
-4.81265e-05
0.000325106
-3.56717e-05
0.000323764
1.34254e-06
0.000265562
5.82017e-05
0.00010991
0.000155652
0.00010991
3.25139e-06
-6.50382e-06
6.54739e-06
-6.59237e-06
9.92694e-06
-6.75747e-06
1.34105e-05
-6.96643e-06
1.7038e-05
-7.25152e-06
2.07939e-05
-7.51435e-06
2.48368e-05
-8.11362e-06
2.97328e-05
-9.00915e-06
3.31621e-05
-7.51611e-06
5.63772e-05
-2.43642e-05
6.3145e-05
-3.42618e-05
8.38103e-05
-4.49821e-05
9.56483e-05
-3.30837e-05
9.68243e-05
-1.36786e-05
8.22879e-05
-3.69213e-06
5.88619e-05
-2.14617e-05
4.97245e-05
-4.92836e-05
5.94644e-05
-5.78662e-05
8.51365e-05
-6.13443e-05
0.000120014
-3.35351e-05
9.61993e-05
8.20171e-05
4.35525e-05
0.000208298
0.000153463
3.24124e-06
-9.74507e-06
6.52813e-06
-9.87926e-06
9.90289e-06
-1.01322e-05
1.33784e-05
-1.04419e-05
1.70082e-05
-1.08814e-05
2.0714e-05
-1.12201e-05
2.49468e-05
-1.23465e-05
2.93024e-05
-1.33648e-05
3.12001e-05
-9.41382e-06
5.45581e-05
-4.77221e-05
6.35529e-05
-4.32566e-05
8.01874e-05
-6.16167e-05
9.17672e-05
-4.46634e-05
0.000107664
-2.95754e-05
0.000135822
-3.185e-05
0.000172767
-5.84072e-05
0.000196586
-7.3102e-05
0.00019879
-6.00704e-05
0.000149246
-1.18004e-05
5.43683e-05
6.13431e-05
4.9196e-06
0.000131466
1.60747e-06
0.000211611
0.00015507
3.22592e-06
-1.2971e-05
6.49888e-06
-1.31522e-05
9.86737e-06
-1.35007e-05
1.33302e-05
-1.39047e-05
1.69664e-05
-1.45176e-05
2.05482e-05
-1.48019e-05
2.50625e-05
-1.68607e-05
2.83608e-05
-1.66631e-05
5.09097e-05
-3.19627e-05
5.30776e-05
-4.98899e-05
6.23529e-05
-5.2532e-05
7.65866e-05
-7.58504e-05
8.61517e-05
-5.42285e-05
9.76351e-05
-4.10588e-05
0.000110619
-4.48341e-05
0.000115001
-6.27893e-05
0.000124007
-8.21072e-05
0.000122675
-5.87383e-05
7.72426e-05
3.36313e-05
2.72229e-05
0.000111362
-1.11381e-06
0.000159803
-7.4104e-08
0.000210571
0.000154996
3.20516e-06
-1.61762e-05
6.45877e-06
-1.64058e-05
9.82033e-06
-1.68623e-05
1.32669e-05
-1.73513e-05
1.69065e-05
-1.81572e-05
2.05146e-05
-1.841e-05
2.45396e-05
-2.08857e-05
2.66556e-05
-1.87791e-05
4.75223e-05
-5.28294e-05
5.28536e-05
-5.52213e-05
6.0902e-05
-6.05803e-05
7.12188e-05
-8.61672e-05
7.93616e-05
-6.23714e-05
9.3475e-05
-5.51722e-05
0.000120487
-7.18457e-05
0.000161092
-0.000103395
0.000191951
-0.000112966
0.000140784
-7.57114e-06
5.2887e-05
0.000121529
1.76448e-05
0.000146605
4.60224e-06
0.000172846
6.29295e-06
0.000208881
0.000161288
3.17873e-06
-1.93549e-05
6.4068e-06
-1.96339e-05
9.76222e-06
-2.02177e-05
1.3187e-05
-2.0776e-05
1.68955e-05
-2.18657e-05
2.04726e-05
-2.19871e-05
2.40038e-05
-2.44169e-05
4.37161e-05
-3.84914e-05
4.63746e-05
-5.5488e-05
5.25434e-05
-6.13901e-05
5.981e-05
-6.78468e-05
6.78661e-05
-9.42233e-05
7.17203e-05
-6.62256e-05
7.94659e-05
-6.29177e-05
9.07361e-05
-8.31159e-05
0.000142309
-0.000154967
0.00014409
-0.000114748
6.36886e-05
7.28299e-05
3.21711e-05
0.000153047
1.88644e-05
0.000159912
1.20979e-05
0.000179612
1.51168e-05
0.000205862
0.000176405
3.14609e-06
-2.2501e-05
6.34144e-06
-2.28293e-05
9.69208e-06
-2.35684e-05
1.30773e-05
-2.41612e-05
1.687e-05
-2.56584e-05
1.97398e-05
-2.48569e-05
2.26484e-05
-2.73255e-05
4.05254e-05
-5.63683e-05
4.51845e-05
-6.01471e-05
5.06691e-05
-6.68747e-05
5.72688e-05
-7.44465e-05
6.41551e-05
-0.00010111
6.36544e-05
-6.5725e-05
7.06887e-05
-6.9952e-05
8.16984e-05
-9.41256e-05
0.000137996
-0.000211265
6.79406e-05
-4.46925e-05
2.29558e-05
0.000117815
2.32527e-05
0.000152749
2.07346e-05
0.000162429
2.03315e-05
0.000180014
2.53885e-05
0.000200805
0.000201794
3.09686e-06
-2.55978e-05
6.24095e-06
-2.59733e-05
9.57367e-06
-2.69011e-05
1.29088e-05
-2.74964e-05
1.6763e-05
-2.95127e-05
1.89424e-05
-2.70363e-05
3.72732e-05
-4.56563e-05
4.00688e-05
-5.91639e-05
4.45167e-05
-6.4595e-05
4.95416e-05
-7.18996e-05
5.55499e-05
-8.04548e-05
6.12729e-05
-0.000106833
5.77745e-05
-6.22266e-05
6.58689e-05
-7.80463e-05
7.66253e-05
-0.000104882
0.000124237
-0.000258877
3.6593e-05
4.29521e-05
1.60305e-05
0.000138378
2.12242e-05
0.000147556
2.18416e-05
0.000161812
2.54733e-05
0.000176383
2.85217e-05
0.000197757
0.000230316
4.06528e-06
-4.06528e-06
8.82541e-06
-4.76028e-06
1.24556e-05
-3.63016e-06
1.42581e-05
-1.8025e-06
1.45631e-05
-3.05144e-07
1.43303e-05
2.32782e-07
1.3835e-05
4.95311e-07
1.31398e-05
6.95079e-07
1.2326e-05
8.13785e-07
1.14675e-05
8.58515e-07
1.05569e-05
9.10672e-07
9.15543e-06
1.40151e-06
6.59765e-06
2.55788e-06
4.95583e-06
1.64185e-06
3.68342e-06
1.27243e-06
2.62225e-06
1.06112e-06
1.68882e-06
9.3342e-07
8.2672e-07
8.62047e-07
8.26778e-07
4.22514e-06
-8.29037e-06
9.56959e-06
-1.01049e-05
1.31079e-05
-7.16849e-06
1.48249e-05
-3.51961e-06
1.51148e-05
-5.95126e-07
1.48096e-05
5.37859e-07
1.41933e-05
1.11157e-06
1.34376e-05
1.45075e-06
1.25911e-05
1.66025e-06
1.17095e-05
1.74029e-06
1.07426e-05
1.8777e-06
8.65687e-06
3.48728e-06
6.53263e-06
4.68222e-06
4.95687e-06
3.21758e-06
3.69618e-06
2.53312e-06
2.63945e-06
2.11775e-06
1.70358e-06
1.86934e-06
8.34893e-07
1.73064e-06
1.66172e-06
4.1196e-06
-1.24099e-05
1.09057e-05
-1.68912e-05
1.40034e-05
-1.02663e-05
1.53655e-05
-4.88177e-06
1.54326e-05
-6.62253e-07
1.50207e-05
9.49659e-07
1.43258e-05
1.80645e-06
1.35215e-05
2.25512e-06
1.26403e-05
2.54143e-06
1.17536e-05
2.62707e-06
1.07232e-05
2.9082e-06
7.88646e-06
6.32403e-06
6.28285e-06
6.28592e-06
4.82689e-06
4.67351e-06
3.62581e-06
3.73422e-06
2.60207e-06
3.14141e-06
1.68456e-06
2.78691e-06
8.2687e-07
2.58825e-06
2.48863e-06
5.29222e-06
-1.77022e-05
1.19455e-05
-2.35445e-05
1.50111e-05
-1.3332e-05
1.61168e-05
-5.98758e-06
1.59176e-05
-4.63036e-07
1.53353e-05
1.53184e-06
1.45076e-05
2.63417e-06
1.36351e-05
3.12759e-06
1.26686e-05
3.50801e-06
1.16832e-05
3.61247e-06
9.65939e-06
4.93214e-06
7.2545e-06
8.72896e-06
5.99121e-06
7.54927e-06
4.66494e-06
5.99975e-06
3.54171e-06
4.85747e-06
2.55727e-06
4.12577e-06
1.66139e-06
3.68285e-06
8.1698e-07
3.4326e-06
3.30563e-06
6.93406e-06
-2.46363e-05
1.36336e-05
-3.02441e-05
1.63065e-05
-1.6005e-05
1.70922e-05
-6.77339e-06
1.6587e-05
4.21892e-08
1.57439e-05
2.37481e-06
1.47219e-05
3.65618e-06
1.37736e-05
4.07591e-06
1.26951e-05
4.58659e-06
1.14073e-05
4.9003e-06
7.1398e-06
9.19973e-06
6.8322e-06
9.0366e-06
5.68958e-06
8.69194e-06
4.4951e-06
7.1942e-06
3.44843e-06
5.90416e-06
2.50627e-06
5.06787e-06
1.63442e-06
4.55475e-06
8.05292e-07
4.26167e-06
4.11094e-06
9.44616e-06
-3.40825e-05
1.60869e-05
-3.68849e-05
1.80068e-05
-1.7925e-05
1.8361e-05
-7.12773e-06
1.73945e-05
1.0087e-06
1.62111e-05
3.55821e-06
1.49257e-05
4.94153e-06
1.38597e-05
5.14203e-06
1.22001e-05
6.24618e-06
7.21289e-06
9.88755e-06
6.87769e-06
9.535e-06
6.47895e-06
9.43535e-06
5.36743e-06
9.80351e-06
4.31681e-06
8.2448e-06
3.34828e-06
6.87271e-06
2.45004e-06
5.96606e-06
1.60402e-06
5.40081e-06
7.91938e-07
5.0737e-06
4.90289e-06
1.45298e-05
-4.86124e-05
1.97411e-05
-4.20962e-05
2.00509e-05
-1.82349e-05
1.98654e-05
-6.94238e-06
1.82766e-05
2.59747e-06
1.65758e-05
5.25908e-06
1.44747e-05
7.04255e-06
1.06036e-05
9.01322e-06
7.13293e-06
9.71691e-06
6.99709e-06
1.00234e-05
6.76129e-06
9.77085e-06
6.07235e-06
1.01243e-05
5.06029e-06
1.08156e-05
4.13868e-06
9.16639e-06
3.24561e-06
7.76582e-06
2.39065e-06
6.82098e-06
1.57112e-06
6.22035e-06
7.77274e-07
5.86752e-06
5.68017e-06
3.02894e-05
-7.89018e-05
2.62384e-05
-3.80452e-05
2.00539e-05
-1.20505e-05
1.16459e-05
1.46555e-06
1.01323e-05
4.11101e-06
8.99218e-06
6.39927e-06
8.07123e-06
7.96351e-06
7.61139e-06
9.4731e-06
7.22393e-06
1.01044e-05
6.95916e-06
1.02882e-05
6.66355e-06
1.00665e-05
5.63914e-06
1.11487e-05
4.78971e-06
1.16651e-05
3.97555e-06
9.98054e-06
3.14738e-06
8.594e-06
2.33171e-06
7.63662e-06
1.53764e-06
7.01444e-06
7.6212e-07
6.64301e-06
6.44228e-06
6.44051e-06
-3.20383e-05
1.29786e-05
-3.25115e-05
2.00118e-05
-3.39342e-05
2.73219e-05
-3.48064e-05
3.54163e-05
-3.76071e-05
6.07717e-05
-5.23916e-05
7.32008e-05
-5.80855e-05
8.00833e-05
-6.60463e-05
8.82205e-05
-7.27322e-05
9.71243e-05
-8.08035e-05
0.000106518
-8.98485e-05
0.000112441
-0.000112756
0.000116142
-6.59268e-05
0.000124911
-8.68157e-05
0.000220978
-0.000200949
0.000147174
-0.000185073
5.23714e-05
0.000137754
3.69187e-05
0.000153831
2.87459e-05
0.000155729
3.05401e-05
0.000160018
4.24935e-05
0.00016443
6.5663e-05
0.000174588
0.000112614
0.000183365
6.11864e-06
-3.8157e-05
1.26325e-05
-3.90254e-05
2.02099e-05
-4.15116e-05
3.30965e-05
-4.7693e-05
5.00194e-05
-5.45301e-05
5.79864e-05
-6.03586e-05
6.59297e-05
-6.60288e-05
7.24761e-05
-7.25927e-05
7.93454e-05
-7.96016e-05
8.64033e-05
-8.78613e-05
9.36375e-05
-9.70827e-05
9.75342e-05
-0.000116653
9.00248e-05
-5.84174e-05
9.0931e-05
-8.77219e-05
0.000164738
-0.000274756
1.35632e-05
-3.38982e-05
1.47878e-05
0.000136529
2.61983e-05
0.00014242
2.77062e-05
0.000154221
3.41197e-05
0.000153605
4.74558e-05
0.000151094
0.000133416
8.86273e-05
8.03541e-05
0.000165675
9.74338e-06
-4.79004e-05
2.01746e-05
-4.94566e-05
3.05088e-05
-5.18458e-05
3.9107e-05
-5.62912e-05
4.64223e-05
-6.18454e-05
5.28679e-05
-6.68042e-05
5.91414e-05
-7.23022e-05
6.50972e-05
-7.85485e-05
7.09345e-05
-8.54389e-05
7.65422e-05
-9.34691e-05
8.1779e-05
-0.000102319
8.29198e-05
-0.000117794
8.19596e-05
-5.74572e-05
8.93175e-05
-9.50798e-05
0.00018196
-0.000367398
2.93207e-05
0.000118741
1.93082e-05
0.000146542
1.87783e-05
0.00014295
2.67245e-05
0.000146275
3.25278e-05
0.000147801
9.5966e-05
8.76551e-05
0.000104431
8.01614e-05
7.0524e-05
0.000114261
9.11474e-06
-5.70151e-05
1.79843e-05
-5.83261e-05
2.67198e-05
-6.05812e-05
3.44499e-05
-6.40214e-05
4.09222e-05
-6.83177e-05
4.70477e-05
-7.29296e-05
5.27737e-05
-7.80283e-05
5.80104e-05
-8.37852e-05
6.28438e-05
-9.02723e-05
6.72363e-05
-9.78616e-05
7.11017e-05
-0.000106185
7.02378e-05
-0.00011693
6.90083e-05
-5.62276e-05
6.95222e-05
-9.55938e-05
1.05833e-05
-0.000308459
-4.76483e-06
0.000134089
1.01908e-05
0.000131586
1.93337e-05
0.000133807
3.14007e-05
0.000134208
6.4894e-05
0.000114308
7.74967e-05
7.50521e-05
8.72114e-05
7.04468e-05
6.30829e-05
9.46529e-05
8.02807e-06
-6.50432e-05
1.58017e-05
-6.60998e-05
2.32632e-05
-6.80427e-05
3.01329e-05
-7.08911e-05
3.6289e-05
-7.44738e-05
4.18833e-05
-7.85239e-05
4.69266e-05
-8.30716e-05
5.13606e-05
-8.82192e-05
5.52051e-05
-9.41168e-05
5.84931e-05
-0.00010115
6.12086e-05
-0.0001089
5.88652e-05
-0.000114586
5.8451e-05
-5.58135e-05
6.27061e-05
-9.98488e-05
-3.07342e-05
-0.000215019
-6.58859e-06
0.000109943
1.38535e-05
0.000111144
2.94682e-05
0.000118193
4.22624e-05
0.000121413
7.21331e-05
8.44374e-05
7.52329e-05
7.19523e-05
8.00195e-05
6.56603e-05
5.98356e-05
8.32668e-05
7.01537e-06
-7.20585e-05
1.38697e-05
-7.29541e-05
2.04541e-05
-7.46271e-05
2.66051e-05
-7.70421e-05
3.22089e-05
-8.00775e-05
3.72647e-05
-8.35797e-05
4.16895e-05
-8.74964e-05
4.53037e-05
-9.18335e-05
4.81075e-05
-9.69205e-05
5.02694e-05
-0.000103312
5.18257e-05
-0.000110457
4.85221e-05
-0.000111283
4.79966e-05
-5.5288e-05
5.45786e-05
-0.000106431
-2.54875e-05
-0.000134952
5.93722e-06
7.85186e-05
1.89002e-05
9.81808e-05
3.20108e-05
0.000105082
5.333e-05
0.000100094
6.4239e-05
7.35285e-05
6.72312e-05
6.89604e-05
6.80317e-05
6.48599e-05
6.53216e-05
6.25458e-05
6.16893e-06
-7.82275e-05
1.22253e-05
-7.90105e-05
1.80696e-05
-8.04714e-05
2.35937e-05
-8.25662e-05
2.86983e-05
-8.51821e-05
3.32923e-05
-8.81737e-05
3.72364e-05
-9.14405e-05
4.00068e-05
-9.46039e-05
4.15894e-05
-9.85031e-05
4.24507e-05
-0.000104173
4.2659e-05
-0.000110665
3.87905e-05
-0.000107414
3.87726e-05
-5.52701e-05
6.46134e-05
-0.000132272
3.17849e-06
-7.35176e-05
3.87615e-06
7.78209e-05
2.2259e-05
7.97979e-05
4.09704e-05
8.6371e-05
5.84979e-05
8.25664e-05
5.83352e-05
7.36913e-05
6.05972e-05
6.66985e-05
6.13282e-05
6.41288e-05
8.94333e-05
3.72164e-05
5.4314e-06
-8.36589e-05
1.07945e-05
-8.43736e-05
1.60162e-05
-8.56931e-05
2.10219e-05
-8.75719e-05
2.57224e-05
-8.98826e-05
2.99785e-05
-9.24298e-05
3.35533e-05
-9.50153e-05
3.5712e-05
-9.67626e-05
3.57395e-05
-9.85306e-05
3.49396e-05
-0.000103373
3.3431e-05
-0.000109156
2.90682e-05
-0.000103051
2.62706e-05
-5.24724e-05
9.57808e-05
-0.000201782
2.02305e-05
2.03264e-06
1.91388e-05
7.89125e-05
2.49103e-05
7.40262e-05
3.47024e-05
7.65789e-05
4.18539e-05
7.54149e-05
4.64354e-05
6.911e-05
5.10968e-05
6.20372e-05
3.6657e-05
7.85686e-05
9.29749e-05
3.31153e-05
4.7655e-06
-8.84244e-05
9.51239e-06
-8.91205e-05
1.42042e-05
-9.03849e-05
1.88096e-05
-9.21774e-05
2.32642e-05
-9.43372e-05
2.74271e-05
-9.65927e-05
3.10012e-05
-9.85894e-05
3.2606e-05
-9.83674e-05
3.09163e-05
-9.68409e-05
2.78619e-05
-0.000100319
2.34819e-05
-0.000104776
1.80662e-05
-9.76356e-05
1.78208e-05
-5.2227e-05
8.63564e-05
-0.000270318
1.82503e-05
7.01386e-05
1.30463e-05
8.41164e-05
1.83256e-05
6.8747e-05
2.32819e-05
7.16227e-05
2.83765e-05
7.03204e-05
3.27162e-05
6.47704e-05
3.63218e-05
5.84316e-05
2.46099e-05
9.02804e-05
9.16579e-05
2.59269e-05
4.12095e-06
-9.25453e-05
8.28338e-06
-9.32829e-05
1.24912e-05
-9.45928e-05
1.68259e-05
-9.65121e-05
2.1254e-05
-9.87652e-05
2.57648e-05
-0.000101104
3.01402e-05
-0.000102965
3.20853e-05
-0.000100313
2.8319e-05
-9.30747e-05
2.0306e-05
-9.23055e-05
9.4932e-06
-9.39635e-05
5.10542e-06
-9.32479e-05
3.70131e-06
-5.08229e-05
-6.93178e-07
-0.000265923
-8.86463e-06
7.83102e-05
2.46879e-06
7.27832e-05
8.32016e-06
6.28957e-05
1.3373e-05
6.657e-05
1.73366e-05
6.63568e-05
2.00784e-05
6.20286e-05
2.14299e-05
5.70801e-05
1.78803e-05
9.38299e-05
9.0834e-05
1.87044e-05
3.38552e-06
-9.59308e-05
6.88225e-06
-9.67796e-05
1.05024e-05
-9.82129e-05
1.45711e-05
-0.000100581
1.91249e-05
-0.000103319
2.45483e-05
-0.000106527
3.14343e-05
-0.000109851
3.57065e-05
-0.000104585
2.40527e-05
-8.14209e-05
9.5854e-06
-7.78382e-05
-3.53933e-06
-8.08388e-05
4.76827e-07
-9.7264e-05
6.70764e-08
-5.04131e-05
-1.04096e-05
-0.000255447
-6.56585e-06
7.44669e-05
-2.3984e-06
6.86159e-05
1.60486e-06
5.88924e-05
5.59434e-06
6.25804e-05
8.64332e-06
6.33078e-05
1.06571e-05
6.00148e-05
1.02944e-05
5.74427e-05
9.13404e-06
9.49903e-05
8.92096e-05
1.07584e-05
2.32503e-06
-9.82559e-05
5.11126e-06
-9.95659e-05
8.21879e-06
-0.00010132
1.16177e-05
-0.00010398
1.54927e-05
-0.000107194
2.04299e-05
-0.000111464
2.71431e-05
-0.000116564
2.08709e-05
-9.83125e-05
1.38144e-05
-7.43645e-05
9.33904e-06
-7.33628e-05
8.05516e-07
-7.23053e-05
1.08872e-05
-0.000107346
1.06741e-05
-5.02001e-05
-4.05061e-06
-0.000240721
-3.887e-06
7.43036e-05
-3.68834e-06
6.84173e-05
-1.0272e-06
5.62312e-05
9.48937e-07
6.06042e-05
2.91293e-06
6.13437e-05
3.93164e-06
5.8996e-05
-3.72647e-07
6.1747e-05
-5.24285e-07
9.5142e-05
8.63445e-05
2.3408e-06
1.65563e-06
-9.99115e-05
4.21098e-06
-0.000102121
6.97586e-06
-0.000104085
9.07642e-06
-0.00010608
1.06129e-05
-0.00010873
1.1071e-05
-0.000111922
1.12914e-05
-0.000116784
1.61854e-05
-0.000103206
1.46077e-05
-7.27868e-05
1.26467e-05
-7.14018e-05
9.92943e-06
-6.9588e-05
1.34511e-05
-0.000110867
1.39816e-05
-5.07305e-05
-2.30428e-05
-0.000203697
-1.10924e-05
6.2353e-05
-6.58376e-06
6.39085e-05
-4.02262e-06
5.36699e-05
-2.07547e-06
5.8657e-05
-2.15417e-07
5.94836e-05
1.4714e-06
5.73092e-05
-1.54894e-05
7.87077e-05
-8.45332e-06
8.81059e-05
8.22116e-05
-4.32035e-06
9.37605e-07
-0.000100849
2.09636e-06
-0.00010328
2.92612e-06
-0.000104915
3.38959e-06
-0.000106544
3.59911e-06
-0.00010894
2.25994e-06
-0.000110583
-4.84962e-08
-0.000114476
1.05703e-05
-0.000113825
1.53236e-05
-7.75401e-05
1.68762e-05
-7.29544e-05
1.83353e-05
-7.10471e-05
-2.2339e-06
-9.02981e-05
-4.25625e-06
-4.87082e-05
-1.25597e-05
-0.000195394
-4.30248e-06
5.40956e-05
-4.55233e-06
6.41583e-05
-5.76126e-06
5.48789e-05
-5.4269e-06
5.83227e-05
-4.54971e-06
5.86065e-05
-9.79121e-06
6.25508e-05
-1.98494e-05
8.8766e-05
-1.40784e-05
8.2335e-05
7.69771e-05
-8.84382e-06
1.39817e-06
-0.000102247
1.94345e-06
-0.000103825
2.11583e-06
-0.000105087
2.0745e-06
-0.000106502
1.41963e-06
-0.000108285
-8.6955e-07
-0.000108294
-3.77704e-06
-0.000111569
-7.60878e-06
-0.000109994
1.79908e-05
-0.00010314
1.86395e-05
-7.36031e-05
1.93926e-05
-7.18002e-05
4.18085e-06
-7.50864e-05
6.95234e-06
-5.14797e-05
-1.45208e-05
-0.000173921
1.6196e-05
2.33786e-05
-1.36144e-06
8.17159e-05
-7.15274e-06
6.06704e-05
-6.43516e-06
5.76053e-05
-6.74424e-06
5.89157e-05
-2.74588e-05
8.32653e-05
-1.74666e-05
7.8774e-05
-1.27226e-05
7.75911e-05
7.46232e-05
-1.03687e-05
1.05186e-06
-0.000103299
1.33898e-06
-0.000104112
1.37739e-06
-0.000105126
1.13862e-06
-0.000106264
2.30604e-07
-0.000107377
-7.65504e-07
-0.000107298
-2.79554e-06
-0.000109538
-5.00525e-06
-0.000107784
-5.8345e-06
-0.00010231
2.02485e-05
-9.96861e-05
1.89622e-05
-7.0514e-05
1.98169e-05
-7.59411e-05
2.71172e-05
-5.878e-05
-2.52324e-05
-0.000121571
2.36586e-05
-2.55123e-05
-3.67992e-06
0.000109055
-9.68461e-06
6.66753e-05
-9.8291e-06
5.77499e-05
-3.52628e-05
8.43494e-05
-3.16411e-05
7.96437e-05
-2.92881e-05
7.6421e-05
-2.49577e-05
7.32607e-05
6.9686e-05
-2.00204e-05
5.05185e-07
-0.000103804
7.45449e-07
-0.000104353
7.76942e-07
-0.000105157
5.67714e-07
-0.000106054
-2.90252e-08
-0.00010678
-2.85386e-07
-0.000107041
-2.15146e-06
-0.000107672
-3.90603e-06
-0.000106029
-3.84323e-06
-0.000102373
-3.55768e-06
-9.99716e-05
2.05963e-05
-9.46679e-05
1.81139e-05
-7.34587e-05
3.9474e-05
-8.01401e-05
1.79569e-05
-0.000100054
1.48892e-05
-2.24444e-05
4.30875e-06
0.000119636
-1.93998e-05
9.0384e-05
-4.38584e-05
8.22085e-05
-3.99675e-05
8.04586e-05
-3.71923e-05
7.68686e-05
-3.38711e-05
7.30999e-05
-2.8519e-05
6.79087e-05
6.46706e-05
-2.35036e-05
2.04329e-07
-0.000104009
3.1434e-07
-0.000104463
3.21928e-07
-0.000105165
2.20374e-07
-0.000105953
4.60123e-08
-0.000106606
-1.77007e-07
-0.000106818
-1.13767e-06
-0.000106712
-2.07864e-06
-0.000105088
-1.96346e-06
-0.000102488
-1.45895e-06
-0.000100476
5.41616e-07
-9.66685e-05
2.86794e-05
-0.000101597
4.493e-05
-9.63907e-05
3.1627e-05
-8.67507e-05
2.04843e-05
-1.13015e-05
-2.57482e-05
0.000165868
-5.00731e-05
0.000114709
-5.01441e-05
8.22795e-05
-4.73493e-05
7.76638e-05
-4.23018e-05
7.18211e-05
-3.85565e-05
6.93547e-05
-3.1943e-05
6.12952e-05
5.34717e-05
-2.07442e-05
9.44828e-08
-0.000104103
1.48967e-07
-0.000104517
1.63172e-07
-0.000105179
1.21807e-07
-0.000105911
1.33137e-08
-0.000106498
-1.27371e-07
-0.000106678
-3.78348e-07
-0.000106461
-5.63797e-07
-0.000104903
-3.83752e-07
-0.000102668
-8.4244e-08
-0.000100776
-1.39755e-06
-9.53552e-05
-1.2374e-05
-9.06201e-05
-3.49722e-05
-7.37925e-05
-6.05374e-05
-6.11855e-05
-0.000108168
3.63287e-05
-6.32345e-05
0.000120935
-4.9046e-05
0.00010052
-5.57508e-05
8.89843e-05
-5.13155e-05
7.32285e-05
-4.39468e-05
6.44525e-05
-3.00431e-05
5.54511e-05
-2.23312e-05
5.35832e-05
5.04736e-05
-1.9333e-05
-6.13322e-08
-0.000104042
-1.38055e-07
-0.00010444
-2.50443e-07
-0.000105067
-4.01608e-07
-0.00010576
-6.0097e-07
-0.000106298
-8.59103e-07
-0.00010642
-1.14607e-06
-0.000106174
-1.4194e-06
-0.00010463
-1.72407e-06
-0.000102364
-2.68675e-06
-9.9813e-05
-4.72699e-06
-9.33149e-05
-1.38654e-05
-8.14817e-05
-3.56279e-05
-5.203e-05
-8.2566e-05
-1.42474e-05
-8.91976e-05
4.29603e-05
-6.93617e-05
0.000101099
-5.42723e-05
8.5431e-05
-4.13124e-05
7.60244e-05
-3.44108e-05
6.63269e-05
-2.911e-05
5.91517e-05
-2.63434e-05
5.26845e-05
-2.29866e-05
5.02264e-05
4.76321e-05
-2.01451e-05
-2.64929e-06
-0.000101393
-5.27789e-06
-0.000101812
-8.25549e-06
-0.000102089
-1.16466e-05
-0.000102369
-1.54603e-05
-0.000102484
-1.95559e-05
-0.000102324
-2.39363e-05
-0.000101793
-2.74341e-05
-0.000101132
-3.02876e-05
-9.95103e-05
-3.39195e-05
-9.61811e-05
-4.59526e-05
-8.1282e-05
-8.2134e-05
-4.53003e-05
-9.58115e-05
-3.83526e-05
-0.000132058
2.19988e-05
-0.000123495
3.43972e-05
-7.94561e-05
5.70603e-05
-6.05338e-05
6.65087e-05
-4.62368e-05
6.17274e-05
-3.81851e-05
5.82753e-05
-3.20784e-05
5.3045e-05
-2.81433e-05
4.87494e-05
-2.44295e-05
4.65125e-05
4.43409e-05
-2.11382e-05
-7.11405e-06
-9.42785e-05
-1.43399e-05
-9.4586e-05
-2.19082e-05
-9.45209e-05
-2.99475e-05
-9.433e-05
-3.85548e-05
-9.38773e-05
-4.78419e-05
-9.3037e-05
-5.79669e-05
-9.16686e-05
-6.97598e-05
-8.9339e-05
-8.2287e-05
-8.69832e-05
-9.33919e-05
-8.50762e-05
-0.000113437
-6.12366e-05
-0.000129448
-2.92897e-05
-0.000146416
-2.13848e-05
-0.000124706
2.88632e-07
-9.55714e-05
5.26297e-06
-7.55639e-05
3.70528e-05
-6.12633e-05
5.2208e-05
-4.92462e-05
4.97103e-05
-4.08601e-05
4.98892e-05
-3.42129e-05
4.63977e-05
-2.94267e-05
4.39631e-05
-2.55305e-05
4.26164e-05
4.0819e-05
-2.20087e-05
-6.96245e-06
-8.73161e-05
-1.40912e-05
-8.74572e-05
-2.14788e-05
-8.71334e-05
-2.92515e-05
-8.65574e-05
-3.75059e-05
-8.5623e-05
-4.63418e-05
-8.42012e-05
-5.59469e-05
-8.20636e-05
-6.78817e-05
-7.74043e-05
-8.448e-05
-7.0385e-05
-8.13652e-05
-8.8191e-05
-0.000114725
-2.78765e-05
-0.000117845
-2.61696e-05
-0.000113142
-2.60881e-05
-0.000108179
-4.67434e-06
-0.000103829
9.12574e-07
-7.89063e-05
1.21302e-05
-6.49841e-05
3.82859e-05
-4.79177e-05
3.26439e-05
-4.16873e-05
4.36587e-05
-3.55619e-05
4.02722e-05
-3.05686e-05
3.89698e-05
-2.64943e-05
3.85421e-05
3.71003e-05
-2.27755e-05
-6.30098e-06
-8.10151e-05
-1.27001e-05
-8.10581e-05
-1.92867e-05
-8.05468e-05
-2.6123e-05
-7.97212e-05
-3.32573e-05
-7.84888e-05
-4.06723e-05
-7.67864e-05
-4.82627e-05
-7.44732e-05
-5.469e-05
-7.09772e-05
-5.71777e-05
-6.78973e-05
-0.000101032
-4.43371e-05
-9.68541e-05
-3.20541e-05
-9.78541e-05
-2.51697e-05
-0.000105887
-1.80556e-05
-9.60373e-05
-1.45237e-05
-9.24809e-05
-2.6438e-06
-8.52733e-05
4.92253e-06
-6.50676e-05
1.80801e-05
-5.90529e-05
2.66292e-05
-4.55002e-05
3.01061e-05
-3.5675e-05
3.04469e-05
-3.01611e-05
3.3456e-05
-2.68447e-05
3.52257e-05
3.351e-05
-2.32545e-05
-6.30238e-06
-7.47127e-05
-1.26933e-05
-7.46672e-05
-1.92176e-05
-7.40225e-05
-2.5916e-05
-7.30229e-05
-3.28589e-05
-7.1546e-05
-4.02283e-05
-6.9417e-05
-4.75021e-05
-6.71995e-05
-5.47337e-05
-6.37457e-05
-7.81605e-05
-4.44704e-05
-8.49884e-05
-3.75093e-05
-8.73439e-05
-2.96986e-05
-8.86318e-05
-2.38818e-05
-8.87588e-05
-1.79286e-05
-8.3228e-05
-2.00544e-05
-7.84635e-05
-7.40834e-06
-7.25569e-05
-9.84069e-07
-5.65868e-05
2.11009e-06
-5.20443e-05
2.20866e-05
-4.67203e-05
2.47821e-05
-4.22096e-05
2.59363e-05
-3.6136e-05
2.73824e-05
-2.91958e-05
2.82855e-05
2.82863e-05
-2.39721e-05
-6.04006e-06
-6.86727e-05
-1.21574e-05
-6.855e-05
-1.83685e-05
-6.78115e-05
-2.46578e-05
-6.67337e-05
-3.12824e-05
-6.49215e-05
-3.80301e-05
-6.26695e-05
-4.50226e-05
-6.02072e-05
-6.44709e-05
-4.42975e-05
-7.02366e-05
-3.87048e-05
-7.41401e-05
-3.36058e-05
-7.58018e-05
-2.80369e-05
-7.68995e-05
-2.27842e-05
-7.72831e-05
-1.75449e-05
-7.45222e-05
-2.28153e-05
-6.90149e-05
-1.29156e-05
-6.66351e-05
-3.36386e-06
-6.36565e-05
-8.68522e-07
-4.77948e-05
6.22499e-06
-4.42163e-05
2.12036e-05
-3.93967e-05
2.11166e-05
-3.50678e-05
2.30535e-05
-3.1019e-05
2.42367e-05
2.48385e-05
-2.75713e-05
-5.66388e-06
-6.30088e-05
-1.14026e-05
-6.28113e-05
-1.72221e-05
-6.19919e-05
-2.29656e-05
-6.09902e-05
-2.89773e-05
-5.89098e-05
-3.61326e-05
-5.55143e-05
-5.24395e-05
-4.39004e-05
-5.75204e-05
-3.92167e-05
-6.10521e-05
-3.51732e-05
-6.37612e-05
-3.08968e-05
-6.54334e-05
-2.63648e-05
-6.63939e-05
-2.18238e-05
-6.66177e-05
-1.73211e-05
-6.49497e-05
-2.44834e-05
-6.14798e-05
-1.63855e-05
-5.88802e-05
-5.96345e-06
-5.7876e-05
-1.8727e-06
-5.34937e-05
1.84278e-06
-4.22041e-05
9.91408e-06
-3.78527e-05
1.67652e-05
-3.35253e-05
1.87261e-05
-2.98148e-05
2.05262e-05
2.15932e-05
-2.65695e-05
-5.2432e-06
-5.77656e-05
-1.06025e-05
-5.7452e-05
-1.61947e-05
-5.63997e-05
-2.1346e-05
-5.5839e-05
-3.03658e-05
-4.98901e-05
-4.24997e-05
-4.33805e-05
-4.69862e-05
-3.9414e-05
-5.019e-05
-3.60129e-05
-5.28883e-05
-3.24749e-05
-5.50437e-05
-2.87415e-05
-5.65639e-05
-2.48446e-05
-5.74818e-05
-2.09059e-05
-5.78178e-05
-1.69852e-05
-5.70977e-05
-2.52035e-05
-5.5461e-05
-1.80222e-05
-5.11869e-05
-1.02376e-05
-4.95477e-05
-3.51184e-06
-4.67266e-05
-9.78314e-07
-3.80205e-05
1.20796e-06
-3.48156e-05
1.35603e-05
-3.17981e-05
1.57086e-05
-2.85772e-05
1.73053e-05
1.86381e-05
-2.56221e-05
-4.82333e-06
-5.29423e-05
-1.00494e-05
-5.2226e-05
-1.64355e-05
-5.00136e-05
-2.68141e-05
-4.54605e-05
-3.3693e-05
-4.30112e-05
-3.76819e-05
-3.93917e-05
-4.06279e-05
-3.64681e-05
-4.32889e-05
-3.3352e-05
-4.56079e-05
-3.0156e-05
-4.75051e-05
-2.68443e-05
-4.89085e-05
-2.34413e-05
-4.9805e-05
-2.00094e-05
-5.02822e-05
-1.6508e-05
-5.00774e-05
-2.54083e-05
-4.89576e-05
-1.9142e-05
-4.604e-05
-1.31553e-05
-4.44383e-05
-5.11358e-06
-4.32861e-05
-2.13049e-06
-4.15718e-05
-5.06324e-07
-3.21979e-05
4.18635e-06
-3.00533e-05
1.35641e-05
-2.72769e-05
1.45289e-05
1.60102e-05
-2.4649e-05
-6.89693e-06
-4.60454e-05
-1.37231e-05
-4.53999e-05
-1.99658e-05
-4.37709e-05
-2.43399e-05
-4.10865e-05
-2.85118e-05
-3.88393e-05
-3.16545e-05
-3.62491e-05
-3.45307e-05
-3.35919e-05
-3.70264e-05
-3.08564e-05
-3.91551e-05
-2.80273e-05
-4.08892e-05
-2.51102e-05
-4.22046e-05
-2.2126e-05
-4.30829e-05
-1.91311e-05
-4.36057e-05
-1.59852e-05
-4.37155e-05
-2.52986e-05
-4.31745e-05
-1.96831e-05
-4.19929e-05
-1.43369e-05
-3.90779e-05
-8.0287e-06
-3.82158e-05
-2.99259e-06
-3.77546e-05
-9.67619e-07
-3.46535e-05
1.08525e-06
-2.81505e-05
7.06111e-06
-2.58624e-05
1.22408e-05
1.36082e-05
-2.34603e-05
-5.54034e-06
-4.05051e-05
-1.09141e-05
-4.00261e-05
-1.58531e-05
-3.88319e-05
-1.98116e-05
-3.7128e-05
-2.3396e-05
-3.5255e-05
-2.64958e-05
-3.31493e-05
-2.91812e-05
-3.09066e-05
-3.14985e-05
-2.85391e-05
-3.346e-05
-2.60658e-05
-3.50654e-05
-2.35048e-05
-3.6311e-05
-2.08805e-05
-3.72053e-05
-1.82369e-05
-3.77616e-05
-1.54289e-05
-3.8185e-05
-2.48753e-05
-3.80174e-05
-1.98508e-05
-3.72449e-05
-1.51095e-05
-3.48665e-05
-1.04072e-05
-3.39457e-05
-3.91343e-06
-3.31063e-05
-1.80699e-06
-3.18808e-05
-1.40282e-07
-2.67891e-05
1.96939e-06
-2.38767e-05
9.32849e-06
1.18169e-05
-2.20853e-05
-4.43127e-06
-3.60738e-05
-8.69979e-06
-3.57576e-05
-1.26648e-05
-3.48669e-05
-1.6188e-05
-3.36048e-05
-1.93469e-05
-3.20961e-05
-2.2127e-05
-3.03692e-05
-2.45623e-05
-2.84712e-05
-2.66692e-05
-2.64322e-05
-2.84585e-05
-2.42765e-05
-2.99361e-05
-2.20272e-05
-3.11068e-05
-1.97098e-05
-3.19898e-05
-1.7354e-05
-3.25441e-05
-1.48746e-05
-3.31391e-05
-2.42804e-05
-3.31419e-05
-1.9848e-05
-3.26689e-05
-1.55826e-05
-3.15901e-05
-1.1486e-05
-3.01094e-05
-5.39413e-06
-2.94774e-05
-2.43899e-06
-2.89524e-05
-6.65243e-07
-2.79287e-05
9.45694e-07
-2.26152e-05
4.01502e-06
1.00529e-05
-2.0851e-05
-3.55983e-06
-3.25139e-05
-7.02428e-06
-3.22932e-05
-1.02908e-05
-3.16004e-05
-1.32855e-05
-3.06101e-05
-1.60047e-05
-2.93769e-05
-1.84384e-05
-2.79356e-05
-2.05896e-05
-2.632e-05
-2.2464e-05
-2.45577e-05
-2.40675e-05
-2.26728e-05
-2.54068e-05
-2.06879e-05
-2.64902e-05
-1.86264e-05
-2.73342e-05
-1.65099e-05
-2.78964e-05
-1.43124e-05
-2.86587e-05
-2.35182e-05
-2.88905e-05
-1.96162e-05
-2.87765e-05
-1.56966e-05
-2.8372e-05
-1.18905e-05
-2.60848e-05
-7.68137e-06
-2.57661e-05
-2.75773e-06
-2.53844e-05
-1.04686e-06
-2.50104e-05
5.71778e-07
-2.34074e-05
2.41212e-06
6.53531e-06
-1.98897e-05
-2.88629e-06
-2.96277e-05
-5.71097e-06
-2.94686e-05
-8.40207e-06
-2.89093e-05
-1.09117e-05
-2.81006e-05
-1.32165e-05
-2.7072e-05
-1.53015e-05
-2.58506e-05
-1.71599e-05
-2.44615e-05
-1.87903e-05
-2.29273e-05
-2.01947e-05
-2.12684e-05
-2.13786e-05
-1.95038e-05
-2.23523e-05
-1.76527e-05
-2.31312e-05
-1.57309e-05
-2.36955e-05
-1.37481e-05
-2.46177e-05
-2.25959e-05
-2.49436e-05
-1.92903e-05
-2.48775e-05
-1.57628e-05
-2.4446e-05
-1.2322e-05
-2.32628e-05
-8.86448e-06
-2.25429e-05
-3.47757e-06
-2.20225e-05
-1.56725e-06
-2.14731e-05
2.2431e-08
-2.06403e-05
1.57948e-06
3.86969e-06
-1.79746e-05
-2.34191e-06
-2.72858e-05
-4.64296e-06
-2.71676e-05
-6.85039e-06
-2.6702e-05
-8.92839e-06
-2.60226e-05
-1.08524e-05
-2.5148e-05
-1.26054e-05
-2.40975e-05
-1.41765e-05
-2.28903e-05
-1.55598e-05
-2.1544e-05
-1.67535e-05
-2.00746e-05
-1.77613e-05
-1.8496e-05
-1.85944e-05
-1.68196e-05
-1.92748e-05
-1.50504e-05
-1.98211e-05
-1.32017e-05
-2.10345e-05
-2.13825e-05
-2.14016e-05
-1.89231e-05
-2.14077e-05
-1.57566e-05
-2.11759e-05
-1.25538e-05
-2.06934e-05
-9.34688e-06
-1.9014e-05
-5.15689e-06
-1.87463e-05
-1.83482e-06
-1.82671e-05
-4.56746e-07
-1.75612e-05
8.73675e-07
2.24869e-06
-1.59401e-05
-1.88857e-06
-2.53972e-05
-3.74902e-06
-2.53073e-05
-5.54167e-06
-2.49094e-05
-7.2386e-06
-2.43257e-05
-8.81778e-06
-2.35688e-05
-1.02623e-05
-2.2653e-05
-1.15594e-05
-2.15931e-05
-1.26998e-05
-2.04035e-05
-1.36768e-05
-1.90975e-05
-1.44871e-05
-1.76856e-05
-1.51338e-05
-1.61729e-05
-1.5636e-05
-1.45481e-05
-1.60505e-05
-1.2787e-05
-1.80051e-05
-1.94278e-05
-1.82551e-05
-1.86731e-05
-1.82168e-05
-1.57948e-05
-1.80046e-05
-1.27659e-05
-1.76038e-05
-9.74757e-06
-1.62369e-05
-6.52373e-06
-1.59231e-05
-2.1485e-06
-1.55214e-05
-8.58404e-07
-1.50252e-05
3.77552e-07
1.54596e-06
-1.43224e-05
-1.50093e-06
-2.38964e-05
-2.98236e-06
-2.3826e-05
-4.414e-06
-2.34778e-05
-5.7734e-06
-2.29663e-05
-7.04183e-06
-2.23004e-05
-8.20381e-06
-2.1491e-05
-9.24628e-06
-2.05506e-05
-1.01576e-05
-1.94922e-05
-1.09256e-05
-1.83294e-05
-1.15349e-05
-1.70763e-05
-1.19599e-05
-1.57479e-05
-1.21505e-05
-1.43574e-05
-1.20316e-05
-1.29059e-05
-1.56927e-05
-1.57667e-05
-1.54016e-05
-1.89641e-05
-1.51807e-05