/*--------------------------------*- C++ -*----------------------------------*\
| =========                 |                                                 |
| \\      /  F ield         | foam-extend: Open Source CFD                    |
|  \\    /   O peration     | Version:     4.1                                |
|   \\  /    A nd           | Web:         http://www.foam-extend.org         |
|    \\/     M anipulation  |                                                 |
\*---------------------------------------------------------------------------*/
FoamFile
{
    version     2.0;
    format      ascii;
    class       volScalarField;
    location    "0.05";
    object      psi;
}
// * * * * * * * * * * * * * * * * * * * * * * * * * * * * * * * * * * * * * //

dimensions      [1 -1 -2 0 0 0 0];

internalField   nonuniform List<scalar> 
2268
(
6.01053e-09
2.15202e-08
-3.16269e-07
-2.41268e-06
6.89094e-06
0.000145335
0.000260656
-0.00441962
-0.0194146
0.00785632
0.57842
0.780494
1.23736
1.97688
4.24636
3.51076
2.1546
1.21935
0.695092
0.372841
0.135644
0.0213047
-0.00247706
6.02696e-09
2.14386e-08
-3.17863e-07
-2.41753e-06
6.92789e-06
0.000145783
0.000267912
-0.00434019
-0.0195243
-0.0106742
0.494453
0.740545
0.73828
-0.154297
-0.0264375
-0.60125
-0.60878
-0.314682
-0.140765
-0.0442123
-0.000691606
-0.00301233
-0.00287645
6.06136e-09
2.12522e-08
-3.21295e-07
-2.42503e-06
7.04101e-06
0.000146499
0.000274869
-0.00422435
-0.0184132
-0.0075103
0.480816
0.830959
0.302307
-0.418826
0.860323
0.939065
0.321179
0.0148102
-0.0556175
-0.0466963
-0.019465
-0.00698831
-0.00134849
6.11465e-09
2.10132e-08
-3.26376e-07
-2.43293e-06
7.3167e-06
0.000148004
0.000272522
-0.00429808
-0.0190345
-0.0100483
0.517719
1.03977
-0.0372526
-1.0262
-0.432788
-0.266942
-0.196993
-0.0922659
-0.040378
-0.0177669
-0.00768209
-0.0024375
-0.00018757
6.19192e-09
2.07508e-08
-3.33282e-07
-2.44245e-06
7.77055e-06
0.000150599
0.000263335
-0.00449261
-0.0195661
-0.00235605
0.605489
1.28112
-0.18298
-0.601216
-0.464179
-0.269552
-0.101668
-0.0373118
-0.0155868
-0.00510717
-0.00197204
-0.000418387
3.78239e-05
6.29359e-09
2.0569e-08
-3.41638e-07
-2.46222e-06
8.25981e-06
0.00015376
0.000250979
-0.00480143
-0.0214278
0.00142648
0.673865
1.52881
-0.307067
-0.503537
-0.872615
-0.472158
-0.115598
-0.0320946
-0.00620734
-0.000853033
-0.000209017
1.61685e-05
3.89672e-05
6.41584e-09
2.05564e-08
-3.50512e-07
-2.50038e-06
8.5547e-06
0.000156169
0.000243966
-0.0050328
-0.0228055
0.00458635
0.732393
1.75207
-0.407602
-0.499642
-0.844242
-0.359488
-0.0754126
-0.0151982
-0.00118004
0.000175353
9.14467e-05
5.01386e-05
1.22617e-05
6.53953e-09
2.06968e-08
-3.58611e-07
-2.54969e-06
8.62871e-06
0.000158688
0.000292647
-0.00497402
-0.0241863
0.00782467
0.785129
1.95682
-0.399893
-0.485395
-0.749236
-0.243547
-0.0463217
-0.00420392
0.00142338
0.000483668
0.000106529
2.31308e-05
1.25929e-06
2.24051e-14
3.12823e-14
6.39454e-14
-3.43227e-14
-1.20575e-14
-2.95497e-14
-1.7272e-14
-2.76919e-14
-4.83002e-14
-3.41293e-14
-1.53765e-14
-1.87305e-14
2.38217e-14
5.10044e-14
4.1657e-15
2.22614e-14
-1.23323e-14
3.52266e-14
8.52934e-15
-4.6208e-14
5.21835e-14
1.71686e-14
4.91089e-14
-3.88781e-14
2.19458e-14
-1.08365e-14
-3.34745e-14
2.88376e-14
2.92123e-14
-3.31444e-15
1.4074e-14
2.23405e-14
-4.28098e-14
1.71506e-14
3.01777e-14
6.61654e-15
2.64817e-14
-3.15017e-14
-1.98942e-13
-2.53879e-14
3.4222e-14
1.03826e-14
-4.78214e-14
3.26436e-14
1.32058e-14
5.09867e-14
1.38361e-14
1.99738e-14
1.14295e-14
1.12112e-14
6.3537e-15
-2.34643e-14
8.18732e-15
1.60068e-14
-1.23323e-14
6.51707e-14
1.08568e-14
2.60198e-13
-1.25395e-13
1.55114e-14
-4.13882e-14
2.30746e-14
3.28841e-14
4.44301e-14
-1.24514e-14
3.0592e-14
2.09216e-14
1.63243e-14
8.03319e-15
-1.0469e-15
-2.38786e-14
3.39438e-14
-2.558e-14
-1.42301e-14
1.88082e-14
6.55304e-14
2.82127e-12
3.21567e-13
-3.59734e-14
1.00128e-14
4.15077e-14
-3.4325e-14
-6.87175e-15
-1.4089e-14
-1.99887e-15
1.53942e-14
-1.91272e-14
3.1515e-16
-3.96702e-15
-4.92978e-15
3.9372e-14
4.52274e-15
3.4958e-14
3.86824e-15
2.94463e-14
4.56525e-12
2.19727e-12
1.17017e-13
-2.61654e-14
1.53846e-15
1.88101e-14
-5.31139e-15
-6.44604e-14
6.98272e-14
8.86447e-15
2.85005e-14
-1.08165e-14
-1.16255e-14
-2.72153e-14
2.8022e-14
-2.30942e-15
-2.37045e-14
1.63419e-14
2.96446e-14
-1.75496e-11
2.33739e-12
6.04096e-13
1.23626e-14
9.77226e-15
1.60068e-14
1.68377e-14
1.04049e-14
2.47253e-14
1.32281e-14
2.84014e-14
1.26128e-14
-3.43054e-14
-1.74258e-14
4.15649e-14
2.10207e-14
4.56563e-16
2.36257e-14
1.39134e-14
-8.27336e-11
-6.21486e-12
6.86179e-13
6.56079e-14
-1.91315e-14
1.34118e-14
-3.48383e-15
5.66757e-14
7.29887e-14
-5.35642e-14
-1.1581e-14
-9.2873e-15
4.12917e-14
-1.23365e-14
6.06115e-15
6.14182e-16
-6.36157e-15
1.63029e-14
3.22775e-14
6.70418e-09
2.10451e-08
-3.67532e-07
-2.59924e-06
8.82796e-06
0.000161511
0.000302212
-0.0055389
-0.0260684
0.0189539
0.872052
2.19688
-0.492589
-0.411658
-0.771468
-0.146999
-0.0244139
0.00203246
0.00101527
7.79189e-05
-3.37385e-06
-8.4532e-07
-2.80632e-07
6.86701e-09
2.11249e-08
-3.76969e-07
-2.6265e-06
9.38925e-06
0.000173332
0.0002852
-0.00636011
-0.028861
0.0358508
0.995269
2.57251
-0.603511
-1.32668
-0.903454
-0.147939
-0.000587142
0.00403712
0.000399212
-3.61035e-05
-1.25908e-05
-9.07113e-07
-6.9475e-08
7.00923e-09
2.17281e-08
-3.91561e-07
-2.7544e-06
1.06839e-05
0.000188488
0.00026245
-0.0071678
-0.0314638
0.0535398
1.10527
2.84365
-0.450873
-1.3624
-0.766502
-0.107942
0.00694957
0.00368623
0.000149056
-6.10728e-05
-9.79301e-06
-4.22922e-07
8.63504e-08
7.32705e-09
2.15609e-08
-4.23547e-07
-2.89708e-06
1.2576e-05
0.000203744
0.00023407
-0.00796973
-0.0338191
0.0726427
1.21111
3.07533
-0.430416
-1.69318
-0.725158
-0.0762191
0.0133425
0.00310522
3.7902e-05
-6.30393e-05
-8.03237e-06
-1.73081e-07
1.20102e-07
7.71572e-09
2.15516e-08
-4.56046e-07
-3.04859e-06
1.43776e-05
0.000218266
0.000202305
-0.00875252
-0.0359622
0.092303
1.3097
3.2409
-0.392881
-1.8434
-0.639498
-0.053926
0.0138843
0.00284699
2.58853e-05
-6.07452e-05
-7.946e-06
-7.541e-08
1.31459e-07
8.00208e-09
2.1487e-08
-4.86722e-07
-3.18701e-06
1.60931e-05
0.00023182
0.000168636
-0.00950112
-0.0379072
0.111997
1.40284
3.35712
-0.443908
-1.98857
-0.580265
-0.0384692
0.0144656
0.00267759
6.78446e-07
-6.1276e-05
-7.82472e-06
8.91476e-08
1.46283e-07
5.44461e-09
1.85399e-08
-5.15983e-07
-3.31104e-06
1.76632e-05
0.000244138
0.000135066
-0.0102019
-0.0396805
0.131282
1.49162
3.4347
-0.559044
-2.07722
-0.51375
-0.025714
0.0164926
0.002377
-5.46727e-05
-6.44212e-05
-6.61245e-06
3.27895e-07
1.46328e-07
-3.38495e-09
9.91146e-09
-5.48575e-07
-3.42313e-06
1.90953e-05
0.000254934
0.000103821
-0.010841
-0.0413313
0.149861
1.57888
3.49107
-0.784801
-2.19513
-0.470458
-0.0123442
0.0174061
0.00200828
-0.000128961
-6.80484e-05
-4.13722e-06
6.83825e-07
1.30179e-07
2.24288e-07
2.42737e-07
-3.25571e-07
-3.24959e-06
2.04675e-05
0.000264104
7.80901e-05
-0.0113997
-0.0429208
0.167621
1.66774
3.51086
-1.07697
-2.22302
-0.450665
0.00946277
0.0178299
0.00151902
-0.000251111
-5.86031e-05
-1.42058e-06
8.40129e-07
9.97896e-08
2.47485e-06
2.4882e-06
1.89107e-06
-1.18993e-06
2.36094e-05
0.000273076
5.98234e-05
-0.0118566
-0.0445671
0.184704
1.75977
3.47174
-1.63339
-2.20034
-0.416667
0.0279875
0.0170794
0.00104722
-0.000289947
-5.06586e-05
4.50348e-07
8.91144e-07
7.07975e-08
-1.29659e-07
-5.3916e-07
-1.94766e-06
-6.27911e-06
2.07384e-05
0.000272305
3.69751e-05
-0.0122322
-0.0459956
0.201152
1.81201
3.41354
-2.01155
-2.09622
-0.388329
0.0305522
0.0164085
0.000866125
-0.000303389
-4.55929e-05
1.52814e-06
8.8411e-07
4.87419e-08
-0.000145691
-0.000149442
-0.000156212
-0.000168122
-0.000148213
0.000100342
-0.000180814
-0.0127682
-0.0455711
0.207116
1.81776
3.42644
-1.77718
-2.06215
-0.399709
0.0301985
0.0164553
0.000839582
-0.000314322
-4.33742e-05
2.15772e-06
8.85132e-07
3.12475e-08
-0.00121708
-0.00122049
-0.00123335
-0.0012417
-0.00114162
-0.00086239
-0.00114187
-0.0140366
-0.04621
0.201965
1.79058
3.5244
-1.38672
-2.03772
-0.406475
0.0305677
0.0165796
0.000834442
-0.000318683
-4.28147e-05
2.67844e-06
8.54461e-07
1.88101e-08
0.000358211
0.000545252
0.00081313
0.00131692
0.000866871
0.00197786
0.00227178
-0.0108359
-0.0439899
0.197362
1.80205
3.64562
-2.25072
-2.12614
-0.385976
0.0357371
0.0178171
0.000855673
-0.000332093
-4.29114e-05
2.94904e-06
8.23089e-07
1.08154e-08
0.035374
0.0357942
0.0365402
0.0374499
0.0398129
0.0412929
0.0423295
0.0293208
-0.000528399
0.238663
1.82481
3.67246
-2.89067
-2.16959
-0.478166
0.00780463
0.0230774
0.00154838
-0.000358827
-4.93302e-05
2.97924e-06
8.63491e-07
9.22605e-09
0.245287
0.245688
0.246664
0.247913
0.249047
0.250876
0.249807
0.238154
0.219372
0.482284
1.98455
3.72479
-0.989802
-1.34004
-0.674212
-0.0602792
0.0237198
0.00313862
-0.000294387
-6.29108e-05
1.95007e-06
9.3558e-07
1.86291e-08
0.64064
0.6373
0.632272
0.624875
0.61561
0.605191
0.592662
0.570981
0.558692
0.782881
2.16047
4.15638
0.319298
-0.70177
-0.723038
-0.0853838
0.017578
0.0034614
-0.000154837
-6.21909e-05
1.41604e-08
8.65037e-07
3.72354e-08
0.210944
0.200688
0.18462
0.16187
0.133765
0.104041
0.0871093
0.0554803
0.0353667
0.0864824
1.05604
2.3692
2.74526
0.497634
-0.34857
-0.110511
0.0108173
0.00293258
-7.60992e-05
-5.02462e-05
-1.03262e-06
6.37251e-07
4.46829e-08
0.537375
0.533138
0.526944
0.517009
0.505686
0.491373
0.4885
0.467197
0.456603
0.463879
0.859016
0.504097
-0.793872
-0.568284
-0.161867
-0.0333085
0.0062507
0.00155867
-5.1535e-05
-2.99273e-05
-6.33036e-07
4.05359e-07
2.75789e-08
-2.09764
-2.09119
-2.07911
-2.06237
-2.04233
-2.02066
-1.99838
-1.97686
-1.95457
-1.90706
-1.65257
-1.06086
-0.605092
-0.243157
-0.035202
-0.00141021
0.00350997
0.000609792
-5.88206e-05
-1.68017e-05
9.13688e-08
2.62923e-07
1.24959e-08
-0.783017
-0.780465
-0.776817
-0.771752
-0.765867
-0.759713
-0.753781
-0.748038
-0.74534
-0.740847
-0.680221
-0.4514
-0.184928
-0.0182248
0.00263826
0.00335741
0.00143804
2.60803e-05
-4.91227e-05
-5.3586e-06
7.36687e-07
1.42365e-07
-2.18047e-09
-0.00419367
-0.00382506
-0.00367699
-0.0034462
-0.00324941
-0.00315682
-0.0032502
-0.00371084
-0.00522862
-0.011229
-0.0258884
-0.00626489
0.020904
0.011599
0.0044966
0.00143674
0.000132363
-7.43225e-05
-1.69271e-05
7.88737e-07
5.07062e-07
2.00397e-08
-7.22954e-09
0.023041
0.022994
0.0229125
0.0228171
0.0227117
0.0226096
0.0225374
0.0225063
0.0224093
0.0216978
0.0164491
0.0145965
0.00963426
0.00336921
0.000502629
-6.09896e-05
-7.66277e-05
-2.40063e-05
8.89301e-08
1.01395e-06
8.52265e-08
-1.73349e-08
-2.975e-09
0.00449741
0.00448572
0.00448121
0.00447801
0.00447808
0.00448442
0.00450508
0.00458272
0.00473018
0.00499181
0.00428741
0.0024726
0.000586657
-0.000231618
-0.000201074
-7.88059e-05
-1.37552e-05
1.21872e-06
1.23282e-06
1.48541e-07
-2.64759e-08
-6.70673e-09
3.38411e-11
-0.000318126
-0.000318624
-0.000317228
-0.000315512
-0.000313154
-0.000310152
-0.000308593
-0.000303784
-0.000247083
-0.00013251
-3.44034e-05
-0.0001821
-0.000235202
-0.000140912
-3.77425e-05
-2.29913e-07
2.68413e-06
1.10525e-06
1.11081e-07
-3.39456e-08
-9.74307e-09
7.87551e-11
2.35445e-10
-0.000128852
-0.000128836
-0.000129059
-0.000129535
-0.000130297
-0.000131439
-0.000133666
-0.000139801
-0.000147115
-0.000143538
-0.000113423
-7.95778e-05
-4.57514e-05
-6.02674e-06
4.78602e-06
2.91714e-06
6.51154e-07
3.4032e-09
-3.89885e-08
-9.7081e-09
2.90136e-10
3.52782e-10
3.12214e-11
-3.81057e-06
-3.80636e-06
-3.87192e-06
-3.97186e-06
-4.12533e-06
-4.35991e-06
-4.90891e-06
-6.00944e-06
-8.10487e-06
-1.11416e-05
-9.86564e-06
-3.21181e-06
1.75919e-06
3.16493e-06
1.49922e-06
1.91045e-07
-7.61813e-08
-3.74805e-08
-5.79714e-09
6.75042e-10
3.85784e-10
2.94336e-11
-7.17539e-12
1.94364e-06
1.94714e-06
1.95434e-06
1.96858e-06
1.98836e-06
2.02674e-06
2.11544e-06
2.26684e-06
2.27372e-06
1.99257e-06
1.46737e-06
1.31685e-06
1.04009e-06
4.54912e-07
-9.87396e-09
-6.74904e-08
-2.33791e-08
-1.39576e-09
1.0079e-09
3.25952e-10
1.51555e-11
-9.82745e-12
-1.79883e-12
2.15386e-07
2.15896e-07
2.18201e-07
2.22574e-07
2.28108e-07
2.36542e-07
2.51558e-07
2.78206e-07
3.16335e-07
3.31612e-07
2.6583e-07
1.54181e-07
5.37373e-08
-3.24391e-08
-3.23634e-08
-9.92483e-09
6.60907e-10
9.47101e-10
2.05648e-10
-5.32363e-12
-1.01958e-11
-1.56592e-12
1.73927e-13
-1.90818e-08
-1.9136e-08
-1.91844e-08
-1.92574e-08
-1.93827e-08
-1.96015e-08
-2.01115e-08
-2.04986e-08
-1.81288e-08
-1.12256e-08
-6.88869e-09
-1.13191e-08
-1.32897e-08
-9.79629e-09
-2.46632e-09
8.11917e-10
5.59915e-10
8.79446e-11
-1.75892e-11
-8.41104e-12
-8.23118e-13
1.82596e-13
1.02287e-13
-3.99325e-09
-4.01229e-09
-4.0644e-09
-4.15648e-09
-4.26303e-09
-4.40406e-09
-4.62203e-09
-5.00304e-09
-5.40448e-09
-5.15096e-09
-3.97204e-09
-2.82937e-09
-1.6183e-09
-1.98353e-10
4.00097e-10
2.28042e-10
2.39544e-11
-1.50893e-11
-5.31813e-12
-2.30432e-13
1.81274e-13
2.92021e-14
-1.03161e-14
4.57992e-11
4.56862e-11
4.36416e-11
3.99316e-11
3.61395e-11
3.2242e-11
2.91147e-11
1.4277e-11
-4.10463e-11
-1.26125e-10
-1.12712e-10
-4.60125e-12
8.45644e-11
1.23465e-10
6.29394e-11
1.73634e-12
-8.20977e-12
-2.51171e-12
5.01644e-14
2.27263e-13
3.46054e-14
-1.69199e-14
-1.61405e-14
4.79271e-11
4.81367e-11
4.87361e-11
4.95342e-11
5.06581e-11
5.20933e-11
5.44187e-11
5.82783e-11
6.02312e-11
5.3109e-11
4.00371e-11
3.30497e-11
2.38106e-11
1.03534e-11
-1.741e-12
-3.21732e-12
-9.25076e-13
1.19354e-13
8.53677e-14
5.70883e-14
-8.01234e-15
-2.59346e-15
1.92636e-15
1.75883e-12
1.75191e-12
1.80566e-12
1.91453e-12
2.00255e-12
2.05288e-12
2.23715e-12
2.55347e-12
3.32733e-12
3.87728e-12
3.06633e-12
1.60442e-12
2.7206e-13
-9.36293e-13
-8.74927e-13
-2.22679e-13
7.1071e-14
2.88964e-14
2.37401e-14
1.57285e-14
5.08453e-14
-6.48864e-14
5.97767e-14
-3.97775e-13
-4.03326e-13
-4.20312e-13
-4.32808e-13
-4.78917e-13
-4.63856e-13
-4.98605e-13
-4.96911e-13
-5.21435e-13
-4.03223e-13
-3.20739e-13
-2.43082e-13
-1.96861e-13
-1.50847e-13
2.03083e-14
2.68243e-14
4.54447e-15
3.55271e-15
1.02821e-14
4.80176e-15
1.17891e-14
3.61821e-14
-2.12993e-14
-5.79504e-14
-3.05622e-15
-3.35795e-16
-1.92106e-14
-5.60539e-14
-5.04124e-14
-6.41723e-14
-1.26378e-14
-8.51404e-14
-5.8974e-14
-7.78904e-14
-3.81575e-15
3.15764e-14
-2.361e-14
1.53842e-14
4.06381e-14
8.48312e-15
1.03033e-14
-3.00571e-14
-3.05413e-14
-4.27623e-14
2.00135e-14
-9.67117e-15
2.48386e-14
3.71172e-14
-2.76377e-14
1.23278e-14
2.57441e-14
1.45678e-14
1.23172e-14
-5.03928e-15
-3.73911e-14
4.57696e-15
1.83217e-14
4.965e-14
2.82386e-14
-3.63265e-14
6.00939e-14
2.05303e-14
3.85925e-14
2.90573e-16
4.94948e-14
2.98673e-14
5.46946e-14
2.96616e-14
1.47705e-14
4.48921e-14
2.74646e-14
-3.93353e-14
1.31343e-14
5.43652e-15
1.88893e-14
5.02643e-14
2.87801e-14
-5.13994e-15
3.08969e-15
-3.62251e-14
9.28963e-15
6.16381e-14
-7.45033e-15
-6.34873e-15
3.58099e-14
1.40875e-14
-4.62924e-15
8.5467e-15
-1.16491e-15
4.25961e-14
-1.13501e-14
2.18162e-14
-4.12538e-14
2.86447e-14
-2.35888e-14
3.30796e-14
1.71207e-15
2.68086e-14
-5.01529e-16
-1.68987e-14
-1.05963e-17
2.65301e-14
-2.84758e-15
2.88119e-14
1.73875e-14
8.22583e-15
6.90041e-15
-3.61775e-14
-1.12254e-14
-4.28305e-14
3.05066e-14
4.0079e-14
2.76477e-14
3.39904e-14
-1.54837e-15
1.90183e-15
-2.55119e-14
-1.03298e-14
3.13608e-14
-3.7723e-14
-1.99197e-15
-1.68768e-14
-9.80175e-15
1.22316e-14
-4.13068e-14
2.61247e-14
-3.61616e-14
-3.81959e-14
-2.02447e-15
2.6587e-14
9.63844e-16
4.97809e-15
8.22053e-15
8.06707e-15
-2.68977e-14
-1.38921e-14
-9.64273e-15
-2.97955e-15
-3.1574e-14
-5.69983e-15
-2.81492e-14
7.9636e-14
5.47218e-14
-3.57508e-14
1.95481e-15
-4.24099e-14
-1.63488e-14
-4.74658e-15
2.22589e-14
2.09409e-14
4.03764e-15
-4.14431e-15
4.55095e-14
-4.04357e-15
6.29129e-14
9.65198e-15
6.03035e-14
2.73201e-14
7.07422e-14
-1.15099e-14
4.2575e-15
3.34094e-14
-2.60975e-14
3.58592e-15
-3.62047e-14
3.18457e-14
-4.23852e-17
-1.03086e-14
1.32226e-14
-1.63912e-14
-3.21861e-14
3.12866e-14
2.97093e-14
2.58017e-14
-4.23932e-14
2.69956e-14
4.85481e-15
7.68113e-14
-1.26734e-14
9.54233e-15
2.00672e-14
1.47586e-14
-4.47056e-16
3.23694e-14
-1.15265e-07
-1.06977e-08
5.42718e-09
1.75907e-09
2.59883e-08
2.14494e-08
7.81192e-09
3.78028e-10
6.33464e-08
2.31037e-08
3.8847e-09
-1.81705e-09
6.2376e-08
1.57576e-08
8.79287e-10
-2.59031e-09
5.37137e-08
1.0231e-08
-1.76089e-09
-2.48478e-09
4.40766e-08
4.50906e-09
-3.65948e-09
-2.12748e-09
2.99208e-08
-6.64559e-10
-4.37383e-09
-1.63172e-09
1.39656e-08
-5.80722e-09
-4.34432e-09
-1.0513e-09
2.6257e-09
-8.09604e-09
-3.97315e-09
-6.41096e-10
-5.18099e-09
-9.47562e-09
-3.48414e-09
-2.50127e-10
-1.20386e-08
-9.77898e-09
-2.68309e-09
5.93696e-11
-1.63963e-08
-9.45006e-09
-2.07495e-09
3.08049e-10
-1.86293e-08
-9.11538e-09
-1.61929e-09
4.91198e-10
-1.95035e-08
-8.62398e-09
-1.25586e-09
5.93418e-10
-2.09264e-08
-8.80717e-09
-1.08539e-09
6.88424e-10
-2.09083e-08
-9.31231e-09
-1.24776e-09
6.88321e-10
-1.63174e-08
-8.98949e-09
-1.64923e-09
4.9209e-10
-9.68027e-09
-6.87286e-09
-1.63747e-09
2.43842e-10
-6.23546e-09
-4.48451e-09
-1.04756e-09
1.71753e-10
-4.91448e-09
-2.82065e-09
-5.40589e-10
1.54452e-10
-4.57692e-09
-1.61567e-09
-9.28623e-11
1.76183e-10
-2.33017e-09
-2.90503e-10
1.96033e-10
1.30019e-10
-1.22563e-10
2.37931e-10
1.32534e-10
2.81592e-11
2.49635e-10
1.11973e-10
1.64839e-11
-8.99122e-12
6.32478e-11
3.58607e-12
-8.49403e-12
-5.27239e-12
-5.57803e-12
-6.38093e-12
-2.59968e-12
-3.00455e-13
-3.58425e-12
-9.88437e-13
1.08312e-13
2.31366e-13
-9.95462e-14
1.58845e-13
1.80106e-13
9.79236e-14
1.85284e-13
3.84949e-14
3.40283e-14
1.13324e-14
2.44871e-14
2.76624e-14
8.75038e-15
2.49706e-15
-2.56199e-15
-1.39305e-14
-3.01214e-15
-2.76625e-15
-1.70827e-16
5.25678e-14
2.47226e-14
1.25464e-14
-2.19557e-14
1.2513e-14
-2.99691e-14
6.97578e-15
6.54154e-14
5.66218e-14
-2.6081e-14
4.0411e-15
-4.87881e-15
4.62415e-14
3.04363e-14
3.88219e-14
6.12373e-14
3.57727e-14
3.57874e-14
-3.22878e-15
2.90766e-14
-8.48955e-15
-1.66538e-14
6.07005e-14
6.11961e-14
7.40008e-14
2.02721e-14
1.54149e-15
8.59191e-14
2.47303e-14
2.58959e-14
-1.4256e-14
7.02044e-14
8.33161e-15
2.26012e-14
2.06986e-14
-3.44727e-14
-2.92197e-14
4.84968e-14
7.40184e-14
3.28527e-14
1.00107e-14
-2.77087e-14
1.51332e-14
-1.33283e-10
-2.67997e-11
5.52711e-13
9.81281e-14
1.93783e-15
-3.25157e-15
-8.27909e-15
-1.15298e-14
-1.82038e-14
3.02648e-14
5.34292e-14
2.16146e-14
3.67681e-15
2.39602e-14
-2.4291e-14
6.27461e-14
2.00849e-14
-2.81989e-14
1.14577e-14
-3.18404e-10
-2.37535e-11
1.37767e-12
1.38049e-13
-1.09184e-14
3.70082e-14
2.6489e-14
-3.03633e-15
5.62503e-14
2.99845e-14
-1.75749e-14
1.96044e-14
3.3684e-14
6.72533e-14
1.98108e-14
5.40695e-14
2.37824e-14
1.32035e-14
-2.34276e-14
-3.47808e-10
-2.87264e-12
2.23336e-12
6.87861e-14
3.79537e-14
-1.22804e-14
4.5607e-14
1.68492e-15
2.89229e-14
9.63522e-14
3.93381e-14
1.47295e-14
3.585e-15
2.0279e-14
-7.05074e-15
3.38394e-15
4.06975e-14
4.51855e-14
2.86948e-14
-2.46155e-10
9.79499e-12
2.31225e-12
2.44403e-14
-3.62809e-14
5.87236e-15
-1.38704e-15
-1.40022e-14
4.83485e-14
3.47455e-14
-5.51757e-15
-9.37797e-15
2.13758e-14
1.67737e-14
1.70666e-14
3.29988e-14
-5.58507e-14
1.09879e-14
6.98137e-15
-1.19314e-10
1.4617e-11
1.90649e-12
4.31201e-14
-3.70746e-14
-1.14644e-14
2.55037e-14
-2.79576e-14
-2.63429e-14
-5.30401e-14
1.43448e-14
4.76216e-14
-2.13162e-14
-1.43648e-14
-1.92868e-14
1.79172e-14
4.59982e-15
2.53059e-15
-8.60401e-15
-2.53112e-11
1.96191e-11
1.10096e-12
-5.82826e-14
-2.02543e-14
-2.50051e-14
6.66155e-14
-5.72903e-16
-1.36747e-14
3.73728e-14
-1.15041e-14
-1.44142e-14
3.56041e-14
2.89005e-14
-1.12378e-15
-1.28935e-14
-7.32392e-15
-4.80309e-14
3.82709e-14
4.91234e-11
1.89266e-11
5.3308e-13
-6.66402e-14
4.1794e-14
-2.39402e-15
-2.80396e-14
2.2646e-14
3.77121e-15
7.09062e-15
3.56955e-14
-3.30659e-14
-3.01558e-14
3.04211e-14
8.71067e-15
1.11494e-14
2.67671e-14
5.24893e-14
6.05865e-15
9.34176e-11
1.64974e-11
4.89757e-14
-1.32274e-13
-8.90805e-16
1.40246e-14
-2.02718e-14
-4.1407e-14
-2.69978e-14
-2.08621e-14
4.29573e-14
1.06707e-14
1.67638e-14
-2.25714e-16
1.8091e-14
2.02718e-14
-1.33473e-14
3.8365e-14
-2.81883e-14
1.28546e-10
1.29294e-11
-2.67316e-13
-6.56409e-14
-6.81251e-15
3.33486e-14
-1.40917e-14
-1.12337e-14
3.95943e-15
-2.04129e-14
8.06798e-15
5.18144e-14
5.04641e-15
9.98846e-15
2.74292e-14
-8.96367e-15
-3.22033e-15
-2.19069e-14
-3.21879e-14
1.43426e-10
9.45133e-12
-5.48049e-13
-6.67058e-14
-4.66661e-15
2.3941e-14
4.25384e-14
2.8345e-14
3.88241e-14
-4.96036e-14
8.93868e-15
6.24687e-15
-7.0386e-15
-4.78002e-14
1.32506e-14
4.52549e-14
2.23387e-14
2.69632e-14
7.66836e-14
1.446e-10
6.06493e-12
-7.23666e-13
-6.12061e-14
3.12971e-14
4.50364e-14
-9.33321e-15
-4.06868e-15
2.23903e-14
-1.62235e-15
-2.17323e-15
4.1954e-15
3.92163e-14
5.12812e-14
1.66993e-14
-9.38556e-15
-4.25531e-14
-1.4273e-14
-2.26533e-15
1.38538e-10
3.15317e-12
-7.93849e-13
-5.69792e-14
-2.31597e-14
1.55528e-14
4.98569e-16
-1.12807e-14
-5.50877e-16
-1.25051e-15
-3.44503e-14
-2.78165e-14
-2.76886e-15
-1.76743e-14
-1.59276e-14
1.71333e-14
3.07614e-14
1.74809e-14
1.96367e-14
1.31811e-10
6.44221e-13
-8.44405e-13
-2.11547e-14
2.1666e-14
-4.61196e-15
5.76643e-14
-2.67641e-14
-4.42608e-15
-2.06923e-15
-1.73094e-14
4.4369e-14
-4.25058e-14
5.46789e-15
-9.34807e-15
2.27849e-14
-2.74416e-14
1.63749e-15
2.10606e-14
1.2217e-10
-1.18955e-12
-7.7402e-13
-5.53747e-14
-2.37675e-14
2.25763e-14
-1.24792e-14
-3.08206e-14
-5.90723e-15
2.75657e-14
3.36688e-14
-3.44256e-14
-3.7811e-15
-2.8784e-14
-1.44145e-14
-5.20029e-14
8.49935e-15
-3.11826e-14
5.61039e-14
1.20189e-10
-2.42427e-12
-8.28115e-13
1.6096e-14
-1.10634e-15
5.37072e-14
-1.91973e-14
-5.55468e-16
4.83285e-14
8.03841e-15
2.66802e-14
7.26396e-14
3.63708e-14
2.40058e-14
3.66782e-14
-3.36684e-14
5.93238e-14
-4.98244e-14
8.45726e-15
1.27302e-10
-2.30575e-12
-8.98419e-13
-1.9604e-15
7.83463e-15
-5.88979e-15
7.91426e-15
-2.19187e-14
9.18267e-14
3.00667e-14
-9.0604e-15
-9.48722e-15
3.19043e-15
2.42562e-14
1.15463e-14
7.53225e-15
1.45482e-14
1.94606e-14
-1.38933e-15
1.26448e-10
-4.81853e-13
-7.56182e-13
-3.16094e-14
3.67673e-14
-1.75477e-14
-3.36266e-14
-3.44113e-15
2.97511e-14
-1.24219e-14
5.21395e-14
1.47469e-14
3.64797e-14
-2.87316e-14
2.47599e-15
4.12704e-14
1.67714e-14
2.31298e-14
2.44349e-14
9.79505e-11
9.62923e-13
-5.55002e-13
-5.62898e-14
-2.78711e-14
-8.42535e-15
-6.7207e-15
6.31622e-14
-3.68657e-15
2.34273e-14
-4.03723e-14
3.23481e-15
-4.2047e-14
-5.61932e-15
9.56394e-15
-7.97646e-15
-4.18558e-14
4.20095e-14
2.24039e-15
6.603e-11
4.61402e-13
-4.20997e-13
-1.69695e-14
3.12605e-16
1.18764e-14
3.6172e-14
-2.95552e-14
4.54658e-14
6.69805e-14
2.07335e-14
3.26368e-14
2.05547e-14
-1.34441e-14
2.99954e-15
4.10124e-14
1.84013e-14
-1.7866e-16
3.90253e-15
3.98191e-11
-2.80016e-13
-2.55659e-13
-1.97186e-14
5.33891e-15
2.2081e-15
-2.1064e-15
2.07903e-14
-2.0897e-14
-1.24716e-14
4.13099e-14
2.07134e-14
-1.39502e-14
-2.7241e-15
-4.38132e-15
-8.23676e-15
1.52007e-14
2.84061e-15
-5.60721e-16
2.20227e-11
-1.04524e-12
-2.16689e-13
3.83699e-14
-6.17512e-15
-3.55145e-14
2.79698e-14
-5.29704e-14
-2.30258e-15
-4.47188e-14
4.69736e-14
-1.36774e-14
-3.39491e-14
3.59218e-15
-1.87906e-14
-1.05699e-15
-1.00799e-14
4.42078e-14
1.91529e-14
3.31193e-12
-1.2998e-12
-4.04115e-14
-2.05821e-14
5.48767e-15
-1.48754e-16
-3.7811e-15
-2.55758e-14
1.47169e-14
2.03613e-14
4.68002e-14
-1.89715e-14
1.44392e-14
2.15617e-14
-1.19306e-14
2.27303e-14
-8.10248e-15
3.79833e-14
6.24231e-14
-4.638e-12
-5.5601e-13
1.28256e-14
2.4219e-14
3.82709e-14
-1.4687e-14
-4.9322e-15
-6.86223e-15
-1.74956e-14
2.21126e-14
9.85423e-15
1.9582e-14
-1.40022e-14
3.66607e-14
7.85737e-15
1.62774e-14
-1.20649e-14
-3.49962e-14
-2.02994e-14
-2.32668e-12
-3.19514e-14
3.10756e-14
-2.55909e-14
-2.02973e-15
-2.20481e-14
9.67056e-15
-1.4037e-14
4.81747e-14
-3.01532e-14
3.35299e-14
3.87125e-14
-2.25664e-14
2.51545e-15
-1.62129e-14
-2.93743e-14
4.02506e-14
2.16864e-15
2.17082e-14
-6.53373e-14
9.33867e-14
5.04352e-14
2.77273e-14
4.58403e-14
4.28586e-14
2.69283e-14
5.07403e-14
-3.55989e-15
5.33376e-14
-1.99367e-14
-6.3018e-15
-2.38518e-14
3.26968e-15
-3.34802e-14
2.03833e-14
1.55331e-14
-1.27046e-14
4.25009e-14
1.86856e-13
1.2417e-14
-4.54533e-14
-4.82291e-15
6.15468e-14
-2.8724e-14
1.5662e-14
-1.75658e-15
-1.29307e-14
1.11244e-14
2.5283e-15
9.76996e-15
3.44503e-14
6.07609e-15
3.15676e-14
3.07785e-14
1.01198e-14
-6.97111e-15
3.88761e-14
2.40646e-14
-3.66087e-14
4.00419e-15
3.27498e-15
4.20914e-14
-3.21925e-14
-1.88281e-14
5.37383e-15
4.11809e-14
-1.69398e-14
-5.05118e-14
3.65689e-14
2.7181e-14
-2.50871e-14
5.03127e-15
3.8003e-14
2.56084e-14
-2.1874e-14
8.13822e-14
-6.0378e-15
3.11582e-14
2.64097e-14
-1.00355e-14
-7.76287e-14
1.84111e-14
7.34804e-14
-2.20576e-14
4.73113e-14
-1.16924e-14
4.14168e-14
-4.2299e-15
2.43776e-14
4.46592e-15
3.85934e-14
-1.66173e-14
-4.03401e-14
-1.28438e-14
5.30146e-15
-1.38127e-14
6.00226e-16
-3.15923e-14
-1.22409e-14
6.35962e-14
-2.9136e-14
-3.26509e-15
-1.46399e-14
4.6367e-15
8.7304e-15
-6.93919e-15
1.62129e-14
-7.46275e-15
8.79489e-15
1.65722e-15
-3.24656e-14
-9.48464e-15
2.93505e-15
4.23199e-14
-2.41043e-15
-9.94862e-15
-3.40855e-15
6.58567e-14
4.87556e-14
4.11217e-14
-3.75762e-14
5.06118e-15
1.8937e-14
2.07555e-14
2.30778e-14
-9.17921e-15
5.87634e-14
7.35354e-15
-4.95019e-14
6.07928e-14
1.71857e-14
1.80439e-14
9.02562e-15
-3.56549e-14
3.1612e-14
-1.10405e-15
-3.09921e-14
-3.48673e-14
-2.22765e-14
2.31568e-14
-2.51888e-14
-1.7866e-16
4.46418e-14
-1.60714e-14
-8.84457e-15
-9.403e-15
-1.42282e-14
5.5673e-15
-3.94724e-15
9.18947e-15
1.92224e-14
2.50898e-14
-9.85568e-15
-1.92397e-14
1.1958e-14
-1.94333e-14
-3.579e-14
7.23708e-15
1.03653e-13
-1.83782e-14
2.71067e-14
1.73838e-14
-1.26204e-14
1.04945e-15
2.80719e-14
3.23367e-14
-3.42224e-16
6.63648e-15
-1.59325e-14
1.98575e-14
2.87889e-14
-2.14674e-15
8.13247e-15
9.6311e-15
3.50186e-14
2.79777e-14
3.29297e-14
2.09737e-14
-3.37132e-14
3.07884e-14
2.81462e-14
1.52365e-15
4.16847e-14
1.34615e-14
-1.68059e-14
-1.04547e-14
1.83626e-16
1.44092e-14
-9.25888e-15
-1.6156e-14
-1.05254e-15
4.83956e-14
1.00454e-14
-2.23755e-14
3.52539e-14
-2.81314e-14
-2.89676e-14
1.88064e-15
-1.19632e-14
2.00805e-14
-3.63333e-14
2.23131e-16
2.31248e-14
4.83547e-15
2.19017e-14
-2.13583e-14
1.25733e-14
-1.45929e-14
-4.74858e-15
1.43761e-15
1.53593e-14
1.60032e-15
1.40223e-14
-3.00939e-15
6.67135e-15
1.06778e-14
-6.06563e-14
5.13602e-14
-2.40748e-14
3.12872e-14
2.47077e-14
-2.64666e-14
1.45853e-14
1.66993e-14
2.0872e-14
-3.75762e-14
1.27073e-14
1.22907e-14
2.88112e-14
4.20345e-14
-7.77999e-15
1.14469e-14
-8.01596e-15
-3.07637e-14
-4.4162e-15
2.17726e-14
-3.94717e-14
-4.18322e-15
-2.91064e-14
-2.96027e-14
1.43721e-14
3.93575e-14
-3.13935e-14
5.36848e-14
7.77052e-15
2.35217e-14
-9.12231e-15
1.03019e-14
-1.4402e-14
-1.48706e-14
2.99821e-14
1.0942e-15
3.2389e-14
2.98482e-14
1.89841e-14
-2.82301e-14
9.50793e-14
-8.06002e-15
4.11217e-14
2.37004e-14
-2.63225e-15
-2.33937e-15
3.29866e-14
5.48488e-14
1.9535e-14
-2.21498e-14
-1.72307e-14
3.96701e-14
-2.03909e-14
-3.41699e-14
4.681e-14
-8.35329e-14
3.2954e-14
2.42115e-14
-1.95645e-14
-1.38474e-15
-3.04882e-14
-2.27404e-14
3.13267e-14
6.52264e-15
3.61299e-14
-1.92397e-14
-4.29204e-14
-1.49627e-14
1.24618e-14
3.24539e-14
-2.09861e-14
4.84328e-14
-2.07153e-15
-4.5039e-14
2.34276e-14
2.18546e-14
-8.67079e-15
2.77717e-14
1.74361e-14
9.71073e-15
6.27528e-14
-2.20481e-14
-3.35325e-14
-3.7904e-14
-3.41385e-15
8.75047e-15
4.15656e-14
1.52595e-15
-8.96745e-15
3.15081e-14
2.75931e-14
3.03e-14
2.24055e-14
1.81679e-14
-3.82758e-14
1.32927e-14
-1.19283e-14
8.63363e-15
-1.89173e-14
-2.80274e-14
-8.46046e-16
1.53099e-14
2.3574e-14
3.62709e-15
-1.55182e-14
1.77336e-14
-1.3397e-14
-7.65165e-15
-3.1203e-14
-1.14624e-14
-7.54775e-14
2.857e-14
-6.07458e-14
-4.70878e-15
1.84134e-14
1.2898e-16
-4.50363e-14
2.32463e-14
4.21886e-14
2.79603e-14
2.03636e-14
-2.0996e-14
4.26696e-14
2.18994e-14
-8.47732e-15
-1.36254e-14
3.72579e-14
6.03539e-14
3.86556e-14
6.60456e-15
-5.84503e-15
3.3959e-14
-3.29343e-14
-1.23453e-14
-1.42803e-14
6.87448e-16
5.1891e-14
-1.82719e-14
1.70985e-14
-2.79844e-15
1.25684e-14
-1.36303e-14
-6.45056e-15
-1.96662e-14
2.78931e-14
)
;

boundaryField
{
    leftWall
    {
        type            zeroGradient;
    }
    rightWall
    {
        type            zeroGradient;
    }
    lowerWall
    {
        type            zeroGradient;
    }
    atmosphere
    {
        type            zeroGradient;
    }
    defaultFaces
    {
        type            empty;
    }
}


// ************************************************************************* //
