/*--------------------------------*- C++ -*----------------------------------*\
| =========                 |                                                 |
| \\      /  F ield         | foam-extend: Open Source CFD                    |
|  \\    /   O peration     | Version:     4.1                                |
|   \\  /    A nd           | Web:         http://www.foam-extend.org         |
|    \\/     M anipulation  |                                                 |
\*---------------------------------------------------------------------------*/
FoamFile
{
    version     2.0;
    format      ascii;
    class       volVectorField;
    location    "0.05";
    object      U_0;
}
// * * * * * * * * * * * * * * * * * * * * * * * * * * * * * * * * * * * * * //

dimensions      [0 1 -1 0 0 0 0];

internalField   nonuniform List<vector> 
2268
(
(0.0244733 -0.00594183 0)
(0.0737584 -0.00602515 0)
(0.123996 -0.00617906 0)
(0.175633 -0.00637133 0)
(0.229165 -0.00663081 0)
(0.284579 -0.00684826 0)
(0.344171 -0.00750801 0)
(0.404947 -0.00697434 0)
(0.470175 -0.0102489 0)
(0.516942 0.0150626 0)
(0.489261 -0.0710088 0)
(0.559149 -0.0593165 0)
(0.788193 -0.0460969 0)
(0.878983 -0.0256344 0)
(1.04672 -0.0501324 0)
(1.47928 -0.131283 0)
(1.77711 -0.262021 0)
(2.08971 -0.439599 0)
(2.69214 -0.484023 0)
(3.48922 -0.309888 0)
(3.52791 -0.1325 0)
(1.69188 0.328637 0)
(0.252685 0.31294 0)
(0.0244653 -0.017823 0)
(0.0737384 -0.0180744 0)
(0.123985 -0.018541 0)
(0.175636 -0.0191165 0)
(0.229222 -0.0199009 0)
(0.284523 -0.020562 0)
(0.344514 -0.0223152 0)
(0.403911 -0.0235508 0)
(0.486782 -0.0215712 0)
(0.481602 -0.0347183 0)
(0.465512 -0.12252 0)
(0.57325 -0.134218 0)
(0.739181 -0.1222 0)
(0.757379 -0.0682618 0)
(0.8798 -0.0490944 0)
(0.926608 -0.16495 0)
(0.748326 -0.238069 0)
(0.626081 -0.185154 0)
(0.724832 -0.0563063 0)
(1.25566 0.130542 0)
(1.55798 0.372736 0)
(0.582286 0.803007 0)
(0.0685122 0.778695 0)
(0.0243879 -0.0296827 0)
(0.0735129 -0.0301054 0)
(0.123654 -0.0308981 0)
(0.175205 -0.0318478 0)
(0.22876 -0.0331846 0)
(0.283781 -0.0342085 0)
(0.343156 -0.0371595 0)
(0.405736 -0.0437887 0)
(0.471177 -0.0318777 0)
(0.446009 -0.156655 0)
(0.454032 -0.150193 0)
(0.570182 -0.200196 0)
(0.683534 -0.180304 0)
(0.738452 -0.109994 0)
(0.976264 -0.0348371 0)
(1.32914 -0.167829 0)
(1.93029 -0.436221 0)
(2.15601 -0.443585 0)
(1.80209 -0.383677 0)
(0.874838 -0.171075 0)
(0.424586 0.492146 0)
(-0.0147169 1.03116 0)
(-0.0144564 0.977886 0)
(0.0242714 -0.0414941 0)
(0.0731703 -0.0420919 0)
(0.123161 -0.0432342 0)
(0.174555 -0.0445344 0)
(0.2281 -0.0464954 0)
(0.282631 -0.047387 0)
(0.33958 -0.053648 0)
(0.414024 -0.0559755 0)
(0.425807 -0.076014 0)
(0.413327 -0.190755 0)
(0.451045 -0.18401 0)
(0.570769 -0.261548 0)
(0.634637 -0.219477 0)
(0.701415 -0.125715 0)
(0.881004 -0.161336 0)
(1.04229 -0.281859 0)
(1.23219 -0.347675 0)
(1.24429 -0.21574 0)
(0.918956 0.182757 0)
(0.370623 0.319927 0)
(0.0732753 0.577761 0)
(-0.0369838 0.965803 0)
(-0.0102454 1.02801 0)
(0.0241141 -0.0532404 0)
(0.0727005 -0.0540166 0)
(0.122502 -0.0555466 0)
(0.173668 -0.0571601 0)
(0.227396 -0.0598123 0)
(0.28041 -0.0603305 0)
(0.338752 -0.0715577 0)
(0.398482 -0.0594693 0)
(0.386466 -0.173198 0)
(0.388936 -0.196961 0)
(0.440384 -0.210414 0)
(0.554733 -0.308017 0)
(0.591905 -0.249115 0)
(0.670199 -0.190277 0)
(0.87352 -0.226549 0)
(1.21635 -0.450861 0)
(1.87902 -0.557824 0)
(1.83414 -0.309799 0)
(0.631931 0.259003 0)
(0.219187 0.466053 0)
(0.0571374 0.645133 0)
(0.024652 0.885591 0)
(0.0200845 1.0448 0)
(0.0239149 -0.064965 0)
(0.0720912 -0.0659239 0)
(0.121674 -0.0679059 0)
(0.172539 -0.0697824 0)
(0.226572 -0.073304 0)
(0.276876 -0.0746028 0)
(0.344989 -0.0835453 0)
(0.359309 -0.100471 0)
(0.348009 -0.20629 0)
(0.37867 -0.214131 0)
(0.434214 -0.236076 0)
(0.530659 -0.343864 0)
(0.553015 -0.273435 0)
(0.615854 -0.242535 0)
(0.749525 -0.314542 0)
(1.08598 -0.599087 0)
(1.78375 -0.689069 0)
(0.991915 0.0948254 0)
(0.271033 0.51812 0)
(0.17292 0.57427 0)
(0.0965389 0.68837 0)
(0.0951955 0.834181 0)
(0.0929862 1.0918 0)
(0.0236721 -0.0765037 0)
(0.0713204 -0.0776422 0)
(0.120668 -0.0801682 0)
(0.171101 -0.0822267 0)
(0.225211 -0.0871606 0)
(0.275289 -0.0877116 0)
(0.327683 -0.0899202 0)
(0.324712 -0.188364 0)
(0.329695 -0.211473 0)
(0.36382 -0.232514 0)
(0.419721 -0.258254 0)
(0.503594 -0.369651 0)
(0.514234 -0.299875 0)
(0.558886 -0.287045 0)
(0.688512 -0.370781 0)
(1.26643 -0.833492 0)
(1.32936 -0.446316 0)
(0.345846 0.385306 0)
(0.144609 0.613468 0)
(0.165827 0.623939 0)
(0.135721 0.695805 0)
(0.198127 0.800563 0)
(0.148789 1.02386 0)
(0.02339 -0.0875082 0)
(0.0703729 -0.088827 0)
(0.119495 -0.0920262 0)
(0.169231 -0.0943498 0)
(0.223683 -0.101397 0)
(0.278394 -0.0879625 0)
(0.290441 -0.137718 0)
(0.292386 -0.218155 0)
(0.324881 -0.225175 0)
(0.351027 -0.249608 0)
(0.402879 -0.278472 0)
(0.473209 -0.388766 0)
(0.474728 -0.339894 0)
(0.508063 -0.32523 0)
(0.638977 -0.46339 0)
(1.51148 -1.03974 0)
(0.816191 -0.0380458 0)
(0.177959 0.495863 0)
(0.13838 0.612055 0)
(0.180082 0.646812 0)
(0.171603 0.701128 0)
(0.253485 0.814946 0)
(0.179153 0.968032 0)
(0.0149714 -0.012915 0)
(0.0501454 -0.0147719 0)
(0.0859666 -0.00599629 0)
(0.107911 -0.00304089 0)
(0.114913 -0.0004823 0)
(0.114386 0.000764931 0)
(0.11098 0.00148605 0)
(0.105399 0.00213793 0)
(0.0990117 0.00255484 0)
(0.0919841 0.00272704 0)
(0.0870197 0.00296083 0)
(0.0966831 0.00456731 0)
(0.104163 0.00699869 0)
(0.0874098 0.0043886 0)
(0.0646098 0.00315496 0)
(0.0472048 0.00242845 0)
(0.0323133 0.00201614 0)
(0.0188656 0.001802 0)
(0.00619985 0.00170157 0)
(0.0145823 -0.0396052 0)
(0.0540978 -0.0477118 0)
(0.0924767 -0.0181638 0)
(0.112166 -0.00907247 0)
(0.118606 -0.00148985 0)
(0.117493 0.00238258 0)
(0.113568 0.0050151 0)
(0.107821 0.00674314 0)
(0.101153 0.00781918 0)
(0.0939103 0.0082969 0)
(0.0894548 0.00911533 0)
(0.0999944 0.0155097 0)
(0.105527 0.0190155 0)
(0.0869951 0.0118095 0)
(0.0647664 0.00839954 0)
(0.0474628 0.00649462 0)
(0.0325668 0.00544145 0)
(0.0190427 0.00489451 0)
(0.00626203 0.00463846 0)
(0.0129511 -0.065765 0)
(0.0599231 -0.0611253 0)
(0.103852 -0.0291345 0)
(0.116959 -0.0142964 0)
(0.121864 -0.00240387 0)
(0.119418 0.00452993 0)
(0.114838 0.0091494 0)
(0.108585 0.0117246 0)
(0.101579 0.0133177 0)
(0.0942711 0.0139559 0)
(0.0917195 0.0153853 0)
(0.102584 0.029093 0)
(0.104085 0.027053 0)
(0.0840575 0.0169941 0)
(0.0633687 0.0121851 0)
(0.0466987 0.0095864 0)
(0.0321589 0.00817541 0)
(0.0188438 0.0074376 0)
(0.0062023 0.00708871 0)
(0.0189385 -0.0945746 0)
(0.0692251 -0.0664228 0)
(0.112324 -0.0391509 0)
(0.12355 -0.0184309 0)
(0.126592 -0.00292838 0)
(0.122418 0.00758685 0)
(0.116626 0.0138819 0)
(0.109595 0.0169962 0)
(0.102105 0.0191526 0)
(0.0947513 0.0198925 0)
(0.0958234 0.0250799 0)
(0.105082 0.0417418 0)
(0.100547 0.0322822 0)
(0.0805286 0.0211244 0)
(0.0616576 0.0155778 0)
(0.0457696 0.0125579 0)
(0.0316603 0.0109025 0)
(0.0185976 0.0100236 0)
(0.00612802 0.00959912 0)
(0.0285677 -0.131627 0)
(0.0839798 -0.0888019 0)
(0.123939 -0.0490764 0)
(0.13232 -0.0216942 0)
(0.13288 -0.00147947 0)
(0.126539 0.0119898 0)
(0.118809 0.0196092 0)
(0.110797 0.0227944 0)
(0.102752 0.0253497 0)
(0.0968018 0.0259629 0)
(0.100961 0.0435092 0)
(0.105608 0.0494788 0)
(0.0954501 0.0364469 0)
(0.0768934 0.0249678 0)
(0.0597385 0.0189103 0)
(0.0447154 0.0155754 0)
(0.0310835 0.0137086 0)
(0.0183085 0.0126998 0)
(0.00604006 0.0122022 0)
(0.0461851 -0.177686 0)
(0.106037 -0.111714 0)
(0.139802 -0.0564347 0)
(0.14369 -0.0235903 0)
(0.140831 0.00195704 0)
(0.131327 0.0174198 0)
(0.121161 0.0259633 0)
(0.111981 0.0272954 0)
(0.103315 0.0337191 0)
(0.102467 0.0456676 0)
(0.105861 0.0580636 0)
(0.102096 0.053902 0)
(0.0900236 0.0397221 0)
(0.0731229 0.028287 0)
(0.0576732 0.0220163 0)
(0.0435624 0.0184885 0)
(0.0304398 0.0164663 0)
(0.0179809 0.0153524 0)
(0.00593957 0.0147915 0)
(0.0943278 -0.278114 0)
(0.142294 -0.134935 0)
(0.159272 -0.0641323 0)
(0.156871 -0.0300794 0)
(0.150062 0.0107286 0)
(0.136592 0.0283545 0)
(0.122832 0.0386036 0)
(0.113922 0.0443997 0)
(0.110419 0.0517571 0)
(0.107008 0.0636448 0)
(0.104457 0.0617233 0)
(0.0978873 0.0573101 0)
(0.0844734 0.0415431 0)
(0.0693908 0.0308634 0)
(0.0555819 0.0247862 0)
(0.0423604 0.0212284 0)
(0.0297524 0.0191256 0)
(0.0176251 0.017941 0)
(0.00582946 0.0173308 0)
(0.240016 -0.311426 0)
(0.232218 -0.14743 0)
(0.181355 -0.0544153 0)
(0.174398 -0.00793868 0)
(0.164508 0.0224195 0)
(0.142109 0.0382661 0)
(0.127328 0.0491917 0)
(0.11713 0.0600029 0)
(0.111276 0.0642898 0)
(0.106638 0.0651367 0)
(0.103192 0.0636912 0)
(0.0935006 0.0580066 0)
(0.0787749 0.0419648 0)
(0.0660198 0.0328659 0)
(0.0535873 0.0272838 0)
(0.0411612 0.0238252 0)
(0.0290448 0.0217008 0)
(0.0172513 0.020473 0)
(0.0057127 0.019825 0)
(0.0228685 -0.105343 0)
(0.0685075 -0.107055 0)
(0.117174 -0.111135 0)
(0.165167 -0.110091 0)
(0.230293 -0.115966 0)
(0.242653 -0.149968 0)
(0.241537 -0.204312 0)
(0.27708 -0.226972 0)
(0.307321 -0.248622 0)
(0.328548 -0.276953 0)
(0.37689 -0.309969 0)
(0.41461 -0.414078 0)
(0.415653 -0.356965 0)
(0.487602 -0.366754 0)
(0.655334 -0.607365 0)
(1.8537 -1.62034 0)
(0.311261 0.338983 0)
(0.139818 0.58302 0)
(0.162363 0.597564 0)
(0.221463 0.637885 0)
(0.240983 0.676319 0)
(0.370083 0.756383 0)
(0.558676 0.904335 0)
(0.0218525 -0.126924 0)
(0.0651406 -0.128784 0)
(0.116804 -0.135994 0)
(0.164206 -0.150476 0)
(0.178677 -0.170216 0)
(0.194557 -0.218644 0)
(0.226941 -0.2289 0)
(0.252017 -0.253995 0)
(0.279494 -0.279428 0)
(0.297115 -0.30953 0)
(0.339376 -0.344114 0)
(0.361966 -0.443145 0)
(0.353175 -0.3587 0)
(0.37461 -0.370978 0)
(0.613312 -0.95189 0)
(0.358589 -0.220674 0)
(0.0839599 0.594891 0)
(0.0706936 0.576568 0)
(0.15464 0.601741 0)
(0.233702 0.594832 0)
(0.275094 0.589391 0)
(0.404911 0.642159 0)
(0.564361 0.635666 0)
(0.0207496 -0.155993 0)
(0.0584895 -0.160886 0)
(0.0936162 -0.170487 0)
(0.1274 -0.193827 0)
(0.156614 -0.220532 0)
(0.181474 -0.232784 0)
(0.20457 -0.252786 0)
(0.226286 -0.276885 0)
(0.250741 -0.302566 0)
(0.264882 -0.33247 0)
(0.301869 -0.367694 0)
(0.305937 -0.460032 0)
(0.302632 -0.376976 0)
(0.338605 -0.39925 0)
(1.09787 -2.289 0)
(0.0725328 0.0450284 0)
(0.211183 0.560968 0)
(0.0849823 0.544655 0)
(0.170473 0.582662 0)
(0.208082 0.588841 0)
(0.283728 0.586128 0)
(0.389845 0.576892 0)
(0.390072 0.497777 0)
(0.0166151 -0.193397 0)
(0.049301 -0.199411 0)
(0.0816081 -0.20812 0)
(0.112165 -0.22117 0)
(0.137917 -0.237315 0)
(0.160588 -0.255948 0)
(0.182541 -0.275669 0)
(0.202124 -0.297741 0)
(0.222987 -0.322293 0)
(0.23424 -0.350877 0)
(0.265734 -0.384711 0)
(0.258572 -0.471219 0)
(0.256267 -0.375549 0)
(0.283914 -0.406003 0)
(0.398932 -1.65597 0)
(-0.283844 0.565175 0)
(0.150007 0.545941 0)
(0.0631224 0.535498 0)
(0.182371 0.541965 0)
(0.233426 0.5168 0)
(0.264408 0.556015 0)
(0.307152 0.515315 0)
(0.329152 0.46066 0)
(0.0146826 -0.225037 0)
(0.043528 -0.228882 0)
(0.0713783 -0.236191 0)
(0.0976642 -0.247662 0)
(0.121495 -0.262192 0)
(0.142969 -0.277878 0)
(0.16261 -0.295523 0)
(0.179595 -0.315569 0)
(0.196881 -0.338281 0)
(0.205317 -0.365014 0)
(0.23122 -0.397233 0)
(0.216122 -0.479128 0)
(0.215083 -0.37561 0)
(0.242517 -0.417506 0)
(0.192989 -1.42597 0)
(-0.313775 0.486276 0)
(0.110324 0.459177 0)
(0.0632922 0.484808 0)
(0.123277 0.496919 0)
(0.212317 0.479932 0)
(0.286368 0.4908 0)
(0.286376 0.468197 0)
(0.305438 0.42871 0)
(0.0128094 -0.251985 0)
(0.0381312 -0.255493 0)
(0.0626984 -0.262011 0)
(0.0860272 -0.271523 0)
(0.107568 -0.283519 0)
(0.127146 -0.29737 0)
(0.144767 -0.312939 0)
(0.159308 -0.330326 0)
(0.172945 -0.350435 0)
(0.178206 -0.375079 0)
(0.197827 -0.405705 0)
(0.177724 -0.484388 0)
(0.17744 -0.374079 0)
(0.202259 -0.438405 0)
(0.113132 -1.00694 0)
(-0.202733 0.458815 0)
(0.09846 0.411387 0)
(0.0820383 0.43217 0)
(0.149122 0.475723 0)
(0.226889 0.524647 0)
(0.248751 0.492145 0)
(0.246348 0.458707 0)
(0.239892 0.436972 0)
(0.0112505 -0.275867 0)
(0.0335495 -0.27888 0)
(0.0552749 -0.28453 0)
(0.076063 -0.292711 0)
(0.0955638 -0.303027 0)
(0.113485 -0.314962 0)
(0.1296 -0.328265 0)
(0.142025 -0.342538 0)
(0.151622 -0.358695 0)
(0.152762 -0.380853 0)
(0.165001 -0.410114 0)
(0.141773 -0.486772 0)
(0.142307 -0.371075 0)
(0.177784 -0.489214 0)
(0.28382 -0.65935 0)
(-0.118769 0.525372 0)
(0.0509728 0.47881 0)
(0.110187 0.492513 0)
(0.187317 0.538543 0)
(0.222354 0.524749 0)
(0.215579 0.482757 0)
(0.232779 0.460212 0)
(0.184981 0.400561 0)
(0.00988314 -0.296863 0)
(0.0295305 -0.299563 0)
(0.048808 -0.304574 0)
(0.0674585 -0.311738 0)
(0.0852468 -0.320654 0)
(0.101853 -0.330802 0)
(0.117157 -0.341745 0)
(0.128668 -0.352689 0)
(0.134101 -0.363728 0)
(0.129217 -0.381714 0)
(0.131999 -0.409164 0)
(0.106731 -0.485899 0)
(0.10653 -0.364721 0)
(0.175486 -0.596709 0)
(0.458176 -0.229837 0)
(0.0347348 0.580345 0)
(0.0537866 0.54955 0)
(0.113603 0.570642 0)
(0.143177 0.568807 0)
(0.161839 0.510822 0)
(0.183396 0.461943 0)
(0.16448 0.426693 0)
(0.118614 0.338577 0)
(0.00864356 -0.315335 0)
(0.0259064 -0.317868 0)
(0.0430369 -0.322482 0)
(0.0599031 -0.328999 0)
(0.0764187 -0.336856 0)
(0.0923288 -0.345332 0)
(0.107776 -0.353613 0)
(0.120089 -0.358863 0)
(0.121946 -0.361491 0)
(0.109712 -0.37229 0)
(0.0979353 -0.400173 0)
(0.0694213 -0.484536 0)
(0.0657232 -0.358792 0)
(0.236862 -1.37171 0)
(0.201138 0.348412 0)
(0.113455 0.602887 0)
(0.0367626 0.517784 0)
(0.0908118 0.53419 0)
(0.0937517 0.520994 0)
(0.109954 0.477691 0)
(0.131647 0.431563 0)
(0.111889 0.373355 0)
(0.0828936 0.338837 0)
(0.0074443 -0.330522 0)
(0.0224392 -0.333166 0)
(0.0375815 -0.337883 0)
(0.0529647 -0.344513 0)
(0.0687895 -0.352279 0)
(0.0849861 -0.360019 0)
(0.103462 -0.366134 0)
(0.12045 -0.361753 0)
(0.1201 -0.349756 0)
(0.0929766 -0.359941 0)
(0.0538925 -0.396373 0)
(0.0217659 -0.493462 0)
(0.0202478 -0.353718 0)
(0.0660282 -1.09622 0)
(-0.120992 0.61975 0)
(0.0440504 0.56319 0)
(-0.00607234 0.471026 0)
(0.0538971 0.491698 0)
(0.0552945 0.485826 0)
(0.0681551 0.452514 0)
(0.0773125 0.413779 0)
(0.0710734 0.360518 0)
(0.0613481 0.33632 0)
(0.00606831 -0.344224 0)
(0.0185109 -0.347593 0)
(0.0314144 -0.35305 0)
(0.0451877 -0.359936 0)
(0.0606463 -0.368627 0)
(0.0782097 -0.378719 0)
(0.105508 -0.388772 0)
(0.135397 -0.387819 0)
(0.122872 -0.410195 0)
(0.063074 -0.44467 0)
(-0.00206318 -0.461667 0)
(-0.0140527 -0.510976 0)
(0.00823304 -0.348974 0)
(0.0311964 -0.891795 0)
(-0.135728 0.532559 0)
(0.0242582 0.494829 0)
(-0.0146459 0.432945 0)
(0.0238446 0.458519 0)
(0.0257112 0.460541 0)
(0.0355909 0.434578 0)
(0.0384037 0.409568 0)
(0.0338506 0.364492 0)
(0.0325098 0.332462 0)
(0.00405192 -0.363188 0)
(0.0133086 -0.366551 0)
(0.0244271 -0.371316 0)
(0.0363185 -0.377205 0)
(0.0492292 -0.386167 0)
(0.0641889 -0.400759 0)
(0.0935429 -0.421997 0)
(0.09425 -0.472856 0)
(0.0652194 -0.505946 0)
(0.0437498 -0.523792 0)
(0.0135482 -0.519112 0)
(0.00854487 -0.514594 0)
(0.0527297 -0.348634 0)
(0.0992622 -1.15641 0)
(-0.109932 0.499021 0)
(0.0228373 0.478943 0)
(-0.0238144 0.403316 0)
(0.00167946 0.434747 0)
(0.00660663 0.44122 0)
(0.0154765 0.420893 0)
(0.00610586 0.424381 0)
(-0.00616067 0.361646 0)
(0.000684675 0.324116 0)
(0.00289313 -0.378012 0)
(0.0106297 -0.378694 0)
(0.0209739 -0.381043 0)
(0.0303841 -0.386615 0)
(0.0367229 -0.395997 0)
(0.0413771 -0.41129 0)
(0.0333056 -0.439736 0)
(0.0533823 -0.503804 0)
(0.061069 -0.522778 0)
(0.0496722 -0.515534 0)
(0.0415852 -0.507915 0)
(0.0357971 -0.488186 0)
(0.0536897 -0.348077 0)
(0.0594882 -1.61921 0)
(-0.20626 0.458547 0)
(0.00352843 0.462824 0)
(-0.0402585 0.381175 0)
(-0.015659 0.420415 0)
(-0.0110348 0.426383 0)
(0.0169964 0.412783 0)
(-0.0216301 0.381855 0)
(-0.0681694 0.342694 0)
(-0.0351062 0.311379 0)
(0.00352869 -0.38475 0)
(0.0108556 -0.383465 0)
(0.0179138 -0.38434 0)
(0.0233052 -0.389314 0)
(0.0255395 -0.398077 0)
(0.0195947 -0.411792 0)
(-0.00394721 -0.4338 0)
(0.00592398 -0.454734 0)
(0.0586692 -0.535265 0)
(0.0615876 -0.506171 0)
(0.0715955 -0.493619 0)
(0.0447629 -0.494253 0)
(-0.0318103 -0.341425 0)
(-0.015588 -0.719502 0)
(-0.0948052 0.391261 0)
(0.0199675 0.421468 0)
(-0.0470716 0.372401 0)
(-0.028263 0.407508 0)
(-0.0232347 0.41974 0)
(-0.0297989 0.410388 0)
(-0.06371 0.32827 0)
(-0.0786383 0.313802 0)
(-0.0606635 0.292378 0)
(0.004509 -0.384292 0)
(0.0113167 -0.384376 0)
(0.0144736 -0.386877 0)
(0.0155503 -0.392148 0)
(0.0133442 -0.400253 0)
(0.00465144 -0.412461 0)
(-0.0125968 -0.421444 0)
(-0.0466415 -0.42218 0)
(0.00934329 -0.448206 0)
(0.0922041 -0.530579 0)
(0.0814321 -0.499424 0)
(0.056167 -0.526113 0)
(0.0102323 -0.343806 0)
(-0.0133248 -1.06387 0)
(-0.0364052 0.347042 0)
(0.0544026 0.463425 0)
(-0.0389661 0.389326 0)
(-0.0399724 0.408797 0)
(-0.0326882 0.420379 0)
(-0.0752065 0.353667 0)
(-0.118902 0.30837 0)
(-0.104811 0.292781 0)
(-0.0793662 0.279297 0)
(0.00331047 -0.391412 0)
(0.00790027 -0.394395 0)
(0.00959743 -0.398511 0)
(0.00929605 -0.403288 0)
(0.00469263 -0.408696 0)
(-0.00112382 -0.413733 0)
(-0.0108881 -0.413841 0)
(-0.023794 -0.407353 0)
(-0.0448465 -0.384665 0)
(0.0151534 -0.430356 0)
(0.105379 -0.521705 0)
(0.0724642 -0.532731 0)
(0.0702915 -0.378069 0)
(0.115992 -0.469918 0)
(-0.165914 -0.155074 0)
(0.0937309 0.467224 0)
(-0.0889743 0.473544 0)
(-0.0556177 0.414735 0)
(-0.0977157 0.361279 0)
(-0.145874 0.293752 0)
(-0.125784 0.282154 0)
(-0.106827 0.277399 0)
(-0.0873099 0.266823 0)
(0.00166686 -0.398697 0)
(0.00420959 -0.401627 0)
(0.00532076 -0.405416 0)
(0.00493575 -0.409557 0)
(0.00207402 -0.413231 0)
(-0.000879279 -0.413616 0)
(-0.00595709 -0.411333 0)
(-0.0142131 -0.40438 0)
(-0.0176447 -0.392217 0)
(-0.0405277 -0.36642 0)
(0.0241253 -0.407912 0)
(0.103068 -0.539512 0)
(0.0897452 -0.401227 0)
(0.181994 -0.415246 0)
(-0.0107937 0.10349 0)
(0.18133 0.471812 0)
(-0.110671 0.456241 0)
(-0.15934 0.353159 0)
(-0.177179 0.294719 0)
(-0.152336 0.285986 0)
(-0.13389 0.274083 0)
(-0.119508 0.260793 0)
(-0.104004 0.251466 0)
(0.000700549 -0.392055 0)
(0.00175441 -0.394078 0)
(0.00223246 -0.39705 0)
(0.00200278 -0.400317 0)
(0.000887081 -0.402966 0)
(-0.00027542 -0.40311 0)
(-0.00344954 -0.402681 0)
(-0.00795099 -0.396184 0)
(-0.0096691 -0.384599 0)
(-0.00648862 -0.371877 0)
(-0.0175695 -0.342317 0)
(0.031355 -0.449173 0)
(0.147779 -0.381892 0)
(0.196187 -0.388469 0)
(0.186505 -0.501342 0)
(-0.0443551 0.564484 0)
(-0.197853 0.401091 0)
(-0.202484 0.29015 0)
(-0.180915 0.292046 0)
(-0.165816 0.277926 0)
(-0.150518 0.269327 0)
(-0.129391 0.238873 0)
(-0.125641 0.216913 0)
(0.000365537 -0.421214 0)
(0.00081942 -0.423128 0)
(0.00109797 -0.426143 0)
(0.00105729 -0.42959 0)
(0.000587661 -0.43252 0)
(-0.000357971 -0.433721 0)
(-0.00146149 -0.434085 0)
(-0.00238657 -0.428208 0)
(-0.00274078 -0.419174 0)
(-0.00238407 -0.406724 0)
(0.00239273 -0.40172 0)
(-0.0178172 -0.333097 0)
(-0.0689341 -0.344727 0)
(-0.240742 -0.217314 0)
(-0.334997 0.34968 0)
(-0.461005 0.583538 0)
(-0.427411 0.407962 0)
(-0.26432 0.321496 0)
(-0.195421 0.281364 0)
(-0.174705 0.251128 0)
(-0.172557 0.23142 0)
(-0.173151 0.209315 0)
(-0.146336 0.186119 0)
(-0.000114179 -0.330387 0)
(-0.00057072 -0.331715 0)
(-0.00110143 -0.333813 0)
(-0.00183501 -0.336038 0)
(-0.00278722 -0.337671 0)
(-0.00388425 -0.337883 0)
(-0.00525563 -0.337047 0)
(-0.00676847 -0.331864 0)
(-0.00838314 -0.324114 0)
(-0.0120133 -0.318711 0)
(-0.0179456 -0.298652 0)
(-0.0381734 -0.298145 0)
(-0.0743358 -0.237182 0)
(-0.468378 -0.231396 0)
(-0.705516 0.273543 0)
(-0.505601 0.43008 0)
(-0.450884 0.349186 0)
(-0.321948 0.318913 0)
(-0.261496 0.261208 0)
(-0.220239 0.225408 0)
(-0.194434 0.191902 0)
(-0.175093 0.187874 0)
(-0.151918 0.180199 0)
(-0.00711556 -0.637654 0)
(-0.0219423 -0.642163 0)
(-0.0377712 -0.648913 0)
(-0.055246 -0.65753 0)
(-0.0744494 -0.666395 0)
(-0.0951352 -0.673879 0)
(-0.117783 -0.679446 0)
(-0.141872 -0.682688 0)
(-0.170949 -0.67357 0)
(-0.204032 -0.642741 0)
(-0.203585 -0.54801 0)
(-0.288523 -0.449854 0)
(-0.834691 -0.598815 0)
(-0.498881 0.0995638 0)
(-0.583497 0.292766 0)
(-0.568291 0.280234 0)
(-0.496532 0.279882 0)
(-0.364808 0.255125 0)
(-0.294181 0.229471 0)
(-0.245095 0.206711 0)
(-0.211291 0.187142 0)
(-0.18536 0.17785 0)
(-0.160427 0.168973 0)
(-0.0243995 -0.908692 0)
(-0.0734412 -0.911285 0)
(-0.123993 -0.910936 0)
(-0.17744 -0.909477 0)
(-0.234508 -0.905702 0)
(-0.295951 -0.898772 0)
(-0.362722 -0.888441 0)
(-0.430218 -0.87306 0)
(-0.525004 -0.851188 0)
(-0.613304 -0.842348 0)
(-0.536706 -0.694218 0)
(-0.455413 -0.239351 0)
(-0.539161 -0.00858663 0)
(-0.505563 0.033736 0)
(-0.519331 0.111465 0)
(-0.574524 0.187206 0)
(-0.470275 0.205475 0)
(-0.382932 0.192061 0)
(-0.31374 0.196314 0)
(-0.262958 0.182997 0)
(-0.22331 0.171193 0)
(-0.193343 0.163738 0)
(-0.167375 0.156395 0)
(-0.0238547 -0.494306 0)
(-0.0721707 -0.495501 0)
(-0.121954 -0.493584 0)
(-0.173941 -0.490211 0)
(-0.228997 -0.484605 0)
(-0.287726 -0.475931 0)
(-0.349881 -0.462472 0)
(-0.419576 -0.441952 0)
(-0.533875 -0.411266 0)
(-0.597785 -0.347616 0)
(-0.484124 -0.200502 0)
(-0.425652 -0.186928 0)
(-0.432706 -0.129032 0)
(-0.400673 -0.0267991 0)
(-0.374348 -0.00638804 0)
(-0.485038 0.149398 0)
(-0.512616 0.220204 0)
(-0.37832 0.199992 0)
(-0.307492 0.164456 0)
(-0.271236 0.150376 0)
(-0.230749 0.14644 0)
(-0.200196 0.145666 0)
(-0.173559 0.141498 0)
(-0.0219543 -0.589016 0)
(-0.0662357 -0.589774 0)
(-0.111531 -0.586856 0)
(-0.158351 -0.582003 0)
(-0.20719 -0.574516 0)
(-0.257963 -0.563569 0)
(-0.310839 -0.546332 0)
(-0.362859 -0.526306 0)
(-0.412725 -0.503915 0)
(-0.383337 -0.329202 0)
(-0.36343 -0.210706 0)
(-0.349078 -0.183789 0)
(-0.381666 -0.106696 0)
(-0.377617 -0.0443013 0)
(-0.33015 -0.00257915 0)
(-0.338567 0.0394961 0)
(-0.419692 0.200527 0)
(-0.446556 0.217731 0)
(-0.361496 0.19242 0)
(-0.27979 0.177437 0)
(-0.227783 0.153927 0)
(-0.199045 0.134734 0)
(-0.175982 0.126286 0)
(-0.0222941 -0.56087 0)
(-0.0672272 -0.560789 0)
(-0.112955 -0.556494 0)
(-0.159769 -0.549714 0)
(-0.208077 -0.539699 0)
(-0.25636 -0.524906 0)
(-0.311754 -0.508188 0)
(-0.371949 -0.494852 0)
(-0.325617 -0.385443 0)
(-0.288603 -0.286505 0)
(-0.32041 -0.224317 0)
(-0.319212 -0.17658 0)
(-0.327436 -0.134819 0)
(-0.316507 -0.0642092 0)
(-0.295473 -0.0329005 0)
(-0.261245 -0.000720087 0)
(-0.322476 0.0543352 0)
(-0.388335 0.173734 0)
(-0.348348 0.203983 0)
(-0.311714 0.207408 0)
(-0.275764 0.192594 0)
(-0.228158 0.173117 0)
(-0.18533 0.158496 0)
(-0.0213746 -0.507873 0)
(-0.064438 -0.507252 0)
(-0.108151 -0.50224 0)
(-0.152377 -0.494541 0)
(-0.196483 -0.482596 0)
(-0.246392 -0.468097 0)
(-0.301773 -0.456695 0)
(-0.270604 -0.365877 0)
(-0.24234 -0.275672 0)
(-0.267479 -0.252247 0)
(-0.273826 -0.205199 0)
(-0.278654 -0.165304 0)
(-0.283278 -0.125053 0)
(-0.279603 -0.0816754 0)
(-0.261986 -0.050781 0)
(-0.243961 -0.0170705 0)
(-0.226862 -0.0120189 0)
(-0.293097 0.092224 0)
(-0.334178 0.160268 0)
(-0.292636 0.16858 0)
(-0.262176 0.185086 0)
(-0.232431 0.19321 0)
(-0.205718 0.190837 0)
(-0.0200483 -0.468899 0)
(-0.0604518 -0.467796 0)
(-0.101442 -0.462221 0)
(-0.141837 -0.454753 0)
(-0.184913 -0.44454 0)
(-0.234355 -0.425866 0)
(-0.217531 -0.358761 0)
(-0.197661 -0.283525 0)
(-0.218214 -0.263785 0)
(-0.228141 -0.228809 0)
(-0.236304 -0.194139 0)
(-0.240807 -0.159241 0)
(-0.243698 -0.124421 0)
(-0.241457 -0.0876112 0)
(-0.230925 -0.0552002 0)
(-0.218361 -0.033587 0)
(-0.208013 -0.00629178 0)
(-0.208586 0.0113686 0)
(-0.266777 0.111438 0)
(-0.289795 0.13323 0)
(-0.249661 0.146487 0)
(-0.22311 0.158781 0)
(-0.19825 0.166662 0)
(-0.0185239 -0.429419 0)
(-0.0559858 -0.427849 0)
(-0.0950475 -0.422757 0)
(-0.135023 -0.419804 0)
(-0.168651 -0.388704 0)
(-0.163914 -0.344238 0)
(-0.161505 -0.28464 0)
(-0.178479 -0.267714 0)
(-0.188285 -0.240059 0)
(-0.197461 -0.21223 0)
(-0.203959 -0.182393 0)
(-0.208535 -0.152362 0)
(-0.211066 -0.122512 0)
(-0.210048 -0.092132 0)
(-0.207254 -0.0642268 0)
(-0.194262 -0.0442332 0)
(-0.18164 -0.0195564 0)
(-0.167051 -0.00110782 0)
(-0.208191 0.0303746 0)
(-0.254918 0.107989 0)
(-0.238607 0.122265 0)
(-0.213 0.133415 0)
(-0.191408 0.141775 0)
(-0.0168798 -0.39541 0)
(-0.0522436 -0.392314 0)
(-0.0938599 -0.38034 0)
(-0.108666 -0.359016 0)
(-0.111497 -0.325461 0)
(-0.130958 -0.286711 0)
(-0.143432 -0.270406 0)
(-0.153313 -0.246649 0)
(-0.16257 -0.222924 0)
(-0.170257 -0.197851 0)
(-0.176124 -0.172031 0)
(-0.180578 -0.145952 0)
(-0.182994 -0.119795 0)
(-0.183085 -0.0935693 0)
(-0.182482 -0.0691217 0)
(-0.173191 -0.0460859 0)
(-0.163937 -0.0317486 0)
(-0.157656 -0.0123391 0)
(-0.151236 -0.00500723 0)
(-0.195446 0.0593315 0)
(-0.225239 0.104215 0)
(-0.203063 0.113192 0)
(-0.183308 0.122894 0)
(-0.0140878 -0.353426 0)
(-0.0398543 -0.34787 0)
(-0.062574 -0.332184 0)
(-0.0814125 -0.302874 0)
(-0.0968871 -0.288622 0)
(-0.110159 -0.270002 0)
(-0.120975 -0.249226 0)
(-0.130862 -0.228522 0)
(-0.139302 -0.207048 0)
(-0.146329 -0.184933 0)
(-0.151782 -0.162281 0)
(-0.156008 -0.139496 0)
(-0.158358 -0.116346 0)
(-0.159333 -0.0935539 0)
(-0.159368 -0.0718559 0)
(-0.156401 -0.0508243 0)
(-0.147528 -0.0374511 0)
(-0.139353 -0.0185917 0)
(-0.13469 -0.00453975 0)
(-0.143254 0.0110158 0)
(-0.182161 0.0733955 0)
(-0.195255 0.0955808 0)
(-0.174043 0.105093 0)
(-0.0101459 -0.306689 0)
(-0.0301641 -0.301964 0)
(-0.0492332 -0.292123 0)
(-0.0654509 -0.278487 0)
(-0.0790375 -0.263624 0)
(-0.0912765 -0.246751 0)
(-0.101842 -0.229478 0)
(-0.110972 -0.211332 0)
(-0.11878 -0.19249 0)
(-0.125262 -0.17303 0)
(-0.130438 -0.15312 0)
(-0.134399 -0.133082 0)
(-0.136829 -0.112618 0)
(-0.138564 -0.092539 0)
(-0.139486 -0.0731126 0)
(-0.138404 -0.0547582 0)
(-0.131366 -0.0373862 0)
(-0.124304 -0.0251528 0)
(-0.121015 -0.0104153 0)
(-0.114865 0.00137407 0)
(-0.139606 0.0277416 0)
(-0.170244 0.0769094 0)
(-0.165281 0.0906374 0)
(-0.00813919 -0.271095 0)
(-0.0240953 -0.268591 0)
(-0.039188 -0.261464 0)
(-0.0528713 -0.251154 0)
(-0.0650507 -0.239296 0)
(-0.0758923 -0.225846 0)
(-0.0854092 -0.211181 0)
(-0.0937003 -0.195553 0)
(-0.100807 -0.17912 0)
(-0.106749 -0.162042 0)
(-0.111613 -0.144496 0)
(-0.115304 -0.126718 0)
(-0.117688 -0.108644 0)
(-0.119824 -0.0905742 0)
(-0.121365 -0.0732168 0)
(-0.120375 -0.05671 0)
(-0.117584 -0.0402951 0)
(-0.112111 -0.0309091 0)
(-0.107722 -0.0153045 0)
(-0.104552 -0.00344116 0)
(-0.104502 0.00658475 0)
(-0.131349 0.0452769 0)
(-0.152211 0.0775073 0)
(-0.00652873 -0.243113 0)
(-0.0194075 -0.241292 0)
(-0.0317445 -0.23582 0)
(-0.0431952 -0.22802 0)
(-0.0536256 -0.218408 0)
(-0.0630328 -0.207244 0)
(-0.0714013 -0.194824 0)
(-0.0787478 -0.181357 0)
(-0.0850912 -0.167026 0)
(-0.0904492 -0.151999 0)
(-0.094919 -0.13645 0)
(-0.0983721 -0.120547 0)
(-0.10061 -0.104474 0)
(-0.103137 -0.0880641 0)
(-0.10542 -0.0727059 0)
(-0.105274 -0.0577592 0)
(-0.105297 -0.0434375 0)
(-0.0991024 -0.0308448 0)
(-0.0932756 -0.0185341 0)
(-0.0925209 -0.00628633 0)
(-0.0900752 0.00497474 0)
(-0.0981767 0.0199224 0)
(-0.124788 0.0582277 0)
(-0.00529028 -0.220419 0)
(-0.0157576 -0.219128 0)
(-0.0258639 -0.214772 0)
(-0.0353783 -0.208487 0)
(-0.0441747 -0.200544 0)
(-0.0521907 -0.19116 0)
(-0.0593888 -0.180541 0)
(-0.0657552 -0.168869 0)
(-0.0712901 -0.156305 0)
(-0.0760057 -0.142998 0)
(-0.0799891 -0.129096 0)
(-0.0831724 -0.11472 0)
(-0.085154 -0.100172 0)
(-0.0880755 -0.0850006 0)
(-0.0908996 -0.0714886 0)
(-0.0909334 -0.0578333 0)
(-0.090437 -0.0445069 0)
(-0.0869664 -0.030503 0)
(-0.0829555 -0.0226041 0)
(-0.0807754 -0.00950018 0)
(-0.0778319 0.00185346 0)
(-0.0771077 0.0136483 0)
(-0.0998327 0.0356988 0)
(-0.00428969 -0.20199 0)
(-0.012796 -0.201038 0)
(-0.0210552 -0.19745 0)
(-0.0288959 -0.192229 0)
(-0.0362103 -0.185531 0)
(-0.0429257 -0.177516 0)
(-0.0489928 -0.168337 0)
(-0.0543822 -0.158138 0)
(-0.0590805 -0.147047 0)
(-0.0630919 -0.135178 0)
(-0.0664885 -0.122631 0)
(-0.0693082 -0.109463 0)
(-0.0708461 -0.0959457 0)
(-0.0744837 -0.0812532 0)
(-0.0781136 -0.0700015 0)
(-0.0781353 -0.0578156 0)
(-0.0777856 -0.0457319 0)
(-0.0769779 -0.0336022 0)
(-0.0721219 -0.0244564 0)
(-0.0678654 -0.012339 0)
(-0.0666343 -0.00170634 0)
(-0.0638566 0.00841985 0)
(-0.0782696 0.0208221 0)
(-0.00345707 -0.187057 0)
(-0.0103224 -0.186338 0)
(-0.0170128 -0.183303 0)
(-0.0233968 -0.178857 0)
(-0.0293846 -0.173103 0)
(-0.0349063 -0.166158 0)
(-0.0399085 -0.158139 0)
(-0.0443517 -0.149157 0)
(-0.0482072 -0.139315 0)
(-0.0514582 -0.128696 0)
(-0.0541381 -0.117344 0)
(-0.0563595 -0.105213 0)
(-0.0568864 -0.0923004 0)
(-0.0621687 -0.0768873 0)
(-0.0673527 -0.0686474 0)
(-0.0665373 -0.0577512 0)
(-0.066083 -0.0464442 0)
(-0.0655063 -0.0350665 0)
(-0.0615231 -0.0234574 0)
(-0.0578602 -0.0144549 0)
(-0.056876 -0.00484763 0)
(-0.0542307 0.00421335 0)
(-0.0599579 0.0132203 0)
(-0.00274534 -0.175085 0)
(-0.00820352 -0.174531 0)
(-0.013537 -0.171902 0)
(-0.0186422 -0.168037 0)
(-0.0234446 -0.16301 0)
(-0.0278817 -0.156908 0)
(-0.0319016 -0.149826 0)
(-0.0354591 -0.14186 0)
(-0.0385103 -0.133102 0)
(-0.0410042 -0.123638 0)
(-0.0428846 -0.113532 0)
(-0.0441492 -0.102783 0)
(-0.0424007 -0.0913475 0)
(-0.0508652 -0.0784758 0)
(-0.058905 -0.0689622 0)
(-0.0558297 -0.058308 0)
(-0.0549715 -0.0473465 0)
(-0.0538373 -0.0365186 0)
(-0.0513282 -0.0252656 0)
(-0.0491293 -0.0167574 0)
(-0.0478173 -0.00758597 0)
(-0.0455569 0.00106644 0)
(-0.0469018 0.00937318 0)
(-0.00212193 -0.165639 0)
(-0.006346 -0.16521 0)
(-0.0104859 -0.162891 0)
(-0.0144578 -0.159469 0)
(-0.0181972 -0.155003 0)
(-0.021653 -0.149564 0)
(-0.0247806 -0.143232 0)
(-0.0275392 -0.136097 0)
(-0.029889 -0.128253 0)
(-0.031785 -0.11981 0)
(-0.033175 -0.110903 0)
(-0.0340692 -0.101724 0)
(-0.0324336 -0.0925753 0)
(-0.0398145 -0.085702 0)
(-0.0470899 -0.0705442 0)
(-0.0448263 -0.059218 0)
(-0.0441783 -0.0483261 0)
(-0.0433041 -0.0379481 0)
(-0.0416086 -0.027915 0)
(-0.0400861 -0.0190533 0)
(-0.0389285 -0.0101462 0)
(-0.0371028 -0.001626 0)
(-0.0368721 0.00659408 0)
(-0.00156954 -0.158 0)
(-0.00469593 -0.15768 0)
(-0.00776576 -0.155627 0)
(-0.0107116 -0.152562 0)
(-0.0134852 -0.148543 0)
(-0.016047 -0.143636 0)
(-0.0183622 -0.137913 0)
(-0.0204003 -0.131457 0)
(-0.0221371 -0.124358 0)
(-0.0235625 -0.116718 0)
(-0.0247038 -0.10866 0)
(-0.0257335 -0.100354 0)
(-0.026296 -0.0920146 0)
(-0.0288315 -0.0858563 0)
(-0.0322821 -0.0702514 0)
(-0.0335163 -0.0591952 0)
(-0.0335954 -0.0487367 0)