/*--------------------------------*- C++ -*----------------------------------*\
| =========                 |                                                 |
| \\      /  F ield         | foam-extend: Open Source CFD                    |
|  \\    /   O peration     | Version:     4.1                                |
|   \\  /    A nd           | Web:         http://www.foam-extend.org         |
|    \\/     M anipulation  |                                                 |
\*---------------------------------------------------------------------------*/
FoamFile
{
    version     2.0;
    format      ascii;
    class       regIOobject;
    location    "0.25/uniform";
    object      profilingInfo;
}
// * * * * * * * * * * * * * * * * * * * * * * * * * * * * * * * * * * * * * //

profilingInfo
(

    {
        id              11;
        parentId        9;
        description     "Foam::Time::writeObject - outputTime";
        calls           5;
        totalTime       0.062758;
        childTime       0;
        onStack         1;
    }

    {
        id              9;
        parentId        1;
        description     "Foam::Time::writeObject";
        calls           181;
        totalTime       0.062953;
        childTime       0.062758;
        onStack         1;
    }

    {
        id              1;
        description     "application::main";
        calls           1;
        totalTime       10.2628;
        childTime       9.53257;
        onStack         1;
    }

    {
        id              10;
        parentId        1;
        description     "FO::DataSummary::execute";
        calls           180;
        totalTime       0.009523;
        childTime       0;
        onStack         0;
    }

    {
        id              5;
        parentId        1;
        description     "MULES::explicitSolve";
        calls           362;
        totalTime       0.054683;
        childTime       0;
        onStack         0;
    }

    {
        id              4;
        parentId        1;
        description     "functionObjectList::read";
        calls           1;
        totalTime       8.69895;
        childTime       0;
        onStack         0;
    }

    {
        id              2;
        parentId        1;
        description     "fvMatrix::solve_pcorr";
        calls           1;
        totalTime       0.000119;
        childTime       5.7e-05;
        onStack         0;
    }

    {
        id              6;
        parentId        1;
        description     "fvMatrix::solve_pd";
        calls           724;
        totalTime       0.706343;
        childTime       0.68067;
        onStack         0;
    }

    {
        id              8;
        parentId        7;
        description     "lduMatrix::solver_coarsestLevelCorr";
        calls           2760;
        totalTime       0.018647;
        childTime       0;
        onStack         0;
    }

    {
        id              3;
        parentId        2;
        description     "lduMatrix::solver_pcorr";
        calls           1;
        totalTime       5.7e-05;
        childTime       0;
        onStack         0;
    }

    {
        id              7;
        parentId        6;
        description     "lduMatrix::solver_pd";
        calls           724;
        totalTime       0.68067;
        childTime       0.018647;
        onStack         0;
    }
);


// ************************************************************************* //
