/*--------------------------------*- C++ -*----------------------------------*\
| =========                 |                                                 |
| \\      /  F ield         | foam-extend: Open Source CFD                    |
|  \\    /   O peration     | Version:     4.1                                |
|   \\  /    A nd           | Web:         http://www.foam-extend.org         |
|    \\/     M anipulation  |                                                 |
\*---------------------------------------------------------------------------*/
FoamFile
{
    version     2.0;
    format      ascii;
    class       volScalarField;
    location    "0.35";
    object      p;
}
// * * * * * * * * * * * * * * * * * * * * * * * * * * * * * * * * * * * * * //

dimensions      [1 -1 -2 0 0 0 0];

internalField   nonuniform List<scalar> 
2268
(
886.344
886.705
886.698
879.336
881.109
868.136
872.139
864.868
853.148
878.777
842.586
971.61
897.247
926.028
933.013
958.815
988.687
1019.84
1051.22
1084.09
1141.9
1182.77
1217.05
827.196
827.505
827.312
820.286
821.776
809.201
812.481
805.359
796.496
827.601
764.464
901.215
838.965
865.369
872.946
898.382
927.173
963.134
992.597
1018.73
1082.09
1119.58
1157.87
767.724
767.955
767.718
761.074
762.345
748.983
753.436
744.177
730.19
748.373
754.277
805.684
774.886
800.609
811.382
837.502
865.393
896.111
930.097
958.879
1015.67
1051.54
1085.16
708.023
708.081
707.358
701.75
701.966
690.346
691.78
682.775
677.592
722.411
677.487
730.156
712.58
735.386
747.598
771.374
805.737
833.531
869.225
892.274
949.374
983.255
1010.27
647.961
647.921
647.113
641.971
641.581
628.151
633.566
627.184
600.739
647.926
627.601
659.086
649.064
671.34
686.913
710.816
742.009
768.09
809.565
831.899
881.008
908.236
933.127
587.763
587.436
585.773
581.393
579.886
570.575
564.145
555.675
571.124
577.368
563.234
586.131
584.471
604.309
623.076
646.362
678.417
705.738
744.693
765.748
817.575
841.432
841.445
527.107
526.768
525.014
522.081
519.716
503.97
519.799
484.032
512.857
506.293
504.515
514.549
519.011
536.957
559.066
583.779
617.952
630.745
697.179
695.085
758.763
760.055
749.464
466.437
465.736
462.898
457.527
455.24
453.592
438.077
438.013
444.09
440.153
438.467
443.987
450.104
469.681
491.479
521.442
551.019
572.691
616.736
630.607
693.743
653.53
670.247
603.69
592.13
560.255
534.733
524.817
525.007
526.475
526.001
525.866
525.756
525.88
526.166
526.561
528.096
528.752
529.566
530.374
530.729
530.954
603.404
579.236
536.473
525.741
519.614
523.265
525.593
525.585
525.618
525.628
525.756
526.044
526.314
528.067
528.625
529.492
530.387
530.678
530.91
593.702
563.093
527.073
522.329
521.188
523.121
524.416
525.191
525.228
525.303
525.536
525.959
526.133
527.821
528.462
529.607
530.354
530.683
530.902
575.107
535.481
523.401
522.396
521.72
522.881
524.34
524.92
524.926
524.913
525.316
525.859
525.578
527.759
528.556
529.591
530.286
530.617
530.897
537.324
522.961
523.039
522.433
521.84
523.021
523.967
524.774
524.296
524.375
525.128
525.699
525.646
527.229
528.494
529.516
530.326
530.66
530.915
517.517
522.295
522.918
522.464
521.4
522.987
523.512
524.561
523.901
524.833
524.549
525.488
525.013
526.843
528.551
529.565
530.275
530.702
530.951
517.904
522.521
523.227
523.243
521.645
522.362
523.036
524.349
523.701
524.648
524.164
524.907
524.522
526.587
528.238
529.822
530.323
530.755
530.987
525.257
523.167
523.602
523.46
522.093
522.062
522.896
523.983
523.345
524.172
523.733
524.876
524.105
525.959
528.443
530.006
530.356
530.8
531.076
370.534
369.948
364.522
373.593
363.973
327.102
365.009
328.559
345.308
329.661
334.128
330.812
341.554
357.168
384.642
410.672
463.977
471.438
549.017
489.194
631.741
438.239
571.184
240.294
238.204
235.668
218.835
234.17
217.723
218.072
207.637
197.685
189.556
182.289
181.114
186.851
209.089
243.994
271.62
310.376
316.201
438.63
287.319
380.73
348.18
409.241
114.116
110.45
110.123
99.7001
104.602
93.9997
92.4608
81.1154
68.0738
52.5952
43.9148
37.6295
40.7293
53.8783
78.6723
124.211
175.783
199.221
247.641
186.715
284.999
183.884
381.11
26.3396
24.7187
25.3788
21.6703
23.4257
19.7602
18.2858
14.2333
8.81047
5.70864
4.11598
3.35825
4.02184
5.79646
10.299
25.2881
50.0099
66.398
66.1703
111.899
109.966
152.568
128.626
2.34226
2.30002
2.30469
2.10405
2.24025
2.04132
1.94717
1.78484
1.82754
1.85756
1.85448
1.88061
1.89475
2.20992
2.39338
2.98391
4.12082
15.415
11.1531
23.0087
13.6448
46.6092
76.8435
1.27928
1.28879
1.30147
1.31694
1.3235
1.33468
1.36827
1.40164
1.44555
1.49885
1.53121
1.62091
1.66945
1.72458
1.77101
1.7075
1.76527
1.64198
2.39419
3.92803
5.52647
8.59393
5.26196
1.12375
1.13125
1.13855
1.14833
1.16157
1.17783
1.20617
1.23962
1.31931
1.37829
1.45596
1.51025
1.58434
1.57656
1.60864
1.57585
1.55503
1.71039
1.78716
2.08122
2.18455
1.98951
1.9378
0.975422
0.980551
0.988641
0.99883
1.01482
1.02836
1.05142
1.08263
1.09153
1.15526
1.13542
1.22887
1.26146
1.36257
1.36414
1.39064
1.41552
1.43099
1.43091
1.53029
1.67178
1.49855
1.88591
0.827368
0.829355
0.839655
0.844268
0.862386
0.87275
0.898463
0.925133
0.988262
0.964489
1.08388
1.06907
1.12137
1.12776
1.19009
1.15715
1.23291
1.31862
1.4061
1.56583
1.67445
1.26535
0.874571
0.674384
0.67357
0.683707
0.690895
0.698487
0.716256
0.739433
0.761162
0.785564
0.832034
0.831645
0.879028
0.902985
0.961904
0.928882
1.02697
0.981768
1.0718
1.09277
1.30094
1.21116
1.17508
1.31954
0.51263
0.498597
0.53569
0.521623
0.529618
0.52358
0.562585
0.632428
0.621704
0.689286
0.683251
0.742243
0.7153
0.786696
0.865922
0.795953
0.852664
0.828107
1.01299
0.922713
1.09153
0.723869
0.44707
0.340944
0.352381
0.355978
0.36991
0.32825
0.392613
0.397585
0.39771
0.452599
0.465453
0.566278
0.4981
0.635097
0.466546
0.618155
0.550393
0.628451
0.769239
0.819605
0.914282
0.724413
0.746957
0.62489
0.180776
0.193601
0.172962
0.177103
0.187174
0.20229
0.210676
0.224547
0.204243
0.183858
0.178317
0.332713
0.346585
0.320443
0.350523
0.53557
0.355864
0.221767
0.473345
0.246376
0.644113
0.69242
0.622191
0.0155165
0.0295433
-0.00515278
0.0422791
-0.0233896
0.0638964
-0.0161235
0.0301299
-0.0244904
0.0694036
0.137124
0.142421
0.222789
0.13947
0.256479
0.136176
0.391016
0.262004
0.46899
-0.0258681
-0.153168
0.439621
0.283438
-0.178092
-0.164034
-0.185559
-0.154644
-0.159849
-0.1272
-0.157814
-0.102784
-0.164893
-0.146424
-0.454722
-0.159538
-0.0574328
0.0599937
-0.229089
-0.190066
-0.229799
-0.00407436
-0.0171855
0.135019
-0.370473
0.0286496
-0.133274
-0.31496
-0.297219
-0.31967
-0.328772
-0.33977
-0.310779
-0.32117
-0.323948
-0.300173
-0.173815
-0.202077
-0.385417
-0.262986
-0.391864
-0.363712
-0.194513
-0.523441
-0.338638
-0.282029
-0.29983
-0.519595
-0.409967
-0.273964
-0.607497
-0.563509
-0.57476
-0.558688
-0.524769
-0.564393
-0.540883
-0.523651
-0.526548
-0.567792
-0.525764
-0.533834
-0.481517
-0.500767
-0.364786
-0.521092
-0.492022
-0.787778
-0.700666
-0.706372
-0.838575
-0.756285
-0.906159
-0.464385
-0.493544
-0.645454
-0.477101
-0.693877
-0.476286
-0.608329
-0.680092
-0.72836
-0.787022
-0.625228
-0.728495
-0.698586
-0.744786
-0.601484
-0.644445
-0.370336
-0.73294
-0.591142
-1.31449
-1.39001
-0.916231
-1.34725
-1.12435
-1.16024
-0.73459
-1.16825
-0.985969
-1.1567
-1.01343
-0.805638
-0.907116
-1.00858
-1.07186
-1.01163
-1.08702
-0.799905
-0.915722
-0.777041
-1.01802
-1.00562
-1.20619
-1.12396
-1.81702
-2.22518
-1.31226
-1.33273
-1.35615
-1.54316
-1.37429
-1.33974
-1.33798
-1.28139
-1.42013
-1.18262
-1.18041
-1.13286
-1.06182
-1.05509
-1.24103
-1.66512
-1.31633
-1.28943
-1.30189
-1.09239
-1.61375
-1.92611
-2.30098
-2.84388
-1.58197
-1.56796
-1.58623
-1.54767
-1.53002
-1.50777
-1.52292
-1.70795
-1.44993
-1.36077
-1.45533
-1.53053
-1.66836
-1.46292
-1.48924
-1.54998
-1.65863
-1.65108
-1.44518
-1.84144
-2.22888
-2.49783
-2.98108
-1.76144
-1.79342
-1.82444
-1.81
-1.99968
-1.80098
-1.95465
-1.69835
-1.70986
-1.98859
-1.64543
-1.77206
-1.78263
-1.84074
-1.86277
-1.90148
-1.6907
-1.69008
-1.88539
-1.55323
-2.57763
-3.00843
-4.44588
-2.17394
-2.07231
-1.94301
-2.19567
-1.75125
-2.10706
-1.73742
-1.79273
-1.95322
-1.92613
-2.0112
-1.94064
-2.06896
-2.21954
-2.23399
-2.41409
-2.10011
-2.49901
-2.96552
-2.73039
-2.93671
-3.23414
-3.74748
-1.97385
-2.2307
-2.24953
-1.87441
-1.9506
-1.8372
-1.87736
-1.86466
-1.7835
-1.9942
-2.07082
-2.12785
-2.12721
-2.25492
-1.92322
-2.30017
-2.50657
-2.47037
-2.67211
-2.84794
-2.84935
-3.06638
-3.12444
-2.11467
-1.97746
-1.95435
-2.18961
-2.1805
-2.14926
-2.11949
-2.393
-2.53548
-2.42086
-2.45535
-2.45608
-2.57301
-2.76738
-2.74657
-2.58927
-2.75442
-2.72681
-2.86342
-2.98149
-3.1489
-4.32718
-5.8197
-2.26612
-2.30433
-2.2593
-2.1997
-2.04819
-2.12495
-2.63524
-2.51531
-2.56622
-2.56599
-2.56127
-2.57598
-2.59513
-2.34733
-2.79302
-2.50589
-3.62218
-3.00515
-3.35038
-3.74394
-4.64173
-4.43541
-5.43644
-2.55379
-2.34254
-2.37565
-2.79586
-2.89906
-3.00228
-2.9336
-2.87392
-2.86636
-2.85623
-2.85777
-2.86615
-2.87339
-2.87953
-2.90574
-2.97751
-3.24803
-3.3061
-3.60291
-3.74807
-3.83246
-3.87496
-4.76513
-3.13163
-3.3102
-3.29468
-3.14012
-3.06136
-3.05836
-3.04555
-3.04367
-3.04356
-3.04255
-3.03506
-3.05358
-3.04239
-3.0668
-3.09838
-3.27393
-3.69149
-3.26577
-3.92332
-4.00308
-4.35549
-5.61848
-5.28566
-3.23423
-3.25412
-3.25278
-3.28897
-3.31229
-3.29849
-3.30476
-3.30039
-3.30739
-3.29952
-3.30151
-3.2887
-3.30675
-3.30412
-3.24749
-3.76741
-2.94255
-4.44894
-2.91697
-3.81609
-4.55313
-4.9357
-5.21048
-3.54683
-3.56306
-3.55892
-3.54182
-3.51044
-3.51593
-3.50218
-3.50212
-3.49526
-3.49906
-3.47591
-3.45394
-3.39451
-3.16609
-3.45484
-3.82547
-3.57295
-4.60429
-3.05644
-4.77563
-3.7294
-4.57353
-5.36107
-3.72642
-3.73254
-3.73206
-3.75018
-3.72508
-3.73249
-3.72691
-3.72587
-3.72873
-3.72651
-3.72283
-3.81521
-3.78308
-4.20136
-3.89684
-3.84629
-3.81834
-3.60446
-4.44236
-4.38494
-4.66964
-3.81538
-4.67494
-3.96932
-3.97566
-3.97194
-3.95726
-3.95422
-3.94943
-3.94112
-3.93717
-3.92681
-3.92923
-3.94672
-3.92593
-3.96176
-3.96258
-3.97081
-4.03514
-3.96416
-4.0804
-4.42717
-4.66982
-4.43999
-4.52931
-4.64194
-4.19169
-4.19646
-4.19101
-4.18443
-4.18194
-4.18204
-4.17239
-4.17028
-4.15805
-4.16346
-4.15511
-4.17119
-4.15014
-4.21873
-4.15747
-4.19548
-4.11019
-4.37458
-4.24305
-3.71754
-3.6622
-4.51241
-4.41922
-4.40129
-4.4153
-4.40219
-4.39715
-4.39624
-4.39449
-4.37758
-4.37057
-4.35816
-4.35935
-4.35208
-4.35928
-4.34452
-4.36806
-4.34091
-4.33211
-4.36753
-4.32075
-3.9531
-4.46843
-4.39265
-4.44686
-4.2789
-4.58526
-4.5893
-4.58397
-4.5853
-4.58532
-4.58761
-4.57396
-4.56853
-4.56065
-4.5603
-4.54979
-4.5543
-4.53265
-4.54287
-4.51806
-4.5082
-4.4821
-4.43975
-4.34977
-4.21886
-4.58914
-4.24938
-4.34759
-4.78047
-4.76415
-4.77544
-4.77185
-4.76836
-4.7695
-4.77216
-4.77795
-4.76857
-4.76385
-4.75173
-4.75006
-4.72757
-4.72391
-4.6911
-4.64863
-4.63015
-4.59352
-4.5127
-4.61951
-4.6451
-4.21799
-3.98535
-4.97966
-4.9658
-4.97561
-4.97389
-4.97057
-4.96874
-4.97597
-4.98456
-4.97177
-4.97186
-4.95717
-4.95499
-4.92431
-4.93136
-4.88396
-4.84327
-4.8217
-4.77213
-4.77035
-4.84935
-4.66134
-4.49917
-4.38382
-5.19521
-5.19053
-5.19321
-5.19473
-5.19272
-5.1912
-5.19081
-5.19523
-5.18593
-5.18902
-5.1721
-5.16098
-5.13556
-5.10019
-5.0565
-4.99628
-4.97288
-4.91386
-4.94326
-4.81611
-4.64261
-4.72867
-4.50538
-5.43356
-5.43296
-5.4333
-5.43443
-5.43406
-5.43395
-5.43489
-5.42961
-5.43134
-5.42692
-5.40696
-5.39075
-5.34855
-5.35354
-5.25086
-5.17004
-5.18124
-5.11194
-5.11102
-5.07383
-5.0514
-5.05043
-4.88067
-5.61108
-5.61146
-5.61181
-5.61188
-5.61055
-5.6104
-5.60912
-5.60638
-5.60351
-5.59897
-5.59
-5.57373
-5.5731
-5.52662
-5.49355
-5.39432
-5.36674
-5.33719
-5.30451
-5.24991
-5.18345
-5.11861
-5.11795
-6.01891
-6.01991
-6.02009
-6.02031
-6.02042
-6.02041
-6.02066
-6.02012
-6.02269
-6.02079
-6.00699
-5.99055
-5.92225
-5.79759
-5.60592
-5.42508
-5.36606
-5.37667
-5.36369
-5.44775
-5.51905
-5.54017
-5.30026
-5.66333
-5.6637
-5.66379
-5.66395
-5.66401
-5.66438
-5.66486
-5.66661
-5.66939
-5.67852
-5.69194
-5.73252
-5.79211
-5.98825
-6.18919
-6.29262
-6.2268
-6.20674
-6.09569
-6.06908
-5.78647
-5.73552
-5.66012
409.277
307.358
483.151
516.373
300.032
386.064
501.015
424.897
341.84
341.879
318.583
415.357
267.274
250.648
276.664
338.577
84.9269
83.9428
97.6043
90.603
15.4874
18.0676
22.0576
21.5909
2.8672
2.01576
2.00321
2.08365
1.2241
1.74256
1.54117
1.69645
1.60252
1.54213
1.42806
1.34795
1.38182
1.31671
1.29428
1.21623
1.13163
1.0791
1.07335
1.08804
0.706341
0.633929
0.673552
0.58108
0.234706
0.420742
0.23986
0.223451
0.0871413
0.155016
0.161685
0.0931977
-0.191513
-0.158792
0.0391105
0.173757
-0.400684
-0.828471
-0.281243
-0.386137
-0.195587
-0.352921
-0.382818
-0.928345
-0.515677
-0.614945
-0.715674
-0.76047
-1.32137
-1.4155
-1.46097
-1.65729
-2.27745
-2.55175
-3.00784
-3.58358
-4.0927
-4.23766
-5.15794
-5.13705
-4.50805
-4.80071
-5.29692
-5.52592
-4.1902
-4.59661
-5.14512
-6.21909
-4.26466
-5.07305
-6.2913
-7.57415
-6.13001
-5.40919
-5.97146
-7.47447
-6.20363
-6.78876
-7.61554
-7.63191
-5.85084
-6.31403
-6.64405
-6.83835
-5.73942
-6.03067
-6.29939
-6.44236
-5.4645
-5.68048
-5.88501
-6.04296
-5.36353
-5.51708
-5.64004
-5.74915
-4.77069
-4.94692
-5.05003
-5.19533
-4.66115
-4.73734
-4.77492
-4.83067
-4.53269
-4.47494
-4.46499
-4.46677
-4.05651
-4.05168
-4.20739
-4.19274
-4.42854
-4.4574
-4.24668
-4.08453
-4.46181
-4.33981
-4.29264
-4.2345
-4.52931
-4.60789
-4.44837
-4.36486
-4.81744
-4.68407
-4.52673
-4.49912
-5.05569
-4.89602
-4.83156
-4.69839
-5.06365
-5.11577
-5.11007
-5.26141
-5.40536
-5.24465
-5.24934
-5.15307
-5.62561
-5.60424
-5.63357
-5.66892
522.907
523.205
523.51
523.62
522.321
520.745
521.89
522.585
523.027
523.987
523.608
524.857
522.603
523.231
528.866
530.092
530.539
530.948
531.217
469.064
508.342
522.081
522.459
522.365
519.931
517.267
520.039
516.251
515.903
518.713
513.06
517.911
525.791
529.392
530.302
530.696
531.246
531.685
419.799
463.747
448.299
502.018
514.503
518.578
516.464
507.13
462.174
380.093
657.525
361.643
369.356
532.955
529.414
530.224
530.33
531.536
531.968
299.587
276.246
147.191
300.756
515.005
461.445
487.569
419.848
644.182
134.273
261.373
348.724
410.167
480.993
505.866
527.351
531.283
532.177
533.394
105.196
160.61
229.996
62.2108
455.041
285.676
377.468
390.194
457.566
448.777
-58.4845
244.022
332.483
331.214
466.087
481.976
512.919
532.02
534.76
52.7999
11.1285
46.7471
144.33
117.443
-69.0685
162.779
108.441
84.9454
360.103
-154.344
93.0055
223.867
120.938
367.563
439.736
399.587
513.193
537.565
6.30507
1.50231
4.94742
9.55798
7.77662
10.4904
17.208
3.72519
21.6004
44.16
-5.90035
62.0804
413.882
-208.27
299.017
306.645
312.484
378.57
489.207
2.43135
-0.0150627
2.6022
2.56969
1.62648
1.84255
3.38954
5.43947
5.20489
4.77975
8.48608
14.4477
114.759
-101.52
238.811
211.262
150.786
155.369
196.901
1.16651
1.63073
1.97316
1.85085
1.98325
2.69223
2.96666
3.00091
3.6588
3.84086
5.39575
4.29333
26.9952
4.05199
171.734
141.434
87.5695
66.2983
54.7627
1.16556
1.09845
1.37703
1.79439
1.9244
2.20944
2.50752
3.51801
3.33418
3.09873
2.99333
3.46731
5.80887
72.4331
119.703
-4.52974
66.5157
74.0503
76.8952
0.984812
1.60446
0.969009
1.5372
1.62415
1.87754
2.09782
2.51967
2.67059
2.87564
3.17048
1.11535
4.59326
24.2187
124.233
112.519
66.599
69.7725
85.8538
0.512455
0.230965
1.3209
1.0399
1.36299
1.79479
1.95024
2.25578
2.61893
2.43198
2.07044
0.381965
1.4703
2.05173
66.4686
68.1895
72.992
73.6872
84.6702
0.0814831
1.29438
0.884154
0.367794
0.582846
0.980111
1.9831
1.73143
1.82765
2.27099
1.30793
0.64139
1.48073
7.18599
39.6972
63.279
64.3557
70.5028
84.864
-0.0517311
-0.0452502
0.0455228
0.73198
0.370435
0.537315
1.69686
1.22201
1.50394
1.77453
1.39397
1.06599
1.54914
1.64848
10.9183
50.2571
29.8661
50.7413
83.0144
-0.306941
-0.796176
-1.78411
-2.92622
-0.331442
0.999009
1.70815
0.712
1.02928
0.71568
0.493057
1.42728
1.63459
1.63191
3.14804
1.77771
6.5033
-11.4817
13.7144
-0.348773
-2.06656
-1.94742
-1.53226
-0.153377
0.991166
0.512378
0.0609637
0.802926
0.438374
1.6661
1.82189
1.78247
1.06972
4.99709
-17.3729
-2.77377
-14.3004
-25.5172
-1.3472
-3.34571
-4.75258
-6.03576
-1.46528
0.345715
-0.144129
0.227965
1.14904
0.736249
1.74951
1.63929
1.41419
1.15079
-18.9201
-13.6468
4.28185
-7.17054
33.6931
-1.6569
-3.06312
-5.14342
-7.23247
-4.4583
-0.646062
-1.51857
-0.627803
1.21351
1.34951
1.39084
1.97197
0.753048
-17.3203
-22.4808
-29.9896
14.1549
26.2418
101.55
-1.97322
-2.80345
-5.79215
-9.6682
-6.71229
-4.09744
-2.88086
-2.38628
-2.27034
0.364028
1.87603
1.88122
1.57806
15.0565
0.018896
-48.5157
-36.4018
41.6462
128.508
-4.3112
-4.34831
-6.80137
-10.4131
-7.97862
-8.20463
-6.28176
-5.66629
-4.09039
-2.60567
-0.347385
0.971495
-2.79961
-4.2852
-1.0445
-8.85505
-2.28046
27.2385
106.425
-5.42318
-6.41895
-9.83892
-12.0952
-10.3926
-9.29489
-6.8962
-6.32502
-5.49459
-3.04056
-1.86533
0.856092
1.72261
1.50124
3.03845
1.20002
-3.46363
8.08421
17.9832
-5.52279
-7.8526
-11.016
-13.8173
-11.3886
-9.62458
-8.02489
-6.83276
-3.82661
-4.69889
-4.77266
-3.47942
-2.75552
-2.30811
-0.244128
2.50246
2.28971
5.78782
-2.14205
-6.23458
-7.84249
-11.9211
-13.5713
-12.897
-11.9153
-10.3371
-6.85758
-3.24716
-2.5864
-5.0338
-5.04974
-3.6306
-1.05046
1.07657
3.81681
3.5012
3.09577
9.00332
-8.64815
-9.12713
-11.7989
-13.3455
-12.8772
-12.496
-10.7345
-7.16764
-4.01373
-3.22315
-2.45647
-3.03288
-2.9924
-0.992518
1.24381
3.47955
4.35961
3.19597
9.43535
-9.34449
-9.17064
-11.5516
-11.627
-11.6406
-11.0815
-10.2155
-6.84499
-4.07635
-4.60054
-3.16124
-3.74442
-4.16449
-2.81968
-1.32411
3.41654
5.04848
3.80873
13.0981
-6.81033
-9.21961
-11.278
-9.94372
-9.49564
-9.68612
-9.47121
-9.2465
-7.75204
-5.56884
-4.37528
-4.16068
-4.79958
-5.21119
-4.29304
3.38262
4.86752
4.44149
5.95817
-7.45809
-8.76608
-9.89138
-9.05377
-9.21281
-9.43749
-8.0343
-6.94976
-6.4512
-5.00841
-3.58542
-4.42766
-5.53189
-5.90541
-5.78374
3.61927
4.41864
3.78749
2.27854
-6.93832
-6.42001
-7.25214
-6.00613
-5.87766
-7.89447
-6.91182
-5.51172
-5.00997
-5.44183
-3.66876
-5.07589
-5.63973
-5.76509
-5.81493
-2.7374
5.37859
1.2773
-5.59893
-6.64114
-4.95634
-5.48388
-5.26188
-4.2072
-5.94031
-5.70382
-3.11333
-3.34702
-5.22608
-5.65487
-6.62686
-6.51233
-6.14078
-5.76849
-5.2272
20.9181
2.87551
87.2223
-5.84924
-4.89579
-3.3968
-4.01167
-3.61764
-4.52646
-6.33206
-4.48916
-3.56157
-3.81545
-4.68703
-6.49145
-6.62509
-6.0234
-6.86369
-5.72012
-8.44925
46.2423
345.265
-5.46987
-4.76735
-3.83905
-2.57581
-2.77954
-3.40945
-4.34542
-4.97822
-3.81353
-3.40502
-6.58559
-6.69238
-6.00481
-5.63329
-7.37015
-8.65009
35.4344
134.616
257.821
-5.01227
-4.02756
-3.20875
-2.5623
-2.64406
-1.40619
-2.62283
-5.03837
-4.63847
-3.66943
-5.66463
-5.20645
-4.8388
-7.7148
-34.1476
52.6422
65.7042
120.506
115.183
-4.61857
-4.33066
-4.40676
-3.37414
-2.98123
-2.81577
-1.60816
-2.93251
-4.75862
-4.95465
0.687191
-13.8851
-10.2672
-57.3794
112.513
-87.6092
11.2829
13.8626
4.25842
-4.23372
-3.85168
-5.14113
-3.29009
-2.40957
-3.60811
-3.02078
-5.25699
-4.73066
-3.90897
-6.32462
-1.7771
-37.5738
2.37713
32.7648
-20.2287
-11.0233
-4.83785
-16.9795
-3.98351
-3.62126
-2.85627
-4.26345
-4.55153
-4.03956
-3.97206
-5.42076
-5.46673
-6.36843
-7.54015
-8.47683
0.363444
-11.5054
-18.0056
-13.5054
-18.119
-19.4859
-11.5051
-4.11737
-3.72517
-3.83552
-3.54249
-3.9527
-4.03143
-4.7222
-5.51985
-6.22184
-6.85987
-7.01767
-8.92322
-9.5593
-14.0845
-16.0406
-14.5363
-14.7453
-19.7659
-11.4928
-4.26662
-4.05491
-3.95988
-3.75271
-4.22764
-4.50973
-4.84077
-5.36032
-6.12886
-6.79607
-7.49274
-9.00854
-10.8293
-12.8157
-14.094
-14.5827
-15.9189
-16.5631
-11.4157
-4.4527
-4.37641
-4.06783
-3.69453
-4.51424
-4.68734
-5.07067
-5.52111
-6.04373
-6.85592
-7.81518
-8.9511
-10.2467
-11.6685
-13.1944
-14.9436
-15.7388
-17.436
-18.635
-4.73254
-4.5516
-4.57148
-4.57065
-4.88359
-5.04078
-5.30179
-5.62209
-6.07586
-6.67375
-7.39482
-8.39226
-9.47614
-10.7112
-12.0448
-13.9326
-14.9554
-15.7556
-17.2312
-5.12837
-4.90046
-4.97576
-4.97553
-5.15654
-5.27385
-5.46328
-5.72023
-6.04888
-6.49442
-7.07548
-7.83062
-8.64349
-9.58765
-10.6768
-12.1682
-13.7043
-13.7342
-14.3867
-5.228
-5.18541
-5.33453
-5.28882
-5.39482
-5.45676
-5.58165
-5.72895
-5.92555
-6.18023
-6.49772
-6.89096
-7.31838
-7.84428
-8.47322
-9.35207
-10.7717
-12.1346
-14.5047
-5.66145
-5.60825
-5.71491
-5.70508
-5.73631
-5.75168
-5.75724
-5.76228
-5.7769
-5.80647
-5.8789
-6.02725
-6.24547
-6.56619
-6.92034
-7.59255
-9.0137
-11.7773
-14.8054
)
;

boundaryField
{
    leftWall
    {
        type            calculated;
        value           nonuniform List<scalar> 
50
(
886.344
827.196
767.724
708.023
647.961
587.763
527.107
466.437
370.534
240.294
114.116
26.3396
2.34226
1.27928
1.12375
0.975422
0.827368
0.674384
0.51263
0.340944
0.180776
0.0155165
-0.178092
-0.31496
-0.607497
-0.464385
-1.12435
-1.33273
-1.58197
-1.76144
-2.17394
-1.97385
-2.11467
-2.26612
-2.55379
-3.13163
-3.23423
-3.54683
-3.72642
-3.96932
-4.19169
-4.40129
-4.58526
-4.78047
-4.97966
-5.19521
-5.43356
-5.61108
-6.01891
-5.66333
)
;
    }
    rightWall
    {
        type            calculated;
        value           nonuniform List<scalar> 
50
(
530.954
530.91
530.902
530.897
530.915
530.951
530.987
531.076
531.217
531.685
531.968
533.394
534.76
537.565
489.207
196.901
54.7627
76.8952
85.8538
84.6702
84.864
83.0144
13.7144
-25.5172
33.6931
101.55
128.508
106.425
17.9832
-2.14205
9.00332
9.43535
13.0981
5.95817
2.27854
-5.59893
87.2223
345.265
257.821
115.183
4.25842
-16.9795
-11.5051
-11.4928
-11.4157
-18.635
-17.2312
-14.3867
-14.5047
-14.8054
)
;
    }
    lowerWall
    {
        type            calculated;
        value           nonuniform List<scalar> 
62
(
915.774
916.134
916.128
908.766
910.538
897.566
901.568
894.297
882.578
908.206
872.015
1001.04
926.676
955.457
962.442
988.245
1018.12
1049.27
1080.65
1113.51
1171.33
1212.19
1246.47
1217.05
1157.87
1085.16
1010.27
933.127
841.445
749.464
670.247
471.873
369.936
545.649
573.299
603.69
603.404
593.702
575.107
537.324
517.517
517.904
525.257
603.805
592.917
562.324
536.417
525.407
525.109
526.505
526.03
525.895
525.786
525.909
526.195
526.59
528.125
528.782
529.595
530.404
530.758
530.984
)
;
    }
    atmosphere
    {
        type            calculated;
        value           nonuniform List<scalar> 
46
(
-6.04482
-6.04717
-6.04715
-6.04709
-6.04684
-6.04677
-6.04713
-6.04793
-6.05112
-6.05596
-6.05737
-6.07689
-6.07013
-6.12574
-6.14297
-6.1329
-6.09068
-6.0759
-6.01074
-6.00918
-5.93412
-5.96623
-5.81213
-5.78452
-5.75064
-5.74754
-5.7415
-5.73713
-5.72904
-5.72904
-5.72904
-5.72904
-5.72904
-5.72904
-5.72904
-5.72904
-5.72904
-5.72904
-5.72904
-5.72904
-5.72904
-5.72904
-5.73042
-5.86886
-6.9158
-7.91053
)
;
    }
    defaultFaces
    {
        type            empty;
    }
}


// ************************************************************************* //
