/*--------------------------------*- C++ -*----------------------------------*\
| =========                 |                                                 |
| \\      /  F ield         | foam-extend: Open Source CFD                    |
|  \\    /   O peration     | Version:     4.1                                |
|   \\  /    A nd           | Web:         http://www.foam-extend.org         |
|    \\/     M anipulation  |                                                 |
\*---------------------------------------------------------------------------*/
FoamFile
{
    version     2.0;
    format      ascii;
    class       surfaceScalarField;
    location    "0.35";
    object      phi_0;
}
// * * * * * * * * * * * * * * * * * * * * * * * * * * * * * * * * * * * * * //

dimensions      [0 3 -1 0 0 0 0];

internalField   nonuniform List<scalar> 
4432
(
3.2165e-06
-3.2165e-06
6.04401e-06
-2.82751e-06
1.03601e-05
-4.31612e-06
1.32e-05
-2.83991e-06
1.67149e-05
-3.51485e-06
1.97005e-05
-2.98564e-06
2.35533e-05
-3.85276e-06
2.70625e-05
-3.50919e-06
2.95082e-05
-2.44571e-06
3.00732e-05
-5.64964e-07
4.88736e-05
-1.88005e-05
5.13446e-05
-2.47097e-06
5.38004e-05
-2.4558e-06
5.45804e-05
-7.79953e-07
5.43364e-05
2.43941e-07
5.36073e-05
7.29175e-07
5.22849e-05
1.32231e-06
5.03789e-05
1.90606e-06
4.73793e-05
2.99955e-06
4.08071e-05
6.57227e-06
3.11216e-05
9.68549e-06
1.81326e-05
1.2989e-05
1.81326e-05
3.24412e-06
-6.46062e-06
6.19065e-06
-5.77404e-06
1.04417e-05
-8.56716e-06
1.31816e-05
-5.57984e-06
1.68449e-05
-7.17812e-06
2.00244e-05
-6.16517e-06
2.39162e-05
-7.74454e-06
2.70713e-05
-6.66429e-06
2.99876e-05
-5.36203e-06
3.04391e-05
-1.01641e-06
4.63469e-05
-3.47083e-05
4.95944e-05
-5.71846e-06
5.24279e-05
-5.28931e-06
5.37745e-05
-2.12656e-06
5.39883e-05
3.02039e-08
5.32234e-05
1.49407e-06
5.11289e-05
3.41676e-06
4.90656e-05
3.96937e-06
4.68141e-05
5.25108e-06
4.02667e-05
1.31196e-05
3.11827e-05
1.87695e-05
1.61645e-05
2.80071e-05
3.42971e-05
3.1691e-06
-9.62972e-06
6.268e-06
-8.87294e-06
1.02426e-05
-1.25417e-05
1.29434e-05
-8.28065e-06
1.7106e-05
-1.13408e-05
2.04193e-05
-9.47842e-06
2.37832e-05
-1.11084e-05
2.80767e-05
-1.09578e-05
2.91396e-05
-6.42496e-06
5.20278e-05
-2.39046e-05
4.68352e-05
-2.95157e-05
4.97056e-05
-8.58889e-06
5.10744e-05
-6.65812e-06
5.17934e-05
-2.84549e-06
5.20767e-05
-2.5319e-07
5.11626e-05
2.40821e-06
4.92087e-05
5.37065e-06
4.7307e-05
5.87108e-06
4.49176e-05
7.64051e-06
3.9021e-05
1.90162e-05
3.09052e-05
2.68853e-05
1.88878e-05
4.00246e-05
5.31849e-05
3.11121e-06
-1.27409e-05
6.38884e-06
-1.21506e-05
1.00907e-05
-1.62436e-05
1.32068e-05
-1.13968e-05
1.75886e-05
-1.57225e-05
2.0497e-05
-1.23868e-05
2.42721e-05
-1.48835e-05
2.49879e-05
-1.16737e-05
4.31133e-05
-2.45504e-05
4.30945e-05
-2.38858e-05
4.02436e-05
-2.66647e-05
4.14337e-05
-9.77901e-06
4.23247e-05
-7.54913e-06
4.32002e-05
-3.72096e-06
4.3628e-05
-6.80981e-07
4.27927e-05
3.24352e-06
4.12428e-05
6.92051e-06
3.96561e-05
7.4578e-06
3.85631e-05
8.73349e-06
3.41585e-05
2.34208e-05
2.90133e-05
3.20305e-05
1.75593e-05
5.14786e-05
7.07442e-05
2.92374e-06
-1.56647e-05
6.36244e-06
-1.55893e-05
1.00543e-05
-1.99354e-05
1.32948e-05
-1.46373e-05
1.73234e-05
-1.97512e-05
1.99087e-05
-1.4972e-05
2.39601e-05
-1.8935e-05
2.40137e-05
-1.17273e-05
3.80048e-05
-3.85415e-05
3.74884e-05
-2.33694e-05
3.64567e-05
-2.56331e-05
3.83949e-05
-1.17172e-05
3.93141e-05
-8.46832e-06
3.96933e-05
-4.10017e-06
3.95882e-05
-5.75908e-07
3.93518e-05
3.47996e-06
3.90836e-05
7.18872e-06
3.75922e-05
8.94915e-06
3.65901e-05
9.73559e-06
3.1395e-05
2.8616e-05
2.6629e-05
3.67965e-05
1.94103e-05
5.86972e-05
9.01545e-05
2.87285e-06
-1.85375e-05
6.58813e-06
-1.93046e-05
1.01817e-05
-2.3529e-05
1.28432e-05
-1.72987e-05
1.6412e-05
-2.332e-05
2.02514e-05
-1.88114e-05
2.09453e-05
-1.96289e-05
3.46597e-05
-2.54417e-05
3.29661e-05
-3.68478e-05
3.56399e-05
-2.60432e-05
3.5854e-05
-2.58472e-05
3.74787e-05
-1.33419e-05
3.84513e-05
-9.44084e-06
3.88957e-05
-4.54466e-06
3.91437e-05
-8.23866e-07
3.90194e-05
3.60423e-06
3.88099e-05
7.39822e-06
3.75653e-05
1.01938e-05
3.67764e-05
1.05246e-05
3.06581e-05
3.47342e-05
2.61215e-05
4.13331e-05
1.86158e-05
6.62029e-05
0.00010877
2.87658e-06
-2.14141e-05
6.52257e-06
-2.29505e-05
9.56235e-06
-2.65688e-05
1.2468e-05
-2.02044e-05
1.61022e-05
-2.69542e-05
1.80109e-05
-2.07201e-05
1.8434e-05
-2.0052e-05
3.18273e-05
-3.8835e-05
3.17084e-05
-3.67289e-05
3.47414e-05
-2.90762e-05
3.61587e-05
-2.72646e-05
3.81747e-05
-1.53578e-05
3.95177e-05
-1.07839e-05
4.0227e-05
-5.25399e-06
4.10451e-05
-1.64191e-06
4.17168e-05
2.93251e-06
4.18712e-05
7.2438e-06
3.94817e-05
1.25833e-05
3.98102e-05
1.01961e-05
3.29357e-05
4.16087e-05
3.00778e-05
4.4191e-05
1.2962e-05
8.33187e-05
0.000121732
3.14125e-06
-2.45553e-05
6.60348e-06
-2.64128e-05
9.21981e-06
-2.91852e-05
1.19949e-05
-2.29795e-05
1.56882e-05
-3.06475e-05
1.61502e-05
-2.11821e-05
2.92934e-05
-3.31951e-05
3.00482e-05
-3.95898e-05
3.2221e-05
-3.89017e-05
3.57616e-05
-3.26168e-05
3.79807e-05
-2.94837e-05
4.04197e-05
-1.77969e-05
4.18813e-05
-1.22454e-05
4.25127e-05
-5.88543e-06
4.31941e-05
-2.32332e-06
4.40038e-05
2.12287e-06
4.4791e-05
6.45653e-06
4.38881e-05
1.34862e-05
4.14204e-05
1.26638e-05
3.52691e-05
4.776e-05
3.32186e-05
4.62415e-05
1.25096e-05
0.000104028
0.000134242
2.55593e-05
-2.55593e-05
0.000105542
-7.99825e-05
0.000166215
-6.06736e-05
0.000224523
-5.83077e-05
0.000227214
-2.69105e-06
0.000127831
9.93828e-05
-9.56102e-06
0.000137392
-0.000105474
9.59131e-05
-0.000140395
3.49205e-05
-0.000157189
1.67948e-05
-0.00016473
7.54026e-06
-0.000165701
9.71471e-07
-0.000165966
2.64738e-07
-0.000128848
-3.71182e-05
-0.000114132
-1.47158e-05
-8.50818e-05
-2.905e-05
-4.59255e-05
-3.91564e-05
-2.26186e-05
-2.33069e-05
-2.26186e-05
8.8086e-05
-0.000113645
8.06335e-05
-7.253e-05
8.3557e-05
-6.35971e-05
0.000114871
-8.96216e-05
0.000108845
3.33519e-06
2.37323e-05
0.000184495
-7.23501e-05
0.000233475
-0.000115865
0.000139428
-0.000146511
6.55665e-05
-0.000159671
2.99546e-05
-0.000168054
1.59235e-05
-0.000168692
1.60909e-06
-0.000171887
3.45967e-06
-0.000128996
-8.00089e-05
-6.62679e-05
-7.74439e-05
-5.009e-05
-4.52279e-05
-4.4224e-05
-4.50224e-05
-2.0841e-05
-4.669e-05
-4.34596e-05
4.27244e-05
-0.00015637
6.68238e-05
-9.66294e-05
8.18392e-05
-7.86125e-05
3.46388e-05
-4.24212e-05
-4.12848e-05
7.92589e-05
-4.40541e-05
0.000187265
-0.000113818
0.000303239
-0.000133159
0.000158769
-0.000159358
9.17661e-05
-0.000167951
3.85478e-05
-0.000167109
1.50815e-05
-0.000164289
-1.21193e-06
-0.000175504
1.46752e-05
-0.000138153
-0.00011736
-6.63508e-05
-0.000149246
-4.58497e-05
-6.57291e-05
-2.33516e-05
-6.75205e-05
-1.14715e-05
-5.85702e-05
-5.49311e-05
2.06423e-05
-0.000177012
6.5895e-05
-0.000141882
3.26746e-05
-4.53922e-05
-5.69512e-05
4.72046e-05
-0.000147133
0.00016944
-0.000137374
0.000177506
-0.000120427
0.000286291
-0.000128382
0.000166724
-0.000156051
0.000119435
-0.000176313
5.88098e-05
-0.000175276
1.40453e-05
-0.00017067
-5.81812e-06
-0.000115691
-4.0304e-05
-0.00013321
-9.9841e-05
-0.000107121
-0.000175335
-7.58575e-05
-9.69929e-05
-4.09756e-05
-0.000102402
-1.1945e-05
-8.76009e-05
-6.6876e-05
9.44174e-06
-0.000186454
-9.3724e-06
-0.000123068
-9.90196e-06
-4.48625e-05
-8.90269e-05
0.00012633
-0.000172694
0.000253108
-0.000153676
0.000158487
-0.000132459
0.000265074
-0.000127989
0.000162254
-0.000166723
0.00015817
-0.000106517
-1.39649e-06
-0.000177401
8.49298e-05
-0.000173907
-9.31226e-06
-0.000194102
-2.01093e-05
-0.000149946
-0.000143997
-0.000105063
-0.000220218
-3.91968e-05
-0.000162859
-2.28046e-05
-0.000118795
-1.08152e-05
-9.95904e-05
-7.76912e-05
-8.52248e-05
-0.000101229
-6.41672e-05
-0.000144125
-3.85951e-05
-7.04345e-05
-0.000121306
0.00020904
-0.000118945
0.000250746
-0.00016144
0.000200983
-0.000139567
0.000243201
-0.000129438
0.000152125
-0.000103166
0.000131897
-0.000162041
5.74787e-05
-0.000174683
9.75717e-05
-0.000167015
-1.698e-05
-0.000104535
-8.25894e-05
-8.35702e-05
-0.000164963
-9.37699e-05
-0.000210018
-5.72759e-05
-0.000199353
-1.93774e-05
-0.000156693
-1.03215e-05
-0.000108646
-8.80127e-05
-2.29812e-05
-7.82478e-05
-4.235e-05
-0.000124757
-9.92419e-05
-1.35425e-05
-0.000108046
0.000217845
-0.000121905
0.000264605
-0.000189144
0.000268222
-9.28118e-05
0.000146869
-0.000122178
0.000181492
-9.56553e-05
0.000105374
-0.000138552
0.000100375
-0.000112005
7.1025e-05
-7.90783e-05
-4.9907e-05
-9.73057e-05
-6.4362e-05
-9.7345e-05
-0.000164923
-5.72445e-05
-0.000250119
-5.02961e-05
-0.000206301
-2.81147e-05
-0.000178874
-1.44505e-05
-0.000122311
-0.000102463
8.63547e-06
-8.68833e-05
-5.95435e-05
-5.65776e-05
-0.000108377
3.52908e-05
-0.000124512
0.00023398
-0.000180506
0.000320599
-0.00019436
0.000282076
-0.000100467
5.29766e-05
-7.3177e-05
0.000154201
-9.0914e-05
0.000123111
-8.79987e-05
9.746e-05
-1.40578e-05
-2.91581e-06
4.87865e-06
-6.88435e-05
-8.08422e-06
-5.13991e-05
-1.17127e-05
-0.000161295
-3.45701e-05
-0.000227262
-4.08418e-05
-0.000200029
-2.36009e-05
-0.000196115
-7.07607e-06
-0.000138835
-0.000109539
6.32403e-06
-3.08794e-05
1.28455e-05
-3.29342e-05
1.75659e-05
-3.39056e-05
2.51021e-05
-3.05157e-05
2.92185e-05
-3.47639e-05
5.09826e-05
-4.29463e-05
5.89066e-05
-4.11191e-05
6.40061e-05
-4.46894e-05
7.06393e-05
-4.55349e-05
7.85085e-05
-4.0486e-05
8.55195e-05
-3.64946e-05
9.30197e-05
-2.52971e-05
9.67442e-05
-1.597e-05
9.73196e-05
-6.46078e-06
9.64934e-05
-1.49719e-06
9.54019e-05
3.21437e-06
9.63197e-05
5.5388e-06
9.74484e-05
1.23574e-05
9.8938e-05
1.11743e-05
9.02488e-05
5.64492e-05
5.70994e-05
7.93909e-05
4.31469e-05
0.00011798
7.07397e-05
0.000106649
5.80411e-06
-3.66835e-05
1.26638e-05
-3.97939e-05
1.7761e-05
-3.90028e-05
3.35353e-05
-4.629e-05
4.12062e-05
-4.24348e-05
4.93427e-05
-5.10828e-05
5.55857e-05
-4.73621e-05
6.33868e-05
-5.24904e-05
7.4841e-05
-5.69891e-05
8.6707e-05
-5.2352e-05
9.7079e-05
-4.68666e-05
0.000106263
-3.44811e-05
0.000109761
-1.94675e-05
0.000109506
-6.20592e-06
0.000108102
-9.33538e-08
0.000109291
2.02478e-06
0.000105651
9.17962e-06
9.93528e-05
1.86553e-05
6.63514e-05
4.41756e-05
6.72866e-05
5.5514e-05
6.60554e-05
8.0622e-05
0.000132589
5.1447e-05
5.6718e-05
0.00014661
8.81481e-06
-4.54983e-05
1.68542e-05
-4.78334e-05
2.58478e-05
-4.79963e-05
3.26123e-05
-5.30545e-05
3.99647e-05
-4.97872e-05
4.56976e-05
-5.68156e-05
5.59265e-05
-5.75909e-05
6.92151e-05
-6.57791e-05
8.07281e-05
-6.85021e-05
9.22769e-05
-6.39008e-05
0.000107619
-6.2209e-05
0.000120768
-4.76303e-05
0.000119282
-1.79809e-05
0.00011011
2.96628e-06
0.000105289
4.72704e-06
0.000108942
-1.62831e-06
0.000114055
4.06739e-06
0.000120924
1.17865e-05
0.000136952
2.81467e-05
0.000137652
5.48145e-05
0.000142283
7.59913e-05
0.000124301
6.94284e-05
5.07842e-05
0.000130235
9.75277e-06
-5.52511e-05
1.6649e-05
-5.47296e-05
2.4727e-05
-5.60743e-05
3.07208e-05
-5.90483e-05
3.7523e-05
-5.65894e-05
4.40164e-05
-6.33091e-05
5.37383e-05
-6.73128e-05
6.89372e-05
-8.0978e-05
8.49305e-05
-8.44954e-05
9.97817e-05
-7.87519e-05
0.000115553
-7.79801e-05
0.000129227
-6.13042e-05
0.000121404
-1.01579e-05
0.000101125
2.32447e-05
0.000105933
-8.03308e-08
0.000122358
-1.80539e-05
0.00013917
-1.27447e-05
0.000152252
-1.29549e-06
0.000147453
3.29459e-05
0.000141921
6.03461e-05
0.000137953
7.99596e-05
0.000135946
7.14359e-05
7.21713e-05
0.000114558
5.90905e-06
-6.11601e-05
9.58406e-06
-5.84046e-05
1.96807e-05
-6.6171e-05
2.89133e-05
-6.8281e-05
3.594e-05
-6.36161e-05
4.14312e-05
-6.88003e-05
5.12193e-05
-7.71009e-05
6.36331e-05
-9.33917e-05
6.90877e-05
-8.995e-05
6.79133e-05
-7.75776e-05
6.17618e-05
-7.18285e-05
5.49807e-05
-5.45231e-05
6.09279e-05
-1.61051e-05
7.26605e-05
1.15121e-05
9.42996e-05
-2.17194e-05
0.000114122
-3.78764e-05
0.000126039
-2.46621e-05
8.25319e-05
4.2212e-05
8.55443e-05
2.99335e-05
7.90671e-05
6.68233e-05
0.00013353
2.54964e-05
0.000127663
7.73028e-05
7.52283e-05
0.000124606
2.12242e-06
-6.32825e-05
5.93445e-06
-6.22166e-05
1.74842e-05
-7.77208e-05
2.73645e-05
-7.81612e-05
3.44129e-05
-7.06645e-05
3.66605e-05
-7.1048e-05
3.4562e-05
-7.50024e-05
2.72825e-05
-8.61122e-05
1.93681e-05
-8.20357e-05
1.5785e-05
-7.39944e-05
1.12696e-05
-6.73131e-05
1.81235e-05
-6.1377e-05
4.77005e-05
-4.56821e-05
7.4876e-05
-1.56633e-05
9.36996e-05
-4.0543e-05
0.000100941
-4.51179e-05
0.000127853
-5.15742e-05
0.000151657
1.84085e-05
0.000151012
3.05777e-05
0.0001424
7.54356e-05
7.35032e-05
9.43934e-05
7.34558e-05
7.73502e-05
2.34752e-05
0.000125209
-5.74059e-07
-6.27085e-05
1.5621e-06
-6.43528e-05
1.13149e-05
-8.74735e-05
2.66963e-05
-9.35426e-05
3.59729e-05
-7.99411e-05
3.77605e-05
-7.28355e-05
3.27493e-05
-6.99912e-05
2.3393e-05
-7.67559e-05
1.7484e-05
-7.61266e-05
1.74159e-05
-7.39264e-05
1.40312e-05
-6.39283e-05
3.25169e-05
-7.98627e-05
5.14485e-05
-6.46138e-05
6.58868e-05
-3.01016e-05
7.37125e-05
-4.83686e-05
6.49669e-05
-3.63723e-05
5.20473e-05
-3.86546e-05
7.34734e-05
-3.01761e-06
9.10008e-05
1.30504e-05
0.000128038
3.83986e-05
0.000170741
5.16907e-05
0.000177674
7.04168e-05
5.14676e-05
0.000149682
2.15685e-06
-6.48654e-05
6.93184e-06
-6.91278e-05
1.78465e-05
-9.83882e-05
2.89544e-05
-0.000104651
3.29801e-05
-8.39668e-05
3.59882e-05
-7.58437e-05
3.61241e-05
-7.01271e-05
3.73144e-05
-7.79463e-05
3.80333e-05
-7.68455e-05
4.62054e-05
-8.20985e-05
2.5616e-05
-4.33389e-05
4.27064e-05
-9.69531e-05
2.84735e-05
-5.03809e-05
3.85729e-05
-4.0201e-05
5.68979e-05
-6.66935e-05
7.16166e-05
-5.10911e-05
7.69548e-05
-4.39927e-05
9.03181e-05
-1.6381e-05
0.000108526
-5.15783e-06
0.000137799
9.12629e-06
0.000175022
1.44677e-05
0.000189628
5.58101e-05
8.96793e-05
0.000151416
6.01072e-06
-7.08761e-05
1.50253e-05
-7.81425e-05
2.27554e-05
-0.000106118
3.03918e-05
-0.000112287
3.13395e-05
-8.49145e-05
3.43596e-05
-7.88638e-05
3.3461e-05
-6.92285e-05
3.35203e-05
-7.80056e-05
1.98306e-05
-6.31558e-05
2.00837e-05
-8.23516e-05
5.30732e-05
-7.63284e-05
5.30503e-05
-9.69302e-05
5.47823e-05
-5.21129e-05
6.10015e-05
-4.64203e-05
7.73101e-05
-8.30021e-05
9.62237e-05
-7.00047e-05
0.000111596
-5.93649e-05
0.000119614
-2.43988e-05
0.000126864
-1.24078e-05
0.000153125
-1.71349e-05
0.000152904
1.46879e-05
0.000196161
1.25534e-05
1.13502e-05
0.00027449
8.27846e-06
-7.91546e-05
1.75013e-05
-8.73653e-05
2.6403e-05
-0.00011502
3.4913e-05
-0.000120797
3.53646e-05
-8.53661e-05
3.99736e-05
-8.34727e-05
4.28522e-05
-7.21072e-05
3.94934e-05
-7.46468e-05
4.0842e-05
-6.45044e-05
2.93779e-05
-7.08876e-05
2.88424e-05
-7.57929e-05
2.35435e-05
-9.16313e-05
2.54326e-05
-5.4002e-05
6.02457e-05
-8.12333e-05
6.88095e-05
-9.15659e-05
6.00887e-05
-6.12838e-05
8.00287e-05
-7.93049e-05
8.04564e-05
-2.48265e-05
0.000137506
-6.94575e-05
0.000166078
-4.57066e-05
0.000204832
-2.40664e-05
0.000221211
-3.82556e-06
-1.43694e-05
0.000246931
8.43767e-06
-8.75923e-05
1.73265e-05
-9.62541e-05
2.81392e-05
-0.000125833
3.3849e-05
-0.000126507
3.57836e-05
-8.73007e-05
4.17962e-05
-8.94854e-05
4.41203e-05
-7.44313e-05
4.61304e-05
-7.6657e-05
4.78704e-05
-6.62444e-05
5.64164e-05
-7.94336e-05
5.27153e-05
-7.20919e-05
5.43788e-05
-9.32949e-05
5.30461e-05
-5.26693e-05
5.87287e-05
-8.69159e-05
4.62829e-05
-7.91202e-05
6.37073e-05
-7.87082e-05
7.25486e-05
-8.81461e-05
0.000128144
-8.04216e-05
0.000142889
-8.42027e-05
0.000159704
-6.25221e-05
0.000151875
-1.62373e-05
0.000197057
-4.90076e-05
-0.000106086
0.000288773
7.67911e-06
-9.52714e-05
1.18614e-05
-0.000100436
2.6934e-05
-0.000140905
2.84172e-05
-0.00012799
3.08879e-05
-8.97714e-05
2.82201e-05
-8.68177e-05
3.29592e-05
-7.91704e-05
5.45016e-05
-9.81995e-05
2.96463e-05
-4.13891e-05
6.02786e-05
-0.000110066
2.80354e-05
-3.98487e-05
4.67857e-05
-0.000112045
4.16716e-05
-4.75552e-05
6.93774e-05
-0.000114622
7.78182e-05
-8.75609e-05
0.000102135
-0.000103025
0.000117865
-0.000103876
0.000123899
-8.64557e-05
0.000140777
-0.00010108
0.000112814
-3.45592e-05
0.000139824
-4.32475e-05
0.000156039
-6.52225e-05
-0.000120947
0.0001709
5.33226e-06
-0.000100604
1.06703e-05
-0.000105774
2.34932e-05
-0.000153728
2.61408e-05
-0.000130638
2.02749e-05
-8.39056e-05
2.38501e-05
-9.03929e-05
4.17613e-05
-9.70816e-05
5.39221e-05
-0.00011036
7.09316e-05
-5.83986e-05
3.39726e-05
-7.3107e-05
4.8971e-05
-5.4847e-05
5.22986e-05
-0.000115373
6.03397e-05
-5.55963e-05
6.79148e-05
-0.000122197
7.59798e-05
-9.56259e-05
7.34283e-05
-0.000100473
8.54793e-05
-0.000115927
0.000136785
-0.000137761
0.00010862
-7.29163e-05
0.000210712
-0.000136651
0.000217293
-4.98283e-05
0.000255507
-0.000103437
-4.90304e-05
0.000183591
3.69905e-06
-0.000104303
9.6714e-06
-0.000111747
1.94214e-05
-0.000163478
1.6338e-05
-0.000127554
1.41224e-05
-8.169e-05
2.01029e-05
-9.63735e-05
3.44572e-05
-0.000111436
3.45663e-05
-0.000110469
4.54598e-05
-6.92922e-05
4.35559e-05
-7.12031e-05
5.07013e-05
-6.19924e-05
6.06009e-05
-0.000125272
6.14671e-05
-5.64626e-05
5.11406e-05
-0.00011187
6.70846e-05
-0.00011157
0.000112303
-0.000145691
0.00012171
-0.000125335
0.000127536
-0.000143587
0.000123549
-6.89294e-05
0.000150602
-0.000163704
0.000267282
-0.000166509
0.000305583
-0.000141738
-0.000110858
0.00036741
4.76322e-06
-0.000109066
1.00382e-05
-0.000117022
2.04981e-05
-0.000173938
2.1648e-05
-0.000128704
1.05959e-05
-7.06379e-05
2.50172e-05
-0.000110795
2.16063e-05
-0.000108025
1.94093e-05
-0.000108273
8.03394e-05
-0.000130222
7.25337e-05
-6.33974e-05
0.000102771
-9.22302e-05
5.44465e-05
-7.69475e-05
6.22247e-05
-6.42408e-05
6.3436e-05
-0.000113082
0.00012378
-0.000171913
7.40462e-05
-9.5958e-05
0.00013326
-0.000184549
7.29391e-05
-8.32655e-05
0.000177042
-0.000173032
0.000149788
-0.00013645
0.000163748
-0.000180469
0.00019214
-0.000170129
-0.000146553
0.000227835
4.72499e-06
-0.000113791
6.18675e-06
-0.000118483
1.08762e-05
-0.000178628
1.27091e-05
-0.000130537
9.5079e-06
-6.74367e-05
2.07294e-05
-0.000122016
1.87419e-05
-0.000106037
3.12071e-05
-0.000120738
2.63614e-05
-0.000125377
8.01153e-05
-0.000117151
5.72689e-05
-6.93838e-05
5.4018e-05
-7.36966e-05
5.59782e-05
-6.62011e-05
9.44168e-05
-0.00015152
9.58624e-05
-0.000173359
7.91725e-05
-7.9268e-05
8.2543e-05
-0.000187919
9.45353e-05
-9.52578e-05
0.000120581
-0.000199077
0.000152366
-0.000168236
0.00017853
-0.000206632
0.000201322
-0.000192921
-0.00016585
0.000220619
2.99646e-06
-0.000116787
4.43007e-06
-0.000119917
1.39532e-05
-0.000188151
7.33231e-06
-0.000123916
1.69356e-05
-7.704e-05
1.68421e-05
-0.000121923
1.70111e-05
-0.000106206
2.61474e-05
-0.000129874
4.45551e-05
-0.000143784
8.51796e-05
-0.000157776
8.24075e-05
-6.66117e-05
8.11816e-05
-7.24707e-05
8.34787e-05
-6.84983e-05
9.31305e-05
-0.000161172
6.31546e-05
-0.000143383
0.000121726
-0.00013784
8.88585e-05
-0.000155051
0.00010151
-0.000107909
0.000118924
-0.000216492
0.000154724
-0.000204036
0.000193564
-0.000245473
0.000201654
-0.00020101
-0.000245584
0.000281388
6.00141e-06
-0.000122789
1.00242e-05
-0.00012394
8.10504e-06
-0.000186232
2.30753e-05
-0.000138886
5.42827e-06
-5.9393e-05
1.92211e-05
-0.000135716
2.12367e-05
-0.000108222
2.47584e-05
-0.000133396
3.78151e-05
-0.000156841
5.78897e-05
-0.00017785
6.91449e-05
-7.78669e-05
8.06533e-05
-8.39791e-05
9.58951e-05
-8.37401e-05
0.000104525
-0.000169802
0.000102451
-0.000141309
9.79364e-05
-0.000133326
8.03391e-05
-0.000137454
0.000159079
-0.000186649
0.00013759
-0.000195002
0.000174064
-0.00024051
0.000196549
-0.000267958
0.000212354
-0.000216815
-0.000355027
0.000321797
-1.45521e-05
-0.000108237
-2.30926e-05
-0.000115399
5.67623e-06
-0.000215
-1.42599e-05
-0.00011895
2.21643e-05
-9.58172e-05
2.94368e-06
-0.000116495
-1.41668e-05
-9.11115e-05
2.52842e-05
-0.000172847
3.09784e-05
-0.000162535
3.64757e-05
-0.000183348
5.81239e-05
-9.95152e-05
6.57495e-05
-9.16047e-05
8.4e-05
-0.000101991
7.06545e-05
-0.000156457
0.000121569
-0.000192224
7.07963e-05
-8.25527e-05
0.000138735
-0.000205392
0.00015413
-0.000202045
0.000188155
-0.000229027
0.000178478
-0.000230833
0.000212471
-0.000301951
0.000334036
-0.00033838
-0.000385259
0.000364268
1.24111e-05
-0.000120648
3.35239e-05
-0.000136512
-2.1649e-05
-0.000159828
-1.24454e-05
-0.000128154
1.36153e-05
-0.000121878
2.30926e-05
-0.000125972
5.71386e-05
-0.000125157
1.43635e-05
-0.000130071
3.78698e-05
-0.000186041
4.2358e-05
-0.000187836
4.27293e-05
-9.98866e-05
4.0179e-05
-8.90544e-05
0.000134855
-0.000196667
8.07409e-05
-0.000102343
4.08344e-05
-0.000152317
7.72953e-05
-0.000119014
0.000112988
-0.000241085
0.000135686
-0.000224743
0.000123747
-0.000217088
0.000153775
-0.00026086
0.000181862
-0.000330039
0.000217526
-0.000374045
-0.000504061
0.000336328
5.00185e-07
-0.000121148
4.07729e-06
-0.000140089
1.11749e-07
-0.000155862
2.38115e-06
-0.000130423
1.15117e-05
-0.000131008
1.35869e-05
-0.000128048
2.74598e-05
-0.00013903
2.30532e-05
-0.000125665
3.33895e-05
-0.000196378
5.70367e-05
-0.000211483
6.75548e-05
-0.000110405
9.42303e-05
-0.00011573
3.14307e-05
-0.000133867
5.5736e-05
-0.000126648
4.7848e-05
-0.000144429
6.25174e-05
-0.000133683
7.81898e-05
-0.000256757
8.8823e-05
-0.000235376
0.000110599
-0.000238864
0.000133982
-0.000284243
0.000156904
-0.00035296
0.000185618
-0.00040276
-0.000515443
0.000197001
2.25613e-06
-0.000123404
9.6592e-06
-0.000147492
3.04129e-06
-0.000149244
1.28884e-05
-0.00014027
8.8269e-06
-0.000126947
1.95351e-05
-0.000138756
1.49074e-05
-0.000134402
7.67629e-05
-0.00018752
7.81126e-05
-0.000197727
1.10865e-05
-0.000144457
2.36922e-05
-0.00012301
4.05674e-05
-0.000132605
4.62906e-05
-0.00013959
6.86701e-05
-0.000149028
7.44528e-05
-0.000150212
9.13374e-05
-0.000150568
8.05822e-05
-0.000246002
8.95401e-05
-0.000244334
0.000141366
-0.000290691
0.000128888
-0.000271765
0.000139231
-0.000363303
0.000174955
-0.000438483
-0.000567339
0.000226851
-8.24238e-06
-0.000115162
-4.61542e-06
-0.000151119
-7.45771e-06
-0.000146402
-1.8412e-05
-0.000129316
2.68399e-05
-0.000172199
1.68528e-05
-0.000128768
6.71303e-05
-0.00018468
3.68399e-05
-0.00015723
4.3174e-05
-0.000204061
2.47401e-05
-0.000126023
3.36748e-05
-0.000131945
2.93219e-05
-0.000128252
2.72284e-05
-0.000137497
4.11223e-05
-0.000162922
4.84781e-05
-0.000157568
6.77294e-05
-0.000169819
8.66073e-05
-0.00026488
0.000159846
-0.000317572
7.96269e-05
-0.000210472
0.000160033
-0.000352171
0.000180239
-0.000383509
0.00021393
-0.000472174
-0.000562531
0.000209121
3.01885e-05
-0.00014535
1.0504e-05
-0.000131435
4.07072e-07
-0.000136305
2.82569e-05
-0.000157166
1.35077e-05
-0.000157449
5.6825e-05
-0.000172086
3.36584e-05
-0.000161513
3.67233e-05
-0.000160295
3.28175e-05
-0.000200156
1.48696e-05
-0.000108075
1.30231e-05
-0.000130099
1.35401e-05
-0.000128769
1.6631e-05
-0.000140588
9.95311e-06
-0.000156244
9.52804e-05
-0.000242895
7.74006e-05
-0.000151939
0.00010827
-0.000295749
9.95938e-05
-0.000308896
8.05235e-05
-0.000191402
9.30762e-05
-0.000364724
9.78969e-05
-0.00038833
0.000103828
-0.000478106
-0.00053526
7.65583e-05
-3.37828e-05
-0.000111567
5.0779e-06
-0.000170296
5.0882e-05
-0.000182109
3.43789e-05
-0.000140663
3.19583e-05
-0.000155029
2.92968e-05
-0.000169424
7.04766e-05
-0.000202693
2.79874e-05
-0.000117805
-2.8113e-05
-0.000144055
-1.01887e-05
-0.000125999
1.59463e-06
-0.000141882
9.69433e-06
-0.000136869
2.48992e-05
-0.000155793
2.39995e-05
-0.000155344
6.47692e-05
-0.000283665
5.97856e-05
-0.000146956
7.96711e-05
-0.000315635
8.04489e-05
-0.000309674
7.51649e-05
-0.000186118
8.88711e-05
-0.00037843
0.000102284
-0.000401743
0.000159878
-0.000535699
-0.000404591
2.92085e-05
-1.74388e-06
-0.000109823
2.88865e-06
-0.000174928
5.4756e-06
-0.000184696
7.243e-06
-0.00014243
1.82792e-05
-0.000166065
3.53973e-05
-0.000186542
-2.48744e-05
-0.000142421
-1.16941e-05
-0.000130986
-1.14415e-05
-0.000144308
-5.25133e-06
-0.00013219
-6.74885e-06
-0.000140384
-1.05476e-05
-0.00013307
-1.9891e-05
-0.000146449
4.25393e-05
-0.000217774
4.15005e-05
-0.000282626
0.000138613
-0.000244069
3.67978e-05
-0.000213819
4.59745e-05
-0.000318851
7.59073e-05
-0.000216051
0.000130018
-0.000432541
3.48635e-05
-0.000306589
5.86049e-05
-0.000559441
-0.00038031
3.43237e-05
-1.91972e-05
-9.06263e-05
1.58913e-05
-0.000210017
4.5094e-05
-0.000213899
2.41172e-05
-0.000121453
-9.16105e-07
-0.000141032
-3.79325e-05
-0.000149526
-2.70861e-05
-0.000153268
-1.54464e-05
-0.000142625
-1.58531e-05
-0.000143901
-9.53327e-06
-0.00013851
-6.91116e-06
-0.000143007
-1.0234e-06
-0.000138958
-2.56673e-06
-0.000144906
2.27318e-05
-0.000243073
1.67048e-05
-0.000276599
5.21043e-05
-0.000279468
3.2947e-05
-0.000194662
5.18548e-05
-0.000337759
6.49474e-05
-0.000229143
6.44028e-05
-0.000431996
2.34649e-05
-0.000265651
-1.75356e-05
-0.00051844
-0.000336375
-6.14707e-05
4.73914e-05
-0.000138018
-6.79129e-07
-0.000161946
-5.28326e-05
-0.000161745
-2.10339e-05
-0.000153252
-1.07245e-05
-0.000151341
-7.70146e-06
-0.000152549
-1.28493e-05
-0.00014812
-1.11116e-05
-0.000144363
-1.10919e-05
-0.000143921
-7.79266e-06
-0.000141809
-8.14799e-06
-0.000142651
-3.62825e-06
-0.000143478
-3.63743e-06
-0.000144897
1.10433e-05
-0.000257753
9.45669e-06
-0.000275012
2.8636e-05
-0.000298647
1.53672e-05
-0.000181393
3.68352e-05
-0.000359227
2.64879e-05
-0.000218796
3.30204e-05
-0.000438529
3.65004e-05
-0.000269131
-0.000116937
-0.000365003
-0.000346957
-0.000106354
5.16679e-06
-0.000143184
1.21388e-07
-0.000156901
-3.42488e-06
-0.000158199
-5.10686e-06
-0.00015157
-6.21695e-06
-0.000150231
-1.10734e-05
-0.000147692
-1.17839e-05
-0.000147409
-1.01306e-05
-0.000146017
-9.5586e-06
-0.000144493
-6.75812e-06
-0.000144609
-5.65487e-06
-0.000143754
-4.31605e-06
-0.000144816
-4.11423e-06
-0.000145098
5.72055e-07
-0.00026244
-7.4269e-06
-0.000267013
6.95108e-06
-0.000313025
5.51321e-05
-0.000229574
-5.4813e-05
-0.000249282
-8.5545e-08
-0.000273524
-3.55991e-05
-0.000403015
-3.63456e-05
-0.000268384
-9.99037e-05
-0.000301445
-0.000325085
-0.000121776
2.54032e-06
-0.000145725
-2.1381e-06
-0.000152222
-7.49876e-06
-0.000152838
-8.38704e-06
-0.000150682
-1.01155e-05
-0.000148502
-9.19364e-06
-0.000148614
-9.33158e-06
-0.000147272
-8.19887e-06
-0.000147149
-7.98523e-06
-0.000144707
-6.39818e-06
-0.000146196
-5.0962e-06
-0.000145056
-3.09218e-06
-0.00014682
-5.90105e-06
-0.00014229
-7.95363e-06
-0.000260387
-1.36047e-05
-0.000261362
-2.0072e-05
-0.000306558
-2.33606e-06
-0.00024731
-1.0293e-05
-0.000241325
5.20183e-06
-0.000289019
-0.000137755
-0.000260058
-5.54562e-05
-0.000350684
-0.000118055
-0.000238847
-0.000297927
-0.000145213
-9.97622e-08
-0.000145625
-1.45899e-06
-0.000150863
-3.30505e-06
-0.000150992
-4.6058e-06
-0.000149381
-6.20929e-06
-0.000146899
-6.51825e-06
-0.000148305
-6.54702e-06
-0.000147243
-5.6861e-06
-0.00014801
-3.40732e-06
-0.000146985
-1.24824e-06
-0.000148355
2.42648e-06
-0.000148731
1.35886e-05
-0.000157982
2.6259e-05
-0.00015496
-4.59425e-05
-0.000188186
-2.9591e-05
-0.000277714
-4.81166e-05
-0.000288033
-2.15397e-05
-0.000273887
3.22956e-05
-0.00029516
-2.84951e-05
-0.000228228
-6.01636e-05
-0.00022839
-0.000185865
-0.000224982
-9.38121e-05
-0.0003309
-0.000243503
-0.000148236
-6.80373e-07
-0.000144945
-1.97864e-06
-0.000149565
-3.75671e-06
-0.000149214
-6.10125e-06
-0.000147036
-5.99749e-06
-0.000147003
-6.85939e-06
-0.000147443
-7.20439e-06
-0.000146898
-7.4924e-06
-0.000147722
-7.80296e-06
-0.000146675
-7.93547e-06
-0.000148223
-7.3992e-06
-0.000149267
-1.08122e-05
-0.000154569
-1.0489e-05
-0.000155283
-3.03031e-05
-0.000168372
-3.25314e-05
-0.000275486
-3.72294e-05
-0.000283335
-4.47223e-05
-0.000266394
-5.35147e-05
-0.000286368
-7.36628e-05
-0.00020808
-0.000103547
-0.000198506
-0.000126743
-0.000201787
-0.000123024
-0.000334619
-0.000193773
-0.000172755
-6.23668e-07
-0.000144321
-2.12099e-06
-0.000148067
-3.93795e-06
-0.000147397
-4.70964e-06
-0.000146265
-5.41986e-06
-0.000146292
-6.25274e-06
-0.000146611
-7.0398e-06
-0.000146111
-8.22629e-06
-0.000146536
-9.39616e-06
-0.000145505
-1.08425e-05
-0.000146776
-1.32451e-05
-0.000146865
-1.67845e-05
-0.00015103
-2.24101e-05
-0.000149657
-3.75187e-05
-0.000153263
-3.97849e-05
-0.000273219
-4.45742e-05
-0.000278545
-5.44279e-05
-0.00025654
-5.78686e-05
-0.000282927
-0.000107875
-0.000158073
-6.80882e-05
-0.000238293
-5.35149e-05
-0.00021636
-0.000197335
-0.000190799
-0.000254897
-0.00013621
-4.12649e-07
-0.000143908
-1.60618e-06
-0.000146874
-3.53828e-06
-0.000145465
-4.08309e-06
-0.00014572
-4.94192e-06
-0.000145434
-5.64408e-06
-0.000145908
-6.88563e-06
-0.000144869
-8.62254e-06
-0.000144799
-1.03395e-05
-0.000143788
-1.28834e-05
-0.000144233
-1.61931e-05
-0.000143555
-2.10539e-05
-0.000146169
-2.58225e-05
-0.000144889
-3.21693e-05
-0.000146916
-3.5649e-05
-0.00026974
-4.36107e-05
-0.000270584
-3.75955e-05
-0.000262556
-6.97356e-05
-0.000250787
-1.49571e-05
-0.000212852
-9.77674e-05
-0.000155482
-9.17546e-05
-0.000222373
-0.000121027
-0.000161526
-0.000214255
-0.00016167
-5.6037e-07
-0.000143348
-1.43883e-06
-0.000145995
-2.49448e-06
-0.000144409
-3.41041e-06
-0.000144804
-4.47106e-06
-0.000144373
-5.3451e-06
-0.000145034
-6.70056e-06
-0.000143514
-8.05124e-06
-0.000143448
-9.68158e-06
-0.000142158
-1.17416e-05
-0.000142173
-1.47533e-05
-0.000140543
-2.00909e-05
-0.000140832
-2.57791e-05
-0.000139201
-3.25956e-05
-0.0001401
-3.98326e-05
-0.000262503
-4.75792e-05
-0.000262837
-5.42599e-05
-0.000255875
-6.49984e-05
-0.000240049
-6.35177e-05
-0.000214332
-8.41254e-05
-0.000134875
-8.15698e-05
-0.000224929
-0.000133182
-0.000109914
-0.000199937
-0.0001475
-7.53472e-07
-0.000142594
-1.79686e-06
-0.000144952
-2.27059e-06
-0.000143935
-3.04298e-06
-0.000144031
-3.94296e-06
-0.000143473
-5.1883e-06
-0.000143789
-6.08869e-06
-0.000142613
-7.08464e-06
-0.000142452
-8.22092e-06
-0.000141021
-1.01013e-05
-0.000140292
-1.25902e-05
-0.000138054
-1.59735e-05
-0.000137448
-2.02354e-05
-0.000134939
-2.45885e-05
-0.000135747
-3.17377e-05
-0.000255353
-4.22871e-05
-0.000252288
-5.11443e-05
-0.000247018
-5.74473e-05
-0.000233746
-5.33017e-05
-0.000218478
-5.95451e-05
-0.000128631
-0.000164118
-0.000120356
-0.000128811
-0.000145221
-0.000153928
-0.00017482
-4.26059e-07
-0.000142168
-1.17021e-06
-0.000144208
-1.46737e-06
-0.000143638
-1.89144e-06
-0.000143607
-2.24606e-06
-0.000143118
-3.03702e-06
-0.000142998
-3.47352e-06
-0.000142177
-4.10471e-06
-0.000141821
-4.92975e-06
-0.000140196
-7.04554e-06
-0.000138176
-9.13241e-06
-0.000135968
-1.17704e-05
-0.00013481
-1.52256e-05
-0.000131483
-1.94719e-05