/*--------------------------------*- C++ -*----------------------------------*\
| =========                 |                                                 |
| \\      /  F ield         | foam-extend: Open Source CFD                    |
|  \\    /   O peration     | Version:     4.1                                |
|   \\  /    A nd           | Web:         http://www.foam-extend.org         |
|    \\/     M anipulation  |                                                 |
\*---------------------------------------------------------------------------*/
FoamFile
{
    version     2.0;
    format      ascii;
    class       volScalarField;
    location    "0.2";
    object      p;
}
// * * * * * * * * * * * * * * * * * * * * * * * * * * * * * * * * * * * * * //

dimensions      [1 -1 -2 0 0 0 0];

internalField   nonuniform List<scalar> 
2268
(
1697.87
1701.7
1705.87
1706.43
1722.8
1721.09
1743.4
1757.22
1761.87
1829.35
1801.27
2012.52
1930.64
1947.06
1977.79
2005.33
2050.86
2088.42
2178.97
2296.07
2413.37
2521.92
2598.76
1638.26
1642.12
1645.95
1647.06
1662.92
1660.48
1684.39
1697.03
1702.68
1778.49
1728.02
1925.93
1867.21
1884.4
1914.61
1942.37
1990.4
2032.46
2118.44
2228.57
2348.73
2455.22
2535.34
1577.77
1581.75
1585.07
1587.23
1600.87
1600.73
1622.35
1636.1
1639.54
1693.79
1723.81
1813.75
1789.99
1815.65
1845.46
1875.32
1920.92
1974.52
2038.74
2147.82
2267.71
2367.19
2429.77
1516.7
1520.73
1523.04
1526.7
1538.82
1537.1
1563.11
1568.58
1578.37
1684.48
1645.97
1723.08
1720.23
1744.8
1775.97
1808.44
1857.44
1914.87
1979.05
2052.76
2181.24
2279.99
2305.22
1454.58
1458.76
1460.42
1464.96
1475.21
1475.82
1498.15
1519.36
1501.44
1604.65
1583.66
1645.62
1644.52
1675.63
1706.01
1740.39
1780.35
1827.85
1895.49
1975.42
2081.94
2166.4
2157.47
1392.17
1396.26
1396.5
1402.49
1410.06
1413.18
1426.68
1434.5
1479.34
1521.51
1514.06
1567.2
1569.35
1605.21
1632.34
1668.08
1701.84
1753.81
1825.56
1886.55
1988.78
2044.47
1915.08
1328.43
1332.74
1332.56
1339.93
1346.43
1341.78
1381.05
1357.35
1413.06
1439.87
1441.64
1487.45
1497.29
1527.84
1557.88
1594.72
1622.64
1655.09
1743.21
1776.22
1862.72
1885.34
1572.87
1264.78
1268.68
1266.51
1270.59
1275.2
1289.05
1289.71
1306.54
1335.81
1360.99
1364.68
1405.64
1414.64
1453.46
1476.68
1515.95
1537.26
1571.87
1632.18
1682.85
1742.1
1580.57
1263.29
4.96466
4.94799
4.92302
4.90607
4.90013
4.90974
4.92676
4.94569
4.97207
4.99268
5.00638
5.02074
5.01936
5.0272
5.01433
5.02144
5.00233
5.00433
4.99921
4.90265
4.88594
4.85762
4.84418
4.83885
4.84999
4.86727
4.88652
4.91796
4.93494
4.94958
4.96346
4.96078
4.97153
4.95587
4.96134
4.94381
4.9451
4.94001
4.83771
4.82543
4.78808
4.7776
4.77642
4.78852
4.80896
4.82926
4.86301
4.88057
4.89353
4.90452
4.9047
4.91358
4.89722
4.90196
4.88456
4.88543
4.88036
4.77391
4.76803
4.72864
4.70701
4.7096
4.72622
4.75118
4.77471
4.80877
4.8288
4.84252
4.85555
4.8468
4.85948
4.83366
4.84668
4.82503
4.82549
4.8203
4.73432
4.70789
4.65913
4.6331
4.6423
4.66195
4.69266
4.71908
4.75673
4.78273
4.79135
4.80887
4.78856
4.80149
4.78593
4.7817
4.76601
4.76485
4.7598
4.70093
4.66382
4.55357
4.53883
4.57019
4.59695
4.63647
4.66563
4.70906
4.7335
4.75169
4.75267
4.73774
4.74562
4.72013
4.7243
4.70619
4.70397
4.69879
4.6149
4.64204
4.42765
4.46148
4.50483
4.53212
4.57643
4.61204
4.66012
4.7069
4.69827
4.70936
4.68688
4.69229
4.66628
4.66344
4.64613
4.64251
4.63732
4.60378
4.71597
4.31831
4.3591
4.40403
4.46131
4.52311
4.56864
4.61139
4.65053
4.64929
4.65341
4.63619
4.63595
4.60658
4.60308
4.58566
4.5806
4.57531
1162.11
1167.76
1159.78
1186.51
1177.77
1141.74
1209.52
1183.83
1219.82
1239.18
1242.23
1273.06
1294.39
1324.24
1365.75
1385.63
1388.4
1420.91
1483.04
1408.91
1565.79
872.983
780.565
1023.22
1025.16
1019.77
1008.45
1033.36
1019.58
1033.78
1036.18
1047.53
1065.7
1057.13
1082.4
1066.78
1134.21
1147.39
1262.42
1171
1290.91
1420.64
797.407
888.073
618.625
960.813
879.403
876.949
874.558
867.537
875.166
862.304
875.161
866.767
875.371
877.455
872.731
868.525
901.865
843.636
944.366
973.194
918.132
896.83
852.785
660.341
714.551
511.334
897.029
727.076
724.355
724.274
716.818
716.44
710.258
706.77
695.546
691.819
678.862
644.809
603.298
543.869
753.514
847.311
545.61
596.235
549.402
410.45
366.272
354.933
329.433
345.456
575.59
571.011
570.234
558.829
555.882
544.042
535.753
516.628
505.419
462.365
435.356
352.274
350.79
422.156
447.006
247.191
96.0682
282.522
-74.0913
43.913
-103.11
67.6115
134.762
419.954
416.024
412.317
403.181
395.986
381.231
368.944
348.917
309.874
244.032
140.038
70.1618
111.336
137.604
101.543
13.4261
0.0774452
1.95106
-2.34488
2.37039
-3.24001
0.180041
-14.7491
264.432
259.412
256.222
246.008
239.343
221.961
208.02
176.804
97.7432
32.0952
8.06875
0.306943
10.9732
15.6616
1.90356
-3.54856
-4.11559
-5.13222
-5.90319
-5.89237
-7.28568
-8.69759
-8.37458
116.568
112.844
105.908
100.344
94.5606
81.2267
82.6108
62.0773
1.54752
-3.34222
-4.12354
-4.21565
-3.99182
-4.81865
-5.17239
-4.89563
-5.38361
-5.97962
-6.4307
-6.88299
-7.10485
-8.81514
-8.9132
18.226
15.8968
14.394
12.489
9.82404
7.62094
10.6453
8.44483
-5.87065
-5.77193
-5.30806
-5.33707
-5.35903
-5.63834
-5.91206
-5.33456
-5.61013
-6.54011
-6.78128
-7.04062
-7.53053
-8.86732
-9.59577
-3.02345
-3.08238
-3.16817
-3.30727
-3.29392
-3.34738
-3.16089
-3.39593
-5.89085
-6.20676
-5.62713
-5.52143
-5.76977
-6.16204
-6.81566
-6.33002
-6.31707
-6.95758
-7.52857
-7.61312
-8.04905
-8.79645
-8.9643
-3.83197
-3.85139
-3.88673
-3.95403
-4.07772
-4.19853
-4.31018
-4.88591
-5.46141
-5.70468
-5.79661
-5.8438
-5.66312
-5.59313
-6.02703
-6.93092
-7.84044
-7.56156
-7.54215
-7.72345
-8.13119
-8.93005
-9.52
-3.98428
-4.00574
-4.02148
-4.12135
-4.09518
-4.36121
-4.29377
-5.13776
-5.44938
-5.25985
-5.73352
-6.52992
-6.1574
-5.96539
-6.44197
-6.69074
-7.43588
-7.91407
-8.07038
-8.12591
-8.54261
-9.14642
-9.44425
-4.15268
-4.16776
-4.22241
-4.25973
-4.30532
-4.36173
-4.56559
-4.86489
-5.49011
-5.7998
-5.89454
-6.7288
-7.74692
-7.50494
-7.18132
-7.6423
-7.65996
-8.01752
-8.14619
-8.3702
-8.73881
-9.3552
-9.92876
-4.36623
-4.36148
-4.37166
-4.39757
-4.47795
-4.52347
-4.78138
-5.21054
-5.90576
-6.21104
-6.44995
-8.13181
-7.8118
-8.16327
-8.2698
-8.14324
-7.88685
-8.08127
-8.2642
-8.61793
-8.76407
-9.514
-10.9643
-4.53732
-4.5466
-4.54393
-4.58011
-4.61294
-4.61588
-4.80999
-5.03761
-5.0001
-6.23153
-6.36747
-6.95719
-7.59818
-7.91006
-7.47627
-7.64821
-7.83289
-8.09396
-8.04483
-8.36935
-9.27136
-9.6691
-11.0677
-4.6709
-4.70359
-4.72152
-4.7399
-4.7392
-4.803
-4.93286
-5.03942
-5.17142
-5.46015
-5.9012
-6.90259
-7.20215
-7.58155
-7.39077
-7.63724
-7.80081
-7.92995
-8.14793
-8.626
-8.77215
-9.74149
-11.1724
-4.78938
-4.8067
-4.85588
-4.81369
-4.71963
-4.84632
-5.01804
-5.12069
-5.51497
-5.73604
-5.93216
-6.36136
-7.08148
-7.25789
-7.11977
-7.29178
-7.47417
-7.74296
-8.07438
-8.16059
-8.73372
-9.4984
-10.997
-4.73469
-4.77222
-4.90958
-4.77574
-5.09432
-4.90469
-4.95317
-5.1209
-5.44953
-5.64007
-5.79851
-6.69485
-7.04571
-6.79875
-6.87862
-7.22365
-7.56321
-7.52449
-7.8912
-8.11256
-8.51206
-9.08791
-10.1097
-5.4038
-5.3942
-4.99219
-5.4212
-5.38996
-5.62325
-5.65058
-5.6856
-5.92412
-5.95591
-5.9309
-6.49854
-6.7587
-6.47664
-6.7125
-7.23384
-7.27496
-7.42114
-7.6706
-7.89165
-8.26291
-8.6336
-9.26661
-5.43978
-5.4013
-5.61707
-5.56137
-5.54909
-5.56682
-5.70938
-6.01816
-5.68778
-6.06856
-6.36039
-6.56297
-6.31722
-6.43677
-6.63674
-7.19342
-7.15642
-7.15918
-7.53125
-7.72823
-8.00186
-8.2723
-8.6548
-5.5197
-5.50348
-5.55444
-5.583
-5.63441
-5.67615
-5.69647
-5.89333
-5.79581
-5.73815
-6.08587
-6.32088
-6.2904
-6.396
-6.40177
-6.94374
-6.97971
-7.07212
-7.34711
-7.48438
-7.65807
-7.83113
-7.88679
-5.53824
-5.54639
-5.61251
-5.73087
-5.70656
-5.74421
-5.79784
-5.62314
-5.81662
-6.10023
-6.12209
-6.19232
-6.26164
-6.35732
-6.28767
-6.78101
-6.79726
-6.90215
-7.1314
-7.22344
-7.32474
-7.38493
-7.25456
-5.50822
-5.54007
-5.63268
-5.63903
-5.44533
-5.68242
-5.40995
-5.66094
-5.86353
-5.82181
-5.99445
-6.06453
-6.184
-6.30332
-6.31712
-6.2932
-6.72605
-6.73112
-7.05277
-6.97857
-7.02767
-6.9977
-6.79583
-5.67778
-5.67698
-5.64651
-5.35534
-5.50243
-5.38716
-5.51275
-5.57905
-5.71712
-5.87506
-5.94346
-6.01116
-6.10018
-6.19977
-6.00538
-6.34828
-6.33887
-6.57346
-6.73128
-6.77451
-6.74005
-6.68257
-6.45131
-5.29892
-5.29868
-5.28741
-5.42122
-5.48555
-5.51279
-5.46004
-5.95222
-5.96387
-5.9393
-5.96783
-6.00419
-6.07457
-6.13638
-6.11171
-6.08684
-6.2692
-6.52083
-6.47332
-6.471
-6.48708
-6.45509
-6.18437
-5.47104
-5.47133
-5.47467
-5.4337
-5.41097
-5.47994
-5.89106
-5.93012
-5.78044
-5.86897
-5.87954
-5.91909
-5.99707
-5.84022
-6.01367
-6.02664
-6.21344
-6.1439
-6.24523
-6.29278
-6.3457
-6.05674
-5.83863
-5.39013
-5.39203
-5.48317
-5.76358
-5.8321
-5.93574
-5.92505
-5.79281
-5.82602
-5.84969
-5.86
-5.8755
-5.90861
-5.89009
-5.94203
-5.78671
-5.94549
-6.08856
-6.00068
-6.20723
-6.04872
-5.87164
-5.62101
-5.83677
-5.86343
-5.90246
-5.76519
-5.77564
-5.84137
-5.77643
-5.79338
-5.78782
-5.81466
-5.81341
-5.83035
-5.84143
-5.82799
-5.85374
-5.85042
-5.86534
-5.74566
-5.87646
-5.9343
-5.75335
-5.73581
-5.47368
-5.7362
-5.74455
-5.75953
-5.77168
-5.77858
-5.86879
-5.72854
-5.78295
-5.774
-5.78638
-5.78884
-5.79593
-5.79932
-5.80228
-5.79107
-5.7862
-5.64822
-5.82292
-5.68915
-5.82511
-5.72027
-5.56276
-5.34325
-5.77789
-5.78165
-5.7883
-5.76491
-5.82647
-5.72981
-5.74596
-5.75777
-5.75366
-5.75844
-5.75437
-5.75623
-5.7338
-5.73192
-5.73706
-5.71815
-5.68378
-5.67057
-5.51146
-5.6289
-5.56605
-5.46628
-5.24877
-5.7589
-5.76393
-5.75518
-5.79917
-5.73198
-5.74524
-5.7392
-5.74631
-5.74228
-5.74647
-5.74181
-5.75565
-5.71375
-5.83635
-5.71933
-5.67667
-5.6497
-5.50112
-5.59302
-5.48715
-5.44268
-5.44094
-5.1978
-5.76751
-5.76323
-5.77287
-5.7337
-5.73784
-5.73497
-5.73325
-5.73043
-5.72714
-5.72319
-5.7168
-5.71473
-5.70314
-5.70249
-5.66386
-5.63016
-5.60062
-5.54145
-5.50184
-5.4581
-5.33344
-5.39035
-5.21181
-5.74749
-5.74413
-5.74477
-5.7327
-5.73477
-5.72956
-5.72694
-5.72349
-5.71844
-5.7142
-5.70632
-5.70045
-5.683
-5.67762
-5.64695
-5.61056
-5.57414
-5.52015
-5.46889
-5.3548
-5.26455
-5.2829
-5.28477
-5.73989
-5.73862
-5.74027
-5.73449
-5.731
-5.72646
-5.72111
-5.71616
-5.70905
-5.70243
-5.69227
-5.68243
-5.66783
-5.65321
-5.62688
-5.59479
-5.55482
-5.52737
-5.39643
-5.43686
-5.34433
-5.24
-5.3143
-5.73916
-5.73741
-5.73546
-5.73165
-5.72857
-5.72381
-5.71873
-5.71327
-5.70582
-5.69845
-5.68737
-5.67694
-5.66061
-5.64557
-5.6231
-5.59202
-5.55295
-5.51458
-5.45729
-5.40423
-5.35704
-5.27996
-5.25899
-5.73616
-5.73527
-5.73426
-5.73132
-5.72821
-5.72342
-5.71843
-5.71174
-5.70471
-5.69584
-5.6859
-5.67425
-5.66016
-5.64461
-5.62528
-5.59638
-5.56423
-5.5269
-5.48276
-5.42891
-5.43124
-5.3119
-5.27335
-5.74121
-5.74044
-5.73829
-5.73578
-5.73175
-5.72814
-5.7221
-5.71683
-5.7088
-5.70136
-5.69072
-5.68065
-5.66657
-5.65317
-5.6353
-5.60899
-5.58017
-5.54818
-5.51032
-5.46451
-5.42702
-5.36809
-5.31667
-5.74117
-5.74044
-5.7391
-5.7366
-5.73386
-5.72967
-5.72542
-5.7197
-5.71344
-5.70614
-5.69752
-5.68822
-5.67677
-5.66524
-5.6509
-5.62679
-5.60356
-5.56895
-5.54697
-5.46389
-5.46943
-5.4171
-5.41588
-5.75351
-5.75263
-5.75109
-5.74847
-5.7455
-5.7414
-5.73692
-5.73175
-5.72555
-5.71932
-5.71129
-5.70381
-5.69334
-5.68427
-5.67262
-5.65285
-5.63202
-5.60468
-5.5823
-5.54509
-5.52354
-5.48725
-5.47045
-5.74723
-5.74667
-5.74546
-5.74361
-5.74129
-5.73825
-5.73486
-5.73094
-5.72655
-5.72214
-5.71697
-5.71262
-5.70723
-5.7046
-5.69993
-5.68426
-5.67201
-5.65073
-5.63077
-5.60001
-5.5781
-5.55505
-5.51571
-5.80057
-5.80018
-5.79876
-5.79663
-5.79383
-5.79035
-5.78633
-5.78192
-5.77686
-5.77192
-5.76574
-5.75998
-5.75057
-5.73738
-5.71331
-5.68988
-5.68322
-5.6723
-5.66362
-5.65339
-5.64526
-5.65169
-5.60862
-5.69155
-5.69154
-5.69135
-5.69112
-5.69075
-5.69026
-5.68984
-5.68949
-5.68931
-5.68985
-5.69132
-5.69671
-5.7072
-5.74121
-5.79624
-5.81427
-5.80707
-5.79512
-5.7769
-5.7548
-5.71756
-5.68975
-5.71254
-137.083
-418.921
-97.1013
-0.0542155
357.379
88.8425
192.29
234.751
627.773
372.078
210.373
319.141
599.761
436.451
313.366
290.213
251.427
206.062
132.484
100.346
44.1619
47.9522
32.8037
-73.4509
-4.68065
-4.53632
-1.26918
3.59018
-8.32784
-8.64312
-8.87439
-9.02014
-8.55748
-8.31502
-8.47609
-9.20584
-9.13937
-9.36899
-9.66239
-9.76289
-9.60378
-9.77356
-9.85965
-9.88943
-9.92517
-10.1487
-10.4985
-10.9274
-11.1978
-11.6294
-11.7777
-12.0363
-12.2735
-13.4122
-14.7822
-15.8674
-12.6921
-13.9624
-15.575
-17.9698
-12.8713
-14.0104
-15.1317
-15.8647
-12.5654
-13.7406
-14.8966
-16.0105
-11.0925
-12.0599
-13.1719
-14.3707
-9.77559
-10.1429
-10.7232
-10.589
-8.56702
-8.87128
-9.07242
-8.81232
-7.76249
-7.63441
-7.52748
-7.31239
-7.08933
-6.88118
-6.60243
-6.27176
-6.54491
-6.31286
-6.02421
-5.71958
-6.16825
-5.93893
-5.68047
-5.40143
-5.88488
-5.65869
-5.42376
-5.1707
-5.61304
-5.45102
-5.25187
-5.03484
-5.41094
-5.27684
-5.15094
-4.97961
-5.27622
-5.12875
-4.97249
-4.80468
-5.16443
-5.03247
-4.89475
-4.74327
-5.09135
-4.97816
-4.85871
-4.73009
-5.05923
-4.95954
-4.85344
-4.74016
-5.06661
-4.97547
-4.88195
-4.78412
-5.11406
-5.03009
-4.93739
-4.84855
-5.14681
-5.08011
-5.00012
-4.92287
-5.15434
-5.11226
-5.04958
-4.99072
-5.32325
-5.22751
-5.16493
-5.10085
-5.27311
-5.3035
-5.22994
-5.18486
-5.34227
-5.36294
-5.30747
-5.27561
-5.42131
-5.43543
-5.39466
-5.3687
-5.51017
-5.50638
-5.48429
-5.46672
-5.59478
-5.58723
-5.58908
-5.56939
-5.69809
-5.693
-5.68795
-5.67762
4.44903
4.4287
4.07175
4.22765
4.25735
4.36251
4.43291
4.50076
4.54207
4.58457
4.57796
4.57209
4.56243
4.54091
4.51814
4.50762
4.49014
4.48299
4.47741
-20.8138
3.1356
4.30332
3.84183
4.09262
4.22097
4.34082
4.4101
4.44965
4.43195
4.46095
4.46477
4.45892
4.42026
4.3963
4.37702
4.35827
4.34766
4.34159
-21.484
54.2957
-1.14137
2.90175
3.78545
3.98562
4.05282
4.21519
4.32837
4.41739
4.37825
4.37288
4.33169
4.29889
4.26672
4.24332
4.22203
4.20918
4.20222
126
161.501
-45.5568
-2.58451
3.76726
3.99779
4.05133
4.34096
4.42553
4.3431
4.32474
4.27296
4.23132
4.17723
4.1396
4.10718
4.08307
4.06701
4.05907
84.2952
417.75
-313.959
-54.3413
1.31483
2.82393
3.68976
4.14808
4.32517
4.28471
4.25784
4.16664
4.10659
4.04838
4.00315
3.9664
3.93877
3.92053
3.91147
-36.6469
-471.7
-459.836
-54.9594
-8.18737
3.08706
4.20056
4.43596
4.36119
4.25462
4.17177
4.06583
3.98943
3.91781
3.86431
3.82096
3.78974
3.76899
3.75886
-39.1839
-201.656
-209.567
-16.3049
-19.4576
2.09738
4.54243
4.60162
4.33828
4.20161
4.06411
3.94612
3.85441
3.77687
3.71635
3.66921
3.6346
3.61202
3.60079
-5.43703
-21.8763
-54.7029
58.8433
-2.76564
4.68944
4.74848
4.49751
4.30489
4.11128
3.95291
3.81857
3.7146
3.62895
3.56205
3.51068
3.47301
3.44873
3.43664
-11.675
-35.2437
11.6406
81.361
21.8337
6.19407
4.95666
4.54161
4.22054
3.98968
3.81054
3.66944
3.55788
3.4692
3.39815
3.34434
3.30465
3.27911
3.26632
-9.95169
-10.3512
21.5759
32.4319
6.9959
4.22584
4.77056
4.3941
4.05098
3.82651
3.64722
3.50551
3.39052
3.3001
3.2258
3.17049
3.12883
3.10252
3.0892
-9.73107
-6.93165
14.0347
-0.846164
1.20245
3.53185
4.29345
4.02797
3.80056
3.61478
3.45202
3.31993
3.20784
3.11915
3.04401
2.98814
2.9459
2.91921
2.90565
-10.9079
-6.51008
-6.22556
-6.84787
2.22405
3.37101
3.80223
3.6607
3.52373
3.3853
3.24271
3.12337
3.01516
2.93051
2.85353
2.79858
2.75552
2.7289
2.71516
-12.9945
-11.0058
-12.7967
2.57376
2.60681
2.53464
3.27221
3.30299
3.24089
3.14066
3.01983
2.91252
2.81103
2.732
2.655
2.60084
2.55829
2.53208
2.51854
-16.9534
-25.5367
60.1684
4.61416
2.31629
2.2403
2.83387
3.00632
2.99427
2.91265
2.79914
2.70057
2.60246
2.53064
2.44874
2.39683
2.35404
2.32863
2.3152
-24.0869
-11.794
-56.4337
4.90533
7.80879
3.0722
2.80534
2.86353
2.78054
2.68438
2.57069
2.47573
2.38183
2.32029
2.23364
2.18501
2.14381
2.11959
2.10678
-14.4248
-4.92518
-107.948
43.1111
7.08158
3.28063
2.69195
2.78368
2.58954
2.47761
2.35136
2.25856
2.16557
2.1253
2.01111
1.9667
1.92662
1.90365
1.89133
-16.8277
6.888
11.7805
9.28915
1.11011
2.73539
2.83286
2.57341
2.35663
2.21495
2.08964
1.99203
1.90683
1.82912
1.77928
1.74091
1.70586
1.6852
1.67396
-15.2393
-11.2916
-4.1358
-0.717449
1.51868
2.47149
2.33011
2.17211
2.02009
1.90747
1.80118
1.72018
1.64468
1.58867
1.5318
1.49631
1.46522
1.44708
1.43707
-10.2573
-6.92309
-3.87559
-1.06669
0.828416
1.63006
1.76517
1.73779
1.6358
1.5636
1.48687
1.42269
1.36415
1.31563
1.27438
1.24391
1.21868
1.20343
1.19513
-8.01251
-5.70466
-3.28375
-1.18497
0.244728
0.964341
1.20464
1.26795
1.22378
1.20423
1.15931
1.11786
1.07436
1.03959
1.00677
0.983123
0.962884
0.950714
0.943926
-6.46257
-4.7879
-2.99757
-1.39768
-0.237841
0.401159
0.694401
0.819853
0.836929
0.841543
0.825342
0.803807
0.779346
0.756104
0.733729
0.71671
0.70182
0.693139
0.688045
-5.61609
-4.3045
-2.88535
-1.6281
-0.678338
-0.0897166
0.231758
0.399917
0.459897
0.491648
0.494527
0.491461
0.480301
0.469797
0.456584
0.446202
0.436729
0.430688
0.427337
-5.15789
-4.0636
-2.91503
-1.88413
-1.07886
-0.529774
-0.187437
0.00368547
0.0990626
0.146999
0.172871
0.181744
0.184316
0.183148
0.178766
0.173859
0.168212
0.166226
0.164052
-4.8894
-3.96034
-2.99602
-2.12502
-1.4301
-0.921582
-0.551867
-0.367631
-0.248645
-0.187353
-0.151751
-0.122341
-0.110344
-0.102265
-0.0994388
-0.099343
-0.100509
-0.0997618
-0.100305
-4.70894
-3.90151
-3.10236
-2.35756
-1.74467
-1.27388
-0.897922
-0.706107
-0.579721
-0.510778
-0.459111
-0.417725
-0.400585
-0.383523
-0.376658
-0.370392
-0.368783
-0.365177
-0.364343
-4.61964
-3.92986
-3.21211
-2.55337
-2.02237
-1.61171
-1.16899
-1.05167
-0.89784
-0.831099
-0.783329
-0.713208
-0.692804
-0.663192
-0.653191
-0.642913
-0.633909
-0.62947
-0.628304
-4.6004
-3.90545
-3.33573
-2.76792
-2.28084
-1.89791
-1.59501
-1.29748
-1.19727
-1.15445
-1.04118
-0.998063
-0.972836
-0.937387
-0.925534
-0.912126
-0.901766
-0.89754
-0.895218
-4.5071
-4.06444
-3.44291
-2.88164
-2.53515
-2.17776
-1.88968
-1.6597
-1.44129
-1.39731
-1.33689
-1.29159
-1.26126
-1.2158
-1.201
-1.18068
-1.17259
-1.17322
-1.16821
-4.46672
-4.07803
-3.68589
-3.28756
-2.71969
-2.35513
-2.04743
-1.88967
-1.83477
-1.66842
-1.62992
-1.55858
-1.51736
-1.49692
-1.47838
-1.46305
-1.44358
-1.43862
-1.43346
-4.49947
-4.15023
-3.78627
-3.46677
-3.17452
-2.87411
-2.61528
-2.18074
-1.96563
-1.90571
-1.86621
-1.84814
-1.77542
-1.74939
-1.73024
-1.71826
-1.71773
-1.70482
-1.70457
-4.53864
-4.24483
-3.93997
-3.64516
-3.35593
-3.10346
-2.90256
-2.7525
-2.5597
-2.4287
-2.12764
-2.01301
-2.07693
-2.03804
-2.00296
-1.98576
-1.9703
-1.96021
-1.95753
-4.60727
-4.35229
-4.09222
-3.84297
-3.59847
-3.37375
-3.1754
-2.99314
-2.83981
-2.73144
-2.6773
-2.49228
-2.34489
-2.21572
-2.18743
-2.27882
-2.25594
-2.25069
-2.249
-4.68753
-4.46855
-4.2432
-4.02752
-3.81858
-3.62777
-3.45836
-3.30014
-3.16186
-3.05003
-2.94982
-2.89479
-2.85321
-2.78793
-2.66912
-2.51407
-2.44763
-2.43254
-2.42462
-4.78309
-4.59295
-4.40067
-4.21602
-4.03804
-3.87294
-3.7232
-3.58758
-3.4684
-3.36854
-3.27769
-3.1954
-3.13122
-3.07479
-3.07343
-3.06264
-3.0666
-3.05542
-3.04814
-4.87475
-4.71628
-4.5526
-4.39692
-4.2456
-4.10645
-3.97813
-3.86244
-3.75874
-3.67027
-3.59111
-3.52206
-3.46584
-3.41511
-3.37687
-3.34261
-3.31206
-3.29707
-3.28966
-4.9924
-4.85254
-4.71319
-4.58196
-4.45548
-4.33861
-4.23037
-4.13298
-4.0451
-3.96931
-3.90097
-3.84211
-3.79157
-3.75183
-3.7191
-3.69037
-3.67264
-3.66269
-3.6571
-5.09092
-4.98038
-4.86431
-4.75845
-4.65419
-4.55936
-4.47012
-4.39039
-4.31767
-4.25482
-4.19808
-4.14967
-4.10649
-4.06976
-4.04133
-4.01526
-3.9977
-3.99117
-3.98675
-5.20346
-5.11638
-5.02544
-4.94158
-4.85978
-4.78494
-4.71466
-4.65181
-4.59431
-4.54451
-4.49955
-4.46155
-4.42859
-4.40011
-4.37677
-4.35696
-4.34221
-4.33592
-4.33238
-5.31254
-5.24648
-5.17667
-5.11423
-5.05253
-4.99698
-4.9443
-4.8977
-4.85493
-4.81803
-4.78497
-4.75711
-4.73272
-4.71359
-4.69779
-4.68366
-4.6727
-4.66232
-4.65861
-5.43179
-5.38749
-5.34294
-5.30139
-5.26105
-5.22507
-5.19116
-5.16124
-5.1337
-5.10997
-5.0887
-5.07096
-5.05577
-5.04424
-5.03457
-5.02578
-5.01793
-5.0081
-5.00441
-5.5515
-5.51807
-5.48967
-5.46182
-5.43683
-5.4144
-5.39359
-5.37551
-5.359
-5.34491
-5.33238
-5.32202
-5.3133
-5.30661
-5.30108
-5.29626
-5.29217
-5.28842
-5.2866
-5.67259
-5.67079
-5.67593
-5.67747
-5.68196
-5.68596
-5.69023
-5.69413
-5.69779
-5.70109
-5.70406
-5.70678
-5.70921
-5.71142
-5.7133
-5.7146
-5.7155
-5.71587
-5.71527
)
;

boundaryField
{
    leftWall
    {
        type            calculated;
        value           nonuniform List<scalar> 
50
(
1697.87
1638.26
1577.77
1516.7
1454.58
1392.17
1328.43
1264.78
1162.11
1023.22
879.403
727.076
575.59
419.954
264.432
116.568
18.226
-3.02345
-3.83197
-3.98428
-4.15268
-4.36623
-4.53732
-4.6709
-4.78938
-4.73469
-5.4038
-5.43978
-5.5197
-5.53824
-5.50822
-5.67778
-5.29892
-5.47104
-5.39013
-5.83677
-5.7362
-5.77789
-5.7589
-5.76751
-5.74749
-5.73989
-5.73916
-5.73616
-5.74121
-5.74117
-5.75351
-5.74723
-5.80057
-5.69155
)
;
    }
    rightWall
    {
        type            calculated;
        value           nonuniform List<scalar> 
50
(
4.99921
4.94001
4.88036
4.8203
4.7598
4.69879
4.63732
4.57531
4.47741
4.34159
4.20222
4.05907
3.91147
3.75886
3.60079
3.43664
3.26632
3.0892
2.90565
2.71516
2.51854
2.3152
2.10678
1.89133
1.67396
1.43707
1.19513
0.943926
0.688045
0.427337
0.164052
-0.100305
-0.364343
-0.628304
-0.895218
-1.16821
-1.43346
-1.70457
-1.95753
-2.249
-2.42462
-3.04814
-3.28966
-3.6571
-3.98675
-4.33238
-4.65861
-5.00441
-5.2866
-5.71527
)
;
    }
    lowerWall
    {
        type            calculated;
        value           nonuniform List<scalar> 
62
(
1727.3
1731.13
1735.3
1735.86
1752.23
1750.52
1772.83
1786.65
1791.3
1858.78
1830.7
2041.95
1960.07
1976.49
2007.22
2034.76
2080.29
2117.85
2208.4
2325.5
2442.8
2551.35
2627.9
2598.76
2535.34
2429.77
2305.22
2157.47
1915.08
1572.87
1263.29
-74.502
-356.488
-38.3797
13.7545
4.96466
4.90265
4.83771
4.77391
4.73432
4.70093
4.6149
4.60378
4.99409
4.97742
4.95245
4.9355
4.92956
4.93917
4.95619
4.97512
5.0015
5.02211
5.03581
5.05017
5.04879
5.05663
5.04376
5.05087
5.03176
5.03376
5.02864
)
;
    }
    atmosphere
    {
        type            calculated;
        value           nonuniform List<scalar> 
46
(
-5.78109
-5.78158
-5.78083
-5.77975
-5.77832
-5.7766
-5.77463
-5.77252
-5.7702
-5.7681
-5.76572
-5.76462
-5.76294
-5.76685
-5.77038
-5.76691
-5.76292
-5.75591
-5.74992
-5.74302
-5.73799
-5.73397
-5.73203
-5.73023
-5.72958
-5.72959
-5.72904
-5.72904
-5.72904
-5.72904
-5.72904
-5.72904
-5.72904
-5.72904
-5.72904
-5.72904
-5.72904
-5.72904
-5.72904
-5.72904
-5.72904
-5.72904
-5.72904
-5.72904
-5.72904
-5.72904
)
;
    }
    defaultFaces
    {
        type            empty;
    }
}


// ************************************************************************* //
