/*--------------------------------*- C++ -*----------------------------------*\
| =========                 |                                                 |
| \\      /  F ield         | foam-extend: Open Source CFD                    |
|  \\    /   O peration     | Version:     4.1                                |
|   \\  /    A nd           | Web:         http://www.foam-extend.org         |
|    \\/     M anipulation  |                                                 |
\*---------------------------------------------------------------------------*/
FoamFile
{
    version     2.0;
    format      ascii;
    class       volVectorField;
    location    "0.2";
    object      U;
}
// * * * * * * * * * * * * * * * * * * * * * * * * * * * * * * * * * * * * * //

dimensions      [0 1 -1 0 0 0 0];

internalField   nonuniform List<vector> 
2268
(
(0.0485219 -0.00744769 0)
(0.0770444 -0.00733856 0)
(0.173313 -0.00866409 0)
(0.222428 -0.00545334 0)
(0.273097 -0.0111473 0)
(0.393231 -0.0075038 0)
(0.425169 -0.0067925 0)
(0.527721 -0.0129798 0)
(0.543048 -0.00346284 0)
(0.627949 -0.0185825 0)
(0.549307 -0.0498208 0)
(0.525907 -0.010824 0)
(0.600274 -0.00789586 0)
(0.645373 -0.0074499 0)
(0.664203 -0.000753816 0)
(0.677614 0.00166198 0)
(0.697549 0.00694825 0)
(0.692316 0.00626098 0)
(0.656026 0.0114823 0)
(0.577381 0.00800841 0)
(0.490193 0.0468157 0)
(0.301679 0.0260077 0)
(0.164535 0.0620341 0)
(0.0485907 -0.0219627 0)
(0.0776411 -0.0220008 0)
(0.174621 -0.0259824 0)
(0.221858 -0.0169499 0)
(0.276449 -0.0302394 0)
(0.395279 -0.027588 0)
(0.426612 -0.0253963 0)
(0.528955 -0.0169075 0)
(0.544733 -0.0174472 0)
(0.635065 0.00927881 0)
(0.550253 -0.148522 0)
(0.523228 -0.0552769 0)
(0.587199 -0.0415335 0)
(0.633395 -0.0354613 0)
(0.647703 -0.0157171 0)
(0.665075 -0.00290159 0)
(0.681023 0.0179259 0)
(0.675596 0.0159055 0)
(0.637673 0.0280405 0)
(0.572654 0.0654969 0)
(0.45498 0.0847032 0)
(0.338223 0.132475 0)
(0.126477 0.163921 0)
(0.0480004 -0.0370894 0)
(0.0776694 -0.0370511 0)
(0.174997 -0.0429019 0)
(0.219256 -0.0282927 0)
(0.281216 -0.0538696 0)
(0.391927 -0.0402573 0)
(0.425683 -0.0410038 0)
(0.521691 -0.0419269 0)
(0.589078 -0.0275808 0)
(0.567777 -0.0811147 0)
(0.519115 -0.178993 0)
(0.510505 -0.0889765 0)
(0.574145 -0.0679353 0)
(0.601966 -0.0491147 0)
(0.612426 -0.0186071 0)
(0.643412 -0.00249144 0)
(0.658888 0.0283606 0)
(0.65783 0.0240161 0)
(0.626345 0.0305684 0)
(0.575494 0.0900675 0)
(0.47925 0.151545 0)
(0.334348 0.178744 0)
(0.216173 0.269136 0)
(0.0473393 -0.0512731 0)
(0.0781976 -0.0518844 0)
(0.175741 -0.0596255 0)
(0.216268 -0.041081 0)
(0.295911 -0.0713159 0)
(0.379698 -0.0624015 0)
(0.420218 -0.0547336 0)
(0.553499 -0.0648883 0)
(0.502622 -0.0716422 0)
(0.480263 -0.158834 0)
(0.489542 -0.143923 0)
(0.482514 -0.0891795 0)
(0.527575 -0.0816091 0)
(0.54911 -0.0585854 0)
(0.576166 -0.0354839 0)
(0.60414 -0.0105816 0)
(0.622372 0.0184409 0)
(0.625923 0.0505707 0)
(0.624243 0.0725497 0)
(0.588433 0.118464 0)
(0.481486 0.196903 0)
(0.347518 0.267673 0)
(0.16247 0.427154 0)
(0.0460525 -0.0666788 0)
(0.0783185 -0.0675387 0)
(0.17494 -0.0752768 0)
(0.218009 -0.0562968 0)
(0.303018 -0.0938771 0)
(0.3617 -0.0662206 0)
(0.425762 -0.0883616 0)
(0.550669 -0.0524504 0)
(0.454539 -0.183533 0)
(0.422433 -0.13717 0)
(0.427132 -0.138977 0)
(0.446102 -0.1216 0)
(0.509447 -0.107829 0)
(0.532484 -0.0781215 0)
(0.575797 -0.0470365 0)
(0.591874 -0.0233747 0)
(0.644567 0.0112227 0)
(0.64574 0.0544249 0)
(0.655828 0.128346 0)
(0.613358 0.168471 0)
(0.524127 0.254966 0)
(0.420115 0.321212 0)
(0.276708 0.530795 0)
(0.0445866 -0.0800529 0)
(0.079741 -0.0822469 0)
(0.173317 -0.0928019 0)
(0.218893 -0.0709584 0)
(0.304947 -0.10639 0)
(0.356464 -0.0909708 0)
(0.462809 -0.109279 0)
(0.420249 -0.0947675 0)
(0.360881 -0.190014 0)
(0.371274 -0.147662 0)
(0.395616 -0.144325 0)
(0.455354 -0.143247 0)
(0.492955 -0.121324 0)
(0.557668 -0.09365 0)
(0.581586 -0.064682 0)
(0.619703 -0.0419221 0)
(0.683273 -0.00674219 0)
(0.67402 0.0587973 0)
(0.68751 0.112532 0)
(0.647613 0.175556 0)
(0.588539 0.298049 0)
(0.491492 0.395755 0)
(0.252495 0.763561 0)
(0.0415548 -0.0961573 0)
(0.0804647 -0.0982637 0)
(0.172345 -0.107147 0)
(0.218845 -0.0867184 0)
(0.300764 -0.125935 0)
(0.360578 -0.113347 0)
(0.385017 -0.0880613 0)
(0.351774 -0.194423 0)
(0.325276 -0.185667 0)
(0.350685 -0.160548 0)
(0.390639 -0.165135 0)
(0.461962 -0.171523 0)
(0.504016 -0.147185 0)
(0.573062 -0.125797 0)
(0.601429 -0.0748688 0)
(0.641521 -0.0683268 0)
(0.703975 -0.0179241 0)
(0.717217 0.0349103 0)
(0.720489 0.140365 0)
(0.718354 0.212009 0)
(0.615716 0.32978 0)
(0.678793 0.495306 0)
(0.449917 0.879958 0)
(0.0387364 -0.107569 0)
(0.0853106 -0.11269 0)
(0.168772 -0.126209 0)
(0.214599 -0.10799 0)
(0.290481 -0.147291 0)
(0.347481 -0.094345 0)
(0.29222 -0.141795 0)
(0.303823 -0.208317 0)
(0.309363 -0.1905 0)
(0.344076 -0.184649 0)
(0.407442 -0.192138 0)
(0.471353 -0.199505 0)
(0.516767 -0.173342 0)
(0.582838 -0.135577 0)
(0.611369 -0.0998459 0)
(0.68124 -0.0909455 0)
(0.710247 -0.0369489 0)
(0.778549 0.0236804 0)
(0.782163 0.0933024 0)
(0.785104 0.273944 0)
(0.73561 0.350399 0)
(0.734585 0.698193 0)
(0.444433 1.12664 0)
(-0.00713768 0.00993864 0)
(-0.027884 0.00655036 0)
(-0.0335849 0.00783142 0)
(-0.0566741 0.00720281 0)
(-0.0551362 0.00137702 0)
(-0.0514566 -0.00111167 0)
(-0.0474623 -0.00457878 0)
(-0.0266486 -0.0063243 0)
(-0.012453 -0.00580718 0)
(0.0056166 -0.00413367 0)
(0.0180025 -0.00659507 0)
(0.0327687 -0.000415044 0)
(0.0401767 -0.000724913 0)
(0.0480236 -0.00185756 0)
(0.057228 -0.00400153 0)
(0.0595889 0.00795181 0)
(0.05974 0.00192221 0)
(0.0282963 0.00234066 0)
(0.0125536 0.00210291 0)
(-0.00330901 0.0176487 0)
(-0.0345266 0.0044843 0)
(-0.0335605 0.0205519 0)
(-0.058913 0.0109791 0)
(-0.058172 -0.00622619 0)
(-0.050276 -0.00653385 0)
(-0.0454474 -0.0189603 0)
(-0.0233567 -0.0206097 0)
(-0.00637104 -0.019415 0)
(0.0108583 -0.0213277 0)
(0.0257112 -0.0149003 0)
(0.0413366 -0.00973406 0)
(0.047224 -0.00462833 0)
(0.0528726 -0.0141971 0)
(0.0679884 0.0021087 0)
(0.0668076 0.0131905 0)
(0.0617224 0.00628706 0)
(0.0308011 0.00720918 0)
(0.0134246 0.00691534 0)
(-0.00375097 0.0385882 0)
(-0.0289368 0.0182596 0)
(-0.0358354 0.0276674 0)
(-0.0672644 0.0252472 0)
(-0.0674847 -0.00425814 0)
(-0.0529547 -0.0135205 0)
(-0.0492752 -0.0305856 0)
(-0.0232206 -0.0341603 0)
(-0.00744111 -0.0354633 0)
(0.0136861 -0.030156 0)
(0.0289102 -0.0321982 0)
(0.0438095 -0.0154309 0)
(0.0453342 -0.00848119 0)
(0.0621879 -0.00814762 0)
(0.0759499 0.0210021 0)
(0.0654404 0.00766156 0)
(0.0618599 0.0104914 0)
(0.031259 0.0121159 0)
(0.0134917 0.011783 0)
(-0.0223154 0.0348655 0)
(-0.0375727 0.0138387 0)
(-0.0424702 0.0277562 0)
(-0.0686431 0.0349972 0)
(-0.0831214 -0.0127978 0)
(-0.0636614 -0.021975 0)
(-0.0538091 -0.0478123 0)
(-0.0250588 -0.0511786 0)
(-0.00576587 -0.0494307 0)
(0.0139465 -0.0518919 0)
(0.0295372 -0.0371115 0)
(0.0523444 -0.037318 0)
(0.0472173 -0.00570437 0)
(0.0725159 0.00272987 0)
(0.0771468 -0.000756867 0)
(0.0637719 0.0192057 0)
(0.0641383 0.0146955 0)
(0.0317463 0.0171746 0)
(0.013408 0.0167429 0)
(0.011111 0.0455687 0)
(-0.0311538 0.0253215 0)
(-0.0477268 0.055574 0)
(-0.0888541 0.0619375 0)
(-0.103881 -0.00939107 0)
(-0.0691783 -0.0389398 0)
(-0.0610281 -0.0671611 0)
(-0.0240566 -0.0718479 0)
(-0.00999445 -0.0683476 0)
(0.0201996 -0.0568661 0)
(0.0316853 -0.0650606 0)
(0.0576611 -0.0326967 0)
(0.0652212 -0.0159725 0)
(0.0691366 0.00508353 0)
(0.0800158 0.00368351 0)
(0.0726508 0.029687 0)
(0.0610577 0.0192426 0)
(0.0320035 0.0223138 0)
(0.0133946 0.0216991 0)
(-0.00179471 0.117308 0)
(-0.0176247 0.0281568 0)
(-0.0609356 0.126282 0)
(-0.11819 0.0701461 0)
(-0.149277 -0.0250899 0)
(-0.0899603 -0.0572831 0)
(-0.0654868 -0.0879659 0)
(-0.0252545 -0.0908462 0)
(-0.00547278 -0.0826211 0)
(0.0144962 -0.0937509 0)
(0.0424095 -0.0551972 0)
(0.0715844 -0.0285167 0)
(0.0635495 -0.0186474 0)
(0.0854344 -0.00560144 0)
(0.0867319 0.0239172 0)
(0.0703226 0.0273342 0)
(0.0609475 0.0238765 0)
(0.0326206 0.0271332 0)
(0.0132595 0.0266531 0)
(-0.000998911 -0.0460385 0)
(-0.0531203 0.029808 0)
(-0.133109 0.145052 0)
(-0.207757 0.0582407 0)
(-0.180217 -0.00428623 0)
(-0.114834 -0.104814 0)
(-0.0824232 -0.130183 0)
(-0.0298052 -0.121507 0)
(-0.0176602 -0.100511 0)
(0.0323309 -0.0746806 0)
(0.0603373 -0.0401978 0)
(0.0725602 -0.0346982 0)
(0.074506 -0.0208779 0)
(0.0874511 -0.0016907 0)
(0.0948029 0.0163651 0)
(0.073211 0.0309924 0)
(0.0609151 0.0284308 0)
(0.0332605 0.0320837 0)
(0.0133308 0.031744 0)
(0.019018 0.288576 0)
(-0.0574622 0.146353 0)
(-0.24737 0.133176 0)
(-0.316218 -0.0185086 0)
(-0.237185 0.00276843 0)
(-0.168465 -0.13945 0)
(-0.0963331 -0.160127 0)
(-0.0345943 -0.148899 0)
(0.0109626 -0.121541 0)
(0.0403218 -0.0516308 0)
(0.0609308 -0.0575749 0)
(0.0814166 -0.0432925 0)
(0.0795921 -0.0237477 0)
(0.0987777 0.0204953 0)
(0.100739 0.0234753 0)
(0.0761371 0.0343736 0)
(0.0613644 0.0332927 0)
(0.0341462 0.0371044 0)
(0.0132916 0.0368603 0)
(0.0327247 -0.135466 0)
(0.0855153 -0.137632 0)
(0.155376 -0.147089 0)
(0.182488 -0.102721 0)
(0.285101 -0.155476 0)
(0.242504 -0.169256 0)
(0.243637 -0.209451 0)
(0.28723 -0.213551 0)
(0.30157 -0.201863 0)
(0.343977 -0.227401 0)
(0.429713 -0.235968 0)
(0.475355 -0.242464 0)
(0.534872 -0.196049 0)
(0.607045 -0.195197 0)
(0.660094 -0.115206 0)
(0.715891 -0.137133 0)
(0.806171 -0.0793455 0)
(0.81808 -0.014876 0)
(0.909657 0.00391456 0)
(0.874489 0.225754 0)
(0.918073 0.406356 0)
(1.14634 0.904796 0)
(0.911485 1.30336 0)
(0.0393133 -0.15528 0)
(0.0663644 -0.169841 0)
(0.166703 -0.163349 0)
(0.15231 -0.194496 0)
(0.165995 -0.18754 0)
(0.208797 -0.234504 0)
(0.227699 -0.215408 0)
(0.262862 -0.235127 0)
(0.288007 -0.247938 0)
(0.360832 -0.308639 0)
(0.419498 -0.311263 0)
(0.482062 -0.290373 0)
(0.580217 -0.317926 0)
(0.664444 -0.228933 0)
(0.679716 -0.207426 0)
(0.734951 -0.209484 0)
(0.845966 -0.122679 0)
(0.776523 0.00884333 0)
(0.932799 0.155694 0)
(1.31211 0.348791 0)
(1.39738 0.692513 0)
(1.25317 0.83244 0)
(1.29244 1.00473 0)
(0.0263894 -0.188401 0)
(0.0493056 -0.204293 0)
(0.0987161 -0.193414 0)
(0.130039 -0.238793 0)
(0.158229 -0.221074 0)
(0.189218 -0.233445 0)
(0.216805 -0.261763 0)
(0.248609 -0.279579 0)
(0.280507 -0.295115 0)
(0.331632 -0.371105 0)
(0.394767 -0.350561 0)
(0.482743 -0.409901 0)
(0.622424 -0.337924 0)
(0.624874 -0.368241 0)
(0.651533 -0.424549 0)
(0.776184 -0.367909 0)
(0.845032 -0.211381 0)
(1.03522 -0.131033 0)
(1.09835 0.21602 0)
(1.23536 0.252915 0)
(1.38284 0.5251 0)
(1.3936 0.624457 0)
(1.36384 0.904738 0)
(0.0256155 -0.232574 0)
(0.0527764 -0.24149 0)
(0.0996887 -0.241109 0)
(0.122665 -0.24883 0)
(0.149223 -0.248106 0)
(0.183536 -0.274276 0)
(0.201804 -0.282367 0)
(0.215063 -0.292523 0)
(0.237197 -0.330766 0)
(0.267881 -0.418563 0)
(0.348005 -0.46955 0)
(0.521634 -0.496472 0)
(0.522317 -0.539708 0)
(0.460396 -0.54006 0)
(0.579988 -0.484169 0)
(0.897239 -0.474879 0)
(0.968639 -0.218883 0)
(1.14166 -0.227567 0)
(1.26034 -0.00138347 0)
(1.38517 0.0739228 0)
(1.40277 0.290569 0)
(1.50326 0.368367 0)
(1.48589 0.547214 0)
(0.0181606 -0.26647 0)
(0.0524699 -0.276761 0)
(0.0838506 -0.263075 0)
(0.116052 -0.282612 0)
(0.144948 -0.28241 0)
(0.163065 -0.285883 0)
(0.182416 -0.299454 0)
(0.180046 -0.318948 0)
(0.20433 -0.352664 0)
(0.183296 -0.486829 0)
(0.325467 -0.582975 0)
(0.421794 -0.575348 0)
(0.521436 -0.706771 0)
(0.551634 -0.679397 0)
(0.661742 -0.602102 0)
(0.915392 -0.627672 0)
(1.04158 -0.579078 0)
(1.14292 -0.348726 0)
(1.55991 -0.186246 0)
(1.65918 0.0883623 0)
(1.53847 0.329573 0)
(1.47526 0.430894 0)
(1.47796 0.510882 0)
(0.0209845 -0.304989 0)
(0.050626 -0.305658 0)
(0.0890907 -0.308044 0)
(0.117726 -0.305782 0)
(0.141056 -0.295718 0)
(0.161847 -0.304762 0)
(0.176012 -0.307263 0)
(0.165794 -0.308276 0)
(0.129787 -0.34466 0)
(0.144595 -0.529564 0)
(0.292189 -0.759649 0)
(0.444672 -0.713219 0)
(0.441298 -0.77967 0)
(0.510419 -0.813743 0)
(0.616253 -0.875455 0)
(0.812287 -0.949398 0)
(1.11416 -0.818884 0)
(1.2576 0.323352 0)
(1.3253 0.024962 0)
(1.43844 0.103801 0)
(1.47481 -0.515597 0)
(1.57484 0.248258 0)
(1.52814 0.56 0)
(0.0166492 -0.338459 0)
(0.0544155 -0.344633 0)
(0.086282 -0.330559 0)
(0.117652 -0.334061 0)
(0.144613 -0.326177 0)
(0.16444 -0.313124 0)
(0.174723 -0.298732 0)
(0.151952 -0.280474 0)
(0.0920873 -0.350343 0)
(0.192221 -0.676927 0)
(0.292788 -0.926961 0)
(0.286028 -0.778868 0)
(0.298264 -0.88992 0)
(0.425918 -1.04134 0)
(0.502769 -0.987843 0)
(0.616405 -1.0239 0)
(0.789515 -0.961682 0)
(1.20826 -0.37415 0)
(1.44643 -0.512687 0)
(1.5728 -0.122695 0)
(2.32859 0.125525 0)
(1.96954 0.733136 0)
(1.50892 0.0993451 0)
(0.0211831 -0.377315 0)
(0.0561311 -0.37407 0)
(0.0918454 -0.373817 0)
(0.128498 -0.361826 0)
(0.152018 -0.345638 0)
(0.177401 -0.331808 0)
(0.188054 -0.280323 0)
(0.13563 -0.223086 0)
(0.0780767 -0.385638 0)
(0.247247 -0.766098 0)
(0.105093 -0.933607 0)
(0.257206 -0.704988 0)
(0.294179 -1.15318 0)
(0.397987 -1.10132 0)
(0.517195 -1.04297 0)
(0.633947 -1.2117 0)
(0.746674 -1.0477 0)
(0.88052 -0.425552 0)
(0.911044 -0.246633 0)
(1.02218 0.194946 0)
(1.41465 0.133799 0)
(2.25638 0.392237 0)
(2.15227 0.767807 0)
(0.0175693 -0.415284 0)
(0.0578953 -0.416565 0)
(0.0960959 -0.400853 0)
(0.128971 -0.39278 0)
(0.169783 -0.37914 0)
(0.185729 -0.351645 0)
(0.210853 -0.25636 0)
(0.0848744 -0.182116 0)
(0.160023 -0.368815 0)
(0.165154 -0.770363 0)
(0.230138 -0.886177 0)
(0.685567 -0.991381 0)
(0.834314 -1.34058 0)
(0.863892 -1.3185 0)
(0.956591 -1.09403 0)
(0.741597 -1.19413 0)
(0.755094 -1.0451 0)
(0.887925 -0.56995 0)
(0.653174 -0.30359 0)
(0.73402 -0.346957 0)
(1.0591 -0.112222 0)
(2.14909 0.053889 0)
(2.13091 0.455186 0)
(0.0320184 -0.444271 0)
(0.0625697 -0.439673 0)
(0.111582 -0.437356 0)
(0.138622 -0.42504 0)
(0.206223 -0.380852 0)
(0.206198 -0.348261 0)
(0.281003 -0.162563 0)
(0.130096 -0.182666 0)
(0.34197 -0.387941 0)
(0.823267 -0.751975 0)
(0.9763 -1.18893 0)
(1.22194 -1.34489 0)
(1.21479 -1.4295 0)
(1.30899 -1.42488 0)
(1.29703 -1.26061 0)
(1.01805 -1.20045 0)
(0.788519 -0.884962 0)
(0.70554 -0.516899 0)
(0.581663 -0.343024 0)
(0.493632 -0.293656 0)
(0.612662 -0.157763 0)
(0.872661 -0.180821 0)
(0.84999 -0.0386572 0)
(0.0193276 -0.509684 0)
(0.0489683 -0.503591 0)
(0.129964 -0.48157 0)
(0.165946 -0.489624 0)
(0.244541 -0.49939 0)
(0.406633 -0.452647 0)
(0.6135 -0.227002 0)
(0.700368 -0.308383 0)
(1.03032 -0.501946 0)
(1.21187 -0.919061 0)
(1.46776 -1.36718 0)
(1.45937 -1.35117 0)
(1.31956 -1.27164 0)
(1.27585 -1.05425 0)
(1.45489 -0.991661 0)
(1.23087 -1.12729 0)
(1.02066 -0.975986 0)
(0.610747 -0.541083 0)
(0.388993 -0.303949 0)
(0.374002 -0.321201 0)
(0.437835 -0.340543 0)
(0.646547 -0.228225 0)
(0.82982 -0.126094 0)
(0.0116728 -0.53152 0)
(0.0386509 -0.559314 0)
(0.0834057 -0.556141 0)
(0.150891 -0.556856 0)
(0.267607 -0.55951 0)
(0.443264 -0.654459 0)
(0.978826 -0.436173 0)
(1.18566 -0.785827 0)
(1.26772 -0.855803 0)
(1.20554 -1.0715 0)
(1.56253 -1.42746 0)
(1.53174 -1.50914 0)
(1.40426 -1.20227 0)
(1.19865 -0.849643 0)
(1.08298 -0.42722 0)
(0.875828 -0.51592 0)
(0.904982 -0.478543 0)
(0.794714 -0.337761 0)
(0.345779 -0.308284 0)
(0.24853 -0.427773 0)
(0.363226 -0.496848 0)
(0.536721 -0.523728 0)
(1.03768 -0.576967 0)
(0.00236877 -0.569533 0)
(0.0387552 -0.578092 0)
(0.0563182 -0.6554 0)
(0.14333 -0.624122 0)
(0.138666 -0.609515 0)
(0.307089 -0.72012 0)
(0.652814 -0.860526 0)
(0.555721 -1.20128 0)
(0.829228 -1.343 0)
(0.929863 -1.48269 0)
(1.32767 -1.73077 0)
(1.29998 -1.69941 0)
(1.22905 -1.45117 0)
(0.674602 -1.11881 0)
(0.614776 -0.405103 0)
(0.524967 -0.464498 0)
(0.351217 -0.224032 0)
(0.219974 -0.193158 0)
(0.0786264 -0.427343 0)
(0.160139 -0.569137 0)
(0.269303 -0.71113 0)
(0.476637 -0.699611 0)
(1.04857 -0.652432 0)
(-0.00836087 -0.583805 0)
(0.0257516 -0.588391 0)
(0.0136914 -0.687663 0)
(0.0879182 -0.634438 0)
(0.0870725 -0.691716 0)
(0.232133 -0.745319 0)
(0.326242 -1.04535 0)
(0.181828 -1.24484 0)
(0.479181 -1.69468 0)
(0.564173 -1.90811 0)
(0.769489 -2.05868 0)
(0.440961 -1.9561 0)
(-0.0460589 -1.71928 0)
(-0.249757 -1.06176 0)
(-0.1508 -0.57227 0)
(-0.0706897 -0.588378 0)
(-0.0845263 0.0449913 0)
(-0.190693 -0.155677 0)
(-0.0838801 -0.505571 0)
(-0.0821977 -0.677537 0)
(0.15824 -0.605544 0)
(0.344412 -0.821106 0)
(0.559432 -0.887259 0)
(-0.020783 -0.588885 0)
(0.0280542 -0.599117 0)
(0.014183 -0.723206 0)
(0.0536302 -0.642324 0)
(0.0130624 -0.689236 0)
(0.072016 -0.812153 0)
(0.0707046 -1.00112 0)
(-0.0791604 -1.24097 0)
(-0.0645966 -1.38145 0)
(0.224945 -1.90849 0)
(-0.0203482 -1.91675 0)
(-0.466385 -1.36653 0)
(-0.641073 -0.973904 0)
(-0.822591 -0.693148 0)
(-0.607394 -0.349966 0)
(-0.491729 -0.207836 0)
(-0.580859 -0.126402 0)
(-0.672166 -0.184205 0)
(-0.359527 -0.500351 0)
(-0.062747 -0.581711 0)
(0.0544913 -0.694593 0)
(-0.014557 -0.939152 0)
(0.18777 -0.970735 0)
(-0.0248869 -0.604006 0)
(0.018489 -0.633034 0)
(-0.0165072 -0.762406 0)
(0.0366368 -0.67323 0)
(-0.00015554 -0.691891 0)
(-0.00274779 -0.816671 0)
(-0.0484452 -0.981544 0)
(-0.128001 -1.03911 0)
(-0.291058 -1.11388 0)
(-0.429772 -1.29427 0)
(-0.257891 -1.28696 0)
(-0.69795 -0.993123 0)
(-0.922801 -0.986893 0)
(-0.95358 -0.892698 0)
(-0.771122 -0.533552 0)
(-0.628875 -0.46409 0)
(-0.626081 -0.449237 0)
(-0.503297 -0.460102 0)
(-0.412747 -0.573336 0)
(-0.410207 -0.729527 0)
(-0.369574 -0.926764 0)
(-0.299428 -0.998562 0)
(-0.230873 -1.17237 0)
(-0.028321 -0.604208 0)
(0.0104524 -0.639595 0)
(-0.0287089 -0.770207 0)
(0.0204073 -0.665669 0)
(-0.0263236 -0.599199 0)
(-0.10889 -0.785864 0)
(-0.126872 -0.890538 0)
(-0.215634 -0.98882 0)
(-0.349934 -1.08335 0)
(-0.576461 -1.05588 0)
(-0.618482 -1.19334 0)
(-0.902106 -0.943807 0)
(-1.03599 -0.842419 0)
(-0.962639 -0.626395 0)
(-0.827084 -0.464842 0)
(-0.731065 -0.431006 0)
(-0.648567 -0.475144 0)
(-0.612109 -0.582347 0)
(-0.650773 -0.602228 0)
(-0.612893 -0.737288 0)
(-0.57022 -0.774916 0)
(-0.690542 -1.01091 0)
(-0.798915 -1.20248 0)
(-0.0200421 -0.50991 0)
(-0.00286106 -0.559908 0)
(-0.0377882 -0.742231 0)
(0.0761207 -0.573721 0)
(-0.0427152 -0.661243 0)
(-0.170812 -0.715509 0)
(-0.177167 -0.801129 0)
(-0.308995 -0.863487 0)
(-0.449999 -1.03713 0)
(-0.602953 -0.994845 0)
(-0.577789 -0.920271 0)
(-0.994758 -0.884625 0)
(-1.24036 -0.836165 0)
(-0.920689 -0.583182 0)
(-0.649972 -0.416341 0)
(-0.66633 -0.382775 0)
(-0.782508 -0.467804 0)
(-0.694297 -0.514044 0)
(-0.654892 -0.50147 0)
(-0.717232 -0.51039 0)
(-0.738537 -0.706515 0)
(-0.870378 -0.89247 0)
(-1.09412 -1.15153 0)
(-0.0340342 -0.907256 0)
(-0.121864 -0.870352 0)
(-0.0462456 -0.742127 0)
(-0.141165 -0.925549 0)
(-0.129521 -1.00558 0)
(-0.0473224 -0.994188 0)
(-0.269969 -0.99736 0)
(-0.453778 -0.943797 0)
(-0.477999 -1.06524 0)
(-0.653736 -1.01481 0)
(-0.81446 -0.837357 0)
(-0.903453 -0.99028 0)
(-0.998461 -0.790979 0)
(-0.640117 -0.492033 0)
(-0.603966 -0.364409 0)
(-0.887939 -0.288921 0)
(-0.929579 -0.437044 0)
(-0.652926 -0.426956 0)
(-0.638432 -0.466 0)
(-0.722739 -0.491028 0)
(-0.752061 -0.591619 0)
(-0.883389 -0.731069 0)
(-1.12334 -0.879794 0)
(-0.0233681 -1.0819 0)
(0.108739 -1.07032 0)
(-0.0525094 -1.06789 0)
(-0.253549 -1.0864 0)
(-0.210099 -1.08394 0)
(-0.151958 -1.13202 0)
(-0.0971161 -1.17644 0)
(-0.452959 -1.08951 0)
(-0.467108 -1.05142 0)
(-0.451375 -1.14944 0)
(-0.859509 -0.934581 0)
(-1.10664 -0.935108 0)
(-0.874494 -0.642001 0)
(-0.549592 -0.535159 0)
(-0.515297 -0.553866 0)
(-0.883375 -0.390645 0)
(-0.981036 -0.396868 0)
(-0.801452 -0.334416 0)
(-0.73747 -0.411564 0)
(-0.750137 -0.439651 0)
(-0.818282 -0.5158 0)
(-0.955878 -0.62553 0)
(-1.19986 -0.771453 0)
(0.00362917 -1.07566 0)
(-0.0304241 -1.05922 0)
(-0.0851076 -1.16217 0)
(-0.189689 -1.09454 0)
(-0.185507 -1.10878 0)
(-0.224147 -1.03089 0)
(-0.269906 -1.00676 0)
(-0.240564 -1.07815 0)
(-0.391157 -0.808793 0)
(-0.433446 -0.892209 0)
(-0.509257 -1.03883 0)
(-0.782533 -0.815933 0)
(-0.706392 -0.560843 0)
(-0.598487 -0.592132 0)
(-0.567875 -0.652379 0)
(-0.864724 -0.583665 0)
(-0.943956 -0.477517 0)
(-0.782271 -0.395033 0)
(-0.778553 -0.385988 0)
(-0.8133 -0.408636 0)
(-0.885472 -0.46891 0)
(-1.03102 -0.520719 0)
(-1.22709 -0.558527 0)
(0.00357697 -1.01398 0)
(-0.0417161 -1.03006 0)
(-0.104062 -1.03221 0)
(-0.223311 -1.08464 0)
(-0.203319 -1.10619 0)
(-0.178097 -1.0443 0)
(-0.268402 -0.888718 0)
(-0.182572 -0.748916 0)
(-0.243084 -0.795445 0)
(-0.41088 -0.790964 0)
(-0.522959 -0.798615 0)
(-0.567278 -0.750316 0)
(-0.567096 -0.698676 0)
(-0.528481 -0.693002 0)
(-0.452912 -0.714187 0)
(-0.706123 -0.723752 0)
(-0.852401 -0.439194 0)
(-0.789993 -0.407007 0)
(-0.813272 -0.365219 0)
(-0.864489 -0.397661 0)
(-0.94179 -0.415932 0)
(-1.05845 -0.432812 0)
(-1.20936 -0.429506 0)
(-0.00341888 -0.945397 0)
(-0.0691842 -0.967709 0)
(-0.198508 -1.00836 0)
(-0.256445 -0.940581 0)
(-0.129209 -0.743151 0)
(-0.17796 -0.972604 0)
(-0.0808683 -0.706314 0)
(-0.13435 -0.594454 0)
(-0.347694 -0.713874 0)
(-0.315456 -0.790299 0)
(-0.311705 -0.753177 0)
(-0.391233 -0.689192 0)
(-0.417408 -0.670575 0)
(-0.458607 -0.685705 0)
(-0.43154 -0.732516 0)
(-0.414156 -0.716053 0)
(-0.694257 -0.493379 0)
(-0.777823 -0.418997 0)
(-0.799394 -0.387445 0)
(-0.887112 -0.365506 0)
(-0.938105 -0.374 0)
(-1.05116 -0.368717 0)
(-1.18802 -0.308459 0)
(-0.0264575 -0.953064 0)
(-0.114279 -0.977828 0)
(-0.203729 -0.87508 0)
(-0.0363017 -0.642345 0)
(-0.11365 -0.581193 0)
(-0.0928972 -0.611448 0)
(-0.08487 -0.512854 0)
(-0.261226 -0.507275 0)
(-0.29589 -0.593616 0)
(-0.288442 -0.534231 0)
(-0.346639 -0.595174 0)
(-0.365128 -0.587968 0)
(-0.397013 -0.604176 0)
(-0.450546 -0.609817 0)
(-0.34501 -0.580276 0)
(-0.385682 -0.616011 0)
(-0.663488 -0.513581 0)
(-0.713123 -0.420456 0)
(-0.752059 -0.473119 0)
(-0.868245 -0.404054 0)
(-0.929616 -0.323862 0)
(-1.01399 -0.287071 0)
(-1.11103 -0.238293 0)
(0.00729521 -0.574566 0)
(-0.0222538 -0.596226 0)
(0.0567709 -0.61466 0)
(0.0365227 -0.501135 0)
(-0.0902322 -0.530011 0)
(-0.0755483 -0.491791 0)
(-0.0759769 -0.480017 0)
(-0.265076 -0.626175 0)
(-0.385648 -0.610893 0)
(-0.331926 -0.609501 0)
(-0.334051 -0.612734 0)
(-0.320996 -0.607255 0)
(-0.348766 -0.61536 0)
(-0.362695 -0.649072 0)
(-0.349123 -0.534058 0)
(-0.294016 -0.67389 0)
(-0.439801 -0.500786 0)
(-0.72637 -0.42286 0)
(-0.797962 -0.406001 0)
(-0.782057 -0.361547 0)
(-0.834317 -0.304058 0)
(-0.959937 -0.294545 0)
(-1.06299 -0.217499 0)
(-0.0140968 -0.425266 0)
(-0.0219403 -0.450364 0)
(-0.0382459 -0.426143 0)
(-0.0557699 -0.438102 0)
(-0.100172 -0.409846 0)
(-0.0316263 -0.477977 0)
(-0.332133 -0.697122 0)
(-0.444268 -0.794037 0)
(-0.299584 -0.64296 0)
(-0.250979 -0.608439 0)
(-0.292217 -0.556431 0)
(-0.314033 -0.545191 0)
(-0.38917 -0.535639 0)
(-0.329208 -0.513691 0)
(-0.309226 -0.52821 0)
(-0.314895 -0.598894 0)
(-0.421268 -0.614202 0)
(-0.650788 -0.455941 0)
(-0.731162 -0.324261 0)
(-0.774413 -0.276266 0)
(-0.854887 -0.31269 0)
(-0.920075 -0.272211 0)
(-0.957422 -0.187278 0)
(-0.00945893 -0.397675 0)
(-0.00266323 -0.427341 0)
(0.019724 -0.452701 0)
(0.0274429 -0.569019 0)
(-0.132416 -0.665542 0)
(-0.314477 -0.673255 0)
(-0.416322 -0.814405 0)
(-0.287466 -0.623801 0)
(-0.254426 -0.566548 0)
(-0.280586 -0.561442 0)
(-0.277248 -0.526424 0)
(-0.284946 -0.516041 0)
(-0.317611 -0.475253 0)
(-0.33116 -0.424633 0)
(-0.387323 -0.476476 0)
(-0.339373 -0.487852 0)
(-0.289744 -0.594995 0)
(-0.443022 -0.557344 0)
(-0.575298 -0.391723 0)
(-0.721947 -0.311525 0)
(-0.796861 -0.30034 0)
(-0.866156 -0.154657 0)
(-0.914333 -0.123906 0)
(-0.0130865 -0.673249 0)
(-0.0698116 -0.697708 0)
(-0.219617 -0.674722 0)
(-0.241282 -0.757829 0)
(-0.177288 -0.779083 0)
(-0.283153 -0.799627 0)
(-0.233899 -0.686654 0)
(-0.207998 -0.587855 0)
(-0.235104 -0.5948 0)
(-0.239166 -0.540336 0)
(-0.248715 -0.518487 0)
(-0.264367 -0.487028 0)
(-0.275465 -0.474327 0)
(-0.279897 -0.419784 0)
(-0.317 -0.416175 0)
(-0.343582 -0.377999 0)
(-0.373541 -0.460882 0)
(-0.341432 -0.427085 0)
(-0.371058 -0.455603 0)
(-0.655605 -0.293438 0)
(-0.744718 -0.254618 0)
(-0.738517 -0.162442 0)
(-0.822989 -0.110091 0)
(-0.021946 -0.787706 0)
(-0.0548839 -0.813954 0)
(-0.123676 -0.811857 0)
(-0.150791 -0.712292 0)
(-0.188757 -0.692646 0)
(-0.290214 -0.688741 0)
(-0.236514 -0.567184 0)
(-0.174242 -0.579124 0)
(-0.221362 -0.534734 0)
(-0.218727 -0.51395 0)
(-0.23589 -0.496657 0)
(-0.242776 -0.469384 0)
(-0.253591 -0.453998 0)
(-0.272846 -0.406502 0)
(-0.302173 -0.414875 0)
(-0.334749 -0.398425 0)
(-0.276256 -0.396059 0)
(-0.296337 -0.383666 0)
(-0.323221 -0.451549 0)
(-0.450612 -0.364759 0)
(-0.689696 -0.164713 0)
(-0.714698 -0.15028 0)
(-0.767436 -0.090583 0)
(-0.0246715 -0.697579 0)
(-0.0647221 -0.708487 0)
(-0.133002 -0.693614 0)
(-0.15834 -0.681578 0)
(-0.218178 -0.703847 0)
(-0.173887 -0.612049 0)
(-0.155158 -0.546422 0)
(-0.178689 -0.549878 0)
(-0.183946 -0.517454 0)
(-0.200634 -0.496494 0)
(-0.202152 -0.467734 0)
(-0.227675 -0.448821 0)
(-0.214622 -0.422115 0)
(-0.256579 -0.35772 0)
(-0.285724 -0.38284 0)
(-0.301901 -0.351688 0)
(-0.318884 -0.329969 0)
(-0.347516 -0.413111 0)
(-0.310425 -0.308119 0)
(-0.350108 -0.365987 0)
(-0.599282 -0.202692 0)
(-0.68924 -0.0910482 0)
(-0.686531 -0.0589468 0)
(-0.0224394 -0.68895 0)
(-0.0608085 -0.699719 0)
(-0.101438 -0.676176 0)
(-0.166767 -0.677628 0)
(-0.142094 -0.594422 0)
(-0.136357 -0.546314 0)
(-0.156366 -0.538689 0)
(-0.158327 -0.518039 0)
(-0.172925 -0.500586 0)
(-0.176719 -0.47737 0)
(-0.179334 -0.45657 0)
(-0.194623 -0.446163 0)
(-0.156746 -0.426753 0)
(-0.253024 -0.410701 0)
(-0.309758 -0.379544 0)
(-0.280088 -0.357188 0)
(-0.314785 -0.325994 0)
(-0.265157 -0.30847 0)
(-0.281376 -0.276045 0)
(-0.356488 -0.323631 0)
(-0.351991 -0.296623 0)
(-0.57418 -0.09758 0)
(-0.678432 -0.0753747 0)
(-0.0280817 -0.63284 0)
(-0.0420706 -0.631744 0)
(-0.123605 -0.630961 0)
(-0.108058 -0.586732 0)
(-0.103641 -0.547091 0)
(-0.127045 -0.543575 0)
(-0.125088 -0.516434 0)
(-0.144973 -0.5084 0)
(-0.146231 -0.485396 0)
(-0.164146 -0.475415 0)
(-0.165116 -0.452947 0)
(-0.184752 -0.443406 0)
(-0.194076 -0.428896 0)
(-0.216392 -0.458034 0)
(-0.228605 -0.35828 0)
(-0.240717 -0.331311 0)
(-0.262106 -0.298153 0)
(-0.272324 -0.263417 0)
(-0.273197 -0.30453 0)
(-0.303323 -0.275821 0)
(-0.278222 -0.26665 0)
(-0.421086 -0.231303 0)
(-0.58167 -0.014227 0)
(-0.0100195 -0.608078 0)
(-0.0367661 -0.601776 0)
(-0.0583174 -0.590242 0)
(-0.0877162 -0.53778 0)
(-0.0912652 -0.53978 0)
(-0.107483 -0.509169 0)
(-0.115307 -0.501443 0)
(-0.127065 -0.476103 0)
(-0.134067 -0.464027 0)
(-0.145097 -0.442455 0)
(-0.151216 -0.427711 0)
(-0.162784 -0.412018 0)
(-0.168288 -0.391986 0)
(-0.199226 -0.377109 0)
(-0.209855 -0.340288 0)
(-0.224465 -0.321102 0)
(-0.24113 -0.294787 0)
(-0.255269 -0.261799 0)
(-0.279157 -0.265429 0)
(-0.281106 -0.193758 0)
(-0.245738 -0.179779 0)
(-0.26025 -0.195182 0)
(-0.488888 -0.00755109 0)
(-0.0154678 -0.541795 0)
(-0.0300073 -0.542995 0)
(-0.0566122 -0.53765 0)
(-0.0655057 -0.527376 0)
(-0.0798914 -0.506955 0)
(-0.0901364 -0.499728 0)
(-0.0994333 -0.478344 0)
(-0.109923 -0.470663 0)
(-0.116772 -0.449629 0)
(-0.12746 -0.43902 0)
(-0.133219 -0.4174 0)
(-0.144548 -0.403671 0)
(-0.151076 -0.37981 0)
(-0.162925 -0.3685 0)
(-0.17244 -0.322081 0)
(-0.196801 -0.300142 0)
(-0.207933 -0.265515 0)
(-0.248102 -0.243498 0)
(-0.198693 -0.210961 0)
(-0.204928 -0.161683 0)
(-0.266717 -0.142298 0)
(-0.205443 -0.173346 0)
(-0.370534 -0.170532 0)
(-0.0056508 -0.517834 0)
(-0.0232422 -0.522095 0)
(-0.033766 -0.51555 0)
(-0.0508116 -0.495608 0)
(-0.0599315 -0.491955 0)
(-0.0724326 -0.470705 0)
(-0.0816123 -0.463006 0)
(-0.0912446 -0.442463 0)
(-0.100603 -0.431092 0)
(-0.109034 -0.411519 0)
(-0.117914 -0.397118 0)
(-0.126939 -0.377975 0)
(-0.134321 -0.359422 0)
(-0.145529 -0.336789 0)
(-0.153988 -0.309449 0)
(-0.168312 -0.287349 0)
(-0.175418 -0.257871 0)
(-0.187432 -0.228339 0)
(-0.195808 -0.176353 0)
(-0.186808 -0.194505 0)
(-0.205704 -0.129177 0)
(-0.199657 -0.129015 0)
(-0.255195 -0.164286 0)
(-0.00818988 -0.483015 0)
(-0.0180341 -0.486979 0)
(-0.0341844 -0.482 0)
(-0.0420603 -0.475845 0)
(-0.0531016 -0.462781 0)
(-0.0618351 -0.456349 0)
(-0.0693673 -0.440893 0)
(-0.07833 -0.431739 0)
(-0.0840703 -0.414566 0)
(-0.0928439 -0.40235 0)
(-0.0980059 -0.383236 0)
(-0.106755 -0.367932 0)
(-0.111958 -0.346011 0)
(-0.120596 -0.327825 0)
(-0.125994 -0.297952 0)
(-0.1433 -0.277284 0)
(-0.150758 -0.248184 0)
(-0.163824 -0.226424 0)
(-0.16611 -0.19377 0)
(-0.147991 -0.175447 0)
(-0.190885 -0.142278 0)
(-0.203235 -0.119539 0)
(-0.13497 -0.103646 0)
(-0.00363074 -0.466607 0)
(-0.0137964 -0.47205 0)
(-0.0206367 -0.467519 0)
(-0.0307967 -0.45889 0)
(-0.0372694 -0.451867 0)
(-0.0454489 -0.439589 0)
(-0.0524925 -0.429601 0)
(-0.059778 -0.415082 0)
(-0.0669709 -0.402432 0)
(-0.0743007 -0.385627 0)
(-0.0811684 -0.370371 0)
(-0.088835 -0.351622 0)
(-0.0942942 -0.333222 0)
(-0.101659 -0.310831 0)
(-0.106283 -0.285958 0)
(-0.116969 -0.263466 0)
(-0.124828 -0.236184 0)
(-0.131934 -0.212971 0)
(-0.146319 -0.189566 0)
(-0.141474 -0.193997 0)
(-0.15267 -0.151752 0)
(-0.150683 -0.0942776 0)
(-0.174602 -0.0570209 0)
(-0.0042724 -0.445146 0)
(-0.011795 -0.450016 0)
(-0.0207369 -0.446086 0)
(-0.0273516 -0.439712 0)
(-0.0347346 -0.432173 0)
(-0.0405213 -0.422888 0)
(-0.0461619 -0.411808 0)
(-0.0509851 -0.399806 0)
(-0.0551761 -0.385761 0)
(-0.0593143 -0.371254 0)
(-0.0620423 -0.355056 0)
(-0.0661473 -0.339254 0)
(-0.0684916 -0.322019 0)
(-0.0742128 -0.3034 0)
(-0.0776931 -0.281501 0)
(-0.0894325 -0.259092 0)
(-0.102167 -0.235042 0)
(-0.106376 -0.206854 0)
(-0.138095 -0.184926 0)
(-0.108363 -0.152271 0)
(-0.0986737 -0.132061 0)
(-0.103029 -0.0975266 0)
(-0.136384 -0.0730972 0)
(-0.00232112 -0.436603 0)
(-0.00720057 -0.44114 0)
(-0.0123277 -0.438015 0)
(-0.0171248 -0.432525 0)
(-0.0218841 -0.426553 0)
(-0.0264291 -0.417925 0)
(-0.0306105 -0.409116 0)
(-0.0347351 -0.397767 0)
(-0.0379905 -0.386057 0)
(-0.0417611 -0.372133 0)
(-0.0436831 -0.357145 0)
(-0.0478728 -0.338612 0)
(-0.0487053 -0.317851 0)
(-0.0546867 -0.293676 0)
(-0.0569506 -0.269748 0)
(-0.0646123 -0.245181 0)
(-0.0734203 -0.218214 0)
(-0.0781946 -0.188529 0)
(-0.0883074 -0.164687 0)
(-0.0871827 -0.116921 0)
(-0.0933337 -0.115398 0)
(-0.084706 -0.0852994 0)
(-0.116309 -0.0946579 0)
(-0.00165806 -0.411723 0)