/*--------------------------------*- C++ -*----------------------------------*\
| =========                 |                                                 |
| \\      /  F ield         | foam-extend: Open Source CFD                    |
|  \\    /   O peration     | Version:     4.1                                |
|   \\  /    A nd           | Web:         http://www.foam-extend.org         |
|    \\/     M anipulation  |                                                 |
\*---------------------------------------------------------------------------*/
FoamFile
{
    version     2.0;
    format      ascii;
    class       volVectorField;
    location    "0.2";
    object      U_0;
}
// * * * * * * * * * * * * * * * * * * * * * * * * * * * * * * * * * * * * * //

dimensions      [0 1 -1 0 0 0 0];

internalField   nonuniform List<vector> 
2268
(
(0.0487361 -0.00748514 0)
(0.0776499 -0.0073754 0)
(0.174332 -0.00870411 0)
(0.223817 -0.00550413 0)
(0.275133 -0.0111946 0)
(0.39592 -0.00755749 0)
(0.428 -0.00681308 0)
(0.530834 -0.013055 0)
(0.546771 -0.00340104 0)
(0.632146 -0.0184008 0)
(0.553403 -0.0499961 0)
(0.530235 -0.0113762 0)
(0.6045 -0.00796277 0)
(0.649831 -0.00741213 0)
(0.667958 -0.000738867 0)
(0.682024 0.00162797 0)
(0.701811 0.00703004 0)
(0.696785 0.0065095 0)
(0.659229 0.011575 0)
(0.581055 0.00839305 0)
(0.492587 0.0471441 0)
(0.302557 0.0263504 0)
(0.165745 0.0621409 0)
(0.0488074 -0.0220824 0)
(0.0782365 -0.0221168 0)
(0.175632 -0.0261 0)
(0.223264 -0.0170729 0)
(0.278512 -0.0304973 0)
(0.397895 -0.027657 0)
(0.429425 -0.0254743 0)
(0.532082 -0.0169315 0)
(0.54861 -0.0176165 0)
(0.638967 0.00873237 0)
(0.554342 -0.149125 0)
(0.527482 -0.0561936 0)
(0.591635 -0.0420811 0)
(0.637812 -0.035485 0)
(0.651436 -0.0156531 0)
(0.669529 -0.00259365 0)
(0.685288 0.017753 0)
(0.679977 0.0162232 0)
(0.640563 0.0283873 0)
(0.57596 0.0656317 0)
(0.457348 0.0853774 0)
(0.340325 0.132917 0)
(0.127673 0.164948 0)
(0.0482264 -0.037281 0)
(0.078252 -0.0372383 0)
(0.176008 -0.0431051 0)
(0.220666 -0.0285357 0)
(0.283244 -0.0542031 0)
(0.394478 -0.0404023 0)
(0.428582 -0.0411779 0)
(0.524982 -0.042225 0)
(0.592899 -0.02775 0)
(0.571208 -0.0820316 0)
(0.522987 -0.179764 0)
(0.514337 -0.0903646 0)
(0.578702 -0.0685034 0)
(0.606256 -0.0490236 0)
(0.616755 -0.0185316 0)
(0.64835 -0.00203655 0)
(0.663417 0.0282553 0)
(0.662407 0.0237974 0)
(0.629788 0.0306603 0)
(0.579501 0.0905274 0)
(0.482015 0.152319 0)
(0.335649 0.179477 0)
(0.217819 0.270486 0)
(0.0475773 -0.0515472 0)
(0.078753 -0.0521516 0)
(0.176753 -0.0599039 0)
(0.21762 -0.0413814 0)
(0.297802 -0.071821 0)
(0.38229 -0.0626652 0)
(0.423197 -0.054892 0)
(0.557014 -0.0652206 0)
(0.50662 -0.0723523 0)
(0.48376 -0.159995 0)
(0.493253 -0.144962 0)
(0.486563 -0.09044 0)
(0.532423 -0.0823653 0)
(0.553591 -0.0585644 0)
(0.58076 -0.0355716 0)
(0.609255 -0.00999483 0)
(0.627447 0.018784 0)
(0.630831 0.0502615 0)
(0.629147 0.0730961 0)
(0.592547 0.11954 0)
(0.484662 0.198522 0)
(0.349446 0.26945 0)
(0.163739 0.429846 0)
(0.0463092 -0.0670222 0)
(0.0788545 -0.0678768 0)
(0.175981 -0.0756347 0)
(0.219319 -0.0567284 0)
(0.304855 -0.0945351 0)
(0.364221 -0.0664524 0)
(0.428979 -0.0889529 0)
(0.554115 -0.0528673 0)
(0.458313 -0.184705 0)
(0.426231 -0.138913 0)
(0.431095 -0.140141 0)
(0.450751 -0.12331 0)
(0.514347 -0.108646 0)
(0.536933 -0.0778247 0)
(0.580465 -0.0471635 0)
(0.59707 -0.0232825 0)
(0.650607 0.0111671 0)
(0.651143 0.0554199 0)
(0.660845 0.130161 0)
(0.617567 0.1698 0)
(0.529163 0.256912 0)
(0.423557 0.322472 0)
(0.279278 0.534309 0)
(0.0448701 -0.0804722 0)
(0.0802346 -0.0826658 0)
(0.174334 -0.0932184 0)
(0.220219 -0.0713803 0)
(0.306831 -0.107089 0)
(0.358827 -0.0916025 0)
(0.466225 -0.10977 0)
(0.423793 -0.0957772 0)
(0.364602 -0.19147 0)
(0.374932 -0.149376 0)
(0.39973 -0.145849 0)
(0.46026 -0.145101 0)
(0.497693 -0.121731 0)
(0.562629 -0.0935803 0)
(0.586195 -0.0652123 0)
(0.626255 -0.0417983 0)
(0.689034 -0.00667213 0)
(0.679397 0.0595855 0)
(0.692478 0.114312 0)
(0.652692 0.176733 0)
(0.592962 0.299996 0)
(0.494967 0.398735 0)
(0.254771 0.7686 0)
(0.0418765 -0.09666 0)
(0.0809314 -0.0987605 0)
(0.173402 -0.107646 0)
(0.220276 -0.087379 0)
(0.302619 -0.126834 0)
(0.363255 -0.114011 0)
(0.388367 -0.0889126 0)
(0.355031 -0.196088 0)
(0.328747 -0.187503 0)
(0.354364 -0.162527 0)
(0.395087 -0.167083 0)
(0.467019 -0.173469 0)
(0.508781 -0.147932 0)
(0.578552 -0.125673 0)
(0.606441 -0.0756599 0)
(0.647456 -0.06875 0)
(0.709872 -0.0172263 0)
(0.723246 0.036224 0)
(0.72597 0.141879 0)
(0.724345 0.214013 0)
(0.620699 0.331766 0)
(0.683189 0.497702 0)
(0.453985 0.886475 0)
(0.0390895 -0.108113 0)
(0.0857286 -0.11324 0)
(0.169822 -0.126802 0)
(0.216163 -0.108646 0)
(0.292553 -0.148347 0)
(0.350231 -0.0951765 0)
(0.294933 -0.143003 0)
(0.306763 -0.210267 0)
(0.312563 -0.192415 0)
(0.347964 -0.186764 0)
(0.411732 -0.194353 0)
(0.476264 -0.201649 0)
(0.521864 -0.17395 0)
(0.588231 -0.135403 0)
(0.617063 -0.100726 0)
(0.687245 -0.0914229 0)
(0.71632 -0.0368951 0)
(0.786026 0.0243804 0)
(0.788506 0.0945126 0)
(0.791298 0.275812 0)
(0.741854 0.353392 0)
(0.738802 0.702629 0)
(0.447208 1.13338 0)
(-0.00772365 0.00968625 0)
(-0.0294211 0.00627928 0)
(-0.035037 0.0072818 0)
(-0.0575699 0.00696517 0)
(-0.0550607 0.00119829 0)
(-0.0505427 -0.00117039 0)
(-0.0462311 -0.00460907 0)
(-0.025058 -0.00633589 0)
(-0.010758 -0.00538543 0)
(0.0068847 -0.00402073 0)
(0.0190713 -0.00640717 0)
(0.0333015 -0.000258522 0)
(0.040476 -0.00070103 0)
(0.0479181 -0.00157442 0)
(0.0570871 -0.00398122 0)
(0.0592207 0.00793118 0)
(0.0591654 0.00193276 0)
(0.0281219 0.00231281 0)
(0.0123683 0.00207579 0)
(-0.00385044 0.0169141 0)
(-0.0361948 0.00400083 0)
(-0.0349928 0.0191326 0)
(-0.0595918 0.0101626 0)
(-0.0579741 -0.00674288 0)
(-0.0492619 -0.00679913 0)
(-0.0441442 -0.0189084 0)
(-0.0215389 -0.0204615 0)
(-0.00459687 -0.0186286 0)
(0.0120346 -0.0208121 0)
(0.0267956 -0.0144153 0)
(0.0417888 -0.00957057 0)
(0.0475406 -0.00434675 0)
(0.0527084 -0.0139125 0)
(0.0677273 0.00231349 0)
(0.0663766 0.0130718 0)
(0.0610988 0.00626371 0)
(0.0305885 0.00711816 0)
(0.0132284 0.00682673 0)
(-0.00414974 0.0377453 0)
(-0.0307328 0.0182635 0)
(-0.0374358 0.0267087 0)
(-0.0677018 0.023757 0)
(-0.0671087 -0.00515203 0)
(-0.0517946 -0.0139556 0)
(-0.0478134 -0.0303319 0)
(-0.0212795 -0.0335712 0)
(-0.00556156 -0.0346605 0)
(0.0148308 -0.0290476 0)
(0.0298299 -0.0312374 0)
(0.0442288 -0.0144313 0)
(0.0456754 -0.0081461 0)
(0.0619958 -0.00764687 0)
(0.0755805 0.0207494 0)
(0.0649273 0.00785429 0)
(0.0612391 0.0104186 0)
(0.0310273 0.011971 0)
(0.0132951 0.0116274 0)
(-0.0226117 0.0361535 0)
(-0.0392647 0.0138089 0)
(-0.0445855 0.0267293 0)
(-0.0692546 0.0330952 0)
(-0.0824481 -0.0141641 0)
(-0.062214 -0.0225797 0)
(-0.0520706 -0.0474923 0)
(-0.0230063 -0.050393 0)
(-0.00376871 -0.0483336 0)
(0.0151914 -0.0501234 0)
(0.030577 -0.0355499 0)
(0.0525454 -0.0354371 0)
(0.047313 -0.005349 0)
(0.07218 0.00325557 0)
(0.0766906 -0.000287652 0)
(0.0633764 0.0192031 0)
(0.0633641 0.0146221 0)
(0.0314782 0.0169559 0)
(0.0132063 0.0165203 0)
(0.010498 0.0496013 0)
(-0.0338231 0.0264675 0)
(-0.0502402 0.0510201 0)
(-0.0895794 0.0582487 0)
(-0.102824 -0.0108834 0)
(-0.0674244 -0.0396213 0)
(-0.0590028 -0.0666209 0)
(-0.0217588 -0.0709181 0)
(-0.00766288 -0.0666515 0)
(0.0215428 -0.0545617 0)
(0.032618 -0.0628087 0)
(0.0576012 -0.0312388 0)
(0.065003 -0.015089 0)
(0.0690504 0.005501 0)
(0.079376 0.00404718 0)
(0.0719228 0.0294359 0)
(0.060361 0.0191327 0)
(0.0317187 0.0220183 0)
(0.0131974 0.0214019 0)
(-0.00325915 0.118074 0)
(-0.0227846 0.0322037 0)
(-0.0658105 0.117415 0)
(-0.117363 0.0669462 0)
(-0.14732 -0.026487 0)
(-0.0877868 -0.0576842 0)
(-0.0630024 -0.0873013 0)
(-0.0226358 -0.0896111 0)
(-0.00286646 -0.0805468 0)
(0.0159629 -0.0902684 0)
(0.0430526 -0.0530671 0)
(0.0711637 -0.0268348 0)
(0.0632442 -0.0172289 0)
(0.0848886 -0.00475834 0)
(0.0859545 0.0239097 0)
(0.0697249 0.0272722 0)
(0.0601609 0.0237137 0)
(0.0322918 0.0267735 0)
(0.0130573 0.0262798 0)
(0.000103235 -0.0465299 0)
(-0.0598606 0.0439044 0)
(-0.141255 0.136115 0)
(-0.20571 0.0534611 0)
(-0.178345 -0.00713756 0)
(-0.111909 -0.105088 0)
(-0.0796015 -0.12914 0)
(-0.0267463 -0.119303 0)
(-0.0144213 -0.0985776 0)
(0.033598 -0.07204 0)
(0.0604902 -0.0385985 0)
(0.0721087 -0.0329671 0)
(0.0739237 -0.0193354 0)
(0.0867695 -0.000865906 0)
(0.0937897 0.0167387 0)
(0.072398 0.0307842 0)
(0.0600957 0.0282207 0)
(0.0328897 0.0316418 0)
(0.0131278 0.0312918 0)
(0.0236229 0.302811 0)
(-0.0658001 0.148514 0)
(-0.261832 0.122614 0)
(-0.314138 -0.0248547 0)
(-0.234374 -0.00282031 0)
(-0.164328 -0.139956 0)
(-0.0927166 -0.158834 0)
(-0.0315757 -0.145857 0)
(0.0137633 -0.119171 0)
(0.04161 -0.0495576 0)
(0.0611518 -0.0555879 0)
(0.0808903 -0.0423214 0)
(0.0788556 -0.0217659 0)
(0.0978506 0.0208932 0)
(0.0995746 0.0236549 0)
(0.0752456 0.0341363 0)
(0.0604815 0.0330046 0)
(0.0337247 0.0365852 0)
(0.0130844 0.036318 0)
(0.0330453 -0.136186 0)
(0.0859593 -0.138311 0)
(0.156399 -0.1479 0)
(0.183881 -0.103449 0)
(0.286919 -0.156617 0)
(0.244542 -0.170838 0)
(0.245929 -0.21133 0)
(0.289799 -0.215679 0)
(0.304631 -0.204208 0)
(0.348147 -0.230038 0)
(0.434233 -0.238428 0)
(0.480141 -0.244764 0)
(0.540397 -0.196951 0)
(0.613217 -0.195969 0)
(0.665982 -0.11607 0)
(0.722145 -0.137408 0)
(0.813287 -0.0790434 0)
(0.825098 -0.0146903 0)
(0.916586 0.00477064 0)
(0.881928 0.227703 0)
(0.924132 0.410696 0)
(1.14994 0.910665 0)
(0.9157 1.31555 0)
(0.0395142 -0.156089 0)
(0.0668342 -0.170792 0)
(0.167667 -0.16424 0)
(0.153428 -0.195906 0)
(0.167199 -0.189095 0)
(0.210266 -0.236526 0)
(0.229426 -0.217677 0)
(0.265282 -0.237508 0)
(0.290815 -0.251263 0)
(0.365035 -0.312285 0)
(0.424034 -0.313506 0)
(0.487312 -0.293585 0)
(0.586029 -0.320182 0)
(0.672131 -0.230481 0)
(0.687027 -0.20971 0)
(0.741602 -0.210212 0)
(0.853231 -0.122515 0)
(0.783777 0.0109398 0)
(0.940658 0.160109 0)
(1.32124 0.35372 0)
(1.40602 0.69929 0)
(1.26139 0.838037 0)
(1.2982 1.0185 0)
(0.0264896 -0.189378 0)
(0.0494773 -0.205436 0)
(0.0991127 -0.19455 0)
(0.130648 -0.240419 0)
(0.159026 -0.222821 0)
(0.190109 -0.235504 0)
(0.218201 -0.264456 0)
(0.25041 -0.282848 0)
(0.283098 -0.299148 0)
(0.336036 -0.375722 0)
(0.399638 -0.354005 0)
(0.488432 -0.413952 0)
(0.630074 -0.340868 0)
(0.633058 -0.370381 0)
(0.660036 -0.425931 0)
(0.785347 -0.369067 0)
(0.854693 -0.211994 0)
(1.0449 -0.131356 0)
(1.1067 0.218464 0)
(1.24454 0.25806 0)
(1.39234 0.533031 0)
(1.40678 0.634219 0)
(1.36945 0.90929 0)
(0.0256948 -0.233677 0)
(0.0529036 -0.242694 0)
(0.0999914 -0.242435 0)
(0.122942 -0.250543 0)
(0.149727 -0.250077 0)
(0.184174 -0.276731 0)
(0.202261 -0.28549 0)
(0.216554 -0.295993 0)
(0.238927 -0.336491 0)
(0.271944 -0.424575 0)
(0.353042 -0.472226 0)
(0.52479 -0.505227 0)
(0.530927 -0.544631 0)
(0.468531 -0.543416 0)
(0.587509 -0.486686 0)
(0.904329 -0.476654 0)
(0.97771 -0.218817 0)
(1.1524 -0.230362 0)
(1.27511 -0.00214156 0)
(1.3984 0.0748325 0)
(1.41232 0.288519 0)
(1.51362 0.371852 0)
(1.49812 0.549677 0)
(0.0181134 -0.267604 0)
(0.0524937 -0.278001 0)
(0.0838322 -0.264487 0)
(0.115971 -0.284328 0)
(0.144867 -0.284618 0)
(0.162954 -0.288654 0)
(0.181979 -0.302832 0)
(0.179436 -0.323411 0)
(0.204684 -0.358966 0)
(0.1851 -0.494648 0)
(0.328178 -0.585146 0)
(0.424778 -0.581617 0)
(0.529862 -0.715279 0)
(0.559123 -0.685443 0)
(0.668834 -0.606249 0)
(0.924349 -0.627341 0)
(1.05383 -0.579568 0)
(1.15523 -0.348049 0)
(1.57451 -0.180403 0)
(1.6603 0.098467 0)
(1.54146 0.336841 0)
(1.48883 0.436403 0)
(1.48518 0.518405 0)
(0.0209252 -0.306135 0)
(0.0504998 -0.306872 0)
(0.0888766 -0.30943 0)
(0.117395 -0.307264 0)
(0.140536 -0.29761 0)
(0.161045 -0.307384 0)
(0.174859 -0.310615 0)
(0.163594 -0.312778 0)
(0.127522 -0.352489 0)
(0.139152 -0.538031 0)
(0.290203 -0.757089 0)
(0.449627 -0.719751 0)
(0.450914 -0.787184 0)
(0.519514 -0.816305 0)
(0.624077 -0.879345 0)
(0.823669 -0.95602 0)
(1.12876 -0.816522 0)
(1.26688 0.314447 0)
(1.33586 0.032693 0)
(1.4514 0.117202 0)
(1.48456 -0.529126 0)
(1.58248 0.264194 0)
(1.53791 0.574014 0)
(0.0165134 -0.339452 0)
(0.0541841 -0.345684 0)
(0.086001 -0.331849 0)
(0.117143 -0.335464 0)
(0.143808 -0.327624 0)
(0.163143 -0.314974 0)
(0.172759 -0.301057 0)
(0.147435 -0.283545 0)
(0.0861917 -0.355463 0)
(0.184382 -0.683958 0)
(0.289242 -0.940977 0)
(0.290375 -0.794765 0)
(0.312449 -0.892699 0)
(0.432401 -1.04184 0)
(0.511592 -1.00269 0)
(0.60606 -1.03737 0)
(0.790579 -0.962986 0)
(1.22675 -0.356203 0)
(1.46293 -0.490859 0)
(1.60076 -0.123166 0)
(2.35894 0.0995712 0)
(1.97548 0.748651 0)
(1.51708 0.142516 0)
(0.0209702 -0.37813 0)
(0.0558877 -0.375118 0)
(0.0914518 -0.374885 0)
(0.128126 -0.362872 0)
(0.15106 -0.346971 0)
(0.17666 -0.33264 0)
(0.186323 -0.280743 0)
(0.132354 -0.223503 0)
(0.0702697 -0.389244 0)
(0.249324 -0.784543 0)
(0.0945468 -0.96127 0)
(0.251982 -0.738596 0)
(0.289473 -1.13225 0)
(0.397265 -1.09958 0)
(0.51271 -1.06058 0)
(0.628216 -1.23575 0)
(0.728848 -1.05075 0)
(0.850853 -0.408294 0)
(0.890901 -0.241721 0)
(1.01234 0.198904 0)
(1.41963 0.141937 0)
(2.25022 0.415689 0)
(2.17472 0.841248 0)
(0.0175017 -0.416286 0)
(0.0575464 -0.417682 0)
(0.0957157 -0.402542 0)
(0.128752 -0.394153 0)
(0.168398 -0.381012 0)
(0.185998 -0.353127 0)
(0.209766 -0.256564 0)
(0.0810048 -0.177819 0)
(0.146921 -0.365104 0)
(0.15465 -0.788761 0)
(0.196082 -0.912752 0)
(0.632073 -1.00026 0)
(0.779276 -1.36465 0)
(0.797556 -1.30576 0)
(0.911436 -1.09795 0)
(0.707489 -1.22384 0)
(0.728734 -1.04741 0)
(0.853779 -0.556993 0)
(0.627484 -0.326232 0)
(0.71774 -0.367517 0)
(1.05229 -0.114952 0)
(2.14563 0.0884065 0)
(2.11267 0.522088 0)
(0.0306736 -0.444444 0)
(0.0621733 -0.440566 0)
(0.109826 -0.438792 0)
(0.1379 -0.424903 0)
(0.204178 -0.382691 0)
(0.205065 -0.35061 0)
(0.278229 -0.159192 0)
(0.120721 -0.170642 0)
(0.333933 -0.386266 0)
(0.782663 -0.746179 0)
(0.912914 -1.17524 0)
(1.17223 -1.34387 0)
(1.17732 -1.43921 0)
(1.27664 -1.42783 0)
(1.27192 -1.25688 0)
(0.963162 -1.22294 0)
(0.757521 -0.895315 0)
(0.674636 -0.52151 0)
(0.557927 -0.358631 0)
(0.476307 -0.310149 0)
(0.584537 -0.16119 0)
(0.851933 -0.17394 0)
(0.822574 -0.00361384 0)
(0.0193436 -0.50668 0)
(0.0484893 -0.501703 0)
(0.127939 -0.480872 0)
(0.159937 -0.489503 0)
(0.236984 -0.497873 0)
(0.399668 -0.449398 0)
(0.585933 -0.214411 0)
(0.666594 -0.299633 0)
(1.01191 -0.495586 0)
(1.22469 -0.924683 0)
(1.45028 -1.37871 0)
(1.44114 -1.36278 0)
(1.2973 -1.26512 0)
(1.27604 -1.0587 0)
(1.42767 -1.00714 0)
(1.17161 -1.14946 0)
(0.993879 -0.981836 0)
(0.583988 -0.540115 0)
(0.378364 -0.308211 0)
(0.354529 -0.32972 0)
(0.395833 -0.345874 0)
(0.602911 -0.222883 0)
(0.7967 -0.108654 0)
(0.0114568 -0.531584 0)
(0.0375659 -0.559498 0)
(0.0820227 -0.552433 0)
(0.150571 -0.553086 0)
(0.265719 -0.557753 0)
(0.447696 -0.644404 0)
(0.979202 -0.418601 0)
(1.19643 -0.77164 0)
(1.27681 -0.830368 0)
(1.22241 -1.06676 0)
(1.56288 -1.45183 0)
(1.53107 -1.51294 0)
(1.40101 -1.19614 0)
(1.19214 -0.847858 0)
(1.07097 -0.452642 0)
(0.857252 -0.537119 0)
(0.902466 -0.479764 0)
(0.772184 -0.332316 0)
(0.327385 -0.321748 0)
(0.231885 -0.441099 0)
(0.330863 -0.503023 0)
(0.513326 -0.525466 0)
(1.02034 -0.56284 0)
(0.0024419 -0.573429 0)
(0.0366455 -0.581223 0)
(0.0554722 -0.655205 0)
(0.143197 -0.622988 0)
(0.141227 -0.609183 0)
(0.315047 -0.717847 0)
(0.666476 -0.849885 0)
(0.577132 -1.19344 0)
(0.851133 -1.33069 0)
(0.971871 -1.46998 0)
(1.35165 -1.72525 0)
(1.3345 -1.70087 0)
(1.27647 -1.44131 0)
(0.70802 -1.11806 0)
(0.645647 -0.419687 0)
(0.532522 -0.475109 0)
(0.350639 -0.217705 0)
(0.213609 -0.191189 0)
(0.0691512 -0.424906 0)
(0.147813 -0.574627 0)
(0.234985 -0.714366 0)
(0.455186 -0.693968 0)
(1.01921 -0.684962 0)
(-0.0073988 -0.588761 0)
(0.0256806 -0.593056 0)
(0.013493 -0.68828 0)
(0.0874273 -0.636264 0)
(0.0885201 -0.692132 0)
(0.233494 -0.742641 0)
(0.332329 -1.04447 0)
(0.191035 -1.24544 0)
(0.492607 -1.69503 0)
(0.588667 -1.91069 0)
(0.798747 -2.06458 0)
(0.510104 -1.9685 0)
(0.0281654 -1.74534 0)
(-0.201332 -1.09383 0)
(-0.108989 -0.577249 0)
(-0.0501545 -0.586509 0)
(-0.0792052 0.0505449 0)
(-0.195068 -0.143295 0)
(-0.0965379 -0.485225 0)
(-0.103786 -0.671898 0)
(0.127716 -0.617142 0)
(0.284625 -0.815782 0)
(0.486262 -0.914409 0)
(-0.0204505 -0.589998 0)
(0.0282446 -0.600607 0)
(0.014753 -0.723491 0)
(0.0535697 -0.643065 0)
(0.0133551 -0.68978 0)
(0.0739701 -0.811262 0)
(0.0756839 -1.0015 0)
(-0.0746872 -1.24103 0)
(-0.0557573 -1.39119 0)
(0.246238 -1.92396 0)
(0.0215335 -1.94804 0)
(-0.439285 -1.38454 0)
(-0.636645 -0.982496 0)
(-0.810562 -0.680589 0)
(-0.604412 -0.334508 0)
(-0.496091 -0.181705 0)
(-0.591087 -0.102839 0)
(-0.689062 -0.157899 0)
(-0.375195 -0.477418 0)
(-0.104598 -0.566725 0)
(0.0243364 -0.669451 0)
(-0.0535472 -0.928873 0)
(0.0885356 -0.952156 0)
(-0.0261138 -0.604146 0)
(0.0171677 -0.632351 0)
(-0.0162822 -0.763413 0)
(0.0371922 -0.673047 0)
(-0.000504553 -0.693228 0)
(-0.00185615 -0.816989 0)
(-0.0461199 -0.985664 0)
(-0.127693 -1.0435 0)
(-0.290496 -1.12471 0)
(-0.426841 -1.30811 0)
(-0.257369 -1.30072 0)
(-0.707283 -0.982818 0)
(-0.934264 -0.962006 0)
(-0.967565 -0.892242 0)
(-0.785853 -0.522403 0)
(-0.64258 -0.440316 0)
(-0.641925 -0.422849 0)
(-0.521674 -0.427404 0)
(-0.427062 -0.553287 0)
(-0.420172 -0.696012 0)
(-0.401708 -0.893138 0)
(-0.35837 -0.974814 0)
(-0.322477 -1.14145 0)
(-0.0294995 -0.603212 0)
(0.00871951 -0.637904 0)
(-0.0282849 -0.769954 0)
(0.0218314 -0.663928 0)
(-0.0267853 -0.600551 0)
(-0.110018 -0.786306 0)
(-0.127473 -0.893623 0)
(-0.218737 -0.994425 0)
(-0.352255 -1.09064 0)
(-0.582813 -1.06064 0)
(-0.633067 -1.20063 0)
(-0.922524 -0.938716 0)
(-1.05773 -0.839607 0)
(-0.976058 -0.605908 0)
(-0.84501 -0.444398 0)
(-0.756266 -0.405596 0)
(-0.670069 -0.445443 0)
(-0.632959 -0.556107 0)
(-0.668296 -0.577423 0)
(-0.6322 -0.713776 0)
(-0.602402 -0.753627 0)
(-0.740132 -0.958727 0)
(-0.882007 -1.13784 0)
(-0.0210535 -0.509633 0)
(-0.00414372 -0.558182 0)
(-0.0371277 -0.737844 0)
(0.0776637 -0.573535 0)
(-0.0431708 -0.662771 0)
(-0.172132 -0.718411 0)
(-0.178888 -0.804042 0)
(-0.313409 -0.867613 0)
(-0.455904 -1.04158 0)
(-0.613551 -0.997154 0)
(-0.590958 -0.918696 0)
(-1.01646 -0.87781 0)
(-1.26231 -0.82318 0)
(-0.952065 -0.563493 0)
(-0.670117 -0.394257 0)
(-0.677494 -0.366517 0)
(-0.794726 -0.447291 0)
(-0.713767 -0.49459 0)
(-0.676945 -0.478315 0)
(-0.738305 -0.481455 0)
(-0.76577 -0.664265 0)
(-0.906945 -0.833423 0)
(-1.15495 -1.05839 0)
(-0.0335388 -0.903071 0)
(-0.117884 -0.867565 0)
(-0.0466131 -0.737541 0)
(-0.14211 -0.921999 0)
(-0.131657 -1.00394 0)
(-0.0511873 -0.994589 0)
(-0.27108 -1.00013 0)
(-0.458342 -0.946893 0)
(-0.483638 -1.06691 0)
(-0.663746 -1.01703 0)
(-0.828805 -0.836696 0)
(-0.922142 -0.984346 0)
(-1.02178 -0.776482 0)
(-0.654796 -0.478892 0)
(-0.625087 -0.342022 0)
(-0.908469 -0.267623 0)
(-0.947127 -0.41283 0)
(-0.66753 -0.402048 0)
(-0.651557 -0.441562 0)
(-0.741262 -0.461178 0)
(-0.771705 -0.554946 0)
(-0.899993 -0.681933 0)
(-1.13385 -0.802552 0)
(-0.0228175 -1.0769 0)
(0.110089 -1.06523 0)
(-0.0533496 -1.06399 0)
(-0.255553 -1.08227 0)
(-0.21269 -1.08173 0)
(-0.154783 -1.12993 0)
(-0.102214 -1.17719 0)
(-0.459687 -1.0906 0)
(-0.475979 -1.0529 0)
(-0.463111 -1.14962 0)
(-0.873593 -0.931263 0)
(-1.12161 -0.930692 0)
(-0.900359 -0.633707 0)
(-0.565323 -0.519994 0)
(-0.524026 -0.534377 0)
(-0.893208 -0.366848 0)
(-0.990266 -0.374228 0)
(-0.821544 -0.305526 0)
(-0.758598 -0.388364 0)
(-0.765415 -0.412258 0)
(-0.831395 -0.479622 0)
(-0.965911 -0.581519 0)
(-1.19537 -0.706269 0)
(0.00357505 -1.07189 0)
(-0.0303553 -1.0556 0)
(-0.0865023 -1.15877 0)
(-0.19189 -1.09141 0)
(-0.188435 -1.10564 0)
(-0.228675 -1.02792 0)
(-0.275584 -1.00551 0)
(-0.246246 -1.07274 0)
(-0.398994 -0.808558 0)
(-0.444101 -0.891385 0)
(-0.524315 -1.03706 0)
(-0.805558 -0.809957 0)
(-0.721366 -0.54632 0)
(-0.609357 -0.569623 0)
(-0.580248 -0.629226 0)
(-0.880409 -0.558968 0)
(-0.959888 -0.458011 0)
(-0.797914 -0.37468 0)
(-0.792308 -0.360348 0)
(-0.820734 -0.376738 0)
(-0.889962 -0.431048 0)
(-1.0265 -0.476857 0)
(-1.20514 -0.500872 0)
(0.00373899 -1.00971 0)
(-0.04272 -1.02562 0)
(-0.106273 -1.0281 0)
(-0.2253 -1.08127 0)
(-0.20598 -1.10103 0)
(-0.180759 -1.03964 0)
(-0.270061 -0.880941 0)
(-0.187116 -0.746448 0)
(-0.253966 -0.792836 0)
(-0.421248 -0.786105 0)
(-0.532682 -0.790455 0)
(-0.582037 -0.738015 0)
(-0.58259 -0.683184 0)
(-0.538489 -0.677127 0)
(-0.46451 -0.698829 0)
(-0.726912 -0.699256 0)
(-0.86875 -0.419346 0)
(-0.802569 -0.384567 0)
(-0.825287 -0.341825 0)
(-0.867021 -0.367042 0)
(-0.942006 -0.380696 0)
(-1.04629 -0.391766 0)
(-1.18342 -0.381278 0)
(-0.00325107 -0.94058 0)
(-0.0704411 -0.962512 0)
(-0.199486 -1.00434 0)
(-0.257045 -0.933834 0)
(-0.133247 -0.740243 0)
(-0.180758 -0.966132 0)
(-0.0849157 -0.702287 0)
(-0.142396 -0.589861 0)
(-0.35658 -0.708652 0)
(-0.324041 -0.781914 0)
(-0.317828 -0.744942 0)
(-0.4007 -0.677796 0)
(-0.426509 -0.656245 0)
(-0.46659 -0.66984 0)
(-0.4345 -0.716459 0)
(-0.428528 -0.700815 0)
(-0.708788 -0.46833 0)
(-0.792508 -0.397095 0)
(-0.80832 -0.359349 0)
(-0.883009 -0.336045 0)
(-0.934272 -0.341743 0)
(-1.03466 -0.335461 0)
(-1.15802 -0.272319 0)
(-0.0273294 -0.946824 0)
(-0.115557 -0.97141 0)
(-0.203359 -0.869548 0)
(-0.0389889 -0.638052 0)
(-0.116427 -0.578016 0)
(-0.0956148 -0.606803 0)
(-0.0915298 -0.50884 0)
(-0.268495 -0.503847 0)
(-0.302859 -0.588489 0)
(-0.29412 -0.524026 0)
(-0.352064 -0.583208 0)
(-0.371998 -0.574423 0)
(-0.403259 -0.588668 0)
(-0.455412 -0.592858 0)
(-0.350942 -0.564803 0)
(-0.389032 -0.599285 0)
(-0.677256 -0.490854 0)
(-0.727132 -0.399682 0)
(-0.756346 -0.441637 0)
(-0.865424 -0.377945 0)
(-0.924884 -0.296574 0)
(-0.99756 -0.258046 0)
(-1.08141 -0.207612 0)
(0.00756334 -0.570228 0)
(-0.023589 -0.591867 0)
(0.054702 -0.610071 0)
(0.0332874 -0.497688 0)
(-0.0942984 -0.524954 0)
(-0.0772538 -0.487573 0)
(-0.0833848 -0.476372 0)
(-0.273983 -0.619114 0)
(-0.39027 -0.602284 0)
(-0.335134 -0.599009 0)
(-0.338045 -0.601311 0)
(-0.324915 -0.594294 0)
(-0.35198 -0.601499 0)
(-0.365416 -0.631722 0)
(-0.351585 -0.519472 0)
(-0.296883 -0.655839 0)
(-0.448815 -0.485146 0)
(-0.729959 -0.396228 0)
(-0.796921 -0.379454 0)
(-0.783172 -0.337525 0)
(-0.828377 -0.279319 0)
(-0.94207 -0.261714 0)
(-1.03079 -0.18812 0)
(-0.0141449 -0.421621 0)
(-0.0231073 -0.446525 0)
(-0.0397628 -0.422477 0)
(-0.0569664 -0.435592 0)
(-0.101768 -0.405759 0)
(-0.0353069 -0.473934 0)
(-0.335879 -0.691341 0)
(-0.447006 -0.785157 0)
(-0.301937 -0.631825 0)
(-0.253042 -0.597462 0)
(-0.294332 -0.544086 0)
(-0.31596 -0.531957 0)
(-0.389132 -0.521483 0)
(-0.331364 -0.500129 0)
(-0.312785 -0.512105 0)
(-0.319853 -0.578341 0)
(-0.421367 -0.595892 0)
(-0.65318 -0.431748 0)
(-0.736987 -0.298369 0)
(-0.776307 -0.254712 0)
(-0.842317 -0.285171 0)
(-0.897497 -0.243365 0)
(-0.934787 -0.159635 0)
(-0.00943558 -0.394324 0)
(-0.00418004 -0.423899 0)
(0.0170908 -0.448384 0)
(0.0248418 -0.563645 0)
(-0.134704 -0.658269 0)
(-0.314074 -0.666951 0)
(-0.41867 -0.80699 0)
(-0.289475 -0.614543 0)
(-0.256727 -0.555783 0)
(-0.282645 -0.550312 0)
(-0.278891 -0.514678 0)
(-0.286972 -0.504099 0)
(-0.318474 -0.462142 0)
(-0.332311 -0.41233 0)
(-0.387215 -0.462145 0)
(-0.341772 -0.473085 0)
(-0.296183 -0.575634 0)
(-0.441139 -0.539034 0)
(-0.581573 -0.370684 0)
(-0.72148 -0.287869 0)
(-0.780141 -0.271928 0)
(-0.847981 -0.135303 0)
(-0.890687 -0.101564 0)
(-0.0136022 -0.666068 0)
(-0.0704605 -0.690395 0)
(-0.218995 -0.666961 0)
(-0.240757 -0.749589 0)
(-0.178387 -0.770429 0)
(-0.283454 -0.790214 0)
(-0.235542 -0.677699 0)
(-0.210005 -0.577906 0)
(-0.23618 -0.584627 0)
(-0.241033 -0.529347 0)
(-0.249588 -0.506756 0)
(-0.265721 -0.47498 0)
(-0.275964 -0.461818 0)
(-0.280283 -0.406711 0)
(-0.317032 -0.401834 0)
(-0.34323 -0.363618 0)
(-0.373365 -0.442041 0)
(-0.344153 -0.408715 0)
(-0.368893 -0.438397 0)
(-0.647159 -0.270679 0)
(-0.737188 -0.235616 0)
(-0.725224 -0.143118 0)
(-0.800549 -0.0918794 0)
(-0.0221379 -0.778944 0)
(-0.055161 -0.804943 0)
(-0.124067 -0.802423 0)
(-0.151331 -0.703676 0)
(-0.189816 -0.684219 0)
(-0.291356 -0.680142 0)
(-0.237264 -0.557151 0)
(-0.175216 -0.568905 0)
(-0.222208 -0.524871 0)
(-0.219724 -0.502703 0)
(-0.236626 -0.48549 0)
(-0.243455 -0.457377 0)
(-0.253952 -0.441785 0)
(-0.272833 -0.394833 0)
(-0.30091 -0.401863 0)
(-0.332254 -0.384643 0)
(-0.275592 -0.381313 0)
(-0.295671 -0.367072 0)
(-0.321474 -0.431051 0)
(-0.448493 -0.349449 0)
(-0.678435 -0.14787 0)
(-0.697815 -0.131123 0)
(-0.747744 -0.0745155 0)
(-0.024806 -0.689029 0)
(-0.0648839 -0.699732 0)
(-0.133227 -0.684735 0)
(-0.158695 -0.672747 0)
(-0.218729 -0.694822 0)
(-0.174711 -0.602299 0)
(-0.155851 -0.53675 0)
(-0.179245 -0.539702 0)
(-0.184373 -0.507088 0)
(-0.201175 -0.485933 0)
(-0.202304 -0.456986 0)
(-0.227705 -0.437797 0)
(-0.214647 -0.41092 0)
(-0.255874 -0.347075 0)
(-0.283897 -0.370429 0)
(-0.299441 -0.338531 0)
(-0.315956 -0.31683 0)
(-0.343412 -0.395888 0)
(-0.308291 -0.293828 0)
(-0.344649 -0.347318 0)
(-0.589273 -0.186824 0)
(-0.676252 -0.0774472 0)
(-0.668504 -0.0455764 0)
(-0.02251 -0.679996 0)
(-0.0610149 -0.690605 0)
(-0.101597 -0.667006 0)
(-0.16715 -0.668478 0)
(-0.142531 -0.585055 0)
(-0.136739 -0.536778 0)
(-0.156778 -0.528795 0)
(-0.158752 -0.507695 0)
(-0.173309 -0.490252 0)
(-0.17706 -0.466473 0)
(-0.179851 -0.445538 0)
(-0.194734 -0.434799 0)
(-0.158003 -0.415458 0)
(-0.25137 -0.398205 0)
(-0.306708 -0.367799 0)
(-0.277397 -0.344989 0)
(-0.310648 -0.313773 0)
(-0.262592 -0.295852 0)
(-0.278114 -0.26315 0)
(-0.350854 -0.307948 0)
(-0.344276 -0.284368 0)
(-0.558288 -0.0870827 0)
(-0.662088 -0.0660259 0)
(-0.0281465 -0.623698 0)
(-0.0422812 -0.622509 0)
(-0.123846 -0.621761 0)
(-0.108291 -0.577305 0)
(-0.103892 -0.537571 0)
(-0.127365 -0.533772 0)
(-0.125313 -0.506476 0)
(-0.145113 -0.498356 0)
(-0.146321 -0.475078 0)
(-0.16409 -0.464931 0)
(-0.16493 -0.442036 0)
(-0.184216 -0.431903 0)
(-0.193406 -0.417296 0)
(-0.214905 -0.444966 0)
(-0.22667 -0.346892 0)
(-0.23858 -0.319935 0)
(-0.258818 -0.286876 0)
(-0.268541 -0.25276 0)
(-0.268756 -0.290603 0)
(-0.297959 -0.26164 0)
(-0.273639 -0.251002 0)
(-0.412059 -0.221745 0)
(-0.566862 -0.00786237 0)
(-0.0100572 -0.598886 0)
(-0.0368034 -0.592507 0)
(-0.058479 -0.58085 0)
(-0.0878655 -0.52835 0)
(-0.0913815 -0.530239 0)
(-0.107579 -0.499424 0)
(-0.115302 -0.491597 0)
(-0.127007 -0.466048 0)
(-0.133949 -0.453907 0)
(-0.14485 -0.432083 0)
(-0.150901 -0.417293 0)
(-0.162148 -0.401361 0)
(-0.167442 -0.381297 0)
(-0.197775 -0.366039 0)
(-0.207887 -0.330029 0)
(-0.22187 -0.31068 0)
(-0.237743 -0.28445 0)
(-0.250497 -0.251384 0)
(-0.273235 -0.25384 0)
(-0.275237 -0.184724 0)
(-0.242378 -0.17076 0)
(-0.255179 -0.185238 0)
(-0.475831 -0.00218123 0)
(-0.0154897 -0.53257 0)
(-0.0301105 -0.533642 0)
(-0.0567465 -0.528282 0)
(-0.0656084 -0.51796 0)
(-0.0799304 -0.4974 0)
(-0.0901456 -0.490063 0)
(-0.0993795 -0.468566 0)
(-0.109829 -0.460763 0)
(-0.116535 -0.439616 0)
(-0.12712 -0.428863 0)
(-0.132675 -0.407129 0)
(-0.143825 -0.393284 0)
(-0.150096 -0.36942 0)
(-0.161633 -0.358044 0)
(-0.170738 -0.312234 0)
(-0.194432 -0.290475 0)
(-0.205002 -0.256057 0)
(-0.243601 -0.234164 0)
(-0.195772 -0.202094 0)
(-0.201281 -0.154291 0)
(-0.26117 -0.135165 0)
(-0.201964 -0.163531 0)
(-0.359969 -0.161894 0)
(-0.00567705 -0.50856 0)
(-0.0232564 -0.512741 0)
(-0.0338059 -0.50615 0)
(-0.0508246 -0.486134 0)
(-0.059927 -0.482447 0)
(-0.0723469 -0.461149 0)
(-0.0815057 -0.453393 0)
(-0.0910247 -0.432796 0)
(-0.100313 -0.421394 0)
(-0.108598 -0.401768 0)
(-0.117328 -0.387342 0)
(-0.126153 -0.368176 0)
(-0.133309 -0.349648 0)
(-0.144259 -0.327131 0)
(-0.152415 -0.300108 0)
(-0.166125 -0.278144 0)
(-0.172895 -0.248959 0)
(-0.184114 -0.219804 0)
(-0.191852 -0.169078 0)
(-0.18274 -0.185658 0)
(-0.201062 -0.122482 0)
(-0.194251 -0.121017 0)
(-0.248469 -0.15712 0)
(-0.0081768 -0.473734 0)
(-0.0180521 -0.477617 0)
(-0.0341695 -0.472605 0)
(-0.0420491 -0.466425 0)
(-0.0530284 -0.45335 0)
(-0.0617435 -0.446868 0)
(-0.0692072 -0.431412 0)
(-0.078107 -0.422196 0)
(-0.0837647 -0.405028 0)
(-0.0924162 -0.392788 0)
(-0.0974628 -0.373717 0)
(-0.106035 -0.358444 0)
(-0.111068 -0.336629 0)
(-0.1195 -0.318568 0)
(-0.124667 -0.289072 0)
(-0.14142 -0.268608 0)
(-0.148452 -0.239888 0)
(-0.161057 -0.218337 0)
(-0.162932 -0.186309 0)
(-0.145519 -0.167857 0)
(-0.185729 -0.13564 0)
(-0.19844 -0.113407 0)
(-0.13131 -0.0977868 0)
(-0.00364576 -0.457323 0)
(-0.0137601 -0.462673 0)
(-0.0206136 -0.458148 0)
(-0.0307097 -0.449489 0)
(-0.0371832 -0.442464 0)
(-0.0452979 -0.430181 0)
(-0.0523007 -0.420215 0)
(-0.0595246 -0.405734 0)
(-0.0666388 -0.393101 0)
(-0.0738877 -0.376382 0)
(-0.0806495 -0.361156 0)
(-0.0882078 -0.342523 0)
(-0.0935319 -0.324203 0)
(-0.100744 -0.302018 0)
(-0.105181 -0.277412 0)
(-0.115416 -0.255162 0)
(-0.122902 -0.228168 0)
(-0.129497 -0.205309 0)
(-0.143264 -0.182018 0)
(-0.138157 -0.185843 0)
(-0.149195 -0.144099 0)
(-0.146367 -0.0897098 0)
(-0.170909 -0.0514147 0)
(-0.00425827 -0.435901 0)
(-0.0117826 -0.440716 0)
(-0.0206735 -0.436775 0)
(-0.0272906 -0.430409 0)
(-0.0346156 -0.422858 0)
(-0.0403905 -0.413585 0)
(-0.0459825 -0.402519 0)
(-0.050771 -0.390536 0)
(-0.0549243 -0.376548 0)
(-0.0590063 -0.362078 0)
(-0.0616886 -0.345987 0)
(-0.0656951 -0.330292 0)
(-0.067961 -0.313239 0)
(-0.0735424 -0.294831 0)
(-0.0768469 -0.273323 0)
(-0.088181 -0.251244 0)
(-0.100426 -0.22755 0)
(-0.104308 -0.199798 0)
(-0.134833 -0.178269 0)
(-0.105952 -0.146463 0)
(-0.0969118 -0.126294 0)
(-0.10066 -0.0927788 0)
(-0.132929 -0.0693397 0)
(-0.00232612 -0.427523 0)
(-0.00720387 -0.432015 0)
(-0.0123297 -0.42889 0)
(-0.0171173 -0.423407 0)
(-0.0218742 -0.417438 0)
(-0.0263981 -0.408829 0)
(-0.030579 -0.400028 0)
(-0.0346655 -0.388716 0)
(-0.0379111 -0.377043 0)
(-0.0416349 -0.363192 0)
(-0.0435321 -0.348311 0)
(-0.0476542 -0.329937 0)
(-0.0484656 -0.309373 0)
(-0.0543444 -0.28548 0)
(-0.0564404 -0.26183 0)
(-0.0637025 -0.237529 0)
(-0.0721825 -0.211081 0)
(-0.0766574 -0.181915 0)
(-0.086341 -0.158507 0)
(-0.0850129 -0.111988 0)
(-0.0911416 -0.109938 0)
(-0.0823283 -0.0807117 0)
(-0.113546 -0.0890784 0)
(-0.00165698 -0.402686 0)