/*--------------------------------*- C++ -*----------------------------------*\
| =========                 |                                                 |
| \\      /  F ield         | foam-extend: Open Source CFD                    |
|  \\    /   O peration     | Version:     4.1                                |
|   \\  /    A nd           | Web:         http://www.foam-extend.org         |
|    \\/     M anipulation  |                                                 |
\*---------------------------------------------------------------------------*/
FoamFile
{
    version     2.0;
    format      ascii;
    class       volScalarField;
    location    "0.7";
    object      alpha1;
}
// * * * * * * * * * * * * * * * * * * * * * * * * * * * * * * * * * * * * * //

dimensions      [0 0 0 0 0 0 0];

internalField   nonuniform List<scalar> 
2268
(
1
1
1
0.999999
0.999999
0.999999
0.999999
1
1
1
1
1
1
1
1
1
1
1
1
1
1
1
0.999992
0.999999
0.999999
0.999999
1
1
1
1
1
1
1
1
1
1
1
1
1
1
1
1
1
1
1
0.999982
1
1
1
1
1
1
1
1
1
1
1
1
1
1
1
1
1
1
1
1
1
1
0.999979
1
1
1
1
1
1
1
1
1
1
1
1
1
1
1
1
1
1
1
1
1
1
0.999983
0.999995
0.999998
0.999997
1
1
1
1
1
1
1
1
1
1
1
1
1
1
1
1
1
1
1
0.999992
0.999196
0.99953
0.999699
0.999913
0.999913
0.999997
0.999998
0.999998
1
1
1
1
1
1
1
1
1
1
1
1
1
1
0.999997
0.983948
0.988592
0.993858
0.997357
0.997261
0.999815
0.999929
0.999935
0.999995
1
1
1
1
1
1
1
1
1
1
1
1
1
0.999999
0.781553
0.883047
0.964969
0.986196
0.988992
0.998575
0.999318
0.999438
0.999924
0.999994
1
1
1
1
1
1
1
1
1
1
1
1
1
0.995068
0.995068
0.995068
0.995068
0.995068
0.995068
0.995068
0.995068
0.994761
0.992498
0.990748
0.99348
0.99481
0.991108
0.989064
0.989656
0.990703
0.990262
0.985215
0.995068
0.994343
0.992096
0.991735
0.99482
0.995068
0.991519
0.964412
0.911756
0.848873
0.832848
0.927909
0.976698
0.989738
0.994829
0.994529
0.99063
0.978259
0.99394
0.995068
0.982841
0.956141
0.955041
0.965719
0.988996
0.973945
0.890117
0.611306
0.323348
0.451011
0.758777
0.865812
0.927681
0.992708
0.931655
0.764064
0.698125
0.922388
0.995015
0.976839
0.95589
0.970377
0.887525
0.781334
0.728942
0.383982
0.196272
0.174081
0.435081
0.901796
0.816224
0.818121
0.962314
0.609799
0.202677
0.220989
0.472303
0.994986
0.975675
0.960802
0.97823
0.978337
0.909048
0.47966
0.174106
0.174081
0.174106
0.790211
0.975343
0.968918
0.813048
0.788133
0.235228
0.200607
0.211764
0.163295
0.994275
0.964709
0.867791
0.762687
0.959691
0.985938
0.795267
0.577166
0.390268
0.483017
0.869743
0.975387
0.975343
0.862173
0.628633
0.164075
0.317671
0.397382
0.107353
0.991949
0.866718
0.273658
0.21979
0.77516
0.985066
0.976193
0.940795
0.948986
0.961437
0.968853
0.96855
0.919051
0.888788
0.541238
0.164425
0.397227
0.397303
0.0856587
0.988373
0.7702
0.163675
0.163675
0.492607
0.867583
0.98547
0.990965
0.990987
0.97983
0.853626
0.855065
0.905298
0.857883
0.428628
0.165148
0.397197
0.268554
0.0856587
0.163644
0.245923
0.487847
0.786961
0.953365
0.986046
0.990991
0.991852
0.994207
0.99565
0.996374
0.997329
0.998082
0.998207
0.997964
0.995719
0.999046
0.998124
0.998528
0.997335
0.998347
0.999194
0.998524
0.0108729
0.01985
0.0832314
0.360028
0.769025
0.861284
0.804811
0.79454
0.797671
0.829869
0.852491
0.872746
0.883108
0.893157
0.878002
0.876261
0.944393
0.930246
0.934339
0.893614
0.900523
0.934638
0.950486
0.000777555
0.0111248
0.0700471
0.147205
0.162012
0.134911
0.131226
0.158812
0.123263
0.145404
0.183389
0.247986
0.29563
0.32942
0.303776
0.365683
0.480573
0.489255
0.475157
0.338955
0.299884
0.493519
0.838825
0.000427543
0.00554263
0.0115257
0.00761611
0.00291948
0.00159042
0.00332126
0.0038755
0.00165135
0.00393774
0.0091044
0.0153808
0.0200769
0.0154392
0.0126715
0.0220307
0.0357359
0.0458502
0.0238073
0.012679
0.0359571
0.288903
0.925736
0.000346203
0.00303462
0.00350227
0.000426898
5.21687e-05
2.82179e-05
6.62116e-05
0.000135272
0.000289931
0.000586025
0.00101174
0.00123617
0.00146437
0.000854469
0.000257779
0.000739631
0.00188723
0.00544672
0.000831442
0.00252188
0.132424
0.765419
0.976554
0.000172571
0.00118667
0.00141869
0.000196879
2.85304e-05
2.8296e-06
6.27707e-06
2.73835e-05
4.24417e-05
4.21744e-05
3.81344e-05
5.31786e-05
6.54908e-05
3.50309e-05
3.46344e-05
3.4558e-05
6.4576e-05
0.000205812
0.00017715
0.00242014
0.0911423
0.566904
0.971634
4.1418e-05
0.000259826
0.000409141
6.59283e-05
1.34618e-05
1.94602e-06
1.92899e-06
1.15946e-05
1.50633e-05
3.97622e-06
1.22595e-06
1.32862e-06
6.80866e-06
4.09115e-05
0.000198065
0.000252575
9.78625e-05
4.24294e-05
4.22966e-05
0.000134867
0.000906422
0.023187
0.444552
3.51915e-06
2.52074e-05
6.84061e-05
1.26244e-05
4.10032e-06
1.05039e-06
1.68194e-06
6.9714e-06
8.08951e-06
5.86312e-07
2.04142e-06
4.6651e-05
0.000252226
0.000532971
0.000943592
0.00114233
0.00113036
0.000247937
0.00163107
0.00720167
0.012463
0.0600469
0.514064
1.27686e-07
7.37358e-07
5.20554e-06
8.54543e-07
3.33158e-07
6.04186e-07
4.09864e-06
7.84609e-06
2.64935e-06
8.28432e-07
3.68538e-05
0.000361749
0.001004
0.00117043
0.000914611
0.00325763
0.0185281
0.0624492
0.119423
0.142075
0.107696
0.0675225
0.0741721
9.15702e-09
5.32566e-09
1.43497e-07
1.48283e-08
2.20176e-08
1.04066e-06
5.04924e-06
7.7429e-06
4.60751e-07
3.32033e-07
1.69513e-05
0.000197213
0.00105678
0.00338192
0.00604705
0.00873012
0.023973
0.0860086
0.147484
0.147537
0.147484
0.0890252
0.0186551
1.77706e-09
9.20726e-11
1.03373e-09
3.97195e-11
7.77317e-09
8.73094e-07
5.33219e-06
7.72501e-06
3.59897e-07
1.49433e-07
3.50537e-06
1.69948e-05
0.000118177
0.00248235
0.0136139
0.0203363
0.0172509
0.00452297
0.00362058
0.0351504
0.0986589
0.130679
0.0498296
9.04059e-10
4.01219e-11
1.42722e-12
6.73983e-12
1.48098e-08
1.0435e-06
5.45021e-06
5.84489e-06
3.04632e-07
5.04435e-08
2.45935e-07
2.82166e-07
6.98463e-06
0.000847764
0.00997068
0.0202353
0.0194234
0.00337895
0.00183238
0.00299431
0.0388866
0.13897
0.147869
5.09456e-10
1.53381e-11
4.1482e-15
2.5677e-11
2.50091e-08
9.42135e-07
3.50335e-06
3.05385e-06
2.89884e-07
2.23586e-08
5.22376e-09
3.66802e-09
2.0427e-06
0.000245719
0.00356563
0.0131827
0.0163337
0.00339077
0.00183241
0.00767395
0.0564408
0.139099
0.142863
2.013e-10
3.34948e-12
4.41127e-15
7.28781e-11
2.93386e-08
5.61321e-07
1.22825e-06
1.00602e-06
2.50199e-07
2.56069e-08
2.99616e-09
1.30367e-09
6.46861e-08
3.20096e-05
0.00106401
0.00381208
0.0038028
0.00223457
0.00584515
0.0269262
0.0635163
0.050791
0.00793856
3.66239e-11
3.01487e-13
3.12768e-15
2.55875e-10
2.38601e-08
1.99024e-07
2.45678e-07
1.68051e-07
1.14234e-07
4.28038e-08
3.65837e-09
1.24444e-09
7.59202e-08
3.86076e-05
0.000873411
0.0019911
0.0012098
0.00242832
0.0162508
0.0328042
0.0268057
0.00513978
0.000397095
1.9075e-12
9.85017e-15
6.97201e-15
2.40341e-10
1.2312e-08
4.25321e-08
3.01566e-08
1.516e-08
2.21938e-08
2.66164e-08
1.85226e-09
1.26308e-09
2.03399e-07
9.22342e-06
3.32127e-05
0.000182588
0.000250457
0.00276639
0.0131967
0.0129587
0.000901407
6.45175e-05
7.32458e-05
2.69989e-14
1.83179e-15
6.20828e-13
2.34642e-10
3.6585e-09
7.13317e-09
3.66243e-09
1.1192e-09
1.63044e-09
3.58104e-09
3.49015e-09
4.84817e-06
0.000398038
0.00188236
0.000844611
0.000416836
0.000390753
0.00222676
0.00597404
0.00184361
5.91114e-05
1.37414e-05
1.37436e-05
5.33438e-15
1.7412e-15
1.02813e-12
1.48402e-10
1.33161e-09
2.42678e-09
2.19842e-09
1.06156e-09
1.08718e-09
3.23294e-08
2.62745e-05
0.00157425
0.0127188
0.0202545
0.0187449
0.00621108
0.00252062
0.00280579
0.00444677
0.000306432
1.37407e-05
1.37417e-05
1.37414e-05
4.11328e-15
1.59869e-15
3.42304e-13
6.12291e-11
9.4998e-10
1.98966e-09
2.2429e-09
1.14635e-09
7.73382e-08
8.13844e-05
0.00453368
0.0283223
0.0422603
0.0416406
0.0121265
0.003103
0.00216674
0.00227271
0.00159981
0.000104124
1.37428e-05
1.37414e-05
0.000108219
3.51724e-15
1.3916e-15
4.95759e-14
1.73891e-11
5.50267e-10
1.24524e-09
1.92679e-09
1.57919e-09
7.71339e-07
0.00034726
0.00862045
0.0320449
0.0408512
0.00544727
0.000602318
0.000701955
0.00101762
0.000773273
0.000204026
3.06374e-05
1.37414e-05
7.89105e-05
0.000843215
2.70279e-15
1.13449e-15
1.47747e-14
3.01286e-12
2.36313e-10
4.32187e-10
1.46736e-09
1.58703e-09
1.74291e-07
0.000148336
0.00405145
0.0162456
0.0258744
0.00480709
0.000110689
9.51553e-05
0.000123604
9.80606e-05
1.49521e-05
1.47787e-05
1.52003e-05
0.000206713
0.00100886
1.90769e-15
8.72907e-16
1.19663e-14
6.36249e-13
7.18831e-11
6.33762e-11
7.76615e-10
1.36192e-09
6.76449e-09
1.80446e-05
0.000733241
0.00372406
0.0113924
0.00903621
0.00066983
9.5521e-05
9.51553e-05
0.000106693
0.000109157
2.97102e-05
1.64245e-05
5.8684e-05
0.000270208
1.27322e-15
6.33333e-16
1.06208e-14
2.37338e-13
1.40698e-11
4.82821e-12
2.26994e-10
7.6813e-10
4.43045e-10
4.71142e-07
4.34424e-05
0.000163578
0.00287508
0.00549181
0.00405728
0.000877175
0.000173639
0.000160797
0.000534334
0.000781488
0.000784659
0.000577147
0.000163418
8.19514e-16
4.33979e-16
8.83551e-15
1.07381e-13
1.74905e-12
2.97284e-13
2.61458e-11
1.7157e-10
1.8924e-10
1.92515e-09
6.14178e-07
1.68257e-06
0.000252751
0.000882203
0.00257497
0.00209014
0.000985369
0.000267324
3.87553e-05
8.14916e-06
3.79771e-05
9.8727e-05
0.000376298
5.13344e-16
2.82686e-16
6.06744e-15
4.22215e-14
1.43468e-13
2.73906e-14
8.88478e-13
6.34461e-12
9.75222e-11
7.8727e-11
1.40438e-09
3.79441e-09
4.71361e-06
2.504e-05
0.000280029
0.000594223
0.000445585
0.00018098
3.38262e-05
1.9751e-06
1.9444e-07
3.45663e-06
4.67153e-05
3.11805e-16
1.84473e-16
2.88299e-15
1.08053e-14
6.54614e-15
2.03988e-15
1.09782e-14
3.47725e-14
2.10831e-11
3.62259e-11
1.41333e-11
1.36778e-11
1.38037e-08
1.14806e-07
2.79204e-06
2.49156e-05
1.88744e-05
6.33057e-06
1.19585e-06
1.15874e-07
4.95851e-09
5.56568e-08
2.47916e-07
1.72029e-16
1.09632e-16
1.05245e-15
1.56026e-15
4.78476e-16
3.00043e-16
2.84011e-16
3.01251e-16
8.74596e-13
1.01794e-11
4.68996e-12
1.8288e-12
6.49565e-12
8.84929e-11
2.4825e-09
3.54635e-08
2.95046e-08
8.96019e-09
1.13017e-09
6.09273e-11
1.38885e-11
2.99712e-10
7.78455e-10
8.79605e-17
6.1712e-17
4.79982e-16
3.55087e-16
2.55174e-16
1.9595e-16
1.18204e-16
7.9335e-17
3.22073e-15
8.08871e-13
4.52502e-13
1.57894e-13
8.77786e-14
2.17315e-13
9.35015e-13
3.17772e-12
3.36184e-12
1.85512e-12
4.59035e-13
4.31e-14
1.4993e-14
1.64077e-14
4.66406e-14
5.23936e-17
2.70415e-17
2.67956e-16
2.05782e-16
2.00232e-16
1.33211e-16
8.09794e-17
5.77668e-17
4.26388e-17
8.32848e-15
5.47966e-15
2.36586e-15
1.00759e-14
1.45273e-13
1.03783e-12
1.84989e-12
1.8208e-12
1.24574e-12
3.56167e-13
2.61636e-14
1.73591e-15
1.69639e-15
2.57554e-15
3.08599e-17
1.08678e-17
1.3954e-16
1.11506e-16
1.41411e-16
8.96595e-17
5.09926e-17
3.7775e-17
2.98993e-17
3.17924e-17
3.26227e-17
3.23383e-17
2.56311e-15
7.41735e-14
6.20338e-13
8.8059e-13
7.43329e-13
3.54301e-13
4.95413e-14
1.55581e-15
6.25316e-16
8.78161e-16
1.72048e-15
1.77483e-17
5.02139e-18
6.78988e-17
5.61882e-17
7.71145e-17
5.29437e-17
3.1003e-17
2.08777e-17
1.697e-17
1.76036e-17
1.69411e-17
2.25647e-17
4.3018e-16
7.28766e-15
1.16622e-13
1.16577e-13
6.8224e-14
1.80961e-14
1.06532e-15
2.44156e-16
3.11175e-16
2.0338e-15
5.23511e-13
1.01764e-17
2.06643e-18
2.47201e-17
2.43954e-17
3.83198e-17
2.6755e-17
1.58826e-17
1.01463e-17
7.82432e-18
1.10969e-17
1.00464e-17
1.71791e-17
6.29596e-17
1.32582e-16
3.38258e-15
1.9996e-15
6.70996e-16
1.74229e-16
1.00644e-16
2.04125e-16
2.74524e-14
1.93854e-11
1.5794e-09
5.60277e-18
9.60499e-19
8.30002e-18
9.21451e-18
1.55815e-17
1.14699e-17
6.88623e-18
4.26088e-18
3.06213e-18
5.8451e-18
6.07149e-18
7.99818e-18
1.44844e-17
1.16128e-17
2.04339e-17
1.36374e-17
1.293e-17
3.41883e-17
8.86193e-17
5.9179e-13
3.18053e-10
1.41005e-08
2.01329e-07
2.89558e-18
4.73803e-19
2.53683e-18
3.05226e-18
5.43917e-18
4.19008e-18
2.51955e-18
1.53037e-18
1.02954e-18
2.75572e-18
3.28164e-18
3.43712e-18
4.43082e-18
4.8255e-18
5.02676e-18
6.15559e-18
4.22694e-16
2.27389e-14
5.96075e-10
4.55497e-09
1.44558e-07
9.01184e-07
2.82838e-06
1.37752e-18
3.14579e-19
6.99169e-19
8.90933e-19
1.66466e-18
1.33073e-18
7.83624e-19
4.65747e-19
2.97364e-19
1.28142e-18
1.62027e-18
1.43033e-18
1.49621e-18
1.59804e-18
6.4024e-18
8.50857e-17
1.09185e-15
7.13458e-13
1.25149e-07
9.98781e-07
4.05192e-06
6.7588e-06
7.89584e-06
5.29046e-19
1.17e-19
1.95349e-19
2.46989e-19
4.72392e-19
3.85095e-19
2.24606e-19
1.32899e-19
8.80092e-20
3.89621e-19
7.16793e-19
5.61855e-19
4.94e-19
5.02214e-19
1.65517e-16
2.30082e-15
1.54703e-11
4.20365e-08
2.7731e-06
1.27962e-05
1.29234e-05
1.00762e-05
4.84323e-06
1.82743e-19
3.95949e-20
5.12703e-20
6.30747e-20
1.23809e-19
1.01162e-19
5.78794e-20
3.34026e-20
2.21401e-20
1.0724e-19
3.00591e-19
2.13543e-19
1.48244e-19
1.96894e-17
8.9109e-13
3.8215e-10
4.05762e-09
5.6398e-07
5.02503e-06
4.41493e-06
2.13698e-06
1.0762e-07
4.69625e-06
5.52802e-20
1.18921e-20
1.24624e-20
1.49284e-20
3.02891e-20
2.46066e-20
1.37321e-20
7.79679e-21
5.19978e-21
2.81871e-20
7.85268e-20
7.77471e-20
7.058e-20
1.65445e-15
2.9382e-11
1.86687e-08
1.01989e-06
1.03624e-05
7.15895e-06
1.10437e-06
2.11099e-08
4.27019e-09
1.10104e-05
1.44682e-20
3.07696e-21
2.78709e-21
3.2953e-21
6.94167e-21
5.56387e-21
3.00142e-21
1.63628e-21
1.09179e-21
6.65804e-21
1.81772e-20
2.47923e-20
8.7739e-18
1.23512e-13
3.1142e-10
1.2524e-07
9.50003e-06
1.67454e-05
8.04996e-06
5.83182e-07
4.01379e-09
1.73241e-09
7.51629e-06
3.3903e-21
7.07516e-22
5.69033e-22
6.72265e-22
1.46938e-21
1.18314e-21
6.25411e-22
3.18904e-22
2.24798e-22
1.489e-21
4.05189e-21
5.47019e-21
3.23169e-16
5.9653e-12
2.62578e-08
2.25719e-06
2.32118e-05
1.48542e-05
2.53582e-06
7.70464e-08
3.32984e-10
1.4344e-09
6.64988e-07
7.31121e-22
1.50201e-22
1.07792e-22
1.27738e-22
2.8404e-22
2.38867e-22
1.29327e-22
5.80744e-23
4.40674e-23
3.21805e-22
8.5659e-22
2.62142e-21
1.15141e-12
2.26777e-10
9.50933e-08
1.07489e-05
2.37181e-05
1.49442e-05
1.93549e-06
4.61995e-08
2.36872e-10
1.47204e-09
1.6457e-08
1.46663e-22
2.87436e-23
1.87583e-23
2.21468e-23
5.06513e-23
3.74886e-23
2.99556e-23
9.03681e-24
9.81487e-24
5.32348e-23
1.37372e-22
1.62009e-20
7.17002e-12
5.13781e-09
2.93991e-07
6.65881e-06
2.1279e-05
1.00378e-05
1.49474e-06
6.01493e-08
2.48418e-10
3.71978e-12
7.08151e-11
0.999821
0.999839
0.99954
0.998386
0.99192
0.999395
0.998184
0.992615
0.976983
0.996854
0.997414
0.997338
0.995561
0.996871
0.992874
0.944904
0.962981
0.832438
0.670043
0.604137
0.912682
0.638014
0.561641
0.561505
0.919962
0.905581
0.858858
0.817447
0.902276
0.765562
0.554055
0.447451
0.0810309
0.0825284
0.0710902
0.0466805
0.0194915
0.0582483
0.0699591
0.0696733
0.0176334
0.0141019
0.0141051
0.0175785
0.145285
0.0483838
0.0392031
0.0878847
0.0958147
0.0629767
0.105008
0.147949
0.00341371
0.00753588
0.0163462
0.0268807
0.00055722
0.000748792
0.00070241
0.000752679
0.000179888
0.00018682
0.000259826
0.000421623
4.39258e-05
0.00026154
0.00081974
0.00166525
3.05103e-05
0.000210132
0.000711854
0.00154251
0.000397783
0.00059283
0.000595457
0.000392216
0.00145038
0.00145038
0.00145038
0.000607411
0.00145038
0.00143617
0.00143838
0.0014411
0.000155584
0.000190559
0.000298743
0.000426834
0.000135281
0.000138437
0.000155872
0.000158345
0.0007147
0.000716199
0.00071496
0.000716199
9.94339e-05
0.000101322
6.2837e-05
5.84195e-05
5.09834e-07
7.41375e-07
9.62772e-07
1.35155e-06
1.81523e-09
3.00969e-09
4.77912e-09
9.2722e-09
1.14657e-13
2.15208e-13
3.92677e-13
9.33148e-13
3.17644e-15
4.09364e-15
5.32113e-15
8.39347e-15
2.91044e-15
7.11312e-15
3.86178e-13
7.51368e-12
3.77501e-12
2.05826e-11
2.53912e-10
2.25337e-09
2.78807e-09
8.43455e-09
3.11558e-08
1.22667e-07
2.77265e-07
4.36109e-07
9.15153e-07
1.96122e-06
3.38225e-06
3.01204e-06
4.51344e-06
4.60154e-06
8.00759e-06
4.46337e-06
4.43665e-06
4.52433e-06
6.48452e-06
8.81769e-06
1.18875e-05
1.78843e-05
1.02367e-05
3.28712e-05
5.6565e-05
6.47413e-05
2.31402e-05
7.64126e-05
7.85522e-05
4.49282e-05
3.05406e-05
1.34773e-05
6.78022e-06
8.38654e-07
1.32443e-05
2.54073e-06
1.5633e-07
1.27533e-07
3.4957e-08
3.34548e-08
1.61918e-08
6.87143e-08
5.49744e-10
9.29269e-14
1.22818e-14
7.5141e-14
0.983034
0.728966
0.191109
0.267799
0.327125
0.491161
0.762109
0.95573
0.929367
0.674938
0.420714
0.512405
0.884743
0.589536
0.342813
0.25406
0.375865
0.0924674
0.0856587
0.943191
0.409572
0.729838
0.713371
0.166702
0.209364
0.571769
0.751861
0.52699
0.140027
0.12965
0.299139
0.802253
0.313941
0.210907
0.256857
0.274694
0.0657114
0.142888
0.883168
0.171952
0.730405
0.247235
0.10496
0.190947
0.316952
0.272173
0.158477
0.0475501
0.0527805
0.225193
0.561601
0.547368
0.210288
0.16796
0.0748769
0.0152199
0.041471
0.581958
0.171896
0.541705
0.15916
0.107838
0.250813
0.231867
0.231154
0.220673
0.0301476
0.030131
0.142255
0.319751
0.706694
0.372183
0.142899
0.0295776
0.0120759
0.012076
0.52832
0.522079
0.191953
0.170657
0.47135
0.47135
0.47135
0.47135
0.47135
0.0856329
0.0301476
0.0354821
0.213596
0.706795
0.33565
0.160472
0.0482139
0.0120759
0.0120759
0.658098
0.653707
0.168437
0.141218
0.305042
0.186749
0.154505
0.273836
0.295961
0.2152
0.0603829
0.0457593
0.217225
0.706694
0.273996
0.197225
0.0921152
0.0161081
0.012076
0.657951
0.344796
0.1196
0.035247
0.0123191
0.0040114
0.00391961
0.0102888
0.0402177
0.304104
0.483433
0.454171
0.608785
0.706795
0.402295
0.0684095
0.0818829
0.0326274
0.012076
0.283031
0.0766199
0.066582
0.0266783
0.00711447
0.00310618
0.00310618
0.00310618
0.00688253
0.0828622
0.499798
0.693192
0.693203
0.654221
0.115267
0.0555724
0.0557952
0.0656333
0.0173527
0.0250896
0.0123832
0.0151413
0.0077314
0.0056599
0.00383879
0.00317143
0.010917
0.0324452
0.0315905
0.139172
0.421205
0.561956
0.3148
0.0731161
0.0559811
0.0862645
0.0862644
0.0228403
0.0536359
0.0100324
0.00535005
0.00536229
0.00601789
0.00577397
0.00424535
0.0298629
0.103964
0.0685438
0.0874593
0.115658
0.128793
0.102325
0.084015
0.0817279
0.0688613
0.0432402
0.0453328
0.0234451
0.00921055
0.00676138
0.00901564
0.015404
0.0064772
0.00421432
0.00448583
0.109535
0.109468
0.0909946
0.101213
0.0602457
0.0279572
0.03096
0.0260072
0.00597218
0.00708269
0.0676953
0.098271
0.032964
0.0137348
0.043309
0.0713831
0.0405486
0.0250881
0.0151354
0.0733174
0.0984061
0.0628287
0.0906357
0.0387048
0.00678489
0.00414674
0.00413707
0.000486238
0.000524619
0.00569761
0.147953
0.0782134
0.0454169
0.105895
0.106363
0.105895
0.0937539
0.0771078
0.0169926
0.0122586
0.0276774
0.0374824
0.024466
0.00369794
0.000875225
0.000219276
0.000187911
8.65662e-05
2.98294e-05
0.0469111
0.071281
0.0379926
0.0262677
0.0525193
0.0590961
0.0309732
0.017869
0.00230841
0.00278511
0.0124932
0.00880994
0.0084386
0.00231272
0.000355104
0.000112545
9.16041e-05
4.64229e-05
1.90108e-06
0.00080634
0.000806586
0.000529881
0.00049388
0.000969835
0.00120242
0.000194281
0.00022688
0.000547967
0.00227933
0.00464181
0.00256056
0.00141382
0.000622891
0.000193141
0.000259192
0.000301644
6.53763e-05
2.4488e-06
0.000424667
0.000335606
0.000147469
4.43584e-05
2.64561e-05
2.23985e-05
1.72192e-05
7.73354e-05
0.000225062
0.000379655
0.000509851
0.000505555
0.000134189
0.000117285
0.000195332
0.00076764
0.000771031
7.93882e-05
0.000445016
0.00246012
0.00218855
0.0012808
0.000621229
0.000145845
2.30323e-05
6.45714e-06
6.29025e-06
2.43106e-05
5.15262e-05
7.43232e-05
6.39577e-05
2.71532e-05
0.00012013
0.000451731
0.000852738
0.000843181
0.000517139
0.017247
0.00251218
0.00275918
0.00278182
0.00279962
0.00136706
0.000336574
2.85794e-05
2.72661e-07
2.84679e-07
8.79e-07
1.37796e-06
3.06415e-06
2.63522e-05
0.000162928
0.000449494
0.000424813
0.000222239
0.00129183
0.114708
0.000380597
0.00086459
0.00238176
0.00327726
0.00323506
0.00131825
0.00046693
8.1237e-06
3.15665e-07
1.10321e-07
1.3218e-07
9.6693e-07
5.33377e-06
2.0472e-05
4.79092e-05
1.93521e-05
2.29707e-05
0.000698041
0.186722
0.000314567
0.000147245
0.000147729
0.000178253
0.000888675
0.00198341
0.00184803
0.000287708
4.11087e-05
1.46387e-06
8.62712e-06
6.57851e-05
0.000136451
5.62064e-05
5.80104e-06
2.7514e-06
4.47286e-06
0.000243067
0.186722
0.00111071
0.000512387
0.000150786
4.03644e-05
0.000215495
0.00151244
0.00206572
0.00184354
0.000725891
9.44352e-05
3.75877e-05
0.000565873
0.00175498
0.0012327
0.000178402
2.162e-06
6.20572e-07
5.36892e-05
0.154349
0.000237908
0.00141974
0.000594725
4.12112e-05
4.60252e-06
0.000203899
0.00167619
0.00245288
0.00244716
0.000990647
0.000103798
0.00116694
0.00503013
0.0046444
0.00142639
2.78037e-05
6.21457e-07
4.77652e-06
0.0206793
0.000161159
0.00140963
0.000622816
7.54441e-05
2.99088e-06
2.39658e-06
0.000174801
0.00157374
0.00227827
0.00236723
0.000918038
0.0019536
0.0054174
0.00541741
0.00344482
0.000175396
7.19828e-07
2.19214e-06
0.0014875
0.000380188
0.000534907
0.000214452
3.90384e-05
4.75583e-06
6.33561e-07
7.30952e-07
1.75033e-05
0.000378254
0.00116185
0.00196654
0.00413281
0.00541741
0.00541739
0.00373834
0.000309387
3.21904e-06
1.08819e-05
0.000229882
0.000254276
0.000203883
6.5969e-05
1.26351e-05
3.20261e-06
6.45199e-07
8.43634e-08
5.66034e-08
1.67621e-06
8.32834e-05
0.000434882
0.00225953
0.005348
0.00412277
0.00106921
0.00015947
5.98569e-06
4.74568e-05
0.000111211
8.50434e-06
7.78894e-06
3.83487e-06
1.10725e-06
6.49829e-07
5.07332e-07
1.487e-07
5.77548e-08
6.63811e-08
8.01818e-07
1.1199e-05
0.000131095
0.00149599
0.000605383
0.000160507
4.73042e-05
9.12087e-06
0.000259049
0.000113371
7.58941e-09
1.34324e-08
2.44211e-08
1.81054e-08
1.07662e-08
2.3988e-08
1.05051e-07
7.76891e-08
1.25262e-08
3.49275e-08
8.03726e-07
1.49597e-05
0.000164269
7.10884e-05
2.70698e-05
8.26069e-06
8.56599e-06
0.000479457
0.000174808
1.19007e-12
2.85728e-12
4.48173e-12
6.67615e-12
1.46762e-11
3.39867e-11
9.15553e-11
8.3339e-11
4.64017e-10
2.12938e-08
2.53347e-07
2.48288e-06
2.2234e-05
1.19798e-05
7.46584e-06
7.50006e-06
8.01026e-06
0.000477628
0.000249059
8.83936e-13
1.99897e-11
9.00863e-12
2.37758e-12
2.20514e-12
1.31763e-11
5.40251e-11
6.08848e-11
1.75313e-09
2.7336e-08
1.75885e-07
9.14674e-07
3.82058e-06
4.24851e-06
8.23371e-06
8.75878e-06
8.99376e-06
0.000297918
0.000160603
5.34411e-10
5.63299e-09
3.318e-09
6.37494e-10
8.03577e-11
1.58852e-10
4.44637e-10
4.04251e-10
3.48047e-09
8.04478e-08
4.24732e-07
6.77525e-07
2.09926e-06
2.52285e-05
6.60453e-05
6.65578e-05
1.44975e-05
2.2488e-05
3.3196e-05
2.92888e-08
1.51836e-07
1.19179e-07
4.61533e-08
1.60233e-08
3.41039e-09
1.28173e-09
9.70538e-10
2.14266e-09
3.59407e-08
8.76198e-08
1.61579e-07
4.88144e-06
0.000159121
0.000331023
0.000197613
1.92168e-05
1.73108e-06
8.29644e-06
3.95003e-07
5.88306e-07
7.82368e-07
8.4043e-07
5.16681e-07
1.00026e-07
4.53656e-09
2.37078e-09
3.10823e-09
4.24677e-09
6.15461e-09
5.79694e-08
2.0674e-05
0.000539066
0.000780043
0.000269925
1.45957e-05
3.89702e-07
3.91828e-06
1.97681e-06
1.03755e-06
1.76613e-06
3.16905e-06
2.01678e-06
4.12672e-07
1.91438e-08
1.02328e-08
1.43767e-08
9.92643e-09
2.42368e-08
7.98983e-07
9.49277e-05
0.000985329
0.000863454
0.00017564
5.63161e-06
2.01955e-07
2.60481e-06
3.33407e-06
1.63057e-06
3.0527e-06
4.84012e-06
2.67796e-06
6.58699e-07
4.8908e-08
4.11799e-08
5.2759e-08
3.75877e-08
9.25442e-08
1.08676e-05
0.00063366
0.00112135
0.000466145
4.39733e-05
6.15448e-07
1.28576e-07
1.64391e-06
1.38138e-05
2.08393e-05
1.18534e-05
5.75406e-06
1.71668e-06
5.04624e-07
9.39809e-08
1.40298e-07
1.18083e-07
4.07261e-08
8.39048e-08
5.07455e-05
0.00135887
0.00112872
0.000238606
9.18573e-06
3.07619e-08
8.72968e-08
7.24484e-07
5.22185e-05
0.000100162
6.63083e-05
1.89611e-05
3.52648e-06
1.75601e-06
8.91567e-07
3.45408e-07
9.69685e-08
9.65802e-08
1.04103e-06
0.000417469
0.00160189
0.000865169
0.000102426
1.72754e-06
2.52862e-09
1.25762e-08
3.27785e-07
0.00010397
0.000150575
0.000151361
7.96678e-05
1.93004e-05
2.50657e-06
8.93175e-07
1.0304e-06
5.09321e-07
4.17786e-07
5.06729e-05
0.000951298
0.00160054
0.000805217
9.07521e-05
1.20114e-06
8.93474e-10
2.58805e-09
1.45374e-07
2.23734e-05
9.64146e-05
0.000150575
0.000129678
3.86855e-05
1.02226e-05
6.13644e-06
2.43071e-06
3.1333e-07
3.47462e-07
1.95349e-05
0.000336004
0.00121688
0.000558658
5.08985e-05
2.79375e-07
1.2544e-10
1.23555e-09
7.86773e-08
3.83948e-06
7.09605e-06
0.000106538
0.000146117
0.000129935
4.43055e-05
8.94557e-06
1.97877e-06
2.91134e-07
2.91363e-07
3.23982e-06
0.000310654
0.000713602
0.000268761
1.72757e-05
5.86953e-08
1.13643e-11
2.40773e-10
2.03845e-09
4.64384e-07
2.3195e-07
9.00789e-06
5.09462e-05
2.66752e-05
1.20134e-05
9.35293e-06
4.78196e-06
7.77944e-07
8.88411e-07
1.00743e-05
0.000448184
0.00054567
9.99795e-05
2.02602e-06
2.03652e-09
9.42404e-13
3.57495e-11
3.7585e-11
4.13774e-09
2.73502e-09
2.88274e-07
2.84964e-06
3.23401e-06
2.69899e-06
4.30336e-06
5.31167e-06
3.60958e-06
4.23252e-06
1.41989e-05
0.000417098
0.000211252
5.59027e-06
2.68451e-09
2.05901e-14
2.87274e-13
1.6542e-12
1.48956e-13
1.31789e-13
7.16364e-12
9.07455e-10
1.22702e-08
2.69771e-08
9.47097e-08
5.54369e-07
2.25453e-06
4.73862e-06
6.83726e-06
7.89889e-05
0.000177328
3.40138e-05
3.73081e-07
8.41751e-11
2.9964e-16
4.98979e-24
7.31088e-26
2.32626e-16
)
;

boundaryField
{
    leftWall
    {
        type            zeroGradient;
    }
    rightWall
    {
        type            zeroGradient;
    }
    lowerWall
    {
        type            zeroGradient;
    }
    atmosphere
    {
        type            inletOutlet;
        inletValue      uniform 0;
        value           nonuniform List<scalar> 
46
(
1.46663e-22
2.87436e-23
1.87583e-23
2.21468e-23
5.06513e-23
3.74886e-23
2.99556e-23
9.03681e-24
9.81487e-24
5.32348e-23
1.37372e-22
1.62009e-20
7.17002e-12
5.13781e-09
2.93991e-07
6.65881e-06
2.1279e-05
1.00378e-05
0
0
0
0
0
0
0
0
0
0
0
0
0
0
0
0
2.25453e-06
4.73862e-06
6.83726e-06
7.89889e-05
0.000177328
3.40138e-05
0
0
0
0
0
0
)
;
    }
    defaultFaces
    {
        type            empty;
    }
}


// ************************************************************************* //
