/*--------------------------------*- C++ -*----------------------------------*\
| =========                 |                                                 |
| \\      /  F ield         | foam-extend: Open Source CFD                    |
|  \\    /   O peration     | Version:     4.1                                |
|   \\  /    A nd           | Web:         http://www.foam-extend.org         |
|    \\/     M anipulation  |                                                 |
\*---------------------------------------------------------------------------*/
FoamFile
{
    version     2.0;
    format      ascii;
    class       volScalarField;
    location    "0.7";
    object      pd;
}
// * * * * * * * * * * * * * * * * * * * * * * * * * * * * * * * * * * * * * //

dimensions      [1 -1 -2 0 0 0 0];

internalField   nonuniform List<scalar> 
2268
(
602.197
609.24
627.216
630.001
664.04
665.139
689.022
703.114
720.97
733.998
736.638
744.818
750.904
757.564
763.895
773.584
778.918
786.021
790.541
796.581
801.589
807.095
810.362
598.848
605.258
621.09
633.932
664.622
667.368
689.901
700.524
721.401
735.712
732.506
747.127
750.352
754.202
763.709
773.262
780.107
785.352
790.126
796.556
801.487
807.54
811.079
595.652
607.373
623.526
636.301
668.064
657.975
689.224
703.483
726.712
724.853
737.728
747.791
743.281
764.815
757.171
777.306
775.819
785.925
790.74
797.223
802.109
808.381
812.102
584.414
601.176
608.301
638.961
664.904
668.122
688.573
711.948
710.475
739.535
733.662
747.514
749.265
758.18
763.463
772.672
777.976
784.527
790.688
796.089
801.32
809.732
814.755
576.625
593.515
616.111
645.73
661.852
663.725
697.032
707.755
714.238
740.307
735.605
747.997
746.424
759.783
761.115
771.095
779.102
787.434
789.309
797.105
803.331
811.661
816.756
554.432
586.706
604.572
643.147
668.667
669.292
700.363
705.997
723.613
733.92
734.86
745.753
749.14
757.506
766.457
768.085
774.047
781.042
789.606
794.927
798.909
813.242
821.564
539.211
557.71
595.937
637.073
685.446
672.307
707.425
714.461
720.789
733.151
735.476
745.656
748.941
758.251
761.1
762.622
776.88
780.502
792.61
799.641
802.44
818.235
828.532
423.247
510.612
578.394
630.365
689.22
668.534
685.889
724.897
720.551
730.314
734.923
744.077
748.474
754.507
771.795
751.772
795.618
772.756
795.129
782.514
796.646
810.719
834.92
1883.3
1513.9
1185.22
1128.66
1097.5
1042.38
766.941
619.67
561.711
584.155
679.493
803.405
882.332
828.64
725.129
579.287
631.202
584.391
539.073
1776.33
1443.25
1144.54
1121.45
1122.34
1043.59
745.284
609.162
494.232
515.377
608.928
847.694
894.095
766.927
705.704
604.622
614.43
579.444
524.805
1513.59
1456.88
1035.76
1070.8
1118.77
1074.45
696.84
588.781
502.373
427.144
606.575
824.289
846.178
757.527
731.807
594.396
592.142
524.055
520.606
1473.83
1336.24
991.954
1085.56
1116.64
991.165
757.584
532.127
371.842
373.84
564.486
826.267
830.517
752.547
693.172
543.323
466.812
424.856
394.334
1370.5
1261.62
999.21
1032.69
1122.6
993.757
687.617
501.238
436.829
394.085
675.022
804.436
823.5
754.785
640.805
462.126
461.63
397.941
294.873
1281.68
1130.19
934.514
875.192
1060.64
1047.5
825.731
618.7
448.992
484.864
736.361
805.391
807.812
748.222
577.363
436.53
476.74
408.103
257.603
1203.12
1031.74
685.926
679.012
961.29
1013.27
902.08
803.85
650.144
705.035
662.315
749.583
710.333
712.099
530.371
415.292
468.255
347.244
243.441
1113.12
951.692
620.312
630.872
803.092
963.329
939.662
888.122
753.067
700.141
634.936
674.816
750.168
656.962
478.003
394.336
452.213
280.783
246.276
119.589
179.145
325.707
512.995
706.213
698.242
718.431
715.602
718.787
727.854
732.976
742.426
750.083
752.854
776.925
718.624
796.246
772.426
798.908
785.111
794.457
850.17
847.569
20.3675
31.5001
63.8945
290.274
535.478
659.511
598.519
600.511
598.173
624.676
645.003
667.009
678.655
702.71
674.485
682.478
765.829
719.292
751.392
705.332
724.366
739.741
837.15
12.5412
21.4733
65.9689
131.611
143.211
118.062
114.059
140.739
110.068
128.959
161.504
216.585
256.112
285.939
265.436
316.12
414.813
424.642
411.914
297.168
264.229
447.901
645.998
8.66759
12.1553
14.6741
12.5923
7.7914
6.54939
7.98502
8.75855
7.21541
8.43784
14.1442
19.4333
25.2032
20.3406
16.9688
25.8564
40.3635
50.5798
30.219
19.6239
37.686
235.58
651.078
6.29977
9.02452
9.28903
5.23026
5.02067
4.76866
4.9132
5.0917
5.53858
5.59595
6.34353
6.42174
6.40282
5.71689
5.11816
5.54887
7.19739
11.7393
8.0099
10.3214
142.058
746.778
853.637
5.2168
5.44876
6.15243
5.06999
4.5213
5.05009
4.77295
5.08335
5.18695
5.10736
5.29852
5.11225
5.27658
4.88041
4.77855
4.52353
5.2787
6.02473
7.37777
10.4437
114.095
680.597
1155.34
4.65905
4.09286
4.8325
4.83011
4.88705
4.48727
4.65754
5.15584
4.77922
5.13901
4.99691
5.09621
4.84488
4.76848
4.27565
3.76807
4.88688
5.99266
7.23639
7.1009
8.16775
36.9104
565.848
4.92516
4.86892
4.78818
4.72445
4.80799
4.80594
4.83189
4.82122
4.62026
5.60552
5.33683
5.11166
5.09179
5.02991
4.95604
4.74236
4.98177
5.50011
9.1119
14.6669
22.6084
99.5237
746.498
4.64787
4.69854
4.62746
4.75488
4.75809
4.7958
4.84842
4.6826
4.3702
4.77504
4.44475
4.48019
5.25617
4.36183
3.56916
7.7631
30.7536
98.7815
183.972
220.872
175.484
139.946
103.939
4.51522
4.52693
4.55302
4.64771
4.51347
4.81092
4.87898
4.80284
3.68478
4.31249
3.15098
2.27719
2.70035
5.9534
9.88203
20.0451
53.7916
148.699
250.165
258.944
293.631
178.574
39.3455
4.34943
4.38267
4.2885
4.71931
4.43609
4.31327
4.69617
4.61025
3.48408
2.07585
1.07005
-0.288577
-0.149606
5.19348
28.9794
39.3102
41.2756
6.90762
6.33721
74.4462
163.527
182.089
90.9974
4.07761
4.07898
4.02462
3.98879
4.14772
4.07282
3.8666
3.76048
3.13382
1.91023
0.0726881
-0.553029
-0.328454
1.81436
22.8824
41.803
38.4914
4.92193
3.27611
9.05642
79.6977
239.867
291.585
3.83367
3.80899
3.85276
3.72391
3.7943
3.7225
3.55011
3.19275
2.92852
1.98561
1.29199
0.418763
0.399489
0.825667
8.79508
23.928
28.6536
5.74532
2.68579
11.6177
107.56
278.812
283.357
3.545
3.49956
3.60532
3.42448
3.49364
3.4229
3.28828
2.86189
1.65933
1.73654
1.01673
0.700004
0.296272
0.402439
2.27718
7.01447
6.28051
4.31712
11.253
52.0621
152.073
109.316
12.9391
3.22429
3.11957
3.37757
2.51238
3.05163
3.21599
3.10329
3.10066
2.68231
2.35753
1.40546
1.25614
0.615243
0.511493
1.40964
3.55411
1.41172
5.10045
36.5056
73.5927
59.0598
10.4059
-2.30425
2.91583
2.92337
3.41481
3.22106
3.17432
2.86081
2.82174
2.83726
2.66112
2.91406
2.41105
1.7755
0.787989
0.124812
-0.660164
-0.44417
-0.537844
5.57374
34.9586
31.0771
0.276002
-2.17629
-3.71191
2.56616
2.4398
2.084
2.50572
3.0802
2.72258
2.67869
2.61657
2.46905
2.98599
2.63766
2.57614
2.23449
4.76285
0.478995
-0.42625
-0.136811
4.76274
14.8344
3.65766
-2.75243
-3.37792
-4.40157
2.17284
2.22138
1.32633
1.86647
1.6807
2.1777
2.79268
2.60258
2.39168
3.20923
3.76754
6.61218
32.7361
53.9613
46.0239
13.3549
4.73677
5.52622
10.5801
-2.71611
-3.81169
-3.96434
-5.06054
2.08474
2.1511
2.31876
2.11704
0.649266
2.29032
1.30273
2.06178
2.39549
2.80473
15.1218
78.6181
110.614
113.149
28.3608
3.98119
2.82128
3.07332
1.92637
-3.21662
-4.21589
-4.84823
-5.52002
2.00204
1.90397
1.88894
1.93983
1.75319
1.30956
0.41279
1.17751
1.27032
1.1821
23.7072
93.0244
111.523
12.0662
-2.53631
-2.70188
-1.72009
-2.63892
-3.68218
-4.65268
-5.04819
-4.99593
-4.23446
1.8474
1.80234
1.79297
1.72061
1.60108
1.27565
1.74322
0.969224
-0.316207
-2.13119
6.42041
43.323
66.9622
11.7739
-3.44547
-3.45214
-3.93572
-4.67781
-4.50926
-4.71087
-5.28206
-5.3169
-4.76347
1.73107
1.78933
1.72187
1.65799
1.37042
1.04292
1.16133
0.667554
-0.281146
-2.30596
-1.78722
5.62894
29.5952
22.0386
-1.252
-3.19997
-3.72731
-4.80139
-3.73918
-3.82892
-4.69785
-6.27666
-6.39017
1.67974
1.65139
1.52228
1.45011
1.05003
0.21107
0.731376
0.52427
-0.326274
-1.83661
-3.49819
-3.46731
4.84771
13.9026
8.28656
-0.803127
-4.36835
-5.04447
-2.83381
-1.77966
-1.67875
-3.40793
-5.35479
1.53199
1.54057
1.40434
1.23532
1.33749
1.24292
0.715356
0.737865
-0.396606
-1.50245
-3.35803
-3.82847
-3.29944
-1.3677
4.07669
1.56018
-2.97611
-4.69221
-4.58326
-4.14558
-4.08099
-4.195
-3.67502
1.2984
1.29149
1.27499
1.12606
1.08577
0.868589
0.294028
-0.374417
-1.25658
-1.68457
-1.90478
-3.02217
-2.70989
-3.82761
-3.14976
-4.43695
-4.05281
-4.29316
-4.2691
-3.63499
-4.12347
-4.6277
-4.98309
1.50838
1.07918
1.04821
1.15332
1.19807
0.59191
0.375005
-0.288144
-1.13629
-1.16002
-1.39092
-1.8402
-2.1755
-3.48531
-4.01138
-5.08502
-3.61983
-3.8298
-3.49449
-3.11658
-3.29253
-4.36034
-4.68652
0.111724
0.688824
0.658716
1.15239
0.115352
0.364436
0.336156
-1.10717
-0.94807
-0.872158
-0.664899
-1.91606
-1.78173
-3.51028
-4.11724
-3.18902
-2.88189
-3.02636
-2.65211
-2.31051
-3.68231
-3.30986
-3.58554
-0.271866
0.910225
0.249509
-0.0808126
-0.621325
0.697131
-0.0426846
-0.536304
-0.200824
-0.681838
-1.34049
-1.34093
-2.62597
-2.90504
-1.59992
-2.5715
-2.55436
-3.27359
-1.8707
-2.96622
-3.63965
-2.52691
-3.27783
0.810312
0.138623
0.387811
0.503512
0.386765
-0.0721329
-0.293481
0.130825
-0.278943
-0.746865
-1.30474
-1.77415
-2.10825
-1.66743
-2.68517
-2.1025
-1.96563
-2.01144
-1.91112
-1.87713
-2.14558
-1.63024
-3.25906
0.588253
0.232562
0.575522
0.270215
0.750695
0.0376409
0.142904
-0.152479
-0.654395
-0.433209
-1.17164
-1.61471
-0.964284
-1.838
-1.62392
-1.46026
-1.48507
-1.8324
-1.36812
-1.22238
-1.5138
-1.19596
-2.26156
0.471313
0.172204
0.675997
-0.104729
-0.24109
-0.340853
-0.439586
-0.660873
-0.658941
-0.745407
-0.92008
-0.616759
-0.713294
-1.05352
-0.949909
-1.01517
-1.3786
-1.28669
-1.0073
-1.02393
-1.12483
-1.09252
-1.11461
0.277163
0.0108935
-0.145847
-0.121047
-0.215923
-0.129988
-0.224644
-0.283279
-0.33464
-0.373285
-0.500366
-0.495489
-0.403299
-1.09157
-0.672208
-0.514707
-1.4386
-1.63668
-0.616196
-0.789925
-0.736642
-0.819756
-0.882017
0.248025
0.118834
0.0865558
0.0172561
0.0805496
-0.0261577
-0.0808847
-0.143524
-0.224888
-0.247166
-0.326667
-0.451518
-0.55009
-0.562096
-0.578949
-0.509705
-0.917602
-0.468149
-0.514372
-0.453913
-0.523764
-0.591315
-0.707417
0.13623
0.00393767
0.0482565
-0.0367967
-0.0496933
-0.0859648
-0.118411
-0.128237
-0.140642
-0.195836
-0.285155
-0.255936
-0.296878
-0.21408
-0.529923
-0.276208
-0.772941
-0.750223
-0.818395
-0.17663
-0.315394
-0.320417
-0.300977
0.517931
0.0675624
0.0781454
-0.00554578
0.0126134
-0.0211461
-0.0158832
-0.0514701
0.0434533
-0.0777724
-0.266483
-0.265292
-0.283139
-0.348026
-0.374277
-0.21975
-0.420521
-0.317815
-0.208954
-0.142276
-0.105392
-0.147687
0.0777072
-0.383988
-0.20754
-0.0725614
-0.0930321
-0.06776
-0.10146
-0.129277
-0.178821
-0.268997
-0.304417
-0.221773
-0.233554
-0.197695
-0.208027
-0.246423
-0.363645
-0.152789
-0.294439
-0.26311
-0.159822
-0.0333662
-0.57476
-0.491626
-0.116636
-0.00397385
-0.0385921
-0.0409189
-0.0466555
-0.056849
-0.0660557
-0.0566352
-0.0584739
0.0247783
-0.107967
-0.335848
-0.0155811
-0.149877
-0.166494
-0.0498626
-0.139074
-0.074461
-0.0653804
-0.00549324
-0.0859162
0.0728446
-0.277347
-0.0738991
-0.0533245
-0.0663897
-0.0662903
-0.072382
-0.0849677
-0.0972643
-0.118565
-0.131943
-0.196533
-0.166883
0.0186827
-0.0403808
-0.0132864
-0.132476
-0.0916079
-0.168707
0.091054
-0.0507994
-0.0425074
0.0766203
0.00426216
-0.378138
-0.063919
-0.0516495
-0.0637434
-0.0641994
-0.0690284
-0.0857326
-0.0990002
-0.0796551
-0.0725723
-0.0259566
0.0267895
-0.0054345
0.0478288
-0.111395
-0.218206
0.0127628
0.109968
0.119678
0.0201678
0.170274
-0.00262215
0.229092
-0.000293433
-0.107453
-0.104672
-0.103217
-0.10046
-0.0907438
-0.093418
-0.0646785
-0.0722255
-0.0620676
-0.0590554
-0.0823439
-0.040641
0.0113121
0.0756035
-0.00187366
0.0416861
0.0277589
0.0498255
-0.0283833
-0.0827255
0.00561913
-0.264087
0.00346626
-0.0169468
-0.0158913
-0.0142743
-0.0408536
-0.0143453
-0.195982
-0.286323
-0.116107
-0.282968
-0.107873
-0.147835
-0.231564
-0.138495
-0.14344
-0.203376
-0.123907
0.0858338
0.0732291
-0.130203
0.0473294
-0.0688347
-0.204677
-0.48539
-0.284898
-0.276276
-0.253865
-0.225632
-0.167763
-0.0676283
0.273141
0.00274361
0.263499
0.02538
0.0287829
0.229108
0.0374313
0.158092
0.13179
0.0899518
0.161718
0.0603695
-0.156521
-0.0523873
-0.307535
-0.212793
-0.637656
860.063
896.508
927.597
955.09
881.609
935.678
966.153
1042.85
742.392
833.893
821.62
918.996
657.905
731.444
774.105
958.143
828.166
545.524
659.781
684.043
1194.47
807.62
689.584
665.318
1255.19
1232.03
1103.54
1178.17
1324.71
1124.26
828.929
697.252
125.684
125.622
129.075
103.956
42.8698
110.362
140.63
144.723
43.0831
37.9396
41.3856
48.733
291.759
98.4524
81.6989
193.32
203.201
130.728
217.729
306.188
4.0915
13.8266
32.1045
54.3438
-2.15634
-1.74243
-2.12045
-2.10026
-3.56664
-3.68138
-3.48168
-2.78094
-4.40794
-3.73254
-1.85525
0.0770674
-5.08777
-4.55601
-3.2408
-0.731786
-4.89629
-4.11687
-3.27385
-2.90494
-2.85266
-2.65416
-2.24276
-4.2424
-3.51637
-3.08879
-3.13231
-2.85457
-6.78133
-6.48862
-5.54204
-4.92138
-5.83464
-5.77821
-5.46509
-5.05798
-2.62586
-2.4528
-2.4446
-2.54062
-3.30131
-3.19322
-3.45479
-3.44461
-3.05888
-2.74652
-2.74209
-3.10569
-2.85033
-2.59163
-2.86674
-3.01948
-3.00795
-2.59651
-2.13769
-2.04324
-2.75161
-2.9291
-2.86243
-1.86622
-2.63148
-2.60798
-2.66171
-2.31104
-1.78357
-1.44156
-1.4915
-1.55117
-1.42684
-1.33926
-1.33775
-1.36963
-1.08304
-1.17201
-1.12339
-0.965462
-0.358208
-0.442489
-0.585999
-0.731084
-0.439255
-0.763191
-1.08593
-1.10432
-0.0590264
-0.0679341
-0.135158
-0.40596
-0.308083
0.133556
0.136952
0.0481386
-0.45413
-0.551202
-0.60724
-0.73697
-0.358418
-0.176342
-0.314284
-0.421929
0.0280313
-0.0543201
-0.134669
-0.618278
-0.789966
-0.80421
-0.8339
-0.698776
-0.425325
-0.434093
-0.492115
-0.650628
993.828
1028.07
649.225
676.225
649.972
786.855
893.28
912.118
754.868
543.079
384.503
439.111
712.803
545.565
362.108
386.261
397.967
205.179
240.827
1000.01
839
1016.85
936.734
550.608
605.333
743.49
813.759
498.442
243.996
200.95
359.437
715.064
408.607
282.265
240.94
275.019
156.517
236.161
947.044
501.63
1024.09
583.151
458.717
586.165
675.319
512.616
229.364
119.4
119.756
297.028
531.824
550.082
283.827
204.45
151.522
110.786
134.33
769.57
467.842
855.71
487.581
475.663
667.538
618.293
278.027
220.781
74.1065
88.5426
208.302
384.5
766.834
424.362
223.663
121.729
107.844
106.9
792.668
887.837
505.805
483.732
801.284
682.676
535.258
500.327
570.721
135.96
88.0436
100.647
288.135
837.639
466.81
279.863
147.572
102.465
104.764
894.488
882.53
338.731
287.049
426.907
256.026
211.073
354.603
386.455
283.734
127.623
115.635
328.8
923.264
422.504
313.821
196.772
101.938
98.1499
920.419
555.373
181.302
59.179
40.0322
31.8463
32.18
43.1517
83.5003
403.341
681.18
613.99
828.498
959.186
657.125
153.321
198.054
116.114
96.0025
463.211
149.272
99.2335
35.2314
25.4257
27.5753
30.1765
31.1199
40.1623
148.407
721.166
1064.74
1058.9
1010.62
272.271
167.116
148.181
148.547
92.7688
74.4052
53.4525
49.1462
28.0605
28.2701
29.3246
29.6816
40.3961
75.0004
96.4243
266.984
708.673
945.728
569.777
192.888
155.295
185.557
187.125
99.4811
117.254
44.9984
36.4928
34.2803
32.5004
33.4185
29.499
70.904
208.861
145.635
190.392
241.715
231.706
186.164
161.605
157.246
137.838
88.3433
125.391
62.7839
41.2925
44.7742
46.3398
50.9764
32.957
27.9689
27.0304
213.728
225.913
198.259
210.926
126.06
67.07
55.3176
50.597
16.3852
20.5204
140.477
211.044
87.5269
58.0172
112.954
156.88
97.1317
67.0912
45.8374
153.2
203.182
139.213
192.365
83.4468
19.2627
11.2395
11.8632
6.4186
7.71761
17.5515
301.992
180.31
120.523
231.423
234.319
228.845
203.485
162.982
38.5332
28.0955
60.7234
84.0753
56.3725
12.757
5.53612
5.25963
4.65702
6.34278
6.07187
97.011
158.752
86.3593
60.2879
120.95
130.712
69.8915
41.3874
7.46203
8.20633
28.7568
20.078
21.0166
8.32633
4.39679
4.57062
4.69956
4.60401
5.54012
-1.64436
1.4549
1.30757
1.15383
2.16512
3.21947
1.63935
1.68241
2.49612
5.8943
10.6477
6.05798
5.30839
4.85673
4.22999
5.11293
5.10079
4.89647
5.45108
-1.56959
0.961045
-1.70537
-0.708568
0.575637
1.35752
1.41972
1.68412
2.23286
2.22554
2.08258
2.92091
3.01441
3.99698
4.24431
5.89974
5.88974
4.2316
5.98008
1.61083
4.14887
-0.135936
1.18814
2.12955
1.75143
1.74849
1.6676
1.92249
1.87466
1.95024
2.32486
2.72005
3.55118
4.51179
5.66892
5.54542
4.76737
49.4806
4.09586
5.19126
4.51014
6.70111
4.76195
2.60839
1.84461
1.80848
2.13364
1.65326
1.64287
2.53449
2.66674
3.70244
4.34347
3.98556
3.17793
4.57758
312.233
-2.56523
-0.749737
3.60672
7.95025
9.41114
5.03472
3.06241
1.83988
1.98456
1.95354
2.0242
2.57056
2.30236
3.04971
2.98304
2.69632
2.49066
4.23079
521.869
-3.19966
-3.72746
-2.73928
-1.1545
2.39843
7.04087
7.40939
2.56161
1.98525
1.75294
1.71346
2.19938
2.15885
3.32863
3.50373
3.04151
2.71405
2.99978
546.61
-4.13392
-4.55184
-1.59662
-1.22624
0.711559
6.07857
7.02377
6.9699
3.82722
1.7
1.73918
2.92221
6.98462
6.6244
3.52883
2.26144
2.85672
2.37664
470.429
-5.56752
-0.53859
-0.627827
-1.27446
-0.363518
0.729835
6.25901
8.24411
9.09965
4.57822
1.66476
4.11629
16.4616
17.0094
7.18127
2.40364
2.07467
2.17718
67.2613
-4.56729
-0.0895051
-0.697008
-1.17165
-0.284629
0.341347
0.295972
6.21633
8.09871
7.5432
4.06444
6.78062
17.0668
18.9708
13.493
2.81652
2.05861
2.07394
6.94475
-3.63419
-1.09526
-2.10739
-1.45096
-0.576003
-0.400211
0.120436
0.36518
1.89504
4.85221
7.70757
14.6221
18.8002
19.4798
14.4844
2.93675
1.62252
1.82053
2.5322
-2.87255
-1.6427
-1.58263
-1.1675
0.348234
0.325563
0.355069
-0.014303
0.886912
0.880816
2.02913
8.96569
19.9406
15.2529
5.32716
1.97791
1.98316
1.99933
2.03121
-3.78206
-2.09295
-1.34165
-1.39491
-0.462553
0.48578
0.630162
-0.0789775
0.573647
0.528568
0.383513
1.47221
6.75174
3.17039
2.13192
2.00424
1.72932
2.73176
2.0118
-3.36445
-1.27025
-0.89034
-1.22611
-0.50054
-0.123301
0.635987
0.0670955
0.548248
0.992622
0.394044
0.71195
1.94076
1.37302
1.47227
1.55063
1.60051
3.50284
2.24702
-1.86587
-0.909368
-1.33279
-1.32439
-0.511529
0.353626
0.114681
0.305402
-0.0099567
0.795575
0.763404
0.585748
1.14657
1.00828
1.3084
1.45645
1.41905
3.39274
2.43919
-1.66718
-0.884707
-1.37922
-0.771661
-0.539478
-0.0126358
0.248788
0.234756
0.253506
0.617393
0.62645
0.807863
1.08663
1.06659
1.16455
1.36455
1.34562
2.52145
2.0441
-1.76124
-1.22577
-0.786851
-0.497599
-0.820914
-0.419278
0.398097
0.230491
0.359248
0.327404
0.57102
0.725864
1.04247
1.18032
1.25932
1.56215
1.34557
1.28698
1.4373
-1.70649
-1.17613
-0.933414
-0.31311
-0.281719
-0.587349
0.160133
0.4596
0.328187
0.573654
0.353783
0.502927
0.846204
1.82453
2.30784
2.10073
1.24801
1.18698
1.27831
-1.1492
-0.36065
-1.31648
-1.33727
-0.0165268
-0.323673
0.253114
0.268615
0.390255
0.344907
0.600933
0.757152
1.12282
3.2871
4.14837
2.31928
1.11142
1.16625
1.19657
-1.30556
-0.185616
-0.902928
-1.96108
-0.125721
0.163117
-0.0139213
0.0798257
0.484696
-0.0911136
0.17347
0.88209
1.20598
5.31049
4.75809
1.74685
1.20075
1.23222
1.19533
-0.746735
-0.105019
-0.787747
-1.89035
-1.22702
0.0659682
0.0169681
-0.105449
0.274004
0.267456
0.603593
0.401759
3.88341
5.93503
2.95943
1.30664
0.855249
0.723882
1.00359
-1.05121
-0.362771
-0.826403
-0.761185
-1.15644
-0.581916
0.302218
-0.232441
0.163674
-0.121568
0.398403
0.79836
7.06284
6.004
1.92437
0.723129
0.822618
0.820437
0.889934
-0.0209796
-0.489307
-0.806779
-0.945428
-0.933651
-0.273222
-0.101328
-0.127779
0.156259
0.361866
0.165059
2.6235
8.5849
4.81429
1.11485
0.798316
0.612691
0.60965
0.813657
0.122538
-0.242123
-0.321534
-1.06275
-0.985761
-0.759464
-0.355492
-0.233957
-0.0305552
0.0779032
0.29514
5.14737
8.27967
4.27936
0.997922
0.464431
0.560748
0.684094
0.520733
-1.15073
-0.29861
-0.458786
-0.743996
-0.781253
-0.813907
-0.637279
-0.295542
-0.434392
-0.338253
0.331814
1.93497
6.63119
3.24363
0.773444
0.445207
0.5271
0.476569
0.527752
-0.724509
-0.875993
-0.236401
-0.76778
-0.168738
-0.617521
-0.431476
-0.294431
-0.0541582
-0.153799
-0.100116
2.06504
3.99165
1.7211
0.579257
0.327643
0.479463
0.45256
0.325275
0.023093
-0.868219
-1.54854
-0.997284
-0.545608
-0.643125
-0.464568
-0.0062383
-0.220827
0.102262
-0.0249065
2.79815
3.17059
0.685725
0.342328
0.227923
0.271389
0.20646
0.296806
-0.397894
-0.623635
-1.02391
-0.914032
-0.921622
-0.501256
-0.404967
-0.0232481
-0.154384
0.0209871
0.146493
2.34135
1.27295
0.130532
0.217585
0.178256
0.169495
0.164321
0.179765
-0.85432
-1.12437
-0.62045
-0.315307
-0.257421
-0.216061
-0.108413
-0.390419
0.159844
0.210481
0.759675
0.865854
0.272877
0.0568179
0.0712828
0.0624656
0.0224929
-0.0015123
-0.00571839
)
;

boundaryField
{
    leftWall
    {
        type            zeroGradient;
    }
    rightWall
    {
        type            zeroGradient;
    }
    lowerWall
    {
        type            zeroGradient;
    }
    atmosphere
    {
        type            totalPressure;
        rho             rho;
        psi             none;
        gamma           1;
        p0              uniform 0;
        value           nonuniform List<scalar> 
46
(
0
0
0
0
0
0
0
0
0
0
0
0
0
0
0
0
0
0
-0.0347535
-0.0767179
-0.268225
-0.292753
-0.52701
-0.651601
-0.693385
-0.724418
-0.726494
-0.677876
-0.853739
-0.736969
-0.478867
-0.39072
-0.220712
-0.0358465
0
0
0
0
0
0
-0.0151555
-0.00542105
-0.0200359
-0.0477806
-0.0628689
-0.057272
)
;
    }
    defaultFaces
    {
        type            empty;
    }
}


// ************************************************************************* //
