/*--------------------------------*- C++ -*----------------------------------*\
| =========                 |                                                 |
| \\      /  F ield         | foam-extend: Open Source CFD                    |
|  \\    /   O peration     | Version:     4.1                                |
|   \\  /    A nd           | Web:         http://www.foam-extend.org         |
|    \\/     M anipulation  |                                                 |
\*---------------------------------------------------------------------------*/
FoamFile
{
    version     2.0;
    format      ascii;
    class       surfaceScalarField;
    location    "0.7";
    object      phi_0;
}
// * * * * * * * * * * * * * * * * * * * * * * * * * * * * * * * * * * * * * //

dimensions      [0 3 -1 0 0 0 0];

internalField   nonuniform List<scalar> 
4432
(
-4.07273e-06
4.07273e-06
-1.00619e-05
5.98913e-06
-1.46265e-05
4.56463e-06
-1.00351e-05
-4.59143e-06
-1.14145e-05
1.37939e-06
-1.29427e-05
1.52825e-06
-1.21433e-05
-7.99427e-07
-1.00086e-05
-2.13473e-06
-7.26817e-06
-2.74038e-06
-8.99735e-06
1.72917e-06
-7.21984e-06
-1.77751e-06
-2.79171e-06
-4.42813e-06
-3.80332e-06
1.01161e-06
-1.49789e-06
-2.30543e-06
-1.86146e-06
3.63573e-07
-8.83653e-08
-1.7731e-06
1.27253e-06
-1.3609e-06
2.33707e-06
-1.06454e-06
2.89416e-06
-5.57083e-07
2.71627e-06
1.77881e-07
1.92168e-06
7.94598e-07
1.19226e-06
7.29419e-07
1.19226e-06
-3.70991e-06
7.78264e-06
-5.00921e-06
7.28843e-06
-7.68318e-06
7.23861e-06
-1.01636e-05
-2.111e-06
-1.14442e-05
2.65995e-06
-1.26949e-05
2.77902e-06
-1.19169e-05
-1.57751e-06
-9.40747e-06
-4.64411e-06
-1.22188e-05
7.09342e-08
-8.59019e-06
-1.89943e-06
-4.41135e-06
-5.95635e-06
-6.63714e-06
-2.20233e-06
-5.64948e-06
2.39498e-08
-3.1696e-06
-4.78532e-06
-2.63269e-06
-1.7333e-07
-1.4943e-06
-2.91149e-06
-6.8799e-07
-2.16721e-06
8.73391e-07
-2.62592e-06
1.63309e-06
-1.31678e-06
1.74563e-06
6.53396e-08
1.15907e-06
1.38115e-06
1.14712e-07
1.77378e-06
1.30697e-06
-5.35689e-06
1.31395e-05
-1.06388e-05
1.25703e-05
-1.55804e-05
1.21802e-05
-1.9659e-05
1.96759e-06
-2.27723e-05
5.77322e-06
-1.40087e-05
-5.98456e-06
-1.25123e-05
-3.07396e-06
-8.87724e-06
-8.27913e-06
-1.21398e-05
3.33346e-06
-5.35478e-06
-8.68441e-06
-8.74538e-06
-2.56575e-06
-8.15208e-06
-2.79564e-06
-4.77029e-06
-3.35784e-06
-8.13258e-06
-1.42302e-06
-4.08199e-06
-4.22392e-06
-6.68655e-06
-3.06927e-07
-2.43742e-06
-6.41634e-06
-1.1799e-06
-3.88344e-06
-2.55372e-07
-2.2413e-06
4.87426e-07
-6.77458e-07
7.91239e-07
1.07734e-06
3.77406e-07
2.18761e-06
1.68438e-06
-5.55332e-06
1.86928e-05
-9.80482e-06
1.68218e-05
-8.47269e-06
1.08481e-05
-1.08139e-05
4.30881e-06
-1.21152e-05
7.07448e-06
-1.39452e-05
-4.15449e-06
-1.20336e-05
-4.98554e-06
-1.82971e-05
-2.01572e-06
-8.68637e-06
-6.27723e-06
-1.35987e-05
-3.77205e-06
-1.42574e-05
-1.90711e-06
-1.58569e-05
-1.19611e-06
-1.63656e-05
-2.84913e-06
-1.66071e-05
-1.1815e-06
-1.6043e-05
-4.78804e-06
-1.50708e-05
-1.2791e-06
-1.31518e-05
-8.33538e-06
-1.00324e-05
-7.00282e-06
-6.31331e-06
-5.9604e-06
-2.73697e-06
-4.2538e-06
-9.00154e-07
-7.59477e-07
-3.46231e-07
1.63369e-06
1.33814e-06
-6.54974e-06
2.52426e-05
-1.12577e-05
2.15298e-05
-1.65965e-05
1.61869e-05
-2.07534e-05
8.46567e-06
-1.28349e-05
-8.43994e-07
-1.49841e-05
-2.0053e-06
-1.30579e-05
-6.91172e-06
-1.15156e-05
-3.55807e-06
-1.05911e-05
-7.20167e-06
-1.69528e-05
2.58957e-06
-1.71798e-05
-1.6801e-06
-1.83935e-05
1.75704e-08
-1.96497e-05
-1.59286e-06
-2.00127e-05
-8.18578e-07
-2.07048e-05
-4.09592e-06
-2.02004e-05
-1.78346e-06
-1.79421e-05
-1.05937e-05
-1.60906e-05
-8.85436e-06
-1.40899e-05
-7.96108e-06
-9.56745e-06
-8.77623e-06
-3.7916e-06
-6.53533e-06
-4.0664e-07
-1.75126e-06
9.31505e-07
-3.59955e-06
2.88421e-05
-1.11366e-05
2.90668e-05
-1.79744e-05
2.30248e-05
-2.31823e-05
1.36735e-05
-1.42659e-05
-9.76042e-06
-1.64024e-05
1.31255e-07
-1.39851e-05
-9.32905e-06
-1.15079e-05
-6.03527e-06
-2.06719e-05
1.96239e-06
-2.04424e-05
2.36001e-06
-2.19932e-05
-1.29293e-07
-2.24236e-05
4.48002e-07
-2.27841e-05
-1.23241e-06
-2.24041e-05
-1.19853e-06
-2.13327e-05
-5.16736e-06
-2.10374e-05
-2.07872e-06
-2.02374e-05
-1.13937e-05
-1.84838e-05
-1.0608e-05
-1.64014e-05
-1.00435e-05
-1.51513e-05
-1.00263e-05
-5.05052e-06
-1.66361e-05
-1.51076e-06
-5.29103e-06
-5.79254e-07
-5.3793e-06
3.42214e-05
-5.94323e-06
2.96308e-05
-1.04478e-05
2.75294e-05
-1.37662e-05
1.69919e-05
-1.4864e-05
-8.66257e-06
-1.62343e-05
1.5015e-06
-2.80075e-05
2.44413e-06
-2.47475e-05
-9.29524e-06
-2.38266e-05
1.0415e-06
-2.29441e-05
1.47755e-06
-2.31542e-05
8.07746e-08
-2.29824e-05
2.76231e-07
-2.29353e-05
-1.27957e-06
-2.24865e-05
-1.64733e-06
-2.30086e-05
-4.64526e-06
-2.34042e-05
-1.68306e-06
-2.08615e-05
-1.39365e-05
-1.89632e-05
-1.25062e-05
-1.71962e-05
-1.18105e-05
-1.52624e-05
-1.19601e-05
-9.77201e-06
-2.21265e-05
-2.25352e-06
-1.28095e-05
-2.83277e-06
-4.24438e-06
3.84658e-05
-1.47291e-05
4.01155e-05
-2.43158e-05
3.71161e-05
-2.97394e-05
2.24155e-05
-3.08197e-05
-7.58229e-06
-1.88587e-05
-1.04595e-05
-1.74414e-05
1.02682e-06
-2.55861e-05
-1.1505e-06
-2.45263e-05
-1.83553e-08
-2.50213e-05
1.97258e-06
-2.47815e-05
-1.58989e-07
-2.43993e-05
-1.05995e-07
-2.45973e-05
-1.08158e-06
-2.40392e-05
-2.20546e-06
-2.40949e-05
-4.58955e-06
-2.53397e-05
-4.38218e-07
-1.96639e-05
-1.96123e-05
-1.71154e-05
-1.50546e-05
-1.57606e-05
-1.31654e-05
-1.6033e-05
-1.16877e-05
-1.17019e-05
-2.64576e-05
-5.52942e-06
-1.8982e-05
-8.3622e-06
-8.25253e-05
8.25253e-05
-0.00010893
2.6405e-05
-0.000123517
1.45868e-05
-0.000124541
1.02419e-06
-0.000122913
-1.62804e-06
-0.000130259
7.3457e-06
-0.000144979
1.47201e-05
-0.000151115
6.13636e-06
-0.000157606
6.49056e-06
-0.000150884
-6.72168e-06
-0.000126257
-2.4627e-05
-0.000102147
-2.41105e-05
-8.4461e-05
-1.76858e-05
-7.61934e-05
-8.26764e-06
-3.72996e-05
-3.88937e-05
-2.73771e-05
-9.92252e-06
-2.69181e-05
-4.59063e-07
-8.72655e-06
-1.81915e-05
-8.72655e-06
-7.48778e-05
0.000157403
-9.80009e-05
4.95282e-05
-0.000110664
2.72498e-05
-0.000111501
1.8617e-06
-0.000110924
-2.20586e-06
-0.000119175
1.55974e-05
-0.000137252
3.27965e-05
-0.000147036
1.59204e-05
-0.000146714
6.16885e-06
-0.000132032
-2.14042e-05
-0.000106657
-5.00019e-05
-8.16778e-05
-4.90894e-05
-7.44205e-05
-2.49431e-05
-4.04077e-05
-4.22804e-05
-4.00062e-05
-3.92953e-05
-4.01429e-05
-9.78574e-06
-2.73013e-05
-1.33007e-05
-9.69491e-06
-3.57979e-05
-1.84215e-05
-3.37618e-05
0.000191165
-7.0289e-05
8.60555e-05
-8.39547e-05
4.09155e-05
-7.77268e-05
-4.36628e-06
-7.47025e-05
-5.23013e-06
-9.09951e-05
3.189e-05
-6.07753e-05
2.57676e-06
-6.29937e-05
1.81388e-05
-0.000102755
4.59297e-05
-7.54284e-05
-4.87304e-05
-3.09437e-05
-9.44866e-05
-3.64422e-05
-4.35908e-05
-3.70541e-05
-2.43312e-05
-3.36555e-05
-4.5679e-05
-6.61532e-05
-6.79754e-06
-5.8794e-05
-1.7145e-05
-2.97148e-05
-4.23799e-05
-9.08663e-06
-5.6426e-05
-2.75081e-05
-2.70862e-05
0.000218251
-5.88345e-05
0.000117804
-3.95694e-05
2.16504e-05
-5.89533e-05
1.50176e-05
-4.40025e-05
-2.01809e-05
-5.1505e-05
3.93924e-05
-6.79493e-05
1.90211e-05
-7.30118e-05
2.32014e-05
-3.23023e-05
5.22021e-06
-1.13457e-05
-6.96871e-05
-1.71738e-06
-0.000104115
4.52428e-06
-4.98325e-05
5.41259e-06
-2.52195e-05
-2.49202e-05
-1.53463e-05
-3.41955e-05
2.47773e-06
-4.481e-05
-6.53049e-06
2.64227e-06
-8.98322e-05
3.61721e-05
-8.99559e-05
8.66402e-06
-2.58362e-05
0.000244087
-5.26738e-05
0.000144641
-6.53619e-05
3.43385e-05
-4.58403e-05
-4.50404e-06
-9.14491e-06
-5.68763e-05
2.14326e-05
8.81496e-06
1.82447e-05
2.22089e-05
4.07381e-05
7.07941e-07
4.53092e-05
6.49065e-07
3.27979e-05
-5.71757e-05
1.54797e-05
-8.67968e-05
2.56363e-05
-5.99891e-05
1.67477e-05
-1.63309e-05
-1.22131e-05
1.36146e-05
-4.99534e-05
4.02181e-05
-3.35544e-05
-2.29295e-05
-3.9591e-06
-0.000119428
3.81403e-05
-0.000132055
4.68043e-05
-2.18731e-05
0.00026596
-4.47163e-05
0.000167484
-4.96039e-05
3.92261e-05
-2.10335e-05
-3.30745e-05
2.88134e-06
-8.07911e-05
2.32266e-05
-1.15303e-05
3.2216e-05
1.32195e-05
4.67068e-05
-1.37828e-05
8.10172e-05
-3.36614e-05
5.71371e-05
-3.32955e-05
3.74593e-05
-6.7119e-05
3.16998e-05
-5.42296e-05
2.68001e-05
-1.14312e-05
-6.7225e-06
4.71372e-05
-4.2905e-05
7.64005e-05
-3.00968e-05
-3.57377e-05
-1.54856e-05
-0.000134039
7.45079e-06
-0.000154992
5.42551e-05
-1.95899e-05
0.00028555
-3.85957e-05
0.00018649
-2.48762e-05
2.55066e-05
-1.0768e-05
-4.71826e-05
8.1683e-06
-9.97274e-05
1.90429e-05
-2.24049e-05
3.88974e-05
-6.635e-06
3.14571e-05
-6.34254e-06
3.25894e-05
-3.47937e-05
5.50673e-05
-5.57734e-05
3.62574e-05
-4.83091e-05
1.47136e-05
-3.26858e-05
1.46233e-05
-1.13408e-05
-1.53434e-05
7.71039e-05
-2.80211e-05
8.90782e-05
-4.03683e-05
-2.33905e-05
-2.42735e-05
-0.000150133
-1.27657e-05
-0.000166499
4.14894e-05
-1.7039e-05
0.000302589
-1.71121e-05
0.000186563
-9.97703e-06
1.83715e-05
9.92539e-06
-6.70851e-05
1.81369e-05
-0.000107939
1.74348e-05
-2.17028e-05
1.97055e-05
-8.90571e-06
2.69225e-05
-1.35595e-05
4.17146e-05
-4.95857e-05
3.34743e-05
-4.75331e-05
2.38197e-05
-3.86545e-05
1.41647e-05
-2.30309e-05
-1.15012e-05
1.43251e-05
-2.68666e-05
9.24692e-05
-5.47577e-05
0.000116969
-4.30493e-05
-3.50989e-05
-4.89621e-05
-0.000144221
-4.58926e-05
-0.000169569
-4.40317e-06
-1.67176e-05
5.51834e-05
-2.95293e-05
5.29273e-05
-4.77637e-05
5.53504e-05
-5.11606e-05
2.58124e-05
-7.47796e-05
1.60367e-05
-6.97033e-05
-1.55358e-05
-6.32643e-05
-5.41219e-06
-5.89088e-05
-5.50606e-06
-5.61539e-05
-2.77324e-06
-5.26309e-05
-1.55036e-06
-5.09995e-05
-1.79043e-06
-4.91999e-05
-1.90558e-06
-4.85464e-05
-1.73506e-06
-4.67621e-05
-3.98976e-06
-5.18321e-05
4.80439e-07
-3.24246e-05
-1.98458e-05
-4.73701e-05
-4.66678e-06
-4.09579e-05
-2.14669e-05
-3.47065e-05
-1.94167e-05
-1.64553e-05
-2.99389e-05
-1.4148e-05
-2.87649e-05
-9.08417e-07
-3.22216e-05
-2.7631e-05
1.83604e-05
-0.000108082
0.000163266
-0.000146063
9.09078e-05
-0.000100965
1.02531e-05
-7.88389e-05
3.68584e-06
-6.10116e-05
-1.7906e-06
-7.90635e-05
2.51611e-06
-6.55555e-05
-1.89202e-05
-5.63412e-05
-1.47203e-05
-5.06555e-05
-8.45893e-06
-4.80084e-05
-4.19755e-06
-4.53818e-05
-4.41696e-06
-4.30537e-05
-4.23374e-06
-3.84803e-05
-6.30844e-06
-4.04219e-05
-2.04817e-06
-2.87073e-05
-1.12342e-05
-2.6169e-05
-2.23841e-05
-1.79558e-05
-1.28799e-05
-2.18801e-05
-1.75426e-05
-2.13323e-05
-1.99645e-05
-1.61027e-05
-3.51685e-05
-1.15407e-05
-3.33269e-05
-4.6996e-06
-3.90627e-05
-4.11843e-05
8.85361e-06
-0.000182489
0.000345755
-0.000190471
9.88892e-05
-0.000178634
-1.58344e-06
-0.000147922
-2.70265e-05
-0.000134721
-1.49917e-05
-6.55233e-05
-6.66814e-05
-5.15745e-05
-3.2869e-05
-7.15212e-05
5.22636e-06
-7.19745e-05
-8.00561e-06
-7.03652e-05
-5.80687e-06
-6.21515e-05
-1.26306e-05
-5.65951e-05
-9.79012e-06
-5.47746e-05
-8.12893e-06
-5.73415e-05
5.18712e-07
-6.35676e-05
-5.00808e-06
-6.12265e-05
-2.47252e-05
-5.21572e-05
-2.19492e-05
-4.68844e-05
-2.28155e-05
-4.72773e-05
-1.95716e-05
-5.23494e-05
-3.00964e-05
-1.81088e-05
-6.75675e-05
2.31118e-05
-8.02832e-05
-6.64461e-05
4.83737e-05
-0.000104552
0.000450308
-7.92055e-05
7.35423e-05
-8.1878e-05
1.08909e-06
-0.000103843
-5.06123e-06
-9.58799e-05
-2.29551e-05
-0.000116975
-4.55868e-05
-0.000130303
-1.95408e-05
-0.000126536
1.45967e-06
-0.000128018
-6.52349e-06
-8.47188e-05
-4.91063e-05
-8.1729e-05
-1.56205e-05
-7.41846e-05
-1.73345e-05
-0.000118531
3.62177e-05
-0.00012742
9.40709e-06
-7.49176e-05
-5.75102e-05
-6.69653e-05
-3.26774e-05
-4.91426e-05
-3.97719e-05
-7.16877e-05
-2.70314e-07
-5.05166e-05
-4.07428e-05
-1.26072e-05
-6.80058e-05
1.5877e-05
-9.60517e-05
1.44422e-06
-6.58505e-05
-2.54006e-05
-3.96013e-05
-5.51682e-05
0.000505476
-0.000127378
0.000145752
-0.00017046
4.41712e-05
-0.000151175
-2.43461e-05
-0.000194856
2.0725e-05
-0.000194824
-4.56187e-05
-0.000189023
-2.53415e-05
-0.000163315
-2.42487e-05
-0.000134799
-3.50389e-05
-0.000136776
-4.713e-05
-0.000100731
-5.16652e-05
-8.10283e-05
-3.70371e-05
-4.36192e-05
-1.1913e-06
2.12034e-05
-5.54155e-05
5.497e-05
-9.12769e-05
4.82793e-05
-2.59868e-05
9.77043e-07
7.53045e-06
-2.50549e-05
2.57616e-05
-6.41164e-05
-1.68134e-06
-7.93262e-05
-5.27959e-05
-0.000106853
-6.85252e-05
-0.000134482
-3.82207e-05
1.84276e-05
-0.000178311
-8.31887e-06
0.000513795
-5.81235e-05
0.000195557
-0.000104498
9.05453e-05
-0.000130595
1.75187e-06
-0.000120028
1.01578e-05
-0.000192181
2.65342e-05
-0.000201288
-1.62351e-05
-0.000181024
-4.45127e-05
-0.000157652
-5.84103e-05
-0.000141908
-6.28743e-05
-9.19585e-05
-0.000101615
-5.31567e-05
-7.5839e-05
4.5105e-05
-9.9453e-05
8.03124e-05
-9.0623e-05
0.000106814
-0.000117779
0.000108467
-2.76394e-05
0.000107742
8.25565e-06
4.40648e-05
8.94385e-05
-6.21417e-05
0.000104525
-0.000155063
4.01251e-05
-0.000181106
-4.24819e-05
-0.000159857
-5.94702e-05
2.58006e-05
-0.00016723
7.15781e-05
0.000442216
-3.05371e-05
0.000297672
-5.93529e-05
0.000119361
-0.000116258
5.86566e-05
-0.00013787
3.17698e-05
-0.000117411
6.07534e-06
-0.000128169
-5.47729e-06
-0.000196549
2.38673e-05
-0.000229901
-2.50586e-05
-0.000195028
-9.77469e-05
-0.000183402
-0.000113241
-0.000156372
-0.000102868
-0.00015712
-9.87052e-05
-0.000169944
-7.77994e-05
-0.000212573
-7.51496e-05
-0.000123837
-0.000116375
-8.28905e-05
-3.26908e-05
-8.54134e-05
9.19614e-05
-5.19992e-05
7.11107e-05
-4.02668e-05
2.83928e-05
-6.33862e-05
-1.93625e-05
-0.000104873
-1.79834e-05
4.54092e-05
-0.000124482
3.83482e-05
0.000403868
4.3831e-05
0.000292189
-7.20032e-06
0.000170392
-3.46415e-05
8.60978e-05
-7.5136e-05
7.22643e-05
-7.53855e-05
6.32484e-06
-0.000111533
3.06703e-05
-0.000139491
5.18248e-05
-0.000172715
8.16607e-06
-0.00030169
3.12279e-05
-0.000451669
3.67378e-05
-0.000554827
2.90007e-07
-0.000579954
-7.35783e-05
-0.000572809
-8.49445e-05
-0.000580175
-6.77834e-05
-0.000578126
-0.000118424
-0.0005074
-0.000103417
-0.000406963
-8.47548e-06
-0.000315251
-2.06017e-05
-0.000233697
-5.31605e-05
-0.000175705
-7.73547e-05
-0.000172587
-2.11012e-05
1.96446e-05
-0.000146823
4.55436e-05
0.000358325
5.14301e-05
0.000286303
7.17777e-06
0.000214645
-3.45882e-05
0.000127864
-0.000101735
0.000139411
-0.000176322
8.09113e-05
-0.000223745
7.80933e-05
-0.000267624
9.57037e-05
-0.000357147
9.76896e-05
-0.000508266
0.000182346
-0.000676946
0.000205418
-0.000746573
6.99174e-05
-0.000774616
-4.55362e-05
-0.000776727
-8.28331e-05
-0.000741323
-0.000103187
-0.000711081
-0.000148667
-0.000647402
-0.000167096
-0.000567805
-8.80724e-05
-0.000498779
-8.96283e-05
-0.000450583
-0.000101356
-0.000400177
-0.000127761
-0.000319306
-0.000101972
-0.000105126
-0.000194536
2.75423e-05
0.000330782
3.52756e-05
0.000278569
9.54826e-06
0.000240372
-1.79262e-05
0.000155338
-6.51681e-05
0.000186653
-0.000171153
0.000186896
-0.000256748
0.000163689
-0.000365404
0.000204359
-0.000549913
0.000282199
-0.000582116
0.00021455
-0.000672016
0.000295317
-0.000699824
9.77255e-05
-0.000680996
-6.4364e-05
-0.000639908
-0.000123921
-0.000608622
-0.000134474
-0.000576138
-0.00018115
-0.000595544
-0.000147691
-0.000621699
-6.19173e-05
-0.000540273
-0.000171054
-0.000471514
-0.000170115
-0.00042144
-0.000177835
-0.000351275
-0.000172137
-9.28588e-05
-0.000363542
4.12764e-06
0.000326655
-2.56135e-06
0.000285258
-2.15872e-05
0.000259398
-6.91601e-06
0.000140667
-4.99222e-05
0.000229659
-9.81874e-05
0.000235161
-0.00020644
0.000271942
-0.000293803
0.000291722
-0.00033634
0.000324736
-0.000484667
0.000362877
-0.000499118
0.000309768
-0.000481671
8.02791e-05
-0.000440704
-0.000105331
-0.000419337
-0.000145288
-0.000385773
-0.000168038
-0.000396425
-0.000170498
-0.000389323
-0.000154793
-0.000283337
-0.000167903
-0.000305034
-0.000149356
-0.000384767
-9.03831e-05
-0.000428796
-0.000133805
-0.000475373
-0.00012556
-0.000115202
-0.00045303
1.77134e-06
0.000324883
-4.60916e-06
0.000291639
-1.50793e-05
0.000269868
-4.35655e-05
0.000169153
-7.87561e-05
0.00026485
-0.000125077
0.000281482
-0.000169589
0.000316454
-0.000219822
0.000341955
-0.000247746
0.00035266
-0.00023818
0.000353311
-0.000149535
0.000221123
-0.000147682
7.84264e-05
-0.000179575
-7.34384e-05
-0.000223924
-0.00010094
-0.000320734
-7.12276e-05
-0.00033707
-0.000154162
-0.000334699
-0.000157164
-0.000386524
-0.000116078
-0.000389923
-0.000145957
-0.000343985
-0.000136322
-0.000337773
-0.000140017
-0.000223144
-0.00024019
-0.000117452
-0.000220893
-3.2829e-06
0.000328166
-1.70916e-05
0.000305447
-2.38178e-05
0.000276594
-4.69129e-05
0.000192248
-8.3939e-05
0.000301876
-0.000118612
0.000316155
-0.000145901
0.000343742
-0.000182324
0.000378377
-7.15589e-05
0.000241895
-8.52321e-05
0.000366984
-2.36016e-05
0.000159492
-8.46877e-05
0.000139513
-0.000171264
1.31383e-05
-0.000263485
-8.71921e-06
-0.000269506
-6.52064e-05
-0.000333599
-9.00692e-05
-0.000340356
-0.000150407
-0.000295345
-0.000161089
-0.000262155
-0.000179147
-0.000277772
-0.000120705
-0.0002723
-0.000145488
-0.000273908
-0.000238582
-0.000233922
-0.000157438
-4.82825e-06
0.000332994
-2.13534e-05
0.000321973
-1.15519e-05
0.000266793
-4.37199e-05
0.000224416
-6.54299e-05
0.000323586
-7.79644e-05
0.000328689
-8.35128e-05
0.000349291
-4.45552e-05
0.00033942
-0.000116531
0.00031387
-6.60069e-05
0.000316461
-4.74909e-05
0.000140976
-4.81478e-05
0.000140169
-8.73852e-05
5.23756e-05
-0.000117077
2.09731e-05
-0.000171787
-1.04967e-05
-0.000143437
-0.00011842
-0.000174382
-0.000119461
-0.000268631
-6.68402e-05
-0.000256865
-0.000190913
-0.000177965
-0.000199605
-0.000138195
-0.000185258
-0.000249717
-0.00012706
-0.000235453
-0.000248186
-3.95824e-06
0.000336953
-1.69675e-06
0.000319711
6.46824e-06
0.000258628
-7.8412e-05
0.000309296
-5.17168e-05
0.000296891
-6.94813e-05
0.000346454
-7.04746e-05
0.000350284
-6.25863e-05
0.000331531
-6.49069e-05
0.000316191
-2.36771e-05
0.000275231
-6.88722e-05
0.000186171
-5.64215e-05
0.000127719
-2.88874e-05
2.48415e-05
-5.08367e-05
4.29224e-05
-7.6487e-05
1.51535e-05
-0.000205298
1.0391e-05
-0.00025781
-6.69485e-05
-0.000245874
-7.87768e-05
-0.00025743
-0.000179357
-0.000272587
-0.000184448
-0.000261219
-0.000196626
-0.00025913
-0.00012915
-0.000127411
-0.000367171
-1.50828e-05
0.000352036
-3.35015e-05
0.00033813
-5.53031e-07
0.000225679
-4.55495e-05
0.000354293
-6.14695e-05
0.000312811
-6.90302e-05
0.000354014
-5.41178e-05
0.000335372
-7.29689e-05
0.000350383
-9.86538e-05
0.000341876
-9.03078e-05
0.000266885
-8.4823e-05
0.000180686
-1.94592e-05
6.23549e-05
3.82484e-05
-3.28661e-05
0.000113295
-3.21245e-05
7.09247e-05
5.75241e-05
1.34044e-05
6.79113e-05
-8.94731e-05
3.59289e-05
-0.000159496
-8.75418e-06
-0.000257613
-8.12396e-05
-0.000291812
-0.000150249
-0.000423921
-6.45166e-05
-0.000610758
5.76873e-05
-2.55916e-05
-0.000712578
-1.49819e-05
0.000367017
-1.32237e-05
0.000336372
-4.57338e-05
0.000258189
-7.76353e-05
0.000386195
-2.27237e-05
0.000257899
-4.21391e-05
0.00037343
-3.97858e-05
0.000333018
-5.25316e-05
0.000363128
-8.54102e-05
0.000374754
-0.000127874
0.000309349
-6.69507e-05
0.000119763
-8.20153e-05
7.74196e-05
-6.74427e-05
-4.74387e-05
1.47561e-05
-0.000114323
5.73269e-05
1.49532e-05
6.22297e-06
0.000119015
-9.7271e-05
0.000139423
-0.000193989
8.79633e-05
-0.000267422
-7.80654e-06
-0.000426282
8.61081e-06
-0.000604202
0.000113404
-0.000658902
0.000112387
1.30704e-05
-0.000697564
7.94839e-06
0.000359069
2.11055e-05
0.000323215
-6.46272e-05
0.000343922
-4.79286e-05
0.000369496
-8.69167e-05
0.000296888
-8.47616e-05
0.000371275
-3.41311e-05
0.000282388
-8.83525e-05
0.00041735
-0.000115299
0.000401701
-0.000211698
0.000405747
-0.000208964
0.000117029
-0.000154095
2.25514e-05
-0.000155869
-4.56646e-05
-0.000242212
-2.79805e-05
-0.000233879
6.62041e-06
-0.000228261
0.000113396
-0.000224776
0.000135938
-0.000261423
0.000124611
-0.000357367
8.81378e-05
-0.00051577
0.000167014
-0.000595256
0.00019289
-0.000580168
9.72992e-05
2.47305e-05
-0.000591828
3.52362e-06
0.000355545
-1.65067e-06
0.000328389
-7.77404e-06
0.000350045
-2.09889e-05
0.000382711
-0.0001318
0.000407699
-2.71762e-05
0.000266651
-6.08979e-05
0.00031611
-0.000115251
0.000471703
-0.000206308
0.000492758
-0.000292332
0.000491772
-0.000319202
0.0001439
-0.000310639
1.39878e-05
-0.000349568
-6.73537e-06
-0.000358802
-1.8747e-05
-0.000329289
-2.2892e-05
-0.000311079
9.51867e-05
-0.000297035
0.000121893
-0.000296628
0.000124205
-0.000337019
0.000128528
-0.000448726
0.000278721
-0.000526193
0.000270357
-0.000539937
0.000111043
3.9128e-05
-0.000554334
6.27853e-06
0.000349267
-8.96366e-07
0.000335564
3.81067e-07
0.000348768
-1.02171e-05
0.000393309
-4.75896e-06
0.000402241
9.61405e-06
0.000252278
-8.5221e-05
0.000410945
-7.12003e-05
0.000457682
-0.000173276
0.000594834
-0.000268375
0.00058687
-0.000369481
0.000245006
-0.000398598
4.31048e-05
-0.000415966
1.0632e-05
-0.000384605
-5.0108e-05
-0.000388526
-1.89711e-05
-0.000399864
0.000106525
-0.000394769
0.000116799
-0.000402398
0.000131834
-0.000404082
0.000130211
-0.000258566
0.000133206
-0.000246025
0.000257816
-0.000383733
0.000248751
5.12146e-05
-0.00039582
5.17484e-06
0.000344092
5.3239e-06
0.000335414
2.48599e-06
0.000351606
7.45069e-06
0.000388344
9.01191e-06
0.00040068
1.32481e-06
0.000259965
-1.25282e-05
0.000424798
-3.31813e-05
0.000478335
-1.91803e-05
0.000580833
-7.57798e-05
0.00064347
-0.000175711
0.000344938
-0.000199916
6.73098e-05
-0.000236375
4.70904e-05
-0.000348132
6.16492e-05
-0.000390656
2.35533e-05
-0.000409569
0.000125438
-0.000391941
9.91703e-05
-0.00042789
0.000167783
-0.000405875
0.000108196
-0.000379817
0.000107148
-0.000328757
0.000206757
-0.00021725
0.000137244
5.20591e-05
-0.000218095
7.61868e-06
0.000336473
8.08632e-06
0.000334947
5.75834e-06
0.000353934
1.65483e-05
0.000377554
2.71029e-05
0.000390125
8.81061e-06
0.000278257
2.07163e-05
0.000412892
4.11095e-05
0.000457942
8.22085e-05
0.000539734
9.44701e-05
0.000631208
-5.77447e-05
0.000497153
-0.000136315
0.00014588
-0.000205584
0.00011636
-0.000255075
0.00011114
-0.000383766
0.000152245
-0.000385324
0.000126995
-0.000420218
0.000134065
-0.00027897
2.65345e-05
-0.000186487
1.57131e-05
-9.37847e-05
1.44455e-05
-3.96854e-06
0.00011694
4.95248e-05
8.37505e-05
4.78182e-05
5.37657e-05
7.26673e-06
0.000329206
1.30589e-05
0.000329154
2.35916e-05
0.000343401
3.72246e-05
0.000363921
7.1738e-05
0.000355612
1.75401e-06
0.000348241
1.55865e-05
0.00039906
6.8863e-05
0.000404666
0.000112932
0.000495665
0.000201999
0.000542142
0.000155623
0.000543528
3.11472e-05
0.000270356
-0.000134609
0.000282116
-0.000171802
0.000148333
-0.000187929
0.000168371
-0.000253561
0.000192627
-0.000254249
0.000134754
-0.000179425
-4.82903e-05
-0.000110848
-5.28634e-05
-4.7936e-05
-4.84666e-05
6.47391e-05
4.26529e-06
0.000118818
2.96711e-05
-1.13234e-05
0.00017796
7.95127e-06
0.000321255
1.53286e-05
0.000321777
3.27182e-05
0.000326012
4.22078e-05
0.000354431
3.86628e-05
0.000359157
4.00085e-05
0.000346896
2.08802e-05
0.000418188
0.000171764
0.000253782
0.000164965
0.000502465
0.000207849
0.000499257
0.000301581
0.000449796
0.000131923
0.000440015
7.35995e-05
0.000340439
-3.08923e-05
0.000252825
-6.37014e-05
0.00020118
-1.32264e-05
0.000142152
3.81781e-05
8.33491e-05
2.78262e-05
-3.79385e-05
6.61573e-05
-9.11946e-05
0.000150775
-0.000133084
0.000205038
-4.99977e-05
0.000242825
-8.1167e-06
8.02965e-06
0.000223472
1.31477e-05
0.000308107
1.56943e-05
0.00031923
2.21028e-05
0.000319603
4.88332e-05
0.000327701
7.41114e-05
0.000333878
7.52032e-05
0.000345804
0.00010073
0.000392661
0.000110437
0.000244074
0.000162149
0.000450753
0.00019624
0.000465166
0.000255288
0.000390749
0.00033412
0.000361182
0.000367034
0.000307526
0.00032664
0.000293219
0.000375709
0.00015211
0.000317124
0.000200737
0.000334622
6.58515e-05
0.00032543
-2.87469e-05
0.000292891
-5.86557e-05
0.000215447
-5.56401e-05
0.000280412
-0.000114963
0.000303946
-3.16502e-05
-5.94387e-05
0.000371414
5.11501e-05
0.000256957
3.86286e-05
0.000331752
1.88224e-05
0.000339409
2.00777e-05
0.000326446
0.000105982
0.000247974
0.000102623
0.000349163
0.000136235
0.000359049
0.000123606
0.000256703
0.00014869
0.000425669
0.000184733
0.000429123
0.00038353
0.000191952
0.000408449
0.000336262
0.000444343
0.000271632
0.000452136
0.000285426
0.00032842
0.000275826
0.000454804
7.43532e-05
0.00047079
4.98656e-05
0.000444577
-2.53465e-06
0.000414236
-2.8314e-05
0.000421534
-6.29384e-05
0.00030175
4.82148e-06
0.000324471
-5.43711e-05
-0.000145874
0.000410907
-1.90156e-06
0.000258859
1.16043e-05
0.000318246
-1.562e-06
0.000352575
8.1186e-05
0.000243698
5.73237e-05
0.000271836
7.68412e-05
0.000329645
0.000230209
0.000205681
0.000113662
0.00037325
0.000199471
0.00033986
0.00024614
0.000382454
0.000205906
0.000232185
0.000371531
0.000170637
0.000303176
0.000339988
0.000314411
0.000274191
0.000482402
0.000107835
0.000474148
8.26072e-05
0.000457114
6.68997e-05
0.000401979
5.26008e-05
0.000384698
-1.10331e-05
0.000309926
1.18328e-05
0.000284569
3.01788e-05
0.00029755
-6.73514e-05
-0.000123264
0.000274939
-8.75757e-05
0.000346434
1.99807e-05
0.000210689
4.09005e-05
0.000331656
8.84096e-05
0.000196189
1.5975e-05
0.000344271
0.000126228
0.000219393
0.000121371
0.000210538
0.000196362
0.000298259
0.000214117
0.000322105
0.00025783
0.000338742
0.000280979
0.000209036
0.000243088
0.000208528
0.000258185
0.000324891
0.000404779
0.000127597
0.000264062
0.000248552
0.000258698
8.79712e-05
0.000273878
5.17194e-05
0.000319728
6.75088e-06
0.000280198
2.84971e-05
0.000294315
-2.28458e-06
0.000397214
-7.272e-05
0.000477101
-0.000147238
-8.68079e-05
0.000440645
-6.95919e-06
0.000353394
7.9063e-06
0.000195824
4.47187e-05
0.000294843
4.28071e-05
0.0001981
8.04452e-05
0.000306633
0.000100162
0.000199676
0.000120182
0.000190517
0.000111052
0.000307389
0.000238842
0.000194315
0.000273383
0.0003042
0.000168169
0.00031425
0.000194184
0.000182513
0.000370014
0.000149061
0.000259592
0.000238019
0.000362926
0.000145218
0.000376789
7.41075e-05
0.000371916
5.65933e-05
0.000338206
4.04601e-05
0.000348773
1.79303e-05
0.000359635
-1.31463e-05
0.000333975
-4.70602e-05
0.000281295
-9.45578e-05
-0.000103477
0.000297964
-3.31559e-06
0.000356709
3.94909e-06
0.000188559
2.89639e-05
0.000269829
2.62478e-05
0.000200816
0.000112218
0.000220662
0.000105447
0.000206447
8.56585e-05
0.000210305
0.000200732
0.000192315
0.000207574
0.000187473
0.000173291
0.000338484
0.000329356
0.000158185
0.000277212
0.000234657
0.000211513
0.000214759
0.000355027
9.45061e-05
0.000356979
0.000143266
0.0003457
8.53862e-05
0.000357834
4.44599e-05
0.000332268
6.60257e-05
0.0003386
1.15984e-05
0.000325636
-1.81936e-07
0.000308801
-3.02253e-05
0.000237394
-2.31512e-05
-0.000136548
0.000270466
-8.60382e-06
0.000365313
-6.13971e-06
0.000186095
7.56169e-05
0.000188072
9.07257e-05
0.000185708
0.000101608
0.000209781
0.000118528
0.000189527
0.000141963
0.00018687
0.000161593
0.000172686
0.000191973
0.000157093
0.000241432
0.000289025
0.00026202
0.000137597
0.000282038
0.000214639
0.000307977
0.00018882
0.000311548
9.09354e-05
0.000320952
0.000133862
0.000334002
7.23359e-05
0.000308933
6.95293e-05
0.000289887
8.50715e-05
0.000292344
9.14145e-06
0.000297677
-5.51489e-06
0.000294571
-2.71195e-05
0.000319774
-4.83537e-05
-4.26355e-05
0.000225861
1.34154e-05
0.000351898
2.65625e-05
0.000172948
3.39439e-05
0.000180691
5.0611e-05
0.00016904
8.4812e-05
0.00017558
0.000105871
0.000168468
0.000128628
0.000164113
0.00014643
0.000154883
0.000167871
0.000135652
0.0001941
0.000262796
0.000101206
0.000230491
0.000206192
0.000109652
0.000279039
0.000115973
0.000238864
0.000131111
0.000243221
0.000129505
0.000200895
0.000114662
0.00021352
5.69045e-05
0.00028868
9.91108e-06
0.000281679
1.61429e-05
0.000282522
-6.35767e-06
0.000295974
-4.05714e-05
0.000324421
-7.68012e-05
-0.000106032
0.000387818
2.75517e-05
0.000324346
3.74753e-05
0.000163025
5.19867e-05
0.000166179
6.58783e-05
0.000155149
8.58738e-05
0.000155584
0.000101651
0.000152691
0.000118439
0.000147325
0.000132249
0.000141072
0.00014756
0.000120342
0.000175348
0.000235008
0.00018544
0.0002204
0.000191618
0.000103474
0.00020923
9.83611e-05
0.000215853
0.000124488
0.000218033
0.000127324
0.000273229
5.94663e-05
0.000262639
6.74946e-05
0.000262506
1.00435e-05
0.000259886
1.87628e-05
0.000276226
-2.2697e-05
0.000289511
-5.38564e-05
0.000298026
-8.5316e-05
-0.000152369
0.000344363
3.40381e-05
0.000290308
3.83137e-05
0.000158749
5.02936e-05
0.000154199
6.1332e-05
0.00014411
7.42198e-05
0.000142696
8.65236e-05
0.000140387
0.000101307
0.000132542
0.000112448
0.000129932
0.000121024
0.000111766
0.000143903
0.000212128
0.000157014
0.000207288
0.000153828
0.000106661
0.000158231
9.39576e-05
0.000199297
8.34223e-05
0.000200546
0.000126075
0.000136319
0.000123693
0.000147321
5.64932e-05
0.000147687
9.67716e-06
0.000200211
-3.37609e-05
0.000198322
-2.08078e-05
0.000204623
-6.01576e-05
0.000220974
-0.000101667
-7.65557e-05
0.00014516
7.87577e-05
0.00021155
6.61453e-05
0.000171361
6.1707e-05
0.000158638
6.15597e-05
0.000144258
6.58897e-05
0.000138366
7.01855e-05
0.000136091
7.19418e-05
0.000130786
7.22122e-05
0.000129661
5.78702e-05
0.000126108
0.000145029
0.00012497
0.000154056
0.000198261
0.000151651
0.000109067
0.00015306
9.25483e-05
0.000150927
8.55558e-05
0.00015334
0.000123662
0.000201938
7.50951e-05
0.000214337
4.40936e-05
0.000191861
3.21533e-05
0.000171227
-1.31265e-05
0.000169576
-1.91572e-05
0.000182008
-7.25899e-05
0.000202756
-0.000122414
-0.000158991
0.000285191
2.10915e-05
0.000190459
3.94417e-05
0.000153011
4.65409e-05
0.000151538
5.25306e-05
0.000138268
5.74004e-05
0.000133496
6.43699e-05
0.000129122
7.14227e-05
0.000123733
8.13741e-05
0.00011971
9.52106e-05
0.000112271
0.000113958
0.000106222
0.000126941
0.000185278
0.000128337
0.000107671
0.000137148
8.37375e-05
0.000146415
7.6288e-05
0.000150811
0.000119266
0.000135304
9.06021e-05
8.03001e-05
9.90976e-05
8.48084e-05
2.7645e-05
7.61341e-05
-4.45221e-06
0.000133052
-7.60752e-05
0.000197337
-0.000136875
0.000221778
-0.000146854
-0.000150305
0.000213092
2.32788e-05
0.00016718
3.49197e-05
0.00014137
4.37545e-05
0.000142703
4.92164e-05
0.000132806
5.38162e-05
0.000128897
5.73568e-05
0.000125581
6.01633e-05
0.000120927
6.16236e-05
0.00011825
6.30107e-05
0.000110884
6.09183e-05
0.000108314
0.000143289
0.000102907
0.000101356
0.000149604
0.000109292
7.58012e-05
6.32724e-05
0.000122308
6.14168e-05
0.000121122
6.63581e-05
8.56608e-05
0.000120775
4.46808e-05