/*--------------------------------*- C++ -*----------------------------------*\
| =========                 |                                                 |
| \\      /  F ield         | foam-extend: Open Source CFD                    |
|  \\    /   O peration     | Version:     4.1                                |
|   \\  /    A nd           | Web:         http://www.foam-extend.org         |
|    \\/     M anipulation  |                                                 |
\*---------------------------------------------------------------------------*/
FoamFile
{
    version     2.0;
    format      ascii;
    class       volVectorField;
    location    "0.7";
    object      U_0;
}
// * * * * * * * * * * * * * * * * * * * * * * * * * * * * * * * * * * * * * //

dimensions      [0 1 -1 0 0 0 0];

internalField   nonuniform List<vector> 
2268
(
(-0.00095028 0.00906421 0)
(-0.0620167 0.0197612 0)
(-0.0912191 0.0152844 0)
(-0.136357 -0.0145218 0)
(-0.164045 0.00407375 0)
(-0.185201 -0.010328 0)
(-0.20538 -0.00232437 0)
(-0.163913 0.00376436 0)
(-0.13982 -0.00909459 0)
(-0.0808344 -0.00606508 0)
(-0.0580098 0.00492055 0)
(-0.0524351 -0.0146951 0)
(-0.0322909 0.00352243 0)
(-0.0261846 0.0141395 0)
(-0.0193058 -0.00221642 0)
(-0.00905443 0.0016336 0)
(0.00631272 -0.00989486 0)
(0.0130021 0.00186536 0)
(0.0219303 -0.000285272 0)
(0.0218989 0.00207463 0)
(0.0190448 0.00486231 0)
(0.0100199 0.0010505 0)
(0.00800591 0.00156604 0)
(-0.000673479 0.0202011 0)
(-0.0566173 0.0225086 0)
(-0.0942029 0.0161975 0)
(-0.139662 -0.0183403 0)
(-0.165511 0.00559697 0)
(-0.183594 0.0247797 0)
(-0.199165 -0.00316529 0)
(-0.163692 -0.0203171 0)
(-0.121083 -0.0112645 0)
(-0.0661044 0.0225409 0)
(-0.0678772 -0.0204943 0)
(-0.0641635 -0.016917 0)
(-0.0383718 0.0115134 0)
(-0.0486613 -0.0356752 0)
(-0.0471014 0.00787491 0)
(-0.0324387 -0.0151337 0)
(-0.0128539 -0.00861311 0)
(0.00194039 -0.00976224 0)
(0.0108313 -0.00396409 0)
(0.0137882 -0.000834407 0)
(0.0122912 0.000762748 0)
(0.00518387 0.0041396 0)
(-0.00357263 0.00696754 0)
(-0.0156763 0.0375301 0)
(-0.0663537 0.0322024 0)
(-0.097463 0.0399553 0)
(-0.144269 0.00246729 0)
(-0.154326 0.0147583 0)
(-0.200187 -0.00757087 0)
(-0.220764 -0.0196278 0)
(-0.159863 -0.0459794 0)
(-0.107038 0.0135566 0)
(-0.0821224 -0.0528575 0)
(-0.0790158 -0.0205271 0)
(-0.0547744 -0.0147717 0)
(-0.0730379 -0.0124115 0)
(-0.0681164 -0.0272571 0)
(-0.0600381 -0.0113419 0)
(-0.0606067 -0.00462249 0)
(-0.0439292 -0.00866242 0)
(-0.0288864 -0.00874265 0)
(-0.00712309 -0.0147331 0)
(0.00106666 0.00192754 0)
(0.00588611 0.00941126 0)
(0.00597877 0.00847728 0)
(-0.000390825 0.00211983 0)
(-0.0246786 0.0568149 0)
(-0.0593487 0.0582573 0)
(-0.0939498 0.0441627 0)
(-0.160257 0.0109511 0)
(-0.165377 0.0260091 0)
(-0.203011 -0.0327661 0)
(-0.218247 -0.0253529 0)
(-0.14457 -0.012443 0)
(-0.141282 0.00703632 0)
(-0.117246 -0.0653755 0)
(-0.095518 -0.000576773 0)
(-0.122234 -0.00573355 0)
(-0.123232 -0.00972144 0)
(-0.128384 0.00463419 0)
(-0.128171 -0.0170029 0)
(-0.118623 -0.00059214 0)
(-0.113757 -0.0366908 0)
(-0.0873846 -0.0199645 0)
(-0.06578 -0.0013472 0)
(-0.0308677 -0.0120064 0)
(-0.0114122 -0.00211155 0)
(-0.00242513 0.00706465 0)
(-0.0030909 0.00997751 0)
(-0.0288442 0.0813265 0)
(-0.071452 0.0638224 0)
(-0.103324 0.0406815 0)
(-0.152969 0.0213976 0)
(-0.166155 0.0239871 0)
(-0.224969 -0.00702755 0)
(-0.22501 -0.0433142 0)
(-0.171061 -0.0179488 0)
(-0.178735 -0.051183 0)
(-0.13865 0.0107261 0)
(-0.125343 -0.0122942 0)
(-0.137325 -0.00260514 0)
(-0.147046 -0.0132466 0)
(-0.153897 -0.0120997 0)
(-0.156376 -0.0202004 0)
(-0.162305 -0.00827762 0)
(-0.147132 -0.0229923 0)
(-0.127493 -0.029058 0)
(-0.12041 -0.0417736 0)
(-0.0950843 -0.0180311 0)
(-0.0515556 -0.00254197 0)
(-0.00643778 0.00451679 0)
(-3.46725e-05 -0.00116748 0)
(-0.0349302 0.0994424 0)
(-0.0703966 0.0955581 0)
(-0.104416 0.074427 0)
(-0.171749 0.0384143 0)
(-0.186493 -0.0341201 0)
(-0.247837 -0.0184007 0)
(-0.245149 -0.0563872 0)
(-0.180739 -0.0339392 0)
(-0.167163 0.000941618 0)
(-0.151433 0.0241631 0)
(-0.165479 -0.000439826 0)
(-0.173364 0.00251623 0)
(-0.174128 -0.00825941 0)
(-0.177619 -0.0002635 0)
(-0.167892 -0.00781789 0)
(-0.162465 -0.00461027 0)
(-0.162937 -0.0553039 0)
(-0.150352 -0.0372434 0)
(-0.135378 -0.0719459 0)
(-0.117906 -0.0465157 0)
(-0.115127 -0.0463807 0)
(-0.037259 -0.0180555 0)
(-0.00838838 0.00747146 0)
(-0.0192508 0.116117 0)
(-0.0654509 0.112251 0)
(-0.113096 0.0926639 0)
(-0.202807 0.0590803 0)
(-0.2091 -0.0356085 0)
(-0.247264 0.0194628 0)
(-0.240272 -0.00838121 0)
(-0.194876 -0.0509576 0)
(-0.188896 0.01187 0)
(-0.177992 0.0103547 0)
(-0.177502 -0.000292372 0)
(-0.178681 0.00134541 0)
(-0.1742 -0.00966076 0)
(-0.176394 -0.0157227 0)
(-0.170738 -0.0340495 0)
(-0.18625 -0.0239118 0)
(-0.174988 -0.107915 0)
(-0.149275 -0.0387983 0)
(-0.143868 -0.070935 0)
(-0.122187 -0.0232853 0)
(-0.113979 -0.071833 0)
(-0.0351103 -0.0187668 0)
(0.000387733 -0.013734 0)
(-0.0341079 0.130507 0)
(-0.0880189 0.110789 0)
(-0.144309 0.108567 0)
(-0.233544 0.0651001 0)
(-0.221757 -0.0332934 0)
(-0.260594 -0.0116913 0)
(-0.308926 0.0206693 0)
(-0.215285 -0.0149557 0)
(-0.183618 0.00323477 0)
(-0.19479 0.0101248 0)
(-0.190957 0.000771476 0)
(-0.18879 0.000365477 0)
(-0.187772 -0.00889557 0)
(-0.193561 -0.00863325 0)
(-0.175987 -0.0286247 0)
(-0.203067 0.0120171 0)
(-0.183012 -0.0860174 0)
(-0.129427 -0.0547346 0)
(-0.131069 -0.0979007 0)
(-0.115839 -0.0697031 0)
(-0.130741 -0.0909015 0)
(-0.0509579 -0.0804596 0)
(-0.0326432 -0.00800523 0)
(-0.517754 0.170261 0)
(-0.769943 -0.00319406 0)
(-0.954585 -0.00394232 0)
(-0.999742 -0.0413647 0)
(-0.96459 -0.0358478 0)
(-0.956452 0.0028231 0)
(-1.10992 0.040306 0)
(-1.20418 -0.0135336 0)
(-1.22985 -0.00449801 0)
(-1.21736 -0.0369082 0)
(-1.06974 -0.0875708 0)
(-0.850176 -0.135447 0)
(-0.715209 -0.0132147 0)
(-0.602423 -0.0460632 0)
(-0.587721 -0.112818 0)
(-0.552248 -0.020091 0)
(-0.265639 -0.0285071 0)
(-0.149908 -0.13938 0)
(0.0171231 -0.0274414 0)
(-0.468504 0.372178 0)
(-0.712799 0.161003 0)
(-0.858922 0.190307 0)
(-0.903806 0.0561372 0)
(-0.864926 0.0285368 0)
(-0.856251 0.0866052 0)
(-1.0286 0.146209 0)
(-1.1241 0.0593518 0)
(-1.14451 0.034676 0)
(-1.09029 -0.0565277 0)
(-0.935853 -0.245421 0)
(-0.690099 -0.156452 0)
(-0.587687 -0.0956805 0)
(-0.594219 -0.0702965 0)
(-0.614896 -0.154493 0)
(-0.599938 -0.0387304 0)
(-0.606887 0.0207775 0)
(-0.221925 -0.0935096 0)
(-0.0777665 -0.0326831 0)
(-0.518753 0.613637 0)
(-0.489183 0.205633 0)
(-0.642535 0.123345 0)
(-0.654864 -0.0490842 0)
(-0.559078 -0.0603694 0)
(-0.585319 0.0408261 0)
(-0.852582 0.0537991 0)
(-0.954477 0.0396948 0)
(-0.937258 0.0634181 0)
(-0.669841 -0.204924 0)
(-0.471821 -0.333082 0)
(-0.448442 -0.170002 0)
(-0.114665 -0.235355 0)
(-0.466199 -0.205576 0)
(-0.544549 -0.0903828 0)
(-0.478884 -0.0923332 0)
(-0.397575 -0.10324 0)
(-0.0564674 -0.143498 0)
(-0.0740263 -0.0770851 0)
(-0.472705 0.664265 0)
(-0.346586 0.335736 0)
(-0.596237 0.14831 0)
(-0.572685 0.0314945 0)
(-0.340493 0.0296352 0)
(-0.349492 0.156979 0)
(-0.467123 -0.00592235 0)
(-0.580761 0.118594 0)
(-0.582459 0.169171 0)
(-0.40145 -0.191924 0)
(0.10512 -0.342195 0)
(-0.121693 -0.116119 0)
(0.252187 -0.0673565 0)
(-0.175008 -0.0876369 0)
(-0.584083 -0.00526092 0)
(-0.463445 -0.0182142 0)
(-0.194786 -0.193676 0)
(0.239794 -0.220271 0)
(0.312441 -0.106524 0)
(-0.458805 0.739481 0)
(-0.325069 0.447678 0)
(-0.505615 0.140863 0)
(-0.483014 0.0658238 0)
(-0.20263 -0.162421 0)
(0.0666079 0.0977455 0)
(0.255474 0.104169 0)
(0.286735 0.0432347 0)
(0.361887 -0.0426742 0)
(0.31605 -0.23297 0)
(0.299828 -0.334232 0)
(0.164386 -0.216244 0)
(0.238965 -0.106637 0)
(0.0200417 -0.00873832 0)
(-0.4028 0.0397378 0)
(-0.360812 -0.025971 0)
(-0.128751 -0.381373 0)
(0.00630286 -0.368846 0)
(0.539915 0.181715 0)
(-0.413109 0.837546 0)
(-0.259023 0.481881 0)
(-0.437426 0.0784143 0)
(-0.320652 -0.135569 0)
(0.0172053 -0.214476 0)
(0.0352394 0.0267751 0)
(0.317874 0.0612017 0)
(0.65547 -0.0504452 0)
(0.733349 0.00105504 0)
(0.543825 -0.180277 0)
(0.368208 -0.217229 0)
(0.21246 -0.169801 0)
(0.28116 -0.091748 0)
(0.139695 0.0981274 0)
(-0.359145 0.218918 0)
(-0.293742 -0.123066 0)
(-0.160381 -0.404674 0)
(-0.290265 -0.497278 0)
(0.389243 0.120289 0)
(-0.408282 0.88947 0)
(-0.193637 0.621377 0)
(-0.430814 0.170174 0)
(-0.304282 -0.254872 0)
(0.158461 -0.308623 0)
(0.0836033 -0.117936 0)
(0.2079 0.014251 0)
(0.397384 -0.0340296 0)
(0.537473 -0.225404 0)
(0.462765 -0.216341 0)
(0.375717 -0.270129 0)
(0.19557 -0.196796 0)
(0.243503 -0.0724232 0)
(-0.00367258 0.210717 0)
(-0.475662 0.27663 0)
(-0.346513 -0.13907 0)
(-0.298997 -0.503424 0)
(-0.441465 -0.556104 0)
(0.278112 0.247191 0)
(-0.366879 0.99143 0)
(-0.146377 0.605976 0)
(-0.39516 0.136262 0)
(0.100152 -0.373902 0)
(0.20263 -0.348102 0)
(0.0802924 -0.165698 0)
(0.187476 -0.0590567 0)
(0.412644 -0.0347541 0)
(0.389144 -0.192753 0)
(0.275192 -0.166111 0)
(0.251893 -0.320928 0)
(0.115966 -0.220133 0)
(0.107529 0.0151445 0)
(-0.290653 0.292588 0)
(-0.515227 0.324308 0)
(-0.315789 -0.14971 0)
(-0.376332 -0.512777 0)
(-0.479021 -0.594192 0)
(-0.193565 0.0817415 0)
(-0.076737 0.173339 0)
(-0.152388 0.216775 0)
(-0.265189 0.186341 0)
(-0.417501 0.108104 0)
(-0.296005 -0.00947108 0)
(-0.257573 -0.0887166 0)
(-0.245127 -0.0140453 0)
(-0.216326 0.0032384 0)
(-0.212029 -0.00680167 0)
(-0.193407 0.00180532 0)
(-0.185828 -0.00327386 0)
(-0.181084 -0.00175588 0)
(-0.175197 -0.00391556 0)
(-0.179229 -0.00684566 0)
(-0.155122 0.008756 0)
(-0.234945 -0.0384472 0)
(-0.211002 -0.0461047 0)
(-0.141346 -0.0532345 0)
(-0.150261 -0.0850573 0)
(-0.104196 -0.106258 0)
(-0.130964 -0.106614 0)
(-0.0617028 -0.0306444 0)
(0.0465838 -0.0792216 0)
(-0.302714 0.554479 0)
(-0.437846 0.499578 0)
(-0.748712 0.202335 0)
(-0.618595 0.0874223 0)
(-0.525614 0.111466 0)
(-0.331692 -0.022756 0)
(-0.245382 -0.0317667 0)
(-0.222533 -0.04293 0)
(-0.18455 -0.0133985 0)
(-0.178898 -0.0131432 0)
(-0.165781 -0.00969462 0)
(-0.159263 -0.0122204 0)
(-0.151324 -0.0215811 0)
(-0.123237 -0.0204216 0)
(-0.17227 -0.00735368 0)
(-0.235829 -0.100003 0)
(-0.128592 -0.0192793 0)
(-0.13511 -0.106312 0)
(-0.168755 -0.0569364 0)
(-0.139809 -0.11235 0)
(-0.0856753 -0.101486 0)
(-0.0844205 -0.217676 0)
(0.0564007 -0.112499 0)
(-0.605518 0.931007 0)
(-0.724729 0.249535 0)
(-0.727177 -0.0340727 0)
(-0.572907 -0.0653217 0)
(-0.517952 -0.11701 0)
(-0.477799 0.0339809 0)
(-0.45109 -0.104868 0)
(-0.274679 -0.0637285 0)
(-0.250767 -0.0479084 0)
(-0.271492 -0.0172245 0)
(-0.235582 -0.0223374 0)
(-0.211866 -0.018236 0)
(-0.200209 -0.0242911 0)
(-0.197719 -0.0113246 0)
(-0.220937 -0.0705563 0)
(-0.242214 -0.0656299 0)
(-0.199445 -0.077829 0)
(-0.178742 -0.138942 0)
(-0.161564 -0.0892615 0)
(-0.183429 -0.143308 0)
(-0.203995 -0.145931 0)
(0.0895713 -0.32534 0)
(0.215338 -0.195694 0)
(-0.290718 1.50859 0)
(-0.497679 0.457004 0)
(-0.66473 0.00177676 0)
(-0.462429 -0.13586 0)
(-0.319577 -0.118614 0)
(-0.384427 -0.490601 0)
(-0.486828 -0.113673 0)
(-0.470276 0.0942326 0)
(-0.438482 -0.0549217 0)
(-0.573911 -0.075794 0)
(-0.590872 -0.0682831 0)
(-0.586942 -0.0580449 0)
(-0.456266 -0.0287323 0)
(-0.414258 0.0202398 0)
(-0.520591 -0.00905436 0)
(-0.541108 -0.115701 0)
(-0.403642 -0.0769496 0)
(-0.297214 -0.0286133 0)
(-0.218184 -0.0520148 0)
(-0.131706 -0.0855001 0)
(0.0638859 -0.37216 0)
(0.120903 -0.291088 0)
(-0.120445 -0.289603 0)
(-0.362432 1.80006 0)
(-0.415963 0.634953 0)
(-0.511168 0.0395618 0)
(-0.792799 0.0509249 0)
(-0.860762 -0.0218476 0)
(-0.684385 -0.204903 0)
(-0.759398 -0.178757 0)
(-0.648847 -0.0719282 0)
(-0.533364 -0.0500697 0)
(-0.520196 -0.262524 0)
(-0.454872 -0.0464671 0)
(-0.295212 -0.052542 0)
(-0.303319 0.266832 0)
(-0.00148251 0.035969 0)
(0.166124 -0.389922 0)
(0.216427 -0.32571 0)
(0.134922 -0.227787 0)
(-0.132404 0.0265002 0)
(-0.195919 -0.255072 0)
(-0.249722 -0.391082 0)
(-0.384692 -0.317215 0)
(-0.421383 -0.177291 0)
(-0.571053 0.112506 0)
(-0.142247 1.96998 0)
(-0.00774997 1.40644 0)
(-0.393131 0.227637 0)
(-0.363952 -0.199907 0)
(-0.732838 0.131957 0)
(-0.803284 -0.0713249 0)
(-0.724177 -0.185769 0)
(-0.753909 -0.249609 0)
(-0.616545 -0.190048 0)
(-0.592131 -0.409656 0)
(-0.418852 -0.327139 0)
(-0.301666 -0.496753 0)
(-0.046666 -0.246327 0)
(0.331995 -0.406975 0)
(0.275039 -0.25806 0)
(0.430503 0.0145736 0)
(0.406508 0.355322 0)
(0.291415 0.326865 0)
(0.0911122 0.242205 0)
(-0.611553 -0.0845912 0)
(-0.732618 -0.180012 0)
(-0.576903 -0.0797444 0)
(-0.5987 0.165504 0)
(0.200978 1.84277 0)
(0.233907 1.36065 0)
(-0.426401 0.41878 0)
(-0.392206 0.209068 0)
(-0.453694 0.0495608 0)
(-0.642853 0.204958 0)
(-0.979383 -0.0557767 0)
(-0.725592 -0.0563005 0)
(-0.830424 -0.28231 0)
(-0.817417 -0.490128 0)
(-0.683213 -0.489069 0)
(-0.670242 -0.563134 0)
(-0.609797 -0.533308 0)
(-0.556414 -0.885416 0)
(-0.804661 -0.693457 0)
(-0.957908 -0.470463 0)
(-0.431981 -0.283733 0)
(-0.333275 0.388156 0)
(-0.241099 0.530881 0)
(-0.260407 0.514419 0)
(-0.314392 -0.0594466 0)
(-0.362742 -0.326711 0)
(-0.521706 0.140847 0)
(0.223479 1.5293 0)
(0.304377 1.06794 0)
(-0.00594728 0.484007 0)
(-0.0623121 0.223327 0)
(-0.191746 0.160415 0)
(-0.37155 -0.0884339 0)
(-0.683159 0.0296328 0)
(-0.866823 0.202068 0)
(-1.14699 -0.0661069 0)
(-1.03996 -0.16414 0)
(-1.30222 -0.257392 0)
(-2.16539 -0.190423 0)
(-2.33459 -0.218105 0)
(-2.34064 -0.228855 0)
(-2.3399 -0.308468 0)
(-2.37366 -0.342079 0)
(-2.26047 -0.241678 0)
(-1.73745 0.168455 0)
(-1.39855 -0.0366383 0)
(-1.47208 -0.21274 0)
(-1.49509 -0.294819 0)
(-0.706065 0.0408794 0)
(-0.600893 0.219742 0)
(0.100582 1.40495 0)
(0.24577 1.12327 0)
(0.11289 0.7248 0)
(-0.0498473 0.415129 0)
(-0.232985 0.373006 0)
(-0.51649 0.116909 0)
(-0.753285 0.188983 0)
(-0.886255 0.184494 0)
(-1.10308 0.198219 0)
(-1.47003 0.368319 0)
(-2.28619 0.5277 0)
(-2.73661 0.194116 0)
(-2.82288 -0.307159 0)
(-2.86872 -0.500348 0)
(-2.91787 -0.658021 0)
(-2.85028 -0.848936 0)
(-2.5604 -0.604408 0)
(-2.24684 -0.199647 0)
(-1.91326 -0.11853 0)
(-1.6935 -0.172102 0)
(-1.56524 -0.274185 0)
(-1.33322 -0.173107 0)
(-1.26642 -0.0820965 0)
(0.0500042 1.2273 0)
(0.157604 1.0541 0)
(0.102872 0.844399 0)
(0.0444462 0.495275 0)
(-0.322639 0.615969 0)
(-0.55897 0.487531 0)
(-0.693292 0.38401 0)
(-1.13766 0.559219 0)
(-1.83489 0.865044 0)
(-2.08198 1.1264 0)
(-2.3188 0.984172 0)
(-2.61691 0.270218 0)
(-2.53918 -0.393959 0)
(-2.50564 -0.715151 0)
(-2.43419 -0.833823 0)
(-2.23151 -0.75958 0)
(-2.31678 -0.591029 0)
(-2.43049 -0.444379 0)
(-2.10622 -0.547354 0)
(-1.75791 -0.580106 0)
(-1.58672 -0.642322 0)
(-1.48196 -0.614122 0)
(-1.41159 -0.648039 0)
(0.0151148 1.18303 0)
(0.047314 1.01701 0)
(-0.0992625 0.918023 0)
(-0.0155224 0.698829 0)
(-0.106795 0.776434 0)
(-0.620633 0.829052 0)
(-0.696359 0.820135 0)
(-0.791931 0.990874 0)
(-1.50353 1.31614 0)
(-1.7278 1.4961 0)
(-1.94595 1.1325 0)
(-1.85582 0.294756 0)
(-1.76168 -0.517126 0)
(-1.73283 -0.789178 0)
(-1.49456 -0.811147 0)
(-1.43969 -0.652825 0)
(-1.40874 -0.576356 0)
(-1.66381 -0.456693 0)
(-2.11565 -0.755512 0)
(-1.60023 -0.726796 0)
(-1.56498 -0.732318 0)
(-1.69385 -0.736898 0)
(-1.76944 -0.745518 0)
(0.0030734 1.18977 0)
(0.022501 1.06279 0)
(-0.0935252 0.980152 0)
(-0.129868 1.20309 0)
(-0.168303 0.913286 0)
(-0.421715 0.916557 0)
(-0.50178 1.10306 0)
(-0.697983 1.14297 0)
(-0.931716 1.2229 0)
(-0.933391 1.36706 0)
(-0.997203 1.06256 0)
(-1.0865 0.265012 0)
(-0.956513 -0.278309 0)
(-1.52642 -0.430742 0)
(-1.27478 -0.566231 0)
(-1.28732 -0.614751 0)
(-1.31043 -0.618064 0)
(-1.39705 -0.77976 0)
(-1.68511 -0.480126 0)
(-1.4788 -0.453173 0)
(-1.27769 -1.01674 0)
(-1.46894 -0.950404 0)
(-1.60123 -0.813095 0)
(0.00333808 1.20383 0)
(-0.0312086 1.08011 0)
(-0.080644 1.00225 0)
(-0.122135 1.20793 0)
(-0.211572 1.02387 0)
(-0.399337 1.12842 0)
(-0.454021 1.23884 0)
(-0.638174 1.44103 0)
(-0.687811 1.54016 0)
(-0.373885 1.34313 0)
(-0.209672 0.868938 0)
(-0.171129 0.352068 0)
(-0.40587 -0.222695 0)
(-0.918393 -0.305336 0)
(-0.940095 -0.415374 0)
(-1.24698 -0.617876 0)
(-1.32881 -0.6351 0)
(-1.23175 -0.782919 0)
(-1.06469 -0.737254 0)
(-1.14812 -0.793508 0)
(-1.09575 -0.989078 0)
(-1.00696 -0.939009 0)
(-1.11974 -0.858294 0)
(-0.0112254 1.2403 0)
(-0.06618 1.16605 0)
(-0.0728496 1.061 0)
(-0.109286 1.49715 0)
(-0.203717 1.23057 0)
(-0.291705 1.18547 0)
(-0.262048 1.28843 0)
(-0.320616 1.43826 0)
(-0.389871 1.53907 0)
(-0.373053 1.34716 0)
(-0.158391 1.15372 0)
(-0.147084 0.568849 0)
(-0.216484 0.266053 0)
(-0.371638 0.185787 0)
(-0.475444 -0.100254 0)
(-0.845278 -0.551687 0)
(-1.22017 -0.439972 0)
(-1.1694 -0.439644 0)
(-0.956639 -0.761953 0)
(-1.25095 -0.792953 0)
(-1.04745 -0.79962 0)
(-0.91647 -0.883564 0)
(-0.980529 -0.888557 0)
(0.0273358 1.27466 0)
(-0.0973159 1.19443 0)
(0.117906 0.986669 0)
(-0.115042 1.41234 0)
(-0.395911 1.24377 0)
(-0.314442 1.29654 0)
(-0.23835 1.32239 0)
(-0.256115 1.23288 0)
(-0.242377 1.17007 0)
(-0.210969 1.15349 0)
(-0.182272 0.850426 0)
(-0.24135 0.44271 0)
(-0.17179 0.136967 0)
(0.0310309 0.136233 0)
(-0.45174 -0.0365501 0)
(-0.6319 -0.327697 0)
(-0.864136 -0.453248 0)
(-1.00244 -0.450293 0)
(-0.94888 -0.771661 0)
(-1.03511 -0.717432 0)
(-1.05818 -0.699368 0)
(-0.922006 -0.864631 0)
(-1.25098 -0.904818 0)
(0.00573888 1.30595 0)
(-0.23271 1.26327 0)
(0.0284787 1.14575 0)
(-0.0562757 1.23103 0)
(-0.267781 1.17669 0)
(-0.244856 1.32306 0)
(-0.277366 1.36234 0)
(-0.289713 1.26974 0)
(-0.301772 1.21629 0)
(-0.360119 0.940821 0)
(-0.303864 0.584587 0)
(-0.261405 0.437321 0)
(-0.0557734 0.218024 0)
(0.404011 0.146937 0)
(0.42232 0.281813 0)
(0.257851 0.424397 0)
(-0.158431 -0.0706912 0)
(-1.06739 -0.349998 0)
(-0.892065 -0.526907 0)
(-1.01347 -0.640594 0)
(-1.13717 -0.718676 0)
(-1.95289 -0.027679 0)
(-3.01536 -0.256953 0)
(0.0475325 1.39499 0)
(-0.153404 1.34603 0)
(-0.0636087 1.82966 0)
(-0.252875 1.41609 0)
(-0.287628 1.37375 0)
(-0.072258 1.44707 0)
(-0.234332 1.29746 0)
(-0.317304 1.34847 0)
(-0.471626 1.30701 0)
(-0.565097 0.966796 0)
(-0.436661 0.645945 0)
(-0.379291 0.523943 0)
(-0.286542 -0.403465 0)
(-0.178342 -0.602842 0)
(0.251982 0.132473 0)
(0.220235 0.532111 0)
(-0.13522 0.599911 0)
(-0.60291 0.29326 0)
(-0.840033 -0.11457 0)
(-1.10562 -0.409391 0)
(-2.08374 0.183359 0)
(-2.56008 0.405964 0)
(-2.788 0.0484165 0)
(0.0156628 1.41422 0)
(0.122268 1.29268 0)
(-0.0312329 1.67058 0)
(-0.3676 1.5209 0)
(-0.354418 2.04724 0)
(-0.295902 1.43023 0)
(-0.322658 1.49575 0)
(-0.176468 1.462 0)
(-0.664675 1.43901 0)
(-0.84237 1.32127 0)
(-0.641478 1.20167 0)
(-0.984259 0.0389825 0)
(-1.21526 -0.324648 0)
(-0.924242 -0.184818 0)
(-0.840036 -0.00654248 0)
(-0.847514 0.343547 0)
(-0.836115 0.43214 0)
(-0.870467 0.308189 0)
(-1.02217 0.0730883 0)
(-1.68495 0.406755 0)
(-2.19 0.750082 0)
(-2.19306 0.630115 0)
(-2.17511 0.143011 0)
(-0.0171082 1.36408 0)
(0.0434179 1.2716 0)
(-0.0449512 1.25235 0)
(0.0144452 1.41435 0)
(-0.406094 1.88748 0)
(-0.389756 1.65469 0)
(-0.0979996 2.20967 0)
(-0.281955 1.70763 0)
(-0.645023 1.62231 0)
(-0.925242 1.68628 0)
(-1.34689 0.457297 0)
(-1.45877 0.0758177 0)
(-1.34046 -0.00266571 0)
(-1.32123 -0.0224914 0)
(-1.29285 0.0807014 0)
(-1.18552 0.549415 0)
(-1.21328 0.634035 0)
(-1.10398 0.614154 0)
(-1.09371 0.573099 0)
(-1.51889 1.01148 0)
(-1.892 0.953225 0)
(-1.92708 0.73139 0)
(-2.06356 0.246669 0)
(-0.00684678 1.34572 0)
(0.0552988 1.28228 0)
(-0.0721834 1.34042 0)
(0.0849249 1.42214 0)
(-0.196741 1.46896 0)
(0.127963 1.83178 0)
(-0.108466 2.03866 0)
(-0.447029 1.84604 0)
(-0.523084 2.01049 0)
(-0.792627 1.89608 0)
(-1.36974 0.638487 0)
(-1.427 0.147139 0)
(-1.54828 -0.0734787 0)
(-1.59821 -0.222321 0)
(-1.4452 -0.197394 0)
(-1.48508 0.564097 0)
(-1.56391 0.938642 0)
(-1.55124 1.01154 0)
(-1.50326 1.04529 0)
(-1.73008 1.06906 0)
(-1.83495 1.1022 0)
(-1.47956 0.921008 0)
(-1.47265 0.339756 0)
(-0.017705 1.36271 0)
(0.0958715 1.30714 0)
(-0.0617429 1.34874 0)
(0.0951699 1.46052 0)
(-0.0401753 1.42291 0)
(0.0752019 1.71872 0)
(-0.00977972 1.56955 0)
(-0.189799 1.77123 0)
(-0.0511453 2.24149 0)
(-0.0729922 2.39296 0)
(-1.02684 1.10402 0)
(-1.24112 0.435221 0)
(-1.61866 0.122082 0)
(-1.5657 -0.12475 0)
(-1.28873 -0.0961299 0)
(-1.6739 0.43165 0)
(-1.56461 0.716697 0)
(-1.65206 0.820422 0)
(-1.63542 0.728255 0)
(-1.50888 0.768798 0)
(-1.47906 0.955674 0)
(-0.872181 0.867579 0)
(-0.792637 -0.0577481 0)
(-0.027729 1.34839 0)
(0.0925672 1.31545 0)
(-0.0391685 1.32773 0)
(0.119708 1.47497 0)
(0.0659534 1.53421 0)
(0.118682 1.88086 0)
(0.0321856 1.67903 0)
(0.164213 1.8169 0)
(0.44655 2.08191 0)
(0.648982 2.44924 0)
(0.0137944 1.57651 0)
(-0.517484 0.542828 0)
(-1.33441 0.263573 0)
(-1.54788 0.51515 0)
(-1.73956 0.433781 0)
(-1.49345 0.553898 0)
(-1.58079 0.690666 0)
(-1.92447 0.483461 0)
(-1.8233 0.181623 0)
(-0.838756 0.164855 0)
(-0.512398 0.630728 0)
(0.412382 0.975373 0)
(-0.0248376 0.389153 0)
(-0.00592889 1.29519 0)
(0.101335 1.28394 0)
(-0.00827043 1.29658 0)
(0.187833 1.44564 0)
(0.322881 1.44385 0)
(0.150483 1.73094 0)
(-0.0792819 1.66058 0)
(0.315244 1.55734 0)
(0.657979 1.82294 0)
(0.910754 2.25086 0)
(0.522523 2.03031 0)
(0.682295 1.66461 0)
(-0.513572 0.577371 0)
(-1.08839 0.417013 0)
(-1.31751 0.688366 0)
(-1.19226 0.449767 0)
(-0.906041 0.32732 0)
(-1.11763 -0.140803 0)
(-1.2365 -0.0983199 0)
(-0.346212 -0.10135 0)
(0.0436554 0.220843 0)
(0.392933 0.308231 0)
(0.516728 -0.0215191 0)
(-0.00888961 1.29822 0)
(0.12813 1.23906 0)
(0.0795599 1.23488 0)
(0.147973 1.40482 0)
(0.239471 1.39879 0)
(0.303783 1.28843 0)
(-0.0296982 1.60992 0)
(0.380335 1.58802 0)
(0.843026 1.80843 0)
(1.42402 1.97433 0)
(1.158 2.01043 0)
(1.26269 1.95795 0)
(0.472367 1.36618 0)
(0.0185484 0.662028 0)
(-0.38553 0.584998 0)
(-0.346735 0.913061 0)
(0.167964 0.635112 0)
(0.177261 -0.245709 0)
(0.0235045 -0.304606 0)
(0.446716 -0.566458 0)
(0.657414 -0.152203 0)
(0.850307 -0.047892 0)
(0.899051 -0.0688408 0)
(-0.0119171 1.20873 0)
(0.115135 1.2467 0)
(0.107762 1.21225 0)
(0.174649 1.32506 0)
(0.223258 1.29475 0)
(0.361822 1.32508 0)
(0.205871 1.6085 0)
(0.580151 1.78417 0)
(0.889966 1.84634 0)
(1.31657 1.91412 0)
(1.44747 1.54771 0)
(1.51553 1.5833 0)
(1.30835 1.29891 0)
(1.25513 1.1648 0)
(1.33074 0.902332 0)
(1.34397 0.956652 0)
(1.18803 0.570759 0)
(1.27145 -0.00566413 0)
(1.09692 -0.377314 0)
(1.20687 -0.43711 0)
(1.74512 -0.578781 0)
(2.15483 -0.081753 0)
(1.86585 0.0757687 0)
(0.138218 1.38316 0)
(0.218416 1.31358 0)
(0.104107 1.26265 0)
(0.0640197 1.21358 0)
(0.236816 1.39521 0)
(0.527868 1.37849 0)
(0.317745 1.41825 0)
(0.693561 1.7758 0)
(0.900048 1.74914 0)
(1.22301 1.70276 0)
(1.36152 1.31257 0)
(1.44918 1.24977 0)
(1.71013 1.05683 0)
(1.73673 1.09444 0)
(2.01603 1.13675 0)
(2.07727 0.650219 0)
(1.59246 0.104649 0)
(1.70451 -0.192519 0)
(1.55939 -0.298746 0)
(1.55063 -0.343689 0)
(1.71892 -0.229929 0)
(2.28487 -0.345602 0)
(2.06482 -0.543527 0)
(-0.103711 1.95303 0)
(0.11381 1.23834 0)
(-0.0587782 1.39441 0)
(0.0949901 1.41223 0)
(0.409491 1.89915 0)
(0.44528 1.32916 0)
(0.674182 1.32771 0)
(0.92486 1.66068 0)
(0.729338 1.5749 0)
(0.818103 1.55888 0)
(1.22293 1.4722 0)
(1.39516 1.12652 0)
(1.63389 1.15946 0)
(2.16313 1.09024 0)
(2.06485 0.929769 0)
(1.80632 0.476936 0)
(1.68162 0.205349 0)
(1.65008 0.178583 0)
(1.49372 -0.0986284 0)
(1.65419 -0.0822157 0)
(2.02945 0.219587 0)
(2.04834 -0.0314299 0)
(1.95152 -0.530565 0)
(-0.460608 1.60894 0)
(-0.0736503 1.31069 0)
(0.158246 1.35764 0)
(0.439923 1.57155 0)
(0.151169 1.73538 0)
(0.156354 1.38769 0)
(0.707618 1.48324 0)
(0.934619 1.26458 0)
(0.789999 1.24714 0)
(0.844931 1.38255 0)
(1.077 1.5838 0)
(1.26769 1.3443 0)
(1.72527 1.34007 0)
(1.74129 1.02313 0)
(1.61605 0.79215 0)
(1.80305 0.549614 0)
(1.91154 0.244987 0)
(1.62562 0.114004 0)
(1.40811 0.0300557 0)
(2.00672 0.0894992 0)
(1.92513 -0.0450825 0)
(1.74985 -0.507275 0)
(1.94062 -0.511523 0)
(-0.226338 1.25098 0)
(0.0970879 1.46972 0)
(0.0450829 1.26496 0)
(0.304152 1.29427 0)
(0.287722 1.19739 0)
(0.3045 1.47742 0)
(0.437588 1.39848 0)
(0.635256 1.08334 0)
(0.819242 1.28223 0)
(1.04849 1.20522 0)
(1.07166 1.34134 0)
(1.24792 1.44062 0)
(1.3795 1.26562 0)
(1.62018 0.86054 0)
(1.61092 0.86053 0)
(1.39869 0.665984 0)
(1.43003 0.508797 0)
(1.36011 0.0316267 0)
(1.31662 0.111752 0)
(1.43101 -0.0605795 0)
(1.24823 -0.431001 0)
(1.4777 -0.626079 0)
(2.15626 -0.777871 0)
(-0.141808 1.29688 0)
(0.0672126 1.32482 0)
(0.0105841 1.00135 0)
(0.153089 1.40644 0)
(0.276002 1.26466 0)
(0.490446 1.37531 0)
(0.444933 1.35372 0)
(0.715723 1.24723 0)
(0.781318 1.34942 0)
(0.972589 1.24991 0)
(1.31111 1.09435 0)
(1.22714 1.0862 0)
(1.20108 0.883389 0)
(1.42348 0.820108 0)
(1.3776 0.574967 0)
(1.28211 0.386353 0)
(1.26765 0.315657 0)
(1.33901 0.217336 0)
(1.29286 0.0402097 0)
(1.1859 -0.042411 0)
(1.14293 -0.249129 0)
(1.36396 -0.160758 0)
(1.84382 -0.631112 0)
(-0.0661154 1.31975 0)
(-0.0856133 1.31706 0)
(0.0816505 1.10504 0)
(0.405473 1.34566 0)
(0.337833 1.5688 0)
(0.446527 1.40769 0)
(0.478857 1.41555 0)
(0.588966 1.34607 0)
(0.648212 1.26867 0)
(0.785857 1.26308 0)
(0.983956 1.11516 0)
(0.991766 0.767547 0)
(1.06356 0.668311 0)
(1.14753 0.592438 0)
(1.14308 0.477989 0)
(1.26337 0.234706 0)
(1.28085 0.287425 0)
(1.16129 0.349848 0)
(1.07878 0.102252 0)
(1.07195 0.022459 0)
(1.12845 -0.182426 0)
(1.15278 -0.175188 0)
(1.36371 -0.334837 0)
(0.00849807 1.30887 0)
(0.0730002 1.2799 0)
(0.12119 1.37633 0)
(0.368905 1.25835 0)
(0.314556 1.39688 0)
(0.350037 1.27141 0)
(0.428047 1.24176 0)
(0.52582 1.14124 0)
(0.557963 0.98183 0)
(0.716331 1.02573 0)
(0.743966 0.854956 0)
(0.676231 0.771897 0)
(0.939271 0.774357 0)
(1.06308 0.583428 0)
(0.864878 0.506465 0)
(1.05127 0.361007 0)
(1.58751 0.20416 0)
(1.35468 0.183674 0)
(0.972744 -0.010746 0)
(1.05231 -0.0772024 0)
(1.04163 -0.178349 0)
(1.11802 -0.33901 0)
(1.29828 -0.310954 0)
(0.0486219 1.29994 0)
(0.145913 1.20238 0)
(0.139767 1.23723 0)
(0.237214 1.1567 0)
(0.2595 1.11494 0)
(0.351231 1.11721 0)
(0.388267 1.10049 0)
(0.468773 1.05877 0)
(0.494485 0.928863 0)
(0.610691 0.972916 0)
(0.694289 0.844519 0)
(0.692064 0.749218 0)
(0.764653 0.782264 0)
(0.842304 0.469773 0)
(0.805977 0.47443 0)
(0.88767 0.462664 0)
(1.09006 0.302749 0)
(0.982607 0.0196938 0)
(0.994754 0.131597 0)
(0.996014 0.0326216 0)
(1.02241 -0.130786 0)
(1.0805 -0.238465 0)
(1.09535 -0.470635 0)
(0.0822053 1.15858 0)
(0.163672 1.09133 0)
(0.144042 1.08155 0)
(0.216683 1.04558 0)
(0.235018 1.07231 0)
(0.30301 1.05078 0)
(0.322321 0.994823 0)
(0.412469 0.949748 0)
(0.420345 0.76443 0)
(0.492357 0.792422 0)
(0.582947 0.790852 0)
(0.60174 0.723408 0)
(0.536183 0.631928 0)
(0.670768 0.484 0)
(0.723826 0.458377 0)
(0.816071 0.398768 0)
(1.02344 0.161418 0)
(1.09507 0.00187784 0)
(0.935409 -0.0408972 0)
(0.652391 -0.19751 0)
(0.76698 -0.264079 0)
(0.755286 -0.383836 0)
(0.882574 -0.632049 0)
(0.223494 1.2492 0)
(0.334884 1.15672 0)
(0.213748 1.09432 0)
(0.237638 1.01765 0)
(0.221367 0.984706 0)
(0.252458 0.970847 0)
(0.26046 0.926406 0)
(0.255928 0.914212 0)
(0.30255 0.842052 0)
(0.491961 0.84534 0)
(0.597932 0.784162 0)
(0.588131 0.761329 0)
(0.551038 0.67272 0)
(0.582462 0.643595 0)
(0.542669 0.481265 0)
(0.662719 0.52351 0)
(0.820485 0.26774 0)
(0.764156 0.169393 0)
(0.652509 -0.150402 0)
(0.629441 -0.103086 0)
(0.640636 -0.18007 0)
(0.688101 -0.3509 0)
(0.88505 -0.376576 0)
(0.135785 1.45489 0)
(0.170486 1.18023 0)
(0.132674 1.09851 0)
(0.204219 1.01194 0)
(0.186869 0.977692 0)
(0.22781 0.95612 0)
(0.243103 0.92314 0)
(0.283706 0.891231 0)
(0.315866 0.868185 0)
(0.381923 0.848469 0)
(0.486166 0.745572 0)
(0.483506 0.775531 0)
(0.489125 0.633012 0)
(0.521549 0.591415 0)
(0.57322 0.463668 0)
(0.54236 0.472827 0)
(0.506771 0.367965 0)
(0.599852 0.0367698 0)
(0.615487 -0.0662612 0)
(0.469799 -0.186568 0)
(0.545518 -0.369303 0)
(0.843942 -0.809037 0)
(0.795712 -0.924527 0)
(0.089568 1.29276 0)
(0.102633 1.02131 0)
(0.144416 1.04694 0)
(0.179858 0.96779 0)
(0.176856 0.938735 0)
(0.212635 0.899536 0)
(0.203491 0.857784 0)
(0.23875 0.826874 0)
(0.214262 0.762519 0)
(0.275317 0.715003 0)
(0.550525 0.705872 0)
(0.501882 0.681606 0)
(0.325501 0.568313 0)
(0.446255 0.48621 0)
(0.445262 0.436024 0)
(0.436457 0.256897 0)
(0.474309 0.353878 0)
(0.427432 0.183684 0)
(0.506865 0.0476458 0)
(0.461793 -0.341437 0)
(0.370566 -0.659882 0)
(0.647085 -0.966285 0)
(1.04701 -1.10357 0)
(0.0776479 1.06873 0)
(0.0819182 0.977585 0)
(0.116898 0.976058 0)
(0.143864 0.928775 0)
(0.14558 0.905158 0)
(0.171924 0.893202 0)
(0.174664 0.861665 0)
(0.199739 0.840593 0)
(0.225361 0.773976 0)
(0.241258 0.747876 0)
(0.325379 0.709478 0)
(0.378652 0.491636 0)
(0.340633 0.487022 0)
(0.405029 0.436578 0)
(0.435085 0.476345 0)
(0.45586 0.3506 0)
(0.353783 0.257995 0)
(0.0320933 -0.0396934 0)
(0.244951 -0.158383 0)
(0.256951 -0.551235 0)
(0.296471 -0.58455 0)
(0.619655 -0.642383 0)
(0.710785 -1.01539 0)
(0.0446355 1.01715 0)
(0.0500209 0.961105 0)
(0.0871136 0.954678 0)
(0.11012 0.917805 0)
(0.12613 0.889189 0)
(0.158185 0.849674 0)
(0.137285 0.804423 0)
(0.142762 0.769282 0)
(0.148557 0.711892 0)
(0.112054 0.631611 0)
(0.14364 0.571487 0)
(0.26809 0.525797 0)
(0.324936 0.439554 0)
(0.507713 0.378665 0)
(0.401306 0.405165 0)
(0.246747 0.320511 0)
(0.228343 0.244594 0)
(0.313239 0.174471 0)
(0.196545 -0.0791815 0)
(0.332464 -0.324415 0)
(0.335331 -0.472587 0)
(0.450206 -0.615151 0)
(0.412217 -0.876001 0)
(0.0244446 0.868368 0)
(0.0303131 0.859255 0)
(0.0556599 0.83963 0)
(0.0686956 0.829107 0)
(0.0857374 0.789113 0)
(0.109026 0.863944 0)
(0.0994916 0.902584 0)
(0.10465 0.792864 0)
(0.111563 0.840851 0)
(0.108642 0.718322 0)
(0.107476 0.716348 0)
(0.105077 0.786252 0)
(0.191404 0.608066 0)
(0.410131 0.468498 0)
(0.388975 0.425082 0)
(0.332053 0.473681 0)
(0.305338 0.443486 0)
(0.219366 0.122731 0)
(0.463379 -0.131314 0)
(0.292658 -0.422002 0)
(0.368851 -0.556828 0)
(0.356717 -0.932549 0)
(0.130762 -0.918322 0)
(0.0175306 0.934188 0)
(0.0226611 0.926669 0)
(0.0586775 0.901724 0)
(0.0562286 0.876059 0)
(0.146562 0.819508 0)
(0.266272 0.805059 0)
(0.137167 0.701709 0)
(0.0948562 0.738463 0)
(0.12073 0.61487 0)
(-0.0254273 0.624388 0)
(0.173236 0.598984 0)
(0.125557 0.563307 0)
(0.0508643 0.537967 0)
(0.365491 0.433491 0)
(0.379356 0.353942 0)
(0.249241 0.430977 0)
(0.153284 0.354429 0)