/*--------------------------------*- C++ -*----------------------------------*\
| =========                 |                                                 |
| \\      /  F ield         | foam-extend: Open Source CFD                    |
|  \\    /   O peration     | Version:     4.1                                |
|   \\  /    A nd           | Web:         http://www.foam-extend.org         |
|    \\/     M anipulation  |                                                 |
\*---------------------------------------------------------------------------*/
FoamFile
{
    version     2.0;
    format      ascii;
    class       volScalarField;
    location    "0.35";
    object      alpha1;
}
// * * * * * * * * * * * * * * * * * * * * * * * * * * * * * * * * * * * * * //

dimensions      [0 0 0 0 0 0 0];

internalField   nonuniform List<scalar> 
2268
(
1
1
1
1
1
1
1
1
1
1
1
1
1
1
1
1
1
1
1
1
1
0.999987
0.999251
1
1
1
1
1
1
1
1
1
1
1
1
1
1
1
1
1
1
1
1
1
1
0.999257
1
1
1
1
1
1
1
1
1
0.999907
0.999962
1
1
1
1
1
1
1
1
1
1
1
0.999262
1
1
1
1
1
1
1
1
0.999671
0.999475
0.999626
0.999742
0.999821
0.999842
0.999905
1
1
1
1
1
1
1
0.999273
1
0.999982
0.999941
0.999996
0.999931
0.999964
0.999878
0.999414
0.998511
0.998384
0.998693
0.998862
0.999035
0.999053
0.999151
0.999411
0.999831
1
1
1
1
1
0.999296
0.999504
0.999338
0.999226
0.999277
0.999049
0.998981
0.998619
0.997387
0.995933
0.995922
0.996463
0.996639
0.997038
0.997152
0.997366
0.99783
0.998594
0.999489
1
1
1
1
0.999337
0.997891
0.997507
0.997269
0.997195
0.996624
0.996212
0.995268
0.992765
0.990781
0.990817
0.991504
0.991587
0.992549
0.993153
0.993787
0.994604
0.995846
0.997359
0.998756
1
1
1
0.999403
0.994069
0.993289
0.992854
0.992319
0.991176
0.989853
0.987942
0.984032
0.98114
0.980839
0.981072
0.9809
0.983289
0.985405
0.987319
0.988802
0.990708
0.992855
0.99519
0.997812
0.999806
1
0.999522
0
0
0.00447575
0
0
9.67382e-06
0
0
0
0
5.30765e-05
0.00101037
0.0026646
0.00484838
0.00712777
0.0150462
0.0272313
0.0373286
0.044409
0
0.000326714
0.0113043
0.000639249
0
0
0
0
8.28671e-05
0.000392423
0.000645801
2.77812e-05
0.000830095
0.0015108
0.00258691
0.00901666
0.0217946
0.0397261
0.0627959
0
0.00150849
0.0164973
0.00152153
0
0
0
0.00011384
0.000805819
0.00260681
0.00510941
0
5.21247e-06
0.000240493
0.000598706
0.0037592
0.0132751
0.0356606
0.0782188
0
0
0.0182433
0.00147085
0
0
0
0.000225993
0.00157791
0.00592681
0.0142325
0
0
0
7.99003e-05
0.00119218
0.00634405
0.0266359
0.090705
0
0
0.0195077
0.00111402
0
1.45857e-05
0
0.000197723
0.00154772
0.00887506
0.0291674
0.00144259
0
0
0
8.65881e-05
0.00212064
0.0190531
0.103095
0
0
0.0308941
0.00104874
0
0.000134127
0
9.47029e-05
0.00114449
0.0109668
0.0500705
0.00848014
0
0
0
0
0.000163267
0.0151064
0.116309
0
0
0.0504033
0.000638087
0
0
0
0
0.000526997
0.0120964
0.07578
0.0258527
0.00459143
0
0
0
0
0.0120363
0.129314
0.0855946
0.00502574
0.0909814
0.00147212
0
0
0
0
0.000201707
0.014408
0.101251
0.0571821
0.0216161
0.00300474
0
0
0
0.00843837
0.141348
0.982093
0.980302
0.979436
0.977044
0.974859
0.970419
0.966879
0.960307
0.954678
0.95238
0.949478
0.948765
0.95611
0.963608
0.970461
0.974062
0.977561
0.980377
0.984339
0.990145
0.996122
0.999315
1
0.935802
0.931089
0.929398
0.918376
0.916464
0.904772
0.897842
0.881807
0.864613
0.849803
0.831222
0.830323
0.854519
0.883408
0.914019
0.929734
0.939268
0.941835
0.949412
0.966499
0.983765
0.992137
0.997635
0.784033
0.774609
0.77245
0.747414
0.74611
0.722946
0.702123
0.656879
0.608764
0.554412
0.504794
0.504106
0.555356
0.625161
0.716658
0.784604
0.825831
0.837057
0.856963
0.896982
0.935565
0.956251
0.979518
0.423033
0.414556
0.414526
0.39126
0.39104
0.366246
0.338043
0.287031
0.241228
0.195635
0.170346
0.16548
0.1938
0.232235
0.293005
0.390368
0.510445
0.565559
0.622436
0.705098
0.788137
0.821393
0.877594
0.138091
0.136175
0.137652
0.13157
0.133627
0.123664
0.110138
0.0871403
0.0688696
0.0529212
0.0464453
0.0431721
0.0570208
0.064855
0.0765847
0.110827
0.180393
0.228215
0.293362
0.376111
0.476613
0.536428
0.599242
0.0422541
0.0419211
0.0426473
0.0418066
0.0430127
0.0399609
0.0351005
0.026849
0.0205381
0.0153251
0.0130785
0.0105085
0.0143402
0.0149297
0.0159932
0.0234395
0.0480944
0.0840695
0.133464
0.181645
0.272235
0.227327
0.186669
0.0132784
0.0131623
0.013283
0.0131235
0.0134369
0.0124825
0.0110404
0.00836892
0.00616897
0.00437719
0.00337294
0.00214671
0.00322762
0.00349958
0.00463504
0.00883931
0.0222452
0.0415883
0.0586989
0.0664085
0.103039
0.0671029
0.044086
0.00388592
0.00383689
0.00375614
0.00361313
0.0035924
0.00326406
0.00293992
0.00224843
0.00152688
0.000904954
0.000471465
0.000186475
0.000682874
0.000951751
0.00156548
0.00314375
0.00763384
0.0177987
0.0235223
0.0156581
0.0246743
0.0144818
0.00389263
0.000846429
0.000838018
0.000751488
0.000661186
0.000592365
0.000501032
0.000467807
0.000362604
0.000136437
0
0
0
0
5.08701e-05
0.000236221
0.00094633
0.00314895
0.00994784
0.0100313
0.00370645
0.00291845
0.00114462
0
4.50601e-06
4.46874e-06
0
0
0
0
0
0
0
0
0
0
0
0
0
0
0.000991692
0.00362884
0.0032051
0.000429491
0
0
0
0
0
0
0
0
0
0
0
0
0
0
0
0
0
0
0
0
0.000255273
0.000101561
0
0
0
0
0
0
0
0
0
0
0
0
0
0
0
0
0
0
0
0
0
0
0
0
0
0
0
0
0
0
0
0
0
0
0
0
0
0
0
0
0
0
0
0
0
0
0
0
0
0
0
0
0
0
0
1.98667e-06
1.87293e-06
0
0
0
0
0
0
0
0
0
0
0
0
0
0
0
0
5.83438e-07
2.16913e-08
5.73225e-07
1.62257e-07
9.05103e-07
2.61032e-06
3.32644e-06
2.09522e-06
0
0
0
0
0
0
0
0
0
0
0
0
0
0
0
9.03157e-07
6.28813e-07
8.54002e-07
8.85895e-07
1.08067e-06
1.28471e-06
1.87956e-06
2.64883e-06
2.52577e-06
1.63108e-06
2.9631e-07
0
0
0
0
0
0
0
0
8.82781e-08
1.8114e-07
1.25572e-07
9.31689e-08
1.73004e-07
1.23536e-07
1.99316e-07
3.02406e-07
3.45608e-07
3.92517e-07
6.12627e-07
1.06335e-06
1.24569e-06
1.11467e-06
9.19946e-07
4.62473e-07
0
0
0
5.90645e-08
1.6438e-07
8.42218e-08
7.69501e-08
7.2377e-08
5.90053e-08
4.99821e-08
4.27738e-08
0
0
1.14492e-08
4.84324e-08
5.63696e-08
7.01262e-08
1.22645e-07
2.62282e-07
3.22303e-07
2.92107e-07
2.9123e-07
3.00742e-07
2.4992e-07
1.89302e-07
1.29172e-07
8.9269e-08
6.10093e-08
3.18025e-08
2.00474e-08
1.21344e-08
7.36863e-09
6.60247e-09
6.42373e-09
0
0
0
0
0
0
5.09e-09
2.85477e-08
4.07108e-08
3.18337e-08
4.61397e-08
8.52585e-08
9.772e-08
6.72288e-08
2.68121e-08
1.41677e-08
8.53469e-09
3.58594e-09
1.87318e-09
6.21222e-10
4.62044e-11
0
1.93549e-10
0
0
0
0
0
0
0
0
0
0
0
1.17211e-08
1.91868e-08
9.92489e-09
7.2947e-10
0
0
0
0
0
0
0
0
0
0
0
0
0
0
0
0
0
0
0
0
2.78442e-10
0
0
0
0
0
0
0
0
0
3.36938e-10
0
5.39959e-11
3.29113e-11
0
0
0
0
0
0
0
0
0
0
0
0
0
0
0
0
0
0
0
4.89999e-10
0
5.69124e-11
7.83745e-11
6.27418e-11
6.98433e-11
0
0
0
0
0
0
0
0
0
0
1.1429e-11
9.48475e-12
5.89445e-12
0
0
0
9.59632e-11
1.54648e-09
1.83619e-11
2.14155e-11
2.85317e-11
4.42965e-11
7.10469e-11
6.39583e-11
4.3122e-11
0
0
6.32196e-11
1.44665e-11
0
0
1.30001e-11
1.33009e-11
9.01196e-12
3.92653e-12
3.95239e-13
0
0
0
2.40925e-10
2.81351e-09
5.2589e-12
3.054e-12
3.61211e-12
7.82058e-12
1.56594e-11
2.28325e-11
3.31325e-11
2.89005e-11
2.75729e-11
2.91917e-11
2.87615e-11
1.64817e-11
1.83243e-11
8.97332e-12
2.49384e-12
1.37884e-12
1.48992e-12
0
0
0
0
2.44579e-10
2.79504e-09
1.35891e-13
0
0
0
2.25819e-13
2.00273e-12
5.44609e-12
6.76942e-12
6.18067e-12
5.06101e-12
6.23268e-12
5.5545e-12
4.7643e-12
1.25328e-12
0
2.36311e-13
1.54132e-12
0
0
0
0
2.51931e-10
3.01035e-09
0
0
0
0
0
0
0
1.24067e-13
1.06581e-13
0
1.24734e-13
2.87048e-13
2.81108e-13
0
0
3.16192e-13
2.03715e-12
0
0
0
0
2.22158e-11
2.02291e-09
0
0
0
0
0
0
0
0
0
0
0
0
0
0
0
4.75009e-13
2.33741e-12
0
0
0
0
0
1.25897e-09
1.27676e-15
7.49401e-15
9.32587e-15
7.66054e-15
8.88178e-16
0
0
0
0
0
0
0
0
0
5.95635e-14
9.53349e-13
3.5365e-12
1.78191e-14
0
0
0
8.48005e-11
1.10657e-09
7.43849e-15
1.17129e-14
9.15934e-15
1.0103e-14
1.19349e-14
8.04912e-15
4.55191e-15
5.38458e-15
2.88658e-15
2.22045e-16
2.77556e-16
5.55112e-17
0
0
1.77469e-13
1.60388e-12
4.33775e-12
0
0
0
2.21123e-10
9.66077e-10
2.69389e-09
1.88738e-15
3.4972e-15
4.27436e-15
2.44249e-15
2.66454e-15
2.05391e-15
4.71845e-15
6.82787e-15
6.16174e-15
3.83027e-15
2.16493e-15
3.21965e-15
0
0
4.26437e-13
2.77994e-12
4.36773e-12
0
0
0
1.0676e-09
4.05421e-09
9.43826e-09
2.05391e-15
3.44169e-15
4.16334e-15
3.60822e-15
8.88178e-16
1.55431e-15
3.77476e-15
2.88658e-15
3.38618e-15
2.16493e-15
8.88178e-16
0
0
0
8.39606e-13
4.91029e-12
3.12117e-12
0
0
0
2.59806e-09
1.00852e-08
1.7933e-08
2.60902e-15
4.55191e-15
3.16414e-15
4.44089e-15
2.10942e-15
2.77556e-15
5.05151e-15
4.996e-15
6.71685e-15
2.9976e-15
0
0
0
0
1.39211e-12
7.59448e-12
0
0
0
0
6.01733e-09
2.27787e-08
2.5193e-08
2.38698e-15
2.60902e-15
2.77556e-15
1.16573e-15
2.72005e-15
4.16334e-15
3.44169e-15
3.38618e-15
6.27276e-15
2.9976e-15
1.9984e-15
0
0
7.82707e-15
2.12652e-12
1.0701e-11
0
0
0
0
8.91246e-09
3.71277e-08
2.25169e-08
3.83027e-15
4.05231e-15
4.21885e-15
3.05311e-15
2.16493e-15
2.94209e-15
4.88498e-15
6.66134e-15
6.82787e-15
5.27356e-15
2.72005e-15
0
0
9.4369e-15
2.58665e-12
1.30944e-11
0
0
0
0
1.30983e-08
5.07566e-08
0
4.71845e-15
4.4964e-15
4.82947e-15
4.66294e-15
1.9984e-15
4.10783e-15
5.16254e-15
8.54872e-15
6.82787e-15
3.88578e-15
1.38778e-15
0
0
2.94764e-14
3.02885e-12
1.49004e-11
0
0
0
0
1.7245e-08
6.68722e-08
0
2.72005e-15
3.33067e-15
4.05231e-15
2.77556e-15
2.88658e-15
3.16414e-15
4.16334e-15
8.16014e-15
6.4948e-15
2.72005e-15
1.88738e-15
0
0
8.93174e-14
3.75311e-12
1.61087e-11
0
0
0
1.74207e-10
2.34824e-08
7.68593e-08
0
2.83107e-15
2.77556e-15
2.88658e-15
2.27596e-15
2.72005e-15
4.27436e-15
4.94049e-15
8.38218e-15
6.05072e-15
4.996e-16
2.10942e-15
0
0
1.32838e-13
4.49563e-12
1.69643e-11
0
0
0
9.15068e-10
2.92071e-08
8.16382e-08
0
5.05151e-15
2.60902e-15
1.4988e-15
1.4988e-15
2.27596e-15
6.05072e-15
6.10623e-15
9.65894e-15
6.10623e-15
2.22045e-16
2.55351e-15
0
0
1.52101e-13
4.81221e-12
1.64408e-11
0
0
0
1.72638e-09
3.41166e-08
8.21378e-08
0
4.32987e-15
1.9984e-15
1.94289e-15
9.99201e-16
2.05391e-15
5.32907e-15
6.66134e-15
9.21485e-15
6.77236e-15
9.4369e-16
1.55431e-15
0
0
1.60205e-13
5.08166e-12
1.65118e-11
0
0
0
2.46054e-09
3.93462e-08
7.65987e-08
0
3.10862e-15
2.33147e-15
1.94289e-15
1.72085e-15
1.27676e-15
6.10623e-15
7.54952e-15
9.9365e-15
6.10623e-15
1.60982e-15
3.4972e-15
0
0
1.10356e-13
4.84279e-12
1.5744e-11
0
0
0
2.72739e-09
4.14098e-08
8.17741e-08
0
7.21645e-16
5.55112e-16
3.88578e-16
2.38698e-15
2.44249e-15
6.66134e-15
4.4964e-15
8.99281e-15
5.82867e-15
2.44249e-15
2.60902e-15
0
0
2.57572e-14
4.17555e-12
1.5125e-11
0
0
0
2.92787e-09
3.98714e-08
8.19232e-08
0
1
1
1
0.909859
1
1
1
0.997838
0.990685
0.996067
1
1
0.912226
0.926614
0.941732
0.953919
0.660291
0.697812
0.733386
0.75437
0.215512
0.239374
0.268897
0.30574
0.0448992
0.049831
0.0597242
0.077357
0.0032359
0.00430326
0.007676
0.0123542
0
0
0
0.000866392
0
0
0
0
0
0
0
0
0
0
0
0
0
0
0
0
0
0
0
0
0
0
0
0
8.41216e-08
7.83207e-08
6.47233e-08
4.22046e-08
3.91251e-08
3.75421e-08
3.52432e-08
3.15227e-08
6.41131e-09
6.80907e-09
7.37772e-09
7.43414e-09
9.67444e-10
2.01291e-09
3.0473e-09
2.53723e-09
1.39532e-09
3.1829e-09
4.44203e-09
2.23172e-09
2.37665e-09
4.59304e-09
5.47152e-09
8.99097e-10
2.84077e-09
5.54053e-09
6.84853e-09
2.67596e-09
5.83692e-09
9.4068e-09
9.91282e-09
2.83348e-09
8.70602e-09
1.32861e-08
1.43014e-08
6.41843e-09
9.32072e-09
1.59123e-08
2.02685e-08
1.36143e-08
1.15341e-08
2.17943e-08
3.00211e-08
1.93151e-08
1.15145e-08
2.5918e-08
4.21152e-08
3.54438e-08
1.00897e-08
2.62725e-08
4.8349e-08
5.10788e-08
9.08093e-09
2.54438e-08
4.96654e-08
5.39738e-08
1.0469e-08
2.74222e-08
5.56741e-08
6.76465e-08
2.33382e-08
4.52058e-08
6.92487e-08
4.46918e-08
3.10207e-08
5.04984e-08
6.37686e-08
1.30612e-08
3.50348e-08
4.33252e-08
0
0
9.92051e-11
0
0
0
0
0
0
0
0
0
0
0
0
0
0
0
0
0
0
0
0
0
0
0
0
0
0
0
0
0
0
0
0
0
0
0
0.469175
0.112932
0.199232
0.0125262
0
0
0
0
0.000258324
0.0205509
0.137568
0.125112
0.0778909
0.0209676
0.00215345
0
0
0.00605102
0.158693
0.925103
0.600611
0.631043
0.149226
0.0238981
0.0061913
0.000920544
0
0.00311512
0.0391402
0.191714
0.214413
0.170273
0.0648103
0.0122824
0.000911731
0
0.00976329
0.190284
0.999709
0.954199
0.92881
0.662717
0.482119
0.259193
0.102339
0.0310376
0.0270844
0.0993587
0.273712
0.256112
0.187964
0.0703859
0.0283409
0.00393973
0
0.0341086
0.219672
0.960302
0.961703
0.970796
0.938579
0.85476
0.725623
0.520059
0.219385
0.175231
0.339522
0.410302
0.209329
0.0322316
0.00178498
0.00400004
0.00241823
0.0329423
0.234081
0.362178
0.80922
0.849344
0.907703
0.927592
0.907901
0.927391
0.877306
0.656067
0.63801
0.719649
0.697848
0.349004
0.0684232
0.0305432
0.016289
0.0193889
0.109644
0.360051
0.406288
0.485813
0.46358
0.641257
0.672321
0.712162
0.778738
0.811577
0.791739
0.792706
0.808123
0.822281
0.778
0.643578
0.499094
0.262426
0.124383
0.216531
0.379265
0.449
0.178238
0.182895
0.241567
0.18457
0.237458
0.348915
0.483725
0.55217
0.654095
0.719359
0.766869
0.781278
0.774151
0.755085
0.577951
0.486831
0.573669
0.61087
0.583625
0.0334557
0.0606129
0.0494882
0.0371992
0.0538118
0.0953694
0.188226
0.227564
0.339978
0.335244
0.383646
0.485239
0.601074
0.690111
0.685593
0.700406
0.666511
0.388661
0.450023
0.00261323
0.00576292
0.00464029
0.00206273
0.00778536
0.0197338
0.0465774
0.0804637
0.0980829
0.106326
0.0975456
0.156616
0.347662
0.596161
0.695282
0.713411
0.575239
0.212647
0.303986
0
0
0
0
0
0.000262064
0.00289435
0.0156281
0.0231111
0.0449482
0.0351373
0.0678336
0.177712
0.389251
0.66269
0.696218
0.601794
0.307304
0.206457
0
0
0
0
0
0
0
0.00201288
0.0122136
0.0282825
0.033636
0.0844943
0.201771
0.405802
0.625819
0.642379
0.579733
0.38574
0.155491
0
0
0
0
0
0
0
0.000697386
0.00629212
0.0141607
0.0204815
0.04914
0.143673
0.382784
0.541583
0.559686
0.537276
0.418518
0.153107
0
0
0
1.216e-06
6.80635e-06
1.46445e-06
0
0
0.00124628
0.00453781
0.0114499
0.0362314
0.112917
0.304341
0.446814
0.493093
0.489368
0.403007
0.153841
9.8203e-07
3.00424e-06
2.96027e-06
3.43996e-06
3.51241e-06
5.13316e-06
0
0
0.000307185
0.00182552
0.00551371
0.0195179
0.0669479
0.200338
0.366094
0.437804
0.441982
0.378502
0.15494
0
3.66541e-07
3.30226e-07
5.99972e-07
0
0
4.55081e-06
2.56021e-05
0.000245947
0.000925827
0.00323494
0.0137099
0.0497071
0.132121
0.287272
0.371503
0.379876
0.336867
0.152123
0
2.19828e-10
0
0
0
0
0
2.52217e-05
0.000202099
0.000940891
0.0039063
0.0136901
0.0402968
0.103391
0.233764
0.329441
0.33206
0.290967
0.145391
2.10318e-08
3.7252e-09
0
0
0
0
0
9.30777e-06
0.000111077
0.000590293
0.00268033
0.0102957
0.03537
0.0974786
0.217013
0.317972
0.315375
0.25041
0.134481
4.60867e-09
0
0
0
5.58816e-08
0
0
0
3.38664e-05
0.000371747
0.00228086
0.0086834
0.0263552
0.0650095
0.154185
0.285212
0.306139
0.235139
0.123219
0
0
0
0
3.32633e-07
2.73618e-07
0
0
2.01733e-05
0.000255405
0.00141885
0.00500309
0.0149942
0.0400743
0.100651
0.239701
0.295734
0.233078
0.114001
0
0
0
0
3.69899e-07
1.37081e-06
2.43607e-06
1.357e-06
1.47006e-05
0.000135748
0.00058292
0.00280595
0.0122528
0.036735
0.0796828
0.195729
0.282139
0.228697
0.107662
0
0
0
1.11426e-07
1.22616e-06
4.34584e-06
1.31125e-05
1.0092e-05
1.00596e-05
2.83381e-05
0.000228796
0.00250957
0.0126358
0.0355097
0.0656902
0.145998
0.259275
0.222388
0.100487
0
0
0
5.63914e-07
3.03804e-06
9.60683e-06
2.71178e-05
2.96728e-05
2.13159e-05
2.81884e-05
0.000310514
0.00307212
0.0113151
0.0285644
0.0476215
0.0920824
0.223165
0.213049
0.100892
0
0
8.03476e-08
7.75918e-07
3.66235e-06
1.20084e-05
3.2683e-05
6.37423e-05
6.07377e-05
7.4266e-05
0.000384577
0.00212087
0.00736708
0.0217703
0.0382293
0.0647775
0.182527
0.198257
0.10075
0
0
1.12317e-07
1.05648e-06
4.19755e-06
1.28796e-05
3.46903e-05
8.27053e-05
0.000149026
0.000211927
0.000543482
0.00179594
0.00603833
0.017926
0.0335001
0.0504417
0.135138
0.177718
0.0997297
0
0
0
5.99893e-08
3.56503e-06
1.4896e-05
3.54266e-05
7.82076e-05
0.000190935
0.000386845
0.00094948
0.00329091
0.0103541
0.0229173
0.0349833
0.0435184
0.0911709
0.155162
0.0966096
0
0
0
0
2.13278e-08
1.17868e-05
4.19991e-05
8.94203e-05
0.000201208
0.000507186
0.00142193
0.00427133
0.0116512
0.0225209
0.0344571
0.0391236
0.0630338
0.130174
0.0921855
0
0
0
0
0
1.79254e-05
7.17495e-05
0.000142467
0.000260633
0.000591821
0.00162644
0.00442041
0.0117698
0.0232007
0.0336956
0.0359423
0.0486767
0.107254
0.0870937
0
0
0
0
0
2.27746e-05
9.19225e-05
0.00020811
0.000397057
0.000940495
0.00233239
0.00571717
0.0127706
0.0223493
0.0304252
0.0319275
0.039569
0.0870359
0.0815701
0
0
0
0
0
9.12749e-06
9.33286e-05
0.000291223
0.000603393
0.00173663
0.00364082
0.00887951
0.0158786
0.0224859
0.0260715
0.0273003
0.0323279
0.0698679
0.0757287
0
0
0
0
0
6.78828e-06
0.000116686
0.000503913
0.00111125
0.00297974
0.00591583
0.0136373
0.0199446
0.0220023
0.0223132
0.0228928
0.02622
0.0563058
0.0699941
0
0
0
0
0
1.17901e-05
0.000120434
0.000443024
0.00119709
0.00341631
0.00749938
0.0154508
0.0211058
0.0205562
0.017599
0.0187712
0.0211834
0.0469383
0.0645871
0
0
0
0
0
2.35536e-06
5.99342e-05
0.000398809
0.00159935
0.00475507
0.0107184
0.0184986
0.0221662
0.0208422
0.0156626
0.0142462
0.0152977
0.0376812
0.0596722
0
0
0
0
8.83991e-06
1.6945e-05
6.89386e-05
0.000480114
0.00222135
0.00621672
0.0137297
0.0213577
0.0226819
0.0205123
0.0137513
0.0108523
0.014266
0.0332648
0.054624
0
0
0
4.51893e-06
2.73921e-05
4.96004e-05
0.000103008
0.000396391
0.00170226
0.00577061
0.0141564
0.0215528
0.0221744
0.0192115
0.0119884
0.008586
0.0118162
0.0278919
0.0507125
0
0
0
9.38335e-06
4.08179e-05
7.76136e-05
0.000146948
0.000351294
0.00111288
0.00395401
0.0118791
0.0202699
0.0206401
0.0169619
0.00980793
0.00685095
0.00942066
0.0224413
0.0470046
0
0
0
1.7822e-05
6.63743e-05
0.000110265
0.000192339
0.000402815
0.00114751
0.00353197
0.0102646
0.0183722
0.0188295
0.0151707
0.00837574
0.00522419
0.00616053
0.0216015
0.0437854
0
0
6.434e-06
4.07308e-05
9.16439e-05
0.000143175
0.0002416
0.000610658
0.00196508
0.00523049
0.0119047
0.0178017
0.0173641
0.0130863
0.00658293
0.00422044
0.00783243
0.02554
0.0405533
0
0
1.49635e-05
6.41305e-05
0.000141277
0.000194807
0.000289573
0.000728707
0.00249551
0.00729341
0.0143942
0.0172849
0.0160332
0.0110331
0.00501196
0.00340675
0.00729409
0.02377
0.037023
0
0
2.9917e-05
9.26877e-05
0.000181651
0.000239811
0.000320393
0.000804164
0.00292378
0.00850236
0.0153479
0.0164473
0.0144907
0.00891858
0.0038148
0.002798
0.00637269
0.0208553
0.0336016
0
2.60802e-06
4.48402e-05
0.000130194
0.000222046
0.000270101
0.000297348
0.000628526
0.00250448
0.00871805
0.0152627
0.014935
0.0114311
0.00625964
0.00283856
0.00224473
0.00486958
0.0166335
0.0298552
0
8.03314e-06
7.3842e-05
0.000150647
0.000233258
0.000282317
0.000236027
0.000304907
0.00119421
0.00692506
0.014139
0.0123259
0.00714141
0.00329933
0.00209221
0.00183489
0.00375566
0.0131402
0.026836
0
9.37655e-06
9.00152e-05
0.000164771
0.000249193
0.000290444
0.00022884
0.000184261
0.000354305
0.00333015
0.0101431
0.00538973
0.00188141
0.000842348
0.00116537
0.00119902
0.00200295
0.00692235
0.020111
)
;

boundaryField
{
    leftWall
    {
        type            zeroGradient;
    }
    rightWall
    {
        type            zeroGradient;
    }
    lowerWall
    {
        type            zeroGradient;
    }
    atmosphere
    {
        type            inletOutlet;
        inletValue      uniform 0;
        value           nonuniform List<scalar> 
46
(
7.21645e-16
5.55112e-16
3.88578e-16
2.38698e-15
2.44249e-15
6.66134e-15
4.4964e-15
8.99281e-15
5.82867e-15
2.44249e-15
2.60902e-15
0
0
2.57572e-14
4.17555e-12
1.5125e-11
0
0
0
2.92787e-09
3.98714e-08
8.19232e-08
0
0
0
0
0
0
9.37655e-06
9.00152e-05
0.000164771
0.000249193
0.000290444
0.00022884
0.000184261
0.000354305
0.00333015
0.0101431
0.00538973
0.00188141
0.000842348
0.00116537
0.00119902
0.00200295
0.00692235
0.020111
)
;
    }
    defaultFaces
    {
        type            empty;
    }
}


// ************************************************************************* //
