/*--------------------------------*- C++ -*----------------------------------*\
| =========                 |                                                 |
| \\      /  F ield         | foam-extend: Open Source CFD                    |
|  \\    /   O peration     | Version:     4.1                                |
|   \\  /    A nd           | Web:         http://www.foam-extend.org         |
|    \\/     M anipulation  |                                                 |
\*---------------------------------------------------------------------------*/
FoamFile
{
    version     2.0;
    format      ascii;
    class       volScalarField;
    location    "0.35";
    object      C;
}
// * * * * * * * * * * * * * * * * * * * * * * * * * * * * * * * * * * * * * //

dimensions      [0 0 0 0 0 0 0];

internalField   nonuniform List<scalar> 
2268
(
1.00002
1.00003
1.00003
1.00003
1.00004
1.00005
1.00008
1.00013
1.00017
1.00013
1.00013
1.00015
1.00019
1.00023
1.00027
1.00029
1.00026
1.00019
1.00008
1.00009
1.00021
0.999974
0.998503
1.00008
1.00008
1.00009
1.0001
1.00011
1.00013
1.00018
1.00024
1.00021
1.00009
1.00011
1.00017
1.00021
1.00026
1.00032
1.00037
1.00037
1.00033
1.00023
1.00022
1.0003
1.00002
0.998515
1.00018
1.00018
1.00018
1.00021
1.00023
1.00028
1.00035
1.00035
1.00011
0.999813
0.999924
1.00005
1.00013
1.00019
1.00027
1.0004
1.00053
1.0006
1.00054
1.00052
1.0005
1.00013
0.998524
1.00027
1.00024
1.00022
1.00029
1.00027
1.00036
1.00039
1.00015
0.999343
0.998949
0.999251
0.999485
0.999641
0.999683
0.999809
1.00008
1.00046
1.00081
1.00092
1.00095
1.00084
1.0003
0.998546
1.00008
0.999963
0.999882
0.999993
0.999862
0.999928
0.999756
0.998828
0.997022
0.996768
0.997387
0.997724
0.99807
0.998106
0.998301
0.998823
0.999662
1.00054
1.00108
1.00136
1.00126
1.00056
0.998591
0.999008
0.998677
0.998453
0.998554
0.998099
0.997961
0.997238
0.994774
0.991865
0.991843
0.992927
0.993277
0.994075
0.994303
0.994731
0.995659
0.997187
0.998978
1.00036
1.00133
1.00161
1.00087
0.998673
0.995782
0.995014
0.994538
0.99439
0.993248
0.992424
0.990536
0.985531
0.981562
0.981633
0.983008
0.983174
0.985098
0.986306
0.987574
0.989209
0.991693
0.994719
0.997512
1.00002
1.00137
1.00105
0.998807
0.988137
0.986577
0.985708
0.984638
0.982353
0.979707
0.975884
0.968064
0.96228
0.961679
0.962145
0.961799
0.966578
0.970811
0.974639
0.977605
0.981416
0.985711
0.990381
0.995624
0.999612
1.00081
0.999045
-1.02241
-1.00546
-0.991049
-1.00077
-1.00023
-0.999981
-1.00004
-1.00022
-1.00033
-1.00033
-0.999894
-0.997979
-0.994671
-0.990303
-0.985744
-0.969908
-0.945537
-0.925343
-0.911182
-1.02134
-0.999347
-0.977391
-0.998722
-1.00011
-1
-1.00003
-1.00008
-0.999834
-0.999215
-0.998708
-0.999944
-0.99834
-0.996978
-0.994826
-0.981967
-0.956411
-0.920548
-0.874408
-1.02288
-0.996983
-0.967005
-0.996957
-1.00005
-1.00005
-1.00001
-0.999772
-0.998388
-0.994786
-0.989781
-1.00064
-0.99999
-0.999519
-0.998803
-0.992482
-0.97345
-0.928679
-0.843562
-1.02992
-1.00568
-0.963513
-0.997058
-1.00009
-1.00007
-1.00003
-0.999548
-0.996844
-0.988146
-0.971535
-1.00048
-1.00103
-1.00005
-0.99984
-0.997616
-0.987312
-0.946728
-0.81859
-1.04594
-1.02566
-0.960985
-0.997772
-1.00017
-0.999971
-1.00011
-0.999605
-0.996905
-0.98225
-0.941665
-0.997115
-1.0022
-1.00054
-1.00008
-0.999827
-0.995759
-0.961894
-0.79381
-1.05925
-1.03957
-0.938212
-0.997903
-1.00061
-0.999732
-1.00011
-0.999811
-0.997711
-0.978066
-0.899859
-0.98304
-1.00124
-1.0015
-1.00029
-1.00026
-0.999673
-0.969787
-0.767381
-1.02155
-1.03456
-0.899193
-0.998724
-1.00294
-1.00005
-1.00007
-1.00012
-0.998946
-0.975807
-0.84844
-0.948295
-0.990817
-1.00132
-1.00065
-1.00029
-1.00082
-0.975927
-0.741373
-0.828811
-0.989949
-0.818037
-0.997056
-1.00989
-1.00296
-1.00052
-1.00061
-0.999597
-0.971184
-0.797499
-0.885636
-0.956768
-0.993991
-1.00038
-1.00035
-1.00155
-0.983123
-0.717304
0.964186
0.960603
0.958871
0.954087
0.949717
0.940838
0.933758
0.920613
0.909357
0.90476
0.898955
0.89753
0.91222
0.927216
0.940921
0.948123
0.955123
0.960754
0.968679
0.98029
0.992244
0.99863
1.00002
0.871604
0.862178
0.858795
0.836752
0.832929
0.809544
0.795685
0.763613
0.729226
0.699606
0.662444
0.660645
0.709037
0.766816
0.828038
0.859469
0.878536
0.883669
0.898825
0.932998
0.96753
0.984274
0.99527
0.568067
0.549218
0.5449
0.494827
0.492221
0.445893
0.404247
0.313759
0.217529
0.108823
0.00958801
0.0082125
0.110711
0.250322
0.433316
0.569208
0.651661
0.674113
0.713927
0.793964
0.87113
0.912501
0.959035
-0.153935
-0.170888
-0.170947
-0.21748
-0.21792
-0.267508
-0.323915
-0.425938
-0.517544
-0.608729
-0.659308
-0.66904
-0.6124
-0.535529
-0.413989
-0.219265
0.0208905
0.131119
0.244871
0.410197
0.576273
0.642786
0.755187
-0.723818
-0.727649
-0.724696
-0.736861
-0.732745
-0.752672
-0.779723
-0.825719
-0.862261
-0.894158
-0.907109
-0.913656
-0.885958
-0.87029
-0.846831
-0.778346
-0.639213
-0.54357
-0.413275
-0.247777
-0.0467731
0.0728553
0.198484
-0.915492
-0.916158
-0.914705
-0.916387
-0.913975
-0.920078
-0.929799
-0.946302
-0.958924
-0.96935
-0.973843
-0.978983
-0.97132
-0.970141
-0.968014
-0.953121
-0.903811
-0.831861
-0.733072
-0.63671
-0.455529
-0.545346
-0.626662
-0.973443
-0.973675
-0.973434
-0.973753
-0.973126
-0.975035
-0.977919
-0.983262
-0.987662
-0.991246
-0.993254
-0.995707
-0.993545
-0.993001
-0.99073
-0.982321
-0.95551
-0.916823
-0.882602
-0.867183
-0.793921
-0.865794
-0.911828
-0.992228
-0.992326
-0.992488
-0.992774
-0.992815
-0.993472
-0.99412
-0.995503
-0.996946
-0.99819
-0.999057
-0.999627
-0.998634
-0.998096
-0.996869
-0.993712
-0.984732
-0.964403
-0.952955
-0.968684
-0.950651
-0.971036
-0.992215
-0.998307
-0.998324
-0.998497
-0.998678
-0.998815
-0.998998
-0.999064
-0.999275
-0.999727
-1.00018
-1.00045
-1.00044
-1.00005
-0.999898
-0.999528
-0.998107
-0.993702
-0.980104
-0.979937
-0.992587
-0.994163
-0.997711
-1.00364
-0.999991
-0.999991
-1.00008
-1.00015
-1.00019
-1.00018
-1.00016
-1.00021
-1.0004
-1.0006
-1.00069
-1.00061
-1.00055
-1.00059
-1.0005
-1
-0.998017
-0.992742
-0.99359
-0.999141
-1.00064
-1.00126
-1.0019
-1.0003
-1.00031
-1.00033
-1.00035
-1.00034
-1.00028
-1.00027
-1.00034
-1.0005
-1.00065
-1.00068
-1.00063
-1.00067
-1.00073
-1.00076
-1.00061
-1.00017
-0.999489
-0.999797
-1.00083
-1.00096
-1.0009
-1.00059
-1.00026
-1.00029
-1.00024
-1.00024
-1.00018
-1.00009
-1.00009
-1.00021
-1.00041
-1.0005
-1.00051
-1.00047
-1.00059
-1.00059
-1.00058
-1.00051
-1.0005
-1.00048
-1.0005
-1.00053
-1.0005
-1.00035
-1.00018
-1.00009
-1.0001
-1.00007
-1.00007
-1.00005
-1.00001
-1.00001
-1.00008
-1.00018
-1.00023
-1.00025
-1.00025
-1.00037
-1.00034
-1.00028
-1.00019
-1.0002
-1.00022
-1.0002
-1.00016
-1.00012
-1.00008
-1.00005
-1.00001
-1.00002
-1.00001
-1.00001
-1.00001
-0.999996
-0.999996
-1.00001
-1.00004
-1.00006
-1.00008
-1.0001
-1.00017
-1.00016
-1.00012
-1.00006
-1.00005
-1.00006
-1.00004
-1.00003
-1.00002
-1.00001
-1.00001
-0.999999
-1
-0.999999
-1
-0.999998
-0.999995
-0.999993
-0.999996
-1
-1.00001
-1.00001
-1.00003
-1.00005
-1.00005
-1.00004
-1.00001
-1.00001
-1.00001
-1.00001
-1
-1
-1
-1
-0.999998
-0.999999
-0.999998
-0.999998
-0.999998
-0.999997
-0.999996
-0.999995
-0.999995
-0.999997
-0.999999
-1
-1.00001
-1.00001
-1.00001
-1
-1
-1
-1
-1
-1
-1
-1
-1
-1
-1
-0.999999
-0.999999
-0.999999
-0.999999
-0.999998
-0.999998
-0.999998
-0.999998
-0.999999
-1
-1
-1
-1
-1
-1
-1
-1
-1
-1
-1
-1
-1
-1
-1
-1
-1
-1
-0.999999
-0.999999
-0.999999
-0.999999
-0.999999
-1
-1
-1
-1
-1
-1
-1
-1
-1
-1
-1
-1
-1
-1
-1
-1
-1
-1
-1
-1
-1
-1
-1
-1
-1
-1
-1
-1
-1
-1
-1
-1
-1
-1
-1
-1
-1
-1
-1
-1
-1
-1
-1
-1
-1
-1
-1
-1
-1
-1
-1
-1
-1
-1
-1
-1
-1
-1
-1
-1
-1
-1
-1
-1
-1
-1
-1
-1
-1
-1
-1
-1
-1
-1
-1
-1
-1
-1
-1
-1
-1
-1
-1
-1
-1
-1
-1
-1
-1
-1
-1
-1
-1
-1
-1
-1
-1
-1
-1
-1
-1
-1
-1
-1
-1
-1
-1
-1
-1
-1
-1
-1
-1
-1
-1
-1
-1
-1
-1
-1
-1
-1
-1
-1
-1
-1
-1
-1
-1
-1
-1
-1
-1
-1
-1
-1
-1
-1
-1
-1
-1
-1
-1
-1
-1
-1
-1
-1
-1
-1
-1
-1
-1
-1
-1
-1
-1
-1
-1
-1
-1
-1
-1
-1
-1
-1
-1
-1
-1
-1
-1
-1
-1
-1
-1
-1
-1
-1
-1
-1
-1
-1
-1
-1
-1
-1
-1
-1
-1
-1
-1
-1
-1
-1
-1
-1
-1
-1
-1
-1
-1
-1
-1
-1
-1
-1
-1
-1
-1
-1
-1
-1
-1
-1
-1
-1
-1
-1
-1
-1
-1
-1
-1
-1
-1
-1
-1
-1
-1
-1
-1
-1
-1
-1
-1
-1
-1
-1
-1
-1
-1
-1
-1
-1
-1
-1
-1
-1
-1
-1
-1
-1
-1
-1
-1
-1
-1
-1
-1
-1
-1
-1
-1
-1
-1
-1
-1
-1
-1
-1
-1
-1
-1
-1
-1
-1
-1
-1
-1
-1
-1
-1
-1
-1
-1
-1
-1
-1
-1
-1
-1
-1
-1
-1
-1
-1
-1
-1
-1
-1
-1
-1
-1
-1
-1
-1
-1
-1
-1
-1
-1
-1
-1
-1
-1
-1
-1
-1
-1
-1
-1
-1
-1
-1
-1
-1
-1
-1
-1
-1
-1
-1
-1
-1
-1
-1
-1
-1
-1
-1
-1
-1
-1
-1
-1
-1
-1
-1
-1
-1
-1
-1
-1
-1
-1
-1
-1
-1
-1
-1
-1
-1
-1
-1
-1
-1
-1
-1
-1
-1
-1
-1
-1
-1
-1
-1
-1
-1
-1
-1
-1
-1
-1
-1
-1
-1
-1
-1
-1
-1
-1
-1
-1
-1
-1
-1
-1
-1
-1
-1
-1
-1
-1
-1
-1
-1
-1
-1
-1
-1
-1
-1
-1
-1
-1
-1
-1
-1
-1
-1
-1
-1
-1
-1
-1
-1
-1
-1
-1
-1
-1
-1
-1
-1
-1
-1
-1
-1
-1
-1
-1
-1
-1
-1
-1
-1
-1
-1
-1
-1
-1
-1
-1
-1
-1
-1
-1
-1
-1
-1
-1
-1
-1
-1
-1
-1
-1
-1
-1
-1
-1
-1
-1
-1
-1
-1
-1
-1
-1
-1
-1
-1
-1
-1
-1
-1
-1
-1
-1
-1
-1
-1
-1
-1
-1
-1
-1
-1
-1
-1
-1
-1
-1
-1
-1
-1
-1
-1
-1
-1
-1
-1
-1
-1
-1
-1
-1
-1
-1
-1
-1
-1
-1
-1
-1
-1
-1
-1
-1
-1
-1
-1
-1
-1
-1
-1
-1
-1
-1
-1
-1
-1
-1
-1
-1
-1
-1
-1
-1
-1
-1
-1
-1
-1
-1
-1
-1
-1
-1
-1
-1
-1
-1
1.01309
1.03031
1.00697
0.819719
1.00689
1.0197
1.02398
0.995676
0.98137
0.992134
1.00147
1.00641
0.824451
0.853228
0.883464
0.907839
0.320581
0.395623
0.466772
0.50874
-0.568976
-0.521253
-0.462206
-0.388521
-0.910202
-0.900338
-0.880552
-0.845286
-0.993528
-0.991393
-0.984648
-0.975292
-1.00383
-1.0031
-1.00109
-0.998267
-1.0019
-1.00184
-1.00179
-1.00185
-1.0005
-1.00053
-1.00068
-1.00095
-1.00012
-1.0001
-1.00012
-1.00017
-1.00003
-1.00002
-1.00002
-1.00001
-1.00001
-1.00001
-1
-1
-1
-1
-1
-1
-1
-1
-1
-1
-1
-1
-1
-1
-1
-1
-1
-1
-1
-1
-1
-1
-1
-1
-1
-1
-1
-1
-1
-1
-1
-1
-1
-1
-1
-1
-1
-1
-1
-1
-1
-1
-1
-1
-1
-1
-1
-1
-1
-1
-1
-1
-1
-1
-1
-1
-1
-1
-1
-1
-1
-1
-1
-1
-1
-1
-1
-1
-1
-1
-1
-1
-1
-1
-1
-1
-1
-1
-1
-1
-1
-1
-1
-1
-1
-1
-1
-1
-1
-1.00001
-1
-1
-1.00001
-1.00001
-1
-1.00001
-1.00001
-1.00001
-1
-1.00001
-1.00001
-1.00002
-1.00001
-1.00001
-1.00001
-1.00002
-1.00001
-1.00001
-1.00002
-1.00002
-1.00001
-1.00001
-1.00002
-1.00002
-0.0616496
-0.774135
-0.601535
-0.974948
-1.02688
-1.01447
-1.00435
-1.00258
-0.999483
-0.958898
-0.724864
-0.749776
-0.844218
-0.958065
-0.995693
-1
-1.0025
-0.987898
-0.682614
0.850206
0.201223
0.262086
-0.701547
-0.952204
-0.987617
-0.998159
-1.00045
-0.99377
-0.92172
-0.616572
-0.571174
-0.659453
-0.870379
-0.975435
-0.998177
-1.00492
-0.980473
-0.619433
0.999417
0.908398
0.857619
0.325434
-0.0357619
-0.481615
-0.795322
-0.937925
-0.945831
-0.801283
-0.452575
-0.487777
-0.624072
-0.859228
-0.943318
-0.992121
-1.00196
-0.931783
-0.560656
0.920604
0.923406
0.941593
0.877158
0.709519
0.451245
0.0401178
-0.561231
-0.649539
-0.320956
-0.179397
-0.581342
-0.935537
-0.99643
-0.992
-0.995164
-0.934115
-0.531839
-0.275645
0.61844
0.698689
0.815407
0.855183
0.815802
0.854782
0.754613
0.312133
0.276019
0.439298
0.395697
-0.301991
-0.863154
-0.938914
-0.967422
-0.961222
-0.780711
-0.279898
-0.187423
-0.0283747
-0.0728407
0.282515
0.344641
0.424323
0.557476
0.623154
0.583477
0.585413
0.616245
0.644561
0.556
0.287157
-0.00181161
-0.475147
-0.751233
-0.566939
-0.24147
-0.102
-0.643524
-0.63421
-0.516867
-0.63086
-0.525084
-0.30217
-0.0325497
0.104339
0.30819
0.438718
0.533738
0.562556
0.548303
0.510171
0.155903
-0.0263386
0.147337
0.221739
0.167251
-0.933089
-0.878774
-0.901024
-0.925602
-0.892376
-0.809261
-0.623547
-0.544873
-0.320044
-0.329513
-0.232707
-0.029523
0.202148
0.380222
0.371187
0.400812
0.333023
-0.222678
-0.099954
-0.994774
-0.988474
-0.990719
-0.995875
-0.984429
-0.960532
-0.906845
-0.839073
-0.803834
-0.787348
-0.804909
-0.686768
-0.304676
0.192323
0.390563
0.426821
0.150477
-0.574705
-0.392027
-1.00262
-1.00226
-1.00143
-1.00263
-1.00129
-0.999476
-0.994211
-0.968744
-0.953778
-0.910104
-0.929725
-0.864333
-0.644576
-0.221499
0.32538
0.392437
0.203589
-0.385391
-0.587087
-1.00142
-1.00141
-1.00116
-1.00116
-1.00113
-1.00183
-1.0024
-0.995974
-0.975573
-0.943435
-0.932728
-0.831011
-0.596458
-0.188395
0.251637
0.284757
0.159467
-0.228519
-0.689019
-1.00023
-1.00026
-1.00025
-1.00021
-1.00017
-1.00033
-1.00083
-0.998605
-0.987416
-0.971679
-0.959037
-0.90172
-0.712654
-0.234433
0.0831657
0.119372
0.0745517
-0.162964
-0.693787
-1
-1
-1
-0.999998
-0.999986
-0.999997
-1.00025
-1.00036
-0.997507
-0.990924
-0.9771
-0.927537
-0.774167
-0.391317
-0.106373
-0.013814
-0.0212644
-0.193987
-0.692319
-0.999998
-0.999994
-0.999994
-0.999993
-0.999993
-0.99999
-1.00003
-1.00021
-0.999386
-0.996349
-0.988973
-0.960964
-0.866104
-0.599324
-0.267812
-0.124391
-0.116037
-0.242996
-0.69012
-1
-0.999999
-0.999999
-0.999999
-1
-1
-0.999991
-0.999949
-0.999508
-0.998148
-0.99353
-0.97258
-0.900586
-0.735758
-0.425456
-0.256995
-0.240247
-0.326266
-0.695754
-1
-1
-1
-1
-1
-1
-1
-0.99995
-0.999596
-0.998118
-0.992187
-0.97262
-0.919406
-0.793219
-0.532472
-0.341118
-0.33588
-0.418065
-0.709218
-1
-1
-1
-1
-1
-1
-1.00001
-0.999981
-0.999778
-0.998819
-0.994639
-0.979409
-0.92926
-0.805043
-0.565973
-0.364056
-0.369249
-0.49918
-0.731039
-1
-1
-1
-1
-1
-1
-1.00001
-1.00001
-0.999932
-0.999257
-0.995438
-0.982633
-0.94729
-0.869981
-0.691631
-0.429576
-0.387723
-0.529722
-0.753563
-1
-1
-1
-1
-0.999999
-0.999999
-1
-1
-0.99996
-0.999489
-0.997162
-0.989994
-0.970012
-0.919851
-0.798698
-0.520598
-0.408532
-0.533844
-0.771998
-1
-1
-1
-1
-0.999999
-0.999997
-0.999995
-0.999997
-0.999971
-0.999729
-0.998834
-0.994388
-0.975494
-0.92653
-0.840634
-0.608542
-0.435722
-0.542607
-0.784676
-1
-1
-1
-1
-0.999998
-0.999991
-0.999974
-0.99998
-0.99998
-0.999943
-0.999542
-0.994981
-0.974728
-0.928981
-0.86862
-0.708004
-0.481449
-0.555224
-0.799027
-1
-1
-1
-0.999999
-0.999994
-0.999981
-0.999946
-0.999941
-0.999957
-0.999944
-0.999379
-0.993856
-0.97737
-0.942871
-0.904757
-0.815835
-0.55367
-0.573903
-0.798216
-1
-1
-1
-0.999998
-0.999993
-0.999976
-0.999935
-0.999873
-0.999879
-0.999851
-0.999231
-0.995758
-0.985266
-0.956459
-0.923541
-0.870445
-0.634945
-0.603486
-0.7985
-1
-1
-1
-0.999998
-0.999992
-0.999974
-0.999931
-0.999835
-0.999702
-0.999576
-0.998913
-0.996408
-0.987923
-0.964148
-0.933
-0.899117
-0.729725
-0.644563
-0.800541
-1
-1
-1
-1
-0.999993
-0.99997
-0.999929
-0.999844
-0.999618
-0.999226
-0.998101
-0.993418
-0.979292
-0.954165
-0.930033
-0.912963
-0.817658
-0.689677
-0.806781
-1
-1
-1
-1.00001
-1
-0.999976
-0.999916
-0.999821
-0.999598
-0.998986
-0.997156
-0.991457
-0.976698
-0.954958
-0.931086
-0.921753
-0.873932
-0.739652
-0.815629
-1
-1
-1.00001
-1.00001
-1
-0.999964
-0.999857
-0.999715
-0.999479
-0.998816
-0.996747
-0.991159
-0.97646
-0.953599
-0.932609
-0.928115
-0.902647
-0.785493
-0.825813
-1
-1
-1.00001
-1.00002
-1.00001
-0.999954
-0.999816
-0.999584
-0.999206
-0.998119
-0.995335
-0.988566
-0.974459
-0.955301
-0.93915
-0.936145
-0.920862
-0.825928
-0.83686
-1
-1
-1.00001
-1.00002
-1.00002
-0.999982
-0.999813
-0.999418
-0.998793
-0.996527
-0.992718
-0.982241
-0.968243
-0.955028
-0.947857
-0.945399
-0.935344
-0.860264
-0.848543
-1
-1
-1.00001
-1.00002
-1.00002
-0.999986
-0.999767
-0.998992
-0.997778
-0.994041
-0.988168
-0.972725
-0.960111
-0.955995
-0.955374
-0.954214
-0.94756
-0.887388
-0.860012
-1
-1
-1.00001
-1.00001
-1.00001
-0.999976
-0.999759
-0.999114
-0.997606
-0.993167
-0.985001
-0.969098
-0.957788
-0.958888
-0.964802
-0.962458
-0.957633
-0.906123
-0.870826
-1
-1.00001
-1.00001
-1.00001
-1
-0.999995
-0.99988
-0.999202
-0.996801
-0.99049
-0.978563
-0.963003
-0.955668
-0.958316
-0.968675
-0.971508
-0.969405
-0.924638
-0.880656
-1
-1.00001
-1.00001
-1
-0.999982
-0.999966
-0.999862
-0.99904
-0.995557
-0.987567
-0.972541
-0.957285
-0.954636
-0.958975
-0.972497
-0.978295
-0.971468
-0.93347
-0.890752
-1.00001
-1.00001
-1.00001
-0.999991
-0.999945
-0.999901
-0.999794
-0.999207
-0.996595
-0.988459
-0.971687
-0.956894
-0.955651
-0.961577
-0.976023
-0.982828
-0.976368
-0.944216
-0.898575
-1.00001
-1.00001
-1.00001
-0.999981
-0.999918
-0.999845
-0.999706
-0.999297
-0.997774
-0.992092
-0.976242
-0.95946
-0.95872
-0.966076
-0.980384
-0.986298
-0.981159
-0.955117
-0.905991
-1.00001
-1.00001
-1.00001
-0.999964
-0.999867
-0.999779
-0.999615
-0.999194
-0.997705
-0.992936
-0.979471
-0.963256
-0.962341
-0.969659
-0.983249
-0.989552
-0.987679
-0.956797
-0.912429
-1.00002
-1.00001
-0.999987
-0.999919
-0.999817
-0.999714
-0.999517
-0.998779
-0.99607
-0.989539
-0.976191
-0.964397
-0.965272
-0.973827
-0.986834
-0.991559
-0.984335
-0.94892
-0.918893
-1.00002
-1.00001
-0.99997
-0.999872
-0.999717
-0.99961
-0.999421
-0.998543
-0.995009
-0.985413
-0.971212
-0.96543
-0.967934
-0.977934
-0.989976
-0.993187
-0.985412
-0.95246
-0.925954
-1.00002
-1
-0.99994
-0.999815
-0.999637
-0.99952
-0.999359
-0.998392
-0.994152
-0.982995
-0.969304
-0.967105
-0.971019
-0.982163
-0.99237
-0.994404
-0.987255
-0.958289
-0.932797
-1.00002
-0.999995
-0.99991
-0.99974
-0.999556
-0.99946
-0.999405
-0.998743
-0.994991
-0.982564
-0.969475
-0.97013
-0.977138
-0.987481
-0.994323
-0.995511
-0.990261
-0.966733
-0.94029
-1.00002
-0.999984
-0.999852
-0.999699
-0.999533
-0.999435
-0.999528
-0.99939
-0.997612
-0.98615
-0.971722
-0.975348
-0.985717
-0.993401
-0.995816
-0.99633
-0.992489
-0.97372
-0.946328
-1.00002
-0.999981
-0.99982
-0.99967
-0.999502
-0.999419
-0.999542
-0.999631
-0.999291
-0.99334
-0.979714
-0.989221
-0.996237
-0.998315
-0.997669
-0.997602
-0.995994
-0.986155
-0.959778
)
;

boundaryField
{
    leftWall
    {
        type            zeroGradient;
    }
    rightWall
    {
        type            zeroGradient;
    }
    lowerWall
    {
        type            zeroGradient;
    }
    atmosphere
    {
        type            zeroGradient;
    }
    defaultFaces
    {
        type            empty;
    }
}


// ************************************************************************* //
