/*--------------------------------*- C++ -*----------------------------------*\
| =========                 |                                                 |
| \\      /  F ield         | foam-extend: Open Source CFD                    |
|  \\    /   O peration     | Version:     4.1                                |
|   \\  /    A nd           | Web:         http://www.foam-extend.org         |
|    \\/     M anipulation  |                                                 |
\*---------------------------------------------------------------------------*/
FoamFile
{
    version     2.0;
    format      ascii;
    class       volScalarField;
    location    "0.35";
    object      C_0;
}
// * * * * * * * * * * * * * * * * * * * * * * * * * * * * * * * * * * * * * //

dimensions      [0 0 0 0 0 0 0];

internalField   nonuniform List<scalar> 
2268
(
1.00002
1.00003
1.00003
1.00003
1.00004
1.00005
1.00007
1.00013
1.00017
1.00013
1.00013
1.00015
1.00019
1.00023
1.00027
1.00028
1.00026
1.00019
1.00007
1.00008
1.00021
0.999975
0.998488
1.00008
1.00008
1.00008
1.0001
1.0001
1.00013
1.00017
1.00023
1.00021
1.00009
1.00011
1.00016
1.00021
1.00026
1.00032
1.00037
1.00037
1.00033
1.00022
1.00022
1.0003
1.00002
0.998501
1.00018
1.00018
1.00018
1.00021
1.00022
1.00028
1.00034
1.00034
1.00011
0.99982
0.999929
1.00006
1.00013
1.00019
1.00027
1.0004
1.00053
1.0006
1.00054
1.00052
1.0005
1.00013
0.99851
1.00027
1.00023
1.00022
1.00029
1.00027
1.00035
1.00038
1.00015
0.999357
0.998971
0.999269
0.999497
0.999647
0.999689
0.999817
1.00009
1.00047
1.00081
1.00092
1.00095
1.00084
1.0003
0.998532
1.00009
0.99997
0.99989
1
0.999871
0.999937
0.999768
0.998853
0.997072
0.996824
0.997434
0.997759
0.99809
0.99812
0.998316
0.998843
0.999684
1.00056
1.00108
1.00136
1.00126
1.00055
0.998576
0.999034
0.998707
0.998488
0.998588
0.99814
0.998005
0.99729
0.994855
0.991985
0.991967
0.993036
0.993362
0.994132
0.994337
0.994756
0.99569
0.997223
0.999011
1.00038
1.00134
1.00161
1.00087
0.998657
0.995859
0.995101
0.994634
0.994488
0.993362
0.992548
0.990679
0.985728
0.98181
0.981889
0.983244
0.983366
0.985244
0.986389
0.987616
0.989246
0.991736
0.994764
0.997548
1.00004
1.00139
1.00105
0.998791
0.988322
0.986781
0.985926
0.984869
0.982612
0.979994
0.976206
0.968468
0.962758
0.962183
0.962636
0.962215
0.966916
0.971014
0.974717
0.977643
0.981447
0.985752
0.990424
0.995664
0.999642
1.00082
0.999035
-1.0226
-1.00612
-0.992039
-1.00094
-1.00021
-0.999978
-1.00003
-1.0002
-1.00032
-1.00035
-1.00006
-0.998473
-0.995508
-0.991128
-0.986497
-0.972069
-0.948355
-0.92845
-0.914476
-1.02162
-0.999952
-0.978171
-0.998887
-1.00011
-1
-1.00003
-1.00008
-0.999867
-0.999273
-0.998815
-1.00003
-0.998581
-0.997214
-0.995119
-0.98356
-0.959093
-0.923776
-0.878253
-1.02314
-0.997136
-0.967139
-0.997067
-1.00006
-1.00005
-1.00002
-0.999802
-0.998524
-0.995069
-0.990271
-1.00062
-0.999993
-0.999538
-0.99889
-0.993308
-0.975369
-0.931596
-0.847975
-1.03019
-1.00546
-0.963224
-0.997125
-1.0001
-1.00007
-1.00004
-0.999596
-0.997051
-0.988679
-0.972786
-1.00051
-1.00096
-1.00002
-0.999857
-0.997928
-0.988275
-0.94893
-0.823473
-1.04619
-1.02537
-0.960537
-0.997805
-1.00018
-0.999973
-1.00013
-0.999651
-0.997075
-0.982808
-0.943599
-0.997465
-1.00211
-1.00046
-1.00006
-0.999865
-0.996064
-0.96346
-0.799162
-1.05943
-1.03928
-0.937666
-0.997936
-1.00062
-0.999731
-1.00012
-0.999853
-0.99781
-0.97835
-0.902102
-0.984281
-1.00141
-1.00141
-1.00024
-1.00023
-0.99971
-0.971114
-0.773077
-1.02193
-1.03435
-0.898549
-0.99877
-1.00294
-1.00004
-1.00008
-1.00017
-0.998994
-0.975633
-0.850192
-0.950893
-0.991825
-1.00143
-1.0006
-1.00026
-1.0008
-0.976994
-0.746875
-0.829813
-0.98973
-0.817047
-0.9971
-1.0099
-1.00294
-1.00054
-1.00065
-0.999561
-0.970344
-0.797601
-0.889619
-0.959661
-0.994953
-1.00043
-1.00033
-1.00151
-0.983922
-0.722246
0.964682
0.961138
0.959433
0.954702
0.95038
0.94159
0.934573
0.921569
0.910459
0.905957
0.90022
0.898582
0.913123
0.927837
0.941145
0.948151
0.955074
0.960726
0.968688
0.980348
0.99231
0.99867
1.00003
0.873214
0.863878
0.86055
0.838751
0.834954
0.811802
0.798102
0.766434
0.732461
0.70321
0.666297
0.663861
0.711983
0.7693
0.829232
0.859611
0.878152
0.883214
0.898468
0.932932
0.967613
0.98436
0.995309
0.57324
0.554537
0.550309
0.500723
0.498165
0.452295
0.411182
0.321636
0.225973
0.117543
0.0181184
0.0154776
0.118161
0.257807
0.438681
0.571025
0.650844
0.672402
0.712115
0.792944
0.870765
0.912315
0.958979
-0.145212
-0.162288
-0.162303
-0.209066
-0.20939
-0.259056
-0.315558
-0.418113
-0.51075
-0.603143
-0.654675
-0.665238
-0.607932
-0.529926
-0.407849
-0.214425
0.0209776
0.127804
0.240127
0.406173
0.573855
0.640832
0.753956
-0.720007
-0.723917
-0.720925
-0.733233
-0.728983
-0.748959
-0.776265
-0.822824
-0.86001
-0.892483
-0.905818
-0.912721
-0.884617
-0.868712
-0.845204
-0.776686
-0.639235
-0.545755
-0.417428
-0.252992
-0.0518452
0.0682038
0.19481
-0.914342
-0.915023
-0.913544
-0.915232
-0.91274
-0.91883
-0.928668
-0.945396
-0.958245
-0.968863
-0.973501
-0.9788
-0.971003
-0.969791
-0.967653
-0.952687
-0.903523
-0.832577
-0.735205
-0.639812
-0.459488
-0.549616
-0.629406
-0.973089
-0.973323
-0.973072
-0.973384
-0.972729
-0.974626
-0.977545
-0.982964
-0.987447
-0.991098
-0.993162
-0.99567
-0.993469
-0.99291
-0.990606
-0.98212
-0.955308
-0.917262
-0.883707
-0.868644
-0.796401
-0.867549
-0.913145
-0.992118
-0.992215
-0.992376
-0.992662
-0.992698
-0.993352
-0.994007
-0.995411
-0.996882
-0.99815
-0.999036
-0.999618
-0.99861
-0.998064
-0.996815
-0.993614
-0.984579
-0.964472
-0.953419
-0.969191
-0.951364
-0.971743
-0.992677
-0.998277
-0.998293
-0.998467
-0.99865
-0.998788
-0.998973
-0.999039
-0.999252
-0.999711
-1.00017
-1.00045
-1.00043
-1.00004
-0.999886
-0.999508
-0.998076
-0.993676
-0.980197
-0.980154
-0.992756
-0.994268
-0.997869
-1.00367
-0.999986
-0.999985
-1.00007
-1.00015
-1.00019
-1.00018
-1.00016
-1.00021
-1.0004
-1.0006
-1.00069
-1.00061
-1.00055
-1.00059
-1.0005
-1
-0.998034
-0.99281
-0.993698
-0.999202
-1.00066
-1.00128
-1.00188
-1.0003
-1.00031
-1.00033
-1.00036
-1.00034
-1.00029
-1.00027
-1.00034
-1.0005
-1.00065
-1.00068
-1.00063
-1.00067
-1.00073
-1.00076
-1.00062
-1.00018
-0.999509
-0.999823
-1.00084
-1.00095
-1.0009
-1.00058
-1.00027
-1.00029
-1.00024
-1.00024
-1.00018
-1.00009
-1.00009
-1.00021
-1.00041
-1.0005
-1.00051
-1.00047
-1.0006
-1.00059
-1.00058
-1.00051
-1.00051
-1.00048
-1.0005
-1.00053
-1.00049
-1.00034
-1.00018
-1.00009
-1.0001
-1.00007
-1.00007
-1.00005
-1.00001
-1.00001
-1.00008
-1.00018
-1.00023
-1.00025
-1.00025
-1.00037
-1.00035
-1.00028
-1.0002
-1.0002
-1.00022
-1.0002
-1.00016
-1.00012
-1.00008
-1.00005
-1.00001
-1.00002
-1.00001
-1.00001
-1.00001
-0.999996
-0.999996
-1.00001
-1.00004
-1.00006
-1.00008
-1.0001
-1.00017
-1.00016
-1.00012
-1.00006
-1.00005
-1.00006
-1.00004
-1.00003
-1.00002
-1.00001
-1.00001
-0.999999
-1
-0.999999
-1
-0.999998
-0.999995
-0.999993
-0.999996
-1
-1.00001
-1.00001
-1.00003
-1.00005
-1.00005
-1.00004
-1.00001
-1.00001
-1.00001
-1.00001
-1
-1
-1
-1
-0.999998
-0.999999
-0.999998
-0.999998
-0.999998
-0.999997
-0.999996
-0.999995
-0.999995
-0.999997
-0.999999
-1
-1.00001
-1.00001
-1.00001
-1
-1
-1
-1
-1
-1
-1
-1
-1
-1
-1
-0.999999
-0.999999
-0.999999
-0.999999
-0.999998
-0.999998
-0.999998
-0.999998
-0.999999
-1
-1
-1
-1
-1
-1
-1
-1
-1
-1
-1
-1
-1
-1
-1
-1
-1
-1
-0.999999
-0.999999
-0.999999
-0.999999
-0.999999
-0.999999
-1
-1
-1
-1
-1
-1
-1
-1
-1
-1
-1
-1
-1
-1
-1
-1
-1
-1
-1
-1
-1
-1
-1
-1
-1
-1
-1
-1
-1
-1
-1
-1
-1
-1
-1
-1
-1
-1
-1
-1
-1
-1
-1
-1
-1
-1
-1
-1
-1
-1
-1
-1
-1
-1
-1
-1
-1
-1
-1
-1
-1
-1
-1
-1
-1
-1
-1
-1
-1
-1
-1
-1
-1
-1
-1
-1
-1
-1
-1
-1
-1
-1
-1
-1
-1
-1
-1
-1
-1
-1
-1
-1
-1
-1
-1
-1
-1
-1
-1
-1
-1
-1
-1
-1
-1
-1
-1
-1
-1
-1
-1
-1
-1
-1
-1
-1
-1
-1
-1
-1
-1
-1
-1
-1
-1
-1
-1
-1
-1
-1
-1
-1
-1
-1
-1
-1
-1
-1
-1
-1
-1
-1
-1
-1
-1
-1
-1
-1
-1
-1
-1
-1
-1
-1
-1
-1
-1
-1
-1
-1
-1
-1
-1
-1
-1
-1
-1
-1
-1
-1
-1
-1
-1
-1
-1
-1
-1
-1
-1
-1
-1
-1
-1
-1
-1
-1
-1
-1
-1
-1
-1
-1
-1
-1
-1
-1
-1
-1
-1
-1
-1
-1
-1
-1
-1
-1
-1
-1
-1
-1
-1
-1
-1
-1
-1
-1
-1
-1
-1
-1
-1
-1
-1
-1
-1
-1
-1
-1
-1
-1
-1
-1
-1
-1
-1
-1
-1
-1
-1
-1
-1
-1
-1
-1
-1
-1
-1
-1
-1
-1
-1
-1
-1
-1
-1
-1
-1
-1
-1
-1
-1
-1
-1
-1
-1
-1
-1
-1
-1
-1
-1
-1
-1
-1
-1
-1
-1
-1
-1
-1
-1
-1
-1
-1
-1
-1
-1
-1
-1
-1
-1
-1
-1
-1
-1
-1
-1
-1
-1
-1
-1
-1
-1
-1
-1
-1
-1
-1
-1
-1
-1
-1
-1
-1
-1
-1
-1
-1
-1
-1
-1
-1
-1
-1
-1
-1
-1
-1
-1
-1
-1
-1
-1
-1
-1
-1
-1
-1
-1
-1
-1
-1
-1
-1
-1
-1
-1
-1
-1
-1
-1
-1
-1
-1
-1
-1
-1
-1
-1
-1
-1
-1
-1
-1
-1
-1
-1
-1
-1
-1
-1
-1
-1
-1
-1
-1
-1
-1
-1
-1
-1
-1
-1
-1
-1
-1
-1
-1
-1
-1
-1
-1
-1
-1
-1
-1
-1
-1
-1
-1
-1
-1
-1
-1
-1
-1
-1
-1
-1
-1
-1
-1
-1
-1
-1
-1
-1
-1
-1
-1
-1
-1
-1
-1
-1
-1
-1
-1
-1
-1
-1
-1
-1
-1
-1
-1
-1
-1
-1
-1
-1
-1
-1
-1
-1
-1
-1
-1
-1
-1
-1
-1
-1
-1
-1
-1
-1
-1
-1
-1
-1
-1
-1
-1
-1
-1
-1
-1
-1
-1
-1
-1
-1
-1
-1
-1
-1
-1
-1
-1
-1
-1
-1
-1
-1
-1
-1
-1
-1
-1
-1
-1
-1
-1
-1
-1
-1
-1
-1
-1
-1
-1
-1
-1
-1
-1
-1
-1
-1
-1
-1
-1
-1
-1
-1
-1
-1
-1
-1
-1
-1
-1
-1
-1
-1
-1
-1
-1
-1
-1
-1
-1
-1
-1
-1
-1
-1
-1
-1
-1
-1
-1
-1
-1
-1
-1
-1
-1
-1
-1
-1
-1
-1
-1
-1
-1
-1
-1
-1
-1
-1
-1
1.01305
1.0303
1.00705
0.819674
1.00688
1.01967
1.02395
0.995634
0.981334
0.992081
1.00139
1.00631
0.823667
0.85259
0.882969
0.907447
0.317566
0.392919
0.464464
0.506718
-0.57227
-0.524949
-0.465812
-0.391749
-0.911524
-0.90166
-0.881772
-0.846336
-0.993906
-0.991724
-0.984887
-0.975477
-1.00385
-1.00311
-1.0011
-0.998315
-1.00188
-1.00182
-1.00178
-1.00185
-1.00049
-1.00052
-1.00067
-1.00094
-1.00012
-1.0001
-1.00012
-1.00016
-1.00003
-1.00002
-1.00002
-1.00001
-1.00001
-1.00001
-1
-1
-1
-1
-1
-1
-1
-1
-1
-1
-1
-1
-1
-1
-1
-1
-1
-1
-1
-1
-1
-1
-1
-1
-1
-1
-1
-1
-1
-1
-1
-1
-1
-1
-1
-1
-1
-1
-1
-1
-1
-1
-1
-1
-1
-1
-1
-1
-1
-1
-1
-1
-1
-1
-1
-1
-1
-1
-1
-1
-1
-1
-1
-1
-1
-1
-1
-1
-1
-1
-1
-1
-1
-1
-1
-1
-1
-1
-1
-1
-1
-1
-1
-1
-1
-1
-1
-1
-1
-1.00001
-1
-1
-1.00001
-1.00001
-1
-1.00001
-1.00001
-1.00001
-1
-1.00001
-1.00001
-1.00002
-1.00001
-1.00001
-1.00001
-1.00002
-1.00001
-1.00001
-1.00002
-1.00002
-1.00001
-1.00001
-1.00002
-1.00002
-0.0630508
-0.773226
-0.599352
-0.974887
-1.02694
-1.01442
-1.00432
-1.00248
-0.99925
-0.956675
-0.721874
-0.754277
-0.851374
-0.961792
-0.996309
-1.00006
-1.00242
-0.98816
-0.686583
0.850251
0.204521
0.266333
-0.700332
-0.952484
-0.98777
-0.997954
-1.00019
-0.99291
-0.916183
-0.608446
-0.572028
-0.665193
-0.876491
-0.977387
-0.998424
-1.00484
-0.980763
-0.622903
0.999375
0.909253
0.858993
0.327635
-0.0352381
-0.481901
-0.79368
-0.935929
-0.942973
-0.792276
-0.446312
-0.488995
-0.626198
-0.861028
-0.945102
-0.992624
-1.00195
-0.932455
-0.563949
0.92016
0.923381
0.941994
0.877839
0.710051
0.451736
0.0443662
-0.55217
-0.638373
-0.304011
-0.178905
-0.592616
-0.938398
-0.996843
-0.992214
-0.995139
-0.934434
-0.534762
-0.279794
0.616922
0.697797
0.81527
0.855637
0.815044
0.855292
0.755781
0.321626
0.290156
0.450623
0.39599
-0.319638
-0.868152
-0.940045
-0.968218
-0.960486
-0.780396
-0.279416
-0.191291
-0.0308291
-0.0741659
0.282021
0.343721
0.423088
0.556568
0.621769
0.584404
0.586074
0.620126
0.645633
0.552957
0.280066
-0.0132761
-0.488399
-0.748991
-0.564092
-0.239915
-0.107192
-0.644426
-0.634821
-0.516961
-0.631261
-0.526219
-0.303566
-0.0341015
0.102093
0.308912
0.440838
0.535668
0.562615
0.548627
0.508181
0.148802
-0.0170925
0.15136
0.22553
0.164284
-0.933413
-0.879064
-0.901202
-0.925814
-0.8928
-0.809906
-0.623952
-0.546117
-0.321924
-0.328924
-0.230083
-0.0252261
0.205344
0.379334
0.372282
0.403914
0.330048
-0.230181
-0.104679
-0.994932
-0.988562
-0.990745
-0.995874
-0.984524
-0.960843
-0.907209
-0.839758
-0.804936
-0.787365
-0.804869
-0.685089
-0.299917
0.195165
0.393925
0.427323
0.143305
-0.580467
-0.398107
-1.00264
-1.00226
-1.00143
-1.00262
-1.0013
-0.999555
-0.994305
-0.969121
-0.954305
-0.910448
-0.929999
-0.864003
-0.640784
-0.213948
0.329648
0.391441
0.19763
-0.391641
-0.593116
-1.0014
-1.0014
-1.00115
-1.00115
-1.00112
-1.00181
-1.00243
-0.996215
-0.9761
-0.943891
-0.933027
-0.831013
-0.595177
-0.184412
0.252112
0.281125
0.154325
-0.23261
-0.693283
-1.00023
-1.00026
-1.00024
-1.00021
-1.00017
-1.00033
-1.00083
-0.998764
-0.987826
-0.972091
-0.959445
-0.902292
-0.713967
-0.235789
0.0790368
0.115498
0.0707721
-0.166458
-0.697027
-1
-1
-1
-0.999997
-0.999986
-0.999995
-1.00024
-1.00039
-0.997652
-0.991155
-0.977401
-0.928211
-0.775757
-0.394439
-0.108908
-0.015884
-0.0237738
-0.197406
-0.69513
-0.999998
-0.999994
-0.999994
-0.999993
-0.999993
-0.99999
-1.00003
-1.00021
-0.999405
-0.996387
-0.988991
-0.961103
-0.86649
-0.599656
-0.268308
-0.125585
-0.118242
-0.246532
-0.692889
-1
-0.999999
-0.999999
-0.999999
-1
-1
-0.999991
-0.999945
-0.999505
-0.99814
-0.993529
-0.972698
-0.901025
-0.736257
-0.425732
-0.258001
-0.242696
-0.330198
-0.698601
-1
-1
-1
-1
-1
-1
-1
-0.999949
-0.999593
-0.998109
-0.992158
-0.972491
-0.91902
-0.792267
-0.531061
-0.341067
-0.337327
-0.42176
-0.712107
-1
-1
-1
-1
-1
-1
-1.00001
-0.999982
-0.999777
-0.998811
-0.994588
-0.979222
-0.928629
-0.803224
-0.563403
-0.363374
-0.369923
-0.502314
-0.733919
-1
-1
-1
-1
-1
-1
-1.00001
-1.00001
-0.999932
-0.999251
-0.995387
-0.982364
-0.946392
-0.867956
-0.688486
-0.427895
-0.387994
-0.531658
-0.75629
-1
-1
-1
-1
-0.999999
-0.999999
-1
-1
-0.999959
-0.999481
-0.99711
-0.989789
-0.969434
-0.918505
-0.796269
-0.518233
-0.40855
-0.535145
-0.77445
-1
-1
-1
-1
-0.999999
-0.999997
-0.999995
-0.999997
-0.99997
-0.999724
-0.998816
-0.994323
-0.975294
-0.925887
-0.839486
-0.606622
-0.435853
-0.543633
-0.786797
-1
-1
-1
-1
-0.999998
-0.999991
-0.999973
-0.99998
-0.99998
-0.999943
-0.999538
-0.994954
-0.974623
-0.928601
-0.868223
-0.707312
-0.481998
-0.556257
-0.800687
-1
-1
-1
-0.999999
-0.999994
-0.999981
-0.999945
-0.99994
-0.999957
-0.999943
-0.999377
-0.993849
-0.977259
-0.942514
-0.904403
-0.815574
-0.554529
-0.57518
-0.799591
-1
-1
-1
-0.999998
-0.999993
-0.999976
-0.999934
-0.999871
-0.999876
-0.999847
-0.999218
-0.995696
-0.985072
-0.956044
-0.923183
-0.870435
-0.6363
-0.605278
-0.799901
-1
-1
-1
-0.999998
-0.999991
-0.999974
-0.99993
-0.999833
-0.999697
-0.999564
-0.998888
-0.996333
-0.987715
-0.963734
-0.932609
-0.899192
-0.731658
-0.646925
-0.802037
-1
-1
-1
-1
-0.999993
-0.99997
-0.999928
-0.999842
-0.999613
-0.999209
-0.998054
-0.993271
-0.978914
-0.95357
-0.929634
-0.912993
-0.819085
-0.692337
-0.808377
-1
-1
-1
-1.00001
-1
-0.999976
-0.999915
-0.999819
-0.999592
-0.998968
-0.997102
-0.991288
-0.976272
-0.954415
-0.930724
-0.921738
-0.874793
-0.742332
-0.81728
-1
-1
-1.00001
-1.00001
-1
-0.999963
-0.999854
-0.999711
-0.99947
-0.998796
-0.996688
-0.990992
-0.976077
-0.953202
-0.932397
-0.928168
-0.903221
-0.787907
-0.827486
-1
-1
-1.00001
-1.00002
-1
-0.999953
-0.999812
-0.999575
-0.999191
-0.998087
-0.995256
-0.988366
-0.974067
-0.954979
-0.939118
-0.936294
-0.921344
-0.828066
-0.838533
-1
-1
-1.00001
-1.00002
-1.00002
-0.999981
-0.999809
-0.999406
-0.998768
-0.996453
-0.992598
-0.982025
-0.967903
-0.954813
-0.947876
-0.945617
-0.935793
-0.862035
-0.850202
-1
-1
-1.00001
-1.00002
-1.00002
-0.999985
-0.99976
-0.998966
-0.997717
-0.993875
-0.987927
-0.972356
-0.959862
-0.955956
-0.955475
-0.954508
-0.947998
-0.888786
-0.861563
-1
-1
-1.00001
-1.00001
-1.00001
-0.999975
-0.999751
-0.999085
-0.997529
-0.992964
-0.984645
-0.968635
-0.957631
-0.95893
-0.965028
-0.962804
-0.95804
-0.907237
-0.872258
-1
-1.00001
-1.00001
-1.00001
-1
-0.999995
-0.999876
-0.999174
-0.996692
-0.990199
-0.97803
-0.962491
-0.955554
-0.958366
-0.968962
-0.971861
-0.969766
-0.925447
-0.881977
-1
-1.00001
-1.00001
-1
-0.999982
-0.999966
-0.999857
-0.999005
-0.995403
-0.98717
-0.971868
-0.956921
-0.954593
-0.959119
-0.972843
-0.978606
-0.971808
-0.934145
-0.89196
-1.00001
-1.00001
-1.00001
-0.999991
-0.999944
-0.999899
-0.999788
-0.99918
-0.996485
-0.988114
-0.971079
-0.956637
-0.955659
-0.961855
-0.976419
-0.983094
-0.976674
-0.944751
-0.899706
-1.00001
-1.00001
-1.00001
-0.999981
-0.999917
-0.999842
-0.999698
-0.999273
-0.99769
-0.991823
-0.975674
-0.959235
-0.958793
-0.96646
-0.980792
-0.986544
-0.981432
-0.955586
-0.907059
-1.00001
-1.00001
-1.00001
-0.999964
-0.999866
-0.999777
-0.999607
-0.999167
-0.997609
-0.992652
-0.978892
-0.963017
-0.96242
-0.970051
-0.983653
-0.989788
-0.987882
-0.95724
-0.913461
-1.00002
-1.00001
-0.999987
-0.999918
-0.999815
-0.999712
-0.999509
-0.998736
-0.995908
-0.989146
-0.975553
-0.964243
-0.96539
-0.974253
-0.987209
-0.991763
-0.984533
-0.949494
-0.919887
-1.00002
-1.00001
-0.99997
-0.999871
-0.999715
-0.999608
-0.999413
-0.998499
-0.994828
-0.984934
-0.970698
-0.965408
-0.96811
-0.978393
-0.99029
-0.99336
-0.985573
-0.953006
-0.926901
-1.00002
-1
-0.99994
-0.999813
-0.999635
-0.999519
-0.999353
-0.998344
-0.993931
-0.982452
-0.968974
-0.967149
-0.971325
-0.982648
-0.992624
-0.994544
-0.987399
-0.958778
-0.93367
-1.00002
-0.999995
-0.99991
-0.999739
-0.999555
-0.999459
-0.999402
-0.998704
-0.994777
-0.982009
-0.969268
-0.970309
-0.977618
-0.987921
-0.99454
-0.995624
-0.990398
-0.967194
-0.941114
-1.00002
-0.999984
-0.999852
-0.999698
-0.999533
-0.999435
-0.999528
-0.999374
-0.997476
-0.985589
-0.971554
-0.975709
-0.98628
-0.993668
-0.995976
-0.996418
-0.992594
-0.97407
-0.947055
-1.00002
-0.999981
-0.99982
-0.99967
-0.999501
-0.999418
-0.999544
-0.99963
-0.999263
-0.992952
-0.979624
-0.989631
-0.996451
-0.998367
-0.997753
-0.997666
-0.996051
-0.986278
-0.960246
)
;

boundaryField
{
    leftWall
    {
        type            zeroGradient;
    }
    rightWall
    {
        type            zeroGradient;
    }
    lowerWall
    {
        type            zeroGradient;
    }
    atmosphere
    {
        type            zeroGradient;
    }
    defaultFaces
    {
        type            empty;
    }
}


// ************************************************************************* //
