/*--------------------------------*- C++ -*----------------------------------*\
| =========                 |                                                 |
| \\      /  F ield         | foam-extend: Open Source CFD                    |
|  \\    /   O peration     | Version:     4.1                                |
|   \\  /    A nd           | Web:         http://www.foam-extend.org         |
|    \\/     M anipulation  |                                                 |
\*---------------------------------------------------------------------------*/
FoamFile
{
    version     2.0;
    format      ascii;
    class       volScalarField;
    location    "0.35";
    object      p;
}
// * * * * * * * * * * * * * * * * * * * * * * * * * * * * * * * * * * * * * //

dimensions      [1 -1 -2 0 0 0 0];

internalField   nonuniform List<scalar> 
2268
(
893.838
894.173
894.44
884.184
887.719
870.806
877.168
860.046
867.5
863.47
900.466
938.911
911.24
927.774
941.687
939.465
1010.31
942.381
1029.24
1042.84
1103.67
1122.05
1121.42
834.703
834.974
835.109
825.072
828.473
811.71
816.589
800.738
809.033
795.509
872.171
858.196
847.282
862.212
880.357
880.507
970.057
863.875
968.002
952.523
1050.78
1064.17
1057.01
775.181
775.378
775.529
765.783
768.957
751.159
758.87
739.554
746.693
730.448
803.533
788.798
788.723
801.646
817.605
812.959
889.589
818.801
913.499
933.228
969.425
972.456
1009.58
715.506
715.524
715.074
706.314
708.758
691.66
695.754
676.275
687.684
708.89
716.878
720.801
722.524
737.905
755.686
753.912
807.115
782.72
848.782
846.661
899.622
944.283
933.457
655.336
655.26
654.826
646.455
648.381
629.091
639.516
623.393
609.337
653.412
648.557
655.714
660.216
677.437
688.863
698.781
740.57
736.029
796.047
813.318
815.23
840.23
851.639
595.173
594.751
593.336
585.472
586.333
571.44
566.728
551.406
577.229
577.126
580.986
587.789
595.956
613.417
626.611
639.171
670.851
676.681
706.882
718.495
759.689
764.01
782.86
534.548
533.999
532.69
526.549
526.522
502.898
526.621
479.077
516.816
509.886
514.514
521.647
528.506
551.012
561.352
581.862
591.798
641.339
629.361
719.791
669.704
662.513
697.083
473.947
472.927
470.411
461.025
461.262
455.469
439.459
437.753
446.164
440.673
447.589
453.521
464.308
485.053
497.439
520.597
544.749
559.642
578.827
568.634
652.391
607.388
635.105
410.359
411.795
413.744
411.711
411.002
411.297
411.092
409.966
409.251
410.424
410.529
403.881
400.038
400.622
389.203
387.884
447.34
499.957
864.975
410.065
410.933
412.896
411.296
410.792
411.033
410.693
409.09
408.467
409.221
409.107
401.89
397.983
398.826
398.9
402.297
407.16
474.437
822.791
409.627
408.732
408.722
410.054
410.519
410.639
410.295
407.978
407.529
407.253
407.131
403.082
400.928
400.267
400.877
404.469
407.077
434.914
741.328
409.427
408.523
408.411
409.813
410.447
410.356
409.539
408.105
405.893
403.079
403.239
402.528
401.261
400.899
401.398
402.864
401.843
412.258
615.071
409.803
408.7
403.405
409.91
409.98
410.004
409.861
407.968
405.644
399.177
399.628
403.111
401.474
401.193
401.635
402.315
401.473
400.073
512.958
409.732
409.007
408.394
409.705
410.056
409.676
409.579
407.472
404.364
397.336
395.241
403.471
401.594
401.312
401.738
402.191
401.323
399.573
491.034
409.684
408.845
406.435
409.492
409.909
410.055
409.336
407.548
404.474
397.731
390.488
405.305
401.25
401.323
401.698
401.996
401.377
394.728
489.607
406.546
407.9
407.562
409.462
409.827
410.001
408.931
407.395
404.337
398.844
377.364
403.526
402.093
401.077
401.722
401.876
401.283
394.114
462.764
379.879
379.091
373.474
381.02
373.017
325.859
375.507
327.387
350.83
335.996
345.005
345.419
355.363
393.883
393.081
430.889
441.706
503.524
498.403
534.473
514.696
386.291
348.596
251.879
250.189
248.558
228.182
247.345
224.476
228.774
216.521
213.186
203.374
200.492
206.036
214.468
245.416
249.525
280.344
292.204
306.13
282.656
393.952
370.536
279.293
252.551
142.879
140.336
138.6
131.307
133.617
122.329
122.319
105.033
99.6252
87.7199
83.7932
81.3063
93.176
114.302
119.492
158.254
161.663
177.173
271.855
227.912
270.071
158.407
309.636
50.5383
50.1164
50.3881
46.4847
48.2303
41.7839
39.6463
32.2462
28.3181
22.6085
21.9335
17.963
24.3618
28.7705
34.2255
45.474
64.6762
92.605
103.19
117.701
180.046
20.6637
173.209
15.5936
15.3395
15.432
14.558
15.0425
12.7742
12.3205
9.14524
7.90167
6.51703
6.55263
6.03764
7.86021
7.95383
7.29411
8.68977
15.6866
32.5942
32.3256
51.4734
55.5316
52.6741
47.3527
5.14382
5.01528
5.06682
4.79751
4.89438
4.57095
4.24182
3.68313
3.24036
2.76661
2.63553
2.23825
2.57274
2.60879
3.34979
3.36687
3.93869
5.35004
11.6284
16.0004
18.0611
-15.8875
46.7506
1.87
1.86515
1.83695
1.74329
1.70002
1.55915
1.57861
1.44341
1.30554
1.17384
1.13157
1.18594
1.22114
1.18206
1.0084
0.598684
1.62065
4.36389
4.60996
3.01871
8.75843
9.9765
7.27289
0.816843
0.824181
0.803092
0.768291
0.792848
0.754616
0.749341
0.794552
0.787193
0.859267
0.856651
0.872591
0.816284
0.94445
0.961955
1.03798
0.875159
0.588748
2.18536
2.11043
1.02977
1.51144
1.66604
0.478255
0.473955
0.470069
0.506969
0.461306
0.529272
0.538912
0.57048
0.572433
0.635335
0.570832
0.615779
0.573437
0.576471
0.471947
0.299806
-0.0770781
-0.150908
1.12519
0.866457
1.12102
1.12041
1.25843
0.294442
0.299134
0.307426
0.318475
0.339002
0.36224
0.390363
0.403588
0.441807
0.455625
0.497743
0.516145
0.413996
0.425219
0.310582
0.366198
0.0498266
-0.00071125
0.713375
0.725026
0.663467
0.818829
1.01648
0.1932
0.205404
0.215224
0.221448
0.235834
0.24257
0.270613
0.252793
0.307839
0.303769
0.27558
0.225106
0.368936
0.2336
0.310125
0.101351
0.125129
0.177717
0.379574
0.367899
0.709264
0.745426
0.866084
-0.000587514
0.000813242
0.00407774
0.0161651
0.0358219
0.0504987
0.0789018
0.098757
0.132162
0.0611028
0.187477
0.126874
0.152309
0.127468
0.188178
-0.0120915
0.156381
0.275698
0.157251
0.549891
0.494371
0.604947
0.72731
-0.0849648
-0.0549097
-0.0144713
-0.0363841
-0.0149324
-0.0443443
-0.0269753
-0.00156338
-0.0862255
0.0303117
-0.0294401
0.00194675
0.047911
-0.02001
-0.0316187
0.0957429
0.0408752
0.143336
0.111085
0.23472
0.384624
0.494033
0.572099
-0.284765
-0.338588
-0.333746
-0.316268
-0.299686
-0.221896
-0.231248
-0.302101
-0.209492
-0.238943
-0.177042
-0.157811
-0.184768
-0.197173
-0.0561382
-0.135305
-0.0820302
0.112521
0.0776099
0.22507
0.255324
0.350373
0.436784
-0.451705
-0.446673
-0.440827
-0.429246
-0.409315
-0.447111
-0.484234
-0.321712
-0.465228
-0.276842
-0.38121
-0.270399
-0.387524
-0.230222
-0.313561
-0.2665
-0.192849
-0.184421
-0.0457971
-0.00970581
0.0593849
0.19783
0.277307
-0.669184
-0.647632
-0.629407
-0.632087
-0.603201
-0.597095
-0.543539
-0.569002
-0.551337
-0.552569
-0.520439
-0.499618
-0.493094
-0.446162
-0.518686
-0.311375
-0.338923
-0.195577
-0.187979
-0.100927
-0.0374821
0.0857027
0.120458
-0.7844
-0.847242
-0.823959
-0.795585
-0.784457
-0.774295
-0.754163
-0.721097
-0.740819
-0.644107
-0.713329
-0.597031
-0.72043
-0.549597
-0.59386
-0.497781
-0.543664
-0.474441
-0.395628
-0.283782
-0.222169
-0.120292
-0.0355299
-0.918169
-0.907617
-0.919861
-0.943613
-0.960533
-0.928289
-0.926583
-0.893814
-0.910228
-0.889634
-0.827456
-0.895223
-0.781397
-0.816489
-0.786662
-0.788385
-0.688635
-0.578391
-0.541165
-0.451675
-0.378297
-0.310565
-0.217832
-1.13768
-1.10895
-1.13395
-1.1216
-1.10264
-1.11452
-1.07681
-1.10073
-1.05028
-1.05222
-1.02519
-0.971959
-1.01395
-0.953777
-0.908096
-0.844628
-0.801468
-0.769962
-0.709458
-0.633114
-0.555062
-0.464292
-0.428481
-1.22614
-1.23949
-1.24503
-1.25017
-1.25145
-1.25247
-1.25438
-1.24315
-1.24838
-1.25628
-1.20899
-1.25818
-1.16275
-1.17536
-1.12323
-1.07406
-1.01247
-0.935202
-0.869337
-0.804397
-0.749608
-0.65084
-0.553986
-1.47036
-1.45497
-1.43997
-1.41504
-1.42238
-1.41375
-1.40619
-1.40644
-1.38581
-1.36661
-1.34956
-1.355
-1.33162
-1.29401
-1.24781
-1.19059
-1.14205
-1.10842
-1.04755
-1.01024
-0.915317
-0.794349
-0.765596
-1.52889
-1.53802
-1.51016
-1.57035
-1.51959
-1.56418
-1.5386
-1.56318
-1.54556
-1.58005
-1.52267
-1.53956
-1.49996
-1.51687
-1.45987
-1.44548
-1.3659
-1.29726
-1.19429
-1.15198
-1.12949
-0.969847
-0.929552
-1.80718
-1.81915
-1.79611
-1.80511
-1.76836
-1.78407
-1.72706
-1.73529
-1.69575
-1.67247
-1.65263
-1.64111
-1.64283
-1.60874
-1.5986
-1.49888
-1.49213
-1.46144
-1.41978
-1.30427
-1.26362
-1.16407
-1.11974
-1.93375
-1.94008
-1.93301
-1.95072
-1.93052
-1.946
-1.9265
-1.93525
-1.9144
-1.93504
-1.8726
-1.8978
-1.87032
-1.85908
-1.83531
-1.86675
-1.75348
-1.67049
-1.64093
-1.71732
-1.49894
-1.47163
-1.33256
-2.17198
-2.17268
-2.16308
-2.16273
-2.14601
-2.14196
-2.12566
-2.10996
-2.09323
-2.08655
-2.05175
-2.05348
-2.02008
-2.03823
-1.97798
-1.98886
-1.9269
-1.89524
-1.80026
-1.74097
-1.71527
-1.62525
-1.54412
-2.33788
-2.33939
-2.33532
-2.33796
-2.32999
-2.33011
-2.31999
-2.31795
-2.30322
-2.30204
-2.27866
-2.27576
-2.25872
-2.24235
-2.2432
-2.168
-2.18675
-2.05829
-2.04776
-2.08755
-1.93961
-1.89172
-1.79652
-2.55534
-2.55608
-2.54851
-2.54667
-2.53046
-2.53099
-2.51853
-2.51061
-2.49864
-2.48958
-2.47028
-2.46446
-2.43702
-2.44053
-2.39908
-2.43565
-2.28328
-2.29515
-2.22259
-2.14658
-2.20918
-2.08483
-2.01745
-2.74335
-2.74202
-2.74081
-2.73738
-2.73476
-2.7259
-2.72217
-2.71225
-2.70414
-2.69305
-2.68316
-2.66961
-2.65863
-2.63791
-2.61604
-2.57848
-2.70477
-2.51527
-2.40104
-2.54778
-2.41096
-2.40156
-2.27542
-2.95136
-2.94998
-2.94749
-2.94299
-2.94056
-2.93211
-2.92702
-2.91661
-2.90987
-2.89812
-2.88831
-2.87464
-2.86227
-2.8471
-2.82538
-2.83969
-2.75886
-2.75559
-2.69321
-2.56417
-2.62398
-2.66979
-2.50696
-3.15327
-3.15232
-3.15055
-3.14657
-3.14384
-3.13624
-3.13336
-3.12289
-3.11896
-3.10567
-3.10091
-3.08571
-3.07908
-3.06969
-3.04753
-2.99096
-2.9859
-3.01715
-3.02772
-2.88672
-2.83043
-2.74583
-2.9065
-3.362
-3.36047
-3.35992
-3.35547
-3.35455
-3.34654
-3.34493
-3.3337
-3.33176
-3.31617
-3.31642
-3.29344
-3.29936
-3.26615
-3.27023
-3.16863
-3.23308
-3.21983
-3.13259
-3.06531
-3.07077
-3.10356
-3.02959
-3.56985
-3.56897
-3.56742
-3.56402
-3.56197
-3.55514
-3.55307
-3.54203
-3.54126
-3.5236
-3.52724
-3.4951
-3.51132
-3.45102
-3.5039
-3.48894
-3.50212
-3.44355
-3.46821
-3.35077
-3.29515
-3.24878
-3.43924
-3.78452
-3.78324
-3.78253
-3.77902
-3.77764
-3.77119
-3.7698
-3.75901
-3.75949
-3.74268
-3.74845
-3.72158
-3.74359
-3.68895
-3.69983
-3.65388
-3.57995
-3.58683
-3.65321
-3.67051
-3.56014
-3.39801
-3.53145
-3.99427
-3.9937
-3.9923
-3.99001
-3.98802
-3.98326
-3.98068
-3.9731
-3.97118
-3.95907
-3.96012
-3.93949
-3.94653
-3.92599
-3.89
-3.90958
-3.98953
-3.91755
-4.07323
-3.86667
-4.01987
-3.74227
-3.81785
-4.21638
-4.21571
-4.21469
-4.21177
-4.2095
-4.20462
-4.20067
-4.19432
-4.1884
-4.18086
-4.16678
-4.16455
-4.12348
-4.09818
-4.15769
-4.09158
-4.13758
-4.03031
-3.9964
-3.87686
-4.02629
-4.08695
-3.98698
-4.42423
-4.42385
-4.42323
-4.42113
-4.4207
-4.41637
-4.41563
-4.40964
-4.40939
-4.39828
-4.40582
-4.38677
-4.41485
-4.39317
-4.36601
-4.38506
-4.34327
-4.36541
-4.37504
-4.47211
-4.56281
-4.13313
-4.61123
-4.65966
-4.65842
-4.65841
-4.65511
-4.65461
-4.64971
-4.64739
-4.6413
-4.63588
-4.6312
-4.61319
-4.55782
-4.54833
-4.47176
-4.54067
-4.49307
-4.56585
-4.53095
-4.58445
-4.5844
-4.4805
-4.60502
-4.55975
-4.84708
-4.84632
-4.84763
-4.84497
-4.84827
-4.84348
-4.84983
-4.84515
-4.85194
-4.8224
-4.8592
-4.84596
-4.88412
-4.90171
-4.80455
-4.8129
-4.81906
-4.81383
-4.86093
-4.85656
-4.89197
-4.8297
-4.76204
-5.11902
-5.11792
-5.1191
-5.11528
-5.11804
-5.10948
-5.1155
-5.09541
-5.11033
-5.0869
-5.10092
-5.05781
-5.10353
-5.01681
-5.07478
-4.94336
-5.01427
-5.00565
-5.02246
-5.03906
-5.10443
-5.17162
-5.15273
-5.24425
-5.24375
-5.24555
-5.24383
-5.24785
-5.24482
-5.25183
-5.24743
-5.2589
-5.25132
-5.27347
-5.26849
-5.29917
-5.28892
-5.32201
-5.3033
-5.32921
-5.29113
-5.34386
-5.38016
-5.34202
-5.40052
-5.45877
-5.62231
-5.62251
-5.62499
-5.62377
-5.62798
-5.62597
-5.63327
-5.63048
-5.63868
-5.62913
-5.63543
-5.60161
-5.59677
-5.46072
-5.45546
-5.32388
-5.28439
-5.31669
-5.40483
-5.56839
-5.60753
-5.50733
-5.70043
-5.57415
-5.57417
-5.57428
-5.57429
-5.57566
-5.57518
-5.57775
-5.57728
-5.58396
-5.59424
-5.60508
-5.64636
-5.67381
-5.83021
-5.86276
-6.01174
-6.03898
-6.04116
-6.06295
-5.94434
-5.87885
-6.20894
-5.88623
383.001
156.464
360.231
400.783
301.316
325.813
465.58
360.536
273.656
68.0251
362.5
254.166
166.649
160.656
214.449
284.365
118.971
89.2874
114.196
90.7324
36.6443
21.385
36.6394
25.0932
5.28254
4.45907
6.52036
4.47502
1.73333
2.3688
1.60117
2.55019
1.27171
1.22917
1.17044
1.25949
1.13039
1.16744
1.1501
1.18191
0.896399
0.97874
1.08641
1.11568
0.813029
0.851796
0.905467
0.987437
0.616414
0.676568
0.743754
0.767521
0.480245
0.518938
0.555309
0.604519
0.330641
0.361029
0.390696
0.433604
0.159486
0.204087
0.20573
0.278352
-0.00119138
0.045747
0.0641991
0.117292
-0.156865
-0.118881
-0.081872
-0.0430101
-0.342952
-0.31482
-0.270196
-0.217278
-0.481783
-0.44502
-0.449202
-0.380879
-0.697087
-0.660553
-0.611976
-0.578437
-0.858917
-0.839683
-0.779992
-0.830541
-1.0911
-1.02734
-0.998945
-0.922473
-1.27864
-1.23392
-1.1841
-1.15142
-1.49846
-1.45195
-1.41576
-1.36355
-1.73885
-1.69967
-1.6571
-1.61275
-1.94596
-1.90546
-1.85181
-1.81998
-2.24422
-2.20122
-2.17526
-2.11774
-2.41388
-2.35794
-2.28549
-2.20346
-2.78058
-2.83861
-2.80885
-2.96514
-2.93302
-2.90662
-2.84296
-2.82964
-3.29959
-3.28108
-3.33543
-3.17339
-3.51124
-3.51622
-3.44283
-3.44326
-3.72516
-3.57796
-3.76598
-3.57914
-4.1515
-4.25642
-4.2796
-4.56448
-4.32599
-4.41485
-4.38581
-4.34379
-4.6438
-4.65729
-4.61235
-4.8581
-4.82109
-4.80232
-4.81061
-4.89563
-5.24779
-5.31514
-5.24323
-5.1439
-5.39642
-5.51081
-5.58241
-5.6853
-5.58566
-5.71315
-5.84371
-5.89772
-6.11153
-6.16458
-6.05015
-6.1175
374.738
398.83
394.319
408.366
409.459
409.329
408.634
407.492
403.299
395.71
377.305
410.05
408.931
401.172
401.448
401.701
400.88
397.371
422.267
368.218
342.484
348.812
393.435
406.96
408.306
406.457
402.518
395.166
373.22
323.833
342.716
403.474
398.601
402.123
401.243
401.096
399.504
421.816
254.191
287.684
323.803
265.798
378.746
391.909
391.588
389.911
377.191
353.355
363.212
409.797
383.837
371.518
399.199
398.849
398.249
389.131
231.102
180.545
220.327
372.446
126.668
379.399
369.672
286.758
304.64
331.406
298.187
369.273
393.778
389.61
381.558
391.065
394.846
395.144
408.875
355.338
208.488
-76.4222
205.995
40.3405
428.651
275.606
318.821
170.159
196.957
456.381
56.1502
378.278
391.791
384.498
393.057
395
388.558
451.135
713.007
75.8202
-9.17346
97.9216
-69.4783
158.892
72.5307
39.8552
161.251
282.962
193.6
262.04
353.969
357.98
341.516
384.959
384.258
356.581
402.182
806.03
8.39386
29.7203
-41.6139
52.1581
51.2468
69.0757
183.266
50.1539
44.836
-93.1335
250.435
304.069
246.941
546.305
292.973
327.071
398.336
581.704
952.858
4.94085
2.6485
5.80034
4.21018
4.94116
7.17487
18.4454
18.9215
32.5564
45.3792
-0.98856
166.966
129.597
197.048
388.308
270.944
566.174
502.478
570.827
1.76413
1.92819
1.6348
1.6062
1.69672
3.70152
4.92016
8.75763
10.5066
25.4122
32.0612
57.3981
45.3486
243.648
56.8817
240.741
544.98
526.392
616.056
1.22855
1.31985
1.24313
1.63361
1.55009
2.04795
2.07563
2.79868
6.46643
13.995
24.557
27.1421
4.98631
-57.7606
191.2
411.819
511.807
449.737
556.208
1.19237
1.19694
1.22686
1.42715
1.44183
1.78776
1.86126
1.72382
3.81204
5.70824
13.3527
10.7614
-21.5825
24.3159
205.622
270.438
409.181
452.379
504.303
1.0227
1.0951
1.24013
1.41025
1.4979
1.69884
1.85235
1.81345
2.75361
2.64565
8.63858
11.1033
2.74744
43.9072
162.182
261.595
343.456
412.193
452.903
0.874286
0.919339
1.11648
1.22811
1.31197
1.45913
1.59962
1.79231
1.72223
2.48815
2.20994
9.55358
14.2877
37.662
137.135
200.013
282.183
348.293
377.372
0.64761
0.814975
0.938112
1.06056
1.16165
1.35859
1.47119
1.52309
1.3783
1.55837
1.84511
4.17168
12.7889
36.0968
96.5551
165.212
234.195
295.201
325.465
0.467845
0.589946
0.806379
0.985584
1.06858
1.17302
1.24915
1.33097
1.45837
1.5328
1.73493
3.21402
8.71077
28.2432
67.4679
134.252
185.393
241.12
265.032
0.372288
0.523612
0.647153
0.761027
0.859785
1.04276
1.00047
1.23238
0.973865
1.36434
1.72037
2.02087
10.6287
22.8015
67.2732
105.258
151.804
204.583
222.631
0.140932
0.346202
0.475493
0.623066
0.699557
0.845665
0.933903
0.988952
1.05967
1.19619
0.937772
1.44537
4.98138
14.9838
37.2838
89.0781
125.765
174.514
191.004
0.0334291
0.145622
0.272731
0.362437
0.538842
0.65382
0.709172
0.946597
0.816372
1.04765
1.06251
2.15111
2.11538
14.1254
29.2299
63.313
90.0466
143.44
169.625
-0.137582
-0.0768869
0.102581
0.167702
0.345729
0.447209
0.55334
0.6383
0.800151
0.765957
0.5258
0.90893
5.12246
4.16851
18.8594
27.9552
77.0333
129.252
139.513
-0.305253
-0.171998
-0.042131
0.0206456
0.148114
0.256873
0.38485
0.539088
0.515233
0.901281
0.679032
1.41922
1.05198
4.64702
11.7983
13.6675
75.7297
99.4132
119.596
-0.479616
-0.369253
-0.216982
-0.191199
-0.0439586
-0.062666
0.032688
0.312632
0.392731
0.311846
0.656072
0.605742
1.3205
-1.11249
10.0779
13.3156
24.8545
82.7222
107.631
-0.67353
-0.541504
-0.447733
-0.311119
-0.295737
-0.170949
0.0326371
0.0158644
0.188007
0.507897
0.649986
0.649548
1.55683
4.58023
6.97051
9.9165
12.8591
83.6277
87.4619
-0.880347
-0.673097
-0.622772
-0.572916
-0.446145
-0.524355
-0.354613
-0.110125
0.0163453
0.299023
0.0250153
-0.135731
0.114456
2.00393
6.74131
6.65029
16.7384
47.1752
53.5179
-1.03759
-0.974418
-0.814312
-0.754781
-0.660503
-0.590463
-0.397971
-0.279575
-0.168675
-0.11251
0.174811
0.386291
0.486111
0.645412
9.74489
9.88502
20.9723
36.0596
42.0695
-1.32409
-1.13042
-1.04242
-0.992698
-0.94559
-0.950913
-0.731186
-0.419741
-0.338423
-0.0808527
-0.115945
0.339261
0.161631
3.30237
11.8523
12.0674
18.9045
22.5387
32.0152
-1.54499
-1.40887
-1.36205
-1.21355
-1.12964
-1.05507
-0.912546
-0.843371
-0.743641
-0.732028
-0.0584513
-0.0387589
-1.52549
4.60236
6.00798
13.9083
14.2409
22.8904
24.1032
-1.7077
-1.71662
-1.55451
-1.51378
-1.39266
-1.15482
-1.08706
-0.823511
-0.593516
-0.670389
-0.329238
-0.534361
1.51085
0.144795
4.85438
14.9054
10.0526
18.7049
20.1068
-2.10979
-1.8108
-1.81912
-1.63527
-1.80733
-1.64829
-1.46055
-1.49736
-1.43569
-0.879279
-0.473159
-1.99253
0.77735
6.27749
5.78618
16.2057
8.65916
22.5318
10.5859
-2.12268
-2.30499
-2.03041
-1.98616
-1.87358
-1.75773
-1.64206
-1.30195
-1.34223
-1.20574
-0.615069
-1.71706
6.55461
-1.05581
8.621
13.2048
10.6403
21.3501
7.78933
-2.38438
-2.43546
-2.2612
-2.19163
-2.19811
-2.04636
-2.0722
-2.04492
-2.03751
-0.444668
-3.59546
0.436141
-1.16386
9.42051
5.77811
11.3138
5.30404
15.2852
12.0108
-2.76984
-2.74596
-2.78897
-2.43171
-2.56927
-2.21837
-2.42529
-2.6682
-2.29349
-0.719526
-5.4269
3.36823
2.79079
7.1348
1.5526
8.46855
15.4934
15.9649
17.9872
-3.14887
-3.01677
-2.97829
-2.78832
-2.86987
-2.6116
-2.92991
-2.42048
-2.8702
-1.56265
-6.66028
2.69747
0.239174
3.19854
7.83879
10.1949
0.1678
8.19301
14.4892
-3.36543
-3.37107
-3.28149
-3.32545
-3.36666
-3.11274
-3.03444
-2.90881
-3.91112
-5.30872
0.841634
3.01746
6.96552
-2.19131
0.0890108
1.50582
-1.62217
34.1877
7.05486
-3.57162
-3.45448
-3.61858
-3.15872
-3.52515
-3.91184
-3.94283
-3.10651
-3.85018
-3.15033
-3.85667
3.44648
-7.4481
-0.766551
-1.32955
0.348098
-4.76789
-20.0745
-8.39065
-4.15055
-4.15631
-4.05625
-4.06078
-3.69479
-4.29197
-4.34268
-3.26619
-4.09438
-5.06575
-4.04508
-3.61211
6.29117
-6.05887
-2.959
-0.625262
0.0468419
-0.360577
24.1207
-4.1236
-4.25404
-4.52847
-4.40754
-4.41164
-4.62583
-4.83488
-4.25656
-4.19758
-6.48227
-6.20556
-2.24774
-0.216535
-10.8874
-7.78913
-1.35583
-0.232575
-7.91994
25.2906
-4.64038
-5.00584
-4.5892
-5.11802
-4.74155
-5.18025
-4.93216
-5.01783
-4.6388
-10.6352
-12.0299
0.550248
-2.53315
-10.8926
-7.68019
-3.89929
-5.07581
-6.07432
71.2908
-4.98686
-4.78643
-5.07838
-5.03586
-5.82874
-5.35518
-5.462
-5.59371
-5.46374
-11.1396
-8.9934
-1.2361
-4.39774
-14.2165
-10.7752
-9.9646
-11.949
-33.4806
-92.2297
-5.20407
-5.09773
-5.37936
-5.06813
-5.36158
-6.24864
-5.95666
-5.99021
-9.07917
-11.5645
-11.6895
-4.5143
-7.76891
-15.1794
-11.2079
-13.3123
-13.7903
-21.5954
-56.4771
-5.48934
-5.89396
-6.1899
-6.45671
-6.32752
-6.17394
-6.24157
-6.57734
-7.16243
-13.302
-9.17155
-13.5154
-15.6716
-16.7571
-12.3709
-14.2573
-14.7256
-17.0788
-22.0031
-5.89359
-5.97985
-6.76381
-6.87799
-7.27979
-7.27422
-7.41154
-6.99611
-10.0498
-15.1617
-23.593
-19.0164
-14.8365
-12.9658
-15.6
-14.7743
-16.87
-17.0474
-44.9277
-6.14704
-6.99069
-6.40577
-6.80513
-7.052
-7.11007
-7.54053
-8.56059
-11.442
-16.1389
-34.7939
-21.0982
-12.8328
-11.4486
-12.0858
-16.2877
-22.7822
-42.7252
-94.4606
)
;

boundaryField
{
    leftWall
    {
        type            calculated;
        value           nonuniform List<scalar> 
50
(
893.838
834.703
775.181
715.506
655.336
595.173
534.548
473.947
379.879
251.879
142.879
50.5383
15.5936
5.14382
1.87
0.816843
0.478255
0.294442
0.1932
-0.000587514
-0.0849648
-0.284765
-0.451705
-0.669184
-0.7844
-0.918169
-1.13768
-1.22614
-1.47036
-1.52889
-1.80718
-1.93375
-2.17198
-2.33788
-2.55534
-2.74335
-2.95136
-3.15327
-3.362
-3.56985
-3.78452
-3.99427
-4.21638
-4.42423
-4.65966
-4.84708
-5.11902
-5.24425
-5.62231
-5.57415
)
;
    }
    rightWall
    {
        type            calculated;
        value           nonuniform List<scalar> 
50
(
864.975
822.791
741.328
615.071
512.958
491.034
489.607
462.764
422.267
421.816
231.102
355.338
713.007
806.03
952.858
570.827
616.056
556.208
504.303
452.903
377.372
325.465
265.032
222.631
191.004
169.625
139.513
119.596
107.631
87.4619
53.5179
42.0695
32.0152
24.1032
20.1068
10.5859
7.78933
12.0108
17.9872
14.4892
7.05486
-8.39065
24.1207
25.2906
71.2908
-92.2297
-56.4771
-22.0031
-44.9277
-94.4606
)
;
    }
    lowerWall
    {
        type            calculated;
        value           nonuniform List<scalar> 
62
(
923.267
923.603
923.869
913.614
917.148
900.235
906.598
889.475
896.929
892.899
929.895
968.341
940.67
957.203
971.116
968.894
1039.74
971.811
1058.66
1072.27
1133.09
1151.48
1150.83
1121.42
1057.01
1009.58
933.457
851.639
782.86
697.083
635.105
445.599
219.062
422.828
457.743
410.359
410.065
409.627
409.427
409.803
409.732
409.684
406.546
410.388
411.824
413.905
411.741
411.031
411.327
411.122
409.995
409.28
410.454
410.56
403.94
400.146
400.794
389.442
388.356
448.17
501.084
866.31
)
;
    }
    atmosphere
    {
        type            calculated;
        value           nonuniform List<scalar> 
46
(
-5.796
-5.79712
-5.7985
-5.79839
-5.80138
-5.80095
-5.80651
-5.80568
-5.81403
-5.81621
-5.82806
-5.83696
-5.84867
-5.86738
-5.88527
-5.91338
-5.91393
-5.93868
-5.99364
-6.01645
-5.98768
-6.11115
-6.0342
-6.13633
-6.18645
-6.21329
-6.24902
-6.27034
-6.74534
-6.86909
-7.0936
-7.45139
-7.71583
-7.71456
-7.70784
-8.46177
-24.7885
-63.7814
-36.5761
-16.4969
-10.5523
-12.3988
-12.5914
-17.1925
-45.3478
-120.83
)
;
    }
    defaultFaces
    {
        type            empty;
    }
}


// ************************************************************************* //
