/*--------------------------------*- C++ -*----------------------------------*\
| =========                 |                                                 |
| \\      /  F ield         | foam-extend: Open Source CFD                    |
|  \\    /   O peration     | Version:     4.1                                |
|   \\  /    A nd           | Web:         http://www.foam-extend.org         |
|    \\/     M anipulation  |                                                 |
\*---------------------------------------------------------------------------*/
FoamFile
{
    version     2.0;
    format      ascii;
    class       volScalarField;
    location    "0.35";
    object      pd;
}
// * * * * * * * * * * * * * * * * * * * * * * * * * * * * * * * * * * * * * //

dimensions      [1 -1 -2 0 0 0 0];

internalField   nonuniform List<scalar> 
2268
(
923.267
923.603
923.869
913.614
917.148
900.235
906.598
889.475
896.929
892.899
929.895
968.341
940.67
957.203
971.116
968.894
1039.74
971.811
1058.66
1072.27
1133.09
1151.48
1150.83
922.991
923.262
923.397
913.36
916.761
899.998
904.877
889.026
897.321
883.797
960.459
946.484
935.57
950.5
968.645
968.795
1058.34
952.163
1056.29
1040.81
1139.07
1152.45
1145.23
922.327
922.524
922.676
912.929
916.103
898.306
906.017
886.701
893.84
877.581
950.674
935.945
935.87
948.793
964.751
960.106
1036.74
965.948
1060.65
1080.37
1116.57
1119.6
1156.62
921.511
921.529
921.079
912.319
914.764
897.665
901.76
882.281
893.622
914.787
922.807
926.753
928.493
943.878
961.671
959.917
1013.12
988.725
1054.79
1052.67
1105.63
1150.29
1139.31
920.2
920.119
919.675
911.318
913.227
893.946
904.348
888.102
873.807
917.849
913.075
920.278
924.825
942.051
953.503
963.489
1005.39
1000.89
1060.91
1078.18
1080.09
1105.09
1116.32
918.736
918.26
916.809
908.961
909.749
894.834
890.004
874.284
899.636
899.53
903.565
910.425
918.721
936.219
949.482
962.192
994.12
1000.24
1030.61
1042.22
1083.41
1087.73
1106.37
916.324
915.628
914.228
908.059
907.814
884.032
907.394
858.894
895.875
888.958
893.849
901.013
908.24
930.977
941.559
962.382
972.793
1022.91
1011.47
1102.37
1052.29
1045.1
1079.44
912.771
911.408
908.7
899.078
898.811
892.435
875.582
872.152
879.287
873.664
880.683
886.538
898.379
920.057
933.287
957.1
982.092
997.932
1018.15
1009.11
1093.75
1048.83
1076.33
410.388
411.824
413.905
411.741
411.031
411.327
411.122
409.995
409.28
410.454
410.56
403.94
400.146
400.794
389.442
388.356
448.17
501.084
866.31
410.153
411.05
413.981
411.441
410.88
411.121
410.782
409.178
408.563
409.344
409.252
401.981
398.144
399.048
399.217
403.181
409.171
478.029
828.418
409.775
409.101
411.294
410.425
410.666
410.786
410.442
408.142
407.795
407.783
408.029
403.229
401.076
400.449
401.112
405.168
409.175
440.303
752.973
409.633
408.729
412.372
410.321
410.653
410.562
409.745
408.357
406.424
404.505
406.374
402.734
401.467
401.105
401.621
403.315
403.355
417.946
633.944
410.067
408.965
408.832
410.47
410.245
410.272
410.126
408.285
406.319
401.791
407.61
403.758
401.739
401.458
401.9
402.602
402.299
405.38
540.502
410.056
409.331
418.709
410.368
410.38
410.043
409.903
407.827
405.057
401.206
411.757
406.537
401.918
401.635
402.062
402.515
401.7
404.783
528.972
410.067
409.227
426.081
410.118
410.292
410.438
409.718
407.93
405.058
402.737
419.834
415.569
403.388
401.706
402.081
402.379
401.76
399.711
539.413
444.734
410.558
448.126
410.553
410.269
410.442
409.372
407.837
404.867
405.639
422.457
429.184
412.068
402.843
402.163
402.317
401.724
398.277
525.54
903.803
902.061
895.982
902.253
893.085
843.561
891.323
839.7
860.143
844.085
851.547
851.581
865.439
907.955
910.806
950.533
963.214
1026.53
1023.52
1062.69
1046.1
919.393
882.063
868.298
863.507
860.763
833.135
851.04
820.477
820.215
797.411
782.762
763.205
748.097
753.049
777.403
827.36
851.611
892.77
910.903
926.518
908.03
1030.57
1018.51
932.78
909.657
757.617
747.694
744.268
717.369
718.659
689.232
672.916
620.201
577.116
522.648
479.867
476.842
528.843
604.632
681.471
773.44
809.132
833.433
943.703
931.098
1003.47
908.005
1077.45
435.621
427.501
427.746
402.713
404.259
375.296
347.546
293.82
248.297
201.182
177.541
169.151
201.269
240.582
301.225
400.892
529.142
607.122
669.358
758.939
896.695
767.514
971.097
159.305
157.072
158.69
151.531
154.142
141.579
127.151
100.214
80.0927
62.23
55.5747
51.6778
67.8089
75.997
87.4565
124.232
203.105
269.423
336.465
441.11
549.008
607.951
667.53
55.2454
54.7311
55.6238
54.3808
55.8745
52.0163
46.0574
35.9412
28.1887
21.6768
18.9436
15.5694
20.3422
21.0609
23.0339
31.6758
60.8049
103.886
167.377
227.555
334.545
248.58
264.125
20.1955
20.0416
20.1684
19.8699
20.2289
18.8632
17.032
13.4683
10.5071
8.07593
6.74487
5.22556
6.64793
6.95788
8.24141
13.2272
31.4536
59.0208
81.2258
89.5287
142.279
97.3776
65.1353
7.69967
7.63796
7.50314
7.26692
7.26228
6.76161
6.2998
5.37111
4.34751
3.54365
2.9305
2.54505
3.18789
3.69474
4.57664
6.87554
13.0366
27.0667
36.7244
25.5735
37.1914
23.3176
8.55832
3.31127
3.29407
3.15749
3.05591
2.90471
2.83262
2.79131
2.66155
2.31668
2.17036
2.10585
2.1508
2.10846
2.1895
2.36921
3.28601
6.28683
16.639
18.0431
8.08527
7.13144
4.41069
2.79345
1.96213
1.96676
1.96764
1.97869
1.99922
2.02246
2.05058
2.06381
2.10202
2.11584
2.15796
2.17636
2.07421
2.08544
1.9708
2.02642
3.35482
7.67814
7.68943
3.09758
2.32368
2.47905
2.6767
1.97861
1.99082
2.00064
2.00686
2.02125
2.02798
2.05602
2.03821
2.09325
2.08918
2.06099
2.01052
2.15435
2.01901
2.09554
1.88676
1.91054
2.41844
2.34613
2.15331
2.49468
2.53084
2.6515
1.91002
1.91142
1.91468
1.92677
1.94643
1.96111
1.98951
2.00936
2.04277
1.97171
2.09808
2.03748
2.06292
2.03807
2.09878
1.89852
2.06699
2.1863
2.06786
2.4605
2.40498
2.51555
2.63792
1.95084
1.98089
2.02133
1.99942
2.02087
1.99146
2.00883
2.03424
1.94958
2.06611
2.00636
2.03775
2.08371
2.01579
2.00418
2.13154
2.07668
2.17914
2.14689
2.27052
2.42043
2.52983
2.6079
1.87623
1.82241
1.82725
1.84473
1.86131
1.94339
1.93379
1.85889
1.9515
1.92205
1.98395
2.00319
1.97623
1.96382
2.10486
2.02569
2.07897
2.27352
2.23861
2.38607
2.41632
2.51137
2.59778
1.83582
1.83957
1.84667
1.85731
1.87894
1.84504
1.80955
1.96926
1.82096
2.00935
1.90498
2.01579
1.89867
2.05597
1.97263
2.01969
2.09334
2.10177
2.24039
2.27648
2.34558
2.48402
2.5635
1.74438
1.76527
1.78403
1.78143
1.81079
1.81738
1.87237
1.84876
1.86613
1.86275
1.89166
1.91177
1.91829
1.96522
1.8927
2.10001
2.07246
2.21581
2.22341
2.31067
2.37434
2.49739
2.53207
1.75262
1.68965
1.71313
1.74176
1.753
1.76328
1.78397
1.81818
1.79892
1.8953
1.82558
1.94072
1.81615
1.98698
1.94272
2.03895
1.99333
2.06235
2.14115
2.25298
2.31456
2.41641
2.50116
1.74361
1.75416
1.74194
1.71829
1.70139
1.73367
1.73552
1.76866
1.7524
1.77292
1.83509
1.76735
1.88104
1.84579
1.87546
1.87363
1.9733
2.08347
2.12066
2.21013
2.2835
2.35123
2.44396
1.64929
1.67802
1.65302
1.66537
1.68433
1.67245
1.71017
1.68632
1.7368
1.73484
1.76191
1.81525
1.77329
1.83338
1.87895
1.94238
1.98552
2.01702
2.07752
2.15386
2.23191
2.32268
2.35849
1.68602
1.67268
1.66713
1.66199
1.66072
1.65969
1.65778
1.66901
1.66378
1.65588
1.70318
1.65402
1.74947
1.73683
1.78894
1.8381
1.8997
1.97696
2.04283
2.10777
2.16256
2.26132
2.35818
1.567
1.58239
1.59739
1.62232
1.61498
1.62361
1.63117
1.63092
1.65155
1.67074
1.6878
1.68236
1.70574
1.74335
1.78955
1.84677
1.89531
1.92894
1.98981
2.02712
2.12204
2.24301
2.27176
1.63366
1.62453
1.65239
1.59221
1.64296
1.59837
1.62395
1.59937
1.61699
1.5825
1.63989
1.62299
1.66259
1.64568
1.70268
1.71707
1.79665
1.86529
1.96826
2.01057
2.03306
2.19271
2.233
1.48056
1.4686
1.49164
1.48264
1.51939
1.50368
1.56068
1.55246
1.59199
1.61528
1.63512
1.64664
1.64492
1.679
1.68915
1.78886
1.79562
1.82631
1.86797
1.98348
2.02413
2.12368
2.16802
1.47919
1.47287
1.47993
1.46222
1.48242
1.46694
1.48644
1.47769
1.49854
1.4779
1.54034
1.51514
1.54262
1.55386
1.57763
1.54619
1.65946
1.74245
1.77201
1.69562
1.914
1.94131
2.08039
1.36616
1.36546
1.37506
1.3754
1.39213
1.39617
1.41247
1.42818
1.44491
1.45159
1.48638
1.48466
1.51805
1.49991
1.56016
1.54927
1.61123
1.6429
1.73788
1.79716
1.82287
1.91289
1.99403
1.32545
1.32394
1.32801
1.32537
1.33334
1.33322
1.34334
1.34538
1.36011
1.36129
1.38467
1.38757
1.40461
1.42098
1.42013
1.49533
1.47658
1.60504
1.61557
1.57578
1.72372
1.77161
1.86682
1.23319
1.23244
1.24002
1.24186
1.25807
1.25753
1.27
1.27791
1.28988
1.29895
1.31825
1.32407
1.3515
1.34799
1.38944
1.35288
1.50524
1.49337
1.56594
1.64195
1.57934
1.70369
1.77108
1.17037
1.17169
1.17291
1.17634
1.17896
1.18782
1.19155
1.20147
1.20957
1.22067
1.23056
1.2441
1.25509
1.27581
1.29768
1.33524
1.20895
1.39845
1.51268
1.36594
1.50275
1.51216
1.63831
1.08755
1.08894
1.09142
1.09592
1.09835
1.1068
1.11189
1.1223
1.12904
1.1408
1.15061
1.16427
1.17665
1.19181
1.21354
1.19923
1.28005
1.28332
1.3457
1.47474
1.41493
1.36912
1.53196
1.01084
1.01179
1.01356
1.01754
1.02026
1.02787
1.03075
1.04122
1.04515
1.05844
1.0632
1.0784
1.08503
1.09442
1.11657
1.17315
1.17821
1.14696
1.13639
1.27739
1.33368
1.41828
1.25762
0.927307
0.928828
0.929385
0.933835
0.934756
0.942768
0.944377
0.955605
0.957542
0.973137
0.972887
0.995862
0.989944
1.02315
1.01907
1.12068
1.05622
1.06947
1.15672
1.22399
1.21854
1.18576
1.25975
0.84465
0.845532
0.847075
0.850482
0.852532
0.859354
0.861423
0.872468
0.873238
0.8909
0.887256
0.919395
0.903179
0.963482
0.9106
0.925557
0.912374
0.970951
0.946283
1.06373
1.11935
1.16576
0.975332
0.755175
0.756448
0.757161
0.760668
0.762056
0.768504
0.769895
0.780677
0.780198
0.797011
0.791239
0.818109
0.796099
0.850743
0.83986
0.885813
0.959745
0.952857
0.886479
0.86918
0.979577
1.14179
1.00836
0.670615
0.67119
0.672583
0.674872
0.676871
0.681622
0.684202
0.691787
0.693706
0.705819
0.704762
0.725395
0.718354
0.738893
0.774885
0.755308
0.675359
0.747337
0.591659
0.798215
0.645058
0.922785
0.847137
0.573706
0.574373
0.575396
0.578316
0.580578
0.585464
0.589409
0.595759
0.601681
0.60922
0.623302
0.625536
0.666605
0.6919
0.632394
0.698503
0.652505
0.759768
0.793679
0.913223
0.763856
0.703371
0.803098
0.491049
0.491427
0.492047
0.494146
0.494573
0.498909
0.499645
0.505637
0.505886
0.516994
0.509454
0.528507
0.500426
0.522102
0.549263
0.530221
0.572003
0.549865
0.540233
0.44317
0.352551
0.782476
0.304047
0.380809
0.382052
0.382063
0.385355
0.385856
0.390759
0.393083
0.399172
0.404589
0.409266
0.42728
0.48265
0.492136
0.568706
0.499799
0.547404
0.474617
0.509517
0.456021
0.456071
0.560085
0.435837
0.480721
0.318587
0.319342
0.318032
0.32069
0.317392
0.322181
0.315837
0.320511
0.313729
0.343263
0.306461
0.319703
0.281545
0.263959
0.361113
0.352767
0.346608
0.351836
0.304739
0.30911
0.27385
0.336383
0.403621
0.171839
0.172941
0.171754
0.175578
0.172816
0.181374
0.175355
0.195453
0.180531
0.203962
0.189941
0.23305
0.187326
0.274051
0.216083
0.3475
0.276585
0.285204
0.268399
0.251805
0.186614
0.11967
0.138134
0.171807
0.172301
0.170505
0.172228
0.168203
0.171236
0.16422
0.168628
0.157152
0.164736
0.142583
0.147567
0.116881
0.127137
0.0940446
0.112755
0.086845
0.124919
0.0721905
0.0359053
0.0742482
0.0159459
-0.042712
-0.0810665
-0.0812664
-0.0837448
-0.082526
-0.086731
-0.0847256
-0.0920262
-0.0892299
-0.0974349
-0.0878862
-0.0941787
-0.0603629
-0.0555172
0.0805329
0.0857856
0.217363
0.256863
0.224558
0.136417
-0.0271306
-0.0660575
0.0343708
-0.159179
0.0922885
0.092277
0.0921674
0.092155
0.0907795
0.0912628
0.0886929
0.0891629
0.0824811
0.0721996
0.0613588
0.0200855
-0.00736706
-0.163765
-0.19632
-0.345296
-0.372538
-0.374714
-0.39651
-0.277885
-0.212187
-0.542035
-0.219792
916.468
689.931
893.698
886.211
959.978
984.475
1124.24
1017.78
1050.22
848.801
1146.36
1038.02
995.988
1003.06
1070.58
1151.57
802.225
811.308
872.973
871.19
287.427
299.806
349.257
380.385
64.1885
69.6943
84.452
105.036
7.70067
9.83942
13.822
21.3599
2.80674
2.76419
2.70547
4.12311
2.79061
2.82766
2.81032
2.84212
2.68181
2.76415
2.87182
2.90109
2.72364
2.7624
2.81607
2.89804
2.65222
2.71237
2.77956
2.80332
2.64124
2.67993
2.7163
2.76552
2.61683
2.64722
2.67689
2.71979
2.57107
2.61566
2.61727
2.68984
2.53549
2.58242
2.60087
2.65395
2.50493
2.54291
2.57992
2.61878
2.44402
2.47215
2.51678
2.5697
2.43038
2.46715
2.46297
2.53129
2.34028
2.37682
2.4254
2.45892
2.30364
2.32289
2.38258
2.33202
2.19667
2.26043
2.28883
2.36528
2.13433
2.17907
2.22889
2.26154
2.03971
2.08624
2.12244
2.17464
1.92452
1.96374
2.00635
2.05065
1.84261
1.88317
1.93687
1.96868
1.66954
1.7126
1.73865
1.79618
1.62507
1.68107
1.75363
1.83567
1.38357
1.32561
1.35549
1.19925
1.35638
1.38288
1.44664
1.45985
1.11504
1.13364
1.07935
1.24117
1.02861
1.02366
1.09686
1.09643
0.939728
1.08693
0.898907
1.08575
0.638585
0.533663
0.510486
0.225604
0.589288
0.500423
0.529464
0.57149
0.39667
0.383182
0.428122
0.182366
0.344579
0.363342
0.355059
0.270032
0.0430697
-0.0242799
0.0476255
0.146955
0.0196306
-0.0947545
-0.166361
-0.269247
-0.0444158
-0.171904
-0.302458
-0.356469
-0.445086
-0.498137
-0.383707
-0.451057
625.311
459.549
501.03
415.575
409.992
409.862
409.167
408.025
403.97
407.196
451.153
477.26
450.975
412.88
403.129
402.234
401.414
401.129
507.373
977.597
738.347
764.699
492.285
423.343
413.038
407.722
403.176
397.875
399.633
450.64
484.459
516.173
441.905
410.864
402.502
401.755
406.587
547.682
1037.82
1035.67
1051.91
785.537
757.064
595.659
472.51
415
399.184
431.944
578.332
611.134
531.811
427.419
422.176
402.718
399.033
416.624
403.905
1053.54
1094.6
1254.98
979.94
1156.55
1029.55
759.954
504.782
491.45
607.43
742.794
584.787
419.79
384.089
395.606
397.951
425.97
622.362
685.156
1045.62
802.164
1144.88
999.773
1367.74
1234.83
1226.3
849.049
857.19
1200.97
778.209
739.907
463.521
417.09
410.921
416.068
502.878
824.178
1133.82
639.687
528.941
841.837
710.417
984.935
975.687
981.048
1079.47
1202.3
1130.79
1215.63
1256.27
1104.58
920.767
690.082
529.488
608.543
842.637
1327.26
238.42
265.723
269.685
290.31
357.273
518.141
805.34
760.065
885.553
831.34
1235.88
1308.01
1241.73
1516.63
1035.97
953.13
1135.84
1366.95
1703.14
53.4704
89.4267
76.9103
58.012
82.1405
142.905
284.957
340.836
512.797
518.953
540.756
851.795
977.571
1170.42
1355.32
1258.82
1506.31
1051.28
1206.06
7.30651
12.3006
10.2856
6.3044
15.1705
35.4981
77.8811
133.683
162.451
189.997
183.181
299.102
580.02
1159.39
1124.62
1336.28
1428.64
854.019
1083.75
2.88877
2.98006
2.90335
3.29383
3.21031
4.14281
8.5363
30.379
46.4577
90.2044
84.4945
141.308
301.392
589.494
1291.97
1568.2
1511.58
961.079
900.289
2.97778
2.98235
3.01227
3.21257
3.22724
3.57317
3.64667
7.09945
27.3819
57.9392
75.1322
163.253
340.087
749.901
1323.63
1417.99
1444.99
1142.18
783.426
2.93331
3.0057
3.15074
3.32085
3.40851
3.60945
3.76295
5.05515
16.674
31.5847
49.6422
106.807
278.886
776.435
1197.81
1331.78
1370.86
1212.93
747.048
2.91009
2.95514
3.15228
3.26639
3.36161
3.49791
3.63542
3.82811
6.29267
13.7528
27.5322
85.2755
245.97
658.657
1047.89
1204.88
1279.48
1169.95
692.283
2.81073
2.98246
3.1055
3.22898
3.33023
3.53067
3.63219
3.68409
4.20246
7.66036
15.9093
48.4687
159.479
470.755
889.052
1112.52
1190.52
1114.49
662.115
2.75404
2.87697
3.09332
3.27314
3.35477
3.45921
3.54573
3.67564
4.30628
5.93349
11.4094
36.8123
124.523
332.281
725.855
985.014
1055.28
1012.78
614.752
2.78367
2.935
3.05854
3.17241
3.27117
3.45414
3.41186
3.70453
3.8721
6.04231
13.5419
37.4114
110.114
274.278
632.816
901.284
954.14
907.927
575.286
2.67756
2.88279
3.01207
3.15965
3.23614
3.38224
3.47048
3.54912
3.87772
5.22859
10.2664
30.0716
97.1471
264.535
589.742
897.37
927.476
811.601
534.32
2.69522
2.8074
2.9345
3.02421
3.20076
3.31559
3.37095
3.60837
3.5682
4.69794
9.78934
27.903
74.8587
189.655
441.886
824.386
906.765
771.362
499.939
2.64939
2.71008
2.88955
2.95467
3.13362
3.23494
3.34031
3.42527
3.64329
4.26402
7.2631
17.6254
49.6561
118.53
301.878
698.113
903.198
780.971
459.699
2.60691
2.74017
2.87003
2.93281
3.06135
3.17302
3.3041
3.4552
3.47016
4.20837
5.28705
12.4946
39.6105
114.431
246.528
586.005
899.455
767.662
435.724
2.55774
2.6681
2.82038
2.8465
2.99712
2.98788
3.10983
3.38061
3.46061
3.43519
4.38767
11.2579
42.6989
109.673
212.44
459.357
814.616
760.557
415.577
2.48902
2.62105
2.71482
2.85321
2.87641
3.02196
3.28087
3.27216
3.4179
3.75951
4.79357
13.5181
40.4681
97.9888
160.588
304.003
721.087
759.894
409.382
2.4074
2.61465
2.66524
2.71738
2.85363
2.80283
3.04048
3.38698
3.50358
3.83069
4.57589
10.1179
27.5991
76.7952
135.592
222.697
619.53
701.63
387.715
2.37535
2.43852
2.59901
2.66176
2.76675
2.86639
3.13325
3.41535
3.75237
4.023
5.44077
9.92254
24.4869
65.1777
127.377
185.28
485.141
645.408
385.514
2.21405
2.40772
2.49572
2.54565
2.60515
2.63987
2.93217
3.39483
3.87459
4.82463
6.77822
15.5094
40.2972
87.8438
139.042
169.425
344.695
574.511
377.029
2.11834
2.25446
2.30128
2.44978
2.53377
2.6514
2.90449
3.14721
3.65604
4.78744
8.80867
19.2562
44.7773
90.6847
135.773
160.751
248.587
502.948
365.135
2.08082
2.07191
2.23402
2.27474
2.39587
2.70154
2.97302
3.50421
4.18144
5.35802
9.61492
19.9842
49.8451
91.7418
136.172
154.726
198.07
428.42
353.522
1.80393
2.10292
2.0946
2.27845
2.10639
2.35448
2.81257
3.23004
4.03044
6.71159
12.5598
24.2742
54.6215
97.5725
128.656
144.95
167.28
366.739
333.423
1.91623
1.73393
2.0085
2.05275
2.16533
2.31802
2.77343
3.91201
5.1313
9.84024
18.1141
38.1496
74.6615
93.7111
117.855
127.397
145.118
307.297
317.384
1.77973
1.72865
1.9029
1.97248
1.96599
2.14599
2.57732
4.21544
6.74932
16.115
25.1782
61.3308
85.9685
105.113
102.764
110.711
118.542
253.678
307.347
1.51946
1.54335
1.50033
1.85759
1.72003
2.12145
2.38008
3.51947
7.12538
18.2087
30.9974
73.8645
97.5188
99.5078
81.2537
93.1928
110.554
221.385
299.033
1.26563
1.39773
1.43621
1.62617
1.54463
1.81329
1.7489
3.7528
8.59755
23.8221
45.0234
88.6923
102.408
99.5288
81.3265
77.4363
72.0463
178.785
282.063
1.17426
1.16862
1.2582
1.21424
1.21312
1.5038
1.8179
3.80827
10.7027
27.4248
67.6477
104.417
114.371
95.3749
66.9931
55.2624
67.6159
189.589
259.323
1.09326
1.2104
1.04631
1.52723
1.26739
0.984195
1.20209
3.40564
8.74762
28.4069
66.7801
108.552
100.554
93.4283
59.2039
45.0256
54.9632
114.573
232.606
0.639534
0.633773
0.733828
0.774207
1.29062
0.869513
1.15059
3.20493
6.02115
18.6454
57.5899
98.1753
109.85
79.8988
48.7649
36.9486
49.9175
111.817
253.841
0.791679
0.661231
0.386803
0.595245
0.829561
0.830889
1.02485
2.63668
6.35239
15.7762
49.1127
92.8818
97.1586
68.5213
38.2541
29.2121
34.9331
103.067
245.208
0.400088
0.0346284
0.483673
0.127548
0.76039
0.581164
1.32487
3.09757
10.2967
20.743
52.956
95.23
89.9431
60.0429
30.5082
22.3929
39.4043
127.571
280.535
0.1788
0.379236
0.1645
0.460745
0.0659838
0.815784
1.19801
3.33244
12.58
31.6637
70.4535
93.1283
83.507
47.8856
20.2547
12.7816
30.8579
94.3501
103.993
0.0867937
0.193133
0.0696298
0.712632
0.889405
0.309758
1.02766
3.55111
11.6655
38.6662
74.7236
87.7101
74.1135
37.2513
14.2464
6.76763
25.1839
93.9274
126.417
-0.0732889
-0.463794
-0.531235
-0.336223
0.289938
0.703534
0.783324
2.23944
11.8044
39.2843
78.8253
72.7087
51.5942
22.5276
8.40356
3.30422
17.0379
78.3352
144.949
-0.352338
-0.394134
-0.813792
-0.502806
-0.447296
-0.170144
-0.563717
0.23301
2.10228
28.7147
60.2177
54.7572
30.2375
10.8396
1.52307
0.924374
9.46146
61.234
109.17
-0.480596
-1.27117
-0.229771
-0.205958
0.0250713
0.200518
-0.578672
-1.85108
-3.76988
8.37878
28.2906
15.0782
3.48391
-1.01381
0.177599
-3.83385
-5.77746
2.12711
25.0495
)
;

boundaryField
{
    leftWall
    {
        type            zeroGradient;
    }
    rightWall
    {
        type            zeroGradient;
    }
    lowerWall
    {
        type            zeroGradient;
    }
    atmosphere
    {
        type            totalPressure;
        rho             rho;
        psi             none;
        gamma           1;
        p0              uniform 0;
        value           nonuniform List<scalar> 
46
(
-0.0669643
-0.0680832
-0.0694568
-0.0693459
-0.0723364
-0.0719075
-0.0774701
-0.0766359
-0.0849897
-0.0871748
-0.0990248
-0.107925
-0.119635
-0.138341
-0.156233
-0.18434
-0.184893
-0.209643
-0.264599
-0.287397
-0.258414
-0.381645
-0.305157
-0.407288
-0.457409
-0.484252
-0.519977
-0.541303
-0.962632
-0.624862
-0.421528
-0.296137
-0.324491
-0.675794
-0.924215
-0.704933
0
0
0
0
-0.00224226
0
0
0
0
0
)
;
    }
    defaultFaces
    {
        type            empty;
    }
}


// ************************************************************************* //
