/*--------------------------------*- C++ -*----------------------------------*\
| =========                 |                                                 |
| \\      /  F ield         | foam-extend: Open Source CFD                    |
|  \\    /   O peration     | Version:     4.1                                |
|   \\  /    A nd           | Web:         http://www.foam-extend.org         |
|    \\/     M anipulation  |                                                 |
\*---------------------------------------------------------------------------*/
FoamFile
{
    version     2.0;
    format      ascii;
    class       surfaceScalarField;
    location    "0.35";
    object      phi;
}
// * * * * * * * * * * * * * * * * * * * * * * * * * * * * * * * * * * * * * //

dimensions      [0 3 -1 0 0 0 0];

internalField   nonuniform List<scalar> 
4432
(
3.40899e-06
-3.40899e-06
6.58578e-06
-3.17679e-06
1.05738e-05
-3.98797e-06
1.38226e-05
-3.24887e-06
1.72314e-05
-3.4088e-06
2.02523e-05
-3.02084e-06
2.38641e-05
-3.6118e-06
2.75511e-05
-3.68705e-06
2.98262e-05
-2.27511e-06
2.67681e-05
3.0581e-06
4.70703e-05
-2.03022e-05
5.08578e-05
-3.78747e-06
5.32554e-05
-2.39762e-06
5.3966e-05
-7.1064e-07
5.29556e-05
1.01046e-06
5.14301e-05
1.52544e-06
5.45413e-05
-3.1112e-06
4.95159e-05
5.02543e-06
4.4511e-05
5.00491e-06
3.46865e-05
9.82451e-06
2.67062e-05
7.98027e-06
1.44596e-05
1.22466e-05
1.44596e-05
3.43619e-06
-6.84518e-06
6.61237e-06
-6.35297e-06
1.06169e-05
-7.99253e-06
1.36953e-05
-6.3273e-06
1.73328e-05
-7.04623e-06
2.10075e-05
-6.69553e-06
2.44821e-05
-7.08646e-06
2.82025e-05
-7.40738e-06
2.98105e-05
-3.88315e-06
5.11362e-05
-1.82676e-05
4.98928e-05
-1.90588e-05
5.40355e-05
-7.9301e-06
5.60199e-05
-4.38205e-06
5.62395e-05
-9.3025e-07
5.38796e-05
3.37034e-06
5.13827e-05
4.02237e-06
3.02858e-05
1.79857e-05
2.91602e-05
6.15104e-06
2.54506e-05
8.71454e-06
3.43472e-05
9.27925e-07
2.5786e-05
1.65414e-05
1.61955e-05
2.18371e-05
3.06551e-05
3.34319e-06
-1.01884e-05
6.53911e-06
-9.54889e-06
1.05328e-05
-1.19862e-05
1.36368e-05
-9.43136e-06
1.79426e-05
-1.1352e-05
2.13121e-05
-1.0065e-05
2.43159e-05
-1.00903e-05
2.87449e-05
-1.18363e-05
2.91019e-05
-4.24015e-06
4.71406e-05
-3.63064e-05
4.6855e-05
-1.87732e-05
5.06045e-05
-1.16795e-05
5.20027e-05
-5.78022e-06
5.27108e-05
-1.63834e-06
5.17453e-05
4.33579e-06
4.99424e-05
5.8253e-06
5.37981e-05
1.41299e-05
5.00284e-05
9.92078e-06
4.38024e-05
1.49406e-05
3.72339e-05
7.49634e-06
3.08604e-05
2.2915e-05
1.43429e-05
3.83546e-05
4.4998e-05
3.27012e-06
-1.34585e-05
6.69262e-06
-1.29714e-05
1.06028e-05
-1.58963e-05
1.39097e-05
-1.27383e-05
1.84598e-05
-1.5902e-05
2.14322e-05
-1.30375e-05
2.54414e-05
-1.40995e-05
2.68384e-05
-1.32333e-05
4.58196e-05
-2.32214e-05
4.19917e-05
-3.24784e-05
4.25185e-05
-1.93e-05
4.45237e-05
-1.36848e-05
4.50268e-05
-6.28326e-06
4.53645e-05
-1.97603e-06
4.5787e-05
3.91327e-06
4.5099e-05
6.51333e-06
4.6872e-05
1.23569e-05
4.48874e-05
1.19053e-05
4.21848e-05
1.76432e-05
3.44842e-05
1.51969e-05
2.72605e-05
3.01387e-05
1.48439e-05
5.07711e-05
5.98419e-05
3.04172e-06
-1.65002e-05
6.70039e-06
-1.66301e-05
1.06674e-05
-1.98633e-05
1.4002e-05
-1.60729e-05
1.81387e-05
-2.00387e-05
2.08323e-05
-1.57311e-05
2.52203e-05
-1.84875e-05
2.55981e-05
-1.36111e-05
4.08011e-05
-3.84244e-05
3.79287e-05
-2.96061e-05
3.90588e-05
-2.04301e-05
4.11607e-05
-1.57867e-05
4.18024e-05
-6.925e-06
4.24193e-05
-2.59296e-06
4.22687e-05
4.06391e-06
4.08747e-05
7.90734e-06
4.02829e-05
1.29487e-05
3.64004e-05
1.57878e-05
3.5542e-05
1.85016e-05
3.50892e-05
1.56497e-05
2.9581e-05
3.56469e-05
1.45726e-05
6.57796e-05
7.44145e-05
3.00165e-06
-1.95018e-05
6.92523e-06
-2.05537e-05
1.08159e-05
-2.3754e-05
1.36714e-05
-1.89285e-05
1.74473e-05
-2.38146e-05
2.15738e-05
-1.98576e-05
2.24808e-05
-1.93945e-05
3.71225e-05
-2.82528e-05
3.54747e-05
-3.67766e-05
3.66703e-05
-3.08017e-05
3.80399e-05
-2.17996e-05
4.02587e-05
-1.80055e-05
4.09026e-05
-7.56892e-06
4.18039e-05
-3.49425e-06
4.20666e-05
3.80121e-06
4.1036e-05
8.93791e-06
4.07863e-05
1.31985e-05
3.87542e-05
1.78199e-05
3.64942e-05
2.07617e-05
1.76217e-05
3.45221e-05
3.04156e-05
2.2853e-05
1.44046e-05
8.17905e-05
8.88191e-05
2.99897e-06
-2.25008e-05
6.82186e-06
-2.43765e-05
1.0236e-05
-2.71681e-05
1.32607e-05
-2.19531e-05
1.71899e-05
-2.77438e-05
1.92353e-05
-2.1903e-05
1.96362e-05
-1.97953e-05
3.37142e-05
-4.23309e-05
3.43348e-05
-3.73972e-05
3.62227e-05
-3.26895e-05
3.84796e-05
-2.40566e-05
4.03534e-05
-1.98793e-05
4.15741e-05
-8.78968e-06
4.34973e-05
-5.41739e-06
4.43278e-05
2.97069e-06
4.35412e-05
9.72447e-06
4.11786e-05
1.55611e-05
3.85688e-05
2.04296e-05
3.33336e-05
2.59969e-05
3.82497e-05
2.96061e-05
1.8021e-05
4.30818e-05
1.4775e-05
8.50366e-05
0.000103594
3.35181e-06
-2.58526e-05
7.01538e-06
-2.80401e-05
1.00223e-05
-3.01751e-05
1.27413e-05
-2.46721e-05
1.68585e-05
-3.18611e-05
1.73262e-05
-2.23706e-05
3.16106e-05
-3.40798e-05
3.22487e-05
-4.2969e-05
3.45399e-05
-3.96884e-05
3.6744e-05
-3.48936e-05
3.94894e-05
-2.6802e-05
4.21859e-05
-2.25758e-05
4.38468e-05
-1.04506e-05
4.58822e-05
-7.45274e-06
4.59828e-05
2.87008e-06
4.50299e-05
1.06773e-05
4.41139e-05
1.64771e-05
4.32529e-05
2.12906e-05
3.9812e-05
2.94377e-05
1.96924e-05
4.97257e-05
3.71137e-05
2.56604e-05
2.83432e-05
9.38071e-05
0.000131937
-3.57082e-05
3.57082e-05
-6.70922e-05
3.13841e-05
7.23487e-05
-0.000139441
4.24388e-05
2.99098e-05
-2.42765e-05
6.6715e-05
-7.73226e-05
5.3046e-05
-0.000159263
8.19408e-05
-0.00029067
0.000131407
-0.000392893
0.000102222
-0.000496055
0.000103162
-0.000568144
7.20887e-05
-0.000637742
6.95974e-05
-0.000661346
2.36042e-05
-0.000607265
-5.40816e-05
-0.000350455
-0.000256809
-0.000290679
-5.97763e-05
-0.000371317
8.06383e-05
-0.000262862
-0.000108455
-0.000262862
-5.7421e-05
9.31292e-05
-5.01122e-05
2.40752e-05
2.77477e-05
-0.000217301
2.08911e-05
3.67664e-05
-2.93446e-05
0.000116951
-8.31478e-05
0.000106849
-0.000161443
0.000160235
-0.000256061
0.000226026
-0.000284197
0.000130359
-0.000249212
6.81774e-05
-0.00019907
2.19466e-05
-0.000136248
6.77522e-06
-0.000125005
1.2361e-05
-0.000115387
-6.37002e-05
-0.00017661
-0.000195586
-0.000223612
-1.27742e-05
-0.000166735
2.37611e-05
-0.000135333
-0.000139857
-0.000398195
-1.96262e-05
0.000112755
-2.30902e-05
2.75392e-05
8.35898e-06
-0.00024875
-1.22985e-06
4.63551e-05
-2.21761e-05
0.000137897
-5.64051e-05
0.000141078
-0.000115266
0.000219096
-0.000222724
0.000333483
-0.000228321
0.000135955
-0.000183795
2.3652e-05
-4.17512e-05
-0.000120098
-3.88798e-05
3.90367e-06
-2.60853e-05
-4.33686e-07
-5.12539e-05
-3.85316e-05
-0.000126751
-0.000120088
-0.000141564
2.03865e-06
-0.000119695
1.89236e-06
-8.66937e-05
-0.000172859
-0.000484889
-4.25831e-06
0.000117014
4.37088e-06
1.891e-05
-9.40588e-06
-0.000234973
-3.03242e-05
6.72734e-05
-1.45546e-05
0.000122128
-2.93236e-05
0.000155847
-0.000100588
0.00029036
-8.99712e-05
0.000322867
-0.000143249
0.000189233
-9.41113e-05
-2.54855e-05
-4.70868e-05
-0.000167122
-1.62152e-05
-2.69684e-05
9.92358e-07
-1.76414e-05
-1.17233e-05
-2.58157e-05
-0.000103853
-2.79587e-05
-0.000130137
2.83228e-05
-8.06842e-05
-4.75604e-05
-5.13022e-05
-0.000202241
-0.000536191
4.2491e-05
7.45229e-05
4.79546e-05
1.34464e-05
-4.5781e-05
-0.000141238
-2.75226e-05
4.9015e-05
-2.20503e-05
0.000116656
-1.8814e-05
0.000152611
-3.34117e-05
0.000304958
-5.82904e-05
0.000347746
-3.70333e-05
0.000167975
-4.53579e-05
-1.71609e-05
-3.80145e-05
-0.000174466
-8.00426e-06
-5.69787e-05
1.65281e-05
-4.21737e-05
3.00824e-05
-3.937e-05
-6.26464e-06
8.38861e-06
-1.68035e-05
3.88615e-05
-4.29671e-05
-2.13969e-05
-2.36753e-05
-0.000221532
-0.000559867
4.63566e-05
2.81664e-05
2.19212e-05
3.78817e-05
-2.04327e-05
-9.88836e-05
-1.84446e-05
4.70269e-05
-7.88687e-06
0.000106099
-8.24442e-06
0.000152968
-2.04463e-05
0.00031716
-7.55408e-06
0.000334854
2.4736e-06
0.000157948
-1.11238e-05
-3.56351e-06
-2.76658e-05
-0.000157924
1.47892e-05
-9.94336e-05
3.78059e-05
-6.51902e-05
4.31918e-05
-4.47561e-05
2.56846e-05
2.58959e-05
4.24067e-05
2.21395e-05
6.34453e-06
1.46652e-05
-1.93997e-05
-0.000195788
-0.000579266
2.48019e-05
3.36454e-06
2.25528e-05
4.01308e-05
-2.23859e-05
-5.39449e-05
-2.07625e-05
4.54034e-05
-1.45317e-05
9.9868e-05
7.84766e-06
0.000130589
7.93526e-06
0.000317072
3.57637e-05
0.000307026
5.81593e-05
0.000135552
8.89002e-06
4.57058e-05
-8.42387e-06
-0.00014061
2.21003e-06
-0.000110068
1.93481e-05
-8.23282e-05
4.31751e-05
-6.85834e-05
4.441e-05
2.4661e-05
5.19637e-05
1.45859e-05
3.8914e-05
2.7715e-05
-1.6453e-05
-0.000140421
-0.000595719
4.6427e-06
-1.27813e-06
4.32714e-06
4.04464e-05
-1.4019e-05
-3.55987e-05
-1.7099e-05
4.84834e-05
-7.88607e-06
9.06549e-05
2.32392e-05
9.94638e-05
4.09387e-05
0.000299373
5.62966e-05
0.000291668
7.92002e-05
0.000112649
3.02087e-05
9.46974e-05
1.0427e-05
-0.000120828
1.10981e-05
-0.000110739
1.50468e-05
-8.62769e-05
4.12458e-05
-9.47825e-05
7.05164e-05
-4.60965e-06
6.226e-05
2.28424e-05
5.39688e-05
3.60063e-05
-5.43032e-06
-8.10217e-05
-0.00060115
7.00919e-06
-3.28618e-05
1.37905e-05
-3.48214e-05
1.904e-05
-3.54246e-05
2.70543e-05
-3.26864e-05
3.14791e-05
-3.62858e-05
5.41986e-05
-4.50901e-05
6.29531e-05
-4.28342e-05
6.7787e-05
-4.78029e-05
7.32701e-05
-4.51716e-05
7.94207e-05
-4.10441e-05
9.02783e-05
-3.76596e-05
9.82484e-05
-3.05459e-05
9.89188e-05
-1.1121e-05
0.000102543
-1.10771e-05
0.000102871
2.54187e-06
9.97429e-05
1.38058e-05
8.96657e-05
2.65543e-05
8.72163e-05
2.37401e-05
8.70474e-05
2.96066e-05
0.000104344
3.24294e-05
6.77308e-05
6.22733e-05
0.000115158
4.63798e-05
0.000128988
0.000118107
6.44942e-06
-3.93112e-05
1.36335e-05
-4.20055e-05
1.89956e-05
-4.07867e-05
3.57172e-05
-4.9408e-05
4.39325e-05
-4.45011e-05
5.18926e-05
-5.30503e-05
5.83507e-05
-4.92924e-05
6.58895e-05
-5.53416e-05
7.64936e-05
-5.57757e-05
8.83625e-05
-5.2913e-05
0.000100586
-4.98833e-05
0.000108246
-3.82056e-05
0.000113413
-1.62879e-05
0.000117712
-1.53761e-05
0.000120758
-5.04095e-07
0.0001194
1.51637e-05
0.000116819
2.91353e-05
0.000115059
2.54999e-05
9.73026e-05
4.73632e-05
5.4384e-05
7.5348e-05
8.13634e-05
3.52939e-05
8.40048e-05
4.37384e-05
8.52336e-05
0.00012776
9.39856e-06
-4.87098e-05
1.7962e-05
-5.05689e-05
2.69698e-05
-4.97945e-05
3.34666e-05
-5.59048e-05
4.16008e-05
-5.26353e-05
4.82607e-05
-5.97101e-05
5.90625e-05
-6.00942e-05
7.27741e-05
-6.90532e-05
8.5169e-05
-6.81707e-05
0.00010093
-6.86736e-05
0.000111162
-6.01155e-05
0.000116601
-4.36451e-05
0.000121666
-2.13523e-05
0.000129291
-2.30016e-05
0.000134089
-5.30196e-06
0.000136891
1.23621e-05
0.000134452
3.15737e-05
0.00012011
3.98422e-05
0.000114584
5.28892e-05
0.000118039
7.18932e-05
7.87548e-05
7.45777e-05
8.24556e-05
4.00376e-05
7.22144e-05
9.54747e-05
9.34154e-06
-5.80513e-05
1.71641e-05
-5.83915e-05
2.52045e-05
-5.78349e-05
3.02863e-05
-6.09866e-05
3.81258e-05
-6.04749e-05
4.67661e-05
-6.83504e-05
5.71534e-05
-7.04814e-05
6.68659e-05
-7.87657e-05
7.48561e-05
-7.61609e-05
8.01194e-05
-7.39369e-05
8.12349e-05
-6.12309e-05
8.75617e-05
-4.99719e-05
0.000100535
-3.43259e-05
0.000115302
-3.77681e-05
0.000134498
-2.44985e-05
0.000141554
5.3063e-06
0.000135676
3.74517e-05
0.000129103
4.64153e-05
0.00011567
6.63223e-05
0.000114601
7.29622e-05
0.000143354
4.58245e-05
0.000139172
4.42198e-05
6.24075e-05
0.000148979
3.03637e-06
-6.10877e-05
5.6207e-06
-6.09758e-05
8.40384e-06
-6.0618e-05
1.0659e-05
-6.32417e-05
1.40087e-05
-6.38247e-05
1.68222e-05
-7.11638e-05
2.04243e-05
-7.40835e-05
2.15868e-05
-7.99283e-05
2.11148e-05
-7.56889e-05
1.9754e-05
-7.2576e-05
1.38781e-05
-5.53551e-05
1.04362e-05
-4.65299e-05
1.81804e-05
-4.20701e-05
2.65684e-05
-4.6156e-05
4.5329e-05
-4.32592e-05
7.81028e-05
-2.74674e-05
0.000103833
1.17211e-05
0.000115934
3.43151e-05
0.000109125
7.31312e-05
0.000107905
7.41818e-05
6.67503e-05
8.69792e-05
6.81246e-05
4.28455e-05
1.39746e-05
0.000116557
6.78185e-07
-6.17659e-05
1.76741e-06
-6.20651e-05
3.36858e-06
-6.22192e-05
4.34598e-06
-6.42191e-05
6.30436e-06
-6.5783e-05
9.12071e-06
-7.39802e-05
1.09547e-05
-7.59175e-05
1.33706e-05
-8.23441e-05
1.57355e-05
-7.80538e-05
1.63579e-05
-7.31984e-05
1.17938e-05
-5.07911e-05
2.81258e-06
-3.75486e-05
4.7222e-06
-4.39797e-05
1.07383e-05
-5.21721e-05
2.41288e-05
-5.66497e-05
5.46987e-05
-5.80373e-05
7.07237e-05
-4.30391e-06
3.98539e-05
6.51848e-05
4.94295e-05
6.35556e-05
6.40234e-05
5.9588e-05
8.11977e-05
6.9805e-05
0.000126083
-2.04029e-06
2.00074e-05
0.000120051
5.00951e-07
-6.22668e-05
1.6477e-06
-6.32118e-05
3.00927e-06
-6.35807e-05
4.46233e-06
-6.56722e-05
5.8194e-06
-6.71401e-05
6.8514e-06
-7.50122e-05
7.20055e-06
-7.62667e-05
6.69854e-06
-8.18421e-05
5.62935e-06
-7.69846e-05
3.99281e-07
-6.79683e-05
-4.18213e-06
-4.62097e-05
2.06272e-06
-4.37935e-05
9.6293e-06
-5.15463e-05
2.3928e-05
-6.64708e-05
1.32512e-05
-4.59728e-05
1.3817e-06
-4.61679e-05
1.05732e-05
-1.34954e-05
4.08022e-05
3.49558e-05
4.75374e-05
5.68205e-05
0.000100874
6.25169e-06
0.000124393
4.62855e-05
0.000115892
6.46115e-06
2.2485e-05
0.000113414
3.39675e-07
-6.26065e-05
5.78473e-07
-6.34506e-05
1.12863e-06
-6.41309e-05
1.14691e-06
-6.56904e-05
-3.96517e-07
-6.55967e-05
-2.17389e-06
-7.32348e-05
-3.13819e-06
-7.53024e-05
-8.02957e-06
-7.69508e-05
-1.40093e-05
-7.10049e-05
-2.9689e-05
-5.22886e-05
-2.56689e-05
-5.02298e-05
-1.22317e-05
-5.72307e-05
-1.01619e-05
-5.36162e-05
-1.93678e-05
-5.7265e-05
1.40761e-05
-7.94166e-05
4.15257e-05
-7.36175e-05
7.90931e-05
-5.10628e-05
4.07229e-05
7.3326e-05
3.96806e-05
5.78628e-05
4.11885e-05
4.74379e-06
8.52625e-05
2.21153e-06
4.67991e-05
4.49246e-05
2.30041e-05
4.62799e-05
-1.66115e-06
-6.09454e-05
-4.14003e-06
-6.09717e-05
-5.0945e-06
-6.31764e-05
-9.86637e-06
-6.09186e-05
-8.41476e-06
-6.70483e-05
-1.02931e-05
-7.13564e-05
-1.03392e-05
-7.52564e-05
-2.16149e-05
-6.5675e-05
-3.1913e-05
-6.07068e-05
-3.79845e-05
-4.62172e-05
-1.89528e-05
-6.92614e-05
-1.47289e-05
-6.14547e-05
-1.60152e-05
-5.23299e-05
-1.1775e-05
-6.15051e-05
-9.23088e-06
-8.19608e-05
-1.03732e-05
-7.24751e-05
8.03299e-06
-6.9469e-05
3.32437e-05
4.81153e-05
3.84312e-05
5.26752e-05
1.62691e-05
2.69059e-05
8.5136e-06
9.96702e-06
-1.2972e-06
5.47354e-05
3.7402e-05
-1.56951e-05
-4.03191e-06
-5.69135e-05
-1.36025e-05
-5.14012e-05
-1.3886e-05
-6.28929e-05
-1.67209e-05
-5.80837e-05
-1.83403e-05
-6.54289e-05
-1.04298e-05
-7.92669e-05
-6.68217e-06
-7.9004e-05
-1.35239e-05
-5.88332e-05
-2.89624e-05
-4.52684e-05
-2.44906e-05
-5.06889e-05
-2.20155e-05
-7.17366e-05
-2.74525e-05
-5.60176e-05
-3.28383e-05
-4.69441e-05
-2.28457e-05
-7.14977e-05
-5.54961e-05
-4.93104e-05
-5.07653e-05
-7.72059e-05
-3.90194e-05
-8.1215e-05
1.99309e-06
7.10283e-06
1.77546e-05
3.69137e-05
1.13447e-05
3.33158e-05
-1.38419e-05
3.51537e-05
-1.22619e-05
5.31554e-05
1.59314e-05
9.20876e-06
-5.22449e-06
-5.1689e-05
-1.33744e-05
-4.32513e-05
-9.28325e-06
-6.6984e-05
-8.76432e-06
-5.86026e-05
-9.80218e-06
-6.43911e-05
-3.32965e-06
-8.57394e-05
1.0384e-06
-8.3372e-05
4.5503e-07
-5.82499e-05
-4.70303e-07
-4.4343e-05
-1.65221e-05
-3.46372e-05
-4.66703e-05
-4.15883e-05
-3.42914e-05
-6.83966e-05
-5.3376e-05
-2.78594e-05
-6.16479e-05
-6.32259e-05
-7.48843e-05
-3.60739e-05
-0.000102478
-4.96127e-05
-9.8424e-05
-8.52685e-05
-8.12804e-05
-1.00407e-05
-7.30631e-05
2.86964e-05
-4.08739e-05
1.12653e-06
-4.23985e-05
3.66783e-05
-1.63976e-05
2.71544e-05
1.46698e-05
-1.51359e-05
-3.95922e-06
-4.77297e-05
-7.00023e-06
-4.02103e-05
-1.45555e-06
-7.25287e-05
-3.26452e-06
-5.67937e-05
-6.00979e-06
-6.16458e-05
-2.80868e-06
-8.89406e-05
-2.41802e-06
-8.37627e-05
-6.3905e-06
-5.42774e-05
-2.48227e-05
-2.59109e-05
-2.06167e-05
-3.88432e-05
-2.96384e-05
-3.25666e-05
-3.461e-05
-6.34249e-05
-4.57789e-05
-1.66906e-05
-5.26439e-05
-5.63609e-05
-5.6216e-05
-3.25017e-05
-5.27635e-05
-5.30652e-05
-0.000100744
-3.7288e-05
-8.97664e-05
-2.10183e-05
-5.55052e-05
-5.56477e-06
-5.43991e-05
2.03729e-08
-2.50048e-05
7.284e-06
-5.18534e-06
7.33498e-06
6.01384e-06
3.47058e-06
-1.41441e-05
-3.35857e-05
-5.49886e-06
-4.88556e-05
5.84192e-06
-8.38695e-05
1.88101e-06
-5.28328e-05
-8.89319e-07
-5.88755e-05
-6.71195e-06
-8.31179e-05
-5.55446e-06
-8.49202e-05
-2.66254e-05
-3.32065e-05
-2.45555e-05
-2.79807e-05
-3.01723e-05
-3.32264e-05
-3.69484e-05
-2.57905e-05
-4.12489e-05
-5.91244e-05
-4.61429e-05
-1.17965e-05
-7.0637e-05
-3.18669e-05
-7.19628e-05
-3.11759e-05
-6.08794e-05
-6.41486e-05
-6.17836e-05
-3.63838e-05
-6.00798e-05
-2.27221e-05
-3.84852e-05
-2.71594e-05
-3.01353e-05
-8.32951e-06
-1.0299e-05
-1.25523e-05
-3.80512e-06
8.4109e-07
9.61561e-06
-7.4069e-06
1.88617e-05
-5.24474e-05
2.2632e-05
-5.26258e-05
2.13757e-06
-6.3375e-05
-8.67382e-06
-4.20214e-05
-1.93601e-05
-4.81892e-05
-1.01288e-05
-9.23492e-05
-4.20098e-05
-5.30392e-05
-2.89804e-05
-4.62359e-05
-2.6801e-05
-3.01602e-05
-2.14676e-05
-3.85597e-05
-1.63607e-05
-3.08974e-05
-4.13618e-05
-3.41234e-05
-3.3377e-05
-1.97812e-05
-3.22007e-05
-3.30431e-05
-4.58117e-05
-1.7565e-05
-3.73552e-05
-7.26051e-05
-4.00705e-05
-3.36686e-05
-4.58671e-05
-1.69255e-05
-3.83485e-05
-3.4678e-05
-1.89671e-05
-2.77109e-05
-4.9354e-06
-2.6584e-05
-1.45445e-06
-2.63987e-06
-2.02648e-06
1.01876e-05
-1.18046e-05
-4.06428e-05
-1.22464e-06
-6.32058e-05
-2.30397e-06
-6.22957e-05
2.57514e-06
-4.69005e-05
6.20961e-06
-5.18237e-05
-2.94155e-05
-5.67241e-05
-2.58499e-05
-5.66047e-05
-3.60896e-05
-3.59962e-05
-2.99787e-05
-3.62711e-05
-3.51197e-05
-3.34187e-05
-2.91772e-05
-3.68399e-05
-3.26749e-05
-3.06257e-05
-2.50284e-05
-2.74277e-05
-3.17556e-05
-2.6316e-05
-2.3648e-05
-2.56726e-05
-5.10339e-05
-4.52191e-05
-3.22157e-05
-5.24868e-05
-1.5385e-05
-3.37562e-05
-2.23975e-05
-2.76655e-05
-9.36736e-06
-4.07411e-05
6.277e-06
-4.22283e-05
1.20358e-05
-8.39868e-06
-1.75754e-05
2.75848e-05
-6.91172e-07
-3.99516e-05
8.22489e-07
-6.47195e-05
-3.16384e-06
-5.83094e-05
-3.56001e-06
-4.65043e-05
-7.387e-06
-4.79967e-05
-1.31385e-05
-5.09727e-05
-2.55419e-05
-4.42013e-05
-3.1915e-05
-2.9623e-05
-3.9126e-05
-2.90601e-05
-3.56286e-05
-3.69161e-05
-3.21162e-05
-4.03522e-05
-3.53374e-05
-2.74045e-05
-3.76291e-05
-2.5136e-05
-3.90313e-05
-2.49138e-05
-2.67468e-05
-3.79572e-05
-3.42591e-05
-3.77069e-05
-2.21946e-05
-6.45512e-05
-3.05089e-05
-2.54419e-05
-3.02198e-06
-5.51525e-05
1.10784e-05
-5.48415e-05
1.50141e-05
-4.6164e-05
3.21877e-05
-2.55723e-05
-1.7585e-05
3.21972e-05
1.40762e-05
-5.40278e-05
7.67967e-06
-5.83229e-05
-1.65128e-06
-4.89784e-05
-4.34773e-06
-4.38079e-05
-3.81323e-06
-4.85312e-05
-1.20478e-05
-4.27381e-05
-1.61003e-05
-4.01488e-05
-1.95271e-05
-2.61963e-05
-2.34885e-05
-2.50987e-05
-2.57929e-05
-3.46117e-05
-2.4168e-05
-4.19771e-05
-2.93915e-05
-2.2181e-05
-2.89746e-05
-2.55529e-05
-3.41079e-05
-1.97805e-05
-4.15239e-06
-6.79127e-05
-2.09575e-07
-4.16497e-05
-1.44248e-05
-5.0336e-05
-1.13915e-06
-3.87275e-05
1.6768e-05
-7.30596e-05
3.12781e-05
-6.93516e-05
4.04638e-05
-5.53497e-05
3.89994e-05
-2.41079e-05
-2.26855e-05
4.40999e-05
-2.21725e-05
-3.18554e-05
-1.69858e-06
-7.87968e-05
1.40301e-05
-6.47072e-05
7.39761e-06
-3.71753e-05
-7.94665e-07
-4.03389e-05
-6.5396e-06
-3.69932e-05
-9.93407e-06
-3.67543e-05
-1.94562e-05
-1.66741e-05
-1.61682e-05
-2.83866e-05
-1.42364e-05
-3.65436e-05
-1.98898e-05
-3.63238e-05
-1.75467e-05
-2.45241e-05
-2.47182e-05
-1.83814e-05
-1.80512e-05
-2.64475e-05
-1.71321e-05
-6.88317e-05
-1.3084e-05
-4.56977e-05
-1.7137e-05
-4.6283e-05
1.67982e-05
-7.26628e-05
1.81264e-05
-7.43879e-05
2.49909e-05
-7.62161e-05
3.06336e-05
-6.09925e-05
5.71529e-05
-5.06271e-05
-2.05979e-05
5.50653e-05
-6.59718e-06
-2.52582e-05
-1.16004e-05
-7.37936e-05
-1.22084e-05
-6.40991e-05
-2.06434e-05
-2.87404e-05
-9.40579e-07
-6.00417e-05
-1.17001e-05
-2.62337e-05
-1.72728e-05
-3.11816e-05
-9.21112e-06
-2.47358e-05
-1.4322e-05
-2.32757e-05
-7.65566e-06
-4.32099e-05
-1.0624e-05
-3.33554e-05
-1.96295e-05
-1.55186e-05
-1.67573e-05
-2.12536e-05
-1.5551e-05
-2.76537e-05
-1.70981e-05
-6.72847e-05
5.01881e-06
-6.78147e-05
2.61887e-05
-6.74529e-05
3.24232e-05
-7.88972e-05
3.80242e-05
-7.99888e-05
4.51971e-05
-8.3389e-05
4.96688e-05
-6.54642e-05
3.1979e-05
-3.29374e-05
-1.97009e-05
3.1082e-05
-7.88092e-06
-1.73773e-05
-6.24063e-06
-7.54339e-05
-8.88884e-06
-6.14509e-05
-3.8539e-06
-3.37753e-05
-7.06967e-06
-5.6826e-05
-4.8076e-06
-2.84957e-05
-9.49988e-06
-2.64893e-05
-1.9826e-05
-1.44097e-05
-6.51056e-06
-3.65911e-05
-9.12356e-06
-4.05969e-05
-1.49442e-05
-2.75348e-05
-1.47052e-05
-1.57577e-05
-1.93913e-05
-1.65675e-05
-1.57829e-06
-4.54668e-05
2.17976e-06
-7.10427e-05
4.44959e-06
-7.00845e-05
8.92138e-06
-7.19247e-05
1.60193e-05
-8.59952e-05
2.3379e-05
-8.73485e-05
3.11402e-05
-9.11503e-05
3.20593e-05
-6.63833e-05
2.80647e-05
-2.89427e-05
-2.85815e-05
3.69452e-05
-7.01588e-06
-1.03614e-05
-8.11093e-06
-7.43389e-05
-1.73186e-05
-5.22432e-05
-6.14715e-06
-4.49468e-05
-1.29851e-05
-4.9988e-05
-8.23006e-06
-3.32508e-05
-6.87854e-06
-2.78409e-05
-6.69149e-06
-1.45968e-05
-2.02303e-05
-2.30523e-05
2.11095e-06
-6.29382e-05
6.10868e-06
-3.15325e-05
-3.31655e-06
-6.33243e-06
-1.12696e-06
-1.87571e-05
3.38412e-06
-4.99778e-05
5.22616e-06
-7.28848e-05
9.42887e-06
-7.42872e-05
1.54626e-05
-7.79584e-05
1.93557e-05
-8.98883e-05
2.23032e-05
-9.0296e-05
2.58113e-05
-9.46584e-05
2.41516e-05
-6.47235e-05
2.70071e-05
-3.17982e-05
-3.53405e-05
3.3766e-05
-6.89896e-07
-9.67151e-06
-1.47795e-07
-7.4881e-05
9.75099e-07
-5.33661e-05
-6.43533e-06
-3.75364e-05
-1.48431e-06
-5.4939e-05
-5.97911e-06
-2.8756e-05
9.24601e-08
-3.39124e-05
3.80691e-06
-1.83113e-05
1.98779e-06
-2.12332e-05
5.58193e-07
-6.15086e-05
-4.05242e-07
-3.05691e-05
-2.08967e-06
-4.648e-06
8.46908e-06
-2.93158e-05
1.61932e-05
-5.7702e-05
1.91849e-05
-7.58765e-05
1.95084e-05
-7.46107e-05
2.58518e-05
-8.43017e-05
3.1117e-05
-9.51535e-05
3.98759e-05
-9.90549e-05
3.11656e-05
-8.59481e-05
2.7107e-05
-6.0665e-05
4.33057e-05
-4.79968e-05
-4.34256e-05
5.13908e-05
2.12392e-05
-3.09107e-05
-4.72162e-06
-4.89201e-05
-1.50258e-05
-4.30619e-05
-7.15059e-06
-4.54116e-05
-1.99731e-05
-4.21165e-05
-1.05631e-05
-3.8166e-05
-1.1291e-05
-3.31845e-05
-2.59089e-06
-2.70113e-05
1.7305e-07
-2.39971e-05
2.50354e-06
-6.38391e-05
-7.66358e-06
-2.04019e-05
-3.88946e-06
-8.42211e-06
1.34559e-05
-4.66612e-05
1.04568e-05
-5.47029e-05
1.03654e-05
-7.57851e-05
1.64608e-05
-8.07061e-05
2.33959e-05
-9.12368e-05
2.69307e-05
-9.86883e-05
4.40454e-05
-0.00011617
5.07218e-05
-9.26244e-05
2.82332e-05
-3.81764e-05
5.66819e-05
-7.64455e-05
-2.52033e-05
3.84595e-05
3.60587e-06
-3.45166e-05
1.01782e-06
-4.63321e-05
2.23523e-06
-4.42793e-05
1.06383e-07
-4.32827e-05
-1.1226e-07
-4.18979e-05
1.37497e-06
-3.96533e-05
5.18058e-06
-3.69902e-05
1.16075e-05
-3.34383e-05
2.32914e-05
-3.5681e-05
6.90501e-07
-4.12382e-05
8.02768e-06
-2.77391e-05
2.7093e-05
-2.74874e-05
1.39178e-05
-3.3486e-05
2.85473e-05
-6.93323e-05
3.89802e-05
-8.62181e-05
1.75002e-05
-5.92261e-05
3.38883e-05
-0.000107625
4.48228e-05
-0.000109623
5.29875e-05
-0.000124334
2.28535e-05
-6.24904e-05
4.10105e-05
-5.63334e-05
1.67496e-05
-5.21847e-05
-3.30369e-05
2.45832e-05
1.26144e-06
-3.5778e-05
-1.13562e-06
-4.3935e-05
-2.07244e-06
-4.33425e-05
-2.35503e-06
-4.30001e-05
-3.00795e-06
-4.12449e-05
-1.91187e-06
-4.07493e-05
-1.78974e-07
-3.87231e-05
3.68942e-06
-3.73067e-05
5.63413e-06
-3.76257e-05
4.03443e-06
-3.96385e-05
8.74743e-06
-3.24521e-05
1.55569e-05
-3.42969e-05
1.40437e-05
-3.19728e-05
2.20993e-05
-7.73879e-05
2.94644e-05
-9.35833e-05
2.32525e-05
-5.30141e-05
2.67696e-05
-0.000111142
3.70231e-05
-0.000119876
3.42558e-05
-0.000121567
2.96088e-05
-5.78435e-05
3.38144e-05
-6.05389e-05
3.51061e-05
-5.34765e-05
-4.0916e-05
4.29853e-05
1.64622e-06
-3.74242e-05
2.46651e-06
-4.47553e-05
3.62868e-06
-4.45047e-05
4.3627e-06
-4.37342e-05
5.28519e-06
-4.21674e-05
7.10381e-06
-4.2568e-05
8.92736e-06
-4.05466e-05
1.1872e-05
-4.02513e-05
1.3183e-05
-3.89366e-05
1.21803e-05
-3.86359e-05
1.56906e-05
-3.59624e-05
1.8798e-05
-3.74043e-05
2.06721e-05
-3.38468e-05
2.50237e-05
-8.17395e-05
3.11437e-05
-9.97033e-05
2.42846e-05
-4.6155e-05
2.64411e-05
-0.000113298
2.33993e-05
-0.000116835
2.29895e-05
-0.000121157
2.58673e-05
-6.07213e-05
3.08844e-05
-6.55561e-05
3.57675e-05
-5.83595e-05
-4.58809e-05
4.07323e-05
9.74201e-07
-3.83984e-05
1.45361e-06
-4.52347e-05
2.09627e-06
-4.51473e-05
2.94154e-06
-4.45794e-05
3.93853e-06
-4.31644e-05
5.23848e-06
-4.38679e-05
7.04618e-06
-4.23543e-05
9.05158e-06
-4.22567e-05
1.11577e-05
-4.10427e-05
1.36345e-05
-4.11127e-05
1.57842e-05
-3.81121e-05
1.85933e-05
-4.02134e-05
2.14053e-05
-3.66588e-05
2.62841e-05
-8.66183e-05
1.97853e-05
-9.32045e-05
2.51686e-05
-5.15383e-05
3.20197e-05
-0.000120149
3.71367e-05
-0.000121952
2.81439e-05
-0.000112164
3.24262e-05
-6.50037e-05
4.24564e-05
-7.55863e-05
4.74699e-05
-6.3373e-05
-4.75131e-05
4.91021e-05
1.41082e-06
-3.98093e-05
1.85854e-06
-4.56825e-05
3.21677e-06
-4.65056e-05
4.49151e-06
-4.58542e-05
7.8417e-06
-4.65146e-05
9.24534e-06
-4.52716e-05
1.17399e-05
-4.48488e-05
1.33969e-05
-4.39138e-05
1.52181e-05
-4.28639e-05
1.66583e-05
-4.25529e-05
1.91164e-05
-4.05702e-05
2.13453e-05
-4.24423e-05
2.28594e-05
-3.81729e-05
2.58502e-05
-8.96092e-05
2.32951e-05
-9.06494e-05
7.49083e-05
-0.000103152
3.26949e-05
-7.7936e-05
3.84384e-05
-0.000127695
3.43759e-05
-0.000108102
4.74456e-05
-7.80734e-05
4.46664e-05
-7.28071e-05
5.32663e-05
-7.19729e-05
-4.88485e-05
5.46017e-05
1.85229e-06
-4.16616e-05
3.3269e-06
-4.71571e-05
4.79272e-06
-4.79714e-05
6.5486e-06
-4.76101e-05
8.08377e-06
-4.80498e-05
9.65472e-06
-4.68425e-05
1.11001e-05
-4.62942e-05
1.31786e-05
-4.59923e-05
1.54617e-05
-4.5147e-05
1.81962e-05
-4.52873e-05
2.1322e-05
-4.3696e-05
2.46693e-05
-4.57896e-05
2.79515e-05
-4.14551e-05
3.27878e-05
-9.44455e-05
3.69951e-05
-9.48567e-05
4.95693e-05
-0.000115726
3.96295e-05
-6.79962e-05
4.4645e-05
-0.000132711
6.98493e-06
-7.04416e-05
6.31273e-05
-0.000134216
5.40517e-05
-6.37315e-05
5.45913e-05
-7.25126e-05
-5.27487e-05
5.84916e-05
2.48961e-06
-4.41512e-05
4.85879e-06
-4.95263e-05
6.81211e-06
-4.99247e-05
8.76957e-06
-4.95675e-05
1.01917e-05
-4.94719e-05
1.21291e-05
-4.87799e-05
1.41504e-05
-4.83154e-05
1.61038e-05
-4.79457e-05
1.835e-05
-4.73932e-05
1.97679e-05
-4.67052e-05
2.21674e-05
-4.60956e-05
2.3463e-05
-4.70851e-05
2.56407e-05
-4.36328e-05
2.88537e-05
-9.76586e-05
3.55649e-05
-0.000101568
3.17137e-05
-0.000111875
8.10849e-05
-0.000117367
2.65035e-05
-7.81295e-05
3.4773e-05
-7.8711e-05
2.93743e-05
-0.000128817
8.07532e-05
-0.00011511
6.90579e-05
-6.08172e-05
-6.42748e-05
8.05839e-05
2.40315e-06
-4.65543e-05
4.34861e-06
-5.14717e-05
6.17079e-06
-5.17469e-05
8.05172e-06
-5.14485e-05
9.91558e-06
-5.13358e-05
1.20948e-05
-5.09591e-05
1.42052e-05
-5.04259e-05
1.61366e-05
-4.98772e-05
1.81648e-05
-4.94214e-05
1.91382e-05
-4.76786e-05
2.16201e-05
-4.85775e-05
2.10681e-05
-4.65331e-05
2.38269e-05
-4.63915e-05
2.06045e-05
-9.44362e-05
2.55448e-05
-0.000106508
2.66501e-05
-0.00011298
4.28381e-05
-0.000133555
4.76399e-05
-8.29313e-05
3.47905e-05
-6.58616e-05
4.18268e-05
-0.000135853
4.36352e-05
-0.000116919
5.30892e-05
-7.02712e-05
-7.18092e-05
6.06236e-05
2.67222e-06
-4.92265e-05
4.81944e-06
-5.36189e-05
6.67742e-06
-5.36049e-05
8.76617e-06
-5.35372e-05
1.07248e-05
-5.32944e-05
1.26388e-05
-5.28731e-05
1.43907e-05
-5.21777e-05
1.64248e-05
-5.19112e-05
1.83523e-05
-5.13489e-05
1.99591e-05
-4.92854e-05
2.2073e-05
-5.06914e-05
2.25724e-05
-4.70325e-05
2.6283e-05
-5.01022e-05
2.384e-05
-9.19931e-05
2.65801e-05
-0.000109248
4.34512e-05
-0.000129851
4.86262e-05
-0.00013873
3.95237e-05
-7.38289e-05
4.16156e-05
-6.79535e-05
6.34472e-05
-0.000157685
6.51692e-05
-0.000118641
6.24918e-05
-6.75938e-05
-7.94252e-05
7.01078e-05
2.54249e-06
-5.1769e-05
4.48068e-06
-5.55571e-05
6.40625e-06
-5.55304e-05
8.40357e-06
-5.55345e-05
1.03288e-05
-5.52197e-05
1.27575e-05
-5.53018e-05
1.48734e-05
-5.42937e-05
1.73134e-05
-5.43512e-05
1.94981e-05
-5.35337e-05
2.25249e-05
-5.23122e-05
2.4844e-05
-5.30105e-05
2.84822e-05
-5.06707e-05
3.20735e-05
-5.36935e-05
3.78807e-05
-9.78003e-05
3.88246e-05
-0.000110192
3.70302e-05
-0.000128057
2.5542e-05
-0.000127242
8.33683e-05
-0.000131655
9.84366e-05
-8.30218e-05
3.72131e-05
-9.64615e-05
5.07742e-05
-0.000132202
4.58387e-05
-6.26584e-05
-0.000141106
0.00010752
2.41853e-06
-5.41876e-05
4.36715e-06
-5.75058e-05
6.22234e-06
-5.73856e-05
8.22719e-06
-5.75394e-05
1.01132e-05
-5.71056e-05
1.22123e-05
-5.7401e-05
1.38453e-05
-5.59267e-05
1.6025e-05
-5.65308e-05
1.70572e-05
-5.45659e-05
2.01218e-05
-5.53768e-05
2.00902e-05
-5.2979e-05
2.44716e-05
-5.5052e-05
1.89951e-05
-4.8217e-05
2.11064e-05
-9.99116e-05
2.48743e-05
-0.00011396
2.66448e-05
-0.000129827
4.37038e-05
-0.000144301
5.26539e-05
-0.000140605
6.25273e-05
-9.28952e-05
4.65641e-05
-8.04982e-05
6.52812e-05
-0.000150919
8.21379e-05
-7.95151e-05
-0.000143726
8.47582e-05
2.1036e-06
-5.62912e-05
3.75067e-06
-5.91528e-05
5.52574e-06
-5.91607e-05
7.39741e-06
-5.9411e-05
9.53716e-06
-5.92454e-05
1.16008e-05
-5.94646e-05
1.38423e-05
-5.81682e-05
1.61066e-05
-5.87951e-05
1.80891e-05
-5.65484e-05
2.1002e-05
-5.82897e-05
2.23885e-05
-5.43655e-05
2.64346e-05
-5.90981e-05
2.11091e-05
-4.28915e-05
2.2008e-05
-0.00010081
3.17747e-05
-0.000123727
3.43619e-05
-0.000132414
3.23211e-05
-0.00014226
2.31821e-05
-0.000131466
7.43291e-05
-0.000144042
4.97013e-05
-5.58705e-05
4.52366e-05
-0.000146454
5.06436e-05
-8.49221e-05
-0.000164569
7.14859e-05
2.09761e-06
-5.83888e-05
3.64403e-06
-6.06993e-05
5.4155e-06
-6.09322e-05
7.05356e-06
-6.10491e-05
8.92451e-06
-6.11163e-05
1.09764e-05
-6.15166e-05
1.37449e-05
-6.09366e-05
1.6025e-05
-6.10752e-05
1.92e-05
-5.97234e-05
2.16234e-05
-6.07131e-05
2.52403e-05
-5.79824e-05
2.31846e-05
-5.70425e-05
2.45075e-05
-4.42144e-05
3.34381e-05
-0.000109741
3.26594e-05
-0.000122948
3.59068e-05
-0.000135662
2.57873e-05
-0.000132141
3.41078e-05
-0.000139787
4.66072e-05
-0.000156542
7.26581e-05
-8.19214e-05
2.53672e-05
-9.91634e-05
8.42096e-05
-0.000143765
-0.000112979
3.26198e-05
1.79837e-06
-6.01871e-05
3.23655e-06
-6.21374e-05
4.74388e-06
-6.24395e-05
6.18201e-06
-6.24872e-05
7.94619e-06
-6.28805e-05
9.51677e-06
-6.30871e-05
1.18135e-05
-6.32334e-05
1.413e-05
-6.33917e-05
1.70063e-05
-6.25997e-05
1.81607e-05
-6.18675e-05
2.02882e-05
-6.01098e-05
1.82467e-05
-5.5001e-05
2.06629e-05
-4.66306e-05
3.43839e-05
-0.000123462
3.04603e-05