/*--------------------------------*- C++ -*----------------------------------*\
| =========                 |                                                 |
| \\      /  F ield         | foam-extend: Open Source CFD                    |
|  \\    /   O peration     | Version:     4.1                                |
|   \\  /    A nd           | Web:         http://www.foam-extend.org         |
|    \\/     M anipulation  |                                                 |
\*---------------------------------------------------------------------------*/
FoamFile
{
    version     2.0;
    format      ascii;
    class       surfaceScalarField;
    location    "0.35";
    object      phi_0;
}
// * * * * * * * * * * * * * * * * * * * * * * * * * * * * * * * * * * * * * //

dimensions      [0 3 -1 0 0 0 0];

internalField   nonuniform List<scalar> 
4432
(
3.41063e-06
-3.41063e-06
6.59113e-06
-3.1805e-06
1.05821e-05
-3.99092e-06
1.38307e-05
-3.24867e-06
1.72409e-05
-3.41018e-06
2.02687e-05
-3.02779e-06
2.38912e-05
-3.62248e-06
2.75847e-05
-3.69355e-06
2.98612e-05
-2.27645e-06
2.68005e-05
3.06071e-06
4.71286e-05
-2.03282e-05
5.09279e-05
-3.79932e-06
5.33298e-05
-2.40189e-06
5.40397e-05
-7.09903e-07
5.30283e-05
1.01143e-06
5.15015e-05
1.52684e-06
5.46157e-05
-3.11423e-06
4.95849e-05
5.03073e-06
4.45728e-05
5.01216e-06
3.47296e-05
9.84314e-06
2.67425e-05
7.98712e-06
1.44831e-05
1.22594e-05
1.44831e-05
3.43793e-06
-6.84856e-06
6.6177e-06
-6.36027e-06
1.06256e-05
-7.99882e-06
1.37036e-05
-6.32665e-06
1.73438e-05
-7.05043e-06
2.10249e-05
-6.70882e-06
2.45049e-05
-7.10249e-06
2.82336e-05
-7.42224e-06
2.9847e-05
-3.88993e-06
5.1199e-05
-1.82912e-05
4.99582e-05
-1.90873e-05
5.4111e-05
-7.9521e-06
5.60965e-05
-4.38745e-06
5.63151e-05
-9.28436e-07
5.39508e-05
3.37571e-06
5.14477e-05
4.02989e-06
3.03249e-05
1.80086e-05
2.91991e-05
6.15649e-06
2.54898e-05
8.72149e-06
3.44081e-05
9.24848e-07
2.58307e-05
1.65645e-05
1.62216e-05
2.18685e-05
3.07048e-05
3.34535e-06
-1.01939e-05
6.54412e-06
-9.55905e-06
1.05412e-05
-1.19959e-05
1.36462e-05
-9.43159e-06
1.79545e-05
-1.13587e-05
2.13273e-05
-1.00816e-05
2.43359e-05
-1.01111e-05
2.87754e-05
-1.18617e-05
2.91377e-05
-4.25226e-06
4.72024e-05
-3.63559e-05
4.69244e-05
-1.88094e-05
5.06853e-05
-1.1713e-05
5.20847e-05
-5.78687e-06
5.27887e-05
-1.63248e-06
5.18172e-05
4.3472e-06
5.00077e-05
5.83943e-06
5.38648e-05
1.41516e-05
5.00802e-05
9.94104e-06
4.38444e-05
1.49574e-05
3.72769e-05
7.4923e-06
3.09014e-05
2.29399e-05
1.43654e-05
3.84046e-05
4.50701e-05
3.27297e-06
-1.34669e-05
6.6974e-06
-1.29835e-05
1.06097e-05
-1.59082e-05
1.39211e-05
-1.2743e-05
1.84746e-05
-1.59122e-05
2.14476e-05
-1.30547e-05
2.54636e-05
-1.4127e-05
2.68661e-05
-1.32642e-05
4.58762e-05
-2.32623e-05
4.20526e-05
-3.25323e-05
4.25892e-05
-1.93459e-05
4.46057e-05
-1.37295e-05
4.51073e-05
-6.28842e-06
4.54404e-05
-1.96564e-06
4.58611e-05
3.92656e-06
4.5168e-05
6.53248e-06
4.69401e-05
1.23795e-05
4.49481e-05
1.1933e-05
4.22376e-05
1.76679e-05
3.45285e-05
1.52014e-05
2.72986e-05
3.01699e-05
1.48675e-05
5.08357e-05
5.99376e-05
3.04508e-06
-1.6512e-05
6.70511e-06
-1.66435e-05
1.06735e-05
-1.98766e-05
1.40128e-05
-1.60823e-05
1.81547e-05
-2.00541e-05
2.08492e-05
-1.57492e-05
2.52421e-05
-1.85199e-05
2.56241e-05
-1.36463e-05
4.08499e-05
-3.84881e-05
3.79796e-05
-2.96621e-05
3.91216e-05
-2.04879e-05
4.12365e-05
-1.58444e-05
4.18785e-05
-6.93049e-06
4.25004e-05
-2.58745e-06
4.23518e-05
4.07507e-06
4.09566e-05
7.92772e-06
4.03618e-05
1.29743e-05
3.64703e-05
1.58246e-05
3.56029e-05
1.85352e-05
3.51441e-05
1.56602e-05
2.96206e-05
3.56934e-05
1.4591e-05
6.58653e-05
7.45286e-05
3.00448e-06
-1.95164e-05
6.92978e-06
-2.05688e-05
1.08223e-05
-2.37691e-05
1.36815e-05
-1.89416e-05
1.74619e-05
-2.38345e-05
2.15909e-05
-1.98782e-05
2.24979e-05
-1.94269e-05
3.71552e-05
-2.83035e-05
3.5516e-05
-3.68489e-05
3.67191e-05
-3.08652e-05
3.81006e-05
-2.18694e-05
4.0337e-05
-1.80807e-05
4.09876e-05
-7.58105e-06
4.18953e-05
-3.49523e-06
4.21594e-05
3.81096e-06
4.11261e-05
8.96108e-06
4.08747e-05
1.32256e-05
3.8835e-05
1.78643e-05
3.65712e-05
2.07991e-05
1.76646e-05
3.45668e-05
3.04729e-05
2.2885e-05
1.44265e-05
8.19116e-05
8.89551e-05
3.00024e-06
-2.25167e-05
6.82601e-06
-2.43946e-05
1.02424e-05
-2.71855e-05
1.32709e-05
-2.19701e-05
1.72037e-05
-2.77672e-05
1.92494e-05
-2.19239e-05
1.96514e-05
-1.98289e-05
3.37445e-05
-4.23966e-05
3.43745e-05
-3.74789e-05
3.62751e-05
-3.27658e-05
3.85417e-05
-2.4136e-05
4.04346e-05
-1.99737e-05
4.16766e-05
-8.8231e-06
4.36051e-05
-5.42371e-06
4.44308e-05
2.98528e-06
4.36413e-05
9.7506e-06
4.127e-05
1.5597e-05
3.86525e-05
2.04817e-05
3.34064e-05
2.60452e-05
3.83425e-05
2.96307e-05
1.80638e-05
4.31638e-05
1.48033e-05
8.51721e-05
0.000103758
3.35271e-06
-2.58694e-05
7.01935e-06
-2.80612e-05
1.00276e-05
-3.01937e-05
1.27498e-05
-2.46923e-05
1.68709e-05
-3.18883e-05
1.73387e-05
-2.23917e-05
3.1635e-05
-3.41252e-05
3.22784e-05
-4.30401e-05
3.45784e-05
-3.97789e-05
3.67958e-05
-3.49831e-05
3.95595e-05
-2.68998e-05
4.22789e-05
-2.26931e-05
4.3957e-05
-1.05012e-05
4.59932e-05
-7.45988e-06
4.60878e-05
2.89067e-06
4.51328e-05
1.07056e-05
4.4211e-05
1.65187e-05
4.33456e-05
2.13472e-05
3.99033e-05
2.94875e-05
1.97484e-05
4.97856e-05
3.72128e-05
2.56993e-05
2.84057e-05
9.39792e-05
0.000132164
-3.16325e-05
3.16325e-05
-6.32587e-05
3.16263e-05
6.90725e-05
-0.000132331
3.97891e-05
2.92834e-05
-2.4998e-05
6.47873e-05
-7.60675e-05
5.10692e-05
-0.000154465
7.83972e-05
-0.000281543
0.000127078
-0.000376675
9.51323e-05
-0.000465599
8.89236e-05
-0.00052915
6.35506e-05
-0.000614038
8.48883e-05
-0.000651077
3.7039e-05
-0.000609115
-4.19615e-05
-0.000355621
-0.000253495
-0.000294462
-6.11585e-05
-0.000375327
8.08647e-05
-0.000265722
-0.000109605
-0.000265722
-6.07055e-05
9.2338e-05
-5.47425e-05
2.56633e-05
2.8143e-05
-0.000215217
2.04385e-05
3.69876e-05
-2.96119e-05
0.000114838
-8.15974e-05
0.000103055
-0.000157138
0.000153938
-0.000255355
0.000225295
-0.000289055
0.000128831
-0.000261039
6.09087e-05
-0.000209982
1.2494e-05
-0.000137738
1.26441e-05
-0.000127338
2.66378e-05
-0.000121307
-4.79925e-05
-0.000179664
-0.000195137
-0.000224842
-1.59802e-05
-0.000167699
2.37213e-05
-0.000135957
-0.000141347
-0.000401679
-2.05455e-05
0.000112883
-2.44037e-05
2.95216e-05
9.8378e-06
-0.000249458
-2.41313e-07
4.70666e-05
-2.19935e-05
0.00013659
-5.68873e-05
0.000137949
-0.000115413
0.000212464
-0.000219904
0.000329785
-0.000227911
0.000136839
-0.000187762
2.07593e-05
-5.04462e-05
-0.000124823
-4.55777e-05
7.77567e-06
-2.83695e-05
9.42984e-06
-4.95264e-05
-2.68358e-05
-0.000126218
-0.000118446
-0.000140546
-1.65181e-06
-0.000119424
2.59924e-06
-8.68399e-05
-0.000173931
-0.000488519
-4.72931e-06
0.000117613
4.28927e-06
2.05032e-05
-9.46492e-06
-0.000235704
-2.97322e-05
6.73338e-05
-1.42653e-05
0.000121123
-2.93828e-05
0.000153067
-0.00010106
0.000284141
-9.04209e-05
0.000319146
-0.000145093
0.000191511
-9.83669e-05
-2.59667e-05
-5.4187e-05
-0.000169003
-2.13505e-05
-2.50608e-05
4.58814e-07
-1.23792e-05
-8.43628e-06
-1.79406e-05
-0.000100475
-2.64079e-05
-0.000125478
2.33517e-05
-8.0303e-05
-4.25758e-05
-5.06599e-05
-0.000203574
-0.000539179
4.27952e-05
7.48175e-05
4.86973e-05
1.46013e-05
-4.59578e-05
-0.000141049
-2.74875e-05
4.88635e-05
-2.21722e-05
0.000115807
-1.88267e-05
0.000149722
-3.32524e-05
0.000298567
-5.92509e-05
0.000345145
-3.81673e-05
0.000170427
-4.80422e-05
-1.60918e-05
-4.11971e-05
-0.000175848
-9.37555e-06
-5.68823e-05
1.50013e-05
-3.67562e-05
3.15541e-05
-3.44932e-05
-4.755e-06
9.90099e-06
-1.80279e-05
3.66243e-05
-4.26239e-05
-1.79795e-05
-2.31125e-05
-0.000223085
-0.000562291
4.62743e-05
2.85432e-05
2.2083e-05
3.87928e-05
-2.02728e-05
-9.86932e-05
-1.84251e-05
4.7016e-05
-7.99618e-06
0.000105378
-9.66825e-06
0.000151394
-2.27883e-05
0.000311687
-9.53238e-06
0.000331889
4.22394e-07
0.000160473
-1.30735e-05
-2.59599e-06
-2.92036e-05
-0.000159718
1.17191e-05
-9.78049e-05
3.82735e-05
-6.3311e-05
4.41148e-05
-4.03346e-05
2.63258e-05
2.769e-05
4.23568e-05
2.05932e-05
7.90419e-06
1.64735e-05
-1.94176e-05
-0.000195763
-0.000581709
2.48895e-05
3.65368e-06
2.27744e-05
4.09081e-05
-2.21134e-05
-5.38055e-05
-2.05343e-05
4.54371e-05
-1.44172e-05
9.92607e-05
6.96152e-06
0.000130016
6.85125e-06
0.000311797
3.36841e-05
0.000305056
5.71253e-05
0.000137032
7.51262e-06
4.70166e-05
-9.62075e-06
-0.000142584
1.8946e-06
-0.00010932
1.95808e-05
-8.09974e-05
4.36465e-05
-6.44005e-05
4.48824e-05
2.64543e-05
5.21716e-05
1.33039e-05
3.97622e-05
2.88831e-05
-1.69006e-05
-0.000139101
-0.00059861
4.71337e-06
-1.05969e-06
4.40866e-06
4.12128e-05
-1.39347e-05
-3.54621e-05
-1.6882e-05
4.83845e-05
-8.03292e-06
9.04118e-05
2.22653e-05
9.97175e-05
4.02201e-05
0.000293842
5.54229e-05
0.000289853
7.79142e-05
0.00011454
2.85226e-05
9.64081e-05
9.59405e-06
-0.000123656
1.03149e-05
-0.000110041
1.52373e-05
-8.59198e-05
4.1722e-05
-9.08854e-05
7.05992e-05
-2.42258e-06
6.22981e-05
2.1605e-05
5.44178e-05
3.67635e-05
-5.59598e-06
-7.90868e-05
-0.000604206
7.01087e-06
-3.28803e-05
1.37991e-05
-3.48494e-05
1.90495e-05
-3.54441e-05
2.70717e-05
-3.27145e-05
3.15017e-05
-3.63183e-05
5.42394e-05
-4.51294e-05
6.30034e-05
-4.28892e-05
6.78521e-05
-4.78889e-05
7.33529e-05
-4.52796e-05
7.95359e-05
-4.11662e-05
9.0452e-05
-3.78158e-05
9.84884e-05
-3.07295e-05
9.91616e-05
-1.11745e-05
0.000102787
-1.10856e-05
0.000103114
2.56435e-06
9.99732e-05
1.38461e-05
8.98699e-05
2.6622e-05
8.74224e-05
2.37947e-05
8.72429e-05
2.9667e-05
0.00010454
3.24884e-05
6.78748e-05
6.23647e-05
0.000115401
4.64531e-05
0.000129221
0.000118344
6.45329e-06
-3.93335e-05
1.36456e-05
-4.20417e-05
1.90093e-05
-4.08079e-05
3.57409e-05
-4.9446e-05
4.39648e-05
-4.45423e-05
5.19294e-05
-5.30941e-05
5.83861e-05
-4.93458e-05
6.59202e-05
-5.5423e-05
7.65497e-05
-5.59091e-05
8.84414e-05
-5.30579e-05
0.000100738
-5.01122e-05
0.000108506
-3.84975e-05
0.000113711
-1.63801e-05
0.000118019
-1.53936e-05
0.000121052
-4.67756e-07
0.000119655
1.52429e-05
0.000117055
2.92214e-05
0.000115308
2.55416e-05
9.75159e-05
4.74596e-05
5.44986e-05
7.55057e-05
8.15081e-05
3.53552e-05
8.41665e-05
4.37947e-05
8.53726e-05
0.000128015
9.40197e-06
-4.87355e-05
1.79688e-05
-5.06085e-05
2.69829e-05
-4.9822e-05
3.34868e-05
-5.59499e-05
4.16069e-05
-5.26624e-05
4.82352e-05
-5.97223e-05
5.90004e-05
-6.01111e-05
7.26922e-05
-6.91147e-05
8.51015e-05
-6.83184e-05
0.000101007
-6.89629e-05
0.000111367
-6.04729e-05
0.000116918
-4.40479e-05
0.000122056
-2.15186e-05
0.000129742
-2.3079e-05
0.000134509
-5.23537e-06
0.000137279
1.24728e-05
0.000134762
3.17382e-05
0.000120343
3.99611e-05
0.000114787
5.30156e-05
0.000118246
7.20469e-05
7.89161e-05
7.46848e-05
8.26521e-05
4.00586e-05
7.23106e-05
9.57141e-05
9.36502e-06
-5.81005e-05
1.72069e-05
-5.84504e-05
2.52743e-05
-5.78894e-05
3.03773e-05
-6.1053e-05
3.82222e-05
-6.05072e-05
4.68741e-05
-6.83742e-05
5.7312e-05
-7.05489e-05
6.72164e-05
-7.90192e-05
7.54423e-05
-7.65443e-05
8.09507e-05
-7.44713e-05
8.22202e-05
-6.17424e-05
8.85447e-05
-5.03724e-05
0.000101505
-3.44794e-05
0.000116298
-3.78715e-05
0.00013538
-2.4317e-05
0.000142186
5.66589e-06
0.000136113
3.78118e-05
0.000129372
4.67022e-05
0.00011582
6.65673e-05
0.000114744
7.31226e-05
0.000143531
4.58982e-05
0.000139402
4.41873e-05
6.24408e-05
0.000149272
3.09951e-06
-6.12e-05
5.74199e-06
-6.10929e-05
8.57903e-06
-6.07264e-05
1.08515e-05
-6.33255e-05
1.42309e-05
-6.38866e-05
1.70502e-05
-7.11935e-05
2.06938e-05
-7.41925e-05
2.18699e-05
-8.01952e-05
2.13653e-05
-7.60398e-05
1.99619e-05
-7.30679e-05
1.40739e-05
-5.58544e-05
1.0757e-05
-4.70555e-05
1.8594e-05
-4.23165e-05
2.70874e-05
-4.63648e-05
4.60387e-05
-4.32683e-05
7.86066e-05
-2.6902e-05
0.000104135
1.22834e-05
0.000116254
3.45828e-05
0.000109365
7.34567e-05
0.000108143
7.43443e-05
6.69215e-05
8.71199e-05
6.83144e-05
4.27943e-05
1.39012e-05
0.000116854
6.79747e-07
-6.18798e-05
1.76623e-06
-6.21794e-05
3.3714e-06
-6.23316e-05
4.34198e-06
-6.42961e-05
6.30801e-06
-6.58527e-05
9.15393e-06
-7.40394e-05
1.09998e-05
-7.60384e-05
1.3426e-05
-8.26214e-05
1.57705e-05
-7.83843e-05
1.63718e-05
-7.36692e-05
1.18112e-05
-5.12938e-05
2.93256e-06
-3.81769e-05
4.92412e-06
-4.4308e-05
1.10379e-05
-5.24786e-05
2.47369e-05
-5.69673e-05
5.54608e-05
-5.76259e-05
7.09385e-05
-3.19428e-06
3.98988e-05
6.56224e-05
4.95155e-05
6.38401e-05
6.41574e-05
5.97024e-05
8.14218e-05
6.98555e-05
0.000126643
-2.42694e-06
1.9877e-05
0.000120667
4.9671e-07
-6.23765e-05
1.64057e-06
-6.33232e-05
2.99013e-06
-6.36812e-05
4.44173e-06
-6.57477e-05
5.84005e-06
-6.7251e-05
6.91043e-06
-7.51098e-05
7.28022e-06
-7.64082e-05
6.85906e-06
-8.22002e-05
5.89705e-06
-7.74223e-05
7.37722e-07
-6.85098e-05
-3.89032e-06
-4.66658e-05
2.23351e-06
-4.43007e-05
9.79979e-06
-5.18743e-05
2.41149e-05
-6.67938e-05
1.32874e-05
-4.61397e-05
1.52209e-06
-4.58606e-05
1.08972e-05
-1.25694e-05
4.10274e-05
3.54922e-05
4.75873e-05
5.72802e-05
0.000100937
6.35271e-06
0.000124312
4.64801e-05
0.000115351
6.53449e-06
2.2321e-05
0.000112907
3.47505e-07
-6.2724e-05
6.16158e-07
-6.35919e-05
1.19022e-06
-6.42552e-05
1.23526e-06
-6.57927e-05
-3.05526e-07
-6.57102e-05
-2.03948e-06
-7.33759e-05
-3.03347e-06
-7.54142e-05
-7.89273e-06
-7.7341e-05
-1.38906e-05
-7.14245e-05
-2.9545e-05
-5.28553e-05
-2.56759e-05
-5.05349e-05
-1.22317e-05
-5.7745e-05
-1.00573e-05
-5.40487e-05
-1.90818e-05
-5.77692e-05
1.45155e-05
-7.9737e-05
4.21071e-05
-7.34523e-05
7.96238e-05
-5.0086e-05
4.08284e-05
7.42876e-05
3.96639e-05
5.84447e-05
4.09971e-05
5.0195e-06
8.46673e-05
2.80992e-06
4.54928e-05
4.5709e-05
2.23546e-05
4.54592e-05
-1.62609e-06
-6.10979e-05
-4.09452e-06
-6.11235e-05
-5.03519e-06
-6.33146e-05
-9.73247e-06
-6.10954e-05
-8.30818e-06
-6.71345e-05
-1.0193e-05
-7.1491e-05
-1.02178e-05
-7.53894e-05
-2.14722e-05
-6.60866e-05
-3.18247e-05
-6.1072e-05
-3.80248e-05
-4.66552e-05
-1.89977e-05
-6.9562e-05
-1.48344e-05
-6.19083e-05
-1.62625e-05
-5.26206e-05
-1.20764e-05
-6.19553e-05
-9.68864e-06
-8.21247e-05
-1.07243e-05
-7.24167e-05
8.06112e-06
-6.88715e-05
3.3332e-05
4.90167e-05
3.84861e-05
5.32906e-05
1.6287e-05
2.72186e-05
7.90377e-06
1.11931e-05
-1.75844e-06
5.53712e-05
3.64358e-05
-1.58396e-05
-3.97248e-06
-5.71254e-05
-1.35308e-05
-5.15651e-05
-1.38411e-05
-6.30043e-05
-1.66581e-05
-5.82784e-05
-1.82852e-05
-6.55074e-05
-1.03508e-05
-7.94254e-05
-6.53276e-06
-7.92074e-05
-1.34237e-05
-5.91957e-05
-2.88881e-05
-4.56076e-05
-2.45285e-05
-5.10148e-05
-2.2055e-05
-7.20355e-05
-2.74838e-05
-5.64794e-05
-3.3003e-05
-4.71014e-05
-2.30568e-05
-7.19016e-05
-5.59502e-05
-4.92314e-05
-5.13691e-05
-7.69978e-05
-3.9479e-05
-8.07615e-05
1.90435e-06
7.63334e-06
1.77662e-05
3.74288e-05
1.12544e-05
3.37304e-05
-1.32113e-05
3.56588e-05
-1.06225e-05
5.27824e-05
1.56815e-05
1.01318e-05
-5.18672e-06
-5.19387e-05
-1.33524e-05
-4.33995e-05
-9.29841e-06
-6.70582e-05
-8.75449e-06
-5.88223e-05
-9.70384e-06
-6.45581e-05
-3.18804e-06
-8.59412e-05
1.29067e-06
-8.36861e-05
5.76743e-07
-5.84818e-05
-3.42141e-07
-4.46887e-05
-1.64822e-05
-3.48747e-05
-4.6689e-05
-4.18287e-05
-3.43405e-05
-6.88279e-05
-5.3427e-05
-2.80149e-05
-6.19631e-05
-6.33654e-05
-7.53155e-05
-3.5879e-05
-0.000102922
-4.9391e-05
-9.86286e-05
-8.50551e-05
-8.12665e-05
-9.72884e-06
-7.27552e-05
2.89175e-05
-4.03351e-05
1.31032e-06
-4.12155e-05
3.65392e-05
-1.54758e-05
2.70426e-05
1.43888e-05
-1.41832e-05
-3.91859e-06
-4.80201e-05
-6.99032e-06
-4.03278e-05
-1.44381e-06
-7.26047e-05
-3.18239e-06
-5.70837e-05
-5.87897e-06
-6.18615e-05
-2.67981e-06
-8.91404e-05
-2.23545e-06
-8.41305e-05
-6.0871e-06
-5.46301e-05
-2.45987e-05
-2.61771e-05
-2.04864e-05
-3.8987e-05
-2.94552e-05
-3.28599e-05
-3.449e-05
-6.37931e-05
-4.56483e-05
-1.68566e-05
-5.26739e-05
-5.63399e-05
-5.61387e-05
-3.24141e-05
-5.26224e-05
-5.29073e-05
-0.00010038
-3.72972e-05
-8.91948e-05
-2.09144e-05
-5.4894e-05
-5.38328e-06
-5.35627e-05
-2.09933e-08
-2.41272e-05
7.10363e-06
-4.44805e-06
7.3635e-06
5.86501e-06
4.07579e-06
-1.41524e-05
-3.38678e-05
-5.51544e-06
-4.89647e-05
5.91007e-06
-8.40303e-05
1.97178e-06
-5.31455e-05
-7.97325e-07
-5.90924e-05
-6.51502e-06
-8.34227e-05
-5.32012e-06
-8.53254e-05
-2.64684e-05
-3.34818e-05
-2.44319e-05
-2.82136e-05
-3.00198e-05
-3.33992e-05
-3.68608e-05
-2.60189e-05
-4.11588e-05
-5.94951e-05
-4.60155e-05
-1.19999e-05
-7.04937e-05
-3.18617e-05
-7.17129e-05
-3.11949e-05
-6.05819e-05
-6.40384e-05
-6.13582e-05
-3.65209e-05
-5.96066e-05
-2.2666e-05
-3.80327e-05
-2.69572e-05
-2.95389e-05
-8.51477e-06
-9.71344e-06
-1.27219e-05
-3.06877e-06
7.18833e-07
9.46735e-06
-6.67112e-06
1.89215e-05
-5.27892e-05
2.27478e-05
-5.2791e-05
2.345e-06
-6.36274e-05
-8.58747e-06
-4.2213e-05
-1.92588e-05
-4.84211e-05
-9.99755e-06
-9.26839e-05
-4.19138e-05
-5.34092e-05
-2.88945e-05
-4.6501e-05
-2.67035e-05
-3.04046e-05
-2.13322e-05
-3.87705e-05
-1.62367e-05
-3.11144e-05
-4.1341e-05
-3.43908e-05
-3.33273e-05
-2.00136e-05
-3.20783e-05
-3.31107e-05
-4.54998e-05
-1.77734e-05
-3.70691e-05
-7.24691e-05
-3.97359e-05
-3.38541e-05
-4.53833e-05
-1.70187e-05
-3.76449e-05
-3.46956e-05
-1.82615e-05
-2.78982e-05
-4.15642e-06
-2.68269e-05
-6.90741e-07
-2.74685e-06
-2.2158e-06
1.09924e-05
-1.18884e-05
-4.09008e-05
-1.21031e-06
-6.34691e-05
-2.23552e-06
-6.26022e-05
2.71397e-06
-4.71625e-05
6.39845e-06
-5.21056e-05
-2.92654e-05
-5.702e-05
-2.57419e-05
-5.69327e-05
-3.59513e-05
-3.62917e-05
-2.98884e-05
-3.64675e-05
-3.5023e-05
-3.3636e-05
-2.90829e-05
-3.70545e-05
-3.25445e-05
-3.09292e-05
-2.49367e-05
-2.76214e-05
-3.1607e-05
-2.64404e-05
-2.35356e-05
-2.58449e-05
-5.07397e-05
-4.52649e-05
-3.17131e-05
-5.28807e-05
-1.49275e-05
-3.38043e-05
-2.1766e-05
-2.7857e-05
-8.75861e-06
-4.09056e-05
6.79367e-06
-4.23792e-05
1.25647e-05
-8.51786e-06
-1.79594e-05
2.83083e-05
-6.73186e-07
-4.02276e-05
8.80918e-07
-6.50233e-05
-3.07875e-06
-5.86426e-05
-3.4739e-06
-4.67673e-05
-7.28166e-06
-4.82978e-05
-1.30294e-05
-5.12723e-05
-2.54202e-05
-4.45419e-05
-3.17892e-05
-2.99226e-05
-3.89993e-05
-2.92574e-05
-3.5486e-05
-3.71492e-05
-3.19388e-05
-4.06017e-05
-3.51217e-05
-2.77463e-05
-3.74317e-05
-2.53114e-05
-3.87645e-05
-2.51076e-05
-2.65971e-05
-3.80122e-05
-3.38134e-05
-3.80486e-05
-2.19722e-05
-6.4722e-05
-3.01284e-05
-2.5648e-05
-2.58238e-06
-5.5403e-05
1.14894e-05
-5.49774e-05
1.54651e-05
-4.63549e-05
3.28466e-05
-2.58994e-05
-1.79306e-05
3.28178e-05
1.41984e-05
-5.4426e-05
7.79959e-06
-5.86244e-05
-1.56631e-06
-4.92767e-05
-4.2733e-06
-4.40603e-05
-3.74983e-06
-4.88213e-05
-1.19741e-05
-4.3048e-05
-1.60265e-05
-4.04895e-05
-1.94278e-05
-2.65213e-05
-2.34129e-05
-2.52723e-05
-2.56558e-05
-3.49064e-05
-2.40018e-05
-4.22556e-05
-2.91975e-05
-2.25506e-05
-2.88094e-05
-2.56995e-05
-3.38472e-05
-2.00698e-05
-3.81241e-06
-6.8047e-05
1.46781e-07
-4.20078e-05
-1.40425e-05
-5.05327e-05
-7.66946e-07
-3.89236e-05
1.72944e-05
-7.34644e-05
3.20227e-05
-6.97057e-05
4.12938e-05
-5.5626e-05
3.9749e-05
-2.43545e-05
-2.30401e-05
4.48585e-05
-2.22342e-05
-3.21918e-05
-1.62981e-06
-7.92289e-05
1.41864e-05
-6.50929e-05
7.5452e-06
-3.74191e-05
-6.65482e-07
-4.06106e-05
-6.44895e-06
-3.72645e-05
-9.87663e-06
-3.70618e-05
-1.93992e-05
-1.69988e-05
-1.61019e-05
-2.85696e-05
-1.41631e-05
-3.68451e-05
-1.97536e-05
-3.66651e-05
-1.7434e-05
-2.48702e-05
-2.45379e-05
-1.85957e-05
-1.78522e-05
-2.67556e-05
-1.67424e-05
-6.91568e-05
-1.27839e-05
-4.59663e-05
-1.67868e-05
-4.65298e-05
1.7322e-05
-7.30324e-05
1.8532e-05
-7.46743e-05
2.545e-05
-7.66237e-05
3.11402e-05
-6.13162e-05
5.79776e-05
-5.11919e-05
-2.09715e-05
5.5909e-05
-6.58278e-06
-2.5609e-05
-1.1582e-05
-7.42296e-05
-1.22181e-05
-6.44568e-05
-2.0685e-05
-2.89522e-05
-8.77239e-07
-6.04183e-05
-1.16604e-05
-2.64814e-05
-1.72464e-05
-3.14758e-05
-9.10629e-06
-2.51389e-05
-1.41844e-05
-2.34915e-05
-7.54162e-06
-4.34879e-05
-1.04947e-05
-3.37121e-05
-1.94964e-05
-1.58685e-05
-1.65961e-05
-2.1496e-05
-1.53861e-05
-2.79656e-05
-1.68043e-05
-6.77386e-05
5.4829e-06
-6.82534e-05
2.68003e-05
-6.78472e-05
3.30881e-05
-7.93202e-05
3.87054e-05
-8.02916e-05
4.58827e-05
-8.3801e-05
5.0394e-05
-6.58275e-05
3.24404e-05
-3.32384e-05
-2.00582e-05
3.15271e-05
-7.92144e-06
-1.76876e-05
-6.26558e-06
-7.58855e-05
-8.88498e-06
-6.18374e-05
-3.80936e-06
-3.40279e-05
-7.02173e-06
-5.7206e-05
-4.72024e-06
-2.87829e-05
-9.44502e-06
-2.6751e-05
-1.98445e-05
-1.47395e-05
-6.4435e-06
-3.68925e-05
-9.05912e-06
-4.08722e-05
-1.49248e-05
-2.78464e-05
-1.45694e-05
-1.62239e-05
-1.92326e-05
-1.68327e-05
-1.31539e-06
-4.58829e-05
2.42107e-06
-7.14751e-05
4.73354e-06
-7.05659e-05
9.21969e-06
-7.23334e-05
1.63636e-05
-8.64641e-05
2.37807e-05
-8.77088e-05
3.16326e-05
-9.16529e-05
3.26153e-05
-6.68102e-05
2.85782e-05
-2.92013e-05
-2.9095e-05
3.7615e-05
-7.01353e-06
-1.06741e-05
-8.11578e-06
-7.47832e-05
-1.73323e-05
-5.26209e-05
-6.13377e-06
-4.52264e-05
-1.30039e-05
-5.03359e-05
-8.22021e-06
-3.35665e-05
-6.80233e-06
-2.81689e-05
-6.65861e-06
-1.48832e-05
-2.0236e-05
-2.33151e-05
2.21898e-06
-6.33273e-05
6.21565e-06
-3.1843e-05
-3.20029e-06
-6.80796e-06
-9.47902e-07
-1.90851e-05
3.55552e-06
-5.03863e-05
5.44071e-06
-7.33603e-05
9.67815e-06
-7.48033e-05
1.57657e-05
-7.8421e-05
1.97034e-05
-9.04017e-05
2.26823e-05
-9.06877e-05
2.62369e-05
-9.52075e-05
2.46013e-05
-6.51747e-05
2.74673e-05
-3.20673e-05
-3.58975e-05
3.42699e-05
-7.30528e-07
-9.94354e-06
-1.47368e-07
-7.53664e-05
9.91903e-07
-5.37601e-05
-6.41778e-06
-3.78167e-05
-1.43996e-06
-5.53137e-05
-5.95263e-06
-2.90539e-05
1.16536e-07
-3.42381e-05
3.78184e-06
-1.85485e-05
2.03476e-06
-2.1568e-05
6.36519e-07
-6.1929e-05
-2.63404e-07
-3.09431e-05
-1.99481e-06
-5.07655e-06
8.62765e-06
-2.97076e-05
1.64669e-05
-5.82255e-05
1.95924e-05
-7.64859e-05
1.99568e-05
-7.51678e-05
2.63422e-05
-8.48063e-05
3.16556e-05
-9.57152e-05
4.04746e-05
-9.95067e-05
3.16949e-05
-8.64278e-05
2.76176e-05
-6.10974e-05
4.40684e-05
-4.85181e-05
-4.39456e-05
5.21165e-05
2.13288e-05
-3.12723e-05
-4.73561e-06
-4.9302e-05
-1.50749e-05
-4.34209e-05
-7.13511e-06
-4.57565e-05
-1.99618e-05
-4.2487e-05
-1.05313e-05
-3.84843e-05
-1.12378e-05
-3.35316e-05
-2.47867e-06
-2.73077e-05
2.3595e-07
-2.42826e-05
2.69182e-06
-6.43849e-05
-7.53997e-06
-2.07113e-05
-3.91281e-06
-8.70371e-06
1.35668e-05
-4.71871e-05
1.06081e-05
-5.52668e-05
1.05508e-05
-7.64286e-05
1.66998e-05
-8.13167e-05
2.37028e-05
-9.18093e-05
2.72913e-05
-9.93036e-05
4.46678e-05
-0.000116883
5.14752e-05
-9.32352e-05
2.87394e-05
-3.83615e-05
5.74819e-05
-7.72607e-05
-2.54935e-05
3.90299e-05
3.60937e-06
-3.48817e-05
1.01979e-06
-4.67124e-05
2.25821e-06
-4.46593e-05
1.26489e-07
-4.36248e-05
-7.75136e-08
-4.2283e-05
1.41515e-06
-3.9977e-05
5.25641e-06
-3.73728e-05
1.17128e-05
-3.37642e-05
2.3493e-05
-3.60628e-05
7.47867e-07
-4.16398e-05
8.15874e-06
-2.81222e-05
2.72995e-05
-2.78445e-05
1.39999e-05
-3.38875e-05
2.87725e-05
-7.00394e-05
3.93398e-05
-8.69959e-05
1.77156e-05
-5.96926e-05
3.4319e-05
-0.000108413
4.53118e-05
-0.000110296
5.36534e-05
-0.000125225
2.33222e-05
-6.2904e-05
4.17649e-05
-5.68042e-05
1.71322e-05
-5.2628e-05
-3.34064e-05
2.50451e-05
1.28026e-06
-3.6162e-05
-1.11779e-06
-4.43144e-05
-2.05218e-06
-4.37249e-05
-2.31278e-06
-4.33642e-05
-2.9699e-06
-4.16259e-05
-1.84136e-06
-4.11055e-05
-1.13845e-07
-3.91003e-05
3.78747e-06
-3.76655e-05
5.74339e-06
-3.80187e-05
4.12144e-06
-4.00178e-05
8.86132e-06
-3.28621e-05
1.56892e-05
-3.46723e-05
1.4169e-05
-3.23674e-05
2.23148e-05
-7.81853e-05
2.97408e-05
-9.44218e-05
2.35008e-05
-5.34527e-05
2.70685e-05
-0.00011198
3.7475e-05
-0.000120703
3.47176e-05
-0.000122467
3.00131e-05
-5.81995e-05
3.42684e-05
-6.10596e-05
3.55564e-05
-5.3916e-05
-4.13655e-05
4.35155e-05
1.65523e-06
-3.78172e-05
2.4872e-06
-4.51463e-05
3.66126e-06
-4.4899e-05
4.41234e-06
-4.41153e-05
5.34522e-06
-4.25588e-05
7.1861e-06
-4.29464e-05
9.02007e-06
-4.09343e-05
1.19904e-05
-4.06358e-05
1.33072e-05
-3.93356e-05
1.23055e-05
-3.90161e-05
1.58222e-05
-3.63788e-05
1.89545e-05
-3.78046e-05
2.08329e-05
-3.42458e-05
2.52148e-05
-8.25671e-05
3.13964e-05
-0.000100603
2.45169e-05
-4.65732e-05
2.66891e-05
-0.000114152
2.36353e-05
-0.000117649
2.32748e-05
-0.000122107
2.62389e-05
-6.11637e-05
3.12612e-05
-6.60818e-05
3.61612e-05
-5.8816e-05
-4.63731e-05
4.11688e-05
9.8586e-07
-3.88031e-05
1.47676e-06
-4.56373e-05
2.12883e-06
-4.5551e-05
2.98415e-06
-4.49706e-05
3.9896e-06
-4.35642e-05
5.30524e-06
-4.42621e-05
7.12532e-06
-4.27544e-05
9.14449e-06
-4.26549e-05
1.12635e-05
-4.14546e-05
1.37619e-05
-4.15145e-05
1.59147e-05
-3.85317e-05
1.87365e-05
-4.06263e-05
2.15711e-05
-3.70805e-05
2.64803e-05
-8.74764e-05
1.99585e-05
-9.40816e-05
2.53982e-05
-5.20129e-05
3.22904e-05
-0.000121045
3.74676e-05
-0.000122826
2.84488e-05
-0.000113088
3.27564e-05
-6.54714e-05
4.28539e-05
-7.61793e-05
4.79065e-05
-6.38687e-05
-4.80339e-05
4.95673e-05
1.41797e-06
-4.0221e-05
1.8711e-06
-4.60904e-05
3.23887e-06
-4.69188e-05
4.52422e-06
-4.6256e-05
7.89347e-06
-4.69335e-05
9.31008e-06
-4.56787e-05
1.18239e-05
-4.52682e-05
1.34926e-05
-4.43236e-05
1.53234e-05
-4.32855e-05
1.67726e-05
-4.29636e-05
1.92394e-05
-4.09984e-05
2.14824e-05
-4.28693e-05
2.30013e-05
-3.85994e-05
2.60122e-05
-9.04873e-05
2.34426e-05
-9.1512e-05
7.54361e-05
-0.000104006
3.29353e-05
-7.85438e-05
3.87311e-05
-0.000128622
3.46828e-05
-0.00010904
4.78507e-05
-7.86393e-05
4.50431e-05
-7.33717e-05
5.36994e-05
-7.25249e-05
-4.93874e-05
5.50529e-05
1.86181e-06
-4.20829e-05
3.34542e-06
-4.7574e-05
4.81927e-06
-4.83927e-05
6.59174e-06
-4.80284e-05
8.13646e-06
-4.84782e-05
9.72193e-06
-4.72642e-05
1.1178e-05
-4.67243e-05
1.32691e-05
-4.64147e-05
1.5563e-05
-4.55794e-05
1.83172e-05
-4.57178e-05
2.14583e-05
-4.41395e-05
2.48282e-05
-4.62393e-05
2.81316e-05
-4.19027e-05
3.29893e-05
-9.5345e-05
3.72401e-05
-9.57628e-05
4.99055e-05
-0.000116672
3.99138e-05
-6.85522e-05
4.49677e-05
-0.000133676
7.00312e-06
-7.10751e-05
6.35498e-05
-0.000135186
5.44662e-05
-6.42881e-05
5.50468e-05
-7.31055e-05
-5.3338e-05
5.89974e-05
2.49981e-06
-4.45827e-05
4.88169e-06
-4.99559e-05
6.84511e-06
-5.03561e-05
8.81446e-06
-4.99978e-05
1.02421e-05
-4.99059e-05
1.21881e-05
-4.92101e-05
1.4216e-05
-4.87522e-05
1.61828e-05
-4.83815e-05
1.84424e-05
-4.7839e-05
1.98739e-05
-4.71494e-05
2.22877e-05
-4.65534e-05
2.35921e-05
-4.75436e-05
2.57878e-05
-4.40984e-05
2.90182e-05
-9.85754e-05
3.57632e-05
-0.000102508
3.19093e-05
-0.000112818
8.16359e-05
-0.000118279
2.66781e-05
-7.87184e-05
3.49635e-05
-7.93605e-05
2.95707e-05
-0.000129793
8.13182e-05
-0.000116036
6.95349e-05
-6.13222e-05
-6.49056e-05
8.11025e-05
2.41277e-06
-4.69954e-05
4.36925e-06
-5.19124e-05
6.20159e-06
-5.21884e-05
8.09349e-06
-5.18897e-05
9.96652e-06
-5.17789e-05
1.2159e-05
-5.14027e-05
1.42803e-05
-5.08735e-05
1.62232e-05
-5.03244e-05
1.82605e-05
-4.98763e-05
1.92427e-05
-4.81315e-05
2.17376e-05
-4.90482e-05
2.11834e-05
-4.69894e-05
2.3958e-05
-4.68731e-05
2.07225e-05
-9.53399e-05
2.56864e-05
-0.000107472
2.68129e-05
-0.000113945
4.30993e-05
-0.000134565
4.79591e-05
-8.35782e-05
3.50194e-05
-6.64208e-05
4.20861e-05
-0.00013686
4.39193e-05
-0.000117869
5.34582e-05
-7.08611e-05
-7.24887e-05
6.10413e-05
2.68195e-06
-4.96774e-05
4.83968e-06
-5.40701e-05
6.7073e-06
-5.40561e-05
8.80702e-06
-5.39894e-05
1.07755e-05
-5.37474e-05
1.26997e-05
-5.33269e-05
1.44605e-05
-5.26342e-05
1.65058e-05
-5.23697e-05
1.84396e-05
-5.18101e-05
2.00546e-05
-4.97465e-05
2.21772e-05
-5.11709e-05
2.26805e-05
-4.74927e-05
2.64038e-05
-5.05964e-05
2.39548e-05
-9.28909e-05
2.67003e-05
-0.000110217
4.36532e-05
-0.000130897
4.88765e-05
-0.000139788
3.97478e-05
-7.44495e-05
4.18617e-05
-6.85348e-05
6.37816e-05
-0.00015878
6.55303e-05
-0.000119618
6.28715e-05
-6.82023e-05
-8.01569e-05
7.05397e-05
2.55454e-06
-5.22319e-05
4.50105e-06
-5.60166e-05
6.43629e-06
-5.59913e-05
8.44432e-06
-5.59975e-05
1.03799e-05
-5.56829e-05
1.28208e-05
-5.57678e-05
1.49452e-05
-5.47586e-05
1.73979e-05
-5.48224e-05
1.95905e-05
-5.40027e-05
2.26283e-05
-5.27842e-05
2.49531e-05
-5.34957e-05
2.86078e-05
-5.11474e-05
3.22092e-05
-5.41978e-05
3.80416e-05
-9.87233e-05
3.90056e-05
-0.000111181
3.71855e-05
-0.000129077
2.56466e-05
-0.00012825
8.38633e-05
-0.000132666
9.90014e-05
-8.36729e-05
3.73901e-05
-9.71684e-05
5.09817e-05
-0.000133209
4.60488e-05
-6.32694e-05
-0.000142206
0.000108098
2.42944e-06
-5.46614e-05
4.38788e-06
-5.79751e-05
6.25337e-06
-5.78568e-05
8.26651e-06
-5.80106e-05
1.01612e-05
-5.75776e-05
1.22703e-05
-5.78769e-05
1.3911e-05
-5.63993e-05
1.61017e-05
-5.70132e-05
1.71411e-05
-5.5042e-05
2.02163e-05
-5.58595e-05
2.01798e-05
-5.34592e-05
2.45769e-05
-5.55445e-05
1.90812e-05
-4.87021e-05
2.11929e-05
-0.000100835
2.4963e-05
-0.000114951
2.67441e-05
-0.000130858
4.38475e-05
-0.000145353
5.28888e-05
-0.000141707
6.28313e-05
-9.36154e-05
4.68102e-05
-8.11473e-05
6.56229e-05
-0.000152022
8.26007e-05
-8.02472e-05
-0.000144903
8.52976e-05
2.11196e-06
-5.67733e-05
3.77101e-06
-5.96341e-05
5.5573e-06
-5.96431e-05
7.44017e-06
-5.98935e-05
9.59162e-06
-5.9729e-05
1.16636e-05
-5.99489e-05
1.39106e-05
-5.86464e-05
1.61813e-05
-5.92839e-05
1.81747e-05
-5.70354e-05
2.11034e-05
-5.87883e-05
2.24935e-05
-5.48494e-05
2.65532e-05
-5.96042e-05
2.12021e-05
-4.33509e-05
2.20872e-05
-0.00010172
3.18692e-05
-0.000124733
3.44774e-05
-0.000133466
3.24368e-05
-0.000143312
2.32695e-05
-0.00013254
7.47292e-05
-0.000145075
4.99535e-05
-5.63716e-05
4.54514e-05
-0.00014752
5.08701e-05
-8.56659e-05
-0.000165786
7.17531e-05
2.10509e-06
-5.88784e-05
3.65995e-06
-6.1189e-05
5.43993e-06
-6.1423e-05
7.08742e-06
-6.1541e-05
8.96943e-06
-6.1611e-05
1.10323e-05
-6.20118e-05
1.38106e-05
-6.14246e-05
1.60963e-05
-6.15696e-05
1.92767e-05
-6.02158e-05
2.17089e-05
-6.12204e-05
2.53398e-05
-5.84803e-05
2.32685e-05
-5.75329e-05
2.45973e-05
-4.46798e-05
3.35303e-05
-0.000110653
3.27469e-05
-0.00012395
3.60189e-05
-0.000136738
2.5896e-05
-0.00013319
3.42518e-05
-0.000140896
4.68508e-05
-0.000157674
7.30163e-05
-8.25371e-05
2.54472e-05
-9.99507e-05
8.46019e-05
-0.000144821
-0.000113858
3.26745e-05
1.80565e-06
-6.06841e-05
3.25001e-06
-6.26333e-05
4.76414e-06
-6.29372e-05
6.20976e-06
-6.29866e-05
7.98318e-06
-6.33845e-05
9.56484e-06
-6.35934e-05
1.18799e-05
-6.37397e-05
1.42111e-05
-6.39007e-05
1.70986e-05
-6.31033e-05
1.82569e-05
-6.23787e-05
2.03903e-05
-6.06136e-05
1.8333e-05
-5.54756e-05
2.07424e-05
-4.70892e-05