/*--------------------------------*- C++ -*----------------------------------*\
| =========                 |                                                 |
| \\      /  F ield         | foam-extend: Open Source CFD                    |
|  \\    /   O peration     | Version:     4.1                                |
|   \\  /    A nd           | Web:         http://www.foam-extend.org         |
|    \\/     M anipulation  |                                                 |
\*---------------------------------------------------------------------------*/
FoamFile
{
    version     2.0;
    format      ascii;
    class       volScalarField;
    location    "0.35";
    object      psi;
}
// * * * * * * * * * * * * * * * * * * * * * * * * * * * * * * * * * * * * * //

dimensions      [1 -1 -2 0 0 0 0];

internalField   nonuniform List<scalar> 
2268
(
-0.000758642
-0.000706144
-0.000674868
-0.000813422
-0.000870279
-0.00107981
-0.00108937
-0.000101224
0.0019897
0.00265577
0.00235695
0.00200761
0.0022117
0.0028512
0.00319479
0.00280108
0.00187462
0.000265607
-0.00248096
-0.00204661
0.0030896
0.00435623
-0.0292237
8.55679e-05
0.000248909
0.000400153
0.000315543
0.000453408
0.000461193
0.00123223
0.0037008
0.00666704
0.00559201
0.00495494
0.00501813
0.00526401
0.00609712
0.00664942
0.0066129
0.00492757
0.00258508
-0.000533875
-0.000507062
0.00355446
0.0047261
-0.0288688
0.00318857
0.00352857
0.00382794
0.00420955
0.00472416
0.00556427
0.00805018
0.0126789
0.0154712
0.00744434
0.00876533
0.0104174
0.0105778
0.0114993
0.0124359
0.0131257
0.0124892
0.0105805
0.00661439
0.00529854
0.006467
0.00615121
-0.029512
0.00970787
0.0102319
0.0105546
0.0122486
0.0131435
0.0159838
0.0208313
0.0280394
0.0204069
0.00838651
0.0138005
0.0172922
0.017487
0.0170333
0.0180432
0.0201138
0.0221953
0.0229318
0.0187478
0.0150159
0.0126199
0.00811946
-0.0300659
0.0200866
0.0201943
0.0198726
0.0245952
0.0248752
0.0317163
0.0388127
0.0430278
0.00735493
0.00480008
0.0161605
0.021683
0.0228396
0.0171163
0.0158749
0.020381
0.0293485
0.0364288
0.0350887
0.0309199
0.0231904
0.0129915
-0.0306837
0.0312051
0.0289128
0.0268498
0.0373568
0.0340704
0.0461745
0.0534263
0.0320643
-0.0264935
-0.0157367
0.0120535
0.0157902
0.0181682
0.00172066
-0.0059332
0.00100005
0.0194819
0.0423512
0.0511478
0.0496257
0.040732
0.0222276
-0.0308264
0.0324585
0.023607
0.0194309
0.0372048
0.0239234
0.0417545
0.039821
-0.0453716
-0.0996738
-0.0702845
-0.0146245
-0.0192282
-0.0162102
-0.0448135
-0.0636408
-0.0552664
-0.0257093
0.0211897
0.0528595
0.0693452
0.0595204
0.0332826
-0.0301963
-0.00758408
-0.029863
-0.0348757
-0.0153922
-0.0476791
-0.0363568
-0.0733429
-0.195457
-0.252248
-0.202389
-0.123613
-0.151821
-0.134102
-0.157301
-0.180414
-0.175799
-0.135631
-0.0659537
-0.00422675
0.0527918
0.067996
0.0494109
-0.0302542
-0.429321
-0.198223
-0.0604924
-0.0919209
-0.00468299
0.00190576
-0.000323765
-0.00620074
-0.0154185
-0.0295711
-0.0283877
0.0652456
0.150224
0.278863
0.352401
0.643758
0.983702
0.911161
0.44276
-0.355238
0.0870932
0.553413
-0.0496404
-0.00606103
0.000870191
-0.000438999
-0.00608641
-0.0185763
-0.0562718
-0.134027
-0.0359215
-0.0161478
-0.0435604
-0.069021
0.181352
0.694259
1.27117
1.82276
-0.334577
0.257563
0.831788
-0.0167466
-0.0103879
-0.00134796
-0.000283502
0.000922847
0.0135697
0.0259709
0.0164284
-0.0702711
-0.0116858
-0.0352605
-0.0637781
-0.048027
0.217118
1.00246
2.24507
-0.369826
0.0804481
0.814919
-0.0577336
-0.0119853
-0.00332217
-0.000976481
0.00422065
0.0573659
0.158703
0.335068
-0.179028
-0.0185195
0.00136026
-0.021642
-0.0551532
-0.0398496
0.342746
2.48726
-0.861547
-0.686353
0.506977
-0.107367
-0.00490817
-0.00125544
-0.00568617
0.000766764
0.016528
0.195167
0.904096
-0.366221
-0.10178
0.0061122
-0.000969821
-0.0483927
-0.142087
-0.116932
2.77311
-2.08494
-1.31815
1.10016
-0.167335
0.0162565
0.0201418
-0.00501097
-0.00169566
-0.022762
0.136206
1.6751
-0.423322
-0.280747
-0.0510441
0.00334325
-0.014046
-0.161533
-0.251455
3.1064
-3.47957
-1.91067
1.28565
-0.388134
0.0252169
0.0635883
0.00938939
-0.00286935
-0.0783802
-0.0913892
2.62255
-0.0803927
-0.472243
-0.208883
-0.0217671
-0.000621666
-0.11579
-0.415957
3.3943
-3.61679
-3.02254
2.13672
-0.833876
-0.141881
0.0645913
0.0425668
0.00273218
-0.111171
-0.199259
3.22482
0.854694
-0.308017
-0.349357
-0.0858681
-0.00624544
-0.0988902
-0.764325
3.61627
-0.213555
-0.271817
-0.269728
-0.292021
-0.340513
-0.452902
-0.491946
-0.629432
-0.706236
-0.63082
-0.614552
-0.688633
-0.549149
-0.498843
-0.46561
-0.489177
-0.429833
-0.362863
-0.276595
-0.165156
-0.0212334
0.0546289
-0.0472976
-0.550006
-0.692739
-0.612875
-0.922912
-0.782888
-1.0561
-0.928532
-1.0179
-1.04555
-0.859245
-1.02496
-1.10107
-0.85967
-0.73814
-0.510539
-0.691483
-0.739043
-0.879954
-0.845212
-0.480597
-0.0501918
0.0601882
0.0517244
-0.862151
-1.0586
-0.801306
-1.30451
-0.883583
-1.07954
-0.75089
-0.752457
-0.462876
-0.264121
-0.448842
-0.426313
-0.414004
-0.714012
-0.332976
-0.339522
-0.66604
-1.29053
-1.48885
-1.04998
-0.490016
-0.255149
0.2673
0.500458
0.40926
0.70725
0.446513
0.877146
0.834961
1.12117
0.991132
1.03188
0.687862
0.659471
0.465898
0.699043
0.573637
0.320384
0.294683
0.577185
-0.372649
-1.08462
-1.28653
-0.902973
-1.64338
-0.71627
0.852023
0.832027
0.966255
0.876112
1.10933
1.0067
0.963054
0.634359
0.489941
0.285284
0.338171
0.145804
0.612235
0.460772
0.150399
0.20056
1.2041
0.922257
0.839743
0.336672
-0.25552
-0.345639
-0.377035
0.493761
0.485888
0.525084
0.514469
0.600012
0.552334
0.501685
0.335209
0.253121
0.16413
0.160558
0.021765
0.149791
0.0683811
-0.0552539
-0.174244
0.154018
0.851785
1.75285
1.69778
3.60788
1.44828
-0.371503
0.201301
0.196233
0.200622
0.195372
0.214898
0.194956
0.18292
0.125307
0.0873862
0.0528793
0.0391689
-0.0162763
0.0242649
0.0139051
0.031902
0.0896338
0.460053
0.93543
1.17396
0.742318
2.01956
0.509534
-0.0145394
0.0565927
0.0552528
0.0514053
0.0452222
0.0459716
0.037095
0.0386104
0.0279928
0.0145743
0.00247674
-0.00747615
-0.0158456
0.00557432
0.00999196
0.0215211
0.033766
0.0769399
0.396304
0.577518
-0.0658532
0.340279
0.0570665
-0.289477
0.00511523
0.00580288
0.00211988
-0.000790398
-0.00331816
-0.00546268
-0.00300661
-0.00104855
-0.0055421
-0.0106125
-0.0133708
-0.011084
-0.00374145
-0.00456359
-0.00550959
0.00286994
0.029071
0.334578
0.287283
-0.0212465
-0.0738152
-0.060579
-0.140327
-0.00615125
-0.00560207
-0.00732122
-0.00823866
-0.00858833
-0.00776722
-0.00654862
-0.00622232
-0.00861969
-0.0112628
-0.0119865
-0.00984272
-0.00939912
-0.0119342
-0.0125725
-0.012704
0.00434389
0.107945
0.0819995
-0.0280721
-0.041764
-0.03657
-0.0293352
-0.00586094
-0.00619825
-0.00635134
-0.00692432
-0.00671132
-0.00536241
-0.00482521
-0.00568981
-0.00831122
-0.0110617
-0.0112738
-0.00984393
-0.0108492
-0.0123089
-0.0140616
-0.0136122
-0.0118538
-0.0141186
-0.0187174
-0.0256821
-0.0185478
-0.0153539
-0.00381052
-0.00448211
-0.00530888
-0.00365001
-0.00393182
-0.00274219
-0.000447428
-0.000252294
-0.00274411
-0.00721695
-0.0083466
-0.00816723
-0.00646145
-0.01007
-0.00929994
-0.00946403
-0.00816287
-0.010518
-0.012713
-0.0119379
-0.00862071
-0.00751509
-0.00391782
-0.00115399
-0.000903206
-0.00119831
-0.00026669
-0.000745983
-0.000464968
0.000281961
0.000391885
-0.000740497
-0.00260135
-0.00305861
-0.0033479
-0.00282799
-0.00609949
-0.00498481
-0.0035634
-0.00170129
-0.00209468
-0.00289213
-0.00239133
-0.00114813
-0.000501089
-0.000201144
-0.00026857
9.85891e-05
-1.06899e-05
0.000114776
-3.49948e-05
6.30102e-05
0.000176424
0.000200457
4.92185e-05
-0.000284851
-0.000422871
-0.000745978
-0.000945132
-0.00242705
-0.00223622
-0.00153271
-0.000142545
-0.000221988
-0.000448641
-0.000107787
5.90624e-05
0.00015668
7.14687e-05
-4.50262e-05
8.80464e-05
6.38237e-05
7.26045e-05
4.94394e-05
5.31547e-05
0.000104407
0.000143174
0.000155128
0.000161304
0.000129678
3.39695e-05
-8.92765e-05
-0.00044307
-0.000502966
-0.000416313
6.06289e-05
7.84461e-05
-1.48989e-07
4.52439e-05
7.05538e-05
6.54318e-05
3.46496e-05
2.25276e-05
3.89219e-05
2.42148e-05
3.56723e-05
3.67267e-05
4.03115e-05
3.06018e-05
5.2572e-05
0.00010639
0.000120867
0.000101173
7.51548e-05
5.52574e-05
4.59693e-06
-1.5743e-05
-2.4976e-06
3.27773e-05
3.9488e-05
2.3674e-05
2.28863e-05
1.72237e-05
1.35027e-05
9.61385e-06
8.63946e-06
5.2216e-07
-9.30669e-07
1.41158e-06
6.52838e-06
6.16508e-06
4.86635e-06
8.98568e-06
2.69007e-05
3.66298e-05
3.64823e-05
4.11598e-05
3.28929e-05
2.77215e-05
2.78057e-05
2.49571e-05
1.05034e-05
9.77823e-06
6.22015e-06
4.56669e-06
2.63483e-06
1.06954e-06
1.17399e-06
1.12151e-06
-1.4764e-06
-1.38259e-06
-1.4006e-06
-1.49441e-07
-4.60702e-07
-5.46869e-07
-5.5579e-07
3.35022e-06
4.55152e-06
3.27838e-06
5.05568e-06
9.97749e-06
1.1917e-05
1.06703e-05
6.79365e-06
3.504e-06
1.35657e-06
5.63042e-07
2.06877e-07
-1.1291e-07
-2.22042e-07
-1.44439e-07
-8.53318e-08
-5.85706e-07
-4.44791e-07
-4.56072e-07
-4.1501e-07
-6.87379e-07
-7.46308e-07
-9.19794e-07
-8.35043e-07
-7.36439e-07
-1.29872e-06
-6.60633e-07
1.48346e-06
2.6262e-06
1.49751e-06
-1.55035e-07
-1.94587e-07
-1.49802e-07
-1.43698e-07
-9.42675e-08
-8.45638e-08
-6.72355e-08
-6.13225e-08
-5.66797e-08
-1.33668e-07
1.50079e-08
-5.7605e-08
-2.22016e-07
-4.02754e-07
-4.59082e-07
-4.94655e-07
-6.32255e-07
-5.79602e-07
-5.57521e-07
-5.17187e-07
-1.40176e-07
1.80302e-07
-1.3398e-07
-2.72382e-07
-1.59283e-07
-9.06213e-08
-5.43179e-08
-3.07808e-08
-1.79705e-08
-1.20174e-08
-1.48773e-08
-2.20626e-08
-3.38538e-08
2.35942e-08
7.32398e-09
-2.64751e-08
-3.88719e-08
-1.40451e-07
-2.21888e-07
-3.62689e-07
-2.86022e-07
-1.44042e-07
-2.18417e-07
-2.22662e-07
-1.15691e-07
-1.03179e-07
-6.64904e-08
-3.66427e-08
-1.98313e-08
-5.39484e-09
-2.30583e-09
-3.10091e-10
-1.07405e-09
-5.01329e-09
-9.65912e-09
-6.09854e-09
8.11837e-09
7.73272e-09
6.40144e-09
1.54385e-08
-1.08545e-08
-2.94738e-08
-9.38239e-08
-5.94844e-08
1.55123e-08
-3.21757e-08
-9.41268e-08
-5.99131e-08
-3.4927e-08
-1.54121e-09
3.2207e-09
2.36538e-09
1.62372e-09
6.32433e-10
1.00093e-10
-1.47485e-09
-6.51677e-09
-1.82567e-08
1.32969e-09
2.53782e-09
3.5383e-09
3.91793e-09
7.37005e-09
6.72602e-09
6.35754e-09
-6.63962e-09
-8.76379e-10
1.38866e-08
2.17739e-09
-1.5294e-08
-1.109e-09
2.30215e-09
3.09011e-09
1.76837e-09
9.13403e-10
4.70741e-10
2.96852e-10
-4.14491e-10
-3.76661e-09
-9.09802e-09
3.68767e-09
9.7307e-10
4.42352e-10
5.40433e-10
1.37872e-09
2.93771e-09
3.79525e-09
4.91498e-09
3.6933e-09
3.31737e-09
4.08759e-09
3.27494e-09
1.27084e-09
2.66223e-09
1.82766e-09
7.4455e-10
3.22537e-10
7.38324e-11
8.91181e-11
-1.95091e-10
-1.73448e-09
-7.59866e-09
-1.19213e-08
4.52488e-08
1.03739e-10
-6.92854e-11
-1.12945e-10
-5.70282e-11
1.06915e-10
4.64234e-10
1.27922e-09
1.55925e-09
1.29299e-09
7.9559e-10
1.29908e-09
1.19969e-09
9.98999e-10
2.73712e-10
-5.06429e-11
-2.95235e-11
4.67926e-11
1.57e-10
-3.65334e-10
-3.01919e-09
-9.08561e-09
-1.25575e-08
2.27219e-08
-3.16536e-11
-5.33024e-11
-7.26855e-11
-9.79198e-11
-1.3274e-10
-1.20836e-10
-1.95361e-11
7.74673e-11
4.87857e-11
-4.38716e-11
5.24275e-11
1.1439e-10
8.38013e-11
-4.10867e-11
-3.86236e-11
-1.34561e-11
7.87664e-11
2.28001e-10
-4.17181e-10
-4.58637e-09
-9.80917e-09
-1.17805e-08
1.91287e-08
-1.73003e-11
-1.91618e-11
-2.01101e-11
-3.17581e-11
-4.4797e-11
-5.46201e-11
-5.52945e-11
-4.96171e-11
-4.68889e-11
-5.09255e-11
-4.76054e-11
-3.31502e-11
-2.48361e-11
-1.81078e-11
-1.2477e-11
-2.69675e-12
1.00025e-10
2.93163e-10
-2.63159e-10
-5.06851e-09
-8.91387e-09
-1.69879e-08
-4.22906e-08
-5.33346e-13
3.99609e-13
1.37431e-12
1.15402e-12
-5.16676e-13
-4.85859e-12
-1.46071e-11
-1.56699e-11
-1.42139e-11
-1.61342e-11
-1.54015e-11
-1.35423e-11
-1.07004e-11
-5.09118e-12
-4.49072e-12
-1.26898e-12
1.01447e-10
3.36716e-10
-3.45441e-10
-5.80496e-09
-7.90639e-09
-1.50829e-08
-6.64826e-08
6.97576e-13
1.09489e-12
1.23401e-12
1.48202e-12
1.69242e-12
1.41415e-12
5.75057e-13
2.57405e-13
1.63693e-13
7.46068e-14
-2.04858e-13
-3.91507e-13
-6.9604e-13
-1.63088e-12
-5.71715e-12
1.11794e-11
1.64872e-10
4.24674e-10
-6.11816e-10
-7.75592e-09
-7.33278e-09
-1.16686e-08
-7.33634e-08
2.88568e-13
5.24441e-13
2.82583e-13
3.84135e-13
5.92298e-13
5.2737e-13
5.58211e-13
7.05279e-13
5.78116e-13
5.21186e-13
5.53615e-13
5.55869e-13
2.11793e-13
-2.92546e-12
-7.14036e-12
3.07962e-11
2.10331e-10
5.30064e-10
-9.52781e-10
-8.93353e-09
-1.39417e-09
-4.84741e-10
-4.8381e-08
-1.1006e-14
3.71888e-14
1.0752e-13
-2.65645e-14
1.83932e-14
-1.89949e-14
1.55569e-13
2.77169e-13
2.53474e-13
1.55631e-13
6.77382e-14
2.99859e-13
-1.59802e-13
-5.44971e-12
-6.28157e-12
8.09135e-11
3.00637e-10
5.92677e-10
-2.77097e-09
-1.61508e-08
9.2297e-09
7.14848e-08
1.40023e-07
4.49561e-14
9.7649e-14
1.43317e-13
1.30452e-13
-3.18814e-14
1.6176e-14
1.20305e-13
1.8201e-14
6.05451e-14
4.16849e-14
2.15683e-14
1.85339e-13
-9.25147e-13
-9.09815e-12
-5.81776e-12
1.94764e-10
5.17965e-10
6.60008e-10
-8.62162e-09
-3.01114e-08
1.65252e-08
2.3545e-07
4.52381e-07
6.64576e-14
1.93525e-13
6.40316e-14
2.02145e-13
4.10115e-14
6.62512e-14
1.979e-13
1.6587e-13
2.84375e-13
8.97612e-14
-4.77976e-14
3.28149e-13
-1.66058e-12
-1.34258e-11
-4.46939e-12
3.55246e-10
1.00765e-09
-7.8755e-11
-2.13229e-08
-5.76381e-08
8.63507e-08
7.93579e-07
7.37883e-07
5.38251e-14
4.69097e-14
8.2264e-14
-4.15807e-14
9.24755e-14
1.6719e-13
6.8167e-14
2.87207e-14
2.34175e-13
4.70989e-14
9.77423e-14
4.02051e-13
-2.60973e-12
-1.85079e-11
6.17937e-12
5.66221e-10
1.86153e-09
-1.75632e-09
-4.69596e-08
-9.68414e-08
7.95462e-08
1.50375e-06
1.11508e-06
1.16702e-13
1.29526e-13
1.45099e-13
9.05677e-14
4.50635e-14
5.45387e-14
1.56936e-13
2.25548e-13
2.2342e-13
1.98929e-13
1.51204e-13
3.37057e-13
-3.35924e-12
-2.29129e-11
3.91995e-12
7.30258e-10
2.71236e-09
-2.97668e-09
-7.38734e-08
-1.34724e-07
1.6846e-07
2.4201e-06
1.46079e-06
1.68696e-13
1.4279e-13
1.60252e-13
1.93455e-13
5.90992e-15
1.5063e-13
1.43816e-13
3.2182e-13
2.16793e-13
1.09347e-13
8.96156e-14
3.15974e-13
-4.11993e-12
-2.61028e-11
5.64234e-12
8.77401e-10
3.15187e-09
-3.92007e-09
-8.32702e-08
-1.73374e-07
1.99718e-07
3.84211e-06
3.39935e-06
5.59662e-14
9.19977e-14
1.41858e-13
5.71622e-14
9.42353e-14
6.87721e-14
7.96445e-14
2.8907e-13
2.13181e-13
6.33354e-14
1.47984e-13
4.00067e-13
-5.10239e-12
-2.92988e-11
3.12189e-11
1.06341e-09
3.23044e-09
-7.57411e-09
-9.48055e-08
-1.89388e-07
4.25046e-07
4.84846e-06
5.99444e-06
6.56559e-14
7.75235e-14
9.48262e-14
6.03152e-14
7.31265e-14
1.29119e-13
1.17436e-13
2.92261e-13
2.04519e-13
-6.85878e-14
1.83265e-13
4.31461e-13
-5.7472e-12
-3.39095e-11
6.27191e-11
1.21396e-09
3.56935e-09
-8.84575e-09
-1.07917e-07
-2.05505e-07
6.52449e-07
5.55954e-06
7.92575e-06
1.99429e-13
6.90465e-14
1.74787e-14
3.47185e-14
3.78606e-14
2.36452e-13
1.54536e-13
3.68033e-13
1.97101e-13
-7.85825e-14
2.4617e-13
3.82489e-13
-6.70279e-12
-3.58959e-11
7.91446e-11
1.44247e-09
3.41731e-09
-1.59366e-08
-1.22791e-07
-2.0884e-07
8.66284e-07
6.26842e-06
8.90531e-06
1.5482e-13
2.99359e-14
6.99632e-14
-2.35694e-16
4.58888e-14
1.6233e-13
1.83776e-13
3.08958e-13
2.44072e-13
-3.03965e-14
1.52841e-13
4.30825e-13
-6.72599e-12
-3.75432e-11
9.55885e-11
1.6814e-09
3.41422e-09
-2.15311e-08
-1.31983e-07
-2.17518e-07
1.19401e-06
8.08719e-06
5.16128e-06
1.10159e-13
8.49305e-14
7.03687e-14
5.40661e-14
-2.8107e-14
2.14409e-13
2.51061e-13
3.67337e-13
1.83783e-13
-1.23696e-14
2.96962e-13
4.42678e-13
-6.71874e-12
-3.78909e-11
9.08977e-11
1.79336e-09
3.26432e-09
-2.5552e-08
-1.30271e-07
-2.28035e-07
1.24716e-06
9.03178e-06
9.359e-06
1.08745e-15
6.79612e-16
-2.25702e-14
9.50273e-14
4.51029e-14
2.61938e-13
4.40203e-14
3.29313e-13
1.7271e-13
4.76918e-14
2.08279e-13
4.58942e-13
-5.69822e-12
-3.69288e-11
5.52795e-11
1.82754e-09
3.21752e-09
-2.86785e-08
-1.17236e-07
-2.05119e-07
1.12303e-06
8.9656e-06
1.13088e-05
0.0441135
1.35555
3.40792
4.18871
0.0812674
0.554235
1.22149
1.89627
0.403687
0.421605
0.54789
0.782263
-0.0554624
-0.300364
0.0428143
0.53044
-0.308726
-0.303635
0.22668
-1.01343
0.136542
0.133402
0.0688168
-2.47251
-0.198392
-0.251677
-0.283253
-1.4542
-0.299151
-0.330665
-0.230686
-0.461046
-0.130465
-0.131838
-0.104875
-0.0474872
-0.0272374
-0.027175
-0.0327246
-0.0396707
-0.00112914
-0.00118761
-0.00492848
-0.013611
2.96053e-05
0.000711674
0.000880389
0.00023647
-0.000110804
2.30002e-05
0.000211348
0.000448014
-4.27685e-05
-3.61214e-05
-2.7037e-05
-1.00463e-05
1.49131e-05
1.16518e-05
4.41891e-06
-3.84793e-06
7.48782e-06
6.84667e-06
5.86344e-06
4.32534e-06
1.01866e-06
1.05289e-06
1.09058e-06
1.16323e-06
-7.49609e-08
-4.13072e-08
2.56576e-08
1.17694e-07
-4.74391e-08
5.84195e-09
1.02009e-07
1.64915e-07
4.90748e-10
1.14135e-07
2.78365e-07
3.54942e-07
3.78765e-08
1.95813e-07
3.84175e-07
4.14226e-07
1.21559e-08
1.95343e-07
4.1408e-07
4.60898e-07
1.40844e-07
4.05632e-07
5.95216e-07
4.92242e-07
2.46195e-07
5.53045e-07
7.77387e-07
6.73677e-07
1.63108e-07
5.35098e-07
1.02161e-06
1.26604e-06
1.65352e-07
7.4717e-07
1.6512e-06
2.20167e-06
1.19304e-08
7.30102e-07
2.24751e-06
3.16809e-06
-1.37872e-07
5.47923e-07
2.27877e-06
3.76191e-06
-2.15995e-07
4.05878e-07
2.25362e-06
3.96746e-06
-2.87232e-07
2.04237e-07
2.25597e-06
4.98919e-06
2.0639e-07
1.36669e-06
4.23503e-06
6.66187e-06
4.97782e-07
1.86943e-06
5.11109e-06
1.06472e-05
1.3142e-06
4.24745e-06
9.7876e-06
1.01795e-05
2.10613e-06
5.94906e-06
1.43486e-05
1.37543e-05
1.63878e-07
1.24741e-07
4.62358e-06
9.58598e-07
-1.22446e-05
-1.95458e-05
-3.60834e-05
-8.12658e-05
-1.96978e-05
-5.28159e-05
-8.06846e-05
-0.00013996
-1.86273e-05
-7.97058e-05
-0.000146335
-0.000204928
-1.06776e-05
-7.69894e-05
-0.000206457
-0.000289993
-5.8326e-05
-0.00013472
-0.000235675
-0.000347324
-6.00776e-05
-0.000187476
-0.000305836
-0.00039538
-4.84345e-05
-0.000205541
-0.00033073
-0.000401502
-0.899364
-4.10768
2.29337
-1.95077
-1.10136
-0.404788
-0.0856631
-0.0652094
-0.157592
-0.241975
3.47718
2.7252
1.72889
0.122726
-0.124066
-0.0129977
-0.0959119
-0.971747
3.77294
3.3873
-2.8599
3.23305
-3.45084
-3.98092
-2.09666
-0.9
-0.315496
-0.344784
-0.219928
3.55287
3.7901
3.90563
1.52052
-0.00979926
-0.051963
-0.214623
-1.16267
4.20179
1.3339
1.82618
2.4444
-0.631855
1.36137
0.307338
-1.35251
-1.09714
-0.960907
-0.272997
3.60687
3.94387
4.779
1.78223
1.00812
0.0117173
-0.623662
-1.81264
3.2078
0.0322961
0.0254122
0.473578
1.4987
0.635276
0.315312
0.963827
-1.32427
-1.63643
1.55932
1.94095
0.979325
-1.97771
-1.07871
-0.188258
-0.336924
-0.779626
4.05165
3.74421
-0.989401
-0.29848
0.112385
0.816786
-0.049156
2.00481
2.72156
-0.863701
0.171625
0.798965
1.45016
-1.10964
-5.09137
-3.36044
-1.80124
-0.910271
0.792981
4.41248
1.70051
2.11787
-1.91214
0.378949
-0.200797
-0.239304
-0.0373817
-0.0470179
0.408692
-0.290525
-1.21251
-0.721526
1.70227
2.17232
2.63945
1.36262
-1.63543
0.0478784
0.445936
0.431878
2.33673
0.967443
1.78274
-1.10373
-0.267153
0.25717
0.441752
-0.24081
-0.197079
0.194981
0.401942
0.0347747
0.010548
1.30416
0.124013
0.224558
1.70998
3.05321
1.03517
-0.124453
1.15692
-0.0749501
-0.254466
-0.0915222
0.0685435
1.8263
0.680623
2.34867
0.369283
0.351722
0.409776
-0.50709
-1.45247
-1.6274
-0.30559
1.30106
-1.38156
1.30605
-0.173657
-0.237176
-0.213317
-0.290626
-0.163423
-0.0714154
0.250233
1.21513
0.65991
0.821402
-0.441568
-0.477661
0.862366
0.769691
-1.46749
-1.14981
-0.491282
-2.99806
2.70278
-0.0856306
-0.102012
-0.0637841
-0.0862002
-0.0984137
-0.171926
-0.351105
0.0147883
-0.0518153
0.988829
0.0635365
0.0857187
0.26976
-0.935534
-0.330468
-1.17587
0.487525
1.13905
1.6793
-0.0234907
-0.0233093
-0.0191299
-0.0149112
-0.0178393
-0.0451867
-0.10652
-0.10486
0.260377
0.826807
0.66702
1.88764
2.95455
1.5906
0.20032
-1.08857
0.0123981
2.29496
0.525639
0.000599186
-5.95108e-05
-0.00066391
0.00028231
0.00180879
0.00155907
-0.017872
-0.0168113
0.1584
0.373385
0.367099
0.554991
1.27559
2.74963
0.532914
-0.718079
0.218342
2.71262
0.662357
0.00112176
0.00114078
0.00096293
0.000955212
0.00114555
0.0024578
-0.00270988
-0.0249172
-0.014508
0.0429087
0.166865
0.609192
1.58533
3.05889
1.37068
0.372684
0.769801
2.68316
0.813507
5.60315e-05
0.00016326
0.00015306
0.00015137
9.58949e-05
0.000418251
0.000787418
-0.00743271
-0.00713869
0.0211976
0.0507104
0.197254
0.703259
2.28362
2.53039
1.51371
1.48908
3.04858
1.05071
-1.75483e-05
-5.84234e-06
-1.32545e-05
4.94847e-06
-3.53374e-05
-0.000112055
0.000261818
0.000474662
0.00371058
0.00691943
0.00729962
0.147311
0.84556
1.60265
2.88557
2.12721
1.934
3.26126
1.32199
1.84235e-07
-3.16372e-06
-3.98687e-06
-3.02038e-06
-1.53754e-06
-0.000101948
-0.000217881
-0.000237401
0.0022347
0.0145799
0.081065
0.295241
0.742767
1.47361
2.75633
2.65357
2.25485
3.29256
1.56869
1.03672e-06
4.00279e-07
-4.88743e-07
-2.06762e-06
-3.37403e-06
-4.54504e-05
-0.000223166
-0.000425268
0.000354724
0.00427351
0.0301894
0.149833
0.702471
1.91692
3.41484
3.31174
2.76532
2.93253
1.665
1.71911e-07
-2.21544e-07
-1.8166e-06
-4.95353e-07
8.13528e-06
-5.72924e-06
-0.000142491
-0.0004646
-0.00182206
-0.00163065
0.0379557
0.185952
0.586703
1.12471
2.28159
3.53886
3.14268
3.01433
1.56386
1.00188e-07
-9.41197e-07
-3.47653e-06
-1.98731e-06
1.51079e-05
1.70249e-05
-5.19321e-05
-0.000266964
-0.0010646
0.000681889
0.023653
0.0850215
0.234272
0.589057
1.26457
3.42324
3.44188
3.27626
1.40077
-3.76644e-08
-2.47221e-06
-5.35645e-06
-7.34793e-06
-6.31861e-07
2.31094e-05
2.3973e-05
-0.000114636
-0.000374857
0.00148417
-0.000365258
0.0113876
0.209918
0.816599
1.22164
3.11871
3.74917
3.36457
1.34311
-4.7581e-07
-4.41176e-06
-5.92304e-06
-5.75568e-06
1.27384e-05
6.60754e-05
0.000447025
0.000178523
1.71427e-05
-0.0014961
-0.0127098
0.00758462
0.281551
0.942518
1.24631
2.41374
3.98754
3.51366
1.16599
-3.51447e-07
-2.53113e-06
-3.79694e-06
4.72764e-06
7.04915e-05
0.000229704
0.00099387
0.000830499
0.000262547
-0.00164022
-0.00922102
0.0632901
0.281456
0.762138
0.94994
1.13651
3.94573
3.66887
1.31834
-1.07995e-06
-1.77044e-06
-1.41838e-06
6.06701e-06
6.88296e-05
0.00027856
0.000925475
0.00228465
0.00123457
-0.00084493
-8.0992e-06
0.0306797
0.121756
0.562691
0.890646
0.767159
3.63665
3.74635
1.42877
-9.50847e-07
-1.926e-06
2.58105e-06
2.66228e-05
9.39512e-05
0.000274061
0.000846154
0.0025329
0.00487222
0.00394514
0.0069883
0.0141418
0.0675704
0.396019
0.830298
0.705708
2.81601
3.71565
1.57167
8.68893e-08
-2.90947e-06
-4.21993e-06
-4.14597e-06
7.40089e-05
0.000420439
0.000832728
0.00165682
0.00533484
0.00923595
0.0142361
0.066223
0.284486
0.687361
0.97713
0.813587
1.74581
3.62172
1.66604
6.94905e-07
-1.13123e-05
-8.70766e-05
-0.000105116
-8.21451e-05
0.000128043
0.000907392
0.00179312
0.00407452
0.0108218
0.030053
0.0989979
0.31872
0.606555
0.976373
0.874408
1.0846
3.25303
1.74971
2.40033e-06
-9.80086e-06
-0.00011564
-0.000220199
-0.000180795
0.0002895
0.00209163
0.00376025
0.00544242
0.00988764
0.0303645
0.0850804
0.298797
0.662756
0.986257
0.884416
0.851365
2.79666
1.80345
4.52411e-06
-5.77824e-06
-0.000116943
-0.000323383
-0.000172946
0.000517571
0.00254923
0.0054744
0.00849481
0.0174404
0.048418
0.1225
0.3268
0.622107
0.881717
0.819076
0.725069
2.31633
1.82404
4.37692e-06
-1.06317e-05
-0.000101754
-0.000367745
-0.000420805
-0.000329076
0.00172226
0.00660699
0.00901045
0.0414774
0.0732488
0.229039
0.443532
0.651635
0.726935
0.715227
0.615997
1.86387
1.80664
8.47186e-06
-1.03639e-05
-0.000114677
-0.000323383
-0.000426591
-0.000566342
0.00157313
0.0157944
0.0273273
0.0870897
0.143174
0.42599
0.615553
0.63275
0.625682
0.610788
0.509032
1.48448
1.76177
3.6181e-06
-4.54581e-05
-0.000176469
-0.000214706
-0.000322834
-0.00019537
0.00256444
0.00976729
0.0216044
0.0782856
0.173952
0.443701
0.634909
0.575535
0.439243
0.5209
0.423222
1.26333
1.68972
7.54689e-06
-5.68447e-05
-0.000192861
-9.33251e-05
-0.000136811
-0.000546962
-0.000953509
0.00425444
0.0306746
0.117135
0.296494
0.551683
0.657392
0.615207
0.41521
0.376449
0.230214
0.954542
1.63289
-2.64716e-05
-0.000162733
-0.000191819
-0.000106781
0.000205264
1.09386e-05
-0.000862318
0.00581593
0.0591118
0.172338
0.413817
0.665563
0.663878
0.61533
0.361525
0.254485
0.302327
0.882619
1.51514
-7.78495e-05
-0.000220171
-0.000222441
4.28993e-05
0.00086514
0.00128231
0.00117719
0.00384939
0.0303199
0.148696
0.434774
0.663335
0.651497
0.578538
0.318626
0.194115
0.242216
0.710693
1.45316
-0.00013914
-0.000248264
-0.000244053
0.000116702
0.00106147
0.00201933
0.00334136
0.00538204
0.0117305
0.0653801
0.330799
0.631338
0.608283
0.50016
0.24462
0.157065
0.201805
0.494085
1.38415
-0.000259695
-0.000240213
-0.000261701
0.000187377
0.00200823
0.00298628
0.00471528
0.00653616
0.0145855
0.0519985
0.255585
0.56092
0.555591
0.456326
0.218627
0.116537
0.0263689
0.506666
1.30022
-0.00030749
-0.00022895
2.81963e-05
0.001081
0.00249419
0.00372958
0.00516185
0.0115668
0.0463718
0.124145
0.339083
0.547573
0.516571
0.389843
0.158731
0.0774349
0.142124
0.773526
1.17658
-0.000320462
-0.000242781
0.000160484
0.00164836
0.00445462
0.00553473
0.00617865
0.0120735
0.0518681
0.202485
0.454627
0.520864
0.483406
0.325083
0.11025
0.0572814
0.121445
0.690882
1.07834
-0.000362592
-0.000182194
0.000648476
0.00247484
0.00562152
0.0070837
0.00698797
0.0139052
0.0679832
0.245704
0.487393
0.493585
0.45264
0.259292
0.0794833
0.0476262
0.109549
0.606032
0.997669
-0.000383816
-0.000165792
0.000881306
0.00397205
0.00718298
0.00833515
0.00690349
0.00845092
0.0495709
0.268024
0.493494
0.457579
0.351597
0.172109
0.0603872
0.0408866
0.0707556
0.452092
0.900872
-0.00041498
-8.27124e-05
0.0022274
0.00448635
0.00712988
0.00912624
0.00565155
0.00107318
-0.00508368
0.206771
0.495824
0.417247
0.206394
0.0727626
0.0563025
0.0399989
0.0604027
0.367658
0.869979
-0.000433007
-0.000167001
0.00286396
0.00494765
0.00786262
0.00946
0.00659895
0.00276746
-0.0180876
0.0364999
0.342025
0.0849555
-0.0108268
-0.00761395
0.0281984
0.0239345
0.0124318
0.0829259
0.598831
)
;

boundaryField
{
    leftWall
    {
        type            zeroGradient;
    }
    rightWall
    {
        type            zeroGradient;
    }
    lowerWall
    {
        type            zeroGradient;
    }
    atmosphere
    {
        type            zeroGradient;
    }
    defaultFaces
    {
        type            empty;
    }
}


// ************************************************************************* //
