/*--------------------------------*- C++ -*----------------------------------*\
| =========                 |                                                 |
| \\      /  F ield         | foam-extend: Open Source CFD                    |
|  \\    /   O peration     | Version:     4.1                                |
|   \\  /    A nd           | Web:         http://www.foam-extend.org         |
|    \\/     M anipulation  |                                                 |
\*---------------------------------------------------------------------------*/
FoamFile
{
    version     2.0;
    format      ascii;
    class       volVectorField;
    location    "0.35";
    object      U;
}
// * * * * * * * * * * * * * * * * * * * * * * * * * * * * * * * * * * * * * //

dimensions      [0 1 -1 0 0 0 0];

internalField   nonuniform List<vector> 
2268
(
(0.048631 -0.0065375 0)
(0.0551345 -0.00578292 0)
(0.145681 -0.00759666 0)
(0.175187 -0.00489161 0)
(0.246884 -0.00351226 0)
(0.275848 -0.00787859 0)
(0.34227 -0.00334733 0)
(0.382319 -0.00366887 0)
(0.456225 -0.00523082 0)
(0.44546 0.0250561 0)
(0.364912 -0.0780006 0)
(0.367733 -0.0395974 0)
(0.414088 -0.029773 0)
(0.411829 -0.0162568 0)
(0.426947 -0.0129888 0)
(0.393701 -0.0135432 0)
(0.41608 -0.0461996 0)
(0.421251 -0.0150395 0)
(0.356794 -0.0249512 0)
(0.324778 0.0630515 0)
(0.210034 0.0672509 0)
(0.19721 0.0152243 0)
(0.241671 0.00213992 0)
(0.0482812 -0.0179687 0)
(0.0563136 -0.0170764 0)
(0.145301 -0.0211325 0)
(0.176975 -0.0185008 0)
(0.241302 -0.0210302 0)
(0.284628 -0.0137334 0)
(0.356442 -0.0230196 0)
(0.386724 -0.0226982 0)
(0.470865 -0.0109005 0)
(0.426963 -0.00364033 0)
(0.372925 -0.0653038 0)
(0.394863 -0.0168519 0)
(0.436294 -0.00527427 0)
(0.430384 0.00536872 0)
(0.44224 0.0204524 0)
(0.391243 0.0358453 0)
(0.417775 0.027552 0)
(0.481558 0.0485714 0)
(0.414687 0.0614645 0)
(0.347714 0.000625163 0)
(0.188436 0.0498355 0)
(0.205947 0.161945 0)
(0.28392 0.100025 0)
(0.045647 -0.0312763 0)
(0.0561157 -0.0286557 0)
(0.143269 -0.0363492 0)
(0.176489 -0.02702 0)
(0.239983 -0.0296131 0)
(0.303826 -0.0346239 0)
(0.346707 -0.0272439 0)
(0.390791 -0.0306253 0)
(0.483657 -0.0178972 0)
(0.3929 -0.133014 0)
(0.343683 -0.0761431 0)
(0.371546 -0.039915 0)
(0.400789 -0.0256218 0)
(0.396473 -0.0116668 0)
(0.418919 0.00408839 0)
(0.381428 0.0196105 0)
(0.405871 0.100326 0)
(0.419789 0.0412196 0)
(0.366253 0.0645228 0)
(0.30516 0.0174289 0)
(0.27147 0.0674739 0)
(0.203118 0.140642 0)
(0.23311 0.12672 0)
(0.0419552 -0.0419596 0)
(0.0576002 -0.040048 0)
(0.146388 -0.0500113 0)
(0.175527 -0.0408228 0)
(0.248974 -0.0521068 0)
(0.31049 -0.0376251 0)
(0.342886 -0.0463452 0)
(0.425802 -0.0558937 0)
(0.38653 -0.0402101 0)
(0.325549 -0.127262 0)
(0.32354 -0.0636499 0)
(0.327136 -0.0443212 0)
(0.35154 -0.0171342 0)
(0.339104 -0.000895366 0)
(0.361459 0.0282516 0)
(0.345452 0.0235816 0)
(0.36085 0.0990697 0)
(0.360547 0.0334373 0)
(0.340899 0.042702 0)
(0.303603 0.0291828 0)
(0.231055 0.102416 0)
(0.192944 0.153257 0)
(0.253707 0.199163 0)
(0.0359729 -0.0548565 0)
(0.0566301 -0.0533049 0)
(0.147599 -0.0642673 0)
(0.176157 -0.0508594 0)
(0.250779 -0.0623413 0)
(0.298461 -0.057163 0)
(0.336503 -0.0534157 0)
(0.42689 -0.0378061 0)
(0.34608 -0.13554 0)
(0.287336 -0.111434 0)
(0.29315 -0.0747906 0)
(0.304324 -0.0536774 0)
(0.32245 -0.0277482 0)
(0.316383 -0.0129987 0)
(0.334625 0.0267821 0)
(0.317883 0.0249157 0)
(0.319678 0.0784447 0)
(0.301091 0.0540236 0)
(0.268315 0.0905835 0)
(0.281561 0.0934935 0)
(0.260615 0.1146 0)
(0.197755 0.209256 0)
(0.244395 0.232673 0)
(0.0313701 -0.0637394 0)
(0.0600262 -0.0663439 0)
(0.150988 -0.0788325 0)
(0.177428 -0.065261 0)
(0.239185 -0.0825164 0)
(0.289534 -0.0552251 0)
(0.365198 -0.0847366 0)
(0.31314 -0.0626883 0)
(0.267548 -0.140051 0)
(0.283505 -0.107282 0)
(0.280702 -0.0728522 0)
(0.300176 -0.0602826 0)
(0.313425 -0.022093 0)
(0.311339 -0.00620859 0)
(0.329337 0.0319582 0)
(0.320689 0.0324959 0)
(0.319263 0.106305 0)
(0.313114 0.058819 0)
(0.291253 0.168084 0)
(0.272714 0.103362 0)
(0.262784 0.151703 0)
(0.200199 0.272455 0)
(0.23948 0.306458 0)
(0.0291181 -0.076512 0)
(0.0621794 -0.0814931 0)
(0.14566 -0.0918353 0)
(0.164885 -0.0707152 0)
(0.238466 -0.0889818 0)
(0.27957 -0.0914105 0)
(0.30853 -0.0493938 0)
(0.278853 -0.146317 0)
(0.253199 -0.133316 0)
(0.277359 -0.116232 0)
(0.277808 -0.0842484 0)
(0.309879 -0.068992 0)
(0.3059 -0.0330638 0)
(0.329209 -0.0185838 0)
(0.332605 0.0220577 0)
(0.346355 0.0332898 0)
(0.320682 0.0776158 0)
(0.317257 0.0785595 0)
(0.27137 0.126159 0)
(0.25319 0.176983 0)
(0.33151 0.163205 0)
(0.210497 0.31241 0)
(0.239515 0.333606 0)
(0.0325559 -0.0851161 0)
(0.0696263 -0.0937058 0)
(0.143618 -0.104017 0)
(0.159463 -0.0903112 0)
(0.226162 -0.113856 0)
(0.284558 -0.0629038 0)
(0.239384 -0.10271 0)
(0.24762 -0.158471 0)
(0.249922 -0.142513 0)
(0.277649 -0.120102 0)
(0.281601 -0.0888131 0)
(0.319154 -0.0740696 0)
(0.322913 -0.0293757 0)
(0.345689 -0.0213875 0)
(0.353934 0.0210483 0)
(0.347744 0.0363782 0)
(0.341017 0.0400507 0)
(0.337303 0.0631332 0)
(0.332732 0.0665794 0)
(0.280151 0.204288 0)
(0.320711 0.168663 0)
(0.249799 0.320625 0)
(0.197639 0.439752 0)
(0.00201281 0.148292 0)
(-1.06277 0.290132 0)
(-0.035834 -0.273767 0)
(1.19422 0.131561 0)
(0.107371 0.0776603 0)
(-0.43443 0.221299 0)
(-0.738925 0.26964 0)
(-1.79686 0.376501 0)
(-2.82652 0.346861 0)
(-3.34736 0.385272 0)
(-4.39754 0.360624 0)
(-5.58364 -0.0688289 0)
(-6.05194 -0.374895 0)
(-5.64399 -0.698044 0)
(-5.30901 -0.812074 0)
(-5.15284 -0.341152 0)
(-3.48464 -0.0933143 0)
(-2.64909 -0.826933 0)
(-0.896719 -0.572229 0)
(-0.211296 0.302691 0)
(-0.64116 0.132131 0)
(-0.078485 -0.703333 0)
(0.501981 0.0961489 0)
(0.0253846 0.36048 0)
(-0.436106 0.449664 0)
(-0.821804 0.738475 0)
(-1.803 1.14021 0)
(-2.34515 0.724331 0)
(-2.20118 0.615141 0)
(-1.68141 0.439664 0)
(-1.88078 0.341835 0)
(-2.05146 0.37644 0)
(-1.59594 0.00136846 0)
(-1.80056 -0.812827 0)
(-3.2589 0.0458316 0)
(-3.36677 0.461107 0)
(-1.6968 -0.582723 0)
(-0.0548931 -1.15988 0)
(-0.332027 0.8039 0)
(-0.301564 -0.0608122 0)
(-0.0562351 -0.844148 0)
(0.203345 0.0955799 0)
(-0.231473 0.389479 0)
(-0.428689 0.873558 0)
(-0.406914 1.29159 0)
(-1.56668 1.33132 0)
(-1.97718 0.950319 0)
(-1.56531 0.203265 0)
(-1.21007 -0.286928 0)
(-0.217057 -0.087172 0)
(-0.412421 -0.0375492 0)
(-0.316581 -0.38036 0)
(-1.23055 -0.725818 0)
(-2.03733 -0.243665 0)
(-2.20873 -0.0746397 0)
(-1.53993 -0.465321 0)
(0.502984 -1.45707 0)
(-0.27413 0.597589 0)
(0.1146 0.284875 0)
(-0.0131942 -0.797546 0)
(-0.122201 0.23141 0)
(-0.337338 0.569382 0)
(-0.102561 0.93585 0)
(-0.352039 1.24486 0)
(-1.28661 1.15121 0)
(-1.42643 0.669321 0)
(-0.834679 -0.0720566 0)
(-0.578451 -0.499122 0)
(-0.151902 0.0150454 0)
(-0.180982 -0.103642 0)
(0.20444 -0.0757492 0)
(-0.405495 -0.276758 0)
(-1.17791 0.210901 0)
(-1.30161 0.0499882 0)
(-1.27237 -0.696434 0)
(0.653834 -1.86397 0)
(0.122671 0.341002 0)
(0.592295 -0.00641859 0)
(0.0328589 -0.836631 0)
(-0.646742 0.259127 0)
(-0.236168 0.833856 0)
(-0.106788 1.03189 0)
(-0.145755 0.977107 0)
(-0.916534 1.03199 0)
(-0.797389 0.659034 0)
(-0.400344 -0.107902 0)
(-0.255471 -0.591029 0)
(-0.270748 -0.157724 0)
(-0.0228658 -0.112201 0)
(0.382302 -0.11332 0)
(0.081136 -0.0851799 0)
(-0.152938 0.144585 0)
(-0.336535 -0.334674 0)
(-1.07938 -0.699582 0)
(0.732001 -2.0539 0)
(0.443737 0.418232 0)
(0.296707 0.206276 0)
(0.0353132 -0.885023 0)
(-0.333552 0.337021 0)
(-0.184812 0.707462 0)
(-0.0775992 0.831681 0)
(0.0062087 1.01588 0)
(-0.332907 1.18851 0)
(0.157578 1.35983 0)
(-0.140224 -0.107657 0)
(-0.00698308 -0.54327 0)
(-0.363014 -0.299423 0)
(0.585789 -0.381746 0)
(0.382994 -0.164367 0)
(0.296788 0.19793 0)
(0.209569 0.177459 0)
(1.0008 0.146019 0)
(-0.989942 -0.749474 0)
(0.765225 -2.09732 0)
(0.207123 -0.0325886 0)
(0.239482 0.121453 0)
(0.0696138 -0.396976 0)
(-0.358289 0.231899 0)
(-0.283499 0.613261 0)
(0.0722994 0.323523 0)
(0.165698 1.10008 0)
(0.0681555 1.08685 0)
(0.758562 0.729224 0)
(0.0632068 0.0881186 0)
(0.172616 -0.466458 0)
(-0.265264 -0.353976 0)
(0.275588 -0.476137 0)
(0.320703 -0.276093 0)
(0.360233 0.110673 0)
(0.359445 0.0733479 0)
(1.25667 0.0633377 0)
(-0.928016 -0.654507 0)
(0.810139 -1.98462 0)
(0.0111562 0.0801478 0)
(0.0650876 0.141332 0)
(0.0513997 -0.287179 0)
(-0.238483 0.197602 0)
(-0.279313 0.669678 0)
(0.18499 0.549015 0)
(0.455476 0.997145 0)
(0.796586 0.915389 0)
(0.839751 0.367025 0)
(0.400331 0.225629 0)
(0.374592 -0.459978 0)
(-0.036308 -0.399388 0)
(0.198097 -0.559603 0)
(0.225705 -0.296175 0)
(0.485802 0.0608182 0)
(0.594864 0.0650342 0)
(1.34824 0.137155 0)
(-0.81386 -0.313578 0)
(0.836269 -1.94812 0)
(0.0351044 -0.108942 0)
(0.0654325 -0.115 0)
(0.130517 -0.119742 0)
(0.142384 -0.0837235 0)
(0.243382 -0.119415 0)
(0.198462 -0.130218 0)
(0.203497 -0.158892 0)
(0.246237 -0.158486 0)
(0.247175 -0.144997 0)
(0.277278 -0.136609 0)
(0.293506 -0.1114 0)
(0.353131 -0.0966846 0)
(0.351359 -0.0560547 0)
(0.360476 -0.0362865 0)
(0.371103 0.0193474 0)
(0.368808 0.044674 0)
(0.344281 0.098709 0)
(0.306539 0.124017 0)
(0.321249 0.19957 0)
(0.319914 0.170233 0)
(0.446615 0.195192 0)
(0.508127 0.371622 0)
(0.340418 0.56148 0)
(0.0420267 -0.127608 0)
(0.0501918 -0.13575 0)
(0.144574 -0.136762 0)
(0.123587 -0.156559 0)
(0.137923 -0.144916 0)
(0.177739 -0.194985 0)
(0.201965 -0.158047 0)
(0.219765 -0.185909 0)
(0.25511 -0.181743 0)
(0.291797 -0.158297 0)
(0.341194 -0.159938 0)
(0.380732 -0.122663 0)
(0.394679 -0.103572 0)
(0.421444 -0.044736 0)
(0.419061 -0.00132381 0)
(0.446513 0.0528242 0)
(0.411537 0.0927356 0)
(0.438648 0.204894 0)
(0.393417 0.207248 0)
(0.328058 0.289089 0)
(0.442445 0.259419 0)
(0.708438 0.299633 0)
(0.484212 0.393026 0)
(0.0257617 -0.15405 0)
(0.0413264 -0.16557 0)
(0.0876341 -0.158151 0)
(0.105686 -0.198321 0)
(0.136149 -0.177434 0)
(0.161164 -0.190747 0)
(0.186578 -0.197994 0)
(0.234343 -0.214843 0)
(0.287301 -0.218923 0)
(0.321222 -0.222926 0)
(0.405578 -0.201693 0)
(0.3996 -0.155106 0)
(0.445052 -0.131154 0)
(0.433471 -0.0668813 0)
(0.490399 -0.00616493 0)
(0.470661 0.0579339 0)
(0.510338 0.118844 0)
(0.459817 0.159996 0)
(0.422334 0.158085 0)
(0.409231 0.26572 0)
(0.47441 0.245579 0)
(0.62284 0.325005 0)
(0.564043 0.249604 0)
(0.0313786 -0.198861 0)
(0.0353141 -0.200256 0)
(0.0878418 -0.203753 0)
(0.0918736 -0.207979 0)
(0.126363 -0.203866 0)
(0.145599 -0.242468 0)
(0.190664 -0.23743 0)
(0.218293 -0.284055 0)
(0.261424 -0.27337 0)
(0.273352 -0.274523 0)
(0.303738 -0.237988 0)
(0.278264 -0.165791 0)
(0.357673 -0.17738 0)
(0.368426 -0.104661 0)
(0.458522 -0.0715966 0)
(0.500678 0.0263474 0)
(0.512233 0.109149 0)
(0.46683 0.131473 0)
(0.467583 0.216496 0)
(0.377935 0.269699 0)
(0.479714 0.307598 0)
(0.542546 0.236919 0)
(0.509498 0.278949 0)
(0.00860687 -0.218683 0)
(0.0128268 -0.219688 0)
(0.0274908 -0.213746 0)
(0.0317791 -0.231569 0)
(0.0455967 -0.23245 0)
(0.0531904 -0.250056 0)
(0.0686823 -0.270496 0)
(0.0760497 -0.284481 0)
(0.0803736 -0.276719 0)
(0.0712681 -0.259543 0)
(0.0732281 -0.20376 0)
(0.0244179 -0.191084 0)
(0.0533877 -0.310184 0)
(0.0754687 -0.165873 0)
(0.112514 -0.106407 0)
(0.209396 0.0108083 0)
(0.348515 0.159052 0)
(0.404613 0.203193 0)
(0.429796 0.269553 0)
(0.379784 0.274142 0)
(0.418359 0.33427 0)
(0.52713 0.107549 0)
(0.430918 0.178016 0)
(0.00250882 -0.221955 0)
(0.00213771 -0.222621 0)
(0.0112529 -0.22529 0)
(0.0125925 -0.228889 0)
(0.0198802 -0.231961 0)
(0.0255524 -0.263854 0)
(0.0403382 -0.267078 0)
(0.0381047 -0.290899 0)
(0.0578877 -0.268336 0)
(0.0539597 -0.263206 0)
(0.0649229 -0.193566 0)
(0.0166974 -0.14606 0)
(0.00941842 -0.294176 0)
(0.0218048 -0.169183 0)
(0.058813 -0.198742 0)
(0.112116 -0.201302 0)
(0.282754 0.0133084 0)
(0.224912 0.282769 0)
(0.345345 0.266033 0)
(0.355972 0.275829 0)
(0.55191 0.313599 0)
(0.570385 0.187524 0)
(0.388418 0.0362252 0)
(0.000615027 -0.224018 0)
(0.00307973 -0.229803 0)
(0.00903449 -0.224631 0)
(0.0124003 -0.240221 0)
(0.0205288 -0.248968 0)
(0.0206154 -0.27181 0)
(0.0293983 -0.286369 0)
(0.021677 -0.304984 0)
(0.0255922 -0.296924 0)
(0.0131618 -0.268063 0)
(-0.0116641 -0.174968 0)
(-0.018637 -0.12308 0)
(0.033078 -0.336734 0)
(0.0365171 -0.215526 0)
(0.138474 -0.234461 0)
(0.0381594 -0.240994 0)
(-0.0164633 -0.0498311 0)
(0.172449 0.202013 0)
(0.403498 0.19936 0)
(0.263614 0.165332 0)
(0.488039 0.211446 0)
(0.431763 -0.18774 0)
(0.418997 0.0848057 0)
(0.00131453 -0.228593 0)
(0.00159833 -0.227877 0)
(0.00228339 -0.233369 0)
(0.00503958 -0.235853 0)
(0.00417568 -0.236076 0)
(-0.0101228 -0.268038 0)
(-0.00640472 -0.270559 0)
(-0.0368294 -0.283503 0)
(-0.0782959 -0.258549 0)
(-0.116741 -0.218022 0)
(-0.101048 -0.147887 0)
(-0.0814636 -0.188289 0)
(-0.0163132 -0.399877 0)
(-0.116544 -0.261785 0)
(-0.0285803 -0.399133 0)
(0.233254 -0.387085 0)
(0.35933 -0.132541 0)
(0.208673 0.289674 0)
(0.375723 0.216715 0)
(0.186514 -0.06931 0)
(0.394204 0.118587 0)
(0.234835 0.215355 0)
(0.117535 0.230471 0)
(0.00253847 -0.227094 0)
(-0.0150595 -0.227848 0)
(-0.0442437 -0.231012 0)
(-0.023742 -0.235482 0)
(-0.054042 -0.240535 0)
(-0.0590769 -0.264214 0)
(-0.0186274 -0.277036 0)
(-0.055871 -0.270145 0)
(-0.103934 -0.259149 0)
(-0.122265 -0.166732 0)
(-0.165489 -0.229636 0)
(-0.0946072 -0.233479 0)
(-0.0174489 -0.370724 0)
(-0.0920824 -0.168546 0)
(-0.0779778 -0.203636 0)
(-0.0529128 -0.183938 0)
(-0.102233 -0.256926 0)
(0.157971 0.242971 0)
(0.326507 0.201347 0)
(0.210751 0.0954424 0)
(0.0260133 -0.0750789 0)
(0.0335941 0.143288 0)
(-0.0379027 0.112069 0)
(-0.0119224 -0.218339 0)
(-0.0451788 -0.214846 0)
(-0.0537914 -0.233579 0)
(-0.047802 -0.212746 0)
(-0.0737679 -0.248887 0)
(-0.0601836 -0.263678 0)
(-0.0148339 -0.275025 0)
(-0.0363061 -0.208229 0)
(-0.060201 -0.179849 0)
(-0.150964 -0.171481 0)
(-0.194269 -0.2627 0)
(-0.113546 -0.198479 0)
(-0.0952613 -0.382433 0)
(-0.132706 -0.271213 0)
(-0.203462 -0.396505 0)
(-0.177007 -0.319235 0)
(-0.210872 -0.240563 0)
(-0.0687189 0.105774 0)
(0.103606 0.180318 0)
(0.142719 0.116333 0)
(-0.0709205 0.122432 0)
(-0.116245 0.233245 0)
(0.0242791 0.155203 0)
(-0.0284429 -0.189353 0)
(-0.0450587 -0.1527 0)
(-0.0520354 -0.22113 0)
(-0.0152947 -0.202553 0)
(-0.0473176 -0.226305 0)
(-0.0250456 -0.308833 0)
(0.00244636 -0.29758 0)
(0.00165292 -0.218075 0)
(0.00733579 -0.144667 0)
(-0.0144519 -0.191425 0)
(-0.104744 -0.273486 0)
(-0.244292 -0.225242 0)
(-0.217365 -0.277809 0)
(-0.192202 -0.252717 0)
(-0.233198 -0.296386 0)
(-0.328709 -0.272399 0)
(-0.415163 -0.357986 0)
(-0.306008 0.00254584 0)
(-0.274132 0.344139 0)
(-0.284344 0.0977325 0)
(-0.255257 0.155898 0)
(-0.0773096 0.164163 0)
(-0.0387182 0.0755084 0)
(-0.0362963 -0.193869 0)
(-0.0199085 -0.172444 0)
(-0.0310889 -0.281561 0)
(0.0106489 -0.233073 0)
(-0.0341444 -0.253323 0)
(-0.0107839 -0.318481 0)
(-0.0270643 -0.317941 0)
(-0.00720488 -0.204967 0)
(-0.0359849 -0.174447 0)
(-0.158049 -0.315853 0)
(-0.110263 -0.310906 0)
(-0.118477 -0.266144 0)
(-0.12821 -0.131035 0)
(-0.210173 -0.203511 0)
(-0.160087 -0.220898 0)
(-0.281009 -0.437115 0)
(-0.443744 -0.272772 0)
(-0.286672 -0.143297 0)
(-0.405743 0.0527282 0)
(-0.321136 -0.0660004 0)
(-0.10686 0.097702 0)
(-0.0709205 0.0279575 0)
(0.000996973 0.0329216 0)
(-0.0674411 -0.143217 0)
(-0.0339812 -0.105446 0)
(-0.00311058 -0.227749 0)
(0.0414936 -0.16372 0)
(-0.0116099 -0.180734 0)
(-0.00301529 -0.322534 0)
(-0.045369 -0.283685 0)
(-0.0227968 -0.178368 0)
(-0.186782 -0.203221 0)
(-0.142696 -0.219054 0)
(-0.0886229 -0.16394 0)
(-0.17637 -0.196506 0)
(-0.117461 -0.0965379 0)
(-0.223267 -0.208198 0)
(-0.293151 -0.2528 0)
(-0.21875 -0.292168 0)
(-0.239109 -0.26397 0)
(-0.198228 -0.168743 0)
(-0.249962 -0.126804 0)
(-0.291618 0.0506227 0)
(-0.132374 -0.039275 0)
(-0.0122624 0.0270518 0)
(-0.0234567 0.0513315 0)
(-0.00271561 -0.105264 0)
(0.134137 -0.266895 0)
(0.03059 -0.402902 0)
(-0.0157496 -0.234341 0)
(-0.108991 -0.265501 0)
(-0.0271599 -0.286831 0)
(-0.118495 -0.332286 0)
(-0.194238 -0.314867 0)
(-0.2045 -0.188775 0)
(-0.18429 -0.273258 0)
(-0.114265 -0.201713 0)
(-0.117959 -0.237642 0)
(-0.184573 -0.0788164 0)
(-0.295478 -0.254222 0)
(-0.143267 -0.170155 0)
(-0.205093 -0.197608 0)
(-0.324477 -0.25739 0)
(-0.22558 -0.136855 0)
(-0.127275 -0.256469 0)
(-0.141084 -0.0961237 0)
(-0.00799001 -0.0486871 0)
(-0.0278478 -0.0161231 0)
(0.0136539 0.0202329 0)
(-0.0772891 -0.270212 0)
(-0.00788305 -0.474202 0)
(-0.00964071 -0.49189 0)
(-0.022981 -0.357174 0)
(0.044433 -0.413731 0)
(-0.00200394 -0.394149 0)
(-0.222723 -0.436423 0)
(-0.110671 -0.324196 0)
(-0.188663 -0.254338 0)
(-0.192469 -0.256472 0)
(-0.0874635 -0.24653 0)
(-0.107934 -0.245406 0)
(-0.154225 -0.20809 0)
(-0.167067 -0.203877 0)
(-0.0814719 -0.0924477 0)
(-0.249715 -0.333677 0)
(-0.118147 -0.222561 0)
(-0.126294 -0.122697 0)
(-0.0761819 -0.243335 0)
(-0.0945268 -0.120568 0)
(0.0217123 -0.149043 0)
(0.0742264 -0.00535571 0)
(0.0977945 -0.0505825 0)
(-0.025473 -0.318844 0)
(0.021034 -0.433815 0)
(-0.0146072 -0.402615 0)
(-0.0121263 -0.320294 0)
(-0.0349807 -0.332591 0)
(-0.0724371 -0.413766 0)
(-0.107964 -0.358682 0)
(-0.0830543 -0.203241 0)
(-0.146557 -0.252859 0)
(-0.140453 -0.236665 0)
(-0.116935 -0.276621 0)
(-0.115943 -0.20419 0)
(-0.142723 -0.175794 0)
(-0.124726 -0.183778 0)
(-0.178542 -0.278215 0)
(-0.165547 -0.303867 0)
(-0.106435 -0.157473 0)
(-0.192452 -0.103251 0)
(-0.0384249 -0.152255 0)
(0.0185701 -0.163625 0)
(0.137743 -0.148598 0)
(0.0837585 -0.0501014 0)
(0.141113 -0.0750181 0)
(0.0365287 -0.249645 0)
(0.0593661 -0.498298 0)
(-0.000636061 -0.436595 0)
(-0.0108777 -0.345587 0)
(-0.0216327 -0.356201 0)
(-0.0330224 -0.320448 0)
(-0.13747 -0.282185 0)
(-0.0883596 -0.217585 0)
(-0.195798 -0.167941 0)
(-0.125104 -0.277149 0)
(-0.0797979 -0.306989 0)
(-0.0807616 -0.17518 0)
(-0.163433 -0.195227 0)
(-0.219103 -0.160848 0)
(-0.04437 -0.254592 0)
(0.0208555 -0.238769 0)
(-0.0281223 -0.317731 0)
(-0.0731504 -0.278027 0)
(0.0581796 -0.251186 0)
(0.064339 -0.235485 0)
(0.154345 -0.189711 0)
(0.135757 -0.137645 0)
(0.141771 -0.049514 0)
(-0.10022 -0.137892 0)
(-0.0589163 -0.325376 0)
(0.0459391 -0.25608 0)
(0.0542496 -0.280706 0)
(-0.00360616 -0.343064 0)
(-0.000547417 -0.29307 0)
(-0.0940157 -0.293423 0)
(-0.0433494 -0.159142 0)
(-0.100224 -0.193115 0)
(-0.130123 -0.228354 0)
(-0.064052 -0.289019 0)
(-0.0967894 -0.15824 0)
(-0.132573 -0.156113 0)
(-0.0564064 -0.1338 0)
(-0.0710439 -0.244757 0)
(-0.0607424 -0.372192 0)
(-0.119808 -0.401749 0)
(-0.00185747 -0.267939 0)
(0.115816 -0.275077 0)
(0.146995 -0.263749 0)
(0.210318 -0.209957 0)
(0.226882 -0.209729 0)
(0.183263 -0.11252 0)
(-0.0601495 -0.0999432 0)
(-0.0302448 -0.256903 0)
(-0.0583434 -0.22329 0)
(-0.114565 -0.255755 0)
(-0.0326703 -0.236076 0)
(0.0175556 -0.243185 0)
(-0.0971313 -0.232428 0)
(-0.0334552 -0.0854574 0)
(-0.0907255 -0.211192 0)
(-0.0169809 -0.2915 0)
(-0.0918206 -0.237141 0)
(-0.0532989 -0.17345 0)
(-0.0979047 -0.117177 0)
(-0.135253 -0.238077 0)
(-0.0870937 -0.247472 0)
(-0.0359472 -0.265927 0)
(0.0693305 -0.255956 0)
(0.116193 -0.263914 0)
(0.116838 -0.268351 0)
(0.156991 -0.289367 0)
(0.168548 -0.234149 0)
(0.190442 -0.151041 0)
(0.262225 -0.0396375 0)
(-0.0373661 -0.071017 0)
(-0.0204863 -0.27407 0)
(-0.0681214 -0.235384 0)
(0.00406909 -0.153564 0)
(-0.0317997 -0.198379 0)
(-0.0193162 -0.13232 0)
(-0.0162942 -0.217939 0)
(-0.051134 -0.0885095 0)
(-0.092026 -0.127832 0)
(-0.00278864 -0.33372 0)
(-0.0582105 -0.244479 0)
(-0.0618241 -0.0632173 0)
(-0.132714 -0.184429 0)
(-0.0153053 -0.166852 0)
(0.00509884 -0.245814 0)
(0.0265648 -0.234399 0)
(0.037874 -0.241401 0)
(0.0909882 -0.309943 0)
(0.137916 -0.312814 0)
(0.195834 -0.317786 0)
(0.246187 -0.245128 0)
(0.213919 -0.089428 0)
(0.188111 -0.0954979 0)
(-0.0658724 -0.0708388 0)
(-0.0337789 -0.284189 0)
(-0.0821613 -0.219058 0)
(-0.0409357 -0.0916077 0)
(-0.048313 -0.218064 0)
(-0.0448 -0.0741007 0)
(-0.0724181 -0.163221 0)
(0.0216165 -0.0148898 0)
(-0.114983 -0.132941 0)
(-0.0317484 -0.240337 0)
(0.0479726 -0.149164 0)
(-0.00648416 -0.0392865 0)
(-0.0399118 -0.0546316 0)
(0.0245008 -0.152663 0)
(0.024474 -0.25936 0)
(0.0517031 -0.261363 0)
(0.0836516 -0.274936 0)
(0.135296 -0.317641 0)
(0.142607 -0.326133 0)
(0.172548 -0.350692 0)
(0.19721 -0.235164 0)
(0.152464 -0.116427 0)
(0.228057 -0.115083 0)
(-0.0154289 0.00928641 0)
(0.0041797 -0.243229 0)
(-0.00332655 -0.146293 0)
(0.0065352 -0.228952 0)
(-0.0464367 -0.13492 0)
(0.021635 -0.162399 0)
(-0.060805 -0.0337079 0)
(0.0599842 -0.0883061 0)
(-0.00259234 -0.0333039 0)
(0.0130032 -0.226117 0)
(-0.00212594 -0.0806432 0)
(-0.00479287 -0.0308717 0)
(-0.00732383 -0.0800909 0)
(0.0626337 -0.217931 0)
(0.0579431 -0.272849 0)
(0.0749452 -0.291022 0)
(0.0682046 -0.3014 0)
(0.116735 -0.342416 0)
(0.112267 -0.329898 0)
(0.173837 -0.334346 0)
(0.264088 -0.241688 0)
(0.131957 -0.113739 0)
(0.17212 -0.136938 0)
(0.0954003 -0.160098 0)
(0.0555618 -0.314038 0)
(-0.0871248 -0.255211 0)
(-0.0246492 -0.316104 0)
(-0.0725383 -0.271753 0)
(-0.0769249 -0.255957 0)
(-0.066804 -0.211802 0)
(-0.0199037 -0.174998 0)
(0.00298555 -0.11548 0)
(-0.000680111 -0.208626 0)
(0.0181377 -0.133778 0)
(-0.0739466 0.00536796 0)
(0.01648 -0.125108 0)
(0.0819651 -0.187489 0)
(0.0627965 -0.26794 0)
(0.0916576 -0.231359 0)
(0.137533 -0.305847 0)
(0.195811 -0.352609 0)
(0.184867 -0.397561 0)
(0.140679 -0.284536 0)
(0.221264 -0.191892 0)
(0.186619 -0.22959 0)
(0.21945 -0.17835 0)
(0.0129106 -0.273369 0)
(0.0123555 -0.376523 0)
(0.00329877 -0.352748 0)
(0.0107758 -0.329112 0)
(-0.00819665 -0.327583 0)
(0.00561054 -0.288745 0)
(0.0159565 -0.265985 0)
(0.0557297 -0.215781 0)
(0.112729 -0.233401 0)
(0.050065 -0.264578 0)
(-0.0370812 -0.165083 0)
(0.0894713 -0.134813 0)
(0.107974 -0.216319 0)
(0.0893356 -0.216201 0)
(0.119687 -0.289893 0)
(0.15453 -0.377493 0)
(0.101732 -0.372125 0)
(0.146283 -0.372793 0)
(0.184083 -0.458302 0)
(0.187725 -0.424054 0)
(0.154549 -0.360539 0)
(0.127894 -0.335915 0)
(0.118456 -0.184639 0)
(0.00187178 -0.229913 0)
(0.00674396 -0.295152 0)
(-0.0143483 -0.288753 0)
(-0.00202175 -0.296159 0)
(-0.0141316 -0.277478 0)
(-0.00894029 -0.282387 0)
(-0.00469898 -0.266034 0)
(0.0027062 -0.262767 0)
(0.0238251 -0.27663 0)
(0.0149797 -0.320424 0)
(0.0452392 -0.231386 0)
(0.0148015 -0.253395 0)
(0.100566 -0.257822 0)
(0.0940462 -0.281611 0)
(0.0715825 -0.328789 0)
(0.135388 -0.457738 0)
(0.198118 -0.412456 0)
(0.177969 -0.433953 0)
(0.0967067 -0.455224 0)
(0.152987 -0.433943 0)
(0.265142 -0.445188 0)
(0.219723 -0.399454 0)
(0.283294 -0.289642 0)
(0.000504118 -0.279568 0)
(0.0110534 -0.33091 0)
(0.00719227 -0.329497 0)
(0.0182358 -0.318307 0)
(0.0138267 -0.312915 0)
(0.023381 -0.302143 0)
(0.0282388 -0.290129 0)
(0.0349454 -0.275541 0)
(0.0512054 -0.265843 0)
(0.0421104 -0.252417 0)
(0.0468828 -0.239449 0)
(0.0642694 -0.243117 0)
(0.0716079 -0.207157 0)
(0.0781403 -0.280137 0)
(0.0991226 -0.359362 0)
(0.133422 -0.299546 0)
(0.199151 -0.415578 0)
(0.18622 -0.431517 0)
(0.144119 -0.448226 0)
(0.173001 -0.416444 0)
(0.20672 -0.419798 0)
(0.228529 -0.373868 0)
(0.286428 -0.302712 0)
(-0.00139408 -0.261606 0)
(0.00803722 -0.314759 0)
(0.00297891 -0.311801 0)
(0.0113054 -0.311523 0)
(0.0111253 -0.293372 0)
(0.0159352 -0.31076 0)
(0.0221684 -0.292539 0)
(0.0279538 -0.302255 0)
(0.0371321 -0.292883 0)
(0.0424445 -0.300465 0)
(0.0565767 -0.275322 0)
(0.0557216 -0.291747 0)
(0.0804241 -0.274592 0)
(0.0709482 -0.311774 0)
(0.124134 -0.360379 0)
(0.144528 -0.370224 0)
(0.225407 -0.396541 0)
(0.216509 -0.427764 0)
(0.059449 -0.442002 0)
(0.153426 -0.427347 0)
(0.291284 -0.521355 0)
(0.323332 -0.45637 0)
(0.351778 -0.35482 0)
(-0.00338391 -0.28845 0)
(0.0135758 -0.332616 0)
(0.0128527 -0.334927 0)
(0.0332167 -0.32736 0)
(0.0306798 -0.327448 0)
(0.0258541 -0.320545 0)
(0.0397551 -0.316768 0)
(0.044496 -0.306528 0)
(0.0508614 -0.29864 0)
(0.0580861 -0.290835 0)
(0.061255 -0.273402 0)
(0.0764699 -0.28614 0)
(0.0768625 -0.253993 0)
(0.087742 -0.311606 0)
(0.0980079 -0.323406 0)
(0.239689 -0.357575 0)
(0.286029 -0.512398 0)
(0.192326 -0.471158 0)
(0.0966025 -0.378311 0)
(0.13418 -0.530151 0)
(0.227241 -0.555516 0)
(0.399086 -0.459241 0)
(0.368004 -0.330226 0)
(0.000961653 -0.285072 0)
(0.0123409 -0.324696 0)
(0.0115273 -0.333795 0)
(0.0230658 -0.332426 0)
(0.0235271 -0.3421 0)
(0.0346462 -0.332768 0)
(0.0339428 -0.328991 0)
(0.0456941 -0.326799 0)
(0.0479852 -0.319458 0)
(0.0627491 -0.321698 0)
(0.0673077 -0.309785 0)
(0.0857466 -0.323788 0)
(0.0912649 -0.293187 0)
(0.109601 -0.332638 0)
(0.129317 -0.338368 0)
(0.135883 -0.407189 0)
(0.234332 -0.576155 0)
(0.32198 -0.467233 0)
(0.00279055 -0.416436 0)
(0.104284 -0.554713 0)
(0.346152 -0.486113 0)
(0.413402 -0.57474 0)
(0.37282 -0.363137 0)
(0.000784024 -0.314607 0)
(0.0170249 -0.353587 0)
(0.0176843 -0.356247 0)
(0.0311851 -0.3528 0)
(0.0312309 -0.349916 0)
(0.0419161 -0.342487 0)
(0.0442398 -0.338087 0)
(0.0574762 -0.336141 0)
(0.0571513 -0.331148 0)
(0.0751638 -0.329809 0)
(0.0660535 -0.319266 0)
(0.0939714 -0.334668 0)
(0.074418 -0.30308 0)
(0.110055 -0.353011 0)
(0.0985584 -0.354452 0)
(0.164003 -0.439381 0)
(0.285976 -0.4002 0)
(0.300553 -0.506301 0)
(0.069208 -0.602832 0)
(0.192322 -0.446528 0)
(0.218945 -0.422232 0)
(0.381257 -0.44035 0)
(0.578947 -0.410711 0)
(0.00303224 -0.322518 0)
(0.0142247 -0.360597 0)
(0.0166246 -0.363749 0)
(0.0277103 -0.362027 0)
(0.0293472 -0.36394 0)
(0.0419785 -0.361289 0)
(0.043776 -0.358784 0)
(0.0585291 -0.354927 0)
(0.0561406 -0.351513 0)
(0.0753474 -0.341859 0)
(0.0605273 -0.344284 0)
(0.0970562 -0.340794 0)
(0.0519844 -0.324711 0)
(0.122562 -0.357357 0)
(0.164481 -0.383073 0)
(0.208486 -0.375153 0)
(0.158727 -0.455944 0)
(0.151939 -0.608072 0)
(0.195858 -0.505938 0)
(0.300832 -0.485344 0)
(0.289673 -0.427429 0)
(0.323859 -0.449051 0)
(0.431723 -0.483095 0)
(0.00201953 -0.348916 0)
(0.017073 -0.381635 0)
(0.0172952 -0.382169 0)
(0.0305163 -0.379705 0)
(0.0318413 -0.375907 0)
(0.0451295 -0.373138 0)
(0.0446502 -0.367636 0)
(0.0590149 -0.363131 0)
(0.0575633 -0.359447 0)
(0.0754953 -0.343675 0)
(0.0655372 -0.353847 0)
(0.0967082 -0.325419 0)
(0.0610431 -0.341105 0)
(0.136398 -0.32592 0)
(0.193171 -0.394385 0)
(0.187548 -0.460583 0)
(0.127576 -0.533052 0)
(0.237075 -0.582305 0)
(0.31598 -0.4531 0)
(0.28405 -0.508043 0)
(0.181012 -0.436166 0)
(0.309886 -0.54578 0)
(0.549937 -0.565414 0)
(0.00345915 -0.361778 0)
(0.0147526 -0.392162 0)
(0.0170979 -0.391388 0)
(0.0288244 -0.392794 0)
(0.0308871 -0.393134 0)
(0.0432539 -0.389677 0)
(0.0472602 -0.385263 0)
(0.0597356 -0.38564 0)
(0.0628537 -0.380784 0)
(0.0782404 -0.366803 0)
(0.0816636 -0.374557 0)
(0.10103 -0.351777 0)
(0.0997693 -0.379454 0)
(0.138851 -0.343733 0)
(0.132728 -0.405666 0)
(0.153611 -0.481651 0)
(0.123521 -0.471115 0)
(0.239587 -0.462441 0)
(0.358828 -0.504238 0)
(0.354242 -0.652046 0)
(0.1756 -0.437791 0)
(0.213269 -0.411481 0)
(0.408722 -0.543906 0)
(0.00152208 -0.384459 0)
(0.0157234 -0.408514 0)
(0.0154601 -0.408624 0)
(0.029023 -0.407401 0)
(0.0296467 -0.40225 0)
(0.0428511 -0.406915 0)
(0.0442215 -0.396755 0)
(0.0551957 -0.397692 0)
(0.0586108 -0.390649 0)
(0.0640361 -0.386994 0)
(0.0790236 -0.38493 0)
(0.0677692 -0.376206 0)
(0.106248 -0.389698 0)
(0.163543 -0.371635 0)
(0.138632 -0.396393 0)
(0.212353 -0.470979 0)
(0.153248 -0.493684 0)
(0.186448 -0.515884 0)
(0.17661 -0.708663 0)
(0.314342 -0.721721 0)
(0.294995 -0.571418 0)
(0.219718 -0.492639 0)
(0.359744 -0.521228 0)
(0.00206264 -0.398302 0)
(0.0129663 -0.421698 0)
(0.0137415 -0.419723 0)
(0.0257977 -0.423004 0)
(0.0268893 -0.421573 0)
(0.0413726 -0.420934 0)
(0.0414164 -0.409527 0)
(0.0577173 -0.417371 0)
(0.0575232 -0.395886 0)
(0.0719511 -0.410807 0)
(0.079968 -0.373 0)
(0.0796836 -0.4147 0)
(0.113585 -0.295723 0)
(0.187749 -0.352764 0)
(0.113149 -0.437547 0)
(0.129294 -0.4786 0)
(0.113058 -0.558654 0)
(0.1356 -0.504586 0)
(0.184705 -0.571611 0)
(0.375044 -0.384181 0)
(0.31179 -0.510169 0)
(0.324049 -0.654229 0)
(0.409452 -0.525389 0)
(0.00131158 -0.41078 0)
(0.0137658 -0.428428 0)
(0.0123679 -0.430273 0)
(0.0266808 -0.430557 0)
(0.0238299 -0.429555 0)
(0.040666 -0.433234 0)
(0.0378963 -0.426592 0)
(0.0613318 -0.427433 0)
(0.0530238 -0.418339 0)
(0.0860518 -0.425177 0)
(0.0685506 -0.408925 0)
(0.117211 -0.4336 0)
(0.208609 -0.329184 0)
(0.141625 -0.401137 0)
(0.105658 -0.465055 0)
(0.129728 -0.507955 0)
(0.139726 -0.492585 0)
(0.222494 -0.479278 0)
(0.263872 -0.515667 0)
(0.393449 -0.44986 0)
(0.12397 -0.631331 0)
(0.275767 -0.52479 0)
(0.279646 -0.74134 0)
(0.00100146 -0.430326 0)
(0.0120981 -0.445547 0)
(0.0111348 -0.446776 0)
(0.0234379 -0.447709 0)
(0.0210353 -0.449279 0)
(0.0367897 -0.451079 0)
(0.0315458 -0.451112 0)
(0.0534556 -0.45174 0)
(0.0478336 -0.44226 0)
(0.0737695 -0.446295 0)
(0.0569154 -0.418654 0)
(0.0935702 -0.375898 0)
(0.161512 -0.289061 0)
(0.140295 -0.378457 0)
(0.101026 -0.433287 0)
(0.132875 -0.470275 0)
(0.137333 -0.480572 0)
(0.170574 -0.526628 0)
(0.157704 -0.620312 0)
(0.105051 -0.688965 0)
(0.232863 -0.722369 0)
(0.182338 -0.553761 0)
(0.236356 -0.818976 0)
(0.000622717 -0.426914 0)
(0.0122715 -0.439487 0)
(0.0103012 -0.442412 0)
(0.0241173 -0.442021 0)
(0.0191074 -0.446236 0)
(0.0382501 -0.447418 0)
(0.0261193 -0.45365 0)
(0.0568713 -0.455737 0)
(0.0316267 -0.455484 0)
(0.0888722 -0.434375 0)
(0.136524 -0.443858 0)
(0.190264 -0.419831 0)
(0.267646 -0.390305 0)
(0.107419 -0.548807 0)
(0.0697702 -0.443851 0)
(0.0951651 -0.461424 0)
(0.0968095 -0.497828 0)
(0.128542 -0.510764 0)
(0.105531 -0.613692 0)
(0.156461 -0.601376 0)
(0.243416 -0.524675 0)
(0.146798 -0.668551 0)
(0.174001 -0.590229 0)
(0.000807624 -0.469594 0)
(0.00980273 -0.479276 0)
(0.00821309 -0.482647 0)
(0.0189677 -0.480452 0)
(0.0141493 -0.487375 0)
(0.0298912 -0.481082 0)
(0.0156579 -0.493629 0)
(0.0437705 -0.474779 0)
(0.052772 -0.498378 0)
(0.0731088 -0.459294 0)
(0.0732912 -0.511582 0)
(0.132502 -0.503683 0)
(0.101838 -0.555009 0)
(0.105565 -0.621465 0)
(0.152824 -0.512752 0)
(0.0864871 -0.46646 0)
(0.0940271 -0.49629 0)
(0.0994458 -0.533611 0)
(0.0823843 -0.616781 0)
(0.0744674 -0.570699 0)
(0.259283 -0.669102 0)
(0.195276 -0.709784 0)
(0.143256 -0.707173 0)
(0.00123953 -0.421533 0)
(0.00803235 -0.429022 0)
(0.00762214 -0.433156 0)
(0.0159693 -0.430638 0)
(0.0150495 -0.439153 0)