/*--------------------------------*- C++ -*----------------------------------*\
| =========                 |                                                 |
| \\      /  F ield         | foam-extend: Open Source CFD                    |
|  \\    /   O peration     | Version:     4.1                                |
|   \\  /    A nd           | Web:         http://www.foam-extend.org         |
|    \\/     M anipulation  |                                                 |
\*---------------------------------------------------------------------------*/
FoamFile
{
    version     2.0;
    format      ascii;
    class       volVectorField;
    location    "0.35";
    object      U_0;
}
// * * * * * * * * * * * * * * * * * * * * * * * * * * * * * * * * * * * * * //

dimensions      [0 1 -1 0 0 0 0];

internalField   nonuniform List<vector> 
2268
(
(0.0486445 -0.00653974 0)
(0.0551711 -0.00578886 0)
(0.145809 -0.0076028 0)
(0.175312 -0.00488219 0)
(0.247006 -0.00352585 0)
(0.276014 -0.00788386 0)
(0.342605 -0.00336498 0)
(0.382809 -0.00368125 0)
(0.456757 -0.00522145 0)
(0.445978 0.025085 0)
(0.365364 -0.0780877 0)
(0.36821 -0.0396836 0)
(0.414669 -0.0297901 0)
(0.412403 -0.0162656 0)
(0.427546 -0.0130088 0)
(0.394271 -0.0135616 0)
(0.416666 -0.0462346 0)
(0.421831 -0.0150222 0)
(0.357323 -0.0249354 0)
(0.3252 0.0631486 0)
(0.21029 0.0672749 0)
(0.19751 0.0152017 0)
(0.24208 0.0021432 0)
(0.0482974 -0.017978 0)
(0.0563508 -0.0170971 0)
(0.145427 -0.0211475 0)
(0.177114 -0.0185087 0)
(0.241416 -0.0210272 0)
(0.284852 -0.0137769 0)
(0.356749 -0.0230795 0)
(0.38711 -0.022732 0)
(0.471423 -0.0109173 0)
(0.427493 -0.00365293 0)
(0.373406 -0.0654018 0)
(0.395412 -0.0169307 0)
(0.436914 -0.00531279 0)
(0.430969 0.00538507 0)
(0.442831 0.0204831 0)
(0.391771 0.0358875 0)
(0.418305 0.0275744 0)
(0.482166 0.0485902 0)
(0.415276 0.0615005 0)
(0.348295 0.000650539 0)
(0.188814 0.0499123 0)
(0.20626 0.162158 0)
(0.284391 0.100188 0)
(0.0456715 -0.0312913 0)
(0.0561573 -0.0286875 0)
(0.143381 -0.0363795 0)
(0.176636 -0.0270077 0)
(0.240123 -0.0296442 0)
(0.304047 -0.0346778 0)
(0.346951 -0.0272996 0)
(0.391152 -0.0307009 0)
(0.484221 -0.0179383 0)
(0.393407 -0.133185 0)
(0.344183 -0.0762616 0)
(0.372143 -0.0400062 0)
(0.40144 -0.0256316 0)
(0.397098 -0.011668 0)
(0.419526 0.00409742 0)
(0.38196 0.0196612 0)
(0.4064 0.100464 0)
(0.420295 0.0412738 0)
(0.366585 0.0645846 0)
(0.305477 0.0173605 0)
(0.271823 0.0675584 0)
(0.203405 0.14085 0)
(0.233501 0.12693 0)
(0.0419939 -0.0419836 0)
(0.0576486 -0.0400886 0)
(0.146486 -0.0500509 0)
(0.175642 -0.040836 0)
(0.249206 -0.0521258 0)
(0.310707 -0.0376885 0)
(0.343147 -0.0464373 0)
(0.426209 -0.056004 0)
(0.386955 -0.040321 0)
(0.32602 -0.127453 0)
(0.324031 -0.0638064 0)
(0.327728 -0.0444734 0)
(0.352187 -0.0171691 0)
(0.339688 -0.000852694 0)
(0.362055 0.0283347 0)
(0.346021 0.023642 0)
(0.361392 0.0992355 0)
(0.36107 0.0335457 0)
(0.341343 0.0427661 0)
(0.30396 0.0292124 0)
(0.231382 0.102522 0)
(0.193224 0.153449 0)
(0.254129 0.199481 0)
(0.036021 -0.0548935 0)
(0.0566849 -0.0533518 0)
(0.147689 -0.0643135 0)
(0.176253 -0.0508815 0)
(0.251011 -0.0623932 0)
(0.298718 -0.0572256 0)
(0.336772 -0.0535175 0)
(0.427283 -0.0379187 0)
(0.346461 -0.135753 0)
(0.287729 -0.111647 0)
(0.293547 -0.0749749 0)
(0.304877 -0.0538487 0)
(0.323032 -0.027755 0)
(0.316983 -0.0129666 0)
(0.335277 0.0268773 0)
(0.318541 0.0250017 0)
(0.320327 0.0785967 0)
(0.301686 0.0541218 0)
(0.268842 0.0907187 0)
(0.281996 0.0935039 0)
(0.261014 0.114722 0)
(0.197973 0.209536 0)
(0.244728 0.233046 0)
(0.0314081 -0.0637842 0)
(0.060075 -0.0663912 0)
(0.151077 -0.0788811 0)
(0.177533 -0.0653058 0)
(0.239387 -0.0825773 0)
(0.289781 -0.0552883 0)
(0.365469 -0.0848685 0)
(0.313382 -0.0628386 0)
(0.267833 -0.140304 0)
(0.283871 -0.107488 0)
(0.281083 -0.0730859 0)
(0.300715 -0.0605167 0)
(0.314067 -0.0221317 0)
(0.312017 -0.00620264 0)
(0.330069 0.0320275 0)
(0.321417 0.0325668 0)
(0.31997 0.106514 0)
(0.313805 0.0589921 0)
(0.291827 0.168395 0)
(0.273371 0.103518 0)
(0.263411 0.15189 0)
(0.200449 0.272815 0)
(0.239895 0.30691 0)
(0.0291218 -0.076575 0)
(0.0622151 -0.0815578 0)
(0.145751 -0.0918951 0)
(0.16499 -0.0707666 0)
(0.238673 -0.0890628 0)
(0.27978 -0.091497 0)
(0.308751 -0.0494917 0)
(0.279083 -0.146547 0)
(0.253461 -0.133609 0)
(0.277709 -0.116482 0)
(0.278246 -0.0845296 0)
(0.310381 -0.069306 0)
(0.306609 -0.0331211 0)
(0.330066 -0.0186004 0)
(0.3334 0.0221149 0)
(0.347156 0.0333937 0)
(0.321424 0.0777677 0)
(0.317943 0.0787196 0)
(0.271954 0.126372 0)
(0.253769 0.17717 0)
(0.332355 0.163505 0)
(0.210931 0.312881 0)
(0.239963 0.334136 0)
(0.0325359 -0.0851611 0)
(0.069675 -0.0937644 0)
(0.143686 -0.104083 0)
(0.159555 -0.0903841 0)
(0.226324 -0.113947 0)
(0.28477 -0.0629647 0)
(0.239552 -0.102859 0)
(0.24783 -0.158723 0)
(0.250176 -0.142833 0)
(0.277989 -0.12041 0)
(0.282057 -0.089104 0)
(0.319774 -0.0744369 0)
(0.323716 -0.0295537 0)
(0.34658 -0.0214174 0)
(0.354727 0.021204 0)
(0.348561 0.0364723 0)
(0.341774 0.0401852 0)
(0.338049 0.063342 0)
(0.333416 0.0667339 0)
(0.280904 0.204475 0)
(0.321618 0.168956 0)
(0.25042 0.321139 0)
(0.198005 0.440487 0)
(0.0404643 0.137353 0)
(-0.98709 0.264582 0)
(-0.0322301 -0.252018 0)
(1.13178 0.128203 0)
(0.0845719 0.0722285 0)
(-0.425077 0.213489 0)
(-0.726414 0.258864 0)
(-1.73408 0.360541 0)
(-2.73024 0.315975 0)
(-3.1917 0.338378 0)
(-4.01347 0.360781 0)
(-5.14528 0.051783 0)
(-5.98413 -0.326597 0)
(-5.7362 -0.626347 0)
(-5.4143 -0.785518 0)
(-5.23192 -0.351944 0)
(-3.53782 -0.0942679 0)
(-2.67463 -0.835815 0)
(-0.901062 -0.586723 0)
(-0.186422 0.289651 0)
(-0.782007 0.157903 0)
(-0.078442 -0.682752 0)
(0.507274 0.099375 0)
(0.0114856 0.352266 0)
(-0.42854 0.432947 0)
(-0.799307 0.713224 0)
(-1.75213 1.12742 0)
(-2.35273 0.702423 0)
(-2.26215 0.563525 0)
(-1.78351 0.38309 0)
(-1.88266 0.343066 0)
(-2.06868 0.446541 0)
(-1.71504 0.0586675 0)
(-1.84161 -0.814654 0)
(-3.27255 0.0447336 0)
(-3.38964 0.462369 0)
(-1.70654 -0.588033 0)
(-0.0465077 -1.1646 0)
(-0.348785 0.79476 0)
(-0.314605 -0.0636096 0)
(-0.057943 -0.837731 0)
(0.218138 0.0927278 0)
(-0.229797 0.383544 0)
(-0.42732 0.848295 0)
(-0.403505 1.2617 0)
(-1.53334 1.32347 0)
(-1.97495 0.952041 0)
(-1.59276 0.18266 0)
(-1.27093 -0.300282 0)
(-0.329989 -0.0620838 0)
(-0.448089 0.104265 0)
(-0.327464 -0.303407 0)
(-1.20614 -0.725528 0)
(-2.02697 -0.260802 0)
(-2.20026 -0.0755142 0)
(-1.54237 -0.472606 0)
(0.507258 -1.47561 0)
(-0.281485 0.596049 0)
(0.102817 0.2916 0)
(-0.0143976 -0.794764 0)
(-0.118991 0.234516 0)
(-0.330204 0.563393 0)
(-0.104343 0.917806 0)
(-0.34523 1.21675 0)
(-1.27681 1.14467 0)
(-1.43495 0.673899 0)
(-0.868036 -0.0741741 0)
(-0.608199 -0.508195 0)
(-0.208104 0.0280133 0)
(-0.209853 -0.0760915 0)
(0.205751 -0.032128 0)
(-0.353237 -0.284055 0)
(-1.16086 0.180962 0)
(-1.29203 0.0584571 0)
(-1.27138 -0.695314 0)
(0.66065 -1.87831 0)
(0.120701 0.350482 0)
(0.602503 0.00660846 0)
(0.0310368 -0.833223 0)
(-0.645043 0.259507 0)
(-0.23685 0.829343 0)
(-0.109385 1.01727 0)
(-0.142339 0.960017 0)
(-0.915538 1.02143 0)
(-0.816844 0.674733 0)
(-0.422451 -0.104368 0)
(-0.271635 -0.595568 0)
(-0.288545 -0.151225 0)
(-0.0661408 -0.08975 0)
(0.386391 -0.090805 0)
(0.0954656 -0.066648 0)
(-0.14491 0.128428 0)
(-0.324822 -0.311239 0)
(-1.08844 -0.70405 0)
(0.735263 -2.06768 0)
(0.436494 0.423072 0)
(0.301945 0.208561 0)
(0.0338091 -0.883563 0)
(-0.329533 0.336029 0)
(-0.186093 0.702722 0)
(-0.0803564 0.814076 0)
(-0.010431 1.00448 0)
(-0.353678 1.18691 0)
(0.121993 1.37523 0)
(-0.157219 -0.102309 0)
(-0.0168439 -0.548829 0)
(-0.371429 -0.294341 0)
(0.541088 -0.347405 0)
(0.382145 -0.146145 0)
(0.312089 0.209353 0)
(0.204874 0.168966 0)
(1.01553 0.154203 0)
(-0.99243 -0.745554 0)
(0.768084 -2.1086 0)
(0.202191 -0.0295892 0)
(0.244229 0.124708 0)
(0.069417 -0.39648 0)
(-0.353831 0.229519 0)
(-0.278862 0.609541 0)
(0.0677858 0.320475 0)
(0.145999 1.08039 0)
(0.0545865 1.06789 0)
(0.757946 0.744157 0)
(0.0399487 0.0892021 0)
(0.162127 -0.471548 0)
(-0.271165 -0.350493 0)
(0.279532 -0.468641 0)
(0.318439 -0.250535 0)
(0.373904 0.117077 0)
(0.35494 0.0639368 0)
(1.26946 0.0727644 0)
(-0.930478 -0.658644 0)
(0.811487 -1.99384 0)
(0.0111779 0.0817213 0)
(0.0664791 0.144231 0)
(0.0530037 -0.286144 0)
(-0.23836 0.19649 0)
(-0.272172 0.667097 0)
(0.175077 0.548587 0)
(0.440584 0.979101 0)
(0.784974 0.923685 0)
(0.832756 0.376729 0)
(0.376717 0.230877 0)
(0.363217 -0.468422 0)
(-0.0497591 -0.397066 0)
(0.19732 -0.554953 0)
(0.228191 -0.286703 0)
(0.49516 0.0692825 0)
(0.592114 0.0607167 0)
(1.35332 0.142213 0)
(-0.813296 -0.308416 0)
(0.837974 -1.95708 0)
(0.0350765 -0.109039 0)
(0.0654851 -0.11512 0)
(0.130585 -0.119823 0)
(0.142457 -0.0837935 0)
(0.243551 -0.119534 0)
(0.198612 -0.130334 0)
(0.203646 -0.15909 0)
(0.24643 -0.158741 0)
(0.247402 -0.145326 0)
(0.277622 -0.136969 0)
(0.293996 -0.111895 0)
(0.353887 -0.0972376 0)
(0.352286 -0.0562845 0)
(0.361296 -0.0363141 0)
(0.371984 0.0194534 0)
(0.369674 0.044815 0)
(0.345071 0.098892 0)
(0.307257 0.124263 0)
(0.322008 0.199867 0)
(0.320597 0.170527 0)
(0.447434 0.195461 0)
(0.509265 0.372337 0)
(0.341179 0.562547 0)
(0.0420336 -0.127644 0)
(0.0502454 -0.135825 0)
(0.144684 -0.136826 0)
(0.123669 -0.1567 0)
(0.138023 -0.145033 0)
(0.177879 -0.195175 0)
(0.202126 -0.158253 0)
(0.21986 -0.186271 0)
(0.255223 -0.182199 0)
(0.292036 -0.158781 0)
(0.341429 -0.160583 0)
(0.381599 -0.123443 0)
(0.395687 -0.104075 0)
(0.422537 -0.0447872 0)
(0.42014 -0.00125059 0)
(0.447546 0.0529868 0)
(0.412374 0.0930426 0)
(0.439575 0.205346 0)
(0.394272 0.207731 0)
(0.328843 0.289641 0)
(0.443219 0.25984 0)
(0.709722 0.300023 0)
(0.485163 0.393712 0)
(0.0257558 -0.154161 0)
(0.0413486 -0.165762 0)
(0.0876692 -0.15825 0)
(0.105754 -0.198465 0)
(0.136231 -0.177622 0)
(0.161163 -0.19092 0)
(0.186445 -0.198226 0)
(0.234152 -0.215061 0)
(0.286926 -0.21939 0)
(0.321035 -0.223344 0)
(0.406175 -0.202671 0)
(0.40053 -0.156421 0)
(0.446323 -0.13201 0)
(0.434842 -0.0669093 0)
(0.491946 -0.00573513 0)
(0.472045 0.0583453 0)
(0.511357 0.119104 0)
(0.460729 0.160257 0)
(0.423112 0.158425 0)
(0.409994 0.266358 0)
(0.475245 0.24601 0)
(0.624222 0.325341 0)
(0.565493 0.250067 0)
(0.0314185 -0.198883 0)
(0.0354365 -0.200317 0)
(0.0880286 -0.203827 0)
(0.0921812 -0.208127 0)
(0.126699 -0.203846 0)
(0.145972 -0.242397 0)
(0.191101 -0.237448 0)
(0.219134 -0.284362 0)
(0.263085 -0.273999 0)
(0.275894 -0.276179 0)
(0.307292 -0.23974 0)
(0.281945 -0.167537 0)
(0.361339 -0.178829 0)
(0.371864 -0.105291 0)
(0.462288 -0.0710304 0)
(0.503123 0.0267031 0)
(0.513706 0.109834 0)
(0.467939 0.132111 0)
(0.468311 0.217023 0)
(0.378346 0.270249 0)
(0.480417 0.30802 0)
(0.543197 0.2369 0)
(0.510578 0.27919 0)
(0.00876065 -0.219037 0)
(0.0131233 -0.220066 0)
(0.0280458 -0.214023 0)
(0.0324302 -0.231885 0)
(0.0462934 -0.232686 0)
(0.0540536 -0.250228 0)
(0.0693797 -0.2711 0)
(0.0772423 -0.285945 0)
(0.0812513 -0.278831 0)
(0.072161 -0.261806 0)
(0.0738576 -0.205775 0)
(0.0252009 -0.192272 0)
(0.054885 -0.31095 0)
(0.076955 -0.166013 0)
(0.114697 -0.105736 0)
(0.212232 0.0130636 0)
(0.349489 0.160757 0)
(0.405881 0.204684 0)
(0.430787 0.270827 0)
(0.380654 0.274864 0)
(0.419275 0.334785 0)
(0.528666 0.107356 0)
(0.432041 0.178077 0)
(0.00253222 -0.222468 0)
(0.00213039 -0.223059 0)
(0.0112569 -0.225706 0)
(0.0125817 -0.229106 0)
(0.0198691 -0.232119 0)
(0.025635 -0.263837 0)
(0.0404582 -0.267556 0)
(0.0383923 -0.291494 0)
(0.0580779 -0.269237 0)
(0.0541199 -0.264498 0)
(0.0648791 -0.19499 0)
(0.0168721 -0.148655 0)
(0.00986698 -0.296774 0)
(0.0228477 -0.170575 0)
(0.0599415 -0.199492 0)
(0.115437 -0.199826 0)
(0.28468 0.0190325 0)
(0.224814 0.284715 0)
(0.345974 0.267234 0)
(0.35651 0.276413 0)
(0.553195 0.314244 0)
(0.572322 0.187406 0)
(0.390435 0.0350752 0)
(0.000629377 -0.224444 0)
(0.00305711 -0.230212 0)
(0.00897739 -0.22501 0)
(0.0123174 -0.24055 0)
(0.0204684 -0.249319 0)
(0.0208068 -0.272331 0)
(0.0297207 -0.287198 0)
(0.0219561 -0.306421 0)
(0.0264497 -0.298799 0)
(0.014279 -0.27044 0)
(-0.0104446 -0.177291 0)
(-0.0177442 -0.125112 0)
(0.0334259 -0.338891 0)
(0.0374514 -0.2166 0)
(0.138827 -0.236215 0)
(0.0378952 -0.239225 0)
(-0.0137317 -0.0462935 0)
(0.17418 0.204084 0)
(0.404831 0.200431 0)
(0.263035 0.165691 0)
(0.489079 0.211245 0)
(0.430285 -0.189429 0)
(0.416479 0.0850067 0)
(0.00133908 -0.228939 0)
(0.00164767 -0.228291 0)
(0.00249641 -0.233702 0)
(0.0052673 -0.236071 0)
(0.00473182 -0.236429 0)
(-0.00941042 -0.268277 0)
(-0.00585628 -0.271066 0)
(-0.0359971 -0.284638 0)
(-0.07728 -0.259878 0)
(-0.116153 -0.219553 0)
(-0.10046 -0.148932 0)
(-0.0821735 -0.1901 0)
(-0.0152824 -0.402906 0)
(-0.115865 -0.263238 0)
(-0.0271062 -0.399735 0)
(0.238055 -0.384848 0)
(0.362791 -0.124403 0)
(0.2094 0.294789 0)
(0.37635 0.219107 0)
(0.185487 -0.0683053 0)
(0.392663 0.120299 0)
(0.232058 0.217528 0)
(0.111271 0.22703 0)
(0.00258231 -0.227634 0)
(-0.0148503 -0.228418 0)
(-0.0438234 -0.23147 0)
(-0.0233362 -0.235991 0)
(-0.0533557 -0.240949 0)
(-0.0585951 -0.264794 0)
(-0.0182025 -0.277354 0)
(-0.0555083 -0.271845 0)
(-0.103223 -0.260872 0)
(-0.122337 -0.168986 0)
(-0.165661 -0.230823 0)
(-0.0949241 -0.235385 0)
(-0.0175832 -0.374941 0)
(-0.093478 -0.170868 0)
(-0.0806346 -0.205422 0)
(-0.057016 -0.184626 0)
(-0.102967 -0.256733 0)
(0.158919 0.245273 0)
(0.3268 0.203347 0)
(0.210703 0.0964109 0)
(0.0266297 -0.0673649 0)
(0.0282522 0.148259 0)
(-0.0354941 0.107132 0)
(-0.011511 -0.219043 0)
(-0.0447354 -0.215442 0)
(-0.0537231 -0.23415 0)
(-0.0475165 -0.213481 0)
(-0.0736035 -0.248993 0)
(-0.0599523 -0.264174 0)
(-0.0143837 -0.275518 0)
(-0.0358233 -0.209628 0)
(-0.0598037 -0.181075 0)
(-0.150907 -0.172398 0)
(-0.194824 -0.263724 0)
(-0.113609 -0.200055 0)
(-0.0953389 -0.383134 0)
(-0.133966 -0.272521 0)
(-0.205046 -0.396317 0)
(-0.17884 -0.318383 0)
(-0.213549 -0.237011 0)
(-0.0690264 0.110071 0)
(0.102593 0.182802 0)
(0.142653 0.11784 0)
(-0.0705468 0.123342 0)
(-0.110063 0.231571 0)
(0.0316506 0.152794 0)
(-0.0281088 -0.19024 0)
(-0.0448385 -0.153255 0)
(-0.0520915 -0.221349 0)
(-0.0153646 -0.203224 0)
(-0.0470991 -0.226775 0)
(-0.0246642 -0.309745 0)
(0.00316461 -0.298421 0)
(0.00244355 -0.219201 0)
(0.00855293 -0.145673 0)
(-0.0138541 -0.193183 0)
(-0.104707 -0.274667 0)
(-0.244499 -0.226982 0)
(-0.217712 -0.279188 0)
(-0.192398 -0.254158 0)
(-0.235184 -0.294854 0)
(-0.330219 -0.271498 0)
(-0.416854 -0.357653 0)
(-0.305474 0.00598118 0)
(-0.274976 0.348614 0)
(-0.280897 0.0992467 0)
(-0.249898 0.157319 0)
(-0.0741935 0.164002 0)
(-0.0356327 0.0744723 0)
(-0.0359609 -0.194963 0)
(-0.0196768 -0.173047 0)
(-0.0312316 -0.28201 0)
(0.0109329 -0.234046 0)
(-0.033792 -0.254201 0)
(-0.0101995 -0.319037 0)
(-0.0257967 -0.319527 0)
(-0.00588222 -0.20548 0)
(-0.0351204 -0.176235 0)
(-0.157307 -0.317143 0)
(-0.10909 -0.313149 0)
(-0.118284 -0.267685 0)
(-0.127544 -0.132003 0)
(-0.209952 -0.203352 0)
(-0.160471 -0.219888 0)
(-0.280171 -0.434988 0)
(-0.442497 -0.271875 0)
(-0.285427 -0.142753 0)
(-0.402152 0.0520983 0)
(-0.316933 -0.065606 0)
(-0.104731 0.0959692 0)
(-0.0664071 0.0276797 0)
(0.00579873 0.0319661 0)
(-0.0674248 -0.144279 0)
(-0.0340699 -0.105654 0)
(-0.00307696 -0.227743 0)
(0.0418707 -0.164842 0)
(-0.0105701 -0.181314 0)
(-0.00279302 -0.323625 0)
(-0.0438608 -0.284556 0)
(-0.0218161 -0.180199 0)
(-0.186099 -0.205044 0)
(-0.141738 -0.21995 0)
(-0.0884184 -0.165808 0)
(-0.175973 -0.197626 0)
(-0.117197 -0.0977288 0)
(-0.222711 -0.208108 0)
(-0.292512 -0.252362 0)
(-0.217718 -0.291948 0)
(-0.237802 -0.264977 0)
(-0.196475 -0.167679 0)
(-0.248179 -0.124428 0)
(-0.287047 0.0497274 0)
(-0.128165 -0.0391134 0)
(-0.00847692 0.0269608 0)
(-0.0207436 0.050564 0)
(-0.00277713 -0.106256 0)
(0.134617 -0.267553 0)
(0.0309377 -0.404255 0)
(-0.0145454 -0.235488 0)
(-0.109056 -0.266712 0)
(-0.0261873 -0.287711 0)
(-0.117787 -0.334735 0)
(-0.19412 -0.317012 0)
(-0.203462 -0.190432 0)
(-0.183903 -0.274843 0)
(-0.112717 -0.203241 0)
(-0.117729 -0.239322 0)
(-0.184697 -0.0806389 0)
(-0.294589 -0.254253 0)
(-0.142463 -0.171202 0)
(-0.20368 -0.197102 0)
(-0.321759 -0.258308 0)
(-0.22374 -0.137262 0)
(-0.125259 -0.255581 0)
(-0.138275 -0.0963397 0)
(-0.0057175 -0.0497746 0)
(-0.0243395 -0.0170508 0)
(0.0165718 0.0193232 0)
(-0.0777076 -0.271724 0)
(-0.00807481 -0.475871 0)
(-0.00922631 -0.494035 0)
(-0.0224728 -0.358823 0)
(0.0450114 -0.41571 0)
(-0.00132774 -0.395983 0)
(-0.22209 -0.439053 0)
(-0.110053 -0.325945 0)
(-0.188086 -0.256087 0)
(-0.191969 -0.257925 0)
(-0.0870741 -0.248054 0)
(-0.107719 -0.247541 0)
(-0.153362 -0.209501 0)
(-0.166726 -0.204832 0)
(-0.0807994 -0.0943629 0)
(-0.248675 -0.333161 0)
(-0.117252 -0.224534 0)
(-0.123076 -0.123577 0)
(-0.0730595 -0.244798 0)
(-0.0932709 -0.12174 0)
(0.0248218 -0.149679 0)
(0.0785859 -0.00539789 0)
(0.100673 -0.051893 0)
(-0.0255876 -0.321054 0)
(0.0212936 -0.43587 0)
(-0.0144851 -0.404835 0)
(-0.0116124 -0.322299 0)
(-0.0343653 -0.33465 0)
(-0.0714862 -0.415985 0)
(-0.107398 -0.360818 0)
(-0.0827406 -0.205703 0)
(-0.145976 -0.254006 0)
(-0.14014 -0.238322 0)
(-0.116213 -0.27826 0)
(-0.115389 -0.206395 0)
(-0.141701 -0.177241 0)
(-0.124347 -0.184595 0)
(-0.176983 -0.278739 0)
(-0.164287 -0.305092 0)
(-0.104649 -0.158062 0)
(-0.190678 -0.102998 0)
(-0.0375921 -0.153403 0)
(0.0209015 -0.163465 0)
(0.141366 -0.148991 0)
(0.086537 -0.0508191 0)
(0.143247 -0.0765164 0)
(0.0369106 -0.25129 0)
(0.0598172 -0.500618 0)
(-0.000187478 -0.439142 0)
(-0.0106995 -0.347379 0)
(-0.0213019 -0.358382 0)
(-0.0324599 -0.322643 0)
(-0.136972 -0.284902 0)
(-0.0877768 -0.219408 0)
(-0.194947 -0.169601 0)
(-0.124905 -0.27884 0)
(-0.0789359 -0.308852 0)
(-0.0805635 -0.178036 0)
(-0.161991 -0.19623 0)
(-0.21824 -0.162816 0)
(-0.0435279 -0.254846 0)
(0.0225878 -0.242014 0)
(-0.0267637 -0.318455 0)
(-0.0706409 -0.280546 0)
(0.0605884 -0.252322 0)
(0.0665921 -0.236636 0)
(0.15733 -0.19067 0)
(0.138721 -0.139173 0)
(0.144307 -0.0505201 0)
(-0.100362 -0.139158 0)
(-0.0591943 -0.327189 0)
(0.0465844 -0.257725 0)
(0.0548096 -0.282472 0)
(-0.00330913 -0.345181 0)
(3.5138e-05 -0.295151 0)
(-0.093426 -0.295537 0)
(-0.0430659 -0.162027 0)
(-0.100068 -0.193969 0)
(-0.129336 -0.230877 0)
(-0.0638859 -0.291216 0)
(-0.0959692 -0.160648 0)
(-0.131642 -0.157334 0)
(-0.056021 -0.136003 0)
(-0.0700684 -0.24546 0)
(-0.0588025 -0.374552 0)
(-0.117799 -0.403628 0)
(-0.00102628 -0.269129 0)
(0.118582 -0.27642 0)
(0.150076 -0.265272 0)
(0.213917 -0.211076 0)
(0.230306 -0.211892 0)
(0.185983 -0.114144 0)
(-0.059891 -0.101141 0)
(-0.0302504 -0.258332 0)
(-0.0582229 -0.224547 0)
(-0.114842 -0.257504 0)
(-0.0326485 -0.237691 0)
(0.0183897 -0.245169 0)
(-0.0976387 -0.234654 0)
(-0.0327553 -0.0871979 0)
(-0.0899555 -0.213017 0)
(-0.0167267 -0.293349 0)
(-0.0904118 -0.23978 0)
(-0.0528952 -0.176243 0)
(-0.0972541 -0.119001 0)
(-0.13375 -0.240494 0)
(-0.0861681 -0.249132 0)
(-0.0347517 -0.267385 0)
(0.0714651 -0.257615 0)
(0.118573 -0.265264 0)
(0.119298 -0.269359 0)
(0.159583 -0.290834 0)
(0.171018 -0.23539 0)
(0.193327 -0.152731 0)
(0.265795 -0.0406894 0)
(-0.0375527 -0.0722872 0)
(-0.0205968 -0.275813 0)
(-0.068318 -0.236812 0)
(0.00427665 -0.154837 0)
(-0.0316652 -0.199601 0)
(-0.0191187 -0.133848 0)
(-0.0158739 -0.219913 0)
(-0.0511606 -0.089737 0)
(-0.0921465 -0.129087 0)
(-0.00169982 -0.335888 0)
(-0.0588949 -0.247096 0)
(-0.0608619 -0.0655748 0)
(-0.131865 -0.186292 0)
(-0.0150569 -0.168818 0)
(0.00668259 -0.247471 0)
(0.0284473 -0.236133 0)
(0.0399661 -0.242704 0)
(0.0931665 -0.311654 0)
(0.140532 -0.31409 0)
(0.198897 -0.319485 0)
(0.250058 -0.246691 0)
(0.217922 -0.0901917 0)
(0.191395 -0.0970505 0)
(-0.0657416 -0.0717304 0)
(-0.0337375 -0.285852 0)
(-0.0823414 -0.22072 0)
(-0.0408086 -0.0921341 0)
(-0.0483186 -0.219711 0)
(-0.0448376 -0.0745963 0)
(-0.0723284 -0.165039 0)
(0.0221549 -0.0159612 0)
(-0.115118 -0.133889 0)
(-0.0316366 -0.241972 0)
(0.0485233 -0.150805 0)
(-0.00616888 -0.0398003 0)
(-0.0387834 -0.0562621 0)
(0.0256319 -0.15382 0)
(0.0258898 -0.260799 0)
(0.0532858 -0.263081 0)
(0.0856076 -0.276571 0)
(0.137621 -0.319448 0)
(0.145181 -0.327573 0)
(0.175245 -0.352856 0)
(0.200562 -0.236663 0)
(0.15553 -0.117433 0)
(0.231439 -0.11728 0)
(-0.0157932 0.00792369 0)
(0.00396428 -0.244667 0)
(-0.00315837 -0.147312 0)
(0.00645076 -0.230496 0)
(-0.0461289 -0.135663 0)
(0.0219146 -0.164252 0)
(-0.0607631 -0.0341534 0)
(0.060117 -0.0893948 0)
(-0.00298649 -0.0342207 0)
(0.0136447 -0.227533 0)
(-0.0014432 -0.0813616 0)
(-0.00426842 -0.0316036 0)
(-0.00698424 -0.0811448 0)
(0.0632744 -0.219854 0)
(0.0593039 -0.27498 0)
(0.0765552 -0.293169 0)
(0.0698668 -0.303303 0)
(0.118779 -0.344449 0)
(0.114195 -0.331363 0)
(0.176424 -0.336128 0)
(0.268664 -0.243828 0)
(0.134834 -0.114724 0)
(0.174737 -0.138805 0)
(0.0955829 -0.162648 0)
(0.0560591 -0.316455 0)
(-0.0877411 -0.257297 0)
(-0.0243845 -0.318585 0)
(-0.0725895 -0.273955 0)
(-0.0767938 -0.258355 0)
(-0.0664897 -0.213837 0)
(-0.0197973 -0.177227 0)
(0.00364381 -0.117001 0)
(-0.0003598 -0.210106 0)
(0.0191412 -0.135717 0)
(-0.0740826 0.00356131 0)
(0.0163558 -0.126616 0)
(0.0828708 -0.189298 0)
(0.0639768 -0.270171 0)
(0.093186 -0.233145 0)
(0.139279 -0.307629 0)
(0.198402 -0.35484 0)
(0.187328 -0.399457 0)
(0.142795 -0.286431 0)
(0.224943 -0.192582 0)
(0.189847 -0.232565 0)
(0.222383 -0.180341 0)
(0.0128651 -0.276 0)
(0.0124239 -0.379402 0)
(0.0032597 -0.355636 0)
(0.0109483 -0.331515 0)
(-0.00804955 -0.330534 0)
(0.00581886 -0.290905 0)
(0.016353 -0.268871 0)
(0.0564339 -0.217861 0)
(0.113514 -0.235985 0)
(0.0507241 -0.267272 0)
(-0.0368363 -0.16761 0)
(0.0901623 -0.13721 0)
(0.108732 -0.218815 0)
(0.0898555 -0.21857 0)
(0.120756 -0.292519 0)
(0.156088 -0.380504 0)
(0.103221 -0.374813 0)
(0.14817 -0.375156 0)
(0.185772 -0.461604 0)
(0.190969 -0.427071 0)
(0.157956 -0.362873 0)
(0.1301 -0.339004 0)
(0.121629 -0.186843 0)
(0.00186861 -0.232571 0)
(0.00688542 -0.297746 0)
(-0.0143603 -0.291347 0)
(-0.0018656 -0.298647 0)
(-0.013974 -0.280082 0)
(-0.00882359 -0.284842 0)
(-0.00434379 -0.268642 0)
(0.00311239 -0.265273 0)
(0.0240741 -0.279454 0)
(0.0155546 -0.32334 0)
(0.0458896 -0.234307 0)
(0.0149948 -0.25602 0)
(0.101355 -0.260894 0)
(0.0949992 -0.284409 0)
(0.0722639 -0.331825 0)
(0.136728 -0.461174 0)
(0.200219 -0.415726 0)
(0.180041 -0.436819 0)
(0.0980516 -0.458595 0)
(0.155163 -0.436386 0)
(0.268567 -0.449292 0)
(0.222731 -0.402637 0)
(0.286685 -0.292708 0)
(0.000490967 -0.282355 0)
(0.0111356 -0.333687 0)
(0.00725888 -0.332316 0)
(0.0184151 -0.32098 0)
(0.0140042 -0.315718 0)
(0.0236556 -0.30477 0)
(0.0285429 -0.29288 0)
(0.0353389 -0.278221 0)
(0.0516598 -0.268645 0)
(0.042573 -0.254954 0)
(0.047333 -0.242425 0)
(0.0647851 -0.245887 0)
(0.0722303 -0.209781 0)
(0.0787297 -0.283101 0)
(0.0998775 -0.362648 0)
(0.134654 -0.302307 0)
(0.200987 -0.418769 0)
(0.187981 -0.434652 0)
(0.145605 -0.451812 0)
(0.175497 -0.419267 0)
(0.209516 -0.423094 0)
(0.231053 -0.376911 0)
(0.289462 -0.306097 0)
(-0.00139207 -0.264452 0)
(0.00811958 -0.317579 0)
(0.00306655 -0.314617 0)
(0.0114556 -0.314295 0)
(0.0112949 -0.296143 0)
(0.0161333 -0.313574 0)
(0.0224518 -0.295321 0)
(0.0282595 -0.30507 0)
(0.0374876 -0.295785 0)
(0.0428778 -0.30333 0)
(0.0570758 -0.278286 0)
(0.0561934 -0.294668 0)
(0.0810238 -0.277619 0)
(0.0715682 -0.314861 0)
(0.12502 -0.363745 0)
(0.145913 -0.373543 0)
(0.227327 -0.399673 0)
(0.218193 -0.430893 0)
(0.0603208 -0.445653 0)
(0.154966 -0.430547 0)
(0.294105 -0.52553 0)
(0.326225 -0.459848 0)
(0.355017 -0.358536 0)
(-0.00339358 -0.291367 0)
(0.0136415 -0.335518 0)
(0.0129569 -0.337854 0)
(0.0334345 -0.330176 0)
(0.0309168 -0.330394 0)
(0.0260056 -0.323386 0)
(0.040064 -0.319717 0)
(0.0448058 -0.309444 0)
(0.0512302 -0.301654 0)
(0.0584888 -0.2937 0)
(0.0616826 -0.276419 0)
(0.0769598 -0.289095 0)
(0.0773803 -0.256976 0)
(0.0882868 -0.314772 0)
(0.0986545 -0.32661 0)
(0.241215 -0.360766 0)
(0.288163 -0.516375 0)
(0.193732 -0.474721 0)
(0.0975337 -0.381435 0)
(0.135303 -0.533866 0)
(0.229311 -0.559635 0)
(0.402218 -0.462829 0)
(0.371088 -0.33386 0)
(0.00099207 -0.288039 0)
(0.0123826 -0.327616 0)
(0.0116196 -0.336762 0)
(0.0231762 -0.335391 0)
(0.0237176 -0.345154 0)
(0.0348532 -0.335777 0)
(0.0342112 -0.332063 0)
(0.0459995 -0.329787 0)
(0.0483248 -0.322523 0)
(0.0631455 -0.324744 0)
(0.0677759 -0.31291 0)
(0.0862763 -0.326939 0)
(0.0919023 -0.296288 0)
(0.110302 -0.335941 0)
(0.130164 -0.34167 0)
(0.136868 -0.410623 0)
(0.235943 -0.580547 0)
(0.324343 -0.470688 0)
(0.00270143 -0.420432 0)
(0.104745 -0.558689 0)
(0.348679 -0.4901 0)
(0.416583 -0.57912 0)
(0.376124 -0.367251 0)
(0.000796078 -0.31768 0)
(0.0170885 -0.35664 0)
(0.0177844 -0.359318 0)
(0.0313288 -0.355853 0)
(0.0314081 -0.353005 0)
(0.04211 -0.345538 0)
(0.0444665 -0.341197 0)
(0.0577281 -0.339248 0)
(0.057452 -0.334315 0)
(0.0755343 -0.332954 0)
(0.0664499 -0.322494 0)
(0.0944651 -0.337931 0)
(0.0748852 -0.306365 0)
(0.110664 -0.356431 0)
(0.0992131 -0.357914 0)
(0.164881 -0.443033 0)
(0.287888 -0.403583 0)
(0.302634 -0.510137 0)
(0.0695334 -0.607861 0)
(0.193533 -0.449989 0)
(0.220463 -0.42592 0)
(0.383994 -0.444007 0)
(0.582758 -0.415034 0)
(0.0030596 -0.325642 0)
(0.0142682 -0.363711 0)
(0.0167284 -0.366872 0)
(0.0278327 -0.365156 0)
(0.0295228 -0.367091 0)
(0.0421775 -0.364424 0)
(0.0440351 -0.361961 0)
(0.0588196 -0.358099 0)
(0.0564733 -0.354752 0)
(0.0757246 -0.34508 0)
(0.0609037 -0.347616 0)
(0.0975678 -0.344051 0)
(0.0523013 -0.32809 0)
(0.123254 -0.360764 0)
(0.165353 -0.386627 0)
(0.209687 -0.378584 0)
(0.159645 -0.459513 0)
(0.152995 -0.612501 0)
(0.197229 -0.509996 0)
(0.302693 -0.489128 0)
(0.291393 -0.430909 0)
(0.325979 -0.452829 0)
(0.434744 -0.487621 0)
(0.00203787 -0.352137 0)
(0.0171245 -0.384857 0)
(0.01739 -0.385393 0)
(0.0306386 -0.382922 0)
(0.0320135 -0.379126 0)
(0.0453243 -0.376388 0)
(0.0448914 -0.3709 0)
(0.0592823 -0.36638 0)
(0.0578816 -0.362724 0)
(0.0758236 -0.346938 0)
(0.0658971 -0.357236 0)
(0.0971495 -0.328636 0)
(0.0613646 -0.344579 0)
(0.13706 -0.329177 0)
(0.193995 -0.398029 0)
(0.188397 -0.464461 0)
(0.128305 -0.537118 0)
(0.238282 -0.587086 0)
(0.317861 -0.457142 0)
(0.285728 -0.511686 0)
(0.181898 -0.439822 0)
(0.311822 -0.550247 0)
(0.553076 -0.570717 0)
(0.00349038 -0.365038 0)
(0.0148037 -0.395433 0)
(0.0171957 -0.394654 0)
(0.0289445 -0.396078 0)
(0.0310598 -0.396427 0)
(0.0434503 -0.392955 0)
(0.047521 -0.388568 0)
(0.0599945 -0.388982 0)
(0.0632008 -0.384132 0)
(0.0785707 -0.370155 0)
(0.0820826 -0.378002 0)
(0.101454 -0.355147 0)
(0.100241 -0.383045 0)
(0.139468 -0.347161 0)
(0.133313 -0.409358 0)
(0.154455 -0.4856 0)
(0.12394 -0.475177 0)
(0.24077 -0.466199 0)
(0.361143 -0.508356 0)
(0.356173 -0.656777 0)
(0.176178 -0.441617 0)
(0.214322 -0.415496 0)
(0.410745 -0.548439 0)
(0.00154403 -0.387853 0)
(0.0157784 -0.411911 0)
(0.015552 -0.412019 0)
(0.0291471 -0.410781 0)
(0.0298063 -0.405616 0)
(0.043036 -0.410328 0)
(0.0444608 -0.400125 0)
(0.0554309 -0.40112 0)
(0.0589329 -0.394045 0)
(0.0643195 -0.390413 0)
(0.0794395 -0.388355 0)
(0.0680294 -0.379634 0)
(0.106754 -0.393246 0)
(0.164233 -0.375086 0)
(0.139152 -0.400068 0)
(0.21303 -0.474842 0)
(0.153842 -0.497724 0)
(0.187177 -0.51988 0)
(0.177519 -0.71397 0)
(0.316076 -0.726843 0)
(0.2962 -0.57559 0)
(0.221348 -0.497397 0)
(0.361665 -0.525625 0)
(0.00207936 -0.401709 0)
(0.0130137 -0.425109 0)
(0.0138388 -0.423127 0)
(0.0259274 -0.426416 0)
(0.0270667 -0.424995 0)
(0.0415878 -0.42435 0)
(0.0416573 -0.412937 0)
(0.05797 -0.420865 0)
(0.0578209 -0.399327 0)
(0.0722676 -0.414309 0)
(0.080414 -0.37638 0)
(0.0799899 -0.418303 0)
(0.114207 -0.299007 0)
(0.18841 -0.356225 0)
(0.113488 -0.441283 0)
(0.129739 -0.482581 0)
(0.113503 -0.562728 0)
(0.136093 -0.508792 0)
(0.185461 -0.575867 0)
(0.377368 -0.387755 0)
(0.312907 -0.514139 0)
(0.325724 -0.659947 0)
(0.411124 -0.529843 0)
(0.00132972 -0.414285 0)
(0.013805 -0.431941 0)
(0.012445 -0.433784 0)
(0.0267847 -0.43407 0)
(0.0239743 -0.433064 0)
(0.0408543 -0.436747 0)
(0.0381128 -0.430052 0)
(0.0615936 -0.430947 0)
(0.0532778 -0.421884 0)
(0.0863625 -0.428795 0)
(0.068883 -0.412433 0)
(0.117626 -0.437197 0)
(0.209348 -0.332516 0)
(0.142139 -0.404689 0)
(0.105892 -0.468868 0)
(0.130183 -0.512 0)
(0.140206 -0.496568 0)
(0.223507 -0.483253 0)
(0.264874 -0.519595 0)
(0.395811 -0.453678 0)
(0.124153 -0.636221 0)
(0.277108 -0.5291 0)
(0.280574 -0.747014 0)
(0.00103252 -0.433794 0)
(0.0121227 -0.449007 0)
(0.0112101 -0.450248 0)
(0.0235166 -0.451188 0)
(0.0211636 -0.452797 0)
(0.0369399 -0.454598 0)
(0.0317493 -0.454651 0)
(0.0537268 -0.45531 0)
(0.048156 -0.445759 0)
(0.074112 -0.449877 0)
(0.0572978 -0.422172 0)
(0.0939682 -0.379155 0)
(0.162279 -0.292161 0)
(0.14072 -0.381472 0)
(0.101323 -0.436987 0)
(0.133333 -0.474291 0)
(0.137724 -0.484583 0)
(0.171485 -0.530742 0)
(0.158255 -0.624844 0)
(0.10589 -0.693551 0)
(0.233476 -0.727868 0)
(0.182878 -0.55768 0)
(0.236947 -0.824995 0)
(0.000636829 -0.430487 0)
(0.0122963 -0.443051 0)
(0.0103549 -0.445987 0)
(0.0241897 -0.445609 0)
(0.0191978 -0.44985 0)
(0.0383677 -0.451063 0)
(0.0262443 -0.457354 0)
(0.0570647 -0.459448 0)
(0.0318123 -0.459184 0)
(0.0892171 -0.438013 0)
(0.137175 -0.447509 0)
(0.190973 -0.423406 0)
(0.269185 -0.393837 0)
(0.107594 -0.553218 0)
(0.0695757 -0.447613 0)
(0.0954325 -0.465436 0)
(0.0969782 -0.501852 0)
(0.129043 -0.514922 0)
(0.105766 -0.618104 0)
(0.1573 -0.605414 0)
(0.243981 -0.529098 0)
(0.147159 -0.673132 0)
(0.17429 -0.595093 0)
(0.000824526 -0.47317 0)
(0.00982687 -0.482859 0)
(0.00827222 -0.486233 0)
(0.0190391 -0.484054 0)
(0.0142449 -0.490991 0)
(0.0300105 -0.484721 0)
(0.0157658 -0.497281 0)
(0.0439391 -0.478424 0)
(0.0530277 -0.502092 0)
(0.0733889 -0.462963 0)
(0.073696 -0.515404 0)
(0.133037 -0.507648 0)
(0.102428 -0.559136 0)
(0.10588 -0.626422 0)
(0.153345 -0.516705 0)
(0.0867905 -0.470628 0)
(0.0942047 -0.500608 0)
(0.0997259 -0.538011 0)
(0.0823911 -0.621504 0)
(0.0745016 -0.574731 0)
(0.259725 -0.673724 0)
(0.195589 -0.714363 0)
(0.143555 -0.712899 0)
(0.00125336 -0.425042 0)
(0.00805107 -0.432535 0)
(0.00766652 -0.436671 0)
(0.0160241 -0.434176 0)
(0.015126 -0.442701 0)