/*--------------------------------*- C++ -*----------------------------------*\
| =========                 |                                                 |
| \\      /  F ield         | foam-extend: Open Source CFD                    |
|  \\    /   O peration     | Version:     4.1                                |
|   \\  /    A nd           | Web:         http://www.foam-extend.org         |
|    \\/     M anipulation  |                                                 |
\*---------------------------------------------------------------------------*/
FoamFile
{
    version     2.0;
    format      ascii;
    class       volScalarField;
    location    "0.9";
    object      p;
}
// * * * * * * * * * * * * * * * * * * * * * * * * * * * * * * * * * * * * * //

dimensions      [1 -1 -2 0 0 0 0];

internalField   nonuniform List<scalar> 
2268
(
1077.58
1076.37
1080.8
1075.78
1082
1068.66
1071.57
1064.19
1066.08
1069.46
1059.01
1049.44
1033.53
1012.01
983.463
949.564
929.998
909.146
914.895
916.716
921.082
928.948
926.001
1018.96
1017.72
1021.49
1019.04
1023.9
1009.79
1011.04
1002.33
1010.44
1016.57
994.672
994.258
978.25
949.94
928.921
895.753
860.881
846.842
856.759
858.664
862.777
871.058
866.875
958.978
958.243
962.63
956.988
966.241
946.636
953.101
946.711
957.312
939.539
944.241
935.037
925.675
887.944
872.465
823.356
801.726
782.698
795.166
795.455
801.871
812.682
808.366
900.598
900.096
902.183
904.863
905.609
894.025
892.425
898.108
874.357
902.613
884.546
877.39
851.758
823.836
806.897
770.233
731.38
719.963
735.6
737.085
746.068
756.538
748.389
839.5
838.915
843.769
834.566
846.556
826.827
833.404
836.621
826.339
836.222
828.059
812.123
816.458
779.036
752.049
710.131
667.665
646.388
670.289
679.516
681.53
699.681
690.816
781.041
780.948
785.675
788.112
789.297
771.447
785.093
763.486
776.427
785.246
766.829
758.355
745.214
730.461
684.571
630.889
594.259
567.433
610.335
618.965
621.708
646.621
627.829
719.528
720.4
720.841
717.382
741.817
696.777
732.573
707.081
710.778
715.63
702.141
694.942
704.803
635.96
613.38
559.696
491.405
499.657
541.632
566.201
565.583
590.993
575.049
660.445
657.417
669.737
663.553
677.167
651.385
692.502
656.424
647.035
650.684
634
633.636
602.066
565.003
536.703
460.415
381.864
428.391
494.121
507.739
503.688
534.941
505.372
576.297
428.227
423.044
554.825
565.432
524.296
517.713
485.195
510.059
563.253
624.294
604.296
602.755
599.855
615.198
622.899
648.411
679.739
682.419
487.157
309.061
348.179
495.927
502.641
465.484
469.872
447.544
456.591
521.186
588.961
571.297
547.85
542.124
562.744
546.349
595.391
621.583
629.287
383.397
261.16
281.359
387.65
416.737
360.086
419.358
423.912
449.685
475.903
519.385
498.015
502.824
483.092
518.624
521.227
464.147
573.017
586.384
356.972
228.042
206.366
314.973
318.9
311.758
376.509
382.681
417.694
457.229
474.421
429.652
427.788
414.962
448.118
454.23
428.592
503.461
542.462
353.371
241.5
149.397
214.838
181.782
225.372
306.137
298.306
374.154
436.087
446.639
401.614
346.339
367.311
355.778
369.607
325.163
442.08
515.497
342.65
250.527
203.502
149.192
108.665
145
128.636
218.808
325.021
370.452
410.557
381.262
302.75
263.962
261.458
296.104
297.511
397.388
428.725
330.169
245.585
176.056
108.245
97.7498
109.33
94.8669
162.12
277.531
287.519
207.464
270.443
276.691
205.375
154.388
197.481
228.765
274.103
316.862
304.989
228.754
77.5267
91.6566
89.6579
84.4237
96.1778
132.842
197.716
206.674
174.738
153.116
184.388
142.438
104.667
140.019
174.044
208.913
275.492
562.267
565.885
561.741
555.726
589.876
575.892
533.151
578.792
509.979
540.432
513.595
494.265
487.456
587.793
468.432
417.629
311.486
322.457
386.548
427.168
420.434
453.652
410.529
428.55
410.458
461.424
429.319
434.085
438.614
460.824
456.712
410.541
428.289
372.989
403.312
339.391
314.033
81.4795
255.081
38.2413
257.986
277.97
321.111
295.171
288.366
287.904
283.426
294.991
262.574
302.527
337.813
262.092
354.16
318.13
106.693
281.538
168.891
107.608
49.8933
97.2048
-66.1778
151.978
50.4248
185.864
187.31
285.836
225.583
277.09
188.078
143.673
128.21
184.241
115.37
101.226
120.835
82.1826
141.819
248.881
68.0608
25.5691
8.66639
2.32891
4.78798
-4.17021
-21.7118
133.842
189.799
179.855
194.9
175.539
156.711
142.658
30.8685
16.9351
16.2578
19.5787
14.4348
30.6824
68.0201
104.934
53.4309
14.7563
2.58859
0.878163
0.696178
0.0790303
-0.770872
6.49406
23.4701
38.7421
63.618
140.909
102.146
95.4723
72.1944
5.37834
1.94209
1.9455
3.42295
8.07224
9.79692
16.2986
26.7117
24.5728
2.40264
0.313252
0.0757793
0.020154
-0.0670183
-0.344187
-0.0215325
-1.46056
1.45029
10.3063
13.9998
-4.03964
16.8174
11.3822
3.33952
2.12777
1.90731
1.00805
2.86279
3.97796
12.1283
9.99412
7.25727
-0.0671373
-0.527346
-0.311916
-0.266292
-0.446515
-0.580543
-0.637836
-0.718696
-0.319449
0.609795
-1.55535
2.70363
4.25889
-12.2386
2.64327
1.18098
1.75793
1.28483
1.07401
1.05137
-1.53499
-0.616644
-1.39167
-1.27613
-0.934256
-0.747452
-0.744262
-0.774411
-0.994906
-1.0045
-1.12556
-1.11579
-1.09611
-1.23522
-2.45508
-3.03961
-5.60819
1.81633
0.922875
0.933532
0.713085
0.683692
0.110834
-1.84682
-1.54535
-1.7691
-1.65987
-1.38821
-1.1174
-1.17277
-1.16335
-1.28721
-1.13031
-1.33722
-1.39548
-1.45709
-2.20558
-2.73307
-4.16661
-6.95367
2.08785
0.408956
0.373678
0.178004
-0.408754
-1.06421
-1.41793
-1.52948
-2.0966
-1.89919
-1.62508
-1.69452
-1.72096
-1.53791
-1.82674
-1.93364
-1.92989
-1.69132
-1.4361
-3.33249
-3.46883
-4.79629
-3.44351
1.07119
-0.0758415
-0.490876
-0.38396
-0.816445
-1.27595
-1.81396
-1.50963
-2.16773
-2.366
-2.18799
-2.63472
-2.45616
-2.37167
-2.62691
-2.39273
-1.84676
-2.05392
-2.73134
-4.05301
-3.24078
-4.47172
-2.93212
-0.467883
-0.475006
-0.150718
-0.513062
-0.928739
-0.726713
-2.18257
-2.51755
-2.50772
-3.11091
-2.80757
-3.91879
-3.27347
-3.17389
-2.63765
-2.66074
-2.45457
-2.43038
-2.78527
-3.08309
-2.86881
-4.55328
-1.76938
-1.51198
-1.29608
-0.755332
-0.804828
-1.2848
-2.70024
-2.32543
-2.48523
-3.05875
-3.51614
-4.17123
-4.38454
-3.85145
-3.43245
-3.63567
-3.05204
-2.98473
-2.7071
-2.57872
-2.44816
-1.68412
-1.24371
-2.23978
-1.53453
-1.63762
-1.16723
-0.779736
-1.42061
-1.44442
-3.03263
-3.52971
-4.01629
-4.30694
-5.26948
-5.47928
-4.69441
-4.50428
-3.83354
-3.755
-3.47902
-2.91514
-2.3154
-2.19314
-2.03127
-1.73744
-1.81936
-1.69849
-1.68366
-2.14947
-2.96132
-3.71526
-3.66713
-4.17607
-4.41191
-4.81027
-5.23365
-5.75085
-6.40797
-5.38992
-4.55262
-4.20844
-3.91795
-3.29186
-2.36462
-1.90241
-1.67985
-2.10236
-1.5378
-1.93829
-1.86991
-1.96429
-2.34582
-4.368
-3.16442
-3.55543
-3.90219
-4.51636
-5.88217
-6.68917
-6.99491
-7.03642
-5.98712
-4.91382
-4.25984
-4.15099
-3.79961
-2.61331
-1.95465
-2.10788
-1.90676
-1.82564
-1.88008
-2.01247
-2.06198
-2.38372
-2.66079
-3.03473
-3.63011
-3.63236
-4.38627
-5.20286
-6.91704
-7.13287
-7.15978
-6.77098
-5.47154
-5.07518
-4.35939
-3.06084
-2.24145
-1.97897
-1.65752
-1.82123
-1.91286
-1.76329
-1.94018
-2.34422
-2.51808
-2.87352
-2.67812
-3.71771
-3.52918
-4.28129
-6.01181
-6.36066
-6.43654
-6.19451
-5.99927
-6.14365
-4.71031
-6.03705
-3.00052
-2.01856
-1.40447
-1.41008
-1.64528
-1.84113
-1.83192
-2.23702
-3.47078
-2.74489
-3.44701
-3.71287
-3.95894
-4.11739
-5.05727
-5.30553
-5.58706
-5.34405
-5.58367
-4.80902
-4.80257
-5.52794
-6.95463
-3.0369
-2.55223
-2.15389
-1.9995
-2.0808
-2.16134
-2.22558
-3.35706
-3.36126
-2.7013
-3.1956
-3.44685
-3.55213
-4.05995
-3.83458
-4.17868
-4.31202
-5.00104
-4.91463
-4.22831
-3.52756
-4.37869
-3.15091
-2.98355
-2.76334
-2.45994
-2.35278
-2.36074
-2.36413
-2.53893
0.380449
-3.5864
-2.51204
-2.69317
-3.48793
-3.52214
-3.37341
-3.19492
-3.70924
-3.87197
-4.1734
-4.24532
-3.60988
-2.27145
-2.37531
-1.02439
-2.25514
-2.55904
-2.63125
-2.5482
-2.57264
-2.6475
-2.55997
3.15098
-4.15806
-2.03515
-3.52441
-3.28418
-3.70988
-2.05324
-3.22377
-4.9392
-4.76251
-4.35491
-3.95544
-3.39583
-2.65861
-2.4067
-1.8406
-3.03124
-3.03356
-3.23624
-3.08562
-2.89595
-2.95707
-2.9
0.855904
-3.0517
-1.24594
-3.30676
-4.14282
-4.57964
-2.49044
-4.14506
-4.80083
-4.65405
-4.13882
-4.19097
-3.77571
-3.54281
-2.84776
-2.99257
-2.97699
-3.26108
-3.69877
-3.62387
-3.58029
-3.42064
-3.18684
8.86221
-2.65044
-1.89753
-3.20571
-4.01961
-5.10368
-5.51719
-4.93627
-5.19964
-5.17572
-4.66069
-4.95581
-4.41707
-4.09892
-4.00591
-3.66144
-3.16716
-3.92035
-4.12875
-4.14452
-3.93394
-3.78685
-3.47777
2.04174
-1.5832
-0.179872
-3.57178
-4.40494
-5.37987
-5.19852
-5.43348
-5.43494
-5.38834
-4.84012
-5.1376
-4.9834
-4.78733
-4.93603
-4.66451
-4.42427
-4.40226
-4.60077
-4.66084
-3.88791
-3.97531
-3.64109
-1.64081
-0.881862
-1.37742
-3.01936
-5.96789
-5.77445
-5.84026
-5.80136
-5.64179
-5.91028
-4.94014
-5.10145
-5.0539
-5.30755
-5.13607
-4.79722
-5.24623
-5.2579
-4.97183
-4.67382
-4.59852
-4.27648
-3.96936
-2.44478
-2.65967
-1.95033
-2.84235
-5.31401
-6.55313
-7.02483
-6.6284
-6.06898
-5.83504
-5.37967
-5.57645
-5.49905
-5.22901
-5.08357
-5.24306
-5.3916
-5.08276
-5.1999
-4.77867
-4.67895
-4.49773
-4.14709
-2.15219
-2.47264
-2.10768
-2.90774
-5.16295
-7.90557
-7.40707
-7.32918
-6.48686
-5.90413
-5.37606
-5.57429
-5.3978
-5.28794
-5.06387
-5.56142
-5.99513
-5.28594
-5.25726
-5.09957
-4.49092
-4.46216
-4.3001
-2.03034
-1.9786
-2.23909
-2.88496
-4.77953
-6.24097
-6.36473
-6.54272
-6.07244
-5.74959
-5.16148
-4.98016
-5.25458
-5.04008
-4.87056
-5.19132
-5.58095
-5.30649
-5.25536
-5.18662
-5.04856
-4.56958
-4.79009
-2.10141
-2.16848
-2.31196
-2.55264
-4.03132
-5.14509
-5.12298
-5.68216
-5.49697
-6.17609
-5.01321
-5.05629
-5.3073
-4.76753
-4.30084
-5.0257
-5.29435
-5.1711
-5.07547
-4.9688
-4.87593
-4.93497
-4.47188
-2.84804
-2.51543
-2.95027
-3.00945
-3.95309
-4.48664
-4.87432
-5.05645
-4.86923
-5.23988
-5.18607
-5.10448
-5.34572
-5.02597
-5.09338
-4.75744
-4.95645
-4.87255
-4.85762
-4.76179
-4.76848
-4.57811
-4.50013
-3.63867
-3.59285
-3.68104
-3.59719
-4.17848
-4.46348
-4.68364
-5.0353
-4.65318
-5.12591
-4.74508
-4.74225
-4.88795
-4.76386
-5.26111
-4.53578
-4.8669
-5.07765
-4.7809
-4.6766
-4.56382
-4.7319
-4.58562
-3.46159
-3.78131
-3.89072
-4.18883
-4.52028
-4.50503
-4.72504
-4.74604
-4.74126
-4.72737
-4.69641
-4.74641
-4.30484
-4.34217
-4.80196
-4.67179
-4.99202
-4.95447
-4.73071
-4.70031
-4.67863
-4.71285
-4.70369
-4.6263
-4.66938
-4.63018
-4.97181
-4.99549
-4.68286
-4.82645
-4.77864
-4.73093
-4.69445
-4.81005
-4.71166
-4.83029
-4.7921
-4.75634
-4.64123
-4.99244
-4.83063
-5.01853
-4.83085
-4.70651
-4.73284
-4.69924
-4.78695
-4.66427
-4.84757
-4.90821
-5.08673
-4.91039
-4.92223
-4.88101
-4.81951
-4.77541
-4.74687
-4.74128
-4.67399
-4.66337
-4.6818
-4.77606
-4.94079
-4.94959
-4.95887
-4.81255
-4.88278
-4.91
-4.7927
-4.89539
-4.95242
-5.06375
-5.11772
-5.16934
-5.09597
-5.1154
-4.98626
-4.94081
-4.91179
-4.92439
-4.88745
-4.84808
-4.84466
-4.82621
-4.87086
-4.80255
-5.02941
-4.91546
-5.01523
-4.94454
-4.99439
-5.00575
-5.00235
-5.24887
-5.22648
-5.2106
-5.26596
-5.24515
-5.1393
-5.11475
-5.06383
-5.02297
-5.02516
-4.99747
-4.98077
-4.951
-5.02033
-5.01038
-5.14712
-5.04051
-5.05029
-5.08976
-5.05775
-5.07764
-5.11064
-4.98959
-5.40179
-5.32932
-5.33694
-5.37403
-5.31451
-5.26954
-5.24156
-5.19284
-5.1717
-5.15133
-5.13718
-5.11515
-5.1455
-5.16047
-5.13831
-5.16485
-5.21122
-5.14319
-5.17054
-5.1758
-5.1651
-5.25595
-6.41443
-5.96163
-5.7237
-5.44234
-5.43761
-5.4338
-5.37165
-5.34995
-5.3227
-5.30394
-5.29301
-5.27224
-5.26476
-5.27512
-5.33645
-5.22543
-5.30461
-5.33784
-5.2799
-5.32622
-5.30855
-5.32899
-5.32983
-6.11904
-5.94788
-5.80642
-5.39917
-5.43343
-5.45046
-5.43826
-5.45327
-5.40953
-5.42177
-5.41393
-5.38781
-5.43785
-5.36131
-5.44435
-5.41598
-5.36287
-5.44328
-5.45353
-5.44273
-5.35513
-5.37307
-5.42499
-5.98678
-5.91697
-6.28154
-5.60011
-5.67397
-5.55353
-5.59308
-5.59811
-5.55719
-5.53943
-5.55345
-5.51568
-5.55601
-5.5324
-5.5577
-5.51777
-5.52078
-5.53455
-5.60364
-5.55216
-5.6001
-5.56843
-5.65569
-6.22184
-6.11028
-5.40072
-5.65649
-5.65146
-5.69824
-5.65303
-5.67004
-5.67121
-5.68276
-5.66569
-5.66534
-5.67186
-5.65603
-5.69032
-5.67168
-5.68728
-5.65305
-5.69638
-5.67181
-5.62069
-5.71753
-5.5875
372.094
368.35
357.089
343.646
257.275
256.434
230.205
234.521
225.385
206.37
232.157
212.655
145.046
156.556
152.883
147.561
97.4523
53.7019
84.8584
50.0183
51.4658
17.6529
-7.9558
1.29912
15.1415
14.826
5.86613
4.11167
5.55485
4.74703
4.85763
4.41463
-12.7284
-4.50175
-0.248747
1.76839
-3.91865
-10.7641
-5.77601
-1.97781
-2.0703
-0.00580498
-2.20941
-1.79769
-1.30807
-1.15377
-1.06222
-1.74165
-1.91216
-1.56086
-1.44416
-1.66612
-1.77238
-1.78088
-1.72029
-1.69814
-1.79499
-1.65409
-1.65464
-1.55119
-1.82333
-1.74699
-1.6392
-1.69553
-1.74742
-1.88717
-1.85303
-1.87958
-1.92824
-1.88885
-1.96707
-1.89969
-2.28125
-2.17369
-2.13219
-2.16504
-2.55992
-2.48293
-2.56025
-2.49367
-2.56838
-2.65872
-2.73051
-2.61948
-2.87865
-2.81147
-2.71103
-2.8024
-3.17416
-3.15042
-3.2097
-3.15518
-3.3989
-3.36599
-3.3185
-3.43142
-3.51074
-3.47012
-3.47778
-3.33062
-3.94581
-3.799
-3.71505
-3.7778
-4.04439
-3.95116
-3.78667
-3.70406
-4.27388
-4.2777
-4.30211
-4.24644
-4.40617
-4.47621
-4.22533
-4.26214
-4.43202
-4.54559
-4.56801
-4.46156
-4.48362
-4.44937
-4.34375
-4.34343
-4.62734
-4.55694
-4.5593
-4.535
-4.719
-4.70164
-4.68836
-4.70581
-4.70274
-4.7506
-4.69347
-4.67422
-4.83616
-4.87046
-4.87832
-4.92513
-4.92403
-4.92966
-4.9067
-4.91296
-5.10216
-5.03362
-5.06962
-5.01676
-5.24157
-5.3046
-5.27264
-5.28345
-5.32639
-5.2965
-5.2886
-5.32235
-5.39013
-5.37147
-5.41228
-5.44069
-5.62479
-5.63589
-5.61578
-5.60095
-5.64046
-5.65634
-5.71118
-5.78027
305.062
211.93
101.925
91.3165
80.7348
79.2596
79.3669
78.9778
80.555
121.365
59.4834
109.531
72.1849
39.5052
58.3684
47.2329
68.1585
78.1267
146.999
233.952
228.902
120.301
69.1328
67.4496
70.1264
75.01
76.6958
40.4401
67.1203
68.7029
20.9998
26.4435
16.5223
14.5259
28.1638
33.1077
26.0574
44.9175
225.557
206.189
80.2876
66.9514
62.2019
72.7326
66.167
65.1995
82.1412
55.8884
25.939
16.3552
18.0244
13.427
16.1053
15.2719
18.0785
13.3582
41.7563
94.4496
61.5678
45.9294
19.6825
55.5141
66.6114
62.8545
49.4444
42.9546
10.6123
12.4762
13.6613
11.4381
9.83227
8.73228
9.33161
8.98778
11.073
37.7396
17.0627
12.2797
8.03957
9.18124
45.4368
49.1251
45.6816
34.6606
19.7131
16.6787
14.721
12.0309
9.70794
8.18784
7.53012
5.99947
3.55595
-8.26317
14.5429
6.57184
2.09029
4.06913
2.52472
9.37675
11.4751
10.1746
14.3218
13.1291
11.3257
17.0689
10.4438
8.53707
6.96681
6.00732
4.67122
3.83107
4.18488
14.8152
1.37073
2.7654
3.54943
3.46145
2.67883
5.30581
7.71828
7.59413
11.195
14.042
11.7089
8.03144
7.87101
6.14235
3.66254
2.6681
2.2161
2.59902
4.18649
4.2359
1.828
3.2995
1.6579
2.20645
4.48986
5.01206
6.06146
6.3805
6.40293
5.9437
5.73471
6.71952
4.92551
1.89415
1.66163
1.77887
2.12795
3.22161
2.75152
0.323532
1.61978
0.817092
0.894753
1.77817
2.02201
3.18175
2.39981
4.02661
2.24302
16.5998
2.05676
2.26354
1.28303
0.876667
1.35847
1.6383
2.10789
0.074647
-0.648074
0.576811
-0.535751
-0.793637
0.774835
0.0728257
0.346709
-0.0809829
-0.366717
-0.344669
5.1316
-2.09455
-0.257724
0.741625
0.918764
0.907079
1.31355
1.7604
-0.641604
-0.821872
-0.872469
-0.916239
-1.10208
-0.587266
-0.678685
-0.592433
-0.775651
-1.28743
-1.18788
-3.02109
-1.40574
0.237878
0.552509
1.00137
0.848394
1.22159
1.59224
-0.807171
-0.753154
-1.038
-1.11977
-1.43292
-1.30583
-1.23988
-1.53351
-1.1062
-1.5736
-1.36308
-2.60655
-1.15321
0.516107
0.432231
0.536845
0.854227
0.948823
1.32081
-1.57464
-1.47972
-1.61457
-1.56489
-1.27659
-1.35663
-1.37408
-1.45513
-1.34895
-1.41636
-1.3688
-1.28106
-1.64623
-0.361921
0.428557
0.756396
0.768546
0.792935
0.748237
-1.69746
-1.54244
-1.84573
-1.84989
-1.58973
-1.59228
-1.50325
-1.45034
-1.46245
-1.51503
-1.42097
-1.32955
-1.38313
-0.311166
0.625329
0.536919
0.2408
0.304677
-0.0276924
-1.5787
-1.50347
-1.72873
-1.90533
-1.7005
-1.70003
-1.61596
-1.66226
-1.59801
-1.5803
-1.50911
-1.67938
-1.43232
-0.913546
-0.677877
-0.596203
-0.810311
-1.32256
-0.691409
-1.6679
-1.60869
-1.72075
-1.86977
-1.79383
-1.8189
-1.72365
-1.80643
-1.7136
-1.69629
-1.59347
-1.63871
-1.54474
-1.73974
-1.6634
-1.61801
-1.64063
-1.77096
-1.36291
-1.74109
-1.76388
-1.89805
-1.86464
-1.91128
-1.92031
-1.88099
-1.90335
-1.86993
-1.82639
-1.90646
-1.75721
-1.77393
-1.87051
-1.74124
-1.79122
-1.77268
-1.83579
-1.45265
-1.92843
-1.96951
-2.02818
-2.02843
-2.04723
-2.07174
-2.02471
-2.00832
-1.93968
-1.88912
-1.88449
-1.90663
-1.82642
-1.94572
-1.85281
-2.02755
-1.73669
-1.8076
-1.79747
-2.10492
-2.17361
-2.19673
-2.19245
-2.1842
-2.19309
-2.17752
-2.16874
-2.14779
-2.15044
-2.09938
-2.02037
-2.09569
-1.96865
-2.07245
-2.03468
-1.98864
-1.90041
-1.92867
-2.24259
-2.27081
-2.47557
-2.38818
-2.37569
-2.32952
-2.31621
-2.22218
-2.25178
-2.25667
-2.22562
-2.17983
-2.17116
-2.12132
-2.29241
-2.15759
-2.12167
-2.0881
-2.04641
-2.84377
-2.79187
-2.48212
-2.56932
-2.5156
-2.44156
-2.47781
-2.61399
-2.40593
-2.37337
-2.38308
-2.33433
-2.34019
-2.32689
-2.46053
-2.3619
-2.32462
-2.25567
-2.27829
-2.94517
-2.87346
-2.77516
-2.74453
-2.70482
-2.81863
-2.53229
-2.67078
-2.59
-2.55467
-2.49172
-2.50768
-2.48871
-2.53806
-2.58316
-2.57008
-2.54721
-2.44865
-2.46828
-2.78462
-3.1944
-2.99501
-2.98148
-2.91046
-2.94132
-3.07099
-2.63935
-2.81274
-2.74905
-2.71829
-2.64226
-2.63467
-2.70531
-2.79343
-2.72615
-2.72491
-2.63347
-2.66487
-3.48672
-2.99307
-3.19556
-3.14572
-3.183
-3.25159
-3.16407
-3.10879
-2.94585
-2.90434
-2.93752
-2.83038
-2.81376
-2.9349
-2.9362
-2.9242
-2.99531
-2.88393
-2.85386
-3.61765
-3.4459
-3.34114
-3.28567
-3.20629
-3.0773
-3.23108
-3.25109
-3.15268
-3.17176
-3.20032
-3.00537
-3.07723
-3.14223
-3.11235
-3.20287
-3.08922
-3.13401
-3.10292
-3.4593
-3.53379
-3.50776
-3.46378
-3.48719
-3.40384
-3.42365
-3.5172
-3.32771
-3.43436
-3.46906
-3.26717
-3.34946
-3.35487
-3.32745
-3.4381
-3.38054
-3.32303
-3.2952
-3.77787
-3.69752
-3.61973
-3.42326
-3.3866
-3.42021
-3.29737
-3.64385
-3.51619
-3.49997
-3.74903
-3.60535
-3.49189
-3.48082
-3.54492
-3.63038
-3.61403
-3.5024
-3.48567
-4.04087
-3.93882
-3.78238
-4.04461
-3.97149
-3.79304
-3.78466
-4.05147
-3.99783
-3.74362
-3.79661
-3.821
-3.74314
-3.68168
-3.75005
-3.60431
-3.69094
-3.6184
-3.60359
-4.17158
-4.3021
-4.3631
-4.29426
-4.26516
-4.02438
-3.79193
-3.87247
-4.1807
-4.09279
-4.17856
-4.05097
-3.90155
-3.81998
-3.94313
-3.88208
-3.8157
-3.77449
-3.7707
-4.40814
-4.27511
-4.29608
-4.3049
-4.15684
-4.63902
-4.18097
-4.23069
-4.54005
-4.36047
-4.41809
-4.31716
-4.11671
-3.9605
-3.93343
-3.88501
-3.88628
-3.89548
-3.87579
-4.47088
-4.49244
-4.50808
-4.53548
-4.49713
-4.35608
-4.9366
-4.56351
-4.72732
-4.6356
-4.56756
-4.47151
-4.378
-4.5296
-4.12971
-3.99604
-4.08938
-4.04641
-4.05267
-4.46308
-4.46642
-4.56717
-4.30682
-4.53449
-4.62392
-4.87096
-4.82797
-4.69961
-4.82831
-4.73288
-4.68544
-4.48331
-4.25291
-4.12765
-4.26394
-4.21077
-4.18867
-4.17251
-4.85502
-4.60722
-4.31834
-4.50891
-4.57432
-4.62227
-4.53613
-4.9254
-4.90933
-5.00073
-4.98122
-4.90432
-4.71171
-4.47612
-4.44025
-4.38664
-4.37853
-4.43501
-4.37491
-4.58432
-4.76497
-4.89022
-4.68208
-4.73667
-4.72018
-4.55468
-4.9455
-5.02066
-5.18709
-5.06868
-4.89471
-4.68065
-4.63193
-4.51286
-4.55558
-4.61789
-4.57891
-4.56934
-4.82127
-4.8919
-4.96891
-4.86668
-4.80702
-4.61289
-5.09896
-4.97938
-5.05921
-5.09739
-5.21494
-4.92339
-4.94439
-4.77382
-4.72254
-4.79178
-4.83984
-4.70967
-4.74738
-4.89215
-4.93657
-4.81078
-4.97807
-4.92628
-5.32193
-5.27275
-5.17591
-5.16545
-5.01446
-5.12477
-5.16396
-5.04293
-5.05467
-4.96309
-5.00869
-4.9639
-5.00189
-4.91508
-4.97997
-5.03727
-5.0293
-5.0552
-5.10447
-5.27694
-4.99148
-5.1509
-5.10284
-5.36639
-5.05384
-5.17282
-5.03905
-5.10588
-5.07525
-5.10942
-5.06785
-4.9976
-5.00957
-5.34877
-5.19106
-5.12777
-5.03862
-5.15295
-5.04403
-5.07482
-5.13186
-5.16925
-5.19728
-5.24535
-5.19875
-5.27342
-5.28979
-5.21892
-5.19905
-5.19381
-5.16448
-5.11165
-5.34073
-5.35994
-5.20655
-5.45414
-5.29826
-5.22407
-5.36272
-5.34417
-5.38201
-5.3353
-5.30712
-5.35332
-5.33714
-5.41325
-5.3467
-5.33327
-5.29262
-5.28483
-5.30235
-5.37783
-5.49517
-5.59934
-5.519
-5.48356
-5.62275
-5.44251
-5.52632
-5.39658
-5.44182
-5.37818
-5.41926
-5.42599
-5.51424
-5.4391
-5.43075
-5.41243
-5.43081
-5.44007
-5.5603
-5.5751
-5.68962
-5.7222
-5.57498
-5.67169
-5.66856
-5.63103
-5.56537
-5.52645
-5.5029
-5.51777
-5.50528
-5.604
-5.61724
-5.60571
-5.50515
-5.51044
-5.50209
-5.76331
-5.84922
-5.76767
-5.73759
-5.86531
-5.75115
-5.68996
-5.67741
-5.65877
-5.66799
-5.67768
-5.68652
-5.689
-5.70549
-5.65758
-5.71494
-5.70074
-5.71014
-5.67928
)
;

boundaryField
{
    leftWall
    {
        type            calculated;
        value           nonuniform List<scalar> 
50
(
1077.58
1018.96
958.978
900.598
839.5
781.041
719.528
660.445
562.267
428.55
283.426
143.673
30.8685
5.37834
3.33952
2.64327
1.81633
2.08785
1.07119
-0.467883
-1.51198
-1.53453
-1.69849
-1.86991
-2.01247
-1.94018
-2.23702
-3.35706
0.380449
3.15098
0.855904
8.86221
2.04174
-1.64081
-2.44478
-2.15219
-2.03034
-2.10141
-2.84804
-3.63867
-3.46159
-4.6263
-4.78695
-4.89539
-5.00235
-4.98959
-6.41443
-6.11904
-5.98678
-6.22184
)
;
    }
    rightWall
    {
        type            calculated;
        value           nonuniform List<scalar> 
50
(
682.419
629.287
586.384
542.462
515.497
428.725
316.862
275.492
146.999
44.9175
41.7563
37.7396
14.5429
14.8152
4.18649
3.22161
2.10789
1.7604
1.59224
1.32081
0.748237
-0.0276924
-0.691409
-1.36291
-1.45265
-1.79747
-1.92867
-2.04641
-2.27829
-2.46828
-2.66487
-2.85386
-3.10292
-3.2952
-3.48567
-3.60359
-3.7707
-3.87579
-4.05267
-4.17251
-4.37491
-4.56934
-4.74738
-4.91508
-5.00957
-5.11165
-5.30235
-5.44007
-5.50209
-5.67928
)
;
    }
    lowerWall
    {
        type            calculated;
        value           nonuniform List<scalar> 
62
(
1107
1105.8
1110.23
1105.21
1111.43
1098.09
1101
1093.62
1095.51
1098.89
1088.44
1078.87
1062.96
1041.44
1012.89
978.993
959.428
938.575
944.325
946.145
950.512
958.377
955.431
926.001
866.875
808.366
748.389
690.816
627.829
575.049
505.372
434.309
430.867
419.676
406.232
576.297
487.157
383.397
356.972
353.371
342.65
330.169
304.989
602.444
455.129
451.765
583.593
592.356
550.524
544.05
511.369
536.128
588.769
649.953
629.49
628.872
628.086
643.617
651.32
677.214
708.881
711.465
)
;
    }
    atmosphere
    {
        type            calculated;
        value           nonuniform List<scalar> 
46
(
-6.16051
-6.08201
-6.08741
-5.73012
-5.73475
-5.76703
-5.74277
-5.7489
-5.73784
-5.73187
-5.73142
-5.7297
-5.7317
-5.73095
-5.74631
-5.74106
-5.73988
-5.76286
-5.74387
-5.73494
-5.75687
-5.76678
-5.74053
-5.79604
-5.80477
-5.82192
-5.83826
-5.82587
-5.87202
-5.89201
-5.89065
-5.88575
-5.87438
-5.8384
-5.80633
-5.7716
-5.74729
-5.74105
-5.73686
-5.73111
-5.7393
-5.78259
-6.26204
-5.77256
-5.72921
-5.72904
)
;
    }
    defaultFaces
    {
        type            empty;
    }
}


// ************************************************************************* //
