/*--------------------------------*- C++ -*----------------------------------*\
| =========                 |                                                 |
| \\      /  F ield         | foam-extend: Open Source CFD                    |
|  \\    /   O peration     | Version:     4.1                                |
|   \\  /    A nd           | Web:         http://www.foam-extend.org         |
|    \\/     M anipulation  |                                                 |
\*---------------------------------------------------------------------------*/
FoamFile
{
    version     2.0;
    format      ascii;
    class       volScalarField;
    location    "0.9";
    object      pd;
}
// * * * * * * * * * * * * * * * * * * * * * * * * * * * * * * * * * * * * * //

dimensions      [1 -1 -2 0 0 0 0];

internalField   nonuniform List<scalar> 
2268
(
1107
1105.8
1110.23
1105.21
1111.43
1098.09
1101
1093.62
1095.51
1098.89
1088.44
1078.87
1062.96
1041.44
1012.89
978.993
959.428
938.575
944.325
946.145
950.512
958.377
955.431
1107.25
1106
1109.78
1107.32
1112.19
1098.08
1099.33
1090.62
1098.73
1104.86
1082.96
1082.55
1066.54
1038.23
1017.21
984.041
949.169
935.13
945.047
946.953
951.065
959.346
955.162
1106.12
1105.39
1109.78
1104.13
1113.39
1093.78
1100.25
1093.86
1104.46
1086.69
1091.39
1082.18
1072.82
1035.09
1019.61
970.503
948.873
929.845
942.313
942.602
949.018
959.829
955.51
1106.6
1106.1
1108.19
1110.87
1111.61
1100.03
1098.43
1104.11
1080.36
1108.62
1090.55
1083.4
1057.76
1029.84
1012.9
976.238
937.38
925.968
941.606
943.09
952.074
962.543
954.391
1104.36
1103.78
1108.63
1099.43
1111.42
1091.69
1098.27
1101.49
1091.2
1101.09
1092.92
1076.99
1081.32
1043.87
1016.72
974.787
931.951
911.226
935.153
944.38
946.395
964.545
955.679
1104.76
1104.67
1109.39
1111.82
1113.01
1095.17
1108.82
1087.21
1100.15
1108.97
1090.55
1082.08
1068.84
1052.69
1003.6
949.464
909.333
889.23
934.057
942.688
945.431
970.338
951.549
1102.11
1102.98
1103.39
1099.91
1124.36
1079.36
1115.15
1089.66
1093.36
1098.21
1084.72
1077.49
1085.59
1005.9
970.074
912.231
834.824
852.148
922.152
948.778
947.988
971.894
957.422
1101.88
1098.85
1111.12
1104.92
1118.58
1092.82
1133.94
1097.86
1088.48
1092.12
1075.43
1074.41
1035.5
976.899
922.225
836.196
741.271
772.926
926.487
948.997
940.072
958.732
943.962
602.444
455.129
451.765
583.593
592.356
550.524
544.05
511.369
536.128
588.769
649.953
629.49
628.872
628.086
643.617
651.32
677.214
708.881
711.465
565.498
383.857
432.456
582.385
580.48
541.33
510.334
482.111
491.215
579.554
663.056
630.81
607.249
601.566
636.644
627.308
681.847
708.238
705.976
468.168
340.491
409.216
531.748
550.361
484.4
519.766
492.631
507.413
600.376
650.739
634.859
639.2
610.794
642.835
655.216
608.665
715.107
680.541
512.338
318.606
356.274
514.573
516.623
489.73
556.795
557.646
589.449
591.865
584.949
597.227
614.878
617.128
651.539
658.085
632.447
704.365
708.387
581.443
357.981
355.361
431.808
388.45
440.034
538.014
530.103
546.369
525.623
535.956
501.313
480.599
594.299
617.33
631.706
587.263
704.179
764.722
573.078
409.23
484.828
309.714
173.596
309.805
401.492
455.983
408.006
580.045
640.364
497.278
418.559
491.867
560.143
616.26
617.854
717.731
748.119
631.453
559.077
507.966
194.257
113.955
170.684
264.183
262.638
360.271
587.713
507.704
557.088
570.479
503.651
434.148
546.503
604.72
644.575
694.381
716.288
641.371
347.381
126.511
107.1
133.376
129.742
171.719
416.263
553.105
521.169
499.547
530.819
487.065
278.82
454.078
591.637
630.536
709.795
1095.33
1099.1
1095.07
1088.99
1123.16
1109.15
1066.58
1112.23
1043.39
1073.17
1039.11
1003.69
992.176
1086.12
932.201
867.383
712.872
691.161
894.268
944.291
869.566
942.124
927.965
1082.17
1065.84
1116.97
1085.86
1090.97
1095.37
1118.37
1114.63
1068.23
1073.5
962.682
932.069
900.17
939.77
716.786
889.392
518.846
596.285
693.72
789.373
714.569
925.234
946.455
1055.35
1055.25
1025.06
1059.85
1068.31
1027.23
1129.69
1094.16
877.839
1040.62
801.045
515.542
371.292
580.138
561.665
865.047
571.954
497.232
498.395
611.79
828.326
1048.81
970.598
900.095
911.093
977.992
843.546
584.22
758.884
857.215
981.843
1131.55
790.039
240.788
56.9148
23.204
41.495
110.14
452.561
840.228
919.512
909.758
871.651
921.269
900.31
1011.24
301.15
271.877
338.146
300.702
163.708
209.551
427.228
935.722
1025.92
509.136
28.1546
3.64157
2.4137
1.66474
7.5759
107.959
372.758
585.789
688.413
811.767
479.946
413.619
778.147
72.5048
26.8025
33.7285
42.1646
38.8188
34.1352
164.56
686.606
870.069
203.894
6.14377
1.49098
1.2532
1.32034
1.7318
3.72508
3.74075
22.6786
90.4816
221.127
219.051
222.044
328.837
115.741
7.19219
5.05743
6.11698
8.49745
18.5949
98.2966
216.776
230.816
43.113
1.77335
1.01879
1.0383
0.857526
0.718464
0.70581
0.760394
3.5047
17.5376
56.0895
94.5246
117.769
166.561
189.126
5.39003
3.35698
3.08143
6.02761
18.4942
24.2601
19.1024
10.736
1.73755
0.568813
0.693309
0.69549
0.642153
0.416709
0.407112
0.306015
0.707929
2.44956
4.42982
3.58955
6.19292
98.0744
320.659
4.4228
2.60356
2.583
6.41869
12.241
4.67235
0.86528
-0.0603105
-0.0100998
0.294083
0.638704
0.422455
0.374384
0.249757
0.406657
0.208833
0.355787
1.38234
1.49992
0.953408
0.91882
20.929
412.872
4.28038
2.18169
2.06828
3.57679
4.18784
3.07393
1.0153
-0.312273
-0.112906
0.445699
0.319757
-0.0135136
0.124411
-0.164421
-0.27132
-0.247116
0.283003
3.68329
9.49769
8.78062
0.7383
17.4418
336.75
4.93853
1.44365
1.54761
1.32737
1.49618
2.0185
0.941884
-0.190847
-0.343935
0.0372553
-0.697407
-0.668118
-0.583993
-0.839237
-0.603107
-0.0388277
-0.0842876
2.47439
16.1925
20.5885
7.20613
11.1899
125.629
5.28868
1.9205
1.55396
1.63213
4.97351
4.33911
0.109345
-0.248649
-0.87523
-0.684052
-1.98409
-1.35165
-1.25139
-0.723948
-0.744185
-0.531659
-0.473014
0.194153
8.37348
22.4888
20.9469
22.0014
26.9942
4.6613
1.45291
1.68198
3.86066
6.76564
4.50505
0.0790599
-0.784592
-1.3348
-2.05865
-2.28938
-1.68535
-1.26212
-1.55179
-1.00784
-0.946926
-0.669487
-0.529606
0.0249866
4.63719
17.3935
23.4105
7.18938
3.36307
1.67044
4.88529
8.63075
8.64827
3.01277
-0.974651
-1.7427
-2.10492
-3.06838
-3.25486
-2.29858
-1.95025
-1.27608
-1.53303
-1.30044
-0.752119
-0.153094
-0.0244277
0.199741
0.845914
1.31393
2.84338
2.04205
1.60608
7.67236
6.96214
3.55968
0.297159
-1.52673
-2.37376
-2.90503
-3.42223
-4.07935
-3.00344
-2.11805
-1.13243
-0.836568
-0.526094
0.0196188
0.385289
0.606732
0.186451
0.761036
0.385825
2.18749
1.92916
1.57754
4.51933
7.29591
0.0425685
-0.813809
-1.46012
-3.05067
-4.18983
-4.49546
-4.42796
-3.48704
-2.41361
-1.45233
0.439878
2.72997
1.58583
0.529768
0.303872
0.504767
0.585851
0.532345
3.74605
10.5767
2.53411
2.03028
2.64766
-0.979139
-0.999374
-1.56127
-2.38727
-4.03957
-4.25759
-4.29298
-4.13752
-2.84166
-2.22337
0.904834
10.2736
7.77492
1.69176
0.884874
0.715646
0.623758
0.773324
7.98484
15.635
3.21413
0.0891325
0.327995
-1.02648
-0.837959
-1.56741
-3.246
-3.38658
-3.45594
-3.41491
-3.30653
-3.33036
-0.0259534
6.28931
11.4291
12.433
4.67474
1.30656
1.0182
0.820697
0.829859
19.2474
15.352
2.62936
-0.620483
-0.895078
-1.14115
-1.29959
-2.23946
-2.48739
-2.71778
-2.47458
-2.76564
-1.98942
-1.36004
5.09739
8.1537
12.093
4.75962
1.01075
0.831605
0.709055
0.626036
0.561444
82.4473
11.3807
1.3543
-0.243923
-0.502482
-0.607744
-1.11557
-0.890198
-1.22651
-1.34321
-2.04109
-1.97022
-1.2839
1.04247
10.4316
12.6601
4.88176
1.15073
0.699353
0.602056
0.558833
0.554654
0.373801
594.301
6.74393
1.19709
0.530669
-0.235903
-0.250059
-0.0446763
0.429606
0.0336815
-0.217528
-0.51846
-0.951215
-0.317356
3.65861
13.6194
9.99045
2.40322
0.764879
0.500436
0.568119
0.573022
0.428249
0.479149
877.737
7.2515
2.58132
0.398694
1.15779
2.44054
21.3439
29.1831
27.5281
16.8814
3.53266
-0.503979
0.375928
12.0456
14.2342
6.64957
1.08917
0.323479
0.131271
0.729553
0.860288
0.284326
0.265867
910.063
15.1148
4.03107
7.15274
23.2834
24.7093
22.2718
10.7943
18.0739
17.351
5.86391
-0.209187
4.95
15.2672
12.9216
2.85668
0.760252
0.230322
0.255222
0.803129
0.840323
-0.0499423
0.104204
698.496
39.6382
7.8198
28.1027
31.1897
15.5307
1.50771
-0.803083
-0.207406
2.69155
4.22031
8.14661
15.1092
15.5457
7.43567
0.790988
0.750636
0.0669537
-0.0137615
0.450776
0.178202
-0.321641
-0.0635545
147.532
40.4214
31.0059
33.6004
30.7358
10.8733
0.0204357
-1.53859
-1.54005
-0.645502
3.06495
11.8381
13.8142
9.00922
2.00134
-0.0939574
0.137807
-0.186859
-0.652132
-0.36647
-0.186858
-0.427555
-0.10276
11.7709
31.1922
37.1806
24.5624
4.1138
-1.19378
-1.80756
-1.76866
-1.60908
-1.49576
2.3128
4.59064
4.18392
1.30517
-0.292179
0.187981
-0.562921
-1.21948
-0.988167
-0.75428
-0.868703
-0.610923
-0.30601
1.86644
32.041
25.7965
6.54301
2.19248
1.01815
-0.618316
-2.09096
-1.89846
-1.66452
-0.565983
0.650011
-0.838003
-1.02719
-0.906526
0.113688
-0.87668
-0.91672
-0.897938
-0.811377
-0.867978
-0.708693
-0.358565
2.25053
17.5576
4.60635
3.76488
5.42593
7.13092
-0.596006
-2.84951
-2.17852
-1.1169
1.76117
-0.0665684
-1.41486
-1.32024
-0.488388
-0.0270251
-1.59443
-0.843454
-0.812833
-1.00577
-0.560883
-0.548094
-0.386375
2.53529
7.61439
2.36963
7.18383
11.5579
10.0965
3.30031
-1.27171
-0.872493
2.8305
3.45659
0.232675
-1.18657
-0.953941
-0.137372
0.519455
-0.998804
-0.79979
-0.873447
-1.04773
-1.00094
-0.530555
-0.751174
8.07914
4.35672
2.13592
5.90862
12.1586
11.6987
8.12805
0.128769
-0.00193971
1.46632
1.92386
-0.58357
-1.12138
-0.578511
0.139914
0.0636349
-0.772896
-0.714574
-0.765177
-0.786265
-0.711362
-0.77086
-0.307771
39.7804
3.01487
1.43752
2.77042
5.66746
7.66405
3.79483
0.195418
-0.0193881
-0.178576
-0.437094
-0.78846
-1.03411
-0.704748
-0.603769
-0.262497
-0.291237
-0.219305
-0.480652
-0.46932
-0.479164
-0.28881
-0.21083
52.2559
1.46397
0.754727
0.912766
0.731728
0.900545
0.770126
-0.209413
-0.033562
-0.218915
0.110834
-0.172267
-0.444434
-0.191082
0.300962
0.61512
-0.0666636
-0.594467
-0.363357
-0.262081
-0.149321
-0.317401
-0.17108
54.0181
0.991726
0.6544
0.355876
0.0286031
0.0531765
-0.146986
-0.131212
0.0109231
0.651218
1.40406
1.3518
1.56681
1.78476
1.48329
1.59773
0.311104
-0.311236
-0.18763
-0.160601
-0.13894
-0.173153
-0.163229
35.7951
0.119954
0.0398644
-0.30175
-0.324955
-0.0170116
-0.161393
-0.111847
-0.0166174
0.360676
0.606752
0.607931
0.693356
1.03554
1.08592
0.550153
-0.28259
-0.16524
-0.353642
-0.165959
-0.0416209
-0.0679
-0.0299046
11.2101
0.231363
-0.0516045
-0.0989681
-0.23091
-0.116974
-0.132091
-0.090926
-0.0284993
0.0441491
0.116399
0.0852468
0.210033
0.326591
0.284796
0.0672837
-0.147108
-0.159474
-0.168789
-0.0224661
-0.0925292
-0.118873
0.00747864
1.64312
0.0754021
-0.10286
-0.0704155
-0.0136559
-0.174002
-0.200083
-0.0709823
-0.0255308
0.00360084
-0.00874391
0.0279044
0.0677885
0.072962
0.0909255
0.044654
0.112727
-0.114139
-0.000188627
-0.0999069
-0.026826
-0.0708633
-0.0793069
0.191628
-0.0715032
0.0136755
0.833009
0.00213415
-0.200162
-0.0988307
-0.0742843
-0.0233553
0.0175012
0.0153148
0.0430026
0.0596996
0.0894665
0.0201376
0.0300946
-0.106655
-4.08499e-05
-0.00981869
-0.0491139
-0.0102345
-0.0184015
-0.058655
0.332046
-0.0671111
0.134058
1.18194
-0.0547735
-0.148072
-0.103872
-0.0758959
-0.0271732
-0.00603763
0.0143342
0.0284877
0.0505121
0.020164
0.00519631
0.0273536
0.000811901
-0.045558
0.0224791
-0.00461413
-0.00512187
0.0250456
-0.0801221
-0.963546
-0.508323
0.287712
1.22548
-0.115948
-0.142931
-0.0807929
-0.059088
-0.031839
-0.0130771
-0.00215136
0.0186186
0.0261034
0.0157343
-0.045587
0.0654328
-0.0137464
-0.0469764
0.0109594
-0.0353105
-0.0132597
-0.0113322
-0.026214
-0.538473
-0.349625
0.432142
0.781392
-0.0164973
-0.0344083
-0.0222073
-0.0372168
0.0065214
-0.00571956
0.00212185
0.0282454
-0.0218
0.0547476
-0.0282955
6.87616e-05
0.0531822
-0.0272224
-0.0374526
-0.0261341
0.0750157
0.0801333
0.00641701
-0.276055
-0.033045
0.104904
0.0181102
-0.132663
-0.0122767
-0.051827
-0.0568616
-0.0159385
0.0018154
-0.0122043
0.0255646
-0.0147597
0.00884485
-0.0164511
0.0234826
0.0204688
0.00669501
-0.0623683
-0.0101295
-0.0296484
0.0108599
-0.0957159
-0.128642
-0.0947285
0.620178
0.0110214
0.0150124
-0.0317993
0.0134116
-0.00359353
-0.00476239
-0.0163198
0.000749918
0.00110494
-0.00541614
0.0104129
-0.023878
-0.00523585
-0.0208368
0.0133939
-0.0299239
-0.0045847
0.073287
-0.0137671
0.0860538
902.307
901.134
890.468
877.02
915.828
914.983
888.757
893.074
1009.11
989.913
1007.58
916.9
1052.96
1053.45
980.635
738.233
1117.86
1037.55
861.499
425.152
1070.97
876.07
266.257
99.1983
859.186
743.36
67.954
19.7888
475.005
441.218
25.7342
14.472
125.717
156.603
25.3708
16.5987
86.5005
129.401
22.1062
13.6782
42.7401
80.3769
42.6725
10.6159
8.18815
11.6068
20.134
13.8844
20.8242
6.97759
4.36792
6.32627
1.54147
1.69179
2.28251
2.65035
0.564568
0.72607
0.764118
0.94098
0.591284
0.672556
0.798951
0.786976
0.789444
0.650265
0.685011
0.65883
0.733537
0.772925
0.694703
0.762088
0.505714
0.613275
0.654776
0.621932
0.352247
0.429233
0.35191
0.418489
0.468979
0.378634
0.306851
0.417873
0.283907
0.35108
0.451527
0.36015
0.113585
0.13733
0.0780481
0.132569
0.0140458
0.0469481
0.0944454
-0.0184741
0.0273957
0.0680119
0.0603596
0.207518
-0.282478
-0.135672
-0.0517237
-0.11447
-0.255865
-0.162637
0.00185513
0.084467
-0.360164
-0.363979
-0.388394
-0.332719
-0.367259
-0.437299
-0.186415
-0.223177
-0.267914
-0.381479
-0.403846
-0.297048
-0.19431
-0.159983
-0.0537902
-0.0526368
-0.212701
-0.14159
-0.14227
-0.117993
-0.17699
-0.156755
-0.143652
-0.164171
-0.0289391
-0.0776338
-0.0263991
-0.00917372
-0.0369392
-0.0757663
-0.0871254
-0.134944
-0.00278639
-0.0129607
0.00870555
0.00232013
-0.0589612
0.00711579
-0.0291431
0.0237081
-0.0745438
-0.138868
-0.106973
-0.117786
-0.034067
-0.00562299
0.00226371
-0.0314909
0.0269067
0.0446002
0.003774
-0.0246407
-0.0814469
-0.0945982
-0.074529
-0.0597
0.0259854
0.0101026
-0.0447325
-0.113829
835.802
674.987
263.971
116.083
101.636
105.392
94.9048
112.643
294.859
510.422
478.135
448.812
425.535
284.796
184.417
193.693
293.258
540.639
473.879
781.182
340.996
208.788
156.276
86.6401
89.3166
94.1946
96.434
213.808
309.035
444.139
94.4318
82.6341
56.6177
99.4712
89.4517
94.964
346.416
226.702
634.059
367.221
397.026
302.474
90.1372
95.5708
89.0048
113.498
301.374
226.164
85.0964
27.3226
31.5144
56.519
88.2973
87.9615
101.42
128.823
385.773
383.27
274.811
426.586
398.773
164.006
93.0935
89.3402
95.8162
235.166
109.165
36.0861
24.4197
22.2041
26.7492
22.3436
23.8597
34.7919
153.511
592.624
139.575
83.8419
51.1461
185.697
512.664
516.838
436.724
227.621
42.352
52.9281
43.7209
25.1748
15.4019
11.9624
11.3264
13.24
40.9826
185.46
610.551
49.9475
16.2466
12.3653
15.0196
69.9959
109.687
85.1076
76.0385
21.4032
22.9424
44.236
31.1689
14.4904
9.39796
10.933
15.2646
21.8398
60.3576
212.809
10.8243
11.5357
12.3151
14.0329
17.9619
19.6306
22.3334
16.4785
20.3206
56.2955
93.4454
32.8577
12.2975
8.46403
7.4364
5.06647
4.88508
8.27584
16.4007
14.2953
17.6585
19.1148
7.55648
9.13613
18.3725
21.1499
15.7899
29.5297
100.165
99.3168
47.1206
11.0691
7.47081
4.51786
3.4167
3.8044
5.19497
10.0533
17.8882
14.3888
16.2766
7.20551
6.16001
11.6329
16.1371
23.1269
41.0086
63.4839
82.8036
102.093
30.4183
5.97829
3.19808
2.62101
3.0411
3.67987
7.69293
12.1924
8.07387
10.0261
5.38228
4.91956
8.77125
18.8263
21.3061
19.3706
4.74412
10.2838
97.1844
31.3601
4.39054
2.53982
2.63102
2.63371
3.30018
4.5699
7.30922
3.97105
2.98947
2.97331
6.69185
7.37556
5.37067
4.43134
2.91268
0.78149
0.941982
29.4694
33.942
3.85329
2.39044
2.82105
2.69219
4.796
4.21872
12.7852
6.31209
2.30869
2.58339
4.58116
1.62729
0.817054
0.610438
0.848397
0.351716
0.67781
5.9423
50.4905
9.40633
2.74265
2.48414
3.07071
7.94516
5.572
10.1251
3.70996
1.58919
2.16102
1.78418
0.781201
0.669989
0.614864
0.688157
0.621292
0.719076
2.92481
32.5285
9.13358
3.00113
2.83127
5.13768
12.5528
6.70889
2.63639
1.62055
1.00854
1.07414
0.71307
0.59292
0.659774
0.711801
0.698766
0.646565
0.753983
1.12688
6.90808
22.9124
6.07017
5.05373
16.7397
13.3153
5.23604
1.0622
1.29811
1.1803
0.63081
0.611483
0.589049
0.670936
0.624014
0.688202
0.706324
0.782399
0.658933
3.2471
20.4581
28.6623
28.8889
21.6354
8.07246
3.26961
0.961724
1.19587
1.25861
0.65858
0.62205
0.592613
0.687808
0.604972
0.697806
0.715404
0.819894
0.77486
0.920465
1.53745
3.24788
2.56085
0.891315
1.5484
1.86112
0.796968
0.776204
0.680736
0.680708
0.625584
0.616271
0.655592
0.633232
0.666654
0.710275
0.630872
0.779866
0.767226
0.685673
0.817444
0.778073
0.828433
0.930717
1.40543
0.733342
0.692269
0.633729
0.633496
0.61456
0.590035
0.637065
0.653451
0.722092
0.772686
0.77781
0.75534
0.838601
0.738215
0.859856
0.705931
0.983067
0.920645
0.947832
0.682045
0.613364
0.590246
0.595091
0.603407
0.593931
0.60948
0.618242
0.639179
0.63655
0.68771
0.766704
0.697108
0.903009
1.01114
1.24604
1.23995
1.16744
1.02057
0.669574
0.64143
0.437156
0.530581
0.542947
0.583637
0.596511
0.690273
0.660497
0.655507
0.686555
0.732344
0.74404
0.902081
1.12288
1.48271
1.51848
1.50929
1.44154
0.193591
0.245732
0.560377
0.485152
0.539257
0.601954
0.562583
0.425271
0.633304
0.664179
0.654281
0.703033
0.697389
0.770794
0.949507
1.36194
0.905614
0.933713
1.18169
0.217385
0.289274
0.397098
0.436624
0.476328
0.359177
0.636239
0.496328
0.579026
0.610408
0.670957
0.654877
0.673902
0.635637
0.618894
0.907117
1.06267
0.959443
0.726319
0.503132
0.0936329
0.299518
0.322922
0.395956
0.36305
0.221745
0.65075
0.483297
0.548748
0.571766
0.645543
0.653106
0.583296
0.506075
0.753667
2.50933
2.34773
0.745009
-0.0737565
0.420501
0.219142
0.270384
0.233437
0.164551
0.249769
0.30427
0.469534
0.528237
0.489616
0.585043
0.599242
0.478296
0.482656
0.799754
3.13083
3.2422
1.03377
-0.0793627
0.094384
0.198082
0.252913
0.332019
0.460995
0.307147
0.287071
0.386102
0.385969
0.360686
0.540216
0.461197
0.396254
0.49401
1.93749
3.26164
3.21685
1.36457
0.204534
0.132497
0.157284
0.199821
0.176163
0.259493
0.239701
0.146143
0.335682
0.236578
0.263873
0.435872
0.319439
0.309014
0.377146
1.49795
3.19505
2.12183
0.932085
0.0113834
0.0940737
0.170939
0.365681
0.401937
0.368319
0.491181
0.144693
0.272378
0.293271
0.143657
0.287775
0.324281
0.308901
0.257013
0.784496
2.07636
0.933678
0.676748
-0.126102
-0.023282
0.131985
-0.130736
-0.0577601
0.12068
0.12911
-0.137617
-0.0837236
0.17387
0.201378
0.246666
0.209343
0.233516
0.171004
0.509575
0.711035
0.780741
0.518124
-0.131058
-0.26261
-0.324109
-0.255344
-0.226244
0.0145329
0.247055
0.167061
-0.1387
-0.0467665
-0.121992
0.17982
0.23794
0.233521
0.103485
0.187258
0.583264
0.764658
0.382635
-0.242377
-0.110596
-0.131951
-0.140795
0.00726674
-0.474908
-0.01669
-0.0626195
-0.360632
-0.138602
0.0249351
0.218953
0.395067
0.317631
0.240605
0.298064
0.899897
0.923983
0.382449
-0.180315
-0.202971
-0.218764
-0.246177
-0.207826
-0.0667656
-0.646584
-0.259254
-0.397602
-0.188694
0.186924
0.263376
0.272677
-0.128623
0.164832
0.363043
0.870989
0.963614
0.35477
-0.0480006
-0.0519056
-0.152672
0.107673
-0.119994
-0.209376
-0.454102
-0.385558
-0.209917
-0.0909494
0.231217
0.12496
0.120601
0.208641
0.290133
0.202797
0.62292
0.756836
0.398867
-0.315089
-0.0675265
0.221354
0.0307827
-0.0346268
-0.0825077
0.00882373
-0.35236
-0.282395
-0.0463932
0.123504
0.168318
-0.126873
0.0706594
0.103865
0.75416
1.4124
0.75915
0.288342
0.0805766
-0.100083
-0.225331
-0.0171903
-0.0717841
-0.0552202
0.117196
-0.257543
-0.317511
-0.31274
0.176982
0.067549
0.0300436
0.136015
1.68608
2.84519
2.49997
0.851982
0.162719
-0.031188
-0.101816
-0.17883
-0.0765997
-0.0169344
0.177271
-0.305923
-0.178532
-0.241718
-0.172725
-0.137078
-0.0698795
-0.0920212
0.783604
4.60873
2.80787
0.919544
0.381021
0.0610127
0.0231253
-0.0212926
0.104496
-0.0627979
-0.0110032
-0.406613
-0.356177
-0.250184
-0.229693
-0.0892978
-0.177422
-0.217299
-0.0268081
1.19895
4.61304
0.527063
0.10602
-0.0558605
0.00223197
0.0605016
0.00320484
0.0111726
-0.0147263
-0.0639974
-0.236467
0.0493481
-0.101056
-0.0443607
-0.323301
-0.0089227
-0.0868446
0.380488
2.08211
2.3366
0.272954
-0.0188141
0.0436129
0.031087
-0.183109
-0.0253979
0.0378968
0.127046
0.0127111
0.121632
0.0909759
0.0384059
0.0123946
-0.0289652
-0.0748047
0.0873634
0.991602
2.74579
1.53778
0.186568
-0.0251276
0.00120944
0.054046
-0.049866
-0.0690828
0.0843108
-0.163283
-0.00740067
0.0667898
-0.071816
-0.0522492
-0.0859036
-0.0359248
-0.0116506
0.00766902
0.604588
2.33618
1.80003
0.538883
0.00248462
0.00605753
-0.0114665
0.0382243
-0.0791157
-0.183288
-0.102943
-0.0675076
-0.206696
-0.0264555
-0.110213
0.0204364
-0.0225158
0.0404317
0.00419682
0.065136
0.257145
1.03323
1.38358
0.0934381
-0.0140967
-0.0240047
-0.0190502
-0.0338518
-0.148374
-0.180954
-0.0337355
-0.130439
-0.127308
-0.0897772
-0.024078
0.0150441
0.0387813
0.0236929
0.03724
-0.057523
0.167538
1.27708
0.10831
0.0315121
0.03916
-0.0968715
-0.182781
-0.101232
-0.0711516
-0.198865
-0.0847108
-0.0235138
-0.010969
0.00767394
-0.00154958
-0.0112363
-0.0200811
-0.0225505
-0.0387202
0.0618351
0.478679
0.00874732
-0.0435304
-0.0128389
)
;

boundaryField
{
    leftWall
    {
        type            zeroGradient;
    }
    rightWall
    {
        type            zeroGradient;
    }
    lowerWall
    {
        type            zeroGradient;
    }
    atmosphere
    {
        type            totalPressure;
        rho             rho;
        psi             none;
        gamma           1;
        p0              uniform 0;
        value           nonuniform List<scalar> 
46
(
0
0
0
0
-0.00571466
-0.0379904
-0.0137341
-0.0198568
-0.00880457
-0.00283129
-0.00237769
-0.000664273
-0.00265768
-0.00190656
-0.0172657
-0.0120159
-0.010844
-0.0338183
-0.0148332
-0.00590157
0
0
-0.0114941
-0.0670019
-0.0757312
-0.0928752
-0.109224
-0.0968278
-0.142985
-0.162968
-0.161615
-0.156709
-0.145335
-0.10936
-0.0772886
-0.0425555
-0.0182473
-0.0120115
-0.0078186
-0.00206876
-0.0102565
0
0
0
0
0
)
;
    }
    defaultFaces
    {
        type            empty;
    }
}


// ************************************************************************* //
