/*--------------------------------*- C++ -*----------------------------------*\
| =========                 |                                                 |
| \\      /  F ield         | foam-extend: Open Source CFD                    |
|  \\    /   O peration     | Version:     4.1                                |
|   \\  /    A nd           | Web:         http://www.foam-extend.org         |
|    \\/     M anipulation  |                                                 |
\*---------------------------------------------------------------------------*/
FoamFile
{
    version     2.0;
    format      ascii;
    class       surfaceScalarField;
    location    "0.9";
    object      phi_0;
}
// * * * * * * * * * * * * * * * * * * * * * * * * * * * * * * * * * * * * * //

dimensions      [0 3 -1 0 0 0 0];

internalField   nonuniform List<scalar> 
4432
(
-2.06232e-06
2.06232e-06
-3.93507e-06
1.87275e-06
-5.57159e-06
1.63652e-06
-4.97126e-06
-6.00328e-07
-8.22391e-06
3.25265e-06
-1.19169e-05
3.69294e-06
-1.33535e-05
1.43665e-06
-1.37378e-05
3.84263e-07
-1.08781e-05
-2.85964e-06
-1.42772e-05
3.39912e-06
-1.36466e-05
-6.30641e-07
-5.30575e-06
-8.34086e-06
-5.92257e-06
6.16826e-07
-1.02267e-06
-4.8999e-06
3.4644e-06
-4.48707e-06
9.0457e-06
-5.5813e-06
1.23332e-05
-3.28754e-06
1.1242e-05
1.09124e-06
9.84595e-06
1.39606e-06
7.37182e-06
2.47413e-06
4.32319e-06
3.04863e-06
2.94872e-06
1.37448e-06
2.94872e-06
-4.034e-07
2.46572e-06
-1.01057e-06
2.47992e-06
-2.64765e-06
3.2736e-06
-5.08796e-06
1.83998e-06
-8.0055e-06
6.17019e-06
-1.17586e-05
7.446e-06
-1.30164e-05
2.69452e-06
-1.21231e-05
-5.09035e-07
-1.84749e-05
3.49212e-06
-1.5567e-05
4.91214e-07
-8.15877e-06
-8.03885e-06
-1.21264e-05
-4.37319e-06
-9.62454e-06
-1.88507e-06
-3.44644e-06
-1.1078e-05
2.80102e-07
-8.21361e-06
2.97314e-06
-8.27434e-06
9.34316e-06
-9.65756e-06
9.40152e-06
1.03288e-06
8.12577e-06
2.67181e-06
6.43964e-06
4.16026e-06
1.99428e-06
7.49398e-06
1.18733e-06
2.18143e-06
4.13605e-06
-1.42112e-06
3.88684e-06
-3.83544e-06
4.89424e-06
-6.9483e-06
6.38646e-06
-1.19892e-05
6.88083e-06
-1.71297e-05
1.13108e-05
-1.21939e-05
2.51019e-06
-1.34902e-05
3.99077e-06
-1.31949e-05
-8.04275e-07
-2.42516e-05
1.45488e-05
-1.15651e-05
-1.21952e-05
-1.8561e-05
-1.04295e-06
-1.60726e-05
-6.86168e-06
-7.29644e-06
-1.06612e-05
-1.00618e-05
-8.31264e-06
-1.07107e-06
-1.72043e-05
3.53362e-07
-9.69877e-06
4.15993e-06
-1.34641e-05
5.98122e-06
-7.88414e-07
5.7319e-06
2.92113e-06
4.35841e-06
5.53374e-06
2.08337e-06
9.76903e-06
1.66094e-06
2.60386e-06
5.79699e-06
-1.50793e-06
5.39477e-06
-3.67851e-06
7.06482e-06
-3.63929e-06
6.34724e-06
-5.23697e-06
8.47851e-06
-8.6667e-06
1.47405e-05
-1.28165e-05
6.66e-06
-1.37899e-05
4.96415e-06
-2.75472e-05
1.2953e-05
-1.54322e-05
2.43379e-06
-2.7159e-05
-4.68409e-07
-2.68167e-05
-1.38526e-06
-2.47911e-05
-8.88733e-06
-2.07147e-05
-1.47376e-05
-1.47775e-05
-1.42498e-05
-5.13405e-06
-2.68478e-05
7.59277e-07
-1.55921e-05
2.0765e-06
-1.47813e-05
3.39459e-07
9.48624e-07
8.06052e-07
2.45454e-06
6.06562e-07
5.73323e-06
9.32363e-07
9.44323e-06
1.85423e-06
1.68199e-06
7.65122e-06
-1.53983e-06
6.9346e-06
-2.04993e-06
7.57492e-06
-4.38615e-06
8.68346e-06
-1.02762e-05
1.43685e-05
-9.74468e-06
1.4209e-05
-1.49911e-05
1.19064e-05
-1.59812e-05
5.95429e-06
-1.67462e-05
1.3718e-05
-1.71701e-05
2.85777e-06
-3.02603e-05
1.26217e-05
-3.08212e-05
-8.24311e-07
-2.96989e-05
-1.00097e-05
-2.15301e-05
-2.29063e-05
-1.26789e-05
-2.3101e-05
-4.67842e-06
-3.48483e-05
6.08038e-07
-2.08786e-05
2.78052e-06
-1.69538e-05
-2.29822e-06
6.02737e-06
-4.23423e-06
4.39055e-06
-2.69802e-06
4.19702e-06
-2.70797e-06
9.45317e-06
6.52446e-07
-1.67843e-06
8.30367e-06
-9.27973e-07
7.86257e-06
-4.16072e-06
1.08077e-05
-6.93652e-06
1.14593e-05
-1.15561e-05
1.89882e-05
-1.02869e-05
1.29397e-05
-1.45256e-05
1.61452e-05
-1.59294e-05
7.35808e-06
-1.81855e-05
1.59741e-05
-3.58376e-05
2.05099e-05
-3.51821e-05
1.19662e-05
-3.58312e-05
-1.75167e-07
-3.13496e-05
-1.44913e-05
-2.42402e-05
-3.00157e-05
-1.44226e-05
-3.29186e-05
-1.87114e-06
-4.73998e-05
1.84744e-06
-2.45971e-05
-4.31911e-08
-1.50632e-05
-5.29127e-06
1.12754e-05
-8.57334e-06
7.67262e-06
-9.08388e-06
4.70756e-06
-4.12258e-06
4.49188e-06
-3.31942e-07
-5.46907e-06
7.97172e-06
-6.74606e-07
8.53718e-06
-1.12982e-06
1.12629e-05
-3.05062e-06
1.33801e-05
-5.81093e-06
2.17485e-05
-9.74792e-06
1.68767e-05
-1.67343e-05
2.31316e-05
-3.4914e-05
2.55378e-05
-3.77391e-05
1.87992e-05
-3.78536e-05
2.06243e-05
-3.71302e-05
1.12428e-05
-3.92098e-05
1.90448e-06
-3.55655e-05
-1.81356e-05
-3.02633e-05
-3.53179e-05
-2.82337e-05
-3.49482e-05
-1.39205e-05
-6.17129e-05
1.16135e-06
-3.9679e-05
3.63521e-06
-1.75371e-05
1.66947e-07
1.47437e-05
-1.03729e-05
1.82125e-05
-1.16614e-05
5.99606e-06
-8.81497e-06
1.64545e-06
7.01577e-07
-1.49856e-05
8.6733e-06
5.53321e-07
7.98386e-06
-2.59036e-06
1.44066e-05
-8.32229e-06
1.9112e-05
-1.65469e-05
2.9973e-05
-2.5174e-05
2.55038e-05
-1.68475e-05
1.48051e-05
-1.70757e-05
2.5766e-05
-3.72336e-05
3.89571e-05
-4.13063e-05
2.4697e-05
-4.4569e-05
1.45054e-05
-4.7818e-05
5.15348e-06
-4.89527e-05
-1.70009e-05
-4.47694e-05
-3.95013e-05
-3.46141e-05
-4.51034e-05
-2.64141e-05
-6.99129e-05
-1.01477e-05
-5.59453e-05
5.39e-06
-3.30748e-05
2.40511e-06
1.77286e-05
-1.12905e-05
3.19081e-05
-1.42371e-05
8.94269e-06
-1.03086e-05
-2.28311e-06
3.64398e-06
-2.89382e-05
1.23173e-05
-5.30683e-05
5.30683e-05
-6.60909e-05
1.30226e-05
-5.19554e-05
-1.41355e-05
-2.69525e-05
-2.50029e-05
-2.38459e-05
-3.10655e-06
-3.67071e-05
1.28612e-05
-4.83705e-05
1.16633e-05
-5.48414e-05
6.47092e-06
-5.50531e-05
2.11686e-07
-4.10175e-05
-1.40356e-05
-1.99436e-05
-2.10739e-05
-8.07517e-06
-1.18684e-05
-8.33454e-07
-7.24171e-06
1.58944e-06
-2.42289e-06
1.32384e-05
-1.16489e-05
1.89569e-05
-5.71855e-06
1.37754e-05
5.1815e-06
3.27588e-06
1.04996e-05
3.27588e-06
-3.98645e-05
9.29328e-05
-4.89501e-05
2.21083e-05
-2.61249e-05
-3.69608e-05
1.38179e-05
-6.49457e-05
2.13529e-05
-1.06415e-05
7.01025e-06
2.72039e-05
-6.45627e-06
2.51299e-05
-3.38921e-05
3.39067e-05
-3.66456e-05
2.96522e-06
-1.49927e-05
-3.56885e-05
6.3096e-06
-4.23762e-05
1.08543e-05
-1.64131e-05
2.83751e-05
-2.47625e-05
2.81701e-05
-2.21789e-06
1.98343e-05
-3.3132e-06
4.07534e-05
-2.66376e-05
1.13662e-05
3.45687e-05
4.92662e-08
2.18165e-05
3.32514e-06
-8.9089e-06
0.000101842
-1.80303e-05
3.12297e-05
-1.58683e-06
-5.34042e-05
2.22151e-05
-8.87477e-05
2.95328e-05
-1.79591e-05
1.44435e-05
4.22931e-05
4.63014e-06
3.49432e-05
-9.04179e-06
4.75786e-05
-1.38312e-05
7.75465e-06
-2.74916e-07
-4.92448e-05
1.24003e-05
-5.50514e-05
2.26534e-05
-2.66663e-05
1.84248e-05
-2.05338e-05
4.32026e-05
-2.69957e-05
4.82673e-05
-8.37788e-06
2.625e-05
-4.62035e-06
2.40096e-05
3.68091e-05
5.3458e-06
4.04803e-05
8.67094e-06
9.3394e-06
9.25023e-05
2.42304e-05
1.63386e-05
2.06058e-05
-4.97796e-05
2.68445e-05
-9.49864e-05
2.71207e-05
-1.82353e-05
2.08969e-05
4.85168e-05
1.00713e-05
4.57689e-05
-2.70616e-06
6.03561e-05
-5.56204e-06
1.06105e-05
-3.80333e-06
-5.10036e-05
7.88474e-06
-6.67394e-05
1.42305e-05
-3.30121e-05
3.41728e-05
-4.04761e-05
3.57399e-05
-2.85629e-05
4.27389e-05
-1.53769e-05
2.55736e-05
1.2545e-05
3.35306e-05
2.88522e-05
2.31326e-05
5.08783e-05
3.18035e-05
2.03621e-05
7.21402e-05
2.35353e-05
1.31654e-05
4.00318e-05
-6.62761e-05
3.54602e-05
-9.04149e-05
3.0082e-05
-1.28571e-05
3.01752e-05
4.84237e-05
9.07374e-06
6.68703e-05
-1.27308e-05
8.21607e-05
-3.54261e-05
3.33058e-05
-9.32351e-06
-7.71061e-05
1.98986e-05
-9.59615e-05
3.47344e-05
-4.78479e-05
3.54558e-05
-4.11975e-05
3.7305e-05
-3.04121e-05
4.14561e-05
-1.9528e-05
2.6494e-05
2.75071e-05
2.21038e-05
3.32423e-05
2.96431e-05
4.3339e-05
6.14467e-05
2.31123e-05
4.90279e-05
2.45993e-05
1.16784e-05
4.85088e-05
-9.01856e-05
4.34444e-05
-8.53505e-05
3.3877e-05
-3.28971e-06
2.26202e-05
5.96805e-05
9.45858e-06
8.0032e-05
-2.82767e-05
0.000119896
-5.11836e-05
5.62127e-05
-3.45896e-06
-0.000124831
1.38321e-05
-0.000113253
3.3988e-05
-6.80039e-05
4.51086e-05
-5.23181e-05
4.36822e-05
-2.89857e-05
4.03693e-05
-1.6215e-05
2.44598e-05
4.34166e-05
4.51192e-05
1.2583e-05
4.04054e-05
4.80528e-05
0.000101852
1.75097e-05
3.15182e-05
3.38147e-05
-4.62659e-06
4.6882e-05
-0.000103253
2.21295e-05
-6.0598e-05
8.55162e-06
1.02882e-05
2.92068e-05
3.90253e-05
-1.06115e-05
0.00011985
-4.50316e-05
0.000154316
-1.98304e-05
3.10115e-05
4.09213e-06
-0.000148753
9.66842e-07
-0.000110127
8.93017e-06
-7.59672e-05
4.59521e-05
-8.934e-05
5.40552e-05
-3.70888e-05
4.47434e-05
-6.90316e-06
4.07275e-05
4.74325e-05
2.14064e-05
3.1904e-05
2.17521e-05
4.77071e-05
0.000123604
9.31793e-06
2.22003e-05
3.05705e-05
-2.58791e-05
1.31002e-05
-8.57826e-05
2.8426e-05
-7.59237e-05
1.35844e-05
2.51298e-05
-2.81393e-06
5.54236e-05
-5.15374e-05
0.000168574
-7.87479e-05
0.000181527
-2.00905e-05
-2.76458e-05
8.10945e-07
-0.000169655
4.62526e-06
-0.000113942
2.28262e-05
-9.41682e-05
2.38729e-05
-9.03867e-05
2.56092e-05
-3.88251e-05
1.89856e-05
-2.79495e-07
3.05434e-05
3.58746e-05
3.16259e-05
3.08215e-05
1.86077e-05
6.07254e-05
0.000142212
6.67672e-06
1.30714e-06
6.24197e-06
1.48413e-05
-5.99414e-06
3.13481e-05
-2.11857e-05
4.51646e-05
-4.72417e-05
5.15598e-05
-6.13774e-05
2.89408e-05
-8.21248e-05
4.65133e-05
-8.72696e-05
4.41019e-05
-0.000101142
3.85695e-05
-0.000102002
1.5365e-05
-0.000119411
2.25632e-05
-0.000138439
2.02706e-06
-0.000132593
-4.53479e-05
-0.000104549
-7.31469e-05
-9.96598e-05
-7.48023e-05
-3.17283e-05
-0.000123877
-5.61732e-06
-5.91858e-05
2.61644e-06
9.49485e-06
-2.01802e-05
5.47047e-05
-3.32155e-05
2.1978e-05
-1.37544e-05
-2.17442e-05
9.62762e-06
-5.23201e-05
-2.54777e-05
4.74226e-05
2.79768e-06
-1.49054e-06
-3.40717e-06
2.10462e-05
-1.01972e-06
2.89606e-05
-1.40723e-05
5.82172e-05
-2.96283e-05
6.71158e-05
-7.0147e-05
6.94595e-05
-7.89807e-05
5.5347e-05
-9.5071e-05
6.01923e-05
-0.000111342
5.484e-05
-0.000115436
1.94596e-05
-0.000136803
4.39305e-05
-0.000147031
1.22551e-05
-0.00015613
-3.62497e-05
-0.000164477
-6.47999e-05
-0.000101907
-0.000137372
-0.000154001
-7.1782e-05
-8.58844e-05
-0.000127303
-7.54193e-05
-9.70221e-07
-4.14257e-05
2.07111e-05
-2.46037e-05
5.15597e-06
-1.88707e-05
-2.74772e-05
-3.40077e-05
-3.71832e-05
-4.5445e-05
-1.40404e-05
1.97255e-05
-2.12161e-05
3.14543e-05
9.31746e-06
1.50326e-06
5.89116e-05
-1.71737e-05
7.68942e-05
-1.79838e-05
6.79259e-05
-3.84345e-05
8.99102e-05
-8.3927e-05
0.00010084
-0.000113514
8.97798e-05
-8.71764e-05
2.85019e-05
-0.000138505
7.07879e-05
-0.000156121
6.1547e-05
-0.000186546
4.26801e-05
-0.000208959
-1.38369e-05
-0.000208842
-6.4917e-05
-0.00022711
-0.000119105
-0.000182195
-0.000116696
-0.000179804
-0.000129694
-0.000141771
-3.90026e-05
-6.82853e-05
-5.27748e-05
-3.78562e-05
-2.52731e-05
-3.41193e-05
-3.12142e-05
-2.13059e-05
-4.99966e-05
-3.96187e-05
-2.71323e-05
2.5102e-05
-4.6318e-05
3.08682e-05
3.55123e-06
3.65389e-05
5.32409e-05
1.28445e-05
0.000100589
-1.03821e-05
9.11525e-05
-3.19428e-05
0.000111471
-3.97148e-05
0.000108612
-6.50162e-05
0.000115081
-0.000135746
9.92317e-05
-0.000147375
8.24164e-05
-0.000151899
6.60711e-05
-0.00019052
8.13018e-05
-0.00024398
3.96226e-05
-0.000238876
-7.00208e-05
-0.000134345
-0.000223636
-0.000124352
-0.00012669
-0.000162774
-9.12724e-05
-0.000108443
-9.33334e-05
-7.37896e-05
-8.74281e-05
-3.71774e-05
-6.18854e-05
-2.46999e-05
-4.36917e-05
-3.55376e-05
-3.91588e-05
-2.04919e-05
-5.46644e-05
1.64454e-05
-6.27634e-05
2.8444e-05
-8.44737e-06
3.17114e-05
4.99735e-05
2.76454e-05
0.000104655
-2.09736e-05
0.000139771
-5.79762e-05
0.000148473
-9.60381e-05
0.000146674
-0.000127376
0.000146419
-0.000151231
0.000123087
-0.00014559
7.67756e-05
-0.000116232
3.6713e-05
-0.000108965
7.40348e-05
-0.000122587
5.32452e-05
-0.000111908
-8.07e-05
-0.000155065
-0.000180479
-0.000213036
-6.87191e-05
-0.000206205
-9.81032e-05
-0.000165825
-0.000133714
-0.000106909
-0.000146343
-4.60061e-05
-0.000122789
-2.23556e-05
-6.73421e-05
-2.73692e-05
-3.41452e-05
-4.95565e-06
-4.29055e-05
-3.91591e-05
-2.36044e-05
-2.92821e-05
-1.83244e-05
-4.96558e-06
2.5657e-05
-3.24821e-05
0.000132171
-7.38307e-05
0.00018112
-0.00013322
0.000207862
-0.000162564
0.000176018
-0.000165994
0.000149849
-0.000157409
0.000114502
-0.000140936
6.03027e-05
-0.000128195
2.39719e-05
-0.000140127
8.59672e-05
-0.000153189
6.63068e-05
-0.000178095
-5.57939e-05
-0.000249638
-0.000108936
-0.000242861
-7.54958e-05
-0.0001486
-0.000192364
-0.000111225
-0.000171088
-7.03674e-05
-0.000187202
-8.5676e-05
-0.00010748
-6.71504e-05
-8.58678e-05
-3.73742e-05
-6.39214e-05
-2.15126e-05
-2.08173e-05
-1.50587e-05
-8.54566e-06
-7.9199e-05
4.58159e-05
-0.000139481
8.59386e-05
-0.000194254
0.000186944
-0.000218891
0.000205758
-0.000252776
0.000241747
-0.000183563
0.000106805
-0.00016504
0.000131326
-0.000146748
9.62093e-05
-0.000126783
4.03373e-05
-0.000157604
5.47938e-05
-0.000167581
9.59441e-05
-0.000131861
3.05861e-05
-0.000147854
-3.98001e-05
-0.000174683
-8.21071e-05
-0.000173346
-7.68322e-05
-0.00019392
-0.000171791
-0.000186006
-0.000179003
-0.000156425
-0.000216782
-0.000118194
-0.00014571
-5.17557e-05
-0.000152306
-5.82907e-06
-0.000109848
-4.19719e-06
-2.31445e-05
-1.9558e-05
1.10124e-05
-7.90761e-05
0.000105334
-9.91763e-05
0.000106039
-0.000175909
0.000263677
-0.000241399
0.000271248
-0.000224914
0.000225262
-0.000197736
7.96278e-05
-0.000170033
0.000103623
-0.000161791
8.79672e-05
-0.000188009
6.65546e-05
-0.000217473
8.42584e-05
-0.000186638
6.5109e-05
-0.000164413
8.36096e-06
-0.000164766
-3.94471e-05
-0.00016265
-8.42234e-05
-0.000144269
-9.52132e-05
-0.00013308
-0.000182979
-0.000117977
-0.000194106
-0.000114454
-0.000220306
-4.80688e-05
-0.000212095
-3.43251e-05
-0.00016605
-2.7663e-05
-0.00011651
3.2139e-05
-6.39992e-05
-3.05946e-05
4.1607e-05
-8.14709e-05
0.00015621
-0.000132528
0.000157096
-0.000175032
0.000306181
-0.000202213
0.000298428
-0.000197292
0.000220341
-0.00021496
9.72962e-05
-0.000199229
8.78914e-05
-0.000227329
0.000116067
-0.000262184
0.00010141
-0.000256978
7.90524e-05
-0.000226824
3.49545e-05
-0.000227602
9.13979e-06
-0.000232768
-3.42814e-05
-0.000218648
-9.83435e-05
-0.000152032
-0.000161829
-0.000118919
-0.000216092
-9.1205e-05
-0.00022182
-8.02274e-05
-0.000231284
-7.86853e-05
-0.000213637
-6.18975e-05
-0.000182838
-4.44985e-05
-0.000133909
5.58514e-05
-6.8211e-05
-2.48513e-05
6.64583e-05
-6.14961e-05
0.000192855
-0.000100945
0.000196545
-0.0001174
0.000322637
-0.000133524
0.000314552
-0.000124219
0.000211037
-0.000156839
0.000129916
-0.000196595
0.000127647
-0.000252764
0.000172235
-0.000250944
9.95901e-05
-0.000243851
7.19596e-05
-0.000268894
5.99974e-05
-0.000262817
3.06295e-06
-0.000242914
-5.41846e-05
-0.000269764
-7.14927e-05
-0.000237016
-0.000194577
-0.000181854
-0.000271254
-0.000141565
-0.000262109
-0.000122021
-0.000250828
-9.43334e-05
-0.000241325
-0.000174443
-0.000102728
-0.000207772
-0.000100581
9.4396e-06
-0.00016136
-8.675e-06
7.51333e-05
-2.25456e-05
0.000206726
-0.000103217
0.000277216
-8.96895e-05
0.00030911
-7.52023e-05
0.000300065
-8.22407e-05
0.000218075
-0.000152481
0.000200156
-0.000166199
0.000141365
-0.000232563
0.000238599
-0.000264574
0.000131601
-0.000274705
8.20905e-05
-0.000345748
0.00013104
-0.00032608
-1.66044e-05
-0.000291548
-8.87171e-05
-0.00017342
-0.00018962
-0.000155674
-0.000212324
-0.000180035
-0.000246893
-0.000160262
-0.000281881
-9.60942e-05
-0.000314996
-0.000204003
-0.000133416
-0.000212717
-9.40146e-05
-0.000253066
-6.02327e-05
-2.70849e-05
-0.000216541
-1.54746e-05
9.06079e-05
-4.73599e-05
0.000238611
-8.35461e-05
0.000313402
-8.21412e-05
0.000307705
-7.84676e-05
0.000296391
-3.33936e-05
0.000173001
-7.44917e-05
0.000241254
-0.000253781
0.000320655
-0.000295167
0.000279985
-0.000374002
0.000210436
-0.000379414
8.75028e-05
-0.000265809
1.74346e-05
-0.000209211
-7.32018e-05
-0.000184253
-0.000113675
-0.000292438
-8.14348e-05
-0.000278133
-0.000226629
-0.000252022
-0.000273005
-0.000232781
-0.000301123
-0.000227536
-0.00032024
-0.000198069
-0.000162884
-0.000183855
-0.000108228
-0.000114004
-0.000130084
-1.72951e-05
-0.000123794
-3.65554e-05
0.000127163
-7.25078e-05
0.000274563
-8.62868e-05
0.000327181
-6.90782e-05
0.000290496
-6.97815e-05
0.000297095
-0.000126637
0.000229857
-0.00017586
0.000290477
-0.000246625
0.000391419
-0.000300879
0.000334239
-0.000304779
0.000214336
-0.000338292
0.000121016
-0.000334276
1.34178e-05
-0.000285841
-0.000121637
-0.000276841
-0.000122674
-0.000179775
-0.000178501
-0.000293212
-0.000113192
-0.000276597
-0.00028962
-0.000261822
-0.000315899
-0.000271713
-0.000310349
-0.00028283
-0.000151767
-0.000204499
-0.00018656
-0.000172786
-0.000161796
-0.000106187
-8.3894e-05
-4.32389e-05
0.000170402
-5.71306e-05
0.000288455
-0.000119344
0.000389394
-4.36174e-05
0.000214769
-9.01245e-05
0.000343602
-5.8677e-05
0.000198409
-0.000168819
0.000400618
-0.000224838
0.000447439
-0.000267146
0.000376546
-0.000282726
0.000229917
-0.000198115
3.64041e-05
-0.000191669
6.9722e-06
-0.000215899
-9.74071e-05
-0.000208138
-0.000130435
-0.000240213
-0.000146426
-0.000160501
-0.000192904
-0.000154194
-0.000295927
-0.000248601
-0.000221492
-0.000249315
-0.000309635
-0.000157596
-0.000243485
-0.000147567
-0.000196589
-0.000212341
-9.70216e-05
-0.000115283
-0.000203246
-2.37125e-05
0.000194115
-3.7402e-05
0.000302145
-4.64636e-05
0.000398456
-6.999e-05
0.000238296
-5.60751e-05
0.000329687
-6.45898e-05
0.000206924
-8.60264e-05
0.000422055
-0.000109272
0.000470684
-0.000175731
0.000443005
-0.000147981
0.000202168
-0.000205568
9.39907e-05
-0.000173107
-2.5489e-05
-8.02804e-05
-0.000190233
9.05651e-06
-0.000219772
-3.37653e-05
-0.000103605
-0.000105275
-0.000121394
-0.000198497
-0.000202705
-0.000157203
-0.000262785
-0.000166062
-0.000300777
-0.000191211
-0.000218336
-0.000265321
-0.000122479
-0.000213297
-0.000149046
-8.87281e-05
-0.000239852
-6.74915e-07
0.000194789
-9.84928e-06
0.00031132
-1.19353e-05
0.000400542
-8.76233e-05
0.000313984
-8.09736e-05
0.000323037
-8.76996e-05
0.00021365
-5.61543e-05
0.00039051
-5.01511e-05
0.000464681
-1.6818e-05
0.000409672
-3.87906e-05
0.00022414
-4.27609e-05
9.79611e-05
-2.94453e-05
-3.88046e-05
1.18391e-05
-0.000231518
5.37813e-05
-0.000261714
0.000108756
-0.000158579
6.58177e-05
-7.84558e-05
1.32013e-05
-0.000150089
-3.54535e-05
-0.000214131
-0.000102854
-0.000233376
-0.000158622
-0.000162568
-0.000170172
-0.000110929
-0.000163421
-0.000155797
-9.27117e-05
-0.000159437
2.05433e-05
0.000174246
3.2184e-06
0.000328644
-1.45472e-05
0.000418308
-5.73845e-05
0.000356821
-4.63216e-05
0.000311974
-4.7543e-05
0.000214872
-1.61906e-05
0.000359157
-9.41365e-06
0.000457904
0.000131366
0.000268892
0.000150677
0.00020483
0.000135106
0.000113532
0.000147545
-5.12436e-05
8.99505e-05
-0.000173923
0.00016216
-0.000333924
0.00017673
-0.000173149
0.000162125
-6.38505e-05
0.000138878
-0.000126842
7.62109e-05
-0.000151464
-5.12301e-06
-0.000152042
-6.49607e-05
-0.00010273
-9.65034e-05
-7.93861e-05
-0.000119587
-0.000132713
-0.000113534
-9.87646e-05
2.2123e-05
0.000152123
-8.13878e-06
0.000358906
-2.41741e-05
0.000434343
-6.40959e-05
0.000396743
-1.52405e-05
0.000263119
-3.45459e-05
0.000234177
1.89032e-05
0.000305708
0.000193225
0.000283582
0.000237869
0.000224249
0.000266916
0.000175782
0.000233638
0.00014681
0.000229118
-4.67244e-05
0.000316218
-0.000261023
0.000191522
-0.000209228
0.000248831
-0.000230457
0.000389527
-0.000204547
0.000329032
-6.6347e-05
0.00021644
-3.88715e-05
5.83251e-05
6.07267e-06
-5.44108e-05
1.00058e-05
-6.6306e-05
-6.74908e-05
-8.48826e-05
-0.000114137
-0.000109823
-8.85933e-05
-8.90977e-06
0.000161033
-3.87416e-05
0.000388738
-1.79544e-05
0.000413556
-2.25117e-06
0.00038104
2.35339e-05
0.000237334
4.84585e-05
0.000209253
0.000125515
0.000228652
0.000211789
0.000197308
0.000267123
0.000168914
0.000259292
0.000183613
0.000333713
7.23894e-05
0.000311774
-2.47853e-05
0.000197351
-0.0001466
0.000228287
-0.000240165
0.000198967
-0.000201137
0.000129407
-0.000134987
0.000116215
-5.31545e-05
-9.00682e-06
8.63499e-05
-4.16736e-05
3.87394e-05
-7.70963e-05
4.54286e-05
-7.92074e-05
-6.53797e-05
-5.38159e-05
-0.000139528
-9.21686e-05
-7.14706e-05
-5.02455e-05
0.000211279
-7.5232e-05
0.000413725
-2.45523e-05
0.000362876
5.63545e-05
0.000300133
0.000114121
0.000179567
0.000180971
0.000142402
0.000191714
0.000217909
0.000295234
9.37887e-05
0.000382238
8.19099e-05
0.000453163
0.000112689
0.000484649
4.09034e-05
0.000441662
1.82016e-05
0.000358228
-6.31669e-05
0.000158356
-4.02923e-05
0.000100101
-0.000142883
2.52386e-05
-6.01245e-05
-7.42415e-05
4.63257e-05
-0.000108438
0.000120547
-0.000128026
5.83268e-05
-8.03954e-05
-2.20169e-06
-6.24764e-05
-8.32986e-05
-5.99794e-05
-0.000142025
-0.000113223
-3.89246e-05
-4.00295e-05
0.000251308
-8.75288e-05
0.000461224
-2.54315e-05
0.000300779
0.000135211
0.000139491
0.000202135
0.000112644
0.000222612
0.000121925
0.000418068
2.24531e-05
0.000478724
3.31326e-05
0.000497179
6.34547e-05
0.000514935
9.49328e-05
0.000492542
6.32967e-05
0.000438175
7.25684e-05
0.000324372
5.06359e-05
0.000255244
2.88366e-05
0.000125742
-1.33815e-05
-3.37682e-06
6.89945e-05
-0.00010469
0.000147639
-0.000132798
0.000148654
-0.000164529
9.0058e-05
-0.000125887
-4.08435e-05
-0.00010456
-0.000104626
-0.000103229
-0.000143356
-0.000179357
-3.70959e-05
-1.44507e-05
0.000265759
-1.12758e-05
0.000458049
7.82288e-05
0.000211275
0.00015788
5.98397e-05
0.000203615
6.69084e-05
0.000282799
4.27415e-05
0.000265243
4.00095e-05
0.00027459
2.37855e-05
0.000310844
2.72006e-05
0.000348148
5.76285e-05
0.000333482
7.79632e-05
0.000289269
0.000116781
0.000229183
0.000110722
0.000200028
5.79914e-05
0.000122975
6.36713e-05
-8.34531e-06
0.000200315
-0.000143019
0.000282313
-0.00015781
0.000163445
-0.000176178
0.000108426
-0.000128027
-8.89952e-05
-7.43076e-05
-0.000158344
-4.13388e-05
-0.000176325
-0.000194597
-2.60983e-05
-1.17628e-06
0.000266935
5.02372e-05
0.000406636
0.000117515
0.000143997
0.000121606
5.57485e-05
0.000148569
3.99448e-05
0.000212345
-2.10338e-05
0.000223353
2.90014e-05
0.000223569
2.35691e-05
0.000232201
1.85693e-05
0.000240374
4.94553e-05
0.000238774
7.95633e-05
0.000220111
0.000135444
0.000205059
0.000125774
0.000166843
9.62071e-05
6.10336e-05
0.000169481
-6.73298e-05
0.000328678
-7.30169e-05
0.000288
-0.000113176
0.000203604
-8.79409e-05
8.31913e-05
-4.13857e-05
-0.00013555
-8.04328e-05
-0.000119297
-3.70807e-05
-0.000219677
-0.000220808
-1.08704e-05
5.18633e-06
0.000261749
8.00764e-05
0.000331746
0.0001417
8.2374e-05
9.86472e-05
9.88011e-05
0.000125732
1.286e-05
0.00014103
-3.63314e-05
0.000215652
-4.56207e-05
0.000226448
1.27722e-05
0.000225712
1.93055e-05
0.000210726
6.44409e-05
0.000219951
7.03388e-05
0.000206709
0.000148686
0.000188839
0.000143644
0.000119394
0.000165652
-2.66587e-05
0.000315533
-0.000143894
0.000445914
-5.41196e-05
0.000198225
-8.63729e-05
0.000235857
-6.1788e-05
5.86063e-05
-3.28942e-05
-0.000164444
-3.64796e-05
-0.000115712
-1.88398e-05
-0.000237316
-0.000233896
-5.75122e-06
-7.27409e-06
0.000269023
0.000117251
0.00020722
0.000144965
5.46605e-05
0.000198357
4.54089e-05
0.000267834
-5.66169e-05
0.00028336
-5.18579e-05
0.000279047
-4.13078e-05
0.000270381
2.14385e-05
0.000219329
7.03577e-05
0.000194869
8.89002e-05
0.00016883
9.63785e-05
0.000158946
0.000158569
0.00014123
0.00016136
5.92886e-05
0.000247593
-5.83454e-05
0.000433167
-9.02032e-05
0.000477772
-0.000102656
0.000210678
6.52645e-06
0.000126675
1.42305e-05
5.09023e-05
-4.18263e-05
-0.000108388
5.63559e-06
-0.000163174
7.84562e-06
-0.000239526
-0.000232929
6.87862e-06
-4.78123e-05
0.000316835
7.07651e-05
8.86428e-05
8.20082e-05
4.34173e-05
0.000176324
-4.89067e-05
0.000321551
-0.000201844
0.000343906
-7.42136e-05
0.000323032
-2.04334e-05
0.000277989
6.64806e-05
0.000175792
0.000172555
0.000158406
0.000106286
5.53407e-05
0.000199444
9.56943e-05
0.000118216
4.96365e-05
0.000207418
-2.48511e-05
0.000322081
-7.10993e-05
0.000479415
-0.0001023
0.000508972
-7.57907e-05
0.000184169
-8.83912e-05
0.000139276
-1.27015e-05
-2.47874e-05
6.6346e-05
-0.000187435
2.82899e-05
-0.000125118
4.58486e-05
-0.000257085
-0.000239675
5.25946e-05
-3.73188e-06
0.000320567
4.64663e-05
3.84447e-05
0.000147667
-5.77836e-05
0.000260428
-0.000161667
0.000263899
-0.000205315
0.000269341
-7.96556e-05
0.00021841
3.04972e-05
0.000188296
9.65943e-05
0.00010226
0.000258591
5.51052e-05
0.000153441
3.69599e-05
0.000217589
1.95198e-05
0.000135656
4.48709e-06
0.000222451
-5.97306e-05
0.000386298
-5.31138e-05
0.000472799
-4.83741e-05
0.000504232
-3.40615e-06
0.000139201
3.73739e-05
9.84955e-05
6.98822e-05
-5.72958e-05
4.2683e-05
-0.000160236
4.54549e-05
-0.00012789
4.13136e-05
-0.000252944
-0.0002329
3.45388e-05
5.77678e-05
0.000262799
4.39656e-05
5.22468e-05
7.58706e-05
-8.96886e-05
9.44687e-05
-0.000180265
1.58367e-05
-0.000126683
-3.91157e-05
-2.47033e-05
-5.72387e-05
4.86201e-05
-3.35827e-05
7.29383e-05
1.90477e-05
0.000205961
-1.50946e-05
0.000187583
-1.15505e-05
0.000214045
-7.10301e-05
0.000195135
-8.80842e-05
0.000239505
-7.46229e-05
0.000372837
-5.359e-05
0.000451766
-6.74111e-06
0.000457384
9.56178e-06
0.000122898
5.48365e-05
5.32208e-05
5.78582e-05
-6.03176e-05
5.38153e-05
-0.000156193
0.000115361
-0.000189436
9.68191e-05
-0.000234402
-0.000222081
8.59993e-05
6.53153e-05
0.000197484
3.18469e-05
8.57152e-05
-7.64011e-06
-5.02017e-05
-0.000122888
-6.50176e-05
-0.000169246
-8.03247e-05
-0.000194178
2.28448e-07
-0.000210457
6.48993e-05
-0.000179498
4.19795e-05
-0.000132551
0.000159013
-5.9371e-05
0.000114403
-5.42056e-05
0.000208879
-5.33305e-05
0.00019426
-0.000103207
0.000289381
-7.86407e-05
0.000348271
-1.63612e-05
0.000389486
5.6208e-05
0.000384814
0.000100513
7.85929e-05
0.000127282
2.64514e-05
0.000154867
-8.7902e-05
0.000156451
-0.000157777
0.000106722
-0.000139707
0.000112587
-0.000240266
-0.000140767
3.1273e-05
1.81784e-05
0.000179306
-2.68569e-05
0.000130751
-0.000134311
5.72524e-05
-0.000182731
-1.65975e-05
-0.000244168
-1.8888e-05
-0.000244946
1.00626e-06
-0.000229689
4.9643e-05
-0.00023935
5.16397e-05
-0.000204165
0.000123829
-0.000233215
0.000143453
-0.0001499
0.000125564
-7.50598e-05
0.00011942
-9.71674e-05
0.000311489
-9.89057e-05
0.000350009
6.41916e-05
0.000226389
0.000136464
0.000312542
0.000140241
7.48152e-05
0.000143524
2.31689e-05
0.000152267
-9.66452e-05
0.000153848
-0.000159358
0.000144429
-0.000130289
4.59065e-05
-0.000141743
-0.000189714
9.48537e-05
-6.23117e-06
0.000185537
-2.11544e-05
0.000145674
-0.000153162
0.00018926
-0.00020679
3.70311e-05
-0.000243146
1.74676e-05
-0.000245046
2.90588e-06
-0.000234167
3.87645e-05
-0.000237815
5.5288e-05
-0.000215731
0.000101745
-0.000208931
0.000136652
-0.000181232
9.78664e-05
-0.000163735
0.000101923
-0.000105284
0.000253037
-5.05105e-05
0.000295236
1.50653e-05
0.000160813
0.000119509
0.000208099
0.000137145
5.71785e-05
0.00015997
3.43568e-07
0.000163083
-9.97579e-05
0.00014385
-0.000140125
0.00010727
-9.37092e-05
0.000112889
-0.000147362
-0.000134932
5.81066e-05
-1.77902e-05
0.000203327
-6.33861e-05
0.00019127
-0.000105784
0.000231658
-0.000170711
0.000101958
-0.000192856
3.9613e-05
-0.000227956
3.80055e-05
-0.000219198
3.00069e-05
-0.000226783
6.28726e-05
-0.00017596
5.09213e-05
-0.000115432
7.61246e-05
-0.000171604
0.000154038
-0.00015927
8.95887e-05
-9.88703e-05
0.000192638
-4.56982e-05
0.000242064
-3.67008e-05
0.000151816
7.11996e-05
0.000100199
0.000122262
6.11604e-06
0.000201572
-7.89669e-05
0.000156031
-5.42169e-05
0.0001349
-0.000118994
0.000149215
-0.000108024
0.000122754
-0.000120901
-0.000120337
0.00010816
-4.36721e-05
0.000246999
-0.000107481
0.000255079
-6.26731e-05
0.00018685
-0.000135297
0.000174581
-0.000177635
8.19513e-05
-0.000181347
4.17176e-05
-0.00019013
3.87895e-05
-0.000170619
4.33617e-05
-0.000162853
4.31554e-05
-0.000173725
8.69969e-05
-0.00015191
0.000132223
-0.000141221
7.88996e-05
-6.00833e-05
0.0001115
5.5131e-05
0.000126849
0.00011207
9.48769e-05
0.000184271
2.79973e-05
0.000209321
-1.89342e-05
0.000181445
-5.10908e-05
0.000168015
-4.07871e-05
0.000142401
-9.33789e-05
0.000122114
-8.77372e-05
9.33292e-05
-9.21162e-05
-0.000105985
7.8977e-05
-3.50508e-05
0.00028205
-4.95195e-05
0.000269548
-8.12534e-05
0.000218584
-8.39517e-05
0.00017728
-0.000104178
0.000102178
-0.000120166
5.7705e-05
-0.000111821
3.04446e-05
-9.69506e-05
2.84915e-05
-8.02843e-05
2.64892e-05
-7.28166e-05
7.95292e-05
-2.67638e-05
8.61705e-05
4.80549e-06
4.73304e-05
5.19396e-05
6.43658e-05
0.000104175
7.46143e-05
0.000121045
7.80063e-05
0.000104903
4.41399e-05
0.000111764
-2.57955e-05
0.00011358
-5.29067e-05
0.000156286
-8.34935e-05
0.0001091
-4.61924e-05
9.48044e-05
-7.34417e-05
7.32988e-05
-7.06106e-05
-7.25584e-05
3.98719e-05
-3.94194e-05
0.000321469
-5.2056e-05
0.000282184
-6.37578e-05
0.000230285
-6.9368e-05
0.00018289
-7.49139e-05
0.000107724
-7.34125e-05
5.62036e-05
-6.96152e-05
2.66473e-05
-5.68026e-05
1.56789e-05
-4.30864e-05
1.2773e-05
-1.50098e-05
5.14526e-05
3.65757e-05
3.45849e-05
6.1426e-05
2.24801e-05
9.14798e-05
3.4312e-05
0.00012768
3.84138e-05
0.000161855
4.3832e-05
0.000192392
1.3603e-05
0.000180991
-1.43953e-05
0.000164107
-3.60228e-05
0.00012119
-4.05765e-05
0.000107199
-3.22009e-05
9.90499e-05
-6.52928e-05
6.81064e-05
-3.96671e-05
-6.57899e-05
6.13379e-05
-2.76169e-05
0.000349086
-2.88715e-05
0.000283439
-4.07289e-05
0.000242143
-4.6959e-05
0.00018912
-4.27881e-05
0.000103553
-5.50856e-05
6.85011e-05
-2.84243e-05
-1.39941e-08
-1.34516e-05
7.06141e-07
-6.54212e-06
5.86353e-06
2.44758e-05
2.04347e-05
4.48635e-05
1.41972e-05
5.59045e-05
1.14391e-05
7.53636e-05
1.48529e-05
0.000101293
1.24844e-05
0.000111117
3.40084e-05
0.00010923
1.54894e-05
7.50172e-05
1.98179e-05
6.32597e-05
-2.42653e-05
5.80195e-05
-3.53363e-05
7.67879e-05
-5.09693e-05
6.38214e-05
-5.23263e-05
6.105e-05
-3.68957e-05
-4.31098e-05
3.83698e-05
-8.39115e-06
0.000357477
-1.81842e-05
0.000293232
-2.81648e-05
0.000252123
-4.59177e-05
0.000206873
-3.95855e-05
9.72207e-05
-1.51769e-05
4.40924e-05
-1.52861e-05
9.5195e-08
-5.43473e-06
-9.14523e-06
4.12334e-06
-3.69454e-06
2.17552e-05
2.80284e-06
3.53348e-05
6.17531e-07
4.5346e-05
1.42795e-06
5.84179e-05
1.78093e-06
5.02576e-05
2.06447e-05
6.81662e-05
1.60997e-05
7.62451e-05
7.41046e-06
0.000110753
-1.46901e-05
9.18636e-05
-5.37575e-06
8.11129e-05