/*--------------------------------*- C++ -*----------------------------------*\
| =========                 |                                                 |
| \\      /  F ield         | foam-extend: Open Source CFD                    |
|  \\    /   O peration     | Version:     4.1                                |
|   \\  /    A nd           | Web:         http://www.foam-extend.org         |
|    \\/     M anipulation  |                                                 |
\*---------------------------------------------------------------------------*/
FoamFile
{
    version     2.0;
    format      ascii;
    class       regIOobject;
    location    "0.95/uniform";
    object      profilingInfo;
}
// * * * * * * * * * * * * * * * * * * * * * * * * * * * * * * * * * * * * * //

profilingInfo
(

    {
        id              12;
        parentId        10;
        description     "Foam::Time::writeObject - outputTime";
        calls           19;
        totalTime       0.292851;
        childTime       0;
        onStack         1;
    }

    {
        id              10;
        parentId        1;
        description     "Foam::Time::writeObject";
        calls           1060;
        totalTime       0.293892;
        childTime       0.292851;
        onStack         1;
    }

    {
        id              1;
        description     "application::main";
        calls           1;
        totalTime       10.7385;
        childTime       5.18385;
        onStack         1;
    }

    {
        id              11;
        parentId        1;
        description     "FO::DataSummary::execute";
        calls           1059;
        totalTime       0.058093;
        childTime       0;
        onStack         0;
    }

    {
        id              4;
        parentId        1;
        description     "functionObjectList::read";
        calls           1;
        totalTime       0.00813;
        childTime       0;
        onStack         0;
    }

    {
        id              5;
        parentId        1;
        description     "fvMatrix::solve_C";
        calls           4240;
        totalTime       0.562741;
        childTime       0.426654;
        onStack         0;
    }

    {
        id              2;
        parentId        1;
        description     "fvMatrix::solve_pcorr";
        calls           1;
        totalTime       0.000121;
        childTime       6.5e-05;
        onStack         0;
    }

    {
        id              7;
        parentId        1;
        description     "fvMatrix::solve_pd";
        calls           4240;
        totalTime       4.26087;
        childTime       4.1074;
        onStack         0;
    }

    {
        id              6;
        parentId        5;
        description     "lduMatrix::solver_C";
        calls           4240;
        totalTime       0.426654;
        childTime       0;
        onStack         0;
    }

    {
        id              9;
        parentId        8;
        description     "lduMatrix::solver_coarsestLevelCorr";
        calls           18707;
        totalTime       0.129705;
        childTime       0;
        onStack         0;
    }

    {
        id              3;
        parentId        2;
        description     "lduMatrix::solver_pcorr";
        calls           1;
        totalTime       6.5e-05;
        childTime       0;
        onStack         0;
    }

    {
        id              8;
        parentId        7;
        description     "lduMatrix::solver_pd";
        calls           4240;
        totalTime       4.1074;
        childTime       0.129705;
        onStack         0;
    }
);


// ************************************************************************* //
