/*--------------------------------*- C++ -*----------------------------------*\
| =========                 |                                                 |
| \\      /  F ield         | foam-extend: Open Source CFD                    |
|  \\    /   O peration     | Version:     4.1                                |
|   \\  /    A nd           | Web:         http://www.foam-extend.org         |
|    \\/     M anipulation  |                                                 |
\*---------------------------------------------------------------------------*/
FoamFile
{
    version     2.0;
    format      ascii;
    class       volVectorField;
    location    "0.05";
    object      U_0;
}
// * * * * * * * * * * * * * * * * * * * * * * * * * * * * * * * * * * * * * //

dimensions      [0 1 -1 0 0 0 0];

internalField   nonuniform List<vector> 
2268
(
(0.0214053 -0.00679575 0)
(0.0645596 -0.00685157 0)
(0.108739 -0.00695959 0)
(0.154629 -0.00712396 0)
(0.202914 -0.00734341 0)
(0.254192 -0.00760432 0)
(0.308952 -0.00787799 0)
(0.366636 -0.00799687 0)
(0.42795 -0.00924189 0)
(0.494334 -0.00692446 0)
(0.523781 -0.0477503 0)
(0.561294 -0.0400205 0)
(0.650725 -0.0281953 0)
(0.784147 -0.0389641 0)
(1.03667 -0.0467553 0)
(1.44507 -0.0171128 0)
(1.58728 0.0548126 0)
(0.937809 0.0740549 0)
(0.663644 0.0534465 0)
(0.440472 0.0310158 0)
(0.241965 0.0234722 0)
(0.120935 0.030724 0)
(0.0387995 0.0307522 0)
(0.0214071 -0.020369 0)
(0.0645644 -0.0205376 0)
(0.108747 -0.0208641 0)
(0.154641 -0.021361 0)
(0.202941 -0.0220253 0)
(0.254258 -0.0228211 0)
(0.309125 -0.0236225 0)
(0.366544 -0.0241433 0)
(0.427923 -0.0257434 0)
(0.478487 -0.0289536 0)
(0.512683 -0.126051 0)
(0.549747 -0.108503 0)
(0.633014 -0.0975393 0)
(0.791705 -0.13185 0)
(1.1146 -0.136922 0)
(1.63298 0.0467017 0)
(1.44162 0.175375 0)
(0.864697 0.174826 0)
(0.652134 0.129886 0)
(0.439632 0.0856706 0)
(0.249263 0.0702773 0)
(0.127703 0.0921376 0)
(0.0397065 0.0932572 0)
(0.0213554 -0.0339223 0)
(0.0644081 -0.0342066 0)
(0.108483 -0.0347569 0)
(0.154268 -0.0355945 0)
(0.202468 -0.0367173 0)
(0.253736 -0.0380704 0)
(0.308647 -0.0393789 0)
(0.365932 -0.0406423 0)
(0.42594 -0.0364792 0)
(0.437737 -0.0868055 0)
(0.493553 -0.172259 0)
(0.537291 -0.161204 0)
(0.600622 -0.180976 0)
(0.765358 -0.245326 0)
(1.11731 -0.238227 0)
(1.63397 0.140671 0)
(1.1498 0.291795 0)
(0.735407 0.281657 0)
(0.602952 0.199348 0)
(0.420859 0.128806 0)
(0.254005 0.116161 0)
(0.135354 0.147836 0)
(0.0399473 0.15783 0)
(0.0212775 -0.0474435 0)
(0.0641722 -0.047847 0)
(0.108084 -0.0486281 0)
(0.153703 -0.049817 0)
(0.20175 -0.0514164 0)
(0.252952 -0.0533328 0)
(0.307812 -0.0553061 0)
(0.367135 -0.05545 0)
(0.401337 -0.0749377 0)
(0.402576 -0.149747 0)
(0.487096 -0.19531 0)
(0.512876 -0.20823 0)
(0.556532 -0.259493 0)
(0.719828 -0.341415 0)
(1.03901 -0.294436 0)
(1.37533 0.211404 0)
(0.898479 0.374461 0)
(0.6366 0.335252 0)
(0.555107 0.233979 0)
(0.403345 0.163393 0)
(0.262182 0.160193 0)
(0.147181 0.193211 0)
(0.04351 0.227095 0)
(0.0211718 -0.0607734 0)
(0.0638519 -0.0613003 0)
(0.107542 -0.0623217 0)
(0.152932 -0.0638779 0)
(0.200771 -0.0659783 0)
(0.251827 -0.0685408 0)
(0.307137 -0.0711354 0)
(0.355756 -0.0744903 0)
(0.372118 -0.135901 0)
(0.384144 -0.178883 0)
(0.471758 -0.223648 0)
(0.480264 -0.253868 0)
(0.512564 -0.324078 0)
(0.662902 -0.402081 0)
(0.935663 -0.308584 0)
(1.12575 0.293234 0)
(0.691569 0.430063 0)
(0.553793 0.365795 0)
(0.511273 0.25468 0)
(0.390485 0.198046 0)
(0.271372 0.202417 0)
(0.165269 0.233761 0)
(0.0543756 0.303579 0)
(0.0210366 -0.0734696 0)
(0.0634423 -0.0741228 0)
(0.106847 -0.075393 0)
(0.15194 -0.0773332 0)
(0.199476 -0.0799721 0)
(0.250334 -0.083389 0)
(0.303945 -0.087208 0)
(0.334332 -0.110847 0)
(0.344612 -0.175295 0)
(0.367691 -0.205138 0)
(0.453133 -0.254447 0)
(0.447257 -0.297168 0)
(0.472446 -0.368677 0)
(0.603303 -0.436085 0)
(0.841061 -0.297174 0)
(0.874459 0.364587 0)
(0.536963 0.447767 0)
(0.489533 0.391084 0)
(0.471697 0.273641 0)
(0.382192 0.231125 0)
(0.281184 0.241351 0)
(0.192022 0.271205 0)
(0.0740291 0.392771 0)
(0.0208714 -0.0847594 0)
(0.06294 -0.0855332 0)
(0.105992 -0.0870449 0)
(0.150705 -0.0893577 0)
(0.197776 -0.092547 0)
(0.247925 -0.0971214 0)
(0.292551 -0.107056 0)
(0.31075 -0.153612 0)
(0.323807 -0.196826 0)
(0.350323 -0.226019 0)
(0.429913 -0.279959 0)
(0.415373 -0.329948 0)
(0.438134 -0.396611 0)
(0.550098 -0.455809 0)
(0.757192 -0.269238 0)
(0.655404 0.406951 0)
(0.43716 0.460137 0)
(0.432112 0.407412 0)
(0.435839 0.292283 0)
(0.377276 0.25535 0)
(0.290681 0.277507 0)
(0.23405 0.304524 0)
(0.108667 0.413294 0)
(0.0206824 -0.0943603 0)
(0.0623638 -0.095257 0)
(0.105008 -0.0970242 0)
(0.149264 -0.0997519 0)
(0.195599 -0.103648 0)
(0.242677 -0.110239 0)
(0.275523 -0.13509 0)
(0.288868 -0.181272 0)
(0.307283 -0.212578 0)
(0.332642 -0.241402 0)
(0.403965 -0.29596 0)
(0.383807 -0.348765 0)
(0.407411 -0.417261 0)
(0.504686 -0.469519 0)
(0.677791 -0.222474 0)
(0.494309 0.434455 0)
(0.370117 0.473457 0)
(0.381816 0.415371 0)
(0.402405 0.313669 0)
(0.373048 0.279732 0)
(0.302457 0.296536 0)
(0.256442 0.338836 0)
(0.132302 0.485239 0)
(0.0131095 -0.00948948 0)
(0.0399158 -0.00932922 0)
(0.0650879 -0.00482989 0)
(0.0816332 -0.0022856 0)
(0.0879784 -0.000506429 0)
(0.0890887 0.000691637 0)
(0.0878312 0.00127558 0)
(0.0850188 0.00184816 0)
(0.0812111 0.00228942 0)
(0.076636 0.00247233 0)
(0.0710875 0.00250232 0)
(0.0645698 0.00245038 0)
(0.0571278 0.00235201 0)
(0.0488119 0.00220721 0)
(0.0399228 0.0020576 0)
(0.0308992 0.00193546 0)
(0.0219571 0.00184643 0)
(0.0131356 0.00178859 0)
(0.00437617 0.00175403 0)
(0.0134845 -0.0288389 0)
(0.0426961 -0.0279665 0)
(0.0693091 -0.0142786 0)
(0.085013 -0.00677064 0)
(0.0909229 -0.00152758 0)
(0.0916461 0.00191237 0)
(0.0900881 0.0041328 0)
(0.0870681 0.00581011 0)
(0.0830527 0.00692154 0)
(0.0781913 0.00738589 0)
(0.0724081 0.00744161 0)
(0.065689 0.00726662 0)
(0.058053 0.0069563 0)
(0.0495561 0.00650955 0)
(0.0405154 0.00606072 0)
(0.0313572 0.00569656 0)
(0.0222841 0.00543127 0)
(0.0133317 0.00525905 0)
(0.00444153 0.00515644 0)
(0.0143602 -0.0489163 0)
(0.0465876 -0.0439695 0)
(0.0753097 -0.0230426 0)
(0.0885971 -0.0108877 0)
(0.0933612 -0.00244113 0)
(0.0933014 0.0033466 0)
(0.0912518 0.00744738 0)
(0.087834 0.0101566 0)
(0.0834728 0.011683 0)
(0.0783348 0.0122872 0)
(0.0723791 0.0123027 0)
(0.0655578 0.0119679 0)
(0.0578446 0.0114092 0)
(0.0493091 0.0106405 0)
(0.0402924 0.00989943 0)
(0.0311849 0.00930343 0)
(0.0221645 0.00886958 0)
(0.0132613 0.0085881 0)
(0.00441821 0.00842054 0)
(0.0169025 -0.0706507 0)
(0.053261 -0.0557504 0)
(0.0832851 -0.0308702 0)
(0.0937636 -0.0143438 0)
(0.0969585 -0.00280469 0)
(0.095854 0.00552855 0)
(0.0929872 0.0113511 0)
(0.0888628 0.014839 0)
(0.0839645 0.016612 0)
(0.078463 0.0172418 0)
(0.0722815 0.0171547 0)
(0.0653183 0.016625 0)
(0.0574974 0.0157629 0)
(0.0489222 0.0146705 0)
(0.0399539 0.0136586 0)
(0.0309249 0.0128493 0)
(0.0219839 0.0122591 0)
(0.0131552 0.0118757 0)
(0.00438309 0.0116466 0)
(0.022579 -0.0969633 0)
(0.0635169 -0.0680474 0)
(0.0926725 -0.0378524 0)
(0.100486 -0.0169006 0)
(0.101766 -0.00215196 0)
(0.0992859 0.00900289 0)
(0.0951821 0.0160694 0)
(0.0900485 0.0199206 0)
(0.0844783 0.0217296 0)
(0.0785542 0.0222669 0)
(0.072109 0.0220088 0)
(0.064961 0.0212255 0)
(0.0570106 0.0199998 0)
(0.0484131 0.0186062 0)
(0.0395176 0.0173514 0)
(0.0305898 0.0163486 0)
(0.0217505 0.0156142 0)
(0.0130176 0.0151356 0)
(0.00433757 0.0148481 0)
(0.0337493 -0.133394 0)
(0.0787498 -0.0840452 0)
(0.104447 -0.043863 0)
(0.108839 -0.0182733 0)
(0.107893 0.000905283 0)
(0.103541 0.0143132 0)
(0.0975841 0.0216685 0)
(0.0912375 0.0253868 0)
(0.0849403 0.027023 0)
(0.0785666 0.0273475 0)
(0.0718285 0.0268312 0)
(0.0644576 0.0256737 0)
(0.0563802 0.0240769 0)
(0.0477946 0.0224129 0)
(0.0389934 0.0209369 0)
(0.030186 0.0197555 0)
(0.0214681 0.0188872 0)
(0.0128508 0.0183199 0)
(0.00428227 0.017977 0)
(0.0642569 -0.180426 0)
(0.103727 -0.10138 0)
(0.119393 -0.0478477 0)
(0.119276 -0.017471 0)
(0.115453 0.00778549 0)
(0.108005 0.0210636 0)
(0.0998188 0.0276883 0)
(0.0922811 0.0309913 0)
(0.0852834 0.0323438 0)
(0.0784536 0.0323583 0)
(0.071385 0.0314351 0)
(0.0637826 0.0298442 0)
(0.0556206 0.027928 0)
(0.0470765 0.0260143 0)
(0.0383872 0.024331 0)
(0.0297182 0.022984 0)
(0.0211401 0.021992 0)
(0.0126567 0.0213426 0)
(0.00421788 0.0209479 0)
(0.16747 -0.207537 0)
(0.153658 -0.110468 0)
(0.138232 -0.0417287 0)
(0.131897 -0.00723587 0)
(0.123905 0.0142203 0)
(0.111779 0.0257267 0)
(0.101693 0.0323859 0)
(0.0931549 0.0358769 0)
(0.0854844 0.0371447 0)
(0.0781576 0.0368786 0)
(0.0707463 0.0355561 0)
(0.0629595 0.0336197 0)
(0.0547486 0.0314321 0)
(0.0462641 0.0292861 0)
(0.0377047 0.0274194 0)
(0.0291916 0.0259291 0)
(0.0207703 0.0248304 0)
(0.0124376 0.0241101 0)
(0.00414512 0.0236695 0)
(0.0203223 -0.110145 0)
(0.0612559 -0.111326 0)
(0.103079 -0.113762 0)
(0.146304 -0.117925 0)
(0.190436 -0.126 0)
(0.225825 -0.143512 0)
(0.246544 -0.176215 0)
(0.262824 -0.209514 0)
(0.284701 -0.236996 0)
(0.306294 -0.266494 0)
(0.364267 -0.319075 0)
(0.333095 -0.369974 0)
(0.359925 -0.436576 0)
(0.463823 -0.475816 0)
(0.632882 -0.151128 0)
(0.376952 0.442375 0)
(0.301299 0.463915 0)
(0.319168 0.410338 0)
(0.361728 0.339705 0)
(0.361489 0.305846 0)
(0.324479 0.307556 0)
(0.347398 0.341937 0)
(0.41015 0.456594 0)
(0.0196146 -0.134549 0)
(0.0589891 -0.136428 0)
(0.0986754 -0.140837 0)
(0.137225 -0.149416 0)
(0.170177 -0.164694 0)
(0.195874 -0.189263 0)
(0.216832 -0.216385 0)
(0.235601 -0.24192 0)
(0.255124 -0.268517 0)
(0.271452 -0.298808 0)
(0.314692 -0.346456 0)
(0.276696 -0.393771 0)
(0.309472 -0.451502 0)
(0.390912 -0.488272 0)
(0.498633 0.0249436 0)
(0.270902 0.437662 0)
(0.237758 0.442582 0)
(0.267306 0.404436 0)
(0.323454 0.358069 0)
(0.340312 0.319557 0)
(0.331177 0.305976 0)
(0.359815 0.318975 0)
(0.407638 0.300735 0)
(0.0184163 -0.162409 0)
(0.0547573 -0.165595 0)
(0.0895645 -0.172567 0)
(0.121542 -0.184669 0)
(0.14936 -0.202199 0)
(0.17276 -0.222645 0)
(0.192632 -0.244817 0)
(0.210006 -0.268412 0)
(0.22606 -0.294494 0)
(0.237453 -0.324418 0)
(0.269835 -0.367471 0)
(0.227835 -0.409938 0)
(0.263768 -0.464128 0)
(0.338712 -0.48023 0)
(0.40418 0.144572 0)
(0.223067 0.424813 0)
(0.203198 0.429438 0)
(0.231529 0.405874 0)
(0.284387 0.366171 0)
(0.310102 0.326404 0)
(0.323551 0.305185 0)
(0.331094 0.288002 0)
(0.317418 0.230796 0)
(0.0164054 -0.19307 0)
(0.048626 -0.197087 0)
(0.0791412 -0.205025 0)
(0.106991 -0.216904 0)
(0.131519 -0.232263 0)
(0.152615 -0.250239 0)
(0.1706 -0.270306 0)
(0.185668 -0.292522 0)
(0.198072 -0.31761 0)
(0.205131 -0.346326 0)
(0.229698 -0.384628 0)
(0.186728 -0.421851 0)
(0.224703 -0.472092 0)
(0.290197 -0.46731 0)
(0.320843 0.249432 0)
(0.195642 0.42047 0)
(0.183138 0.4199 0)
(0.204206 0.40139 0)
(0.246882 0.36913 0)
(0.279013 0.33049 0)
(0.289677 0.307057 0)
(0.284276 0.265579 0)
(0.278838 0.230414 0)
(0.0144138 -0.224213 0)
(0.0427109 -0.228052 0)
(0.069498 -0.235426 0)
(0.0939992 -0.246136 0)
(0.115724 -0.259767 0)
(0.134467 -0.275875 0)
(0.150155 -0.294267 0)
(0.162561 -0.3151 0)
(0.171551 -0.338777 0)
(0.175258 -0.365516 0)
(0.19455 -0.39892 0)
(0.152947 -0.430953 0)
(0.190939 -0.477527 0)
(0.247804 -0.448895 0)
(0.240198 0.325475 0)
(0.166088 0.42146 0)
(0.162869 0.410677 0)
(0.18067 0.39027 0)
(0.212774 0.36533 0)
(0.245014 0.334345 0)
(0.256463 0.304375 0)
(0.249945 0.271048 0)
(0.244697 0.238714 0)
(0.0126186 -0.253928 0)
(0.037411 -0.257382 0)
(0.060932 -0.263947 0)
(0.0825055 -0.273432 0)
(0.10164 -0.285518 0)
(0.117994 -0.29996 0)
(0.131259 -0.316691 0)
(0.141023 -0.335832 0)
(0.14711 -0.357539 0)
(0.148472 -0.381628 0)
(0.164241 -0.41027 0)
(0.125353 -0.437891 0)
(0.16165 -0.481517 0)
(0.213126 -0.419271 0)
(0.162963 0.374574 0)
(0.133391 0.422316 0)
(0.139891 0.403511 0)
(0.158046 0.382275 0)
(0.188912 0.362061 0)
(0.215897 0.338465 0)
(0.223342 0.304976 0)
(0.218339 0.273411 0)
(0.213259 0.242953 0)
(0.0110337 -0.28176 0)
(0.0327355 -0.284845 0)
(0.0533773 -0.290665 0)
(0.0723443 -0.299058 0)
(0.0891096 -0.309751 0)
(0.103205 -0.322549 0)
(0.114171 -0.337414 0)
(0.121549 -0.354433 0)
(0.125296 -0.373646 0)
(0.125042 -0.39472 0)
(0.138217 -0.41905 0)
(0.102643 -0.443099 0)
(0.136566 -0.484472 0)
(0.181138 -0.378869 0)
(0.100314 0.396674 0)
(0.103156 0.420105 0)
(0.116146 0.397987 0)
(0.138164 0.380205 0)
(0.167521 0.362528 0)
(0.186843 0.336697 0)
(0.191169 0.304496 0)
(0.188358 0.274677 0)
(0.184271 0.246363 0)
(0.00961942 -0.307526 0)
(0.028569 -0.310337 0)
(0.0466638 -0.315589 0)
(0.063351 -0.323107 0)
(0.0780723 -0.332571 0)
(0.0902401 -0.343725 0)
(0.0992513 -0.356479 0)
(0.104612 -0.37094 0)
(0.106437 -0.387247 0)
(0.104881 -0.405223 0)
(0.11579 -0.425864 0)
(0.0838281 -0.44698 0)
(0.114869 -0.486489 0)
(0.151585 -0.326791 0)
(0.0533924 0.402043 0)
(0.0784578 0.411617 0)
(0.0966802 0.393607 0)
(0.12158 0.380449 0)
(0.144509 0.362064 0)
(0.157298 0.335415 0)
(0.161305 0.306635 0)
(0.160523 0.279479 0)
(0.158846 0.254152 0)
(0.00831532 -0.330977 0)
(0.0247403 -0.333646 0)
(0.040548 -0.338588 0)
(0.0552867 -0.34557 0)
(0.068405 -0.354146 0)
(0.0791967 -0.363851 0)
(0.0868279 -0.374415 0)
(0.0906083 -0.385971 0)
(0.0907 -0.399017 0)
(0.0877423 -0.413865 0)
(0.0963593 -0.431362 0)
(0.0681422 -0.449953 0)
(0.0959878 -0.487944 0)
(0.123053 -0.266594 0)
(0.017064 0.395779 0)
(0.0621023 0.398716 0)
(0.0833526 0.389023 0)
(0.105804 0.377996 0)
(0.121832 0.359739 0)
(0.130938 0.33641 0)
(0.135051 0.311913 0)
(0.135968 0.288363 0)
(0.136522 0.26645 0)
(0.00704629 -0.351756 0)
(0.0210227 -0.354423 0)
(0.0346639 -0.359374 0)
(0.0476963 -0.366321 0)
(0.0596837 -0.374668 0)
(0.0698566 -0.383594 0)
(0.0770049 -0.392416 0)
(0.0798592 -0.401101 0)
(0.0783044 -0.410661 0)
(0.0735079 -0.421966 0)
(0.0795815 -0.436297 0)
(0.0550806 -0.452311 0)
(0.0797143 -0.488936 0)
(0.0999522 -0.198054 0)
(0.00170717 0.381683 0)
(0.0532594 0.386046 0)
(0.0752566 0.382309 0)
(0.0917547 0.372807 0)
(0.102392 0.357239 0)
(0.109037 0.338186 0)
(0.113023 0.31804 0)
(0.115064 0.2983 0)
(0.116518 0.279494 0)
(0.00573842 -0.370696 0)
(0.0171611 -0.373399 0)
(0.0285235 -0.378552 0)
(0.0398325 -0.385788 0)
(0.0509664 -0.394451 0)
(0.0612896 -0.403567 0)
(0.0691724 -0.411956 0)
(0.0722188 -0.418843 0)
(0.0696663 -0.425368 0)
(0.0628421 -0.432018 0)
(0.0658966 -0.441453 0)
(0.0445644 -0.454313 0)
(0.066209 -0.489712 0)
(0.0785412 -0.133986 0)
(-0.0087383 0.362803 0)
(0.0509685 0.372881 0)
(0.0697336 0.372812 0)
(0.0803768 0.366664 0)
(0.0868063 0.354937 0)
(0.0914132 0.339816 0)
(0.0950132 0.323613 0)
(0.0974796 0.307063 0)
(0.098103 0.290537 0)
(0.00434586 -0.391125 0)
(0.0129396 -0.393558 0)
(0.0217251 -0.398203 0)
(0.0311314 -0.404855 0)
(0.0413188 -0.413072 0)
(0.0519182 -0.42264 0)
(0.0614029 -0.4324 0)
(0.0660917 -0.440609 0)
(0.0649494 -0.444064 0)
(0.0579802 -0.44551 0)
(0.0571789 -0.447443 0)
(0.0366322 -0.456422 0)
(0.0560454 -0.491338 0)
(0.0695809 -0.0842912 0)
(0.0046278 0.339531 0)
(0.0569242 0.356795 0)
(0.0691059 0.361375 0)
(0.0736561 0.359917 0)
(0.0752852 0.352798 0)
(0.0775457 0.341209 0)
(0.0802946 0.331054 0)
(0.0822106 0.316631 0)
(0.0794455 0.296127 0)
(0.00332793 -0.404953 0)
(0.00991167 -0.406856 0)
(0.0168243 -0.410185 0)
(0.0244926 -0.415365 0)
(0.0327461 -0.422826 0)
(0.0416415 -0.433006 0)
(0.0511176 -0.445483 0)
(0.0599818 -0.458822 0)
(0.063944 -0.464255 0)
(0.0598658 -0.460706 0)
(0.0550007 -0.455824 0)
(0.0329878 -0.45769 0)
(0.0529992 -0.492883 0)
(0.0785317 -0.0469365 0)
(0.0371512 0.320499 0)
(0.0693406 0.345373 0)
(0.0731696 0.356322 0)
(0.071719 0.358058 0)
(0.0681038 0.354128 0)
(0.0697724 0.352148 0)
(0.0707716 0.341375 0)
(0.0628128 0.321006 0)
(0.0526183 0.291815 0)
(0.00278673 -0.404316 0)
(0.00855131 -0.405755 0)
(0.0142634 -0.40803 0)
(0.0196306 -0.411871 0)
(0.0244586 -0.418062 0)
(0.0294931 -0.427462 0)
(0.0356229 -0.440958 0)
(0.0491025 -0.458048 0)
(0.0633048 -0.472582 0)
(0.0654432 -0.473286 0)
(0.0598729 -0.464505 0)
(0.0340869 -0.456412 0)
(0.051978 -0.490561 0)
(0.103527 -0.0550194 0)
(0.0737306 0.310443 0)
(0.087308 0.348221 0)
(0.0810891 0.363973 0)
(0.0714811 0.367505 0)
(0.0701819 0.372869 0)
(0.0652127 0.367433 0)
(0.0494632 0.344127 0)
(0.0329509 0.31081 0)
(0.0215373 0.277711 0)
(0.00212726 -0.386675 0)
(0.00649797 -0.387861 0)
(0.0108137 -0.39027 0)
(0.0143787 -0.393922 0)
(0.0167478 -0.399224 0)
(0.0180382 -0.406508 0)
(0.0194056 -0.416493 0)
(0.0266185 -0.429713 0)
(0.049783 -0.453693 0)
(0.0687126 -0.474856 0)
(0.0723001 -0.471089 0)
(0.0392376 -0.458073 0)
(0.0339821 -0.518556 0)
(0.0455541 -0.0238211 0)
(0.132691 0.304821 0)
(0.116286 0.369778 0)
(0.0919154 0.388556 0)
(0.081645 0.40408 0)
(0.0652951 0.399097 0)
(0.0411418 0.364058 0)
(0.0146116 0.32348 0)
(-0.00336997 0.28689 0)
(-0.00694397 0.259136 0)
(0.00155708 -0.369072 0)
(0.00464309 -0.370287 0)
(0.0076473 -0.372631 0)
(0.0100653 -0.376075 0)
(0.0113766 -0.38047 0)
(0.0117664 -0.385451 0)
(0.0117425 -0.390825 0)
(0.0108512 -0.397344 0)
(0.0166472 -0.410235 0)
(0.048144 -0.441463 0)
(0.07714 -0.474006 0)
(0.0473081 -0.468122 0)
(0.0483694 -0.593255 0)
(0.159651 -0.306094 0)
(0.256401 0.32727 0)
(0.162949 0.429706 0)
(0.12028 0.455316 0)
(0.0743066 0.438452 0)
(0.0325816 0.383901 0)
(-0.00981826 0.329358 0)
(-0.0270667 0.287456 0)
(-0.0308646 0.260361 0)
(-0.0275982 0.240784 0)
(0.00096381 -0.366167 0)
(0.00284874 -0.367353 0)
(0.00464194 -0.36949 0)
(0.00607829 -0.372668 0)
(0.00687587 -0.376441 0)
(0.00709147 -0.380338 0)
(0.00677364 -0.384091 0)
(0.00602571 -0.387678 0)
(0.00355153 -0.390614 0)
(0.00318299 -0.400025 0)
(0.0472175 -0.444275 0)
(0.0534553 -0.469241 0)
(0.0980348 -0.495105 0)
(0.185989 -0.46152 0)
(0.29917 0.381283 0)
(0.199426 0.559504 0)
(0.0832421 0.499718 0)
(0.0174155 0.410419 0)
(-0.0413025 0.334437 0)
(-0.0529632 0.287642 0)
(-0.0529492 0.259877 0)
(-0.0493511 0.240052 0)
(-0.0434434 0.224204 0)
(0.000350699 -0.346962 0)
(0.000979909 -0.347935 0)
(0.001573 -0.349684 0)
(0.00203692 -0.352216 0)
(0.00229774 -0.355213 0)
(0.00235446 -0.358303 0)
(0.00220666 -0.361191 0)
(0.00157455 -0.363512 0)
(0.00128946 -0.364877 0)
(-0.0069158 -0.363956 0)
(0.00372951 -0.360619 0)
(0.0571002 -0.395557 0)
(0.176468 -0.40474 0)
(0.283426 -0.344173 0)
(0.132246 0.329294 0)
(0.132665 0.578901 0)
(-0.0212022 0.462943 0)
(-0.0779452 0.358084 0)
(-0.0845872 0.306656 0)
(-0.0819037 0.271155 0)
(-0.0735472 0.245259 0)
(-0.0658826 0.225313 0)
(-0.0573345 0.20985 0)
(0.000148953 -0.285993 0)
(0.000323802 -0.287085 0)
(0.000543942 -0.289111 0)
(0.000780109 -0.292085 0)
(0.00102627 -0.295787 0)
(0.00131322 -0.299937 0)
(0.00168673 -0.304331 0)
(0.00225065 -0.308683 0)
(0.00335108 -0.312147 0)
(0.00607936 -0.316985 0)
(0.0337324 -0.308229 0)
(0.100439 -0.358178 0)
(0.217126 -0.427407 0)
(0.432922 -0.269546 0)
(0.292215 0.0433929 0)
(-0.0628136 0.622392 0)
(-0.127445 0.463736 0)
(-0.132402 0.356934 0)
(-0.124604 0.298257 0)
(-0.11217 0.260644 0)
(-0.0977563 0.232381 0)
(-0.0842991 0.211425 0)
(-0.0717543 0.195271 0)
(0.00192918 -0.619669 0)
(-0.0445974 -0.62029 0)
(-0.0768699 -0.62148 0)
(-0.112258 -0.626508 0)
(-0.148367 -0.636112 0)
(-0.187288 -0.643196 0)
(-0.21373 -0.655544 0)
(-0.214606 -0.65522 0)
(-0.20951 -0.690016 0)
(-0.227764 -0.741693 0)
(-0.192982 -0.774559 0)
(-0.249551 -0.771928 0)
(-0.344843 -0.881458 0)
(-0.280759 -0.100327 0)
(-0.298233 0.428458 0)
(-0.547618 0.666806 0)
(-0.301521 0.459349 0)
(-0.233495 0.347527 0)
(-0.181234 0.285395 0)
(-0.148531 0.245993 0)
(-0.123343 0.218589 0)
(-0.103402 0.198446 0)
(-0.0862974 0.182914 0)
(-0.0158811 -0.513121 0)
(-0.0447287 -0.515469 0)
(-0.0811011 -0.516296 0)
(-0.121735 -0.518769 0)
(-0.161862 -0.521176 0)
(-0.206195 -0.515901 0)
(-0.231881 -0.503854 0)
(-0.25296 -0.492416 0)
(-0.269958 -0.477932 0)
(-0.268119 -0.49625 0)
(-0.281794 -0.547769 0)
(-0.518498 -0.657308 0)
(-0.760038 -0.509385 0)
(-0.803096 -0.0359095 0)
(-0.761416 0.320213 0)
(-0.657606 0.488951 0)
(-0.418752 0.349594 0)
(-0.30491 0.299606 0)
(-0.227149 0.255914 0)
(-0.179648 0.225693 0)
(-0.145807 0.203325 0)
(-0.120298 0.186433 0)
(-0.0993908 0.17314 0)
(-0.0152226 -0.497258 0)
(-0.0477438 -0.500826 0)
(-0.0845792 -0.501964 0)
(-0.12477 -0.50068 0)
(-0.156432 -0.494796 0)
(-0.18323 -0.476164 0)
(-0.206481 -0.441931 0)
(-0.203941 -0.411941 0)
(-0.243214 -0.389427 0)
(-0.335993 -0.431586 0)
(-0.396503 -0.508834 0)
(-0.452942 -0.493217 0)
(-0.552313 -0.314139 0)
(-0.616116 -0.146176 0)
(-0.651416 0.135341 0)
(-0.605973 0.282361 0)
(-0.449963 0.265049 0)
(-0.332837 0.240363 0)
(-0.254981 0.220033 0)
(-0.201346 0.200897 0)
(-0.162737 0.185284 0)
(-0.13369 0.172672 0)
(-0.110357 0.162209 0)
(-0.0154945 -0.437892 0)
(-0.0470709 -0.438161 0)
(-0.0806171 -0.434065 0)
(-0.114373 -0.423028 0)
(-0.137349 -0.404479 0)
(-0.153599 -0.385546 0)
(-0.168027 -0.357675 0)
(-0.196921 -0.337912 0)
(-0.269878 -0.346875 0)
(-0.34342 -0.379711 0)
(-0.394189 -0.379111 0)
(-0.390394 -0.318443 0)
(-0.39215 -0.228742 0)
(-0.434009 -0.116313 0)
(-0.437391 0.00312381 0)
(-0.480288 0.150795 0)
(-0.46241 0.229101 0)
(-0.353111 0.219434 0)
(-0.267334 0.195147 0)
(-0.214693 0.179014 0)
(-0.174161 0.168409 0)
(-0.14345 0.159079 0)
(-0.118668 0.151349 0)
(-0.0141413 -0.371003 0)
(-0.0422784 -0.369238 0)
(-0.0694541 -0.361989 0)
(-0.0949926 -0.349676 0)
(-0.118467 -0.331798 0)
(-0.137098 -0.314549 0)
(-0.159256 -0.305933 0)
(-0.194755 -0.311107 0)
(-0.288879 -0.333581 0)
(-0.351458 -0.336951 0)
(-0.329467 -0.284316 0)
(-0.31211 -0.203673 0)
(-0.336796 -0.165057 0)
(-0.346325 -0.0980136 0)
(-0.339472 -0.0304084 0)
(-0.350173 0.0454441 0)
(-0.385398 0.15776 0)
(-0.367555 0.204557 0)
(-0.296725 0.193956 0)
(-0.22895 0.177347 0)
(-0.183102 0.160819 0)
(-0.150919 0.150099 0)
(-0.124905 0.143144 0)
(-0.0121991 -0.314521 0)
(-0.0366297 -0.312847 0)
(-0.0612162 -0.307174 0)
(-0.084882 -0.299684 0)
(-0.103303 -0.291034 0)
(-0.12855 -0.283874 0)
(-0.16339 -0.286935 0)
(-0.225578 -0.305915 0)
(-0.288224 -0.329581 0)
(-0.296877 -0.277231 0)
(-0.271393 -0.208794 0)
(-0.276927 -0.177212 0)
(-0.289255 -0.136207 0)
(-0.290891 -0.0903661 0)
(-0.28123 -0.0412357 0)
(-0.274816 0.00404176 0)
(-0.293909 0.0681189 0)
(-0.31723 0.145856 0)
(-0.295893 0.177497 0)
(-0.249031 0.176103 0)
(-0.20202 0.164999 0)
(-0.161502 0.152239 0)
(-0.131484 0.141569 0)
(-0.0111284 -0.285149 0)
(-0.0336186 -0.284951 0)
(-0.0564919 -0.282186 0)
(-0.0789746 -0.278631 0)
(-0.10073 -0.276251 0)
(-0.131542 -0.282549 0)
(-0.181662 -0.293479 0)
(-0.239223 -0.308937 0)
(-0.258524 -0.287765 0)
(-0.238642 -0.225617 0)
(-0.232421 -0.188319 0)
(-0.239807 -0.154415 0)
(-0.249524 -0.118601 0)
(-0.248108 -0.0784226 0)
(-0.240149 -0.0428313 0)
(-0.234135 -0.0100517 0)
(-0.234008 0.0243308 0)
(-0.254911 0.0787737 0)
(-0.265062 0.129855 0)
(-0.241523 0.151193 0)
(-0.208098 0.156661 0)
(-0.174757 0.152601 0)
(-0.143154 0.144217 0)
(-0.0106727 -0.274555 0)
(-0.0323174 -0.275491 0)
(-0.0546416 -0.27512 0)
(-0.0784064 -0.275568 0)
(-0.107453 -0.279505 0)
(-0.145484 -0.289499 0)
(-0.190214 -0.296899 0)
(-0.217072 -0.283916 0)
(-0.210537 -0.236118 0)
(-0.199307 -0.196918 0)
(-0.201524 -0.167927 0)
(-0.207522 -0.139351 0)
(-0.213139 -0.10809 0)
(-0.213771 -0.0733701 0)
(-0.210996 -0.0464477 0)
(-0.204973 -0.0197643 0)
(-0.200506 0.00612779 0)
(-0.206705 0.0366723 0)
(-0.222147 0.0830428 0)
(-0.221705 0.115069 0)
(-0.19989 0.130304 0)
(-0.174287 0.137339 0)
(-0.148095 0.138298 0)
(-0.0108037 -0.272259 0)
(-0.0329035 -0.274024 0)
(-0.0565327 -0.275342 0)
(-0.0832808 -0.278023 0)
(-0.114766 -0.282149 0)
(-0.148801 -0.283705 0)
(-0.175736 -0.273983 0)
(-0.180365 -0.242346 0)
(-0.172662 -0.204347 0)
(-0.171563 -0.177651 0)
(-0.175302 -0.153606 0)
(-0.179901 -0.128967 0)
(-0.183334 -0.102767 0)
(-0.186322 -0.0748003 0)
(-0.185856 -0.0511901 0)
(-0.180276 -0.0279884 0)
(-0.17559 -0.00666376 0)
(-0.175239 0.0164593 0)
(-0.184415 0.0459329 0)
(-0.193158 0.0814081 0)
(-0.185634 0.102906 0)
(-0.166562 0.114919 0)
(-0.144882 0.122038 0)
(-0.0112225 -0.27 0)
(-0.0341876 -0.271682 0)
(-0.0586328 -0.272523 0)
(-0.0852143 -0.273056 0)
(-0.11315 -0.271162 0)
(-0.137859 -0.262397 0)
(-0.149325 -0.241178 0)
(-0.148072 -0.209776 0)
(-0.146518 -0.184479 0)
(-0.148956 -0.1632 0)
(-0.152886 -0.142605 0)
(-0.156524 -0.121418 0)
(-0.158763 -0.0994501 0)
(-0.162336 -0.0768767 0)
(-0.163656 -0.0544797 0)
(-0.159735 -0.0343721 0)
(-0.155224 -0.015703 0)
(-0.152709 0.00306243 0)
(-0.155508 0.0241394 0)
(-0.163569 0.0517813 0)
(-0.165732 0.0777485 0)
(-0.154935 0.0937624 0)
(-0.13768 0.104028 0)
(-0.0113174 -0.262767 0)
(-0.034258 -0.263543 0)
(-0.0578985 -0.26235 0)
(-0.0819019 -0.259113 0)
(-0.104096 -0.251467 0)
(-0.118845 -0.235912 0)
(-0.12333 -0.212062 0)
(-0.124026 -0.188985 0)
(-0.126321 -0.169723 0)
(-0.129745 -0.151733 0)
(-0.133433 -0.133716 0)
(-0.136565 -0.115248 0)
(-0.138568 -0.0964362 0)
(-0.141433 -0.0776665 0)
(-0.142991 -0.0572056 0)
(-0.140979 -0.0387264 0)
(-0.137621 -0.0214842 0)
(-0.134656 -0.00549374 0)
(-0.134678 0.0116136 0)
(-0.138523 0.0314661 0)
(-0.14299 0.0551756 0)
(-0.139942 0.0742477 0)
(-0.127982 0.0870337 0)
(-0.010886 -0.250763 0)
(-0.032656 -0.250473 0)
(-0.054188 -0.247168 0)
(-0.0743111 -0.24065 0)
(-0.0899491 -0.228812 0)
(-0.0984975 -0.21101 0)
(-0.102531 -0.191461 0)
(-0.105827 -0.174153 0)
(-0.109281 -0.15804 0)
(-0.112876 -0.142234 0)
(-0.116264 -0.126218 0)
(-0.119064 -0.10984 0)
(-0.120975 -0.0932004 0)
(-0.12304 -0.0764945 0)
(-0.124518 -0.0585897 0)
(-0.123655 -0.0419495 0)
(-0.121548 -0.0261702 0)
(-0.119171 -0.011712 0)
(-0.117944 0.00313135 0)
(-0.11928 0.0192028 0)
(-0.122331 0.0376695 0)
(-0.1227 0.0567859 0)
(-0.116276 0.0713525 0)
(-0.00997723 -0.235764 0)
(-0.0296114 -0.234537 0)
(-0.048066 -0.229455 0)
(-0.0635304 -0.220513 0)
(-0.0744458 -0.20734 0)
(-0.0815081 -0.191826 0)
(-0.08648 -0.17677 0)
(-0.0905721 -0.162362 0)
(-0.0943213 -0.148272 0)
(-0.0978024 -0.134135 0)
(-0.100886 -0.119734 0)
(-0.10337 -0.105007 0)
(-0.105033 -0.0900012 0)
(-0.106705 -0.0747975 0)
(-0.108306 -0.0591361 0)
(-0.108314 -0.0441849 0)
(-0.107035 -0.0300486 0)
(-0.105054 -0.0164343 0)
(-0.103376 -0.00325723 0)
(-0.103501 0.0106671 0)
(-0.104908 0.0258688 0)
(-0.105891 0.0424309 0)
(-0.103315 0.0573577 0)
(-0.00867368 -0.219243 0)
(-0.0253619 -0.217244 0)
(-0.0401531 -0.211113 0)
(-0.0521684 -0.201691 0)
(-0.0612292 -0.190016 0)
(-0.0678875 -0.177536 0)
(-0.0730022 -0.164958 0)
(-0.0772394 -0.152439 0)
(-0.0809405 -0.13987 0)
(-0.0842026 -0.127108 0)
(-0.0869838 -0.114059 0)
(-0.0891639 -0.100702 0)
(-0.0905935 -0.0870757 0)
(-0.0920518 -0.0733052 0)
(-0.0937867 -0.0592797 0)
(-0.0943784 -0.0456833 0)
(-0.0935444 -0.0326632 0)
(-0.0921144 -0.0199162 0)
(-0.0905694 -0.00797467 0)
(-0.0898202 0.00446631 0)
(-0.0901981 0.0176296 0)
(-0.0908823 0.0315863 0)
(-0.0902443 0.0454458 0)
(-0.0070552 -0.202431 0)
(-0.0205517 -0.200204 0)
(-0.0324858 -0.194256 0)
(-0.0423861 -0.186032 0)
(-0.0502305 -0.176309 0)
(-0.0563716 -0.165811 0)
(-0.0612892 -0.154953 0)
(-0.0653773 -0.143872 0)
(-0.0688696 -0.132561 0)
(-0.0718574 -0.120975 0)
(-0.0743357 -0.109085 0)
(-0.0762342 -0.0968981 0)
(-0.0774834 -0.0844708 0)
(-0.0787877 -0.0719578 0)
(-0.0805745 -0.0592243 0)
(-0.0815485 -0.0467153 0)
(-0.0810726 -0.034652 0)
(-0.0801163 -0.0229451 0)
(-0.0787866 -0.011748 0)
(-0.0776551 -0.00047357 0)
(-0.0775128 0.0112954 0)
(-0.0778032 0.0235312 0)
(-0.0779125 0.0358679 0)
(-0.00557961 -0.186815 0)
(-0.016306 -0.184935 0)
(-0.0259398 -0.179894 0)
(-0.0341596 -0.173007 0)
(-0.0409313 -0.164836 0)
(-0.0464424 -0.15585 0)
(-0.0509645 -0.146341 0)
(-0.0547389 -0.136447 0)
(-0.0579256 -0.126212 0)
(-0.0606002 -0.115648 0)
(-0.0627734 -0.104762 0)
(-0.064412 -0.0935868 0)
(-0.0655168 -0.0821961 0)
(-0.0666882 -0.0707369 0)
(-0.0684391 -0.0590607 0)
(-0.0696788 -0.0474495 0)
(-0.0696139 -0.0361911 0)
(-0.0690051 -0.0253105 0)
(-0.0679228 -0.0145476 0)
(-0.0665892 -0.00421317 0)
(-0.0659782 0.00645616 0)
(-0.0660879 0.017413 0)
(-0.0665101 0.0284624 0)
(-0.0043611 -0.173428 0)
(-0.0127987 -0.171983 0)
(-0.0205114 -0.167824 0)
(-0.0272638 -0.162083 0)
(-0.0329954 -0.155153 0)
(-0.0377886 -0.147369 0)
(-0.0417905 -0.138962 0)
(-0.0451458 -0.130069 0)
(-0.04796 -0.120762 0)
(-0.0502901 -0.111083 0)
(-0.0521532 -0.101067 0)
(-0.053544 -0.0907631 0)
(-0.0545105 -0.0802508 0)
(-0.0555405 -0.0696495 0)
(-0.057185 -0.0588257 0)
(-0.0585648 -0.0479542 0)
(-0.0588008 -0.0373264 0)
(-0.0583069 -0.0269954 0)
(-0.0575126 -0.0167116 0)
(-0.0564964 -0.00695173 0)
(-0.0557164 0.00278563 0)
(-0.0556144 0.0127047 0)
(-0.0560317 0.0227532 0)
(-0.00336723 -0.162438 0)
(-0.00991808 -0.161345 0)
(-0.0159956 -0.157889 0)
(-0.0214277 -0.153043 0)
(-0.026145 -0.147082 0)
(-0.0301702 -0.140254 0)
(-0.0335759 -0.132749 0)
(-0.0364433 -0.124694 0)
(-0.0388376 -0.116177 0)
(-0.0407982 -0.107257 0)
(-0.0423424 -0.0979856 0)
(-0.0434826 -0.0884185 0)
(-0.044291 -0.0786306 0)
(-0.0451567 -0.0687065 0)
(-0.0466442 -0.0585428 0)
(-0.0480721 -0.0482589 0)
(-0.0485368 -0.0381607 0)
(-0.0482523 -0.0283413 0)
(-0.047717 -0.0187575 0)
(-0.0469611 -0.00945293 0)
(-0.0461808 -0.000308389 0)
(-0.0459659 0.00899543 0)
(-0.0463138 0.018336 0)
(-0.0025417 -0.153688 0)
(-0.00750807 -0.152848 0)
(-0.0121693 -0.14991 0)
(-0.0164018 -0.14573 0)
(-0.0201411 -0.140506 0)
(-0.0233803 -0.134424 0)
(-0.0261484 -0.127639 0)
(-0.0284859 -0.120271 0)
(-0.0304286 -0.11241 0)
(-0.0319997 -0.104125 0)
(-0.0332123 -0.0954747 0)
(-0.0340851 -0.0865154 0)
(-0.0346945 -0.0773066 0)
(-0.0353511 -0.0678971 0)
(-0.03664 -0.058208 0)
(-0.03808 -0.0483539 0)
(-0.0387752 -0.0386995 0)
(-0.0387847 -0.0293617 0)
(-0.0384871 -0.0203282 0)
(-0.0379301 -0.011427 0)
(-0.0371459 -0.00266966 0)
(-0.0368358 0.00609175 0)
(-0.0371433 0.0149005 0)
(-0.00183442 -0.146827 0)
(-0.00543194 -0.146159 0)
(-0.00884025 -0.143584 0)
(-0.0119734 -0.139883 0)
(-0.0147774 -0.135201 0)
(-0.0172333 -0.129681 0)
(-0.0193461 -0.123454 0)
(-0.0211308 -0.116626 0)
(-0.0226023 -0.109287 0)
(-0.0237694 -0.101512 0)
(-0.0246364 -0.093361 0)
(-0.0252165 -0.0848898 0)
(-0.0255741 -0.0761424 0)
(-0.0259595 -0.0671393 0)
(-0.0270051 -0.0578156 0)
(-0.0284649 -0.048271 0)