/*--------------------------------*- C++ -*----------------------------------*\
| =========                 |                                                 |
| \\      /  F ield         | foam-extend: Open Source CFD                    |
|  \\    /   O peration     | Version:     4.1                                |
|   \\  /    A nd           | Web:         http://www.foam-extend.org         |
|    \\/     M anipulation  |                                                 |
\*---------------------------------------------------------------------------*/
FoamFile
{
    version     2.0;
    format      ascii;
    class       volScalarField;
    location    "0.85";
    object      alpha1;
}
// * * * * * * * * * * * * * * * * * * * * * * * * * * * * * * * * * * * * * //

dimensions      [0 0 0 0 0 0 0];

internalField   nonuniform List<scalar> 
2268
(
1
0.998225
0.995337
0.993858
0.994338
0.994618
0.994457
0.994177
0.994171
0.994486
0.995029
0.99571
0.996475
0.997302
0.99837
0.99956
1
1
1
1
1
1
1
0.99903
0.996361
0.992972
0.991423
0.992433
0.993244
0.993511
0.993489
0.993623
0.993965
0.994455
0.995109
0.995923
0.996819
0.998021
0.999348
1
1
1
1
1
1
1
0.99583
0.992099
0.9878
0.986396
0.988551
0.990465
0.991583
0.992065
0.992432
0.992745
0.993043
0.993559
0.994405
0.995195
0.996186
0.997318
0.998551
1
1
1
1
1
1
0.990809
0.98548
0.980078
0.979373
0.983248
0.986675
0.988895
0.989989
0.990546
0.990602
0.990403
0.990483
0.991141
0.990916
0.990059
0.989495
0.991059
0.997093
0.999102
1
1
1
1
0.983861
0.976649
0.970196
0.971065
0.977109
0.982175
0.985472
0.987092
0.987644
0.986926
0.985697
0.984691
0.984343
0.980462
0.97336
0.967669
0.970367
0.983583
0.9883
0.994382
0.995697
0.999926
1
0.974717
0.965761
0.958651
0.962151
0.970474
0.976857
0.980841
0.982642
0.982864
0.98051
0.97743
0.974059
0.97045
0.956938
0.934596
0.917808
0.923916
0.950517
0.961168
0.978011
0.982852
0.992246
1
0.962943
0.95287
0.945918
0.952959
0.963029
0.969784
0.973614
0.975025
0.974412
0.969252
0.963017
0.954827
0.942928
0.909219
0.857351
0.821797
0.835407
0.88465
0.904698
0.943191
0.95635
0.9744
0.994024
0.947832
0.93752
0.931994
0.942635
0.952998
0.958565
0.961081
0.96145
0.959225
0.949669
0.938075
0.920237
0.890638
0.82364
0.732297
0.677461
0.701633
0.776421
0.80727
0.879541
0.90803
0.938213
0.973833
0.412137
0.393197
0.392461
0.395801
0.397476
0.39875
0.401438
0.407632
0.416747
0.435995
0.452064
0.462666
0.46611
0.466455
0.472274
0.496387
0.533868
0.542485
0.550114
0.412736
0.389277
0.382466
0.378319
0.373185
0.36781
0.363086
0.363055
0.373539
0.397427
0.421269
0.452268
0.477811
0.483945
0.478543
0.463864
0.509807
0.530868
0.550349
0.414086
0.385455
0.374261
0.365984
0.355485
0.348283
0.33536
0.323659
0.344486
0.374916
0.396947
0.429143
0.487458
0.514996
0.509361
0.429457
0.465051
0.505008
0.54513
0.416395
0.38681
0.379281
0.372906
0.357629
0.352256
0.343459
0.317465
0.351272
0.400165
0.41964
0.428765
0.491824
0.539846
0.558519
0.423753
0.425166
0.473488
0.531596
0.419286
0.390788
0.395147
0.396441
0.369748
0.353836
0.35812
0.340778
0.376298
0.435856
0.473362
0.470764
0.505684
0.549508
0.594252
0.459653
0.41548
0.448898
0.510642
0.423324
0.39678
0.418655
0.42283
0.383988
0.335626
0.349923
0.365868
0.389003
0.442372
0.499031
0.512699
0.524593
0.552069
0.611379
0.522436
0.440159
0.439878
0.4839
0.428199
0.403367
0.443651
0.443921
0.397798
0.316687
0.313693
0.354214
0.361901
0.401099
0.476436
0.52347
0.531009
0.54914
0.614169
0.573495
0.479515
0.439954
0.451992
0.430361
0.412587
0.462567
0.457975
0.409116
0.314253
0.278473
0.304613
0.306512
0.337543
0.408791
0.484361
0.508619
0.53835
0.607432
0.600303
0.506383
0.434902
0.413098
0.918003
0.908385
0.906628
0.922279
0.929888
0.93005
0.927987
0.925151
0.918801
0.898836
0.873305
0.827576
0.751965
0.628696
0.509932
0.46385
0.490179
0.558293
0.611484
0.72604
0.790396
0.843004
0.912203
0.862203
0.854449
0.856683
0.870689
0.864403
0.839197
0.820032
0.80774
0.790018
0.747958
0.688708
0.566475
0.436506
0.386214
0.380494
0.399363
0.419275
0.430688
0.441381
0.479589
0.559489
0.63723
0.755654
0.782683
0.77536
0.764814
0.725286
0.649717
0.567678
0.517008
0.501899
0.46244
0.429966
0.384545
0.345487
0.315752
0.365011
0.429154
0.460032
0.479839
0.504282
0.524688
0.551852
0.626178
0.699317
0.729479
0.676659
0.655411
0.587237
0.432714
0.277573
0.212614
0.19717
0.227976
0.218474
0.234937
0.243318
0.276407
0.327304
0.410796
0.444238
0.453218
0.47444
0.545313
0.589081
0.613708
0.635695
0.646501
0.64463
0.556072
0.495402
0.36009
0.234935
0.160268
0.126229
0.122177
0.14661
0.159291
0.183959
0.209963
0.242508
0.281005
0.291416
0.275698
0.270517
0.276115
0.306335
0.346303
0.367886
0.393904
0.424445
0.434945
0.453575
0.340911
0.215995
0.160664
0.145519
0.156699
0.167827
0.180207
0.199259
0.225695
0.242866
0.251038
0.251608
0.225801
0.202564
0.198398
0.198254
0.199916
0.205422
0.211389
0.222492
0.233002
0.240073
0.351772
0.217213
0.183247
0.208656
0.218911
0.228234
0.232643
0.234623
0.237882
0.236242
0.233074
0.222979
0.199076
0.184461
0.180283
0.184717
0.192141
0.197116
0.201419
0.206012
0.210796
0.21487
0.220258
0.270839
0.19874
0.219134
0.233202
0.233726
0.231129
0.226725
0.222285
0.216486
0.207811
0.189953
0.177892
0.168499
0.167133
0.17016
0.180172
0.187948
0.195246
0.198993
0.200859
0.203309
0.204118
0.204303
0.229657
0.195871
0.218265
0.22481
0.210062
0.198701
0.186808
0.177174
0.167672
0.159729
0.153672
0.151075
0.149308
0.153727
0.156361
0.157998
0.15653
0.158788
0.154465
0.151081
0.150531
0.159013
0.157394
0.2098
0.193223
0.209429
0.190758
0.160463
0.145585
0.132277
0.124574
0.119003
0.116731
0.118293
0.118016
0.11685
0.118368
0.112452
0.103237
0.0964074
0.093807
0.0896906
0.0871733
0.0861868
0.0946096
0.0935772
0.198474
0.184084
0.200047
0.169569
0.121681
0.101743
0.0884206
0.0789886
0.07272
0.065223
0.0622493
0.0601882
0.0594084
0.0616819
0.0523795
0.0440871
0.0401027
0.0391087
0.039188
0.0402309
0.0413545
0.0448178
0.0428719
0.189023
0.176278
0.1845
0.141153
0.102389
0.0821098
0.063041
0.0472494
0.0410796
0.0307239
0.0206229
0.0181048
0.0213443
0.0242028
0.0172259
0.0126448
0.0118514
0.0130428
0.0145921
0.0166415
0.0180274
0.0193643
0.018761
0.178997
0.167632
0.167426
0.119256
0.0828643
0.0646354
0.0479851
0.0353333
0.0284457
0.0158878
0.0066047
0.00462575
0.00616272
0.0067152
0.00360319
0.00235876
0.00269772
0.00383139
0.00494737
0.00629228
0.00743462
0.00847876
0.00873332
0.169661
0.159796
0.160006
0.109888
0.0664798
0.05115
0.0406096
0.0300789
0.0235551
0.0103242
0.00312524
0.00126796
0.00137597
0.00122535
0.000529523
0.000711433
0.00116141
0.00144067
0.00162095
0.00211069
0.00275722
0.00353696
0.00406943
0.159902
0.152174
0.153363
0.106238
0.0615237
0.0413916
0.0326453
0.0264023
0.0212469
0.00940181
0.00274754
0.000681054
0.000325567
0.000196639
3.2399e-05
0.000105046
0.000241647
0.000351377
0.000316806
0.000359345
0.000527659
0.000946886
0.00153166
0.148979
0.144286
0.147376
0.107849
0.0635151
0.041936
0.0298781
0.0230186
0.0203234
0.0104512
0.00306444
0.000615356
0.000157793
5.58458e-05
0
0
2.58759e-06
3.51597e-05
2.95869e-05
2.00912e-05
2.42038e-05
0.000124021
0.000387596
0.136164
0.13579
0.141873
0.113749
0.0759542
0.0533787
0.0359296
0.0233332
0.0203207
0.0139508
0.00553907
0.0012308
0.000260315
0.000106176
2.7146e-05
0
0
0
0
0
0
0
3.26995e-05
0.122288
0.127208
0.136264
0.119038
0.0928411
0.0718306
0.048337
0.0268433
0.0205735
0.0161034
0.00858893
0.00237634
0.000630437
0.00034668
0.000113519
1.99078e-05
0
0
0
0
0
0
0
0.110451
0.119131
0.130651
0.117425
0.09057
0.0634278
0.0388628
0.0228222
0.0177159
0.0153094
0.0116389
0.0056774
0.00206265
0.000786596
0.000216498
4.8319e-05
1.00839e-05
7.26231e-07
0
0
0
0
0
0.101346
0.111114
0.124641
0.114841
0.0855784
0.0467969
0.0234769
0.0137697
0.0102859
0.0112717
0.0105662
0.00701735
0.0027302
0.000995184
0.000313213
8.27201e-05
1.85002e-05
3.70225e-06
6.71098e-07
8.76231e-10
0
0
0
0.0952376
0.105897
0.117588
0.111153
0.0877457
0.0532056
0.0272937
0.0138113
0.00733254
0.00766269
0.00880216
0.00726937
0.00417616
0.00179765
0.000487015
9.41404e-05
1.78862e-05
3.39886e-06
8.26914e-07
2.24e-07
1.08238e-07
1.23814e-07
1.49262e-07
0.0916757
0.102017
0.107089
0.103949
0.0839855
0.0510641
0.0241463
0.0102302
0.00429413
0.00493626
0.00682969
0.00666488
0.0049394
0.00220717
0.000599346
0.000143391
2.8149e-05
5.00735e-06
1.06841e-06
2.68855e-07
8.14051e-08
4.3055e-08
3.75704e-08
0.0896131
0.0985303
0.0934801
0.0902274
0.0692001
0.0346106
0.0130277
0.00429403
0.00183224
0.00259289
0.00484159
0.00554206
0.00446971
0.00230124
0.000734864
0.00015452
1.78424e-05
1.63901e-06
2.51403e-07
6.98971e-08
1.95027e-08
6.83255e-09
2.67135e-09
0.0882919
0.0945118
0.085631
0.0719209
0.0451073
0.0183256
0.00640293
0.00193267
0.00101933
0.00166953
0.0036693
0.00424747
0.00318928
0.00131719
0.000306457
5.58249e-05
7.60853e-06
1.11689e-06
2.00359e-07
2.61046e-08
0
0
0
0.0868135
0.0890494
0.0765221
0.0589486
0.0318292
0.0126435
0.00396226
0.000984377
0.00068378
0.00140282
0.00276368
0.00263012
0.00147352
0.000316454
4.09606e-05
3.18009e-06
4.89231e-07
9.4779e-08
0
0
0
0
0
0.0850849
0.0824061
0.0647652
0.0464331
0.0235237
0.00906771
0.00234882
0.000458401
0.000440202
0.00089326
0.00148972
0.000952414
0.000364066
4.297e-05
7.26154e-06
2.93915e-06
8.15753e-07
1.7913e-08
0
0
0
0
0
0.0829372
0.0745435
0.0519639
0.0348323
0.0185553
0.0070755
0.00161276
0.000268499
0.000265713
0.000413642
0.000527436
0.000250928
8.74726e-05
4.5107e-05
2.13144e-05
5.98069e-06
8.31285e-07
0
0
0
0
0
0
0.0802379
0.0662381
0.0435299
0.0261913
0.0132474
0.00508699
0.00106707
0.000192336
0.000166023
0.000189702
0.00017957
0.000147285
0.000150862
0.000117109
4.5989e-05
1.1798e-05
3.3721e-06
1.22461e-06
2.08774e-07
0
0
0
0
0.0762022
0.0545042
0.0329348
0.0191937
0.00908089
0.0031297
0.00059216
0.000175943
0.000169165
0.000197484
0.000245849
0.000339954
0.000416979
0.000289203
0.000122923
3.64699e-05
1.52068e-05
5.73733e-06
1.31268e-06
9.64651e-08
0
0
0
0.0721164
0.0567908
0.0337339
0.018335
0.00801082
0.00244302
0.000480037
0.000195814
0.00021808
0.000367675
0.000593092
0.000794988
0.000854678
0.000631022
0.000312773
0.000108768
4.42298e-05
1.47296e-05
3.08683e-06
2.49793e-07
0
0
0
0.0674307
0.0530878
0.0311747
0.0160686
0.00634798
0.00182288
0.000461944
0.000251788
0.000269292
0.000495476
0.000892991
0.00121856
0.00134904
0.00114275
0.000658826
0.000257583
9.74482e-05
2.93262e-05
5.7804e-06
5.29042e-07
0
0
0
0.0623955
0.0469716
0.0270551
0.0131574
0.00493096
0.00151267
0.000506792
0.000337327
0.00033598
0.00064976
0.00116855
0.00148472
0.00161785
0.00149028
0.000957286
0.000408745
0.000148311
4.02159e-05
7.12291e-06
5.92851e-07
0
0
0
0.0573664
0.0407105
0.0225687
0.0101715
0.00383734
0.00138363
0.000623066
0.000455136
0.000410828
0.000616386
0.000960632
0.00140003
0.00169553
0.00162403
0.00113707
0.000479585
0.000162271
3.98602e-05
7.05717e-06
8.67299e-07
8.17691e-09
0
0
0.0525021
0.0350591
0.0184663
0.00759766
0.00301766
0.00139713
0.000831787
0.000655045
0.000584159
0.000710656
0.000957884
0.00128555
0.00164569
0.0016278
0.00115299
0.000447983
0.000137057
4.44017e-05
8.97956e-06
1.43198e-06
1.63265e-07
0
0
0.0477936
0.0295479
0.0144416
0.00540708
0.00236515
0.00144428
0.00110924
0.00097401
0.000904131
0.000974809
0.00107102
0.0013229
0.00166012
0.00159379
0.00110331
0.000458631
0.000121154
2.76185e-05
3.62358e-06
2.40082e-07
0
0
0
0.0428507
0.0234459
0.00986523
0.0035492
0.00196273
0.00157384
0.00146291
0.00142413
0.00139148
0.00138956
0.00139859
0.00160742
0.00172625
0.00146257
0.000861968
0.000227345
3.20546e-05
1.31631e-06
0
0
0
0
0
0.0379669
0.0186685
0.00689186
0.00282206
0.00203952
0.00190532
0.00194028
0.00193401
0.00189613
0.00183886
0.00182801
0.00188443
0.00171263
0.00108015
0.000463702
0.00010291
9.21282e-06
0
0
0
0
0
0
0.0336743
0.0154497
0.00545457
0.00283869
0.00236893
0.00236032
0.00224679
0.0021016
0.00201958
0.00197309
0.00190139
0.00179183
0.00139841
0.000779571
0.000276314
5.45307e-05
5.68682e-06
0
0
0
0
0
0
0.0307445
0.0143332
0.00560589
0.003326
0.00280408
0.00240192
0.00207385
0.00184003
0.00171946
0.00167372
0.00144088
0.00112758
0.000575201
0.000213558
5.89386e-05
7.6476e-06
0
0
0
1.20741e-08
0
0
0
0.027871
0.0128237
0.00538681
0.00333478
0.00253526
0.00183887
0.0013117
0.000940967
0.000821573
0.000813835
0.000511937
0.000336912
0.000123056
2.22272e-05
0
0
0
0
1.65256e-08
9.6097e-09
0
0
0
0.0245718
0.0104803
0.0045978
0.00258166
0.00142728
0.000593792
0.000314843
0.000171059
0.000137315
0.000132201
5.36284e-05
2.63677e-05
3.72688e-07
0
0
0
0
2.5948e-08
1.80601e-08
4.96799e-09
0
0
0
0.0168937
0.00523494
0.00188713
0.000672995
0.000234811
4.39552e-05
1.98869e-05
1.04129e-05
8.55839e-06
6.75745e-06
0
0
0
0
0
0
3.90499e-08
2.44114e-08
1.28992e-08
3.82847e-09
0
0
0
0.915624
0.893248
0.795538
0.610438
0.806203
0.790055
0.697319
0.57447
0.706511
0.661659
0.596807
0.539854
0.611942
0.580308
0.534965
0.497487
0.437251
0.428795
0.395749
0.344133
0.242912
0.241729
0.235176
0.221841
0.224396
0.226763
0.229107
0.231801
0.204424
0.203853
0.203045
0.202002
0.149138
0.145471
0.142305
0.139846
0.0861488
0.0840452
0.08248
0.0808133
0.0416594
0.0416294
0.0417975
0.0412993
0.0191221
0.0193129
0.0193681
0.0190713
0.0090984
0.00910766
0.0089859
0.00852005
0.00426076
0.00417678
0.00398386
0.00357038
0.00175922
0.00172363
0.00158133
0.00135221
0.000559121
0.000580825
0.00052867
0.000439962
8.58187e-05
0.000106798
0.00010338
8.72016e-05
0
0
0
6.36923e-07
0
0
0
0
0
0
0
0
1.32364e-07
9.59722e-08
3.68847e-08
0
4.39275e-08
5.21937e-08
6.1342e-08
6.21919e-08
3.66656e-09
5.99989e-09
9.71393e-09
1.24522e-08
0
0
0
0
0
0
0
0
0
2.34681e-10
6.48365e-10
8.47265e-10
1.00648e-10
1.00929e-09
1.70827e-09
1.62105e-09
0
2.03681e-09
3.05901e-09
1.63673e-09
0
2.85574e-09
3.46775e-09
0
0
2.17947e-09
0
0
0
0
0
0
0
0
0
0
0
0
0
0
0
0
0
0
0
0
0
0
0
0
0
0
0
0
0
0
0
0
0
0
0
0
0
0
0
0
0
0
0
0
0
0
0
0
0
0
0.439828
0.4399
0.483971
0.473308
0.425591
0.337623
0.25393
0.239904
0.243083
0.261688
0.302357
0.38609
0.443386
0.51547
0.602251
0.602696
0.500043
0.400162
0.340548
0.467432
0.464471
0.456317
0.40345
0.295165
0.231196
0.212224
0.209435
0.207814
0.218547
0.252137
0.313093
0.383479
0.50052
0.604019
0.544135
0.411719
0.276945
0.222187
0.463512
0.358975
0.273511
0.22541
0.191953
0.180947
0.182746
0.183725
0.188932
0.221184
0.275862
0.315047
0.374227
0.471023
0.521241
0.432542
0.251257
0.15026
0.124806
0.437998
0.250616
0.191572
0.164657
0.152632
0.156082
0.164652
0.164815
0.180873
0.227258
0.331197
0.386499
0.437678
0.404084
0.337116
0.248518
0.101746
0.0588171
0.0548047
0.2517
0.186032
0.174224
0.163226
0.166795
0.18735
0.214037
0.223346
0.273797
0.344892
0.392595
0.356345
0.323184
0.238794
0.156459
0.0936608
0.0367555
0.0235507
0.0209949
0.21094
0.220959
0.226218
0.233447
0.255471
0.282058
0.298485
0.306462
0.308144
0.294958
0.251984
0.168584
0.115489
0.0775959
0.0458681
0.0253136
0.0134036
0.0116967
0.0100967
0.23752
0.243776
0.246349
0.245579
0.233691
0.222216
0.225088
0.205304
0.183841
0.135254
0.101365
0.0653105
0.0390293
0.0234773
0.0133243
0.00866826
0.00627588
0.00624198
0.00657405
0.200011
0.196381
0.189782
0.181463
0.161567
0.134712
0.122317
0.096341
0.0773046
0.0553145
0.0416323
0.0317818
0.0184829
0.0104391
0.00663853
0.00498932
0.0040622
0.00368924
0.00471772
0.137885
0.137796
0.132606
0.122922
0.118451
0.0964102
0.078719
0.0602775
0.0448471
0.0318502
0.022532
0.0165178
0.0111817
0.00759398
0.00536799
0.00396433
0.00322822
0.00282148
0.00348015
0.0781858
0.0752829
0.0826603
0.0748902
0.068675
0.0632628
0.0524052
0.0429602
0.0326773
0.0241936
0.0180618
0.0137299
0.0102011
0.00749566
0.00533063
0.00368978
0.0027624
0.00241906
0.00275748
0.0394353
0.0357957
0.0391832
0.0413317
0.0355542
0.0349773
0.0316782
0.0302619
0.025725
0.0192606
0.0154204
0.0128379
0.0105811
0.00837751
0.00624928
0.00386791
0.00242835
0.0021292
0.00233244
0.018263
0.0172553
0.0159754
0.016693
0.0144964
0.0151351
0.0141444
0.0142208
0.0150554
0.0116909
0.00947124
0.00789935
0.00738125
0.00633628
0.00574714
0.00344136
0.00200157
0.00189041
0.00203456
0.00777934
0.00717059
0.00694345
0.00591318
0.00522198
0.00603439
0.00555191
0.00528276
0.00625033
0.00503554
0.00405541
0.00300711
0.00305476
0.00302508
0.00390179
0.00241108
0.00155363
0.00169824
0.00179572
0.00296579
0.00244493
0.00266247
0.00198289
0.00184275
0.00225898
0.00190835
0.00167257
0.0019587
0.00157538
0.00115057
0.000762442
0.000853864
0.00100852
0.00169779
0.00132797
0.00119441
0.00149238
0.00161069
0.000996493
0.000697816
0.000772413
0.000613524
0.000627857
0.000778999
0.000704118
0.00055931
0.000469321
0.000376131
0.000267601
0.000159785
0.000167646
0.000205335
0.000451863
0.0005438
0.000899168
0.00130828
0.00146528
0.000299862
0.00017054
0.000172798
0.000164859
0.000203687
0.000258585
0.000295748
0.000228114
0.000124663
8.92561e-05
6.49267e-05
4.30658e-05
3.29187e-05
2.06428e-05
7.90173e-05
0.00022792
0.000664792
0.00113213
0.00134109
6.70328e-05
3.13461e-05
2.76129e-05
3.05835e-05
4.9802e-05
8.37056e-05
0.000109984
9.10458e-05
4.82933e-05
3.07122e-05
2.24345e-05
1.80577e-05
1.23427e-05
7.12811e-07
2.40513e-05
0.00016039
0.000548339
0.000974056
0.0012348
3.43806e-06
0
0
0
4.29108e-06
2.24586e-05
2.90692e-05
2.66414e-05
1.5343e-05
9.74115e-06
7.52355e-06
7.0783e-06
5.16259e-06
0
4.69893e-06
8.77162e-05
0.000393729
0.000831622
0.00114385
0
0
0
0
0
2.92987e-06
3.63061e-06
4.68904e-06
2.24701e-06
1.17703e-06
1.22538e-06
1.70359e-06
6.12055e-07
0
1.21521e-06
6.68863e-05
0.000307655
0.000715697
0.00106595
0
0
0
0
0
0
0
0
0
0
0
0
0
0
4.69805e-07
5.42872e-05
0.000250117
0.000624036
0.000999031
0
0
0
0
0
0
0
0
0
0
0
0
0
0
0
4.10679e-05
0.00019978
0.000552347
0.000939371
5.98357e-08
4.22395e-08
1.57327e-08
1.79678e-08
0
0
0
0
0
0
0
0
0
0
0
2.64977e-05
0.000159444
0.000504446
0.000885098
1.67337e-08
1.93798e-08
3.08577e-08
4.0975e-08
3.18606e-08
0
0
0
0
0
0
0
0
0
0
1.83518e-05
0.000136723
0.000472458
0.000831949
1.01094e-09
1.94277e-09
3.76662e-09
3.3375e-09
0
0
0
0
0
0
0
0
0
0
0
1.22337e-05
0.000120058
0.000445789
0.000779416
0
0
0
0
0
0
0
0
0
0
0
0
0
0
0
9.64438e-06
0.000111692
0.00042791
0.000729418
4.43485e-10
0
0
0
0
0
0
0
0
0
0
0
0
0
0
9.09975e-06
0.00010427
0.000388781
0.000672186
0
0
0
0
0
0
0
0
0
0
0
0
0
0
0
8.54848e-06
9.27935e-05
0.000337973
0.000622654
0
0
0
0
0
0
0
0
0
0
0
0
0
0
0
5.13187e-06
7.10618e-05
0.000289936
0.000581409
0
0
0
0
0
0
0
0
0
0
0
0
0
0
0
2.59096e-06
5.61358e-05
0.000259797
0.000546905
0
0
0
0
0
0
0
6.8452e-07
1.7015e-06
1.62563e-06
1.13975e-06
4.43709e-07
0
0
0
3.63965e-06
5.28937e-05
0.000240059
0.000515715
0
0
0
0
0
4.63187e-07
1.76704e-06
4.50696e-06
5.71251e-06
5.3284e-06
4.33937e-06
3.11414e-06
1.89084e-06
3.50495e-07
0
1.32528e-06
4.32891e-05
0.000226919
0.000487249
0
0
0
0
4.39216e-07
2.94659e-06
5.73073e-06
1.15752e-05
1.29743e-05
1.218e-05
1.06587e-05
8.38712e-06
5.97984e-06
3.13202e-06
0
1.51973e-06
4.18817e-05
0.000215347
0.000457629
0
0
0
0
3.54948e-06
9.08992e-06
1.4953e-05
2.37742e-05
2.51942e-05
2.44354e-05
2.12768e-05
1.6584e-05
1.0792e-05
5.07017e-06
0
3.64715e-06
4.55733e-05
0.000198389
0.000428551
0
0
0
1.79872e-06
9.20999e-06
1.9209e-05
3.16494e-05
3.97419e-05
3.99488e-05
3.9456e-05
3.45495e-05
2.64513e-05
1.6847e-05
8.81536e-06
8.16596e-07
4.09615e-06
4.19157e-05
0.000188185
0.000406464
0
0
0
4.45484e-06
1.37424e-05
2.72919e-05
4.69181e-05
5.51964e-05
5.68799e-05
5.6932e-05
5.27435e-05
4.26338e-05
2.83389e-05
1.59451e-05
3.54575e-06
5.02122e-06
3.45956e-05
0.000152146
0.000377831
0
0
6.01292e-07
7.56747e-06
1.97916e-05
3.58398e-05
5.9228e-05
7.03379e-05
7.52472e-05
7.39595e-05
7.04422e-05
6.13663e-05
4.57613e-05
2.94087e-05
9.84547e-06
6.63922e-06
2.85713e-05
0.000142636
0.00036089
0
0
2.31969e-06
1.09915e-05
2.50759e-05
4.26116e-05
6.81156e-05
8.26416e-05
8.41824e-05
7.89542e-05
7.41389e-05
6.91702e-05
5.79223e-05
3.85115e-05
1.817e-05
8.28614e-06
2.22421e-05
0.000115866
0.000334178
0
9.36723e-08
5.7389e-06
1.7265e-05
3.51795e-05
5.62047e-05
7.73046e-05
8.79006e-05
8.30673e-05
7.04372e-05
6.46813e-05
6.24693e-05
5.77148e-05
4.45192e-05
2.84062e-05
1.09712e-05
1.98494e-05
0.000111433
0.000375178
0
8.93925e-07
8.54294e-06
2.25617e-05
4.18198e-05
6.60692e-05
8.33883e-05
8.77498e-05
7.47752e-05
6.01238e-05
5.41305e-05
5.34875e-05
5.52869e-05
4.71715e-05
3.02176e-05
1.12171e-05
2.14309e-05
0.000106886
0.000340413
0
1.67978e-06
1.08887e-05
2.60643e-05
4.49964e-05
7.01164e-05
8.59643e-05
8.4768e-05
6.84078e-05
5.64486e-05
4.84807e-05
4.61242e-05
4.87946e-05
4.46775e-05
3.09124e-05
1.29976e-05
2.78853e-05
0.000110596
0.000314412
0
2.84731e-06
1.38813e-05
2.62147e-05
4.03029e-05
5.99942e-05
8.28866e-05
8.56076e-05
7.20876e-05
5.92964e-05
4.66592e-05
4.09589e-05
4.04141e-05
3.75284e-05
2.64271e-05
1.38635e-05
2.63764e-05
9.74501e-05
0.00027802
0
3.13333e-06
1.54302e-05
2.69028e-05
3.88676e-05
5.41007e-05
7.56714e-05
8.73537e-05
8.03864e-05
6.27699e-05
4.67892e-05
3.841e-05
3.3881e-05
2.93219e-05
1.9745e-05
1.29832e-05
1.939e-05
5.7111e-05
0.000168034
)
;

boundaryField
{
    leftWall
    {
        type            zeroGradient;
    }
    rightWall
    {
        type            zeroGradient;
    }
    lowerWall
    {
        type            zeroGradient;
    }
    atmosphere
    {
        type            inletOutlet;
        inletValue      uniform 0;
        value           nonuniform List<scalar> 
46
(
0.0168937
0.00523494
0.00188713
0.000672995
0.000234811
4.39552e-05
1.98869e-05
1.04129e-05
8.55839e-06
6.75745e-06
0
0
0
0
0
0
3.90499e-08
2.44114e-08
1.28992e-08
3.82847e-09
0
0
0
0
0
0
0
0
3.13333e-06
1.54302e-05
2.69028e-05
3.88676e-05
5.41007e-05
7.56714e-05
8.73537e-05
8.03864e-05
6.27699e-05
4.67892e-05
3.841e-05
3.3881e-05
2.93219e-05
1.9745e-05
1.29832e-05
1.939e-05
5.7111e-05
0.000168034
)
;
    }
    defaultFaces
    {
        type            empty;
    }
}


// ************************************************************************* //
