/*--------------------------------*- C++ -*----------------------------------*\
| =========                 |                                                 |
| \\      /  F ield         | foam-extend: Open Source CFD                    |
|  \\    /   O peration     | Version:     4.1                                |
|   \\  /    A nd           | Web:         http://www.foam-extend.org         |
|    \\/     M anipulation  |                                                 |
\*---------------------------------------------------------------------------*/
FoamFile
{
    version     2.0;
    format      ascii;
    class       volScalarField;
    location    "0.85";
    object      C;
}
// * * * * * * * * * * * * * * * * * * * * * * * * * * * * * * * * * * * * * //

dimensions      [0 0 0 0 0 0 0];

internalField   nonuniform List<scalar> 
2268
(
1.00085
0.99645
0.990675
0.987715
0.988677
0.989235
0.988915
0.988355
0.988343
0.988972
0.990057
0.991419
0.992951
0.994605
0.996741
0.999119
1.00094
1.00258
1.00359
1.00458
1.00502
1.00553
1.0061
0.998061
0.992722
0.985944
0.982846
0.984866
0.986489
0.987022
0.986978
0.987247
0.98793
0.988911
0.990219
0.991846
0.993638
0.996041
0.998697
1.00077
1.0033
1.00435
1.00515
1.00532
1.00595
1.00696
0.99166
0.984199
0.9756
0.972791
0.977102
0.98093
0.983167
0.98413
0.984864
0.985491
0.986087
0.987117
0.98881
0.99039
0.992372
0.994636
0.997102
1.0024
1.00412
1.00513
1.00499
1.00627
1.00856
0.981618
0.97096
0.960156
0.958747
0.966495
0.973351
0.97779
0.979978
0.981093
0.981205
0.980807
0.980967
0.982281
0.981831
0.980119
0.978991
0.982119
0.994186
0.998204
1.00164
1.00184
1.00519
1.01011
0.967723
0.953298
0.940391
0.942129
0.954218
0.964351
0.970945
0.974185
0.975289
0.973852
0.971395
0.969381
0.968686
0.960924
0.94672
0.935337
0.940735
0.967165
0.976601
0.988765
0.991394
0.999851
1.00989
0.949435
0.931522
0.917302
0.924301
0.940947
0.953714
0.961683
0.965284
0.965728
0.961019
0.954859
0.948119
0.9409
0.913876
0.869191
0.835616
0.847832
0.901034
0.922337
0.956021
0.965704
0.984491
1.00468
0.925885
0.905739
0.891836
0.905918
0.926059
0.939568
0.947227
0.95005
0.948824
0.938504
0.926033
0.909654
0.885855
0.818438
0.714701
0.643594
0.670815
0.7693
0.809397
0.886382
0.9127
0.948799
0.988048
0.895665
0.87504
0.863989
0.885269
0.905996
0.917131
0.922161
0.922901
0.91845
0.899338
0.87615
0.840474
0.781276
0.64728
0.464593
0.354922
0.403265
0.552842
0.614541
0.759081
0.816061
0.876425
0.947666
-0.175726
-0.213605
-0.215078
-0.208397
-0.205048
-0.202499
-0.197123
-0.184737
-0.166506
-0.12801
-0.0958719
-0.0746673
-0.0677807
-0.0670909
-0.0554521
-0.00722523
0.0677353
0.0849706
0.100228
-0.174528
-0.221446
-0.235068
-0.243361
-0.253631
-0.264379
-0.273827
-0.273891
-0.252923
-0.205145
-0.157461
-0.0954644
-0.0443787
-0.0321093
-0.0429142
-0.0722717
0.019613
0.0617351
0.100698
-0.171828
-0.22909
-0.251479
-0.268032
-0.289029
-0.303435
-0.32928
-0.352683
-0.311029
-0.250168
-0.206105
-0.141714
-0.0250839
0.0299918
0.0187223
-0.141086
-0.0698985
0.0100159
0.0902592
-0.16721
-0.226381
-0.241438
-0.254188
-0.284741
-0.295488
-0.313081
-0.36507
-0.297455
-0.19967
-0.16072
-0.14247
-0.0163517
0.079691
0.117038
-0.152493
-0.149669
-0.0530233
0.0631925
-0.161427
-0.218424
-0.209706
-0.207118
-0.260504
-0.292327
-0.28376
-0.318445
-0.247405
-0.128287
-0.0532755
-0.0584727
0.0113676
0.0990159
0.188505
-0.0806931
-0.16904
-0.102205
0.0212831
-0.153351
-0.206441
-0.162691
-0.154339
-0.232023
-0.328748
-0.300153
-0.268265
-0.221993
-0.115256
-0.00193769
0.0253989
0.0491866
0.104139
0.222757
0.0448719
-0.119681
-0.120245
-0.0321996
-0.143602
-0.193265
-0.112698
-0.112159
-0.204403
-0.366627
-0.372613
-0.291573
-0.276198
-0.197801
-0.047128
0.0469405
0.0620185
0.0982808
0.228339
0.146991
-0.0409701
-0.120093
-0.0960165
-0.139278
-0.174826
-0.0748668
-0.0840502
-0.181767
-0.371493
-0.443054
-0.390774
-0.386975
-0.324914
-0.182418
-0.0312776
0.0172387
0.0767
0.214864
0.200606
0.0127655
-0.130195
-0.173804
0.836007
0.816771
0.813255
0.844559
0.859776
0.8601
0.855974
0.850302
0.837603
0.797672
0.74661
0.655151
0.50393
0.257392
0.0198642
-0.0722996
-0.0196425
0.116585
0.222969
0.452081
0.580791
0.686008
0.824405
0.724406
0.708897
0.713366
0.741379
0.728805
0.678394
0.640065
0.61548
0.580036
0.495916
0.377417
0.132949
-0.126988
-0.227571
-0.239013
-0.201274
-0.16145
-0.138625
-0.117237
-0.040822
0.118979
0.274461
0.511309
0.565365
0.550719
0.529628
0.450573
0.299434
0.135356
0.0340153
0.00379883
-0.0751199
-0.140068
-0.23091
-0.309027
-0.368496
-0.269978
-0.141692
-0.0799358
-0.0403212
0.00856381
0.0493766
0.103704
0.252357
0.398633
0.458957
0.353319
0.310823
0.174474
-0.134573
-0.444853
-0.574772
-0.60566
-0.544049
-0.563051
-0.530126
-0.513363
-0.447185
-0.345392
-0.178408
-0.111525
-0.093564
-0.0511209
0.0906255
0.178162
0.227417
0.271389
0.293002
0.28926
0.112145
-0.00919526
-0.279819
-0.530129
-0.679463
-0.747542
-0.755646
-0.70678
-0.681417
-0.632083
-0.580073
-0.514983
-0.437991
-0.417168
-0.448603
-0.458966
-0.447769
-0.38733
-0.307394
-0.264227
-0.212191
-0.151111
-0.13011
-0.0928503
-0.318177
-0.568011
-0.678671
-0.708962
-0.686602
-0.664346
-0.639587
-0.601483
-0.548609
-0.514268
-0.497924
-0.496784
-0.548399
-0.594871
-0.603204
-0.603492
-0.600168
-0.589157
-0.577222
-0.555016
-0.533996
-0.519853
-0.296455
-0.565575
-0.633506
-0.582689
-0.562179
-0.543532
-0.534714
-0.530754
-0.524236
-0.527515
-0.533852
-0.554041
-0.601848
-0.631078
-0.639434
-0.630565
-0.615719
-0.605769
-0.597163
-0.587977
-0.578407
-0.57026
-0.559484
-0.458322
-0.602519
-0.561732
-0.533596
-0.532549
-0.537742
-0.546551
-0.55543
-0.567028
-0.584378
-0.620094
-0.644217
-0.663002
-0.665735
-0.65968
-0.639656
-0.624105
-0.609509
-0.602014
-0.598282
-0.593381
-0.591764
-0.591393
-0.540685
-0.608258
-0.563469
-0.55038
-0.579876
-0.602599
-0.626383
-0.645652
-0.664655
-0.680542
-0.692655
-0.69785
-0.701385
-0.692546
-0.687277
-0.684004
-0.686939
-0.682424
-0.69107
-0.697837
-0.698938
-0.681973
-0.685212
-0.580401
-0.613554
-0.581141
-0.618485
-0.679074
-0.70883
-0.735446
-0.750853
-0.761995
-0.766538
-0.763415
-0.763968
-0.7663
-0.763264
-0.775095
-0.793526
-0.807185
-0.812386
-0.820619
-0.825653
-0.827626
-0.810781
-0.812846
-0.603052
-0.631832
-0.599906
-0.660862
-0.756637
-0.796514
-0.823159
-0.842023
-0.85456
-0.869554
-0.875501
-0.879624
-0.881183
-0.876636
-0.895241
-0.911826
-0.919795
-0.921783
-0.921624
-0.919538
-0.917291
-0.910364
-0.914256
-0.621955
-0.647443
-0.631
-0.717695
-0.795223
-0.83578
-0.873918
-0.905501
-0.917841
-0.938552
-0.958754
-0.96379
-0.957311
-0.951594
-0.965548
-0.97471
-0.976297
-0.973914
-0.970816
-0.966717
-0.963945
-0.961271
-0.962478
-0.642006
-0.664735
-0.665149
-0.761489
-0.834271
-0.870729
-0.90403
-0.929333
-0.943109
-0.968224
-0.986791
-0.990748
-0.987675
-0.98657
-0.992794
-0.995282
-0.994605
-0.992337
-0.990105
-0.987415
-0.985131
-0.983042
-0.982533
-0.660679
-0.680409
-0.679988
-0.780225
-0.86704
-0.8977
-0.918781
-0.939842
-0.95289
-0.979352
-0.99375
-0.997464
-0.997248
-0.997549
-0.998941
-0.998577
-0.997677
-0.997119
-0.996758
-0.995779
-0.994486
-0.992926
-0.991861
-0.680196
-0.695653
-0.693274
-0.787524
-0.876953
-0.917217
-0.934709
-0.947195
-0.957506
-0.981196
-0.994505
-0.998638
-0.999349
-0.999607
-0.999935
-0.99979
-0.999517
-0.999297
-0.999366
-0.999281
-0.998945
-0.998106
-0.996937
-0.702043
-0.711429
-0.705248
-0.784301
-0.87297
-0.916128
-0.940244
-0.953963
-0.959353
-0.979098
-0.993871
-0.998769
-0.999684
-0.999888
-1.00001
-1.00003
-0.999995
-0.99993
-0.999941
-0.99996
-0.999952
-0.999752
-0.999225
-0.727671
-0.728419
-0.716255
-0.772502
-0.848092
-0.893243
-0.928141
-0.953334
-0.959359
-0.972098
-0.988922
-0.997538
-0.999479
-0.999788
-0.999946
-1.00002
-1.00004
-1.00003
-1.00002
-1.00003
-1.00004
-1.00003
-0.999935
-0.755423
-0.745583
-0.727473
-0.761925
-0.814318
-0.856339
-0.903326
-0.946313
-0.958853
-0.967793
-0.982822
-0.995247
-0.998739
-0.999307
-0.999773
-0.99996
-1.00001
-1.00001
-1.00001
-1.00001
-1.00002
-1.00002
-1.00003
-0.779098
-0.761737
-0.738698
-0.76515
-0.81886
-0.873144
-0.922274
-0.954356
-0.964568
-0.969381
-0.976722
-0.988645
-0.995875
-0.998427
-0.999567
-0.999903
-0.99998
-0.999999
-1
-1
-1
-1
-1.00001
-0.797308
-0.777773
-0.750718
-0.770318
-0.828843
-0.906406
-0.953046
-0.972461
-0.979428
-0.977457
-0.978868
-0.985965
-0.99454
-0.99801
-0.999374
-0.999835
-0.999963
-0.999993
-0.999999
-1
-1
-1
-1
-0.809525
-0.788206
-0.764825
-0.777693
-0.824509
-0.893589
-0.945413
-0.972377
-0.985335
-0.984675
-0.982396
-0.985461
-0.991648
-0.996405
-0.999026
-0.999812
-0.999964
-0.999993
-0.999998
-1
-1
-1
-1
-0.816649
-0.795965
-0.785821
-0.792102
-0.832029
-0.897872
-0.951707
-0.97954
-0.991412
-0.990127
-0.986341
-0.98667
-0.990121
-0.995586
-0.998801
-0.999713
-0.999944
-0.99999
-0.999998
-0.999999
-1
-1
-1
-0.820774
-0.802939
-0.81304
-0.819545
-0.8616
-0.930779
-0.973945
-0.991412
-0.996336
-0.994814
-0.990317
-0.988916
-0.991061
-0.995398
-0.99853
-0.999691
-0.999964
-0.999997
-0.999999
-1
-1
-1
-1
-0.823416
-0.810976
-0.828738
-0.856158
-0.909785
-0.963349
-0.987194
-0.996135
-0.997961
-0.996661
-0.992661
-0.991505
-0.993621
-0.997366
-0.999387
-0.999888
-0.999985
-0.999998
-1
-1
-1
-1
-1
-0.826373
-0.821901
-0.846956
-0.882103
-0.936342
-0.974713
-0.992075
-0.998031
-0.998632
-0.997194
-0.994473
-0.99474
-0.997053
-0.999367
-0.999918
-0.999994
-0.999999
-1
-1
-1
-1
-1
-1
-0.82983
-0.835188
-0.87047
-0.907134
-0.952953
-0.981865
-0.995302
-0.999083
-0.99912
-0.998213
-0.997021
-0.998095
-0.999272
-0.999914
-0.999985
-0.999994
-0.999998
-1
-1
-1
-1
-1
-1
-0.834126
-0.850913
-0.896072
-0.930335
-0.962889
-0.985849
-0.996774
-0.999463
-0.999469
-0.999173
-0.998945
-0.999498
-0.999825
-0.99991
-0.999957
-0.999988
-0.999998
-1
-1
-1
-1
-1
-1
-0.839524
-0.867524
-0.91294
-0.947617
-0.973505
-0.989826
-0.997866
-0.999615
-0.999668
-0.999621
-0.999641
-0.999705
-0.999698
-0.999766
-0.999908
-0.999976
-0.999993
-0.999998
-1
-1
-1
-1
-1
-0.847596
-0.890992
-0.93413
-0.961613
-0.981838
-0.993741
-0.998816
-0.999648
-0.999662
-0.999605
-0.999508
-0.99932
-0.999166
-0.999422
-0.999754
-0.999927
-0.99997
-0.999989
-0.999997
-1
-1
-1
-1
-0.855767
-0.886418
-0.932532
-0.96333
-0.983978
-0.995114
-0.99904
-0.999608
-0.999564
-0.999265
-0.998814
-0.99841
-0.998291
-0.998738
-0.999374
-0.999782
-0.999912
-0.999971
-0.999994
-1
-1
-1
-1
-0.865139
-0.893824
-0.937651
-0.967863
-0.987304
-0.996354
-0.999076
-0.999496
-0.999461
-0.999009
-0.998214
-0.997563
-0.997302
-0.997715
-0.998682
-0.999485
-0.999805
-0.999941
-0.999988
-0.999999
-1
-1
-1
-0.875209
-0.906057
-0.94589
-0.973685
-0.990138
-0.996975
-0.998986
-0.999325
-0.999328
-0.9987
-0.997663
-0.997031
-0.996764
-0.997019
-0.998085
-0.999183
-0.999703
-0.99992
-0.999986
-0.999999
-1
-1
-1
-0.885267
-0.918579
-0.954863
-0.979657
-0.992325
-0.997233
-0.998754
-0.99909
-0.999178
-0.998767
-0.998079
-0.9972
-0.996609
-0.996752
-0.997726
-0.999041
-0.999675
-0.99992
-0.999986
-0.999998
-1
-1
-1
-0.894996
-0.929882
-0.963067
-0.984805
-0.993965
-0.997206
-0.998336
-0.99869
-0.998832
-0.998579
-0.998084
-0.997429
-0.996709
-0.996744
-0.997694
-0.999104
-0.999726
-0.999911
-0.999982
-0.999997
-1
-1
-1
-0.904413
-0.940904
-0.971117
-0.989186
-0.99527
-0.997111
-0.997782
-0.998052
-0.998192
-0.99805
-0.997858
-0.997354
-0.99668
-0.996812
-0.997793
-0.999083
-0.999758
-0.999945
-0.999993
-1
-1
-1
-1
-0.914299
-0.953108
-0.98027
-0.992902
-0.996075
-0.996852
-0.997074
-0.997152
-0.997217
-0.997221
-0.997203
-0.996785
-0.996548
-0.997075
-0.998276
-0.999545
-0.999936
-0.999997
-1
-1
-1
-1
-1
-0.924066
-0.962663
-0.986216
-0.994356
-0.995921
-0.996189
-0.996119
-0.996132
-0.996208
-0.996322
-0.996344
-0.996231
-0.996575
-0.99784
-0.999073
-0.999794
-0.999982
-1
-1
-1
-1
-1
-1
-0.932651
-0.969101
-0.989091
-0.994323
-0.995262
-0.995279
-0.995506
-0.995797
-0.995961
-0.996054
-0.996197
-0.996416
-0.997203
-0.998441
-0.999447
-0.999891
-0.999989
-1
-1
-1
-1
-1
-1
-0.938511
-0.971334
-0.988788
-0.993348
-0.994392
-0.995196
-0.995852
-0.99632
-0.996561
-0.996653
-0.997118
-0.997745
-0.99885
-0.999573
-0.999882
-0.999985
-1
-1
-1
-1
-1
-1
-1
-0.944258
-0.974353
-0.989226
-0.99333
-0.994929
-0.996322
-0.997377
-0.998118
-0.998357
-0.998372
-0.998976
-0.999326
-0.999754
-0.999956
-1
-1
-1
-1
-1
-1
-1
-1
-1
-0.950856
-0.979039
-0.990804
-0.994837
-0.997145
-0.998812
-0.99937
-0.999658
-0.999725
-0.999736
-0.999893
-0.999947
-0.999999
-1.00001
-1.00001
-1
-1
-1
-1
-1
-1
-1
-1
-0.966213
-0.98953
-0.996226
-0.998654
-0.99953
-0.999912
-0.99996
-0.999979
-0.999983
-0.999986
-1.00001
-1.00002
-1.00001
-1.00001
-1
-1
-1
-1
-1
-1
-1
-1
-1
0.831248
0.786497
0.591076
0.220877
0.612406
0.58011
0.394638
0.14894
0.413022
0.323317
0.193613
0.0797074
0.223883
0.160616
0.0699299
-0.00502679
-0.125498
-0.14241
-0.208502
-0.311734
-0.514176
-0.516543
-0.529647
-0.556317
-0.551209
-0.546473
-0.541787
-0.536398
-0.591153
-0.592294
-0.593911
-0.595997
-0.701723
-0.709057
-0.715391
-0.720308
-0.827702
-0.83191
-0.83504
-0.838373
-0.916681
-0.916741
-0.916405
-0.917401
-0.961756
-0.961374
-0.961264
-0.961857
-0.981803
-0.981785
-0.982028
-0.98296
-0.991478
-0.991646
-0.992032
-0.992859
-0.996482
-0.996553
-0.996837
-0.997296
-0.998882
-0.998838
-0.998943
-0.99912
-0.999828
-0.999786
-0.999793
-0.999826
-1.00002
-1.00001
-1
-0.999999
-1.00001
-1.00001
-1.00001
-1.00001
-1
-1
-1
-1
-1
-1
-1
-1
-1
-1
-1
-1
-1
-1
-1
-1
-1
-1
-1
-1
-1
-1
-1
-1
-1
-1
-1
-1
-1
-1
-1
-1
-1
-1
-1
-1
-1
-1
-1
-1
-1
-1
-1
-1
-1
-1
-1
-1
-1
-1
-1
-1
-1
-1
-1
-1
-1
-1
-1
-1
-1
-1
-1
-1
-1
-1
-1
-1
-1
-1
-1
-1
-1
-1
-1
-1
-1
-1
-1
-1
-1
-1
-1.00001
-1.00001
-1
-1
-1.00001
-1.00001
-1
-1
-1.00001
-1.00001
-0.120343
-0.120201
-0.0320582
-0.0533837
-0.148818
-0.324755
-0.492141
-0.520192
-0.513834
-0.476625
-0.395286
-0.22782
-0.113227
0.0309391
0.204502
0.205393
8.55291e-05
-0.199675
-0.318903
-0.0651357
-0.0710579
-0.087366
-0.1931
-0.40967
-0.537608
-0.575552
-0.58113
-0.584373
-0.562906
-0.495726
-0.373814
-0.233042
0.00104009
0.208038
0.088269
-0.176562
-0.446109
-0.555627
-0.0729762
-0.28205
-0.452978
-0.549181
-0.616093
-0.638105
-0.634509
-0.632551
-0.622136
-0.557632
-0.448276
-0.369905
-0.251546
-0.0579536
0.0424812
-0.134916
-0.497485
-0.699479
-0.750387
-0.124005
-0.498768
-0.616856
-0.670686
-0.694736
-0.687835
-0.670696
-0.670369
-0.638254
-0.545484
-0.337606
-0.227002
-0.124644
-0.191831
-0.325767
-0.502963
-0.796507
-0.882366
-0.890391
-0.496601
-0.627937
-0.651552
-0.673548
-0.66641
-0.625299
-0.571925
-0.553307
-0.452406
-0.310216
-0.21481
-0.287309
-0.353632
-0.522411
-0.687081
-0.812678
-0.926489
-0.952899
-0.95801
-0.57812
-0.558082
-0.547565
-0.533105
-0.489059
-0.435884
-0.40303
-0.387076
-0.383711
-0.410084
-0.496033
-0.662833
-0.769022
-0.844808
-0.908264
-0.949373
-0.973193
-0.976607
-0.979807
-0.524959
-0.512447
-0.507303
-0.508841
-0.532619
-0.555568
-0.549823
-0.589393
-0.632318
-0.729492
-0.797269
-0.869379
-0.921941
-0.953045
-0.973351
-0.982663
-0.987448
-0.987516
-0.986852
-0.599979
-0.607237
-0.620435
-0.637073
-0.676865
-0.730577
-0.755365
-0.807318
-0.845391
-0.889371
-0.916735
-0.936436
-0.963034
-0.979122
-0.986723
-0.990021
-0.991876
-0.992622
-0.990565
-0.72423
-0.724409
-0.734788
-0.754157
-0.763098
-0.80718
-0.842562
-0.879445
-0.910306
-0.9363
-0.954936
-0.966964
-0.977637
-0.984812
-0.989264
-0.992071
-0.993544
-0.994357
-0.99304
-0.843628
-0.849434
-0.834679
-0.85022
-0.86265
-0.873474
-0.89519
-0.91408
-0.934645
-0.951613
-0.963876
-0.97254
-0.979598
-0.985009
-0.989339
-0.99262
-0.994475
-0.995162
-0.994485
-0.921129
-0.928409
-0.921634
-0.917337
-0.928892
-0.930045
-0.936644
-0.939476
-0.94855
-0.961479
-0.969159
-0.974324
-0.978838
-0.983245
-0.987501
-0.992264
-0.995143
-0.995742
-0.995335
-0.963474
-0.965489
-0.968049
-0.966614
-0.971007
-0.96973
-0.971711
-0.971558
-0.969889
-0.976618
-0.981058
-0.984201
-0.985238
-0.987327
-0.988506
-0.993117
-0.995997
-0.996219
-0.995931
-0.984441
-0.985659
-0.986113
-0.988174
-0.989556
-0.987931
-0.988896
-0.989434
-0.987499
-0.989929
-0.991889
-0.993986
-0.99389
-0.99395
-0.992196
-0.995178
-0.996893
-0.996604
-0.996409
-0.994068
-0.99511
-0.994675
-0.996034
-0.996314
-0.995482
-0.996183
-0.996655
-0.996083
-0.996849
-0.997699
-0.998475
-0.998292
-0.997983
-0.996604
-0.997344
-0.997611
-0.997015
-0.996779
-0.998007
-0.998604
-0.998455
-0.998773
-0.998744
-0.998442
-0.998592
-0.998881
-0.999061
-0.999248
-0.999465
-0.99968
-0.999665
-0.999589
-0.999096
-0.998912
-0.998202
-0.997383
-0.997069
-0.9994
-0.999659
-0.999654
-0.99967
-0.999593
-0.999483
-0.999409
-0.999544
-0.999751
-0.999821
-0.99987
-0.999914
-0.999934
-0.999959
-0.999842
-0.999544
-0.99867
-0.997736
-0.997318
-0.999866
-0.999937
-0.999945
-0.999939
-0.9999
-0.999833
-0.99978
-0.999818
-0.999903
-0.999939
-0.999955
-0.999964
-0.999975
-0.999999
-0.999952
-0.999679
-0.998903
-0.998052
-0.99753
-0.999993
-1
-1
-1
-0.999991
-0.999955
-0.999942
-0.999947
-0.999969
-0.999981
-0.999985
-0.999986
-0.99999
-1.00001
-0.999991
-0.999825
-0.999213
-0.998337
-0.997712
-1.00001
-1.00001
-1.00001
-1.00001
-1.00001
-0.999994
-0.999993
-0.999991
-0.999996
-0.999998
-0.999998
-0.999997
-0.999999
-1.00001
-0.999998
-0.999866
-0.999385
-0.998569
-0.997868
-1
-1
-1
-1
-1
-1
-1
-1
-1
-1
-1
-1
-1
-1.00001
-0.999999
-0.999891
-0.9995
-0.998752
-0.998002
-1
-1
-1
-1
-1
-1
-1
-1
-1
-1
-1
-1
-1
-1.00001
-1
-0.999918
-0.9996
-0.998895
-0.998121
-1
-1
-1
-1
-1
-1
-1
-1
-1
-1
-1
-1
-1
-1.00001
-1
-0.999947
-0.999681
-0.998991
-0.99823
-1
-1
-1
-1
-1
-1
-1
-1
-1
-1
-1
-1
-1
-1
-1
-0.999963
-0.999727
-0.999055
-0.998336
-1
-1
-1
-1
-1
-1
-1
-1
-1
-1
-1
-1
-1
-1
-1.00001
-0.999976
-0.99976
-0.999108
-0.998441
-1
-1
-1
-1
-1
-1
-1
-1
-1
-1
-1
-1
-1
-1
-1.00001
-0.999981
-0.999777
-0.999144
-0.998541
-1
-1
-1
-1
-1
-1
-1
-1
-1
-1
-1
-1
-1
-1
-1.00001
-0.999982
-0.999791
-0.999222
-0.998656
-1
-1
-1
-1
-1
-1
-1
-1
-1
-1
-1
-1
-1
-1
-1.00001
-0.999983
-0.999814
-0.999324
-0.998755
-1
-1
-1
-1
-1
-1
-1
-1
-1
-1
-1
-1
-1
-1
-1.00001
-0.99999
-0.999858
-0.99942
-0.998837
-1
-1
-1
-1
-1
-1
-1
-1
-1
-1
-1
-1
-1
-1
-1
-0.999995
-0.999888
-0.99948
-0.998906
-1
-1
-1
-1
-1
-1
-1
-0.999999
-0.999997
-0.999997
-0.999998
-0.999999
-1
-1
-1
-0.999993
-0.999894
-0.99952
-0.998969
-1
-1
-1
-1
-1
-0.999999
-0.999996
-0.999991
-0.999989
-0.999989
-0.999991
-0.999994
-0.999996
-0.999999
-1
-0.999997
-0.999913
-0.999546
-0.999026
-1
-1
-1
-1
-0.999999
-0.999994
-0.999989
-0.999977
-0.999974
-0.999976
-0.999979
-0.999983
-0.999988
-0.999994
-1
-0.999997
-0.999916
-0.999569
-0.999085
-1
-1
-1
-1
-0.999993
-0.999982
-0.99997
-0.999952
-0.99995
-0.999951
-0.999957
-0.999967
-0.999978
-0.99999
-1
-0.999993
-0.999909
-0.999603
-0.999143
-1
-1
-1
-0.999996
-0.999982
-0.999962
-0.999937
-0.999921
-0.99992
-0.999921
-0.999931
-0.999947
-0.999966
-0.999982
-0.999998
-0.999992
-0.999916
-0.999624
-0.999187
-1
-1
-1
-0.999991
-0.999973
-0.999945
-0.999906
-0.99989
-0.999886
-0.999886
-0.999895
-0.999915
-0.999943
-0.999968
-0.999993
-0.99999
-0.999931
-0.999696
-0.999244
-1
-1
-0.999999
-0.999985
-0.99996
-0.999928
-0.999882
-0.999859
-0.99985
-0.999852
-0.999859
-0.999877
-0.999908
-0.999941
-0.99998
-0.999987
-0.999943
-0.999715
-0.999278
-1
-1
-0.999995
-0.999978
-0.99995
-0.999915
-0.999864
-0.999835
-0.999832
-0.999842
-0.999852
-0.999862
-0.999884
-0.999923
-0.999964
-0.999983
-0.999956
-0.999768
-0.999332
-1
-1
-0.999989
-0.999965
-0.99993
-0.999888
-0.999845
-0.999824
-0.999834
-0.999859
-0.999871
-0.999875
-0.999885
-0.999911
-0.999943
-0.999978
-0.99996
-0.999777
-0.99925
-1
-0.999998
-0.999983
-0.999955
-0.999916
-0.999868
-0.999833
-0.999825
-0.99985
-0.99988
-0.999892
-0.999893
-0.999889
-0.999906
-0.99994
-0.999978
-0.999957
-0.999786
-0.999319
-1
-0.999997
-0.999978
-0.999948
-0.99991
-0.99986
-0.999828
-0.99983
-0.999863
-0.999887
-0.999903
-0.999908
-0.999902
-0.999911
-0.999938
-0.999974
-0.999944
-0.999779
-0.999371
-1
-0.999994
-0.999972
-0.999948
-0.999919
-0.99988
-0.999834
-0.999829
-0.999856
-0.999881
-0.999907
-0.999918
-0.999919
-0.999925
-0.999947
-0.999972
-0.999947
-0.999805
-0.999444
-1
-0.999994
-0.999969
-0.999946
-0.999922
-0.999892
-0.999849
-0.999825
-0.999839
-0.999874
-0.999906
-0.999923
-0.999932
-0.999941
-0.999961
-0.999974
-0.999961
-0.999886
-0.999664
)
;

boundaryField
{
    leftWall
    {
        type            zeroGradient;
    }
    rightWall
    {
        type            zeroGradient;
    }
    lowerWall
    {
        type            zeroGradient;
    }
    atmosphere
    {
        type            zeroGradient;
    }
    defaultFaces
    {
        type            empty;
    }
}


// ************************************************************************* //
