/*--------------------------------*- C++ -*----------------------------------*\
| =========                 |                                                 |
| \\      /  F ield         | foam-extend: Open Source CFD                    |
|  \\    /   O peration     | Version:     4.1                                |
|   \\  /    A nd           | Web:         http://www.foam-extend.org         |
|    \\/     M anipulation  |                                                 |
\*---------------------------------------------------------------------------*/
FoamFile
{
    version     2.0;
    format      ascii;
    class       volScalarField;
    location    "0.85";
    object      C_0;
}
// * * * * * * * * * * * * * * * * * * * * * * * * * * * * * * * * * * * * * //

dimensions      [0 0 0 0 0 0 0];

internalField   nonuniform List<scalar> 
2268
(
1.00091
0.996526
0.990765
0.987803
0.988755
0.989292
0.988951
0.988376
0.988356
0.988983
0.990071
0.991436
0.992965
0.994609
0.996726
0.999085
1.0009
1.00253
1.00355
1.00455
1.005
1.00552
1.00607
0.998117
0.992794
0.986026
0.982918
0.984931
0.986534
0.98705
0.986994
0.987258
0.987943
0.98893
0.990241
0.991859
0.993637
0.996027
0.998676
1.00075
1.00326
1.00431
1.00512
1.0053
1.00594
1.00695
0.991715
0.984258
0.975658
0.972829
0.977139
0.980954
0.98318
0.984138
0.984873
0.985512
0.986121
0.987152
0.988824
0.990398
0.992405
0.994702
0.997176
1.00244
1.00411
1.00512
1.00498
1.00627
1.00856
0.981668
0.970992
0.960173
0.958738
0.966496
0.973349
0.977788
0.97998
0.981105
0.981244
0.980867
0.981025
0.982315
0.98192
0.980343
0.979318
0.982428
0.994411
0.99828
1.00165
1.00183
1.00518
1.01012
0.967762
0.95329
0.940347
0.942068
0.954183
0.964328
0.970936
0.974192
0.975318
0.973925
0.9715
0.96949
0.968812
0.961284
0.947453
0.936247
0.941496
0.967733
0.976835
0.988805
0.991364
0.999807
1.00989
0.949448
0.931457
0.917179
0.924192
0.940888
0.953683
0.961681
0.965311
0.965799
0.961152
0.955046
0.94835
0.941309
0.914899
0.870972
0.837577
0.849297
0.902115
0.922798
0.956085
0.965613
0.984357
1.00465
0.925844
0.905599
0.891618
0.905775
0.92599
0.93954
0.947247
0.950114
0.948969
0.938736
0.926378
0.910185
0.886954
0.820764
0.718137
0.647014
0.673137
0.770947
0.81009
0.886429
0.91247
0.948481
0.987925
0.895518
0.874787
0.863665
0.885095
0.905918
0.917096
0.922195
0.923014
0.918714
0.899743
0.876811
0.841694
0.783757
0.651616
0.469567
0.359239
0.405996
0.554808
0.61541
0.759019
0.815569
0.875801
0.947415
-0.173847
-0.213297
-0.215156
-0.20813
-0.204241
-0.201423
-0.196209
-0.184475
-0.167539
-0.129531
-0.0967334
-0.0756896
-0.0688595
-0.0680046
-0.0562036
-0.00720841
0.0672536
0.084372
0.0997811
-0.172581
-0.22096
-0.234809
-0.243143
-0.253035
-0.263614
-0.273543
-0.273992
-0.25559
-0.209052
-0.159708
-0.0968448
-0.0457015
-0.0333593
-0.0445525
-0.0729436
0.0191515
0.0613519
0.10068
-0.169654
-0.227842
-0.25055
-0.267532
-0.288683
-0.30323
-0.329997
-0.353804
-0.315619
-0.255524
-0.211353
-0.145174
-0.0268695
0.0288403
0.0168122
-0.14252
-0.0704012
0.00987689
0.091019
-0.164899
-0.224785
-0.240014
-0.253115
-0.283825
-0.294366
-0.313187
-0.366974
-0.302391
-0.205183
-0.167667
-0.148111
-0.0188374
0.0790241
0.11611
-0.154849
-0.150284
-0.0530488
0.0648455
-0.159068
-0.216439
-0.207784
-0.205599
-0.258792
-0.290088
-0.281987
-0.319795
-0.249106
-0.128718
-0.0563012
-0.0635769
0.00875216
0.0987748
0.18858
-0.0831081
-0.169876
-0.102302
0.0237697
-0.151
-0.203943
-0.160254
-0.152982
-0.230274
-0.327015
-0.297099
-0.266915
-0.219715
-0.110281
0.000670114
0.0243539
0.0483072
0.104123
0.223339
0.0432363
-0.120846
-0.120518
-0.0291353
-0.14134
-0.190305
-0.109768
-0.111699
-0.204187
-0.367612
-0.370437
-0.287554
-0.270044
-0.188289
-0.0379728
0.0504802
0.0636201
0.0992345
0.2292
0.146286
-0.0427067
-0.120469
-0.092807
-0.13693
-0.171381
-0.0717797
-0.0845672
-0.183626
-0.374969
-0.443124
-0.387681
-0.381722
-0.31577
-0.171308
-0.0225852
0.022434
0.0792783
0.21598
0.200435
0.0104583
-0.130521
-0.17073
0.835575
0.816239
0.812716
0.844325
0.859668
0.859999
0.85598
0.850483
0.838119
0.798524
0.748222
0.658493
0.509628
0.264049
0.0240925
-0.0699425
-0.0180904
0.118118
0.223755
0.451613
0.57963
0.684743
0.824025
0.723271
0.707721
0.71241
0.740972
0.728622
0.677864
0.639672
0.615462
0.580826
0.497712
0.381576
0.141009
-0.120892
-0.226789
-0.240232
-0.203322
-0.163072
-0.138855
-0.117478
-0.041567
0.116931
0.272655
0.511548
0.563065
0.548749
0.52833
0.449654
0.298604
0.133599
0.0323763
0.0025787
-0.0754585
-0.139726
-0.229266
-0.307679
-0.369389
-0.274815
-0.145159
-0.0815469
-0.0418958
0.00628329
0.0476072
0.102745
0.25133
0.398787
0.458894
0.34985
0.308314
0.172638
-0.138408
-0.44844
-0.576873
-0.606899
-0.545629
-0.564607
-0.531664
-0.51467
-0.449913
-0.351381
-0.181229
-0.11083
-0.0916351
-0.0507492
0.0891399
0.176588
0.226292
0.270461
0.292038
0.288242
0.108492
-0.0109707
-0.281457
-0.53254
-0.682371
-0.748473
-0.755461
-0.707047
-0.681695
-0.632822
-0.581283
-0.517549
-0.439598
-0.416513
-0.446129
-0.456633
-0.446777
-0.388096
-0.309042
-0.266233
-0.214528
-0.155265
-0.135625
-0.0953239
-0.317993
-0.569842
-0.680772
-0.709637
-0.685178
-0.662309
-0.638219
-0.600817
-0.548772
-0.514645
-0.497715
-0.495978
-0.545665
-0.593468
-0.602775
-0.603476
-0.600755
-0.590149
-0.578552
-0.556754
-0.536254
-0.522674
-0.297452
-0.565734
-0.634348
-0.582412
-0.560906
-0.541496
-0.532902
-0.529449
-0.523341
-0.526997
-0.533345
-0.553114
-0.600687
-0.630936
-0.639565
-0.631706
-0.616697
-0.60648
-0.59776
-0.588688
-0.579118
-0.570931
-0.560251
-0.458481
-0.603507
-0.562864
-0.533471
-0.532152
-0.537221
-0.546386
-0.555567
-0.567422
-0.584571
-0.620131
-0.644344
-0.663488
-0.6664
-0.661122
-0.641055
-0.624933
-0.609886
-0.602084
-0.598272
-0.593326
-0.591544
-0.590985
-0.541345
-0.609792
-0.564253
-0.550203
-0.58016
-0.60365
-0.627836
-0.647301
-0.666243
-0.68182
-0.693713
-0.698805
-0.702359
-0.693508
-0.687912
-0.683898
-0.685985
-0.681547
-0.689995
-0.697083
-0.698216
-0.681082
-0.684047
-0.581148
-0.614703
-0.582087
-0.617936
-0.679766
-0.710431
-0.737395
-0.752883
-0.763973
-0.768622
-0.764919
-0.765118
-0.767047
-0.763849
-0.774227
-0.791802
-0.805306
-0.810654
-0.819471
-0.824837
-0.826872
-0.809987
-0.812099
-0.604319
-0.633538
-0.600631
-0.659812
-0.756644
-0.797159
-0.824091
-0.843179
-0.856145
-0.87178
-0.877556
-0.88124
-0.88227
-0.877257
-0.894326
-0.910755
-0.918741
-0.920947
-0.921082
-0.919151
-0.916875
-0.909951
-0.913954
-0.623481
-0.649278
-0.631152
-0.716444
-0.795178
-0.835924
-0.874081
-0.905733
-0.918438
-0.939686
-0.959826
-0.964692
-0.958137
-0.95206
-0.965188
-0.97448
-0.97608
-0.973706
-0.970708
-0.966594
-0.96376
-0.961078
-0.96233
-0.643719
-0.666541
-0.664946
-0.760502
-0.834553
-0.871037
-0.904066
-0.929272
-0.943117
-0.968578
-0.987148
-0.991064
-0.988075
-0.986812
-0.992758
-0.995292
-0.994616
-0.992335
-0.990102
-0.987395
-0.985068
-0.982963
-0.982456
-0.662628
-0.682213
-0.680074
-0.779208
-0.86739
-0.898291
-0.919149
-0.939958
-0.952824
-0.979434
-0.993855
-0.997566
-0.997384
-0.997634
-0.998954
-0.998589
-0.997668
-0.997102
-0.996745
-0.995773
-0.99447
-0.992901
-0.991817
-0.682467
-0.697524
-0.693672
-0.786501
-0.876713
-0.917433
-0.935012
-0.947338
-0.957371
-0.981119
-0.994499
-0.998654
-0.99938
-0.999628
-0.99994
-0.999795
-0.999517
-0.999291
-0.99936
-0.999279
-0.998944
-0.9981
-0.996918
-0.704759
-0.713426
-0.70591
-0.783348
-0.872465
-0.91596
-0.940356
-0.954117
-0.959227
-0.978982
-0.993837
-0.998763
-0.999683
-0.99989
-1.00001
-1.00003
-0.999995
-0.999929
-0.99994
-0.999959
-0.999951
-0.99975
-0.999217
-0.730818
-0.730541
-0.717134
-0.771681
-0.84679
-0.892293
-0.928044
-0.953512
-0.959361
-0.972006
-0.988858
-0.997525
-0.999475
-0.999788
-0.999947
-1.00002
-1.00004
-1.00003
-1.00002
-1.00003
-1.00004
-1.00003
-0.999934
-0.758409
-0.747505
-0.728492
-0.762017
-0.813457
-0.855927
-0.903554
-0.946683
-0.959027
-0.967913
-0.982906
-0.995297
-0.998744
-0.999309
-0.999777
-0.999962
-1.00001
-1.00001
-1.00001
-1.00001
-1.00002
-1.00002
-1.00003
-0.781434
-0.763415
-0.739596
-0.765638
-0.818918
-0.87366
-0.922833
-0.954838
-0.964897
-0.969592
-0.976877
-0.988753
-0.995895
-0.998441
-0.999575
-0.999906
-0.999981
-0.999999
-1
-1
-1
-1
-1.00001
-0.79895
-0.779058
-0.751792
-0.771155
-0.829993
-0.90767
-0.953769
-0.972874
-0.979655
-0.977606
-0.979017
-0.986103
-0.994601
-0.998044
-0.999388
-0.999839
-0.999964
-0.999993
-0.999999
-1
-1
-1
-1
-0.810553
-0.789057
-0.766042
-0.778971
-0.826202
-0.895342
-0.94649
-0.973015
-0.985628
-0.984807
-0.982508
-0.985608
-0.991785
-0.996503
-0.999062
-0.999821
-0.999966
-0.999994
-0.999998
-1
-1
-1
-1
-0.817261
-0.796541
-0.787223
-0.793794
-0.834229
-0.900215
-0.953147
-0.980224
-0.991585
-0.990153
-0.986366
-0.986788
-0.990312
-0.995735
-0.998861
-0.999731
-0.999948
-0.999991
-0.999998
-0.999999
-1
-1
-1
-0.821176
-0.803499
-0.81462
-0.822064
-0.86493
-0.933446
-0.975067
-0.991776
-0.996369
-0.994768
-0.990278
-0.989026
-0.99125
-0.995598
-0.998624
-0.999716
-0.999968
-0.999997
-1
-1
-1
-1
-1
-0.823775
-0.811599
-0.830115
-0.858954
-0.912964
-0.964914
-0.9878
-0.996333
-0.997956
-0.996621
-0.992629
-0.991642
-0.99385
-0.997552
-0.999443
-0.9999
-0.999986
-0.999998
-1
-1
-1
-1
-1
-0.826725
-0.822614
-0.848261
-0.884299
-0.938326
-0.975701
-0.992477
-0.998141
-0.998637
-0.997182
-0.994551
-0.99491
-0.997243
-0.999426
-0.999927
-0.999994
-0.999999
-1
-1
-1
-1
-1
-1
-0.830207
-0.836007
-0.871769
-0.908871
-0.954244
-0.982519
-0.995547
-0.999131
-0.999121
-0.998242
-0.997126
-0.998197
-0.999337
-0.999921
-0.999985
-0.999994
-0.999998
-1
-1
-1
-1
-1
-1
-0.834555
-0.851845
-0.897228
-0.931493
-0.963633
-0.986213
-0.996896
-0.99948
-0.999471
-0.999193
-0.998996
-0.999529
-0.999834
-0.99991
-0.999957
-0.999988
-0.999998
-1
-1
-1
-1
-1
-1
-0.840034
-0.86859
-0.913975
-0.948299
-0.973893
-0.990036
-0.997935
-0.99962
-0.999669
-0.999627
-0.999652
-0.99971
-0.999698
-0.999766
-0.999909
-0.999977
-0.999993
-0.999998
-1
-1
-1
-1
-1
-0.8482
-0.89203
-0.934907
-0.962011
-0.982042
-0.993847
-0.998837
-0.999647
-0.999661
-0.999608
-0.999512
-0.99932
-0.999164
-0.999423
-0.999756
-0.999928
-0.99997
-0.999989
-0.999997
-1
-1
-1
-1
-0.856364
-0.887062
-0.933147
-0.963691
-0.984152
-0.995178
-0.999044
-0.999605
-0.999563
-0.999268
-0.998817
-0.99841
-0.99829
-0.998743
-0.99938
-0.999785
-0.999913
-0.999971
-0.999994
-1
-1
-1
-1
-0.865727
-0.894503
-0.938205
-0.968166
-0.98744
-0.996387
-0.999073
-0.99949
-0.99946
-0.999013
-0.998221
-0.997565
-0.997303
-0.997722
-0.998692
-0.999491
-0.999808
-0.999943
-0.999989
-0.999999
-1
-1
-1
-0.875787
-0.906744
-0.946358
-0.973933
-0.990236
-0.996989
-0.998977
-0.999316
-0.999325
-0.998708
-0.997671
-0.997033
-0.996763
-0.997022
-0.998093
-0.999189
-0.999707
-0.999921
-0.999986
-0.999999
-1
-1
-1
-0.885799
-0.919121
-0.955213
-0.979842
-0.992388
-0.997232
-0.998737
-0.999074
-0.99917
-0.998764
-0.99808
-0.997198
-0.996603
-0.996749
-0.99773
-0.999047
-0.999679
-0.999922
-0.999986
-0.999998
-1
-1
-1
-0.89548
-0.930324
-0.963347
-0.984954
-0.994013
-0.9972
-0.998313
-0.998666
-0.998814
-0.998565
-0.998076
-0.997419
-0.996699
-0.99674
-0.997699
-0.999111
-0.999729
-0.999912
-0.999982
-0.999997
-1
-1
-1
-0.904882
-0.94133
-0.971398
-0.989319
-0.995305
-0.997102
-0.997754
-0.998022
-0.998165
-0.998025
-0.997839
-0.997338
-0.996667
-0.996809
-0.997802
-0.999092
-0.999761
-0.999946
-0.999993
-1
-1
-1
-1
-0.914773
-0.953517
-0.980524
-0.992974
-0.996076
-0.996834
-0.997045
-0.997121
-0.997188
-0.997194
-0.99718
-0.996766
-0.996541
-0.99708
-0.998292
-0.999553
-0.999938
-0.999998
-1
-1
-1
-1
-1
-0.924487
-0.962898
-0.986317
-0.994358
-0.995902
-0.996162
-0.996092
-0.996111
-0.996192
-0.996305
-0.996328
-0.996222
-0.996579
-0.997857
-0.999087
-0.9998
-0.999983
-1
-1
-1
-1
-1
-1
-0.932943
-0.969097
-0.989037
-0.994282
-0.995227
-0.995252
-0.995494
-0.995791
-0.995957
-0.996049
-0.996194
-0.996417
-0.997213
-0.998458
-0.999458
-0.999894
-0.999989
-1
-1
-1
-1
-1
-1
-0.938733
-0.971241
-0.988657
-0.993268
-0.994345
-0.995174
-0.995844
-0.996319
-0.996563
-0.996656
-0.997125
-0.997753
-0.998859
-0.99958
-0.999885
-0.999985
-1
-1
-1
-1
-1
-1
-1
-0.944445
-0.974219
-0.989097
-0.993245
-0.994884
-0.996302
-0.997369
-0.99812
-0.998363
-0.998379
-0.998982
-0.999331
-0.999757
-0.999957
-1
-1
-1
-1
-1
-1
-1
-1
-1
-0.950965
-0.978855
-0.990661
-0.99476
-0.997111
-0.998804
-0.999369
-0.999659
-0.999727
-0.999738
-0.999894
-0.999948
-0.999999
-1.00001
-1.00001
-1
-1
-1
-1
-1
-1
-1
-1
-0.966159
-0.989333
-0.996127
-0.998624
-0.999519
-0.999911
-0.99996
-0.999979
-0.999983
-0.999986
-1.00001
-1.00002
-1.00001
-1.00001
-1
-1
-1
-1
-1
-1
-1
-1
-1
0.830724
0.785082
0.587815
0.217144
0.612721
0.579596
0.393357
0.148792
0.413867
0.324436
0.19486
0.0813957
0.22335
0.160778
0.0705545
-0.00426805
-0.131417
-0.147884
-0.213696
-0.316683
-0.517277
-0.519518
-0.532143
-0.557796
-0.551901
-0.547088
-0.542336
-0.536957
-0.590556
-0.591472
-0.592879
-0.594769
-0.700381
-0.707509
-0.713578
-0.718278
-0.826982
-0.831096
-0.834055
-0.837148
-0.916423
-0.916451
-0.916039
-0.916884
-0.96162
-0.961205
-0.961048
-0.961566
-0.981707
-0.981669
-0.981887
-0.982782
-0.991416
-0.991569
-0.991942
-0.992756
-0.99645
-0.996514
-0.996796
-0.997254
-0.998869
-0.998823
-0.998927
-0.999105
-0.999826
-0.999783
-0.99979
-0.999822
-1.00002
-1.00001
-1
-0.999998
-1.00001
-1.00001
-1.00001
-1.00001
-1
-1
-1
-1
-1
-1
-1
-1
-1
-1
-1
-1
-1
-1
-1
-1
-1
-1
-1
-1
-1
-1
-1
-1
-1
-1
-1
-1
-1
-1
-1
-1
-1
-1
-1
-1
-1
-1
-1
-1
-1
-1
-1
-1
-1
-1
-1
-1
-1
-1
-1
-1
-1
-1
-1
-1
-1
-1
-1
-1
-1
-1
-1
-1
-1
-1
-1
-1
-1
-1
-1
-1
-1
-1
-1
-1
-1
-1
-1
-1
-1
-1
-1.00001
-1.00001
-1
-1
-1.00001
-1.00001
-1
-1
-1.00001
-1.00001
-0.117738
-0.11559
-0.030016
-0.0543778
-0.151956
-0.329402
-0.49542
-0.520047
-0.511819
-0.471537
-0.388053
-0.218244
-0.106611
0.0345953
0.205811
0.205363
-0.00283169
-0.199659
-0.316386
-0.0617157
-0.069488
-0.0882789
-0.196744
-0.411445
-0.537231
-0.57525
-0.580534
-0.583203
-0.560928
-0.492401
-0.369674
-0.229995
0.00320888
0.208852
0.0867927
-0.179924
-0.445239
-0.554619
-0.0704401
-0.287122
-0.457717
-0.550921
-0.616378
-0.6373
-0.633657
-0.631698
-0.621089
-0.555736
-0.447518
-0.369332
-0.250914
-0.0567085
0.0431528
-0.135799
-0.500207
-0.699392
-0.750736
-0.124115
-0.501602
-0.618857
-0.67193
-0.695108
-0.687907
-0.671065
-0.670511
-0.63834
-0.545654
-0.339699
-0.227575
-0.123771
-0.190173
-0.324719
-0.502054
-0.797209
-0.882371
-0.891099
-0.500972
-0.629051
-0.652354
-0.675269
-0.668868
-0.628511
-0.574594
-0.555172
-0.454741
-0.311546
-0.213229
-0.283092
-0.349673
-0.519629
-0.685942
-0.811812
-0.926383
-0.952815
-0.958247
-0.578851
-0.558896
-0.548819
-0.534789
-0.490726
-0.43663
-0.402655
-0.385937
-0.381586
-0.406098
-0.490341
-0.658848
-0.766397
-0.843129
-0.90756
-0.948959
-0.973092
-0.976499
-0.979701
-0.52543
-0.512423
-0.506405
-0.506975
-0.529237
-0.55188
-0.545388
-0.58511
-0.6279
-0.725551
-0.793955
-0.867209
-0.920659
-0.952316
-0.97303
-0.982512
-0.98738
-0.987469
-0.986722
-0.598452
-0.605225
-0.617766
-0.633893
-0.673262
-0.726916
-0.751963
-0.804717
-0.843221
-0.887744
-0.915442
-0.935316
-0.962379
-0.978777
-0.986547
-0.989919
-0.991806
-0.992565
-0.990461
-0.722009
-0.72162
-0.73156
-0.750692
-0.759557
-0.80407
-0.840173
-0.877801
-0.90913
-0.935508
-0.954395
-0.96653
-0.977339
-0.984614
-0.989136
-0.991992
-0.993487
-0.99431
-0.992968
-0.841891
-0.846855
-0.832193
-0.84733
-0.859822
-0.870993
-0.893484
-0.912964
-0.933925
-0.951137
-0.963561
-0.97232
-0.979439
-0.984886
-0.989243
-0.992554
-0.994426
-0.995127
-0.994433
-0.92025
-0.927147
-0.920103
-0.915569
-0.927184
-0.928417
-0.935442
-0.938582
-0.948009
-0.961131
-0.968909
-0.974147
-0.978721
-0.983169
-0.987438
-0.992214
-0.995111
-0.995706
-0.995292
-0.96303
-0.964822
-0.967335
-0.965797
-0.970249
-0.969027
-0.971178
-0.97111
-0.969596
-0.976438
-0.980923
-0.98411
-0.985168
-0.987308
-0.988483
-0.993086
-0.995975
-0.996188
-0.995893
-0.984198
-0.98535
-0.985753
-0.987855
-0.989263
-0.987649
-0.988676
-0.989208
-0.987351
-0.989843
-0.991829
-0.993965
-0.993879
-0.993978
-0.992228
-0.995167
-0.996877
-0.996575
-0.996373
-0.993947
-0.994987
-0.994519
-0.99592
-0.996213
-0.995378
-0.996109
-0.996573
-0.996026
-0.996816
-0.99768
-0.998472
-0.998295
-0.998011
-0.996644
-0.997359
-0.997601
-0.99699
-0.996746
-0.997965
-0.998566
-0.998406
-0.998736
-0.998708
-0.998406
-0.998566
-0.998857
-0.999046
-0.999239
-0.99946
-0.999679
-0.999666
-0.999599
-0.999112
-0.99892
-0.998192
-0.99736
-0.997039
-0.999388
-0.999649
-0.999642
-0.99966
-0.99958
-0.99947
-0.999398
-0.999535
-0.999747
-0.999819
-0.999869
-0.999913
-0.999934
-0.99996
-0.999845
-0.999545
-0.998661
-0.997713
-0.99729
-0.999863
-0.999935
-0.999942
-0.999936
-0.999897
-0.999828
-0.999776
-0.999815
-0.999902
-0.999938
-0.999955
-0.999964
-0.999975
-0.999999
-0.999952
-0.999679
-0.998895
-0.99803
-0.997506
-0.999993
-1
-1
-1
-0.999991
-0.999954
-0.99994
-0.999946
-0.999969
-0.99998
-0.999985
-0.999986
-0.99999
-1.00001
-0.999991
-0.999824
-0.999205
-0.998317
-0.99769
-1.00001
-1.00001
-1.00001
-1.00001
-1.00001
-0.999994
-0.999992
-0.99999
-0.999995
-0.999998
-0.999998
-0.999997
-0.999999
-1.00001
-0.999998
-0.999865
-0.999378
-0.998552
-0.997848
-1
-1
-1
-1
-1
-1
-1
-1
-1
-1
-1
-1
-1
-1.00001
-0.999999
-0.99989
-0.999493
-0.998738
-0.997984
-1
-1
-1
-1
-1
-1
-1
-1
-1
-1
-1
-1
-1
-1.00001
-1
-0.999917
-0.999596
-0.998885
-0.998105
-1
-1
-1
-1
-1
-1
-1
-1
-1
-1
-1
-1
-1
-1.00001
-1
-0.999946
-0.999678
-0.998982
-0.998215
-1
-1
-1
-1
-1
-1
-1
-1
-1
-1
-1
-1
-1
-1
-1
-0.999963
-0.999724
-0.999048
-0.998322
-1
-1
-1
-1
-1
-1
-1
-1
-1
-1
-1
-1
-1
-1
-1.00001
-0.999975
-0.999758
-0.999101
-0.998428
-1
-1
-1
-1
-1
-1
-1
-1
-1
-1
-1
-1
-1
-1
-1.00001
-0.999981
-0.999775
-0.999137
-0.998529
-1
-1
-1
-1
-1
-1
-1
-1
-1
-1
-1
-1
-1
-1
-1.00001
-0.999982
-0.99979
-0.999215
-0.998645
-1
-1
-1
-1
-1
-1
-1
-1
-1
-1
-1
-1
-1
-1
-1.00001
-0.999983
-0.999813
-0.999318
-0.998745
-1
-1
-1
-1
-1
-1
-1
-1
-1
-1
-1
-1
-1
-1
-1.00001
-0.99999
-0.999856
-0.999415
-0.998828
-1
-1
-1
-1
-1
-1
-1
-1
-1
-1
-1
-1
-1
-1
-1
-0.999995
-0.999887
-0.999476
-0.998898
-1
-1
-1
-1
-1
-1
-1
-0.999999
-0.999997
-0.999997
-0.999998
-0.999999
-1
-1
-1
-0.999993
-0.999893
-0.999516
-0.998961
-1
-1
-1
-1
-1
-0.999999
-0.999997
-0.999991
-0.999989
-0.999989
-0.999991
-0.999994
-0.999996
-0.999999
-1
-0.999997
-0.999913
-0.999543
-0.999019
-1
-1
-1
-1
-0.999999
-0.999994
-0.999989
-0.999977
-0.999974
-0.999976
-0.999979
-0.999983
-0.999988
-0.999994
-1
-0.999997
-0.999916
-0.999566
-0.999079
-1
-1
-1
-1
-0.999993
-0.999982
-0.99997
-0.999953
-0.99995
-0.999951
-0.999958
-0.999967
-0.999979
-0.99999
-1
-0.999993
-0.999908
-0.999601
-0.999138
-1
-1
-1
-0.999996
-0.999982
-0.999962
-0.999937
-0.999921
-0.99992
-0.999921
-0.999931
-0.999947
-0.999966
-0.999982
-0.999998
-0.999992
-0.999916
-0.999622
-0.999183
-1
-1
-1
-0.999991
-0.999973
-0.999945
-0.999906
-0.99989
-0.999887
-0.999886
-0.999895
-0.999915
-0.999943
-0.999968
-0.999993
-0.99999
-0.999931
-0.999695
-0.99924
-1
-1
-0.999999
-0.999985
-0.99996
-0.999928
-0.999882
-0.99986
-0.99985
-0.999852
-0.999859
-0.999877
-0.999908
-0.999941
-0.99998
-0.999987
-0.999943
-0.999714
-0.999274
-1
-1
-0.999995
-0.999978
-0.99995
-0.999915
-0.999864
-0.999835
-0.999831
-0.999842
-0.999852
-0.999862
-0.999884
-0.999923
-0.999964
-0.999984
-0.999956
-0.999768
-0.999328
-1
-1
-0.999989
-0.999965
-0.99993
-0.999888
-0.999845
-0.999824
-0.999834
-0.999859
-0.99987
-0.999875
-0.999885
-0.999911
-0.999943
-0.999978
-0.99996
-0.999777
-0.999245
-1
-0.999998
-0.999983
-0.999955
-0.999916
-0.999868
-0.999833
-0.999824
-0.99985
-0.999879
-0.999892
-0.999893
-0.999889
-0.999906
-0.99994
-0.999978
-0.999957
-0.999785
-0.999314
-1
-0.999997
-0.999978
-0.999948
-0.99991
-0.99986
-0.999828
-0.99983
-0.999863
-0.999887
-0.999903
-0.999908
-0.999902
-0.999911
-0.999938
-0.999974
-0.999944
-0.999777
-0.999367
-1
-0.999994
-0.999972
-0.999948
-0.999919
-0.99988
-0.999834
-0.999828
-0.999855
-0.999881
-0.999906
-0.999918
-0.999919
-0.999925
-0.999947
-0.999972
-0.999947
-0.999804
-0.999442
-1
-0.999994
-0.999969
-0.999946
-0.999922
-0.999892
-0.999848
-0.999825
-0.999839
-0.999874
-0.999906
-0.999923
-0.999932
-0.999941
-0.99996
-0.999974
-0.999961
-0.999886
-0.999664
)
;

boundaryField
{
    leftWall
    {
        type            zeroGradient;
    }
    rightWall
    {
        type            zeroGradient;
    }
    lowerWall
    {
        type            zeroGradient;
    }
    atmosphere
    {
        type            zeroGradient;
    }
    defaultFaces
    {
        type            empty;
    }
}


// ************************************************************************* //
