/*--------------------------------*- C++ -*----------------------------------*\
| =========                 |                                                 |
| \\      /  F ield         | foam-extend: Open Source CFD                    |
|  \\    /   O peration     | Version:     4.1                                |
|   \\  /    A nd           | Web:         http://www.foam-extend.org         |
|    \\/     M anipulation  |                                                 |
\*---------------------------------------------------------------------------*/
FoamFile
{
    version     2.0;
    format      ascii;
    class       volScalarField;
    location    "0.85";
    object      p;
}
// * * * * * * * * * * * * * * * * * * * * * * * * * * * * * * * * * * * * * //

dimensions      [1 -1 -2 0 0 0 0];

internalField   nonuniform List<scalar> 
2268
(
1068.71
1066.09
1053.18
1047.91
1028.95
1018.14
1002.92
988.427
974.775
954.295
944.588
917.58
908.746
887.923
871.292
850.572
831.751
820.651
816.354
799.562
809.023
810.274
809.341
1011.22
1008.28
995.055
988.303
970.86
959.571
944.383
929.858
916.703
891.705
886.406
861.258
849.998
830.504
813.074
787.437
771.751
762.362
755.828
749.088
742.167
754.622
747.598
953.25
951.428
936.855
929.731
912.256
901.17
886.461
871.478
857.793
841.462
826.107
800.738
790.915
770.35
751.575
732.4
708.354
694.569
682.725
691.022
687.565
687.741
692.942
897.217
894.371
880.57
872.019
854.793
843.101
828.664
813.721
800.496
780.288
772.524
749.868
734.327
717.61
696.468
664.312
650.989
642.309
622.436
632.686
618.049
634.778
620.326
842.138
838.33
822.774
813.72
796.942
785.049
769.708
754.936
744.157
728.893
708.658
690.241
675.501
644.579
632.782
607.52
586.732
581.324
557.446
572.874
559.035
554.896
580.007
788.865
782.443
768.877
758.11
740.598
727.637
714.165
697.146
686.466
668.557
658.067
641.368
622.118
606.816
576.539
546.793
530.761
517.364
505.118
506.867
506.774
510.141
483.41
735.456
728.994
712.259
700.321
683.507
670.243
656.037
642.778
631.605
616.172
603.511
587.799
572.921
538.319
517.336
490.837
471.339
465.778
439.896
452.962
440.633
438.575
432.438
685.087
673.041
659.493
646.611
627.777
613.584
599.186
585.377
575.499
558.17
542.27
526.441
505.996
500.034
473.052
437.74
417.634
403.11
368.735
368.386
401.193
382.953
338.908
1049.11
1005.71
514.194
182.908
238.849
239.877
264.456
269.537
313.48
419.226
522.954
603.195
630.849
668.31
631.463
547.657
533.28
498.029
538.623
1020.61
878.738
419.985
131.769
175.867
176.942
247.764
247.718
275.045
389.967
498.755
542.629
597.264
622.015
584.483
527.616
487.163
445.423
497.616
883.48
626.342
309.471
26.6555
210.991
168.429
220.138
224.691
242.425
347.355
443.265
488.631
489.413
579.363
536.509
500.109
451.262
410.301
449.727
793.714
432.518
162.775
93.9628
116.444
154.892
205.594
208.845
219.165
317.464
393.06
478.314
429.245
515.816
522.591
467.231
416.991
370.034
399.25
695.849
307.626
91.6128
101.673
98.8568
141.925
157.853
195.103
185.412
288.253
369.428
426.532
474.762
467.648
480.553
428.269
382.824
338.97
351.784
607.578
239.527
65.3695
80.8505
73.7757
138.025
170.942
177.732
170.216
251.376
326.58
399.857
421.457
406.072
418.989
383.423
352.836
309.621
303.977
518.831
216.983
51.6168
74.5234
68.2078
116.315
140.867
162.815
151.189
234.347
297.389
359.275
379.244
387.363
369.453
329.308
321.558
275.411
266.836
416.669
207.548
65.3795
96.2827
63.6575
82.5648
163.108
165.136
140.893
165.228
259.502
310.404
338.795
337.41
325.25
288.272
284.957
235.684
231.187
607.895
602.419
568.97
564.304
543.123
526.622
514.349
502.495
494.238
480.784
475.944
453.773
441.975
410.87
409.54
380.97
356.558
328.538
335.733
281.478
336.282
283.579
295.121
509.618
493.634
475.32
447.126
422.106
411.108
395.514
396.549
385.906
392.844
377.762
373.442
386.188
387.171
350.913
319.55
269.499
262.843
215.09
225.425
219.091
210.288
190.424
425.151
412.25
373.88
364.481
338.907
323.984
312.886
319.37
308.576
329.641
281.553
333.021
329.683
307.495
304.069
272.688
211.986
165.401
158.65
112.263
179.304
126.77
121.398
355.126
338.797
319.664
291.397
265.036
252.109
256.467
254.866
264.989
270.372
280.73
214.171
303.744
297.879
258.637
148.497
146.998
154.738
101.46
98.4457
114.796
94.4304
100.568
304.393
288.894
260.114
249.995
236.387
220.294
232.395
231.313
237.58
232.323
247.762
234.921
214.047
245.396
149.664
124.612
185.844
146.393
130.272
84.2199
101.379
97.2668
110.207
277.537
265.522
244.608
219.332
201.482
195.775
194.778
202.518
194.58
187.145
195.093
180.95
194.214
186.062
160.908
118.592
108.155
173.41
-33.8004
-47.6212
153.548
131.447
121.387
271.259
265.044
236.924
194.219
174.306
175.844
165.724
159.485
174.351
169.954
160.903
131.323
163.528
143.653
117.602
114.469
111.037
86.3468
53.788
39.2428
54.2423
75.5499
82.0388
280.118
242.276
265.407
198.641
182.368
160.859
139.675
114.834
113.619
131.055
87.3183
95.6668
103.794
98.7483
82.7559
141.85
-22.2448
-49.6749
84.1966
64.355
73.9031
44.4161
48.8418
254.818
266.361
223.906
166.684
143.03
135.956
115.163
84.9412
81.9908
89.7392
77.2482
81.1805
55.9843
57.7466
46.507
53.7334
28.5706
25.3786
27.33
63.6681
-20.9372
-16.4778
53.6084
222.197
206.509
169.361
96.0749
126.461
94.997
79.6382
47.6462
38.9064
67.2074
42.2094
33.9016
36.3809
28.9209
22.6871
17.6941
11.7703
16.1837
14.0548
18.504
7.86924
12.994
9.19462
168.853
149.898
98.1126
60.3517
54.2275
53.5925
55.5333
9.35573
13.731
22.1599
11.9531
12.7785
9.11831
6.05794
1.504
1.98293
2.01604
3.2743
5.08059
4.96908
5.63379
5.09709
5.59709
145.414
64.9809
122.925
79.3972
17.8246
27.9399
36.1566
20.2782
16.0229
6.24785
3.74255
2.83068
1.2989
-0.276488
-0.841398
-0.0449528
0.0511638
0.569529
0.994955
1.21729
1.0985
0.926216
1.02124
130.657
98.3177
73.6435
45.0612
28.1213
27.6496
8.80631
6.66142
8.83889
3.68143
1.82329
1.21752
0.316388
-0.547688
-0.936397
-0.834659
-0.920525
-0.889217
-0.655681
-0.607407
-0.898853
-0.447883
-0.844969
76.8504
66.3947
13.2369
14.9592
26.0329
14.7393
9.40831
7.60613
4.16328
1.73855
0.557494
0.0388249
-0.713813
-0.955163
-1.13611
-1.09325
-1.44358
-1.46906
-1.33783
-1.25991
-1.31135
-1.32718
-1.36582
60.8425
57.4894
34.5601
8.43552
8.12557
-2.48391
4.63901
1.81296
2.90339
0.174603
-0.346046
-0.909217
-1.01832
-1.17129
-1.4514
-1.4702
-1.63986
-1.61172
-1.55263
-1.63269
-1.6619
-1.73257
-1.801
33.258
38.9803
15.0571
0.911232
4.93019
5.59059
0.0688144
4.36106
0.401352
-0.391005
-0.782437
-0.911535
-1.0912
-1.30428
-1.40892
-1.47426
-1.65845
-1.76604
-1.70508
-1.72947
-1.84862
-1.88131
-1.96977
16.4747
25.3518
-0.801948
11.5088
-10.1433
-4.55187
-0.927935
-0.151888
-1.22673
-1.29647
-1.31982
-1.20888
-1.51876
-1.46024
-1.63523
-1.66324
-1.80817
-1.79684
-1.96507
-1.9219
-1.99119
-1.98416
-2.09468
11.4221
11.2618
-7.13821
-61.352
-7.7791
-10.2805
-6.60298
-0.589378
-2.48005
-0.636632
-1.66299
-1.44852
-1.72278
-1.79035
-1.85986
-1.92008
-1.92821
-2.01585
-1.97778
-2.15513
-2.03305
-2.23512
-2.19994
-0.695587
3.83289
-4.03627
-61.3175
-10.0159
-10.1581
-3.79016
-1.18818
-2.96579
-0.331039
-3.04313
-1.75521
-1.9513
-1.97464
-2.03113
-2.06048
-2.18054
-2.13358
-2.15949
-2.2204
-2.21952
-2.26153
-2.23162
-6.80335
-1.8393
4.41549
20.735
-14.7079
-14.852
-6.57868
-3.88888
-4.14897
-1.45951
-6.29693
-2.42605
-2.56599
-2.44184
-2.3915
-2.37388
-2.29344
-2.3561
-2.31854
-2.38067
-2.33148
-2.41288
-2.42177
5.50814
-3.38979
51.6295
-17.6468
-19.9175
-13.4205
-6.30684
-3.37285
-4.20726
-1.37532
-4.49746
-0.893579
-2.52953
-2.71302
-2.45685
-2.45735
-2.47602
-2.43065
-2.46777
-2.57317
-2.50907
-2.49561
-2.53745
11.2244
-1.6206
-16.4289
-32.2628
-2.51281
-8.47317
-5.09533
-3.44443
-4.15674
-4.19132
-2.53623
-2.31919
-3.80565
-2.63849
-2.94954
-2.66806
-2.64064
-2.60278
-2.60562
-2.63942
-2.61753
-2.66078
-2.70351
12.4865
10.6991
0.369705
-2.84493
5.9775
-3.78995
-2.08686
-3.97955
-4.52531
-3.72963
-4.16236
-2.7244
-2.80691
-2.73241
-2.86425
-2.63205
-2.81971
-2.76408
-2.81338
-2.75058
-2.77928
-2.79374
-2.7432
14.9255
49.9576
3.94243
12.5817
-2.86594
-2.42904
-3.60787
-4.07858
-4.15732
-4.68072
-4.65151
-3.06838
-2.1186
-2.96569
-2.77234
-2.8967
-2.87619
-2.85547
-2.87879
-2.92158
-2.92922
-2.95017
-2.90657
-7.4696
-28.556
-20.0609
-1.62956
0.346575
-2.95169
-3.46481
-3.65191
-3.98288
-4.27081
-4.17157
-2.68759
-3.09002
-3.04824
-2.85507
-3.05699
-3.00161
-3.06549
-3.01817
-3.01161
-3.05986
-3.05569
-3.05065
0.693867
-3.81363
4.53141
0.703291
0.527254
-3.09064
-3.31583
-3.56664
-3.69485
-4.14333
-3.78189
-3.84939
-3.05673
-3.0628
-3.05867
-3.16051
-3.09558
-3.13034
-3.15486
-3.20768
-3.23137
-3.25114
-3.22956
5.58263
-0.0783912
0.319293
4.27632
-0.304969
-3.31414
-3.41342
-3.44893
-3.77501
-3.79589
-3.56503
-3.24047
-3.15464
-3.21871
-3.22614
-3.25567
-3.24526
-3.33561
-3.32306
-3.30961
-3.37232
-3.36285
-3.35624
3.26329
0.603176
-2.32121
-1.68601
-4.049
-3.09432
-3.21081
-3.63161
-3.58755
-3.76005
-3.59738
-3.50525
-3.31946
-3.35605
-3.34744
-3.37566
-3.41067
-3.43439
-3.41136
-3.53629
-3.47116
-3.59301
-3.56337
1.15044
-1.45881
-4.00041
-2.63502
-3.18181
-3.52565
-3.46964
-3.7452
-3.66097
-3.89922
-3.66636
-3.53461
-3.51779
-3.4782
-3.48758
-3.51785
-3.57562
-3.59831
-3.62158
-3.63175
-3.6128
-3.66919
-3.73934
25.8634
3.63179
-3.94269
-2.36027
-3.56736
-3.5464
-3.76811
-3.59047
-4.0875
-4.19522
-4.10644
-3.9952
-3.90954
-3.74965
-3.63611
-3.68986
-3.71858
-3.74526
-3.71561
-3.8267
-3.78601
-3.80857
-3.87248
-29.9596
-10.1215
-3.86317
-3.445
-3.89
-3.86649
-4.06624
-4.11285
-4.04965
-4.26661
-4.5296
-4.1099
-4.32959
-3.99172
-3.93819
-3.96194
-3.94182
-3.96626
-3.94615
-3.98285
-3.91727
-3.96243
-4.08645
-7.71152
-4.35292
-3.47505
-3.70795
-4.04911
-4.09625
-4.18413
-4.21169
-4.31329
-4.69492
-4.75719
-5.43147
-4.80616
-4.60534
-4.26203
-4.03332
-4.04632
-4.08632
-4.07515
-4.14619
-4.17367
-4.1491
-4.1222
-4.50654
-3.54286
-3.82529
-3.89516
-4.24505
-4.18804
-4.38632
-4.24534
-4.18488
-4.58855
-5.44198
-5.33894
-5.29663
-4.67483
-4.20908
-4.32275
-4.45303
-4.26417
-4.28195
-4.23805
-4.28907
-4.24041
-4.3417
-5.27702
-4.29212
-4.01521
-4.3057
-4.34011
-4.41834
-4.45614
-4.8248
-5.14866
-5.20795
-4.99925
-5.2469
-5.25344
-5.05617
-5.08226
-4.54968
-4.46482
-4.51806
-4.47863
-4.47557
-4.46313
-4.44038
-4.4783
-3.92489
-3.97502
-3.85149
-4.30164
-4.23317
-4.35684
-4.34401
-4.47971
-4.65312
-4.8721
-5.00536
-5.15772
-5.23911
-4.9432
-4.58177
-4.66555
-4.70171
-4.64056
-4.62054
-4.53976
-4.64453
-4.63029
-4.57583
-3.40418
-3.60847
-3.7196
-4.35258
-4.25859
-4.35183
-4.40811
-4.35603
-4.73171
-4.71186
-4.6905
-4.86209
-5.32789
-4.94929
-5.02784
-4.83769
-4.83195
-4.81035
-4.88601
-4.77784
-4.82449
-4.72809
-4.88569
-3.81626
-4.00052
-3.72613
-4.16104
-4.16325
-4.17983
-4.20905
-4.43567
-4.39451
-4.50072
-4.71296
-4.77244
-5.51721
-5.02769
-4.99276
-4.92706
-4.98267
-4.91155
-4.91093
-4.97912
-4.97399
-4.92523
-4.92436
-4.07505
-4.42941
-4.27871
-4.4883
-4.54722
-4.5066
-4.52696
-4.69422
-4.80132
-4.83155
-4.83953
-5.07649
-5.59988
-5.08677
-5.14295
-5.0801
-5.1314
-5.17526
-5.15201
-5.09843
-5.14027
-5.08105
-5.11187
-6.32657
-5.10133
-4.28811
-4.64886
-4.76609
-4.69128
-4.83874
-4.88781
-4.99433
-4.99767
-5.13822
-5.17614
-5.367
-5.18963
-5.3139
-5.30181
-5.24281
-5.20029
-5.26058
-5.21226
-5.28328
-5.26781
-5.27358
-9.46003
-6.69677
-6.07159
-5.53901
-5.3502
-5.28225
-5.33489
-5.28717
-5.36805
-5.27286
-5.3657
-5.36752
-5.43184
-5.36815
-5.44821
-5.34693
-5.39776
-5.3833
-5.43461
-5.42231
-5.40998
-5.43156
-5.43582
-22.3145
-7.28452
-7.00435
-5.92187
-5.80759
-5.45973
-5.46727
-5.43979
-5.48585
-5.50666
-5.54981
-5.55513
-5.5627
-5.55627
-5.50028
-5.55018
-5.57593
-5.48948
-5.52338
-5.54774
-5.56761
-5.53116
-5.59211
-41.1416
-22.3291
-13.6109
-9.21653
-7.30621
-6.33367
-6.04432
-5.81704
-5.83808
-5.71095
-5.69001
-5.67184
-5.68211
-5.68275
-5.70966
-5.7015
-5.69363
-5.73176
-5.7513
-5.71904
-5.7237
-5.81731
-5.72302
222.731
239.434
124.245
161.301
148.343
138.092
147.705
205.46
82.9411
37.022
120.258
172.663
188.489
202.883
151.423
234.782
108.49
189.687
198.277
206.268
139.569
150.24
103.783
181.654
108.42
119.424
118.043
128.863
55.4986
62.2602
67.8627
73.5615
37.6632
40.4704
44.8438
45.151
12.7428
16.0248
16.1327
15.6204
5.41659
5.22249
4.74362
3.61577
1.2324
0.946131
1.08252
1.05088
-0.841734
-1.15626
-0.733627
-0.899609
-1.37078
-1.46123
-1.4028
-1.57924
-1.90523
-1.89448
-1.89454
-1.87576
-2.01062
-2.00481
-2.03015
-2.04138
-2.13909
-2.15983
-2.18616
-2.17232
-2.25559
-2.28195
-2.29598
-2.34168
-2.27006
-2.28213
-2.29892
-2.32821
-2.43283
-2.43171
-2.44019
-2.38331
-2.54136
-2.55795
-2.54565
-2.58544
-2.69282
-2.69203
-2.64729
-2.7533
-2.85711
-2.83538
-2.82733
-2.86656
-3.00316
-2.97711
-2.98435
-2.98695
-3.12659
-3.08948
-3.12582
-3.14102
-3.26691
-3.28531
-3.24764
-3.25567
-3.37333
-3.39376
-3.43318
-3.42443
-3.52519
-3.54805
-3.5478
-3.54156
-3.70287
-3.71855
-3.71851
-3.73443
-3.81614
-3.82585
-3.85113
-3.86635
-4.08823
-4.05193
-4.07836
-4.00347
-4.19479
-4.19912
-4.1335
-4.15926
-4.31518
-4.32206
-4.29365
-4.34785
-4.4885
-4.47723
-4.52315
-4.50181
-4.61202
-4.59077
-4.67942
-4.72167
-4.81417
-4.85155
-4.80809
-4.82431
-4.99398
-5.00192
-5.00505
-5.00765
-5.06846
-5.10737
-5.08531
-5.12929
-5.30363
-5.33392
-5.30773
-5.29106
-5.42739
-5.44323
-5.4767
-5.46331
-5.55508
-5.58989
-5.62563
-5.64072
-5.79341
-5.79693
-5.77444
-5.77758
210.69
279.016
79.0598
53.6564
48.1769
93.2593
123.086
145.826
180.768
197.768
182.195
235.684
278.492
243.609
268.727
174.179
203.749
176.404
171.381
146.675
150.514
149.551
198.168
77.2159
66.9245
72.2789
119.54
94.4463
141.082
160.804
198.345
187.305
172.454
141.007
135.425
115.997
96.5694
99.7241
195.996
191.497
135.873
80.6039
89.2786
100.033
75.6215
91.6371
127.391
141.275
138.127
126.838
145.646
120.154
99.6881
71.2755
64.0978
58.2628
56.48
317.745
245.367
112.828
125.619
129.484
98.4288
60.0569
94.2475
88.2653
101.883
82.0072
94.6641
79.018
69.6855
50.9133
38.8628
33.5474
29.2907
28.5077
232.905
205.299
129.262
106.044
92.5672
82.8296
46.9951
58.2093
59.1885
90.2476
51.6823
51.3285
43.2812
30.8371
21.6187
19.6883
15.5492
17.2099
18.1779
183.781
201.433
94.2285
108.883
99.1666
54.8729
58.2519
26.6767
61.655
29.0626
36.9094
18.644
15.6419
12.1897
10.5548
11.3997
9.89387
13.0387
14.4963
117.079
111.422
109.371
93.0051
63.5248
22.6013
32.2557
23.2513
29.3287
12.4484
11.2597
8.30419
8.79758
7.51575
7.8738
7.44944
8.591
9.31634
9.8314
82.5145
83.6689
82.8658
34.8668
23.1624
24.9654
12.9767
4.6321
16.0045
13.4936
8.00077
4.26345
6.82088
5.53628
6.84573
4.03782
7.33724
7.90577
7.79221
52.4295
44.7141
23.7101
-2.59124
30.3912
3.70696
7.42584
6.62669
3.78616
5.33028
3.91886
3.29514
4.09485
4.28594
4.54667
4.12949
4.92347
5.20568
5.59016
13.6742
9.7669
4.20801
1.81684
5.58416
11.84
10.8734
3.4497
6.05724
5.16841
4.39516
3.76089
3.125
2.93994
2.92624
2.50822
3.24035
3.78454
4.05593
3.8099
-0.89917
1.66195
6.07119
2.06394
2.02623
0.451833
3.71961
2.45788
1.4498
1.78345
1.66945
1.98316
1.62409
1.61223
1.40192
1.82236
1.89841
1.72754
1.54761
-0.333463
0.579554
-0.358609
-0.597001
1.80256
1.16529
0.832583
0.751464
0.722585
0.274809
0.389532
0.263001
0.414671
0.55528
0.617618
0.836683
0.587737
-0.147463
-1.07687
-0.727627
-1.98525
-1.06062
-1.11997
-1.48617
-1.57555
-0.63158
-0.871822
-0.826229
-0.741444
-0.744924
-0.712697
-0.46399
-0.436681
-0.145116
-0.0988051
0.422303
1.62114
-1.44102
-1.64976
-1.23999
-1.51322
-1.38361
-1.50664
-1.01076
-1.37053
-1.39876
-1.27386
-1.22729
-1.14989
-1.12221
-0.966084
-0.894569
-0.744084
-0.689793
-0.601289
-0.22397
-1.84
-1.80097
-1.79711
-1.65036
-1.59338
-1.52617
-1.6446
-1.57684
-1.4931
-1.43451
-1.41016
-1.35272
-1.37845
-1.25677
-1.3026
-1.21432
-1.13614
-0.994665
-0.585205
-1.92325
-1.94815
-1.96951
-1.87691
-2.03212
-1.80795
-1.75986
-1.75884
-1.66629
-1.60033
-1.56825
-1.5148
-1.51927
-1.46044
-1.46464
-1.44833
-1.44443
-1.48164
-1.01723
-1.97153
-2.0767
-1.94678
-1.95256
-1.85681
-1.91161
-1.85241
-1.81573
-1.81132
-1.75752
-1.73834
-1.70403
-1.69833
-1.64643
-1.6794
-1.65089
-1.60896
-1.68153
-1.37946
-2.25787
-2.15342
-2.19388
-2.13042
-2.0942
-1.99155
-2.02227
-1.9359
-1.95535
-1.89276
-1.89255
-1.84642
-1.85171
-1.80923
-1.85753
-1.80786
-1.9148
-1.85982
-1.70891
-2.39879
-2.33951
-2.23147
-2.36869
-2.21846
-2.28381
-2.14581
-2.19053
-2.10165
-2.08212
-2.04749
-2.03384
-2.01282
-1.98786
-1.98375
-1.99288
-1.9878
-1.99534
-1.90679
-2.44349
-2.37609
-2.4254
-2.2733
-2.36376
-2.36272
-2.38528
-2.1941
-2.27892
-2.21088
-2.20102
-2.17945
-2.16243
-2.16645
-2.15567
-2.1569
-2.15712
-2.16225
-2.11802
-2.60736
-2.68532
-2.53171
-2.53919
-2.63909
-2.43009
-2.49021
-2.48423
-2.36326
-2.39386
-2.35564
-2.36012
-2.33371
-2.33393
-2.29872
-2.31151
-2.30078
-2.28187
-2.27269
-2.71111
-2.63862
-2.60948
-2.73179
-2.55717
-2.65898
-2.64465
-2.54641
-2.62666
-2.49771
-2.53678
-2.46884
-2.51857
-2.46186
-2.48064
-2.46621
-2.45116
-2.45428
-2.43368
-2.87432
-2.79106
-2.80529
-2.7622
-2.77373
-2.79086
-2.72726
-2.74736
-2.67935
-2.72939
-2.67962
-2.69806
-2.64408
-2.65858
-2.63667
-2.6264
-2.60298
-2.58486
-2.65061
-3.00524
-2.92525
-2.87554
-2.89368
-2.88148
-2.9297
-2.96253
-2.82449
-2.91971
-2.80343
-2.8897
-2.79642
-2.83215
-2.73943
-2.81134
-2.75288
-2.76202
-2.77867
-2.70965
-3.18906
-3.13921
-3.13267
-3.10406
-3.09392
-3.09059
-3.04229
-3.08282
-2.93833
-3.03429
-2.97493
-3.00027
-2.90645
-3.06471
-2.91433
-2.94394
-2.92267
-2.94089
-2.88164
-3.23523
-3.25322
-3.21773
-3.27338
-3.17451
-3.26474
-3.2126
-3.21871
-3.19136
-3.16104
-3.17315
-3.13511
-3.15191
-3.1179
-3.13189
-3.0872
-3.08837
-3.09253
-3.07235
-3.48076
-3.34943
-3.40822
-3.35145
-3.44742
-3.36599
-3.34656
-3.31034
-3.34134
-3.31966
-3.28401
-3.31033
-3.237
-3.32981
-3.30433
-3.23574
-3.26394
-3.24727
-3.23272
-3.57211
-3.62003
-3.48774
-3.53519
-3.46909
-3.57092
-3.45311
-3.55504
-3.46299
-3.47699
-3.48287
-3.4293
-3.44797
-3.3926
-3.50689
-3.38422
-3.42325
-3.38722
-3.40238
-3.68482
-3.71239
-3.70637
-3.74647
-3.80182
-3.82571
-3.65559
-3.72272
-3.66157
-3.62058
-3.6414
-3.66098
-3.61067
-3.58417
-3.59936
-3.59314
-3.56537
-3.54899
-3.54646
-3.85483
-3.87764
-3.88847
-3.86594
-3.89268
-3.82569
-3.9531
-3.88052
-3.8892
-3.7624
-3.73419
-3.89506
-3.81349
-3.72284
-3.76738
-3.75236
-3.68738
-3.72831
-3.71177
-4.05276
-3.99763
-4.00627
-4.01597
-4.00037
-3.94266
-4.03233
-4.19673
-4.03728
-3.96762
-4.00357
-3.9816
-3.94007
-3.88981
-3.9411
-4.00511
-3.89052
-3.89206
-3.87105
-4.1693
-4.15451
-4.19973
-4.24772
-4.23116
-4.19633
-4.20921
-4.26711
-4.28645
-4.20094
-4.13704
-4.19345
-4.14397
-4.17009
-4.26146
-4.12344
-4.02937
-4.03878
-4.06288
-4.35136
-4.28654
-4.34854
-4.2672
-4.4794
-4.3823
-4.49701
-4.27665
-4.48655
-4.55723
-4.31975
-4.41876
-4.32962
-4.41695
-4.30189
-4.26697
-4.15151
-4.23918
-4.2033
-4.48071
-4.39426
-4.45272
-4.35012
-4.63063
-4.55425
-4.56292
-4.51656
-4.64445
-4.61816
-4.55461
-4.5827
-4.52738
-4.6895
-4.52949
-4.53322
-4.55314
-4.45192
-4.44752
-4.66372
-4.68628
-4.7172
-4.73084
-4.68179
-4.81272
-4.87416
-4.80714
-4.81503
-4.81212
-4.80178
-4.78238
-4.82789
-4.64758
-4.70756
-4.60304
-4.51013
-4.67789
-4.55822
-4.81164
-4.86392
-4.79766
-4.73405
-4.88869
-4.79658
-4.92401
-4.93572
-4.97404
-5.00334
-4.95458
-5.00986
-4.88429
-5.01488
-4.93773
-4.82335
-4.91965
-4.82114
-4.82781
-5.008
-5.06189
-5.11943
-5.07336
-5.11511
-5.19668
-5.17766
-5.14867
-5.14191
-5.13816
-5.18694
-5.19596
-5.23128
-5.10662
-5.05055
-4.97088
-4.91481
-4.86588
-4.89754
-5.13803
-5.10183
-5.07045
-5.19134
-5.16005
-5.28298
-5.2863
-5.2596
-5.2485
-5.33291
-5.27012
-5.36661
-5.22141
-5.15292
-5.13876
-5.18737
-5.18269
-5.31397
-5.18384
-5.28077
-5.26281
-5.28547
-5.21097
-5.47651
-5.36421
-5.44144
-5.4381
-5.50213
-5.43133
-5.49664
-5.50701
-5.53575
-5.57679
-5.43066
-5.39824
-5.35609
-5.31499
-5.35534
-5.49125
-5.53807
-5.64015
-5.67044
-5.62288
-5.60384
-5.73526
-5.56793
-5.63817
-5.70391
-5.65208
-5.65043
-5.59548
-5.50175
-5.55091
-5.48705
-5.44028
-5.39912
-5.51193
-5.65399
-5.61344
-5.78923
-5.79116
-5.77897
-5.68938
-5.73474
-5.78233
-5.89721
-5.86894
-5.73962
-5.82093
-5.76194
-5.74144
-5.64953
-5.65026
-5.6439
-5.87669
-5.73294
-5.78727
-5.98196
-5.81882
-5.90359
-5.93788
-6.02151
-6.03121
-6.0778
-6.09891
-5.98931
-5.93484
-5.89946
-5.82917
-5.7966
-5.77123
-5.75261
-5.70929
-5.88478
-6.06551
)
;

boundaryField
{
    leftWall
    {
        type            calculated;
        value           nonuniform List<scalar> 
50
(
1068.71
1011.22
953.25
897.217
842.138
788.865
735.456
685.087
607.895
509.618
425.151
355.126
304.393
277.537
271.259
280.118
254.818
222.197
168.853
145.414
130.657
76.8504
60.8425
33.258
16.4747
11.4221
-0.695587
-6.80335
5.50814
11.2244
12.4865
14.9255
-7.4696
0.693867
5.58263
3.26329
1.15044
25.8634
-29.9596
-7.71152
-4.50654
-5.27702
-3.92489
-3.40418
-3.81626
-4.07505
-6.32657
-9.46003
-22.3145
-41.1416
)
;
    }
    rightWall
    {
        type            calculated;
        value           nonuniform List<scalar> 
50
(
538.623
497.616
449.727
399.25
351.784
303.977
266.836
231.187
171.381
99.7241
56.48
28.5077
18.1779
14.4963
9.8314
7.79221
5.59016
4.05593
1.72754
-0.147463
1.62114
-0.22397
-0.585205
-1.01723
-1.37946
-1.70891
-1.90679
-2.11802
-2.27269
-2.43368
-2.65061
-2.70965
-2.88164
-3.07235
-3.23272
-3.40238
-3.54646
-3.71177
-3.87105
-4.06288
-4.2033
-4.44752
-4.55822
-4.82781
-4.89754
-5.18384
-5.35534
-5.51193
-5.73294
-6.06551
)
;
    }
    lowerWall
    {
        type            calculated;
        value           nonuniform List<scalar> 
62
(
1098.14
1095.46
1082.47
1077.16
1058.21
1047.41
1032.19
1017.69
1004.03
983.562
973.871
946.883
938.072
917.273
900.674
879.988
861.18
850.08
845.783
828.992
838.452
839.703
838.77
809.341
747.598
692.942
620.326
580.007
483.41
432.438
338.908
280.051
295.355
174.056
199.537
1049.11
1020.61
883.48
793.714
695.849
607.578
518.831
416.669
1061.26
1017.3
525.762
194.574
250.564
251.63
276.288
281.551
325.762
432.074
536.274
616.827
644.582
682.053
645.378
562.28
549.005
514.007
554.826
)
;
    }
    atmosphere
    {
        type            calculated;
        value           nonuniform List<scalar> 
46
(
-102.417
-35.6902
-16.5297
-9.5808
-7.08616
-6.09
-5.89911
-5.83123
-5.83119
-5.78926
-5.77542
-5.76463
-5.75679
-5.75956
-5.7448
-5.76676
-5.78095
-5.76655
-5.78625
-5.78764
-5.79717
-5.83256
-5.8082
-5.84163
-5.8514
-5.85834
-5.86577
-5.8762
-5.96006
-5.97249
-6.02332
-6.04275
-6.07391
-6.16213
-6.22899
-6.18918
-6.10045
-6.01312
-5.97354
-5.9232
-5.89686
-5.84205
-5.80335
-5.84001
-6.0559
-6.69075
)
;
    }
    defaultFaces
    {
        type            empty;
    }
}


// ************************************************************************* //
