/*--------------------------------*- C++ -*----------------------------------*\
| =========                 |                                                 |
| \\      /  F ield         | foam-extend: Open Source CFD                    |
|  \\    /   O peration     | Version:     4.1                                |
|   \\  /    A nd           | Web:         http://www.foam-extend.org         |
|    \\/     M anipulation  |                                                 |
\*---------------------------------------------------------------------------*/
FoamFile
{
    version     2.0;
    format      ascii;
    class       volScalarField;
    location    "0.85";
    object      pd;
}
// * * * * * * * * * * * * * * * * * * * * * * * * * * * * * * * * * * * * * //

dimensions      [1 -1 -2 0 0 0 0];

internalField   nonuniform List<scalar> 
2268
(
1098.14
1095.46
1082.47
1077.16
1058.21
1047.41
1032.19
1017.69
1004.03
983.562
973.871
946.883
938.072
917.273
900.674
879.988
861.18
850.08
845.783
828.992
838.452
839.703
838.77
1099.42
1096.25
1082.72
1075.83
1058.48
1047.26
1032.1
1017.57
1004.43
979.461
974.205
949.115
937.926
918.512
901.187
875.667
860.039
850.65
844.116
837.376
830.455
842.91
835.886
1099.78
1097.41
1082.21
1074.88
1057.72
1046.92
1032.37
1017.46
1003.83
987.543
972.231
946.938
937.24
916.791
898.162
879.153
855.288
841.716
829.872
838.169
834.712
834.888
840.089
1101.33
1097.39
1082.48
1073.78
1057.35
1046.36
1032.38
1017.67
1004.56
984.359
976.555
953.915
938.51
921.746
900.428
868.156
855.155
847.716
828.256
838.691
824.054
840.784
826.332
1102.73
1097.02
1079.75
1070.93
1055.75
1045.2
1030.73
1016.38
1005.75
990.298
969.738
951.055
936.223
904.273
890.597
863.83
843.755
841.844
819.215
836.252
822.761
819.74
844.871
1104.41
1095.09
1079.23
1069.59
1054.77
1043.88
1031.69
1015.26
1004.65
985.976
974.491
956.701
936.284
916.612
879.11
843.935
829.878
825.085
816.283
823.479
824.952
831.356
807.133
1103.87
1093.56
1074.17
1064.92
1051.96
1041.28
1028.53
1015.81
1004.41
987.002
971.957
953.116
933.689
886.204
845.398
805.31
791.014
804.273
786.053
813.831
806.532
811.372
812.735
1103.52
1086.93
1070.94
1062.75
1048.49
1036.75
1023.46
1009.82
998.958
977.414
956.402
932.706
899.208
863.699
796.436
736.941
727.495
745.952
725.182
756.704
802.075
797.145
768.809
1061.26
1017.3
525.762
194.574
250.564
251.63
276.288
281.551
325.762
432.074
536.274
616.827
644.582
682.053
645.378
562.28
549.005
514.007
554.826
1057.1
913.16
453.807
165.225
208.87
209.472
279.877
279.828
308.079
425.109
535.999
582.607
639.495
664.788
626.779
568.617
532.216
492.334
546.245
944.498
683.151
364.635
80.6022
263.394
219.773
269.583
272.416
293.212
402.615
501.763
551.862
561.217
655.214
611.532
563.386
519.772
484.684
530.008
879.614
512.329
241.036
170.913
190.25
227.593
276.484
274.386
291.663
400.024
479.628
566.76
530.668
627.122
637.74
554.646
504.696
467.683
508.858
807.056
411.293
196.433
206.836
196.957
235.815
252.877
285.538
285.245
403.845
494.945
551.361
608.831
613.313
638.057
550.158
493.025
458.013
487.164
744.805
368.169
201.086
217.917
198.281
246.89
284.431
296.377
296.343
394.763
488.29
565.987
591.434
584.935
617.032
552.702
495.507
452.201
460.794
682.871
371.532
221.562
244.572
220.629
237.735
261.143
298.578
289.889
388.029
479.865
559.728
582.578
597.626
604.571
548.88
505.21
443.944
439.97
606.9
389.94
269.812
298.691
244.519
221.592
286.356
299.911
276.507
314.526
440.22
524.448
563.537
575.263
593.569
553.447
508.713
427.917
413.804
1097.66
1087.06
1052.68
1056.35
1039.22
1022.81
1009.44
996.073
984.431
960.337
941.891
895.349
843.256
746.457
681.833
628.705
618.324
626.604
662.147
668.943
758.044
733.378
781.798
1077.61
1056.52
1039.68
1020.7
991.544
963.961
935.756
928.703
906.399
885.661
831.593
746.842
674.069
641.96
601.937
582.991
546.042
546.895
506.179
541.654
587.895
630.246
688.305
1038.83
1020.2
973.568
933.216
848.467
769.301
718.525
713.178
671.484
667.12
583.463
604.346
577.724
594.109
640.912
633.711
588.519
561.074
570.303
545.187
670.431
675.169
693.416
970.537
934.912
853.867
685.271
518.021
446.102
436.434
462.809
464.304
484.637
502.607
466.097
601.892
671.849
662.977
560.993
578.765
650.868
637.338
656.689
693.006
682.454
686.893
879.967
801.784
633.198
493.767
403.012
351.749
359.664
383.827
403.196
423.425
465.733
486.518
505.418
547.524
435.552
405.147
472.164
463.935
489.11
465.359
509.4
536.842
560.631
804.064
661.552
495.949
406.586
371.194
378.435
390.328
412.407
426.537
449.723
477.559
472.882
486.806
448.762
396.694
349.552
338.948
406.128
205.295
198.386
412.415
402.488
400.619
723.991
545.089
473.378
463.281
456.53
470.032
465.571
461.872
480.922
474.42
461.303
418.768
420.297
381.666
350.252
352.811
358.906
340.6
313.563
304.912
326.052
352.588
365.991
662.982
523.595
575.449
528.497
512.962
487.796
460.408
429.315
419.932
425.15
356.262
347.622
342.521
335.551
323.822
397.017
243.874
226.723
365.872
348.659
361.658
333.309
337.996
608.53
568.261
560.149
512.963
466.693
442.196
403.166
358.171
340.649
336.217
314.438
314.387
286.481
295.02
287.82
297.557
270.143
270.413
265.735
296.884
211.435
228.902
296.506
571.822
528.641
518.372
414.118
394.259
338.119
300.688
255.919
237.939
262.472
240.065
231.298
231.844
226.901
210.856
190.579
173.328
173.428
164.472
164.746
152.475
171.57
166.058
524.642
480.021
456.707
364.585
273.047
236.849
215.028
152.027
145.222
140.279
124.768
121.917
116.866
117.861
96.715
82.4033
75.3297
74.815
76.7627
78.5113
81.1802
86.8207
83.8499
508.111
403.353
476.991
350.726
215.164
186.573
158.393
112.373
96.342
66.8011
45.016
39.2979
43.9493
47.8299
33.9482
26.0008
24.5825
27.3749
30.7575
34.8915
37.418
39.7974
38.7409
496.731
441.278
416.184
289.635
198.684
161.139
108.433
80.5569
68.7266
38.0292
17.2915
12.661
14.8857
15.1453
8.42744
5.9983
6.6018
8.93873
11.4419
14.2254
16.2572
18.8317
18.9524
445.281
413.528
360.825
254.349
171.713
127.325
99.2388
74.7025
57.1759
26.1877
9.46536
4.93714
4.41767
3.85116
2.16804
2.60361
3.22472
3.8021
4.32254
5.45772
6.80203
8.46953
9.58041
428.33
407.325
387.112
253.359
150.926
94.3368
81.4839
64.3995
53.7154
23.9336
8.21527
2.93244
2.01144
1.56401
0.908791
1.05591
1.19823
1.47698
1.45711
1.47421
1.82941
2.71622
3.98335
394.555
388.972
372.493
263.129
160.348
109.025
74.4558
62.2236
51.7712
27.197
9.01111
2.98223
1.7003
1.24164
1.00247
0.937125
0.75917
0.73004
0.777582
0.730318
0.621075
0.828836
1.37532
364.058
371.987
361.246
302.291
184.864
133.249
92.6558
61.512
52.8033
36.592
15.253
4.4466
1.67747
1.34539
0.970139
0.873335
0.728411
0.739743
0.571514
0.614683
0.545386
0.552423
0.524763
339.262
352.185
357.864
257.844
241.758
183.387
124.592
73.4517
54.889
44.8458
23.8377
7.53221
2.61539
1.79329
1.10378
0.79463
0.733564
0.645927
0.683994
0.506648
0.628723
0.426653
0.461837
309.607
338.303
362.507
268.401
244.934
169.223
107.198
65.14
49.1456
45.0801
32.1487
16.8387
6.57846
3.00235
1.35861
0.861014
0.6345
0.655408
0.62748
0.566564
0.567452
0.52544
0.555348
290.949
324.33
369.939
357.749
237.173
124.204
64.6337
39.0829
28.6876
34.2449
27.3548
20.9013
8.28901
3.36556
1.43188
0.778939
0.672548
0.566832
0.595578
0.531492
0.580679
0.499283
0.490396
297.527
320.974
411.465
322.665
249.368
151.06
79.5485
41.5725
21.0794
24.9131
25.2485
24.2014
13.1796
5.77898
2.05827
0.865661
0.615607
0.617017
0.572098
0.464869
0.528619
0.542127
0.500362
304.026
323.855
325.071
299.315
265.993
156.021
74.3548
32.0393
12.5726
14.5668
22.204
21.9003
14.9624
7.49735
2.10658
0.947515
0.61085
0.575596
0.560303
0.523981
0.545283
0.501905
0.459165
310.105
337.606
310.689
296.791
236.55
113.175
43.9898
13.4118
4.78034
8.07435
15.0274
18.766
15.1614
8.11368
2.83713
1.16321
0.526642
0.52905
0.475192
0.537397
0.508532
0.494031
0.544553
319.372
375.611
299.317
261.211
154.342
63.4655
21.636
5.92386
2.73106
4.42455
11.272
14.8264
12.1683
4.93824
1.68548
0.706578
0.562696
0.561277
0.534834
0.491451
0.483726
0.462774
0.506368
302.919
289.736
253.952
210.268
116.388
45.2761
14.0783
3.3656
1.97215
4.22574
9.13505
10.147
5.65643
1.60844
0.827846
0.492391
0.538257
0.472981
0.519966
0.52653
0.478279
0.482442
0.487489
315.739
301.428
245.214
174.296
90.2794
33.7575
8.9434
1.77429
1.57948
2.78903
5.3333
3.29946
1.93896
0.757788
0.631239
0.513576
0.570733
0.533053
0.508471
0.45565
0.431961
0.41219
0.433769
323.267
285.838
200.777
139.896
73.7106
27.2533
6.47896
1.35579
1.01917
1.55816
2.2197
1.49776
0.96495
0.740531
0.643059
0.555493
0.546407
0.452917
0.465461
0.478911
0.416206
0.425672
0.432289
320.891
263.495
171.786
104.63
51.6595
20.7085
4.87493
1.0341
0.97529
0.89537
1.01842
0.984329
1.1841
1.01554
0.746083
0.584189
0.516231
0.484112
0.503172
0.377431
0.442559
0.320707
0.350345
312.656
222.498
132.926
78.8482
37.4974
13.1412
2.95856
1.00362
1.0605
0.936517
1.36453
1.87598
2.20358
1.72761
1.04731
0.668212
0.524656
0.463754
0.422634
0.407548
0.426117
0.369721
0.299574
330.028
244.042
140.552
78.0764
33.9213
10.7805
2.39293
1.38822
0.983806
1.49839
2.5249
3.47601
3.80998
3.03948
1.82912
0.926721
0.629524
0.480119
0.461336
0.338445
0.378098
0.355537
0.291633
263.271
221.65
134.01
69.6985
27.6005
8.2339
2.2025
1.25536
1.39357
2.14581
3.58618
5.40095
5.74036
5.19427
3.17419
1.43111
0.765052
0.448701
0.367926
0.308721
0.372029
0.326873
0.202856
271.872
207.21
120.255
58.7317
22.1113
6.98925
2.46536
1.69045
1.58291
2.58508
4.81073
5.53075
6.74317
6.3814
4.37418
2.18378
1.02225
0.505536
0.370761
0.27092
0.240831
0.265402
0.292297
260.199
185.625
103.067
46.7739
17.6975
6.62664
2.97907
2.35846
2.21798
2.74655
3.45432
5.55011
6.93253
7.2301
5.48742
2.39194
0.822588
0.456289
0.289746
0.305572
0.250662
0.299279
0.197994
244.059
163.756
86.7065
35.766
14.3877
6.7575
4.08506
2.89274
2.23853
2.76875
4.12959
5.40892
7.08071
7.19461
4.95583
2.20291
0.838776
0.353745
0.228101
0.195995
0.202522
0.224509
0.186584
229.571
142.21
70.0459
26.3629
11.8748
7.34454
5.75413
4.97129
4.4635
4.58273
4.90986
5.96281
7.49515
7.47365
5.48797
2.31922
0.668131
0.281681
0.186881
0.251466
0.145547
0.159796
0.214249
211.924
116.435
49.6375
17.9905
10.2944
8.29157
7.69059
7.55223
7.01621
7.02663
7.09234
7.94622
8.06388
7.14773
4.12
1.19393
0.240723
0.111393
0.0292632
0.137433
0.0907826
0.187183
0.0295895
192.404
95.0436
36.0178
15.0897
11.1471
10.4547
10.6015
10.3434
10.1938
9.7992
9.53234
9.75693
8.14711
5.4518
2.38265
0.631604
0.104187
0.128924
0.129537
0.0613518
0.0664841
0.11524
0.116109
174.867
80.4643
29.0353
15.3264
12.8433
12.8395
12.2333
11.3167
10.7864
10.5163
10.1382
9.33593
6.7823
4.10186
1.44864
0.366966
0.063609
-0.00959494
0.0136553
0.0672375
0.0253937
0.0846177
0.0537964
161.466
75.9484
30.6331
18.2218
15.3459
13.2951
11.4136
10.1287
9.38487
9.13973
7.76849
6.07461
2.96412
1.23
0.288483
0.0294752
0.0480489
0.0905727
0.0302757
0.078664
0.00757491
0.0230478
0.0172798
146.756
68.1036
28.4906
17.9204
13.7832
10.0832
7.17829
5.22011
4.49323
4.54657
2.82026
1.87144
0.650023
0.16817
-0.0321565
0.0691264
0.0182957
0.0327581
-0.0184621
-0.00620419
0.00607023
-0.0155055
-0.0197655
119.249
56.2727
23.989
13.9107
7.63465
3.36858
1.81686
1.04839
0.815533
0.766412
0.288314
0.13208
-0.0193854
-0.0150237
0.0409702
-0.00893131
-0.0346841
0.0519154
0.017968
-0.0064643
-0.0263576
0.0100857
-0.0508626
60.1562
12.9712
2.73818
0.259587
-0.310557
-0.41841
-0.265304
-0.0916551
-0.123188
-0.00625298
-0.0235667
-0.00540118
-0.0156641
-0.0163041
-0.0432142
-0.0350583
-0.0269684
-0.0651839
-0.0847824
-0.0525772
-0.0572563
-0.150866
-0.0565736
711.231
716.009
548.747
487.157
679.485
658.609
607.201
584.121
636.974
555.932
588.385
596.192
745.128
730.793
638.156
687.479
561.297
633.757
608.204
562.864
422.089
431.389
377.343
439.768
397.683
411.725
413.352
427.629
344.823
350.78
355.244
359.474
267.9
265.084
264.601
261.138
157.286
157.079
154.591
151.314
81.5069
81.2592
81.0803
79.0636
39.6414
39.7193
39.9609
39.3628
19.6981
19.4024
19.5774
18.464
9.9885
9.71674
9.35869
8.28963
4.39886
4.32831
4.00325
3.49875
1.74767
1.80576
1.65479
1.42986
0.614961
0.647378
0.61239
0.585232
0.406187
0.37982
0.365793
0.32179
0.516905
0.50484
0.488049
0.458754
0.479331
0.48045
0.471974
0.528853
0.496402
0.479704
0.491816
0.451914
0.469875
0.470692
0.515458
0.409447
0.430652
0.452387
0.460444
0.421224
0.409783
0.435834
0.428591
0.425987
0.411547
0.448652
0.412314
0.397116
0.396416
0.378022
0.415688
0.407664
0.415191
0.394772
0.355352
0.364098
0.388532
0.365675
0.36593
0.372161
0.336041
0.320375
0.320414
0.304485
0.347969
0.338271
0.312975
0.297761
0.201077
0.237375
0.210942
0.285831
0.219706
0.215375
0.280995
0.255239
0.224516
0.217634
0.246039
0.191837
0.176384
0.187654
0.141734
0.163076
0.178064
0.199314
0.110662
0.0684158
0.101102
0.0637227
0.107185
0.090969
0.0464893
0.0385478
0.0354243
0.0328248
0.097205
0.0582933
0.0803596
0.0363771
-0.0127705
-0.0430648
-0.0168671
-0.00019621
-0.011334
-0.0271749
-0.0606424
-0.0472529
-0.0138318
-0.0486395
-0.0843782
-0.099469
-0.12697
-0.13049
-0.107996
-0.111135
445.623
513.986
337.518
306.432
275.522
273.723
258.948
274.213
310.848
337.764
343.864
441.978
515.32
518.854
590.221
495.91
470.772
390.197
353.404
454.906
456.796
450.468
464.298
272.094
219.711
212.582
258.007
231.847
285.545
327.369
405.02
440.295
502.457
539.112
494.126
387.567
279.459
246.582
559.743
473.384
350.836
257.9
240.376
242.512
219.508
236.291
276.123
315.262
354.93
374.327
439.476
489.783
508.641
410.771
261.634
176.711
154.996
716.418
473.871
287.711
276.059
269.004
241.083
210.493
244.832
253.433
309.174
383.69
446.569
477.401
437.56
357.972
265.462
126.857
83.614
79.1872
493.998
398.543
310.306
275.725
265.936
277.436
269.175
290.007
343.113
447.628
458.35
420.543
378.233
278.596
184.308
117.494
54.5596
42.577
40.9043
429.268
458.525
357.411
380.44
396.233
382.735
405.14
382.805
419.732
371.866
329.936
215.07
150.57
103.227
64.8424
41.8794
26.5784
27.7462
27.3505
423.186
425.557
426.807
409.454
364.716
309.066
322.407
288.012
266.546
187.311
142.632
93.405
60.1704
38.93
26.2581
19.8585
17.9298
18.6116
19.5528
365.623
361.666
351.569
291.853
252.127
216.106
186.66
141.73
126.292
92.8094
68.0463
50.4354
34.2623
21.6488
17.6054
12.4747
14.4683
14.5116
15.8466
265.41
257.557
228.595
187.443
213.569
153.086
129.676
100.597
74.0936
55.7072
40.0065
30.16
22.7768
17.4662
14.3134
11.7438
11.4089
11.0674
12.462
145.01
136.288
142.965
127.687
121.146
118.425
99.4506
76.3619
61.9147
46.9551
36.0119
28.1929
21.7043
17.0321
13.4276
10.2881
9.48217
9.45691
10.2896
75.9331
64.7325
73.3355
81.5769
67.2647
66.1981
58.7394
59.481
50.1271
37.589
31.0731
26.3528
22.6412
18.3519
14.544
10.0862
7.93905
7.48151
7.67315
38.3168
34.5123
32.9824
33.4138
28.9829
32.6015
30.0733
29.8864
31.3983
24.9475
20.2631
17.3776
16.2622
14.4193
13.4354
9.09675
6.56768
6.10656
5.64649
16.7803
15.8915
14.1719
13.0012
11.5361
12.8222
11.7515
12.1481
13.8757
11.4507
9.5421
7.40663
7.53578
7.72412
9.53444
6.79426
5.09672
5.91192
7.30903
7.12262
5.78945
6.66885
4.9285
4.75559
5.53112
5.27004
4.40127
4.99074
4.28812
3.41759
2.6571
2.88214
3.37213
4.93168
4.28379
4.04973
4.7815
5.41423
2.72208
2.07897
2.2532
2.03706
2.12677
2.53918
2.24973
1.98676
1.86498
1.71073
1.48721
1.2984
1.29062
1.49839
2.0156
2.31385
3.20366
4.27951
5.04755
1.2105
0.874059
0.858139
0.93162
0.869944
1.22636
1.36397
1.20207
1.04541
1.02607
0.999538
1.00033
0.97142
1.00068
1.13709
1.5121
2.56842
3.65703
4.62481
0.734913
0.539314
0.659768
0.661517
0.805967
0.837081
0.962869
0.95156
0.847633
0.856891
0.855085
0.878306
0.869526
0.891957
0.918125
1.29212
2.31713
3.32335
4.28615
0.413046
0.508356
0.467898
0.531353
0.578989
0.729941
0.7168
0.796717
0.747228
0.794916
0.789229
0.834179
0.823789
0.852541
0.81674
1.08716
1.79394
3.01333
3.9945
0.388177
0.447462
0.555498
0.41828
0.568511
0.51132
0.651262
0.609492
0.691574
0.708129
0.742895
0.757868
0.775853
0.799111
0.806599
0.98031
1.65573
2.78426
3.84797
0.468669
0.536076
0.486768
0.638859
0.548404
0.549439
0.526886
0.718059
0.633243
0.70128
0.711139
0.732709
0.749731
0.745718
0.757861
0.913203
1.4827
2.56539
3.70057
0.430002
0.352033
0.505647
0.498163
0.39827
0.607266
0.547147
0.553129
0.674097
0.643494
0.68172
0.677236
0.703644
0.703428
0.73864
0.850463
1.34277
2.43149
3.61502
0.451632
0.524065
0.55312
0.43082
0.605384
0.503572
0.517902
0.616144
0.535896
0.664846
0.625769
0.693711
0.64398
0.700691
0.681916
0.780057
1.21514
2.30202
3.52524
0.413485
0.496753
0.482554
0.525678
0.514121
0.496888
0.560485
0.54039
0.608392
0.558361
0.608125
0.589687
0.643667
0.629163
0.651072
0.721621
1.13383
2.25465
3.36964
0.407701
0.487703
0.53741
0.519274
0.531464
0.483245
0.450407
0.588448
0.493234
0.609516
0.523239
0.616522
0.580786
0.673513
0.601598
0.701773
1.06026
2.1542
3.36073
0.349075
0.398921
0.405463
0.434077
0.444215
0.447542
0.495843
0.455317
0.599803
0.503844
0.563203
0.537865
0.631684
0.473423
0.623803
0.628285
1.01025
2.10973
3.2347
0.428107
0.410109
0.4456
0.389955
0.48882
0.398588
0.450732
0.444616
0.471966
0.502292
0.490182
0.528225
0.511424
0.545435
0.531437
0.609437
0.956557
1.99361
3.05095
0.307765
0.439094
0.380302
0.437075
0.3411
0.422535
0.441968
0.478186
0.447184
0.468869
0.50451
0.4782
0.551523
0.458711
0.484196
0.585142
0.875781
1.82039
2.91239
0.341614
0.293685
0.42598
0.378532
0.44463
0.3428
0.460611
0.358682
0.450728
0.436732
0.430851
0.484417
0.465746
0.521121
0.406829
0.549562
0.768305
1.66009
2.78454
0.354094
0.326523
0.332545
0.292443
0.237093
0.213208
0.383324
0.316193
0.377341
0.418329
0.397518
0.377939
0.428245
0.454744
0.439555
0.456229
0.70004
1.53817
2.69915
0.309282
0.286471
0.275642
0.298168
0.271425
0.338422
0.211012
0.286441
0.281983
0.408475
0.434659
0.270896
0.350615
0.441273
0.396724
0.426893
0.696762
1.43443
2.59768
0.236539
0.291671
0.283029
0.273335
0.288936
0.348624
0.264543
0.111884
0.276505
0.344513
0.304331
0.321051
0.357333
0.400995
0.348205
0.289873
0.584274
1.36959
2.50612
0.245194
0.259984
0.214763
0.16678
0.185271
0.231162
0.230564
0.19843
0.18526
0.267272
0.324465
0.258033
0.296897
0.258219
0.153039
0.297758
0.569832
1.32542
2.3698
0.18833
0.253154
0.191149
0.272493
0.0763892
0.198617
0.110496
0.370867
0.167398
0.0932791
0.316435
0.196145
0.25902
0.145737
0.2378
0.289263
0.594866
1.20023
2.27994
0.184181
0.270626
0.212163
0.323154
0.0771806
0.200152
0.249459
0.333534
0.206608
0.230597
0.271288
0.205457
0.216013
0.0164631
0.139205
0.150757
0.307083
1.08995
2.11158
0.12636
0.103799
0.0728812
0.0805619
0.174051
0.107957
0.140435
0.247076
0.247242
0.2504
0.240694
0.211717
0.0977986
0.218806
0.0994887
0.211066
0.445506
0.840253
2.03989
0.103632
0.0513601
0.120567
0.218387
0.123769
0.294687
0.282095
0.32494
0.310728
0.275099
0.306595
0.206742
0.255689
0.0447994
0.0258877
0.124522
0.135916
0.794528
1.85956
0.032466
-0.0214212
-0.0672763
0.0224555
0.0516286
0.0583558
0.205802
0.307936
0.322455
0.299875
0.22685
0.192809
0.100858
0.127773
0.081417
0.111319
0.237656
0.758032
1.82566
0.0276333
0.0643197
0.124829
0.0634203
0.187159
0.172731
0.278293
0.35968
0.345833
0.196246
0.229332
0.121432
0.242095
0.242489
0.173495
0.0349127
0.0854063
0.426741
1.91793
0.0100891
0.0327726
0.0505417
0.199139
0.0353952
0.275859
0.290172
0.316569
0.183961
0.177322
0.0803258
0.0665576
0.0473311
-0.0365993
0.0199193
-0.0480931
0.0480473
0.540826
1.73479
-0.0751967
-0.112929
-0.165179
-0.113365
0.0366289
0.191591
0.145912
0.306777
0.148013
0.0175667
0.0262899
0.0151875
0.0845826
0.156033
0.0323968
-0.000671981
0.126654
0.615326
1.6053
-0.112745
-0.0564341
-0.17114
-0.10479
-0.0146121
0.183978
0.265347
0.232821
0.0430932
0.000551025
0.05992
-0.0529502
0.0030302
0.0075524
0.0380078
-0.0322645
0.0433588
0.204008
1.34734
-0.120824
-0.297779
-0.0650275
-0.0848544
-0.0514203
-0.0488154
0.0635877
0.0831288
0.0225824
0.0324584
-0.00353544
-0.0155885
0.0290702
0.0358264
0.0069869
-0.0126775
0.0669174
0.104956
0.552131
)
;

boundaryField
{
    leftWall
    {
        type            zeroGradient;
    }
    rightWall
    {
        type            zeroGradient;
    }
    lowerWall
    {
        type            zeroGradient;
    }
    atmosphere
    {
        type            totalPressure;
        rho             rho;
        psi             none;
        gamma           1;
        p0              uniform 0;
        value           nonuniform List<scalar> 
46
(
0
0
0
0
-0.0132262
-0.109393
-0.0562547
-0.0425967
-0.0531709
-0.0215472
-0.046385
-0.0355943
-0.027745
-0.0305177
-0.0157641
-0.037725
-0.0516835
-0.0373678
-0.0571348
-0.0585772
-0.068129
-0.103515
-0.0791643
-0.112588
-0.122356
-0.129304
-0.136735
-0.14716
-0.213085
-0.155141
-0.140308
-0.0912627
-0.0352341
0
0
-6.28109e-05
-0.0121555
-0.0162957
-0.0246697
-0.000250983
0
0
0
0
0
0
)
;
    }
    defaultFaces
    {
        type            empty;
    }
}


// ************************************************************************* //
