/*--------------------------------*- C++ -*----------------------------------*\
| =========                 |                                                 |
| \\      /  F ield         | foam-extend: Open Source CFD                    |
|  \\    /   O peration     | Version:     4.1                                |
|   \\  /    A nd           | Web:         http://www.foam-extend.org         |
|    \\/     M anipulation  |                                                 |
\*---------------------------------------------------------------------------*/
FoamFile
{
    version     2.0;
    format      ascii;
    class       surfaceScalarField;
    location    "0.85";
    object      phi;
}
// * * * * * * * * * * * * * * * * * * * * * * * * * * * * * * * * * * * * * //

dimensions      [0 3 -1 0 0 0 0];

internalField   nonuniform List<scalar> 
4432
(
-2.70848e-06
2.70848e-06
-4.98017e-06
2.27169e-06
-5.14277e-06
1.62597e-07
-2.67708e-06
-2.46569e-06
-2.69619e-06
1.91093e-08
-2.61476e-06
-8.14252e-08
-2.76381e-06
1.49051e-07
-2.33986e-06
-4.23954e-07
-1.7276e-06
-6.1226e-07
1.51303e-07
-1.8789e-06
2.54935e-06
-2.39804e-06
6.54305e-06
-3.9937e-06
8.87061e-06
-2.32756e-06
1.16419e-05
-2.77134e-06
1.42287e-05
-2.5868e-06
1.71593e-05
-2.9306e-06
1.81049e-05
-9.45519e-07
1.73813e-05
7.23609e-07
9.03595e-06
8.34531e-06
1.41908e-05
-5.15487e-06
9.15094e-06
5.03988e-06
5.24515e-06
3.90579e-06
5.24515e-06
-1.86219e-07
2.8947e-06
-1.79776e-06
3.88323e-06
-2.2561e-06
6.20941e-07
-2.5823e-06
-2.1395e-06
-2.56926e-06
6.06959e-09
-2.44653e-06
-2.04155e-07
-2.37874e-06
8.1262e-08
-1.45764e-06
-1.34506e-06
-4.10513e-07
-1.65938e-06
2.11184e-06
-4.40125e-06
5.91756e-06
-6.20376e-06
6.75884e-06
-4.83499e-06
8.20758e-06
-3.77629e-06
1.0666e-05
-5.22975e-06
1.42284e-05
-6.14925e-06
1.70335e-05
-5.73563e-06
1.88378e-05
-2.74988e-06
1.87282e-05
8.33242e-07
1.86266e-05
8.44694e-06
7.96974e-06
5.50196e-06
8.26917e-06
4.74045e-06
5.89639e-06
6.27857e-06
1.11415e-05
-1.25857e-06
4.15328e-06
-1.84283e-06
4.46749e-06
-2.21635e-06
9.94464e-07
-2.47261e-06
-1.88324e-06
-2.35156e-06
-1.14984e-07
-2.17239e-06
-3.83321e-07
-2.21952e-06
1.28387e-07
-1.76359e-06
-1.80098e-06
-1.02456e-06
-2.39842e-06
4.19469e-07
-5.84528e-06
1.5767e-06
-7.36099e-06
2.4353e-06
-5.69359e-06
3.15016e-06
-4.49115e-06
5.41162e-06
-7.49122e-06
8.40566e-06
-9.14328e-06
7.11152e-06
-4.4415e-06
9.36166e-06
-5.00003e-06
1.78727e-05
-7.67779e-06
1.57199e-05
1.05997e-05
1.45545e-05
6.66735e-06
1.04769e-05
8.81811e-06
5.28965e-06
1.14658e-05
1.64312e-05
-2.24733e-06
6.40061e-06
-2.32416e-06
4.54431e-06
-2.26846e-06
9.3877e-07
-2.22094e-06
-1.93076e-06
-2.26426e-06
-7.16664e-08
-2.43898e-06
-2.08596e-07
-2.83011e-06
5.19516e-07
-2.28724e-06
-2.34385e-06
-1.35478e-06
-3.33088e-06
-2.97984e-06
-4.22022e-06
-3.14759e-06
-7.19325e-06
-2.69683e-06
-6.14435e-06
-1.32229e-06
-5.86569e-06
1.37878e-06
-1.01923e-05
2.44888e-06
-1.02134e-05
6.55827e-06
-8.55088e-06
1.01275e-05
-8.56925e-06
7.09486e-06
-4.64516e-06
1.39441e-05
3.75048e-06
1.29692e-05
7.64218e-06
8.28544e-06
1.35019e-05
3.20934e-06
1.65419e-05
1.96405e-05
-1.68373e-06
8.08434e-06
-2.30499e-06
5.16557e-06
-2.36719e-06
1.00097e-06
-2.47159e-06
-1.82636e-06
-2.58807e-06
4.48112e-08
-2.88205e-06
8.53866e-08
-3.05286e-06
6.90324e-07
-6.19335e-06
7.96642e-07
-5.88153e-06
-3.6427e-06
-6.55194e-06
-3.54981e-06
-7.58942e-06
-6.15577e-06
-5.18178e-06
-8.55198e-06
-2.41044e-06
-8.63703e-06
-5.71903e-07
-1.20308e-05
2.91937e-06
-1.37047e-05
6.10209e-06
-1.17336e-05
8.67342e-06
-1.11406e-05
4.9964e-06
-9.68132e-07
9.21056e-06
-4.63678e-07
6.15153e-06
1.07012e-05
7.76385e-06
1.18896e-05
1.70159e-07
2.41356e-05
1.98107e-05
-1.84273e-06
9.92707e-06
-2.97124e-06
6.29408e-06
-2.38035e-06
4.10072e-07
-1.81129e-06
-2.39542e-06
-2.04901e-06
2.82535e-07
-3.16751e-06
1.20388e-06
-4.92127e-06
2.44408e-06
-5.51258e-06
1.38796e-06
-1.02619e-05
1.10662e-06
-1.10397e-05
-2.77206e-06
-1.06474e-05
-6.548e-06
-8.42176e-06
-1.07777e-05
-4.92252e-06
-1.21363e-05
1.44812e-06
-1.84015e-05
5.37449e-06
-1.7631e-05
7.0449e-06
-1.3404e-05
4.73836e-06
-8.83404e-06
1.05905e-05
-6.82032e-06
4.90215e-06
5.22471e-06
4.65945e-06
1.09439e-05
7.62348e-06
8.92555e-06
6.27291e-06
2.54862e-05
2.60836e-05
-2.35266e-06
1.22797e-05
-7.32498e-06
1.12664e-05
-8.11235e-06
1.19744e-06
-8.40189e-06
-2.10588e-06
-1.00591e-05
1.93971e-06
-1.19697e-05
3.11457e-06
-1.28569e-05
3.33121e-06
-1.30575e-05
1.58858e-06
-1.28444e-05
8.93516e-07
-1.22128e-05
-3.40369e-06
-1.06082e-05
-8.15258e-06
-7.14044e-06
-1.42454e-05
-3.12219e-06
-1.61545e-05
2.12124e-07
-2.17358e-05
5.649e-06
-2.30679e-05
1.00449e-05
-1.77999e-05
1.28947e-05
-1.16839e-05
7.99241e-06
-1.918e-06
1.39971e-05
-7.79993e-07
6.26246e-06
1.86786e-05
4.75043e-06
1.04376e-05
6.53746e-06
2.36992e-05
3.26211e-05
-3.05443e-06
1.53342e-05
-6.07046e-06
1.42824e-05
-1.28677e-05
7.99465e-06
-1.27107e-05
-2.26282e-06
-1.40397e-05
3.26866e-06
-1.50417e-05
4.11654e-06
-1.53887e-05
3.67821e-06
-1.45138e-05
7.13744e-07
-1.23468e-05
-1.27347e-06
-1.08103e-05
-4.94019e-06
-9.42381e-06
-9.5391e-06
-8.90311e-06
-1.47661e-05
-7.34459e-06
-1.7713e-05
-1.44764e-07
-2.89356e-05
3.88452e-06
-2.70972e-05
1.24037e-05
-2.63191e-05
1.74369e-05
-1.67171e-05
1.31648e-05
2.35405e-06
2.38787e-05
-1.14939e-05
1.36462e-05
2.89111e-05
1.39628e-05
1.01209e-05
1.44983e-05
2.31636e-05
4.71194e-05
-8.57221e-05
8.57221e-05
-0.00019927
0.000113548
-0.00024392
4.465e-05
-0.000266145
2.22252e-05
-0.000275549
9.40402e-06
-0.000278085
2.53597e-06
-0.000266357
-1.17283e-05
-0.000250442
-1.59148e-05
-0.000225153
-2.52896e-05
-0.000193407
-3.17451e-05
-0.000163752
-2.96557e-05
-0.000135979
-2.77724e-05
-0.000111617
-2.43619e-05
-9.09342e-05
-2.06832e-05
-4.4463e-05
-4.64712e-05
-3.64147e-05
-8.04838e-06
-4.87905e-05
1.23759e-05
-2.84659e-05
-2.03247e-05
-2.84659e-05
-7.93121e-05
0.000165034
-0.000180777
0.000215013
-0.000211426
7.52985e-05
-0.000223369
3.41683e-05
-0.000214625
6.59855e-07
-0.000205042
-7.0469e-06
-0.000192271
-2.44989e-05
-0.000181185
-2.70009e-05
-0.000163054
-4.34213e-05
-0.000139276
-5.55229e-05
-0.000115989
-5.29427e-05
-9.92771e-05
-4.44841e-05
-4.36161e-05
-8.00229e-05
-3.21805e-05
-3.21188e-05
-3.08633e-05
-4.77884e-05
-3.39764e-05
-4.93527e-06
-2.43754e-05
2.77485e-06
-2.53015e-05
-1.93985e-05
-5.37674e-05
-6.6394e-05
0.000231428
-0.000132207
0.000280826
-0.000136531
7.96226e-05
-8.78813e-05
-1.44815e-05
-0.000129173
4.19516e-05
-0.000110522
-2.56976e-05
-0.000103597
-3.14242e-05
-0.000100808
-2.97905e-05
-9.30769e-05
-5.1152e-05
-7.34763e-05
-7.51235e-05
-5.52325e-05
-7.11865e-05
-3.94807e-05
-6.02359e-05
-4.20347e-05
-7.74689e-05
-1.75055e-05
-5.66481e-05
-1.63448e-05
-4.8949e-05
-2.24104e-05
1.13037e-06
-1.80926e-05
-1.54301e-06
-1.35617e-05
-2.39295e-05
-6.7329e-05
-4.76567e-05
0.000279085
-8.40713e-05
0.000317241
-8.4057e-05
7.96083e-05
-9.2725e-05
-5.81367e-06
-7.58225e-05
2.50492e-05
-5.23115e-05
-4.92086e-05
-2.60335e-05
-5.77021e-05
-5.27346e-05
-3.08935e-06
-5.45423e-05
-4.93443e-05
-4.46685e-05
-8.49973e-05
-3.00809e-05
-8.57741e-05
-1.53591e-05
-7.49576e-05
-1.05834e-05
-8.22446e-05
1.8388e-06
-6.90703e-05
4.74558e-06
-5.18558e-05
1.62346e-06
4.25249e-06
-5.47085e-06
5.5513e-06
-1.03932e-05
-1.90071e-05
-7.77223e-05
-3.33457e-05
0.000312431
-4.6003e-05
0.000329898
-4.50516e-05
7.86568e-05
-5.50836e-05
4.21834e-06
-3.67805e-05
6.74608e-06
-2.02718e-05
-6.57174e-05
-1.64023e-05
-6.15716e-05
-1.89274e-05
-5.64162e-07
-5.17862e-06
-6.30932e-05
1.17432e-06
-9.13503e-05
2.1415e-06
-8.67412e-05
3.89184e-06
-7.6708e-05
9.60885e-06
-8.79616e-05
1.71614e-05
-7.66229e-05
8.4429e-06
-4.31373e-05
5.70794e-06
6.98745e-06
6.32265e-06
4.93659e-06
-7.27791e-07
-1.19566e-05
-7.84501e-05
-2.00911e-05
0.000332522
-1.68973e-05
0.000326705
-2.13162e-05
8.30757e-05
-3.09937e-05
1.38958e-05
-1.70422e-05
-7.20549e-06
-3.17084e-06
-7.95887e-05
-8.41298e-06
-5.63295e-05
3.92703e-06
-1.29042e-05
2.03284e-05
-7.94945e-05
2.47388e-05
-9.57606e-05
2.19516e-05
-8.39541e-05
2.14497e-05
-7.6206e-05
1.37587e-05
-8.02706e-05
1.46108e-05
-7.7475e-05
2.26894e-05
-5.12159e-05
1.99684e-05
9.70838e-06
1.40307e-05
1.08743e-05
3.81812e-06
-1.74403e-06
-7.46319e-05
-1.23983e-05
0.00034492
3.66938e-06
0.000310637
4.41084e-06
8.23342e-05
-1.1344e-06
1.9441e-05
3.86302e-06
-1.22029e-05
8.19498e-06
-8.39207e-05
7.71766e-06
-5.58522e-05
2.51421e-05
-3.03286e-05
3.46636e-05
-8.90161e-05
4.2308e-05
-0.000103405
3.61712e-05
-7.78173e-05
3.18317e-05
-7.18665e-05
3.32448e-05
-8.16836e-05
1.74922e-05
-6.17225e-05
1.63765e-05
-5.01002e-05
2.62703e-05
-1.85412e-07
1.64992e-05
2.06454e-05
1.00876e-05
4.66759e-06
-6.45443e-05
-9.51503e-06
0.000354435
2.34742e-05
0.000277648
1.16199e-05
9.41885e-05
8.63082e-06
2.24301e-05
1.38334e-05
-1.74055e-05
1.99327e-05
-9.00201e-05
2.48979e-05
-6.08173e-05
5.22295e-05
-5.76602e-05
5.11644e-05
-8.79509e-05
2.71413e-05
-7.9382e-05
2.40622e-05
-7.47382e-05
3.80649e-05
-8.58692e-05
3.63211e-05
-7.99399e-05
3.36368e-05
-5.90382e-05
3.36609e-05
-5.01243e-05
2.81362e-05
5.33934e-06
9.56363e-06
3.92179e-05
1.1134e-05
3.09722e-06
-5.34103e-05
-7.45602e-06
2.27902e-05
-1.39374e-05
2.07638e-05
-1.83873e-05
1.24446e-05
-3.13353e-05
1.06852e-05
-3.11409e-05
3.0742e-06
-3.43088e-05
7.28444e-06
-3.34112e-05
2.78069e-06
-3.17267e-05
-9.70766e-07
-2.99327e-05
-3.06754e-06
-2.68664e-05
-8.00645e-06
-2.14928e-05
-1.49127e-05
-1.6527e-05
-1.97319e-05
-1.15307e-05
-2.27093e-05
-1.2675e-05
-2.77914e-05
4.36749e-06
-4.41396e-05
3.05056e-05
-5.24572e-05
4.0338e-05
-2.65495e-05
5.07215e-05
-8.0294e-06
3.38609e-05
5.36676e-06
4.52325e-05
1.75395e-05
2.1689e-05
3.36644e-05
2.48906e-05
1.9962e-05
1.07636e-05
6.12464e-05
-8.64782e-06
3.1438e-05
-1.36128e-05
2.57288e-05
-1.24135e-05
1.12453e-05
-1.11649e-05
9.43649e-06
-2.1709e-05
1.36183e-05
-2.46979e-05
1.02734e-05
-2.96492e-05
7.73191e-06
-3.27075e-05
2.08752e-06
-3.7349e-05
1.57401e-06
-4.16306e-05
-3.72489e-06
-5.49502e-05
-1.593e-06
-6.4267e-05
-1.04151e-05
-5.30386e-05
-3.39377e-05
-2.98931e-05
-5.09369e-05
-1.87658e-05
-5.52669e-05
-1.17696e-05
-5.94534e-05
1.51273e-05
-5.34465e-05
2.03955e-05
-1.32976e-05
3.30433e-05
-7.28106e-06
1.6257e-05
3.43258e-05
2.47777e-05
2.51438e-05
3.65458e-05
8.19391e-06
6.75588e-06
4.05536e-05
-6.64685e-06
3.80848e-05
-7.28499e-06
2.63669e-05
-1.55962e-05
1.95566e-05
-2.05357e-05
1.4376e-05
-1.37892e-05
6.87177e-06
-1.54305e-05
1.19147e-05
-1.49853e-05
7.28671e-06
-2.88173e-05
1.59194e-05
-3.36477e-05
6.40449e-06
-5.44674e-05
1.70947e-05
-5.0924e-05
-5.13642e-06
-9.06814e-05
2.93423e-05
-9.59477e-05
-2.86715e-05
-0.00012026
-2.66249e-05
-0.000126692
-4.88343e-05
-0.000127047
-5.90987e-05
-0.000108657
-7.18366e-05
-8.07392e-05
-4.12154e-05
-6.91221e-05
-1.88981e-05
-3.79328e-05
3.13644e-06
-2.19381e-05
9.14914e-06
-2.88692e-05
1.5125e-05
4.47803e-05
-6.68937e-05
-5.74594e-06
4.38308e-05
-6.2582e-07
2.12468e-05
1.27961e-05
6.13461e-06
2.2182e-05
4.9901e-06
1.17137e-05
1.73401e-05
1.46995e-05
8.92891e-06
1.54484e-05
6.53784e-06
-1.92955e-05
5.06634e-05
-4.60688e-05
3.31777e-05
-6.43811e-05
3.54071e-05
-9.72419e-05
2.77243e-05
-8.17274e-05
1.38279e-05
-0.000128292
1.78934e-05
-0.000136095
-1.88221e-05
-0.000163295
-2.16346e-05
-0.000183904
-3.8489e-05
-0.000183667
-7.2074e-05
-0.000181302
-4.35802e-05
-0.00018352
-1.66804e-05
-0.00016853
-1.18539e-05
-0.000153363
-6.01778e-06
-0.000155237
1.6999e-05
3.52633e-05
-0.00014572
1.56278e-06
4.2268e-05
1.87238e-05
4.08583e-06
4.56685e-05
-2.08101e-05
7.88834e-05
-2.82249e-05
8.225e-05
1.39735e-05
5.95245e-05
3.16544e-05
1.65964e-05
4.94659e-05
-7.29167e-06
7.45515e-05
-3.4348e-05
6.02341e-05
-5.37039e-05
5.4763e-05
-6.18832e-05
3.59037e-05
-8.8994e-05
4.09387e-05
-0.000106743
3.56419e-05
-0.000133768
8.20351e-06
-0.000107558
-4.7845e-05
-0.000109774
-3.6273e-05
-0.000170509
-1.13386e-05
-0.000180025
-3.4064e-05
-0.0001924
-4.30595e-06
-0.000199518
-4.73607e-06
-0.000187755
-1.77808e-05
-0.000181547
1.07909e-05
2.79944e-05
-0.000174278
6.78482e-06
3.54832e-05
3.12678e-05
-2.03972e-05
7.14673e-05
-6.10096e-05
4.77388e-05
-4.49629e-06
2.6836e-05
3.48763e-05
-1.19918e-05
7.04822e-05
-4.28847e-05
8.03588e-05
-5.77742e-05
8.94409e-05
-9.41178e-05
9.65777e-05
-0.000122604
8.32488e-05
-0.000127789
4.10891e-05
-0.000142238
5.5388e-05
-0.000147384
4.07878e-05
-0.000163152
2.39707e-05
-0.000208078
-2.91817e-06
-0.000242853
-1.49866e-06
-0.000258996
4.80437e-06
-0.000275151
-1.79082e-05
-0.00021044
-6.9017e-05
-0.000198952
-1.6224e-05
-0.000233794
1.70611e-05
-0.000226344
3.34042e-06
1.23318e-05
-0.000210681
-6.47266e-06
4.19558e-05
-2.29366e-05
-3.93327e-06
-8.20068e-05
-1.93929e-06
-0.000142409
5.59063e-05
-0.000163967
5.64334e-05
-0.000170214
7.67295e-05
-0.00017301
8.31548e-05
-0.000175358
9.1789e-05
-0.000172187
9.34066e-05
-0.000174934
8.59965e-05
-0.000184531
5.06861e-05
-0.00020756
7.84167e-05
-0.000212264
4.5492e-05
-0.000243559
5.52653e-05
-0.000268427
2.19502e-05
-0.000279503
9.57696e-06
-0.000301424
2.67259e-05
-0.000308598
-1.07351e-05
-0.000315949
-6.16654e-05
-0.000323382
-8.7911e-06
-0.000311911
5.5897e-06
-0.000298383
-1.01878e-05
-1.03367e-05
-0.000275714
-3.97068e-05
8.16627e-05
-6.80307e-05
2.43907e-05
-0.00016588
9.59101e-05
-0.000200085
9.0111e-05
-0.000218492
7.48402e-05
-0.000228024
8.62615e-05
-0.000230795
8.5926e-05
-0.000228252
8.92458e-05
-0.000222091
8.7246e-05
-0.000219829
8.37347e-05
-0.000240435
7.12923e-05
-0.000240364
7.83455e-05
-0.000240882
4.601e-05
-0.000242141
5.6524e-05
-0.000258534
3.83434e-05
-0.000266728
1.77705e-05
-0.000198228
-4.17733e-05
-0.00019659
-1.23731e-05
-0.000257847
-4.08694e-07
-0.000250916
-1.57219e-05
-0.000246024
6.97567e-07
-0.000248239
-7.97273e-06
-2.01927e-05
-0.000238383
-5.41035e-05
0.000135766
-0.000107023
7.73102e-05
-0.000179172
0.000168059
-0.000219863
0.000130802
-0.000241911
9.6888e-05
-0.000262513
0.000106864
-0.000272612
9.60251e-05
-0.00028059
9.72235e-05
-0.000278585
8.52408e-05
-0.000265741
7.08906e-05
-0.000266512
7.2063e-05
-0.000262235
7.40692e-05
-0.000268768
5.25426e-05
-0.000259627
4.73832e-05
-0.000243663
2.23793e-05
-0.000225318
-5.74893e-07
-0.000240217
-2.68741e-05
-0.000238992
-1.35978e-05
-0.000229774
-9.62703e-06
-0.000233374
-1.2122e-05
-0.000166336
-6.63404e-05
-0.000154986
-1.93221e-05
1.37047e-05
-0.000188884
-8.23168e-05
0.000218083
-0.000148699
0.000143692
-0.000191094
0.000210453
-0.000234613
0.000174322
-0.000233485
9.576e-05
-0.000264209
0.000137587
-0.000286574
0.00011839
-0.00030605
0.000116699
-0.000324628
0.00010382
-0.000316653
6.29157e-05
-0.000320216
7.56259e-05
-0.00030077
5.46225e-05
-0.000271605
2.3378e-05
-0.00025525
3.10279e-05
-0.000240814
7.94377e-06
-0.000228479
-1.29103e-05
-0.000217847
-3.7506e-05
-0.000192692
-3.87527e-05
-0.000176459
-2.58596e-05
-0.000165554
-2.30278e-05
-0.000191179
-4.07146e-05
-0.000196926
-1.35759e-05
-6.29354e-06
-0.000176927
-6.14e-05
0.000279483
-0.000102049
0.000184341
-9.55492e-05
0.000203953
-0.000116739
0.000195512
-0.000225041
0.000204062
-0.000239036
0.000151582
-0.000238257
0.000117611
-0.00015936
3.78018e-05
-0.000148764
9.32239e-05
-0.000219346
0.000133497
-0.000203091
5.9371e-05
-0.000180871
3.24027e-05
-0.000183754
2.62616e-05
-0.000188079
3.53527e-05
-0.000170087
-1.00489e-05
-0.000149948
-3.30483e-05
-0.000143818
-4.36368e-05
-0.000137976
-4.45941e-05
-0.000126398
-3.74382e-05
-0.000118027
-3.13988e-05
-0.000117683
-4.10586e-05
-0.000109845
-2.14137e-05
-2.60639e-05
-9.00745e-05
-2.33242e-05
0.000302807
-0.000131744
0.000292761
-0.000159577
0.000231786
-0.000170287
0.000206222
-0.000119129
0.000152903
-0.000103375
0.000135829
-0.000116778
0.000131014
-0.000134597
5.56212e-05
-0.000121857
8.04837e-05
-6.75135e-05
7.91536e-05
-3.71818e-05
2.90394e-05
-4.69423e-05
4.21632e-05
-7.58343e-05
5.51536e-05
-6.76237e-05
2.71421e-05
-3.8167e-05
-3.95056e-05
-3.34909e-05
-3.77245e-05
-4.56555e-05
-3.14721e-05
-6.08587e-05
-2.9391e-05
-7.63448e-05
-2.19521e-05
-8.55618e-05
-2.21818e-05
-9.15041e-05
-3.51163e-05
-8.96721e-05
-2.32458e-05
-3.13585e-05
-8.43774e-05
-3.63697e-05
0.000339177
-5.90676e-05
0.000315459
-0.000114181
0.0002869
-0.0001127
0.000204741
-8.40377e-05
0.000124241
-0.000106346
0.000158138
-8.71323e-05
0.0001118
-6.0776e-05
2.92648e-05
-4.32154e-05
6.29232e-05
2.68795e-05
9.05862e-06
2.40535e-05
3.18654e-05
4.61086e-06
6.16058e-05
-7.09677e-06
6.68612e-05
-5.55775e-06
2.56031e-05
-1.21841e-05
-3.28793e-05
-3.14657e-05
-1.84428e-05
-2.8788e-05
-3.41499e-05
-3.8447e-05
-1.97319e-05
-3.98936e-05
-2.05055e-05
-4.14996e-05
-2.05757e-05
-4.74992e-05
-2.91167e-05
-4.31865e-05
-2.75585e-05
-2.87495e-05
-4.57955e-05
-1.8114e-05
0.000357291
-3.54831e-05
0.000332829
-5.28155e-05
0.000304232
-5.48559e-05
0.000206782
-7.71026e-05
0.000146487
-1.51116e-05
9.61468e-05
-3.48071e-06
0.000100169
-1.51489e-05
4.0933e-05
-1.21982e-05
5.99725e-05
8.20799e-06
-1.13476e-05
2.84494e-05
1.1624e-05
2.49739e-05
6.50813e-05
1.56085e-05
7.62266e-05
-1.05425e-05
5.17542e-05
-6.46629e-05
2.12412e-05
-0.00010701
2.39038e-05
-0.000129303
-1.18565e-05
-0.00011339
-3.56448e-05
-8.75824e-05
-4.63131e-05
-7.47353e-05
-3.34228e-05
-7.21759e-05
-3.16762e-05
-7.22918e-05
-2.74425e-05
-3.25953e-05
-6.84461e-05
-9.76935e-06
0.00036706
-2.62986e-05
0.000349358
-3.58679e-05
0.000313801
-3.43911e-05
0.000205305
-2.42977e-05
0.000136394
-3.1612e-05
0.000103461
2.17074e-05
4.68496e-05
-7.3834e-06
7.00238e-05
-2.15556e-05
7.41447e-05
-2.39523e-05
-8.95091e-06
-5.12019e-06
-7.20816e-06
9.39008e-06
5.05711e-05
2.55759e-05
6.00407e-05
3.15613e-05
4.57687e-05
4.26438e-05
1.01587e-05
5.16365e-05
1.49111e-05
4.22007e-05
-2.42075e-06
2.02889e-05
-1.37329e-05
1.02132e-05
-3.62374e-05
1.11342e-05
-3.43438e-05
4.92014e-06
-2.54621e-05
1.92899e-06
-2.44514e-05
-1.90342e-05
-1.16321e-05
-3.89352e-07
0.00036745
-7.76704e-06
0.000356735
-2.14358e-05
0.00032747
-2.14311e-05
0.0002053
-3.33423e-05
0.000148305
-9.16365e-06
7.92824e-05
2.10466e-06
3.55813e-05
1.31794e-05
5.8949e-05
-1.50076e-05
0.000102332
-3.50188e-05
1.10603e-05
-4.38645e-05
1.63752e-06
-2.4232e-05
3.09386e-05
3.03527e-06
3.27734e-05
1.85504e-05
3.02536e-05
2.97802e-05
-1.07116e-06
3.52525e-05
9.43883e-06
4.25375e-05
-9.7057e-06
5.36564e-05
-2.48519e-05
3.86434e-05
-2.12243e-05
2.00575e-05
-1.5758e-05
3.77068e-05
-4.31115e-05
4.01097e-05
-2.68543e-05
-1.64917e-05
3.75673e-05
5.72702e-06
0.000361723
-1.27164e-06
0.000363734
-1.30342e-05
0.000339233
2.35303e-05
0.000168736
1.17659e-06
0.000170659
-1.21779e-05
9.26369e-05
7.86977e-06
1.55337e-05
2.70507e-05
3.97681e-05
1.99859e-05
0.000109396
-1.20592e-05
4.31054e-05
-3.10888e-05
2.06671e-05
-1.47975e-05
1.46474e-05
-1.63699e-05
3.43458e-05
1.51105e-05
-1.22672e-06
2.61074e-05
-1.2068e-05
4.47765e-05
-9.23034e-06
4.50585e-05
-9.98772e-06
3.41469e-05
-1.39403e-05
5.94697e-05
-4.65471e-05
5.4901e-05
-1.11893e-05
5.54833e-05
-4.36938e-05
4.06339e-05
-1.20048e-05
-2.52612e-05
4.94033e-05
1.07874e-05
0.000350935
1.54573e-05
0.000359064
2.36395e-05
0.000331051
6.25326e-06
0.000186122
1.56742e-05
0.000161238
3.30595e-05
7.52515e-05
3.47061e-05
1.3887e-05
4.68778e-05
2.75964e-05
7.39798e-05
8.22945e-05
5.48986e-05
6.21866e-05
-7.12219e-07
7.62779e-05
-1.10178e-05
2.49529e-05
-2.93688e-06
2.62649e-05
2.03472e-05
-2.45108e-05
3.07425e-05
-2.24633e-05
3.92913e-05
-1.77792e-05
5.39483e-05
-2.46446e-05
6.21186e-05
-2.21106e-05
4.14381e-05
-2.58666e-05
6.01968e-05
-2.9948e-05
4.56724e-05
-2.91694e-05
8.04837e-05
-4.68161e-05
-3.21383e-05
8.73609e-05
1.03088e-05
0.000340626
2.76564e-05
0.000341716
5.72904e-05
0.000301417
-2.86378e-05
0.00027205
-1.2394e-06
0.000133839
3.28227e-05
4.11894e-05
4.7139e-05
-4.29299e-07
5.86046e-05
1.61308e-05
0.000115309
2.55904e-05
0.000124727
5.27685e-05
6.04646e-05
0.00014054
2.40242e-05
6.13933e-05
2.15553e-05
2.87338e-05
1.52319e-05
-1.81875e-05
1.71884e-05
-2.44198e-05
3.5225e-05
-3.58158e-05
6.05594e-05
-4.9979e-05
5.98448e-05
-2.1396e-05
6.82524e-05
-3.42741e-05
6.43668e-05
-2.60624e-05
6.20143e-05
-2.68169e-05
5.98642e-05
-4.4666e-05
-4.34591e-05
7.1185e-05
1.74398e-05
0.000323187
2.583e-05
0.000333326
5.19733e-05
0.000275273
4.80857e-05
0.000275938
2.75542e-05
0.000154371
2.60217e-05
4.27219e-05
4.32103e-05
-1.76179e-05
7.30273e-05
-1.36862e-05
0.000108659
-1.00412e-05
0.00010752
5.39078e-05
8.96535e-05
0.000158406
2.41742e-05
0.000126873
1.07135e-07
5.28008e-05
2.18742e-05
-3.99545e-05
4.825e-05
-5.07957e-05
5.04067e-05
-3.79724e-05
5.98685e-05
-5.94409e-05
6.83625e-05
-2.989e-05
7.71203e-05
-4.30319e-05
6.7429e-05
-1.63711e-05
7.33534e-05
-3.27413e-05
7.59514e-05
-4.72639e-05
-4.42586e-05
7.67509e-05
1.38225e-05
0.000309364
1.30288e-05
0.00033412
9.66459e-05
0.000191656
9.50666e-05
0.000277517
8.73667e-05
0.000162071
8.18421e-05
4.82465e-05
9.79833e-05
-3.37592e-05
0.000134933
-5.0636e-05
0.000146788
-2.1896e-05
0.000108459
9.22364e-05
0.000121039
0.000145827
9.29267e-05
0.000154985
8.24055e-05
6.33219e-05
5.42257e-05
-1.17747e-05
2.75212e-05
-2.40912e-05
6.68992e-05
-7.73504e-05
6.70372e-05
-5.95788e-05
8.09241e-05
-4.3777e-05
5.0001e-05
-1.21088e-05
7.4634e-05
-4.10041e-05
6.35136e-05
-2.16209e-05
3.77434e-05
-2.14937e-05
-5.01563e-05
4.36411e-05
1.58709e-05
0.000293493
3.64408e-05
0.00031355
5.2413e-05
0.000175684
7.87502e-05
0.00025118
0.000101159
0.000139662
0.00012243
2.69748e-05
0.000129237
-4.05656e-05
9.5334e-05
-1.67332e-05
0.000105084
-3.16464e-05
0.000184296
1.30244e-05
0.000171061
0.000159062
0.000148716
0.00017733
9.94095e-05
0.000112628
5.8641e-05
2.89938e-05
9.54271e-05
-6.08772e-05
9.33318e-05
-7.52552e-05
8.87576e-05
-5.50047e-05
8.34064e-05
-3.84257e-05
7.88171e-05
-7.51955e-06
7.08736e-05
-3.30605e-05
7.94963e-05
-3.02436e-05
8.67488e-05
-2.87462e-05
-5.00809e-05
8.66734e-05
6.67577e-06
0.000286817
3.17694e-05
0.000288456
4.27675e-05
0.000164686
8.45431e-05
0.000209404
0.000103657
0.000120549
0.000123354
7.27805e-06
9.12697e-05
-8.48161e-06
0.000100835
-2.62989e-05
0.000141562
-7.23733e-05
0.000157331
-2.74413e-06
0.000152365
0.000164028
0.000141246
0.00018845
0.000145638
0.000108236
0.000148601
2.60305e-05
0.000114901
-2.71771e-05
6.08305e-05
-2.1185e-05
5.2769e-05
-4.69431e-05
4.53723e-05
-3.1029e-05
7.04051e-05
-3.25523e-05
7.2055e-05
-3.47105e-05
7.09717e-05
-2.91602e-05
7.11522e-05
-2.89266e-05
-3.54119e-05
5.64832e-05
-1.44443e-05
0.000301262
6.03419e-05
0.00021367
5.43247e-05
0.000170703
6.72458e-05
0.000196483
0.000104592
8.32029e-05
0.000110022
1.84767e-06
0.000120714
-1.9174e-05
0.000128946
-3.45309e-05
0.000128506
-7.19334e-05
0.000121014
4.74865e-06
0.000119716
0.000165325
0.00011411
0.000194056
0.00014348
7.88669e-05
0.000135172
3.43381e-05
0.000128087
-2.00923e-05
0.000114502
-7.60014e-06
9.18239e-05
-2.42648e-05
7.77923e-05
-1.69975e-05
7.70614e-05
-3.18214e-05
8.06518e-05
-3.83008e-05
7.96768e-05
-2.81853e-05
8.11298e-05
-3.03796e-05
-1.1605e-05
5.73229e-05
6.50037e-06
0.000294761
1.58509e-05
0.00020432
5.22592e-05
0.000134295
7.56175e-05
0.000173125
0.00010569
5.31307e-05
0.000111113
-3.57601e-06
0.000107113
-1.51735e-05
9.26117e-05
-2.00296e-05
4.44278e-05
-2.37494e-05
1.20635e-05
3.7113e-05
2.33904e-05
0.000153998
0.00010516
0.000112286
6.04054e-05
0.000123621
8.97279e-05
5.01563e-06
4.97465e-05
1.98892e-05
4.07578e-05
1.38857e-06
3.33589e-05
-1.68659e-05
4.88323e-05
-3.24709e-05
5.09014e-05
-3.38905e-05
4.02539e-05
-2.76533e-05
4.28931e-05
-3.08245e-05
4.66905e-05
-3.4177e-05
-2.32936e-05
5.83792e-05
-7.19134e-07
0.000295481
1.08179e-05
0.000192783
3.23575e-05
0.000112755
7.32094e-05
0.000132273
9.49366e-05
3.14035e-05
8.42141e-05
7.14642e-06
6.84514e-05
5.89203e-07
3.76403e-05
1.07815e-05
-4.16536e-06
1.80562e-05
-1.96233e-05
5.25709e-05
6.80302e-06
0.000127572
5.62514e-06
0.000113464
4.36564e-05
8.559e-05
3.388e-05
1.47921e-05
4.02554e-05
1.35137e-05
4.815e-05
-6.50595e-06
4.42637e-05
-1.29797e-05
2.77711e-05
-1.59783e-05
3.71732e-05
-4.32926e-05
4.63032e-05
-3.67833e-05
4.55329e-05
-3.00542e-05
4.06443e-05
-2.92884e-05
-3.01645e-05
4.75151e-05
1.83128e-06
0.000293649
1.47729e-05
0.000179841
1.5831e-05
0.000111697
7.85384e-05
6.95652e-05
6.36166e-05
4.63254e-05
4.71253e-05
2.36377e-05
2.21392e-05
2.55753e-05
-4.31309e-05
7.60516e-05
-4.60911e-05
2.10164e-05
-7.26391e-05
7.91189e-05
-4.36455e-05
9.85783e-05
-1.162e-06
7.09807e-05
4.03992e-05
4.40289e-05
4.50781e-05
1.01132e-05
3.34346e-05
2.51573e-05
2.92913e-05
-2.36268e-06
2.38888e-05
-7.57713e-06
4.42085e-05
-3.6298e-05
5.05596e-05
-4.96437e-05
3.33236e-05
-1.95473e-05
3.59993e-05
-3.27299e-05
3.7191e-05
-3.048e-05
-3.29134e-05
3.994e-05
7.07066e-06
0.000286579
2.82643e-05
0.000158647
3.3484e-05
0.000106477
2.93574e-05
7.36918e-05
4.58749e-05
2.98078e-05
2.96e-05
3.99126e-05
-3.77019e-06
5.89455e-05
-4.49826e-05
0.000117264
-9.68723e-05
7.29061e-05
-8.71956e-05
6.94421e-05
-7.64379e-05
8.78207e-05
-5.4369e-05
4.89118e-05
-1.95567e-05
9.21653e-06
4.37609e-07
-9.88114e-06
1.74655e-05
8.12945e-06
1.08996e-05
4.20315e-06
2.44105e-05
-2.1088e-05
3.25452e-05
-4.44327e-05
2.83469e-05
-4.54454e-05
5.14595e-05
-4.26599e-05
4.48335e-05
-2.6104e-05
4.88349e-05
-3.44814e-05
-2.77127e-05
4.36341e-05
6.72659e-06
0.000279852
1.82492e-05
0.000147125
2.12229e-05
0.000103504
2.09872e-05
7.39275e-05
1.94914e-05
3.13035e-05
1.83415e-06
5.75699e-05
-2.85861e-05
8.93657e-05
-5.04037e-05
0.000139082
-9.93146e-05
0.000121817
-0.000112799
8.2927e-05
-0.000108278
8.32988e-05
-8.29493e-05
2.35836e-05
-6.64238e-05
-7.30899e-06
-3.54227e-05
-4.08823e-05
-1.61458e-06
-2.56786e-05
8.35248e-06
-5.7639e-06
2.70765e-05
-3.9812e-05
3.1341e-05
-4.86972e-05
3.66511e-05
-5.07554e-05
3.47939e-05
-4.08028e-05
3.07395e-05
-2.20495e-05
4.88593e-05
-5.26012e-05
-3.08538e-05
5.20004e-05
6.66014e-05
0.000213251
4.74342e-05
0.000166292
4.30252e-05
0.000107913
3.15523e-05
8.54005e-05
1.47307e-05
4.81251e-05
-1.43778e-05
8.66784e-05
-4.15479e-05
0.000116536
-1.96252e-05
0.000117159
-0.000113117
0.000215309
-0.000166709
0.000136519
-0.000153367
6.99567e-05
-0.00013207
2.28668e-06
-0.000110979
-2.84003e-05
-6.94489e-05
-8.24126e-05
-2.13845e-05
-7.3743e-05
3.92214e-06
-3.10705e-05
1.67436e-05
-5.26335e-05
2.54597e-05
-5.74133e-05
2.43031e-05
-4.95988e-05
3.99157e-05
-5.64153e-05
5.44641e-05
-3.65979e-05
4.42409e-05
-4.2378e-05
-3.50993e-05
4.84864e-05
4.8886e-06
0.000208362
1.62769e-05
0.000154904
1.73571e-05
0.000106832
1.25743e-05
9.01832e-05
-7.15491e-07
6.1415e-05
-2.54666e-05
0.00011143
-4.25477e-05
0.000133617
-5.92577e-05
0.000133869
-5.4181e-05
0.000210232
-7.40907e-05
0.000156429
-6.98457e-05
6.57118e-05
-0.000106319
3.87597e-05
-9.38002e-05
-4.09188e-05
-6.40765e-05
-0.000112136
-2.10367e-05
-0.000116783
5.43861e-07
-5.26511e-05
1.29289e-05
-6.50186e-05
2.76547e-05
-7.21391e-05
3.59989e-05
-5.79431e-05
1.91195e-05
-3.95359e-05
2.89621e-05
-4.64405e-05
4.94832e-05
-6.28991e-05
-4.41494e-05
5.85333e-05
-1.03564e-06
0.000209398
1.07892e-05
0.000143079
5.02996e-06
0.000112592
7.94972e-06
8.72635e-05
-8.14402e-06
7.75087e-05
-2.32915e-05
0.000126577
-3.54683e-05
0.000145794
-4.2141e-05
0.000140542
-3.65002e-05
0.000204591
-5.02198e-05
0.000170149
-8.16406e-05
9.71325e-05
-5.83561e-05
1.54752e-05
-6.2422e-05
-3.68529e-05
-4.15811e-05
-0.000132977
-3.02895e-05
-0.000128074
1.84538e-05
-0.000101394
3.10358e-05
-7.76006e-05
2.82748e-05
-6.93781e-05
2.5489e-05
-5.51573e-05
6.2084e-05
-7.61308e-05
5.05285e-05
-3.48851e-05
2.80793e-05
-4.04499e-05
-6.62077e-05
5.01377e-05
-2.35255e-06
0.00021175
1.48878e-06
0.000139238
-4.35112e-06
0.000118432
-1.2445e-07
8.30368e-05
-1.21892e-05
8.95734e-05
-2.66348e-05
0.000141023
-3.00729e-05
0.000149232
-4.93713e-05
0.00015984
1.00149e-05
0.000145205
6.60221e-05
0.000114141
1.52006e-05
0.000147954
-4.04788e-06
3.47237e-05
2.65922e-05
-6.7493e-05
1.41899e-05
-0.000120575
1.18198e-05
-0.000125704
2.44757e-05
-0.00011405
7.9868e-06
-6.11117e-05
1.6912e-05
-7.83033e-05
2.79106e-05
-6.61559e-05
2.24549e-05
-7.06751e-05
4.87589e-05
-6.11891e-05
7.09064e-05
-6.25974e-05
-6.99153e-05
7.4614e-05
-7.17001e-06
0.00021892
-6.35493e-06
0.000138423
-9.00361e-06
0.00012108
-3.66156e-06
7.76948e-05
-1.28987e-05
9.88106e-05
-1.36241e-05
0.000141748
-4.966e-06
0.000140574
1.21533e-05
0.000142721
2.78278e-05
0.000129531
3.72328e-05
0.000104736
5.35216e-05
0.000131665
6.40645e-05
2.41808e-05
4.67901e-05
-5.02186e-05
3.5162e-05
-0.000108947
-4.72962e-06
-8.58126e-05
7.43952e-06
-0.00012622
4.87558e-05
-0.000102428
2.15913e-05
-5.11387e-05
3.69981e-05
-8.15627e-05
4.66313e-05
-8.03084e-05
4.7074e-05
-6.16317e-05
5.56967e-05
-7.12202e-05
-7.74469e-05
6.32284e-05
-9.79431e-06
0.000228715
-9.86075e-06
0.000138489
-6.42121e-06
0.000117641
-5.66054e-06
7.69341e-05
-1.6049e-05
0.000109199
-1.01537e-05
0.000135853
1.82452e-07
0.000130237
2.55541e-05
0.000117349
4.95999e-05
0.000105485
6.8269e-05
8.60673e-05
9.16181e-05
0.000108316
0.000108628
7.1705e-06
9.97259e-05
-4.13161e-05
3.83906e-05
-4.76114e-05
6.49603e-05
-0.000112382
5.13044e-05
-0.000112564
4.09596e-05
-9.20831e-05
3.83959e-05
-4.8575e-05
4.20463e-05
-8.52131e-05
3.15732e-05
-6.98353e-05
4.72402e-05
-7.72987e-05
2.35737e-05
-4.75537e-05
-8.54753e-05
3.16021e-05
-1.34284e-05
0.000242143
-1.87026e-05
0.000143763
-1.63531e-05
0.000115291
-2.90029e-05
8.95839e-05
-3.98087e-05
0.000120005
-2.70512e-05
0.000123095
3.82651e-07
0.000102804
3.56922e-05
8.20396e-05
7.62486e-05
6.49287e-05
6.7797e-05
9.45189e-05
9.41615e-05
8.19517e-05
7.64239e-05
2.49081e-05
7.45224e-05
-3.94146e-05
0.000103373
-7.64623e-05
4.75325e-05
-5.65416e-05
3.23382e-05
-9.73693e-05
2.58427e-05
-8.55875e-05
6.06083e-05
-8.33407e-05
2.60834e-05
-5.06882e-05
4.02563e-05
-8.40083e-05
1.48066e-05
-5.18489e-05
5.57876e-05
-8.85347e-05
-6.10629e-05
3.13753e-05
-1.75122e-05
0.000259655
-2.83761e-05
0.000154627
-3.4127e-05
0.000121042
-5.47702e-05
0.000110227
-6.44681e-05
0.000129703
-4.16391e-05
0.000100266
-1.08628e-05
7.20273e-05
1.2466e-05
5.87108e-05
2.59324e-05
5.14623e-05
6.47893e-05
5.5662e-05
9.70401e-05
4.97008e-05
7.97102e-05
4.2238e-05
5.77793e-05
-1.74837e-05
5.40608e-05
-7.27437e-05
4.65174e-05
-4.89982e-05
2.97279e-05
-8.05798e-05
2.32119e-05
-7.90716e-05
2.15319e-05
-8.16606e-05
5.44975e-05
-8.36538e-05
2.5568e-05
-5.50788e-05
3.01571e-05
-5.6438e-05