/*--------------------------------*- C++ -*----------------------------------*\
| =========                 |                                                 |
| \\      /  F ield         | foam-extend: Open Source CFD                    |
|  \\    /   O peration     | Version:     4.1                                |
|   \\  /    A nd           | Web:         http://www.foam-extend.org         |
|    \\/     M anipulation  |                                                 |
\*---------------------------------------------------------------------------*/
FoamFile
{
    version     2.0;
    format      ascii;
    class       surfaceScalarField;
    location    "0.85";
    object      phi_0;
}
// * * * * * * * * * * * * * * * * * * * * * * * * * * * * * * * * * * * * * //

dimensions      [0 3 -1 0 0 0 0];

internalField   nonuniform List<scalar> 
4432
(
-2.73948e-06
2.73948e-06
-5.04683e-06
2.30735e-06
-5.22531e-06
1.78488e-07
-2.73019e-06
-2.49512e-06
-2.75117e-06
2.09807e-08
-2.66885e-06
-8.23249e-08
-2.82192e-06
1.53067e-07
-2.39987e-06
-4.22051e-07
-1.79591e-06
-6.03959e-07
8.36173e-08
-1.87952e-06
2.47311e-06
-2.38949e-06
6.4291e-06
-3.956e-06
8.75255e-06
-2.32344e-06
1.15207e-05
-2.76817e-06
1.41063e-05
-2.58557e-06
1.70553e-05
-2.94906e-06
1.80192e-05
-9.63882e-07
1.73062e-05
7.1305e-07
9.00777e-06
8.2984e-06
1.41645e-05
-5.15669e-06
9.13029e-06
5.03418e-06
5.22901e-06
3.90128e-06
5.22901e-06
-2.01993e-07
2.94147e-06
-1.83183e-06
3.93719e-06
-2.29851e-06
6.45166e-07
-2.63433e-06
-2.1593e-06
-2.62373e-06
1.03798e-08
-2.50134e-06
-2.04711e-07
-2.43665e-06
8.8369e-08
-1.52059e-06
-1.33811e-06
-4.76091e-07
-1.64845e-06
1.99107e-06
-4.34668e-06
5.79176e-06
-6.19019e-06
6.64637e-06
-4.81061e-06
8.0928e-06
-3.76988e-06
1.0553e-05
-5.22833e-06
1.41084e-05
-6.14099e-06
1.69372e-05
-5.7779e-06
1.87677e-05
-2.79435e-06
1.86722e-05
8.08584e-07
1.85746e-05
8.39592e-06
7.94747e-06
5.47048e-06
8.25114e-06
4.73051e-06
5.88771e-06
6.26472e-06
1.11167e-05
-1.29465e-06
4.23612e-06
-1.88003e-06
4.52256e-06
-2.26153e-06
1.02666e-06
-2.52543e-06
-1.8954e-06
-2.40555e-06
-1.09503e-07
-2.22646e-06
-3.83798e-07
-2.2776e-06
1.39508e-07
-1.81986e-06
-1.79585e-06
-1.08662e-06
-2.3817e-06
3.58257e-07
-5.79156e-06
1.50852e-06
-7.34045e-06
2.332e-06
-5.63409e-06
3.0335e-06
-4.47137e-06
5.29894e-06
-7.49377e-06
8.28818e-06
-9.13023e-06
7.05929e-06
-4.54901e-06
9.32184e-06
-5.05691e-06
1.78125e-05
-7.68209e-06
1.56894e-05
1.05191e-05
1.45344e-05
6.62541e-06
1.04536e-05
8.81134e-06
5.27385e-06
1.14445e-05
1.63906e-05
-2.28689e-06
6.52302e-06
-2.36414e-06
4.59981e-06
-2.31617e-06
9.78688e-07
-2.27514e-06
-1.93643e-06
-2.31842e-06
-6.6217e-08
-2.49297e-06
-2.09249e-07
-2.88799e-06
5.34522e-07
-2.34714e-06
-2.33669e-06
-1.41551e-06
-3.31334e-06
-3.0768e-06
-4.13026e-06
-3.26688e-06
-7.15037e-06
-2.8223e-06
-6.07866e-06
-1.45838e-06
-5.83529e-06
1.21685e-06
-1.0169e-05
2.35828e-06
-1.02717e-05
6.44595e-06
-8.63669e-06
1.0054e-05
-8.66492e-06
7.06704e-06
-4.69517e-06
1.39044e-05
3.68172e-06
1.29366e-05
7.59316e-06
8.25963e-06
1.34884e-05
3.19917e-06
1.65049e-05
1.95897e-05
-1.70745e-06
8.23047e-06
-2.34881e-06
5.24117e-06
-2.41806e-06
1.04794e-06
-2.52626e-06
-1.82823e-06
-2.64319e-06
5.07124e-08
-2.93837e-06
8.59345e-08
-3.10841e-06
7.0456e-07
-6.28925e-06
8.44147e-07
-5.99469e-06
-3.60789e-06
-6.67061e-06
-3.45434e-06
-7.7226e-06
-6.09838e-06
-5.32522e-06
-8.47605e-06
-2.57772e-06
-8.58279e-06
-7.51774e-07
-1.1995e-05
2.73576e-06
-1.37592e-05
5.96361e-06
-1.18645e-05
8.56722e-06
-1.12685e-05
4.96067e-06
-1.08862e-06
9.1808e-06
-5.38401e-07
6.13914e-06
1.06348e-05
7.73485e-06
1.18926e-05
1.61744e-07
2.4078e-05
1.97515e-05
-1.86809e-06
1.00986e-05
-3.01913e-06
6.39221e-06
-2.43394e-06
4.62757e-07
-1.86927e-06
-2.3929e-06
-2.10458e-06
2.86026e-07
-3.22017e-06
1.20152e-06
-4.97777e-06
2.46216e-06
-5.56976e-06
1.43614e-06
-1.03673e-05
1.18968e-06
-1.11411e-05
-2.68056e-06
-1.07838e-05
-6.4557e-06
-8.58335e-06
-1.06765e-05
-5.11021e-06
-1.20559e-05
1.24517e-06
-1.83503e-05
5.15707e-06
-1.76711e-05
6.87966e-06
-1.35871e-05
4.67536e-06
-9.06423e-06
1.0515e-05
-6.92821e-06
4.8927e-06
5.08386e-06
4.65189e-06
1.08756e-05
7.59605e-06
8.94849e-06
6.25114e-06
2.54229e-05
2.60026e-05
-2.3851e-06
1.24837e-05
-7.4325e-06
1.14396e-05
-8.22646e-06
1.25672e-06
-8.51327e-06
-2.10608e-06
-1.01694e-05
1.94215e-06
-1.20758e-05
3.10792e-06
-1.29604e-05
3.34672e-06
-1.3159e-05
1.63479e-06
-1.29595e-05
9.90112e-07
-1.23366e-05
-3.30345e-06
-1.07522e-05
-8.04006e-06
-7.30848e-06
-1.41202e-05
-3.32806e-06
-1.60363e-05
-4.17025e-11
-2.16783e-05
5.42181e-06
-2.3093e-05
9.87257e-06
-1.80379e-05
1.27654e-05
-1.19571e-05
7.94123e-06
-2.10402e-06
1.39755e-05
-9.50418e-07
6.26267e-06
1.85885e-05
4.72884e-06
1.04823e-05
6.50748e-06
2.36443e-05
3.25101e-05
-3.08972e-06
1.55734e-05
-6.13339e-06
1.44833e-05
-1.29869e-05
8.1102e-06
-1.28293e-05
-2.26361e-06
-1.41519e-05
3.26475e-06
-1.51423e-05
4.09823e-06
-1.54914e-05
3.69582e-06
-1.46299e-05
7.73316e-07
-1.24844e-05
-1.15532e-06
-1.09498e-05
-4.83809e-06
-9.57037e-06
-9.41949e-06
-9.04567e-06
-1.46449e-05
-7.48919e-06
-1.75928e-05
-3.52716e-07
-2.88148e-05
3.73872e-06
-2.71844e-05
1.21687e-05
-2.64679e-05
1.72291e-05
-1.70175e-05
1.30915e-05
2.03366e-06
2.38654e-05
-1.17243e-05
1.36364e-05
2.88174e-05
1.3949e-05
1.01698e-05
1.4481e-05
2.31123e-05
4.69911e-05
-8.52889e-05
8.5289e-05
-0.000198609
0.00011332
-0.000243744
4.51356e-05
-0.000266226
2.24817e-05
-0.000275719
9.49271e-06
-0.000278953
3.23377e-06
-0.000267836
-1.11162e-05
-0.00025248
-1.53568e-05
-0.000227505
-2.49745e-05
-0.000195612
-3.18927e-05
-0.000165729
-2.98837e-05
-0.00013787
-2.78591e-05
-0.000113286
-2.45834e-05
-9.22661e-05
-2.10201e-05
-4.51271e-05
-4.7139e-05
-3.69276e-05
-8.19946e-06
-4.93017e-05
1.23741e-05
-2.87239e-05
-2.05779e-05
-2.87239e-05
-7.89492e-05
0.000164238
-0.000180428
0.000214799
-0.000211412
7.61195e-05
-0.000223512
3.45822e-05
-0.000215717
1.69685e-06
-0.000207047
-5.43554e-06
-0.0001944
-2.37635e-05
-0.000183414
-2.63424e-05
-0.000165295
-4.30939e-05
-0.000141399
-5.57891e-05
-0.000117857
-5.34249e-05
-0.000100909
-4.48071e-05
-4.44115e-05
-8.10812e-05
-3.28721e-05
-3.25595e-05
-3.14894e-05
-4.85216e-05
-3.44914e-05
-5.19743e-06
-2.46702e-05
2.55292e-06
-2.5578e-05
-1.96701e-05
-5.43018e-05
-6.60934e-05
0.000230332
-0.000132064
0.00028077
-0.000136773
8.08283e-05
-8.84769e-05
-1.3714e-05
-0.000130304
4.35244e-05
-0.000111939
-2.38015e-05
-0.000104921
-3.07807e-05
-0.000102031
-2.92324e-05
-9.43026e-05
-5.08226e-05
-7.47051e-05
-7.53866e-05
-5.63979e-05
-7.17322e-05
-4.03988e-05
-6.08061e-05
-4.31442e-05
-7.83358e-05
-1.8077e-05
-5.76267e-05
-1.67726e-05
-4.98261e-05
-2.28483e-05
8.7827e-07
-1.83657e-05
-1.92969e-06
-1.37726e-05
-2.42632e-05
-6.80745e-05
-4.73865e-05
0.000277718
-8.3754e-05
0.000317137
-8.42782e-05
8.13526e-05
-9.29828e-05
-5.00947e-06
-7.62519e-05
2.67934e-05
-5.26612e-05
-4.73922e-05
-2.62262e-05
-5.72157e-05
-5.30612e-05
-2.39743e-06
-5.517e-05
-4.87138e-05
-4.56076e-05
-8.4949e-05
-3.11527e-05
-8.6187e-05
-1.62913e-05
-7.56676e-05
-1.14202e-05
-8.32069e-05
1.11423e-06
-7.01612e-05
3.87321e-06
-5.25851e-05
1.0395e-06
3.71198e-06
-5.72421e-06
4.83402e-06
-1.06306e-05
-1.93568e-05
-7.87051e-05
-3.31986e-05
0.000310917
-4.54752e-05
0.000329414
-4.46894e-05
8.05668e-05
-5.51592e-05
5.46032e-06
-3.65999e-05
8.23408e-06
-2.02248e-05
-6.37674e-05
-1.63851e-05
-6.10554e-05
-1.91561e-05
3.73617e-07
-5.64161e-06
-6.22283e-05
8.45021e-07
-9.14356e-05
1.7403e-06
-8.70823e-05
3.60895e-06
-7.75362e-05
9.35226e-06
-8.89502e-05
1.65627e-05
-7.73716e-05
7.8003e-06
-4.38227e-05
5.32108e-06
6.19121e-06
5.76308e-06
4.39201e-06
-1.04649e-06
-1.25472e-05
-7.97516e-05
-2.01157e-05
0.000331032
-1.66331e-05
0.000325931
-2.109e-05
8.50237e-05
-3.07179e-05
1.50882e-05
-1.67361e-05
-5.74773e-06
-3.329e-06
-7.71745e-05
-8.5735e-06
-5.58109e-05
3.88638e-06
-1.20863e-05
2.03457e-05
-7.86876e-05
2.47227e-05
-9.58125e-05
2.1954e-05
-8.43136e-05
2.1296e-05
-7.68783e-05
1.36159e-05
-8.12701e-05
1.43971e-05
-7.81527e-05
2.2276e-05
-5.17016e-05
1.94841e-05
8.98311e-06
1.34968e-05
1.03793e-05
3.63814e-06
-2.68859e-06
-7.61134e-05
-1.26344e-05
0.000343667
3.51865e-06
0.000309778
4.48804e-06
8.40543e-05
-9.86206e-07
2.05624e-05
4.22668e-06
-1.09606e-05
8.0594e-06
-8.10072e-05
7.50622e-06
-5.52577e-05
2.4684e-05
-2.9264e-05
3.47558e-05
-8.87594e-05
4.24801e-05
-0.000103537
3.62402e-05
-7.80737e-05
3.17774e-05
-7.24155e-05
3.30855e-05
-8.25782e-05
1.73522e-05
-6.24194e-05
1.61913e-05
-5.05407e-05
2.58323e-05
-6.57863e-07
1.60025e-05
2.02091e-05
9.76966e-06
3.5443e-06
-6.63438e-05
-9.08823e-06
0.000352755
2.31545e-05
0.000277536
1.1651e-05
9.55578e-05
8.51062e-06
2.37028e-05
1.35533e-05
-1.60033e-05
1.9911e-05
-8.73649e-05
2.47526e-05
-6.00994e-05
5.21337e-05
-5.66451e-05
5.12586e-05
-8.78842e-05
2.71966e-05
-7.94748e-05
2.41241e-05
-7.50012e-05
3.81008e-05
-8.63922e-05
3.62417e-05
-8.0719e-05
3.348e-05
-5.96577e-05
3.34186e-05
-5.04794e-05
2.76871e-05
5.07363e-06
9.3781e-06
3.85181e-05
1.08133e-05
2.10908e-06
-5.55305e-05
-7.53878e-06
2.31122e-05
-1.40894e-05
2.10339e-05
-1.8563e-05
1.25838e-05
-3.16149e-05
1.07883e-05
-3.14032e-05
3.05307e-06
-3.45525e-05
7.24756e-06
-3.36248e-05
2.76808e-06
-3.19252e-05
-9.26239e-07
-3.01366e-05
-2.94397e-06
-2.70839e-05
-7.89079e-06
-2.17538e-05
-1.47496e-05
-1.68026e-05
-1.95961e-05
-1.18321e-05
-2.25633e-05
-1.2964e-05
-2.76829e-05
3.9753e-06
-4.41237e-05
3.00116e-05
-5.25042e-05
3.99352e-05
-2.69411e-05
5.04944e-05
-8.52551e-06
3.38558e-05
4.91425e-06
4.51152e-05
1.7558e-05
2.15611e-05
3.37239e-05
2.47378e-05
1.99356e-05
1.06869e-05
6.1042e-05
-8.771e-06
3.18832e-05
-1.38162e-05
2.6079e-05
-1.26259e-05
1.13935e-05
-1.13702e-05
9.53256e-06
-2.19694e-05
1.36522e-05
-2.48534e-05
1.01316e-05
-2.97328e-05
7.64743e-06
-3.27377e-05
2.07872e-06
-3.73267e-05
1.64501e-06
-4.15638e-05
-3.65366e-06
-5.47169e-05
-1.59653e-06
-6.3922e-05
-1.0391e-05
-5.29072e-05
-3.35781e-05
-2.9842e-05
-5.07481e-05
-1.87424e-05
-5.52234e-05
-1.16565e-05
-5.959e-05
1.5048e-05
-5.36457e-05
2.00847e-05
-1.35622e-05
3.28006e-05
-7.80165e-06
1.6141e-05
3.42176e-05
2.44447e-05
2.54202e-05
3.59969e-05
8.38343e-06
6.9982e-06
3.96856e-05
-6.78646e-06
3.86696e-05
-7.50592e-06
2.67985e-05
-1.60146e-05
1.99022e-05
-2.09422e-05
1.44601e-05
-1.40124e-05
6.72241e-06
-1.55639e-05
1.16832e-05
-1.50065e-05
7.09002e-06
-2.87536e-05
1.58258e-05
-3.34952e-05
6.38666e-06
-5.41975e-05
1.70486e-05
-5.06167e-05
-5.17735e-06
-9.02369e-05
2.92293e-05
-9.56228e-05
-2.81923e-05
-0.000120015
-2.63557e-05
-0.000126667
-4.85712e-05
-0.000127164
-5.90937e-05
-0.000108854
-7.19551e-05
-8.10062e-05
-4.14103e-05
-6.96381e-05
-1.91697e-05
-3.8453e-05
3.03237e-06
-2.24317e-05
9.39895e-06
-2.97675e-05
1.57192e-05
4.51421e-05
-6.79114e-05
-6.02084e-06
4.46905e-05
-1.06585e-06
2.18435e-05
1.21627e-05
6.67368e-06
2.13685e-05
5.25435e-06
1.12078e-05
1.68831e-05
1.4894e-05
7.99704e-06
1.59884e-05
5.99558e-06
-1.85759e-05
5.03901e-05
-4.52783e-05
3.30891e-05
-6.36311e-05
3.54013e-05
-9.67102e-05
2.79017e-05
-8.14904e-05
1.40096e-05
-0.00012798
1.82976e-05
-0.000136108
-1.82278e-05
-0.000163429
-2.12501e-05
-0.000184163
-3.83598e-05
-0.000184011
-7.21072e-05
-0.000181766
-4.36551e-05
-0.000184178
-1.67578e-05
-0.000169283
-1.1863e-05
-0.000154067
-5.81656e-06
-0.000155504
1.71561e-05
3.52576e-05
-0.00014562
1.33274e-06
4.33577e-05
1.80345e-05
5.14173e-06
4.5096e-05
-2.03878e-05
7.82572e-05
-2.79069e-05
8.10869e-05
1.40535e-05
5.95645e-05
2.95194e-05
1.68405e-05
4.87196e-05
-6.91147e-06
7.41421e-05
-3.38313e-05
6.0009e-05
-5.31818e-05
5.47517e-05
-6.14191e-05
3.61391e-05
-8.87498e-05
4.13402e-05
-0.000106625
3.61726e-05
-0.000133851
8.99807e-06
-0.000107746
-4.73548e-05
-0.000110024
-3.60814e-05
-0.000170931
-1.12006e-05
-0.000180439
-3.41466e-05
-0.00019294
-4.25728e-06
-0.000199902
-4.90056e-06
-0.000188111
-1.76077e-05
-0.000181814
1.08589e-05
2.78195e-05
-0.000174376
6.26053e-06
3.70972e-05
3.06855e-05
-1.92832e-05
7.09505e-05
-6.06528e-05
4.73136e-05
-4.26998e-06
2.60655e-05
3.53016e-05
-1.47642e-05
7.03491e-05
-4.56481e-05
7.96035e-05
-5.99997e-05
8.84937e-05
-9.56432e-05
9.56524e-05
-0.000123627
8.27358e-05
-0.000128436
4.09476e-05
-0.000142551
5.54554e-05
-0.000147529
4.11502e-05
-0.000162942
2.44113e-05
-0.000207605
-2.69186e-06
-0.000242431
-1.25489e-06
-0.000258744
5.11236e-06
-0.000275205
-1.76862e-05
-0.000210713
-6.87493e-05
-0.000199539
-1.60747e-05
-0.000234514
1.73682e-05
-0.000227141
3.48586e-06
1.20265e-05
-0.000211349
-7.16602e-06
4.42632e-05
-2.337e-05
-3.07928e-06
-8.29389e-05
-1.08385e-06
-0.000144152
5.69429e-05
-0.000166086
5.72359e-05
-0.000172415
7.66774e-05
-0.000175186
8.23751e-05
-0.000177058
9.03654e-05
-0.000173562
9.21562e-05
-0.000176074
8.52478e-05
-0.000185287
5.01604e-05
-0.000207629
7.77974e-05
-0.000211777
4.52983e-05
-0.000242861
5.54956e-05
-0.000267817
2.2264e-05
-0.00027909
1.00188e-05
-0.000301792
2.78142e-05
-0.000309148
-1.03309e-05
-0.000316481
-6.14158e-05
-0.000323908
-8.64747e-06
-0.000312238
5.69774e-06
-0.000298683
-1.00693e-05
-1.0361e-05
-0.000276295
-3.96724e-05
8.39357e-05
-6.81474e-05
2.53957e-05
-0.000166764
9.75331e-05
-0.000201458
9.16367e-05
-0.00021948
7.52576e-05
-0.000228673
8.58705e-05
-0.000231311
8.50137e-05
-0.000229153
8.82074e-05
-0.00022343
8.64328e-05
-0.000221136
8.29535e-05
-0.000241204
7.02291e-05
-0.000240777
7.73697e-05
-0.000241052
4.55741e-05
-0.000242064
5.65074e-05
-0.000258542
3.87424e-05
-0.00026714
1.86164e-05
-0.000198597
-4.07284e-05
-0.000197261
-1.16668e-05
-0.00025851
-1.67427e-07
-0.000251566
-1.55911e-05
-0.000246547
6.78274e-07
-0.000248646
-7.97006e-06
-2.02585e-05
-0.000238748
-5.4357e-05
0.000138293
-0.000107282
7.83208e-05
-0.000179588
0.000169839
-0.000220666
0.000132715
-0.000243182
9.77741e-05
-0.000264308
0.000106996
-0.000275078
9.57841e-05
-0.000283818
9.69474e-05
-0.000281714
8.43282e-05
-0.000268232
6.94715e-05
-0.000268531
7.05278e-05
-0.000264107
7.29464e-05
-0.000270114
5.15805e-05
-0.000260628
4.70215e-05
-0.000244827
2.29419e-05
-0.000226238
2.74219e-08
-0.000240676
-2.62908e-05
-0.000239156
-1.31869e-05
-0.000229841
-9.48261e-06
-0.000233232
-1.22002e-05
-0.00016628
-6.62737e-05
-0.000155094
-1.91559e-05
1.37903e-05
-0.000189143
-8.22359e-05
0.000220529
-0.000148955
0.00014504
-0.000191856
0.00021274
-0.000235232
0.00017609
-0.000233762
9.63049e-05
-0.000264528
0.000137762
-0.000286895
0.000118151
-0.000306422
0.000116474
-0.000325447
0.000103353
-0.000318461
6.2485e-05
-0.000322571
7.46378e-05
-0.000303368
5.37435e-05
-0.00027417
2.23828e-05
-0.000257216
3.00671e-05
-0.000242455
8.18081e-06
-0.000229924
-1.25033e-05
-0.000219124
-3.70904e-05
-0.000193786
-3.85249e-05
-0.000177211
-2.60583e-05
-0.00016621
-2.32009e-05
-0.000191779
-4.07044e-05
-0.000197426
-1.35088e-05
-6.18674e-06
-0.000177449
-6.1072e-05
0.0002816
-0.000102042
0.00018601
-9.56052e-05
0.000206304
-0.000116757
0.000197242
-0.000224995
0.000204543
-0.000238896
0.000151663
-0.000237942
0.000117198
-0.000158997
3.75293e-05
-0.000148034
9.23897e-05
-0.000217585
0.000132037
-0.000201551
5.86036e-05
-0.000179712
3.19043e-05
-0.000183221
2.58921e-05
-0.00018889
3.57354e-05
-0.000172264
-8.44502e-06
-0.000152498
-3.22692e-05
-0.000146274
-4.33139e-05
-0.000139685
-4.51143e-05
-0.00012743
-3.83127e-05
-0.000118896
-3.17354e-05
-0.000118418
-4.11823e-05
-0.00011049
-2.14366e-05
-2.59928e-05
-9.06842e-05
-2.30694e-05
0.00030467
-0.000131789
0.000294729
-0.000159914
0.000234429
-0.000170462
0.00020779
-0.000118832
0.000152913
-0.000103121
0.000135952
-0.000116455
0.000130531
-0.000133985
5.50594e-05
-0.000120645
7.905e-05
-6.57493e-05
7.71405e-05
-3.59029e-05
2.87572e-05
-4.60417e-05
4.20431e-05
-7.51854e-05
5.50357e-05
-6.77111e-05
2.82611e-05
-3.86401e-05
-3.7516e-05
-3.33684e-05
-3.7541e-05
-4.51835e-05
-3.14988e-05
-6.04386e-05
-2.98592e-05
-7.61756e-05
-2.25757e-05
-8.56718e-05
-2.22392e-05
-9.18119e-05
-3.50422e-05
-9.0006e-05
-2.32425e-05
-3.13345e-05
-8.46643e-05
-3.60498e-05
0.00034072
-5.87927e-05
0.000317472
-0.00011375
0.000289386
-0.000112005
0.000206045
-8.33963e-05
0.000124305
-0.000105524
0.000158079
-8.66862e-05
0.000111694
-6.10175e-05
2.93907e-05
-4.43227e-05
6.23552e-05
2.46076e-05
8.21017e-06
2.26665e-05
3.06983e-05
3.8723e-06
6.08373e-05
-7.76016e-06
6.66682e-05
-5.88395e-06
2.63848e-05
-1.24176e-05
-3.09823e-05
-3.12782e-05
-1.86804e-05
-2.85148e-05
-3.42622e-05
-3.8316e-05
-2.0058e-05
-3.99922e-05
-2.08995e-05
-4.16358e-05
-2.05956e-05
-4.76172e-05
-2.90608e-05
-4.33712e-05
-2.74885e-05
-2.86636e-05
-4.60421e-05
-1.76449e-05
0.000358365
-3.49044e-05
0.000334731
-5.22612e-05
0.000306743
-5.44827e-05
0.000208266
-7.66668e-05
0.000146489
-1.43265e-05
9.57391e-05
-3.30197e-06
0.000100669
-1.54505e-05
4.15393e-05
-1.37991e-05
6.07038e-05
6.00579e-06
-1.15948e-05
2.56567e-05
1.10474e-05
2.29009e-05
6.3593e-05
1.41858e-05
7.53833e-05
-1.15382e-05
5.21089e-05
-6.4447e-05
2.19264e-05
-0.000107551
2.44235e-05
-0.00013047
-1.13435e-05
-0.000114847
-3.56808e-05
-8.88381e-05
-4.69081e-05
-7.56553e-05
-3.37784e-05
-7.29451e-05
-3.1771e-05
-7.30504e-05
-2.73833e-05
-3.24022e-05
-6.93117e-05
-9.50803e-06
0.000367873
-2.5769e-05
0.000350992
-3.53088e-05
0.000316283
-3.4199e-05
0.000207156
-2.44266e-05
0.000136716
-3.17904e-05
0.000103103
2.18498e-05
4.7029e-05
-7.63259e-06
7.10217e-05
-2.24604e-05
7.55316e-05
-2.5554e-05
-8.50117e-06
-6.84967e-06
-7.65693e-06
7.64798e-06
4.90954e-05
2.37436e-05
5.92877e-05
3.03364e-05
4.55161e-05
4.18471e-05
1.04157e-05
5.11638e-05
1.51068e-05
4.17682e-05
-1.94792e-06
1.97353e-05
-1.36479e-05
9.63554e-06
-3.68084e-05
1.04081e-05
-3.4551e-05
4.45243e-06
-2.58153e-05
1.42533e-06
-2.43562e-05
-1.85343e-05
-1.24426e-05
1.0322e-07
0.000367769
-7.13679e-06
0.000358232
-2.03684e-05
0.000329515
-2.06692e-05
0.000207457
-3.31947e-05
0.000149242
-9.40925e-06
7.93175e-05
1.90071e-06
3.5719e-05
1.32056e-05
5.97168e-05
-1.53889e-05
0.000104126
-3.62728e-05
1.23827e-05
-4.5805e-05
1.8753e-06
-2.7619e-05
3.09094e-05
2.15573e-07
3.14531e-05
1.63309e-05
2.94007e-05
2.80356e-05
-1.28896e-06
3.42316e-05
8.91079e-06
4.20229e-05
-9.73921e-06
5.31182e-05
-2.47432e-05
3.78813e-05
-2.15715e-05
1.93879e-05
-1.60575e-05
3.67112e-05
-4.31386e-05
3.9028e-05
-2.6673e-05
-1.62219e-05
3.67156e-05
6.26136e-06
0.000361508
-6.92145e-07
0.000365186
-1.2061e-05
0.000340883
2.51074e-05
0.000170289
1.98982e-06
0.000172359
-1.15575e-05
9.28648e-05
8.14267e-06
1.60188e-05
2.67704e-05
4.1089e-05
2.0281e-05
0.000110616
-1.17785e-05
4.44422e-05
-3.12541e-05
2.13509e-05
-1.56211e-05
1.52764e-05
-1.77467e-05
3.35787e-05
1.34958e-05
-1.84174e-06
2.47318e-05
-1.2525e-05
4.35161e-05
-9.8735e-06
4.40866e-05
-1.03098e-05
3.35554e-05
-1.42119e-05
5.87403e-05
-4.67564e-05
5.41462e-05
-1.14635e-05
5.48038e-05
-4.37962e-05
4.02084e-05
-1.20776e-05
-2.52031e-05
4.91896e-05
1.08119e-05
0.000350696
1.55839e-05
0.000360414
2.43738e-05
0.000332093
7.00034e-06
0.000187662
1.77544e-05
0.000161605
3.51044e-05
7.55147e-05
3.57608e-05
1.53624e-05
4.78455e-05
2.90044e-05
7.49159e-05
8.35451e-05
5.53682e-05
6.39898e-05
-1.2551e-06
7.79743e-05
-1.16405e-05
2.56618e-05
-4.32429e-06
2.62625e-05
1.953e-05
-2.5696e-05
3.00206e-05
-2.30156e-05
3.8522e-05
-1.83749e-05
5.33738e-05
-2.51615e-05
6.1673e-05
-2.25111e-05
4.10816e-05
-2.6165e-05
5.97037e-05
-3.00856e-05
4.53103e-05
-2.94027e-05
8.00325e-05
-4.67999e-05
-3.21366e-05
8.69661e-05
1.03308e-05
0.000340365
2.79716e-05
0.000342773
5.78224e-05
0.000302243
-2.78661e-05
0.000273351
2.82848e-09
0.000133736
3.37481e-05
4.17694e-05
4.79477e-05
1.16273e-06
5.92743e-05
1.76778e-05
0.000116068
2.67519e-05
0.000125328
5.47291e-05
6.04678e-05
0.000142835
2.37481e-05
6.23815e-05
2.1324e-05
2.86865e-05
1.46563e-05
-1.90283e-05
1.67277e-05
-2.5087e-05
3.50391e-05
-3.66864e-05
6.03485e-05
-5.04709e-05
5.94179e-05
-2.15805e-05
6.77393e-05
-3.44865e-05
6.38983e-05
-2.62446e-05
6.15593e-05
-2.70638e-05
5.95368e-05
-4.47773e-05
-4.35721e-05
7.09722e-05
1.83502e-05
0.000322015
2.62223e-05
0.000334901
5.20873e-05
0.000276378
4.89962e-05
0.000276442
2.89045e-05
0.000153828
2.73933e-05
4.32806e-05
4.53521e-05
-1.6796e-05
7.55753e-05
-1.25455e-05
0.000110344
-8.01634e-06
0.000108119
5.69539e-05
8.95699e-05
0.000161384
2.36098e-05
0.000128342
-1.34929e-07
5.24312e-05
2.24229e-05
-4.15862e-05
4.90431e-05
-5.17072e-05
5.06778e-05
-3.83211e-05
5.97792e-05
-5.95722e-05
6.81946e-05
-2.99959e-05
7.68705e-05
-4.31624e-05
6.71426e-05
-1.65166e-05
7.30403e-05
-3.29614e-05
7.56999e-05
-4.74369e-05
-4.4438e-05
7.65658e-05
1.4086e-05
0.000307929
1.30799e-05
0.000335907
9.67999e-05
0.000192657
9.571e-05
0.000277532
8.88497e-05
0.000160688
8.41771e-05
4.79532e-05
0.000100513
-3.31315e-05
0.00013731
-4.93426e-05
0.000149769
-2.04755e-05
0.00010891
9.78123e-05
0.000120843
0.000149451
9.22767e-05
0.000156908
8.18041e-05
6.29037e-05
5.43784e-05
-1.41604e-05
2.74891e-05
-2.48179e-05
6.68309e-05
-7.76629e-05
6.69175e-05
-5.96588e-05
8.071e-05
-4.37884e-05
4.97867e-05
-1.22391e-05
7.45035e-05
-4.12335e-05
6.33571e-05
-2.1815e-05
3.7591e-05
-2.16708e-05
-5.03485e-05
4.35016e-05
1.47293e-05
0.0002932
3.55872e-05
0.000315049
5.20777e-05
0.000176167
7.96341e-05
0.000249976
0.000102498
0.000137824
0.000123868
2.65836e-05
0.000130499
-3.97633e-05
9.67813e-05
-1.56244e-05
0.00010649
-3.01839e-05
0.000184706
1.95963e-05
0.000170791
0.000163366
0.000148069
0.000179629
9.96141e-05
0.000111359
5.86053e-05
2.68483e-05
9.5957e-05
-6.21696e-05
9.35998e-05
-7.53058e-05
8.87171e-05
-5.47761e-05
8.31981e-05
-3.82694e-05
7.85579e-05
-7.59888e-06
7.06065e-05
-3.3282e-05
7.92893e-05
-3.04978e-05
8.66194e-05
-2.90009e-05
-5.03068e-05
8.65777e-05
5.65193e-06
0.000287548
3.09557e-05
0.000289745
4.24075e-05
0.000164715
8.51376e-05
0.000207245
0.000104247
0.000118714
0.000123813
7.01793e-06
9.21367e-05
-8.08687e-06
0.000101795
-2.52823e-05
0.000141891
-7.02808e-05
0.000157552
3.93527e-06
0.000152139
0.000168779
0.000141291
0.000190478
0.00014619
0.00010646
0.000148499
2.45392e-05
0.000114316
-2.79867e-05
6.03905e-05
-2.13805e-05
5.24967e-05
-4.68824e-05
4.52568e-05
-3.10295e-05
7.03126e-05
-3.26546e-05
7.1968e-05
-3.49374e-05
7.08519e-05
-2.93817e-05
7.09927e-05
-2.91417e-05
-3.56964e-05
5.63822e-05
-1.49313e-05
0.000302479
6.02852e-05
0.000214529
5.43778e-05
0.000170623
6.71334e-05
0.00019449
0.000104083
8.17651e-05
0.000109847
1.25372e-06
0.000120285
-1.85245e-05
0.000128698
-3.36961e-05
0.000127266
-6.88487e-05
0.000119661
1.15407e-05
0.000119269
0.000169171
0.000114702
0.000195045
0.000143447
7.77144e-05
0.000135044
3.29422e-05
0.000127749
-2.06911e-05
0.000113971
-7.60251e-06
9.13302e-05
-2.42418e-05
7.75056e-05
-1.72049e-05
7.68422e-05
-3.19912e-05
8.04984e-05
-3.85936e-05
7.95656e-05
-2.84489e-05
8.10603e-05
-3.06364e-05
-1.18308e-05
5.71947e-05
6.134e-06
0.000296345
1.5637e-05
0.000205026
5.20822e-05
0.000134177
7.51239e-05
0.000171448
0.00010487
5.20188e-05
0.000109728
-3.60421e-06
0.000105778
-1.45744e-05
9.05312e-05
-1.84493e-05
4.1189e-05
-1.95065e-05
1.1172e-05
4.15577e-05
2.31488e-05
0.000157194
0.000105859
0.000112335
6.1342e-05
0.000122232
8.94951e-05
4.78913e-06
4.94196e-05
1.93843e-05
4.04881e-05
1.32901e-06
3.32515e-05
-1.70052e-05
4.88031e-05
-3.27566e-05
5.0909e-05
-3.40971e-05
4.02143e-05
-2.78989e-05
4.27975e-05
-3.10322e-05
4.6603e-05
-3.44419e-05
-2.35793e-05
5.83515e-05
-8.87551e-07
0.000297233
1.07609e-05
0.000193377
3.22502e-05
0.000112688
7.24643e-05
0.000131234
9.3407e-05
3.10761e-05
8.2155e-05
7.64784e-06
6.60952e-05
1.48538e-06
3.50853e-05
1.25605e-05
-5.49466e-06
2.10735e-05
-2.02825e-05
5.63455e-05
7.1217e-06
0.00012979
5.75489e-06
0.000113702
4.36847e-05
8.43017e-05
3.38532e-05
1.46207e-05
3.99359e-05
1.33016e-05
4.7811e-05
-6.54613e-06
4.41346e-05
-1.33287e-05
2.76304e-05
-1.62523e-05
3.70723e-05
-4.3539e-05
4.62974e-05
-3.7124e-05
4.54953e-05
-3.023e-05
4.05565e-05
-2.95031e-05
-3.04945e-05
4.74716e-05
1.61201e-06
0.000295621
1.49171e-05
0.000180072
1.58927e-05
0.000111713
7.76615e-05
6.94654e-05
6.25532e-05
4.61843e-05
4.58e-05
2.44011e-05
2.01396e-05
2.71458e-05
-4.56271e-05
7.83272e-05
-4.69739e-05
2.24202e-05
-7.26555e-05
8.2027e-05
-4.31113e-05
0.000100246
-9.00855e-07
7.14911e-05
4.00683e-05
4.33326e-05
4.45652e-05
1.01238e-05
3.29201e-05
2.49467e-05
2.88785e-05
-2.5046e-06
2.37032e-05
-8.15341e-06
4.41113e-05
-3.66604e-05
5.05487e-05
-4.99764e-05
3.32177e-05
-1.9793e-05
3.58882e-05
-3.29005e-05
3.70959e-05
-3.07108e-05
-3.32555e-05
3.9857e-05
6.88176e-06
0.000288739
2.83671e-05
0.000158587
3.34595e-05
0.00010662
2.879e-05
7.41348e-05
4.47388e-05
3.02356e-05
2.801e-05
4.11299e-05
-4.95974e-06
6.01155e-05
-4.58839e-05
0.000119251
-9.78574e-05
7.43937e-05
-8.69061e-05
7.10758e-05
-7.59615e-05
8.93016e-05
-5.39395e-05
4.94691e-05
-1.97009e-05
9.09393e-06
2.82566e-07
-9.85963e-06
1.70828e-05
8.14642e-06
1.06481e-05
3.93012e-06
2.41184e-05
-2.16236e-05
3.22872e-05
-4.48293e-05
2.81782e-05
-4.58675e-05
5.14008e-05
-4.30156e-05
4.48479e-05
-2.63475e-05
4.88597e-05
-3.47227e-05
-2.79912e-05
4.35954e-05
7.0061e-06
0.000281733
1.82461e-05
0.000147347
2.09387e-05
0.000103927
2.03945e-05
7.4679e-05
1.86376e-05
3.19925e-05
7.58769e-07
5.90087e-05
-2.9446e-05
9.03202e-05
-5.08359e-05
0.000140641
-9.95196e-05
0.000123077
-0.000112673
8.42289e-05
-0.000108113
8.47416e-05
-8.29124e-05
2.42688e-05
-6.64102e-05
-7.40822e-06
-3.55486e-05
-4.07213e-05
-1.85967e-06
-2.55425e-05
8.04719e-06
-5.97675e-06
2.66918e-05
-4.02682e-05
3.1123e-05
-4.92605e-05
3.65072e-05
-5.12517e-05
3.46186e-05
-4.11269e-05
3.06173e-05
-2.23462e-05
4.88615e-05
-5.29669e-05
-3.11378e-05
5.20081e-05
6.68405e-05
0.000214892
4.73521e-05
0.000166835
4.25594e-05
0.00010872
3.09843e-05
8.62542e-05
1.40455e-05
4.89313e-05
-1.50539e-05
8.81081e-05
-4.22423e-05
0.000117509
-1.97049e-05
0.000118104
-0.000113312
0.000216685
-0.000167162
0.000138078
-0.000153611
7.11903e-05
-0.000131827
2.48507e-06
-0.000110888
-2.83472e-05
-6.95216e-05
-8.20874e-05
-2.16323e-05
-7.34319e-05
3.66323e-06
-3.12722e-05
1.64608e-05
-5.30657e-05
2.51858e-05
-5.79855e-05
2.40988e-05
-5.01648e-05
3.97645e-05
-5.67926e-05
5.44718e-05
-3.70535e-05
4.42797e-05
-4.27748e-05
-3.53395e-05
4.84814e-05
4.94863e-06
0.000209944
1.62175e-05
0.000155566
1.69558e-05
0.000107982
1.21285e-05
9.10815e-05
-1.49906e-06
6.25588e-05
-2.61109e-05
0.00011272
-4.31351e-05
0.000134533
-5.96346e-05
0.000134603
-5.44235e-05
0.000211474
-7.40505e-05
0.000157705
-6.94477e-05
6.65874e-05
-0.00010627
3.93074e-05
-9.39882e-05
-4.06291e-05
-6.42204e-05
-0.000111855
-2.11573e-05
-0.000116495
3.60614e-07
-5.27901e-05
1.28441e-05
-6.55492e-05
2.75807e-05
-7.27222e-05
3.59874e-05
-5.85714e-05
1.90564e-05
-3.98616e-05
2.88924e-05
-4.68895e-05
4.94707e-05
-6.33531e-05
-4.44436e-05
5.85748e-05
-1.10188e-06
0.000211046
1.05241e-05
0.000143941
4.59093e-06
0.000113915
7.44327e-06
8.82292e-05
-8.71823e-06
7.87203e-05
-2.38033e-05
0.000127805
-3.59851e-05
0.000146715
-4.24812e-05
0.000141099
-3.65467e-05
0.000205539
-4.98602e-05
0.000171019
-8.11188e-05
9.7846e-05
-5.81124e-05
1.63009e-05
-6.2243e-05
-3.64984e-05
-4.15122e-05
-0.000132586
-3.0176e-05
-0.000127831
1.85153e-05
-0.000101481
3.10182e-05
-7.80521e-05
2.81961e-05
-6.99001e-05
2.54357e-05
-5.5811e-05
6.22149e-05
-7.66408e-05
5.05323e-05
-3.52069e-05
2.7966e-05
-4.07867e-05
-6.66112e-05
5.01335e-05
-2.37302e-06
0.000213419
1.16538e-06
0.000140402
-4.65349e-06
0.000119734
-4.12934e-07
8.39886e-05
-1.2578e-05
9.08854e-05
-2.69362e-05
0.000142163
-3.03289e-05
0.000150107
-4.9612e-05
0.000160383
1.01522e-05
0.000145775
6.6488e-05
0.000114683
1.58769e-05
0.000148457
-3.81579e-06
3.59936e-05
2.67399e-05
-6.70541e-05
1.46734e-05
-0.000120519
1.21458e-05
-0.000125304
2.47764e-05
-0.000114112
8.08743e-06
-6.13631e-05
1.70157e-05
-7.88284e-05
2.79392e-05
-6.67344e-05
2.24494e-05
-7.1151e-05
4.87841e-05
-6.15415e-05
7.10172e-05
-6.30199e-05
-7.03122e-05
7.47183e-05
-7.15998e-06
0.000220579
-6.39845e-06
0.000139641
-9.0788e-06
0.000122414
-3.95903e-06
7.88689e-05
-1.33035e-05
0.00010023
-1.39585e-05
0.000142818
-5.18734e-06
0.000141336
1.1896e-05
0.000143299
2.77214e-05
0.00012995
3.71881e-05
0.000105216
5.34972e-05
0.000132148
6.43944e-05
2.50964e-05
4.69495e-05
-4.96092e-05
3.50888e-05
-0.000108659
-4.45978e-06
-8.5755e-05
7.66083e-06
-0.000126233
4.90802e-05
-0.000102782
2.16857e-05
-5.14339e-05
3.70533e-05
-8.2102e-05
4.67139e-05
-8.08116e-05
4.71144e-05
-6.1942e-05
5.57151e-05
-7.16206e-05
-7.79056e-05
6.33085e-05
-9.889e-06
0.000230468
-1.0082e-05
0.000139834
-6.71057e-06
0.000119043
-6.2766e-06
7.84349e-05
-1.67378e-05
0.000110691
-1.08156e-05
0.000136896
-3.64639e-07
0.000130885
2.53813e-05
0.000117553
4.95682e-05
0.000105763
6.8329e-05
8.64556e-05
9.16273e-05
0.00010885
0.00010866
8.06351e-06
9.9852e-05
-4.0801e-05
3.85255e-05
-4.73322e-05
6.50278e-05
-0.000112257
5.14599e-05
-0.000112665
4.11592e-05
-9.24818e-05
3.8584e-05
-4.88588e-05
4.21851e-05
-8.57031e-05
3.16404e-05
-7.02668e-05
4.73904e-05
-7.7692e-05
2.36152e-05
-4.78454e-05
-8.5895e-05
3.16046e-05
-1.36251e-05
0.000244093
-1.94599e-05
0.000145668
-1.74265e-05
0.000117009
-3.03616e-05
9.13701e-05
-4.11531e-05
0.000121483
-2.81283e-05
0.000123871
-2.94919e-07
0.000103052
3.52629e-05
8.19954e-05
7.57183e-05
6.53075e-05
6.74251e-05
9.47488e-05
9.36846e-05
8.25901e-05
7.62997e-05
2.54484e-05
7.46168e-05
-3.91181e-05
0.000103421
-7.61364e-05
4.75927e-05
-5.6429e-05
3.2471e-05
-9.7543e-05
2.59541e-05
-8.5965e-05
6.08679e-05
-8.37725e-05
2.61635e-05
-5.09988e-05
4.03374e-05
-8.44407e-05
1.4796e-05
-5.21507e-05
5.59188e-05
-8.89682e-05
-6.13758e-05
3.13996e-05
-1.77067e-05
0.0002618
-2.9288e-05
0.00015725
-3.56772e-05
0.000123399
-5.6429e-05
0.000112122
-6.58727e-05
0.000130926
-4.2588e-05
0.000100586
-1.14471e-05
7.19109e-05
1.17475e-05
5.88008e-05
2.54132e-05
5.16417e-05
6.42208e-05
5.59412e-05
9.66195e-05
5.01913e-05
7.94218e-05
4.26462e-05
5.76e-05
-1.72963e-05
5.39596e-05
-7.24961e-05
4.65234e-05
-4.89927e-05
2.97794e-05
-8.07989e-05
2.32643e-05
-7.94499e-05
2.16018e-05
-8.211e-05
5.46903e-05
-8.40874e-05
2.56139e-05
-5.53643e-05
3.01836e-05
-5.67203e-05