/*--------------------------------*- C++ -*----------------------------------*\
| =========                 |                                                 |
| \\      /  F ield         | foam-extend: Open Source CFD                    |
|  \\    /   O peration     | Version:     4.1                                |
|   \\  /    A nd           | Web:         http://www.foam-extend.org         |
|    \\/     M anipulation  |                                                 |
\*---------------------------------------------------------------------------*/
FoamFile
{
    version     2.0;
    format      ascii;
    class       volScalarField;
    location    "0.85";
    object      psi;
}
// * * * * * * * * * * * * * * * * * * * * * * * * * * * * * * * * * * * * * //

dimensions      [1 -1 -2 0 0 0 0];

internalField   nonuniform List<scalar> 
2268
(
0.0905668
0.030786
-0.0519268
-0.096718
-0.0848613
-0.0965863
-0.121737
-0.14404
-0.150444
-0.141643
-0.123076
-0.101795
-0.081336
-0.0617661
-0.0348519
-0.00177221
0.0182754
0.0266011
0.0381996
0.0592873
0.0687116
0.0740375
0.0760519
0.0702991
-0.00138454
-0.105534
-0.164823
-0.136251
-0.133561
-0.145859
-0.160732
-0.16112
-0.148573
-0.128853
-0.105389
-0.0805736
-0.0493037
0.00163832
0.058418
0.0814296
0.0892356
0.0865422
0.0920022
0.09046
0.089395
0.0942334
-0.0128149
-0.126607
-0.270665
-0.338198
-0.267596
-0.226135
-0.206424
-0.202099
-0.190564
-0.172562
-0.153644
-0.12778
-0.0907873
-0.0329704
0.0637915
0.158991
0.177514
0.203258
0.182057
0.153916
0.126061
0.118462
0.140077
-0.136937
-0.320709
-0.510901
-0.564316
-0.434211
-0.339608
-0.27824
-0.249662
-0.226304
-0.205666
-0.194212
-0.167833
-0.102306
-0.00200334
0.146942
0.255853
0.24489
0.33932
0.299666
0.232703
0.163701
0.157963
0.211669
-0.299283
-0.5678
-0.806475
-0.808883
-0.604367
-0.451324
-0.347536
-0.294694
-0.264264
-0.255466
-0.261827
-0.240503
-0.118104
0.0221762
0.168119
0.210016
0.162319
0.421142
0.325685
0.289685
0.161302
0.197276
0.297857
-0.503832
-0.849148
-1.12857
-1.03265
-0.749497
-0.545846
-0.409473
-0.343809
-0.307868
-0.339025
-0.369446
-0.354467
-0.147925
-0.0390464
-0.0417726
-0.17931
-0.223915
0.241352
0.130794
0.260931
0.0380617
0.187903
0.398932
-0.750833
-1.13536
-1.43478
-1.18726
-0.841932
-0.619733
-0.481562
-0.422646
-0.382883
-0.477358
-0.527166
-0.497563
-0.193205
-0.277204
-0.774093
-1.25872
-1.20041
-0.315029
-0.552958
0.0121401
-0.276587
0.0391553
0.496245
-1.05658
-1.43088
-1.68034
-1.30798
-0.965133
-0.764128
-0.648523
-0.594234
-0.55928
-0.724533
-0.774058
-0.705955
-0.413829
-0.955009
-2.3331
-3.34929
-2.91297
-1.15492
-2.0747
-0.560939
-0.929226
-0.53982
0.404069
1.38107
1.53944
1.90487
2.21363
2.46338
2.70755
2.96254
3.14177
2.90867
2.54949
2.01634
1.03365
0.0413978
-0.266467
0.0153156
1.29545
0.707329
-0.13971
-0.689428
1.40044
1.4352
1.55513
1.49494
1.49185
1.35009
1.40729
1.58879
1.07379
0.797041
0.819697
1.26799
0.558405
-0.235073
-0.625381
0.15905
0.893783
0.142649
-0.369689
1.41221
1.26798
1.18173
1.0693
1.12354
1.11874
0.692804
0.680472
0.53583
-0.166245
-0.549948
-0.102176
0.63368
0.280891
-0.341154
-1.01936
0.282951
0.15789
-0.0222765
1.40355
1.32181
1.23209
1.14644
1.45733
2.12659
1.95437
0.685793
1.14815
1.2122
-0.0402647
-1.11427
-0.157998
0.257584
0.84188
-1.62662
-0.50949
0.0337228
0.272506
1.3327
1.21606
1.19619
1.56296
1.6349
2.65059
3.04141
1.65673
2.05322
2.30488
1.85094
0.155237
-0.359151
-0.441896
0.756217
-1.18857
-0.777442
-0.102788
0.541575
1.2754
1.08146
1.24664
1.65826
1.71875
1.73943
3.17183
3.31044
2.98342
2.79107
2.32612
1.11034
0.0347529
-0.775923
0.125983
0.101336
-0.3415
0.173987
0.780521
1.34144
0.786768
1.37557
1.45874
1.81815
1.09228
2.01599
3.7911
2.82584
2.06062
2.41866
2.00455
0.650484
-0.748385
-0.424988
0.330449
0.412641
0.705172
1.08429
0.986079
0.412407
1.1756
1.12521
1.68054
1.21967
1.37635
2.30042
1.61413
1.23712
1.29473
1.59438
0.628642
-0.701269
-1.09407
0.260956
1.01331
1.28767
1.39842
-1.64151
-1.96071
-2.06426
-1.50589
-1.28571
-1.16664
-1.11792
-1.09604
-1.05763
-1.35771
-1.38756
-1.26987
-1.19614
-2.03311
-2.39498
-2.19468
-2.21548
-2.25848
-3.01603
-1.86498
-2.10317
-2.15402
-0.703278
-2.26832
-2.48101
-2.32735
-1.43669
-1.00235
-1.12722
-1.09011
-1.07062
-0.820935
-1.09445
-0.732621
-1.26412
-1.58163
-0.825982
-0.177143
0.283137
0.0471112
-0.818336
-1.70544
-2.98738
-3.56428
-4.70126
-3.53391
-2.5468
-2.44654
-1.78082
-0.992318
-0.528635
-0.513841
-0.426595
-0.0948603
-0.272091
0.0177226
0.0788238
0.604387
0.430385
1.1105
1.64349
1.30697
0.857603
0.270499
-0.255519
-1.1013
-1.22212
-1.04584
-1.5896
-1.96725
-1.28721
-0.0085044
0.122459
-0.505043
-0.0481847
0.188823
1.45946
0.931185
1.59092
1.5959
2.17142
2.48564
3.24943
2.71726
2.17945
1.6801
2.13533
1.69615
1.2284
0.527704
-0.328828
-0.437992
-0.428147
0.705623
1.0641
1.23864
1.4064
1.10697
1.04447
1.68632
1.69568
1.96035
2.19329
2.36785
2.73271
2.30882
1.6935
1.58229
1.33283
1.14593
1.30696
0.969563
0.821182
1.00183
0.882488
1.71505
1.95533
1.20033
1.23306
1.57192
2.32063
2.56924
2.55485
2.79436
3.21703
3.28059
3.18396
3.23209
2.60212
2.21442
2.27915
2.17802
1.87082
1.6037
1.4326
1.40066
1.2857
1.25021
3.05703
0.969816
1.64309
3.21073
3.39746
3.5144
3.50224
3.42741
3.41493
3.19618
3.2017
3.13332
2.56417
2.5044
2.6162
2.70938
2.84343
2.84489
2.83558
2.85246
2.8259
2.77771
2.81634
2.98986
1.8551
3.24803
3.25884
3.21216
3.17675
3.15605
3.16297
3.13284
3.12087
2.7179
2.60684
2.58098
2.6759
2.73559
2.98735
3.08148
3.19226
3.251
3.25352
3.28247
3.17398
3.13761
2.95767
2.32563
3.07394
3.27865
3.06292
3.04292
2.93839
2.86245
2.7391
2.64892
2.63529
2.70729
2.70968
2.89234
2.9762
3.02816
2.92092
3.02783
2.85646
2.76079
2.67651
2.9775
2.94135
2.93255
2.59769
3.18386
2.82526
2.47619
2.51955
2.35802
2.34823
2.3204
2.38945
2.57004
2.59564
2.5516
2.62848
2.47524
2.19981
2.01451
1.97116
1.84496
1.78242
1.67125
2.01646
2.01148
2.9646
2.52657
3.33517
2.99002
1.96641
1.88021
1.76615
1.66385
1.58918
1.37774
1.37794
1.32234
1.25754
1.43835
1.08318
0.848926
0.768212
0.757807
0.785494
0.840797
0.862368
0.985339
0.868924
2.95414
2.60651
3.3086
2.48226
2.00233
1.83991
1.40871
0.941215
0.939041
0.648452
0.253523
0.194992
0.38876
0.575779
0.267071
0.133621
0.147148
0.21536
0.273654
0.355223
0.391128
0.427166
0.387728
2.90039
2.64441
3.10743
2.15259
1.68701
1.51248
1.11964
0.826893
0.755709
0.334879
0.0289021
0.0108061
0.0939496
0.119804
-0.00753072
-0.0237938
0.00269839
0.050458
0.0850399
0.128992
0.162868
0.19852
0.201483
2.85888
2.61824
3.17084
2.15249
1.23516
1.21582
1.06837
0.763006
0.689143
0.199293
0.0144544
-0.00585569
0.00901233
0.000606071
-0.0158767
0.00912304
0.0303237
0.0316472
0.0266172
0.0386861
0.0576638
0.084767
0.102511
2.79546
2.58573
3.11249
2.15057
1.21394
0.882006
0.806185
0.710405
0.640353
0.205595
0.032327
-0.00033033
-0.000475079
-0.00193371
-0.00541002
-0.00190467
0.00121261
0.00470531
-0.00058244
-0.00337289
-0.00240334
0.0104037
0.0351122
2.70387
2.54249
3.02006
2.24635
1.2372
0.90605
0.681087
0.565048
0.624999
0.255482
0.0250118
-0.00631648
-0.00105662
-0.000461157
-0.00126395
-0.00183832
-0.00204541
-0.00103786
-0.00133105
-0.00230961
-0.00433605
-0.00406887
0.00458455
2.55506
2.47997
2.90581
2.40748
1.58699
1.22931
0.852138
0.527779
0.595802
0.428231
0.118729
0.000834495
-0.00223578
0.000726373
-7.27215e-05
-0.000782329
-0.00102524
-0.000918716
-0.000697462
-0.000754661
-0.00131223
-0.00206832
-0.00208273
2.34411
2.41572
2.78496
2.51851
2.16371
1.96329
1.41516
0.662563
0.585587
0.510301
0.236548
0.00926771
-0.00446643
0.00800093
0.00193316
-4.77566e-05
-0.000231624
-0.000254315
-0.000207353
-0.000189754
-0.00017326
-0.000443669
-0.000939805
2.16846
2.34728
2.72337
2.48942
2.03053
1.59171
0.998456
0.577223
0.51532
0.475216
0.392377
0.162009
0.0463047
0.0189108
0.00277977
0.000183025
7.51196e-05
-3.63292e-06
-1.35035e-05
-1.53302e-05
2.31085e-06
1.92903e-05
-6.11762e-05
2.03924
2.22121
2.65695
2.51491
1.9487
0.848263
0.348398
0.251954
0.214123
0.335193
0.336419
0.220759
0.0498102
0.0143511
0.00443098
0.00113373
0.000176413
3.14437e-05
1.35278e-05
6.96717e-06
1.02763e-05
1.97145e-05
2.83484e-05
1.95018
2.19471
2.55522
2.47031
2.11667
1.33532
0.694405
0.361842
0.151044
0.206862
0.281068
0.233389
0.122117
0.0468443
0.00654774
-0.000466852
-0.000137053
-2.62663e-05
5.63651e-06
3.78975e-06
3.75304e-06
5.48258e-06
8.68523e-06
1.91065
2.21053
2.33561
2.40555
2.12089
1.36729
0.618891
0.242513
0.0600306
0.129415
0.217799
0.213101
0.165042
0.057633
0.0069443
0.0014653
0.000174943
1.7173e-05
1.24581e-05
4.56832e-06
1.36371e-06
5.6983e-07
2.85567e-07
1.89973
2.25158
1.9771
2.20348
1.85798
0.802254
0.212563
0.0355134
0.00939348
0.0497509
0.148532
0.179763
0.148459
0.0721553
0.0178336
0.00150073
-0.000580705
-0.00011377
-1.0629e-05
-5.46783e-07
-1.4515e-07
-1.25717e-07
-2.51485e-07
1.91261
2.21344
1.98308
1.76927
1.06489
0.281121
0.0797141
0.0114121
0.0114232
0.0309144
0.118442
0.142559
0.10528
0.0311804
0.000604982
-0.000627049
-0.000186844
-1.36343e-05
8.00612e-07
-4.09402e-07
-3.27035e-07
-1.27155e-07
-8.10945e-08
1.9273
2.12685
1.84813
1.53703
0.738501
0.245389
0.056192
0.000632304
0.0100333
0.0377878
0.0985237
0.087471
0.0380446
-0.00536315
-0.00308709
-0.000706621
-7.45137e-05
-8.23341e-06
-3.77131e-06
-1.55898e-06
-4.50496e-07
-6.53977e-08
-2.00818e-08
1.94698
2.02451
1.58174
1.22667
0.541782
0.176297
0.0167822
-0.00671749
0.0080845
0.0248633
0.0516482
0.0197742
0.000744658
-0.0038662
-0.000508878
3.71009e-05
1.48498e-05
-5.74369e-06
-5.0387e-06
-2.06489e-06
-4.34686e-07
-2.83226e-08
-5.04709e-10
1.96651
1.87808
1.22099
0.894021
0.479669
0.150224
0.00798618
-0.0054282
0.00581448
0.0102527
0.0136332
0.000954284
-0.00161823
0.000531333
0.000458191
5.84796e-05
-3.7653e-05
-2.10419e-05
-8.9143e-06
-3.67691e-06
-7.16409e-07
-1.71647e-08
1.21866e-08
1.98118
1.70502
1.09908
0.662317
0.323455
0.110348
0.00196726
-0.00265252
0.00353005
0.00382946
0.00175824
0.00134021
0.00297391
0.00290841
0.000548925
-5.8902e-05
-4.24338e-05
-3.57557e-06
-7.61192e-06
-5.12255e-06
-1.56059e-06
-3.53032e-07
-6.34269e-08
1.97237
1.23462
0.707586
0.448226
0.195814
0.0490422
-0.00529607
0.00111974
0.00428068
0.0041961
0.00431292
0.00785111
0.0126905
0.00738875
0.00188433
4.81737e-05
0.000186233
8.3068e-05
3.3149e-06
-7.05867e-06
-2.56054e-06
-6.30367e-07
-1.5317e-07
1.84732
1.53597
0.862802
0.481019
0.193807
0.0382056
-0.00208759
0.00265919
0.00527842
0.0105953
0.0182309
0.0251506
0.0274114
0.0180273
0.00680352
0.00124665
0.000769985
0.000221814
2.16452e-06
-1.68763e-05
-5.49398e-06
-1.34009e-06
-2.94085e-07
1.75102
1.42616
0.792568
0.410719
0.134843
0.0218646
0.00252414
0.00510511
0.00592747
0.0128731
0.0273342
0.0392897
0.0450616
0.0378764
0.0191997
0.00540123
0.00206699
0.000493987
1.54408e-05
-2.48682e-05
-9.70325e-06
-1.83828e-06
-4.44003e-07
1.66266
1.24727
0.687349
0.323898
0.0970375
0.0208434
0.00667107
0.00816489
0.00699044
0.0190815
0.0408577
0.0487826
0.051959
0.0497455
0.0295736
0.0102022
0.00333566
0.000605752
-2.03459e-05
-3.81453e-05
-1.021e-05
-2.41639e-06
-6.77856e-07
1.57365
1.07352
0.569135
0.233309
0.0744065
0.0240233
0.0121668
0.0116109
0.00898607
0.0158304
0.0256998
0.0430019
0.0546424
0.0530094
0.0367194
0.0120225
0.00337841
0.000313452
-5.37267e-05
-2.60002e-05
-7.74992e-06
-1.15997e-06
-1.111e-06
1.48152
0.925138
0.464966
0.159092
0.0600211
0.0312909
0.0204344
0.0173549
0.0141628
0.0183993
0.0265684
0.0363482
0.05153
0.0526612
0.0368427
0.00927071
0.00197289
0.000985635
7.62279e-05
6.96658e-07
-1.85558e-06
-6.03939e-07
-2.84452e-06
1.3926
0.777738
0.359583
0.0997445
0.0479225
0.0365587
0.0302978
0.0270443
0.0239576
0.0272575
0.0283164
0.0360923
0.0523046
0.0519012
0.0358264
0.0129775
0.00201674
0.000266282
-9.06205e-05
-2.69869e-05
-4.92331e-06
-1.65117e-06
-6.34113e-06
1.29192
0.582362
0.202825
0.050404
0.0425449
0.0421185
0.0414632
0.0415125
0.0407114
0.0406798
0.0385923
0.048406
0.0552527
0.04864
0.0272771
0.00172547
-0.00116821
-0.000438769
-8.95681e-05
-1.49583e-05
-1.52434e-06
-1.99513e-06
-6.91949e-06
1.17478
0.440252
0.115459
0.0460366
0.0519243
0.0535775
0.0592257
0.0605167
0.0596464
0.0567555
0.0566185
0.0611208
0.0575866
0.0310809
0.00947416
-9.88042e-05
-0.000667236
-0.00018653
-2.48536e-05
-2.19486e-07
9.50666e-07
-2.58942e-06
-1.17259e-05
1.05679
0.3428
0.0768836
0.0595251
0.0646419
0.0743379
0.0709402
0.065352
0.0631498
0.0624372
0.0613629
0.0607564
0.0480742
0.0244532
0.00587952
1.23102e-05
-0.000201441
-4.62268e-05
-1.78855e-07
2.65724e-06
7.04345e-07
-4.37314e-06
-1.51043e-05
0.981256
0.340334
0.107676
0.0859606
0.0878926
0.0756508
0.0657114
0.059114
0.0555632
0.0562916
0.0476192
0.0367293
0.0119127
0.00101488
-0.000638876
-0.000506202
-0.000152994
-1.81733e-05
2.39056e-06
1.46906e-06
3.33166e-07
-5.58543e-06
-1.87517e-05
0.902315
0.303807
0.112991
0.0934569
0.0814224
0.0589698
0.039501
0.0243733
0.0213629
0.0251956
0.00972059
0.00597591
-0.00039191
-0.00154407
-0.000746903
-0.000196455
-3.14728e-05
4.15573e-06
2.20723e-06
8.49786e-07
3.73112e-08
-6.24565e-06
-2.5906e-05
0.846581
0.252362
0.11657
0.0786751
0.0400205
0.0061557
0.00169678
-0.00149109
-0.0012521
-0.000469659
-0.00250282
-0.00173787
-0.00121779
-0.000534565
-0.000131678
1.40137e-06
9.00668e-06
3.15515e-06
6.4535e-07
5.94958e-07
2.94356e-08
-5.85565e-06
-2.76223e-05
0.513981
0.0286452
0.0113564
-0.00460424
-0.0061822
-0.00524444
-0.00223312
-0.00122564
-0.00092026
-0.000829561
-0.000889971
-0.000617373
-0.000308492
-9.36967e-05
-7.24521e-06
1.00656e-05
4.17263e-06
6.82168e-07
3.1354e-07
5.84761e-07
2.37628e-07
-5.49597e-06
-2.80344e-05
0.103984
1.82111
1.64497
-4.66689
-0.9259
0.531387
-1.21067
-3.52584
-1.34808
-1.75353
-2.06201
-0.987144
-0.409
0.0434352
-0.135618
0.967866
1.50609
2.3744
2.44148
1.95293
1.32921
1.4642
1.70041
1.36466
2.87422
2.91916
3.0096
3.1695
3.20397
3.18804
3.18004
3.15422
2.64745
2.62483
2.55561
2.49161
1.65666
1.70641
1.70641
1.6675
0.855883
0.89478
0.95108
0.946477
0.423335
0.435935
0.446886
0.435594
0.224879
0.220454
0.224857
0.19455
0.112156
0.104397
0.102302
0.0778269
0.0475987
0.0433791
0.0380143
0.0273962
0.0135966
0.0141687
0.0114637
0.00773786
-0.000368682
0.000860741
0.000665253
-8.73214e-06
-0.00120577
-0.00101512
-0.000837722
-0.000735467
-0.000191075
-0.000260253
-0.000276004
-0.000276541
2.67677e-05
1.63027e-05
-4.89477e-07
-1.39417e-05
1.13654e-05
1.19383e-05
1.06858e-05
8.90199e-06
6.92675e-07
1.53571e-06
2.85777e-06
3.16182e-06
-2.81309e-07
-2.3374e-07
-4.65008e-08
3.86897e-08
-1.03287e-07
-1.219e-07
-1.25434e-07
-1.20541e-07
-1.64926e-08
-1.82956e-08
-1.99093e-08
-1.83754e-08
2.35618e-09
9.44242e-09
2.84752e-08
4.68e-08
1.66813e-08
3.63171e-08
8.05122e-08
1.05741e-07
2.68701e-08
1.08615e-07
2.0027e-07
2.76399e-07
3.54403e-08
2.22259e-07
4.33702e-07
6.00298e-07
7.95618e-08
4.23796e-07
7.67306e-07
8.70323e-07
1.03901e-07
5.33819e-07
1.07218e-06
5.48509e-07
-1.23828e-07
1.25304e-07
8.69929e-07
1.16085e-06
-4.30605e-07
-6.98948e-07
-1.01084e-06
-5.55118e-06
-3.17213e-06
-4.68836e-06
-6.87611e-06
-1.42864e-05
-1.11087e-05
-1.63791e-05
-2.09666e-05
-3.12252e-05
-1.90021e-05
-2.78353e-05
-3.8536e-05
-5.40064e-05
-3.14701e-05
-4.4934e-05
-5.55765e-05
-6.73899e-05
-3.65629e-05
-5.65631e-05
-7.27334e-05
-8.24393e-05
-4.03045e-05
-6.0565e-05
-8.12413e-05
-8.91677e-05
-5.31465e-05
-7.03786e-05
-8.57392e-05
-9.33299e-05
-5.63921e-05
-7.7375e-05
-9.23054e-05
-9.77312e-05
-5.59251e-05
-7.96671e-05
-9.37431e-05
-9.90483e-05
-1.0409
0.665898
1.1639
1.49889
2.77435
3.38517
2.32482
2.16388
2.22746
2.02263
1.2926
1.24763
0.456617
-0.486689
-0.890865
-0.127541
0.705314
1.8154
1.86129
-0.329867
1.74955
2.39201
2.78019
1.95229
1.98986
2.62544
2.80545
2.61548
2.26711
1.89767
1.63385
0.826231
0.22598
0.5125
0.374576
1.94535
2.08745
2.25176
0.716545
1.81127
1.4746
1.66904
2.08793
2.48161
2.71665
2.72374
2.53076
2.65408
2.48688
1.58775
0.805842
1.11785
1.64597
2.33486
2.08043
1.76728
1.99463
3.14799
1.42497
2.00851
2.08767
2.0654
2.14075
2.18715
1.91581
1.66132
1.39822
2.52862
2.55571
3.16615
2.51766
2.29184
2.95789
0.616304
0.648001
1.00987
0.972979
1.51459
2.14564
1.97013
1.94435
2.20318
2.66739
2.31919
3.05145
3.78396
3.98967
3.371
3.52934
2.76751
1.90845
1.21608
0.26837
0.357843
0.356823
2.05482
2.99896
3.12232
3.25241
3.73561
4.10633
4.00848
4.17039
3.9869
3.75584
3.16964
1.76263
1.02302
0.773471
0.385517
0.159742
0.158128
0.276138
0.211647
3.42105
3.47325
3.52141
3.57795
3.28858
2.99684
3.28507
2.93954
2.8581
1.69698
1.34434
0.867302
0.437065
0.23406
0.103248
0.115664
0.120484
0.15273
0.178692
3.08173
2.97025
2.85167
2.84587
2.51054
1.97257
1.9702
1.3709
1.13747
0.803288
0.687213
0.714997
0.358867
0.175782
0.127816
0.116378
0.102459
0.0825328
0.140167
2.51479
2.62989
2.47763
2.27996
2.55831
2.00887
1.66272
1.28605
0.954917
0.685861
0.466567
0.347701
0.250344
0.185211
0.139482
0.104514
0.0891317
0.0708916
0.1025
1.6089
1.46952
1.93374
1.60582
1.48074
1.53358
1.25874
1.08027
0.816407
0.624816
0.477585
0.367836
0.275198
0.204659
0.143161
0.0989185
0.0758002
0.0652076
0.081029
0.883629
0.708217
0.854905
1.05731
0.79715
0.875651
0.810111
0.872555
0.754319
0.543841
0.457766
0.401169
0.336577
0.26867
0.196973
0.112025
0.0639281
0.0586152
0.0691433
0.414633
0.411173
0.307795
0.366598
0.283387
0.343513
0.312927
0.334068
0.441474
0.318236
0.263643
0.220782
0.228586
0.192793
0.192809
0.100192
0.0493639
0.0534939
0.0605924
0.17076
0.156687
0.164612
0.107529
0.087692
0.137093
0.115433
0.0966061
0.157296
0.116413
0.0965931
0.0561836
0.0710896
0.0704583
0.135463
0.0668436
0.0376381
0.0506548
0.0532805
0.0589207
0.0394116
0.0633377
0.0311635
0.0305394
0.0514291
0.0332534
0.0227629
0.037276
0.0262614
0.0153443
0.00404168
0.0110117
0.0148077
0.0493348
0.0347931
0.031541
0.0452656
0.0481256
0.0164065
0.00677303
0.0128634
0.00850004
0.0103809
0.0160192
0.0141328
0.00904329
0.00350552
0.00295397
0.00173314
-0.000550739
-0.000274492
-0.00110327
0.00659497
0.00988794
0.0256759
0.0405107
0.0443041
0.00416677
0.000541821
0.00106205
0.00167817
0.00346125
0.00465564
0.00752801
0.00526738
0.000746993
0.000485593
0.000448979
0.000355226
-4.73325e-05
-0.00141649
-0.00122775
0.00235067
0.0184014
0.0352722
0.0410646
0.000502524
-0.000285054
-0.000300189
-0.000152945
0.000381131
0.00150618
0.00264678
0.00221842
0.000850287
0.000500021
0.000385643
0.000418339
0.000288554
-0.000391992
-0.000453839
0.00293005
0.0163241
0.0299322
0.038342
-0.000344724
-0.000311209
-0.000221273
-0.000310833
-0.000323418
0.000372833
0.000424895
0.000470296
0.000232105
0.000150912
0.000131679
0.000170085
0.000172433
-0.000200719
-0.000570803
0.000467359
0.0100702
0.0253325
0.0360656
-0.000230571
-0.000189656
-0.000152307
-0.000181858
-0.000176947
-1.56786e-05
-8.56799e-05
1.15771e-05
-3.65425e-05
-3.495e-05
-8.90108e-06
3.02405e-05
1.90597e-05
-0.000212048
-0.000438678
0.000604146
0.00761982
0.0214196
0.0340698
-2.2884e-05
-3.04212e-05
-4.34217e-05
-5.52279e-05
-8.18374e-05
-8.16518e-05
-6.72749e-05
-4.7462e-05
-4.55828e-05
-3.61132e-05
-2.8266e-05
-9.52242e-06
-2.07103e-05
-0.000209795
-0.000352015
0.000557736
0.00602771
0.0183081
0.0323134
7.59627e-06
5.36061e-06
-8.25642e-07
2.72794e-06
-3.16273e-06
-2.88174e-05
-3.16868e-05
-4.14824e-05
-3.31635e-05
-2.47277e-05
-2.36385e-05
-1.37682e-05
-3.28944e-05
-0.00017176
-0.000271647
0.000354144
0.00439162
0.0159026
0.0306588
3.62509e-06
3.49552e-06
3.13299e-06
3.86431e-06
3.90547e-06
1.33011e-07
2.04264e-07
-1.90603e-06
-3.36657e-06
-3.05015e-06
-7.23912e-06
-7.10823e-06
-1.56829e-05
-0.000124477
-0.000239268
-5.62283e-05
0.00298973
0.0145474
0.029047
2.72424e-07
4.60197e-07
1.31148e-06
1.91335e-06
1.92769e-06
1.19232e-06
9.22245e-07
4.14465e-07
-6.97607e-08
-7.49164e-07
-2.13062e-06
-8.48119e-07
-2.36357e-06
-7.84429e-05
-0.000208476
-0.000205047
0.00238132
0.0137856
0.0273234
-9.72574e-08
-8.04521e-08
-3.37437e-08
-4.45794e-08
2.0244e-08
2.19654e-07
-1.90311e-07
-1.04857e-06
-6.26498e-07
-1.01003e-06
-1.26825e-06
7.51259e-08
3.87886e-07
-4.47663e-05
-0.00021083
-0.000361395
0.00186223
0.0130825
0.0255603
-1.45126e-08
-1.16897e-08
-9.64773e-08
-2.74475e-07
-7.27235e-07
-2.35971e-06
-5.87709e-06
-6.04031e-06
-6.17367e-06
-5.93128e-06
-5.29056e-06
-3.52762e-06
-1.92618e-06
-2.97848e-05
-0.000196152
-0.00040023
0.00170893
0.0129955
0.0239315
5.26736e-08
4.74136e-08
-3.03256e-07
-5.53112e-07
-1.39723e-06
-3.34603e-06
-1.02864e-05
-1.14869e-05
-1.32609e-05
-1.33061e-05
-1.22706e-05
-1.01275e-05
-6.63808e-06
-2.10774e-05
-0.000171163
-0.000352941
0.00171951
0.0116475
0.0219676
1.1195e-07
1.34102e-08
-8.62242e-07
-2.23121e-06
-5.03663e-06
-1.00656e-05
-1.79428e-05
-1.91324e-05
-1.91623e-05
-1.85575e-05
-1.75996e-05
-1.69738e-05
-1.46677e-05
-3.5146e-05
-0.000170712
-0.000265597
0.00164744
0.00970701
0.0205065
1.26209e-07
-1.47566e-07
-2.5237e-06
-6.93905e-06
-1.58106e-05
-1.97087e-05
-2.09981e-05
-2.38349e-05
-2.39685e-05
-2.15651e-05
-2.1618e-05
-2.10795e-05
-1.94836e-05
-3.14232e-05
-0.0001461
-0.000290236
0.000906432
0.00789817
0.0193508
-3.91154e-07
-3.51581e-06
-7.47489e-06
-2.15144e-05
-2.43839e-05
-2.44974e-05
-2.22015e-05
-2.56102e-05
-2.38853e-05
-1.22387e-05
-1.29799e-05
-1.7866e-05
-2.1716e-05
-2.74652e-05
-0.00011128
-0.000319462
0.000439956
0.0069919
0.0183282
-8.413e-07
-9.22292e-06
-1.78074e-05
-3.38364e-05
-3.24818e-05
-2.41895e-05
-1.82269e-05
-5.25507e-06
4.03993e-05
3.3342e-05
1.83584e-05
-4.16842e-06
-1.79639e-05
-2.86943e-05
-9.83508e-05
-0.000188081
0.000599327
0.00640368
0.0173248
-5.17101e-06
-2.2021e-05
-3.87535e-05
-3.8606e-05
-3.07101e-05
-1.28659e-06
2.26912e-05
0.000115706
0.000151875
0.000134049
0.00010219
6.87415e-05
3.9819e-05
6.85756e-07
-0.000104827
-0.000272745
0.000153401
0.00614779
0.0164029
-5.59371e-06
-2.93671e-05
-4.43401e-05
-4.6161e-05
-1.32967e-05
5.20736e-05
9.94055e-05
0.000330153
0.000356468
0.00031787
0.000282946
0.000223432
0.000174283
0.000110679
-7.97974e-05
-0.000254534
0.000203764
0.00592685
0.0153756
-2.2978e-05
-4.75091e-05
-4.8976e-05
-3.77777e-05
6.89673e-05
0.000231293
0.000353839
0.000726888
0.000741327
0.000718339
0.000619096
0.000485469
0.000308642
0.000132405
-8.96137e-05
-0.000158907
0.000592658
0.00524952
0.014365
-3.95331e-05
-5.14155e-05
-5.2067e-05
1.35854e-05
0.000264488
0.000570789
0.000985318
0.00124366
0.00117166
0.0011822
0.00100492
0.000739164
0.000438994
0.000230693
-7.34885e-05
-0.00014048
0.000468657
0.00528376
0.0137454
-5.21056e-05
-5.4488e-05
-4.69686e-05
9.55367e-05
0.000362471
0.000760868
0.00150487
0.00169105
0.00168804
0.00172625
0.00161486
0.00127399
0.000773294
0.000415814
-3.08059e-05
-6.69124e-05
0.000358912
0.00346752
0.0127861
-6.66499e-05
-5.43592e-05
-2.53221e-05
0.000182656
0.000566176
0.00102569
0.00188151
0.00216064
0.00236647
0.00232235
0.00226073
0.00197052
0.0014124
0.000937042
0.000151846
9.28833e-06
0.000163597
0.00361404
0.0124243
-7.26684e-05
-4.74974e-05
1.27988e-05
0.000260046
0.000674963
0.00114367
0.0021017
0.00261487
0.00264161
0.00246437
0.0023224
0.00223293
0.0018936
0.00117876
0.000444113
5.86874e-05
3.00202e-05
0.00230562
0.0109266
-7.99229e-05
-2.06438e-05
0.00013215
0.000473946
0.00105303
0.00170235
0.002402
0.00277431
0.00258998
0.00205651
0.00190408
0.00189467
0.00179699
0.00137434
0.000930227
0.000151667
-6.4035e-05
0.00202437
0.0137889
-8.37651e-05
-7.68973e-06
0.000210344
0.000647255
0.00123616
0.00206653
0.00260458
0.00276055
0.00221518
0.00166012
0.00152271
0.00155526
0.00175272
0.00151361
0.000922792
0.000101091
3.04322e-05
0.00199296
0.0117624
-8.37088e-05
5.54413e-06
0.000272935
0.00077654
0.00136172
0.0022803
0.00273111
0.00259517
0.00190674
0.00158689
0.00136281
0.00131207
0.00151679
0.00144112
0.000996164
0.000149512
0.00039449
0.00253327
0.0109447
-8.28074e-05
4.57575e-05
0.000415703
0.000760475
0.00112527
0.00171897
0.00264927
0.00265471
0.00209288
0.00175384
0.00131595
0.00115394
0.00120072
0.00118537
0.000815725
0.00024047
0.000396153
0.00232399
0.0102685
-8.82599e-05
4.1811e-05
0.000478508
0.000801506
0.0011167
0.00150541
0.00225484
0.0027487
0.00254192
0.00188328
0.00133382
0.00108861
0.00094677
0.000833369
0.000504429
0.000279255
0.00027841
0.000781689
0.00481292
)
;

boundaryField
{
    leftWall
    {
        type            zeroGradient;
    }
    rightWall
    {
        type            zeroGradient;
    }
    lowerWall
    {
        type            zeroGradient;
    }
    atmosphere
    {
        type            zeroGradient;
    }
    defaultFaces
    {
        type            empty;
    }
}


// ************************************************************************* //
