/*--------------------------------*- C++ -*----------------------------------*\
| =========                 |                                                 |
| \\      /  F ield         | foam-extend: Open Source CFD                    |
|  \\    /   O peration     | Version:     4.1                                |
|   \\  /    A nd           | Web:         http://www.foam-extend.org         |
|    \\/     M anipulation  |                                                 |
\*---------------------------------------------------------------------------*/
FoamFile
{
    version     2.0;
    format      ascii;
    class       volVectorField;
    location    "0.85";
    object      U;
}
// * * * * * * * * * * * * * * * * * * * * * * * * * * * * * * * * * * * * * //

dimensions      [0 1 -1 0 0 0 0];

internalField   nonuniform List<vector> 
2268
(
(-0.00219685 0.00974139 0)
(-0.0383513 0.00679697 0)
(-0.0380477 -0.00661874 0)
(-0.03844 -0.0102945 0)
(-0.0446763 1.11717e-05 0)
(-0.0371234 7.22804e-05 0)
(-0.0432552 0.000341717 0)
(-0.0414297 -0.0053413 0)
(-0.0299689 -0.00858186 0)
(-0.0242675 -0.00436816 0)
(0.0292245 -0.00925989 0)
(0.0448881 -0.00905481 0)
(0.0578232 -0.00316372 0)
(0.0774813 -0.0115006 0)
(0.101571 -0.0220261 0)
(0.1163 -0.00506309 0)
(0.146594 0.000841876 0)
(0.132513 -0.0112839 0)
(0.137071 -0.00254281 0)
(0.133887 -0.0442424 0)
(0.086189 0.0143943 0)
(0.0537594 -0.00929031 0)
(0.0262214 0.0213061 0)
(0.0199026 0.00987905 0)
(-0.0251863 0.00942954 0)
(-0.0307486 0.00782652 0)
(-0.0372354 -0.00760784 0)
(-0.0427421 0.000335753 0)
(-0.0353478 -0.00126057 0)
(-0.039887 0.000651675 0)
(-0.0331045 0.00224881 0)
(-0.0111371 0.00428165 0)
(-0.00315362 -0.0242316 0)
(0.0420346 -0.00779152 0)
(0.0476254 -0.0190821 0)
(0.0582317 -0.0135615 0)
(0.0679556 -0.0276328 0)
(0.0970376 -0.0146464 0)
(0.120157 -0.0178199 0)
(0.140499 -0.00735755 0)
(0.147302 0.0227451 0)
(0.140273 0.0649529 0)
(0.146786 0.00863466 0)
(0.0932044 0.0198111 0)
(0.0359279 0.0397493 0)
(0.0528473 0.0154667 0)
(0.0092455 0.0104849 0)
(-0.0274431 0.0184798 0)
(-0.030043 -0.00366043 0)
(-0.0367099 -0.00768645 0)
(-0.0399373 -0.000368799 0)
(-0.0315281 -0.000220506 0)
(-0.0352946 0.000600953 0)
(-0.0329001 -0.0120101 0)
(-0.0211116 -0.0166212 0)
(-0.0108619 -0.0347806 0)
(0.0236955 -0.0382083 0)
(0.0214267 -0.0518675 0)
(0.0188344 -0.0409944 0)
(0.0297803 -0.0485746 0)
(0.0543129 -0.0310123 0)
(0.0753338 -0.0209134 0)
(0.139411 -0.0134783 0)
(0.144917 -0.0184779 0)
(0.129743 0.0517971 0)
(0.114869 0.0305677 0)
(0.108173 0.0509739 0)
(0.0527736 0.0462646 0)
(0.0292747 0.0687002 0)
(0.00311002 0.0191741 0)
(-0.0364334 0.0133826 0)
(-0.035525 0.011169 0)
(-0.0330859 -0.00564774 0)
(-0.0357743 -0.000328718 0)
(-0.0331432 -0.00249449 0)
(-0.0417024 0.000511069 0)
(-0.045069 -0.0136367 0)
(-0.0245866 -0.0176944 0)
(-0.018203 -0.0107146 0)
(-0.024854 -0.0129068 0)
(-0.0232991 -0.0268482 0)
(-0.0162466 -0.022761 0)
(-0.00257291 -0.00246816 0)
(0.0270045 -0.0331659 0)
(0.0441502 -0.0142537 0)
(0.0582309 -0.0207945 0)
(0.0985449 -0.0342973 0)
(0.113729 0.0279161 0)
(0.104578 0.0183821 0)
(0.091927 0.0716146 0)
(0.0398366 0.122411 0)
(0.0538628 0.0452153 0)
(-0.0139173 0.0262781 0)
(-0.0369614 0.0193033 0)
(-0.0345476 -0.00513166 0)
(-0.0370561 -0.00870268 0)
(-0.0393836 -0.000834855 0)
(-0.0394224 0.00091701 0)
(-0.0490626 0.00271605 0)
(-0.0445465 -0.00355072 0)
(-0.0486116 -0.0297059 0)
(-0.0400351 -0.0179713 0)
(-0.0591977 -0.0426474 0)
(-0.0555509 -0.0633239 0)
(-0.0213114 -0.0620651 0)
(-0.0160315 -0.0816957 0)
(0.00997515 -0.0424766 0)
(0.0356395 -0.0451914 0)
(0.0582542 -0.0425727 0)
(0.0777016 0.000419659 0)
(0.0696199 -0.00244568 0)
(0.0762289 0.038189 0)
(0.107177 0.0274017 0)
(0.0121754 0.104375 0)
(-0.00558859 0.112802 0)
(-0.00991405 0.0317199 0)
(-0.0463532 0.0173705 0)
(-0.0450365 0.0132621 0)
(-0.0273246 -0.00386841 0)
(-0.0289739 0.00164495 0)
(-0.0336358 0.000386079 0)
(-0.0630422 0.00788349 0)
(-0.0877698 0.00883319 0)
(-0.079692 0.0028808 0)
(-0.0766368 -0.0112215 0)
(-0.0904101 -0.0427258 0)
(-0.0712786 -0.0568487 0)
(-0.0564214 -0.0612803 0)
(-0.0160537 -0.0781843 0)
(0.0391914 -0.0551389 0)
(0.0444425 -0.0395148 0)
(0.0652884 -0.0353916 0)
(0.0783683 -0.0101158 0)
(0.083048 0.00100105 0)
(0.0668032 0.0374278 0)
(0.0741495 0.0622648 0)
(0.0462695 0.0819161 0)
(0.0474453 0.153368 0)
(-0.0198052 0.0390092 0)
(-0.0517531 0.0283045 0)
(-0.0601976 -0.0110338 0)
(-0.0620739 -0.0143458 0)
(-0.0654618 0.000160708 0)
(-0.0864311 0.00821808 0)
(-0.0953007 0.00922318 0)
(-0.100704 0.00207999 0)
(-0.0984105 0.00525644 0)
(-0.097736 -0.00760838 0)
(-0.0873674 -0.00451182 0)
(-0.0734542 -0.02093 0)
(-0.0328348 -0.0238999 0)
(-0.0150974 -0.064799 0)
(0.0205711 -0.075002 0)
(0.0679647 -0.0553063 0)
(0.0861862 -0.0279239 0)
(0.114244 -0.0353985 0)
(0.123797 0.0366472 0)
(0.0949833 0.124471 0)
(0.0924965 0.059012 0)
(0.0520855 0.0999329 0)
(0.0485855 0.229768 0)
(-0.0105637 0.0494929 0)
(-0.0832098 0.0507908 0)
(-0.101767 0.0217986 0)
(-0.0939316 -0.0153375 0)
(-0.100544 0.0138206 0)
(-0.113121 0.0143506 0)
(-0.116029 0.014755 0)
(-0.118072 0.00853799 0)
(-0.101167 0.00034604 0)
(-0.0861055 -0.0196723 0)
(-0.077569 -0.058468 0)
(-0.0650236 -0.0852832 0)
(-0.0714352 -0.0994101 0)
(-0.0365438 -0.0846709 0)
(0.0350471 -0.0896404 0)
(0.0796181 -0.0728035 0)
(0.112412 -0.0554804 0)
(0.158809 0.00504027 0)
(0.234001 -0.0517509 0)
(0.136019 0.133107 0)
(0.0814908 0.0224484 0)
(0.133012 0.0778351 0)
(0.0881531 0.218694 0)
(-1.10092 0.244467 0)
(-1.3812 0.266661 0)
(-1.9174 0.0291867 0)
(-2.18142 0.0351059 0)
(-2.23289 0.0131607 0)
(-2.13153 -0.0404966 0)
(-2.08408 -0.0729506 0)
(-1.95687 -0.0535758 0)
(-1.83265 -0.0584414 0)
(-1.55926 -0.061996 0)
(-1.35749 -0.0547693 0)
(-1.11152 -0.0451076 0)
(-0.959715 -0.148558 0)
(-0.7605 -0.0640248 0)
(-0.670129 -0.0861249 0)
(-0.682376 -0.0553322 0)
(-0.40946 -0.014747 0)
(-0.339933 -0.118636 0)
(-0.0817448 -0.0267725 0)
(-1.0347 0.367111 0)
(-1.29916 0.51135 0)
(-1.65791 0.261524 0)
(-1.81977 0.152175 0)
(-1.79416 0.025332 0)
(-1.61332 0.0425911 0)
(-1.52223 -0.0670399 0)
(-1.41708 -0.0506152 0)
(-1.32846 -0.113343 0)
(-1.12339 -0.139368 0)
(-0.978793 -0.127095 0)
(-0.793075 -0.146526 0)
(-0.706763 -0.140752 0)
(-0.621521 -0.210978 0)
(-0.364559 -0.230516 0)
(-0.575186 0.00678416 0)
(-0.452211 0.0900907 0)
(-0.298042 -0.152775 0)
(-0.0722587 -0.157527 0)
(-0.963241 0.694517 0)
(-1.04958 0.874959 0)
(-1.06217 0.255834 0)
(-1.21535 0.027227 0)
(-1.21701 0.0182097 0)
(-0.862903 -0.0800474 0)
(-0.810728 -0.108661 0)
(-0.771187 -0.130742 0)
(-0.768453 -0.17145 0)
(-0.626857 -0.230084 0)
(-0.488528 -0.229241 0)
(-0.366019 -0.428553 0)
(-0.271282 -0.407618 0)
(-0.360029 -0.197518 0)
(-0.186392 -0.393647 0)
(-0.309956 -0.0395742 0)
(-0.375342 -0.0535899 0)
(-0.183701 -0.092681 0)
(-0.0109672 -0.191141 0)
(-0.780593 0.861063 0)
(-0.709426 0.985356 0)
(-0.622441 0.240561 0)
(-0.689352 -0.0855567 0)
(-0.781839 0.20755 0)
(-0.417528 -0.105503 0)
(-0.393128 -0.0860862 0)
(-0.402165 -0.0651939 0)
(-0.421515 -0.157726 0)
(-0.398442 -0.255585 0)
(-0.282274 -0.242791 0)
(-0.153365 -0.310355 0)
(-0.123941 -0.592987 0)
(-0.0141421 -0.179766 0)
(0.0515965 -0.219333 0)
(0.0223199 0.0520577 0)
(0.0130629 0.032754 0)
(-0.18666 -0.0669605 0)
(0.039346 -0.246891 0)
(-0.601 0.966881 0)
(-0.467226 1.1092 0)
(-0.259435 0.291192 0)
(-0.413704 0.00726332 0)
(-0.455501 0.0280358 0)
(-0.109125 -0.238928 0)
(-0.214695 -0.357162 0)
(-0.27045 0.0344088 0)
(-0.0433971 -0.179942 0)
(-0.0183814 -0.296692 0)
(0.04493 -0.301351 0)
(-0.00826477 -0.202875 0)
(0.125276 -0.366361 0)
(0.150976 -0.260763 0)
(0.130424 -0.120673 0)
(-0.00205972 -9.16063e-05 0)
(0.17266 0.00453862 0)
(-0.0774948 -0.0537372 0)
(0.0728168 -0.255142 0)
(-0.466506 1.07517 0)
(-0.199167 1.05185 0)
(-0.0612024 0.226772 0)
(-0.243933 0.00837773 0)
(-0.24625 0.00487711 0)
(-0.00507156 -0.190708 0)
(-0.0432562 -0.383461 0)
(-0.0851826 -0.0408274 0)
(0.135011 -0.225447 0)
(0.189024 -0.303413 0)
(0.190926 -0.272087 0)
(0.159156 -0.293505 0)
(0.180407 -0.252417 0)
(0.226201 -0.250021 0)
(0.219659 -0.167433 0)
(0.129639 0.049633 0)
(0.184927 0.0326361 0)
(0.0288546 -0.0202697 0)
(0.089431 -0.250958 0)
(-0.362341 1.11093 0)
(-0.0517249 1.08647 0)
(0.105472 0.301995 0)
(0.0466991 0.173054 0)
(-0.0867997 -0.0517832 0)
(0.150266 -0.349929 0)
(0.0927922 -0.373924 0)
(0.142756 -0.125788 0)
(0.233054 -0.300518 0)
(0.324797 -0.30352 0)
(0.327779 -0.271529 0)
(0.242874 -0.217043 0)
(0.257045 -0.279641 0)
(0.270247 -0.242571 0)
(0.25196 -0.169421 0)
(0.235453 0.0118049 0)
(0.178611 0.0423179 0)
(0.0696156 0.0122125 0)
(0.092274 -0.224259 0)
(-0.30327 1.27718 0)
(0.132304 0.9628 0)
(0.22781 0.239664 0)
(0.145706 0.0989985 0)
(0.0959099 -0.0642139 0)
(0.315854 -0.313037 0)
(0.308543 -0.276293 0)
(0.428145 -0.235822 0)
(0.389049 -0.312813 0)
(0.419565 -0.444265 0)
(0.411777 -0.241598 0)
(0.306895 -0.260501 0)
(0.291846 -0.266835 0)
(0.278468 -0.16924 0)
(0.251858 -0.163759 0)
(0.269975 -0.00870212 0)
(0.177992 0.096969 0)
(0.0857097 0.0204758 0)
(0.0936704 -0.183316 0)
(-0.0340026 0.0666004 0)
(-0.0710576 0.0561823 0)
(-0.131905 0.0399777 0)
(-0.127895 0.00749203 0)
(-0.0987636 0.00855581 0)
(-0.124866 0.016327 0)
(-0.120359 0.0110103 0)
(-0.118529 -0.00964786 0)
(-0.107552 -0.0148792 0)
(-0.10712 -0.0669033 0)
(-0.0827852 -0.0819671 0)
(-0.0721421 -0.145844 0)
(-0.0432901 -0.179147 0)
(-0.0425667 -0.163612 0)
(-0.0416486 -0.119467 0)
(0.0714128 -0.138194 0)
(0.150232 -0.0662568 0)
(0.138282 0.0168336 0)
(0.24045 -0.00208602 0)
(0.222371 0.0508302 0)
(0.125377 0.0690249 0)
(0.166475 0.0927141 0)
(0.1983 0.096159 0)
(-0.0267372 0.0959552 0)
(-0.0974823 0.0908318 0)
(-0.0968939 0.0525171 0)
(-0.0820758 0.0676809 0)
(-0.0789272 0.0329293 0)
(-0.0749385 0.0359422 0)
(-0.103713 0.0269998 0)
(-0.106891 -0.00438267 0)
(-0.130266 -0.00873574 0)
(-0.136536 -0.0467105 0)
(-0.168387 -0.0267334 0)
(-0.231525 -0.137777 0)
(-0.228628 -0.141778 0)
(-0.150836 -0.209126 0)
(-0.0733778 -0.19897 0)
(-0.0588036 -0.240648 0)
(-0.0400927 -0.129755 0)
(0.164696 -0.0676753 0)
(0.105039 0.0315154 0)
(0.145266 0.210045 0)
(0.0835408 0.165086 0)
(0.0977888 0.0570076 0)
(0.170001 -0.0236929 0)
(-0.0347304 0.128546 0)
(-0.0597068 0.0959625 0)
(-0.0487894 0.105705 0)
(-0.058102 0.0709684 0)
(-0.0895969 0.0695914 0)
(-0.107724 0.0424326 0)
(-0.114521 0.0318088 0)
(-0.0947307 0.0364069 0)
(-0.12038 0.0200441 0)
(-0.111046 0.0222833 0)
(-0.314393 -0.00230532 0)
(-0.375384 0.0737373 0)
(-0.29549 -0.116763 0)
(-0.417398 -0.195504 0)
(-0.469608 -0.209145 0)
(-0.475132 -0.186713 0)
(-0.473233 -0.25228 0)
(-0.318864 -0.136358 0)
(-0.255238 -0.0761301 0)
(-0.262419 0.0233576 0)
(-0.249575 0.0259034 0)
(-0.0781609 -0.0036847 0)
(-0.118155 0.0698771 0)
(-0.0300159 0.142707 0)
(-0.0109905 0.0914501 0)
(0.00845571 0.0395466 0)
(0.0853655 0.0310271 0)
(0.0759848 0.019202 0)
(0.00898055 0.115531 0)
(0.103977 0.0658064 0)
(0.000341516 0.182773 0)
(-0.137882 0.0719412 0)
(-0.203557 0.0972321 0)
(-0.253009 -0.0224841 0)
(-0.543059 0.106956 0)
(-0.534055 -0.0826541 0)
(-0.422951 -0.151207 0)
(-0.565327 -0.142054 0)
(-0.663792 -0.283267 0)
(-0.695489 -0.296396 0)
(-0.644204 -0.151138 0)
(-0.673584 -0.0668423 0)
(-0.641005 0.0287852 0)
(-0.571044 0.0989211 0)
(-0.539318 0.112655 0)
(-0.585548 0.254255 0)
(-0.0190219 0.168973 0)
(0.0407805 0.0583959 0)
(0.0919819 -0.00237996 0)
(0.24349 0.00583218 0)
(0.329421 0.120996 0)
(0.263765 0.0116961 0)
(0.191951 0.0335048 0)
(0.0325418 0.195742 0)
(-0.080555 0.403515 0)
(-0.186908 0.41188 0)
(-0.192759 0.224747 0)
(-0.269432 0.120228 0)
(-0.402819 0.194976 0)
(-0.338943 0.00979503 0)
(-0.675451 -0.189436 0)
(-0.846511 -0.244648 0)
(-0.654601 -0.197103 0)
(-0.627242 -0.173733 0)
(-0.702915 -0.0258829 0)
(-0.748809 -0.097748 0)
(-0.725222 -0.141146 0)
(-0.6501 0.132711 0)
(-0.658658 0.253963 0)
(-0.00914809 0.132354 0)
(0.0627915 -0.0333312 0)
(0.1636 -0.284916 0)
(0.354673 -0.212588 0)
(0.316439 0.055289 0)
(0.0615006 0.260255 0)
(-0.137989 0.319237 0)
(-0.152611 0.349432 0)
(-0.261777 0.437559 0)
(-0.417613 0.357436 0)
(-0.45297 0.278801 0)
(-0.480493 0.162278 0)
(-0.542608 0.084272 0)
(-0.527226 0.041407 0)
(-0.658558 -0.130078 0)
(-0.898523 -0.032298 0)
(-0.971244 0.00415568 0)
(-0.890268 -0.0492575 0)
(-1.35805 -0.0716079 0)
(-1.58913 -0.00145871 0)
(-1.0059 0.0399525 0)
(-0.822769 0.0407562 0)
(-0.857545 0.156079 0)
(-0.018539 0.117605 0)
(-0.0213135 -0.109573 0)
(-0.142547 -0.174118 0)
(-0.457937 0.177044 0)
(-0.560751 0.19177 0)
(-0.599254 0.253616 0)
(-0.629098 0.278209 0)
(-0.637494 0.310587 0)
(-0.635562 0.299762 0)
(-0.644561 0.283936 0)
(-0.655843 0.319072 0)
(-0.718851 0.240055 0)
(-0.745946 0.220212 0)
(-0.80552 0.135199 0)
(-1.00956 0.0779433 0)
(-1.04904 0.00616847 0)
(-1.08516 0.0905868 0)
(-1.18491 -0.218025 0)
(-1.17582 -0.37736 0)
(-1.25215 -0.0761117 0)
(-1.20938 0.0426506 0)
(-1.10188 -0.0315189 0)
(-1.07953 -0.078906 0)
(0.0110161 0.185222 0)
(-0.347997 0.0431016 0)
(-0.568996 0.168047 0)
(-0.66008 0.244016 0)
(-0.768581 0.239026 0)
(-0.801952 0.304636 0)
(-0.831006 0.337202 0)
(-0.836962 0.366638 0)
(-0.824801 0.381795 0)
(-0.792889 0.364992 0)
(-0.871952 0.349292 0)
(-0.923513 0.341627 0)
(-0.904227 0.392246 0)
(-0.917859 0.268151 0)
(-0.975399 0.226575 0)
(-0.890819 0.158552 0)
(-1.25342 0.0434869 0)
(-1.53107 0.028882 0)
(-1.09132 -0.0746088 0)
(-0.938212 -0.053816 0)
(-0.943575 0.0645873 0)
(-0.926059 -0.0321756 0)
(-0.942984 -0.0746382 0)
(-0.12163 0.394556 0)
(-0.24937 0.339181 0)
(-0.532535 0.501518 0)
(-0.777176 0.409517 0)
(-0.844886 0.294387 0)
(-0.936001 0.329275 0)
(-0.972917 0.297244 0)
(-1.01317 0.301528 0)
(-1.03548 0.286064 0)
(-1.02309 0.264137 0)
(-1.01864 0.256552 0)
(-0.982871 0.284618 0)
(-0.956357 0.238181 0)
(-0.967856 0.14496 0)
(-0.921152 0.0433312 0)
(-0.84157 -0.0656745 0)
(-0.857638 -0.29551 0)
(-0.925473 -0.0754065 0)
(-0.892792 0.0509532 0)
(-0.774374 -0.0549992 0)
(-1.05676 -0.0953964 0)
(-1.27013 -0.103688 0)
(-0.833412 -0.0528443 0)
(-0.135031 0.581244 0)
(-0.455574 0.746419 0)
(-0.613301 0.710723 0)
(-0.82888 0.532568 0)
(-0.850376 0.458731 0)
(-0.89721 0.455568 0)
(-1.02325 0.398497 0)
(-1.13618 0.423609 0)
(-1.22225 0.351316 0)
(-1.17502 0.304124 0)
(-1.1613 0.285176 0)
(-1.14954 0.245745 0)
(-1.03521 0.173983 0)
(-0.956006 0.207729 0)
(-0.887496 0.121952 0)
(-0.843119 0.0643249 0)
(-0.82062 -0.102131 0)
(-0.743427 -0.136683 0)
(-0.672304 -0.168673 0)
(-0.630066 -0.139904 0)
(-0.636749 -0.337631 0)
(-0.775561 -0.00231989 0)
(-0.711957 0.126702 0)
(-0.218778 0.97624 0)
(-0.231486 1.2864 0)
(-0.550604 0.80625 0)
(-0.792878 0.754338 0)
(-0.817221 0.803271 0)
(-0.892373 0.554718 0)
(-0.871291 0.48916 0)
(-1.01621 0.429563 0)
(-1.14238 0.442685 0)
(-0.884276 0.509374 0)
(-0.780474 0.258485 0)
(-0.715505 0.171651 0)
(-0.64543 0.109446 0)
(-0.715778 0.0151942 0)
(-0.653274 -0.0765327 0)
(-0.573898 -0.159723 0)
(-0.535813 -0.180406 0)
(-0.529869 -0.165764 0)
(-0.486287 -0.198974 0)
(-0.454986 -0.174099 0)
(-0.419126 -0.250254 0)
(-0.451994 -0.21081 0)
(-0.34365 -0.160057 0)
(-0.0317114 1.06132 0)
(-0.330332 1.22206 0)
(-0.622416 0.823671 0)
(-0.626959 0.751482 0)
(-0.710091 0.750995 0)
(-0.900929 0.573501 0)
(-0.520097 0.398961 0)
(-0.40218 0.151179 0)
(-0.595948 0.323586 0)
(-0.339777 0.497874 0)
(-0.156208 0.192622 0)
(-0.114398 0.276641 0)
(-0.233043 0.268671 0)
(-0.324898 0.247607 0)
(-0.166472 0.0108004 0)
(-0.102585 -0.0716387 0)
(-0.148316 -0.134545 0)
(-0.18472 -0.151703 0)
(-0.261255 -0.0725036 0)
(-0.294525 -0.0452989 0)
(-0.3309 -0.0645741 0)
(-0.345349 -0.0969478 0)
(-0.315387 -0.0463702 0)
(0.0246202 1.13631 0)
(-0.284286 1.16249 0)
(-0.535635 0.942164 0)
(-0.335914 0.76761 0)
(-0.522174 0.445821 0)
(-0.609678 0.486951 0)
(-0.222147 0.529666 0)
(-0.410968 0.222982 0)
(-0.421854 0.26013 0)
(0.0850336 0.109872 0)
(0.132342 0.119625 0)
(0.0740127 0.345271 0)
(-0.0156971 0.158292 0)
(-0.0361549 0.160094 0)
(-0.00771494 -0.293118 0)
(-0.0723428 -0.20906 0)
(-0.166158 -0.0980395 0)
(-0.241437 -0.0682154 0)
(-0.299483 -0.085515 0)
(-0.26809 -0.119039 0)
(-0.329299 -0.199917 0)
(-0.333158 -0.231005 0)
(-0.288833 -0.187624 0)
(0.0442771 1.27251 0)
(-0.162345 1.21668 0)
(-0.373772 1.13907 0)
(-0.348126 0.779133 0)
(-0.383137 0.484784 0)
(-0.222022 0.697402 0)
(0.0697504 0.3416 0)
(-0.0905309 0.22247 0)
(-0.131415 0.196966 0)
(0.0469638 -0.0428791 0)
(0.0409059 0.113092 0)
(0.203421 0.522216 0)
(0.100915 0.312241 0)
(0.0400255 0.204952 0)
(-0.116167 -0.0158022 0)
(-0.334915 -0.0448916 0)
(-0.471543 -0.160951 0)
(-0.473151 -0.215768 0)
(-0.346156 -0.209593 0)
(-0.291454 -0.168488 0)
(-0.258151 -0.201537 0)
(-0.267489 -0.165015 0)
(-0.258172 -0.214239 0)
(0.0453089 1.31201 0)
(-0.110333 1.22922 0)
(-0.268829 1.0902 0)
(-0.250791 0.801909 0)
(-0.182469 0.570149 0)
(-0.187878 0.611167 0)
(-0.00945498 0.383143 0)
(0.147452 0.321879 0)
(-0.186038 0.249491 0)
(-0.141659 -0.0439624 0)
(-0.19254 0.0330513 0)
(0.103253 0.34419 0)
(0.0382875 0.258278 0)
(0.164601 0.163435 0)
(0.206605 0.144499 0)
(0.141404 0.196104 0)
(0.221467 0.0751453 0)
(0.0955356 -0.0341561 0)
(0.0644621 -0.119878 0)
(0.0606636 -0.0830814 0)
(0.028641 -0.0339102 0)
(0.0313447 -0.0357219 0)
(-0.00611008 -0.0266904 0)
(0.0383692 1.33291 0)
(-0.0353133 1.27372 0)
(-0.0851742 1.15039 0)
(-0.0853001 0.715481 0)
(-0.159991 0.481509 0)
(-0.0830428 0.240471 0)
(-0.065555 0.274738 0)
(0.10807 0.226145 0)
(-0.0332379 0.282182 0)
(-0.0676986 -0.0724133 0)
(-0.180994 -0.0777002 0)
(-0.123394 0.107253 0)
(-0.0360155 0.211431 0)
(0.0647196 0.173794 0)
(0.100431 0.0239064 0)
(0.139516 0.0374735 0)
(0.342639 -0.0867406 0)
(0.253245 -0.170686 0)
(0.152299 -0.13475 0)
(0.131014 -0.154614 0)
(0.135961 -0.150669 0)
(0.151539 -0.140099 0)
(0.141029 -0.110587 0)
(0.0549834 1.34698 0)
(0.0406658 1.29218 0)
(-0.0699087 1.21879 0)
(-0.00644535 0.872274 0)
(0.146977 0.612579 0)
(-0.119404 0.316313 0)
(-0.0253445 -0.00382991 0)
(0.139092 0.173724 0)
(0.142475 0.456095 0)
(0.00327233 0.141469 0)
(-0.0925412 0.10075 0)
(-0.120572 0.106751 0)
(-0.11325 0.189312 0)
(0.0223341 0.0561916 0)
(0.0755866 -0.0458167 0)
(0.145123 0.0272249 0)
(0.169219 -0.0605495 0)
(0.185874 -0.162139 0)
(0.26102 -0.188139 0)
(0.199158 -0.0762804 0)
(0.194894 -0.169951 0)
(0.227581 -0.0499987 0)
(0.337539 -0.1258 0)
(0.0515293 1.36127 0)
(0.109404 1.32495 0)
(0.0413705 1.27573 0)
(0.0852934 1.4014 0)
(0.0399241 0.680653 0)
(0.0409336 0.367403 0)
(0.192788 0.101624 0)
(0.323266 0.119629 0)
(0.310865 0.341888 0)
(0.24865 0.17458 0)
(0.130376 0.206007 0)
(-0.128786 -0.00183221 0)
(-0.0421452 0.0766959 0)
(0.0305076 -0.0822551 0)
(0.119242 -0.132015 0)
(0.104023 -0.170193 0)
(0.193772 -0.0670876 0)
(0.187494 -0.0526103 0)
(0.289294 -0.129693 0)
(0.245352 -0.0941988 0)
(0.251962 -0.137995 0)
(0.334666 -0.137409 0)
(0.284387 -0.236221 0)
(0.0368581 1.34803 0)
(0.114019 1.33289 0)
(0.283808 1.22855 0)
(0.0800126 1.21887 0)
(-0.237541 0.525687 0)
(0.205166 0.187326 0)
(0.2779 0.0234811 0)
(0.4003 0.0824901 0)
(0.406326 0.259303 0)
(0.463035 0.277638 0)
(0.410146 0.346565 0)
(0.0689927 0.365544 0)
(0.0924184 0.305918 0)
(0.0698948 -0.0766581 0)
(0.040688 -0.178649 0)
(0.208735 -0.0628013 0)
(0.269826 -0.12963 0)
(0.190808 -0.0963191 0)
(0.248121 -0.0738229 0)
(0.251573 -0.111815 0)
(0.232001 -0.0926573 0)
(0.218873 -0.189161 0)
(0.230081 -0.203724 0)
(0.0112545 1.24548 0)
(0.110912 1.33009 0)
(0.238779 1.10199 0)
(0.215433 0.953748 0)
(0.0935722 0.467642 0)
(0.316074 0.0985645 0)
(0.0789717 -0.0361923 0)
(0.22501 0.0154773 0)
(0.271336 0.106397 0)
(0.581133 0.473525 0)
(0.700781 0.650634 0)
(0.141514 0.493131 0)
(0.0100624 0.0800798 0)
(-0.00574881 -0.199635 0)
(0.160528 -0.191492 0)
(0.180158 -0.220281 0)
(0.194413 -0.222879 0)
(0.225205 -0.223899 0)
(0.284181 -0.178158 0)
(0.266979 -0.0833265 0)
(0.246683 -0.0969685 0)
(0.285679 -0.155614 0)
(0.284248 -0.13431 0)
(0.0754443 1.16611 0)
(0.00290528 1.32959 0)
(0.228585 1.14133 0)
(0.425914 1.08523 0)
(0.329055 0.66501 0)
(0.312774 0.213788 0)
(0.278146 -0.0930961 0)
(0.421372 -0.181652 0)
(0.508863 -0.181881 0)
(0.640746 0.329321 0)
(0.730707 0.55818 0)
(0.285696 0.486338 0)
(0.356652 0.340014 0)
(0.255577 -0.0853552 0)
(0.159746 -0.149332 0)
(0.221079 -0.299065 0)
(0.259859 -0.214347 0)
(0.236243 -0.186647 0)
(0.353285 -0.137991 0)
(0.336318 -0.158802 0)
(0.225226 -0.15382 0)
(0.241309 -0.185619 0)
(0.288078 -0.184205 0)
(0.0821334 1.16542 0)
(0.0432541 1.30952 0)
(0.251405 1.37155 0)
(0.411772 1.08738 0)
(0.235949 0.575346 0)
(0.466864 0.145647 0)
(0.426379 -0.154703 0)
(0.510777 -0.189023 0)
(0.806396 -0.113802 0)
(0.671819 0.284347 0)
(0.702519 0.544966 0)
(0.560959 0.63254 0)
(0.513816 0.484699 0)
(0.279399 0.0171791 0)
(0.426724 -0.224889 0)
(0.319585 -0.292359 0)
(0.354032 -0.219939 0)
(0.295615 -0.138609 0)
(0.309176 -0.0270486 0)
(0.26088 -0.131277 0)
(0.265004 -0.146327 0)
(0.314846 -0.126967 0)
(0.324939 -0.195417 0)
(0.0576428 1.11662 0)
(0.0361753 1.13947 0)
(0.204855 1.13696 0)
(0.388704 0.88034 0)
(0.252189 0.468836 0)
(0.462442 0.0614256 0)
(0.472301 -0.121454 0)
(0.759162 -0.0533003 0)
(0.632915 -0.163064 0)
(0.495784 -0.0242383 0)
(0.632548 0.567864 0)
(0.533031 0.686499 0)
(0.5109 0.41671 0)
(0.575212 0.208018 0)
(0.489664 -0.196638 0)
(0.387128 -0.233268 0)
(0.422265 -0.197129 0)
(0.34194 -0.145909 0)
(0.288303 -0.0907235 0)
(0.23672 -0.10963 0)
(0.286563 -0.0808133 0)
(0.235153 -0.0820517 0)
(0.306499 -0.157528 0)
(-0.0921753 1.1459 0)
(0.0267896 1.22069 0)
(0.361047 1.16865 0)
(0.448514 0.715802 0)
(0.435975 0.397658 0)
(0.365699 -0.00416945 0)
(0.438454 -0.0189048 0)
(0.466509 -0.161434 0)
(0.515755 -0.377736 0)
(0.409891 -0.0319234 0)
(0.467992 0.605897 0)
(0.436636 0.696291 0)
(0.4297 0.44561 0)
(0.588436 0.151655 0)
(0.454077 -0.1829 0)
(0.473027 -0.0887088 0)
(0.382645 -0.137784 0)
(0.291973 -0.0703945 0)
(0.274896 -0.133141 0)
(0.286674 -0.154034 0)
(0.31137 -0.135266 0)
(0.274594 -0.136646 0)
(0.337724 -0.108206 0)
(-0.0211953 1.16822 0)
(0.0531694 1.53678 0)
(0.178549 1.14507 0)
(0.249392 0.732982 0)
(0.312508 0.248473 0)
(0.439059 0.0142518 0)
(0.379808 -0.118781 0)
(0.416425 -0.29843 0)
(0.262255 -0.176184 0)
(0.0616491 0.0774355 0)
(0.0815287 0.583561 0)
(0.287085 0.763114 0)
(0.44444 0.552484 0)
(0.407966 0.106729 0)
(0.280826 0.039381 0)
(0.35805 0.0372291 0)
(0.240129 -0.0451851 0)
(0.218496 -0.0777261 0)
(0.146808 -0.104413 0)
(0.22559 -0.115311 0)
(0.339947 -0.0657958 0)
(0.272144 -0.0780719 0)
(0.394832 -0.0554876 0)
(-0.0216208 1.11966 0)
(0.00623534 1.42087 0)
(0.162274 0.80515 0)
(0.26998 0.594618 0)
(0.285456 0.140719 0)
(0.38234 -0.0381126 0)
(0.279998 -0.08979 0)
(0.231915 0.0100112 0)
(0.072046 0.00485821 0)
(-0.153615 0.159622 0)
(0.040151 0.521381 0)
(-0.011954 0.718326 0)
(0.118478 0.418472 0)
(0.170781 -0.0300195 0)
(0.317084 0.09861 0)
(0.23448 -0.0158538 0)
(0.134021 -0.0719068 0)
(0.181052 -0.141596 0)
(0.215112 -0.140772 0)
(0.308735 -0.0996714 0)
(0.350147 -0.162082 0)
(0.293259 -0.183637 0)
(0.288464 -0.120201 0)
(0.00755763 1.10164 0)
(0.00133637 1.31225 0)
(0.103981 0.766811 0)
(0.13577 0.402407 0)
(0.420839 0.311801 0)
(0.457406 0.138886 0)
(0.225589 0.0942657 0)
(-0.0333657 0.162484 0)
(-0.297565 0.0945014 0)
(-0.356979 0.223193 0)
(-0.169349 0.410625 0)
(-0.136956 0.264135 0)
(0.121332 0.203978 0)
(0.159501 0.129456 0)
(0.171847 0.0927539 0)
(0.0683349 -0.0293338 0)
(0.15505 -0.0231003 0)
(0.168528 -0.0999743 0)
(0.160445 -0.182061 0)
(0.214137 -0.155546 0)
(0.248239 -0.268315 0)
(0.266605 -0.220623 0)
(0.262808 -0.0913286 0)
(0.00902333 1.1399 0)
(0.047085 1.26405 0)
(0.15354 0.813992 0)
(0.106623 0.553373 0)
(0.277719 0.311715 0)
(0.102906 0.210177 0)
(0.119482 0.294667 0)
(-0.192064 0.362746 0)
(-0.395286 0.228659 0)
(-0.344029 0.339043 0)
(-0.272087 0.291615 0)
(-0.290504 0.201217 0)
(-0.0889903 0.115111 0)
(-0.0696676 0.0154199 0)
(0.0773182 0.0940983 0)
(0.0480319 0.0129498 0)
(0.10515 -0.0301523 0)
(0.0714801 -0.153614 0)
(0.181592 -0.170316 0)
(0.187496 -0.137183 0)
(0.215078 -0.194267 0)
(0.394947 -0.229419 0)
(0.304732 -0.154396 0)
(0.00465761 1.07833 0)
(0.0891689 0.9789 0)
(0.158157 0.683827 0)
(0.0160584 0.501376 0)
(0.135112 0.137114 0)
(0.00441917 0.353843 0)
(0.0243296 0.544946 0)
(-0.267049 0.475879 0)
(-0.401248 0.826346 0)
(-0.369841 0.656206 0)
(-0.423218 0.35346 0)
(-0.357228 0.186053 0)
(-0.248574 0.0213362 0)
(-0.230958 -0.080443 0)
(-0.0234858 -0.0363144 0)
(-0.000154384 0.0189295 0)
(0.112857 -0.121087 0)
(0.0877456 -0.17572 0)
(0.141658 -0.178913 0)
(0.127024 -0.161684 0)
(0.134711 -0.180216 0)
(0.297134 -0.248432 0)
(0.387187 -0.242686 0)
(0.123672 1.21927 0)
(0.353606 1.10577 0)
(0.305074 0.779688 0)
(0.0356009 0.56166 0)
(0.180859 0.304387 0)
(-0.0503207 0.487225 0)
(-0.172333 0.73494 0)
(-0.0915644 0.608696 0)
(-0.219764 0.855194 0)
(-0.615836 0.509551 0)
(-0.603545 0.231652 0)
(-0.504819 -0.0413953 0)
(-0.449235 -0.133207 0)
(-0.343982 -0.229779 0)
(-0.150131 -0.144472 0)
(-0.013106 -0.0980887 0)
(0.0687042 -0.159441 0)
(0.0513666 -0.174012 0)
(0.152281 -0.17686 0)
(0.163742 -0.145732 0)
(0.143743 -0.140043 0)
(0.252608 -0.13766 0)
(0.362653 -0.190451 0)
(-0.0341478 1.55137 0)
(0.119988 1.17836 0)
(0.103608 0.752883 0)
(0.0169761 0.654677 0)
(0.0701419 0.388865 0)
(-0.0693558 0.756769 0)
(-0.122715 0.929145 0)
(-0.183641 0.977447 0)
(-0.242112 0.82351 0)
(-0.539371 0.524395 0)
(-0.531523 0.270931 0)
(-0.406227 0.0902092 0)
(-0.398862 -0.270606 0)
(-0.255932 -0.355648 0)
(-0.215257 -0.397599 0)
(-0.086599 -0.361985 0)
(0.0952111 -0.23449 0)
(0.0808007 -0.256578 0)
(0.129139 -0.198376 0)
(0.124958 -0.264393 0)
(0.156744 -0.117239 0)
(0.252149 -0.169263 0)
(0.433744 -0.324088 0)
(-0.0634596 1.449 0)
(0.0602381 1.04451 0)
(0.0176881 0.784066 0)
(0.0188746 0.637012 0)
(0.0381999 0.50007 0)
(-0.090721 0.846499 0)
(-0.0786755 0.995791 0)
(-0.171987 0.929355 0)
(-0.13743 0.757637 0)
(-0.402379 0.59195 0)
(-0.264706 0.689511 0)
(-0.394857 0.139961 0)
(-0.378809 -0.31338 0)
(-0.0907387 -0.483582 0)
(-0.205863 -0.482826 0)
(-0.00709618 -0.369398 0)
(0.132922 -0.220381 0)
(0.0913967 -0.265307 0)
(0.126928 -0.214898 0)
(0.222574 -0.302238 0)
(0.234751 -0.24023 0)
(0.140815 -0.297474 0)
(0.264007 -0.27837 0)
(-0.0702933 1.47772 0)
(0.0573204 1.00182 0)
(-0.0475266 0.838491 0)
(-0.014469 0.610135 0)
(0.00987987 0.617431 0)
(-0.086513 0.982868 0)
(-0.129179 1.06821 0)
(-0.264683 1.07036 0)
(-0.0847917 0.878081 0)
(0.156507 0.718154 0)
(0.2882 0.639726 0)
(-0.137817 0.108957 0)
(0.0718827 -0.223757 0)
(0.138985 -0.471892 0)
(0.00556759 -0.433726 0)
(0.0678224 -0.391405 0)
(0.0960926 -0.392469 0)
(0.0351824 -0.244586 0)
(0.0752364 -0.193848 0)
(0.139918 -0.246625 0)
(0.162995 -0.243304 0)
(0.209631 -0.264339 0)
(0.293807 -0.228337 0)
(-0.0805248 1.54064 0)
(0.0307077 0.995699 0)
(-0.07626 0.868955 0)
(0.00496855 0.573534 0)
(-0.0285578 0.673359 0)
(-0.0641504 1.02365 0)
(-0.0244931 1.04751 0)
(-0.0546229 1.10903 0)
(0.139171 1.02028 0)
(0.0692323 0.813227 0)
(0.24869 0.50651 0)
(0.11797 0.135609 0)
(0.340487 -0.254304 0)
(0.332272 -0.440737 0)
(0.073324 -0.581435 0)
(-0.0910051 -0.462805 0)
(0.138579 -0.435643 0)
(0.205816 -0.343153 0)
(0.106861 -0.29214 0)
(0.161024 -0.296782 0)
(0.183187 -0.209494 0)
(0.169177 -0.205087 0)
(0.23694 -0.28648 0)
(-0.0886541 1.6169 0)
(0.017446 0.994867 0)
(-0.0848364 0.87172 0)
(0.0266444 0.543872 0)
(-0.0597481 0.75706 0)
(-0.0615266 0.995741 0)
(-0.00263404 0.972319 0)
(0.00216072 0.954005 0)
(0.182985 0.883094 0)
(0.175657 0.708228 0)
(0.324155 0.435932 0)
(0.335577 0.0287855 0)
(0.439949 -0.114364 0)
(0.300191 -0.356366 0)
(0.254986 -0.531005 0)
(0.214033 -0.479456 0)
(0.164304 -0.343815 0)
(0.145934 -0.372483 0)
(0.129469 -0.294499 0)
(0.196186 -0.276467 0)
(0.224742 -0.246013 0)
(0.127658 -0.327584 0)
(0.213321 -0.269354 0)
(-0.0753019 1.68062 0)
(-0.023042 0.987724 0)
(-0.107916 0.803563 0)
(-0.0230759 0.551258 0)
(-0.174339 0.809403 0)
(-0.113483 0.928226 0)
(-0.0799342 0.884948 0)
(0.0905686 0.725691 0)
(0.333844 0.584566 0)
(0.233039 0.514665 0)
(0.269357 0.378691 0)
(0.424302 0.0310748 0)
(0.626865 -0.190988 0)
(0.45492 -0.317103 0)
(0.286357 -0.351361 0)
(0.0871425 -0.36821 0)
(0.141914 -0.333647 0)
(0.229242 -0.324104 0)
(0.199625 -0.357119 0)
(0.186016 -0.254063 0)
(0.0930801 -0.325511 0)
(0.134193 -0.335289 0)
(0.246986 -0.393935 0)
(-0.0745988 1.80911 0)
(-0.0534382 1.0609 0)
(-0.144277 0.832112 0)
(-0.113832 0.735425 0)
(-0.274914 0.925165 0)
(-0.183079 0.848373 0)
(-0.108546 0.605312 0)
(-0.0564572 0.453581 0)
(0.162571 0.369728 0)
(0.202946 0.19084 0)
(0.266458 0.215157 0)
(0.462482 0.150099 0)
(0.61653 -0.102597 0)
(0.241165 -0.255515 0)
(0.143177 -0.422206 0)
(0.207471 -0.346548 0)
(0.195378 -0.296392 0)
(0.144746 -0.278041 0)
(0.160294 -0.329784 0)
(0.228275 -0.370994 0)
(0.134771 -0.411396 0)
(0.093664 -0.328789 0)
(0.171451 -0.447505 0)
(-0.0609053 1.93956 0)
(-0.0990399 1.15387 0)
(-0.261259 0.873096 0)
(-0.279445 0.821797 0)
(-0.359288 0.911796 0)
(-0.20585 0.578699 0)
(-0.137435 0.418496 0)
(-0.0656486 0.38746 0)
(0.0158244 0.351085 0)
(0.0794989 0.20102 0)
(0.155939 0.145922 0)
(0.586315 0.146123 0)
(0.580729 -0.1493 0)
(0.252439 -0.281614 0)
(0.250185 -0.280592 0)
(0.224597 -0.25459 0)
(0.186515 -0.283773 0)
(0.202959 -0.351256 0)
(0.100401 -0.309993 0)
(0.116437 -0.407754 0)
(0.194758 -0.396739 0)
(0.126918 -0.357203 0)
(0.0752854 -0.345621 0)
(-0.0738403 2.12105 0)
(-0.100265 1.48145 0)
(-0.284276 1.20379 0)
(-0.35648 0.971247 0)
(-0.338513 0.820192 0)
(-0.238688 0.43328 0)
(-0.199667 0.331718 0)
(-0.106809 0.162607 0)
(-0.0453536 0.107579 0)
(0.0293418 0.0732843 0)
(0.0878189 0.0535381 0)
(0.421289 -0.000326668 0)
(0.258837 -0.364208 0)
(0.155546 -0.260728 0)
(0.268263 -0.280928 0)
(0.200871 -0.320695 0)
(0.0277927 -0.271153 0)
(0.110039 -0.32041 0)
(0.145696 -0.346916 0)
(0.12432 -0.29508 0)
(0.213918 -0.392446 0)
(0.11178 -0.3834 0)
(0.0982653 -0.415418 0)
(-0.0846886 2.30214 0)
(-0.242567 1.56006 0)
(-0.439571 1.30255 0)
(-0.470855 0.929768 0)
(-0.40507 0.69892 0)
(-0.347114 0.262513 0)
(-0.264418 0.156858 0)
(-0.209331 0.043698 0)
(-0.128587 0.0643323 0)