/*--------------------------------*- C++ -*----------------------------------*\
| =========                 |                                                 |
| \\      /  F ield         | foam-extend: Open Source CFD                    |
|  \\    /   O peration     | Version:     4.1                                |
|   \\  /    A nd           | Web:         http://www.foam-extend.org         |
|    \\/     M anipulation  |                                                 |
\*---------------------------------------------------------------------------*/
FoamFile
{
    version     2.0;
    format      ascii;
    class       volVectorField;
    location    "0.85";
    object      U_0;
}
// * * * * * * * * * * * * * * * * * * * * * * * * * * * * * * * * * * * * * //

dimensions      [0 1 -1 0 0 0 0];

internalField   nonuniform List<vector> 
2268
(
(-0.00220962 0.00983192 0)
(-0.0388141 0.00688652 0)
(-0.03859 -0.00656804 0)
(-0.0391555 -0.0103931 0)
(-0.0455813 3.50766e-05 0)
(-0.0378913 6.75002e-05 0)
(-0.044147 0.000345031 0)
(-0.0422892 -0.00533978 0)
(-0.03101 -0.0085612 0)
(-0.0252008 -0.00460408 0)
(0.0281229 -0.0092395 0)
(0.0438566 -0.00888513 0)
(0.0570224 -0.00317276 0)
(0.0765336 -0.0114733 0)
(0.100613 -0.0219836 0)
(0.11539 -0.0051703 0)
(0.145888 0.00080722 0)
(0.131891 -0.0113895 0)
(0.136505 -0.00249751 0)
(0.133621 -0.0441109 0)
(0.0860444 0.0144507 0)
(0.0535802 -0.00921148 0)
(0.0261537 0.0212132 0)
(0.0198621 0.0100102 0)
(-0.0256429 0.009596 0)
(-0.0313313 0.00788447 0)
(-0.037951 -0.00772072 0)
(-0.0436151 0.000343283 0)
(-0.0361328 -0.00126977 0)
(-0.0407814 0.000679721 0)
(-0.0339557 0.00225668 0)
(-0.012277 0.00431002 0)
(-0.00403856 -0.0239365 0)
(0.0412631 -0.00776281 0)
(0.0466156 -0.0189921 0)
(0.0574284 -0.0135312 0)
(0.067048 -0.0276324 0)
(0.0961489 -0.0146932 0)
(0.119247 -0.0178063 0)
(0.139915 -0.00746699 0)
(0.146833 0.0226975 0)
(0.139849 0.0645528 0)
(0.146392 0.0084954 0)
(0.0929419 0.0197229 0)
(0.0358861 0.0396353 0)
(0.0527549 0.015441 0)
(0.00919297 0.0106913 0)
(-0.0279371 0.0187037 0)
(-0.0306841 -0.00354432 0)
(-0.037451 -0.00771649 0)
(-0.04081 -0.000352676 0)
(-0.0322963 -0.000215364 0)
(-0.0361867 0.000673228 0)
(-0.0337538 -0.0119546 0)
(-0.0220186 -0.0165707 0)
(-0.0117835 -0.0345258 0)
(0.0226562 -0.0380939 0)
(0.0205248 -0.0515876 0)
(0.0180664 -0.0409217 0)
(0.0288237 -0.0485422 0)
(0.0534884 -0.0308553 0)
(0.0743839 -0.0212577 0)
(0.138776 -0.0136537 0)
(0.144371 -0.0186027 0)
(0.129337 0.0514992 0)
(0.114784 0.0304525 0)
(0.107963 0.0509092 0)
(0.0525959 0.0461926 0)
(0.0292085 0.0685432 0)
(0.00304028 0.0195575 0)
(-0.0369637 0.0135491 0)
(-0.0362118 0.011286 0)
(-0.0338597 -0.00570184 0)
(-0.0366526 -0.000299731 0)
(-0.0339151 -0.00249981 0)
(-0.0425814 0.000515929 0)
(-0.0459409 -0.013642 0)
(-0.0255736 -0.0174977 0)
(-0.0190048 -0.0104474 0)
(-0.0256056 -0.0128983 0)
(-0.0243014 -0.0263543 0)
(-0.0172177 -0.0225699 0)
(-0.00361748 -0.00251201 0)
(0.0256292 -0.0332811 0)
(0.0428928 -0.014617 0)
(0.0577083 -0.0210536 0)
(0.097968 -0.0342065 0)
(0.113398 0.0275897 0)
(0.104319 0.0182165 0)
(0.091681 0.0715981 0)
(0.0396624 0.122167 0)
(0.0537393 0.0450853 0)
(-0.0140496 0.0267724 0)
(-0.0375503 0.0195475 0)
(-0.0352986 -0.00497407 0)
(-0.0378577 -0.00869675 0)
(-0.0402559 -0.00078754 0)
(-0.0402281 0.000919898 0)
(-0.0499808 0.00281813 0)
(-0.0453043 -0.00346706 0)
(-0.0493532 -0.0296568 0)
(-0.0409826 -0.0176289 0)
(-0.0601267 -0.042347 0)
(-0.0566039 -0.0628403 0)
(-0.0225112 -0.0618008 0)
(-0.0173368 -0.0814509 0)
(0.00859358 -0.0427492 0)
(0.0342524 -0.04549 0)
(0.0574933 -0.0429649 0)
(0.0768832 -1.0179e-05 0)
(0.0692719 -0.0025864 0)
(0.0761375 0.0379608 0)
(0.106906 0.0273072 0)
(0.011988 0.104124 0)
(-0.00563615 0.112495 0)
(-0.0100417 0.032281 0)
(-0.0470091 0.0176545 0)
(-0.0458328 0.0134574 0)
(-0.0281688 -0.00387851 0)
(-0.0299032 0.00169565 0)
(-0.0344033 0.000386551 0)
(-0.0638766 0.00798388 0)
(-0.0886524 0.00906707 0)
(-0.0805643 0.00311155 0)
(-0.0773378 -0.0108203 0)
(-0.0913039 -0.0421784 0)
(-0.0724296 -0.0562896 0)
(-0.0577841 -0.06081 0)
(-0.0175273 -0.0779415 0)
(0.0375107 -0.0553099 0)
(0.0428494 -0.0401126 0)
(0.0643174 -0.0359267 0)
(0.0774618 -0.0102475 0)
(0.0827352 0.000745723 0)
(0.0667744 0.0372102 0)
(0.0739506 0.0624111 0)
(0.0460175 0.0817056 0)
(0.0473749 0.152913 0)
(-0.0200465 0.0396824 0)
(-0.0525009 0.0287539 0)
(-0.0610955 -0.010883 0)
(-0.062912 -0.0143395 0)
(-0.0663193 0.000121988 0)
(-0.0872496 0.00820295 0)
(-0.0961049 0.00925397 0)
(-0.101481 0.00223323 0)
(-0.099232 0.00559623 0)
(-0.0986519 -0.0073842 0)
(-0.088376 -0.00443033 0)
(-0.074601 -0.020758 0)
(-0.0342834 -0.0237872 0)
(-0.0167824 -0.0646655 0)
(0.0187978 -0.0750381 0)
(0.06624 -0.0560849 0)
(0.0852863 -0.0290395 0)
(0.113182 -0.0362632 0)
(0.123307 0.0354228 0)
(0.0953008 0.123654 0)
(0.0921447 0.0591251 0)
(0.0518026 0.0996964 0)
(0.0483925 0.22903 0)
(-0.0107478 0.0503086 0)
(-0.0841251 0.0515439 0)
(-0.102738 0.0221395 0)
(-0.0948057 -0.0153304 0)
(-0.101493 0.0139066 0)
(-0.113991 0.0143347 0)
(-0.116898 0.0148639 0)
(-0.118883 0.00871652 0)
(-0.102147 0.00071717 0)
(-0.0871836 -0.0190932 0)
(-0.0786401 -0.0576614 0)
(-0.0661703 -0.0844953 0)
(-0.0725228 -0.0986591 0)
(-0.0376387 -0.0843941 0)
(0.0329434 -0.0898538 0)
(0.0773447 -0.0736771 0)
(0.110927 -0.056304 0)
(0.157163 0.00336707 0)
(0.233582 -0.052786 0)
(0.136087 0.132708 0)
(0.0813999 0.0227255 0)
(0.132863 0.0776246 0)
(0.0880453 0.217971 0)
(-1.09552 0.243021 0)
(-1.37263 0.266639 0)
(-1.91368 0.0288512 0)
(-2.18045 0.0339674 0)
(-2.23376 0.0113495 0)
(-2.13761 -0.0394895 0)
(-2.09304 -0.0706826 0)
(-1.97075 -0.0544657 0)
(-1.8505 -0.0595123 0)
(-1.57732 -0.0619677 0)
(-1.37214 -0.0547306 0)
(-1.12658 -0.0449167 0)
(-0.973939 -0.148971 0)
(-0.771628 -0.0663365 0)
(-0.680794 -0.0873898 0)
(-0.692175 -0.0551247 0)
(-0.414033 -0.0147511 0)
(-0.34338 -0.120161 0)
(-0.0821661 -0.0269316 0)
(-1.03057 0.36515 0)
(-1.29143 0.510051 0)
(-1.65841 0.264892 0)
(-1.82461 0.153138 0)
(-1.80293 0.0288315 0)
(-1.62731 0.0457124 0)
(-1.53678 -0.0626122 0)
(-1.43394 -0.0476985 0)
(-1.34599 -0.111848 0)
(-1.13975 -0.140227 0)
(-0.99482 -0.12855 0)
(-0.80608 -0.147646 0)
(-0.719511 -0.143523 0)
(-0.632317 -0.213028 0)
(-0.374774 -0.234311 0)
(-0.584376 0.00581454 0)
(-0.457555 0.089738 0)
(-0.301891 -0.154671 0)
(-0.0725092 -0.159024 0)
(-0.958646 0.691489 0)
(-1.0438 0.874301 0)
(-1.06598 0.25746 0)
(-1.21872 0.0283926 0)
(-1.22504 0.0242549 0)
(-0.874662 -0.0739925 0)
(-0.822749 -0.107589 0)
(-0.781754 -0.128961 0)
(-0.778803 -0.170972 0)
(-0.634894 -0.231634 0)
(-0.499096 -0.23139 0)
(-0.373501 -0.431318 0)
(-0.27999 -0.412558 0)
(-0.368347 -0.201227 0)
(-0.195087 -0.399395 0)
(-0.315323 -0.0407426 0)
(-0.381599 -0.0556883 0)
(-0.186407 -0.0940375 0)
(-0.0113226 -0.193074 0)
(-0.777068 0.856744 0)
(-0.703408 0.984901 0)
(-0.625064 0.246111 0)
(-0.689994 -0.0814747 0)
(-0.78581 0.210659 0)
(-0.421544 -0.0997735 0)
(-0.396123 -0.0843728 0)
(-0.404199 -0.0625555 0)
(-0.425819 -0.15605 0)
(-0.404186 -0.255633 0)
(-0.29073 -0.24436 0)
(-0.161044 -0.314359 0)
(-0.131109 -0.598388 0)
(-0.0197327 -0.183253 0)
(0.0441057 -0.222785 0)
(0.0157039 0.0499023 0)
(0.00774569 0.0304672 0)
(-0.189901 -0.0678468 0)
(0.0390782 -0.249857 0)
(-0.599974 0.962308 0)
(-0.46244 1.10871 0)
(-0.256913 0.29679 0)
(-0.41159 0.0118398 0)
(-0.45688 0.0325106 0)
(-0.107093 -0.232796 0)
(-0.214939 -0.355109 0)
(-0.270701 0.037845 0)
(-0.0464069 -0.178428 0)
(-0.0223744 -0.297026 0)
(0.0418355 -0.30212 0)
(-0.0119389 -0.204612 0)
(0.120646 -0.37053 0)
(0.147148 -0.263788 0)
(0.12595 -0.122775 0)
(-0.00819497 -0.00381001 0)
(0.16794 0.00241153 0)
(-0.081458 -0.0550388 0)
(0.0723798 -0.259346 0)
(-0.467871 1.07 0)
(-0.196951 1.04963 0)
(-0.060093 0.233186 0)
(-0.241762 0.012441 0)
(-0.243463 0.00863758 0)
(-0.0046901 -0.183424 0)
(-0.0453399 -0.379831 0)
(-0.0859104 -0.0387863 0)
(0.135167 -0.221886 0)
(0.188914 -0.303626 0)
(0.191322 -0.273774 0)
(0.158705 -0.29671 0)
(0.178453 -0.255535 0)
(0.223488 -0.252396 0)
(0.216189 -0.169202 0)
(0.126136 0.0472778 0)
(0.181258 0.031225 0)
(0.024204 -0.0225244 0)
(0.0887469 -0.255711 0)
(-0.366771 1.10677 0)
(-0.0528984 1.08171 0)
(0.104443 0.307807 0)
(0.0497754 0.182847 0)
(-0.0846218 -0.0459324 0)
(0.150558 -0.353177 0)
(0.0906218 -0.370129 0)
(0.137718 -0.117125 0)
(0.230902 -0.298137 0)
(0.327382 -0.304022 0)
(0.328438 -0.272304 0)
(0.242991 -0.21876 0)
(0.256091 -0.283242 0)
(0.268864 -0.24503 0)
(0.249175 -0.170584 0)
(0.232788 0.00989589 0)
(0.174753 0.0410959 0)
(0.0656435 0.00872646 0)
(0.0917869 -0.22966 0)
(-0.309682 1.27195 0)
(0.128002 0.960144 0)
(0.226622 0.244929 0)
(0.147185 0.103773 0)
(0.0925218 -0.0598761 0)
(0.313311 -0.316199 0)
(0.307226 -0.274776 0)
(0.426849 -0.231159 0)
(0.386605 -0.312645 0)
(0.420981 -0.445348 0)
(0.412591 -0.242516 0)
(0.307818 -0.262183 0)
(0.291591 -0.269446 0)
(0.277573 -0.171605 0)
(0.249477 -0.164663 0)
(0.267479 -0.00936665 0)
(0.173848 0.0952017 0)
(0.081864 0.0155541 0)
(0.0932567 -0.189562 0)
(-0.0342274 0.0675729 0)
(-0.071978 0.0569415 0)
(-0.133223 0.0404505 0)
(-0.129018 0.00747041 0)
(-0.099701 0.00825798 0)
(-0.125813 0.016174 0)
(-0.121168 0.0109492 0)
(-0.119236 -0.00934493 0)
(-0.108289 -0.0143657 0)
(-0.107803 -0.065925 0)
(-0.083676 -0.0811014 0)
(-0.0731142 -0.144865 0)
(-0.0443024 -0.177948 0)
(-0.0436733 -0.162733 0)
(-0.0426755 -0.119878 0)
(0.0697399 -0.138034 0)
(0.148395 -0.067928 0)
(0.137096 0.01608 0)
(0.240163 -0.00327715 0)
(0.222477 0.0505767 0)
(0.124488 0.0689242 0)
(0.165614 0.0926774 0)
(0.196981 0.0960125 0)
(-0.0271093 0.0973044 0)
(-0.0988675 0.0919999 0)
(-0.098368 0.0531617 0)
(-0.0836965 0.0684184 0)
(-0.0801675 0.0330711 0)
(-0.0756182 0.0358709 0)
(-0.104099 0.0269513 0)
(-0.107131 -0.00404632 0)
(-0.130202 -0.00830242 0)
(-0.136454 -0.0460432 0)
(-0.167943 -0.0264397 0)
(-0.230132 -0.136722 0)
(-0.227655 -0.141047 0)
(-0.150725 -0.208748 0)
(-0.0731174 -0.198425 0)
(-0.0588777 -0.241154 0)
(-0.0390938 -0.130861 0)
(0.162896 -0.070267 0)
(0.102632 0.0298062 0)
(0.145349 0.210505 0)
(0.082239 0.165622 0)
(0.0965394 0.0566134 0)
(0.167285 -0.0241715 0)
(-0.0351891 0.130368 0)
(-0.0611942 0.0973606 0)
(-0.0505207 0.107105 0)
(-0.0593059 0.0716549 0)
(-0.0913269 0.0695459 0)
(-0.109182 0.0413811 0)
(-0.114973 0.031184 0)
(-0.094679 0.0358869 0)
(-0.119872 0.0200876 0)
(-0.110538 0.0221137 0)
(-0.312401 -0.00259021 0)
(-0.373704 0.0726795 0)
(-0.293661 -0.114676 0)
(-0.4164 -0.194049 0)
(-0.468729 -0.209347 0)
(-0.47556 -0.187048 0)
(-0.473861 -0.252691 0)
(-0.319779 -0.137645 0)
(-0.255971 -0.0780612 0)
(-0.265771 0.0219506 0)
(-0.25331 0.0274948 0)
(-0.081365 -0.00172719 0)
(-0.121548 0.0721432 0)
(-0.0306643 0.145137 0)
(-0.0122481 0.0931251 0)
(0.00661978 0.0405364 0)
(0.0827383 0.0307886 0)
(0.0729086 0.0173186 0)
(0.00845674 0.111761 0)
(0.105944 0.0634112 0)
(0.00240606 0.18214 0)
(-0.134694 0.0717106 0)
(-0.200818 0.0971408 0)
(-0.250332 -0.0225821 0)
(-0.541251 0.107544 0)
(-0.532431 -0.0811495 0)
(-0.422545 -0.149836 0)
(-0.565624 -0.139621 0)
(-0.664728 -0.283037 0)
(-0.696466 -0.296911 0)
(-0.645855 -0.151247 0)
(-0.675499 -0.0670214 0)
(-0.643642 0.0287666 0)
(-0.573484 0.100822 0)
(-0.540921 0.114819 0)
(-0.585284 0.254698 0)
(-0.0197737 0.172605 0)
(0.0384975 0.0610596 0)
(0.089229 0.000589987 0)
(0.242232 0.00814548 0)
(0.325688 0.119885 0)
(0.261166 0.00432434 0)
(0.193824 0.0284559 0)
(0.0335105 0.194366 0)
(-0.0785206 0.402559 0)
(-0.185169 0.411935 0)
(-0.190524 0.226556 0)
(-0.268422 0.122216 0)
(-0.4019 0.196454 0)
(-0.338724 0.013416 0)
(-0.676866 -0.18656 0)
(-0.847519 -0.24309 0)
(-0.65656 -0.196536 0)
(-0.628856 -0.174229 0)
(-0.704844 -0.0261593 0)
(-0.75083 -0.097301 0)
(-0.72667 -0.141114 0)
(-0.651453 0.132869 0)
(-0.658948 0.253323 0)
(-0.00980362 0.136966 0)
(0.0606981 -0.0289997 0)
(0.161197 -0.282792 0)
(0.353866 -0.212878 0)
(0.311309 0.0556747 0)
(0.0528522 0.262734 0)
(-0.148473 0.318121 0)
(-0.161456 0.347372 0)
(-0.268391 0.43513 0)
(-0.421583 0.356791 0)
(-0.456244 0.279869 0)
(-0.48174 0.163172 0)
(-0.543207 0.086388 0)
(-0.528081 0.0431071 0)
(-0.657267 -0.129417 0)
(-0.896991 -0.0317409 0)
(-0.969649 0.00532592 0)
(-0.889771 -0.049196 0)
(-1.35971 -0.0711493 0)
(-1.5918 -0.000617538 0)
(-1.00946 0.04104 0)
(-0.826405 0.0413879 0)
(-0.860895 0.154274 0)
(-0.0190517 0.125452 0)
(-0.0249633 -0.104139 0)
(-0.143194 -0.172387 0)
(-0.463394 0.179466 0)
(-0.568806 0.195245 0)
(-0.608256 0.253595 0)
(-0.636966 0.275464 0)
(-0.646276 0.306639 0)
(-0.641986 0.296464 0)
(-0.649428 0.281733 0)
(-0.660389 0.31588 0)
(-0.720378 0.239892 0)
(-0.745086 0.220823 0)
(-0.802767 0.136848 0)
(-1.00645 0.0806768 0)
(-1.04707 0.00973213 0)
(-1.08447 0.0941232 0)
(-1.18758 -0.214787 0)
(-1.17795 -0.375907 0)
(-1.25469 -0.0750126 0)
(-1.21118 0.0438384 0)
(-1.10292 -0.031171 0)
(-1.08091 -0.0793795 0)
(0.00908808 0.193698 0)
(-0.346318 0.0507589 0)
(-0.569536 0.175197 0)
(-0.66579 0.24852 0)
(-0.771975 0.240769 0)
(-0.807923 0.303595 0)
(-0.83876 0.33507 0)
(-0.844493 0.361874 0)
(-0.829732 0.376678 0)
(-0.798373 0.36167 0)
(-0.875742 0.345001 0)
(-0.925727 0.337964 0)
(-0.905858 0.388965 0)
(-0.91771 0.268618 0)
(-0.97537 0.228088 0)
(-0.8912 0.161292 0)
(-1.25626 0.0473297 0)
(-1.53466 0.031504 0)
(-1.09509 -0.0739368 0)
(-0.940733 -0.0528849 0)
(-0.94604 0.0653475 0)
(-0.927776 -0.0317704 0)
(-0.944616 -0.0746202 0)
(-0.122383 0.403578 0)
(-0.250322 0.346884 0)
(-0.533419 0.506271 0)
(-0.778987 0.416046 0)
(-0.844997 0.295273 0)
(-0.93897 0.327821 0)
(-0.981512 0.296701 0)
(-1.02091 0.299446 0)
(-1.04193 0.281617 0)
(-1.03128 0.260101 0)
(-1.02723 0.252284 0)
(-0.990135 0.280699 0)
(-0.962804 0.235321 0)
(-0.970824 0.144503 0)
(-0.925681 0.0452233 0)
(-0.845865 -0.0623058 0)
(-0.860265 -0.291876 0)
(-0.925784 -0.0734549 0)
(-0.893457 0.052769 0)
(-0.774099 -0.0549478 0)
(-1.05601 -0.0962572 0)
(-1.2702 -0.104041 0)
(-0.834536 -0.0532074 0)
(-0.134813 0.590068 0)
(-0.454617 0.753402 0)
(-0.616078 0.718592 0)
(-0.831864 0.539454 0)
(-0.851716 0.461666 0)
(-0.898409 0.456074 0)
(-1.02611 0.39818 0)
(-1.1346 0.421572 0)
(-1.22331 0.346203 0)
(-1.17941 0.29777 0)
(-1.16911 0.278558 0)
(-1.15887 0.241182 0)
(-1.04495 0.169125 0)
(-0.963771 0.205483 0)
(-0.894062 0.123823 0)
(-0.848412 0.0682342 0)
(-0.825251 -0.0976623 0)
(-0.748354 -0.132796 0)
(-0.675871 -0.16837 0)
(-0.632557 -0.14094 0)
(-0.639439 -0.336264 0)
(-0.777418 -0.00080106 0)
(-0.714042 0.127603 0)
(-0.217681 0.984867 0)
(-0.230412 1.29735 0)
(-0.551393 0.815095 0)
(-0.793253 0.761006 0)
(-0.816856 0.806611 0)
(-0.892926 0.555128 0)
(-0.870784 0.48876 0)
(-1.01382 0.429185 0)
(-1.14069 0.441872 0)
(-0.876615 0.506664 0)
(-0.774421 0.257352 0)
(-0.711744 0.169636 0)
(-0.642303 0.104747 0)
(-0.716344 0.0113562 0)
(-0.660074 -0.0764544 0)
(-0.581895 -0.159996 0)
(-0.543008 -0.180889 0)
(-0.536388 -0.167558 0)
(-0.490609 -0.201825 0)
(-0.458763 -0.175987 0)
(-0.42222 -0.25161 0)
(-0.454347 -0.211339 0)
(-0.346095 -0.160209 0)
(-0.0299037 1.06943 0)
(-0.32901 1.23273 0)
(-0.622776 0.832719 0)
(-0.628358 0.756297 0)
(-0.707701 0.751676 0)
(-0.899183 0.574232 0)
(-0.518106 0.395634 0)
(-0.400626 0.147882 0)
(-0.592837 0.317553 0)
(-0.33225 0.489879 0)
(-0.150301 0.187958 0)
(-0.110732 0.272366 0)
(-0.230225 0.268335 0)
(-0.322116 0.254633 0)
(-0.170387 0.0217764 0)
(-0.101892 -0.0665642 0)
(-0.14781 -0.132122 0)
(-0.182621 -0.153196 0)
(-0.260324 -0.0755941 0)
(-0.294482 -0.0456948 0)
(-0.331869 -0.0640087 0)
(-0.346709 -0.0970126 0)
(-0.316467 -0.0461309 0)
(0.0248537 1.14286 0)
(-0.281961 1.17032 0)
(-0.534586 0.951294 0)
(-0.333591 0.771763 0)
(-0.517724 0.445642 0)
(-0.606393 0.487441 0)
(-0.218459 0.528971 0)
(-0.411831 0.221741 0)
(-0.424047 0.255696 0)
(0.0797072 0.103816 0)
(0.126351 0.117431 0)
(0.0694576 0.347269 0)
(-0.0189568 0.158671 0)
(-0.0381748 0.168363 0)
(-0.00895572 -0.290512 0)
(-0.0719077 -0.212161 0)
(-0.165315 -0.100728 0)
(-0.239357 -0.0705988 0)
(-0.299309 -0.0871774 0)
(-0.26953 -0.118814 0)
(-0.330048 -0.199638 0)
(-0.334083 -0.230404 0)
(-0.290641 -0.187439 0)
(0.044168 1.27734 0)
(-0.158674 1.22372 0)
(-0.369193 1.14774 0)
(-0.344759 0.784438 0)
(-0.380725 0.484074 0)
(-0.221573 0.695621 0)
(0.0703826 0.342092 0)
(-0.0906378 0.226358 0)
(-0.13558 0.197035 0)
(0.0383383 -0.0443515 0)
(0.0273986 0.107997 0)
(0.190395 0.511324 0)
(0.0915485 0.310046 0)
(0.0359914 0.20922 0)
(-0.117222 -0.0151795 0)
(-0.3337 -0.0434516 0)
(-0.475823 -0.159714 0)
(-0.477921 -0.217267 0)
(-0.351607 -0.213261 0)
(-0.295115 -0.169486 0)
(-0.261411 -0.201394 0)
(-0.270282 -0.165067 0)
(-0.260666 -0.213366 0)
(0.0445752 1.31464 0)
(-0.107645 1.23595 0)
(-0.264089 1.09895 0)
(-0.247534 0.808171 0)
(-0.183042 0.570767 0)
(-0.189514 0.609123 0)
(-0.00900962 0.385535 0)
(0.14853 0.326355 0)
(-0.189047 0.254043 0)
(-0.151373 -0.0425451 0)
(-0.203065 0.0294541 0)
(0.087385 0.33005 0)
(0.0293556 0.256057 0)
(0.156688 0.162133 0)
(0.200846 0.146143 0)
(0.14045 0.197543 0)
(0.219449 0.0766338 0)
(0.0940362 -0.0337738 0)
(0.062055 -0.120639 0)
(0.0571362 -0.0839191 0)
(0.0259305 -0.0347837 0)
(0.0277679 -0.0350267 0)
(-0.00962233 -0.0257222 0)
(0.0397999 1.33312 0)
(-0.0304332 1.27893 0)
(-0.0812918 1.15808 0)
(-0.081366 0.722976 0)
(-0.157994 0.482758 0)
(-0.0841686 0.238764 0)
(-0.0676329 0.275108 0)
(0.108109 0.228887 0)
(-0.0335956 0.288388 0)
(-0.0699284 -0.0683322 0)
(-0.187019 -0.0781964 0)
(-0.133563 0.10643 0)
(-0.0475715 0.205631 0)
(0.054212 0.173123 0)
(0.0951124 0.0250757 0)
(0.13263 0.0385137 0)
(0.336722 -0.0852177 0)
(0.250551 -0.16907 0)
(0.151215 -0.13823 0)
(0.126592 -0.155674 0)
(0.13121 -0.151699 0)
(0.148491 -0.139316 0)
(0.136707 -0.107975 0)
(0.0580348 1.3518 0)
(0.0453031 1.29718 0)
(-0.0678869 1.22715 0)
(-0.00172191 0.881564 0)
(0.154871 0.619135 0)
(-0.115545 0.317612 0)
(-0.0215096 -0.00338249 0)
(0.140685 0.177013 0)
(0.145071 0.462142 0)
(0.00395699 0.146479 0)
(-0.0910462 0.105128 0)
(-0.124412 0.108235 0)
(-0.120218 0.183053 0)
(0.0185721 0.0502889 0)
(0.0696586 -0.0511846 0)
(0.14066 0.0226968 0)
(0.165644 -0.0630392 0)
(0.181773 -0.163448 0)
(0.257511 -0.189379 0)
(0.197033 -0.0793427 0)
(0.191837 -0.169907 0)
(0.224797 -0.0504338 0)
(0.335186 -0.12482 0)
(0.0512881 1.36597 0)
(0.109698 1.33002 0)
(0.0432734 1.28318 0)
(0.088927 1.41157 0)
(0.0480448 0.686198 0)
(0.0473043 0.368556 0)
(0.201019 0.104761 0)
(0.3311 0.125175 0)
(0.315631 0.345517 0)
(0.251471 0.179651 0)
(0.130507 0.211686 0)
(-0.131345 0.00128563 0)
(-0.0481288 0.0771451 0)
(0.0272752 -0.0859143 0)
(0.116678 -0.135061 0)
(0.101301 -0.175255 0)
(0.191302 -0.0687381 0)
(0.185946 -0.0548671 0)
(0.287316 -0.130439 0)
(0.243029 -0.0949664 0)
(0.249938 -0.138633 0)
(0.332562 -0.137422 0)
(0.282868 -0.235983 0)
(0.0357908 1.34727 0)
(0.114261 1.33721 0)
(0.285469 1.23296 0)
(0.0822609 1.22958 0)
(-0.232097 0.525265 0)
(0.211811 0.187681 0)
(0.285454 0.0293357 0)
(0.404783 0.0876249 0)
(0.410217 0.265324 0)
(0.465607 0.28523 0)
(0.41165 0.352825 0)
(0.0680495 0.372745 0)
(0.0914557 0.305236 0)
(0.0687788 -0.0826098 0)
(0.0375273 -0.184647 0)
(0.205997 -0.0667776 0)
(0.269368 -0.131911 0)
(0.189646 -0.0972798 0)
(0.246224 -0.0749038 0)
(0.249733 -0.112147 0)
(0.230248 -0.0936396 0)
(0.217392 -0.189538 0)
(0.229083 -0.204067 0)
(0.0138947 1.24223 0)
(0.113768 1.33572 0)
(0.24034 1.10626 0)
(0.215522 0.95595 0)
(0.101234 0.467268 0)
(0.325543 0.102406 0)
(0.0893303 -0.0321619 0)
(0.232489 0.0218899 0)
(0.280458 0.114719 0)
(0.588013 0.493852 0)
(0.703871 0.661429 0)
(0.139231 0.499172 0)
(0.00853471 0.0795723 0)
(-0.00635388 -0.204979 0)
(0.163889 -0.194622 0)
(0.182968 -0.222611 0)
(0.194636 -0.224182 0)
(0.225172 -0.225146 0)
(0.283447 -0.178772 0)
(0.265954 -0.0844627 0)
(0.245514 -0.0978146 0)
(0.284585 -0.156045 0)
(0.283466 -0.134914 0)
(0.0762776 1.17593 0)
(0.0037899 1.33727 0)
(0.227968 1.14686 0)
(0.427756 1.08619 0)
(0.332718 0.661624 0)
(0.320144 0.21458 0)
(0.288127 -0.0909243 0)
(0.429506 -0.175354 0)
(0.518874 -0.173945 0)
(0.650519 0.351919 0)
(0.731564 0.572774 0)
(0.281991 0.492922 0)
(0.355779 0.337951 0)
(0.252281 -0.0924794 0)
(0.162276 -0.153933 0)
(0.219947 -0.301003 0)
(0.259728 -0.214868 0)
(0.235674 -0.18679 0)
(0.352039 -0.138374 0)
(0.335078 -0.159599 0)
(0.225123 -0.154801 0)
(0.240442 -0.186598 0)
(0.286779 -0.184862 0)
(0.0782716 1.17621 0)
(0.0394806 1.31675 0)
(0.246836 1.37719 0)
(0.41394 1.08707 0)
(0.239605 0.56956 0)
(0.472515 0.143004 0)
(0.431843 -0.152421 0)
(0.516334 -0.184707 0)
(0.818165 -0.105471 0)
(0.680564 0.302335 0)
(0.701351 0.560164 0)
(0.55796 0.637685 0)
(0.510222 0.480958 0)
(0.283007 0.0078896 0)
(0.428222 -0.229821 0)
(0.32158 -0.292727 0)
(0.354271 -0.219607 0)
(0.294903 -0.138315 0)
(0.308293 -0.0282686 0)
(0.259977 -0.132271 0)
(0.264065 -0.147753 0)
(0.314301 -0.128299 0)
(0.324532 -0.196305 0)
(0.0534275 1.12158 0)
(0.031833 1.14565 0)
(0.200579 1.1375 0)
(0.389782 0.870717 0)
(0.254244 0.460448 0)
(0.464257 0.0612421 0)
(0.474932 -0.117774 0)
(0.767891 -0.0441027 0)
(0.6361 -0.155723 0)
(0.499608 -0.0102822 0)
(0.630085 0.586365 0)
(0.531797 0.693564 0)
(0.50988 0.412328 0)
(0.578855 0.200215 0)
(0.486659 -0.202509 0)
(0.384992 -0.234306 0)
(0.419576 -0.196334 0)
(0.340688 -0.145159 0)
(0.287864 -0.0907971 0)
(0.236586 -0.110285 0)
(0.286198 -0.0814438 0)
(0.234679 -0.0827136 0)
(0.305817 -0.158197 0)
(-0.0933708 1.1494 0)
(0.0244436 1.22637 0)
(0.362034 1.16863 0)
(0.449046 0.70825 0)
(0.433808 0.392096 0)
(0.364476 -0.00594946 0)
(0.438198 -0.0171599 0)
(0.466293 -0.160433 0)
(0.511812 -0.370283 0)
(0.406464 -0.00148005 0)
(0.46251 0.62253 0)
(0.439773 0.70378 0)
(0.430732 0.437283 0)
(0.587932 0.1402 0)
(0.454055 -0.186978 0)
(0.471081 -0.0893622 0)
(0.380331 -0.137609 0)
(0.290668 -0.0709537 0)
(0.274 -0.133788 0)
(0.286078 -0.15509 0)
(0.310899 -0.136315 0)
(0.274353 -0.137607 0)
(0.337374 -0.109809 0)
(-0.021368 1.17372 0)
(0.0504275 1.54225 0)
(0.179495 1.14451 0)
(0.246599 0.725746 0)
(0.310812 0.243432 0)
(0.43431 0.0122637 0)
(0.374928 -0.115786 0)
(0.411544 -0.289921 0)
(0.249555 -0.158346 0)
(0.0558731 0.0944864 0)
(0.0802565 0.594716 0)
(0.285875 0.763558 0)
(0.450955 0.544996 0)
(0.411128 0.105242 0)
(0.279013 0.0380597 0)
(0.354987 0.0368431 0)
(0.239276 -0.0456534 0)
(0.218021 -0.0781006 0)
(0.146987 -0.105018 0)
(0.225612 -0.116369 0)
(0.339333 -0.0665171 0)
(0.271312 -0.0789016 0)
(0.394514 -0.056828 0)
(-0.0218593 1.12608 0)
(0.00427621 1.42596 0)
(0.163944 0.803937 0)
(0.266937 0.587857 0)
(0.282695 0.137087 0)
(0.37411 -0.0360794 0)
(0.271863 -0.0845043 0)
(0.22288 0.0249332 0)
(0.0586703 0.0160053 0)
(-0.15951 0.174208 0)
(0.0399999 0.53261 0)
(-0.0100005 0.716281 0)
(0.118784 0.413531 0)
(0.17109 -0.0307761 0)
(0.315786 0.0967774 0)
(0.231815 -0.0161828 0)
(0.13404 -0.0723415 0)
(0.180167 -0.143387 0)
(0.214068 -0.14166 0)
(0.308371 -0.100371 0)
(0.350268 -0.163121 0)
(0.292671 -0.184958 0)
(0.287819 -0.121264 0)
(0.00695904 1.10895 0)
(0.000376062 1.31541 0)
(0.106195 0.767322 0)
(0.134231 0.40073 0)
(0.416187 0.311111 0)
(0.447567 0.144235 0)
(0.217093 0.103393 0)
(-0.0421589 0.172985 0)
(-0.306566 0.104312 0)
(-0.358908 0.235289 0)
(-0.168504 0.41744 0)
(-0.133796 0.26625 0)
(0.121292 0.200834 0)
(0.157705 0.12865 0)
(0.169713 0.0913622 0)
(0.0668378 -0.0294004 0)
(0.153618 -0.0250011 0)
(0.167387 -0.102003 0)
(0.160814 -0.183019 0)
(0.213756 -0.157405 0)
(0.247187 -0.26961 0)
(0.26601 -0.222152 0)
(0.262055 -0.0924645 0)
(0.00823549 1.14847 0)
(0.0463979 1.26461 0)
(0.155003 0.813908 0)
(0.104306 0.554808 0)
(0.273225 0.311447 0)
(0.0991651 0.215968 0)
(0.111393 0.307612 0)
(-0.201957 0.370041 0)
(-0.400673 0.239376 0)
(-0.345435 0.349879 0)
(-0.269765 0.297459 0)
(-0.288784 0.203343 0)
(-0.0882724 0.113636 0)
(-0.0708606 0.0159124 0)
(0.0763512 0.094152 0)
(0.0460586 0.0122106 0)
(0.103461 -0.0323713 0)
(0.0710073 -0.154394 0)
(0.180301 -0.171753 0)
(0.18668 -0.138753 0)
(0.215236 -0.195522 0)
(0.395105 -0.231314 0)
(0.30478 -0.156021 0)
(0.00325317 1.08736 0)
(0.0890211 0.978061 0)
(0.157806 0.685819 0)
(0.0143399 0.506243 0)
(0.132634 0.143348 0)
(-0.000302199 0.364641 0)
(0.0185242 0.55046 0)
(-0.270623 0.481969 0)
(-0.402643 0.835783 0)
(-0.370703 0.667533 0)
(-0.421737 0.358584 0)
(-0.35742 0.187708 0)
(-0.248681 0.0209342 0)
(-0.230719 -0.0804635 0)
(-0.0245599 -0.0362181 0)
(-0.00270793 0.0175996 0)
(0.110971 -0.122738 0)
(0.086852 -0.177717 0)
(0.141029 -0.180563 0)
(0.126624 -0.162877 0)
(0.13376 -0.182523 0)
(0.296532 -0.24981 0)
(0.387536 -0.244908 0)
(0.123124 1.22821 0)
(0.355557 1.10956 0)
(0.30261 0.784023 0)
(0.0340538 0.567509 0)
(0.17863 0.30871 0)
(-0.0544835 0.498551 0)
(-0.17705 0.741983 0)
(-0.0922068 0.615157 0)
(-0.220432 0.862282 0)
(-0.617458 0.516451 0)
(-0.605309 0.236859 0)
(-0.50405 -0.0379903 0)
(-0.448387 -0.134153 0)
(-0.344217 -0.228369 0)
(-0.150276 -0.143412 0)
(-0.0149178 -0.0997665 0)
(0.0669968 -0.160873 0)
(0.050877 -0.176077 0)
(0.150942 -0.178745 0)
(0.162367 -0.146541 0)
(0.143833 -0.141983 0)
(0.252707 -0.139031 0)
(0.363007 -0.19217 0)
(-0.0343612 1.56197 0)
(0.121245 1.18295 0)
(0.101138 0.76006 0)
(0.016414 0.661202 0)
(0.0676095 0.396199 0)
(-0.0718298 0.765939 0)
(-0.125332 0.935853 0)
(-0.185488 0.983141 0)
(-0.243523 0.828975 0)
(-0.541086 0.530422 0)
(-0.528612 0.2754 0)
(-0.404355 0.0900358 0)
(-0.399995 -0.269236 0)
(-0.256429 -0.354789 0)
(-0.215717 -0.396249 0)
(-0.0880648 -0.363418 0)
(0.0943504 -0.236319 0)
(0.0803075 -0.25873 0)
(0.129296 -0.200566 0)
(0.124552 -0.266619 0)
(0.156368 -0.11854 0)
(0.251525 -0.170671 0)
(0.434021 -0.326103 0)
(-0.0638797 1.46026 0)
(0.0603003 1.04963 0)
(0.0156569 0.79345 0)
(0.0176016 0.64341 0)
(0.0358794 0.509119 0)
(-0.0927733 0.855702 0)
(-0.0805218 1.00249 0)
(-0.174116 0.933867 0)
(-0.138207 0.761846 0)
(-0.401852 0.595223 0)
(-0.261269 0.696879 0)
(-0.393531 0.144458 0)
(-0.377513 -0.31041 0)
(-0.0904838 -0.481988 0)
(-0.205719 -0.48201 0)
(-0.00643898 -0.369865 0)
(0.132779 -0.222207 0)
(0.0913993 -0.267351 0)
(0.126412 -0.217278 0)
(0.222468 -0.304468 0)
(0.235729 -0.242555 0)
(0.139907 -0.299663 0)
(0.263528 -0.280219 0)
(-0.0705539 1.48899 0)
(0.0573041 1.00837 0)
(-0.0498468 0.847909 0)
(-0.0163563 0.616703 0)
(0.0074094 0.626186 0)
(-0.0875766 0.991538 0)
(-0.130541 1.07465 0)
(-0.266228 1.07393 0)
(-0.0853516 0.881889 0)
(0.1584 0.721741 0)
(0.2892 0.642565 0)
(-0.135315 0.116331 0)
(0.0727219 -0.221984 0)
(0.139139 -0.471173 0)
(0.00630367 -0.432248 0)
(0.0690451 -0.391636 0)
(0.0971071 -0.394307 0)
(0.035706 -0.246516 0)
(0.0755019 -0.19624 0)
(0.139884 -0.248271 0)
(0.162878 -0.245238 0)
(0.210053 -0.266644 0)
(0.294278 -0.22971 0)
(-0.0806936 1.55232 0)
(0.0307936 1.00324 0)
(-0.0770745 0.878594 0)
(0.00465299 0.580421 0)
(-0.0303787 0.683257 0)
(-0.0653097 1.03117 0)
(-0.0257975 1.05336 0)
(-0.0563426 1.11297 0)
(0.138684 1.02367 0)
(0.0691466 0.816768 0)
(0.24817 0.507963 0)
(0.118527 0.138022 0)
(0.341672 -0.252743 0)
(0.33384 -0.44041 0)
(0.0749825 -0.580442 0)
(-0.0909431 -0.462919 0)
(0.139873 -0.437181 0)
(0.206946 -0.345165 0)
(0.107057 -0.294117 0)
(0.161313 -0.298719 0)
(0.183658 -0.210677 0)
(0.169474 -0.206455 0)
(0.237148 -0.288114 0)
(-0.0885691 1.62911 0)
(0.0167648 1.00366 0)
(-0.0856037 0.881057 0)
(0.0253879 0.553083 0)
(-0.0626684 0.767617 0)
(-0.0635101 1.00297 0)
(-0.00522934 0.97771 0)
(0.00129675 0.958787 0)
(0.18247 0.886193 0)
(0.176005 0.712014 0)
(0.323984 0.437924 0)
(0.335943 0.0325775 0)
(0.439686 -0.11153 0)
(0.301365 -0.354503 0)
(0.255439 -0.530793 0)
(0.214358 -0.4795 0)
(0.165028 -0.345133 0)
(0.146738 -0.374659 0)
(0.130089 -0.296361 0)
(0.19663 -0.278154 0)
(0.225293 -0.247273 0)
(0.128155 -0.329713 0)
(0.213431 -0.270971 0)
(-0.0748422 1.69358 0)
(-0.0248287 0.99861 0)
(-0.111361 0.813814 0)
(-0.0277065 0.562839 0)
(-0.179119 0.820389 0)
(-0.118637 0.935291 0)
(-0.0824163 0.88921 0)
(0.0873293 0.724906 0)
(0.331305 0.586389 0)
(0.231497 0.516164 0)
(0.268351 0.380718 0)
(0.421999 0.0339336 0)
(0.627278 -0.190046 0)
(0.455742 -0.315349 0)
(0.286107 -0.350427 0)
(0.0876728 -0.368848 0)
(0.142415 -0.335206 0)
(0.230324 -0.325904 0)
(0.20035 -0.35919 0)
(0.186595 -0.25562 0)
(0.0929278 -0.327423 0)
(0.134369 -0.337175 0)
(0.247512 -0.395881 0)
(-0.0740043 1.82403 0)
(-0.055445 1.07767 0)
(-0.148652 0.846424 0)
(-0.120664 0.749605 0)
(-0.280497 0.934899 0)
(-0.186665 0.85268 0)
(-0.112543 0.604927 0)
(-0.0598776 0.453255 0)
(0.159564 0.372811 0)
(0.199224 0.19147 0)
(0.265492 0.21754 0)
(0.460329 0.150917 0)
(0.614688 -0.10135 0)
(0.240404 -0.254593 0)
(0.143133 -0.421815 0)
(0.207696 -0.347159 0)
(0.195773 -0.29767 0)
(0.145148 -0.279422 0)
(0.160911 -0.331717 0)
(0.228992 -0.372787 0)
(0.13475 -0.413625 0)
(0.09388 -0.330309 0)
(0.171809 -0.449651 0)
(-0.060837 1.95549 0)
(-0.099152 1.17555 0)
(-0.266161 0.892635 0)
(-0.286003 0.833913 0)
(-0.363705 0.919487 0)
(-0.208747 0.57907 0)
(-0.140534 0.417777 0)
(-0.0688976 0.388873 0)
(0.013134 0.351211 0)
(0.0773116 0.202194 0)
(0.153658 0.147228 0)
(0.583861 0.148443 0)
(0.579297 -0.147838 0)
(0.251684 -0.280704 0)
(0.250055 -0.280857 0)
(0.224926 -0.25567 0)
(0.187109 -0.285287 0)
(0.203554 -0.353555 0)
(0.100656 -0.311562 0)
(0.116807 -0.409931 0)
(0.195163 -0.398566 0)
(0.127164 -0.359063 0)
(0.0754701 -0.347276 0)
(-0.073478 2.13611 0)
(-0.0997522 1.5072 0)
(-0.285695 1.23239 0)
(-0.36177 0.982204 0)
(-0.340724 0.82379 0)
(-0.241129 0.433774 0)
(-0.20326 0.331315 0)
(-0.109708 0.162214 0)
(-0.0474339 0.10648 0)
(0.0272541 0.0740913 0)
(0.0859657 0.0535804 0)
(0.420407 0.00187572 0)
(0.257981 -0.362762 0)
(0.156362 -0.261036 0)
(0.269309 -0.282078 0)
(0.201931 -0.322445 0)
(0.0280619 -0.2728 0)
(0.110466 -0.322495 0)
(0.146486 -0.348641 0)
(0.124775 -0.296781 0)
(0.214575 -0.394337 0)
(0.112169 -0.385163 0)
(0.0983645 -0.417301 0)
(-0.0846059 2.31685 0)
(-0.243153 1.58467 0)
(-0.442362 1.33226 0)
(-0.47377 0.940528 0)
(-0.407303 0.705705 0)
(-0.350006 0.265181 0)
(-0.267243 0.158388 0)
(-0.211293 0.0428402 0)
(-0.130018 0.0637676 0)
(-0.026173 0.106685 0)
(0.0426792 -0.0282385 0)