/*--------------------------------*- C++ -*----------------------------------*\
| =========                 |                                                 |
| \\      /  F ield         | foam-extend: Open Source CFD                    |
|  \\    /   O peration     | Version:     4.1                                |
|   \\  /    A nd           | Web:         http://www.foam-extend.org         |
|    \\/     M anipulation  |                                                 |
\*---------------------------------------------------------------------------*/
FoamFile
{
    version     2.0;
    format      ascii;
    class       volScalarField;
    location    "0.5";
    object      alpha1;
}
// * * * * * * * * * * * * * * * * * * * * * * * * * * * * * * * * * * * * * //

dimensions      [0 0 0 0 0 0 0];

internalField   nonuniform List<scalar> 
2268
(
1
1
1
1
1
1
1
1
1
1
0.99969
0.999494
0.999583
0.999834
1
1
1
1
1
1
1
1
1
1
1
1
1
1
1
1
1
1
0.999474
0.998545
0.998547
0.998886
0.999396
0.999838
1
1
1
1
1
1
1
1
0.999904
0.999755
0.99925
0.999657
0.99959
1
1
1
0.998903
0.996273
0.995706
0.996294
0.9973
0.998358
0.999138
0.999647
0.999954
1
1
1
1
1
1
0.996944
0.996612
0.99558
0.996526
0.996342
0.997425
0.998267
0.997273
0.993218
0.990176
0.990561
0.992476
0.994586
0.996487
0.99779
0.998737
0.999368
0.999623
0.999793
1
1
1
1
0.989164
0.988523
0.986596
0.988528
0.987982
0.989964
0.990758
0.987533
0.980694
0.97911
0.981742
0.98626
0.989991
0.993185
0.995294
0.997014
0.998238
0.998822
0.999227
0.999663
1
1
1
0.970782
0.969711
0.966341
0.969745
0.968248
0.971146
0.971416
0.963764
0.956636
0.958868
0.96656
0.975548
0.981876
0.987288
0.990749
0.993825
0.99612
0.997307
0.998167
0.998997
0.999671
1
1
0.930478
0.928925
0.923295
0.928332
0.924752
0.927271
0.926531
0.913236
0.911419
0.921446
0.93917
0.955833
0.967023
0.976622
0.982595
0.988055
0.992267
0.994517
0.996238
0.99773
0.998813
0.999648
0.999897
0.848994
0.846983
0.838157
0.843618
0.83661
0.833542
0.832481
0.819352
0.827906
0.85324
0.888242
0.918534
0.939621
0.957279
0.968209
0.977888
0.985473
0.989547
0.992856
0.995494
0.997211
0.998643
1
0.0860124
0.099283
0.10862
0.126667
0.144335
0.162028
0.174756
0.189432
0.212831
0.250868
0.285973
0.307542
0.320242
0.329007
0.334885
0.351575
0.358209
0.364484
0.371721
0.082362
0.0835129
0.0714869
0.0811828
0.0994162
0.126148
0.13918
0.149113
0.160559
0.195265
0.240301
0.260743
0.266425
0.285307
0.303171
0.33366
0.352081
0.373413
0.395845
0.0766739
0.0625345
0.0400906
0.047224
0.0735802
0.0920497
0.10024
0.10805
0.111082
0.136686
0.179601
0.19149
0.184351
0.205018
0.248076
0.28747
0.312556
0.369316
0.415183
0.071281
0.0515549
0.028022
0.037181
0.0787707
0.0872181
0.0842129
0.0834031
0.0786917
0.0868232
0.117927
0.125031
0.113077
0.125173
0.185636
0.228207
0.234253
0.337637
0.425496
0.0687817
0.0509092
0.0278323
0.0439739
0.122873
0.129076
0.112042
0.0842186
0.0657319
0.0575382
0.0728671
0.0768338
0.0689894
0.0728954
0.13605
0.181235
0.163113
0.281047
0.432708
0.0659983
0.0478483
0.0280524
0.0628012
0.200924
0.201776
0.166821
0.101947
0.0711649
0.0505523
0.0492045
0.0499677
0.0453357
0.0463669
0.103043
0.149834
0.121459
0.224863
0.440436
0.0581067
0.0390628
0.0345196
0.0989778
0.276654
0.272688
0.207125
0.117124
0.0812474
0.0556208
0.0411746
0.0374798
0.0326191
0.033962
0.0782376
0.129093
0.0997151
0.184313
0.449395
0.0445636
0.0394414
0.0766834
0.192683
0.366142
0.346642
0.248221
0.131507
0.0916853
0.0614893
0.0383825
0.0312778
0.0257992
0.0288405
0.0606159
0.111676
0.0883123
0.15951
0.458553
0.628792
0.626173
0.612054
0.612979
0.599797
0.573043
0.581985
0.583635
0.613638
0.674095
0.748111
0.813795
0.864264
0.904791
0.930566
0.951461
0.96782
0.976619
0.98423
0.98985
0.993111
0.995997
1
0.236243
0.233486
0.223838
0.210308
0.208629
0.186462
0.198523
0.208426
0.236994
0.295684
0.390594
0.513609
0.636768
0.741316
0.813117
0.86821
0.911008
0.934662
0.957401
0.973713
0.981621
0.986886
0.997568
0.0633563
0.0622203
0.0595648
0.0537327
0.0562949
0.0509509
0.0569657
0.0631095
0.0776902
0.103569
0.146361
0.212948
0.29665
0.404934
0.527357
0.646428
0.749395
0.81356
0.877812
0.922314
0.945749
0.958502
0.975173
0.0176216
0.0172772
0.016667
0.015177
0.0164089
0.0157697
0.0183314
0.0220646
0.0291271
0.0396663
0.055474
0.0800247
0.115978
0.16363
0.240151
0.326709
0.426839
0.517563
0.639511
0.744082
0.821468
0.85864
0.896639
0.00560508
0.00552195
0.00537685
0.00509644
0.00553121
0.00569291
0.00690615
0.00919944
0.012961
0.0176979
0.0228209
0.0312181
0.0483376
0.0697865
0.104167
0.137201
0.16697
0.205818
0.259408
0.364076
0.486551
0.564568
0.621949
0.00185577
0.00184572
0.00179
0.0017243
0.001903
0.00206825
0.0027745
0.00398604
0.00586002
0.00773925
0.00978117
0.0130527
0.0205302
0.0334508
0.0412781
0.0478031
0.0477875
0.0550604
0.0591828
0.0911074
0.131343
0.152239
0.189587
0.000544258
0.000543482
0.000517279
0.000479145
0.000552201
0.000641873
0.00106917
0.00160128
0.00242574
0.00315853
0.00444913
0.00573735
0.00893418
0.0128933
0.0118047
0.011057
0.0084619
0.00810884
0.00856812
0.0158448
0.0271035
0.0306443
0.0416733
8.79796e-05
7.84431e-05
6.92286e-05
5.49678e-05
6.29352e-05
8.05938e-05
0.000223043
0.000396282
0.000653909
0.000904946
0.00143836
0.00183333
0.00276415
0.00364114
0.00280106
0.00166417
0.00092551
0.000706364
0.000956775
0.00237368
0.00496347
0.00586547
0.00893906
0
0
0
0
0
0
0
0
0
5.41344e-05
0.000200226
0.000303669
0.00053894
0.000845651
0.000445803
0.000128327
4.80244e-05
2.58066e-05
8.36123e-05
0.00024432
0.000711915
0.00150766
0.00386139
0
0
0
0
0
0
0
0
0
0
0
0
0
0
0
0
0
0
3.74933e-05
3.28937e-05
0.000371676
0.00156745
0.00385358
0
0
0
0
0
0
0
0
0
0
0
0
0
0
0
0.000125005
0.000656153
0.00148257
0.00250093
0.00314698
0.0037982
0.00505517
0.00733413
0
0
0
0
0
0
0
0
0
0
0
0
0
0
0.000721915
0.00310876
0.0068397
0.00947171
0.0107952
0.0116176
0.0129831
0.0160331
0.0202741
0
0
0
0
0
0
0
0
0
0
0
0
0
0
7.67077e-06
0.000350319
0.000981978
0.00184405
0.00228142
0.00222534
0.00252639
0.00330668
0.00365563
0
0
0
0
0
0
0
0
0
0
0
0
0
0
0
0
2.13731e-06
7.4423e-05
1.62917e-05
1.07906e-05
8.94749e-05
0.000319628
0.000231302
0
0
4.88764e-07
6.0779e-07
7.65407e-07
0
0
0
0
0
0
0
0
0
0
0
0
0
0
0
0
0
0
0
3.87125e-07
5.39202e-07
6.71313e-07
1.01692e-06
6.63511e-07
0
0
0
0
0
0
0
0
0
0
0
0
0
0
0
0
0
2.272e-07
2.58389e-07
2.85046e-07
3.55751e-07
6.3948e-07
8.45763e-07
5.97228e-07
0
0
0
0
0
0
0
0
0
7.13944e-08
3.93004e-08
6.84712e-07
1.0398e-06
0
0
0
1.23435e-07
7.40582e-08
7.32871e-08
9.91391e-08
2.37973e-07
4.89112e-07
6.58765e-07
6.04103e-07
3.64755e-07
0
0
0
0
0
1.09621e-07
1.70452e-07
1.46127e-07
1.1721e-07
1.44495e-07
3.02574e-07
5.09698e-07
0
0
2.86009e-08
3.84799e-09
2.77642e-09
9.98634e-09
5.4005e-08
1.78511e-07
3.72548e-07
4.07991e-07
3.25883e-07
2.07374e-07
0
0
0
1.02615e-07
9.21982e-08
7.32892e-08
3.89193e-08
1.89262e-08
0
3.01369e-09
8.59071e-08
1.66777e-07
1.27498e-07
0
0
0
0
0
3.47174e-08
1.13186e-07
1.40506e-07
1.20649e-07
1.01878e-07
7.83786e-08
4.61897e-08
7.20498e-08
6.51357e-08
2.74148e-08
1.22106e-08
2.26581e-09
0
0
0
0
2.36929e-08
7.45683e-08
0
0
0
0
0
0
1.89712e-08
2.90556e-08
1.95435e-08
2.04094e-08
4.34049e-08
4.68548e-08
3.84229e-08
2.25619e-08
3.5675e-09
0
0
0
0
0
0
0
9.61615e-09
0
0
0
0
0
0
0
0
0
0
9.73823e-09
1.91158e-08
1.17519e-08
4.54153e-09
0
0
0
0
1.00974e-11
6.51812e-11
0
0
0
0
0
0
0
0
0
0
0
0
0
2.16716e-10
3.28392e-09
1.74055e-09
7.68929e-12
0
0
0
2.6778e-12
0
0
8.74352e-11
3.0769e-10
1.05736e-09
0
0
6.4032e-11
6.35397e-11
0
0
0
0
0
0
0
1.23682e-10
0
0
0
0
1.21703e-11
8.04135e-12
0
0
6.09655e-11
6.67953e-10
2.16232e-09
0
1.07663e-11
3.07661e-11
4.42296e-11
4.37717e-11
5.0841e-12
0
0
0
0
0
0
0
0
0
5.25008e-12
1.0853e-11
0
0
0
0
5.77792e-10
2.44761e-09
0
4.39837e-12
7.04758e-12
1.2748e-11
2.26741e-11
2.48541e-11
1.70372e-11
7.05702e-12
3.79141e-14
1.42149e-11
0
0
0
0
0
8.34982e-12
4.26803e-12
0
0
0
0
3.37371e-10
2.19156e-09
6.08624e-13
4.85001e-13
1.15352e-13
1.13221e-12
4.51439e-12
8.0137e-12
9.68631e-12
9.78656e-12
1.07925e-11
1.44452e-11
5.18868e-12
0
0
0
4.50134e-12
4.11732e-12
1.58612e-12
0
0
0
0
9.89394e-11
1.46323e-09
6.4726e-14
0
0
0
0
6.56863e-13
1.58207e-12
2.11009e-12
2.56828e-12
3.45796e-12
3.42881e-12
2.03337e-12
1.50863e-12
2.02416e-12
1.91791e-12
2.00018e-12
7.35745e-13
0
0
0
0
1.19629e-10
1.25218e-09
0
0
0
0
0
0
0
0
0
6.87783e-14
5.33407e-13
4.301e-13
4.49196e-13
5.3868e-13
8.92009e-13
2.07462e-12
0
0
0
0
2.34867e-11
4.75707e-10
1.77633e-09
0
0
0
0
0
0
0
0
0
0
0
0
0
2.00839e-13
1.23185e-12
2.85938e-12
0
0
0
0
2.68915e-10
1.30519e-09
3.73602e-09
7.38298e-15
1.14353e-14
1.28231e-14
1.13798e-14
5.32907e-15
0
0
0
0
0
0
0
0
5.52225e-13
2.51144e-12
3.23874e-12
0
0
0
0
7.64224e-10
2.97155e-09
7.54511e-09
5.66214e-15
9.04832e-15
8.60423e-15
6.93889e-15
7.16094e-15
6.55032e-15
6.21725e-15
7.04992e-15
9.88098e-15
7.88258e-15
0
0
2.80331e-14
9.36584e-13
3.97471e-12
3.48521e-12
0
0
0
0
1.22481e-09
4.4771e-09
1.00467e-08
2.38698e-15
6.27276e-15
5.10703e-15
5.32907e-15
4.10783e-15
5.16254e-15
7.32747e-15
8.27116e-15
9.99201e-15
6.71685e-15
0
0
6.88338e-14
1.3945e-12
5.52303e-12
1.82554e-12
0
0
0
1.39857e-10
3.14343e-09
7.24914e-09
1.08087e-08
3.60822e-15
5.21805e-15
5.21805e-15
4.77396e-15
5.32907e-15
4.55191e-15
5.93969e-15
9.27036e-15
9.27036e-15
4.66294e-15
0
0
2.65898e-13
2.45354e-12
7.22311e-12
0
0
0
0
7.26069e-10
6.50312e-09
9.91836e-09
5.43829e-09
6.05072e-15
5.88418e-15
6.4948e-15
5.05151e-15
4.71845e-15
5.21805e-15
5.21805e-15
7.88258e-15
8.65974e-15
1.38778e-15
0
0
4.10616e-13
3.37341e-12
8.69349e-12
0
0
0
0
2.05888e-09
1.12252e-08
9.32371e-09
0
2.9976e-15
5.4956e-15
6.43929e-15
5.93969e-15
4.55191e-15
4.55191e-15
6.4948e-15
1.01585e-14
9.15934e-15
0
0
0
5.64548e-13
3.95056e-12
7.9205e-12
0
0
0
1.54011e-10
4.31337e-09
1.54975e-08
6.38817e-09
0
4.10783e-15
6.16174e-15
6.27276e-15
5.77316e-15
4.55191e-15
3.94129e-15
6.60583e-15
9.71445e-15
8.9373e-15
0
0
0
9.43245e-13
5.26873e-12
5.64299e-12
0
0
0
1.18985e-09
8.24226e-09
1.95685e-08
0
0
2.44249e-15
5.27356e-15
6.05072e-15
4.38538e-15
5.10703e-15
3.77476e-15
5.9952e-15
9.71445e-15
8.99281e-15
0
0
0
1.31833e-12
6.30274e-12
2.66714e-12
0
0
0
2.68507e-09
1.33883e-08
2.14736e-08
0
0
1.66533e-15
3.77476e-15
5.16254e-15
4.32987e-15
5.77316e-15
4.996e-15
5.71765e-15
8.38218e-15
8.49321e-15
0
0
9.67004e-14
1.99085e-12
6.38412e-12
0
0
0
1.87573e-10
5.98651e-09
2.15234e-08
2.01532e-08
0
0
3.66374e-15
3.16414e-15
5.05151e-15
4.66294e-15
3.55271e-15
5.71765e-15
7.71605e-15
9.82547e-15
8.99281e-15
0
0
1.82521e-13
2.42484e-12
5.61712e-12
0
0
0
1.225e-09
1.12844e-08
3.25992e-08
1.91646e-08
0
0
4.05231e-15
1.83187e-15
2.10942e-15
2.66454e-15
3.44169e-15
4.88498e-15
8.10463e-15
1.08247e-14
1.08247e-14
0
0
3.02702e-13
3.00737e-12
5.50471e-12
0
0
0
2.29425e-09
1.5907e-08
4.19277e-08
2.57622e-08
0
0
6.32827e-15
3.77476e-15
2.55351e-15
1.22125e-15
1.77636e-15
5.38458e-15
8.10463e-15
1.16573e-14
8.71525e-15
0
0
3.07809e-13
3.19383e-12
6.24523e-12
0
0
0
2.82983e-09
1.84215e-08
4.64261e-08
2.97882e-08
0
0
1
1
0.90064
0.631777
1
1
0.992019
0.892087
0.990834
1
1
0.992036
0.920864
0.933161
0.944851
0.953742
0.681644
0.714687
0.749639
0.786712
0.232183
0.266524
0.312999
0.379491
0.0520886
0.0631848
0.0818614
0.111987
0.0130997
0.0172514
0.0238961
0.0327775
0.00646146
0.00854815
0.0110934
0.0132309
0.00502589
0.00555022
0.00612521
0.006791
0.00882965
0.00970885
0.0108093
0.0123797
0.0245299
0.027289
0.0304415
0.0337888
0.00395948
0.0045842
0.00534999
0.00606858
0.000143869
0.000227524
0.000467505
0.00107043
0
0
0.000124268
0.00068655
0
0
0
4.17675e-05
0
0
0
0
0
0
0
0
2.38541e-07
2.21886e-07
0
0
1.46763e-07
2.02038e-07
1.97269e-07
6.37687e-08
3.13667e-08
5.19699e-08
6.50804e-08
6.58133e-08
2.33221e-09
5.3761e-09
9.25577e-09
1.26422e-08
1.8081e-09
2.23067e-09
2.16662e-09
1.02588e-09
3.49584e-09
4.0837e-09
3.77941e-09
2.19668e-09
4.66443e-09
6.01312e-09
6.54059e-09
5.74936e-09
4.85874e-09
6.68994e-09
7.60423e-09
6.60475e-09
3.9817e-09
6.10675e-09
7.65095e-09
6.97636e-09
3.74235e-09
6.1802e-09
8.54397e-09
9.35771e-09
4.38363e-09
7.22084e-09
1.06753e-08
1.34032e-08
7.44501e-09
1.12461e-08
1.57681e-08
1.91525e-08
1.39482e-08
1.94722e-08
2.42729e-08
2.42549e-08
1.74243e-08
2.35152e-08
2.7811e-08
2.41945e-08
1.5686e-08
1.73005e-08
1.1266e-08
0
0
0
0
0
0
0
0
0
0
0
0
0
0
0
0
0
0
0
0
0
0
0
0
0
0
0
0
0
0
0
0
0
0
0
0
0
0.0989424
0.112142
0.283679
0.444571
0.525151
0.49147
0.335645
0.143799
0.0909631
0.0611674
0.0394547
0.0291066
0.0211492
0.0262149
0.045188
0.0854705
0.0785724
0.134371
0.472514
0.579256
0.697591
0.875088
0.784653
0.758725
0.720915
0.461584
0.10224
0.068507
0.053803
0.0372892
0.0259285
0.0182107
0.0261525
0.0482098
0.0713679
0.0778209
0.192498
0.505465
0.938095
0.974828
0.993711
0.968342
0.943131
0.905204
0.706185
0.139277
0.0354394
0.0353041
0.0287593
0.0201765
0.01569
0.0275871
0.0470378
0.0731852
0.14429
0.323235
0.544347
0.961284
0.967816
0.974622
0.962196
0.957085
0.943293
0.845226
0.297209
0.0778029
0.0153532
0.0139443
0.0132424
0.0127976
0.0276575
0.0610086
0.101739
0.23856
0.48053
0.596051
0.851289
0.792088
0.849304
0.819811
0.830887
0.877794
0.90111
0.78011
0.399965
0.0613524
0.00586524
0.00291121
0.00565292
0.0181355
0.0470396
0.0887294
0.246572
0.504565
0.607387
0.542137
0.417046
0.496834
0.398679
0.450479
0.580532
0.731504
0.809179
0.738903
0.359762
0.0568602
0.000255195
0.00309601
0.0151224
0.0397283
0.0845412
0.254875
0.490398
0.613808
0.19268
0.172588
0.149819
0.116894
0.152654
0.247276
0.430271
0.615938
0.759933
0.633153
0.285138
0.0409374
0.0217627
0.0303207
0.064238
0.173272
0.466993
0.644626
0.636281
0.0505959
0.0528633
0.0385365
0.0406022
0.0726927
0.126556
0.223404
0.321912
0.59961
0.638044
0.527004
0.244028
0.152849
0.109254
0.154838
0.336931
0.581546
0.673369
0.615143
0.0147436
0.0150518
0.0207825
0.0389113
0.0615405
0.0970811
0.139467
0.181347
0.305109
0.463646
0.501899
0.406994
0.362172
0.301248
0.332448
0.443167
0.596542
0.652798
0.596939
0.00861203
0.0152069
0.0296704
0.0557741
0.0883394
0.125926
0.164831
0.205983
0.257072
0.319064
0.368617
0.370761
0.375882
0.3619
0.378628
0.45309
0.596803
0.643471
0.573148
0.0163045
0.0260892
0.0380118
0.0538528
0.0781274
0.115031
0.153988
0.191407
0.235969
0.273316
0.296416
0.309985
0.321258
0.318874
0.332874
0.412681
0.577569
0.625176
0.547832
0.0401955
0.0545274
0.0704199
0.0869271
0.105596
0.125354
0.144356
0.166998
0.217973
0.282963
0.342973
0.375443
0.391695
0.392292
0.381231
0.476791
0.617388
0.628809
0.5347
0.00833654
0.0176791
0.0362382
0.0527671
0.0594628
0.0629177
0.07145
0.0786561
0.0951333
0.141106
0.205523
0.345202
0.443923
0.513484
0.543469
0.585877
0.666193
0.641734
0.525015
0.00336734
0.0117222
0.0222137
0.0262789
0.025498
0.0267483
0.0316193
0.0357904
0.0382287
0.0558002
0.0791834
0.150869
0.241254
0.378527
0.452793
0.487697
0.623824
0.630123
0.516
0.00248345
0.00724356
0.0108561
0.0114668
0.010441
0.0120014
0.0156271
0.0208273
0.0245682
0.0334137
0.0455553
0.0785647
0.13343
0.192362
0.265637
0.334845
0.507029
0.577375
0.49866
0.000496438
0.00189539
0.00355319
0.00429803
0.00460446
0.00536997
0.00779833
0.01003
0.0111515
0.0141
0.0226692
0.0433835
0.0699576
0.099364
0.17068
0.240671
0.387742
0.467851
0.472233
1.91168e-05
0.000250463
0.00061686
0.00127672
0.0021169
0.00244661
0.00394857
0.00484909
0.00491652
0.00646442
0.0126996
0.0263601
0.0395449
0.0686528
0.128056
0.18814
0.292224
0.374915
0.439921
0
0
4.66189e-05
0.000217411
0.00077707
0.000785896
0.00119986
0.00174071
0.00160013
0.00230224
0.00616336
0.0124401
0.0197611
0.0359227
0.0749271
0.125663
0.224876
0.321023
0.40589
0
0
0
2.09505e-05
0.000198752
0.000221899
0.000275618
0.000455257
0.000518331
0.00115829
0.00318849
0.00675156
0.0122528
0.0229688
0.0431959
0.0823914
0.180525
0.291219
0.369442
0
0
0
0
2.96547e-05
4.04229e-05
5.42176e-05
8.27114e-05
0.000133316
0.000571246
0.0018457
0.0033239
0.00678546
0.0131572
0.0242384
0.0555604
0.14623
0.270801
0.335806
1.99259e-08
0
0
0
3.54501e-07
3.43367e-06
6.43561e-06
7.73094e-06
2.50141e-05
0.000239122
0.00112883
0.00203545
0.00459053
0.00919561
0.0161791
0.038192
0.114223
0.242539
0.306109
1.08458e-08
8.56425e-09
0
0
0
0
0
0
0
7.0744e-05
0.000474184
0.00133584
0.00364038
0.00750607
0.0132144
0.0301191
0.0911306
0.21411
0.281126
0
0
0
5.73713e-09
5.07482e-08
1.22596e-07
7.08222e-07
4.27447e-07
0
2.45988e-05
0.000181584
0.000428678
0.00207219
0.00585808
0.0108968
0.0246218
0.0742354
0.188359
0.2594
0
0
0
0
6.69159e-08
3.13035e-07
1.24912e-06
3.35997e-06
3.61758e-06
1.13794e-05
5.95377e-05
0.000257101
0.00162063
0.00437127
0.00823108
0.0202204
0.063719
0.168742
0.239985
1.27678e-09
0
0
0
0
2.03024e-07
1.27289e-06
4.15041e-06
6.71824e-06
8.75611e-06
4.07958e-05
0.000389724
0.00199215
0.00351095
0.0063593
0.0166936
0.055039
0.150286
0.222037
2.23377e-10
0
0
0
0
0
2.404e-07
2.93938e-06
7.49842e-06
1.05159e-05
3.0057e-05
0.000205484
0.00082259
0.00211989
0.00510301
0.0138473
0.0455528
0.130817
0.205869
6.53431e-10
0
0
0
0
0
0
2.34848e-06
8.53558e-06
1.32748e-05
2.82721e-05
0.000126162
0.000541129
0.00166487
0.00438361
0.0119126
0.0369732
0.111806
0.192015
6.67895e-09
0
0
0
0
0
0
1.26731e-07
6.82941e-06
1.53198e-05
3.4313e-05
0.000132879
0.000476663
0.00146418
0.00427509
0.0113583
0.031319
0.0960715
0.17856
1.44727e-08
5.78025e-10
0
0
0
0
0
0
5.85725e-06
1.77513e-05
5.55444e-05
0.000233781
0.000654212
0.00140683
0.00400715
0.0110509
0.0291393
0.0864173
0.166384
1.87752e-08
0
0
0
0
0
0
1.6048e-06
9.86348e-06
2.94796e-05
8.33042e-05
0.000233593
0.000531065
0.00145204
0.00491749
0.0119446
0.0284449
0.0813981
0.15467
1.16648e-08
0
0
0
0
0
0
0
7.47797e-06
2.67395e-05
7.38431e-05
0.000181083
0.000441712
0.00147277
0.00487429
0.0121318
0.0294397
0.0788081
0.146659
0
0
0
0
0
0
0
0
3.64083e-06
2.39994e-05
6.89884e-05
0.000137234
0.000317374
0.00122139
0.00476821
0.0130284
0.0309948
0.0721953
0.137247
0
0
0
0
0
0
0
0
3.57483e-06
2.05565e-05
5.68441e-05
0.000121301
0.000328937
0.00128566
0.00459385
0.0120367
0.0276082
0.0625843
0.130137
0
0
0
0
0
0
0
0
4.96625e-07
1.10583e-05
4.08614e-05
0.000107401
0.00033882
0.00126479
0.00426289
0.00949593
0.0203786
0.0516237
0.121144
0
0
0
0
0
0
0
0
0
5.76439e-06
2.10527e-05
6.33138e-05
0.000277781
0.00129872
0.00436336
0.00874764
0.0181249
0.0466915
0.11438
0
0
0
0
0
0
0
0
6.85313e-07
4.4703e-06
1.36668e-05
4.94393e-05
0.000213137
0.000877616
0.00284588
0.00683636
0.0170753
0.0465567
0.104043
0
0
0
0
0
0
1.32172e-07
1.27813e-06
3.47956e-06
7.05868e-06
1.42617e-05
4.1236e-05
0.00018515
0.00077086
0.00233816
0.00650444
0.0210755
0.066885
0.105619
0
0
0
2.73046e-06
9.22754e-06
9.47298e-06
9.50551e-06
8.85201e-06
8.90433e-06
1.21223e-05
1.77361e-05
3.68606e-05
0.000142581
0.000525791
0.00149753
0.00498153
0.0175907
0.0549496
0.0994109
0
0
2.69463e-06
1.77021e-05
2.80415e-05
3.60523e-05
3.35661e-05
2.62121e-05
1.98536e-05
2.26148e-05
2.69523e-05
3.82807e-05
8.93188e-05
0.000299868
0.000953033
0.00349951
0.0115555
0.0377707
0.0885055
0
0
9.21992e-06
3.56311e-05
5.89707e-05
8.03926e-05
7.90604e-05
6.18725e-05
4.23757e-05
4.39972e-05
5.02471e-05
5.55361e-05
9.43541e-05
0.000189745
0.000413406
0.00184716
0.00716494
0.0261274
0.0761192
0
0
1.79559e-05
4.74745e-05
8.25636e-05
0.000113497
0.000123501
0.000101955
6.87195e-05
7.77361e-05
8.99641e-05
9.56757e-05
0.000113693
0.000159272
0.000263619
0.000698793
0.00233546
0.01079
0.0545903
0
2.23966e-07
2.39e-05
5.48777e-05
9.27398e-05
0.000127813
0.000156766
0.000146792
0.000118161
0.000128899
0.000144467
0.00016022
0.000164067
0.000180644
0.000201891
0.000225967
0.000374472
0.00154217
0.0224274
)
;

boundaryField
{
    leftWall
    {
        type            zeroGradient;
    }
    rightWall
    {
        type            zeroGradient;
    }
    lowerWall
    {
        type            zeroGradient;
    }
    atmosphere
    {
        type            inletOutlet;
        inletValue      uniform 0;
        value           nonuniform List<scalar> 
46
(
6.32827e-15
3.77476e-15
2.55351e-15
1.22125e-15
1.77636e-15
5.38458e-15
8.10463e-15
1.16573e-14
8.71525e-15
0
0
3.07809e-13
3.19383e-12
6.24523e-12
0
0
0
2.82983e-09
1.84215e-08
4.64261e-08
2.97882e-08
0
0
0
0
0
0
0
2.23966e-07
2.39e-05
5.48777e-05
9.27398e-05
0.000127813
0.000156766
0.000146792
0.000118161
0.000128899
0.000144467
0.00016022
0.000164067
0.000180644
0.000201891
0.000225967
0.000374472
0.00154217
0.0224274
)
;
    }
    defaultFaces
    {
        type            empty;
    }
}


// ************************************************************************* //
