/*--------------------------------*- C++ -*----------------------------------*\
| =========                 |                                                 |
| \\      /  F ield         | foam-extend: Open Source CFD                    |
|  \\    /   O peration     | Version:     4.1                                |
|   \\  /    A nd           | Web:         http://www.foam-extend.org         |
|    \\/     M anipulation  |                                                 |
\*---------------------------------------------------------------------------*/
FoamFile
{
    version     2.0;
    format      ascii;
    class       volScalarField;
    location    "0.5";
    object      C;
}
// * * * * * * * * * * * * * * * * * * * * * * * * * * * * * * * * * * * * * //

dimensions      [0 0 0 0 0 0 0];

internalField   nonuniform List<scalar> 
2268
(
1.00201
1.00197
1.00176
1.00191
1.00186
1.00201
1.00254
1.00328
1.00314
1.0013
0.99938
0.998987
0.999166
0.999668
1.00023
1.00055
1.00067
1.00063
1.00058
1.00058
1.00057
1.00039
1.00003
1.00167
1.00156
1.00112
1.00143
1.00137
1.00175
1.00254
1.00312
1.00207
0.998949
0.997091
0.997095
0.997772
0.998792
0.999676
1.00021
1.00047
1.00049
1.00048
1.00052
1.00057
1.00042
1.00007
0.999808
0.999511
0.998499
0.999314
0.99918
1.00018
1.00145
1.00132
0.997806
0.992546
0.991411
0.992588
0.9946
0.996715
0.998277
0.999294
0.999908
1.00008
1.00018
1.00034
1.00054
1.00048
1.00014
0.993888
0.993223
0.99116
0.993052
0.992685
0.994849
0.996535
0.994547
0.986437
0.980352
0.981122
0.984951
0.989172
0.992973
0.99558
0.997474
0.998737
0.999247
0.999586
1
1.00044
1.00055
1.00022
0.978327
0.977046
0.973192
0.977055
0.975964
0.979928
0.981516
0.975066
0.961387
0.958219
0.963485
0.972521
0.979983
0.986371
0.990588
0.994029
0.996477
0.997645
0.998453
0.999326
1.00013
1.00054
1.0002
0.941564
0.939423
0.932683
0.939489
0.936497
0.942292
0.942832
0.927527
0.913272
0.917735
0.933121
0.951096
0.963751
0.974576
0.981498
0.98765
0.99224
0.994615
0.996335
0.997994
0.999341
1.00024
1
0.860956
0.857851
0.846591
0.856665
0.849504
0.854543
0.853063
0.826472
0.822839
0.842893
0.878341
0.911665
0.934046
0.953244
0.965191
0.97611
0.984535
0.989034
0.992476
0.99546
0.997627
0.999297
0.999794
0.697989
0.693967
0.676315
0.687235
0.673221
0.667084
0.664961
0.638704
0.655812
0.70648
0.776483
0.837068
0.879243
0.914559
0.936417
0.955776
0.970946
0.979094
0.985711
0.990988
0.994423
0.997285
1.00072
-0.827975
-0.801434
-0.78276
-0.746665
-0.711331
-0.675945
-0.650488
-0.621137
-0.574337
-0.498265
-0.428054
-0.384916
-0.359515
-0.341985
-0.33023
-0.29685
-0.283582
-0.271033
-0.256558
-0.835276
-0.832974
-0.857026
-0.837634
-0.801168
-0.747704
-0.72164
-0.701774
-0.678882
-0.60947
-0.519399
-0.478515
-0.467151
-0.429385
-0.393658
-0.33268
-0.295838
-0.253175
-0.208311
-0.846652
-0.874931
-0.919819
-0.905552
-0.85284
-0.815901
-0.79952
-0.7839
-0.777836
-0.726628
-0.640798
-0.617021
-0.631298
-0.589964
-0.503849
-0.42506
-0.374888
-0.261367
-0.169635
-0.857438
-0.89689
-0.943956
-0.925638
-0.842459
-0.825564
-0.831574
-0.833194
-0.842617
-0.826354
-0.764146
-0.749938
-0.773846
-0.749653
-0.628728
-0.543585
-0.531495
-0.324726
-0.149007
-0.862437
-0.898182
-0.944335
-0.912052
-0.754254
-0.741849
-0.775916
-0.831563
-0.868536
-0.884924
-0.854266
-0.846332
-0.862021
-0.854209
-0.7279
-0.637529
-0.673773
-0.437906
-0.134585
-0.868003
-0.904303
-0.943895
-0.874398
-0.598153
-0.596447
-0.666358
-0.796107
-0.85767
-0.898895
-0.901591
-0.900065
-0.909329
-0.907266
-0.793915
-0.700331
-0.757082
-0.550273
-0.119127
-0.883787
-0.921874
-0.930961
-0.802044
-0.446693
-0.454623
-0.585751
-0.765752
-0.837505
-0.888758
-0.917651
-0.92504
-0.934762
-0.932076
-0.843525
-0.741813
-0.80057
-0.631375
-0.10121
-0.910873
-0.921117
-0.846633
-0.614634
-0.267715
-0.306716
-0.503558
-0.736987
-0.816629
-0.877021
-0.923235
-0.937444
-0.948402
-0.942319
-0.878768
-0.776648
-0.823375
-0.68098
-0.0828942
0.257583
0.252347
0.224109
0.225958
0.199595
0.146086
0.16397
0.16727
0.227276
0.348191
0.496222
0.627589
0.728528
0.809582
0.861133
0.902922
0.93564
0.953239
0.96846
0.979701
0.986222
0.991994
1.00797
-0.527513
-0.533028
-0.552325
-0.579384
-0.582742
-0.627075
-0.602953
-0.583148
-0.526013
-0.408632
-0.218812
0.0272183
0.273535
0.482633
0.626233
0.736419
0.822015
0.869324
0.914802
0.947427
0.963242
0.973773
0.995135
-0.873287
-0.875559
-0.88087
-0.892535
-0.88741
-0.898098
-0.886069
-0.873781
-0.84462
-0.792863
-0.707277
-0.574103
-0.406699
-0.190133
0.0547132
0.292857
0.49879
0.627119
0.755625
0.844627
0.891497
0.917005
0.950346
-0.964757
-0.965446
-0.966666
-0.969646
-0.967182
-0.968461
-0.963337
-0.955871
-0.941746
-0.920667
-0.889052
-0.839951
-0.768044
-0.67274
-0.519698
-0.346583
-0.146321
0.0351268
0.279023
0.488165
0.642936
0.71728
0.793279
-0.98879
-0.988956
-0.989246
-0.989807
-0.988938
-0.988614
-0.986188
-0.981601
-0.974078
-0.964604
-0.954358
-0.937564
-0.903325
-0.860427
-0.791666
-0.725598
-0.666061
-0.588364
-0.481183
-0.271849
-0.0268977
0.129136
0.243898
-0.996288
-0.996309
-0.99642
-0.996551
-0.996194
-0.995863
-0.994451
-0.992028
-0.98828
-0.984522
-0.980438
-0.973895
-0.95894
-0.933098
-0.917444
-0.904394
-0.904425
-0.889879
-0.881634
-0.817785
-0.737314
-0.695521
-0.620826
-0.998911
-0.998913
-0.998965
-0.999042
-0.998896
-0.998716
-0.997862
-0.996797
-0.995149
-0.993683
-0.991102
-0.988525
-0.982132
-0.974213
-0.976391
-0.977886
-0.983076
-0.983782
-0.982864
-0.96831
-0.945793
-0.938711
-0.916653
-0.999824
-0.999843
-0.999862
-0.99989
-0.999874
-0.999839
-0.999554
-0.999207
-0.998692
-0.99819
-0.997123
-0.996333
-0.994472
-0.992718
-0.994398
-0.996672
-0.998149
-0.998587
-0.998086
-0.995253
-0.990073
-0.988269
-0.982122
-1.00012
-1.00013
-1.00012
-1.00012
-1.00014
-1.00017
-1.00018
-1.00014
-1.00007
-0.999892
-0.9996
-0.999393
-0.998922
-0.998309
-0.999108
-0.999743
-0.999904
-0.999948
-0.999833
-0.999511
-0.998576
-0.996985
-0.992277
-1.00019
-1.00017
-1.00016
-1.00016
-1.00016
-1.00022
-1.00033
-1.00042
-1.00047
-1.00046
-1.00044
-1.00031
-1.00018
-1.00001
-1.00012
-1.00014
-1.00009
-1.00006
-0.999925
-0.999934
-0.999257
-0.996865
-0.992293
-1.00017
-1.00013
-1.0001
-1.0001
-1.0001
-1.00016
-1.00028
-1.00041
-1.00049
-1.00052
-1.00052
-1.00047
-1.00039
-1.00028
-1.00016
-0.99975
-0.998688
-0.997035
-0.994998
-0.993706
-0.992404
-0.98989
-0.985332
-1.00011
-1.00007
-1.00005
-1.00005
-1.00004
-1.00009
-1.0002
-1.00033
-1.00041
-1.00044
-1.00045
-1.00039
-1.00029
-1.00001
-0.998556
-0.993782
-0.986321
-0.981057
-0.97841
-0.976765
-0.974034
-0.967934
-0.959452
-1.00006
-1.00003
-1.00001
-1.00002
-1.00001
-1.00005
-1.00013
-1.00023
-1.00028
-1.00031
-1.00033
-1.00028
-1.0002
-1.00015
-0.999985
-0.999299
-0.998036
-0.996312
-0.995437
-0.995549
-0.994947
-0.993387
-0.992689
-1.00002
-1.00001
-1
-1
-1
-1.00002
-1.00007
-1.00012
-1.00015
-1.00018
-1.0002
-1.00019
-1.00013
-1.0001
-1.00008
-1.00003
-0.999996
-0.999851
-0.999967
-0.999978
-0.999821
-0.999361
-0.999537
-1.00001
-1
-0.999999
-0.999999
-0.999998
-1
-1.00002
-1.00004
-1.00006
-1.00008
-1.00011
-1.0001
-1.00007
-1.00004
-1.00004
-1.00003
-1.00004
-1.00004
-1.00007
-1.00011
-1.00014
-1.00008
-1.00019
-1
-0.999999
-0.999999
-0.999999
-0.999998
-0.999999
-1
-1.00001
-1.00002
-1.00003
-1.00005
-1.00005
-1.00003
-1.00002
-1.00001
-1.00001
-1.00001
-1.00001
-1
-1.00001
-1.00003
-1.00006
-1.0001
-1
-0.999999
-0.999999
-0.999999
-0.999999
-0.999998
-0.999999
-1
-1
-1.00001
-1.00002
-1.00002
-1.00001
-1
-1
-1
-1
-1
-0.999999
-0.999998
-1
-1.00001
-1.00003
-1
-1
-1
-1
-1
-0.999999
-0.999999
-0.999999
-0.999999
-1
-1
-1
-1
-1
-1
-1
-1
-1
-1
-0.999999
-0.999999
-1
-1
-1
-1
-1
-1
-1
-1
-0.999999
-0.999999
-0.999999
-1
-1
-1
-1
-1
-1
-1
-1
-1
-1
-1
-1
-1
-1
-1
-1
-1
-1
-1
-1
-1
-1
-1
-1
-1
-1
-1
-1
-1
-1
-1
-1
-1
-1
-1
-1
-1
-1
-1
-1
-1
-1
-1
-1
-1
-1
-1
-1
-1
-1
-1
-1
-1
-1
-1
-1
-1
-1
-1
-1
-1
-1
-1
-1
-1
-1
-1
-1
-1
-1
-1
-1
-1
-1
-1
-1
-1
-1
-1
-1
-1
-1
-1
-1
-1
-1
-1
-1
-1
-1
-1
-1
-1
-1
-1
-1
-1
-1
-1
-1
-1
-1
-1
-1
-1
-1
-1
-1
-1
-1
-1
-1
-1
-1
-1
-1
-1
-1
-1
-1
-1
-1
-1
-1
-1
-1
-1
-1
-1
-1
-1
-1
-1
-1
-1
-1
-1
-1
-1
-1
-1
-1
-1
-1
-1
-1
-1
-1
-1
-1
-1
-1
-1
-1
-1
-1
-1
-1
-1
-1
-1
-1
-1
-1
-1
-1
-1
-1
-1
-1
-1
-1
-1
-1
-1
-1
-1
-1
-1
-1
-1
-1
-1
-1
-1
-1
-1
-1
-1
-1
-1
-1
-1
-1
-1
-1
-1
-1
-1
-1
-1
-1
-1
-1
-1
-1
-1
-1
-1
-1
-1
-1
-1
-1
-1
-1
-1
-1
-1
-1
-1
-1
-1
-1
-1
-1
-1
-1
-1
-1
-1
-1
-1
-1
-1
-1
-1
-1
-1
-1
-1
-1
-1
-1
-1
-1
-1
-1
-1
-1
-1
-1
-1
-1
-1
-1
-1
-1
-1
-1
-1
-1
-1
-1
-1
-1
-1
-1
-1
-1
-1
-1
-1
-1
-1
-1
-1
-1
-1
-1
-1
-1
-1
-1
-1
-1
-1
-1
-1
-1
-1
-1
-1
-1
-1
-1
-1
-1
-1
-1
-1
-1
-1
-1
-1
-1
-1
-1
-1
-1
-1
-1
-1
-1
-1
-1
-1
-1
-1
-1
-1
-1
-1
-1
-1
-1
-1
-1
-1
-1
-1
-1
-1
-1
-1
-1
-1
-1
-1
-1
-1
-1
-1
-1
-1
-1
-1
-1
-1
-1
-1
-1
-1
-1
-1
-1
-1
-1
-1
-1
-1
-1
-1
-1
-1
-1
-1
-1
-1
-1
-1
-1
-1
-1
-1
-1
-1
-1
-1
-1
-1
-1
-1
-1
-1
-1
-1
-1
-1
-1
-1
-1
-1
-1
-1
-1
-1
-1
-1
-1
-1
-1
-1
-1
-1
-1
-1
-1
-1
-1
-1
-1
-1
-1
-1
-1
-1
-1
-1
-1
-1
-1
-1
-1
-1
-1
-1
-1
-1
-1
-1
-1
-1
-1
-1
-1
-1
-1
-1
-1
-1
-1
-1
-1
-1
-1
-1
-1
-1
-1
-1
-1
-1
-1
-1
-1
-1
-1
-1
-1
-1
-1
-1
-1
-1
-1
-1
-1
-1
-1
-1
-1
-1
-1
-1
-1
-1
-1
-1
-1
-1
-1
-1
-1
-1
-1
-1
-1
-1
-1
-1
-1
-1
-1
-1
-1
-1
-1
-1
-1
-1
-1
-1
-1
-1
-1
-1
-1
-1
-1
-1
-1
-1
-1
-1
-1
-1
-1
-1
-1
-1
-1
-1
-1
-1
-1
-1
-1
-1
-1
-1
-1
-1
-1
-1
-1
-1
-1
-1
-1
-1
-1
-1
1.04521
1.01319
0.801279
0.263553
1.03064
1.03896
0.984037
0.784173
0.981669
1.00023
1.00624
0.984073
0.841728
0.866322
0.889701
0.907484
0.363288
0.429373
0.499278
0.573424
-0.535633
-0.466952
-0.374002
-0.241018
-0.895823
-0.87363
-0.836277
-0.776027
-0.973801
-0.965497
-0.952208
-0.934445
-0.987077
-0.982904
-0.977813
-0.973538
-0.989948
-0.9889
-0.98775
-0.986418
-0.982341
-0.980582
-0.978381
-0.975241
-0.95094
-0.945422
-0.939117
-0.932422
-0.992081
-0.990832
-0.9893
-0.987863
-0.999712
-0.999545
-0.999065
-0.997859
-1.00026
-1.00017
-0.999751
-0.998627
-1.00013
-1.00015
-1.00013
-0.999916
-1.00003
-1.00004
-1.00006
-1.00006
-1
-1.00001
-1.00001
-1.00002
-1
-1
-1
-1
-1
-1
-1
-1
-1
-1
-1
-1
-1
-1
-1
-1
-1
-1
-1
-1
-1
-1
-1
-1
-1
-1
-1
-1
-1
-1
-1
-1
-1
-1
-1
-1
-1
-1
-1
-1
-1
-1
-1
-1
-1
-1
-1
-1
-1
-1
-1
-1
-1
-1
-1
-1
-1
-1
-1
-1
-1
-1
-1
-1
-1
-1
-1
-1
-1
-1
-1
-1
-1
-1
-1
-1
-1
-1
-1
-1.00001
-1
-1.00001
-1.00001
-1.00001
-1.00001
-1.00001
-1.00001
-1.00001
-1.00001
-1.00001
-1.00001
-1.00001
-1.00001
-1.00001
-1.00001
-1.00001
-0.802115
-0.775716
-0.432642
-0.110858
0.0503018
-0.0170604
-0.328711
-0.712402
-0.818074
-0.877665
-0.921091
-0.941787
-0.957702
-0.94757
-0.909624
-0.829059
-0.842855
-0.731258
-0.0549714
0.158511
0.395181
0.750176
0.569305
0.517449
0.44183
-0.0768317
-0.79552
-0.862986
-0.892394
-0.925422
-0.948143
-0.963579
-0.947695
-0.90358
-0.857264
-0.844358
-0.615005
0.0109295
0.876191
0.949657
0.987421
0.936683
0.886262
0.810409
0.41237
-0.721445
-0.929121
-0.929392
-0.942481
-0.959647
-0.96862
-0.944826
-0.905924
-0.85363
-0.71142
-0.353531
0.0886944
0.922568
0.935631
0.949244
0.924393
0.91417
0.886585
0.690452
-0.405581
-0.844394
-0.969294
-0.972111
-0.973515
-0.974405
-0.944685
-0.877983
-0.796523
-0.522881
-0.0389408
0.192101
0.702579
0.584176
0.698609
0.639621
0.661774
0.755588
0.80222
0.56022
-0.20007
-0.877295
-0.98827
-0.994178
-0.988694
-0.963729
-0.905921
-0.822541
-0.506855
0.00913061
0.214775
0.0842736
-0.165907
-0.0063314
-0.202643
-0.0990426
0.161064
0.463007
0.618358
0.477805
-0.280475
-0.88628
-0.99949
-0.993808
-0.969755
-0.920543
-0.830918
-0.49025
-0.0192043
0.227616
-0.61464
-0.654824
-0.700362
-0.766211
-0.694691
-0.505448
-0.139458
0.231876
0.519866
0.266306
-0.429723
-0.918125
-0.956475
-0.939359
-0.871524
-0.653457
-0.0660137
0.289253
0.272562
-0.898808
-0.894273
-0.922927
-0.918796
-0.854615
-0.746888
-0.553192
-0.356175
0.199219
0.276088
0.0540089
-0.511944
-0.694303
-0.781492
-0.690323
-0.326138
0.163091
0.346738
0.230286
-0.970513
-0.969896
-0.958435
-0.922177
-0.876919
-0.805838
-0.721066
-0.637307
-0.389782
-0.0727081
0.00379871
-0.186013
-0.275656
-0.397503
-0.335104
-0.113665
0.193083
0.305597
0.193878
-0.982776
-0.969586
-0.940659
-0.888452
-0.823321
-0.748148
-0.670339
-0.588034
-0.485856
-0.361871
-0.262766
-0.258478
-0.248236
-0.276199
-0.242743
-0.0938195
0.193606
0.286941
0.146296
-0.967391
-0.947822
-0.923976
-0.892294
-0.843745
-0.769937
-0.692024
-0.617185
-0.528062
-0.453368
-0.407169
-0.38003
-0.357484
-0.362251
-0.334251
-0.174638
0.155138
0.250352
0.0956648
-0.919609
-0.890945
-0.85916
-0.826146
-0.788807
-0.749293
-0.711288
-0.666005
-0.564055
-0.434074
-0.314054
-0.249114
-0.216611
-0.215415
-0.237537
-0.046418
0.234776
0.257618
0.0694007
-0.983327
-0.964642
-0.927524
-0.894466
-0.881074
-0.874165
-0.8571
-0.842688
-0.809733
-0.717789
-0.588953
-0.309595
-0.112155
0.0269672
0.086938
0.171754
0.332386
0.283467
0.0500306
-0.993265
-0.976556
-0.955573
-0.947442
-0.949004
-0.946503
-0.936761
-0.928419
-0.923543
-0.8884
-0.841633
-0.698263
-0.517492
-0.242946
-0.0944142
-0.0246059
0.247648
0.260246
0.0319993
-0.995033
-0.985513
-0.978288
-0.977066
-0.979118
-0.975997
-0.968746
-0.958345
-0.950864
-0.933173
-0.908889
-0.842871
-0.733141
-0.615275
-0.468726
-0.330311
0.0140584
0.154751
-0.00268081
-0.999007
-0.996209
-0.992894
-0.991404
-0.990791
-0.98926
-0.984403
-0.97994
-0.977697
-0.9718
-0.954662
-0.913233
-0.860085
-0.801272
-0.658641
-0.518658
-0.224515
-0.0642988
-0.0555341
-0.999962
-0.999499
-0.998766
-0.997447
-0.995766
-0.995107
-0.992103
-0.990302
-0.990167
-0.987071
-0.974601
-0.94728
-0.92091
-0.862694
-0.743888
-0.62372
-0.415552
-0.25017
-0.120158
-1.00003
-1
-0.999907
-0.999565
-0.998446
-0.998428
-0.9976
-0.996519
-0.9968
-0.995396
-0.987673
-0.97512
-0.960478
-0.928155
-0.850146
-0.748675
-0.550249
-0.357954
-0.188221
-1.00001
-1.00001
-1.00001
-0.999958
-0.999602
-0.999556
-0.999449
-0.999089
-0.998963
-0.997683
-0.993623
-0.986497
-0.975494
-0.954062
-0.913608
-0.835217
-0.638949
-0.417561
-0.261115
-1
-1
-1.00001
-1
-0.999941
-0.999919
-0.999892
-0.999835
-0.999733
-0.998858
-0.996309
-0.993352
-0.986429
-0.973686
-0.951523
-0.888879
-0.707539
-0.458399
-0.328388
-1
-1
-1
-1
-0.999999
-0.999993
-0.999987
-0.999985
-0.99995
-0.999522
-0.997742
-0.995929
-0.990819
-0.981609
-0.967642
-0.923616
-0.771553
-0.514923
-0.387782
-1
-1
-1
-1
-1
-1
-1
-1
-1
-0.999859
-0.999052
-0.997328
-0.992719
-0.984988
-0.973571
-0.939762
-0.817739
-0.571781
-0.437748
-1
-1
-1
-1
-1
-1
-0.999999
-0.999999
-1
-0.999951
-0.999637
-0.999143
-0.995856
-0.988284
-0.978206
-0.950756
-0.851529
-0.623283
-0.481199
-1
-1
-1
-1
-1
-0.999999
-0.999998
-0.999993
-0.999993
-0.999977
-0.999881
-0.999486
-0.996759
-0.991257
-0.983538
-0.959559
-0.872562
-0.662515
-0.52003
-1
-1
-1
-1
-1
-1
-0.999997
-0.999992
-0.999987
-0.999982
-0.999918
-0.999221
-0.996016
-0.992978
-0.987281
-0.966613
-0.889922
-0.699428
-0.555926
-1
-1
-1
-1
-1
-1
-1
-0.999994
-0.999985
-0.999979
-0.99994
-0.999589
-0.998355
-0.99576
-0.989794
-0.972305
-0.908894
-0.738366
-0.588262
-1
-1
-1
-1
-1
-1
-1
-0.999995
-0.999983
-0.999973
-0.999943
-0.999748
-0.998918
-0.99667
-0.991233
-0.976175
-0.926054
-0.776387
-0.615969
-1
-1
-1
-1
-1
-1
-1
-1
-0.999986
-0.999969
-0.999931
-0.999734
-0.999047
-0.997072
-0.99145
-0.977283
-0.937362
-0.807857
-0.64288
-1
-1
-1
-1
-1
-1.00001
-1.00001
-1
-0.999988
-0.999964
-0.999889
-0.999532
-0.998692
-0.997186
-0.991986
-0.977898
-0.941721
-0.827165
-0.667231
-1
-1
-1
-1
-1
-1.00001
-1
-0.999997
-0.99998
-0.999941
-0.999833
-0.999533
-0.998938
-0.997096
-0.990165
-0.976111
-0.94311
-0.837204
-0.69066
-1
-1
-1
-1
-1
-1.00001
-1
-1
-0.999985
-0.999947
-0.999852
-0.999638
-0.999117
-0.997054
-0.990251
-0.975736
-0.941121
-0.842384
-0.706683
-1
-1
-1
-1
-1
-1.00001
-1.00001
-1
-0.999993
-0.999952
-0.999862
-0.999726
-0.999365
-0.997557
-0.990464
-0.973943
-0.93801
-0.855609
-0.725507
-1
-1
-1
-1
-1
-1.00001
-1.00001
-1
-0.999993
-0.999959
-0.999886
-0.999757
-0.999342
-0.997429
-0.990812
-0.975927
-0.944784
-0.874831
-0.739725
-1
-1
-1
-1.00001
-1.00001
-1.00001
-1.00001
-1.00001
-0.999999
-0.999978
-0.999918
-0.999785
-0.999322
-0.99747
-0.991474
-0.981008
-0.959243
-0.896753
-0.757711
-1
-1
-1.00001
-1.00001
-1.00001
-1.00001
-1.00001
-1
-1
-0.999988
-0.999958
-0.999873
-0.999444
-0.997403
-0.991273
-0.982505
-0.96375
-0.906617
-0.77124
-1
-1.00001
-1.00001
-1.00001
-1.00001
-1.00001
-1.00001
-1
-0.999999
-0.999991
-0.999973
-0.999901
-0.999574
-0.998245
-0.994308
-0.986327
-0.965849
-0.906887
-0.791915
-1.00001
-1.00001
-1.00001
-1.00001
-1
-1
-1
-0.999997
-0.999993
-0.999986
-0.999971
-0.999918
-0.99963
-0.998458
-0.995324
-0.986991
-0.957849
-0.86623
-0.788762
-1.00001
-1.00001
-1
-0.999995
-0.999982
-0.999981
-0.999981
-0.999982
-0.999982
-0.999976
-0.999965
-0.999926
-0.999715
-0.998948
-0.997005
-0.990037
-0.964819
-0.890101
-0.801178
-1.00001
-1.00001
-0.999995
-0.999965
-0.999944
-0.999928
-0.999933
-0.999948
-0.99996
-0.999955
-0.999946
-0.999923
-0.999821
-0.9994
-0.998094
-0.993001
-0.976889
-0.924459
-0.822989
-1.00001
-1.00001
-0.999982
-0.999929
-0.999882
-0.999839
-0.999842
-0.999876
-0.999915
-0.999912
-0.9999
-0.999889
-0.999811
-0.999621
-0.999173
-0.996306
-0.98567
-0.947745
-0.847762
-1.00001
-1
-0.999964
-0.999905
-0.999835
-0.999773
-0.999753
-0.999796
-0.999863
-0.999845
-0.99982
-0.999809
-0.999773
-0.999681
-0.999473
-0.998602
-0.995329
-0.97842
-0.890819
-1.00001
-1
-0.999952
-0.99989
-0.999815
-0.999744
-0.999686
-0.999706
-0.999764
-0.999742
-0.999711
-0.99968
-0.999672
-0.999639
-0.999596
-0.999548
-0.999251
-0.996916
-0.955145
)
;

boundaryField
{
    leftWall
    {
        type            zeroGradient;
    }
    rightWall
    {
        type            zeroGradient;
    }
    lowerWall
    {
        type            zeroGradient;
    }
    atmosphere
    {
        type            zeroGradient;
    }
    defaultFaces
    {
        type            empty;
    }
}


// ************************************************************************* //
