/*--------------------------------*- C++ -*----------------------------------*\
| =========                 |                                                 |
| \\      /  F ield         | foam-extend: Open Source CFD                    |
|  \\    /   O peration     | Version:     4.1                                |
|   \\  /    A nd           | Web:         http://www.foam-extend.org         |
|    \\/     M anipulation  |                                                 |
\*---------------------------------------------------------------------------*/
FoamFile
{
    version     2.0;
    format      ascii;
    class       volScalarField;
    location    "0.5";
    object      C_0;
}
// * * * * * * * * * * * * * * * * * * * * * * * * * * * * * * * * * * * * * //

dimensions      [0 0 0 0 0 0 0];

internalField   nonuniform List<scalar> 
2268
(
1.00198
1.00195
1.00174
1.00189
1.00184
1.00199
1.00251
1.00325
1.00311
1.00129
0.999399
0.999018
0.999198
0.999694
1.00024
1.00056
1.00067
1.00063
1.00058
1.00058
1.00057
1.00039
1.00002
1.00166
1.00155
1.00111
1.00143
1.00136
1.00174
1.00252
1.00309
1.00205
0.998963
0.997127
0.997138
0.997815
0.998827
0.999698
1.00022
1.00047
1.00049
1.00048
1.00052
1.00057
1.00042
1.00006
0.999834
0.999537
0.998539
0.99934
0.999201
1.00019
1.00143
1.00131
0.997826
0.992604
0.991481
0.992655
0.994662
0.996763
0.99831
0.999313
0.999917
1.00008
1.00018
1.00035
1.00054
1.00048
1.00014
0.994015
0.99335
0.991311
0.99317
0.992794
0.994925
0.996578
0.9946
0.986533
0.980477
0.981237
0.985042
0.989252
0.993035
0.995625
0.997502
0.998751
0.999254
0.99959
1
1.00044
1.00055
1.00022
0.978708
0.977423
0.97361
0.977401
0.976299
0.980189
0.981723
0.975285
0.96163
0.958442
0.963642
0.972617
0.980069
0.986439
0.99064
0.994065
0.996497
0.997658
0.99846
0.99933
1.00013
1.00055
1.00021
0.942545
0.940389
0.933696
0.940388
0.937364
0.943008
0.943441
0.928112
0.913774
0.918093
0.933296
0.951169
0.963823
0.974634
0.981543
0.987687
0.992266
0.994636
0.996343
0.998
0.99935
1.00026
1.00001
0.86324
0.860094
0.848917
0.858711
0.85151
0.856278
0.854542
0.827768
0.823797
0.843445
0.878491
0.91166
0.93406
0.953255
0.965197
0.976131
0.98456
0.989066
0.992488
0.995467
0.997639
0.999322
0.999787
0.70274
0.698621
0.681047
0.691472
0.67733
0.670793
0.668048
0.641215
0.657542
0.707341
0.776564
0.836887
0.879101
0.914435
0.936313
0.95574
0.970957
0.979134
0.985726
0.990995
0.994435
0.997306
1.00063
-0.830106
-0.804059
-0.785587
-0.749509
-0.713712
-0.678266
-0.653345
-0.625399
-0.580882
-0.507374
-0.435241
-0.388757
-0.361109
-0.343072
-0.3313
-0.298837
-0.286507
-0.275221
-0.260847
-0.837336
-0.835451
-0.859497
-0.840686
-0.804116
-0.7493
-0.722861
-0.704059
-0.683918
-0.620137
-0.528613
-0.481899
-0.465996
-0.429406
-0.395128
-0.334964
-0.2989
-0.257664
-0.213055
-0.848593
-0.876991
-0.921451
-0.907936
-0.856457
-0.818191
-0.800571
-0.785032
-0.781494
-0.736552
-0.648877
-0.618899
-0.627255
-0.588412
-0.505364
-0.427521
-0.378061
-0.265816
-0.174234
-0.859153
-0.898197
-0.944926
-0.927252
-0.846991
-0.830453
-0.835331
-0.834921
-0.845004
-0.833055
-0.770292
-0.751351
-0.770105
-0.747618
-0.630121
-0.54567
-0.533817
-0.328208
-0.153262
-0.863993
-0.899208
-0.944939
-0.911939
-0.758554
-0.748971
-0.78355
-0.835809
-0.870659
-0.888538
-0.85857
-0.847142
-0.859665
-0.852546
-0.729152
-0.638851
-0.674848
-0.439708
-0.138618
-0.869481
-0.905398
-0.944205
-0.872482
-0.601249
-0.604623
-0.677138
-0.802932
-0.860734
-0.901285
-0.904479
-0.900661
-0.907962
-0.906181
-0.794924
-0.700943
-0.75737
-0.551734
-0.123322
-0.885361
-0.923182
-0.930279
-0.797713
-0.448377
-0.465312
-0.59979
-0.773842
-0.841941
-0.891784
-0.920202
-0.925905
-0.934101
-0.931173
-0.844021
-0.741991
-0.800422
-0.633058
-0.105722
-0.912319
-0.921693
-0.843172
-0.607597
-0.271366
-0.321587
-0.521953
-0.746036
-0.82247
-0.881063
-0.925771
-0.938622
-0.948302
-0.941657
-0.878762
-0.776686
-0.822896
-0.681326
-0.0873726
0.267793
0.262326
0.234009
0.234944
0.20814
0.154063
0.170331
0.17218
0.230489
0.349687
0.496101
0.626845
0.727824
0.808974
0.86065
0.902669
0.935572
0.953266
0.968468
0.979704
0.986231
0.991973
1.00766
-0.51912
-0.524867
-0.544613
-0.57288
-0.576564
-0.621684
-0.598557
-0.579637
-0.523675
-0.407991
-0.220213
0.0242138
0.270444
0.480024
0.624168
0.735147
0.821426
0.869104
0.914738
0.947472
0.963297
0.973769
0.994809
-0.870961
-0.873296
-0.878749
-0.890869
-0.885812
-0.896743
-0.885102
-0.873311
-0.84468
-0.793855
-0.70924
-0.57737
-0.410831
-0.195121
0.0490765
0.28835
0.495999
0.625636
0.75511
0.844842
0.891886
0.917295
0.95034
-0.964141
-0.964844
-0.966108
-0.969215
-0.966789
-0.968165
-0.963229
-0.956046
-0.942121
-0.921333
-0.890136
-0.84179
-0.770567
-0.67576
-0.523966
-0.351418
-0.150954
0.0316537
0.277681
0.489648
0.646149
0.71976
0.794888
-0.988606
-0.988777
-0.989082
-0.989678
-0.988834
-0.988571
-0.986242
-0.981842
-0.974404
-0.964995
-0.95488
-0.938527
-0.904889
-0.862152
-0.793865
-0.727934
-0.668358
-0.59012
-0.480472
-0.266207
-0.0137041
0.140399
0.252705
-0.996232
-0.996254
-0.996371
-0.996513
-0.996171
-0.995875
-0.994513
-0.992179
-0.988473
-0.984723
-0.980691
-0.974361
-0.959726
-0.933984
-0.918168
-0.904925
-0.904801
-0.890119
-0.880517
-0.814207
-0.729534
-0.688364
-0.613576
-0.998896
-0.998898
-0.998953
-0.999032
-0.998895
-0.998734
-0.997909
-0.996879
-0.995252
-0.993794
-0.991265
-0.988753
-0.982459
-0.974544
-0.976531
-0.97787
-0.983042
-0.983763
-0.982522
-0.96757
-0.944062
-0.937221
-0.915009
-0.999821
-0.99984
-0.99986
-0.999889
-0.999875
-0.999846
-0.999574
-0.999241
-0.998737
-0.998242
-0.997202
-0.996426
-0.994573
-0.992792
-0.994383
-0.996635
-0.998102
-0.998539
-0.997987
-0.995125
-0.989787
-0.988061
-0.981905
-1.00012
-1.00013
-1.00012
-1.00012
-1.00014
-1.00018
-1.00019
-1.00015
-1.00009
-0.999915
-0.999632
-0.999425
-0.998946
-0.998327
-0.999099
-0.999728
-0.999886
-0.99993
-0.999812
-0.999492
-0.998595
-0.997109
-0.992485
-1.00019
-1.00017
-1.00016
-1.00016
-1.00016
-1.00022
-1.00033
-1.00042
-1.00047
-1.00047
-1.00044
-1.00032
-1.00019
-1.00001
-1.00012
-1.00014
-1.0001
-1.00007
-0.999956
-0.999982
-0.999381
-0.997134
-0.992565
-1.00017
-1.00013
-1.0001
-1.0001
-1.00009
-1.00016
-1.00028
-1.00041
-1.00049
-1.00052
-1.00053
-1.00047
-1.00039
-1.00028
-1.00018
-0.999855
-0.9989
-0.997353
-0.995261
-0.993879
-0.992627
-0.99033
-0.985922
-1.00011
-1.00007
-1.00005
-1.00005
-1.00004
-1.00009
-1.0002
-1.00033
-1.00041
-1.00044
-1.00045
-1.00039
-1.0003
-1.0001
-0.999065
-0.995182
-0.987852
-0.98185
-0.978657
-0.976771
-0.974405
-0.968761
-0.960485
-1.00005
-1.00003
-1.00001
-1.00002
-1.00001
-1.00005
-1.00013
-1.00023
-1.00028
-1.00031
-1.00033
-1.00028
-1.0002
-1.00015
-1.00005
-0.999535
-0.998421
-0.996705
-0.995523
-0.995525
-0.994937
-0.993437
-0.992751
-1.00002
-1.00001
-1
-1
-1
-1.00002
-1.00006
-1.00012
-1.00014
-1.00018
-1.0002
-1.00018
-1.00013
-1.00009
-1.00008
-1.00005
-1.00002
-0.999883
-0.999984
-0.999984
-0.999827
-0.999358
-0.999521
-1.00001
-1
-0.999999
-0.999999
-0.999998
-1
-1.00002
-1.00004
-1.00006
-1.00008
-1.00011
-1.0001
-1.00007
-1.00004
-1.00003
-1.00003
-1.00003
-1.00004
-1.00007
-1.0001
-1.00014
-1.00008
-1.00019
-1
-0.999999
-0.999999
-0.999999
-0.999998
-0.999999
-1
-1.00001
-1.00002
-1.00003
-1.00005
-1.00005
-1.00003
-1.00001
-1.00001
-1
-1.00001
-1.00001
-1
-1.00001
-1.00003
-1.00006
-1.0001
-1
-0.999999
-0.999999
-0.999999
-0.999999
-0.999998
-0.999999
-1
-1
-1.00001
-1.00001
-1.00001
-1.00001
-1
-1
-1
-1
-1
-0.999999
-0.999998
-1
-1.00001
-1.00003
-1
-1
-1
-1
-1
-0.999999
-0.999999
-0.999999
-0.999999
-1
-1
-1
-1
-1
-1
-1
-1
-1
-1
-0.999999
-0.999999
-1
-1
-1
-1
-1
-1
-1
-1
-0.999999
-0.999999
-0.999999
-1
-1
-1
-1
-1
-1
-1
-1
-1
-1
-1
-1
-1
-1
-1
-1
-1
-1
-1
-1
-1
-1
-1
-1
-1
-1
-1
-1
-1
-1
-1
-1
-1
-1
-1
-1
-1
-1
-1
-1
-1
-1
-1
-1
-1
-1
-1
-1
-1
-1
-1
-1
-1
-1
-1
-1
-1
-1
-1
-1
-1
-1
-1
-1
-1
-1
-1
-1
-1
-1
-1
-1
-1
-1
-1
-1
-1
-1
-1
-1
-1
-1
-1
-1
-1
-1
-1
-1
-1
-1
-1
-1
-1
-1
-1
-1
-1
-1
-1
-1
-1
-1
-1
-1
-1
-1
-1
-1
-1
-1
-1
-1
-1
-1
-1
-1
-1
-1
-1
-1
-1
-1
-1
-1
-1
-1
-1
-1
-1
-1
-1
-1
-1
-1
-1
-1
-1
-1
-1
-1
-1
-1
-1
-1
-1
-1
-1
-1
-1
-1
-1
-1
-1
-1
-1
-1
-1
-1
-1
-1
-1
-1
-1
-1
-1
-1
-1
-1
-1
-1
-1
-1
-1
-1
-1
-1
-1
-1
-1
-1
-1
-1
-1
-1
-1
-1
-1
-1
-1
-1
-1
-1
-1
-1
-1
-1
-1
-1
-1
-1
-1
-1
-1
-1
-1
-1
-1
-1
-1
-1
-1
-1
-1
-1
-1
-1
-1
-1
-1
-1
-1
-1
-1
-1
-1
-1
-1
-1
-1
-1
-1
-1
-1
-1
-1
-1
-1
-1
-1
-1
-1
-1
-1
-1
-1
-1
-1
-1
-1
-1
-1
-1
-1
-1
-1
-1
-1
-1
-1
-1
-1
-1
-1
-1
-1
-1
-1
-1
-1
-1
-1
-1
-1
-1
-1
-1
-1
-1
-1
-1
-1
-1
-1
-1
-1
-1
-1
-1
-1
-1
-1
-1
-1
-1
-1
-1
-1
-1
-1
-1
-1
-1
-1
-1
-1
-1
-1
-1
-1
-1
-1
-1
-1
-1
-1
-1
-1
-1
-1
-1
-1
-1
-1
-1
-1
-1
-1
-1
-1
-1
-1
-1
-1
-1
-1
-1
-1
-1
-1
-1
-1
-1
-1
-1
-1
-1
-1
-1
-1
-1
-1
-1
-1
-1
-1
-1
-1
-1
-1
-1
-1
-1
-1
-1
-1
-1
-1
-1
-1
-1
-1
-1
-1
-1
-1
-1
-1
-1
-1
-1
-1
-1
-1
-1
-1
-1
-1
-1
-1
-1
-1
-1
-1
-1
-1
-1
-1
-1
-1
-1
-1
-1
-1
-1
-1
-1
-1
-1
-1
-1
-1
-1
-1
-1
-1
-1
-1
-1
-1
-1
-1
-1
-1
-1
-1
-1
-1
-1
-1
-1
-1
-1
-1
-1
-1
-1
-1
-1
-1
-1
-1
-1
-1
-1
-1
-1
-1
-1
-1
-1
-1
-1
-1
-1
-1
-1
-1
-1
-1
-1
-1
-1
-1
-1
-1
-1
-1
-1
-1
-1
-1
-1
-1
-1
-1
-1
-1
-1
-1
-1
-1
-1
-1
-1
-1
-1
-1
-1
-1
-1
-1
-1
-1
-1
-1
-1
-1
-1
-1
-1
-1
-1
-1
-1
-1
-1
-1
-1
-1
-1
-1
-1
-1
-1
-1
-1
-1
-1
-1
-1
-1
-1
-1
-1
-1
-1
-1
-1
-1
-1
-1
-1
-1
-1
-1
-1
-1
-1
-1
-1
-1
-1
-1
1.0452
1.01503
0.807369
0.272967
1.03004
1.03908
0.98646
0.791393
0.981259
0.999756
1.00613
0.985115
0.842767
0.866991
0.890106
0.907807
0.370345
0.435355
0.504106
0.577086
-0.528156
-0.459505
-0.367012
-0.234566
-0.89395
-0.871637
-0.834172
-0.773459
-0.973525
-0.965177
-0.951726
-0.933605
-0.987238
-0.983028
-0.977816
-0.973381
-0.990128
-0.989107
-0.988075
-0.986925
-0.983003
-0.981325
-0.979282
-0.976374
-0.952242
-0.946914
-0.940821
-0.934295
-0.992199
-0.991
-0.989583
-0.988285
-0.999699
-0.999556
-0.999155
-0.998109
-1.00025
-1.00018
-0.999834
-0.998842
-1.00012
-1.00014
-1.00013
-0.999959
-1.00003
-1.00004
-1.00006
-1.00006
-1
-1.00001
-1.00001
-1.00002
-1
-1
-1
-1
-1
-1
-1
-1
-1
-1
-1
-1
-1
-1
-1
-1
-1
-1
-1
-1
-1
-1
-1
-1
-1
-1
-1
-1
-1
-1
-1
-1
-1
-1
-1
-1
-1
-1
-1
-1
-1
-1
-1
-1
-1
-1
-1
-1
-1
-1
-1
-1
-1
-1
-1
-1
-1
-1
-1
-1
-1
-1
-1
-1
-1
-1
-1
-1
-1
-1
-1
-1
-1
-1
-1
-1
-1
-1
-1.00001
-1.00001
-1
-1.00001
-1.00001
-1.00001
-1.00001
-1.00001
-1.00001
-1.00001
-1.00001
-1.00001
-1.00001
-1.00001
-1.00001
-1.00001
-1.00001
-1.00001
-0.800151
-0.771757
-0.420248
-0.105216
0.0389474
-0.0373918
-0.354914
-0.722669
-0.823451
-0.881468
-0.923676
-0.943647
-0.958202
-0.947211
-0.909013
-0.828638
-0.842556
-0.732528
-0.0596378
0.177858
0.414599
0.75372
0.559994
0.502898
0.420957
-0.105454
-0.803719
-0.866185
-0.895368
-0.92786
-0.950188
-0.964431
-0.947301
-0.903079
-0.857048
-0.84539
-0.621542
0.00574608
0.881073
0.953665
0.987679
0.934997
0.883556
0.804633
0.393352
-0.733901
-0.931676
-0.931268
-0.944291
-0.961436
-0.969387
-0.943956
-0.905907
-0.853833
-0.712963
-0.356598
0.086824
0.923179
0.936546
0.949663
0.925927
0.915231
0.885748
0.684888
-0.419039
-0.849802
-0.970337
-0.973127
-0.974756
-0.975176
-0.943686
-0.877921
-0.795954
-0.520264
-0.0369186
0.190994
0.70457
0.588517
0.701018
0.644866
0.667584
0.760502
0.803709
0.556126
-0.207528
-0.878085
-0.988335
-0.995095
-0.98965
-0.963288
-0.904869
-0.821134
-0.503408
0.0116109
0.213778
0.0902324
-0.159036
0.00170182
-0.195383
-0.090247
0.170588
0.470569
0.617691
0.477856
-0.275631
-0.88347
-0.999351
-0.993652
-0.968364
-0.917848
-0.827009
-0.483515
-0.0150737
0.227121
-0.609917
-0.650203
-0.696836
-0.764607
-0.692397
-0.502588
-0.134932
0.234245
0.519113
0.26931
-0.417981
-0.913245
-0.953257
-0.936023
-0.865976
-0.643015
-0.0557634
0.291702
0.272336
-0.897123
-0.893481
-0.922432
-0.919502
-0.856062
-0.7479
-0.552679
-0.355855
0.198053
0.275187
0.06036
-0.495406
-0.679944
-0.772038
-0.677202
-0.311426
0.171755
0.347788
0.229866
-0.970363
-0.970592
-0.960182
-0.925288
-0.879934
-0.808785
-0.724013
-0.641793
-0.394967
-0.0789028
0.00141127
-0.181491
-0.265111
-0.384929
-0.322171
-0.104749
0.198957
0.306788
0.193398
-0.98367
-0.971337
-0.943271
-0.892559
-0.828625
-0.754
-0.67637
-0.594282
-0.492165
-0.369356
-0.269616
-0.260927
-0.247563
-0.276074
-0.240486
-0.0890167
0.197942
0.287601
0.145093
-0.968963
-0.950067
-0.926745
-0.895568
-0.848207
-0.775216
-0.697101
-0.622154
-0.533567
-0.458498
-0.411363
-0.384025
-0.361605
-0.364023
-0.3349
-0.171824
0.158168
0.250657
0.0944015
-0.921717
-0.893438
-0.862091
-0.82942
-0.792055
-0.752345
-0.714131
-0.669882
-0.571098
-0.441484
-0.318288
-0.251225
-0.216623
-0.215098
-0.236669
-0.0452813
0.235421
0.257562
0.0679991
-0.984077
-0.966165
-0.92942
-0.895498
-0.881022
-0.873458
-0.856889
-0.843153
-0.812043
-0.721586
-0.592182
-0.313482
-0.113231
0.0274501
0.0878277
0.17307
0.332472
0.282885
0.0484946
-0.993941
-0.978048
-0.956607
-0.9477
-0.948586
-0.946105
-0.936557
-0.928484
-0.924476
-0.889598
-0.842508
-0.700333
-0.518105
-0.240631
-0.0901586
-0.0197352
0.249732
0.260158
0.0304092
-0.995562
-0.986305
-0.978585
-0.977126
-0.978939
-0.976083
-0.969113
-0.95869
-0.951206
-0.93336
-0.909159
-0.843667
-0.733443
-0.614637
-0.467095
-0.328109
0.0162472
0.156155
-0.00436616
-0.999151
-0.996493
-0.993089
-0.991458
-0.990822
-0.989411
-0.984685
-0.980024
-0.977593
-0.971733
-0.954882
-0.913831
-0.860821
-0.801855
-0.658524
-0.516442
-0.22076
-0.060061
-0.0571687
-0.999982
-0.999555
-0.99882
-0.997501
-0.99584
-0.995232
-0.99223
-0.990228
-0.989985
-0.987023
-0.974843
-0.947693
-0.921353
-0.863026
-0.743443
-0.620086
-0.410721
-0.24633
-0.121817
-1.00003
-1
-0.999914
-0.999582
-0.998493
-0.998467
-0.997644
-0.996503
-0.996728
-0.995419
-0.987828
-0.975287
-0.960506
-0.927654
-0.848351
-0.74387
-0.545176
-0.355912
-0.19023
-1.00001
-1.00001
-1.00001
-0.999961
-0.999622
-0.99957
-0.999461
-0.999093
-0.998957
-0.997739
-0.993705
-0.986529
-0.975355
-0.953339
-0.911766
-0.831402
-0.63442
-0.416636
-0.263159
-1
-1
-1.00001
-1
-0.999945
-0.999923
-0.999895
-0.999837
-0.999737
-0.998884
-0.996318
-0.993336
-0.986376
-0.973403
-0.950661
-0.886879
-0.704519
-0.457798
-0.330056
-1
-1
-1
-1
-1
-0.999994
-0.999988
-0.999985
-0.999951
-0.999527
-0.997732
-0.995928
-0.990847
-0.981573
-0.967425
-0.923045
-0.770145
-0.513713
-0.388889
-1
-1
-1
-1
-1
-1
-1
-1
-1
-0.999859
-0.999046
-0.997346
-0.992765
-0.98494
-0.9734
-0.939533
-0.816884
-0.570014
-0.438375
-1
-1
-1
-1
-1
-1
-0.999998
-0.999999
-1
-0.99995
-0.999632
-0.999138
-0.995828
-0.988124
-0.977884
-0.950476
-0.850997
-0.62147
-0.481498
-1
-1
-1
-1
-1
-0.999999
-0.999997
-0.999993
-0.999993
-0.999977
-0.999879
-0.999479
-0.996704
-0.99105
-0.983185
-0.959167
-0.872068
-0.660768
-0.520145
-1
-1
-1
-1
-1
-1
-0.999997
-0.999991
-0.999986
-0.999982
-0.999916
-0.999197
-0.995905
-0.992775
-0.98698
-0.966188
-0.889309
-0.697517
-0.555899
-1
-1
-1
-1
-1
-1
-0.999999
-0.999994
-0.999985
-0.999978
-0.999938
-0.999576
-0.998297
-0.995625
-0.989541
-0.971885
-0.90795
-0.735926
-0.588119
-1
-1
-1
-1
-1
-1
-1
-0.999995
-0.999982
-0.999973
-0.999942
-0.999738
-0.998876
-0.99657
-0.991026
-0.975829
-0.925329
-0.774184
-0.615679
-1
-1
-1
-1
-1
-1
-1
-1
-0.999986
-0.999968
-0.999929
-0.999725
-0.999017
-0.996997
-0.99128
-0.977018
-0.936944
-0.806234
-0.642501
-1
-1
-1
-1
-1
-1.00001
-1.00001
-1
-0.999988
-0.999963
-0.999885
-0.999515
-0.99865
-0.997115
-0.991845
-0.977699
-0.941484
-0.826065
-0.666765
-1
-1
-1
-1
-1
-1.00001
-1
-0.999996
-0.999979
-0.999939
-0.999828
-0.999521
-0.998916
-0.997043
-0.990031
-0.975961
-0.942953
-0.836498
-0.690193
-1
-1
-1
-1
-1
-1.00001
-1
-1
-0.999984
-0.999944
-0.999848
-0.999629
-0.999098
-0.996992
-0.990097
-0.975479
-0.940935
-0.841773
-0.706291
-1
-1
-1
-1
-1
-1.00001
-1.00001
-1
-0.999992
-0.99995
-0.999858
-0.999719
-0.999351
-0.997501
-0.990294
-0.973673
-0.937635
-0.854616
-0.72504
-1
-1
-1
-1
-1
-1.00001
-1.00001
-1
-0.999992
-0.999957
-0.999883
-0.999751
-0.999321
-0.99735
-0.990586
-0.975459
-0.943982
-0.873442
-0.739135
-1
-1
-1
-1.00001
-1.00001
-1.00001
-1.00001
-1.00001
-0.999999
-0.999977
-0.999916
-0.999779
-0.9993
-0.997391
-0.991245
-0.980614
-0.958723
-0.895855
-0.756969
-1
-1
-1.00001
-1.00001
-1.00001
-1.00001
-1.00001
-1
-1
-0.999988
-0.999957
-0.999869
-0.999425
-0.997315
-0.991004
-0.982106
-0.96334
-0.906125
-0.770597
-1
-1.00001
-1.00001
-1.00001
-1.00001
-1.00001
-1.00001
-1
-0.999998
-0.99999
-0.999971
-0.999897
-0.999553
-0.998169
-0.994114
-0.986008
-0.965605
-0.906891
-0.791426
-1.00001
-1.00001
-1.00001
-1.00001
-1
-1
-1
-0.999997
-0.999992
-0.999985
-0.99997
-0.999914
-0.999614
-0.998404
-0.995164
-0.986683
-0.95743
-0.865504
-0.788519
-1.00001
-1.00001
-1
-0.999995
-0.999982
-0.999981
-0.999981
-0.999982
-0.999982
-0.999975
-0.999963
-0.999923
-0.999705
-0.998922
-0.996912
-0.989806
-0.964518
-0.889699
-0.800879
-1.00001
-1.00001
-0.999995
-0.999964
-0.999944
-0.999929
-0.999933
-0.999948
-0.999959
-0.999953
-0.999944
-0.99992
-0.999815
-0.999385
-0.998039
-0.992818
-0.97653
-0.92382
-0.82247
-1.00001
-1.00001
-0.999981
-0.999928
-0.999882
-0.99984
-0.999842
-0.999876
-0.999914
-0.99991
-0.999896
-0.999885
-0.999805
-0.999611
-0.999153
-0.996191
-0.985358
-0.947132
-0.847124
-1.00001
-1
-0.999964
-0.999905
-0.999834
-0.999772
-0.999753
-0.999796
-0.999861
-0.999841
-0.999814
-0.999802
-0.999765
-0.999673
-0.999462
-0.998557
-0.995144
-0.977912
-0.889964
-1.00001
-1
-0.999952
-0.99989
-0.999813
-0.999743
-0.999685
-0.999705
-0.999761
-0.999738
-0.999705
-0.999674
-0.999666
-0.999633
-0.999593
-0.999544
-0.999213
-0.996798
-0.954522
)
;

boundaryField
{
    leftWall
    {
        type            zeroGradient;
    }
    rightWall
    {
        type            zeroGradient;
    }
    lowerWall
    {
        type            zeroGradient;
    }
    atmosphere
    {
        type            zeroGradient;
    }
    defaultFaces
    {
        type            empty;
    }
}


// ************************************************************************* //
