/*--------------------------------*- C++ -*----------------------------------*\
| =========                 |                                                 |
| \\      /  F ield         | foam-extend: Open Source CFD                    |
|  \\    /   O peration     | Version:     4.1                                |
|   \\  /    A nd           | Web:         http://www.foam-extend.org         |
|    \\/     M anipulation  |                                                 |
\*---------------------------------------------------------------------------*/
FoamFile
{
    version     2.0;
    format      ascii;
    class       volScalarField;
    location    "0.5";
    object      p;
}
// * * * * * * * * * * * * * * * * * * * * * * * * * * * * * * * * * * * * * //

dimensions      [1 -1 -2 0 0 0 0];

internalField   nonuniform List<scalar> 
2268
(
560.14
560.631
560.317
557.222
561.095
559.409
569.922
578.316
599.509
619.788
664.342
685.602
705.686
728.122
758.347
779.323
812.681
821.629
858.441
873.685
904.054
904.065
929.153
500.965
501.453
501.065
497.938
501.638
500.072
510.111
518.293
540.469
561.519
610.639
619.81
647.243
668.95
699.301
719.667
755.664
758.996
799.032
812.236
849.256
846.462
870.437
441.533
442.045
441.444
438.458
441.704
439.929
450.556
458.512
478.27
499.07
547.145
559.695
587.772
608.753
639.454
659.42
696.475
704.379
742.419
756.812
787.723
788.202
817.327
381.87
382.332
381.419
378.536
381.386
379.447
388.622
395.127
417.641
452.383
478.249
498.863
528.407
551.05
581.899
601.838
634.86
651.078
684.418
695.139
731.87
736.543
759.984
322.444
322.873
321.382
319.03
320.393
318.208
329.214
336.892
353.909
390.912
413.596
437.232
467.409
490.65
522.031
545.134
577.25
596.189
625.068
638.69
668.204
676.062
704.293
263.299
263.471
261.514
259.466
260.206
258.478
263.774
273.165
304.846
322.491
350.879
376.011
407.952
433.259
465.057
488.749
520.164
538.367
570.768
578.642
619.364
623.629
652.168
206.039
206.224
203.451
201.932
201.733
197.363
211.833
211.799
242.694
260.363
288.125
314.916
345.448
371.779
407.863
432.185
462.957
485.501
513.952
529.537
548.798
573.696
599.034
151.707
151.463
148.806
146.43
145.201
145.508
147.942
164.137
180.579
200.976
228.606
256.073
289.094
320.222
350.965
377.136
410.662
426.67
463.211
469.448
504.63
524.001
552.072
640.819
536.922
455.269
456.685
480.936
518.563
514.952
493.412
474.159
472.908
443.938
422.638
404.769
483.069
317.183
360.843
553.084
768.955
1181.57
609.151
456.817
417.53
443.322
470.661
518.451
504.068
484.894
462.417
453.958
437.49
440.165
310.446
425.056
325.108
372.515
425.95
676.449
1101.72
560.545
424.85
424.919
435.558
477.681
512.499
512.406
489.638
451.593
432.238
406.16
364.511
330.196
375.831
354.876
419.86
415.01
611.57
996.302
537.099
406.024
415.857
433.109
474.337
512.931
508.588
476.422
440.204
416.304
380.308
331.442
337.747
361.493
352.447
413.12
368.026
509.004
851.241
517.981
410.449
421.025
432.103
460.435
488.251
506.393
452.488
429.672
400.41
368.887
343.346
335.556
351.25
358.901
366.389
354.105
434.149
678.061
520.452
415.364
425.109
435.034
467.525
452.133
457.556
425.227
415.238
389.059
360.173
337.763
338.475
347.683
357.797
354.696
340.097
376.066
541.997
549.527
428.097
425.747
428.23
437.579
466.323
419.686
367.99
404.922
381.797
351.799
337.231
337.328
345.008
355.878
340.532
331.066
345.057
398.888
572.095
435.917
428.087
433.95
453.204
501.868
381.82
359.821
397.198
374.041
337.843
331.917
333.949
340.971
353.24
341.114
330.963
327.136
368.344
85.1318
85.4797
82.506
83.0264
81.6224
71.6719
90.5549
88.5228
104.602
120.855
145.329
170.832
196.158
234.309
257.97
294.704
318.772
343.977
372.46
403.107
424.191
457.966
465.264
25.8752
25.7229
25.2798
23.6477
26.2307
23.4236
26.2793
30.1097
36.1739
46.4353
62.0205
79.1644
107.303
131.117
162.335
186.195
215.601
236.252
271.973
288.605
318.375
357.146
388.041
7.84535
7.74993
7.82614
7.5421
8.24873
8.22035
9.59862
12.538
14.5288
18.0267
25.6543
31.4595
46.4922
60.551
75.4476
99.9007
120.014
145.419
165.971
193.052
216.835
254.247
281.103
2.97523
3.00345
3.04895
3.06821
3.33238
3.38063
4.00431
5.74862
6.40035
7.4981
10.3017
10.1391
17.4337
24.4208
32.0794
43.1234
53.3802
67.8718
79.1893
103.344
121.999
147.63
164.11
1.46871
1.47465
1.50516
1.55861
1.68434
1.95439
2.19813
2.72466
3.31993
3.81933
4.91718
6.94035
4.83758
13.7346
7.77614
16.8122
17.712
26.2783
29.1657
35.3099
47.7171
67.0586
77.0811
0.884556
0.88655
0.89548
0.909067
1.0001
1.04112
1.31989
1.46839
1.78879
1.58313
2.55647
2.99823
0.868488
6.10901
4.00099
4.81382
4.87704
5.6351
5.59435
7.79255
11.9004
15.593
16.6295
0.590479
0.595261
0.639399
0.642447
0.684319
0.723497
0.782111
0.862884
0.941657
1.05965
1.28532
1.44444
1.72767
0.785046
1.83029
1.68485
1.42239
1.78507
1.88599
2.89904
2.74522
3.86093
6.86908
0.410103
0.408424
0.416849
0.490974
0.509462
0.493218
0.521109
0.549846
0.608539
0.698718
0.575656
0.804383
0.578957
1.10181
0.712171
0.827213
0.879935
1.03413
1.27181
1.4684
2.10068
2.91014
3.39335
0.255946
0.248153
0.258567
0.323197
0.273797
0.340619
0.30184
0.370966
0.338301
0.376606
0.384884
0.551755
0.523766
0.454986
0.506189
0.530298
0.60286
0.769195
0.947742
1.25122
1.66654
2.20818
2.70592
0.0881473
0.101286
0.102083
0.138555
0.139413
0.193087
0.168936
0.216671
0.247417
0.276168
0.315404
0.440637
0.504081
0.438713
0.424826
0.303415
0.35004
0.537376
0.689822
0.933203
1.50316
2.01285
2.42103
-0.0810079
-0.0664251
-0.0711646
-0.0458977
-0.0413602
-0.0269503
-0.0166603
0.0493322
0.109163
0.0885007
0.196641
0.193025
0.521844
0.360085
0.214274
0.0495057
0.155174
0.378733
0.60503
0.778054
1.1561
1.5428
1.64089
-0.25331
-0.248217
-0.249943
-0.228696
-0.225493
-0.191831
-0.215467
-0.0977631
-0.151645
-0.073995
0.121975
0.223293
0.581377
0.843885
0.284332
-0.787035
-1.27256
-0.47587
-3.16533
-2.88862
-0.511619
-0.229815
-0.729972
-0.442897
-0.431486
-0.438696
-0.42215
-0.422571
-0.433245
-0.407586
-0.458027
-0.317024
-0.345054
-0.160419
-0.217127
-0.038546
-0.145203
-0.635502
-1.95648
-3.05347
-3.73503
-4.96607
-3.27265
-2.23598
-1.89184
-1.89449
-0.620305
-0.625222
-0.616176
-0.62221
-0.619776
-0.588406
-0.649041
-0.623339
-0.628813
-0.536
-0.632314
-0.534595
-0.732024
-0.792267
-1.46003
-2.16532
-2.8418
-3.14449
-3.3365
-2.97924
-2.54346
-2.26682
-2.07733
-0.821885
-0.813785
-0.789086
-0.815851
-0.786868
-0.837317
-0.804189
-0.771474
-0.807847
-0.834156
-0.820167
-0.856802
-0.962514
-1.12098
-1.47707
-2.00276
-2.40612
-2.62886
-2.77162
-2.64063
-2.46516
-2.2421
-2.18108
-0.978703
-1.02231
-1.03162
-0.984289
-1.03544
-0.983538
-1.09812
-0.984669
-1.06533
-1.06767
-1.11798
-1.07187
-1.25317
-1.34858
-1.71537
-2.03223
-2.30518
-2.49982
-2.57421
-2.56583
-2.47671
-2.4542
-2.3561
-1.26164
-1.19979
-1.21366
-1.23447
-1.21741
-1.26278
-1.28127
-1.32092
-1.2794
-1.37073
-1.33214
-1.55514
-1.49116
-1.77072
-1.96231
-2.17311
-2.33578
-2.50683
-2.5322
-2.57107
-2.58373
-2.5243
-2.54717
-1.40411
-1.41219
-1.3677
-1.42422
-1.41403
-1.41438
-1.46345
-1.46814
-1.55447
-1.58715
-1.61499
-1.66789
-1.75861
-1.98053
-2.10236
-2.26644
-2.37078
-2.50185
-2.52205
-2.63496
-2.65275
-2.71684
-2.67075
-1.60909
-1.63108
-1.61444
-1.66029
-1.62607
-1.64631
-1.68027
-1.64562
-1.77388
-1.77286
-1.76327
-1.88383
-1.91078
-2.07435
-2.23382
-2.38197
-2.51031
-2.58585
-2.66511
-2.70566
-2.75726
-2.79733
-2.7804
-1.7919
-1.78123
-1.79621
-1.80054
-1.81059
-1.80761
-1.86476
-1.97173
-1.95893
-2.04401
-2.13266
-2.05909
-2.20806
-2.31513
-2.45848
-2.51479
-2.59699
-2.68777
-2.74306
-2.81413
-2.86334
-2.87552
-3.00748
-1.95093
-2.0024
-2.03203
-1.97813
-2.0234
-2.04508
-2.05391
-2.04203
-2.12988
-2.17385
-2.23809
-2.38962
-2.42774
-2.48334
-2.55094
-2.6556
-2.7272
-2.80533
-2.82897
-2.95641
-2.96145
-2.99109
-3.05349
-2.2249
-2.15076
-2.18067
-2.19678
-2.19109
-2.2338
-2.19887
-2.29159
-2.29882
-2.37616
-2.39692
-2.45098
-2.60019
-2.62335
-2.71439
-2.78894
-2.84265
-2.92187
-2.97108
-3.03403
-3.07592
-3.13318
-3.18064
-2.35688
-2.38125
-2.38473
-2.41904
-2.41264
-2.44566
-2.46071
-2.52456
-2.55872
-2.56686
-2.60296
-2.70728
-2.71389
-2.76332
-2.83072
-2.91506
-3.01434
-3.05733
-3.12846
-3.14222
-3.20384
-3.23522
-3.25757
-2.49847
-2.53361
-2.51822
-2.55381
-2.55917
-2.60362
-2.60428
-2.64999
-2.69737
-2.73904
-2.79436
-2.83849
-2.85242
-2.99227
-3.00468
-3.02912
-3.17656
-3.16129
-3.22668
-3.27715
-3.31272
-3.36878
-3.37711
-2.76304
-2.75522
-2.76325
-2.74809
-2.79457
-2.81229
-2.83208
-2.83725
-2.87924
-2.86968
-2.93653
-2.94047
-3.00518
-3.12963
-3.12919
-3.13979
-3.28034
-3.34379
-3.33217
-3.36216
-3.45632
-3.48253
-3.53972
-2.92621
-2.92938
-2.9302
-2.94567
-2.92023
-2.97456
-2.98359
-3.02234
-3.01818
-3.09429
-3.12023
-3.17539
-3.19479
-3.24529
-3.25681
-3.33352
-3.40448
-3.45263
-3.47392
-3.52793
-3.56295
-3.60784
-3.64338
-3.12759
-3.1299
-3.13623
-3.14546
-3.16206
-3.17496
-3.19128
-3.21163
-3.23848
-3.26045
-3.28325
-3.32068
-3.33854
-3.40452
-3.41596
-3.50497
-3.52812
-3.63105
-3.5864
-3.6114
-3.70166
-3.73124
-3.78704
-3.30577
-3.30547
-3.31307
-3.3195
-3.33738
-3.34517
-3.3611
-3.38085
-3.3961
-3.42671
-3.43944
-3.48264
-3.46724
-3.55837
-3.53753
-3.6619
-3.61829
-3.77064
-3.70843
-3.78172
-3.77278
-3.8893
-3.90568
-3.4924
-3.49573
-3.49933
-3.50722
-3.51316
-3.52759
-3.53988
-3.55832
-3.57344
-3.59764
-3.61357
-3.64683
-3.67044
-3.70324
-3.72842
-3.78631
-3.76703
-3.91149
-3.83613
-3.91756
-3.88296
-3.97634
-4.05157
-3.66782
-3.66983
-3.67414
-3.6803
-3.68892
-3.69913
-3.71032
-3.72569
-3.73867
-3.7593
-3.7725
-3.80031
-3.81968
-3.84456
-3.88557
-3.90433
-3.98867
-3.97156
-4.00417
-4.08594
-4.02094
-4.02673
-4.17507
-3.84363
-3.84544
-3.84926
-3.85497
-3.86177
-3.87159
-3.88097
-3.89465
-3.90628
-3.92363
-3.9361
-3.95616
-3.97783
-3.98119
-4.03939
-4.07144
-4.11512
-4.11403
-4.1337
-4.19545
-4.18064
-4.22871
-4.3174
-4.01454
-4.01619
-4.01939
-4.02435
-4.03033
-4.03858
-4.04699
-4.05856
-4.06889
-4.08398
-4.09501
-4.11451
-4.13119
-4.1416
-4.18026
-4.23147
-4.23775
-4.22965
-4.33555
-4.34151
-4.31842
-4.29689
-4.44123
-4.18519
-4.18668
-4.1894
-4.19359
-4.19859
-4.2057
-4.21295
-4.22296
-4.23178
-4.24523
-4.25386
-4.27411
-4.2858
-4.30809
-4.33521
-4.3571
-4.33998
-4.46124
-4.4183
-4.41861
-4.53002
-4.43829
-4.53254
-4.35079
-4.3517
-4.3539
-4.35753
-4.36184
-4.36775
-4.37429
-4.38282
-4.39117
-4.40297
-4.41129
-4.43509
-4.43924
-4.47061
-4.50782
-4.50129
-4.55735
-4.5275
-4.58583
-4.52578
-4.70557
-4.6062
-4.63606
-4.51797
-4.51922
-4.52089
-4.52385
-4.52758
-4.53251
-4.53802
-4.5449
-4.55087
-4.56084
-4.56573
-4.5701
-4.58309
-4.61187
-4.64656
-4.62006
-4.67002
-4.64714
-4.75384
-4.64963
-4.76985
-4.76312
-4.76708
-4.67822
-4.68134
-4.68357
-4.68613
-4.68961
-4.69296
-4.69825
-4.70163
-4.70823
-4.71226
-4.71843
-4.7215
-4.73754
-4.77007
-4.76475
-4.78541
-4.79008
-4.83149
-4.84301
-4.89788
-4.86375
-4.93218
-4.90048
-4.84922
-4.84832
-4.84914
-4.85023
-4.85179
-4.8532
-4.85699
-4.85726
-4.86426
-4.8646
-4.86821
-4.86871
-4.89914
-4.90206
-4.91597
-4.89964
-4.95719
-4.93929
-5.00595
-4.98746
-4.9539
-5.08183
-4.97984
-5.00844
-5.00928
-5.00995
-5.00985
-5.00927
-5.00918
-5.01378
-5.01365
-5.02063
-5.01403
-5.02345
-5.02167
-5.05728
-5.01689
-5.0859
-5.05977
-5.09049
-5.09353
-5.12138
-5.12235
-5.14776
-5.21268
-5.10846
-5.16954
-5.16701
-5.16719
-5.16734
-5.17285
-5.1722
-5.17627
-5.1721
-5.17924
-5.16992
-5.18471
-5.17889
-5.20994
-5.17884
-5.23131
-5.19427
-5.2274
-5.22629
-5.24198
-5.23595
-5.28106
-5.3378
-5.2738
-5.32647
-5.32807
-5.32961
-5.33101
-5.33263
-5.33307
-5.33511
-5.33392
-5.33801
-5.335
-5.34375
-5.33932
-5.35615
-5.33868
-5.3723
-5.36944
-5.38023
-5.37026
-5.40832
-5.40607
-5.39255
-5.46775
-5.45849
-5.48093
-5.48243
-5.48447
-5.4852
-5.4877
-5.48746
-5.4905
-5.48906
-5.4936
-5.49102
-5.49804
-5.49235
-5.50578
-5.48935
-5.51242
-5.49758
-5.49846
-5.50175
-5.51681
-5.52983
-5.5436
-5.56143
-5.56356
-5.66715
-5.66637
-5.66552
-5.66548
-5.66429
-5.66464
-5.66359
-5.66409
-5.66285
-5.66397
-5.6626
-5.66482
-5.66223
-5.66568
-5.65506
-5.66221
-5.67189
-5.66301
-5.69241
-5.68059
-5.6947
-5.76049
-5.72624
500.972
490.8
544.859
513.606
415.918
427.292
463.736
446.809
303.358
279.755
347.903
329.765
187.093
198.295
212.36
223.286
99.6094
100.165
108.332
107.915
26.7614
26.9386
35.8295
36.4988
8.37784
8.97115
11.2012
13.3859
4.68449
4.52562
4.93539
5.73498
3.42422
2.68432
2.94814
5.55181
2.56188
2.33464
2.75077
4.30623
1.81255
2.17883
2.65459
3.25272
-0.45929
-0.530514
0.501535
0.960058
-2.02262
-1.6407
-1.3334
-1.45207
-1.99381
-1.86758
-1.78561
-1.71574
-2.21813
-2.07617
-2.00042
-2.06037
-2.34709
-2.32463
-2.3555
-2.44023
-2.54054
-2.57313
-2.60919
-2.6802
-2.70455
-2.73781
-2.74908
-2.80283
-2.78886
-2.83565
-2.89036
-2.90403
-2.98499
-3.01056
-3.00683
-3.03051
-3.07953
-3.12125
-3.21934
-3.2664
-3.2197
-3.25584
-3.22862
-3.30667
-3.37144
-3.3831
-3.45944
-3.50576
-3.46225
-3.49883
-3.51312
-3.52898
-3.60049
-3.62212
-3.6525
-3.68188
-3.68335
-3.70137
-3.72645
-3.7489
-3.82922
-3.86156
-3.88276
-3.90414
-3.93816
-3.95724
-3.97534
-3.99517
-4.06103
-4.08921
-4.10137
-4.13115
-4.19373
-4.22475
-4.26478
-4.34074
-4.30206
-4.32807
-4.33155
-4.3541
-4.45225
-4.47025
-4.53377
-4.43583
-4.54173
-4.54383
-4.54884
-4.66067
-4.66377
-4.64028
-4.74736
-4.7167
-4.8303
-4.85526
-4.87846
-4.9619
-5.00912
-4.94923
-4.96574
-5.017
-5.09663
-5.09391
-5.02919
-5.02219
-5.2283
-5.22852
-5.25564
-5.21188
-5.35602
-5.35031
-5.41279
-5.35646
-5.44362
-5.5215
-5.50248
-5.56058
-5.56271
-5.61513
-5.65052
-5.67516
-5.78031
-5.80381
-5.77536
-5.79524
581.619
433.743
428.53
434.849
430.218
459.26
376.163
350.46
367.636
338.801
319.518
332.132
337.893
340.839
344.681
336.396
338.528
333.256
476.73
501.529
385.523
370.935
397.377
392.927
391.291
343.89
322.351
299.871
300.462
308.422
336.682
333.891
340.185
339.647
340.485
353.813
367.063
513.672
345.939
346.837
236.928
205.45
318.819
356.58
323.461
309.559
295.311
311.335
325.578
330.934
331.737
333.11
332.037
327.797
318.325
276.481
161.645
251.165
252.352
276.734
146.203
250.064
265.2
225.614
298.127
303.07
316.06
317.725
320.778
325.245
326.065
324.309
321.852
315.466
257.42
262.177
156.004
58.3982
163.836
95.3128
200.594
185.829
203.274
261.997
299.717
314.321
317.442
319.028
320.303
316.823
313.114
316.426
305.524
433.842
524.952
63.8391
45.3651
70.4651
50.2956
91.9238
120.568
131.796
188.8
256.657
295.722
312.135
315.462
315.911
314.829
315.501
307.751
321.103
347.909
534.608
19.7554
23.662
24.1194
28.8675
46.6432
72.041
91.54
115.927
168.887
253.3
281.18
305.103
311.506
311.442
311.644
302.301
344.332
402.845
391.314
5.93635
15.5816
16.1576
24.1485
30.3976
46.5552
58.0918
66.1168
104.464
149.719
259.435
256.028
279.614
291.448
274.183
306.622
311.221
436.359
391.045
6.0122
9.95855
11.4658
6.80752
23.6244
45.9144
52.0836
53.1522
71.2761
100.965
193.027
265.162
240.07
320.237
278.686
315.204
350.986
387.177
395.895
6.66009
1.25722
3.0461
24.7907
18.917
35.0826
43.1099
22.8814
41.5148
66.2162
118.403
208.886
254.163
254.897
294.303
316.791
306.126
359.281
371.479
5.24723
6.95313
-6.27695
9.67958
17.2537
22.5945
11.5567
16.5972
91.7176
70.3488
138.759
160.946
212.98
261.724
283.7
289.249
278.224
322.969
314.538
0.361242
1.63368
-2.9371
8.5903
18.8631
10.8659
-0.876013
-3.68878
28.1308
87.0857
106.747
83.3171
161.988
251.041
244.321
263.857
255.618
273.342
273.09
-0.465048
-2.57495
-7.02086
19.0811
17.4755
-6.35418
-9.21705
12.0716
23.2301
30.3686
-21.2865
102.21
125.698
195.016
202.418
221.232
209.023
221.208
224.203
-1.40133
-1.13516
-2.973
-3.73881
2.37479
2.47191
-10.3049
-4.18856
12.8067
18.2107
-0.562354
38.4108
60.0684
129.944
123.611
163.197
140.299
170.137
179.149
-2.20237
-2.04449
-1.6587
-1.96402
-2.08054
-0.415159
-4.2219
-1.49125
5.10641
4.80692
3.52133
-5.99132
37.782
84.623
79.6751
102.666
106.057
129.439
140.616
-2.60289
-3.02842
-3.96263
-3.50141
-1.96954
-2.57163
-3.00512
-2.38043
-0.145898
-0.611803
-0.231746
14.25
31.7091
20.1951
38.2571
71.0082
73.39
101.62
112.807
-2.81556
-3.03407
-3.15101
-3.17582
-2.84507
-3.17518
-2.75662
-3.34832
-2.65178
-2.05834
-4.62673
4.57996
8.64761
15.4816
54.3256
50.387
102.743
71.2307
79.6531
-2.92133
-3.15689
-3.2009
-3.14019
-3.32661
-3.51065
-3.59204
-3.41968
-3.192
-3.02806
-2.12145
-0.541345
5.46394
1.71404
5.99718
13.6865
42.0509
43.8735
43.6455
-3.00152
-3.17509
-3.28947
-3.20001
-3.33829
-3.45165
-3.24497
-3.34126
-3.14112
-2.97253
-3.05616
-1.59793
-1.80703
4.95008
10.947
12.7629
21.165
23.9243
33.5797
-3.26922
-3.30461
-3.2402
-3.26147
-3.51357
-3.451
-3.48318
-3.49148
-3.35857
-3.42656
-3.13739
-2.22109
-3.00134
-0.111965
1.77845
2.13029
10.1748
11.6121
23.1743
-3.28038
-3.39523
-3.39695
-3.44618
-3.41881
-3.55733
-3.61439
-3.55479
-3.48303
-3.48109
-3.56265
-3.11844
-3.78531
-3.88941
-1.12577
3.45943
8.92394
11.6525
21.5024
-3.44018
-3.39759
-3.37524
-3.3759
-3.55351
-3.60917
-3.61198
-3.64822
-3.59075
-3.61627
-3.64072
-3.76155
-3.1206
-1.09682
0.670248
0.802355
5.23712
4.66754
15.837
-3.52257
-3.46606
-3.55213
-3.60839
-3.59319
-3.74791
-3.73461
-3.74252
-3.71722
-3.70952
-3.94813
-3.99012
-4.04377
-2.87508
-1.98345
-1.58432
-1.80555
4.01508
12.3425
-3.57107
-3.64163
-3.58326
-3.69245
-3.72076
-3.80266
-3.80834
-3.75828
-3.72311
-3.94229
-3.97017
-3.82357
-4.18247
-5.13619
-3.36958
-1.7842
-2.25579
3.06446
8.20536
-3.76373
-3.68122
-3.82739
-3.73133
-3.82286
-3.927
-3.95937
-3.90105
-3.8629
-4.13262
-4.04248
-3.91736
-4.1282
-4.09047
-3.78438
-1.45576
-0.790148
0.354967
6.56684
-3.79948
-3.81429
-3.88459
-3.88782
-3.9194
-3.98025
-3.99334
-4.00521
-4.03646
-4.01188
-4.21714
-4.12104
-4.43271
-4.46433
-3.72132
-0.403986
-1.86574
-1.6401
4.35498
-3.91288
-3.98393
-3.97152
-3.94598
-4.03859
-4.10998
-4.07082
-4.11438
-4.12544
-4.2493
-4.16423
-4.20001
-4.10491
-4.6012
-4.60002
-7.32925
-2.24169
-2.12741
1.6375
-4.06011
-4.01516
-4.02333
-4.04321
-4.18299
-4.27783
-4.12418
-4.26781
-4.18733
-4.40742
-4.26306
-4.31074
-4.25397
-4.24931
-3.93283
-4.12759
-3.25172
-1.65309
0.870086
-4.09503
-4.23561
-4.14143
-4.207
-4.25503
-4.25001
-4.27499
-4.35082
-4.36
-4.32314
-4.36581
-4.53839
-4.30949
-4.68363
-5.50204
-5.42731
-4.29945
-1.82532
-0.265687
-4.138
-4.26398
-4.27135
-4.28897
-4.3589
-4.42427
-4.37829
-4.54432
-4.5043
-4.39414
-4.62469
-4.44468
-4.58886
-4.16941
-4.53361
-1.11446
-0.108749
-1.62493
-2.01693
-4.359
-4.39406
-4.47839
-4.3606
-4.47846
-4.42318
-4.57956
-4.75253
-4.54987
-4.58859
-4.66434
-4.5919
-4.61883
-4.52443
-4.89993
-4.36727
-9.38608
-1.6147
-3.75224
-4.45864
-4.48183
-4.53249
-4.51689
-4.60137
-4.62282
-4.7477
-4.61675
-4.6554
-4.6725
-4.7709
-4.8178
-4.69488
-4.97048
-4.59672
-4.42128
-5.19374
-4.79676
-1.6831
-4.64347
-4.55036
-4.63959
-4.69857
-4.73181
-4.7496
-4.81587
-4.65845
-4.92413
-4.86427
-4.93849
-4.72052
-4.8948
-5.17721
-5.35237
-4.00771
-1.91307
-4.70292
-4.43289
-4.74745
-4.69162
-4.74662
-4.66691
-4.93865
-4.92677
-5.07155
-4.85208
-5.02266
-5.02527
-4.91801
-4.90798
-5.05042
-5.3741
-5.36833
-5.33195
-5.39711
-3.42776
-4.53874
-4.82953
-4.845
-4.79893
-5.07844
-4.85641
-5.15566
-5.30153
-4.82076
-5.05505
-5.0304
-5.13913
-5.36705
-5.39014
-5.41947
-5.71188
-5.87097
-7.66437
-9.65933
-7.45261
-4.91156
-5.06524
-4.92735
-4.93183
-5.21108
-5.25233
-5.4061
-5.05669
-5.16956
-5.45663
-5.54001
-5.46445
-5.44132
-5.59979
-5.85244
-5.09071
-4.75374
-6.5542
-6.86867
-5.20805
-5.26578
-5.13101
-5.15727
-5.34445
-5.31972
-5.36415
-5.31472
-5.2413
-5.96557
-6.03753
-5.53328
-5.67884
-6.12584
-6.04841
-5.20325
-5.60947
-6.22552
-12.4768
-5.29283
-5.20749
-5.41638
-5.28781
-5.44318
-5.69365
-5.57481
-5.58698
-5.67694
-6.21532
-6.13055
-5.59883
-5.83033
-5.96071
-6.23754
-5.47398
-6.33741
-4.36013
-6.68801
-5.34233
-5.39669
-5.56064
-5.44424
-5.53408
-6.10517
-5.61199
-5.67545
-6.03375
-6.4457
-6.54284
-6.03293
-6.40158
-6.22878
-6.58153
-6.42851
-7.20267
-5.19646
-7.39576
-5.55693
-5.67226
-5.92358
-6.11314
-6.0986
-6.0989
-6.14489
-6.30612
-6.2617
-6.41361
-6.34073
-5.91292
-6.14803
-6.24886
-6.62789
-6.2488
-7.08551
-5.3405
-8.46408
-5.71985
-5.77504
-6.11248
-6.22966
-6.44705
-6.32437
-6.3624
-6.47455
-6.32784
-6.40431
-6.3351
-6.23349
-6.39982
-6.49715
-6.89656
-7.0643
-7.12289
-12.6334
-22.9972
-5.85613
-6.19576
-6.0097
-6.18773
-6.37087
-6.67138
-6.67364
-6.60032
-6.42176
-6.59362
-6.36598
-6.61254
-6.4584
-6.60472
-6.91803
-6.93083
-7.84474
-15.9168
-44.9952
)
;

boundaryField
{
    leftWall
    {
        type            calculated;
        value           nonuniform List<scalar> 
50
(
560.14
500.965
441.533
381.87
322.444
263.299
206.039
151.707
85.1318
25.8752
7.84535
2.97523
1.46871
0.884556
0.590479
0.410103
0.255946
0.0881473
-0.0810079
-0.25331
-0.442897
-0.620305
-0.821885
-0.978703
-1.26164
-1.40411
-1.60909
-1.7919
-1.95093
-2.2249
-2.35688
-2.49847
-2.76304
-2.92621
-3.12759
-3.30577
-3.4924
-3.66782
-3.84363
-4.01454
-4.18519
-4.35079
-4.51797
-4.67822
-4.84922
-5.00844
-5.16954
-5.32647
-5.48093
-5.66715
)
;
    }
    rightWall
    {
        type            calculated;
        value           nonuniform List<scalar> 
50
(
1181.57
1101.72
996.302
851.241
678.061
541.997
398.888
368.344
476.73
513.672
161.645
262.177
524.952
534.608
391.314
391.045
395.895
371.479
314.538
273.09
224.203
179.149
140.616
112.807
79.6531
43.6455
33.5797
23.1743
21.5024
15.837
12.3425
8.20536
6.56684
4.35498
1.6375
0.870086
-0.265687
-2.01693
-3.75224
-1.6831
-4.43289
-4.53874
-7.45261
-6.86867
-12.4768
-6.68801
-7.39576
-8.46408
-22.9972
-44.9952
)
;
    }
    lowerWall
    {
        type            calculated;
        value           nonuniform List<scalar> 
62
(
589.569
590.06
589.746
586.651
590.524
588.838
599.352
607.745
628.938
649.218
693.762
715.016
735.103
757.547
787.777
808.752
842.11
851.058
887.87
903.114
933.483
933.495
958.582
929.153
870.437
817.327
759.984
704.293
652.168
599.034
552.072
563.569
553.397
601.243
553.176
640.819
609.151
560.545
537.099
517.981
520.452
549.527
572.095
643.377
539.87
458.492
460.439
485.209
523.356
520.119
499.011
480.446
480.313
452.375
431.709
414.213
492.771
327.058
371.209
563.645
779.7
1192.53
)
;
    }
    atmosphere
    {
        type            calculated;
        value           nonuniform List<scalar> 
46
(
-5.72904
-5.72905
-5.72907
-5.72906
-5.72914
-5.72909
-5.72932
-5.72919
-5.7297
-5.72949
-5.73049
-5.73013
-5.7317
-5.73042
-5.73205
-5.7317
-5.73351
-5.73496
-5.74929
-5.75112
-5.76347
-5.80085
-5.78336
-5.81569
-5.84366
-5.85319
-5.86253
-5.92574
-6.13553
-6.21126
-6.2691
-6.51894
-6.65524
-6.6267
-6.56918
-6.40531
-6.46677
-6.55587
-6.64603
-6.66805
-6.76292
-6.88453
-7.02232
-7.87226
-14.5553
-134.088
)
;
    }
    defaultFaces
    {
        type            empty;
    }
}


// ************************************************************************* //
