/*--------------------------------*- C++ -*----------------------------------*\
| =========                 |                                                 |
| \\      /  F ield         | foam-extend: Open Source CFD                    |
|  \\    /   O peration     | Version:     4.1                                |
|   \\  /    A nd           | Web:         http://www.foam-extend.org         |
|    \\/     M anipulation  |                                                 |
\*---------------------------------------------------------------------------*/
FoamFile
{
    version     2.0;
    format      ascii;
    class       volScalarField;
    location    "0.5";
    object      pd;
}
// * * * * * * * * * * * * * * * * * * * * * * * * * * * * * * * * * * * * * //

dimensions      [1 -1 -2 0 0 0 0];

internalField   nonuniform List<scalar> 
2268
(
589.569
590.06
589.746
586.651
590.524
588.838
599.352
607.745
628.938
649.218
693.762
715.016
735.103
757.547
787.777
808.752
842.11
851.058
887.87
903.114
933.483
933.495
958.582
589.253
589.742
589.353
586.227
589.926
588.36
598.399
606.581
628.757
649.761
698.798
707.97
735.432
757.184
787.575
807.955
843.952
847.284
887.321
900.524
937.544
934.75
958.725
588.666
589.155
588.481
585.554
588.791
587.076
597.702
605.659
625.255
645.669
693.661
706.297
734.522
755.658
786.474
806.515
843.615
851.525
889.566
903.959
934.87
935.349
964.474
587.246
587.64
586.515
583.827
586.639
584.922
594.271
600.571
622.251
656.367
682.312
703.32
733.299
756.333
787.45
807.584
840.735
857.006
890.381
901.144
937.876
942.548
965.989
584.441
584.7
582.699
580.858
582.077
580.417
591.633
598.458
613.664
650.249
673.63
698.461
729.624
753.711
785.651
809.208
841.648
860.742
889.728
903.465
933.069
940.926
969.157
577.573
577.399
574.352
573.405
573.66
572.87
578.253
585.169
614.545
632.912
663.788
691.827
725.814
752.871
785.788
810.475
842.632
861.219
893.898
902.04
942.981
947.352
975.891
562.049
561.641
556.717
557.122
555.555
552.148
566.335
561.219
591.42
612.921
647.457
680.617
715.426
745.426
783.793
810.202
842.583
865.987
895.095
911.252
930.926
956.144
981.576
526.554
525.423
518.874
518.906
514.587
513.54
515.506
525.912
546.126
577.695
620.761
661.587
703.908
742.822
778.385
808.825
845.696
863.501
901.501
908.901
944.841
964.843
993.513
643.377
539.87
458.492
460.439
485.209
523.356
520.119
499.011
480.446
480.313
452.375
431.709
414.213
492.771
327.058
371.209
563.645
779.7
1192.53
616.503
464.271
423.923
450.571
479.518
529.666
516.432
498.134
476.666
471.269
458.773
463.25
334.033
450.308
351.936
402.032
457.092
709.472
1136.72
571.963
434.19
430.96
442.647
488.645
526.178
527.289
505.669
468.069
452.478
432.708
392.808
357.443
406.115
391.49
462.265
461.103
666.006
1057.48
551.974
416.84
421.83
440.967
490.754
531.086
526.125
493.792
456.604
434.378
404.783
357.379
361.224
387.459
390.856
460.291
416.441
578.695
939.014
536.445
424.184
428.655
444.003
493.212
522.669
536.305
475.037
447.329
415.9
388.432
363.941
354.075
370.803
395.165
414.609
397.529
508.778
792.82
542.119
431.162
434.505
455.667
532.827
517.711
511.83
458.52
438.577
405.731
376.409
354.247
353.46
363.001
391.444
403.477
379.701
449.111
684.757
572.118
443.409
439.323
466.442
543.699
570.927
499.232
413.137
436.357
403.438
367.919
351.939
350.178
358.371
386.163
390.254
369.56
415.883
571.029
592.189
453.753
462.346
519.365
615.114
655.178
491.727
418.257
438.073
401.599
355.211
346.152
345.767
354.131
380.413
390.805
370.35
397.921
571.007
420.769
419.722
409.224
410.237
401.808
377.599
401.248
400.095
432.163
480.636
544.556
605.064
657.286
717.036
754.433
802.303
835.089
864.983
897.523
931.165
953.986
989.3
998.731
181.983
180.016
173.224
162.69
164.168
146.775
157.567
167.913
192.775
241.655
319.691
417.779
526.957
619.564
698.026
758.138
815.705
851.921
902.604
929.97
964.943
1007.18
1045.1
58.2417
57.2568
55.2536
50.4025
53.1155
48.9025
54.9908
62.7411
76.1497
99.9123
141.05
198.997
279.575
378.427
489.19
606.885
707.628
783.279
854.145
916.074
958.209
1005.61
1045.52
19.8872
19.6027
19.094
17.7601
19.143
18.6108
21.5609
26.6954
33.7609
44.4298
61.589
83.7219
123.667
173.929
251.08
340.73
441.92
538.802
660.865
779.986
868.917
928.306
979.295
8.29418
8.21424
8.09482
7.85855
8.43349
8.87061
10.3679
13.2639
17.7457
23.1392
29.5303
40.2294
55.8148
86.873
116.437
159.604
191.261
239.966
298.224
412.511
551.461
651.411
720.72
4.19349
4.18385
4.12824
4.06573
4.36375
4.59617
5.69298
7.24477
9.73577
11.7068
15.0452
19.2763
25.8076
46.0138
52.972
61.3426
61.3877
70.57
75.3041
114.48
165.192
193.088
237.384
2.57359
2.57737
2.58788
2.54199
2.67762
2.83188
3.43886
4.20252
5.33936
6.39778
8.27974
10.0921
14.478
18.6163
18.2645
17.1595
13.5666
13.4762
14.1665
24.5181
38.8131
44.4729
61.6351
1.94384
1.92873
1.92418
1.97822
2.00793
2.01656
2.24508
2.51781
2.93935
3.38309
4.01131
4.7963
5.88186
7.6399
6.06706
4.5809
3.59327
3.43882
4.02918
6.22137
10.5011
12.581
17.3931
1.79097
1.78318
1.79359
1.85822
1.80882
1.87564
1.83686
1.90599
1.87332
1.99464
2.22695
2.55245
2.88525
3.28681
2.72485
2.26211
2.21153
2.34379
2.61098
3.16091
4.29327
6.05518
10.1623
1.74837
1.7615
1.7623
1.79877
1.79963
1.85331
1.82915
1.87689
1.90764
1.93639
1.97562
2.10085
2.1643
2.09893
2.08504
1.96363
2.01026
2.19759
2.41223
2.64798
3.77982
6.27276
10.4726
1.7044
1.71899
1.71425
1.73951
1.74405
1.75846
1.76875
1.83474
1.89457
1.87391
1.98205
1.97844
2.30726
2.1455
1.99969
2.05788
3.11092
4.80849
6.85117
8.1765
9.71609
12.3448
16.5077
1.6573
1.66239
1.66066
1.68191
1.68511
1.71878
1.69514
1.81284
1.75896
1.83661
2.03258
2.1339
2.49198
2.75449
3.57286
7.05725
13.693
19.5134
19.35
21.1964
26.1798
32.2831
39.8777
1.5929
1.60431
1.59711
1.61365
1.61323
1.60256
1.62822
1.57777
1.71878
1.69075
1.87538
1.81867
1.99726
1.8906
1.4159
0.791787
0.979446
2.05113
1.70961
3.28897
4.93791
6.86897
7.57601
1.54069
1.53577
1.54482
1.53879
1.54122
1.57259
1.51195
1.53766
1.53218
1.625
1.52868
1.6264
1.42897
1.36873
0.700968
-0.00432659
-0.676187
-0.822826
-1.14033
-0.794945
-0.189298
0.5842
0.583009
1.46431
1.47241
1.49822
1.47173
1.50107
1.44887
1.482
1.51472
1.47834
1.45203
1.46602
1.42939
1.32368
1.16521
0.809116
0.283427
-0.119927
-0.342671
-0.48543
-0.354439
-0.178969
0.0440954
0.105114
1.43268
1.39001
1.38106
1.42871
1.37839
1.42945
1.31326
1.42672
1.34605
1.34371
1.2934
1.33952
1.15821
1.0628
0.69602
0.37916
0.106209
-0.088437
-0.162829
-0.154446
-0.0653291
-0.0428152
0.0552858
1.27551
1.33744
1.32364
1.30301
1.32079
1.27594
1.25682
1.21566
1.25718
1.16585
1.20444
0.981444
1.04542
0.765857
0.574274
0.363468
0.200983
0.0298501
0.00611277
-0.0318554
-0.0471492
0.0122767
-0.0105894
1.25799
1.24978
1.29427
1.23782
1.24838
1.2487
1.20007
1.19524
1.10828
1.07462
1.04678
0.993885
0.903166
0.681247
0.559709
0.395786
0.291386
0.160231
0.14011
0.027614
0.0103799
-0.0550694
-0.00897205
1.17796
1.1559
1.17253
1.12671
1.16105
1.14116
1.10773
1.14248
1.014
1.01469
1.0237
0.903135
0.876188
0.712901
0.553403
0.4052
0.276766
0.201168
0.121854
0.0813195
0.0299484
-0.00989853
0.00691912
1.12026
1.13093
1.11595
1.11163
1.10157
1.10465
1.04773
0.94084
0.953585
0.868451
0.779732
0.85321
0.704308
0.597227
0.453767
0.397408
0.315178
0.224391
0.169103
0.0980348
0.0488211
0.0367157
-0.095102
1.08643
1.03495
1.00532
1.05923
1.01396
0.992274
0.983505
0.995419
0.907534
0.863567
0.799398
0.647879
0.609733
0.554089
0.486431
0.381756
0.310158
0.232027
0.208392
0.080952
0.07591
0.0462646
-0.0161
0.93765
1.01179
0.98188
0.965776
0.97146
0.928748
0.96368
0.870959
0.863729
0.786395
0.765659
0.711636
0.562395
0.539221
0.448158
0.373614
0.319904
0.24068
0.191476
0.128525
0.0866327
0.0293757
-0.0180926
0.93087
0.906496
0.903015
0.868703
0.875103
0.842086
0.827033
0.76319
0.729022
0.720887
0.684791
0.580482
0.573862
0.524429
0.457029
0.372682
0.273404
0.230416
0.159289
0.14553
0.0839085
0.0525314
0.030176
0.914467
0.879336
0.894719
0.859129
0.853769
0.80932
0.808658
0.762955
0.715576
0.673898
0.618586
0.574453
0.560523
0.420673
0.408261
0.383825
0.236384
0.251653
0.186266
0.135791
0.100225
0.0441685
0.0358402
0.775098
0.782914
0.774882
0.790042
0.743562
0.72585
0.706056
0.700886
0.658897
0.668458
0.601605
0.597665
0.532953
0.408503
0.408947
0.398349
0.257791
0.194348
0.205967
0.175979
0.0818148
0.0556062
-0.00157575
0.73712
0.733948
0.733131
0.717659
0.743096
0.688774
0.679745
0.640986
0.645147
0.569036
0.543102
0.487945
0.468545
0.418036
0.406524
0.329809
0.258853
0.210701
0.189408
0.135403
0.100381
0.0554962
0.0199578
0.660939
0.658623
0.652298
0.643062
0.626463
0.61356
0.597246
0.57689
0.550048
0.528079
0.505272
0.467844
0.449987
0.384005
0.372564
0.28355
0.260407
0.157479
0.202127
0.177123
0.0868698
0.0572813
0.00149188
0.607952
0.608245
0.600652
0.594221
0.576338
0.568551
0.552615
0.53287
0.517624
0.487011
0.474278
0.431076
0.446482
0.355351
0.376194
0.251817
0.295429
0.143075
0.205291
0.132004
0.14094
0.0244224
0.00803938
0.546519
0.543183
0.539587
0.531695
0.52575
0.511329
0.499033
0.480592
0.465472
0.441272
0.425345
0.392082
0.36847
0.335678
0.310489
0.252603
0.271888
0.127419
0.202781
0.121352
0.155959
0.062571
-0.0126481
0.496284
0.494279
0.489968
0.48381
0.475191
0.464979
0.453788
0.438418
0.425439
0.404803
0.391604
0.363794
0.344429
0.319553
0.278534
0.259781
0.175437
0.19255
0.159939
0.0781731
0.143168
0.137387
-0.0109493
0.445675
0.443859
0.44004
0.43433
0.427537
0.417712
0.408333
0.39465
0.38302
0.365678
0.3532
0.333147
0.311469
0.308108
0.249915
0.217858
0.174179
0.175274
0.155601
0.0938497
0.108662
0.0606026
-0.0280637
0.399961
0.398308
0.395103
0.390143
0.384169
0.375917
0.367509
0.355942
0.345607
0.330522
0.319489
0.299991
0.283307
0.272895
0.234237
0.183026
0.176744
0.184851
0.0789516
0.0729859
0.0960843
0.11763
-0.0266851
0.354497
0.353012
0.350291
0.346106
0.341103
0.333991
0.326746
0.316731
0.307916
0.294458
0.285831
0.265584
0.253895
0.231601
0.204483
0.182597
0.199709
0.0784523
0.121392
0.121086
0.00968178
0.101432
0.00720146
0.314094
0.313189
0.310986
0.307361
0.30305
0.297138
0.290599
0.282067
0.273713
0.261916
0.253599
0.2298
0.225649
0.194274
0.15707
0.163593
0.107535
0.137387
0.0790596
0.139113
-0.0406533
0.0587278
0.0288564
0.272114
0.270865
0.269189
0.266228
0.262497
0.257571
0.252063
0.245179
0.239213
0.229238
0.224353
0.219979
0.206994
0.178214
0.143526
0.170025
0.120065
0.142946
0.0362455
0.140457
0.020281
0.027003
0.0230027
0.237058
0.233936
0.231705
0.229142
0.225666
0.222314
0.217029
0.213645
0.207049
0.203019
0.196847
0.193776
0.177738
0.14521
0.15053
0.129865
0.125198
0.0837864
0.0722646
0.0174215
0.0516021
-0.0168691
0.0147999
0.191246
0.192147
0.191329
0.190239
0.188684
0.187269
0.183484
0.183212
0.176206
0.175869
0.172261
0.171757
0.141335
0.138406
0.1245
0.140826
0.0832833
0.101183
0.0345269
0.0530478
0.0866712
-0.0413648
0.0606326
0.157226
0.15638
0.155711
0.155816
0.15639
0.156485
0.151887
0.152012
0.145031
0.151631
0.142213
0.143992
0.108386
0.148777
0.0797628
0.105892
0.0751742
0.0721328
0.0442946
0.0433832
0.0180189
-0.0470184
0.0572052
0.121318
0.123853
0.123674
0.12352
0.118004
0.118658
0.11459
0.118763
0.111615
0.120935
0.106145
0.111965
0.0809224
0.112023
0.0595463
0.096591
0.0634625
0.0645728
0.0489131
0.0550261
0.00990195
-0.046944
0.0170607
0.0895869
0.0879877
0.0864486
0.0850434
0.0834253
0.0829809
0.0809397
0.0821288
0.0780424
0.0810548
0.072305
0.0767363
0.0599025
0.0773776
0.0437495
0.0466148
0.035825
0.045799
0.00779692
0.0101578
0.0236043
-0.0516935
-0.0424402
0.0603161
0.0588195
0.0567761
0.0560447
0.0535488
0.0537895
0.0507474
0.0521921
0.0476461
0.0502261
0.0432114
0.048902
0.0354699
0.0518946
0.0288322
0.0436673
0.0427898
0.03951
0.0245237
0.0116466
-0.00220762
-0.0201771
-0.0223109
-0.000702846
7.67584e-05
0.000918296
0.000964155
0.00215433
0.0018053
0.00284861
0.00235239
0.0035921
0.00247569
0.00384181
0.00162079
0.00420836
0.000760256
0.011385
0.00423517
-0.00544792
0.00345261
-0.0258618
-0.0138865
-0.0280935
-0.0940475
-0.059796
1034.44
1024.27
1025.37
850.834
1074.58
1085.95
1117.15
1034.46
1080.04
1063.61
1131.76
1107.38
1024.28
1046.65
1071.33
1090.33
804.926
839.622
883.902
921.789
296.854
336.808
399.53
477.215
76.5103
91.3439
117.543
158.389
24.5442
30.2326
40.001
53.3093
14.8678
17.3278
21.4948
27.3763
12.5578
13.2002
14.57
17.2297
19.3468
21.2812
23.7197
27.119
48.2714
53.4666
60.5158
67.3633
8.06583
9.71828
11.583
12.9258
0.477773
0.7846
1.38465
2.75613
0.0680565
0.210016
0.569592
1.79383
0.0642962
0.0867524
0.0558868
0.0717669
-0.00395659
-0.0365498
-0.0726127
-0.143625
-0.0427799
-0.0760344
-0.0873054
-0.141053
-0.00122255
-0.0480685
-0.103395
-0.117062
-0.0723981
-0.0978115
-0.0940976
-0.118162
-0.0420771
-0.0837363
-0.181785
-0.228842
-0.057136
-0.0932718
-0.0660349
-0.144079
-0.083683
-0.095345
-0.171691
-0.218007
-0.0492997
-0.0858745
-0.100168
-0.116034
-0.0623345
-0.0839647
-0.11434
-0.143723
-0.0200037
-0.0380117
-0.0630913
-0.0855458
-0.0406804
-0.0730162
-0.0942079
-0.115586
-0.024423
-0.0434968
-0.0615863
-0.0814102
-0.0220991
-0.0502626
-0.0624093
-0.0921778
-0.029591
-0.060594
-0.100605
-0.176554
-0.0126987
-0.0386843
-0.0421395
-0.064689
-0.0376713
-0.05565
-0.119152
-0.0212236
-0.00196788
-0.00405481
-0.00909811
-0.120979
0.0011192
0.0246063
-0.0824763
-0.0518142
-0.0402188
-0.0651775
-0.0883769
-0.171819
-0.0938477
-0.0339562
-0.0504678
-0.101726
-0.0561614
-0.053442
0.0112773
0.01828
-0.0626393
-0.0628562
-0.0899731
-0.0462177
-0.0651571
-0.0594516
-0.121932
-0.0656023
-0.0275687
-0.105451
-0.086429
-0.144529
-0.0214642
-0.0738811
-0.109272
-0.13391
-0.113868
-0.137365
-0.108913
-0.128797
634.882
494.04
580.245
672.309
710.622
721.715
555.572
427.629
416.647
371.933
341.078
348.177
349.698
355.343
369.296
382.48
380.936
405.4
729.082
883.34
845.199
947.404
914.34
892.829
866.313
648.272
390.284
345.607
336.524
333.617
354.401
346.533
358.053
372.028
388.104
405.678
494.386
846.928
1081.32
1110.98
1015.86
964.516
1058.14
1066.2
877.239
419.407
323.847
339.764
348.883
347.518
344.807
355.496
369.655
385.89
432.098
530.381
588.692
1125.06
1132.18
1162.74
1020.92
1120.14
1122.75
994.108
568.945
374.635
330.912
331.297
333.713
337.776
352.091
380.623
415.155
533.021
694.718
804.385
1036.6
877.826
1042.38
943.384
1060.11
1093.81
1135.35
1069.05
714
378.745
324.536
323.07
327.178
336.595
362.75
409.137
561.32
956.198
1153.55
692.945
529.581
647.098
513.237
614.864
794.146
980.242
1127.22
1113.67
713.587
379.155
316.917
320.657
333.504
362.677
406.833
617.48
917.086
1246.73
268.316
246.437
217.674
180.169
243.837
390.667
645.012
907.676
1145.43
1067.14
648.397
358.924
340.72
351.638
395.368
525.954
944.932
1231.41
1209.17
78.6064
91.4452
71.8429
82.7433
134.189
226.209
374.148
520.914
950.375
1049.76
1003.09
601.131
496.298
446.733
493.67
782.572
1131.69
1386.15
1258.83
30.1563
34.5754
44.8705
68.0125
119.531
196.322
267.49
332.78
540.692
813.496
964.219
890.817
796.991
783.733
790.026
996.331
1267.31
1389.77
1312.83
22.6039
28.139
53.9163
118.955
167.093
245.598
318.151
366.176
469.544
597.063
731.436
825.475
879.245
856.79
923.94
1069.93
1297.62
1428.17
1323.74
36.1137
55.272
63.3073
107.518
158.389
229.553
288
359.782
514.383
559.628
669.239
715.629
787.77
832.262
879.21
1027.1
1310.18
1439.84
1293.45
78.9928
107.62
133.384
176.418
222.325
252.039
276.566
316.97
446.085
629.087
763.289
801.834
911.525
1001.72
973.886
1175.82
1435.93
1475.46
1295.58
18.5253
35.4161
68.7149
128.433
140.445
123.641
138.131
174.076
218.745
319.38
398.736
806.307
1030.57
1241.36
1309.74
1414.8
1565.94
1528.38
1294
8.0292
26.3321
47.1437
55.1541
59.5818
62.3781
60.1168
75.238
97.4971
140.835
172.542
366.272
583.057
949.282
1103.28
1218.22
1489.19
1532.63
1295.27
5.75578
16.7853
25.4217
26.5113
24.0519
29.2811
33.7551
48.3625
63.5041
83.4068
109.851
175.729
344.809
526.246
688.651
869.705
1266.35
1450.4
1281.79
1.0044
3.94892
7.00829
9.26382
11.5339
12.7759
18.1922
24.1929
29.1291
35.7662
56.7893
121.171
202.646
261.972
451.831
653.189
1009.86
1231.07
1252.81
-0.230537
0.137192
0.948722
2.59602
5.05582
5.56121
9.7858
11.4761
12.3435
16.8593
30.0912
73.914
111.393
191.987
381.361
529.679
845.788
1023.82
1196.97
-0.259553
-0.495116
-0.415161
0.0997002
1.40148
1.24091
2.26029
3.87085
3.72471
5.75564
16.9294
35.2001
60.6728
99.8983
207.899
350.499
642.682
900.171
1125.61
-0.214547
-0.388126
-0.502505
-0.35471
0.00204184
-0.0468764
0.309372
0.713224
1.08898
3.03934
8.60815
19.9866
35.0938
71.6865
133.999
244.943
526.568
837.519
1064.96
-0.357055
-0.392447
-0.328032
-0.349302
-0.515134
-0.421233
-0.413286
-0.338692
-0.0585536
1.1475
5.14437
10.3611
19.6514
41.0777
75.2063
166.682
438.508
802.351
1003.03
-0.24296
-0.357876
-0.359592
-0.408826
-0.380381
-0.50955
-0.557504
-0.493979
-0.369774
0.281839
2.89994
6.09511
13.1812
27.0504
51.0041
122.384
358.552
750.63
953.373
-0.277594
-0.235013
-0.212684
-0.213344
-0.390959
-0.446614
-0.449424
-0.485668
-0.428199
-0.230214
1.01996
3.62143
11.5433
25.7803
45.5821
99.123
296.317
684.286
907.186
-0.234826
-0.178309
-0.264382
-0.320627
-0.305273
-0.459758
-0.444541
-0.453372
-0.429473
-0.340982
-0.0639761
0.705604
6.05
19.6533
37.0943
82.5727
245.305
625.959
867.62
-0.15813
-0.228686
-0.170315
-0.279507
-0.307593
-0.388655
-0.391139
-0.333878
-0.297837
-0.490549
-0.354237
0.465966
4.75606
13.1807
28.1074
70.5707
218.409
581.81
829.855
-0.225587
-0.143085
-0.289257
-0.193197
-0.284726
-0.388148
-0.41674
-0.348243
-0.30102
-0.563531
-0.360148
0.998299
6.45139
11.8574
22.2313
61.0877
197.289
535.093
794.916
-0.136147
-0.150958
-0.221263
-0.224486
-0.256074
-0.316922
-0.329129
-0.331126
-0.345692
-0.310066
-0.443815
0.294298
2.24103
6.95709
18.6173
53.9358
168.506
480.77
761.43
-0.124356
-0.19541
-0.182992
-0.157455
-0.250064
-0.321459
-0.282296
-0.316969
-0.304614
-0.410529
-0.268706
0.0660067
1.73165
5.48841
15.7793
41.5454
141.481
424.819
732.154
-0.146361
-0.10144
-0.109612
-0.129488
-0.269272
-0.364111
-0.210464
-0.353592
-0.246904
-0.433804
-0.215185
0.122508
1.5234
5.38905
16.6957
44.195
123.113
377.882
702.918
-0.0560612
-0.196697
-0.102512
-0.168085
-0.216113
-0.211098
-0.236081
-0.311902
-0.297455
-0.212603
-0.10278
0.4438
2.36908
5.03167
14.7052
43.2005
117.313
350.896
675.113
0.0261828
-0.0998758
-0.107246
-0.124857
-0.194788
-0.260166
-0.214183
-0.373539
-0.299162
-0.107399
-0.11404
0.69116
1.78445
6.03511
20.087
52.7387
122.385
341.151
645.567
-0.069643
-0.104754
-0.189082
-0.0712931
-0.189156
-0.133881
-0.290252
-0.463229
-0.228528
-0.184713
-0.0586174
0.473347
1.56321
6.07573
20.2758
51.907
121.053
340.369
628.971
-0.0441425
-0.0673279
-0.117992
-0.102388
-0.186873
-0.208323
-0.333206
-0.202251
-0.224848
-0.152163
-0.0521594
0.201916
1.11927
4.83046
20.846
57.4494
135.91
318.005
608.001
-0.103783
-0.0106633
-0.0998942
-0.158875
-0.192117
-0.209908
-0.276176
-0.118759
-0.368221
-0.231356
-0.140997
0.369293
1.13667
5.19314
20.0211
55.1201
127.834
283.666
590.299
-0.0825665
-0.0267341
-0.0817375
-0.00201879
-0.273765
-0.261888
-0.406662
-0.187197
-0.355457
-0.308854
-0.0626991
0.257417
1.19344
5.18498
19.1626
43.5861
94.2365
241.815
564.685
-0.0394452
-0.0549143
-0.0088493
-0.288358
-0.0663305
-0.365582
-0.511449
-0.0306829
-0.264968
-0.212735
-0.248301
-0.273996
0.729207
5.58536
19.9581
40.7791
83.8586
218.563
544.68
0.00371565
-0.149968
-0.0120787
-0.0165546
-0.295807
-0.33705
-0.490822
-0.141418
-0.250919
-0.519406
-0.557625
-0.306407
0.520532
3.62489
13.0371
33.3936
84.0075
226.971
508.933
-0.167577
-0.225311
-0.0905383
-0.116801
-0.303975
-0.279246
-0.323018
-0.267816
-0.183306
-0.889552
-0.925244
-0.28517
0.293941
2.79625
10.7657
32.5899
105.555
335.61
524.402
-0.127162
-0.0418261
-0.250713
-0.108054
-0.2299
-0.479102
-0.360095
-0.375639
-0.465322
-0.9871
-0.873356
-0.242943
0.071126
1.9183
6.65612
25.3988
89.6049
284.373
511.488
-0.0514666
-0.105828
-0.255541
-0.0598131
-0.0950059
-0.623757
-0.143715
-0.246046
-0.637949
-1.03531
-1.10952
-0.539737
-0.638616
0.647054
3.74666
17.3593
59.1656
199.734
465.697
-0.140873
-0.256208
-0.457645
-0.5043
-0.363477
-0.247868
-0.301068
-0.555297
-0.616368
-0.7595
-0.652812
-0.196382
-0.221458
0.19384
1.02495
9.16159
37.0974
141.442
408.805
-0.178605
-0.233795
-0.471828
-0.425603
-0.448751
-0.154841
-0.137484
-0.368915
-0.406177
-0.43274
-0.295834
-0.162607
-0.229202
-0.0742167
0.104005
2.34527
11.3468
52.6379
284.74
-0.18969
-0.528047
-0.207963
-0.210638
-0.179448
-0.281416
-0.119776
-0.102918
-0.086429
-0.197507
0.118254
-0.0391248
0.13679
0.084307
-0.108728
0.0147583
-0.0584955
-1.52046
87.6279
)
;

boundaryField
{
    leftWall
    {
        type            zeroGradient;
    }
    rightWall
    {
        type            zeroGradient;
    }
    lowerWall
    {
        type            zeroGradient;
    }
    atmosphere
    {
        type            totalPressure;
        rho             rho;
        psi             none;
        gamma           1;
        p0              uniform 0;
        value           nonuniform List<scalar> 
46
(
-2.21416e-07
-5.77083e-06
-2.69797e-05
-1.6746e-05
-9.68041e-05
-5.16711e-05
-0.000279186
-0.000149106
-0.000655111
-0.000451589
-0.00145265
-0.00108569
-0.00266216
-0.00137963
-0.00300708
-0.00265739
-0.00446959
-0.00590468
-0.0201474
-0.0218167
-0.0342595
-0.0718132
-0.0543162
-0.0866546
-0.114622
-0.12415
-0.133488
-0.196696
-0.405206
-0.345436
-0.225981
-0.259118
-0.194691
-0.000437969
0
0
0
0
0
0
0
0
0
0
0
0
)
;
    }
    defaultFaces
    {
        type            empty;
    }
}


// ************************************************************************* //
