/*--------------------------------*- C++ -*----------------------------------*\
| =========                 |                                                 |
| \\      /  F ield         | foam-extend: Open Source CFD                    |
|  \\    /   O peration     | Version:     4.1                                |
|   \\  /    A nd           | Web:         http://www.foam-extend.org         |
|    \\/     M anipulation  |                                                 |
\*---------------------------------------------------------------------------*/
FoamFile
{
    version     2.0;
    format      ascii;
    class       surfaceScalarField;
    location    "0.5";
    object      phi;
}
// * * * * * * * * * * * * * * * * * * * * * * * * * * * * * * * * * * * * * //

dimensions      [0 3 -1 0 0 0 0];

internalField   nonuniform List<scalar> 
4432
(
3.32474e-06
-3.32474e-06
5.68637e-06
-2.36163e-06
8.66837e-06
-2.982e-06
1.13867e-05
-2.7183e-06
1.41201e-05
-2.73343e-06
1.58249e-05
-1.70478e-06
1.70865e-05
-1.2616e-06
1.73951e-05
-3.0866e-07
1.66879e-05
7.07289e-07
1.32922e-05
3.39565e-06
2.24685e-05
-9.1763e-06
2.34482e-05
-9.79681e-07
2.42579e-05
-8.09755e-07
2.39385e-05
3.19461e-07
2.27295e-05
1.20902e-06
2.12782e-05
1.45124e-06
2.18287e-05
-5.50438e-07
1.90653e-05
2.7634e-06
1.65941e-05
2.47117e-06
1.2922e-05
3.67213e-06
9.81551e-06
3.10646e-06
4.69679e-06
5.11871e-06
4.69679e-06
3.25989e-06
-6.58463e-06
5.74283e-06
-4.84457e-06
8.78967e-06
-6.02884e-06
1.1358e-05
-5.28667e-06
1.40643e-05
-5.43972e-06
1.61094e-05
-3.7499e-06
1.76259e-05
-2.7781e-06
1.8211e-05
-8.93737e-07
1.75774e-05
1.34091e-06
2.79939e-05
-7.02087e-06
2.58014e-05
-6.98382e-06
2.62236e-05
-1.40182e-06
2.60784e-05
-6.646e-07
2.54566e-05
9.41282e-07
2.37144e-05
2.95121e-06
2.22153e-05
2.95038e-06
1.26889e-05
8.97591e-06
1.21175e-05
3.33481e-06
1.01668e-05
4.42186e-06
1.2164e-05
1.67492e-06
8.24236e-06
7.02814e-06
5.38206e-06
7.97901e-06
1.00789e-05
2.9699e-06
-9.55453e-06
5.71722e-06
-7.59189e-06
8.99431e-06
-9.30592e-06
1.12743e-05
-7.56671e-06
1.42374e-05
-8.40275e-06
1.65459e-05
-6.05841e-06
1.77977e-05
-4.02993e-06
1.87552e-05
-1.85126e-06
1.72272e-05
2.86894e-06
2.60331e-05
-1.58268e-05
2.43685e-05
-5.31919e-06
2.38665e-05
-8.99873e-07
2.28358e-05
3.66122e-07
2.18846e-05
1.89252e-06
2.07679e-05
4.06786e-06
1.97352e-05
3.9831e-06
2.16257e-05
7.08537e-06
2.08144e-05
4.14613e-06
1.88311e-05
6.40521e-06
1.47999e-05
5.7061e-06
1.10946e-05
1.07334e-05
4.76506e-06
1.43086e-05
1.48439e-05
2.70407e-06
-1.22586e-05
5.87564e-06
-1.07635e-05
9.31894e-06
-1.27492e-05
1.16386e-05
-9.88636e-06
1.47208e-05
-1.14849e-05
1.65645e-05
-7.90212e-06
1.83212e-05
-5.78666e-06
1.84129e-05
-1.94294e-06
2.92586e-05
-7.97674e-06
2.45628e-05
-1.11311e-05
2.20563e-05
-2.81261e-06
1.88001e-05
2.35629e-06
1.63849e-05
2.78133e-06
1.48092e-05
3.46823e-06
1.46439e-05
4.23316e-06
1.40766e-05
4.55039e-06
1.48963e-05
6.26568e-06
1.49473e-05
4.09511e-06
1.49515e-05
6.40096e-06
1.19555e-05
8.70217e-06
9.51695e-06
1.31719e-05
4.92997e-06
1.88955e-05
1.97739e-05
2.64006e-06
-1.48987e-05
6.02045e-06
-1.41439e-05
9.49396e-06
-1.62227e-05
1.20728e-05
-1.24652e-05
1.47206e-05
-1.41328e-05
1.6042e-05
-9.22356e-06
1.8208e-05
-7.95261e-06
1.76669e-05
-1.40184e-06
2.59183e-05
-1.62282e-05
2.09518e-05
-6.16454e-06
1.79237e-05
2.15491e-07
1.47018e-05
5.57822e-06
1.26803e-05
4.80282e-06
1.07007e-05
5.44781e-06
9.44788e-06
5.48599e-06
7.93197e-06
6.0663e-06
7.44785e-06
6.7498e-06
6.69514e-06
4.84782e-06
7.40087e-06
5.69524e-06
7.67568e-06
8.42736e-06
7.39171e-06
1.34559e-05
4.22171e-06
2.20655e-05
2.39956e-05
3.01785e-06
-1.79165e-05
6.42713e-06
-1.75531e-05
9.74711e-06
-1.95427e-05
1.20221e-05
-1.47401e-05
1.44442e-05
-1.65549e-05
1.67926e-05
-1.15719e-05
1.70709e-05
-8.23097e-06
2.5931e-05
-1.0262e-05
2.09663e-05
-1.12635e-05
1.8367e-05
-3.56517e-06
1.47409e-05
3.8416e-06
1.20409e-05
8.27819e-06
1.00785e-05
6.76519e-06
8.21266e-06
7.31368e-06
6.82886e-06
6.8698e-06
4.87869e-06
8.01647e-06
4.39683e-06
7.23166e-06
4.07486e-06
5.16978e-06
3.07838e-06
6.69172e-06
1.22289e-06
1.02829e-05
5.50103e-06
9.17776e-06
3.94169e-06
2.36249e-05
2.79373e-05
3.39065e-06
-2.13072e-05
6.60194e-06
-2.07644e-05
9.61585e-06
-2.25566e-05
1.202e-05
-1.71443e-05
1.47188e-05
-1.92537e-05
1.5646e-05
-1.24992e-05
1.45358e-05
-7.12068e-06
2.20722e-05
-1.77984e-05
1.93135e-05
-8.50478e-06
1.69307e-05
-1.18235e-06
1.36935e-05
7.07882e-06
1.1788e-05
1.01837e-05
9.9926e-06
8.56062e-06
6.01887e-06
1.12874e-05
4.23644e-06
8.65222e-06
3.20877e-06
9.04414e-06
1.89427e-06
8.54617e-06
1.5709e-06
5.49315e-06
1.43853e-06
6.82409e-06
3.16039e-06
8.56099e-06
1.9936e-06
1.03446e-05
3.25741e-06
2.23611e-05
3.11947e-05
3.54576e-06
-2.48529e-05
6.78043e-06
-2.39991e-05
9.80824e-06
-2.55844e-05
1.21746e-05
-1.95107e-05
1.49694e-05
-2.20484e-05
1.4682e-05
-1.22118e-05
2.37305e-05
-1.61692e-05
2.09078e-05
-1.49758e-05
1.90497e-05
-6.64665e-06
1.61959e-05
1.67141e-06
1.29635e-05
1.03113e-05
9.98513e-06
1.3162e-05
7.6871e-06
1.08586e-05
5.62683e-06
1.33477e-05
3.91225e-06
1.03668e-05
2.56149e-06
1.03949e-05
2.15931e-06
8.94834e-06
2.97993e-06
4.67253e-06
2.14539e-06
7.65863e-06
1.96816e-07
1.05096e-05
2.59358e-06
7.94779e-06
5.36261e-06
1.9592e-05
3.65573e-05
-0.000158345
0.000158345
-0.00029449
0.000136145
-0.000307364
1.28738e-05
-0.000288027
-1.93376e-05
-0.000265267
-2.27593e-05
-0.000246519
-1.87481e-05
-0.000242823
-3.69602e-06
-0.000235195
-7.62774e-06
-0.000217837
-1.73583e-05
-0.000203745
-1.40918e-05
-0.000202815
-9.30026e-07
-0.000202425
-3.90765e-07
-0.000208294
5.86905e-06
-0.000194518
-1.37753e-05
-0.000126495
-6.8023e-05
-0.000113015
-1.34799e-05
-0.00016534
5.2325e-05
-0.000108458
-5.68827e-05
-0.000108458
-0.000110623
0.000268968
-0.000141536
0.000167058
-0.000103841
-2.48207e-05
-0.000101189
-2.19898e-05
-5.36863e-05
-7.02622e-05
-8.22441e-05
9.80965e-06
-8.2215e-05
-3.72509e-06
-8.96905e-05
-1.52326e-07
-0.000105455
-1.59375e-06
-0.000128734
9.18733e-06
-0.000163783
3.41188e-05
-0.000187849
2.36756e-05
-0.000122399
-5.95815e-05
-0.000117371
-1.88034e-05
-0.000125277
-6.01165e-05
-0.000117819
-2.09386e-05
-8.46165e-05
1.91228e-05
-8.07044e-05
-6.07948e-05
-0.000189162
-6.51651e-05
0.000334133
-8.38234e-05
0.000185717
-8.08898e-05
-2.77543e-05
-5.13797e-05
-5.14999e-05
-6.85348e-05
-5.31071e-05
-4.1037e-05
-1.76883e-05
-3.45485e-05
-1.02137e-05
-6.04529e-05
2.57521e-05
-9.44817e-05
3.2435e-05
-0.000125791
4.04965e-05
-0.000145538
5.38656e-05
-0.000140972
1.91104e-05
-0.000150118
-5.04354e-05
-9.4833e-05
-7.40888e-05
-0.000110126
-4.48238e-05
-0.000107488
-2.35758e-05
-7.93131e-05
-9.05246e-06
-5.63905e-05
-8.37175e-05
-0.000245553
-3.92389e-05
0.000373372
-2.47856e-05
0.000171263
-2.37905e-05
-2.87494e-05
-1.36125e-05
-6.16778e-05
9.99922e-06
-7.67189e-05
5.13137e-05
-5.90027e-05
5.8205e-05
-1.71051e-05
1.27071e-05
7.125e-05
-4.05192e-05
8.56614e-05
-6.7469e-05
6.74463e-05
-7.34439e-05
5.98406e-05
-5.66882e-05
2.35458e-06
-3.99317e-05
-6.71919e-05
-5.48819e-05
-5.91386e-05
-5.55292e-05
-4.41766e-05
-0.000114628
3.55234e-05
-5.95508e-05
-6.41301e-05
-5.14163e-05
-9.1852e-05
-0.000296969
3.39984e-06
0.000369972
9.44208e-05
8.02424e-05
3.85962e-05
2.70752e-05
5.45642e-05
-7.76458e-05
7.56274e-05
-9.77821e-05
9.77527e-05
-8.11281e-05
0.000106873
-2.62257e-05
4.46737e-05
0.00013345
2.3239e-06
0.000128011
-1.46373e-05
8.44075e-05
-2.45645e-05
6.97677e-05
-1.76971e-05
-4.51287e-06
-3.58951e-05
-4.89939e-05
-1.49201e-05
-8.01136e-05
-3.58778e-05
-2.32189e-05
-4.63622e-05
4.60078e-05
-4.53773e-05
-6.5115e-05
-3.23398e-05
-0.000104889
-0.000329309
3.89858e-05
0.000330987
6.81426e-05
5.10856e-05
5.07382e-05
4.44796e-05
4.08044e-05
-6.77119e-05
9.80282e-05
-0.000155006
0.00012246
-0.00010556
0.000150552
-5.43174e-05
0.000128409
0.000155592
0.000103717
0.000152704
7.08587e-05
0.000117266
1.82496e-05
0.000122377
-2.66578e-05
4.03945e-05
-3.25553e-05
-4.30965e-05
-1.62546e-05
-9.64143e-05
-2.63965e-05
-1.3077e-05
-3.61756e-05
5.57869e-05
-3.68277e-05
-6.44629e-05
-1.93357e-05
-0.000122381
-0.000348644
5.76094e-05
0.000273377
6.14187e-05
4.72763e-05
8.25236e-05
2.33747e-05
8.19805e-05
-6.71688e-05
7.12921e-05
-0.000144318
5.21791e-05
-8.64468e-05
7.75129e-05
-7.96512e-05
0.000136633
9.64715e-05
0.000139426
0.000149911
0.000123031
0.00013366
6.24476e-05
0.00018296
-8.47123e-07
0.000103689
-9.9751e-06
-3.39685e-05
1.23673e-06
-0.000107626
-1.00041e-05
-1.83618e-06
-1.41046e-05
5.98874e-05
-1.77745e-05
-6.0793e-05
-1.08341e-05
-0.000129322
-0.000359478
7.97104e-05
0.000193667
5.42662e-05
7.27206e-05
8.36367e-05
-5.99579e-06
7.89923e-05
-6.25245e-05
3.25853e-05
-9.79106e-05
4.039e-05
-9.42514e-05
5.91039e-05
-9.83651e-05
0.000138185
1.73907e-05
0.000158829
0.000129266
8.63775e-05
0.000206112
4.25473e-05
0.000226791
7.38695e-06
0.00013885
-1.45372e-06
-2.51279e-05
3.6107e-06
-0.000112691
8.57893e-06
-6.80444e-06
1.09343e-05
5.7532e-05
-1.31863e-06
-4.85397e-05
-3.23263e-06
-0.000127408
-0.000362711
7.10977e-06
-3.19627e-05
1.38414e-05
-3.07307e-05
1.91723e-05
-3.09153e-05
2.55446e-05
-2.5883e-05
2.91397e-05
-2.56436e-05
4.69117e-05
-2.99837e-05
4.7443e-05
-1.67005e-05
4.5322e-05
-1.28548e-05
4.14468e-05
-2.7715e-06
3.61056e-05
7.01266e-06
3.16099e-05
1.4807e-05
2.67301e-05
1.80418e-05
1.91054e-05
1.84833e-05
1.40089e-05
1.84443e-05
7.11396e-06
1.72617e-05
3.5219e-06
1.3987e-05
-2.45783e-07
1.2716e-05
-1.01194e-06
5.43869e-06
1.03079e-06
5.61591e-06
8.64829e-06
2.89206e-06
9.41315e-06
7.18293e-06
2.16704e-05
7.33482e-06
2.95622e-05
2.86654e-05
5.38353e-06
-3.73462e-05
1.17731e-05
-3.71203e-05
1.62757e-05
-3.54179e-05
2.61259e-05
-3.57332e-05
2.79554e-05
-2.7473e-05
3.09813e-05
-3.30097e-05
3.39352e-05
-1.96544e-05
3.55948e-05
-1.45143e-05
3.48398e-05
-2.01653e-06
3.19757e-05
9.87678e-06
2.88492e-05
1.79335e-05
2.3894e-05
2.29969e-05
2.03721e-05
2.20052e-05
1.69168e-05
2.18996e-05
1.42767e-05
1.99017e-05
1.08042e-05
1.74595e-05
9.77347e-06
1.37468e-05
8.27165e-06
6.94051e-06
7.25207e-06
6.63548e-06
4.30802e-06
5.83611e-06
1.32257e-05
-1.73477e-06
1.729e-05
3.27051e-06
1.63141e-05
3.05381e-05
1.62861e-06
-3.89748e-05
3.81131e-06
-3.9303e-05
5.62312e-06
-3.72297e-05
4.79633e-06
-3.49064e-05
4.54506e-06
-2.72217e-05
-1.67827e-06
-2.67863e-05
-6.91987e-06
-1.44128e-05
-1.5973e-05
-5.46122e-06
-1.80921e-05
1.02565e-07
-1.10181e-05
2.80283e-06
-2.65587e-07
7.18097e-06
2.67622e-06
2.00551e-05
8.61576e-06
1.60657e-05
1.09382e-05
1.95771e-05
7.37089e-06
2.34691e-05
6.62271e-06
1.82077e-05
5.40182e-06
1.49677e-05
4.11975e-06
8.22258e-06
5.40086e-06
5.35438e-06
1.21517e-05
-9.14725e-07
1.46592e-05
-4.24225e-06
2.23491e-05
-4.41942e-06
5.76083e-06
3.29024e-05
1.09862e-06
-4.00735e-05
2.10216e-06
-4.03065e-05
2.59632e-06
-3.77239e-05
5.32635e-07
-3.28427e-05
-3.1181e-07
-2.63773e-05
-5.7995e-06
-2.12986e-05
-1.46874e-05
-5.52488e-06
-3.50698e-05
1.49211e-05
-4.54451e-05
1.04779e-05
-4.95071e-05
6.86482e-06
-4.57995e-05
3.47339e-06
-2.43555e-05
-1.38888e-06
-3.0512e-05
2.22222e-05
-1.39593e-05
3.02435e-06
-1.09834e-05
2.04932e-05
-9.79467e-06
1.70189e-05
-8.42645e-06
1.35995e-05
-5.99272e-06
5.78885e-06
-7.5911e-07
1.20766e-07
8.02536e-06
-9.6992e-06
2.29999e-05
-1.92167e-05
3.53816e-05
-1.68012e-05
-5.17679e-06
4.63192e-05
2.38951e-07
-4.03124e-05
-1.48521e-07
-3.99191e-05
-7.05751e-07
-3.71666e-05
-2.74053e-06
-3.0808e-05
-7.22333e-06
-2.18945e-05
-2.13192e-05
-7.20279e-06
-3.07682e-05
3.92412e-06
-4.03456e-05
2.44985e-05
-5.40855e-05
2.42178e-05
-6.88722e-05
2.16516e-05
-7.14904e-05
6.09152e-06
-7.58008e-05
2.92152e-06
-5.26476e-05
-9.30899e-07
-5.96358e-05
1.00125e-05
-3.83265e-05
-8.16053e-07
-3.59208e-05
1.46131e-05
-2.81641e-05
5.84276e-06
-3.21956e-05
9.82035e-06
-1.80649e-05
-1.40099e-05
-1.8156e-06
-2.59485e-05
1.90563e-05
-4.00886e-05
2.89675e-05
-2.67124e-05
-2.46625e-05
4.84533e-05
-2.4878e-06
-3.78246e-05
-7.39664e-06
-3.50102e-05
-1.16934e-05
-3.28699e-05
-1.10971e-05
-3.14042e-05
-1.75031e-05
-1.54885e-05
-2.22372e-05
-2.46866e-06
-4.09806e-05
2.26676e-05
-4.24077e-05
2.59255e-05
-4.52463e-05
2.70565e-05
-3.25552e-05
8.96039e-06
-5.79182e-05
3.14546e-05
-7.3806e-05
1.88093e-05
-6.46195e-05
-1.01174e-05
-9.19493e-05
3.73422e-05
-8.72901e-05
-5.47515e-06
-7.41771e-05
1.50007e-06
-5.31177e-05
-1.52166e-05
-3.11513e-05
-1.21461e-05
-1.02476e-05
-3.49137e-05
7.15047e-06
-4.33465e-05
2.59717e-05
-5.89098e-05
5.04952e-05
-5.1236e-05
-2.55894e-05
5.14221e-05
-6.8846e-06
-3.094e-05
-1.55005e-05
-2.63943e-05
-2.87931e-05
-1.95774e-05
-3.3835e-05
-2.63623e-05
-4.28673e-05
-6.45628e-06
-4.62246e-05
8.88712e-07
-5.20455e-05
2.84885e-05
-5.48922e-05
2.87723e-05
-5.92171e-05
3.13813e-05
-6.50327e-05
1.4776e-05
-5.92323e-05
2.56543e-05
-5.68393e-05
1.64163e-05
-7.32924e-05
6.33574e-06
-4.25093e-05
6.55913e-06
-4.82046e-05
2.20075e-07
-2.57327e-05
-2.09718e-05
-1.86147e-05
-2.23346e-05
-4.66333e-06
-2.60975e-05
1.06415e-06
-4.06412e-05
2.48194e-06
-4.47643e-05
-1.06074e-05
-4.58205e-05
-1.92008e-05
-4.26426e-05
-4.27987e-05
-1.99153e-06
-1.37995e-05
-1.71405e-05
-1.81138e-05
-2.208e-05
-2.20042e-05
-1.56871e-05
-3.81946e-05
-1.01719e-05
-4.00366e-05
-4.61434e-06
-4.20117e-05
2.86384e-06
-2.74655e-05
1.39423e-05
-3.23326e-05
3.36393e-05
-2.47158e-05
2.37645e-05
-3.58815e-05
2.59417e-05
-4.88251e-05
3.85978e-05
-4.90546e-05
1.66458e-05
-3.98267e-05
-2.89207e-06
-4.53385e-05
1.2071e-05
-3.79125e-05
-7.20585e-06
-2.75934e-05
-3.12909e-05
-6.95732e-06
-4.29707e-05
9.04167e-08
-3.31455e-05
-9.87854e-07
-3.95633e-05
-1.26663e-05
-3.30861e-05
-1.57824e-05
-4.27044e-05
-3.03596e-05
-2.80655e-05
-4.68602e-05
-2.62982e-05
-1.45573e-05
-2.58321e-06
-1.86425e-05
-1.79949e-05
-2.09476e-05
-1.3382e-05
-3.28225e-05
1.7029e-06
-2.4925e-05
-1.25119e-05
-3.79818e-05
1.59206e-05
-4.60936e-05
2.20541e-05
-4.61314e-05
3.36771e-05
-5.06762e-05
2.83093e-05
-6.00956e-05
3.53612e-05
-3.74331e-05
1.59354e-05
-5.1586e-05
3.07988e-05
-4.85945e-05
-5.88342e-06
-4.15931e-05
5.06966e-06
-2.89158e-05
-1.9883e-05
-1.67544e-05
-4.34523e-05
-1.48156e-05
-4.49097e-05
-7.03531e-06
-4.09261e-05
-1.09786e-05
-3.56206e-05
-2.89698e-05
-1.50955e-05
-7.59472e-05
4.27294e-06
-9.26633e-05
-1.13494e-05
-5.42356e-05
-8.52882e-05
-1.01208e-05
7.53758e-06
-2.21753e-05
-5.94039e-06
-2.77489e-05
-7.80835e-06
-3.18336e-05
5.78756e-06
-4.05274e-05
-3.81804e-06
-3.86259e-05
1.40191e-05
-4.56516e-05
2.90798e-05
-4.49843e-05
3.30099e-05
-5.06794e-05
3.40044e-05
-3.65189e-05
2.12008e-05
-4.10294e-05
2.0446e-05
-5.77444e-05
4.7514e-05
-5.56155e-05
-8.01212e-06
-3.73017e-05
-1.32437e-05
-2.49831e-05
-3.22013e-05
-3.95557e-05
-2.88798e-05
-5.13222e-05
-3.31434e-05
-7.37413e-05
-1.85073e-05
-0.000100639
-8.7237e-06
-0.000129903
1.41678e-05
-0.000138813
1.31826e-05
-0.000156897
6.73503e-06
-2.00671e-05
-0.000191066
-8.65401e-06
1.61916e-05
-1.73783e-05
2.78388e-06
-1.96356e-05
-5.55108e-06
-2.38502e-05
1.00021e-05
-3.11897e-05
3.52153e-06
-3.7972e-05
2.08013e-05
-2.65083e-05
1.76161e-05
-4.24413e-05
4.89428e-05
-4.03272e-05
3.18904e-05
-6.73184e-05
4.81921e-05
-8.14956e-05
3.46234e-05
-5.97534e-05
2.5772e-05
-7.79203e-05
1.01552e-05
-8.60658e-05
-5.09772e-06
-9.8591e-05
-1.96758e-05
-0.000126727
-7.44193e-07
-0.000163543
3.6719e-06
-0.000182416
3.65342e-07
-0.000196655
5.51578e-06
-0.00019583
1.33427e-05
-0.000182924
2.76055e-07
-0.000169728
-6.46126e-06
-1.22563e-05
-0.000177539
-6.48616e-06
2.26777e-05
-1.0311e-05
6.60872e-06
-1.07122e-05
-5.14992e-06
-2.22773e-05
2.15672e-05
-2.82746e-05
9.51881e-06
-2.58156e-05
1.83424e-05
-3.15247e-05
2.33252e-05
-2.91953e-05
4.66134e-05
-5.86803e-05
6.13754e-05
-4.61325e-05
3.56444e-05
-8.84723e-05
7.69633e-05
-0.000124198
6.14978e-05
-0.000183665
6.96225e-05
-0.000310939
0.000122177
-0.000459898
0.000129284
-0.000556756
9.61138e-05
-0.000601319
4.82345e-05
-0.000638821
3.78675e-05
-0.000634267
9.61907e-07
-0.000579003
-4.19216e-05
-0.000534453
-4.42738e-05
-0.000495142
-4.57725e-05
-5.17729e-05
-0.000455625
-9.83373e-06
3.25114e-05
-6.71292e-06
3.48789e-06
-1.29068e-05
1.04395e-06
-1.80371e-05
2.66975e-05
-1.42553e-05
5.73695e-06
-3.0784e-05
3.48711e-05
-3.49768e-05
2.75181e-05
-5.32786e-05
6.49151e-05
-3.03814e-05
3.84782e-05
-6.78435e-05
7.31065e-05
-5.29859e-05
6.21059e-05
-9.14859e-05
9.99981e-05
-0.000104021
8.21578e-05
-0.000118806
0.000136962
-0.000130329
0.000140808
-0.000192165
0.00015795
-0.000198808
5.48771e-05
-0.000182408
2.14673e-05
-9.44184e-05
-8.70278e-05
-5.56014e-05
-8.07384e-05
-3.91262e-05
-6.07491e-05
-6.42245e-05
-2.06743e-05
-3.0963e-05
-8.50344e-05
-3.70514e-06
3.62166e-05
-5.10856e-06
4.89129e-06
-1.80468e-05
1.39822e-05
-1.2829e-05
2.14797e-05
-3.0679e-05
2.35869e-05
-1.82709e-05
2.2463e-05
-3.94871e-05
4.87343e-05
-2.25269e-05
4.79549e-05
-4.65731e-05
6.25244e-05
-1.57661e-05
4.22996e-05
-4.06541e-05
8.69941e-05
-2.58858e-05
8.52301e-05
-4.16043e-05
9.78767e-05
-9.83288e-06
0.000105191
7.65687e-06
0.000123318
5.07619e-05
0.000114844
6.00955e-05
4.55435e-05
5.47307e-05
2.6832e-05
2.01013e-05
-5.23987e-05
-1.17507e-05
-4.88864e-05
-3.73755e-05
-3.51242e-05
-5.87024e-05
6.52471e-07
-3.07145e-05
-5.89509e-05
-3.92083e-06
4.01374e-05
-6.12509e-06
7.09554e-06
-9.12772e-06
1.69848e-05
-1.81181e-05
3.047e-05
-1.8282e-05
2.37507e-05
-3.72892e-05
4.14702e-05
-2.25458e-05
3.39908e-05
-3.59446e-05
6.13538e-05
-3.36246e-05
6.02043e-05
-3.20254e-05
4.07004e-05
-2.87731e-05
8.37418e-05
-2.81404e-05
8.45976e-05
-6.21201e-06
7.59487e-05
1.11586e-05
8.78203e-05
3.48054e-05
9.96711e-05
7.28593e-05
7.67901e-05
7.24039e-05
4.59988e-05
7.6116e-05
2.31201e-05
4.38081e-05
-2.00909e-05
1.75214e-05
-2.25998e-05
-7.72109e-09
-1.7595e-05
-1.15787e-05
1.22234e-05
1.53227e-05
-5.7616e-05
8.66432e-06
3.1473e-05
-1.00276e-06
1.67626e-05
-1.43549e-05
3.03369e-05
-7.45415e-06
2.35693e-05
-2.52993e-05
4.15958e-05
-1.47519e-05
3.09228e-05
-4.1268e-05
6.05069e-05
-2.47549e-05
4.48406e-05
-2.50327e-05
6.04821e-05
-2.65325e-05
4.22003e-05
-2.25713e-05
7.97806e-05
-3.92991e-06
6.59563e-05
-1.23327e-05
8.43516e-05
1.78088e-05
5.76789e-05
3.50864e-05
8.23935e-05
4.23145e-05
6.95616e-05
5.96606e-05
2.86526e-05
5.94415e-05
2.33392e-05
4.93355e-05
-9.98479e-06
3.92164e-05
-1.24808e-05
2.06784e-05
9.43028e-07
2.30847e-05
9.81711e-06
3.55208e-05
2.88663e-06
-1.06625e-05
4.21355e-05
-7.7755e-06
1.38756e-05
-6.71306e-06
2.92744e-05
-5.61075e-06
2.2467e-05
-3.83524e-06
3.98203e-05
-1.7921e-05
4.50085e-05
-1.58107e-05
5.83967e-05
-2.91905e-05
5.82204e-05
-1.00356e-05
4.13271e-05
-4.81489e-06
3.69796e-05
-1.17354e-07
7.5083e-05
-1.87496e-05
8.45886e-05
-2.27793e-06
6.788e-05
8.26246e-06
4.71386e-05
3.1583e-05
5.9073e-05
4.20497e-05
5.90948e-05
4.11063e-05
2.95959e-05
5.16487e-05
1.27968e-05
5.24535e-05
-1.07896e-05
4.67296e-05
-6.75687e-06
4.43368e-05
3.33575e-06
2.63837e-05
2.77703e-05
3.35375e-05
2.83669e-05
-3.55204e-06
4.56875e-05
-9.36325e-06
1.96868e-05
-1.51671e-06
2.14279e-05
-3.27851e-06
2.42288e-05
-6.99833e-06
4.35401e-05
-6.0391e-06
4.40493e-05
-9.54711e-06
6.19047e-05
-1.35907e-05
6.2264e-05
-8.66212e-06
3.63985e-05
-5.65749e-06
3.39749e-05
-9.74149e-07
7.03997e-05
5.88873e-06
7.77257e-05
1.4997e-05
5.87717e-05
3.87383e-06
5.82618e-05
1.70288e-05
4.5918e-05
3.02321e-05
4.58914e-05
4.18833e-05
1.79447e-05
4.48093e-05
9.87079e-06
3.28874e-05
1.13226e-06
3.34332e-05
-7.30264e-06
3.48738e-05
1.89518e-06
5.74965e-05
5.14757e-06
3.77058e-05
5.33281e-05
-2.22492e-06
4.79124e-05
-3.31597e-06
2.07779e-05
-1.93742e-06
2.00493e-05
-1.03292e-05
3.26205e-05
-8.5327e-06
4.17436e-05
-1.27569e-05
4.82735e-05
-1.25899e-05
6.17377e-05
4.37061e-06
4.53035e-05
-1.12705e-05
5.20396e-05
-1.12293e-05
3.39337e-05
5.6639e-06
5.35065e-05
2.10528e-06
8.12843e-05
1.54667e-05
4.54103e-05
1.3897e-05
5.98315e-05
3.32546e-05
2.65604e-05
4.04107e-05
3.87352e-05
3.68246e-05
2.15308e-05
4.26325e-05
4.06289e-06
5.16665e-05
-7.9018e-06
5.35529e-05
-9.18899e-06
5.62525e-05
-8.04407e-07
5.55298e-05
5.87025e-06
4.67331e-05
4.65025e-05
-6.70815e-06
5.46206e-05
-3.2071e-06
1.72768e-05
-5.7611e-06
2.26033e-05
-6.87862e-06
3.3738e-05
-7.51635e-06
4.23813e-05
8.80887e-06
3.19482e-05
1.49612e-05
5.55854e-05
1.24746e-06
5.90172e-05
8.48319e-06
4.48039e-05
2.8162e-06
3.96006e-05
-1.18191e-05
6.81418e-05
1.73678e-05
5.20973e-05
1.51753e-05
4.76029e-05
1.64876e-05
5.85191e-05
2.51338e-05
1.79143e-05
3.24033e-05
3.14657e-05
3.94937e-05
1.44404e-05
4.25516e-05
1.00495e-06
5.00933e-05
-1.54435e-05
4.85313e-05
-7.62695e-06
5.29524e-05
-5.22555e-06
3.89932e-05
1.98295e-05
2.53537e-05
6.03726e-05
1.42058e-05
4.04148e-05
4.40078e-06
2.70817e-05
-9.84781e-06
3.68519e-05
3.47808e-07
2.35424e-05
2.00407e-06
4.07251e-05
8.93612e-07
3.30587e-05
2.74245e-06
5.37365e-05
2.129e-05
4.04696e-05
1.07454e-05
5.53485e-05
1.30886e-05
3.72574e-05
2.93634e-05
5.18669e-05
6.83647e-06
7.46243e-05
1.38594e-05
4.05799e-05
2.43124e-05
4.80661e-05
1.6344e-05
2.58826e-05
3.63317e-05
1.1478e-05
3.80933e-05
1.26787e-05
4.09959e-05
-1.89762e-06
2.9724e-05
-4.17172e-06
4.03205e-05
-1.82234e-05
3.81378e-05
-3.04285e-06
3.11968e-05
2.67705e-05
1.9722e-05
3.68284e-05
-1.9719e-05
6.01339e-05
-1.02278e-05
1.75905e-05
-4.45409e-06
3.10782e-05
-3.22165e-06
2.23099e-05
-1.45039e-06
3.89538e-05
-4.01734e-07
3.201e-05
1.85804e-05
3.47544e-05
1.45098e-05
4.45402e-05
2.9484e-05
4.03743e-05
2.32924e-05
4.34491e-05
1.77195e-05
5.74398e-05
4.6726e-05
4.56178e-05
3.35231e-05
5.37827e-05
3.47296e-05
4.68595e-05
3.81875e-05
2.24248e-05
3.94503e-05
1.02152e-05
4.31323e-05
8.99675e-06
4.36417e-05
-2.40709e-06
4.48308e-05
-5.36086e-06
4.29018e-05
-1.62944e-05
4.4999e-05
-5.14006e-06
5.21163e-05
1.96532e-05
6.30031e-06
6.5538e-05
6.32519e-06
5.38087e-05
5.246e-06
1.86697e-05
6.55519e-06
2.9769e-05
3.36335e-07
2.85288e-05
1.47388e-06
3.78162e-05
7.7374e-06
2.57465e-05
1.31726e-05
2.93192e-05
2.78716e-05
2.98412e-05
8.72371e-06
5.95222e-05
1.44147e-05
3.77581e-05
4.18599e-05
2.99945e-05
1.50917e-05
7.2386e-05
2.7695e-05
4.11794e-05
1.95223e-05
5.50323e-05
2.54194e-05
1.65276e-05
2.96458e-05
5.98874e-06
2.72433e-05
1.13992e-05
2.49679e-05
-1.31684e-07
3.65785e-05
-1.69714e-05
3.74035e-05
-1.71194e-05
3.69612e-05
-4.69782e-06
5.09835e-05
5.63096e-06
1.12314e-05
4.60524e-05
1.55019e-05
3.83068e-05
7.36734e-06
2.68042e-05
1.1574e-05
2.55623e-05
3.5246e-06
3.65782e-05
9.98374e-06
3.13571e-05
1.10919e-05
2.46383e-05
1.18999e-05
2.85111e-05
1.67346e-05
2.50065e-05
3.20514e-05
4.42054e-05
3.44904e-05
3.5319e-05
1.60665e-05
4.84184e-05
3.29671e-05
5.54854e-05
2.91684e-05
4.4978e-05
4.15938e-05
4.26069e-05
4.44395e-05
1.36819e-05
3.53238e-05
1.51044e-05
4.96199e-05
-2.8969e-06
4.51168e-05
4.37142e-06
4.36267e-05
-1.54814e-05
3.75082e-05
-1.10008e-05
3.67259e-05
-3.91552e-06
4.24405e-05
-8.36626e-08
1.39865e-05
3.96853e-05
2.40801e-06
3.58988e-05
2.60846e-06
2.66037e-05
3.37886e-06
2.47918e-05
1.56669e-05
2.42902e-05
6.2836e-06
4.07403e-05
7.85825e-06
2.30637e-05
1.14718e-05
2.48976e-05
9.73102e-06
2.67472e-05
1.48139e-05
3.91225e-05
2.30316e-05
2.71012e-05
2.2099e-05
4.9351e-05
4.42347e-05
3.33497e-05
3.50196e-05
5.41931e-05
4.31935e-05
3.44331e-05
3.76563e-05
1.92191e-05
3.66535e-05
1.61073e-05
3.68668e-05
-3.11022e-06
4.05525e-05
6.85725e-07
3.58501e-05
-1.0779e-05
3.02371e-05
-5.38794e-06
3.24889e-05
-6.16724e-06
3.59075e-05
-3.50233e-06
5.45287e-06
4.44411e-05
3.15697e-06
3.27418e-05
4.56957e-06
2.51911e-05
4.526e-06
2.48354e-05
3.51159e-06
2.53046e-05
1.67478e-05
2.75041e-05
1.62655e-05
2.3546e-05
1.55968e-05
2.55663e-05
1.68813e-05
2.54627e-05
2.95823e-05
2.64215e-05
3.05199e-05
2.61637e-05
3.21254e-05
4.77455e-05
3.82086e-05
2.72665e-05
4.75489e-05
4.48528e-05
4.47554e-05
3.72266e-05
5.29285e-05
1.10459e-05
3.28028e-05
3.62329e-05
3.20795e-05
-2.38694e-06
2.63205e-05
6.44471e-06
2.523e-05
-9.68853e-06
2.78516e-05
-8.00946e-06
3.25072e-05
-1.08229e-05
3.71757e-05
-8.17089e-06
1.31429e-06
4.13143e-05
2.61857e-06
3.01232e-05
4.9252e-06
2.28844e-05
6.976e-06
2.27846e-05
1.01007e-05
2.21799e-05
1.22045e-05
2.54003e-05
1.40333e-05
2.17172e-05
1.62406e-05
2.33589e-05
1.94455e-05
2.22578e-05
2.16718e-05
2.41952e-05
2.54246e-05
2.24109e-05
2.97465e-05
4.34236e-05
3.523e-05
2.1783e-05
4.25956e-05
3.74872e-05
4.47322e-05
3.50899e-05
3.01986e-05
2.55795e-05
3.27417e-05
3.36898e-05
3.53056e-05
-4.95088e-06
4.16243e-05
1.25988e-07
4.16662e-05
-9.7304e-06
3.55118e-05
-1.85507e-06
4.212e-05
-1.74311e-05
4.55761e-05
-1.1627e-05
-4.8218e-06
5.17122e-05
2.20919e-06
2.7914e-05
3.19386e-06
2.18998e-05
5.29695e-06
2.06815e-05
7.13345e-06
2.03434e-05
1.27584e-05
1.97753e-05
1.4912e-05
1.95635e-05
1.7844e-05
2.0427e-05
2.03861e-05
1.97157e-05
2.35954e-05
2.09859e-05
2.60304e-05
1.99758e-05
2.78544e-05
4.15997e-05
2.99259e-05
1.97114e-05
4.3016e-05
2.43971e-05
4.65112e-05
3.15947e-05
3.36786e-05
3.84121e-05
5.87723e-05
8.59617e-06
4.09547e-05
1.28667e-05
5.47844e-05
-1.37038e-05
4.97614e-05
-4.7074e-06
5.40202e-05
-6.11384e-06
4.49011e-05
-8.312e-06
4.95142e-05
-1.62401e-05
-4.91839e-06
4.96108e-05
2.92002e-06
2.4994e-05
5.42952e-06
1.93903e-05
8.10121e-06
1.80098e-05
1.05633e-05
1.78813e-05
1.30891e-05
1.72495e-05
1.53822e-05
1.72704e-05
1.77005e-05
1.81087e-05
2.014e-05
1.72762e-05
2.28519e-05
1.8274e-05
2.57236e-05
1.71041e-05
3.094e-05
3.63833e-05
3.44261e-05
1.62253e-05
3.82269e-05
2.05963e-05
4.53296e-05
2.4492e-05
4.95295e-05
3.42122e-05
5.35891e-05
4.53658e-06
3.98103e-05
2.66454e-05
4.64723e-05
-2.03657e-05
4.51743e-05
-3.40937e-06
5.43436e-05
-1.52831e-05
4.58382e-05
1.9331e-07
5.38127e-05
-2.42145e-05
-4.72156e-06
5.36158e-05
3.17211e-06
2.18219e-05
6.22534e-06
1.6337e-05
8.97027e-06
1.52648e-05
1.1742e-05
1.51096e-05
1.38786e-05
1.51129e-05
1.64775e-05
1.46714e-05
1.91579e-05
1.54284e-05
2.17106e-05
1.47234e-05
2.44e-05
1.55845e-05
2.66996e-05
1.48045e-05
3.20123e-05
3.10706e-05
3.45864e-05
1.36512e-05
3.93124e-05
1.58703e-05
4.46356e-05
1.91688e-05
5.43678e-05
2.448e-05
3.72698e-05
2.16345e-05
6.08433e-05
3.07195e-06
5.24672e-05
-1.19896e-05
6.24148e-05
-1.3357e-05
5.77794e-05
-1.06477e-05
6.99224e-05
-1.19497e-05
5.43762e-05
-8.66828e-06
-1.38652e-05
6.35198e-05
3.0475e-06
1.87744e-05
5.63348e-06
1.3751e-05
7.96321e-06
1.29351e-05
1.03357e-05
1.27371e-05
1.27731e-05
1.26755e-05
1.51077e-05
1.23368e-05
1.75442e-05
1.29918e-05
1.97838e-05
1.24839e-05
2.23065e-05
1.30618e-05
2.41582e-05
1.29528e-05
2.85929e-05
2.66358e-05
2.91342e-05
1.31099e-05
3.11666e-05
1.38379e-05
2.49625e-05
2.53728e-05
3.08597e-05
1.85829e-05
3.17619e-05
2.07322e-05
4.87486e-05
-1.39147e-05
4.63677e-05
-9.60879e-06
3.59364e-05
-2.92562e-06
4.14465e-05
-1.61579e-05
4.56394e-05
-1.61426e-05
5.38776e-05
-1.69065e-05
-1.44088e-05
5.44212e-05
3.14391e-06
1.56304e-05
5.72204e-06
1.11729e-05
7.97982e-06
1.06773e-05
1.03351e-05
1.03818e-05
1.26168e-05
1.03937e-05
1.48915e-05
1.00622e-05
1.71783e-05
1.0705e-05
1.93353e-05
1.03269e-05
2.17687e-05
1.06285e-05
2.37205e-05
1.1001e-05
2.85211e-05
2.18351e-05
2.95116e-05
1.21194e-05
3.23946e-05
1.0955e-05
2.87897e-05
2.89777e-05
3.66263e-05
1.07463e-05
5.5211e-05
2.1475e-06
4.94043e-05
-8.108e-06
4.12394e-05
-1.44386e-06
4.42113e-05
-5.89754e-06
6.52467e-05
-3.71933e-05
6.34319e-05
-1.43278e-05
5.48537e-05
-8.32835e-06
-2.25366e-05
6.29815e-05
2.65719e-06
1.29733e-05
4.83028e-06
8.99981e-06
6.88696e-06
8.62064e-06
8.98038e-06
8.28842e-06
1.1155e-05
8.21909e-06
1.34269e-05
7.79033e-06
1.58518e-05
8.28004e-06
1.81987e-05
7.97992e-06
2.04978e-05
8.32934e-06
2.32134e-05
8.28546e-06
2.90163e-05
1.60322e-05
3.24184e-05
8.71721e-06
3.70826e-05
6.29079e-06
4.43522e-05
2.1708e-05
4.39341e-05
1.11644e-05
4.91217e-05
-3.04016e-06
3.90597e-05
1.95403e-06
6.05876e-05
-2.29718e-05
6.34051e-05
-8.71506e-06
4.59345e-05
-1.97227e-05
6.93544e-05
-3.77476e-05
7.61103e-05
-1.50842e-05
-3.10028e-05
8.45765e-05
2.54845e-06
1.04248e-05
4.53177e-06
7.0165e-06
6.46126e-06
6.69115e-06
8.45226e-06
6.29742e-06
1.0343e-05
6.32836e-06
1.23647e-05
5.76866e-06
1.44174e-05
6.22725e-06
1.67214e-05
5.67594e-06
1.84164e-05
6.63435e-06
2.13694e-05
5.33248e-06
2.47548e-05
1.26469e-05
2.78838e-05
5.58822e-06
2.19504e-05
1.22241e-05
2.68438e-05
1.68146e-05
2.88173e-05
9.19094e-06
3.10948e-05
-5.31768e-06
5.13711e-05
-1.83223e-05
5.29883e-05
-2.4589e-05
5.71483e-05
-1.28751e-05
5.23775e-05
-1.4952e-05
6.94901e-05
-5.48601e-05
6.751e-05
-1.31041e-05
-3.76896e-05
7.41967e-05
2.19622e-06
8.22859e-06
3.796e-06
5.41672e-06
5.41414e-06
5.07302e-06
7.02991e-06
4.68166e-06
8.68414e-06
4.67413e-06
1.05109e-05
3.94187e-06
1.25278e-05
4.21037e-06
1.48611e-05
3.34266e-06
1.68571e-05
4.63833e-06
1.92815e-05
2.90808e-06
2.25426e-05
9.38582e-06
2.79599e-05
1.70939e-07
2.33696e-05
1.68144e-05
2.55171e-05
1.46671e-05
3.87537e-05
-4.04559e-06
4.43826e-05
-1.09466e-05
5.007e-05
-2.40097e-05
3.50979e-05
-9.61692e-06
5.38841e-05
-3.16612e-05
4.11743e-05
-2.24216e-06
3.94914e-05
-5.31772e-05
4.19197e-05
-1.55324e-05
-5.41785e-05
5.84086e-05
1.97286e-06
6.25573e-06
3.57193e-06
3.81766e-06
5.24788e-06
3.39708e-06
6.81019e-06
3.11935e-06
8.40993e-06
3.0744e-06
9.93948e-06
2.41232e-06
1.1716e-05
2.43387e-06
1.33773e-05
1.68133e-06
1.55101e-05
2.50552e-06
1.76093e-05
8.08954e-07
2.10058e-05
5.98933e-06
1.96907e-05
1.48604e-06
2.5084e-05
1.14211e-05
4.15704e-05
-1.81929e-06
4.0543e-05
-3.01822e-06
4.5314e-05
-1.57176e-05
3.06238e-05
-9.31944e-06
3.73849e-05
-1.6378e-05
3.67279e-05
-3.10042e-05
5.84087e-05
-2.39229e-05
3.45441e-05
-2.93127e-05
6.95448e-05
-5.0533e-05
-3.73759e-05
5.27423e-05
1.76225e-06
4.49348e-06
3.1283e-06
2.45162e-06
4.41504e-06
2.11035e-06
5.63065e-06
1.90374e-06
7.07979e-06
1.62527e-06
8.28514e-06
1.20698e-06
9.71057e-06
1.00844e-06
1.12915e-05
1.00416e-07
1.30985e-05
6.9851e-07
1.40588e-05
-1.51375e-07
1.72781e-05
2.77008e-06
1.67625e-05
2.00165e-06
1.97385e-05
8.44508e-06
3.2907e-05
-1.49878e-05
3.24504e-05
-2.56166e-06
2.4544e-05
-7.81124e-06
2.70897e-05
-1.18651e-05
2.95026e-05
-1.8791e-05
3.66662e-05
-3.81678e-05
4.48456e-05
-3.21023e-05
3.89316e-05
-2.33987e-05
5.53459e-05
-6.69474e-05
-3.36862e-05
5.16562e-05
1.46859e-06
3.02489e-06
2.6964e-06
1.22382e-06
4.09698e-06
7.09779e-07
5.20177e-06
7.98961e-07
6.73483e-06
9.22085e-08
7.71875e-06
2.23073e-07
9.44576e-06
-7.18574e-07
9.97559e-06
-4.29406e-07
1.22993e-05
-1.62524e-06
1.07327e-05
1.41528e-06