/*--------------------------------*- C++ -*----------------------------------*\
| =========                 |                                                 |
| \\      /  F ield         | foam-extend: Open Source CFD                    |
|  \\    /   O peration     | Version:     4.1                                |
|   \\  /    A nd           | Web:         http://www.foam-extend.org         |
|    \\/     M anipulation  |                                                 |
\*---------------------------------------------------------------------------*/
FoamFile
{
    version     2.0;
    format      ascii;
    class       surfaceScalarField;
    location    "0.5";
    object      phi_0;
}
// * * * * * * * * * * * * * * * * * * * * * * * * * * * * * * * * * * * * * //

dimensions      [0 3 -1 0 0 0 0];

internalField   nonuniform List<scalar> 
4432
(
3.32777e-06
-3.32777e-06
5.69694e-06
-2.36917e-06
8.69068e-06
-2.99374e-06
1.14193e-05
-2.72858e-06
1.41653e-05
-2.74605e-06
1.58829e-05
-1.71757e-06
1.71625e-05
-1.27966e-06
1.74951e-05
-3.32531e-07
1.68131e-05
6.81961e-07
1.3419e-05
3.39408e-06
2.2694e-05
-9.275e-06
2.36844e-05
-9.90382e-07
2.44781e-05
-7.93673e-07
2.41399e-05
3.38219e-07
2.29469e-05
1.19299e-06
2.14959e-05
1.45094e-06
2.20621e-05
-5.66172e-07
1.9276e-05
2.78608e-06
1.67874e-05
2.48867e-06
1.30762e-05
3.71115e-06
9.93694e-06
3.13926e-06
4.76489e-06
5.17205e-06
4.76489e-06
3.26398e-06
-6.59174e-06
5.75347e-06
-4.85866e-06
8.81097e-06
-6.05124e-06
1.13889e-05
-5.30648e-06
1.41095e-05
-5.46666e-06
1.61691e-05
-3.77718e-06
1.77053e-05
-2.81589e-06
1.83175e-05
-9.44682e-07
1.76976e-05
1.30185e-06
2.81964e-05
-7.10473e-06
2.60159e-05
-7.09455e-06
2.64578e-05
-1.43223e-06
2.63293e-05
-6.65186e-07
2.57141e-05
9.53422e-07
2.39498e-05
2.95728e-06
2.2431e-05
2.9697e-06
1.28182e-05
9.04665e-06
1.2238e-05
3.36629e-06
1.02715e-05
4.45518e-06
1.23083e-05
1.67433e-06
8.35563e-06
7.09196e-06
5.45177e-06
8.07591e-06
1.02167e-05
2.97567e-06
-9.56742e-06
5.72813e-06
-7.61112e-06
9.01361e-06
-9.33671e-06
1.13026e-05
-7.59546e-06
1.42829e-05
-8.44694e-06
1.66062e-05
-6.10046e-06
1.78752e-05
-4.0849e-06
1.88587e-05
-1.92825e-06
1.73487e-05
2.81187e-06
2.62387e-05
-1.59947e-05
2.45896e-05
-5.44547e-06
2.41023e-05
-9.44859e-07
2.30759e-05
3.61175e-07
2.21286e-05
1.90072e-06
2.10041e-05
4.0818e-06
1.99548e-05
4.01905e-06
2.18591e-05
7.14226e-06
2.1024e-05
4.20146e-06
1.90147e-05
6.46441e-06
1.49536e-05
5.73551e-06
1.12372e-05
1.08084e-05
4.83334e-06
1.44797e-05
1.505e-05
2.7102e-06
-1.22776e-05
5.88658e-06
-1.07875e-05
9.33811e-06
-1.27882e-05
1.16651e-05
-9.92242e-06
1.47628e-05
-1.15446e-05
1.66222e-05
-7.95986e-06
1.8407e-05
-5.86971e-06
1.8513e-05
-2.03423e-06
2.94279e-05
-8.10306e-06
2.4738e-05
-1.13048e-05
2.2244e-05
-2.95153e-06
1.90149e-05
2.28426e-06
1.66188e-05
2.75723e-06
1.50491e-05
3.47051e-06
1.48815e-05
4.24935e-06
1.42992e-05
4.60136e-06
1.51235e-05
6.31799e-06
1.51572e-05
4.16771e-06
1.51386e-05
6.48306e-06
1.21135e-05
8.76062e-06
9.64828e-06
1.32735e-05
4.99801e-06
1.913e-05
2.0048e-05
2.64299e-06
-1.49206e-05
6.02916e-06
-1.41737e-05
9.51231e-06
-1.62714e-05
1.20983e-05
-1.25084e-05
1.47594e-05
-1.42058e-05
1.60981e-05
-9.29853e-06
1.82905e-05
-8.06208e-06
1.77601e-05
-1.50385e-06
2.60878e-05
-1.64308e-05
2.11483e-05
-6.36527e-06
1.8135e-05
6.17808e-08
1.49384e-05
5.48086e-06
1.29333e-05
4.76233e-06
1.09615e-05
5.44223e-06
9.70692e-06
5.50398e-06
8.16972e-06
6.13856e-06
7.67542e-06
6.81229e-06
6.8994e-06
4.94373e-06
7.59143e-06
5.79103e-06
7.84294e-06
8.50912e-06
7.55744e-06
1.3559e-05
4.29786e-06
2.23896e-05
2.43459e-05
3.01763e-06
-1.79382e-05
6.43462e-06
-1.75906e-05
9.76419e-06
-1.9601e-05
1.20441e-05
-1.47883e-05
1.44788e-05
-1.66405e-05
1.68489e-05
-1.16686e-05
1.71406e-05
-8.35383e-06
2.60651e-05
-1.04284e-05
2.11417e-05
-1.15074e-05
1.8575e-05
-3.79858e-06
1.49888e-05
3.64802e-06
1.23109e-05
8.15877e-06
1.03559e-05
6.71728e-06
8.48132e-06
7.31686e-06
7.0953e-06
6.89e-06
5.13325e-06
8.1006e-06
4.64411e-06
7.30143e-06
4.30507e-06
5.28277e-06
3.29552e-06
6.80057e-06
1.32418e-06
1.04805e-05
5.69691e-06
9.1863e-06
4.01967e-06
2.40668e-05
2.83656e-05
3.3907e-06
-2.13289e-05
6.60746e-06
-2.08074e-05
9.6292e-06
-2.26227e-05
1.20388e-05
-1.71979e-05
1.47491e-05
-1.93508e-05
1.56908e-05
-1.26103e-05
1.46027e-05
-7.26578e-06
2.22189e-05
-1.80446e-05
1.95133e-05
-8.8018e-06
1.71684e-05
-1.45366e-06
1.39624e-05
6.85397e-06
1.20781e-05
1.00431e-05
1.02847e-05
8.51066e-06
6.30571e-06
1.12959e-05
4.52829e-06
8.66742e-06
3.48145e-06
9.14745e-06
2.14942e-06
8.63347e-06
1.8149e-06
5.61729e-06
1.6391e-06
6.97637e-06
3.36003e-06
8.75953e-06
2.1218e-06
1.04245e-05
3.34479e-06
2.28438e-05
3.17103e-05
3.54885e-06
-2.48778e-05
6.78733e-06
-2.40459e-05
9.81992e-06
-2.56553e-05
1.21904e-05
-1.95683e-05
1.49966e-05
-2.2157e-05
1.47174e-05
-1.2331e-05
2.38402e-05
-1.63886e-05
2.10654e-05
-1.52697e-05
1.92581e-05
-6.99455e-06
1.64607e-05
1.34375e-06
1.32563e-05
1.00584e-05
1.0299e-05
1.30005e-05
8.00147e-06
1.08081e-05
5.93054e-06
1.33668e-05
4.21531e-06
1.03826e-05
2.84663e-06
1.05161e-05
2.425e-06
9.05509e-06
3.25152e-06
4.79076e-06
2.38001e-06
7.84788e-06
2.9161e-07
1.08479e-05
2.87989e-06
7.83625e-06
5.52771e-06
2.0196e-05
3.72381e-05
-0.000158848
0.000158848
-0.000295304
0.000136456
-0.000307997
1.26929e-05
-0.000288291
-1.97059e-05
-0.000265246
-2.30458e-05
-0.000247167
-1.80788e-05
-0.00024455
-2.61713e-06
-0.00023838
-6.17024e-06
-0.00022154
-1.68398e-05
-0.00020545
-1.60894e-05
-0.000202927
-2.52364e-06
-0.000202222
-7.05118e-07
-0.000208081
5.8599e-06
-0.000194577
-1.35046e-05
-0.000126614
-6.79632e-05
-0.000113152
-1.34615e-05
-0.000165552
5.24001e-05
-0.000108644
-5.69081e-05
-0.000108644
-0.000110705
0.000269553
-0.000141376
0.000167128
-0.000103729
-2.49541e-05
-0.000100581
-2.28535e-05
-5.35938e-05
-7.00332e-05
-8.27742e-05
1.11016e-05
-8.32971e-05
-2.09426e-06
-9.05851e-05
1.11768e-06
-0.000105271
-2.15348e-06
-0.000126411
5.05017e-06
-0.000159521
3.0586e-05
-0.000184382
2.41562e-05
-0.000121755
-5.6767e-05
-0.000117273
-1.79871e-05
-0.000125344
-5.98918e-05
-0.00011805
-2.07557e-05
-8.48374e-05
1.91879e-05
-8.07942e-05
-6.09513e-05
-0.000189438
-6.50446e-05
0.000334597
-8.42304e-05
0.000186313
-8.13421e-05
-2.78422e-05
-5.15455e-05
-5.26501e-05
-6.8887e-05
-5.26917e-05
-4.18586e-05
-1.59269e-05
-3.55106e-05
-8.44233e-06
-6.10672e-05
2.66743e-05
-9.39537e-05
3.0733e-05
-0.00012502
3.61166e-05
-0.000145327
5.0893e-05
-0.000142985
2.18142e-05
-0.000152655
-4.70973e-05
-9.55485e-05
-7.50934e-05
-0.000110464
-4.49766e-05
-0.000107768
-2.34513e-05
-7.96571e-05
-8.9231e-06
-5.65099e-05
-8.40986e-05
-0.000245948
-3.86806e-05
0.000373278
-2.36875e-05
0.00017132
-2.30257e-05
-2.85039e-05
-1.32638e-05
-6.24121e-05
1.06505e-05
-7.66061e-05
5.18363e-05
-5.71127e-05
5.70862e-05
-1.36923e-05
1.12709e-05
7.24896e-05
-4.05771e-05
8.25809e-05
-6.66077e-05
6.21471e-05
-7.32103e-05
5.74956e-05
-5.67499e-05
5.35374e-06
-3.95208e-05
-6.43264e-05
-5.48777e-05
-5.97364e-05
-5.52598e-05
-4.45945e-05
-0.000114462
3.5751e-05
-5.97299e-05
-6.36552e-05
-5.27013e-05
-9.11272e-05
-0.000298649
4.43103e-06
0.000368847
9.54865e-05
8.02649e-05
3.90038e-05
2.79788e-05
5.568e-05
-7.90883e-05
7.63356e-05
-9.72618e-05
9.82148e-05
-7.89919e-05
0.000107282
-2.27597e-05
4.38336e-05
0.000135938
1.48039e-06
0.000124934
-1.5082e-05
7.87095e-05
-2.525e-05
6.76637e-05
-1.82126e-05
-1.68372e-06
-3.55056e-05
-4.70334e-05
-1.42781e-05
-8.0964e-05
-3.54969e-05
-2.33758e-05
-4.64713e-05
4.67254e-05
-4.53984e-05
-6.4728e-05
-3.16741e-05
-0.000104851
-0.000330323
3.81925e-05
0.000330655
6.82679e-05
5.01894e-05
5.11668e-05
4.50801e-05
4.14801e-05
-6.94016e-05
9.94691e-05
-0.000155251
0.000124581
-0.000104103
0.000152343
-5.0522e-05
0.000129056
0.000159225
0.000103485
0.000150505
7.00465e-05
0.000112148
1.7007e-05
0.000120703
-2.70654e-05
4.23885e-05
-3.20111e-05
-4.20876e-05
-1.50104e-05
-9.79647e-05
-2.59605e-05
-1.24256e-05
-3.62304e-05
5.69953e-05
-3.7086e-05
-6.38724e-05
-1.94714e-05
-0.000122466
-0.000349795
5.84711e-05
0.000272184
6.15968e-05
4.70637e-05
8.28098e-05
2.38672e-05
8.22267e-05
-6.88185e-05
7.16269e-05
-0.000144651
5.34275e-05
-8.5904e-05
7.97297e-05
-7.68242e-05
0.000137784
0.00010117
0.000139749
0.000148541
0.000120762
0.000131134
5.80659e-05
0.000183399
-1.83675e-06
0.000102291
-9.587e-06
-3.43374e-05
1.6909e-06
-0.000109243
-9.67543e-06
-1.05932e-06
-1.41887e-05
6.15086e-05
-1.89092e-05
-5.91518e-05
-1.2929e-05
-0.000128446
-0.000362724
7.98509e-05
0.000192333
5.44282e-05
7.24865e-05
8.47972e-05
-6.50184e-06
7.92912e-05
-6.33125e-05
3.2674e-05
-9.80339e-05
4.07391e-05
-9.3969e-05
6.04492e-05
-9.65344e-05
0.000140227
2.13927e-05
0.000158605
0.000130162
8.46301e-05
0.000205109
4.07977e-05
0.000227232
6.01516e-06
0.000137074
-8.89008e-07
-2.74332e-05
3.77661e-06
-0.000113908
9.38158e-06
-6.66431e-06
1.12384e-05
5.96518e-05
-1.96839e-06
-4.59448e-05
-7.12659e-06
-0.000123288
-0.00036985
7.11581e-06
-3.19936e-05
1.38493e-05
-3.07794e-05
1.91828e-05
-3.09888e-05
2.55727e-05
-2.59582e-05
2.91968e-05
-2.57811e-05
4.70703e-05
-3.02045e-05
4.77389e-05
-1.70572e-05
4.57036e-05
-1.32344e-05
4.19655e-05
-3.25648e-06
3.67262e-05
6.58303e-06
3.22905e-05
1.44941e-05
2.74374e-05
1.78535e-05
1.98312e-05
1.84144e-05
1.47364e-05
1.84616e-05
7.80201e-06
1.7317e-05
4.17333e-06
1.41448e-05
3.15532e-07
1.29129e-05
-5.33854e-07
5.64015e-06
1.57912e-06
5.73491e-06
9.35834e-06
3.06871e-06
9.72934e-06
7.46524e-06
2.23146e-05
7.61074e-06
3.02609e-05
2.92917e-05
5.43599e-06
-3.74296e-05
1.1876e-05
-3.72195e-05
1.64349e-05
-3.55476e-05
2.649e-05
-3.60134e-05
2.84767e-05
-2.77678e-05
3.16131e-05
-3.33409e-05
3.46497e-05
-2.00938e-05
3.63454e-05
-1.49301e-05
3.56558e-05
-2.56693e-06
3.28493e-05
9.38962e-06
2.97275e-05
1.76158e-05
2.47755e-05
2.28055e-05
2.12039e-05
2.19861e-05
1.76995e-05
2.1966e-05
1.50111e-05
2.00054e-05
1.1488e-05
1.76679e-05
1.04248e-05
1.39762e-05
8.9509e-06
7.11403e-06
7.80644e-06
6.87937e-06
4.64591e-06
6.22924e-06
1.36614e-05
-1.55025e-06
1.77652e-05
3.50696e-06
1.66857e-05
3.13404e-05
1.67628e-06
-3.91059e-05
3.92091e-06
-3.94641e-05
5.80658e-06
-3.74333e-05
5.04634e-06
-3.52531e-05
4.88535e-06
-2.76068e-05
-1.1762e-06
-2.72794e-05
-6.36876e-06
-1.49013e-05
-1.50814e-05
-6.21744e-06
-1.72446e-05
-4.03707e-07
-1.03529e-05
2.49793e-06
3.67446e-07
6.89542e-06
3.38022e-06
1.97928e-05
9.34614e-06
1.60201e-05
1.16503e-05
1.96618e-05
8.06269e-06
2.3593e-05
7.29169e-06
1.84389e-05
6.04053e-06
1.52273e-05
4.70097e-06
8.45358e-06
6.03362e-06
5.54673e-06
1.2874e-05
-6.1116e-07
1.50968e-05
-3.77308e-06
2.27669e-05
-4.16307e-06
6.07688e-06
3.33757e-05
1.14772e-06
-4.02536e-05
2.2006e-06
-4.0517e-05
2.80615e-06
-3.80389e-05
8.59815e-07
-3.33068e-05
9.35044e-08
-2.68405e-05
-5.30839e-06
-2.18775e-05
-1.39947e-05
-6.21497e-06
-3.40301e-05
1.3818e-05
-4.45666e-05
1.01328e-05
-4.88794e-05
6.81074e-06
-4.54012e-05
3.41716e-06
-2.4074e-05
-1.53436e-06
-3.00412e-05
2.19873e-05
-1.34203e-05
3.04094e-06
-1.04717e-05
2.06444e-05
-9.30142e-06
1.72686e-05
-7.90629e-06
1.38322e-05
-5.41744e-06
5.96474e-06
-1.3445e-07
2.63734e-07
8.70467e-06
-9.45028e-06
2.35969e-05
-1.86653e-05
3.60255e-05
-1.65917e-05
-5.06254e-06
4.7165e-05
3.10721e-07
-4.05643e-05
1.18183e-08
-4.02181e-05
-5.41161e-07
-3.74859e-05
-2.46695e-06
-3.1381e-05
-6.74006e-06
-2.25674e-05
-2.02568e-05
-8.36075e-06
-2.95628e-05
3.09107e-06
-3.9162e-05
2.34172e-05
-5.28342e-05
2.38049e-05
-6.76232e-05
2.15997e-05
-7.04084e-05
6.20242e-06
-7.50513e-05
3.10847e-06
-5.21352e-05
-9.28838e-07
-5.94078e-05
1.03136e-05
-3.82313e-05
-5.32052e-07
-3.5869e-05
1.49062e-05
-2.81235e-05
6.08673e-06
-3.19438e-05
9.785e-06
-1.75798e-05
-1.41002e-05
-1.55977e-06
-2.54703e-05
1.9331e-05
-3.95561e-05
2.92733e-05
-2.6534e-05
-2.46423e-05
4.88531e-05
-2.33831e-06
-3.8226e-05
-7.09392e-06
-3.54625e-05
-1.12337e-05
-3.33461e-05
-1.07353e-05
-3.18794e-05
-1.70854e-05
-1.62173e-05
-2.15931e-05
-3.85308e-06
-4.00958e-05
2.15938e-05
-4.17727e-05
2.50942e-05
-4.45933e-05
2.66255e-05
-3.19174e-05
8.92378e-06
-5.68736e-05
3.11586e-05
-7.29719e-05
1.92068e-05
-6.44759e-05
-9.42477e-06
-9.20659e-05
3.79036e-05
-8.76292e-05
-4.96873e-06
-7.45867e-05
1.86375e-06
-5.35097e-05
-1.49903e-05
-3.12532e-05
-1.24715e-05
-1.01006e-05
-3.52529e-05
7.65414e-06
-4.3225e-05
2.67734e-05
-5.86753e-05
5.17769e-05
-5.15375e-05
-2.53769e-05
5.25114e-05
-6.75757e-06
-3.14684e-05
-1.52691e-05
-2.69509e-05
-2.83486e-05
-2.02667e-05
-3.3296e-05
-2.6932e-05
-4.22188e-05
-7.29448e-06
-4.55424e-05
-5.29513e-07
-5.13703e-05
2.74217e-05
-5.42916e-05
2.80155e-05
-5.86023e-05
3.09363e-05
-6.43278e-05
1.46494e-05
-5.86425e-05
2.54733e-05
-5.62921e-05
1.68564e-05
-7.30835e-05
7.36661e-06
-4.24199e-05
7.23999e-06
-4.87474e-05
1.35882e-06
-2.62916e-05
-2.05921e-05
-1.87578e-05
-2.25241e-05
-4.36072e-06
-2.68686e-05
1.56913e-06
-4.11828e-05
3.85443e-06
-4.55104e-05
-9.0063e-06
-4.58146e-05
-1.75887e-05
-4.29551e-05
-4.26236e-05
-3.42008e-07
-1.36391e-05
-1.78293e-05
-1.7873e-05
-2.27171e-05
-2.15996e-05
-1.65401e-05
-3.74624e-05
-1.10691e-05
-3.8508e-05
-6.24898e-06
-4.14094e-05
2.37194e-06
-2.71864e-05
1.31986e-05
-3.20791e-05
3.29082e-05
-2.44882e-05
2.33453e-05
-3.55648e-05
2.57261e-05
-4.84626e-05
3.83711e-05
-4.86382e-05
1.70321e-05
-3.96132e-05
-1.65839e-06
-4.58188e-05
1.34456e-05
-3.84708e-05
-5.98916e-06
-2.732e-05
-3.17428e-05
-5.91465e-06
-4.39296e-05
2.10221e-06
-3.48857e-05
1.82579e-06
-4.09068e-05
-1.02426e-05
-3.34423e-05
-1.33948e-05
-4.26624e-05
-2.85258e-05
-2.78241e-05
-4.60059e-05
-2.51435e-05
-1.44282e-05
-3.40115e-06
-1.84598e-05
-1.86855e-05
-2.06984e-05
-1.43015e-05
-3.25285e-05
7.60938e-07
-2.49348e-05
-1.38426e-05
-3.75271e-05
1.49642e-05
-4.54427e-05
2.11142e-05
-4.56046e-05
3.30702e-05
-5.00658e-05
2.78066e-05
-5.93897e-05
3.50499e-05
-3.71612e-05
1.61427e-05
-5.18279e-05
3.16989e-05
-4.89667e-05
-4.51945e-06
-4.15738e-05
6.05288e-06
-2.84342e-05
-1.91286e-05
-1.55827e-05
-4.45943e-05
-1.19973e-05
-4.7515e-05
-4.10251e-06
-4.27808e-05
-6.16574e-06
-3.88441e-05
-2.29198e-05
-1.6689e-05
-7.04746e-05
4.89225e-06
-8.8656e-05
-9.64243e-06
-5.31963e-05
-8.14658e-05
-1.0018e-05
6.61679e-06
-2.19364e-05
-6.76713e-06
-2.7294e-05
-8.94395e-06
-3.1263e-05
4.72995e-06
-4.01227e-05
-4.98299e-06
-3.82739e-05
1.31154e-05
-4.50458e-05
2.78862e-05
-4.4183e-05
3.22073e-05
-4.97733e-05
3.3397e-05
-3.57589e-05
2.10356e-05
-4.0272e-05
2.0656e-05
-5.65998e-05
4.80268e-05
-5.53854e-05
-5.7336e-06
-3.85671e-05
-1.07651e-05
-2.55025e-05
-3.2193e-05
-3.73163e-05
-3.27806e-05
-4.58567e-05
-3.89748e-05
-6.85665e-05
-2.00711e-05
-9.38136e-05
-1.35972e-05
-0.000123988
1.34841e-05
-0.000134176
1.50798e-05
-0.000152458
8.6393e-06
-1.88655e-05
-0.000186788
-8.52155e-06
1.51383e-05
-1.7299e-05
2.01026e-06
-1.93487e-05
-6.89427e-06
-2.33786e-05
8.75987e-06
-3.10709e-05
2.70925e-06
-3.71972e-05
1.92417e-05
-2.60234e-05
1.67124e-05
-4.1568e-05
4.77519e-05
-3.93551e-05
3.11842e-05
-6.54042e-05
4.70848e-05
-7.94262e-05
3.4678e-05
-5.72973e-05
2.58982e-05
-7.89603e-05
1.59298e-05
-8.68121e-05
-2.91284e-06
-9.69826e-05
-2.20223e-05
-0.000123079
-6.68439e-06
-0.000164041
1.98596e-06
-0.000183416
-6.95712e-07
-0.000199482
2.46879e-06
-0.000197256
1.12586e-05
-0.000183714
1.537e-06
-0.000168949
-6.12581e-06
-1.18955e-05
-0.000175919
-6.4969e-06
2.16352e-05
-1.01175e-05
5.6308e-06
-1.05492e-05
-6.46256e-06
-2.21258e-05
2.03365e-05
-2.76508e-05
8.23423e-06
-2.5564e-05
1.71549e-05
-3.10825e-05
2.22309e-05
-2.86066e-05
4.5276e-05
-5.69921e-05
5.95697e-05
-4.42973e-05
3.439e-05
-8.40196e-05
7.44005e-05
-0.000115182
5.70614e-05
-0.000163575
6.43228e-05
-0.000277832
0.000111345
-0.000430042
0.000130188
-0.00053999
0.000103264
-0.000588602
5.0598e-05
-0.00062722
3.79227e-05
-0.000634052
9.30018e-06
-0.000585885
-3.69084e-05
-0.000538451
-4.58967e-05
-0.000497807
-4.67703e-05
-5.22934e-05
-0.000457409
-9.69164e-06
3.13268e-05
-6.68506e-06
2.6242e-06
-1.27097e-05
-4.37951e-07
-1.77579e-05
2.53847e-05
-1.42734e-05
4.74978e-06
-3.04311e-05
3.33125e-05
-3.45605e-05
2.63602e-05
-5.22086e-05
6.29242e-05
-2.95757e-05
3.69369e-05
-6.57157e-05
7.05301e-05
-5.09829e-05
5.96679e-05
-8.84717e-05
9.45504e-05
-0.000100717
7.65684e-05
-0.000114773
0.000125401
-0.000116294
0.000131709
-0.000174203
0.000161173
-0.000183682
6.00777e-05
-0.000178694
3.29345e-05
-9.67725e-05
-7.26221e-05
-5.79753e-05
-7.57053e-05
-4.10565e-05
-6.28154e-05
-6.67081e-05
-2.11188e-05
-3.06413e-05
-8.83602e-05
-3.77874e-06
3.51056e-05
-4.8938e-06
3.73925e-06
-1.812e-05
1.27883e-05
-1.27951e-05
2.00597e-05
-3.04931e-05
2.24478e-05
-1.85441e-05
2.13635e-05
-3.93226e-05
4.71387e-05
-2.22905e-05
4.58921e-05
-4.55827e-05
6.0229e-05
-1.56574e-05
4.06048e-05
-3.96945e-05
8.37052e-05
-2.59968e-05
8.08532e-05
-4.10291e-05
9.16011e-05
-1.40884e-05
9.84603e-05
-3.79873e-07
0.000118
4.69615e-05
0.000113831
5.7347e-05
4.96926e-05
5.37263e-05
3.65553e-05
2.6019e-05
-4.49153e-05
-5.13577e-06
-4.45506e-05
-3.35394e-05
-3.44114e-05
-5.60442e-05
1.38591e-06
-2.96047e-05
-5.70809e-05
-3.65074e-06
3.87563e-05
-5.99429e-06
6.08278e-06
-9.14201e-06
1.5936e-05
-1.81625e-05
2.90802e-05
-1.8289e-05
2.25742e-05
-3.6901e-05
3.99755e-05
-2.24298e-05
3.26675e-05
-3.61199e-05
5.95822e-05
-3.36549e-05
5.77641e-05
-3.21534e-05
3.91033e-05
-2.92413e-05
8.07931e-05
-2.9827e-05
8.14392e-05
-7.57211e-06
6.93466e-05
6.88297e-06
8.40055e-05
2.79925e-05
9.68904e-05
6.53168e-05
7.65063e-05
6.54163e-05
4.9593e-05
7.34205e-05
2.85516e-05
4.48106e-05
-1.63055e-05
2.03444e-05
-2.00844e-05
1.465e-06
-1.55319e-05
-9.64928e-06
1.25003e-05
1.45783e-05
-5.38322e-05
8.2492e-06
3.05071e-05
-1.02251e-06
1.53545e-05
-1.40256e-05
2.8939e-05
-7.59694e-06
2.26516e-05
-2.50388e-05
4.0016e-05
-1.49226e-05
2.98593e-05
-4.08676e-05
5.86126e-05
-2.52084e-05
4.39229e-05
-2.54658e-05
5.80215e-05
-2.68657e-05
4.05032e-05
-2.32309e-05
7.71584e-05
-4.71682e-06
6.29252e-05
-1.65699e-05
8.11998e-05
1.18696e-05
5.55662e-05
2.91347e-05
7.96252e-05
3.64582e-05
6.91825e-05
5.54283e-05
3.06229e-05
5.72391e-05
2.67409e-05
4.91371e-05
-8.20335e-06
3.98949e-05
-1.08423e-05
2.1692e-05
2.671e-06
2.43583e-05
9.83398e-06
3.46925e-05
4.2441e-06
-1.018e-05
4.06871e-05
-7.78309e-06
1.29575e-05
-6.88501e-06
2.80409e-05
-5.69069e-06
2.14573e-05
-3.94897e-06
3.82743e-05
-1.75071e-05
4.34174e-05
-1.58462e-05
5.69517e-05
-2.80564e-05
5.61331e-05
-1.03114e-05
4.02764e-05
-5.5996e-06
3.57914e-05
-1.03149e-06
7.25903e-05
-2.06088e-05
8.25025e-05
-4.18843e-06
6.47796e-05
5.59332e-06
4.57845e-05
2.7473e-05
5.77456e-05
3.76793e-05
5.89761e-05
3.79813e-05
3.03208e-05
5.02898e-05
1.44325e-05
5.11777e-05
-9.09121e-06
4.66872e-05
-6.35178e-06
4.47536e-05
4.60468e-06
2.66411e-05
2.79465e-05
3.34504e-05
2.78833e-05
-3.837e-06
4.4524e-05
-9.19074e-06
1.83113e-05
-1.66021e-06
2.05104e-05
-3.50692e-06
2.3304e-05
-7.19541e-06
4.19628e-05
-6.24838e-06
4.24704e-05
-9.69984e-06
6.04031e-05
-1.42209e-05
6.06542e-05
-9.10928e-06
3.51648e-05
-6.20373e-06
3.28858e-05
-1.86348e-06
6.825e-05
4.78135e-06
7.58577e-05
1.25491e-05
5.70119e-05
1.10387e-06
5.72298e-05
1.40194e-05
4.48301e-05
2.74577e-05
4.55378e-05
3.9669e-05
1.81093e-05
4.32893e-05
1.08122e-05
3.22852e-05
1.91293e-06
3.2866e-05
-6.93254e-06
3.46784e-05
2.79225e-06
5.72044e-05
5.42051e-06
3.81116e-05
5.25432e-05
-2.28798e-06
4.6812e-05
-3.46041e-06
1.94837e-05
-2.06051e-06
1.91104e-05
-1.03068e-05
3.15503e-05
-8.47838e-06
4.01344e-05
-1.30129e-05
4.70049e-05
-1.29821e-05
6.03723e-05
3.42047e-06
4.42516e-05
-1.18002e-05
5.03855e-05
-1.16288e-05
3.27144e-05
4.43691e-06
5.21843e-05
5.10442e-07
7.97842e-05
1.30581e-05
4.44643e-05
1.19935e-05
5.82945e-05
3.07949e-05
2.60287e-05
3.80734e-05
3.82593e-05
3.47706e-05
2.14121e-05
4.12466e-05
4.33634e-06
5.06626e-05
-7.50314e-06
5.25545e-05
-8.82435e-06
5.56747e-05
-3.27917e-07
5.41061e-05
6.9891e-06
4.69531e-05
4.52646e-05
-6.67168e-06
5.34837e-05
-3.30929e-06
1.61213e-05
-5.94403e-06
2.17452e-05
-6.99298e-06
3.25992e-05
-7.77296e-06
4.09143e-05
8.20572e-06
3.10262e-05
1.41903e-05
5.43877e-05
6.4261e-07
5.77993e-05
7.351e-06
4.36771e-05
1.82697e-06
3.82384e-05
-1.26517e-05
6.66629e-05
1.58726e-05
5.126e-05
1.38589e-05
4.6478e-05
1.49049e-05
5.72484e-05
2.3253e-05
1.76806e-05
3.06579e-05
3.08544e-05
3.78306e-05
1.42394e-05
4.11284e-05
1.03848e-06
4.88021e-05
-1.51768e-05
4.76318e-05
-7.65404e-06
5.20561e-05
-4.75222e-06
3.83906e-05
2.06547e-05
2.57587e-05
5.9585e-05
1.37959e-05
3.96878e-05
4.13793e-06
2.57792e-05
-9.71415e-06
3.55972e-05
2.23795e-07
2.26612e-05
1.77368e-06
3.93644e-05
6.09379e-07
3.21905e-05
2.43996e-06
5.25571e-05
2.05226e-05
3.97166e-05
1.01829e-05
5.40168e-05
1.25515e-05
3.58699e-05
2.83244e-05
5.089e-05
6.05356e-06
7.35308e-05
1.26241e-05
3.99075e-05
2.29224e-05
4.69501e-05
1.53018e-05
2.53013e-05
3.47896e-05
1.13666e-05
3.67249e-05
1.23042e-05
3.97845e-05
-2.0212e-06
2.9026e-05
-4.41817e-06
3.93241e-05
-1.79521e-05
3.72878e-05
-2.71592e-06
3.07241e-05
2.72183e-05
2.01545e-05
3.63284e-05
-1.94908e-05
5.91786e-05
-1.04516e-05
1.674e-05
-4.71843e-06
2.9864e-05
-3.48798e-06
2.14308e-05
-1.61648e-06
3.74929e-05
-6.22938e-07
3.11969e-05
1.80217e-05
3.39125e-05
1.41233e-05
4.36151e-05
2.86315e-05
3.95086e-05
2.24104e-05
4.2091e-05
1.69477e-05
5.63526e-05
4.5314e-05
4.51646e-05
3.23514e-05
5.28701e-05
3.3271e-05
4.60305e-05
3.67461e-05
2.18261e-05
3.81257e-05
9.98705e-06
4.17533e-05
8.67657e-06
4.24153e-05
-2.68323e-06
4.37275e-05
-5.73032e-06
4.18841e-05
-1.61087e-05
4.39095e-05
-4.74129e-06
5.11694e-05
1.99585e-05
6.57036e-06
6.47536e-05
6.39723e-06
5.27813e-05
5.16557e-06
1.79717e-05
6.25907e-06
2.87705e-05
1.76603e-07
2.75132e-05
1.1313e-06
3.65382e-05
7.30758e-06
2.50206e-05
1.26718e-05
2.85483e-05
2.70832e-05
2.92037e-05
8.47273e-06
5.81191e-05
1.39181e-05
3.66456e-05
4.07682e-05
2.95026e-05
1.43719e-05
7.15609e-05
2.67639e-05
4.04781e-05
1.88333e-05
5.39611e-05
2.45407e-05
1.61187e-05
2.87284e-05
5.79937e-06
2.65136e-05
1.08914e-05
2.43236e-05
-4.93237e-07
3.56201e-05
-1.70267e-05
3.64736e-05
-1.69623e-05
3.61575e-05
-4.42521e-06
5.02838e-05
5.83225e-06
1.14407e-05
4.54135e-05
1.53202e-05
3.74611e-05
7.26692e-06
2.6025e-05
1.1265e-05
2.47724e-05
3.30166e-06
3.54766e-05
9.63242e-06
3.02074e-05
1.06998e-05
2.39532e-05
1.14947e-05
2.77534e-05
1.62569e-05
2.44415e-05
3.13475e-05
4.30285e-05
3.35407e-05
3.44524e-05
1.53972e-05
4.76461e-05
3.21996e-05
5.47584e-05
2.85423e-05
4.41354e-05
4.0706e-05
4.17974e-05
4.34347e-05
1.33899e-05
3.45475e-05
1.46867e-05
4.85352e-05
-3.09638e-06
4.40793e-05
3.96271e-06
4.25898e-05
-1.55373e-05
3.64598e-05
-1.08322e-05
3.58582e-05
-3.82363e-06
4.1626e-05
6.45225e-08
1.40524e-05
3.90143e-05
2.36654e-06
3.50945e-05
2.55138e-06
2.58401e-05
3.31243e-06
2.40113e-05
1.52434e-05
2.35455e-05
5.95943e-06
3.94915e-05
7.49769e-06
2.24149e-05
1.10176e-05
2.42334e-05
9.3847e-06
2.60744e-05
1.42344e-05
3.81788e-05
2.21908e-05
2.64961e-05
2.13584e-05
4.84784e-05
4.33478e-05
3.2769e-05
3.4314e-05
5.31693e-05
4.22531e-05
3.38583e-05
3.68551e-05
1.87879e-05
3.58028e-05
1.5739e-05
3.60956e-05
-3.38918e-06
3.96746e-05
3.83702e-07
3.51055e-05
-1.09682e-05
2.96786e-05
-5.40533e-06
3.19367e-05
-6.08169e-06
3.53994e-05
-3.39816e-06
5.57236e-06
4.38794e-05
3.11406e-06
3.19805e-05
4.51487e-06
2.44393e-05
4.44425e-06
2.40819e-05
3.44955e-06
2.45402e-05
1.62531e-05
2.66879e-05
1.58169e-05
2.28511e-05
1.5162e-05
2.48884e-05
1.64559e-05
2.47804e-05
2.88538e-05
2.57809e-05
2.97906e-05
2.55593e-05
3.14421e-05
4.6827e-05
3.74674e-05
2.67437e-05
4.66244e-05
4.40123e-05
4.38998e-05
3.65829e-05
5.19348e-05
1.07529e-05
3.21396e-05
3.55342e-05
3.14937e-05
-2.74327e-06
2.58958e-05
5.98161e-06
2.47544e-05
-9.82676e-06
2.74047e-05
-8.05569e-06
3.20675e-05
-1.07444e-05
3.67727e-05
-8.10337e-06
1.53524e-06
4.08099e-05
2.55811e-06
2.94223e-05
4.80596e-06
2.21914e-05
6.80497e-06
2.20829e-05
9.85126e-06
2.14939e-05
1.18789e-05
2.46603e-05
1.36696e-05
2.10603e-05
1.58375e-05
2.27205e-05
1.89721e-05
2.16458e-05
2.11473e-05
2.36057e-05
2.48347e-05
2.18719e-05
2.91276e-05
4.25341e-05
3.45469e-05
2.13244e-05
4.17588e-05
3.68004e-05
4.39244e-05
3.44173e-05
2.96516e-05
2.50257e-05
3.21227e-05
3.30631e-05
3.4738e-05
-5.35851e-06
4.11132e-05
-3.93625e-07
4.11368e-05
-9.85034e-06
3.50669e-05
-1.98574e-06
4.16551e-05
-1.73327e-05
4.50993e-05
-1.15475e-05
-4.62754e-06
5.12621e-05
2.17677e-06
2.72456e-05
3.13804e-06
2.12301e-05
5.2007e-06
2.00202e-05
6.99643e-06
1.96982e-05
1.25109e-05
1.91458e-05
1.46182e-05
1.8953e-05
1.74996e-05
1.98391e-05
1.999e-05
1.91553e-05
2.31474e-05
2.04483e-05
2.555e-05
1.94692e-05
2.73919e-05
4.06922e-05
2.94585e-05
1.92577e-05
4.23051e-05
2.39539e-05
4.58485e-05
3.08738e-05
3.31587e-05
3.77155e-05
5.79833e-05
8.23851e-06
4.03875e-05
1.22373e-05
5.40703e-05
-1.40764e-05
4.90397e-05
-4.81977e-06
5.34887e-05
-6.43468e-06
4.44149e-05
-8.25887e-06
4.90624e-05
-1.6195e-05
-4.7086e-06
4.91435e-05
2.8706e-06
2.4375e-05
5.33688e-06
1.87638e-05
7.95547e-06
1.74017e-05
1.03758e-05
1.72779e-05
1.28506e-05
1.6671e-05
1.50972e-05
1.67064e-05
1.73729e-05
1.75634e-05
1.97738e-05
1.67545e-05
2.24499e-05
1.77722e-05
2.5286e-05
1.66332e-05
3.04666e-05
3.55116e-05
3.3919e-05
1.58053e-05
3.76771e-05
2.01958e-05
4.47196e-05
2.38313e-05
4.88876e-05
3.35475e-05
5.29625e-05
4.16356e-06
3.93138e-05
2.5886e-05
4.59289e-05
-2.06915e-05
4.45722e-05
-3.46302e-06
5.42332e-05
-1.60957e-05
4.5467e-05
5.07312e-07
5.33685e-05
-2.40964e-05
-4.55206e-06
5.3212e-05
3.13371e-06
2.12412e-05
6.14613e-06
1.57514e-05
8.84777e-06
1.47e-05
1.15741e-05
1.45515e-05
1.3676e-05
1.45691e-05
1.62364e-05
1.41461e-05
1.88822e-05
1.49176e-05
2.14e-05
1.42367e-05
2.40564e-05
1.51157e-05
2.6323e-05
1.43666e-05
3.15892e-05
3.02454e-05
3.41307e-05
1.32639e-05
3.88049e-05
1.55215e-05
4.4044e-05
1.85923e-05
5.37233e-05
2.38681e-05
3.69419e-05
2.09449e-05
6.02225e-05
2.6054e-06
5.17713e-05
-1.22403e-05
6.14431e-05
-1.31348e-05
5.59374e-05
-1.059e-05
6.91677e-05
-1.2723e-05
5.38433e-05
-8.77199e-06
-1.37162e-05
6.30075e-05
3.011e-06
1.82302e-05
5.55591e-06
1.32065e-05
7.84942e-06
1.24065e-05
1.01844e-05
1.22166e-05
1.25876e-05
1.21658e-05
1.48891e-05
1.18445e-05
1.72943e-05
1.25124e-05
1.95049e-05
1.20261e-05
2.20012e-05
1.26195e-05
2.38269e-05
1.25408e-05
2.82304e-05
2.58419e-05
2.87683e-05
1.2726e-05
3.07848e-05
1.3505e-05
2.46477e-05
2.47294e-05
3.04771e-05
1.80387e-05
3.13509e-05
2.00712e-05
4.83124e-05
-1.43562e-05
4.58114e-05
-9.73926e-06
3.57667e-05
-3.09007e-06
4.1352e-05
-1.61753e-05
4.53137e-05
-1.66847e-05
5.34688e-05
-1.6927e-05
-1.43029e-05
5.40555e-05
3.11155e-06
1.51187e-05
5.65555e-06
1.06625e-05
7.88224e-06
1.01798e-05
1.02067e-05
9.89209e-06
1.24586e-05
9.91392e-06
1.4705e-05
9.59817e-06
1.69649e-05
1.02525e-05
1.90982e-05
9.89286e-06
2.15054e-05
1.02122e-05
2.34394e-05
1.06068e-05
2.82116e-05
2.10697e-05
2.91992e-05
1.17383e-05
3.21041e-05
1.06001e-05
2.85566e-05
2.82769e-05
3.62511e-05
1.03441e-05
5.45732e-05
1.74909e-06
4.89618e-05
-8.74475e-06
4.09017e-05
-1.67917e-06
4.39528e-05
-6.14115e-06
6.50864e-05
-3.73088e-05
6.31926e-05
-1.47909e-05
5.47111e-05
-8.44548e-06
-2.20891e-05
6.24973e-05
2.62685e-06
1.24918e-05
4.77225e-06
8.51708e-06
6.8029e-06
8.14912e-06
8.86941e-06
7.82556e-06
1.10175e-05
7.76578e-06
1.3265e-05
7.3507e-06
1.56668e-05
7.85069e-06
1.79926e-05
7.56705e-06
2.02732e-05
7.93159e-06
2.29781e-05
7.90192e-06
2.87363e-05
1.53115e-05
3.21167e-05
8.35798e-06
3.67579e-05
5.95895e-06
4.39635e-05
2.10713e-05
4.35581e-05
1.07495e-05
4.87992e-05
-3.49204e-06
3.87906e-05
1.26392e-06
6.02676e-05
-2.31562e-05
6.30462e-05
-8.91981e-06
4.57296e-05
-1.99922e-05
6.89487e-05
-3.801e-05
7.56061e-05
-1.51028e-05
-3.09645e-05
8.44815e-05
2.52591e-06
9.9659e-06
4.48544e-06
6.55753e-06
6.38959e-06
6.24497e-06
8.35663e-06
5.85852e-06
1.02255e-05
5.89692e-06
1.22242e-05
5.35202e-06
1.42544e-05
5.82048e-06
1.65339e-05
5.28751e-06
1.82041e-05
6.26139e-06
2.11227e-05
4.98334e-06
2.44187e-05
1.20155e-05
2.7615e-05
5.16164e-06
2.17532e-05
1.18207e-05
2.65925e-05
1.62321e-05
2.86564e-05
8.68556e-06
3.09542e-05
-5.7898e-06
5.10639e-05
-1.88458e-05
5.27727e-05
-2.48649e-05
5.69114e-05
-1.30585e-05
5.21087e-05
-1.51896e-05
6.90068e-05
-5.49079e-05
6.70808e-05
-1.31769e-05
-3.77631e-05
7.38794e-05
2.17633e-06
7.78956e-06
3.75179e-06
4.98207e-06
5.35163e-06
4.64511e-06
6.94832e-06
4.26183e-06
8.58192e-06
4.26331e-06
1.03954e-05
3.53851e-06
1.23987e-05
3.81724e-06
1.47233e-05
2.96282e-06
1.67041e-05
4.2806e-06
1.91485e-05
2.53898e-06
2.24564e-05
8.70764e-06
2.77197e-05
-1.01733e-07
2.3161e-05
1.63794e-05
2.53146e-05
1.40785e-05
3.84866e-05
-4.48644e-06
4.41197e-05
-1.14229e-05
4.96296e-05
-2.43556e-05
3.48182e-05
-1.00536e-05
5.37452e-05
-3.19854e-05
4.0972e-05
-2.41637e-06
3.93844e-05
-5.33203e-05
4.18138e-05
-1.56062e-05
-5.42432e-05
5.82939e-05
1.92724e-06
5.86231e-06
3.51711e-06
3.3922e-06
5.19119e-06
2.97103e-06
6.75118e-06
2.70184e-06
8.32992e-06
2.68457e-06
9.86336e-06
2.00506e-06
1.16204e-05
2.06022e-06
1.33027e-05
1.28054e-06
1.53962e-05
2.18707e-06
1.75328e-05
4.02391e-07
2.08684e-05
5.37201e-06
1.963e-05
1.13662e-06
2.48829e-05
1.11266e-05
4.12626e-05
-2.30118e-06
4.03127e-05
-3.53662e-06
4.50502e-05
-1.61603e-05
3.04584e-05
-9.76393e-06
3.71832e-05
-1.67784e-05
3.65806e-05
-3.13828e-05
5.81999e-05
-2.40356e-05
3.43318e-05
-2.94522e-05
6.93538e-05
-5.06282e-05
-3.74412e-05
5.25517e-05
1.77227e-06
4.09004e-06
3.12285e-06
2.0416e-06
4.39547e-06
1.69841e-06
5.60601e-06
1.49129e-06
7.04706e-06
1.24351e-06
8.22714e-06
8.24984e-07
9.6854e-06
6.01948e-07
1.11793e-05
-2.13382e-07
1.30782e-05
2.88182e-07
1.3989e-05
-5.08405e-07
1.71584e-05
2.20264e-06
1.6605e-05
1.69e-06
1.96101e-05
8.12147e-06
3.27235e-05
-1.54146e-05
3.22949e-05
-3.10798e-06
2.44054e-05
-8.2709e-06
2.69233e-05
-1.22818e-05
2.93141e-05
-1.91692e-05
3.64894e-05
-3.8558e-05
4.46885e-05
-3.22348e-05
3.87766e-05
-2.35403e-05
5.52392e-05
-6.70908e-05
-3.3754e-05
5.15521e-05
1.44651e-06
2.64353e-06
2.70061e-06
7.87496e-07
4.09881e-06
3.00213e-07
5.21931e-06
3.70787e-07
6.71145e-06
-2.48634e-07
7.67716e-06
-1.40733e-07
9.38288e-06
-1.10378e-06
9.95922e-06
-7.89718e-07
1.22389e-05
-1.99154e-06
1.08009e-05
9.29606e-07
1.55979e-05