/*--------------------------------*- C++ -*----------------------------------*\
| =========                 |                                                 |
| \\      /  F ield         | foam-extend: Open Source CFD                    |
|  \\    /   O peration     | Version:     4.1                                |
|   \\  /    A nd           | Web:         http://www.foam-extend.org         |
|    \\/     M anipulation  |                                                 |
\*---------------------------------------------------------------------------*/
FoamFile
{
    version     2.0;
    format      ascii;
    class       volScalarField;
    location    "0.5";
    object      psi;
}
// * * * * * * * * * * * * * * * * * * * * * * * * * * * * * * * * * * * * * //

dimensions      [1 -1 -2 0 0 0 0];

internalField   nonuniform List<scalar> 
2268
(
0.0370469
0.0386984
0.0376446
0.0390399
0.0368345
0.0336701
0.0369051
0.0565694
0.0765657
0.0680178
0.0309915
0.0213876
0.0148851
0.012869
0.0158228
0.0161696
0.0147855
0.0124624
0.0106984
0.00993006
0.00939138
0.00596345
-0.00209811
0.0567432
0.0586191
0.0538972
0.0571206
0.0532088
0.0513495
0.0616187
0.0874858
0.106248
0.0622519
0.0183539
0.00785973
0.00209828
0.00750924
0.0142975
0.0159922
0.0155361
0.0127242
0.010729
0.00983192
0.00988303
0.0064264
-0.00143727
0.0822592
0.0834165
0.0667364
0.0796076
0.0714658
0.0788261
0.106581
0.138207
0.122106
-0.00897318
-0.0414862
-0.0481061
-0.033465
-0.0116549
0.00374918
0.0101024
0.0132725
0.0103006
0.00859718
0.00848597
0.0108185
0.00815798
0.000596161
0.111953
0.1108
0.071449
0.109102
0.0918146
0.124157
0.174167
0.209856
0.0755051
-0.109842
-0.134997
-0.121379
-0.0786506
-0.0387556
-0.0145533
-0.000952
0.00721011
0.00548556
0.00456426
0.00674235
0.012244
0.0119362
0.00380716
0.131768
0.124968
0.0471477
0.138596
0.101681
0.190298
0.258244
0.255491
-0.113274
-0.242412
-0.267748
-0.198651
-0.138205
-0.0811641
-0.049694
-0.0227889
-0.00538549
-0.00375219
-0.00284791
0.00385114
0.013571
0.0174636
0.00518144
0.121009
0.108168
-0.0232133
0.159977
0.0846694
0.273601
0.349093
0.136924
-0.338557
-0.416637
-0.404067
-0.277874
-0.22302
-0.148606
-0.114759
-0.0663643
-0.032125
-0.0236981
-0.0179684
-0.00344838
0.011387
0.0223238
-0.000817023
0.0588937
0.0531952
-0.142603
0.172933
0.029825
0.375031
0.419205
-0.262189
-0.502313
-0.612973
-0.509491
-0.367306
-0.352292
-0.255014
-0.228361
-0.149258
-0.0849245
-0.0653903
-0.0484375
-0.0232129
-0.00210427
0.0168928
-0.0241139
-0.19065
-0.162832
-0.402934
0.0126531
-0.157345
0.239002
0.086307
-0.661206
-0.721505
-0.80356
-0.649578
-0.550694
-0.592008
-0.461891
-0.444854
-0.316655
-0.195013
-0.157684
-0.113417
-0.0668774
-0.0374021
-0.0144591
-0.0501899
1.98463
2.80833
3.71751
4.33211
4.46171
4.2427
4.239
4.43048
4.9046
5.09644
4.5808
4.43108
4.5736
4.06631
3.41196
2.82383
2.19163
1.48898
0.838393
1.9503
2.2066
1.29068
1.31643
1.27972
2.4766
2.72958
2.66376
2.4285
2.88991
3.61943
3.77566
3.77852
4.11714
3.34006
3.45305
3.36014
2.28833
1.84433
1.87344
1.17283
0.0332504
0.0800524
0.505549
0.894617
1.19928
1.60218
1.40774
2.05775
3.07582
2.86377
2.16617
2.67022
3.1215
3.23173
3.7554
3.0271
1.9378
1.71363
0.904575
0.0295583
0.0475898
0.457841
0.11147
0.0791719
0.870454
0.916891
0.92547
1.85444
1.8255
1.00392
0.93988
2.42613
2.609
1.80941
3.30014
1.86548
1.78564
1.42732
0.449233
0.173921
1.55639
1.37787
1.26142
1.13739
0.748534
0.329766
0.916124
0.99106
0.713755
0.210103
1.99116
2.63974
0.499845
2.35935
2.09171
1.93522
1.47197
0.0995263
0.0412396
3.97234
3.19402
3.57105
2.01538
1.41599
0.640285
0.592066
0.716096
0.675395
0.193505
1.91464
2.77071
0.594358
1.36643
2.43011
1.81177
0.541453
-1.06601
-1.09377
3.4429
3.01206
3.00649
1.98044
1.76549
1.27001
0.77962
0.740476
0.586463
0.287324
1.4612
2.93861
0.857175
0.822403
2.71394
-0.803282
-1.1822
-2.52939
-0.369533
2.78169
1.88165
2.31599
2.1949
2.39751
1.70073
0.749116
0.632877
0.485682
0.427387
1.02227
2.81655
1.04964
0.650979
2.85256
-0.913703
-0.806833
-0.983883
-0.651439
-0.668699
-1.09683
-0.728342
-0.971155
-1.1045
-1.16856
-1.17877
-1.24639
-1.3071
-1.09585
-1.00352
-0.765371
-0.496749
-0.41327
-0.290468
-0.193442
-0.143042
-0.114194
0.0638071
0.849381
0.877807
0.843774
0.504756
0.868552
0.220596
0.663527
0.589322
0.565749
0.495106
0.255018
-0.198919
-0.680683
-0.8705
-1.13766
-1.12616
-0.847318
-0.846628
-0.56781
-0.321255
-0.269441
-0.248441
-0.0497604
0.390224
0.3795
0.388069
0.194386
0.44772
0.270332
0.47407
0.50592
0.683623
0.861338
1.00704
1.17059
0.839949
0.363489
-0.360955
-0.946548
-0.957113
-1.2312
-0.777951
-0.446858
-0.453983
-0.467619
-0.213847
0.191745
0.186682
0.190433
0.145722
0.21635
0.188036
0.255974
0.324948
0.463502
0.610687
0.771959
0.96451
1.20029
1.12386
1.3452
0.951904
0.578254
-0.404553
-0.457391
-0.670591
-0.50939
-0.822523
-0.34799
0.089064
0.0881977
0.0881305
0.0812983
0.097972
0.0976798
0.124423
0.182424
0.278451
0.384968
0.423066
0.482379
0.831028
1.01537
1.53995
1.66826
1.38499
1.25256
0.634828
0.729236
0.794156
0.325509
-0.48386
0.0326732
0.0332878
0.0318683
0.0293001
0.0355536
0.0360166
0.0549373
0.0850744
0.137506
0.174003
0.200415
0.234925
0.374723
0.799034
0.7856
0.802783
0.427001
0.457604
-0.162315
0.131995
0.388272
-0.13639
0.0504859
0.00834693
0.00871548
0.00792962
0.00569989
0.00836439
0.00802801
0.0228514
0.0338777
0.0572045
0.0665598
0.109232
0.118783
0.201769
0.311655
0.148492
0.0851955
-0.0655289
-0.133076
-0.20693
-0.151631
0.0632342
-0.12357
0.00835208
-0.000127337
-0.000625581
-0.000791567
-0.00137234
-0.00148944
-0.00234483
0.0014918
0.00423502
0.00956982
0.0114115
0.0276469
0.027563
0.0459409
0.0639094
0.0246076
-0.0261275
-0.0380882
-0.044679
-0.0438483
-0.0442191
-0.00232762
-0.0350509
-0.0175002
-0.00269814
-0.00298961
-0.00282167
-0.00272617
-0.00297026
-0.00404076
-0.00517519
-0.0051149
-0.00600496
-0.00407183
-0.0011392
-0.00197222
0.000765679
0.0138111
-0.00440584
-0.0105521
-0.00624295
-0.00568452
-0.00600599
-0.0130633
-0.0175866
-0.0100576
0.0562797
-0.00323329
-0.00299746
-0.002802
-0.00265348
-0.00250973
-0.00355807
-0.00591595
-0.0077906
-0.00898333
-0.00929703
-0.0103544
-0.00806742
-0.00765946
-0.00528817
-0.00659702
-0.00610748
-0.00861868
-0.015528
-0.0211208
-0.0325068
-0.0312125
0.0050327
0.0877145
-0.00283148
-0.00204769
-0.00145672
-0.00144867
-0.00107379
-0.00209848
-0.0042168
-0.00669174
-0.0079643
-0.00846379
-0.0088095
-0.00810986
-0.00723038
-0.00655876
-0.0110858
-0.0247224
-0.0332387
-0.0170013
0.0239854
0.0436947
0.0534364
0.0701552
0.129082
-0.00181737
-0.000970174
-0.00047254
-0.000570306
-0.000285153
-0.000913221
-0.00278193
-0.00536153
-0.00657679
-0.00697951
-0.00724055
-0.00616068
-0.00517301
-0.00376363
0.019912
0.131437
0.318889
0.427793
0.468155
0.490952
0.534252
0.658651
0.821299
-0.00083763
-0.000266277
-5.5109e-05
-0.000157898
1.95943e-05
-0.00044756
-0.00181113
-0.00367962
-0.00431339
-0.00465941
-0.00525737
-0.00414413
-0.00289547
-0.00354266
-0.00825549
-0.0140695
-0.017519
0.00496527
0.0148665
-0.0030835
-0.00307265
0.0124073
-0.0135041
-0.000324245
-2.04195e-05
3.51545e-05
-8.06898e-07
6.28264e-05
-0.000126156
-0.000844474
-0.00168572
-0.00193956
-0.002535
-0.0030137
-0.00292013
-0.00178535
-0.00136791
-0.00194524
-0.00384496
-0.00917443
-0.0118646
-0.0201815
-0.020059
-0.0194971
-0.011519
-0.021079
-6.62003e-05
3.38929e-05
3.57242e-05
3.51244e-05
7.11618e-05
3.30957e-05
-0.000201591
-0.000468199
-0.000771085
-0.00100314
-0.00161244
-0.00156028
-0.00100765
-0.000459294
-0.000443909
-0.000477626
-0.00087177
-0.00146118
-0.0018022
-0.00263043
-0.00447582
-0.00390298
-0.00645434
8.93102e-06
2.36707e-05
1.89745e-05
2.14263e-05
4.23751e-05
6.39936e-05
2.63474e-05
-7.90363e-05
-0.000161854
-0.000273074
-0.000643677
-0.000645689
-0.000341524
-0.000104254
-5.48533e-05
2.2811e-05
1.39357e-05
-1.74113e-05
0.000236725
0.000303881
-0.000130185
-0.000804856
-0.00142558
1.15787e-05
8.22237e-06
7.67304e-06
8.06521e-06
1.99245e-05
3.42214e-05
4.45199e-05
3.83456e-05
1.95697e-05
1.72372e-06
-0.000169515
-0.000157467
-8.80125e-05
1.12854e-05
1.32148e-05
2.66259e-05
3.24985e-05
2.87829e-05
5.65877e-05
0.000112425
0.000149511
3.42682e-05
-0.000179014
4.03929e-06
7.11139e-07
6.43429e-07
3.766e-07
4.0494e-06
1.48567e-05
2.48015e-05
2.94187e-05
3.09017e-05
2.9707e-05
-2.04194e-05
-3.83218e-05
-3.66416e-06
1.61509e-05
1.20241e-05
8.74109e-06
6.04088e-06
4.56959e-06
-4.87941e-07
4.5438e-06
3.53828e-05
5.02663e-05
4.15387e-05
4.82012e-07
-6.53786e-07
-5.57012e-07
-7.04796e-07
-3.15935e-07
3.1401e-06
1.22804e-05
1.38504e-05
1.15304e-05
1.24636e-05
6.42901e-06
1.18718e-06
7.69103e-06
6.59787e-06
3.24819e-06
1.99002e-06
3.80121e-07
-1.25517e-07
-1.72269e-06
-3.22923e-06
-4.66955e-07
9.4566e-06
1.6772e-05
-2.24931e-07
-3.44342e-07
-2.78317e-07
-4.22393e-07
-7.39856e-07
-3.37144e-07
2.32696e-06
3.18482e-06
2.62369e-06
2.8501e-06
4.63129e-06
3.78487e-06
3.75579e-06
2.2647e-06
2.33505e-07
-1.23118e-07
-2.9091e-07
-2.2595e-07
-1.68762e-07
-5.61534e-07
-1.20199e-06
-5.73845e-07
1.88956e-06
-1.52075e-07
-8.57518e-08
-6.57595e-08
-1.32101e-07
-3.39409e-07
-5.54246e-07
-1.99756e-09
2.94976e-07
-2.35059e-07
-1.37423e-07
1.45721e-06
1.75995e-06
1.14613e-06
4.75055e-07
-2.07348e-07
-1.80233e-07
-1.00232e-07
-3.93556e-08
2.51928e-08
3.94928e-08
-1.43367e-07
-3.90868e-07
-3.82932e-07
-6.04254e-08
-1.09651e-09
7.61925e-10
-1.42679e-08
-1.05461e-07
-2.08516e-07
-2.23436e-07
-2.22887e-07
-3.03541e-07
-3.51851e-07
8.9592e-08
6.13388e-07
1.95708e-07
-7.22454e-09
-9.83604e-08
-4.75169e-08
-1.47728e-08
1.90999e-09
7.31414e-09
1.80096e-08
2.08638e-08
-4.90436e-08
-1.32956e-07
-1.96723e-08
5.44654e-09
8.42991e-09
9.91815e-09
-9.32279e-09
-5.48137e-08
-8.91692e-08
-9.97197e-08
-1.1977e-07
-1.21017e-07
-7.50867e-08
2.4471e-08
-1.98685e-08
-4.78058e-08
-2.97657e-08
-4.9016e-09
3.09725e-09
2.79524e-09
-2.01231e-10
-1.21327e-09
4.83778e-09
1.31281e-08
3.05626e-08
-3.89388e-09
1.82986e-09
3.45099e-09
5.41878e-09
5.66995e-09
1.36567e-09
-1.60787e-08
-2.34435e-08
-3.66631e-08
-2.50971e-08
-3.15727e-08
-1.22527e-08
-2.66492e-08
-1.95216e-08
-6.80374e-09
1.33222e-09
1.90705e-09
6.68489e-10
-9.03426e-10
-3.66097e-09
-2.02357e-09
1.57687e-08
6.87723e-08
-3.77654e-11
7.01749e-10
8.86878e-10
1.55278e-09
2.93232e-09
3.80655e-09
2.287e-09
1.28544e-09
-2.73746e-10
2.93179e-09
-7.19388e-09
-9.1401e-09
-9.04428e-09
-5.70426e-09
1.51078e-10
1.22685e-09
5.3808e-10
1.26174e-10
-9.90102e-10
-4.43906e-09
-5.95358e-09
6.90804e-09
6.71146e-08
1.63882e-10
1.32351e-10
2.81447e-11
1.58542e-10
7.17967e-10
1.16402e-09
1.5557e-09
1.67286e-09
1.75209e-09
2.59588e-09
2.89208e-10
-1.59303e-09
-1.85167e-09
-2.53447e-10
7.58656e-10
4.31644e-10
1.52966e-10
-2.60189e-11
-9.5443e-10
-4.43606e-09
-7.88328e-09
-2.94048e-09
5.31017e-08
3.76299e-11
-1.26543e-11
-6.69017e-11
-7.86364e-11
9.4546e-12
1.68358e-10
3.09023e-10
3.77177e-10
4.69177e-10
6.50208e-10
5.53057e-10
2.92757e-10
2.34463e-10
3.40965e-10
2.49644e-10
1.22773e-10
7.51826e-11
2.94799e-11
-4.96584e-10
-2.94436e-09
-7.82377e-09
-9.74505e-09
1.97964e-08
4.48301e-13
-1.35376e-11
-2.58022e-11
-3.97562e-11
-4.5835e-11
-4.08094e-11
-7.71513e-12
1.3163e-11
2.11683e-11
4.18857e-11
1.24771e-10
1.29584e-10
1.25816e-10
1.01896e-10
4.10215e-11
5.18277e-11
9.73731e-11
-3.10862e-11
-6.32256e-10
-2.40064e-09
-5.24896e-09
-8.01092e-09
9.76058e-09
-1.78968e-12
-2.64941e-12
-3.74215e-12
-6.84887e-12
-1.25716e-11
-1.86294e-11
-1.86058e-11
-2.11122e-11
-2.54569e-11
-3.01329e-11
1.18537e-13
1.63623e-12
7.54424e-12
3.10362e-12
6.39963e-12
8.85101e-11
1.47729e-10
-3.14079e-10
-1.88629e-09
-2.74751e-09
-3.85601e-09
1.99533e-09
1.90247e-08
2.15656e-14
6.02117e-13
1.08909e-12
9.5928e-13
-5.76783e-13
-2.07507e-12
-3.3963e-12
-4.22124e-12
-5.5875e-12
-8.10378e-12
-6.73667e-12
-7.32145e-12
-8.15904e-12
-7.5468e-12
2.25203e-11
1.51947e-10
2.31179e-10
-4.79799e-10
-4.24086e-09
-4.46557e-09
-7.87624e-10
1.82842e-08
7.00786e-08
3.13637e-13
5.37431e-13
6.58651e-13
7.82195e-13
7.80796e-13
6.24898e-13
3.36433e-13
1.96961e-13
2.59263e-13
-2.33958e-14
-9.14882e-13
-2.67085e-12
-5.2016e-12
3.25894e-12
8.42603e-11
2.23849e-10
1.65063e-10
-1.38955e-09
-7.09769e-09
-7.6882e-09
1.02525e-08
6.79171e-08
1.98016e-07
1.50841e-13
3.07949e-13
2.60467e-13
1.62857e-13
2.64484e-13
2.8761e-13
3.08629e-13
3.75932e-13
5.90651e-13
7.25622e-13
1.44069e-13
-2.64232e-12
-6.7511e-12
7.52502e-12
1.49767e-10
3.29411e-10
3.01232e-10
-2.721e-09
-1.28922e-08
-1.61555e-08
5.3694e-09
1.00067e-07
2.73232e-07
-5.74043e-15
2.17367e-13
1.06195e-13
1.61776e-13
6.17413e-14
1.36341e-13
2.5163e-13
2.4089e-13
3.50271e-13
4.06368e-13
-2.0174e-13
-4.22963e-12
-1.02656e-11
1.01108e-11
2.34741e-10
4.55336e-10
3.0986e-11
-5.68111e-09
-1.9601e-08
-2.15259e-08
7.00628e-08
2.21258e-07
3.48678e-07
8.15039e-14
1.53684e-13
1.48006e-13
1.25311e-13
1.87072e-13
1.03417e-13
1.52775e-13
3.27783e-13
3.16771e-13
4.08978e-13
-6.33938e-13
-5.83903e-12
-8.60956e-12
5.0348e-11
3.47868e-10
6.07495e-10
-7.24255e-10
-1.12636e-08
-2.87892e-08
-2.7332e-08
2.0247e-07
3.97057e-07
3.76266e-07
2.31052e-13
1.77428e-13
2.23804e-13
1.34307e-13
1.28612e-13
1.71293e-13
1.11775e-13
2.18463e-13
3.21605e-13
3.76356e-13
-1.19237e-12
-8.01761e-12
-1.05338e-11
8.15931e-11
4.83407e-10
8.39085e-10
-1.85925e-09
-1.91335e-08
-3.33982e-08
-9.71507e-09
4.39439e-07
5.43036e-07
-3.97289e-08
2.78453e-14
1.68128e-13
2.05267e-13
1.94546e-13
1.20699e-13
1.16597e-13
1.87509e-13
3.69739e-13
3.69906e-13
3.48521e-13
-1.74166e-12
-9.86941e-12
-1.03512e-11
1.0519e-10
5.70109e-10
7.93143e-10
-4.55087e-09
-2.59486e-08
-3.25277e-08
4.81164e-08
6.49045e-07
8.70021e-07
3.7419e-08
1.28064e-13
2.15036e-13
1.92649e-13
1.89201e-13
1.24316e-13
8.3017e-14
1.98776e-13
3.20408e-13
3.86286e-13
3.34692e-13
-2.69708e-12
-1.1367e-11
-2.48295e-12
1.95466e-10
6.79659e-10
2.59935e-10
-9.27804e-09
-3.14979e-08
-1.86028e-08
1.94311e-07
9.59882e-07
1.19967e-06
-7.86804e-07
3.86505e-14
1.80809e-13
2.07988e-13
9.64245e-14
1.69789e-13
6.65269e-14
1.60791e-13
3.41718e-13
4.46796e-13
1.93296e-13
-3.93299e-12
-1.38057e-11
2.97178e-12
2.75282e-10
8.44744e-10
9.74806e-11
-1.42891e-08
-3.83636e-08
-7.88538e-09
3.94477e-07
1.35746e-06
1.03198e-06
-3.21148e-06
4.99827e-15
1.10461e-13
1.67026e-13
1.04275e-13
2.18193e-13
1.39073e-13
1.30992e-13
2.46909e-13
4.59462e-13
-3.25064e-14
-4.87556e-12
-1.24967e-11
3.8276e-11
3.86713e-10
7.60505e-10
-2.26875e-09
-2.2825e-08
-4.70522e-08
6.98733e-08
7.68166e-07
1.80717e-06
1.20455e-07
-7.2113e-06
1.28526e-13
7.87355e-14
1.96882e-13
1.66461e-13
5.62872e-14
1.85348e-13
2.42805e-13
3.23365e-13
4.77661e-13
-4.38157e-14
-5.59833e-12
-1.30869e-11
6.19082e-11
4.8175e-10
5.34183e-10
-5.57474e-09
-3.1504e-08
-4.11432e-08
2.37589e-07
1.30422e-06
2.49754e-06
-9.58944e-07
-2.34437e-05
1.23153e-13
1.30419e-15
2.96304e-14
7.1941e-14
1.10175e-13
1.16261e-13
2.48842e-13
3.48098e-13
6.41291e-13
-2.38123e-13
-6.67288e-12
-1.12908e-11
9.48356e-11
5.75347e-10
4.01176e-10
-8.55629e-09
-3.83077e-08
-2.74988e-08
3.77322e-07
1.67788e-06
3.21542e-06
-1.44023e-07
-3.06722e-05
2.3257e-13
1.17351e-13
8.05669e-14
5.86809e-15
9.09109e-15
1.7261e-13
2.33025e-13
4.13817e-13
5.37895e-13
-5.02804e-13
-7.51928e-12
-1.36445e-11
9.50287e-11
6.25341e-10
6.28267e-10
-9.2766e-09
-4.21113e-08
-2.50627e-08
4.5566e-07
1.83108e-06
3.49421e-06
3.59262e-07
-3.30314e-05
1.93748
3.79238
3.75724
-2.16644
0.931325
2.21121
3.48992
2.79979
0.18183
0.695922
1.30736
1.90032
-0.144441
-0.198196
-0.0128475
0.165802
-0.20694
-0.584813
-0.669193
-0.728228
0.0912244
-0.0217062
-0.310912
-0.849892
-0.154867
-0.212049
-0.184447
-0.168857
0.017838
0.0438459
0.155588
0.263514
0.123521
0.176459
0.263966
0.308911
0.108659
0.0947599
0.0868307
0.0705525
0.150186
0.148498
0.155007
0.178032
1.00532
1.09637
1.22291
1.33232
-0.0542876
-0.0388301
-0.0259624
-0.0564015
-0.0338078
-0.0365733
-0.0424925
-0.0420617
-0.00942177
-0.0122646
-0.0123162
0.00168088
-0.00175405
-0.00352893
-0.00771752
-0.0108347
-6.35833e-05
-0.000212667
-0.00128525
-0.00300837
9.4185e-05
0.000174992
2.83133e-05
-0.000378434
3.06823e-05
5.69577e-05
7.86239e-05
5.37718e-05
4.20534e-06
9.66425e-06
1.70652e-05
2.75607e-05
-1.29858e-07
9.09085e-07
1.74711e-06
3.61796e-06
-2.48445e-07
-2.70951e-07
-1.49112e-07
1.80496e-07
3.59774e-08
4.07471e-08
2.94198e-08
-2.28565e-08
1.19612e-07
1.57384e-07
1.54507e-07
1.19925e-07
1.50469e-07
2.23876e-07
2.64118e-07
2.72816e-07
1.49145e-07
2.47991e-07
3.14048e-07
3.16443e-07
9.1458e-08
1.99334e-07
3.11031e-07
3.16706e-07
6.84832e-08
1.7778e-07
3.06391e-07
3.62254e-07
6.01197e-08
1.61773e-07
3.20016e-07
4.68708e-07
1.31133e-07
2.65949e-07
4.84108e-07
7.2359e-07
3.83511e-07
6.46269e-07
9.64921e-07
1.07663e-06
5.09103e-07
8.65936e-07
1.33543e-06
1.64354e-06
6.64865e-07
1.07315e-06
1.72623e-06
1.85603e-06
8.49565e-07
1.3136e-06
1.53275e-06
-6.81327e-08
8.84488e-08
-1.64378e-07
-1.09548e-06
-5.29656e-06
-2.76585e-06
-5.13476e-06
-1.06089e-05
-2.49706e-05
-1.07407e-05
-2.30583e-05
-3.48803e-05
-5.58111e-05
-2.12751e-05
-4.77527e-05
-7.26341e-05
-9.27988e-05
-3.11431e-05
-6.71841e-05
-0.000122601
-0.000151441
-6.93577e-05
-0.000109626
-0.000157922
-0.000197251
-8.77328e-05
-0.000143218
-0.000191169
-0.000224935
-8.83207e-05
-0.000150972
-0.00020379
-0.000231835
-7.25952
-3.32402
-0.134268
1.43599
0.322927
0.742671
2.3818
2.0988
2.0328
1.49965
0.984924
0.77461
0.460731
0.58259
0.787613
2.08024
1.23036
-0.422999
2.80338
-4.19906
-0.107331
3.87499
-1.91246
-2.27623
-0.575017
0.231638
-0.978257
1.59024
1.46423
1.00619
0.707452
0.390955
0.597818
1.26136
1.66684
0.378984
0.697163
2.20059
0.710094
2.0328
1.40256
0.876821
0.237284
0.47003
1.1671
-1.98983
-0.518475
1.00112
0.854343
0.543637
0.325378
0.708796
1.01796
1.14027
1.55037
1.73991
0.88003
0.22482
0.670678
0.414787
0.188986
0.227493
0.164974
1.43387
-2.8995
-1.9232
-0.621688
0.330273
0.406845
0.290146
0.703937
1.6934
1.8236
2.82245
2.44741
-0.14342
0.292444
-1.90879
0.0627902
-0.567427
-0.711298
-0.118007
1.00995
3.21789
0.963061
-2.914
-0.759546
-0.0267826
0.0505172
0.327744
1.04991
1.02785
2.04632
1.43864
-0.708833
2.38311
-1.52179
1.32535
-0.946917
-0.60885
-0.992769
-0.95357
0.295526
2.46605
1.57772
-2.04307
-0.831231
-0.170966
0.169014
0.602035
0.125849
0.420282
-0.556055
-0.827697
1.94377
1.65983
0.575854
-0.0371476
0.243025
0.19666
0.134968
-0.399111
0.857739
2.2622
1.70267
-2.08968
-0.627219
0.0498593
0.39266
0.718409
2.24396
0.56424
-1.538
0.483355
0.70677
0.0404785
0.158663
0.92101
1.2992
1.71714
-0.427541
1.58866
0.856642
3.3175
1.73917
1.6015
0.562254
0.870778
2.22081
0.869363
-0.695391
-2.08043
0.161248
0.040408
0.243822
0.821456
1.0617
1.51499
1.57734
0.692568
-0.0523516
1.16286
1.95192
2.77566
3.79479
2.99493
2.81343
1.39279
-0.52095
-1.32278
-1.75133
0.0930051
0.274698
0.722389
1.51259
2.26918
2.79808
3.0539
3.13961
2.42883
1.52666
1.61317
1.99243
2.49509
2.61031
2.10339
0.632491
-0.481527
-1.00011
-1.5739
0.281175
0.539203
0.75475
0.968225
1.36695
2.11897
2.67788
2.87322
2.8529
2.27549
1.51024
1.2803
1.27669
1.15269
0.855237
-0.330874
-0.787211
-1.00963
-1.3921
1.52207
1.9477
2.27282
2.54425
2.87547
3.10881
3.15893
3.12292
3.70678
4.03408
3.98497
2.72836
1.81564
1.17661
-0.169945
-0.402303
-0.764865
-1.08287
-1.2466
-0.0497169
0.14709
0.793415
1.3312
1.37665
1.25328
1.39712
1.32984
1.24882
1.93027
2.19299
3.88011
3.36386
2.4307
1.5726
0.369211
-0.581936
-1.02325
-1.24775
0.0234478
0.306558
0.640047
0.649708
0.512762
0.509437
0.639723
0.710051
0.501224
0.773052
0.616692
1.40444
1.59858
2.63445
1.86816
-0.0744179
-0.0783937
-0.52753
-1.0132
0.0665547
0.226964
0.297419
0.271449
0.197068
0.254288
0.356391
0.553338
0.636424
0.842464
0.919952
1.31054
2.08281
1.88236
1.90526
0.881296
0.678432
0.508729
-0.484743
-0.00472257
0.0202749
0.0714041
0.0914616
0.100902
0.110701
0.191398
0.246051
0.24107
0.25278
0.41974
0.916299
1.33938
1.24889
2.30151
1.85998
1.86599
0.889348
0.497416
-0.0046616
-0.00628621
-0.00547687
0.0185372
0.0558156
0.0518668
0.110331
0.129244
0.106207
0.121624
0.27619
0.697287
0.82302
1.43048
2.55747
2.59165
2.45536
1.51719
1.38009
-0.00105408
-0.00246967
-0.00425532
-0.00431666
0.0201921
0.010262
0.0179243
0.0398925
0.0206305
0.0168063
0.129172
0.272937
0.374642
0.603835
1.46737
1.90602
2.66164
2.18171
2.00339
-0.000117083
-0.000321166
-0.000907593
-0.00207967
0.00332235
0.00286989
0.000830784
0.00604859
0.00471123
0.0188267
0.0674686
0.16139
0.293091
0.536223
0.863365
1.28553
2.62179
2.71647
2.36469
2.50799e-05
-4.06763e-05
-0.000101702
-0.000517852
-0.000235959
-0.000139579
-8.27371e-05
-0.000422254
-0.00145602
0.00836847
0.0472839
0.0634256
0.145879
0.286972
0.417918
0.855999
2.34952
3.20434
2.62448
7.11103e-06
9.3138e-06
1.37728e-05
-7.67706e-05
-0.000257093
-0.000197217
-0.000166955
-0.000486145
-0.00148
0.000561192
0.0327176
0.042409
0.107811
0.227142
0.298802
0.519682
1.84686
3.29417
2.87766
3.67919e-07
2.52857e-06
5.60629e-06
3.73812e-08
-2.838e-05
-6.61496e-05
-8.88285e-05
-0.000180151
-0.000774805
-0.00149243
0.00734173
0.0306369
0.100919
0.203793
0.287561
0.46262
1.49248
3.2506
3.09779
-2.26141e-07
-5.32309e-07
8.45239e-08
2.75761e-06
6.25283e-06
5.36018e-06
3.51809e-05
1.23732e-05
-0.00025377
-0.000553066
0.00316229
-0.00441401
0.0349887
0.160111
0.25146
0.400259
1.19836
3.09549
3.2546
-1.10957e-07
-6.7651e-07
-6.29771e-07
1.39659e-07
2.29283e-06
6.88643e-06
3.30437e-05
0.000133147
6.18764e-05
-6.01672e-05
-0.000289082
-0.00384604
0.0300395
0.114132
0.170535
0.321434
1.07006
3.00143
3.33523
1.51761e-07
-1.27593e-07
-7.08159e-07
-3.69357e-06
-2.1907e-06
4.93866e-06
3.3942e-05
0.000143819
0.000224629
-3.84359e-06
-0.00122663
0.00509424
0.0734856
0.0980899
0.123791
0.255961
0.957248
2.83717
3.37119
1.12e-07
-4.63649e-07
-2.2213e-06
-7.91387e-06
-1.73033e-05
-1.51681e-05
-9.62158e-06
6.77581e-05
0.000231849
0.000179865
-0.000352521
0.00184578
0.0111956
0.0414414
0.101346
0.214635
0.765588
2.56538
3.39524
1.16441e-07
-4.71e-07
-2.59028e-06
-1.05155e-05
-3.41551e-05
-3.96601e-05
-3.11953e-05
6.05935e-05
0.000289306
0.000324173
0.000149557
0.000594427
0.0087763
0.0349743
0.0870084
0.197812
0.581106
2.21975
3.43314
3.17036e-07
1.24603e-07
-1.61632e-06
-1.28161e-05
-5.35445e-05
-8.44335e-05
-8.06946e-05
-4.3586e-05
0.000182784
0.000373043
0.000286555
0.00125583
0.00712491
0.0283772
0.0949074
0.227558
0.478576
1.89571
3.40441
5.76553e-07
6.39202e-07
5.18219e-09
-6.3174e-06
-2.90636e-05
-9.19196e-05
-0.000102265
-7.99586e-05
8.82512e-05
0.0002491
0.00054159
0.00605215
0.0196533
0.0268792
0.0736735
0.224009
0.485182
1.72784
3.34108
8.13845e-07
8.98177e-07
-6.06437e-08
-5.39831e-06
-2.42296e-05
-9.06503e-05
-8.17366e-05
4.91576e-05
0.000266431
0.000752025
0.00209279
0.00631106
0.0107851
0.0241683
0.126006
0.277867
0.486585
1.68532
3.19494
8.25124e-07
-1.05684e-06
-4.10065e-06
-1.16698e-05
-3.31518e-05
-9.02908e-05
-8.48039e-05
-3.40344e-05
0.000147435
0.000586259
0.00170172
0.00415118
0.00766966
0.0283352
0.114444
0.265811
0.554218
1.71494
3.14574
1.49705e-06
-8.1341e-07
-7.77609e-06
-2.05067e-05
-4.02525e-05
-8.49255e-05
-9.73184e-05
-0.000115057
-3.5442e-05
0.000535275
0.00194131
0.00298435
0.00277484
0.0135384
0.105034
0.316705
0.708324
1.55139
3.01583
-1.1075e-06
-7.07615e-06
-2.21614e-05
-4.53334e-05
-7.04424e-05
-9.68179e-05
-0.000104213
-0.000105838
5.10795e-05
0.000521579
0.00151265
0.00251402
0.00418381
0.0212611
0.105125
0.298121
0.643473
1.29342
3.00825
-1.02899e-05
-2.42545e-05
-5.9634e-05
-9.5817e-05
-0.000118009
-0.000110849
-0.000108271
-0.000108324
-6.31119e-05
0.000146464
0.000974078
0.00223326
0.0055151
0.0214549
0.104373
0.215524
0.371374
0.963245
2.89439
-1.77353e-05
-4.98066e-05
-9.49522e-05
-0.000129604
-0.000130989
-0.000125039
-0.000109636
-8.70791e-05
-3.73982e-05
6.38087e-05
0.000310621
0.000319254
0.00225661
0.0273155
0.132796
0.226352
0.355169
0.862753
2.85795
-5.46407e-05
-0.000124922
-0.000137146
-0.000146246
-0.000143937
-0.000128997
-9.86114e-05
-6.14586e-05
-1.15944e-05
5.69724e-05
0.000134753
0.000461583
0.00225404
0.0133985
0.0594988
0.13785
0.291774
0.79996
2.51277
-0.000101292
-0.000149225
-0.000152225
-0.000146449
-9.45052e-05
-9.44587e-05
-5.82926e-05
-1.48471e-05
6.90706e-05
0.000160013
0.000249716
0.000316822
0.00233122
0.0167755
0.0525914
0.122622
0.421988
1.95254
2.57289
-0.000153334
-0.000157253
-0.000122527
-1.13784e-05
0.0002444
0.000133948
0.000153502
0.000168392
0.000190442
0.000292626
0.000373519
0.000395439
0.00225908
0.0110235
0.0228245
0.077262
0.333705
1.36755
2.50488
-0.000188982
-0.000170462
5.63783e-06
0.000533576
0.000739638
0.000986992
0.000837674
0.000604117
0.000416008
0.000560525
0.000619838
0.000696001
0.000929899
0.00453836
0.0140477
0.0632748
0.18085
0.764355
2.36391
-0.000208387
-0.000147937
0.000145087
0.00113649
0.00183223
0.00265923
0.00247536
0.0018141
0.00106587
0.00115928
0.00134948
0.00119017
0.00224874
0.00394841
-0.000323564
0.0209711
0.110401
0.518281
2.22706
-0.000222214
-0.000102249
0.000476674
0.00140863
0.00260475
0.00369704
0.00400381
0.00307085
0.00151451
0.00212528
0.0025849
0.00252626
0.00288666
0.00381657
0.00455093
0.00558313
-0.00816365
-0.00917731
1.78925
-0.00022915
-0.00011481
0.000709441
0.00164563
0.00286706
0.00397058
0.00524736
0.00490563
0.00366491
0.00425704
0.00478412
0.00543334
0.00523444
0.00552195
0.00540831
0.00146669
-0.014377
-0.185889
0.484551
)
;

boundaryField
{
    leftWall
    {
        type            zeroGradient;
    }
    rightWall
    {
        type            zeroGradient;
    }
    lowerWall
    {
        type            zeroGradient;
    }
    atmosphere
    {
        type            zeroGradient;
    }
    defaultFaces
    {
        type            empty;
    }
}


// ************************************************************************* //
