/*--------------------------------*- C++ -*----------------------------------*\
| =========                 |                                                 |
| \\      /  F ield         | foam-extend: Open Source CFD                    |
|  \\    /   O peration     | Version:     4.1                                |
|   \\  /    A nd           | Web:         http://www.foam-extend.org         |
|    \\/     M anipulation  |                                                 |
\*---------------------------------------------------------------------------*/
FoamFile
{
    version     2.0;
    format      ascii;
    class       volVectorField;
    location    "0.5";
    object      U;
}
// * * * * * * * * * * * * * * * * * * * * * * * * * * * * * * * * * * * * * //

dimensions      [0 1 -1 0 0 0 0];

internalField   nonuniform List<vector> 
2268
(
(0.0472884 -0.00635821 0)
(0.0539869 -0.00432579 0)
(0.119198 -0.00533178 0)
(0.143939 -0.00577568 0)
(0.203782 -0.00207434 0)
(0.224949 -0.00512408 0)
(0.258443 -0.000836287 0)
(0.260815 0.0013864 0)
(0.268956 0.00754179 0)
(0.23545 0.0192554 0)
(0.17153 -0.0404251 0)
(0.172389 -0.0166165 0)
(0.187735 -0.0147028 0)
(0.183985 -0.00942899 0)
(0.183641 -0.00927255 0)
(0.163795 -0.00903667 0)
(0.167466 -0.0236451 0)
(0.164743 -0.0120321 0)
(0.132115 -0.019671 0)
(0.118049 0.0143203 0)
(0.0813393 0.0270573 0)
(0.063072 0.01016 0)
(0.08398 -0.0023936 0)
(0.0451905 -0.0175551 0)
(0.0541288 -0.0126761 0)
(0.120778 -0.0161093 0)
(0.14611 -0.0137845 0)
(0.200632 -0.0175707 0)
(0.226409 -0.0070262 0)
(0.265581 -0.00836546 0)
(0.270126 -0.00376545 0)
(0.284543 -0.00137142 0)
(0.246288 0.00638706 0)
(0.190854 -0.0239935 0)
(0.201546 0.00110816 0)
(0.200887 0.00377295 0)
(0.194943 0.0119957 0)
(0.194703 0.018284 0)
(0.167731 0.0296063 0)
(0.178153 0.0203612 0)
(0.201218 0.0306298 0)
(0.171923 0.0373399 0)
(0.133311 0.0106858 0)
(0.0573514 0.0192983 0)
(0.0632866 0.0634027 0)
(0.104324 0.0349963 0)
(0.0387773 -0.0297699 0)
(0.051757 -0.0221459 0)
(0.122348 -0.0272118 0)
(0.150877 -0.0241081 0)
(0.193328 -0.0214993 0)
(0.238566 -0.0198944 0)
(0.266613 -0.0110203 0)
(0.274382 -0.00192461 0)
(0.296211 0.0192712 0)
(0.223716 -0.0605228 0)
(0.182495 -0.0273519 0)
(0.186995 -0.0102581 0)
(0.180075 -0.00868512 0)
(0.168137 0.000896357 0)
(0.169895 0.00292091 0)
(0.148133 0.0118349 0)
(0.159696 0.0448195 0)
(0.168935 0.0182855 0)
(0.156035 0.0268116 0)
(0.128394 0.0149958 0)
(0.10086 0.0294469 0)
(0.0640029 0.0499071 0)
(0.0849014 0.0393277 0)
(0.0319018 -0.0389429 0)
(0.0505656 -0.0325195 0)
(0.128328 -0.0397194 0)
(0.154856 -0.0302947 0)
(0.200148 -0.0387547 0)
(0.245998 -0.0235613 0)
(0.258571 -0.0185608 0)
(0.295695 -0.0126995 0)
(0.261753 0.00319449 0)
(0.192645 -0.0498924 0)
(0.185382 -0.0125749 0)
(0.149173 0.00410326 0)
(0.136089 0.0143529 0)
(0.110871 0.0271533 0)
(0.116081 0.0279243 0)
(0.105687 0.0174922 0)
(0.111716 0.0554601 0)
(0.113215 0.0122841 0)
(0.118636 0.0196481 0)
(0.106006 0.0244137 0)
(0.0807778 0.0504617 0)
(0.0604485 0.0562922 0)
(0.0926808 0.0668472 0)
(0.028564 -0.0490815 0)
(0.0519714 -0.0447867 0)
(0.131199 -0.0518773 0)
(0.157554 -0.0404982 0)
(0.209802 -0.0441383 0)
(0.23574 -0.0336642 0)
(0.25265 -0.0215152 0)
(0.298722 0.000497048 0)
(0.235835 -0.0647467 0)
(0.162896 -0.0312314 0)
(0.153307 -0.00684748 0)
(0.117081 0.0130072 0)
(0.105478 0.0250037 0)
(0.0841686 0.0215501 0)
(0.0779621 0.0318677 0)
(0.0629268 0.0154621 0)
(0.0581369 0.0349142 0)
(0.052055 0.0173922 0)
(0.0503548 0.0254642 0)
(0.0584113 0.0399596 0)
(0.0603133 0.0409309 0)
(0.0483244 0.0772772 0)
(0.0841043 0.074765 0)
(0.0323688 -0.0580971 0)
(0.0596451 -0.0571139 0)
(0.135836 -0.0648171 0)
(0.160748 -0.0491712 0)
(0.205266 -0.0577728 0)
(0.232318 -0.0322095 0)
(0.276881 -0.0392599 0)
(0.238475 -0.0114658 0)
(0.166335 -0.0487279 0)
(0.153976 -0.0148501 0)
(0.125805 0.00945171 0)
(0.0952353 0.0277395 0)
(0.0864432 0.0447248 0)
(0.0640602 0.0575778 0)
(0.0602615 0.0474975 0)
(0.0402978 0.0282575 0)
(0.0335309 0.0622309 0)
(0.0294993 0.0160002 0)
(0.0336385 0.057817 0)
(0.00785183 0.0183639 0)
(0.0338181 0.0632012 0)
(0.0443412 0.0820624 0)
(0.0799384 0.0975519 0)
(0.0380242 -0.0705182 0)
(0.0654323 -0.0687833 0)
(0.135177 -0.075526 0)
(0.156849 -0.056675 0)
(0.208085 -0.061374 0)
(0.235598 -0.0530149 0)
(0.241395 -0.0156442 0)
(0.194717 -0.0643924 0)
(0.148799 -0.0343174 0)
(0.14263 -0.0090737 0)
(0.113664 0.0185437 0)
(0.0917066 0.03214 0)
(0.0861806 0.0505017 0)
(0.0632144 0.044479 0)
(0.0278583 0.0511169 0)
(0.0328719 0.0289644 0)
(0.0147066 0.0408562 0)
(0.0110642 0.0228048 0)
(0.0119594 0.0371427 0)
(0.00729352 0.059307 0)
(0.0393742 0.0530821 0)
(0.0224953 0.0881696 0)
(0.0789893 0.101599 0)
(0.0407043 -0.0825796 0)
(0.0676409 -0.0806716 0)
(0.13894 -0.0864196 0)
(0.159223 -0.0683175 0)
(0.208151 -0.079704 0)
(0.244293 -0.0348942 0)
(0.199224 -0.043589 0)
(0.169122 -0.0613105 0)
(0.152183 -0.0272087 0)
(0.136533 0.00180953 0)
(0.108251 0.0338931 0)
(0.0864161 0.0422466 0)
(0.0644665 0.0738017 0)
(0.0508191 0.0405809 0)
(0.0333423 0.0733777 0)
(0.0228899 0.0358576 0)
(0.0153831 0.0226996 0)
(0.0129513 0.0145768 0)
(0.0339644 0.0142898 0)
(-0.00658112 0.0580468 0)
(0.0146437 0.0308606 0)
(0.0210118 0.0725079 0)
(0.0639479 0.125968 0)
(-2.13929 0.442381 0)
(-2.51046 0.180345 0)
(-2.52341 -0.0760346 0)
(-2.2959 -0.139622 0)
(-2.17068 -0.0935175 0)
(-2.02631 -0.133165 0)
(-1.96037 -0.102308 0)
(-1.90506 -0.150877 0)
(-1.86067 -0.134483 0)
(-1.80022 -0.0982142 0)
(-1.80198 -0.0979463 0)
(-1.79871 -0.0972106 0)
(-1.80243 -0.0399867 0)
(-1.72804 -0.15229 0)
(-1.77697 -0.203942 0)
(-1.88683 -0.106056 0)
(-1.43021 0.00844376 0)
(-1.14413 -0.358208 0)
(-0.413393 -0.155299 0)
(-1.85817 0.646626 0)
(-1.58034 0.631086 0)
(-0.77882 0.103231 0)
(-0.894261 -0.120174 0)
(-0.794636 -0.214947 0)
(-0.712624 0.0206401 0)
(-0.622862 0.0484755 0)
(-0.641478 0.0528518 0)
(-0.733202 -0.0124272 0)
(-0.886943 0.0218067 0)
(-1.1358 0.103203 0)
(-1.39049 0.132485 0)
(-1.68828 0.0417926 0)
(-1.7983 -0.0280429 0)
(-1.75277 -0.280822 0)
(-1.91071 0.0132821 0)
(-1.64253 0.259803 0)
(-0.892738 -0.407322 0)
(-0.259271 -0.569421 0)
(-1.51784 1.09321 0)
(-0.662146 0.60548 0)
(-0.568406 -0.190228 0)
(-0.820028 -0.117671 0)
(-0.595746 -0.221098 0)
(-0.468414 0.0275383 0)
(-0.169245 -0.0632622 0)
(-0.363567 -0.0327509 0)
(-0.580127 -0.0092943 0)
(-0.875062 0.0540779 0)
(-1.11681 0.118267 0)
(-1.22279 -0.0314267 0)
(-1.12088 -0.372216 0)
(-1.29904 -0.217828 0)
(-1.5535 -0.419521 0)
(-1.67011 -0.120521 0)
(-1.60002 0.0303552 0)
(-0.774417 -0.315976 0)
(-0.00324888 -0.672002 0)
(-1.20678 1.12749 0)
(-0.177952 0.582862 0)
(-0.102555 -0.243141 0)
(-0.318956 -0.543414 0)
(0.141253 -0.459884 0)
(0.194884 -0.114253 0)
(0.591537 -0.0789019 0)
(0.321409 0.334706 0)
(-0.133701 0.224516 0)
(-0.470277 0.254369 0)
(-0.625771 0.243577 0)
(-0.588775 0.136687 0)
(-0.311392 -0.230792 0)
(-0.309446 -0.270953 0)
(-0.631846 -0.172321 0)
(-0.953058 -0.0371417 0)
(-0.926839 -0.17121 0)
(-0.839998 -0.308041 0)
(0.116746 -0.968906 0)
(-0.92398 1.31734 0)
(0.866186 0.629745 0)
(0.834302 0.11203 0)
(0.329189 -0.260006 0)
(0.583542 -0.542853 0)
(0.689175 -0.425778 0)
(0.980464 -0.0045593 0)
(0.643478 0.552254 0)
(0.112438 0.368883 0)
(-0.0689092 0.205086 0)
(-0.158776 0.180082 0)
(-0.224259 -0.0652176 0)
(-0.317264 -0.278485 0)
(-0.219839 -0.252668 0)
(-0.229785 -0.103634 0)
(-0.815675 0.225839 0)
(-0.610895 -0.230408 0)
(-0.731893 -0.332571 0)
(0.210161 -1.14213 0)
(-0.835645 1.22581 0)
(1.29226 0.372613 0)
(0.882836 0.166915 0)
(0.58263 -0.218639 0)
(0.690628 -0.575153 0)
(0.824038 -0.636063 0)
(1.15849 -0.368727 0)
(1.20331 0.406521 0)
(0.889075 0.488192 0)
(0.727851 0.373025 0)
(0.358035 0.289511 0)
(-0.083264 -0.00633348 0)
(-0.309204 -0.296255 0)
(-0.185601 -0.264756 0)
(-0.0690679 -0.0580367 0)
(-0.704 0.151043 0)
(-0.407579 -0.219592 0)
(-0.708418 -0.395014 0)
(0.222632 -1.211 0)
(-0.660909 1.17868 0)
(1.31597 0.311823 0)
(0.656436 0.113048 0)
(0.726733 -0.350523 0)
(0.547293 -0.512574 0)
(0.586496 -0.641372 0)
(0.965357 -0.288653 0)
(1.253 0.533873 0)
(1.16293 0.587033 0)
(1.12409 0.459737 0)
(0.876648 0.548794 0)
(0.116874 0.304327 0)
(-0.14467 -0.260774 0)
(-0.135745 -0.350854 0)
(0.188102 -0.0304778 0)
(-0.51088 0.195554 0)
(0.0629518 -0.224131 0)
(-0.608299 -0.411025 0)
(0.285218 -1.25283 0)
(-0.0540067 0.902612 0)
(1.10051 0.272775 0)
(0.626138 0.0438566 0)
(0.727083 -0.473063 0)
(0.52141 -0.400056 0)
(0.48739 -0.3687 0)
(0.610556 -0.294681 0)
(1.13256 0.224223 0)
(1.20104 0.516808 0)
(1.34893 0.550973 0)
(1.07051 0.685898 0)
(0.152273 0.349184 0)
(-0.0259049 -0.216095 0)
(-0.000877845 -0.375264 0)
(0.133562 0.0203431 0)
(-0.0292293 0.219694 0)
(0.334115 -0.187141 0)
(-0.389967 -0.453821 0)
(0.301529 -1.2931 0)
(0.0397882 -0.102148 0)
(0.0626065 -0.0961881 0)
(0.134676 -0.102335 0)
(0.140283 -0.07265 0)
(0.223573 -0.0805298 0)
(0.185562 -0.0708765 0)
(0.159723 -0.0813969 0)
(0.178013 -0.0475248 0)
(0.149774 -0.0142202 0)
(0.143879 0.0169439 0)
(0.112591 0.0453635 0)
(0.111652 0.0597327 0)
(0.07701 0.0804455 0)
(0.0596083 0.063193 0)
(0.035761 0.0719741 0)
(0.0143797 0.0408169 0)
(0.00732451 0.0481824 0)
(-0.0107124 0.0232199 0)
(-5.71913e-05 0.0510526 0)
(0.00622771 0.00216548 0)
(0.0511846 0.0539868 0)
(0.0872795 0.0687922 0)
(0.0620475 0.138903 0)
(0.0373287 -0.129823 0)
(0.0398364 -0.12721 0)
(0.128777 -0.122135 0)
(0.10207 -0.118288 0)
(0.0879516 -0.107281 0)
(0.107781 -0.143263 0)
(0.115953 -0.047999 0)
(0.124686 -0.0459056 0)
(0.127499 -0.0082452 0)
(0.118885 0.0331956 0)
(0.107535 0.0609999 0)
(0.095127 0.0712944 0)
(0.0763812 0.0576619 0)
(0.0662429 0.0703041 0)
(0.0539054 0.0567874 0)
(0.0446802 0.0592082 0)
(0.0313667 0.0450752 0)
(0.034475 0.0548361 0)
(0.0246022 0.0326405 0)
(0.0229077 0.0362763 0)
(0.0403774 -0.00278884 0)
(0.151568 0.0370585 0)
(0.0960446 0.0794935 0)
(0.00448573 -0.138588 0)
(0.00686143 -0.139634 0)
(0.0211977 -0.132471 0)
(0.0173386 -0.136858 0)
(0.0191461 -0.0905274 0)
(0.00981595 -0.0958709 0)
(-0.0270512 -0.0865914 0)
(-0.0563712 -0.0531621 0)
(-0.0659126 -0.00158273 0)
(-0.0701078 0.0424521 0)
(-0.00845501 0.072351 0)
(0.00337206 0.0981892 0)
(0.0162171 0.102313 0)
(0.0424312 0.0892426 0)
(0.0323766 0.0845059 0)
(0.0194998 0.0670225 0)
(0.0243434 0.0531126 0)
(0.01258 0.0472284 0)
(0.0136643 0.0132062 0)
(0.0230202 0.00590435 0)
(0.0596864 -0.0204469 0)
(0.15378 0.0113943 0)
(0.166236 0.0359179 0)
(0.00319605 -0.145406 0)
(0.00460477 -0.147432 0)
(0.0104646 -0.136889 0)
(0.00622604 -0.117511 0)
(0.000627734 -0.103777 0)
(-0.00582569 -0.0997393 0)
(-0.0758509 -0.0184645 0)
(-0.117654 0.0150046 0)
(-0.145675 0.00261693 0)
(-0.191584 -0.00458839 0)
(-0.16345 0.0254702 0)
(-0.182444 0.0421887 0)
(-0.154103 0.126391 0)
(-0.0704031 0.0509716 0)
(-0.0342355 0.0893173 0)
(-0.046129 0.0634109 0)
(-0.0282311 0.0548212 0)
(-0.0337979 0.0101474 0)
(-0.0176944 0.0247184 0)
(0.0107265 -0.0140385 0)
(0.042762 -0.0125049 0)
(0.121182 -0.045196 0)
(0.129682 0.0027204 0)
(0.000354626 -0.147001 0)
(0.000946192 -0.145985 0)
(-0.00253396 -0.134212 0)
(-0.0073517 -0.118724 0)
(-0.0309684 -0.0845628 0)
(-0.0672523 -0.0450377 0)
(-0.0950844 -0.0161342 0)
(-0.130759 0.0939985 0)
(-0.164663 0.0785585 0)
(-0.233743 0.0653674 0)
(-0.272537 0.00443101 0)
(-0.246776 -0.0442519 0)
(-0.357736 0.0356916 0)
(-0.246069 -0.00217906 0)
(-0.230561 0.0525171 0)
(-0.294249 0.0605767 0)
(-0.225399 0.0420684 0)
(-0.170283 0.0341114 0)
(-0.0654082 -0.0214005 0)
(-0.0667967 -0.0582229 0)
(0.0420795 -0.128917 0)
(0.232584 -0.0758903 0)
(0.177761 -0.0727434 0)
(7.2038e-05 -0.146866 0)
(-0.0192566 -0.140642 0)
(-0.0353785 -0.133435 0)
(-0.0532735 -0.103341 0)
(-0.0993571 -0.0708008 0)
(-0.155662 -0.0140732 0)
(-0.147244 0.0529507 0)
(-0.161533 0.0933401 0)
(-0.142742 0.0998036 0)
(-0.211638 0.0833775 0)
(-0.226792 0.0834127 0)
(-0.194631 0.0562042 0)
(-0.422741 -0.0513383 0)
(-0.403711 0.0716514 0)
(-0.30747 -0.0544964 0)
(-0.32981 0.0421773 0)
(-0.210426 0.000230422 0)
(-0.169679 0.0296856 0)
(-0.0600229 -0.0883461 0)
(-0.0836805 -0.131479 0)
(0.18548 -0.164822 0)
(0.187707 -0.124686 0)
(0.165549 -0.115029 0)
(-0.0110052 -0.126225 0)
(-0.0870631 -0.112238 0)
(-0.127145 -0.0979751 0)
(-0.0893299 -0.12056 0)
(-0.156746 -0.0375614 0)
(-0.158185 0.00596925 0)
(-0.181628 0.112567 0)
(-0.198794 0.101167 0)
(-0.204718 0.0973007 0)
(-0.236314 0.0539603 0)
(-0.241672 0.148641 0)
(-0.195408 0.0835589 0)
(-0.214554 -0.00409247 0)
(-0.357068 0.182242 0)
(-0.216076 -0.0168596 0)
(-0.136621 -0.0164935 0)
(-0.0564033 -0.112654 0)
(-0.0725717 -0.108336 0)
(0.000153225 -0.157128 0)
(0.0218163 -0.178709 0)
(-0.0134124 -0.274926 0)
(-0.0792007 -0.24778 0)
(-0.0617217 -0.229295 0)
(-0.0157079 -0.0934491 0)
(-0.084475 -0.0779622 0)
(-0.17539 -0.0486978 0)
(-0.121833 -0.0652498 0)
(-0.160372 0.00051479 0)
(-0.152551 0.00228682 0)
(-0.153024 0.110253 0)
(-0.236981 0.112149 0)
(-0.220908 0.14672 0)
(-0.116812 0.157151 0)
(-0.177513 0.206302 0)
(-0.156144 0.154154 0)
(-0.243541 0.0280027 0)
(-0.235743 -0.0621093 0)
(-0.124277 0.011618 0)
(-0.138945 -0.137226 0)
(-0.0734328 -0.189425 0)
(-0.0195722 -0.0828353 0)
(0.0176552 -0.137679 0)
(-0.03513 -0.170703 0)
(-0.0631473 -0.344913 0)
(-0.0920204 -0.326298 0)
(-0.167612 -0.105969 0)
(-0.0166914 -0.0258991 0)
(-0.0902318 -0.0811115 0)
(-0.176518 -0.0597301 0)
(-0.100313 -0.00675519 0)
(-0.163519 -0.0444106 0)
(-0.163988 0.039709 0)
(-0.135586 0.0723927 0)
(-0.188428 0.140988 0)
(-0.16946 0.166609 0)
(-0.197478 0.176466 0)
(-0.265685 0.0881259 0)
(-0.22917 0.0863116 0)
(-0.159176 -0.0439085 0)
(-0.203726 0.117593 0)
(-0.0909585 -0.0632673 0)
(-0.125383 -0.0932488 0)
(-0.111699 -0.131576 0)
(0.00038899 -0.15338 0)
(-0.0827994 -0.155865 0)
(-0.031337 -0.283443 0)
(-0.220113 0.0160198 0)
(-0.355109 -0.0898864 0)
(-0.365926 -0.24651 0)
(-0.0750401 0.00953094 0)
(-0.0669893 -0.0435171 0)
(-0.097621 -0.0321111 0)
(-0.0992689 0.0222975 0)
(-0.143056 -0.0319659 0)
(-0.14136 0.0887162 0)
(-0.153608 0.107726 0)
(-0.176433 0.11326 0)
(-0.160877 0.06679 0)
(-0.217545 0.114657 0)
(-0.302276 0.035446 0)
(-0.259681 0.152214 0)
(-0.16503 -0.041182 0)
(-0.261891 -0.0273578 0)
(-0.252559 -0.207948 0)
(-0.123648 -0.222564 0)
(-0.172031 -0.192222 0)
(-0.205662 -0.149215 0)
(-0.356399 -0.102037 0)
(-0.448327 0.0311579 0)
(-0.522059 0.0446474 0)
(-0.525706 -0.0388056 0)
(-0.646007 -0.155828 0)
(-0.0665478 0.0509369 0)
(-0.0538089 0.00367708 0)
(-0.0756294 -0.0203744 0)
(-0.0637507 0.0305952 0)
(-0.114531 0.00615071 0)
(-0.109803 0.0861186 0)
(-0.174085 0.106689 0)
(-0.193146 0.132761 0)
(-0.114464 0.195636 0)
(-0.204658 0.173772 0)
(-0.278146 0.105915 0)
(-0.376206 0.166322 0)
(-0.351841 -0.0569539 0)
(-0.254225 -0.187332 0)
(-0.366704 -0.284429 0)
(-0.395477 -0.174543 0)
(-0.569502 0.00315353 0)
(-0.650978 0.018039 0)
(-0.768665 0.0947736 0)
(-0.729299 0.214742 0)
(-0.715211 0.160113 0)
(-0.620452 0.0806055 0)
(-0.64194 0.000302895 0)
(-0.0753727 0.0728263 0)
(-0.0163451 0.0269491 0)
(-0.0615036 -0.0138698 0)
(-0.0865735 0.0524661 0)
(-0.0787658 0.0412058 0)
(-0.121582 0.0930546 0)
(-0.257257 0.137952 0)
(-0.144289 0.258649 0)
(-0.129316 0.230181 0)
(-0.306775 0.201376 0)
(-0.313341 0.172852 0)
(-0.38766 0.245096 0)
(-0.526857 0.22803 0)
(-0.843746 0.212515 0)
(-1.60134 0.17131 0)
(-2.3088 0.110952 0)
(-2.51574 0.018482 0)
(-2.55865 -0.00746085 0)
(-2.40458 -0.0740495 0)
(-2.10545 -0.157982 0)
(-1.96413 -0.16486 0)
(-1.855 -0.179947 0)
(-1.7711 -0.1782 0)
(-0.0722461 0.0934655 0)
(0.00320907 0.0259436 0)
(-0.0553157 -0.0191925 0)
(-0.0358981 0.110947 0)
(-0.0976131 0.0324006 0)
(-0.109338 0.123889 0)
(-0.106509 0.193583 0)
(-0.179089 0.310414 0)
(-0.190491 0.254239 0)
(-0.26091 0.275282 0)
(-0.212874 0.403488 0)
(-0.275674 0.42788 0)
(-0.377327 0.575534 0)
(-0.420717 0.599987 0)
(-0.445287 0.805559 0)
(-0.777991 0.601578 0)
(-0.824515 0.358328 0)
(-0.776403 0.221355 0)
(-0.750038 0.0411905 0)
(-0.487265 -0.146337 0)
(-0.300188 -0.164925 0)
(-0.262495 -0.160726 0)
(-0.222792 -0.20451 0)
(-0.0296422 0.151704 0)
(0.00223441 0.0165497 0)
(-0.0378134 0.0307204 0)
(-0.0934674 0.0897544 0)
(-0.0901996 0.042053 0)
(-0.123727 0.155607 0)
(-0.148812 0.178696 0)
(-0.132648 0.196312 0)
(-0.194715 0.253697 0)
(-0.125833 0.291798 0)
(-0.120285 0.407533 0)
(-0.150044 0.35982 0)
(-0.244321 0.47877 0)
(-0.195165 0.475316 0)
(0.0139266 0.693401 0)
(0.0656079 0.565853 0)
(0.281351 0.484341 0)
(0.200556 0.10702 0)
(0.179594 -0.602613 0)
(-0.0199134 -0.474472 0)
(-0.0785064 -0.286793 0)
(-0.22967 0.00921718 0)
(-0.211356 -0.223374 0)
(-0.0258897 0.112456 0)
(-0.004473 0.0285627 0)
(-0.0710566 0.0848246 0)
(-0.066176 0.0729941 0)
(-0.0551761 0.14529 0)
(-0.0951587 0.131904 0)
(-0.17236 0.210177 0)
(-0.14021 0.176255 0)
(-0.127206 0.235576 0)
(-0.119922 0.288071 0)
(-0.109095 0.305528 0)
(-0.101426 0.283817 0)
(-0.0953747 0.338647 0)
(0.00841102 0.348979 0)
(0.118226 0.393372 0)
(0.254563 0.312352 0)
(0.301597 0.212282 0)
(0.29452 0.059251 0)
(0.253301 -0.141675 0)
(0.0768462 -0.156212 0)
(0.0367594 -0.151412 0)
(-0.0284679 0.0137645 0)
(-0.0741225 -0.00594576 0)
(0.0220985 0.206058 0)
(0.0370136 0.0612554 0)
(-0.052535 0.136114 0)
(-0.0424226 0.168511 0)
(-0.0760225 0.176841 0)
(-0.088714 0.20382 0)
(-0.143962 0.237647 0)
(-0.130714 0.28757 0)
(-0.0774062 0.206785 0)
(-0.0938066 0.295804 0)
(-0.112184 0.320561 0)
(-0.0313212 0.398042 0)
(-0.0390132 0.355543 0)
(-0.0175519 0.348527 0)
(0.155104 0.324757 0)
(0.180584 0.240893 0)
(0.223643 0.0901044 0)
(0.227575 0.0717982 0)
(0.217694 -0.0856905 0)
(0.140148 -0.0964666 0)
(0.154122 -0.0225993 0)
(0.128839 0.0508871 0)
(0.0444402 0.115163 0)
(-0.0359854 0.202804 0)
(-0.0340523 0.0752255 0)
(-0.0294271 0.0948247 0)
(-0.0226662 0.146338 0)
(-0.0116419 0.141209 0)
(-0.0484127 0.204114 0)
(-0.0783457 0.221477 0)
(-0.153639 0.293483 0)
(-0.137574 0.261855 0)
(-0.0203255 0.283615 0)
(0.00353411 0.302455 0)
(-0.0260803 0.381173 0)
(-0.0711962 0.295512 0)
(0.0194105 0.401553 0)
(0.0950985 0.279053 0)
(0.148187 0.257925 0)
(0.218237 0.101307 0)
(0.205008 0.0746608 0)
(0.191639 -0.0585693 0)
(0.194127 -0.0420089 0)
(0.1416 0.0196528 0)
(0.191184 0.104676 0)
(0.176348 0.137856 0)
(-0.0194893 0.135634 0)
(-0.0247474 0.116162 0)
(-0.033663 0.137227 0)
(0.00525671 0.178544 0)
(-0.0236958 0.157313 0)
(-0.0234641 0.152031 0)
(-0.0689795 0.21463 0)
(-0.049698 0.173655 0)
(-0.0598929 0.30731 0)
(-0.061604 0.24355 0)
(-0.0195724 0.249577 0)
(0.00511486 0.294886 0)
(0.0796497 0.211047 0)
(0.0221501 0.267861 0)
(0.0258704 0.167599 0)
(0.10085 0.185848 0)
(0.149205 0.120532 0)
(0.152302 0.0202702 0)
(0.198807 -0.0176076 0)
(0.246917 -0.0510479 0)
(0.237412 0.00386853 0)
(0.243631 0.0791201 0)
(0.190103 0.109069 0)
(-0.0319114 0.197926 0)
(-0.00318727 0.0954616 0)
(-0.0146578 0.145427 0)
(-0.0195458 0.148276 0)
(-0.046222 0.163999 0)
(-0.0214768 0.165633 0)
(-0.0776733 0.242529 0)
(0.00107285 0.306431 0)
(0.0203727 0.20739 0)
(-0.0927341 0.246402 0)
(0.0201986 0.322622 0)
(0.0130831 0.269378 0)
(0.018527 0.258489 0)
(0.0930676 0.188713 0)
(0.0969488 0.181515 0)
(0.155964 0.154603 0)
(0.147508 0.119211 0)
(0.134788 0.0424072 0)
(0.174423 0.0167948 0)
(0.207103 -0.0434767 0)
(0.18715 0.00467356 0)
(0.222966 0.00281805 0)
(0.20403 0.175034 0)
(-0.0336216 0.159885 0)
(-0.0124251 0.0848365 0)
(-0.0361518 0.146762 0)
(-0.00350739 0.106924 0)
(-0.0469642 0.15461 0)
(-0.00111786 0.20595 0)
(0.0656153 0.224728 0)
(0.0346773 0.275489 0)
(-0.0127286 0.185189 0)
(0.0735662 0.208146 0)
(-0.0569476 0.355355 0)
(-0.0060815 0.353299 0)
(0.12245 0.355366 0)
(0.0922643 0.239909 0)
(0.102022 0.168339 0)
(0.104001 0.131496 0)
(0.138489 0.0469758 0)
(0.150396 0.0168503 0)
(0.168621 -0.069907 0)
(0.199886 -0.0261289 0)
(0.157877 -0.0141276 0)
(0.248628 0.0389281 0)
(0.274114 0.143742 0)
(0.0192618 0.260767 0)
(0.0809913 0.110872 0)
(-0.0524033 0.156774 0)
(-0.00789753 0.144403 0)
(0.00677099 0.156941 0)
(0.0217248 0.236147 0)
(-0.0136905 0.186836 0)
(0.058019 0.208498 0)
(0.08947 0.150847 0)
(0.0650602 0.109849 0)
(0.121965 0.189465 0)
(0.0814952 0.32414 0)
(0.0212189 0.319358 0)
(0.085769 0.199133 0)
(0.0993341 0.101679 0)
(0.121574 0.0997548 0)
(0.152081 0.0544312 0)
(0.124743 -0.00461551 0)
(0.193035 -0.0398607 0)
(0.199057 -0.0517532 0)
(0.113686 -0.0240914 0)
(0.169633 0.101476 0)
(0.265719 0.0692567 0)
(-0.0779728 0.282304 0)
(-0.0541066 0.111058 0)
(-0.0317991 0.131194 0)
(0.000485879 0.185206 0)
(-0.0185646 0.15743 0)
(-0.00762529 0.238094 0)
(0.0114049 0.229055 0)
(0.11105 0.342379 0)
(0.103425 0.272151 0)
(0.10611 0.162767 0)
(0.0790647 0.198837 0)
(0.173418 0.277539 0)
(0.159554 0.252773 0)
(0.111919 0.159755 0)
(0.139404 0.0792929 0)
(0.141255 0.063678 0)
(0.152803 0.0471368 0)
(0.160953 -0.00740416 0)
(0.166415 0.00610333 0)
(0.16394 -0.0752905 0)
(0.156211 -0.0180194 0)
(0.173832 0.0879483 0)
(0.213542 0.0643544 0)
(-0.00999472 0.180103 0)
(0.0533633 0.110069 0)
(0.0246603 0.0905931 0)
(0.0189404 0.121001 0)
(-0.0121608 0.124312 0)
(0.0209807 0.208801 0)
(0.0462655 0.23817 0)
(0.129149 0.278581 0)
(0.0800643 0.275721 0)
(0.0467308 0.162392 0)
(0.158509 0.22613 0)
(0.141021 0.330495 0)
(0.078937 0.15815 0)
(0.126959 0.195304 0)
(0.146868 0.0965953 0)
(0.210837 0.0113731 0)
(0.200001 0.070752 0)
(0.190675 -0.0145948 0)
(0.154398 -0.0524793 0)
(0.12496 -0.0451253 0)
(0.144754 -0.0256888 0)
(0.130135 0.061093 0)
(0.257891 0.0321921 0)
(0.0420222 0.231476 0)
(0.0650109 0.165069 0)
(0.0462884 0.150473 0)
(0.0326603 0.106149 0)
(0.0209624 0.175851 0)
(0.0467319 0.164734 0)
(0.0470571 0.192732 0)
(0.116463 0.156833 0)
(0.117935 0.185779 0)
(0.12256 0.120419 0)
(0.132313 0.195488 0)
(0.0910963 0.215647 0)
(0.169364 0.147922 0)
(0.208455 0.201695 0)
(0.114059 0.124094 0)
(0.226786 0.0336899 0)
(0.237745 0.0109404 0)
(0.154572 0.0174798 0)
(0.171632 -0.0655337 0)
(0.150129 -0.087725 0)
(0.129612 -0.0294735 0)
(0.133633 0.0121974 0)
(0.190488 0.12941 0)
(0.00932033 0.288711 0)
(0.011247 0.20382 0)
(0.00525939 0.190285 0)
(0.0475099 0.16025 0)
(0.0608143 0.171658 0)
(0.0297413 0.1746 0)
(0.0274933 0.193259 0)
(0.0636047 0.192336 0)
(0.0601356 0.136994 0)
(0.0715535 0.157766 0)
(0.0890763 0.16923 0)
(0.0887915 0.209952 0)
(0.23778 0.189474 0)
(0.234669 0.122257 0)
(0.0983697 0.0731421 0)
(0.191788 0.0879741 0)
(0.304498 -0.026984 0)
(0.216361 0.00747538 0)
(0.0931932 -0.0449531 0)
(0.172298 -0.0492022 0)
(0.242918 -0.0306417 0)
(0.224593 -0.0118621 0)
(0.284018 0.060478 0)
(0.00791055 0.231775 0)
(0.0146489 0.179628 0)
(0.0200371 0.170092 0)
(0.0092884 0.183796 0)
(0.0469086 0.156679 0)
(0.0678143 0.158607 0)
(0.0598689 0.169276 0)
(0.0494755 0.187873 0)
(0.0882939 0.16549 0)
(0.120702 0.208781 0)
(0.115172 0.192535 0)
(0.119716 0.236572 0)
(0.171381 0.209413 0)
(0.174394 0.138299 0)
(0.163582 0.0723655 0)
(0.220356 0.127714 0)
(0.240502 0.00384699 0)
(0.212366 0.00556757 0)
(0.164817 -0.0383733 0)
(0.187783 -0.0370427 0)
(0.20982 -0.0486284 0)
(0.250898 -0.0391846 0)
(0.281134 0.0241921 0)
(0.00479362 0.228406 0)
(0.0144953 0.173448 0)
(0.0214419 0.175034 0)
(0.0302223 0.172348 0)
(0.0430994 0.211204 0)
(0.0478482 0.167746 0)
(0.0560122 0.183096 0)
(0.0641702 0.170934 0)
(0.0782282 0.19384 0)
(0.0820902 0.165589 0)
(0.106494 0.16419 0)
(0.109289 0.156411 0)
(0.156722 0.130466 0)
(0.152531 0.1334 0)
(0.191532 0.0756697 0)
(0.219227 0.142161 0)
(0.253653 -0.0222849 0)
(0.220685 0.0361646 0)
(0.108156 -0.0290432 0)
(0.198441 -0.0109664 0)
(0.291367 -0.112141 0)
(0.312117 -0.073954 0)
(0.334896 -0.0186284 0)
(-0.00154014 0.202908 0)
(0.0183838 0.155031 0)
(0.0261209 0.150939 0)
(0.0499742 0.145431 0)
(0.0490813 0.153274 0)
(0.0459517 0.142796 0)
(0.0628972 0.151249 0)
(0.0665855 0.146996 0)
(0.083817 0.15566 0)
(0.0857329 0.152855 0)
(0.108819 0.159245 0)
(0.0888856 0.151228 0)
(0.148109 0.158738 0)
(0.153803 0.128813 0)
(0.216661 0.124879 0)
(0.219813 0.106099 0)
(0.248136 -0.00673785 0)
(0.272295 -0.033197 0)
(0.170744 -0.0423334 0)
(0.18065 -0.0212553 0)
(0.236936 -0.125384 0)
(0.374997 -0.0989468 0)
(0.335948 -0.0424316 0)
(0.0034446 0.19285 0)
(0.0174928 0.1534 0)
(0.0222904 0.140885 0)
(0.0360837 0.140393 0)
(0.0417899 0.126885 0)
(0.0524915 0.132482 0)
(0.0599547 0.137337 0)
(0.0678681 0.131679 0)
(0.0798755 0.139471 0)
(0.0856252 0.129795 0)
(0.105168 0.146385 0)
(0.120059 0.126524 0)
(0.13511 0.173244 0)
(0.14559 0.108248 0)
(0.193411 0.151357 0)
(0.164137 0.0173453 0)
(0.255644 0.103439 0)
(0.250961 -0.0717419 0)
(0.135438 0.0108695 0)
(0.177253 -0.06115 0)
(0.243717 0.00660243 0)
(0.387402 -0.127468 0)
(0.368562 -0.0305593 0)
(0.00322897 0.164128 0)
(0.0197329 0.123267 0)
(0.0253192 0.115944 0)
(0.0396497 0.114317 0)
(0.0453593 0.117778 0)
(0.0550698 0.113843 0)
(0.0644851 0.120949 0)
(0.0737349 0.114802 0)
(0.0845205 0.121317 0)
(0.0915861 0.113725 0)
(0.10506 0.124926 0)
(0.127021 0.10394 0)
(0.128075 0.123147 0)
(0.162655 0.075237 0)
(0.165208 0.108365 0)
(0.246952 0.0494786 0)
(0.261472 0.0840998 0)
(0.199681 -0.0645271 0)
(0.183814 -0.0644413 0)
(0.26101 -0.0549924 0)
(0.235889 -0.00617722 0)
(0.290754 -0.0382441 0)
(0.448814 -0.0294024 0)
(0.00409142 0.146146 0)
(0.0179314 0.107872 0)
(0.0227846 0.100229 0)
(0.0347174 0.099377 0)
(0.0402084 0.0965954 0)
(0.0519048 0.0939019 0)
(0.0577641 0.0978267 0)
(0.068671 0.0937335 0)
(0.0751275 0.0995096 0)
(0.0855413 0.0957453 0)
(0.0910662 0.104089 0)
(0.117065 0.0891238 0)
(0.0948079 0.100037 0)
(0.140185 0.0708469 0)
(0.207431 0.072197 0)
(0.233152 0.108464 0)
(0.211728 -0.0378204 0)
(0.149114 -0.115169 0)
(0.192257 -0.0741865 0)
(0.306576 -0.0161439 0)
(0.291838 -0.081756 0)
(0.353309 -0.101562 0)
(0.39589 -0.0770827 0)
(0.0036092 0.121486 0)
(0.0190614 0.0875151 0)
(0.0222686 0.083546 0)
(0.0353123 0.0816173 0)
(0.0394653 0.0834103 0)
(0.0515449 0.0815143 0)
(0.056362 0.0868964 0)
(0.0675208 0.083878 0)
(0.0726973 0.0865263 0)
(0.0837825 0.088685 0)
(0.0888754 0.0931397 0)
(0.117579 0.0960066 0)
(0.0984287 0.0962105 0)
(0.142212 0.116565 0)
(0.264876 0.0678199 0)
(0.248444 0.0444454 0)
(0.161067 -0.0631375 0)
(0.213173 -0.00142286 0)
(0.35088 0.0235356 0)
(0.280824 -0.110296 0)
(0.204088 -0.0286153 0)
(0.278973 -0.107151 0)
(0.465557 -0.128889 0)
(0.00328466 0.100281 0)
(0.015875 0.0700735 0)
(0.0190234 0.0669582 0)
(0.030662 0.0647033 0)
(0.0343152 0.0631559 0)
(0.0461186 0.0603186 0)
(0.0511057 0.0642532 0)
(0.0631036 0.0618718 0)
(0.0687601 0.0639014 0)
(0.0783539 0.0670898 0)
(0.0905246 0.0681171 0)
(0.117941 0.0751177 0)
(0.120362 0.0579342 0)
(0.151421 0.099515 0)
(0.174474 0.0834901 0)
(0.145178 -0.0120145 0)
(0.231197 0.0150219 0)
(0.286337 -0.0284558 0)
(0.179555 -0.0546923 0)
(0.295164 -0.157482 0)
(0.316722 -0.0857133 0)
(0.234962 -0.0160036 0)
(0.30497 -0.10593 0)
(0.0027141 0.0844162 0)
(0.0156877 0.0576 0)
(0.0170094 0.055321 0)
(0.0295766 0.0528099 0)
(0.0315471 0.0533657 0)
(0.0431104 0.0501282 0)
(0.0463439 0.0532008 0)
(0.0576663 0.051319 0)
(0.0633948 0.0542111 0)
(0.0690856 0.0503981 0)
(0.0869219 0.0509315 0)
(0.089669 0.0451026 0)
(0.116476 0.0290611 0)
(0.193273 0.0603306 0)
(0.183058 0.0675453 0)
(0.233633 -0.0132668 0)
(0.191648 -0.00652881 0)
(0.203666 -0.124172 0)
(0.170218 -0.0757628 0)
(0.288005 -0.124159 0)
(0.352503 -0.197629 0)
(0.209081 -0.0986767 0)
(0.284317 -0.123317 0)
(0.00213911 0.062429 0)
(0.0136003 0.0401369 0)
(0.0138857 0.0378333 0)
(0.0251767 0.0347151 0)
(0.0256449 0.0346267 0)
(0.0371169 0.0297486 0)
(0.0390473 0.0334697 0)
(0.0515268 0.0273479 0)
(0.056622 0.038942 0)
(0.0649399 0.0236142 0)
(0.0752523 0.0438558 0)
(0.0887532 0.00519744 0)
(0.115666 0.0635664 0)
(0.215242 0.0686144 0)
(0.140943 0.00263896 0)
(0.15262 -0.01908 0)
(0.159201 -0.117503 0)
(0.228524 -0.0543174 0)
(0.21502 -0.113745 0)
(0.23007 0.0228354 0)
(0.309847 -0.196216 0)
(0.258107 -0.0853336 0)
(0.341702 -0.158333 0)
(0.000321731 0.0552227 0)
(0.013677 0.0363461 0)
(0.012327 0.0333953 0)
(0.0256427 0.0307416 0)
(0.0234568 0.0305228 0)
(0.0375633 0.0249029 0)
(0.0339431 0.024841 0)
(0.0512499 0.0188778 0)
(0.0448932 0.025654 0)
(0.0679748 0.0171403 0)
(0.0588812 0.0281656 0)
(0.0948478 -0.00416284 0)
(0.184609 0.0611026 0)
(0.16639 0.0373569 0)
(0.139767 -0.0269573 0)
(0.150298 -0.0670315 0)
(0.183829 -0.0529262 0)
(0.245858 -0.0310484 0)
(0.289664 -0.106302 0)
(0.217328 -0.0654726 0)
(0.231451 -0.199876 0)
(0.233832 -0.138048 0)
(0.303158 -0.24279 0)
(0.000400452 0.0293248 0)
(0.0124371 0.0131271 0)
(0.00990507 0.0110013 0)
(0.0218892 0.00934151 0)
(0.0185686 0.00833218 0)
(0.0326358 0.00513691 0)
(0.026756 0.00552816 0)
(0.0438608 0.000868596 0)
(0.0370629 0.00571651 0)
(0.0578241 -0.00883819 0)
(0.0435025 0.020585 0)
(0.0843823 0.0199857 0)
(0.148192 0.0999779 0)
(0.135144 -0.0480142 0)
(0.101323 0.00594006 0)
(0.144202 -0.0383053 0)
(0.18981 -0.0200505 0)
(0.207228 -0.0774859 0)
(0.195981 -0.129059 0)
(0.0803357 -0.252216 0)
(0.26667 -0.206752 0)
(0.221168 -0.234908 0)
(0.251439 -0.278311 0)
(-0.000232589 0.0343529 0)
(0.0108673 0.0197276 0)
(0.00842349 0.0168538 0)
(0.020945 0.0160299 0)
(0.016292 0.0130525 0)
(0.032561 0.0104075 0)
(0.0223371 0.00704847 0)
(0.0470102 -6.35124e-05 0)
(0.0230777 0.0021084 0)
(0.0686964 0.00674666 0)
(0.0822908 0.00437839 0)
(0.14505 0.0067962 0)
(0.111253 0.0192542 0)
(0.130744 -0.0545499 0)
(0.158008 -0.0256327 0)
(0.110057 -0.0231227 0)
(0.135213 -0.061544 0)
(0.141889 -0.0630233 0)
(0.137257 -0.143345 0)
(0.155553 -0.210278 0)
(0.313919 -0.138425 0)
(0.178267 -0.26109 0)
(0.228141 -0.200262 0)
(2.47013e-05 0.00361475 0)
(0.00919397 -0.00535986 0)
(0.00559982 -0.00830671 0)
(0.0158655 -0.00678778 0)
(0.00945808 -0.012574 0)
(0.0236789 -0.00836516 0)
(0.009555 -0.0192947 0)
(0.0344905 -0.00729868 0)
(0.035858 -0.0269944 0)
(0.0590755 0.0070719 0)
(0.045132 -0.0380705 0)
(0.106976 -0.0238696 0)
(0.0569242 -0.0722511 0)
(0.095369 -0.0411979 0)
(0.120325 -0.0808317 0)
(0.0790893 -0.026643 0)
(0.102635 -0.0432965 0)
(0.110125 -0.0784179 0)
(0.119636 -0.135659 0)
(0.123127 -0.152819 0)
(0.287028 -0.236154 0)
(0.191709 -0.30815 0)
(0.162966 -0.229911 0)
(0.000608583 0.0167812 0)
(0.00747039 0.00902428 0)
(0.0053746 0.00476561 0)
(0.0130997 0.00754155 0)