/*--------------------------------*- C++ -*----------------------------------*\
| =========                 |                                                 |
| \\      /  F ield         | foam-extend: Open Source CFD                    |
|  \\    /   O peration     | Version:     4.1                                |
|   \\  /    A nd           | Web:         http://www.foam-extend.org         |
|    \\/     M anipulation  |                                                 |
\*---------------------------------------------------------------------------*/
FoamFile
{
    version     2.0;
    format      ascii;
    class       volVectorField;
    location    "0.5";
    object      U_0;
}
// * * * * * * * * * * * * * * * * * * * * * * * * * * * * * * * * * * * * * //

dimensions      [0 1 -1 0 0 0 0];

internalField   nonuniform List<vector> 
2268
(
(0.0473247 -0.006365 0)
(0.0540413 -0.00434116 0)
(0.119469 -0.00535678 0)
(0.144331 -0.00578763 0)
(0.20439 -0.00209591 0)
(0.225694 -0.00515199 0)
(0.259469 -0.000861715 0)
(0.262071 0.00133797 0)
(0.270723 0.00759139 0)
(0.237414 0.0193303 0)
(0.173369 -0.0407309 0)
(0.174124 -0.0167217 0)
(0.189684 -0.0146549 0)
(0.186015 -0.0093356 0)
(0.185695 -0.00927329 0)
(0.16557 -0.00908117 0)
(0.169237 -0.0237915 0)
(0.166574 -0.012065 0)
(0.133643 -0.0197134 0)
(0.119503 0.0146164 0)
(0.0822577 0.0274023 0)
(0.0639969 0.0102868 0)
(0.0851242 -0.00235612 0)
(0.0452465 -0.0175698 0)
(0.0541964 -0.0127152 0)
(0.121038 -0.0161699 0)
(0.146481 -0.0138476 0)
(0.20122 -0.0176398 0)
(0.227178 -0.00709042 0)
(0.266633 -0.00847228 0)
(0.271462 -0.00389097 0)
(0.28643 -0.0016502 0)
(0.247967 0.00629371 0)
(0.192484 -0.0243601 0)
(0.203266 0.00103329 0)
(0.202817 0.00382913 0)
(0.196918 0.0120746 0)
(0.196683 0.0182934 0)
(0.169451 0.0296796 0)
(0.179923 0.0204184 0)
(0.20321 0.0308181 0)
(0.173615 0.0375166 0)
(0.134749 0.010654 0)
(0.0581893 0.0194449 0)
(0.0641795 0.0640518 0)
(0.105534 0.035436 0)
(0.0388651 -0.0298079 0)
(0.0518445 -0.0222114 0)
(0.122597 -0.0273151 0)
(0.151199 -0.0241885 0)
(0.193884 -0.0216235 0)
(0.239371 -0.0200298 0)
(0.267647 -0.0111847 0)
(0.275659 -0.00215759 0)
(0.298066 0.0190642 0)
(0.225439 -0.0610894 0)
(0.184094 -0.0278292 0)
(0.188701 -0.0103808 0)
(0.181787 -0.00868527 0)
(0.170007 0.000982929 0)
(0.171837 0.00296075 0)
(0.149889 0.0119729 0)
(0.161473 0.0452699 0)
(0.170752 0.0185344 0)
(0.157581 0.0271164 0)
(0.129637 0.0150196 0)
(0.102022 0.0297441 0)
(0.065003 0.0505722 0)
(0.0859779 0.0399361 0)
(0.0319921 -0.0389972 0)
(0.0506627 -0.032593 0)
(0.128568 -0.0398415 0)
(0.155181 -0.0304235 0)
(0.200636 -0.0389485 0)
(0.246763 -0.0237327 0)
(0.25956 -0.0187971 0)
(0.297242 -0.0130354 0)
(0.263172 0.00292434 0)
(0.193992 -0.0505166 0)
(0.186769 -0.0130268 0)
(0.150694 0.00387839 0)
(0.137831 0.014274 0)
(0.112714 0.0272018 0)
(0.117967 0.028011 0)
(0.107482 0.0176346 0)
(0.113447 0.0557987 0)
(0.114996 0.0124873 0)
(0.120155 0.0197724 0)
(0.107366 0.0246387 0)
(0.0818554 0.0506835 0)
(0.0613723 0.0569849 0)
(0.0937958 0.067744 0)
(0.0286021 -0.0491661 0)
(0.0520238 -0.0448914 0)
(0.131418 -0.0520402 0)
(0.157875 -0.0406297 0)
(0.210267 -0.0443768 0)
(0.23643 -0.0339157 0)
(0.253652 -0.0218782 0)
(0.300176 0.000202868 0)
(0.237142 -0.0654199 0)
(0.164319 -0.0319201 0)
(0.15485 -0.00749332 0)
(0.118788 0.0127114 0)
(0.107364 0.024779 0)
(0.0861329 0.0215214 0)
(0.0799999 0.0319875 0)
(0.0648539 0.0157069 0)
(0.0599143 0.0353194 0)
(0.0537586 0.0176866 0)
(0.051819 0.0259914 0)
(0.0597849 0.0401053 0)
(0.0615809 0.041389 0)
(0.0494977 0.0782357 0)
(0.0852592 0.0758714 0)
(0.0323409 -0.0581729 0)
(0.0596681 -0.0572265 0)
(0.136048 -0.0650128 0)
(0.161035 -0.0493566 0)
(0.20566 -0.0580664 0)
(0.232946 -0.0325059 0)
(0.277939 -0.0397305 0)
(0.239448 -0.011948 0)
(0.167605 -0.0495306 0)
(0.155469 -0.0156565 0)
(0.12755 0.00874054 0)
(0.0972454 0.0273394 0)
(0.088574 0.0443727 0)
(0.0661841 0.0575432 0)
(0.0622793 0.047626 0)
(0.0423392 0.028552 0)
(0.035414 0.0627232 0)
(0.0314158 0.016383 0)
(0.0352245 0.0586076 0)
(0.0095218 0.018873 0)
(0.0354395 0.0633562 0)
(0.0455863 0.0835156 0)
(0.0810857 0.0989931 0)
(0.0380018 -0.0705954 0)
(0.0654555 -0.0689416 0)
(0.13533 -0.0757571 0)
(0.157065 -0.0568388 0)
(0.20842 -0.0617093 0)
(0.23613 -0.0534482 0)
(0.242243 -0.016017 0)
(0.195777 -0.0651424 0)
(0.150176 -0.0353535 0)
(0.144353 -0.00994207 0)
(0.115581 0.0177818 0)
(0.0938938 0.0316786 0)
(0.0884678 0.050165 0)
(0.065406 0.0444812 0)
(0.0301107 0.0512632 0)
(0.0350525 0.0292933 0)
(0.0166739 0.0412938 0)
(0.0130626 0.0232373 0)
(0.0135894 0.0378758 0)
(0.00868179 0.0604142 0)
(0.0412732 0.0532029 0)
(0.0241034 0.0898654 0)
(0.0801031 0.103286 0)
(0.0407161 -0.0826737 0)
(0.0677195 -0.0808376 0)
(0.139091 -0.0866712 0)
(0.159381 -0.0685885 0)
(0.208436 -0.0801289 0)
(0.244804 -0.0352506 0)
(0.199746 -0.0443521 0)
(0.170374 -0.0623911 0)
(0.153529 -0.0283684 0)
(0.138447 0.000754698 0)
(0.110367 0.0330636 0)
(0.0887873 0.0417168 0)
(0.0669409 0.0734247 0)
(0.0532159 0.0407138 0)
(0.0356417 0.07342 0)
(0.0252127 0.0363063 0)
(0.0173833 0.0229795 0)
(0.0150824 0.0149001 0)
(0.0358912 0.0148099 0)
(-0.00511676 0.059365 0)
(0.0166156 0.0324912 0)
(0.0230042 0.0745884 0)
(0.064786 0.12814 0)
(-2.14765 0.440245 0)
(-2.51976 0.177943 0)
(-2.5331 -0.0782116 0)
(-2.30024 -0.140724 0)
(-2.17387 -0.0911962 0)
(-2.0305 -0.129954 0)
(-1.96578 -0.0976558 0)
(-1.91025 -0.148346 0)
(-1.87337 -0.143006 0)
(-1.80486 -0.101251 0)
(-1.80329 -0.0952571 0)
(-1.79763 -0.0972307 0)
(-1.80073 -0.042923 0)
(-1.72889 -0.15351 0)
(-1.77903 -0.205024 0)
(-1.8879 -0.106099 0)
(-1.43269 0.00974103 0)
(-1.14545 -0.358726 0)
(-0.414941 -0.155391 0)
(-1.86536 0.651641 0)
(-1.58112 0.635285 0)
(-0.775952 0.104293 0)
(-0.892027 -0.121408 0)
(-0.790419 -0.218376 0)
(-0.712712 0.0222708 0)
(-0.63181 0.056901 0)
(-0.650707 0.06329 0)
(-0.736605 -0.0136109 0)
(-0.879015 0.00827303 0)
(-1.10905 0.0942764 0)
(-1.35861 0.128472 0)
(-1.6767 0.0457062 0)
(-1.79286 -0.0200479 0)
(-1.75494 -0.278636 0)
(-1.91225 0.0133395 0)
(-1.64748 0.259142 0)
(-0.893903 -0.407464 0)
(-0.259618 -0.571072 0)
(-1.52199 1.09269 0)
(-0.659932 0.602662 0)
(-0.573445 -0.191499 0)
(-0.819669 -0.112125 0)
(-0.599467 -0.216731 0)
(-0.471813 0.0351965 0)
(-0.178001 -0.0492619 0)
(-0.372158 -0.0280414 0)
(-0.580185 -0.0176593 0)
(-0.861713 0.0338565 0)
(-1.11073 0.108538 0)
(-1.23561 -0.0224508 0)
(-1.14505 -0.35785 0)
(-1.31161 -0.216303 0)
(-1.56115 -0.419088 0)
(-1.67219 -0.11903 0)
(-1.60302 0.0315122 0)
(-0.777625 -0.31738 0)
(-0.00167489 -0.672805 0)
(-1.20315 1.13114 0)
(-0.169246 0.590986 0)
(-0.0944937 -0.242729 0)
(-0.30841 -0.549579 0)
(0.135122 -0.45909 0)
(0.194183 -0.114339 0)
(0.594582 -0.0746008 0)
(0.302353 0.343053 0)
(-0.140307 0.220839 0)
(-0.461035 0.242863 0)
(-0.615864 0.235397 0)
(-0.600061 0.15393 0)
(-0.305389 -0.212883 0)
(-0.308907 -0.28198 0)
(-0.625736 -0.175093 0)
(-0.952239 -0.0370928 0)
(-0.927586 -0.170831 0)
(-0.843968 -0.306572 0)
(0.117442 -0.959437 0)
(-0.925661 1.32655 0)
(0.889493 0.624482 0)
(0.83881 0.111969 0)
(0.341468 -0.264163 0)
(0.58928 -0.539971 0)
(0.695245 -0.414417 0)
(0.983635 0.0153448 0)
(0.638 0.557366 0)
(0.104158 0.354317 0)
(-0.0721941 0.181551 0)
(-0.159612 0.171672 0)
(-0.23776 -0.0427692 0)
(-0.317928 -0.268465 0)
(-0.214343 -0.26197 0)
(-0.215578 -0.103921 0)
(-0.816862 0.227211 0)
(-0.611666 -0.228023 0)
(-0.728516 -0.333887 0)
(0.21974 -1.16044 0)
(-0.838771 1.23181 0)
(1.30105 0.366823 0)
(0.880687 0.166 0)
(0.597067 -0.228578 0)
(0.698491 -0.575485 0)
(0.835281 -0.623618 0)
(1.17852 -0.345514 0)
(1.21387 0.42941 0)
(0.908175 0.485912 0)
(0.724087 0.357016 0)
(0.351076 0.284464 0)
(-0.0953913 0.0013381 0)
(-0.306047 -0.283288 0)
(-0.180033 -0.268761 0)
(-0.0542515 -0.0564345 0)
(-0.703678 0.153676 0)
(-0.408091 -0.218933 0)
(-0.709935 -0.398769 0)
(0.225145 -1.23835 0)
(-0.651552 1.19601 0)
(1.31984 0.312178 0)
(0.65664 0.116084 0)
(0.736179 -0.363105 0)
(0.551403 -0.519278 0)
(0.594491 -0.631602 0)
(0.995923 -0.272046 0)
(1.26787 0.547856 0)
(1.18028 0.584487 0)
(1.11158 0.437368 0)
(0.839274 0.543126 0)
(0.0826892 0.303179 0)
(-0.1412 -0.262039 0)
(-0.125991 -0.354519 0)
(0.194179 -0.0271895 0)
(-0.505701 0.201617 0)
(0.0557352 -0.219328 0)
(-0.636707 -0.409198 0)
(0.275778 -1.25574 0)
(-0.039683 0.90436 0)
(1.09149 0.269942 0)
(0.637261 0.0439221 0)
(0.734673 -0.480587 0)
(0.520702 -0.400116 0)
(0.489456 -0.364722 0)
(0.623321 -0.288364 0)
(1.15792 0.242476 0)
(1.21249 0.51389 0)
(1.33409 0.544026 0)
(1.03602 0.687108 0)
(0.128479 0.341616 0)
(-0.0226686 -0.219029 0)
(0.00655566 -0.379271 0)
(0.133013 0.0223052 0)
(-0.0173354 0.225637 0)
(0.329189 -0.179431 0)
(-0.407882 -0.447248 0)
(0.301499 -1.27054 0)
(0.0398153 -0.102203 0)
(0.0626599 -0.0963203 0)
(0.134736 -0.102575 0)
(0.140338 -0.0726766 0)
(0.223938 -0.0808432 0)
(0.185926 -0.071559 0)
(0.160648 -0.0821911 0)
(0.179265 -0.0486396 0)
(0.151465 -0.0157052 0)
(0.145952 0.015581 0)
(0.114978 0.0443148 0)
(0.11416 0.0590185 0)
(0.0796153 0.0800829 0)
(0.0622589 0.0631822 0)
(0.0382848 0.0721526 0)
(0.0168502 0.041294 0)
(0.00931663 0.04875 0)
(-0.00856669 0.0241281 0)
(0.00223056 0.0520299 0)
(0.00838211 0.00357042 0)
(0.0537729 0.05562 0)
(0.0896779 0.0710888 0)
(0.0641956 0.141991 0)
(0.037612 -0.130066 0)
(0.0402892 -0.127482 0)
(0.129802 -0.122478 0)
(0.103211 -0.118961 0)
(0.0895228 -0.108042 0)
(0.109996 -0.144193 0)
(0.118378 -0.0499177 0)
(0.127458 -0.0475816 0)
(0.130215 -0.0102137 0)
(0.121979 0.0314918 0)
(0.110699 0.0598475 0)
(0.0983343 0.0706799 0)
(0.0795241 0.0575183 0)
(0.0691681 0.0704493 0)
(0.0566199 0.0570685 0)
(0.0472855 0.0599165 0)
(0.0336523 0.0459763 0)
(0.0370159 0.0562436 0)
(0.0268089 0.0337377 0)
(0.0248296 0.0376194 0)
(0.0431784 -0.00153585 0)
(0.155133 0.0389135 0)
(0.0991537 0.0815965 0)
(0.00458444 -0.138956 0)
(0.00711437 -0.140056 0)
(0.0217133 -0.13306 0)
(0.0181598 -0.138161 0)
(0.0201994 -0.0919063 0)
(0.0113282 -0.0974544 0)
(-0.023463 -0.0878854 0)
(-0.0525984 -0.0546077 0)
(-0.062903 -0.00340355 0)
(-0.0673271 0.0405123 0)
(-0.00660668 0.0710298 0)
(0.00554503 0.0974336 0)
(0.018962 0.10237 0)
(0.0449827 0.0896229 0)
(0.0349499 0.0850023 0)
(0.0219173 0.0678428 0)
(0.0267183 0.0539502 0)
(0.0147081 0.0483086 0)
(0.0158235 0.0138508 0)
(0.0252932 0.00739565 0)
(0.0626182 -0.0190492 0)
(0.157032 0.0128158 0)
(0.169141 0.0366166 0)
(0.00332894 -0.145815 0)
(0.00483106 -0.148025 0)
(0.0109647 -0.137773 0)
(0.00711868 -0.119033 0)
(0.00169707 -0.105116 0)
(-0.00379852 -0.101714 0)
(-0.0708695 -0.0206064 0)
(-0.113265 0.0111909 0)
(-0.142168 0.000828256 0)
(-0.188577 -0.00662911 0)
(-0.161801 0.0231404 0)
(-0.180687 0.0411507 0)
(-0.152281 0.125589 0)
(-0.0686282 0.0511784 0)
(-0.0321687 0.0897681 0)
(-0.044437 0.0643324 0)
(-0.0265674 0.0558673 0)
(-0.0320719 0.0107439 0)
(-0.0155488 0.0256491 0)
(0.0132202 -0.0131231 0)
(0.0452623 -0.0109671 0)
(0.123055 -0.0445367 0)
(0.132368 0.00417122 0)
(0.000406402 -0.147492 0)
(0.0013572 -0.146876 0)
(-0.00164238 -0.135519 0)
(-0.00581209 -0.120754 0)
(-0.0280601 -0.086706 0)
(-0.0635661 -0.0474624 0)
(-0.0907465 -0.0191352 0)
(-0.126259 0.089726 0)
(-0.160407 0.0777945 0)
(-0.228765 0.0660369 0)
(-0.268137 0.00591245 0)
(-0.242963 -0.044018 0)
(-0.356556 0.0347161 0)
(-0.24556 -0.00201663 0)
(-0.229718 0.0531869 0)
(-0.293681 0.0614692 0)
(-0.225243 0.0428178 0)
(-0.169881 0.0349195 0)
(-0.0641175 -0.020526 0)
(-0.0643556 -0.0571443 0)
(0.0436389 -0.126535 0)
(0.234992 -0.0751429 0)
(0.179499 -0.0723206 0)
(0.000179348 -0.147933 0)
(-0.0182119 -0.141976 0)
(-0.0342305 -0.1347 0)
(-0.0509961 -0.105408 0)
(-0.0968344 -0.0733381 0)
(-0.15177 -0.0189406 0)
(-0.142905 0.0489067 0)
(-0.158857 0.0898553 0)
(-0.140813 0.0978168 0)
(-0.207775 0.0826394 0)
(-0.222699 0.0833618 0)
(-0.190699 0.0572851 0)
(-0.420741 -0.0500258 0)
(-0.403209 0.0735079 0)
(-0.308783 -0.0520878 0)
(-0.331188 0.0434755 0)
(-0.21188 0.0012216 0)
(-0.170724 0.0284837 0)
(-0.0594783 -0.0891811 0)
(-0.0823582 -0.129568 0)
(0.191339 -0.163314 0)
(0.193005 -0.124345 0)
(0.170227 -0.115165 0)
(-0.0106566 -0.128062 0)
(-0.0855433 -0.114175 0)
(-0.125525 -0.100002 0)
(-0.0875411 -0.122034 0)
(-0.154536 -0.0398652 0)
(-0.155761 0.00121391 0)
(-0.178875 0.108783 0)
(-0.196991 0.0985931 0)
(-0.202673 0.0961746 0)
(-0.233684 0.0538226 0)
(-0.239228 0.146781 0)
(-0.193071 0.0856958 0)
(-0.21349 -0.000890859 0)
(-0.355786 0.184872 0)
(-0.216721 -0.012577 0)
(-0.139701 -0.0125 0)
(-0.0572985 -0.112185 0)
(-0.072457 -0.109356 0)
(0.00448203 -0.15877 0)
(0.0250724 -0.17968 0)
(-0.00707382 -0.274853 0)
(-0.0734836 -0.250295 0)
(-0.0554218 -0.227043 0)
(-0.0155508 -0.0956138 0)
(-0.0834091 -0.0802756 0)
(-0.173032 -0.051849 0)
(-0.11776 -0.0681821 0)
(-0.160549 -0.00377987 0)
(-0.15246 -0.00279571 0)
(-0.149872 0.105869 0)
(-0.235556 0.109634 0)
(-0.219349 0.144506 0)
(-0.115754 0.155557 0)
(-0.175592 0.205008 0)
(-0.155464 0.15723 0)
(-0.241605 0.0310405 0)
(-0.236618 -0.0544768 0)
(-0.127328 0.0136511 0)
(-0.139608 -0.138598 0)
(-0.0697327 -0.191442 0)
(-0.0110184 -0.0870557 0)
(0.027258 -0.139963 0)
(-0.0261768 -0.17358 0)
(-0.0535861 -0.34348 0)
(-0.0839754 -0.329018 0)
(-0.159899 -0.105336 0)
(-0.0167005 -0.0286734 0)
(-0.0893445 -0.0833658 0)
(-0.174605 -0.0627328 0)
(-0.0988665 -0.0102675 0)
(-0.162901 -0.0496658 0)
(-0.163117 0.0374601 0)
(-0.133424 0.0673214 0)
(-0.185886 0.138139 0)
(-0.16759 0.163351 0)
(-0.195551 0.1756 0)
(-0.263047 0.0887053 0)
(-0.228659 0.0902964 0)
(-0.161432 -0.0370697 0)
(-0.205482 0.120453 0)
(-0.0886393 -0.0570632 0)
(-0.122584 -0.0965341 0)
(-0.102718 -0.138891 0)
(0.0157571 -0.160507 0)
(-0.0616688 -0.164733 0)
(-0.00490369 -0.292227 0)
(-0.197234 0.0144105 0)
(-0.337211 -0.0849587 0)
(-0.352992 -0.24184 0)
(-0.0745403 0.00636863 0)
(-0.0663954 -0.0463515 0)
(-0.0961443 -0.0360331 0)
(-0.0971711 0.0183227 0)
(-0.140995 -0.0363505 0)
(-0.139922 0.083693 0)
(-0.152408 0.105071 0)
(-0.17342 0.110913 0)
(-0.157394 0.0655715 0)
(-0.213519 0.113367 0)
(-0.296381 0.0361428 0)
(-0.255144 0.154205 0)
(-0.162618 -0.0303052 0)
(-0.265172 -0.0162864 0)
(-0.258285 -0.207015 0)
(-0.124221 -0.231802 0)
(-0.156017 -0.19959 0)
(-0.182809 -0.152475 0)
(-0.334285 -0.105705 0)
(-0.421296 0.0287174 0)
(-0.502541 0.0522643 0)
(-0.511264 -0.0281113 0)
(-0.626832 -0.152446 0)
(-0.0660224 0.0475673 0)
(-0.0532724 -8.25297e-05 0)
(-0.0749856 -0.0248871 0)
(-0.0619812 0.0262092 0)
(-0.113839 0.00071275 0)
(-0.108121 0.0803524 0)
(-0.170683 0.101036 0)
(-0.189622 0.129494 0)
(-0.111547 0.192 0)
(-0.198824 0.171864 0)
(-0.270044 0.107803 0)
(-0.365176 0.170783 0)
(-0.3478 -0.0376636 0)
(-0.262596 -0.156749 0)
(-0.359515 -0.284384 0)
(-0.384351 -0.216337 0)
(-0.575218 -0.0233473 0)
(-0.648921 0.0102856 0)
(-0.781686 0.0532925 0)
(-0.73849 0.196116 0)
(-0.723177 0.165232 0)
(-0.620541 0.0868489 0)
(-0.630348 0.00676909 0)
(-0.0753685 0.0687023 0)
(-0.0159631 0.0225738 0)
(-0.0606353 -0.0188296 0)
(-0.0857626 0.0476537 0)
(-0.0770064 0.0357107 0)
(-0.119523 0.0861178 0)
(-0.255538 0.130924 0)
(-0.141327 0.251656 0)
(-0.124815 0.224316 0)
(-0.29764 0.195209 0)
(-0.299786 0.169133 0)
(-0.363752 0.239946 0)
(-0.486279 0.222872 0)
(-0.746765 0.197131 0)
(-1.38601 0.171562 0)
(-2.22372 0.123349 0)
(-2.46671 0.0212193 0)
(-2.54416 -0.00718329 0)
(-2.43923 -0.0650376 0)
(-2.13889 -0.151113 0)
(-1.97272 -0.162648 0)
(-1.86637 -0.177326 0)
(-1.77925 -0.178138 0)
(-0.0719641 0.0894264 0)
(0.00358311 0.0210321 0)
(-0.0550581 -0.0245387 0)
(-0.0343251 0.106385 0)
(-0.0980947 0.0263455 0)
(-0.108738 0.11778 0)
(-0.104978 0.184637 0)
(-0.175563 0.301258 0)
(-0.186119 0.245335 0)
(-0.253698 0.264531 0)
(-0.203253 0.389264 0)
(-0.26512 0.406129 0)
(-0.370559 0.536258 0)
(-0.416046 0.549231 0)
(-0.397183 0.782151 0)
(-0.675817 0.643049 0)
(-0.779436 0.390359 0)
(-0.750887 0.22511 0)
(-0.765133 0.0794771 0)
(-0.506826 -0.12512 0)
(-0.311954 -0.175828 0)
(-0.273156 -0.169161 0)
(-0.231999 -0.208367 0)
(-0.0294717 0.147435 0)
(0.00244779 0.0112591 0)
(-0.0373046 0.0264074 0)
(-0.0942704 0.0840939 0)
(-0.0884665 0.0365303 0)
(-0.124692 0.149165 0)
(-0.151158 0.172664 0)
(-0.130052 0.189961 0)
(-0.191948 0.243756 0)
(-0.124169 0.281409 0)
(-0.118506 0.391956 0)
(-0.147154 0.338975 0)
(-0.247775 0.446074 0)
(-0.215623 0.439112 0)
(-0.0252796 0.65902 0)
(0.0503647 0.559683 0)
(0.263373 0.519396 0)
(0.193824 0.143995 0)
(0.192299 -0.54294 0)
(0.00712305 -0.456089 0)
(-0.0545356 -0.294188 0)
(-0.217914 0.0154618 0)
(-0.20481 -0.214801 0)
(-0.0255536 0.107714 0)
(-0.00298951 0.0225911 0)
(-0.0711972 0.0786399 0)
(-0.0659379 0.0678301 0)
(-0.0556684 0.139819 0)
(-0.0942046 0.124724 0)
(-0.170265 0.203057 0)
(-0.140531 0.171162 0)
(-0.127517 0.226396 0)
(-0.120519 0.276347 0)
(-0.109712 0.292943 0)
(-0.106333 0.270558 0)
(-0.102366 0.325138 0)
(-0.00785516 0.334168 0)
(0.0872258 0.383789 0)
(0.222436 0.318265 0)
(0.276722 0.232927 0)
(0.279761 0.0893134 0)
(0.25108 -0.105411 0)
(0.086121 -0.131263 0)
(0.0509736 -0.14046 0)
(-0.0165224 0.0173233 0)
(-0.0696621 -0.00722887 0)
(0.0211655 0.200142 0)
(0.0351056 0.0553828 0)
(-0.051017 0.129179 0)
(-0.0422196 0.163019 0)
(-0.0759801 0.169686 0)
(-0.0907495 0.197784 0)
(-0.143287 0.227887 0)
(-0.129946 0.279468 0)
(-0.0799707 0.196944 0)
(-0.0949278 0.284012 0)
(-0.113184 0.309761 0)
(-0.0342504 0.384306 0)
(-0.0493114 0.344764 0)
(-0.0370011 0.33263 0)
(0.129142 0.313068 0)
(0.15601 0.241332 0)
(0.20449 0.100144 0)
(0.215886 0.0862435 0)
(0.214291 -0.070081 0)
(0.142691 -0.0842822 0)
(0.158623 -0.0158175 0)
(0.133673 0.0505118 0)
(0.0496935 0.111441 0)
(-0.0342947 0.196413 0)
(-0.0326173 0.0697215 0)
(-0.0305522 0.0907102 0)
(-0.0226522 0.1386 0)
(-0.0116207 0.135435 0)
(-0.0501645 0.196516 0)
(-0.0788227 0.215989 0)
(-0.153906 0.284481 0)
(-0.141599 0.253838 0)
(-0.0216869 0.272724 0)
(-6.40134e-06 0.291982 0)
(-0.0316811 0.367133 0)
(-0.0811117 0.28305 0)
(0.00145056 0.387673 0)
(0.0769621 0.270534 0)
(0.133092 0.258307 0)
(0.205608 0.106574 0)
(0.196801 0.0837905 0)
(0.188863 -0.0490508 0)
(0.191758 -0.0343509 0)
(0.142753 0.0241253 0)
(0.193718 0.105591 0)
(0.176516 0.135585 0)
(-0.019516 0.130647 0)
(-0.0232223 0.109153 0)
(-0.0341283 0.13172 0)
(0.0037102 0.171902 0)
(-0.0237003 0.151364 0)
(-0.0250047 0.14592 0)
(-0.0710985 0.208818 0)
(-0.050762 0.16696 0)
(-0.0631622 0.298491 0)
(-0.0649403 0.236899 0)
(-0.0236021 0.240678 0)
(0.000381863 0.288914 0)
(0.0715017 0.201778 0)
(0.00900316 0.262458 0)
(0.0135586 0.165306 0)
(0.0895822 0.18549 0)
(0.139269 0.122481 0)
(0.146438 0.0255964 0)
(0.19423 -0.0135806 0)
(0.242129 -0.046696 0)
(0.234253 0.00822863 0)
(0.242679 0.0789399 0)
(0.189555 0.110402 0)
(-0.0330663 0.193806 0)
(-0.003214 0.0904916 0)
(-0.0157353 0.138371 0)
(-0.0200484 0.142654 0)
(-0.0459629 0.158241 0)
(-0.0231884 0.16003 0)
(-0.0783162 0.236875 0)
(-0.0013405 0.299852 0)
(0.0169811 0.199566 0)
(-0.0931325 0.237829 0)
(0.016947 0.314143 0)
(0.00730046 0.263243 0)
(0.00942874 0.251692 0)
(0.0814192 0.184 0)
(0.0861337 0.177451 0)
(0.146657 0.153584 0)
(0.139152 0.119205 0)
(0.128755 0.0442336 0)
(0.170345 0.0173897 0)
(0.203834 -0.04138 0)
(0.182969 0.00735407 0)
(0.222859 0.0062498 0)
(0.203565 0.177124 0)
(-0.033303 0.155721 0)
(-0.0126423 0.0798355 0)
(-0.0372654 0.140276 0)
(-0.00383133 0.103773 0)
(-0.0473364 0.148499 0)
(-0.00280384 0.200773 0)
(0.0629131 0.219396 0)
(0.0316532 0.268588 0)
(-0.0163737 0.180474 0)
(0.0692308 0.201319 0)
(-0.0595602 0.347311 0)
(-0.00955706 0.346031 0)
(0.11475 0.346641 0)
(0.0820765 0.233969 0)
(0.0941025 0.165104 0)
(0.0977809 0.129588 0)
(0.131867 0.0467303 0)
(0.144797 0.017234 0)
(0.163677 -0.067572 0)
(0.195737 -0.0251768 0)
(0.154643 -0.0120264 0)
(0.24516 0.04336 0)
(0.270714 0.143672 0)
(0.0184288 0.255887 0)
(0.0787985 0.105407 0)
(-0.051915 0.151618 0)
(-0.00760613 0.139331 0)
(0.00504671 0.15181 0)
(0.0206751 0.229416 0)
(-0.0154492 0.182593 0)
(0.0554017 0.204812 0)
(0.086295 0.14613 0)
(0.0605582 0.105232 0)
(0.118583 0.185267 0)
(0.0769282 0.318085 0)
(0.0153371 0.313007 0)
(0.0813634 0.194299 0)
(0.0927795 0.100427 0)
(0.115 0.0981155 0)
(0.146326 0.0537679 0)
(0.12045 -0.00453419 0)
(0.188127 -0.0397909 0)
(0.193986 -0.0504564 0)
(0.110786 -0.0221373 0)
(0.166327 0.103693 0)
(0.262738 0.0713985 0)
(-0.0768958 0.277994 0)
(-0.053905 0.105885 0)
(-0.0331316 0.126351 0)
(0.000142221 0.177881 0)
(-0.0204873 0.15185 0)
(-0.00835081 0.232157 0)
(0.00993252 0.223877 0)
(0.10871 0.336303 0)
(0.100306 0.266785 0)
(0.102847 0.157225 0)
(0.0748706 0.194844 0)
(0.167428 0.274685 0)
(0.154603 0.249384 0)
(0.107324 0.156658 0)
(0.133214 0.0772941 0)
(0.136411 0.0628706 0)
(0.147631 0.0451521 0)
(0.155861 -0.00809363 0)
(0.162053 0.00453523 0)
(0.160062 -0.0744134 0)
(0.152287 -0.0156677 0)
(0.169825 0.0890296 0)
(0.210195 0.0658013 0)
(-0.00924874 0.17661 0)
(0.0532443 0.104736 0)
(0.0234969 0.086772 0)
(0.0180616 0.116158 0)
(-0.0131326 0.11908 0)
(0.0196361 0.203513 0)
(0.0435689 0.232199 0)
(0.125786 0.272472 0)
(0.0774138 0.269809 0)
(0.0437581 0.157542 0)
(0.155381 0.222055 0)
(0.135778 0.3272 0)
(0.0744559 0.154838 0)
(0.123567 0.191766 0)
(0.141338 0.0939433 0)
(0.20401 0.011194 0)
(0.194369 0.0682447 0)
(0.185831 -0.0153425 0)
(0.150463 -0.0527185 0)
(0.121526 -0.044464 0)
(0.141345 -0.024583 0)
(0.127449 0.0625245 0)
(0.254803 0.0344362 0)
(0.0416648 0.226743 0)
(0.0641981 0.160118 0)
(0.0455004 0.146196 0)
(0.0310646 0.102789 0)
(0.0197274 0.17151 0)
(0.0451787 0.159817 0)
(0.0452091 0.187491 0)
(0.113012 0.153393 0)
(0.114929 0.180606 0)
(0.119947 0.116772 0)
(0.127572 0.192674 0)
(0.0870609 0.2128 0)
(0.166521 0.145558 0)
(0.204426 0.197534 0)
(0.110715 0.121 0)
(0.222114 0.0329413 0)
(0.232617 0.00994175 0)
(0.150816 0.016193 0)
(0.16766 -0.0655963 0)
(0.146431 -0.0868351 0)
(0.125457 -0.0283209 0)
(0.131396 0.0132161 0)
(0.186526 0.130006 0)
(0.00925017 0.282394 0)
(0.0108449 0.198219 0)
(0.00529483 0.184085 0)
(0.0464628 0.155519 0)
(0.0585576 0.167266 0)
(0.0279769 0.169931 0)
(0.0262481 0.188181 0)
(0.0612554 0.187834 0)
(0.0581549 0.133396 0)
(0.0686507 0.154327 0)
(0.0858802 0.166114 0)
(0.0859994 0.206709 0)
(0.233653 0.185654 0)
(0.229597 0.120083 0)
(0.0958236 0.0720413 0)
(0.187706 0.0858913 0)
(0.297601 -0.0273167 0)
(0.211987 0.00592357 0)
(0.0910393 -0.0453088 0)
(0.168914 -0.0492525 0)
(0.238661 -0.0304687 0)
(0.221023 -0.0110952 0)
(0.280426 0.0609507 0)
(0.00774205 0.226394 0)
(0.014541 0.174297 0)
(0.0195458 0.164992 0)
(0.0093976 0.17814 0)
(0.0456466 0.151723 0)
(0.0657276 0.153988 0)
(0.05821 0.164826 0)
(0.0479714 0.18298 0)
(0.0861419 0.161674 0)
(0.117551 0.20427 0)
(0.112403 0.188978 0)
(0.11723 0.232391 0)
(0.167925 0.205551 0)
(0.170796 0.136067 0)
(0.160538 0.070286 0)
(0.215814 0.124651 0)
(0.235997 0.00226607 0)
(0.209052 0.00398074 0)
(0.161676 -0.0389146 0)
(0.184541 -0.0371556 0)
(0.206618 -0.0481419 0)
(0.248043 -0.0385972 0)
(0.27804 0.0251954 0)
(0.00466814 0.223246 0)
(0.014171 0.168293 0)
(0.0208607 0.169816 0)
(0.0295134 0.167185 0)
(0.0419297 0.205374 0)
(0.0465058 0.162827 0)
(0.0545511 0.178281 0)
(0.0625058 0.166255 0)
(0.076334 0.18912 0)
(0.07997 0.161527 0)
(0.104162 0.160774 0)
(0.106959 0.153106 0)
(0.153718 0.127743 0)
(0.149181 0.130926 0)
(0.188391 0.0735144 0)
(0.215084 0.140041 0)
(0.249099 -0.0231401 0)
(0.21788 0.0344539 0)
(0.10666 -0.0295117 0)
(0.195919 -0.0112895 0)
(0.287913 -0.111444 0)
(0.308979 -0.0738313 0)
(0.331396 -0.0179491 0)
(-0.00157077 0.198061 0)
(0.0181386 0.150257 0)
(0.0256104 0.146174 0)
(0.0491334 0.140864 0)
(0.0480866 0.148566 0)
(0.0449928 0.138401 0)
(0.0616469 0.147008 0)
(0.065225 0.142977 0)
(0.0821717 0.151891 0)
(0.0840344 0.149234 0)
(0.106831 0.156023 0)
(0.0874338 0.148096 0)
(0.145642 0.156063 0)
(0.151225 0.126276 0)
(0.213652 0.122805 0)
(0.216677 0.103678 0)
(0.244593 -0.00881349 0)
(0.26899 -0.03449 0)
(0.168015 -0.0426386 0)
(0.178295 -0.0229018 0)
(0.234551 -0.125393 0)
(0.371481 -0.0981218 0)
(0.332977 -0.041328 0)
(0.00333935 0.188286 0)
(0.0172357 0.148784 0)
(0.0218442 0.136353 0)
(0.0354547 0.135913 0)
(0.040972 0.122679 0)
(0.0515425 0.128299 0)
(0.058772 0.133286 0)
(0.066616 0.127783 0)
(0.0783802 0.135714 0)
(0.0840945 0.126273 0)
(0.103366 0.142956 0)
(0.118262 0.123299 0)
(0.133006 0.169954 0)
(0.143414 0.1054 0)
(0.190826 0.148535 0)
(0.161814 0.014594 0)
(0.252761 0.101164 0)
(0.248413 -0.0726921 0)
(0.132835 0.0108142 0)
(0.17588 -0.0647091 0)
(0.242907 0.00830096 0)
(0.384487 -0.126546 0)
(0.364832 -0.0283822 0)
(0.00315015 0.159869 0)
(0.0195223 0.118962 0)
(0.0249373 0.111803 0)
(0.0391133 0.110228 0)
(0.0446429 0.113791 0)
(0.0542792 0.109997 0)
(0.0634814 0.117215 0)
(0.072693 0.111245 0)
(0.083245 0.117916 0)
(0.0902959 0.110548 0)
(0.103494 0.121864 0)
(0.125412 0.101204 0)
(0.126148 0.120653 0)
(0.160706 0.0731293 0)
(0.162489 0.105932 0)
(0.244854 0.0468829 0)
(0.259083 0.080555 0)
(0.197776 -0.0662395 0)
(0.179022 -0.0662792 0)
(0.261892 -0.0560422 0)
(0.237333 -0.00646353 0)
(0.287062 -0.0389647 0)
(0.444756 -0.0295877 0)
(0.00402043 0.142166 0)
(0.0177274 0.103882 0)
(0.0224166 0.0963493 0)
(0.0342381 0.0955492 0)
(0.0395629 0.0928403 0)
(0.0511776 0.0902695 0)
(0.056862 0.0942917 0)
(0.0677201 0.090364 0)
(0.0739939 0.096238 0)
(0.084402 0.0927127 0)
(0.0897057 0.101085 0)
(0.11568 0.0863598 0)
(0.0934108 0.097664 0)
(0.138495 0.0685691 0)
(0.204959 0.0703228 0)
(0.230192 0.106107 0)
(0.209354 -0.0405181 0)
(0.147461 -0.11673 0)
(0.190358 -0.076329 0)
(0.305812 -0.0154461 0)
(0.290986 -0.0852255 0)
(0.349703 -0.102408 0)
(0.393231 -0.0771095 0)
(0.00353934 0.117718 0)
(0.018889 0.0837491 0)
(0.0219488 0.0798871 0)
(0.0349092 0.0780228 0)
(0.0389117 0.0798951 0)
(0.0509277 0.0781176 0)
(0.0555856 0.0835869 0)
(0.0667147 0.0807067 0)
(0.0717357 0.0834743 0)
(0.0828044 0.0858343 0)
(0.0877362 0.0903328 0)
(0.116422 0.0933867 0)
(0.0971297 0.093881 0)
(0.141251 0.114146 0)
(0.26265 0.0655459 0)
(0.245586 0.041586 0)
(0.159245 -0.06442 0)
(0.211355 -0.00379457 0)
(0.348195 0.0226333 0)
(0.28003 -0.110729 0)
(0.203338 -0.0300654 0)
(0.27847 -0.108211 0)
(0.463 -0.127971 0)
(0.00322211 0.0967734 0)
(0.0157171 0.0665833 0)
(0.0187491 0.0635485 0)
(0.0303139 0.0613451 0)
(0.0338385 0.0598604 0)
(0.0455814 0.0571243 0)
(0.0504351 0.0611261 0)
(0.0624075 0.0588577 0)
(0.0679147 0.0609948 0)
(0.0775398 0.064283 0)
(0.0895689 0.0653483 0)
(0.116828 0.0722326 0)
(0.11912 0.0552054 0)
(0.150167 0.0967275 0)
(0.17249 0.0800225 0)
(0.144266 -0.0144503 0)
(0.229305 0.012488 0)
(0.284515 -0.0297503 0)
(0.178522 -0.0553051 0)
(0.293866 -0.1578 0)
(0.314747 -0.0871482 0)
(0.233279 -0.0163027 0)
(0.30343 -0.107085 0)
(0.00267441 0.081067 0)
(0.0155767 0.0542506 0)
(0.0167732 0.0520474 0)
(0.0292868 0.0495838 0)
(0.0311359 0.0501979 0)
(0.0426541 0.047044 0)
(0.0457475 0.0501923 0)
(0.0570502 0.0484315 0)
(0.0626108 0.0514383 0)
(0.0683359 0.0477313 0)
(0.0857217 0.0483827 0)
(0.0885473 0.0431156 0)
(0.115475 0.0270554 0)
(0.191424 0.0582191 0)
(0.181737 0.0651177 0)
(0.232485 -0.0147558 0)
(0.190278 -0.00870245 0)
(0.202619 -0.124682 0)
(0.169402 -0.0778967 0)
(0.287233 -0.126502 0)
(0.350537 -0.198073 0)
(0.207308 -0.0987797 0)
(0.283014 -0.122928 0)
(0.00208434 0.0593166 0)
(0.0134922 0.0369287 0)
(0.0136953 0.034647 0)
(0.0249293 0.0315676 0)
(0.0252897 0.0315183 0)
(0.0367355 0.0267265 0)
(0.0385446 0.0305245 0)
(0.0510718 0.0245549 0)
(0.0559969 0.0363321 0)
(0.0644015 0.0211232 0)
(0.0749061 0.0417226 0)
(0.0881858 0.00333548 0)
(0.114587 0.0625527 0)
(0.213504 0.0667366 0)
(0.139753 0.00131305 0)
(0.151826 -0.0207885 0)
(0.158066 -0.118618 0)
(0.226482 -0.0554688 0)
(0.213562 -0.114922 0)
(0.229773 0.0212447 0)
(0.309024 -0.196364 0)
(0.257418 -0.0862661 0)
(0.340933 -0.158652 0)
(0.000192535 0.0519879 0)
(0.0134742 0.0331865 0)
(0.0121307 0.0302862 0)
(0.0254323 0.0277053 0)
(0.023173 0.0275784 0)
(0.0372699 0.0220788 0)
(0.033572 0.0220982 0)
(0.0509382 0.0163726 0)
(0.0444143 0.0231658 0)
(0.0677249 0.0149559 0)
(0.0583903 0.0261409 0)
(0.0944703 -0.00633406 0)
(0.183859 0.0589775 0)
(0.164636 0.0349258 0)
(0.139033 -0.0287693 0)
(0.149395 -0.0686521 0)
(0.182893 -0.0544292 0)
(0.244392 -0.0325548 0)
(0.288267 -0.107256 0)
(0.216786 -0.0663123 0)
(0.2302 -0.200569 0)
(0.232659 -0.138232 0)
(0.30249 -0.243093 0)
(0.000435654 0.0261053 0)
(0.0124491 0.00999575 0)
(0.00982187 0.00794922 0)
(0.0218036 0.00639727 0)
(0.0184354 0.00555003 0)
(0.0324684 0.00249169 0)
(0.0265669 0.00292691 0)
(0.0436393 -0.00161177 0)
(0.03673 0.00326255 0)
(0.0577803 -0.0109799 0)
(0.0432241 0.0185825 0)
(0.0835432 0.0181466 0)
(0.147036 0.0978678 0)
(0.134378 -0.0491148 0)
(0.100853 0.00393933 0)
(0.14346 -0.0399129 0)
(0.188708 -0.0217559 0)
(0.205868 -0.078847 0)
(0.194856 -0.130683 0)
(0.0800064 -0.253211 0)
(0.265791 -0.207864 0)
(0.220371 -0.235344 0)
(0.250945 -0.278842 0)
(-0.000268699 0.0315902 0)
(0.0108121 0.0170068 0)
(0.00839717 0.0141668 0)
(0.0209956 0.0133807 0)
(0.0163063 0.0102412 0)
(0.0324316 0.00767482 0)
(0.0221272 0.00431155 0)
(0.0468456 -0.00265466 0)
(0.0229394 -0.000425842 0)
(0.0688598 0.00458159 0)
(0.0821868 0.00177928 0)
(0.144101 0.00443008 0)
(0.111129 0.0168271 0)
(0.129951 -0.0565928 0)
(0.156818 -0.0275706 0)
(0.109326 -0.0248549 0)
(0.134457 -0.0629326 0)
(0.141163 -0.064435 0)
(0.13672 -0.144725 0)
(0.154914 -0.211252 0)
(0.31287 -0.139407 0)
(0.177648 -0.261702 0)
(0.227594 -0.200741 0)
(0.000125492 0.000885711 0)
(0.00929392 -0.00809922 0)
(0.00558142 -0.0110757 0)
(0.0156524 -0.00960998 0)
(0.00925071 -0.0154968 0)
(0.0235722 -0.0112864 0)
(0.00951757 -0.0221559 0)
(0.0344355 -0.0100492 0)
(0.0359577 -0.0297258 0)
(0.0589211 0.00436688 0)
(0.0447064 -0.0410135 0)
(0.106288 -0.0264732 0)
(0.0566579 -0.0744409 0)
(0.0948496 -0.043807 0)
(0.119821 -0.0825214 0)
(0.0787537 -0.0283485 0)
(0.102167 -0.0449845 0)
(0.109686 -0.0799193 0)
(0.119271 -0.137248 0)
(0.122592 -0.154223 0)
(0.286284 -0.237087 0)
(0.19137 -0.308826 0)
(0.162932 -0.23069 0)
(0.000544476 0.0143686 0)
(0.00734887 0.00643986 0)
(0.00525664 0.00211657 0)
(0.0129906 0.0048737 0)