/*--------------------------------*- C++ -*----------------------------------*\
| =========                 |                                                 |
| \\      /  F ield         | foam-extend: Open Source CFD                    |
|  \\    /   O peration     | Version:     4.1                                |
|   \\  /    A nd           | Web:         http://www.foam-extend.org         |
|    \\/     M anipulation  |                                                 |
\*---------------------------------------------------------------------------*/
FoamFile
{
    version     2.0;
    format      ascii;
    class       volScalarField;
    location    "0.5";
    object      p;
}
// * * * * * * * * * * * * * * * * * * * * * * * * * * * * * * * * * * * * * //

dimensions      [1 -1 -2 0 0 0 0];

internalField   nonuniform List<scalar> 
2268
(
566.843
566.527
567.149
562.551
566.798
563.002
573.137
582.378
597.376
633.506
649.221
708.403
705.621
738.808
756.43
780.405
810.362
836.608
861.795
887.829
916.026
940.271
956.558
507.779
507.481
507.913
503.341
507.407
503.65
513.242
522.479
537.93
576.623
580.657
647.421
646.372
679.27
699.3
723.168
751.056
779.017
802.816
827.611
858.149
881.444
900.058
448.445
448.213
448.378
444.061
447.754
443.489
453.548
462.401
476.459
508.403
538.77
572.024
586.657
616.65
640.098
664.652
692.757
718.403
744.344
769.514
797.049
822.702
840.975
389.064
388.824
388.382
384.312
387.305
383.359
390.969
398.852
415.844
466.451
466.398
509.791
527.449
556.111
582.819
606.647
635.197
658.826
684.989
710.92
738.908
764.804
784.222
329.36
329.169
328.079
324.761
326.251
321.174
331.714
339.579
352.738
393.18
411.13
444.821
466.981
496.169
523.83
548.917
576.859
600.899
627.789
652.489
679.413
706.482
727.276
269.793
269.497
267.213
264.511
265.304
261.556
263.674
273.758
302.763
325.311
345.7
379.998
405.788
435.673
465.241
489.023
518.47
542.564
571.145
596.192
623.985
652.785
674.96
209.653
209.392
206.055
204.431
204.112
195.786
209.61
205.636
236.232
258.124
280.228
317.1
343.413
376.819
405.641
432.725
461.072
485.242
513.981
538.384
568.401
597.136
618.889
149.873
149.536
145.165
143.469
141.642
139.953
134.357
152.2
164.557
186.213
214.066
251.901
282.283
316.879
348.558
372.137
402.451
426.776
457.191
481.647
513.547
542.472
581.232
1857.69
1915.06
1934.62
1990.8
1917.61
874.627
222.808
231.516
177.463
166.268
173.975
208.503
310.869
557.866
335.676
644.178
1202
1401.19
1409.75
1861.82
1899.14
1925.1
1925.4
1703.83
702.023
136.963
80.1232
83.5482
90.4187
85.8508
120.542
259.546
107.08
352.89
600.865
1047.49
1379.88
1356.2
1845.43
1891.3
1922.77
1880.68
1610.09
391.511
75.3396
67.7606
71.7971
71.7886
70.3001
84.2314
98.0886
-32.6917
233.48
437.072
1047.87
1236.67
1271.83
1817.29
1828.78
1899.79
1847.31
1440.21
269.336
66.5523
69.1858
69.3311
70.0421
72.8676
78.2147
80.4064
48.5388
181.852
520.439
957.724
1126.33
1175.96
1803.41
1712.78
1782.85
1778.03
1179.64
112.849
71.3289
67.6612
68.2471
70.1493
73.2976
78.4448
79.2867
73.6082
135.822
418.288
794.855
1022.47
1049.77
1796.47
1682.52
1494.88
1618.7
831.548
122.351
70.1036
65.4721
66.6278
69.7278
73.0324
79.5307
79.4998
74.418
100.402
202.778
627.936
850.874
950.015
1654.78
1483.28
1235.89
1426.95
691.609
165.157
70.803
61.6248
65.059
68.3961
73.5636
80.3818
79.4664
76.9897
85.8834
137.408
459.095
713.606
841.965
1265.77
1266.48
960.129
1238.96
512.048
175.761
72.6586
65.1148
64.8321
67.9604
74.4581
79.9492
78.8635
78.2959
84.5915
107.634
315.852
599.991
739.033
69.0066
68.7756
64.0881
64.2605
63.9141
49.133
63.6073
57.295
70.1418
88.5934
114.791
152.44
181.94
226.239
252.934
286.1
312.411
335.725
367.671
391.069
425.69
459.254
510.724
10.1333
10.1343
9.02417
7.86084
8.64426
5.99271
6.79883
6.77637
8.5562
14.0948
25.2748
46.8888
78.3295
109.232
141.991
166.862
191.229
209.023
239.377
257.264
307.189
341.665
432.084
1.07723
1.09506
1.08741
1.00071
1.06537
1.03458
1.11335
1.13655
1.31697
1.60576
2.91102
7.34391
16.8789
31.962
50.6001
67.1548
78.6248
97.0115
118.16
142.112
175.771
213.381
260.168
0.771289
0.783631
0.766333
0.811777
0.824656
0.849133
0.874255
0.882589
0.913591
0.929215
1.22709
1.48914
3.64762
5.51321
8.79839
11.8594
14.2844
18.7704
29.1627
39.0522
55.5719
66.2774
91.5214
0.635764
0.640584
0.650496
0.662156
0.68547
0.696703
0.727863
0.734228
0.787569
0.715207
0.762163
0.727968
0.690139
0.963539
0.973438
1.26693
1.57113
2.12362
2.95074
4.57296
5.43929
8.33163
12.511
0.490543
0.49138
0.498337
0.521303
0.530299
0.558669
0.582304
0.599935
0.63872
0.674885
0.632578
0.641432
0.667802
0.653817
0.754773
0.755676
0.859036
0.950251
0.829285
1.02599
1.55665
1.66206
2.30353
0.341635
0.34814
0.355802
0.371829
0.383184
0.404697
0.426117
0.456437
0.48372
0.454197
0.545119
0.46854
0.490833
0.527419
0.549567
0.621186
0.712454
0.738788
0.81294
0.904977
1.01659
1.15211
1.27194
0.193962
0.199546
0.208624
0.220862
0.235361
0.24652
0.272698
0.289443
0.33954
0.342109
0.311055
0.357869
0.367215
0.404999
0.44983
0.482706
0.534201
0.589099
0.651813
0.707733
0.810968
0.90655
0.966757
0.038863
0.0447528
0.0541086
0.064181
0.078071
0.0927486
0.113741
0.126469
0.154609
0.172624
0.206547
0.197771
0.231171
0.264682
0.288921
0.346263
0.394177
0.433904
0.531079
0.575125
0.687976
0.774047
0.864658
-0.115475
-0.110409
-0.102861
-0.0956094
-0.0842356
-0.0708256
-0.0504678
-0.0279898
-0.0194936
0.0287067
0.0197478
0.0705835
0.0800265
0.121154
0.151861
0.196291
0.241204
0.306664
0.357555
0.445548
0.538037
0.584981
0.647178
-0.275164
-0.271655
-0.26437
-0.259032
-0.250363
-0.235766
-0.210459
-0.188587
-0.164843
-0.163233
-0.111274
-0.12169
-0.0793271
-0.0454458
-0.0209773
0.0334393
0.0944082
0.144298
0.199994
0.299506
0.409602
0.438641
0.473542
-0.433317
-0.431172
-0.428469
-0.422778
-0.411346
-0.395916
-0.378762
-0.356586
-0.340902
-0.307422
-0.318895
-0.247639
-0.24146
-0.21509
-0.175151
-0.135161
-0.071757
-0.00881101
0.0574343
0.0973159
0.186047
0.269717
0.346498
-0.597838
-0.592583
-0.593916
-0.585834
-0.57343
-0.559055
-0.537213
-0.517007
-0.486622
-0.467793
-0.446714
-0.432332
-0.410153
-0.376032
-0.321427
-0.295382
-0.232193
-0.139101
-0.1384
0.00770985
0.0273499
0.110493
0.211655
-0.752541
-0.75078
-0.749989
-0.751388
-0.740746
-0.733676
-0.714486
-0.695042
-0.669991
-0.665188
-0.635041
-0.612819
-0.579847
-0.523837
-0.55233
-0.449709
-0.434178
-0.367276
-0.305679
-0.225297
-0.119453
-0.0248774
0.0444721
-0.925811
-0.917655
-0.918042
-0.909037
-0.886274
-0.896339
-0.892141
-0.877309
-0.888819
-0.835828
-0.810959
-0.733401
-0.749281
-0.751069
-0.682089
-0.639144
-0.597986
-0.536453
-0.406921
-0.400062
-0.243781
-0.154109
-0.125738
-1.08233
-1.07673
-1.08602
-1.08684
-1.10065
-1.07225
-1.05679
-1.0596
-1.02823
-1.04707
-0.973818
-0.969193
-0.926398
-0.908408
-0.849859
-0.837817
-0.797373
-0.684434
-0.627121
-0.538467
-0.472935
-0.392655
-0.283367
-1.26344
-1.26262
-1.26139
-1.24964
-1.22828
-1.24445
-1.23037
-1.23123
-1.22187
-1.19052
-1.17307
-1.14962
-1.11659
-1.08152
-1.0457
-1.0173
-0.930115
-0.966722
-0.844344
-0.816465
-0.629555
-0.506049
-0.404544
-1.44401
-1.42294
-1.43058
-1.42253
-1.42344
-1.41267
-1.40762
-1.40862
-1.40331
-1.39368
-1.3487
-1.34951
-1.32155
-1.28895
-1.27659
-1.19545
-1.20045
-1.08196
-1.08762
-0.934391
-0.900259
-0.754723
-0.513717
-1.60668
-1.6111
-1.5658
-1.57521
-1.57853
-1.58621
-1.56483
-1.58861
-1.57623
-1.579
-1.55584
-1.52633
-1.51551
-1.47215
-1.47928
-1.40376
-1.38758
-1.32803
-1.22844
-1.22745
-1.00447
-0.832022
-0.861959
-1.79752
-1.8235
-1.82712
-1.81763
-1.8082
-1.82151
-1.79302
-1.78622
-1.7879
-1.7591
-1.77227
-1.72391
-1.78731
-1.67791
-1.67063
-1.62419
-1.6122
-1.54611
-1.52989
-1.4048
-1.36659
-1.12303
-0.926915
-2.00773
-2.01726
-2.00769
-2.01869
-2.01106
-2.01087
-2.00946
-2.00916
-1.99796
-1.98222
-1.95154
-1.94532
-1.88016
-1.88228
-1.83947
-1.82101
-1.83295
-1.75199
-1.70626
-1.53757
-1.52535
-1.31477
-1.36763
-2.23495
-2.24455
-2.24615
-2.23925
-2.25193
-2.24991
-2.23902
-2.24789
-2.19252
-2.17201
-2.18723
-2.15423
-2.1888
-2.1306
-2.11257
-2.11441
-2.04617
-2.10684
-1.89453
-1.8968
-1.71275
-1.70335
-1.41329
-2.43078
-2.4524
-2.427
-2.49123
-2.46077
-2.4764
-2.46128
-2.42667
-2.453
-2.39708
-2.44729
-2.38708
-2.3912
-2.42379
-2.3224
-2.35008
-2.31375
-2.3444
-2.11928
-2.20657
-2.15605
-2.09764
-1.90997
-2.70316
-2.70584
-2.68974
-2.65635
-2.62947
-2.66056
-2.61106
-2.6354
-2.59572
-2.60213
-2.64891
-2.61223
-2.69698
-2.60311
-2.73481
-2.57653
-2.65181
-2.49865
-2.42925
-2.53989
-2.35871
-2.31504
-2.17199
-2.78403
-2.81368
-2.80633
-2.85931
-2.85167
-2.84263
-2.83707
-2.84184
-2.82971
-2.86857
-2.8593
-2.90646
-2.90383
-2.86388
-3.02409
-2.87779
-2.8424
-2.91419
-2.75931
-2.98304
-2.7289
-2.8368
-2.333
-3.07963
-3.07787
-3.04593
-3.01167
-2.97177
-3.00341
-3.01318
-3.06441
-3.07761
-3.07156
-3.07564
-3.13332
-3.09466
-3.23667
-3.11517
-3.29037
-3.03118
-3.25131
-3.024
-3.41493
-3.10818
-3.10069
-2.81668
-3.16414
-3.17137
-3.14916
-3.22043
-3.24451
-3.25006
-3.27591
-3.29204
-3.31462
-3.31952
-3.33539
-3.39168
-3.3449
-3.4721
-3.47523
-3.61003
-3.36509
-3.63954
-3.36696
-3.40612
-3.58292
-3.68766
-3.25391
-3.46332
-3.46987
-3.47644
-3.43909
-3.468
-3.46344
-3.47667
-3.50946
-3.48941
-3.58533
-3.56787
-3.58658
-3.64744
-3.70283
-3.69396
-3.86801
-3.81534
-3.99999
-3.67708
-3.98453
-4.1244
-3.6815
-3.83413
-3.60518
-3.60678
-3.64553
-3.65352
-3.67481
-3.67936
-3.71124
-3.73178
-3.75718
-3.78934
-3.8127
-3.78687
-3.96925
-3.9333
-4.12342
-4.01664
-4.32288
-4.26658
-4.50316
-4.32164
-4.51537
-4.1006
-4.96941
-3.85439
-3.85586
-3.86387
-3.85573
-3.8857
-3.91469
-3.92058
-3.93954
-3.9809
-3.9585
-4.10909
-4.08684
-4.05203
-4.24733
-4.2505
-4.38208
-4.57047
-4.47475
-4.95912
-4.775
-4.5918
-4.69557
-5.51933
-4.0435
-4.04953
-4.06542
-4.07357
-4.08761
-4.1135
-4.14091
-4.16752
-4.21107
-4.23158
-4.33488
-4.2754
-4.55089
-4.4753
-4.67292
-4.74718
-4.7987
-5.17896
-5.14623
-5.5361
-5.22312
-5.7506
-5.31555
-4.24207
-4.24728
-4.24858
-4.26732
-4.30707
-4.31174
-4.34268
-4.36944
-4.40387
-4.4449
-4.47272
-4.58163
-4.75147
-4.71728
-4.87936
-4.92218
-5.21336
-5.54791
-5.66702
-5.96002
-5.96701
-6.90241
-6.54721
-4.43395
-4.43884
-4.44738
-4.4639
-4.48884
-4.50959
-4.54232
-4.57593
-4.62364
-4.66851
-4.73718
-4.80072
-4.92833
-4.9962
-5.14026
-5.1978
-5.63541
-5.68299
-5.84242
-6.36
-6.67559
-7.23637
-7.7627
-4.61756
-4.62263
-4.63202
-4.6473
-4.67051
-4.69376
-4.72558
-4.76228
-4.80784
-4.86202
-4.93055
-5.00576
-5.12151
-5.21925
-5.34189
-5.37384
-5.77223
-6.06914
-6.58373
-6.99394
-7.6163
-7.87647
-8.63434
-4.79154
-4.7965
-4.80628
-4.82108
-4.84219
-4.86677
-4.89961
-4.93685
-4.98477
-5.03895
-5.10728
-5.18064
-5.30705
-5.38374
-5.58625
-5.72136
-6.08283
-6.41172
-6.80492
-7.20409
-7.75191
-8.55006
-9.27739
-4.95666
-4.96147
-4.97068
-4.98466
-5.00414
-5.0282
-5.05872
-5.09525
-5.1416
-5.19495
-5.26349
-5.34183
-5.43753
-5.54866
-5.66386
-5.86113
-6.05824
-6.611
-7.11587
-7.99673
-8.47828
-8.77989
-9.55914
-5.11491
-5.11937
-5.12754
-5.14035
-5.15782
-5.17944
-5.20685
-5.23886
-5.27974
-5.32702
-5.38919
-5.44075
-5.52933
-5.58755
-5.76602
-6.00033
-6.32753
-6.88587
-7.40554
-8.16304
-8.58526
-9.04281
-9.67156
-5.25688
-5.26027
-5.26782
-5.27872
-5.29406
-5.31308
-5.33707
-5.36571
-5.40387
-5.4418
-5.48977
-5.52593
-5.63799
-5.69191
-5.84337
-6.05181
-6.36978
-6.89247
-7.54906
-8.33325
-9.1523
-9.1625
-9.858
-5.41349
-5.41631
-5.42247
-5.43128
-5.44364
-5.45909
-5.47399
-5.49613
-5.5236
-5.5499
-5.57968
-5.63912
-5.71618
-5.7867
-5.91544
-6.05534
-6.44407
-6.86604
-7.71943
-8.9859
-9.69164
-9.26623
-10.5074
-5.51048
-5.51291
-5.51792
-5.52487
-5.53648
-5.54844
-5.55815
-5.57621
-5.59812
-5.61901
-5.63549
-5.68441
-5.73709
-5.79362
-5.86837
-5.951
-6.04221
-6.36296
-7.03174
-7.81939
-9.07299
-9.58058
-10.6665
-5.73997
-5.74213
-5.74562
-5.75049
-5.75746
-5.76546
-5.7734
-5.78358
-5.791
-5.81139
-5.82638
-5.85026
-5.87
-5.87622
-5.80976
-5.82893
-5.83439
-5.84587
-5.97833
-6.82612
-8.60245
-9.54131
-9.50587
-5.63156
-5.63195
-5.63263
-5.63354
-5.63478
-5.63648
-5.63783
-5.64222
-5.64595
-5.65218
-5.66194
-5.6798
-5.7151
-5.7824
-5.91906
-5.9154
-5.83249
-5.92354
-5.97184
-7.00773
-9.65429
-10.2629
-8.8786
568.306
516.252
666.791
839.391
457.585
496.142
559.376
608.457
297.471
313.609
337.812
357.252
108.697
126.408
149.516
180.635
16.6542
19.5072
26.0776
37.7993
2.99277
3.15191
3.43175
4.59489
1.2402
1.34778
1.33086
1.23866
1.04299
1.0387
1.02263
1.011
0.824273
0.847934
0.854737
0.829364
0.723306
0.76112
0.758329
0.725719
0.540114
0.542504
0.533741
0.530531
0.400503
0.414705
0.434498
0.505466
0.163037
0.246932
0.264113
0.30328
0.09299
0.118287
0.143727
0.16683
-0.00182028
0.0205376
0.0483797
0.084258
-0.168225
-0.144614
-0.0960435
-0.0609827
-0.336662
-0.293976
-0.241376
-0.195825
-0.573516
-0.502016
-0.449146
-0.409211
-0.668772
-0.643814
-0.592968
-0.553813
-0.953938
-0.875606
-0.829398
-0.803892
-0.996726
-1.08473
-0.983512
-0.905426
-1.44101
-1.35774
-1.38048
-1.28826
-1.60179
-1.59558
-1.5863
-1.5472
-2.22534
-2.22305
-2.15979
-2.03762
-2.57542
-2.76744
-2.42349
-2.48233
-2.91886
-2.73101
-3.12621
-3.11594
-3.32452
-3.3175
-3.26535
-3.74539
-3.90529
-4.01106
-4.03043
-3.95406
-4.72334
-4.89563
-5.26217
-5.79672
-5.39554
-5.38574
-5.49834
-5.50501
-6.27205
-6.19883
-6.22405
-6.28248
-7.06065
-6.84269
-7.38512
-7.21989
-7.75982
-7.84956
-8.214
-8.29169
-9.05538
-9.26689
-9.51648
-9.41633
-9.74379
-9.83682
-9.65516
-9.14465
-9.98259
-10.0198
-9.95283
-9.36794
-10.44
-11.0074
-10.8308
-10.2938
-9.87485
-10.2327
-10.2082
-10.1528
-10.598
-10.8089
-10.3115
-10.2437
-10.6588
-11.2924
-10.6271
-10.0531
-10.8017
-11.5268
-12.4061
-12.167
-9.37766
-10.4958
-12.418
-13.7622
916.684
968.137
926.989
951.348
510.19
147.912
79.3625
68.6748
66.8294
70.2934
75.6883
79.126
80.0368
79.0747
82.2331
89.2417
158.599
468.135
591.207
716.129
713.445
628.707
583.287
418.952
195.766
73.1449
66.3546
67.1192
68.5045
71.3832
75.173
77.0396
77.6377
79.7405
78.1317
95.097
380.035
481.21
458.618
398.066
451.833
451.205
418.97
97.0366
61.4336
68.7219
67.7848
68.525
70.3007
72.4063
73.6959
75.8385
75.675
75.396
85.4397
322.993
408.902
230.955
301.857
205.574
143.415
323.314
245.55
56.3262
70.9595
69.0363
69.6582
70.8108
72.7026
74.0501
75.1953
73.6662
69.1346
136.474
250.273
357.801
67.9165
59.1728
90.7934
57.7283
-12.2823
24.7874
86.3706
64.7574
69.9852
70.5615
71.6268
72.9163
73.4596
74.2694
76.4778
74.9666
106.276
250.749
288.5
7.92075
15.5075
8.71675
13.6135
30.3645
33.274
-12.1936
79.789
50.6528
70.1126
71.6097
72.2465
72.4229
72.3659
77.1662
77.8382
107.224
269.764
332.387
1.35842
0.867868
1.37588
1.90811
1.47774
1.00254
18.2756
36.0796
81.4887
33.5092
66.9364
70.0466
69.9898
69.1949
69.4164
72.6816
120.901
12.7288
260.778
1.11711
0.917963
0.58699
0.524842
0.75546
0.609744
0.625741
0.185759
6.02113
41.6645
63.5861
66.6998
67.0888
66.9776
68.693
61.2893
138.478
108.692
230.669
0.677921
0.729334
0.746011
0.574467
0.330689
0.0593915
0.000817166
-0.105167
0.85906
-3.9281
41.9977
52.5714
63.3273
66.7549
66.5373
79.1682
140.954
177.564
187.56
0.714647
0.580572
0.498368
0.588733
0.292739
0.0973058
0.0523575
-0.325772
-0.89624
-1.46257
64.0003
60.4185
65.6484
68.6076
65.4247
86.8675
162.361
165.938
190.794
0.461894
0.735906
0.507321
0.512494
0.47179
0.15792
-0.0256384
-0.301107
-0.715918
-0.552865
56.2328
56.2572
65.2986
70.1964
68.9442
165.922
135.654
153.221
158.434
0.459786
0.513251
0.289396
0.545446
0.0697373
0.059989
-0.269728
-0.677189
-1.15264
0.591567
35.6519
67.2002
65.1773
57.6346
189.116
240.638
137.674
142.331
169.836
0.300849
0.38188
0.404127
0.270071
-0.305528
-0.0897302
-0.383819
-0.55567
-0.701704
-2.27467
5.25761
77.5082
59.2502
84.6917
175.655
129.338
99.3117
85.8071
138.934
0.192022
0.335383
0.205491
0.202295
0.264371
0.538273
0.00773398
-0.45571
0.266072
-8.1917
10.8715
3.00386
-12.3221
10.9208
23.2965
35.6439
10.2042
45.5761
79.3836
0.108082
0.292715
0.253463
0.442047
0.269071
0.719679
0.386332
0.37318
-0.0253618
-2.03295
-2.19544
10.8866
9.66355
14.1221
12.1196
3.34113
7.44681
15.7438
43.2279
0.00975361
0.142304
0.217121
0.177739
0.290594
0.802706
0.646399
1.12416
-1.14699
2.87962
1.64177
4.08438
5.64359
5.63459
6.74492
9.66407
10.8862
8.35748
28.5506
-0.117677
0.0777459
0.122251
0.264224
0.471986
0.767326
0.879652
1.10429
0.957163
0.464688
2.03975
3.21641
4.01
5.34393
5.26615
7.20714
7.58846
5.69055
7.05115
-0.299074
-0.16894
-0.0635546
0.144182
0.683831
0.780944
1.05418
1.04178
1.24456
1.57634
2.27275
3.23726
3.73688
4.71349
4.79529
6.72968
7.60878
7.55143
11.8642
-0.427943
-0.209732
0.0239713
-0.0425473
0.399118
0.835717
1.15048
0.99738
1.04066
1.57179
2.34006
3.31758
3.24911
4.31363
4.06172
6.14554
5.12064
4.47962
6.61246
-0.720301
-0.467171
-0.165447
0.114131
0.289265
0.45514
0.894433
0.433394
0.595812
1.52077
1.80334
2.91634
3.40409
4.01711
3.53871
-1.03519
11.6585
-6.09467
11.9335
-0.750023
-0.632133
-0.326846
0.00227938
0.198591
0.548224
0.913177
0.609355
0.682645
0.232627
1.97211
2.29829
4.12334
3.83021
9.4526
8.19012
4.22369
12.7442
8.618
-1.16203
-0.916316
-0.411236
0.237679
-0.095309
0.201181
0.53584
0.571885
-0.234644
0.113676
-1.51617
1.86875
2.38906
3.32774
4.31715
0.28782
-0.447131
4.66694
7.18993
-1.73482
-1.52
-0.779977
-0.203288
0.130588
0.202705
0.230948
0.19572
0.168215
-0.401111
-0.610559
-0.453235
-2.84796
3.03141
3.77612
4.51956
8.36705
4.8148
6.83004
-1.99652
-1.70265
-0.968812
-0.535265
-0.0416218
-0.336533
-0.0407186
-0.239436
0.173736
-0.633456
-5.24104
-3.20657
0.156443
-6.50978
-13.0002
15.5434
75.4619
-2.68511
3.56964
-2.8125
-2.0119
-1.79832
-1.0871
-0.787088
-1.02633
-0.850287
-0.992702
-0.744978
-0.0860567
-5.41303
-2.16684
-0.563137
1.28433
1.46294
7.16559
25.1281
-10.4394
-6.74269
-3.26651
-2.16789
-2.43658
-2.09418
-1.64426
-1.99212
-1.41238
-1.74397
-2.4546
0.142938
-1.2851
-3.42974
-6.39807
-5.41837
-5.09688
-4.84068
-3.97353
-20.1332
0.805007
-3.94784
-3.04869
-2.61272
-3.01866
-2.4836
-3.6268
-2.11907
-2.14957
-2.65798
-3.64917
-8.90614
-6.33628
-7.1889
-6.59789
-6.22577
-5.88604
-6.5687
-9.30152
-3.89615
-3.54316
-3.64046
-3.50436
-2.93639
-2.94834
-2.81216
-3.72332
-1.94192
-5.83022
-5.67476
-8.56054
-7.19528
-7.12684
-7.26102
-6.96818
-6.51003
-5.84636
-4.96564
-0.14395
-4.5606
-4.8134
-4.60753
-5.33338
-4.10778
-3.47553
-3.67442
-4.28408
-5.18528
-6.53072
-7.27629
-8.34728
-7.56386
-7.18153
-7.00842
-6.20942
-5.44927
-4.73353
-5.16086
-5.31063
-4.82068
-4.6957
-5.11705
-4.52174
-4.45248
-5.08474
-5.93029
-6.96126
-7.24902
-7.49118
-7.85945
-8.1222
-7.44612
-7.12329
-7.06542
-8.25194
-5.96372
-6.48836
-5.52641
-5.67353
-5.31737
-6.19028
-4.56446
-4.6218
-5.53252
-6.38475
-7.09953
-7.25452
-7.58461
-7.76213
-8.00413
-8.39981
-7.55004
-7.32332
-7.02838
-6.38734
-4.3402
-6.11808
-6.64895
-5.49547
-4.69061
-4.33811
-4.49395
-4.92597
-5.83522
-6.53028
-6.88613
-7.00367
-7.11026
-6.99715
-7.14499
-6.81906
-5.68755
-5.49846
-6.09295
-4.66079
-7.58271
-7.21674
-6.18756
-5.38836
-4.50051
-4.59562
-4.17865
-5.34436
-6.62886
-6.71895
-6.87157
-6.8541
-6.93503
-6.82986
-6.24056
-5.93476
-5.60375
-6.06199
-5.52198
-8.94615
-7.81087
-6.50028
-6.12859
-4.38676
-5.25795
-5.85544
-5.71147
-6.31936
-6.54796
-7.02344
-6.88998
-7.4348
-6.25586
-5.93214
-5.82255
-5.65339
-5.759
-5.3942
-10.2019
-8.59947
-6.82981
-6.12439
-6.20317
-5.23124
-5.4139
-5.84216
-6.04479
-6.30978
-6.95411
-6.327
-8.06904
-6.3518
-6.38389
-5.83111
-5.72088
-6.61873
-4.75067
-9.01596
-8.52371
-6.80783
-6.11965
-5.58094
-4.16424
-5.23039
-5.42612
-5.90643
-5.92462
-5.5274
-6.25255
-5.47412
-6.18475
-6.27929
-6.74003
-5.47512
-6.54447
-4.12307
-9.85693
-8.78
-6.55953
-6.27196
-6.86718
-6.58967
-5.5922
-5.33607
-5.62429
-5.8398
-5.58166
-6.0808
-5.9695
-6.15078
-6.26297
-6.67093
-6.50979
-6.16155
-6.68859
-10.3241
-8.09716
-7.77389
-5.23098
-6.05964
-5.03983
-5.2057
-5.42752
-5.63727
-5.68561
-5.58569
-5.90441
-5.97038
-5.99385
-6.1488
-5.81368
-6.24678
-6.26004
-5.69019
-10.8062
-8.40359
-7.69976
-5.37834
-6.15736
-5.94688
-5.57034
-5.56563
-5.61969
-5.83472
-5.93577
-5.7642
-5.77002
-5.97484
-6.09101
-6.03669
-5.71158
-6.5392
-3.94714
-10.7686
-9.91635
-9.6445
-8.21183
-5.96575
-5.57377
-5.67618
-5.73795
-5.69082
-6.0506
-6.20974
-6.50676
-6.59721
-6.07991
-6.02598
-5.896
-5.8324
-6.43682
-4.02757
-11.3357
-8.14529
-7.31988
-7.51709
-6.07087
-5.72166
-5.70011
-5.73572
-5.79656
-6.1001
-6.27724
-6.43223
-6.35382
-6.33896
-7.02065
-6.24806
-7.18163
-6.52598
-5.98139
-15.7371
-11.2842
-8.72744
-6.25448
-6.56606
-6.30795
-5.84695
-5.86359
-6.26058
-5.8619
-5.9542
-5.98987
-6.22176
-6.90116
-6.40823
-7.36837
-7.321
-7.59785
-16.7609
)
;

boundaryField
{
    leftWall
    {
        type            calculated;
        value           nonuniform List<scalar> 
50
(
566.843
507.779
448.445
389.064
329.36
269.793
209.653
149.873
69.0066
10.1333
1.07723
0.771289
0.635764
0.490543
0.341635
0.193962
0.038863
-0.115475
-0.275164
-0.433317
-0.597838
-0.752541
-0.925811
-1.08233
-1.26344
-1.44401
-1.60668
-1.79752
-2.00773
-2.23495
-2.43078
-2.70316
-2.78403
-3.07963
-3.16414
-3.46332
-3.60518
-3.85439
-4.0435
-4.24207
-4.43395
-4.61756
-4.79154
-4.95666
-5.11491
-5.25688
-5.41349
-5.51048
-5.73997
-5.63156
)
;
    }
    rightWall
    {
        type            calculated;
        value           nonuniform List<scalar> 
50
(
1409.75
1356.2
1271.83
1175.96
1049.77
950.015
841.965
739.033
591.207
481.21
408.902
357.801
288.5
332.387
260.778
230.669
187.56
190.794
158.434
169.836
138.934
79.3836
43.2279
28.5506
7.05115
11.8642
6.61246
11.9335
8.618
7.18993
6.83004
3.56964
-6.74269
0.805007
-3.89615
-0.14395
-5.16086
-6.48836
-4.3402
-4.66079
-5.52198
-5.3942
-4.75067
-4.12307
-6.68859
-5.69019
-3.94714
-4.02757
-5.98139
-16.7609
)
;
    }
    lowerWall
    {
        type            calculated;
        value           nonuniform List<scalar> 
62
(
596.272
595.956
596.579
591.98
596.227
592.432
602.566
611.808
626.806
662.935
678.651
737.833
735.05
768.238
785.859
809.834
839.791
866.038
891.224
917.258
945.456
969.701
985.987
956.558
900.058
840.975
784.222
727.276
674.96
618.889
581.232
630.892
578.835
729.379
901.986
1857.69
1861.82
1845.43
1817.29
1803.41
1796.47
1654.78
1265.77
1862.34
1920.17
1940.45
1996.69
1938.14
903.199
251.379
260.088
205.998
194.835
202.686
237.381
339.949
586.987
364.673
672.863
1230.73
1430.15
1438.44
)
;
    }
    atmosphere
    {
        type            calculated;
        value           nonuniform List<scalar> 
46
(
-5.81214
-5.81375
-5.81457
-5.81567
-5.81731
-5.81884
-5.82114
-5.82346
-5.82628
-5.82958
-5.83394
-5.83675
-5.84509
-5.84749
-5.85489
-5.80852
-5.74479
-5.73363
-6.07381
-8.75911
-14.8815
-12.6129
-6.35496
-7.05839
-11.6522
-18.7532
-19.2273
-19.2273
-9.56513
-7.11344
-6.30749
-6.09963
-6.19761
-5.8136
-5.88004
-6.00275
-6.07027
-6.13066
-6.24288
-6.329
-6.68415
-6.78171
-6.93743
-7.22312
-6.92579
-183.337
)
;
    }
    defaultFaces
    {
        type            empty;
    }
}


// ************************************************************************* //
