/*--------------------------------*- C++ -*----------------------------------*\
| =========                 |                                                 |
| \\      /  F ield         | foam-extend: Open Source CFD                    |
|  \\    /   O peration     | Version:     4.1                                |
|   \\  /    A nd           | Web:         http://www.foam-extend.org         |
|    \\/     M anipulation  |                                                 |
\*---------------------------------------------------------------------------*/
FoamFile
{
    version     2.0;
    format      ascii;
    class       volScalarField;
    location    "0.5";
    object      pd;
}
// * * * * * * * * * * * * * * * * * * * * * * * * * * * * * * * * * * * * * //

dimensions      [1 -1 -2 0 0 0 0];

internalField   nonuniform List<scalar> 
2268
(
596.272
595.956
596.579
591.98
596.227
592.432
602.566
611.808
626.806
662.935
678.651
737.833
735.05
768.238
785.859
809.834
839.791
866.038
891.224
917.258
945.456
969.701
985.987
596.067
595.769
596.201
591.629
595.695
591.938
601.53
610.767
626.218
664.911
668.946
735.709
734.66
767.558
787.588
811.456
839.344
867.305
891.104
915.899
946.437
969.732
988.344
595.592
595.36
595.525
591.208
594.901
590.635
600.694
609.547
623.606
655.55
685.917
719.171
733.804
763.797
787.245
811.799
839.904
865.549
891.49
916.661
944.196
969.849
988.119
595.07
594.829
594.388
590.317
593.311
589.364
596.975
604.858
621.849
672.457
672.403
715.796
733.454
762.117
788.824
812.652
841.203
864.832
890.995
916.925
944.914
970.809
990.226
594.224
594.033
592.943
589.625
591.115
586.039
596.578
604.443
617.602
658.044
675.995
709.685
731.845
761.033
788.695
813.781
841.723
865.763
892.653
917.353
944.278
971.346
992.139
593.516
593.22
590.936
588.234
589.027
585.279
587.397
597.481
626.486
649.034
669.423
703.721
729.511
759.396
788.964
812.746
842.193
866.287
894.868
919.915
947.708
976.509
998.683
592.235
591.973
588.634
587.012
586.691
578.361
592.183
588.161
618.784
640.704
662.81
699.681
725.995
759.401
788.223
815.307
843.654
867.824
896.562
920.966
950.982
979.717
1001.47
590.461
590.067
584.518
583.772
581.156
577.717
571.251
586.355
600.99
626.854
655.49
693.342
723.724
758.32
789.999
813.577
843.891
868.217
898.631
923.087
954.987
983.913
1022.67
1862.34
1920.17
1940.45
1996.69
1938.14
903.199
251.379
260.088
205.998
194.835
202.686
237.381
339.949
586.987
364.673
672.863
1230.73
1430.15
1438.44
1862.57
1900.06
1925.89
1935.42
1753.3
775.03
181.599
114.28
124.345
137.01
133.994
178.295
333.048
189.477
440.642
688.616
1135.24
1467.63
1443.95
1847.11
1911.35
1924.69
1885.49
1663.03
468.275
81.7549
68.5639
72.4802
73.0961
72.5683
92.8366
127.706
51.9678
377.809
583.325
1194.13
1382.92
1418.09
1820.14
1928.95
1933.06
1853.49
1515.72
380.589
80.9944
69.6771
69.8116
70.5211
73.5262
79.1631
83.7086
84.2461
361.041
722.288
1162.32
1331.08
1380.72
1805.71
1895.33
1970.72
1792.94
1294.97
252.429
99.781
69.3508
68.9562
70.5751
74.4961
80.0987
81.1856
90.9683
271.897
652.213
1051.85
1285.68
1313.03
1884.47
1976.03
1804.81
1661.57
922.424
206.632
105.744
75.5644
67.4517
70.102
73.9617
82.8467
81.8005
79.7376
143.926
345.352
917.876
1170.15
1271.77
2023.38
1863.7
1610.69
1507.44
718.558
192.571
88.4827
69.5698
65.7403
68.8407
74.1049
83.2414
81.6648
79.0118
92.9802
187.63
734.78
1088.16
1222.22
1707.11
1707.81
1396.32
1445.29
538.806
179.503
75.9386
67.7933
66.5869
68.7063
74.9209
80.4875
81.1057
79.9098
87.4419
140.04
564.003
1029.39
1177.79
480.504
479.463
459.598
465.539
459.444
406.443
428.37
412.669
444.948
519.911
595.403
663.852
706.748
757.221
785.706
819.44
845.848
869.185
901.135
924.535
959.157
992.721
1044.18
102.983
102.247
90.3673
77.9241
84.9683
55.9824
63.3052
62.288
77.9403
129.951
220.809
384.001
570.377
709.891
783.955
819.319
845.697
865.451
897.493
915.86
965.844
1000.33
1090.72
3.92996
3.98797
3.58395
2.65936
3.31173
2.89893
3.09298
3.07327
3.87144
8.51574
23.7116
76.6294
173.015
330.124
531.062
664.955
751.185
812.507
885.056
915.182
956.122
994.922
1042.2
1.71755
1.74204
1.69634
1.73604
1.76274
1.77517
1.80435
1.81082
1.8866
2.07654
3.32321
9.58919
32.4008
67.5784
120.806
162.976
179.224
241.408
406.092
505.289
675.026
786.974
856.207
1.67152
1.67647
1.685
1.69663
1.72012
1.73149
1.76302
1.76918
1.82374
1.75848
1.87675
2.43476
4.07495
5.55473
6.70985
9.28684
10.3775
19.747
35.803
44.7291
72.5721
93.3634
148.733
1.65011
1.6509
1.65778
1.68074
1.68974
1.71815
1.74189
1.75947
1.79826
1.83471
1.79663
1.82272
1.87553
1.90386
1.98919
1.99448
2.19164
2.70299
2.67176
5.65737
9.56645
9.57922
13.6114
1.62628
1.63278
1.64044
1.65646
1.66782
1.68933
1.71076
1.74108
1.76837
1.73888
1.83024
1.75532
1.78972
1.83804
1.87849
1.95241
2.02317
2.05148
2.12851
2.23771
2.34934
2.57011
3.9213
1.60379
1.60937
1.61845
1.63069
1.64519
1.65635
1.68253
1.69927
1.74937
1.75197
1.72149
1.76916
1.80153
1.86698
1.88408
1.9111
1.95234
2.00218
2.0653
2.12471
2.234
2.33983
2.43438
1.57389
1.57978
1.58913
1.5992
1.61309
1.62777
1.64876
1.66149
1.68963
1.70767
1.74217
1.73356
1.76764
1.82175
1.83119
1.8851
1.93081
1.96949
2.06662
2.11136
2.22746
2.31853
2.41431
1.54474
1.54981
1.55736
1.56461
1.57598
1.58939
1.60975
1.63223
1.64072
1.68893
1.68012
1.73094
1.74059
1.78172
1.81221
1.8566
1.90144
1.96697
2.01802
2.10597
2.19848
2.2457
2.30908
1.51025
1.51376
1.52104
1.52638
1.53505
1.54965
1.57495
1.59682
1.62057
1.62218
1.67415
1.66373
1.70609
1.73997
1.76444
1.81885
1.87982
1.92971
1.98541
2.08492
2.19502
2.22407
2.25897
1.47729
1.47944
1.48214
1.48783
1.49926
1.51469
1.53184
1.55402
1.56971
1.60319
1.59171
1.66297
1.66915
1.69552
1.73546
1.77545
1.83885
1.9018
1.96804
2.00792
2.09665
2.18032
2.2571
1.43796
1.44322
1.44188
1.44997
1.46237
1.47675
1.49859
1.51879
1.54918
1.56801
1.58909
1.60347
1.62565
1.65977
1.71438
1.74042
1.80361
1.8967
1.8974
2.04351
2.06315
2.14629
2.24746
1.40846
1.41022
1.41101
1.40961
1.42025
1.42732
1.44651
1.46595
1.491
1.49581
1.52596
1.54818
1.58115
1.63716
1.60867
1.71129
1.72682
1.79372
1.85532
1.9357
2.04154
2.13612
2.20547
1.36038
1.36854
1.36815
1.37715
1.39992
1.38985
1.39405
1.40888
1.39737
1.45036
1.47523
1.55279
1.53691
1.53512
1.6041
1.64705
1.6882
1.74974
1.87927
1.88613
2.04241
2.13208
2.16045
1.32906
1.33465
1.32537
1.32455
1.31073
1.33913
1.3546
1.35179
1.38316
1.36431
1.43757
1.44219
1.48499
1.50298
1.56153
1.57357
1.61401
1.72695
1.78426
1.87292
1.93845
2.01873
2.12802
1.27314
1.27396
1.27519
1.28694
1.3083
1.29213
1.30621
1.30535
1.31471
1.34606
1.36351
1.38696
1.41999
1.45506
1.49088
1.51928
1.60646
1.56986
1.69224
1.72011
1.90702
2.03053
2.13204
1.21776
1.23883
1.2312
1.23924
1.23833
1.2491
1.25415
1.25315
1.25846
1.2681
1.31307
1.31226
1.34022
1.37282
1.38518
1.46633
1.46132
1.57981
1.57415
1.72738
1.76151
1.90705
2.14806
1.18029
1.17586
1.22117
1.21176
1.20844
1.20076
1.22214
1.19836
1.21074
1.20797
1.23113
1.26064
1.27146
1.31482
1.30769
1.38321
1.39938
1.45894
1.55853
1.55952
1.7825
1.95495
1.92501
1.11465
1.08866
1.08504
1.09453
1.10397
1.09065
1.11915
1.12595
1.12426
1.15307
1.13989
1.18826
1.12485
1.23425
1.24153
1.28798
1.29996
1.36606
1.38228
1.50736
1.54558
1.78914
1.98525
1.02963
1.02009
1.02967
1.01867
1.0263
1.02649
1.0279
1.0282
1.0394
1.05513
1.08582
1.09203
1.1572
1.15508
1.19788
1.21635
1.20441
1.28537
1.33109
1.49979
1.512
1.72259
1.66973
0.927606
0.918007
0.916406
0.923298
0.910623
0.912645
0.923527
0.914659
0.970031
0.990543
0.975321
1.00832
0.973747
1.03195
1.04998
1.04814
1.11638
1.05572
1.26803
1.26575
1.4498
1.45921
1.74931
0.856964
0.835342
0.86075
0.796516
0.826974
0.811343
0.826462
0.861079
0.834747
0.890671
0.840452
0.900671
0.896549
0.863954
0.965345
0.937667
0.973996
0.943347
1.16846
1.08118
1.1317
1.19011
1.37787
0.709777
0.707105
0.723199
0.756594
0.783473
0.752382
0.801878
0.777537
0.817226
0.810808
0.764033
0.800715
0.715964
0.809829
0.678133
0.83641
0.761129
0.914288
0.983696
0.873052
1.05423
1.0979
1.24113
0.754107
0.724453
0.731807
0.678828
0.686461
0.695501
0.701066
0.696292
0.708422
0.669563
0.678833
0.631672
0.634303
0.674253
0.514048
0.660346
0.69574
0.623946
0.778831
0.555097
0.809231
0.701339
1.20525
0.583698
0.58546
0.617401
0.651657
0.691563
0.659921
0.65015
0.598922
0.585722
0.591774
0.587692
0.530012
0.568668
0.426658
0.548164
0.372964
0.63215
0.412023
0.639327
0.248405
0.55515
0.562673
0.847037
0.624385
0.61716
0.639365
0.568096
0.544018
0.538463
0.512614
0.496489
0.473908
0.469008
0.453133
0.396848
0.443625
0.31642
0.313296
0.178497
0.423438
0.14898
0.421564
0.382403
0.205608
0.101156
0.536586
0.450403
0.443846
0.437283
0.474628
0.445716
0.450277
0.437045
0.404261
0.424312
0.328393
0.345847
0.327144
0.266282
0.21089
0.219758
0.0457104
0.0983761
-0.086267
0.236639
-0.070809
-0.210672
0.232692
0.0972088
0.433737
0.432139
0.393383
0.385398
0.364099
0.359549
0.327673
0.307138
0.281733
0.249569
0.226211
0.252046
0.0696627
0.105611
-0.0845085
0.0222755
-0.283967
-0.227668
-0.463977
-0.282047
-0.472597
-0.0541671
-0.738735
0.309719
0.308252
0.300241
0.308381
0.27841
0.24942
0.243532
0.224572
0.183207
0.205612
0.0550179
0.0772693
0.112074
-0.0832179
-0.0863946
-0.21797
-0.40635
-0.309957
-0.779739
-0.564445
-0.208274
-0.342747
0.0219541
0.2458
0.239774
0.223879
0.215737
0.201697
0.175807
0.148393
0.121782
0.0782379
0.0577202
-0.0455817
0.0138996
-0.261583
-0.185993
-0.383617
-0.457877
-0.509166
-0.872457
-0.702079
-0.648885
0.305372
-0.612178
1.26842
0.17243
0.167215
0.165915
0.147174
0.10743
0.102758
0.0718186
0.045056
0.0106283
-0.030405
-0.0582181
-0.167129
-0.336975
-0.302785
-0.464866
-0.507678
-0.797912
-1.07309
-0.705683
0.188058
0.187944
-0.825958
0.102327
0.105746
0.100855
0.0923121
0.0757913
0.0508539
0.0301059
-0.00262901
-0.0362365
-0.0839491
-0.128813
-0.197487
-0.261026
-0.388635
-0.456512
-0.600567
-0.658106
-1.09435
-1.07214
-0.396125
-0.0304926
-0.882965
-2.42868
-3.00758
0.0473241
0.0422588
0.0328666
0.0175858
-0.00561852
-0.0288768
-0.0606962
-0.0973939
-0.142956
-0.197129
-0.265665
-0.340871
-0.45662
-0.554363
-0.677
-0.708955
-1.106
-1.35801
-1.71348
-1.47177
-2.59768
-3.14215
-3.92247
-0.00145553
-0.0064168
-0.0161981
-0.031001
-0.0521073
-0.0766923
-0.109533
-0.146773
-0.194684
-0.248871
-0.317199
-0.390558
-0.516966
-0.593659
-0.79617
-0.931278
-1.29202
-1.58852
-1.85406
-2.11147
-2.63482
-3.6284
-4.40364
-0.0413861
-0.0461976
-0.0554007
-0.0693801
-0.0888649
-0.112923
-0.143444
-0.179976
-0.226324
-0.279679
-0.348212
-0.426559
-0.522259
-0.633382
-0.748585
-0.945852
-1.14148
-1.57967
-1.39278
-1.99165
-2.51108
-3.6971
-4.57552
-0.0744369
-0.0789022
-0.0870734
-0.0998818
-0.117348
-0.138971
-0.166384
-0.198388
-0.239271
-0.286548
-0.348716
-0.400282
-0.488862
-0.547081
-0.72555
-0.959858
-1.28325
-1.66794
-1.06294
-1.49133
-2.24237
-3.85231
-4.58905
-0.091217
-0.0946052
-0.102155
-0.113054
-0.128399
-0.14742
-0.171405
-0.200041
-0.238205
-0.27614
-0.324108
-0.360265
-0.472329
-0.526247
-0.677709
-0.886131
-1.19852
-1.55065
-1.49242
-1.49597
-3.25036
-3.88139
-4.674
-0.122633
-0.12545
-0.131614
-0.140417
-0.152782
-0.168234
-0.183131
-0.205269
-0.232745
-0.259041
-0.288819
-0.34826
-0.425325
-0.495841
-0.624583
-0.764393
-1.14331
-1.44242
-1.37261
-1.21755
-3.99131
-3.9283
-5.20144
-0.094427
-0.096856
-0.101868
-0.108817
-0.120428
-0.132383
-0.142092
-0.160152
-0.182066
-0.202955
-0.21944
-0.268354
-0.321032
-0.377564
-0.452314
-0.534748
-0.612261
-0.676595
1.50417
4.67026
-1.78725
-4.11454
-5.21043
-0.198723
-0.200885
-0.204375
-0.209241
-0.216208
-0.224209
-0.232153
-0.242334
-0.249751
-0.270144
-0.285131
-0.30901
-0.328756
-0.334969
-0.26851
-0.287647
-0.285568
0.0794667
3.91389
6.30306
1.35371
-3.8533
-3.82387
0.0348784
0.0344913
0.0338153
0.0329069
0.0316619
0.0299656
0.0286123
0.0242205
0.0204935
0.0142581
0.00450053
-0.0133538
-0.0486529
-0.115952
-0.252612
-0.248956
-0.1659
-0.242606
0.0356044
1.65567
5.06466
2.21213
-2.59308
1101.67
1049.6
1200.18
1372.84
1116.14
1154.69
1217.96
1267.09
1080.08
1095.38
1119.38
1139.78
884.505
897.299
929.82
1000.01
189.074
216.981
257.414
366.789
16.0472
14.3524
18.3363
49.0392
4.67676
4.34696
4.18634
4.63329
2.50661
2.52614
2.5595
2.55468
2.37333
2.3976
2.39681
2.36704
2.38649
2.42239
2.41865
2.38599
2.32556
2.32796
2.31917
2.31595
2.31111
2.32531
2.34511
2.41607
2.19884
2.28273
2.29991
2.33908
2.25399
2.27928
2.30472
2.32783
2.28437
2.30673
2.33457
2.37045
2.24316
2.26677
2.31534
2.3504
2.19992
2.2426
2.2952
2.34075
2.08826
2.15976
2.21263
2.25256
2.1182
2.14315
2.194
2.23316
1.95823
2.03656
2.08276
2.10827
2.04064
1.95265
2.05388
2.132
1.72164
1.80496
1.78236
1.87509
1.68621
1.69264
1.7021
1.74166
1.188
1.19069
1.25477
1.37878
0.963008
0.771209
1.11546
1.05722
0.745449
0.933461
0.538089
0.548982
0.467785
0.483173
0.563431
0.0900508
0.040336
-0.055591
0.0517858
1.0848
-0.015406
1.60988
1.52153
0.988083
1.6503
1.66014
1.12758
-0.553299
0.985663
1.05884
0.778553
-1.10704
-0.559919
-0.95827
-2.19927
-2.57313
-2.88066
-3.06029
-3.56275
-3.67748
-4.34196
-4.5548
-4.7928
-4.67293
-4.82005
-4.91507
-4.79938
-4.27762
-4.99561
-5.03759
-4.99546
-4.40753
-5.38501
-5.95241
-5.77588
-5.23459
-4.69438
-5.05223
-5.02768
-4.97232
-5.29207
-5.50286
-5.0055
-4.93766
-5.14383
-5.80555
-5.15545
-4.60416
-4.35113
-3.59859
-1.72929
1.66809
-2.3964
1.029
6.13036
5.25502
1450.14
1501.54
1458.23
1383.34
638.506
172.42
83.6675
69.7796
67.4773
70.8939
76.2419
79.6848
80.8431
80.634
85.7334
111.765
424.885
983.847
1121.43
1374.77
1372.09
1286.77
1206.45
859.548
388.037
107.44
70.3277
67.9807
69.1718
72.0454
75.8352
77.7192
78.6249
82.9838
97.4518
468.981
1015.91
1121.57
1242.08
1181.87
1235.47
1231.81
1184.54
762.836
251.085
77.9628
68.6773
69.3145
71.0887
73.1942
74.4847
76.7812
78.9474
115.759
631.796
1086.74
1116.85
1109.47
1205.76
1099.17
1041.18
1221.75
1138.62
730.146
151.158
70.7372
70.6092
71.7255
73.6165
74.9672
76.2967
76.0079
138.257
805.742
1136.2
1158.3
733.153
940.507
834.808
820.57
883.077
1010.59
1072.68
596.081
106.743
71.7379
72.6799
73.9625
74.5499
76.3132
81.2876
220.328
881.221
1255.17
1202.66
125.585
244.564
150.193
171.611
424.978
645.785
983.624
1102.65
452.72
84.4725
81.6504
73.8678
74.1388
78.9423
91.1736
266.795
938.349
1369.86
1422.67
4.81496
5.37023
7.75437
16.1258
31.1544
43.2354
395.407
864.246
1095.72
1046.72
409.377
72.3132
72.1385
76.4627
85.4583
294.114
1087.29
1216.05
1467.91
2.54734
2.45494
2.43928
3.38044
4.563
4.19344
8.72454
32.196
575.67
1154.73
752.743
123.879
70.3296
71.8328
85.8762
483.767
1261.64
1241.11
1490.47
2.21348
2.27231
2.31763
2.2245
2.03542
1.77142
1.82794
8.32772
60.7736
594.19
738.45
96.1421
66.6408
69.1962
85.9194
722.468
852.633
812.615
1328.02
2.37491
2.24103
2.16359
2.29074
2.05349
1.86477
1.76616
1.39548
3.30628
232.139
811.241
97.6226
68.2764
71.0323
187
871.054
595.574
478.374
1355.62
2.24731
2.52136
2.2949
2.3184
2.30919
1.99648
1.78807
1.51258
1.11436
149.386
816.747
104.075
68.0808
82.128
857.883
914.873
465.626
484.169
1541.98
2.37039
2.42387
2.20093
2.46081
1.98978
1.9845
1.68064
1.41668
3.89931
143.365
576.679
223.919
70.0448
503.097
1375.98
621.324
660.11
1454.93
1646.66
2.33665
2.41768
2.43998
2.30632
1.73183
1.95725
1.84162
2.4331
6.50292
57.6466
241.196
551.542
386.409
1349.84
1439.18
1231.77
948
822.784
755.796
2.35302
2.49638
2.36649
2.36332
2.42581
2.72556
2.64631
4.58275
13.0663
35.0184
174.146
521.211
767.241
1020.08
976.796
513.96
254.013
293.054
361.842
2.39427
2.57891
2.53965
2.72824
2.55585
3.04158
3.29911
7.05629
18.8726
43.779
94.6693
207.826
276.684
264.294
231.502
107.208
113.105
283.29
966.64
2.42114
2.55369
2.62851
2.58912
2.70214
3.23822
3.54036
6.45805
9.29124
18.3172
19.5978
23.3636
31.2058
32.1888
29.847
34.8859
136.354
283.744
1174.56
2.4189
2.61433
2.65883
2.80081
3.00874
3.32066
3.62631
4.31362
4.49054
4.2492
5.53054
6.8306
8.67896
10.2288
9.8882
18.4731
43.7505
136.915
1373.71
2.3627
2.49283
2.59822
2.80597
3.34563
3.44408
3.75265
3.86414
4.12743
4.41246
5.0222
5.97391
6.53564
7.77021
9.6813
16.0199
25.5641
76.1224
1564.92
2.35903
2.57724
2.81095
2.74459
3.18647
3.62283
3.94025
3.80627
3.86204
4.38925
5.14154
6.1192
6.0511
7.62242
15.6592
34.6687
25.9569
68.4797
1516.13
2.19186
2.44499
2.74672
3.02638
3.20195
3.36741
3.80672
3.34643
3.5103
4.43882
4.73239
5.87422
6.78328
13.3099
41.8744
77.2153
87.5217
185.761
368.267
2.28795
2.40727
2.71161
3.03982
3.23644
3.58575
3.95065
3.64686
3.72262
3.31952
5.90292
10.3073
16.1015
25.8544
72.579
120.933
170.827
202.679
36.3227
2.06554
2.38445
2.80402
3.4046
3.06785
3.36443
3.69854
3.73469
2.95231
4.83606
21.3158
73.183
68.4168
37.5305
38.0851
38.2889
83.0985
56.7845
30.7299
1.65035
2.64919
3.34529
3.2087
3.41993
3.49351
3.51923
3.48378
3.49303
7.01082
108.105
331.441
238.034
78.4451
65.5063
117.858
185.871
34.0763
31.7
1.71757
4.31811
6.26962
4.28557
3.44914
3.07998
3.37312
3.17513
4.22202
44.0197
277.836
546.046
520.188
141.104
274.813
585.584
764.893
321.545
250.029
0.806462
2.63197
5.70351
5.48787
3.13958
2.51656
2.68911
2.86426
29.7048
294.997
563.987
567.233
482.46
143.51
410.743
980.597
1230.45
1313.26
1296.88
0.504321
1.9945
3.3237
4.708
2.94438
1.68302
2.25269
2.46993
32.9942
235.341
450.654
340.269
95.1689
35.4624
79.3029
187.828
190.475
1598.05
1794.72
-0.0419105
1.00972
1.7864
4.0117
2.27145
0.171812
1.6948
4.72376
63.3706
160.529
59.8805
24.3314
19.5979
12.1727
-1.42962
0.303773
2.65601
244.336
1851.32
1.38192
0.361525
0.562555
3.42581
1.92374
1.11235
1.30419
24.1074
76.1505
75.421
16.0201
3.93476
-2.64617
-3.15345
-2.86381
-2.40963
0.193081
76.4011
1874.39
0.523258
-0.728593
-0.503552
-0.172427
0.612045
0.611403
3.1193
34.1103
61.7771
8.87758
0.108612
-2.74024
-3.37266
-3.01975
-2.4546
-1.10893
2.52529
22.0192
1401.39
-0.902728
-0.647548
-0.489144
-0.418949
-0.0907511
-0.184195
4.47036
30.6802
32.9251
-0.757953
-2.72858
-3.30045
-3.83151
-3.15506
1.06636
3.96859
0.951443
5.48825
949.29
-1.1217
-1.37964
-1.00821
-1.61293
-0.0804341
-0.132936
3.6807
14.5364
19.4731
-2.2223
-3.05886
-3.36858
-3.63567
-3.71987
6.39061
8.18206
-0.480142
1.99479
259.864
-1.64838
-2.22976
-1.05851
-0.0635787
0.336682
0.175434
2.96808
14.6661
10.5463
-1.72845
-2.42019
-2.61233
-2.44431
1.09709
9.26179
9.91344
0.362913
1.02398
73.7848
-2.991
-2.66664
-1.6246
-0.672788
0.306414
0.176152
2.61694
25.7814
7.79259
-1.6151
-2.2182
-2.18462
0.177507
9.52917
10.2978
2.99022
-0.62303
0.522889
95.8097
-4.20315
-3.13531
-1.81378
-1.36763
0.447557
-0.363076
2.40314
26.2851
5.28064
-1.55319
-2.13765
0.137854
9.21464
11.7136
9.02787
0.312559
-0.952352
0.677806
450.035
-5.33244
-3.80146
-2.03153
-1.31563
-1.3819
0.0193008
12.7397
25.927
0.654174
0.397365
2.0509
9.19711
10.0318
8.94077
-0.158393
-0.97529
-0.924688
0.10316
690.125
-4.04738
-3.60196
-1.88609
-1.19791
-0.603693
2.29035
16.3668
10.3218
0.0691184
7.03461
11.8885
11.0829
8.40636
-0.189606
-1.3327
-1.82418
-0.55745
0.685481
651.872
-4.79305
-3.7329
-1.51244
-1.16826
-0.479072
7.01588
15.6612
1.02532
0.656123
8.63297
8.25433
1.89469
-0.70837
-1.10783
-1.22247
-1.63041
-1.46864
-0.840602
291.362
-5.14353
-2.91767
-2.47255
1.91112
8.75591
11.5094
6.42237
3.21906
7.75524
1.65077
-0.135375
-0.694269
-0.801867
-0.828159
-0.983123
-0.647996
-1.08085
-0.901287
546.676
-5.49642
-2.8235
0.428984
11.4722
11.6726
11.0008
3.50612
7.07322
6.46986
0.140942
-0.638304
-0.473336
-0.479165
-0.683981
-0.800145
-0.74582
-0.420671
-1.05401
906.078
-5.09298
-2.16659
9.72091
11.214
10.7937
5.04869
3.59464
2.26078
0.200017
-0.604934
-0.793521
-1.09071
-1.18115
-0.663855
-0.609926
-0.479944
-0.41634
-0.0808389
1785.88
3.00257
5.21515
7.33597
4.96203
2.61182
1.55521
1.58506
-0.174857
-0.254873
-0.558854
-0.73599
-0.890983
-0.812569
-0.797708
-1.4794
-0.706812
-1.64038
-0.751146
1084.6
3.28015
-1.82356
-1.69173
-0.0158992
-0.533074
-0.178061
-0.163947
-0.197141
-0.594141
-0.195456
-0.287755
-0.323425
-0.555316
-1.23471
-0.741789
-1.70193
-1.65456
-1.93121
164.573
)
;

boundaryField
{
    leftWall
    {
        type            zeroGradient;
    }
    rightWall
    {
        type            zeroGradient;
    }
    lowerWall
    {
        type            zeroGradient;
    }
    atmosphere
    {
        type            totalPressure;
        rho             rho;
        psi             none;
        gamma           1;
        p0              uniform 0;
        value           nonuniform List<scalar> 
46
(
-0.0830994
-0.0847104
-0.0855296
-0.0866315
-0.0882708
-0.089801
-0.0921031
-0.0944165
-0.0972421
-0.100538
-0.104901
-0.107711
-0.116047
-0.11845
-0.125848
-0.0794789
-0.0157469
-0.00458721
0
0
0
0
0
0
0
0
0
0
0
0
0
0
0
-0.084562
-0.150997
-0.273707
-0.34123
-0.401622
-0.513839
-0.59996
-0.955108
-1.05267
-1.20839
-1.49408
-1.19675
0
)
;
    }
    defaultFaces
    {
        type            empty;
    }
}


// ************************************************************************* //
