/*--------------------------------*- C++ -*----------------------------------*\
| =========                 |                                                 |
| \\      /  F ield         | foam-extend: Open Source CFD                    |
|  \\    /   O peration     | Version:     4.1                                |
|   \\  /    A nd           | Web:         http://www.foam-extend.org         |
|    \\/     M anipulation  |                                                 |
\*---------------------------------------------------------------------------*/
FoamFile
{
    version     2.0;
    format      ascii;
    class       surfaceScalarField;
    location    "0.5";
    object      phi_0;
}
// * * * * * * * * * * * * * * * * * * * * * * * * * * * * * * * * * * * * * //

dimensions      [0 3 -1 0 0 0 0];

internalField   nonuniform List<scalar> 
4432
(
3.13427e-06
-3.13427e-06
4.97693e-06
-1.84266e-06
8.55027e-06
-3.57334e-06
1.12422e-05
-2.69191e-06
1.39316e-05
-2.68939e-06
1.58169e-05
-1.88535e-06
1.71629e-05
-1.34593e-06
1.77615e-05
-5.98654e-07
1.73521e-05
4.09417e-07
1.64544e-05
8.97675e-07
2.70514e-05
-1.0597e-05
2.75423e-05
-4.90901e-07
2.83708e-05
-8.285e-07
2.81585e-05
2.12245e-07
2.77523e-05
4.06252e-07
2.71367e-05
6.15524e-07
2.64695e-05
6.67227e-07
2.53503e-05
1.11917e-06
2.37274e-05
1.62292e-06
2.03472e-05
3.38024e-06
1.51666e-05
5.18059e-06
8.91254e-06
6.25406e-06
8.91254e-06
3.10279e-06
-6.23706e-06
5.23793e-06
-3.97779e-06
8.784e-06
-7.11941e-06
1.12542e-05
-5.16208e-06
1.39955e-05
-5.43069e-06
1.59968e-05
-3.88669e-06
1.75312e-05
-2.88029e-06
1.80023e-05
-1.06978e-06
1.79096e-05
5.0209e-07
1.65851e-05
2.22216e-06
2.43663e-05
-1.83781e-05
2.48819e-05
-1.00653e-06
2.55222e-05
-1.46885e-06
2.54321e-05
3.02435e-07
2.56472e-05
1.91101e-07
2.54198e-05
8.4294e-07
2.46818e-05
1.40521e-06
2.39498e-05
1.85123e-06
2.28807e-05
2.69196e-06
1.98307e-05
6.43028e-06
1.5076e-05
9.93523e-06
7.71581e-06
1.36143e-05
1.66284e-05
2.87227e-06
-9.10933e-06
5.46775e-06
-6.57328e-06
8.86808e-06
-1.05197e-05
1.09441e-05
-7.23811e-06
1.38973e-05
-8.38388e-06
1.60767e-05
-6.06615e-06
1.75035e-05
-4.30705e-06
1.87217e-05
-2.28798e-06
1.80096e-05
1.21423e-06
3.00018e-05
-9.77002e-06
2.45762e-05
-1.29525e-05
2.4106e-05
-5.36277e-07
2.36511e-05
-1.014e-06
2.30703e-05
8.8326e-07
2.29021e-05
3.59321e-07
2.25981e-05
1.14689e-06
2.23836e-05
1.61976e-06
2.22164e-05
2.01835e-06
2.15694e-05
3.33899e-06
1.93141e-05
8.68559e-06
1.57341e-05
1.35152e-05
9.92931e-06
1.94191e-05
2.65577e-05
2.61783e-06
-1.17272e-05
5.67429e-06
-9.62973e-06
8.95062e-06
-1.37961e-05
1.10959e-05
-9.38335e-06
1.42236e-05
-1.15116e-05
1.62358e-05
-8.07837e-06
1.79698e-05
-6.04108e-06
1.75233e-05
-1.8415e-06
2.75908e-05
-8.85325e-06
2.46831e-05
-6.86227e-06
2.03784e-05
-8.64792e-06
1.7613e-05
2.22914e-06
1.59881e-05
6.10924e-07
1.44066e-05
2.4648e-06
1.41612e-05
6.04667e-07
1.41195e-05
1.18861e-06
1.4506e-05
1.23328e-06
1.49746e-05
1.54968e-06
1.57879e-05
2.5257e-06
1.58325e-05
8.64097e-06
1.45975e-05
1.47503e-05
9.24693e-06
2.47696e-05
3.58046e-05
2.4293e-06
-1.41565e-05
5.77833e-06
-1.29788e-05
9.12864e-06
-1.71464e-05
1.15259e-05
-1.17806e-05
1.41406e-05
-1.41263e-05
1.54852e-05
-9.42297e-06
1.74874e-05
-8.04324e-06
1.64374e-05
-7.91577e-07
2.45514e-05
-1.69672e-05
2.09121e-05
-3.22292e-06
1.67494e-05
-4.48525e-06
1.46213e-05
4.35724e-06
1.33373e-05
1.89494e-06
1.19139e-05
3.8882e-06
1.02805e-05
2.23802e-06
8.94866e-06
2.52048e-06
8.82084e-06
1.3611e-06
8.18772e-06
2.18279e-06
8.82989e-06
1.88353e-06
9.77022e-06
7.70064e-06
1.07014e-05
1.38191e-05
9.51193e-06
2.59591e-05
4.53165e-05
2.68938e-06
-1.68458e-05
6.22238e-06
-1.65118e-05
9.34901e-06
-2.0273e-05
1.13346e-05
-1.37662e-05
1.37367e-05
-1.65284e-05
1.59772e-05
-1.16634e-05
1.57818e-05
-7.84787e-06
2.47101e-05
-9.71987e-06
2.12087e-05
-1.34658e-05
1.94004e-05
-1.41464e-06
1.47586e-05
1.5655e-07
1.17863e-05
7.32957e-06
9.98422e-06
3.697e-06
7.86104e-06
6.01138e-06
7.00553e-06
3.09353e-06
6.35987e-06
3.16614e-06
5.82394e-06
1.89704e-06
5.4934e-06
2.51333e-06
6.28815e-06
1.08878e-06
6.07308e-06
7.9157e-06
7.71638e-06
1.21758e-05
8.28099e-06
2.53945e-05
5.35975e-05
3.09416e-06
-1.994e-05
6.37569e-06
-1.97933e-05
9.02842e-06
-2.29257e-05
1.11249e-05
-1.58627e-05
1.37551e-05
-1.91585e-05
1.48598e-05
-1.27682e-05
1.41005e-05
-7.08854e-06
2.26027e-05
-1.82221e-05
2.02662e-05
-1.11292e-05
1.79127e-05
9.3887e-07
1.32852e-05
4.78402e-06
1.07753e-05
9.83951e-06
9.14145e-06
5.33082e-06
7.62614e-06
7.52668e-06
6.15312e-06
4.56656e-06
5.20697e-06
4.11228e-06
5.18946e-06
1.91455e-06
4.67212e-06
3.03067e-06
5.4573e-06
3.03607e-07
5.36414e-06
8.00886e-06
8.06973e-06
9.47025e-06
5.24777e-06
2.82164e-05
5.88453e-05
3.34462e-06
-2.32846e-05
6.47242e-06
-2.29211e-05
9.16394e-06
-2.56173e-05
1.11546e-05
-1.78534e-05
1.38534e-05
-2.18574e-05
1.39885e-05
-1.29033e-05
2.36514e-05
-1.67514e-05
2.21276e-05
-1.66983e-05
2.02912e-05
-9.29287e-06
1.75605e-05
3.6696e-06
1.35849e-05
8.75954e-06
1.06048e-05
1.28196e-05
8.13046e-06
7.80517e-06
5.53977e-06
1.01174e-05
5.23891e-06
4.86742e-06
5.71024e-06
3.64094e-06
5.67705e-06
1.94774e-06
6.11603e-06
2.59169e-06
7.249e-06
-8.29364e-07
6.89185e-06
8.36601e-06
9.33395e-06
7.02815e-06
5.55236e-06
3.1998e-05
6.43977e-05
5.06092e-07
-5.0609e-07
1.20702e-05
-1.15641e-05
-3.78327e-07
1.24485e-05
-0.00011287
0.000112492
-0.000213514
0.000100644
-0.000258436
4.49214e-05
-0.000275188
1.67529e-05
-0.000287016
1.18272e-05
-0.000285613
-1.40264e-06
-0.000276502
-9.11096e-06
-0.000267219
-9.28307e-06
-0.000248783
-1.8436e-05
-0.000227368
-2.1415e-05
-0.000209022
-1.83463e-05
-0.000115361
-9.3661e-05
-7.92452e-05
-3.61155e-05
-6.23626e-05
-1.68827e-05
-1.65438e-05
-4.58188e-05
-1.65438e-05
-0.000140048
0.000139542
-1.85633e-05
-0.000133049
1.01716e-05
-1.62864e-05
-0.000104194
0.000226856
-0.000207601
0.000204052
-0.000257568
9.48882e-05
-0.000274888
3.40734e-05
-0.000253752
-9.30943e-06
-0.000237714
-1.74406e-05
-0.000230729
-1.60961e-05
-0.000212023
-2.79887e-05
-0.000198058
-3.24011e-05
-0.000187512
-3.19605e-05
-9.89474e-05
-0.000106911
-9.35849e-05
-9.90236e-05
-7.86441e-05
-5.10563e-05
-4.36228e-05
-5.1904e-05
-2.31906e-05
-6.62509e-05
-3.97344e-05
-3.26388e-05
0.000172181
1.55505e-05
-0.000181238
1.87417e-05
-1.94774e-05
-3.53362e-05
0.000280934
-0.000200865
0.00036958
-0.000241543
0.000135567
-0.000191713
-1.57569e-05
-0.000179286
-2.17359e-05
-0.000224178
2.74512e-05
-0.000206506
-3.37681e-05
-0.000114588
-0.000119906
-0.000177882
3.08922e-05
-0.000165408
-4.44338e-05
-9.5749e-05
-0.000176571
-0.000144409
-5.03639e-05
-0.000115895
-7.95695e-05
-6.87551e-05
-9.90443e-05
-2.86138e-05
-0.000106392
-6.83483e-05
-5.8081e-06
0.000177989
1.11008e-05
-0.000198147
5.48262e-05
-6.32026e-05
4.87852e-05
0.000286975
-8.88899e-05
0.000507255
-0.000121332
0.000168008
-0.000160588
2.35e-05
-0.000239127
5.68023e-05
-0.000195221
-1.64545e-05
-0.000103943
-0.000125046
-0.000173216
-5.06329e-05
-0.000137883
-4.44105e-06
-7.83292e-05
-0.000103987
-0.000101551
-0.000153349
-7.53484e-05
-7.65664e-05
-0.000101537
-5.33812e-05
-6.42995e-05
-0.000136282
-2.88452e-05
-0.000141846
-9.71935e-05
0.000121412
5.65766e-05
1.63226e-05
-9.30572e-05
4.96048e-05
-9.64848e-05
6.75162e-05
0.000269064
-7.34853e-05
0.000648256
-0.000126613
0.000221136
-0.000150169
4.70557e-05
-0.000141345
4.7978e-05
-0.000119245
-3.8554e-05
-0.000175232
-6.90605e-05
-0.000114713
-0.000111151
-8.29954e-05
-3.61587e-05
-7.49929e-05
-0.00011199
-0.000101737
-0.000126605
-0.000133355
-4.49483e-05
-8.96106e-05
-9.71256e-05
-5.53384e-05
-0.000170554
-2.939e-05
-0.000167795
-0.000126584
4.60681e-05
1.05087e-05
2.57132e-05
-7.27023e-05
4.50587e-05
-0.00011583
7.85323e-05
0.00023559
-4.00212e-05
0.00076681
-9.72849e-05
0.0002784
-0.000116237
6.60076e-05
-0.000110684
4.24248e-05
-0.000133738
-1.54994e-05
-0.000155076
-4.77237e-05
-4.58984e-05
-0.000220328
-3.5496e-05
-4.65609e-05
-8.17347e-05
-6.57511e-05
-0.000124972
-8.3367e-05
-0.000140662
-2.9259e-05
-7.44885e-05
-0.000163299
-4.42936e-05
-0.000200749
-1.45528e-05
-0.000197536
-0.000141136
4.18915e-05
-3.13828e-05
3.06365e-05
-6.14473e-05
4.05837e-05
-0.000125778
0.000169372
0.000106802
0.000164118
0.000772064
1.26442e-05
0.000429874
-0.000111353
0.000190005
-0.000111273
4.23444e-05
-9.82476e-05
-2.85248e-05
-4.4603e-05
-0.000101369
-3.6121e-05
-0.000228809
-4.99945e-05
-3.26873e-05
-0.00013905
2.33045e-05
-0.00012755
-9.48673e-05
-9.78587e-05
-5.89504e-05
-6.71796e-05
-0.000193978
-2.93544e-05
-0.000238574
-1.07237e-05
-0.000216166
-0.00015186
2.51518e-05
-5.65345e-05
6.02138e-05
-9.65094e-05
2.52677e-05
-9.08314e-05
0.00017484
-4.27701e-05
0.000438938
0.000507966
0.000358781
0.000510031
0.00038843
0.000160356
0.000278078
0.000152696
0.000225533
2.40201e-05
0.000246805
-0.000122641
0.000164338
-0.000146342
7.07853e-05
6.0865e-05
3.65407e-05
5.7549e-05
-4.86494e-05
-9.67688e-06
-7.8044e-05
-2.95557e-05
-5.71251e-05
-0.000214897
-2.30257e-05
-0.000272673
-7.92127e-06
-0.000231271
-0.000159781
7.0476e-06
-3.03322e-05
1.3525e-05
-2.93985e-05
1.85425e-05
-3.06347e-05
2.36777e-05
-2.29887e-05
2.73255e-05
-2.55051e-05
4.82057e-05
-3.37835e-05
5.01157e-05
-1.86614e-05
4.94556e-05
-1.60383e-05
4.3743e-05
-3.58022e-06
3.79109e-05
9.50174e-06
3.19521e-05
1.47183e-05
2.57086e-05
1.90632e-05
1.66626e-05
1.68512e-05
1.36971e-05
1.30829e-05
1.25251e-05
6.03939e-06
1.02995e-05
5.8665e-06
1.13739e-05
8.7337e-07
1.4808e-05
-8.42402e-07
1.72615e-05
-3.28289e-06
2.10218e-05
4.60572e-06
2.0031e-05
8.01894e-06
2.50799e-05
2.69492e-05
1.98925e-05
6.95851e-05
6.64448e-06
-3.69767e-05
1.42337e-05
-3.69877e-05
2.0707e-05
-3.71081e-05
3.94728e-05
-4.17544e-05
4.39896e-05
-3.00219e-05
4.87455e-05
-3.85394e-05
5.25688e-05
-2.24846e-05
5.36401e-05
-1.71096e-05
4.91233e-05
9.36635e-07
4.04465e-05
1.81785e-05
3.10473e-05
2.41175e-05
2.2544e-05
2.75664e-05
1.83524e-05
2.10429e-05
1.62672e-05
1.51681e-05
1.27041e-05
9.60248e-06
1.41314e-05
4.43917e-06
1.47914e-05
2.13355e-07
1.70362e-05
-3.08713e-06
1.46279e-05
-8.74633e-07
2.28473e-05
-3.61367e-06
2.81617e-05
2.70454e-06
5.47645e-05
3.46294e-07
3.21365e-06
7.14434e-05
3.6161e-06
-4.05928e-05
4.70169e-06
-3.80733e-05
1.10254e-05
-4.34318e-05
2.23939e-05
-5.31229e-05
3.08902e-05
-3.85182e-05
3.42116e-05
-4.18608e-05
4.11998e-05
-2.94728e-05
4.15695e-05
-1.74793e-05
3.42255e-05
8.28067e-06
1.48799e-05
3.75241e-05
1.75541e-06
3.7242e-05
-1.99151e-06
3.13133e-05
-3.84965e-06
2.2901e-05
1.23466e-06
1.00837e-05
6.69586e-06
4.14129e-06
1.3395e-05
-2.25999e-06
2.10123e-05
-7.40393e-06
2.75236e-05
-9.5984e-06
2.98926e-05
-3.24369e-06
3.19693e-05
-5.69034e-06
3.69496e-05
-2.27572e-06
4.25498e-05
-5.25398e-06
-6.98724e-06
5.27507e-05
-7.13242e-06
-3.34604e-05
-1.28099e-05
-3.23959e-05
-9.02629e-06
-4.72154e-05
-1.42091e-05
-4.79401e-05
-1.19435e-05
-4.07838e-05
-1.91083e-05
-3.4696e-05
-3.00673e-05
-1.85138e-05
-3.82685e-05
-9.27818e-06
-4.54234e-05
1.54356e-05
-3.6563e-05
2.86636e-05
-4.14946e-05
4.21737e-05
-3.99467e-05
2.97654e-05
-5.58785e-05
3.88327e-05
-3.29508e-05
-1.2844e-05
-8.53944e-06
-2.027e-05
-4.19539e-06
-6.60404e-06
8.80704e-07
-1.248e-05
1.25999e-05
-2.13176e-05
2.14818e-05
-1.21255e-05
2.59169e-05
-1.01255e-05
3.37082e-05
-1.0067e-05
4.00634e-05
-1.16092e-05
-1.14452e-05
4.45214e-05
-1.33126e-05
-2.01477e-05
-1.92431e-05
-2.64654e-05
-1.75122e-05
-4.89464e-05
-1.39654e-05
-5.14868e-05
-1.66214e-05
-3.81278e-05
-3.06333e-05
-2.06841e-05
-4.42878e-05
-4.85939e-06
-5.06479e-05
-2.91807e-06
-4.73444e-05
1.21321e-05
-5.25094e-05
3.38286e-05
-4.76628e-05
3.73271e-05
-5.44595e-05
3.65621e-05
-2.81678e-05
1.25411e-05
-3.60931e-05
-4.91865e-06
-3.23457e-05
-2.40175e-05
-1.76658e-05
-2.12839e-05
-2.65316e-05
-3.6142e-06
-2.05442e-05
-2.73051e-05
-6.92651e-06
-2.57432e-05
-7.78765e-06
-9.26438e-06
-8.73765e-06
-9.11698e-06
-8.50819e-06
-1.18387e-05
-2.16541e-05
1.70069e-06
-6.70643e-06
-1.34413e-05
-1.18456e-05
-2.13262e-05
-8.53719e-06
-5.22548e-05
-6.16309e-06
-5.38609e-05
-6.1044e-06
-3.81865e-05
-1.06071e-05
-1.61814e-05
-1.72786e-05
1.81208e-06
-2.38197e-05
3.62309e-06
-2.61222e-05
1.44346e-05
-1.88774e-05
2.65838e-05
-2.3146e-05
4.15956e-05
-9.64181e-06
2.30579e-05
1.04112e-06
1.85813e-06
-2.83262e-06
-1.04492e-06
3.62979e-07
-2.72131e-05
-1.09016e-05
-1.00194e-05
-1.4898e-05
3.82249e-07
-3.81563e-05
-4.04686e-06
-4.87003e-05
-1.51992e-05
-4.5881e-05
-1.20836e-05
-3.16555e-05
-2.33425e-05
-1.26966e-05
-3.07975e-05
-2.16738e-06
-3.21834e-05
-1.6154e-06
-1.18259e-05
-4.06538e-06
-1.88762e-05
-5.56363e-07
-5.57638e-05
3.70283e-07
-5.47876e-05
-2.43496e-06
-3.53813e-05
-6.33277e-06
-1.22836e-05
-1.11831e-05
6.66241e-06
-2.07514e-05
1.31914e-05
-2.58932e-05
1.95764e-05
-1.9908e-05
2.05986e-05
-2.83247e-06
2.45201e-05
2.69273e-06
1.75327e-05
6.64729e-06
-2.09643e-06
1.03435e-05
-4.74115e-06
1.89812e-06
-1.87677e-05
8.00692e-08
-8.20131e-06
1.67571e-06
-1.21339e-06
-5.81445e-06
3.44331e-06
-1.74795e-05
-3.53408e-06
-2.32762e-05
-6.28693e-06
-3.1151e-05
-1.54677e-05
-3.9699e-05
-2.22494e-05
-8.1303e-06
-3.37361e-05
-1.57468e-06
-1.02512e-05
-2.51022e-06
-1.79407e-05
3.43796e-06
-6.1712e-05
6.55169e-06
-5.79013e-05
2.12842e-06
-3.0958e-05
-2.34692e-06
-7.80823e-06
-6.70033e-06
1.10158e-05
-8.57587e-06
1.50669e-05
-4.20968e-06
1.52102e-05
-2.20175e-06
1.85906e-05
-4.08876e-06
2.64071e-05
2.97612e-07
1.31463e-05
-9.77114e-07
-8.21709e-07
-4.13678e-06
-1.58148e-06
-7.84704e-06
-1.50575e-05
-1.16842e-05
-4.36414e-06
-9.65528e-06
-3.24233e-06
-5.14043e-06
-1.07154e-06
1.5256e-07
-8.82706e-06
3.75116e-06
-9.88549e-06
3.07276e-06
-1.47892e-05
2.33554e-06
-2.15121e-05
-2.66288e-05
2.08341e-05
-1.45901e-06
-8.7922e-06
-1.53129e-06
-1.78684e-05
6.44801e-06
-6.96913e-05
9.07178e-06
-6.05251e-05
3.64128e-06
-2.55275e-05
-1.02372e-06
-3.14324e-06
-3.87028e-06
1.38624e-05
-2.36347e-06
1.35601e-05
-2.62588e-06
1.54726e-05
-3.37785e-06
1.93426e-05
3.55794e-06
1.94713e-05
3.62456e-06
1.30797e-05
2.23696e-06
5.65882e-07
7.94488e-07
-1.39011e-07
-4.85984e-06
-9.40314e-06
-8.65068e-06
-5.73303e-07
-7.67115e-06
-4.22187e-06
-7.00144e-06
-1.74125e-06
-1.1785e-05
-4.04353e-06
-8.82296e-06
-1.28475e-05
-5.14938e-06
-1.84627e-05
3.18805e-06
-2.98495e-05
-4.23294e-05
1.88887e-05
-1.16477e-06
-7.62742e-06
-3.98429e-07
-1.86347e-05
8.63168e-06
-7.87214e-05
1.06725e-05
-6.25659e-05
3.07053e-06
-1.79256e-05
-1.10051e-06
1.02779e-06
-2.00605e-07
1.29624e-05
-2.71342e-07
1.36308e-05
-5.24321e-06
2.04444e-05
1.95129e-06
1.21481e-05
3.57914e-06
1.78434e-05
5.78573e-06
1.08731e-05
6.11928e-06
2.32328e-07
4.21893e-06
1.76133e-06
-1.71737e-06
-3.46684e-06
-3.48225e-06
1.19157e-06
-3.25481e-06
-4.44932e-06
-5.67878e-06
6.82719e-07
-3.25554e-06
-6.46677e-06
-7.50094e-06
-8.60207e-06
-1.73379e-05
-8.62577e-06
-3.70306e-05
-1.01567e-05
-3.47557e-05
-4.46043e-05
-3.16119e-07
-7.3113e-06
1.05644e-06
-2.00073e-05
8.74642e-06
-8.64113e-05
9.06397e-06
-6.28834e-05
-9.82513e-07
-7.87908e-06
-2.98276e-06
3.02803e-06
-1.38088e-06
1.13606e-05
1.52117e-06
1.07287e-05
3.28256e-06
1.8683e-05
4.71593e-06
1.07147e-05
1.04603e-05
1.20991e-05
7.95773e-06
1.33757e-05
6.61183e-06
1.57823e-06
7.84934e-06
5.23819e-07
3.27484e-06
1.10767e-06
2.33126e-06
2.13515e-06
-2.89047e-06
7.72408e-07
-4.30173e-06
2.09397e-06
-5.59723e-06
-5.17129e-06
-1.23639e-05
-1.8354e-06
-1.78307e-05
-3.15893e-06
-1.1417e-05
-1.65704e-05
-3.27254e-05
-1.34473e-05
1.59747e-06
-8.90877e-06
2.58673e-06
-2.09965e-05
8.28356e-06
-9.21082e-05
4.091e-06
-5.86909e-05
-6.71529e-06
2.9272e-06
-6.79646e-06
3.1092e-06
-3.10074e-06
7.66483e-06
1.77496e-06
5.85302e-06
3.82495e-06
1.6633e-05
1.4171e-05
3.68619e-07
6.2191e-06
2.0051e-05
1.54662e-05
4.12863e-06
1.20133e-05
5.03114e-06
1.88638e-05
-6.3267e-06
8.49545e-06
1.1476e-05
3.29706e-06
7.33354e-06
-2.64078e-07
4.33355e-06
5.95512e-07
1.23438e-06
1.13064e-07
-4.68885e-06
-2.55663e-06
8.3429e-07
-5.49771e-06
-2.1785e-07
-1.72967e-05
-4.77138e-06
-1.99299e-05
-3.00922e-05
1.35573e-06
-1.02645e-05
3.23577e-06
-2.28766e-05
5.9365e-06
-9.48089e-05
-3.13002e-06
-4.96244e-05
-1.12061e-05
1.10032e-05
-9.4989e-06
1.40205e-06
-3.70685e-06
1.87277e-06
-9.88215e-07
3.13437e-06
9.70621e-06
5.9386e-06
1.02973e-05
-2.22473e-07
1.99627e-05
1.03855e-05
2.18086e-05
2.28273e-06
2.36694e-05
3.17035e-06
1.83196e-05
-9.76886e-07
1.44283e-05
1.53673e-05
1.06849e-05
1.10769e-05
9.26728e-06
5.7512e-06
1.10972e-05
-5.95527e-07
3.73839e-06
2.66995e-06
1.81354e-06
2.75914e-06
-1.02306e-05
1.18263e-05
-1.50694e-05
6.74086e-08
2.04616e-06
-3.70454e-05
2.61004e-07
-1.05255e-05
4.60131e-06
-2.72169e-05
4.55107e-06
-9.47587e-05
-4.89506e-06
-4.01782e-05
-9.72763e-06
1.58358e-05
-5.01691e-06
-3.30868e-06
-3.41162e-07
-2.80298e-06
1.13685e-06
1.65635e-06
7.40002e-06
-3.24583e-07
1.17973e-05
-4.61973e-06
1.99349e-05
2.24788e-06
3.38769e-05
-1.16593e-05
3.47743e-05
2.27295e-06
2.29352e-05
1.08623e-05
1.56105e-05
2.2692e-05
2.41774e-05
2.51005e-06
2.30041e-05
6.92455e-06
2.26881e-05
-2.79507e-07
9.95616e-06
1.54019e-05
3.74636e-06
8.96894e-06
-6.7628e-06
2.23355e-05
-2.66651e-05
1.99697e-05
1.15901e-05
-3.6209e-05
-2.48416e-06
-8.04134e-06
2.83551e-06
-3.25365e-05
1.96647e-06
-9.38896e-05
-6.48718e-06
-3.17246e-05
-4.09359e-06
1.34422e-05
-2.71398e-07
-7.13088e-06
4.07921e-06
-7.1536e-06
7.92408e-06
-2.18852e-06
2.2779e-05
-1.51796e-05
1.84846e-05
-3.25304e-07
3.21174e-05
-1.1385e-05
2.54902e-05
-5.03204e-06
2.66205e-05
1.14259e-06
1.2917e-05
2.45658e-05
3.00643e-05
5.54475e-06
1.97157e-05
1.28587e-05
3.25429e-05
-5.90263e-06
1.25532e-05
1.97102e-05
1.73129e-05
1.06422e-05
4.83897e-07
2.57979e-05
3.17717e-06
1.96422e-05
-7.59788e-07
2.39066e-05
3.30425e-05
-2.22122e-05
-3.49176e-06
-4.54958e-06
2.78516e-06
-3.88134e-05
1.66912e-06
-9.27736e-05
-2.50865e-06
-2.75468e-05
-8.59729e-06
1.95308e-05
-1.64644e-08
-1.57117e-05
3.1841e-06
-1.03542e-05
1.5203e-05
-1.42075e-05
1.27249e-05
-1.27015e-05
2.24795e-05
-1.00799e-05
1.83907e-05
-7.29609e-06
1.77521e-05
-4.39353e-06
1.54917e-05
3.40307e-06
2.78563e-05
1.22012e-05
3.08157e-05
2.5854e-06
1.88918e-05
2.47825e-05
1.42863e-05
-1.29715e-06
1.00745e-05
2.3922e-05
1.1806e-05
8.9107e-06
1.59559e-05
2.16481e-05
1.09911e-05
2.4607e-05
-1.06032e-05
4.55009e-05
3.7635e-05
-1.51956e-05
-5.72757e-06
1.17799e-06
-4.05448e-07
-4.41356e-05
-3.35937e-06
-8.98197e-05
-1.13686e-05
-1.95375e-05
-6.6713e-07
8.82932e-06
3.12706e-06
-1.95059e-05
5.74088e-06
-1.2968e-05
1.16828e-05
-2.01493e-05
1.5932e-05
-1.69507e-05
2.7895e-05
-2.20429e-05
2.31349e-05
-2.53598e-06
2.10902e-05
-2.34889e-06
1.74521e-05
7.04115e-06
2.69674e-05
2.6859e-06
1.99421e-05
9.61068e-06
3.60868e-05
8.63786e-06
2.18255e-05
1.29642e-05
1.79435e-05
2.7804e-05
1.55462e-05
1.13081e-05
7.64474e-06
2.95495e-05
5.87198e-06
2.63798e-05
2.81047e-06
4.85624e-05
5.41355e-05
-1.369e-05
-1.05299e-05
1.17079e-05
-2.2381e-07
-5.44417e-05
-7.42628e-06
-8.26172e-05
-6.28839e-06
-2.06754e-05
-2.00789e-06
4.54882e-06
8.65982e-06
-3.01736e-05
1.20033e-05
-1.63115e-05
1.30285e-05
-2.11745e-05
1.52883e-05
-1.92105e-05
2.03715e-05
-2.71261e-05
2.18665e-05
-4.03097e-06
2.51051e-05
-5.58741e-06
2.66106e-05
5.53563e-06
3.51614e-05
-5.86494e-06
3.54888e-05
9.28328e-06
4.12721e-05
2.85457e-06
2.14312e-05
3.28051e-05
3.62193e-05
1.30159e-05
2.11182e-05
2.64091e-05
2.99419e-05
2.07257e-05
1.42657e-05
4.2056e-05
1.66011e-07
6.26621e-05
4.21614e-05
1.21401e-05
1.00228e-05
1.68513e-06
-5.61513e-06
-3.88037e-05
-3.61407e-06
-8.46183e-05
-6.29293e-06
-1.79966e-05
5.46082e-06
-7.20493e-06
1.10312e-06
-2.58159e-05
5.48079e-07
-1.57565e-05
1.57509e-05
-3.63773e-05
1.42358e-05
-1.76955e-05
1.3603e-05
-2.64933e-05
1.9606e-05
-1.0034e-05
1.88779e-05
-4.85926e-06
2.72146e-05
-2.80105e-06
2.33851e-05
-2.03549e-06
5.11726e-05
-1.85042e-05
3.23844e-05
2.16428e-05
5.49565e-05
1.0233e-05
4.06653e-05
2.73072e-05
4.35437e-05
2.35308e-05
2.27158e-05
4.15536e-05
2.54729e-05
3.92989e-05
3.22699e-05
5.58652e-05
7.78124e-05
-3.38114e-06
9.46835e-06
-7.78321e-06
1.57121e-05
-4.50475e-05
-1.6203e-05
-5.27031e-05
-8.75594e-06
-2.54436e-05
3.41081e-06
-1.93717e-05
6.95536e-06
-2.93605e-05
1.8829e-05
-2.76301e-05
8.42634e-06
-2.59746e-05
1.83938e-05
-2.7663e-05
2.05923e-05
-2.86918e-05
2.29878e-05
-1.24295e-05
2.12026e-05
-3.07399e-06
4.1461e-05
-2.30595e-05
2.85737e-05
1.08518e-05
2.2543e-05
-1.24734e-05
3.531e-05
8.87579e-06
4.5063e-05
4.80052e-07
5.01289e-05
2.22412e-05
3.24008e-05
4.12589e-05
4.0912e-05
3.30425e-05
2.94018e-05
5.08091e-05
2.35237e-05
6.17433e-05
6.30416e-05
3.82946e-05
2.37635e-06
-1.01596e-05
1.53198e-06
-4.42031e-05
-9.1801e-07
-5.02531e-05
-1.34007e-07
-2.62276e-05
6.5547e-06
-2.60604e-05
6.27046e-06
-2.90763e-05
1.23977e-05
-3.37573e-05
1.06155e-05
-2.41925e-05
1.52211e-05
-3.22687e-05
2.95257e-05
-4.29964e-05
2.52941e-05
-8.19791e-06
3.40311e-05
-1.1811e-05
1.82916e-05
-7.31998e-06
2.91354e-05
8.01303e-09
2.54361e-05
-8.77415e-06
3.63527e-05
-2.04077e-06
3.88318e-05
-1.99899e-06
3.71633e-05
2.39097e-05
3.89524e-05
3.94698e-05
4.57013e-05
2.62936e-05
4.09799e-05
5.55305e-05
5.04232e-05
5.23e-05
9.52824e-05
1.81824e-05
3.51567e-06
-1.36752e-05
3.94437e-06
-4.46318e-05
-9.64471e-08
-4.62123e-05
5.67722e-06
-3.20013e-05
5.17667e-06
-2.55598e-05
1.02744e-05
-3.41739e-05
9.03124e-06
-3.25142e-05
2.65846e-05
-4.17458e-05
3.10751e-05
-3.67592e-05
1.30523e-05
-2.49735e-05
1.99962e-05
-1.51418e-05
2.50257e-05
-1.68405e-05
2.78158e-05
-1.011e-05
4.6094e-05
-1.82702e-05
4.87274e-05
-1.14075e-05
5.77218e-05
-1.10351e-05
4.49148e-05
1.0808e-05
4.06957e-05
2.81289e-05
7.51009e-05
5.06452e-06
4.63051e-05
5.50895e-05
5.9134e-05
4.27016e-05
5.38789e-05
5.75551e-05
6.29373e-05
8.62241e-05
-1.64095e-06
-1.20343e-05
2.8604e-07
-4.65588e-05
-4.19202e-07
-4.55071e-05
1.81189e-07
-3.26017e-05
1.20276e-05
-3.74062e-05
9.58568e-06
-3.1732e-05
2.89788e-05
-5.19074e-05
1.71729e-05
-2.99399e-05
2.74986e-05
-4.70849e-05
1.98523e-05
-1.73273e-05
3.18394e-05
-2.71289e-05
2.63585e-05
-1.13596e-05
2.9267e-05
-1.30185e-05
4.11117e-05
-3.01149e-05
3.45095e-05
-4.80532e-06
4.97357e-05
-2.62613e-05
5.48385e-05
5.70518e-06
8.98581e-05
-6.89064e-06
0.000104819
-9.89653e-06
0.000117925
4.19839e-05
0.000122431
3.81954e-05
9.66748e-05
8.33115e-05
9.47193e-05
6.48928e-05
2.17515e-06
-1.42094e-05
-1.23639e-06
-4.31472e-05
-3.25562e-06
-4.34878e-05
1.15341e-05
-4.73914e-05
9.78719e-06
-3.56594e-05
2.6627e-05
-4.85719e-05
1.67763e-05
-4.20566e-05
2.17944e-05
-3.49581e-05
2.74794e-05
-5.27699e-05
2.0988e-05
-1.08359e-05
2.4664e-05
-3.08049e-05
2.58344e-05
-1.25299e-05
4.07121e-05
-2.78963e-05
3.6546e-05
-2.59486e-05
7.05228e-05
-3.87821e-05
5.17335e-05
-7.47202e-06
9.0189e-05
-3.27503e-05
9.19842e-05
-8.68579e-06
7.43249e-05
7.7628e-06
8.33059e-05
3.30029e-05
9.11052e-05
3.03961e-05
8.88701e-05
8.55465e-05
3.27305e-05
0.000150859
-1.53175e-05
1.10813e-06
2.94981e-06
-6.14146e-05
2.28644e-05
-6.34024e-05
2.1013e-05
-4.554e-05
2.0526e-05
-3.51723e-05
1.61541e-05
-4.42e-05
3.43174e-05
-6.02199e-05
2.64891e-05
-2.71298e-05
7.75255e-06
-3.40333e-05
2.09416e-05
-2.40249e-05
2.19016e-05
-3.17648e-05
3.84061e-05
-2.90344e-05
5.02706e-05
-3.97608e-05
4.79654e-05
-2.36434e-05
8.21237e-05
-7.29404e-05
8.5923e-05
-1.12712e-05
9.79342e-05
-4.47615e-05
9.70862e-05
-7.83779e-06
7.80971e-05
2.6752e-05
9.74816e-05
1.36183e-05
0.00011139
1.64879e-05
0.00017106
2.58769e-05
5.72426e-05
0.000146547
-3.38426e-06
4.49239e-06
2.03101e-06
-6.68298e-05
5.06816e-07
-6.18782e-05
5.12875e-06
-5.01619e-05
1.27889e-05
-4.28325e-05
2.55239e-05
-5.6935e-05
5.42635e-06
-4.01224e-05
1.23296e-05
-3.4033e-05
1.59749e-05
-3.76786e-05
2.64608e-05
-3.45109e-05
2.49828e-05
-3.02867e-05
3.63942e-05
-4.04458e-05
3.09455e-05
-3.43121e-05
7.44317e-05
-6.71295e-05
5.61439e-05
-5.46526e-05
9.8386e-05
-5.35133e-05
7.04203e-05
-1.67958e-05
8.44962e-05
-2.19136e-05
0.000118169
-6.92061e-06
0.000191263
-5.94757e-05
0.000189061
1.86896e-05
0.000182115
3.28229e-05
3.41985e-05
0.000205159
8.22496e-06
-3.73257e-06
2.20741e-05
-8.06789e-05
2.83732e-05
-6.81773e-05
1.81343e-05
-3.99231e-05
1.68126e-05
-4.15107e-05
4.30567e-06
-4.44281e-05
1.03702e-05
-4.61869e-05
1.83324e-05
-4.19952e-05
2.23622e-05
-4.17084e-05
2.91646e-05
-4.13132e-05
3.43463e-05
-3.54684e-05
4.07581e-05
-4.68576e-05
3.7704e-05
-3.1258e-05
5.14929e-05
-8.09183e-05
5.69988e-05
-6.01585e-05
9.01687e-05
-8.66833e-05
8.68335e-05
-1.34605e-05
0.000130393
-6.54728e-05
0.00015564
-3.21678e-05
0.000122818
-2.66537e-05
0.000135129
6.37824e-06
0.000199565
-3.16129e-05
2.54848e-05
0.000208279
2.90668e-05
-3.27994e-05
3.73619e-06
-5.53483e-05
-1.17797e-05
-5.26614e-05
-7.84595e-08
-5.16243e-05
8.64469e-06
-5.02339e-05
1.2798e-05
-4.85814e-05
1.39393e-05
-4.73282e-05
1.88877e-05
-4.69437e-05
1.90771e-05
-4.18977e-05
2.84265e-05
-5.06627e-05
3.26892e-05
-3.97311e-05
3.08329e-05
-4.50012e-05
4.0259e-05
-4.06842e-05
4.3671e-05
-8.43303e-05
5.3912e-05
-7.03995e-05
6.57477e-05
-9.8519e-05
7.97135e-05
-2.74263e-05
0.00011695
-0.000102709
0.000107837
-2.30546e-05
0.000134774
-5.35908e-05
0.000208218
-6.70665e-05
0.000221703
-4.50978e-05
5.8413e-07
0.000246604
1.01078e-05
-4.29072e-05
7.9481e-06
-5.31886e-05
1.1901e-05
-5.66143e-05
1.32482e-05
-5.29715e-05
1.47482e-05
-5.17339e-05
1.62251e-05
-5.00582e-05
1.92859e-05
-5.0389e-05
2.28536e-05
-5.05114e-05
2.8446e-05
-4.74901e-05
3.08729e-05
-5.30896e-05
3.56983e-05
-4.45565e-05
3.48365e-05
-4.41395e-05
4.1191e-05
-4.70386e-05
4.48368e-05
-8.79761e-05
7.07785e-05
-9.63412e-05
6.00347e-05
-8.77752e-05
0.000134125
-0.000101517
8.90297e-05
-5.76134e-05
0.000168981
-0.000103006
0.000192729
-7.73389e-05
0.000183335
-5.76721e-05
0.000166203
-2.79656e-05
-9.0045e-06
0.000175791
4.82661e-06
-4.77338e-05
5.62435e-06
-5.39863e-05
5.11248e-06
-5.61024e-05
6.56329e-06
-5.44223e-05
8.64008e-06
-5.38107e-05
1.45714e-05
-5.59895e-05
1.83842e-05
-5.42018e-05
2.16271e-05
-5.37542e-05
2.84925e-05
-5.43555e-05
2.70926e-05
-5.16896e-05
4.06732e-05
-5.81371e-05
5.09282e-05
-5.43944e-05
4.34929e-05
-3.96032e-05
7.45316e-05
-0.000119015
8.08961e-05
-0.000102706
9.32744e-05
-0.000100153
0.000111194
-0.000119437
9.8989e-05
-4.54084e-05
0.000162625
-0.000166642
0.000145855
-6.05691e-05
0.000203487
-0.000115303
0.000167937
7.58395e-06
-9.22589e-06
0.000168158
4.55195e-06
-5.22857e-05
7.98391e-06
-5.74182e-05
1.04753e-05
-5.85938e-05
1.38278e-05
-5.77748e-05
1.67954e-05
-5.67782e-05
1.96003e-05
-5.87944e-05
2.33102e-05
-5.79116e-05
2.75524e-05
-5.79964e-05
3.23265e-05
-5.91296e-05
3.80821e-05
-5.74451e-05
4.60218e-05
-6.60768e-05
5.07627e-05
-5.91352e-05
7.57634e-05
-6.46039e-05
3.44148e-05
-7.76662e-05
5.59343e-05
-0.000124225
7.96012e-05
-0.00012382
7.48079e-05
-0.000114643
0.000150459
-0.000121059
8.5595e-05
-0.000101778
0.000127449
-0.000102423
9.59785e-05
-8.38326e-05
0.000185976
-8.24139e-05
6.8105e-06
0.00016994
2.86026e-06
-5.5146e-05
4.99818e-06
-5.95561e-05
5.91291e-06
-5.95085e-05
8.24602e-06
-6.01079e-05
1.33614e-05
-6.18936e-05
1.59793e-05
-6.14123e-05
1.95762e-05
-6.15085e-05
2.35164e-05
-6.19366e-05
2.62452e-05
-6.18583e-05
3.17108e-05
-6.29108e-05
2.91217e-05
-6.34877e-05
3.64203e-05
-6.64338e-05
5.18154e-05
-7.99991e-05
5.26496e-05
-7.85004e-05
5.54525e-05
-0.000127028
5.40722e-05
-0.00012244
6.04524e-05
-0.000121024
9.37978e-05
-0.000154405
0.000106463
-0.000114444
0.000115885
-0.000111845
0.000112658
-8.06053e-05
0.000209501
-0.000179257
-1.25426e-05
0.000228854
3.60273e-06
-5.87487e-05
6.63673e-06
-6.25901e-05
9.54198e-06
-6.24138e-05
1.25607e-05
-6.31267e-05
1.50832e-05
-6.44161e-05
1.83066e-05
-6.46357e-05
2.17738e-05
-6.49757e-05
2.58907e-05
-6.60535e-05
3.03179e-05
-6.62855e-05
3.57761e-05
-6.8369e-05
4.07774e-05
-6.84889e-05
4.75652e-05
-7.32217e-05
4.7703e-05
-8.01369e-05
4.84625e-05
-7.92599e-05
5.03933e-05
-0.000128959
5.23523e-05
-0.000124399
7.65768e-05
-0.000145248
8.35425e-05
-0.00016137
6.02675e-05
-9.1169e-05
0.000132025
-0.000183602
0.000198938
-0.000147519
0.000126332
-0.000106652
-6.64664e-05
0.000180256
2.90791e-06
-6.16566e-05
5.35288e-06
-6.50351e-05
8.26583e-06
-6.53267e-05
1.11557e-05
-6.60165e-05
1.33344e-05
-6.65948e-05
1.62698e-05
-6.75711e-05
1.94131e-05
-6.81189e-05
2.30004e-05
-6.96408e-05
2.68497e-05
-7.01348e-05
3.11424e-05
-7.26617e-05
3.65326e-05
-7.38792e-05
4.07177e-05
-7.74067e-05
4.12906e-05
-8.07098e-05
4.36933e-05
-8.16627e-05
4.67157e-05
-0.000131981
4.79762e-05
-0.00012566
5.30932e-05
-0.000150365
6.70045e-05
-0.000175282
0.000146793
-0.000170957
7.57425e-05
-0.000112552
0.000126551
-0.000198327
0.000134636
-0.000114736
-3.38557e-05
0.000102025
2.76759e-06
-6.44242e-05
5.1008e-06
-6.73683e-05
7.40995e-06
-6.76358e-05
9.72214e-06
-6.83287e-05
1.20236e-05
-6.88963e-05
1.4423e-05
-6.99704e-05
1.68488e-05
-7.05448e-05
1.94059e-05
-7.21979e-05
2.2304e-05
-7.30329e-05
2.55042e-05
-7.58619e-05
2.86232e-05
-7.69982e-05
3.22522e-05
-8.10357e-05
3.43281e-05
-8.27857e-05
3.36728e-05
-8.10075e-05
4.91343e-05
-0.000147443
6.84773e-05
-0.000145003
8.68362e-05
-0.000168724
0.000103021
-0.000191466
0.000119984
-0.000187921
0.000111792
-0.00010436
9.83082e-05
-0.000184844
8.63674e-05
-0.000102796
5.04464e-06
4.7467e-05
2.20534e-06
-6.66295e-05
4.08936e-06
-6.92523e-05
6.03523e-06
-6.95817e-05
7.90329e-06
-7.01967e-05
9.75774e-06
-7.07508e-05
1.16771e-05
-7.18898e-05
1.37941e-05
-7.26617e-05
1.60451e-05
-7.44489e-05
1.85119e-05
-7.54996e-05
2.08536e-05
-7.82036e-05
2.36922e-05
-7.98368e-05
2.75079e-05
-8.48514e-05
2.96299e-05
-8.49077e-05
3.30804e-05
-8.4458e-05
3.8294e-05
-0.000152657
4.63222e-05
-0.000153031
4.24906e-05
-0.000164893
4.84105e-05
-0.000197386
7.17976e-05
-0.000211308
8.53534e-05
-0.000117916
2.24939e-06
-0.00010174
-4.92809e-05
-5.12654e-05
3.15358e-05
-7.5772e-05
1.9116e-06
-6.85411e-05
3.44984e-06
-7.07905e-05
4.98618e-06
-7.1118e-05
6.49529e-06
-7.17058e-05
8.0533e-06
-7.23088e-05
9.5612e-06
-7.33977e-05
1.11564e-05
-7.42569e-05
1.25531e-05
-7.58456e-05
1.40996e-05
-7.70461e-05
1.48011e-05
-7.89051e-05
1.66087e-05
-8.16444e-05
1.53348e-05
-8.35775e-05
1.60186e-05
-8.55916e-05
1.38623e-05
-8.23016e-05
1.50733e-05
-0.000153868
1.73136e-05
-0.000155271
2.80647e-05
-0.000175644
3.71671e-05
-0.000206489
4.77786e-05
-0.000221919
3.52376e-05
-0.000105375
1.22621e-05
-7.87645e-05
-2.53083e-05
-1.36951e-05