/*--------------------------------*- C++ -*----------------------------------*\
| =========                 |                                                 |
| \\      /  F ield         | foam-extend: Open Source CFD                    |
|  \\    /   O peration     | Version:     4.1                                |
|   \\  /    A nd           | Web:         http://www.foam-extend.org         |
|    \\/     M anipulation  |                                                 |
\*---------------------------------------------------------------------------*/
FoamFile
{
    version     2.0;
    format      ascii;
    class       volVectorField;
    location    "0.5";
    object      U;
}
// * * * * * * * * * * * * * * * * * * * * * * * * * * * * * * * * * * * * * //

dimensions      [0 1 -1 0 0 0 0];

internalField   nonuniform List<vector> 
2268
(
(0.0438691 -0.0059796 0)
(0.0514029 -0.00328955 0)
(0.100253 -0.0064224 0)
(0.15891 -0.00531797 0)
(0.183844 -0.00175354 0)
(0.238309 -0.00535906 0)
(0.242769 -0.00130994 0)
(0.276113 0.000355007 0)
(0.259164 0.00562688 0)
(0.266577 -0.018039 0)
(0.225807 -0.0226541 0)
(0.191354 0.00247948 0)
(0.222847 0.00325168 0)
(0.214566 0.00418139 0)
(0.21495 0.00518159 0)
(0.208832 0.000961049 0)
(0.203241 0.00485032 0)
(0.195475 0.00459386 0)
(0.186174 0.000485469 0)
(0.171561 0.00705816 0)
(0.135618 0.014815 0)
(0.0925937 0.00680509 0)
(0.0419658 0.0188048 0)
(0.0420655 -0.0165477 0)
(0.0522493 -0.00992577 0)
(0.107331 -0.0192328 0)
(0.158988 -0.0140379 0)
(0.184102 -0.0175407 0)
(0.239915 -0.00806367 0)
(0.246512 -0.00833607 0)
(0.283516 -0.00455777 0)
(0.258873 -0.00221584 0)
(0.284561 0.0322292 0)
(0.20868 -0.0584265 0)
(0.173112 -0.00484159 0)
(0.201402 -0.00904432 0)
(0.191928 -0.000859556 0)
(0.194747 0.000721267 0)
(0.193438 0.00391107 0)
(0.190354 0.00460161 0)
(0.182853 0.0118778 0)
(0.17857 0.0110126 0)
(0.166912 0.0166986 0)
(0.133391 0.0227644 0)
(0.0930307 0.0376347 0)
(0.0239173 0.0452187 0)
(0.0364664 -0.0283176 0)
(0.0508308 -0.0186437 0)
(0.115699 -0.0318497 0)
(0.153265 -0.0229557 0)
(0.180434 -0.0212833 0)
(0.240591 -0.0198032 0)
(0.248331 -0.0116305 0)
(0.282032 -0.00232667 0)
(0.284143 0.00927415 0)
(0.261166 -0.0191397 0)
(0.197223 -0.0680871 0)
(0.180456 -0.0112076 0)
(0.186048 -0.0118463 0)
(0.176273 0.00290848 0)
(0.175317 0.000173548 0)
(0.173711 0.00754964 0)
(0.170905 0.00538572 0)
(0.168672 0.0140311 0)
(0.166277 0.0277834 0)
(0.158218 0.0297256 0)
(0.133789 0.0476736 0)
(0.10321 0.0590792 0)
(0.0465594 0.0725328 0)
(0.029348 -0.0371189 0)
(0.050227 -0.0285598 0)
(0.122525 -0.0436907 0)
(0.149079 -0.0290547 0)
(0.188798 -0.0387869 0)
(0.242037 -0.0232828 0)
(0.251019 -0.0196261 0)
(0.291891 -0.014414 0)
(0.235975 0.000521835 0)
(0.190778 -0.0445934 0)
(0.180449 -0.031964 0)
(0.133139 0.00920703 0)
(0.131104 0.00509487 0)
(0.110396 0.01022 0)
(0.105378 0.00526959 0)
(0.106441 0.00866573 0)
(0.10627 0.00634476 0)
(0.110983 0.0146959 0)
(0.113261 0.0196673 0)
(0.123201 0.0322966 0)
(0.115139 0.0497985 0)
(0.104488 0.079205 0)
(0.0348346 0.11638 0)
(0.0228881 -0.047204 0)
(0.0510271 -0.0406721 0)
(0.12482 -0.0553137 0)
(0.152447 -0.0381499 0)
(0.198017 -0.0440368 0)
(0.229473 -0.0350967 0)
(0.240854 -0.0217994 0)
(0.287861 0.00309785 0)
(0.207351 -0.0652246 0)
(0.172263 -0.0101453 0)
(0.143576 -0.0264902 0)
(0.111277 0.00767596 0)
(0.107498 0.0038627 0)
(0.0922509 0.00808608 0)
(0.0846497 0.0031466 0)
(0.0667668 -0.000134489 0)
(0.0650205 0.00215246 0)
(0.0640912 0.00762402 0)
(0.056403 0.0165589 0)
(0.0736055 0.0289946 0)
(0.0712668 0.0548375 0)
(0.088484 0.0965489 0)
(0.054612 0.137251 0)
(0.0231603 -0.0544259 0)
(0.0587976 -0.0525358 0)
(0.130464 -0.0677727 0)
(0.153687 -0.0464948 0)
(0.191146 -0.0575019 0)
(0.224843 -0.0314162 0)
(0.258773 -0.0383837 0)
(0.21754 -0.00822975 0)
(0.164024 -0.0536328 0)
(0.159791 -0.0110159 0)
(0.131786 -0.00587962 0)
(0.0899902 0.0249806 0)
(0.0837941 0.0239121 0)
(0.0634481 0.0200765 0)
(0.0517778 0.0131379 0)
(0.0496825 0.0173214 0)
(0.0432049 0.00721747 0)
(0.0403204 0.0232864 0)
(0.0391212 0.0103394 0)
(0.0516336 0.0260309 0)
(0.0364227 0.0439382 0)
(0.0774508 0.0901345 0)
(0.0470664 0.186433 0)
(0.0289066 -0.0667471 0)
(0.0654684 -0.0661585 0)
(0.128298 -0.0777304 0)
(0.146161 -0.0522994 0)
(0.191875 -0.0612229 0)
(0.222853 -0.054392 0)
(0.229331 -0.013304 0)
(0.193566 -0.0628439 0)
(0.155112 -0.0436803 0)
(0.150925 0.00340901 0)
(0.117438 0.00924487 0)
(0.0813549 0.0299594 0)
(0.0764955 0.0293467 0)
(0.0579793 0.0238979 0)
(0.0528341 0.00876498 0)
(0.0358169 0.00633482 0)
(0.0390353 0.0064622 0)
(0.0347832 0.0128307 0)
(0.0321217 0.0048818 0)
(0.0456267 0.0297292 0)
(0.0316118 0.042472 0)
(0.0868436 0.0921293 0)
(0.0700287 0.193754 0)
(0.0364593 -0.076246 0)
(0.0656983 -0.075724 0)
(0.131048 -0.0864596 0)
(0.147607 -0.0621656 0)
(0.189496 -0.0778295 0)
(0.22987 -0.0344649 0)
(0.192021 -0.0427175 0)
(0.172521 -0.0636298 0)
(0.164538 -0.0347616 0)
(0.14243 0.0104568 0)
(0.120107 0.0272447 0)
(0.0823172 0.042444 0)
(0.0728841 0.0483124 0)
(0.0457551 0.0302474 0)
(0.0338345 0.0249622 0)
(0.0402867 0.021901 0)
(0.0424762 0.00679286 0)
(0.038417 0.00861806 0)
(0.0505446 -0.000681743 0)
(0.0543136 0.0275767 0)
(0.0464599 0.0250861 0)
(0.089754 0.110236 0)
(0.0771916 0.23223 0)
(-0.0246203 -0.083371 0)
(0.0272685 0.0154806 0)
(0.102566 -0.0161103 0)
(-0.206001 0.0779703 0)
(-1.63022 0.0539748 0)
(-2.09223 -0.0481795 0)
(-2.26897 -0.0651687 0)
(-2.30537 -0.0570852 0)
(-2.20123 -0.0653902 0)
(-2.11457 -0.0682627 0)
(-2.06787 -0.0721482 0)
(-1.96788 -0.117146 0)
(-1.88539 -0.115818 0)
(-1.78563 -0.0938137 0)
(-1.73024 -0.270623 0)
(-1.67415 -0.0419719 0)
(-0.678542 -0.198568 0)
(-0.288346 -0.368652 0)
(0.0299719 -0.124781 0)
(-1.56779 0.288264 0)
(-0.599555 -0.206688 0)
(0.2187 0.12813 0)
(-0.310608 0.612392 0)
(-1.53456 0.560135 0)
(-1.96012 0.443364 0)
(-2.10556 0.288265 0)
(-2.05843 0.105044 0)
(-1.84765 0.0409917 0)
(-1.78716 -0.009277 0)
(-1.70365 -0.0619545 0)
(-1.57323 -0.124372 0)
(-1.50342 -0.126662 0)
(-1.49527 -0.184088 0)
(-1.39934 -0.344595 0)
(-1.39969 -0.177333 0)
(-0.954965 -0.0410295 0)
(-0.352993 -0.192744 0)
(-0.0173359 -0.0826829 0)
(-0.455883 0.506494 0)
(0.0748845 -0.561225 0)
(0.491666 -0.106258 0)
(0.148075 1.72566 0)
(-1.33616 0.886362 0)
(-1.7592 0.71646 0)
(-2.0768 -0.149606 0)
(-2.8275 -0.184199 0)
(-2.05539 -0.0870908 0)
(-1.77989 -0.108658 0)
(-1.77509 -0.283947 0)
(-1.50569 -0.113673 0)
(-1.35723 -0.324732 0)
(-1.4949 -0.53334 0)
(-1.259 -0.360157 0)
(-1.02577 -0.514345 0)
(-0.698491 -0.269958 0)
(-0.36634 -0.263923 0)
(-0.0680148 -0.174964 0)
(-0.265149 0.591418 0)
(0.203588 -0.627045 0)
(0.16128 -0.135374 0)
(1.65297 1.71835 0)
(-1.22091 1.39476 0)
(-1.56897 1.06442 0)
(-1.9869 0.0539866 0)
(-2.28831 0.131283 0)
(-1.68969 0.217818 0)
(-1.61153 -0.3516 0)
(-1.46593 -0.465526 0)
(-1.37726 0.264078 0)
(-0.821876 -0.225474 0)
(-1.62403 -0.593714 0)
(-1.30724 -0.260127 0)
(-0.921759 -0.418585 0)
(-0.60034 -0.373129 0)
(-0.3828 -0.428144 0)
(-0.0586474 -0.259859 0)
(1.20637 0.686202 0)
(0.292796 -0.650427 0)
(0.220155 -0.279159 0)
(1.42302 0.936958 0)
(-0.784501 1.76502 0)
(-1.51739 0.995946 0)
(-2.13015 0.238015 0)
(-2.1908 0.177578 0)
(-1.74178 -0.206525 0)
(-1.76404 -0.380267 0)
(-1.0589 -0.232245 0)
(-0.760624 -0.275563 0)
(-0.608636 -0.436755 0)
(-1.7661 -0.431393 0)
(-1.21563 -0.248432 0)
(-0.828407 -0.273054 0)
(-0.519076 -0.518976 0)
(-0.314165 -0.482097 0)
(-0.144983 -0.373216 0)
(0.333973 0.230636 0)
(0.400973 -0.485765 0)
(0.352889 -0.328227 0)
(1.22291 0.78908 0)
(-0.272392 2.30423 0)
(-1.01513 0.629799 0)
(-1.72659 0.316876 0)
(-1.79204 0.14677 0)
(-1.59416 0.0333856 0)
(-2.12857 -0.373609 0)
(-0.536369 -0.553884 0)
(-0.141163 -0.120058 0)
(-0.473674 -0.319343 0)
(-2.04252 -0.530986 0)
(-1.47183 -0.330274 0)
(-0.707183 -0.446936 0)
(-0.385062 -0.588645 0)
(-0.295754 -0.609517 0)
(-0.148996 -0.437036 0)
(0.201231 -0.106649 0)
(0.470194 -0.434147 0)
(0.405453 -0.38137 0)
(0.984641 0.764217 0)
(1.35926 3.35268 0)
(1.01022 1.50495 0)
(-0.635889 0.120915 0)
(-1.15178 0.0975854 0)
(-0.764709 -0.194258 0)
(-0.906125 -0.230543 0)
(-0.449846 -0.987174 0)
(-0.0950927 -0.209472 0)
(-0.768679 -0.126054 0)
(-1.57042 -0.479612 0)
(-2.2094 -0.0807678 0)
(-0.715207 -0.639328 0)
(-0.250361 -0.717425 0)
(-0.205563 -0.65781 0)
(-0.122006 -0.473081 0)
(0.25266 -0.279313 0)
(0.512271 -0.314438 0)
(0.431042 -0.477504 0)
(0.449905 0.0307452 0)
(2.02805 2.6662 0)
(5.55009 2.13092 0)
(4.5241 1.07725 0)
(2.66231 0.512027 0)
(2.06082 0.026035 0)
(2.48779 -0.452052 0)
(2.20528 -0.666272 0)
(0.658186 -0.0985372 0)
(0.268361 0.217169 0)
(0.216151 -0.204949 0)
(-1.78311 -0.246392 0)
(-0.60584 -0.694246 0)
(-0.17722 -0.827943 0)
(-0.165224 -0.718575 0)
(-0.0820434 -0.501313 0)
(0.0377757 -0.0992982 0)
(0.0635167 -0.0962069 0)
(0.129002 -0.104162 0)
(0.136228 -0.0691571 0)
(0.201916 -0.082249 0)
(0.183585 -0.0793941 0)
(0.168698 -0.0907787 0)
(0.189392 -0.0590617 0)
(0.165624 -0.0275817 0)
(0.143743 0.0233962 0)
(0.122195 0.0441683 0)
(0.101605 0.0572601 0)
(0.0750895 0.0710087 0)
(0.0400595 0.0502185 0)
(0.051003 0.0535488 0)
(0.0339635 0.0362668 0)
(0.0346747 0.00726651 0)
(0.0412022 0.0106992 0)
(0.0609208 -0.017102 0)
(0.0565813 0.0351368 0)
(0.0895958 0.0245583 0)
(0.189701 0.122966 0)
(0.159792 0.228471 0)
(0.0405625 -0.118559 0)
(0.0551375 -0.114992 0)
(0.14615 -0.11721 0)
(0.148077 -0.0979486 0)
(0.138821 -0.102961 0)
(0.176243 -0.159662 0)
(0.184178 -0.0502476 0)
(0.196599 -0.0542354 0)
(0.188051 0.000483451 0)
(0.158525 0.0463559 0)
(0.122442 0.0631676 0)
(0.0922194 0.0810762 0)
(0.0630609 0.0532272 0)
(0.0618048 0.0439881 0)
(0.0493824 0.0338148 0)
(0.0364202 0.00469387 0)
(0.0608877 0.00516139 0)
(0.0400409 -0.0181817 0)
(0.0793606 -0.00709939 0)
(0.124237 -0.004047 0)
(0.201854 0.0326881 0)
(0.190431 0.0703941 0)
(0.203667 0.0598916 0)
(0.00167444 -0.14696 0)
(0.0240403 -0.150053 0)
(0.0074741 -0.150282 0)
(0.0614475 -0.203704 0)
(0.100222 -0.115508 0)
(0.111439 -0.126291 0)
(0.130585 -0.10795 0)
(0.150675 -0.0667436 0)
(0.136873 0.0170616 0)
(0.094265 0.0892006 0)
(0.0016791 0.112544 0)
(0.00313897 0.119352 0)
(-0.0253412 0.0972241 0)
(-0.00888462 0.0648505 0)
(0.0129741 0.0337211 0)
(0.0307999 0.0267387 0)
(0.0603749 -0.00392164 0)
(0.0862652 -0.0242709 0)
(0.106921 0.000498555 0)
(0.103299 -0.020054 0)
(0.121961 -0.0124273 0)
(0.137182 -0.0630184 0)
(0.162009 -0.0353824 0)
(1.00915e-05 -0.146463 0)
(-0.0506722 -0.122869 0)
(-0.0515517 -0.166032 0)
(-0.0708373 -0.17739 0)
(-0.0394788 -0.158468 0)
(-0.0518382 -0.170158 0)
(-0.0918026 -0.0962028 0)
(-0.133666 -0.0477102 0)
(-0.144426 0.102969 0)
(-0.210622 0.200326 0)
(-0.298633 0.181218 0)
(-0.311396 0.11082 0)
(-0.246146 0.0713563 0)
(-0.161043 0.00627057 0)
(-0.0767101 -0.00531249 0)
(-0.0466755 -0.0446069 0)
(-0.0158781 -0.0491584 0)
(0.0161915 -0.04658 0)
(0.0687124 -0.0255133 0)
(0.078672 -0.0223511 0)
(0.102866 -0.00302508 0)
(0.131593 -0.0128038 0)
(0.150218 -0.00913572 0)
(-0.0290101 -0.0911178 0)
(-0.0676879 -0.108942 0)
(-0.0724022 -0.169108 0)
(-0.0555347 -0.169611 0)
(-0.0457724 -0.134734 0)
(-0.0803647 -0.0804756 0)
(-0.142765 -0.0322699 0)
(-0.185544 -0.0124849 0)
(-0.171133 0.0404575 0)
(-0.183389 0.199911 0)
(-0.190569 0.387822 0)
(-0.164204 0.301958 0)
(-0.241421 0.18754 0)
(-0.149971 -0.103717 0)
(-0.123685 -0.144948 0)
(-0.113578 -0.0502687 0)
(-0.14246 -0.04325 0)
(-0.0570422 -0.105501 0)
(-0.101933 -0.145255 0)
(0.00178153 -0.119923 0)
(-0.0735765 -0.0695554 0)
(-0.0537176 -0.0657685 0)
(-0.0163833 -0.0677423 0)
(-0.0101805 -0.0504887 0)
(-0.03834 -0.080308 0)
(-0.0477933 -0.186166 0)
(-0.0132206 -0.197758 0)
(-0.0355706 -0.136782 0)
(-0.0517725 -0.0616648 0)
(-0.101795 0.00307034 0)
(-0.148919 -0.00336694 0)
(-0.19257 0.053779 0)
(-0.176158 0.0832896 0)
(-0.0992501 0.15816 0)
(-0.069041 0.230973 0)
(-0.00480514 0.00955634 0)
(0.00314877 0.0370923 0)
(-0.0231889 -0.181337 0)
(0.0138887 -0.107787 0)
(-0.0988772 0.0250315 0)
(-0.0096434 -0.0872306 0)
(-0.293292 -0.0633256 0)
(-0.39775 -0.0216023 0)
(-0.247992 -0.0439947 0)
(0.00474499 -0.019639 0)
(-0.109995 -0.0744934 0)
(-0.0122957 -0.0422783 0)
(-0.0108633 -0.0698789 0)
(-0.0201671 -0.186984 0)
(0.0153772 -0.18734 0)
(-0.0149358 -0.132328 0)
(-0.0205214 -0.0498143 0)
(-0.0724194 0.0154482 0)
(-0.0887235 0.0377476 0)
(-0.0623082 0.0551178 0)
(-0.143093 0.102199 0)
(-0.0978519 0.166289 0)
(0.0499181 0.0866483 0)
(-0.00811392 -0.00906398 0)
(0.0506789 -0.0489746 0)
(0.01399 -0.0547997 0)
(-0.0103746 -0.0363841 0)
(0.00218878 -0.0131079 0)
(-0.00321675 0.0289587 0)
(-0.0631148 -0.0397953 0)
(-0.0828974 -0.0453265 0)
(-0.102057 -0.128963 0)
(-0.143165 -0.1721 0)
(-0.152918 0.0713911 0)
(-0.0130131 -0.0375011 0)
(-0.00980642 -0.062439 0)
(-0.0095755 -0.211209 0)
(0.0325689 -0.202527 0)
(0.0128595 -0.117115 0)
(-0.000920626 -0.0326218 0)
(-0.0317937 0.0394858 0)
(-0.0685403 0.0631324 0)
(-0.0496596 0.0965517 0)
(-0.012506 0.0656282 0)
(-0.0238154 0.163134 0)
(-0.00425481 0.0498337 0)
(0.00103038 -0.00260308 0)
(-0.0132061 -0.0182825 0)
(-0.0227209 -0.0706533 0)
(-0.0454867 -0.0218789 0)
(-0.0467257 -0.00385914 0)
(-0.0340271 0.0253598 0)
(-0.0132891 -0.0203717 0)
(0.000986943 -0.0583757 0)
(0.0119529 -0.0957899 0)
(-0.00525777 -0.14773 0)
(0.00666879 -0.186365 0)
(-0.00794617 -0.0313496 0)
(-0.0131409 -0.06259 0)
(0.00106534 -0.229713 0)
(0.0432916 -0.211355 0)
(0.0198353 -0.100556 0)
(0.00314674 -0.0168059 0)
(-0.0132191 0.046545 0)
(-0.0199269 0.0525306 0)
(-0.0140758 0.122079 0)
(-0.0269175 0.069559 0)
(0.00226597 0.0510028 0)
(0.0167975 0.0440825 0)
(0.00736895 -0.00760364 0)
(0.00329966 -0.00426266 0)
(-0.00473548 -0.0398895 0)
(-0.0371151 -0.00659814 0)
(-0.0353029 -0.0128863 0)
(-0.0387149 -0.0315766 0)
(-0.0555474 -0.0376386 0)
(-0.0522393 -0.0771887 0)
(-0.0668521 -0.105407 0)
(-0.0116418 -0.145225 0)
(0.0546291 -0.173284 0)
(-0.0028969 -0.025791 0)
(-0.0138815 -0.0603647 0)
(0.0101592 -0.268127 0)
(0.0497608 -0.224429 0)
(0.0249506 -0.0770508 0)
(-0.00579137 0.000253624 0)
(-0.0102146 0.0593291 0)
(0.0068815 0.0529928 0)
(-0.014571 0.101955 0)
(-0.0234547 0.0814475 0)
(0.0298255 0.0892559 0)
(0.0225115 0.0624152 0)
(0.0543102 0.0174176 0)
(0.0322248 0.00479419 0)
(-0.00887535 -0.0195598 0)
(-0.013763 0.000570556 0)
(-0.0219412 -0.0134874 0)
(-0.0265577 0.024254 0)
(-0.0270304 -0.0206253 0)
(-0.0234018 -0.0140889 0)
(-0.0420818 -0.0287513 0)
(-0.105369 -0.0704469 0)
(-0.175963 -0.137403 0)
(-0.000399208 -0.0233035 0)
(-0.00437317 -0.0679864 0)
(0.0116697 -0.295349 0)
(0.0493713 -0.226632 0)
(0.0132312 -0.0456309 0)
(-0.0253892 0.0146334 0)
(-0.0182236 0.0431064 0)
(-0.000455995 0.051671 0)
(0.00892472 0.0566878 0)
(0.00759702 0.0903698 0)
(0.0307733 0.055723 0)
(0.0351433 0.0840205 0)
(0.019473 -0.0113673 0)
(0.0226191 0.0223851 0)
(0.0246092 -0.00296216 0)
(0.0197497 0.0174225 0)
(0.00871019 -0.0140234 0)
(-0.0397777 -0.0159582 0)
(-0.0288293 -0.0224853 0)
(-0.0525469 -0.0399992 0)
(-0.107674 -0.0251773 0)
(-0.036919 -0.0687807 0)
(-0.0655663 -0.110193 0)
(-0.00239272 -0.0225352 0)
(0.0137649 -0.0694206 0)
(0.0226192 -0.327772 0)
(0.0358606 -0.221917 0)
(-0.00919797 -0.00419967 0)
(-0.0415748 0.0197552 0)
(-0.0112219 0.0451697 0)
(-0.0140111 0.0334896 0)
(0.0220071 0.0822243 0)
(0.0329334 -0.00308899 0)
(0.0597228 0.106594 0)
(0.0319879 0.0280518 0)
(0.0701803 0.0378474 0)
(0.098749 -0.012632 0)
(0.0318877 0.0218965 0)
(0.0194655 0.00411119 0)
(-0.00357481 0.0268835 0)
(-0.00945844 0.0336896 0)
(0.00746849 -0.0048461 0)
(-0.0192445 0.0115067 0)
(-0.00848433 -0.0207716 0)
(-0.0792213 -0.0462982 0)
(-0.172093 -0.121804 0)
(-0.000395156 -0.035863 0)
(0.0201172 -0.0758465 0)
(0.0245633 -0.340204 0)
(0.0167198 -0.192706 0)
(-0.0420394 0.0338764 0)
(-0.0414974 0.0145786 0)
(-0.0298213 0.0198501 0)
(-0.00267051 0.0219241 0)
(-0.00852164 0.049194 0)
(0.0743403 0.01431 0)
(0.0697687 0.0546147 0)
(0.0709266 0.0305764 0)
(0.0807868 0.0350228 0)
(0.0828625 -0.0249333 0)
(0.0433812 0.0738402 0)
(0.0498043 0.05777 0)
(0.0977348 0.0130322 0)
(0.0332134 -0.00945397 0)
(0.0261645 -0.0254324 0)
(0.028666 0.00930541 0)
(-0.0327479 0.0231677 0)
(-0.053278 -0.0203379 0)
(-0.0579711 -0.0187973 0)
(-0.0098684 -0.0297236 0)
(0.0114511 -0.0818062 0)
(0.0211041 -0.338897 0)
(0.00963726 -0.156232 0)
(-0.0454379 0.0506827 0)
(-0.0274086 0.00326113 0)
(-0.0100724 0.00445458 0)
(0.00389733 0.00957796 0)
(0.0117789 0.0394123 0)
(0.035734 -0.013511 0)
(0.1323 0.0935421 0)
(0.146456 -0.00842994 0)
(0.093389 0.0137085 0)
(0.157748 0.0283751 0)
(0.151866 0.132976 0)
(0.0769837 0.0327397 0)
(0.0810227 0.0698129 0)
(0.079492 0.00411154 0)
(0.0685609 0.0489764 0)
(0.0661395 0.01309 0)
(-0.018654 0.0639755 0)
(-0.0853711 0.0232697 0)
(-0.12249 0.0477155 0)
(-0.0225045 -0.0407073 0)
(0.00493985 -0.10849 0)
(0.0133678 -0.33706 0)
(-0.00138919 -0.122898 0)
(-0.0450717 0.0770806 0)
(0.012256 -0.0182698 0)
(-0.0161235 -0.016873 0)
(0.0481691 0.0140228 0)
(0.0440029 -0.0403709 0)
(0.121303 -0.0120044 0)
(0.13209 -0.0690756 0)
(0.103876 -0.0596257 0)
(0.0713221 0.0124465 0)
(0.115201 0.113736 0)
(0.0702632 0.0488257 0)
(0.138135 -0.00080732 0)
(0.136683 -0.00713475 0)
(0.0850673 0.00302653 0)
(0.0954543 0.0763603 0)
(0.00342206 0.0665377 0)
(-0.00166175 0.110814 0)
(0.0366688 0.134665 0)
(-0.0621144 0.119201 0)
(-0.0312856 -0.00728557 0)
(0.00719494 -0.117246 0)
(0.0113934 -0.33162 0)
(0.0132221 -0.0991915 0)
(-0.0519051 0.106082 0)
(-0.0091471 -0.0255431 0)
(0.00713094 -0.0250323 0)
(0.0115638 -0.0213496 0)
(0.100981 -0.0535836 0)
(0.0675033 0.0102931 0)
(0.0999693 -0.0846669 0)
(0.151092 -0.0143276 0)
(0.103466 0.00511501 0)
(0.111726 0.0798215 0)
(0.0859903 0.00168865 0)
(0.126997 0.101907 0)
(0.136027 -0.0281335 0)
(0.0671643 0.15983 0)
(0.0655121 0.0683516 0)
(0.0980608 0.142804 0)
(0.121337 0.160152 0)
(0.0269982 0.151776 0)
(-0.123419 0.123418 0)
(-0.0488238 -0.0189042 0)
(0.00724786 -0.159918 0)
(-0.0140527 -0.331505 0)
(-0.0349157 -0.0894683 0)
(-0.0464476 0.0537409 0)
(0.0347511 -0.0796734 0)
(-0.00916031 -0.0415658 0)
(0.0482409 -0.0709657 0)
(0.116498 -0.0327226 0)
(0.110445 -0.0685972 0)
(0.0857515 -0.0175833 0)
(0.0773254 -0.022315 0)
(0.0689991 0.0430244 0)
(0.049973 0.0318415 0)
(0.139341 0.0400537 0)
(0.136046 0.0894365 0)
(0.128261 0.0354321 0)
(0.157653 0.158898 0)
(0.103977 0.0657802 0)
(0.0906132 0.141554 0)
(0.0166606 0.208208 0)
(0.0558861 0.214343 0)
(-0.0286491 0.148758 0)
(-0.0900704 0.0360213 0)
(0.0156852 -0.148954 0)
(-0.0206644 -0.312121 0)
(-0.0324278 -0.0429659 0)
(-0.0589173 0.0667707 0)
(0.0444097 -0.0519409 0)
(0.0168585 -0.044669 0)
(0.0675209 -0.0649616 0)
(0.117462 -0.0793652 0)
(0.0969193 -0.0855651 0)
(0.0518604 -0.0102713 0)
(0.0977546 -0.0080569 0)
(0.0805641 0.0598335 0)
(0.107255 -0.000304384 0)
(0.136146 0.0953921 0)
(0.119365 -0.0121149 0)
(0.160727 0.132956 0)
(0.150375 0.0786783 0)
(0.089428 0.0872909 0)
(0.215237 0.114845 0)
(0.188068 0.148448 0)
(-0.000727989 0.316623 0)
(0.000774938 0.268112 0)
(0.0632683 0.0617942 0)
(0.00526394 -0.23785 0)
(-0.0406224 -0.270584 0)
(-0.0143666 -0.0910439 0)
(-0.0292238 0.00864967 0)
(0.0653996 -0.154049 0)
(-0.0470704 -0.0597465 0)
(0.0502915 -0.0776969 0)
(0.0662925 -0.0461099 0)
(0.132235 -0.0990813 0)
(0.0602673 -0.0430778 0)
(0.0789346 -0.0645281 0)
(0.0498661 0.0302617 0)
(0.146966 -0.0263939 0)
(0.174443 -0.0156738 0)
(0.197893 0.0593573 0)
(0.250017 0.123876 0)
(0.143685 0.101003 0)
(0.148435 0.138971 0)
(0.135201 0.157041 0)
(0.187859 0.210792 0)
(0.166538 0.193012 0)
(0.0222559 0.2914 0)
(0.00267595 -0.0386737 0)
(0.12749 -0.313232 0)
(-0.0143451 -0.348255 0)
(-0.101132 -0.16654 0)
(-0.0213327 -0.110414 0)
(0.0421903 -0.214733 0)
(0.0593026 -0.164587 0)
(0.0729473 -0.173254 0)
(0.044374 -0.0716877 0)
(0.0913447 -0.0779345 0)
(0.049887 -0.0962832 0)
(0.127208 0.0010027 0)
(0.148123 -0.0706989 0)
(0.162568 0.0230357 0)
(0.229778 -0.105471 0)
(0.0933902 0.105448 0)
(0.152948 0.0279295 0)
(0.170757 0.115023 0)
(0.170601 0.141824 0)
(0.291083 0.162339 0)
(0.258233 0.256761 0)
(0.157628 0.220258 0)
(0.170467 0.342605 0)
(-0.0352414 -0.065501 0)
(0.0505727 -0.319642 0)
(-0.0269605 -0.388607 0)
(0.0126508 -0.186925 0)
(-0.0125575 -0.157133 0)
(0.0590522 -0.193007 0)
(0.0302002 -0.222795 0)
(0.057505 -0.191888 0)
(0.0932764 -0.115697 0)
(0.121313 -0.121483 0)
(0.0908951 -0.070325 0)
(0.0818517 -0.0402408 0)
(0.164184 -0.0654628 0)
(0.0864425 0.0717885 0)
(0.126008 -0.0565659 0)
(0.233695 -0.0175507 0)
(0.276784 -0.00773827 0)
(0.278893 0.0809884 0)
(0.232109 0.181246 0)
(0.326504 0.118113 0)
(0.286334 0.154385 0)
(0.310568 0.276366 0)
(0.237349 0.403166 0)
(-0.024937 -0.0755694 0)
(0.0485872 -0.307338 0)
(-0.0201199 -0.328734 0)
(0.0202082 -0.181023 0)
(0.0190775 -0.213009 0)
(0.0551867 -0.219777 0)
(0.0203526 -0.254445 0)
(0.102533 -0.151542 0)
(0.0909628 -0.0997262 0)
(0.129916 -0.172893 0)
(0.0494466 -0.0412711 0)
(0.101453 -0.119212 0)
(0.242838 -0.0427115 0)
(0.157981 -0.0612824 0)
(0.171752 -0.0663711 0)
(0.173677 -0.00588051 0)
(0.25083 0.0115286 0)
(0.35146 0.204671 0)
(0.242358 0.125911 0)
(0.271383 0.241704 0)
(0.392791 0.286553 0)
(0.410016 0.462833 0)
(0.370057 0.387124 0)
(-0.0438514 -0.107569 0)
(0.0181345 -0.318998 0)
(-0.0102807 -0.31595 0)
(0.00175323 -0.27685 0)
(0.00595263 -0.146367 0)
(0.0753013 -0.263446 0)
(0.0616483 -0.207217 0)
(0.149727 -0.133447 0)
(0.0821128 -0.165094 0)
(0.130691 -0.178697 0)
(0.132646 -0.171756 0)
(0.10806 -0.115437 0)
(0.263697 -0.0776312 0)
(0.139706 -0.197113 0)
(0.176072 -0.0548664 0)
(0.29839 -0.136105 0)
(0.409884 0.103994 0)
(0.340894 0.028166 0)
(0.336183 -0.0603426 0)
(0.392675 0.184824 0)
(0.451393 0.280484 0)
(0.418317 0.356974 0)
(0.254066 0.464983 0)
(-0.0297076 -0.0699513 0)
(0.0417062 -0.349367 0)
(-0.059794 -0.339542 0)
(0.0376224 -0.175826 0)
(0.0475091 -0.108357 0)
(0.0806059 -0.181361 0)
(0.119533 -0.151932 0)
(0.107883 -0.0731893 0)
(0.0567488 -0.153578 0)
(0.142266 -0.0559822 0)
(0.148093 -0.20461 0)
(0.214525 -0.0342608 0)
(0.12902 -0.10774 0)
(0.200591 -0.210975 0)
(0.258585 -0.0119749 0)
(0.287362 -0.0366055 0)
(0.405919 -0.0507345 0)
(0.268492 -0.0402981 0)
(0.406916 -0.0677947 0)
(0.599986 0.155216 0)
(0.590736 0.137752 0)
(0.657565 0.341382 0)
(0.585691 0.289604 0)
(-0.109215 -0.0060671 0)
(-0.00158728 -0.241078 0)
(0.048298 -0.257111 0)
(0.110704 -0.166198 0)
(0.0460613 -0.150574 0)
(0.103087 -0.161399 0)
(0.126494 -0.152357 0)
(0.117489 -0.16718 0)
(0.0785048 -0.221834 0)
(0.0191959 -0.0973962 0)
(0.141321 -0.228143 0)
(0.163261 -0.142662 0)
(0.117917 -0.276615 0)
(0.265549 -0.147569 0)
(0.367994 -0.257114 0)
(0.259101 -0.0540471 0)
(0.368592 -0.157649 0)
(0.324884 -0.0234085 0)
(0.413462 0.150675 0)
(0.6282 0.327799 0)
(0.790037 0.271353 0)
(0.689178 0.306392 0)
(0.744513 0.215239 0)
(-0.074393 0.0115532 0)
(0.0485207 -0.212986 0)
(-0.0175929 -0.214802 0)
(0.024335 -0.152316 0)
(0.0525011 -0.0808904 0)
(0.122094 -0.143353 0)
(0.0664999 -0.265615 0)
(0.00279917 -0.214269 0)
(0.0939717 -0.255978 0)
(0.0579268 -0.233886 0)
(0.145984 -0.213486 0)
(0.124144 -0.258867 0)
(0.170714 -0.277782 0)
(0.212919 -0.188415 0)
(0.373824 -0.231948 0)
(0.354691 -0.101586 0)
(0.425485 -0.142036 0)
(0.49211 -0.00118405 0)
(0.751734 0.0926994 0)
(0.788406 -0.113789 0)
(0.706491 -0.0125895 0)
(0.62793 0.104482 0)
(0.704421 0.232509 0)
(0.00375452 0.0726298 0)
(0.110147 -0.239077 0)
(0.0607217 -0.210632 0)
(0.138612 -0.209411 0)
(0.1204 -0.231191 0)
(0.00690805 -0.268705 0)
(0.0275198 -0.308645 0)
(0.0531614 -0.268017 0)
(0.0816656 -0.27873 0)
(0.0853116 -0.253084 0)
(0.131319 -0.215639 0)
(0.113914 -0.313547 0)
(0.20944 -0.203067 0)
(0.299971 -0.279003 0)
(0.444851 -0.172974 0)
(0.321049 -0.265589 0)
(0.436092 -0.0824873 0)
(0.567922 -0.130168 0)
(0.460167 -0.177316 0)
(0.685531 -0.255641 0)
(1.01855 0.206579 0)
(0.834204 0.128236 0)
(0.756019 0.281425 0)
(0.114629 -0.130932 0)
(0.0929294 -0.358975 0)
(-0.0413412 -0.306231 0)
(-0.0357552 -0.355437 0)
(0.0338809 -0.354488 0)
(0.0355431 -0.355846 0)
(0.0604719 -0.336656 0)
(0.0401577 -0.324902 0)
(0.113891 -0.300685 0)
(0.136813 -0.333766 0)
(0.0846434 -0.280138 0)
(0.157661 -0.340919 0)
(0.279615 -0.234079 0)
(0.288008 -0.30123 0)
(0.345322 -0.224278 0)
(0.381577 -0.361585 0)
(0.572247 -0.0951551 0)
(0.487151 -0.317094 0)
(0.495783 -0.154721 0)
(0.949606 -0.128417 0)
(0.888801 -0.124756 0)
(0.780145 -0.291063 0)
(0.84691 -0.00691442 0)
(0.0206011 -0.312185 0)
(0.0557021 -0.406674 0)
(0.0526027 -0.423889 0)
(0.0394534 -0.374821 0)
(0.0575915 -0.357844 0)
(0.055069 -0.330074 0)
(0.0641132 -0.335159 0)
(0.0808881 -0.341779 0)
(0.0887426 -0.298627 0)
(0.122009 -0.37893 0)
(0.105809 -0.276244 0)
(0.177848 -0.285223 0)
(0.28049 -0.350265 0)
(0.331358 -0.295857 0)
(0.260993 -0.298261 0)
(0.328977 -0.333351 0)
(0.459663 -0.291538 0)
(0.571764 -0.420749 0)
(0.625886 -0.181487 0)
(0.684225 -0.212666 0)
(0.685319 -0.375036 0)
(0.87037 -0.336244 0)
(1.29401 0.015534 0)
(0.0125148 -0.304446 0)
(0.0231532 -0.355071 0)
(0.0175293 -0.380788 0)
(0.0261762 -0.374055 0)
(0.0663757 -0.378543 0)
(0.0570911 -0.383635 0)
(0.054086 -0.376608 0)
(0.08356 -0.373904 0)
(0.0723371 -0.369738 0)
(0.158273 -0.36213 0)
(0.191881 -0.357501 0)
(0.124214 -0.344529 0)
(0.276308 -0.256793 0)
(0.308749 -0.338121 0)
(0.268807 -0.353835 0)
(0.337808 -0.315154 0)
(0.357417 -0.416385 0)
(0.56222 -0.327412 0)
(0.672485 -0.542842 0)
(0.612571 -0.296501 0)
(0.654214 -0.334817 0)
(0.983765 0.0874171 0)
(1.22703 -0.096076 0)
(0.00937392 -0.369683 0)
(0.0245086 -0.406748 0)
(0.0341923 -0.414299 0)
(0.0449432 -0.402045 0)
(0.0581521 -0.386193 0)
(0.0660907 -0.410171 0)
(0.0799494 -0.395465 0)
(0.0940437 -0.393976 0)
(0.107769 -0.404138 0)
(0.139802 -0.377593 0)
(0.13273 -0.460761 0)
(0.265615 -0.409098 0)
(0.376051 -0.328862 0)
(0.241387 -0.51626 0)
(0.216114 -0.413794 0)
(0.226368 -0.430239 0)
(0.425597 -0.430663 0)
(0.571835 -0.32803 0)
(0.608006 -0.634941 0)
(0.498864 -0.573777 0)
(0.562611 -0.534722 0)
(0.63704 -0.0137308 0)
(0.851622 0.0930371 0)
(0.00828226 -0.377252 0)
(0.0122179 -0.410967 0)
(0.0265216 -0.417593 0)
(0.0593486 -0.419397 0)
(0.0560288 -0.426914 0)
(0.0481113 -0.426592 0)
(0.0693145 -0.429505 0)
(0.0770379 -0.431604 0)
(0.0979578 -0.43397 0)
(0.097347 -0.431012 0)
(0.148475 -0.455999 0)
(0.271412 -0.439185 0)
(0.233684 -0.568269 0)
(0.191288 -0.569055 0)
(0.197151 -0.481267 0)
(0.271054 -0.465862 0)
(0.489636 -0.388969 0)
(0.357804 -0.528085 0)
(0.404408 -0.813315 0)
(0.397682 -0.828328 0)
(0.57521 -0.627224 0)
(0.870712 -0.567978 0)
(0.804749 -0.0577154 0)
(0.00768938 -0.411407 0)
(0.0188946 -0.439953 0)
(0.0307056 -0.434267 0)
(0.040318 -0.4401 0)
(0.0524312 -0.455795 0)
(0.0611026 -0.451379 0)
(0.074823 -0.450705 0)
(0.0884944 -0.455035 0)
(0.103767 -0.4525 0)
(0.124574 -0.466629 0)
(0.143487 -0.450817 0)
(0.170408 -0.499598 0)
(0.18036 -0.568064 0)
(0.193017 -0.537101 0)
(0.176285 -0.463964 0)
(0.279888 -0.436697 0)
(0.414402 -0.483534 0)
(0.301228 -0.576029 0)
(0.382379 -0.736852 0)
(0.460818 -0.701764 0)
(0.605762 -0.466839 0)
(0.905168 -0.662196 0)
(0.861773 -0.134426 0)
(0.00668428 -0.42977 0)
(0.014897 -0.45635 0)
(0.0251421 -0.459011 0)
(0.0368142 -0.463744 0)
(0.046208 -0.467348 0)
(0.0540698 -0.474281 0)
(0.0674222 -0.479557 0)
(0.0780815 -0.49047 0)
(0.094124 -0.494494 0)
(0.107551 -0.51068 0)
(0.126104 -0.520432 0)
(0.151752 -0.546344 0)
(0.153893 -0.576542 0)
(0.168689 -0.577944 0)
(0.167067 -0.482839 0)
(0.261647 -0.436061 0)
(0.407881 -0.53003 0)
(0.387506 -0.6098 0)
(0.567715 -0.57348 0)
(0.612719 -0.709299 0)
(0.420778 -0.653984 0)
(0.65849 -0.810309 0)
(0.848639 -0.347767 0)
(0.00601968 -0.453751 0)
(0.0146079 -0.4758 0)
(0.023592 -0.477395 0)
(0.0320702 -0.482693 0)
(0.0407583 -0.487431 0)
(0.0499634 -0.49456 0)
(0.0584182 -0.49748 0)
(0.0691115 -0.508363 0)
(0.0774514 -0.511353 0)
(0.0922699 -0.531039 0)
(0.101007 -0.537777 0)
(0.120951 -0.560858 0)
(0.123322 -0.576048 0)
(0.167385 -0.570968 0)
(0.202375 -0.51287 0)
(0.220311 -0.478105 0)
(0.304588 -0.575407 0)
(0.388038 -0.668644 0)
(0.427754 -0.642517 0)
(0.566616 -0.756181 0)
(0.374955 -0.720185 0)
(0.439823 -0.795937 0)
(0.273472 -0.133253 0)
(0.00469532 -0.469725 0)
(0.011854 -0.489654 0)
(0.0190724 -0.491974 0)
(0.0266331 -0.496847 0)
(0.0332091 -0.500519 0)
(0.0409879 -0.50898 0)
(0.0477785 -0.514698 0)
(0.0575453 -0.527829 0)
(0.064845 -0.53668 0)
(0.0775973 -0.55787 0)
(0.0827399 -0.568242 0)
(0.101775 -0.60196 0)
(0.112686 -0.607264 0)
(0.118346 -0.596148 0)
(0.147119 -0.564733 0)
(0.153361 -0.557544 0)
(0.253522 -0.610754 0)
(0.345559 -0.702564 0)
(0.394648 -0.732976 0)
(0.573205 -0.733387 0)
(0.118352 -0.703282 0)
(-0.00459385 -0.578373 0)
(-0.459883 0.19454 0)
(0.00393694 -0.486296 0)
(0.0104533 -0.503326 0)
(0.0158478 -0.505867 0)
(0.0221452 -0.510267 0)
(0.0274 -0.514832 0)
(0.0342481 -0.522985 0)
(0.0388046 -0.529414 0)
(0.046971 -0.541897 0)
(0.0494487 -0.54812 0)
(0.0598845 -0.565839 0)
(0.0542701 -0.577184 0)
(0.082346 -0.610511 0)
(0.0862097 -0.609718 0)
(0.0759634 -0.607254 0)
(0.123385 -0.554226 0)
(0.100657 -0.559161 0)
(0.176033 -0.606648 0)
(0.226624 -0.730418 0)
(0.138978 -0.800316 0)
(0.2554 -0.892338 0)
(0.0831776 -0.652927 0)
(0.14682 -0.155571 0)
(-0.448385 0.300448 0)
(0.00333586 -0.49315 0)
(0.0084347 -0.507881 0)
(0.0121656 -0.510224 0)
(0.0175768 -0.514485 0)
(0.020849 -0.518821 0)
(0.0267454 -0.52656 0)
(0.0293719 -0.533526 0)
(0.0360592 -0.544344 0)
(0.0358222 -0.556181 0)
(0.0486115 -0.566739 0)
(0.0391258 -0.589812 0)
(0.0689527 -0.588491 0)
(0.0656759 -0.623012 0)
(0.0446275 -0.580679 0)
(0.0900173 -0.565396 0)
(0.0534092 -0.57417 0)
(0.111466 -0.654288 0)
(0.154636 -0.758055 0)
(0.0333759 -0.798052 0)
(0.120346 -0.556778 0)
(0.162479 -0.46864 0)
(-0.0767373 0.0837021 0)
(-1.16904 0.712065 0)
(0.00274531 -0.509798 0)
(0.00688677 -0.521539 0)
(0.00952347 -0.523984 0)
(0.0139623 -0.52772 0)
(0.0158912 -0.532288 0)
(0.020488 -0.539266 0)
(0.0218867 -0.544731 0)
(0.0255879 -0.553475 0)
(0.0245103 -0.565641 0)
(0.0290452 -0.570894 0)
(0.0352146 -0.593531 0)
(0.0393602 -0.58396 0)
(0.0328196 -0.615787 0)
(0.0157243 -0.578887 0)
(0.0442917 -0.56801 0)