/*--------------------------------*- C++ -*----------------------------------*\
| =========                 |                                                 |
| \\      /  F ield         | foam-extend: Open Source CFD                    |
|  \\    /   O peration     | Version:     4.1                                |
|   \\  /    A nd           | Web:         http://www.foam-extend.org         |
|    \\/     M anipulation  |                                                 |
\*---------------------------------------------------------------------------*/
FoamFile
{
    version     2.0;
    format      ascii;
    class       volScalarField;
    location    "0.95";
    object      alpha1;
}
// * * * * * * * * * * * * * * * * * * * * * * * * * * * * * * * * * * * * * //

dimensions      [0 0 0 0 0 0 0];

internalField   nonuniform List<scalar> 
2268
(
0.996152
0.993895
0.990875
0.989598
0.990249
0.991487
0.992504
0.993018
0.993217
0.993356
0.993782
0.994784
0.996821
0.99859
0.999973
1
1
1
1
1
1
1
1
0.994489
0.992126
0.988996
0.987859
0.988836
0.9904
0.991704
0.992344
0.992568
0.992738
0.993156
0.99409
0.995972
0.996764
0.997439
0.998397
0.998338
0.998852
1
1
1
1
1
0.990843
0.98824
0.984956
0.984146
0.985859
0.988085
0.98994
0.99078
0.991058
0.991247
0.991342
0.991439
0.99172
0.98948
0.988413
0.989435
0.989415
0.991457
0.997407
1
1
1
1
0.985304
0.982397
0.978986
0.978736
0.981602
0.984739
0.987191
0.988117
0.988327
0.988356
0.987098
0.984247
0.979127
0.970022
0.96557
0.968037
0.970517
0.977367
0.989232
0.998064
1
1
1
0.977932
0.974759
0.971355
0.97196
0.976258
0.980367
0.983098
0.983756
0.983354
0.982485
0.977794
0.967245
0.949662
0.926986
0.914984
0.923593
0.935092
0.952405
0.973251
0.99061
0.99666
1
1
0.968769
0.965462
0.962322
0.964052
0.969875
0.97465
0.976951
0.976341
0.97407
0.970136
0.958219
0.932185
0.891368
0.845103
0.821369
0.844287
0.87478
0.909144
0.943878
0.974986
0.985673
0.997357
1
0.95783
0.95461
0.952043
0.955051
0.962097
0.9667
0.967368
0.96338
0.956296
0.944906
0.919907
0.868076
0.796081
0.722168
0.686461
0.725773
0.781234
0.839869
0.891513
0.942593
0.962042
0.984279
1
0.945067
0.94221
0.940366
0.944363
0.95166
0.955052
0.952187
0.941032
0.922805
0.895794
0.850694
0.766242
0.673418
0.588763
0.554335
0.595425
0.661874
0.740795
0.804128
0.881233
0.91669
0.954906
0.990936
0.400361
0.408271
0.411471
0.419227
0.426758
0.444435
0.46044
0.473145
0.486443
0.511742
0.519671
0.521257
0.519741
0.519036
0.5187
0.498191
0.528671
0.536382
0.537954
0.397898
0.399257
0.392699
0.395421
0.398032
0.406122
0.418433
0.430257
0.436346
0.472447
0.495581
0.510297
0.51876
0.525954
0.531656
0.503465
0.516298
0.515441
0.513943
0.393559
0.385749
0.374364
0.379866
0.383844
0.376126
0.369847
0.376062
0.368645
0.402068
0.439172
0.473013
0.499349
0.522258
0.543265
0.51572
0.503725
0.488328
0.480343
0.38859
0.3763
0.375114
0.391546
0.398271
0.371717
0.345021
0.341259
0.322829
0.333917
0.36743
0.411245
0.452283
0.490194
0.535271
0.532674
0.505441
0.474522
0.455774
0.385422
0.37256
0.394268
0.418724
0.416209
0.375594
0.338651
0.327576
0.305488
0.290616
0.307082
0.344418
0.386432
0.430551
0.496123
0.541509
0.518565
0.478907
0.445999
0.383153
0.374243
0.41467
0.436967
0.416439
0.362522
0.328775
0.316836
0.298851
0.272523
0.271638
0.290159
0.321286
0.362695
0.437576
0.535795
0.536224
0.496527
0.44823
0.378251
0.375722
0.420872
0.434183
0.394061
0.32852
0.303351
0.291117
0.282101
0.262051
0.250788
0.255202
0.270996
0.304543
0.380902
0.517466
0.551346
0.51859
0.458812
0.371265
0.373046
0.411709
0.412661
0.367823
0.297639
0.274537
0.257994
0.256411
0.247087
0.235154
0.232555
0.238981
0.265589
0.341239
0.493738
0.560681
0.537829
0.469318
0.922174
0.9202
0.919132
0.923253
0.929023
0.928612
0.916099
0.884856
0.832776
0.76265
0.680037
0.565867
0.499818
0.455984
0.440793
0.456662
0.489958
0.550097
0.62274
0.725426
0.802718
0.872582
0.94365
0.883618
0.881779
0.877811
0.874858
0.873671
0.862271
0.821138
0.734184
0.602496
0.471984
0.415615
0.405311
0.41901
0.437371
0.46522
0.484518
0.495624
0.473578
0.483286
0.496549
0.574824
0.654488
0.762727
0.823813
0.81782
0.801454
0.777322
0.750341
0.708665
0.616989
0.498184
0.399778
0.366232
0.37135
0.405414
0.420219
0.459215
0.512579
0.53659
0.546956
0.551356
0.546918
0.543611
0.583001
0.630589
0.684863
0.68354
0.675951
0.649897
0.606298
0.560861
0.478583
0.373568
0.343359
0.32366
0.338038
0.340051
0.328703
0.301139
0.312634
0.391282
0.454025
0.514423
0.563764
0.580104
0.583918
0.590399
0.622279
0.649281
0.41353
0.391243
0.397163
0.376673
0.377722
0.365238
0.28466
0.273208
0.260746
0.276964
0.265972
0.241799
0.227255
0.22927
0.259454
0.289426
0.34136
0.386174
0.420316
0.44496
0.473681
0.538646
0.579208
0.254438
0.244052
0.242023
0.238669
0.254475
0.279659
0.227663
0.226685
0.230633
0.231843
0.212725
0.207284
0.208743
0.216657
0.224493
0.234678
0.248826
0.256853
0.271597
0.312398
0.35347
0.396354
0.415284
0.222163
0.217461
0.207383
0.201095
0.205251
0.217558
0.192998
0.210986
0.218362
0.210561
0.201297
0.198446
0.194407
0.189972
0.184645
0.181876
0.182778
0.181838
0.183749
0.212565
0.232435
0.245302
0.258627
0.217639
0.212844
0.200838
0.186205
0.181884
0.185768
0.187475
0.208724
0.212872
0.198673
0.187029
0.175147
0.154508
0.138894
0.125719
0.116474
0.112512
0.115993
0.114459
0.11557
0.121908
0.124079
0.12541
0.215308
0.208373
0.195736
0.184243
0.180816
0.18344
0.193581
0.206971
0.203865
0.18367
0.165758
0.136236
0.105477
0.0870855
0.0738141
0.0662539
0.0622746
0.0666631
0.0648773
0.058673
0.0575676
0.0626649
0.0588505
0.212691
0.205541
0.198048
0.19161
0.189302
0.192122
0.201118
0.203326
0.189033
0.164726
0.141179
0.0993924
0.0675468
0.05018
0.0386413
0.0338957
0.032839
0.0346096
0.0338527
0.0295456
0.0270522
0.0310401
0.0275553
0.210561
0.202097
0.198646
0.196999
0.196352
0.196278
0.19938
0.194503
0.17588
0.141383
0.104067
0.0642146
0.0380051
0.0253067
0.0189858
0.0165595
0.0159995
0.0158815
0.0147311
0.0131662
0.0125353
0.0149624
0.0114929
0.207642
0.193804
0.191248
0.193177
0.192336
0.190993
0.187427
0.168318
0.148479
0.107093
0.0630996
0.0358926
0.0204685
0.0130012
0.00899211
0.00791189
0.00789183
0.00731253
0.00609158
0.00531988
0.0051905
0.00618985
0.00436038
0.202674
0.182045
0.174559
0.174865
0.170561
0.168586
0.156135
0.131696
0.119665
0.0788953
0.0426489
0.0260021
0.0174614
0.0118717
0.007218
0.0045673
0.00378996
0.00326877
0.00250335
0.00199241
0.00195621
0.00239597
0.00178957
0.199941
0.170128
0.149988
0.1386
0.129729
0.127948
0.110392
0.0890501
0.0939804
0.061525
0.037842
0.0241944
0.0156609
0.0109454
0.00769067
0.00454212
0.00263922
0.00167488
0.00104808
0.000657181
0.00063333
0.000787904
0.000736885
0.199062
0.163499
0.131712
0.111424
0.0978347
0.084367
0.0686727
0.0544619
0.0602578
0.0460903
0.0319402
0.0221558
0.013591
0.00791743
0.00546434
0.00392073
0.00251896
0.00157314
0.000855027
0.000355504
0.00020395
0.000199968
0.000223365
0.198124
0.160319
0.119719
0.0934455
0.0784608
0.0663238
0.0512879
0.0417799
0.0402452
0.0360274
0.0292357
0.0212776
0.0134936
0.00715926
0.00378986
0.00237049
0.00150069
0.00088519
0.000416501
0.000146735
5.09004e-05
2.16843e-05
2.81669e-05
0.196737
0.158009
0.11399
0.0870334
0.071849
0.0589349
0.0487225
0.0416531
0.0360168
0.0311666
0.0263353
0.0207387
0.01376
0.0075742
0.00348411
0.00173697
0.000966968
0.000493558
0.00020744
6.84529e-05
9.17762e-06
0
0
0.195187
0.157529
0.113346
0.0836487
0.0667123
0.0536457
0.0450163
0.0366868
0.0283443
0.0247379
0.0211001
0.017024
0.0133967
0.00947294
0.0048731
0.00184487
0.000731099
0.00030679
0.000119679
4.04774e-05
8.69251e-06
0
0
0.192736
0.155962
0.112873
0.078946
0.0609518
0.0512532
0.0436146
0.0325683
0.0207545
0.0163538
0.014244
0.0137742
0.0133948
0.0111651
0.00653495
0.00254688
0.000969805
0.000399741
0.000164729
6.64795e-05
2.23989e-05
5.38476e-06
0
0.190452
0.155535
0.113867
0.0801547
0.0608315
0.051643
0.0471912
0.0323403
0.0169101
0.0106252
0.00692475
0.0076214
0.00896936
0.00884014
0.00666675
0.00367371
0.00183585
0.000796556
0.000329955
0.000124728
4.30477e-05
1.37326e-05
3.61852e-06
0.188262
0.15648
0.120838
0.086757
0.0658478
0.0593329
0.0559966
0.0320646
0.0143126
0.0066863
0.00362037
0.00383316
0.00516669
0.00698282
0.00669541
0.00520738
0.0033968
0.00176907
0.000713744
0.000235143
7.50948e-05
1.93855e-05
4.02955e-06
0.186267
0.161587
0.135773
0.0990991
0.0780563
0.0739211
0.0687442
0.0364308
0.0142575
0.00529129
0.00258412
0.00245726
0.00326469
0.0052544
0.00618567
0.00574887
0.00447085
0.00260848
0.00117656
0.000438732
0.000127819
3.27643e-05
8.62698e-06
0.183406
0.165871
0.147289
0.117111
0.0976007
0.0940081
0.0834425
0.0497114
0.0217993
0.00671034
0.00233019
0.00219757
0.00293423
0.00455998
0.00561149
0.00542276
0.00427108
0.00237646
0.000941815
0.000315427
8.20019e-05
1.94805e-05
4.17469e-06
0.178977
0.164816
0.150136
0.131405
0.115957
0.109804
0.0975902
0.0655419
0.0289933
0.00793677
0.00204348
0.00211467
0.00298648
0.00412768
0.00459505
0.00430304
0.00342398
0.00217304
0.000933226
0.000293483
7.26774e-05
1.49286e-05
2.76463e-06
0.171942
0.157652
0.144256
0.133983
0.125965
0.11893
0.104036
0.0719348
0.0329067
0.00840861
0.00143152
0.00195988
0.00288335
0.0029732
0.00265342
0.00195787
0.0011272
0.000605582
0.000289974
9.94166e-05
2.04625e-05
3.15624e-06
4.5324e-07
0.159813
0.140517
0.126643
0.128408
0.124475
0.118189
0.102041
0.0689828
0.0294801
0.00463149
0.000730315
0.0012806
0.00165481
0.00124732
0.000955972
0.000525031
0.000162235
4.95362e-05
2.4479e-05
6.91896e-06
0
0
0
0.140863
0.121606
0.109981
0.1159
0.11319
0.102767
0.0731453
0.038319
0.0130653
0.00218835
0.000613998
0.000815362
0.000830847
0.000540093
0.000272724
7.14089e-05
0
0
0
0
0
0
0
0.119046
0.107646
0.0970986
0.0954654
0.0895453
0.0756365
0.0433972
0.0190771
0.00600897
0.00118258
0.000610194
0.000707959
0.000621226
0.000489375
0.000182849
2.9462e-05
8.34034e-06
7.87693e-06
5.75181e-06
2.42476e-06
8.98993e-07
2.03343e-07
5.94382e-09
0.103217
0.0956378
0.0830558
0.0709933
0.0532212
0.0387664
0.0191311
0.00759836
0.00204721
0.000628194
0.000892356
0.001037
0.00100155
0.000904267
0.000507189
0.000179207
8.96074e-05
4.8939e-05
2.26985e-05
8.7374e-06
2.74518e-06
6.44507e-07
9.10262e-08
0.0945439
0.0900017
0.076152
0.0574385
0.0344711
0.0195095
0.00755794
0.00188757
0.000800622
0.00101779
0.00125105
0.00129759
0.00124984
0.00112709
0.000764716
0.000339397
0.000186202
9.45225e-05
4.05265e-05
1.51901e-05
4.7321e-06
1.17079e-06
2.04399e-07
0.0885864
0.0839542
0.0679296
0.0471739
0.0249187
0.0112576
0.00383844
0.000889722
0.000653556
0.00112006
0.00133563
0.00136311
0.00132965
0.00124544
0.000992802
0.000539051
0.000287815
0.000131765
5.2138e-05
1.79078e-05
5.10416e-06
1.23402e-06
2.43522e-07
0.0836968
0.0775828
0.0594252
0.0383738
0.0200015
0.00900526
0.00309439
0.00077403
0.000637504
0.00110768
0.0013023
0.00125402
0.00128463
0.00127947
0.00111061
0.000688638
0.000347811
0.000150352
5.41357e-05
1.70236e-05
5.25327e-06
1.45636e-06
3.24757e-07
0.0784821
0.069707
0.0494216
0.0287922
0.0142065
0.00605843
0.00199922
0.000565131
0.000573305
0.000924199
0.00114465
0.0010412
0.00110086
0.00124494
0.00116354
0.000773885
0.000353054
0.000127953
4.02074e-05
1.1417e-05
3.0618e-06
8.17037e-07
1.62681e-07
0.0725051
0.0599835
0.0385427
0.0197287
0.00932924
0.00411662
0.00141851
0.000453434
0.000459782
0.000658645
0.000902315
0.000887504
0.001014
0.00120986
0.00117079
0.0008061
0.000386068
0.000156877
4.42051e-05
1.0053e-05
1.92027e-06
2.57809e-07
0
0.0658362
0.0492053
0.0283246
0.0126542
0.00546999
0.00246201
0.000939712
0.000382148
0.000386684
0.000474978
0.000627043
0.000789204
0.00103715
0.00119697
0.00114106
0.000767147
0.000343441
0.00011735
2.56097e-05
3.47774e-06
0
0
0
0.0595425
0.0401958
0.0213294
0.0087897
0.00349889
0.00160851
0.000765431
0.000434204
0.000464698
0.000572964
0.000748219
0.00104559
0.00122579
0.00121254
0.00104568
0.00051676
0.000180289
4.73887e-05
6.56642e-06
0
0
0
0
0.0533519
0.0320917
0.0151454
0.00578831
0.00236719
0.00130754
0.000893253
0.000736969
0.000881566
0.00106607
0.00116626
0.00125136
0.00122276
0.000983016
0.000732092
0.000317627
9.37908e-05
1.72477e-05
1.10746e-07
0
0
0
0
0.0473442
0.0240963
0.0092329
0.00328925
0.00175964
0.0014133
0.00131124
0.00130501
0.0014166
0.00143032
0.00134065
0.00115563
0.000847332
0.000521765
0.000345051
0.000117113
2.80707e-05
3.48302e-06
0
0
0
0
0
0.0408101
0.0161644
0.00491789
0.00208582
0.00162576
0.00152525
0.00143146
0.00131438
0.00127019
0.00104173
0.000744489
0.000504488
0.000239283
0.000112406
7.50405e-05
1.68759e-05
0
0
0
0
0
0
0
0.0340422
0.0100899
0.00271229
0.00145669
0.00121008
0.001033
0.000795411
0.000583893
0.00051151
0.00034001
0.000206771
0.000119154
3.47175e-05
1.32002e-06
0
0
0
0
0
0
0
0
0
0.0237566
0.00395122
0.000888607
0.000521099
0.000373568
0.000280935
0.000189024
0.000120645
9.7543e-05
4.59422e-05
1.47727e-05
0
0
0
0
0
0
0
7.22138e-08
3.08286e-08
0
0
0
0.0095125
0.000643447
0.000108384
0.000100947
7.63259e-05
5.46697e-05
3.58283e-05
2.36963e-05
1.89421e-05
1.63943e-06
0
0
0
0
0
0
0
6.68459e-08
9.84849e-08
1.7497e-08
0
0
0
0.946189
0.950947
0.934029
0.831063
0.824339
0.865439
0.886417
0.832995
0.735111
0.78233
0.822823
0.798201
0.698026
0.736774
0.746863
0.698602
0.600879
0.60587
0.574652
0.495312
0.40556
0.38686
0.356941
0.311854
0.240372
0.220883
0.197459
0.177014
0.11917
0.110959
0.100558
0.0896156
0.0535921
0.049418
0.0446619
0.039485
0.024725
0.0233379
0.0219388
0.0199257
0.0100685
0.00974107
0.00972095
0.00930757
0.00371492
0.00354201
0.00351737
0.00340736
0.00146468
0.00131385
0.00123896
0.00113549
0.000617736
0.000548989
0.000511184
0.000452122
0.000210374
0.000204058
0.000201301
0.000185778
3.93664e-05
4.96823e-05
5.84141e-05
5.94278e-05
0
0
4.77291e-06
7.47961e-06
0
0
0
0
0
0
0
0
7.87588e-07
0
0
0
1.08491e-06
2.84827e-07
0
0
2.9351e-06
1.17734e-06
4.25224e-07
1.42901e-07
1.13157e-06
3.50307e-07
8.68252e-08
2.0438e-08
6.20931e-07
1.27075e-07
0
0
2.79155e-08
0
0
0
0
0
0
0
0
0
0
0
0
0
0
0
0
0
0
0
2.63935e-08
0
0
0
3.86012e-08
0
0
0
6.60336e-08
0
0
0
0
0
0
0
0
0
0
0
0
0
0
0
0
0
0
0
0
0
0
0
0
0
0
0
0
0
0
0
0
0
0
0
0
0
0
0
0
0
0
0
0.409695
0.36195
0.383805
0.382292
0.329737
0.263351
0.24105
0.221559
0.220046
0.217671
0.212304
0.209475
0.213424
0.240577
0.32692
0.484288
0.570615
0.560263
0.475202
0.512588
0.383265
0.390057
0.360879
0.267461
0.227274
0.213792
0.198532
0.186627
0.185761
0.196153
0.207171
0.223495
0.288275
0.406872
0.508285
0.575513
0.548765
0.459459
0.592879
0.413978
0.355985
0.273613
0.230687
0.22
0.215072
0.202121
0.189854
0.208024
0.263353
0.282642
0.299484
0.378311
0.43156
0.420506
0.500358
0.493741
0.420824
0.527954
0.381543
0.266807
0.212331
0.205077
0.215685
0.226522
0.223387
0.239209
0.276245
0.303868
0.319829
0.357424
0.346422
0.284725
0.232924
0.312981
0.363419
0.360644
0.352068
0.247584
0.202223
0.183231
0.172736
0.166421
0.182767
0.17595
0.199107
0.20759
0.165777
0.157098
0.192586
0.154988
0.114166
0.101144
0.144685
0.200137
0.283306
0.242784
0.186228
0.155537
0.110958
0.0887347
0.0765894
0.0814262
0.0762929
0.0782426
0.0733936
0.0570241
0.0512252
0.05696
0.0416261
0.034608
0.0382485
0.0642093
0.112091
0.201415
0.150262
0.112204
0.0850387
0.0581853
0.0464895
0.037732
0.0381314
0.0364671
0.03163
0.0246246
0.0188952
0.0155224
0.0141546
0.0113627
0.0117773
0.0163117
0.0318002
0.0645841
0.120407
0.0739643
0.052872
0.040332
0.0300762
0.0260684
0.022525
0.0232353
0.0211832
0.016399
0.0122661
0.00896672
0.00655895
0.00528532
0.00464046
0.00450058
0.00529007
0.00980679
0.0232659
0.0518372
0.0323962
0.0243448
0.0194884
0.0160471
0.0155756
0.0149894
0.0160334
0.0153087
0.0122764
0.00920866
0.00613074
0.00428522
0.0034145
0.00276242
0.00223525
0.0019126
0.00220653
0.00472255
0.0142644
0.0165236
0.0126465
0.0106476
0.00853325
0.00856133
0.00897119
0.0102903
0.011261
0.0107875
0.00939569
0.00691031
0.00483099
0.00355251
0.00265325
0.00190089
0.00139418
0.00114667
0.00117517
0.00237479
0.00801566
0.00587296
0.00489711
0.00412895
0.00401988
0.00418854
0.00516788
0.00687193
0.00811715
0.00852642
0.00747879
0.00608486
0.00478031
0.00358431
0.00230236
0.00154085
0.00107398
0.000875264
0.000880973
0.00302678
0.00235716
0.00188677
0.00169236
0.00163128
0.00171146
0.00213618
0.00320661
0.00464741
0.00567732
0.00614411
0.00609471
0.00556837
0.00463655
0.0030593
0.00181559
0.00107323
0.00078401
0.000750278
0.000953198
0.000791143
0.000643528
0.000589071
0.000585276
0.000645346
0.000730193
0.00110804
0.00190503
0.00268165
0.00350622
0.00417544
0.00455463
0.00436313
0.00307557
0.00166226
0.000911714
0.000679941
0.000653491
0.000329196
0.000247679
0.000199027
0.000173092
0.000190821
0.000243819
0.000243519
0.000327922
0.000626967
0.000938627
0.00140618
0.0020539
0.00285452
0.00349135
0.00280396
0.00162165
0.00083446
0.000601716
0.000586069
0.00012957
7.80277e-05
5.28799e-05
4.27113e-05
5.17262e-05
8.41428e-05
9.94001e-05
0.000107267
0.000167493
0.000239929
0.000415365
0.000792415
0.00144619
0.00225038
0.00200016
0.00141298
0.000730317
0.000513464
0.000538752
4.83952e-05
2.42387e-05
9.39879e-06
6.46579e-06
9.96812e-06
2.45715e-05
4.51111e-05
4.34099e-05
4.17991e-05
4.67634e-05
8.37444e-05
0.000196966
0.000483285
0.00108258
0.00105576
0.000942424
0.00054456
0.000424089
0.000501654
9.21908e-06
4.09879e-06
0
0
0
4.46583e-06
1.60944e-05
1.75242e-05
1.40717e-05
1.13857e-05
1.34116e-05
2.51568e-05
0.000101119
0.000365306
0.000399594
0.000403554
0.000314427
0.00034594
0.000470878
0
0
0
0
0
0
3.23477e-06
5.18552e-06
4.59527e-06
4.10225e-06
3.74679e-06
1.65778e-06
9.11705e-06
7.15175e-05
0.00010889
0.000132083
0.000171502
0.000290445
0.000445318
0
0
0
0
0
0
0
6.43329e-07
6.67088e-07
7.98164e-07
1.13555e-06
4.82771e-07
0
9.40938e-06
1.77381e-05
4.41489e-05
0.00010852
0.000258549
0.000423218
0
0
0
0
0
0
0
0
0
0
0
0
0
0
1.14049e-06
2.12351e-05
8.67709e-05
0.000239489
0.000402899
0
0
0
0
0
0
0
0
0
0
0
0
0
0
0
1.54535e-05
7.65849e-05
0.000223471
0.000382917
4.46013e-08
1.82542e-08
1.88072e-08
2.01917e-08
1.20519e-08
0
0
0
0
0
0
0
0
0
0
1.01941e-05
6.3992e-05
0.000206271
0.000363737
2.49517e-08
2.68176e-08
2.33952e-08
2.03696e-08
1.61284e-08
1.25255e-09
0
0
0
0
0
0
0
0
0
9.08726e-06
5.97742e-05
0.000193464
0.000345387
4.23838e-10
8.04242e-09
6.66945e-09
3.81763e-09
0
0
0
0
0
0
0
0
0
0
0
6.1197e-06
5.10683e-05
0.000179485
0.000328492
0
0
0
0
0
0
0
0
0
0
0
0
0
0
0
4.10232e-06
4.23759e-05
0.000163418
0.000313306
0
0
0
0
0
0
0
0
0
0
0
0
0
0
0
3.19963e-06
4.0014e-05
0.00015491
0.000297141
0
0
0
0
0
0
0
0
0
0
0
0
0
0
0
2.83431e-06
3.66505e-05
0.000142692
0.000281418
0
0
0
0
0
0
0
0
0
0
0
0
0
0
0
2.06693e-06
3.05509e-05
0.000125673
0.000266623
0
0
0
0
0
0
0
0
4.2295e-08
3.59502e-07
4.55013e-07
2.88301e-07
6.61509e-09
0
0
8.92228e-07
2.32368e-05
0.00010908
0.000253903
0
0
0
0
0
0
6.47047e-08
9.34909e-07
2.24705e-06
2.80818e-06
2.64407e-06
1.99339e-06
1.30706e-06
4.36431e-07
0
2.79157e-07
1.69105e-05
9.35217e-05
0.00024779
0
0
0
0
0
2.30634e-07
1.59452e-06
3.84174e-06
6.6901e-06
7.52145e-06
7.1629e-06
5.9975e-06
4.47887e-06
2.14057e-06
0
4.24418e-07
1.84151e-05
0.000108108
0.000253808
0
0
0
0
0
1.71382e-06
4.23332e-06
9.09288e-06
1.44691e-05
1.56748e-05
1.53089e-05
1.26686e-05
9.85315e-06
6.20279e-06
1.87708e-06
1.69963e-06
2.18985e-05
0.000110398
0.000245762
0
0
0
0
1.82374e-06
5.88374e-06
1.13166e-05
1.9946e-05
2.84514e-05
3.00322e-05
2.8608e-05
2.35962e-05
1.74081e-05
1.0486e-05
3.40105e-06
2.69894e-06
2.29607e-05
0.000109022
0.00024984
0
0
0
7.43386e-07
5.83108e-06
1.39315e-05
2.49853e-05
3.4577e-05
4.32813e-05
4.64996e-05
4.31525e-05
3.40004e-05
2.39632e-05
1.48742e-05
5.17307e-06
3.75558e-06
2.56933e-05
0.000130423
0.000262702
0
0
0
2.52027e-06
9.05606e-06
2.04024e-05
3.81958e-05
5.08773e-05
5.92777e-05
6.02609e-05
5.58429e-05
4.57916e-05
3.23881e-05
1.86643e-05
6.7974e-06
4.8073e-06
2.61782e-05
0.000126152
0.000246412
0
0
3.1108e-07
4.95616e-06
1.39636e-05
2.74663e-05
4.88864e-05
6.45196e-05
7.12726e-05
7.02772e-05
6.62848e-05
5.63158e-05
3.97862e-05
2.32753e-05
8.77913e-06
5.94155e-06
2.57028e-05
0.000113551
0.00021177
0
0
1.6525e-06
7.4627e-06
1.81622e-05
3.27802e-05
5.55709e-05
7.23743e-05
7.46365e-05
7.06467e-05
6.73536e-05
6.10253e-05
4.59124e-05
2.70159e-05
1.1073e-05
7.22626e-06
2.55126e-05
9.59201e-05
0.000185841
0
3.69838e-07
4.58887e-06
1.29613e-05
2.81296e-05
4.64841e-05
6.52562e-05
7.45711e-05
6.93175e-05
6.2735e-05
6.14543e-05
6.01546e-05
4.92866e-05
3.11359e-05
1.48261e-05
8.97705e-06
2.5317e-05
0.000103552
0.000206036
0
1.29604e-06
7.30255e-06
1.85076e-05
3.74676e-05
6.03391e-05
7.27548e-05
7.13707e-05
6.08861e-05
5.35871e-05
5.2617e-05
5.7087e-05
5.13296e-05
3.57825e-05
2.03461e-05
1.13371e-05
2.65851e-05
9.79088e-05
0.000193187
0
2.06933e-06
9.45094e-06
2.24204e-05
4.31147e-05
6.56929e-05
7.4081e-05
6.516e-05
5.24127e-05
4.62408e-05
4.52104e-05
5.10925e-05
5.07075e-05
4.07073e-05
2.62167e-05
1.38218e-05
2.66604e-05
8.3512e-05
0.000162449
0
2.93895e-06
1.13392e-05
2.15836e-05
3.53353e-05
5.6558e-05
7.05571e-05
6.27235e-05
4.99119e-05
4.237e-05
4.02236e-05
4.39197e-05
4.71702e-05
3.96828e-05
2.67886e-05
1.60812e-05
2.64585e-05
7.41165e-05
0.000149145
0
3.13207e-06
1.24523e-05
2.14754e-05
3.0676e-05
4.43618e-05
6.30774e-05
6.29491e-05
4.98273e-05
3.99109e-05
3.6497e-05
3.67417e-05
3.93861e-05
3.45643e-05
2.38665e-05
1.62762e-05
2.3903e-05
5.47807e-05
0.000115813
)
;

boundaryField
{
    leftWall
    {
        type            zeroGradient;
    }
    rightWall
    {
        type            zeroGradient;
    }
    lowerWall
    {
        type            zeroGradient;
    }
    atmosphere
    {
        type            inletOutlet;
        inletValue      uniform 0;
        value           nonuniform List<scalar> 
46
(
0.0095125
0.000643447
0.000108384
0.000100947
7.63259e-05
5.46697e-05
3.58283e-05
2.36963e-05
1.89421e-05
1.63943e-06
0
0
0
0
0
0
0
6.68459e-08
9.84849e-08
1.7497e-08
0
0
0
0
0
0
0
0
3.13207e-06
1.24523e-05
2.14754e-05
3.0676e-05
4.43618e-05
6.30774e-05
6.29491e-05
4.98273e-05
3.99109e-05
3.6497e-05
3.67417e-05
3.93861e-05
3.45643e-05
2.38665e-05
1.62762e-05
2.3903e-05
5.47807e-05
0.000115813
)
;
    }
    defaultFaces
    {
        type            empty;
    }
}


// ************************************************************************* //
