/*--------------------------------*- C++ -*----------------------------------*\
| =========                 |                                                 |
| \\      /  F ield         | foam-extend: Open Source CFD                    |
|  \\    /   O peration     | Version:     4.1                                |
|   \\  /    A nd           | Web:         http://www.foam-extend.org         |
|    \\/     M anipulation  |                                                 |
\*---------------------------------------------------------------------------*/
FoamFile
{
    version     2.0;
    format      ascii;
    class       volScalarField;
    location    "0.95";
    object      C;
}
// * * * * * * * * * * * * * * * * * * * * * * * * * * * * * * * * * * * * * //

dimensions      [0 0 0 0 0 0 0];

internalField   nonuniform List<scalar> 
2268
(
0.992303
0.987791
0.981749
0.979196
0.980498
0.982975
0.985008
0.986037
0.986434
0.986711
0.987565
0.989568
0.993642
0.997181
0.999947
1.00228
1.00276
1.00323
1.0058
1.00771
1.00768
1.00736
1.00741
0.988978
0.984253
0.977993
0.975718
0.977671
0.9808
0.983408
0.984687
0.985136
0.985476
0.986312
0.98818
0.991944
0.993527
0.994878
0.996795
0.996677
0.997703
1.00286
1.00655
1.00735
1.00753
1.00783
0.981687
0.97648
0.969912
0.968293
0.971718
0.97617
0.979879
0.98156
0.982117
0.982493
0.982683
0.982878
0.983439
0.978959
0.976826
0.97887
0.978831
0.982914
0.994815
1.00329
1.00605
1.0077
1.00881
0.970608
0.964795
0.957973
0.957471
0.963204
0.969477
0.974383
0.976234
0.976653
0.976713
0.974196
0.968494
0.958254
0.940043
0.93114
0.936073
0.941034
0.954734
0.978463
0.996127
1.00248
1.00728
1.01037
0.955864
0.949517
0.94271
0.94392
0.952516
0.960733
0.966196
0.967511
0.966708
0.96497
0.955587
0.93449
0.899325
0.853973
0.829968
0.847187
0.870185
0.904811
0.946502
0.98122
0.99332
1.00449
1.01204
0.937537
0.930924
0.924643
0.928105
0.939749
0.9493
0.953902
0.952682
0.94814
0.940271
0.916438
0.86437
0.782737
0.690206
0.642737
0.688573
0.74956
0.818288
0.887757
0.949973
0.971347
0.994715
1.01189
0.91566
0.909219
0.904086
0.910103
0.924194
0.9334
0.934736
0.926759
0.912591
0.889812
0.839815
0.736151
0.592163
0.444336
0.372923
0.451546
0.562469
0.679737
0.783027
0.885186
0.924083
0.968558
1.00572
0.890134
0.884419
0.880732
0.888726
0.903321
0.910105
0.904374
0.882063
0.84561
0.791588
0.701388
0.532485
0.346836
0.177527
0.108671
0.19085
0.323747
0.481589
0.608256
0.762465
0.833381
0.909813
0.981872
-0.199278
-0.183459
-0.177059
-0.161546
-0.146483
-0.111129
-0.0791195
-0.0537104
-0.0271144
0.0234848
0.0393421
0.0425142
0.0394812
0.0380719
0.037401
-0.00361885
0.0573423
0.0727646
0.0759078
-0.204204
-0.201485
-0.214602
-0.209158
-0.203937
-0.187756
-0.163135
-0.139485
-0.127308
-0.0551068
-0.00883732
0.0205945
0.0375201
0.0519088
0.0633125
0.00692966
0.0325953
0.0308822
0.0278859
-0.212881
-0.228501
-0.251271
-0.240268
-0.232312
-0.247748
-0.260305
-0.247877
-0.262711
-0.195864
-0.121657
-0.0539744
-0.00130212
0.0445159
0.0865296
0.0314392
0.00744908
-0.0233432
-0.0393143
-0.22282
-0.247399
-0.249771
-0.216909
-0.203459
-0.256565
-0.309957
-0.317483
-0.354342
-0.332167
-0.265139
-0.17751
-0.0954348
-0.0196123
0.0705422
0.0653485
0.0108818
-0.0509559
-0.0884523
-0.229156
-0.25488
-0.211464
-0.162552
-0.167582
-0.248813
-0.322697
-0.344848
-0.389025
-0.418767
-0.385836
-0.311164
-0.227137
-0.138899
-0.00775493
0.0830172
0.0371307
-0.0421851
-0.108002
-0.233694
-0.251515
-0.17066
-0.126065
-0.167123
-0.274956
-0.342449
-0.366327
-0.402299
-0.454955
-0.456724
-0.419683
-0.357427
-0.27461
-0.124848
0.0715909
0.0724484
-0.00694612
-0.103539
-0.243499
-0.248557
-0.158255
-0.131635
-0.211878
-0.342959
-0.393297
-0.417765
-0.435798
-0.475898
-0.498424
-0.489597
-0.458009
-0.390914
-0.238195
0.034933
0.102692
0.0371792
-0.0823765
-0.257469
-0.253908
-0.176582
-0.174679
-0.264355
-0.404721
-0.450926
-0.484012
-0.487179
-0.505826
-0.529692
-0.534891
-0.522038
-0.468822
-0.317522
-0.0125243
0.121362
0.075657
-0.0613641
0.844348
0.8404
0.838263
0.846505
0.858046
0.857225
0.832198
0.769711
0.665551
0.5253
0.360073
0.131735
-0.000363364
-0.0880312
-0.118414
-0.0866758
-0.0200846
0.100195
0.24548
0.450852
0.605436
0.745164
0.8873
0.767236
0.763559
0.755621
0.749716
0.747341
0.724542
0.642276
0.468369
0.204993
-0.0560325
-0.168769
-0.189377
-0.161979
-0.125257
-0.0695609
-0.0309643
-0.00875225
-0.0528431
-0.0334287
-0.00690261
0.149648
0.308975
0.525454
0.647625
0.635641
0.602909
0.554643
0.500683
0.41733
0.233979
-0.0036324
-0.200443
-0.267536
-0.257301
-0.189173
-0.159561
-0.0815695
0.0251585
0.0731799
0.0939122
0.102711
0.0938368
0.087223
0.166002
0.261178
0.369725
0.367081
0.351903
0.299794
0.212597
0.121722
-0.0428348
-0.252864
-0.313281
-0.35268
-0.323923
-0.319898
-0.342595
-0.397721
-0.374733
-0.217437
-0.0919507
0.0288465
0.127529
0.160207
0.167836
0.180798
0.244557
0.298562
-0.17294
-0.217515
-0.205674
-0.246654
-0.244556
-0.269524
-0.43068
-0.453585
-0.478508
-0.446073
-0.468056
-0.516403
-0.54549
-0.541461
-0.481093
-0.421148
-0.31728
-0.227651
-0.159369
-0.110081
-0.0526378
0.0772927
0.158415
-0.491125
-0.511896
-0.515954
-0.522661
-0.491049
-0.440683
-0.544675
-0.54663
-0.538733
-0.536315
-0.574551
-0.585432
-0.582514
-0.566686
-0.551013
-0.530645
-0.502349
-0.486293
-0.456806
-0.375203
-0.293061
-0.207292
-0.169432
-0.555673
-0.565078
-0.585234
-0.597809
-0.589497
-0.564884
-0.614005
-0.578028
-0.563277
-0.578878
-0.597406
-0.603109
-0.611186
-0.620055
-0.630711
-0.636249
-0.634443
-0.636324
-0.632501
-0.57487
-0.53513
-0.509397
-0.482746
-0.564722
-0.574312
-0.598325
-0.627591
-0.636233
-0.628463
-0.62505
-0.582552
-0.574256
-0.602655
-0.625943
-0.649707
-0.690984
-0.722212
-0.748562
-0.767051
-0.774976
-0.768014
-0.771081
-0.768861
-0.756184
-0.751842
-0.749181
-0.569384
-0.583254
-0.608527
-0.631514
-0.638368
-0.633121
-0.612837
-0.586058
-0.592271
-0.63266
-0.668483
-0.727527
-0.789046
-0.825829
-0.852372
-0.867492
-0.875451
-0.866674
-0.870245
-0.882654
-0.884865
-0.87467
-0.882299
-0.574618
-0.588917
-0.603904
-0.616781
-0.621395
-0.615756
-0.597764
-0.593348
-0.621934
-0.670549
-0.717643
-0.801215
-0.864906
-0.89964
-0.922717
-0.932209
-0.934322
-0.930781
-0.932295
-0.940909
-0.945896
-0.93792
-0.944889
-0.578879
-0.595806
-0.602708
-0.606003
-0.607297
-0.607444
-0.601239
-0.610993
-0.64824
-0.717234
-0.791865
-0.871571
-0.92399
-0.949387
-0.962028
-0.966881
-0.968001
-0.968237
-0.970538
-0.973668
-0.974929
-0.970075
-0.977014
-0.584717
-0.612393
-0.617505
-0.613646
-0.615328
-0.618013
-0.625146
-0.663364
-0.703042
-0.785814
-0.873801
-0.928215
-0.959063
-0.973998
-0.982016
-0.984176
-0.984216
-0.985375
-0.987817
-0.98936
-0.989619
-0.98762
-0.991279
-0.594651
-0.635911
-0.650883
-0.65027
-0.658879
-0.662827
-0.687729
-0.736608
-0.76067
-0.842209
-0.914702
-0.947996
-0.965077
-0.976257
-0.985564
-0.990865
-0.99242
-0.993462
-0.994993
-0.996015
-0.996088
-0.995208
-0.996421
-0.600118
-0.659744
-0.700024
-0.722801
-0.740543
-0.744104
-0.779217
-0.8219
-0.812039
-0.87695
-0.924316
-0.951611
-0.968678
-0.978109
-0.984619
-0.990916
-0.994722
-0.99665
-0.997904
-0.998686
-0.998733
-0.998424
-0.998526
-0.601876
-0.673002
-0.736577
-0.777151
-0.804331
-0.831266
-0.862655
-0.891076
-0.879484
-0.907819
-0.93612
-0.955688
-0.972818
-0.984165
-0.989071
-0.992159
-0.994962
-0.996854
-0.99829
-0.999289
-0.999592
-0.9996
-0.999553
-0.603752
-0.679362
-0.760562
-0.813109
-0.843078
-0.867352
-0.897424
-0.91644
-0.91951
-0.927945
-0.941529
-0.957445
-0.973013
-0.985681
-0.99242
-0.995259
-0.996999
-0.99823
-0.999167
-0.999707
-0.999898
-0.999957
-0.999944
-0.606525
-0.683983
-0.77202
-0.825933
-0.856302
-0.88213
-0.902555
-0.916694
-0.927966
-0.937667
-0.947329
-0.958523
-0.97248
-0.984852
-0.993032
-0.996526
-0.998066
-0.999013
-0.999585
-0.999863
-0.999982
-1.00002
-1.00002
-0.609627
-0.684941
-0.773308
-0.832703
-0.866575
-0.892709
-0.909967
-0.926626
-0.943311
-0.950524
-0.9578
-0.965952
-0.973207
-0.981054
-0.990254
-0.99631
-0.998538
-0.999386
-0.999761
-0.999919
-0.999983
-1.00001
-1.00002
-0.614528
-0.688076
-0.774254
-0.842108
-0.878096
-0.897494
-0.912771
-0.934863
-0.958491
-0.967292
-0.971512
-0.972452
-0.97321
-0.97767
-0.98693
-0.994906
-0.99806
-0.999201
-0.999671
-0.999867
-0.999955
-0.999989
-1
-0.619095
-0.688929
-0.772266
-0.839691
-0.878337
-0.896714
-0.905618
-0.935319
-0.96618
-0.97875
-0.986151
-0.984757
-0.982061
-0.98232
-0.986667
-0.992653
-0.996328
-0.998407
-0.99934
-0.999751
-0.999914
-0.999973
-0.999993
-0.623476
-0.687041
-0.758324
-0.826486
-0.868304
-0.881334
-0.888007
-0.935871
-0.971375
-0.986627
-0.992759
-0.992334
-0.989667
-0.986034
-0.986609
-0.989585
-0.993206
-0.996462
-0.998573
-0.99953
-0.99985
-0.999961
-0.999992
-0.627466
-0.676826
-0.728453
-0.801802
-0.843887
-0.852158
-0.862512
-0.927138
-0.971485
-0.989417
-0.994832
-0.995085
-0.993471
-0.989491
-0.987629
-0.988502
-0.991058
-0.994783
-0.997647
-0.999123
-0.999744
-0.999934
-0.999983
-0.633188
-0.668259
-0.705422
-0.765778
-0.804799
-0.811984
-0.833115
-0.900577
-0.956401
-0.986579
-0.99534
-0.995605
-0.994132
-0.99088
-0.988777
-0.989154
-0.991458
-0.995247
-0.998116
-0.999369
-0.999836
-0.999961
-0.999992
-0.642046
-0.670368
-0.699727
-0.737189
-0.768086
-0.780392
-0.80482
-0.868916
-0.942013
-0.984126
-0.995913
-0.995771
-0.994027
-0.991745
-0.99081
-0.991394
-0.993152
-0.995654
-0.998134
-0.999413
-0.999855
-0.99997
-0.999994
-0.656117
-0.684696
-0.711489
-0.732034
-0.74807
-0.76214
-0.791928
-0.85613
-0.934187
-0.983183
-0.997137
-0.99608
-0.994233
-0.994054
-0.994693
-0.996084
-0.997746
-0.998789
-0.99942
-0.999801
-0.999959
-0.999994
-0.999999
-0.680375
-0.718965
-0.746714
-0.743184
-0.75105
-0.763621
-0.795918
-0.862034
-0.94104
-0.990737
-0.998539
-0.997439
-0.99669
-0.997505
-0.998088
-0.99895
-0.999676
-0.999901
-0.999951
-0.999986
-1
-1
-1
-0.718274
-0.756787
-0.780039
-0.7682
-0.77362
-0.794467
-0.853709
-0.923362
-0.973869
-0.995623
-0.998772
-0.998369
-0.998338
-0.99892
-0.999455
-0.999857
-1.00003
-1.00004
-1.00001
-1
-1
-1
-1
-0.761909
-0.784709
-0.805803
-0.809069
-0.820909
-0.848727
-0.913206
-0.961846
-0.987982
-0.997635
-0.99878
-0.998584
-0.998758
-0.999021
-0.999634
-0.999941
-0.999983
-0.999984
-0.999988
-0.999995
-0.999998
-1
-1
-0.793566
-0.808724
-0.833888
-0.858013
-0.893558
-0.922467
-0.961738
-0.984803
-0.995906
-0.998744
-0.998215
-0.997926
-0.997997
-0.998191
-0.998986
-0.999642
-0.999821
-0.999902
-0.999955
-0.999983
-0.999995
-0.999999
-1
-0.810912
-0.819997
-0.847696
-0.885123
-0.931058
-0.960981
-0.984884
-0.996225
-0.998399
-0.997964
-0.997498
-0.997405
-0.9975
-0.997746
-0.998471
-0.999321
-0.999628
-0.999811
-0.999919
-0.99997
-0.999991
-0.999998
-1
-0.822827
-0.832092
-0.864141
-0.905652
-0.950163
-0.977485
-0.992323
-0.998221
-0.998693
-0.99776
-0.997329
-0.997274
-0.997341
-0.997509
-0.998014
-0.998922
-0.999424
-0.999736
-0.999896
-0.999964
-0.99999
-0.999998
-1
-0.832606
-0.844834
-0.88115
-0.923252
-0.959997
-0.981989
-0.993811
-0.998452
-0.998725
-0.997785
-0.997395
-0.997492
-0.997431
-0.997441
-0.997779
-0.998623
-0.999304
-0.999699
-0.999892
-0.999966
-0.999989
-0.999997
-0.999999
-0.843036
-0.860586
-0.901157
-0.942416
-0.971587
-0.987883
-0.996002
-0.99887
-0.998853
-0.998152
-0.997711
-0.997918
-0.997798
-0.99751
-0.997673
-0.998452
-0.999294
-0.999744
-0.99992
-0.999977
-0.999994
-0.999998
-1
-0.85499
-0.880033
-0.922915
-0.960543
-0.981342
-0.991767
-0.997163
-0.999093
-0.99908
-0.998683
-0.998195
-0.998225
-0.997972
-0.99758
-0.997658
-0.998388
-0.999228
-0.999686
-0.999912
-0.99998
-0.999996
-0.999999
-1
-0.868328
-0.901589
-0.943351
-0.974692
-0.98906
-0.995076
-0.998121
-0.999236
-0.999227
-0.99905
-0.998746
-0.998422
-0.997926
-0.997606
-0.997718
-0.998466
-0.999313
-0.999765
-0.999949
-0.999993
-1
-1
-1
-0.880915
-0.919608
-0.957341
-0.982421
-0.993002
-0.996783
-0.998469
-0.999132
-0.999071
-0.998854
-0.998504
-0.997909
-0.997548
-0.997575
-0.997909
-0.998966
-0.999639
-0.999905
-0.999987
-1
-1
-1
-1
-0.893296
-0.935817
-0.969709
-0.988423
-0.995266
-0.997385
-0.998213
-0.998526
-0.998237
-0.997868
-0.997667
-0.997497
-0.997554
-0.998034
-0.998536
-0.999365
-0.999812
-0.999966
-1
-1
-1
-1
-1
-0.905312
-0.951807
-0.981534
-0.993422
-0.996481
-0.997173
-0.997378
-0.99739
-0.997167
-0.997139
-0.997319
-0.997689
-0.998305
-0.998956
-0.99931
-0.999766
-0.999944
-0.999993
-1
-1
-1
-1
-1
-0.91838
-0.967671
-0.990164
-0.995828
-0.996748
-0.99695
-0.997137
-0.997371
-0.99746
-0.997917
-0.998511
-0.998991
-0.999521
-0.999775
-0.99985
-0.999966
-1
-1
-1
-1
-1
-1
-1
-0.931916
-0.97982
-0.994575
-0.997087
-0.99758
-0.997934
-0.998409
-0.998832
-0.998977
-0.99932
-0.999586
-0.999762
-0.999931
-0.999997
-1
-1.00001
-1.00001
-1
-1
-1
-1
-1
-1
-0.952487
-0.992098
-0.998223
-0.998958
-0.999253
-0.999438
-0.999622
-0.999759
-0.999805
-0.999908
-0.99997
-1
-1.00003
-1.00003
-1.00002
-1.00001
-1
-1
-1
-1
-1
-1
-1
-0.980975
-0.998713
-0.999783
-0.999798
-0.999847
-0.999891
-0.999928
-0.999953
-0.999962
-0.999997
-1.00002
-1.00003
-1.00004
-1.00003
-1.00002
-1.00001
-1
-1
-1
-1
-1
-1
-1
0.892377
0.901894
0.868058
0.662126
0.648678
0.730877
0.772834
0.66599
0.470221
0.564661
0.645646
0.596403
0.396053
0.473548
0.493726
0.397205
0.201757
0.211741
0.149303
-0.00937531
-0.18888
-0.226281
-0.286117
-0.376291
-0.519256
-0.558235
-0.605083
-0.645972
-0.761659
-0.778082
-0.798885
-0.820769
-0.892816
-0.901164
-0.910676
-0.92103
-0.95055
-0.953324
-0.956122
-0.960149
-0.979863
-0.980518
-0.980558
-0.981385
-0.99257
-0.992916
-0.992965
-0.993185
-0.997071
-0.997372
-0.997522
-0.997729
-0.998765
-0.998902
-0.998978
-0.999096
-0.999579
-0.999592
-0.999597
-0.999628
-0.999921
-0.999901
-0.999883
-0.999881
-1.00001
-1
-0.99999
-0.999985
-1.00002
-1.00002
-1.00001
-1.00001
-1.00001
-1.00001
-1.00001
-1.00001
-0.999998
-1
-1
-1
-0.999998
-0.999999
-1
-1
-0.999994
-0.999998
-0.999999
-1
-0.999998
-0.999999
-1
-1
-0.999999
-1
-1
-1
-1
-1
-1
-1
-1
-1
-1
-1
-1
-1
-1
-1
-1
-1
-1
-1
-1
-1
-1
-1
-1
-1
-1
-1
-1
-1
-1
-1
-1
-1
-1
-1
-1
-1
-1
-1
-1
-1
-1
-1
-1
-1
-1
-1
-1
-1
-1
-1
-1
-1
-1
-1
-1
-1
-1
-1
-1
-1
-1
-1
-1
-1
-1
-1
-1
-1
-1
-1
-1
-1
-1
-1
-0.18061
-0.2761
-0.23239
-0.235416
-0.340526
-0.473298
-0.5179
-0.556883
-0.559908
-0.564659
-0.575392
-0.581049
-0.573152
-0.518847
-0.34616
-0.0314233
0.14123
0.120525
-0.0495957
0.0251761
-0.23347
-0.219886
-0.278242
-0.465077
-0.545452
-0.572416
-0.602936
-0.626745
-0.628478
-0.607695
-0.585658
-0.553009
-0.42345
-0.186256
0.01657
0.151026
0.097531
-0.0810812
0.185758
-0.172045
-0.28803
-0.452774
-0.538626
-0.56
-0.569856
-0.595758
-0.620292
-0.583951
-0.473293
-0.434715
-0.401032
-0.243378
-0.136881
-0.158988
0.00071548
-0.012519
-0.158353
0.055909
-0.236915
-0.466386
-0.575337
-0.589846
-0.56863
-0.546955
-0.553226
-0.521583
-0.447511
-0.392264
-0.360342
-0.285151
-0.307155
-0.43055
-0.534152
-0.374038
-0.273161
-0.278713
-0.295863
-0.504832
-0.595554
-0.633539
-0.654528
-0.667158
-0.634467
-0.648101
-0.601786
-0.58482
-0.668446
-0.685804
-0.614827
-0.690025
-0.771669
-0.797711
-0.71063
-0.599726
-0.433387
-0.514432
-0.627545
-0.688925
-0.778084
-0.822531
-0.846821
-0.837148
-0.847414
-0.843515
-0.853213
-0.885952
-0.89755
-0.88608
-0.916748
-0.930784
-0.923503
-0.871581
-0.775818
-0.59717
-0.699477
-0.775591
-0.829923
-0.883629
-0.907021
-0.924536
-0.923737
-0.927066
-0.93674
-0.950751
-0.96221
-0.968955
-0.971691
-0.977275
-0.976445
-0.967377
-0.9364
-0.870832
-0.759185
-0.852071
-0.894256
-0.919336
-0.939848
-0.947863
-0.95495
-0.953529
-0.957634
-0.967202
-0.975468
-0.982067
-0.986882
-0.989429
-0.990719
-0.990999
-0.98942
-0.980386
-0.953468
-0.896326
-0.935208
-0.95131
-0.961023
-0.967906
-0.968849
-0.970021
-0.967933
-0.969383
-0.975447
-0.981583
-0.987739
-0.99143
-0.993171
-0.994475
-0.99553
-0.996175
-0.995587
-0.990555
-0.971471
-0.966953
-0.974707
-0.978705
-0.982933
-0.982877
-0.982058
-0.979419
-0.977478
-0.978425
-0.981209
-0.986179
-0.990338
-0.992895
-0.994693
-0.996198
-0.997212
-0.997707
-0.99765
-0.99525
-0.983969
-0.988254
-0.990206
-0.991742
-0.99196
-0.991623
-0.989664
-0.986256
-0.983766
-0.982947
-0.985042
-0.98783
-0.990439
-0.992831
-0.995395
-0.996918
-0.997852
-0.998249
-0.998238
-0.993946
-0.995286
-0.996226
-0.996615
-0.996737
-0.996577
-0.995728
-0.993587
-0.990705
-0.988645
-0.987712
-0.987811
-0.988863
-0.990727
-0.993881
-0.996369
-0.997854
-0.998432
-0.998499
-0.998094
-0.998418
-0.998713
-0.998822
-0.998829
-0.998709
-0.99854
-0.997784
-0.99619
-0.994637
-0.992988
-0.991649
-0.990891
-0.991274
-0.993849
-0.996675
-0.998177
-0.99864
-0.998693
-0.999342
-0.999505
-0.999602
-0.999654
-0.999618
-0.999512
-0.999513
-0.999344
-0.998746
-0.998123
-0.997188
-0.995892
-0.994291
-0.993017
-0.994392
-0.996757
-0.998331
-0.998797
-0.998828
-0.999741
-0.999844
-0.999894
-0.999915
-0.999897
-0.999832
-0.999801
-0.999785
-0.999665
-0.99952
-0.999169
-0.998415
-0.997108
-0.995499
-0.996
-0.997174
-0.998539
-0.998973
-0.998922
-0.999903
-0.999952
-0.999981
-0.999987
-0.99998
-0.999951
-0.99991
-0.999913
-0.999916
-0.999906
-0.999833
-0.999606
-0.999033
-0.997835
-0.997888
-0.998115
-0.998911
-0.999152
-0.998997
-0.999982
-0.999992
-1
-1
-1
-0.999991
-0.999968
-0.999965
-0.999972
-0.999977
-0.999973
-0.99995
-0.999798
-0.999269
-0.999201
-0.999193
-0.999371
-0.999308
-0.999058
-1.00001
-1.00001
-1.00001
-1.00001
-1
-1
-0.999994
-0.99999
-0.999991
-0.999992
-0.999993
-0.999997
-0.999982
-0.999857
-0.999782
-0.999736
-0.999657
-0.999419
-0.999109
-1.00001
-1.00001
-1
-1
-1
-1
-1
-0.999999
-0.999999
-0.999998
-0.999998
-0.999999
-1
-0.999981
-0.999965
-0.999912
-0.999783
-0.999483
-0.999154
-1
-1
-1
-1
-1
-1
-1
-1
-1
-1
-1
-1
-1
-1
-0.999998
-0.999958
-0.999826
-0.999521
-0.999194
-1
-1
-1
-1
-1
-1
-1
-1
-1
-1
-1
-1
-1
-1
-1
-0.999969
-0.999847
-0.999553
-0.999234
-1
-1
-1
-1
-1
-1
-1
-1
-1
-1
-1
-1
-1
-1
-1
-0.99998
-0.999872
-0.999587
-0.999273
-1
-1
-1
-1
-1
-1
-1
-1
-1
-1
-1
-1
-1
-1
-1
-0.999982
-0.99988
-0.999613
-0.999309
-1
-1
-1
-1
-1
-1
-1
-1
-1
-1
-1
-1
-1
-1
-1
-0.999988
-0.999898
-0.999641
-0.999343
-1
-1
-1
-1
-1
-1
-1
-1
-1
-1
-1
-1
-1
-1
-1
-0.999992
-0.999915
-0.999673
-0.999373
-1
-1
-1
-1
-1
-1
-1
-1
-1
-1
-1
-1
-1
-1
-1
-0.999994
-0.99992
-0.99969
-0.999406
-1
-1
-1
-1
-1
-1
-1
-1
-1
-1
-1
-1
-1
-1
-1
-0.999994
-0.999927
-0.999715
-0.999437
-1
-1
-1
-1
-1
-1
-1
-1
-1
-1
-1
-1
-1
-1
-1
-0.999996
-0.999939
-0.999749
-0.999467
-1
-1
-1
-1
-1
-1
-1
-1
-1
-0.999999
-0.999999
-0.999999
-1
-1
-1
-0.999998
-0.999954
-0.999782
-0.999492
-1
-1
-1
-1
-1
-1
-1
-0.999998
-0.999996
-0.999994
-0.999995
-0.999996
-0.999997
-0.999999
-1
-0.999999
-0.999966
-0.999813
-0.999504
-1
-1
-1
-1
-1
-1
-0.999997
-0.999992
-0.999987
-0.999985
-0.999986
-0.999988
-0.999991
-0.999996
-1
-0.999999
-0.999963
-0.999784
-0.999492
-1
-1
-1
-1
-1
-0.999997
-0.999992
-0.999982
-0.999971
-0.999969
-0.999969
-0.999975
-0.99998
-0.999988
-0.999996
-0.999997
-0.999956
-0.999779
-0.999508
-1
-1
-1
-1
-0.999996
-0.999988
-0.999977
-0.99996
-0.999943
-0.99994
-0.999943
-0.999953
-0.999965
-0.999979
-0.999993
-0.999995
-0.999954
-0.999782
-0.9995
-1
-1
-1
-0.999999
-0.999988
-0.999972
-0.99995
-0.999931
-0.999913
-0.999907
-0.999914
-0.999932
-0.999952
-0.99997
-0.99999
-0.999992
-0.999949
-0.999739
-0.999475
-1
-1
-1
-0.999995
-0.999982
-0.999959
-0.999924
-0.999898
-0.999881
-0.999879
-0.999888
-0.999908
-0.999935
-0.999963
-0.999986
-0.99999
-0.999948
-0.999748
-0.999507
-1
-1
-0.999999
-0.99999
-0.999972
-0.999945
-0.999902
-0.999871
-0.999857
-0.999859
-0.999867
-0.999887
-0.99992
-0.999953
-0.999982
-0.999988
-0.999949
-0.999773
-0.999576
-1
-1
-0.999997
-0.999985
-0.999964
-0.999934
-0.999889
-0.999855
-0.999851
-0.999859
-0.999865
-0.999878
-0.999908
-0.999946
-0.999978
-0.999986
-0.999949
-0.999808
-0.999628
-1
-0.999999
-0.999991
-0.999974
-0.999944
-0.999907
-0.999869
-0.999851
-0.999861
-0.999875
-0.999877
-0.99988
-0.999901
-0.999938
-0.99997
-0.999982
-0.999949
-0.999793
-0.999588
-1
-0.999997
-0.999985
-0.999963
-0.999925
-0.999879
-0.999854
-0.999857
-0.999878
-0.999893
-0.999895
-0.999886
-0.999897
-0.999928
-0.999959
-0.999977
-0.999947
-0.999804
-0.999614
-1
-0.999996
-0.999981
-0.999955
-0.999914
-0.999869
-0.999852
-0.99987
-0.999895
-0.999908
-0.99991
-0.999898
-0.999899
-0.999919
-0.999948
-0.999972
-0.999947
-0.999833
-0.999675
-1
-0.999994
-0.999977
-0.999957
-0.999929
-0.999887
-0.999859
-0.999875
-0.9999
-0.999915
-0.99992
-0.999912
-0.999906
-0.999921
-0.999946
-0.999968
-0.999947
-0.999852
-0.999702
-1
-0.999994
-0.999975
-0.999957
-0.999939
-0.999911
-0.999874
-0.999874
-0.9999
-0.99992
-0.999927
-0.999927
-0.999921
-0.999931
-0.999952
-0.999967
-0.999952
-0.99989
-0.999768
)
;

boundaryField
{
    leftWall
    {
        type            zeroGradient;
    }
    rightWall
    {
        type            zeroGradient;
    }
    lowerWall
    {
        type            zeroGradient;
    }
    atmosphere
    {
        type            zeroGradient;
    }
    defaultFaces
    {
        type            empty;
    }
}


// ************************************************************************* //
