/*--------------------------------*- C++ -*----------------------------------*\
| =========                 |                                                 |
| \\      /  F ield         | foam-extend: Open Source CFD                    |
|  \\    /   O peration     | Version:     4.1                                |
|   \\  /    A nd           | Web:         http://www.foam-extend.org         |
|    \\/     M anipulation  |                                                 |
\*---------------------------------------------------------------------------*/
FoamFile
{
    version     2.0;
    format      ascii;
    class       volScalarField;
    location    "0.95";
    object      C_0;
}
// * * * * * * * * * * * * * * * * * * * * * * * * * * * * * * * * * * * * * //

dimensions      [0 0 0 0 0 0 0];

internalField   nonuniform List<scalar> 
2268
(
0.992404
0.987872
0.981817
0.979262
0.980569
0.98304
0.985052
0.986066
0.986461
0.986732
0.987575
0.989567
0.993621
0.997158
0.999934
1.00228
1.0028
1.0033
1.00587
1.00772
1.00767
1.00734
1.0074
0.989087
0.984338
0.978055
0.975779
0.97774
0.980869
0.983456
0.984722
0.985165
0.98549
0.986322
0.988199
0.991975
0.993577
0.994922
0.996841
0.996758
0.997825
1.00297
1.0066
1.00734
1.00751
1.00782
0.981815
0.97657
0.969964
0.968346
0.971785
0.976247
0.979939
0.981609
0.982152
0.982502
0.982711
0.982976
0.983635
0.979212
0.977016
0.979021
0.979001
0.983122
0.994995
1.00337
1.00606
1.00768
1.0088
0.970761
0.96489
0.95801
0.957521
0.963272
0.969565
0.974462
0.976309
0.97671
0.976741
0.974295
0.968778
0.9588
0.940702
0.931605
0.9364
0.941309
0.955017
0.978698
0.996238
1.00249
1.00726
1.01036
0.956044
0.949614
0.942734
0.943972
0.952594
0.960839
0.966311
0.967634
0.966827
0.965091
0.955852
0.935131
0.900472
0.855301
0.830846
0.84781
0.870548
0.905096
0.946738
0.981333
0.993316
1.00445
1.01201
0.937742
0.931019
0.924662
0.928174
0.939849
0.949433
0.954073
0.952902
0.948407
0.940639
0.917002
0.865568
0.784738
0.692436
0.643999
0.689644
0.749966
0.818443
0.887887
0.950035
0.971305
0.994657
1.01184
0.915882
0.909312
0.904115
0.910209
0.924332
0.933576
0.934991
0.927158
0.913179
0.890677
0.840816
0.738061
0.594939
0.447174
0.374145
0.452905
0.562796
0.679581
0.782901
0.885125
0.923978
0.968462
1.00562
0.890357
0.884507
0.880789
0.888896
0.903513
0.910334
0.904741
0.882775
0.846841
0.793283
0.70286
0.534985
0.349662
0.179985
0.1095
0.191693
0.323661
0.480975
0.607717
0.762165
0.833209
0.909694
0.981731
-0.199968
-0.18384
-0.177099
-0.161379
-0.146112
-0.110655
-0.078796
-0.0536289
-0.0277269
0.0225311
0.0383952
0.0415816
0.038468
0.0369604
0.0365213
-0.00415225
0.0578154
0.07367
0.0769691
-0.2049
-0.202101
-0.215271
-0.210056
-0.20513
-0.18792
-0.163185
-0.139315
-0.127729
-0.0557161
-0.00891147
0.0205916
0.0373764
0.051363
0.0629418
0.00618911
0.0325911
0.0315239
0.0290198
-0.213576
-0.229469
-0.252746
-0.24239
-0.234145
-0.248259
-0.26112
-0.247849
-0.263046
-0.196333
-0.120877
-0.0526341
-8.01416e-05
0.0451271
0.0872238
0.0306738
0.00666096
-0.0233748
-0.0383241
-0.223473
-0.248548
-0.251669
-0.2194
-0.205288
-0.256983
-0.310943
-0.317736
-0.354822
-0.332849
-0.264306
-0.175412
-0.0931077
-0.0176949
0.0729061
0.0651523
0.00961313
-0.0518018
-0.0879125
-0.229762
-0.255923
-0.212902
-0.163813
-0.166852
-0.247422
-0.322925
-0.345057
-0.389594
-0.419772
-0.38562
-0.30938
-0.224597
-0.136103
-0.00379702
0.0838721
0.0360641
-0.0436395
-0.10803
-0.23418
-0.252237
-0.171076
-0.125319
-0.164059
-0.271506
-0.34121
-0.365781
-0.402525
-0.456204
-0.457208
-0.418923
-0.355509
-0.271588
-0.119847
0.0741881
0.0721168
-0.008494
-0.10419
-0.243767
-0.248898
-0.158072
-0.129197
-0.207954
-0.339304
-0.391293
-0.416429
-0.435402
-0.476999
-0.499326
-0.489709
-0.456988
-0.388115
-0.232721
0.0393148
0.102646
0.036463
-0.083527
-0.257718
-0.254132
-0.176435
-0.172158
-0.261319
-0.402116
-0.449352
-0.482666
-0.486521
-0.506607
-0.530649
-0.53529
-0.521548
-0.466293
-0.311922
-0.00682549
0.122504
0.0748871
-0.0630685
0.844544
0.840474
0.838375
0.846806
0.858316
0.857545
0.832779
0.771182
0.66849
0.528703
0.361943
0.134097
0.00117321
-0.087513
-0.11867
-0.0869862
-0.0209752
0.0989578
0.244199
0.449992
0.605267
0.745124
0.887102
0.767336
0.763648
0.755783
0.750135
0.747509
0.724762
0.643192
0.471546
0.2105
-0.0527813
-0.168731
-0.189631
-0.162677
-0.126604
-0.0716929
-0.0325497
-0.00968124
-0.0540244
-0.034907
-0.0079701
0.150359
0.309844
0.52555
0.648348
0.636257
0.603049
0.554313
0.499582
0.416358
0.234133
-0.00151471
-0.199065
-0.26765
-0.258648
-0.189333
-0.159181
-0.0828336
0.0243469
0.072819
0.0939904
0.10278
0.0941027
0.0880012
0.168445
0.263696
0.371325
0.373459
0.355923
0.300771
0.210838
0.118369
-0.0469198
-0.255595
-0.314483
-0.354384
-0.324004
-0.319059
-0.34098
-0.396896
-0.375874
-0.218335
-0.0925096
0.0297403
0.129852
0.162808
0.170343
0.183002
0.245055
0.297456
-0.161292
-0.20929
-0.202044
-0.248375
-0.247849
-0.273894
-0.434585
-0.456138
-0.480354
-0.446547
-0.467016
-0.515408
-0.545491
-0.542606
-0.482453
-0.422441
-0.317348
-0.225903
-0.157394
-0.109278
-0.0541222
0.0732634
0.152825
-0.48666
-0.508959
-0.514591
-0.523696
-0.493422
-0.445174
-0.548795
-0.549016
-0.53924
-0.535676
-0.574282
-0.585755
-0.583282
-0.567374
-0.551282
-0.530745
-0.501804
-0.484906
-0.455085
-0.374816
-0.294274
-0.209384
-0.171476
-0.55471
-0.564435
-0.584857
-0.598394
-0.591615
-0.568728
-0.617266
-0.579021
-0.563373
-0.57855
-0.597274
-0.60292
-0.610543
-0.618825
-0.628916
-0.634162
-0.632052
-0.633527
-0.629712
-0.572965
-0.533861
-0.508445
-0.481707
-0.564322
-0.573824
-0.597558
-0.627595
-0.63741
-0.630793
-0.626596
-0.582927
-0.573985
-0.602319
-0.625327
-0.64846
-0.689044
-0.719791
-0.745698
-0.764169
-0.772098
-0.764878
-0.767956
-0.766023
-0.75379
-0.749707
-0.747292
-0.568998
-0.582432
-0.607399
-0.631033
-0.638515
-0.633894
-0.613148
-0.586084
-0.591974
-0.632211
-0.667515
-0.725948
-0.787533
-0.824237
-0.850549
-0.865637
-0.873493
-0.864549
-0.868099
-0.880782
-0.883091
-0.872503
-0.880905
-0.574301
-0.588289
-0.602989
-0.615858
-0.62041
-0.615334
-0.597541
-0.5933
-0.621835
-0.670194
-0.716836
-0.800389
-0.864384
-0.899101
-0.921955
-0.931405
-0.933383
-0.929714
-0.93114
-0.939853
-0.944883
-0.936691
-0.94397
-0.578652
-0.595627
-0.602533
-0.605904
-0.607271
-0.607433
-0.601488
-0.61137
-0.648557
-0.717125
-0.791383
-0.871331
-0.923946
-0.949355
-0.961893
-0.966664
-0.967695
-0.967808
-0.970053
-0.973171
-0.974418
-0.969451
-0.976535
-0.584465
-0.612665
-0.618056
-0.613949
-0.615678
-0.618783
-0.626304
-0.664557
-0.703761
-0.785961
-0.873672
-0.928194
-0.959255
-0.974286
-0.9822
-0.984206
-0.98417
-0.985261
-0.987668
-0.989169
-0.989396
-0.98736
-0.991087
-0.594317
-0.636461
-0.652358
-0.652042
-0.660931
-0.665133
-0.690033
-0.738508
-0.761925
-0.842992
-0.915094
-0.94829
-0.96537
-0.976614
-0.985961
-0.991088
-0.992507
-0.993482
-0.994972
-0.99596
-0.996004
-0.995107
-0.996343
-0.599681
-0.659978
-0.701839
-0.725555
-0.743863
-0.7475
-0.782121
-0.824197
-0.813667
-0.878236
-0.925297
-0.952408
-0.969182
-0.978362
-0.98496
-0.99127
-0.994946
-0.996751
-0.997944
-0.998693
-0.998713
-0.99839
-0.998497
-0.601534
-0.672835
-0.737559
-0.778898
-0.80654
-0.833446
-0.864341
-0.892447
-0.88091
-0.909035
-0.937176
-0.956718
-0.973639
-0.984599
-0.989255
-0.992393
-0.995165
-0.996996
-0.998387
-0.999335
-0.9996
-0.999595
-0.999545
-0.603537
-0.679033
-0.760928
-0.81397
-0.844241
-0.868526
-0.898181
-0.917029
-0.920156
-0.928636
-0.94231
-0.958382
-0.973924
-0.986282
-0.9927
-0.995407
-0.997132
-0.998346
-0.999237
-0.999738
-0.999909
-0.999959
-0.999943
-0.606434
-0.683677
-0.772139
-0.826389
-0.857021
-0.882921
-0.903096
-0.917133
-0.928365
-0.938081
-0.947817
-0.959166
-0.973281
-0.985552
-0.993437
-0.996708
-0.998177
-0.999085
-0.999624
-0.99988
-0.999988
-1.00003
-1.00003
-0.609641
-0.684683
-0.773275
-0.832945
-0.867105
-0.893142
-0.910225
-0.926787
-0.943305
-0.950515
-0.957838
-0.966113
-0.97359
-0.981601
-0.990808
-0.996557
-0.998635
-0.999429
-0.999778
-0.999926
-0.999985
-1.00001
-1.00002
-0.614637
-0.687929
-0.774122
-0.842216
-0.878352
-0.897657
-0.913053
-0.935191
-0.958522
-0.967163
-0.971181
-0.972087
-0.973044
-0.977972
-0.987392
-0.995162
-0.998167
-0.999244
-0.999689
-0.999875
-0.999958
-0.99999
-1
-0.619168
-0.688593
-0.771884
-0.839503
-0.878298
-0.896812
-0.906055
-0.935746
-0.966222
-0.978651
-0.985884
-0.984383
-0.981698
-0.982242
-0.986888
-0.992918
-0.996481
-0.998478
-0.99937
-0.999763
-0.999919
-0.999974
-0.999993
-0.623574
-0.686581
-0.757491
-0.825872
-0.86787
-0.881252
-0.888196
-0.936002
-0.971562
-0.986646
-0.992672
-0.992155
-0.989318
-0.985837
-0.98662
-0.989743
-0.993376
-0.996581
-0.998629
-0.999551
-0.999858
-0.999964
-0.999993
-0.627699
-0.676254
-0.727384
-0.800682
-0.842962
-0.851774
-0.862825
-0.927837
-0.972125
-0.989594
-0.994874
-0.995054
-0.993338
-0.989296
-0.987586
-0.988527
-0.991171
-0.99492
-0.997732
-0.999162
-0.999758
-0.999939
-0.999984
-0.633674
-0.66835
-0.705112
-0.764558
-0.803587
-0.811467
-0.833879
-0.902317
-0.957688
-0.986975
-0.995385
-0.995593
-0.994069
-0.990749
-0.988716
-0.989144
-0.991517
-0.995349
-0.998183
-0.999399
-0.999846
-0.999964
-0.999992
-0.642847
-0.670812
-0.700159
-0.736883
-0.767539
-0.780417
-0.805967
-0.871055
-0.943516
-0.984552
-0.995924
-0.995747
-0.993982
-0.991659
-0.990751
-0.991346
-0.993149
-0.995715
-0.998187
-0.999437
-0.999862
-0.999972
-0.999995
-0.657365
-0.685843
-0.712471
-0.73248
-0.748287
-0.762652
-0.793251
-0.858322
-0.935803
-0.983645
-0.997126
-0.996015
-0.994129
-0.993954
-0.994615
-0.996047
-0.997745
-0.99881
-0.999443
-0.999813
-0.999962
-0.999994
-0.999999
-0.682206
-0.720671
-0.747883
-0.743749
-0.751633
-0.764354
-0.797188
-0.863802
-0.94233
-0.99102
-0.998528
-0.997359
-0.996577
-0.997439
-0.998047
-0.998941
-0.999678
-0.999905
-0.999956
-0.999989
-1
-1
-1
-0.720548
-0.758382
-0.780844
-0.768706
-0.774273
-0.795466
-0.855327
-0.924824
-0.974586
-0.995796
-0.998778
-0.998351
-0.998312
-0.998915
-0.999451
-0.999858
-1.00003
-1.00004
-1.00001
-1
-1
-1
-1
-0.763653
-0.78578
-0.806453
-0.809577
-0.821556
-0.849791
-0.914624
-0.962824
-0.988404
-0.997743
-0.998791
-0.998594
-0.998764
-0.99904
-0.999642
-0.999943
-0.999984
-0.999984
-0.999988
-0.999995
-0.999998
-1
-1
-0.794407
-0.809339
-0.834511
-0.858651
-0.894123
-0.923108
-0.962331
-0.985188
-0.996058
-0.99877
-0.998234
-0.997947
-0.998013
-0.998202
-0.998997
-0.999647
-0.999824
-0.999903
-0.999955
-0.999983
-0.999995
-0.999999
-1
-0.811283
-0.820374
-0.848175
-0.885638
-0.931454
-0.961378
-0.985124
-0.996318
-0.998431
-0.997975
-0.997502
-0.997409
-0.997501
-0.997748
-0.998479
-0.999326
-0.999631
-0.999813
-0.99992
-0.99997
-0.999991
-0.999998
-1
-0.823013
-0.832367
-0.864542
-0.906105
-0.95049
-0.97772
-0.992444
-0.998257
-0.998709
-0.997767
-0.997328
-0.997271
-0.997333
-0.997505
-0.99802
-0.998929
-0.999429
-0.999738
-0.999897
-0.999965
-0.99999
-0.999998
-1
-0.832742
-0.84509
-0.88152
-0.923635
-0.960307
-0.982255
-0.99396
-0.998499
-0.998737
-0.997786
-0.997388
-0.997479
-0.997416
-0.997433
-0.997779
-0.99863
-0.999309
-0.999702
-0.999893
-0.999966
-0.99999
-0.999997
-0.999999
-0.843147
-0.860828
-0.901477
-0.942684
-0.971752
-0.988004
-0.996084
-0.9989
-0.998862
-0.99815
-0.997703
-0.997907
-0.997787
-0.997498
-0.99767
-0.998457
-0.999298
-0.999746
-0.99992
-0.999977
-0.999994
-0.999998
-1
-0.855081
-0.880239
-0.92315
-0.960705
-0.981443
-0.991848
-0.997217
-0.999113
-0.999088
-0.998683
-0.998188
-0.998219
-0.997965
-0.997571
-0.997654
-0.998392
-0.999233
-0.999689
-0.999913
-0.99998
-0.999996
-0.999999
-1
-0.868389
-0.901718
-0.943479
-0.974768
-0.989089
-0.9951
-0.998142
-0.999242
-0.999229
-0.999049
-0.998741
-0.998422
-0.997926
-0.997598
-0.997707
-0.998457
-0.999311
-0.999766
-0.999949
-0.999993
-1
-1
-1
-0.880954
-0.919658
-0.957385
-0.98245
-0.993006
-0.996784
-0.99847
-0.999134
-0.999069
-0.998853
-0.998505
-0.997912
-0.997539
-0.99756
-0.997894
-0.99896
-0.999638
-0.999906
-0.999987
-1
-1
-1
-1
-0.89331
-0.935799
-0.969685
-0.988419
-0.99526
-0.997379
-0.998211
-0.998521
-0.998234
-0.997866
-0.997665
-0.997488
-0.997534
-0.998006
-0.998515
-0.999355
-0.99981
-0.999965
-1
-1
-1
-1
-1
-0.905287
-0.95172
-0.981472
-0.993406
-0.996472
-0.997165
-0.997369
-0.997378
-0.997153
-0.997128
-0.997295
-0.99766
-0.998274
-0.99893
-0.999294
-0.999759
-0.999942
-0.999993
-1
-1
-1
-1
-1
-0.918282
-0.96752
-0.990092
-0.995803
-0.996733
-0.996934
-0.997116
-0.997346
-0.997432
-0.997884
-0.998479
-0.998966
-0.999507
-0.999767
-0.999846
-0.999965
-1
-1
-1
-1
-1
-1
-1
-0.931762
-0.979681
-0.994515
-0.997055
-0.997554
-0.997909
-0.998384
-0.99881
-0.998955
-0.9993
-0.999573
-0.999753
-0.999927
-0.999996
-1
-1.00001
-1.00001
-1
-1
-1
-1
-1
-1
-0.952239
-0.991991
-0.99818
-0.998937
-0.999242
-0.99943
-0.999615
-0.999753
-0.9998
-0.999904
-0.999968
-1
-1.00002
-1.00003
-1.00002
-1.00001
-1
-1
-1
-1
-1
-1
-1
-0.98078
-0.998675
-0.999771
-0.999797
-0.999847
-0.999891
-0.999928
-0.999953
-0.999962
-0.999996
-1.00002
-1.00003
-1.00004
-1.00003
-1.00002
-1.00001
-1
-1
-1
-1
-1
-1
-1
0.891831
0.901186
0.867161
0.660653
0.647929
0.729839
0.771781
0.664522
0.470963
0.56483
0.644937
0.594021
0.394062
0.470422
0.488822
0.390806
0.195005
0.204359
0.141136
-0.0174726
-0.190387
-0.228387
-0.288281
-0.377498
-0.516003
-0.555123
-0.6024
-0.643567
-0.758841
-0.775264
-0.796294
-0.818441
-0.891466
-0.899906
-0.909538
-0.920028
-0.949772
-0.95263
-0.955517
-0.959646
-0.979464
-0.980159
-0.980234
-0.981109
-0.992413
-0.992777
-0.992842
-0.99308
-0.997008
-0.997319
-0.997477
-0.997693
-0.998739
-0.99888
-0.998959
-0.999082
-0.999571
-0.999584
-0.99959
-0.999623
-0.999919
-0.999898
-0.999881
-0.999879
-1.00001
-1
-0.99999
-0.999985
-1.00002
-1.00002
-1.00001
-1.00001
-1.00001
-1.00001
-1.00001
-1.00001
-0.999999
-1
-1
-1
-0.999998
-0.999999
-1
-1
-0.999995
-0.999998
-0.999999
-1
-0.999998
-0.999999
-1
-1
-0.999999
-1
-1
-1
-1
-1
-1
-1
-1
-1
-1
-1
-1
-1
-1
-1
-1
-1
-1
-1
-1
-1
-1
-1
-1
-1
-1
-1
-1
-1
-1
-1
-1
-1
-1
-1
-1
-1
-1
-1
-1
-1
-1
-1
-1
-1
-1
-1
-1
-1
-1
-1
-1
-1
-1
-1
-1
-1
-1
-1
-1
-1
-1
-1
-1
-1
-1
-1
-1
-1
-1
-1
-1
-1
-1
-1
-0.182302
-0.276397
-0.232612
-0.234049
-0.339054
-0.472328
-0.517567
-0.556455
-0.559562
-0.565159
-0.576138
-0.581295
-0.572651
-0.516308
-0.340193
-0.0247989
0.143366
0.12004
-0.0525577
0.0220326
-0.234543
-0.219211
-0.27752
-0.464812
-0.54566
-0.573103
-0.603545
-0.627095
-0.628695
-0.607658
-0.585354
-0.551721
-0.419349
-0.179579
0.0210578
0.151431
0.0955731
-0.0852157
0.177388
-0.175067
-0.290055
-0.453003
-0.538403
-0.559832
-0.570338
-0.596294
-0.621118
-0.584312
-0.472285
-0.432977
-0.398107
-0.240389
-0.134848
-0.158748
0.000729242
-0.0168216
-0.164416
0.0486813
-0.241861
-0.469011
-0.574342
-0.588475
-0.566947
-0.546033
-0.552458
-0.521927
-0.446807
-0.390517
-0.358433
-0.282849
-0.306811
-0.431552
-0.536166
-0.376178
-0.280444
-0.286566
-0.301071
-0.50879
-0.594998
-0.630551
-0.650438
-0.661947
-0.629671
-0.643324
-0.598538
-0.581553
-0.666874
-0.684919
-0.614667
-0.691608
-0.772386
-0.79957
-0.712716
-0.606254
-0.441943
-0.514249
-0.626449
-0.686725
-0.775654
-0.81991
-0.843901
-0.834619
-0.845008
-0.841941
-0.8519
-0.885324
-0.897277
-0.886168
-0.917246
-0.931174
-0.924564
-0.873162
-0.78024
-0.60516
-0.697676
-0.774487
-0.82864
-0.882377
-0.905772
-0.9233
-0.922596
-0.926048
-0.936033
-0.950298
-0.961996
-0.968902
-0.971776
-0.977472
-0.976755
-0.9681
-0.937936
-0.874215
-0.765865
-0.850378
-0.893414
-0.918602
-0.93918
-0.94722
-0.954361
-0.952911
-0.957163
-0.966869
-0.975249
-0.98195
-0.986833
-0.989457
-0.990786
-0.991091
-0.989663
-0.981076
-0.955312
-0.900552
-0.934457
-0.950857
-0.960659
-0.967597
-0.968522
-0.969672
-0.967544
-0.969051
-0.975201
-0.981405
-0.98763
-0.99138
-0.993153
-0.994463
-0.99552
-0.996184
-0.995697
-0.991033
-0.973096
-0.966612
-0.974501
-0.978518
-0.982808
-0.982736
-0.98187
-0.979197
-0.977233
-0.978225
-0.981057
-0.986054
-0.990255
-0.992842
-0.994651
-0.996161
-0.997178
-0.997691
-0.997685
-0.995498
-0.983787
-0.988175
-0.990147
-0.9917
-0.991911
-0.991543
-0.989558
-0.986114
-0.983631
-0.982846
-0.984938
-0.987724
-0.990348
-0.992761
-0.995349
-0.996887
-0.99783
-0.998231
-0.998225
-0.993877
-0.995253
-0.996211
-0.996605
-0.996722
-0.996545
-0.995689
-0.993533
-0.990653
-0.988616
-0.987685
-0.987771
-0.988812
-0.990668
-0.993832
-0.996344
-0.99784
-0.998422
-0.998486
-0.998071
-0.998406
-0.998707
-0.998819
-0.998825
-0.998696
-0.998528
-0.997771
-0.996178
-0.994647
-0.993018
-0.991676
-0.990894
-0.991247
-0.99381
-0.996657
-0.998167
-0.998632
-0.998683
-0.999334
-0.999502
-0.9996
-0.999653
-0.999617
-0.999507
-0.999509
-0.999341
-0.998745
-0.998135
-0.997221
-0.995936
-0.994318
-0.993031
-0.994373
-0.996743
-0.998325
-0.99879
-0.998819
-0.999738
-0.999843
-0.999894
-0.999914
-0.999896
-0.99983
-0.999799
-0.999784
-0.999665
-0.999525
-0.999187
-0.998446
-0.997145
-0.995532
-0.996011
-0.997174
-0.998539
-0.998968
-0.998914
-0.999903
-0.999952
-0.999981
-0.999987
-0.99998
-0.99995
-0.999909
-0.999913
-0.999917
-0.999907
-0.999837
-0.999618
-0.999056
-0.997866
-0.997914
-0.998131
-0.998915
-0.999148
-0.998989
-0.999981
-0.999992
-1
-1
-1
-0.999991
-0.999968
-0.999965
-0.999972
-0.999977
-0.999974
-0.999952
-0.999805
-0.999287
-0.999218
-0.999206
-0.999374
-0.999304
-0.999051
-1.00001
-1.00001
-1.00001
-1.00001
-1
-1
-0.999993
-0.99999
-0.999991
-0.999992
-0.999992
-0.999997
-0.999983
-0.999862
-0.999789
-0.999741
-0.999657
-0.999415
-0.999102
-1.00001
-1.00001
-1
-1
-1
-1
-1
-0.999999
-0.999999
-0.999998
-0.999998
-0.999999
-1
-0.999982
-0.999966
-0.999913
-0.999782
-0.999479
-0.999147
-1
-1
-1
-1
-1
-1
-1
-1
-1
-1
-1
-1
-1
-1
-0.999998
-0.999957
-0.999825
-0.999517
-0.999188
-1
-1
-1
-1
-1
-1
-1
-1
-1
-1
-1
-1
-1
-1
-1
-0.999969
-0.999846
-0.99955
-0.999228
-1
-1
-1
-1
-1
-1
-1
-1
-1
-1
-1
-1
-1
-1
-1
-0.999979
-0.999871
-0.999584
-0.999267
-1
-1
-1
-1
-1
-1
-1
-1
-1
-1
-1
-1
-1
-1
-1
-0.999982
-0.99988
-0.99961
-0.999304
-1
-1
-1
-1
-1
-1
-1
-1
-1
-1
-1
-1
-1
-1
-1
-0.999988
-0.999897
-0.999638
-0.999338
-1
-1
-1
-1
-1
-1
-1
-1
-1
-1
-1
-1
-1
-1
-1
-0.999992
-0.999915
-0.999671
-0.999369
-1
-1
-1
-1
-1
-1
-1
-1
-1
-1
-1
-1
-1
-1
-1
-0.999994
-0.999919
-0.999688
-0.999402
-1
-1
-1
-1
-1
-1
-1
-1
-1
-1
-1
-1
-1
-1
-1
-0.999994
-0.999926
-0.999713
-0.999434
-1
-1
-1
-1
-1
-1
-1
-1
-1
-1
-1
-1
-1
-1
-1
-0.999996
-0.999938
-0.999747
-0.999463
-1
-1
-1
-1
-1
-1
-1
-1
-1
-0.999999
-0.999999
-0.999999
-1
-1
-1
-0.999998
-0.999953
-0.99978
-0.999489
-1
-1
-1
-1
-1
-1
-1
-0.999998
-0.999995
-0.999994
-0.999995
-0.999996
-0.999997
-0.999999
-1
-0.999999
-0.999966
-0.999811
-0.999501
-1
-1
-1
-1
-1
-0.999999
-0.999997
-0.999992
-0.999986
-0.999985
-0.999986
-0.999988
-0.999991
-0.999996
-1
-0.999999
-0.999963
-0.999782
-0.99949
-1
-1
-1
-1
-1
-0.999996
-0.999991
-0.999982
-0.999971
-0.999968
-0.999969
-0.999975
-0.99998
-0.999988
-0.999996
-0.999997
-0.999956
-0.999778
-0.999506
-1
-1
-1
-1
-0.999996
-0.999988
-0.999977
-0.99996
-0.999943
-0.99994
-0.999943
-0.999953
-0.999965
-0.999979
-0.999993
-0.999995
-0.999954
-0.999781
-0.999498
-1
-1
-1
-0.999998
-0.999988
-0.999972
-0.99995
-0.99993
-0.999913
-0.999907
-0.999914
-0.999932
-0.999952
-0.99997
-0.99999
-0.999992
-0.999948
-0.999738
-0.999473
-1
-1
-1
-0.999995
-0.999982
-0.999959
-0.999923
-0.999898
-0.999881
-0.999879
-0.999888
-0.999908
-0.999935
-0.999963
-0.999986
-0.99999
-0.999948
-0.999747
-0.999506
-1
-1
-0.999999
-0.99999
-0.999972
-0.999945
-0.999902
-0.99987
-0.999857
-0.999859
-0.999867
-0.999887
-0.999921
-0.999954
-0.999983
-0.999988
-0.999948
-0.999773
-0.999575
-1
-1
-0.999997
-0.999985
-0.999963
-0.999934
-0.999888
-0.999855
-0.999851
-0.999859
-0.999865
-0.999878
-0.999908
-0.999946
-0.999978
-0.999986
-0.999949
-0.999808
-0.999626
-1
-0.999999
-0.999991
-0.999974
-0.999943
-0.999907
-0.999869
-0.999851
-0.999861
-0.999875
-0.999877
-0.99988
-0.999901
-0.999937
-0.99997
-0.999982
-0.999949
-0.999792
-0.999586
-1
-0.999997
-0.999985
-0.999963
-0.999925
-0.999879
-0.999854
-0.999857
-0.999878
-0.999893
-0.999895
-0.999886
-0.999897
-0.999928
-0.999959
-0.999977
-0.999947
-0.999804
-0.999613
-1
-0.999996
-0.999981
-0.999955
-0.999914
-0.999868
-0.999852
-0.999869
-0.999895
-0.999908
-0.99991
-0.999898
-0.999899
-0.999918
-0.999947
-0.999972
-0.999947
-0.999833
-0.999675
-1
-0.999994
-0.999977
-0.999957
-0.999929
-0.999887
-0.999859
-0.999874
-0.9999
-0.999915
-0.99992
-0.999912
-0.999906
-0.99992
-0.999946
-0.999968
-0.999947
-0.999852
-0.999701
-1
-0.999994
-0.999975
-0.999957
-0.999939
-0.999911
-0.999874
-0.999874
-0.9999
-0.99992
-0.999927
-0.999927
-0.999922
-0.999931
-0.999952
-0.999967
-0.999952
-0.999891
-0.999768
)
;

boundaryField
{
    leftWall
    {
        type            zeroGradient;
    }
    rightWall
    {
        type            zeroGradient;
    }
    lowerWall
    {
        type            zeroGradient;
    }
    atmosphere
    {
        type            zeroGradient;
    }
    defaultFaces
    {
        type            empty;
    }
}


// ************************************************************************* //
