/*--------------------------------*- C++ -*----------------------------------*\
| =========                 |                                                 |
| \\      /  F ield         | foam-extend: Open Source CFD                    |
|  \\    /   O peration     | Version:     4.1                                |
|   \\  /    A nd           | Web:         http://www.foam-extend.org         |
|    \\/     M anipulation  |                                                 |
\*---------------------------------------------------------------------------*/
FoamFile
{
    version     2.0;
    format      ascii;
    class       volScalarField;
    location    "0.95";
    object      p;
}
// * * * * * * * * * * * * * * * * * * * * * * * * * * * * * * * * * * * * * //

dimensions      [1 -1 -2 0 0 0 0];

internalField   nonuniform List<scalar> 
2268
(
1052.99
1049.58
1044.96
1034.31
1034.65
1011.09
1002.09
982.58
963.708
946.528
926.971
888.708
896.172
871.185
856.027
849.307
841.487
835.739
845.172
827.538
847.282
854.261
853.795
995.101
990.817
987.556
978.056
975.593
953.586
943.473
923.741
900.09
887.46
865.767
829.987
832.206
811.103
795.154
783.815
781.38
778.472
783.392
780.679
776.492
798.496
791.73
937.818
933.017
930.702
917.054
917.545
894.632
886.178
867.552
852.584
831.199
807.314
777.785
769.287
758.073
726.294
734.685
715.443
709.063
705.198
727.537
723.787
731.955
737.321
880.39
876.844
873.736
861.417
862.609
839.359
826.743
807.08
787.626
774.729
742.397
728.897
698.559
694.139
676.808
655.04
664.241
661.3
643.864
670.315
649.266
679.413
664.304
824.645
822.298
816.923
805.399
797.763
787.159
769.62
757.516
733.129
713.815
690.486
653.083
644.529
643.509
599.187
612.568
603.634
602.437
585.286
611.865
590.769
599.343
625.652
769.103
763.44
763.809
751.303
747.218
728.711
715.725
694.265
680.333
649.888
638.52
616.166
593.036
561.264
561.679
551.096
548.731
537.969
530.617
547.441
538.186
553.686
518.877
715.838
715.097
705.074
691.96
686.727
675.537
660.618
643.259
621.95
603.167
585.931
558.644
537.178
530.191
492.39
498.21
496.348
490.043
463.433
491.422
468.057
481.88
463.705
662.561
658.599
660.185
647.877
636.954
617.605
608.034
588.929
567.564
539.001
530.501
502.161
494.321
479.953
467.011
443.746
447.121
442.15
410.776
411.013
429.52
426.923
357.822
562.743
481.476
364.177
313.823
354.692
414.331
407.406
389.049
393.002
375.791
379.971
386.485
405.96
417.646
444.472
456.918
481.193
479.589
500.21
539.468
400.608
321.965
272.249
326.42
397.957
383.378
360.225
362.675
346.701
350.34
355.912
373.623
381.871
407.528
428.638
445.731
447.258
468.204
469.159
329.382
285.806
241.779
294.342
369.885
351.696
335.679
337.75
316.826
318.398
321.123
339.253
346.436
383.542
399.365
414.339
419.237
437.665
432.5
268.625
245.215
215.659
265.523
334.217
332.314
309.338
307.221
288.132
292.421
293.533
307.402
315.905
346.421
370.291
390.45
392.045
412.699
386.199
220.989
191.675
172.61
206.548
290.135
293.526
289.707
292.054
257.718
272.683
272.016
275.027
285.173
318.476
335.689
361.131
370.795
388.529
350.701
184.785
142.835
116.221
236.6
263.71
260.795
256.158
262.09
241.576
246.494
251.686
256.913
253.751
282.832
307.047
334.428
343.226
364.311
325.292
156.323
100.732
89.4303
189.739
227.963
226.196
224.471
240.573
221.769
217.963
227.907
239.138
239.114
256.348
275.536
317.624
310.595
348.039
308.815
141.789
62.4746
70.1864
178.561
197.993
211.015
198.299
212.586
204.173
191.499
214.33
220.909
218.381
229.324
247.21
292.575
273.064
320.24
583.819
577.136
574.166
559.539
557.502
543.734
527.548
503.514
486.876
467.731
449.359
444.659
425.914
426.049
410.774
403.394
377.334
376.051
365.38
344.288
369.919
323.684
322.093
474.788
480.343
476.983
460.516
457.966
443.572
427.211
423.486
400.551
395.158
377.456
373.312
369.714
373.389
345.316
327.077
289.772
290.126
258.026
292.692
217.391
247.409
216.874
382.828
385.735
375.514
372.974
356.794
352.656
339.444
344.6
333.331
342.179
273.649
335.077
294.71
300.111
286.054
278.47
231.845
225.656
208.602
211.855
208.328
180.34
100.552
307.134
293.124
297.072
296.855
297.171
302.184
291.981
288.878
275.28
274.802
275.778
218.807
249.95
238.426
216.373
152.54
151.056
165.408
144.052
156.925
100.374
4.69941
-24.9945
243.317
229.066
226.045
216.35
226.019
234.105
241.759
237.172
228.042
218.768
208.282
204.884
192.121
206.417
145.04
137.696
159.216
149.731
102.123
48.4194
28.3316
12.8603
-41.0428
199.069
191.267
160.25
159.216
146.68
197.786
211.945
209.436
200.897
186.685
182.707
163.727
159.996
155.353
110.103
97.4284
113.83
89.1191
5.06821
30.6715
61.3409
39.9693
41.3027
146.174
115.282
116.575
111.263
132.228
153.43
167.953
172.499
171.432
151.678
142.25
123.272
114.646
94.1073
81.474
80.8195
56.8487
38.3445
24.8305
23.2441
27.7526
30.6762
22.8023
128.69
133.199
74.2933
78.8086
88.8336
119.864
133.392
137.752
128.721
125.799
80.6259
70.1665
63.4921
54.9198
40.3777
41.2147
6.89714
20.3637
25.2729
24.387
17.4254
8.21249
14.0093
135.935
110.166
89.898
77.2495
86.6968
97.3942
106.973
110.632
97.1684
91.614
70.3801
45.8067
29.953
23.3438
15.7179
20.0227
6.62648
8.61249
10.1103
6.50345
5.08814
8.65382
7.42739
134.664
117.508
103.27
73.2167
95.6581
85.519
86.7745
76.6395
58.673
68.6581
39.4016
24.5318
18.056
12.5657
9.68138
8.35682
7.57238
7.83893
3.85943
3.15108
0.1444
1.33253
2.75472
133.116
121.273
96.5805
75.1385
61.7271
71.8264
66.8798
63.4067
43.3763
12.421
19.8074
12.0248
11.5974
8.6528
7.38439
5.10115
4.09677
2.71671
2.12299
1.68872
2.14043
1.05003
0.670271
125.037
115.213
98.8199
91.1229
32.8994
58.5587
72.6233
23.6972
30.4427
13.3661
10.5941
7.66686
7.95442
6.10781
5.04279
3.54408
2.47673
1.4502
0.764414
0.380888
0.244403
-0.0506061
0.0885485
109.397
76.8051
94.9765
81.6353
37.8991
64.9845
35.0054
38.383
25.3161
6.92637
5.64974
4.2593
4.69399
5.39464
4.11159
3.64402
1.32087
0.528358
-0.0560314
-0.424093
-0.625891
-0.712975
-0.808658
88.5916
73.1316
59.6021
50.9646
53.7877
44.8961
26.2377
23.9049
9.12327
1.54749
0.0798923
3.23847
3.36654
2.63207
2.09151
1.6634
0.477853
0.242916
-0.710204
-0.907383
-0.688266
-0.868881
-0.878569
69.8228
60.2666
57.5807
41.8198
26.9657
13.1549
19.5316
16.0865
16.3293
3.04764
-4.47467
-0.946338
3.20557
1.5402
0.818516
0.195413
-0.397055
-0.695415
-0.770764
-0.915731
-0.767081
-1.10286
-1.13157
53.1302
47.9004
43.2574
35.7312
28.4849
22.9766
14.5415
14.5198
13.5668
4.86557
3.94962
-2.79637
0.0823806
1.38312
0.0337145
0.434777
-0.815699
-1.3001
-0.913003
-1.13432
-1.0479
-1.14761
-1.16807
39.8371
38.0603
28.6331
28.8599
22.9131
17.4235
14.7231
7.65174
10.2155
3.25532
4.21425
-3.87694
0.445533
0.365335
-0.472715
-0.958965
-1.31683
-1.24114
-1.10883
-1.35507
-1.31713
-1.20401
-1.5157
29.4968
28.6779
22.8501
13.0783
17.5548
19.8837
16.2242
8.7418
6.58149
3.9918
3.20951
0.285426
-2.14963
-0.270149
-0.972093
-1.27999
-1.31798
-1.34765
-1.32992
-1.71214
-1.47438
-1.4632
-1.63199
21.3701
19.5625
19.1128
11.7252
15.0159
13.5094
8.40024
5.62266
3.27637
3.24951
1.22142
-0.780231
-0.668548
-0.708947
-0.865526
-1.77418
-1.93302
-1.63953
-1.69463
-1.83541
-1.70816
-1.7342
-1.76225
11.5201
11.495
12.4822
14.7424
12.2678
12.3319
12.101
2.43794
0.0357939
-0.195328
-1.45906
-2.74943
-1.43116
-1.55874
-1.29958
-1.95356
-1.85915
-1.86016
-1.87683
-1.98774
-1.90133
-1.96424
-1.95364
2.53186
5.13257
12.5553
2.98568
2.59997
1.57369
1.22288
4.74792
-1.52129
-2.15867
-1.62625
-2.16587
-2.7029
-2.42179
-2.1115
-2.2681
-2.19554
-2.14234
-2.04887
-2.3374
-2.15158
-2.14305
-2.10697
-3.12291
-5.35906
-14.9928
-5.40964
-6.00088
-9.39613
-4.22819
-2.68424
-1.74994
-1.20505
-2.40019
-2.65379
-3.09892
-3.10528
-2.84141
-2.83775
-2.59204
-2.48034
-2.52092
-2.47571
-2.2941
-2.35782
-2.43969
-0.822257
-3.56539
-5.82341
-7.90351
-14.5356
-18.0682
-20.1994
-5.22319
-2.63949
-2.5004
-2.773
-2.92248
-3.28111
-3.34281
-3.35089
-2.98672
-3.23083
-2.85898
-2.905
-2.7635
-2.72891
-2.68604
-2.65285
-0.554924
18.2628
-7.97417
-7.45603
-14.3223
-16.2581
-11.686
-14.8853
-4.45683
-3.37741
-3.34004
-3.46145
-3.78117
-4.02512
-3.61917
-3.29679
-3.35871
-3.257
-3.1128
-3.01444
-2.99059
-2.91816
-2.80052
-10.5268
-20.5456
-17.5933
-11.1625
-8.39612
-16.6756
-15.2674
-13.2433
-5.74464
-3.15809
-3.27733
-3.48748
-3.78459
-3.8115
-3.54536
-3.55371
-3.56783
-3.47872
-3.38924
-3.22869
-3.08933
-3.01984
-2.93961
4.19381
2.56049
0.0834614
-7.57913
-0.154113
-12.6684
-5.11163
0.969475
-6.38595
-3.14199
-3.42311
-3.50561
-3.69391
-3.61334
-3.77052
-3.72109
-3.70167
-3.59552
-3.52015
-3.36758
-3.21279
-3.18845
-3.23767
1.61453
-4.57574
-0.507211
-5.04635
2.17813
-11.3943
-7.246
-4.04429
-3.60552
-3.24826
-3.4158
-3.496
-3.71744
-3.70451
-3.85551
-3.78092
-3.74187
-3.65745
-3.56448
-3.5062
-3.42479
-3.39752
-3.33107
2.35028
-0.687144
-2.9654
-0.144205
-6.26281
2.10716
-2.52034
-3.05633
-3.30919
-3.40362
-3.38634
-3.52919
-3.9737
-3.84138
-3.89548
-3.83244
-3.79302
-3.72534
-3.70837
-3.62358
-3.62575
-3.58088
-3.49908
1.24087
-2.91188
-2.74485
-2.42607
-1.69103
-2.2484
-3.63123
-3.83658
-3.86711
-3.59091
-3.74442
-4.12098
-4.04182
-4.04127
-3.7502
-3.96543
-3.84264
-3.85811
-3.81865
-3.77292
-3.75903
-3.72284
-3.67966
-4.6584
-2.79098
-3.43583
-2.01952
-2.71235
-3.44198
-4.10299
-4.18327
-4.16356
-4.08677
-4.39781
-4.09387
-4.30343
-4.11148
-4.02026
-4.07508
-3.99679
-3.97143
-3.96554
-3.92122
-3.8939
-3.87758
-3.82886
-9.19608
-7.6048
-3.52399
-3.61383
-4.98663
-4.15357
-4.25948
-4.24908
-4.5633
-4.72869
-4.74294
-4.94932
-4.76941
-4.48496
-4.37726
-4.24196
-4.1232
-4.09974
-4.09909
-4.06317
-4.03812
-4.03093
-4.00262
-4.09964
-4.60233
-3.11439
-4.16225
-3.35346
-4.61536
-4.65261
-4.69904
-4.75601
-5.02994
-5.23661
-5.11555
-5.10619
-4.81
-4.44817
-4.05998
-4.22311
-4.23504
-4.23606
-4.22277
-4.19628
-4.1602
-4.19642
-5.1793
-4.60482
-4.4041
-4.73794
-5.58644
-4.86763
-5.02819
-5.03941
-4.96125
-5.30446
-5.44485
-5.43194
-5.05472
-4.89088
-4.62293
-4.37616
-4.56536
-4.39174
-4.4037
-4.36937
-4.36886
-4.341
-4.32191
-4.26465
-3.96686
-4.37043
-4.86423
-5.07462
-5.13072
-5.17886
-5.23404
-5.34226
-5.34148
-5.32005
-5.36181
-5.02603
-5.05668
-4.56065
-4.46986
-4.50904
-4.54955
-4.5317
-4.52874
-4.49985
-4.48115
-4.47757
-4.588
-4.28307
-4.49768
-5.21273
-5.29933
-5.34324
-5.22507
-5.15754
-5.15567
-5.24106
-5.24912
-5.34521
-5.24603
-5.30201
-4.92013
-4.70593
-4.78229
-4.73302
-4.70594
-4.68573
-4.65512
-4.64248
-4.62276
-4.88106
-4.59916
-5.02225
-5.17979
-5.29317
-5.24435
-5.23689
-5.13077
-5.15189
-5.05378
-5.24344
-5.09306
-5.15955
-4.86646
-5.23453
-4.91739
-4.94029
-4.88116
-4.89526
-4.82228
-4.82227
-4.78613
-4.79625
-4.95293
-5.18041
-5.23784
-5.39156
-5.34693
-5.33571
-5.27377
-5.18774
-5.12787
-5.26853
-5.33757
-5.36899
-5.64398
-5.07761
-5.15451
-5.13628
-5.07222
-5.02495
-4.98739
-4.99373
-4.95549
-4.94688
-4.93996
-4.97999
-5.41792
-5.34467
-5.46674
-5.39239
-5.34943
-5.30202
-5.23954
-5.23911
-5.3767
-5.1478
-5.18799
-5.59574
-5.49723
-5.25852
-5.27292
-5.23404
-5.21878
-5.16457
-5.15833
-5.11959
-5.09101
-5.09732
-5.35074
-5.53593
-5.53189
-5.61091
-5.55378
-5.51033
-5.43439
-5.46515
-5.47709
-5.35553
-5.4003
-5.58275
-5.47238
-5.44509
-5.44017
-5.45252
-5.36478
-5.30831
-5.28751
-5.28241
-5.26347
-5.2483
-5.24966
-6.52863
-6.00234
-5.79336
-5.67497
-5.68577
-5.68403
-5.69023
-5.60137
-5.58993
-5.54727
-5.61516
-5.60463
-5.55459
-5.54981
-5.51756
-5.44661
-5.43681
-5.44995
-5.43141
-5.42476
-5.41232
-5.40201
-5.40549
-11.9611
-7.06238
-5.99348
-5.94003
-5.94654
-5.91637
-5.8679
-5.87944
-5.85333
-5.84594
-5.79634
-5.78851
-5.72185
-5.75947
-5.57114
-5.5933
-5.63475
-5.56127
-5.547
-5.55474
-5.54909
-5.52201
-5.54804
-20.3868
-10.0684
-6.69287
-6.37712
-6.15049
-6.00722
-5.91516
-5.81988
-5.80779
-5.73605
-5.70658
-5.69449
-5.69039
-5.70899
-5.75269
-5.74951
-5.70123
-5.73919
-5.72259
-5.70508
-5.69019
-5.7243
-5.68745
288.058
320.143
311.163
326.838
190.283
215.519
221.149
223.947
73.8748
179.271
161.22
174.467
-11.7257
-26.1497
-17.6176
3.46026
-85.0883
-13.5055
28.3522
39.3299
11.915
3.92878
43.3875
21.0823
26.4826
30.6207
30.8561
33.7006
12.6476
13.3431
11.9685
11.6044
6.12621
5.96705
5.71043
6.16285
2.75235
3.22951
2.88656
2.61996
0.505017
0.482059
0.401547
0.378462
-0.0495125
-0.139014
-0.127968
-0.181873
-0.831122
-0.728342
-0.750782
-0.712811
-0.852242
-0.869923
-0.871568
-0.868775
-1.10975
-1.09384
-1.15167
-1.13458
-1.16122
-1.12346
-1.28956
-1.34152
-1.46849
-1.48548
-1.49855
-1.54305
-1.56531
-1.57013
-1.57493
-1.58434
-1.73156
-1.75856
-1.77501
-1.78318
-1.97116
-1.95261
-1.94963
-1.91746
-2.12949
-2.14176
-2.16277
-2.21431
-2.43787
-2.43029
-2.38491
-2.44643
-2.56296
-2.6113
-2.56461
-2.59357
-2.84112
-2.79625
-2.81103
-2.76642
-2.97729
-2.93958
-2.91388
-2.94007
-3.20172
-3.14474
-3.16351
-3.11383
-3.31395
-3.30343
-3.30059
-3.29362
-3.4907
-3.45509
-3.45598
-3.44564
-3.65376
-3.67531
-3.65938
-3.65662
-3.83164
-3.81767
-3.8083
-3.84721
-3.97729
-3.96041
-3.96567
-3.90131
-4.16641
-4.1795
-4.12062
-4.14431
-4.3022
-4.29702
-4.27521
-4.30988
-4.46756
-4.44506
-4.46744
-4.43395
-4.62081
-4.61621
-4.62315
-4.6429
-4.78098
-4.7708
-4.762
-4.75561
-4.95286
-4.95363
-4.93853
-4.9416
-5.07576
-5.0893
-5.08113
-5.08698
-5.25237
-5.25592
-5.25385
-5.24142
-5.39754
-5.40294
-5.40702
-5.40644
-5.52916
-5.54006
-5.55581
-5.55684
-5.70928
-5.7153
-5.70366
-5.70968
275.155
149.11
81.0808
107.727
136.997
145.476
147.761
156.121
177.94
152.583
168.353
191.173
199.656
190.003
221.869
187.688
242.126
240.615
271.753
215.64
122.886
132.145
116.884
141.01
126.584
105.041
105.618
118.828
133.376
144.486
153.231
151.14
146.419
135.392
155.456
142.851
166.815
186.88
124.038
139.721
162.655
124.234
98.2081
75.7451
92.7445
74.766
88.4138
101.552
102.029
101.19
116.14
103.089
95.8516
99.1341
84.4615
97.4231
111.754
165.142
93.5643
111.702
88.8622
80.5401
71.3354
77.3127
50.3492
63.3507
64.0193
68.2387
58.5407
61.8912
53.9204
49.6809
46.5455
51.5749
66.6553
68.2345
63.0175
100.039
83.1119
63.9678
53.2985
41.5049
30.8726
32.8354
34.3799
31.6126
27.2347
24.3519
25.1451
22.6564
15.8467
16.3922
18.9788
15.1478
26.6691
35.2616
50.3173
42.9357
29.9469
27.5296
20.6273
22.5104
13.6006
17.2596
13.8465
11.1232
9.54283
9.18851
7.7938
7.74532
7.63647
8.71427
4.22692
14.2183
28.4296
24.4413
20.8978
19.4249
15.0773
13.899
12.3539
9.78008
6.65343
6.04038
5.61169
4.63791
4.32617
3.78708
3.85979
3.76765
4.45582
6.66226
9.07209
12.6554
12.0375
11.6342
8.80566
8.14471
9.04111
6.07451
4.61725
5.33247
4.24585
3.39325
2.59643
2.93548
2.43696
2.15464
1.95606
2.21222
1.50777
5.31079
6.47284
5.28502
5.37977
3.59687
4.64508
2.97886
2.95498
2.91028
2.77706
2.44698
2.59845
2.04384
2.01515
1.79463
1.55392
1.25905
1.1367
1.11493
2.04737
2.56751
2.43109
2.23
2.01725
1.72269
1.68666
1.89973
1.31157
1.78097
1.69095
1.68199
1.33199
1.11533
1.12537
0.997334
0.856768
0.799104
1.00309
1.22975
0.422798
0.474379
0.273886
0.213174
0.306382
0.226608
0.139413
0.597718
0.8171
0.704127
0.870593
0.881328
0.858602
0.696173
0.348184
0.38582
0.218322
0.471441
0.541503
-0.181222
-0.255469
-0.221076
-0.303145
-0.313563
-0.300004
-0.352564
-0.296683
-0.138174
-0.0976316
0.154742
-0.0149367
0.0923065
0.263167
0.0368742
-0.0351989
-0.179163
-0.0877641
-0.177122
-0.692895
-0.713044
-0.678918
-0.693095
-0.709237
-0.726649
-0.760084
-0.758156
-0.70104
-0.664583
-0.619013
-0.465934
-0.721948
-0.41072
-0.574754
-0.391699
-0.595604
-0.381485
-0.112049
-0.862074
-0.891814
-0.926362
-0.929321
-0.935975
-0.961649
-0.969523
-0.983203
-1.00096
-1.00738
-1.01851
-1.04211
-0.983068
-0.842535
-0.857964
-0.970221
-0.976412
-0.970227
-0.802497
-1.06271
-1.12549
-1.09971
-1.09641
-1.17441
-1.16041
-1.17382
-1.21913
-1.23198
-1.29773
-1.27075
-1.30756
-1.41949
-1.20404
-1.35652
-1.32641
-1.32908
-1.25765
-1.12613
-1.13708
-1.25456
-1.30053
-1.29557
-1.26499
-1.35643
-1.33713
-1.35861
-1.41402
-1.44165
-1.49123
-1.48765
-1.51785
-1.54519
-1.48838
-1.53451
-1.56733
-1.55188
-1.40977
-1.34577
-1.47944
-1.44027
-1.47583
-1.55808
-1.49495
-1.61922
-1.56811
-1.59917
-1.60622
-1.63077
-1.68111
-1.70228
-1.68078
-1.78605
-1.69984
-1.7609
-1.72872
-1.64846
-1.555
-1.62135
-1.55449
-1.68987
-1.64482
-1.64542
-1.74006
-1.71696
-1.75213
-1.77684
-1.78101
-1.79836
-1.86608
-1.90593
-1.90197
-1.93124
-1.93623
-1.88779
-1.84963
-1.81446
-1.76734
-1.85878
-1.74752
-1.85329
-1.82994
-1.92912
-1.85381
-1.9237
-1.93716
-1.95141
-1.97305
-2.03804
-1.99877
-2.04471
-2.03087
-2.0384
-2.02237
-2.0066
-2.00407
-1.98869
-1.92893
-2.03068
-2.01658
-2.03918
-2.01229
-2.09822
-2.04448
-2.08654
-2.09965
-2.12243
-2.13718
-2.18087
-2.15916
-2.17713
-2.16055
-2.16877
-2.15555
-2.25302
-2.21489
-2.1168
-2.18615
-2.10813
-2.22132
-2.24886
-2.18769
-2.23049
-2.2377
-2.26561
-2.24856
-2.31506
-2.27693
-2.33835
-2.29935
-2.33217
-2.29878
-2.30929
-2.40585
-2.35218
-2.34049
-2.35068
-2.43292
-2.39819
-2.34463
-2.4246
-2.38106
-2.40091
-2.40663
-2.44027
-2.43456
-2.46847
-2.42147
-2.4617
-2.45574
-2.45187
-2.44993
-2.55777
-2.52886
-2.50227
-2.52375
-2.47279
-2.55609
-2.54177
-2.52369
-2.58036
-2.53825
-2.62776
-2.55548
-2.61711
-2.5574
-2.6421
-2.57568
-2.57495
-2.58228
-2.60497
-2.78948
-2.68268
-2.65567
-2.67864
-2.68854
-2.72793
-2.7155
-2.70496
-2.68793
-2.7222
-2.75033
-2.74047
-2.71476
-2.77064
-2.73641
-2.75134
-2.77869
-2.74761
-2.72569
-2.92344
-2.88022
-2.88534
-2.87067
-2.86481
-2.8968
-2.90499
-2.85776
-2.87628
-2.87976
-2.89253
-2.88769
-2.89382
-2.91469
-2.93391
-2.83982
-2.90098
-2.87083
-2.87346
-3.10558
-3.06467
-3.06283
-3.04002
-3.04981
-3.07652
-3.0473
-3.04313
-3.05554
-3.04941
-3.03395
-3.0665
-3.02958
-3.10174
-3.04695
-3.09717
-3.04399
-3.01866
-3.04496
-3.31417
-3.25787
-3.19666
-3.23752
-3.21558
-3.25674
-3.21849
-3.21439
-3.20462
-3.21114
-3.2094
-3.18819
-3.24458
-3.18944
-3.27543
-3.16143
-3.20177
-3.18241
-3.18636
-3.47176
-3.41932
-3.45542
-3.39277
-3.42885
-3.45766
-3.36578
-3.42536
-3.40212
-3.41974
-3.4042
-3.42495
-3.34043
-3.40055
-3.36517
-3.35255
-3.36329
-3.38724
-3.34254
-3.60383
-3.6624
-3.53948
-3.6675
-3.56064
-3.57906
-3.56647
-3.62051
-3.56595
-3.5271
-3.53419
-3.56492
-3.62729
-3.47498
-3.60373
-3.53098
-3.52516
-3.506
-3.51886
-3.72806
-3.77241
-3.73329
-3.74725
-3.74884
-3.76505
-3.71398
-3.83986
-3.79864
-3.70841
-3.70063
-3.70917
-3.74281
-3.73672
-3.64189
-3.65424
-3.61179
-3.65236
-3.65133
-3.91681
-3.96053
-3.96935
-3.86634
-4.024
-3.86048
-4.02196
-3.99928
-3.80949
-3.89619
-3.89193
-4.00592
-3.92246
-3.77739
-3.85824
-4.04498
-3.97958
-3.86334
-3.84946
-4.10237
-4.10477
-4.08869
-4.09539
-4.10348
-4.09777
-4.13084
-4.13879
-4.13795
-4.1427
-4.07196
-4.0866
-3.99879
-4.08101
-4.32467
-4.12523
-3.93425
-3.94166
-4.02509
-4.26391
-4.25776
-4.27068
-4.26841
-4.32435
-4.27378
-4.31389
-4.23646
-4.4294
-4.41242
-4.25092
-4.32673
-4.34028
-4.4318
-4.26682
-4.17511
-4.08086
-4.26062
-4.19116
-4.44872
-4.39872
-4.43657
-4.41483
-4.50861
-4.47342
-4.55513
-4.43062
-4.50013
-4.50035
-4.48017
-4.46382
-4.43931
-4.69733
-4.4458
-4.5099
-4.61588
-4.42257
-4.3679
-4.55921
-4.61495
-4.55452
-4.60931
-4.58483
-4.68497
-4.73926
-4.61229
-4.72177
-4.72726
-4.68847
-4.7309
-4.85459
-4.62255
-4.60956
-4.58015
-4.51717
-4.73364
-4.6156
-4.7664
-4.76878
-4.74758
-4.72297
-4.82015
-4.79933
-4.90467
-4.84881
-4.91129
-4.91385
-4.97675
-5.0431
-4.86149
-4.79692
-4.83562
-4.75061
-4.66194
-4.71769
-4.76017
-4.932
-4.95425
-4.95666
-4.9538
-4.97518
-5.0189
-5.03516
-5.02347
-5.0633
-5.08418
-5.07876
-5.07122
-5.02592
-5.08856
-4.97351
-4.9419
-4.92622
-4.82547
-4.94124
-5.09908
-5.06734
-5.10833
-5.11195
-5.12748
-5.17395
-5.16761
-5.20231
-5.22958
-5.24676
-5.30716
-5.29969
-5.1869
-5.18763
-5.01067
-5.14987
-5.14969
-5.34699
-5.07666
-5.23802
-5.22592
-5.27113
-5.24547
-5.30462
-5.36812
-5.38307
-5.3586
-5.39163
-5.39138
-5.45391
-5.45773
-5.57291
-5.408
-5.48523
-5.34482
-5.3084
-5.21273
-5.28136
-5.41162
-5.43269
-5.45634
-5.46817
-5.44502
-5.47155
-5.4802
-5.47421
-5.54635
-5.57786
-5.63529
-5.60844
-5.7527
-5.4777
-5.67947
-5.43997
-5.40605
-5.46001
-5.45897
-5.564
-5.54603
-5.62215
-5.63272
-5.61249
-5.65485
-5.68964
-5.71569
-5.76716
-5.76319
-5.71861
-5.75154
-5.66776
-5.64689
-5.48736
-5.59221
-5.56905
-5.58514
-5.57002
-5.71956
-5.79105
-5.77055
-5.7869
-5.8636
-5.8068
-5.90333
-5.83369
-5.96191
-5.82103
-5.88238
-5.87738
-5.86263
-5.77461
-5.71236
-5.64071
-5.62254
-5.84458
-6.10782
)
;

boundaryField
{
    leftWall
    {
        type            calculated;
        value           nonuniform List<scalar> 
50
(
1052.99
995.101
937.818
880.39
824.645
769.103
715.838
662.561
583.819
474.788
382.828
307.134
243.317
199.069
146.174
128.69
135.935
134.664
133.116
125.037
109.397
88.5916
69.8228
53.1302
39.8371
29.4968
21.3701
11.5201
2.53186
-3.12291
-0.822257
-0.554924
-10.5268
4.19381
1.61453
2.35028
1.24087
-4.6584
-9.19608
-4.09964
-5.1793
-4.26465
-4.588
-4.88106
-4.95293
-4.97999
-5.35074
-6.52863
-11.9611
-20.3868
)
;
    }
    rightWall
    {
        type            calculated;
        value           nonuniform List<scalar> 
50
(
500.21
468.204
437.665
412.699
388.529
364.311
348.039
320.24
271.753
186.88
111.754
68.2345
26.6691
14.2183
9.07209
5.31079
2.04737
1.22975
0.541503
-0.177122
-0.112049
-0.802497
-1.12613
-1.40977
-1.64846
-1.84963
-2.0066
-2.15555
-2.30929
-2.44993
-2.60497
-2.72569
-2.87346
-3.04496
-3.18636
-3.34254
-3.51886
-3.65133
-3.84946
-4.02509
-4.19116
-4.3679
-4.6156
-4.76017
-4.94124
-5.07666
-5.28136
-5.45897
-5.57002
-6.10782
)
;
    }
    lowerWall
    {
        type            calculated;
        value           nonuniform List<scalar> 
62
(
1082.31
1078.83
1074.12
1063.43
1063.79
1040.27
1031.3
1011.8
992.937
975.762
956.217
917.984
925.508
900.572
885.455
878.736
870.917
865.168
874.601
856.968
876.711
883.69
883.225
853.795
791.73
737.321
664.304
625.652
518.877
463.705
357.822
347.29
379.673
369.634
378.871
562.743
539.468
469.159
432.5
386.199
350.701
325.292
308.815
574.543
493.508
376.304
326.178
367.268
427.427
420.973
402.989
407.333
390.865
395.279
401.839
421.27
432.935
459.752
471.594
496.765
495.388
516.056
)
;
    }
    atmosphere
    {
        type            calculated;
        value           nonuniform List<scalar> 
46
(
-60.172
-9.41496
-6.35315
-6.34125
-6.22974
-6.09763
-5.9985
-5.94611
-5.91686
-5.84927
-5.83275
-5.82993
-5.80722
-5.82037
-5.78039
-5.78021
-5.7843
-5.765
-5.76275
-5.76022
-5.75797
-5.76624
-5.75939
-5.76803
-5.77471
-5.77698
-5.78055
-5.7892
-5.8326
-5.84867
-5.87882
-5.91682
-5.98294
-6.09005
-6.08932
-6.01422
-5.95746
-5.93792
-5.93932
-5.95446
-5.92686
-5.86564
-5.82219
-5.86584
-6.04257
-6.39188
)
;
    }
    defaultFaces
    {
        type            empty;
    }
}


// ************************************************************************* //
