/*--------------------------------*- C++ -*----------------------------------*\
| =========                 |                                                 |
| \\      /  F ield         | foam-extend: Open Source CFD                    |
|  \\    /   O peration     | Version:     4.1                                |
|   \\  /    A nd           | Web:         http://www.foam-extend.org         |
|    \\/     M anipulation  |                                                 |
\*---------------------------------------------------------------------------*/
FoamFile
{
    version     2.0;
    format      ascii;
    class       volScalarField;
    location    "0.95";
    object      pd;
}
// * * * * * * * * * * * * * * * * * * * * * * * * * * * * * * * * * * * * * //

dimensions      [1 -1 -2 0 0 0 0];

internalField   nonuniform List<scalar> 
2268
(
1082.31
1078.83
1074.12
1063.43
1063.79
1040.27
1031.3
1011.8
992.937
975.762
956.217
917.984
925.508
900.572
885.455
878.736
870.917
865.168
874.601
856.968
876.711
883.69
883.225
1082.9
1078.41
1074.87
1065.27
1062.9
1041.03
1031.03
1011.35
987.723
975.107
953.452
917.754
920.139
899.105
883.216
871.962
869.522
866.659
871.68
868.967
864.78
886.784
880.018
1083.62
1078.43
1075.64
1061.87
1062.61
1040.03
1031.85
1013.34
998.416
977.06
953.188
923.673
915.216
903.673
871.738
880.279
861.034
854.954
851.963
874.683
870.934
879.101
884.468
1083.37
1079.23
1075.42
1063.05
1064.83
1042.22
1030.11
1010.64
991.229
978.338
945.747
931.661
900.269
893.975
875.727
854.468
864.179
862.648
847.653
875.922
855.272
885.418
870.31
1083.67
1080.48
1074.21
1062.84
1056.34
1046.83
1030.01
1018.08
993.589
974.045
949.475
909.281
896.074
889.054
841.556
857.215
851.323
854.708
843.072
874.245
854.75
864.207
890.516
1082.73
1075.99
1075.35
1063.4
1061.2
1044.24
1031.99
1010.34
995.671
963.953
948.731
917.958
881.628
834.893
827.633
824.461
831.957
832.309
836.19
863.075
857.276
876.555
842.6
1082.3
1080.33
1069.33
1057.36
1054.82
1045.39
1030.73
1011.84
987.828
964.692
937.901
890.804
841.823
806.585
755.137
775.983
795.318
811.423
804.551
852.063
836.131
858.453
846.287
1079.78
1074.55
1075.33
1064.78
1057.08
1039.22
1028.39
1004.36
974.961
934.487
906.097
840.514
791.739
740.038
711.914
706.769
739.448
769.282
765.837
800.077
834.221
848.477
795.265
574.543
493.508
376.304
326.178
367.268
427.427
420.973
402.989
407.333
390.865
395.279
401.839
421.27
432.935
459.752
471.594
496.765
495.388
516.056
574.651
435.911
356.689
307.214
361.614
433.865
420.372
398.262
401.249
388.459
394.138
401.009
419.466
428.348
454.509
473.132
491.357
492.808
513.622
527.16
386.235
340.985
297.766
350.914
425.322
406.211
391.107
392.088
376.077
383.103
390.803
412.804
423.355
463.549
475.322
488.534
491.169
508.422
512.677
346.273
322.619
296.445
347.692
410.923
403.525
379.775
373.865
357.058
368.244
378.373
400.687
416.993
456.785
480.121
494.676
489.907
506.703
488.446
319.834
296.263
283.669
316.942
389.781
383.398
376.648
373.15
334.88
354.202
363.414
377.542
399.361
450.014
479.237
498.608
497.779
506.805
474.936
306.139
277.263
257.859
371.6
381.273
367.444
358.946
359.062
330.033
334.665
345.847
361.14
371.37
424.668
480.647
508.166
504.126
509.592
470.241
300.306
261.972
255.757
340.731
353.906
342.519
336.119
348.774
322.307
314.196
325.828
343.095
355.893
402.311
473.694
528.731
509.182
523.779
472.984
306.744
244.479
252.611
341.212
329.693
332.527
312.516
326.104
313.58
295.643
317.327
326.741
335.947
380.252
465.389
540.276
510.687
527.651
1075.81
1068.07
1064.54
1052.1
1053.14
1039.16
1016.3
975.617
931.224
874.706
812.307
746.762
692.817
669.592
646.221
647.298
638.982
669.75
697.793
731.426
798.247
789.246
825.53
1056.87
1061.21
1055.24
1036.83
1033.5
1011.61
968.181
907.24
797.655
706.383
651.59
640.666
646.082
661.839
652.09
646.55
616.552
602.401
576.688
620.081
596.286
678.722
719.409
1028.72
1026.93
1003.89
982.456
945.149
908.376
823.375
735.498
647.17
629.749
565.227
653.329
624.556
660.494
688.225
699.443
660.935
658.191
637.662
638.326
665.644
674.92
637.632
928.795
907.893
888.179
848.369
807.422
737.714
632.143
601.606
570.118
582.698
585.501
518.225
524.336
523.25
572.621
565.768
619.134
678.295
671.777
688.114
637.449
570.725
565.554
671.615
634.336
637.433
606.567
617.319
612.507
536.907
520.487
498.481
505.964
484.122
455.747
427.958
444.335
414.144
437.769
512.948
549.765
537.432
509.191
518.778
570.43
558.435
494.939
475.107
441.741
436.821
442.594
522.868
476.802
473.16
469.195
456.383
430.261
404.98
402.938
407.462
371.289
370.41
403.199
387.787
320.813
393.676
471.917
500.218
523.477
432.571
395.645
384.004
370.623
396.922
433.918
416.921
444.553
452.951
423.187
401.869
379.231
365.422
339.193
319.722
315.514
292.702
272.991
261.93
297.324
327.332
346.768
355.996
436.627
434.382
358.567
342.473
346.412
382.913
398.846
433.133
429.944
407.023
345.45
318.256
282.514
251.951
218.853
206.669
166.771
185.14
187.889
188.567
190.533
184.378
192.048
467.642
431.238
391.593
361.319
365.511
380.232
405.363
429.555
411.327
374.805
326.104
256.259
193.236
158.423
130.446
123.157
103.659
112.375
111.134
98.0128
94.9025
106.285
99.209
489.085
460.07
433.405
392.672
411.287
405.825
422
415.527
373.855
343.525
275.214
191.04
131.746
97.4524
75.4304
66.235
63.698
66.9012
61.6663
53.8144
46.6723
54.4745
50.117
510.463
483.525
452.676
428.296
413.731
423.698
424.285
412.114
358.866
266.381
207.21
128.345
81.1698
55.5759
43.0333
36.4226
34.4194
32.8288
30.1831
26.9576
26.2841
29.5228
22.9548
523.272
487.035
465.764
461.75
401.921
425.018
432.276
346.876
315.754
219.684
132.943
78.0855
48.9332
32.8338
24.1166
20.5561
19.4504
17.3182
14.302
12.4455
12.0621
13.6745
10.3218
523.625
449.077
452.024
439.306
386.815
409.886
354.584
308.258
270.722
169.417
94.4235
59.1773
42.2421
31.5747
20.8271
14.9686
11.0646
9.21207
7.071
5.6638
5.38839
6.19567
4.86671
522.392
442.57
385.563
352.339
336.011
323.276
266.716
218.31
214.173
136.531
83.9356
57.6311
39.3368
28.4223
20.8554
13.6301
8.33649
6.01969
3.71342
2.67236
2.83998
2.99307
2.87324
526.748
435.969
360.684
298.589
252.697
208.127
178.66
142.758
156.238
110.6
70.7599
51.9417
36.5322
21.9091
15.5847
11.4362
7.64221
5.18369
3.46823
2.1824
1.98491
1.64004
1.66477
532.817
436.516
334.069
263.25
219.906
185.16
140.504
117.578
112.928
94.066
76.789
50.8721
34.9995
21.041
11.5748
8.55662
5.2108
3.24368
2.50172
1.63055
1.4861
1.31601
1.31117
540.915
440.997
320.025
251.943
207.518
169.304
140.725
115.739
104.02
84.7694
73.4857
51.2124
37.8506
22.0953
10.8927
5.97916
3.67008
2.54613
1.95341
1.35498
1.2427
1.33257
1.02088
551.182
450.228
326.911
238.171
197.612
165.195
138.589
108.958
84.614
72.4343
61.9788
48.2161
36.1356
27.5812
14.6478
6.28749
3.28787
2.12991
1.65009
1.05727
1.21051
1.19858
1.02979
560.769
456.576
336.158
234.312
187.504
158.994
132.618
99.0856
63.8476
51.5684
43.6663
40.3566
39.412
33.1636
20.1159
8.10376
3.55406
2.26039
1.55098
1.13665
1.14117
1.06776
1.02472
568.506
466.899
346.662
250.845
192.154
165.487
152.304
99.4361
52.1437
33.6283
21.5989
22.3353
27.5751
27.0716
21.0078
11.6463
6.39394
3.36939
1.99526
1.28729
1.13607
0.98788
0.969055
576.816
482.979
382.254
269.272
205.441
184.646
174.172
105.08
44.945
21.1671
12.3965
12.5025
16.0118
21.8037
21.2419
16.5701
11.1488
6.26295
3.15421
1.41346
1.11364
0.953134
0.942615
588.53
508.32
417.131
310.846
243.772
227.312
216.124
115.577
46.4575
18.6748
8.9266
8.2722
10.3781
16.658
19.8641
18.4877
14.6957
8.9234
4.35885
2.07296
1.27228
0.908252
0.750116
604.855
544.518
481.23
380.03
309.318
293.985
257.152
161.34
72.2472
22.8272
8.16815
7.5831
9.64399
14.922
18.3676
18.1119
14.0851
8.23414
3.4761
1.56025
0.828171
0.665693
0.64861
613.084
583.621
507.333
443.987
384.449
361.535
324.464
211.995
97.8097
27.0962
7.04022
7.16151
9.81426
13.4613
15.4607
14.7875
11.7284
7.56499
3.48201
1.39913
0.670149
0.545681
0.621844
600.756
540.228
495.83
465.952
440.377
407.232
355.996
244.555
114.105
30.1011
5.32066
6.97802
9.94503
10.2357
9.37155
6.9047
3.95448
2.1999
1.17383
0.660842
0.521129
0.529452
0.600124
592.718
520.47
467.219
466.014
459.047
423.529
371.989
257.087
105.165
17.4711
2.91293
4.84429
6.02546
4.61476
3.39135
1.86368
0.555382
0.249093
0.232766
0.321072
0.450539
0.474877
0.425659
538.533
459.461
419.529
437.393
434.361
381.339
273.378
144.772
49.6317
8.82258
2.69655
3.37846
3.21562
2.12812
0.965207
0.27787
0.0466514
0.131078
0.224043
0.282324
0.363733
0.391009
0.457459
471.709
424.1
380.585
377.021
347.756
301.745
171.068
75.4452
24.0984
5.13378
2.91312
3.15251
2.3689
1.9857
0.733145
0.196471
0.153304
0.219177
0.227838
0.299618
0.291483
0.333637
0.414661
421.748
387.014
336.414
288.062
217.089
158.208
77.5994
30.8608
8.43206
2.98268
3.89504
4.1021
4.0382
3.64625
2.33516
0.796561
0.557825
0.37827
0.31185
0.301246
0.290964
0.318674
0.359624
392.803
375.775
317.516
241.086
144.85
81.8805
31.5017
7.83301
3.33109
4.31131
4.97062
5.46812
5.05993
4.74127
3.32502
1.5009
0.941912
0.585889
0.36716
0.306076
0.289891
0.291395
0.336102
374.687
356.429
291.845
202.816
106.08
48.3748
16.4776
3.85269
2.5265
4.3601
5.26953
5.18092
5.21747
5.14108
4.16622
2.35719
1.39939
0.754172
0.413628
0.302872
0.273057
0.263662
0.287722
369.425
341.959
263.37
169.484
89.2694
39.5131
13.4084
3.12899
2.46994
4.26951
4.92116
4.82927
4.97365
5.24709
4.86423
3.39147
1.72526
0.842526
0.41718
0.266798
0.241383
0.260717
0.21951
355.289
316.067
224.27
130.379
63.3818
27.148
8.57829
2.06324
2.17847
3.42661
4.28599
3.82974
4.47754
5.29481
5.19359
3.67322
1.57548
0.728234
0.318344
0.222096
0.184722
0.202395
0.218522
338.29
280.235
179.912
91.7406
43.0666
18.7185
6.09661
1.54395
1.46531
2.39284
3.54982
3.43904
4.36434
5.24641
5.56039
3.95164
1.95501
0.846413
0.339187
0.182999
0.173988
0.18494
0.187314
315.248
235.969
135.834
60.1312
25.6662
11.2283
4.0618
1.46124
1.4848
1.82193
2.54155
3.22144
4.50713
5.21591
5.33025
3.75517
1.65125
0.618614
0.206691
0.120996
0.134964
0.147598
0.167322
292.41
197.692
104.628
42.8961
16.8029
7.56929
3.43693
1.9166
2.04522
2.67495
3.34586
4.95643
5.77479
6.00284
4.81542
2.53536
0.860273
0.266812
0.0522606
0.0929957
0.093008
0.129144
0.119025
268.738
161.455
76.0664
28.7955
11.6134
6.28878
4.26461
3.56368
4.35166
5.14004
5.57551
5.97262
5.55358
4.91277
3.57236
1.50358
0.44053
0.102368
0.0536376
0.0467436
0.084981
0.0935894
0.100513
244.506
124.096
47.4674
16.6731
8.85392
7.10958
6.63029
6.66063
7.2369
7.17015
6.93629
5.94132
3.94258
2.361
1.68778
0.497103
0.0764808
-0.0351383
0.00109677
0.00733883
0.0460724
0.0746546
0.0683457
215.644
85.1928
25.7528
10.7047
8.33012
7.84233
7.42254
6.77294
6.52745
5.44147
3.8256
2.37461
1.08323
0.439898
0.247319
-0.0724658
-0.0739232
-0.0174469
0.0033446
0.00845245
0.027386
0.0425621
0.0411948
183.078
54.0065
14.2979
7.62273
6.2776
5.32119
4.0295
2.97392
2.59372
1.70846
0.919655
0.456128
0.0493088
-0.12661
-0.101509
-0.0305613
-0.0207574
-0.0338918
-0.0153563
-0.00871122
0.00373483
0.0140444
0.0105637
125.09
20.3517
4.46684
2.48587
1.66267
1.18005
0.719733
0.329656
0.22789
-0.0503689
-0.173311
-0.247266
-0.180601
-0.218222
-0.0298957
-0.0520511
-0.0935021
-0.0200234
-0.00535243
-0.0133235
-0.00784543
0.0192408
-0.00679212
39.1278
-0.759561
-0.412885
-0.139243
-0.0519819
-0.0313078
-0.0459053
-0.0192928
-0.0341196
-0.0603233
-0.0401413
-0.0280516
-0.0239451
-0.0425454
-0.086244
-0.0830649
-0.0347864
-0.0723652
-0.0555922
-0.0385382
-0.0237456
-0.0578545
-0.0210063
792.847
827.468
809.472
770.273
733.36
785.639
805.073
772.719
650.303
792.676
806.333
800.3
623.09
643.855
661.549
638.799
536.78
613.521
623.123
552.126
482.826
453.18
457.985
383.457
336.248
315.375
285.549
262.156
181.899
171.029
155.006
139.231
89.844
83.284
75.734
68.2477
45.4205
43.597
40.9336
37.3281
20.2488
19.6419
19.5255
18.7651
8.95174
8.53222
8.49624
8.23235
4.1835
3.97953
3.80478
3.6323
2.64234
2.47625
2.39299
2.26828
1.65691
1.6584
1.59427
1.5759
1.345
1.4076
1.26254
1.21302
1.06809
1.0511
1.05012
1.01248
1.09646
1.09164
1.08684
1.07743
1.05541
1.02841
1.01195
1.00379
0.943294
0.959556
0.962535
0.9947
0.911162
0.896459
0.874586
0.823052
0.733954
0.735986
0.778987
0.716569
0.728501
0.677595
0.723419
0.69424
0.573936
0.61712
0.601915
0.64652
0.560948
0.598555
0.624258
0.598068
0.461608
0.518594
0.499823
0.549498
0.474573
0.485094
0.487935
0.494906
0.423024
0.458625
0.457736
0.468079
0.385149
0.363608
0.37953
0.382291
0.332579
0.346442
0.355807
0.316894
0.312179
0.328895
0.323635
0.387997
0.248375
0.234995
0.293879
0.27019
0.237496
0.242675
0.264484
0.229815
0.197326
0.219823
0.197446
0.23094
0.16927
0.173872
0.166926
0.147178
0.1343
0.144473
0.153274
0.159666
0.0876055
0.0868392
0.10194
0.0988717
0.0899071
0.0763614
0.0845353
0.0786828
0.0384896
0.0349378
0.0370058
0.0494387
0.0185165
0.0131167
0.00902894
0.0096121
0.0120846
0.00119312
-0.0145616
-0.0155912
-0.042833
-0.0488545
-0.0372153
-0.0432342
494.029
342.539
286.157
311.997
313.258
286.358
276.758
274.731
295.743
269.121
282.03
303.343
313.93
318.748
396.629
446.315
546.76
539.731
525.538
553.583
375.734
389.462
355.002
317.659
276.79
246.375
236.912
242.288
256.266
274.213
290.209
298.859
336.764
403.774
490.568
522.199
528.563
489.865
589.089
464.679
442.201
339.276
279.636
248.805
261.945
233.825
237.867
265.233
309.038
323.304
351.441
400.118
434.578
429.205
477.062
484.841
442.073
645.509
440.968
354.909
282.598
267.688
268.117
283.936
254.125
281.495
315.798
345.103
349.9
387.392
369.43
309.16
258.982
336.715
397.601
396.659
427.813
356.88
293.085
254.318
232.805
214.487
220.743
215.663
241.134
247.131
199.552
187.701
225.162
183.826
134.838
121.93
169.503
222.966
320.419
317.633
267.18
224.251
159.627
131.469
110.499
117.984
103.129
109.046
100.016
78.3326
70.0354
76.3236
57.168
48.9905
53.0984
84.2461
135.219
248.673
222.552
169.723
131.317
95.3817
76.0242
63.607
62.5744
57.8648
48.5304
38.9269
31.1455
25.8432
23.7762
19.6541
20.2588
25.9859
46.5512
90.8309
164.881
118.238
87.9133
69.8485
52.5753
46.2698
42.1756
40.2094
35.8619
29.839
22.9315
17.432
13.244
11.7893
10.3825
9.90317
10.8165
17.4341
35.6858
79.7291
57.687
44.1524
36.8001
29.7399
30.0652
27.5
29.0771
27.9211
23.1378
18.1034
13.5349
10.1502
8.78628
7.56578
6.51667
5.72703
6.05542
9.89193
25.4566
31.633
25.0663
21.5498
17.8304
17.5824
18.2261
20.627
21.6488
21.3328
18.9345
14.8034
11.0047
8.6676
7.18616
5.81029
4.82932
4.36114
4.6124
6.8287
16.5052
12.735
10.7939
9.3631
9.26177
9.48281
11.1424
14.6401
17.0805
17.6975
15.9954
13.5199
11.1703
8.87466
6.24015
4.91953
3.91932
3.818
3.89824
7.50658
6.15424
5.2908
4.83766
4.71067
4.87726
5.63536
7.73437
10.6429
12.6493
13.7926
13.5286
12.6312
11.0235
7.78676
5.34081
3.77992
3.31928
3.16554
3.28149
2.93176
2.66567
2.54074
2.51688
2.62163
2.76076
3.53115
5.20915
6.82507
8.54763
10.0617
10.5769
10.4987
7.71604
5.02475
3.29441
3.03716
3.2528
2.0096
1.80388
1.6643
1.60535
1.63697
1.72571
1.71719
1.88572
2.51355
3.17996
4.1782
5.55293
7.34036
8.85571
7.35633
4.69164
2.98605
2.48977
2.62372
1.5194
1.33891
1.30726
1.28733
1.22992
1.31795
1.33939
1.31205
1.43674
1.53644
1.9641
2.78843
4.16967
6.2218
5.49784
4.1869
2.62508
2.20124
2.39052
1.39089
1.21521
1.1335
1.13139
1.17041
1.11415
1.18293
1.15735
1.09806
1.08239
1.12189
1.39822
2.05776
3.4741
3.4663
3.14715
2.15589
1.88112
2.21009
1.21417
1.06753
1.09631
1.06075
0.978498
1.05294
0.958142
1.01288
0.973066
0.959214
0.939797
0.919214
1.09054
1.7815
1.76311
1.85937
1.57245
1.68449
2.08134
1.10678
1.04042
1.10729
0.9719
1.01695
1.01635
0.930313
0.958601
0.921865
0.895838
0.890725
0.867827
0.819938
0.94602
1.04936
1.08176
1.18159
1.54631
1.99629
0.972504
1.01963
0.92819
1.03944
0.933681
0.957024
0.857852
0.934951
0.865123
0.852033
0.838723
0.815261
0.74893
0.814393
0.791647
0.879022
1.0507
1.48445
1.95868
0.908088
0.923475
0.983236
0.881482
0.895584
0.872983
0.899876
0.813946
0.86768
0.825624
0.812508
0.78973
0.774981
0.73129
0.756324
0.796814
1.00406
1.44013
1.92875
0.784342
0.822471
0.920556
0.851208
0.929229
0.816038
0.788498
0.849671
0.806865
0.799653
0.771749
0.788793
0.722299
0.760423
0.69901
0.784902
0.937568
1.41666
1.88996
0.756843
0.810428
0.82212
0.811941
0.729673
0.764362
0.817925
0.737956
0.781488
0.761639
0.75592
0.722284
0.727995
0.694085
0.741086
0.733061
0.908984
1.36237
1.86181
0.730061
0.758977
0.78555
0.76406
0.81501
0.731658
0.745976
0.764059
0.707384
0.749501
0.659982
0.732262
0.670638
0.730345
0.645651
0.741918
0.909123
1.34089
1.81719
0.623465
0.730286
0.757297
0.734317
0.7244
0.685016
0.697444
0.707979
0.725008
0.690744
0.662615
0.672467
0.698185
0.642297
0.676533
0.682462
0.808373
1.27729
1.80725
0.614697
0.657917
0.652798
0.667467
0.673321
0.641337
0.633147
0.680378
0.661856
0.658375
0.645605
0.650448
0.644315
0.623447
0.604231
0.712814
0.786933
1.24492
1.77209
0.557751
0.598661
0.600497
0.623311
0.613521
0.586809
0.616034
0.620202
0.607786
0.613922
0.629376
0.596825
0.633751
0.561592
0.616384
0.577871
0.765779
1.21158
1.70581
0.474356
0.530655
0.591862
0.551009
0.572944
0.531789
0.57004
0.574133
0.583901
0.577383
0.579129
0.600333
0.543944
0.599089
0.51309
0.637826
0.725467
1.14617
1.66726
0.441955
0.494396
0.458303
0.520947
0.484871
0.456057
0.547944
0.488359
0.511597
0.493977
0.509521
0.488774
0.573288
0.513167
0.548545
0.569246
0.669878
1.01783
1.61363
0.435083
0.376514
0.499438
0.371416
0.478273
0.459849
0.472441
0.418409
0.47313
0.513264
0.506562
0.475158
0.411649
0.563933
0.435183
0.511536
0.607511
0.973042
1.54452
0.436052
0.391699
0.430816
0.416861
0.415268
0.399062
0.450399
0.328135
0.374812
0.46738
0.474478
0.46323
0.426737
0.429203
0.522216
0.511034
0.62267
0.900792
1.54357
0.372497
0.328771
0.319952
0.42296
0.265307
0.429814
0.274172
0.306483
0.508483
0.425341
0.428067
0.309086
0.386032
0.521088
0.431062
0.24614
0.388636
0.889212
1.52741
0.312129
0.309727
0.32581
0.319107
0.311019
0.32429
0.302327
0.315812
0.340357
0.340928
0.41005
0.383771
0.459158
0.360844
0.098101
0.296765
0.576818
0.959699
1.47324
0.275784
0.281928
0.26901
0.271278
0.223612
0.292592
0.277124
0.393685
0.239326
0.263468
0.41851
0.319973
0.27836
0.155447
0.288298
0.376818
0.562966
0.773503
1.4816
0.216162
0.266163
0.228315
0.253523
0.18345
0.25639
0.226192
0.395408
0.366454
0.381233
0.385813
0.359513
0.337248
0.0368755
0.243195
0.172489
0.168744
0.85012
1.52123
0.23087
0.17513
0.235564
0.192828
0.248583
0.20274
0.233602
0.421253
0.351977
0.351183
0.368837
0.278306
0.0904819
0.256845
0.213048
0.232933
0.398181
0.660115
1.35364
0.148879
0.146492
0.169219
0.216641
0.16369
0.250812
0.250656
0.383276
0.353964
0.346508
0.264011
0.148702
0.249152
0.232644
0.122766
0.193837
0.379543
0.755161
1.19498
0.10847
0.086217
0.0921301
0.124245
0.156748
0.186631
0.28513
0.381438
0.353001
0.312029
0.300863
0.276542
0.245741
0.087948
0.122721
0.134955
0.242718
0.697998
1.03501
0.0665884
0.100232
0.0810143
0.120599
0.183344
0.231594
0.334808
0.348182
0.293798
0.242651
0.175638
0.176407
0.233107
0.138708
0.231506
0.062122
0.146621
0.353059
1.15225
0.0528381
0.0717908
0.0583274
0.143211
0.184278
0.241667
0.29234
0.309493
0.22105
0.182717
0.115063
0.134866
-0.010748
0.071992
-0.0868338
0.00596239
0.122978
0.595632
1.0306
0.00443097
-0.00543615
0.0108489
0.0691873
0.20431
0.299944
0.336678
0.294402
0.153285
0.0883812
0.0253829
0.0840527
-0.0622895
0.158608
-0.121564
0.0508692
0.154251
0.407897
0.836039
-0.0227558
0.011485
-0.0181274
0.0280097
0.124366
0.199487
0.242188
0.172777
0.0503904
0.012603
0.0453064
0.0328302
0.134609
0.114032
0.20218
0.0380586
0.118666
0.366397
0.796851
-0.0531138
-0.106879
-0.0336168
0.00111454
-0.023507
0.110762
0.120184
0.189091
-0.0134082
0.0713389
-0.00934038
-0.00295038
0.0267732
0.08749
0.0891813
0.117871
0.179217
0.131963
0.214218
)
;

boundaryField
{
    leftWall
    {
        type            zeroGradient;
    }
    rightWall
    {
        type            zeroGradient;
    }
    lowerWall
    {
        type            zeroGradient;
    }
    atmosphere
    {
        type            totalPressure;
        rho             rho;
        psi             none;
        gamma           1;
        p0              uniform 0;
        value           nonuniform List<scalar> 
46
(
0
-0.00327359
-0.00379371
-0.0344564
-0.0638624
-0.0556975
-0.064404
-0.0814504
-0.0794128
-0.110852
-0.103708
-0.100888
-0.0781782
-0.0913326
-0.0513544
-0.0511686
-0.055257
-0.0355797
-0.0331437
-0.0310773
-0.0289271
-0.0371963
-0.0303504
-0.0389927
-0.0456723
-0.0479426
-0.0515086
-0.0601577
-0.0856363
-0.0483583
-0.0268733
-0.0122157
0
0
0
0
0
0
0
0
0
0
0
0
0
0
)
;
    }
    defaultFaces
    {
        type            empty;
    }
}


// ************************************************************************* //
