/*--------------------------------*- C++ -*----------------------------------*\
| =========                 |                                                 |
| \\      /  F ield         | foam-extend: Open Source CFD                    |
|  \\    /   O peration     | Version:     4.1                                |
|   \\  /    A nd           | Web:         http://www.foam-extend.org         |
|    \\/     M anipulation  |                                                 |
\*---------------------------------------------------------------------------*/
FoamFile
{
    version     2.0;
    format      ascii;
    class       surfaceScalarField;
    location    "0.95";
    object      phi;
}
// * * * * * * * * * * * * * * * * * * * * * * * * * * * * * * * * * * * * * //

dimensions      [0 3 -1 0 0 0 0];

internalField   nonuniform List<scalar> 
4432
(
9.15146e-07
-9.15146e-07
9.06434e-07
8.71118e-09
2.94259e-06
-2.03616e-06
4.32569e-06
-1.3831e-06
4.13934e-06
1.86353e-07
4.70952e-06
-5.70183e-07
5.36619e-06
-6.56672e-07
6.4028e-06
-1.03661e-06
7.07238e-06
-6.69581e-07
1.01737e-05
-3.10127e-06
1.30125e-05
-2.83887e-06
2.29445e-05
-9.93202e-06
2.41824e-05
-1.23787e-06
2.64391e-05
-2.25667e-06
2.71931e-05
-7.53969e-07
2.74355e-05
-2.42488e-07
2.65478e-05
8.87694e-07
2.49225e-05
1.6254e-06
1.24753e-05
1.24472e-05
1.77255e-05
-5.25022e-06
1.1233e-05
6.49252e-06
7.21284e-06
4.02015e-06
7.21284e-06
1.70517e-06
-2.62032e-06
3.09197e-06
-1.37809e-06
3.7242e-06
-2.66838e-06
2.49642e-06
-1.55327e-07
4.21206e-06
-1.52928e-06
4.8844e-06
-1.24253e-06
5.93438e-06
-1.70665e-06
7.38721e-06
-2.48943e-06
1.55313e-05
-8.81363e-06
1.92668e-05
-6.83682e-06
2.29084e-05
-6.4805e-06
2.20185e-05
-9.04205e-06
2.36848e-05
-2.90424e-06
2.57388e-05
-4.31061e-06
2.6584e-05
-1.59916e-06
2.65573e-05
-2.15844e-07
2.58027e-05
1.64227e-06
2.40306e-05
3.39757e-06
2.39389e-05
1.25388e-05
1.06605e-05
8.02813e-06
1.05072e-05
6.64582e-06
6.77946e-06
7.74792e-06
1.39923e-05
1.34388e-06
-3.9642e-06
3.28922e-06
-3.32343e-06
2.23989e-06
-1.61905e-06
4.93155e-06
-2.84698e-06
4.3604e-06
-9.58132e-07
9.88571e-06
-6.76783e-06
1.06091e-05
-2.43e-06
1.16604e-05
-3.54081e-06
7.39289e-06
-4.54609e-06
1.0245e-05
-9.68888e-06
1.14443e-05
-7.67985e-06
1.89944e-05
-1.65921e-05
1.8932e-05
-2.84189e-06
2.16508e-05
-7.02941e-06
2.20101e-05
-1.95839e-06
1.31858e-05
8.60846e-06
1.39272e-05
9.00837e-07
2.36674e-05
-6.34259e-06
1.93319e-05
1.68743e-05
1.7424e-05
9.93605e-06
1.27126e-05
1.13572e-05
7.44943e-06
1.30111e-05
2.14417e-05
1.47671e-06
-5.44091e-06
1.54788e-06
-3.39459e-06
2.43865e-06
-2.50983e-06
5.25109e-06
-5.65943e-06
4.39512e-06
-1.02154e-07
5.10772e-06
-7.48044e-06
5.45105e-06
-2.77333e-06
1.153e-05
-9.61973e-06
1.31905e-05
-6.20664e-06
7.95346e-06
-4.45182e-06
1.62805e-05
-1.60069e-05
8.90106e-06
-9.21267e-06
1.65759e-05
-1.05168e-05
2.05185e-05
-1.0972e-05
1.19535e-05
6.60661e-06
1.92327e-05
1.3292e-06
1.87048e-05
1.42879e-06
1.03991e-05
1.96312e-06
1.73327e-05
9.94069e-06
1.67133e-05
1.05555e-05
1.06334e-05
1.74371e-05
4.29584e-06
1.93487e-05
2.57376e-05
9.67653e-07
-6.40857e-06
1.68897e-06
-4.11591e-06
2.75088e-06
-3.57174e-06
2.98109e-06
-5.88963e-06
7.20148e-06
-4.32255e-06
4.44005e-06
-4.71901e-06
8.86173e-06
-7.19501e-06
4.8457e-06
-5.60369e-06
1.05449e-05
-1.19058e-05
1.30415e-05
-6.94842e-06
7.58377e-06
-1.05492e-05
1.37945e-05
-1.54234e-05
1.67813e-05
-1.35036e-05
1.19629e-05
-6.1535e-06
2.14713e-05
-2.90178e-06
1.92735e-05
3.52694e-06
1.92539e-05
1.44843e-06
8.97023e-06
1.22468e-05
1.34989e-05
5.41207e-06
8.37997e-06
1.56744e-05
1.06781e-05
1.51389e-05
1.35684e-06
2.86699e-05
2.70944e-05
9.61754e-07
-7.37032e-06
1.14307e-06
-4.29722e-06
2.43137e-06
-4.86005e-06
6.44046e-06
-9.89872e-06
4.34278e-06
-2.22487e-06
4.06144e-06
-4.43767e-06
3.13042e-06
-6.26399e-06
6.17602e-06
-8.64929e-06
4.02919e-06
-9.75897e-06
7.27389e-06
-1.01931e-05
1.02966e-05
-1.35719e-05
8.15108e-06
-1.32779e-05
1.0676e-05
-1.60286e-05
2.40361e-05
-1.95136e-05
2.51647e-05
-4.03041e-06
2.37545e-05
4.93719e-06
1.21695e-05
1.30334e-05
1.98602e-05
4.55614e-06
6.48302e-06
1.87892e-05
6.04324e-06
1.61141e-05
1.03152e-05
1.0867e-05
9.01228e-06
2.99728e-05
3.61067e-05
2.2012e-07
-7.59044e-06
1.11548e-06
-5.19258e-06
2.81057e-06
-6.55513e-06
1.00549e-06
-8.09365e-06
1.89774e-06
-3.11711e-06
1.95636e-06
-4.49629e-06
2.23531e-06
-6.54294e-06
4.18599e-06
-1.06e-05
6.31897e-06
-1.18919e-05
8.72223e-06
-1.25964e-05
6.60915e-06
-1.14589e-05
7.10569e-06
-1.37744e-05
1.5958e-05
-2.48809e-05
1.27078e-05
-1.62634e-05
2.67883e-05
-1.81108e-05
2.46245e-05
7.10094e-06
2.53439e-05
1.2314e-05
1.31268e-05
1.67732e-05
1.60775e-05
1.58385e-05
7.27601e-06
2.49156e-05
6.76465e-06
1.13784e-05
1.13392e-05
2.53983e-05
4.74459e-05
-4.72377e-07
-7.11806e-06
-1.45856e-06
-4.2064e-06
-1.77455e-06
-6.23914e-06
-3.16622e-07
-9.55158e-06
-3.46336e-08
-3.3991e-06
-3.53889e-07
-4.17704e-06
7.1246e-07
-7.60929e-06
4.71295e-06
-1.46005e-05
8.3954e-06
-1.55744e-05
9.32378e-06
-1.35248e-05
6.31167e-06
-8.44676e-06
1.05876e-05
-1.80503e-05
5.07472e-06
-1.9368e-05
1.54896e-05
-2.66783e-05
1.34568e-05
-1.60781e-05
2.89997e-05
-8.44193e-06
2.98305e-05
1.14832e-05
1.77519e-05
2.88518e-05
2.6093e-05
7.49737e-06
1.63241e-05
3.46846e-05
1.75287e-05
1.01737e-05
2.01033e-05
2.28237e-05
6.75492e-05
-5.93293e-05
5.93294e-05
-0.000119162
5.98326e-05
-0.000129471
1.03095e-05
-0.000129758
2.86562e-07
-0.000111189
-1.85691e-05
-9.12987e-05
-1.98902e-05
-8.1232e-05
-1.00667e-05
-7.35796e-05
-7.65234e-06
-6.5394e-05
-8.18556e-06
-6.29893e-05
-2.40474e-06
-5.85226e-05
-4.46668e-06
-5.24489e-05
-6.07371e-06
-4.59665e-05
-6.48243e-06
-4.1041e-05
-4.92554e-06
-1.92768e-05
-2.17641e-05
-1.70391e-05
-2.23776e-06
-2.61586e-05
9.11957e-06
-1.52687e-05
-1.08899e-05
-1.52687e-05
-5.01966e-05
0.000109526
-8.91935e-05
9.88295e-05
-8.97538e-05
1.08698e-05
-8.90045e-05
-4.62726e-07
-6.46491e-05
-4.29245e-05
-4.38617e-05
-4.06776e-05
-3.98518e-05
-1.40766e-05
-3.59103e-05
-1.15939e-05
-3.21974e-05
-1.18984e-05
-3.31079e-05
-1.49426e-06
-3.02933e-05
-7.28129e-06
-2.59222e-05
-1.04448e-05
-1.3539e-05
-1.88656e-05
-1.16739e-05
-6.79066e-06
-1.21258e-05
-2.13123e-05
-1.47849e-05
4.21335e-07
-1.10085e-05
5.34316e-06
-1.09089e-05
-1.09895e-05
-2.61776e-05
-3.79413e-05
0.000147467
-6.33467e-05
0.000124235
-6.4154e-05
1.1677e-05
-3.58743e-05
-2.87424e-05
-4.04289e-05
-3.83699e-05
-9.34263e-06
-7.17639e-05
-8.67935e-06
-1.47399e-05
-6.74191e-06
-1.35313e-05
-1.89711e-06
-1.67432e-05
-5.88166e-06
2.4903e-06
-9.05135e-06
-4.1116e-06
-6.53241e-06
-1.29638e-05
-8.52313e-06
-1.68749e-05
-6.08787e-06
-9.22592e-06
-1.10175e-05
-1.63827e-05
-8.05645e-06
-2.53968e-06
-6.11824e-06
3.40495e-06
-1.22162e-06
-1.58861e-05
-2.73992e-05
-2.88569e-05
0.000176324
-4.69667e-05
0.000142345
-5e-05
1.47103e-05
-4.6657e-05
-3.20855e-05
-1.44612e-05
-7.05657e-05
1.22849e-05
-9.85099e-05
9.20789e-06
-1.16629e-05
7.3646e-06
-1.1688e-05
1.07295e-05
-2.01082e-05
1.23823e-05
8.37523e-07
9.02355e-06
-7.52826e-07
7.01017e-06
-1.09504e-05
4.05214e-06
-1.39168e-05
8.01523e-06
-1.3189e-05
1.17524e-05
-2.01198e-05
1.56367e-05
-6.42396e-06
1.27285e-05
6.31315e-06
5.28943e-06
-8.44708e-06
-2.21098e-05
-2.05682e-05
0.000196893
-3.34796e-05
0.000155256
-3.94344e-05
2.06651e-05
-2.92091e-05
-4.23108e-05
2.17783e-06
-0.000101953
1.80706e-05
-0.000114403
2.94459e-05
-2.30382e-05
2.81571e-05
-1.03991e-05
2.25252e-05
-1.44763e-05
3.77535e-05
-1.43908e-05
2.65088e-05
1.04918e-05
1.05652e-05
4.99329e-06
1.02678e-05
-1.36194e-05
1.54733e-05
-1.83945e-05
1.73188e-05
-2.19653e-05
1.12064e-05
-3.11602e-07
2.42526e-05
-6.733e-06
1.06599e-05
5.14556e-06
-1.14499e-05
-1.36078e-05
0.0002105
-2.13358e-05
0.000162984
-3.08775e-05
3.02068e-05
-1.01506e-05
-6.30377e-05
2.78779e-05
-0.000139981
2.52379e-05
-0.000111763
5.77608e-05
-5.55611e-05
5.72741e-05
-9.91241e-06
6.10812e-05
-1.82834e-05
5.51476e-05
-8.45716e-06
4.20236e-05
2.36158e-05
3.19009e-05
1.5116e-05
1.34281e-05
4.85342e-06
1.11562e-05
-1.61227e-05
2.15009e-05
-3.23099e-05
2.22231e-05
-1.03384e-06
2.54471e-05
-9.95703e-06
1.07919e-05
1.98008e-05
-6.58049e-07
-6.63354e-06
0.000217134
-6.8468e-06
0.000163197
-8.76116e-06
3.21211e-05
6.58054e-06
-7.83795e-05
1.81324e-05
-0.000151533
2.77511e-05
-0.000121381
3.15107e-05
-5.93207e-05
5.97577e-05
-3.81595e-05
6.44938e-05
-2.30194e-05
6.49809e-05
-8.9442e-06
5.4484e-05
3.41126e-05
4.03352e-05
2.92648e-05
3.26543e-05
1.25344e-05
1.4742e-05
1.78953e-06
1.35246e-05
-3.10925e-05
2.4264e-05
-1.17732e-05
2.74839e-05
-1.3177e-05
2.13213e-05
2.59634e-05
2.06633e-05
4.72647e-07
0.000216661
8.44493e-06
0.000155225
1.0594e-05
2.9972e-05
2.6541e-05
-9.43265e-05
2.49602e-05
-0.000149952
2.92787e-05
-0.0001257
3.18421e-05
-6.18841e-05
5.42483e-05
-6.05657e-05
5.95745e-05
-2.83456e-05
3.3788e-05
1.68423e-05
2.69638e-05
4.09368e-05
4.08796e-05
1.5349e-05
3.66502e-05
1.67637e-05
3.34363e-05
5.00348e-06
3.06528e-05
-2.83089e-05
2.90148e-05
-1.01352e-05
1.77433e-05
-1.90548e-06
2.70695e-05
1.66372e-05
4.77328e-05
-4.92357e-07
-6.62571e-06
-1.63418e-06
-3.06457e-06
-2.51381e-06
-5.35951e-06
-4.71576e-06
-7.34963e-06
-2.68482e-06
-5.43004e-06
1.90873e-07
-7.05273e-06
1.21255e-06
-8.63097e-06
4.12039e-07
-1.37999e-05
3.77841e-06
-1.89408e-05
3.26022e-06
-1.30066e-05
1.69445e-06
-6.88099e-06
4.3999e-06
-2.07558e-05
5.63423e-06
-2.06023e-05
4.61172e-06
-2.56558e-05
2.20882e-05
-3.35546e-05
4.904e-05
-3.53937e-05
6.27998e-05
-2.2765e-06
7.50808e-05
1.65707e-05
3.8639e-05
4.39393e-05
6.16565e-05
1.16671e-05
3.87162e-05
3.3114e-05
3.82281e-05
2.33117e-05
3.99783e-05
6.5799e-05
-1.48092e-08
-6.6109e-06
3.8639e-06
-6.94328e-06
4.85938e-06
-6.35499e-06
7.34809e-06
-9.83834e-06
2.73532e-06
-8.17263e-07
-4.11117e-06
-2.06243e-07
-1.21048e-05
-6.37388e-07
-1.89761e-05
-6.92862e-06
-3.99528e-05
2.03593e-06
-5.57919e-05
2.83256e-06
-7.31735e-05
1.05006e-05
-7.52298e-05
-1.86995e-05
-6.45192e-05
-3.13129e-05
-4.81364e-05
-4.20385e-05
-2.89037e-05
-5.27872e-05
-1.6636e-05
-4.76615e-05
2.19282e-05
-4.08407e-05
3.51507e-05
3.34821e-06
6.50588e-05
1.40312e-05
4.69459e-05
2.97799e-05
7.86819e-05
1.37801e-06
8.18315e-05
2.01621e-05
4.00872e-05
8.17226e-05
6.89133e-06
-1.35022e-05
1.42846e-05
-1.43365e-05
1.75217e-05
-9.59209e-06
9.00576e-06
-1.32245e-06
5.19264e-06
2.99585e-06
-5.45524e-06
1.04416e-05
-1.59102e-05
9.81754e-06
-4.00038e-05
1.7165e-05
-5.49515e-05
1.69836e-05
-7.55004e-05
2.33814e-05
-6.42116e-05
-7.88205e-07
-9.68326e-05
1.39215e-05
-9.61628e-05
-3.19827e-05
-0.000100014
-3.81878e-05
-0.000100874
-5.19268e-05
-9.34122e-05
-5.51232e-05
-6.78663e-05
-6.63867e-05
-2.93147e-05
-3.52034e-05
2.65882e-06
-1.79423e-05
3.10481e-05
1.3906e-06
4.88778e-05
-1.64516e-05
5.76385e-05
1.14013e-05
2.61517e-05
7.15741e-05
2.71431e-05
-4.06453e-05
3.34339e-05
-2.06273e-05
3.67779e-05
-1.2936e-05
3.57212e-05
-2.65786e-07
1.68791e-05
2.1838e-05
-3.47378e-06
3.07945e-05
-2.13784e-05
2.77222e-05
-7.20442e-05
6.78307e-05
-8.23082e-05
2.72476e-05
-7.63343e-05
1.74075e-05
-7.58798e-05
-1.24266e-06
-5.49363e-05
-7.02202e-06
-8.24846e-05
-4.43437e-06
-9.18044e-05
-2.8868e-05
-0.000119637
-2.40945e-05
-0.000133986
-4.07741e-05
-0.000127622
-7.27508e-05
-0.000109618
-5.32067e-05
-8.45343e-05
-4.30263e-05
-4.69325e-05
-3.62112e-05
-1.37389e-05
-4.96452e-05
1.06939e-05
-1.30315e-05
1.49507e-05
2.18949e-05
2.77496e-05
-6.83949e-05
7.55994e-05
-6.84771e-05
7.90841e-05
-1.64207e-05
7.49793e-05
3.83899e-06
6.39097e-05
3.29076e-05
1.5529e-05
7.91751e-05
-3.83904e-05
8.16416e-05
-4.97988e-05
7.92392e-05
-4.6575e-05
2.40238e-05
-4.46578e-05
1.54903e-05
-4.75266e-05
1.62614e-06
-5.85916e-05
4.04297e-06
-6.88196e-05
5.79373e-06
-9.32186e-05
-4.46902e-06
-8.21487e-05
-3.51645e-05
-8.18339e-05
-4.10889e-05
-0.000132609
-2.19753e-05
-0.000139725
-4.60913e-05
-0.000152292
-3.0459e-05
-0.000151381
-3.71222e-05
-0.00013687
-6.41567e-05
-0.000130364
-1.95376e-05
1.83466e-05
-0.00013376
3.84259e-05
-0.000106821
6.24828e-05
-9.25341e-05
8.77093e-05
-4.16472e-05
5.28494e-05
3.86989e-05
2.51013e-05
6.06557e-05
-2.08194e-06
0.000106358
-3.71218e-05
0.000116681
-4.47443e-05
8.68617e-05
-6.22398e-05
4.15193e-05
-8.85025e-05
4.1753e-05
-0.000112953
2.6077e-05
-0.000148158
3.92476e-05
-0.000163525
2.11609e-05
-0.00016614
-1.85411e-06
-0.000183361
-1.79431e-05
-0.000188383
-3.60676e-05
-0.000176671
-3.36867e-05
-0.000186465
-3.62975e-05
-0.000126874
-9.00499e-05
-0.000107098
-5.68986e-05
-0.000152514
-1.8741e-05
-0.000159966
-1.20852e-05
1.35659e-05
-0.000155185
3.18802e-05
-0.000138701
1.07292e-05
-7.13831e-05
2.80175e-05
-5.89355e-05
3.87331e-05
2.79833e-05
7.23589e-06
9.2153e-05
-2.856e-05
0.000142154
-5.14611e-05
0.000139582
-6.37588e-05
9.91595e-05
-0.000100859
7.86197e-05
-0.000141328
8.22222e-05
-0.000169295
5.40434e-05
-0.000197842
6.77949e-05
-0.000198885
2.22037e-05
-0.000200828
8.84724e-08
-0.000202705
-1.60654e-05
-0.000204216
-3.45563e-05
-0.000209487
-2.84158e-05
-0.000202043
-4.37414e-05
-0.000206345
-8.57482e-05
-0.000206049
-5.71947e-05
-0.000186754
-3.80361e-05
-0.000168321
-3.05179e-05
-6.49651e-06
-0.000148259
-1.53988e-05
-0.000123302
-2.08373e-06
-8.46981e-05
-2.46326e-05
-3.63867e-05
-4.36746e-05
4.70253e-05
-5.58155e-05
0.000104294
-6.16677e-05
0.000148006
-6.60882e-05
0.000144003
-8.87492e-05
0.000121821
-0.000121622
0.000111493
-0.000143573
0.000104173
-0.000182312
9.27823e-05
-0.000187094
7.25766e-05
-0.000187311
2.24212e-05
-0.000196257
9.03458e-06
-0.000200755
-1.15675e-05
-0.000205248
-3.00632e-05
-0.000137385
-9.62796e-05
-0.000116026
-6.50999e-05
-0.00016871
-3.30645e-05
-0.000165518
-6.03862e-05
-0.000167445
-3.61095e-05
-0.000158477
-3.9486e-05
-3.48621e-05
-0.000130111
-4.33454e-05
-7.99568e-05
-8.20042e-05
-4.60393e-05
-9.78875e-05
-2.05034e-05
-0.000109866
5.90042e-05
-0.000106783
0.00010121
-9.56232e-05
0.000136847
-9.38025e-05
0.000142182
-0.000108926
0.000136944
-0.000126256
0.000128823
-0.000132971
0.000110889
-0.000140743
0.000100554
-0.000131172
6.30057e-05
-0.000136345
2.75942e-05
-0.000134846
7.53609e-06
-0.000116702
-2.97118e-05
-9.83078e-05
-4.84574e-05
-0.000136608
-5.79794e-05
-0.000156813
-4.48947e-05
-0.000147455
-4.24231e-05
-0.000158313
-4.95276e-05
-9.82851e-05
-9.61377e-05
-7.42508e-05
-6.35203e-05
-2.31343e-05
-8.59787e-05
-6.79919e-05
-1.19649e-05
-0.000105427
-8.60434e-06
-0.000136759
1.08282e-05
-0.000148843
7.10888e-05
-0.000118934
7.1301e-05
-0.000114095
0.000132008
-0.000110881
0.000138968
-0.00011445
0.000140513
-0.000119354
0.000133727
-8.98215e-05
8.13556e-05
-8.32687e-05
9.4001e-05
-6.94992e-05
4.92362e-05
-5.29655e-05
1.10605e-05
-4.34869e-05
-1.94252e-06
-4.63856e-05
-2.6813e-05
-5.85055e-05
-3.63375e-05
-6.33351e-05
-5.31498e-05
-5.3396e-05
-5.48338e-05
-4.80755e-05
-4.77436e-05
-4.4334e-05
-5.32692e-05
-7.20467e-05
-6.8425e-05
-8.68706e-05
-4.86963e-05
-5.43175e-05
-5.56873e-05
-4.14532e-05
2.94883e-05
-6.51888e-05
1.51313e-05
-6.73524e-05
1.29918e-05
-8.11533e-05
8.48898e-05
-0.00014083
0.000130977
-0.000125347
0.000116525
-0.000115749
0.00012937
-5.67638e-05
8.15278e-05
-5.10768e-05
0.00012804
-0.000100697
0.000130976
-6.00726e-05
5.33766e-05
-2.31661e-05
1.23296e-05
3.35431e-06
-1.54599e-05
2.61213e-05
-2.47095e-05
1.79369e-05
-1.86286e-05
2.14462e-06
-2.05452e-05
-2.86258e-05
-2.23794e-05
-4.64353e-05
-3.70244e-05
-4.65465e-05
-4.76324e-05
-4.19792e-05
-5.78365e-05
-3.6321e-05
-7.40832e-05
-3.30232e-05
-5.19941e-05
-6.43792e-05
-2.29616e-05
-2.89453e-05
5.84336e-05
-9.13375e-05
7.75235e-05
-0.000129764
5.14184e-05
-0.000136581
9.17071e-05
-9.5993e-05
9.03889e-05
-7.85943e-05
9.91267e-05
-8.43443e-05
0.00013512
-0.000103453
0.000100636
-9.19238e-05
0.000116511
-7.41786e-05
0.000113231
-3.09023e-05
1.01003e-05
1.33243e-07
-1.87059e-05
3.29148e-05
-4.82414e-05
6.16636e-05
-5.34583e-05
6.73332e-05
-2.42982e-05
4.61881e-05
5.99798e-07
1.89017e-05
4.90706e-06
-9.01191e-07
-1.72215e-05
-1.59247e-05
-3.2609e-05
-2.38859e-05
-4.98752e-05
-3.05955e-05
-6.73737e-05
-3.23303e-05
-5.02593e-05
-7.22987e-05
-2.44108e-05
-3.89714e-05
9.74051e-05
-5.76757e-05
9.62279e-05
-0.000110311
0.000104054
-0.000114401
9.57967e-05
-9.2145e-05
6.81332e-05
-0.000117069
0.000124051
-0.000100144
0.000118195
-4.90586e-05
4.95513e-05
-5.66856e-05
0.000124138
-1.22012e-05
6.87461e-05
9.454e-06
-1.15548e-05
5.98715e-05
-6.91234e-05
9.5622e-05
-8.39918e-05
0.000109035
-6.68711e-05
0.000115493
-3.07565e-05
8.22638e-05
3.38293e-05
6.12271e-05
2.59436e-05
3.79958e-05
6.00975e-06
2.54775e-05
-2.00906e-05
1.0699e-05
-3.50967e-05
-1.95129e-06
-5.47233e-05
-1.1757e-06
-5.10349e-05
-5.76281e-05
-1.58463e-05
-2.73608e-05
0.000124766
-3.91068e-05
0.000107974
-5.37047e-05
0.000118652
-6.68521e-05
0.000108944
-0.000115862
0.000117143
-7.51209e-05
8.331e-05
-5.25755e-05
9.56492e-05
-4.81752e-05
4.5151e-05
-5.89972e-06
8.18624e-05
6.09343e-05
1.91202e-06
8.99137e-05
-4.05342e-05
0.000117682
-9.68916e-05
0.00013396
-0.00010027
0.000154418
-8.73291e-05
0.000160761
-3.70999e-05
0.000163283
3.13074e-05
0.000132791
5.64356e-05
8.07992e-05
5.80017e-05
5.13128e-05
9.39552e-06
5.41264e-05
-3.79103e-05
4.36573e-05
-4.42543e-05
3.66015e-05
-4.3979e-05
-3.47364e-05
1.37098e-05
-1.50012e-05
0.000139767
-2.8874e-05
0.000121847
-3.41598e-05
0.000123938
-3.32162e-05
0.000108001
-3.13879e-05
0.000115314
-6.5798e-05
0.00011772
-3.47755e-06
3.33288e-05
7.73027e-06
3.39432e-05
6.13721e-05
2.82206e-05
8.08231e-05
-1.7539e-05
0.00015469
-0.000114401
0.000124086
-6.62882e-05
0.000127956
-0.000104139
0.000144509
-0.000103882
0.000172986
-6.55775e-05
0.000202537
1.75581e-06
0.000211639
4.73338e-05
0.000199462
7.01787e-05
0.000184486
2.43721e-05
0.000136941
9.63414e-06
7.65779e-05
1.61089e-05
5.91713e-05
-2.65722e-05
-3.27328e-05
5.71677e-05
-1.02091e-05
0.000149976
-1.9166e-05
0.000130804
-2.97385e-05
0.00013451
-2.63809e-05
0.000104643
-1.48193e-05
0.000103753
1.76424e-05
8.52583e-05
3.65093e-05
1.44619e-05
0.000107186
-3.67333e-05
0.000153318
-1.7912e-05
0.000180211
-4.44315e-05
0.000111434
-4.56239e-05
0.000160376
-0.000115231
0.000128842
-7.26045e-05
0.000128876
-0.000103916
0.000127365
-6.40673e-05
0.000114694
1.44273e-05
0.000132946
2.90812e-05
0.00018181
2.13152e-05
0.000181203
2.49792e-05
0.000162884
2.79531e-05
0.000162817
1.61762e-05
0.000141183
-4.93793e-06
-3.97398e-07
0.000108847
-7.15225e-06
0.000157128
-1.26601e-05
0.000136311
-1.39286e-05
0.000135779
1.92036e-05
7.15108e-05
1.98543e-05
0.000103102
6.41678e-05
4.09448e-05
0.000116843
-3.82133e-05
0.000130914
-5.08041e-05
0.000151145
-3.81435e-05
0.000153745
-4.7031e-05
0.000186012
-7.78914e-05
0.000140173
-6.9391e-05
0.000125322
-5.77537e-05
0.000120235
-9.88287e-05
0.000138969
-8.28016e-05
0.000183632
-3.02353e-05
0.000197403
1.53099e-05
0.000186586
3.21322e-05
0.000192499
1.90666e-05
0.000161434
5.90177e-05
0.000141115
3.64951e-05
9.58976e-05
4.02792e-05
1.25231e-05
8.29772e-05
-3.96725e-06
0.000161096
-7.99374e-06
0.000140338
-1.19598e-06
0.000128981
4.52556e-06
6.57893e-05
2.01965e-05
8.74311e-05
2.81441e-05
3.29973e-05
6.06159e-05
-7.06851e-05
6.97319e-05
-5.99201e-05
0.000123446
-9.1858e-05
0.000127668
-5.12523e-05
8.75893e-05
-3.78131e-05
9.58651e-05
-7.76668e-05
0.000126706
-8.85949e-05
0.000108688
-8.08105e-05
0.000109789
-8.39022e-05
0.000128604
-4.90502e-05
0.000138931
4.98301e-06
0.000151212
1.98505e-05
0.000115726
5.45526e-05
0.000147466
2.72778e-05
0.000138473
4.54884e-05
0.000148631
3.01213e-05
3.1764e-05
0.00012939
-6.5362e-06
0.000167632
-8.66781e-06
0.00014247
2.94196e-06
0.000117371
-1.8552e-05
8.72832e-05
7.38257e-06
6.14965e-05
3.77234e-05
2.65648e-06
2.63802e-05
-5.93419e-05
3.73415e-05
-7.08814e-05
7.03522e-05
-0.000124869
0.000109957
-9.08574e-05
0.000151647
-7.95026e-05
0.000155484
-8.15039e-05
0.000141248
-7.43593e-05
0.00012286
-6.24227e-05
7.2375e-05
-3.34165e-05
7.27308e-05
-4.9406e-05
0.000116647
-3.89334e-05
0.000128178
8.32015e-06
0.00014782
3.49103e-05
0.000129341
4.57565e-05
0.000124474
5.03552e-05
0.000124771
2.9825e-05
4.01125e-05
0.000116422
-7.05591e-06
0.000174688
-9.69898e-06
0.000145113
-3.96059e-06
0.000111633
-8.78904e-06
9.21117e-05
-9.76895e-06
6.24764e-05
-8.19898e-06
1.08652e-06
2.88479e-05
-9.63888e-05
3.60116e-05
-7.80451e-05
6.81222e-05
-0.000156979
4.2362e-05
-6.50972e-05
8.72772e-05
-0.000124418
8.11083e-05
-7.5335e-05
9.03323e-05
-8.35833e-05
7.8567e-05
-5.06573e-05
7.94081e-05
-3.42577e-05
7.10366e-05
-4.10345e-05
7.17088e-05
-3.96055e-05
9.66043e-05
-1.65754e-05
0.000126607
4.90779e-06
0.000113858
5.85057e-05
0.000118479
4.57338e-05
0.000117268
3.10359e-05
4.88772e-05
0.000108503
-5.43692e-06
0.000180125
-1.26742e-05
0.00015235
1.89918e-05
7.99668e-05
-3.63075e-06
0.000114734
-1.56008e-05
7.44465e-05
-3.53704e-05
2.08561e-05
-3.22411e-05
-9.9518e-05
7.10499e-06
-0.000117391
1.37432e-05
-0.000163618
3.69469e-05
-8.8301e-05
4.01451e-05
-0.000127616
8.88883e-05
-0.000124078
0.000103636
-9.83312e-05
9.71932e-05
-4.42143e-05
8.41646e-05
-2.12291e-05
7.74726e-05
-3.43424e-05
7.28525e-05
-3.49854e-05
8.10228e-05
-2.47457e-05
6.72928e-05
1.86378e-05
0.00010323
2.25681e-05
8.7834e-05
6.11301e-05
4.75875e-05
7.12824e-05
4.09135e-05
5.55512e-05
1.82148e-06
0.000178303
1.20753e-05
0.000142096
1.4125e-05
7.79171e-05
5.87367e-06
0.000122986
-8.50932e-06
8.88295e-05
-1.56811e-05
2.80279e-05
-2.27223e-05
-9.24768e-05
-1.74122e-05
-0.000122701
-1.03508e-05
-0.000170679
5.91245e-05
-0.000157776
8.41297e-05
-0.000152621
9.33601e-05
-0.000133308
9.81635e-05
-0.000103135
9.84015e-05
-4.44523e-05
9.61405e-05
-1.89681e-05
9.40357e-05
-3.22376e-05
9.30524e-05
-3.4002e-05
9.65391e-05
-2.82325e-05
9.49493e-05
2.02276e-05
7.27217e-05
4.47958e-05
8.15746e-05
5.22772e-05
9.88563e-05
5.40008e-05
4.16598e-05
9.811e-05
5.0294e-06
0.000173274
2.03629e-05
0.000126762
2.28698e-05
7.54102e-05
3.00023e-05
0.000115853
3.13741e-05
8.74577e-05
3.19645e-05
2.74374e-05
-1.12525e-05
-4.92597e-05
-9.2563e-06
-0.000124698
2.66277e-06
-0.000182598
2.67035e-05
-0.000181817
5.11672e-05
-0.000177085
7.04847e-05
-0.000152626
7.47079e-05
-0.000107358
7.86738e-05
-4.84182e-05
7.81353e-05
-1.84296e-05
5.75507e-05
-1.1653e-05
5.6539e-05
-3.29903e-05
4.58446e-05
-1.7538e-05
5.92109e-05
6.86121e-06
4.8025e-05
5.59817e-05
5.31372e-05
4.71651e-05
5.83932e-05
4.87447e-05
6.35934e-05
3.64596e-05
3.8006e-07
0.000172894
4.20444e-05
8.50981e-05
4.10168e-05
7.64378e-05
4.09279e-05
0.000115942
5.75411e-05
7.08445e-05
5.94801e-05
2.54983e-05
6.27109e-05
-5.24905e-05
1.32893e-05
-7.5276e-05
1.34223e-05
-0.000182731
1.68838e-05
-0.000185278
3.33495e-05
-0.00019355
4.2507e-05
-0.000161784
4.0791e-05
-0.000105642
4.01674e-05
-4.77947e-05
5.70746e-05
-3.53368e-05
8.0707e-05
-3.52853e-05
8.36331e-05
-3.59164e-05
7.25131e-05
-6.41801e-06
5.31201e-05
2.62542e-05
5.08123e-05
5.82894e-05
4.52356e-05
5.27418e-05
4.25353e-05
5.1445e-05
6.23694e-05
4.37593e-05
1.55339e-05
0.00015736
3.26934e-05
6.79386e-05
6.05692e-05
4.8562e-05
7.62537e-05
0.000100257
8.99757e-05
5.71225e-05
9.22937e-05
2.31803e-05
7.25005e-05
-3.26973e-05
6.68441e-05
-6.96195e-05
5.29855e-05
-0.000168873
1.50031e-05
-0.000147296
-6.32423e-06
-0.000172223
-2.08758e-05
-0.000147232
-2.13653e-05
-0.000105152
-8.55688e-06
-6.06031e-05
9.66534e-06
-5.3559e-05
1.19678e-05
-3.75878e-05
2.85609e-06
-2.68047e-05
-3.95908e-06
3.97162e-07
-8.66695e-06
3.09621e-05
1.16681e-06
4.84557e-05
1.47555e-05
3.91531e-05
2.59908e-05
4.02097e-05
4.25802e-05
4.578e-05
1.64081e-05
0.000140952
2.5594e-05
5.87527e-05
4.26737e-05
3.14823e-05
7.6799e-05
6.6132e-05
0.000103163
3.07588e-05
0.000108345
1.79977e-05
0.000100468
-2.48203e-05
0.000113616
-8.27675e-05
2.75111e-05
-8.27673e-05
-2.11031e-06
-0.000117675
-2.27593e-05
-0.000151574
-4.28067e-05
-0.000127184
-4.3857e-05
-0.000104102
-5.59714e-06
-9.88629e-05
-2.65471e-06
-5.65014e-05
-2.57649e-05
-1.44776e-05
-4.31371e-05
-9.43253e-06
-4.03795e-05
-2.36043e-06
-1.39936e-05
4.57618e-06
-9.93014e-07
3.54551e-05
1.71307e-05
2.10294e-05
3.55713e-05
2.17691e-05
4.18712e-05
3.62803e-05
2.55877e-05
0.000115364
3.10108e-05
5.33296e-05
2.61575e-05
3.63356e-05
6.82677e-05
2.40219e-05
6.2854e-05
3.61725e-05
6.99368e-05
1.09149e-05
0.000104077
-5.89609e-05
6.86973e-05
-4.73874e-05
4.55909e-05
-5.9661e-05
1.72727e-05
-8.93564e-05
-2.8586e-05
-0.000105715
-4.33178e-05
-0.000112453
-3.01361e-05
-0.000117284
-1.35187e-05
-0.00011548
-2.55739e-05
-4.44461e-05
-2.11924e-05
-1.88592e-05
-1.85921e-05
-1.20328e-05
-1.37914e-05
-7.16113e-06
-8.37499e-06
-8.40193e-07
5.21101e-06
2.18691e-05
1.47742e-05
1.14662e-05
2.04235e-05
1.61198e-05
3.18547e-05
3.04399e-05
3.21278e-05
8.32364e-05
3.25531e-05
5.29043e-05
3.39281e-05
3.49606e-05
3.50178e-05
2.29322e-05
7.50502e-05
-3.85979e-06
9.01223e-05
-4.15733e-06
8.56797e-05
-5.45182e-05
8.06036e-05
-4.23113e-05
6.14138e-05
-4.04712e-05
-7.97626e-06
-1.99663e-05
-5.92024e-05
-5.44894e-05
-6.46117e-05
-0.000107043
-9.78086e-05
-8.4087e-05
-6.2044e-05
-0.000151245
-3.59061e-05
-7.05841e-05
-3.63527e-05
-1.84126e-05
-1.33795e-05
-3.50059e-05
-2.55164e-06
-1.7989e-05
3.92393e-06
-7.31576e-06
1.63121e-05
9.48086e-06
1.45098e-05
1.32685e-05
1.94317e-05
1.11979e-05
2.74228e-05
2.38636e-05
1.70799e-05
6.61565e-05
1.46722e-05
5.5312e-05
1.66979e-05
3.29349e-05
2.68487e-05
1.27814e-05
5.15086e-05
-2.85197e-05
7.49823e-05
-2.7631e-05
7.70182e-05
-5.65541e-05
5.12516e-05
-1.65446e-05
-1.09837e-05
2.17641e-05
-5.02412e-05
1.92912e-05
-7.73299e-05
-2.74007e-05
-0.000108619
-7.57543e-05
-0.000108849
-8.38573e-05
-8.6e-05
-0.000174093
-5.8614e-06
-0.000150723
-2.38978e-07
-2.4035e-05
1.45088e-06
-3.66958e-05
1.07558e-05
-2.72939e-05
8.57258e-06
-5.13255e-06
1.72703e-05
7.83161e-07
1.69853e-05
1.35535e-05
2.25336e-05
5.64962e-06
2.14774e-05
2.8479e-05
2.83519e-05
3.78047e-05
2.15111e-05
6.21527e-05
2.32461e-05
3.12e-05
2.82934e-05
7.73398e-06
4.91971e-05
-4.94233e-05
4.94743e-05
-2.79082e-05
9.34605e-06
-1.64259e-05
-3.33103e-05
2.61117e-05
-0.000115563
0.000104017
-0.000127684
3.14125e-05
-0.000129232
-2.58524e-05
-9.54466e-05
-0.00010954
-9.60087e-05
-8.32952e-05
-9.18301e-05
-0.000178272
-5.78359e-05
-0.000184717
-2.45279e-05
-5.73431e-05
-4.65671e-06
-5.65669e-05
9.53708e-06
-4.14877e-05
1.03268e-05
-5.92227e-06
1.88058e-05
-7.69582e-06
2.06458e-05
1.17134e-05
1.86418e-05
7.65368e-06
7.54878e-06
3.25704e-05
3.70012e-06
3.41045e-05
7.64648e-06
5.82064e-05
1.87019e-05
2.01446e-05
2.9364e-05
-2.92813e-06
1.79556e-05
-3.8015e-05
1.98323e-05
-2.97848e-05
5.64496e-06
-2.23858e-06
-3.80629e-05
6.98196e-05
-4.50501e-05
0.000111004
-5.87093e-05
4.50717e-05
-5.01473e-05
-3.44144e-05
-9.25623e-05
-6.71251e-05
-8.35631e-05
-9.22944e-05
-7.41266e-05
-0.000187709
-3.76655e-05
-0.000221178
-1.36361e-05
-8.13724e-05
3.13533e-06
-7.33383e-05
7.47266e-06
-4.58251e-05
9.70674e-06
-8.15635e-06
8.6817e-06
-6.67078e-06
1.64429e-05
3.95226e-06
2.58056e-05
-1.70908e-06
3.30537e-07
3.30238e-05
2.04445e-06
3.20601e-05
9.96147e-06
5.02893e-05
1.95391e-05
1.0567e-05
3.26977e-05
-1.60867e-05
4.56563e-05
-5.09736e-05
4.12383e-05
-2.53668e-05
2.00609e-05
1.89388e-05
-1.09791e-05
0.00010086
-2.30541e-05
0.000123079
-3.6791e-05
5.88086e-05
-6.68274e-05
-4.37788e-06
-2.56238e-05
-0.000108329
-2.98229e-05
-8.80952e-05
-3.53233e-05
-0.000182208
-4.12429e-05
-0.000215259
1.43817e-05
-0.000136997
1.8805e-05
-7.77616e-05
1.11639e-05
-3.8184e-05
1.01703e-05
-7.16273e-06
1.88648e-05
-1.53653e-05
2.4074e-05
-1.25695e-06
2.33594e-05
-9.94465e-07
-1.06883e-05
3.43783e-05
-3.66983e-06
3.57299e-05
8.4365e-06
3.8183e-05
1.99892e-05
-9.85743e-07
3.38693e-05
-2.99668e-05
2.14793e-05
-3.85836e-05
1.80325e-05
-2.19199e-05
-2.59776e-06
3.9569e-05
-1.38398e-05
0.000112102
2.41317e-05
8.51071e-05
4.16047e-05
4.13356e-05
8.82792e-06
2.83989e-05
-9.5582e-06
-8.99426e-05
3.11794e-05
-0.000128833
1.07072e-05
-0.000161736
-4.0169e-06
-0.000200534
6.50821e-06
-0.000147522
-1.23227e-05
-5.89307e-05
-5.78247e-06
-4.47242e-05
6.96925e-06
-1.99144e-05
1.00729e-05
-1.8469e-05
2.41068e-05
-1.52908e-05
3.07436e-05
-7.63127e-06
-1.80881e-05
3.81435e-05
-6.4601e-06
4.219e-05
9.18237e-06
2.25406e-05
2.00978e-05
-1.19012e-05
3.03668e-05
-4.02358e-05
3.08363e-05
-3.90531e-05
1.3808e-05
-4.8916e-06
7.75535e-06
4.56217e-05
2.6187e-05
9.367e-05
3.59887e-05
7.53054e-05
4.77956e-05
2.95287e-05
6.61076e-05
1.00869e-05
6.82576e-05
-9.20927e-05
4.74523e-05
-0.000108028
4.25519e-05
-0.000156836
1.49771e-05
-0.00017296
7.14518e-06
-0.00013969
2.7187e-05
-7.89725e-05
8.64036e-06
-2.61776e-05
1.0561e-05
-2.18351e-05
1.48851e-05
-2.27931e-05
1.74237e-05
-1.78294e-05
2.98112e-05
-2.00187e-05
-2.30532e-05
3.47762e-05
-8.41638e-06
5.06064e-05
5.93061e-06
8.19357e-06
9.71662e-06
-1.56872e-05
1.35453e-05
-4.40645e-05
8.88776e-06
-3.43956e-05
-4.30573e-06
8.30188e-06
-1.57037e-06
4.28863e-05
2.51644e-05
6.69352e-05
5.03477e-05
5.01222e-05
7.01343e-05
9.74206e-06
9.53579e-05
-1.51366e-05
0.000101258
-9.79926e-05
0.000106437
-0.000113207
3.87058e-05
-8.91047e-05
3.58662e-05
-0.00017012
1.78382e-05
-0.000121662
4.64004e-06
-6.57743e-05
-2.99313e-07
-2.12383e-05
7.79796e-06
-2.99324e-05
8.45305e-06
-2.34482e-05
1.63406e-05
-2.57169e-05
1.18378e-05
-1.5516e-05
-3.2473e-05
2.12577e-05
-6.55239e-06
5.71588e-05
3.98631e-06
-2.34514e-06
1.04462e-05
-2.21472e-05
5.60478e-06
-3.9223e-05
-9.77105e-06
-1.90197e-05
-1.85554e-05
1.70863e-05
-7.26788e-06
3.15987e-05
1.58626e-05
4.38048e-05
5.26428e-05
1.3342e-05
6.3737e-05
-1.35217e-06
7.73527e-05
-2.87524e-05
6.14941e-05
-8.2134e-05
5.70439e-05
-0.000108756
9.55518e-05
-0.000127613
1.98056e-05
-9.43737e-05
4.47087e-06
-0.000106327
1.20497e-06
-6.25084e-05
7.29363e-06
-2.73269e-05
2.84283e-06
-2.54816e-05
8.12257e-06
-2.87279e-05
4.05224e-06
-2.16466e-05
2.72299e-05
-3.86936e-05
-2.41717e-05
1.89286e-05
-7.78626e-06
6.49451e-05
1.70985e-06
-1.18413e-05
7.54002e-06
-2.79773e-05
-6.22505e-06
-2.5458e-05
-2.67885e-05
1.54366e-06
-2.63489e-05
1.66468e-05
-1.06497e-05
1.58995e-05
1.62604e-05
1.68947e-05
3.52218e-05
-5.6194e-06
7.92527e-05
-4.53831e-05
9.95508e-05
-4.90505e-05
7.31707e-05
-5.57539e-05
4.79099e-05
-8.34957e-05
4.91588e-05
-0.000128861
2.54083e-05
-7.06232e-05
5.09315e-06
-8.60124e-05
-6.98396e-06
-5.04312e-05
-3.40096e-06
-3.09099e-05
1.43134e-05
-4.3196e-05
7.63864e-06
-2.20531e-05
1.10195e-05
-2.50274e-05