/*--------------------------------*- C++ -*----------------------------------*\
| =========                 |                                                 |
| \\      /  F ield         | foam-extend: Open Source CFD                    |
|  \\    /   O peration     | Version:     4.1                                |
|   \\  /    A nd           | Web:         http://www.foam-extend.org         |
|    \\/     M anipulation  |                                                 |
\*---------------------------------------------------------------------------*/
FoamFile
{
    version     2.0;
    format      ascii;
    class       surfaceScalarField;
    location    "0.95";
    object      phi_0;
}
// * * * * * * * * * * * * * * * * * * * * * * * * * * * * * * * * * * * * * //

dimensions      [0 3 -1 0 0 0 0];

internalField   nonuniform List<scalar> 
4432
(
8.82934e-07
-8.82934e-07
8.74459e-07
8.47521e-09
2.87405e-06
-1.99959e-06
4.24388e-06
-1.36983e-06
4.06932e-06
1.74554e-07
4.62871e-06
-5.59381e-07
5.27714e-06
-6.48437e-07
6.30754e-06
-1.03039e-06
6.97705e-06
-6.6951e-07
1.00758e-05
-3.09877e-06
1.2914e-05
-2.83818e-06
2.28051e-05
-9.89115e-06
2.40582e-05
-1.25302e-06
2.63306e-05
-2.27243e-06
2.71123e-05
-7.8174e-07
2.7373e-05
-2.60702e-07
2.64987e-05
8.74368e-07
2.48798e-05
1.61891e-06
1.24559e-05
1.24238e-05
1.77038e-05
-5.24792e-06
1.12268e-05
6.47707e-06
7.2059e-06
4.02087e-06
7.2059e-06
1.68885e-06
-2.57178e-06
3.03605e-06
-1.33872e-06
3.6579e-06
-2.62144e-06
2.45021e-06
-1.62138e-07
4.13904e-06
-1.51428e-06
4.80268e-06
-1.22302e-06
5.84085e-06
-1.68661e-06
7.29573e-06
-2.48528e-06
1.53578e-05
-8.73161e-06
1.90841e-05
-6.82503e-06
2.27425e-05
-6.49657e-06
2.18944e-05
-9.04305e-06
2.35709e-05
-2.9295e-06
2.56325e-05
-4.33403e-06
2.65002e-05
-1.64943e-06
2.64913e-05
-2.51829e-07
2.57609e-05
1.60471e-06
2.40064e-05
3.37341e-06
2.39117e-05
1.25186e-05
1.06451e-05
8.01863e-06
1.04949e-05
6.62726e-06
6.78053e-06
7.73527e-06
1.39864e-05
1.32929e-06
-3.90108e-06
3.22974e-06
-3.23917e-06
2.20232e-06
-1.59402e-06
4.84142e-06
-2.80124e-06
4.29265e-06
-9.65502e-07
9.73358e-06
-6.66396e-06
1.04534e-05
-2.40646e-06
1.14943e-05
-3.5261e-06
7.29923e-06
-4.53658e-06
1.01462e-05
-9.67201e-06
1.13393e-05
-7.68965e-06
1.88437e-05
-1.65475e-05
1.87811e-05
-2.86695e-06
2.1528e-05
-7.08087e-06
2.19248e-05
-2.04628e-06
1.31561e-05
8.51687e-06
1.38962e-05
8.64691e-07
2.36291e-05
-6.35955e-06
1.93123e-05
1.68355e-05
1.74128e-05
9.91809e-06
1.27111e-05
1.1329e-05
7.44584e-06
1.30005e-05
2.14323e-05
1.452e-06
-5.35307e-06
1.51881e-06
-3.30598e-06
2.40113e-06
-2.47635e-06
5.16294e-06
-5.56305e-06
4.32326e-06
-1.25818e-07
5.02251e-06
-7.36321e-06
5.35597e-06
-2.73992e-06
1.1367e-05
-9.5371e-06
1.30206e-05
-6.19016e-06
7.8483e-06
-4.49976e-06
1.60932e-05
-1.59345e-05
8.80124e-06
-9.25552e-06
1.64462e-05
-1.05119e-05
2.0412e-05
-1.10466e-05
1.19015e-05
6.46424e-06
1.91507e-05
1.26765e-06
1.8652e-05
1.36344e-06
1.03796e-05
1.91278e-06
1.73145e-05
9.90056e-06
1.66982e-05
1.05344e-05
1.063e-05
1.73972e-05
4.29461e-06
1.93359e-05
2.57269e-05
9.40575e-07
-6.29365e-06
1.65801e-06
-4.02341e-06
2.70425e-06
-3.52258e-06
2.92871e-06
-5.78751e-06
7.07888e-06
-4.27599e-06
4.3664e-06
-4.65073e-06
8.69956e-06
-7.07308e-06
4.74464e-06
-5.58218e-06
1.03549e-05
-1.18004e-05
1.28427e-05
-6.98757e-06
7.45893e-06
-1.05507e-05
1.36073e-05
-1.54039e-05
1.6641e-05
-1.35456e-05
1.18729e-05
-6.27857e-06
2.13576e-05
-3.02043e-06
1.9203e-05
3.42226e-06
1.91773e-05
1.38915e-06
8.94298e-06
1.21471e-05
1.34733e-05
5.37023e-06
8.36995e-06
1.56378e-05
1.06737e-05
1.50934e-05
1.3564e-06
2.86533e-05
2.70833e-05
9.32769e-07
-7.22642e-06
1.12175e-06
-4.21239e-06
2.40096e-06
-4.8018e-06
6.3644e-06
-9.75094e-06
4.27605e-06
-2.18765e-06
3.98078e-06
-4.35546e-06
3.04094e-06
-6.13324e-06
5.9878e-06
-8.52905e-06
3.917e-06
-9.72963e-06
7.06224e-06
-1.01328e-05
1.00779e-05
-1.35664e-05
8.04179e-06
-1.33678e-05
1.05919e-05
-1.60957e-05
2.39518e-05
-1.96385e-05
2.50809e-05
-4.14954e-06
2.3662e-05
4.84115e-06
1.2128e-05
1.29232e-05
1.9803e-05
4.47209e-06
6.47041e-06
1.87028e-05
6.03777e-06
1.60704e-05
1.03091e-05
1.0822e-05
9.01057e-06
2.99518e-05
3.60938e-05
2.07546e-07
-7.43396e-06
1.08028e-06
-5.08512e-06
2.71601e-06
-6.43753e-06
9.61247e-07
-7.99618e-06
1.78817e-06
-3.01457e-06
1.81346e-06
-4.38075e-06
2.05141e-06
-6.37118e-06
3.96493e-06
-1.04426e-05
6.10372e-06
-1.18684e-05
8.5067e-06
-1.25358e-05
6.47966e-06
-1.15393e-05
6.99928e-06
-1.38874e-05
1.58696e-05
-2.49661e-05
1.2663e-05
-1.64319e-05
2.67155e-05
-1.82021e-05
2.45648e-05
6.99194e-06
2.52725e-05
1.22154e-05
1.31017e-05
1.66429e-05
1.60515e-05
1.5753e-05
7.2715e-06
2.48504e-05
6.77181e-06
1.13217e-05
1.1335e-05
2.53887e-05
4.74288e-05
-4.80571e-07
-6.95339e-06
-1.47712e-06
-4.08857e-06
-1.86323e-06
-6.05142e-06
-4.53674e-07
-9.40574e-06
-2.02712e-07
-3.26553e-06
-5.226e-07
-4.06086e-06
5.31806e-07
-7.42559e-06
4.49361e-06
-1.44044e-05
8.19348e-06
-1.55683e-05
9.14744e-06
-1.34897e-05
6.21223e-06
-8.60413e-06
1.04265e-05
-1.81017e-05
5.00251e-06
-1.95421e-05
1.5455e-05
-2.68844e-05
1.3464e-05
-1.62111e-05
2.89697e-05
-8.51379e-06
2.98038e-05
1.13814e-05
1.77396e-05
2.87071e-05
2.60697e-05
7.4229e-06
1.6325e-05
3.45951e-05
1.75491e-05
1.00976e-05
2.01177e-05
2.282e-05
6.75465e-05
-5.97609e-05
5.97611e-05
-0.00011989
6.01288e-05
-0.000130284
1.03946e-05
-0.000130717
4.32331e-07
-0.000112317
-1.84002e-05
-9.23532e-05
-1.99633e-05
-8.20743e-05
-1.02789e-05
-7.43023e-05
-7.77204e-06
-6.58143e-05
-8.48801e-06
-6.32317e-05
-2.58261e-06
-5.87089e-05
-4.5228e-06
-5.25794e-05
-6.12943e-06
-4.59933e-05
-6.58609e-06
-4.10184e-05
-4.97497e-06
-1.92127e-05
-2.18057e-05
-1.69323e-05
-2.28037e-06
-2.60898e-05
9.15749e-06
-1.52445e-05
-1.08453e-05
-1.52445e-05
-5.04968e-05
0.000110258
-8.97739e-05
9.9406e-05
-9.0314e-05
1.09347e-05
-8.98311e-05
-5.06183e-08
-6.57651e-05
-4.24662e-05
-4.49112e-05
-4.08172e-05
-4.06601e-05
-1.453e-05
-3.65096e-05
-1.19225e-05
-3.24904e-05
-1.25072e-05
-3.32443e-05
-1.82879e-06
-3.03753e-05
-7.39174e-06
-2.59506e-05
-1.05541e-05
-1.35026e-05
-1.90341e-05
-1.15723e-05
-6.90523e-06
-1.19823e-05
-2.13957e-05
-1.46716e-05
4.08926e-07
-1.09642e-05
5.45014e-06
-1.0885e-05
-1.09245e-05
-2.61296e-05
-3.82214e-05
0.000148479
-6.36737e-05
0.000124858
-6.44069e-05
1.16678e-05
-3.62575e-05
-2.82001e-05
-4.13468e-05
-3.73768e-05
-1.02629e-05
-7.19011e-05
-9.28096e-06
-1.55119e-05
-7.31122e-06
-1.38923e-05
-2.34275e-06
-1.74756e-05
-6.02998e-06
1.85844e-06
-9.04856e-06
-4.37316e-06
-6.46275e-06
-1.31399e-05
-8.34197e-06
-1.71549e-05
-5.94564e-06
-9.30156e-06
-1.07578e-05
-1.65836e-05
-7.92854e-06
-2.42033e-06
-6.05724e-06
3.57885e-06
-1.19002e-06
-1.57917e-05
-2.73196e-05
-2.91067e-05
0.000177586
-4.73479e-05
0.000143099
-5.02932e-05
1.46132e-05
-4.72815e-05
-3.12118e-05
-1.52554e-05
-6.9403e-05
1.15171e-05
-9.86736e-05
8.67954e-06
-1.26743e-05
7.0853e-06
-1.2298e-05
1.05679e-05
-2.09582e-05
1.22176e-05
2.08785e-07
9.01692e-06
-1.17251e-06
7.04023e-06
-1.11632e-05
4.13697e-06
-1.42516e-05
8.32505e-06
-1.34896e-05
1.21395e-05
-2.0398e-05
1.60357e-05
-6.3166e-06
1.2854e-05
6.76054e-06
5.30076e-06
-8.23842e-06
-2.20188e-05
-2.07375e-05
0.000198324
-3.37884e-05
0.00015615
-3.98539e-05
2.06787e-05
-2.98613e-05
-4.12044e-05
2.03507e-06
-0.000101299
1.79372e-05
-0.000114576
2.8801e-05
-2.35381e-05
2.76227e-05
-1.11197e-05
2.23325e-05
-1.56681e-05
3.75699e-05
-1.50286e-05
2.63118e-05
1.00856e-05
1.05317e-05
4.61689e-06
1.03591e-05
-1.40791e-05
1.57855e-05
-1.89161e-05
1.76916e-05
-2.23041e-05
1.144e-05
-6.49462e-08
2.45023e-05
-6.30172e-06
1.0764e-05
5.49979e-06
-1.12548e-05
-1.37867e-05
0.00021211
-2.16945e-05
0.000164058
-3.1272e-05
3.02562e-05
-1.0407e-05
-6.20694e-05
2.79303e-05
-0.000139637
2.51948e-05
-0.00011184
5.75798e-05
-5.59232e-05
5.69905e-05
-1.05304e-05
6.07241e-05
-1.94018e-05
5.48391e-05
-9.14359e-06
4.17653e-05
2.31594e-05
3.18063e-05
1.45759e-05
1.34676e-05
4.25971e-06
1.13231e-05
-1.67716e-05
2.18804e-05
-3.28614e-05
2.25999e-05
-7.84436e-07
2.57989e-05
-9.50072e-06
1.09182e-05
2.03804e-05
-3.36539e-07
-6.84506e-06
0.000218955
-7.29098e-06
0.000164504
-9.04531e-06
3.20105e-05
6.57658e-06
-7.76913e-05
1.82328e-05
-0.000151293
2.78209e-05
-0.000121428
3.15528e-05
-5.96551e-05
5.98456e-05
-3.88232e-05
6.44069e-05
-2.3963e-05
6.48367e-05
-9.57337e-06
5.42495e-05
3.37466e-05
4.01222e-05
2.87032e-05
3.27008e-05
1.16812e-05
1.48618e-05
1.06745e-06
1.37214e-05
-3.17211e-05
2.46076e-05
-1.16706e-05
2.78096e-05
-1.27027e-05
2.15861e-05
2.66039e-05
2.12496e-05
2.13666e-07
0.000218742
8.22657e-06
0.000156491
1.03247e-05
2.99124e-05
2.62565e-05
-9.36232e-05
2.50471e-05
-0.000150083
2.93986e-05
-0.00012578
3.19523e-05
-6.22087e-05
5.43675e-05
-6.12384e-05
5.96321e-05
-2.92277e-05
3.37988e-05
1.626e-05
2.69664e-05
4.05789e-05
4.08124e-05
1.48572e-05
3.67279e-05
1.57656e-05
3.3563e-05
4.23241e-06
3.09515e-05
-2.91096e-05
2.92765e-05
-9.99562e-06
1.79501e-05
-1.37631e-06
2.73049e-05
1.72492e-05
4.85544e-05
-5.43032e-07
-6.41036e-06
-1.72036e-06
-2.91125e-06
-2.63025e-06
-5.14153e-06
-4.93597e-06
-7.10002e-06
-2.99229e-06
-5.20921e-06
-2.89003e-07
-6.76415e-06
7.37256e-07
-8.45185e-06
4.44779e-08
-1.37116e-05
3.45099e-06
-1.89748e-05
3.0917e-06
-1.31305e-05
1.65677e-06
-7.1692e-06
4.47773e-06
-2.09227e-05
5.79152e-06
-2.08559e-05
4.62734e-06
-2.57202e-05
2.20961e-05
-3.36799e-05
4.91438e-05
-3.55614e-05
6.28447e-05
-2.31962e-06
7.50221e-05
1.65297e-05
3.86566e-05
4.37885e-05
6.17047e-05
1.1547e-05
3.87123e-05
3.309e-05
3.81903e-05
2.33421e-05
3.99934e-05
6.57434e-05
1.13839e-08
-6.42174e-06
3.74013e-06
-6.63999e-06
4.71686e-06
-6.11826e-06
7.08296e-06
-9.46612e-06
2.54756e-06
-6.7381e-07
-4.4347e-06
2.18104e-07
-1.23825e-05
-5.0405e-07
-1.91893e-05
-6.90483e-06
-4.00309e-05
1.86681e-06
-5.5823e-05
2.66164e-06
-7.32952e-05
1.0303e-05
-7.52797e-05
-1.89381e-05
-6.43943e-05
-3.17413e-05
-4.78885e-05
-4.2226e-05
-2.87519e-05
-5.28164e-05
-1.66121e-05
-4.77012e-05
2.1941e-05
-4.08727e-05
3.51034e-05
3.36734e-06
6.47984e-05
1.40935e-05
4.67555e-05
2.95899e-05
7.84352e-05
1.41028e-06
8.16755e-05
2.01017e-05
3.98208e-05
8.18481e-05
6.81958e-06
-1.32413e-05
1.41076e-05
-1.3928e-05
1.72691e-05
-9.27975e-06
8.88193e-06
-1.07897e-06
5.031e-06
3.17712e-06
-5.51652e-06
1.07656e-05
-1.59903e-05
9.96969e-06
-4.00168e-05
1.71217e-05
-5.49953e-05
1.68453e-05
-7.5577e-05
2.32434e-05
-6.44002e-05
-8.73771e-07
-9.70129e-05
1.36746e-05
-9.63726e-05
-3.23816e-05
-0.000100179
-3.84199e-05
-0.000101049
-5.19463e-05
-9.36442e-05
-5.51059e-05
-6.81711e-05
-6.63458e-05
-2.96858e-05
-3.5118e-05
2.35408e-06
-1.79464e-05
3.06115e-05
1.33239e-06
4.85799e-05
-1.65581e-05
5.75624e-05
1.11192e-05
2.57727e-05
7.16106e-05
2.6755e-05
-3.99964e-05
3.31862e-05
-2.03591e-05
3.66838e-05
-1.27774e-05
3.58239e-05
-2.19093e-07
1.68939e-05
2.21072e-05
-3.49345e-06
3.11529e-05
-2.14428e-05
2.7919e-05
-7.2297e-05
6.7976e-05
-8.27739e-05
2.73222e-05
-7.6955e-05
1.74245e-05
-7.65906e-05
-1.23818e-06
-5.53492e-05
-7.5668e-06
-8.30366e-05
-4.69421e-06
-9.22294e-05
-2.92271e-05
-0.000120011
-2.41648e-05
-0.000134299
-4.08176e-05
-0.000127994
-7.2651e-05
-0.000110204
-5.29079e-05
-8.54294e-05
-4.2721e-05
-4.79833e-05
-3.61138e-05
-1.48799e-05
-4.96614e-05
9.57211e-06
-1.33329e-05
1.51435e-05
2.02013e-05
2.76217e-05
-6.76181e-05
7.53495e-05
-6.80869e-05
7.89087e-05
-1.63365e-05
7.52672e-05
3.42243e-06
6.44025e-05
3.29718e-05
1.57935e-05
7.9762e-05
-3.84874e-05
8.21999e-05
-5.0163e-05
7.96516e-05
-4.7053e-05
2.42122e-05
-4.5098e-05
1.54695e-05
-4.7899e-05
1.56276e-06
-5.88808e-05
3.41502e-06
-6.90547e-05
5.47973e-06
-9.34828e-05
-4.79903e-06
-8.22915e-05
-3.53561e-05
-8.19585e-05
-4.11506e-05
-0.000132696
-2.19139e-05
-0.000139945
-4.56581e-05
-0.000152422
-3.02446e-05
-0.000151758
-3.67779e-05
-0.000137975
-6.3444e-05
-0.000132088
-1.922e-05
1.89701e-05
-0.000135915
3.84179e-05
-0.000106036
6.26861e-05
-9.2355e-05
8.81664e-05
-4.18169e-05
5.32059e-05
3.83829e-05
2.54265e-05
6.07513e-05
-1.94072e-06
0.000107129
-3.72001e-05
0.000117459
-4.51036e-05
8.75551e-05
-6.27232e-05
4.18318e-05
-8.87032e-05
4.14494e-05
-0.000113008
2.58675e-05
-0.000148455
3.88618e-05
-0.000163982
2.10073e-05
-0.000166814
-1.96685e-06
-0.000183923
-1.82471e-05
-0.000188784
-3.62896e-05
-0.000177189
-3.35089e-05
-0.000186839
-3.60082e-05
-0.0001275
-8.95838e-05
-0.000107862
-5.64156e-05
-0.000152951
-1.83554e-05
-0.000160403
-1.17679e-05
1.50172e-05
-0.00015645
3.19234e-05
-0.000137959
1.07186e-05
-7.11503e-05
2.77381e-05
-5.88364e-05
3.83888e-05
2.77323e-05
7.12052e-06
9.20196e-05
-2.85348e-05
0.000142785
-5.14166e-05
0.000140341
-6.39155e-05
0.000100054
-0.00010097
7.88865e-05
-0.000141559
8.20381e-05
-0.000169777
5.40856e-05
-0.000198736
6.78211e-05
-0.000199894
2.21654e-05
-0.000201705
-1.56345e-07
-0.000203644
-1.63075e-05
-0.000205319
-3.46151e-05
-0.000210654
-2.81741e-05
-0.000203129
-4.35328e-05
-0.000207235
-8.54779e-05
-0.000207011
-5.66394e-05
-0.000188088
-3.72789e-05
-0.000169925
-2.99301e-05
-5.77589e-06
-0.000149132
-1.53785e-05
-0.000122581
-2.5832e-06
-8.39455e-05
-2.55186e-05
-3.5901e-05
-4.4377e-05
4.65906e-05
-5.6651e-05
0.000104294
-6.20563e-05
0.00014819
-6.6379e-05
0.000144664
-8.91565e-05
0.000122832
-0.000122095
0.000111825
-0.000144291
0.000104234
-0.000183204
9.29988e-05
-0.000188143
7.27601e-05
-0.000188295
2.23171e-05
-0.000197236
8.78449e-06
-0.000202124
-1.14197e-05
-0.000206787
-2.99521e-05
-0.000138673
-9.62877e-05
-0.00011738
-6.48261e-05
-0.000170219
-3.26391e-05
-0.000166984
-5.98743e-05
-0.000168574
-3.56884e-05
-0.000159884
-3.86199e-05
-3.42497e-05
-0.000131411
-4.35698e-05
-7.90111e-05
-8.28157e-05
-4.46996e-05
-9.89138e-05
-1.98029e-05
-0.000111012
5.86891e-05
-0.000107877
0.000101158
-9.67135e-05
0.000137027
-9.46587e-05
0.000142609
-0.000109705
0.000137878
-0.000127194
0.000129314
-0.000133925
0.000110965
-0.000141858
0.000100932
-0.000132523
6.34252e-05
-0.000137795
2.75893e-05
-0.000136769
7.75784e-06
-0.000119133
-2.90549e-05
-0.000100596
-4.84892e-05
-0.000138985
-5.78992e-05
-0.000159048
-4.47629e-05
-0.000149627
-4.20598e-05
-0.000160391
-4.91109e-05
-9.98008e-05
-9.62783e-05
-7.55649e-05
-6.28558e-05
-2.25965e-05
-8.72181e-05
-6.80375e-05
-1.09737e-05
-0.000105953
-6.78369e-06
-0.000137574
1.18174e-05
-0.000150085
7.12002e-05
-0.000120326
7.13986e-05
-0.000115556
0.000132257
-0.00011226
0.000139313
-0.00011566
0.000141278
-0.000120523
0.000134177
-9.10759e-05
8.15176e-05
-8.47054e-05
9.45615e-05
-7.10826e-05
4.98024e-05
-5.48236e-05
1.13303e-05
-4.56282e-05
-1.43757e-06
-4.83606e-05
-2.63226e-05
-6.0275e-05
-3.65747e-05
-6.50553e-05
-5.31189e-05
-5.50733e-05
-5.47449e-05
-4.95674e-05
-4.75657e-05
-4.55901e-05
-5.30883e-05
-7.33869e-05
-6.84814e-05
-8.80194e-05
-4.82234e-05
-5.38207e-05
-5.67952e-05
-4.25601e-05
3.15865e-05
-6.57936e-05
1.64498e-05
-6.78864e-05
1.39103e-05
-8.20186e-05
8.53324e-05
-0.000142151
0.000131531
-0.000126807
0.000116913
-0.00011712
0.000129626
-5.76015e-05
8.17595e-05
-5.1983e-05
0.000128558
-0.000102057
0.000131592
-6.16234e-05
5.41275e-05
-2.45634e-05
1.27424e-05
1.82786e-06
-1.50609e-05
2.41958e-05
-2.38055e-05
1.63286e-05
-1.84554e-05
-1.45272e-07
-2.01008e-05
-3.02076e-05
-2.30566e-05
-4.78831e-05
-3.70694e-05
-4.75641e-05
-4.78847e-05
-4.27724e-05
-5.788e-05
-3.73061e-05
-7.39478e-05
-3.39416e-05
-5.15878e-05
-6.4245e-05
-2.35173e-05
-2.89312e-05
6.05177e-05
-9.17596e-05
7.92781e-05
-0.00013042
5.25712e-05
-0.00013761
9.25223e-05
-9.6851e-05
9.07716e-05
-7.9496e-05
9.95578e-05
-8.55957e-05
0.000135726
-0.000104975
0.000101138
-9.33911e-05
0.000116974
-7.55656e-05
0.000113766
-3.20187e-05
1.05806e-05
-1.7184e-06
-1.75578e-05
3.09067e-05
-4.7686e-05
5.96258e-05
-5.25246e-05
6.44956e-05
-2.33253e-05
4.28064e-05
1.58848e-06
1.55067e-05
4.24306e-06
-3.99314e-06
-1.75696e-05
-1.8028e-05
-3.38498e-05
-2.52193e-05
-5.06887e-05
-3.15654e-05
-6.76017e-05
-3.30464e-05
-5.01068e-05
-7.22167e-05
-2.50746e-05
-3.88636e-05
9.93814e-05
-5.75244e-05
9.7939e-05
-0.000110317
0.000105364
-0.000114689
9.68946e-05
-9.28031e-05
6.88853e-05
-0.000118085
0.00012484
-0.000101314
0.000118954
-4.98728e-05
4.96975e-05
-5.77005e-05
0.000124802
-1.29011e-05
6.89668e-05
8.98844e-06
-1.13089e-05
5.95052e-05
-6.80746e-05
9.43338e-05
-8.25145e-05
0.000106982
-6.51728e-05
0.000112573
-2.89166e-05
7.93405e-05
3.48214e-05
5.82521e-05
2.53313e-05
3.60899e-05
4.59255e-06
2.37649e-05
-2.15248e-05
9.47511e-06
-3.6399e-05
-3.02623e-06
-5.51003e-05
-1.89672e-06
-5.12363e-05
-5.77435e-05
-1.637e-05
-2.72047e-05
0.000126586
-3.90224e-05
0.000109757
-5.37005e-05
0.000120042
-6.70425e-05
0.000110237
-0.000116374
0.000118217
-7.56405e-05
8.41062e-05
-5.28477e-05
9.61616e-05
-4.86336e-05
4.54834e-05
-6.34228e-06
8.25107e-05
6.07946e-05
1.82992e-06
8.99396e-05
-4.04539e-05
0.000118041
-9.61762e-05
0.000134282
-9.87554e-05
0.000154229
-8.51195e-05
0.000158026
-3.27133e-05
0.000159845
3.30023e-05
0.000128383
5.6793e-05
7.75492e-05
5.54263e-05
4.90923e-05
6.93184e-06
5.30078e-05
-4.03145e-05
4.22724e-05
-4.43649e-05
3.57214e-05
-4.46853e-05
-3.51028e-05
1.30807e-05
-1.49615e-05
0.000141548
-2.88339e-05
0.000123629
-3.40547e-05
0.000125263
-3.31205e-05
0.000109302
-3.12635e-05
0.00011636
-6.5747e-05
0.00011859
-3.09923e-06
3.35138e-05
7.95261e-06
3.44315e-05
6.14762e-05
2.89872e-05
8.05392e-05
-1.72332e-05
0.000153758
-0.000113672
0.000123504
-6.59224e-05
0.000128017
-0.000103269
0.000144891
-0.000101993
0.000172789
-6.06115e-05
0.000202077
3.71408e-06
0.000210433
4.84372e-05
0.000197198
6.86614e-05
0.000180976
2.31541e-05
0.000133572
7.08924e-06
7.46314e-05
1.45757e-05
5.7827e-05
-2.78807e-05
-3.32619e-05
5.59861e-05
-1.02976e-05
0.000151845
-1.92438e-05
0.000132575
-2.97474e-05
0.000135767
-2.61382e-05
0.000105693
-1.44372e-05
0.000104659
1.85281e-05
8.56244e-05
3.7121e-05
1.49208e-05
0.000107701
-3.61484e-05
0.000153702
-1.70136e-05
0.000179597
-4.3128e-05
0.000110882
-4.4958e-05
0.000159463
-0.000114503
0.000128419
-7.22253e-05
0.000128994
-0.000102568
0.000128616
-6.02333e-05
0.000113667
1.86629e-05
0.000132369
2.97353e-05
0.000179996
2.10344e-05
0.000179869
2.32819e-05
0.000160168
2.67898e-05
0.000160427
1.43165e-05
0.000138821
-6.27428e-06
-1.69011e-06
0.000107249
-7.32492e-06
0.00015917
-1.28143e-05
0.000138065
-1.41568e-05
0.000137109
1.933e-05
7.22065e-05
2.00334e-05
0.000103956
6.41784e-05
4.14795e-05
0.000116543
-3.74439e-05
0.000130393
-4.99987e-05
0.000150537
-3.7157e-05
0.000153355
-4.59466e-05
0.000184993
-7.65958e-05
0.00013892
-6.843e-05
0.000123865
-5.71702e-05
0.000118922
-9.76252e-05
0.00013944
-8.07509e-05
0.000184188
-2.60856e-05
0.000197132
1.67918e-05
0.000185863
3.23032e-05
0.000190856
1.82887e-05
0.000159706
5.79402e-05
0.000139568
3.44542e-05
9.49047e-05
3.83888e-05
1.13037e-05
8.1911e-05
-4.20478e-06
0.000163375
-8.1596e-06
0.000142019
-1.4177e-06
0.000130367
4.3323e-06
6.64565e-05
2.01244e-05
8.81638e-05
2.79447e-05
3.36591e-05
6.02979e-05
-6.97971e-05
6.94351e-05
-5.91359e-05
0.00012276
-9.04818e-05
0.000127155
-5.03416e-05
8.73865e-05
-3.68273e-05
9.51372e-05
-7.61807e-05
0.00012445
-8.64835e-05
0.000106718
-7.98925e-05
0.000108788
-8.28209e-05
0.000129277
-4.65751e-05
0.000138216
7.85363e-06
0.000150535
1.99837e-05
0.00011509
5.37336e-05
0.000146519
2.65113e-05
0.000137469
4.35047e-05
0.000147057
2.8801e-05
3.00536e-05
0.000128307
-6.84107e-06
0.000170216
-9.05228e-06
0.000144231
2.35758e-06
0.000118957
-1.96436e-05
8.84576e-05
6.35071e-06
6.21695e-05
3.69886e-05
3.02126e-06
2.59779e-05
-5.87864e-05
3.69944e-05
-7.01525e-05
7.03428e-05
-0.00012383
0.000110232
-9.02311e-05
0.000152305
-7.88999e-05
0.000155939
-7.98147e-05
0.000140747
-7.12917e-05
0.000121872
-6.10171e-05
7.1909e-05
-3.28582e-05
7.3131e-05
-4.77971e-05
0.000117946
-3.69617e-05
0.00012844
9.49002e-06
0.00014732
3.48542e-05
0.000129092
4.47391e-05
0.00012394
4.86565e-05
0.000124168
2.85724e-05
3.79705e-05
0.000116251
-6.98702e-06
0.000177203
-9.793e-06
0.000147037
-3.7392e-06
0.000112904
-8.98467e-06
9.37031e-05
-9.91064e-06
6.30955e-05
-8.62434e-06
1.73497e-06
2.82674e-05
-9.5678e-05
3.57495e-05
-7.76346e-05
6.80432e-05
-0.000156124
4.21685e-05
-6.43564e-05
8.78574e-05
-0.000124589
8.26458e-05
-7.46032e-05
9.028e-05
-7.89259e-05
7.80771e-05
-4.88142e-05
7.87136e-05
-3.34947e-05
7.08513e-05
-3.99348e-05
7.22956e-05
-3.8406e-05
9.71385e-05
-1.53529e-05
0.000126554
5.43825e-06
0.000113195
5.80987e-05
0.000118071
4.37803e-05
0.000116519
3.01247e-05
4.71654e-05
0.000107324
-4.99091e-06
0.000182194
-1.25529e-05
0.000154599
1.93344e-05
8.10163e-05
-3.60758e-06
0.000116645
-1.57444e-05
7.52324e-05
-3.55148e-05
2.15053e-05
-3.1908e-05
-9.92849e-05
7.80041e-06
-0.000117343
1.43159e-05
-0.000162639
3.742e-05
-8.74605e-05
3.96751e-05
-0.000126844
8.79551e-05
-0.000122883
0.000104287
-9.52582e-05
9.70411e-05
-4.15679e-05
8.35262e-05
-1.99798e-05
7.7121e-05
-3.35296e-05
7.29251e-05
-3.42101e-05
8.1477e-05
-2.39048e-05
6.74325e-05
1.94827e-05
0.000103066
2.24654e-05
8.72672e-05
5.95789e-05
4.77112e-05
6.96807e-05
3.93569e-05
5.55197e-05
2.4792e-06
0.000179715
1.26174e-05
0.00014446
1.45948e-05
7.90388e-05
6.55507e-06
0.000124685
-8.27759e-06
9.0065e-05
-1.53908e-05
2.86185e-05
-2.23376e-05
-9.2338e-05
-1.73971e-05
-0.000122283
-1.05302e-05
-0.000169506
5.85172e-05
-0.000156508
8.40012e-05
-0.000152328
9.34192e-05
-0.000132301
9.87851e-05
-0.000100624
9.89429e-05
-4.17256e-05
9.63776e-05
-1.74145e-05
9.40583e-05
-3.12103e-05
9.29808e-05
-3.31326e-05
9.65922e-05
-2.75162e-05
9.51311e-05
2.09439e-05
7.30537e-05
4.45428e-05
8.16497e-05
5.09829e-05
9.85849e-05
5.27456e-05
4.01472e-05
9.77945e-05
5.0155e-06
0.000174699
2.07362e-05
0.00012874
2.32303e-05
7.65447e-05
3.05842e-05
0.000117331
3.16267e-05
8.90225e-05
3.2087e-05
2.81582e-05
-1.11583e-05
-4.90927e-05
-9.42868e-06
-0.000124013
2.76926e-06
-0.000181704
2.7815e-05
-0.000181554
5.23239e-05
-0.000176837
7.10041e-05
-0.000150981
7.5238e-05
-0.000104858
7.90861e-05
-4.55737e-05
7.88357e-05
-1.71641e-05
5.82678e-05
-1.06425e-05
5.68473e-05
-3.17121e-05
4.58851e-05
-1.6554e-05
5.95242e-05
7.30483e-06
4.86126e-05
5.54544e-05
5.36584e-05
4.5937e-05
5.88692e-05
4.75347e-05
6.19615e-05
3.70549e-05
1.40161e-07
0.000174559
4.24384e-05
8.64415e-05
4.13326e-05
7.76505e-05
4.11295e-05
0.000117534
5.7645e-05
7.2507e-05
5.9246e-05
2.65572e-05
6.22704e-05
-5.21171e-05
1.30406e-05
-7.47833e-05
1.35766e-05
-0.00018224
1.77613e-05
-0.000185738
3.51082e-05
-0.000194184
4.41536e-05
-0.000160027
4.19384e-05
-0.000102643
4.21272e-05
-4.57625e-05
5.87052e-05
-3.37421e-05
8.13654e-05
-3.33027e-05
8.39837e-05
-3.43303e-05
7.28968e-05
-5.46712e-06
5.36617e-05
2.654e-05
5.1517e-05
5.75992e-05
4.63359e-05
5.1118e-05
4.3771e-05
5.00997e-05
6.12295e-05
4.45031e-05
1.55515e-05
0.000159008
3.30602e-05
6.89328e-05
6.09975e-05
4.97132e-05
7.64898e-05
0.000102042
9.01584e-05
5.88384e-05
9.21435e-05
2.45721e-05
7.20922e-05
-3.20659e-05
6.65836e-05
-6.92747e-05
5.30733e-05
-0.00016873
1.5105e-05
-0.00014777
-5.93775e-06
-0.000173141
-1.99536e-05
-0.000146011
-2.04388e-05
-0.000102158
-7.20014e-06
-5.90012e-05
9.78923e-06
-5.07315e-05
1.28198e-05
-3.63332e-05
3.61726e-06
-2.51278e-05
-3.35817e-06
1.50832e-06
-7.83745e-06
3.10193e-05
1.8937e-06
4.7868e-05
1.59744e-05
3.70373e-05
2.67375e-05
3.93365e-05
4.16049e-05
4.6362e-05
1.66405e-05
0.000142367
2.57261e-05
5.98472e-05
4.27901e-05
3.26493e-05
7.67054e-05
6.81262e-05
0.000103518
3.20255e-05
0.000108696
1.93944e-05
0.000100963
-2.43326e-05
0.000113922
-8.2234e-05
2.77445e-05
-8.25525e-05
-2.37248e-06
-0.000117653
-2.27081e-05
-0.000152805
-4.32686e-05
-0.00012545
-4.35598e-05
-0.000101867
-5.80053e-06
-9.67604e-05
-2.11381e-06
-5.44182e-05
-2.47493e-05
-1.36977e-05
-4.15834e-05
-8.29372e-06
-3.8672e-05
-1.40307e-06
-1.25096e-05
4.85682e-06
4.94686e-07
3.48637e-05
1.75419e-05
1.99901e-05
3.58356e-05
2.10428e-05
4.08008e-05
3.66397e-05
2.56571e-05
0.00011671
3.083e-05
5.46743e-05
2.59457e-05
3.75336e-05
6.85359e-05
2.5536e-05
6.28492e-05
3.77123e-05
7.02815e-05
1.19621e-05
0.000104389
-5.844e-05
6.90274e-05
-4.68724e-05
4.56462e-05
-5.91713e-05
1.70418e-05
-8.90487e-05
-2.97823e-05
-0.000105981
-4.42076e-05
-0.000111025
-3.03169e-05
-0.000115757
-1.35815e-05
-0.000113496
-2.48085e-05
-4.31912e-05
-2.06177e-05
-1.78885e-05
-1.78495e-05
-1.10619e-05
-1.26353e-05
-6.61726e-06
-7.09985e-06
-6.78682e-07
6.0818e-06
2.1682e-05
1.52837e-05
1.07881e-05
2.0859e-05
1.54675e-05
3.08636e-05
3.07963e-05
3.2e-05
8.47101e-05
3.23069e-05
5.43674e-05
3.37839e-05
3.60566e-05
3.52444e-05
2.40755e-05
7.49546e-05
-1.99799e-06
9.01672e-05
-3.2505e-06
8.53886e-05
-5.36614e-05
8.03406e-05
-4.18245e-05
6.03465e-05
-3.91772e-05
-8.44861e-06
-2.02536e-05
-5.96943e-05
-5.47355e-05
-6.4873e-05
-0.000105846
-9.76011e-05
-8.30293e-05
-6.15679e-05
-0.000149529
-3.55213e-05
-6.92378e-05
-3.57825e-05
-1.76274e-05
-1.31242e-05
-3.37202e-05
-2.11784e-06
-1.76236e-05
4.47382e-06
-7.27035e-06
1.71012e-05
9.05464e-06
1.50805e-05
1.28089e-05
2.00695e-05
1.04785e-05
2.65585e-05
2.43746e-05
1.69101e-05
6.77999e-05
1.45198e-05
5.67578e-05
1.65301e-05
3.40462e-05
2.67696e-05
1.38361e-05
5.20556e-05
-2.7284e-05
7.55273e-05
-2.67222e-05
7.73904e-05
-5.55245e-05
5.12928e-05
-1.57268e-05
-1.08458e-05
2.29614e-05
-5.03494e-05
1.92501e-05
-7.80835e-05
-2.70014e-05
-0.000108967
-7.49623e-05
-0.000108897
-8.30999e-05
-8.55081e-05
-0.000172918
-5.74818e-06
-0.000148998
2.18828e-09
-2.33778e-05
2.35542e-06
-3.60734e-05
1.14666e-05
-2.67348e-05
9.3706e-06
-5.17433e-06
1.79824e-05
4.42816e-07
1.74341e-05
1.33572e-05
2.30455e-05
4.86701e-06
2.0743e-05
2.88609e-05
2.85658e-05
3.92342e-05
2.16753e-05
6.36482e-05
2.34455e-05
3.2276e-05
2.8517e-05
8.76453e-06
4.92231e-05
-4.79901e-05
4.94152e-05
-2.69142e-05
9.60244e-06
-1.57118e-05
-3.33336e-05
2.72093e-05
-0.000115791
0.000105419
-0.000128065
3.1524e-05
-0.000129896
-2.51704e-05
-9.60393e-05
-0.000108819
-9.62902e-05
-8.28489e-05
-9.19299e-05
-0.000177278
-5.74159e-05
-0.000183512
-2.41635e-05
-5.66302e-05
-4.40599e-06
-5.58309e-05
9.96356e-06
-4.11043e-05
1.07323e-05
-5.94303e-06
1.93418e-05
-8.16674e-06
2.13053e-05
1.13937e-05
1.9063e-05
7.10936e-06
6.96935e-06
3.28367e-05
3.63274e-06
3.56014e-05
7.72371e-06
5.95573e-05
1.88668e-05
2.11329e-05
2.91753e-05
-1.54391e-06
1.82093e-05
-3.70241e-05
2.01287e-05
-2.88336e-05
5.41444e-06
-9.97591e-07
-3.84706e-05
7.10942e-05
-4.51061e-05
0.000112055
-5.90576e-05
4.54755e-05
-5.08017e-05
-3.34262e-05
-9.31025e-05
-6.65184e-05
-8.40262e-05
-9.19251e-05
-7.44229e-05
-0.000186881
-3.76186e-05
-0.000220316
-1.363e-05
-8.06188e-05
3.22174e-06
-7.26827e-05
7.77861e-06
-4.56612e-05
1.01927e-05
-8.35712e-06
8.97756e-06
-6.9516e-06
1.67458e-05
3.6255e-06
2.61947e-05
-2.33954e-06
-2.91267e-07
3.34553e-05
2.01398e-06
3.35875e-05
1.00369e-05
5.15344e-05
1.96049e-05
1.15649e-05
3.28951e-05
-1.48341e-05
4.51821e-05
-4.93112e-05
4.05951e-05
-2.42467e-05
1.91009e-05
2.04966e-05
-1.16432e-05
0.000101838
-2.32846e-05
0.000123696
-3.73475e-05
5.95385e-05
-6.72821e-05
-3.49164e-06
-2.61101e-05
-0.00010769
-3.05966e-05
-8.74386e-05
-3.57742e-05
-0.000181704
-4.12824e-05
-0.000214808
1.40704e-05
-0.000135971
1.87809e-05
-7.73931e-05
1.13366e-05
-3.82169e-05
1.03813e-05
-7.40178e-06
1.93938e-05
-1.59641e-05
2.45541e-05
-1.5348e-06
2.3563e-05
-1.34851e-06
-1.13593e-05
3.4631e-05
-3.66546e-06
3.72529e-05
8.49767e-06
3.93712e-05
1.99199e-05
1.42666e-07
3.38433e-05
-2.87574e-05
2.19148e-05
-3.73826e-05
1.80836e-05
-2.04155e-05
-2.60429e-06
4.11845e-05
-1.39873e-05
0.000113221
2.39053e-05
8.58033e-05
4.13088e-05
4.2135e-05
8.02577e-06
2.97914e-05
-1.05864e-05
-8.90782e-05
3.02591e-05
-0.000128284
9.94755e-06
-0.000161392
-4.66555e-06
-0.000200195
6.19353e-06
-0.000146831
-1.22338e-05
-5.89658e-05
-5.63028e-06
-4.48204e-05
7.26764e-06
-2.02997e-05
1.03198e-05
-1.90163e-05
2.45333e-05
-1.57483e-05
3.1394e-05
-8.20919e-06
-1.86631e-05
3.86979e-05
-6.49843e-06
4.37514e-05
9.08959e-06
2.37832e-05
1.99347e-05
-1.07024e-05
3.02543e-05
-3.90771e-05
3.06293e-05
-3.77576e-05
1.35972e-05
-3.38344e-06
7.70837e-06
4.70734e-05
2.64948e-05
9.44348e-05
3.63329e-05
7.59653e-05
4.79689e-05
3.04989e-05
6.60549e-05
1.17054e-05
6.79803e-05
-9.10036e-05
4.70807e-05
-0.000107385
4.19499e-05
-0.000156261
1.44744e-05
-0.000172719
6.97774e-06
-0.000139334
2.71174e-05
-7.91054e-05
8.71951e-06
-2.64225e-05
1.09016e-05
-2.24818e-05
1.53076e-05
-2.34222e-05
1.78619e-05
-1.83026e-05
3.02139e-05
-2.05612e-05
-2.36486e-05
3.51994e-05
-8.41554e-06
5.21669e-05
5.80508e-06
9.56261e-06
9.5321e-06
-1.44294e-05
1.34963e-05
-4.30413e-05
8.98285e-06
-3.32441e-05
-4.11113e-06
9.71052e-06
-1.18512e-06
4.41474e-05
2.54689e-05
6.77808e-05
5.05815e-05
5.08527e-05
7.05271e-05
1.05533e-05
9.57433e-05
-1.35107e-05
0.000101819
-9.70791e-05
0.000106509
-0.000112075
3.88408e-05
-8.85931e-05
3.57552e-05
-0.000169634
1.82658e-05
-0.000121845
5.32576e-06
-6.61653e-05
3.9974e-07
-2.14965e-05
8.36973e-06
-3.04518e-05
8.81096e-06
-2.38634e-05
1.67855e-05
-2.62772e-05
1.20298e-05
-1.58055e-05
-3.30545e-05
2.14356e-05
-6.52586e-06
5.86927e-05
3.82979e-06
-7.93033e-07
1.03488e-05
-2.09484e-05
5.62605e-06
-3.83186e-05
-9.6031e-06
-1.8015e-05
-1.82226e-05
1.833e-05
-6.72596e-06
3.26507e-05
1.62914e-05
4.47635e-05
5.29649e-05
1.41792e-05
6.37496e-05
-2.3138e-07
7.80901e-05
-2.78512e-05
6.1919e-05
-8.0908e-05
5.72826e-05
-0.000107438
9.5691e-05
-0.000127001
2.00964e-05
-9.40391e-05
4.99637e-06
-0.000106745
1.48061e-06
-6.26496e-05
7.96643e-06
-2.79823e-05
3.17371e-06
-2.56591e-05
8.64624e-06
-2.9336e-05
4.25723e-06
-2.18882e-05
2.76485e-05
-3.91968e-05
-2.45407e-05
1.91347e-05
-7.90296e-06
6.65957e-05
1.75253e-06
-1.04485e-05
7.56358e-06
-2.67595e-05
-6.03305e-06
-2.47219e-05
-2.65187e-05
2.4707e-06
-2.59278e-05
1.77391e-05
-1.02661e-05
1.6989e-05
1.68007e-05
1.76967e-05
3.53898e-05
-4.40999e-06
7.92862e-05
-4.41278e-05
9.96435e-05
-4.82085e-05
7.3479e-05
-5.47435e-05
4.85324e-05
-8.24918e-05
5.00606e-05
-0.00012853
2.64509e-05
-7.04293e-05
5.80409e-06
-8.60979e-05
-5.9761e-06
-5.08694e-05
-2.90207e-06
-3.10564e-05
1.49505e-05
-4.35116e-05
7.91923e-06
-2.23047e-05
1.13379e-05
-2.53069e-05
1.85892e-05