/*--------------------------------*- C++ -*----------------------------------*\
| =========                 |                                                 |
| \\      /  F ield         | foam-extend: Open Source CFD                    |
|  \\    /   O peration     | Version:     4.1                                |
|   \\  /    A nd           | Web:         http://www.foam-extend.org         |
|    \\/     M anipulation  |                                                 |
\*---------------------------------------------------------------------------*/
FoamFile
{
    version     2.0;
    format      ascii;
    class       volScalarField;
    location    "0.95";
    object      psi;
}
// * * * * * * * * * * * * * * * * * * * * * * * * * * * * * * * * * * * * * //

dimensions      [1 -1 -2 0 0 0 0];

internalField   nonuniform List<scalar> 
2268
(
-0.0235956
-0.0979764
-0.202221
-0.245379
-0.228276
-0.199493
-0.180003
-0.172283
-0.170058
-0.170577
-0.160694
-0.133384
-0.0560016
0.0372229
0.105726
0.155759
0.166745
0.152558
0.150424
0.148376
0.123537
0.105412
0.102806
-0.0574284
-0.133921
-0.245265
-0.285585
-0.261476
-0.22391
-0.194403
-0.181693
-0.179813
-0.177254
-0.154827
-0.100442
0.0322276
0.13101
0.189715
0.218495
0.188175
0.138018
0.154734
0.155318
0.133143
0.112613
0.107297
-0.162412
-0.250071
-0.370016
-0.401889
-0.354223
-0.295338
-0.239891
-0.215768
-0.207218
-0.194613
-0.15032
-0.0621501
0.127403
0.188705
0.218426
0.218702
0.0880603
-0.00708958
0.110721
0.155561
0.142741
0.130093
0.125897
-0.315018
-0.416742
-0.545864
-0.564205
-0.474275
-0.384107
-0.296346
-0.26376
-0.240563
-0.198975
-0.145056
-0.0203743
0.151085
0.11784
0.161334
0.0902828
-0.158252
-0.224941
0.0403459
0.154752
0.159232
0.165934
0.168478
-0.509487
-0.623302
-0.758113
-0.75133
-0.611037
-0.481028
-0.372948
-0.323477
-0.287794
-0.190703
-0.13859
-0.0696064
-0.0406555
-0.212408
-0.332316
-0.364025
-0.595472
-0.495747
-0.14729
0.170154
0.170409
0.227726
0.253992
-0.738755
-0.859271
-0.9892
-0.947804
-0.748292
-0.581632
-0.469396
-0.409437
-0.345659
-0.204217
-0.186673
-0.288319
-0.674782
-1.19748
-1.52722
-1.14097
-1.10327
-0.937717
-0.41475
0.191832
0.105072
0.288616
0.383356
-0.993466
-1.11219
-1.21955
-1.1279
-0.868692
-0.70357
-0.602516
-0.555296
-0.444774
-0.26517
-0.31573
-0.761846
-1.70796
-2.5678
-3.1896
-2.32959
-1.81928
-1.42139
-0.799366
0.0637801
-0.131957
0.260702
0.621229
-1.2686
-1.37037
-1.44205
-1.30112
-1.03142
-0.88555
-0.820493
-0.828266
-0.714294
-0.541028
-0.635802
-1.66956
-2.82041
-3.73911
-3.94764
-3.31491
-2.65466
-1.6584
-1.79122
-0.406792
-0.779399
-0.183013
0.82573
1.46339
1.72321
2.0137
2.1518
2.17349
2.40781
2.34119
2.16229
2.17808
1.57632
0.749383
0.160165
-0.258286
-0.570398
-0.66115
-0.571259
0.255997
0.37225
0.441834
1.52012
1.67972
1.43267
1.14544
0.810542
0.970275
1.45393
1.52477
1.43207
1.78684
1.46163
0.979708
0.49154
0.0646347
-0.159654
-0.645575
-0.131348
0.0302913
0.177488
1.59324
1.46721
0.834531
0.568881
0.538724
0.660311
0.728411
1.02909
0.608323
1.27908
1.54665
1.46551
1.17602
0.854495
0.533315
-0.543118
-0.619355
-0.430971
-0.14069
1.58964
1.40605
0.848144
0.967822
1.55158
1.43884
1.14775
1.35785
0.905681
1.00162
1.28334
1.50583
1.5003
1.22971
1.1198
0.0357169
-0.523858
-0.463891
-0.0985921
1.67097
1.28776
1.42782
1.74484
2.22411
2.40467
2.09799
2.21669
1.95582
1.2903
1.25517
1.53327
1.55459
1.19001
1.00839
0.497928
-0.337592
-0.283628
0.051654
1.81544
1.38943
1.95122
2.10817
2.38792
2.59991
2.72296
3.01787
2.9829
2.17441
1.9368
1.67685
1.62525
1.23505
0.661059
0.721446
-0.130945
-0.067529
0.0556085
1.80549
1.54695
2.01704
2.13209
1.85144
1.81681
2.51173
2.84181
3.07228
2.85284
2.44912
2.17099
1.80082
1.34741
0.517158
0.73007
-0.0183769
0.0424946
0.164412
0.469582
1.67075
1.90981
1.51252
1.93723
1.7921
2.31313
2.23503
2.71607
2.97296
2.71763
2.44248
2.0227
1.40278
0.287926
0.00201855
-0.0946245
-0.0160124
0.220701
-1.71391
-1.76379
-1.78488
-1.61714
-1.39948
-1.29924
-1.30891
-1.46013
-1.60348
-1.71022
-1.74198
-2.42592
-1.61845
-1.09256
-1.05034
-1.49696
-2.28227
-2.51928
-2.96793
-2.27882
-2.11484
-1.50424
0.284774
-2.13254
-2.11144
-2.09691
-2.00588
-1.7358
-1.4859
-1.38384
-1.5245
-1.72015
-1.95431
-1.21427
-0.330298
0.38035
0.459131
0.383644
0.0843614
-0.0459595
-1.30807
-1.63647
-3.06356
-3.25135
-4.10885
-3.53749
-2.0028
-2.00667
-2.09202
-2.15495
-2.04697
-1.40096
-1.03409
-0.901092
-0.323379
0.780842
1.39898
2.23204
2.02838
2.00483
1.62147
0.812826
0.12849
-0.0771467
-0.423379
-0.974427
-1.26697
-2.01059
-2.88405
-1.1054
-0.816743
-0.941705
-0.955867
-0.608757
-0.537434
-0.340563
1.2289
1.85848
2.56637
2.6452
2.4874
1.71393
1.19649
1.7806
1.44646
1.16915
1.10488
0.715857
0.398853
-0.400859
-0.975471
-2.0658
0.439657
0.0248725
0.815963
0.686111
1.28575
2.22994
1.67673
2.46869
2.17598
2.75813
2.64534
2.24527
2.18753
1.93692
1.86397
1.36839
1.44992
1.26087
1.13977
0.71151
0.0876778
0.189215
-0.188452
1.70632
1.62818
1.72455
1.72831
2.00545
3.13347
2.17063
2.51941
2.70156
2.80651
2.35033
2.55923
2.75986
2.9853
2.87189
2.77618
2.60342
2.19972
1.88883
2.09269
1.97979
1.77349
1.45167
2.64209
2.70499
2.56586
2.54926
2.545
2.91904
2.1824
2.833
2.93319
2.78555
2.81934
2.99186
3.07944
3.06434
2.97035
2.89266
2.86989
2.7016
2.40032
2.91419
2.80409
2.52448
2.88641
2.87989
2.92272
2.86304
2.61146
2.53272
2.57461
2.54161
3.01029
3.05872
2.85424
2.89255
3.0106
2.71776
2.54949
2.3433
2.1572
2.04699
2.2344
2.11706
1.92017
2.02129
1.88919
1.92295
2.92342
2.89487
2.7669
2.65946
2.66532
2.64679
2.79825
3.02599
3.06539
2.83204
2.88245
2.53513
1.99584
1.7668
1.52545
1.39797
1.25153
1.50082
1.43948
1.14762
1.0602
1.3363
1.16045
2.91908
2.86476
2.85444
2.81726
2.79803
2.82272
2.99941
3.05364
2.90847
2.77313
2.86641
2.02319
1.40797
1.11003
0.81392
0.735654
0.740401
0.825388
0.829758
0.668278
0.53381
0.76487
0.616368
2.94287
2.85135
2.90563
2.92177
2.94161
2.9027
3.01695
3.12785
3.06662
2.71155
2.25122
1.36722
0.769336
0.522131
0.408168
0.371222
0.368915
0.36631
0.326594
0.289301
0.26483
0.412337
0.234087
3.0032
2.76928
2.87991
2.99807
3.00534
3.01257
3.14707
2.85976
2.85122
2.2001
1.19243
0.677321
0.365289
0.237433
0.157967
0.171306
0.197485
0.177083
0.127425
0.108362
0.103882
0.161098
0.0774382
3.02354
2.6925
2.78532
2.99265
2.92052
3.02189
2.93329
2.44219
2.61606
1.67728
0.78596
0.564654
0.453539
0.329638
0.170806
0.0862654
0.0820131
0.0760413
0.0519969
0.0362805
0.035944
0.0603553
0.0374994
3.10874
2.62895
2.51249
2.45676
2.33617
2.6379
2.2708
1.66457
2.47118
1.40531
0.917014
0.622211
0.410764
0.320168
0.246789
0.127021
0.0597192
0.0327772
0.0173469
0.00667399
0.00898298
0.0159374
0.0179411
3.17807
2.66735
2.33849
2.1396
1.9931
1.69475
1.40301
0.978719
1.53797
1.13623
0.790245
0.593092
0.3427
0.179216
0.146222
0.122236
0.0782321
0.0497468
0.0255522
0.0064938
0.00217433
0.00194796
0.00410501
3.20101
2.73386
2.19133
1.83621
1.66778
1.5247
1.11078
0.901684
0.935594
0.933376
0.80612
0.587448
0.367992
0.170063
0.0808319
0.0564791
0.0376069
0.0221648
0.00842919
0.0015638
-0.000117328
-0.000999451
-0.000652899
3.20491
2.73455
2.11207
1.81298
1.66154
1.40894
1.2238
1.11766
0.981004
0.854977
0.749751
0.619806
0.390375
0.187021
0.0653569
0.0355546
0.0231862
0.0110429
0.00369537
0.000839487
-0.000450514
-0.000940645
-0.000837533
3.19923
2.76968
2.17304
1.79005
1.5724
1.27867
1.13801
0.964951
0.727171
0.699168
0.606349
0.471688
0.381453
0.281499
0.125648
0.0314325
0.0109861
0.00436722
0.00134796
0.000272996
-3.25824e-05
-0.00029495
-0.000390209
3.17685
2.73777
2.20468
1.61783
1.36478
1.25175
1.11674
0.846375
0.476085
0.416798
0.394234
0.417957
0.439342
0.3793
0.198325
0.0489761
0.0137209
0.00600022
0.00253415
0.00118089
0.000352515
8.87948e-05
-4.52763e-05
3.15563
2.73703
2.18639
1.6569
1.35007
1.19409
1.25747
0.875054
0.381393
0.265439
0.124286
0.193636
0.267183
0.270187
0.202542
0.0935521
0.0405289
0.013075
0.00538874
0.00208898
0.000691935
0.000255495
9.09828e-05
3.12067
2.69081
2.30556
1.77106
1.38804
1.36868
1.54788
0.763369
0.290518
0.1294
0.0554687
0.080214
0.129297
0.221259
0.210837
0.164262
0.102609
0.0482006
0.0151179
0.00319417
0.00107992
0.000133477
-2.31265e-05
3.05978
2.74113
2.66974
1.93022
1.58091
1.69195
1.87207
0.791869
0.214545
0.0713377
0.0452457
0.0536554
0.0707883
0.15392
0.193502
0.183459
0.147999
0.0826655
0.0347844
0.0120598
0.00270436
0.000562692
0.000187557
2.9922
2.80419
2.81709
2.28709
1.96929
2.15722
2.11072
1.18662
0.490716
0.0983905
0.0298868
0.0552145
0.0746961
0.136478
0.179316
0.174545
0.137971
0.0655762
0.0183832
0.00481438
0.000527504
6.39078e-05
-6.69064e-06
2.95612
2.80098
2.76844
2.57545
2.32885
2.38209
2.35791
1.70799
0.674797
0.0973099
0.00833265
0.055684
0.0868356
0.133864
0.150022
0.14273
0.117289
0.0764501
0.0278959
0.00641801
0.00104677
8.92009e-05
5.08034e-06
2.95242
2.78304
2.68661
2.57612
2.54177
2.53412
2.42775
1.84645
0.815977
0.12078
-0.0260011
0.0590053
0.102833
0.0964973
0.0794121
0.0507313
0.0183728
0.00683283
0.00400805
0.000997419
-0.000242998
-0.000113406
-2.12261e-05
2.95307
2.545
2.30006
2.58592
2.54182
2.58828
2.56694
1.95624
0.783019
-0.0695052
-0.0247016
0.0375565
0.0524145
0.0265474
0.0203487
0.00601237
-0.00468263
-0.00379365
-0.00147673
-0.000644524
-0.000286334
-6.15545e-05
-1.05945e-05
2.78513
2.28535
2.07149
2.4895
2.48997
2.45916
1.77459
0.818206
0.155166
-0.0342441
0.000816036
0.0226058
0.0218336
0.00981285
0.00207427
-0.00270413
-0.00295667
-0.00150527
-0.000548787
-0.000170257
-3.13557e-05
-1.35077e-06
-1.39765e-07
2.42346
2.21293
2.02652
2.15118
2.17681
2.01996
1.00295
0.360106
0.0711085
-0.00831026
0.00930733
0.0187012
0.013452
0.0118765
0.000239966
-0.00209138
-0.000483034
0.000107576
0.000142667
4.14013e-05
1.77608e-05
1.12421e-06
-1.50585e-06
2.18609
2.06534
1.81618
1.63367
1.14639
0.908011
0.345599
0.112845
-0.00239759
-0.00549243
0.0268341
0.0329848
0.0314284
0.0312957
0.0150125
0.00302793
0.00206994
0.00127906
0.000552899
0.000184788
4.43914e-05
4.1108e-06
-1.4783e-06
2.07871
2.08401
1.82799
1.43234
0.762687
0.417863
0.0899225
-0.0294556
0.00168069
0.0326062
0.0412348
0.0410335
0.0392062
0.0365201
0.0235071
0.00720247
0.00491437
0.00253526
0.000996071
0.000348082
9.17199e-05
1.50854e-05
7.14307e-08
2.00593
2.0084
1.67106
1.20942
0.564208
0.210921
0.0443724
-0.00668034
0.0117034
0.0365097
0.0423149
0.0424703
0.0409371
0.0391701
0.0322552
0.0145739
0.00804278
0.00337767
0.0012176
0.000367244
7.13133e-05
8.66825e-06
2.8699e-07
1.95566
1.92023
1.50301
0.994247
0.498895
0.219742
0.0611697
0.00366462
0.0137462
0.0368857
0.041897
0.0373213
0.0395995
0.039986
0.0357973
0.0202483
0.00949703
0.00390418
0.00120817
0.000315135
0.000103894
2.65524e-05
4.67512e-06
1.89853
1.78028
1.26845
0.722238
0.336423
0.129836
0.030143
0.00258149
0.0142893
0.0293214
0.0376336
0.0287836
0.0309247
0.0389173
0.0376912
0.0237006
0.00841765
0.00206516
0.000487377
0.000112105
2.50631e-05
8.88226e-06
2.01589e-06
1.82923
1.56546
0.985482
0.456033
0.212292
0.0949671
0.0250532
0.00412996
0.0114938
0.0183627
0.0294066
0.0244805
0.0283809
0.0377626
0.0379859
0.0250408
0.0103838
0.00420742
0.000795251
0.000106354
5.60578e-06
-4.34733e-06
-4.62624e-06
1.73581
1.27571
0.693681
0.254213
0.104104
0.0515873
0.016165
0.00503311
0.00932121
0.0109306
0.0148796
0.0193586
0.0300091
0.0371486
0.0372999
0.0251172
0.00946742
0.00252361
0.000123304
-8.92277e-05
-4.75475e-05
-1.47798e-05
-1.08004e-05
1.64229
1.04098
0.527811
0.179546
0.0638427
0.0328539
0.01521
0.00726008
0.00997561
0.0127673
0.0183395
0.032496
0.0398001
0.0395296
0.036283
0.0130829
0.00277707
0.000195819
-0.000228792
-0.000121302
-3.55809e-05
-8.64373e-06
-1.12825e-05
1.53409
0.822545
0.357174
0.109663
0.0432686
0.0290257
0.0214347
0.0166479
0.024667
0.0335108
0.0368754
0.0408206
0.0415212
0.0313239
0.0238707
0.00768045
0.00123822
-0.000184406
-0.000192786
-6.42995e-05
-1.20874e-05
-4.84431e-06
-1.2467e-05
1.43163
0.586896
0.169914
0.0442451
0.0367635
0.0394883
0.0406206
0.0426135
0.0490066
0.0501131
0.0475592
0.0404014
0.0273806
0.0136269
0.00964181
0.00128295
-0.000100911
-0.000160096
-7.38813e-05
-1.54911e-05
-6.1361e-07
-4.69207e-06
-1.64455e-05
1.29684
0.316648
0.0471533
0.0344696
0.0473039
0.0505373
0.0494396
0.0449551
0.0448593
0.0343297
0.0210006
0.0127685
0.00214811
-0.000206966
0.000643351
-0.000600288
-0.000382462
-0.000131688
-3.36149e-05
-3.11245e-06
1.62059e-07
-7.07847e-06
-2.0922e-05
1.16284
0.138531
0.020013
0.0365714
0.0390037
0.0335096
0.0230556
0.0135921
0.012938
0.00601829
0.00256456
0.00109262
-0.000872241
-0.00112936
-0.000589106
-0.000345246
-0.000157285
-4.01973e-05
4.81428e-06
3.92476e-06
-1.74241e-07
-9.04091e-06
-2.78039e-05
0.874605
-0.0641015
-0.00802326
0.00872553
0.00565947
0.00353573
0.00126181
-0.000175188
0.00010092
-0.00110122
-0.00120484
-0.00103248
-0.000857321
-0.000603849
-0.000330851
-0.000140933
-1.30022e-05
1.19374e-05
7.53115e-06
2.25643e-06
-9.85462e-07
-9.08061e-06
-2.98734e-05
0.226335
-0.0878657
-0.00875675
-0.000675317
-0.000471154
-0.000465542
-0.000394628
-0.000248193
-3.85108e-05
-0.000386472
-0.000695025
-0.000689988
-0.000607413
-0.000455285
-0.000252048
-5.71813e-05
7.24645e-06
1.01281e-05
4.20199e-06
6.82455e-07
-1.02786e-06
-8.67654e-06
-3.00609e-05
-0.3675
0.424343
2.395
3.3483
-3.15112
-1.71965
0.903842
3.26805
-3.81212
-2.92057
0.00329064
1.77721
-2.2394
-0.767169
0.512321
0.672166
-0.174074
0.795366
1.31597
0.142711
1.59154
1.57324
2.04522
1.79564
2.73535
2.50434
2.15421
2.17754
2.04079
1.92871
1.79434
1.58287
1.0431
0.957921
0.868877
0.719646
0.533448
0.532007
0.538843
0.476059
0.190137
0.200771
0.24172
0.24049
0.0617319
0.0617572
0.0710952
0.0719123
0.0281337
0.022392
0.0237
0.0193438
0.0139851
0.0111722
0.0122248
0.0101971
0.00400551
0.00417235
0.00497874
0.00498135
-9.8151e-05
0.000591874
0.00123918
0.00139969
-0.000700464
-0.000370835
-0.000125938
-6.42102e-05
-0.000411171
-0.000416095
-0.000366802
-0.000292261
-9.58218e-05
-0.000104684
-0.000110178
-0.000114643
2.21615e-05
6.19815e-07
-1.06573e-05
-1.8839e-05
-2.6898e-05
-1.55448e-05
-5.91752e-06
-3.11504e-06
4.2288e-05
9.16027e-06
4.19827e-07
-1.20349e-06
-2.65255e-05
-1.64597e-05
-7.78527e-06
-2.98923e-06
-1.71936e-05
-1.15874e-05
-5.71577e-06
-2.01688e-06
-1.20105e-05
-5.75122e-06
-2.12771e-06
-6.05026e-07
-2.38021e-06
-4.39747e-07
1.31968e-07
1.99579e-07
-7.2791e-08
-9.72735e-08
-2.31037e-08
4.55006e-08
-1.28904e-06
-8.11713e-07
-4.00878e-07
-9.74973e-08
-1.9097e-06
-1.36498e-06
-7.27879e-07
-4.26506e-07
-1.93546e-06
-1.69596e-06
-9.93898e-07
-6.40817e-07
-1.94774e-06
-1.81155e-06
-1.32984e-06
-1.53392e-06
-1.08568e-07
-1.13962e-06
-1.41042e-06
-2.18362e-06
-6.3186e-07
-2.39898e-06
-4.29732e-06
-8.07785e-06
-5.44535e-06
-7.50443e-06
-1.07171e-05
-1.67887e-05
-1.24099e-05
-1.6126e-05
-2.09329e-05
-2.84698e-05
-1.82279e-05
-2.54418e-05
-3.43331e-05
-4.41232e-05
-2.76423e-05
-3.84325e-05
-4.74992e-05
-5.51231e-05
-3.5243e-05
-4.9517e-05
-6.02355e-05
-6.47324e-05
-4.03275e-05
-5.50129e-05
-6.73325e-05
-6.94023e-05
-4.96777e-05
-6.24586e-05
-7.15916e-05
-7.22649e-05
-5.26949e-05
-6.66401e-05
-7.49736e-05
-7.42121e-05
-5.25116e-05
-6.73838e-05
-7.5885e-05
-7.52267e-05
-3.22062
1.04224
1.40353
1.85051
2.43372
2.30148
2.62604
2.47626
2.71394
2.80408
2.70258
2.54172
2.27551
1.62832
0.825482
0.4273
-0.227548
0.0588099
-0.0510038
-2.37095
0.537365
2.18975
2.98577
2.07636
2.38296
2.6105
2.58148
2.40898
2.24518
2.08106
2.10813
1.88758
1.79254
1.96703
1.15125
0.335531
0.146521
0.140231
-0.822589
0.912907
2.64548
2.14121
2.49648
2.78395
2.82416
2.68707
2.1857
2.16083
3.23916
2.98498
2.20057
3.0025
3.041
1.38207
1.66321
1.27426
0.798444
-0.0964714
2.34949
2.03555
2.21184
2.78377
3.26488
3.45369
3.33526
3.47631
3.9754
4.17973
3.98928
4.33886
3.89837
2.74654
1.34145
2.43565
2.57447
2.0443
0.67686
1.68973
2.49345
3.14601
3.21754
2.94938
3.5123
3.04313
3.69582
3.82996
2.23063
1.84896
3.11843
1.99609
1.28049
1.10364
1.72213
1.95838
3.27562
2.35464
2.74683
3.0081
1.93487
1.51934
1.18715
1.40477
1.1752
1.18046
1.03035
0.692024
0.569656
0.724497
0.266434
0.326803
0.468877
0.953467
1.61425
3.51123
2.50835
2.07928
1.68026
1.10009
0.973166
0.712953
0.762673
0.767338
0.582171
0.336679
0.255048
0.180987
0.10391
0.0874734
0.164947
0.279713
0.63218
1.33405
2.69114
1.41012
0.985243
0.822153
0.639232
0.620712
0.522744
0.593162
0.524296
0.357188
0.259967
0.187857
0.121518
0.085985
0.0879666
0.0792337
0.0571093
0.0847649
0.323047
1.23898
0.622208
0.493771
0.425383
0.372307
0.410325
0.399342
0.45341
0.434546
0.327526
0.236469
0.136576
0.092651
0.0804222
0.0643011
0.046807
0.0258071
-0.0111183
-0.0508897
0.242724
0.392828
0.302537
0.278872
0.202634
0.22237
0.241251
0.293179
0.337114
0.327702
0.289015
0.199885
0.128968
0.0916161
0.067591
0.0475899
0.0332337
0.0228769
-0.00357125
-0.015803
0.202737
0.132946
0.116774
0.0982494
0.0962475
0.095763
0.126636
0.196723
0.248756
0.275706
0.237087
0.188101
0.143137
0.104843
0.0607797
0.0421828
0.0291357
0.0224977
0.0137089
0.0635081
0.0502461
0.0375461
0.0368542
0.0349145
0.0351312
0.0433939
0.0772683
0.132538
0.171286
0.194856
0.198856
0.182074
0.152693
0.0942884
0.0537878
0.0298547
0.0214392
0.021671
0.0143117
0.0140092
0.0110972
0.010819
0.0109342
0.0128844
0.0110696
0.0176489
0.0430549
0.0672228
0.0992925
0.126464
0.14394
0.141523
0.0940619
0.0431466
0.0223624
0.018384
0.0189045
0.00521882
0.00369675
0.00301749
0.00220813
0.00307237
0.00542852
0.00347149
0.00302635
0.0110274
0.0171123
0.0301277
0.0516399
0.0826123
0.115854
0.0911205
0.0465096
0.0208273
0.016309
0.0170747
0.0025626
0.0010634
0.000522361
0.000266849
0.00047384
0.00171365
0.00218729
0.00136427
0.00183744
0.00174254
0.0048054
0.0153397
0.0375801
0.0735847
0.0628424
0.0448862
0.0189093
0.0134286
0.0160699
0.0011189
0.000343476
-0.000111582
-0.000111469
-7.09007e-05
0.000325553
0.00127513
0.000942163
0.000298943
-0.000288967
-0.000464833
0.000691744
0.00670123
0.0326121
0.0292728
0.0306559
0.0144805
0.0109984
0.0153972
8.33109e-05
-1.96538e-06
-0.000138126
-0.00013305
-0.000130866
-5.38859e-05
0.000406766
0.000433342
0.00024577
4.68108e-05
-0.000227387
-0.00108442
-0.0010482
0.00869187
0.0087474
0.0102272
0.00763372
0.00935941
0.0148495
-0.000168688
-0.000126092
-0.000112483
-9.87361e-05
-9.46058e-05
-7.18557e-05
2.41574e-05
0.00010188
8.51589e-05
8.45213e-05
5.99008e-05
-0.000225567
-0.000885645
0.000197979
0.00151925
0.00212665
0.0037683
0.00813493
0.014332
-0.000108771
-0.000102521
-7.95814e-05
-5.53301e-05
-4.4074e-05
-4.54398e-05
-3.67924e-05
-6.06479e-06
-6.99657e-06
2.71718e-06
2.93312e-05
1.45839e-05
-0.00021194
-0.00017482
-0.000287934
0.000434852
0.00220657
0.00744625
0.0137657
-3.19736e-05
-4.4179e-05
-2.71236e-05
-1.54552e-05
-8.77087e-06
-1.79378e-05
-2.42619e-05
-2.18436e-05
-2.21231e-05
-2.24448e-05
-1.50815e-05
7.33958e-06
-3.75943e-05
-0.000137765
-0.000233005
0.000135258
0.00182019
0.0069998
0.0131676
1.09483e-06
-2.43431e-06
1.01379e-07
1.28697e-06
7.78383e-07
-2.88162e-06
-7.7117e-06
-1.1735e-05
-1.41363e-05
-1.49487e-05
-1.62187e-05
-1.21747e-05
-2.69414e-05
-0.000103717
-0.000144435
0.000118911
0.00165585
0.00654936
0.0125417
2.9851e-06
3.0991e-06
2.49064e-06
1.90571e-06
1.5163e-06
6.48557e-07
-8.40265e-07
-3.34136e-06
-5.31581e-06
-5.38697e-06
-7.19402e-06
-9.34468e-06
-2.1799e-05
-7.90191e-05
-0.000123752
-5.10609e-05
0.00116337
0.00596874
0.0119583
8.18845e-07
1.08517e-06
8.86165e-07
7.66554e-07
7.76966e-07
6.24283e-07
-1.25336e-07
-1.79884e-06
-3.20123e-06
-2.83711e-06
-3.07785e-06
-4.26164e-06
-9.17592e-06
-5.48603e-05
-0.00010218
-1.54841e-05
0.00119632
0.00561683
0.0113675
-1.59159e-08
2.0862e-07
1.3905e-07
1.32091e-07
4.0222e-08
-2.58847e-07
-1.11324e-06
-2.8937e-06
-4.89634e-06
-5.10913e-06
-4.66077e-06
-3.64936e-06
-3.62888e-06
-3.04924e-05
-9.49157e-05
-0.000107324
0.000893334
0.00519292
0.0108426
-4.16616e-09
-7.29929e-09
3.47426e-09
-1.18007e-07
-5.6954e-07
-1.90712e-06
-4.1238e-06
-6.53017e-06
-8.88681e-06
-9.98796e-06
-9.75322e-06
-7.41631e-06
-6.65398e-06
-2.16303e-05
-8.62143e-05
-0.000133225
0.000582883
0.00456668
0.0104236
1.05742e-07
3.30302e-08
-2.0391e-07
-6.63664e-07
-1.40202e-06
-3.20711e-06
-6.92844e-06
-9.84147e-06
-1.28749e-05
-1.48331e-05
-1.49105e-05
-1.30277e-05
-1.10524e-05
-1.71946e-05
-7.91332e-05
-0.000150602
0.000614584
0.00442825
0.0098743
4.50453e-08
8.18203e-08
-5.25669e-07
-2.10135e-06
-4.83302e-06
-8.20728e-06
-1.24884e-05
-1.45488e-05
-1.71805e-05
-1.84653e-05
-1.82642e-05
-1.67914e-05
-1.6259e-05
-2.34966e-05
-7.65582e-05
-0.000133147
0.000574239
0.00403578
0.00937756
-1.50467e-07
-2.41069e-07
-2.03641e-06
-6.44579e-06
-1.46691e-05
-1.89695e-05
-1.85367e-05
-1.90087e-05
-1.99794e-05
-1.94853e-05
-1.63395e-05
-1.55404e-05
-1.4666e-05
-2.16243e-05
-7.1729e-05
-0.000121903
0.000420953
0.00338495
0.00894502
-9.73453e-07
-2.93301e-06
-7.13597e-06
-1.65093e-05
-2.35216e-05
-2.34519e-05
-1.90158e-05
-1.7495e-05
-1.38745e-05
-2.6893e-06
3.0264e-06
-6.65278e-08
-6.49951e-06
-1.42839e-05
-5.94539e-05
-0.000129508
0.000207121
0.00278885
0.00855543
-1.2671e-06
-5.8863e-06
-1.27407e-05
-2.66739e-05
-2.76679e-05
-2.31295e-05
-9.15924e-06
8.97775e-06
5.19312e-05
6.81634e-05
6.09139e-05
3.85055e-05
2.31311e-05
9.62643e-06
-5.3922e-05
-0.000113003
-1.68621e-05
0.00192223
0.00839432
-3.94046e-06
-1.42211e-05
-2.84427e-05
-3.19259e-05
-2.61221e-05
-3.70888e-06
3.06507e-05
8.8232e-05
0.000183321
0.000200886
0.000185674
0.000156434
0.000119051
4.44477e-05
-5.93379e-05
-0.000124951
-6.31836e-06
0.00290374
0.00874759
-5.58485e-06
-1.80435e-05
-3.37456e-05
-3.48336e-05
-1.94736e-05
2.06547e-05
6.77344e-05
0.000215106
0.000404257
0.000420662
0.000424625
0.000338719
0.000278965
0.000187236
3.2711e-05
-9.90862e-05
0.000162631
0.00296119
0.00819313
-1.77613e-05
-3.40142e-05
-3.68711e-05
-3.4963e-05
2.1494e-05
0.000129133
0.000252177
0.000558811
0.000888845
0.000895018
0.000864962
0.000714275
0.00053156
0.000311665
5.11053e-05
-7.6832e-05
0.000175527
0.0026204
0.00838522
-3.22293e-05
-4.05773e-05
-4.08521e-05
-8.44191e-06
0.000157819
0.000406059
0.000757061
0.00101818
0.00131553
0.00145445
0.00134163
0.00100361
0.000687495
0.000451745
9.31517e-05
-6.27322e-05
0.000165575
0.00390028
0.00904875
-4.18529e-05
-4.34032e-05
-3.54566e-05
4.26052e-05
0.0002177
0.000552361
0.00119536
0.00156693
0.00185199
0.00186379
0.00172072
0.00139633
0.000973537
0.000532924
0.000124895
-3.2339e-05
0.000199498
0.00366964
0.00837752
-5.11949e-05
-4.21735e-05
-1.98326e-05
0.000113986
0.000387596
0.000772501
0.00153136
0.00203481
0.00225276
0.00219701
0.00209823
0.00177419
0.0011929
0.000684091
0.000170861
6.41439e-06
0.000252515
0.00333959
0.00693889
-5.54805e-05
-3.46816e-05
8.35104e-06
0.000157856
0.000457514
0.000835938
0.00166742
0.00230905
0.00234192
0.00216796
0.00208608
0.00192847
0.00141667
0.000776764
0.000225258
4.51656e-05
0.000368669
0.0024719
0.00576669
-6.05292e-05
-5.05604e-06
0.000107312
0.000333759
0.000817298
0.00137582
0.00202815
0.00237209
0.00209649
0.00183448
0.00185169
0.00187762
0.00153001
0.000906061
0.000346109
9.54362e-05
0.000276524
0.00301445
0.00718134
-5.735e-05
1.53281e-05
0.000183225
0.000506631
0.00111706
0.0019472
0.00231951
0.00221452
0.0017845
0.00152754
0.00150875
0.00179813
0.00162154
0.00105921
0.000553045
0.000154506
0.000381828
0.00280791
0.00660827
-5.40534e-05
3.01997e-05
0.000241338
0.000651456
0.00138863
0.0021886
0.00237301
0.00192892
0.0014528
0.00130303
0.00126884
0.00157465
0.00160405
0.00129655
0.000811207
0.000224192
0.000465749
0.00226913
0.00525231
-5.05986e-05
6.07015e-05
0.000330051
0.000608141
0.000965086
0.00176123
0.00229401
0.00187532
0.00142073
0.00120502
0.00113934
0.00130755
0.00151954
0.00125606
0.000811053
0.000339025
0.000528928
0.00208701
0.00516999
-5.57146e-05
5.68807e-05
0.000382168
0.000635432
0.000834993
0.00116856
0.00194539
0.00196818
0.00145488
0.0011142
0.00102251
0.0010077
0.00115432
0.00102359
0.000658914
0.000371558
0.000513003
0.00122528
0.0035899
)
;

boundaryField
{
    leftWall
    {
        type            zeroGradient;
    }
    rightWall
    {
        type            zeroGradient;
    }
    lowerWall
    {
        type            zeroGradient;
    }
    atmosphere
    {
        type            zeroGradient;
    }
    defaultFaces
    {
        type            empty;
    }
}


// ************************************************************************* //
