/*--------------------------------*- C++ -*----------------------------------*\
| =========                 |                                                 |
| \\      /  F ield         | foam-extend: Open Source CFD                    |
|  \\    /   O peration     | Version:     4.1                                |
|   \\  /    A nd           | Web:         http://www.foam-extend.org         |
|    \\/     M anipulation  |                                                 |
\*---------------------------------------------------------------------------*/
FoamFile
{
    version     2.0;
    format      ascii;
    class       volVectorField;
    location    "0.95";
    object      U;
}
// * * * * * * * * * * * * * * * * * * * * * * * * * * * * * * * * * * * * * //

dimensions      [0 1 -1 0 0 0 0];

internalField   nonuniform List<vector> 
2268
(
(0.00830499 0.00063411 0)
(0.00578411 0.00158544 0)
(0.0218288 -0.0107701 0)
(0.0224151 -0.00940317 0)
(0.0479767 0.00236164 0)
(0.0733285 -0.00218781 0)
(0.0709904 0.000333288 0)
(0.0900967 -0.00659785 0)
(0.103263 0.0112943 0)
(0.110669 0.000825382 0)
(0.197607 0.000205231 0)
(0.188886 -0.0260317 0)
(0.175707 -0.00492741 0)
(0.196552 -0.00593889 0)
(0.2122 -0.00789225 0)
(0.211354 0.0085719 0)
(0.217353 0.00743944 0)
(0.196327 0.000149556 0)
(0.196347 0.0076191 0)
(0.173384 -0.0531852 0)
(0.104078 0.0114126 0)
(0.067892 -0.0165801 0)
(0.0418042 0.0256336 0)
(0.0317086 -0.00733677 0)
(0.0195334 -0.00158893 0)
(0.0289128 -0.00404748 0)
(0.0275951 0.000377079 0)
(0.0499226 -0.00119998 0)
(0.0745101 -0.00160463 0)
(0.0749627 -0.00544197 0)
(0.103946 -0.00153512 0)
(0.118261 -0.0229435 0)
(0.123661 -0.045554 0)
(0.176768 -0.0217262 0)
(0.17774 -0.0482727 0)
(0.172083 -0.00555033 0)
(0.195294 -0.0273839 0)
(0.207196 0.00331506 0)
(0.208213 -0.0135279 0)
(0.205251 0.00586236 0)
(0.190945 0.0251593 0)
(0.182494 0.0866033 0)
(0.190141 0.0173745 0)
(0.128758 0.0313344 0)
(0.0376917 0.0486491 0)
(0.0636073 0.0248464 0)
(0.0229262 -0.011615 0)
(0.0171387 -0.00865387 0)
(0.0350238 -0.0153331 0)
(0.0299084 -0.00337994 0)
(0.0500354 -0.0102646 0)
(0.0777071 -0.016844 0)
(0.0778846 -0.006423 0)
(0.0853924 -0.0153463 0)
(0.0956184 -0.0359104 0)
(0.127474 -0.0517328 0)
(0.181945 -0.0241035 0)
(0.160125 -0.0792601 0)
(0.138756 -0.0142215 0)
(0.157006 -0.0296799 0)
(0.17265 -0.0295699 0)
(0.17395 0.0152704 0)
(0.220644 0.00372527 0)
(0.200277 -0.00443403 0)
(0.168118 0.0837442 0)
(0.137952 0.0411812 0)
(0.128508 0.0692495 0)
(0.0691029 0.0564581 0)
(0.0463685 0.0818695 0)
(0.0118292 -0.0175703 0)
(0.0106575 -0.0157279 0)
(0.0368722 -0.00782007 0)
(0.0344992 -0.016408 0)
(0.0505251 0.00494909 0)
(0.0782841 -0.0326181 0)
(0.0771497 -0.0122323 0)
(0.086502 -0.0375603 0)
(0.0919645 -0.0332026 0)
(0.114956 -0.0178795 0)
(0.121312 -0.0356761 0)
(0.134959 -0.0373322 0)
(0.12885 -0.0296932 0)
(0.132701 -0.0265781 0)
(0.18545 0.0206566 0)
(0.172329 0.0385875 0)
(0.129811 0.0115388 0)
(0.160723 -0.0371671 0)
(0.147446 0.0429103 0)
(0.130109 0.0313494 0)
(0.12122 0.0839805 0)
(0.0528013 0.135526 0)
(0.0698429 0.0670642 0)
(0.00232493 -0.0218767 0)
(0.0128428 -0.00818604 0)
(0.0384393 -0.0286503 0)
(0.0436571 -0.0254577 0)
(0.046866 -0.00818076 0)
(0.0651483 -0.0206425 0)
(0.0678124 -0.0276619 0)
(0.0705629 -0.0284112 0)
(0.0736096 -0.0534968 0)
(0.0920239 -0.0144952 0)
(0.112496 -0.0788829 0)
(0.111671 -0.104364 0)
(0.104656 -0.116919 0)
(0.161442 -0.0458973 0)
(0.188822 0.0189285 0)
(0.152981 -0.0145326 0)
(0.143765 -0.00275226 0)
(0.157049 0.0511095 0)
(0.107734 0.0297188 0)
(0.109465 0.0471044 0)
(0.135128 0.0464464 0)
(0.0330948 0.125538 0)
(0.0105437 0.150038 0)
(0.00697518 -0.0254458 0)
(0.0071009 -0.0257855 0)
(0.0288316 -0.0203607 0)
(0.0424811 -0.0164112 0)
(0.0589774 -0.0196896 0)
(0.07042 -0.016293 0)
(0.0532854 -0.0239526 0)
(0.0393785 -0.0190312 0)
(0.0597616 -0.0324281 0)
(0.0571889 -0.0402696 0)
(0.0600126 -0.0714389 0)
(0.0999943 -0.1017 0)
(0.146058 -0.0738567 0)
(0.17276 -0.053496 0)
(0.200206 -0.0312775 0)
(0.18715 0.0370409 0)
(0.183509 0.0240182 0)
(0.181962 0.035314 0)
(0.123398 0.0503708 0)
(0.0767497 0.0648424 0)
(0.100554 0.0700838 0)
(0.0672207 0.0986992 0)
(0.0655992 0.206455 0)
(0.000753074 -0.0281821 0)
(0.00640276 -0.0282878 0)
(0.0264214 -0.0521318 0)
(0.0166353 -0.0605112 0)
(0.0145754 -0.01492 0)
(0.0153629 -0.0144311 0)
(0.0159513 -0.0225529 0)
(0.020558 -0.0414889 0)
(0.0456253 -0.0404448 0)
(0.053781 -0.0281476 0)
(0.0833098 -0.0264297 0)
(0.113991 0.00173228 0)
(0.0988151 -0.0466121 0)
(0.154607 -0.0738763 0)
(0.219825 -0.0370728 0)
(0.198832 0.0355609 0)
(0.180132 0.07221 0)
(0.214203 0.0323437 0)
(0.173349 0.0821805 0)
(0.0865014 0.170381 0)
(0.123454 0.0693107 0)
(0.086226 0.114343 0)
(0.0856355 0.324281 0)
(0.00601799 -0.0280312 0)
(-0.021181 -0.0124624 0)
(-0.021348 -0.0348332 0)
(-0.00624093 -0.0478977 0)
(0.0030547 -0.0257389 0)
(-0.0033562 -0.0222573 0)
(0.000233902 -0.0251147 0)
(0.0124457 -0.0364496 0)
(0.0631745 -0.0451407 0)
(0.0649982 -0.0703473 0)
(0.0842878 -0.0564551 0)
(0.101787 -0.104646 0)
(0.0649181 -0.131135 0)
(0.0868152 -0.0538678 0)
(0.154021 -0.0815898 0)
(0.248835 0.00988693 0)
(0.205144 0.103435 0)
(0.262055 0.0916979 0)
(0.26451 0.0339151 0)
(0.14775 0.169569 0)
(0.111857 0.0243385 0)
(0.165829 0.0791082 0)
(0.139635 0.317549 0)
(-0.85863 0.172312 0)
(-0.922201 0.122652 0)
(-1.0341 -0.0170123 0)
(-1.07619 -0.0265822 0)
(-0.920328 -0.0904381 0)
(-0.753928 -0.0346681 0)
(-0.643811 -0.0323103 0)
(-0.600261 -0.0159882 0)
(-0.517076 -0.0385236 0)
(-0.485048 -0.0246485 0)
(-0.468747 -0.018106 0)
(-0.422222 -0.0160949 0)
(-0.372434 -0.00763874 0)
(-0.337535 -0.000917663 0)
(-0.294989 -0.0358496 0)
(-0.291298 -0.0249349 0)
(-0.219306 -0.00424437 0)
(-0.187607 -0.0554815 0)
(-0.0394024 -0.0171003 0)
(-0.780257 0.246838 0)
(-0.742972 0.258714 0)
(-0.690387 0.0815461 0)
(-0.75439 0.0238394 0)
(-0.608608 -0.146817 0)
(-0.370414 -0.0867984 0)
(-0.314579 -0.0283289 0)
(-0.299294 -0.0349194 0)
(-0.246764 -0.0165495 0)
(-0.257422 0.0105238 0)
(-0.245434 -0.00906339 0)
(-0.219232 -0.0215228 0)
(-0.177961 -0.033592 0)
(-0.235051 -0.0646239 0)
(-0.114003 -0.115403 0)
(-0.251414 -0.00368683 0)
(-0.193028 0.0609172 0)
(-0.144404 -0.0864303 0)
(-0.0168603 -0.0820493 0)
(-0.671279 0.454018 0)
(-0.520461 0.41388 0)
(-0.454263 0.059818 0)
(-0.581602 -0.0271688 0)
(-0.48539 -0.141428 0)
(-0.110706 -0.184941 0)
(-0.043768 -0.0744254 0)
(-0.0867465 -0.0371901 0)
(-0.00461331 -0.0557017 0)
(-0.0321307 -0.0196005 0)
(-0.0526281 -0.0402023 0)
(-0.0881503 -0.117155 0)
(-0.00883797 -0.0912451 0)
(-0.130986 -0.0243202 0)
(-0.0425138 -0.149654 0)
(-0.132368 0.00862677 0)
(-0.109627 0.00605173 0)
(-0.0790273 -0.0541446 0)
(0.0636713 -0.0895357 0)
(-0.596012 0.519481 0)
(-0.33228 0.393736 0)
(-0.353979 0.0196644 0)
(-0.423056 -0.157747 0)
(-0.282212 -0.32082 0)
(0.0828032 -0.287156 0)
(0.104974 -0.00725422 0)
(0.0324368 -0.0548655 0)
(0.195783 -0.0637584 0)
(0.116302 0.0427001 0)
(0.081642 0.0144065 0)
(0.05309 -0.0501667 0)
(0.0567826 -0.126512 0)
(0.0624517 -0.0333487 0)
(0.0616621 -0.0683862 0)
(0.114781 -0.0368325 0)
(0.122996 0.0416373 0)
(0.0654921 -0.0519282 0)
(0.100601 -0.0876073 0)
(-0.471759 0.610738 0)
(-0.199518 0.528416 0)
(-0.286408 0.0689348 0)
(-0.320815 -0.253691 0)
(-0.134625 -0.613271 0)
(0.215203 -0.372192 0)
(0.313238 -0.100981 0)
(0.147652 -0.011621 0)
(0.30754 -0.0518041 0)
(0.343509 -0.0394989 0)
(0.260652 -0.0152854 0)
(0.143061 -0.0181115 0)
(0.176491 -0.0602803 0)
(0.132949 -0.0506938 0)
(0.107774 -0.0561214 0)
(0.150784 -0.00999629 0)
(0.194252 -0.00450758 0)
(0.17397 -0.000764141 0)
(0.153176 -0.0575863 0)
(-0.390239 0.664225 0)
(-0.0652023 0.480953 0)
(-0.238848 0.0646314 0)
(-0.25484 -0.303053 0)
(0.124669 -0.536185 0)
(0.302273 -0.362727 0)
(0.452647 -0.191255 0)
(0.436367 -0.0681052 0)
(0.455812 -0.0539482 0)
(0.482665 -0.0443551 0)
(0.388622 0.0830128 0)
(0.258108 0.0637188 0)
(0.230316 -0.0207346 0)
(0.169491 -0.0761047 0)
(0.177053 -0.0921438 0)
(0.149852 0.00849703 0)
(0.194339 -0.0437974 0)
(0.194501 0.0666318 0)
(0.136843 -0.0215427 0)
(-0.301406 0.696158 0)
(0.0642659 0.577151 0)
(-0.154687 0.133632 0)
(0.0105554 -0.494158 0)
(0.205789 -0.467622 0)
(0.339999 -0.377066 0)
(0.480684 -0.1902 0)
(0.464091 -0.0638917 0)
(0.474777 -0.0546454 0)
(0.531267 -0.0435909 0)
(0.507796 0.0744262 0)
(0.352282 0.103213 0)
(0.272058 0.0574184 0)
(0.217527 -0.0162622 0)
(0.235091 -0.112906 0)
(0.174082 -0.0225466 0)
(0.209579 -0.0719763 0)
(0.206357 0.0630942 0)
(0.135305 0.0187898 0)
(-0.241056 0.732961 0)
(0.227516 0.500807 0)
(0.0206683 0.0609395 0)
(0.142431 -0.526827 0)
(0.318097 -0.544682 0)
(0.394473 -0.434083 0)
(0.485074 -0.179771 0)
(0.451526 -0.177855 0)
(0.41878 -0.102845 0)
(0.505084 -0.00365836 0)
(0.495278 0.151665 0)
(0.325024 0.102683 0)
(0.303939 0.0608677 0)
(0.250017 0.0270661 0)
(0.269781 -0.102873 0)
(0.203807 -0.0510853 0)
(0.25981 -0.0163228 0)
(0.255517 0.101145 0)
(0.180185 0.11124 0)
(-0.00526176 -0.0209393 0)
(-0.00261644 -0.02157 0)
(-0.0195407 -0.00603753 0)
(-0.0186254 -0.0155136 0)
(-0.0123802 -0.0218403 0)
(-0.0061337 -0.0394967 0)
(0.0088201 -0.0346438 0)
(0.000698841 -0.0941822 0)
(0.00418942 -0.0809481 0)
(0.0238212 -0.148477 0)
(0.019643 -0.0744619 0)
(0.00706335 -0.177893 0)
(0.0200902 -0.16677 0)
(0.0284261 -0.187245 0)
(0.0305853 -0.0239505 0)
(0.133335 -0.102711 0)
(0.215202 0.0296745 0)
(0.248455 0.137618 0)
(0.303195 0.105287 0)
(0.234468 0.0535291 0)
(0.232462 0.0752954 0)
(0.301621 0.084977 0)
(0.246371 0.15509 0)
(-0.0031919 -0.029635 0)
(0.00370486 -0.0197071 0)
(0.0250048 -0.0312067 0)
(0.0403423 -0.0373437 0)
(0.0166545 -0.0168067 0)
(0.0146058 -0.0127395 0)
(-0.0439052 -0.0275832 0)
(-0.0385827 -0.0977776 0)
(-0.101293 -0.0536831 0)
(-0.180639 -0.0385787 0)
(-0.231389 0.0322295 0)
(-0.304061 -0.126435 0)
(-0.243039 -0.120499 0)
(-0.216023 -0.174005 0)
(-0.141618 -0.21839 0)
(-0.061683 -0.165351 0)
(-0.0697934 -0.0664425 0)
(0.239707 0.0918567 0)
(0.238478 0.203578 0)
(0.278321 0.118312 0)
(0.328063 0.144843 0)
(0.285063 0.0936561 0)
(0.318686 0.139264 0)
(0.0117191 -0.0637158 0)
(0.0397829 -0.0310808 0)
(0.0614207 -0.0184009 0)
(0.0682639 -0.0347286 0)
(0.0562135 0.00338532 0)
(0.019512 0.0093441 0)
(-0.100801 0.01741 0)
(-0.12121 0.0451334 0)
(-0.172551 0.0824206 0)
(-0.204044 0.0814598 0)
(-0.408514 0.024312 0)
(-0.417266 0.00701635 0)
(-0.327681 -0.116562 0)
(-0.36814 -0.140557 0)
(-0.381183 -0.169276 0)
(-0.359568 -0.166316 0)
(-0.344375 -0.220116 0)
(-0.138371 -0.0638317 0)
(-0.0754676 0.00403892 0)
(0.114106 0.090961 0)
(0.116138 -0.114223 0)
(0.244467 0.0772859 0)
(0.553943 0.15874 0)
(0.0684837 -0.126464 0)
(0.124906 -0.0757196 0)
(0.119993 -0.0494056 0)
(0.144365 0.0267175 0)
(0.111285 0.0451995 0)
(0.0139836 0.148469 0)
(-0.066986 0.12956 0)
(-0.234845 0.203292 0)
(-0.287549 0.158059 0)
(-0.304182 0.0843583 0)
(-0.240951 -0.0130592 0)
(-0.361007 0.069874 0)
(-0.367579 -0.108208 0)
(-0.249477 -0.145865 0)
(-0.420339 -0.217926 0)
(-0.48946 -0.282405 0)
(-0.501964 -0.295008 0)
(-0.419124 -0.19632 0)
(-0.376802 -0.136775 0)
(-0.215885 -0.0652843 0)
(-0.123158 -0.135728 0)
(0.0106549 -0.0179876 0)
(0.138632 0.0193314 0)
(0.13202 -0.169998 0)
(0.25512 -0.216702 0)
(0.298589 -0.131965 0)
(0.266402 -0.0318694 0)
(0.273998 0.11211 0)
(0.187029 0.278682 0)
(-0.0738244 0.258135 0)
(-0.205923 0.279435 0)
(-0.154807 0.227434 0)
(-0.180034 0.161444 0)
(-0.143611 -0.0142518 0)
(-0.194955 -0.100246 0)
(-0.249235 0.035809 0)
(-0.222676 -0.0539791 0)
(-0.518105 -0.134645 0)
(-0.626755 -0.241296 0)
(-0.501296 -0.224232 0)
(-0.490018 -0.17982 0)
(-0.565328 -0.166668 0)
(-0.593122 -0.222293 0)
(-0.524955 -0.239097 0)
(-0.455069 -0.0584245 0)
(-0.486148 0.193751 0)
(0.0738547 -0.320668 0)
(0.210731 -0.270713 0)
(0.225833 -0.109318 0)
(0.421294 0.0633423 0)
(0.300306 0.280184 0)
(0.0819323 0.309879 0)
(-0.115704 0.342273 0)
(-0.156069 0.308039 0)
(-0.169344 0.122444 0)
(-0.287544 0.0674454 0)
(-0.342325 0.0457414 0)
(-0.491297 0.124591 0)
(-0.58339 0.0549956 0)
(-0.594945 0.0167714 0)
(-0.676833 -0.122009 0)
(-0.733973 -0.113194 0)
(-0.684562 -0.09422 0)
(-0.6418 -0.185135 0)
(-0.832833 -0.294014 0)
(-0.895926 -0.276121 0)
(-0.583801 -0.20288 0)
(-0.532093 -0.0732232 0)
(-0.605758 0.0955909 0)
(0.0682801 -0.488086 0)
(0.146163 -0.477834 0)
(0.0175911 -0.188471 0)
(0.173481 0.215727 0)
(0.126459 0.209825 0)
(-0.026083 0.458561 0)
(-0.178508 0.48734 0)
(-0.198752 0.323884 0)
(-0.263545 0.184402 0)
(-0.487768 0.232163 0)
(-0.558252 0.312477 0)
(-0.698912 0.171362 0)
(-0.718253 0.0976612 0)
(-0.734956 -0.0496922 0)
(-0.771988 -0.112501 0)
(-0.749427 -0.145098 0)
(-0.784194 -0.170219 0)
(-0.793333 -0.326475 0)
(-0.759978 -0.355785 0)
(-0.786662 -0.14995 0)
(-0.721276 -0.0812156 0)
(-0.640224 -0.0988464 0)
(-0.593797 -0.0170342 0)
(-0.0420814 -0.544584 0)
(-0.0505568 -0.469891 0)
(0.00327439 -0.265556 0)
(-0.157319 0.173407 0)
(-0.162584 0.445691 0)
(-0.225229 0.570145 0)
(-0.223046 0.522281 0)
(-0.25127 0.396145 0)
(-0.392609 0.380943 0)
(-0.465911 0.391406 0)
(-0.623423 0.406022 0)
(-0.70839 0.307582 0)
(-0.648632 0.208378 0)
(-0.691769 0.0539165 0)
(-0.731047 -0.0164201 0)
(-0.692945 -0.142353 0)
(-0.889493 -0.253359 0)
(-0.977642 -0.262882 0)
(-0.64518 -0.285937 0)
(-0.594345 -0.259423 0)
(-0.612417 -0.190151 0)
(-0.602868 -0.155386 0)
(-0.521011 -0.0672265 0)
(-0.0688898 -0.343592 0)
(-0.253023 -0.198336 0)
(-0.348903 -0.218872 0)
(-0.366015 0.18383 0)
(-0.416715 0.337481 0)
(-0.368137 0.524221 0)
(-0.331617 0.529566 0)
(-0.342659 0.486796 0)
(-0.449336 0.430592 0)
(-0.464803 0.377238 0)
(-0.529929 0.325084 0)
(-0.508271 0.241096 0)
(-0.442421 0.105492 0)
(-0.526489 0.00172516 0)
(-0.442846 -0.157481 0)
(-0.361595 -0.281277 0)
(-0.40929 -0.443536 0)
(-0.596011 -0.243309 0)
(-0.583211 -0.198453 0)
(-0.539099 -0.24698 0)
(-0.657155 -0.322306 0)
(-0.7054 -0.309861 0)
(-0.343579 -0.190503 0)
(-0.196863 -0.240657 0)
(-0.298413 -0.12985 0)
(-0.447925 0.0780722 0)
(-0.563077 0.240437 0)
(-0.479433 0.436309 0)
(-0.416298 0.507381 0)
(-0.420717 0.532366 0)
(-0.408688 0.511414 0)
(-0.465857 0.505604 0)
(-0.383044 0.479255 0)
(-0.302703 0.403897 0)
(-0.294828 0.211773 0)
(-0.194199 0.108038 0)
(-0.182636 0.0686699 0)
(-0.121622 -0.0491681 0)
(-0.204522 -0.0808741 0)
(-0.217242 -0.351429 0)
(-0.23208 -0.356848 0)
(-0.17141 -0.404444 0)
(-0.161307 -0.439511 0)
(-0.182682 -0.420249 0)
(-0.339322 -0.203374 0)
(-0.288679 -0.139748 0)
(-0.17627 0.0732423 0)
(-0.118214 0.0542877 0)
(-0.359677 -0.0125235 0)
(-0.592822 0.275701 0)
(-0.550229 0.532362 0)
(-0.485413 0.476349 0)
(-0.451083 0.506203 0)
(-0.40951 0.575778 0)
(-0.381769 0.52776 0)
(-0.357722 0.601421 0)
(-0.347935 0.288825 0)
(-0.0962333 0.139384 0)
(-0.051871 -0.0284662 0)
(0.0742562 -0.0800487 0)
(0.136787 -0.140684 0)
(0.0777781 -0.172577 0)
(-0.0509199 -0.0553075 0)
(-0.155931 -0.0809522 0)
(-0.171838 -0.262186 0)
(-0.164728 -0.310722 0)
(-0.128506 -0.474137 0)
(-0.150513 -0.459997 0)
(-0.086848 -0.263986 0)
(-0.14454 0.131735 0)
(-0.265708 0.174307 0)
(-0.409228 0.107648 0)
(-0.530549 0.378463 0)
(-0.595446 0.472376 0)
(-0.676482 0.394198 0)
(-0.389206 0.513223 0)
(-0.342643 0.510429 0)
(-0.404413 0.460484 0)
(-0.312585 0.427342 0)
(-0.215482 0.10284 0)
(-0.00798188 0.0466811 0)
(0.0178014 -0.0823243 0)
(0.217026 -0.115989 0)
(0.251039 -0.0154479 0)
(0.243244 0.0106793 0)
(0.114445 -0.101248 0)
(0.0377071 -0.176999 0)
(-0.0341666 -0.0859479 0)
(-0.0712957 -0.121761 0)
(-0.0939992 -0.129319 0)
(-0.136033 -0.285324 0)
(-0.091227 -0.203352 0)
(-0.0154363 0.279782 0)
(-0.308013 0.363342 0)
(-0.441326 0.281132 0)
(-0.398855 0.326177 0)
(-0.555793 0.229199 0)
(-0.582908 0.391287 0)
(-0.36332 0.481209 0)
(-0.361312 0.313334 0)
(-0.334825 0.436939 0)
(-0.094933 0.402857 0)
(0.0235856 0.0471217 0)
(0.101272 -0.21875 0)
(0.333326 -0.281418 0)
(0.389874 -0.260502 0)
(0.400048 -0.150642 0)
(0.507455 0.0168181 0)
(0.563589 0.136889 0)
(0.31472 0.0179347 0)
(0.210689 -0.143792 0)
(0.146899 -0.245642 0)
(0.00166575 -0.386315 0)
(-0.0309988 -0.441202 0)
(0.0105686 -0.379196 0)
(0.022237 0.411989 0)
(-0.221962 0.364891 0)
(-0.336562 0.451804 0)
(-0.418251 0.385588 0)
(-0.488817 0.333905 0)
(-0.386283 0.548777 0)
(-0.195782 0.428266 0)
(-0.173132 0.354225 0)
(-0.203069 0.451101 0)
(0.164234 0.0852094 0)
(0.274132 -0.136421 0)
(0.396309 -0.269888 0)
(0.463135 -0.349615 0)
(0.547089 -0.281331 0)
(0.593799 -0.120759 0)
(0.596647 0.191136 0)
(0.585712 0.227437 0)
(0.490349 0.0799274 0)
(0.517186 -0.167957 0)
(0.214417 -0.274346 0)
(0.253201 -0.368649 0)
(0.320747 -0.275137 0)
(0.197462 -0.410011 0)
(0.0485493 0.477562 0)
(-0.164469 0.412036 0)
(-0.233044 0.429084 0)
(-0.257576 0.444418 0)
(-0.208446 0.502954 0)
(-0.250688 0.563929 0)
(-0.204747 0.280756 0)
(0.149475 0.282182 0)
(-0.0227115 0.195065 0)
(0.44783 -0.0525968 0)
(0.649792 -0.448101 0)
(0.566719 -0.463434 0)
(0.437325 -0.405787 0)
(0.505826 -0.393299 0)
(0.595806 -0.232674 0)
(0.667051 0.0130036 0)
(0.795962 0.175071 0)
(0.777416 0.333803 0)
(0.767971 0.248395 0)
(0.608398 0.031297 0)
(0.485351 0.0528295 0)
(0.490081 -0.0783165 0)
(0.351965 -0.10955 0)
(0.0587314 0.520111 0)
(-0.133908 0.457055 0)
(-0.137745 0.4555 0)
(-0.0801084 0.346487 0)
(-0.114861 0.380154 0)
(-0.0861554 0.365316 0)
(0.197514 0.182799 0)
(0.340072 -0.0215754 0)
(0.442807 -0.00712893 0)
(0.632182 -0.0703924 0)
(0.733339 -0.366194 0)
(0.739425 -0.449025 0)
(0.573811 -0.46575 0)
(0.438438 -0.401288 0)
(0.481164 -0.293905 0)
(0.551999 0.040297 0)
(0.951552 0.186837 0)
(0.874148 0.199974 0)
(0.658407 0.0830404 0)
(0.68545 0.0395973 0)
(0.657216 0.0607928 0)
(0.561715 -0.103585 0)
(0.480183 -0.0936442 0)
(0.0539022 0.551616 0)
(-0.101282 0.479158 0)
(-0.0887143 0.510037 0)
(0.000201395 0.415483 0)
(0.130092 0.374166 0)
(0.148906 0.224815 0)
(0.326374 -0.0780855 0)
(0.497947 -0.272749 0)
(0.538521 -0.22098 0)
(0.560836 -0.276445 0)
(0.642479 -0.292221 0)
(0.694002 -0.466938 0)
(0.502339 -0.4762 0)
(0.428402 -0.409217 0)
(0.468171 -0.340918 0)
(0.581375 0.0106434 0)
(0.772636 0.185105 0)
(0.739989 0.123905 0)
(0.710078 0.116369 0)
(0.71796 0.205057 0)
(0.550973 0.134913 0)
(0.572276 0.0814692 0)
(0.662285 0.0673169 0)
(0.0530022 0.570266 0)
(-0.0775517 0.501988 0)
(-0.0364874 0.481519 0)
(0.012334 0.583026 0)
(0.0611046 0.383285 0)
(0.0958958 0.100102 0)
(0.304828 -0.184083 0)
(0.520179 -0.406665 0)
(0.468857 -0.308537 0)
(0.460016 -0.357826 0)
(0.527745 -0.299799 0)
(0.67919 -0.395519 0)
(0.629266 -0.364454 0)
(0.408542 -0.342766 0)
(0.410035 -0.334435 0)
(0.442877 -0.221706 0)
(0.516368 0.0674866 0)
(0.503153 0.118931 0)
(0.659304 0.156911 0)
(0.710997 0.221292 0)
(0.515416 0.181429 0)
(0.543231 0.211886 0)
(0.545825 0.121448 0)
(0.0413516 0.582531 0)
(-0.0871892 0.51508 0)
(0.0292668 0.464779 0)
(-0.015251 0.367337 0)
(-0.101698 0.259872 0)
(0.163901 0.118637 0)
(0.102459 -0.378933 0)
(0.26777 -0.44605 0)
(0.246208 -0.388539 0)
(0.294521 -0.347773 0)
(0.500928 -0.222888 0)
(0.605168 -0.223417 0)
(0.586778 -0.280885 0)
(0.484168 -0.267286 0)
(0.448829 -0.295445 0)
(0.52457 -0.185929 0)
(0.496472 -0.0659727 0)
(0.395168 0.125823 0)
(0.539277 0.233894 0)
(0.563198 0.17751 0)
(0.469053 0.167393 0)
(0.468902 0.194126 0)
(0.455348 0.125103 0)
(0.0329794 0.615911 0)
(-0.0826088 0.523201 0)
(0.0087125 0.400224 0)
(-0.0348115 0.288739 0)
(-0.0975264 0.194678 0)
(0.0321754 -0.0690955 0)
(-0.0779546 -0.388086 0)
(0.263668 -0.566328 0)
(0.250258 -0.553852 0)
(0.271391 -0.354127 0)
(0.31582 -0.394824 0)
(0.305597 -0.440421 0)
(0.335323 -0.310114 0)
(0.317191 -0.204453 0)
(0.275572 -0.173244 0)
(0.297732 -0.187927 0)
(0.261445 -0.194329 0)
(0.270499 -0.0618819 0)
(0.446549 0.028698 0)
(0.453377 0.189561 0)
(0.416508 0.238758 0)
(0.44655 0.217464 0)
(0.431576 0.171139 0)
(0.0320185 0.639059 0)
(-0.10186 0.559021 0)
(0.0207243 0.458615 0)
(0.101295 0.362778 0)
(-0.121144 0.249113 0)
(-0.102311 0.0686489 0)
(-0.158502 -0.367173 0)
(-0.0558546 -0.484335 0)
(0.07892 -0.617212 0)
(0.132161 -0.584362 0)
(0.213109 -0.505889 0)
(0.290155 -0.536192 0)
(0.372473 -0.379536 0)
(0.391428 -0.176188 0)
(0.321783 -0.0874805 0)
(0.297327 -0.12586 0)
(0.287015 -0.122133 0)
(0.253271 -0.0702719 0)
(0.369388 0.0528016 0)
(0.488501 0.216823 0)
(0.32722 0.236135 0)
(0.306233 0.22336 0)
(0.377909 0.215584 0)
(0.0666634 0.67562 0)
(-0.0341332 0.58734 0)
(0.113862 0.62743 0)
(0.102648 0.471602 0)
(-0.0688653 0.292387 0)
(-0.0611207 0.076716 0)
(-0.0412515 -0.33803 0)
(-0.126192 -0.432472 0)
(-0.116455 -0.612729 0)
(0.057404 -0.567296 0)
(0.340056 -0.504312 0)
(0.331647 -0.450883 0)
(0.342863 -0.34934 0)
(0.362144 -0.161562 0)
(0.353279 -0.0775877 0)
(0.351401 -0.146655 0)
(0.357254 -0.137944 0)
(0.338937 -0.117401 0)
(0.369664 0.0680651 0)
(0.316378 0.121331 0)
(0.241753 0.271927 0)
(0.342595 0.322027 0)
(0.383882 0.313097 0)
(0.0766771 0.669778 0)
(-0.00712702 0.487217 0)
(0.162818 0.507152 0)
(0.162895 0.440395 0)
(0.0454758 0.339096 0)
(0.180714 0.119067 0)
(0.0345494 -0.370209 0)
(-0.0917429 -0.456061 0)
(-0.0486529 -0.661853 0)
(0.0625871 -0.659554 0)
(0.125603 -0.638669 0)
(0.258009 -0.533776 0)
(0.234056 -0.39699 0)
(0.303106 -0.158761 0)
(0.258672 -0.0694671 0)
(0.319956 -0.087129 0)
(0.477646 -0.132774 0)
(0.343327 -0.0939883 0)
(0.285489 0.0745441 0)
(0.156508 0.195626 0)
(0.181267 0.416656 0)
(0.206372 0.41452 0)
(0.213512 0.27489 0)
(0.00931797 0.665073 0)
(0.00946204 0.516767 0)
(0.270314 0.557665 0)
(0.325367 0.421556 0)
(0.244242 0.288716 0)
(0.169235 0.0904375 0)
(0.275145 -0.287108 0)
(0.166123 -0.500837 0)
(0.0480528 -0.678253 0)
(0.0369603 -0.722846 0)
(0.0804573 -0.718848 0)
(0.161169 -0.60299 0)
(0.132034 -0.410091 0)
(0.14814 -0.232502 0)
(0.143634 -0.187819 0)
(0.267141 -0.0745922 0)
(0.306719 -0.103179 0)
(0.306092 -0.0453959 0)
(0.223182 0.033829 0)
(0.163002 0.215139 0)
(0.196182 0.251013 0)
(0.131245 0.265714 0)
(0.196621 0.207634 0)
(0.0363937 0.634751 0)
(0.069633 0.598377 0)
(0.174009 0.504876 0)
(0.277034 0.433638 0)
(0.288964 0.218062 0)
(0.34391 0.0861636 0)
(0.330225 -0.122109 0)
(0.199995 -0.559593 0)
(0.320592 -0.685156 0)
(0.0954593 -0.663872 0)
(-0.00380334 -0.683031 0)
(-0.083972 -0.57863 0)
(-0.0857517 -0.368839 0)
(-0.0741488 -0.420477 0)
(0.0160655 -0.293008 0)
(0.118647 -0.19092 0)
(0.050862 -0.168683 0)
(-0.0047933 -0.00166231 0)
(-0.0528957 0.146583 0)
(-0.0489784 0.215042 0)
(0.0703709 0.161631 0)
(0.135893 0.136893 0)
(0.24492 0.275862 0)
(0.029133 0.547401 0)
(0.088867 0.414245 0)
(0.275234 0.213548 0)
(0.306804 0.321979 0)
(0.29408 0.198534 0)
(0.433867 0.0811775 0)
(0.368979 -0.0999191 0)
(0.380322 -0.36472 0)
(0.422781 -0.605496 0)
(0.0180989 -0.477366 0)
(-0.0694185 -0.583288 0)
(-0.167809 -0.526041 0)
(-0.166179 -0.420435 0)
(-0.142743 -0.423111 0)
(0.0509106 -0.216269 0)
(-0.0656194 -0.091855 0)
(-0.13467 -0.0513887 0)
(-0.175886 0.000135179 0)
(-0.130932 0.0775049 0)
(-0.050134 0.146861 0)
(0.0448867 0.194382 0)
(0.196079 0.158212 0)
(0.289884 0.232149 0)
(0.0718597 0.459995 0)
(0.102936 0.400369 0)
(0.139106 0.230154 0)
(0.210952 0.15533 0)
(0.314937 0.246274 0)
(0.545636 0.0357265 0)
(0.462965 -0.265035 0)
(0.313028 -0.295282 0)
(0.195856 -0.509261 0)
(0.166688 -0.432801 0)
(-0.0584627 -0.513287 0)
(-0.134768 -0.430466 0)
(-0.200791 -0.365512 0)
(-0.195306 -0.335802 0)
(-0.0105528 -0.20966 0)
(-0.162409 -0.110108 0)
(-0.142908 -0.0517964 0)
(-0.114547 -0.0203865 0)
(-0.074761 -0.00186398 0)
(-0.00535063 0.110224 0)
(0.0878124 0.0944586 0)
(0.117138 0.142504 0)
(0.181655 0.107662 0)
(0.0815038 0.369118 0)
(0.147098 0.379459 0)
(0.0876696 0.289863 0)
(0.175142 0.201301 0)
(0.286681 0.249889 0)
(0.300579 0.143392 0)
(0.342703 -0.155859 0)
(0.30178 -0.342929 0)
(0.299923 -0.329077 0)
(0.159553 -0.239275 0)
(-0.208762 -0.246508 0)
(-0.218764 -0.38889 0)
(-0.324583 -0.549648 0)
(-0.382482 -0.549021 0)
(-0.0868788 -0.430188 0)
(-0.167383 -0.0949656 0)
(-0.104056 -0.117776 0)
(-0.0736566 -0.069456 0)
(0.0326484 -0.0140315 0)
(0.0331391 0.0532051 0)
(0.0717447 0.0497819 0)
(0.138848 0.0829127 0)
(0.148647 0.123643 0)
(0.0765466 0.231207 0)
(0.156157 0.376706 0)
(0.0551335 0.216291 0)
(0.0665338 0.123322 0)
(0.131688 -0.274193 0)
(0.240867 -0.213494 0)
(0.30237 -0.270399 0)
(0.274499 -0.261464 0)
(0.0970546 0.00770247 0)
(-0.159437 0.108976 0)
(-0.219813 -0.162173 0)
(-0.378637 -0.491986 0)
(-0.420439 -0.596212 0)
(-0.424279 -0.634373 0)
(-0.164089 -0.527422 0)
(0.0567486 -0.0550705 0)
(-0.042492 -0.13609 0)
(0.0438761 -0.0704568 0)
(0.0336962 -0.0344168 0)
(0.027104 0.014442 0)
(0.0896468 0.0556854 0)
(0.155773 0.0095676 0)
(0.168117 0.0771857 0)
(0.0479831 0.240112 0)
(0.161664 0.422175 0)
(0.137916 0.256093 0)
(0.0328473 0.0686269 0)
(0.1661 -0.134657 0)
(0.193132 -0.170442 0)
(0.165305 -0.154982 0)
(-0.0968671 0.0375914 0)
(-0.368566 0.310678 0)
(-0.458731 0.0207115 0)
(-0.503789 -0.247598 0)
(-0.393294 -0.462843 0)
(-0.35379 -0.568168 0)
(-0.339311 -0.651316 0)
(-0.334635 -0.607764 0)
(-0.107825 -0.273873 0)
(-0.0612949 -0.146499 0)
(-0.00577937 -0.127628 0)
(0.0693056 -0.00796635 0)
(0.0836902 -0.00684446 0)
(0.0497413 0.044743 0)
(0.0934549 0.0405738 0)
(0.180901 0.0882759 0)
(-0.0352924 0.298199 0)
(0.0605062 0.453483 0)
(0.0544127 0.194121 0)
(0.0766315 0.0419384 0)
(0.128161 -0.255715 0)
(0.137978 -0.22343 0)
(0.133969 -0.0535991 0)
(-0.0438305 0.356142 0)
(-0.253015 0.440243 0)
(-0.385716 0.190218 0)
(-0.438994 -0.0896039 0)
(-0.295622 -0.42284 0)
(-0.382545 -0.606922 0)
(-0.225803 -0.685245 0)
(-0.33123 -0.799364 0)
(-0.193131 -0.559471 0)
(0.00638007 -0.270385 0)
(0.0127621 -0.176716 0)
(0.0361964 -0.0333998 0)
(0.0352459 -0.0450245 0)
(0.0903804 0.0424363 0)
(0.142462 0.0158696 0)
(0.230189 0.0166266 0)
(-0.0366119 0.209021 0)
(0.0494984 0.391059 0)
(0.0283632 0.101829 0)
(0.105194 -0.0702153 0)
(0.142382 -0.219454 0)
(0.179084 -0.195358 0)
(0.138526 0.020739 0)
(0.0104825 0.625099 0)
(-0.0783857 0.385313 0)
(-0.262896 0.149631 0)
(-0.273484 -0.182096 0)
(-0.194083 -0.489346 0)
(-0.184478 -0.710933 0)
(-0.0217826 -0.710604 0)
(-0.232051 -0.821445 0)
(-0.0462338 -0.535407 0)
(0.12729 -0.258543 0)
(0.0169808 -0.156609 0)
(0.0629664 -0.0226506 0)
(0.0827539 -0.0538637 0)
(0.0516622 0.0126797 0)
(0.127333 -0.0225409 0)
(0.193309 -0.0166628 0)
(-0.0491025 0.248947 0)
(0.0240428 0.330875 0)
(0.0365663 0.0505088 0)
(0.108064 -0.156233 0)
(0.127816 -0.213304 0)
(0.0542506 -0.154185 0)
(0.0641932 0.253213 0)
(-0.0868724 0.811495 0)
(0.00664352 0.521654 0)
(0.144608 0.267621 0)
(0.159631 0.120177 0)
(-0.0995844 -0.322797 0)
(0.0494435 -0.530591 0)
(0.168729 -0.602538 0)
(-0.0145617 -0.747875 0)
(-0.00113629 -0.535453 0)
(0.0278068 -0.374814 0)
(-0.0952389 -0.124553 0)
(0.00283736 -0.0352749 0)
(0.0550001 -0.0529944 0)
(0.0841138 -0.0343731 0)
(0.0905097 0.00354938 0)
(0.126933 -0.0508517 0)
(-0.0611606 0.274323 0)
(0.0163148 0.225849 0)
(0.0493255 -0.059598 0)
(0.0944206 -0.262652 0)
(0.125901 -0.298763 0)
(0.100102 -0.0898367 0)
(0.0955856 0.321881 0)
(0.0182694 0.766086 0)
(0.168795 0.638841 0)
(0.0979402 0.328416 0)
(0.2542 0.0946474 0)
(0.206876 -0.319904 0)
(0.334309 -0.411371 0)
(0.276847 -0.587586 0)
(0.096769 -0.686236 0)
(0.00802081 -0.557306 0)
(0.0816351 -0.380372 0)
(0.113801 -0.201573 0)
(0.0137821 -0.101173 0)
(0.0581804 -0.0796205 0)
(0.0508116 -0.0694487 0)
(0.0738429 -0.0522703 0)
(0.138084 -0.0816426 0)
(-0.0836511 0.338287 0)
(0.0246679 0.103139 0)
(0.0192235 -0.103613 0)
(0.107576 -0.308955 0)
(0.087527 -0.261434 0)
(-0.0275147 0.02344 0)
(0.000299363 0.338371 0)
(-0.0118409 0.574224 0)
(0.194896 0.470731 0)
(0.162385 0.0968154 0)
(0.353442 -0.0276263 0)
(0.329342 -0.381074 0)
(0.44059 -0.432549 0)
(0.342859 -0.629241 0)
(0.217534 -0.623273 0)
(0.053946 -0.488656 0)
(0.0583649 -0.235648 0)
(-0.00700596 -0.177382 0)
(0.00303353 -0.0570684 0)
(0.0497374 -0.0840829 0)
(0.0742917 -0.059251 0)
(0.0396878 -0.0936232 0)
(0.131638 -0.080926 0)
(-0.0739809 0.396678 0)
(0.0282583 0.0206683 0)
(-0.000624516 -0.118095 0)
(0.0762476 -0.311124 0)
(-8.5548e-05 -0.222642 0)
(-0.0670943 0.109815 0)
(-0.0746782 0.282132 0)
(0.0292477 0.383138 0)
(0.18082 0.225116 0)
(0.221165 0.0611747 0)
(0.209983 -0.0922071 0)
(0.374278 -0.312101 0)
(0.469454 -0.391456 0)
(0.368514 -0.543721 0)
(0.292529 -0.674043 0)
(0.0198329 -0.419132 0)
(-0.0021251 -0.240479 0)
(0.0254066 -0.125922 0)
(0.0157093 -0.168652 0)
(0.0332785 -0.080407 0)
(0.0163383 -0.128762 0)
(0.0472773 -0.127591 0)
(0.140578 -0.157004 0)
(-0.0907002 0.432809 0)
(0.0351438 -0.0478372 0)
(-0.0105036 -0.191316 0)
(0.062042 -0.249937 0)
(-0.104264 -0.0475635 0)
(-0.0926444 0.130444 0)
(-0.0980451 0.173864 0)
(-0.0495242 0.242626 0)
(0.173114 -0.0249915 0)
(0.311799 -0.0883276 0)
(0.277591 -0.318559 0)
(0.479073 -0.344514 0)
(0.50772 -0.463812 0)
(0.223642 -0.443795 0)
(0.105777 -0.632925 0)
(0.0788354 -0.385778 0)
(-0.00281716 -0.209669 0)
(-0.0530211 -0.0657506 0)
(0.0144728 -0.176616 0)
(0.0807369 -0.129748 0)
(0.033906 -0.177004 0)
(0.0419596 -0.15251 0)
(0.0911346 -0.187258 0)
(-0.0684136 0.508577 0)
(0.00212523 -0.112838 0)
(-0.0355445 -0.201693 0)
(-0.0690646 -0.109486 0)
(-0.177396 0.0737402 0)
(-0.149511 0.118627 0)
(-0.12387 0.0624932 0)
(-0.0243434 0.00916672 0)
(0.137231 -0.0232165 0)
(0.0836424 -0.2471 0)
(0.134352 -0.323528 0)
(0.51821 -0.340549 0)
(0.434405 -0.681054 0)
(0.196911 -0.584797 0)
(0.00713281 -0.379077 0)
(0.01204 -0.248949 0)
(-0.0608691 -0.160618 0)
(-0.0182463 -0.173897 0)
(-0.0320637 -0.151668 0)
(0.0205331 -0.189738 0)
(0.0327957 -0.187074 0)
(0.0548109 -0.176058 0)
(0.0340913 -0.154441 0)
(-0.088814 0.559354 0)
(-0.0435155 -0.102218 0)
(-0.16111 -0.0743072 0)
(-0.210909 0.0463144 0)
(-0.263514 0.0919056 0)
(-0.161278 0.0197455 0)
(-0.15268 -0.0722863 0)
(-0.0600395 -0.162111 0)
(-0.0168695 -0.155974 0)
(0.0610588 -0.284916 0)
(0.230458 -0.208635 0)
(0.0854439 -0.312101 0)
(-0.0437412 -0.619119 0)
(-0.114821 -0.377507 0)
(0.0212383 -0.335083 0)
(-0.081762 -0.330313 0)
(-0.141143 -0.221997 0)
(-0.0369384 -0.221638 0)
(0.0150782 -0.209603 0)
(0.0220077 -0.181175 0)
(0.0606002 -0.205204 0)
(0.0430682 -0.210017 0)
(0.0558677 -0.212738 0)
(-0.0508744 0.767123 0)