/*--------------------------------*- C++ -*----------------------------------*\
| =========                 |                                                 |
| \\      /  F ield         | foam-extend: Open Source CFD                    |
|  \\    /   O peration     | Version:     4.1                                |
|   \\  /    A nd           | Web:         http://www.foam-extend.org         |
|    \\/     M anipulation  |                                                 |
\*---------------------------------------------------------------------------*/
FoamFile
{
    version     2.0;
    format      ascii;
    class       volVectorField;
    location    "0.95";
    object      U_0;
}
// * * * * * * * * * * * * * * * * * * * * * * * * * * * * * * * * * * * * * //

dimensions      [0 1 -1 0 0 0 0];

internalField   nonuniform List<vector> 
2268
(
(0.00814483 0.000701225 0)
(0.0054501 0.00155858 0)
(0.0211969 -0.0107177 0)
(0.0219879 -0.0092401 0)
(0.0471614 0.00232644 0)
(0.0720321 -0.00212477 0)
(0.0698035 0.000327098 0)
(0.0886166 -0.00664597 0)
(0.101828 0.0109418 0)
(0.109244 0.000819228 0)
(0.196039 2.06827e-05 0)
(0.18758 -0.0262644 0)
(0.174727 -0.00494028 0)
(0.195589 -0.00606838 0)
(0.211517 -0.0081069 0)
(0.21075 0.00841696 0)
(0.216964 0.00729849 0)
(0.195967 0.000103176 0)
(0.196023 0.00753824 0)
(0.173143 -0.0531527 0)
(0.103978 0.0114113 0)
(0.0679099 -0.0165113 0)
(0.0416848 0.0256396 0)
(0.0315422 -0.00717127 0)
(0.0192031 -0.00156112 0)
(0.0283946 -0.00384188 0)
(0.0270929 0.000302661 0)
(0.0490053 -0.00125703 0)
(0.0732252 -0.00159648 0)
(0.0737239 -0.00537838 0)
(0.102382 -0.00141601 0)
(0.117022 -0.0225816 0)
(0.122253 -0.0455279 0)
(0.175315 -0.0215295 0)
(0.176583 -0.0479472 0)
(0.171251 -0.00550862 0)
(0.194362 -0.0274979 0)
(0.206415 0.00301607 0)
(0.207676 -0.0137171 0)
(0.204767 0.0058156 0)
(0.190772 0.0250924 0)
(0.182297 0.0864997 0)
(0.189923 0.0173535 0)
(0.128504 0.0312348 0)
(0.0377529 0.0485835 0)
(0.06357 0.024799 0)
(0.0227575 -0.0114347 0)
(0.0168565 -0.00842209 0)
(0.03441 -0.015183 0)
(0.0293427 -0.0034119 0)
(0.0492481 -0.0100567 0)
(0.0764548 -0.0165697 0)
(0.0767632 -0.00634077 0)
(0.0841468 -0.0154598 0)
(0.0942972 -0.0357096 0)
(0.125972 -0.0515676 0)
(0.180394 -0.0244619 0)
(0.158713 -0.079142 0)
(0.1376 -0.0145423 0)
(0.155928 -0.0300376 0)
(0.171801 -0.029858 0)
(0.173496 0.0151524 0)
(0.220165 0.00349516 0)
(0.199855 -0.00449858 0)
(0.167921 0.0835853 0)
(0.137838 0.0411363 0)
(0.128458 0.0690704 0)
(0.0691358 0.0563537 0)
(0.0462828 0.0818657 0)
(0.0117489 -0.0172949 0)
(0.0103704 -0.0153189 0)
(0.0362595 -0.00763531 0)
(0.0339742 -0.0160526 0)
(0.0496805 0.00467665 0)
(0.0769934 -0.032112 0)
(0.0758208 -0.0121338 0)
(0.0849962 -0.0371817 0)
(0.0908664 -0.0332747 0)
(0.113371 -0.0179395 0)
(0.119795 -0.0352755 0)
(0.133425 -0.0375783 0)
(0.127568 -0.0296384 0)
(0.131716 -0.0264388 0)
(0.184608 0.0202655 0)
(0.171622 0.0380085 0)
(0.129247 0.0112475 0)
(0.160405 -0.0373007 0)
(0.147229 0.042776 0)
(0.130011 0.0312613 0)
(0.121106 0.0837777 0)
(0.0528498 0.135465 0)
(0.0697663 0.0670142 0)
(0.00219857 -0.0215212 0)
(0.0125451 -0.00800302 0)
(0.0378045 -0.0283175 0)
(0.0428653 -0.025113 0)
(0.046058 -0.00814312 0)
(0.0640741 -0.0203408 0)
(0.0666451 -0.0272717 0)
(0.0692272 -0.0282356 0)
(0.0719461 -0.0530917 0)
(0.0906941 -0.0147829 0)
(0.110714 -0.0787981 0)
(0.109745 -0.104475 0)
(0.103648 -0.116998 0)
(0.160221 -0.0466128 0)
(0.187495 0.0185407 0)
(0.152395 -0.0149208 0)
(0.143222 -0.00297702 0)
(0.156422 0.0509823 0)
(0.107529 0.029558 0)
(0.109275 0.0470327 0)
(0.135023 0.0463483 0)
(0.0331333 0.125459 0)
(0.0104941 0.149976 0)
(0.00677729 -0.0249651 0)
(0.00688124 -0.0251936 0)
(0.0283639 -0.0200851 0)
(0.0420731 -0.016025 0)
(0.0581648 -0.0194251 0)
(0.0692659 -0.0160207 0)
(0.0519263 -0.0234672 0)
(0.0380709 -0.0188272 0)
(0.0581362 -0.0321665 0)
(0.0554481 -0.0401628 0)
(0.0584437 -0.0715749 0)
(0.0982227 -0.101704 0)
(0.144515 -0.0743487 0)
(0.171779 -0.0545577 0)
(0.199802 -0.0318517 0)
(0.186367 0.0366895 0)
(0.182795 0.0234707 0)
(0.181421 0.034665 0)
(0.123076 0.0499292 0)
(0.0766851 0.0646649 0)
(0.100446 0.0698228 0)
(0.0672138 0.0986222 0)
(0.0655812 0.206378 0)
(0.000684674 -0.0276288 0)
(0.00607399 -0.0276895 0)
(0.0257004 -0.0514886 0)
(0.0159152 -0.0597646 0)
(0.0139167 -0.0146002 0)
(0.0143867 -0.0141797 0)
(0.0147701 -0.0220306 0)
(0.0190166 -0.0408494 0)
(0.043812 -0.0404165 0)
(0.0522397 -0.0278976 0)
(0.0815588 -0.0261877 0)
(0.111813 0.00115601 0)
(0.0977973 -0.0465194 0)
(0.154119 -0.0738101 0)
(0.219052 -0.0380788 0)
(0.198484 0.0345352 0)
(0.179608 0.0718481 0)
(0.213669 0.0318151 0)
(0.173091 0.082 0)
(0.0863443 0.169911 0)
(0.12351 0.068962 0)
(0.0863503 0.114238 0)
(0.0854504 0.324163 0)
(0.00593134 -0.0274407 0)
(-0.0213386 -0.0122612 0)
(-0.021823 -0.0340268 0)
(-0.0070583 -0.0473199 0)
(0.00181106 -0.0247553 0)
(-0.00456708 -0.0215921 0)
(-0.00106071 -0.0244134 0)
(0.010866 -0.0358355 0)
(0.0613769 -0.0451049 0)
(0.0637117 -0.0700367 0)
(0.0827888 -0.0574039 0)
(0.100353 -0.104887 0)
(0.0638242 -0.131968 0)
(0.0857964 -0.0549515 0)
(0.15441 -0.0815586 0)
(0.248723 0.0100752 0)
(0.204827 0.102499 0)
(0.261921 0.0912243 0)
(0.264223 0.0335196 0)
(0.147694 0.169266 0)
(0.111916 0.0243051 0)
(0.16606 0.0791915 0)
(0.139658 0.317535 0)
(-0.864743 0.173678 0)
(-0.928506 0.123156 0)
(-1.04077 -0.0171547 0)
(-1.08338 -0.0265916 0)
(-0.928529 -0.0896607 0)
(-0.763374 -0.0351214 0)
(-0.650653 -0.0325174 0)
(-0.606458 -0.0158729 0)
(-0.520972 -0.0390175 0)
(-0.487202 -0.0252139 0)
(-0.470266 -0.0183016 0)
(-0.42358 -0.0163627 0)
(-0.372969 -0.0081842 0)
(-0.337549 -0.000538464 0)
(-0.294548 -0.0360851 0)
(-0.289633 -0.0250857 0)
(-0.21805 -0.00449969 0)
(-0.187648 -0.0552034 0)
(-0.0390605 -0.0170738 0)
(-0.786479 0.248306 0)
(-0.747389 0.259802 0)
(-0.695041 0.0821094 0)
(-0.759762 0.0253982 0)
(-0.617043 -0.145865 0)
(-0.379016 -0.0869737 0)
(-0.321481 -0.0294658 0)
(-0.305005 -0.0358442 0)
(-0.249908 -0.0180194 0)
(-0.258764 0.010072 0)
(-0.246137 -0.0092368 0)
(-0.2199 -0.0216337 0)
(-0.17761 -0.0336507 0)
(-0.234467 -0.0657115 0)
(-0.111389 -0.115355 0)
(-0.249588 -0.00417351 0)
(-0.191785 0.061452 0)
(-0.14418 -0.0861042 0)
(-0.0167934 -0.0819397 0)
(-0.676292 0.456283 0)
(-0.52388 0.416143 0)
(-0.455901 0.0602341 0)
(-0.585268 -0.0263905 0)
(-0.492408 -0.139334 0)
(-0.118315 -0.185558 0)
(-0.0496771 -0.0766516 0)
(-0.090527 -0.0383363 0)
(-0.00923305 -0.0582425 0)
(-0.0339544 -0.0217975 0)
(-0.0527808 -0.0407359 0)
(-0.0881947 -0.118458 0)
(-0.00767207 -0.0924444 0)
(-0.129476 -0.0245996 0)
(-0.0397093 -0.151044 0)
(-0.130806 0.00916653 0)
(-0.107819 0.00676637 0)
(-0.0787936 -0.053671 0)
(0.0638604 -0.0892658 0)
(-0.60071 0.523606 0)
(-0.335405 0.395557 0)
(-0.357073 0.0192233 0)
(-0.42609 -0.153059 0)
(-0.288862 -0.309338 0)
(0.076763 -0.288019 0)
(0.100557 -0.00916093 0)
(0.0279108 -0.0566436 0)
(0.192269 -0.0657836 0)
(0.114281 0.0388858 0)
(0.0813738 0.0133788 0)
(0.0530782 -0.051239 0)
(0.0573739 -0.12891 0)
(0.0644015 -0.033622 0)
(0.0644501 -0.0694728 0)
(0.118194 -0.0362979 0)
(0.125412 0.0433312 0)
(0.065259 -0.0518503 0)
(0.101029 -0.0872913 0)
(-0.475249 0.615041 0)
(-0.201575 0.531513 0)
(-0.28853 0.068892 0)
(-0.325778 -0.247496 0)
(-0.1394 -0.609617 0)
(0.215296 -0.372943 0)
(0.30946 -0.104337 0)
(0.141277 -0.013475 0)
(0.305307 -0.055225 0)
(0.341193 -0.0428411 0)
(0.259209 -0.0166402 0)
(0.141764 -0.0182763 0)
(0.176912 -0.062248 0)
(0.13523 -0.052506 0)
(0.110252 -0.0568701 0)
(0.154395 -0.00932116 0)
(0.197168 -0.00362887 0)
(0.175455 0.000760804 0)
(0.154455 -0.0574137 0)
(-0.39434 0.669214 0)
(-0.066966 0.484277 0)
(-0.242057 0.0648052 0)
(-0.258639 -0.295528 0)
(0.124761 -0.534169 0)
(0.30312 -0.362565 0)
(0.450932 -0.193444 0)
(0.434956 -0.0722114 0)
(0.453356 -0.0579488 0)
(0.480427 -0.045191 0)
(0.385227 0.0819671 0)
(0.257621 0.0599337 0)
(0.229519 -0.0215107 0)
(0.171433 -0.0774699 0)
(0.180085 -0.0936278 0)
(0.152815 0.0106107 0)
(0.197417 -0.0412617 0)
(0.196911 0.0690645 0)
(0.138124 -0.0201452 0)
(-0.305718 0.701976 0)
(0.0615412 0.581108 0)
(-0.158315 0.133726 0)
(0.00894132 -0.487323 0)
(0.207386 -0.465998 0)
(0.341899 -0.377323 0)
(0.481072 -0.190639 0)
(0.465518 -0.0670495 0)
(0.475405 -0.0582627 0)
(0.530323 -0.0452676 0)
(0.506234 0.0725076 0)
(0.349398 0.101339 0)
(0.271645 0.0547426 0)
(0.218582 -0.0179418 0)
(0.237321 -0.115047 0)
(0.177346 -0.0212855 0)
(0.212251 -0.0697267 0)
(0.208695 0.0648432 0)
(0.137261 0.0204052 0)
(-0.243308 0.739394 0)
(0.223493 0.505493 0)
(0.019834 0.0599575 0)
(0.137373 -0.528046 0)
(0.319054 -0.544564 0)
(0.39654 -0.434001 0)
(0.486483 -0.181283 0)
(0.45316 -0.179876 0)
(0.419844 -0.105865 0)
(0.505149 -0.00528405 0)
(0.495966 0.151009 0)
(0.324469 0.100335 0)
(0.303596 0.0584288 0)
(0.250665 0.0234506 0)
(0.271932 -0.104703 0)
(0.205821 -0.0507263 0)
(0.262549 -0.0138789 0)
(0.257905 0.104232 0)
(0.181958 0.113723 0)
(-0.00556291 -0.0203507 0)
(-0.00304681 -0.020646 0)
(-0.0203761 -0.00538374 0)
(-0.0194776 -0.0150391 0)
(-0.0131237 -0.0208398 0)
(-0.00748953 -0.0382816 0)
(0.00710823 -0.0339991 0)
(-0.00107472 -0.0933036 0)
(0.00308444 -0.0808211 0)
(0.0224315 -0.148455 0)
(0.0187114 -0.0757873 0)
(0.00736469 -0.178701 0)
(0.0204174 -0.168822 0)
(0.0289702 -0.187379 0)
(0.0304704 -0.0247785 0)
(0.133472 -0.103709 0)
(0.215821 0.029219 0)
(0.248236 0.137 0)
(0.303008 0.104385 0)
(0.234864 0.0528786 0)
(0.23251 0.0742892 0)
(0.301334 0.0846665 0)
(0.246196 0.154847 0)
(-0.00295837 -0.0287223 0)
(0.00375172 -0.0184263 0)
(0.024031 -0.0303618 0)
(0.0393376 -0.0359841 0)
(0.0157422 -0.0161332 0)
(0.0131922 -0.0118673 0)
(-0.0448215 -0.0267388 0)
(-0.0396302 -0.0970883 0)
(-0.101832 -0.0542208 0)
(-0.180604 -0.040389 0)
(-0.231747 0.031404 0)
(-0.304429 -0.127924 0)
(-0.242824 -0.122089 0)
(-0.215232 -0.17477 0)
(-0.140585 -0.218579 0)
(-0.061636 -0.165679 0)
(-0.0697408 -0.0666276 0)
(0.239746 0.091902 0)
(0.237804 0.203616 0)
(0.277111 0.117291 0)
(0.326799 0.145721 0)
(0.284153 0.0942539 0)
(0.318638 0.139611 0)
(0.0116908 -0.0618786 0)
(0.0392774 -0.0302057 0)
(0.0606828 -0.0175459 0)
(0.067263 -0.033548 0)
(0.0550538 0.00476625 0)
(0.0186658 0.0111803 0)
(-0.101202 0.0184625 0)
(-0.121389 0.0444894 0)
(-0.172544 0.0807303 0)
(-0.204252 0.080766 0)
(-0.40925 0.0238366 0)
(-0.417797 0.00688689 0)
(-0.328765 -0.118104 0)
(-0.368605 -0.141226 0)
(-0.3818 -0.16921 0)
(-0.360349 -0.166278 0)
(-0.345349 -0.220121 0)
(-0.139524 -0.0637005 0)
(-0.0774273 0.00463073 0)
(0.112118 0.0906864 0)
(0.114622 -0.114853 0)
(0.243687 0.0766699 0)
(0.553922 0.155937 0)
(0.0669508 -0.124496 0)
(0.123671 -0.0735944 0)
(0.119348 -0.0480124 0)
(0.144459 0.0271398 0)
(0.111741 0.0465087 0)
(0.0137418 0.151249 0)
(-0.0670928 0.130997 0)
(-0.235478 0.203424 0)
(-0.288853 0.157726 0)
(-0.306195 0.0839998 0)
(-0.243614 -0.0136625 0)
(-0.363893 0.0680778 0)
(-0.37026 -0.109627 0)
(-0.251029 -0.146772 0)
(-0.421991 -0.21809 0)
(-0.490731 -0.282391 0)
(-0.503046 -0.294844 0)
(-0.420731 -0.196012 0)
(-0.379595 -0.137251 0)
(-0.219648 -0.0659504 0)
(-0.126779 -0.136558 0)
(0.00345441 -0.0195555 0)
(0.131469 0.0195118 0)
(0.130964 -0.167255 0)
(0.254327 -0.214968 0)
(0.29757 -0.130853 0)
(0.266327 -0.0316997 0)
(0.276004 0.112695 0)
(0.1886 0.280793 0)
(-0.0734091 0.259235 0)
(-0.207067 0.280164 0)
(-0.156323 0.228858 0)
(-0.181925 0.162146 0)
(-0.144904 -0.0147578 0)
(-0.196338 -0.102095 0)
(-0.24999 0.0333951 0)
(-0.223714 -0.0558691 0)
(-0.518996 -0.135496 0)
(-0.628171 -0.241873 0)
(-0.501377 -0.223567 0)
(-0.490273 -0.178145 0)
(-0.566696 -0.164254 0)
(-0.595555 -0.220558 0)
(-0.530702 -0.238328 0)
(-0.46044 -0.0584402 0)
(-0.493095 0.1963 0)
(0.0741259 -0.318041 0)
(0.210516 -0.269741 0)
(0.227367 -0.109448 0)
(0.423028 0.0618388 0)
(0.303274 0.281706 0)
(0.0839207 0.312439 0)
(-0.115636 0.345346 0)
(-0.15663 0.310364 0)
(-0.171585 0.123818 0)
(-0.288973 0.0667542 0)
(-0.342209 0.0431606 0)
(-0.491826 0.122105 0)
(-0.584246 0.0531354 0)
(-0.59771 0.0161499 0)
(-0.679465 -0.122812 0)
(-0.736675 -0.113653 0)
(-0.687701 -0.0941363 0)
(-0.644587 -0.182678 0)
(-0.836375 -0.292789 0)
(-0.902033 -0.273498 0)
(-0.586874 -0.199711 0)
(-0.532195 -0.0712597 0)
(-0.608476 0.101706 0)
(0.0699445 -0.484767 0)
(0.145089 -0.476621 0)
(0.0181788 -0.189722 0)
(0.171005 0.214976 0)
(0.126102 0.208995 0)
(-0.0268278 0.461781 0)
(-0.17782 0.48984 0)
(-0.199182 0.326613 0)
(-0.264325 0.185307 0)
(-0.488172 0.230628 0)
(-0.559337 0.311883 0)
(-0.701344 0.171012 0)
(-0.722574 0.0979136 0)
(-0.738232 -0.0510365 0)
(-0.775723 -0.114077 0)
(-0.753542 -0.146311 0)
(-0.788316 -0.168893 0)
(-0.798199 -0.325545 0)
(-0.76563 -0.355331 0)
(-0.790205 -0.148326 0)
(-0.725774 -0.0789808 0)
(-0.645097 -0.0967631 0)
(-0.597301 -0.012179 0)
(-0.0404877 -0.541946 0)
(-0.0522242 -0.46854 0)
(-0.00334596 -0.26242 0)
(-0.157361 0.170873 0)
(-0.167059 0.445856 0)
(-0.226929 0.571592 0)
(-0.223606 0.525087 0)
(-0.252554 0.399685 0)
(-0.393893 0.381807 0)
(-0.46828 0.391574 0)
(-0.626466 0.406652 0)
(-0.711766 0.30772 0)
(-0.653015 0.208259 0)
(-0.694553 0.0530533 0)
(-0.735618 -0.0168008 0)
(-0.697901 -0.140961 0)
(-0.897292 -0.252058 0)
(-0.987371 -0.26107 0)
(-0.652661 -0.284032 0)
(-0.600474 -0.257594 0)
(-0.617592 -0.186987 0)
(-0.60686 -0.152942 0)
(-0.526834 -0.0640991 0)
(-0.0682681 -0.341476 0)
(-0.255424 -0.19428 0)
(-0.352154 -0.215761 0)
(-0.370253 0.183173 0)
(-0.420603 0.337078 0)
(-0.372195 0.524845 0)
(-0.335532 0.531526 0)
(-0.344822 0.490062 0)
(-0.452569 0.432093 0)
(-0.468269 0.377497 0)
(-0.5335 0.326269 0)
(-0.512819 0.242172 0)
(-0.447643 0.104057 0)
(-0.531353 0.000637258 0)
(-0.452076 -0.155167 0)
(-0.370064 -0.281403 0)
(-0.418401 -0.444028 0)
(-0.605507 -0.24232 0)
(-0.592136 -0.195104 0)
(-0.546881 -0.2447 0)
(-0.66621 -0.320126 0)
(-0.717263 -0.306805 0)
(-0.349669 -0.187866 0)
(-0.196499 -0.235642 0)
(-0.29975 -0.125121 0)
(-0.449841 0.0798172 0)
(-0.567236 0.23903 0)
(-0.484246 0.4362 0)
(-0.421703 0.508416 0)
(-0.42636 0.534127 0)
(-0.413352 0.514537 0)
(-0.470287 0.507626 0)
(-0.38709 0.479573 0)
(-0.308025 0.40564 0)
(-0.300159 0.213575 0)
(-0.200517 0.10911 0)
(-0.189667 0.0707443 0)
(-0.130107 -0.0466766 0)
(-0.210761 -0.0817598 0)
(-0.22403 -0.350157 0)
(-0.238451 -0.356456 0)
(-0.177434 -0.402167 0)
(-0.166226 -0.436637 0)
(-0.187515 -0.422515 0)
(-0.344141 -0.200961 0)
(-0.293281 -0.135495 0)
(-0.179384 0.0820482 0)
(-0.12212 0.0649527 0)
(-0.361353 -0.00745493 0)
(-0.598527 0.277315 0)
(-0.555756 0.534166 0)
(-0.490868 0.477615 0)
(-0.456293 0.507663 0)
(-0.414712 0.577754 0)
(-0.388237 0.529983 0)
(-0.363517 0.603157 0)
(-0.352387 0.290962 0)
(-0.102538 0.141486 0)
(-0.0554226 -0.0272332 0)
(0.0674445 -0.0787176 0)
(0.128497 -0.139729 0)
(0.0671775 -0.17296 0)
(-0.0574513 -0.0570118 0)
(-0.161767 -0.0815565 0)
(-0.176438 -0.261897 0)
(-0.167787 -0.310647 0)
(-0.131657 -0.472955 0)
(-0.154651 -0.456305 0)
(-0.0894824 -0.264384 0)
(-0.144266 0.138663 0)
(-0.266518 0.181701 0)
(-0.410812 0.110432 0)
(-0.534172 0.380769 0)
(-0.600263 0.474481 0)
(-0.68241 0.396167 0)
(-0.394919 0.514646 0)
(-0.348033 0.512234 0)
(-0.410574 0.462717 0)
(-0.318019 0.430078 0)
(-0.219846 0.106597 0)
(-0.0119592 0.0506925 0)
(0.01131 -0.0813886 0)
(0.210213 -0.112025 0)
(0.24221 -0.0134211 0)
(0.231271 0.0150108 0)
(0.101212 -0.10468 0)
(0.026101 -0.176514 0)
(-0.0437537 -0.0891394 0)
(-0.077363 -0.122592 0)
(-0.0983403 -0.130082 0)
(-0.139005 -0.283281 0)
(-0.0938613 -0.202303 0)
(-0.0157484 0.287209 0)
(-0.306958 0.369288 0)
(-0.440537 0.285875 0)
(-0.399259 0.32956 0)
(-0.558081 0.231638 0)
(-0.586874 0.393283 0)
(-0.367754 0.484316 0)
(-0.366372 0.315188 0)
(-0.340443 0.438475 0)
(-0.0972692 0.404677 0)
(0.0210425 0.0499972 0)
(0.0980875 -0.2144 0)
(0.333062 -0.277423 0)
(0.382385 -0.257022 0)
(0.391881 -0.145778 0)
(0.494445 0.0234147 0)
(0.540323 0.135216 0)
(0.293281 0.0126539 0)
(0.195287 -0.150931 0)
(0.136731 -0.2521 0)
(-0.00600553 -0.387494 0)
(-0.0372786 -0.440369 0)
(0.0057924 -0.380178 0)
(0.02231 0.418985 0)
(-0.22096 0.371655 0)
(-0.336393 0.456764 0)
(-0.41835 0.390244 0)
(-0.490696 0.337385 0)
(-0.388686 0.553333 0)
(-0.197215 0.431236 0)
(-0.173572 0.355173 0)
(-0.206855 0.454295 0)
(0.164917 0.0845287 0)
(0.272974 -0.137357 0)
(0.397124 -0.26738 0)
(0.464135 -0.342538 0)
(0.548447 -0.27126 0)
(0.588625 -0.110036 0)
(0.584361 0.191892 0)
(0.570886 0.221683 0)
(0.470567 0.0618369 0)
(0.494585 -0.176287 0)
(0.204483 -0.282634 0)
(0.249334 -0.371517 0)
(0.310805 -0.277472 0)
(0.191131 -0.411766 0)
(0.0485884 0.483724 0)
(-0.164277 0.418407 0)
(-0.232579 0.434303 0)
(-0.256761 0.44993 0)
(-0.207689 0.507421 0)
(-0.250205 0.569229 0)
(-0.203863 0.281324 0)
(0.153398 0.284968 0)
(-0.022817 0.19751 0)
(0.448213 -0.0529987 0)
(0.646297 -0.446006 0)
(0.562915 -0.460823 0)
(0.435432 -0.401314 0)
(0.506978 -0.385588 0)
(0.596038 -0.2154 0)
(0.664691 0.0270914 0)
(0.794269 0.18289 0)
(0.769825 0.329298 0)
(0.757116 0.240776 0)
(0.59348 0.0197252 0)
(0.475845 0.0505725 0)
(0.477825 -0.0816417 0)
(0.344885 -0.11029 0)
(0.0586018 0.526553 0)
(-0.13444 0.46338 0)
(-0.138274 0.459819 0)
(-0.0796992 0.350475 0)
(-0.113126 0.383585 0)
(-0.0833212 0.367411 0)
(0.201649 0.184939 0)
(0.34376 -0.0205427 0)
(0.444727 -0.00383588 0)
(0.632729 -0.0684611 0)
(0.72995 -0.362875 0)
(0.735423 -0.446137 0)
(0.570456 -0.462912 0)
(0.435891 -0.394485 0)
(0.481559 -0.281017 0)
(0.55338 0.0553357 0)
(0.943148 0.188606 0)
(0.870863 0.193723 0)
(0.647773 0.0737033 0)
(0.683629 0.0307984 0)
(0.655309 0.0514866 0)
(0.548218 -0.108908 0)
(0.473817 -0.0993864 0)
(0.053818 0.558644 0)
(-0.102411 0.485508 0)
(-0.0898217 0.51493 0)
(-0.000104678 0.419644 0)
(0.131406 0.377359 0)
(0.149776 0.225634 0)
(0.326133 -0.076809 0)
(0.496076 -0.268829 0)
(0.535854 -0.214156 0)
(0.558414 -0.268858 0)
(0.639224 -0.286944 0)
(0.689179 -0.463786 0)
(0.495981 -0.474356 0)
(0.423217 -0.405752 0)
(0.463934 -0.33257 0)
(0.585255 0.0273786 0)
(0.772202 0.193494 0)
(0.738573 0.125997 0)
(0.705571 0.112748 0)
(0.71079 0.203186 0)
(0.544338 0.123641 0)
(0.566277 0.0763239 0)
(0.65466 0.0583039 0)
(0.0526228 0.577554 0)
(-0.0786984 0.508163 0)
(-0.0378329 0.486718 0)
(0.0100679 0.587957 0)
(0.060719 0.386263 0)
(0.0956169 0.102857 0)
(0.302408 -0.180021 0)
(0.517903 -0.40042 0)
(0.466841 -0.301407 0)
(0.457078 -0.34923 0)
(0.526551 -0.293056 0)
(0.676341 -0.388873 0)
(0.623493 -0.35798 0)
(0.3991 -0.339392 0)
(0.404197 -0.329712 0)
(0.441339 -0.210852 0)
(0.517632 0.0776501 0)
(0.500382 0.119171 0)
(0.657055 0.151553 0)
(0.706762 0.214753 0)
(0.512237 0.173542 0)
(0.538096 0.203416 0)
(0.539099 0.113936 0)
(0.040657 0.590505 0)
(-0.0883559 0.521873 0)
(0.0284618 0.470882 0)
(-0.0178824 0.371579 0)
(-0.10552 0.262521 0)
(0.160342 0.121292 0)
(0.100984 -0.376297 0)
(0.263818 -0.440643 0)
(0.245193 -0.384587 0)
(0.294692 -0.344962 0)
(0.502265 -0.217498 0)
(0.607971 -0.216704 0)
(0.588522 -0.272301 0)
(0.479097 -0.262623 0)
(0.444818 -0.290542 0)
(0.524159 -0.176939 0)
(0.502827 -0.0568382 0)
(0.400111 0.128596 0)
(0.538791 0.23208 0)
(0.56157 0.173052 0)
(0.466857 0.160058 0)
(0.465582 0.185404 0)
(0.453019 0.118316 0)
(0.0329198 0.624418 0)
(-0.0824332 0.530473 0)
(0.00876839 0.405627 0)
(-0.0351079 0.29393 0)
(-0.0993028 0.197086 0)
(0.0319775 -0.0665572 0)
(-0.0800542 -0.383798 0)
(0.261645 -0.561768 0)
(0.249374 -0.54795 0)
(0.270298 -0.349993 0)
(0.31512 -0.393831 0)
(0.309685 -0.43344 0)
(0.338947 -0.299045 0)
(0.314415 -0.198619 0)
(0.272987 -0.170535 0)
(0.295483 -0.184736 0)
(0.261803 -0.18954 0)
(0.273693 -0.0562039 0)
(0.447326 0.0326004 0)
(0.450902 0.187941 0)
(0.414721 0.2342 0)
(0.445398 0.209644 0)
(0.428627 0.166246 0)
(0.0338122 0.647952 0)
(-0.100616 0.567567 0)
(0.0216242 0.464309 0)
(0.102831 0.36936 0)
(-0.122268 0.251229 0)
(-0.102876 0.0703146 0)
(-0.15889 -0.365804 0)
(-0.0535204 -0.484093 0)
(0.0819983 -0.614817 0)
(0.136151 -0.581193 0)
(0.210766 -0.507939 0)
(0.282442 -0.531851 0)
(0.374315 -0.369988 0)
(0.392271 -0.167454 0)
(0.319549 -0.0838145 0)
(0.295026 -0.123152 0)
(0.287561 -0.11882 0)
(0.254098 -0.0666638 0)
(0.372152 0.0554658 0)
(0.489085 0.215124 0)
(0.324484 0.232727 0)
(0.306101 0.217701 0)
(0.379596 0.206844 0)
(0.0682433 0.686554 0)
(-0.0326316 0.596899 0)
(0.116832 0.635107 0)
(0.106257 0.47913 0)
(-0.06753 0.296421 0)
(-0.0592973 0.0790824 0)
(-0.0408331 -0.338038 0)
(-0.124299 -0.431589 0)
(-0.116979 -0.607808 0)
(0.0555971 -0.558732 0)
(0.339541 -0.502703 0)
(0.329546 -0.44801 0)
(0.345562 -0.33997 0)
(0.364069 -0.151556 0)
(0.354684 -0.0727042 0)
(0.351748 -0.143995 0)
(0.356967 -0.135133 0)
(0.33871 -0.114533 0)
(0.369999 0.0719231 0)
(0.317249 0.12183 0)
(0.242868 0.266009 0)
(0.342112 0.315685 0)
(0.381623 0.301994 0)
(0.0766054 0.680041 0)
(-0.00680962 0.496557 0)
(0.164813 0.514793 0)
(0.165985 0.446524 0)
(0.04638 0.344095 0)
(0.181333 0.121327 0)
(0.0350147 -0.368586 0)
(-0.0919291 -0.453802 0)
(-0.0505544 -0.657552 0)
(0.0650065 -0.657897 0)
(0.131012 -0.632899 0)
(0.259504 -0.527512 0)
(0.236358 -0.386931 0)
(0.304249 -0.149256 0)
(0.260573 -0.0623422 0)
(0.32375 -0.0813875 0)
(0.482336 -0.129725 0)
(0.344182 -0.0913645 0)
(0.285709 0.0768703 0)
(0.158892 0.194719 0)
(0.184141 0.405712 0)
(0.207079 0.404202 0)
(0.217142 0.265255 0)
(0.00838033 0.672575 0)
(0.00932168 0.525119 0)
(0.272207 0.565574 0)
(0.328197 0.427156 0)
(0.243968 0.295061 0)
(0.17018 0.0938569 0)
(0.272359 -0.286432 0)
(0.16538 -0.497427 0)
(0.0454293 -0.675598 0)
(0.0399521 -0.723378 0)
(0.0844224 -0.72067 0)
(0.169938 -0.596438 0)
(0.135069 -0.402334 0)
(0.15386 -0.220637 0)
(0.151189 -0.176489 0)
(0.272387 -0.0662517 0)
(0.309473 -0.0969603 0)
(0.307998 -0.0410282 0)
(0.224443 0.0370158 0)
(0.166386 0.213539 0)
(0.199221 0.243477 0)
(0.136026 0.258275 0)
(0.201181 0.204355 0)
(0.0359696 0.641304 0)
(0.0701939 0.606011 0)
(0.175791 0.513033 0)
(0.278739 0.44044 0)
(0.289226 0.223857 0)
(0.344519 0.0905581 0)
(0.328319 -0.120205 0)
(0.198582 -0.556771 0)
(0.320175 -0.684522 0)
(0.0959689 -0.666589 0)
(-0.00357205 -0.686625 0)
(-0.0799372 -0.572914 0)
(-0.0826861 -0.354344 0)
(-0.0697711 -0.404175 0)
(0.0183564 -0.285171 0)
(0.121532 -0.185687 0)
(0.0568142 -0.165038 0)
(0.000225912 0.00161398 0)
(-0.0491063 0.146079 0)
(-0.0437677 0.212955 0)
(0.0775109 0.162241 0)
(0.142439 0.134777 0)
(0.249444 0.271234 0)
(0.0296215 0.553264 0)
(0.0901168 0.421483 0)
(0.27579 0.222079 0)
(0.307326 0.328696 0)
(0.294362 0.205548 0)
(0.435394 0.0864353 0)
(0.37048 -0.0964505 0)
(0.381314 -0.362478 0)
(0.424239 -0.604546 0)
(0.0204189 -0.478478 0)
(-0.0762095 -0.59013 0)
(-0.171692 -0.520407 0)
(-0.165965 -0.409365 0)
(-0.142263 -0.415058 0)
(0.0495101 -0.212187 0)
(-0.0617622 -0.0877409 0)
(-0.130459 -0.0467006 0)
(-0.169372 0.00349926 0)
(-0.123098 0.0799963 0)
(-0.0375162 0.144112 0)
(0.0525863 0.191101 0)
(0.19744 0.15383 0)
(0.291387 0.226113 0)
(0.07169 0.464247 0)
(0.103559 0.408466 0)
(0.13735 0.238387 0)
(0.210603 0.164671 0)
(0.315917 0.256936 0)
(0.546604 0.0416604 0)
(0.465959 -0.26225 0)
(0.313567 -0.29267 0)
(0.196823 -0.506605 0)
(0.167338 -0.432132 0)
(-0.0619731 -0.51486 0)
(-0.138656 -0.424731 0)
(-0.203191 -0.358518 0)
(-0.196013 -0.328079 0)
(-0.0100384 -0.202735 0)
(-0.158447 -0.103972 0)
(-0.138233 -0.0451317 0)
(-0.107574 -0.015414 0)
(-0.0687666 0.000269837 0)
(0.000964277 0.109373 0)
(0.0928459 0.0869497 0)
(0.120368 0.136748 0)
(0.184284 0.104852 0)
(0.0810622 0.374366 0)
(0.146514 0.390392 0)
(0.0868152 0.298203 0)
(0.174973 0.212294 0)
(0.287976 0.258678 0)
(0.300674 0.151564 0)
(0.341822 -0.153969 0)
(0.300746 -0.339136 0)
(0.29864 -0.325688 0)
(0.154569 -0.238118 0)
(-0.20992 -0.248142 0)
(-0.219966 -0.383109 0)
(-0.323985 -0.541748 0)
(-0.381079 -0.541015 0)
(-0.0850431 -0.418914 0)
(-0.166292 -0.0918059 0)
(-0.101072 -0.111075 0)
(-0.0713688 -0.0673745 0)
(0.0367875 -0.013978 0)
(0.0366911 0.0522968 0)
(0.0739182 0.0463233 0)
(0.144545 0.0795971 0)
(0.152289 0.119935 0)
(0.0750812 0.236601 0)
(0.15496 0.386891 0)
(0.0542366 0.224043 0)
(0.0659445 0.130524 0)
(0.13257 -0.266607 0)
(0.242778 -0.206833 0)
(0.305172 -0.266961 0)
(0.275051 -0.257916 0)
(0.0966573 0.0158912 0)
(-0.157779 0.106498 0)
(-0.222851 -0.16143 0)
(-0.380681 -0.486874 0)
(-0.420466 -0.59037 0)
(-0.424264 -0.628988 0)
(-0.160028 -0.519467 0)
(0.0545793 -0.0520386 0)
(-0.0381466 -0.133314 0)
(0.0452995 -0.069186 0)
(0.0369901 -0.0343349 0)
(0.0296245 0.0127304 0)
(0.0923285 0.055162 0)
(0.159424 0.00725531 0)
(0.171932 0.0741205 0)
(0.0482131 0.247579 0)
(0.162874 0.432424 0)
(0.138906 0.263841 0)
(0.0332161 0.0760404 0)
(0.167275 -0.127982 0)
(0.191995 -0.163153 0)
(0.166149 -0.14974 0)
(-0.0963904 0.0454016 0)
(-0.368952 0.318198 0)
(-0.460133 0.0221456 0)
(-0.505046 -0.242825 0)
(-0.396967 -0.459834 0)
(-0.354182 -0.563748 0)
(-0.341202 -0.647906 0)
(-0.333055 -0.601507 0)
(-0.106925 -0.268446 0)
(-0.0590994 -0.144271 0)
(-0.00471221 -0.125191 0)
(0.0716526 -0.008316 0)
(0.0868211 -0.00816999 0)
(0.0509835 0.0440041 0)
(0.0966598 0.0384125 0)
(0.184031 0.0855988 0)
(-0.035567 0.309612 0)
(0.0605398 0.46352 0)
(0.0555382 0.201681 0)
(0.0759716 0.0481554 0)
(0.128179 -0.250322 0)
(0.141177 -0.217218 0)
(0.134202 -0.0448527 0)
(-0.047071 0.36469 0)
(-0.254212 0.444337 0)
(-0.385354 0.190066 0)
(-0.444749 -0.0851913 0)
(-0.298863 -0.419189 0)
(-0.383643 -0.605301 0)
(-0.227918 -0.681299 0)
(-0.331513 -0.795046 0)
(-0.192723 -0.554094 0)
(0.00613928 -0.267339 0)
(0.0136296 -0.17604 0)
(0.0375682 -0.0334775 0)
(0.0375414 -0.0469463 0)
(0.0921942 0.0406965 0)
(0.144916 0.0143711 0)
(0.233526 0.0113667 0)
(-0.0368247 0.219803 0)
(0.0494686 0.400126 0)
(0.028791 0.108761 0)
(0.105644 -0.0626278 0)
(0.142332 -0.212275 0)
(0.175993 -0.187546 0)
(0.136318 0.0312129 0)
(0.00598898 0.634034 0)
(-0.0788137 0.388382 0)
(-0.266082 0.15205 0)
(-0.277364 -0.176736 0)
(-0.195191 -0.484841 0)
(-0.189309 -0.706233 0)
(-0.0230951 -0.708833 0)
(-0.233801 -0.819843 0)
(-0.0459137 -0.531322 0)
(0.12561 -0.256461 0)
(0.0178681 -0.156737 0)
(0.0637883 -0.0238057 0)
(0.0846626 -0.0561096 0)
(0.0538515 0.0100275 0)
(0.128514 -0.0253362 0)
(0.19501 -0.0195871 0)
(-0.0491724 0.259692 0)
(0.0241526 0.339486 0)
(0.0368752 0.0576045 0)
(0.107203 -0.147548 0)
(0.128081 -0.207482 0)
(0.0564236 -0.14624 0)
(0.0621083 0.264678 0)
(-0.0882557 0.817891 0)
(0.00657561 0.524247 0)
(0.143466 0.270704 0)
(0.157376 0.126678 0)
(-0.10226 -0.322813 0)
(0.044776 -0.527252 0)
(0.166247 -0.601202 0)
(-0.020672 -0.745412 0)
(-0.000898962 -0.532874 0)
(0.0265244 -0.374321 0)
(-0.0938068 -0.124584 0)
(0.00366083 -0.0360942 0)
(0.0565438 -0.0549037 0)
(0.0856116 -0.0360101 0)
(0.0924936 0.00100428 0)
(0.129434 -0.0526448 0)
(-0.0613076 0.285465 0)
(0.0161602 0.234375 0)
(0.0488514 -0.0511275 0)
(0.0936536 -0.25378 0)
(0.125676 -0.288248 0)
(0.0987841 -0.0784687 0)
(0.0943128 0.333197 0)
(0.018798 0.772927 0)
(0.170626 0.643927 0)
(0.0985754 0.335674 0)
(0.255057 0.100065 0)
(0.205487 -0.313689 0)
(0.33353 -0.408994 0)
(0.27446 -0.585743 0)
(0.0947518 -0.687537 0)
(0.0071948 -0.556 0)
(0.0804243 -0.380416 0)
(0.11443 -0.20244 0)
(0.0144956 -0.103083 0)
(0.0597405 -0.0820502 0)
(0.052518 -0.0709063 0)
(0.0753112 -0.0539603 0)
(0.139558 -0.0840312 0)
(-0.0836762 0.349574 0)
(0.0246298 0.112397 0)
(0.0182854 -0.0946786 0)
(0.106514 -0.301539 0)
(0.087892 -0.253252 0)
(-0.0272075 0.0341741 0)
(0.00129407 0.34819 0)
(-0.0102933 0.578996 0)
(0.195566 0.475728 0)
(0.163581 0.103897 0)
(0.354848 -0.0216946 0)
(0.330791 -0.378246 0)
(0.442222 -0.428685 0)
(0.342868 -0.625796 0)
(0.218031 -0.621557 0)
(0.055963 -0.491887 0)
(0.0591784 -0.237544 0)
(-0.00456246 -0.179754 0)
(0.0047649 -0.0599181 0)
(0.0522524 -0.0858779 0)
(0.0766144 -0.0615387 0)
(0.0408363 -0.0958459 0)
(0.133143 -0.0829236 0)
(-0.0738824 0.407764 0)
(0.0280837 0.0302588 0)
(-0.00139714 -0.10922 0)
(0.0760701 -0.303877 0)
(0.000294141 -0.214455 0)
(-0.0663114 0.119673 0)
(-0.0733805 0.289748 0)
(0.0315403 0.390073 0)
(0.18472 0.23047 0)
(0.219654 0.0672683 0)
(0.211408 -0.0862557 0)
(0.377248 -0.307824 0)
(0.472287 -0.38711 0)
(0.369551 -0.54158 0)
(0.292987 -0.671425 0)
(0.0227575 -0.420524 0)
(-0.000889888 -0.240814 0)
(0.0281166 -0.127822 0)
(0.018077 -0.169822 0)
(0.0356937 -0.0819835 0)
(0.0177936 -0.130387 0)
(0.0487557 -0.129564 0)
(0.142052 -0.159472 0)
(-0.090884 0.444301 0)
(0.0348703 -0.0379026 0)
(-0.0107976 -0.182151 0)
(0.0627516 -0.243828 0)
(-0.103262 -0.0408159 0)
(-0.0918262 0.138757 0)
(-0.0954986 0.181646 0)
(-0.0467919 0.248856 0)
(0.174212 -0.0196717 0)
(0.312368 -0.0836942 0)
(0.277619 -0.312833 0)
(0.479141 -0.338221 0)
(0.512627 -0.45686 0)
(0.227445 -0.441368 0)
(0.109323 -0.631452 0)
(0.0830097 -0.388247 0)
(0.00224916 -0.211788 0)
(-0.0500336 -0.0679303 0)
(0.0166498 -0.177877 0)
(0.0830808 -0.132322 0)
(0.0356357 -0.178953 0)
(0.0425456 -0.154149 0)
(0.0922345 -0.189875 0)
(-0.068586 0.520611 0)
(0.00178575 -0.102805 0)
(-0.0352167 -0.193879 0)
(-0.0677152 -0.105061 0)
(-0.176838 0.080484 0)
(-0.14853 0.126241 0)
(-0.122584 0.0698207 0)
(-0.0226979 0.0145246 0)
(0.136362 -0.0186121 0)
(0.0854069 -0.241158 0)
(0.136062 -0.317797 0)
(0.523254 -0.33457 0)
(0.440327 -0.674906 0)
(0.202387 -0.583849 0)
(0.0129082 -0.377777 0)
(0.016068 -0.247948 0)
(-0.0566356 -0.16092 0)
(-0.0152867 -0.174124 0)
(-0.030648 -0.1524 0)
(0.0223671 -0.191407 0)
(0.0352591 -0.189129 0)
(0.0557679 -0.177483 0)
(0.0347012 -0.156196 0)
(-0.0888352 0.571759 0)
(-0.0433969 -0.0941372 0)
(-0.161315 -0.0693581 0)
(-0.210838 0.0515155 0)
(-0.263489 0.098261 0)
(-0.160376 0.0253521 0)
(-0.152119 -0.0675094 0)
(-0.0596181 -0.159218 0)
(-0.0135512 -0.152924 0)
(0.0642689 -0.280722 0)
(0.231478 -0.206179 0)
(0.0907054 -0.312328 0)
(-0.038883 -0.619522 0)
(-0.112736 -0.37561 0)
(0.0244683 -0.332821 0)
(-0.078667 -0.32904 0)
(-0.139829 -0.220706 0)
(-0.034966 -0.22215 0)
(0.0167133 -0.210136 0)
(0.0232786 -0.181647 0)
(0.0624561 -0.206912 0)
(0.0438077 -0.211528 0)
(0.0564416 -0.214581 0)
(-0.050953 0.778247 0)
(-0.165182 0.064085 0)
(-0.257603 0.112398 0)