/*--------------------------------*- C++ -*----------------------------------*\
| =========                 |                                                 |
| \\      /  F ield         | foam-extend: Open Source CFD                    |
|  \\    /   O peration     | Version:     4.1                                |
|   \\  /    A nd           | Web:         http://www.foam-extend.org         |
|    \\/     M anipulation  |                                                 |
\*---------------------------------------------------------------------------*/
FoamFile
{
    version     2.0;
    format      ascii;
    class       surfaceScalarField;
    location    "0.55";
    object      phi;
}
// * * * * * * * * * * * * * * * * * * * * * * * * * * * * * * * * * * * * * //

dimensions      [0 3 -1 0 0 0 0];

internalField   nonuniform List<scalar> 
4432
(
2.88925e-06
-2.88925e-06
4.23706e-06
-1.34781e-06
7.08313e-06
-2.84607e-06
9.38275e-06
-2.29962e-06
1.13305e-05
-1.94778e-06
1.22855e-05
-9.54954e-07
1.22261e-05
5.93779e-08
1.14231e-05
8.03013e-07
1.0127e-05
1.2961e-06
8.9916e-06
1.13539e-06
1.51192e-05
-6.12759e-06
1.55308e-05
-4.11603e-07
1.64696e-05
-9.38761e-07
1.6643e-05
-1.73437e-07
1.67721e-05
-1.29125e-07
1.66904e-05
8.17664e-08
1.65527e-05
1.37618e-07
1.59718e-05
5.80889e-07
1.49349e-05
1.0369e-06
1.28089e-05
2.12605e-06
9.24609e-06
3.56281e-06
5.14769e-06
4.09841e-06
5.14769e-06
2.81176e-06
-5.70101e-06
4.52289e-06
-3.05894e-06
7.39096e-06
-5.71413e-06
9.46422e-06
-4.37288e-06
1.14247e-05
-3.90825e-06
1.24662e-05
-1.99647e-06
1.25121e-05
1.3433e-08
1.16363e-05
1.67888e-06
1.07482e-05
2.18416e-06
9.34136e-06
2.54224e-06
1.33795e-05
-1.01657e-05
1.3257e-05
-2.89097e-07
1.38352e-05
-1.51704e-06
1.39342e-05
-2.72403e-07
1.43635e-05
-5.58368e-07
1.45265e-05
-8.12631e-08
1.46563e-05
7.84486e-09
1.45668e-05
6.70296e-07
1.39586e-05
1.64517e-06
1.21084e-05
3.97627e-06
8.87324e-06
6.79792e-06
3.9377e-06
9.03394e-06
9.08539e-06
2.49835e-06
-8.19936e-06
4.77012e-06
-5.33072e-06
7.57365e-06
-8.51767e-06
9.25597e-06
-6.05521e-06
1.13919e-05
-6.0442e-06
1.24824e-05
-3.08699e-06
1.25419e-05
-4.60167e-08
1.22097e-05
2.01101e-06
1.09954e-05
3.39847e-06
1.78615e-05
-4.32379e-06
1.39463e-05
-6.25053e-06
1.3051e-05
6.06193e-07
1.23312e-05
-7.97257e-07
1.17808e-05
2.7805e-07
1.18027e-05
-5.8025e-07
1.19265e-05
-2.05112e-07
1.22527e-05
-3.1834e-07
1.25022e-05
4.20771e-07
1.23521e-05
1.79533e-06
1.13126e-05
5.01568e-06
8.98062e-06
9.12994e-06
4.97995e-06
1.30346e-05
1.40653e-05
2.19174e-06
-1.03911e-05
4.99827e-06
-8.13724e-06
7.71866e-06
-1.12381e-05
9.4987e-06
-7.83525e-06
1.18879e-05
-8.43337e-06
1.27855e-05
-3.98466e-06
1.26927e-05
4.68713e-08
1.14291e-05
3.27457e-06
1.6738e-05
-1.91041e-06
1.31859e-05
-7.71739e-07
9.55931e-06
-2.62392e-06
6.26893e-06
3.89658e-06
4.58457e-06
8.871e-07
3.10733e-06
1.75529e-06
2.8194e-06
-2.92316e-07
3.348e-06
-7.33717e-07
4.33116e-06
-1.30149e-06
5.22227e-06
-4.70346e-07
6.51631e-06
5.01287e-07
7.95087e-06
3.58113e-06
7.88261e-06
9.1982e-06
4.60235e-06
1.63149e-05
1.86677e-05
2.1194e-06
-1.25105e-05
5.20285e-06
-1.12207e-05
7.94306e-06
-1.39783e-05
9.96694e-06
-9.85913e-06
1.20019e-05
-1.04683e-05
1.21912e-05
-4.17393e-06
1.22772e-05
-3.91956e-08
1.01634e-05
5.38843e-06
1.31764e-05
-4.92346e-06
9.46562e-06
2.93907e-06
5.43045e-06
1.41125e-06
2.74029e-06
6.58674e-06
1.25508e-06
2.37231e-06
2.27875e-07
2.7825e-06
-9.18863e-07
8.54423e-07
-2.03105e-06
3.78473e-07
-1.56697e-06
-1.76558e-06
-1.62752e-06
-4.09794e-07
-4.86149e-07
-6.40081e-07
1.83374e-06
1.26123e-06
3.85158e-06
7.18037e-06
3.73741e-06
1.6429e-05
2.24051e-05
2.53862e-06
-1.50491e-05
5.74367e-06
-1.44257e-05
8.2711e-06
-1.65057e-05
9.97123e-06
-1.15593e-05
1.18727e-05
-1.23698e-05
1.26673e-05
-4.96859e-06
1.15293e-05
1.09885e-06
1.57081e-05
1.20956e-06
1.00961e-05
6.88549e-07
7.21035e-06
5.82485e-06
2.12795e-06
6.49365e-06
-1.08275e-06
9.79744e-06
-2.78181e-06
4.07137e-06
-4.15521e-06
4.15589e-06
-4.53433e-06
1.23355e-06
-4.89427e-06
7.38412e-07
-4.92876e-06
-1.73109e-06
-4.87471e-06
-4.63844e-07
-3.93904e-06
-1.57575e-06
-3.07607e-06
3.98265e-07
-3.37709e-07
4.44201e-06
1.91918e-06
1.41721e-05
2.43243e-05
3.00822e-06
-1.80574e-05
5.93655e-06
-1.73541e-05
8.04995e-06
-1.86191e-05
9.98877e-06
-1.34981e-05
1.21961e-05
-1.45771e-05
1.22348e-05
-5.00731e-06
1.0183e-05
3.15063e-06
1.33154e-05
-1.92279e-06
7.70999e-06
6.29394e-06
4.39567e-06
9.13917e-06
-4.63798e-07
1.13531e-05
-3.25404e-06
1.25877e-05
-4.37938e-06
5.19671e-06
-5.02176e-06
4.79827e-06
-5.82559e-06
2.03739e-06
-6.55602e-06
1.46884e-06
-5.79032e-06
-2.49679e-06
-5.64678e-06
-6.07381e-07
-4.82322e-06
-2.39931e-06
-4.63346e-06
2.08505e-07
-2.61974e-06
2.42829e-06
2.35396e-07
1.1317e-05
2.45597e-05
3.20273e-06
-2.12601e-05
6.04799e-06
-2.01993e-05
8.25732e-06
-2.08284e-05
1.03445e-05
-1.55853e-05
1.26645e-05
-1.6897e-05
1.20679e-05
-4.41067e-06
1.7555e-05
-2.33653e-06
1.31452e-05
2.48703e-06
8.49391e-06
1.09452e-05
1.78044e-06
1.58526e-05
-2.64776e-06
1.57813e-05
-4.85102e-06
1.4791e-05
-6.02059e-06
6.36628e-06
-6.78073e-06
5.55841e-06
-6.72563e-06
1.98229e-06
-6.57642e-06
1.31963e-06
-5.17254e-06
-3.90066e-06
-4.61033e-06
-1.16959e-06
-3.96712e-06
-3.04252e-06
-4.3323e-06
5.73686e-07
-2.85371e-06
9.497e-07
2.12843e-08
8.44201e-06
2.4581e-05
-0.000127268
0.000127268
-0.000192946
6.56785e-05
-0.000210928
1.79818e-05
-0.000216503
5.57449e-06
-0.000229955
1.34519e-05
-0.000231221
1.26691e-06
-0.000222491
-8.73018e-06
-0.000217928
-4.56284e-06
-0.000213787
-4.14122e-06
-0.000208625
-5.16232e-06
-0.000203784
-4.84093e-06
-0.000188052
-1.57317e-05
-0.000173767
-1.42855e-05
-0.000167172
-6.59531e-06
-9.15473e-05
-7.56243e-05
-6.02375e-05
-3.13098e-05
-4.25037e-05
-1.77337e-05
-7.16159e-06
-3.53421e-05
-7.16159e-06
-0.000120115
0.000247382
-0.00017038
0.000115944
-0.000193917
4.15182e-05
-0.000192169
3.82726e-06
-0.000202631
2.39137e-05
-0.000197827
-3.53679e-06
-0.000186935
-1.9623e-05
-0.000185562
-5.93586e-06
-0.000182575
-7.12734e-06
-0.000178455
-9.2832e-06
-0.000169441
-1.38543e-05
-0.000157198
-2.79749e-05
-0.000151627
-1.98562e-05
-8.7071e-05
-7.11516e-05
-7.81716e-05
-8.45237e-05
-6.14166e-05
-4.80648e-05
-3.13756e-05
-4.77747e-05
-9.56857e-06
-5.71492e-05
-1.67302e-05
-0.000109091
0.000356474
-0.000135603
0.000142456
-9.04429e-05
-3.64231e-06
-7.7682e-05
-8.93362e-06
-0.000130058
7.62894e-05
-8.36987e-05
-4.98958e-05
-3.731e-05
-6.60116e-05
-7.54718e-05
3.22258e-05
-0.00016128
7.86806e-05
-0.000156786
-1.37773e-05
-9.2779e-05
-7.78609e-05
-0.000148622
2.78677e-05
-0.000138193
-3.02843e-05
-8.45741e-05
-0.000124771
-0.000123652
-4.54462e-05
-9.28527e-05
-7.88636e-05
-4.98806e-05
-9.07468e-05
-1.81845e-05
-8.88452e-05
-3.49147e-05
-4.89676e-05
0.000405441
-3.10181e-05
0.000124507
-3.18725e-05
-2.78792e-06
-5.45783e-05
1.37721e-05
-1.77957e-05
3.95069e-05
2.53408e-05
-9.30325e-05
7.38496e-05
-0.00011452
4.92547e-05
5.68208e-05
-5.79622e-05
0.000185898
-6.87999e-05
-2.93962e-06
-0.000131393
-1.52674e-05
-0.000138437
3.49112e-05
-7.96593e-05
-8.90619e-05
-8.42118e-05
-0.000120219
-6.71544e-05
-6.25036e-05
-8.77159e-05
-5.83021e-05
-5.30425e-05
-0.00012542
-2.74505e-05
-0.000114437
-6.23653e-05
-7.99082e-06
0.000413432
2.56849e-05
9.08314e-05
5.75754e-05
-3.46784e-05
4.31865e-05
2.81609e-05
0.000100943
-1.82501e-05
9.23524e-05
-8.44414e-05
6.58002e-05
-8.79683e-05
0.000155858
-3.32369e-05
0.000177292
0.000164464
0.000149495
2.48567e-05
6.83814e-05
6.58465e-05
-5.3307e-05
0.0001566
-5.99138e-05
-8.2455e-05
-7.09923e-05
-0.00010914
-0.0001097
-2.37963e-05
-8.24997e-05
-8.55021e-05
-5.83404e-05
-0.00014958
-3.20101e-05
-0.000140768
-9.43753e-05
2.31325e-05
0.000390299
4.76576e-05
6.63062e-05
5.74187e-05
-4.44395e-05
0.000116215
-3.06357e-05
0.000127999
-3.0034e-05
0.000109911
-6.63537e-05
7.74769e-05
-5.55337e-05
0.00013111
-8.68699e-05
0.000329821
-3.42477e-05
0.000336566
1.81128e-05
0.000336026
6.63859e-05
0.000325836
0.000166789
9.42192e-05
0.000149162
-6.62639e-05
5.13428e-05
-0.000100923
1.08631e-05
-7.38963e-05
-0.000112529
-5.63613e-05
-0.000167115
-2.00352e-05
-0.000177094
-0.000114411
6.99534e-05
0.000320346
6.97126e-05
6.65471e-05
5.88627e-05
-3.35896e-05
6.31104e-05
-3.48834e-05
0.00012377
-9.06936e-05
0.000110708
-5.3292e-05
0.000126877
-7.1702e-05
9.59065e-05
-5.58997e-05
0.000109464
-4.78049e-05
0.000183645
-5.6068e-05
0.000250009
2.10613e-08
0.000328344
8.84552e-05
0.000245682
0.000231824
-5.82938e-05
0.000355318
-7.28774e-05
2.54467e-05
-6.95232e-05
-0.000115883
-4.83151e-05
-0.000188323
-2.0268e-05
-0.000205141
-0.000134679
0.000128751
0.000191595
0.000128213
6.70852e-05
5.35458e-05
4.1078e-05
9.15935e-05
-7.29311e-05
8.72997e-05
-8.63998e-05
8.71142e-05
-5.31065e-05
5.51702e-05
-3.97579e-05
6.49018e-05
-6.56314e-05
0.000127899
-0.000110802
0.000169344
-9.75131e-05
0.000198469
-2.91035e-05
0.000231433
5.54905e-05
0.000203923
0.000259335
8.64335e-05
0.000472808
-7.88834e-05
0.000190764
-6.70385e-05
-0.000127728
-4.24235e-05
-0.000212938
-1.91241e-05
-0.00022844
-0.000153803
6.69318e-06
-2.79533e-05
1.30127e-05
-2.65188e-05
1.70541e-05
-2.48698e-05
2.21556e-05
-2.06868e-05
2.61301e-05
-2.08716e-05
4.30082e-05
-2.12888e-05
3.65972e-05
4.07443e-06
2.59129e-05
1.31713e-05
1.10206e-05
2.58376e-05
1.78552e-06
2.50877e-05
-5.61146e-06
2.31783e-05
-1.0073e-05
1.92525e-05
-1.51485e-05
1.14418e-05
-1.46949e-05
5.1048e-06
-1.38377e-05
1.12504e-06
-8.74977e-06
-3.76826e-06
-1.15699e-05
-1.08052e-06
-8.51005e-06
-4.22945e-06
-5.6151e-06
-5.93747e-06
-2.98332e-06
-2.0581e-06
-1.45295e-06
-5.80668e-07
-4.4585e-07
7.43492e-06
1.35697e-05
1.05654e-05
5.87113e-06
-3.38244e-05
1.31533e-05
-3.3801e-05
1.90216e-05
-3.07381e-05
3.37151e-05
-3.53803e-05
3.31717e-05
-2.03282e-05
2.88985e-05
-1.70156e-05
2.32109e-05
9.76198e-06
8.6287e-06
2.77535e-05
-4.73756e-06
3.92039e-05
-1.22212e-05
3.25714e-05
-1.54635e-05
2.64206e-05
-1.55342e-05
1.93232e-05
-1.35404e-05
9.448e-06
-1.08884e-05
2.45282e-06
-5.89031e-06
-3.87308e-06
-4.04789e-06
-5.61068e-06
-2.23106e-06
-2.89735e-06
-2.37521e-06
-4.08529e-06
-3.85963e-07
-7.92672e-06
4.26914e-06
-6.7132e-06
7.46027e-06
-3.7718e-06
1.40484e-05
8.46759e-07
1.22287e-05
1.53895e-05
-5.92e-06
-2.79044e-05
-1.31585e-05
-2.65625e-05
-1.23288e-05
-3.15677e-05
-1.1448e-05
-3.62612e-05
-8.66307e-06
-2.31131e-05
-1.56568e-05
-1.00219e-05
-2.05148e-05
1.46199e-05
-5.08259e-05
5.80646e-05
-4.85206e-05
3.68985e-05
-5.27638e-05
3.68146e-05
-4.90782e-05
2.2735e-05
-3.99538e-05
1.01988e-05
-3.10324e-05
5.26603e-07
-2.04652e-05
-8.11439e-06
-1.16101e-05
-1.27282e-05
-3.56943e-06
-1.36513e-05
1.02439e-06
-7.49117e-06
3.45479e-06
-6.51569e-06
5.00065e-06
-9.47257e-06
4.48382e-06
-6.19638e-06
4.20097e-06
-3.48894e-06
5.21998e-06
-1.72247e-07
5.22545e-06
1.22232e-05
-1.4323e-05
-1.35813e-05
-2.34152e-05
-1.74703e-05
-2.02221e-05
-3.47608e-05
-3.19773e-05
-2.4506e-05
-3.71857e-05
-1.79047e-05
-4.52841e-05
-1.92359e-06
-4.91354e-05
1.84711e-05
-5.88308e-05
6.77599e-05
-9.2886e-05
7.09537e-05
-7.12635e-05
1.5192e-05
-6.24831e-05
1.39546e-05
-4.68441e-05
-5.4402e-06
-5.55506e-05
9.23315e-06
-4.00298e-05
-2.36352e-05
-1.831e-05
-3.44481e-05
-1.79843e-05
-1.39771e-05
-1.78404e-05
-7.63506e-06
-2.14355e-05
-2.92053e-06
-1.02774e-05
-2.06307e-05
-2.63609e-06
-1.38377e-05
6.80909e-06
-1.29341e-05
1.40297e-05
-7.39289e-06
-2.11051e-07
1.94662e-05
-1.70031e-05
3.42183e-06
-2.44191e-05
-1.00542e-05
-2.71042e-05
-3.20757e-05
-2.8243e-05
-2.33672e-05
-4.08542e-05
-5.2935e-06
-5.63208e-05
1.35429e-05
-6.58343e-05
2.79845e-05
-4.54336e-05
4.73591e-05
-4.40724e-05
6.95924e-05
-7.42499e-05
4.53694e-05
-7.8169e-05
1.78737e-05
-7.50016e-05
-8.60767e-06
-3.78882e-05
-2.78802e-05
-5.50229e-05
-6.50055e-06
-6.63556e-05
-2.31153e-05
-4.35051e-05
-3.68276e-05
-6.44581e-05
1.33179e-05
-6.60963e-05
-1.28236e-06
-4.24596e-05
-4.42674e-05
-5.60734e-05
-2.23849e-07
-3.17431e-05
-3.72644e-05
-3.7371e-05
-1.76502e-06
-2.14415e-05
-1.61405e-05
-8.31601e-06
1.17379e-05
-1.57609e-05
-2.60928e-06
-1.6984e-05
-3.08526e-05
-1.69334e-05
-2.34179e-05
-1.66317e-05
-5.59523e-06
-2.25164e-05
1.94276e-05
-2.76219e-05
3.30899e-05
-2.17875e-05
4.15246e-05
-9.7038e-06
5.75086e-05
-1.20238e-05
4.76893e-05
-3.87578e-05
4.46077e-05
-4.46196e-05
-2.74595e-06
-4.74505e-05
-2.50493e-05
-5.03016e-05
-3.64948e-06
-3.76601e-05
-3.57568e-05
-6.95874e-05
-4.90023e-06
-6.66954e-05
1.04259e-05
-7.34759e-05
5.49816e-06
-6.20411e-05
-5.57023e-05
-5.04288e-05
-1.18361e-05
-7.04753e-05
-1.72179e-05
-6.74507e-05
-4.78959e-06
-2.09958e-05
-6.78964e-05
-3.8576e-06
1.55955e-05
-9.69628e-06
3.22944e-06
-7.62965e-06
-3.29192e-05
-5.63033e-06
-2.54172e-05
-1.00631e-05
-1.16255e-06
-1.54216e-05
2.47861e-05
-2.08317e-05
3.84999e-05
-3.08358e-05
5.15286e-05
-2.27959e-05
4.94686e-05
-2.1007e-05
4.59003e-05
-3.45567e-06
2.70563e-05
-1.82293e-05
1.20277e-05
-3.29349e-05
-1.03438e-05
-2.28551e-05
-1.37293e-05
-4.57873e-05
-1.28247e-05
-5.49409e-05
4.25335e-06
-5.68625e-05
1.23475e-05
-5.5516e-05
4.15167e-06
-8.6252e-05
-2.49663e-05
-8.68662e-05
-1.12219e-05
-8.50521e-05
-1.9032e-05
-7.10442e-05
-1.87975e-05
-1.6097e-05
-7.59431e-05
-3.69061e-06
1.92861e-05
-8.51666e-06
8.05553e-06
-3.54486e-06
-3.78909e-05
-1.08939e-06
-2.78727e-05
-6.42675e-06
4.17477e-06
-1.07426e-05
2.91019e-05
-1.64566e-05
4.42138e-05
-1.96452e-05
5.4717e-05
-6.06826e-06
3.58916e-05
-2.49619e-06
4.23282e-05
-2.08986e-05
4.54587e-05
-1.81386e-05
9.26758e-06
-3.58586e-05
7.37616e-06
-4.70723e-05
-2.51566e-06
-5.47799e-05
-5.11715e-06
-5.54406e-05
4.91405e-06
-5.04732e-05
7.38003e-06
-4.94492e-05
3.12774e-06
-6.19945e-05
-1.2421e-05
-6.99933e-05
-3.22296e-06
-7.21449e-05
-1.68805e-05
-6.69228e-05
-2.40196e-05
-2.32725e-05
-5.97473e-05
-3.5529e-06
2.28391e-05
-7.1401e-06
1.16428e-05
7.24033e-08
-4.51034e-05
-1.99523e-07
-2.76008e-05
-6.01978e-06
9.99498e-06
-1.3013e-05
3.6095e-05
-1.68161e-05
4.80169e-05
-1.07971e-05
4.86979e-05
-9.13805e-06
3.42325e-05
-1.35317e-05
4.67218e-05
-7.41042e-06
3.93373e-05
-2.1675e-05
2.35321e-05
-2.11134e-05
6.81456e-06
-2.6927e-05
3.29791e-06
-4.71697e-05
1.51254e-05
-5.09139e-05
8.65822e-06
-5.90178e-05
1.5484e-05
-5.84033e-05
2.51325e-06
-6.88059e-05
-2.01846e-06
-5.16414e-05
-2.03874e-05
-4.8043e-05
-2.04789e-05
-6.05009e-05
-1.15617e-05
-4.56054e-05
-3.8168e-05
-2.50132e-06
2.53404e-05
-4.53885e-06
1.36803e-05
2.60394e-06
-5.22462e-05
2.47592e-06
-2.74728e-05
-4.80854e-06
1.72794e-05
-7.60386e-06
3.88903e-05
-9.97408e-06
5.03871e-05
-8.57012e-06
4.72939e-05
-2.54975e-05
5.11599e-05
-8.68392e-06
2.99081e-05
-1.51835e-05
4.58368e-05
-1.04105e-05
1.8759e-05
-2.34631e-05
1.98671e-05
-3.84386e-05
1.82733e-05
-4.51204e-05
2.18072e-05
-4.58478e-05
9.38556e-06
-3.57033e-05
5.33941e-06
-5.80132e-05
2.48232e-05
-6.70505e-05
7.01881e-06
-8.45358e-05
-2.90211e-06
-9.7658e-05
-7.35669e-06
-9.6409e-05
-1.28108e-05
-4.06243e-05
-0.00010139
-1.02873e-06
2.63692e-05
-5.71616e-07
1.32232e-05
2.85267e-06
-5.56705e-05
-8.90651e-07
-2.37295e-05
-7.83771e-06
2.42265e-05
-9.93437e-06
4.09869e-05
-7.70347e-06
4.81561e-05
-1.01993e-05
4.97896e-05
-4.19926e-06
4.51598e-05
-1.62941e-05
4.20029e-05
-1.04628e-05
4.00054e-05
-2.66834e-05
3.49796e-05
-3.15582e-05
2.47417e-05
-3.4083e-05
2.07981e-05
-2.27067e-05
1.04308e-05
-4.06842e-05
2.7363e-05
-5.22203e-05
1.68756e-05
-3.77736e-05
1.03765e-05
-4.54166e-05
1.46618e-05
-4.85701e-05
2.51429e-07
-7.33193e-05
1.73924e-05
-7.50969e-05
-1.10332e-05
-3.23059e-05
-8.34152e-05
5.59695e-07
2.58095e-05
1.61192e-06
1.2171e-05
9.50215e-07
-5.50088e-05
-9.37956e-06
-1.33997e-05
-1.90086e-05
3.38554e-05
-1.82911e-05
4.02694e-05
-1.4381e-05
4.4246e-05
-9.70898e-06
4.51176e-05
-1.38734e-05
4.93242e-05
-1.07278e-05
3.88571e-05
-1.02556e-05
3.95332e-05
-1.16025e-05
3.63264e-05
-7.4547e-06
2.05939e-05
-1.22791e-05
2.56225e-05
-3.75278e-05
3.56793e-05
-4.64075e-05
3.62428e-05
-5.52666e-05
2.57346e-05
-5.62904e-05
1.14003e-05
-6.08277e-05
1.9199e-05
-6.60819e-05
5.50559e-06
-5.26451e-05
3.95558e-06
-5.81573e-05
-5.52107e-06
-2.53519e-05
-6.51114e-05
-1.40231e-07
2.59497e-05
5.89593e-07
1.14412e-05
-3.15622e-06
-5.1263e-05
-1.57405e-05
-8.15433e-07
-2.17099e-05
3.98248e-05
-2.11499e-05
3.97094e-05
-2.12721e-05
4.43681e-05
-2.14505e-05
4.5296e-05
-5.44419e-06
3.33178e-05
-1.1588e-05
4.50008e-05
-3.22599e-06
3.11711e-05
-7.54469e-06
4.0645e-05
-2.27625e-05
3.58116e-05
-2.3796e-05
2.66559e-05
-1.65407e-05
2.8424e-05
-3.08287e-05
5.05308e-05
-3.98074e-05
3.47132e-05
-5.57799e-05
2.73727e-05
-4.45889e-05
8.00806e-06
-6.97134e-05
3.06299e-05
-7.81411e-05
1.23833e-05
-8.50395e-05
1.37727e-06
-1.15326e-05
-9.88588e-05
-1.76023e-06
2.771e-05
1.98604e-07
9.48236e-06
-5.05269e-06
-4.60117e-05
-1.38322e-05
7.96404e-06
-2.14496e-05
4.74422e-05
-1.76217e-05
3.58815e-05
-1.15757e-05
3.83222e-05
-9.09313e-06
4.28133e-05
-1.7864e-05
4.20886e-05
-7.1199e-06
3.42567e-05
-3.53654e-06
2.75876e-05
1.10453e-07
3.69979e-05
3.65715e-06
3.22648e-05
-1.35146e-06
3.16645e-05
-2.3429e-05
5.05014e-05
-1.92425e-05
4.63442e-05
-2.07503e-05
3.6221e-05
-2.37281e-05
3.03504e-05
-4.8426e-05
3.27059e-05
-4.19303e-05
2.41342e-05
-5.46425e-05
2.50954e-05
-9.26836e-05
3.94184e-05
-1.44325e-05
-8.97837e-05
-5.30106e-06
3.3011e-05
-1.93611e-06
6.11739e-06
-6.27082e-06
-4.1677e-05
-1.94569e-05
2.11501e-05
-5.19974e-06
3.3185e-05
-7.06688e-06
3.77486e-05
-5.38266e-06
3.66379e-05
-5.19767e-06
4.26283e-05
1.01355e-07
3.67895e-05
8.02235e-07
3.35557e-05
-2.15993e-06
3.05497e-05
8.07867e-07
3.403e-05
8.45261e-06
2.462e-05
-1.39087e-05
5.40258e-05
-1.36117e-05
5.02044e-05
-2.12737e-05
5.40062e-05
-2.96342e-05
4.45814e-05
-4.76664e-05
4.83827e-05
-4.15314e-05
2.65708e-05
-7.20004e-05
5.46032e-05
-7.68119e-05
2.9907e-05
-6.27192e-05
2.53255e-05
3.3567e-05
-0.000110719
-4.04113e-06
3.70522e-05
-4.60722e-08
2.12229e-06
-1.49211e-06
-4.0231e-05
-4.89533e-06
2.45533e-05
-2.58025e-05
5.40922e-05
-1.79482e-05
2.98943e-05
-2.42054e-06
2.11103e-05
7.0231e-07
3.95054e-05
-6.73395e-07
3.81651e-05
-1.81034e-06
3.46926e-05
-3.23561e-06
3.19749e-05
2.94393e-06
2.78505e-05
-6.85088e-06
3.44148e-05
-1.66148e-05
6.37896e-05
-1.02631e-05
4.38527e-05
-2.70511e-05
7.07941e-05
-2.46385e-05
4.21687e-05
-2.6396e-05
5.01401e-05
-5.31802e-05
5.3355e-05
-5.20711e-05
5.34941e-05
-7.00111e-05
4.78469e-05
-0.000105531
6.08452e-05
5.61169e-05
-0.000128081
-6.26104e-06
4.33132e-05
-3.1644e-06
-9.74403e-07
-1.09245e-05
-3.2471e-05
-2.18642e-05
3.54929e-05
-1.57981e-06
3.38078e-05
1.23938e-06
2.70751e-05
-7.50239e-06
2.9852e-05
1.42084e-07
3.18609e-05
8.63729e-07
3.74434e-05
4.72131e-06
3.0835e-05
9.77044e-06
2.69258e-05
-3.11435e-06
4.07352e-05
-8.02818e-06
3.93286e-05
-5.80151e-06
6.1563e-05
-9.99322e-06
4.80444e-05
-5.68089e-06
6.64818e-05
-9.13103e-06
4.56188e-05
-4.21989e-05
8.32079e-05
-3.58266e-05
4.69828e-05
-8.11456e-05
9.88131e-05
-8.57766e-05
5.24779e-05
-0.000111667
8.67359e-05
8.24098e-05
-0.00013796
-1.22885e-05
5.56016e-05
-6.27075e-06
-6.9922e-06
-1.62164e-05
-2.25253e-05
-6.53912e-06
2.58155e-05
-9.05579e-06
3.63245e-05
-4.27782e-06
2.22971e-05
4.2082e-06
2.1366e-05
5.25826e-06
3.08108e-05
3.5385e-06
3.91632e-05
2.31553e-06
3.20579e-05
-9.3889e-07
3.01801e-05
-3.65088e-07
4.01614e-05
-1.57733e-06
4.05408e-05
-1.27925e-06
6.12649e-05
-1.11225e-05
5.78877e-05
-7.07291e-06
6.24321e-05
-2.83845e-05
6.69305e-05
-2.00294e-05
7.48528e-05
-4.96039e-05
7.65572e-05
-4.01354e-05
8.93445e-05
-8.83193e-05
0.000100662
-0.000112661
0.000111078
4.71748e-05
-7.74262e-05
-2.41213e-06
5.80137e-05
-3.26976e-06
-6.13467e-06
-2.22327e-06
-2.35719e-05
-5.85943e-06
2.94517e-05
-1.33133e-05
4.37783e-05
-2.97922e-06
1.1963e-05
-1.12128e-07
1.84989e-05
5.01256e-06
2.56861e-05
3.36366e-06
4.08121e-05
8.11432e-06
2.73072e-05
-3.46249e-06
4.17569e-05
4.37071e-06
3.23282e-05
-1.17471e-05
5.66586e-05
-6.43073e-06
5.59485e-05
-1.91984e-06
5.33768e-05
-9.1187e-06
6.9631e-05
-1.73566e-05
7.51683e-05
-3.05811e-05
8.80774e-05
-4.21152e-05
8.80914e-05
-5.36832e-05
0.000100913
-6.1845e-05
0.000108824
-6.01495e-05
0.000109382
0.00011311
-0.000126085
3.19376e-06
5.48199e-05
1.62044e-06
-4.56146e-06
-1.32819e-05
-8.66965e-06
-7.41942e-06
2.35892e-05
1.63687e-06
3.4722e-05
2.9262e-06
1.06737e-05
3.66934e-06
1.77558e-05
4.33949e-06
2.5016e-05
7.74312e-06
3.74084e-05
-7.85626e-07
3.5836e-05
8.85809e-07
4.00855e-05
2.05705e-06
3.11569e-05
3.833e-06
5.48827e-05
1.93477e-06
5.78467e-05
4.36913e-07
5.48746e-05
-4.38435e-06
7.44522e-05
-8.58674e-06
7.93707e-05
-1.8305e-05
9.77957e-05
-2.72009e-05
9.69872e-05
-3.64472e-05
0.000110159
-3.38406e-05
0.000106217
-4.48684e-05
0.00012041
0.000133645
-6.54031e-05
1.25065e-06
5.35692e-05
5.30216e-08
-3.36395e-06
-2.21856e-06
-6.39815e-06
-1.68592e-06
2.30565e-05
1.73931e-06
3.12968e-05
2.01518e-06
1.03978e-05
4.65499e-06
1.5116e-05
3.01307e-06
2.66579e-05
4.39175e-06
3.60298e-05
8.14475e-06
3.2083e-05
8.39712e-07
4.73906e-05
8.67328e-07
3.11293e-05
-5.06405e-06
6.08141e-05
7.43131e-06
4.53514e-05
-1.32903e-08
6.23192e-05
-2.91113e-06
7.735e-05
-6.8538e-06
8.33134e-05
-9.31332e-06
0.000100255
-1.95276e-05
0.000107202
-3.16896e-05
0.000122321
-4.44839e-05
0.000119011
-2.95144e-05
0.00010544
0.000176175
-7.20446e-05
1.21717e-06
5.23519e-05
2.35188e-07
-2.38209e-06
-3.06889e-06
-3.09415e-06
3.84325e-06
1.61443e-05
3.25095e-06
3.1889e-05
3.72165e-06
9.92709e-06
3.53407e-06
1.53036e-05
5.79177e-06
2.44002e-05
7.87562e-06
3.39459e-05
5.61628e-06
3.43424e-05
6.8527e-06
4.61542e-05
7.86798e-06
3.01141e-05
7.21147e-06
6.14706e-05
-4.50201e-06
5.70648e-05
6.85986e-06
5.09573e-05
1.17963e-05
7.24137e-05
2.65513e-06
9.24545e-05
-1.54123e-06
0.000104452
-1.09023e-05
0.000116563
-2.86976e-05
0.000140116
-2.00411e-06
9.2318e-05
-1.20606e-05
0.000115497
0.000178561
-1.44462e-05
2.19795e-07
5.2132e-05
9.60589e-07
-3.12301e-06
1.75672e-06
-3.89035e-06
2.67658e-06
1.52244e-05
6.48155e-06
2.80841e-05
3.20451e-06
1.32041e-05
8.77082e-06
9.73725e-06
5.31064e-06
2.78604e-05
1.35161e-05
2.57405e-05
6.88315e-06
4.09753e-05
1.55579e-05
3.74795e-05
1.14293e-05
3.42426e-05
1.44274e-05
5.84725e-05
2.17864e-05
4.97058e-05
-2.25353e-06
7.49972e-05
1.1916e-05
5.82441e-05
4.85305e-06
9.95175e-05
2.86872e-05
8.06174e-05
2.28549e-05
0.000122395
3.45616e-05
0.000128409
3.756e-05
8.93196e-05
-1.5404e-05
0.000168461
0.000209779
-4.66222e-05
2.22866e-06
4.99033e-05
3.4845e-07
-1.24292e-06
-1.0559e-06
-2.48607e-06
1.98949e-06
1.21789e-05
7.32086e-06
2.27527e-05
9.86018e-06
1.06648e-05
6.02669e-06
1.35708e-05
1.68128e-05
1.70743e-05
2.00334e-05
2.25199e-05
1.63932e-05
4.46156e-05
2.2177e-05
3.16956e-05
8.52424e-06
4.78954e-05
1.86918e-05
4.8305e-05
2.1032e-05
4.73657e-05
3.83477e-05
5.76815e-05
1.75996e-05
7.89922e-05
3.44676e-05
8.26496e-05
7.57689e-06
0.000107508
1.37312e-05
0.000116241
3.7944e-05
0.000104196
1.95025e-05
0.000107761
1.5224e-05
0.000172739
0.000209166
1.58365e-05
5.82047e-09
4.98974e-05
1.34228e-06
-2.57948e-06
3.86138e-06
-5.00525e-06
9.79198e-06
6.24832e-06
1.11727e-05
2.1372e-05
6.25169e-06
1.55858e-05
1.26154e-05
7.20707e-06
1.57772e-05
1.39125e-05
1.13523e-05
2.69448e-05
2.06165e-05
3.53514e-05
1.73272e-05
3.49849e-05
2.94282e-05
3.57944e-05
3.7797e-05
3.99362e-05
2.35988e-05
6.15639e-05
4.28382e-05
3.84421e-05
3.76733e-05
8.41571e-05
5.07865e-05
6.95364e-05
4.55107e-05
0.000112784
3.77921e-05
0.000123959
2.46505e-05
0.000117338
1.14559e-05
0.000120956
4.68209e-05
0.000137374
0.000235262
2.0725e-05
8.08682e-06
4.18105e-05
6.51437e-06
-1.00713e-06
1.28719e-06
2.21868e-07
2.66874e-06
4.86674e-06
8.73328e-06
1.53074e-05
1.59731e-05
8.34597e-06
1.28305e-05
1.03497e-05
1.4001e-05
1.2742e-05
1.80622e-05
2.28836e-05
2.24288e-05
3.09847e-05
3.42684e-05
2.31453e-05
3.88798e-05
3.1183e-05
5.00671e-05
2.87488e-05
5.37907e-05
5.78403e-05
2.61507e-05
6.60822e-05
5.46627e-05
5.56451e-05
2.73766e-05
9.68225e-05
4.3688e-05
9.64727e-05
7.99963e-05
8.76511e-05
0.000114747
8.25867e-05
7.21021e-05
0.000163601
2.60016e-05
0.000183475
0.000150133
0.00011113
3.09365e-06
3.87168e-05
8.37529e-06
-6.28886e-06
7.89791e-06
6.99193e-07
1.04698e-05
2.29482e-06
1.89737e-05
6.80352e-06
1.7958e-05
9.36168e-06
2.06772e-05
7.63051e-06
1.91047e-05
1.43145e-05
2.74302e-05
1.45581e-05
3.25565e-05
2.58584e-05
3.58462e-05
1.98557e-05
5.0601e-05
1.64282e-05
2.91973e-05
5.01525e-05
3.85885e-05
4.84492e-05
5.09498e-05
5.37208e-05
6.62151e-05
4.03798e-05
0.000101236
6.18015e-05
8.71727e-05
0.000110536
9.39853e-05
8.08386e-05
5.40727e-05
0.000122499
5.35393e-05
0.000164134
0.00013058
0.000106434
0.000194653
8.606e-05
1.35522e-05
2.51646e-05
6.906e-06
3.57267e-07
8.03061e-06
-4.2546e-07
1.13936e-05
-1.06823e-06
1.55807e-05
2.61642e-06
1.84473e-05
6.49506e-06
1.79131e-05
8.16475e-06
2.51081e-05
7.11945e-06
2.01592e-05
1.9507e-05
3.89798e-05
7.03782e-06
3.6369e-05
2.24664e-05
3.35201e-05
1.92771e-05
4.50546e-05
3.86179e-05
5.70787e-05
3.64251e-05
4.71862e-05
6.36133e-05
5.41424e-05
3.34236e-05
6.06527e-05
5.52912e-05
0.000106117
6.50715e-05
5.33248e-05
0.000133631
7.1618e-05
0.000104206
0.000136581
9.91719e-05
0.000144954
9.80613e-05
0.000185578
0.000154028
1.23942e-05
1.27703e-05
1.0818e-05
1.93348e-06
1.50627e-05
-4.67018e-06
1.62307e-05
-2.23632e-06
1.96192e-05
-7.72055e-07
2.3366e-05
2.7483e-06
2.77274e-05
3.80329e-06
3.11726e-05
3.67426e-06
4.02294e-05
1.04502e-05
4.36274e-05
3.63974e-06
4.11549e-05
2.49389e-05
3.93864e-05
2.10456e-05
6.06406e-05
1.73636e-05
5.72623e-05
3.98034e-05
0.000104542
1.63331e-05
0.000107729
3.02373e-05
0.000118228
4.47922e-05
0.00012701
5.62891e-05
0.000141356
0.000119285
0.000138702
0.00010686
0.000119969
0.000117905
8.16915e-05
0.000136338
0.000167647
9.9623e-05
7.26731e-06
5.50292e-06
1.01871e-05
-9.86322e-07
1.16476e-05
-6.13075e-06
1.26254e-05
-3.21413e-06
1.39294e-05
-2.07604e-06
2.0807e-05
-4.12927e-06
2.60806e-05
-1.47033e-06
2.89406e-05
8.14234e-07
3.87252e-05
6.65544e-07
3.3601e-05
8.764e-06
5.93997e-05
-8.59778e-07
7.0293e-05
1.01523e-05
5.52942e-05
3.23623e-05
9.16957e-05
3.40188e-06
9.86468e-05
9.38204e-06
0.000110604
1.82798e-05
0.00013761
1.77861e-05
7.50048e-05
0.000118895
0.000132421
6.18692e-05
0.000128429
0.000110852
0.000122661
0.000123673
9.66317e-05
0.000162368
0.000111048
0.000153231
7.44097e-06
-1.93807e-06
1.32705e-05
-6.81589e-06
1.64844e-05
-9.34468e-06
2.07281e-05
-7.45776e-06
2.51085e-05
-6.45643e-06
2.9622e-05
-8.64282e-06
3.53151e-05
-7.16348e-06
4.17107e-05
-5.58141e-06
4.87282e-05
-6.35198e-06
5.80208e-05
-5.28548e-07
6.66083e-05
-9.44734e-06
7.96708e-05
-2.91022e-06
9.94739e-05
1.25591e-05
0.000108828
-5.95253e-06
0.000120595
-2.3843e-06
0.000141947
-3.07244e-06
0.000107748
5.19847e-05
0.000129368
9.72753e-05
0.000124266
6.69708e-05
0.000154535
8.05831e-05
0.000155612
0.000122596
0.000166022
0.000151957
0.000167686
0.000109383
4.36031e-06
-6.2984e-06
8.43579e-06
-1.08914e-05
1.04003e-05
-1.13092e-05
1.3984e-05
-1.10415e-05
2.19831e-05
-1.44555e-05
2.55222e-05
-1.2182e-05
3.07077e-05
-1.2349e-05
3.70847e-05
-1.19584e-05
4.11957e-05
-1.04631e-05
5.036e-05
-9.69283e-06
4.86242e-05
-7.71162e-06
5.29952e-05
-7.28128e-06
8.14537e-05
-1.58994e-05
8.72213e-05
-1.17202e-05
0.000106167
-2.13297e-05
0.000107296
-4.20166e-06
0.000129737
2.95437e-05
0.000196837
3.01748e-05
0.000162612
0.000101196
0.00016455
7.86451e-05
0.000193676
9.34705e-05
0.000189708
0.000155926
0.000144006
0.000213388
5.72717e-06
-1.20256e-05
1.09234e-05
-1.60876e-05
1.53998e-05
-1.57856e-05
2.08998e-05
-1.65415e-05
2.55848e-05
-1.91405e-05
3.1425e-05
-1.80221e-05
3.77934e-05
-1.87174e-05
4.47286e-05
-1.88937e-05
5.26288e-05
-1.83633e-05
6.21731e-05
-1.92372e-05
7.14071e-05
-1.69457e-05
8.21702e-05
-1.80444e-05
9.29785e-05
-2.67077e-05
0.000105053
-2.37947e-05
0.000134301
-5.05775e-05
0.000169262
-3.91629e-05
0.000223132
-2.43264e-05
0.00022626
2.70472e-05
0.000221915
0.000105541
0.000227111
7.34495e-05
0.000222112
9.84692e-05
0.000208435
0.000169603
0.000105759
0.000246681
4.95566e-06
-1.69812e-05
9.37062e-06
-2.05025e-05
1.47475e-05
-2.11624e-05
1.99448e-05
-2.17388e-05
2.34196e-05
-2.26153e-05
2.85936e-05
-2.31961e-05
3.40035e-05
-2.41274e-05
4.02763e-05
-2.51666e-05
4.78915e-05
-2.59786e-05
5.58962e-05
-2.7242e-05
6.78873e-05
-2.89368e-05
7.99445e-05
-3.01017e-05
8.6997e-05
-3.37602e-05
9.51923e-05
-3.199e-05
0.000119466
-7.48517e-05
0.000105627
-2.53233e-05
0.000160304
-7.90031e-05
0.000197038
-9.6877e-06
0.000288141
1.44384e-05
0.000286632
7.49586e-05
0.000261925
0.000123176
0.000274174
0.000157354
0.000206274
0.00017366
4.80063e-06
-2.17818e-05
9.27962e-06
-2.49815e-05
1.36253e-05
-2.5508e-05
1.80613e-05
-2.61748e-05
2.28067e-05
-2.73607e-05
2.79391e-05
-2.83286e-05
3.33751e-05
-2.95635e-05
3.95685e-05
-3.13601e-05
4.63822e-05
-3.27923e-05
5.47625e-05
-3.56223e-05
6.35281e-05
-3.77024e-05
7.64025e-05
-4.29761e-05
8.98993e-05
-4.72571e-05
0.000109599
-5.169e-05
0.000144277
-0.000109529
0.000213786
-9.48324e-05
0.000264217
-0.000129434
0.000308891
-5.4362e-05
0.000326656
-3.32677e-06
0.000295784
0.000105831
0.00034013
7.883e-05
0.000321397
0.000176087
0.000219872
0.000307799
4.13261e-06
-2.59144e-05
7.86234e-06
-2.87111e-05
1.17413e-05
-2.9387e-05
1.57586e-05
-3.01921e-05
1.97112e-05
-3.13134e-05
2.40583e-05
-3.26757e-05
2.90296e-05
-3.45348e-05
3.44007e-05
-3.67314e-05
4.10675e-05
-3.94591e-05
4.80501e-05
-4.2605e-05
5.73144e-05
-4.69668e-05
6.89253e-05
-5.45871e-05
8.15333e-05
-5.98651e-05
0.000100262
-7.04189e-05
0.000127044
-0.000136311
0.000174827
-0.000142615
0.000173326
-0.000127933
0.000222388
-0.000103424
0.000277953
-5.88915e-05
0.000378681
5.10247e-06
0.000398048
5.9463e-05
0.000352798
0.000221337
0.000265548
0.000307122
3.69491e-06
-2.96093e-05
6.93989e-06
-3.19561e-05
1.01956e-05
-3.26426e-05
1.35173e-05
-3.35138e-05
1.70852e-05
-3.48812e-05
2.06783e-05
-3.62689e-05
2.4773e-05
-3.86296e-05
2.85458e-05
-4.05042e-05
3.39309e-05
-4.48443e-05
3.847e-05
-4.71442e-05
4.58423e-05
-5.43391e-05
5.06559e-05
-5.94007e-05
5.55113e-05
-6.47205e-05
5.08347e-05
-6.57423e-05
7.15775e-05
-0.000157054
0.000110261
-0.000181299
0.000185829
-0.000203501
0.000276119
-0.000193714
0.000313162
-9.59346e-05
0.000319721
-1.45631e-06
0.000225652
0.000153532
0.000219443
0.000227547
0.000170132
0.000314859
2.83844e-06
-3.24477e-05
5.30738e-06
-3.4425e-05
7.7786e-06
-3.51138e-05