/*--------------------------------*- C++ -*----------------------------------*\
| =========                 |                                                 |
| \\      /  F ield         | foam-extend: Open Source CFD                    |
|  \\    /   O peration     | Version:     4.1                                |
|   \\  /    A nd           | Web:         http://www.foam-extend.org         |
|    \\/     M anipulation  |                                                 |
\*---------------------------------------------------------------------------*/
FoamFile
{
    version     2.0;
    format      ascii;
    class       volScalarField;
    location    "0.3";
    object      alpha1;
}
// * * * * * * * * * * * * * * * * * * * * * * * * * * * * * * * * * * * * * //

dimensions      [0 0 0 0 0 0 0];

internalField   nonuniform List<scalar> 
2268
(
1
1
1
1
1
1
1
1
1
1
1
1
0.999989
0.999775
0.999712
0.999563
0.999077
0.998104
0.994886
0.954511
0.912027
0.909561
0.323481
1
1
1
1
1
1
1
1
1
1
1
0.999999
0.999652
0.99437
0.996317
0.996543
0.993648
0.947473
0.942078
0.888563
0.795386
0.878451
0.869144
1
1
1
1
1
1
1
1
1
1
1
0.999993
0.994144
0.974215
0.981302
0.985716
0.962555
0.806131
0.710652
0.680625
0.681099
0.774294
0.860639
1
1
1
1
1
1
1
1
1
0.999999
0.999997
0.999981
0.968101
0.938491
0.92218
0.909483
0.852663
0.652144
0.678682
0.757363
0.759787
0.769071
0.852844
1
1
1
1
1
1
1
1
0.999999
0.999996
0.999971
0.999984
0.993038
0.995644
0.989812
0.981026
0.960436
0.85163
0.860837
0.867874
0.839966
0.781467
0.839853
1
1
1
1
1
1
1
1
0.999992
0.999977
0.999913
0.999907
0.9999
0.999891
0.999629
0.998659
0.995487
0.9834
0.977869
0.963469
0.882863
0.799993
0.84527
1
1
1
1
1
1
1
0.999996
0.999932
0.999856
0.999708
0.999442
0.999605
0.999464
0.999109
0.996598
0.989374
0.976811
0.957456
0.943005
0.862553
0.804088
0.841193
1
1
1
1
1
1
0.999998
0.999967
0.999624
0.99928
0.998673
0.998565
0.998179
0.997436
0.997962
0.993979
0.974534
0.939877
0.855226
0.847141
0.786935
0.796797
0.841551
1.09035e-08
2.00291e-07
2.64914e-06
2.27426e-05
0.000116673
0.000377946
0.000823983
0.00149437
0.00237395
0.00412112
0.00628371
0.000592321
0.000101061
1.03603e-05
9.19336e-07
5.92182e-08
3.30046e-09
1.28628e-10
2.42406e-12
3.25643e-08
4.57993e-07
4.67003e-06
3.1658e-05
0.000144163
0.000467449
0.0012242
0.00329889
0.00712947
0.0234449
0.0302656
0.00608625
0.00123927
0.000192303
2.032e-05
1.49168e-06
8.87728e-08
3.55187e-09
6.80253e-11
1.7076e-07
1.23749e-06
6.95959e-06
3.28159e-05
0.000120616
0.000324199
0.000663282
0.00142736
0.00878793
0.0664013
0.0803999
0.0362907
0.0085043
0.00155949
0.00019804
1.67948e-05
1.09787e-06
4.57729e-08
8.9446e-10
6.48013e-07
3.54437e-06
1.22111e-05
3.56062e-05
8.18584e-05
0.000192493
0.000337355
0.0013149
0.0261563
0.148602
0.164664
0.0961694
0.0284884
0.00656105
0.00110037
0.000114219
8.30038e-06
3.61952e-07
7.25346e-09
2.21844e-06
1.22098e-05
4.98083e-05
0.000198371
0.000557693
0.000728332
0.000906722
0.00305077
0.116548
0.235718
0.231123
0.129442
0.0474592
0.0152256
0.00356663
0.000486046
4.17386e-05
1.98822e-06
4.19177e-08
8.41457e-06
6.46588e-05
0.000499179
0.00255488
0.00422208
0.00352867
0.00441861
0.0120544
0.204404
0.283648
0.276291
0.18977
0.0925982
0.0342036
0.00945495
0.00158247
0.00015852
8.40576e-06
1.92413e-07
2.25148e-05
0.000172838
0.000952739
0.0174295
0.0226276
0.0170227
0.0193732
0.0455694
0.237618
0.321812
0.315568
0.25215
0.137033
0.0517064
0.0154769
0.00328289
0.000389832
2.31887e-05
5.58634e-07
7.23955e-05
0.000407689
0.0042866
0.0844638
0.0898284
0.0659002
0.0602041
0.138654
0.313431
0.349485
0.336788
0.275233
0.15098
0.0563599
0.0167871
0.00408315
0.000637795
5.38724e-05
1.72288e-06
0.999999
0.999999
0.999999
0.999999
0.999999
0.999997
0.999984
0.999606
0.996885
0.995409
0.993507
0.993675
0.990509
0.990727
0.990681
0.989312
0.988447
0.979308
0.92736
0.829853
0.69832
0.732316
0.826896
0.999988
0.999987
0.999991
0.99999
0.999994
0.99997
0.999873
0.996259
0.975977
0.969181
0.964288
0.937862
0.932653
0.924639
0.933332
0.940112
0.948722
0.960391
0.952805
0.899247
0.761913
0.728519
0.764722
0.999815
0.999886
0.99993
0.99994
0.999961
0.999816
0.999308
0.979816
0.889914
0.851256
0.825832
0.777254
0.75491
0.661938
0.719258
0.787256
0.824638
0.866969
0.902472
0.897695
0.843886
0.764837
0.783943
0.998247
0.998937
0.999615
0.999687
0.999766
0.999106
0.997169
0.918807
0.62773
0.498961
0.544446
0.419871
0.433297
0.320882
0.429297
0.460946
0.531233
0.60252
0.755693
0.857309
0.843953
0.820497
0.810128
0.989454
0.993875
0.998033
0.998716
0.998395
0.996698
0.991164
0.833071
0.383132
0.27497
0.249138
0.202849
0.19862
0.170648
0.162583
0.15343
0.197728
0.255689
0.468098
0.650093
0.714212
0.726074
0.704337
0.955228
0.974433
0.992292
0.994393
0.992044
0.987198
0.97653
0.820277
0.384702
0.251068
0.199961
0.167353
0.144263
0.114028
0.0853254
0.0725507
0.0878458
0.121127
0.254776
0.327496
0.33974
0.334547
0.338991
0.851619
0.900904
0.968555
0.975908
0.966433
0.960974
0.945622
0.839555
0.597125
0.464038
0.334999
0.221331
0.160308
0.109536
0.0577058
0.0436331
0.052229
0.0486556
0.0674246
0.0932928
0.120305
0.160754
0.230847
0.604804
0.657569
0.876474
0.912946
0.87808
0.89028
0.887113
0.796684
0.625708
0.572912
0.503969
0.366905
0.224544
0.123533
0.0472246
0.0251906
0.0211123
0.0129512
0.0152983
0.0293231
0.0615226
0.0603407
0.0891124
0.275056
0.328271
0.682157
0.75266
0.634834
0.759418
0.779243
0.64196
0.589975
0.580016
0.542524
0.419342
0.248159
0.122437
0.0412282
0.0151089
0.00628578
0.00350164
0.00305747
0.00347023
0.0129856
0.0119148
0.0122151
0.137357
0.231936
0.612308
0.516728
0.381036
0.587943
0.678696
0.565591
0.481862
0.494563
0.492042
0.370548
0.145781
0.0614255
0.0155679
0.00684472
0.00266302
0.00134167
0.000986798
0.00142757
0.00161891
0.00144837
0.00170734
0.122436
0.232218
0.624142
0.363149
0.224249
0.330211
0.412041
0.279633
0.216289
0.276828
0.280508
0.151213
0.0389719
0.0185572
0.00177118
0.000903137
0.000790427
0.00062359
0.000530333
0.0014512
0.00117085
0.000967956
0.00140795
0.129579
0.230929
0.507701
0.24416
0.112862
0.0949477
0.151012
0.0854316
0.0682103
0.126774
0.0782821
0.0254977
0.00427845
0.000771281
0.000691296
0.000711154
0.000751471
0.000454696
0.00073955
0.00170863
0.000914061
0.000730042
0.000901036
0.132252
0.124233
0.289955
0.128684
0.0403565
0.00745806
0.0518413
0.026516
0.0263358
0.0635942
0.0543512
0.0124857
0.00636364
0.000962862
0.000643012
0.000657647
0.000865929
0.000833644
0.00125485
0.000793543
0.000564872
0.000389492
0.000233083
0.0562197
0.0529807
0.210926
0.0701006
0.0106439
0.000525402
0.0113103
0.00884944
0.0138695
0.0468776
0.0575898
0.0367062
0.044906
0.00231566
0.000368254
0.000312444
0.000626462
0.000464195
0.000258988
0.000211067
0.000251978
0.00014614
8.74261e-05
0.0195029
0.0303754
0.170398
0.0464034
0.00363926
0.000166233
0.00110132
0.00202154
0.012549
0.0810414
0.142526
0.0734753
0.0630706
0.00325112
0.000164704
9.84341e-05
0.000109486
3.52592e-05
2.98684e-05
3.64329e-05
5.45443e-05
3.69031e-05
2.59025e-05
0.00830904
0.0225959
0.153362
0.0285398
0.000825827
2.55911e-05
8.38492e-05
0.000205838
0.000304346
0.00605509
0.0616473
0.202692
0.0571507
0.000458778
3.44056e-05
3.96138e-05
3.16485e-05
1.0338e-05
6.303e-06
4.9227e-06
5.62156e-06
4.15093e-06
6.04243e-06
0.00375799
0.0146148
0.103796
0.0109739
0.000163908
5.37625e-06
3.15155e-06
1.88851e-05
9.85072e-05
0.00153882
0.0192705
0.189089
0.0151967
5.52086e-06
8.65596e-06
1.13668e-05
9.69166e-06
4.28988e-06
2.69315e-06
9.39621e-07
5.28864e-07
4.70039e-07
1.12706e-06
0.000251394
0.00723643
0.0431273
0.00624654
0.000118167
3.06227e-06
1.86467e-06
8.49729e-06
6.00825e-05
0.000428475
0.00287493
0.0120733
1.3577e-06
6.46003e-07
1.96272e-06
2.4267e-06
1.77312e-06
6.85077e-07
4.10591e-07
3.03013e-07
1.04728e-07
1.16938e-07
2.40672e-07
1.62906e-05
0.00312412
0.0133635
0.00218387
3.65738e-05
1.31068e-06
8.03016e-07
1.02825e-06
7.2463e-07
3.72353e-08
1.11521e-07
3.32287e-07
5.24941e-08
4.12672e-08
1.18064e-07
2.01888e-07
2.25657e-07
7.86497e-08
1.89847e-08
1.26038e-08
1.32195e-08
3.1833e-08
5.29424e-08
6.69438e-06
0.000260055
0.00387841
0.000144998
1.75648e-06
3.97898e-07
3.54027e-07
5.327e-07
1.22951e-06
5.18301e-09
1.00269e-09
5.80766e-10
7.02574e-10
1.55606e-09
4.03076e-09
8.41423e-09
1.44128e-08
1.78916e-08
1.5719e-08
6.63268e-09
4.77903e-09
5.40364e-09
6.74317e-09
2.8111e-06
1.44574e-05
6.11706e-05
1.48809e-06
1.7711e-07
5.85139e-08
1.13584e-07
8.29543e-08
2.95479e-07
8.46732e-09
1.27503e-09
4.21653e-11
7.59844e-11
2.82957e-10
8.66407e-10
1.607e-09
2.86082e-09
3.58493e-09
4.12927e-09
2.0685e-09
8.50487e-10
1.16216e-10
1.43663e-10
3.468e-08
1.23929e-07
3.96732e-07
1.1601e-08
4.0712e-09
6.07379e-09
2.36135e-08
9.86245e-09
2.23417e-08
3.44061e-09
3.47107e-09
5.5293e-12
6.34048e-13
2.11658e-12
8.76782e-12
3.56447e-11
1.27839e-10
2.09072e-10
2.99136e-10
1.14196e-10
3.88258e-11
7.67281e-12
8.08564e-12
6.54212e-09
4.53838e-10
1.31992e-10
1.51213e-10
5.42364e-11
8.09763e-10
1.67431e-09
3.64329e-10
3.45484e-10
2.2184e-11
5.24314e-12
6.86895e-13
2.06501e-14
8.9595e-14
3.72036e-13
2.28806e-12
7.78427e-12
1.38368e-11
1.69239e-11
1.25761e-11
4.47747e-12
5.65881e-13
3.9696e-13
1.51984e-09
1.39339e-10
1.39586e-11
4.13968e-11
0
8.18445e-11
1.52328e-10
4.02073e-12
4.12281e-13
7.66054e-15
3.66374e-15
4.44089e-15
4.94049e-15
7.99361e-15
2.03171e-14
6.9722e-14
3.00482e-13
7.69274e-13
1.06087e-12
1.00592e-12
2.41307e-13
3.57492e-14
1.74305e-14
9.71389e-11
2.98641e-11
2.41362e-13
2.15106e-13
1.70874e-12
1.73728e-12
2.9603e-12
2.47358e-13
6.55032e-15
2.83107e-15
3.44169e-15
3.9968e-15
4.94049e-15
3.9968e-15
4.44089e-15
5.38458e-15
1.51545e-14
3.45834e-14
6.60028e-14
7.30527e-14
1.98175e-14
2.60902e-15
8.88178e-16
3.85247e-13
2.38698e-14
8.82627e-15
4.55191e-15
4.32987e-15
5.38458e-15
5.66214e-15
4.21885e-15
5.16254e-15
4.38538e-15
3.88578e-15
5.4956e-15
4.71845e-15
4.10783e-15
4.32987e-15
3.16414e-15
4.94049e-15
5.21805e-15
5.21805e-15
3.10862e-15
3.88578e-16
0
0
1.01585e-14
3.94129e-15
6.43929e-15
4.77396e-15
5.21805e-15
5.88418e-15
5.93969e-15
5.10703e-15
5.60663e-15
5.9952e-15
4.60743e-15
5.10703e-15
4.32987e-15
5.77316e-15
6.16174e-15
5.27356e-15
5.21805e-15
4.16334e-15
2.33147e-15
9.4369e-16
0
0
0
5.44009e-15
3.27516e-15
7.38298e-15
7.38298e-15
5.93969e-15
5.88418e-15
7.04992e-15
5.77316e-15
4.60743e-15
5.32907e-15
4.16334e-15
3.9968e-15
3.27516e-15
4.38538e-15
4.66294e-15
6.38378e-15
4.60743e-15
3.94129e-15
2.88658e-15
3.27516e-15
4.44089e-16
0
1.94289e-15
6.32827e-15
3.05311e-15
6.21725e-15
6.21725e-15
4.60743e-15
5.44009e-15
5.66214e-15
5.16254e-15
4.21885e-15
4.77396e-15
3.9968e-15
5.10703e-15
4.77396e-15
5.93969e-15
4.38538e-15
5.9952e-15
5.60663e-15
3.83027e-15
3.60822e-15
3.83027e-15
1.16573e-15
0
1.44329e-15
8.49321e-15
2.83107e-15
4.16334e-15
5.82867e-15
4.77396e-15
5.60663e-15
6.66134e-15
4.60743e-15
2.83107e-15
5.10703e-15
4.38538e-15
4.16334e-15
5.71765e-15
6.43929e-15
5.27356e-15
6.55032e-15
5.10703e-15
4.82947e-15
4.60743e-15
1.05471e-15
2.22045e-16
0
4.44089e-16
8.71525e-15
2.44249e-15
4.55191e-15
5.38458e-15
6.60583e-15
4.66294e-15
5.32907e-15
4.27436e-15
4.10783e-15
6.99441e-15
5.32907e-15
3.66374e-15
4.77396e-15
6.38378e-15
4.32987e-15
5.05151e-15
6.38378e-15
4.77396e-15
2.88658e-15
1.4988e-15
1.66533e-16
0
9.99201e-16
9.15934e-15
2.72005e-15
4.38538e-15
5.10703e-15
7.71605e-15
4.77396e-15
4.21885e-15
6.60583e-15
3.10862e-15
5.93969e-15
6.43929e-15
3.66374e-15
5.05151e-15
5.4956e-15
5.4956e-15
5.71765e-15
6.32827e-15
5.21805e-15
4.16334e-15
1.4988e-15
3.88578e-16
0
0
1.04916e-14
1.66533e-15
4.71845e-15
6.10623e-15
7.71605e-15
4.32987e-15
6.38378e-15
6.16174e-15
5.16254e-15
5.21805e-15
4.88498e-15
4.27436e-15
6.77236e-15
5.77316e-15
5.16254e-15
6.21725e-15
5.05151e-15
5.60663e-15
4.66294e-15
3.33067e-15
6.10623e-16
0
0
1.06026e-14
2.66454e-15
5.32907e-15
5.16254e-15
4.38538e-15
3.83027e-15
6.88338e-15
6.4948e-15
5.16254e-15
6.88338e-15
5.55112e-15
4.21885e-15
5.77316e-15
4.05231e-15
5.71765e-15
6.38378e-15
4.77396e-15
5.27356e-15
3.88578e-15
2.83107e-15
0
0
3.88578e-16
7.71605e-15
2.55351e-15
4.55191e-15
3.44169e-15
4.21885e-15
3.27516e-15
7.82707e-15
6.4948e-15
5.71765e-15
5.82867e-15
4.88498e-15
5.10703e-15
4.44089e-15
4.77396e-15
6.10623e-15
6.38378e-15
6.21725e-15
5.32907e-15
5.16254e-15
2.88658e-15
1.72085e-15
0
0
7.99361e-15
3.55271e-15
4.16334e-15
3.83027e-15
3.83027e-15
2.10942e-15
6.99441e-15
6.16174e-15
6.16174e-15
5.4956e-15
4.21885e-15
5.55112e-15
5.10703e-15
5.77316e-15
5.4956e-15
6.88338e-15
5.93969e-15
4.4964e-15
2.9976e-15
3.94129e-15
2.66454e-15
0
0
6.66134e-15
1.4988e-15
4.60743e-15
3.83027e-15
2.66454e-15
1.38778e-15
5.66214e-15
4.44089e-15
2.44249e-15
5.55112e-15
4.27436e-15
4.82947e-15
5.93969e-15
5.60663e-15
3.44169e-15
5.9952e-15
6.10623e-15
6.05072e-15
5.60663e-15
3.60822e-15
9.99201e-16
0
9.4369e-16
3.9968e-15
9.4369e-16
1.77636e-15
6.10623e-16
3.10862e-15
0
3.55271e-15
2.83107e-15
1.88738e-15
5.88418e-15
3.05311e-15
3.55271e-15
5.88418e-15
1.83187e-15
2.10942e-15
5.10703e-15
4.05231e-15
5.55112e-15
4.996e-15
3.9968e-15
1.44329e-15
3.33067e-16
1.55431e-15
3.21965e-15
0
1.27676e-15
5.55112e-17
2.05391e-15
1.05471e-15
6.10623e-16
1.11022e-15
1.72085e-15
3.16414e-15
1.94289e-15
2.83107e-15
1.4988e-15
0
1.05471e-15
1.4988e-15
3.16414e-15
4.16334e-15
4.38538e-15
3.38618e-15
1.77636e-15
0
1.16573e-15
6.66134e-16
0
0
0
8.88178e-16
1.60982e-15
6.10623e-16
0
4.44089e-16
0
0
0
0
1.11022e-16
0
3.88578e-16
0
9.99201e-16
2.88658e-15
1.22125e-15
3.16414e-15
0
0
0
0
0
0
0
4.996e-16
0
0
0
0
0
0
0
0
0
0
0
0
0
0
0
6.27276e-15
5.88418e-15
0
0
1.11022e-15
0
5.55112e-16
2.498e-15
1.11022e-16
0
3.88578e-16
0
0
0
0
0
0
3.88578e-16
0
8.88178e-16
0
0
1.77636e-15
6.66134e-15
5.66214e-15
0.840445
0.842724
0.792823
0.131292
0.80715
0.827714
0.814581
0.664412
0.805218
0.81687
0.817671
0.814149
0.810721
0.811275
0.811106
0.809328
0.707894
0.711474
0.713507
0.71276
0.361439
0.398077
0.454416
0.5151
0.278132
0.307017
0.363678
0.364471
0.105706
0.118674
0.171106
0.177121
0.016602
0.0215936
0.0375702
0.0487367
0.00257846
0.002914
0.00454919
0.00635903
0.00161619
0.00158006
0.0015756
0.0015446
0.000639778
0.000516737
0.000421223
0.000358725
0.000195902
0.000210862
0.000112458
9.02129e-05
5.50575e-05
7.67377e-05
3.40288e-05
2.99867e-05
1.36471e-05
1.54349e-05
1.10018e-05
1.50211e-05
3.30525e-06
3.51963e-06
3.6478e-06
5.19422e-06
9.70144e-07
8.61511e-07
7.80868e-07
9.14978e-07
2.35355e-07
2.01402e-07
1.93785e-07
1.83616e-07
5.44308e-08
4.51879e-08
3.69443e-08
3.22941e-08
6.55982e-09
5.31239e-09
4.46965e-09
3.67562e-09
1.73645e-10
1.68187e-10
2.74143e-10
3.25359e-10
1.45092e-11
2.12997e-11
3.23648e-11
4.10071e-11
1.06742e-12
1.87161e-12
2.80265e-12
3.68006e-12
5.4512e-14
1.01308e-13
1.54154e-13
2.43416e-13
3.16414e-15
7.16094e-15
9.99201e-15
1.9984e-14
0
9.4369e-16
2.10942e-15
5.27356e-15
0
0
1.9984e-15
4.10783e-15
0
0
4.44089e-16
2.9976e-15
5.55112e-16
3.33067e-16
1.11022e-15
2.9976e-15
0
0
0
2.10942e-15
0
8.32667e-16
0
2.9976e-15
0
3.88578e-16
0
2.05391e-15
0
0
0
1.77636e-15
0
2.77556e-16
0
1.66533e-16
0
0
0
1.72085e-15
0
0
0
2.44249e-15
0
0
0
1.4988e-15
0
2.77556e-16
0
8.32667e-16
0
0
0
0
0
0
0
0
0
1.4988e-15
6.66134e-16
5.82867e-15
4.94049e-15
0
0
0
0.0138378
0.00670919
0.0431899
0.201424
0.253
0.255689
0.276419
0.315141
0.392056
0.373614
0.348451
0.280057
0.145018
0.051631
0.0150123
0.00301617
0.000426244
3.61157e-05
1.21532e-06
0.441279
0.155661
0.178431
0.260058
0.408602
0.533823
0.559396
0.542268
0.498297
0.390717
0.342317
0.255099
0.0914339
0.0311529
0.0152106
0.0057284
0.00116826
0.000127602
5.66782e-06
0.775819
0.718008
0.664105
0.656095
0.673249
0.67054
0.659383
0.58768
0.423335
0.205982
0.105811
0.0421537
0.0141881
0.00489608
0.00184354
0.00169065
0.000700441
9.06359e-05
4.19117e-06
0.797219
0.766957
0.70716
0.662999
0.634777
0.587535
0.470239
0.277297
0.154159
0.0986979
0.0689338
0.0478449
0.0298984
0.0151844
0.00629694
0.00197105
0.000475701
4.92691e-05
1.92789e-06
0.706766
0.699171
0.677882
0.634504
0.572497
0.46905
0.308297
0.158725
0.0885725
0.0673176
0.055181
0.0409851
0.0250227
0.0107331
0.00278371
0.000784889
0.00017231
1.56275e-05
5.49271e-07
0.54833
0.537299
0.542665
0.515291
0.451672
0.362678
0.218691
0.0881267
0.0378654
0.0264267
0.0268193
0.0272248
0.0232577
0.0120295
0.00291587
0.000441283
5.14519e-05
4.10292e-06
1.30434e-07
0.242275
0.162261
0.217325
0.210668
0.185561
0.159274
0.0896765
0.0269078
0.00948031
0.00818709
0.0106298
0.0136068
0.0127304
0.00779141
0.00206509
0.000227931
1.55964e-05
1.02435e-06
2.93633e-08
0.0898799
0.0244464
0.0352926
0.0350511
0.0443014
0.0384252
0.0221275
0.00803
0.00379906
0.00402593
0.00654427
0.00974918
0.0093864
0.0054149
0.0011923
9.24622e-05
5.10381e-06
2.62549e-07
6.52328e-09
0.0213435
0.00578733
0.00400867
0.0039745
0.00492165
0.00884295
0.00607525
0.00356957
0.00242236
0.00274541
0.00495182
0.00715989
0.00691595
0.00379207
0.000695221
4.13799e-05
1.98186e-06
7.65174e-08
1.55252e-09
0.00242079
0.00195057
0.00203329
0.00217531
0.00230582
0.00264117
0.00263029
0.00256795
0.00216993
0.00227797
0.00383685
0.00453688
0.00379821
0.00185704
0.000328475
1.91019e-05
8.64759e-07
2.64182e-08
4.26415e-10
0.00130762
0.0010909
0.00122832
0.00159499
0.00219752
0.00211996
0.00195909
0.0017233
0.00149334
0.00150127
0.00216052
0.00374146
0.00334341
0.00142687
0.000164287
8.74018e-06
3.73335e-07
9.92062e-09
1.31653e-10
0.000327061
0.000340686
0.000575498
0.00129191
0.00270165
0.00271086
0.0024236
0.00212053
0.00205365
0.00216787
0.00311293
0.00401298
0.0032655
0.00102721
7.62417e-05
3.77338e-06
1.48622e-07
3.58866e-09
4.15432e-11
8.15134e-05
0.000106732
0.000242616
0.000594956
0.00161337
0.00300243
0.00361888
0.00403889
0.00413919
0.00420563
0.00422158
0.00388916
0.00230463
0.000432745
3.00545e-05
1.40715e-06
5.10656e-08
1.15861e-09
1.23292e-11
2.88036e-05
5.36282e-05
0.000119047
0.00025001
0.000622039
0.0012609
0.00197513
0.00221258
0.00313772
0.00354571
0.00340277
0.00248491
0.000877674
0.000146758
1.01214e-05
4.61178e-07
1.56896e-08
3.36048e-10
3.28709e-12
1.57937e-05
3.04376e-05
5.48859e-05
0.00010228
0.0002153
0.000329528
0.000517685
0.000743673
0.00109525
0.00144061
0.00144705
0.00083097
0.000261762
4.33793e-05
2.81532e-06
1.1991e-07
4.1008e-09
8.53068e-11
7.88369e-13
4.19434e-06
3.37142e-06
6.16985e-06
1.38134e-05
3.95464e-05
6.75094e-05
0.000104592
0.000137226
0.000194597
0.00027704
0.00042104
0.000187658
5.69777e-05
9.64669e-06
6.50632e-07
2.78728e-08
9.40571e-10
1.88679e-11
1.72085e-13
1.01299e-06
9.36575e-07
1.60464e-06
3.26132e-06
9.64303e-06
1.5437e-05
2.30965e-05
3.33505e-05
6.21637e-05
8.95268e-05
9.89908e-05
3.82568e-05
1.18795e-05
2.07097e-06
1.31179e-07
5.5152e-09
1.82896e-10
3.62121e-12
3.56937e-14
2.09861e-07
2.10657e-07
5.32913e-07
9.32115e-07
1.81388e-06
3.47192e-06
5.8486e-06
1.24035e-05
1.83065e-05
2.00606e-05
1.90295e-05
5.12895e-06
1.84669e-06
3.25478e-07
2.13114e-08
9.55904e-10
3.09704e-11
6.02851e-13
7.27196e-15
3.1738e-08
2.80597e-08
5.11364e-08
1.1359e-07
3.56242e-07
9.53527e-07
1.89307e-06
3.02556e-06
3.56415e-06
2.52661e-06
3.1308e-06
9.16779e-07
2.94606e-07
4.70788e-08
3.10957e-09
1.47703e-10
4.76857e-12
9.12603e-14
2.94209e-15
3.51306e-09
3.76018e-09
7.52384e-09
2.56996e-08
5.25391e-08
8.92283e-08
2.32306e-07
4.18325e-07
2.14563e-07
3.24858e-07
3.99875e-07
1.21873e-07
3.69969e-08
6.16278e-09
3.88815e-10
1.78974e-11
6.17673e-13
1.19904e-14
2.10942e-15
4.71885e-10
7.93983e-10
1.10717e-09
1.92582e-09
3.50273e-09
1.20149e-08
2.97741e-08
4.65477e-08
2.10283e-08
4.88055e-08
6.75058e-08
1.68922e-08
4.42126e-09
7.45594e-10
4.73707e-11
1.94333e-12
7.13873e-14
3.33067e-16
1.44329e-15
6.27733e-11
1.03975e-10
1.84915e-10
2.60799e-10
3.19322e-10
1.12947e-09
1.66919e-09
8.56019e-10
2.64621e-09
6.46209e-09
9.04233e-09
1.95761e-09
4.48287e-10
7.5372e-11
5.03103e-12
2.01672e-13
7.49401e-15
0
2.22045e-15
5.75068e-12
1.23884e-11
2.17588e-11
2.8238e-11
3.50877e-11
1.20966e-10
1.60774e-10
1.27352e-10
4.3405e-10
6.29303e-10
6.50484e-10
1.85699e-10
4.54667e-11
7.04509e-12
4.30711e-13
2.18159e-14
2.05391e-15
0
3.77476e-15
4.59077e-13
1.16795e-12
2.17104e-12
2.79493e-12
3.56193e-12
1.28846e-11
1.7305e-11
2.19058e-11
4.76511e-11
5.36015e-11
4.38181e-11
1.61499e-11
3.98348e-12
4.92384e-13
3.58602e-14
3.71925e-15
9.99201e-16
4.996e-16
6.10623e-15
3.92464e-14
9.14269e-14
1.80356e-13
2.41585e-13
3.40339e-13
1.21209e-12
1.73567e-12
2.63889e-12
4.81476e-12
4.18887e-12
4.03649e-12
1.29052e-12
2.78944e-13
3.43059e-14
6.38378e-15
3.10862e-15
1.55431e-15
1.60982e-15
6.05072e-15
7.16094e-15
7.88258e-15
1.84297e-14
2.47025e-14
3.09197e-14
1.00697e-13
1.51601e-13
2.40197e-13
4.578e-13
3.00981e-13
3.39229e-13
9.65339e-14
2.29816e-14
5.60663e-15
2.38698e-15
3.44169e-15
1.4988e-15
5.55112e-16
4.4964e-15
5.27356e-15
3.66374e-15
3.33067e-15
3.94129e-15
4.38538e-15
9.65894e-15
1.40443e-14
2.02061e-14
4.29656e-14
2.15383e-14
2.84772e-14
9.10383e-15
5.88418e-15
3.21965e-15
2.60902e-15
3.33067e-15
1.77636e-15
3.33067e-16
2.55351e-15
5.82867e-15
3.9968e-15
5.27356e-15
3.27516e-15
3.16414e-15
3.16414e-15
3.71925e-15
1.94289e-15
4.71845e-15
5.82867e-15
5.55112e-15
4.16334e-15
4.21885e-15
4.44089e-15
3.88578e-15
2.55351e-15
2.27596e-15
0
3.05311e-15
4.44089e-15
2.94209e-15
4.38538e-15
3.10862e-15
3.88578e-15
2.88658e-15
1.38778e-15
2.38698e-15
2.83107e-15
4.16334e-15
4.88498e-15
5.05151e-15
3.10862e-15
3.83027e-15
4.05231e-15
3.88578e-15
2.88658e-15
0
1.83187e-15
5.44009e-15
4.82947e-15
5.55112e-15
5.55112e-15
5.10703e-15
2.33147e-15
2.66454e-15
3.66374e-15
3.33067e-15
3.4972e-15
4.16334e-15
5.21805e-15
3.4972e-15
4.94049e-15
3.60822e-15
4.16334e-15
2.60902e-15
5.55112e-17
2.38698e-15
3.9968e-15
2.66454e-15
4.44089e-15
4.10783e-15
2.72005e-15
2.498e-15
1.83187e-15
2.77556e-15
3.05311e-15
3.16414e-15
2.88658e-15
2.94209e-15
3.94129e-15
3.77476e-15
1.66533e-15
2.94209e-15
3.4972e-15
0
3.66374e-15
4.94049e-15
3.60822e-15
4.94049e-15
3.21965e-15
3.10862e-15
1.83187e-15
1.38778e-15
2.38698e-15
1.83187e-15
2.44249e-15
3.71925e-15
2.72005e-15
3.44169e-15
3.71925e-15
2.05391e-15
1.88738e-15
3.44169e-15
0
2.94209e-15
4.77396e-15
3.83027e-15
5.71765e-15
3.60822e-15
3.44169e-15
2.60902e-15
3.05311e-15
2.27596e-15
2.33147e-15
2.66454e-15
3.33067e-15
3.33067e-15
3.44169e-15
5.32907e-15
4.94049e-15
2.66454e-15
2.38698e-15
0
3.4972e-15
2.9976e-15
2.16493e-15
3.33067e-15
1.88738e-15
2.44249e-15
3.05311e-15
3.33067e-15
3.71925e-15
4.16334e-15
2.55351e-15
1.11022e-15
3.33067e-15
3.88578e-15
3.88578e-15
3.83027e-15
3.55271e-15
1.83187e-15
1.05471e-15
4.32987e-15
4.55191e-15
3.77476e-15
4.10783e-15
1.83187e-15
2.27596e-15
2.88658e-15
2.33147e-15
2.66454e-15
4.16334e-15
3.38618e-15
2.22045e-15
3.44169e-15
2.44249e-15
4.88498e-15
5.4956e-15
2.88658e-15
2.10942e-15
0
2.22045e-15
4.71845e-15
2.10942e-15
3.16414e-15
2.55351e-15
2.44249e-15
4.16334e-15
3.44169e-15
2.94209e-15
2.16493e-15
3.83027e-15
3.77476e-15
3.10862e-15
2.27596e-15
3.88578e-15
5.66214e-15
2.66454e-15
1.60982e-15
8.32667e-16
2.60902e-15
2.94209e-15
1.66533e-15
5.32907e-15
4.38538e-15
5.55112e-15
6.21725e-15
3.71925e-15
4.77396e-15
2.9976e-15
3.38618e-15
3.66374e-15
2.44249e-15
2.22045e-15
3.94129e-15
3.16414e-15
4.44089e-15
2.94209e-15
7.21645e-16
4.32987e-15
3.4972e-15
2.10942e-15
3.9968e-15
6.05072e-15
4.88498e-15
2.77556e-15
3.66374e-15
5.21805e-15
1.88738e-15
2.77556e-15
3.66374e-15
2.88658e-15
2.72005e-15
2.498e-15
3.44169e-15
5.05151e-15
5.05151e-15
0
4.71845e-15
2.55351e-15
2.05391e-15
2.66454e-15
4.44089e-15
4.88498e-15
3.4972e-15
1.22125e-15
3.94129e-15
2.38698e-15
1.66533e-15
3.77476e-15
2.77556e-15
3.88578e-15
1.83187e-15
3.66374e-15
4.16334e-15
3.4972e-15
0
2.22045e-15
3.05311e-15
1.11022e-16
3.66374e-15
4.16334e-15
4.10783e-15
3.10862e-15
1.83187e-15
3.55271e-15
3.16414e-15
3.44169e-15
3.44169e-15
4.32987e-15
4.55191e-15
2.94209e-15
4.82947e-15
4.21885e-15
4.38538e-15
0
1.72085e-15
4.4964e-15
0
0
0
3.33067e-16
0
0
5.55112e-16
5.55112e-17
8.32667e-16
8.32667e-16
6.66134e-16
8.32667e-16
0
1.4988e-15
1.27676e-15
1.72085e-15
1.05471e-15
7.77156e-16
2.22045e-16
3.83027e-15
0
7.21645e-16
1.72085e-15
7.77156e-16
0
2.77556e-16
9.99201e-16
2.22045e-15
1.27676e-15
1.38778e-15
2.55351e-15
1.88738e-15
1.66533e-15
1.72085e-15
2.16493e-15
1.88738e-15
0
)
;

boundaryField
{
    leftWall
    {
        type            zeroGradient;
    }
    rightWall
    {
        type            zeroGradient;
    }
    lowerWall
    {
        type            zeroGradient;
    }
    atmosphere
    {
        type            inletOutlet;
        inletValue      uniform 0;
        value           nonuniform List<scalar> 
46
(
0
0
1.11022e-15
0
5.55112e-16
2.498e-15
1.11022e-16
0
3.88578e-16
0
0
0
0
0
0
3.88578e-16
0
8.88178e-16
0
0
1.77636e-15
6.66134e-15
5.66214e-15
4.94049e-15
0
0
0
2.22045e-16
3.83027e-15
0
7.21645e-16
1.72085e-15
7.77156e-16
0
2.77556e-16
9.99201e-16
2.22045e-15
1.27676e-15
1.38778e-15
2.55351e-15
1.88738e-15
1.66533e-15
1.72085e-15
2.16493e-15
1.88738e-15
0
)
;
    }
    defaultFaces
    {
        type            empty;
    }
}


// ************************************************************************* //
