/*--------------------------------*- C++ -*----------------------------------*\
| =========                 |                                                 |
| \\      /  F ield         | foam-extend: Open Source CFD                    |
|  \\    /   O peration     | Version:     4.1                                |
|   \\  /    A nd           | Web:         http://www.foam-extend.org         |
|    \\/     M anipulation  |                                                 |
\*---------------------------------------------------------------------------*/
FoamFile
{
    version     2.0;
    format      ascii;
    class       volScalarField;
    location    "0.3";
    object      C;
}
// * * * * * * * * * * * * * * * * * * * * * * * * * * * * * * * * * * * * * //

dimensions      [0 0 0 0 0 0 0];

internalField   nonuniform List<scalar> 
2268
(
1
1
1
1
1
1
1
1
1
1
1
1
0.999978
0.999549
0.999424
0.999125
0.998154
0.996209
0.989772
0.909023
0.824053
0.819122
-0.353037
1
1
1
1
1
1
1
1
1
1
1
0.999997
0.999303
0.98874
0.992634
0.993085
0.987295
0.894946
0.884156
0.777126
0.590772
0.756901
0.738287
1
1
1
1
1
1
1
1
1
1
0.999999
0.999986
0.988288
0.94843
0.962605
0.971433
0.92511
0.612263
0.421304
0.36125
0.362198
0.548589
0.721278
1
1
1
1
1
1
1
1
1
0.999999
0.999993
0.999962
0.936202
0.876981
0.844361
0.818966
0.705325
0.304288
0.357364
0.514726
0.519575
0.538141
0.705688
1
1
1
1
1
1
1
1
0.999999
0.999993
0.999942
0.999969
0.986076
0.991287
0.979624
0.962053
0.920872
0.703259
0.721674
0.735748
0.679931
0.562934
0.679705
1
1
1
1
1
1
1
0.999999
0.999983
0.999954
0.999826
0.999815
0.9998
0.999782
0.999257
0.997317
0.990975
0.9668
0.955739
0.926938
0.765726
0.599986
0.690541
1
1
1
1
1
1
0.999999
0.999992
0.999864
0.999712
0.999417
0.998884
0.99921
0.998928
0.998218
0.993197
0.978748
0.953622
0.914912
0.886011
0.725106
0.608177
0.682386
1
1
1
1
1
0.999999
0.999996
0.999933
0.999248
0.99856
0.997346
0.997131
0.996359
0.994872
0.995924
0.987958
0.949068
0.879754
0.710452
0.694281
0.57387
0.593594
0.683101
-1
-1
-0.999995
-0.999955
-0.999767
-0.999244
-0.998352
-0.997011
-0.995252
-0.991758
-0.987433
-0.998815
-0.999798
-0.999979
-0.999998
-1
-1
-1
-1
-1
-0.999999
-0.999991
-0.999937
-0.999712
-0.999065
-0.997552
-0.993402
-0.985741
-0.95311
-0.939469
-0.987828
-0.997521
-0.999615
-0.999959
-0.999997
-1
-1
-1
-1
-0.999998
-0.999986
-0.999934
-0.999759
-0.999352
-0.998673
-0.997145
-0.982424
-0.867197
-0.8392
-0.927419
-0.982991
-0.996881
-0.999604
-0.999966
-0.999998
-1
-1
-0.999999
-0.999993
-0.999976
-0.999929
-0.999836
-0.999615
-0.999325
-0.99737
-0.947687
-0.702795
-0.670672
-0.807661
-0.943023
-0.986878
-0.997799
-0.999772
-0.999983
-0.999999
-1
-0.999996
-0.999976
-0.9999
-0.999603
-0.998885
-0.998543
-0.998187
-0.993898
-0.766904
-0.528563
-0.537755
-0.741116
-0.905082
-0.969549
-0.992867
-0.999028
-0.999917
-0.999996
-1
-0.999983
-0.999871
-0.999002
-0.99489
-0.991556
-0.992943
-0.991163
-0.975891
-0.591191
-0.432703
-0.447418
-0.62046
-0.814804
-0.931593
-0.98109
-0.996835
-0.999683
-0.999983
-1
-0.999955
-0.999654
-0.998095
-0.965141
-0.954745
-0.965955
-0.961254
-0.908861
-0.524764
-0.356377
-0.368864
-0.495701
-0.725935
-0.896587
-0.969046
-0.993434
-0.99922
-0.999954
-0.999999
-0.999855
-0.999185
-0.991427
-0.831072
-0.820343
-0.8682
-0.879592
-0.722692
-0.373138
-0.301029
-0.326424
-0.449535
-0.69804
-0.88728
-0.966426
-0.991834
-0.998724
-0.999892
-0.999997
0.999999
0.999998
0.999998
0.999997
0.999998
0.999993
0.999968
0.999211
0.99377
0.990818
0.987014
0.987349
0.981018
0.981453
0.981362
0.978624
0.976894
0.958616
0.85472
0.659707
0.396639
0.464632
0.653792
0.999976
0.999975
0.999982
0.99998
0.999988
0.99994
0.999745
0.992517
0.951954
0.938362
0.928575
0.875724
0.865306
0.849278
0.866665
0.880225
0.897444
0.920782
0.90561
0.798495
0.523826
0.457037
0.529443
0.99963
0.999772
0.999859
0.999879
0.999922
0.999631
0.998615
0.959631
0.779828
0.702513
0.651665
0.554508
0.50982
0.323877
0.438517
0.574512
0.649277
0.733938
0.804943
0.79539
0.687772
0.529674
0.567886
0.996494
0.997874
0.99923
0.999374
0.999532
0.998211
0.994339
0.837613
0.255461
-0.00207789
0.0888923
-0.160259
-0.133405
-0.358237
-0.141405
-0.0781081
0.0624665
0.205039
0.511385
0.714618
0.687905
0.640994
0.620255
0.978907
0.98775
0.996065
0.997432
0.996789
0.993397
0.982329
0.666143
-0.233736
-0.450061
-0.501723
-0.594302
-0.60276
-0.658705
-0.674834
-0.69314
-0.604544
-0.488622
-0.0638044
0.300185
0.428424
0.452149
0.408674
0.910455
0.948865
0.984584
0.988787
0.984088
0.974397
0.95306
0.640554
-0.230595
-0.497863
-0.600077
-0.665294
-0.711474
-0.771944
-0.829349
-0.854899
-0.824308
-0.757746
-0.490448
-0.345008
-0.320521
-0.330906
-0.322019
0.703238
0.801808
0.93711
0.951815
0.932866
0.921948
0.891244
0.67911
0.19425
-0.0719232
-0.330002
-0.557339
-0.679385
-0.780927
-0.884588
-0.912734
-0.895542
-0.902689
-0.865151
-0.813414
-0.75939
-0.678493
-0.538307
0.209608
0.315138
0.752947
0.825892
0.75616
0.780559
0.774225
0.593368
0.251416
0.145825
0.00793798
-0.266189
-0.550911
-0.752935
-0.905551
-0.949619
-0.957775
-0.974098
-0.969403
-0.941354
-0.876955
-0.879319
-0.821775
-0.449888
-0.343457
0.364314
0.50532
0.269667
0.518836
0.558485
0.283921
0.17995
0.160033
0.085047
-0.161315
-0.503681
-0.755127
-0.917544
-0.969782
-0.987428
-0.992997
-0.993885
-0.99306
-0.974029
-0.97617
-0.97557
-0.725287
-0.536128
0.224617
0.0334564
-0.237927
0.175887
0.357391
0.131181
-0.0362764
-0.0108745
-0.0159164
-0.258904
-0.708437
-0.877149
-0.968864
-0.986311
-0.994674
-0.997317
-0.998026
-0.997145
-0.996762
-0.997103
-0.996585
-0.755128
-0.535564
0.248283
-0.273702
-0.551502
-0.339579
-0.175919
-0.440733
-0.567422
-0.446344
-0.438983
-0.697574
-0.922056
-0.962886
-0.996458
-0.998194
-0.998419
-0.998753
-0.998939
-0.997098
-0.997658
-0.998064
-0.997184
-0.740842
-0.538141
0.0154028
-0.511681
-0.774275
-0.810105
-0.697975
-0.829137
-0.863579
-0.746451
-0.843436
-0.949005
-0.991443
-0.998457
-0.998617
-0.998578
-0.998497
-0.999091
-0.998521
-0.996583
-0.998172
-0.99854
-0.998198
-0.735496
-0.751534
-0.420089
-0.742632
-0.919287
-0.985084
-0.896317
-0.946968
-0.947328
-0.872812
-0.891298
-0.975029
-0.987273
-0.998074
-0.998714
-0.998685
-0.998268
-0.998333
-0.99749
-0.998413
-0.99887
-0.999221
-0.999534
-0.887561
-0.894039
-0.578148
-0.859799
-0.978712
-0.998949
-0.977379
-0.982301
-0.972261
-0.906245
-0.88482
-0.926588
-0.910188
-0.995369
-0.999263
-0.999375
-0.998747
-0.999072
-0.999482
-0.999578
-0.999496
-0.999708
-0.999825
-0.960994
-0.939249
-0.659203
-0.907193
-0.992721
-0.999668
-0.997797
-0.995957
-0.974902
-0.837917
-0.714947
-0.853049
-0.873859
-0.993498
-0.999671
-0.999803
-0.999781
-0.999929
-0.99994
-0.999927
-0.999891
-0.999926
-0.999948
-0.983382
-0.954808
-0.693275
-0.94292
-0.998348
-0.999949
-0.999832
-0.999588
-0.999391
-0.98789
-0.876705
-0.594616
-0.885699
-0.999082
-0.999931
-0.999921
-0.999937
-0.999979
-0.999987
-0.99999
-0.999989
-0.999992
-0.999988
-0.992484
-0.97077
-0.792408
-0.978052
-0.999672
-0.999989
-0.999994
-0.999962
-0.999803
-0.996922
-0.961459
-0.621822
-0.969607
-0.999989
-0.999983
-0.999977
-0.999981
-0.999991
-0.999995
-0.999998
-0.999999
-0.999999
-0.999998
-0.999497
-0.985527
-0.913745
-0.987507
-0.999764
-0.999994
-0.999996
-0.999983
-0.99988
-0.999143
-0.99425
-0.975853
-0.999997
-0.999999
-0.999996
-0.999995
-0.999996
-0.999999
-0.999999
-0.999999
-1
-1
-1
-0.999967
-0.993752
-0.973273
-0.995632
-0.999927
-0.999997
-0.999998
-0.999998
-0.999999
-1
-1
-0.999999
-1
-1
-1
-1
-1
-1
-1
-1
-1
-1
-1
-0.999987
-0.99948
-0.992243
-0.99971
-0.999996
-0.999999
-0.999999
-0.999999
-0.999998
-1
-1
-1
-1
-1
-1
-1
-1
-1
-1
-1
-1
-1
-1
-0.999994
-0.999971
-0.999878
-0.999997
-1
-1
-1
-1
-0.999999
-1
-1
-1
-1
-1
-1
-1
-1
-1
-1
-1
-1
-1
-1
-1
-1
-0.999999
-1
-1
-1
-1
-1
-1
-1
-1
-1
-1
-1
-1
-1
-1
-1
-1
-1
-1
-1
-1
-1
-1
-1
-1
-1
-1
-1
-1
-1
-1
-1
-1
-1
-1
-1
-1
-1
-1
-1
-1
-1
-1
-1
-1
-1
-1
-1
-1
-1
-1
-1
-1
-1
-1
-1
-1
-1
-1
-1
-1
-1
-1
-1
-1
-1
-1
-1
-1
-1
-1
-1
-1
-1
-1
-1
-1
-1
-1
-1
-1
-1
-1
-1
-1
-1
-1
-1
-1
-1
-1
-1
-1
-1
-1
-1
-1
-1
-1
-1
-1
-1
-1
-1
-1
-1
-1
-1
-1
-1
-1
-1
-1
-1
-1
-1
-1
-1
-1
-1
-1
-1
-1
-1
-1
-1
-1
-1
-1
-1
-1
-1
-1
-1
-1
-1
-1
-1
-1
-1
-1
-1
-1
-1
-1
-1
-1
-1
-1
-1
-1
-1
-1
-1
-1
-1
-1
-1
-1
-1
-1
-1
-1
-1
-1
-1
-1
-1
-1
-1
-1
-1
-1
-1
-1
-1
-1
-1
-1
-1
-1
-1
-1
-1
-1
-1
-1
-1
-1
-1
-1
-1
-1
-1
-1
-1
-1
-1
-1
-1
-1
-1
-1
-1
-1
-1
-1
-1
-1
-1
-1
-1
-1
-1
-1
-1
-1
-1
-1
-1
-1
-1
-1
-1
-1
-1
-1
-1
-1
-1
-1
-1
-1
-1
-1
-1
-1
-1
-1
-1
-1
-1
-1
-1
-1
-1
-1
-1
-1
-1
-1
-1
-1
-1
-1
-1
-1
-1
-1
-1
-1
-1
-1
-1
-1
-1
-1
-1
-1
-1
-1
-1
-1
-1
-1
-1
-1
-1
-1
-1
-1
-1
-1
-1
-1
-1
-1
-1
-1
-1
-1
-1
-1
-1
-1
-1
-1
-1
-1
-1
-1
-1
-1
-1
-1
-1
-1
-1
-1
-1
-1
-1
-1
-1
-1
-1
-1
-1
-1
-1
-1
-1
-1
-1
-1
-1
-1
-1
-1
-1
-1
-1
-1
-1
-1
-1
-1
-1
-1
-1
-1
-1
-1
-1
-1
-1
-1
-1
-1
-1
-1
-1
-1
-1
-1
-1
-1
-1
-1
-1
-1
-1
-1
-1
-1
-1
-1
-1
-1
-1
-1
-1
-1
-1
-1
-1
-1
-1
-1
-1
-1
-1
-1
-1
-1
-1
-1
-1
-1
-1
-1
-1
-1
-1
-1
-1
-1
-1
-1
-1
-1
-1
-1
-1
-1
-1
-1
-1
-1
-1
-1
-1
-1
-1
-1
-1
-1
-1
-1
-1
-1
-1
-1
-1
-1
-1
-1
-1
-1
-1
-1
-1
-1
-1
-1
-1
-1
-1
-1
-1
-1
-1
-1
-1
-1
-1
-1
-1
-1
-1
-1
-1
-1
-1
-1
-1
-1
-1
-1
-1
-1
-1
-1
-1
-1
-1
-1
-1
-1
-1
-1
-1
-1
-1
-1
-1
-1
-1
-1
-1
-1
0.68089
0.685448
0.585646
-0.737416
0.614301
0.655428
0.629163
0.328823
0.610437
0.633741
0.635342
0.628299
0.621441
0.62255
0.622213
0.618656
0.415788
0.422947
0.427015
0.425519
-0.277122
-0.203845
-0.0911683
0.0302003
-0.443736
-0.385966
-0.272644
-0.271057
-0.788588
-0.762653
-0.657788
-0.645758
-0.966796
-0.956813
-0.92486
-0.902527
-0.994843
-0.994172
-0.990902
-0.987282
-0.996768
-0.99684
-0.996849
-0.996911
-0.99872
-0.998967
-0.999158
-0.999283
-0.999608
-0.999578
-0.999775
-0.99982
-0.99989
-0.999847
-0.999932
-0.99994
-0.999973
-0.999969
-0.999978
-0.99997
-0.999993
-0.999993
-0.999993
-0.99999
-0.999998
-0.999998
-0.999998
-0.999998
-1
-1
-1
-1
-1
-1
-1
-1
-1
-1
-1
-1
-1
-1
-1
-1
-1
-1
-1
-1
-1
-1
-1
-1
-1
-1
-1
-1
-1
-1
-1
-1
-1
-1
-1
-1
-1
-1
-1
-1
-1
-1
-1
-1
-1
-1
-1
-1
-1
-1
-1
-1
-1
-1
-1
-1
-1
-1
-1
-1
-1
-1
-1
-1
-1
-1
-1
-1
-1
-1
-1
-1
-1
-1
-1
-1
-1
-1
-1
-1
-1
-1
-1
-1
-1
-1
-1
-1
-1
-1
-1
-1
-1
-1
-1
-1
-1
-1
-1
-1
-0.972324
-0.986582
-0.91362
-0.597152
-0.494
-0.488623
-0.447163
-0.369718
-0.215888
-0.252771
-0.303099
-0.439887
-0.709964
-0.896738
-0.969975
-0.993968
-0.999148
-0.999928
-0.999998
-0.117442
-0.688679
-0.643138
-0.479885
-0.182796
0.0676457
0.118792
0.0845366
-0.00340605
-0.218566
-0.315366
-0.489802
-0.817132
-0.937694
-0.969579
-0.988543
-0.997663
-0.999745
-0.999989
0.551638
0.436016
0.32821
0.31219
0.346499
0.341079
0.318765
0.17536
-0.15333
-0.588035
-0.788379
-0.915693
-0.971624
-0.990208
-0.996313
-0.996619
-0.998599
-0.999819
-0.999992
0.594439
0.533914
0.414321
0.325998
0.269553
0.17507
-0.0595214
-0.445405
-0.691682
-0.802604
-0.862132
-0.90431
-0.940203
-0.969631
-0.987406
-0.996058
-0.999049
-0.999901
-0.999996
0.413532
0.398343
0.355763
0.269008
0.144994
-0.0619008
-0.383406
-0.68255
-0.822855
-0.865365
-0.889638
-0.91803
-0.949955
-0.978534
-0.994433
-0.99843
-0.999655
-0.999969
-0.999999
0.0966607
0.0745973
0.0853297
0.0305811
-0.0966553
-0.274645
-0.562618
-0.823747
-0.924269
-0.947147
-0.946361
-0.94555
-0.953485
-0.975941
-0.994168
-0.999117
-0.999897
-0.999992
-1
-0.515449
-0.675478
-0.56535
-0.578663
-0.628878
-0.681452
-0.820647
-0.946184
-0.981039
-0.983626
-0.97874
-0.972786
-0.974539
-0.984417
-0.99587
-0.999544
-0.999969
-0.999998
-1
-0.82024
-0.951107
-0.929415
-0.929898
-0.911397
-0.92315
-0.955745
-0.98394
-0.992402
-0.991948
-0.986911
-0.980502
-0.981227
-0.98917
-0.997615
-0.999815
-0.99999
-0.999999
-1
-0.957313
-0.988425
-0.991983
-0.992051
-0.990157
-0.982314
-0.987849
-0.992861
-0.995155
-0.994509
-0.990096
-0.98568
-0.986168
-0.992416
-0.99861
-0.999917
-0.999996
-1
-1
-0.995158
-0.996099
-0.995933
-0.995649
-0.995388
-0.994718
-0.994739
-0.994864
-0.99566
-0.995444
-0.992326
-0.990926
-0.992404
-0.996286
-0.999343
-0.999962
-0.999998
-1
-1
-0.997385
-0.997818
-0.997543
-0.99681
-0.995605
-0.99576
-0.996082
-0.996553
-0.997013
-0.996997
-0.995679
-0.992517
-0.993313
-0.997146
-0.999671
-0.999983
-0.999999
-1
-1
-0.999346
-0.999319
-0.998849
-0.997416
-0.994597
-0.994578
-0.995153
-0.995759
-0.995893
-0.995664
-0.993774
-0.991974
-0.993469
-0.997946
-0.999848
-0.999992
-1
-1
-1
-0.999837
-0.999787
-0.999515
-0.99881
-0.996773
-0.993995
-0.992762
-0.991922
-0.991722
-0.991589
-0.991557
-0.992222
-0.995391
-0.999135
-0.99994
-0.999997
-1
-1
-1
-0.999942
-0.999893
-0.999762
-0.9995
-0.998756
-0.997478
-0.99605
-0.995575
-0.993725
-0.992909
-0.993194
-0.99503
-0.998245
-0.999706
-0.99998
-0.999999
-1
-1
-1
-0.999968
-0.999939
-0.99989
-0.999795
-0.999569
-0.999341
-0.998965
-0.998513
-0.99781
-0.997119
-0.997106
-0.998338
-0.999476
-0.999913
-0.999994
-1
-1
-1
-1
-0.999992
-0.999993
-0.999988
-0.999972
-0.999921
-0.999865
-0.999791
-0.999726
-0.999611
-0.999446
-0.999158
-0.999625
-0.999886
-0.999981
-0.999999
-1
-1
-1
-1
-0.999998
-0.999998
-0.999997
-0.999993
-0.999981
-0.999969
-0.999954
-0.999933
-0.999876
-0.999821
-0.999802
-0.999923
-0.999976
-0.999996
-1
-1
-1
-1
-1
-1
-1
-0.999999
-0.999998
-0.999996
-0.999993
-0.999988
-0.999975
-0.999963
-0.99996
-0.999962
-0.99999
-0.999996
-0.999999
-1
-1
-1
-1
-1
-1
-1
-1
-1
-0.999999
-0.999998
-0.999996
-0.999994
-0.999993
-0.999995
-0.999994
-0.999998
-0.999999
-1
-1
-1
-1
-1
-1
-1
-1
-1
-1
-1
-1
-1
-0.999999
-1
-0.999999
-0.999999
-1
-1
-1
-1
-1
-1
-1
-1
-1
-1
-1
-1
-1
-1
-1
-1
-1
-1
-1
-1
-1
-1
-1
-1
-1
-1
-1
-1
-1
-1
-1
-1
-1
-1
-1
-1
-1
-1
-1
-1
-1
-1
-1
-1
-1
-1
-1
-1
-1
-1
-1
-1
-1
-1
-1
-1
-1
-1
-1
-1
-1
-1
-1
-1
-1
-1
-1
-1
-1
-1
-1
-1
-1
-1
-1
-1
-1
-1
-1
-1
-1
-1
-1
-1
-1
-1
-1
-1
-1
-1
-1
-1
-1
-1
-1
-1
-1
-1
-1
-1
-1
-1
-1
-1
-1
-1
-1
-1
-1
-1
-1
-1
-1
-1
-1
-1
-1
-1
-1
-1
-1
-1
-1
-1
-1
-1
-1
-1
-1
-1
-1
-1
-1
-1
-1
-1
-1
-1
-1
-1
-1
-1
-1
-1
-1
-1
-1
-1
-1
-1
-1
-1
-1
-1
-1
-1
-1
-1
-1
-1
-1
-1
-1
-1
-1
-1
-1
-1
-1
-1
-1
-1
-1
-1
-1
-1
-1
-1
-1
-1
-1
-1
-1
-1
-1
-1
-1
-1
-1
-1
-1
-1
-1
-1
-1
-1
-1
-1
-1
-1
-1
-1
-1
-1
-1
-1
-1
-1
-1
-1
-1
-1
-1
-1
-1
-1
-1
-1
-1
-1
-1
-1
-1
-1
-1
-1
-1
-1
-1
-1
-1
-1
-1
-1
-1
-1
-1
-1
-1
-1
-1
-1
-1
-1
-1
-1
-1
-1
-1
-1
-1
-1
-1
-1
-1
-1
-1
-1
-1
-1
-1
-1
-1
-1
-1
-1
-1
-1
-1
-1
-1
-1
-1
-1
-1
-1
-1
-1
-1
-1
-1
-1
-1
-1
-1
-1
-1
-1
-1
-1
-1
-1
-1
-1
-1
-1
-1
-1
-1
-1
-1
-1
-1
-1
-1
-1
-1
-1
-1
-1
-1
-1
-1
-1
-1
-1
-1
-1
-1
-1
-1
-1
-1
-1
-1
-1
-1
-1
-1
-1
-1
-1
-1
-1
-1
-1
-1
-1
-1
-1
-1
-1
-1
-1
-1
-1
-1
-1
-1
-1
-1
-1
-1
-1
-1
-1
-1
-1
-1
-1
-1
-1
-1
-1
-1
-1
-1
-1
-1
-1
-1
-1
-1
-1
-1
-1
-1
-1
-1
-1
-1
-1
-1
-1
-1
-1
-1
-1
-1
-1
-1
-1
-1
-1
-1
-1
-1
-1
-1
-1
-1
-1
-1
-1
-1
-1
-1
-1
-1
-1
-1
-1
-1
-1
-1
-1
-1
-1
-1
-1
-1
-1
-1
-1
-1
-1
)
;

boundaryField
{
    leftWall
    {
        type            zeroGradient;
    }
    rightWall
    {
        type            zeroGradient;
    }
    lowerWall
    {
        type            zeroGradient;
    }
    atmosphere
    {
        type            zeroGradient;
    }
    defaultFaces
    {
        type            empty;
    }
}


// ************************************************************************* //
