/*--------------------------------*- C++ -*----------------------------------*\
| =========                 |                                                 |
| \\      /  F ield         | foam-extend: Open Source CFD                    |
|  \\    /   O peration     | Version:     4.1                                |
|   \\  /    A nd           | Web:         http://www.foam-extend.org         |
|    \\/     M anipulation  |                                                 |
\*---------------------------------------------------------------------------*/
FoamFile
{
    version     2.0;
    format      ascii;
    class       volScalarField;
    location    "0.3";
    object      C_0;
}
// * * * * * * * * * * * * * * * * * * * * * * * * * * * * * * * * * * * * * //

dimensions      [0 0 0 0 0 0 0];

internalField   nonuniform List<scalar> 
2268
(
1
1
1
1
1
1
1
1
1
1
1
1
0.999975
0.99953
0.99941
0.9991
0.998052
0.995997
0.989011
0.899703
0.818708
0.822334
-0.35617
1
1
1
1
1
1
1
1
1
1
1
0.999997
0.999242
0.988246
0.992475
0.992954
0.986498
0.894002
0.883478
0.766129
0.584358
0.750368
0.736792
1
1
1
1
1
1
1
1
1
1
0.999999
0.999984
0.987311
0.945923
0.96212
0.970597
0.918378
0.599845
0.415075
0.359342
0.359956
0.544568
0.723699
1
1
1
1
1
1
1
1
1
0.999999
0.999993
0.999958
0.929529
0.870782
0.839691
0.813376
0.687226
0.281086
0.36051
0.51766
0.518683
0.538835
0.708551
1
1
1
1
1
1
1
1
0.999999
0.999993
0.999945
0.999971
0.985485
0.991122
0.979397
0.961343
0.915111
0.695856
0.725864
0.736105
0.672115
0.562588
0.682818
1
1
1
1
1
1
1
0.999999
0.999985
0.999958
0.999834
0.999824
0.999809
0.999784
0.999234
0.997201
0.990151
0.96606
0.954324
0.920962
0.742762
0.599589
0.692487
1
1
1
1
1
1
0.999999
0.999993
0.999877
0.999736
0.999443
0.998939
0.999233
0.998962
0.998205
0.992335
0.976173
0.949765
0.912136
0.878479
0.700605
0.606608
0.684618
1
1
1
1
1
0.999999
0.999996
0.99994
0.99932
0.998686
0.997449
0.997233
0.996469
0.99509
0.996079
0.986935
0.944475
0.871051
0.699709
0.683828
0.551057
0.589521
0.688109
-1
-1
-0.999996
-0.999969
-0.999834
-0.999426
-0.998673
-0.997491
-0.995991
-0.993372
-0.990193
-0.999115
-0.999857
-0.999989
-0.999999
-1
-1
-1
-1
-1
-0.999999
-0.999993
-0.999951
-0.999772
-0.999225
-0.997839
-0.994049
-0.986868
-0.958317
-0.950359
-0.990805
-0.998272
-0.999774
-0.999978
-0.999999
-1
-1
-1
-1
-0.999998
-0.999988
-0.999942
-0.999782
-0.999383
-0.998583
-0.997017
-0.980865
-0.875586
-0.859866
-0.942786
-0.987929
-0.997981
-0.999764
-0.999982
-0.999999
-1
-1
-0.999999
-0.999993
-0.999976
-0.999931
-0.999842
-0.999634
-0.999301
-0.997194
-0.939884
-0.713607
-0.69719
-0.837418
-0.955606
-0.990499
-0.998544
-0.999866
-0.999991
-1
-1
-0.999995
-0.999973
-0.999893
-0.999571
-0.998919
-0.998794
-0.998501
-0.993573
-0.752029
-0.533583
-0.557816
-0.771794
-0.921039
-0.975994
-0.994772
-0.999359
-0.999951
-0.999998
-1
-0.999981
-0.999857
-0.998914
-0.994281
-0.992524
-0.994366
-0.992593
-0.974778
-0.585056
-0.435237
-0.46258
-0.6553
-0.841429
-0.944053
-0.985415
-0.997766
-0.999797
-0.99999
-1
-0.999949
-0.999609
-0.997898
-0.961272
-0.958996
-0.972308
-0.965649
-0.902237
-0.510896
-0.358491
-0.378812
-0.523928
-0.756664
-0.911472
-0.974727
-0.995102
-0.99947
-0.999971
-0.999999
-0.999832
-0.999063
-0.989832
-0.8206
-0.831546
-0.888371
-0.892505
-0.715998
-0.369968
-0.305692
-0.334521
-0.472111
-0.726737
-0.90132
-0.971669
-0.993589
-0.999089
-0.999931
-0.999998
0.999999
0.999998
0.999999
0.999998
0.999998
0.999994
0.999972
0.999285
0.994317
0.991615
0.987442
0.987637
0.981461
0.982007
0.981892
0.979092
0.976556
0.955038
0.839068
0.636726
0.3845
0.458923
0.658809
0.999979
0.999978
0.999984
0.999982
0.999989
0.999947
0.999774
0.993123
0.955393
0.943453
0.930652
0.877735
0.868566
0.854048
0.871816
0.884129
0.900561
0.921508
0.903104
0.781662
0.508558
0.454553
0.53213
0.999667
0.999797
0.999876
0.999895
0.999932
0.999669
0.99875
0.962226
0.79178
0.72584
0.661237
0.564257
0.521288
0.339632
0.458291
0.589266
0.658363
0.74203
0.805146
0.794179
0.684013
0.534724
0.577487
0.996812
0.998088
0.999315
0.999456
0.999589
0.998372
0.994792
0.845097
0.283844
0.0383966
0.111564
-0.133772
-0.111686
-0.33427
-0.116952
-0.0590476
0.0720284
0.2124
0.52139
0.712229
0.685137
0.640589
0.621727
0.980587
0.988901
0.996489
0.997746
0.997167
0.993931
0.983423
0.671667
-0.230036
-0.443878
-0.497943
-0.586554
-0.592591
-0.648556
-0.666491
-0.687117
-0.600905
-0.481617
-0.0348915
0.307602
0.419262
0.442808
0.399766
0.916494
0.953537
0.986273
0.990055
0.985874
0.976214
0.955142
0.641884
-0.255059
-0.518393
-0.611346
-0.670867
-0.716061
-0.775627
-0.828124
-0.85367
-0.822273
-0.752663
-0.478187
-0.355535
-0.338512
-0.342035
-0.317725
0.718935
0.819612
0.943917
0.9566
0.939962
0.927415
0.894775
0.673382
0.171877
-0.119817
-0.384517
-0.592005
-0.696686
-0.791249
-0.88885
-0.913136
-0.896181
-0.901696
-0.865051
-0.817586
-0.75219
-0.663189
-0.520216
0.24
0.36632
0.777418
0.839975
0.779078
0.796929
0.781663
0.590579
0.241666
0.135577
-0.0176996
-0.307624
-0.575622
-0.768196
-0.912863
-0.95143
-0.959047
-0.974322
-0.970169
-0.940652
-0.874419
-0.876957
-0.815655
-0.42816
-0.313483
0.388841
0.536483
0.320555
0.555132
0.568301
0.285006
0.189806
0.165275
0.0775441
-0.183047
-0.521589
-0.766286
-0.923096
-0.97248
-0.988598
-0.993302
-0.994077
-0.993036
-0.973214
-0.975498
-0.974879
-0.721824
-0.534134
0.223517
0.0570512
-0.190379
0.224699
0.381026
0.154817
0.00565107
0.0267567
0.00601442
-0.254876
-0.6947
-0.873792
-0.968451
-0.98684
-0.995057
-0.997499
-0.998095
-0.997119
-0.99675
-0.997098
-0.996613
-0.755711
-0.535095
0.251613
-0.265599
-0.516455
-0.296844
-0.129975
-0.398696
-0.520316
-0.401099
-0.403191
-0.670704
-0.90951
-0.956532
-0.996075
-0.998171
-0.998467
-0.998797
-0.998946
-0.997076
-0.997667
-0.998094
-0.997212
-0.741424
-0.527897
0.0541275
-0.495036
-0.753221
-0.792414
-0.674123
-0.812524
-0.849891
-0.729335
-0.835235
-0.946166
-0.991074
-0.998447
-0.998612
-0.998575
-0.998484
-0.999099
-0.998505
-0.996567
-0.998185
-0.998567
-0.998186
-0.730181
-0.732745
-0.391507
-0.727722
-0.91039
-0.982422
-0.887697
-0.941716
-0.943769
-0.869913
-0.88972
-0.974022
-0.988462
-0.998046
-0.998694
-0.998674
-0.998265
-0.998328
-0.997479
-0.998418
-0.998897
-0.999239
-0.99953
-0.881818
-0.889484
-0.568611
-0.856997
-0.977505
-0.99887
-0.974712
-0.980252
-0.971939
-0.906919
-0.88695
-0.927333
-0.911169
-0.995183
-0.999232
-0.999363
-0.998728
-0.999044
-0.999488
-0.999591
-0.999517
-0.999713
-0.999822
-0.959587
-0.937077
-0.654062
-0.905596
-0.992784
-0.999626
-0.997559
-0.995408
-0.975155
-0.837095
-0.711249
-0.85185
-0.869792
-0.993036
-0.999648
-0.999795
-0.99977
-0.999927
-0.999941
-0.999931
-0.999897
-0.999927
-0.999947
-0.983552
-0.953817
-0.685125
-0.938815
-0.998154
-0.999944
-0.999812
-0.999513
-0.999338
-0.986912
-0.869516
-0.588822
-0.88489
-0.999011
-0.999929
-0.999918
-0.999933
-0.999978
-0.999987
-0.99999
-0.999989
-0.999992
-0.999988
-0.992832
-0.968602
-0.773251
-0.976173
-0.999642
-0.999988
-0.999993
-0.999961
-0.999807
-0.996916
-0.96151
-0.623957
-0.970108
-0.999989
-0.999983
-0.999977
-0.99998
-0.999991
-0.999994
-0.999998
-0.999999
-0.999999
-0.999998
-0.999555
-0.983421
-0.900309
-0.986232
-0.999739
-0.999993
-0.999996
-0.999984
-0.999888
-0.999181
-0.994404
-0.976135
-0.999997
-0.999999
-0.999996
-0.999995
-0.999996
-0.999999
-0.999999
-0.999999
-1
-1
-1
-0.999966
-0.992513
-0.969415
-0.994931
-0.999917
-0.999997
-0.999998
-0.999998
-0.999998
-1
-1
-0.999999
-1
-1
-1
-1
-1
-1
-1
-1
-1
-1
-1
-0.999986
-0.999403
-0.991487
-0.999669
-0.999996
-0.999999
-0.999999
-0.999999
-0.999997
-1
-1
-1
-1
-1
-1
-1
-1
-1
-1
-1
-1
-1
-1
-0.999994
-0.999968
-0.999864
-0.999997
-1
-1
-1
-1
-0.999999
-1
-1
-1
-1
-1
-1
-1
-1
-1
-1
-1
-1
-1
-1
-1
-1
-0.999999
-1
-1
-1
-1
-1
-1
-1
-1
-1
-1
-1
-1
-1
-1
-1
-1
-1
-1
-1
-1
-1
-1
-1
-1
-1
-1
-1
-1
-1
-1
-1
-1
-1
-1
-1
-1
-1
-1
-1
-1
-1
-1
-1
-1
-1
-1
-1
-1
-1
-1
-1
-1
-1
-1
-1
-1
-1
-1
-1
-1
-1
-1
-1
-1
-1
-1
-1
-1
-1
-1
-1
-1
-1
-1
-1
-1
-1
-1
-1
-1
-1
-1
-1
-1
-1
-1
-1
-1
-1
-1
-1
-1
-1
-1
-1
-1
-1
-1
-1
-1
-1
-1
-1
-1
-1
-1
-1
-1
-1
-1
-1
-1
-1
-1
-1
-1
-1
-1
-1
-1
-1
-1
-1
-1
-1
-1
-1
-1
-1
-1
-1
-1
-1
-1
-1
-1
-1
-1
-1
-1
-1
-1
-1
-1
-1
-1
-1
-1
-1
-1
-1
-1
-1
-1
-1
-1
-1
-1
-1
-1
-1
-1
-1
-1
-1
-1
-1
-1
-1
-1
-1
-1
-1
-1
-1
-1
-1
-1
-1
-1
-1
-1
-1
-1
-1
-1
-1
-1
-1
-1
-1
-1
-1
-1
-1
-1
-1
-1
-1
-1
-1
-1
-1
-1
-1
-1
-1
-1
-1
-1
-1
-1
-1
-1
-1
-1
-1
-1
-1
-1
-1
-1
-1
-1
-1
-1
-1
-1
-1
-1
-1
-1
-1
-1
-1
-1
-1
-1
-1
-1
-1
-1
-1
-1
-1
-1
-1
-1
-1
-1
-1
-1
-1
-1
-1
-1
-1
-1
-1
-1
-1
-1
-1
-1
-1
-1
-1
-1
-1
-1
-1
-1
-1
-1
-1
-1
-1
-1
-1
-1
-1
-1
-1
-1
-1
-1
-1
-1
-1
-1
-1
-1
-1
-1
-1
-1
-1
-1
-1
-1
-1
-1
-1
-1
-1
-1
-1
-1
-1
-1
-1
-1
-1
-1
-1
-1
-1
-1
-1
-1
-1
-1
-1
-1
-1
-1
-1
-1
-1
-1
-1
-1
-1
-1
-1
-1
-1
-1
-1
-1
-1
-1
-1
-1
-1
-1
-1
-1
-1
-1
-1
-1
-1
-1
-1
-1
-1
-1
-1
-1
-1
-1
-1
-1
-1
-1
-1
-1
-1
-1
-1
-1
-1
-1
-1
-1
-1
-1
-1
-1
-1
-1
-1
-1
-1
-1
-1
-1
-1
-1
-1
-1
-1
-1
-1
-1
-1
-1
-1
-1
-1
-1
-1
-1
-1
-1
-1
-1
-1
-1
-1
-1
-1
-1
-1
-1
-1
-1
-1
-1
-1
-1
-1
-1
-1
-1
-1
-1
-1
-1
-1
-1
-1
-1
-1
-1
-1
-1
-1
-1
-1
-1
-1
-1
-1
-1
-1
-1
-1
-1
-1
-1
-1
-1
-1
-1
-1
-1
-1
-1
-1
-1
-1
-1
-1
-1
-1
-1
-1
-1
-1
-1
-1
-1
-1
-1
-1
-1
-1
-1
0.684003
0.68576
0.573301
-0.721552
0.620176
0.652666
0.624755
0.331724
0.618325
0.635608
0.635772
0.628177
0.621953
0.621886
0.620362
0.614894
0.410256
0.41724
0.418661
0.415939
-0.251678
-0.165706
-0.0482877
0.0534801
-0.432561
-0.376081
-0.266223
-0.280252
-0.788961
-0.765612
-0.666125
-0.662232
-0.966714
-0.957646
-0.92823
-0.911706
-0.99492
-0.994346
-0.991641
-0.9892
-0.996726
-0.996768
-0.996787
-0.996868
-0.998675
-0.998925
-0.999116
-0.99924
-0.999598
-0.999565
-0.999764
-0.999808
-0.999886
-0.999842
-0.999929
-0.999938
-0.999972
-0.999968
-0.999977
-0.999969
-0.999993
-0.999993
-0.999992
-0.999989
-0.999998
-0.999998
-0.999998
-0.999998
-1
-1
-1
-1
-1
-1
-1
-1
-1
-1
-1
-1
-1
-1
-1
-1
-1
-1
-1
-1
-1
-1
-1
-1
-1
-1
-1
-1
-1
-1
-1
-1
-1
-1
-1
-1
-1
-1
-1
-1
-1
-1
-1
-1
-1
-1
-1
-1
-1
-1
-1
-1
-1
-1
-1
-1
-1
-1
-1
-1
-1
-1
-1
-1
-1
-1
-1
-1
-1
-1
-1
-1
-1
-1
-1
-1
-1
-1
-1
-1
-1
-1
-1
-1
-1
-1
-1
-1
-1
-1
-1
-1
-1
-1
-1
-1
-1
-1
-1
-1
-0.987046
-0.984834
-0.901272
-0.576438
-0.499597
-0.519014
-0.480435
-0.385919
-0.230035
-0.260368
-0.31125
-0.46161
-0.734778
-0.90723
-0.974129
-0.995086
-0.99936
-0.999951
-0.999999
-0.180605
-0.69797
-0.648855
-0.457265
-0.133257
0.0714204
0.102066
0.0675243
-0.0207684
-0.230271
-0.320487
-0.514576
-0.833778
-0.94065
-0.970931
-0.98964
-0.997952
-0.999784
-0.999991
0.537722
0.411615
0.314944
0.311143
0.351724
0.343796
0.318952
0.164346
-0.188994
-0.606479
-0.800448
-0.923529
-0.97496
-0.991394
-0.996697
-0.99687
-0.998799
-0.999856
-0.999994
0.586164
0.520421
0.3969
0.316389
0.261952
0.167101
-0.0710405
-0.45783
-0.698429
-0.806164
-0.865659
-0.908197
-0.944041
-0.97254
-0.989109
-0.996764
-0.999272
-0.99993
-0.999997
0.403189
0.387336
0.342937
0.253188
0.126774
-0.0828896
-0.403334
-0.690586
-0.822822
-0.864006
-0.890247
-0.920637
-0.953312
-0.980948
-0.995319
-0.998754
-0.999757
-0.999979
-0.999999
0.0932411
0.0529758
0.0636484
0.00506952
-0.126525
-0.301867
-0.579838
-0.829227
-0.92391
-0.944782
-0.94403
-0.944278
-0.954526
-0.978354
-0.995049
-0.999309
-0.999928
-0.999995
-1
-0.54021
-0.703297
-0.590228
-0.605346
-0.656434
-0.70382
-0.831316
-0.948789
-0.980947
-0.982791
-0.977419
-0.972196
-0.974501
-0.985445
-0.996424
-0.999635
-0.999978
-0.999999
-1
-0.832481
-0.953523
-0.936657
-0.938075
-0.92111
-0.931293
-0.959591
-0.985105
-0.99246
-0.991587
-0.985934
-0.980005
-0.981229
-0.989901
-0.997917
-0.999847
-0.999992
-1
-1
-0.962148
-0.989336
-0.992522
-0.992898
-0.991228
-0.984221
-0.988817
-0.993327
-0.995226
-0.994319
-0.989399
-0.985324
-0.986211
-0.992951
-0.998777
-0.99993
-0.999997
-1
-1
-0.995366
-0.996022
-0.995832
-0.99561
-0.995395
-0.994807
-0.994792
-0.994942
-0.995783
-0.995372
-0.991949
-0.990839
-0.992512
-0.996528
-0.999422
-0.999967
-0.999999
-1
-1
-0.997286
-0.997705
-0.997405
-0.99672
-0.995608
-0.995809
-0.996161
-0.996654
-0.997057
-0.996972
-0.995326
-0.9923
-0.993394
-0.99737
-0.999715
-0.999985
-0.999999
-1
-1
-0.9993
-0.999268
-0.998747
-0.997242
-0.994483
-0.994607
-0.995233
-0.995795
-0.99587
-0.995531
-0.993331
-0.991913
-0.99365
-0.99821
-0.999872
-0.999994
-1
-1
-1
-0.999825
-0.999774
-0.999486
-0.998719
-0.99656
-0.993834
-0.992687
-0.991864
-0.99166
-0.991512
-0.991542
-0.992326
-0.995809
-0.999282
-0.999951
-0.999998
-1
-1
-1
-0.99994
-0.99989
-0.999753
-0.999472
-0.998679
-0.997315
-0.995884
-0.995483
-0.993678
-0.992959
-0.993353
-0.995426
-0.998495
-0.99976
-0.999984
-0.999999
-1
-1
-1
-0.999967
-0.999937
-0.999884
-0.999782
-0.999544
-0.999306
-0.998937
-0.998492
-0.997837
-0.997209
-0.99733
-0.998526
-0.999557
-0.99993
-0.999996
-1
-1
-1
-1
-0.999991
-0.999993
-0.999987
-0.999971
-0.999917
-0.999858
-0.999784
-0.999719
-0.999614
-0.999483
-0.999235
-0.999671
-0.999905
-0.999985
-0.999999
-1
-1
-1
-1
-0.999998
-0.999998
-0.999997
-0.999993
-0.99998
-0.999968
-0.999953
-0.999935
-0.999884
-0.999837
-0.999823
-0.999934
-0.999981
-0.999997
-1
-1
-1
-1
-1
-1
-1
-0.999999
-0.999998
-0.999996
-0.999993
-0.999989
-0.999977
-0.999966
-0.999964
-0.999967
-0.999991
-0.999997
-1
-1
-1
-1
-1
-1
-1
-1
-1
-1
-0.999999
-0.999998
-0.999996
-0.999994
-0.999993
-0.999995
-0.999995
-0.999998
-1
-1
-1
-1
-1
-1
-1
-1
-1
-1
-1
-1
-1
-1
-0.999999
-1
-0.999999
-0.999999
-1
-1
-1
-1
-1
-1
-1
-1
-1
-1
-1
-1
-1
-1
-1
-1
-1
-1
-1
-1
-1
-1
-1
-1
-1
-1
-1
-1
-1
-1
-1
-1
-1
-1
-1
-1
-1
-1
-1
-1
-1
-1
-1
-1
-1
-1
-1
-1
-1
-1
-1
-1
-1
-1
-1
-1
-1
-1
-1
-1
-1
-1
-1
-1
-1
-1
-1
-1
-1
-1
-1
-1
-1
-1
-1
-1
-1
-1
-1
-1
-1
-1
-1
-1
-1
-1
-1
-1
-1
-1
-1
-1
-1
-1
-1
-1
-1
-1
-1
-1
-1
-1
-1
-1
-1
-1
-1
-1
-1
-1
-1
-1
-1
-1
-1
-1
-1
-1
-1
-1
-1
-1
-1
-1
-1
-1
-1
-1
-1
-1
-1
-1
-1
-1
-1
-1
-1
-1
-1
-1
-1
-1
-1
-1
-1
-1
-1
-1
-1
-1
-1
-1
-1
-1
-1
-1
-1
-1
-1
-1
-1
-1
-1
-1
-1
-1
-1
-1
-1
-1
-1
-1
-1
-1
-1
-1
-1
-1
-1
-1
-1
-1
-1
-1
-1
-1
-1
-1
-1
-1
-1
-1
-1
-1
-1
-1
-1
-1
-1
-1
-1
-1
-1
-1
-1
-1
-1
-1
-1
-1
-1
-1
-1
-1
-1
-1
-1
-1
-1
-1
-1
-1
-1
-1
-1
-1
-1
-1
-1
-1
-1
-1
-1
-1
-1
-1
-1
-1
-1
-1
-1
-1
-1
-1
-1
-1
-1
-1
-1
-1
-1
-1
-1
-1
-1
-1
-1
-1
-1
-1
-1
-1
-1
-1
-1
-1
-1
-1
-1
-1
-1
-1
-1
-1
-1
-1
-1
-1
-1
-1
-1
-1
-1
-1
-1
-1
-1
-1
-1
-1
-1
-1
-1
-1
-1
-1
-1
-1
-1
-1
-1
-1
-1
-1
-1
-1
-1
-1
-1
-1
-1
-1
-1
-1
-1
-1
-1
-1
-1
-1
-1
-1
-1
-1
-1
-1
-1
-1
-1
-1
-1
-1
-1
-1
-1
-1
-1
-1
-1
-1
-1
-1
-1
-1
-1
-1
-1
-1
-1
-1
-1
-1
-1
-1
-1
-1
-1
-1
-1
-1
-1
-1
-1
-1
-1
-1
-1
-1
-1
-1
-1
-1
-1
-1
-1
-1
-1
-1
-1
-1
-1
-1
-1
-1
-1
-1
-1
-1
-1
-1
-1
-1
-1
-1
-1
-1
-1
-1
-1
-1
-1
-1
-1
-1
-1
-1
-1
-1
-1
-1
-1
-1
-1
-1
-1
-1
-1
-1
-1
-1
-1
-1
-1
-1
-1
-1
)
;

boundaryField
{
    leftWall
    {
        type            zeroGradient;
    }
    rightWall
    {
        type            zeroGradient;
    }
    lowerWall
    {
        type            zeroGradient;
    }
    atmosphere
    {
        type            zeroGradient;
    }
    defaultFaces
    {
        type            empty;
    }
}


// ************************************************************************* //
