/*--------------------------------*- C++ -*----------------------------------*\
| =========                 |                                                 |
| \\      /  F ield         | foam-extend: Open Source CFD                    |
|  \\    /   O peration     | Version:     4.1                                |
|   \\  /    A nd           | Web:         http://www.foam-extend.org         |
|    \\/     M anipulation  |                                                 |
\*---------------------------------------------------------------------------*/
FoamFile
{
    version     2.0;
    format      ascii;
    class       volScalarField;
    location    "0.3";
    object      p;
}
// * * * * * * * * * * * * * * * * * * * * * * * * * * * * * * * * * * * * * //

dimensions      [1 -1 -2 0 0 0 0];

internalField   nonuniform List<scalar> 
2268
(
1873.28
1874.53
1869.54
1867.02
1831.88
1801.26
1730.43
1711.92
1601.21
1479.48
1673.75
1604.25
1567.74
1545.12
1557.4
1308.55
1305.32
1370.85
1535.68
1537.08
2028.65
2238.6
2162.45
1814.23
1815.32
1810.54
1807.85
1773.48
1740.59
1669.32
1652.84
1538.62
1408.74
1576.4
1554.74
1500.61
1456.53
1391.41
1354.92
1205.85
1313.83
1556
1774.53
2373.96
2045.62
2091.47
1753.64
1755.69
1750.95
1748.56
1714.75
1684.81
1619.04
1586.33
1474.27
1414.6
1426.83
1509.58
1444.92
1425.05
1311.91
1273.65
1247.06
1908.38
2410.64
2709.42
2822.58
2511.86
2164.85
1695.85
1695.72
1691.77
1688.89
1656.73
1617.59
1562.12
1537.13
1405.56
1377.18
1351.16
1390.68
1455.8
1304.18
1386.97
1388.77
1643.7
2644.98
2505.31
2255.32
2401.84
2468.27
2071.12
1630.1
1634.53
1631.65
1629.38
1598.06
1553.88
1486.36
1488.78
1343.69
1349.43
1281.06
1341.29
1216.45
1233.52
1163.33
1145.23
1209.7
1630.57
1563.22
1591.95
1885.86
2332.16
2002.57
1578.77
1574.66
1572.23
1569.68
1537.32
1492.38
1423.5
1428.09
1234.72
1315.67
1227.25
1207.43
1198.83
1204.57
899.285
1015.09
1118.34
1147.9
1148.1
1150.68
1551.34
2036.95
1820.96
1514.41
1512.46
1511.22
1508.15
1479.29
1431.69
1389.5
1398.21
1148.37
1255.16
1225.75
1075.36
1192.27
1073.22
895.484
752.439
1078.79
1111.93
1106.6
1040.77
1500.48
1786.96
1614.32
1454.67
1456.49
1451.98
1456.44
1413.88
1372
1287.46
1318.41
1133.8
1169.72
1128.21
1078.41
910.536
1039.17
907.609
747.284
932.379
1150.13
1497.05
1269.94
1736.68
1641.31
1175.3
-27.8733
-28.0967
-28.4568
-29.2095
-29.7101
-30.9086
-33.0905
-36.4914
-37.3695
-28.0393
15.6036
20.6987
20.6896
19.4299
17.3791
15.7353
14.6692
14.0826
13.7863
-27.9074
-28.1454
-28.5882
-29.3465
-30.1197
-31.5681
-32.8998
-34.1531
-37.9674
-25.9173
35.5125
22.2294
20.4668
19.3046
17.2313
15.6372
14.5412
13.9544
13.6618
-27.8828
-28.2065
-28.8099
-29.5352
-30.5724
-31.8997
-32.5004
-34.0476
-35.9774
61.9367
154.502
53.3668
21.9673
19.1545
16.9857
15.4961
14.3383
13.7488
13.4644
-27.8243
-28.2322
-28.962
-29.914
-30.7856
-31.6973
-31.9894
-33.9414
-21.0648
396.585
532.227
227.25
40.78
19.6102
16.6251
15.2782
14.0637
13.4704
13.1947
-27.6842
-28.1717
-29.0483
-30.2108
-31.0106
-31.573
-31.1813
-33.0946
244.966
904.147
907.815
367.11
73.2505
23.3122
16.2632
14.9809
13.6845
13.1067
12.8489
-27.4066
-28.0286
-29.1015
-30.58
-31.0338
-30.8869
-29.1839
-28.4899
652.754
1199.26
1127
690.478
216.207
46.656
17.1376
14.4485
13.1559
12.6499
12.4349
-27.0449
-27.7327
-29.3958
-24.4111
-19.5757
-22.5775
-16.6855
22.2448
796.645
1343.1
1310.02
1039.6
417.84
81.8968
19.4357
13.3346
12.3918
12.0668
11.9262
-26.8189
-27.6498
-30.8103
128.111
150.532
76.2624
69.7461
380.331
1186.62
1413.67
1379.32
1159.35
481.169
87.4523
18.5698
11.1891
11.2489
11.3495
11.3231
1363.7
1354.83
1354.81
1346.12
1276.9
1257.89
1211.46
1161.21
1011.29
1019.4
994.431
989.067
955.668
989.812
535.578
417.242
940.254
876.577
931.388
1387.52
2035.51
1697.17
383.55
1223.25
1232
1223.52
1197.72
1216.14
1140.8
1090.31
1032.05
865.766
826.188
760.794
682.511
938.657
841.516
621.351
585.737
638.386
646.993
688.358
829.396
1406.27
1274.07
607.332
1079.46
1076.44
1104.24
1119.01
1051.34
1012.32
945.189
865.873
922.065
1123.56
1007.62
1356.55
1464.27
1743.84
1385.79
1056.01
923.48
798.708
636.932
724.44
762.851
991.246
292.525
923.753
916.285
898.839
965.106
949.616
965.368
909.489
861.392
1774.4
1894.35
1847.36
1830.39
1856.61
1461.11
1663.96
1582.94
1825.65
1685.84
1137.17
558.452
350.754
412.118
416.577
742.695
733.914
697.998
592.722
608.994
574.013
533.42
1162.54
1741.86
1311.79
1179.36
909.037
890.781
711.139
615.151
565.359
805.36
1087.93
1700.64
1413.44
1144.66
1205.91
1430.35
631.154
599.158
551.865
570.356
536.519
515.935
530.663
1110.93
1727.57
1176.88
881.719
681.591
555.096
385.139
243.112
182.05
232.066
338.37
945.178
1329.38
1406.41
1370.3
1340.33
897.596
681.383
471.31
447.811
401.439
343.891
357.945
753.138
1752.96
1888.33
1520.71
932.43
596.698
335.792
127.179
81.1538
88.654
66.6043
123.345
235.58
350.331
516.886
868.218
1762.26
1582.48
623.621
474.686
634.757
587.112
452.642
836.814
1497.89
1740.83
1834.96
1557.46
897.454
369.285
86.2174
28.8363
14.8717
7.41531
9.35015
29.3865
105.79
93.7109
179.198
1257.35
1496.36
1481.42
1121.15
1754.76
1002.83
956.964
1566.94
1600.39
1668.57
1745.75
1624.91
972.222
316.984
46.2855
7.8988
0.350109
0.534769
0.60849
1.03817
5.40615
3.84852
1.50755
534.122
1041.19
1621.89
1837.47
1683.63
1701.45
1413
1673.34
1680.04
1728.12
1726.7
1465.17
423.863
89.3667
2.10885
-1.87891
-1.49808
-0.931369
-0.596138
-0.329421
-0.403522
-0.946168
-1.64592
433.853
1002.36
1503.44
1481.9
785.992
1282.11
1595.1
1075.72
754.671
1099.79
1080.71
437.005
29.8503
3.68622
-4.16599
-2.79736
-2.13782
-1.52164
-1.43325
-1.08
-1.25962
-1.5582
-1.4362
413.16
912.203
1630.69
895.593
239.793
191.75
472.311
175.832
104.909
348.162
146.94
10.2088
-6.04735
-4.19961
-2.92381
-2.7788
-2.22346
-2.02691
-1.64402
-1.65271
-1.58837
-1.82763
-1.93578
403.909
373.094
1143.98
365.007
27.9885
-3.77322
63.5201
19.5293
14.8487
97.4955
71.4581
-0.747316
-3.26232
-3.36146
-2.7014
-2.80143
-2.26962
-2.16824
-1.94193
-2.08728
-2.02512
-2.05276
-2.07019
107.28
97.1165
789.599
120.704
0.435757
-3.27263
-0.0385655
-0.252305
1.33893
47.5247
75.7183
24.2213
48.2463
-3.23221
-2.93431
-2.76736
-2.30398
-2.35691
-2.24032
-2.30427
-2.21222
-2.23741
-2.21674
24.5016
45.2728
552.449
53.8562
-3.21864
-2.91156
-3.43395
-2.82881
0.133334
149.663
429.943
111.441
90.7867
-2.77795
-2.69151
-2.60107
-2.50393
-2.45754
-2.38735
-2.37561
-2.29037
-2.32039
-2.32126
10.6012
27.0918
461.09
17.198
-3.43528
-3.24814
-3.2941
-2.90012
-3.80527
-2.59489
86.6961
694.549
77.8477
-2.65032
-2.53369
-2.58716
-2.53707
-2.54808
-2.49759
-2.50306
-2.43829
-2.48589
-2.48052
-0.454509
10.0631
232.922
-1.79599
-3.36734
-3.0421
-2.98389
-3.43791
-3.23478
-3.40673
6.15644
576.165
3.78964
-2.56057
-2.69787
-2.60188
-2.64856
-2.61592
-2.58198
-2.67199
-2.60608
-2.63248
-2.62899
-3.35486
-3.03124
43.6675
-2.65905
-3.28515
-3.2323
-3.26551
-3.47013
-3.50914
-3.54863
-3.56698
1.22978
-2.86593
-2.62517
-2.81515
-2.6822
-2.73933
-2.75866
-2.77442
-2.78022
-2.7381
-2.80145
-2.80382
-3.0275
-3.27462
0.689476
-3.08429
-3.32211
-3.2678
-3.15518
-3.22412
-3.18719
-3.34074
-3.37819
-3.14709
-2.86303
-2.94555
-2.92122
-2.86432
-2.89431
-2.91037
-2.87395
-2.89495
-2.94752
-2.95923
-2.92403
-3.15029
-3.71542
-3.0302
-3.38415
-3.41274
-3.32567
-3.16824
-3.21987
-3.2453
-3.22379
-3.18376
-3.09071
-3.25516
-3.0859
-2.98756
-2.94834
-3.03472
-3.02919
-3.02053
-3.03807
-3.00235
-3.05219
-3.04789
-3.36711
-3.43887
-3.3669
-3.36335
-3.36249
-3.16004
-3.40101
-3.32541
-3.14378
-3.23889
-3.29231
-3.4289
-3.17692
-3.18306
-3.12314
-3.12619
-3.12626
-3.19471
-3.17782
-3.19585
-3.16042
-3.17639
-3.23049
-3.45603
-3.48317
-3.46435
-3.53681
-3.42223
-3.32512
-3.39616
-3.45746
-3.45613
-3.40418
-3.38459
-3.41144
-3.36312
-3.24141
-3.29592
-3.257
-3.24977
-3.33291
-3.29976
-3.30669
-3.28482
-3.30473
-3.323
-3.59941
-3.6495
-3.62929
-3.49061
-3.5965
-3.63416
-3.54604
-3.52099
-3.58227
-3.52618
-3.50251
-3.53742
-3.36942
-3.3766
-3.40782
-3.43334
-3.40033
-3.43835
-3.38212
-3.41355
-3.41381
-3.44035
-3.45104
-3.60776
-3.52647
-3.47898
-3.57426
-3.50173
-3.71033
-3.64325
-3.63199
-3.61808
-3.5882
-3.56579
-3.5598
-3.53313
-3.48345
-3.5354
-3.52612
-3.52463
-3.54747
-3.50048
-3.57307
-3.53788
-3.5694
-3.54879
-3.58531
-3.63576
-3.63573
-3.6564
-3.65816
-3.62671
-3.64716
-3.69756
-3.69017
-3.69874
-3.71926
-3.71729
-3.70076
-3.6572
-3.67993
-3.70924
-3.67038
-3.60012
-3.67572
-3.65744
-3.66252
-3.67453
-3.68307
-3.75767
-3.7552
-3.75952
-3.75712
-3.75682
-3.75823
-3.77443
-3.70954
-3.75364
-3.76917
-3.72867
-3.72468
-3.71002
-3.75468
-3.7623
-3.77762
-3.73849
-3.79034
-3.77098
-3.77713
-3.78377
-3.792
-3.79296
-3.86338
-3.86946
-3.86986
-3.86887
-3.87571
-3.86907
-3.87736
-3.87298
-3.87843
-3.88315
-3.88048
-3.87725
-3.89704
-3.83197
-3.89278
-3.82289
-3.90683
-3.87746
-3.89605
-3.89075
-3.89382
-3.90424
-3.90595
-3.98545
-3.98577
-3.99128
-3.98764
-3.98735
-3.98172
-3.9862
-3.97748
-3.97643
-3.97489
-3.95542
-3.96377
-3.9934
-4.00336
-4.00473
-3.98658
-4.0032
-3.97718
-4.00594
-3.9661
-4.03256
-4.01947
-4.0326
-4.10765
-4.10899
-4.10956
-4.10936
-4.11182
-4.10901
-4.11268
-4.10927
-4.11472
-4.10712
-4.1331
-4.12934
-4.1293
-4.08645
-4.09804
-4.14062
-4.08153
-4.12454
-4.13996
-4.1147
-4.13557
-4.1335
-4.13745
-4.22862
-4.22952
-4.22446
-4.22285
-4.21605
-4.18773
-4.19758
-4.21927
-4.22326
-4.22699
-4.20858
-4.24444
-4.23637
-4.2329
-4.25834
-4.21129
-4.23601
-4.22546
-4.22226
-4.24938
-4.21404
-4.26465
-4.24908
-4.35229
-4.35272
-4.3517
-4.35878
-4.3579
-4.39638
-4.40155
-4.36249
-4.35178
-4.34556
-4.36744
-4.35368
-4.35705
-4.35286
-4.32756
-4.34557
-4.32538
-4.3544
-4.33371
-4.36692
-4.37074
-4.37092
-4.373
-4.4715
-4.4721
-4.47009
-4.46956
-4.46547
-4.4649
-4.47289
-4.48623
-4.5208
-4.49518
-4.4935
-4.48277
-4.46598
-4.471
-4.47596
-4.47553
-4.49251
-4.44285
-4.48594
-4.46012
-4.47663
-4.46358
-4.48906
-4.59297
-4.59221
-4.59464
-4.59332
-4.61074
-4.6286
-4.61195
-4.5915
-4.56523
-4.55427
-4.57834
-4.55956
-4.59184
-4.58434
-4.58909
-4.57273
-4.56493
-4.58625
-4.59034
-4.57508
-4.59636
-4.60225
-4.6029
-4.71598
-4.71582
-4.71406
-4.714
-4.70824
-4.68092
-4.70191
-4.68538
-4.70215
-4.72043
-4.71596
-4.72737
-4.73033
-4.71237
-4.71463
-4.70714
-4.72049
-4.69473
-4.68734
-4.70975
-4.7166
-4.71886
-4.71872
-4.83699
-4.83573
-4.83743
-4.83094
-4.81239
-4.82801
-4.83682
-4.85862
-4.8377
-4.82423
-4.82677
-4.82348
-4.83309
-4.82888
-4.82548
-4.82662
-4.8117
-4.82213
-4.82334
-4.8246
-4.81147
-4.82089
-4.83947
-4.96109
-4.9574
-4.96619
-4.95531
-4.9966
-4.95741
-4.96235
-4.95054
-4.96462
-4.9682
-4.97411
-4.95883
-4.95002
-4.94377
-4.95154
-4.94779
-4.94802
-4.94908
-4.9378
-4.94402
-4.94924
-4.92804
-4.96296
-5.08074
-5.08188
-5.08432
-5.08064
-5.08436
-5.0834
-5.07926
-5.08525
-5.07327
-5.04784
-5.04945
-5.06514
-5.08441
-5.07918
-5.07019
-5.06616
-5.06581
-5.05961
-5.06562
-5.05231
-5.06501
-5.05253
-5.07582
-5.20481
-5.20365
-5.2032
-5.20328
-5.21019
-5.20332
-5.20598
-5.20073
-5.20401
-5.235
-5.20739
-5.20341
-5.2005
-5.19717
-5.19338
-5.19065
-5.19134
-5.18171
-5.18684
-5.18266
-5.18378
-5.18368
-5.18394
-5.32349
-5.32472
-5.33202
-5.33116
-5.33542
-5.33628
-5.34876
-5.33608
-5.32457
-5.31549
-5.31835
-5.31614
-5.31986
-5.3156
-5.31086
-5.30667
-5.30508
-5.30196
-5.30443
-5.29935
-5.30776
-5.30175
-5.29622
-5.45298
-5.44921
-5.45018
-5.42357
-5.44209
-5.44472
-5.42365
-5.44882
-5.44551
-5.45539
-5.44901
-5.44612
-5.4464
-5.44358
-5.43901
-5.4386
-5.4364
-5.43437
-5.42772
-5.42904
-5.42461
-5.42799
-5.41831
-5.54045
-5.54558
-5.55887
-5.62035
-5.59545
-5.55942
-5.55539
-5.57336
-5.55233
-5.56636
-5.55215
-5.56116
-5.56404
-5.54467
-5.54227
-5.53777
-5.53729
-5.53701
-5.5446
-5.54385
-5.54701
-5.54792
-5.54536
-5.77099
-5.76699
-5.75073
-5.70907
-5.70149
-5.72857
-5.72869
-5.68903
-5.73647
-5.68438
-5.72398
-5.68958
-5.69483
-5.70803
-5.70882
-5.70201
-5.70293
-5.69243
-5.67964
-5.68155
-5.67013
-5.67227
-5.66608
-551.994
-620.382
-4.68517
266.335
93.3566
-276.913
-267.704
177.246
398.559
247.505
546.356
499.891
953.202
1111.15
1079.73
824.058
1439.61
1379.21
1303.85
1169.28
1489.93
1624.81
1700.45
1671.69
1106.48
1234.14
1457.38
1458.62
255.005
303.908
564.215
596.916
6.45105
12.5076
37.5129
66.0841
-1.60938
-1.57702
-1.21832
0.101814
-1.5742
-1.49906
-1.28972
-0.9977
-1.90471
-1.85638
-1.79794
-1.73608
-1.99173
-1.99584
-1.96261
-1.92262
-2.1948
-2.16678
-2.13896
-2.10594
-2.34208
-2.33972
-2.35763
-2.39498
-2.48231
-2.46437
-2.51772
-2.58361
-2.68562
-2.72468
-2.78077
-2.75258
-2.8519
-2.82932
-2.826
-2.88229
-2.94435
-2.90831
-2.96345
-2.96562
-3.1109
-3.09256
-3.10705
-3.13855
-3.2296
-3.2462
-3.23106
-3.22064
-3.30836
-3.33069
-3.34439
-3.37406
-3.47376
-3.48764
-3.49607
-3.51999
-3.55092
-3.57126
-3.58333
-3.58733
-3.70218
-3.69345
-3.69676
-3.71437
-3.79519
-3.81805
-3.82088
-3.81497
-3.93541
-3.91529
-3.93627
-3.93203
-4.0183
-4.03752
-4.03365
-4.04128
-4.1462
-4.14113
-4.14704
-4.15641
-4.26604
-4.26347
-4.25962
-4.2604
-4.36095
-4.37463
-4.37128
-4.37799
-4.49208
-4.48579
-4.49001
-4.48973
-4.60041
-4.60363
-4.60608
-4.60483
-4.71878
-4.71786
-4.71759
-4.71864
-4.82664
-4.83578
-4.83371
-4.83354
-4.95515
-4.95064
-4.94982
-4.94926
-5.0621
-5.06746
-5.06606
-5.06646
-5.18394
-5.18619
-5.18543
-5.18511
-5.31395
-5.30552
-5.30753
-5.30611
-5.432
-5.42679
-5.42788
-5.42419
-5.54759
-5.54488
-5.54655
-5.54569
-5.67143
-5.66603
-5.67312
-5.66388
-22.8767
-28.1894
-6.37456
608.307
860.194
805.768
886.272
1291.2
1585.55
1428.09
1336.43
1167.54
423.808
64.9047
12.8642
9.15643
9.58536
10.0586
10.2097
786.671
353.646
479.249
765.108
1293.13
1434.66
1523.63
1736.62
1858.01
1472.57
1275.94
928.422
190.953
26.1209
9.97623
6.60868
7.89643
8.60933
8.84036
433.316
638.32
961.659
1333.91
919.931
1113.1
1302.71
1595.91
1657.58
718.78
258.142
49.641
8.74268
2.54382
2.58188
4.68375
6.22631
7.12949
7.44597
458.12
1009.07
795.124
994.868
1207.99
1498.78
1659.22
1118.87
531.25
213.082
117.928
64.5435
24.7868
7.82236
2.72531
4.12255
5.6025
5.89712
6.15979
985.637
1046.62
1264.69
1110.54
1495.42
1700.29
1229.84
503.261
197.129
117.823
82.7306
50.3246
20.6681
3.07559
0.584017
1.5561
3.31671
4.48509
4.91801
1508.15
1400.34
1592.97
1542.81
1624.54
1512.53
763.708
180.306
31.9971
13.0437
15.8028
19.6344
16.5991
3.17492
0.0242536
1.12852
2.34301
3.3001
3.82733
911.064
453.127
747.693
726.498
639.564
505.56
166.828
12.7873
-2.842
-3.8052
-1.23945
3.266
4.14271
0.944309
-0.402418
0.54392
1.63532
2.35722
2.68274
179.107
12.2207
35.7033
38.4001
54.1823
34.8439
-0.685007
-5.66042
-4.99059
-4.70463
-3.093
-0.13232
0.7372
-0.550832
-0.845479
0.0201202
0.816401
1.18339
1.23601
12.9489
-0.289727
1.3914
2.79727
-0.96518
-2.32408
-7.66605
-6.3712
-5.4666
-5.04954
-3.55125
-1.78523
-0.655839
-1.12461
-0.96117
-0.494035
0.0490247
0.0779579
0.0847203
0.507894
-0.338213
-0.199756
-0.484962
-2.46208
-4.4552
-5.38353
-4.60799
-3.76106
-4.89938
-3.78279
-2.45297
-1.76429
-1.47204
-1.20655
-0.939349
-0.704853
-0.699957
-0.610924
-0.828281
-1.10119
-1.19557
-1.1747
-3.24894
-4.19982
-5.26946
-5.46227
-4.47456
-4.95165
-4.45208
-2.74797
-1.54577
-1.31729
-1.46094
-1.23719
-1.4015
-1.3083
-1.22019
-1.65
-1.70679
-1.73028
-1.86107
-2.93894
-4.52527
-6.43039
-6.52604
-4.37319
-4.78658
-4.89934
-3.41116
-2.2274
-2.10174
-1.82945
-1.65214
-1.61201
-1.44593
-1.36552
-1.89224
-1.97465
-2.1784
-2.60395
-3.72418
-4.59611
-5.38304
-5.51594
-4.82139
-5.67364
-5.32692
-4.29782
-3.7995
-2.99647
-2.2777
-1.88996
-1.55487
-1.34974
-1.25295
-2.06559
-2.14908
-2.39242
-3.00255
-3.72187
-4.48437
-5.05251
-5.26692
-5.64639
-5.85741
-5.57555
-4.87325
-4.15559
-3.12826
-2.46934
-1.97854
-1.5347
-1.30407
-1.25162
-2.41688
-2.62556
-2.77319
-3.07193
-3.59878
-4.16109
-4.64794
-5.05318
-5.58067
-6.23628
-5.71005
-4.96323
-4.00523
-3.21403
-2.51865
-2.07075
-1.60802
-1.45679
-1.40293
-2.61047
-2.74003
-3.09783
-3.17599
-3.53943
-3.96214
-4.58654
-4.95458
-5.03633
-4.44848
-4.6684
-4.29412
-3.75492
-3.25256
-2.83581
-2.17847
-1.7679
-1.66985
-1.64374
-2.86399
-2.97078
-2.96111
-3.14116
-3.6521
-4.08751
-4.34203
-4.51182
-4.2462
-4.33992
-3.93689
-3.94754
-3.36908
-2.87238
-2.55813
-2.15124
-2.14339
-1.96156
-1.89385
-2.87864
-2.93976
-3.07987
-3.38903
-3.68999
-3.81587
-4.09344
-3.76999
-3.86185
-4.27042
-3.86897
-3.41449
-3.21605
-2.82267
-2.66664
-2.5218
-2.34432
-2.15417
-2.10522
-3.05124
-3.14387
-3.3865
-3.3567
-3.48087
-3.70889
-3.86276
-3.69134
-4.09604
-3.93358
-3.77454
-3.60844
-3.23107
-2.71851
-2.64805
-2.6125
-2.41407
-2.31122
-2.26726
-3.19248
-3.2184
-3.51461
-3.36866
-3.44618
-3.7606
-3.66561
-3.6727
-3.60673
-3.89919
-3.39687
-3.43018
-3.22573
-3.03856
-2.76796
-2.54912
-2.57348
-2.50394
-2.48171
-3.36887
-3.30084
-3.47845
-3.46472
-3.5981
-3.52487
-3.55645
-3.88699
-3.83334
-3.78483
-3.61121
-3.38438
-3.16516
-3.0293
-2.90547
-2.63514
-2.66556
-2.61896
-2.6107
-3.38571
-3.45392
-3.52383
-3.57329
-3.63075
-3.6764
-3.6696
-3.78148
-3.45618
-3.51822
-3.68968
-3.52343
-3.18967
-3.16422
-3.13221
-2.87488
-2.85464
-2.78823
-2.77246
-3.52402
-3.56246
-3.61268
-3.63345
-3.68572
-3.65647
-3.81044
-3.62668
-3.63671
-3.56805
-3.47021
-3.48854
-3.41695
-3.34697
-3.12191
-3.10857
-2.97626
-2.93252
-2.91578
-3.63039
-3.68925
-3.70736
-3.70696
-3.74811
-3.74816
-3.81115
-3.75042
-3.70526
-3.70946
-3.46931
-3.44301
-3.50126
-3.28858
-3.17049
-3.20623
-3.17472
-3.07793
-3.06253
-3.72857
-3.75665
-3.77912
-3.80409
-3.82675
-3.829
-3.8619
-3.77793
-3.79921
-3.74851
-3.69791
-3.57179
-3.50758
-3.38133
-3.39965
-3.28188
-3.29466
-3.21531
-3.19688
-3.82714
-3.85441
-3.87289
-3.89657
-3.91451
-3.90923
-3.95648
-3.84572
-3.88606
-3.78647
-3.77203
-3.6785
-3.65829
-3.58951
-3.48157
-3.4247
-3.35601
-3.36974
-3.35227
-3.94978
-3.94761
-3.97192
-3.97929
-4.01497
-4.00561
-4.03111
-3.84527
-4.0543
-3.88199
-3.87785
-3.76823
-3.75223
-3.6838
-3.597
-3.58239
-3.52947
-3.50041
-3.4971
-4.0434
-4.049
-4.06071
-4.07521
-4.09162
-4.08813
-4.1596
-4.0202
-4.0631
-3.89352
-4.05348
-3.88604
-3.86508
-3.80377
-3.70153
-3.75746
-3.67617
-3.64064
-3.65219
-4.16323
-4.16606
-4.15897
-4.16677
-4.19072
-4.15209
-4.2065
-4.18877
-4.18022
-4.05307
-4.0372
-3.93445
-4.0431
-3.93686
-3.87966
-3.83067
-3.77375
-3.79634
-3.77692
-4.27246
-4.26904
-4.27673
-4.24902
-4.2861
-4.25584
-4.29524
-4.26576
-4.29103
-4.28094
-4.27887
-4.10862
-4.05402
-4.04173
-3.98249
-4.0216
-3.94545
-3.95109
-3.92955
-4.38266
-4.37943
-4.38252
-4.37895
-4.38102
-4.2958
-4.43208
-4.38563
-4.38907
-4.35266
-4.36219
-4.36477
-4.21641
-4.17121
-4.14324
-4.05611
-4.01631
-4.00301
-4.06757
-4.49326
-4.48922
-4.48844
-4.48959
-4.44786
-4.4295
-4.44251
-4.53678
-4.49605
-4.48293
-4.45541
-4.43039
-4.42109
-4.43876
-4.41369
-4.41023
-4.40374
-4.3323
-4.20613
-4.60607
-4.60526
-4.60263
-4.59675
-4.61329
-4.52836
-4.54236
-4.52744
-4.63917
-4.59769
-4.588
-4.55362
-4.52728
-4.51094
-4.48375
-4.48012
-4.47309
-4.50449
-4.5366
-4.72046
-4.7114
-4.72634
-4.67429
-4.70386
-4.70061
-4.6409
-4.68161
-4.62013
-4.738
-4.69141
-4.6766
-4.65575
-4.64387
-4.62787
-4.62217
-4.60886
-4.60871
-4.59877
-4.83465
-4.83008
-4.83355
-4.83125
-4.80795
-4.80603
-4.8093
-4.75876
-4.80345
-4.75798
-4.84738
-4.79982
-4.78262
-4.7715
-4.75755
-4.75245
-4.74558
-4.74617
-4.74398
-4.947
-4.95211
-4.93629
-4.93613
-4.9179
-4.93194
-4.89025
-4.93722
-4.89249
-4.8987
-4.88133
-4.90876
-4.89866
-4.89702
-4.88712
-4.88467
-4.87863
-4.87916
-4.87758
-5.06525
-5.06755
-5.06169
-5.06661
-5.03727
-5.04224
-5.05734
-5.02622
-5.02041
-5.04287
-5.05856
-5.07886
-5.03642
-5.03078
-5.0193
-5.01635
-5.01156
-5.01252
-5.01148
-5.18331
-5.18471
-5.17132
-5.1777
-5.17361
-5.16622
-5.14963
-5.15667
-5.1611
-5.12507
-5.12191
-5.14987
-5.14875
-5.15483
-5.15152
-5.15179
-5.14876
-5.14973
-5.14959
-5.30453
-5.30524
-5.2986
-5.29743
-5.2988
-5.27546
-5.28398
-5.26705
-5.29492
-5.28883
-5.28395
-5.27943
-5.28316
-5.28157
-5.27982
-5.27976
-5.27904
-5.27889
-5.27796
-5.42422
-5.42718
-5.41075
-5.41653
-5.41676
-5.42878
-5.4061
-5.40806
-5.40255
-5.3942
-5.39935
-5.40579
-5.41952
-5.41963
-5.42365
-5.42696
-5.42917
-5.42966
-5.42953
-5.54422
-5.54937
-5.54412
-5.54415
-5.55198
-5.53962
-5.54978
-5.5289
-5.54575
-5.53836
-5.53122
-5.53455
-5.53336
-5.53069
-5.52958
-5.52936
-5.52923
-5.52928
-5.52895
-5.67044
-5.66191
-5.67644
-5.66156
-5.65682
-5.66128
-5.667
-5.6522
-5.61615
-5.63009
-5.64023
-5.68191
-5.69536
-5.71133
-5.72015
-5.72763
-5.73248
-5.73516
-5.7359
)
;

boundaryField
{
    leftWall
    {
        type            calculated;
        value           nonuniform List<scalar> 
50
(
1873.28
1814.23
1753.64
1695.85
1630.1
1578.77
1514.41
1454.67
1363.7
1223.25
1079.46
923.753
742.695
631.154
897.596
1762.26
1257.35
534.122
433.853
413.16
403.909
107.28
24.5016
10.6012
-0.454509
-3.35486
-3.0275
-3.15029
-3.36711
-3.45603
-3.59941
-3.60776
-3.58531
-3.75767
-3.86338
-3.98545
-4.10765
-4.22862
-4.35229
-4.4715
-4.59297
-4.71598
-4.83699
-4.96109
-5.08074
-5.20481
-5.32349
-5.45298
-5.54045
-5.77099
)
;
    }
    rightWall
    {
        type            calculated;
        value           nonuniform List<scalar> 
50
(
13.7863
13.6618
13.4644
13.1947
12.8489
12.4349
11.9262
11.3231
10.2097
8.84036
7.44597
6.15979
4.91801
3.82733
2.68274
1.23601
0.0847203
-0.610924
-1.22019
-1.36552
-1.25295
-1.25162
-1.40293
-1.64374
-1.89385
-2.10522
-2.26726
-2.48171
-2.6107
-2.77246
-2.91578
-3.06253
-3.19688
-3.35227
-3.4971
-3.65219
-3.77692
-3.92955
-4.06757
-4.20613
-4.5366
-4.59877
-4.74398
-4.87758
-5.01148
-5.14959
-5.27796
-5.42953
-5.52895
-5.7359
)
;
    }
    lowerWall
    {
        type            calculated;
        value           nonuniform List<scalar> 
62
(
1902.71
1903.96
1898.97
1896.45
1861.31
1830.69
1759.86
1741.35
1630.64
1508.91
1703.18
1633.68
1597.17
1574.55
1586.82
1337.97
1334.72
1400.22
1564.96
1565.17
2055.49
2265.37
2171.99
2162.45
2091.47
2164.85
2071.12
2002.57
1820.96
1614.32
1175.3
-499.374
-567.62
44.9563
274.608
-27.8733
-27.9074
-27.8828
-27.8243
-27.6842
-27.4066
-27.0449
-26.8189
-27.8439
-28.0673
-28.4273
-29.1794
-29.6772
-30.868
-33.0369
-36.4181
-37.2702
-27.8887
15.8177
20.7455
20.722
19.4597
17.4086
15.7647
14.6987
14.112
13.8157
)
;
    }
    atmosphere
    {
        type            calculated;
        value           nonuniform List<scalar> 
46
(
-5.77779
-5.77868
-5.77885
-5.78717
-5.77089
-5.767
-5.76297
-5.75415
-5.76438
-5.74762
-5.75856
-5.74806
-5.75146
-5.74879
-5.7484
-5.74274
-5.74046
-5.73589
-5.73339
-5.73247
-5.73054
-5.73059
-5.72912
-5.72918
-5.72904
-5.72904
-5.72904
-5.72904
-5.72904
-5.72904
-5.72904
-5.72904
-5.72904
-5.72904
-5.72904
-5.72904
-5.72904
-5.72904
-5.72904
-5.72904
-5.72904
-5.72904
-5.72904
-5.72904
-5.72904
-5.72904
)
;
    }
    defaultFaces
    {
        type            empty;
    }
}


// ************************************************************************* //
