/*--------------------------------*- C++ -*----------------------------------*\
| =========                 |                                                 |
| \\      /  F ield         | foam-extend: Open Source CFD                    |
|  \\    /   O peration     | Version:     4.1                                |
|   \\  /    A nd           | Web:         http://www.foam-extend.org         |
|    \\/     M anipulation  |                                                 |
\*---------------------------------------------------------------------------*/
FoamFile
{
    version     2.0;
    format      ascii;
    class       volScalarField;
    location    "0.3";
    object      pd;
}
// * * * * * * * * * * * * * * * * * * * * * * * * * * * * * * * * * * * * * //

dimensions      [1 -1 -2 0 0 0 0];

internalField   nonuniform List<scalar> 
2268
(
1902.71
1903.96
1898.97
1896.45
1861.31
1830.69
1759.86
1741.35
1630.64
1508.91
1703.18
1633.68
1597.17
1574.55
1586.82
1337.97
1334.72
1400.22
1564.96
1565.17
2055.49
2265.37
2171.99
1902.52
1903.61
1898.83
1896.14
1861.77
1828.87
1757.61
1741.12
1626.91
1497.03
1664.69
1643.03
1588.87
1544.33
1479.37
1442.91
1293.58
1397.48
1639.18
1852.99
2444.2
2123.19
2168.22
1900.78
1902.83
1898.1
1895.7
1861.9
1831.96
1766.19
1733.47
1621.41
1561.75
1573.98
1656.73
1591.2
1568.4
1456.31
1418.7
1388.7
2027.03
2515.25
2809.62
2922.85
2625.82
2291.51
1901.85
1901.72
1897.77
1894.9
1862.73
1823.59
1768.13
1743.13
1611.57
1583.18
1557.17
1596.68
1655.24
1497.53
1576.96
1576.15
1819.38
2779.39
2645.19
2411.39
2558.41
2626.75
2246.84
1894.96
1899.39
1896.52
1894.24
1862.92
1818.74
1751.22
1753.64
1608.55
1614.29
1545.91
1606.15
1479.47
1497.23
1425.5
1405.08
1464.1
1856.17
1791.27
1821.85
2108.38
2539.2
2225.06
1902.49
1898.38
1895.95
1893.41
1861.04
1816.1
1747.22
1751.82
1558.44
1639.39
1550.94
1531.12
1522.52
1528.26
1222.89
1338.38
1440.6
1466.26
1464.67
1462.59
1837.18
2296
2094.64
1896.99
1895.04
1893.8
1890.73
1861.88
1814.27
1772.09
1780.79
1530.93
1637.69
1608.22
1457.73
1574.7
1455.6
1277.73
1133.72
1457.31
1485.65
1472.92
1401.57
1830.53
2094.67
1936.2
1896.11
1897.93
1893.42
1897.88
1855.32
1813.44
1728.9
1759.83
1575.07
1610.84
1569.07
1519.22
1351.17
1479.48
1348.15
1186.07
1362.59
1565.05
1874.65
1643.97
2084.16
1993.14
1546.87
-27.8439
-28.0673
-28.4273
-29.1794
-29.6772
-30.868
-33.0369
-36.4181
-37.2702
-27.8887
15.8177
20.7455
20.722
19.4597
17.4086
15.7647
14.6987
14.112
13.8157
-27.8191
-28.0571
-28.4995
-29.2554
-30.0187
-31.4386
-32.7035
-33.7739
-37.2503
-23.7612
38.2702
22.8545
20.6644
19.4099
17.3214
15.7257
14.6295
14.0427
13.7501
-27.7356
-28.0592
-28.6617
-29.3832
-30.4076
-31.7049
-32.2558
-33.6907
-34.5385
71.8448
166.468
58.8486
23.3646
19.5309
17.162
15.6457
14.4856
13.896
13.6115
-27.6182
-28.0254
-28.7535
-29.7006
-30.5627
-31.4517
-31.714
-33.4648
-15.4758
427.373
566.321
247.248
46.8489
21.1665
17.0575
15.5077
14.2714
13.6764
13.4007
-27.4187
-27.9036
-28.7703
-29.8934
-30.5982
-31.1154
-30.6765
-32.0225
276.07
966.783
969.234
401.625
86.073
27.6057
17.4718
15.3744
13.9604
13.3721
13.1138
-27.0801
-27.684
-28.6163
-29.4301
-29.3447
-29.422
-27.4312
-24.2678
719.182
1291.32
1216.68
752.173
246.477
58.0411
20.519
15.284
13.5309
12.9763
12.7587
-26.6537
-27.2841
-28.649
-17.367
-10.5449
-15.6888
-8.89854
40.044
887.845
1466.47
1431.01
1136.36
470.596
102.041
25.7335
14.9719
12.9234
12.4582
12.309
-26.3455
-27.0286
-28.4784
165.801
190.587
105.766
96.7375
441.919
1325.29
1568.24
1528.29
1281.17
548.192
112.748
26.4143
13.4312
11.9716
11.8147
11.7653
1897.17
1888.3
1888.28
1879.59
1810.36
1791.35
1744.92
1694.47
1543.1
1550.42
1524.44
1519.16
1484.08
1518.34
1064.08
945.013
1467.56
1399.02
1426.14
1830.31
2408.2
2087.98
824.764
1881.91
1890.66
1882.17
1856.37
1874.8
1799.44
1748.89
1688.25
1508.62
1464.57
1395.96
1300.29
1553
1450.59
1236.15
1204.99
1263.31
1279.59
1315.96
1421.76
1908.27
1754.1
1111.18
1863.17
1860.21
1888.04
1902.82
1835.17
1796.03
1728.5
1633.92
1619.72
1790.94
1655.09
1965.98
2056.2
2262.97
1949.81
1673.27
1570.02
1478.39
1344.42
1428.18
1424.46
1590.95
907.193
1831.21
1824.37
1807.54
1873.87
1858.45
1873.61
1815.97
1696.71
2345.38
2348.39
2342.71
2212.6
2251.01
1753.43
2054.73
2002.45
2309
2233.92
1824.36
1337.92
1118.09
1158.15
1153.2
1766.04
1761.83
1730.21
1625.64
1641.58
1604.85
1558.54
2024.31
2138.75
1596.93
1437.81
1119.66
1097.03
888.489
784.168
724.919
1010.69
1353.15
2185.32
2086.16
1883.62
1957.14
2159.11
1738.74
1728.98
1702.38
1723.3
1686.74
1660.55
1662.92
2062.2
2174.32
1468.85
1114.49
876.592
723.352
518.375
343.102
267.244
334.975
479.828
1241.44
1709.87
1801.08
1758.96
1734.13
1991.81
1838.84
1715.59
1701.53
1643
1578.44
1572.79
1831.86
2520.56
2485.13
1951.92
1217.76
803.714
477.65
202.52
138.435
156.967
130.331
211.159
356.592
506.009
724.474
1165.76
2615.49
2510.02
1859.47
1761.91
1872.87
1842.41
1703.48
1960.29
2380.56
2549.15
2546.17
2075.63
1215.12
544.68
154.139
65.725
46.0165
27.0659
32.3064
72.0956
193.849
180.106
306.115
1680.68
2001.3
2529.03
2276.89
2729.81
2168.93
2153.46
2552.91
2506.64
2559.55
2579.23
2269.5
1354.31
506.274
111.043
32.6031
11.5243
7.43952
6.8321
7.89474
26.8545
23.6548
21.7742
763.596
1427.53
2639.09
2696.15
2317.26
2678.25
2540.31
2613.07
2480.9
2550.04
2544.44
2081.41
667.31
192.905
29.5893
11.1337
4.57892
2.95408
2.70074
3.6985
3.94174
3.11626
2.84603
654.019
1418.34
2618.46
2131.41
1187.75
1872.87
2331.82
1576.26
1142.24
1595.33
1582.82
708.497
101.147
38.5708
0.778551
0.59891
1.05742
1.37602
1.29808
3.2938
2.61416
1.95369
2.86046
662.397
1354.89
2601.64
1363.53
457.123
374.887
762.459
340.805
237.012
592.046
298.267
60.7867
4.02952
-0.816867
0.306276
0.489184
1.12148
0.751573
1.67817
3.51915
2.0669
1.4764
1.69463
674.914
627.791
1735.71
628.755
112.1
13.4305
170.989
75.4924
70.4453
228.867
184.032
26.6815
11.7156
0.63258
0.642136
0.571873
1.52728
1.563
2.64595
1.5624
1.1595
0.77518
0.43965
230.81
213.654
1247.11
274.201
25.5752
0.0226184
26.5395
21.0132
33.4419
150.887
202.206
105.625
147.352
3.92791
0.0216861
0.068154
1.20944
0.806206
0.479791
0.312386
0.492756
0.239077
0.132993
71.3306
116.934
943.909
162.123
7.37927
-0.245715
1.36754
4.0744
31.0803
337.039
757.745
281.537
237.12
6.93349
-0.0291525
-0.0900608
0.0323183
-0.0908231
-0.0329429
-0.00621475
0.120399
0.050081
0.0240916
33.0288
83.936
832.947
88.3611
0.965497
-0.775106
-0.680729
0.00712144
-0.66072
14.4031
237.614
1185.24
217.934
0.866253
-0.039419
-0.0803511
-0.0494446
-0.111788
-0.0710246
-0.0798193
-0.0133613
-0.0645077
-0.0545754
11.605
49.6342
498.481
28.5488
-0.415414
-0.491892
-0.439327
-0.853472
-0.448578
3.02929
57.5252
1057.86
44.8353
-0.0100005
-0.139359
-0.0364961
-0.0874256
-0.0684681
-0.038576
-0.133034
-0.0681598
-0.0947086
-0.0895503
-0.0246058
18.873
161.01
16.613
-0.309156
-0.562388
-0.598775
-0.785758
-0.687595
0.252501
6.73956
35.9959
-0.20055
0.0383182
-0.148161
-0.0139748
-0.0728459
-0.0950649
-0.11155
-0.11764
-0.076046
-0.13937
-0.141404
-0.195174
8.21046
40.6829
5.78297
-0.433313
-0.477183
-0.365975
-0.434289
-0.398201
-0.553667
-0.590914
-0.359199
-0.0759114
-0.158464
-0.133923
-0.0767911
-0.106717
-0.123179
-0.0869291
-0.107948
-0.16052
-0.172173
-0.136912
-0.218656
-0.0466949
11.1652
-0.0501534
-0.495471
-0.412348
-0.255044
-0.306153
-0.32956
-0.311609
-0.271593
-0.17854
-0.342997
-0.173734
-0.0753803
-0.0361563
-0.122518
-0.116978
-0.108323
-0.125885
-0.0901695
-0.140012
-0.13571
-0.32122
-0.35764
-0.143933
-0.321481
-0.324593
-0.122503
-0.363307
-0.287799
-0.105521
-0.201503
-0.254953
-0.391543
-0.139563
-0.145699
-0.0857824
-0.0888311
-0.0888969
-0.157343
-0.14045
-0.158489
-0.123059
-0.139031
-0.193134
-0.293364
-0.320225
-0.300543
-0.374223
-0.259661
-0.162548
-0.23353
-0.294874
-0.293511
-0.241619
-0.222022
-0.248887
-0.200564
-0.0788551
-0.13337
-0.0944483
-0.0872221
-0.170354
-0.137208
-0.144142
-0.122266
-0.142177
-0.160449
-0.311644
-0.361756
-0.34154
-0.202862
-0.308752
-0.346412
-0.25829
-0.233241
-0.294519
-0.238432
-0.214761
-0.249672
-0.0816699
-0.0888486
-0.120071
-0.145597
-0.112586
-0.1506
-0.0943771
-0.125805
-0.126062
-0.152608
-0.16329
-0.194812
-0.113525
-0.0660366
-0.161314
-0.0887913
-0.297384
-0.230307
-0.219046
-0.205139
-0.175263
-0.152844
-0.146856
-0.120188
-0.0705072
-0.122454
-0.113178
-0.111685
-0.134524
-0.0875392
-0.160133
-0.12494
-0.156463
-0.135852
-0.0471752
-0.0976247
-0.0975981
-0.11826
-0.12002
-0.0885731
-0.109025
-0.159425
-0.15203
-0.160607
-0.181129
-0.179152
-0.162624
-0.11906
-0.14179
-0.171102
-0.132242
-0.0619851
-0.137588
-0.119303
-0.124385
-0.136398
-0.144936
-0.0943421
-0.0918679
-0.0961898
-0.0937894
-0.0934947
-0.0949032
-0.111101
-0.046212
-0.0903071
-0.105835
-0.0653387
-0.0613526
-0.0466886
-0.0913453
-0.0989697
-0.114286
-0.0751549
-0.127012
-0.107654
-0.113799
-0.12044
-0.128667
-0.129633
-0.0748589
-0.0809375
-0.081334
-0.0803482
-0.0871891
-0.0805441
-0.0888396
-0.084458
-0.0899075
-0.0946232
-0.0919516
-0.0887296
-0.108513
-0.0434497
-0.104251
-0.0343655
-0.118306
-0.0889304
-0.107522
-0.102224
-0.105292
-0.115715
-0.117425
-0.0717341
-0.0720486
-0.0775644
-0.0739243
-0.0736292
-0.0680023
-0.0724822
-0.0637595
-0.0627071
-0.0611714
-0.0417019
-0.0500499
-0.0796791
-0.0896438
-0.0910093
-0.0728594
-0.0894802
-0.0634609
-0.0922203
-0.0523817
-0.118838
-0.105747
-0.118879
-0.0687346
-0.0700804
-0.0706431
-0.0704468
-0.0729099
-0.0700973
-0.073766
-0.0703593
-0.0758071
-0.0682065
-0.0941837
-0.0904293
-0.0903831
-0.0475331
-0.0591269
-0.10171
-0.0426167
-0.0856241
-0.101042
-0.0757842
-0.0966514
-0.0945828
-0.0985397
-0.0645089
-0.0654166
-0.0603558
-0.05874
-0.0519434
-0.0236181
-0.0334719
-0.0551647
-0.0591532
-0.0628813
-0.044471
-0.0803266
-0.0722626
-0.0687933
-0.0942342
-0.0471836
-0.0718998
-0.0613492
-0.0581484
-0.0852752
-0.0499268
-0.100542
-0.0849691
-0.0629852
-0.06342
-0.0623959
-0.0694778
-0.0685985
-0.10708
-0.112252
-0.0731838
-0.0624786
-0.0562524
-0.0781419
-0.0643779
-0.0677434
-0.0635521
-0.0382574
-0.0562659
-0.0360728
-0.0650981
-0.0444069
-0.0776197
-0.0814328
-0.0816146
-0.0836925
-0.0570013
-0.0576057
-0.0555945
-0.0550669
-0.0509722
-0.0503982
-0.05839
-0.0717355
-0.106307
-0.0806806
-0.0789984
-0.0682738
-0.0514839
-0.0565073
-0.0614619
-0.0610362
-0.0780163
-0.0283521
-0.071443
-0.0456274
-0.0621313
-0.0490872
-0.0745635
-0.0532803
-0.0525178
-0.0549452
-0.0536295
-0.0710431
-0.0889104
-0.0722588
-0.051812
-0.0255358
-0.0145744
-0.0386437
-0.0198705
-0.0521516
-0.0446458
-0.0493979
-0.0330427
-0.0252428
-0.0465551
-0.0506451
-0.035388
-0.0566677
-0.0625623
-0.0632065
-0.0510946
-0.0509345
-0.0491688
-0.0491158
-0.0433576
-0.0160326
-0.0370232
-0.020491
-0.0372651
-0.0555478
-0.0510715
-0.0624884
-0.0654391
-0.0474788
-0.0497401
-0.0422554
-0.0556021
-0.0298465
-0.0224503
-0.044865
-0.0517118
-0.0539712
-0.0538383
-0.0469129
-0.0456454
-0.0473484
-0.040863
-0.0223135
-0.0379304
-0.0467374
-0.0685378
-0.0476201
-0.0341472
-0.0366865
-0.033401
-0.0430079
-0.0387944
-0.0354021
-0.0365382
-0.0216229
-0.0320494
-0.0332552
-0.0345141
-0.0213927
-0.0308119
-0.0493912
-0.0458126
-0.0421217
-0.0509138
-0.0400354
-0.0813252
-0.0421338
-0.0470776
-0.0352618
-0.0493432
-0.0529287
-0.058838
-0.0435589
-0.0347491
-0.0284965
-0.0362693
-0.0325096
-0.0327461
-0.033804
-0.022527
-0.0287429
-0.0339602
-0.0127667
-0.0476863
-0.0402729
-0.0414091
-0.0438451
-0.0401703
-0.0438857
-0.0429311
-0.0387915
-0.0447824
-0.0328044
-0.00736931
-0.00898109
-0.0246685
-0.0439407
-0.0387145
-0.0297239
-0.0256916
-0.0253355
-0.0191375
-0.0251514
-0.0118406
-0.0245374
-0.0120648
-0.0353455
-0.0391435
-0.0379846
-0.0375351
-0.0376203
-0.0445272
-0.0376522
-0.0403183
-0.0350649
-0.0383411
-0.0693324
-0.0417256
-0.0377421
-0.0348329
-0.031509
-0.0277185
-0.0249825
-0.0256754
-0.0160418
-0.0211717
-0.0169933
-0.0181176
-0.0180117
-0.0182728
-0.0326308
-0.0338644
-0.0411571
-0.0403034
-0.0445605
-0.0454236
-0.0579027
-0.0452193
-0.0337067
-0.0246295
-0.0274945
-0.0252838
-0.029
-0.0247375
-0.0199989
-0.015808
-0.0142238
-0.0111041
-0.0135701
-0.0084864
-0.0169009
-0.0108942
-0.00536329
-0.0369301
-0.033154
-0.0341286
-0.00751818
-0.0260336
-0.0286654
-0.00759536
-0.0327664
-0.0294543
-0.0393345
-0.0329566
-0.0300667
-0.0303505
-0.0275284
-0.0229597
-0.0225429
-0.0203476
-0.0183174
-0.0116654
-0.0129831
-0.00855982
-0.0119406
-0.00225178
0.000795893
-0.00433311
-0.0176231
-0.0791064
-0.0541993
-0.0181686
-0.0141417
-0.0321156
-0.0110838
-0.0251163
-0.0109008
-0.0199161
-0.0227915
-0.00341804
-0.00101716
0.00347359
0.00395764
0.00423492
-0.00335144
-0.00259929
-0.00575782
-0.00667576
-0.00410761
-0.104547
-0.100549
-0.0842884
-0.0426314
-0.0350435
-0.0621232
-0.0622517
-0.022586
-0.0700265
-0.0179386
-0.0575387
-0.0231392
-0.0283858
-0.0415873
-0.0423723
-0.0355683
-0.0364921
-0.02599
-0.0131959
-0.0151075
-0.00369094
-0.005825
0.000366142
-103.559
-170.732
418.37
336.838
625.123
268.384
268.951
615.089
1029.89
887.958
1187.44
1138.21
1690.36
1848.81
1817.24
1559.95
2172.05
2115.35
2042.09
1906.74
1909.74
2087.05
2227.95
2269.48
1464.71
1629.44
1925.39
1927.65
405.293
472.46
806.613
847.786
33.445
47.1562
96.6614
142.356
4.32737
4.91623
7.987
12.3088
3.09388
3.10459
3.30597
3.54269
1.22704
1.04052
0.916653
0.859223
0.442489
0.468803
0.301904
0.29665
0.0850537
0.159883
0.0954971
0.119793
-0.024717
-0.0182764
-0.0463101
-0.0744838
-0.0629677
-0.0445074
-0.0975429
-0.15971
-0.146581
-0.185914
-0.242211
-0.213679
-0.189501
-0.167008
-0.16371
-0.220026
-0.157226
-0.121217
-0.176376
-0.178563
-0.198721
-0.180378
-0.194878
-0.226375
-0.192243
-0.208841
-0.193706
-0.183278
-0.145812
-0.168136
-0.181834
-0.211505
-0.186016
-0.199892
-0.208327
-0.232242
-0.13798
-0.158316
-0.170386
-0.174388
-0.164043
-0.155317
-0.158622
-0.176232
-0.13186
-0.15472
-0.157553
-0.151637
-0.146881
-0.126765
-0.147741
-0.143508
-0.104582
-0.123804
-0.119928
-0.127564
-0.107283
-0.102212
-0.108123
-0.117497
-0.101934
-0.0993608
-0.0955098
-0.0962894
-0.0716477
-0.0853313
-0.0819765
-0.0886842
-0.077584
-0.0712964
-0.0755154
-0.0752303
-0.0607211
-0.0639363
-0.0663846
-0.065133
-0.053889
-0.0529771
-0.0527013
-0.0537542
-0.0365601
-0.045695
-0.043627
-0.043456
-0.0398792
-0.0353598
-0.0345451
-0.03398
-0.021632
-0.0269901
-0.0255921
-0.0259944
-0.0182739
-0.0205231
-0.019764
-0.0194438
-0.0230927
-0.0146604
-0.0166756
-0.0152542
-0.0159489
-0.0107324
-0.0118231
-0.0081337
-0.00634387
-0.00363184
-0.00530478
-0.00444325
-0.00498614
0.000415347
-0.00668116
0.00255845
-14.9686
-24.0804
17.1762
716.186
995.56
942.566
1034.12
1459.68
1795.02
1627.74
1522.67
1317.33
501.627
92.9541
21.3983
11.2973
10.346
10.6113
10.7438
1077.69
456.73
597.316
936.886
1562.65
1786.57
1892.37
2094.09
2186.55
1730.33
1501.84
1096.94
251.776
47.2782
20.6435
11.0366
9.32381
9.35196
9.50275
1041.62
1201.36
1482.49
1848.46
1447.92
1638.96
1819.84
2056.89
1989.87
880.863
341.783
83.4342
20.6368
7.16167
4.80936
6.79151
7.55866
7.98432
8.23311
1183.02
1706.48
1438.23
1597.87
1785.36
2033.25
2087.17
1371.6
672.157
303.623
181.439
108.902
52.8478
22.521
9.35288
6.8216
6.94355
6.85092
7.07059
1716.91
1770.05
1966.12
1767.15
2087.97
2185.95
1549.41
668.292
289.677
188.411
140.778
93.7051
47.556
15.1994
4.49442
3.4013
4.52899
5.53549
5.95282
2144.43
2023.85
2222.69
2140.82
2148.86
1933.77
1018.17
283.54
77.0153
44.8127
48.0264
52.3278
44.6976
18.2679
4.56108
2.79909
3.56205
4.4643
4.98692
1223.27
662.649
1027.88
998.143
878.989
711.249
283.199
48.604
10.6092
7.98633
13.6869
22.013
21.7648
12.2281
3.53245
2.12107
2.93997
3.64317
3.96741
307.105
48.0613
86.8198
89.1765
117.987
90.3726
31.8897
7.05902
1.76991
2.3754
7.5339
15.0084
15.367
8.48545
2.24361
1.56017
2.23342
2.59359
2.64585
47.2138
10.1201
9.07368
10.4271
8.11714
12.7715
3.1853
0.637722
-0.216919
0.695538
5.57733
10.7294
11.4847
6.22551
1.63997
1.10444
1.58709
1.6131
1.61975
6.18313
4.55714
4.83279
4.78313
3.02247
1.58555
0.63918
1.31132
1.49812
0.538991
4.24107
6.73192
6.19547
3.26818
0.998466
0.75255
0.956799
0.960305
1.04929
3.28943
2.62998
2.7807
3.45557
2.45603
1.36682
0.0102414
-0.603127
-0.0255774
-0.488525
1.18689
5.71081
6.20304
3.01313
0.617504
0.56381
0.384582
0.477134
0.565225
0.884862
0.854081
1.27877
2.5154
4.12829
2.55954
0.106123
-0.567984
1.45722
1.26183
2.9529
6.15901
5.91606
1.7695
0.226684
0.265667
0.298884
0.464687
0.545087
0.309342
0.278223
0.350827
0.641849
1.59283
3.54592
4.01271
4.73402
5.63255
4.91542
5.29459
5.64763
2.92339
-0.0805683
-0.180774
0.148701
0.481033
0.686063
0.782855
0.157587
0.127692
0.0255779
-0.301821
-0.217992
0.398686
1.37247
1.67067
3.28841
3.95818
3.93146
2.65226
-0.0998445
-0.650437
-0.286494
0.183454
0.626334
0.856926
0.909373
-0.0946201
-0.269851
-0.361648
-0.552143
-0.820866
-1.12229
-1.1794
-1.06851
-0.793046
-0.659875
-0.118942
-0.779183
-1.1212
-0.828762
-0.226027
0.215719
0.678177
0.829403
0.883262
-0.188983
-0.320525
-0.671586
-0.731328
-1.03278
-1.38812
-1.92319
-2.21262
-2.15617
-1.36971
-1.24274
-1.43067
-1.20628
-0.817938
-0.422854
0.232981
0.643487
0.741534
0.767648
-0.324845
-0.431825
-0.420466
-0.596314
-1.09109
-1.51181
-1.74693
-1.89072
-1.55209
-1.57647
-1.14946
-1.31401
-0.802396
-0.330552
-0.0212223
0.385349
0.393193
0.575022
0.642734
-0.216305
-0.27743
-0.416682
-0.724778
-1.02339
-1.14486
-1.41611
-1.07524
-1.15139
-1.5553
-1.15659
-0.739077
-0.549368
-0.160027
-0.00481104
0.139972
0.317456
0.507604
0.556553
-0.264179
-0.356825
-0.599387
-0.569417
-0.692911
-0.919266
-1.07052
-0.895945
-1.29915
-1.13958
-0.978858
-0.818918
-0.443281
0.0685916
0.138932
0.174473
0.372899
0.475749
0.519713
-0.280302
-0.306229
-0.60243
-0.456419
-0.533864
-0.848177
-0.752774
-0.759323
-0.693938
-0.986077
-0.483545
-0.517662
-0.313461
-0.126381
0.144203
0.363048
0.338683
0.408225
0.430454
-0.331511
-0.263476
-0.441089
-0.427353
-0.560729
-0.48748
-0.519006
-0.849491
-0.795919
-0.747328
-0.573651
-0.346973
-0.127787
0.00806482
0.131889
0.402214
0.371794
0.418394
0.426661
-0.223156
-0.29137
-0.361275
-0.410734
-0.468199
-0.513841
-0.507043
-0.618923
-0.293618
-0.35565
-0.527096
-0.360871
-0.0271206
-0.00166341
0.0303421
0.287677
0.307909
0.374318
0.390095
-0.236277
-0.274712
-0.324934
-0.345699
-0.397975
-0.368725
-0.522693
-0.338935
-0.34896
-0.280306
-0.182459
-0.200795
-0.129208
-0.0592279
0.165832
0.179181
0.311491
0.35523
0.371966
-0.21745
-0.276308
-0.294419
-0.294023
-0.335173
-0.335218
-0.398206
-0.337475
-0.292317
-0.29652
-0.0563653
-0.030066
-0.0883198
0.124363
0.242456
0.206714
0.238222
0.335007
0.350409
-0.190436
-0.218517
-0.240983
-0.265953
-0.288611
-0.290864
-0.323761
-0.239796
-0.261075
-0.210378
-0.15977
-0.0336506
0.0305557
0.156804
0.138489
0.256258
0.243478
0.322823
0.341259
-0.163807
-0.191083
-0.209564
-0.233239
-0.251176
-0.245902
-0.293154
-0.182386
-0.222731
-0.12314
-0.108698
-0.0151683
0.00503795
0.0738202
0.18176
0.238629
0.307322
0.293593
0.311059
-0.161258
-0.15909
-0.183398
-0.190762
-0.22645
-0.217088
-0.242582
-0.0567405
-0.26577
-0.0934685
-0.0893215
0.02029
0.036295
0.104728
0.191521
0.20613
0.259057
0.288112
0.291424
-0.129685
-0.135282
-0.146993
-0.161491
-0.177902
-0.174411
-0.24588
-0.106483
-0.149382
0.0201948
-0.139765
0.0276808
0.0486416
0.109949
0.21219
0.156257
0.237552
0.273082
0.261525
-0.124317
-0.127142
-0.120052
-0.127853
-0.151806
-0.113173
-0.167586
-0.149856
-0.141311
-0.0141603
0.00170991
0.104462
-0.00419013
0.102058
0.159249
0.208244
0.265165
0.242572
0.261995
-0.108356
-0.104935
-0.112622
-0.0849072
-0.121995
-0.091732
-0.131135
-0.101647
-0.126926
-0.116828
-0.114758
0.0554909
0.110085
0.122383
0.181614
0.142507
0.218656
0.213017
0.234563
-0.0933602
-0.0901287
-0.0932209
-0.0896468
-0.0917151
-0.00649615
-0.142773
-0.0963231
-0.0997702
-0.0633526
-0.0728893
-0.0754653
0.0728896
0.118091
0.146062
0.233196
0.27299
0.286293
0.221733
-0.078761
-0.0747201
-0.0739394
-0.0750919
-0.0333654
-0.0149987
-0.0280091
-0.122286
-0.0815552
-0.0684296
-0.0409101
-0.0158883
-0.00659125
-0.0242654
0.000810081
0.0042663
0.0107602
0.0821947
0.208367
-0.0663819
-0.06557
-0.0629429
-0.0570548
-0.0735937
0.0113335
-0.00266676
0.0122481
-0.0994735
-0.0579957
-0.0483039
-0.0139249
0.012413
0.0287552
0.0559395
0.0595682
0.066601
0.0351988
0.00309391
-0.0555727
-0.0465144
-0.0614573
-0.00940293
-0.0389748
-0.035724
0.0239913
-0.0167259
0.0447578
-0.0731161
-0.0265222
-0.0117098
0.00913919
0.021013
0.0370143
0.0427211
0.0560294
0.0561718
0.0661141
-0.044566
-0.0399984
-0.0434661
-0.0411687
-0.0178693
-0.0159522
-0.0192188
0.0313221
-0.0133671
0.0321038
-0.0572951
-0.00974106
0.00745744
0.0185789
0.0325296
0.0376346
0.0444978
0.0439083
0.0461037
-0.0317242
-0.0368299
-0.0210142
-0.0208515
-0.00262056
-0.0166631
0.0250233
-0.0219405
0.0227864
0.0165756
0.0339436
0.00651761
0.0166185
0.0182554
0.0281512
0.0306041
0.0366451
0.0361146
0.0376976
-0.0247769
-0.0270816
-0.0212235
-0.0261383
0.00319715
-0.00176718
-0.0168721
0.0142456
0.0200603
-0.00240418
-0.0180896
-0.0383854
0.00405082
0.00968804
0.021166
0.0241223
0.0289114
0.0279499
0.0289897
-0.0176498
-0.0190491
-0.00565145
-0.0120345
-0.00794752
-0.000556609
0.0160386
0.0089911
0.00456415
0.0405991
0.0437595
0.0157988
0.016918
0.0108301
0.0141464
0.0138734
0.0169057
0.0159332
0.0160784
-0.0136705
-0.0143801
-0.00774302
-0.00657127
-0.00794217
0.0153976
0.0068839
0.0238051
-0.00406312
0.0020262
0.00691288
0.0114315
0.00770384
0.00929088
0.0110409
0.0110988
0.0118158
0.0119652
0.012895
-0.00816662
-0.0111292
0.00530073
-0.000475757
-0.000709599
-0.0127236
0.00995601
0.00799487
0.0135023
0.0218582
0.0167032
0.0102601
-0.00346521
-0.00357293
-0.00759711
-0.010906
-0.0131171
-0.0136029
-0.0134809
-0.00296837
-0.00811984
-0.0028675
-0.00290572
-0.0107364
0.00162533
-0.00853448
0.0123521
-0.00450054
0.00288794
0.0100249
0.00669438
0.00788401
0.0105572
0.0116726
0.0118873
0.012014
0.0119643
0.0123002
-0.00400204
0.00453067
-0.00999356
0.00488344
0.00962583
0.00516274
-0.000561763
0.0142441
0.0502886
0.0363497
0.0262139
-0.0154651
-0.0289131
-0.0448913
-0.0537106
-0.0611842
-0.0660384
-0.0687161
-0.0694621
)
;

boundaryField
{
    leftWall
    {
        type            zeroGradient;
    }
    rightWall
    {
        type            zeroGradient;
    }
    lowerWall
    {
        type            zeroGradient;
    }
    atmosphere
    {
        type            totalPressure;
        rho             rho;
        psi             none;
        gamma           1;
        p0              uniform 0;
        value           nonuniform List<scalar> 
46
(
-0.0487467
-0.0496379
-0.0498056
-0.0581309
-0.041854
-0.0379599
-0.0339337
-0.0251124
-0.0353387
-0.0185799
-0.0295155
-0.0190178
-0.0224181
-0.0197549
-0.0193599
-0.0137003
-0.0114218
-0.0068516
-0.00434978
-0.003433
-0.00149961
-0.0015473
-7.83484e-05
-0.00014137
0
0
0
0
0
0
0
0
0
0
0
0
0
0
0
0
0
0
0
0
0
0
)
;
    }
    defaultFaces
    {
        type            empty;
    }
}


// ************************************************************************* //
