/*--------------------------------*- C++ -*----------------------------------*\
| =========                 |                                                 |
| \\      /  F ield         | foam-extend: Open Source CFD                    |
|  \\    /   O peration     | Version:     4.1                                |
|   \\  /    A nd           | Web:         http://www.foam-extend.org         |
|    \\/     M anipulation  |                                                 |
\*---------------------------------------------------------------------------*/
FoamFile
{
    version     2.0;
    format      ascii;
    class       surfaceScalarField;
    location    "0.3";
    object      phi;
}
// * * * * * * * * * * * * * * * * * * * * * * * * * * * * * * * * * * * * * //

dimensions      [0 3 -1 0 0 0 0];

internalField   nonuniform List<scalar> 
4432
(
2.04153e-06
-2.04153e-06
5.89514e-06
-3.85362e-06
1.10828e-05
-5.1877e-06
1.78313e-05
-6.74849e-06
2.46274e-05
-6.79609e-06
3.23894e-05
-7.76195e-06
3.61951e-05
-3.80573e-06
4.69071e-05
-1.0712e-05
5.36675e-05
-6.76033e-06
7.98154e-05
-2.6148e-05
8.17594e-05
-1.94395e-06
8.69877e-05
-5.22835e-06
9.21549e-05
-5.16718e-06
9.69064e-05
-4.75151e-06
6.58745e-05
3.1032e-05
6.86385e-05
-2.764e-06
7.04412e-05
-1.80277e-06
7.05868e-05
-1.45592e-07
7.38432e-05
-3.25634e-06
0.000107576
-3.37325e-05
0.00010209
5.48617e-06
-4.02345e-06
0.000106113
-4.02339e-06
2.16921e-06
-4.21074e-06
5.96006e-06
-7.64447e-06
1.10228e-05
-1.02504e-05
1.773e-05
-1.34557e-05
2.48732e-05
-1.39393e-05
3.25345e-05
-1.54233e-05
3.62733e-05
-7.54454e-06
4.7431e-05
-2.18697e-05
5.44621e-05
-1.37915e-05
7.82065e-05
-4.98923e-05
8.0133e-05
-3.87052e-06
8.4379e-05
-9.47426e-06
9.01626e-05
-1.09508e-05
9.71262e-05
-1.17152e-05
0.000102415
2.57431e-05
6.91344e-05
3.05167e-05
7.04407e-05
-3.10907e-06
0.000109846
-3.95513e-05
0.000109473
-2.88253e-06
9.11128e-05
-1.53726e-05
8.52873e-05
1.13117e-05
8.88065e-05
0.000102594
8.47831e-05
2.07074e-06
-6.28148e-06
5.82828e-06
-1.1402e-05
1.07389e-05
-1.51611e-05
1.73781e-05
-2.00949e-05
2.41738e-05
-2.07349e-05
3.21553e-05
-2.34047e-05
3.73322e-05
-1.27215e-05
4.61733e-05
-3.07108e-05
5.06875e-05
-1.83056e-05
4.65585e-05
-4.57634e-05
7.52472e-05
-3.25591e-05
7.60797e-05
-1.03068e-05
7.77103e-05
-1.25814e-05
5.04373e-05
1.55578e-05
5.93763e-05
1.68041e-05
6.665e-05
2.3243e-05
6.07237e-05
2.81727e-06
4.62142e-05
-2.50418e-05
3.80319e-05
5.29973e-06
2.72334e-05
-4.57395e-06
4.89733e-05
-1.04281e-05
4.17117e-05
0.000109856
0.000126495
2.58879e-06
-8.87027e-06
6.13956e-06
-1.49528e-05
1.03979e-05
-1.94194e-05
1.6758e-05
-2.6455e-05
2.5271e-05
-2.92479e-05
3.40728e-05
-3.22065e-05
3.83325e-05
-1.69812e-05
4.52166e-05
-3.75949e-05
4.64073e-05
-1.94962e-05
4.35158e-05
-4.28719e-05
3.89671e-05
-2.80105e-05
7.03702e-05
-4.17099e-05
4.67839e-05
1.10049e-05
8.02662e-05
-1.79245e-05
8.6277e-05
1.07934e-05
9.07559e-05
1.87641e-05
8.23229e-05
1.12502e-05
3.7499e-05
1.97822e-05
3.62487e-05
6.55001e-06
3.66937e-05
-5.01893e-06
2.62018e-05
6.39022e-08
3.42865e-05
0.000101771
0.000160781
2.25042e-06
-1.11207e-05
5.63463e-06
-1.8337e-05
9.75549e-06
-2.35403e-05
1.612e-05
-3.28196e-05
2.56116e-05
-3.87395e-05
3.32739e-05
-3.98688e-05
3.55584e-05
-1.92656e-05
4.30865e-05
-4.5123e-05
4.27477e-05
-1.91574e-05
4.27305e-05
-4.28547e-05
7.11902e-05
-5.64702e-05
4.56587e-05
-1.61784e-05
8.18818e-05
-2.52181e-05
8.84101e-05
-2.44529e-05
9.4207e-05
4.99648e-06
9.68803e-05
1.60908e-05
9.52459e-05
1.28846e-05
9.89976e-05
1.60305e-05
0.000100105
5.44263e-06
8.44958e-05
1.05903e-05
6.36848e-05
2.0875e-05
3.59737e-05
0.000129482
0.000196755
3.17735e-06
-1.4298e-05
5.88233e-06
-2.1042e-05
9.23349e-06
-2.68914e-05
1.53618e-05
-3.89478e-05
2.45322e-05
-4.791e-05
3.17163e-05
-4.7053e-05
6.00053e-05
-4.75546e-05
4.34051e-05
-2.85227e-05
6.93094e-05
-4.50617e-05
7.2541e-05
-4.60864e-05
7.34194e-05
-5.73486e-05
7.42443e-05
-1.70033e-05
7.94173e-05
-3.03911e-05
6.47757e-05
-9.8113e-06
0.000107046
-3.72742e-05
0.000103243
1.98944e-05
0.000106418
9.70969e-06
0.000113099
9.3495e-06
0.000117226
1.31524e-06
0.000100726
2.70901e-05
7.47863e-05
4.68151e-05
3.41921e-05
0.000170076
0.000230947
2.23974e-06
-1.65378e-05
4.83194e-06
-2.36342e-05
8.31806e-06
-3.03775e-05
1.49135e-05
-4.55433e-05
2.31627e-05
-5.61592e-05
2.89174e-05
-5.28077e-05
3.36131e-05
-5.22503e-05
4.72568e-05
-4.21664e-05
6.64684e-05
-6.42734e-05
7.15605e-05
-5.11785e-05
4.67673e-05
-3.25554e-05
7.98424e-05
-5.00784e-05
5.21481e-05
-2.69682e-06
6.43335e-05
-2.19968e-05
7.01641e-05
-4.31048e-05
0.00010011
-1.00512e-05
9.82955e-05
1.15239e-05
0.000106115
1.53023e-06
0.000116697
-9.26728e-06
9.97329e-05
4.40545e-05
7.97756e-05
6.67724e-05
6.24771e-05
0.000187375
0.000293424
3.51896e-06
-2.00567e-05
4.43927e-06
-2.45545e-05
7.8544e-06
-3.37927e-05
1.51225e-05
-5.28114e-05
2.24688e-05
-6.35055e-05
2.92884e-05
-5.96273e-05
5.80522e-05
-8.10141e-05
7.07672e-05
-5.48814e-05
7.14685e-05
-6.49747e-05
7.84696e-05
-5.81796e-05
8.42644e-05
-3.83501e-05
5.39496e-05
-1.97636e-05
8.34976e-05
-3.22448e-05
0.000100635
-3.91344e-05
6.43781e-05
-6.84768e-06
5.06761e-05
3.65087e-06
7.4584e-05
-1.23841e-05
7.71974e-05
-1.0832e-06
5.87724e-05
9.15775e-06
7.66529e-05
2.61741e-05
6.73552e-05
7.60701e-05
5.71191e-05
0.000197611
0.000350543
-2.23266e-05
2.23266e-05
-4.84899e-05
2.6165e-05
-8.64975e-05
3.80075e-05
-0.000156649
7.01512e-05
-0.00023678
8.01315e-05
-0.000304602
6.78221e-05
-0.000278443
-2.61609e-05
-0.000227514
-5.09296e-05
-0.0002886
6.10867e-05
-0.000264975
-2.36247e-05
-0.000118764
-0.000146212
-3.66893e-05
-8.2075e-05
2.44985e-05
-6.11883e-05
7.81659e-05
-5.36688e-05
9.6177e-05
-1.80113e-05
9.10411e-05
5.13638e-06
6.8886e-05
2.21554e-05
3.54501e-05
3.34357e-05
3.54502e-05
-1.8345e-05
4.06714e-05
-4.78058e-05
5.56277e-05
-8.68715e-05
7.70733e-05
-0.000128361
0.000111639
-0.000156736
0.000108505
-0.000155751
6.68359e-05
-8.18759e-05
-0.000100037
-0.000101359
-3.14478e-05
-4.97588e-05
9.48552e-06
1.63282e-05
-8.97114e-05
1.50554e-05
-0.000144939
6.76542e-06
-7.37866e-05
4.56703e-05
-0.000100093
8.28907e-05
-9.08886e-05
0.000100712
-3.58326e-05
9.68908e-05
8.95818e-06
7.32271e-05
4.58193e-05
3.75167e-05
6.91461e-05
7.2967e-05
-2.3145e-05
6.38164e-05
-4.87075e-05
8.11916e-05
-6.69962e-05
9.53619e-05
-6.96914e-05
0.000114335
-5.32566e-05
9.20689e-05
1.78631e-05
-4.28518e-06
5.23676e-05
-0.000134542
5.97547e-05
-3.88364e-05
4.53475e-05
2.38922e-05
5.59144e-05
-0.000100278
5.37816e-05
-0.000142807
7.28807e-05
-9.28858e-05
8.56468e-05
-0.000112859
8.79547e-05
-9.3196e-05
0.000103396
-5.12737e-05
0.000102282
1.0073e-05
7.54551e-05
7.2646e-05
3.81865e-05
0.000106415
0.000111154
-2.07495e-05
8.45659e-05
-4.16829e-05
0.000102127
-4.49537e-05
9.86324e-05
-2.64998e-05
9.58813e-05
1.84818e-05
4.70859e-05
8.80345e-05
-7.38395e-05
6.12804e-05
-0.000107788
6.45782e-05
-4.21357e-05
5.59108e-05
3.25593e-05
7.16927e-05
-0.00011606
0.000120416
-0.00019153
0.000104877
-7.73473e-05
9.79176e-05
-0.000105899
9.93957e-05
-9.4674e-05
0.000108725
-6.06032e-05
0.000108206
1.05922e-05
7.72085e-05
0.000103644
3.84481e-05
0.000145175
0.000149602
-1.48202e-05
9.9386e-05
-2.35883e-05
0.000110896
-2.86407e-05
0.000103684
-2.11928e-05
8.84342e-05
2.71421e-05
-1.25003e-06
4.96711e-05
-9.63706e-05
5.92277e-05
-0.000117345
2.27466e-05
-5.65598e-06
0.000108247
-5.29417e-05
0.000152967
-0.00016078
8.52954e-05
-0.000123858
8.05182e-05
-7.257e-05
8.51493e-05
-0.00011053
9.74812e-05
-0.000107006
0.000110251
-7.3373e-05
0.00011644
4.40327e-06
8.04925e-05
0.000139591
3.88343e-05
0.000186833
0.000188436
-3.99847e-06
0.000103384
-8.5825e-06
0.000115482
-1.0345e-05
0.000105446
2.96751e-06
7.51223e-05
3.46378e-05
-3.29207e-05
3.19958e-05
-9.373e-05
1.54037e-05
-0.000100753
4.48048e-06
5.26672e-06
0.000138694
-0.000187156
9.80714e-05
-0.000120157
9.27828e-05
-0.00011857
8.99701e-05
-6.97572e-05
9.22783e-05
-0.000112838
9.97345e-05
-0.000114462
0.000108515
-8.21531e-05
0.000121917
-8.99948e-06
8.32287e-05
0.000178279
4.04436e-05
0.000229619
0.000228879
6.80782e-06
9.65757e-05
2.17532e-05
0.000100539
2.35897e-05
0.000103609
2.4696e-05
7.40163e-05
2.93634e-05
-3.7588e-05
4.27511e-05
-0.000107118
4.39359e-05
-0.000101937
8.24553e-05
-3.32529e-05
9.09747e-05
-0.000195675
0.000111386
-0.000140568
0.000107326
-0.00011451
0.000107193
-6.96238e-05
0.000107205
-0.00011285
0.000111096
-0.000118353
0.000116492
-8.75493e-05
0.000123583
-1.60907e-05
8.57461e-05
0.000216117
3.95161e-05
0.000275849
0.000268395
1.36606e-05
8.29143e-05
2.55042e-05
8.86975e-05
2.54358e-05
0.000103677
8.03606e-05
1.90916e-05
8.05095e-05
-3.77369e-05
6.59931e-05
-9.26017e-05
4.17217e-05
-7.76662e-05
9.08258e-05
-8.23571e-05
9.99613e-05
-0.000204811
0.00011535
-0.000155956
0.00010866
-0.00010782
0.000108112
-6.90759e-05
0.000105031
-0.000109769
0.000103027
-0.000116349
0.000112967
-9.74898e-05
0.000108532
-1.1655e-05
8.98324e-05
0.000234816
4.32325e-05
0.000322449
0.000311628
8.58454e-06
-2.86413e-05
1.86931e-05
-3.4663e-05
3.29868e-05
-4.80864e-05
6.06572e-05
-8.04818e-05
8.03794e-05
-8.32276e-05
0.000105895
-8.51428e-05
0.000129486
-0.000104605
0.000172525
-9.79206e-05
0.000198747
-9.11959e-05
0.000212649
-7.20818e-05
0.000207064
-3.27649e-05
0.000192951
-5.65102e-06
0.000187293
-2.65863e-05
0.000156833
-8.67525e-06
0.000165322
-1.53361e-05
0.000198254
-2.92814e-05
0.000191708
-5.83852e-06
0.000191418
-7.92403e-07
0.00018361
1.6965e-05
0.000169767
4.00172e-05
0.000168103
7.77342e-05
0.000146619
0.000219095
0.000206748
0.000290414
-1.9372e-06
-2.67041e-05
1.50799e-05
-5.16801e-05
3.28109e-05
-6.58174e-05
5.18579e-05
-9.95287e-05
4.51214e-05
-7.64912e-05
6.12256e-05
-0.000101247
8.03284e-05
-0.000123708
0.000108122
-0.000125714
0.000122065
-0.000105139
0.000131593
-8.16097e-05
0.00013328
-3.4452e-05
0.000188762
-6.11328e-05
0.000196888
-3.47119e-05
0.000225109
-3.68964e-05
0.000224602
-1.48294e-05
0.000211544
-1.6223e-05
0.000215266
-9.56043e-06
0.000215529
-1.05567e-06
0.000206172
2.6322e-05
0.000212547
3.36424e-05
0.000130195
0.000160086
0.000162141
0.000187149
0.000174691
0.000194197
1.5888e-05
-4.25921e-05
6.08183e-06
-4.18738e-05
2.80168e-05
-8.77524e-05
3.35294e-05
-0.000105041
4.11317e-05
-8.40935e-05
5.43039e-05
-0.000114419
7.66611e-05
-0.000146065
9.64506e-05
-0.000145503
0.000108706
-0.000117395
0.000129551
-0.000102455
0.000177096
-8.19969e-05
0.000166835
-5.08717e-05
0.000198959
-6.68359e-05
0.000232441
-7.03787e-05
0.000235506
-1.78939e-05
0.000219238
4.49027e-08
0.000205931
3.74606e-06
0.000196088
8.78761e-06
0.000191232
3.11779e-05
0.000125235
9.96393e-05
0.000161621
0.000123701
0.000237373
0.000111397
0.000181899
0.000230165
1.90172e-05
-6.16093e-05
4.01117e-05
-6.29683e-05
2.20428e-05
-6.96835e-05
4.84585e-05
-0.000131457
3.17807e-05
-6.74157e-05
5.02413e-05
-0.00013288
5.84787e-05
-0.000154303
5.762e-05
-0.000144645
5.9482e-05
-0.000119257
8.37475e-05
-0.000126721
3.42381e-05
-3.24875e-05
9.53876e-05
-0.000112021
7.92871e-05
-5.07355e-05
0.000146627
-0.000137718
0.000178329
-4.95957e-05
0.000223181
-4.48071e-05
0.000178154
4.87724e-05
0.000144679
4.22632e-05
9.79232e-05
7.79336e-05
0.000140973
5.6589e-05
0.00018799
7.66839e-05
0.000229324
7.00632e-05
3.05302e-05
0.000380693
1.57961e-05
-7.74054e-05
3.56086e-05
-8.27809e-05
5.74437e-05
-9.15186e-05
3.16754e-05
-0.000105689
7.39233e-05
-0.000109664
5.10688e-05
-0.000110025
1.20016e-05
-0.000115236
-1.45201e-05
-0.000118123
-1.62383e-05
-0.000117538
-2.84263e-05
-0.000114533
1.84407e-05
-7.93545e-05
4.10087e-05
-0.000134589
0.000115387
-0.000125114
9.55242e-05
-0.000117856
0.000150374
-0.000104446
0.000165401
-5.98335e-05
0.000195929
1.82441e-05
0.000197713
4.04793e-05
0.000194292
8.13546e-05
0.000201153
4.97273e-05
0.000218623
5.92143e-05
0.000243628
4.50584e-05
8.01142e-06
0.000266147
6.57425e-06
-8.39796e-05
1.70209e-05
-9.32275e-05
2.65557e-05
-0.000101053
2.64502e-05
-0.000105583
3.51618e-05
-0.000118375
3.53047e-05
-0.000110168
1.87168e-05
-9.86476e-05
-1.21762e-05
-8.72301e-05
2.66933e-06
-0.000132384
4.42885e-05
-0.000156152
0.000123548
-0.000158614
0.000134189
-0.000145231
0.000150418
-0.000141342
0.000158789
-0.000126227
0.000148127
-9.37841e-05
0.000131751
-4.34578e-05
0.00011871
3.12849e-05
0.000158735
4.55036e-07
0.000213824
2.62651e-05
0.0001882
7.5352e-05
0.000227865
1.9549e-05
0.000298411
-2.54877e-05
-2.94555e-05
0.000335877
-1.71501e-06
-8.22646e-05
1.55186e-05
-0.000110461
1.73916e-05
-0.000102926
2.5247e-05
-0.000113439
3.70445e-05
-0.000130173
4.20233e-05
-0.000115147
3.65488e-05
-9.31731e-05
5.63794e-05
-0.000107061
8.09091e-05
-0.000156914
0.0001149
-0.000190143
0.000141714
-0.000185427
0.000155553
-0.000159071
0.000165087
-0.000150876
0.000174917
-0.000136056
0.000178902
-9.77692e-05
0.000112369
2.30749e-05
0.000110013
3.36414e-05
0.000146231
-3.57638e-05
0.000145972
2.6524e-05
0.000182969
3.83556e-05
0.000217111
-1.45934e-05
0.000215754
-2.41304e-05
-9.79046e-06
0.000196089
-5.42133e-06
-7.68433e-05
1.88425e-05
-0.000134725
2.11921e-05
-0.000105276
3.27332e-05
-0.00012498
4.04632e-05
-0.000137903
0.000103462
-0.000178146
0.000101504
-9.12157e-05
7.215e-05
-7.77065e-05
0.000107299
-0.000192063
0.000120957
-0.0002038
0.000131023
-0.000195494
0.000143467
-0.000171514
0.000162305
-0.000169714
0.000168312
-0.000142064
0.000116368
-4.58253e-05
0.000115212
2.42317e-05
0.000101963
4.68903e-05
5.19805e-05
1.42184e-05
5.49605e-05
2.3544e-05
7.68632e-05
1.6453e-05
5.6636e-05
5.63356e-06
7.13977e-05
-3.88924e-05
-4.69456e-05
0.000108553
1.88995e-05
-9.57429e-05
2.68458e-05
-0.000142671
1.89616e-05
-9.73918e-05
2.31999e-05
-0.000129218
0.000102429
-0.000217131
4.10671e-05
-0.000116784
4.0225e-05
-9.03736e-05
0.000129958
-0.000167439
0.000137242
-0.000199347
0.000138016
-0.000204574
0.000140187
-0.000197665
0.000136094
-0.00016742
0.000146383
-0.000180004
0.000111001
-0.000106682
0.000131783
-6.66075e-05
0.00012918
2.68348e-05
0.000126863
4.92075e-05
6.41731e-05
7.69083e-05
3.62758e-05
5.14414e-05
6.38863e-05
-1.11572e-05
8.6128e-05
-1.66081e-05
7.95163e-05
-3.22812e-05
-3.4541e-05
6.71112e-05
1.31447e-05
-0.000108888
-1.92011e-06
-0.000127606
2.07635e-05
-0.000120075
3.02624e-05
-0.000138717
8.68423e-05
-0.000273711
7.86544e-05
-0.000108596
0.000100514
-0.000112233
0.000126296
-0.000193222
0.000125015
-0.000198066
0.00013004
-0.000209598
9.5045e-05
-0.000162671
4.36311e-05
-0.000116007
2.70461e-05
-0.000163418
3.06119e-05
-0.000110247
3.8863e-05
-7.48587e-05
7.70867e-05
-1.13889e-05
7.56609e-05
5.06332e-05
5.25502e-05
0.000100019
4.19801e-05
6.20116e-05
3.71949e-05
-6.37183e-06
2.00232e-05
5.63762e-07
-3.0491e-05
1.8233e-05
-2.10393e-05
-4.3993e-05
5.24085e-07
-0.000109412
2.90597e-06
-0.000129988
4.91755e-05
-0.000166345
9.36003e-05
-0.000183142
7.41054e-05
-0.000254216
7.25346e-05
-0.000107025
8.81164e-05
-0.000127814
9.31679e-05
-0.000198273
9.35912e-05
-0.00019849
5.92041e-05
-0.000175211
-2.37503e-05
-7.97163e-05
-6.35671e-05
-7.61897e-05
-9.79204e-05
-0.000129065
-0.000115166
-9.30014e-05
-9.28627e-05
-9.71623e-05
-4.06316e-05
-6.36199e-05
7.86234e-06
2.13925e-06
4.19379e-05
6.59434e-05
2.66163e-05
7.73332e-05
3.14633e-05
-1.12186e-05
-1.76387e-05
4.96661e-05
-6.31133e-05
6.37078e-05
-6.32219e-06
-7.78303e-05
2.92125e-06
-0.000112333
1.38256e-05
-0.000140893
4.46315e-05
-0.000197151
5.76829e-05
-0.000196193
3.6795e-05
-0.000233329
4.47509e-05
-0.000114981
3.78407e-05
-0.000120904
1.34077e-05
-0.00017384
-8.9108e-06
-0.000176171
-5.61905e-05
-0.000127932
-3.49099e-05
-0.000100997
-3.00418e-05
-8.10577e-05
-8.81746e-05
-7.09324e-05
-0.000116829
-6.43469e-05
-0.000115933
-9.80581e-05
-6.86147e-05
-0.000110939
-5.12474e-05
-1.5228e-05
-2.23338e-05
3.70298e-05
2.09498e-05
3.40495e-05
-1.42436e-07
9.87372e-06
-4.53011e-05
9.4825e-05
-6.20351e-05
8.0442e-05
-1.11235e-05
-5.72335e-05
-1.21724e-05
-0.000100161
3.98241e-05
-0.000192889
2.07327e-05
-0.000178059
3.85875e-05
-0.000214048
-4.10237e-05
-0.000153717
-3.7601e-06
-0.000152245
4.45846e-06
-0.000129123
1.10292e-06
-0.000170485
-1.16998e-05
-0.000163369
-2.97731e-05
-0.000109858
-3.97973e-05
-9.09727e-05
-9.98994e-05
-2.09556e-05
-9.74391e-05
-7.33928e-05
-0.000116656
-4.51298e-05
-0.000101845
-0.000112869
-8.9181e-05
-0.000123603
-8.5766e-05
-1.86429e-05
-5.0265e-05
1.5287e-06
-2.97958e-05
1.35804e-05
-4.98261e-05
2.99041e-05
-4.98376e-05
9.48366e-05
-1.2652e-05
4.32566e-05
-2.23804e-05
-1.39485e-06
-7.48201e-06
-9.26785e-05
-1.7866e-05
-0.000182505
4.48451e-05
-0.000240771
2.33027e-05
-0.000192506
1.1131e-05
-0.000141545
2.28277e-05
-0.000163942
2.1472e-06
-0.000108442
4.67446e-07
-0.000168805
2.21916e-08
-0.000162923
-2.94745e-05
-8.03617e-05
-7.83943e-05
-4.20528e-05
-9.3064e-05
-6.28595e-06
-5.72841e-05
-0.000109173
-5.58461e-05
-4.65678e-05
-8.79524e-05
-8.07631e-05
-8.97843e-05
-0.000121771
-8.9591e-05
-1.88363e-05
-7.57904e-05
-1.22719e-05
-6.96694e-05
7.45933e-06
-6.78883e-05
2.81231e-05
-3.46091e-05
6.15574e-05
-1.39623e-05
2.26099e-05
-2.51817e-05
-1.11608e-05
-3.11429e-05
-6.15355e-05
6.89197e-06
-0.00022054
2.41649e-05
-0.000258043
2.94783e-05
-0.000197819
-2.13906e-05
-9.06766e-05
-9.63135e-06
-0.000175701
-4.71143e-07
-0.000117603
-6.48761e-06
-0.000162789
-4.47301e-05
-0.000124681
-5.19064e-05
-7.31854e-05
-3.01879e-05
-6.37713e-05
-5.53853e-05
1.89115e-05
-5.53721e-05
-0.000109186
-4.51469e-05
-5.6793e-05
-5.42977e-05
-7.16123e-05
-0.000120142
-5.5926e-05
-0.000114646
-2.43329e-05
-0.000102788
-2.41297e-05
-9.29283e-05
-2.40035e-06
-7.25179e-05
7.71267e-06
-2.9923e-05
1.89625e-05
-7.26656e-06
-4.65354e-08
-1.12391e-05
-2.12091e-05
-5.8258e-05
-3.27748e-06
-7.8446e-06
-0.000270954
1.2866e-05
-0.000278754
-3.80773e-05
-0.000146876
-7.2645e-05
-5.61089e-05
-7.0876e-05
-0.00017747
-2.54128e-05
-0.000163066
1.54197e-05
-0.000203621
7.05967e-06
-0.000116321
2.91193e-05
-9.52451e-05
3.5509e-05
-7.0161e-05
1.71085e-05
3.73119e-05
-1.74747e-05
-7.46027e-05
-4.07731e-05
-3.34946e-05
-8.52968e-05
-2.70886e-05
-9.92023e-05
-4.20205e-05
-0.000103012
-2.05237e-05
-9.92004e-05
-2.79409e-05
-9.12816e-05
-1.03193e-05
-8.3367e-05
-2.01877e-07
-6.27867e-05
-1.61782e-06
-3.08502e-05
-3.1983e-05
-1.74326e-05
-2.46566e-05
-4.83399e-05
4.50624e-05
-2.55362e-06
-0.00031674
-1.70173e-05
-0.00026429
-7.52591e-05
-8.86341e-05
-7.33909e-05
-5.79772e-05
-0.00010084
-0.000150021
-1.44818e-05
-0.000249424
-5.10504e-05
-0.000167053
-1.22314e-05
-0.00015514
-1.53004e-05
-9.2176e-05
-1.85479e-05
-6.69135e-05
1.32648e-05
5.49916e-06
-2.83012e-05
-3.30367e-05
-4.72094e-05
-1.45864e-05
-6.08746e-05
-1.34234e-05
-8.32859e-05
-1.96092e-05
-8.62555e-05
-1.7554e-05
-8.45507e-05
-2.96457e-05
-7.97638e-05
-1.51062e-05
-5.14211e-05
-2.85446e-05
-4.27657e-05
-1.02733e-05
-3.00011e-05
-4.47475e-05
-2.81894e-05
-1.92444e-05
8.63883e-05
-4.13259e-05
8.19326e-07
-0.000231171
-5.50039e-05
-0.000208467
-8.35825e-05
-6.00555e-05
-4.8605e-05
-9.29547e-05
-5.23872e-05
-0.000146239
-7.22707e-05
-0.000229541
-9.00217e-05
-0.000149302
-9.6803e-05
-0.000148358
-7.71187e-05
-0.00011186
-8.31292e-05
-6.0903e-05
-3.42262e-05
-4.34038e-05
-5.74964e-05
-9.76649e-06
-6.36346e-05
-8.44826e-06
-5.68038e-05
-2.02542e-05
-6.73257e-05
-9.08733e-06
-7.20775e-05
-1.28022e-05
-8.36888e-05
-1.80345e-05
-4.80548e-05
-5.07401e-05
-5.2238e-05
-2.43615e-05
-5.06185e-05
-1.18928e-05
-5.1566e-05
-4.38001e-05
-2.91766e-05
-5.05788e-05
8.14748e-05
-0.000122801
7.28646e-06
-0.000156983
-9.97518e-05
-0.000101429
-4.43525e-05
-0.000115455
-3.15258e-05
-0.000105781
-4.07754e-05
-0.000136989
-8.62298e-05
-0.000184086
-5.95931e-05
-0.000175938
-0.000107035
-0.000100916
-0.000123013
-9.58829e-05
-6.91866e-05
-0.000114729
-8.13533e-05
-3.1237e-05
-8.36777e-05
-7.44208e-06
-7.26325e-05
-1.94935e-05
-6.32241e-05
-2.96626e-05
-4.9283e-05
-2.30284e-05
-5.12238e-05
-1.08614e-05
-5.30695e-05
-1.61888e-05
-8.58051e-05
-1.80046e-05
-9.04345e-05
-1.97321e-05
-5.73488e-05
-4.49785e-05
-6.10879e-05
-4.0061e-05
-3.5328e-05
-5.49365e-05
3.54355e-05
-0.000158236
-2.40062e-06
-0.000119146
-1.10612e-05
-9.27683e-05
-3.66515e-05
-8.98644e-05
-2.53261e-05
-0.000117107
-5.05378e-05
-0.000111777
-7.06907e-05
-0.000163933
-0.00010145
-0.000145179
-0.000121215
-8.1151e-05
-0.000140987
-7.61103e-05
-0.000158986
-9.6731e-05
-0.00015377
-3.64525e-05
-9.64506e-05
-6.47617e-05
-7.35594e-05
-4.23847e-05
-8.905e-05
-1.4172e-05
-8.30046e-05
-2.90738e-05
-5.71063e-05
-3.67597e-05
-6.14303e-05
-1.18648e-05
-5.89655e-05
-2.04694e-05
-5.46128e-05
-2.40848e-05
-8.22315e-05
-1.73598e-05
-8.60608e-05
-3.62317e-05
-3.33355e-05
-8.80533e-05
-2.55541e-05
-0.000132682
-1.57337e-05
-0.000128967
-3.2513e-05
-7.5989e-05
-2.70795e-05
-9.52978e-05
-4.6387e-05
-9.77993e-05
-1.22216e-05
-0.000145943
-6.94187e-05
-0.000106736
-6.5912e-05
-0.000148686
-8.58953e-05
-6.11677e-05
-9.43771e-05
-6.76285e-05
-0.000121834
-6.92743e-05
-8.84022e-05
-6.98841e-05
-0.0001166
-3.65634e-05
-0.000104467
-5.45178e-05
-9.62627e-05
-2.23767e-05
-8.99846e-05
-3.53519e-05
-0.000100425
-2.63196e-05
-6.47096e-05
-4.75799e-05
-6.26303e-05
-2.25488e-05
-5.56334e-05
-3.10816e-05
-4.44839e-05
-2.85094e-05
-4.50204e-05
-3.56952e-05
-2.43756e-05
-5.39804e-05
-2.10149e-05
-0.000111667
-4.03186e-05
-0.000109663
-1.62321e-05
-0.000100076
-2.12707e-05
-9.0259e-05
-2.3537e-05
-9.5533e-05
-1.62585e-05
-0.000153221
-2.5634e-05
-9.73607e-05
-7.75109e-05
-9.68089e-05
-6.12203e-05
-7.74584e-05
-5.89181e-05
-6.99306e-05
-5.93096e-05
-6.88828e-05
-6.54488e-05
-6.37448e-05
-5.51093e-05
-4.69029e-05
-7.44067e-05
-3.52205e-05
-4.87122e-05
-4.80712e-05
-4.59143e-05
-3.81498e-05
-4.5934e-05
-2.62999e-05
-6.02016e-05
-3.33123e-05
-5.69351e-05
-2.58154e-05
-5.38051e-05
-3.42116e-05
-5.05605e-05
-3.1754e-05
-5.09672e-05
-3.52885e-05
-2.25454e-05
-5.27974e-05
-1.51843e-05
-9.6483e-05
-3.0018e-05
-9.48293e-05
-3.39346e-05
-9.61589e-05
1.02011e-05
-0.000134395
4.21427e-06
-8.95461e-05
-4.62232e-05
-0.000102783
-5.35578e-05
-9.00261e-05
-5.74843e-05
-9.28824e-05
-4.56151e-05
-8.93276e-05
-4.43786e-05
-7.11671e-05
-4.87786e-05
-6.44828e-05
-5.56883e-05
-5.68351e-05
-6.49974e-05
-3.75938e-05
-6.24772e-05
-3.77407e-05
-4.54749e-05
-6.50735e-05
-5.37228e-05
-2.99019e-05
-5.22675e-05
-2.77553e-05
-5.40283e-05
-3.15515e-05
-4.8135e-05
-3.17086e-05
-4.8775e-05
-3.35716e-05
-4.74097e-05
-3.31193e-05
-4.67371e-05
-3.59611e-05
-2.12779e-05
-4.80045e-05
-2.34395e-05
-7.30434e-05
-5.05819e-06
-0.000113211
2.41435e-06
-0.000103631
-1.92399e-05
-0.00011274
-3.19196e-06
-0.000105594
-1.97242e-05
-8.62512e-05
-3.60161e-05
-7.37342e-05
-4.71964e-05
-8.17021e-05
-6.16479e-05
-7.48761e-05
-6.7217e-05
-6.5598e-05
-6.9849e-05
-6.18508e-05
-7.14683e-05
-5.52158e-05
-6.47264e-05
-4.43357e-05
-5.97416e-05
-4.27255e-05
-8.26002e-05
-4.22149e-05
-4.83232e-05
-6.41788e-05
-4.70608e-05
-2.90177e-05
-4.80531e-05
-3.05592e-05
-4.57066e-05
-3.40552e-05
-5.36804e-05
-2.55978e-05
-5.33607e-05
-3.3439e-05
-5.50442e-05
-3.42776e-05
-2.68968e-05
-4.94254e-05
1.48271e-05
-8.78705e-05
-5.0859e-07
-9.78749e-05
-1.36213e-05
-9.05187e-05
-2.67828e-05
-9.95789e-05
-3.61919e-05
-9.61849e-05
-2.98044e-05
-9.26387e-05
-9.96828e-06
-9.35703e-05
-2.81212e-05
-6.35492e-05
-4.52787e-05
-5.77186e-05
-5.38728e-05
-5.70039e-05
-5.95607e-05
-5.61629e-05
-6.04921e-05
-5.42844e-05
-5.22011e-05
-5.26266e-05
-4.29243e-05
-5.20023e-05
-3.56434e-05
-4.94957e-05
-5.32725e-05
-4.65498e-05
-5.09601e-05
-3.13301e-05
-4.01152e-05
-4.14041e-05
-4.67352e-05
-2.74351e-05
-4.81781e-05
-2.41549e-05
-4.78174e-05
-3.37997e-05
-4.97292e-05
-3.23658e-05
-2.48128e-05
-5.18133e-05
-3.2019e-06
-8.46686e-05
-8.5004e-06
-9.25763e-05
-6.52578e-06
-9.24933e-05
-1.66307e-05
-8.9474e-05
-2.41405e-05
-8.86752e-05
-3.47353e-05
-8.20439e-05
-4.53018e-05
-8.30037e-05
-3.62289e-05
-7.26222e-05
-5.02248e-05
-4.37227e-05
-6.52191e-05
-4.20096e-05
-5.54853e-05
-6.58966e-05
-4.57342e-05
-6.40355e-05
-3.70191e-05
-6.13417e-05
-4.51456e-05
-4.38759e-05
-5.40737e-05
-4.05676e-05
-5.75741e-05
-4.30494e-05
-3.32925e-05
-5.56117e-05
-4.47492e-05
-2.99473e-05
-4.50164e-05
-2.7168e-05
-4.48069e-05
-2.43644e-05
-4.68636e-05
-3.1743e-05
-4.70046e-05
-3.22248e-05
-2.67164e-05
-4.51009e-05
-3.49565e-07
-8.4319e-05
-5.73784e-06
-8.7188e-05
-1.09825e-05
-8.72486e-05
-1.63549e-05
-8.41015e-05
-2.17465e-05
-8.32836e-05
-2.51044e-05
-7.86859e-05
-3.09689e-05
-7.71392e-05
-3.2833e-05
-7.07581e-05
-3.80518e-05
-3.85038e-05
-4.36345e-05
-3.64269e-05
-4.91043e-05
-6.04268e-05
-5.43226e-05
-5.88171e-05
-5.72109e-05
-5.84535e-05
-4.36417e-05
-5.74451e-05
-4.93065e-05
-3.49028e-05
-3.88681e-05
-5.34878e-05
-5.94891e-05
-3.49908e-05
-3.63975e-05
-5.30389e-05
-3.92994e-05
-2.42661e-05
-3.95222e-05
-2.41416e-05
-4.14008e-05
-2.98644e-05
-4.36266e-05
-2.9999e-05
-2.42722e-05
-4.60708e-05
-3.7958e-06
-8.05232e-05
-7.76441e-06
-8.32194e-05
-1.1393e-05
-8.362e-05
-1.49445e-05
-8.05501e-05
-1.93753e-05
-7.88528e-05
-2.45969e-05
-7.34643e-05
-3.08154e-05
-7.09207e-05
-3.25472e-05
-6.90263e-05
-3.5564e-05
-3.5487e-05
-3.82204e-05
-3.37705e-05
-4.2281e-05
-5.63663e-05
-4.76297e-05
-5.34684e-05
-4.80767e-05
-5.80064e-05
-4.70939e-05
-5.84279e-05
-4.86904e-05
-3.33064e-05
-4.58155e-05
-5.63626e-05
-4.83738e-05
-3.24325e-05
-5.65211e-05
-4.48915e-05
-3.6492e-05
-4.42952e-05
-3.23922e-05
-2.82414e-05
-4.13423e-05
-2.09143e-05
-4.61626e-05
-2.51787e-05
-2.42112e-05
-4.62237e-05
-1.51446e-06
-7.90088e-05
-3.41793e-06
-8.13159e-05
-8.16427e-06
-7.88736e-05
-1.11815e-05
-7.75328e-05
-1.50961e-05
-7.49382e-05
-1.87578e-05
-6.98026e-05
-2.36708e-05
-6.60078e-05
-2.48209e-05
-6.78761e-05
-2.34031e-05
-3.69048e-05
-2.12671e-05
-3.59065e-05
-4.18155e-05
-3.58178e-05
-3.30785e-05
-6.22055e-05
-3.21645e-05
-5.89204e-05
-4.17884e-05
-4.88039e-05
-2.07141e-05
-5.43806e-05
-4.31141e-05
-3.39626e-05
-2.68588e-05
-4.86878e-05
-4.28028e-05
-2.89475e-05
-3.58626e-05
-5.12354e-05
-3.65512e-05
-2.75527e-05
-3.75406e-05
-1.99249e-05
-4.05065e-05
-2.22128e-05
-2.12313e-05
-4.34864e-05
-1.91524e-06
-7.70935e-05
-3.70863e-06
-7.95225e-05
-8.25239e-06
-7.43299e-05
-1.13187e-05
-7.44665e-05
-1.53393e-05
-7.09175e-05
-1.84846e-05
-6.66573e-05
-2.30508e-05
-6.14415e-05
-2.53678e-05
-6.55592e-05
-2.69788e-05
-3.52938e-05
-2.62042e-05
-3.6681e-05
-2.90571e-05
-3.29649e-05
-2.44054e-05
-6.68572e-05
-2.66278e-05
-5.6698e-05
-2.59539e-05
-4.94779e-05
-2.63135e-05
-5.4021e-05
-3.49567e-05
-2.53195e-05
-3.51901e-05
-4.84544e-05
-3.62257e-05
-2.79118e-05
-4.42063e-05
-4.32549e-05
-3.27703e-05
-3.89887e-05
-3.20165e-05
-2.06787e-05
-3.84496e-05
-1.57797e-05
-1.72363e-05
-4.24447e-05
-1.94922e-06
-7.51443e-05
-4.05511e-06
-7.74166e-05
-4.60626e-06
-7.37787e-05
-3.49409e-06
-7.55787e-05
-4.74105e-07
-7.39375e-05
-1.85756e-05
-4.85558e-05
-3.49577e-05
-4.50594e-05
-2.95888e-05
-7.0928e-05
-2.5268e-05
-3.96146e-05
-2.29876e-05
-3.89615e-05
-1.77864e-05
-3.81661e-05
-2.30749e-05
-6.15687e-05
-2.69319e-05
-5.2841e-05
-2.56828e-05
-5.0727e-05
-3.86652e-05
-4.10385e-05
-1.94382e-05
-4.45465e-05
-2.72132e-05
-4.06793e-05
-2.95358e-05
-2.55892e-05
-3.52623e-05
-3.75284e-05
-2.8739e-05
-4.5512e-05
-3.57211e-05
-1.36967e-05
-3.65409e-05
-1.49598e-05
-1.70747e-05
-3.67025e-05
-2.35107e-06
-7.27932e-05
-4.83057e-06
-7.49371e-05
-6.32728e-06
-7.2282e-05
-9.50075e-06
-7.24052e-05
-1.27923e-05
-7.0646e-05
-1.50157e-05
-4.63324e-05
-1.71525e-05
-4.29227e-05
-1.6858e-05
-7.12225e-05
-1.39685e-05
-4.2504e-05
-1.3812e-05
-3.9118e-05
-1.22376e-05
-3.97405e-05
-1.63227e-05
-5.74836e-05
-2.12687e-05
-4.7895e-05
-2.24806e-05
-4.95151e-05
-2.09028e-05
-4.26163e-05
-1.97483e-05
-4.5701e-05
-3.56593e-05
-2.47683e-05
-2.20458e-05
-3.92027e-05
-3.48102e-05
-2.4764e-05
-4.41452e-05
-3.6177e-05
-2.70135e-05
-3.08284e-05
-2.8516e-05
-1.34573e-05
-9.21796e-06
-3.63727e-05
-1.30958e-06
-7.14836e-05
-2.90441e-06
-7.33423e-05
-4.22257e-06
-7.09638e-05
-6.38362e-06
-7.02442e-05
-6.67979e-06
-7.03498e-05
-1.19119e-05
-4.11003e-05
-1.59942e-05
-3.88403e-05
-2.78673e-05
-5.93493e-05
-1.74111e-05
-5.29603e-05
-5.74006e-06
-5.0789e-05
-1.52481e-05
-3.02325e-05
-2.35576e-05
-4.91741e-05
-2.14083e-05
-5.00444e-05
-2.39605e-05
-4.69629e-05
-2.32213e-05
-4.33555e-05
-3.38176e-05
-3.51048e-05
-2.22158e-05
-3.637e-05
-2.36718e-05
-3.77468e-05
-2.50054e-05
-2.34303e-05
-3.0286e-05
-3.08964e-05
-2.51893e-05
-3.59251e-05
-3.1374e-05
-7.27267e-06
-7.08832e-06
-3.35036e-05
-6.2179e-07
-7.08618e-05
-1.80735e-06
-7.21567e-05
-3.39242e-06
-6.93788e-05
-7.57157e-06
-6.6065e-05
-1.70833e-05
-6.08381e-05
-1.50973e-06
-5.66738e-05
-7.03351e-06
-3.33165e-05
-1.17404e-05
-5.46425e-05
-1.31483e-05
-5.15523e-05
-8.92032e-06
-5.5017e-05
-8.3033e-06
-3.08495e-05
-2.64646e-05
-3.10128e-05
-1.99888e-05
-5.65202e-05
-1.96774e-05
-4.72743e-05
-1.93733e-05
-4.36596e-05
-1.88643e-05
-3.56137e-05
-1.87293e-05
-3.65051e-05
-2.54633e-05
-3.10127e-05
-1.71408e-05
-3.17528e-05
-3.05544e-05
-1.74828e-05
-4.83482e-05
-1.81312e-05
-3.0901e-05
-2.47199e-05
-4.14173e-06
-3.38476e-05
-3.79676e-07
-7.04822e-05
-1.58359e-06
-7.09528e-05
-1.10634e-06
-6.9856e-05
-5.25432e-06
-6.1917e-05
-5.06167e-06
-6.10307e-05
-3.76913e-06
-5.79664e-05
-3.20135e-06
-3.38843e-05
-2.12745e-05
-3.65693e-05
-1.25156e-05
-6.03112e-05
-1.10956e-05
-5.6437e-05
-8.80364e-06
-3.31415e-05
-9.91483e-06
-2.99016e-05
-1.51109e-05
-5.13241e-05
-1.71917e-05
-4.51934e-05
-1.88385e-05
-4.20128e-05
-1.76982e-05
-3.6754e-05
-2.37809e-05
-3.04223e-05
-2.44891e-05
-3.03045e-05
-2.8174e-05
-2.80679e-05
-2.91006e-05
-1.65563e-05
-2.64997e-05
-2.07321e-05
-3.73286e-05
-1.38909e-05
-1.39396e-05
-2.75308e-05
-9.46606e-08
-7.03875e-05
-3.96443e-07
-7.0651e-05
1.27842e-06
-7.15309e-05
1.15112e-06
-6.17897e-05
-1.69127e-05
-4.29669e-05
-9.004e-06
-6.5875e-05
-6.88373e-06
-3.60046e-05
-9.87303e-06
-3.358e-05
-7.42772e-06
-6.27565e-05
-9.30295e-06
-5.45618e-05
-8.9213e-06
-3.35231e-05
-1.03154e-05
-2.85075e-05
-1.37357e-05
-4.79039e-05
-1.46654e-05
-4.42637e-05
-1.48638e-05
-4.18145e-05
-1.49293e-05
-3.66885e-05
-1.47739e-05
-3.05777e-05
-1.27265e-05
-3.23519e-05
-1.77358e-05
-2.30586e-05
-2.07741e-05
-1.3518e-05
-2.27948e-05
-1.87114e-05
-2.74482e-05
-9.23745e-06
-1.38594e-05
-2.75284e-05
-9.46575e-07
-6.94409e-05
-9.43129e-07
-7.06545e-05
-2.23887e-06
-7.02351e-05
-2.9835e-06