/*--------------------------------*- C++ -*----------------------------------*\
| =========                 |                                                 |
| \\      /  F ield         | foam-extend: Open Source CFD                    |
|  \\    /   O peration     | Version:     4.1                                |
|   \\  /    A nd           | Web:         http://www.foam-extend.org         |
|    \\/     M anipulation  |                                                 |
\*---------------------------------------------------------------------------*/
FoamFile
{
    version     2.0;
    format      ascii;
    class       surfaceScalarField;
    location    "0.3";
    object      phi_0;
}
// * * * * * * * * * * * * * * * * * * * * * * * * * * * * * * * * * * * * * //

dimensions      [0 3 -1 0 0 0 0];

internalField   nonuniform List<scalar> 
4432
(
2.04704e-06
-2.04704e-06
5.90872e-06
-3.86168e-06
1.10907e-05
-5.182e-06
1.78166e-05
-6.72587e-06
2.45573e-05
-6.74073e-06
3.22759e-05
-7.71854e-06
3.60672e-05
-3.79132e-06
4.67225e-05
-1.06553e-05
5.34809e-05
-6.75841e-06
7.96178e-05
-2.61369e-05
8.15973e-05
-1.97949e-06
8.69593e-05
-5.36205e-06
9.23224e-05
-5.36306e-06
9.72551e-05
-4.93273e-06
6.60476e-05
3.12075e-05
6.87945e-05
-2.74681e-06
7.0893e-05
-2.09852e-06
7.12439e-05
-3.50883e-07
7.45803e-05
-3.3364e-06
0.00010855
-3.39698e-05
0.000103884
4.66605e-06
-3.04176e-06
0.000106926
-3.0417e-06
2.17503e-06
-4.22207e-06
5.97397e-06
-7.66062e-06
1.10322e-05
-1.02402e-05
1.77192e-05
-1.34129e-05
2.4804e-05
-1.38255e-05
3.24181e-05
-1.53326e-05
3.61446e-05
-7.51784e-06
4.72481e-05
-2.17588e-05
5.42843e-05
-1.37945e-05
7.80185e-05
-4.98711e-05
7.98736e-05
-3.8346e-06
8.42378e-05
-9.72622e-06
9.0249e-05
-1.13743e-05
9.7551e-05
-1.22347e-05
0.000102722
2.60368e-05
6.93409e-05
3.0634e-05
7.09667e-05
-3.72425e-06
0.000111254
-4.06378e-05
0.000110481
-2.56373e-06
9.12872e-05
-1.4776e-05
8.59692e-05
9.9841e-06
8.91536e-05
0.000103742
8.61119e-05
2.07595e-06
-6.29802e-06
5.8412e-06
-1.14259e-05
1.07514e-05
-1.51504e-05
1.73712e-05
-2.00328e-05
2.41093e-05
-2.05636e-05
3.20425e-05
-2.32658e-05
3.71948e-05
-1.26701e-05
4.59818e-05
-3.05458e-05
5.05037e-05
-1.83165e-05
4.64025e-05
-4.57698e-05
7.50986e-05
-3.25307e-05
7.5956e-05
-1.05837e-05
7.76722e-05
-1.30905e-05
5.04793e-05
1.49582e-05
5.93956e-05
1.71204e-05
6.65236e-05
2.3506e-05
6.05878e-05
2.21154e-06
4.56928e-05
-2.57428e-05
3.78719e-05
5.25715e-06
2.94834e-05
-6.38741e-06
5.09368e-05
-1.14692e-05
4.20174e-05
0.000112661
0.000128129
2.59485e-06
-8.89288e-06
6.15376e-06
-1.49848e-05
1.0413e-05
-1.94096e-05
1.67639e-05
-2.63836e-05
2.52139e-05
-2.90137e-05
3.39521e-05
-3.20039e-05
3.81756e-05
-1.68936e-05
4.50137e-05
-3.73839e-05
4.62144e-05
-1.95172e-05
4.33463e-05
-4.29017e-05
3.8907e-05
-2.80915e-05
7.01154e-05
-4.1792e-05
4.63951e-05
1.06298e-05
7.9842e-05
-1.84886e-05
8.62016e-05
1.07608e-05
9.05656e-05
1.91421e-05
8.20138e-05
1.07633e-05
3.66462e-05
1.96248e-05
3.71367e-05
4.76676e-06
3.88315e-05
-8.08224e-06
2.72156e-05
1.46765e-07
3.4234e-05
0.000105643
0.000162363
2.25763e-06
-1.11505e-05
5.6503e-06
-1.83774e-05
9.7777e-06
-2.3537e-05
1.61309e-05
-3.27368e-05
2.55505e-05
-3.84333e-05
3.31436e-05
-3.95971e-05
3.54126e-05
-1.91626e-05
4.28759e-05
-4.48472e-05
4.26127e-05
-1.9254e-05
4.25887e-05
-4.28777e-05
7.09913e-05
-5.6494e-05
4.5532e-05
-1.63327e-05
8.18965e-05
-2.57347e-05
8.83337e-05
-2.49259e-05
9.48787e-05
4.21585e-06
9.85991e-05
1.54216e-05
9.68145e-05
1.2548e-05
0.000100498
1.59418e-05
0.000101024
4.24036e-06
8.46983e-05
8.24344e-06
6.4716e-05
2.01292e-05
3.59861e-05
0.000134373
0.000198349
3.18596e-06
-1.43365e-05
5.89929e-06
-2.10908e-05
9.25858e-06
-2.68963e-05
1.53742e-05
-3.88524e-05
2.45479e-05
-4.76069e-05
3.16941e-05
-4.67433e-05
5.96799e-05
-4.71484e-05
4.31752e-05
-2.83425e-05
6.89947e-05
-4.50735e-05
7.2235e-05
-4.6118e-05
7.31754e-05
-5.74345e-05
7.40598e-05
-1.7217e-05
7.9448e-05
-3.11229e-05
6.48991e-05
-1.0377e-05
0.000107238
-3.81231e-05
0.000103844
1.88156e-05
0.000107177
9.21553e-06
0.000113927
9.19108e-06
0.000117584
5.83251e-07
9.99558e-05
2.58721e-05
7.32731e-05
4.68119e-05
3.39251e-05
0.000173721
0.000232275
2.24664e-06
-1.65831e-05
4.8479e-06
-2.3692e-05
8.33668e-06
-3.03851e-05
1.4897e-05
-4.54127e-05
2.31024e-05
-5.58123e-05
2.88403e-05
-5.24813e-05
3.34896e-05
-5.17977e-05
4.70049e-05
-4.18577e-05
6.61175e-05
-6.41861e-05
7.11857e-05
-5.11862e-05
4.65754e-05
-3.28241e-05
7.96466e-05
-5.02882e-05
5.20519e-05
-3.52829e-06
6.43654e-05
-2.26905e-05
6.97974e-05
-4.35551e-05
0.000100106
-1.1493e-05
9.9273e-05
1.00485e-05
0.000107363
1.10089e-06
0.000117312
-9.36508e-06
9.85528e-05
4.46309e-05
7.74315e-05
6.79332e-05
6.11892e-05
0.000189963
0.000293464
3.52855e-06
-2.01117e-05
4.45409e-06
-2.46176e-05
7.8596e-06
-3.37906e-05
1.50892e-05
-5.26423e-05
2.24269e-05
-6.315e-05
2.92067e-05
-5.92611e-05
5.78234e-05
-8.04145e-05
7.03391e-05
-5.43734e-05
7.1068e-05
-6.4915e-05
7.80205e-05
-5.81386e-05
8.38891e-05
-3.86928e-05
5.36876e-05
-2.00867e-05
8.33981e-05
-3.32388e-05
0.000100595
-3.9887e-05
6.44171e-05
-7.37766e-06
5.05223e-05
2.40181e-06
7.464e-05
-1.40692e-05
7.75424e-05
-1.80154e-06
5.83037e-05
9.87368e-06
7.49598e-05
2.79748e-05
6.4968e-05
7.7925e-05
5.61548e-05
0.000198776
0.000349619
-2.40068e-05
2.40068e-05
-5.07711e-05
2.67652e-05
-8.70094e-05
3.62382e-05
-0.000150832
6.3823e-05
-0.000225802
7.49707e-05
-0.00030057
7.47673e-05
-0.000285841
-1.47307e-05
-0.000246552
-3.92897e-05
-0.000315626
6.90752e-05
-0.000289571
-2.60551e-05
-0.000136906
-0.000152666
-4.80344e-05
-8.8872e-05
1.44249e-05
-6.24602e-05
6.69844e-05
-5.25612e-05
8.74241e-05
-2.04397e-05
8.34679e-05
3.95667e-06
6.31764e-05
2.02914e-05
3.25524e-05
3.06238e-05
3.25524e-05
-2.03813e-05
4.43879e-05
-5.0546e-05
5.69311e-05
-8.81455e-05
7.38378e-05
-0.000128279
0.000103956
-0.00015921
0.0001059
-0.000162652
7.82077e-05
-9.5644e-05
-8.17391e-05
-0.000112508
-2.24279e-05
-5.69217e-05
1.34889e-05
1.2654e-05
-9.56307e-05
9.02409e-06
-0.000149037
-2.523e-06
-7.73266e-05
3.49435e-05
-9.99263e-05
7.29238e-05
-9.05415e-05
9.21534e-05
-3.96695e-05
8.90795e-05
7.03068e-06
6.72384e-05
4.21325e-05
3.44379e-05
6.34241e-05
6.69903e-05
-2.59359e-05
7.03236e-05
-5.27413e-05
8.37375e-05
-7.15154e-05
9.26118e-05
-7.52504e-05
0.000107692
-5.68984e-05
8.75466e-05
9.26568e-06
1.20424e-05
4.42215e-05
-0.000116695
5.67737e-05
-3.49816e-05
4.45427e-05
2.57196e-05
5.53855e-05
-0.000106474
5.27423e-05
-0.000146394
6.74019e-05
-9.19864e-05
7.7412e-05
-0.000109936
7.98389e-05
-9.2968e-05
9.55528e-05
-5.53832e-05
9.43924e-05
8.19111e-06
6.93489e-05
6.71759e-05
3.50161e-05
9.77567e-05
0.000102006
-2.40533e-05
9.43768e-05
-4.73435e-05
0.000107029
-5.28295e-05
9.80974e-05
-3.52358e-05
9.00984e-05
1.32423e-05
3.90672e-05
8.73844e-05
-6.21009e-05
6.02231e-05
-8.95339e-05
6.34034e-05
-3.81636e-05
5.84966e-05
3.06263e-05
7.15713e-05
-0.000119548
0.00011726
-0.000192083
0.00010241
-7.71364e-05
9.62912e-05
-0.000103817
9.56738e-05
-9.23505e-05
0.000101985
-6.16948e-05
0.000100227
9.94889e-06
7.09297e-05
9.64736e-05
3.53368e-05
0.000133349
0.000137343
-1.93835e-05
0.00011376
-3.10954e-05
0.000118742
-3.71794e-05
0.000104181
-2.91855e-05
8.21053e-05
2.41024e-05
-1.42216e-05
5.35213e-05
-9.15214e-05
6.05544e-05
-9.65669e-05
2.17624e-05
6.27109e-07
0.000110342
-5.79536e-05
0.000151763
-0.000160969
8.56599e-05
-0.000125979
8.01715e-05
-7.1648e-05
8.57705e-05
-0.000109416
9.74128e-05
-0.000103993
0.000106959
-7.12413e-05
0.000108743
8.16486e-06
7.36631e-05
0.000131553
3.57856e-05
0.000171227
0.000173129
-1.01662e-05
0.000123926
-1.46313e-05
0.000123208
-1.48195e-05
0.000104369
2.33001e-06
6.49562e-05
3.25763e-05
-4.44683e-05
3.40014e-05
-9.29477e-05
2.64932e-05
-8.90586e-05
1.04065e-05
1.67133e-05
0.000140562
-0.000188109
9.80802e-05
-0.000118487
9.15877e-05
-0.000119487
8.88364e-05
-6.88966e-05
9.14597e-05
-0.000112039
0.000100074
-0.000112608
0.00010864
-7.98067e-05
0.000117039
-2.35031e-07
7.68448e-05
0.000171748
3.70535e-05
0.000211018
0.000210182
4.22168e-07
0.000123503
1.67288e-05
0.000106903
2.27519e-05
9.83451e-05
2.58492e-05
6.18591e-05
2.81453e-05
-4.67645e-05
4.23727e-05
-0.000107176
4.57724e-05
-9.24582e-05
8.60929e-05
-2.36074e-05
9.18684e-05
-0.000193885
0.000110775
-0.000137394
0.000105867
-0.000114579
0.000106086
-6.91153e-05
0.000106307
-0.00011226
0.000110449
-0.000116749
0.000116326
-8.56839e-05
0.000120669
-4.57855e-06
7.86665e-05
0.000213751
3.61176e-05
0.000253567
0.0002463
1.11401e-05
0.000112362
1.94108e-05
9.86335e-05
2.51826e-05
9.25736e-05
7.6703e-05
1.03388e-05
7.82134e-05
-4.82749e-05
6.38693e-05
-9.28315e-05
3.95366e-05
-6.81256e-05
8.87437e-05
-7.28146e-05
0.000101945
-0.000207087
0.000115074
-0.000150523
0.000108311
-0.000107816
0.000109794
-7.05979e-05
0.000107611
-0.000110077
0.000105206
-0.000114344
0.000114284
-9.47622e-05
0.000106734
2.9713e-06
8.40159e-05
0.000236469
3.96182e-05
0.000297965
0.000285918
8.59034e-06
-2.8702e-05
1.86763e-05
-3.47035e-05
3.29316e-05
-4.80459e-05
6.0549e-05
-8.02597e-05
8.03192e-05
-8.29202e-05
0.000105745
-8.46869e-05
0.000128898
-0.000103568
0.000171367
-9.68423e-05
0.000197484
-9.10315e-05
0.000210989
-7.16445e-05
0.000205838
-3.35417e-05
0.000192086
-6.33389e-06
0.000186677
-2.78306e-05
0.000156069
-9.27871e-06
0.000164814
-1.61231e-05
0.000197937
-3.07206e-05
0.000190483
-6.61564e-06
0.000190121
-1.43874e-06
0.000181826
1.81685e-05
0.0001667
4.31003e-05
0.000164782
7.98436e-05
0.000145355
0.000218203
0.000205961
0.000289013
-1.94012e-06
-2.67619e-05
1.50828e-05
-5.17265e-05
3.28116e-05
-6.57747e-05
5.18487e-05
-9.92968e-05
4.5092e-05
-7.61635e-05
6.12222e-05
-0.000100817
7.98532e-05
-0.000122199
0.000107638
-0.000124627
0.000122026
-0.00010542
0.000130708
-8.03261e-05
0.00013211
-3.49435e-05
0.000188154
-6.23783e-05
0.000196545
-3.62215e-05
0.000225329
-3.80628e-05
0.00022422
-1.50137e-05
0.000210822
-1.73223e-05
0.000215089
-1.08828e-05
0.000214921
-1.27057e-06
0.000205281
2.78087e-05
0.000212699
3.56821e-05
0.000130216
0.000162326
0.000161248
0.000187171
0.000174544
0.000192665
1.58736e-05
-4.26355e-05
6.07355e-06
-4.19264e-05
2.79922e-05
-8.76934e-05
3.35086e-05
-0.000104813
4.11118e-05
-8.37667e-05
5.4395e-05
-0.0001141
7.67198e-05
-0.000144524
9.71455e-05
-0.000145053
0.000109515
-0.000117789
0.000129636
-0.000100447
0.00017701
-8.23181e-05
0.000165941
-5.13088e-05
0.000198055
-6.83356e-05
0.000233311
-7.33186e-05
0.000235501
-1.72043e-05
0.000217801
3.78183e-07
0.000204257
2.66097e-06
0.000195317
7.66979e-06
0.000191442
3.16831e-05
0.000125198
0.000101927
0.000162993
0.000124531
0.000238916
0.000111248
0.00018162
0.00023184
1.90118e-05
-6.16473e-05
4.00631e-05
-6.29777e-05
2.19958e-05
-6.96261e-05
4.83202e-05
-0.000131137
3.17727e-05
-6.72192e-05
5.0565e-05
-0.000132893
6.00588e-05
-0.000154017
6.08491e-05
-0.000145843
6.29055e-05
-0.000119846
8.78861e-05
-0.000125427
3.60238e-05
-3.04558e-05
9.76368e-05
-0.000112922
8.12223e-05
-5.19212e-05
0.000147047
-0.000139143
0.000176629
-4.67864e-05
0.000220225
-4.32182e-05
0.000176282
4.66042e-05
0.000146194
3.77579e-05
9.83744e-05
7.95027e-05
0.000142212
5.80888e-05
0.000189788
7.69553e-05
0.000231955
6.90804e-05
2.94671e-05
0.000384108
1.59128e-05
-7.75601e-05
3.56501e-05
-8.2715e-05
5.74618e-05
-9.14378e-05
3.16461e-05
-0.000105322
7.36459e-05
-0.000109219
5.07999e-05
-0.000110047
1.28912e-05
-0.000116109
-1.30458e-05
-0.000119906
-1.56526e-05
-0.000117239
-2.99384e-05
-0.000111142
1.53102e-05
-7.57044e-05
3.94354e-05
-0.000137047
0.000113864
-0.000126349
9.37574e-05
-0.000119037
0.000151145
-0.000104174
0.000167201
-5.9274e-05
0.000197366
1.64394e-05
0.000197658
3.74653e-05
0.000193893
8.32676e-05
0.00020215
4.98323e-05
0.000220224
5.88813e-05
0.000245407
4.38973e-05
7.81737e-06
0.000267057
6.81025e-06
-8.43704e-05
1.69512e-05
-9.2856e-05
2.64501e-05
-0.000100937
2.6384e-05
-0.000105256
3.49157e-05
-0.000117751
3.52798e-05
-0.000110411
1.83046e-05
-9.91334e-05
-1.2122e-05
-8.94798e-05
1.65405e-06
-0.000131015
4.14798e-05
-0.000150967
0.000119705
-0.00015393
0.000129088
-0.00014643
0.000146082
-0.000143343
0.000154543
-0.000127498
0.000144127
-9.3758e-05
0.000128001
-4.31477e-05
0.000116947
2.74931e-05
0.000157095
-2.68211e-06
0.000208076
3.22859e-05
0.000188836
6.90724e-05
0.000236562
1.11557e-05
0.000306878
-2.64189e-05
-2.68042e-05
0.000341499
-9.28471e-07
-8.34419e-05
1.52447e-05
-0.000109029
1.72254e-05
-0.000102917
2.49767e-05
-0.000113007
3.6279e-05
-0.000129053
4.08476e-05
-0.000114979
3.42047e-05
-9.24905e-05
5.04295e-05
-0.000105705
7.73805e-05
-0.000157966
0.000115224
-0.000188811
0.000143868
-0.000182573
0.000155639
-0.000158202
0.000161909
-0.000149612
0.000169884
-0.000135474
0.000173684
-9.7558e-05
0.000109282
2.12547e-05
0.000107924
2.88511e-05
0.000140842
-3.56005e-05
0.000144674
2.84536e-05
0.000183256
3.04903e-05
0.00021517
-2.07583e-05
0.000211819
-2.30677e-05
-5.18293e-06
0.000190198
-6.21149e-06
-7.72304e-05
1.82128e-05
-0.000133454
2.06603e-05
-0.000105365
3.24092e-05
-0.000124756
3.96532e-05
-0.000136297
0.000102034
-0.00017736
9.937e-05
-8.98263e-05
7.00499e-05
-7.63846e-05
0.000104766
-0.000192682
0.000119599
-0.000203645
0.000131064
-0.000194038
0.000144213
-0.000171351
0.000161679
-0.000167078
0.000165358
-0.000139153
0.000112203
-4.4403e-05
0.000109119
2.43384e-05
9.48574e-05
4.31129e-05
4.95093e-05
9.74772e-06
5.5698e-05
2.22649e-05
7.80277e-05
8.16037e-06
5.55386e-05
1.73051e-06
7.0321e-05
-3.785e-05
-3.99072e-05
0.000105046
1.89645e-05
-9.61949e-05
2.86425e-05
-0.000143132
1.95111e-05
-9.62333e-05
2.31455e-05
-0.00012839
0.000102247
-0.000215399
4.05085e-05
-0.000115622
3.923e-05
-8.85478e-05
0.000130009
-0.000167164
0.000138259
-0.000200932
0.000138091
-0.000203476
0.000140634
-0.000196582
0.000138297
-0.000169014
0.000148272
-0.000177053
0.000113178
-0.000104059
0.000133698
-6.49233e-05
0.000127792
3.0245e-05
0.000122835
4.80698e-05
5.98653e-05
7.27173e-05
3.73187e-05
4.48117e-05
6.41615e-05
-1.86823e-05
8.57309e-05
-1.98392e-05
8.10268e-05
-3.31464e-05
-2.8969e-05
7.00883e-05
1.54012e-05
-0.000111596
3.34997e-07
-0.000128065
2.20619e-05
-0.00011796
3.01938e-05
-0.000136522
8.5922e-05
-0.000271127
7.78222e-05
-0.000107522
9.89786e-05
-0.000109704
0.000126246
-0.000194431
0.000123533
-0.000198219
0.000130367
-0.00021031
9.73027e-05
-0.000163517
4.70329e-05
-0.000118744
3.2789e-05
-0.000162809
3.6434e-05
-0.000107704
4.55548e-05
-7.4044e-05
8.1961e-05
-6.16119e-06
7.93667e-05
5.06641e-05
5.60988e-05
9.59853e-05
4.42743e-05
5.66365e-05
3.57383e-05
-1.0146e-05
1.72774e-05
-1.37837e-06
-3.4721e-05
1.88517e-05
-1.80746e-05
-4.56158e-05
8.19402e-07
-0.000112416
4.00636e-06
-0.000131252
4.81937e-05
-0.000162148
9.22638e-05
-0.000180592
7.02879e-05
-0.000249151
7.07973e-05
-0.000108031
9.21486e-05
-0.000131056
0.000102104
-0.000204386
0.000103945
-0.00020006
6.67932e-05
-0.000173158
-1.58276e-05
-8.08964e-05
-6.03874e-05
-7.41845e-05
-9.34444e-05
-0.000129752
-0.000109246
-9.19018e-05
-8.87704e-05
-9.452e-05
-3.52031e-05
-5.97284e-05
1.40283e-05
1.43275e-06
4.56447e-05
6.43688e-05
2.82229e-05
7.40585e-05
3.11708e-05
-1.30937e-05
-1.86547e-05
4.84472e-05
-6.50596e-05
6.52566e-05
-5.16115e-06
-7.79732e-05
8.76243e-07
-0.000113292
1.16376e-05
-0.000142014
4.42936e-05
-0.000194804
5.94063e-05
-0.000195705
4.52405e-05
-0.000234985
5.10347e-05
-0.000113826
4.18017e-05
-0.000121823
1.55041e-05
-0.000178089
-6.62284e-06
-0.000177933
-5.87871e-05
-0.000120994
-3.67265e-05
-0.000102957
-2.9333e-05
-8.15781e-05
-8.71309e-05
-7.19542e-05
-0.000115306
-6.37267e-05
-0.000115386
-9.44398e-05
-6.63011e-05
-0.000108814
-4.86837e-05
-1.61847e-05
-2.08026e-05
3.64878e-05
2.14674e-05
3.17885e-05
-3.74925e-07
8.74884e-06
-4.64043e-05
9.44768e-05
-6.28563e-05
8.17087e-05
-9.84821e-06
-5.81691e-05
-1.24764e-05
-0.000100815
3.89848e-05
-0.000193475
2.1094e-05
-0.000176913
3.91561e-05
-0.000213767
-3.96413e-05
-0.000156188
-2.73389e-06
-0.000150733
5.21521e-06
-0.000129772
4.61484e-07
-0.000173335
-1.31312e-05
-0.000164341
-2.75367e-05
-0.000106588
-3.93553e-05
-9.11384e-05
-0.00010064
-2.02932e-05
-0.000100923
-7.16711e-05
-0.00011855
-4.61e-05
-0.000101933
-0.000111057
-8.80228e-05
-0.000122724
-8.50348e-05
-1.91727e-05
-4.96693e-05
1.12226e-06
-2.99302e-05
1.20495e-05
-5.02775e-05
2.90963e-05
-5.02422e-05
9.44416e-05
-1.22024e-05
4.36691e-05
-2.12958e-05
-7.54508e-07
-6.69175e-06
-9.41237e-05
-1.61963e-05
-0.00018397
4.48737e-05
-0.000237983
2.07062e-05
-0.0001896
7.44298e-06
-0.000142924
2.18142e-05
-0.000165104
1.91971e-06
-0.000109877
-5.74832e-07
-0.00017084
-1.32213e-06
-0.000163593
-2.71692e-05
-8.07411e-05
-7.85362e-05
-3.97714e-05
-9.42139e-05
-4.61542e-06
-5.9249e-05
-0.000106636
-5.62769e-05
-4.90721e-05
-8.75557e-05
-7.97781e-05
-8.8684e-05
-0.000121596
-8.89375e-05
-1.89192e-05
-7.54896e-05
-1.23256e-05
-7.02085e-05
6.76832e-06
-6.82355e-05
2.71233e-05
-3.45502e-05
6.07565e-05
-1.35568e-05
2.26759e-05
-2.46474e-05
-1.0205e-05
-2.64744e-05
-6.76493e-05
9.39905e-06
-0.000219844
2.3905e-05
-0.000252489
2.90885e-05
-0.000194783
-1.80716e-05
-9.57644e-05
-6.96385e-06
-0.000176212
-7.07998e-07
-0.000116133
-8.07737e-06
-0.000163471
-4.77713e-05
-0.000123899
-5.28989e-05
-7.56135e-05
-3.18031e-05
-6.08671e-05
-5.67321e-05
2.03136e-05
-5.43897e-05
-0.000108978
-4.42855e-05
-5.91763e-05
-5.34834e-05
-7.05803e-05
-0.000119455
-5.56244e-05
-0.000113942
-2.44321e-05
-0.000102266
-2.40019e-05
-9.27057e-05
-2.79153e-06
-7.27482e-05
7.16588e-06
-3.02781e-05
1.82864e-05
-7.48071e-06
-1.21471e-07
-1.12288e-05
-2.08992e-05
-5.83056e-05
-9.34367e-06
-5.77257e-06
-0.000272377
1.3192e-05
-0.000271453
-3.36083e-05
-0.000147983
-7.26078e-05
-5.67649e-05
-7.13458e-05
-0.000177474
-2.55174e-05
-0.000161962
1.27023e-05
-0.000201691
5.93062e-06
-0.000117128
2.78265e-05
-9.75094e-05
3.51464e-05
-6.8187e-05
1.85396e-05
3.69204e-05
-1.58983e-05
-7.45405e-05
-4.061e-05
-3.44646e-05
-8.48043e-05
-2.63861e-05
-9.87315e-05
-4.16972e-05
-0.000102726
-2.04376e-05
-9.88967e-05
-2.78313e-05
-9.11391e-05
-1.05491e-05
-8.36542e-05
-3.19009e-07
-6.33094e-05
-2.05838e-06
-3.10961e-05
-3.23347e-05
-1.76695e-05
-2.46553e-05
-4.89059e-05
3.95623e-05
-3.45608e-06
-0.000317827
-1.3097e-05
-0.000261812
-7.30224e-05
-8.80576e-05
-7.41818e-05
-5.56055e-05
-0.000102475
-0.000149181
-1.4199e-05
-0.000250238
-4.99721e-05
-0.000165918
-1.17749e-05
-0.000155325
-1.6492e-05
-9.27923e-05
-1.88162e-05
-6.58629e-05
1.29911e-05
5.11312e-06
-2.88262e-05
-3.27233e-05
-4.78936e-05
-1.53971e-05
-6.11854e-05
-1.30944e-05
-8.33704e-05
-1.95122e-05
-8.63573e-05
-1.74507e-05
-8.4607e-05
-2.95816e-05
-7.98882e-05
-1.52678e-05
-5.13538e-05
-2.88534e-05
-4.27867e-05
-1.06255e-05
-3.02208e-05
-4.49005e-05
-2.84517e-05
-1.94386e-05
8.52727e-05
-4.57104e-05
-4.03468e-06
-0.000228519
-5.39068e-05
-0.00021194
-8.36824e-05
-5.8282e-05
-5.0458e-05
-8.88299e-05
-5.34371e-05
-0.000146202
-7.34582e-05
-0.000230216
-8.99618e-05
-0.000149414
-9.61562e-05
-0.000149131
-7.71354e-05
-0.000111813
-8.24966e-05
-6.05017e-05
-3.45822e-05
-4.28013e-05
-5.76734e-05
-9.63208e-06
-6.4024e-05
-9.04663e-06
-5.70887e-05
-2.00297e-05
-6.7545e-05
-9.05587e-06
-7.22099e-05
-1.27859e-05
-8.36849e-05
-1.81066e-05
-4.78945e-05
-5.10582e-05
-5.21562e-05
-2.45918e-05
-5.07172e-05
-1.20644e-05
-5.17316e-05
-4.3886e-05
-2.93724e-05
-5.08109e-05
7.99104e-05
-0.000125621
5.97724e-06
-0.000154586
-0.000104674
-0.000101289
-4.66972e-05
-0.000116259
-3.18051e-05
-0.000103722
-4.0662e-05
-0.000137345
-8.62361e-05
-0.000184642
-5.9957e-05
-0.000175693
-0.000108533
-0.000100555
-0.000124909
-9.54364e-05
-7.04061e-05
-0.000115005
-8.18402e-05
-3.13671e-05
-8.37437e-05
-7.72869e-06
-7.30176e-05
-1.97728e-05
-6.34547e-05
-2.95926e-05
-4.93854e-05
-2.31252e-05
-5.12042e-05
-1.09671e-05
-5.30353e-05
-1.62755e-05
-8.59348e-05
-1.81588e-05
-9.05982e-05
-1.99283e-05
-5.75214e-05
-4.51412e-05
-6.13429e-05
-4.00645e-05
-3.53811e-05
-5.53342e-05
3.49755e-05
-0.000160597
-2.64936e-06
-0.000116961
-9.96101e-06
-9.39776e-05
-3.71757e-05
-8.90439e-05
-2.44197e-05
-0.000116478
-4.96291e-05
-0.000112135
-7.01448e-05
-0.000164127
-0.000100868
-0.00014497
-0.000120472
-8.09502e-05
-0.000140243
-7.56659e-05
-0.000158606
-9.6642e-05
-0.000153494
-3.64791e-05
-9.62255e-05
-6.49973e-05
-7.36032e-05
-4.23951e-05
-8.90674e-05
-1.41284e-05
-8.30396e-05
-2.91531e-05
-5.70678e-05
-3.69389e-05
-6.14455e-05
-1.18978e-05
-5.90828e-05
-2.05215e-05
-5.48758e-05
-2.41353e-05
-8.27077e-05
-1.73093e-05
-8.66381e-05
-3.61341e-05
-3.3333e-05
-8.86862e-05
-2.67412e-05
-0.000133855
-1.47991e-05
-0.000128903
-3.30007e-05
-7.57759e-05
-2.70674e-05
-9.49772e-05
-4.60171e-05
-9.75281e-05
-1.21785e-05
-0.000145974
-6.92916e-05
-0.000107014
-6.601e-05
-0.000148252
-8.5958e-05
-6.10022e-05
-9.41756e-05
-6.74484e-05
-0.000121683
-6.91349e-05
-8.83349e-05
-6.98269e-05
-0.000116739
-3.65928e-05
-0.000104543
-5.45913e-05
-9.62809e-05
-2.23908e-05
-9.00558e-05
-3.53782e-05
-0.000100637
-2.63578e-05
-6.48505e-05
-4.76841e-05
-6.27991e-05
-2.25729e-05
-5.58449e-05
-3.10895e-05
-4.46754e-05
-2.84788e-05
-4.51978e-05
-3.56116e-05
-2.43627e-05
-5.41681e-05
-2.16133e-05
-0.000112242
-4.08218e-05
-0.000109695
-1.65994e-05
-9.99983e-05
-2.1573e-05
-9.00035e-05
-2.36074e-05
-9.54938e-05
-1.64076e-05
-0.000153174
-2.63324e-05
-9.70887e-05
-7.77017e-05
-9.68826e-05
-6.12936e-05
-7.74103e-05
-5.88946e-05
-6.98474e-05
-5.92355e-05
-6.8794e-05
-6.53737e-05
-6.36887e-05
-5.50439e-05
-4.69227e-05
-7.43986e-05
-3.52366e-05
-4.87201e-05
-4.80693e-05
-4.59089e-05
-3.81895e-05
-4.59632e-05
-2.63036e-05
-6.03045e-05
-3.33428e-05
-5.7029e-05
-2.58484e-05
-5.39274e-05
-3.4191e-05
-5.07298e-05
-3.16765e-05
-5.1128e-05
-3.52134e-05
-2.25206e-05
-5.297e-05
-1.56049e-05
-9.66371e-05
-3.04014e-05
-9.48982e-05
-3.42209e-05
-9.61789e-05
1.00761e-05
-0.000134301
4.14296e-06
-8.95606e-05
-4.63103e-05
-0.000102721
-5.34858e-05
-8.99132e-05
-5.74967e-05
-9.28717e-05
-4.5629e-05
-8.9278e-05
-4.43833e-05
-7.10932e-05
-4.87637e-05
-6.44137e-05
-5.56574e-05
-5.6795e-05
-6.49816e-05
-3.75986e-05
-6.24526e-05
-3.77657e-05
-4.54395e-05
-6.50823e-05
-5.37345e-05
-2.98946e-05
-5.22863e-05
-2.77518e-05
-5.40821e-05
-3.1547e-05
-4.82678e-05
-3.16627e-05
-4.89186e-05
-3.35401e-05
-4.75525e-05
-3.30426e-05
-4.68891e-05
-3.58767e-05
-2.12046e-05
-4.82051e-05
-2.35475e-05
-7.30896e-05
-5.15888e-06
-0.000113287
2.30411e-06
-0.000103642
-1.9283e-05
-0.000112713
-3.22003e-06
-0.000105624
-1.9779e-05
-8.61616e-05
-3.59882e-05
-7.3704e-05
-4.71636e-05
-8.16964e-05
-6.16256e-05
-7.4816e-05
-6.71884e-05
-6.55304e-05
-6.98306e-05
-6.17715e-05
-7.14301e-05
-5.51956e-05
-6.46817e-05
-4.43469e-05
-5.97194e-05
-4.2728e-05
-8.25772e-05
-4.22245e-05
-4.83207e-05
-6.41511e-05
-4.70871e-05
-2.89854e-05
-4.81318e-05
-3.05022e-05
-4.58154e-05
-3.39792e-05
-5.37938e-05
-2.55616e-05
-5.34729e-05
-3.33635e-05
-5.51651e-05
-3.41845e-05
-2.67039e-05
-4.96657e-05
1.48453e-05
-8.79348e-05
-5.28107e-07
-9.79134e-05
-1.36667e-05
-9.05032e-05
-2.68515e-05
-9.95286e-05
-3.62546e-05
-9.62206e-05
-2.98325e-05
-9.25836e-05
-1.00102e-05
-9.35263e-05
-2.81679e-05
-6.35387e-05
-4.5284e-05
-5.76999e-05
-5.38671e-05
-5.69473e-05
-5.95238e-05
-5.61147e-05
-6.04725e-05
-5.42469e-05
-5.2194e-05
-5.26254e-05
-4.2899e-05
-5.20231e-05
-3.56436e-05
-4.94799e-05
-5.3295e-05
-4.64998e-05
-5.10077e-05
-3.12726e-05
-4.02178e-05
-4.12922e-05
-4.68143e-05
-2.73826e-05
-4.82601e-05
-2.41159e-05
-4.79269e-05
-3.36966e-05
-4.98852e-05
-3.22261e-05
-2.4591e-05
-5.19981e-05
-3.23885e-06
-8.4696e-05
-8.57094e-06
-9.25813e-05
-6.58785e-06
-9.24863e-05
-1.66989e-05
-8.94175e-05
-2.42327e-05
-8.86867e-05
-3.47856e-05
-8.20307e-05
-4.53308e-05
-8.29812e-05
-3.62802e-05
-7.25893e-05
-5.02706e-05
-4.37095e-05
-6.52571e-05
-4.19609e-05
-5.55361e-05
-6.58357e-05
-4.5795e-05
-6.39881e-05
-3.71002e-05
-6.13203e-05
-4.52252e-05
-4.3898e-05
-5.41747e-05
-4.05305e-05
-5.76627e-05
-4.30117e-05
-3.33918e-05
-5.55436e-05
-4.48261e-05
-2.98578e-05
-4.50996e-05
-2.7109e-05
-4.49164e-05
-2.42991e-05
-4.70109e-05
-3.16021e-05
-4.7181e-05
-3.2056e-05
-2.65159e-05
-4.52561e-05
-3.60802e-07
-8.43351e-05
-5.75324e-06
-8.71889e-05
-1.09954e-05
-8.72441e-05
-1.63698e-05
-8.40431e-05
-2.17968e-05
-8.32597e-05
-2.51633e-05
-7.86642e-05
-3.10294e-05
-7.71151e-05
-3.28921e-05
-7.07266e-05
-3.81341e-05
-3.84676e-05
-4.37082e-05
-3.63868e-05
-4.91693e-05
-6.03746e-05
-5.43742e-05
-5.87832e-05
-5.7274e-05
-5.84205e-05
-4.37349e-05
-5.74371e-05
-4.94399e-05
-3.48255e-05
-3.90127e-05
-5.34389e-05
-5.96059e-05
-3.49503e-05
-3.64806e-05
-5.29832e-05
-3.93844e-05
-2.42052e-05
-3.96073e-05
-2.40762e-05
-4.14825e-05
-2.97268e-05
-4.36992e-05
-2.98393e-05
-2.41152e-05
-4.60998e-05
-3.80871e-06
-8.05264e-05
-7.78928e-06
-8.32083e-05
-1.14291e-05
-8.36042e-05
-1.49603e-05
-8.05118e-05
-1.94004e-05
-7.88197e-05
-2.46346e-05
-7.343e-05
-3.08636e-05
-7.0886e-05
-3.26035e-05
-6.89867e-05
-3.56196e-05
-3.54515e-05
-3.82652e-05
-3.37412e-05
-4.23287e-05
-5.63111e-05
-4.7691e-05
-5.34209e-05
-4.81613e-05
-5.79502e-05
-4.72076e-05
-5.83908e-05
-4.87983e-05
-3.32348e-05
-4.58906e-05
-5.63466e-05
-4.84501e-05
-3.23908e-05
-5.66004e-05
-4.48329e-05
-3.65711e-05
-4.42345e-05
-3.25013e-05
-2.81459e-05
-4.14186e-05
-2.08095e-05
-4.62353e-05
-2.50225e-05
-2.4051e-05
-4.62995e-05
-1.52233e-06
-7.90041e-05
-3.43502e-06
-8.12956e-05
-8.19527e-06
-7.8844e-05
-1.12021e-05
-7.7505e-05
-1.51255e-05
-7.48962e-05
-1.87958e-05
-6.97598e-05
-2.37109e-05
-6.59709e-05
-2.4868e-05
-6.78296e-05
-2.34444e-05
-3.68751e-05
-2.13128e-05
-3.58728e-05
-4.18393e-05
-3.57846e-05
-3.30959e-05
-6.21643e-05
-3.21883e-05
-5.88579e-05
-4.18397e-05
-4.87394e-05
-2.07438e-05
-5.43308e-05
-4.31643e-05
-3.39262e-05
-2.69379e-05
-4.86172e-05
-4.28767e-05
-2.88941e-05
-3.59377e-05
-5.11735e-05
-3.66434e-05
-2.74402e-05
-3.7617e-05
-1.98359e-05
-4.05644e-05
-2.20751e-05
-2.10777e-05
-4.35376e-05
-1.92376e-06
-7.70803e-05
-3.72349e-06
-7.94959e-05
-8.27703e-06
-7.42904e-05
-1.13376e-05
-7.44444e-05
-1.53551e-05
-7.08788e-05
-1.85189e-05
-6.6596e-05
-2.3088e-05
-6.14018e-05
-2.54014e-05
-6.55163e-05
-2.70077e-05
-3.52688e-05
-2.62316e-05
-3.66489e-05
-2.90835e-05
-3.29328e-05
-2.44337e-05
-6.68141e-05
-2.66611e-05
-5.66305e-05
-2.59884e-05
-4.94121e-05
-2.63568e-05
-5.39624e-05
-3.50205e-05
-2.52625e-05
-3.52431e-05
-4.83946e-05
-3.62796e-05
-2.78576e-05
-4.42728e-05
-4.31803e-05
-3.28306e-05
-3.88823e-05
-3.20924e-05
-2.05741e-05
-3.84884e-05
-1.56791e-05
-1.70769e-05
-4.24892e-05
-1.96038e-06
-7.51199e-05
-4.07599e-06
-7.73802e-05
-4.63403e-06
-7.37324e-05
-3.52646e-06
-7.5552e-05
-5.00745e-07
-7.39045e-05
-1.85971e-05
-4.84997e-05
-3.49621e-05
-4.50367e-05
-2.96069e-05
-7.08715e-05
-2.52929e-05
-3.95827e-05
-2.30168e-05
-3.8925e-05
-1.78082e-05
-3.81414e-05
-2.31062e-05
-6.15162e-05
-2.69631e-05
-5.27735e-05
-2.57087e-05
-5.06665e-05
-3.87025e-05
-4.09686e-05
-1.94761e-05
-4.44888e-05
-2.72601e-05
-4.06105e-05
-2.95754e-05
-2.55423e-05
-3.53248e-05
-3.74309e-05
-2.88055e-05
-4.54016e-05
-3.57679e-05
-1.36117e-05
-3.65762e-05
-1.48708e-05
-1.69221e-05
-3.67309e-05
-2.36381e-06
-7.27561e-05
-4.85481e-06
-7.48892e-05
-6.35396e-06
-7.22332e-05
-9.52307e-06
-7.23829e-05
-1.28271e-05
-7.06005e-05
-1.50333e-05
-4.62935e-05
-1.71695e-05
-4.29005e-05
-1.68773e-05
-7.11638e-05
-1.39819e-05
-4.24781e-05
-1.3826e-05
-3.90809e-05
-1.22553e-05
-3.97121e-05
-1.63437e-05
-5.74278e-05
-2.12897e-05
-4.78275e-05
-2.25055e-05
-4.94507e-05
-2.09317e-05
-4.25425e-05
-1.97847e-05
-4.56358e-05
-3.56976e-05
-2.46976e-05
-2.21327e-05
-3.91072e-05
-3.48745e-05
-2.4689e-05
-4.4214e-05
-3.60622e-05
-2.70672e-05
-3.07584e-05
-2.85573e-05
-1.33807e-05
-9.15563e-06
-3.63238e-05
-1.32053e-06
-7.14356e-05
-2.9248e-06
-7.32849e-05
-4.24411e-06
-7.09139e-05
-6.39659e-06
-7.02304e-05
-6.69457e-06
-7.03025e-05
-1.1915e-05
-4.10731e-05
-1.60048e-05
-3.88106e-05
-2.78745e-05
-5.92942e-05
-1.74387e-05
-5.29139e-05
-5.76978e-06
-5.07499e-05
-1.52902e-05
-3.01917e-05
-2.35946e-05
-4.91233e-05
-2.14322e-05
-4.99899e-05
-2.39831e-05
-4.68998e-05
-2.32388e-05
-4.32868e-05
-3.38441e-05
-3.50305e-05
-2.22542e-05
-3.62875e-05
-2.36935e-05
-3.76678e-05
-2.50128e-05
-2.33697e-05
-3.02682e-05
-3.08067e-05
-2.51786e-05
-3.5848e-05
-3.13532e-05
-7.20606e-06
-7.0129e-06
-3.34959e-05
-6.28755e-07
-7.08068e-05
-1.81729e-06
-7.20964e-05
-3.4033e-06
-6.93279e-05
-7.57749e-06
-6.60562e-05
-1.71015e-05
-6.07785e-05
-1.53237e-06
-5.66422e-05
-7.06075e-06
-3.32823e-05
-1.17567e-05
-5.45983e-05
-1.3166e-05
-5.15045e-05
-8.94109e-06
-5.49748e-05
-8.32496e-06
-3.08079e-05
-2.64756e-05
-3.09727e-05
-1.99975e-05
-5.64681e-05
-1.96932e-05
-4.72041e-05
-1.93934e-05
-4.35867e-05
-1.88857e-05
-3.55382e-05
-1.87425e-05
-3.64307e-05
-2.54708e-05
-3.09395e-05
-1.71564e-05
-3.16842e-05
-3.05321e-05
-1.7431e-05
-4.83148e-05
-1.80652e-05
-3.09089e-05
-2.46119e-05
-4.05315e-06
-3.38686e-05
-3.85186e-07
-7.04216e-05
-1.58771e-06
-7.08939e-05
-1.12118e-06
-6.97944e-05
-5.26085e-06
-6.19165e-05
-5.06062e-06
-6.09787e-05
-3.79427e-06
-5.79086e-05
-3.22499e-06
-3.38516e-05
-2.12809e-05
-3.65423e-05
-1.25245e-05
-6.0261e-05
-1.11094e-05
-5.63899e-05
-8.81764e-06
-3.30996e-05
-9.92773e-06
-2.98626e-05
-1.51262e-05
-5.12696e-05
-1.72124e-05
-4.51179e-05
-1.88586e-05
-4.19404e-05
-1.77179e-05
-3.66789e-05
-2.38032e-05
-3.03454e-05
-2.4507e-05
-3.02357e-05
-2.81885e-05
-2.80027e-05
-2.91132e-05
-1.65064e-05
-2.65342e-05
-2.06442e-05
-3.73273e-05
-1.38188e-05
-1.38047e-05
-2.75757e-05
-9.13686e-08
-7.03303e-05
-3.96406e-07
-7.05888e-05
1.26477e-06
-7.14556e-05
1.12053e-06
-6.17723e-05
-1.69149e-05
-4.29433e-05
-9.00917e-06
-6.58142e-05
-6.88839e-06
-3.59723e-05
-9.8755e-06
-3.35552e-05
-7.44212e-06
-6.26944e-05
-9.3218e-06
-5.45102e-05
-8.94225e-06
-3.34792e-05
-1.03351e-05
-2.84698e-05
-1.37527e-05
-4.7852e-05
-1.46882e-05
-4.41824e-05
-1.48879e-05
-4.17407e-05
-1.49537e-05
-3.66131e-05
-1.47952e-05
-3.05038e-05
-1.27432e-05
-3.22877e-05
-1.77583e-05
-2.29875e-05
-2.07934e-05
-1.34713e-05
-2.28215e-05
-1.86161e-05
-2.7479e-05
-9.16124e-06
-1.3781e-05
-2.75027e-05
-9.34428e-07
-6.93958e-05
-9.34488e-07
-7.05888e-05