/*--------------------------------*- C++ -*----------------------------------*\
| =========                 |                                                 |
| \\      /  F ield         | foam-extend: Open Source CFD                    |
|  \\    /   O peration     | Version:     4.1                                |
|   \\  /    A nd           | Web:         http://www.foam-extend.org         |
|    \\/     M anipulation  |                                                 |
\*---------------------------------------------------------------------------*/
FoamFile
{
    version     2.0;
    format      ascii;
    class       volScalarField;
    location    "0.3";
    object      psi;
}
// * * * * * * * * * * * * * * * * * * * * * * * * * * * * * * * * * * * * * //

dimensions      [1 -1 -2 0 0 0 0];

internalField   nonuniform List<scalar> 
2268
(
-2.90129e-10
5.63888e-11
-1.86447e-10
-1.99178e-10
-2.35557e-10
-3.72884e-10
-2.41917e-10
-1.57436e-08
-6.02258e-08
-5.63011e-05
-2.77133e-05
-0.00503525
-0.329584
-6.69049
-8.5476
-12.9756
-27.3292
-55.9782
-149.557
-1172.17
-1963.57
-2001.1
2294.45
-8.73111e-11
7.27617e-11
-1.62794e-10
-1.25597e-09
-1.6534e-09
-7.14116e-09
-3.08925e-09
-5.18481e-07
-2.60937e-06
-0.000539475
-0.000460369
-0.0427338
-10.3352
-164.389
-108.166
-101.619
-185.075
-1322.76
-1432.82
-2285.29
-2855.41
-2400.18
-2493.69
-1.88256e-10
-1.37965e-09
-3.94799e-09
-3.08366e-08
-4.27288e-08
-1.57322e-07
-1.0885e-07
-8.66824e-06
-5.99032e-05
-0.00272924
-0.0109442
-0.207985
-170.864
-707.563
-524.528
-406.193
-990.253
-2841.75
-2572.82
-2332.13
-2336.41
-2847.28
-2569.21
-6.59083e-09
-4.13228e-08
-9.02853e-08
-5.63391e-07
-8.08352e-07
-2.37795e-06
-2.65627e-06
-0.000104963
-0.00102209
-0.017007
-0.103817
-0.563809
-858.621
-1503.48
-1799.57
-2002.29
-2631.57
-2050.06
-2314.45
-2809.13
-2816.24
-2838.42
-2630.23
-2.02469e-07
-8.21955e-07
-1.53202e-06
-7.60242e-06
-1.05287e-05
-2.66593e-05
-5.15647e-05
-0.00105473
-0.015994
-0.109605
-0.861738
-0.465778
-202.467
-127.689
-293.379
-531.814
-1039.2
-2639.05
-2567.55
-2505.58
-2714.4
-2855.09
-2715.05
-4.82821e-06
-1.26847e-05
-2.04471e-05
-7.98768e-05
-9.91472e-05
-0.000246518
-0.000958483
-0.00868766
-0.24974
-0.683643
-2.58155
-2.74842
-2.96576
-3.23962
-11.0162
-39.6728
-132.205
-468.71
-614.248
-968.906
-2351.77
-2851.06
-2682.21
-8.60064e-05
-0.000163573
-0.000227195
-0.000680996
-0.000711149
-0.00189284
-0.00883488
-0.115112
-2.02549
-4.28128
-8.65002
-16.55
-11.7211
-15.8959
-26.3843
-99.9979
-305.593
-641.512
-1106.8
-1414.23
-2553.03
-2845.3
-2707.26
-0.00125826
-0.0017801
-0.00212033
-0.00477072
-0.00404594
-0.0123606
-0.062692
-0.990803
-11.1542
-21.3334
-39.2564
-42.4253
-53.7731
-75.5662
-60.1628
-175.591
-699.498
-1476.41
-2612.41
-2670.04
-2857.58
-2854.31
-2705.14
0.000323815
0.00594832
0.0786746
0.675373
3.46378
11.2117
24.4106
44.1817
70.0013
120.881
183.113
17.5595
3.0004
0.307669
0.0273019
0.00175862
9.80147e-05
3.81989e-06
7.19874e-08
0.000967102
0.0136016
0.138691
0.940106
4.27957
13.8631
36.2234
97.0048
207.227
648.071
818.876
177.464
36.6674
5.70775
0.603429
0.0442997
0.00263637
0.000105483
2.02019e-06
0.00507128
0.0367514
0.206685
0.974487
3.58082
9.61885
19.6593
42.209
254.147
1596.57
1842.7
963.276
246.157
46.0978
5.87796
0.498751
0.0326045
0.00135937
2.65635e-05
0.0192449
0.105261
0.362635
1.05733
2.43045
5.71343
10.0088
38.8964
716.908
2640.71
2739.71
2084.91
775.127
191.034
32.5716
3.39094
0.246501
0.0107493
0.000215413
0.0658837
0.362597
1.47899
5.88773
16.5348
21.583
26.8549
89.7746
2345.11
2827.99
2838.04
2480.24
1215.14
431.732
104.793
14.4137
1.23941
0.0590463
0.00124487
0.249893
1.91989
14.8027
75.295
123.805
103.689
129.491
345.152
2855.26
2611.15
2656.92
2833.24
2033.24
913.94
272.883
46.774
4.70554
0.24963
0.00571431
0.668608
5.13037
28.2138
490.875
627.074
480.024
542.346
1173.95
2823.26
2309.91
2366.05
2776.05
2549.47
1305.61
438.518
96.5387
11.5639
0.688617
0.0165904
2.14921
12.0927
125.672
1908.62
1991.9
1587.21
1478
2563.29
2384.68
2032.5
2165.34
2663.15
2657.37
1401.43
473.725
119.782
18.9053
1.59967
0.0511662
-0.0219456
-0.0265973
-0.0251314
-0.0405061
-0.0276406
-0.101091
-0.469811
-11.6992
-91.6436
-134.478
-189.091
-184.307
-273.892
-267.793
-269.065
-307.312
-331.302
-576.897
-1709.94
-2766.37
-2481.6
-2704.98
-2779.28
-0.349279
-0.3724
-0.274322
-0.303724
-0.184059
-0.894195
-3.779
-109.866
-662.853
-832.392
-949.678
-1515.65
-1614.14
-1757.53
-1601.53
-1471.79
-1296.62
-1040.24
-1209.41
-2148.53
-2822.04
-2684.52
-2829.04
-5.49044
-3.37769
-2.08597
-1.79599
-1.15942
-5.47157
-20.5209
-563.633
-2268.89
-2641.72
-2783.67
-2851.12
-2801.38
-2152.42
-2629.74
-2857.63
-2788.44
-2513.91
-2104.09
-2169.4
-2690.94
-2829.31
-2856.59
-51.7836
-31.4626
-11.4256
-9.28059
-6.94895
-26.4915
-83.3507
-1855.76
-1772.92
15.4247
-654.775
1159.3
972.857
2318.43
1028.89
576.385
-461.98
-1458.34
-2803.91
-2596.22
-2690.53
-2803.73
-2833.48
-303.374
-178.574
-58.0822
-37.9906
-47.4449
-97.0849
-255.489
-2751.15
1640.59
2664.69
2787.4
2854
2849.31
2768.63
2728.65
2673.79
2848.08
2761.68
471.794
-2027.92
-2597.04
-2670.72
-2527.48
-1156.4
-702.066
-223.643
-163.717
-230.676
-365.713
-648.71
-2804.49
1621.04
2780.21
2851.01
2753.23
2608.49
2316.07
1922.28
1708.36
1961.61
2395.66
2765.49
2256.65
2135.26
2187.82
2142.94
-2639.12
-2125.88
-847.612
-664.62
-898.742
-1026.84
-1361.05
-2716.75
-1387.81
531.241
2183.32
2852.65
2715.97
2262.14
1428.5
1131.15
1316.54
1240.92
1615.58
2043.44
2386.79
2718.5
2838.58
-1487.88
-2107.41
-2421.01
-1949.35
-2404.12
-2264.4
-2302.64
-2854.41
-1748.68
-1059.67
-58.9309
1836.32
2848.89
2421.08
1210.06
692.534
587.851
369.816
433.697
795.74
1503.73
1480.68
1981.03
2664.18
2249.22
-2345.88
-2793.79
-1856.58
-2815.19
-2853.21
-1938.08
-1292.8
-1157.75
-626.873
1166.54
2790.92
2409.59
1077.14
428.577
183.173
102.903
89.9709
101.99
370.759
341.304
349.583
2552.26
2836.4
-1583.55
-248.124
1666.51
-1265.49
-2314.56
-957.208
268.985
80.7312
118.146
1793.41
2620.03
1501.84
440.974
199.123
78.457
39.6852
29.2197
42.2152
47.8457
42.8277
50.446
2409.59
2835.82
-1729.77
1879.9
2849.27
2230.51
1265.71
2636.65
2856.48
2653.72
2631.2
2658.96
1025.6
520.819
52.322
26.7491
23.4188
18.4851
15.725
42.9109
34.6505
28.6634
41.6375
2481.55
2838.42
-114.327
2804.38
2302.34
2067.44
2657.59
1923.96
1630.06
2454.11
1807.37
700.301
125.437
22.8527
20.4879
21.0752
22.2673
13.4853
21.9148
50.4838
27.0718
21.6337
26.6871
2506.75
2428.33
2568.58
2472.91
1057.32
216.56
1308.44
725.948
721.423
1543.61
1360.49
357.033
185.397
28.5129
19.0597
19.4926
25.65
24.6961
37.127
23.5109
16.7474
11.5538
6.91736
1398.59
1332.19
2857.73
1664.52
306.085
15.5788
324.588
255.879
394.922
1202.52
1426.18
973.013
1159.35
68.2941
10.9245
9.27041
18.57
13.7667
7.68557
6.26441
7.47772
4.33822
2.59574
545.759
821.562
2767.51
1192.2
106.903
4.93436
32.5993
59.6731
358.773
1853.27
2594.92
1724.67
1533.59
95.6132
4.88901
2.92248
3.25049
1.04703
0.886965
1.08188
1.61962
1.09584
0.769206
240.649
626.257
2673.36
776.399
24.4648
0.75995
2.48956
6.10928
9.0302
176.573
1506.15
2853.87
1417.37
13.6057
1.02168
1.17633
0.939823
0.307014
0.187186
0.146194
0.166948
0.123275
0.179448
110.351
415.192
2189.13
315.255
4.86533
0.159662
0.0935945
0.560826
2.92464
45.4898
539.641
2831.66
430.95
0.163814
0.257062
0.337565
0.287819
0.127401
0.0799819
0.0279052
0.0157064
0.0139594
0.0334718
7.46029
210.268
1119.87
182.051
3.50809
0.0909429
0.0553775
0.25235
1.78403
12.7087
84.646
345.676
0.0400716
0.0191852
0.0582895
0.0720688
0.0526586
0.0203457
0.0121939
0.00899902
0.00311025
0.00347287
0.00714757
0.483752
91.9137
381.107
64.4332
1.08605
0.0389248
0.0238483
0.0305372
0.0215198
0.00110192
0.00328579
0.00975835
0.00155898
0.00122557
0.00350632
0.00599574
0.00670165
0.00233577
0.000563813
0.00037431
0.000392598
0.000945392
0.00157231
0.198807
7.71716
113.846
4.30429
0.0521628
0.0118169
0.0105141
0.0158203
0.0365144
0.000153916
2.97773e-05
1.72448e-05
2.08649e-05
4.62122e-05
0.000119706
0.000249888
0.000428035
0.000531352
0.00046683
0.00019698
0.00014193
0.00016048
0.000200262
0.0834844
0.429343
1.81631
0.0441919
0.00525988
0.00173777
0.00337327
0.00246361
0.00877527
0.000251464
3.78663e-05
1.25223e-06
2.25661e-06
8.40339e-06
2.5731e-05
4.77256e-05
8.49621e-05
0.000106467
0.000122633
6.14312e-05
2.52581e-05
3.45138e-06
4.26651e-06
0.00102992
0.00368037
0.0117818
0.000344516
0.000120907
0.000180382
0.000701286
0.000292899
0.000663513
0.000102181
0.000103086
1.6418e-07
1.88294e-08
6.28571e-08
2.60383e-07
1.05858e-06
3.79659e-06
6.20909e-06
8.88386e-06
3.39144e-06
1.15306e-06
2.2787e-07
2.4013e-07
0.000194291
1.34771e-05
3.91636e-06
4.49068e-06
1.6107e-06
2.40487e-05
4.97242e-05
1.08199e-05
1.02601e-05
6.58799e-07
1.55682e-07
2.03999e-08
6.12987e-10
2.66116e-09
1.10485e-08
6.79517e-08
2.3118e-07
4.10929e-07
5.02611e-07
3.7349e-07
1.32974e-07
1.68055e-08
1.17888e-08
4.5137e-05
4.13814e-06
4.14545e-07
1.22942e-06
-9.86838e-08
2.43065e-06
4.5239e-06
1.19405e-07
1.22414e-08
2.27168e-10
1.09092e-10
1.31871e-10
1.46428e-10
2.37377e-10
6.02992e-10
2.0709e-09
8.92389e-09
2.28464e-08
3.15066e-08
2.98741e-08
7.16678e-09
1.06137e-09
5.17499e-10
2.88487e-06
8.86916e-07
7.16733e-09
6.3879e-09
5.07472e-08
5.1594e-08
8.7915e-08
7.34593e-09
1.94626e-10
8.36734e-11
1.01863e-10
1.19144e-10
1.46429e-10
1.19144e-10
1.31877e-10
1.6007e-10
4.50197e-10
1.02681e-09
1.95995e-09
2.16914e-09
5.88441e-10
7.73066e-11
2.63752e-11
1.14406e-08
7.08221e-10
2.61932e-10
1.35513e-10
1.28223e-10
1.60055e-10
1.6823e-10
1.25508e-10
1.53705e-10
1.30058e-10
1.15506e-10
1.628e-10
1.40062e-10
1.21872e-10
1.28239e-10
9.36779e-11
1.46429e-10
1.54614e-10
1.54614e-10
9.27678e-11
1.18233e-11
-3.63798e-11
8.33298e-18
3.01949e-10
1.17325e-10
1.90994e-10
1.41881e-10
1.54614e-10
1.74623e-10
1.76442e-10
1.51886e-10
1.66438e-10
1.78261e-10
1.36424e-10
1.51886e-10
1.28239e-10
1.71895e-10
1.82808e-10
1.56433e-10
1.54614e-10
1.23691e-10
6.91216e-11
2.81943e-11
-3.27418e-11
-5.63887e-11
-3.63796e-12
1.6189e-10
9.73159e-11
2.19188e-10
2.19188e-10
1.76442e-10
1.74623e-10
2.09184e-10
1.71895e-10
1.36424e-10
1.58252e-10
1.23691e-10
1.19144e-10
9.73159e-11
1.30058e-10
1.38243e-10
1.89175e-10
1.36424e-10
1.17325e-10
8.54925e-11
9.7316e-11
1.36424e-11
-1.00045e-11
5.72982e-11
1.88265e-10
9.09494e-11
1.84627e-10
1.84627e-10
1.36424e-10
1.6189e-10
1.68257e-10
1.53705e-10
1.2551e-10
1.41881e-10
1.19144e-10
1.51886e-10
1.41881e-10
1.76442e-10
1.30058e-10
1.78261e-10
1.66438e-10
1.13687e-10
1.0732e-10
1.13687e-10
3.45608e-11
-1.36424e-11
4.27463e-11
2.5193e-10
8.36734e-11
1.23691e-10
1.72804e-10
1.41881e-10
1.66438e-10
1.9827e-10
1.36424e-10
8.36735e-11
1.51886e-10
1.30058e-10
1.23691e-10
1.70076e-10
1.90994e-10
1.56433e-10
1.94632e-10
1.51886e-10
1.437e-10
1.36424e-10
3.09228e-11
6.36646e-12
-2.63754e-11
1.36424e-11
2.59206e-10
7.27595e-11
1.35515e-10
1.60071e-10
1.96451e-10
1.38243e-10
1.58252e-10
1.27329e-10
1.21872e-10
2.07365e-10
1.58252e-10
1.09139e-10
1.41881e-10
1.89175e-10
1.28239e-10
1.50067e-10
1.89175e-10
1.41881e-10
8.54925e-11
4.45652e-11
4.54748e-12
-6.27552e-11
3.00134e-11
2.71939e-10
8.0945e-11
1.30058e-10
1.51886e-10
2.29193e-10
1.41881e-10
1.2551e-10
1.96451e-10
9.27684e-11
1.76442e-10
1.90994e-10
1.09139e-10
1.50067e-10
1.628e-10
1.628e-10
1.70076e-10
1.88265e-10
1.54614e-10
1.23691e-10
4.45652e-11
1.18234e-11
-5.63887e-11
-1.00044e-11
3.11957e-10
4.91126e-11
1.40062e-10
1.80989e-10
2.29193e-10
1.28239e-10
1.89175e-10
1.82808e-10
1.53705e-10
1.54614e-10
1.45519e-10
1.27329e-10
2.00998e-10
1.71895e-10
1.53705e-10
1.84627e-10
1.50067e-10
1.66438e-10
1.38243e-10
9.9135e-11
1.81899e-11
-6.36645e-12
-1.63709e-11
3.14685e-10
7.9126e-11
1.58252e-10
1.53705e-10
1.30058e-10
1.13687e-10
2.04636e-10
1.92813e-10
1.53705e-10
2.04636e-10
1.64619e-10
1.2551e-10
1.71895e-10
1.20053e-10
1.70076e-10
1.89175e-10
1.41881e-10
1.56433e-10
1.15506e-10
8.36735e-11
-1.6371e-11
-2.63754e-11
1.18235e-11
2.29193e-10
7.5488e-11
1.35515e-10
1.01863e-10
1.2551e-10
9.73159e-11
2.32831e-10
1.92813e-10
1.70076e-10
1.72804e-10
1.45519e-10
1.51886e-10
1.31877e-10
1.41881e-10
1.80989e-10
1.89175e-10
1.84627e-10
1.58252e-10
1.53705e-10
8.54925e-11
5.09317e-11
-2.27374e-11
-1.36424e-11
2.37378e-10
1.05501e-10
1.23691e-10
1.13687e-10
1.13687e-10
6.27551e-11
2.07365e-10
1.82808e-10
1.82808e-10
1.628e-10
1.2551e-10
1.64619e-10
1.51886e-10
1.71895e-10
1.628e-10
2.04636e-10
1.76442e-10
1.33696e-10
8.91304e-11
1.17325e-10
7.91261e-11
-2.00089e-11
-3.27418e-11
1.9827e-10
4.45652e-11
1.36424e-10
1.13687e-10
7.9126e-11
4.09272e-11
1.68257e-10
1.31877e-10
7.27595e-11
1.64619e-10
1.27329e-10
1.437e-10
1.76442e-10
1.66438e-10
1.01863e-10
1.78261e-10
1.80989e-10
1.8008e-10
1.66438e-10
1.0732e-10
3.00133e-11
-2.63754e-11
2.81944e-11
1.19144e-10
2.81943e-11
5.27507e-11
1.81898e-11
9.27685e-11
-8.36391e-17
1.05501e-10
8.36735e-11
5.63886e-11
1.74623e-10
9.09494e-11
1.05501e-10
1.74623e-10
5.45696e-11
6.27551e-11
1.51886e-10
1.20053e-10
1.64619e-10
1.48248e-10
1.19144e-10
4.27462e-11
1.00044e-11
4.63843e-11
9.5497e-11
-2.63754e-11
3.81988e-11
1.81897e-12
6.09362e-11
3.09228e-11
1.81899e-11
3.27418e-11
5.09317e-11
9.3678e-11
5.72982e-11
8.36736e-11
4.45652e-11
-6.36651e-12
3.09228e-11
4.45652e-11
9.3678e-11
1.23691e-10
1.30058e-10
1.00954e-10
5.27507e-11
-2.00089e-11
3.45609e-11
2.00089e-11
-4.91127e-11
-1.00044e-11
-4.27463e-11
2.63754e-11
4.82033e-11
1.81899e-11
-3.27418e-11
1.36424e-11
-2.00089e-11
-1.00044e-11
-4.63843e-11
-4.91127e-11
3.63804e-12
-6.91217e-11
1.18235e-11
-4.91128e-11
3.00133e-11
8.54926e-11
3.63798e-11
9.36781e-11
-1.6371e-11
-5.63888e-11
-2.00089e-11
-1.01864e-10
-1.00044e-11
-1.11868e-10
-3.63798e-11
1.45519e-11
-1.63709e-11
-1.48248e-10
-3.00133e-11
-1.35515e-10
-5.27507e-11
-8.91305e-11
-1.2551e-10
-6.63931e-11
-1.41881e-10
-1.63708e-11
-1.2551e-10
-7.91261e-11
-9.9135e-11
-1.58252e-10
-3.00134e-11
1.86447e-10
1.74623e-10
-3.63797e-12
-2.00089e-11
3.27419e-11
-4.00178e-11
1.63709e-11
7.45786e-11
3.63801e-12
-1.38243e-10
1.18235e-11
-1.28239e-10
-3.27417e-11
-1.21872e-10
-4.91127e-11
-3.63794e-12
-2.27373e-11
1.18235e-11
-3.00133e-11
2.63754e-11
-4.00178e-11
-2.00089e-11
5.27507e-11
1.9827e-10
1.68257e-10
-2711.63
-2698.09
-2856.82
2497.78
-2839.81
-2775.81
-2822.18
-2177.41
-2843.39
-2815.51
-2813.04
-2823.37
-2832.1
-2830.78
-2831.18
-2835.27
-2553.38
-2578.48
-2592.32
-2587.27
1899.51
1450.58
671.262
-224.02
2645.87
2438.76
1873.81
1864.64
2213.93
2368.93
2770.67
2795.18
468.767
600.351
993.167
1242.66
75.985
85.7861
133.266
185.266
47.7658
46.703
46.5719
45.6598
18.964
15.3225
12.4939
10.6421
5.81457
6.25834
3.33871
2.67846
1.63485
2.27847
1.0105
0.890478
0.40528
0.458372
0.326725
0.446083
0.0981597
0.104526
0.108333
0.154258
0.0288117
0.0255855
0.0231905
0.0271733
0.00698968
0.00598134
0.00575512
0.00545311
0.00161651
0.00134201
0.00109719
0.000959086
0.000194816
0.000157769
0.000132742
0.00010916
5.15694e-06
4.99485e-06
8.14161e-06
9.66263e-06
4.30901e-07
6.32569e-07
9.61185e-07
1.21785e-06
3.17003e-08
5.55836e-08
8.3234e-08
1.09292e-07
1.61889e-09
3.00859e-09
4.57837e-09
7.22863e-09
9.36774e-11
2.12821e-10
2.96494e-10
5.93898e-10
-1.00045e-11
2.81943e-11
6.2755e-11
1.56433e-10
-4.91128e-11
-1.62695e-17
5.91172e-11
1.21872e-10
-3.00134e-11
-2.00089e-11
1.36423e-11
8.91305e-11
1.63709e-11
1.00044e-11
3.27418e-11
8.91305e-11
-2.63754e-11
-1.36424e-11
-4.9113e-11
6.27552e-11
-6.36652e-12
2.45565e-11
-3.63813e-12
8.91306e-11
-3.63799e-11
1.18235e-11
-3.63809e-12
6.09362e-11
-5.91173e-11
-1.36424e-11
-1.36425e-11
5.27507e-11
-1.63709e-11
8.18554e-12
-1.63709e-11
4.5474e-12
-3.27418e-11
-3.63797e-11
-9.91353e-11
5.09318e-11
-2.27373e-11
-2.27373e-11
-5.63889e-11
7.27597e-11
-8.91306e-11
-7.91261e-11
-6.27553e-11
4.45654e-11
-2.0009e-11
8.18562e-12
-5.63889e-11
2.45564e-11
-3.00134e-11
-2.63753e-11
-9.27687e-11
-6.36639e-12
-4.91128e-11
-1.63708e-11
-5.27507e-11
-9.91353e-11
-1.36427e-11
4.45654e-11
2.00087e-11
1.72804e-10
1.46429e-10
-2.27375e-11
-8.54926e-11
-1.0914e-10
394.054
195.259
1121.26
2852.64
2772.7
2761.68
2656.16
2369.8
1528.18
1756.82
2043.65
2634.02
2614.26
1304.03
425.963
88.7665
12.6426
1.07246
0.0360928
859.938
2688.1
2799.96
2742.45
1311.84
-499.944
-869.539
-623.165
25.2905
1545.25
2108.6
2764.16
2016
840.523
431.328
167.212
34.574
3.78814
0.168322
-2849.36
-2621.82
-2174.33
-2091.98
-2263.75
-2237.78
-2126.22
-1261.94
1111.65
2856.26
2215.28
1098.03
403.599
143.277
54.4477
49.9554
20.7583
2.69101
0.124469
-2853.94
-2834.08
-2548.11
-2163.18
-1855.92
-1259.99
440.359
2650.91
2678.54
2120.38
1643.31
1223.47
809.882
430.619
183.492
58.1916
14.1074
1.463
0.0572547
-2545.27
-2488.25
-2307.09
-1852.75
-1053.9
457.829
2428.19
2706.77
1972.78
1613.6
1377.48
1071.62
688.28
308.568
81.9827
23.2551
5.11471
0.464089
0.0163124
-710.962
-550.773
-628.926
-226.839
710.927
1885.32
2854.97
1965.94
1000.03
723.706
733.553
743.697
643.273
344.47
85.8407
13.0881
1.5278
0.121849
0.00387367
2810.22
2726.89
2855.9
2857.71
2822.58
2710
1989.6
735.769
273.593
237.205
305.692
387.757
363.756
226.013
60.9505
6.76457
0.463167
0.0304216
0.000872037
1992.67
673.641
939.771
934.059
1145.99
1012.99
614.174
232.765
111.544
118.124
190.556
281.123
270.961
158.211
35.2829
2.74522
0.151572
0.00779725
0.00019373
593.859
168.902
117.623
116.633
144.014
255.696
177.151
104.878
71.4184
80.8641
144.884
208.092
201.151
111.341
20.604
1.22876
0.0588576
0.00227244
4.61069e-05
71.3723
57.5904
60.0177
64.1823
68.0063
77.8183
77.5004
75.6777
64.0248
67.1907
112.641
132.91
111.519
54.8442
9.7456
0.567262
0.0256818
0.000784573
1.26637e-05
38.682
32.2921
36.3448
47.1422
64.8334
62.5598
57.8405
50.9152
44.1515
44.3849
63.7487
109.872
98.3005
42.1947
4.87668
0.259562
0.0110874
0.000294625
3.90983e-06
9.70367
10.1075
17.0619
38.2191
79.5857
79.8549
71.4546
62.5765
60.6151
63.9644
91.5877
117.749
96.0324
30.4127
2.26374
0.112062
0.00441381
0.000106577
1.23374e-06
2.42023
3.16877
7.20008
17.6378
47.6829
88.366
106.311
118.5
121.405
123.329
123.791
114.158
67.9716
12.8352
0.892488
0.0417897
0.00151656
3.44087e-05
3.66151e-07
0.85535
1.59242
3.53424
7.41936
18.4391
37.3051
58.3112
65.2748
92.3101
104.185
100.028
73.2489
25.997
4.35655
0.30058
0.0136962
0.000465954
9.98001e-06
9.7619e-08
0.469025
0.903867
1.62976
3.03664
6.38996
9.77681
15.3506
22.0367
32.4203
42.5992
42.7887
24.6171
7.76783
1.28813
0.0836098
0.00356112
0.000121786
2.53345e-06
2.34125e-08
0.124564
0.100125
0.183231
0.410219
1.17433
2.00452
3.10526
4.07373
5.77585
8.22082
12.4885
5.57001
1.69186
0.286483
0.0193227
0.000827775
2.79333e-05
5.60341e-07
5.11031e-09
0.030084
0.0278148
0.0476552
0.0968551
0.286375
0.458434
0.685882
0.990359
1.84582
2.6581
2.939
1.13604
0.352792
0.0615041
0.00389579
0.000163792
5.4317e-06
1.07544e-07
1.06044e-09
0.00623256
0.00625617
0.0158267
0.0276823
0.0538691
0.10311
0.173691
0.36835
0.543645
0.595734
0.565113
0.152319
0.0548434
0.00966617
0.000632914
2.83887e-05
9.19768e-07
1.79032e-08
2.15546e-10
0.000942568
0.000833329
0.00151867
0.00337343
0.0105798
0.0283182
0.0562208
0.0898536
0.105849
0.0750359
0.092979
0.0272268
0.00874932
0.00139816
9.23491e-05
4.38654e-06
1.41618e-07
2.71026e-09
8.73108e-11
0.000104332
0.000111671
0.000223446
0.000763237
0.00156033
0.00264994
0.00689912
0.0124236
0.00637215
0.00964778
0.0118756
0.00361943
0.00109875
0.000183025
1.15472e-05
5.3152e-07
1.83434e-08
3.56517e-10
6.27551e-11
1.40142e-05
2.35801e-05
3.28813e-05
5.71936e-05
0.000104025
0.000356823
0.000884245
0.00138239
0.000624507
0.00144945
0.00200482
0.000501672
0.000131304
2.2143e-05
1.40683e-06
5.77134e-08
2.12001e-09
1.00038e-11
4.27462e-11
1.86427e-06
3.08789e-06
5.4917e-06
7.74531e-06
9.48336e-06
3.35435e-05
4.95722e-05
2.5422e-05
7.85882e-05
0.000191914
0.000268543
5.8138e-05
1.33134e-05
2.23843e-06
1.49413e-07
5.98897e-09
2.22824e-10
-4.00179e-11
6.63931e-11
1.70786e-07
3.67916e-07
6.46201e-07
8.38623e-07
1.04205e-06
3.5925e-06
4.77474e-06
3.78216e-06
1.28906e-05
1.86893e-05
1.93183e-05
5.51496e-06
1.35029e-06
2.09228e-07
1.2791e-08
6.47556e-10
6.0936e-11
-1.36425e-11
1.11868e-10
1.36342e-08
3.46862e-08
6.44767e-08
8.30048e-08
1.05784e-07
3.82654e-07
5.13931e-07
6.50567e-07
1.41516e-06
1.59188e-06
1.30133e-06
4.79625e-07
1.18303e-07
1.46228e-08
1.06501e-09
1.10048e-10
3.00133e-11
1.45519e-11
1.8099e-10
1.16597e-09
2.71483e-09
5.356e-09
7.17498e-09
1.01072e-08
3.59968e-08
5.15464e-08
7.8371e-08
1.4299e-07
1.24403e-07
1.19877e-07
3.83269e-08
8.28455e-09
1.01863e-09
1.89174e-10
9.27684e-11
4.63842e-11
4.82032e-11
1.8008e-10
2.12821e-10
2.33739e-10
5.47515e-10
7.3396e-10
9.18587e-10
2.99041e-09
4.50199e-09
7.13315e-09
1.3596e-08
8.93848e-09
1.00744e-08
2.86672e-09
6.82118e-10
1.66437e-10
7.09405e-11
1.01863e-10
4.45652e-11
1.63709e-11
1.33696e-10
1.56433e-10
1.09139e-10
9.91348e-11
1.17325e-10
1.30057e-10
2.8649e-10
4.17457e-10
6.00265e-10
1.27602e-09
6.39372e-10
8.45828e-10
2.70119e-10
1.74623e-10
9.54969e-11
7.7307e-11
9.91349e-11
5.27507e-11
1.00044e-11
7.54881e-11
1.72804e-10
1.19144e-10
1.56433e-10
9.73159e-11
9.36779e-11
9.36779e-11
1.10049e-10
5.7298e-11
1.40062e-10
1.72804e-10
1.64618e-10
1.23691e-10
1.2551e-10
1.31877e-10
1.15506e-10
7.5488e-11
6.73026e-11
-3.16754e-17
9.09495e-11
1.31877e-10
8.73114e-11
1.30058e-10
9.27684e-11
1.15506e-10
8.54925e-11
4.09272e-11
7.09406e-11
8.36735e-11
1.23691e-10
1.45519e-10
1.50067e-10
9.27684e-11
1.13687e-10
1.20053e-10
1.15506e-10
8.54925e-11
-3.63799e-11
5.45697e-11
1.6189e-10
1.437e-10
1.64619e-10
1.64619e-10
1.51886e-10
6.91216e-11
7.91261e-11
1.09139e-10
9.91349e-11
1.03682e-10
1.23691e-10
1.54614e-10
1.03682e-10
1.46429e-10
1.0732e-10
1.23691e-10
7.7307e-11
1.81897e-12
7.09406e-11
1.19144e-10
7.9126e-11
1.31877e-10
1.21872e-10
8.0945e-11
7.45786e-11
5.45697e-11
8.2764e-11
9.09495e-11
9.3678e-11
8.54925e-11
8.73115e-11
1.17325e-10
1.11868e-10
4.91127e-11
8.73115e-11
1.03682e-10
-3.00134e-11
1.09139e-10
1.46429e-10
1.0732e-10
1.46429e-10
9.54969e-11
9.27685e-11
5.45697e-11
4.09272e-11
7.09406e-11
5.45697e-11
7.27596e-11
1.10049e-10
8.0945e-11
1.01863e-10
1.10049e-10
6.09361e-11
5.63886e-11
1.01863e-10
-1.6371e-11
8.73115e-11
1.41881e-10
1.13687e-10
1.70076e-10
1.0732e-10
1.01863e-10
7.7307e-11
9.09495e-11
6.73026e-11
6.91216e-11
7.9126e-11
9.91349e-11
9.91349e-11
1.01863e-10
1.58252e-10
1.46429e-10
7.9126e-11
7.09406e-11
-3.63803e-12
1.03682e-10
8.91305e-11
6.45741e-11
9.91349e-11
5.63886e-11
7.27596e-11
9.09495e-11
9.91349e-11
1.10049e-10
1.23691e-10
7.54881e-11
3.27418e-11
9.91349e-11
1.15506e-10
1.15506e-10
1.13687e-10
1.05501e-10
5.45697e-11
3.09228e-11
1.28239e-10
1.35515e-10
1.11868e-10
1.21872e-10
5.45697e-11
6.73026e-11
8.54925e-11
6.91216e-11
7.9126e-11
1.23691e-10
1.00954e-10
6.63931e-11
1.01863e-10
7.27595e-11
1.45519e-10
1.628e-10
8.54925e-11
6.27552e-11
-1.00045e-11
6.63931e-11
1.40062e-10
6.27551e-11
9.36779e-11
7.5488e-11
7.27595e-11
1.23691e-10
1.01863e-10
8.73115e-11
6.45741e-11
1.13687e-10
1.11868e-10
9.27685e-11
6.73026e-11
1.15506e-10
1.68257e-10
7.9126e-11
4.82032e-11
2.45563e-11
7.73071e-11
8.73115e-11
4.91127e-11
1.58252e-10
1.30058e-10
1.64619e-10
1.84627e-10
1.10049e-10
1.41881e-10
8.91305e-11
1.00954e-10
1.09139e-10
7.27596e-11
6.63931e-11
1.17325e-10
9.36779e-11
1.31877e-10
8.73115e-11
2.18278e-11
1.28239e-10
1.03682e-10
6.27551e-11
1.19144e-10
1.8008e-10
1.45519e-10
8.2764e-11
1.09139e-10
1.54614e-10
5.63886e-11
8.2764e-11
1.09139e-10
8.54925e-11
8.0945e-11
7.45785e-11
1.01863e-10
1.50067e-10
1.50067e-10
-2.0009e-11
1.40062e-10
7.54881e-11
6.09362e-11
7.9126e-11
1.31877e-10
1.45519e-10
1.03682e-10
3.63797e-11
1.17325e-10
7.09406e-11
4.91127e-11
1.11868e-10
8.2764e-11
1.15506e-10
5.45696e-11
1.09139e-10
1.23691e-10
1.03682e-10
-7.54882e-11
6.63931e-11
9.09496e-11
3.63791e-12
1.09139e-10
1.23691e-10
1.21872e-10
9.27685e-11
5.45697e-11
1.05501e-10
9.3678e-11
1.01863e-10
1.01863e-10
1.28239e-10
1.35515e-10
8.73115e-11
1.437e-10
1.2551e-10
1.30058e-10
-6.27552e-11
5.09317e-11
1.33696e-10
-3.63802e-12
-1.35515e-10
-2.63754e-11
1.00044e-11
-3.27419e-11
-4.63843e-11
1.63709e-11
1.81894e-12
2.45563e-11
2.45563e-11
2.00088e-11
2.45563e-11
-6.14331e-17
4.45652e-11
3.81987e-11
5.09317e-11
3.09228e-11
2.27374e-11
6.36644e-12
1.13687e-10
-2.00089e-11
2.18279e-11
5.09317e-11
2.27374e-11
-2.00089e-11
8.18545e-12
3.00133e-11
6.63931e-11
3.81988e-11
4.09273e-11
7.54881e-11
5.63887e-11
4.91127e-11
5.09317e-11
6.45741e-11
5.63887e-11
-3.638e-12
)
;

boundaryField
{
    leftWall
    {
        type            zeroGradient;
    }
    rightWall
    {
        type            zeroGradient;
    }
    lowerWall
    {
        type            zeroGradient;
    }
    atmosphere
    {
        type            zeroGradient;
    }
    defaultFaces
    {
        type            empty;
    }
}


// ************************************************************************* //
