/*--------------------------------*- C++ -*----------------------------------*\
| =========                 |                                                 |
| \\      /  F ield         | foam-extend: Open Source CFD                    |
|  \\    /   O peration     | Version:     4.1                                |
|   \\  /    A nd           | Web:         http://www.foam-extend.org         |
|    \\/     M anipulation  |                                                 |
\*---------------------------------------------------------------------------*/
FoamFile
{
    version     2.0;
    format      ascii;
    class       volVectorField;
    location    "0.3";
    object      U;
}
// * * * * * * * * * * * * * * * * * * * * * * * * * * * * * * * * * * * * * //

dimensions      [0 1 -1 0 0 0 0];

internalField   nonuniform List<vector> 
2268
(
(-0.00792983 -0.0127314 0)
(0.0708339 -0.00882976 0)
(0.107629 -0.0109468 0)
(0.232812 -0.0140826 0)
(0.305796 -0.0113328 0)
(0.447622 -0.0175596 0)
(0.526622 -0.00144816 0)
(0.583204 -0.013527 0)
(0.802821 -0.00939721 0)
(0.7436 -0.0530261 0)
(0.632961 0.00358722 0)
(0.656113 -0.0116933 0)
(0.70824 -0.0176616 0)
(0.724661 -0.00474082 0)
(0.877636 0.116038 0)
(1.00463 -0.0293316 0)
(1.06428 -0.0154794 0)
(1.01771 0.0552556 0)
(1.08391 0.0270393 0)
(0.980377 -0.103307 0)
(0.809243 -0.034401 0)
(0.7619 0.213429 0)
(-0.822754 -0.430704 0)
(-0.00536014 -0.0163264 0)
(0.0722332 -0.0188725 0)
(0.108297 -0.0263997 0)
(0.230225 -0.0347396 0)
(0.30579 -0.0376527 0)
(0.454262 -0.040041 0)
(0.524133 -0.0555859 0)
(0.587559 -0.0632734 0)
(0.813663 -0.0420737 0)
(0.741907 -0.170147 0)
(0.640235 -0.0160345 0)
(0.656053 -0.0259645 0)
(0.679965 -0.0596425 0)
(0.751292 -0.0722134 0)
(0.847782 0.0964696 0)
(0.90018 0.0264095 0)
(1.10322 -0.0224472 0)
(0.960971 -0.0764395 0)
(0.966832 -0.0482931 0)
(0.842916 -0.135624 0)
(0.671774 0.0516673 0)
(0.746445 0.471576 0)
(0.736739 0.367499 0)
(-0.00618024 -0.0449369 0)
(0.0703973 -0.0361296 0)
(0.106007 -0.0477948 0)
(0.223941 -0.0624586 0)
(0.301192 -0.0634062 0)
(0.43762 -0.0681413 0)
(0.530125 -0.0480065 0)
(0.611079 -0.103034 0)
(0.758244 -0.0608473 0)
(0.736694 -0.198068 0)
(0.631144 -0.0524174 0)
(0.588334 -0.0318275 0)
(0.634946 -0.0980602 0)
(0.657997 0.0117295 0)
(0.832683 0.129346 0)
(0.940913 0.18287 0)
(1.01283 0.0132074 0)
(0.80174 -0.202281 0)
(0.455158 0.02778 0)
(0.183835 -0.0295752 0)
(0.212431 0.0200648 0)
(0.562287 0.437585 0)
(0.667927 0.384301 0)
(0.000459381 -0.0425118 0)
(0.078672 -0.0458757 0)
(0.107557 -0.0612939 0)
(0.21171 -0.082858 0)
(0.295939 -0.0863172 0)
(0.471553 -0.104704 0)
(0.54869 -0.0430025 0)
(0.612468 -0.119371 0)
(0.706103 -0.0787319 0)
(0.687461 -0.160265 0)
(0.61388 -0.175688 0)
(0.561142 -0.134232 0)
(0.598216 0.0379838 0)
(0.698092 0.060318 0)
(0.678762 0.115679 0)
(0.766296 0.139969 0)
(0.762883 0.0288628 0)
(0.630045 0.0207101 0)
(0.328074 0.00777371 0)
(0.25334 -0.0415296 0)
(0.307711 -0.0638539 0)
(0.478149 0.392503 0)
(0.545861 0.532811 0)
(-0.00394808 -0.0888992 0)
(0.0726176 -0.0632398 0)
(0.097776 -0.0791579 0)
(0.201928 -0.108214 0)
(0.286603 -0.125168 0)
(0.490422 -0.129246 0)
(0.501126 -0.0914568 0)
(0.572052 -0.161369 0)
(0.65518 -0.0583374 0)
(0.637481 -0.153735 0)
(0.603297 -0.21766 0)
(0.611325 -0.154861 0)
(0.676733 0.00354652 0)
(0.719713 -0.153003 0)
(0.72935 0.0555338 0)
(0.76047 0.0891359 0)
(0.787521 0.0554673 0)
(0.800285 0.113294 0)
(0.841177 0.0471836 0)
(0.79731 0.0162903 0)
(0.570656 0.0624062 0)
(0.477454 0.418645 0)
(0.584218 0.637196 0)
(0.0108962 -0.0631256 0)
(0.0836871 -0.070212 0)
(0.0947564 -0.0903395 0)
(0.187605 -0.129524 0)
(0.277936 -0.156604 0)
(0.466118 -0.161185 0)
(0.466147 -0.176286 0)
(0.559716 -0.200451 0)
(0.638018 -0.122848 0)
(0.577769 -0.169172 0)
(0.617567 -0.235921 0)
(0.624949 -0.085414 0)
(0.628103 -0.162703 0)
(0.744447 -0.165903 0)
(0.9893 -0.0473399 0)
(0.89901 0.140539 0)
(0.884159 0.0951936 0)
(0.914049 0.0974398 0)
(0.981639 0.0326573 0)
(0.976969 0.0863562 0)
(0.712025 0.137424 0)
(0.501299 0.544317 0)
(0.524105 0.784691 0)
(-0.00343999 -0.045453 0)
(0.0701859 -0.0862448 0)
(0.0763766 -0.104815 0)
(0.177525 -0.157319 0)
(0.275364 -0.18739 0)
(0.426707 -0.180696 0)
(0.43823 -0.167218 0)
(0.591967 -0.145772 0)
(0.637109 -0.235568 0)
(0.561794 -0.197559 0)
(0.621314 -0.17488 0)
(0.701067 -0.175082 0)
(0.682502 -0.0251906 0)
(0.828507 0.00151245 0)
(1.02615 -0.197613 0)
(0.957162 -0.0395722 0)
(0.764002 0.0559913 0)
(0.804015 0.0350278 0)
(0.941349 -0.0300271 0)
(0.986216 0.126768 0)
(0.776632 0.22361 0)
(0.470183 0.68494 0)
(0.531657 0.933694 0)
(-0.00771991 -0.0749015 0)
(0.0640703 -0.0831338 0)
(0.0694654 -0.112897 0)
(0.175886 -0.165913 0)
(0.27407 -0.218682 0)
(0.410479 -0.199298 0)
(0.452209 -0.264226 0)
(0.515469 -0.182979 0)
(0.605829 -0.24233 0)
(0.602221 -0.201517 0)
(0.656452 -0.119271 0)
(0.749834 -0.174283 0)
(0.743687 -0.0610342 0)
(0.768648 -0.145867 0)
(0.926131 -0.0903437 0)
(0.917444 0.0135114 0)
(0.628691 -0.00249176 0)
(0.559065 -0.00700248 0)
(0.693527 -0.00917006 0)
(0.867477 0.179789 0)
(0.657662 0.280423 0)
(0.499155 0.726931 0)
(0.445225 1.32402 0)
(-0.0787807 0.059213 0)
(-0.251427 0.0977812 0)
(-0.446693 0.152638 0)
(-0.938696 0.182777 0)
(-1.50815 0.333865 0)
(-2.41292 0.177922 0)
(-2.90932 -0.0492045 0)
(-3.08161 -0.0443652 0)
(-3.11173 0.228474 0)
(-2.55977 -0.0596952 0)
(-1.21598 -0.550568 0)
(-0.972732 -0.0715915 0)
(-0.332235 -0.143019 0)
(0.77034 -0.0924196 0)
(1.34262 -0.0302139 0)
(1.40655 0.0083778 0)
(1.22057 0.0391554 0)
(0.775721 0.0570552 0)
(0.263343 0.0599659 0)
(-0.0528409 0.230902 0)
(-0.20842 0.246938 0)
(-0.485961 0.335546 0)
(-0.880296 0.312895 0)
(-1.19056 0.536587 0)
(-1.5353 0.190157 0)
(-1.205 -0.223614 0)
(-1.23428 -0.198967 0)
(-1.0663 0.055847 0)
(0.132785 -0.419469 0)
(0.465608 -0.577822 0)
(-0.0694401 -0.363495 0)
(0.153059 -0.290774 0)
(0.807479 -0.264232 0)
(1.42697 -0.0760252 0)
(1.48342 0.033599 0)
(1.29876 0.122429 0)
(0.822077 0.176903 0)
(0.277871 0.185939 0)
(-0.0761629 0.315707 0)
(-0.253226 0.463167 0)
(-0.477702 0.561372 0)
(-0.558194 0.582427 0)
(-0.506767 0.716465 0)
(-0.372226 0.190465 0)
(0.791305 -0.619262 0)
(0.507258 -0.207704 0)
(0.436253 0.128474 0)
(0.788171 -0.684067 0)
(0.963823 -0.73475 0)
(0.639544 -0.390139 0)
(0.720102 -0.394069 0)
(0.939663 -0.342883 0)
(1.46094 -0.14033 0)
(1.56573 0.045828 0)
(1.36751 0.207129 0)
(0.840952 0.301143 0)
(0.282627 0.315965 0)
(-0.0300067 0.526221 0)
(-0.258416 0.570976 0)
(-0.348382 0.639983 0)
(-0.312065 0.683688 0)
(-0.00873918 0.474843 0)
(0.292448 -0.114661 0)
(1.24291 -0.556322 0)
(0.575687 -0.177427 0)
(0.728863 0.146337 0)
(0.96322 -0.683101 0)
(1.21397 -0.730289 0)
(0.94364 -0.527461 0)
(1.01867 -0.439411 0)
(1.21659 -0.335796 0)
(1.50649 -0.185315 0)
(1.65386 0.0674038 0)
(1.42947 0.314638 0)
(0.853355 0.436306 0)
(0.285286 0.449923 0)
(-0.0682763 0.591092 0)
(-0.122147 0.727816 0)
(-0.19435 0.63512 0)
(-0.23824 0.549436 0)
(-0.00509562 0.13294 0)
(0.634406 -0.534693 0)
(0.98236 -0.710981 0)
(0.0590714 -0.130479 0)
(0.676845 0.141889 0)
(1.06465 -0.539072 0)
(1.34476 -0.499434 0)
(1.12521 -0.42661 0)
(1.19266 -0.40376 0)
(1.31236 -0.364143 0)
(1.51476 -0.227714 0)
(1.73888 0.0843759 0)
(1.50656 0.417526 0)
(0.868648 0.564105 0)
(0.28485 0.577543 0)
(-0.0177625 0.725038 0)
(-0.00460244 0.640142 0)
(-0.108116 0.742767 0)
(-0.100377 0.303011 0)
(0.16538 -0.0886237 0)
(0.450915 -0.58837 0)
(0.577602 -0.620501 0)
(-0.615097 0.0801963 0)
(0.918929 -0.597676 0)
(1.30558 -0.459697 0)
(1.50423 -0.392947 0)
(1.23408 -0.404177 0)
(1.28264 -0.408203 0)
(1.3647 -0.395901 0)
(1.45497 -0.327858 0)
(1.67943 -0.000888345 0)
(1.56975 0.569601 0)
(0.907891 0.731788 0)
(0.290545 0.723896 0)
(-0.0173584 0.621056 0)
(0.179604 0.854299 0)
(0.206399 0.669331 0)
(0.377284 0.398322 0)
(0.374224 -0.108374 0)
(0.502906 -0.43054 0)
(0.444486 -0.441997 0)
(0.253 -0.0936257 0)
(1.20854 -0.724445 0)
(1.56587 -0.411363 0)
(1.67699 -0.403816 0)
(1.45336 -0.41994 0)
(1.45316 -0.430172 0)
(1.52706 -0.442855 0)
(1.53577 -0.412606 0)
(1.65122 -0.0935153 0)
(1.60845 0.661414 0)
(0.889345 0.854105 0)
(0.273616 0.848751 0)
(0.138266 0.511885 0)
(0.258587 0.46504 0)
(0.12584 0.372268 0)
(0.704095 0.116891 0)
(0.629722 -0.109034 0)
(0.686438 -0.353209 0)
(0.464139 -0.384017 0)
(0.768667 -0.193214 0)
(1.30647 -0.750814 0)
(1.68794 -0.553254 0)
(1.72028 -0.36576 0)
(1.52243 -0.418453 0)
(1.48639 -0.432764 0)
(1.50714 -0.477417 0)
(1.44071 -0.430097 0)
(1.54705 -0.108331 0)
(1.51725 0.782127 0)
(0.921021 1.08764 0)
(0.285776 1.0347 0)
(-0.00533732 -0.067146 0)
(0.0656373 -0.107065 0)
(0.0700016 -0.140429 0)
(0.172477 -0.248575 0)
(0.260525 -0.294152 0)
(0.340946 -0.268067 0)
(0.434039 -0.353916 0)
(0.527465 -0.297902 0)
(0.717828 -0.324343 0)
(0.759915 -0.25434 0)
(0.786309 -0.188385 0)
(0.767789 -0.0478253 0)
(0.735195 -0.152009 0)
(0.837584 -0.152672 0)
(1.18988 -0.0227757 0)
(1.04966 -0.0376977 0)
(0.68208 -0.0658785 0)
(0.724364 -0.0249046 0)
(0.710135 0.0755485 0)
(0.666168 0.284833 0)
(0.612231 0.562611 0)
(0.758884 0.843715 0)
(1.01706 1.5981 0)
(-0.0434595 -0.140972 0)
(0.0316553 -0.137091 0)
(0.0762951 -0.207507 0)
(0.154049 -0.350884 0)
(0.245991 -0.308158 0)
(0.377768 -0.35743 0)
(0.497172 -0.414473 0)
(0.657011 -0.412219 0)
(0.84257 -0.344078 0)
(0.894544 -0.290929 0)
(0.945258 -0.0662758 0)
(0.842777 -0.0623315 0)
(0.691861 -0.0464754 0)
(0.776579 0.00816108 0)
(0.923833 -0.0529789 0)
(0.8721 -0.125961 0)
(0.795698 -0.0432626 0)
(0.784025 0.00833954 0)
(0.783708 0.0773569 0)
(0.730288 0.248936 0)
(0.851342 0.522793 0)
(0.986939 0.73055 0)
(1.22723 1.33059 0)
(0.0587316 -0.241478 0)
(0.0523904 -0.237941 0)
(0.0381375 -0.258816 0)
(0.172208 -0.365539 0)
(0.279243 -0.293709 0)
(0.299334 -0.411688 0)
(0.473156 -0.504413 0)
(0.632514 -0.509912 0)
(0.713887 -0.422372 0)
(0.883078 -0.301817 0)
(0.822394 -0.212182 0)
(0.632511 -0.34065 0)
(0.679467 -0.233994 0)
(0.792399 -0.257669 0)
(0.921729 -0.16197 0)
(0.862807 -0.0108459 0)
(0.78529 -0.0260986 0)
(0.767881 -0.00864049 0)
(0.693119 0.108373 0)
(0.796645 0.267518 0)
(0.933902 0.694798 0)
(1.41653 0.723989 0)
(1.63519 0.957633 0)
(0.0188396 -0.367668 0)
(0.118547 -0.361227 0)
(0.161296 -0.387837 0)
(0.165704 -0.391207 0)
(0.18277 -0.31084 0)
(0.270441 -0.415555 0)
(0.440741 -0.537707 0)
(0.358623 -0.571182 0)
(0.456546 -0.463358 0)
(0.372883 -0.511735 0)
(0.232797 -0.411707 0)
(0.27418 -0.394389 0)
(0.425793 -0.288894 0)
(0.720763 -0.421715 0)
(1.24101 -0.113223 0)
(1.11979 -0.00807874 0)
(0.706551 0.0945537 0)
(0.559448 0.128632 0)
(0.56066 0.315404 0)
(0.823484 0.418033 0)
(1.11492 0.769599 0)
(1.54282 0.70564 0)
(1.53559 0.426655 0)
(0.0369008 -0.519611 0)
(0.0790332 -0.549434 0)
(0.180701 -0.604354 0)
(0.226383 -0.658305 0)
(0.234148 -0.686964 0)
(0.317757 -0.68707 0)
(0.230763 -0.735738 0)
(-0.04403 -0.514932 0)
(-0.139489 -0.428646 0)
(-0.0834491 -0.416578 0)
(-0.129887 -0.0347755 0)
(0.255509 -0.454812 0)
(0.330533 -0.409668 0)
(0.549326 -0.540284 0)
(0.686573 -0.393934 0)
(0.547394 -0.291118 0)
(0.787715 0.197727 0)
(0.780372 0.191671 0)
(0.741531 0.279169 0)
(0.757273 0.397248 0)
(0.791676 0.3863 0)
(0.931563 0.360983 0)
(0.976101 0.0746991 0)
(0.0106053 -0.590753 0)
(0.0403099 -0.640133 0)
(0.0749962 -0.689276 0)
(0.135526 -0.754844 0)
(0.231313 -0.824686 0)
(0.25894 -0.783019 0)
(0.230408 -0.77411 0)
(0.0101004 -0.337925 0)
(-0.0802285 -0.445003 0)
(0.109744 -0.487898 0)
(0.377701 -0.565547 0)
(0.554294 -0.557248 0)
(0.573742 -0.530575 0)
(0.6073 -0.472992 0)
(0.658718 -0.399123 0)
(0.49284 -0.217686 0)
(0.589392 0.0887368 0)
(1.02139 0.136025 0)
(0.986018 0.315958 0)
(0.751343 0.332672 0)
(0.716432 0.157653 0)
(0.95303 -0.0721653 0)
(1.08808 -0.0772916 0)
(-0.0115165 -0.603722 0)
(0.00034288 -0.69503 0)
(0.107713 -0.729654 0)
(0.140407 -0.735748 0)
(0.205374 -0.863954 0)
(0.304458 -0.80771 0)
(0.284674 -0.639189 0)
(0.207776 -0.321717 0)
(0.269599 -0.509651 0)
(0.364132 -0.655065 0)
(0.490078 -0.692106 0)
(0.593611 -0.579483 0)
(0.645485 -0.54983 0)
(0.664601 -0.518897 0)
(0.729495 -0.41322 0)
(0.686733 -0.0945664 0)
(0.862816 0.156552 0)
(0.621423 -0.117082 0)
(0.559954 0.0149138 0)
(0.620483 0.20022 0)
(0.794425 -0.0323799 0)
(0.845219 -0.104415 0)
(0.781829 -0.071247 0)
(-0.0785079 -0.576898 0)
(0.0418751 -0.884303 0)
(0.1246 -0.737897 0)
(0.0581163 -0.855492 0)
(0.190676 -0.947287 0)
(0.382898 -0.733307 0)
(0.381548 -0.659856 0)
(0.404985 -0.492001 0)
(0.474224 -0.710777 0)
(0.465568 -0.818789 0)
(0.49917 -0.799872 0)
(0.520117 -0.659252 0)
(0.581077 -0.602017 0)
(0.614995 -0.518269 0)
(0.681951 -0.299457 0)
(0.862792 0.241088 0)
(0.689406 0.238031 0)
(0.222757 -0.154439 0)
(0.163513 0.145012 0)
(0.258191 0.19519 0)
(0.317929 -0.0306282 0)
(0.468596 -0.18007 0)
(0.493979 -0.0579268 0)
(0.00873894 -0.546684 0)
(0.110676 -0.993488 0)
(0.0958873 -0.727211 0)
(0.034721 -0.895157 0)
(0.321919 -0.882652 0)
(0.402072 -0.732848 0)
(0.199819 -0.602824 0)
(0.364377 -0.557682 0)
(0.564471 -0.754699 0)
(0.580014 -0.807759 0)
(0.537355 -0.796868 0)
(0.519081 -0.711062 0)
(0.519711 -0.67304 0)
(0.516587 -0.654617 0)
(0.369723 -0.395078 0)
(0.628263 0.105452 0)
(0.762804 0.198773 0)
(0.32391 0.254541 0)
(0.143563 0.170732 0)
(0.143223 -0.011952 0)
(0.326648 0.069078 0)
(0.316549 -0.105079 0)
(0.226386 -0.271783 0)
(0.108027 -0.739755 0)
(-0.0420422 -0.892607 0)
(0.0479239 -0.67448 0)
(0.0957676 -0.856345 0)
(0.328572 -0.861105 0)
(0.301812 -0.792172 0)
(0.341303 -0.648837 0)
(0.392219 -0.711768 0)
(0.56629 -0.764287 0)
(0.576333 -0.821007 0)
(0.392296 -0.706328 0)
(0.294523 -0.499445 0)
(0.272578 -0.624366 0)
(0.173218 -0.75375 0)
(0.0157255 -0.499565 0)
(0.238401 0.0548583 0)
(0.32683 0.201403 0)
(0.206475 0.345153 0)
(0.160722 0.297554 0)
(0.144202 -0.0179631 0)
(0.141666 -0.143908 0)
(0.0104441 -0.128311 0)
(-0.24401 -0.141087 0)
(0.0399793 -0.820008 0)
(-0.0524802 -0.898944 0)
(0.115883 -0.996302 0)
(0.265894 -1.12451 0)
(0.437693 -1.54333 0)
(0.299102 -0.788619 0)
(0.312401 -0.908909 0)
(0.333908 -0.832637 0)
(0.362732 -0.79828 0)
(0.304778 -0.801062 0)
(0.0594216 -0.489409 0)
(-0.217865 -0.373603 0)
(-0.290927 -0.671957 0)
(-0.494591 -0.789192 0)
(-0.560642 -0.162037 0)
(-0.520765 -0.112296 0)
(-0.0671182 0.157302 0)
(0.12148 0.442345 0)
(0.135665 0.386401 0)
(0.274682 -0.0853368 0)
(0.153297 0.130008 0)
(-0.421067 0.238137 0)
(-0.432913 -0.124116 0)
(-0.0736152 -0.795948 0)
(0.0889017 -0.988582 0)
(0.0960009 -1.33611 0)
(0.227549 -1.45647 0)
(0.21212 -1.79763 0)
(0.0465138 -0.775272 0)
(0.254346 -0.913182 0)
(0.0393027 -0.697979 0)
(0.0372292 -0.668382 0)
(-0.118367 -0.535583 0)
(-0.287925 -0.257889 0)
(-0.221732 -0.238701 0)
(-0.180313 -0.419053 0)
(-0.523462 -0.417045 0)
(-1.10894 -0.616944 0)
(-0.568501 -0.411853 0)
(-0.304704 -0.121878 0)
(-0.176053 0.451772 0)
(0.0372797 0.261476 0)
(0.0871596 -0.0841814 0)
(-0.0755496 0.28516 0)
(-0.275772 0.244116 0)
(-0.174091 0.0132271 0)
(-0.179451 -0.788857 0)
(0.123876 -0.909506 0)
(0.118585 -1.35798 0)
(0.219543 -1.13947 0)
(-0.0160085 -1.36763 0)
(-0.188666 -0.406236 0)
(0.0972308 -0.738261 0)
(-0.0106835 -0.66859 0)
(-8.28906e-05 -0.686346 0)
(-0.0872645 -0.504393 0)
(-0.143018 -0.481712 0)
(-0.403779 -0.347696 0)
(-0.399399 -0.583394 0)
(-0.756028 -0.488254 0)
(-0.793356 -0.421382 0)
(-0.705598 -0.444768 0)
(-0.421436 -0.100573 0)
(-0.253142 0.093464 0)
(-0.097029 -0.00860948 0)
(-0.154982 0.210466 0)
(-0.192177 0.392897 0)
(-0.176654 0.343312 0)
(-0.0107402 -0.0833898 0)
(0.0114406 -0.5761 0)
(-0.138743 -0.67175 0)
(0.0477398 -1.02009 0)
(0.243661 -0.779498 0)
(-0.00287658 -0.754943 0)
(0.145724 -0.897628 0)
(0.0242019 -0.907006 0)
(0.0171536 -0.734312 0)
(-0.0105052 -0.61199 0)
(-0.010959 -0.39412 0)
(-0.200557 -0.28618 0)
(-0.41125 0.0191919 0)
(-0.262889 -0.370453 0)
(-0.208185 -0.175143 0)
(-0.579232 -0.5309 0)
(-0.673775 -0.511284 0)
(-0.455219 -0.148651 0)
(-0.253378 -0.0847355 0)
(-0.272702 0.115421 0)
(-0.262462 0.207745 0)
(-0.219721 0.33312 0)
(-0.0411125 0.271163 0)
(-0.0579651 -0.104598 0)
(-0.220638 -0.220275 0)
(-0.00330108 -0.724594 0)
(0.0463295 -0.92297 0)
(0.122562 -0.788705 0)
(0.0743001 -0.640439 0)
(-0.167779 -1.43235 0)
(-0.00884889 -0.57645 0)
(0.0534288 -0.59124 0)
(-0.175348 -0.643708 0)
(-0.15684 -0.196905 0)
(-0.193752 0.0155041 0)
(-0.283658 -0.117031 0)
(-0.0772819 -0.520038 0)
(-0.295898 -0.202397 0)
(-0.355275 -0.508244 0)
(-0.422203 -0.396565 0)
(-0.476444 -0.138084 0)
(-0.373867 -0.0840357 0)
(-0.361767 -0.0114295 0)
(-0.323971 0.0204734 0)
(-0.184477 0.137248 0)
(-0.0434857 0.0658677 0)
(-0.0530698 -0.0733589 0)
(-0.362826 -0.145886 0)
(-0.0199859 -0.930685 0)
(-0.0623404 -1.04029 0)
(0.117059 -0.792225 0)
(-0.330877 -0.548812 0)
(-0.473341 -1.08922 0)
(-0.115859 -1.10361 0)
(0.00937941 -0.591395 0)
(0.0382482 -0.469365 0)
(0.0982518 -0.310267 0)
(0.256094 -0.526606 0)
(-0.00974947 0.416506 0)
(0.137035 -0.276235 0)
(-0.238399 -0.232516 0)
(-0.341484 -0.326943 0)
(-0.330618 -0.399402 0)
(-0.387733 -0.180717 0)
(-0.369393 -0.0968148 0)
(-0.343635 -0.00504056 0)
(-0.344083 0.0358928 0)
(-0.243753 -0.00281519 0)
(-0.223925 -0.0716329 0)
(-0.210828 -0.0935541 0)
(-0.409998 0.0150321 0)
(0.188682 -1.04245 0)
(-0.263308 -1.01792 0)
(0.0127816 -0.340608 0)
(-0.475969 -0.231549 0)
(-0.59199 -1.14578 0)
(-0.125668 -1.08695 0)
(-0.131932 -1.06976 0)
(-0.181634 -1.19668 0)
(0.000501081 -0.567975 0)
(-0.118537 -0.278734 0)
(-0.0223174 0.0876994 0)
(0.0958552 -0.249667 0)
(-0.255096 -0.0416936 0)
(-0.455298 -0.0830855 0)
(-0.34634 -0.184917 0)
(-0.305147 -0.121625 0)
(-0.335362 -0.101218 0)
(-0.282821 -0.0596591 0)
(-0.341585 -0.0431343 0)
(-0.35297 -0.0268921 0)
(-0.26723 -0.153988 0)
(-0.149761 -0.151866 0)
(0.251875 0.297159 0)
(0.360894 -1.35754 0)
(-0.339676 -1.00976 0)
(-0.350421 -0.331751 0)
(-0.294788 -0.274455 0)
(-0.411325 -0.969255 0)
(-0.314302 -0.926514 0)
(-0.279477 -1.20873 0)
(-0.37711 -1.12212 0)
(-0.317655 -0.773383 0)
(-0.336888 -0.261078 0)
(-0.254126 -0.0381053 0)
(-0.234241 -0.170943 0)
(-0.538005 -0.0594991 0)
(-0.427228 -0.102982 0)
(-0.299917 -0.0844629 0)
(-0.22448 -0.112566 0)
(-0.306377 -0.131033 0)
(-0.316695 -0.170551 0)
(-0.363803 -0.160458 0)
(-0.357115 -0.0379098 0)
(-0.377524 -0.174998 0)
(-0.338344 -0.25589 0)
(0.222856 -0.49977 0)
(0.362699 -1.66552 0)
(-0.288209 -0.664362 0)
(-0.441813 -0.44735 0)
(-0.211238 -0.594225 0)
(-0.224139 -1.0588 0)
(-0.297918 -0.761787 0)
(-0.397993 -0.783603 0)
(-0.396934 -0.883014 0)
(-0.413868 -0.788078 0)
(-0.519708 -0.562898 0)
(-0.39461 -0.242087 0)
(-0.707488 0.0351672 0)
(-0.513715 -0.0863537 0)
(-0.497911 -0.183445 0)
(-0.373176 -0.0587266 0)
(-0.331065 -0.0757647 0)
(-0.395247 -0.128529 0)
(-0.337536 -0.195171 0)
(-0.304729 -0.183419 0)
(-0.371128 -0.148141 0)
(-0.437275 -0.154469 0)
(-0.412968 -0.150503 0)
(0.163528 -1.2374 0)
(0.0406328 -0.584779 0)
(-0.0372882 -0.692524 0)
(-0.097179 -0.51972 0)
(-0.22558 -0.898353 0)
(-0.117395 -0.90391 0)
(-0.233734 -0.646345 0)
(-0.357253 -0.595102 0)
(-0.409069 -0.604962 0)
(-0.480223 -0.566521 0)
(-0.595659 -0.346484 0)
(-0.588338 -0.18711 0)
(-0.640012 -0.178312 0)
(-0.659723 -0.168215 0)
(-0.371208 -0.144668 0)
(-0.283888 -0.0954885 0)
(-0.353752 -0.0825765 0)
(-0.445402 0.0180704 0)
(-0.424912 -0.0572809 0)
(-0.421598 -0.0976784 0)
(-0.333454 -0.163507 0)
(-0.304172 -0.13838 0)
(-0.331408 -0.109759 0)
(-0.115668 -0.98453 0)
(-0.10407 -1.00377 0)
(-0.0771555 -0.381722 0)
(-0.201417 -0.714647 0)
(-0.198853 -0.717186 0)
(-0.0986889 -0.618072 0)
(-0.111815 -0.693769 0)
(-0.402906 -0.549879 0)
(-0.398547 -0.466643 0)
(-0.298752 -0.497989 0)
(-0.406101 -0.451335 0)
(-0.583064 -0.381428 0)
(-0.540394 -0.238355 0)
(-0.374357 -0.151696 0)
(-0.397006 -0.0582721 0)
(-0.33286 -0.140265 0)
(-0.335504 -0.179666 0)
(-0.434226 -0.111255 0)
(-0.463998 -0.0961091 0)
(-0.433577 -0.0854183 0)
(-0.346104 -0.0922186 0)
(-0.284239 -0.138795 0)
(-0.359886 -0.164946 0)
(-0.0139215 -0.867309 0)
(-0.142083 -0.813309 0)
(-0.142838 -0.717303 0)
(-0.108212 -0.678321 0)
(-0.0303321 -0.668118 0)
(-0.130819 -0.519716 0)
(-0.11088 -0.730694 0)
(-0.18379 -0.623406 0)
(-0.405067 -0.435617 0)
(-0.433919 -0.46583 0)
(-0.385309 -0.512495 0)
(-0.45689 -0.515816 0)
(-0.464649 -0.31833 0)
(-0.284592 -0.247923 0)
(-0.300407 -0.122302 0)
(-0.368845 -0.115452 0)
(-0.269275 -0.191933 0)
(-0.395501 -0.245764 0)
(-0.432704 -0.223091 0)
(-0.375604 -0.138058 0)
(-0.370903 -0.115648 0)
(-0.34169 -0.128766 0)
(-0.376648 -0.161684 0)
(-0.0607448 -0.751978 0)
(-0.0625079 -0.783223 0)
(-0.159416 -0.72345 0)
(-0.0598893 -0.568348 0)
(0.114132 -0.717666 0)
(-0.085325 -0.693723 0)
(-0.243299 -0.651267 0)
(-0.155411 -0.71983 0)
(-0.298926 -0.653432 0)
(-0.328794 -0.525298 0)
(-0.295454 -0.464719 0)
(-0.41743 -0.408194 0)
(-0.310161 -0.295866 0)
(-0.190369 -0.260185 0)
(-0.274379 -0.226505 0)
(-0.372819 -0.184595 0)
(-0.366772 -0.184644 0)
(-0.385695 -0.221742 0)
(-0.356222 -0.133264 0)
(-0.334283 -0.111423 0)
(-0.346518 -0.123085 0)
(-0.326424 -0.137279 0)
(-0.328579 -0.163193 0)
(-0.0916521 -0.618688 0)
(-0.0703018 -0.501053 0)
(0.0409659 -0.502391 0)
(-0.0356068 -0.436568 0)
(-0.0736926 -0.471524 0)
(0.00857366 -0.740899 0)
(-0.130656 -0.625304 0)
(-0.135685 -0.607306 0)
(-0.204598 -0.607273 0)
(-0.24073 -0.474671 0)
(-0.252109 -0.43176 0)
(-0.269566 -0.365378 0)
(-0.269422 -0.248934 0)
(-0.200702 -0.261849 0)
(-0.261067 -0.253298 0)
(-0.343426 -0.213714 0)
(-0.332981 -0.200551 0)
(-0.337852 -0.231819 0)
(-0.314001 -0.101069 0)
(-0.35042 -0.155035 0)
(-0.380494 -0.124266 0)
(-0.378583 -0.133776 0)
(-0.384984 -0.12937 0)
(0.0688992 -0.395837 0)
(0.0335282 -0.383985 0)
(-0.0342899 -0.327752 0)
(-0.0738561 -0.390449 0)
(-0.124861 -0.367381 0)
(-0.13965 -0.422971 0)
(-0.0859777 -0.403683 0)
(-0.0619289 -0.564545 0)
(-0.135085 -0.470209 0)
(-0.195435 -0.463519 0)
(-0.205042 -0.469783 0)
(-0.229162 -0.444677 0)
(-0.21603 -0.394338 0)
(-0.162986 -0.354009 0)
(-0.162055 -0.353685 0)
(-0.347714 -0.288883 0)
(-0.396297 -0.217987 0)
(-0.296217 -0.171641 0)
(-0.291118 -0.171818 0)
(-0.351517 -0.191546 0)
(-0.329333 -0.125367 0)
(-0.349852 -0.116822 0)
(-0.351386 -0.0788187 0)
(-0.00309363 -0.298412 0)
(-0.0198978 -0.35231 0)
(-0.0440107 -0.349674 0)
(-0.0478296 -0.337192 0)
(-0.0724598 -0.343458 0)
(-0.103702 -0.305018 0)
(-0.1686 -0.319786 0)
(-0.151376 -0.320419 0)
(-0.133269 -0.346782 0)
(-0.239029 -0.332422 0)
(-0.231235 -0.291803 0)
(-0.179086 -0.290161 0)
(-0.149808 -0.300544 0)
(-0.136783 -0.37083 0)
(-0.194949 -0.334547 0)
(-0.214211 -0.355596 0)
(-0.197549 -0.198689 0)
(-0.288864 -0.168951 0)
(-0.332279 -0.202641 0)
(-0.305981 -0.153858 0)
(-0.328021 -0.124434 0)
(-0.336983 -0.123333 0)
(-0.328646 -0.102907 0)
(0.00258488 -0.328796 0)
(-0.00842954 -0.327153 0)
(-0.0327588 -0.323317 0)
(-0.0453211 -0.312494 0)
(-0.0749988 -0.306992 0)
(-0.0806814 -0.305915 0)
(-0.107528 -0.298199 0)
(-0.120882 -0.255589 0)
(-0.123794 -0.283534 0)
(-0.153323 -0.269706 0)
(-0.162879 -0.217467 0)
(-0.196297 -0.215915 0)
(-0.22581 -0.202581 0)
(-0.181359 -0.231916 0)
(-0.181464 -0.244741 0)
(-0.158008 -0.231116 0)
(-0.169179 -0.233216 0)
(-0.252964 -0.239115 0)
(-0.266821 -0.186662 0)
(-0.283444 -0.194194 0)
(-0.274544 -0.105891 0)
(-0.309968 -0.115773 0)
(-0.29719 -0.0949202 0)
(-0.00434001 -0.295899 0)
(-0.0227666 -0.30781 0)
(-0.0348507 -0.307608 0)
(-0.0458801 -0.300431 0)
(-0.0630972 -0.293265 0)
(-0.0756326 -0.276087 0)
(-0.107249 -0.267813 0)
(-0.116047 -0.26763 0)
(-0.123419 -0.258156 0)
(-0.13721 -0.243031 0)
(-0.136397 -0.207436 0)
(-0.174839 -0.21239 0)
(-0.188036 -0.228907 0)
(-0.169074 -0.217958 0)
(-0.180958 -0.24598 0)
(-0.178479 -0.188378 0)
(-0.173792 -0.254887 0)
(-0.176811 -0.155468 0)
(-0.259242 -0.152212 0)
(-0.233068 -0.132191 0)
(-0.243306 -0.121671 0)
(-0.330838 -0.107658 0)
(-0.328527 -0.0901495 0)
(-0.00126839 -0.29029 0)
(-0.0206169 -0.296902 0)
(-0.0280459 -0.29926 0)
(-0.0312298 -0.294628 0)
(-0.052095 -0.283972 0)
(-0.0573919 -0.27554 0)
(-0.0820693 -0.258714 0)
(-0.0908303 -0.253223 0)
(-0.095674 -0.253115 0)
(-0.0716862 -0.242525 0)
(-0.0910509 -0.228934 0)
(-0.21005 -0.205395 0)
(-0.259676 -0.215171 0)
(-0.181299 -0.199134 0)
(-0.130941 -0.212358 0)
(-0.173353 -0.244344 0)
(-0.122603 -0.191239 0)
(-0.0912587 -0.191919 0)
(-0.225422 -0.184654 0)
(-0.271305 -0.0873144 0)
(-0.251765 -0.173179 0)
(-0.274982 -0.077007 0)
(-0.295713 -0.0870847 0)
(-0.00644914 -0.281594 0)
(-0.0214749 -0.291885 0)
(-0.0297033 -0.281149 0)
(-0.0324612 -0.281021 0)
(-0.0537559 -0.266668 0)
(-0.0543742 -0.225897 0)
(-0.0855827 -0.215422 0)
(-0.0890304 -0.249266 0)
(-0.0970473 -0.26371 0)
(-0.104565 -0.264746 0)
(-0.080805 -0.255977 0)
(-0.144721 -0.256228 0)
(-0.195139 -0.216002 0)
(-0.178002 -0.174763 0)
(-0.196957 -0.212435 0)
(-0.154589 -0.220022 0)
(-0.114159 -0.184378 0)
(-0.140031 -0.209594 0)
(-0.124413 -0.186496 0)
(-0.212355 -0.117075 0)
(-0.233731 -0.0938988 0)
(-0.23486 -0.0921965 0)
(-0.299077 -0.0693275 0)
(-0.00458192 -0.276227 0)
(-0.00955683 -0.286906 0)
(-0.0189442 -0.276898 0)
(-0.0173181 -0.282909 0)
(-0.00472901 -0.272983 0)
(-0.00485655 -0.304545 0)
(-0.132743 -0.274959 0)
(-0.11917 -0.247718 0)
(-0.102661 -0.233895 0)
(-0.0809025 -0.250876 0)
(-0.0951224 -0.223566 0)
(-0.150715 -0.236261 0)
(-0.180059 -0.200563 0)
(-0.201841 -0.192943 0)
(-0.151312 -0.172315 0)
(-0.143445 -0.147311 0)
(-0.119557 -0.160136 0)
(-0.0916831 -0.193434 0)
(-0.114791 -0.133167 0)
(-0.154113 -0.171698 0)
(-0.24966 -0.0770997 0)
(-0.254817 -0.130273 0)
(-0.263822 -0.0603673 0)
(-0.00770796 -0.267148 0)
(-0.00960706 -0.276601 0)
(-0.0249658 -0.273094 0)
(-0.0226046 -0.280768 0)
(-0.0475993 -0.274373 0)
(-0.0460448 -0.356479 0)
(-0.0639691 -0.337795 0)
(-0.0618168 -0.28516 0)
(-0.0745213 -0.345399 0)
(-0.110615 -0.313779 0)
(-0.0879185 -0.320523 0)
(-0.0852031 -0.223695 0)
(-0.142771 -0.18302 0)
(-0.15906 -0.186647 0)
(-0.157387 -0.1472 0)
(-0.134458 -0.185965 0)
(-0.152078 -0.163416 0)
(-0.0949551 -0.158414 0)
(-0.0901823 -0.153884 0)
(-0.151816 -0.157909 0)
(-0.17556 -0.110261 0)
(-0.201777 -0.0737527 0)
(-0.209889 -0.0651505 0)
(-0.00675409 -0.261917 0)
(-0.00234984 -0.270815 0)
(-0.0193865 -0.26409 0)
(-0.00974759 -0.264083 0)
(-0.0400407 -0.265754 0)
(-0.0583941 -0.325356 0)
(-0.106059 -0.282666 0)
(-0.119215 -0.248794 0)
(-0.083127 -0.231707 0)
(-0.0427365 -0.215114 0)
(-0.0448679 -0.234592 0)
(-0.0573879 -0.183327 0)
(-0.124595 -0.171908 0)
(-0.172694 -0.1781 0)
(-0.170534 -0.16306 0)
(-0.155479 -0.144036 0)
(-0.0909759 -0.15763 0)
(-0.0782433 -0.143241 0)
(-0.0964833 -0.193276 0)
(-0.0813587 -0.108675 0)
(-0.146695 -0.117189 0)
(-0.209071 -0.0342527 0)
(-0.235917 -0.0656909 0)
(-0.0063309 -0.26046 0)
(-0.00265065 -0.267276 0)
(-0.0222955 -0.259995 0)
(-0.0263916 -0.257394 0)
(-0.0811606 -0.254598 0)
(-0.036842 -0.239406 0)
(0.0105961 -0.258794 0)
(-0.0558095 -0.181615 0)
(-0.0347291 -0.171908 0)
(-0.0654435 -0.183146 0)
(-0.0556396 -0.204804 0)
(-0.0649046 -0.19478 0)
(-0.128848 -0.206328 0)
(-0.149818 -0.167805 0)
(-0.133331 -0.156336 0)
(-0.13813 -0.120627 0)
(-0.134721 -0.128839 0)
(-0.123578 -0.131138 0)
(-0.0614293 -0.13391 0)
(-0.0688103 -0.123267 0)
(-0.152714 -0.149842 0)
(-0.19822 -0.0687291 0)
(-0.240817 -0.034771 0)
(-0.00665714 -0.259198 0)
(0.00413677 -0.265279 0)
(-0.0177932 -0.255474 0)
(0.00201455 -0.227238 0)
(-0.0363519 -0.188723 0)
(-0.0386263 -0.192493 0)
(0.0133872 -0.220939 0)
(-0.0631035 -0.239391 0)
(-0.0879177 -0.213275 0)
(-0.0872685 -0.215513 0)
(-0.0718108 -0.229297 0)
(-0.0513746 -0.234074 0)
(-0.0909892 -0.209431 0)
(-0.1214 -0.176639 0)
(-0.122106 -0.159386 0)
(-0.147183 -0.139976 0)
(-0.0989924 -0.129373 0)
(-0.0790055 -0.0998413 0)
(-0.0989673 -0.10608 0)
(-0.108427 -0.122588 0)
(-0.10087 -0.100447 0)
(-0.0940692 -0.110197 0)
(-0.183615 -0.0242095 0)
(-0.0039371 -0.258943 0)
(0.00382748 -0.260735 0)
(-0.0109951 -0.264689 0)
(0.0328773 -0.231159 0)
(-0.0301189 -0.282199 0)
(-0.0827607 -0.237689 0)
(-0.0494405 -0.261216 0)
(-0.0420198 -0.266362 0)
(-0.0353334 -0.237613 0)
(-0.0677071 -0.216037 0)
(-0.0659695 -0.253574 0)
(-0.0573325 -0.198682 0)
(-0.0886157 -0.171122 0)
(-0.104754 -0.152264 0)
(-0.105733 -0.151708 0)
(-0.103736 -0.128839 0)
(-0.108509 -0.102617 0)
(-0.101961 -0.125087 0)
(-0.0750565 -0.0961403 0)
(-0.0557316 -0.114493 0)
(-0.0980651 -0.0602455 0)
(-0.0592105 -0.0861453 0)
(-0.150648 -0.0800766 0)
(-0.00121025 -0.257719 0)
(-0.00577572 -0.261854 0)
(-0.00814535 -0.264026 0)
(-0.0072084 -0.229333 0)
(-0.0163904 -0.31229 0)
(-0.0334715 -0.249534 0)
(-0.0299891 -0.250297 0)
(-0.0493703 -0.21788 0)
(-0.0565469 -0.226687 0)
(-0.0794918 -0.170609 0)
(-0.0355332 -0.203716 0)
(0.0380566 -0.201156 0)
(-0.048118 -0.187123 0)
(-0.0987568 -0.175394 0)
(-0.107353 -0.154958 0)
(-0.0882956 -0.137397 0)
(-0.106528 -0.119599 0)
(-0.0670204 -0.109107 0)
(-0.0730286 -0.0754235 0)
(-0.0613566 -0.0745189 0)
(-0.059476 -0.0751701 0)
(-0.0536443 -0.0468955 0)
(-0.0968974 -0.117068 0)
(-0.00454275 -0.254833 0)
(-0.00876513 -0.263098 0)
(-0.00989004 -0.253495 0)
(-0.0049819 -0.224392 0)
(-0.0199584 -0.247471 0)
(-0.0272285 -0.248582 0)
(-0.027657 -0.251676 0)
(-0.0238354 -0.227347 0)
(0.00638304 -0.227085 0)
(-0.0185563 -0.216294 0)
(-0.0749078 -0.177818 0)
(-0.057738 -0.196796 0)
(-0.0596114 -0.211016 0)
(-0.061265 -0.18887 0)
(-0.0661682 -0.157421 0)
(-0.0613319 -0.133276 0)
(-0.081755 -0.114588 0)
(-0.0689456 -0.0820079 0)
(-0.0466196 -0.0909143 0)
(-0.0546171 -0.0523681 0)
(-0.0583695 -0.0579856 0)
(-0.066639 -0.0420315 0)
(-0.0624283 -0.0865874 0)
(-0.0036526 -0.251215 0)
(-0.00776862 -0.259836 0)
(-0.0139942 -0.258778 0)
(-0.0137123 -0.228821 0)
(-0.017688 -0.255633 0)
(-0.0226447 -0.256921 0)
(-0.024314 -0.308614 0)
(-0.0236725 -0.244034 0)
(-0.0411936 -0.235872 0)
(-0.0280377 -0.2714 0)
(-0.0245524 -0.214738 0)
(-0.0316191 -0.204958 0)
(-0.0347159 -0.185967 0)
(-0.0498537 -0.174299 0)
(-0.0548998 -0.150682 0)
(-0.0559346 -0.127035 0)
(-0.0567105 -0.108628 0)
(-0.0578941 -0.0713345 0)
(-0.0394767 -0.0836003 0)
(-0.0243282 -0.0582842 0)
(-0.0407504 -0.0628522 0)
(-0.0716639 -0.034438 0)
(-0.015965 -0.0439603 0)
(-0.00726976 -0.253675 0)
(-0.0216857 -0.25685 0)