/*--------------------------------*- C++ -*----------------------------------*\
| =========                 |                                                 |
| \\      /  F ield         | foam-extend: Open Source CFD                    |
|  \\    /   O peration     | Version:     4.1                                |
|   \\  /    A nd           | Web:         http://www.foam-extend.org         |
|    \\/     M anipulation  |                                                 |
\*---------------------------------------------------------------------------*/
FoamFile
{
    version     2.0;
    format      ascii;
    class       volVectorField;
    location    "0.3";
    object      U_0;
}
// * * * * * * * * * * * * * * * * * * * * * * * * * * * * * * * * * * * * * //

dimensions      [0 1 -1 0 0 0 0];

internalField   nonuniform List<vector> 
2268
(
(-0.00787117 -0.0127487 0)
(0.0709587 -0.0088431 0)
(0.107853 -0.0109347 0)
(0.232815 -0.0140353 0)
(0.305254 -0.0112405 0)
(0.445978 -0.0174428 0)
(0.524803 -0.00140216 0)
(0.580883 -0.013439 0)
(0.79987 -0.00937643 0)
(0.741025 -0.0529258 0)
(0.631817 0.00332584 0)
(0.655418 -0.0123674 0)
(0.709053 -0.0180493 0)
(0.726816 -0.00546753 0)
(0.881318 0.116166 0)
(1.00384 -0.0283532 0)
(1.06978 -0.0194072 0)
(1.02555 0.0536231 0)
(1.09386 0.0241533 0)
(0.985915 -0.104829 0)
(0.821968 -0.0363395 0)
(0.775469 0.215898 0)
(-0.822249 -0.414018 0)
(-0.00530464 -0.0163879 0)
(0.0723715 -0.0189261 0)
(0.10852 -0.0263782 0)
(0.230271 -0.0346282 0)
(0.305324 -0.0373456 0)
(0.452568 -0.039848 0)
(0.522302 -0.0553957 0)
(0.585216 -0.0629725 0)
(0.810728 -0.0420683 0)
(0.739634 -0.170078 0)
(0.638473 -0.0158724 0)
(0.654962 -0.02562 0)
(0.679947 -0.062201 0)
(0.752952 -0.0739768 0)
(0.85093 0.0973643 0)
(0.902231 0.0259922 0)
(1.10718 -0.0229889 0)
(0.971589 -0.0770656 0)
(0.979095 -0.0479316 0)
(0.845747 -0.135879 0)
(0.670753 0.0497086 0)
(0.755353 0.475708 0)
(0.734866 0.375249 0)
(-0.00612594 -0.0450272 0)
(0.0705184 -0.036209 0)
(0.10622 -0.0477596 0)
(0.224086 -0.0622766 0)
(0.300741 -0.0629013 0)
(0.436061 -0.0676938 0)
(0.528297 -0.0477953 0)
(0.608471 -0.102484 0)
(0.755183 -0.0608223 0)
(0.734343 -0.197853 0)
(0.628879 -0.0521358 0)
(0.58788 -0.034679 0)
(0.634079 -0.101165 0)
(0.6571 0.0096323 0)
(0.834693 0.132324 0)
(0.93956 0.18451 0)
(1.012 0.00921271 0)
(0.798824 -0.209081 0)
(0.442085 0.0310828 0)
(0.197784 -0.0303011 0)
(0.233323 0.0132018 0)
(0.572697 0.441601 0)
(0.665209 0.39081 0)
(0.000511604 -0.0426576 0)
(0.0788229 -0.0459915 0)
(0.10778 -0.0612757 0)
(0.211926 -0.0826085 0)
(0.295809 -0.085574 0)
(0.470046 -0.104112 0)
(0.546654 -0.0429831 0)
(0.609506 -0.118736 0)
(0.703237 -0.0788507 0)
(0.684521 -0.160516 0)
(0.611892 -0.175621 0)
(0.561244 -0.135119 0)
(0.594753 0.0378617 0)
(0.690986 0.0586303 0)
(0.673672 0.116945 0)
(0.766126 0.138171 0)
(0.761978 0.0251138 0)
(0.619903 0.0184099 0)
(0.329705 0.00190949 0)
(0.2687 -0.0492396 0)
(0.328234 -0.0639344 0)
(0.492299 0.40087 0)
(0.540531 0.538168 0)
(-0.00386443 -0.089076 0)
(0.0727596 -0.0633858 0)
(0.0980581 -0.0791394 0)
(0.202303 -0.107984 0)
(0.28643 -0.124209 0)
(0.488796 -0.128345 0)
(0.499258 -0.0906669 0)
(0.569249 -0.160371 0)
(0.65244 -0.0581998 0)
(0.635731 -0.153658 0)
(0.601225 -0.218271 0)
(0.609518 -0.155009 0)
(0.676021 0.00128131 0)
(0.719692 -0.155146 0)
(0.727796 0.0531523 0)
(0.762534 0.0825245 0)
(0.791046 0.0548248 0)
(0.80797 0.115325 0)
(0.850288 0.0396519 0)
(0.79989 0.00386298 0)
(0.5684 0.0630127 0)
(0.483696 0.428595 0)
(0.582175 0.643339 0)
(0.0109988 -0.0633052 0)
(0.0838422 -0.0703987 0)
(0.0950773 -0.0903728 0)
(0.188046 -0.129199 0)
(0.277664 -0.155477 0)
(0.464745 -0.16064 0)
(0.464677 -0.174954 0)
(0.557072 -0.199207 0)
(0.634724 -0.122807 0)
(0.574897 -0.169219 0)
(0.614902 -0.236186 0)
(0.623017 -0.0872371 0)
(0.626851 -0.164128 0)
(0.74531 -0.169278 0)
(0.990216 -0.0512205 0)
(0.901373 0.136032 0)
(0.889343 0.0926041 0)
(0.921865 0.0953316 0)
(0.987316 0.024949 0)
(0.978744 0.077221 0)
(0.692072 0.139476 0)
(0.495295 0.557275 0)
(0.520767 0.790367 0)
(-0.0033708 -0.0456188 0)
(0.0703384 -0.0864594 0)
(0.0766712 -0.104858 0)
(0.17778 -0.156953 0)
(0.274469 -0.186319 0)
(0.425933 -0.179577 0)
(0.436797 -0.165983 0)
(0.589024 -0.145243 0)
(0.633464 -0.235415 0)
(0.558762 -0.197568 0)
(0.617948 -0.174931 0)
(0.699017 -0.175885 0)
(0.681026 -0.0294899 0)
(0.827804 -0.00274662 0)
(1.02507 -0.199821 0)
(0.951317 -0.0422092 0)
(0.76838 0.0513334 0)
(0.811627 0.0327929 0)
(0.947987 -0.0309747 0)
(0.986992 0.125355 0)
(0.753661 0.223884 0)
(0.45437 0.696133 0)
(0.52606 0.937753 0)
(-0.00767655 -0.0751061 0)
(0.0642188 -0.0833741 0)
(0.0697378 -0.112953 0)
(0.175743 -0.165434 0)
(0.273242 -0.217326 0)
(0.410035 -0.198224 0)
(0.450596 -0.261946 0)
(0.513233 -0.18172 0)
(0.602507 -0.24226 0)
(0.598656 -0.201393 0)
(0.652857 -0.120518 0)
(0.746247 -0.17556 0)
(0.741549 -0.0651538 0)
(0.767739 -0.148344 0)
(0.926948 -0.0932592 0)
(0.916924 0.00733682 0)
(0.624082 -0.00692148 0)
(0.562749 -0.0119688 0)
(0.696013 -0.00884198 0)
(0.858788 0.186134 0)
(0.632605 0.286472 0)
(0.484195 0.736313 0)
(0.442671 1.32442 0)
(-0.0865629 0.0634974 0)
(-0.270514 0.0984468 0)
(-0.470722 0.145588 0)
(-0.925909 0.160855 0)
(-1.4102 0.308538 0)
(-2.29083 0.206859 0)
(-2.96258 -0.00826956 0)
(-3.19593 -0.0222032 0)
(-3.26575 0.249908 0)
(-2.81952 -0.0740075 0)
(-1.38678 -0.579551 0)
(-1.1737 -0.0808457 0)
(-0.424101 -0.150525 0)
(0.648031 -0.0911746 0)
(1.19791 -0.0352376 0)
(1.28781 0.00599025 0)
(1.11923 0.0357925 0)
(0.711377 0.0522818 0)
(0.241719 0.0551343 0)
(-0.0622042 0.246489 0)
(-0.230929 0.254303 0)
(-0.51517 0.321306 0)
(-0.881492 0.285686 0)
(-1.15122 0.53754 0)
(-1.5599 0.229324 0)
(-1.39279 -0.15834 0)
(-1.38068 -0.142878 0)
(-1.11081 0.0824892 0)
(0.106847 -0.453898 0)
(0.41668 -0.597363 0)
(-0.174841 -0.360337 0)
(0.00190282 -0.283319 0)
(0.704789 -0.258059 0)
(1.28592 -0.0894108 0)
(1.36414 0.0260736 0)
(1.19405 0.112125 0)
(0.753862 0.162228 0)
(0.255244 0.170956 0)
(-0.0877646 0.343092 0)
(-0.286202 0.472023 0)
(-0.521282 0.543475 0)
(-0.602208 0.551026 0)
(-0.54602 0.681033 0)
(-0.386119 0.203773 0)
(0.647577 -0.554513 0)
(0.419829 -0.14999 0)
(0.437454 0.156322 0)
(0.792892 -0.718577 0)
(0.942329 -0.739215 0)
(0.61864 -0.377605 0)
(0.647741 -0.375982 0)
(0.843904 -0.337483 0)
(1.34333 -0.154208 0)
(1.44732 0.0334865 0)
(1.25921 0.190542 0)
(0.770625 0.277067 0)
(0.259845 0.290555 0)
(-0.045247 0.572225 0)
(-0.296476 0.595929 0)
(-0.411254 0.630655 0)
(-0.385803 0.637441 0)
(-0.0638642 0.42914 0)
(0.268351 -0.0642649 0)
(1.24026 -0.456879 0)
(0.582393 -0.166934 0)
(0.790996 0.142101 0)
(0.982488 -0.70069 0)
(1.18683 -0.735545 0)
(0.921666 -0.521171 0)
(1.00698 -0.41597 0)
(1.18182 -0.323835 0)
(1.42193 -0.189554 0)
(1.53903 0.0565362 0)
(1.31571 0.290186 0)
(0.783354 0.400834 0)
(0.262434 0.413231 0)
(-0.0888299 0.655242 0)
(-0.174066 0.774697 0)
(-0.270607 0.65555 0)
(-0.316768 0.51155 0)
(-0.0434068 0.0929913 0)
(0.67542 -0.485304 0)
(1.02247 -0.575948 0)
(0.0365662 -0.0900973 0)
(0.694436 0.125001 0)
(1.0984 -0.555293 0)
(1.32365 -0.513527 0)
(1.12313 -0.429041 0)
(1.19176 -0.401556 0)
(1.30834 -0.356787 0)
(1.49369 -0.220654 0)
(1.65304 0.0760995 0)
(1.38525 0.390328 0)
(0.799511 0.518893 0)
(0.26274 0.531491 0)
(-0.0423842 0.815968 0)
(-0.0609551 0.683772 0)
(-0.176571 0.730832 0)
(-0.10233 0.269349 0)
(0.151297 -0.137574 0)
(0.465914 -0.566603 0)
(0.601074 -0.543552 0)
(-0.467805 0.120341 0)
(0.948342 -0.593419 0)
(1.31401 -0.449364 0)
(1.47546 -0.395835 0)
(1.2236 -0.400461 0)
(1.28319 -0.40297 0)
(1.35701 -0.390431 0)
(1.45649 -0.321192 0)
(1.65183 0.0273554 0)
(1.4618 0.541376 0)
(0.833232 0.669485 0)
(0.267512 0.664593 0)
(-0.0479371 0.682649 0)
(0.111902 0.929415 0)
(0.15153 0.63686 0)
(0.424829 0.352132 0)
(0.36195 -0.139634 0)
(0.487308 -0.438694 0)
(0.436228 -0.402573 0)
(0.271178 -0.0560502 0)
(1.23419 -0.719696 0)
(1.5822 -0.405807 0)
(1.6686 -0.404186 0)
(1.42963 -0.414083 0)
(1.45134 -0.431127 0)
(1.50903 -0.446729 0)
(1.51679 -0.409002 0)
(1.64339 -0.0496525 0)
(1.51036 0.640983 0)
(0.815461 0.785392 0)
(0.255228 0.779971 0)
(0.187174 0.85434 0)
(0.159235 0.456601 0)
(0.0959085 0.345762 0)
(0.707161 0.0816339 0)
(0.620599 -0.142745 0)
(0.671804 -0.374519 0)
(0.427813 -0.333606 0)
(0.75664 -0.15219 0)
(1.34091 -0.751334 0)
(1.70441 -0.538593 0)
(1.72058 -0.366071 0)
(1.50513 -0.420876 0)
(1.49432 -0.444937 0)
(1.50633 -0.48202 0)
(1.4429 -0.421117 0)
(1.55857 -0.0562663 0)
(1.44001 0.797266 0)
(0.853915 0.995338 0)
(0.265587 0.947064 0)
(-0.00532361 -0.0673589 0)
(0.0656819 -0.107367 0)
(0.0698238 -0.140386 0)
(0.172267 -0.247751 0)
(0.260016 -0.29299 0)
(0.34065 -0.266168 0)
(0.43344 -0.350937 0)
(0.524211 -0.294427 0)
(0.714382 -0.323145 0)
(0.754228 -0.253165 0)
(0.781007 -0.189418 0)
(0.764202 -0.0530197 0)
(0.732514 -0.155457 0)
(0.834468 -0.156163 0)
(1.18492 -0.0288283 0)
(1.04581 -0.0452204 0)
(0.679772 -0.0720398 0)
(0.720145 -0.0308797 0)
(0.705539 0.0787678 0)
(0.658972 0.311781 0)
(0.600264 0.573127 0)
(0.749491 0.842223 0)
(1.0111 1.59106 0)
(-0.0436229 -0.141258 0)
(0.0318193 -0.137057 0)
(0.076092 -0.207277 0)
(0.154209 -0.349981 0)
(0.24568 -0.307027 0)
(0.377739 -0.355726 0)
(0.496209 -0.41098 0)
(0.652204 -0.407929 0)
(0.841663 -0.344356 0)
(0.891201 -0.289339 0)
(0.93696 -0.069283 0)
(0.83664 -0.067708 0)
(0.690429 -0.0523188 0)
(0.77558 0.00336243 0)
(0.923494 -0.0535087 0)
(0.869307 -0.129475 0)
(0.792377 -0.0497239 0)
(0.786431 0.00463215 0)
(0.779288 0.0802093 0)
(0.725427 0.268632 0)
(0.853053 0.536198 0)
(0.985571 0.730082 0)
(1.21788 1.32239 0)
(0.0584195 -0.241892 0)
(0.0525441 -0.238386 0)
(0.0379713 -0.258693 0)
(0.172061 -0.364612 0)
(0.278784 -0.293075 0)
(0.299271 -0.410488 0)
(0.473471 -0.498797 0)
(0.633552 -0.506039 0)
(0.72234 -0.424426 0)
(0.88326 -0.2965 0)
(0.821088 -0.212536 0)
(0.627921 -0.345146 0)
(0.672878 -0.239184 0)
(0.792056 -0.262498 0)
(0.922786 -0.161386 0)
(0.862663 -0.0122434 0)
(0.788931 -0.0311093 0)
(0.77125 -0.0135659 0)
(0.69186 0.113227 0)
(0.797518 0.277368 0)
(0.937241 0.699794 0)
(1.431 0.728815 0)
(1.64602 0.946133 0)
(0.0185922 -0.36797 0)
(0.118706 -0.361557 0)
(0.16085 -0.38759 0)
(0.16533 -0.390504 0)
(0.182626 -0.309463 0)
(0.269879 -0.414957 0)
(0.446408 -0.531055 0)
(0.376813 -0.572517 0)
(0.47759 -0.464712 0)
(0.394166 -0.505929 0)
(0.246878 -0.409199 0)
(0.282779 -0.395477 0)
(0.436842 -0.29701 0)
(0.733588 -0.42737 0)
(1.23641 -0.107816 0)
(1.10995 -0.00277044 0)
(0.688571 0.0901839 0)
(0.561847 0.119939 0)
(0.565399 0.319909 0)
(0.826311 0.426908 0)
(1.1294 0.773795 0)
(1.55792 0.706399 0)
(1.54895 0.420514 0)
(0.0372527 -0.52045 0)
(0.0795102 -0.549222 0)
(0.180368 -0.603761 0)
(0.22668 -0.656116 0)
(0.232959 -0.684728 0)
(0.319349 -0.685709 0)
(0.235723 -0.739813 0)
(-0.0335928 -0.522328 0)
(-0.129404 -0.433629 0)
(-0.0823274 -0.412238 0)
(-0.14476 -0.0165816 0)
(0.248037 -0.465207 0)
(0.318265 -0.415395 0)
(0.543427 -0.546105 0)
(0.682288 -0.391208 0)
(0.550991 -0.284927 0)
(0.791703 0.185666 0)
(0.784464 0.173318 0)
(0.738294 0.284216 0)
(0.759385 0.405504 0)
(0.795081 0.389619 0)
(0.933706 0.361891 0)
(0.994702 0.0674961 0)
(0.0116529 -0.592581 0)
(0.0409689 -0.639022 0)
(0.073865 -0.68888 0)
(0.135584 -0.752508 0)
(0.22991 -0.8213 0)
(0.257122 -0.782776 0)
(0.229457 -0.779915 0)
(0.0107286 -0.347848 0)
(-0.0810626 -0.43969 0)
(0.0980234 -0.463052 0)
(0.364798 -0.54884 0)
(0.546546 -0.562347 0)
(0.560246 -0.543643 0)
(0.596063 -0.485448 0)
(0.640592 -0.402478 0)
(0.474602 -0.217011 0)
(0.573355 0.0746646 0)
(1.01591 0.128375 0)
(0.960552 0.325322 0)
(0.742049 0.330213 0)
(0.728913 0.143658 0)
(0.982797 -0.0902249 0)
(1.11831 -0.0866149 0)
(-0.0073247 -0.608962 0)
(0.0011603 -0.691395 0)
(0.105834 -0.729612 0)
(0.140202 -0.732933 0)
(0.201274 -0.858067 0)
(0.2963 -0.806636 0)
(0.275198 -0.639393 0)
(0.189783 -0.321798 0)
(0.25175 -0.506339 0)
(0.355713 -0.64139 0)
(0.496757 -0.682937 0)
(0.60974 -0.583165 0)
(0.653544 -0.565423 0)
(0.657878 -0.531359 0)
(0.713531 -0.418233 0)
(0.660624 -0.0917832 0)
(0.847191 0.138447 0)
(0.608798 -0.12911 0)
(0.551514 0.0330641 0)
(0.617464 0.15595 0)
(0.797464 -0.073931 0)
(0.830569 -0.0948436 0)
(0.75497 -0.0356348 0)
(-0.0795511 -0.583974 0)
(0.039675 -0.865799 0)
(0.12807 -0.7348 0)
(0.0616933 -0.85386 0)
(0.18679 -0.939295 0)
(0.376373 -0.72933 0)
(0.376307 -0.652293 0)
(0.392575 -0.483308 0)
(0.460747 -0.715693 0)
(0.45642 -0.813035 0)
(0.491063 -0.787649 0)
(0.52404 -0.652142 0)
(0.59013 -0.601113 0)
(0.620192 -0.519932 0)
(0.671575 -0.293166 0)
(0.823077 0.228706 0)
(0.644642 0.2086 0)
(0.204967 -0.173131 0)
(0.164748 0.147739 0)
(0.26028 0.16252 0)
(0.315493 -0.0463768 0)
(0.459914 -0.171116 0)
(0.485683 -0.0343034 0)
(0.000729825 -0.551194 0)
(0.120689 -0.998528 0)
(0.100286 -0.726983 0)
(0.0362676 -0.891878 0)
(0.320441 -0.872709 0)
(0.401086 -0.727213 0)
(0.192507 -0.59283 0)
(0.359454 -0.551995 0)
(0.566795 -0.756975 0)
(0.5851 -0.803992 0)
(0.535397 -0.794884 0)
(0.523503 -0.71309 0)
(0.539954 -0.672591 0)
(0.531232 -0.647509 0)
(0.381293 -0.380718 0)
(0.645349 0.121175 0)
(0.761966 0.190362 0)
(0.292862 0.240363 0)
(0.146367 0.146789 0)
(0.148237 -0.0563931 0)
(0.323477 0.0551817 0)
(0.312983 -0.108677 0)
(0.246338 -0.243901 0)
(0.108893 -0.744523 0)
(-0.0191735 -0.892959 0)
(0.0577938 -0.670139 0)
(0.0993814 -0.848405 0)
(0.325762 -0.850042 0)
(0.296892 -0.783626 0)
(0.334203 -0.632001 0)
(0.388938 -0.710014 0)
(0.577586 -0.763829 0)
(0.590999 -0.81661 0)
(0.391884 -0.702572 0)
(0.312299 -0.507757 0)
(0.303168 -0.615266 0)
(0.222089 -0.728775 0)
(0.0388664 -0.484944 0)
(0.263794 0.0595893 0)
(0.339236 0.203235 0)
(0.220197 0.332184 0)
(0.174968 0.270223 0)
(0.146408 -0.0467757 0)
(0.132742 -0.158485 0)
(-0.00415924 -0.1328 0)
(-0.262039 -0.1015 0)
(0.0423516 -0.842772 0)
(-0.0495315 -0.907587 0)
(0.123824 -0.965383 0)
(0.264346 -1.10203 0)
(0.441801 -1.51476 0)
(0.294479 -0.782383 0)
(0.313311 -0.904471 0)
(0.355254 -0.843256 0)
(0.404009 -0.801698 0)
(0.342145 -0.805527 0)
(0.0814975 -0.498441 0)
(-0.192741 -0.375823 0)
(-0.28567 -0.681963 0)
(-0.463807 -0.777649 0)
(-0.574402 -0.153177 0)
(-0.474646 -0.0761328 0)
(-0.0424705 0.155378 0)
(0.13918 0.427323 0)
(0.149437 0.366941 0)
(0.279001 -0.104976 0)
(0.143501 0.121273 0)
(-0.429272 0.242027 0)
(-0.443386 -0.108755 0)
(-0.0791956 -0.814973 0)
(0.0717917 -0.994162 0)
(0.0887405 -1.31192 0)
(0.226308 -1.44264 0)
(0.237824 -1.77734 0)
(0.0874971 -0.791966 0)
(0.272275 -0.947252 0)
(0.0483111 -0.724331 0)
(0.0457488 -0.666393 0)
(-0.112329 -0.528055 0)
(-0.302616 -0.258093 0)
(-0.238577 -0.229883 0)
(-0.172689 -0.417105 0)
(-0.512551 -0.405966 0)
(-1.11165 -0.579331 0)
(-0.561837 -0.407072 0)
(-0.289168 -0.13193 0)
(-0.166257 0.445527 0)
(0.0401522 0.250638 0)
(0.0884447 -0.0920227 0)
(-0.079309 0.283463 0)
(-0.280452 0.249337 0)
(-0.176938 0.0183776 0)
(-0.181173 -0.787923 0)
(0.121407 -0.917554 0)
(0.119455 -1.35646 0)
(0.223461 -1.14951 0)
(-0.0161582 -1.42112 0)
(-0.184619 -0.40656 0)
(0.107033 -0.732128 0)
(-0.00785299 -0.675572 0)
(-0.00918443 -0.677429 0)
(-0.092259 -0.504027 0)
(-0.138062 -0.481305 0)
(-0.409644 -0.347564 0)
(-0.401545 -0.58532 0)
(-0.769848 -0.499272 0)
(-0.794961 -0.411979 0)
(-0.705137 -0.436986 0)
(-0.416469 -0.105972 0)
(-0.250645 0.0925216 0)
(-0.0954982 -0.0147761 0)
(-0.15668 0.20252 0)
(-0.194361 0.39038 0)
(-0.175896 0.347033 0)
(-0.00667384 -0.0791631 0)
(0.00982199 -0.585997 0)
(-0.127662 -0.679648 0)
(0.0496087 -1.00997 0)
(0.241778 -0.76677 0)
(-0.0314539 -0.746283 0)
(0.128421 -0.863566 0)
(0.0282189 -0.919059 0)
(0.0132079 -0.748807 0)
(-0.0244622 -0.613273 0)
(-0.01019 -0.401129 0)
(-0.193311 -0.291973 0)
(-0.417973 0.030104 0)
(-0.266082 -0.357599 0)
(-0.21615 -0.181832 0)
(-0.576665 -0.524318 0)
(-0.671128 -0.509417 0)
(-0.450842 -0.150682 0)
(-0.250981 -0.0860046 0)
(-0.272731 0.109662 0)
(-0.264419 0.203516 0)
(-0.219901 0.330995 0)
(-0.04037 0.273042 0)
(-0.0557196 -0.102643 0)
(-0.202549 -0.255303 0)
(0.00765255 -0.729971 0)
(0.0527081 -0.90924 0)
(0.117211 -0.775291 0)
(0.0728881 -0.629435 0)
(-0.141425 -1.47024 0)
(-0.00572841 -0.573695 0)
(0.0446704 -0.597848 0)
(-0.192946 -0.644294 0)
(-0.15506 -0.196047 0)
(-0.206097 0.0381087 0)
(-0.296208 -0.102587 0)
(-0.0715121 -0.517578 0)
(-0.295425 -0.212305 0)
(-0.344903 -0.497709 0)
(-0.419314 -0.395583 0)
(-0.473722 -0.138015 0)
(-0.372117 -0.0826833 0)
(-0.359424 -0.0140341 0)
(-0.324693 0.0175942 0)
(-0.184541 0.132822 0)
(-0.045754 0.0656116 0)
(-0.0531911 -0.0719728 0)
(-0.35684 -0.173238 0)
(-0.0178018 -0.933999 0)
(-0.0450856 -1.01796 0)
(0.108308 -0.783765 0)
(-0.302909 -0.595465 0)
(-0.469342 -1.1021 0)
(-0.107601 -1.09631 0)
(0.000366229 -0.592377 0)
(0.0337008 -0.484171 0)
(0.0873793 -0.326775 0)
(0.254799 -0.524319 0)
(-0.0114347 0.426789 0)
(0.147236 -0.275474 0)
(-0.237863 -0.241881 0)
(-0.338467 -0.3193 0)
(-0.328613 -0.397188 0)
(-0.386215 -0.181362 0)
(-0.369197 -0.0972534 0)
(-0.34211 -0.00597306 0)
(-0.3439 0.0348704 0)
(-0.24536 -0.00431815 0)
(-0.226027 -0.0728462 0)
(-0.211851 -0.0948572 0)
(-0.392088 -0.0403869 0)
(0.148196 -1.0481 0)
(-0.243832 -0.988674 0)
(0.0333704 -0.344092 0)
(-0.465367 -0.21741 0)
(-0.610258 -1.14969 0)
(-0.129821 -1.09107 0)
(-0.124287 -1.0556 0)
(-0.176699 -1.18187 0)
(-0.00357797 -0.549994 0)
(-0.118172 -0.275976 0)
(-0.0246739 0.0760616 0)
(0.0957324 -0.250655 0)
(-0.258053 -0.0404134 0)
(-0.461306 -0.0809144 0)
(-0.346081 -0.183073 0)
(-0.305658 -0.120445 0)
(-0.33517 -0.100564 0)
(-0.283654 -0.0606389 0)
(-0.341566 -0.0434369 0)
(-0.352146 -0.027575 0)
(-0.269081 -0.155102 0)
(-0.151155 -0.153393 0)
(0.268429 0.291344 0)
(0.333082 -1.36011 0)
(-0.340423 -1.01075 0)
(-0.339172 -0.320087 0)
(-0.305364 -0.265902 0)
(-0.430697 -0.96956 0)
(-0.319285 -0.929483 0)
(-0.28332 -1.20851 0)
(-0.371032 -1.12985 0)
(-0.321299 -0.781532 0)
(-0.335084 -0.258803 0)
(-0.25082 -0.0325864 0)
(-0.239012 -0.16878 0)
(-0.537583 -0.0653346 0)
(-0.433219 -0.100243 0)
(-0.300457 -0.0843871 0)
(-0.225207 -0.111949 0)
(-0.306534 -0.131355 0)
(-0.316429 -0.171808 0)
(-0.362385 -0.162174 0)
(-0.357808 -0.0398667 0)
(-0.378601 -0.175575 0)
(-0.339664 -0.258005 0)
(0.223715 -0.51338 0)
(0.352388 -1.65378 0)
(-0.299146 -0.664679 0)
(-0.45632 -0.439855 0)
(-0.225458 -0.565944 0)
(-0.220804 -1.06223 0)
(-0.298618 -0.763924 0)
(-0.398196 -0.783274 0)
(-0.402109 -0.879449 0)
(-0.418501 -0.788363 0)
(-0.528872 -0.564541 0)
(-0.402923 -0.243078 0)
(-0.703754 0.0327047 0)
(-0.518335 -0.0905308 0)
(-0.499718 -0.18403 0)
(-0.374514 -0.059007 0)
(-0.331415 -0.0765677 0)
(-0.39479 -0.129208 0)
(-0.337645 -0.196626 0)
(-0.305671 -0.185492 0)
(-0.371601 -0.149073 0)
(-0.438981 -0.154849 0)
(-0.415124 -0.1509 0)
(0.159523 -1.26702 0)
(0.0371469 -0.566892 0)
(-0.0326557 -0.674955 0)
(-0.0924504 -0.518703 0)
(-0.225612 -0.896801 0)
(-0.107696 -0.907808 0)
(-0.234678 -0.647576 0)
(-0.355316 -0.594726 0)
(-0.405536 -0.603459 0)
(-0.477624 -0.562157 0)
(-0.592972 -0.346834 0)
(-0.589602 -0.187616 0)
(-0.638744 -0.180978 0)
(-0.658753 -0.168489 0)
(-0.371921 -0.145582 0)
(-0.284004 -0.0957468 0)
(-0.353638 -0.0835652 0)
(-0.445083 0.0180897 0)
(-0.425541 -0.0578336 0)
(-0.422864 -0.0980246 0)
(-0.335557 -0.163285 0)
(-0.306002 -0.138098 0)
(-0.334134 -0.110047 0)
(-0.123949 -0.992838 0)
(-0.102497 -1.0027 0)
(-0.0755069 -0.371711 0)
(-0.204418 -0.712972 0)
(-0.196237 -0.71322 0)
(-0.0983684 -0.61855 0)
(-0.111548 -0.694913 0)
(-0.40226 -0.548312 0)
(-0.398723 -0.465517 0)
(-0.298512 -0.496846 0)
(-0.405032 -0.450837 0)
(-0.582289 -0.381726 0)
(-0.540705 -0.237559 0)
(-0.374909 -0.15159 0)
(-0.397155 -0.057678 0)
(-0.333017 -0.140454 0)
(-0.336087 -0.17997 0)
(-0.435354 -0.11159 0)
(-0.464754 -0.0959593 0)
(-0.435372 -0.085664 0)
(-0.347557 -0.0922221 0)
(-0.285506 -0.138706 0)
(-0.36119 -0.165053 0)
(-0.0154185 -0.873708 0)
(-0.144347 -0.814827 0)
(-0.144927 -0.719126 0)
(-0.110737 -0.676073 0)
(-0.030265 -0.667933 0)
(-0.132019 -0.520154 0)
(-0.110047 -0.730397 0)
(-0.182849 -0.622749 0)
(-0.405829 -0.434941 0)
(-0.434175 -0.464891 0)
(-0.385046 -0.511276 0)
(-0.456299 -0.515325 0)
(-0.46399 -0.319053 0)
(-0.284622 -0.24822 0)
(-0.300373 -0.122445 0)
(-0.368967 -0.115514 0)
(-0.269102 -0.192135 0)
(-0.396355 -0.246222 0)
(-0.4334 -0.223602 0)
(-0.37627 -0.13796 0)
(-0.372035 -0.115308 0)
(-0.342942 -0.128369 0)
(-0.377698 -0.16124 0)
(-0.0610418 -0.753934 0)
(-0.0645274 -0.783374 0)
(-0.160966 -0.722996 0)
(-0.0606788 -0.567136 0)
(0.113682 -0.717508 0)
(-0.0859618 -0.693302 0)
(-0.242934 -0.649726 0)
(-0.155492 -0.720038 0)
(-0.298798 -0.653111 0)
(-0.328892 -0.524788 0)
(-0.295569 -0.464478 0)
(-0.417097 -0.407791 0)
(-0.309884 -0.295902 0)
(-0.190638 -0.260303 0)
(-0.273815 -0.22635 0)
(-0.372839 -0.184733 0)
(-0.367009 -0.184575 0)
(-0.385872 -0.221862 0)
(-0.356988 -0.13319 0)
(-0.335402 -0.111509 0)
(-0.34752 -0.123015 0)
(-0.327485 -0.137224 0)
(-0.329686 -0.16312 0)
(-0.092519 -0.617969 0)
(-0.0703894 -0.501054 0)
(0.0400643 -0.503006 0)
(-0.0357706 -0.43646 0)
(-0.0742576 -0.471701 0)
(0.00795927 -0.740131 0)
(-0.130541 -0.624991 0)
(-0.135593 -0.607431 0)
(-0.204383 -0.607032 0)
(-0.240587 -0.474215 0)
(-0.252106 -0.431128 0)
(-0.269294 -0.365365 0)
(-0.269269 -0.249016 0)
(-0.20048 -0.261907 0)
(-0.261066 -0.253524 0)
(-0.343326 -0.213789 0)
(-0.332927 -0.200461 0)
(-0.338295 -0.231626 0)
(-0.314708 -0.100854 0)
(-0.351274 -0.154713 0)
(-0.381286 -0.123881 0)
(-0.379357 -0.133335 0)
(-0.386011 -0.128555 0)
(0.0689745 -0.396703 0)
(0.0334437 -0.384416 0)
(-0.0346052 -0.327741 0)
(-0.0741227 -0.390241 0)
(-0.125205 -0.367473 0)
(-0.139899 -0.42262 0)
(-0.0860017 -0.403629 0)
(-0.0624984 -0.564571 0)
(-0.134911 -0.469787 0)
(-0.195522 -0.463066 0)
(-0.204924 -0.469229 0)
(-0.228939 -0.444359 0)
(-0.215981 -0.394446 0)
(-0.162936 -0.354068 0)
(-0.161877 -0.353596 0)
(-0.347892 -0.288439 0)
(-0.396439 -0.21767 0)
(-0.296836 -0.171416 0)
(-0.291949 -0.171581 0)
(-0.352027 -0.19142 0)
(-0.329962 -0.125295 0)
(-0.350822 -0.116583 0)
(-0.352661 -0.0781766 0)
(-0.00321023 -0.29837 0)
(-0.0201094 -0.352287 0)
(-0.0443715 -0.349599 0)
(-0.0481912 -0.337006 0)
(-0.0727288 -0.343454 0)
(-0.104092 -0.304817 0)
(-0.168682 -0.319573 0)
(-0.15151 -0.320285 0)
(-0.133549 -0.346891 0)
(-0.2391 -0.332137 0)
(-0.23141 -0.291627 0)
(-0.179277 -0.289905 0)
(-0.150002 -0.300382 0)
(-0.137095 -0.370974 0)
(-0.195302 -0.334339 0)
(-0.214477 -0.355307 0)
(-0.198114 -0.19828 0)
(-0.289595 -0.168536 0)
(-0.332833 -0.202184 0)
(-0.306653 -0.153382 0)
(-0.328993 -0.123816 0)
(-0.33814 -0.122633 0)
(-0.330066 -0.102044 0)
(0.00255319 -0.329032 0)
(-0.00848874 -0.327326 0)
(-0.0328697 -0.323448 0)
(-0.0454087 -0.312461 0)
(-0.075154 -0.306936 0)
(-0.0809073 -0.30574 0)
(-0.107765 -0.298067 0)
(-0.121067 -0.255493 0)
(-0.124092 -0.283292 0)
(-0.153608 -0.269318 0)
(-0.163143 -0.217292 0)
(-0.196507 -0.215867 0)
(-0.225943 -0.202592 0)
(-0.181504 -0.231901 0)
(-0.181644 -0.244675 0)
(-0.158285 -0.230884 0)
(-0.16961 -0.233017 0)
(-0.25341 -0.238705 0)
(-0.267455 -0.186227 0)
(-0.284098 -0.193728 0)
(-0.275095 -0.105568 0)
(-0.310546 -0.115251 0)
(-0.297669 -0.0943533 0)
(-0.00435673 -0.295983 0)
(-0.0228655 -0.307818 0)
(-0.0349952 -0.307628 0)
(-0.0460492 -0.300405 0)
(-0.0631665 -0.293176 0)
(-0.0757677 -0.275899 0)
(-0.107415 -0.267677 0)
(-0.116245 -0.267484 0)
(-0.123627 -0.257888 0)
(-0.137397 -0.242859 0)
(-0.13654 -0.207251 0)
(-0.175046 -0.212205 0)
(-0.188271 -0.228721 0)
(-0.169272 -0.217888 0)
(-0.181085 -0.245857 0)
(-0.178679 -0.188371 0)
(-0.174031 -0.254542 0)
(-0.177086 -0.155305 0)
(-0.259623 -0.151888 0)
(-0.233813 -0.131745 0)
(-0.244072 -0.120944 0)
(-0.331303 -0.107053 0)
(-0.32904 -0.0895965 0)
(-0.0012492 -0.290352 0)
(-0.0207203 -0.296885 0)
(-0.02815 -0.299231 0)
(-0.0313598 -0.294552 0)
(-0.0521768 -0.283843 0)
(-0.0575407 -0.275346 0)
(-0.0822134 -0.258556 0)
(-0.0910015 -0.253031 0)
(-0.0958428 -0.252858 0)
(-0.0718465 -0.242255 0)
(-0.0911625 -0.228682 0)
(-0.210147 -0.205223 0)
(-0.259808 -0.214919 0)
(-0.181439 -0.198865 0)
(-0.131231 -0.212152 0)
(-0.173552 -0.244183 0)
(-0.122809 -0.190924 0)
(-0.0914793 -0.191644 0)
(-0.225827 -0.184481 0)
(-0.271929 -0.0870095 0)
(-0.252402 -0.172429 0)
(-0.275433 -0.0765066 0)
(-0.296095 -0.0864925 0)
(-0.00643899 -0.281606 0)
(-0.0215903 -0.291831 0)
(-0.0297805 -0.281045 0)
(-0.0325757 -0.28094 0)
(-0.0538051 -0.266501 0)
(-0.054492 -0.225768 0)
(-0.0857195 -0.215297 0)
(-0.0891533 -0.249132 0)
(-0.0971892 -0.263547 0)
(-0.104642 -0.264551 0)
(-0.0809135 -0.255754 0)
(-0.144856 -0.256085 0)
(-0.195387 -0.215794 0)
(-0.178198 -0.174535 0)
(-0.197261 -0.212283 0)
(-0.154856 -0.219591 0)
(-0.114364 -0.184185 0)
(-0.140189 -0.209101 0)
(-0.124634 -0.186239 0)
(-0.212668 -0.116638 0)
(-0.23432 -0.0934893 0)
(-0.235267 -0.091652 0)
(-0.299377 -0.0687945 0)
(-0.00457168 -0.276206 0)
(-0.00966021 -0.28682 0)
(-0.0190163 -0.276791 0)
(-0.0174379 -0.282834 0)
(-0.00489838 -0.272866 0)
(-0.00508773 -0.304159 0)
(-0.13273 -0.274759 0)
(-0.119193 -0.247526 0)
(-0.102783 -0.233678 0)
(-0.0809627 -0.250619 0)
(-0.0952535 -0.223359 0)
(-0.150888 -0.236083 0)
(-0.180311 -0.200305 0)
(-0.202033 -0.192703 0)
(-0.15144 -0.172068 0)
(-0.143679 -0.146989 0)
(-0.1198 -0.159909 0)
(-0.0918064 -0.193092 0)
(-0.114953 -0.132899 0)
(-0.154474 -0.171344 0)
(-0.250131 -0.0765026 0)
(-0.255054 -0.129411 0)
(-0.264022 -0.0597318 0)
(-0.00770347 -0.267036 0)
(-0.00972534 -0.276465 0)
(-0.0250237 -0.272982 0)
(-0.0227456 -0.280663 0)
(-0.0476726 -0.274245 0)
(-0.0461926 -0.356054 0)
(-0.0640043 -0.337652 0)
(-0.0618912 -0.284933 0)
(-0.0745916 -0.345153 0)
(-0.110701 -0.313504 0)
(-0.0880206 -0.320385 0)
(-0.0853387 -0.223484 0)
(-0.142915 -0.182785 0)
(-0.159214 -0.186413 0)
(-0.157574 -0.14694 0)
(-0.134724 -0.185801 0)
(-0.152273 -0.163036 0)
(-0.0951112 -0.15805 0)
(-0.0904318 -0.153405 0)
(-0.152059 -0.157453 0)
(-0.175806 -0.109791 0)
(-0.202321 -0.0734237 0)
(-0.2099 -0.0647061 0)
(-0.00673975 -0.261761 0)
(-0.00245964 -0.270626 0)
(-0.0194199 -0.263955 0)
(-0.00986634 -0.264034 0)
(-0.040132 -0.26557 0)
(-0.058387 -0.325133 0)
(-0.106192 -0.282454 0)
(-0.119177 -0.248534 0)
(-0.0831992 -0.231518 0)
(-0.042913 -0.214892 0)
(-0.0451106 -0.234311 0)
(-0.0574778 -0.183159 0)
(-0.124742 -0.17167 0)
(-0.17287 -0.177877 0)
(-0.170694 -0.162806 0)
(-0.155558 -0.14373 0)
(-0.0911048 -0.157213 0)
(-0.0783554 -0.142913 0)
(-0.0965468 -0.192689 0)
(-0.0813521 -0.108327 0)
(-0.146591 -0.117093 0)
(-0.208972 -0.033874 0)
(-0.23573 -0.0652142 0)
(-0.00632156 -0.260275 0)
(-0.00275961 -0.267062 0)
(-0.0223433 -0.259821 0)
(-0.0264366 -0.257372 0)
(-0.0811933 -0.254398 0)
(-0.0369498 -0.239288 0)
(0.0103892 -0.258547 0)
(-0.0558316 -0.181492 0)
(-0.0347774 -0.171768 0)
(-0.0655428 -0.183051 0)
(-0.0558314 -0.204521 0)
(-0.0650102 -0.194534 0)
(-0.128848 -0.206144 0)
(-0.149913 -0.167558 0)
(-0.133475 -0.156079 0)
(-0.138267 -0.120378 0)
(-0.134884 -0.12859 0)
(-0.123582 -0.130886 0)
(-0.0615226 -0.133613 0)
(-0.0687775 -0.122932 0)
(-0.152582 -0.14934 0)
(-0.198165 -0.068242 0)
(-0.240906 -0.0341338 0)
(-0.00665049 -0.258997 0)
(0.00411284 -0.265033 0)
(-0.0177959 -0.255262 0)
(0.00190622 -0.227239 0)
(-0.0363354 -0.188525 0)
(-0.0385827 -0.192313 0)
(0.0131202 -0.220672 0)
(-0.0631691 -0.239194 0)
(-0.0879162 -0.213078 0)
(-0.0873697 -0.215319 0)
(-0.0718903 -0.228984 0)
(-0.0514815 -0.233774 0)
(-0.0910413 -0.209216 0)
(-0.121561 -0.176376 0)
(-0.122235 -0.159128 0)
(-0.147351 -0.139698 0)
(-0.09909 -0.129102 0)
(-0.0790715 -0.0995739 0)
(-0.0990472 -0.105879 0)
(-0.108427 -0.122204 0)
(-0.101019 -0.100062 0)
(-0.0941119 -0.109821 0)
(-0.183674 -0.0236182 0)
(-0.00390879 -0.258722 0)
(0.00382469 -0.260492 0)
(-0.0110087 -0.264502 0)
(0.0327346 -0.231153 0)
(-0.0301701 -0.282021 0)
(-0.0827329 -0.237473 0)
(-0.049519 -0.260979 0)
(-0.0420163 -0.266146 0)
(-0.0353775 -0.237402 0)
(-0.0678477 -0.215843 0)
(-0.0660634 -0.253242 0)
(-0.0575246 -0.198381 0)
(-0.088709 -0.170959 0)
(-0.104895 -0.151983 0)
(-0.105901 -0.151445 0)
(-0.103923 -0.128575 0)
(-0.108662 -0.102331 0)
(-0.102101 -0.12486 0)
(-0.0751477 -0.0958679 0)
(-0.055802 -0.114124 0)
(-0.0981421 -0.0599164 0)
(-0.0593601 -0.0855242 0)
(-0.150734 -0.0796334 0)
(-0.00118908 -0.25751 0)
(-0.00572081 -0.261582 0)
(-0.00804212 -0.263808 0)
(-0.00727297 -0.229227 0)
(-0.016388 -0.312076 0)
(-0.0335396 -0.249269 0)
(-0.0300677 -0.250056 0)
(-0.0493851 -0.217696 0)
(-0.0565974 -0.226431 0)
(-0.0795667 -0.170466 0)
(-0.0355402 -0.203434 0)
(0.0377809 -0.200933 0)
(-0.0482174 -0.186862 0)
(-0.0988043 -0.17509 0)
(-0.10752 -0.154681 0)
(-0.0885028 -0.137131 0)
(-0.106667 -0.119354 0)
(-0.0670924 -0.108877 0)
(-0.0730654 -0.0751804 0)
(-0.0613929 -0.0742416 0)
(-0.0595461 -0.0748009 0)
(-0.0537056 -0.0464235 0)
(-0.0968563 -0.116406 0)
(-0.00446711 -0.25468 0)
(-0.00872224 -0.262849 0)
(-0.00979995 -0.253297 0)
(-0.00502723 -0.224218 0)
(-0.0199769 -0.247333 0)
(-0.0272953 -0.248405 0)
(-0.0276254 -0.251467 0)
(-0.0238743 -0.227182 0)
(0.00628018 -0.226836 0)
(-0.0186448 -0.215982 0)
(-0.0748601 -0.177592 0)
(-0.0578279 -0.196602 0)
(-0.0596727 -0.210704 0)
(-0.0612834 -0.188565 0)
(-0.0662157 -0.15713 0)
(-0.0613999 -0.13303 0)
(-0.0818628 -0.114386 0)
(-0.0690259 -0.0817824 0)
(-0.0466733 -0.090669 0)
(-0.0546961 -0.0521216 0)
(-0.0584501 -0.0577221 0)
(-0.0666537 -0.0415654 0)
(-0.0625031 -0.0862452 0)
(-0.00358067 -0.251066 0)
(-0.00779412 -0.25968 0)
(-0.0138463 -0.25848 0)
(-0.0136873 -0.228544 0)
(-0.0177119 -0.255421 0)
(-0.0226654 -0.256705 0)
(-0.0242766 -0.30837 0)
(-0.0237624 -0.243693 0)
(-0.0412338 -0.235629 0)
(-0.0280717 -0.271063 0)
(-0.024527 -0.214462 0)
(-0.0316602 -0.204718 0)
(-0.0347094 -0.185674 0)
(-0.049888 -0.17398 0)
(-0.0549179 -0.150354 0)
(-0.0559644 -0.126732 0)
(-0.0567313 -0.108362 0)
(-0.0579284 -0.0710688 0)
(-0.0395019 -0.0833459 0)
(-0.0243512 -0.0580365 0)
(-0.0406307 -0.062584 0)
(-0.0715234 -0.0340699 0)
(-0.0158816 -0.0438325 0)
(-0.0072682 -0.253573 0)
(-0.0215899 -0.256793 0)
(-0.0242818 -0.260191 0)