/*--------------------------------*- C++ -*----------------------------------*\
| =========                 |                                                 |
| \\      /  F ield         | foam-extend: Open Source CFD                    |
|  \\    /   O peration     | Version:     4.1                                |
|   \\  /    A nd           | Web:         http://www.foam-extend.org         |
|    \\/     M anipulation  |                                                 |
\*---------------------------------------------------------------------------*/
FoamFile
{
    version     2.0;
    format      ascii;
    class       volScalarField;
    location    "0.85";
    object      alpha1;
}
// * * * * * * * * * * * * * * * * * * * * * * * * * * * * * * * * * * * * * //

dimensions      [0 0 0 0 0 0 0];

internalField   nonuniform List<scalar> 
2268
(
1
1
0.999999
0.999999
0.999999
0.999999
1
1
1
1
1
1
1
1
1
1
1
1
1
1
1
1
0.999993
0.999999
0.999999
1
1
1
1
1
1
1
1
1
1
1
1
1
1
1
1
1
1
1
0.999999
0.999982
0.999999
1
1
1
1
1
1
1
1
1
1
1
1
1
1
1
1
1
1
1
1
0.999999
0.999979
1
1
1
1
1
1
1
1
1
1
1
1
1
1
1
1
1
1
1
1
1
0.999998
0.999984
1
1
1
1
1
1
1
1
1
1
1
1
1
1
1
1
0.999997
1
1
1
1
0.999999
0.999996
1
0.999997
0.99994
0.999816
0.999851
0.999999
1
1
1
1
1
1
1
1
0.999998
0.999845
0.99891
0.99951
0.999999
1
1
0.999999
0.999989
1
0.999991
0.999861
0.999662
0.999703
0.999997
0.999999
1
1
1
1
1
1
0.999999
0.9997
0.991906
0.968889
0.970312
0.999383
1
0.999993
0.999698
0.998928
0.999998
0.999958
0.999782
0.999679
0.99992
0.999967
0.999981
0.999999
1
1
1
1
1
1
0.991233
0.938262
0.85293
0.811262
0.974344
0.999959
0.999016
0.990878
0.991205
0.930443
0.72167
0.681123
0.899117
0.899117
0.899117
0.895529
0.879164
0.882142
0.926617
0.938707
0.93707
0.961869
0.982703
0.979945
0.971066
0.986957
0.990252
0.984545
0.886541
0.559077
0.558182
0.857155
0.899117
0.844883
0.404569
0.358533
0.359161
0.519717
0.637943
0.658299
0.690089
0.880843
0.946296
0.940984
0.958364
0.973511
0.840311
0.881076
0.429884
0.578064
0.965614
0.706933
0.918887
0.902508
0.771417
0.392567
0.512316
0.728065
0.650054
0.62576
0.781216
0.963125
0.977968
0.950634
0.950926
0.565311
0.816302
0.430402
0.821219
0.979298
0.492295
0.598635
0.717602
0.867294
0.920698
0.970486
0.986808
0.986796
0.980236
0.985538
0.989511
0.989547
0.953948
0.945304
0.563488
0.800928
0.435737
0.977909
0.979293
0.632342
0.15614
0.180904
0.285925
0.513128
0.780861
0.940506
0.981974
0.987068
0.989489
0.989547
0.989511
0.951696
0.701741
0.278129
0.892822
0.793027
0.991526
0.960137
0.685565
0.159434
0.0287585
0.0304254
0.053111
0.189294
0.522303
0.805846
0.895238
0.947605
0.968293
0.989547
0.980256
0.522653
0.255562
0.974416
0.982547
0.991708
0.842817
0.330825
0.117099
0.0282949
0.0282864
0.0282949
0.028279
0.142143
0.496376
0.780058
0.903603
0.798929
0.938718
0.973572
0.758205
0.255562
0.995676
0.995757
0.953835
0.546545
0.173324
0.152221
0.0327914
0.0282931
0.0282864
0.0452239
0.221199
0.428763
0.776119
0.811699
0.374573
0.754263
0.894427
0.87368
0.409096
0.999071
0.998878
0.999264
0.997775
0.997042
0.996569
0.999056
0.999022
0.998812
0.998729
0.998488
0.99756
0.992769
0.965054
0.895832
0.832394
0.750851
0.718477
0.762082
0.94741
0.894277
0.929284
0.978861
0.991607
0.986193
0.974442
0.955647
0.928003
0.928569
0.961942
0.958187
0.942592
0.949993
0.954901
0.960736
0.898597
0.751054
0.750403
0.832486
0.970594
0.745854
0.516197
0.52491
0.522621
0.851799
0.999059
0.979925
0.89399
0.666903
0.496955
0.315208
0.377152
0.492738
0.534073
0.453723
0.470992
0.665347
0.791998
0.804776
0.91015
0.974916
0.98046
0.980461
0.960745
0.661671
0.34669
0.346779
0.778375
0.998684
0.960826
0.615402
0.199127
0.0859319
0.16995
0.108447
0.0637015
0.0736926
0.0679914
0.0833353
0.199367
0.330182
0.368696
0.499597
0.655315
0.904921
0.974997
0.975479
0.841556
0.597854
0.667532
0.975607
0.992552
0.729426
0.171417
0.0599963
0.047814
0.0526284
0.047093
0.0384151
0.0180933
0.0106465
0.0149652
0.0407015
0.0645748
0.0670061
0.0522612
0.0641789
0.409595
0.728017
0.923033
0.962534
0.962488
0.886114
0.815719
0.613182
0.374168
0.0613137
0.0363574
0.046256
0.0211358
0.00304653
0.0016896
0.000750786
0.00130897
0.00406503
0.0118273
0.0161411
0.0148348
0.00392733
0.0034136
0.0224927
0.0874367
0.478844
0.820836
0.814671
0.45041
0.246837
0.114589
0.305944
0.0291068
0.0137415
0.00792053
0.000583211
0.000237979
0.000227404
0.000213041
0.000232694
0.00219943
0.0079782
0.0107277
0.00221444
0.000117149
8.26328e-05
0.000632621
0.0048864
0.0591738
0.281077
0.532941
0.41946
0.27145
0.195634
0.28193
0.0169062
0.0035563
0.000963397
8.2586e-05
8.38224e-05
8.48064e-05
0.000214258
0.000818898
0.0037927
0.00704725
0.00258107
7.32528e-05
4.57355e-05
4.57356e-05
4.57355e-05
0.000144552
0.00139654
0.0141813
0.098048
0.339907
0.46209
0.341644
0.180882
0.0099895
0.000870458
0.000135388
8.38224e-05
0.000197143
0.000860532
0.00251488
0.00396816
0.00405487
0.00334033
0.00027494
4.57356e-05
4.5736e-05
4.57355e-05
4.5736e-05
4.57355e-05
4.68946e-05
0.000725105
0.0118245
0.110152
0.35999
0.225956
0.0597848
0.00960767
0.000446618
0.000273032
0.00105196
0.0021768
0.00415702
0.00437837
0.00432928
0.00295905
0.000646791
6.95357e-05
4.5736e-05
4.65638e-05
0.000124456
0.000210772
8.78159e-05
3.52618e-05
0.000242538
0.00201393
0.00768703
0.0126465
0.00843061
0.0107526
0.0105893
0.00109662
0.00102515
0.00300124
0.00300934
0.00199426
0.00186621
0.00173686
0.000521795
7.38294e-05
4.57365e-05
4.57356e-05
0.000161616
0.000428103
0.000454076
0.000170403
7.7111e-06
4.34672e-05
0.000349414
0.00237397
0.00712547
0.00894308
0.00914503
0.0100537
0.0017722
0.00175387
0.00300934
0.00216804
0.000334016
0.000138301
0.000117303
5.52554e-05
4.57761e-05
4.57361e-05
8.11745e-05
0.000357625
0.000479323
0.000430296
4.32358e-05
1.25517e-06
1.30985e-06
1.53756e-05
0.000390237
0.00602907
0.0318518
0.0192607
0.00667187
0.00159728
0.00117338
0.00203632
0.000746624
0.000139447
4.64558e-05
4.69597e-05
4.64558e-05
6.74736e-05
9.12189e-05
0.000193695
0.000436987
0.000480765
0.000178608
5.55206e-06
8.45502e-07
1.62859e-06
2.68054e-05
0.000195786
0.000708868
0.00354767
0.132303
0.00352676
0.00107649
0.000330047
0.000538405
0.000265179
0.000186475
6.14935e-05
7.69863e-05
0.000235039
0.000285667
0.000286906
0.0001717
0.000145305
0.000368126
8.96881e-05
3.881e-06
6.90822e-07
6.29963e-06
6.87113e-05
0.000208123
0.000267905
0.000516408
0.275434
0.00173007
0.000547741
4.00698e-05
6.57576e-05
0.000120784
5.82321e-05
3.02057e-05
3.09581e-05
7.12628e-05
1.54194e-05
8.11696e-05
7.21813e-05
7.24741e-05
0.000140458
0.000105326
1.10717e-06
3.24049e-07
6.31969e-06
7.6723e-05
0.000200012
0.000181109
5.04132e-05
0.27582
0.00200302
0.000216809
1.13553e-05
1.12328e-05
0.000103086
6.19316e-05
5.78379e-05
3.19949e-05
1.59378e-05
1.50517e-05
2.16898e-05
8.78312e-05
0.000102326
0.000122971
0.000128406
5.94147e-07
1.44003e-07
1.68833e-07
3.25711e-06
2.66049e-05
6.56548e-05
8.75593e-05
0.23472
0.00514394
7.75839e-05
1.12328e-05
1.12294e-05
3.78627e-05
0.000174596
0.00024002
0.000239904
0.000116057
5.60297e-05
0.000159569
0.0009175
0.00108774
0.000480536
5.977e-05
1.57582e-07
1.4416e-07
1.79478e-07
1.92899e-07
1.03071e-06
2.55369e-06
4.98922e-06
0.0628854
0.00472843
9.16535e-05
1.12294e-05
1.12312e-05
1.12294e-05
3.8137e-05
0.000170735
9.51974e-05
9.7864e-05
0.000208452
0.000925873
0.00362331
0.00387103
0.0021074
0.000226297
1.43876e-06
3.8115e-06
9.61568e-06
4.19075e-06
1.85272e-06
1.9255e-07
1.33176e-08
0.00331573
0.00145005
0.000138585
2.82871e-05
3.04175e-05
3.80117e-05
5.7441e-05
0.000107936
0.000105387
0.000192649
0.00233172
0.00467604
0.00467523
0.00331122
0.001218
0.000111391
1.13146e-05
9.54333e-05
0.000182378
9.89004e-05
3.62687e-05
4.72238e-06
6.13213e-08
4.88793e-05
7.83997e-05
0.000140258
0.000138166
0.000264554
0.000308971
0.000269901
0.00015238
0.000454192
0.00605154
0.00819833
0.0045464
0.00109733
0.000998882
0.00056504
4.60806e-05
2.20911e-05
0.000277121
0.000572788
0.000474409
0.000185934
2.32201e-05
6.71809e-07
4.23341e-05
4.23341e-05
0.00174663
0.00614651
0.00831078
0.00821332
0.00406197
0.000663208
0.00177514
0.00786413
0.00820244
0.00363809
0.000320389
0.000189819
0.000245243
5.64482e-05
0.000136288
0.000537122
0.000572437
0.000572788
0.000349891
5.19531e-05
2.42231e-06
4.50401e-05
0.000192615
0.0123839
0.0134127
0.00660066
0.007429
0.00741389
0.00436558
0.00148962
0.00274614
0.00656646
0.00281869
0.000169264
2.74479e-05
8.76822e-05
7.88097e-05
0.000300222
0.000532782
0.000430048
0.00028961
0.000357137
8.9987e-05
5.44454e-06
0.000235173
0.00419874
0.0164353
0.00807597
0.000761477
0.000939531
0.00299261
0.00272767
0.000804723
0.000680817
0.00325189
0.00171689
7.20855e-05
6.46975e-06
2.39366e-05
5.86777e-05
0.000276237
0.000434687
6.64959e-05
6.60432e-05
0.000215814
5.56517e-05
6.58594e-06
0.00126643
0.0155316
0.0128235
0.00241684
0.000177022
0.000168918
0.000365332
0.000709093
0.000258453
0.000212899
0.00132587
0.00109933
1.29358e-05
6.47828e-06
6.4634e-06
2.09488e-05
0.000128221
0.00019161
6.67466e-05
0.000127431
0.000122661
5.4155e-05
5.56337e-06
0.00161975
0.0159763
0.00171365
0.000207496
0.000232937
0.000468701
0.000444079
0.000175754
0.000175072
0.000198092
0.0032029
0.00290886
1.55598e-05
6.43698e-06
6.46869e-06
6.4634e-06
1.80853e-05
3.06348e-05
0.000125626
0.000348579
0.000228521
4.61225e-05
2.28578e-06
0.00550311
0.0141224
0.000204554
0.000202438
0.000413972
0.000283238
5.03044e-05
0.000157319
0.000433314
0.00185997
0.00346895
0.00232432
1.82835e-05
6.44002e-06
6.43714e-06
6.48814e-06
1.74373e-05
0.00014537
0.000362783
0.000363189
0.000193427
2.487e-05
8.96564e-07
0.0116733
0.00646183
0.000198379
0.000178824
0.000203469
2.18815e-05
0.000158109
0.00121274
0.00277254
0.00312621
0.00312679
0.000545427
1.09925e-05
6.39422e-06
1.68147e-05
3.43066e-05
0.000231653
0.000356231
0.000355071
0.000174956
3.42555e-05
2.77943e-06
9.29996e-08
0.0116733
0.0023593
0.000100829
6.76775e-05
7.25307e-05
1.4433e-05
0.000164179
0.00108007
0.00263578
0.00280791
0.000933049
3.64294e-05
1.12679e-05
3.45922e-05
0.000146126
0.000198286
0.000212857
0.000170423
6.56029e-05
1.98787e-05
5.23179e-06
6.94606e-07
3.5436e-08
0.00823619
0.0011271
3.65804e-05
1.58246e-05
1.83173e-05
9.12412e-06
3.92664e-05
0.000271016
0.000800159
0.000968215
0.000499911
0.00022658
0.000178242
0.000163994
0.000274933
0.00018129
5.42965e-05
1.41237e-05
5.32259e-06
2.44009e-06
7.77127e-07
1.09183e-07
5.60569e-09
0.00215273
0.000523625
1.5407e-05
3.08719e-06
3.08554e-06
3.06238e-06
4.00476e-06
8.59885e-06
4.67133e-05
0.000152132
0.000416994
0.000766588
0.000766313
0.000747029
0.000292828
5.19348e-05
2.71106e-06
2.34562e-07
9.44355e-08
4.26784e-08
2.12867e-08
4.36938e-09
4.97455e-10
0.000201895
0.000117807
1.88747e-05
1.18919e-05
3.83218e-06
2.75779e-06
5.20361e-07
2.40674e-07
4.94162e-07
1.07078e-05
0.000125089
0.000382754
0.000631607
0.000484654
0.000134017
9.71855e-06
1.44853e-07
1.41526e-09
4.71565e-10
1.64042e-10
2.74308e-11
5.91138e-12
2.87078e-10
5.40456e-05
5.3893e-05
5.34487e-05
0.000161914
3.64869e-05
1.4118e-05
1.25202e-06
7.26481e-08
3.9351e-09
7.9085e-08
3.41538e-06
2.18433e-05
0.000162302
7.87391e-05
7.94556e-06
9.9093e-08
1.02065e-10
1.31979e-11
9.1019e-12
4.86526e-12
1.69925e-12
4.25673e-12
5.24287e-09
5.447e-05
5.40456e-05
5.39061e-05
0.000296832
0.0001652
1.82247e-05
1.04067e-06
1.21905e-08
3.59246e-11
4.92822e-11
3.55818e-09
3.9187e-08
4.18273e-06
1.16642e-06
4.37561e-08
1.78382e-10
1.65562e-11
1.45639e-11
1.10442e-11
5.35007e-12
1.72511e-12
1.72265e-10
6.07213e-08
5.46268e-05
5.88586e-05
7.97401e-05
0.000297184
0.000131551
1.10287e-05
2.31917e-07
5.05805e-10
2.2644e-11
2.31682e-11
1.89981e-11
1.64053e-11
2.47668e-09
3.62627e-10
2.00776e-11
1.52836e-11
1.05917e-11
3.41948e-12
8.42064e-13
8.32339e-13
2.03787e-10
1.07553e-08
4.22811e-07
5.48196e-05
0.000262678
0.000222068
0.000213097
3.66007e-05
1.23661e-06
4.87532e-09
2.49196e-11
1.86996e-11
1.09173e-11
8.05283e-12
8.00638e-12
8.29882e-12
9.21142e-12
9.59245e-12
8.97222e-12
6.06464e-12
1.95833e-12
1.17828e-12
1.11463e-10
1.9969e-08
3.14486e-07
1.4061e-06
0.000224841
0.000644924
0.000177681
4.67417e-05
1.68282e-06
7.12379e-09
3.1e-11
1.74968e-11
6.00364e-12
9.05887e-13
7.58179e-13
1.33875e-12
2.24187e-12
2.41495e-12
2.29483e-12
1.47824e-12
3.43381e-13
3.12253e-13
1.10996e-10
2.11916e-08
4.7248e-07
2.23591e-06
2.17694e-06
0.00400261
0.000913795
9.25611e-05
1.80397e-06
5.10113e-09
2.00129e-11
1.28588e-11
4.12964e-12
3.31851e-13
1.19085e-14
2.46519e-14
1.12304e-13
1.56358e-13
1.4938e-13
1.12631e-13
3.07803e-14
3.13598e-13
2.41574e-12
2.2769e-09
3.26316e-07
2.99036e-06
3.05613e-06
1.32742e-06
0.00770834
0.00187403
0.000124079
1.15165e-06
1.64232e-09
7.2104e-12
1.32813e-12
1.17074e-13
2.23452e-15
1.55374e-16
4.72549e-16
2.64863e-15
2.7176e-15
2.73458e-15
1.24462e-15
4.32953e-15
3.94552e-12
1.26641e-10
8.63906e-09
1.0074e-06
4.85667e-06
2.92984e-06
3.75927e-07
0.00770834
0.00374951
0.000278099
3.74147e-06
1.06433e-08
5.05275e-12
4.71689e-14
9.2602e-16
9.88407e-17
7.52768e-17
5.0856e-17
4.27534e-17
4.38094e-17
3.87199e-17
8.67969e-17
1.46319e-15
4.86108e-13
8.84645e-10
5.52274e-09
4.68801e-07
4.84742e-06
2.40452e-06
2.82711e-07
0.00770834
0.00338835
0.00026633
4.93132e-06
1.49871e-08
3.98708e-12
9.5306e-16
9.90001e-17
8.16008e-17
5.61285e-17
3.37344e-17
2.04428e-17
2.04883e-17
2.19124e-17
2.03527e-15
5.17013e-15
2.24083e-12
7.26507e-09
8.37734e-08
2.58455e-06
7.16263e-06
3.17643e-06
2.53811e-07
0.00626781
0.00161885
0.000151605
2.65337e-06
4.93246e-09
4.83439e-13
1.0656e-16
7.48472e-17
5.53799e-17
3.02185e-17
1.6171e-17
1.02523e-17
4.18272e-16
2.98932e-16
9.12551e-13
1.06902e-12
2.14469e-12
4.10051e-09
1.4285e-07
3.2486e-06
8.98994e-06
3.72014e-06
3.07089e-07
0.00136349
0.000211859
1.81555e-05
1.65405e-07
8.22527e-11
1.1076e-15
7.7561e-17
4.97752e-17
3.34879e-17
1.77573e-17
8.13714e-18
5.35302e-18
3.64817e-15
4.11396e-14
5.2944e-12
1.42364e-11
2.76877e-11
4.70828e-09
2.0965e-07
7.42536e-06
9.59559e-06
2.99815e-06
8.0959e-08
0.996846
0.999591
0.999835
0.999835
0.999835
0.999835
0.999835
0.999835
0.999835
0.999835
0.999385
0.979117
0.989928
0.985263
0.967792
0.793713
0.509997
0.67642
0.78025
0.37569
0.111383
0.227645
0.296893
0.147916
0.0333811
0.0309767
0.048415
0.0510942
0.00677523
0.00395101
0.00405769
0.00916829
0.0423819
0.0038504
0.00330904
0.00332914
0.00572455
0.00331253
0.00328751
0.00331253
0.00330506
0.00327499
0.0032995
0.00329274
0.0396411
0.0305616
0.00639337
0.00525584
0.0135674
0.0230308
0.0220245
0.012366
0.00178963
0.00289954
0.00319481
0.00166846
3.55886e-05
3.58839e-05
4.86852e-05
5.12292e-05
3.29517e-05
3.28312e-06
2.63102e-06
9.74128e-06
3.79484e-06
2.50698e-06
7.17019e-07
3.23988e-06
1.64558e-12
1.39305e-12
9.11673e-13
6.58368e-13
3.4799e-13
3.90533e-13
7.72854e-13
6.48522e-13
1.85869e-13
1.88143e-13
5.32517e-13
6.38866e-13
1.72941e-13
1.72941e-13
1.7642e-13
1.74168e-13
1.72941e-13
1.72941e-13
1.73265e-13
1.72977e-13
1.72941e-13
1.72941e-13
1.72986e-13
1.72941e-13
1.72941e-13
1.72941e-13
1.72941e-13
1.72941e-13
1.72941e-13
1.72941e-13
1.72941e-13
1.72941e-13
1.72941e-13
1.72941e-13
1.72941e-13
1.72941e-13
1.72941e-13
1.72941e-13
1.72941e-13
7.81513e-13
1.72941e-13
1.05406e-12
2.2107e-12
4.92276e-11
1.72941e-13
4.34494e-11
1.38185e-10
2.42441e-09
5.95875e-10
9.06772e-10
3.95479e-09
4.36452e-08
1.1732e-09
9.52936e-09
6.36848e-08
2.07285e-07
1.99258e-08
7.56671e-08
3.56445e-07
7.03059e-07
2.87775e-07
5.7079e-07
8.68043e-07
8.5449e-07
1.15498e-06
1.15071e-06
3.76857e-07
2.55284e-08
8.2865e-07
2.42577e-07
3.25329e-08
2.82634e-09
7.17381e-07
8.30563e-08
2.08564e-09
1.06167e-09
1.95814e-07
1.21614e-08
3.42598e-10
1.00164e-09
4.06194e-25
8.64482e-12
1.36888e-10
5.94643e-10
-7.46077e-26
2.43348e-11
1.88663e-10
9.6495e-11
7.06725e-26
5.28975e-15
9.02952e-13
7.27607e-13
-3.72285e-25
1.01431e-18
2.53418e-17
8.99108e-15
6.99914e-28
4.57481e-20
5.68373e-20
5.29914e-20
0.996557
0.951226
0.605208
0.220677
0.0917969
0.0743464
0.0462783
0.0282864
0.0372459
0.373043
0.690128
0.746429
0.776341
0.606633
0.173687
0.172611
0.195837
0.336226
0.616177
0.956211
0.322352
0.0904367
0.0900021
0.13063
0.0382671
0.0286865
0.0309087
0.244358
0.770512
0.784515
0.784515
0.585516
0.217327
0.138564
0.100822
0.154286
0.123473
0.512242
0.695888
0.123364
0.0900021
0.371266
0.421302
0.161974
0.028723
0.0477527
0.295634
0.487289
0.784515
0.738158
0.142194
0.0774909
0.0838486
0.0749147
0.155038
0.0715544
0.14947
0.337143
0.107977
0.37467
0.421302
0.420956
0.405918
0.112326
0.0606779
0.173711
0.20867
0.63297
0.281046
0.0281735
0.0186433
0.0405338
0.0524547
0.0374562
0.0279221
0.0142057
0.089167
0.0474118
0.049513
0.0775943
0.315924
0.430564
0.439823
0.443127
0.555252
0.555896
0.507009
0.13908
0.0203589
0.0144487
0.0294057
0.0252406
0.0128131
0.0120506
0.0120506
0.0642429
0.0211711
0.0100396
0.00860408
0.030238
0.167864
0.391145
0.371227
0.248006
0.373164
0.186503
0.0596799
0.0100986
0.00198605
0.000865904
0.0015496
0.00659027
0.0263546
0.0451385
0.0526289
0.0250921
0.00692144
0.00532446
0.015606
0.0155588
0.0225678
0.02081
0.0135363
0.0425063
0.0373776
0.0292538
0.00301795
9.77978e-05
2.12698e-05
0.000239212
0.00107594
0.00193508
0.00200496
0.0177913
0.0182501
0.0173349
0.0034178
0.00340282
0.00860444
0.023289
0.00775672
0.00611516
0.0119437
0.0145477
0.00788098
0.000640768
2.10238e-05
1.97736e-05
0.000240053
0.000953297
0.0014195
0.000258644
0.00335118
0.00482292
0.0195747
0.00358516
0.00166669
0.00845128
0.0177115
0.00729828
0.00611524
0.0151516
0.0255238
0.00182842
0.000109753
1.89508e-05
1.92744e-05
0.000269011
0.00192169
0.00442127
0.00193257
0.00333281
0.00482592
0.0142995
0.00372437
0.00168018
0.00840445
0.0111136
0.00697081
0.0062136
0.0346641
0.0764115
0.0147351
0.000492782
1.92784e-05
2.06468e-05
0.000241195
0.00171461
0.00442127
0.00442127
0.00340937
0.0081121
0.00115994
0.00126597
0.00316369
0.00340961
0.00437279
0.00458583
0.00676286
0.0244493
0.0888265
0.088702
0.00577656
9.27598e-05
2.08052e-05
5.31883e-05
0.00128683
0.00442127
0.00404774
0.00783152
0.0113243
0.00099634
0.000514771
0.000977643
0.00134452
0.00445783
0.0104637
0.0189454
0.0217549
0.0336745
0.0888265
0.0229071
0.000804983
2.09707e-05
2.66147e-05
0.00145227
0.00317027
0.000856409
0.00487205
0.00159661
0.000171562
8.50836e-05
0.0004277
0.00215989
0.00754747
0.0121303
0.00870779
0.00771808
0.00711462
0.0269835
0.0274141
0.000712446
2.63321e-05
0.000235921
0.00459519
0.00121735
0.000292216
0.000671119
7.29682e-05
7.14863e-05
8.78091e-05
0.000790075
0.00158051
0.000777326
0.00102069
0.000363561
0.000533002
0.000612
0.0043177
0.0271599
0.0199688
0.00981848
0.00998064
0.00572087
0.000589691
0.000244466
4.912e-05
4.91235e-05
0.000168886
0.00067789
0.000764298
0.000446405
4.42779e-05
1.4666e-05
7.97154e-06
2.75348e-05
9.12061e-05
0.00165845
0.00832638
0.0136242
0.0136666
0.010141
0.00176308
9.35813e-05
0.000243663
4.42751e-05
0.000125458
0.000262722
0.000265971
0.000229729
6.49174e-05
7.31657e-06
2.67002e-06
1.63261e-06
4.79043e-06
2.44458e-05
7.83306e-05
9.50606e-05
0.0003373
0.00113357
0.000343371
6.12969e-05
2.73144e-05
0.000277335
1.73622e-05
5.40246e-05
0.000104643
2.07234e-05
6.88716e-06
3.17893e-06
1.12037e-06
4.22961e-07
5.04299e-07
1.78014e-06
9.00108e-06
3.19583e-06
1.95077e-06
3.99823e-06
9.95286e-06
1.19196e-05
2.25921e-05
1.90968e-05
0.000107435
3.84633e-08
2.09487e-07
1.05616e-06
2.13394e-08
7.02117e-08
7.97468e-08
6.0859e-08
4.35341e-08
8.21319e-08
5.24089e-07
5.41089e-06
1.31321e-06
5.14646e-07
1.16825e-06
6.32568e-06
1.04559e-05
1.55651e-05
6.96577e-06
5.60292e-06
9.94047e-12
1.29935e-10
9.44756e-10
2.88341e-11
3.32092e-11
8.06594e-11
5.79508e-10
2.60633e-09
5.43553e-09
1.18255e-07
1.52653e-06
7.39309e-07
3.90759e-07
3.71902e-06
3.19432e-05
6.23441e-05
6.31767e-05
7.13491e-05
5.73271e-05
6.94817e-13
1.05245e-11
5.19292e-11
2.89024e-11
2.88341e-11
2.94125e-11
3.42847e-11
2.40331e-10
3.65918e-10
1.60224e-08
1.66897e-07
1.07131e-07
3.58495e-07
4.83289e-06
5.05444e-05
0.000161847
0.000224909
0.000213635
0.000200603
6.47847e-13
1.2017e-11
1.71195e-10
9.45436e-10
2.21533e-10
1.35448e-09
1.50404e-09
2.86362e-10
2.75582e-10
5.00872e-10
4.89517e-09
3.93032e-09
1.40258e-07
2.0866e-06
4.98035e-05
0.000217472
0.000278409
0.000278409
0.000278409
1.19353e-12
1.15947e-11
1.10868e-08
9.35622e-08
2.15281e-08
3.35033e-08
6.5877e-08
1.56253e-08
1.05172e-09
2.246e-10
2.246e-10
3.55363e-10
5.95524e-08
4.72257e-07
9.39805e-06
9.98343e-05
8.63422e-05
4.30024e-05
4.66283e-05
4.15922e-11
1.38304e-09
1.90689e-07
1.39296e-06
4.86858e-07
2.40581e-07
5.84853e-07
5.39868e-07
9.83451e-08
1.68686e-09
2.246e-10
2.79885e-10
3.75072e-08
3.29794e-07
4.27597e-06
2.07155e-05
3.67984e-05
1.58183e-05
4.35765e-06
4.64879e-10
4.31475e-08
1.29097e-06
4.8674e-06
2.77424e-06
8.41433e-07
1.56267e-06
2.61976e-06
1.13893e-06
8.48262e-08
7.88281e-10
3.37615e-10
3.88961e-08
3.55639e-07
1.72067e-06
2.45707e-05
0.000380109
0.000181976
1.40558e-05
2.39808e-09
2.67276e-07
4.12846e-06
5.88637e-06
5.83885e-06
1.82239e-06
1.50049e-06
3.89286e-06
5.1816e-06
1.37148e-06
7.65843e-08
1.28188e-09
6.64554e-08
4.50395e-07
9.74865e-06
0.000228047
0.000795765
0.000516185
5.6671e-05
8.98887e-09
6.13735e-07
5.88637e-06
5.88621e-06
5.81525e-06
1.82907e-06
2.4141e-07
1.36719e-06
1.05751e-05
9.97683e-06
3.13274e-06
1.44154e-07
4.45172e-08
3.07249e-07
1.90845e-05
0.000431026
0.00079573
0.000719547
8.2855e-05
3.64151e-08
8.68078e-07
3.41893e-06
5.28802e-06
1.9358e-06
3.18015e-07
2.39629e-08
1.06891e-07
7.63997e-06
3.55072e-05
2.24845e-05
2.71781e-06
4.96612e-08
1.15372e-07
1.12206e-05
0.000437714
0.000795765
0.000592276
9.06174e-05
1.9353e-07
1.11176e-06
7.10367e-07
6.88637e-07
2.96392e-07
1.52372e-08
1.56803e-08
9.05933e-08
4.6577e-06
6.68988e-05
6.63964e-05
1.49138e-05
3.44883e-07
1.21869e-07
4.27967e-06
0.000138637
0.00079573
0.000288265
5.11009e-05
6.58952e-07
8.57071e-07
1.85131e-07
3.74669e-08
1.2863e-08
3.09324e-09
1.85633e-08
7.31427e-08
3.67246e-06
7.86317e-05
0.000107549
9.14673e-05
1.90943e-05
5.3834e-07
1.13526e-06
6.67415e-05
0.000506011
0.000187622
1.97336e-05
1.13566e-06
4.61604e-07
5.87233e-08
2.5344e-09
1.84517e-10
2.92422e-09
1.44902e-07
6.42665e-07
7.88637e-06
8.00471e-05
0.000104048
4.97173e-05
8.59485e-06
2.20945e-07
5.71134e-07
0.000138322
0.000339883
0.000138994
9.79453e-06
1.12769e-06
3.38662e-07
3.38155e-08
7.5863e-10
1.76242e-10
7.37223e-09
3.97905e-07
3.37472e-06
7.36866e-06
7.96025e-05
8.04932e-05
2.39282e-05
2.17196e-06
1.60152e-07
1.06695e-06
0.000162348
0.000317403
0.000130291
6.58483e-06
4.16549e-07
7.67853e-08
6.27641e-09
2.96689e-10
1.74534e-10
1.38014e-08
7.24755e-07
7.73157e-06
3.28319e-05
0.000110434
0.000124623
7.92712e-05
1.03764e-05
1.6219e-07
1.59009e-06
5.41597e-05
0.000215205
0.000114889
8.6492e-06
1.75601e-07
4.59106e-09
1.59901e-09
2.83152e-10
1.59657e-10
2.04556e-08
1.1282e-06
1.17666e-05
7.11009e-05
0.000124623
0.000124588
8.50366e-05
9.23142e-06
2.42743e-07
1.41526e-05
0.000340035
0.000236512
4.39071e-05
3.07074e-06
4.67151e-09
2.21373e-09
1.18657e-09
1.0278e-10
1.53033e-10
2.32393e-08
1.28018e-06
1.47386e-05
3.22485e-05
5.08303e-05
6.46873e-05
3.65006e-05
3.48488e-06
1.13057e-06
0.000397951
0.000561227
0.000283114
3.40662e-05
4.96153e-07
1.79995e-09
1.75166e-09
7.34375e-10
4.1309e-11
1.85443e-10
2.72971e-08
9.40158e-07
7.02081e-06
1.20493e-05
5.61492e-06
8.6627e-06
5.06827e-06
2.4209e-06
9.81607e-06
0.000950704
0.00056175
0.000100442
5.63295e-06
1.39033e-07
2.03826e-09
7.91612e-10
5.95233e-11
1.48161e-12
1.86308e-10
2.49814e-08
7.21142e-07
5.98388e-06
1.04915e-05
4.45992e-07
1.54418e-07
8.18378e-07
1.50128e-05
0.000180355
0.000949965
0.000162752
1.26346e-05
1.50244e-07
5.73206e-08
1.31998e-09
2.39083e-10
6.65091e-12
3.06629e-13
1.62662e-10
1.17764e-08
3.3454e-07
6.36591e-06
1.58557e-05
1.70109e-06
5.69633e-08
3.89003e-06
0.00010357
0.000692904
0.000810134
0.000172287
1.88194e-06
6.58821e-09
1.78978e-08
3.33111e-10
1.35972e-11
5.22853e-14
1.15145e-13
2.62365e-11
2.40464e-09
7.46622e-08
1.81197e-06
1.00827e-05
2.01413e-06
5.67632e-08
2.12914e-06
6.53217e-05
0.00071676
0.000456343
9.65455e-05
1.93227e-06
5.47928e-09
9.16303e-09
3.0765e-11
1.01763e-12
5.37241e-15
3.68648e-14
1.94164e-12
1.59477e-10
7.67078e-09
1.50795e-07
1.25105e-06
4.01859e-06
5.22032e-07
7.28064e-07
1.60754e-05
0.00025269
0.000456815
0.000177972
3.19616e-06
3.601e-09
4.71252e-09
2.37031e-13
1.42286e-14
1.06056e-15
6.26609e-15
3.05397e-15
1.97546e-12
1.73408e-10
1.04468e-08
2.26745e-07
9.10646e-07
5.21362e-07
3.31003e-07
2.67298e-06
2.43477e-05
0.000298521
0.000271984
2.9989e-05
2.71744e-07
1.06694e-09
1.28953e-15
3.76139e-17
1.36551e-16
4.05566e-16
5.56507e-17
2.44257e-14
1.88687e-11
1.22849e-09
1.56315e-08
7.31747e-08
1.37841e-07
8.31081e-08
3.44763e-07
8.09515e-06
0.00018245
0.000159856
1.37217e-05
9.69268e-08
7.50489e-11
5.01505e-20
3.09002e-19
5.46061e-19
1.23627e-18
4.42071e-18
1.2932e-17
3.73814e-17
2.99069e-16
8.89972e-14
4.72532e-11
1.94949e-09
3.39308e-09
1.88806e-08
3.37744e-06
4.90612e-05
4.0384e-05
2.80874e-06
4.68079e-09
7.08743e-13
)
;

boundaryField
{
    leftWall
    {
        type            zeroGradient;
    }
    rightWall
    {
        type            zeroGradient;
    }
    lowerWall
    {
        type            zeroGradient;
    }
    atmosphere
    {
        type            inletOutlet;
        inletValue      uniform 0;
        value           nonuniform List<scalar> 
46
(
0.00136349
0.000211859
1.81555e-05
1.65405e-07
8.22527e-11
1.1076e-15
7.7561e-17
4.97752e-17
3.34879e-17
1.77573e-17
8.13714e-18
5.35302e-18
0
0
0
0
0
4.70828e-09
0
7.42536e-06
9.59559e-06
0
0
0
0
0
0
0
0
0
0
0
0
0
0
0
0
0
0
0
3.37744e-06
4.90612e-05
4.0384e-05
2.80874e-06
4.68079e-09
7.08743e-13
)
;
    }
    defaultFaces
    {
        type            empty;
    }
}


// ************************************************************************* //
