/*--------------------------------*- C++ -*----------------------------------*\
| =========                 |                                                 |
| \\      /  F ield         | foam-extend: Open Source CFD                    |
|  \\    /   O peration     | Version:     4.1                                |
|   \\  /    A nd           | Web:         http://www.foam-extend.org         |
|    \\/     M anipulation  |                                                 |
\*---------------------------------------------------------------------------*/
FoamFile
{
    version     2.0;
    format      ascii;
    class       surfaceScalarField;
    location    "0.85";
    object      phi;
}
// * * * * * * * * * * * * * * * * * * * * * * * * * * * * * * * * * * * * * //

dimensions      [0 3 -1 0 0 0 0];

internalField   nonuniform List<scalar> 
4432
(
-1.90287e-06
1.90287e-06
-3.47085e-06
1.56798e-06
-4.48381e-06
1.01296e-06
-3.59661e-06
-8.87195e-07
-5.73542e-06
2.13881e-06
-8.14922e-06
2.4138e-06
-8.96294e-06
8.13719e-07
-9.27238e-06
3.09445e-07
-7.98109e-06
-1.29129e-06
-1.05629e-05
2.5818e-06
-1.16086e-05
1.04571e-06
-6.66481e-06
-4.94379e-06
-1.0481e-05
3.81619e-06
-5.57053e-06
-4.91047e-06
-7.23715e-06
1.66661e-06
-9.25255e-07
-6.31189e-06
3.04304e-06
-3.9683e-06
5.65863e-06
-2.61559e-06
6.35727e-06
-6.98641e-07
5.07369e-06
1.28359e-06
3.18526e-06
1.88842e-06
1.76459e-06
1.42067e-06
1.76459e-06
-4.319e-07
2.33477e-06
-7.63962e-07
1.90004e-06
-2.14314e-06
2.39213e-06
-3.97629e-06
9.45955e-07
-5.5893e-06
3.75182e-06
-7.9573e-06
4.78179e-06
-8.59147e-06
1.4479e-06
-7.94948e-06
-3.32546e-07
-1.25365e-05
3.29568e-06
-1.13771e-05
1.42241e-06
-7.42412e-06
-2.90724e-06
-1.27501e-05
3.82193e-07
-1.30153e-05
4.08139e-06
-7.44336e-06
-1.04824e-05
-5.8128e-06
3.60524e-08
-3.1064e-06
-9.01829e-06
1.13472e-06
-8.20943e-06
4.42523e-06
-5.90609e-06
5.25556e-06
-1.52897e-06
4.16675e-06
2.37239e-06
1.40225e-06
4.65292e-06
4.66419e-07
2.35651e-06
2.23101e-06
-1.44347e-06
3.77824e-06
-3.52208e-06
3.97865e-06
-5.54436e-06
4.41441e-06
-8.47104e-06
3.87263e-06
-1.13499e-05
6.63069e-06
-7.94682e-06
1.37871e-06
-8.5773e-06
2.07838e-06
-8.66431e-06
-2.45531e-07
-1.57679e-05
1.03993e-05
-8.83209e-06
-5.51343e-06
-1.561e-05
3.87063e-06
-1.63536e-05
1.12582e-06
-1.0092e-05
-2.18025e-06
-1.75015e-05
-3.07286e-06
-7.67195e-06
-9.7935e-06
-1.11291e-05
-5.56109e-06
-2.48309e-06
-1.68555e-05
6.98512e-07
-9.08769e-06
3.29792e-06
-4.12837e-06
2.93264e-06
2.73767e-06
1.61794e-06
5.96762e-06
6.66159e-07
3.30829e-06
2.89717e-06
-1.78534e-06
5.56359e-06
-2.93817e-06
5.13147e-06
-3.05051e-06
4.52676e-06
-4.07061e-06
4.89274e-06
-5.88766e-06
8.44773e-06
-8.7113e-06
4.20235e-06
-9.31906e-06
2.68614e-06
-1.79462e-05
8.38158e-06
-1.14614e-05
3.91447e-06
-2.07009e-05
3.72614e-06
-2.2521e-05
5.69068e-06
-2.52033e-05
3.80816e-06
-2.57442e-05
-1.63934e-06
-2.49315e-05
-3.88559e-06
-2.04961e-05
-1.42289e-05
-1.54371e-05
-1.06201e-05
-9.1983e-06
-2.30943e-05
-3.67242e-06
-1.46136e-05
-7.50289e-07
-7.0505e-06
2.62959e-07
1.72442e-06
3.24769e-07
5.90581e-06
2.07557e-07
3.4255e-06
3.10472e-06
-1.85675e-06
7.42034e-06
-2.67586e-06
5.95058e-06
-4.29824e-06
6.14914e-06
-7.14906e-06
7.74356e-06
-6.57136e-06
7.87002e-06
-1.01047e-05
7.73568e-06
-1.0765e-05
3.34644e-06
-1.17022e-05
9.31882e-06
-1.26756e-05
4.88787e-06
-2.18888e-05
1.29393e-05
-2.65538e-05
1.03558e-05
-3.00301e-05
7.28442e-06
-3.03526e-05
-1.31687e-06
-2.8329e-05
-5.90921e-06
-2.39886e-05
-1.85692e-05
-1.81972e-05
-1.64115e-05
-1.00963e-05
-3.11952e-05
-6.83298e-06
-1.78769e-05
-5.62864e-06
-8.25484e-06
-4.4438e-06
5.39578e-07
-2.59638e-06
4.0584e-06
-5.53191e-07
1.38231e-06
2.55153e-06
-1.33873e-06
8.75906e-06
-4.50359e-06
9.11544e-06
-7.04694e-06
8.69249e-06
-9.36878e-06
1.00654e-05
-7.38792e-06
5.88916e-06
-1.04455e-05
1.07932e-05
-1.13546e-05
4.25554e-06
-1.24126e-05
1.03768e-05
-2.44053e-05
1.68806e-05
-2.71917e-05
1.57257e-05
-3.07345e-05
1.38985e-05
-3.26432e-05
9.19315e-06
-3.24633e-05
-1.4968e-06
-2.85701e-05
-9.80235e-06
-2.0634e-05
-2.65053e-05
-1.76172e-05
-1.94283e-05
-1.3448e-05
-3.53644e-05
-8.05607e-06
-2.32688e-05
-7.35082e-06
-8.96008e-06
-8.69386e-06
1.88262e-06
-4.06971e-06
-5.6576e-07
-1.37739e-06
-1.31001e-06
1.17414e-06
-9.68355e-07
9.72742e-06
-1.12814e-06
9.27523e-06
-3.51425e-06
1.10786e-05
-5.39043e-06
1.19416e-05
-7.02472e-06
7.52345e-06
-1.06645e-05
1.4433e-05
-2.23783e-05
1.59694e-05
-2.43881e-05
1.23866e-05
-2.47709e-05
1.72634e-05
-2.7636e-05
1.85908e-05
-3.21825e-05
1.84449e-05
-3.38508e-05
1.08615e-05
-3.3775e-05
-1.57257e-06
-3.11522e-05
-1.24252e-05
-2.52558e-05
-3.24017e-05
-2.09949e-05
-2.36892e-05
-9.80717e-06
-4.65521e-05
-1.79289e-06
-3.12831e-05
-5.14935e-06
-5.60362e-06
-8.84748e-06
5.58074e-06
-7.50501e-06
-1.90822e-06
-2.41385e-07
-8.57364e-06
9.32757e-07
-3.45477e-07
1.00729e-05
-4.00601e-06
1.29358e-05
-9.62154e-06
1.66941e-05
-1.36835e-05
1.60035e-05
-1.77876e-05
1.16276e-05
-1.22021e-05
8.84755e-06
-1.21255e-05
1.58928e-05
-2.25161e-05
2.27772e-05
-2.51343e-05
1.98815e-05
-3.20233e-05
2.54797e-05
-3.5779e-05
2.22007e-05
-3.78577e-05
1.29402e-05
-3.88217e-05
-6.08563e-07
-3.63941e-05
-1.48528e-05
-3.43085e-05
-3.44873e-05
-2.94267e-05
-2.8571e-05
-5.5509e-06
-7.04279e-05
3.35821e-06
-4.01922e-05
-3.20796e-06
9.62547e-07
-1.04366e-05
1.28094e-05
-1.00412e-05
-2.30366e-06
6.49169e-07
-1.9264e-05
1.58193e-06
-5.71545e-05
5.71545e-05
-8.44401e-05
2.72857e-05
-8.50564e-05
6.16287e-07
-6.2391e-05
-2.26654e-05
-4.81186e-05
-1.42724e-05
-4.82479e-05
1.29247e-07
-5.35105e-05
5.26265e-06
-5.27e-05
-8.10496e-07
-4.85333e-05
-4.16667e-06
-4.16656e-05
-6.86779e-06
-3.22153e-05
-9.45024e-06
-1.70693e-05
-1.5146e-05
-4.73327e-06
-1.2336e-05
1.76713e-06
-6.5004e-06
1.62755e-05
-1.45083e-05
2.54436e-05
-9.16817e-06
1.41556e-05
1.12881e-05
-3.45401e-07
1.4501e-05
-3.45401e-07
-3.91348e-05
9.62893e-05
-6.13977e-05
4.95485e-05
-5.07484e-05
-1.0033e-05
-2.05368e-05
-5.2877e-05
-7.5535e-06
-2.72557e-05
-7.10876e-06
-3.15491e-07
-1.33748e-05
1.15287e-05
-1.91468e-05
4.96152e-06
-2.37969e-05
4.83457e-07
-1.53458e-05
-1.53189e-05
8.64201e-08
-2.48825e-05
9.30064e-06
-2.43603e-05
2.24363e-05
-2.54717e-05
2.18197e-05
-5.88381e-06
1.9684e-05
-1.23726e-05
4.02827e-05
-2.97668e-05
9.15816e-06
4.24126e-05
-3.72075e-06
2.73799e-05
-4.06615e-06
-8.92904e-06
0.000105218
-2.36737e-05
6.42932e-05
-1.94234e-05
-1.42834e-05
4.03646e-06
-7.63369e-05
7.19073e-06
-3.04099e-05
-2.22205e-06
9.0973e-06
2.94079e-06
6.36584e-06
6.84782e-06
1.05449e-06
4.38039e-06
2.95088e-06
9.64843e-06
-2.0587e-05
2.57854e-05
-4.10194e-05
3.39856e-05
-3.25604e-05
2.47052e-05
-1.61914e-05
4.6383e-05
-2.75616e-05
4.97205e-05
-1.571e-05
2.92095e-05
-9.25585e-06
2.64139e-05
4.52081e-05
1.27186e-05
4.10753e-05
8.65242e-06
2.11195e-07
0.000105007
-4.23701e-06
6.87414e-05
-1.56512e-06
-1.69553e-05
1.6396e-05
-9.4298e-05
2.57031e-05
-3.97171e-05
1.13497e-05
2.34507e-05
1.96929e-06
1.57463e-05
4.29074e-06
-1.26696e-06
1.2929e-05
-5.68738e-06
1.16461e-05
-1.93041e-05
1.59977e-05
-4.5371e-05
2.06417e-05
-3.72045e-05
4.55773e-05
-4.11269e-05
4.72914e-05
-2.92757e-05
5.09084e-05
-1.9327e-05
3.49501e-05
6.70246e-06
6.01898e-05
1.99685e-05
4.66992e-05
5.45659e-05
5.53516e-05
3.09466e-06
0.000101912
4.37624e-06
6.74599e-05
1.40185e-05
-2.65975e-05
2.48641e-05
-0.000105144
5.05725e-05
-6.54255e-05
5.8687e-05
1.53362e-05
1.49846e-05
5.94487e-05
3.11004e-06
1.06076e-05
6.28942e-06
-8.86676e-06
1.20007e-05
-2.50154e-05
1.0766e-05
-4.41363e-05
3.22247e-05
-5.86632e-05
3.79347e-05
-4.68369e-05
4.37531e-05
-3.50941e-05
4.80984e-05
-2.36723e-05
3.52561e-05
1.95448e-05
3.59868e-05
1.92378e-05
4.1565e-05
4.89877e-05
9.69166e-05
-7.29772e-07
0.000102642
6.66946e-06
6.00606e-05
2.29929e-05
-4.29209e-05
2.56662e-05
-0.000107817
3.81894e-05
-7.79488e-05
5.15192e-05
2.00638e-06
3.44072e-05
7.65607e-05
-8.59349e-07
4.58741e-05
-2.21496e-05
1.24235e-05
-3.39308e-06
-4.37719e-05
1.5438e-05
-6.29673e-05
2.7789e-05
-7.10142e-05
3.63398e-05
-5.53877e-05
3.89891e-05
-3.77435e-05
4.30059e-05
-2.76891e-05
3.21971e-05
3.03536e-05
5.13711e-05
6.37496e-08
3.86161e-05
6.17427e-05
0.000135533
-2.35809e-06
0.000105
1.64657e-05
4.12368e-05
3.23334e-05
-5.87886e-05
1.42977e-05
-8.97811e-05
5.24251e-06
-6.88936e-05
3.19602e-05
-2.47113e-05
3.2115e-05
7.6406e-05
-9.55395e-06
8.75429e-05
-2.48585e-05
2.7728e-05
-4.54789e-06
-6.40826e-05
1.12005e-05
-7.87158e-05
9.22082e-06
-6.90345e-05
3.0628e-05
-7.67949e-05
3.59275e-05
-4.30429e-05
3.84872e-05
-3.02488e-05
4.50682e-05
2.37725e-05
2.56898e-05
1.94422e-05
1.48025e-05
7.26299e-05
0.000150335
-9.84328e-07
0.000105985
2.21519e-05
1.81006e-05
1.40907e-05
-5.07275e-05
1.35428e-06
-7.70446e-05
-3.23136e-06
-6.43079e-05
1.59111e-05
-4.38537e-05
4.93042e-06
8.73866e-05
-2.18186e-05
0.000114292
-3.04301e-05
3.63395e-05
-2.80572e-06
-9.1707e-05
4.6935e-06
-8.6215e-05
1.75239e-05
-8.18649e-05
1.56964e-05
-7.49674e-05
1.50611e-05
-4.24076e-05
1.40585e-05
-2.92462e-05
2.99699e-05
7.86114e-06
2.95541e-05
1.9858e-05
1.58482e-05
8.63358e-05
0.000166183
5.84932e-06
4.22358e-06
3.2759e-06
1.55092e-05
-7.64435e-06
2.76144e-05
-1.75365e-05
2.58957e-05
-3.42142e-05
2.83052e-05
-3.84284e-05
1.30618e-05
-4.72042e-05
2.46685e-05
-4.85874e-05
2.41605e-05
-5.79405e-05
2.92346e-05
-6.63388e-05
3.38781e-05
-7.7208e-05
3.30699e-05
-9.08064e-05
2.65386e-05
-0.000103245
1.18296e-05
-0.000105707
-1.23905e-05
-0.000102393
-3.78014e-05
-4.25168e-05
-8.8447e-05
-1.16767e-05
-0.000101268
2.83141e-05
-8.0183e-05
1.28165e-05
1.64601e-05
-1.35188e-05
3.91447e-05
-1.08561e-05
-4.9664e-06
1.07613e-05
-4.08814e-05
-2.09568e-05
3.33e-05
-7.61624e-06
1.18398e-05
-1.84662e-05
2.63591e-05
-1.4769e-05
2.39172e-05
-1.80746e-05
2.92013e-05
-1.77728e-05
2.80035e-05
-3.40142e-05
2.93031e-05
-3.78748e-05
2.85291e-05
-4.08592e-05
2.71448e-05
-4.86243e-05
3.69998e-05
-6.84713e-05
5.37251e-05
-9.0529e-05
5.51276e-05
-0.000115868
5.18775e-05
-0.000145316
4.12774e-05
-0.00014292
-1.47865e-05
-8.46354e-05
-9.60857e-05
-8.14086e-05
-9.16737e-05
-3.52143e-05
-0.000147462
-4.46305e-05
-7.07668e-05
-1.54107e-05
-1.27596e-05
-5.25837e-06
2.89923e-05
-2.08495e-05
1.06247e-05
-3.5994e-05
-2.57368e-05
-2.80663e-05
-2.88845e-05
9.8221e-06
2.01772e-06
2.07679e-05
1.54134e-05
-3.44123e-06
4.81263e-05
-1.37969e-05
3.9557e-05
-2.02852e-06
1.62351e-05
-2.38448e-06
2.96591e-05
-1.07617e-05
3.69064e-05
-1.49817e-05
3.13647e-05
-2.15308e-05
4.35489e-05
-5.8713e-05
9.09073e-05
-0.000128696
0.000125111
-0.00018959
0.000112772
-0.000222546
7.42331e-05
-0.000192371
-4.49609e-05
-0.000194189
-9.42678e-05
-0.000134816
-0.000151047
-0.000113014
-0.000169264
-0.000106258
-7.75227e-05
-5.78279e-05
-6.11902e-05
-3.68412e-05
8.00572e-06
-3.3622e-05
7.4055e-06
-3.1646e-05
-2.77129e-05
-1.79537e-05
-4.17586e-05
2.84289e-05
-2.64112e-05
4.41569e-05
-3.14601e-07
4.92759e-05
4.30073e-05
1.73859e-05
7.1447e-05
-5.47249e-06
3.90935e-05
5.89335e-06
1.82932e-05
2.59995e-05
1.68003e-05
3.61047e-05
2.12595e-05
1.98783e-05
5.97753e-05
-3.84952e-05
0.000149281
-0.000112748
0.000199363
-0.000190978
0.000191002
-0.000232221
0.000115476
-0.000218301
-5.88815e-05
-0.000124478
-0.00018809
-0.000118939
-0.000156587
-0.000160952
-0.00012725
-0.000125212
-0.000113263
-0.000110888
-7.55141e-05
-7.65694e-05
-2.63127e-05
-5.04056e-05
-1.87583e-05
-5.72983e-05
-2.08201e-05
-1.1569e-05
-6.3683e-05
8.23734e-06
-3.46486e-05
-2.81397e-05
3.60625e-05
-5.33703e-05
6.82379e-05
-2.67972e-05
4.48739e-05
-3.41086e-05
4.64049e-05
-5.58591e-05
4.00437e-05
-5.84126e-05
1.93538e-05
-5.51243e-05
1.79712e-05
-0.000109907
0.000114558
-0.000177367
0.000216741
-0.000219101
0.000241097
-0.000229189
0.00020109
-0.00018911
7.53963e-05
-0.000121731
-0.00012626
-0.00013221
-0.000177611
-0.000196031
-9.27661e-05
-0.000183366
-0.000139915
-0.000166952
-0.000129678
-0.000142959
-9.95065e-05
-0.000114568
-5.4704e-05
-8.86659e-05
-4.46604e-05
-7.56145e-05
-3.38716e-05
-3.10157e-05
-5.61677e-05
-7.63165e-05
4.1668e-05
-0.000185559
0.000145305
-0.000214126
9.68049e-05
-0.000199441
3.01896e-05
-0.000153552
5.15619e-07
-0.000136928
2.34197e-05
-0.000184576
6.7002e-05
-0.000318459
0.000151853
-0.000391776
0.000187875
-0.000388638
0.000213604
-0.000358248
0.000210706
-0.000220691
6.35336e-05
-0.000143431
-1.86359e-06
-0.000178285
-9.14065e-05
-0.000213149
-0.000142747
-0.000214057
-9.18582e-05
-0.000122016
-0.000231956
-9.63621e-05
-0.000155331
-7.35411e-05
-0.000122328
-7.56514e-05
-5.25937e-05
-5.407e-05
-6.62419e-05
-2.04567e-05
-6.74849e-05
-6.101e-05
9.5376e-06
-7.91908e-05
0.000120859
-0.000170871
0.000236985
-0.000211523
0.000137457
-0.000206049
2.47159e-05
-0.000227862
2.23286e-05
-0.000292929
8.84867e-05
-0.000332436
0.000106509
-0.000363768
0.000183186
-0.000377345
0.000201451
-0.000367946
0.000204205
-0.000280292
0.000123053
-0.000217727
9.69236e-07
-0.00018898
-3.06111e-05
-0.000205159
-7.52276e-05
-0.000207607
-0.000140298
-0.000175494
-0.000123971
-0.000208803
-0.000198647
-0.000175835
-0.0001883
-0.000145869
-0.000152293
-0.000112513
-8.59501e-05
-5.97726e-05
-0.000118982
-5.69467e-06
-0.000121563
-9.6145e-05
2.94403e-05
-4.92703e-05
0.000170129
-0.000133432
0.000321146
-0.000116423
0.000120448
-0.000149496
5.77893e-05
-0.000219601
9.2433e-05
-0.000276321
0.000145207
-0.000298754
0.000128941
-0.000312965
0.000197397
-0.000323068
0.000211554
-0.000282735
0.000163872
-0.000229422
6.97391e-05
-0.000216381
-1.20713e-05
-0.000224414
-2.25789e-05
-0.000227475
-7.2166e-05
-0.000228339
-0.000139434
-0.000227084
-0.000125226
-0.00024073
-0.000185001
-0.000244356
-0.000184674
-0.000213609
-0.000183039
-8.6259e-05
-0.000213301
-5.27604e-05
-0.00015248
-5.61002e-05
-0.000118223
-6.1126e-05
-9.11192e-05
-3.67401e-05
0.000206869
-9.52165e-05
0.000379623
-0.000138583
0.000163815
-0.000163855
8.30612e-05
-0.000213274
0.000141852
-0.000235635
0.000167568
-0.00028034
0.000173646
-0.000269846
0.000186902
-0.000239795
0.000181503
-0.000207119
0.000131196
-0.000199097
6.17169e-05
-0.000222595
1.14272e-05
-0.000241783
-3.3907e-06
-0.00024037
-7.35798e-05
-0.000252124
-0.00012768
-0.000213049
-0.000164301
-0.000209064
-0.000188986
-0.000205487
-0.000188251
-0.000189938
-0.000198588
-0.000168016
-0.000235223
-0.000112536
-0.000207961
-0.000112223
-0.000118536
-0.000119394
-5.39549e-05
-3.26232e-05
0.000239492
-8.59425e-05
0.000432942
-0.000140317
0.000218189
-0.0002268
0.000169544
-0.000249996
0.000165048
-0.000244902
0.000162474
-0.00024097
0.000169714
-0.000234789
0.000180721
-0.000222821
0.000169535
-0.000188485
9.68603e-05
-0.00020481
7.80416e-05
-0.00024431
5.09275e-05
-0.00024381
-3.891e-06
-0.000231658
-8.57312e-05
-0.000274939
-8.43996e-05
-0.000252066
-0.000187173
-0.000213691
-0.000227362
-0.000167717
-0.000234224
-0.000138807
-0.000227498
-0.000113288
-0.000260742
-0.000171646
-0.000149602
-0.000167909
-0.000122273
-7.76582e-05
-0.000209645
-1.73442e-05
0.000256837
-8.87845e-05
0.000504382
-0.000249985
0.000379389
-0.000289329
0.000208889
-0.000285586
0.000161305
-0.000280516
0.000157404
-0.000270944
0.000160142
-0.000238317
0.000148095
-0.000230202
0.00016142
-0.000262129
0.000128788
-0.000291477
0.000107389
-0.000359858
0.000119308
-0.000343709
-2.00396e-05
-0.000296911
-0.000132529
-0.000173858
-0.000207453
-0.000156534
-0.000204498
-0.000151586
-0.00023231
-0.000172521
-0.000213289
-0.000153723
-0.000246297
-0.000230788
-0.000183677
-0.000221612
-0.000158778
-0.000233164
-0.00011072
-5.50598e-05
-0.000255762
-1.98594e-06
0.000258823
-9.6665e-05
0.000599061
-0.000259253
0.000541977
-0.000335268
0.000284903
-0.000351978
0.000178016
-0.000275928
8.13538e-05
-0.000257015
0.00014123
-0.000339306
0.000230386
-0.000394069
0.000216183
-0.000452186
0.000186904
-0.000416035
7.12377e-05
-0.000298098
1.37164e-06
-0.000231258
-8.68791e-05
-0.000188436
-0.000175351
-0.0002636
-0.000132289
-0.000257524
-0.000210574
-0.000251596
-0.000238238
-0.000219582
-0.000245303
-0.00020594
-0.000259939
-0.000227363
-0.000162255
-0.000231641
-0.0001545
-0.000125459
-0.000216903
-7.41854e-05
-0.000106333
-1.42204e-05
0.000273043
-5.54906e-05
0.000640331
-0.000168024
0.000654511
-0.000273088
0.000389967
-0.000333002
0.00023793
-0.000406042
0.000154394
-0.000435821
0.000171009
-0.000414977
0.000209541
-0.000430294
0.0002315
-0.000422521
0.000179131
-0.000415389
6.41061e-05
-0.000379644
-3.43731e-05
-0.000321389
-0.000145135
-0.00029847
-0.00019827
-0.000201871
-0.000228888
-0.000243882
-0.000168563
-0.000236066
-0.000246054
-0.00023112
-0.000250249
-0.000245085
-0.000245973
-0.000268752
-0.000138588
-0.000226584
-0.000196668
-0.000219003
-0.000224484
-0.000162937
-0.000130252
-4.93255e-05
0.000322369
-5.05675e-05
0.000641573
-0.000153802
0.000757745
-0.000120244
0.00035641
-0.000231854
0.00034954
-0.000224353
0.000146892
-0.000314224
0.00026088
-0.000382066
0.000277383
-0.000348861
0.000198294
-0.000337448
0.000167718
-0.000221524
-5.1818e-05
-0.000180602
-7.52947e-05
-0.00020834
-0.000117396
-0.000196575
-0.000210035
-0.000155942
-0.00026952
-8.25531e-05
-0.000241952
-0.000102339
-0.000226267
-0.000208051
-0.000144538
-0.000231939
-0.000222084
-0.000164313
-0.000206214
-0.000171767
-0.000189214
-0.0002735
-0.000122751
-0.000150994
-0.000285442
-4.36487e-05
0.000366017
-4.13126e-05
0.000639237
-1.58092e-05
0.000732242
-2.76085e-05
0.000368209
-4.82715e-05
0.000370203
-9.49452e-05
0.000193566
-0.000118928
0.000284863
-0.00010116
0.000259614
-0.000156862
0.000253996
-5.5284e-05
6.61407e-05
-3.98025e-05
-6.72994e-05
-4.73241e-05
-6.77731e-05
-1.5042e-05
-0.000149679
5.9936e-05
-0.000285014
1.23269e-05
-0.000221911
-5.09645e-05
-0.000178661
-0.000124378
-0.000152854
-0.000145994
-0.000122921
-0.000195183
-0.000172895
-0.000244231
-0.000157166
-0.000319759
-0.000113687
-0.000289057
-0.000153453
-0.000102917
-0.000337133
-2.89444e-05
0.000394962
3.63697e-05
0.000573923
0.000124369
0.000644243
3.26597e-05
0.000459917
6.44491e-05
0.000338413
6.22658e-05
0.000195749
7.16216e-05
0.000275508
9.08239e-05
0.000240412
0.000158039
0.000186781
0.000229202
-5.02238e-06
0.000283727
-0.000121824
0.000322105
-0.000106151
0.000301535
-0.000129109
0.000170863
-0.000154341
5.75867e-05
-0.000108635
-1.73858e-05
-0.000103688
-5.05341e-05
-0.000119706
-7.84588e-05
-9.49968e-05
-0.000170974
-8.03793e-05
-0.000222117
-0.000106022
-0.000232962
-0.000102842
-0.000231921
-0.000154495
-9.35949e-05
-0.000241243
-8.77751e-06
0.000403739
8.72397e-05
0.000477906
0.000225348
0.000506135
0.00021126
0.000474006
0.000250359
0.000299313
0.000241203
0.000204905
0.000318106
0.000198605
0.000386105
0.000172412
0.000453853
0.000119033
0.000497549
-4.87179e-05
0.000491146
-0.000115422
0.000481473
-9.64783e-05
0.000420614
-6.82492e-05
0.000309353
-4.30801e-05
0.000123268
7.74491e-05
-2.4381e-05
4.39614e-05
-0.000136356
-7.73117e-06
-0.000183155
-4.81979e-05
-0.000184514
-7.90195e-05
-0.000214304
-7.62325e-05
-0.00022229
-9.48557e-05
-0.00022907
-0.000147716
-0.00012794
-0.000194724
3.62963e-06
0.00040011
9.2055e-05
0.00038948
0.000223861
0.000374329
0.000389993
0.000307873
0.000457735
0.000231572
0.000474367
0.000188272
0.000482488
0.000190484
0.000490496
0.000164404
0.000531522
7.80076e-05
0.000547623
-6.48191e-05
0.000560089
-0.000127888
0.000552317
-8.87064e-05
0.000538383
-5.4315e-05
0.000369073
0.00012623
0.000241319
0.000205204
5.30034e-05
0.000232277
-0.000102846
0.000148118
-0.00018656
3.55159e-05
-0.000216664
-4.89153e-05
-0.000229217
-6.36796e-05
-0.000188056
-0.000136016
-0.000187728
-0.000148044
-0.000141021
-0.000174647
1.52882e-05
0.000384821
9.24912e-05
0.000312277
0.000264701
0.000202119
0.000403901
0.000168673
0.000489746
0.000145727
0.00055102
0.000126999
0.000510486
0.000231018
0.000518955
0.000155935
0.000545925
5.10373e-05
0.000505636
-2.45301e-05
0.000403752
-2.6004e-05
0.000342358
-2.73126e-05
0.000290854
-2.81099e-06
0.00024134
0.000175744
0.00012899
0.000317554
-4.33831e-05
0.00040465
-0.000172187
0.000276922
-0.000212987
7.63154e-05
-0.000221756
-4.0146e-05
-0.000222654
-6.27813e-05
-0.000187305
-0.000171365
-0.000139907
-0.000195442
-0.000133154
-0.000147775
7.71079e-05
0.000307714
0.000177726
0.00021166
0.0003311
4.87446e-05
0.00043496
6.48131e-05
0.000480574
0.000100113
0.000442973
0.0001646
0.000479633
0.000194358
0.000460424
0.000175144
0.000364089
0.000147373
0.000283996
5.55622e-05
0.000236745
2.12473e-05
0.000212993
-3.56003e-06
0.000166561
4.36201e-05
6.27615e-05
0.000279543
-7.11289e-05
0.000451444
-0.000167864
0.000501385
-0.000120002
0.000229061
-0.000212708
0.000169021
-0.000223929
-2.89246e-05
-0.000136486
-0.000150224
-0.000120414
-0.000187438
-0.00012302
-0.000192835
-0.000158774
-9.73995e-05
5.45978e-05
0.000253116
8.39713e-05
0.000182286
7.84712e-05
5.42448e-05
6.91962e-05
7.40882e-05
0.000132731
3.6578e-05
0.000175462
0.000121869
0.000249751
0.000120069
0.000285673
0.000139222
0.000253094
0.000179952
0.000204017
0.000104639
0.000191456
3.38081e-05
0.000146377
4.15186e-05
4.65073e-05
0.00014349
-8.22496e-05
0.0004083
-0.000144662
0.000513857
-0.000181668
0.00053839
-0.000203059
0.000250452
-0.000171378
0.00013734
-0.000166075
-3.42275e-05
-0.000162466
-0.000153834
-0.000158414
-0.00019149
-0.000149
-0.000202249
-0.000235956
-7.18189e-05
2.62832e-05
0.000226833
7.44579e-05
0.000134111
4.52732e-05
8.34295e-05
4.97e-05
6.96615e-05
8.23e-05
3.97791e-06
0.000172866
3.13024e-05
0.00019168
0.000101256
0.000230556
0.000100346
0.000228203
0.000182305
0.000193657
0.000139185
0.000148532
7.89328e-05
9.67122e-05
9.33386e-05
-2.89695e-05
0.000269171
-0.000111734
0.000491065
-0.000114025
0.000516147
-7.8893e-05
0.000503258
-0.000176265
0.000347824
-0.000137612
9.86868e-05
-0.000105537
-6.63026e-05
-0.000119346
-0.000140024
-9.70784e-05
-0.000213757
-6.4396e-05
-0.000234932
-0.000261315
-3.90369e-05
6.32325e-07
0.0002262
1.85059e-05
0.000116238
3.82168e-05
6.37186e-05
8.98095e-05
1.80688e-05
0.00012286
-2.90724e-05
0.000171996
-1.78337e-05
0.000204229
6.9023e-05
0.000202673
0.000101901
0.000208606
0.000176372
0.0001529
0.000194891
0.000128682
0.000103151
5.55927e-05
0.000166428
-5.16587e-05
0.000376423
-6.8279e-05
0.000507685
-7.45707e-05
0.000522439
-5.0431e-05
0.000479118
-4.05728e-05
0.000337966
-7.01271e-05
0.000128241
-6.74249e-05
-6.90048e-05
-3.01105e-05
-0.000177338
-8.0047e-05
-0.000163821
-3.72806e-05
-0.000277698
-0.000289191
-9.40508e-06
-4.62056e-06
0.000230821
7.27867e-06
0.000104339
5.63672e-05
1.46301e-05
0.000109716
-3.52796e-05
0.000129861
-4.92179e-05
0.000131005
-1.89774e-05
0.000189425
1.06025e-05
0.000197587
9.374e-05
0.000199007
0.000174951
0.000140311
0.000253587
6.89471e-05
0.000174515
-2.49334e-05
0.000260308
-7.91303e-05
0.00043062
-8.5219e-05
0.000513774
-3.0657e-05
0.000467876
-3.98032e-06
0.000452442
8.22698e-05
0.000251716
4.47326e-05
0.000165778
8.19378e-06
-3.2466e-05
1.63342e-05
-0.000185479
1.65601e-05
-0.000164047
1.53232e-05
-0.000276461
-0.000291919
1.80518e-05
9.50019e-06
0.000221321
2.71158e-05
8.6723e-05
5.0382e-05
-8.63608e-06
7.15411e-05
-5.64386e-05
7.04939e-05
-4.81707e-05
8.83215e-05
-3.6805e-05
0.000126059
-2.71348e-05
0.000156275
6.35242e-05
0.000115169
0.000216057
8.60168e-05
0.000282739
1.70138e-05
0.000243518
-4.91732e-05
0.000326495
-8.57104e-05
0.000467157
-9.20046e-05
0.000520068
-5.94308e-06
0.000381815
2.75063e-05
0.000418992
7.12427e-05
0.000207979
0.000113786
0.000123235
0.000108929
-2.76086e-05
4.96532e-05
-0.000126203
0.000124991
-0.000239385
4.30928e-05
-0.000194563
-0.000304394
5.5568e-05
-8.41902e-06
0.00022974
-8.95699e-06
8.7261e-05
-2.6112e-05
8.51901e-06
-6.30668e-05
-1.94838e-05
-6.12824e-05
-4.9955e-05
-1.53536e-05
-8.27338e-05
2.27699e-05
-6.52583e-05
3.80256e-05
4.82686e-05
1.04271e-05
0.000243655
-3.66476e-05
0.000329814
-0.00014901
0.00035588
-0.000109544
0.000287029
-0.000126541
0.000484154
-0.000101111
0.000494637
-1.36436e-06
0.000282069
4.693e-05
0.000370698
9.75979e-05
0.000157311
8.99275e-05
0.000130905
0.000105171
-4.2852e-05
0.00017212
-0.000193152
8.12783e-05
-0.000148543
0.000146184
-0.000259469
-0.000284398
0.000126188
-2.13676e-05
0.000251107
-6.9591e-05
0.000135484
-0.000132296
7.1224e-05
-0.000183482
3.17025e-05
-0.000184685
-4.87516e-05
-0.000198455
-6.89639e-05
-0.000220774
-4.29398e-05
-0.000231267
5.87614e-05
-0.000225823
0.000238212
-0.000210938
0.000314928
-0.000200477
0.00034542
-0.000230662
0.000317214
-0.000172732
0.000426224
-6.39479e-05
0.000385853
-5.97652e-05
0.000277886
7.80541e-06
0.000303127
6.49264e-05
0.00010019
0.000159965
3.58666e-05
0.000195542
-7.84293e-05
0.000116397
-0.000114007
0.000107556
-0.000139702
9.6253e-05
-0.000248166
-0.000269607
8.14621e-05
-3.20657e-05
0.000283173
-0.000123601
0.00022702
-0.000190877
0.0001385
-0.000209464
5.02895e-05
-0.000272305
1.40899e-05
-0.000328959
-1.23097e-05
-0.000357721
-1.41778e-05
-0.000347162
4.82017e-05
-0.000315603
0.000206653
-0.000287119
0.000286444
-0.000246495
0.000304796
-0.000263996
0.000334715
-0.000219096
0.000381324
-0.000144343
0.0003111
-6.29456e-05
0.000196488
3.82192e-05
0.000201963
7.54468e-05
6.29629e-05
0.000116351
-5.03734e-06
0.000125912
-8.79911e-05
0.000142514
-0.000130609
0.000200527
-0.000197715
0.000179464
-0.000227103
-0.000252366
0.000162223
-3.43083e-05
0.000317481
-9.28897e-05
0.000285601
-0.000204752
0.000250362
-0.000272638
0.000118175
-0.00034323
8.46821e-05
-0.000376304
2.0765e-05
-0.000406119
1.5637e-05
-0.000400197
4.22795e-05
-0.000352646
0.000159103
-0.000203928
0.000137725
-0.000175618
0.000276486
-0.000151809
0.000310906
-0.000114325
0.00034384
-0.000101823
0.000298597
-1.6865e-05
0.000111531
0.000104564
8.05333e-05
0.000161461
6.06584e-06
0.00019104
-3.46162e-05
0.000218255
-0.000115206
0.00023877
-0.000151124
0.000176654
-0.000135598
0.000185271
-0.00023572
-0.000157674
9.05796e-05
-5.12489e-05
0.00036873
-7.50705e-05
0.000309423
-0.000175891
0.000351183
-0.000231346
0.00017363
-0.000315178
0.000168514
-0.000345809
5.1396e-05
-0.000367367
3.71955e-05
-0.000365971
4.08829e-05
-0.000317188
0.00011032
-0.000332997
0.000153535
-0.000233609
0.000177098
-9.87608e-05
0.000176057
-5.235e-05
0.00029743
2.66138e-05
0.000219634
8.31869e-05
5.49574e-05
0.000145904
1.78157e-05
0.000194959
-4.29886e-05
0.000223325
-6.29821e-05
0.000227836
-0.000119718
0.000223361
-0.000146649
0.000202184
-0.000114421
9.46538e-05
-0.00012819
-0.000181009
0.000117988
-6.59645e-05
0.000434695
-3.28598e-05
0.000276319
-9.60496e-05
0.000414373
-0.000133424
0.000211004
-0.000180422
0.000215512
-0.000218599
8.95732e-05
-0.000233404
5.20011e-05
-0.000236934
4.44121e-05
-0.000191774
6.51603e-05
-0.000158379
0.000120139
-9.99187e-05
0.000118638
-3.92382e-05
0.000115377
4.10045e-05
0.000217187
0.000137851
0.000122787
0.000179417
1.33915e-05
0.000232906
-3.5673e-05
0.00023494
-4.5023e-05
0.000216507
-4.45486e-05
0.000203734
-0.000106945
0.000174537
-0.000117452
0.000142506
-8.23893e-05
0.000139762
-0.000125446
-0.000120519
7.92716e-05
-1.43973e-05
0.000449092
-5.11235e-05
0.000313045
-4.23927e-05
0.000405642
-9.87444e-05
0.000267355
-4.83226e-05
0.00016509
-8.15576e-05
0.000122808
-8.01365e-05
5.05801e-05
-8.60612e-05
5.03367e-05
-5.55211e-05
3.46202e-05
-1.34293e-05
7.80476e-05
1.17858e-05
9.34233e-05
6.20525e-05
6.511e-05
0.000145573
0.000133666
0.000188553
7.98068e-05
0.000184997
1.69479e-05
0.000152011
-2.68741e-06
0.000156661
-4.96727e-05
0.000210777
-9.86646e-05
0.000163521
-5.96889e-05
0.000141614
-9.55448e-05
0.000152521
-9.3297e-05
0.000131097
-0.000104021
-0.00011418
0.000124758
-1.14909e-05
0.000460583
-5.15733e-05
0.000353127
1.57787e-05
0.00033829
-1.54764e-05
0.00029861
-4.43498e-05
0.000193963
-3.69913e-05
0.00011545
-3.62991e-05
4.98879e-05
-5.61581e-06
1.96533e-05
1.22134e-05
1.6791e-05
4.46853e-05
4.55757e-05
8.19725e-05
5.61361e-05
0.000104455
4.26277e-05
0.000176583
6.15374e-05
0.000220449
3.59416e-05
0.000226986
1.0411e-05
0.000236218
-1.19202e-05
0.000218163
-3.16174e-05
0.000173146
-5.36475e-05
0.000155238
-4.17806e-05
0.000133686
-7.39927e-05
0.000118621
-7.82326e-05
9.88504e-05
-8.42506e-05
-0.000109667
9.43374e-05
4.41644e-06
0.000456167
-1.13584e-05
0.000368902
-1.20112e-05
0.000338943
-1.22965e-05
0.000298896
-1.14661e-05
0.000193133
1.39624e-05
9.00212e-05
2.80481e-05
3.58022e-05
4.25661e-05
5.13541e-06
5.40134e-05
5.3437e-06
8.15159e-05
1.80731e-05
0.000107971
2.96813e-05
0.000126805
2.37938e-05
0.000153114
3.52276e-05
0.000158749
3.03069e-05
0.000144246
2.49135e-05
0.000119592
1.27343e-05
0.000110885
-2.29104e-05
0.000104856
-4.76181e-05
0.000137734
-7.46589e-05
0.000104756
-4.10153e-05
9.55673e-05
-6.90436e-05
7.81628e-05
-6.68461e-05
-8.14439e-05
4.99399e-05
-3.7806e-06
0.000459947
-2.36958e-05
0.000388817
-2.17639e-05
0.000337011
-5.51136e-06
0.000282643
2.15566e-05
0.000166065
5.32767e-05
5.83012e-05
5.49105e-05
3.41684e-05
5.64982e-05
3.54772e-06
6.09853e-05
8.56641e-07
7.50658e-05
3.99269e-06
9.81395e-05
6.60763e-06
0.000112756
9.17703e-06
0.000131395
1.65885e-05
0.000147611
1.40914e-05
0.000163084
9.44e-06
0.000171506
4.31278e-06
0.000166191
-1.75958e-05
0.000144409
-2.5836e-05
0.000110062
-4.03118e-05
0.00010177
-3.27235e-05
9.59669e-05
-6.32402e-05
7.05315e-05
-4.14107e-05
-8.13075e-05
7.03951e-05
-9.08089e-06
0.000469028
-2.41299e-05
0.000403866
-3.31687e-05
0.00034605
4.61049e-07
0.000249014
3.54804e-05
0.000131046
3.52034e-05
5.85782e-05
5.28972e-05
1.64746e-05
5.85111e-05
-2.06622e-06
6.24729e-05
-3.1051e-06
6.91709e-05
-2.70531e-06
7.73804e-05
-1.60183e-06
8.54092e-05
1.14818e-06
9.95197e-05
2.47808e-06
0.00011053
3.08071e-06
0.00010406
1.59106e-05
0.000105061
3.31162e-06
7.70764e-05
1.03886e-05
7.33788e-05
-2.21385e-05
6.8179e-05
-3.5112e-05
8.4665e-05
-4.92095e-05
6.95986e-05
-4.81737e-05
6.96262e-05
-4.14383e-05
-6.10497e-05
4.93684e-05
9.74863e-06
0.00045928
3.7993e-06
0.000409815
-1.67519e-05
0.000366601
5.84265e-07
0.000231677
2.29034e-05
0.000108727
4.62273e-05
3.52543e-05
5.74816e-05
5.22027e-06
5.9633e-05
-4.21763e-06
6.10352e-05
-4.50732e-06
6.35496e-05
-5.21965e-06
6.91382e-05
-7.19045e-06
7.04153e-05
-1.28927e-07
7.66172e-05
-3.72376e-06
6.06815e-05
1.90164e-05
6.63786e-05
1.02136e-05
6.5691e-05
3.99922e-06
8.96317e-05
-1.35521e-05
7.58195e-05
-8.32626e-06
6.70385e-05
-2.6331e-05
4.14748e-05