/*--------------------------------*- C++ -*----------------------------------*\
| =========                 |                                                 |
| \\      /  F ield         | foam-extend: Open Source CFD                    |
|  \\    /   O peration     | Version:     4.1                                |
|   \\  /    A nd           | Web:         http://www.foam-extend.org         |
|    \\/     M anipulation  |                                                 |
\*---------------------------------------------------------------------------*/
FoamFile
{
    version     2.0;
    format      ascii;
    class       volVectorField;
    location    "0.85";
    object      U_0;
}
// * * * * * * * * * * * * * * * * * * * * * * * * * * * * * * * * * * * * * //

dimensions      [0 1 -1 0 0 0 0];

internalField   nonuniform List<vector> 
2268
(
(-0.00277775 0.011496 0)
(-0.0278913 0.010161 0)
(-0.0267631 0.00804629 0)
(-0.0447469 -0.00536073 0)
(-0.060135 0.00591583 0)
(-0.10801 0.00340276 0)
(-0.130712 0.00148786 0)
(-0.131688 -0.00282758 0)
(-0.139545 -0.019492 0)
(-0.088939 -0.00499824 0)
(-0.0828408 0.0148595 0)
(-0.104468 -0.0275912 0)
(-0.0861944 0.0204142 0)
(-0.086497 -0.00425118 0)
(-0.0741853 0.00714769 0)
(-0.0420902 -0.00509369 0)
(0.0124145 -0.0326316 0)
(0.0357456 -0.000234978 0)
(0.0542778 -0.0019273 0)
(0.0467474 0.00241653 0)
(0.0344927 0.00386965 0)
(0.0159026 0.00327484 0)
(0.0119568 0.00309066 0)
(0.00396579 0.00291074 0)
(-0.01121 0.00204051 0)
(-0.0107027 -0.000506022 0)
(-0.0528788 -0.000827054 0)
(-0.0633573 0.00974934 0)
(-0.100187 0.0299919 0)
(-0.132844 0.00990493 0)
(-0.118698 0.00774204 0)
(-0.112394 0.0115689 0)
(-0.0862269 0.0395108 0)
(-0.100303 -0.00877997 0)
(-0.11091 -0.00613791 0)
(-0.0954159 0.0316804 0)
(-0.115002 -0.0555058 0)
(-0.0988512 0.020386 0)
(-0.0781056 -0.0426668 0)
(-0.012752 -0.0159874 0)
(0.028371 -0.0193174 0)
(0.0437139 -0.00171994 0)
(0.038806 0.00923156 0)
(0.0285108 0.0121394 0)
(0.0113865 0.00736672 0)
(0.00154979 0.0100326 0)
(0.00156663 0.0147143 0)
(-0.0250976 0.0120567 0)
(-0.0300546 0.0187698 0)
(-0.0592774 0.00741578 0)
(-0.0730155 0.0194753 0)
(-0.106888 0.00618907 0)
(-0.12607 0.00735042 0)
(-0.126369 -0.0144731 0)
(-0.123159 0.0317498 0)
(-0.127609 -0.0285901 0)
(-0.130716 -0.00957594 0)
(-0.117897 0.00789 0)
(-0.146417 -0.00396692 0)
(-0.14999 -0.0247728 0)
(-0.125274 -0.0217661 0)
(-0.107138 -0.0263199 0)
(-0.0668199 -0.0457203 0)
(-0.0112411 -0.0258208 0)
(0.0255533 -0.0234259 0)
(0.0275921 0.0201499 0)
(0.0193341 0.0205958 0)
(0.00691597 0.0103228 0)
(0.00323673 0.00659452 0)
(-0.0147185 0.0139734 0)
(-0.0143769 0.0184132 0)
(-0.0317396 0.0143823 0)
(-0.0591568 0.0246853 0)
(-0.0592855 0.0292335 0)
(-0.113424 0.0121606 0)
(-0.14176 0.0115245 0)
(-0.12961 0.0146754 0)
(-0.15904 0.0445751 0)
(-0.17208 -0.0166497 0)
(-0.161135 0.0383015 0)
(-0.199274 0.00982262 0)
(-0.206025 -0.0100905 0)
(-0.205522 -0.0146142 0)
(-0.190072 -0.0514766 0)
(-0.140504 -0.0482189 0)
(-0.106822 -0.0884397 0)
(-0.0407705 -0.0418924 0)
(-0.0158189 -0.00417992 0)
(0.00324165 0.00203784 0)
(0.00343619 0.0273533 0)
(0.00168563 0.0147865 0)
(0.00169019 0.0163861 0)
(-0.0123229 0.0279752 0)
(-0.0182248 0.0204636 0)
(-0.0231284 0.0202537 0)
(-0.0478716 0.0370738 0)
(-0.0625605 0.0348232 0)
(-0.13237 0.0405573 0)
(-0.162567 0.0225106 0)
(-0.151294 0.0483594 0)
(-0.192584 0.00597181 0)
(-0.170522 0.0722834 0)
(-0.183887 0.037224 0)
(-0.236405 0.0181881 0)
(-0.242886 -0.0110666 0)
(-0.240122 -0.0329611 0)
(-0.211707 -0.0578718 0)
(-0.175646 -0.0310866 0)
(-0.110001 -0.0744884 0)
(-0.0575233 -0.0661726 0)
(-0.048985 -0.0500287 0)
(-0.040132 0.0104121 0)
(-0.0301411 0.0521757 0)
(-0.0101096 0.011141 0)
(0.000859395 0.00697599 0)
(-0.0170126 0.0290923 0)
(-0.0245876 0.0241765 0)
(-0.0456707 0.0263879 0)
(-0.0682625 0.0264172 0)
(-0.0792371 0.024265 0)
(-0.138555 0.0685418 0)
(-0.167075 0.0215888 0)
(-0.166856 0.0717609 0)
(-0.191026 0.0362197 0)
(-0.20255 0.0932492 0)
(-0.231723 0.0424025 0)
(-0.256558 0.0353639 0)
(-0.262016 0.000144075 0)
(-0.254462 -0.0255607 0)
(-0.19322 -0.0787636 0)
(-0.142423 -0.0953448 0)
(-0.141935 -0.182439 0)
(-0.0721351 -0.0713512 0)
(-0.0565076 -0.0692064 0)
(-0.0594806 -0.00496558 0)
(-0.0797306 0.0024847 0)
(-0.039815 0.000844889 0)
(-0.00299565 0.0198634 0)
(-0.0141954 0.036046 0)
(-0.00247454 0.0461918 0)
(-0.0286555 0.0387361 0)
(-0.0789015 0.0466765 0)
(-0.0752479 0.0238047 0)
(-0.134446 0.0696526 0)
(-0.175008 0.0324558 0)
(-0.18307 0.0726922 0)
(-0.200753 0.094604 0)
(-0.199852 0.128471 0)
(-0.24334 0.0606923 0)
(-0.266198 0.0348541 0)
(-0.271554 -0.0153326 0)
(-0.266862 -0.0590391 0)
(-0.218586 -0.121083 0)
(-0.191684 -0.171626 0)
(-0.150457 -0.308692 0)
(-0.00155546 -0.102699 0)
(-0.0293115 -0.0590177 0)
(-0.0506894 0.0225975 0)
(-0.0911208 -0.0072629 0)
(-0.0252485 -0.0110466 0)
(0.015992 -0.0136909 0)
(-0.00895457 0.041071 0)
(-0.00374346 0.0227722 0)
(-0.0570061 0.0476948 0)
(-0.101009 0.0471564 0)
(-0.113952 0.0338171 0)
(-0.169976 0.0490168 0)
(-0.186093 0.0946407 0)
(-0.17321 0.0875252 0)
(-0.182971 0.138477 0)
(-0.228532 0.106239 0)
(-0.279859 0.0750725 0)
(-0.291414 0.0439462 0)
(-0.309032 0.00581555 0)
(-0.309058 -0.0911085 0)
(-0.270202 -0.141165 0)
(-0.293585 -0.163298 0)
(-0.173655 -0.288435 0)
(0.0831355 -0.131787 0)
(0.00592012 -0.0251483 0)
(-0.05393 0.0375865 0)
(-0.112742 -0.0056526 0)
(-0.0444666 -0.0494911 0)
(0.052841 0.0274381 0)
(-0.333508 0.149574 0)
(-0.646114 0.0153337 0)
(-0.744487 -0.0248613 0)
(-0.606224 -0.124683 0)
(-0.40914 -0.0837078 0)
(-0.373897 -0.0118963 0)
(-0.417191 -0.0179642 0)
(-0.437687 -0.0223985 0)
(-0.409724 -0.030939 0)
(-0.354783 -0.07355 0)
(-0.305742 -0.0802676 0)
(-0.202823 -0.0476683 0)
(-0.0699559 -0.000595393 0)
(-0.00597558 -0.0902201 0)
(0.0561319 -0.069076 0)
(0.201485 -0.0216551 0)
(0.2016 0.00685539 0)
(0.0240792 0.030158 0)
(-0.0334898 0.00948119 0)
(-0.245945 0.245446 0)
(-0.459928 0.160872 0)
(-0.524998 0.0253564 0)
(-0.256111 -0.151509 0)
(-0.0764858 -0.102225 0)
(-0.0554299 0.00135721 0)
(-0.0637576 0.0869908 0)
(-0.136731 0.0124192 0)
(-0.191636 -0.0310137 0)
(-0.178184 -0.0223034 0)
(-0.0622138 -0.0374285 0)
(0.0662224 -0.0974432 0)
(0.199208 -0.0889343 0)
(0.161083 0.00487542 0)
(0.192615 -0.0308415 0)
(0.375168 -0.0989321 0)
(0.276471 0.0806109 0)
(-0.0110614 0.065768 0)
(-0.0526987 -0.012886 0)
(-0.146187 0.387112 0)
(-0.1395 0.184189 0)
(-0.23479 -0.0889146 0)
(-0.0547964 -0.212445 0)
(0.133622 -0.0847124 0)
(-0.0292044 0.00044613 0)
(-0.0121676 0.0363683 0)
(0.0717815 0.0497742 0)
(0.0332091 0.0432354 0)
(0.0994044 -0.0740931 0)
(0.19122 -0.129075 0)
(0.233491 -0.0736011 0)
(0.324316 -0.0819491 0)
(0.393846 -0.0539404 0)
(0.370947 -0.0505103 0)
(0.455149 -0.0913977 0)
(0.37416 0.18888 0)
(0.0792129 0.124418 0)
(0.117798 -0.0198548 0)
(-0.0911867 0.356591 0)
(0.0774042 0.245741 0)
(-0.136873 -0.00658124 0)
(0.0901021 -0.307487 0)
(0.22674 -0.107362 0)
(0.154411 0.046358 0)
(0.0299867 0.00366038 0)
(0.0127546 -0.0431435 0)
(0.0555577 -0.0265833 0)
(0.149558 -0.0690508 0)
(0.199284 -0.162597 0)
(0.276335 -0.206592 0)
(0.340974 -0.0805306 0)
(0.397524 -0.134429 0)
(0.381115 -0.0586795 0)
(0.452459 -0.0108972 0)
(0.555919 0.135799 0)
(0.443596 0.161144 0)
(0.305821 0.130685 0)
(-0.0606826 0.360203 0)
(0.093887 0.234895 0)
(0.0253504 -0.144171 0)
(0.199195 -0.360857 0)
(0.229342 -0.190944 0)
(0.560596 0.131573 0)
(0.409445 0.112572 0)
(0.0291404 0.0161838 0)
(0.0208016 -0.0516627 0)
(0.082909 -0.0568738 0)
(0.107709 -0.146042 0)
(0.225113 -0.228287 0)
(0.280573 -0.248241 0)
(0.348861 -0.210068 0)
(0.349848 -0.0757596 0)
(0.42324 0.0478575 0)
(0.604658 0.112364 0)
(0.46807 0.21321 0)
(0.208198 0.259808 0)
(-0.0667638 0.359884 0)
(0.0324316 0.234449 0)
(0.155269 -0.151043 0)
(0.225813 -0.356921 0)
(0.190044 -0.252691 0)
(0.420621 0.0291632 0)
(0.848301 0.545232 0)
(0.224642 0.118504 0)
(-0.232731 0.000916309 0)
(-0.132241 -0.122637 0)
(0.0837648 -0.142699 0)
(0.174922 -0.167864 0)
(0.266323 -0.324712 0)
(0.34394 -0.245799 0)
(0.282113 -0.0907848 0)
(0.422904 0.0946874 0)
(0.495767 0.0122355 0)
(0.422517 0.180793 0)
(0.173115 0.386922 0)
(-0.0670193 0.363591 0)
(-0.0107511 0.171559 0)
(0.291606 -0.140394 0)
(0.215566 -0.514144 0)
(0.0389062 -0.314592 0)
(0.0522503 -0.0235646 0)
(0.42526 0.41862 0)
(0.151048 0.217549 0)
(-0.43761 0.0707735 0)
(-0.233785 -0.157239 0)
(0.103806 -0.333084 0)
(0.0689421 -0.365784 0)
(0.208621 -0.306175 0)
(0.293442 -0.181565 0)
(0.269818 -0.10342 0)
(0.360537 0.10166 0)
(0.370644 0.00332666 0)
(0.38067 0.23722 0)
(0.0475298 0.541802 0)
(-0.0810233 0.381817 0)
(0.0671643 0.121227 0)
(0.288542 -0.274595 0)
(0.127401 -0.580734 0)
(-0.0790998 -0.221243 0)
(0.0470771 -0.264785 0)
(0.182657 0.295385 0)
(0.000729595 0.369363 0)
(-0.389552 0.138147 0)
(-0.0937271 -0.312604 0)
(0.000520266 -0.512692 0)
(0.0774885 -0.468886 0)
(0.234547 -0.251393 0)
(0.223236 -0.126742 0)
(0.195694 -0.0980871 0)
(0.226612 0.0644756 0)
(0.243711 0.12122 0)
(0.240144 0.298466 0)
(0.045063 0.553684 0)
(-0.00245916 0.0235696 0)
(0.0462333 0.107845 0)
(0.000153753 0.0920882 0)
(-0.11182 0.085176 0)
(-0.130553 0.0674459 0)
(-0.12393 0.0803856 0)
(-0.171368 0.118114 0)
(-0.17987 0.0968128 0)
(-0.195766 0.122367 0)
(-0.234048 0.103994 0)
(-0.26589 0.108676 0)
(-0.307848 0.0653411 0)
(-0.378377 -0.0129528 0)
(-0.407686 -0.107178 0)
(-0.392269 -0.075006 0)
(-0.422589 -0.18637 0)
(-0.168219 -0.270552 0)
(0.0891891 -0.186198 0)
(0.106713 0.0552458 0)
(0.0126615 0.0750452 0)
(-0.114596 -0.0265201 0)
(-0.0376902 -0.131068 0)
(0.117151 -0.0489064 0)
(-0.0333988 0.0458312 0)
(-0.0344766 0.110711 0)
(-0.0952119 0.127927 0)
(-0.125506 0.110621 0)
(-0.128018 0.140531 0)
(-0.116758 0.0895151 0)
(-0.134924 0.0758841 0)
(-0.15161 0.0821407 0)
(-0.15441 0.104313 0)
(-0.212691 0.146308 0)
(-0.298593 0.137902 0)
(-0.380997 0.13492 0)
(-0.516963 0.136001 0)
(-0.526532 0.0415607 0)
(-0.615479 -0.246255 0)
(-0.574087 -0.54245 0)
(-0.307907 -0.489808 0)
(-0.17613 -0.424367 0)
(-0.163403 0.0647229 0)
(0.0580095 0.212321 0)
(-0.0888665 -0.0102837 0)
(-0.0821309 -0.181383 0)
(-0.187436 -0.102806 0)
(-0.0252941 0.0397615 0)
(0.0971684 0.0943082 0)
(0.0531078 0.183576 0)
(-0.0801462 0.108664 0)
(-0.0159868 0.0798925 0)
(-0.00509954 0.131821 0)
(-0.0275396 0.13013 0)
(-0.0475133 0.117903 0)
(-0.0718763 0.162944 0)
(-0.209868 0.253395 0)
(-0.371032 0.287795 0)
(-0.611988 0.26428 0)
(-0.85307 0.176039 0)
(-0.79876 -0.234413 0)
(-0.774057 -0.583836 0)
(-0.634832 -0.648037 0)
(-0.477641 -0.680581 0)
(-0.353621 -0.587182 0)
(-0.442366 -0.169878 0)
(-0.34139 0.192802 0)
(-0.152885 0.099887 0)
(-0.0996544 -0.154393 0)
(-0.358832 -0.115101 0)
(-0.00672257 -0.0180119 0)
(0.208705 0.0185399 0)
(0.405872 0.186265 0)
(0.272019 0.277357 0)
(-0.0402349 0.12235 0)
(-0.0184165 0.0928208 0)
(0.088574 0.212762 0)
(0.103308 0.304443 0)
(0.160953 0.392219 0)
(-0.0037682 0.40022 0)
(-0.280253 0.620012 0)
(-0.581158 0.573323 0)
(-0.904028 0.373908 0)
(-0.859343 -0.353076 0)
(-0.873674 -0.6656 0)
(-0.837983 -0.596677 0)
(-0.721555 -0.568798 0)
(-0.514849 -0.447261 0)
(-0.444506 -0.275538 0)
(-0.391072 -0.0736401 0)
(-0.202244 -0.054019 0)
(-0.176869 -0.0683792 0)
(-0.261516 -0.018482 0)
(-0.0611178 -0.196941 0)
(0.109094 -0.0221141 0)
(-0.302244 0.417934 0)
(-0.10752 0.428348 0)
(-0.117033 0.429102 0)
(-0.147668 0.131602 0)
(-0.254498 -0.101561 0)
(-0.205873 -0.155978 0)
(-0.217023 0.0594676 0)
(-0.609609 0.777178 0)
(-0.836556 0.962452 0)
(-0.899169 0.918748 0)
(-0.804419 0.577708 0)
(-0.721769 -0.311826 0)
(-0.915726 -0.779376 0)
(-0.792164 -0.601469 0)
(-0.73404 -0.455615 0)
(-0.671413 -0.438263 0)
(-0.606129 -0.308897 0)
(-0.468702 -0.124462 0)
(-0.384419 -0.0658307 0)
(-0.297516 -0.0802976 0)
(-0.259822 -0.0574909 0)
(-0.135022 -0.0372801 0)
(-0.520493 0.331003 0)
(-0.884608 0.167474 0)
(-0.820911 -0.0693328 0)
(-0.767289 -0.100868 0)
(-0.464566 0.163239 0)
(-0.519932 0.236021 0)
(-0.958621 0.391005 0)
(-1.54125 0.819045 0)
(-1.66589 1.04299 0)
(-1.57612 1.0084 0)
(-1.09074 0.672122 0)
(-0.575715 -0.0435852 0)
(-0.642981 -0.604079 0)
(-0.834452 -0.703871 0)
(-0.813803 -0.678154 0)
(-0.954155 -0.68004 0)
(-0.713368 -0.552326 0)
(-0.622849 -0.452488 0)
(-0.382072 -0.285002 0)
(-0.22079 -0.326438 0)
(-0.182352 -0.381556 0)
(0.037587 -0.173771 0)
(-0.178867 0.329524 0)
(-0.456435 0.765447 0)
(-0.867032 0.553137 0)
(-0.807779 0.252525 0)
(-0.789268 0.12184 0)
(-1.00819 0.170619 0)
(-1.16762 0.618666 0)
(-1.40141 0.737434 0)
(-1.61489 0.815169 0)
(-1.61612 0.876936 0)
(-1.26098 0.672242 0)
(-0.877738 0.217797 0)
(-0.70917 -0.00686458 0)
(-0.750038 -0.198211 0)
(-0.830333 -0.489927 0)
(-0.780261 -0.63861 0)
(-0.875056 -1.00718 0)
(-0.749656 -0.593549 0)
(-0.5844 -0.487661 0)
(-0.524862 -0.438283 0)
(-0.334653 -0.504182 0)
(-0.12103 -0.519054 0)
(0.0185325 -0.34032 0)
(-0.343609 0.582361 0)
(-0.391107 1.08946 0)
(-0.597086 0.571488 0)
(-0.394087 0.128251 0)
(-0.702709 0.184402 0)
(-1.01567 0.477023 0)
(-1.11163 0.842194 0)
(-1.2791 0.858728 0)
(-1.33319 0.919259 0)
(-1.19571 0.711763 0)
(-0.952374 0.2841 0)
(-0.813201 -0.157047 0)
(-0.829813 -0.164327 0)
(-0.88107 -0.299278 0)
(-0.882181 -0.589391 0)
(-0.941177 -0.851152 0)
(-0.993832 -0.938166 0)
(-1.06655 -0.852771 0)
(-0.892116 -0.736572 0)
(-0.750379 -0.736314 0)
(-0.430868 -0.437562 0)
(-0.242033 -0.4004 0)
(-0.239338 -0.370224 0)
(-0.34366 0.705182 0)
(-0.214991 1.36793 0)
(-0.500751 1.02845 0)
(-0.522205 0.301228 0)
(-0.745219 0.500343 0)
(-0.902744 0.715851 0)
(-1.08116 0.765528 0)
(-1.11005 0.72894 0)
(-0.953726 0.685443 0)
(-0.827214 0.518824 0)
(-0.734718 0.240054 0)
(-0.7775 -0.0470615 0)
(-0.944241 -0.079983 0)
(-0.888481 -0.272628 0)
(-0.980161 -0.492657 0)
(-0.94297 -0.669526 0)
(-0.88219 -0.73248 0)
(-0.853779 -0.747488 0)
(-0.840922 -0.7554 0)
(-0.765543 -0.89227 0)
(-0.451712 -0.746072 0)
(-0.406982 -0.517696 0)
(-0.424006 -0.459356 0)
(-0.276119 0.858682 0)
(-0.157352 1.51402 0)
(-0.441571 1.45411 0)
(-0.770423 0.636364 0)
(-1.00652 0.661033 0)
(-0.973267 0.634637 0)
(-0.95872 0.675171 0)
(-0.941196 0.707789 0)
(-0.904317 0.660176 0)
(-0.774705 0.489898 0)
(-0.704371 0.295429 0)
(-0.868028 0.234856 0)
(-0.95309 0.0697049 0)
(-0.851105 -0.229397 0)
(-1.00638 -0.493288 0)
(-1.09515 -0.717907 0)
(-0.967938 -0.886342 0)
(-0.71924 -0.884781 0)
(-0.571668 -0.843154 0)
(-0.682751 -0.977698 0)
(-0.787604 -0.958887 0)
(-0.644302 -0.914949 0)
(-0.788799 -0.615934 0)
(-0.235461 1.0012 0)
(0.0824136 1.76275 0)
(-0.750922 1.47479 0)
(-1.16244 0.755528 0)
(-1.17741 0.631128 0)
(-1.16424 0.638435 0)
(-1.17293 0.656876 0)
(-1.03315 0.8054 0)
(-0.966855 0.783868 0)
(-0.95653 0.798967 0)
(-1.00849 0.603933 0)
(-1.26281 0.437993 0)
(-1.45032 -0.156878 0)
(-1.21533 -0.492554 0)
(-1.20069 -0.708711 0)
(-1.12807 -0.740216 0)
(-1.07905 -0.876148 0)
(-0.775983 -0.864656 0)
(-0.632175 -0.978884 0)
(-0.80923 -1.15561 0)
(-0.875407 -1.05452 0)
(-0.865191 -0.72628 0)
(-0.974119 -0.398784 0)
(-0.268372 1.06251 0)
(0.239769 2.05438 0)
(-0.886326 1.73667 0)
(-1.20106 0.900001 0)
(-1.36528 0.64077 0)
(-1.73312 0.517118 0)
(-1.884 0.673442 0)
(-1.49638 1.00835 0)
(-1.46012 1.05915 0)
(-1.65549 0.886697 0)
(-1.66483 0.625613 0)
(-2.00353 0.295598 0)
(-1.87698 -0.176992 0)
(-1.34166 -0.56816 0)
(-1.14027 -0.85994 0)
(-1.00051 -0.823184 0)
(-0.994129 -0.903043 0)
(-0.916924 -0.929027 0)
(-0.885318 -1.09726 0)
(-0.89415 -1.21915 0)
(-0.916362 -1.17096 0)
(-0.904569 -0.810276 0)
(-0.83694 -0.379689 0)
(-0.496421 0.94473 0)
(0.155 2.48962 0)
(-0.815391 2.40225 0)
(-1.1583 1.3182 0)
(-1.23757 0.767673 0)
(-1.60304 0.600141 0)
(-1.84675 0.86422 0)
(-1.79465 1.01029 0)
(-1.65589 0.850839 0)
(-1.67627 0.727392 0)
(-1.60969 0.337098 0)
(-1.58957 -0.19226 0)
(-1.25487 -0.391261 0)
(-1.26559 -0.757376 0)
(-0.956873 -0.897725 0)
(-0.927963 -1.02653 0)
(-0.978628 -0.981298 0)
(-0.940389 -1.01027 0)
(-0.972189 -1.03539 0)
(-1.09846 -0.980368 0)
(-0.998209 -0.877622 0)
(-0.873244 -0.927061 0)
(-1.02236 -0.669078 0)
(-0.792603 1.10403 0)
(-0.0337204 2.80717 0)
(-0.660274 2.80273 0)
(-0.58673 1.70568 0)
(-0.796054 1.09558 0)
(-1.01692 0.607909 0)
(-1.407 0.774104 0)
(-1.49534 1.05997 0)
(-1.45606 0.989653 0)
(-1.24148 0.587121 0)
(-1.44359 0.0236567 0)
(-1.51134 -0.355841 0)
(-0.962762 -0.840277 0)
(-0.832575 -1.16044 0)
(-0.61221 -1.04199 0)
(-0.615898 -1.13965 0)
(-0.594857 -1.02299 0)
(-0.809523 -1.03801 0)
(-0.800229 -0.936385 0)
(-1.08565 -0.89377 0)
(-1.15317 -0.802904 0)
(-1.12008 -0.887135 0)
(-1.15033 -0.588221 0)
(-0.907205 1.28611 0)
(0.191123 2.84888 0)
(-0.386753 3.05383 0)
(0.191405 2.68526 0)
(-0.201459 1.55806 0)
(-0.249355 1.42821 0)
(-0.647253 1.18384 0)
(-0.806286 1.20824 0)
(-0.627525 1.32572 0)
(-0.539486 0.617283 0)
(-0.0246661 -0.338394 0)
(-0.227496 -0.64598 0)
(-0.421618 -0.772728 0)
(0.349384 -1.57058 0)
(0.477466 -1.01088 0)
(-0.310947 -0.725436 0)
(-0.397331 -0.675671 0)
(-0.562781 -0.646137 0)
(-0.578055 -0.745521 0)
(-0.952325 -0.713296 0)
(-1.14448 -0.749113 0)
(-1.16507 -0.727483 0)
(-1.27528 -0.721455 0)
(-0.924651 1.44992 0)
(0.602226 2.42262 0)
(0.186983 2.93194 0)
(0.604488 2.47913 0)
(0.169579 1.32311 0)
(0.677799 1.28756 0)
(0.36535 1.02015 0)
(0.193026 0.786314 0)
(0.436163 0.766555 0)
(0.752813 0.135787 0)
(1.06206 -0.220054 0)
(1.2172 -0.239517 0)
(1.22749 -0.509618 0)
(1.35027 -0.741379 0)
(0.951795 -0.705131 0)
(-0.114964 -0.583825 0)
(-0.183367 -0.568925 0)
(-0.509848 -0.388978 0)
(-0.550021 -0.627954 0)
(-0.834915 -0.701703 0)
(-0.938787 -0.73743 0)
(-0.952616 -0.618756 0)
(-0.97888 -0.685899 0)
(-0.873564 1.56677 0)
(0.747052 1.99064 0)
(0.697576 2.34484 0)
(0.990224 1.98055 0)
(0.803637 1.48312 0)
(1.09496 1.40827 0)
(1.06384 1.18807 0)
(1.3332 1.06233 0)
(1.54317 0.711067 0)
(1.90483 -0.184093 0)
(2.08727 -0.659506 0)
(2.10737 -0.564252 0)
(1.89981 -0.390191 0)
(1.94932 -0.28915 0)
(1.67726 -0.0602993 0)
(-0.089065 -0.199073 0)
(-0.35403 -0.350997 0)
(-0.652329 -0.311917 0)
(-0.700085 -0.423774 0)
(-0.814505 -0.612245 0)
(-0.874878 -0.648019 0)
(-0.888324 -0.58904 0)
(-0.868066 -0.564553 0)
(-0.811177 1.69379 0)
(0.808751 1.87405 0)
(0.596116 1.79877 0)
(1.09046 1.75188 0)
(1.73672 1.68418 0)
(1.80492 1.40953 0)
(1.85742 1.3723 0)
(1.89329 1.1756 0)
(1.9378 0.759242 0)
(2.3303 -0.314985 0)
(2.38888 -0.692045 0)
(2.40652 -0.620336 0)
(2.26528 -0.501664 0)
(2.36786 0.0250683 0)
(2.02978 0.635947 0)
(0.458011 0.594101 0)
(-0.172538 0.355482 0)
(-0.628139 0.00115539 0)
(-0.793992 -0.216715 0)
(-0.925842 -0.423946 0)
(-0.842127 -0.535367 0)
(-0.74539 -0.539323 0)
(-0.776761 -0.433746 0)
(-0.63221 1.77018 0)
(0.688941 1.42611 0)
(0.661164 1.57348 0)
(1.24967 1.66517 0)
(1.80997 1.58102 0)
(2.039 1.25013 0)
(2.19646 1.23741 0)
(2.17193 1.07873 0)
(2.254 0.234738 0)
(2.31475 -0.316017 0)
(1.64854 -0.294123 0)
(1.48385 -0.25962 0)
(1.70395 -0.0247351 0)
(1.94016 0.840267 0)
(1.36374 1.01882 0)
(-0.350209 1.29605 0)
(-0.426701 0.707051 0)
(-0.836073 0.259417 0)
(-0.784822 -0.138598 0)
(-0.890651 -0.421565 0)
(-0.866628 -0.668651 0)
(-0.632752 -0.772682 0)
(-0.567854 -0.778672 0)
(-0.0446508 1.41249 0)
(0.570215 1.02431 0)
(0.92173 0.632946 0)
(1.50219 0.533276 0)
(1.74433 0.404057 0)
(2.07278 0.542526 0)
(2.27683 0.830847 0)
(2.17297 0.801117 0)
(1.58893 0.359995 0)
(1.08237 0.189452 0)
(0.992509 0.0920056 0)
(0.81761 -0.100782 0)
(0.904941 0.0352299 0)
(0.945858 0.835234 0)
(-0.143604 1.58157 0)
(-0.753514 1.72592 0)
(-0.740515 1.3251 0)
(-0.850565 0.697855 0)
(-0.801862 -0.175556 0)
(-0.929662 -0.526053 0)
(-0.958523 -0.707029 0)
(-0.651225 -0.822464 0)
(-0.454958 -1.09404 0)
(0.0225114 0.969811 0)
(0.508486 0.722902 0)
(0.203976 0.0770424 0)
(0.366075 0.255785 0)
(0.5392 0.373336 0)
(1.18821 0.603514 0)
(1.17361 0.610232 0)
(1.14837 0.719587 0)
(1.09389 0.688381 0)
(0.827483 0.410352 0)
(0.732231 0.221271 0)
(0.690933 0.0752977 0)
(0.420186 0.303349 0)
(-0.015394 1.33559 0)
(-0.559022 1.92893 0)
(-0.681537 2.03976 0)
(-0.764715 1.71303 0)
(-0.761504 0.571743 0)
(-0.607645 -0.280694 0)
(-0.6679 -0.65305 0)
(-0.580755 -0.75857 0)
(-0.716829 -0.759181 0)
(-0.423605 -0.978948 0)
(-0.160152 0.904216 0)
(0.497105 0.57055 0)
(0.0608625 0.325159 0)
(0.255374 0.27986 0)
(0.402674 0.1142 0)
(0.70453 0.365072 0)
(0.665244 0.441232 0)
(0.790441 0.687608 0)
(0.988036 0.741357 0)
(0.85082 0.459952 0)
(0.630953 0.212107 0)
(0.56238 0.24596 0)
(0.108886 0.803854 0)
(-0.328994 1.77372 0)
(-0.525097 2.08023 0)
(-0.409521 2.07145 0)
(-0.656948 1.60639 0)
(-0.660923 0.458943 0)
(-0.396073 -0.157971 0)
(-0.527213 -0.526146 0)
(-0.359718 -0.718752 0)
(-0.469741 -0.823861 0)
(-0.389389 -0.936448 0)
(-0.16143 0.896097 0)
(0.16412 0.470495 0)
(-0.0243966 0.310298 0)
(0.285349 0.262211 0)
(0.921423 -0.059124 0)
(0.71824 -0.0679541 0)
(0.683663 0.314027 0)
(0.824913 0.588391 0)
(0.847372 0.765074 0)
(0.788995 0.655965 0)
(0.456843 0.419549 0)
(0.494231 0.451957 0)
(-0.0968605 1.27329 0)
(-0.370102 1.93443 0)
(-0.464758 2.07593 0)
(-0.106972 1.83415 0)
(-0.278272 1.26585 0)
(-0.280054 0.319967 0)
(-0.244633 -0.363145 0)
(-0.222573 -0.599123 0)
(-0.205267 -1.0746 0)
(-0.360709 -1.00121 0)
(-0.13129 -1.10419 0)
(-0.104393 0.864711 0)
(0.0613266 0.399466 0)
(-0.00731571 0.182578 0)
(0.412889 -0.00873798 0)
(0.853084 -0.20987 0)
(0.896484 -0.160756 0)
(0.787128 0.191824 0)
(0.684415 0.404346 0)
(0.812422 0.674452 0)
(0.835526 0.951403 0)
(0.189659 0.982022 0)
(0.350951 0.84067 0)
(-0.581951 1.5697 0)
(-0.358672 1.99111 0)
(-0.357481 1.945 0)
(-0.0252034 1.78591 0)
(0.0559357 1.36201 0)
(0.443184 0.624418 0)
(0.230855 -0.177096 0)
(-0.061114 -0.659168 0)
(0.11975 -1.22096 0)
(0.169146 -1.05365 0)
(0.0530769 -1.03228 0)
(0.0499034 0.917529 0)
(-0.00848038 0.374301 0)
(0.258316 -0.0830993 0)
(0.267417 -0.333433 0)
(0.298471 -0.158374 0)
(0.269276 -0.0426047 0)
(0.388036 -0.0150283 0)
(0.521984 0.258937 0)
(0.734995 0.716821 0)
(0.729691 0.947444 0)
(-0.113823 1.52977 0)
(0.223328 1.11155 0)
(-0.726873 1.76797 0)
(-0.420942 2.13288 0)
(-0.282415 1.83641 0)
(0.211863 1.75986 0)
(0.165471 1.53216 0)
(0.390666 0.767464 0)
(0.486084 -0.0341074 0)
(0.288609 -0.8297 0)
(0.455334 -0.94745 0)
(0.400293 -1.2065 0)
(0.271092 -1.2392 0)
(-0.014268 0.862174 0)
(-0.144534 0.286622 0)
(0.0643123 0.0174973 0)
(-0.260102 -0.0552494 0)
(-0.280185 -0.222837 0)
(-0.190918 -0.279419 0)
(0.0329157 -0.271829 0)
(0.0475355 0.228261 0)
(0.126081 0.868989 0)
(-0.0898125 1.3645 0)
(-0.623542 1.72048 0)
(-0.399657 1.64796 0)
(-0.647616 2.0433 0)
(-0.429402 2.15243 0)
(-0.340004 1.88448 0)
(0.306115 1.57517 0)
(0.261155 1.34974 0)
(0.461594 0.769196 0)
(0.245373 -0.173606 0)
(0.569925 -0.727498 0)
(0.670498 -0.948304 0)
(0.533453 -1.20843 0)
(0.567629 -1.18223 0)
(-0.065555 0.896988 0)
(-0.273212 0.387226 0)
(-0.257946 0.0882811 0)
(-0.738193 -0.0704302 0)
(-0.751454 -0.306599 0)
(-0.726876 -0.327345 0)
(-0.784252 -0.185532 0)
(-0.941657 0.447656 0)
(-0.889749 1.03117 0)
(-0.741574 1.27258 0)
(-0.897398 1.46809 0)
(-0.859105 1.87536 0)
(-0.921808 2.04545 0)
(-0.519188 1.99382 0)
(-0.465634 1.65288 0)
(0.0463751 1.39823 0)
(-0.0108082 0.88477 0)
(0.500864 0.414169 0)
(0.669913 -0.451613 0)
(0.827255 -0.804959 0)
(0.772184 -1.04748 0)
(0.694137 -1.01221 0)
(0.617775 -1.08789 0)
(-0.117849 1.00454 0)
(-0.363571 0.638337 0)
(-0.535516 0.45558 0)
(-0.980982 0.313805 0)
(-1.00292 -0.0359491 0)
(-1.1088 -0.176745 0)
(-1.37666 -0.113478 0)
(-1.42078 0.348541 0)
(-1.31296 0.967908 0)
(-1.15808 1.19492 0)
(-1.0885 1.21542 0)
(-1.03209 1.48807 0)
(-1.09879 1.64946 0)
(-0.596327 1.22572 0)
(-0.525141 0.832298 0)
(0.0290605 0.918609 0)
(0.416101 0.287954 0)
(0.701726 -0.134236 0)
(0.809846 -0.582864 0)
(0.964509 -0.683843 0)
(0.939701 -0.821086 0)
(0.749916 -0.960401 0)
(0.672913 -1.05926 0)
(-0.0968751 1.14359 0)
(-0.403603 1.04651 0)
(-0.649555 0.674283 0)
(-0.91694 0.498634 0)
(-1.1948 0.1821 0)
(-1.50307 0.0940795 0)
(-1.58191 0.00794842 0)
(-1.6375 0.149735 0)
(-1.46722 0.786914 0)
(-1.43041 1.04603 0)
(-1.30728 1.09518 0)
(-1.05557 1.21412 0)
(-1.0413 1.35881 0)
(-0.472087 1.13583 0)
(-0.273851 0.611481 0)
(0.139827 0.580456 0)
(0.587804 0.157745 0)
(0.644158 0.0110149 0)
(0.802794 -0.362553 0)
(0.910024 -0.512179 0)
(0.887419 -0.824335 0)
(0.718998 -0.935872 0)
(0.681948 -1.09746 0)
(-0.0315068 1.32104 0)
(-0.373952 1.13873 0)
(-0.641516 1.18456 0)
(-0.674914 1.14709 0)
(-1.12398 0.492382 0)
(-1.33977 0.236963 0)
(-1.48805 0.16446 0)
(-1.50504 0.159282 0)
(-1.2815 0.411954 0)
(-1.35368 0.787515 0)
(-1.12479 1.1927 0)
(-0.745329 1.24458 0)
(-0.574921 1.24477 0)
(-0.074569 1.06987 0)
(0.293219 0.567361 0)
(0.350447 0.278246 0)
(0.695485 -0.0980332 0)
(0.786012 -0.238155 0)
(0.890977 -0.511214 0)
(0.849886 -0.641633 0)
(0.880334 -0.930722 0)
(0.696016 -0.993651 0)
(0.663677 -0.906125 0)
(-0.19944 1.55853 0)
(-0.23604 1.42656 0)
(-0.275239 1.53553 0)
(-0.392427 1.36762 0)
(-0.807622 0.751395 0)
(-0.844276 0.479583 0)
(-0.897501 0.351859 0)
(-0.939432 0.385727 0)
(-0.80508 0.450316 0)
(-0.707891 0.503973 0)
(-0.573273 1.11255 0)
(-0.189493 1.14149 0)
(-0.0830801 1.04658 0)
(0.373964 0.636406 0)
(0.665994 0.164828 0)
(0.716023 -0.153491 0)
(0.977554 -0.285219 0)
(0.926117 -0.281362 0)
(0.816585 -0.406024 0)
(0.719677 -0.468233 0)
(0.595263 -0.655469 0)
(0.538175 -0.61476 0)
(0.549402 -0.521031 0)
(-0.124276 1.71777 0)
(-0.0960728 2.1085 0)
(-0.227248 1.58429 0)
(-0.335486 1.59171 0)
(-0.472189 0.933646 0)
(-0.140579 0.843316 0)
(-0.540698 0.351494 0)
(-0.393519 0.23222 0)
(-0.293105 0.319946 0)
(-0.126128 0.342203 0)
(-0.0128553 0.494456 0)
(0.129453 0.498007 0)
(0.338356 0.60897 0)
(0.732565 0.323704 0)
(0.682364 0.0228961 0)
(0.775632 -0.073562 0)
(1.12071 -0.266559 0)
(0.998759 -0.356372 0)
(0.691313 -0.446703 0)
(0.549987 -0.452016 0)
(0.573172 -0.457788 0)
(0.577546 -0.432602 0)
(0.480138 -0.435378 0)
(0.024732 1.74307 0)
(-0.20563 2.34897 0)
(-0.065828 1.83455 0)
(0.108 2.02784 0)
(-0.281245 1.38326 0)
(-0.0722628 0.876535 0)
(-0.248938 0.393362 0)
(-0.0544547 0.175472 0)
(0.00806727 0.159241 0)
(0.0792416 0.233162 0)
(0.26121 0.213078 0)
(0.328305 0.326454 0)
(0.498033 0.406598 0)
(0.787128 0.258578 0)
(0.863254 0.0768801 0)
(0.848745 -0.00437079 0)
(0.909755 -0.13479 0)
(0.768607 -0.391378 0)
(0.602436 -0.35102 0)
(0.541108 -0.29571 0)
(0.483972 -0.294243 0)
(0.410728 -0.353772 0)
(0.3305 -0.459289 0)
(0.0395155 1.88047 0)
(-0.0148951 2.4778 0)
(-0.139334 2.4132 0)
(0.0467002 2.05978 0)
(-0.215924 1.38323 0)
(0.0689913 0.745155 0)
(0.0372173 0.299156 0)
(0.154406 0.0442569 0)
(0.170002 0.0476923 0)
(0.231828 0.101924 0)
(0.369002 0.175143 0)
(0.426482 0.235619 0)
(0.530907 0.327298 0)
(0.644209 0.221137 0)
(0.556852 0.0774908 0)
(0.605507 -0.0465244 0)
(0.818903 -0.277575 0)
(0.745072 -0.318614 0)
(0.6518 -0.263671 0)
(0.412237 -0.279518 0)
(0.381815 -0.297924 0)
(0.335917 -0.290352 0)
(0.278336 -0.363061 0)
(-0.0433063 1.86935 0)
(-0.0519804 2.54275 0)
(-0.191657 2.32169 0)
(0.0150002 2.01347 0)
(-0.0856849 1.30275 0)
(0.228675 0.483654 0)
(0.178024 0.192997 0)
(0.21199 0.017942 0)
(0.212802 -0.00193307 0)
(0.240662 0.027043 0)
(0.321483 0.0549135 0)
(0.400902 0.0951385 0)
(0.442588 0.157721 0)
(0.534106 0.168225 0)
(0.575232 0.0892359 0)
(0.658318 0.0925581 0)
(0.659251 -0.0589121 0)
(0.608923 -0.102269 0)
(0.483006 -0.297847 0)
(0.377485 -0.269225 0)
(0.387457 -0.260442 0)
(0.33749 -0.253983 0)
(0.240814 -0.272795 0)
(-0.246423 1.80454 0)
(0.00710583 2.64524 0)
(-0.299378 2.26352 0)
(0.00875318 1.78664 0)
(0.0200044 0.990371 0)
(0.185597 0.282317 0)
(0.142707 0.0688433 0)
(0.22076 -0.00222776 0)
(0.222712 -0.00150501 0)
(0.240153 0.0137886 0)
(0.274402 0.0203123 0)
(0.297993 0.0267636 0)
(0.341858 0.0656218 0)
(0.407054 0.026023 0)
(0.429025 0.0514498 0)
(0.381565 -0.0203804 0)
(0.44566 -0.0453193 0)
(0.556143 -0.186593 0)
(0.480164 -0.244002 0)
(0.43253 -0.198385 0)
(0.236027 -0.215385 0)
(0.27889 -0.312928 0)
(0.232385 -0.392125 0)
(-0.420614 1.85484 0)
(0.453408 2.80475 0)
(-0.299496 2.35466 0)
(0.101172 1.58908 0)
(-0.0544249 0.791505 0)
(0.178599 0.188068 0)
(0.184311 0.0309658 0)
(0.226944 -0.0407616 0)
(0.222214 -0.0540812 0)
(0.230982 -0.0581504 0)
(0.245557 -0.0480293 0)
(0.276454 -0.0143296 0)
(0.257078 -0.034597 0)
(0.33481 0.0154542 0)
(0.477126 0.0453882 0)
(0.461639 0.0258289 0)
(0.407637 0.0849786 0)
(0.292808 0.0176856 0)
(0.271061 -0.0416162 0)
(0.226079 -0.173812 0)
(0.0878837 -0.168446 0)
(0.132651 -0.261072 0)
(0.315738 -0.434439 0)
(-0.418293 2.00516 0)
(0.798022 2.82292 0)
(-0.0591639 2.52754 0)
(0.178145 1.5793 0)
(0.100877 0.618239 0)
(0.213111 0.151986 0)
(0.216118 -0.0113845 0)
(0.234926 -0.0241007 0)
(0.230849 -0.0185855 0)
(0.220366 0.00604385 0)
(0.210526 -0.01344 0)
(0.191481 0.00763561 0)
(0.262953 0.00410738 0)
(0.417674 0.114617 0)
(0.391124 0.110212 0)
(0.309167 0.0172956 0)
(0.35125 -0.17146 0)
(0.313078 -0.136046 0)
(0.187158 -0.152519 0)
(0.184875 -0.151276 0)
(0.121896 -0.14267 0)
(0.164527 -0.198903 0)
(0.268542 -0.392407 0)
(-0.451613 2.55933 0)
(0.604423 2.90767 0)
(-0.0836032 2.55062 0)
(0.313912 1.505 0)
(0.262928 0.568927 0)
(0.319183 0.166879 0)
(0.31051 -0.00477223 0)
(0.267285 -0.0452772 0)
(0.255905 -0.0350549 0)
(0.219643 -0.0396855 0)
(0.225619 -0.0382795 0)
(0.202287 -0.0762362 0)
(0.254897 0.0297188 0)
(0.4554 -0.0335827 0)
(0.409279 -0.00259812 0)
(0.273628 0.0532114 0)
(0.336959 -0.0311223 0)
(0.293944 -0.0646428 0)
(0.262432 -0.0162412 0)
(0.227173 0.0380553 0)
(0.148725 -0.0270025 0)
(0.143008 -0.215332 0)
(0.228675 -0.423784 0)
(-0.396377 2.72052 0)
(0.253767 2.76845 0)
(-0.140304 2.37261 0)
(0.427487 1.14641 0)
(0.336358 0.418351 0)
(0.340505 0.157623 0)
(0.291454 0.0525089 0)
(0.263851 0.119148 0)
(0.21811 0.0852034 0)
(0.211525 0.0747415 0)
(0.161104 0.0444943 0)
(0.234239 -0.0212664 0)
(0.247938 0.0599139 0)
(0.260314 0.0410917 0)
(0.448766 -0.0274519 0)
(0.284622 -0.0193169 0)
(0.257572 -0.0492578 0)
(0.436727 -0.134249 0)
(0.429095 -0.0337882 0)
(0.266311 -0.0263729 0)
(0.182871 -0.0208993 0)
(0.234835 -0.262969 0)
(0.184832 -0.383345 0)
(-0.338542 2.6858 0)
(0.112826 2.59471 0)
(0.0399186 2.15969 0)
(0.423521 1.04915 0)
(0.358468 0.546231 0)
(0.343523 0.316983 0)
(0.385733 0.174836 0)