/*--------------------------------*- C++ -*----------------------------------*\
| =========                 |                                                 |
| \\      /  F ield         | foam-extend: Open Source CFD                    |
|  \\    /   O peration     | Version:     4.1                                |
|   \\  /    A nd           | Web:         http://www.foam-extend.org         |
|    \\/     M anipulation  |                                                 |
\*---------------------------------------------------------------------------*/
FoamFile
{
    version     2.0;
    format      ascii;
    class       regIOobject;
    location    "0.85/uniform";
    object      profilingInfo;
}
// * * * * * * * * * * * * * * * * * * * * * * * * * * * * * * * * * * * * * //

profilingInfo
(

    {
        id              12;
        parentId        10;
        description     "Foam::Time::writeObject - outputTime";
        calls           17;
        totalTime       0.268409;
        childTime       0;
        onStack         1;
    }

    {
        id              10;
        parentId        1;
        description     "Foam::Time::writeObject";
        calls           782;
        totalTime       0.269205;
        childTime       0.268409;
        onStack         1;
    }

    {
        id              1;
        description     "application::main";
        calls           1;
        totalTime       16.1359;
        childTime       11.9881;
        onStack         1;
    }

    {
        id              11;
        parentId        1;
        description     "FO::DataSummary::execute";
        calls           781;
        totalTime       0.043051;
        childTime       0;
        onStack         0;
    }

    {
        id              4;
        parentId        1;
        description     "functionObjectList::read";
        calls           1;
        totalTime       8.49715;
        childTime       0;
        onStack         0;
    }

    {
        id              5;
        parentId        1;
        description     "fvMatrix::solve_C";
        calls           3128;
        totalTime       0.434589;
        childTime       0.332396;
        onStack         0;
    }

    {
        id              2;
        parentId        1;
        description     "fvMatrix::solve_pcorr";
        calls           1;
        totalTime       0.00011;
        childTime       6e-05;
        onStack         0;
    }

    {
        id              7;
        parentId        1;
        description     "fvMatrix::solve_pd";
        calls           3128;
        totalTime       2.74399;
        childTime       2.62924;
        onStack         0;
    }

    {
        id              6;
        parentId        5;
        description     "lduMatrix::solver_C";
        calls           3128;
        totalTime       0.332396;
        childTime       0;
        onStack         0;
    }

    {
        id              9;
        parentId        8;
        description     "lduMatrix::solver_coarsestLevelCorr";
        calls           12098;
        totalTime       0.079993;
        childTime       0;
        onStack         0;
    }

    {
        id              3;
        parentId        2;
        description     "lduMatrix::solver_pcorr";
        calls           1;
        totalTime       6e-05;
        childTime       0;
        onStack         0;
    }

    {
        id              8;
        parentId        7;
        description     "lduMatrix::solver_pd";
        calls           3128;
        totalTime       2.62924;
        childTime       0.079993;
        onStack         0;
    }
);


// ************************************************************************* //
