/*--------------------------------*- C++ -*----------------------------------*\
| =========                 |                                                 |
| \\      /  F ield         | foam-extend: Open Source CFD                    |
|  \\    /   O peration     | Version:     4.1                                |
|   \\  /    A nd           | Web:         http://www.foam-extend.org         |
|    \\/     M anipulation  |                                                 |
\*---------------------------------------------------------------------------*/
FoamFile
{
    version     2.0;
    format      ascii;
    class       volScalarField;
    location    "0.55";
    object      alpha1;
}
// * * * * * * * * * * * * * * * * * * * * * * * * * * * * * * * * * * * * * //

dimensions      [0 0 0 0 0 0 0];

internalField   nonuniform List<scalar> 
2268
(
1
1
1
1
1
1
1
1
1
1
0.999029
0.998607
0.998689
0.999071
0.999571
0.999964
1
1
1
1
1
1
1
1
1
1
1
1
1
1
1
1
0.999006
0.997637
0.997502
0.997868
0.998525
0.999208
0.999722
1
1
1
1
1
1
1
0.999139
0.999035
0.998262
0.99887
0.998993
0.999893
1
1
0.998317
0.995168
0.994377
0.995049
0.996101
0.997322
0.998371
0.999148
0.999702
0.999907
1
1
1
1
1
0.992767
0.992624
0.991262
0.992774
0.993099
0.995141
0.997175
0.995679
0.991384
0.988302
0.989002
0.991224
0.99332
0.99535
0.996923
0.998123
0.999023
0.999395
0.999694
0.999939
1
1
1
0.976162
0.976084
0.973882
0.97738
0.978089
0.9824
0.986121
0.982774
0.977286
0.976757
0.980761
0.98562
0.989035
0.992173
0.994495
0.996355
0.997796
0.998453
0.999067
0.99955
0.999907
0.999985
0.999941
0.937008
0.937421
0.934221
0.941633
0.94312
0.951626
0.958915
0.953673
0.951432
0.957281
0.967923
0.976743
0.982038
0.986917
0.990417
0.993306
0.995594
0.996742
0.997911
0.998809
0.999402
0.999694
1
0.854032
0.855861
0.85179
0.865766
0.868707
0.883863
0.898369
0.894794
0.904474
0.923678
0.946104
0.961309
0.970059
0.978084
0.98361
0.988122
0.991753
0.993783
0.995883
0.997481
0.998488
0.999393
1
0.703947
0.70805
0.703753
0.725362
0.730315
0.751638
0.778321
0.788095
0.821331
0.864246
0.906719
0.933398
0.949386
0.963218
0.972371
0.979524
0.985297
0.9889
0.992513
0.995244
0.99696
0.999209
1
0.152555
0.174248
0.18758
0.210477
0.237792
0.266227
0.288536
0.297936
0.298797
0.30405
0.328273
0.349708
0.376238
0.400847
0.417539
0.450155
0.465012
0.472892
0.479708
0.147807
0.155462
0.142666
0.152896
0.183472
0.21675
0.246227
0.27013
0.271626
0.256771
0.257229
0.268148
0.293051
0.346491
0.377033
0.425421
0.456295
0.48085
0.502645
0.140144
0.12625
0.0922455
0.0974609
0.148605
0.188744
0.206004
0.227963
0.237972
0.198855
0.171659
0.168058
0.191792
0.259038
0.306556
0.357883
0.396685
0.463925
0.516356
0.131718
0.101642
0.060045
0.0639909
0.133604
0.210234
0.229335
0.206719
0.208526
0.171099
0.117708
0.0980044
0.110661
0.172254
0.228526
0.269057
0.27987
0.412276
0.519873
0.124898
0.0908474
0.0463648
0.0488158
0.131956
0.277625
0.337379
0.258733
0.207759
0.170124
0.105122
0.0635129
0.0628554
0.110119
0.164597
0.195173
0.180781
0.342399
0.520791
0.120805
0.0878366
0.0437301
0.0482713
0.15949
0.379054
0.497623
0.387292
0.247377
0.188073
0.119346
0.0563397
0.0409216
0.0735783
0.120063
0.145359
0.129735
0.286449
0.522112
0.115231
0.0854988
0.0443974
0.0600826
0.219234
0.51208
0.642005
0.533875
0.330754
0.224869
0.145338
0.0660198
0.0355896
0.0476718
0.0847345
0.114053
0.107141
0.262517
0.523309
0.103235
0.0786751
0.0533112
0.0956822
0.321588
0.646153
0.73814
0.62943
0.40139
0.254885
0.158533
0.0777875
0.0444066
0.0379939
0.0608009
0.0922233
0.0964541
0.256609
0.523665
0.388367
0.393814
0.390763
0.413657
0.420165
0.433483
0.48387
0.530509
0.614014
0.709995
0.800015
0.858065
0.895911
0.925601
0.94468
0.958477
0.969568
0.977203
0.984342
0.98959
0.992975
0.998615
1
0.104748
0.106067
0.105476
0.112288
0.118123
0.117784
0.152182
0.186902
0.263174
0.377807
0.5225
0.649328
0.742425
0.815878
0.86441
0.897419
0.923798
0.94206
0.95893
0.971562
0.978646
0.989074
1
0.0282878
0.0284783
0.0288957
0.0311408
0.0349199
0.0373254
0.0543044
0.0761064
0.11332
0.169537
0.240994
0.345577
0.433264
0.553277
0.661844
0.738464
0.800214
0.841522
0.884998
0.904788
0.916938
0.94525
0.979937
0.00878602
0.00893083
0.00941391
0.0105919
0.0127091
0.0161557
0.0257939
0.0396275
0.0534531
0.0756032
0.106165
0.154847
0.194099
0.259804
0.354094
0.428219
0.506552
0.570015
0.636154
0.647996
0.661251
0.758098
0.85192
0.0031124
0.00323506
0.00348845
0.0042757
0.00574559
0.00941118
0.0157968
0.0231123
0.0280158
0.0374213
0.0507899
0.0723702
0.0950585
0.111956
0.143247
0.168082
0.188626
0.210199
0.208876
0.192821
0.201244
0.299715
0.425303
0.0011855
0.00125972
0.00137988
0.00184067
0.00281843
0.00502221
0.00842174
0.0117512
0.0133747
0.0163784
0.0223713
0.0301862
0.037479
0.0423569
0.0437197
0.0468045
0.0465151
0.0506132
0.0390253
0.0344321
0.0396998
0.0656247
0.0994162
0.000421759
0.000458213
0.000533175
0.000775351
0.00143513
0.00265897
0.0044663
0.00571078
0.00644932
0.00768343
0.0102808
0.0110358
0.0123151
0.0130475
0.0101478
0.00847926
0.00766906
0.00769568
0.00582722
0.00744975
0.0118396
0.0191192
0.0284782
0.000101484
0.000107674
0.000145362
0.000228459
0.000517026
0.00100839
0.00176431
0.00225367
0.00257293
0.0030826
0.00389687
0.00340515
0.00317035
0.00267912
0.00126806
0.000601725
0.000523456
0.00113285
0.00250221
0.00514329
0.00823204
0.0122905
0.0190082
0
0
0
9.08809e-07
6.47607e-05
0.00019293
0.000415877
0.000643266
0.000807752
0.0011012
0.00127009
0.000798582
0.000390944
4.26056e-05
0
0.000228281
0.0010748
0.002537
0.00490395
0.00824531
0.0124328
0.0175762
0.0249599
0
0
0
0
0
0
0
0
0
3.32157e-07
0
0
1.39912e-05
2.91407e-05
0.000245718
0.00090005
0.00211627
0.00437841
0.0082307
0.0135357
0.0202903
0.029212
0.0411562
0
0
0
0
0
0
0.000307277
0.000533869
0.000306803
0.000303985
0.000374314
0.000546425
0.000835225
0.00138307
0.00239392
0.00399851
0.00611915
0.00942722
0.0144607
0.0210382
0.0285989
0.0376521
0.0493438
0
0
0
0
0.000413337
0.00206668
0.00362461
0.00365501
0.0031077
0.00325391
0.0047708
0.00717843
0.00946343
0.0115004
0.013568
0.0157413
0.0182172
0.0205659
0.0228038
0.0256562
0.0296058
0.0347472
0.0429895
0
0
0
6.15526e-06
0.000434039
0.00219588
0.00402819
0.00457118
0.00465018
0.0046637
0.00475995
0.00491096
0.00409329
0.00336015
0.00309934
0.00357399
0.00388653
0.00362861
0.00362465
0.00389308
0.00419336
0.00499107
0.00843604
0
0
0
0
0.000105008
0.000806511
0.00231895
0.00342737
0.00372465
0.00368585
0.00362566
0.00239607
0.00112496
0.000426184
0.000182079
0.000115918
6.92284e-05
0
0
0
0.000157274
0.00159948
0.00654392
0
0
0
0
0
5.63042e-05
0.000529495
0.00118945
0.00163545
0.00118365
0.00180671
0.00111845
0.000459536
0.000106411
2.54359e-06
0
0
0
0
0
0
0.00124271
0.00497163
0
0
0
0
0
0
4.04319e-05
0.000173359
0.000323868
0.000132727
0.000357048
0.000255731
0.000101842
5.64503e-06
0
0
0
0
0
0
0
0.000104967
0.00110174
0
0
1.38783e-07
2.20321e-07
0
0
0
0
2.93142e-06
0
1.43098e-05
3.30929e-06
0
0
0
0
0
0
2.69776e-07
0
0
0
5.95693e-05
0
0
3.37304e-07
4.84086e-07
9.97868e-09
0
0
0
0
0
0
0
0
0
0
0
0
1.37088e-07
6.57431e-07
1.20619e-06
1.04854e-06
0
0
0
1.05879e-07
2.10461e-07
3.28487e-07
4.45184e-07
0
0
0
0
0
0
0
0
0
0
0
4.58329e-08
1.21919e-07
1.19915e-07
1.78708e-07
4.79e-07
3.61662e-07
0
3.86965e-08
7.17785e-08
6.23946e-08
1.3136e-07
3.23876e-07
2.67694e-07
0
0
0
0
0
0
0
0
0
4.71088e-08
6.9724e-08
4.26285e-08
7.40996e-09
0
2.24979e-08
1.82929e-07
3.51489e-07
3.0855e-08
2.37265e-08
8.14516e-09
2.9449e-08
1.28497e-07
1.73561e-07
1.67738e-07
9.97001e-08
3.00443e-08
5.9657e-08
0
0
0
0
2.3674e-08
4.04966e-08
2.30183e-08
6.19633e-09
0
0
0
6.21623e-09
1.05049e-07
8.68057e-09
2.40596e-09
0
2.62317e-10
3.03501e-08
5.25454e-08
1.17128e-07
1.12382e-07
1.04726e-07
9.61583e-08
3.19944e-08
0
0
7.50938e-09
2.76824e-08
1.56283e-08
4.05015e-09
0
0
0
0
0
6.26065e-10
4.27013e-10
0
0
0
2.49347e-09
6.42131e-09
2.75853e-08
3.77156e-08
4.21811e-08
4.12419e-08
2.26571e-08
5.19311e-09
1.13699e-08
1.74599e-08
1.20047e-08
2.71455e-09
0
0
0
6.97492e-11
0
0
0
0
0
0
0
0
0
2.0255e-09
4.2135e-09
8.66066e-09
7.2279e-09
4.62154e-09
5.9074e-09
7.91925e-09
8.13076e-09
3.84444e-09
3.02689e-10
0
0
0
1.80872e-12
5.53056e-11
1.69557e-10
9.6061e-11
0
0
0
0
0
0
0
0
1.47789e-10
0
0
1.53178e-09
2.19176e-09
1.95404e-09
5.32644e-10
0
0
0
0
0
0
1.97863e-10
8.59199e-10
0
0
1.80868e-11
0
0
0
0
0
0
0
0
3.10003e-11
3.18927e-10
1.90979e-10
0
0
0
0
0
0
0
8.19972e-11
7.51766e-10
0
0
1.5657e-11
1.80713e-11
0
0
0
0
0
0
0
0
0
0
0
0
0
9.86988e-13
0
0
0
0
4.20084e-10
0
9.19209e-13
4.42402e-12
7.17576e-12
6.26404e-12
7.98267e-12
5.41661e-12
6.22613e-13
0
0
0
0
0
0
0
0
2.63661e-12
4.65572e-13
0
0
0
1.37945e-13
3.70846e-10
0
2.33258e-13
3.41283e-13
8.87679e-13
1.78252e-12
2.83068e-12
3.08159e-12
3.18584e-12
2.52892e-12
3.3753e-12
0
0
0
0
0
1.42653e-12
1.76098e-12
0
0
0
0
1.28612e-10
7.00002e-10
0
0
0
0
2.44249e-14
2.5302e-13
4.55025e-13
6.8906e-13
7.77323e-13
1.15852e-12
9.42801e-13
7.88369e-13
1.44385e-13
0
4.37761e-13
1.90231e-12
9.38138e-13
0
0
0
0
3.70719e-10
1.58191e-09
5.66214e-15
0
0
0
0
0
0
0
6.10623e-15
8.02691e-14
2.78999e-13
1.76137e-13
1.03473e-13
3.01981e-13
1.1679e-12
2.22405e-12
0
0
0
0
1.13432e-10
1.00897e-09
3.18722e-09
6.05072e-15
5.4956e-15
2.05391e-15
0
0
0
0
0
0
0
1.45439e-14
0
4.32987e-15
4.42035e-13
2.09066e-12
3.17485e-12
0
0
0
0
2.16794e-10
1.64073e-09
4.54125e-09
4.60743e-15
5.82867e-15
7.77156e-15
6.55032e-15
5.10703e-15
3.4972e-15
3.9968e-15
3.88578e-15
3.16414e-15
0
0
0
1.83742e-14
7.02827e-13
3.22964e-12
2.80637e-12
0
0
0
0
1.22266e-09
3.4293e-09
5.68231e-09
3.83027e-15
4.996e-15
6.55032e-15
6.66134e-15
5.21805e-15
4.32987e-15
5.88418e-15
8.71525e-15
8.77076e-15
4.32987e-15
0
0
1.73472e-13
1.46955e-12
4.60654e-12
4.10005e-13
0
0
0
3.1522e-10
3.74287e-09
6.83605e-09
5.38998e-09
5.88418e-15
6.99441e-15
5.55112e-15
4.996e-15
4.55191e-15
5.21805e-15
5.27356e-15
8.38218e-15
7.60503e-15
0
0
0
3.65374e-13
2.4073e-12
6.04305e-12
0
0
0
0
1.38984e-09
7.59353e-09
7.67674e-09
0
3.83027e-15
5.77316e-15
6.55032e-15
6.05072e-15
4.66294e-15
5.32907e-15
6.16174e-15
8.99281e-15
7.32747e-15
0
0
0
6.58418e-13
3.34727e-12
5.26179e-12
0
0
0
2.10436e-10
3.16798e-09
1.0527e-08
5.20838e-09
0
3.9968e-15
6.21725e-15
6.82787e-15
6.38378e-15
5.10703e-15
4.66294e-15
6.32827e-15
1.10467e-14
6.43929e-15
0
0
4.79061e-14
1.30768e-12
5.23326e-12
1.83464e-12
0
0
0
1.19763e-09
6.67379e-09
1.2266e-08
0
0
3.27516e-15
5.55112e-15
6.55032e-15
4.71845e-15
5.4956e-15
4.27436e-15
6.32827e-15
1.06026e-14
4.21885e-15
0
0
1.78912e-13
1.9475e-12
5.72092e-12
0
0
0
0
3.13805e-09
1.27084e-08
1.12313e-08
0
0
1.94289e-15
4.55191e-15
6.16174e-15
5.55112e-15
5.71765e-15
4.4964e-15
5.66214e-15
7.49401e-15
1.33227e-15
0
0
4.81892e-13
2.93604e-12
3.94762e-12
0
0
0
7.40521e-10
7.31615e-09
2.14094e-08
7.38864e-09
0
0
4.21885e-15
4.4964e-15
5.55112e-15
4.82947e-15
3.9968e-15
5.71765e-15
7.38298e-15
8.27116e-15
0
0
0
7.55174e-13
3.53817e-12
0
0
0
0
2.44008e-09
1.36763e-08
3.07176e-08
2.92882e-09
0
0
4.32987e-15
1.4988e-15
2.05391e-15
2.72005e-15
3.60822e-15
4.55191e-15
7.93809e-15
1.00475e-14
0
0
3.04201e-14
1.15158e-12
4.12653e-12
0
0
0
8.18389e-11
4.33294e-09
1.93239e-08
3.94138e-08
1.68721e-09
0
0
5.60663e-15
2.10942e-15
1.83187e-15
1.33227e-15
1.38778e-15
3.94129e-15
8.54872e-15
1.06026e-14
0
0
6.08957e-14
1.44962e-12
4.88498e-12
0
0
0
1.69944e-10
5.06503e-09
2.17495e-08
4.38668e-08
2.81744e-09
0
0
1
0.925496
0.71292
0.396598
1
0.976372
0.836976
0.568466
1
1
0.982094
0.887133
0.902657
0.926717
0.942093
0.942133
0.528814
0.59309
0.659667
0.721573
0.13552
0.164937
0.207705
0.263855
0.0385946
0.0476556
0.0604823
0.0761383
0.0270066
0.0330875
0.0391995
0.0447951
0.0338318
0.0419836
0.0517643
0.0624056
0.0516604
0.0589921
0.0668275
0.0756879
0.0595793
0.0663215
0.0732173
0.0800344
0.0513094
0.0558399
0.0591564
0.0618988
0.0138041
0.0172421
0.020332
0.0228297
0.0114419
0.0131637
0.0137983
0.0138672
0.00709748
0.00737646
0.00705194
0.00659549
0.00192584
0.00221415
0.00230195
0.00232071
0.000155711
0.000203858
0.00026754
0.000361172
0
0
0
0
0
0
0
0
1.04853e-07
0
0
0
2.38383e-07
2.25657e-07
3.95856e-08
0
3.12009e-08
6.35443e-08
8.04919e-08
5.46794e-08
0
7.08313e-09
1.99651e-08
2.81781e-08
0
8.06739e-10
3.11244e-09
5.96761e-09
1.62413e-09
2.29977e-09
3.11562e-09
3.80312e-09
1.82176e-09
2.80561e-09
3.83493e-09
4.42142e-09
1.28182e-09
2.2274e-09
3.39647e-09
4.30551e-09
1.17073e-09
2.10944e-09
3.39822e-09
4.80029e-09
1.71013e-09
2.86533e-09
4.57533e-09
6.79576e-09
3.30342e-09
5.06922e-09
7.46543e-09
1.02806e-08
6.2772e-09
9.33912e-09
1.2962e-08
1.58462e-08
8.07567e-09
1.14133e-08
1.48442e-08
1.58721e-08
9.01092e-09
1.15262e-08
1.03646e-08
0
4.0251e-09
0
0
0
0
0
0
0
0
0
0
0
0
0
0
0
0
0
0
0
0
0
0
0
0
0
0
0
0
0
0
0
0
0
0
0
0.0968278
0.0761785
0.107059
0.232199
0.525281
0.794548
0.828387
0.685583
0.408883
0.248504
0.180627
0.118619
0.0836195
0.0473536
0.0428826
0.0645815
0.088005
0.254518
0.522427
0.154771
0.19944
0.489703
0.765891
0.898127
0.935099
0.896558
0.597341
0.253668
0.186998
0.15442
0.125867
0.0979747
0.0562324
0.0415686
0.0621778
0.106162
0.268206
0.526228
0.613319
0.666964
0.88453
0.948801
0.963166
0.95736
0.910523
0.633962
0.247278
0.106461
0.0863903
0.0990146
0.0879873
0.0550113
0.0411597
0.0564852
0.104346
0.266406
0.542153
0.915407
0.905281
0.946299
0.909655
0.891708
0.881937
0.864917
0.698229
0.425806
0.0949782
0.0361651
0.056103
0.0684402
0.0456561
0.0432886
0.0756167
0.168414
0.407426
0.608773
0.802925
0.717146
0.763754
0.690966
0.648551
0.682435
0.739133
0.788808
0.670303
0.147033
0.0168076
0.0343457
0.053459
0.0375725
0.0431808
0.0703506
0.188498
0.447242
0.619096
0.38369
0.271131
0.315792
0.247085
0.274466
0.354587
0.480081
0.701885
0.690188
0.172524
0.0194029
0.0222351
0.0382942
0.0311241
0.0330389
0.0467397
0.173667
0.430818
0.61333
0.0999695
0.0912459
0.103851
0.104133
0.155392
0.216999
0.32269
0.519239
0.728419
0.388877
0.0424318
0.0106956
0.0195425
0.0204513
0.0235677
0.0686598
0.29711
0.57783
0.636126
0.0524794
0.0620979
0.0744446
0.0955831
0.141958
0.195945
0.262891
0.3901
0.572355
0.508056
0.0980405
0.0169772
0.0143426
0.0227163
0.0337719
0.123478
0.362554
0.607323
0.612026
0.0802741
0.109226
0.138291
0.162469
0.18306
0.226782
0.278965
0.353894
0.467153
0.532073
0.228263
0.0600953
0.030944
0.07478
0.109094
0.260992
0.45486
0.597772
0.592426
0.0926516
0.120895
0.164362
0.208844
0.236881
0.270881
0.309267
0.35529
0.397533
0.451703
0.347645
0.183344
0.118282
0.237261
0.268839
0.355487
0.511725
0.622925
0.577398
0.0910091
0.105581
0.120595
0.142416
0.161268
0.198523
0.245654
0.306247
0.347673
0.365595
0.359003
0.298855
0.263887
0.330743
0.330873
0.397902
0.548462
0.626675
0.563269
0.0669755
0.0729053
0.0795305
0.0963253
0.112183
0.154558
0.202607
0.271735
0.32835
0.365815
0.38297
0.385991
0.384763
0.413885
0.40916
0.49671
0.62824
0.64103
0.559573
0.0259073
0.0279607
0.0309194
0.0348384
0.0345008
0.0446105
0.0666609
0.107978
0.158336
0.224528
0.29062
0.38694
0.425678
0.474826
0.502428
0.495906
0.629644
0.642773
0.555397
0.0135497
0.0130291
0.0146094
0.0161006
0.0171512
0.0232399
0.0317429
0.0465019
0.062544
0.0859119
0.115905
0.184801
0.225726
0.287487
0.310129
0.297878
0.497371
0.565965
0.540084
0.00610025
0.00599979
0.00719459
0.00860542
0.0101157
0.0132487
0.0175183
0.026061
0.0340714
0.0450666
0.0613545
0.0944944
0.125446
0.149862
0.173146
0.183833
0.343811
0.42744
0.515389
0.00227363
0.00238649
0.00275154
0.00413239
0.00498012
0.00537632
0.00685819
0.009616
0.0131469
0.0188777
0.030142
0.047327
0.0592862
0.06589
0.0961698
0.116899
0.233076
0.339849
0.483725
0.000565516
0.000766386
0.000921407
0.00190394
0.00269894
0.00223114
0.00276438
0.00364298
0.00550828
0.00921445
0.0163717
0.0238427
0.0265791
0.035788
0.0586733
0.0942741
0.189222
0.311386
0.452159
5.23996e-05
0.000137709
0.000163663
0.000466418
0.00142114
0.000972339
0.000928487
0.00112195
0.00204544
0.00419753
0.00799231
0.0116624
0.0145517
0.0216716
0.0376832
0.0759556
0.165289
0.301763
0.422201
0
1.00436e-05
3.99503e-06
8.20923e-05
0.000585256
0.000389708
0.000339476
0.000557098
0.00134758
0.00252038
0.0040765
0.00675864
0.00992267
0.0149905
0.0267783
0.0609325
0.143602
0.270925
0.381577
0
0
0
2.7512e-06
0.000145172
0.000117131
0.000107291
0.000143973
0.000376535
0.000944527
0.00194082
0.00359283
0.00604165
0.00936234
0.0170947
0.0428313
0.113699
0.227895
0.335395
0
0
0
0
1.2237e-05
2.07115e-05
2.92377e-05
3.16372e-05
7.58963e-05
0.000288153
0.00100805
0.00192779
0.00350436
0.00529971
0.00976677
0.027054
0.080867
0.182628
0.29287
0
0
0
0
0
1.10692e-06
3.56439e-06
3.51854e-06
7.52598e-06
6.35861e-05
0.000332458
0.000853592
0.00163588
0.00271196
0.0056809
0.0180435
0.0602198
0.150101
0.260273
2.44319e-08
0
0
0
0
0
0
0
0
1.11168e-05
9.85792e-05
0.000207111
0.00056463
0.00140812
0.00354769
0.0124643
0.0454973
0.124111
0.233965
9.30786e-09
6.45102e-09
0
0
0
0
0
2.14924e-07
1.52698e-07
2.41968e-06
2.11106e-05
6.2587e-05
0.000280499
0.000832203
0.00231549
0.00914756
0.0364005
0.106028
0.211886
4.12654e-09
2.39653e-09
0
0
0
0
7.09588e-08
4.91315e-07
1.24442e-06
1.9701e-06
6.59626e-06
4.43313e-05
0.000234398
0.000609621
0.00181978
0.00771137
0.0313674
0.0937479
0.192958
3.8392e-09
0
0
0
0
0
0
4.15614e-08
9.63148e-07
2.41127e-06
5.4949e-06
2.26729e-05
0.000103082
0.000389387
0.00157618
0.00686444
0.0280456
0.08449
0.176723
4.38904e-09
2.99517e-10
0
0
0
0
0
0
2.72221e-07
2.13509e-06
5.23636e-06
1.71232e-05
8.16161e-05
0.000376011
0.00145924
0.00618726
0.0257396
0.0769334
0.162526
6.79945e-09
4.59652e-09
0
0
0
0
0
0
0
1.60724e-06
5.60104e-06
2.07337e-05
9.46529e-05
0.000446376
0.001848
0.00696895
0.0235732
0.0694113
0.150149
1.11043e-08
1.06365e-08
2.25354e-09
0
0
0
0
0
0
9.37406e-07
8.66323e-06
3.68346e-05
0.000121193
0.000434744
0.00181272
0.00695389
0.0214443
0.0628913
0.139604
1.46159e-08
1.31848e-08
2.39395e-09
0
0
0
0
0
0
3.49401e-06
1.72012e-05
6.18697e-05
0.000170119
0.000598585
0.00238922
0.00671024
0.0180952
0.0559714
0.13032
1.67739e-08
3.2736e-09
0
0
0
0
0
0
0
1.27857e-06
1.07124e-05
3.84434e-05
0.000119094
0.000432757
0.00163524
0.00476139
0.0150663
0.0489623
0.121288
9.31684e-09
0
0
0
0
0
0
0
0
6.3208e-07
9.51663e-06
2.89268e-05
8.28359e-05
0.000328128
0.00139195
0.00427603
0.0134871
0.0413973
0.109142
0
0
0
0
0
0
0
0
0
0
7.07666e-06
2.38641e-05
7.33344e-05
0.000305613
0.00116183
0.00321784
0.0108621
0.0366129
0.0991145
0
0
0
0
0
0
0
0
0
0
4.32188e-06
2.09965e-05
6.80938e-05
0.000245709
0.000832584
0.00235476
0.00870685
0.0339642
0.0926401
0
0
0
0
0
0
0
0
0
0
2.67803e-07
1.0333e-05
4.84456e-05
0.00019931
0.00071084
0.00224615
0.00838644
0.0325871
0.0909051
0
0
0
0
0
0
0
0
0
0
0
3.45335e-06
2.32889e-05
0.000107614
0.00052216
0.00244365
0.0117006
0.0404234
0.0903058
0
0
0
0
1.35285e-08
1.84421e-06
4.04579e-06
2.79986e-06
1.04904e-06
0
0
1.79747e-06
1.73592e-05
9.36221e-05
0.000406385
0.0021359
0.0120193
0.0425368
0.0893891
0
0
0
3.29114e-06
1.00399e-05
1.73637e-05
2.20601e-05
1.92301e-05
1.22615e-05
5.00808e-06
1.92265e-06
3.294e-06
1.52757e-05
7.71313e-05
0.000263531
0.00115532
0.00647198
0.0294549
0.0799662
0
0
2.22274e-06
1.53634e-05
2.95778e-05
5.17859e-05
5.94193e-05
5.07055e-05
3.18937e-05
1.79879e-05
1.05269e-05
7.17824e-06
1.13707e-05
5.38578e-05
0.000224243
0.000877389
0.00348232
0.0168226
0.0605497
0
0
7.19973e-06
2.94797e-05
5.16403e-05
7.92393e-05
0.000104063
9.06978e-05
6.667e-05
4.14915e-05
2.73955e-05
1.41596e-05
1.54758e-05
3.43323e-05
9.8743e-05
0.000344308
0.00140546
0.00986406
0.0482789
0
0
1.42209e-05
3.8494e-05
6.69955e-05
9.52741e-05
0.000124157
0.000116456
8.60875e-05
6.52217e-05
4.90546e-05
3.25521e-05
2.61666e-05
3.50345e-05
7.43117e-05
0.000167284
0.000264196
0.0028497
0.0290503
0
0
1.87852e-05
4.42068e-05
7.50629e-05
0.000104853
0.000133265
0.0001332
0.000112492
9.7883e-05
8.28907e-05
7.32523e-05
5.60477e-05
5.24217e-05
6.49455e-05
0.000101823
2.47937e-05
0.000229842
0.00911338
)
;

boundaryField
{
    leftWall
    {
        type            zeroGradient;
    }
    rightWall
    {
        type            zeroGradient;
    }
    lowerWall
    {
        type            zeroGradient;
    }
    atmosphere
    {
        type            inletOutlet;
        inletValue      uniform 0;
        value           nonuniform List<scalar> 
46
(
5.60663e-15
2.10942e-15
1.83187e-15
1.33227e-15
1.38778e-15
3.94129e-15
8.54872e-15
1.06026e-14
0
0
6.08957e-14
1.44962e-12
4.88498e-12
0
0
0
1.69944e-10
5.06503e-09
2.17495e-08
4.38668e-08
2.81744e-09
0
0
0
0
0
0
0
0
1.87852e-05
4.42068e-05
7.50629e-05
0.000104853
0.000133265
0.0001332
0.000112492
9.7883e-05
8.28907e-05
7.32523e-05
5.60477e-05
5.24217e-05
6.49455e-05
0.000101823
2.47937e-05
0.000229842
0.00911338
)
;
    }
    defaultFaces
    {
        type            empty;
    }
}


// ************************************************************************* //
