/*--------------------------------*- C++ -*----------------------------------*\
| =========                 |                                                 |
| \\      /  F ield         | foam-extend: Open Source CFD                    |
|  \\    /   O peration     | Version:     4.1                                |
|   \\  /    A nd           | Web:         http://www.foam-extend.org         |
|    \\/     M anipulation  |                                                 |
\*---------------------------------------------------------------------------*/
FoamFile
{
    version     2.0;
    format      ascii;
    class       volScalarField;
    location    "0.55";
    object      C;
}
// * * * * * * * * * * * * * * * * * * * * * * * * * * * * * * * * * * * * * //

dimensions      [0 0 0 0 0 0 0];

internalField   nonuniform List<scalar> 
2268
(
1.00353
1.00344
1.00292
1.00311
1.00306
1.00337
1.00434
1.00524
1.00433
1.001
0.998058
0.997214
0.997378
0.998141
0.999143
0.999928
1.00042
1.00056
1.00056
1.00055
1.00057
1.00046
1.00024
1.00255
1.00242
1.00159
1.00204
1.00207
1.00278
1.00416
1.00462
1.00255
0.998012
0.995274
0.995005
0.995735
0.997049
0.998416
0.999444
1.00013
1.00035
1.00042
1.00048
1.00055
1.00048
1.00024
0.998277
0.99807
0.996525
0.997741
0.997987
0.999785
1.00211
1.00141
0.996634
0.990336
0.988754
0.990097
0.992202
0.994644
0.996742
0.998296
0.999405
0.999815
1.00007
1.00028
1.00049
1.00046
1.00019
0.985533
0.985247
0.982525
0.985549
0.986198
0.990282
0.99435
0.991358
0.982767
0.976604
0.978004
0.982448
0.98664
0.990699
0.993846
0.996246
0.998045
0.998791
0.999389
0.999878
1.00029
1.00032
1.00004
0.952324
0.952168
0.947765
0.954759
0.956177
0.9648
0.972242
0.965549
0.954572
0.953514
0.961521
0.97124
0.978071
0.984346
0.98899
0.99271
0.995591
0.996907
0.998133
0.9991
0.999813
0.999969
0.999881
0.874016
0.874842
0.868441
0.883266
0.886241
0.903253
0.91783
0.907346
0.902863
0.914563
0.935846
0.953487
0.964075
0.973834
0.980835
0.986611
0.991188
0.993485
0.995822
0.997619
0.998805
0.999389
1.0003
0.708063
0.711723
0.703579
0.731533
0.737414
0.767727
0.796738
0.789587
0.808947
0.847356
0.892207
0.922618
0.940117
0.956168
0.967221
0.976243
0.983506
0.987565
0.991766
0.994962
0.996975
0.998786
1.00274
0.407895
0.4161
0.407506
0.450724
0.460629
0.503275
0.556642
0.576191
0.642663
0.728492
0.813438
0.866796
0.898772
0.926436
0.944742
0.959047
0.970595
0.9778
0.985025
0.990488
0.99392
0.998418
1.00922
-0.69489
-0.651505
-0.624841
-0.579046
-0.524416
-0.467545
-0.422929
-0.404129
-0.402405
-0.391901
-0.343454
-0.300585
-0.247525
-0.198306
-0.164921
-0.09969
-0.0699752
-0.0542158
-0.0405848
-0.704387
-0.689075
-0.714669
-0.694207
-0.633057
-0.5665
-0.507546
-0.459739
-0.456749
-0.486459
-0.485542
-0.463704
-0.413898
-0.307017
-0.245934
-0.149159
-0.08741
-0.0383004
0.00529066
-0.719713
-0.7475
-0.815509
-0.805078
-0.70279
-0.622512
-0.587992
-0.544074
-0.524055
-0.602291
-0.656683
-0.663883
-0.616417
-0.481923
-0.386889
-0.284235
-0.206629
-0.0721491
0.0327115
-0.736564
-0.796717
-0.87991
-0.872018
-0.732791
-0.579532
-0.54133
-0.586561
-0.582948
-0.657803
-0.764584
-0.803991
-0.778678
-0.655493
-0.542948
-0.461885
-0.44026
-0.175448
0.0397455
-0.750204
-0.818305
-0.90727
-0.902368
-0.736089
-0.44475
-0.325243
-0.482533
-0.584481
-0.659752
-0.789757
-0.872974
-0.874289
-0.779763
-0.670805
-0.609655
-0.638438
-0.315203
0.0415811
-0.758389
-0.824327
-0.91254
-0.903457
-0.681021
-0.241891
-0.00475445
-0.225415
-0.505246
-0.623854
-0.761308
-0.887321
-0.918157
-0.852843
-0.759875
-0.709282
-0.740531
-0.427103
0.0442247
-0.769538
-0.829002
-0.911205
-0.879835
-0.561533
0.024159
0.28401
0.0677492
-0.338492
-0.550261
-0.709323
-0.86796
-0.928821
-0.904656
-0.830531
-0.771895
-0.785719
-0.474966
0.0466172
-0.79353
-0.84265
-0.893378
-0.808636
-0.356823
0.292306
0.47628
0.25886
-0.197221
-0.490229
-0.682934
-0.844425
-0.911187
-0.924012
-0.878398
-0.815553
-0.807092
-0.486782
0.047329
-0.223266
-0.212372
-0.218473
-0.172686
-0.15967
-0.133034
-0.0322608
0.0610181
0.228028
0.419991
0.60003
0.71613
0.791822
0.851202
0.88936
0.916954
0.939136
0.954405
0.968683
0.979179
0.985951
0.99723
1.02521
-0.790504
-0.787866
-0.789049
-0.775424
-0.763754
-0.764431
-0.695635
-0.626196
-0.473653
-0.244385
0.0450006
0.298657
0.48485
0.631756
0.72882
0.794838
0.847596
0.88412
0.91786
0.943125
0.957291
0.978148
1.02037
-0.943424
-0.943043
-0.942209
-0.937718
-0.93016
-0.925349
-0.891391
-0.847787
-0.77336
-0.660927
-0.518012
-0.308847
-0.133471
0.106553
0.323688
0.476928
0.600429
0.683044
0.769996
0.809575
0.833875
0.8905
0.959874
-0.982428
-0.982138
-0.981172
-0.978816
-0.974582
-0.967689
-0.948412
-0.920745
-0.893094
-0.848794
-0.787671
-0.690305
-0.611803
-0.480392
-0.291812
-0.143562
0.0131048
0.14003
0.272309
0.295991
0.322503
0.516197
0.70384
-0.993775
-0.99353
-0.993023
-0.991449
-0.988509
-0.981178
-0.968406
-0.953775
-0.943968
-0.925157
-0.89842
-0.85526
-0.809883
-0.776087
-0.713505
-0.663836
-0.622748
-0.579603
-0.582248
-0.614359
-0.597513
-0.40057
-0.149395
-0.997629
-0.997481
-0.99724
-0.996319
-0.994363
-0.989956
-0.983157
-0.976498
-0.973251
-0.967243
-0.955257
-0.939628
-0.925042
-0.915286
-0.912561
-0.906391
-0.90697
-0.898774
-0.921949
-0.931136
-0.9206
-0.868751
-0.801168
-0.999156
-0.999084
-0.998934
-0.998449
-0.99713
-0.994682
-0.991067
-0.988578
-0.987101
-0.984633
-0.979438
-0.977928
-0.97537
-0.973905
-0.979704
-0.983041
-0.984662
-0.984609
-0.988346
-0.985101
-0.976321
-0.961762
-0.943044
-0.999797
-0.999785
-0.999709
-0.999543
-0.998966
-0.997983
-0.996471
-0.995493
-0.994854
-0.993835
-0.992206
-0.99319
-0.993659
-0.994642
-0.997464
-0.998797
-0.998953
-0.997734
-0.994996
-0.989713
-0.983536
-0.975419
-0.961984
-1.00005
-1.00007
-1.00004
-0.999998
-0.99987
-0.999614
-0.999168
-0.998713
-0.998384
-0.997798
-0.99746
-0.998403
-0.999218
-0.999915
-1.00014
-0.999543
-0.99785
-0.994926
-0.990192
-0.983509
-0.975134
-0.964848
-0.95008
-1.00015
-1.00015
-1.00014
-1.00015
-1.00018
-1.00018
-1.00016
-1.00009
-1.00014
-0.999999
-1.00004
-1.00012
-0.999972
-0.999942
-0.999509
-0.9982
-0.995767
-0.991243
-0.983539
-0.972929
-0.959419
-0.941576
-0.917688
-1.00016
-1.00014
-1.00013
-1.00016
-1.0002
-1.00012
-0.999385
-0.998932
-0.999386
-0.999392
-0.999251
-0.998907
-0.99833
-0.997234
-0.995212
-0.992003
-0.987762
-0.981146
-0.971079
-0.957924
-0.942802
-0.924696
-0.901312
-1.00014
-1.00011
-1.0001
-1.00002
-0.999173
-0.995867
-0.992751
-0.99269
-0.993785
-0.993492
-0.990458
-0.985643
-0.981073
-0.976999
-0.972864
-0.968517
-0.963566
-0.958868
-0.954392
-0.948688
-0.940788
-0.930506
-0.914021
-1.00011
-1.00007
-1.00006
-0.999988
-0.999132
-0.995608
-0.991944
-0.990858
-0.9907
-0.990673
-0.99048
-0.990178
-0.991813
-0.99328
-0.993801
-0.992852
-0.992227
-0.992743
-0.992751
-0.992214
-0.991613
-0.990018
-0.983128
-1.00007
-1.00004
-1.00003
-1.00003
-0.99979
-0.998387
-0.995362
-0.993145
-0.992551
-0.992628
-0.992749
-0.995208
-0.99775
-0.999148
-0.999636
-0.999768
-0.999862
-1.00001
-1.00009
-1.00004
-0.999685
-0.996801
-0.986912
-1.00004
-1.00002
-1.00001
-1.00002
-1.00003
-0.999887
-0.998941
-0.997621
-0.996729
-0.997633
-0.996387
-0.997763
-0.999081
-0.999787
-0.999995
-1.00006
-1.00013
-1.00019
-1.00026
-1.0003
-1.00005
-0.997515
-0.990057
-1.00002
-1.00001
-1
-1
-1.00002
-1.00005
-0.999919
-0.999653
-0.999352
-0.999735
-0.999286
-0.999489
-0.999796
-0.999989
-1.00003
-1.00003
-1.00003
-1.00003
-1.00004
-1.00006
-1.00012
-0.99979
-0.997797
-1.00001
-1
-1
-1
-1.00001
-1.00003
-1.00005
-1.00004
-0.999994
-1.00006
-0.999971
-0.999993
-1.00005
-1.00006
-1.00004
-1.00002
-1.00001
-1
-0.999999
-1
-1.00002
-1.00007
-0.999881
-1
-1
-0.999999
-0.999999
-1
-1.00001
-1.00003
-1.00004
-1.00004
-1.00004
-1.00004
-1.00005
-1.00005
-1.00004
-1.00002
-1.00001
-1
-1
-0.999999
-0.999998
-0.999998
-1.00001
-1.00003
-1
-1
-1
-0.999999
-0.999999
-1
-1.00001
-1.00002
-1.00001
-1.00001
-1.00002
-1.00003
-1.00002
-1.00002
-1.00001
-1
-1
-1
-1
-1
-0.999999
-0.999999
-1
-1
-1
-1
-1
-0.999999
-0.999999
-1
-1
-1
-1
-1
-1.00001
-1.00001
-1
-1
-1
-1
-1
-1
-1
-1
-1
-0.999999
-1
-1
-1
-1
-1
-1
-1
-1
-1
-1
-1
-1
-1
-1
-1
-1
-1
-1
-1
-1
-1
-1
-1
-1
-1
-1
-1
-1
-1
-1
-1
-1
-1
-1
-1
-1
-1
-1
-1
-1
-1
-1
-1
-1
-1
-1
-1
-1
-1
-1
-1
-1
-1
-1
-1
-1
-1
-1
-1
-1
-1
-1
-1
-1
-1
-1
-1
-1
-1
-1
-1
-1
-1
-1
-1
-1
-1
-1
-1
-1
-1
-1
-1
-1
-1
-1
-1
-1
-1
-1
-1
-1
-1
-1
-1
-1
-1
-1
-1
-1
-1
-1
-1
-1
-1
-1
-1
-1
-1
-1
-1
-1
-1
-1
-1
-1
-1
-1
-1
-1
-1
-1
-1
-1
-1
-1
-1
-1
-1
-1
-1
-1
-1
-1
-1
-1
-1
-1
-1
-1
-1
-1
-1
-1
-1
-1
-1
-1
-1
-1
-1
-1
-1
-1
-1
-1
-1
-1
-1
-1
-1
-1
-1
-1
-1
-1
-1
-1
-1
-1
-1
-1
-1
-1
-1
-1
-1
-1
-1
-1
-1
-1
-1
-1
-1
-1
-1
-1
-1
-1
-1
-1
-1
-1
-1
-1
-1
-1
-1
-1
-1
-1
-1
-1
-1
-1
-1
-1
-1
-1
-1
-1
-1
-1
-1
-1
-1
-1
-1
-1
-1
-1
-1
-1
-1
-1
-1
-1
-1
-1
-1
-1
-1
-1
-1
-1
-1
-1
-1
-1
-1
-1
-1
-1
-1
-1
-1
-1
-1
-1
-1
-1
-1
-1
-1
-1
-1
-1
-1
-1
-1
-1
-1
-1
-1
-1
-1
-1
-1
-1
-1
-1
-1
-1
-1
-1
-1
-1
-1
-1
-1
-1
-1
-1
-1
-1
-1
-1
-1
-1
-1
-1
-1
-1
-1
-1
-1
-1
-1
-1
-1
-1
-1
-1
-1
-1
-1
-1
-1
-1
-1
-1
-1
-1
-1
-1
-1
-1
-1
-1
-1
-1
-1
-1
-1
-1
-1
-1
-1
-1
-1
-1
-1
-1
-1
-1
-1
-1
-1
-1
-1
-1
-1
-1
-1
-1
-1
-1
-1
-1
-1
-1
-1
-1
-1
-1
-1
-1
-1
-1
-1
-1
-1
-1
-1
-1
-1
-1
-1
-1
-1
-1
-1
-1
-1
-1
-1
-1
-1
-1
-1
-1
-1
-1
-1
-1
-1
-1
-1
-1
-1
-1
-1
-1
-1
-1
-1
-1
-1
-1
-1
-1
-1
-1
-1
-1
-1
-1
-1
-1
-1
-1
-1
-1
-1
-1
-1
-1
-1
-1
-1
-1
-1
-1
-1
-1
-1
-1
-1
-1
-1
-1
-1
-1
-1
-1
-1
-1
-1
-1
-1
-1
-1
-1
-1
-1
-1
-1
-1
-1
-1
-1
-1
-1
-1
-1
-1
-1
-1
-1
-1
-1
-1
-1
-1
-1
-1
-1
-1
-1
-1
-1
-1
-1
-1
-1
-1
-1
-1
-1
-1
-1
-1
-1
-1
-1
-1
-1
-1
-1
-1
-1
-1
-1
-1
-1
-1
-1
-1
-1
-1
-1
-1
-1
-1
-1
1.0085
0.850991
0.425839
-0.206804
1.03629
0.952743
0.673951
0.136932
1.01177
1.0198
0.964188
0.774266
0.805315
0.853434
0.884186
0.884265
0.0576272
0.18618
0.319333
0.443145
-0.72896
-0.670126
-0.584589
-0.47229
-0.922811
-0.904689
-0.879035
-0.847723
-0.945987
-0.933825
-0.921601
-0.91041
-0.932336
-0.916033
-0.896471
-0.875189
-0.896679
-0.882016
-0.866345
-0.848624
-0.880841
-0.867357
-0.853565
-0.839931
-0.897381
-0.88832
-0.881687
-0.876202
-0.972392
-0.965516
-0.959336
-0.954341
-0.977116
-0.973673
-0.972403
-0.972266
-0.985805
-0.985247
-0.985896
-0.986809
-0.996148
-0.995572
-0.995396
-0.995359
-0.999689
-0.999592
-0.999465
-0.999278
-1.00005
-1.00006
-1.00006
-1.00003
-1.00001
-1.00002
-1.00003
-1.00003
-1
-1
-1
-1.00001
-1
-1
-1
-1
-1
-1
-1
-1
-1
-1
-1
-1
-1
-1
-1
-1
-1
-1
-1
-1
-1
-1
-1
-1
-1
-1
-1
-1
-1
-1
-1
-1
-1
-1
-1
-1
-1
-1
-1
-1
-1
-1
-1
-1
-1
-1
-1
-1
-1
-1
-1
-1
-1
-1
-1
-1
-1
-1
-1
-1
-1
-1
-1
-1
-1
-1
-1
-1
-1
-1
-1
-1.00001
-1
-1
-1.00001
-1.00001
-1
-1.00001
-1.00001
-1.00001
-1.00001
-1.00001
-1.00001
-1.00001
-1.00001
-1.00001
-1.00001
-1.00001
-0.806344
-0.847643
-0.785881
-0.535602
0.0505613
0.589096
0.656774
0.371167
-0.182235
-0.502991
-0.638747
-0.762762
-0.832761
-0.905293
-0.914235
-0.870837
-0.82399
-0.490964
0.0448545
-0.690458
-0.60112
-0.0205949
0.531781
0.796254
0.870198
0.793116
0.194683
-0.492663
-0.626005
-0.691161
-0.748267
-0.804051
-0.887535
-0.916863
-0.875644
-0.787675
-0.463587
0.0524554
0.226639
0.333928
0.76906
0.897601
0.926333
0.914719
0.821047
0.267923
-0.505443
-0.787078
-0.827219
-0.801971
-0.824025
-0.889977
-0.917681
-0.88703
-0.791308
-0.467187
0.0843053
0.830814
0.810563
0.892599
0.819311
0.783415
0.763873
0.729833
0.396458
-0.148387
-0.810044
-0.92767
-0.887794
-0.86312
-0.908688
-0.913423
-0.848767
-0.663171
-0.185148
0.217546
0.605849
0.434293
0.527509
0.381932
0.297103
0.36487
0.478267
0.577616
0.340606
-0.705935
-0.966385
-0.931309
-0.893082
-0.924855
-0.913638
-0.859299
-0.623003
-0.105516
0.238191
-0.23262
-0.457738
-0.368417
-0.50583
-0.451067
-0.290826
-0.0398378
0.403769
0.380375
-0.654952
-0.961194
-0.95553
-0.923412
-0.937752
-0.933922
-0.906521
-0.652666
-0.138363
0.226659
-0.800061
-0.817508
-0.792298
-0.791735
-0.689216
-0.566002
-0.354619
0.0384776
0.456838
-0.222246
-0.915136
-0.978609
-0.960915
-0.959097
-0.952865
-0.86268
-0.40578
0.15566
0.272252
-0.895041
-0.875804
-0.851111
-0.808834
-0.716084
-0.60811
-0.474218
-0.219799
0.144711
0.0161115
-0.803919
-0.966046
-0.971315
-0.954567
-0.932456
-0.753045
-0.274892
0.214646
0.224053
-0.839452
-0.781548
-0.723419
-0.675062
-0.63388
-0.546437
-0.44207
-0.292212
-0.0656938
0.0641458
-0.543474
-0.879809
-0.938112
-0.85044
-0.781812
-0.478015
-0.0902804
0.195543
0.184851
-0.814697
-0.758211
-0.671276
-0.582312
-0.526239
-0.458238
-0.381467
-0.289421
-0.204934
-0.0965939
-0.304711
-0.633312
-0.763435
-0.525477
-0.462322
-0.289026
0.0234505
0.24585
0.154795
-0.817982
-0.788838
-0.75881
-0.715169
-0.677465
-0.602954
-0.508691
-0.387505
-0.304654
-0.26881
-0.281994
-0.40229
-0.472227
-0.338514
-0.338254
-0.204196
0.0969234
0.25335
0.126537
-0.866049
-0.854189
-0.840939
-0.807349
-0.775633
-0.690883
-0.594786
-0.456531
-0.343299
-0.26837
-0.234059
-0.228018
-0.230474
-0.172229
-0.18168
-0.00657901
0.25648
0.282059
0.119147
-0.948185
-0.944079
-0.938161
-0.930323
-0.930998
-0.910779
-0.866678
-0.784044
-0.683327
-0.550945
-0.418759
-0.22612
-0.148643
-0.0503483
0.00485639
-0.0081889
0.259289
0.285546
0.110795
-0.972901
-0.973942
-0.970781
-0.967799
-0.965698
-0.95352
-0.936514
-0.906996
-0.874912
-0.828176
-0.768191
-0.630398
-0.548549
-0.425027
-0.379741
-0.404243
-0.00525753
0.131931
0.0801676
-0.9878
-0.988
-0.985611
-0.982789
-0.979769
-0.973503
-0.964963
-0.947878
-0.931857
-0.909867
-0.877291
-0.811011
-0.749108
-0.700276
-0.653707
-0.632334
-0.312377
-0.14512
0.0307774
-0.995453
-0.995227
-0.994497
-0.991735
-0.99004
-0.989247
-0.986284
-0.980768
-0.973706
-0.962245
-0.939716
-0.905346
-0.881428
-0.86822
-0.80766
-0.766201
-0.533848
-0.320302
-0.0325509
-0.998869
-0.998467
-0.998157
-0.996192
-0.994602
-0.995538
-0.994471
-0.992714
-0.988983
-0.981571
-0.967257
-0.952315
-0.946842
-0.928424
-0.882653
-0.811452
-0.621555
-0.377228
-0.0956829
-0.999895
-0.999725
-0.999673
-0.999067
-0.997158
-0.998055
-0.998143
-0.997756
-0.995909
-0.991605
-0.984015
-0.976675
-0.970897
-0.956657
-0.924634
-0.848089
-0.669422
-0.396474
-0.155598
-1.00001
-0.99998
-0.999992
-0.999836
-0.998829
-0.999221
-0.999321
-0.998886
-0.997305
-0.994959
-0.991847
-0.986483
-0.980155
-0.970019
-0.946443
-0.878135
-0.712796
-0.458149
-0.236846
-1.00001
-1.00001
-1.00002
-0.999994
-0.99971
-0.999766
-0.999785
-0.999712
-0.999247
-0.998111
-0.996118
-0.992814
-0.987917
-0.981275
-0.965811
-0.914337
-0.772602
-0.544211
-0.32921
-1
-1
-1.00001
-1.00001
-0.999976
-0.999959
-0.999942
-0.999937
-0.999848
-0.999424
-0.997984
-0.996144
-0.992991
-0.989401
-0.980466
-0.945892
-0.838266
-0.634743
-0.41426
-1
-1
-1
-1.00001
-1
-0.999998
-0.999993
-0.999993
-0.999985
-0.999873
-0.999335
-0.998293
-0.996728
-0.994576
-0.988638
-0.963913
-0.87956
-0.699798
-0.479454
-1
-1
-1
-1
-1
-1
-1
-1
-1
-0.999978
-0.999803
-0.999586
-0.998871
-0.997184
-0.992905
-0.975071
-0.909005
-0.751778
-0.53207
-1
-1
-1
-1
-1
-1
-1
-1
-1
-0.999995
-0.999958
-0.999875
-0.999439
-0.998336
-0.995369
-0.981705
-0.927199
-0.787945
-0.576228
-1
-1
-1
-1
-1
-1
-1
-0.999999
-0.999998
-0.999996
-0.999987
-0.999911
-0.999531
-0.998781
-0.99636
-0.984577
-0.937265
-0.812504
-0.614085
-1
-1
-1
-1
-1
-1
-1
-1
-0.999998
-0.999995
-0.999989
-0.999955
-0.999794
-0.999221
-0.996848
-0.986271
-0.943909
-0.83102
-0.646554
-1
-1
-1
-1
-1
-1
-1
-1
-0.999999
-0.999996
-0.99999
-0.999966
-0.999837
-0.999248
-0.997082
-0.987625
-0.948521
-0.846133
-0.674947
-1
-1
-1
-1
-1
-1
-1
-1
-1
-0.999997
-0.999989
-0.999959
-0.999811
-0.999107
-0.996304
-0.986062
-0.952854
-0.861177
-0.699703
-1
-1
-1
-1
-1
-1
-1
-1
-1
-0.999998
-0.999983
-0.999926
-0.999758
-0.999131
-0.996375
-0.986092
-0.957111
-0.874217
-0.720792
-1
-1
-1
-1
-1
-1
-1
-1
-1
-0.999993
-0.999966
-0.999876
-0.99966
-0.998803
-0.995222
-0.98658
-0.96381
-0.888057
-0.73936
-1
-1
-1
-1
-1
-1
-1
-1
-1
-0.999997
-0.999979
-0.999923
-0.999762
-0.999134
-0.99673
-0.990477
-0.969867
-0.902075
-0.757424
-1
-1
-1
-1
-1
-1
-1
-1
-1
-0.999999
-0.999981
-0.999942
-0.999834
-0.999344
-0.997216
-0.991448
-0.973026
-0.917205
-0.781716
-1
-1
-1
-1
-1
-1
-1
-1.00001
-1
-1
-0.999986
-0.999952
-0.999853
-0.999389
-0.997676
-0.993564
-0.978276
-0.926774
-0.801771
-1
-1
-1
-1
-1.00001
-1.00001
-1.00001
-1.00001
-1.00001
-1
-0.999991
-0.999958
-0.999864
-0.999509
-0.998335
-0.99529
-0.982586
-0.932072
-0.81472
-1
-1
-1
-1.00001
-1.00001
-1.00001
-1.00001
-1.00001
-1.00001
-1.00001
-0.999999
-0.999979
-0.999903
-0.999601
-0.998578
-0.995508
-0.983227
-0.934826
-0.81819
-1
-1.00001
-1.00001
-1.00001
-1.00001
-1.00001
-1
-1.00001
-1.00001
-1.00001
-1
-0.999993
-0.999953
-0.999785
-0.998956
-0.995113
-0.976599
-0.919153
-0.819388
-1.00001
-1.00001
-1.00001
-1
-1
-0.999996
-0.999992
-0.999994
-0.999998
-1
-1
-0.999996
-0.999965
-0.999813
-0.999187
-0.995728
-0.975961
-0.914926
-0.821222
-1.00001
-1.00001
-1
-0.999993
-0.99998
-0.999965
-0.999956
-0.999962
-0.999975
-0.99999
-0.999996
-0.999993
-0.999969
-0.999846
-0.999473
-0.997689
-0.987056
-0.94109
-0.840068
-1.00001
-1.00001
-0.999996
-0.999969
-0.999941
-0.999896
-0.999881
-0.999899
-0.999936
-0.999964
-0.999979
-0.999986
-0.999977
-0.999892
-0.999552
-0.998245
-0.993035
-0.966355
-0.878901
-1.00001
-1.00001
-0.999986
-0.999941
-0.999897
-0.999842
-0.999792
-0.999819
-0.999867
-0.999917
-0.999945
-0.999972
-0.999969
-0.999931
-0.999803
-0.999311
-0.997189
-0.980272
-0.903442
-1.00001
-1
-0.999972
-0.999923
-0.999866
-0.999809
-0.999752
-0.999767
-0.999828
-0.99987
-0.999902
-0.999935
-0.999948
-0.99993
-0.999851
-0.999665
-0.999472
-0.994301
-0.941899
-1.00001
-1
-0.999962
-0.999912
-0.99985
-0.99979
-0.999733
-0.999734
-0.999775
-0.999804
-0.999834
-0.999853
-0.999888
-0.999895
-0.99987
-0.999796
-0.99995
-0.99954
-0.981773
)
;

boundaryField
{
    leftWall
    {
        type            zeroGradient;
    }
    rightWall
    {
        type            zeroGradient;
    }
    lowerWall
    {
        type            zeroGradient;
    }
    atmosphere
    {
        type            zeroGradient;
    }
    defaultFaces
    {
        type            empty;
    }
}


// ************************************************************************* //
