/*--------------------------------*- C++ -*----------------------------------*\
| =========                 |                                                 |
| \\      /  F ield         | foam-extend: Open Source CFD                    |
|  \\    /   O peration     | Version:     4.1                                |
|   \\  /    A nd           | Web:         http://www.foam-extend.org         |
|    \\/     M anipulation  |                                                 |
\*---------------------------------------------------------------------------*/
FoamFile
{
    version     2.0;
    format      ascii;
    class       volScalarField;
    location    "0.55";
    object      C_0;
}
// * * * * * * * * * * * * * * * * * * * * * * * * * * * * * * * * * * * * * //

dimensions      [0 0 0 0 0 0 0];

internalField   nonuniform List<scalar> 
2268
(
1.00348
1.00339
1.00288
1.00307
1.00302
1.00333
1.00429
1.0052
1.00431
1.00102
0.998097
0.997262
0.997423
0.998178
0.999171
0.999946
1.00043
1.00056
1.00056
1.00055
1.00057
1.00046
1.00024
1.00252
1.00239
1.00157
1.00202
1.00205
1.00275
1.00412
1.0046
1.00255
0.998042
0.995315
0.995052
0.99578
0.997087
0.998446
0.999464
1.00014
1.00035
1.00042
1.00048
1.00055
1.00048
1.00024
0.998314
0.998101
0.996565
0.997777
0.998015
0.999797
1.00209
1.00143
0.996668
0.990376
0.988792
0.990139
0.992244
0.994683
0.996772
0.998318
0.999417
0.999822
1.00007
1.00028
1.00049
1.00046
1.00019
0.98578
0.985474
0.982755
0.985752
0.986374
0.990403
0.994388
0.991453
0.982831
0.976638
0.978016
0.982467
0.986671
0.990734
0.993874
0.996268
0.998061
0.998802
0.999394
0.999881
1.0003
1.00033
1.00004
0.953139
0.952926
0.948498
0.955398
0.95672
0.965173
0.972403
0.965744
0.954623
0.953481
0.961445
0.971204
0.97807
0.984365
0.989007
0.99273
0.995611
0.996924
0.998141
0.999107
0.999825
0.999988
0.999882
0.87615
0.876828
0.870316
0.884888
0.887584
0.90414
0.918248
0.907579
0.902776
0.9143
0.935563
0.95333
0.963998
0.973812
0.980823
0.986621
0.991213
0.993509
0.995836
0.997631
0.998822
0.999401
1.00026
0.71268
0.716022
0.70758
0.734989
0.740218
0.769498
0.797522
0.789714
0.808398
0.846535
0.891486
0.922198
0.939864
0.956043
0.967143
0.976226
0.983532
0.987591
0.991784
0.994976
0.996991
0.998757
1.00258
0.415708
0.423404
0.414248
0.456608
0.465354
0.506155
0.557669
0.576041
0.641092
0.726548
0.811816
0.865803
0.898135
0.926081
0.944525
0.958966
0.970609
0.977811
0.985042
0.990501
0.993924
0.998303
1.00892
-0.698491
-0.655883
-0.629796
-0.584997
-0.531026
-0.471841
-0.424359
-0.403812
-0.402416
-0.395359
-0.348122
-0.305431
-0.252287
-0.203277
-0.170114
-0.105098
-0.0752464
-0.0592716
-0.0456046
-0.707876
-0.692922
-0.718368
-0.698778
-0.639552
-0.573528
-0.512776
-0.460053
-0.45516
-0.487513
-0.488843
-0.468776
-0.418143
-0.311157
-0.250284
-0.154144
-0.092307
-0.0425966
0.00135783
-0.723031
-0.750519
-0.817954
-0.808124
-0.70824
-0.629225
-0.595322
-0.546444
-0.522079
-0.601063
-0.658757
-0.66834
-0.620009
-0.484973
-0.389847
-0.287927
-0.210506
-0.0757897
0.0300755
-0.739714
-0.799006
-0.881456
-0.874127
-0.737079
-0.585253
-0.550831
-0.593179
-0.584107
-0.657101
-0.766407
-0.807183
-0.781689
-0.657957
-0.544493
-0.463976
-0.443114
-0.179425
0.0380908
-0.753148
-0.820138
-0.908198
-0.903395
-0.738157
-0.450374
-0.340641
-0.494512
-0.59166
-0.662407
-0.792488
-0.875112
-0.876665
-0.782183
-0.671275
-0.61018
-0.640813
-0.319621
0.0407261
-0.761288
-0.826074
-0.913474
-0.903713
-0.6811
-0.247837
-0.0290332
-0.242382
-0.519679
-0.630945
-0.764349
-0.888901
-0.919807
-0.855103
-0.75961
-0.708763
-0.743172
-0.433777
0.0439272
-0.772695
-0.831392
-0.912335
-0.879349
-0.559662
0.0183672
0.26199
0.0438259
-0.363418
-0.564332
-0.715246
-0.869472
-0.929906
-0.906435
-0.829915
-0.770814
-0.788523
-0.482603
0.0467538
-0.797528
-0.845737
-0.89346
-0.805865
-0.352796
0.28781
0.460226
0.233269
-0.227387
-0.508353
-0.690734
-0.846182
-0.912206
-0.925656
-0.878029
-0.814308
-0.809449
-0.494065
0.0477325
-0.213766
-0.20332
-0.210138
-0.165091
-0.153468
-0.129303
-0.0311637
0.0599903
0.224034
0.415121
0.595798
0.713355
0.790011
0.850132
0.888731
0.916662
0.939074
0.954342
0.96869
0.979197
0.985943
0.996961
1.02489
-0.786996
-0.784508
-0.786026
-0.773007
-0.761682
-0.763652
-0.696394
-0.628513
-0.47923
-0.253038
0.0347736
0.290695
0.479395
0.628322
0.726768
0.793762
0.847165
0.883816
0.917898
0.943325
0.957528
0.977901
1.01965
-0.942507
-0.942189
-0.941511
-0.937304
-0.929832
-0.92554
-0.892375
-0.849772
-0.776924
-0.666291
-0.524947
-0.317262
-0.141176
0.0993236
0.318443
0.473968
0.599115
0.682631
0.770342
0.811352
0.836033
0.891381
0.959311
-0.982218
-0.981962
-0.981068
-0.978838
-0.974683
-0.968123
-0.949336
-0.922242
-0.895068
-0.851556
-0.791299
-0.694946
-0.616059
-0.485415
-0.296374
-0.146392
0.0117463
0.140312
0.275464
0.303845
0.331529
0.521564
0.705356
-0.993731
-0.993502
-0.993026
-0.991527
-0.988684
-0.981677
-0.969262
-0.954813
-0.945102
-0.926703
-0.900356
-0.857589
-0.811834
-0.777507
-0.713978
-0.663415
-0.621807
-0.577409
-0.578021
-0.607252
-0.589613
-0.392334
-0.143829
-0.997625
-0.997484
-0.997262
-0.996392
-0.994509
-0.990286
-0.983663
-0.977042
-0.973756
-0.967896
-0.956098
-0.94039
-0.925341
-0.91517
-0.912038
-0.905798
-0.906459
-0.897999
-0.921013
-0.92968
-0.919499
-0.867421
-0.80063
-0.999161
-0.999092
-0.998955
-0.998503
-0.997238
-0.994891
-0.991358
-0.98887
-0.987361
-0.984947
-0.979712
-0.978015
-0.975235
-0.973582
-0.979461
-0.982888
-0.984652
-0.984598
-0.98844
-0.985315
-0.976765
-0.962396
-0.944062
-0.999803
-0.999791
-0.999722
-0.999569
-0.999021
-0.998083
-0.996609
-0.995641
-0.99499
-0.993983
-0.992306
-0.993179
-0.993559
-0.994488
-0.997376
-0.998801
-0.999033
-0.99799
-0.99544
-0.990283
-0.984335
-0.976624
-0.963887
-1.00006
-1.00007
-1.00005
-1.00001
-0.999889
-0.999647
-0.999213
-0.998782
-0.998466
-0.997885
-0.997509
-0.998366
-0.999121
-0.999887
-1.00018
-0.99975
-0.998247
-0.995573
-0.991136
-0.984753
-0.976763
-0.967006
-0.953219
-1.00015
-1.00015
-1.00014
-1.00015
-1.00018
-1.00018
-1.00017
-1.0001
-1.00016
-1.00003
-1.00006
-1.00013
-0.999972
-0.999959
-0.999609
-0.998409
-0.996232
-0.992127
-0.984944
-0.974886
-0.96211
-0.945093
-0.92201
-1.00016
-1.00014
-1.00013
-1.00015
-1.00021
-1.00017
-0.999457
-0.998927
-0.999359
-0.99937
-0.999249
-0.998947
-0.998394
-0.997338
-0.995411
-0.992286
-0.988273
-0.982079
-0.972557
-0.959847
-0.945055
-0.927417
-0.904636
-1.00014
-1.00011
-1.0001
-1.00006
-0.999462
-0.996568
-0.99271
-0.992167
-0.993332
-0.993344
-0.990882
-0.986341
-0.98163
-0.977445
-0.973299
-0.96894
-0.963943
-0.959142
-0.954549
-0.94878
-0.940828
-0.930607
-0.914228
-1.00011
-1.00007
-1.00006
-1.00003
-0.999484
-0.996599
-0.992439
-0.990889
-0.990648
-0.990621
-0.990533
-0.990309
-0.991738
-0.993316
-0.993925
-0.993214
-0.992456
-0.992868
-0.992812
-0.992207
-0.991587
-0.990149
-0.983768
-1.00007
-1.00004
-1.00003
-1.00004
-0.999935
-0.998981
-0.99627
-0.993675
-0.992773
-0.992744
-0.992771
-0.994994
-0.997544
-0.99906
-0.999608
-0.999778
-0.999876
-1.00001
-1.00009
-1.00003
-0.99975
-0.997233
-0.987927
-1.00004
-1.00002
-1.00001
-1.00002
-1.00004
-0.999981
-0.999298
-0.998124
-0.997172
-0.997905
-0.996609
-0.997799
-0.999042
-0.999764
-0.999985
-1.00005
-1.00013
-1.00019
-1.00026
-1.00029
-1.0001
-0.997868
-0.990615
-1.00002
-1.00001
-1
-1
-1.00002
-1.00005
-0.999996
-0.999782
-0.99951
-0.999817
-0.999368
-0.999534
-0.99981
-0.999991
-1.00003
-1.00003
-1.00003
-1.00003
-1.00004
-1.00006
-1.00012
-0.999857
-0.997966
-1.00001
-1
-1
-0.999999
-1
-1.00003
-1.00006
-1.00006
-1.00002
-1.00007
-0.999984
-1
-1.00005
-1.00006
-1.00004
-1.00002
-1.00001
-1
-0.999999
-1
-1.00002
-1.00007
-0.999906
-1
-1
-0.999999
-0.999999
-1
-1.00001
-1.00003
-1.00004
-1.00004
-1.00004
-1.00004
-1.00005
-1.00005
-1.00004
-1.00002
-1.00001
-1
-1
-0.999999
-0.999998
-0.999998
-1.00001
-1.00003
-1
-1
-1
-0.999999
-0.999999
-1
-1.00001
-1.00001
-1.00001
-1.00001
-1.00002
-1.00002
-1.00002
-1.00001
-1
-1
-1
-1
-1
-1
-0.999999
-0.999999
-1
-1
-1
-1
-1
-0.999999
-0.999999
-1
-1
-1
-1
-1
-1.00001
-1.00001
-1
-1
-1
-1
-1
-1
-1
-1
-1
-0.999999
-1
-1
-1
-1
-1
-1
-1
-1
-1
-1
-1
-1
-1
-1
-1
-1
-1
-1
-1
-1
-1
-1
-1
-1
-1
-1
-1
-1
-1
-1
-1
-1
-1
-1
-1
-1
-1
-1
-1
-1
-1
-1
-1
-1
-1
-1
-1
-1
-1
-1
-1
-1
-1
-1
-1
-1
-1
-1
-1
-1
-1
-1
-1
-1
-1
-1
-1
-1
-1
-1
-1
-1
-1
-1
-1
-1
-1
-1
-1
-1
-1
-1
-1
-1
-1
-1
-1
-1
-1
-1
-1
-1
-1
-1
-1
-1
-1
-1
-1
-1
-1
-1
-1
-1
-1
-1
-1
-1
-1
-1
-1
-1
-1
-1
-1
-1
-1
-1
-1
-1
-1
-1
-1
-1
-1
-1
-1
-1
-1
-1
-1
-1
-1
-1
-1
-1
-1
-1
-1
-1
-1
-1
-1
-1
-1
-1
-1
-1
-1
-1
-1
-1
-1
-1
-1
-1
-1
-1
-1
-1
-1
-1
-1
-1
-1
-1
-1
-1
-1
-1
-1
-1
-1
-1
-1
-1
-1
-1
-1
-1
-1
-1
-1
-1
-1
-1
-1
-1
-1
-1
-1
-1
-1
-1
-1
-1
-1
-1
-1
-1
-1
-1
-1
-1
-1
-1
-1
-1
-1
-1
-1
-1
-1
-1
-1
-1
-1
-1
-1
-1
-1
-1
-1
-1
-1
-1
-1
-1
-1
-1
-1
-1
-1
-1
-1
-1
-1
-1
-1
-1
-1
-1
-1
-1
-1
-1
-1
-1
-1
-1
-1
-1
-1
-1
-1
-1
-1
-1
-1
-1
-1
-1
-1
-1
-1
-1
-1
-1
-1
-1
-1
-1
-1
-1
-1
-1
-1
-1
-1
-1
-1
-1
-1
-1
-1
-1
-1
-1
-1
-1
-1
-1
-1
-1
-1
-1
-1
-1
-1
-1
-1
-1
-1
-1
-1
-1
-1
-1
-1
-1
-1
-1
-1
-1
-1
-1
-1
-1
-1
-1
-1
-1
-1
-1
-1
-1
-1
-1
-1
-1
-1
-1
-1
-1
-1
-1
-1
-1
-1
-1
-1
-1
-1
-1
-1
-1
-1
-1
-1
-1
-1
-1
-1
-1
-1
-1
-1
-1
-1
-1
-1
-1
-1
-1
-1
-1
-1
-1
-1
-1
-1
-1
-1
-1
-1
-1
-1
-1
-1
-1
-1
-1
-1
-1
-1
-1
-1
-1
-1
-1
-1
-1
-1
-1
-1
-1
-1
-1
-1
-1
-1
-1
-1
-1
-1
-1
-1
-1
-1
-1
-1
-1
-1
-1
-1
-1
-1
-1
-1
-1
-1
-1
-1
-1
-1
-1
-1
-1
-1
-1
-1
-1
-1
-1
-1
-1
-1
-1
-1
-1
-1
-1
-1
-1
-1
-1
-1
-1
-1
-1
-1
-1
-1
-1
-1
-1
-1
-1
-1
-1
-1
-1
-1
-1
-1
-1
-1
-1
-1
-1
-1
-1
-1
-1
-1
-1
-1
-1
-1
-1
-1
-1
-1
-1
-1
-1
-1
-1
-1
-1
-1
-1
-1
-1
-1
-1
-1
-1
-1
-1
-1
-1
-1
-1
-1
-1
1.01071
0.857305
0.437999
-0.194474
1.03763
0.959142
0.690419
0.161997
1.01086
1.01999
0.968519
0.787253
0.80503
0.852647
0.883871
0.885722
0.0613445
0.188062
0.319579
0.442824
-0.728249
-0.669438
-0.583635
-0.469933
-0.923816
-0.9057
-0.879813
-0.847782
-0.948646
-0.936827
-0.924575
-0.913251
-0.936753
-0.921556
-0.902981
-0.882308
-0.901351
-0.886998
-0.871701
-0.854408
-0.884489
-0.871114
-0.857243
-0.843306
-0.897422
-0.88814
-0.881131
-0.875188
-0.97319
-0.966247
-0.959832
-0.954473
-0.977692
-0.973772
-0.972091
-0.971795
-0.985768
-0.985046
-0.985482
-0.986392
-0.996207
-0.995552
-0.995302
-0.995245
-0.999711
-0.999608
-0.999467
-0.999269
-1.00005
-1.00007
-1.00006
-1.00003
-1.00001
-1.00002
-1.00003
-1.00003
-1
-1
-1
-1.00001
-1
-1
-1
-1
-1
-1
-1
-1
-1
-1
-1
-1
-1
-1
-1
-1
-1
-1
-1
-1
-1
-1
-1
-1
-1
-1
-1
-1
-1
-1
-1
-1
-1
-1
-1
-1
-1
-1
-1
-1
-1
-1
-1
-1
-1
-1
-1
-1
-1
-1
-1
-1
-1
-1
-1
-1
-1
-1
-1
-1
-1
-1
-1
-1
-1
-1
-1
-1
-1
-1
-1
-1.00001
-1
-1
-1.00001
-1.00001
-1
-1.00001
-1.00001
-1.00001
-1.00001
-1.00001
-1.00001
-1.00001
-1.00001
-1.00001
-1.00001
-1.00001
-0.80821
-0.848052
-0.781122
-0.525428
0.0588518
0.587057
0.646836
0.347589
-0.210803
-0.519678
-0.649938
-0.767532
-0.836436
-0.908442
-0.914891
-0.869615
-0.825237
-0.492893
0.0466034
-0.682085
-0.585343
0.00939451
0.54502
0.798633
0.868312
0.787785
0.16635
-0.506911
-0.63456
-0.698713
-0.754753
-0.810686
-0.892793
-0.917907
-0.874778
-0.78744
-0.459725
0.054166
0.254105
0.363618
0.782942
0.902105
0.926435
0.914986
0.818912
0.244946
-0.525293
-0.791747
-0.828607
-0.80766
-0.829181
-0.895186
-0.91877
-0.885765
-0.787913
-0.461427
0.0857294
0.836155
0.816388
0.894943
0.822509
0.787693
0.769431
0.736029
0.381033
-0.176834
-0.820426
-0.928416
-0.889682
-0.8674
-0.912674
-0.913307
-0.846897
-0.662026
-0.183672
0.217215
0.607253
0.434679
0.531195
0.387122
0.307483
0.375943
0.495004
0.581276
0.335452
-0.711234
-0.967542
-0.932649
-0.896636
-0.927092
-0.913725
-0.859555
-0.623491
-0.104592
0.237953
-0.225764
-0.455031
-0.362486
-0.501398
-0.444997
-0.281958
-0.026468
0.413861
0.391405
-0.646042
-0.961428
-0.958066
-0.926407
-0.93968
-0.935543
-0.907659
-0.652073
-0.137233
0.227066
-0.797926
-0.81683
-0.792128
-0.793501
-0.69172
-0.56707
-0.351298
0.0420109
0.463467
-0.195885
-0.910874
-0.979683
-0.963187
-0.960686
-0.953443
-0.861618
-0.400298
0.159619
0.272357
-0.897808
-0.879302
-0.855164
-0.813153
-0.721519
-0.613565
-0.479732
-0.227208
0.146615
0.0432015
-0.788121
-0.964926
-0.971728
-0.954771
-0.931523
-0.749819
-0.266704
0.218714
0.225106
-0.847181
-0.789189
-0.730571
-0.681961
-0.640925
-0.555085
-0.451194
-0.302691
-0.0706965
0.0770414
-0.51064
-0.871366
-0.934425
-0.846203
-0.778145
-0.475252
-0.0864929
0.198347
0.185638
-0.821131
-0.765397
-0.679439
-0.589112
-0.53137
-0.46337
-0.387061
-0.295213
-0.208707
-0.100393
-0.28397
-0.614848
-0.749386
-0.517843
-0.457447
-0.28726
0.0241353
0.246691
0.155069
-0.820709
-0.790474
-0.760073
-0.716045
-0.677416
-0.605104
-0.512472
-0.392133
-0.308175
-0.270674
-0.278312
-0.393523
-0.461301
-0.338611
-0.338993
-0.208525
0.093233
0.252142
0.125905
-0.864187
-0.851208
-0.837629
-0.805277
-0.77482
-0.692792
-0.596515
-0.459881
-0.345918
-0.269779
-0.234135
-0.227201
-0.229723
-0.174926
-0.185606
-0.0068647
0.256314
0.281417
0.118096
-0.947638
-0.942691
-0.936687
-0.929013
-0.930177
-0.910671
-0.866774
-0.786582
-0.686891
-0.554422
-0.421845
-0.225928
-0.145872
-0.0464314
0.0102612
0.00352002
0.265625
0.287524
0.109673
-0.972233
-0.973171
-0.970254
-0.967465
-0.965636
-0.953603
-0.936801
-0.908068
-0.87636
-0.82959
-0.769582
-0.630287
-0.545445
-0.417242
-0.368764
-0.389781
0.0072216
0.141129
0.0797656
-0.987442
-0.987717
-0.985496
-0.982703
-0.979706
-0.973438
-0.965134
-0.948344
-0.932455
-0.910213
-0.877322
-0.810065
-0.746022
-0.694521
-0.645617
-0.6231
-0.300499
-0.135426
0.0311516
-0.995332
-0.995132
-0.994464
-0.991669
-0.989931
-0.989112
-0.986242
-0.980884
-0.973906
-0.962299
-0.939484
-0.904199
-0.879071
-0.865064
-0.803537
-0.763307
-0.529071
-0.31694
-0.0319558
-0.998847
-0.998445
-0.998154
-0.996163
-0.99454
-0.995465
-0.994439
-0.992764
-0.989088
-0.981607
-0.967132
-0.95175
-0.945972
-0.927358
-0.881131
-0.811358
-0.620755
-0.377063
-0.095187
-0.999888
-0.999723
-0.999676
-0.99907
-0.997146
-0.998034
-0.99812
-0.997773
-0.99599
-0.991682
-0.984056
-0.976645
-0.970799
-0.956555
-0.924779
-0.848828
-0.669357
-0.396243
-0.154775
-1.00001
-0.99998
-0.999993
-0.999838
-0.998831
-0.999222
-0.99932
-0.998913
-0.997374
-0.995004
-0.991897
-0.98654
-0.980136
-0.969885
-0.946418
-0.87802
-0.71138
-0.455166
-0.235118
-1.00001
-1.00001
-1.00002
-0.999995
-0.999711
-0.999769
-0.999787
-0.999719
-0.999263
-0.998111
-0.996114
-0.992789
-0.987759
-0.980884
-0.965167
-0.91281
-0.768981
-0.539231
-0.326568
-1
-1
-1.00001
-1.00001
-0.999976
-0.999959
-0.999942
-0.999938
-0.999851
-0.999419
-0.997959
-0.996066
-0.992801
-0.989031
-0.979834
-0.944514
-0.835211
-0.629985
-0.4114
-1
-1
-1
-1.00001
-1
-0.999998
-0.999993
-0.999993
-0.999985
-0.99987
-0.999319
-0.99823
-0.996583
-0.994329
-0.988213
-0.962969
-0.877128
-0.695464
-0.476567
-1
-1
-1
-1
-1
-1
-1
-1
-1
-0.999977
-0.999798
-0.999573
-0.998813
-0.997036
-0.992631
-0.974471
-0.907237
-0.7483
-0.529178
-1
-1
-1
-1
-1
-1
-1
-1
-1
-0.999995
-0.999956
-0.999868
-0.999402
-0.998244
-0.995215
-0.981371
-0.926131
-0.78552
-0.573443
-1
-1
-1
-1
-1
-1
-1
-0.999999
-0.999997
-0.999996
-0.999986
-0.999905
-0.9995
-0.99872
-0.996261
-0.98438
-0.936701
-0.810955
-0.611495
-1
-1
-1
-1
-1
-1
-1
-1
-0.999998
-0.999995
-0.999988
-0.999952
-0.999782
-0.999189
-0.996769
-0.986112
-0.943557
-0.829818
-0.644132
-1
-1
-1
-1
-1
-1
-1
-1
-0.999999
-0.999995
-0.999989
-0.999964
-0.999829
-0.999221
-0.997009
-0.987471
-0.948126
-0.844864
-0.672697
-1
-1
-1
-1
-1
-1
-1
-1
-1
-0.999996
-0.999988
-0.999957
-0.999803
-0.999082
-0.996227
-0.985865
-0.952313
-0.859756
-0.69767
-1
-1
-1
-1
-1
-1
-1
-1
-1
-0.999998
-0.999982
-0.999923
-0.999747
-0.999102
-0.996289
-0.985851
-0.956386
-0.872683
-0.718933
-1
-1
-1
-1
-1
-1
-1
-1
-1
-0.999993
-0.999964
-0.999872
-0.999649
-0.998774
-0.995112
-0.986244
-0.962872
-0.886287
-0.737522
-1
-1
-1
-1
-1
-1
-1
-1
-1
-0.999997
-0.999977
-0.99992
-0.999752
-0.999102
-0.996612
-0.990139
-0.968982
-0.900394
-0.755359
-1
-1
-1
-1
-1
-1
-1
-1
-1
-0.999998
-0.99998
-0.999939
-0.999827
-0.999317
-0.997107
-0.99113
-0.97227
-0.915993
-0.779538
-1
-1
-1
-1
-1
-1
-1
-1.00001
-1
-1
-0.999985
-0.99995
-0.999847
-0.999367
-0.997596
-0.993333
-0.977745
-0.925875
-0.799788
-1
-1
-1
-1
-1.00001
-1.00001
-1.00001
-1.00001
-1.00001
-1
-0.999991
-0.999956
-0.999858
-0.999489
-0.998263
-0.995117
-0.982209
-0.931424
-0.813311
-1
-1
-1
-1.00001
-1.00001
-1.00001
-1.00001
-1.00001
-1.00001
-1.00001
-0.999999
-0.999978
-0.999899
-0.999583
-0.998513
-0.995362
-0.982983
-0.934396
-0.817202
-1
-1.00001
-1.00001
-1.00001
-1.00001
-1.00001
-1
-1.00001
-1.00001
-1.00001
-1
-0.999992
-0.999951
-0.999773
-0.998914
-0.995025
-0.976377
-0.91856
-0.818554
-1.00001
-1.00001
-1.00001
-1
-1
-0.999996
-0.999992
-0.999995
-0.999998
-1
-1
-0.999996
-0.999963
-0.999802
-0.99915
-0.995606
-0.97545
-0.9134
-0.819611
-1.00001
-1.00001
-1
-0.999993
-0.99998
-0.999966
-0.999957
-0.999963
-0.999976
-0.99999
-0.999996
-0.999993
-0.999967
-0.999836
-0.999445
-0.99758
-0.986495
-0.93929
-0.83826
-1.00001
-1.00001
-0.999996
-0.999969
-0.999941
-0.999897
-0.999883
-0.9999
-0.999938
-0.999965
-0.999979
-0.999985
-0.999976
-0.999886
-0.999531
-0.998172
-0.992757
-0.965396
-0.876966
-1.00001
-1.00001
-0.999986
-0.999941
-0.999896
-0.999841
-0.999793
-0.99982
-0.999868
-0.999918
-0.999946
-0.999971
-0.999968
-0.999928
-0.999794
-0.999283
-0.997055
-0.979668
-0.901752
-1.00001
-1
-0.999971
-0.999923
-0.999865
-0.999809
-0.999751
-0.999768
-0.999829
-0.999871
-0.999902
-0.999935
-0.999946
-0.999928
-0.999846
-0.999654
-0.999448
-0.994141
-0.940708
-1.00001
-1
-0.999962
-0.999911
-0.999849
-0.99979
-0.999733
-0.999733
-0.999776
-0.999805
-0.999834
-0.999853
-0.999886
-0.999892
-0.999866
-0.99979
-0.999946
-0.999522
-0.981319
)
;

boundaryField
{
    leftWall
    {
        type            zeroGradient;
    }
    rightWall
    {
        type            zeroGradient;
    }
    lowerWall
    {
        type            zeroGradient;
    }
    atmosphere
    {
        type            zeroGradient;
    }
    defaultFaces
    {
        type            empty;
    }
}


// ************************************************************************* //
