/*--------------------------------*- C++ -*----------------------------------*\
| =========                 |                                                 |
| \\      /  F ield         | foam-extend: Open Source CFD                    |
|  \\    /   O peration     | Version:     4.1                                |
|   \\  /    A nd           | Web:         http://www.foam-extend.org         |
|    \\/     M anipulation  |                                                 |
\*---------------------------------------------------------------------------*/
FoamFile
{
    version     2.0;
    format      ascii;
    class       volScalarField;
    location    "0.55";
    object      p;
}
// * * * * * * * * * * * * * * * * * * * * * * * * * * * * * * * * * * * * * //

dimensions      [1 -1 -2 0 0 0 0];

internalField   nonuniform List<scalar> 
2268
(
498.107
500.881
503.216
509.252
518.879
531.617
551.745
579.423
608.003
641.034
679.899
698.763
726.574
749.373
774.112
795.892
817.734
838.629
862.202
881.236
900.048
901.888
924.43
438.779
441.567
443.845
449.882
459.314
472.105
492.159
519.112
550.159
584.4
619.548
638.342
668.065
690.067
715.204
736.918
757.732
777.974
803.059
822.962
844.025
844.027
866.282
379.077
381.935
383.992
390.114
399.209
411.675
432.27
458.019
487.024
523.117
559.089
580.277
609.075
632.181
657.277
680.135
701.048
722.481
745.198
766.273
784.395
792.417
810.982
319.172
322.008
323.807
330.034
338.698
350.951
370.623
396.853
430.975
466.297
495.901
521.08
551.57
574.6
599.168
621.122
642.53
663.755
687.499
708.565
728.175
735.297
754.802
259.562
262.409
263.669
270.307
277.7
289.543
310.424
334.287
369.277
404.307
434.601
463.152
492.371
517.394
543.147
564.785
587.565
606.306
627.162
647.353
671.039
682.669
701.005
201.332
203.955
204.813
211.514
218.049
229.579
247.065
276.901
311.921
341.121
374.957
404.894
435.566
459.888
486.024
507.718
529.325
545.878
574.564
606.889
612.441
631.147
647.935
146.014
148.513
148.838
155.664
161.053
170.831
191.58
217.112
248.4
281.948
314.773
348.204
378.299
403.583
430.296
454.161
475.249
492.402
514.62
534.169
565.971
583.137
596.867
98.0895
100.271
100.478
106.445
109.831
119.229
135.265
166.02
191.084
224.021
258.802
291.899
321.169
349.818
375.412
399.54
412.863
439.222
463.486
499.202
509.32
528.004
546.619
713.857
608.312
483.694
487.156
487.717
602.711
700.353
689.791
555.635
457.014
421.639
402.237
403.1
455.283
269.798
334.57
578.131
854.248
1280.06
681.046
505.213
428.525
452.715
455.563
602.947
702.484
675.547
515.798
423.159
397.534
387.295
335.224
397.168
274.394
349.153
409.256
752.095
1202
605.915
443.891
429.43
431.233
476.757
590.608
691.966
668.573
498.429
409.755
378.728
355.203
336.603
328.591
296.983
397.298
397.575
692.45
1078.43
567.386
413.499
407.746
425.695
460.242
559.52
667.528
646.724
490.768
394.957
363.374
336.826
326.622
324.657
283.437
384.228
344.388
578.006
912.613
533.257
400.247
398.069
422.641
440.634
519.721
622.437
624.422
489.139
391.563
353.023
325.269
317.999
310.62
302.179
338.262
325.012
485.634
698.242
510.541
376.601
397.183
418.929
443.05
479.184
557.658
554.479
468.635
383.55
338.132
316.858
310.07
305.487
299.892
328.54
310.329
422.167
585.18
506.933
380.776
402.28
418.297
431.9
480.289
545.38
476.688
453.298
366.889
301.117
307.419
303.372
297.457
299.438
315.373
299.182
381.695
507.881
513.231
390.212
409
420.743
433.635
527.093
476.298
410.59
412.006
356.163
255.286
289.313
296.456
282.371
296.251
309.203
289.37
351.342
435.325
48.6054
50.0646
50.0908
54.6369
56.2627
61.971
77.0721
92.445
116.039
145.701
179.458
213.219
235.963
266.82
294.01
317.352
343.423
356.945
380.865
381.887
424.564
458.27
476.941
16.9642
17.3735
17.7524
20.3387
20.5879
24.5987
29.7618
41.1784
54.5224
70.3495
92.0682
115.081
146.171
162.588
190.673
209.055
228.53
245.907
263.195
287.896
305.078
342.169
389.61
8.30357
8.5265
9.06191
9.75651
10.1023
13.2273
14.6143
23.2215
23.5232
36.0997
37.7086
61.509
73.0459
87.7066
102.77
118.432
136.114
141.408
167.975
169.76
202.207
225.095
265.946
5.75674
5.93608
6.08924
6.67718
6.60118
8.81243
9.54555
15.6305
14.5197
18.0746
23.52
18.3728
37.901
40.2038
49.3874
55.7772
62.3945
72.1619
82.9183
88.9299
96.9479
121.547
155.703
4.77271
4.84595
4.84227
5.09351
5.27423
6.62103
6.46871
8.02435
9.02742
9.69814
12.4063
13.9755
17.5175
21.9157
15.8221
23.1187
22.7082
28.4729
30.4678
29.2447
34.2557
45.1188
68.1921
4.29596
4.33014
4.39148
4.393
4.39582
5.09884
5.70779
5.67619
6.03124
4.14991
8.55266
8.89833
5.00088
11.4998
8.26102
10.3491
10.5772
12.6269
12.8761
17.2221
22.2814
23.0339
34.0076
3.98145
3.97711
3.96234
3.90101
3.89801
3.87459
3.8511
4.08811
4.28327
4.69872
5.07789
5.74592
5.80618
5.30105
6.35214
6.74146
7.39006
8.37333
11.9406
14.5638
16.7954
17.4531
22.5671
3.74286
3.70496
3.71509
3.67031
3.49099
3.46242
3.40564
3.33558
3.58745
4.21524
4.3467
4.71751
4.31639
5.28147
5.63663
6.58496
6.19187
7.34655
9.41765
14.1813
14.7671
16.0964
18.3284
3.54096
3.54244
3.41267
3.42364
3.34024
2.96964
2.93869
2.91482
3.02207
3.48405
4.11196
4.3478
4.52898
4.90134
5.29388
5.8767
6.35559
7.01167
8.45059
9.7065
12.4027
13.7776
5.16763
3.35489
3.36601
3.32544
3.28036
3.06494
2.7649
2.70428
2.4116
2.6603
3.17116
3.63992
3.93497
4.23259
4.64109
4.95431
5.14715
5.12652
5.84235
6.42333
8.12699
11.3654
12.2196
8.68689
3.16341
3.23246
3.20166
3.1615
2.73143
2.25144
2.01254
1.41792
1.91496
2.38603
2.91591
3.25507
3.67938
3.86046
4.1698
4.66761
5.403
6.82562
8.47498
8.72206
7.68582
5.79655
5.79815
2.94715
3.09477
3.23043
3.35385
3.42297
1.56266
1.51276
-0.913351
0.106799
1.70164
1.54565
0.908881
1.06311
1.26885
1.61378
1.24862
0.623795
0.110545
-0.335817
-0.554703
-0.403828
-0.772575
-2.4493
2.64413
2.72808
2.95747
3.18137
3.09424
2.09152
0.878327
-1.00009
-1.66969
-0.790557
-1.57634
-3.83195
-3.77405
-3.17216
-2.35734
-1.98735
-2.36336
-2.35949
-2.26201
-2.29766
-2.36929
-2.55633
-3.10685
2.10686
2.17842
2.31525
2.36505
1.91363
0.508313
-1.42552
-2.30918
-0.093368
-2.05803
-4.51281
-5.4931
-4.7513
-3.31135
-2.70073
-2.2901
-2.39576
-2.38452
-2.3974
-2.32268
-2.1852
-1.9586
-2.08841
1.53083
1.5209
1.5226
1.42049
0.570813
-0.791551
-1.9116
-3.17492
-3.87937
-4.40649
-5.06461
-5.52403
-4.72831
-3.59717
-2.93536
-2.65221
-2.61725
-2.56247
-2.47933
-2.37309
-2.43474
-2.5139
-2.79068
0.980539
1.00224
0.933071
0.896118
0.247452
-0.745234
-1.89591
-2.68973
-3.60074
-4.13325
-4.33209
-4.65759
-4.08397
-3.49037
-3.0222
-2.83644
-2.78184
-2.69649
-2.68144
-2.62946
-2.62911
-2.75887
-3.35272
0.573385
0.502299
0.305459
-0.0474964
-0.444272
-0.928583
-1.68728
-2.13736
-2.9369
-3.37972
-4.04501
-3.76158
-3.55176
-3.36553
-3.08062
-2.90849
-2.88766
-2.84777
-2.81439
-2.84094
-2.89125
-3.0049
-3.35994
0.118013
-0.0154068
0.0136848
-0.397044
-0.762082
-1.24132
-1.61058
-2.16518
-2.46572
-3.29087
-3.53594
-3.66534
-3.16379
-3.10267
-3.05608
-2.95079
-2.95217
-2.94809
-2.94795
-3.00166
-3.03739
-3.1675
-3.22357
-0.391097
-0.540021
-0.752552
-0.994422
-1.06967
-1.32285
-1.59674
-2.21555
-2.61399
-3.03565
-3.48365
-3.16499
-3.09319
-3.04665
-3.04156
-3.03646
-3.06229
-3.07112
-3.04787
-3.12117
-3.15463
-3.19114
-3.32202
-0.800266
-0.867869
-0.94161
-1.0529
-1.1764
-1.52979
-2.01739
-2.37747
-2.71644
-2.85591
-2.87176
-3.18891
-3.04522
-3.16891
-3.20034
-3.06477
-3.12273
-3.15563
-3.17945
-3.23127
-3.25124
-3.26526
-3.4152
-1.14682
-1.1868
-1.46797
-1.29211
-1.57939
-1.89936
-2.07483
-2.28782
-2.38981
-2.77567
-2.9781
-2.84271
-3.13089
-3.10179
-3.09604
-3.26844
-3.168
-3.2404
-3.22729
-3.40478
-3.36338
-3.33809
-3.50482
-1.53593
-1.34449
-1.52359
-1.78708
-1.97764
-2.00479
-2.19442
-2.35666
-2.78637
-2.89737
-2.94225
-3.24331
-3.19961
-3.11446
-3.2745
-3.26916
-3.31732
-3.34937
-3.35082
-3.4066
-3.40752
-3.4542
-3.50069
-1.6953
-1.85467
-1.94891
-2.12387
-2.19058
-2.36698
-2.55735
-2.71038
-2.8183
-2.89452
-3.15252
-3.05807
-3.25227
-3.12036
-3.32014
-3.33848
-3.4319
-3.42822
-3.52264
-3.46794
-3.53014
-3.57305
-3.57313
-1.8811
-2.05519
-2.04906
-2.18576
-2.30014
-2.47091
-2.53755
-2.74257
-2.97078
-2.96654
-3.04882
-3.29673
-3.23869
-3.32287
-3.40111
-3.3698
-3.6192
-3.48436
-3.53903
-3.59656
-3.65874
-3.6689
-3.66794
-2.48945
-2.49438
-2.48091
-2.47413
-2.62541
-2.71959
-2.84431
-2.85509
-3.05946
-3.01911
-3.23494
-3.24118
-3.26973
-3.53308
-3.43793
-3.4171
-3.69942
-3.72579
-3.60224
-3.65915
-3.74042
-3.8076
-3.79531
-2.69672
-2.70791
-2.73704
-2.79974
-2.80563
-2.93993
-2.99159
-3.10306
-3.11071
-3.29693
-3.36702
-3.41202
-3.47314
-3.51114
-3.50176
-3.57131
-3.75338
-3.68914
-3.69309
-3.7793
-3.86839
-3.87422
-3.91621
-2.95031
-2.96554
-2.99855
-3.05228
-3.14357
-3.16548
-3.21349
-3.27909
-3.36274
-3.41739
-3.44919
-3.50073
-3.5456
-3.62326
-3.61437
-3.78385
-3.82486
-3.92706
-3.80136
-3.85262
-3.97972
-3.99505
-4.01664
-3.1718
-3.1704
-3.20824
-3.23541
-3.32184
-3.31953
-3.37709
-3.42853
-3.47487
-3.53033
-3.57131
-3.63096
-3.62375
-3.75871
-3.71229
-3.94098
-3.87797
-3.89023
-3.90801
-3.96446
-3.96354
-4.15593
-4.16383
-3.40589
-3.41862
-3.43437
-3.45601
-3.46825
-3.51388
-3.55292
-3.59926
-3.63996
-3.69006
-3.72842
-3.77256
-3.82186
-3.86921
-3.9045
-3.97462
-3.9471
-4.13591
-4.01448
-4.09483
-4.0594
-4.21668
-4.28282
-3.60068
-3.60706
-3.6222
-3.64045
-3.66768
-3.69468
-3.72526
-3.76107
-3.79359
-3.83383
-3.86178
-3.90387
-3.93483
-3.96719
-4.02573
-4.04213
-4.18572
-4.09858
-4.1606
-4.2089
-4.21285
-4.23733
-4.3817
-3.79935
-3.8039
-3.81574
-3.83015
-3.84828
-3.87215
-3.89604
-3.92637
-3.95225
-3.98628
-4.00994
-4.03638
-4.07485
-4.06701
-4.19099
-4.22424
-4.29337
-4.20839
-4.25402
-4.34671
-4.34533
-4.38805
-4.52714
-3.98436
-3.98837
-3.99755
-4.00969
-4.0245
-4.04444
-4.06375
-4.08941
-4.11002
-4.14041
-4.15879
-4.19085
-4.21492
-4.22268
-4.28952
-4.36082
-4.31949
-4.32969
-4.44267
-4.4896
-4.43251
-4.42262
-4.57381
-4.16739
-4.17054
-4.17773
-4.18744
-4.1991
-4.21497
-4.22999
-4.25081
-4.26701
-4.29223
-4.30598
-4.34563
-4.35897
-4.40924
-4.45288
-4.46596
-4.4472
-4.56889
-4.52054
-4.50951
-4.67193
-4.54934
-4.6514
-4.34278
-4.34542
-4.35117
-4.35929
-4.36882
-4.38252
-4.39474
-4.41446
-4.42728
-4.45414
-4.46027
-4.51475
-4.48839
-4.54045
-4.60567
-4.5426
-4.64012
-4.58907
-4.66655
-4.62651
-4.81393
-4.70637
-4.72185
-4.51675
-4.51875
-4.52301
-4.5293
-4.53624
-4.54657
-4.55543
-4.56918
-4.57852
-4.59712
-4.60157
-4.6069
-4.62032
-4.68705
-4.70863
-4.6907
-4.73334
-4.71296
-4.84385
-4.72047
-4.86601
-4.84157
-4.84444
-4.68522
-4.68696
-4.69027
-4.69562
-4.7013
-4.71073
-4.71778
-4.73372
-4.73897
-4.77227
-4.75387
-4.76334
-4.78494
-4.8547
-4.82711
-4.81791
-4.83966
-4.90092
-4.92011
-4.91293
-4.89793
-5.00928
-4.9929
-4.85341
-4.85456
-4.85666
-4.86042
-4.8641
-4.86961
-4.87493
-4.88075
-4.88822
-4.88715
-4.90476
-4.88261
-4.95809
-4.94637
-4.95473
-4.94916
-5.0075
-4.99608
-5.07581
-5.07025
-5.11386
-5.06158
-5.01802
-5.01729
-5.01821
-5.01981
-5.02255
-5.02559
-5.02979
-5.03495
-5.03908
-5.04785
-5.04757
-5.06855
-5.07935
-5.11487
-5.06433
-5.12671
-5.08454
-5.13544
-5.12682
-5.1571
-5.14726
-5.19949
-5.23263
-5.1366
-5.18554
-5.18455
-5.18464
-5.1882
-5.18719
-5.1911
-5.1927
-5.19192
-5.20187
-5.20611
-5.21209
-5.2323
-5.24365
-5.21096
-5.26857
-5.23764
-5.25801
-5.25623
-5.27566
-5.2656
-5.32287
-5.35267
-5.29084
-5.33749
-5.33921
-5.34007
-5.33962
-5.34289
-5.34271
-5.34769
-5.34864
-5.35268
-5.35124
-5.35674
-5.35753
-5.37558
-5.35573
-5.38615
-5.37976
-5.38911
-5.38086
-5.42267
-5.41443
-5.40604
-5.48061
-5.46026
-5.52987
-5.51434
-5.50926
-5.53032
-5.50199
-5.52902
-5.50441
-5.52506
-5.50579
-5.50806
-5.50753
-5.51331
-5.5118
-5.52176
-5.52578
-5.51802
-5.52193
-5.52446
-5.53659
-5.53596
-5.54772
-5.56936
-5.56266
-5.62738
-5.64543
-5.65129
-5.62704
-5.65843
-5.6277
-5.66006
-5.6281
-5.65611
-5.63848
-5.63405
-5.63604
-5.65576
-5.64069
-5.64459
-5.65442
-5.65707
-5.64842
-5.6669
-5.67401
-5.68434
-5.73886
-5.71699
496.446
499.693
504.956
500.445
446.129
464.383
476.735
480.774
299.956
334.362
349.002
355.904
181.191
198.892
218.205
241.242
83.904
94.6003
109.48
119.227
39.2043
43.6979
49.923
55.47
27.973
30.1076
31.4033
32.4751
20.172
22.6548
25.3115
29.51
17.5812
34.1703
37.8441
36.9468
13.6512
19.6011
20.5459
26.0913
5.08249
1.90696
2.1069
8.45039
0.032238
-1.27798
-0.266467
4.98125
-2.4252
-1.02309
0.723872
0.199391
-2.18668
-2.73747
-2.29838
-1.77648
-3.66752
-3.91953
-3.57853
-3.60624
-3.74709
-3.80545
-3.70504
-3.40764
-3.37595
-3.40186
-3.41343
-3.3622
-3.29814
-3.30567
-3.29384
-3.30273
-3.35579
-3.3811
-3.40215
-3.40941
-3.32207
-3.32136
-3.34032
-3.32631
-3.47232
-3.53751
-3.56604
-3.58051
-3.54554
-3.53952
-3.51903
-3.66053
-3.72703
-3.74216
-3.76352
-3.77774
-3.80072
-3.78232
-3.77476
-3.7883
-3.87316
-3.88705
-3.91512
-3.93241
-3.96887
-3.9887
-3.99655
-4.00707
-4.04976
-4.07436
-4.10731
-4.10589
-4.16553
-4.1876
-4.19946
-4.22862
-4.27916
-4.29591
-4.29075
-4.28023
-4.39066
-4.41372
-4.46821
-4.55875
-4.49276
-4.49163
-4.48889
-4.49165
-4.62941
-4.6477
-4.70915
-4.59308
-4.64003
-4.64385
-4.6528
-4.74486
-4.75743
-4.74184
-4.85386
-4.83472
-4.89772
-4.91147
-4.98466
-5.05397
-5.04668
-5.0226
-5.01536
-5.07262
-5.14034
-5.13683
-5.06634
-5.06528
-5.26115
-5.26493
-5.28522
-5.24518
-5.3717
-5.37032
-5.42708
-5.37916
-5.4532
-5.52248
-5.50603
-5.55842
-5.56923
-5.61344
-5.64144
-5.66467
-5.75921
-5.78154
-5.75871
-5.77563
504.931
417.62
403.79
403.58
392.652
444.854
428.545
352.79
338.44
230.668
184.576
257.312
275.751
294.64
299.437
304.593
284.361
326.768
422.196
493.628
416.583
367.06
414.751
413.149
387.837
370.834
285.596
245.026
166.686
134.098
261.944
265.738
296.27
295.03
295.749
267.555
295.529
456.22
363.673
324.794
270.728
248.296
329.798
301.362
302.26
241.327
214.568
206.196
207.039
219.165
263.512
299.999
288.09
283.883
263.068
183.526
127.098
270.887
298.396
293.954
200.154
257.769
280.928
239.078
152.421
234.654
188.468
177.54
181.887
223.791
252.257
270.985
274.996
279.892
232.021
182.51
155.592
128.362
171.973
139.319
198.128
190.107
135.31
209.362
207.551
185.926
176.929
180.171
214.024
219.922
249.902
257.792
259.409
347.516
454.825
71.3121
74.6567
104.568
105.256
126.231
149.475
130.442
140.438
170.37
176.649
182.072
197.269
225.42
236.006
243.501
238.044
252.763
220.06
408.108
42.2175
54.5422
65.2983
98.8733
107.723
119.093
108.203
103.604
147.684
174.792
196.411
207.607
217.549
233.182
237.93
239.205
244.797
247.311
177.899
33.8957
20.1357
59.7778
103.531
84.598
99.3066
101.602
75.1285
93.9936
155.273
184.122
206.402
217.408
229.359
232.834
232.545
199.365
349.249
290.058
41.0918
34.4867
37.4836
10.6265
66.0533
84.0738
74.5843
23.0779
29.7338
109.465
165.494
194.501
216.264
223.975
228.523
232.977
268.351
218.323
255.427
38.6402
-22.7568
-12.8491
61.5242
40.5175
90.8084
44.9099
-8.58767
20.6639
86.8534
163.147
179.358
198.178
211.175
228.897
226.063
248.653
232.037
229.347
19.9568
-2.85233
-31.207
29.4371
26.229
41.8671
5.70292
34.7457
92.9272
88.143
136.323
140.613
195.715
213.637
217.727
211.86
155.771
251.585
221.387
8.19928
7.1007
-3.36019
9.90026
16.903
6.00698
-9.03886
-14.9583
33.893
83.6196
150.915
110.908
185.09
197.932
201.393
212.582
233.867
183.463
181.251
1.94938
-4.60026
-6.26368
1.93332
4.9756
5.60917
-16.2836
22.5446
39.4718
63.9209
-35.9523
121.601
133.012
151.254
144.834
157.608
188.714
156.268
154.89
-1.88708
-4.1784
-4.91928
1.20924
1.0537
-0.811531
-10.8776
2.40747
25.9437
25.1816
0.335676
47.6553
58.1906
92.4961
92.7759
115.984
91.0468
99.6592
118.211
-2.70582
-1.95621
-2.38346
-2.46246
-0.29081
-0.163787
-4.97152
-0.727334
7.05052
6.39706
5.72338
-4.85987
33.9603
61.7813
44.3006
53.7185
46.5833
76.1243
86.9628
-3.16058
-2.93936
-2.96333
-3.1156
-2.23374
-1.71857
-2.0624
-2.30659
0.829484
-0.138936
-0.177887
3.80764
20.325
12.9542
20.2924
24.3827
31.2348
47.9563
65.0378
-3.24373
-3.07875
-3.04453
-2.98649
-2.54942
-2.93845
-2.74214
-2.56903
-1.70214
-2.03393
-4.74862
5.52902
6.80705
10.1287
20.1518
34.3815
70.457
45.1878
43.9224
-3.30462
-3.18463
-3.19712
-3.09438
-3.17284
-3.06228
-2.95512
-2.71524
-2.33129
-2.322
-1.43102
-1.11004
5.2125
4.50355
9.09862
18.6054
23.8597
32.2576
36.7205
-3.43419
-3.29674
-3.36231
-3.20663
-3.35891
-3.30097
-3.16782
-2.9921
-3.06992
-3.60374
-3.86904
-1.32672
0.250706
0.294977
5.38882
12.6753
16.2426
41.2294
35.0422
-3.56759
-3.54312
-3.34723
-3.33541
-3.61491
-3.41005
-3.34657
-3.34193
-3.44872
-3.6694
-3.48996
-2.73698
-2.34264
-1.17985
0.126904
3.37926
9.08405
20.792
27.5624
-3.61093
-3.59026
-3.42038
-3.49053
-3.41184
-3.59771
-3.56716
-3.52877
-3.63287
-3.74584
-3.91002
-3.74566
-4.12728
-5.0976
-3.39861
-0.868866
1.88715
10.4274
23.9265
-3.68131
-3.63928
-3.51052
-3.53542
-3.71639
-3.7021
-3.66151
-3.74023
-3.69834
-3.79883
-3.98417
-4.07119
-3.82801
-3.47431
-3.33068
-1.78526
-0.317425
-1.86697
13.2918
-3.85145
-3.66839
-3.67628
-3.70572
-3.66443
-3.8244
-3.79254
-3.78594
-3.88001
-3.82397
-4.11976
-4.19678
-3.93363
-3.93998
-3.66727
-3.00152
-1.89332
-0.48493
6.56154
-3.81229
-3.84184
-3.74352
-3.81489
-3.83856
-3.90778
-3.88084
-3.90601
-3.84609
-4.0672
-4.27084
-4.09723
-3.92821
-3.99716
-3.92066
-3.32797
-2.52526
0.935593
5.74842
-4.00525
-3.8373
-3.90311
-3.85803
-3.8941
-4.04278
-4.05737
-3.92555
-3.98173
-4.20183
-3.9154
-3.97982
-3.81806
-4.07766
-3.82276
-3.24722
-2.92434
-1.3993
2.60818
-4.02183
-3.98876
-4.03551
-3.97754
-4.02319
-4.09368
-4.08031
-4.07241
-4.08695
-4.08207
-4.34479
-4.08539
-4.0293
-4.10454
-3.7833
-3.17119
-2.97472
-2.46789
-0.981324
-4.11291
-4.18526
-4.02476
-4.09458
-4.13465
-4.17816
-4.15518
-4.23025
-4.21601
-4.2832
-4.19788
-4.21632
-4.07695
-4.34085
-4.40906
-5.70862
-3.12394
-3.58708
-4.96054
-4.24256
-4.08438
-4.1922
-4.14146
-4.3111
-4.35604
-4.15967
-4.2767
-4.18607
-4.47143
-4.26766
-4.3108
-4.19883
-4.27413
-4.23846
-4.42751
-4.21894
-3.44442
-7.36128
-4.28195
-4.38358
-4.23153
-4.29907
-4.34909
-4.371
-4.34445
-4.44939
-4.38813
-4.3985
-4.31685
-4.50418
-4.33248
-4.60019
-4.54684
-4.90694
-5.20438
-4.65247
-6.22894
-4.33159
-4.41461
-4.37393
-4.38768
-4.43221
-4.44147
-4.40381
-4.60149
-4.55802
-4.43051
-4.61737
-4.52136
-4.54351
-4.44687
-4.4824
-4.21791
-3.22244
-2.72909
-3.37494
-4.43229
-4.47436
-4.5884
-4.44226
-4.53335
-4.49279
-4.6898
-4.71622
-4.4899
-4.54117
-4.65102
-4.59805
-4.67768
-4.61988
-5.17592
-5.76888
-7.7432
-4.0765
-3.88415
-4.60286
-4.58184
-4.67237
-4.60431
-4.65068
-4.67564
-4.73186
-4.67381
-4.73955
-4.64922
-4.87251
-4.73133
-4.68405
-4.82567
-4.79547
-5.07604
-5.03197
-6.31107
-2.36287
-4.73562
-4.63817
-4.71072
-4.77452
-4.84993
-4.79715
-4.86848
-4.68772
-4.92518
-4.93464
-4.78499
-4.74911
-4.7816
-5.12319
-5.01574
-4.94477
-3.88614
-4.60167
-4.1449
-4.84286
-4.77717
-4.83183
-4.77356
-4.91433
-5.0042
-5.12747
-4.80669
-4.9785
-4.94496
-4.88177
-4.84797
-5.00282
-5.26763
-5.2413
-5.35179
-4.72874
-4.46573
-3.23335
-4.9181
-4.90271
-4.88646
-5.1085
-4.97233
-5.16836
-5.27078
-4.83264
-5.03162
-5.06642
-5.09687
-5.16792
-5.10933
-5.19852
-5.43874
-5.0412
-6.27535
-9.12962
-4.31308
-4.98074
-5.13708
-4.99975
-5.03599
-5.15584
-5.2658
-5.41397
-5.04758
-5.16907
-5.35774
-5.33283
-5.22221
-5.12397
-5.34767
-5.54272
-4.8935
-4.5406
-5.75653
-2.54512
-5.24841
-5.31867
-5.18674
-5.18564
-5.45292
-5.42656
-5.43341
-5.284
-5.21053
-5.81074
-5.81534
-5.24437
-5.29584
-5.63843
-5.67767
-5.16976
-5.86235
-2.38772
-11.6313
-5.3178
-5.25634
-5.37855
-5.33858
-5.44877
-5.64514
-5.5016
-5.55172
-5.55261
-6.00331
-5.8673
-5.31319
-5.44132
-5.56332
-5.76556
-5.50156
-6.53836
-6.32711
-3.49543
-5.35896
-5.42017
-5.53006
-5.44425
-5.53853
-5.79085
-5.76554
-5.68276
-6.04549
-6.15499
-6.16778
-5.623
-5.85331
-5.80252
-5.89214
-5.63375
-6.17227
-6.09609
-6.74765
-5.55636
-5.65927
-5.86311
-6.02341
-5.93091
-6.04613
-5.91199
-6.16087
-6.05037
-6.17194
-5.94215
-5.68149
-5.65133
-5.85084
-6.04331
-5.9416
-5.8677
-6.55715
-7.04522
-5.70536
-5.75243
-6.03106
-6.13673
-6.32834
-6.25397
-6.33791
-6.34465
-6.23741
-6.19899
-6.02345
-6.02129
-5.79947
-5.78488
-5.91007
-5.97505
-5.99143
-7.57328
-14.055
-5.82972
-6.11087
-5.94692
-6.07547
-6.20634
-6.38185
-6.40182
-6.45495
-6.35808
-6.28917
-6.13954
-6.07709
-5.85677
-5.96207
-6.03055
-6.15342
-6.06722
-9.55862
-21.8832
)
;

boundaryField
{
    leftWall
    {
        type            calculated;
        value           nonuniform List<scalar> 
50
(
498.107
438.779
379.077
319.172
259.562
201.332
146.014
98.0895
48.6054
16.9642
8.30357
5.75674
4.77271
4.29596
3.98145
3.74286
3.54096
3.35489
3.16341
2.94715
2.64413
2.10686
1.53083
0.980539
0.573385
0.118013
-0.391097
-0.800266
-1.14682
-1.53593
-1.6953
-1.8811
-2.48945
-2.69672
-2.95031
-3.1718
-3.40589
-3.60068
-3.79935
-3.98436
-4.16739
-4.34278
-4.51675
-4.68522
-4.85341
-5.01729
-5.18554
-5.33749
-5.52987
-5.62738
)
;
    }
    rightWall
    {
        type            calculated;
        value           nonuniform List<scalar> 
50
(
1280.06
1202
1078.43
912.613
698.242
585.18
507.881
435.325
422.196
456.22
127.098
182.51
454.825
408.108
177.899
290.058
255.427
229.347
221.387
181.251
154.89
118.211
86.9628
65.0378
43.9224
36.7205
35.0422
27.5624
23.9265
13.2918
6.56154
5.74842
2.60818
-0.981324
-4.96054
-7.36128
-6.22894
-3.37494
-3.88415
-2.36287
-4.1449
-3.23335
-4.31308
-2.54512
-11.6313
-3.49543
-6.74765
-7.04522
-14.055
-21.8832
)
;
    }
    lowerWall
    {
        type            calculated;
        value           nonuniform List<scalar> 
62
(
527.537
530.31
532.645
538.681
548.308
561.047
581.174
608.852
637.432
670.463
709.3
728.152
755.964
778.775
803.528
825.321
847.163
868.059
891.632
910.665
929.477
931.317
953.859
924.43
866.282
810.982
754.802
701.005
647.935
596.867
546.619
559.044
557.631
549.6
525.308
713.857
681.046
605.915
567.386
533.257
510.541
506.933
513.231
718.371
613.465
489.239
493.373
494.737
610.568
708.866
698.579
564.449
465.982
431.32
412.547
414.191
467.098
282.103
347.834
591.832
868.18
1294.19
)
;
    }
    atmosphere
    {
        type            calculated;
        value           nonuniform List<scalar> 
46
(
-5.72904
-5.72904
-5.72904
-5.72904
-5.72904
-5.72904
-5.72904
-5.72904
-5.72904
-5.72904
-5.72904
-5.72904
-5.72904
-5.72904
-5.72904
-5.72904
-5.72914
-5.72935
-5.73745
-5.74008
-5.75167
-5.7865
-5.77142
-5.79635
-5.82456
-5.83259
-5.83943
-5.89394
-6.06377
-6.12903
-6.19046
-6.36767
-6.47657
-6.53738
-6.51834
-6.37287
-6.2893
-6.20345
-6.14829
-6.04982
-6.02907
-6.10074
-6.31181
-5.87094
-7.04905
-57.8878
)
;
    }
    defaultFaces
    {
        type            empty;
    }
}


// ************************************************************************* //
