/*--------------------------------*- C++ -*----------------------------------*\
| =========                 |                                                 |
| \\      /  F ield         | foam-extend: Open Source CFD                    |
|  \\    /   O peration     | Version:     4.1                                |
|   \\  /    A nd           | Web:         http://www.foam-extend.org         |
|    \\/     M anipulation  |                                                 |
\*---------------------------------------------------------------------------*/
FoamFile
{
    version     2.0;
    format      ascii;
    class       volScalarField;
    location    "0.55";
    object      pd;
}
// * * * * * * * * * * * * * * * * * * * * * * * * * * * * * * * * * * * * * //

dimensions      [1 -1 -2 0 0 0 0];

internalField   nonuniform List<scalar> 
2268
(
527.537
530.31
532.645
538.681
548.308
561.047
581.174
608.852
637.432
670.463
709.3
728.152
755.964
778.775
803.528
825.321
847.163
868.059
891.632
910.665
929.477
931.317
953.859
527.068
529.855
532.133
538.17
547.602
560.394
580.447
607.4
638.447
672.601
707.628
726.409
756.165
778.225
803.423
825.181
846.021
866.262
891.347
911.25
932.313
932.315
954.57
526.097
528.94
530.883
537.094
546.208
558.806
579.416
605.166
633.924
669.554
705.409
726.696
755.648
778.934
804.184
827.157
848.151
869.614
892.344
913.42
931.541
939.564
958.129
523.689
526.495
528.015
534.553
543.284
555.957
576.048
601.969
635.207
669.895
699.643
725.279
756.201
779.649
804.54
826.741
848.335
869.636
893.442
914.558
934.181
941.303
960.808
518.119
520.945
521.622
529.186
536.767
549.751
571.616
594.594
628.131
663.021
694.374
724.212
754.334
780.187
806.555
828.685
851.846
870.761
891.78
912.098
935.879
947.529
965.853
504.683
507.44
507.263
516.362
523.377
537.658
557.501
585.642
619.937
651.029
688.306
721.095
753.48
779.38
806.648
829.276
851.623
868.547
897.612
930.227
935.971
954.771
971.658
472.807
476.006
474.773
486.942
493.454
509.026
535.318
559.484
594.472
635.36
676.755
715.998
749.437
777.789
806.614
832.203
854.679
872.607
895.628
915.788
947.975
965.486
979.449
408.971
412.961
411.274
426.77
432.341
451.142
478.945
514.011
553.731
605.594
659.105
703.968
740.288
775.038
804.668
831.951
847.82
875.768
901.624
938.545
949.42
969.096
988.06
718.371
613.465
489.239
493.373
494.737
610.568
708.866
698.579
564.449
465.982
431.32
412.547
414.191
467.098
282.103
347.834
591.832
868.18
1294.19
694.171
519.013
441.196
466.289
471.833
622.153
724.289
699.461
539.843
445.895
420.31
411.034
361.16
427.816
307.737
386.763
449.589
794.594
1246.42
626.663
462.597
443.137
445.707
498.749
618.501
722.395
702.23
533.558
439.134
404.109
380.055
364.944
366.817
342.194
450.054
456.035
760.794
1154.48
594.7
434.623
420.309
439.07
487.944
602.992
714.931
689.472
533.889
430.375
387.804
357.201
349.602
360.312
330.673
439.805
402.192
663.058
1019.81
566.57
424.55
410.602
435.823
475.814
593.445
711.972
693.148
544.377
436.843
381.103
342.339
334.895
340.022
345.996
390.17
373.111
576.497
836.308
549.933
405.331
411.649
434.863
494.952
602.094
718.912
680.053
548.96
444.696
377.052
335.402
323.627
329.606
339.044
375.873
352.609
515.128
754.355
551.357
413.836
419.631
441.643
516.073
676.388
791.136
681.117
580.095
453.216
357.048
333.034
317.357
316.06
332.206
359.347
340.513
482.411
708.271
559.199
425.35
432.952
463.38
575.897
812.488
802.258
688.609
589.459
469.009
325.641
324.059
316.481
299.568
323.505
350.315
332.347
464.947
666.702
256.113
260.475
258.875
275.622
280.716
293.522
335.476
375.705
443.801
524.615
606.346
671.045
713.957
760.637
797.995
828.69
860.672
878.262
905.987
909.806
954.288
990.999
1010.41
86.5473
87.8246
87.8144
94.8833
98.9718
102.76
130.557
164.819
228.35
319.607
436.534
543
635.347
700.097
760.116
800.218
837.05
866.444
894.833
927.846
949.688
993.642
1048.27
31.2388
31.6109
32.4731
34.9259
38.231
43.2396
57.9224
83.6021
113.045
169.643
227.208
332.904
413.107
521.746
621.826
697.487
763.524
801.165
861.776
879.058
921.019
966.078
1034.09
14.6447
14.9556
15.5475
17.2052
19.0519
24.3931
33.8791
52.527
63.9717
87.642
120.842
159.905
215.079
277.052
371.864
445.57
523.325
590.725
661.546
678.311
698.367
810.917
930.276
9.02272
9.2227
9.48082
10.5455
12.2449
17.379
23.8244
32.9385
39.0079
49.3965
65.9172
89.7834
116.767
138.625
164.861
197.817
218.633
246.687
247.315
229.503
243.217
355.822
508.654
6.82854
6.94869
7.14921
7.68445
8.81979
12.0754
16.622
20.4468
22.6823
24.2802
35.6243
45.0218
49.5715
61.7204
60.0602
65.7213
65.6141
72.4106
59.2378
58.2635
69.4243
100.205
150.319
5.80734
5.84979
5.93122
6.18069
7.02442
8.5716
10.8676
12.7017
13.8446
15.8439
19.5563
21.1933
22.8954
23.3302
20.6599
18.908
18.5168
19.5342
20.7036
25.4091
33.2744
43.2744
60.3992
5.29562
5.26644
5.32965
5.4019
5.629
6.29249
7.30036
7.91952
8.62104
9.96667
11.245
10.9232
10.1914
10.4646
8.83242
8.84227
8.33894
10.3519
14.3516
22.835
27.7711
34.8164
46.5098
5.07598
5.07746
4.94769
4.96006
4.97457
4.80052
5.11145
5.43629
5.79577
6.70776
7.59466
7.10744
6.66351
6.50169
6.8289
7.76179
9.53881
12.4372
17.5058
23.8856
33.0034
42.2655
44.9783
5.01511
5.02623
4.98566
4.94058
4.72515
4.42511
4.3645
4.07181
4.32052
4.83193
5.30014
5.59519
5.91601
6.34964
7.02207
8.30015
10.2967
14.7644
21.7346
32.2369
46.6783
62.3297
78.6071
4.94882
5.01787
4.98707
4.94691
4.51685
4.03686
4.34602
4.15556
4.24759
4.71364
5.36896
6.0151
6.95453
8.11275
10.2251
13.5849
18.1027
25.4257
36.0529
48.0317
60.4809
74.7393
95.5945
4.85776
5.00538
5.14103
5.26446
6.12252
7.41792
10.3416
7.97356
7.94907
9.82298
12.5623
16.5209
21.0365
25.1301
29.4216
33.2047
37.3056
41.2753
45.1004
50.3257
58.0152
67.4598
81.5153
4.67994
4.76388
4.99328
5.22969
6.01277
8.59323
11.1065
10.3324
9.8235
10.7301
10.1401
8.1916
6.58654
5.69741
5.98179
7.31711
7.57674
7.05605
7.14549
7.65575
8.19482
9.63015
16.0859
4.26786
4.33942
4.47624
4.52605
4.30132
4.41043
5.74171
7.25094
10.1085
8.06011
5.47538
1.84062
-0.161698
-0.230292
-0.146657
0.121139
-0.085308
-0.223522
-0.2364
-0.161686
0.31532
3.65541
14.1998
3.81702
3.80709
3.80879
3.70668
2.857
1.62323
1.5839
1.82785
2.14204
0.583037
1.34794
-0.683414
-1.39258
-1.06794
-0.643365
-0.366016
-0.331058
-0.276277
-0.193137
-0.0868973
-0.148548
2.61052
10.8502
3.39192
3.41363
3.34446
3.3075
2.65884
1.66615
0.61287
0.139272
-0.409166
-1.40213
-1.06058
-1.63015
-1.42725
-1.06539
-0.610816
-0.425057
-0.370456
-0.2851
-0.270054
-0.218074
-0.21773
-0.0946228
1.71272
3.10996
3.03888
2.84239
2.48964
2.09231
1.608
0.849302
0.399222
-0.392892
-0.843139
-1.47217
-1.21661
-1.01518
-0.828949
-0.544036
-0.371914
-0.351084
-0.311191
-0.277124
-0.304364
-0.354674
-0.468316
-0.672408
2.77979
2.64637
2.67636
2.26602
1.89972
1.42045
1.05119
0.496594
0.196054
-0.629094
-0.874163
-1.00356
-0.502017
-0.440896
-0.39431
-0.289017
-0.290396
-0.285951
-0.284424
-0.336677
-0.37283
-0.505723
-0.561797
2.39587
2.24724
2.035
1.79346
1.71854
1.46412
1.19022
0.571423
0.172975
-0.248676
-0.696686
-0.378017
-0.30622
-0.259683
-0.254587
-0.249492
-0.275195
-0.283809
-0.260568
-0.333704
-0.36633
-0.403162
-0.535048
2.11201
2.0445
1.97073
1.85964
1.73671
1.38315
0.894769
0.534694
0.195725
0.0562559
0.0404036
-0.276752
-0.133054
-0.256743
-0.288176
-0.152472
-0.21036
-0.243344
-0.267265
-0.319106
-0.339009
-0.352563
-0.502013
1.89063
1.85063
1.56941
1.74534
1.45836
1.13853
0.963041
0.749838
0.647639
0.261871
0.0592611
0.19465
-0.0935373
-0.0644358
-0.0586095
-0.230961
-0.130576
-0.203022
-0.189931
-0.367424
-0.326018
-0.300712
-0.467147
1.62665
1.81807
1.63896
1.37547
1.18501
1.15793
0.968501
0.806249
0.376512
0.265486
0.220402
-0.0807628
-0.0370608
0.0481147
-0.111863
-0.106559
-0.154751
-0.186818
-0.188269
-0.244047
-0.244972
-0.291651
-0.33814
1.59245
1.43308
1.33883
1.16388
1.09717
0.920791
0.730483
0.577489
0.469581
0.393367
0.135299
0.229692
0.0355178
0.167439
-0.0323532
-0.0507283
-0.144153
-0.140477
-0.234895
-0.180191
-0.242394
-0.285304
-0.28538
1.53184
1.35775
1.36388
1.22718
1.1128
0.94203
0.875397
0.670387
0.442193
0.446423
0.364136
0.116228
0.174274
0.090097
0.0118437
0.043146
-0.206261
-0.0714203
-0.126085
-0.183623
-0.245803
-0.25596
-0.255003
1.04869
1.04376
1.05723
1.064
0.912729
0.818542
0.69383
0.683043
0.478675
0.519028
0.303198
0.296961
0.268414
0.00506024
0.100206
0.121033
-0.161286
-0.187652
-0.0640998
-0.121011
-0.202282
-0.269462
-0.257168
0.966605
0.955421
0.926291
0.863586
0.857699
0.723399
0.671738
0.56027
0.552623
0.3664
0.296307
0.251314
0.190189
0.152194
0.161574
0.0920153
-0.0900461
-0.0258097
-0.0297551
-0.115972
-0.205064
-0.210885
-0.252876
0.838215
0.822987
0.789976
0.736241
0.644951
0.623048
0.575032
0.509432
0.425785
0.371134
0.339332
0.287799
0.242922
0.165261
0.174158
0.00467759
-0.0363375
-0.138539
-0.0128331
-0.064098
-0.191199
-0.206523
-0.228116
0.74192
0.743321
0.705479
0.678306
0.591879
0.594192
0.536633
0.485194
0.438847
0.383392
0.342412
0.282762
0.289968
0.155013
0.201429
-0.0272623
0.035749
0.0234856
0.00571401
-0.050736
-0.0498201
-0.242212
-0.250109
0.633025
0.620295
0.604548
0.582907
0.570665
0.525038
0.485995
0.439657
0.398953
0.348857
0.310491
0.266357
0.217057
0.169707
0.134415
0.0642938
0.0918147
-0.0969955
0.0244334
-0.0559194
-0.0204838
-0.177767
-0.243908
0.563433
0.557051
0.541908
0.523656
0.496427
0.469426
0.438852
0.40304
0.370519
0.330276
0.302328
0.26024
0.229277
0.196915
0.138375
0.121977
-0.0216088
0.0655259
0.00350638
-0.0447934
-0.0487386
-0.073218
-0.217583
0.489954
0.485408
0.473563
0.459153
0.441021
0.417148
0.393259
0.362934
0.337052
0.303024
0.279367
0.25292
0.21445
0.222289
0.0983092
0.0650637
-0.00407038
0.0809086
0.0352812
-0.0574031
-0.0560262
-0.0987462
-0.23782
0.430142
0.426126
0.416952
0.40481
0.389997
0.370059
0.35075
0.325087
0.304474
0.27409
0.255712
0.223652
0.199582
0.19182
0.124982
0.053682
0.0950056
0.0848101
-0.0281719
-0.0750996
-0.0180153
-0.00811087
-0.159292
0.372301
0.369148
0.36196
0.352252
0.34059
0.324719
0.309703
0.288878
0.272679
0.247463
0.233708
0.19406
0.180719
0.130448
0.0868156
0.0737325
0.0924963
-0.0291975
0.019147
0.0301859
-0.13223
-0.00963707
-0.11168
0.322102
0.319465
0.313717
0.3056
0.296067
0.282362
0.270142
0.250429
0.237605
0.210745
0.204618
0.150136
0.176495
0.124435
0.05922
0.122286
0.0247646
0.0758117
-0.00166835
0.0383821
-0.149022
-0.0414502
-0.0569364
0.273334
0.271334
0.267071
0.260783
0.25384
0.243516
0.234648
0.220898
0.211561
0.19296
0.188507
0.183184
0.169763
0.103033
0.0814524
0.099379
0.0567371
0.0771171
-0.0537675
0.0696192
-0.0758914
-0.0514504
-0.0543609
0.230052
0.228315
0.225005
0.219651
0.213979
0.20455
0.197495
0.181552
0.176303
0.143009
0.161408
0.151939
0.130335
0.0605799
0.0881644
0.0973683
0.0756117
0.0143543
-0.00483081
0.00236445
0.0174022
-0.093974
-0.0776242
0.187056
0.185905
0.183811
0.180047
0.176373
0.170857
0.165538
0.159725
0.15225
0.153322
0.135706
0.157861
0.0823835
0.0940972
0.085744
0.0913126
0.0329667
0.0443939
-0.0353322
-0.0297463
-0.0733247
-0.0211092
0.0224457
0.148374
0.147455
0.145858
0.143115
0.140077
0.13587
0.130714
0.12659
0.117816
0.118098
0.097113
0.0863178
0.0507937
0.101331
0.0389572
0.0811201
0.0302269
0.0388491
0.00858022
0.0184654
-0.0337705
-0.0669618
0.0290679
0.105321
0.106311
0.106218
0.102664
0.103673
0.0997577
0.0981615
0.0989441
0.088985
0.0847519
0.0787704
0.0585566
0.047205
0.079901
0.0222878
0.0532219
0.0328464
0.0346335
0.0152342
0.0253721
-0.0319701
-0.0618122
1.96075e-05
0.0785619
0.0768483
0.0759855
0.0764349
0.0731657
0.0733414
0.0683682
0.0674171
0.0633737
0.0648172
0.0593185
0.0585198
0.0404708
0.0603212
0.0299033
0.0362943
0.0269481
0.0352036
-0.00654151
0.00178607
0.0100299
-0.06456
-0.044211
0.0113812
0.0269076
0.0319891
0.0109239
0.0392585
0.0122302
0.0368391
0.0161898
0.0354602
0.033188
0.0337156
0.0279419
0.0294477
0.0194849
0.0154727
0.0232274
0.0193184
0.016812
0.004762
0.00550473
-0.00646092
-0.0281101
-0.0214092
0.0390642
0.0210097
0.0151573
0.0393996
0.00801231
0.0387451
0.00638614
0.038346
0.0103295
0.0279659
0.0323918
0.030398
0.0106784
0.0257565
0.0218567
0.0120222
0.00937616
0.0180525
-0.000332124
-0.00731856
-0.0178843
-0.0724137
-0.0505455
1029.91
993.454
885.428
712.339
1104.79
1107.5
1028.13
855.485
1083.81
1118.22
1118.84
1051.38
1001.84
1041.39
1074.67
1097.74
631.314
708.422
792.089
865.798
197.334
235.901
291.664
362.248
78.7881
92.551
110.308
131.472
59.6185
70.6657
81.9306
94.01
70.9969
100.087
118.759
134.18
100.993
119.103
133.043
153.284
113.135
121.985
134.485
152.987
99.877
107.214
114.556
125.038
27.6849
36.079
44.1101
48.6654
24.6755
27.8417
29.6509
30.3215
14.8286
15.2138
14.8136
13.7434
3.30359
3.93976
4.25169
4.59429
-0.444796
-0.348696
-0.198894
0.089603
-0.636367
-0.643896
-0.632068
-0.64096
-0.568824
-0.594134
-0.615178
-0.622437
-0.409605
-0.409195
-0.42816
-0.41415
-0.434237
-0.499463
-0.528561
-0.543156
-0.382885
-0.376766
-0.356227
-0.497802
-0.439281
-0.454386
-0.475711
-0.489899
-0.387774
-0.369377
-0.36181
-0.375335
-0.335016
-0.348903
-0.376971
-0.394262
-0.305535
-0.325355
-0.333207
-0.343727
-0.261227
-0.285829
-0.318769
-0.317346
-0.251807
-0.273868
-0.285725
-0.314883
-0.240238
-0.256981
-0.251818
-0.24129
-0.22654
-0.249586
-0.304068
-0.394596
-0.203434
-0.202282
-0.199533
-0.202281
-0.214872
-0.233149
-0.294582
-0.178512
-0.1003
-0.104109
-0.11306
-0.205172
-0.0925295
-0.0769549
-0.188978
-0.169838
-0.107635
-0.12139
-0.194579
-0.263891
-0.131408
-0.107323
-0.100084
-0.157344
-0.0998673
-0.0963563
-0.0258718
-0.0248091
-0.0954892
-0.0992612
-0.11956
-0.0795144
-0.080845
-0.0794658
-0.136219
-0.0882965
-0.0371449
-0.106428
-0.0899772
-0.142363
-0.0279832
-0.0721927
-0.100193
-0.123426
-0.092772
-0.115092
-0.092265
-0.109186
557.067
458.752
461.379
527.86
673.126
868.829
870.553
718.694
556.881
363.637
281.371
321.062
320.848
320.41
322.824
339.544
331.795
462.942
701.148
596.127
548.474
689.945
919.368
1004.78
1003.79
961.43
679.307
412.599
290.39
236.365
345.423
330.864
333.93
323.041
337.321
338.069
472.669
803.138
844.73
847.859
964.163
992.059
1084.81
1051.83
1016.05
738.549
408.989
290.347
275.473
297.484
333.196
343.861
321.105
328.899
345.562
392.925
552.427
1103.11
1121.43
1154.24
1027.16
1068.48
1082.76
1025.45
787.421
622.255
275.631
211.292
233.746
286.854
294.628
311.206
344.576
433.745
602.93
736.271
986.217
870.36
962.126
854.267
869.252
896.24
900.025
1025.4
901.149
338.876
195.329
216.692
270.293
259.776
295.551
331.513
455.202
810.645
1095.52
516.892
389.862
471.503
392.609
445.3
561.345
687.67
954.576
970.96
377.64
205.705
224.183
270.935
273.216
282.928
293.341
455.078
720.227
1119.67
171.798
172.927
199.86
233.797
308.43
398.863
523.612
771.253
1083.78
675.142
252.151
222.618
243.914
260.713
269.46
328.604
627.377
990.153
995.556
109.219
109.005
166.037
239.562
285.944
376.689
473.272
625.963
901.52
872.238
323.614
231.723
239.019
262.763
281.809
407.863
711.402
1206.02
1153.46
165.726
203.518
251.086
261.305
348.309
433.376
503.909
567.305
747.643
926.928
517.067
288.191
265.251
340.184
397.353
634.741
967.408
1136.53
1165.44
193.968
179.414
261.415
409.564
435.058
541.74
559.507
582.341
681.656
837.689
741.396
485.104
396.017
606.347
676.443
817.318
1099.04
1266.85
1188.65
184.069
187.25
185.675
285.239
315.655
397.743
445.644
582.762
714.831
742.013
778.436
675.444
668.176
805.345
809.667
923.354
1135.81
1371.12
1227.83
137.946
148.165
150.35
195.667
232.937
302.923
379.587
505.611
662.525
783.76
883.8
849.558
921.396
989.824
984.266
1162.56
1434.9
1408.9
1251.22
56.6745
54.3011
58.6549
74.8222
77.1779
98.3722
121.325
244.183
363.527
522.593
557.137
910.583
1000.78
1118.97
1168.69
1168.2
1471.3
1465.55
1286.47
29.5256
26.1102
28.781
38.1288
40.2412
51.5205
59.8112
104.958
163.127
212.812
252.715
448.771
547.656
715.293
764.455
761.215
1166.95
1323.65
1286.32
13.5127
14.0329
16.3345
19.4777
25.0987
32.3812
37.3247
61.0796
87.1526
111.611
148.137
213.242
322.754
406.338
442.036
475.862
834.102
1054.64
1266.35
4.72791
5.22101
6.07645
9.25061
12.1746
13.6442
16.8702
23.2695
34.9115
47.7483
74.8448
120.229
165.555
174.093
254.374
308.402
595.121
869.055
1232.73
0.725897
1.39989
1.82694
4.37475
6.82639
5.25193
6.7995
9.19902
14.7927
23.8525
39.2745
68.4841
76.6961
103.354
171.369
275.813
552.491
836.79
1192.25
-0.503505
-0.156676
-0.100146
0.807654
3.26791
2.18505
2.1756
2.92992
5.76954
11.5015
22.4832
32.5633
46.569
64.7926
111.964
223.242
466.044
837.341
1162.06
-0.647218
-0.481809
-0.564222
-0.191103
1.05751
0.571011
0.564314
1.34593
3.46896
6.20042
10.2677
20.2775
30.6642
44.8181
82.7313
185.109
418.844
798.322
1100.21
-0.65543
-0.630958
-0.435068
-0.415243
-0.280403
-0.157126
-0.122266
-0.0109103
0.558875
1.99063
5.06853
10.6276
18.1462
28.9697
52.772
130.899
342.775
686.707
1006.22
-0.573569
-0.552904
-0.383024
-0.453174
-0.337348
-0.497512
-0.441084
-0.395411
-0.365215
0.165865
2.18607
5.14123
9.54344
14.0208
29.2743
84.2591
250.301
567.618
915.626
-0.518753
-0.476732
-0.347966
-0.372865
-0.553837
-0.536053
-0.487696
-0.566559
-0.512013
-0.435383
0.228741
1.78819
4.50291
8.25637
17.78
58.3839
193.103
475.523
838.758
-0.563621
-0.380643
-0.388531
-0.417969
-0.376688
-0.536655
-0.504797
-0.49819
-0.592266
-0.499711
-0.508234
-0.228786
1.20862
3.97269
11.2727
41.2246
150.828
410.44
778.298
-0.399312
-0.42888
-0.330581
-0.401944
-0.425617
-0.494836
-0.467894
-0.492332
-0.432627
-0.646011
-0.785917
-0.470893
0.441099
2.2532
7.38701
31.2738
124.996
365.853
731.592
-0.467104
-0.299155
-0.364978
-0.319898
-0.355959
-0.504645
-0.518985
-0.385673
-0.439194
-0.656729
-0.353944
-0.284994
0.548577
1.61524
6.14755
27.5475
111.485
333.5
688.174
-0.358483
-0.32543
-0.37218
-0.314208
-0.359864
-0.430354
-0.416979
-0.408932
-0.420092
-0.409917
-0.661355
-0.339084
0.0112782
0.983819
5.64832
25.6137
103.326
310.401
649.429
-0.32437
-0.396733
-0.236234
-0.306057
-0.346127
-0.389633
-0.366651
-0.441725
-0.426453
-0.486595
-0.389538
-0.362989
0.0204672
0.87078
4.90231
21.4971
98.0824
291.374
613.948
-0.328813
-0.170642
-0.278481
-0.227736
-0.39738
-0.44232
-0.245953
-0.362978
-0.272354
-0.551432
-0.332042
-0.31602
0.0849659
1.38483
6.90057
26.7334
91.8615
271.854
583.605
-0.242992
-0.344626
-0.192602
-0.260154
-0.310172
-0.332085
-0.305539
-0.410479
-0.349213
-0.3558
-0.242979
-0.316641
0.195437
1.19286
6.80619
27.1901
85.3597
253.145
561.095
-0.167421
-0.250452
-0.209807
-0.223575
-0.268102
-0.277363
-0.239704
-0.437378
-0.39391
-0.251865
-0.381708
-0.0998742
0.328283
2.20732
9.62071
27.8604
76.2165
234.273
542.914
-0.142914
-0.185041
-0.299102
-0.152959
-0.244051
-0.203489
-0.400495
-0.426917
-0.200592
-0.246385
-0.315814
-0.144015
0.121939
1.52379
6.1204
18.923
61.1055
210.017
520.126
-0.18832
-0.167338
-0.257877
-0.189812
-0.23618
-0.26114
-0.317367
-0.259316
-0.325048
-0.231932
-0.41604
-0.189265
0.0957599
1.0359
5.75766
18.1961
58.8616
180.669
483.376
-0.195929
-0.0984823
-0.171026
-0.234832
-0.310241
-0.257456
-0.328791
-0.148027
-0.385492
-0.394951
-0.2132
-0.101193
0.0906699
0.802503
4.79305
14.1883
49.915
165.983
449.894
-0.177975
-0.112288
-0.166941
-0.108673
-0.249444
-0.339314
-0.462585
-0.141801
-0.313615
-0.28007
-0.196745
-0.0852351
-0.0205976
0.542311
3.30361
10.2868
40.512
158.48
433.155
-0.12802
-0.112626
-0.0963803
-0.318424
-0.182246
-0.378278
-0.480703
-0.0425638
-0.241542
-0.27634
-0.30551
-0.328392
-0.0874211
0.545322
2.75291
10.4973
38.6463
151.599
435.485
-0.0654625
-0.221801
-0.0844747
-0.120716
-0.240562
-0.350522
-0.498699
-0.132308
-0.253796
-0.442462
-0.417552
-0.289974
-0.0943387
0.0960299
1.93655
12.021
57.829
197.652
445.804
-0.20794
-0.2782
-0.146268
-0.145171
-0.412386
-0.376801
-0.372567
-0.229428
-0.164778
-0.770271
-0.77487
-0.194849
-0.16796
-0.126531
1.40912
10.6259
59.7003
216.844
443.522
-0.152135
-0.0906766
-0.212888
-0.155931
-0.231296
-0.389869
-0.222096
-0.286818
-0.323672
-0.811803
-0.691718
-0.13053
-0.196829
0.000381316
0.760051
5.62613
32.026
150.84
414.336
-0.0681028
-0.129313
-0.227457
-0.0721915
-0.0913383
-0.226276
-0.160619
-0.12389
-0.586058
-0.769058
-0.821276
-0.294197
-0.502354
-0.226991
0.583969
4.29461
17.5246
88.1119
318.583
-0.140307
-0.243215
-0.408103
-0.447853
-0.235454
-0.201338
0.067116
-0.254082
-0.273584
-0.531387
-0.377867
-0.188821
-0.151543
-0.249031
-0.0929896
1.33738
7.15278
52.2298
259.59
-0.164108
-0.21118
-0.411093
-0.382394
-0.416221
-0.185314
-0.109366
-0.158736
-0.219604
-0.296692
-0.210654
-0.299847
-0.113376
-0.0496907
0.0425504
0.492233
1.01233
13.7431
152.3
-0.163282
-0.444429
-0.174142
-0.158781
-0.114985
-0.12186
0.0190021
-0.0344944
-0.0548443
-0.0686384
-0.0038729
0.00401865
0.126951
0.0011253
0.00353441
0.0894188
-0.260428
-2.59109
35.3721
)
;

boundaryField
{
    leftWall
    {
        type            zeroGradient;
    }
    rightWall
    {
        type            zeroGradient;
    }
    lowerWall
    {
        type            zeroGradient;
    }
    atmosphere
    {
        type            totalPressure;
        rho             rho;
        psi             none;
        gamma           1;
        p0              uniform 0;
        value           nonuniform List<scalar> 
46
(
0
0
0
0
0
0
0
0
0
0
0
0
0
0
0
0
-0.000101336
-0.000278089
-0.00828134
-0.0107867
-0.0226158
-0.0574575
-0.0423819
-0.0673099
-0.095524
-0.103552
-0.110388
-0.164903
-0.334734
-0.292476
-0.208413
-0.209019
-0.147427
-0.0456265
-0.0269503
0
-4.21794e-05
0
0
0
0
0
0
0
-0.00454639
0
)
;
    }
    defaultFaces
    {
        type            empty;
    }
}


// ************************************************************************* //
