/*--------------------------------*- C++ -*----------------------------------*\
| =========                 |                                                 |
| \\      /  F ield         | foam-extend: Open Source CFD                    |
|  \\    /   O peration     | Version:     4.1                                |
|   \\  /    A nd           | Web:         http://www.foam-extend.org         |
|    \\/     M anipulation  |                                                 |
\*---------------------------------------------------------------------------*/
FoamFile
{
    version     2.0;
    format      ascii;
    class       surfaceScalarField;
    location    "0.55";
    object      phi;
}
// * * * * * * * * * * * * * * * * * * * * * * * * * * * * * * * * * * * * * //

dimensions      [0 3 -1 0 0 0 0];

internalField   nonuniform List<scalar> 
4432
(
2.97106e-06
-2.97106e-06
4.78193e-06
-1.81088e-06
6.96944e-06
-2.18751e-06
8.98142e-06
-2.01197e-06
1.08547e-05
-1.87323e-06
1.16699e-05
-8.15261e-07
1.18617e-05
-1.9183e-07
1.13327e-05
5.29018e-07
9.58418e-06
1.74854e-06
6.41913e-06
3.16505e-06
1.028e-05
-3.86091e-06
1.07878e-05
-5.07808e-07
1.14474e-05
-6.59511e-07
1.14484e-05
-1.00238e-09
1.07569e-05
6.91477e-07
1.00581e-05
6.98788e-07
9.90012e-06
1.57969e-07
8.22648e-06
1.67364e-06
6.39358e-06
1.8329e-06
5.37706e-06
1.01652e-06
3.87866e-06
1.4984e-06
1.47981e-06
2.39885e-06
1.47981e-06
2.84778e-06
-5.81884e-06
4.8259e-06
-3.789e-06
7.12966e-06
-4.49127e-06
9.0299e-06
-3.91221e-06
1.08017e-05
-3.64507e-06
1.18781e-05
-1.89159e-06
1.22682e-05
-5.81974e-07
1.17776e-05
1.01959e-06
1.06038e-05
2.9224e-06
1.64618e-05
-2.69295e-06
1.39834e-05
-1.38251e-06
1.36386e-05
-1.62995e-07
1.34037e-05
-4.2464e-07
1.3062e-05
3.40641e-07
1.20195e-05
1.73398e-06
1.13428e-05
1.37547e-06
6.24976e-06
5.25105e-06
6.06659e-06
1.85681e-06
4.72644e-06
3.17305e-06
5.07688e-06
6.66073e-07
2.66289e-06
3.9124e-06
2.10873e-06
2.95301e-06
3.58854e-06
2.47621e-06
-8.29505e-06
4.77993e-06
-6.09272e-06
7.40358e-06
-7.11492e-06
9.08117e-06
-5.58979e-06
1.10044e-05
-5.56827e-06
1.23511e-05
-3.23827e-06
1.26037e-05
-8.34655e-07
1.23628e-05
1.2605e-06
1.02474e-05
5.03781e-06
1.44137e-05
-6.85921e-06
1.24145e-05
6.16674e-07
1.17537e-05
4.9774e-07
1.08064e-05
5.22716e-07
9.94094e-06
1.20609e-06
9.06427e-06
2.61065e-06
8.86469e-06
1.57506e-06
9.86061e-06
4.25512e-06
9.90016e-06
1.81727e-06
8.7094e-06
4.36381e-06
7.05593e-06
2.31955e-06
4.25585e-06
6.71248e-06
1.66813e-06
5.54074e-06
5.25667e-06
2.21769e-06
-1.05127e-05
4.94616e-06
-8.82119e-06
7.72095e-06
-9.8897e-06
9.51214e-06
-7.38098e-06
1.16452e-05
-7.70135e-06
1.24994e-05
-4.09242e-06
1.26669e-05
-1.00215e-06
1.21491e-05
1.77829e-06
1.8696e-05
-1.50911e-06
1.4107e-05
-2.27019e-06
1.11095e-05
3.61418e-06
7.14913e-06
4.45807e-06
4.37459e-06
3.29726e-06
2.94792e-06
2.63276e-06
2.82648e-06
2.7321e-06
3.15321e-06
1.24833e-06
3.62206e-06
3.78627e-06
4.12378e-06
1.31555e-06
4.61703e-06
3.87056e-06
4.16594e-06
2.77063e-06
3.05724e-06
7.82119e-06
1.70889e-06
6.88909e-06
6.96556e-06
2.31533e-06
-1.28281e-05
5.19833e-06
-1.17042e-05
7.94973e-06
-1.26411e-05
9.98294e-06
-9.4142e-06
1.17861e-05
-9.50449e-06
1.20915e-05
-4.39779e-06
1.2664e-05
-1.57467e-06
1.16323e-05
2.80993e-06
1.54715e-05
-5.34825e-06
9.66986e-06
3.53142e-06
5.98066e-06
7.30338e-06
2.08478e-06
8.35395e-06
-3.47089e-07
5.72912e-06
-2.1225e-06
4.40817e-06
-3.09898e-06
3.70858e-06
-3.66286e-06
1.81221e-06
-3.70618e-06
3.82959e-06
-3.9673e-06
1.57667e-06
-2.9811e-06
2.88437e-06
-6.04405e-07
3.93931e-07
-8.40673e-08
7.30085e-06
8.35216e-07
5.9698e-06
7.80077e-06
2.8087e-06
-1.56368e-05
5.64819e-06
-1.45437e-05
8.25075e-06
-1.52437e-05
1.00915e-05
-1.1255e-05
1.16907e-05
-1.11036e-05
1.26682e-05
-5.3753e-06
1.21647e-05
-1.07117e-06
1.71523e-05
-2.1777e-06
1.00999e-05
1.70418e-06
5.76895e-06
7.86236e-06
1.15644e-06
1.19159e-05
-2.11601e-06
1.16264e-05
-3.86788e-06
7.481e-06
-5.15844e-06
5.69872e-06
-6.02972e-06
4.57986e-06
-6.94002e-06
2.72251e-06
-7.21666e-06
4.10623e-06
-4.38954e-06
-1.25045e-06
-4.86056e-06
3.35539e-06
-6.05967e-06
1.59305e-06
-1.51068e-06
2.75186e-06
3.6937e-07
4.08975e-06
8.17014e-06
3.10681e-06
-1.87436e-05
5.82935e-06
-1.72662e-05
8.22089e-06
-1.76352e-05
1.01774e-05
-1.32114e-05
1.20526e-05
-1.29789e-05
1.19873e-05
-5.30995e-06
9.69905e-06
1.21706e-06
1.19733e-05
-4.45196e-06
6.41945e-06
7.25803e-06
2.74934e-06
1.15325e-05
-1.08718e-06
1.57524e-05
-3.47901e-06
1.40182e-05
-5.03119e-06
9.03318e-06
-8.13676e-06
8.80429e-06
-9.36653e-06
5.80963e-06
-9.29967e-06
2.65565e-06
-9.66536e-06
4.47192e-06
-9.75327e-06
-1.16255e-06
-5.22582e-06
-1.17206e-06
-4.49622e-06
8.63451e-07
-3.07824e-06
1.33388e-06
-5.91969e-07
1.60348e-06
7.57817e-06
3.11619e-06
-2.18598e-05
5.87857e-06
-2.00286e-05
8.37804e-06
-2.01347e-05
1.0317e-05
-1.51504e-05
1.2208e-05
-1.48699e-05
1.15055e-05
-4.60752e-06
1.56115e-05
-2.88892e-06
9.64295e-06
1.51661e-06
5.14646e-06
1.17545e-05
3.88761e-07
1.62902e-05
-3.5241e-06
1.96653e-05
-6.46775e-06
1.69619e-05
-7.98035e-06
1.05458e-05
-9.07426e-06
9.89821e-06
-9.83359e-06
6.56896e-06
-9.94703e-06
2.76909e-06
-5.64377e-06
1.6866e-07
-5.66074e-06
-1.14558e-06
-5.97753e-06
-8.55268e-07
-9.38286e-06
4.26878e-06
-7.50165e-06
-5.47334e-07
-2.19725e-06
-3.70092e-06
5.38092e-06
-0.000132814
0.000132814
-0.000248529
0.000115715
-0.000268592
2.00636e-05
-0.0002538
-1.47928e-05
-0.000233673
-2.01266e-05
-0.000200432
-3.32411e-05
-0.000183707
-1.67252e-05
-0.000191145
7.4383e-06
-0.000211393
2.02481e-05
-0.000220904
9.51115e-06
-0.000225214
4.30965e-06
-0.000214972
-1.02421e-05
-0.000202868
-1.21038e-05
-0.000186096
-1.67719e-05
-0.000122182
-6.39139e-05
-0.000108287
-1.38946e-05
-0.000156006
4.7718e-05
-9.42807e-05
-6.17248e-05
-9.42807e-05
-0.000100168
0.000232982
-0.000146689
0.000162235
-0.000128388
1.7628e-06
-0.000124859
-1.83214e-05
-7.38329e-05
-7.11531e-05
-0.000107721
6.46903e-07
-0.000119919
-4.52719e-06
-0.000151448
3.89678e-05
-0.000170933
3.97327e-05
-0.000175327
1.39053e-05
-0.000177216
6.19861e-06
-0.000181295
-6.1631e-06
-0.00011559
-7.78087e-05
-0.000112316
-2.00465e-05
-0.000120631
-5.55985e-05
-0.000112258
-2.22676e-05
-8.38655e-05
1.93256e-05
-7.78044e-05
-6.77859e-05
-0.000172085
-6.74775e-05
0.00030046
-9.06559e-05
0.000185414
-8.59663e-05
-2.92682e-06
-6.21044e-05
-4.21833e-05
-0.000104599
-2.86581e-05
-6.96699e-05
-3.42826e-05
-5.64459e-05
-1.77511e-05
-6.32545e-05
4.57763e-05
-7.34476e-05
4.99259e-05
-7.48907e-05
1.53484e-05
-8.07885e-05
1.20964e-05
-0.00010152
1.4568e-05
-0.00014313
-3.61981e-05
-9.75219e-05
-6.56547e-05
-0.000110229
-4.28911e-05
-0.000104031
-2.84659e-05
-7.58734e-05
-8.8322e-06
-5.75269e-05
-8.61324e-05
-0.000229612
-4.45891e-05
0.000345049
-5.14426e-05
0.000192267
-5.52968e-05
9.27417e-07
-5.11447e-05
-4.63354e-05
-3.35926e-05
-4.62102e-05
-2.49798e-07
-6.76254e-05
3.47532e-05
-5.27541e-05
3.86871e-05
4.18424e-05
8.86506e-06
7.97479e-05
-1.72196e-05
4.1433e-05
-2.55398e-05
2.04166e-05
-3.76628e-05
2.66911e-05
-6.20075e-05
-1.18535e-05
-9.19855e-05
-3.56767e-05
-7.58353e-05
-5.90413e-05
-0.000123617
1.93161e-05
-6.20798e-05
-7.03697e-05
-5.14913e-05
-9.67209e-05
-0.000281103
-2.65871e-05
0.000371636
1.28167e-06
0.000164398
-1.97078e-05
2.19169e-05
-7.39632e-06
-5.86469e-05
1.37817e-05
-6.73883e-05
3.45162e-05
-8.83599e-05
6.028e-05
-7.85179e-05
8.74153e-05
1.4707e-05
7.80629e-05
8.91004e-05
3.48651e-05
8.46308e-05
-5.75176e-06
6.10334e-05
-2.90682e-05
5.00075e-05
-4.17282e-05
8.06463e-07
-3.97645e-05
-3.76404e-05
-6.06201e-05
-3.81857e-05
-5.35403e-05
1.22363e-05
-5.12119e-05
-7.26981e-05
-3.12036e-05
-0.000116729
-0.000312307
9.39847e-07
0.000370696
3.06607e-05
0.000134678
8.29286e-06
4.42847e-05
6.4871e-06
-5.68411e-05
3.77898e-05
-9.8691e-05
4.52458e-05
-9.58158e-05
6.22648e-05
-9.55369e-05
9.53554e-05
-1.83836e-05
0.000116472
6.79833e-05
9.12033e-05
0.0001099
1.23201e-05
0.000139917
-3.58051e-05
9.81327e-05
-5.06326e-05
1.5634e-05
-6.98135e-05
-1.84595e-05
-5.41683e-05
-5.38309e-05
-4.57057e-05
3.77371e-06
-4.59335e-05
-7.24703e-05
-1.67117e-05
-0.000145951
-0.000329019
2.55366e-05
0.00034516
5.45689e-05
0.000105645
6.17739e-05
3.70797e-05
3.642e-05
-3.14871e-05
4.34736e-05
-0.000105745
2.97205e-05
-8.20627e-05
3.99558e-05
-0.000105772
9.11837e-05
-6.96115e-05
0.000124947
3.42203e-05
0.000135751
9.90954e-05
8.55105e-05
0.000190157
1.00679e-05
0.000173575
-1.37309e-05
3.94328e-05
-2.43805e-05
-7.80994e-06
-2.93867e-05
-4.88247e-05
-2.7465e-05
1.85208e-06
-3.36501e-05
-6.62851e-05
-1.16757e-05
-0.000167925
-0.000340694
3.49079e-05
0.000310252
5.028e-05
9.02732e-05
5.42739e-05
3.30858e-05
4.36108e-05
-2.0824e-05
2.62839e-05
-8.84178e-05
3.51404e-05
-9.09191e-05
3.86277e-05
-0.00010926
7.1406e-05
-0.00010239
0.000113194
-7.56745e-06
8.27265e-05
0.000129563
5.10301e-05
0.000221854
1.92293e-05
0.000205376
-4.47056e-06
6.31327e-05
-8.6942e-06
-3.58631e-06
-1.43045e-05
-4.32144e-05
-1.24367e-05
-1.57274e-08
-1.85073e-05
-6.02145e-05
-1.17374e-05
-0.000174695
-0.000352432
6.03624e-06
-2.7896e-05
1.16534e-05
-2.56458e-05
1.60139e-05
-2.44952e-05
2.0534e-05
-1.96704e-05
2.18421e-05
-1.6178e-05
3.04682e-05
-1.32337e-05
2.29865e-05
4.59283e-06
1.60381e-05
8.46496e-06
6.52544e-06
2.12672e-05
-1.5417e-06
2.43573e-05
-7.45001e-06
2.55736e-05
-1.05389e-05
2.00507e-05
-1.73785e-05
1.73855e-05
-2.10341e-05
1.35538e-05
-2.41944e-05
9.72924e-06
-2.49085e-05
3.48316e-06
-2.48477e-05
1.07838e-07
-2.49978e-05
-9.95452e-07
-2.34007e-05
-2.45233e-06
-1.32293e-05
-5.90265e-06
-8.43431e-06
-5.34231e-06
-7.43268e-06
-4.70256e-06
1.04706e-06
-3.09882e-06
1.22501e-06
-2.9121e-05
3.2423e-06
-2.76631e-05
3.43691e-06
-2.46898e-05
8.71969e-07
-1.71055e-05
-6.33288e-06
-8.97313e-06
-1.17549e-05
-7.81163e-06
-1.39265e-05
6.76444e-06
-1.27942e-05
7.33266e-06
-8.36887e-06
1.68418e-05
-1.15496e-05
2.75381e-05
-1.48783e-05
2.89022e-05
-1.79882e-05
2.31607e-05
-1.77067e-05
1.7104e-05
-1.84184e-05
1.42655e-05
-1.79534e-05
9.26428e-06
-1.82164e-05
3.7461e-06
-1.77955e-05
-3.1304e-07
-1.81189e-05
-6.72027e-07
-1.01421e-05
-1.04292e-05
-1.06837e-05
-5.36103e-06
-7.62602e-06
-8.40002e-06
-7.26592e-06
-5.06265e-06
4.19592e-06
-1.04148e-05
-1.53258e-06
-2.75884e-05
-3.55762e-06
-2.56381e-05
-1.06888e-05
-1.75587e-05
-1.83168e-05
-9.47754e-06
-2.30404e-05
-4.2495e-06
-3.54871e-05
4.63507e-06
-4.06451e-05
1.19224e-05
-5.6295e-05
2.29826e-05
-5.18589e-05
1.24057e-05
-3.84706e-05
1.41498e-05
-2.01238e-05
1.05554e-05
-2.90114e-05
3.20483e-05
-2.22036e-05
1.02961e-05
-2.04218e-05
1.24837e-05
-2.15108e-05
1.03533e-05
-1.94861e-05
1.72143e-06
-1.90709e-05
-7.28242e-07
-1.17071e-05
-8.03581e-06
-1.80919e-05
-4.04442e-06
-9.51752e-06
-1.39354e-05
-3.71896e-06
-1.41986e-05
4.37317e-07
-9.21892e-06
1.5368e-07
4.47956e-06
-3.65653e-06
-2.3932e-05
-1.12403e-05
-1.80543e-05
-2.00823e-05
-8.71679e-06
-3.51926e-05
5.63276e-06
-4.05336e-05
1.09151e-06
-4.94298e-05
1.35313e-05
-5.55697e-05
1.80623e-05
-7.6439e-05
4.38519e-05
-7.87606e-05
1.47273e-05
-7.3661e-05
9.05021e-06
-6.69613e-05
3.85574e-06
-3.8164e-05
3.25101e-06
-4.66999e-05
1.88321e-05
-3.47291e-05
5.12885e-07
-3.2364e-05
7.98817e-06
-2.99657e-05
-6.76922e-07
-2.88266e-05
-1.86731e-06
-2.71498e-05
-9.71266e-06
-2.21064e-05
-9.0878e-06
-1.72753e-05
-1.87665e-05
-6.52605e-06
-2.49478e-05
2.5408e-07
-1.59991e-05
-4.01553e-06
4.42329e-06
-7.69284e-06
-1.62392e-05
-1.71609e-05
-8.58631e-06
-1.9682e-05
-6.1957e-06
-3.43013e-05
2.02521e-05
-4.79649e-05
1.47551e-05
-8.55677e-05
5.11341e-05
-9.98874e-05
3.2382e-05
-0.000100549
4.45137e-05
-0.000107249
2.14271e-05
-0.000114205
1.60062e-05
-0.000105806
-4.54353e-06
-9.76168e-05
-4.93769e-06
-8.32769e-05
4.49221e-06
-7.33483e-05
-9.41575e-06
-4.54747e-05
-1.98855e-05
-3.95132e-05
-6.63836e-06
-2.94748e-05
-1.19057e-05
-3.79465e-05
-1.24098e-06
-3.17559e-05
-1.52784e-05
-1.48693e-05
-3.56531e-05
-1.37146e-06
-3.84456e-05
5.74818e-06
-2.31187e-05
-1.1801e-05
1.35336e-05
-1.56707e-05
-5.6846e-07
-2.97147e-05
5.45771e-06
-4.67038e-05
1.07934e-05
-4.47001e-05
1.82484e-05
-5.91183e-05
2.91732e-05
-4.85543e-05
4.05701e-05
-7.34565e-05
5.72842e-05
-7.44578e-05
4.55149e-05
-8.02696e-05
2.72389e-05
-6.71162e-05
2.8528e-06
-9.77921e-05
2.61324e-05
-9.69934e-05
-5.73644e-06
-6.23936e-05
-3.01076e-05
-7.18518e-05
4.24311e-08
-6.75963e-05
-2.41409e-05
-5.73113e-05
-1.69234e-05
-4.89191e-05
-2.02979e-05
-4.01144e-05
-1.00457e-05
-2.43734e-05
-3.10195e-05
-2.51821e-05
-3.48443e-05
-3.52555e-05
-2.83723e-05
-2.47236e-05
-3.36506e-05
-1.52383e-05
-2.12863e-05
-1.37934e-05
1.32249e-05
-2.40139e-05
1.56783e-05
-5.18338e-05
3.86135e-05
-6.74463e-05
3.38609e-05
-7.62333e-05
3.79602e-05
-7.40778e-05
3.84146e-05
-7.623e-05
5.94364e-05
-7.68674e-05
4.61523e-05
-8.42412e-05
3.46127e-05
-9.23113e-05
1.09229e-05
-8.54189e-05
1.924e-05
-7.31126e-05
-1.80427e-05
-8.31348e-05
-2.00854e-05
-4.30629e-05
-4.00294e-05
-4.90722e-05
-1.81316e-05
-4.15131e-05
-2.44826e-05
-6.54372e-05
3.62609e-06
-8.60205e-05
1.05377e-05
-0.000138659
2.16188e-05
-0.000144007
-2.94955e-05
-0.00013894
-3.34399e-05
-0.000149048
-2.35423e-05
-2.77734e-05
-0.000136513
-2.55259e-05
3.87509e-05
-2.88804e-05
1.9033e-05
-2.55064e-05
3.52396e-05
-4.12824e-05
4.9637e-05
-5.88796e-05
5.55574e-05
-5.99141e-05
3.94491e-05
-3.32367e-05
3.2759e-05
-3.902e-05
5.19356e-05
-3.85146e-05
3.41073e-05
-6.03616e-05
3.27699e-05
-7.03505e-05
2.92289e-05
-8.12607e-05
-7.13242e-06
-6.83334e-05
-3.30126e-05
-0.000108211
-1.52122e-07
-0.000152464
2.61221e-05
-0.000221841
4.48942e-05
-0.000228531
1.0316e-05
-0.000227893
9.89882e-06
-0.000210317
4.04313e-06
-0.000225067
-1.47451e-05
-0.00021307
-4.54373e-05
-0.00021134
-2.5272e-05
-1.57727e-05
-0.000223341
-2.05615e-05
5.93126e-05
-2.30626e-05
2.15342e-05
-3.26134e-05
4.47905e-05
-3.58722e-05
5.28959e-05
-8.17566e-06
2.78609e-05
-2.80844e-05
5.93579e-05
-3.13057e-05
3.59802e-05
-3.91771e-05
5.9807e-05
-7.8514e-05
7.34441e-05
-0.000119815
7.40706e-05
-0.000147062
5.64766e-05
-0.000221533
6.73389e-05
-0.000322355
6.78084e-05
-0.000375544
5.30369e-05
-0.000400475
5.10531e-05
-0.000400241
4.46602e-05
-0.000382308
-7.61654e-06
-0.000352739
-1.96698e-05
-0.000320565
-2.81309e-05
-0.000300802
-3.45082e-05
-0.000297984
-4.82556e-05
-0.000273602
-4.96537e-05
-5.96972e-05
-0.000229678
-1.59645e-05
7.52771e-05
-4.66042e-05
5.21738e-05
-5.20346e-05
5.0221e-05
-4.06918e-05
4.15532e-05
-3.5301e-05
2.24702e-05
-2.72045e-05
5.12615e-05
4.23373e-06
4.54193e-06
-7.31595e-06
7.13566e-05
-7.94015e-05
0.00014553
-0.000123487
0.000118157
-0.00021189
0.00014488
-0.000260512
0.00011596
-0.00028946
9.67568e-05
-0.000301886
6.5463e-05
-0.000286156
3.53228e-05
-0.000260987
1.94912e-05
-0.000271864
3.26049e-06
-0.000282636
-8.89802e-06
-0.000286902
-2.38643e-05
-0.000283403
-3.8007e-05
-0.000285029
-4.66301e-05
-0.000284195
-5.04875e-05
-5.19444e-05
-0.000291948
-2.12168e-05
9.6494e-05
-4.73735e-05
7.83304e-05
-5.44807e-05
5.73282e-05
-3.1399e-05
1.84716e-05
1.48581e-06
-1.04146e-05
6.42616e-06
4.63211e-05
-5.94857e-06
1.69166e-05
-2.42139e-05
8.96219e-05
-3.6407e-05
0.000157723
-7.70006e-05
0.00015875
-7.86512e-05
0.00014653
-8.57848e-05
0.000123094
-8.24352e-05
9.34072e-05
-9.26242e-05
7.56519e-05
-0.000112167
5.48661e-05
-0.000141794
4.91174e-05
-0.000182154
4.3621e-05
-0.000219054
2.80023e-05
-0.000244814
1.89491e-06
-0.000265901
-1.692e-05
-0.000277777
-3.47536e-05
-0.000282307
-4.59571e-05
-4.78901e-05
-0.000286362
-2.56409e-05
0.000122135
-7.13439e-05
0.000124033
-0.000120143
0.000106127
-0.000210486
0.000108815
-0.000325235
0.000104335
-0.000375604
9.66897e-05
-0.000498919
0.000140232
-0.000540545
0.000131248
-0.000516147
0.000133324
-0.00054733
0.000189934
-0.000599478
0.000198678
-0.000627551
0.000151166
-0.000622727
8.85835e-05
-0.000594855
4.77795e-05
-0.000564609
2.46199e-05
-0.000535859
2.03678e-05
-0.000503
1.07618e-05
-0.000468089
-6.9081e-06
-0.000432998
-3.31969e-05
-0.00039866
-5.1258e-05
-0.000373016
-6.03976e-05
-0.000349389
-6.95834e-05
-8.03885e-05
-0.000316891
-4.28681e-05
0.000165003
-8.17731e-05
0.000162938
-0.000144669
0.000169024
-0.000263656
0.000227801
-0.000413406
0.000254084
-0.0005362
0.000219484
-0.000573619
0.000177651
-0.000601914
0.000159543
-0.000597523
0.000128934
-0.000572313
0.000164723
-0.000534843
0.000161208
-0.000496441
0.000112764
-0.000401007
-6.8501e-06
-0.000281308
-7.19191e-05
-0.000186628
-7.00609e-05
-0.000126396
-3.98634e-05
-7.3083e-05
-4.25516e-05
-3.16079e-05
-4.83832e-05
-1.07864e-05
-5.40184e-05
-7.14663e-06
-5.48978e-05
-5.93065e-06
-6.16135e-05
-1.20111e-05
-6.35029e-05
-5.57608e-05
-3.66388e-05
-2.60372e-05
0.00019104
-4.94276e-05
0.000186328
-8.5509e-05
0.000205105
-0.000112343
0.000254635
-0.000198101
0.000339843
-0.000207647
0.00022903
-0.000289822
0.000259826
-0.000335293
0.000205014
-0.000434748
0.000228389
-0.000378241
0.000108216
-0.000351188
0.000134155
-0.000275019
3.65956e-05
-0.00019828
-8.35895e-05
-0.000126568
-0.00014363
-6.01955e-05
-0.000136434
-4.88102e-05
-5.12487e-05
-3.38176e-05
-5.75441e-05
-3.16961e-05
-5.05046e-05
-3.96531e-05
-4.60614e-05
-5.723e-05
-3.73209e-05
-9.87097e-05
-2.01339e-05
-0.000155391
-6.82196e-06
-1.43937e-05
-0.000196758
-1.5971e-05
0.000207011
-2.15172e-05
0.000191875
-2.53915e-05
0.000208979
6.88113e-06
0.000222362
6.44978e-05
0.000282226
-5.91759e-06
0.000299446
-9.13177e-05
0.000345226
-0.000127612
0.000241308
-0.000113054
0.00021383
-6.78148e-05
6.29772e-05
-4.18134e-05
0.000108154
-1.94777e-05
1.426e-05
-6.15185e-06
-9.69154e-05
3.34422e-07
-0.000150117
-5.66519e-06
-0.000130434
-1.81197e-06
-5.51017e-05
-4.39801e-06
-5.4958e-05
-1.01168e-05
-4.47858e-05
-2.04899e-05
-3.56883e-05
-4.12022e-05
-1.66086e-05
-7.90109e-05
1.7675e-05
-0.000141192
5.53592e-05
3.37499e-05
-0.000189336
7.64847e-07
0.000206246
-6.18849e-06
0.000198828
-1.03508e-05
0.000213141
6.16871e-05
0.000150324
7.33383e-05
0.000270574
9.07531e-05
0.000282031
0.000127566
0.000308413
0.000136151
0.000232723
0.000167331
0.00018265
0.000190055
4.02526e-05
0.000203411
9.47983e-05
0.000186387
3.12846e-05
0.000150533
-6.10617e-05
9.15435e-05
-9.11273e-05
6.63073e-05
-0.000105198
5.57637e-05
-4.4558e-05
3.95392e-05
-3.87334e-05
2.49349e-05
-3.01815e-05
1.46994e-05
-2.54528e-05
7.81638e-06
-9.72556e-06
1.22193e-05
1.32721e-05
2.96527e-05
3.79259e-05
5.06607e-05
1.27419e-05
2.15082e-06
0.000204095
5.0481e-06
0.000195931
2.81826e-05
0.000190007
3.96817e-05
0.000138825
7.67733e-05
0.000233483
0.000101557
0.000257247
0.000162584
0.000247386
0.000161933
0.000233374
0.000259045
8.55388e-05
0.000226643
7.26547e-05
0.000260514
6.09269e-05
0.000246141
4.56579e-05
0.000199183
-1.41038e-05
0.000135378
-2.73227e-05
9.14638e-05
-6.1283e-05
7.33723e-05
-2.64665e-05
5.9124e-05
-2.4485e-05
5.00359e-05
-2.10934e-05
6.0937e-05
-3.63539e-05
6.347e-05
-1.22586e-05
8.15902e-05
-4.84795e-06
7.48646e-05
4.46517e-05
2.54161e-05
0.000100109
5.10021e-07
0.000203585
1.2998e-06
0.000195141
5.39222e-05
0.000137384
4.95244e-05
0.000143222
6.47931e-05
0.000218214
0.00011615
0.000205891
0.000160579
0.000202957
0.00018432
0.000209633
0.000161888
0.000107972
0.000164212
7.03298e-05
0.000148169
7.69703e-05
0.000186693
7.1341e-06
0.00015903
1.35587e-05
0.000129879
1.82895e-06
8.52322e-05
-1.66365e-05
7.0478e-05
-1.17122e-05
6.51499e-05
-1.91569e-05
6.37673e-05
-1.97107e-05
3.97534e-05
-1.234e-05
4.84475e-05
-2.09527e-05
5.9139e-05
-1.55394e-05
0.000113849
-1.00585e-05
6.50098e-06
0.000132764
1.40885e-05
0.000189497
3.54203e-05
0.000173809
5.8774e-05
0.000114031
3.22647e-05
0.000169732
7.03851e-05
0.000180094
9.59136e-05
0.000180362
9.43635e-05
0.000204507
0.00019665
0.000107346
0.000127984
0.000176638
0.00013537
6.29435e-05
0.000185354
2.69863e-05
0.000147411
4.50769e-05
0.00014753
1.34397e-05
0.000124642
2.47171e-05
0.000107157
8.48475e-07
9.61935e-05
-7.48254e-07
8.25482e-05
-5.51154e-06
7.13176e-05
-8.48009e-06
8.32639e-05
-2.42863e-05
8.4399e-05
-2.20878e-05
9.07742e-05
-2.19146e-05
0.000112821
-3.21054e-05
-2.39e-06
0.000121712
8.10745e-06
0.000181389
2.52354e-05
0.000156681
2.35214e-05
0.000115744
4.52948e-05
0.000147958
4.66694e-05
0.000178719
0.000121383
0.000105649
0.000154874
0.000171016
0.00010864
0.00015358
0.000178904
0.000106375
0.000156159
8.5688e-05
0.000111273
7.18728e-05
0.000133492
2.2858e-05
8.0963e-05
6.59686e-05
7.24799e-05
3.32003e-05
8.67797e-05
-1.34514e-05
8.14629e-05
4.5686e-06
8.28862e-05
-6.93486e-06
8.33672e-05
-8.96104e-06
8.96943e-05
-3.06134e-05
8.2105e-05
-1.44985e-05
9.05827e-05
-3.03922e-05
8.06778e-05
-2.22005e-05
-1.90151e-05
9.7303e-05
3.21007e-05
0.000149288
4.46474e-05
0.000144135
8.78263e-06
0.000151609
5.17753e-05
0.000104966
5.04786e-05
0.000180016
5.99209e-05
9.62063e-05
7.1724e-05
0.000159213
0.000142106
8.31973e-05
0.000104326
0.000144155
9.92424e-05
9.07718e-05
0.000138127
3.29883e-05
8.43522e-05
7.66329e-05
0.000111245
3.9076e-05
0.000106419
3.8026e-05
7.74867e-05
1.54812e-05
9.19822e-05
-9.92687e-06
8.50863e-05
-3.89518e-08
8.61428e-05
-1.00176e-05
5.96432e-05
-4.11377e-06
8.39142e-05
-3.87694e-05
7.552e-05
-2.19979e-05
5.98428e-05
-6.52326e-06
-1.98961e-05
6.07239e-05
-1.20348e-05
0.000161323
3.47354e-05
9.73643e-05
3.2404e-05
0.00015394
3.49539e-05
0.000102416
4.99625e-05
0.000165008
4.46037e-05
0.000101565
0.000112414
9.14027e-05
9.30323e-05
0.000102579
0.000155697
8.14899e-05
0.00014776
9.8709e-05
9.81836e-05
8.25649e-05
0.000140185
3.46316e-05
0.00011491
6.43513e-05
0.000117065
3.5871e-05
0.000104909
2.76371e-05
0.000101696
-6.71404e-06
9.66951e-05
4.96203e-06
9.02271e-05
-3.54969e-06
8.88864e-05
-2.77306e-06
8.33913e-05
-3.32742e-05
8.97425e-05
-2.83491e-05
9.64745e-05
-1.32552e-05
-2.51754e-05
0.000101754
1.30908e-05
0.000148233
2.33199e-05
8.71351e-05
5.37959e-05
0.000123465
2.64601e-05
0.000129752
5.67785e-05
0.000134689
7.72626e-05
8.1081e-05
9.34391e-05
7.52262e-05
0.000123957
7.20605e-05
6.78618e-05
0.000137585
7.4431e-05
9.214e-05
0.000121929
3.50668e-05
7.54382e-05
8.11228e-05
9.33446e-05
4.64449e-05
6.49472e-05
6.42683e-05
6.9279e-05
2.33053e-05
7.14686e-05
-8.9037e-06
6.25549e-05
1.38758e-05
5.78761e-05
1.12904e-06
8.11136e-05
-2.60105e-05
8.01039e-05
-3.22644e-05
7.95226e-05
-2.77678e-05
8.55945e-05
-1.93271e-05
-1.32191e-05
7.36382e-05
3.41298e-05
0.000114103
2.2898e-05
9.8367e-05
5.65186e-05
8.98439e-05
6.01895e-05
0.000126081
6.23633e-05
0.000132516
6.95956e-05
7.38489e-05
6.38488e-05
8.09731e-05
7.6286e-05
5.96234e-05
0.000109271
0.000104601
0.000117972
8.34392e-05
7.89833e-05
7.40553e-05
0.00010856
5.15464e-05
0.000107036
4.79692e-05
0.000102332
6.89716e-05
0.000105116
2.05214e-05
8.29782e-05
1.32341e-05
0.000101802
-4.94835e-06
9.43974e-05
8.53388e-06
9.29055e-05
-2.45185e-05
9.42652e-05
-3.36241e-05
8.28304e-05
-1.6333e-05
8.1552e-05
-1.80486e-05
3.24203e-07
6.80088e-05
8.21519e-06
0.000105888
1.65269e-05
9.00554e-05
1.73629e-05
8.90081e-05
6.25975e-05
8.08463e-05
6.57862e-05
0.000129327
6.70562e-05
7.25789e-05
7.52361e-05
7.27934e-05
6.42187e-05
7.06409e-05
8.21629e-05
8.66566e-05
0.000107427
5.81752e-05
9.812e-05
8.33622e-05
0.000105331
4.43357e-05
7.70238e-05
7.6276e-05
9.44986e-05
5.14968e-05
8.88409e-05
2.6179e-05
8.07434e-05
2.13316e-05
7.87327e-05
-2.93766e-06
8.89077e-05
-1.64107e-06
7.45955e-05
-1.02062e-05
5.39887e-05
-1.30172e-05
6.13493e-05
-2.36936e-05
5.89904e-05
-1.56896e-05
-8.68098e-06
6.79956e-05
1.08559e-05
9.50321e-05
1.76783e-05
8.32332e-05
2.33869e-05
8.32995e-05
2.08038e-05
8.34294e-05
6.702e-05
8.31108e-05
6.58976e-05
7.37014e-05
6.73492e-05
7.13419e-05
6.98581e-05
6.8132e-05
9.56025e-05
6.09122e-05
9.80545e-05
5.57233e-05
9.53316e-05
8.6085e-05
9.75423e-05
4.2125e-05
0.000104959
6.88592e-05
9.78485e-05
5.86073e-05
0.000106811
1.72165e-05
7.07345e-05
5.7408e-05
5.7731e-05
1.00658e-05
4.76106e-05
8.47939e-06
5.11186e-05
-1.37142e-05
5.72464e-05
-1.9145e-05
5.54119e-05
-2.1859e-05
5.75933e-05
-1.78709e-05
-1.51162e-05
6.40285e-05
1.13403e-05
8.36919e-05
2.03267e-05
7.42468e-05
2.91686e-05
7.44576e-05
4.06779e-05
7.19202e-05
4.73727e-05
7.6416e-05
5.47792e-05
6.6295e-05
6.18441e-05
6.4277e-05
7.08278e-05
5.91483e-05
7.55521e-05
5.61879e-05
8.16554e-05
4.96199e-05
8.55835e-05
8.21568e-05
8.83203e-05
3.93881e-05
9.42911e-05
6.28884e-05
9.4547e-05
5.83514e-05
6.6168e-05
4.55955e-05
6.92962e-05
5.42798e-05
6.60243e-05
1.33378e-05
7.33482e-05
1.15558e-06
7.15601e-05
-1.1926e-05
5.71568e-05
-4.74159e-06
6.40606e-05
-2.87627e-05
6.46663e-05
-1.84765e-05
-2.09859e-05
7.0536e-05
6.94129e-06
7.67506e-05
1.08657e-05
7.03223e-05
1.73223e-05
6.8001e-05
2.4279e-05
6.49635e-05
3.92619e-05
6.14331e-05
4.65843e-05
5.89725e-05
5.35962e-05
5.7265e-05
6.05227e-05
5.22218e-05
6.60483e-05
5.06622e-05
7.05535e-05
4.51146e-05
7.01485e-05
8.25618e-05
7.04819e-05
3.90547e-05
9.16726e-05
4.16977e-05
9.28019e-05
5.7222e-05
7.50506e-05
6.33469e-05
0.000111547
1.77838e-05
0.000104396
2.04885e-05
9.82665e-05
7.28524e-06
9.10541e-05
-4.71362e-06
9.05035e-05
-4.19086e-06
7.10955e-05
-9.35474e-06
7.48093e-05
-2.21903e-05
-1.62438e-05
7.00671e-05
8.43256e-06
6.83179e-05
1.58657e-05
6.28891e-05
2.42497e-05
5.96169e-05
3.07487e-05
5.84645e-05
3.7855e-05
5.43268e-05
4.39365e-05
5.2891e-05
4.98604e-05
5.13411e-05
5.48338e-05
4.72483e-05
5.97354e-05
4.57606e-05
6.38302e-05
4.10198e-05
6.81174e-05
7.82745e-05
7.16908e-05
3.54814e-05
7.67379e-05
3.66506e-05
8.52234e-05
4.87365e-05
9.23382e-05
5.62322e-05
9.37842e-05
1.63378e-05
6.81711e-05
4.61017e-05
7.65909e-05
-1.13457e-06
7.35258e-05
-1.64848e-06
7.62439e-05
-6.90893e-06
6.4709e-05
2.18022e-06
7.55691e-05
-3.30504e-05
-1.49044e-05
7.42297e-05
7.59958e-06
6.07183e-05
1.48769e-05
5.56117e-05
2.21024e-05
5.23915e-05
2.92188e-05
5.13481e-05
3.39395e-05
4.96062e-05
3.97899e-05
4.70407e-05
4.51745e-05
4.59564e-05
4.99386e-05
4.24843e-05
5.45525e-05
4.11468e-05
5.8373e-05
3.71993e-05
6.42076e-05
7.24401e-05
6.78155e-05
3.18734e-05
7.33369e-05
3.11293e-05
8.04548e-05
4.16186e-05
8.93558e-05
4.73313e-05
5.84721e-05
4.72215e-05
8.53888e-05
1.9185e-05
8.77705e-05
-3.51624e-06
9.49253e-05
-8.80317e-06
9.08131e-05
-2.79675e-06
9.61792e-05
-3.1859e-06
7.25779e-05
-9.44913e-06
-2.62021e-05
8.38756e-05
6.60804e-06
5.41102e-05
1.31427e-05
4.90772e-05
1.89041e-05
4.66301e-05
2.47402e-05
4.55121e-05
3.00998e-05
4.42466e-05
3.51052e-05
4.20354e-05
3.99372e-05
4.11245e-05
4.39909e-05
3.84306e-05
4.79972e-05
3.71406e-05
5.08878e-05
3.43087e-05
5.59289e-05
6.7399e-05
5.59857e-05
3.18167e-05
5.77884e-05
2.93267e-05
4.64316e-05
5.29754e-05
5.44826e-05
3.92804e-05
5.57769e-05
4.59272e-05
7.08961e-05
4.06588e-06
6.57006e-05
1.67922e-06
4.99953e-05
6.90217e-06
5.55994e-05
-8.4008e-06
6.04054e-05
-7.992e-06
7.50219e-05
-2.40656e-05
-2.43584e-05
7.31781e-05
6.23734e-06
4.78729e-05
1.20081e-05
4.33065e-05
1.71379e-05
4.15005e-05
2.22631e-05
4.0387e-05
2.71345e-05
3.93753e-05
3.16549e-05
3.75151e-05
3.59537e-05
3.68258e-05
3.95989e-05
3.47854e-05
4.34468e-05
3.32929e-05
4.58876e-05
3.18679e-05
5.19056e-05
6.13811e-05
5.16972e-05
3.20251e-05
5.29269e-05
2.8097e-05
4.39507e-05
6.19516e-05
5.53933e-05
2.78379e-05
8.40151e-05
1.73054e-05
7.88182e-05
9.26283e-06
5.91274e-05
2.137e-05
6.29712e-05
3.0584e-06
8.76399e-05
-3.30696e-05
8.24446e-05
-2.79665e-06
6.55269e-05
-7.14797e-06
-3.7642e-05
7.88105e-05
5.32546e-06
4.25476e-05
1.01849e-05
3.84472e-05
1.46112e-05
3.70743e-05
1.89585e-05
3.60398e-05
2.323e-05
3.5104e-05
2.72782e-05
3.3467e-05
3.12914e-05
3.28127e-05
3.48434e-05
3.12334e-05
3.82039e-05
2.99325e-05
4.11732e-05
2.88986e-05
4.93076e-05
5.32468e-05
5.30768e-05
2.8256e-05
5.91575e-05
2.20163e-05
7.01051e-05
5.10041e-05
7.03455e-05
2.75975e-05
7.00729e-05
1.7578e-05
5.0068e-05
2.92677e-05
7.78217e-05
-6.38367e-06
8.24296e-05
-1.54954e-06
6.13561e-05
-1.19961e-05
8.89371e-05
-3.03777e-05
0.000100673
-1.88835e-05
-3.57192e-05
9.87497e-05
4.764e-06
3.77837e-05
8.97813e-06
3.42332e-05
1.29332e-05
3.31193e-05
1.6877e-05
3.20961e-05
2.06585e-05
3.13226e-05
2.44178e-05
2.97078e-05
2.81095e-05
2.91211e-05
3.20156e-05
2.73274e-05
3.52638e-05
2.66844e-05
3.90027e-05
2.51598e-05
4.63013e-05
4.59483e-05
4.29184e-05
3.1639e-05
3.27676e-05
3.21671e-05
3.90174e-05
4.47544e-05
3.55704e-05
3.10445e-05
4.3324e-05
9.82437e-06
7.11347e-05
1.45707e-06
7.49119e-05
-1.01609e-05
7.77127e-05
-4.35038e-06
6.70845e-05
-1.3679e-06
8.95565e-05
-5.28497e-05
8.58944e-05
-1.52215e-05
-4.01583e-05
9.03335e-05
3.94047e-06
3.38433e-05
7.32407e-06
3.08497e-05
1.05546e-05
2.98888e-05
1.37279e-05
2.89228e-05
1.67923e-05
2.82583e-05
1.98524e-05
2.66477e-05
2.28981e-05
2.60754e-05
2.60683e-05
2.41573e-05
2.87816e-05
2.3971e-05
3.11744e-05
2.27671e-05
3.46741e-05
4.24486e-05
4.1328e-05
2.49852e-05
3.49578e-05
3.85373e-05
3.70957e-05
4.26164e-05
5.70088e-05
1.11315e-05
5.7584e-05
9.24916e-06
6.6035e-05
-6.99397e-06
4.89792e-05
6.89488e-06
6.03361e-05
-1.57073e-05
5.33295e-05
5.63861e-06
4.6809e-05
-4.63292e-05
4.78896e-05
-1.63021e-05
-5.18694e-05
5.96006e-05
3.47581e-06
3.03676e-05
6.51841e-06
2.78072e-05
9.45739e-06
2.69499e-05
1.23135e-05
2.60668e-05
1.51845e-05
2.53873e-05
1.80856e-05
2.37466e-05
2.11787e-05
2.29823e-05
2.49591e-05
2.0377e-05
2.8374e-05
2.05561e-05
2.19547e-05
2.91863e-05
2.66086e-05
3.77947e-05
2.51235e-05
2.64702e-05
3.73251e-05
2.63358e-05
6.10594e-05
1.88821e-05
5.10396e-05
2.11512e-05
5.79341e-05
2.35462e-06
4.09239e-05
1.00163e-05
4.75406e-05
2.78159e-07
4.19692e-05
-1.0136e-05
7.26982e-05
-2.50904e-05
4.54253e-05
-1.90562e-05
8.29332e-05
-5.38101e-05
-3.96095e-05
7.06733e-05
2.75078e-06
2.76168e-05
5.1772e-06
2.53808e-05
7.51982e-06
2.46073e-05
9.61098e-06
2.39756e-05
1.18152e-05
2.31831e-05
1.36747e-05
2.18871e-05
1.55726e-05
2.10844e-05
1.7315e-05
1.86346e-05
1.89563e-05
1.89147e-05
1.85833e-05
2.95594e-05
2.12745e-05
3.51035e-05
2.66351e-05
2.11097e-05
2.82837e-05
2.46871e-05
4.32394e-05
3.92644e-06
4.26016e-05
2.1789e-05
3.20019e-05
1.29543e-05
3.74233e-05
4.59492e-06
4.15619e-05
-3.8605e-06
5.46719e-05
-2.32459e-05
5.74305e-05
-2.78491e-05
6.14295e-05
-2.30552e-05
6.49364e-05
-5.7317e-05
-3.30037e-05
5.83306e-05
2.34105e-06
2.52758e-05
4.33678e-06
2.3385e-05
6.33757e-06
2.26064e-05
8.02451e-06
2.22887e-05
1.00589e-05
2.11487e-05
1.14615e-05
2.04844e-05
1.3465e-05
1.90809e-05
1.42605e-05
1.78391e-05
1.63439e-05