/*--------------------------------*- C++ -*----------------------------------*\
| =========                 |                                                 |
| \\      /  F ield         | foam-extend: Open Source CFD                    |
|  \\    /   O peration     | Version:     4.1                                |
|   \\  /    A nd           | Web:         http://www.foam-extend.org         |
|    \\/     M anipulation  |                                                 |
\*---------------------------------------------------------------------------*/
FoamFile
{
    version     2.0;
    format      ascii;
    class       surfaceScalarField;
    location    "0.55";
    object      phi_0;
}
// * * * * * * * * * * * * * * * * * * * * * * * * * * * * * * * * * * * * * //

dimensions      [0 3 -1 0 0 0 0];

internalField   nonuniform List<scalar> 
4432
(
2.98484e-06
-2.98484e-06
4.8133e-06
-1.82847e-06
7.02449e-06
-2.21119e-06
9.05812e-06
-2.03363e-06
1.09571e-05
-1.89893e-06
1.18008e-05
-8.43761e-07
1.20226e-05
-2.21748e-07
1.15036e-05
5.18999e-07
9.77197e-06
1.7316e-06
6.59011e-06
3.18185e-06
1.05778e-05
-3.98765e-06
1.10845e-05
-5.0669e-07
1.17413e-05
-6.56803e-07
1.17314e-05
9.87541e-09
1.10225e-05
7.08839e-07
1.03073e-05
7.15217e-07
1.01655e-05
1.41803e-07
8.47372e-06
1.6918e-06
6.62552e-06
1.84821e-06
5.54818e-06
1.07733e-06
4.01269e-06
1.53549e-06
1.54762e-06
2.46507e-06
1.54762e-06
2.863e-06
-5.84784e-06
4.85773e-06
-3.8232e-06
7.18401e-06
-4.53747e-06
9.10473e-06
-3.95434e-06
1.09037e-05
-3.69795e-06
1.20098e-05
-1.9498e-06
1.24301e-05
-6.42085e-07
1.19595e-05
9.8967e-07
1.07927e-05
2.89832e-06
1.67608e-05
-2.78618e-06
1.42735e-05
-1.5004e-06
1.39339e-05
-1.67043e-07
1.3698e-05
-4.20939e-07
1.33433e-05
3.64597e-07
1.22772e-05
1.77494e-06
1.15863e-05
1.40611e-06
6.39144e-06
5.33665e-06
6.20307e-06
1.88018e-06
4.85004e-06
3.20124e-06
5.23753e-06
6.89843e-07
2.78867e-06
3.98436e-06
2.17763e-06
3.07611e-06
3.72525e-06
2.49324e-06
-8.34108e-06
4.81247e-06
-6.14243e-06
7.45722e-06
-7.18221e-06
9.15318e-06
-5.65031e-06
1.11056e-05
-5.65033e-06
1.24796e-05
-3.32383e-06
1.27594e-05
-9.21902e-07
1.25431e-05
1.206e-06
1.04361e-05
5.00533e-06
1.47203e-05
-7.07044e-06
1.27195e-05
5.00405e-07
1.20494e-05
5.03058e-07
1.10978e-05
5.30699e-07
1.02184e-05
1.24401e-06
9.32445e-06
2.66886e-06
9.10518e-06
1.62537e-06
1.01173e-05
4.32455e-06
1.01483e-05
1.84918e-06
8.93957e-06
4.40995e-06
7.24473e-06
2.38468e-06
4.41156e-06
6.81753e-06
1.7309e-06
5.75677e-06
5.45615e-06
2.23404e-06
-1.05751e-05
4.97843e-06
-8.88682e-06
7.77495e-06
-9.97873e-06
9.58295e-06
-7.45832e-06
1.17435e-05
-7.81089e-06
1.26246e-05
-4.20491e-06
1.28366e-05
-1.13388e-06
1.23304e-05
1.7122e-06
1.90002e-05
-1.66448e-06
1.43963e-05
-2.46651e-06
1.13962e-05
3.50048e-06
7.43252e-06
4.46672e-06
4.66648e-06
3.29673e-06
3.21032e-06
2.70017e-06
3.08672e-06
2.79247e-06
3.39526e-06
1.31682e-06
3.87035e-06
3.84946e-06
4.37224e-06
1.34729e-06
4.85383e-06
3.92837e-06
4.34385e-06
2.89465e-06
3.20256e-06
7.95883e-06
1.7774e-06
7.18193e-06
7.23355e-06
2.32802e-06
-1.29031e-05
5.22853e-06
-1.17873e-05
8.00245e-06
-1.27526e-05
1.00528e-05
-9.50869e-06
1.18822e-05
-9.64028e-06
1.22148e-05
-4.53751e-06
1.28322e-05
-1.75121e-06
1.18119e-05
2.73246e-06
1.57752e-05
-5.62782e-06
9.96867e-06
3.34005e-06
6.28565e-06
7.18349e-06
2.38055e-06
8.37182e-06
-9.35197e-08
5.7708e-06
-1.80911e-06
4.41577e-06
-2.79337e-06
3.77672e-06
-3.40125e-06
1.92471e-06
-3.46117e-06
3.90937e-06
-3.72754e-06
1.61366e-06
-2.76476e-06
2.96559e-06
-3.87598e-07
5.1749e-07
1.1503e-07
7.4562e-06
9.03267e-07
6.3937e-06
8.13682e-06
2.81965e-06
-1.57228e-05
5.67805e-06
-1.46457e-05
8.30314e-06
-1.53777e-05
1.01574e-05
-1.13629e-05
1.17814e-05
-1.12644e-05
1.27985e-05
-5.55459e-06
1.23191e-05
-1.27179e-06
1.74276e-05
-2.37606e-06
1.0417e-05
1.38281e-06
6.11033e-06
7.6467e-06
1.51168e-06
1.17821e-05
-1.77325e-06
1.16568e-05
-3.50923e-06
7.50678e-06
-4.85612e-06
5.76265e-06
-5.75537e-06
4.67597e-06
-6.70009e-06
2.86942e-06
-6.95966e-06
4.16895e-06
-4.22959e-06
-1.11641e-06
-4.71131e-06
3.44731e-06
-5.92761e-06
1.73379e-06
-1.41989e-06
2.94848e-06
4.43457e-07
4.53035e-06
8.58027e-06
3.12036e-06
-1.88431e-05
5.86103e-06
-1.73864e-05
8.27333e-06
-1.779e-05
1.02438e-05
-1.33333e-05
1.21464e-05
-1.3167e-05
1.21104e-05
-5.5186e-06
9.84599e-06
9.92602e-07
1.22965e-05
-4.82658e-06
6.79134e-06
6.88798e-06
3.13426e-06
1.13038e-05
-7.76373e-07
1.56928e-05
-3.11515e-06
1.39955e-05
-4.67548e-06
9.06711e-06
-7.81834e-06
8.90551e-06
-9.07933e-06
5.93697e-06
-9.05502e-06
2.84511e-06
-9.42377e-06
4.53769e-06
-9.50975e-06
-1.03043e-06
-5.08855e-06
-9.73886e-07
-4.34251e-06
9.87746e-07
-2.96472e-06
1.5707e-06
-4.72471e-07
2.0381e-06
8.1078e-06
3.13434e-06
-2.19775e-05
5.91567e-06
-2.01677e-05
8.43709e-06
-2.03115e-05
1.04092e-05
-1.53054e-05
1.23188e-05
-1.50766e-05
1.16313e-05
-4.83108e-06
1.58799e-05
-3.256e-06
1.00235e-05
1.02984e-06
5.54813e-06
1.13633e-05
8.48045e-07
1.60039e-05
-3.07156e-06
1.96124e-05
-6.09766e-06
1.70216e-05
-7.6293e-06
1.05988e-05
-8.74598e-06
1.00222e-05
-9.55068e-06
6.74167e-06
-9.72464e-06
3.01907e-06
-5.46485e-06
2.77903e-07
-5.50996e-06
-9.85312e-07
-5.79789e-06
-6.8596e-07
-9.20824e-06
4.39809e-06
-7.30495e-06
-3.32584e-07
-2.05694e-06
-3.20991e-06
6.05086e-06
-0.000133491
0.000133491
-0.000249948
0.000116457
-0.00027026
2.0312e-05
-0.000255303
-1.49568e-05
-0.000234825
-2.04775e-05
-0.00020106
-3.37651e-05
-0.000183719
-1.73409e-05
-0.000189912
6.19227e-06
-0.000208415
1.85035e-05
-0.000216823
8.40818e-06
-0.000223572
6.74832e-06
-0.000215426
-8.14536e-06
-0.00020329
-1.21361e-05
-0.000186351
-1.69388e-05
-0.000122261
-6.40906e-05
-0.000108442
-1.38186e-05
-0.000156257
4.7815e-05
-9.47294e-05
-6.15277e-05
-9.47294e-05
-0.000100624
0.000234115
-0.000147168
0.000163
-0.000128245
1.38989e-06
-0.000124245
-1.89575e-05
-7.30119e-05
-7.17103e-05
-0.000105527
-1.24981e-06
-0.000116832
-6.03581e-06
-0.000149303
3.86633e-05
-0.000172061
4.12615e-05
-0.000178473
1.48194e-05
-0.000178065
6.34033e-06
-0.000181148
-5.06169e-06
-0.000115707
-7.75775e-05
-0.000112437
-2.02085e-05
-0.000120655
-5.58725e-05
-0.000112165
-2.23088e-05
-8.37384e-05
1.93884e-05
-7.78456e-05
-6.74205e-05
-0.000172575
-6.75242e-05
0.000301639
-9.02753e-05
0.000185751
-8.56242e-05
-3.2612e-06
-6.14112e-05
-4.31704e-05
-0.000103676
-2.94457e-05
-6.86994e-05
-3.62262e-05
-5.5758e-05
-1.89772e-05
-6.38434e-05
4.67486e-05
-7.50699e-05
5.2488e-05
-7.67153e-05
1.64648e-05
-8.13519e-05
1.09769e-05
-0.000100613
1.41994e-05
-0.000142771
-3.54197e-05
-9.74054e-05
-6.55738e-05
-0.000110154
-4.31242e-05
-0.000103949
-2.85138e-05
-7.57964e-05
-8.76408e-06
-5.71049e-05
-8.61119e-05
-0.00022968
-4.46022e-05
0.000346242
-5.07685e-05
0.000191917
-5.46212e-05
5.9153e-07
-4.91275e-05
-4.86642e-05
-3.1506e-05
-4.70672e-05
5.23481e-07
-6.82557e-05
3.49604e-05
-5.34141e-05
3.77856e-05
4.39234e-05
7.16885e-06
8.31048e-05
-1.91749e-05
4.28085e-05
-2.73795e-05
1.91816e-05
-3.80981e-05
2.4918e-05
-6.17454e-05
-1.17724e-05
-9.13638e-05
-3.59554e-05
-7.55078e-05
-5.89802e-05
-0.000123339
1.93175e-05
-6.20278e-05
-7.00754e-05
-5.14902e-05
-9.66495e-05
-0.00028117
-2.59785e-05
0.00037222
2.72034e-06
0.000163218
-1.69707e-05
2.02826e-05
-6.34853e-06
-5.92864e-05
1.52551e-05
-6.86707e-05
3.5828e-05
-8.88287e-05
6.10937e-05
-7.86798e-05
8.75917e-05
1.74254e-05
7.65378e-05
9.41586e-05
3.17857e-05
8.75606e-05
-8.68568e-06
5.9653e-05
-3.05677e-05
4.68e-05
-4.1686e-05
-6.54142e-07
-3.92238e-05
-3.84176e-05
-6.01374e-05
-3.80667e-05
-5.31764e-05
1.23566e-05
-5.10729e-05
-7.21788e-05
-3.27072e-05
-0.000115015
-0.000313877
1.82613e-06
0.000370394
3.22874e-05
0.000132757
9.82098e-06
4.27491e-05
7.46666e-06
-5.69321e-05
3.89489e-05
-0.000100153
4.61331e-05
-9.60129e-05
6.28673e-05
-9.5414e-05
9.61362e-05
-1.58434e-05
0.000116343
7.39519e-05
9.05093e-05
0.000113394
1.07373e-05
0.000139425
-3.76612e-05
9.51985e-05
-5.08576e-05
1.25423e-05
-6.86963e-05
-2.05789e-05
-5.35374e-05
-5.32256e-05
-4.52632e-05
4.08243e-06
-4.55816e-05
-7.18604e-05
-1.56242e-05
-0.000144973
-0.000329501
2.6389e-05
0.000344005
5.52224e-05
0.000103924
6.28005e-05
3.51709e-05
3.75983e-05
-3.17299e-05
4.40381e-05
-0.000106593
2.98314e-05
-8.18062e-05
4.01035e-05
-0.000105686
9.1715e-05
-6.74549e-05
0.000125191
4.04764e-05
0.000134037
0.000104547
8.42509e-05
0.000189211
7.36998e-06
0.000172079
-1.46104e-05
3.45226e-05
-2.44483e-05
-1.0741e-05
-2.91591e-05
-4.85147e-05
-2.70716e-05
1.99482e-06
-3.27512e-05
-6.61808e-05
-1.14586e-05
-0.000166265
-0.00034096
3.56214e-05
0.000308384
4.986e-05
8.96851e-05
5.44841e-05
3.05469e-05
4.45691e-05
-2.1815e-05
2.65093e-05
-8.85329e-05
3.51978e-05
-9.04947e-05
3.84838e-05
-0.000108972
7.19458e-05
-0.000100917
0.000115581
-3.15916e-06
8.32711e-05
0.000136858
5.09334e-05
0.000221549
1.90833e-05
0.000203929
-4.91388e-06
5.85198e-05
-7.83904e-06
-7.81577e-06
-1.38716e-05
-4.24821e-05
-1.2206e-05
3.2919e-07
-1.83314e-05
-6.00554e-05
-1.18536e-05
-0.000172743
-0.000352814
6.09237e-06
-2.80699e-05
1.17678e-05
-2.58432e-05
1.61819e-05
-2.47256e-05
2.07715e-05
-1.9895e-05
2.21418e-05
-1.64469e-05
3.10859e-05
-1.37752e-05
2.38139e-05
4.01596e-06
1.69594e-05
7.8843e-06
7.50592e-06
2.08168e-05
-6.28067e-07
2.41379e-05
-6.43228e-06
2.54166e-05
-9.52918e-06
2.01185e-05
-1.6504e-05
1.75736e-05
-2.02615e-05
1.37797e-05
-2.35347e-05
1.00149e-05
-2.42745e-05
3.75887e-06
-2.43888e-05
3.92194e-07
-2.45696e-05
-8.04565e-07
-2.2978e-05
-2.27757e-06
-1.28444e-05
-5.73548e-06
-8.03018e-06
-5.1468e-06
-6.86045e-06
-4.37964e-06
1.72251e-06
-2.53209e-06
1.35216e-06
-2.9422e-05
3.51594e-06
-2.8007e-05
3.8492e-06
-2.50588e-05
1.75357e-06
-1.77994e-05
-5.31195e-06
-9.38141e-06
-1.05242e-05
-8.56287e-06
-1.24995e-05
5.99119e-06
-1.15285e-05
6.91332e-06
-7.22174e-06
1.65101e-05
-1.04722e-05
2.73883e-05
-1.39006e-05
2.8845e-05
-1.71246e-05
2.33426e-05
-1.68706e-05
1.73195e-05
-1.76978e-05
1.46069e-05
-1.73031e-05
9.62026e-06
-1.76771e-05
4.13284e-06
-1.73014e-05
1.64837e-08
-1.75939e-05
-5.12085e-07
-9.84471e-06
-1.00267e-05
-1.03789e-05
-5.20133e-06
-7.1984e-06
-8.32727e-06
-6.6508e-06
-4.92724e-06
4.47815e-06
-9.40644e-06
-1.44212e-06
-2.79799e-05
-3.28888e-06
-2.61602e-05
-9.97609e-06
-1.83716e-05
-1.73933e-05
-1.03821e-05
-2.19296e-05
-4.84517e-06
-3.44323e-05
3.93981e-06
-3.98738e-05
1.14327e-05
-5.54854e-05
2.2525e-05
-5.12076e-05
1.22322e-05
-3.78678e-05
1.40486e-05
-1.96781e-05
1.06552e-05
-2.83632e-05
3.20277e-05
-2.1576e-05
1.05323e-05
-1.97997e-05
1.28307e-05
-2.09682e-05
1.07888e-05
-1.90283e-05
2.19292e-06
-1.8607e-05
-4.049e-07
-1.14945e-05
-7.62455e-06
-1.76709e-05
-3.85029e-06
-9.19452e-06
-1.36777e-05
-3.32335e-06
-1.41984e-05
9.35301e-07
-9.18589e-06
1.60786e-07
5.25266e-06
-3.39033e-06
-2.45896e-05
-1.05845e-05
-1.89661e-05
-1.90823e-05
-9.87382e-06
-3.37097e-05
4.24528e-06
-3.9034e-05
4.79105e-07
-4.80615e-05
1.29673e-05
-5.46249e-05
1.79961e-05
-7.5799e-05
4.36991e-05
-7.82527e-05
1.46859e-05
-7.31983e-05
8.99416e-06
-6.66098e-05
4.06672e-06
-3.78965e-05
3.31437e-06
-4.64744e-05
1.91102e-05
-3.43161e-05
6.72313e-07
-3.19762e-05
8.44888e-06
-2.95798e-05
-2.03466e-07
-2.83846e-05
-1.60011e-06
-2.67662e-05
-9.24294e-06
-2.17876e-05
-8.82889e-06
-1.6776e-05
-1.86893e-05
-5.74965e-06
-2.52248e-05
1.25821e-06
-1.61938e-05
-4.06581e-06
5.48481e-06
-7.4116e-06
-1.7178e-05
-1.6628e-05
-9.7497e-06
-1.89899e-05
-7.51181e-06
-3.32578e-05
1.85131e-05
-4.67312e-05
1.39524e-05
-8.39964e-05
5.02325e-05
-9.83526e-05
3.23522e-05
-9.92699e-05
4.46164e-05
-0.000106316
2.17322e-05
-0.00011358
1.62582e-05
-0.000105477
-4.03654e-06
-9.74497e-05
-4.71281e-06
-8.30471e-05
4.70762e-06
-7.30558e-05
-9.319e-06
-4.52627e-05
-1.93442e-05
-3.93613e-05
-6.1049e-06
-2.94702e-05
-1.14912e-05
-3.77527e-05
-9.60418e-07
-3.14483e-05
-1.51333e-05
-1.44534e-05
-3.56842e-05
-6.02511e-07
-3.90756e-05
6.54427e-06
-2.33405e-05
-1.22523e-05
1.47308e-05
-1.5153e-05
-2.025e-06
-2.913e-05
4.22743e-06
-4.56314e-05
8.9896e-06
-4.3899e-05
1.67807e-05
-5.82518e-05
2.83052e-05
-4.79859e-05
3.99666e-05
-7.26408e-05
5.70071e-05
-7.34577e-05
4.54333e-05
-7.9436e-05
2.77104e-05
-6.64564e-05
3.27859e-06
-9.7372e-05
2.68791e-05
-9.68289e-05
-5.25586e-06
-6.27283e-05
-2.9393e-05
-7.24812e-05
4.33885e-07
-6.80456e-05
-2.37798e-05
-5.7425e-05
-1.67255e-05
-4.84754e-05
-2.04408e-05
-3.91687e-05
-1.02671e-05
-2.31722e-05
-3.11299e-05
-2.36879e-05
-3.51684e-05
-3.32391e-05
-2.95244e-05
-2.29845e-05
-3.35951e-05
-1.60879e-05
-1.91489e-05
-1.37439e-05
1.1719e-05
-2.42624e-05
1.4746e-05
-5.20539e-05
3.6781e-05
-6.70101e-05
3.17369e-05
-7.5833e-05
3.7128e-05
-7.34855e-05
3.76191e-05
-7.55099e-05
5.90315e-05
-7.57702e-05
4.56935e-05
-8.30592e-05
3.49994e-05
-9.14012e-05
1.16206e-05
-8.47597e-05
2.02376e-05
-7.31941e-05
-1.68215e-05
-8.29933e-05
-1.95938e-05
-4.28929e-05
-3.96665e-05
-4.82909e-05
-1.83818e-05
-3.99576e-05
-2.50588e-05
-6.0973e-05
5.7455e-07
-7.87286e-05
7.48839e-06
-0.000131862
2.2003e-05
-0.000137864
-2.91664e-05
-0.000135258
-3.21301e-05
-0.000144033
-2.48204e-05
-2.75974e-05
-0.000132523
-2.55789e-05
3.7298e-05
-2.90798e-05
1.82469e-05
-2.62495e-05
3.39506e-05
-4.25035e-05
4.79909e-05
-5.9729e-05
5.43537e-05
-5.97422e-05
3.76323e-05
-3.28355e-05
3.21248e-05
-3.79668e-05
5.08249e-05
-3.69289e-05
3.39614e-05
-5.81188e-05
3.28104e-05
-6.90464e-05
3.11653e-05
-7.98341e-05
-6.03379e-06
-6.67356e-05
-3.26923e-05
-0.000104714
-1.68823e-06
-0.000143199
2.01039e-05
-0.000209758
4.14999e-05
-0.000219792
1.06089e-05
-0.000224567
1.22625e-05
-0.00020651
3.94582e-06
-0.000220085
-1.55906e-05
-0.000206463
-4.57523e-05
-0.000205065
-2.62185e-05
-1.42764e-05
-0.000218386
-2.09617e-05
5.82597e-05
-2.37952e-05
2.10803e-05
-3.39236e-05
4.4079e-05
-3.84259e-05
5.24933e-05
-1.03469e-05
2.62749e-05
-2.96731e-05
5.69586e-05
-3.10165e-05
3.34682e-05
-3.5499e-05
5.53073e-05
-7.2697e-05
7.11594e-05
-0.000113011
7.31249e-05
-0.000137983
5.61369e-05
-0.000207675
6.36587e-05
-0.000307047
6.66793e-05
-0.000361219
5.24837e-05
-0.00039107
4.99551e-05
-0.00039451
4.49394e-05
-0.00038012
-3.78095e-06
-0.000349795
-1.8063e-05
-0.000316618
-2.9231e-05
-0.000296542
-3.56664e-05
-0.000296137
-4.61571e-05
-0.000274266
-4.80902e-05
-5.90864e-05
-0.000229456
-1.59992e-05
7.42588e-05
-4.71396e-05
5.22206e-05
-5.41137e-05
5.10531e-05
-4.52634e-05
4.36432e-05
-4.22787e-05
2.32903e-05
-3.10877e-05
4.57678e-05
2.17118e-06
2.09225e-07
-4.71471e-07
5.795e-05
-6.68821e-05
0.00013757
-0.000111893
0.000118136
-0.000198964
0.000143208
-0.000252826
0.000117522
-0.000283782
9.7635e-05
-0.000296734
6.54352e-05
-0.000282656
3.58774e-05
-0.000257958
2.02414e-05
-0.000266423
4.68422e-06
-0.000276526
-7.96025e-06
-0.000283148
-2.26093e-05
-0.000282188
-3.66264e-05
-0.000282699
-4.56458e-05
-0.000281555
-4.92347e-05
-4.9661e-05
-0.00029098
-2.08908e-05
9.51496e-05
-4.73924e-05
7.87222e-05
-5.70723e-05
6.0733e-05
-4.02234e-05
2.67943e-05
-1.03855e-05
-6.54757e-06
9.49868e-07
3.44327e-05
-8.87236e-06
1.00315e-05
-1.8141e-05
6.72187e-05
-3.03811e-05
0.000149811
-7.24332e-05
0.000160188
-7.78694e-05
0.000148644
-8.5768e-05
0.00012542
-8.3348e-05
9.52151e-05
-9.36568e-05
7.5744e-05
-0.000112154
5.43748e-05
-0.000139632
4.77195e-05
-0.000178123
4.31751e-05
-0.000214313
2.82293e-05
-0.000240796
3.87379e-06
-0.000262214
-1.52084e-05
-0.0002751
-3.276e-05
-0.000279531
-4.48039e-05
-4.75193e-05
-0.000281672
-2.39466e-05
0.000119096
-6.6132e-05
0.000120908
-0.000110608
0.000105209
-0.000194745
0.000110932
-0.000307498
0.000106205
-0.000369494
9.6429e-05
-0.000495712
0.000136249
-0.000554199
0.000125706
-0.000526045
0.000121657
-0.000543934
0.000178077
-0.000593807
0.000198517
-0.000626695
0.000158308
-0.000625432
9.39519e-05
-0.000600018
5.03298e-05
-0.000569119
2.34756e-05
-0.000540474
1.90747e-05
-0.000508604
1.13052e-05
-0.000473817
-6.55753e-06
-0.000439201
-3.07426e-05
-0.000404324
-5.00849e-05
-0.000377913
-5.91707e-05
-0.000353939
-6.87787e-05
-7.91905e-05
-0.000322267
-3.92766e-05
0.000158373
-7.33402e-05
0.000154971
-0.000127852
0.000159721
-0.000233041
0.000216121
-0.000376457
0.000249621
-0.000515813
0.000235785
-0.000563891
0.000184327
-0.000598511
0.000160326
-0.000607823
0.000130968
-0.000588065
0.00015832
-0.000542771
0.000153223
-0.00050165
0.000117188
-0.000411913
4.2145e-06
-0.000289725
-7.18585e-05
-0.000189902
-7.63464e-05
-0.000127419
-4.34085e-05
-7.44585e-05
-4.16557e-05
-3.33651e-05
-4.7651e-05
-1.11737e-05
-5.29339e-05
-7.49001e-06
-5.37686e-05
-5.7861e-06
-6.08746e-05
-1.13218e-05
-6.32429e-05
-5.51758e-05
-3.53366e-05
-2.31792e-05
0.000181552
-4.3446e-05
0.000175238
-7.64546e-05
0.000192729
-9.61361e-05
0.000235802
-0.000172334
0.000325819
-0.000176505
0.000239956
-0.000273369
0.000281192
-0.00032347
0.000210426
-0.000423475
0.000230973
-0.000363454
9.82986e-05
-0.000347991
0.000137761
-0.000275395
4.45911e-05
-0.000199099
-7.20818e-05
-0.000126992
-0.000143965
-6.30556e-05
-0.000140283
-5.29108e-05
-5.35534e-05
-3.64491e-05
-5.81173e-05
-3.32011e-05
-5.08989e-05
-3.96499e-05
-4.6485e-05
-5.55248e-05
-3.78938e-05
-9.47449e-05
-2.16545e-05
-0.000151415
-6.57278e-06
-1.25685e-05
-0.000194022
-1.49877e-05
0.00019654
-2.00718e-05
0.000180322
-2.45604e-05
0.000197218
3.46565e-06
0.000207776
5.9652e-05
0.000269633
9.04682e-06
0.000290561
-6.2864e-05
0.000353103
-0.000106699
0.000254261
-9.29435e-05
0.000217218
-5.72504e-05
6.26052e-05
-3.62341e-05
0.000116744
-1.34513e-05
2.18084e-05
2.64879e-06
-8.81816e-05
5.62954e-06
-0.000146946
-4.34012e-06
-0.000130313
-1.60682e-06
-5.62867e-05
-3.86618e-06
-5.58578e-05
-9.48374e-06
-4.52812e-05
-1.96894e-05
-3.62794e-05
-3.98282e-05
-1.7755e-05
-7.64341e-05
1.49513e-05
-0.000138381
5.53745e-05
3.71795e-05
-0.000188129
2.07702e-06
0.000194463
-6.75099e-06
0.00018915
-1.27006e-05
0.000203167
5.18628e-05
0.000143213
6.34252e-05
0.000258071
8.51517e-05
0.000268835
0.000131089
0.000307164
0.000151085
0.000234265
0.000181619
0.000186685
0.000200445
4.37797e-05
0.000210937
0.000106252
0.00019224
4.05054e-05
0.000157575
-5.35162e-05
9.56967e-05
-8.50675e-05
6.92459e-05
-0.000103862
5.7227e-05
-4.42677e-05
4.01768e-05
-3.88074e-05
2.53155e-05
-3.04198e-05
1.49416e-05
-2.59055e-05
7.78997e-06
-1.06033e-05
1.12474e-05
1.1494e-05
2.81198e-05
3.8502e-05
5.4627e-05
1.06724e-05
1.10342e-06
0.000193359
2.74089e-06
0.000187512
2.4518e-05
0.00018139
3.39323e-05
0.000133798
6.80966e-05
0.000223907
8.84418e-05
0.00024849
0.000151132
0.000244474
0.00015089
0.000234507
0.000249468
8.81071e-05
0.000217788
7.54602e-05
0.00025629
6.77493e-05
0.000244863
5.1933e-05
0.00019841
-7.0635e-06
0.000137024
-2.36812e-05
9.28593e-05
-5.96978e-05
7.42984e-05
-2.57067e-05
5.95289e-05
-2.40377e-05
5.00853e-05
-2.09762e-05
6.04563e-05
-3.62765e-05
6.23404e-05
-1.24874e-05
7.87711e-05
-4.93676e-06
7.22002e-05
4.50728e-05
2.82646e-05
9.85627e-05
-2.98211e-07
0.000193657
-1.01202e-06
0.000188226
4.87671e-05
0.000131611
4.46438e-05
0.000137921
5.85572e-05
0.000209993
0.000105938
0.000201109
0.000149
0.000201412
0.000177068
0.000206438
0.000156051
0.000109124
0.000159041
7.24698e-05
0.000144194
8.25966e-05
0.000187217
8.91016e-06
0.000159485
2.06682e-05
0.000129714
6.08965e-06
8.52233e-05
-1.52066e-05
7.06598e-05
-1.11431e-05
6.49699e-05
-1.83478e-05
6.33772e-05
-1.93835e-05
3.93996e-05
-1.22989e-05
4.7839e-05
-2.09267e-05
5.79728e-05
-1.50706e-05
0.000112272
-9.22655e-06
8.93646e-06
0.0001316
1.17931e-05
0.000181864
3.31782e-05
0.000166841
5.45535e-05
0.000110235
2.89632e-05
0.000163511
6.36273e-05
0.000175329
8.88994e-05
0.000175837
8.91359e-05
0.000201176
0.000187553
0.000108022
0.000121402
0.000175275
0.000129823
6.40486e-05
0.000181989
3.04308e-05
0.000139237
5.16624e-05
0.000144715
1.51904e-05
0.00012386
2.69441e-05
0.000106445
2.20898e-06
9.53905e-05
-8.87029e-08
8.19841e-05
-4.94135e-06
7.08256e-05
-8.22489e-06
8.25699e-05
-2.40432e-05
8.3485e-05
-2.18419e-05
8.96639e-05
-2.12494e-05
0.00011164
-3.12024e-05
2.09517e-07
0.000120367
7.22529e-06
0.000174639
2.3155e-05
0.000150911
2.12906e-05
0.0001121
4.17616e-05
0.00014304
4.27982e-05
0.000174292
0.000114869
0.000103767
0.000148021
0.000168023
0.000104199
0.000151844
0.000172256
0.000107218
0.000150171
8.61331e-05
0.000104758
7.58442e-05
0.00013139
2.50307e-05
7.99936e-05
6.65864e-05
7.18434e-05
3.50944e-05
8.64991e-05
-1.24466e-05
8.09424e-05
5.46813e-06
8.22085e-05
-6.20741e-06
8.26732e-05
-8.68955e-06
8.88991e-05
-3.02691e-05
8.13408e-05
-1.42836e-05
8.9775e-05
-2.96836e-05
7.93911e-05
-2.08185e-05
-1.78687e-05
9.74694e-05
3.23543e-05
0.000142285
4.28501e-05
0.000140415
7.45016e-06
0.0001475
4.83092e-05
0.000102181
4.75989e-05
0.000175003
5.64026e-05
9.4963e-05
6.83432e-05
0.000156083
0.000137057
8.31297e-05
0.00010128
0.000142996
9.74256e-05
8.99872e-05
0.0001353
3.79695e-05
8.20985e-05
7.82327e-05
0.000108716
3.99691e-05
0.00010451
3.93005e-05
7.5959e-05
1.61044e-05
9.0859e-05
-9.4318e-06
8.42231e-05
4.28621e-07
8.52369e-05
-9.70338e-06
5.89396e-05
-3.97181e-06
8.28283e-05
-3.81723e-05
7.45563e-05
-2.14116e-05
5.94464e-05
-5.70855e-06
-1.87577e-05
6.03355e-05
-1.40522e-05
0.000156337
3.20344e-05
9.43289e-05
3.04129e-05
0.000149121
3.27234e-05
9.9871e-05
4.70668e-05
0.000160659
4.21562e-05
9.98736e-05
0.000108659
8.95794e-05
8.92984e-05
0.000102491
0.000150855
8.14391e-05
0.000142407
9.84355e-05
9.63083e-05
8.4068e-05
0.000138697
3.58441e-05
0.000113433
6.52337e-05
0.000115497
3.72359e-05
0.000103517
2.80846e-05
0.000100503
-6.41724e-06
9.57335e-05
5.19787e-06
8.94301e-05
-3.40002e-06
8.81461e-05
-2.68786e-06
8.2739e-05
-3.27652e-05
8.91142e-05
-2.77867e-05
9.57434e-05
-1.23377e-05
-2.40264e-05
0.000101012
1.2106e-05
0.000144231
2.19043e-05
8.45305e-05
5.09844e-05
0.000120041
2.46618e-05
0.000126194
5.33261e-05
0.000131995
7.33559e-05
7.98437e-05
8.80794e-05
7.48559e-05
0.000119816
7.07543e-05
6.51942e-05
0.000136061
7.20693e-05
9.15605e-05
0.000120357
3.57807e-05
7.38566e-05
8.23443e-05
9.16522e-05
4.74383e-05
6.39859e-05
6.49023e-05
6.86282e-05
2.34422e-05
7.07011e-05
-8.49006e-06
6.16857e-05
1.42132e-05
5.71034e-05
1.18232e-06
8.01297e-05
-2.57142e-05
7.92004e-05
-3.18359e-05
7.86865e-05
-2.72728e-05
8.49102e-05
-1.85613e-05
-1.2208e-05
7.30918e-05
3.31234e-05
0.000111107
2.19433e-05
9.57106e-05
5.43976e-05
8.75869e-05
5.76144e-05
0.000122977
5.94966e-05
0.000130113
6.68821e-05
7.24582e-05
6.20182e-05
7.97198e-05
7.4046e-05
5.87265e-05
0.000106384
0.000103723
0.000115394
8.25503e-05
7.73001e-05
7.3875e-05
0.000106724
5.29207e-05
0.000105307
4.8855e-05
0.000100941
6.92685e-05
0.000103779
2.0604e-05
8.17424e-05
1.35469e-05
0.000100801
-4.84543e-06
9.33181e-05
8.66527e-06
9.17892e-05
-2.41853e-05
9.30525e-05
-3.30992e-05
8.17525e-05
-1.59728e-05
8.06213e-05
-1.743e-05
7.6817e-07
6.76452e-05
7.76948e-06
0.000103338
1.56634e-05
8.78167e-05
1.64085e-05
8.68419e-05
6.02067e-05
7.91789e-05
6.34958e-05
0.000126824
6.46508e-05
7.13032e-05
7.27832e-05
7.15875e-05
6.19035e-05
6.96064e-05
7.97366e-05
8.58898e-05
0.000104749
5.75381e-05
9.58664e-05
8.27577e-05
0.000103714
4.50731e-05
7.58707e-05
7.66984e-05
9.34451e-05
5.16941e-05
8.77388e-05
2.63103e-05
7.98251e-05
2.14605e-05
7.77011e-05
-2.72143e-06
8.77118e-05
-1.34545e-06
7.38776e-05
-1.03511e-05
5.35251e-05
-1.27466e-05
6.07286e-05
-2.31764e-05
5.85387e-05
-1.52401e-05
-8.23966e-06
6.75466e-05
1.04526e-05
9.28854e-05
1.69326e-05
8.13369e-05
2.23414e-05
8.14332e-05
1.98563e-05
8.16641e-05
6.50342e-05
8.1646e-05
6.39839e-05
7.23536e-05
6.5353e-05
7.02185e-05
6.77852e-05
6.71743e-05
9.33655e-05
6.03095e-05
9.55623e-05
5.53414e-05
9.29127e-05
8.54074e-05
9.56969e-05
4.2289e-05
0.000103504
6.88911e-05
9.66754e-05
5.85229e-05
0.000105749
1.72371e-05
7e-05
5.72091e-05
5.73262e-05
9.95237e-06
4.72726e-05
8.70812e-06
5.04242e-05
-1.35027e-05
5.64894e-05
-1.88117e-05
5.48431e-05
-2.15301e-05
5.71725e-05
-1.75694e-05
-1.44924e-05
6.34254e-05
1.09147e-05
8.19709e-05
1.95905e-05
7.26613e-05
2.81304e-05
7.28934e-05
3.93392e-05
7.04554e-05
4.59292e-05
7.50561e-05
5.31825e-05
6.51004e-05
6.01083e-05
6.32927e-05
6.89798e-05
5.83029e-05
7.37249e-05
5.55645e-05
7.99283e-05
4.91381e-05
8.3802e-05
8.15337e-05
8.68481e-05
3.92428e-05
9.30127e-05
6.27265e-05
9.33684e-05
5.81671e-05
6.52675e-05
4.5338e-05
6.83906e-05
5.4086e-05
6.51564e-05
1.31865e-05
7.27123e-05
1.15227e-06
7.1004e-05
-1.17944e-05
5.6736e-05
-4.54369e-06
6.35999e-05
-2.83939e-05
6.42281e-05
-1.81976e-05
-2.05062e-05
7.02419e-05
6.71853e-06
7.52525e-05
1.05234e-05
6.88565e-05
1.6803e-05
6.66138e-05
2.35512e-05
6.37072e-05
3.82476e-05
6.03599e-05
4.53951e-05
5.79529e-05
5.23025e-05
5.63854e-05
5.91211e-05
5.14844e-05
6.46379e-05
5.00477e-05
6.91364e-05
4.46397e-05
6.88077e-05
8.18623e-05
6.92482e-05
3.88024e-05
9.04765e-05
4.14982e-05
9.17084e-05
5.69352e-05
7.40782e-05
6.29681e-05
0.0001104
1.77647e-05
0.000103295
2.02911e-05
9.75442e-05
6.90314e-06
9.00317e-05
-4.28178e-06
8.96038e-05
-4.11572e-06
7.0486e-05
-9.2761e-06
7.42466e-05
-2.19581e-05
-1.59203e-05
6.96608e-05
8.19902e-06
6.70536e-05
1.54221e-05
6.16333e-05
2.35897e-05
5.84462e-05
2.99503e-05
5.73466e-05
3.69347e-05
5.33755e-05
4.29035e-05
5.19841e-05
4.87467e-05
5.05422e-05
5.36591e-05
4.6572e-05
5.8529e-05
4.51778e-05
6.26053e-05
4.05634e-05
6.70015e-05
7.74661e-05
7.06436e-05
3.51602e-05
7.5731e-05
3.64108e-05
8.423e-05
4.84363e-05
9.12477e-05
5.59504e-05
9.28134e-05
1.6199e-05
6.72335e-05
4.58711e-05
7.5574e-05
-1.43729e-06
7.29794e-05
-1.68715e-06
7.57942e-05
-6.93042e-06
6.43284e-05
2.18975e-06
7.51348e-05
-3.27645e-05
-1.45816e-05
7.37961e-05
7.42122e-06
5.96323e-05
1.45351e-05
5.45194e-05
2.15944e-05
5.13869e-05
2.85581e-05
5.03828e-05
3.32184e-05
4.87152e-05
3.89701e-05
4.62324e-05
4.42881e-05
4.52242e-05
4.90087e-05
4.18514e-05
5.35951e-05
4.05913e-05
5.73949e-05
3.67636e-05
6.32509e-05
7.16101e-05
6.68859e-05
3.15253e-05
7.24298e-05
3.08669e-05
7.95608e-05
4.13053e-05
8.84966e-05
4.70146e-05
5.79345e-05
4.67612e-05
8.4837e-05
1.89688e-05
8.70358e-05
-3.63604e-06
9.41499e-05
-8.80117e-06
9.01634e-05
-2.94386e-06
9.55644e-05
-3.21128e-06
7.22182e-05
-9.41822e-06
-2.5857e-05
8.34936e-05
6.47473e-06
5.31575e-05
1.28704e-05
4.81237e-05
1.85121e-05
4.57452e-05
2.42313e-05
4.46637e-05
2.95041e-05
4.34423e-05
3.44305e-05
4.1306e-05
3.91993e-05
4.04555e-05
4.32131e-05
3.78376e-05
4.71941e-05
3.66104e-05
5.00801e-05
3.38776e-05
5.51381e-05
6.65521e-05
5.52148e-05
3.14486e-05
5.70448e-05
2.90369e-05
4.58599e-05
5.24903e-05
5.39159e-05
3.89586e-05
5.521e-05
4.54672e-05
7.03154e-05
3.86349e-06
6.52255e-05
1.45391e-06
4.96689e-05
6.75549e-06
5.52753e-05
-8.55026e-06
6.0032e-05
-7.9679e-06
7.45975e-05
-2.39837e-05
-2.40828e-05
7.28233e-05
6.12839e-06
4.70291e-05
1.17862e-05
4.24659e-05
1.68195e-05
4.07119e-05
2.18535e-05
3.96298e-05
2.66406e-05
3.86553e-05
3.10962e-05
3.68505e-05
3.53409e-05
3.62109e-05
3.8953e-05
3.42255e-05
4.27707e-05
3.27927e-05
4.52171e-05
3.14313e-05
5.12306e-05
6.05386e-05
5.10739e-05
3.16053e-05
5.23434e-05
2.77675e-05
4.35222e-05
6.13115e-05
5.4921e-05
2.756e-05
8.33137e-05
1.70745e-05
7.81268e-05
9.05046e-06
5.87452e-05
2.08355e-05
6.25829e-05
2.91784e-06
8.71285e-05
-3.30958e-05
8.20106e-05
-2.84998e-06
6.51866e-05
-7.15966e-06
-3.73892e-05
7.8493e-05
5.23474e-06
4.17944e-05
1.00022e-05
3.76985e-05
1.43511e-05
3.63632e-05
1.86268e-05
3.53542e-05
2.28336e-05
3.44486e-05
2.68308e-05
3.28534e-05
3.08011e-05
3.22406e-05
3.43265e-05
3.07002e-05
3.76645e-05
2.94549e-05
4.06388e-05
2.8457e-05
4.87342e-05
5.24434e-05
5.25109e-05
2.78286e-05
5.85452e-05
2.17333e-05
6.94205e-05
5.04363e-05
6.96609e-05
2.73196e-05
6.95136e-05
1.72218e-05
4.9751e-05
2.88131e-05
7.7409e-05
-6.82238e-06
8.20175e-05
-1.69064e-06
6.10399e-05
-1.21182e-05
8.86097e-05
-3.04198e-05
0.00010023
-1.87796e-05
-3.55266e-05
9.83669e-05
4.68929e-06
3.71052e-05
8.82815e-06
3.35598e-05
1.27172e-05
3.24744e-05
1.65986e-05
3.14729e-05
2.03213e-05
3.07261e-05
2.40285e-05
2.91463e-05
2.7675e-05
2.85942e-05
3.15397e-05
2.68356e-05
3.47489e-05
2.62457e-05
3.84904e-05
2.47156e-05
4.57244e-05
4.52096e-05
4.24766e-05
3.10765e-05
3.24859e-05
3.1724e-05
3.87427e-05
4.41797e-05
3.54248e-05
3.06376e-05
4.3079e-05
9.56764e-06
7.06397e-05
1.25247e-06
7.43431e-05
-1.05258e-05
7.71775e-05
-4.525e-06
6.65485e-05
-1.48923e-06
8.9133e-05
-5.30043e-05
8.54762e-05
-1.51228e-05
-4.0035e-05
8.99846e-05
3.88195e-06
3.32233e-05
7.2076e-06
3.02343e-05
1.03873e-05
2.92949e-05
1.35134e-05
2.83469e-05
1.65351e-05
2.77045e-05
1.95609e-05
2.61207e-05
2.25798e-05
2.55755e-05
2.57266e-05
2.36889e-05
2.84226e-05
2.35497e-05
3.08037e-05
2.23347e-05
3.4313e-05
4.17003e-05
4.09213e-05
2.44683e-05
3.46313e-05
3.80141e-05
3.67689e-05
4.20421e-05
5.65162e-05
1.08903e-05
5.7177e-05
8.90679e-06
6.56721e-05
-7.24254e-06
4.85401e-05
6.60616e-06
6.01892e-05
-1.61741e-05
5.3092e-05
5.60798e-06
4.6736e-05
-4.66483e-05
4.78115e-05
-1.61984e-05
-5.18213e-05
5.95977e-05
3.42785e-06
2.97956e-05
6.42319e-06
2.72392e-05
9.31921e-06
2.6399e-05
1.21316e-05
2.55347e-05
1.49628e-05
2.48734e-05
1.78202e-05
2.32634e-05
2.08796e-05
2.25162e-05
2.45991e-05
1.99695e-05
2.79927e-05
2.01562e-05
2.17601e-05
2.85673e-05
2.64079e-05
3.70525e-05
2.49716e-05
2.59046e-05
3.70043e-05
2.59814e-05
6.05694e-05
1.84771e-05
5.07904e-05
2.06694e-05
5.75934e-05
2.10382e-06
4.06907e-05
9.6601e-06
4.72189e-05
7.79462e-08
4.21125e-05
-1.10676e-05
7.23349e-05
-2.46145e-05
4.51074e-05
-1.94209e-05
8.22757e-05
-5.33667e-05
-3.93587e-05
6.98131e-05
2.71716e-06
2.70785e-05
5.10837e-06
2.48481e-05
7.41884e-06
2.40886e-05
9.48399e-06
2.34696e-05
1.16623e-05
2.26951e-05
1.35043e-05
2.14215e-05
1.53863e-05
2.06343e-05
1.71214e-05
1.82344e-05
1.87694e-05
1.85082e-05
1.84376e-05
2.88992e-05
2.11408e-05
3.43494e-05
2.6384e-05
2.06614e-05
2.80702e-05
2.42953e-05
4.28994e-05
3.64791e-06
4.225e-05
2.13188e-05
3.18288e-05
1.2525e-05
3.71312e-05
4.35773e-06
4.12503e-05
-4.04114e-06
5.36308e-05
-2.34482e-05
5.6972e-05
-2.79556e-05
6.03119e-05
-2.27608e-05
6.48542e-05
-5.79089e-05
-3.28601e-05
5.83555e-05
2.31555e-06
2.47631e-05
4.28735e-06
2.28763e-05
6.26543e-06
2.21106e-05
7.92981e-06
2.18053e-05
9.94273e-06
2.06822e-05
1.13259e-05
2.00384e-05
1.33147e-05
1.86455e-05
1.41068e-05
1.74424e-05
1.61802e-05