/*--------------------------------*- C++ -*----------------------------------*\
| =========                 |                                                 |
| \\      /  F ield         | foam-extend: Open Source CFD                    |
|  \\    /   O peration     | Version:     4.1                                |
|   \\  /    A nd           | Web:         http://www.foam-extend.org         |
|    \\/     M anipulation  |                                                 |
\*---------------------------------------------------------------------------*/
FoamFile
{
    version     2.0;
    format      ascii;
    class       volScalarField;
    location    "0.55";
    object      psi;
}
// * * * * * * * * * * * * * * * * * * * * * * * * * * * * * * * * * * * * * //

dimensions      [1 -1 -2 0 0 0 0];

internalField   nonuniform List<scalar> 
2268
(
0.0732579
0.0742346
0.0675782
0.0694567
0.0642832
0.0593852
0.0689928
0.0994832
0.112424
0.0748979
0.0189931
-0.000270847
-0.00765488
-0.00610057
0.00327365
0.0102533
0.0138254
0.01317
0.0110767
0.00972351
0.00927937
0.00723625
0.00251966
0.106635
0.108211
0.0950526
0.0987453
0.0915994
0.0881019
0.104891
0.134424
0.134627
0.0588964
-0.00398277
-0.0225882
-0.0266116
-0.0167957
-0.00234076
0.00704142
0.0129973
0.0126853
0.0107314
0.00959821
0.00999788
0.00846133
0.0035031
0.150116
0.152274
0.120156
0.133904
0.121954
0.128587
0.163051
0.180934
0.121281
-0.0382702
-0.0904438
-0.0918303
-0.0741682
-0.0455498
-0.0204503
-0.00458154
0.00748937
0.00806772
0.00783817
0.00821856
0.0110176
0.0102191
0.00359869
0.213228
0.214785
0.148972
0.184554
0.159506
0.187433
0.245254
0.224053
0.0350242
-0.177148
-0.211704
-0.179258
-0.131807
-0.0822925
-0.0466886
-0.0220455
-0.00151136
0.000492478
0.00337483
0.0063353
0.0120386
0.0106506
-0.000727548
0.27276
0.271999
0.150683
0.238302
0.181491
0.253832
0.336203
0.20241
-0.190004
-0.357537
-0.357121
-0.260493
-0.200514
-0.133762
-0.0884995
-0.0503265
-0.0176281
-0.0135837
-0.00467413
0.00233879
0.0106921
0.00538961
-0.0140758
0.271769
0.278609
0.081492
0.267816
0.150499
0.30216
0.416844
0.010142
-0.443067
-0.572095
-0.475621
-0.340262
-0.295743
-0.213168
-0.158226
-0.101257
-0.0509861
-0.0444741
-0.0231749
-0.00816605
0.00198677
-0.0101185
-0.0327937
0.129885
0.179708
-0.0979587
0.239026
0.028769
0.32464
0.460633
-0.357083
-0.670908
-0.738318
-0.560063
-0.445006
-0.445655
-0.336837
-0.270879
-0.191381
-0.116306
-0.102573
-0.06074
-0.0313462
-0.0185031
-0.0327174
-0.0244392
-0.427469
-0.283917
-0.610789
-0.081207
-0.371248
0.0999001
0.119936
-0.679341
-0.850001
-0.916296
-0.707232
-0.665668
-0.704699
-0.552432
-0.468427
-0.357951
-0.248874
-0.211619
-0.132736
-0.0729548
-0.052241
-0.0444145
0.1115
2.702
3.62128
4.60924
5.19991
5.05514
4.79917
4.41999
3.72113
3.59197
4.27147
5.20057
5.35638
5.17094
3.71568
2.74321
1.88562
0.928662
0.0810393
-0.594477
2.69805
3.26962
2.65129
2.42995
1.99391
1.99892
2.75315
3.45162
3.07311
3.08157
3.27623
3.36253
3.07909
3.60079
2.81862
2.97916
2.79049
1.33092
0.504013
2.71085
2.40905
0.983766
0.854298
1.9034
0.959897
0.199621
2.06986
3.01546
1.51656
1.29269
1.31366
1.68261
2.86677
2.72563
2.91142
3.61611
2.07583
0.569179
2.66002
1.67667
0.371017
0.306393
1.91602
1.39362
-0.341604
-0.347498
1.96711
1.78506
0.400496
0.402284
0.536014
1.79857
2.37864
2.30322
0.996467
2.19958
0.615631
2.5768
1.76404
0.385441
0.0386269
0.833528
1.88611
1.03904
-0.615525
1.09171
2.18991
0.925865
0.109552
0.104603
1.15968
2.11777
2.18676
-0.487317
1.40807
1.00657
2.69938
2.01683
0.634025
-0.0731895
0.573968
1.14133
2.39798
1.06594
0.38694
2.12205
1.84822
0.350651
0.0265646
1.18463
2.16252
2.15885
0.0231636
0.682612
1.43634
2.81685
2.19492
0.384124
-0.576398
0.0990473
0.993445
1.82832
2.31308
2.0251
2.93144
3.143
1.13846
0.0458481
0.363872
1.5007
2.19583
0.5298
1.2007
1.63571
2.03924
1.60437
-0.216817
-1.42504
0.423792
1.36644
0.348431
1.55764
3.5148
3.79724
2.55055
0.853686
0.276206
0.138784
0.910862
2.05947
0.707315
1.77136
1.68987
0.196426
0.309845
0.0245597
0.276335
-0.000569235
-0.439126
-0.354294
-0.853143
-1.09263
-1.39785
-1.3498
-1.43533
-1.3817
-1.10928
-0.943269
-0.763245
-0.568898
-0.451556
-0.295659
-0.188207
-0.14379
-0.0382695
0.743372
0.300648
0.320064
0.239887
0.29667
0.424444
-0.105765
0.530829
0.320735
0.541831
0.299365
-0.132455
-0.842572
-1.15325
-1.19503
-1.27887
-1.21942
-0.987783
-0.824133
-0.59213
-0.278298
-0.192988
-0.0997478
0.660249
0.249088
0.243599
0.247771
0.273596
0.38752
0.312643
0.682644
0.950809
1.31224
1.58071
1.17152
1.19952
0.0373459
-0.395228
-0.898122
-1.21921
-1.11178
-1.16649
-0.514442
-0.268391
-0.266493
-0.120614
0.325833
0.126683
0.12876
0.141732
0.166223
0.211907
0.268233
0.500335
0.85872
0.95138
1.17591
1.32845
1.78288
1.32086
1.15254
1.28436
0.548302
0.260948
-0.238792
0.255232
-0.209377
-1.05265
-0.310547
0.315032
0.0562817
0.0600211
0.0628014
0.0836819
0.110676
0.22512
0.414669
0.614772
0.623491
0.796929
0.964908
1.32759
1.74437
1.44552
1.64515
1.53024
1.21808
1.24302
0.646093
-0.0916937
-0.698374
0.202089
0.0278773
0.0237939
0.0261449
0.0261679
0.0371125
0.0576252
0.117427
0.213297
0.30399
0.298351
0.322657
0.454814
0.611734
0.717748
0.767647
0.515865
0.475711
0.212702
0.363402
-0.283531
-0.369557
-0.366838
-0.200724
-0.334605
0.00813059
0.0091231
0.0100847
0.0143992
0.0329999
0.066465
0.124628
0.147816
0.155481
0.173066
0.260914
0.207115
0.211322
0.233227
0.0557894
-0.0400604
-0.074189
-0.0907007
-0.134481
-0.0341485
0.0914812
0.154752
0.174084
0.00120566
0.00101499
0.00188169
0.00197572
0.00921545
0.0198058
0.0422354
0.0512083
0.0548201
0.0640152
0.0921581
0.0519238
0.0375882
0.0169065
-0.0380864
-0.0559976
-0.0609902
-0.0461101
0.00982565
0.0969632
0.158349
0.216713
0.353936
-0.00145451
-0.00219699
-0.00178263
-0.00173642
-0.00139516
2.55961e-06
0.0045255
0.0112385
0.0146634
0.0257155
0.031292
0.00712979
-0.0108537
-0.0248029
-0.0210804
-0.00778644
0.0216763
0.0624508
0.126094
0.211102
0.313434
0.416246
0.550298
-0.00258543
-0.00271041
-0.00251777
-0.00281648
-0.00401231
-0.00566008
-0.0106845
-0.012316
-0.0144814
-0.0119458
-0.0157957
-0.0161538
-0.00997131
-0.0134574
-0.0134295
-0.000643742
0.0258151
0.0844362
0.198583
0.352288
0.542331
0.794297
1.12713
-0.0025187
-0.00216418
-0.00196287
-0.00282766
-0.00845513
-0.0239035
-0.0162954
-0.00317042
-0.0150526
-0.0157814
-0.0263202
-0.0398158
-0.048823
-0.0432602
-0.0171768
0.0337604
0.09366
0.200685
0.377521
0.603161
0.830683
1.0742
1.36787
-0.00234224
-0.00168603
-0.00175293
-0.0034773
0.00545361
0.0800895
0.147117
0.132787
0.0965196
0.0971091
0.171641
0.290889
0.403035
0.496028
0.583049
0.66086
0.753949
0.830612
0.876884
0.934725
1.03259
1.1431
1.34572
-0.00177368
-0.000995563
-0.00107865
-0.00305296
0.00377261
0.0779818
0.149331
0.156958
0.159288
0.15758
0.14909
0.154887
0.0973984
0.0469689
0.0155663
0.0270944
0.0234824
-0.0170535
-0.0374558
-0.0487898
-0.0765056
-0.118749
-0.0889836
-0.00111147
-0.000476182
-0.000366029
-0.00193674
-0.00413628
0.0105957
0.0728447
0.118192
0.123089
0.122352
0.123524
0.0597507
0.00702772
-0.0153827
-0.0211958
-0.0269349
-0.0312744
-0.032683
-0.0344978
-0.0363547
-0.042166
-0.0126607
0.171896
-0.000595857
-0.000165518
-4.64719e-05
-0.000369892
-0.00217444
-0.00815692
0.00212339
0.0260298
0.0495142
0.0118932
0.0620804
0.0290515
0.00800582
-0.00113392
-0.00205181
-0.00233608
-0.00370538
-0.00446333
-0.00593474
-0.00801602
-0.0124508
0.021193
0.174158
-0.000277948
-6.12011e-05
2.11269e-05
4.48395e-05
-0.000326182
-0.00221179
-0.00327785
-0.0025304
0.00372446
-0.00798497
0.00350019
0.00250903
0.000368419
-0.00112198
-0.000774844
-0.00036673
-1.81281e-05
0.000210935
0.000385993
9.96845e-06
-0.00447148
-0.0136473
0.00570177
-8.40606e-05
-5.18839e-06
2.57372e-05
5.82489e-05
3.69697e-05
-0.000430693
-0.00173879
-0.00239055
-0.00214062
-0.00317292
-0.00187813
-0.00181099
-0.0019713
-0.001407
-0.00082959
-0.000253455
-2.29013e-05
8.81355e-05
0.000194872
0.000351632
0.000238294
-0.00354964
-0.0073899
-1.62371e-05
9.43808e-06
1.52118e-05
2.39203e-05
5.38417e-05
1.14773e-05
-0.000436155
-0.000896461
-0.000807827
-0.000702361
-0.000948737
-0.00110627
-0.00100053
-0.000719311
-0.00017497
-4.79778e-06
1.86068e-05
1.86457e-05
2.7698e-05
6.3777e-05
0.00020349
-2.37231e-05
-0.00129714
5.79337e-07
5.79614e-06
6.32e-06
1.01464e-05
2.61359e-05
4.01123e-05
-1.24442e-05
-0.000235892
-0.00014593
-3.91058e-05
-0.000253093
-0.000383195
-0.000306649
-0.000173372
-1.04801e-05
1.55294e-05
1.16216e-05
4.92484e-06
-8.7383e-07
-4.5747e-06
1.70425e-05
9.95075e-05
8.4101e-05
2.15523e-06
2.65015e-06
2.75835e-07
1.89482e-06
1.25852e-05
1.81713e-05
1.79716e-05
2.79165e-05
-9.03069e-06
2.6918e-05
9.76785e-06
-9.15168e-05
-3.09803e-05
-6.67911e-07
1.97503e-05
9.10012e-06
3.17233e-06
9.50083e-07
-8.89175e-07
-2.43072e-06
-4.36752e-06
5.33937e-06
3.82673e-05
1.1127e-06
5.38796e-07
-4.92758e-07
-5.04711e-07
3.42699e-06
5.86839e-06
9.85841e-06
1.19196e-05
1.15484e-05
1.24528e-05
6.26507e-06
-1.45117e-06
-1.66578e-06
4.1322e-06
5.3175e-06
1.68514e-06
4.24667e-07
-1.62942e-07
-2.14617e-07
-2.62952e-07
-9.72859e-07
-2.06099e-06
1.06715e-06
1.88685e-07
-1.00151e-07
-2.61746e-07
-4.81568e-07
3.33198e-07
4.87203e-07
4.47217e-06
4.1608e-06
4.36976e-06
4.20145e-06
4.10003e-06
-3.60432e-07
2.21804e-06
2.56251e-06
1.29851e-06
3.50759e-07
-7.84843e-08
-1.05675e-07
-2.71463e-08
3.37698e-08
1.81353e-08
-4.06077e-07
-1.22573e-06
-3.65002e-08
-7.38136e-08
-9.72289e-08
-1.59947e-07
-1.33979e-07
-3.18111e-07
3.37537e-07
7.96973e-07
1.03787e-06
1.19682e-06
7.41859e-07
8.88661e-07
9.57695e-07
8.00678e-07
3.23311e-07
-7.26215e-08
-7.65527e-08
-2.49307e-08
1.3473e-09
1.49522e-08
2.70876e-08
1.91607e-08
-1.96881e-07
-3.85679e-08
-2.17637e-08
-1.93688e-08
-4.21571e-08
-8.41638e-08
-1.43311e-07
-1.38459e-07
-1.57819e-07
8.33752e-08
-1.68471e-08
-2.02497e-08
2.15159e-07
2.72535e-07
2.54167e-07
6.31092e-08
-3.59917e-08
-1.76225e-08
-3.60394e-09
1.23917e-09
-2.80553e-10
2.41311e-09
1.60178e-08
2.47026e-08
-1.87186e-08
-2.50658e-09
4.9183e-09
-1.72652e-10
-2.77e-08
-3.17699e-08
-4.21631e-08
-6.6721e-08
-5.80472e-08
-7.58036e-08
-5.53198e-08
2.79763e-08
3.82177e-08
2.86962e-08
-1.5802e-08
-1.4912e-08
-2.32113e-09
1.03794e-09
1.83139e-10
-2.32203e-09
-2.83848e-09
3.14605e-09
2.99759e-08
-3.89221e-09
7.02139e-10
2.75472e-09
3.66864e-09
-3.64696e-09
-1.47889e-09
-5.70551e-09
-1.16819e-08
-2.28785e-08
-2.23964e-08
-2.09157e-08
-1.03272e-08
-6.47179e-10
-6.98295e-09
-9.87901e-09
-3.96284e-09
-7.68746e-12
5.70733e-10
-3.34569e-10
-2.57447e-09
-3.92796e-09
-2.48502e-09
1.71532e-08
-3.59607e-10
3.74913e-10
6.91295e-10
1.17285e-09
1.08184e-09
1.4768e-09
8.68725e-10
2.164e-10
-3.1581e-09
-2.55584e-09
-5.41353e-09
-3.31696e-09
-3.13959e-09
-3.978e-09
-2.30293e-09
-7.8764e-10
4.48448e-10
1.90287e-10
-5.60735e-11
-1.40561e-09
-3.9907e-09
-4.80915e-09
3.12765e-09
3.82743e-11
8.42183e-11
7.31328e-11
2.04853e-10
3.40717e-10
4.93843e-10
5.41304e-10
7.16383e-10
5.82483e-10
1.01554e-09
-1.31111e-10
-3.76451e-11
-7.8528e-10
-9.55871e-10
-4.62744e-10
1.14498e-10
2.15001e-10
1.36569e-10
-1.33774e-11
-1.00491e-09
-2.81224e-09
-3.83146e-09
9.70334e-10
1.97707e-11
7.35624e-12
-2.67802e-11
-2.48166e-11
2.66949e-11
6.79407e-11
9.55281e-11
1.47762e-10
2.11461e-10
3.0185e-10
1.80887e-10
1.63762e-10
1.40376e-11
-3.58652e-11
8.7291e-12
1.37038e-10
1.09368e-10
3.75825e-11
-5.60164e-10
-2.21726e-09
-2.78459e-09
-8.83387e-10
8.37433e-09
3.16021e-12
-2.06113e-12
-1.0214e-11
-1.56483e-11
-1.50173e-11
-1.28719e-11
-6.27155e-12
5.42913e-12
1.14482e-11
2.9525e-11
5.03654e-11
4.58567e-11
3.5215e-11
3.30115e-11
3.01032e-11
8.02761e-11
1.33298e-10
7.30716e-11
-1.38944e-09
-3.13157e-09
-4.85154e-09
-1.29492e-10
3.00033e-08
4.05929e-13
-3.05673e-13
-1.07506e-12
-2.35792e-12
-3.71699e-12
-5.27695e-12
-5.55236e-12
-6.59798e-12
-7.0946e-12
-7.64308e-12
7.42333e-12
1.27368e-12
1.10575e-12
5.27233e-12
3.11763e-11
1.00298e-10
1.81895e-10
-2.37037e-10
-3.78129e-09
-4.9038e-09
-2.53696e-09
1.82066e-08
7.83512e-08
2.01228e-13
3.48433e-13
4.7403e-13
4.05268e-13
7.11936e-14
-3.01232e-13
-6.0782e-13
-9.00531e-13
-1.28679e-12
-2.22575e-12
-9.21623e-13
-3.42143e-12
-4.59613e-12
8.71325e-13
6.53186e-11
1.76252e-10
3.64025e-10
-4.96442e-10
-7.07914e-09
-9.97862e-09
-1.13268e-08
2.45768e-08
1.19308e-07
1.19455e-13
1.77175e-13
3.23342e-13
2.92719e-13
3.00187e-13
2.60612e-13
3.11905e-13
2.99748e-13
3.31402e-13
1.77297e-13
-3.99214e-13
-3.0661e-12
-6.35452e-12
-7.13072e-13
1.20925e-10
2.58441e-10
3.02213e-10
-2.05321e-09
-1.03556e-08
-1.56268e-08
1.4178e-08
8.66641e-08
1.60932e-07
7.71351e-14
1.18934e-13
2.05783e-13
2.28579e-13
1.56515e-13
1.05777e-13
1.85984e-13
3.311e-13
3.63407e-13
4.21194e-13
-4.52284e-13
-3.65895e-12
-5.0877e-12
2.51239e-11
2.03826e-10
3.45567e-10
-9.27406e-11
-5.6311e-09
-1.64867e-08
-2.28693e-08
1.02108e-07
2.68236e-07
2.63564e-07
2.02196e-13
2.60714e-13
1.38798e-13
1.22503e-13
1.17689e-13
1.67254e-13
1.14526e-13
2.75885e-13
2.95746e-13
1.99248e-13
-1.30403e-12
-5.22708e-12
-5.11407e-12
5.6789e-11
3.17383e-10
5.72748e-10
-8.15752e-10
-1.17933e-08
-2.03769e-08
-7.98486e-09
2.90266e-07
3.83463e-07
2.03697e-07
7.55425e-14
1.66975e-13
2.12853e-13
1.94174e-13
1.16597e-13
1.63647e-13
1.71133e-13
2.95607e-13
3.53071e-13
1.22592e-13
-2.70234e-12
-7.46472e-12
-2.13171e-12
9.7917e-11
3.95874e-10
5.6867e-10
-3.02022e-09
-1.65741e-08
-2.18161e-08
3.77818e-08
4.40325e-07
6.00416e-07
4.97664e-07
1.06657e-13
2.09695e-13
2.17283e-13
2.15073e-13
1.44713e-13
1.16591e-13
1.61684e-13
4.36431e-13
3.86704e-13
-1.84693e-13
-4.12998e-12
-9.51015e-12
1.43619e-11
2.35646e-10
5.08383e-10
-2.23557e-10
-8.75677e-09
-2.06462e-08
-1.04703e-08
1.74076e-07
6.53668e-07
7.97947e-07
-3.6683e-07
8.22989e-14
1.8e-13
2.21606e-13
9.35203e-14
1.83354e-13
9.12687e-14
1.73911e-13
4.37789e-13
3.88549e-13
-7.21258e-13
-5.91945e-12
-1.00953e-11
3.61875e-11
3.12388e-10
6.6797e-10
-7.43042e-10
-1.42353e-08
-3.34475e-08
1.39061e-08
4.54888e-07
9.48211e-07
3.28182e-07
-2.93497e-06
7.9736e-16
1.35605e-13
2.05446e-13
1.72213e-13
2.00142e-13
1.02126e-13
1.39966e-13
2.61148e-13
3.41213e-13
-1.30281e-12
-6.9497e-12
-3.04908e-12
1.04009e-10
4.1479e-10
3.56043e-10
-3.99966e-09
-2.31277e-08
-3.70764e-08
1.28125e-07
8.89302e-07
1.38521e-06
-1.06266e-06
-7.93079e-06
1.42415e-13
1.52891e-13
2.07885e-13
1.56673e-13
8.33439e-14
1.91917e-13
2.37168e-13
3.33573e-13
2.54202e-13
-1.88747e-12
-7.95358e-12
2.85293e-12
1.69592e-10
4.95133e-10
-6.62856e-10
-1.02277e-08
-2.89684e-08
-8.79604e-09
3.59178e-07
1.33086e-06
2.05071e-06
-2.79682e-06
-2.30666e-05
1.4424e-13
-1.96851e-14
3.04005e-14
7.2199e-14
1.2366e-13
1.0744e-13
2.46624e-13
4.48156e-13
2.31277e-13
-2.53614e-12
-8.47029e-12
1.80183e-11
2.35424e-10
5.1479e-10
-1.81827e-09
-1.49536e-08
-3.16989e-08
4.03204e-08
5.5629e-07
1.74187e-06
2.47141e-06
-2.8021e-06
-3.12519e-05
2.09949e-13
3.89658e-14
5.42001e-14
2.22009e-14
-2.40225e-15
9.27499e-14
2.83111e-13
4.93223e-13
1.28526e-13
-3.47453e-12
-9.59762e-12
2.69137e-11
2.77139e-10
6.07311e-10
-1.72892e-09
-1.65335e-08
-3.46782e-08
4.8484e-08
6.17993e-07
1.92532e-06
2.72142e-06
-2.61373e-06
-3.46227e-05
3.02834
3.31362
0.560061
-5.76511
2.74114
3.53222
2.40282
-3.22688
1.52881
2.6797
3.9543
2.9257
0.716675
0.920301
1.41036
1.74028
-0.15992
-0.56744
-0.390774
0.0689169
-0.423406
-0.643942
-0.473347
-0.371454
0.132934
0.127569
0.218502
0.404274
0.531296
0.672043
0.743541
0.7522
0.703393
0.953044
1.24855
1.5593
1.37068
1.52158
1.6413
1.7925
1.6062
1.75113
1.90985
2.05263
1.59723
1.69732
1.70682
1.69001
0.0730349
0.185509
0.297517
0.385042
0.404961
0.43606
0.41826
0.390103
0.258636
0.233442
0.192263
0.158057
0.0357779
0.0448534
0.0459821
0.0492669
-0.00931357
-0.0107655
-0.00912373
-0.0048918
-0.00243931
-0.00368949
-0.00439268
-0.00485708
7.77125e-07
-0.000206739
-0.000571391
-0.000788863
8.17954e-05
8.95874e-05
3.74333e-05
-5.48027e-05
1.42411e-05
2.30078e-05
2.60735e-05
1.25938e-05
-1.19628e-06
1.55897e-06
5.07913e-06
7.0873e-06
-5.76957e-07
-4.58157e-07
3.87336e-07
1.22874e-06
-4.73874e-08
-1.07639e-07
-8.39126e-08
2.99993e-08
5.38589e-08
7.15173e-08
9.12936e-08
1.07972e-07
4.85737e-08
9.13304e-08
1.42715e-07
1.7653e-07
1.79681e-08
5.27357e-08
1.07583e-07
1.5774e-07
1.12949e-08
4.02391e-08
8.55331e-08
1.37495e-07
2.02718e-08
4.90084e-08
9.92075e-08
1.73761e-07
5.82602e-08
1.05707e-07
1.80665e-07
2.9574e-07
1.52647e-07
2.74239e-07
4.48372e-07
6.17247e-07
2.03608e-07
3.52988e-07
5.97977e-07
8.32738e-07
3.05971e-07
6.04871e-07
9.55761e-07
1.22126e-06
5.61441e-07
9.93347e-07
1.58853e-06
1.30982e-06
4.1464e-07
1.97378e-07
4.33146e-07
-1.61326e-06
-5.24432e-07
-1.97685e-06
-5.0767e-06
-1.48307e-05
-7.34556e-06
-1.69023e-05
-2.5435e-05
-4.12403e-05
-1.69403e-05
-3.89496e-05
-5.93965e-05
-7.655e-05
-2.81051e-05
-5.82446e-05
-0.000103474
-0.000128515
-6.19542e-05
-9.57666e-05
-0.000135438
-0.000167652
-8.0026e-05
-0.000125349
-0.00016391
-0.00019134
-8.19778e-05
-0.000132011
-0.000174385
-0.000197347
-1.49871
0.232222
-1.29435
-1.59016
-1.06961
-0.539691
-0.956691
0.124244
1.94801
2.58095
3.27671
2.60712
2.26007
1.0107
0.708806
1.22857
0.625776
1.85906
1.61717
-5.63575
-2.12139
0.1468
1.44086
1.35379
0.0736612
0.255297
-2.19729
-0.654265
2.74549
3.03149
2.75097
2.43564
1.28884
0.813325
1.37194
1.52076
2.12713
1.4268
-3.43761
-1.33648
1.84796
1.10207
0.419067
0.0878779
0.27112
-1.27662
-0.726981
0.692821
1.53267
2.4477
2.21477
1.30545
0.834681
0.93481
0.743297
0.560961
0.974326
1.66482
1.44229
1.46005
-0.502247
-0.742301
-1.17677
-0.684369
-1.93163
0.911903
-0.541586
0.0911393
1.26009
1.85478
1.01188
0.884915
1.53307
2.06809
2.53136
0.477277
1.44182
-1.25315
0.484319
-0.595578
-1.38688
-1.34846
-1.47122
0.0158283
2.83334
-0.0619642
-0.828702
0.817612
1.605
0.817887
1.05162
1.15728
2.09923
1.93596
-0.238836
2.49316
-0.913368
1.05829
-0.666163
-0.0510453
-0.0966806
-1.35038
0.106363
1.19346
-1.68408
-0.807127
0.513029
1.21603
0.810532
0.792015
-0.0606614
0.548989
0.0745925
-0.494651
0.29874
0.479681
0.617579
0.587658
1.64603
1.46458
0.733927
-0.867384
3.18287
2.50608
-1.54158
-0.157847
0.482489
0.436183
0.158543
-0.0301183
2.65538
1.60381
-1.00888
0.644053
0.799066
0.825795
1.20043
2.03636
2.27553
1.58756
0.294954
0.324505
3.32827
-1.02416
-0.442394
0.126872
0.155307
-0.277065
0.551704
1.59934
0.627467
-1.58591
1.95223
2.58077
2.9411
2.9418
2.5267
2.66159
2.34129
1.3554
0.522006
3.22944
1.92975
-0.292261
-0.354241
0.811811
0.609371
2.81712
1.36827
-0.606226
-1.40714
2.12871
2.52554
3.36731
4.00863
3.96072
3.7169
3.21936
2.45692
1.18848
1.94373
3.48681
2.14604
0.45978
4.10558
3.17874
1.92209
0.345652
-0.350138
-1.46975
2.21998
2.36732
2.31449
2.43077
2.34217
2.51659
2.51155
2.45564
1.949
1.24747
2.21196
2.57425
2.18974
2.81761
1.57658
0.315271
-0.565335
-0.80001
-1.49281
1.77148
1.82131
1.82118
2.23449
2.35709
3.24037
3.54346
3.95487
3.76532
3.2908
2.8086
2.42244
2.1228
1.69585
0.479096
0.628824
-0.178221
-1.10919
-1.47562
0.465777
0.481638
0.533168
0.571028
0.292958
0.256114
0.536499
1.24277
1.90959
2.82528
3.08928
3.87441
3.19764
2.79734
2.82227
0.812117
0.323267
-0.480916
-1.36309
0.342009
0.284221
0.334611
0.356102
0.351814
0.521044
0.619484
0.810633
0.855018
0.99066
0.951818
2.00958
1.78298
2.42429
2.16895
0.164853
1.21007
0.305332
-0.699018
0.140398
0.134178
0.180372
0.220711
0.261933
0.350165
0.42885
0.682051
0.819695
0.989765
1.16192
1.68392
2.17845
2.1689
2.32637
1.27386
2.27235
0.558141
0.491646
0.0464126
0.0503132
0.049639
0.104723
0.123045
0.1059
0.130116
0.176148
0.237628
0.337315
0.612634
1.03535
1.1949
0.919158
1.79624
1.23274
2.29441
1.31813
1.31434
0.00651204
0.0140112
0.0113353
0.0504099
0.0797832
0.0411484
0.0582543
0.068174
0.109082
0.198018
0.411102
0.590523
0.490677
0.703641
1.20239
1.57552
2.44722
2.09156
1.73989
-0.00251847
-3.68756e-05
-0.00266066
-0.00063581
0.0484719
0.0196056
0.0143584
0.00992425
0.0259954
0.0803847
0.191933
0.273815
0.314455
0.468222
0.737702
1.35664
2.37062
2.79405
2.12342
-0.00078588
-0.000576301
-0.00184379
-0.00351572
0.0189569
0.00764874
0.00481918
0.0108585
0.0394968
0.0705018
0.0949555
0.177228
0.264945
0.365617
0.554459
1.15822
2.345
2.92319
2.53637
-0.000115425
-0.000180305
-0.000578042
-0.00153925
0.00278132
0.00173543
0.00143288
6.95707e-05
0.00255403
0.0163918
0.0414427
0.0859245
0.15743
0.223087
0.326098
0.755222
2.01555
2.91424
2.94833
-5.4147e-06
-5.44678e-05
-0.000124115
-0.000405783
-0.000656128
-8.56722e-05
0.000436391
-0.000140771
-0.00111804
0.000824639
0.0260105
0.0466327
0.095252
0.121513
0.156372
0.405125
1.38145
2.63453
3.28016
6.84967e-06
-3.10514e-06
-1.34288e-05
-9.16772e-05
-0.000173529
-0.000131643
-7.51521e-05
-0.000143841
-0.000706767
-0.00126934
0.00395365
0.0194367
0.0388834
0.0540535
0.0779368
0.253412
1.06825
2.44025
3.50638
2.01978e-06
3.98658e-06
4.48077e-06
-9.91042e-06
-2.68786e-05
-3.33888e-05
-3.63617e-05
-6.46711e-05
-0.000237277
-0.000628136
0.00134348
-0.000287785
0.00593675
0.0253329
0.0454474
0.155822
0.780888
2.12182
3.6134
2.4208e-07
6.71251e-07
1.77956e-06
1.51405e-06
-1.92853e-06
-2.47855e-06
-1.02158e-06
1.43029e-05
-8.44703e-06
-0.000125916
-0.000117122
-0.000609669
0.0036619
0.0144791
0.0216543
0.0947029
0.612545
1.89474
3.61906
9.42305e-08
1.05615e-07
1.52125e-07
4.13449e-08
-4.39332e-07
1.19859e-07
3.51093e-06
1.87284e-05
4.96803e-05
2.1276e-05
-0.000173504
0.000210501
0.00635141
0.0118188
0.0165115
0.0857884
0.541115
1.74765
3.55591
1.39221e-07
-3.74824e-08
-3.46033e-07
-1.11487e-06
-2.2026e-06
-5.80931e-06
-6.75888e-06
-1.77648e-06
2.84091e-05
6.59446e-05
5.03101e-05
5.45099e-05
0.000522211
0.00294396
0.014823
0.0795203
0.491697
1.62642
3.46348
1.44781e-07
6.72107e-08
-2.39362e-07
-1.33735e-06
-4.12143e-06
-1.22218e-05
-2.71913e-05
-2.19478e-05
2.21975e-06
5.64605e-05
8.42566e-05
3.23653e-05
0.000392836
0.00450342
0.0113344
0.0564137
0.468987
1.52747
3.35058
2.22038e-07
2.15746e-07
4.53925e-08
-1.82626e-06
-9.96497e-06
-2.46212e-05
-5.24398e-05
-5.18475e-05
-2.89446e-05
3.55395e-05
5.86109e-05
6.3091e-05
0.000613754
0.00615068
0.0306858
0.124219
0.43283
1.38241
3.23749
3.85626e-07
4.06795e-07
4.50837e-07
-1.92757e-07
-2.74908e-06
-1.26153e-05
-4.69515e-05
-6.20847e-05
-6.27277e-05
-4.28199e-05
5.47584e-05
0.000593001
0.00168329
0.00335021
0.0198786
0.134538
0.406414
1.27059
3.13228
5.02491e-07
5.75024e-07
6.63023e-07
2.8045e-07
-1.44666e-06
-1.04001e-05
-4.47403e-05
-4.71327e-05
-2.87318e-05
7.55097e-05
0.000416753
0.0018044
0.00357106
0.0105844
0.0636932
0.158116
0.30794
1.12217
3.04124
6.96299e-07
5.60257e-07
-2.82965e-07
-1.55455e-06
-5.28551e-06
-1.95766e-05
-5.51201e-05
-5.76232e-05
-5.74719e-05
-2.71963e-05
0.000133312
0.000619794
0.00166196
0.00564387
0.0293127
0.0724705
0.238139
0.965736
2.96558
1.04976e-06
6.48787e-07
-1.5747e-06
-5.75201e-06
-1.27227e-05
-2.12973e-05
-4.33917e-05
-7.38533e-05
-7.54543e-05
-2.85913e-05
0.000215408
0.000560917
0.000787156
0.00287757
0.027461
0.083369
0.254457
0.758311
2.74356
-1.51857e-08
-2.52955e-06
-9.76055e-06
-1.93186e-05
-3.66796e-05
-4.82413e-05
-6.11992e-05
-7.93117e-05
-7.483e-05
-2.82791e-05
0.000140671
0.000444739
0.000774206
0.00475206
0.0263339
0.0511575
0.172734
0.677073
2.56022
-4.42614e-06
-1.32487e-05
-3.41372e-05
-5.69365e-05
-9.43383e-05
-0.000102828
-9.76917e-05
-9.88541e-05
-0.000101292
-8.58706e-05
6.00886e-05
0.000467544
0.00117912
0.00411415
0.0157922
0.0265131
0.0940372
0.647223
2.42857
-8.78517e-06
-3.84595e-05
-7.30351e-05
-9.83799e-05
-0.000110346
-0.000126981
-0.000129025
-0.00012413
-0.000119608
-0.000111521
-6.35319e-05
6.3033e-05
0.000647257
0.00363687
0.0140353
0.0290981
0.0749023
0.536594
2.433
-3.59473e-05
-0.000102616
-0.000111009
-0.00012705
-0.000119898
-0.00012274
-9.44474e-05
-0.000125223
-0.000117661
-0.000105597
-0.000106131
-5.48286e-05
3.49865e-05
2.18622e-05
0.00357135
0.0218999
0.217419
0.953102
2.37429
-7.78896e-05
-0.000129574
-0.000131697
-0.000109637
-5.91155e-05
-4.66626e-05
3.7795e-05
-1.26029e-05
-3.33261e-05
-8.28747e-05
-5.53674e-05
-7.25268e-05
2.74058e-05
0.00103734
0.00172729
0.00830575
0.243666
1.12327
2.41247
-0.00013351
-0.00013983
-0.000105873
2.66954e-05
0.00020715
0.000362914
0.000534908
0.000464787
0.000289496
5.36666e-05
-3.02879e-05
-3.13418e-06
9.80203e-05
0.00142246
0.00161138
-0.00523879
0.0333222
0.589427
2.30362
-0.000174486
-0.000147637
4.49522e-06
0.000429598
0.00079566
0.00171004
0.00181994
0.00150336
0.000772415
0.000390134
0.000206583
0.000128657
-2.11596e-05
0.0006105
0.00383817
0.0137478
0.0138963
0.196155
1.74598
-0.000180813
-0.000137886
0.000102208
0.000922831
0.00155396
0.00247755
0.00359842
0.00290221
0.00212822
0.0011473
0.000763441
0.000207855
0.000268629
0.000495097
0.000658129
0.000881437
-0.0221766
0.0612671
1.58297
-0.000190827
-9.80362e-05
0.000376637
0.00114163
0.00205737
0.00288304
0.0040591
0.00370869
0.00242139
0.00182011
0.00134811
0.000687755
0.000488237
0.00066128
0.00166835
0.003919
-0.0189562
-0.132407
0.991021
-0.000196514
-0.000107836
0.000552228
0.00132423
0.00231026
0.00321062
0.00425176
0.00426101
0.00353494
0.00320677
0.00272966
0.00260255
0.00183535
0.00159459
0.00166125
0.0032764
-0.00355173
-0.0818367
0.147828
)
;

boundaryField
{
    leftWall
    {
        type            zeroGradient;
    }
    rightWall
    {
        type            zeroGradient;
    }
    lowerWall
    {
        type            zeroGradient;
    }
    atmosphere
    {
        type            zeroGradient;
    }
    defaultFaces
    {
        type            empty;
    }
}


// ************************************************************************* //
