/*--------------------------------*- C++ -*----------------------------------*\
| =========                 |                                                 |
| \\      /  F ield         | foam-extend: Open Source CFD                    |
|  \\    /   O peration     | Version:     4.1                                |
|   \\  /    A nd           | Web:         http://www.foam-extend.org         |
|    \\/     M anipulation  |                                                 |
\*---------------------------------------------------------------------------*/
FoamFile
{
    version     2.0;
    format      ascii;
    class       volVectorField;
    location    "0.55";
    object      U;
}
// * * * * * * * * * * * * * * * * * * * * * * * * * * * * * * * * * * * * * //

dimensions      [0 1 -1 0 0 0 0];

internalField   nonuniform List<vector> 
2268
(
(0.0435344 -0.00563359 0)
(0.0472774 -0.00320637 0)
(0.0980627 -0.00369945 0)
(0.114473 -0.0047806 0)
(0.159477 -0.000707028 0)
(0.171377 -0.00320391 0)
(0.184498 0.000668311 0)
(0.17763 0.0028553 0)
(0.167913 0.00357161 0)
(0.12511 0.0139423 0)
(0.0738385 -0.0241154 0)
(0.0784603 -0.012325 0)
(0.085346 -0.0136069 0)
(0.0864359 -0.00987757 0)
(0.0864076 -0.00954881 0)
(0.0758786 -0.00947468 0)
(0.0765471 -0.015989 0)
(0.0726973 -0.00937947 0)
(0.0517409 -0.0173353 0)
(0.0434035 0.00280517 0)
(0.0385188 0.0122189 0)
(0.0163617 0.00470476 0)
(0.032292 -0.00532125 0)
(0.0403785 -0.0156891 0)
(0.0467056 -0.00978757 0)
(0.09998 -0.0119555 0)
(0.117484 -0.00962408 0)
(0.157758 -0.012696 0)
(0.171433 -0.00248255 0)
(0.190729 -0.00199504 0)
(0.183332 0.00376823 0)
(0.176211 0.0109878 0)
(0.148074 0.0104338 0)
(0.103295 -0.00361036 0)
(0.106913 0.00441776 0)
(0.102069 0.00428328 0)
(0.0992252 0.0096817 0)
(0.0981853 0.0142975 0)
(0.0836098 0.0190013 0)
(0.0884927 0.0167054 0)
(0.101947 0.0203551 0)
(0.0844256 0.0302686 0)
(0.0596485 0.00407451 0)
(0.0183732 0.0105068 0)
(0.0178441 0.0289541 0)
(0.0501939 0.0152794 0)
(0.0324755 -0.0260309 0)
(0.0433542 -0.0173279 0)
(0.101908 -0.0201858 0)
(0.124016 -0.0183245 0)
(0.152914 -0.0133392 0)
(0.182328 -0.0109489 0)
(0.194805 -0.00170564 0)
(0.1901 0.0105932 0)
(0.18674 0.0259059 0)
(0.126411 -0.0312519 0)
(0.0926707 -0.00545519 0)
(0.0922891 -0.00521026 0)
(0.0861938 -0.00810793 0)
(0.0753298 -0.00449704 0)
(0.0741589 -0.00173671 0)
(0.0622595 0.00154305 0)
(0.0715796 0.0221343 0)
(0.0777812 0.00776535 0)
(0.0725668 0.0155981 0)
(0.0591548 0.00600841 0)
(0.047897 0.0161981 0)
(0.0140541 0.0158776 0)
(0.0393767 0.0107556 0)
(0.0259444 -0.0334325 0)
(0.0420328 -0.0263686 0)
(0.108242 -0.0307434 0)
(0.127452 -0.0216536 0)
(0.162416 -0.0263211 0)
(0.192051 -0.0118716 0)
(0.189119 -0.0044598 0)
(0.196737 0.00757536 0)
(0.173383 0.0143738 0)
(0.112508 -0.0159195 0)
(0.101797 0.00956366 0)
(0.0644239 0.0115999 0)
(0.0429439 0.0162403 0)
(0.0200842 0.0220057 0)
(0.0228746 0.0199508 0)
(0.0176754 0.00884977 0)
(0.0281788 0.0381868 0)
(0.0245679 0.00445578 0)
(0.0365597 0.0163978 0)
(0.0316951 0.0108338 0)
(0.0314716 0.0329089 0)
(0.0120655 0.0215541 0)
(0.0427953 0.0257882 0)
(0.0253311 -0.0419192 0)
(0.0456471 -0.0368313 0)
(0.112149 -0.0401206 0)
(0.13072 -0.0310252 0)
(0.172663 -0.029021 0)
(0.185608 -0.0174322 0)
(0.183542 -0.00144256 0)
(0.20151 0.0155827 0)
(0.153652 -0.028166 0)
(0.0800989 -0.000158457 0)
(0.0641763 0.0173978 0)
(0.0237247 0.0208575 0)
(0.00586084 0.0306569 0)
(-0.0142047 0.0159534 0)
(-0.0218989 0.0201684 0)
(-0.0304141 0.000575281 0)
(-0.0278205 0.0176738 0)
(-0.0322134 0.00963841 0)
(-0.0305695 0.00944773 0)
(-0.0174778 0.00508696 0)
(0.00714402 0.022955 0)
(-0.00993284 0.0276387 0)
(0.0375072 0.0237549 0)
(0.0316048 -0.0499071 0)
(0.0544013 -0.0470345 0)
(0.117015 -0.0503026 0)
(0.135194 -0.0363145 0)
(0.171663 -0.0390427 0)
(0.184165 -0.0133741 0)
(0.200853 -0.0114575 0)
(0.170098 0.00786658 0)
(0.090574 -0.00720846 0)
(0.0592428 0.0256051 0)
(0.0259747 0.0364297 0)
(-0.0116846 0.0388372 0)
(-0.0241697 0.0522793 0)
(-0.0411011 0.0473709 0)
(-0.0402122 0.0329737 0)
(-0.0553991 0.0113059 0)
(-0.0529047 0.0359957 0)
(-0.0624211 0.000115545 0)
(-0.0681001 0.034598 0)
(-0.0745796 0.00436255 0)
(-0.0235302 0.0266731 0)
(-0.0194029 0.013075 0)
(0.0320208 0.0309927 0)
(0.036049 -0.0623817 0)
(0.0591485 -0.0573446 0)
(0.117638 -0.0590993 0)
(0.13364 -0.0443856 0)
(0.175452 -0.0404726 0)
(0.190325 -0.0253253 0)
(0.174718 0.00594153 0)
(0.120631 -0.0248693 0)
(0.0593472 0.0189159 0)
(0.035136 0.0329107 0)
(0.00297378 0.0491784 0)
(-0.0250779 0.0450883 0)
(-0.0320718 0.0552159 0)
(-0.0498648 0.0344345 0)
(-0.0779487 0.0332709 0)
(-0.0692466 0.00871176 0)
(-0.0758792 0.0252782 0)
(-0.0764757 -0.00854497 0)
(-0.0751617 0.0060212 0)
(-0.0833698 0.000133971 0)
(-0.0485496 0.0168344 0)
(-0.0449091 0.016367 0)
(0.0345682 0.0266126 0)
(0.0367931 -0.0715158 0)
(0.0589313 -0.0658198 0)
(0.119656 -0.0665098 0)
(0.136979 -0.0501937 0)
(0.175507 -0.0529236 0)
(0.195247 -0.0116044 0)
(0.153567 0.0018972 0)
(0.0846321 -0.00304974 0)
(0.0571537 0.0363878 0)
(0.0183419 0.0508479 0)
(-0.0157158 0.0652165 0)
(-0.0439155 0.0559145 0)
(-0.0602946 0.0738629 0)
(-0.0665985 0.0297605 0)
(-0.0772114 0.0501349 0)
(-0.0761007 0.00928153 0)
(-0.0799857 0.00298186 0)
(-0.0888909 -0.00719394 0)
(-0.082449 -0.0136596 0)
(-0.0929247 0.0182327 0)
(-0.0564043 -0.00975573 0)
(-0.0599234 -0.00857798 0)
(0.0264214 0.025118 0)
(-1.79978 0.40359 0)
(-2.09294 0.176082 0)
(-2.12483 -0.0490446 0)
(-2.01173 -0.117141 0)
(-1.88147 -0.100472 0)
(-1.67125 -0.130794 0)
(-1.55258 -0.0481292 0)
(-1.50484 -0.0238127 0)
(-1.72936 0.0687506 0)
(-1.86841 0.00478486 0)
(-1.87685 -0.0346014 0)
(-1.76803 -0.0947644 0)
(-1.71924 -0.0794938 0)
(-1.66198 -0.140534 0)
(-1.71527 -0.195543 0)
(-1.81242 -0.118007 0)
(-1.34823 -0.00533584 0)
(-1.05968 -0.385635 0)
(-0.298184 -0.11654 0)
(-1.596 0.548495 0)
(-1.4749 0.523805 0)
(-0.975524 0.123058 0)
(-1.07562 -0.0956088 0)
(-1.0899 -0.198015 0)
(-0.9217 -0.0718758 0)
(-0.806807 -0.0462936 0)
(-1.12225 0.120282 0)
(-1.33122 0.155561 0)
(-1.42958 0.0766798 0)
(-1.46837 0.0510048 0)
(-1.43456 -0.0168699 0)
(-1.56041 -0.10804 0)
(-1.67436 -0.0708808 0)
(-1.6761 -0.25492 0)
(-1.80993 0.0262345 0)
(-1.57219 0.23479 0)
(-0.891545 -0.445958 0)
(-0.221426 -0.502002 0)
(-1.36464 0.926417 0)
(-0.834321 0.61237 0)
(-0.565519 -0.0478361 0)
(-0.893646 -0.147901 0)
(-0.939505 -0.201911 0)
(-0.687345 0.0816506 0)
(-0.39545 0.0215795 0)
(-0.512979 0.163048 0)
(-0.613297 0.114358 0)
(-0.542877 0.0350002 0)
(-0.587019 0.0274861 0)
(-0.646583 -0.0743384 0)
(-0.951395 -0.377883 0)
(-1.36304 -0.215543 0)
(-1.55116 -0.390504 0)
(-1.67805 -0.143358 0)
(-1.54248 0.0621099 0)
(-0.724724 -0.348297 0)
(-0.0984743 -0.62877 0)
(-1.12593 1.0675 0)
(-0.380694 0.624122 0)
(-0.347344 -0.0215943 0)
(-0.52922 -0.359975 0)
(-0.324543 -0.200933 0)
(-0.179985 -0.335862 0)
(0.199279 -0.137676 0)
(0.347461 0.413256 0)
(0.193564 0.214616 0)
(-0.0546631 0.0506748 0)
(-0.168603 0.111556 0)
(-0.218529 0.171686 0)
(-0.358812 -0.0833752 0)
(-0.597105 -0.1877 0)
(-1.01151 -0.192152 0)
(-1.07738 -0.0606382 0)
(-1.00783 -0.199406 0)
(-0.78023 -0.30619 0)
(0.0545548 -0.88939 0)
(-0.962766 1.16287 0)
(0.0308786 0.693788 0)
(0.0389051 0.0290446 0)
(-0.315457 -0.209009 0)
(0.0662117 -0.424859 0)
(0.178571 -0.527666 0)
(0.401128 -0.459647 0)
(0.595174 0.155899 0)
(0.721465 0.319799 0)
(0.514931 0.225934 0)
(0.0894288 0.0843323 0)
(-0.164802 0.163368 0)
(-0.251311 -0.0116184 0)
(-0.400074 -0.108926 0)
(-0.8011 -0.166735 0)
(-0.94607 0.151787 0)
(-0.740725 -0.246411 0)
(-0.689163 -0.361305 0)
(0.110234 -1.1226 0)
(-0.788585 1.23852 0)
(0.691473 0.975933 0)
(0.348904 0.251754 0)
(-0.0844189 -0.199483 0)
(0.290034 -0.349742 0)
(0.291552 -0.610502 0)
(0.457006 -0.546725 0)
(0.553771 -0.0910916 0)
(0.914092 0.238784 0)
(0.917237 0.332148 0)
(0.560391 0.349397 0)
(-0.199723 0.204542 0)
(-0.348666 0.0163172 0)
(-0.427321 -0.121848 0)
(-0.717991 -0.148542 0)
(-0.83512 0.0295576 0)
(-0.627146 -0.237721 0)
(-0.638503 -0.419928 0)
(0.120357 -1.20485 0)
(-0.712284 1.23296 0)
(0.972684 0.793179 0)
(0.786146 0.209157 0)
(0.207816 -0.189076 0)
(0.349826 -0.325662 0)
(0.337214 -0.594237 0)
(0.55166 -0.425173 0)
(0.607407 -0.142941 0)
(0.851636 0.221515 0)
(1.11872 0.376597 0)
(1.05104 0.591476 0)
(0.463765 0.539766 0)
(-0.315554 0.17162 0)
(-0.118515 0.0185014 0)
(-0.265684 -0.205203 0)
(-0.576287 -0.0153974 0)
(-0.325256 -0.240315 0)
(-0.496004 -0.54029 0)
(0.13191 -1.20492 0)
(-0.538338 1.289 0)
(1.02596 0.530726 0)
(0.587989 0.147679 0)
(0.260406 -0.148775 0)
(0.398629 -0.34003 0)
(0.420052 -0.374945 0)
(0.562521 -0.373163 0)
(0.548428 -0.329946 0)
(0.621057 -0.0167852 0)
(1.19087 0.349168 0)
(1.13723 0.713903 0)
(0.467698 0.682 0)
(-0.177903 0.137376 0)
(-0.00278652 -0.178737 0)
(-0.0964454 -0.145075 0)
(-0.294965 0.0431373 0)
(-0.141336 -0.214985 0)
(-0.342868 -0.560983 0)
(0.151275 -1.17728 0)
(0.0352009 -0.0942518 0)
(0.0521789 -0.0852279 0)
(0.114065 -0.0848983 0)
(0.117623 -0.0640212 0)
(0.174464 -0.0558818 0)
(0.137073 -0.028896 0)
(0.0811887 -0.0327528 0)
(0.0791524 0.0208243 0)
(0.0321388 0.055608 0)
(0.0112236 0.0774949 0)
(-0.0265228 0.0832906 0)
(-0.0310204 0.0752382 0)
(-0.0573527 0.0774462 0)
(-0.0713329 0.047938 0)
(-0.0840882 0.0417705 0)
(-0.0941151 0.0100392 0)
(-0.0874708 0.00126528 0)
(-0.0963061 -0.00928377 0)
(-0.0837631 0.0104577 0)
(-0.0948095 -0.00541431 0)
(-0.0858284 0.0142053 0)
(-0.0316446 -0.0212824 0)
(-0.0278068 0.00417542 0)
(0.0136563 -0.104667 0)
(0.00472408 -0.0979952 0)
(0.0410204 -0.089598 0)
(0.0125912 -0.0752369 0)
(-0.011619 -0.0595 0)
(-0.0520433 -0.0636663 0)
(-0.0441351 0.0654488 0)
(-0.061164 0.0446086 0)
(-0.0384128 0.101612 0)
(-0.0350868 0.0978708 0)
(-0.053356 0.102726 0)
(-0.0602916 0.0678942 0)
(-0.0711107 0.0512589 0)
(-0.0652551 0.0484709 0)
(-0.0682969 0.0276614 0)
(-0.0655151 0.0136115 0)
(-0.0681524 -0.0028239 0)
(-0.0629257 0.00147263 0)
(-0.0714018 -0.0328238 0)
(-0.0700745 -0.0312709 0)
(-0.0835197 -0.0557584 0)
(-0.0220607 -0.0170429 0)
(-0.0804205 0.00454275 0)
(-0.00437817 -0.104145 0)
(-0.0170251 -0.0998674 0)
(-0.0314872 -0.085271 0)
(-0.0475187 -0.0480345 0)
(-0.099255 -0.00310056 0)
(-0.204394 0.00944124 0)
(-0.311778 -0.00213674 0)
(-0.23304 0.0593334 0)
(-0.206379 0.128419 0)
(-0.156708 0.106365 0)
(-0.141201 0.101192 0)
(-0.127012 0.1078 0)
(-0.0904582 0.0699061 0)
(-0.0727367 0.055153 0)
(-0.0777001 0.0370119 0)
(-0.0801306 0.0122444 0)
(-0.0606787 0.000450355 0)
(-0.0833777 -0.0115457 0)
(-0.0762494 -0.0421999 0)
(-0.0629286 -0.0488706 0)
(-0.0659359 -0.0600611 0)
(0.0123851 -0.0204623 0)
(-0.00383828 0.0215205 0)
(-0.0117968 -0.0927597 0)
(-0.0289142 -0.0814448 0)
(-0.0605321 -0.0395753 0)
(-0.0793769 -0.0126047 0)
(-0.211999 -0.0264629 0)
(-0.311332 0.0516456 0)
(-0.405778 0.0969369 0)
(-0.317016 0.122251 0)
(-0.285736 0.056881 0)
(-0.298375 0.0915071 0)
(-0.240326 0.0607844 0)
(-0.285218 0.109361 0)
(-0.223531 0.0818115 0)
(-0.131628 0.0332064 0)
(-0.120699 0.0399105 0)
(-0.11581 -0.00104985 0)
(-0.102643 -0.00819292 0)
(-0.107559 -0.0449465 0)
(-0.090067 -0.0144736 0)
(-0.0714635 -0.0481605 0)
(-0.0577468 -0.0448494 0)
(0.00841043 -0.0447431 0)
(-0.00932837 -0.0186146 0)
(-0.0165943 -0.077407 0)
(-0.0366821 -0.0470439 0)
(-0.097787 -0.0224363 0)
(-0.170198 0.0524449 0)
(-0.32526 0.0413355 0)
(-0.302534 0.14169 0)
(-0.361326 0.145725 0)
(-0.381125 0.18613 0)
(-0.385293 0.0513582 0)
(-0.434707 0.0395109 0)
(-0.415152 -0.04029 0)
(-0.383401 -0.0502631 0)
(-0.345933 0.0559882 0)
(-0.262716 -0.0229663 0)
(-0.298735 0.0109883 0)
(-0.331767 -0.00523422 0)
(-0.238061 -0.0163993 0)
(-0.178352 -0.0280937 0)
(-0.0981034 -0.0529134 0)
(-0.137822 -0.0964434 0)
(-0.0727005 -0.141161 0)
(0.0568903 -0.0751183 0)
(0.0315087 -0.0414025 0)
(-0.0182786 -0.0347596 0)
(-0.096626 -0.00783008 0)
(-0.116117 -0.00901899 0)
(-0.228022 0.112625 0)
(-0.412023 0.150323 0)
(-0.389333 0.241141 0)
(-0.282226 0.148448 0)
(-0.2861 0.171466 0)
(-0.263126 0.110452 0)
(-0.432871 0.0596494 0)
(-0.416658 0.0134509 0)
(-0.321581 -0.0226415 0)
(-0.457298 -0.0360975 0)
(-0.347798 -0.0472428 0)
(-0.227028 -0.14881 0)
(-0.259605 -0.045491 0)
(-0.171493 -0.0670609 0)
(-0.18259 0.012941 0)
(-0.127951 -0.0732305 0)
(-0.200938 -0.152996 0)
(-0.133898 -0.120561 0)
(-0.167266 -0.0866074 0)
(-0.14357 -0.0393326 0)
(-0.0329506 0.0350302 0)
(-0.164003 0.0644361 0)
(-0.177822 0.0834978 0)
(-0.202766 0.121614 0)
(-0.29326 0.260336 0)
(-0.277025 0.305401 0)
(-0.279919 0.250309 0)
(-0.276331 0.160826 0)
(-0.297387 0.0872639 0)
(-0.337152 -0.00136661 0)
(-0.360393 0.159093 0)
(-0.266704 -0.0642484 0)
(-0.279444 -0.151046 0)
(-0.361913 0.033899 0)
(-0.223743 -0.181452 0)
(-0.153901 -0.0892651 0)
(-0.161276 -0.0791343 0)
(-0.403777 -0.0907873 0)
(-0.531424 -0.112234 0)
(-0.55766 -0.114799 0)
(-0.542384 -0.119465 0)
(-0.550455 -0.165112 0)
(-0.560477 -0.103675 0)
(-0.02061 0.0941734 0)
(-0.168665 0.140645 0)
(-0.23158 0.220697 0)
(-0.126709 0.159796 0)
(-0.195782 0.254216 0)
(-0.221314 0.258291 0)
(-0.221532 0.227957 0)
(-0.252755 0.185466 0)
(-0.289817 0.183801 0)
(-0.208548 0.15656 0)
(-0.270367 0.130145 0)
(-0.232836 -0.0724626 0)
(-0.440357 -0.167016 0)
(-0.425715 -0.287818 0)
(-0.453635 -0.0768847 0)
(-0.620577 -0.0432111 0)
(-1.33882 0.0865037 0)
(-1.5994 0.158323 0)
(-1.53121 0.220073 0)
(-0.99951 -0.0641216 0)
(-0.857645 -0.169138 0)
(-0.823826 -0.146581 0)
(-0.862865 -0.0733868 0)
(-0.0188488 0.192788 0)
(-0.115923 0.135891 0)
(-0.234248 0.204696 0)
(-0.159918 0.202639 0)
(-0.0768416 0.18894 0)
(-0.072956 0.244208 0)
(-0.106417 0.203192 0)
(-0.129795 0.218944 0)
(-0.211758 0.293009 0)
(-0.374367 0.282669 0)
(-0.510841 0.0985224 0)
(-0.627064 0.0282598 0)
(-1.06358 -0.027345 0)
(-1.38663 0.274304 0)
(-1.61855 0.273127 0)
(-1.6245 0.325451 0)
(-1.48947 0.114964 0)
(-1.37117 0.0102609 0)
(-1.27639 -0.143839 0)
(-1.24417 -0.194704 0)
(-1.21771 -0.235138 0)
(-1.21588 -0.208752 0)
(-1.49785 -0.193533 0)
(-0.0836454 0.240165 0)
(-0.136416 0.162284 0)
(-0.207675 0.164112 0)
(-0.154882 0.197052 0)
(-0.129952 0.18332 0)
(-0.120852 0.259477 0)
(-0.0327837 0.344679 0)
(0.043104 0.644759 0)
(-0.108825 0.759215 0)
(-0.520082 0.807866 0)
(-0.773451 0.676089 0)
(-0.961911 0.648858 0)
(-1.15084 0.483728 0)
(-1.19721 0.471375 0)
(-1.11932 0.131006 0)
(-0.993816 -0.0299694 0)
(-1.04379 -0.253218 0)
(-1.11777 -0.319494 0)
(-1.13227 -0.302116 0)
(-1.11846 -0.240747 0)
(-1.09698 -0.207002 0)
(-1.1576 -0.186914 0)
(-1.2276 -0.228471 0)
(-0.122993 0.308432 0)
(-0.15665 0.222191 0)
(-0.195077 0.190675 0)
(-0.1646 0.0777413 0)
(-0.047503 -0.0818374 0)
(0.0785265 0.112341 0)
(0.0137385 -0.331643 0)
(-0.141782 -0.0252343 0)
(-0.0588914 0.517224 0)
(-0.280929 0.569142 0)
(-0.361698 0.527602 0)
(-0.351269 0.492474 0)
(-0.356904 0.441193 0)
(-0.340883 0.427557 0)
(-0.384091 0.36089 0)
(-0.468012 0.346664 0)
(-0.611115 0.340054 0)
(-0.753655 0.297587 0)
(-0.862224 0.189454 0)
(-0.944991 0.00498631 0)
(-1.04253 -0.146649 0)
(-1.12696 -0.239576 0)
(-1.15134 -0.263791 0)
(-0.14725 0.398074 0)
(-0.185047 0.360744 0)
(-0.360186 0.261595 0)
(-0.57047 0.158466 0)
(-0.909238 0.0513988 0)
(-1.81588 0.276642 0)
(-2.5043 0.538159 0)
(-2.39688 0.663031 0)
(-2.16532 0.756723 0)
(-2.25243 0.811499 0)
(-2.30022 0.703496 0)
(-2.31849 0.443479 0)
(-2.32215 0.210153 0)
(-2.1898 0.0945114 0)
(-2.06404 0.0161786 0)
(-1.96904 -0.0238689 0)
(-1.85217 -0.0752331 0)
(-1.72149 -0.150403 0)
(-1.59941 -0.211459 0)
(-1.47189 -0.281635 0)
(-1.38347 -0.36587 0)
(-1.3141 -0.420015 0)
(-1.27211 -0.428746 0)
(-0.128718 0.509501 0)
(-0.203149 0.541516 0)
(-0.415151 0.523944 0)
(-0.687006 0.644181 0)
(-1.33167 0.687088 0)
(-2.08231 0.632075 0)
(-2.5251 0.654949 0)
(-2.55378 0.599688 0)
(-2.35418 0.637392 0)
(-2.22906 0.811961 0)
(-2.1271 0.787853 0)
(-1.97336 0.602537 0)
(-1.69831 0.355379 0)
(-1.22245 0.182949 0)
(-0.804874 0.120538 0)
(-0.554951 0.146026 0)
(-0.40485 0.131757 0)
(-0.130249 0.0438023 0)
(-0.0943581 -0.0903365 0)
(-0.059339 -0.0990617 0)
(-0.0381127 -0.112957 0)
(-0.0386956 -0.156675 0)
(-0.137975 -0.212939 0)
(-0.0882668 0.694275 0)
(-0.112336 0.665822 0)
(-0.260071 0.723269 0)
(-0.378134 1.01929 0)
(-0.690776 1.21099 0)
(-1.02267 1.02431 0)
(-1.6251 0.751836 0)
(-2.04475 0.670949 0)
(-1.917 0.537083 0)
(-1.58923 0.56325 0)
(-1.4778 0.424502 0)
(-1.11963 0.204942 0)
(-0.883929 -0.422161 0)
(-0.550547 -0.627425 0)
(-0.455071 -0.553788 0)
(-0.321493 -0.379973 0)
(-0.10612 -0.392579 0)
(-0.126662 -0.359374 0)
(-0.116728 -0.308634 0)
(-0.183618 -0.306182 0)
(-0.264528 -0.317736 0)
(-0.489422 -0.295661 0)
(-0.75589 -0.218712 0)
(-0.0527375 0.73461 0)
(-0.0678312 0.716997 0)
(-0.0852477 0.792989 0)
(-0.0586117 0.900029 0)
(0.131549 1.26041 0)
(0.295065 1.56454 0)
(-0.316869 1.30698 0)
(-0.684349 0.886373 0)
(-0.847247 0.986208 0)
(-0.134851 0.629301 0)
(-0.523849 0.55108 0)
(-0.0871265 0.0281798 0)
(-0.0519823 -0.364164 0)
(0.0195378 -0.511494 0)
(-0.0380762 -0.454753 0)
(-0.0428201 -0.389712 0)
(0.00635693 -0.465767 0)
(-0.0430671 -0.393777 0)
(-0.0939978 -0.348004 0)
(-0.155192 -0.222152 0)
(-0.163794 -0.00217264 0)
(-0.40696 0.175171 0)
(-0.643194 0.0383046 0)
(-0.0138241 0.815117 0)
(0.0225835 0.765152 0)
(-0.100126 0.865632 0)
(0.0691308 0.910158 0)
(0.391728 1.07292 0)
(0.550982 1.16182 0)
(0.508195 1.28387 0)
(0.513421 0.945856 0)
(0.39441 0.77702 0)
(0.800986 0.303079 0)
(0.694473 0.353188 0)
(0.768614 0.089384 0)
(0.671806 -0.346303 0)
(0.405192 -0.576838 0)
(0.258163 -0.485567 0)
(0.19443 -0.397909 0)
(0.185983 -0.328215 0)
(0.104022 -0.246435 0)
(0.0642656 -0.180151 0)
(0.0497133 -0.0385343 0)
(0.0128497 0.155635 0)
(0.173155 0.257803 0)
(0.0177763 0.183989 0)
(-0.0228681 0.82816 0)
(0.0444506 0.773646 0)
(0.0198908 0.788608 0)
(0.199526 1.04308 0)
(0.320248 1.0229 0)
(0.48921 0.987602 0)
(0.579292 1.02173 0)
(0.804882 0.912635 0)
(0.841425 0.596088 0)
(1.22084 0.341647 0)
(1.18636 0.277255 0)
(0.976075 0.179948 0)
(0.844169 -0.146695 0)
(0.584288 -0.284066 0)
(0.399323 -0.287907 0)
(0.255298 -0.229776 0)
(0.25458 -0.227039 0)
(0.178552 -0.192999 0)
(0.193863 -0.178188 0)
(0.249932 -0.104827 0)
(0.219742 -0.0113477 0)
(0.412494 0.258369 0)
(0.442322 0.178661 0)
(0.00454116 0.791777 0)
(-0.0118758 0.780137 0)
(0.0525646 0.822278 0)
(0.324447 0.965914 0)
(0.3526 0.89866 0)
(0.433182 0.91822 0)
(0.536034 0.788124 0)
(0.682332 0.834004 0)
(0.868084 0.66074 0)
(1.17959 0.523555 0)
(1.13422 0.237364 0)
(0.885849 0.0609089 0)
(0.564886 0.0264144 0)
(0.547564 -0.0437454 0)
(0.388599 -0.157072 0)
(0.250018 -0.139722 0)
(0.257995 -0.113334 0)
(0.226152 -0.0987411 0)
(0.250305 -0.0941033 0)
(0.306869 -0.0707644 0)
(0.391629 -0.045202 0)
(0.420182 0.0690378 0)
(0.442879 0.030239 0)
(0.0426079 0.790257 0)
(0.0838932 0.751098 0)
(0.200473 0.853769 0)
(0.243163 0.880149 0)
(0.222769 0.785567 0)
(0.327261 0.727509 0)
(0.507939 0.766666 0)
(0.69404 0.792781 0)
(0.842728 0.760297 0)
(0.926278 0.499934 0)
(0.801152 0.232099 0)
(0.663069 0.0697199 0)
(0.625127 0.0301907 0)
(0.480644 0.0411501 0)
(0.423411 0.0433043 0)
(0.357233 -0.0329047 0)
(0.339247 -0.0420779 0)
(0.267883 -0.0563189 0)
(0.276728 -0.071921 0)
(0.331216 -0.0798706 0)
(0.305837 -0.0698833 0)
(0.392019 -0.132421 0)
(0.436574 -0.00473505 0)
(0.0263209 0.717864 0)
(0.0730586 0.643393 0)
(0.132902 0.810299 0)
(0.179783 0.55659 0)
(0.213643 0.664822 0)
(0.397664 0.699874 0)
(0.543925 0.752101 0)
(0.691221 0.68714 0)
(0.772727 0.568148 0)
(0.622955 0.398227 0)
(0.614823 0.234469 0)
(0.56498 0.174904 0)
(0.509118 0.175967 0)
(0.58536 0.107018 0)
(0.413597 -0.0539348 0)
(0.264529 0.0353418 0)
(0.315524 -0.0273239 0)
(0.293201 -0.0572555 0)
(0.325343 -0.125492 0)
(0.341309 -0.0798846 0)
(0.28095 -0.0950227 0)
(0.422043 -0.120828 0)
(0.454752 -0.0209712 0)
(0.0502281 0.764943 0)
(0.219346 0.577238 0)
(0.0686203 0.665846 0)
(0.0895141 0.615602 0)
(0.284085 0.710164 0)
(0.376975 0.706018 0)
(0.461975 0.617746 0)
(0.507171 0.511987 0)
(0.621217 0.413777 0)
(0.744387 0.265503 0)
(0.595272 0.212782 0)
(0.543073 0.216354 0)
(0.512318 0.292988 0)
(0.375767 0.168821 0)
(0.44841 -0.0165019 0)
(0.420551 -0.0212077 0)
(0.310348 -0.01717 0)
(0.290217 -0.0659632 0)
(0.375855 -0.0884389 0)
(0.407837 -0.142283 0)
(0.254329 -0.147974 0)
(0.337703 -0.0483177 0)
(0.438636 -0.136469 0)
(-0.118884 0.755058 0)
(0.0660414 0.61596 0)
(0.183118 0.595007 0)
(0.224422 0.775178 0)
(0.233496 0.706217 0)
(0.240434 0.685101 0)
(0.351446 0.609997 0)
(0.53597 0.667035 0)
(0.639138 0.585348 0)
(0.585678 0.40038 0)
(0.589343 0.256293 0)
(0.615369 0.259104 0)
(0.500923 0.256477 0)
(0.411801 0.105441 0)
(0.441262 0.102156 0)
(0.384292 -0.0367668 0)
(0.379855 0.0104755 0)
(0.349229 -0.0238897 0)
(0.339162 0.0266279 0)
(0.313591 -0.127249 0)
(0.31583 -0.135651 0)
(0.350784 -0.0434138 0)
(0.382102 -0.0970769 0)
(-0.0386785 0.565198 0)
(0.128904 0.637346 0)
(0.204625 0.515595 0)
(0.192247 0.627054 0)
(0.189494 0.580992 0)
(0.244483 0.655127 0)
(0.365705 0.584448 0)
(0.517252 0.65443 0)
(0.473827 0.58284 0)
(0.483205 0.344247 0)
(0.48169 0.303521 0)
(0.504562 0.293883 0)
(0.435328 0.215403 0)
(0.360391 0.180595 0)
(0.476305 0.12375 0)
(0.524181 -0.0653435 0)
(0.462765 0.0679971 0)
(0.434118 -0.0228106 0)
(0.356781 -0.0765912 0)
(0.272647 -0.121792 0)
(0.31495 -0.088628 0)
(0.282712 -0.0650406 0)
(0.389003 -0.106248 0)
(0.0632996 0.638179 0)
(0.167029 0.634128 0)
(0.175363 0.524108 0)
(0.242555 0.430183 0)
(0.23073 0.481974 0)
(0.233462 0.507914 0)
(0.33368 0.527471 0)
(0.529947 0.378583 0)
(0.479966 0.482641 0)
(0.399898 0.328322 0)
(0.505439 0.238775 0)
(0.501744 0.261359 0)
(0.397795 0.144508 0)
(0.41409 0.28062 0)
(0.358495 0.194122 0)
(0.485822 0.001579 0)
(0.502323 0.0213553 0)
(0.348888 0.0459074 0)
(0.340882 -0.0976128 0)
(0.352613 -0.137495 0)
(0.350526 -0.128825 0)
(0.278565 -0.0779774 0)
(0.354116 0.00512106 0)
(0.0300698 0.822321 0)
(0.0797942 0.676748 0)
(0.0503946 0.656836 0)
(0.203016 0.51073 0)
(0.255796 0.500584 0)
(0.259488 0.50929 0)
(0.238343 0.54009 0)
(0.382322 0.461445 0)
(0.363717 0.319446 0)
(0.356333 0.334519 0)
(0.429145 0.297001 0)
(0.363359 0.230616 0)
(0.473222 0.231884 0)
(0.483291 0.22145 0)
(0.293223 0.100526 0)
(0.407213 0.106492 0)
(0.646968 -0.0537076 0)
(0.469382 -0.00783253 0)
(0.228013 -0.0876049 0)
(0.309969 -0.103672 0)
(0.44639 -0.0853528 0)
(0.408725 -0.0802216 0)
(0.436262 -0.00327315 0)
(0.0260805 0.702717 0)
(0.0564791 0.60827 0)
(0.0790673 0.609263 0)
(0.088762 0.61505 0)
(0.214557 0.526399 0)
(0.271636 0.515202 0)
(0.252307 0.493026 0)
(0.250951 0.503077 0)
(0.325194 0.369484 0)
(0.386264 0.408653 0)
(0.37728 0.338038 0)
(0.351797 0.331138 0)
(0.394115 0.319852 0)
(0.401872 0.212973 0)
(0.340374 0.0979235 0)
(0.460716 0.188586 0)
(0.482347 0.0340471 0)
(0.356754 0.015175 0)
(0.318542 -0.0561489 0)
(0.394216 -0.0885132 0)
(0.403757 -0.0988694 0)
(0.387678 -0.120038 0)
(0.426054 -0.0858285 0)
(0.0287427 0.632543 0)
(0.055074 0.559728 0)
(0.0950065 0.565531 0)
(0.122767 0.561421 0)
(0.172941 0.601616 0)
(0.195932 0.512855 0)
(0.214826 0.48849 0)
(0.246533 0.458653 0)
(0.274924 0.445538 0)
(0.28783 0.384124 0)
(0.318655 0.305408 0)
(0.310045 0.275048 0)
(0.360106 0.226368 0)
(0.346901 0.214435 0)
(0.394737 0.137774 0)
(0.487586 0.233219 0)
(0.498243 0.038058 0)
(0.3939 0.0187975 0)
(0.196844 -0.0478595 0)
(0.321257 -0.0466376 0)
(0.462988 -0.219574 0)
(0.451874 -0.13357 0)
(0.46764 -0.075952 0)
(0.00323156 0.565605 0)
(0.0528451 0.507795 0)
(0.095094 0.503802 0)
(0.154156 0.463858 0)
(0.163789 0.484237 0)
(0.147691 0.431929 0)
(0.192927 0.426611 0)
(0.202505 0.387143 0)
(0.243247 0.368616 0)
(0.240117 0.326507 0)
(0.281535 0.296635 0)
(0.235799 0.278022 0)
(0.32092 0.26435 0)
(0.328309 0.21492 0)
(0.410016 0.214977 0)
(0.489651 0.169079 0)
(0.386938 0.0651195 0)
(0.372998 0.0192435 0)
(0.347389 -0.0411205 0)
(0.324533 -0.0218286 0)
(0.383207 -0.145131 0)
(0.568092 -0.139239 0)
(0.502884 -0.088121 0)
(0.0142249 0.52472 0)
(0.0464902 0.483995 0)
(0.0701409 0.462021 0)
(0.106192 0.447321 0)
(0.125906 0.390223 0)
(0.148432 0.398552 0)
(0.174322 0.385548 0)
(0.186841 0.356663 0)
(0.21342 0.346474 0)
(0.219316 0.312202 0)
(0.248138 0.303865 0)
(0.2563 0.268532 0)
(0.282995 0.296328 0)
(0.296387 0.213524 0)
(0.355541 0.243932 0)
(0.333272 0.09404 0)
(0.414908 0.118413 0)
(0.395432 0.00875026 0)
(0.254364 0.00038799 0)
(0.263358 -0.0145292 0)
(0.339528 0.00852399 0)
(0.532369 -0.166239 0)
(0.533123 -0.140609 0)
(0.0121726 0.454756 0)
(0.0434232 0.417898 0)
(0.0647055 0.393846 0)
(0.0967619 0.386294 0)
(0.115526 0.376579 0)
(0.131845 0.356606 0)
(0.157212 0.349196 0)
(0.169725 0.320817 0)
(0.193539 0.309836 0)
(0.201375 0.276475 0)
(0.229955 0.276667 0)
(0.241595 0.233264 0)
(0.259824 0.229701 0)
(0.290828 0.158365 0)
(0.314841 0.198779 0)
(0.381903 0.142741 0)
(0.385545 0.202969 0)
(0.29015 -0.00165354 0)
(0.335169 -0.0290443 0)
(0.353516 -0.033331 0)
(0.330298 0.00300647 0)
(0.402452 -0.0669638 0)
(0.588549 -0.063087 0)
(0.0105817 0.41071 0)
(0.0377352 0.37275 0)
(0.0573485 0.353079 0)
(0.0800281 0.345206 0)
(0.100024 0.332669 0)
(0.118271 0.315826 0)
(0.136991 0.308073 0)
(0.151494 0.286601 0)
(0.168474 0.278583 0)
(0.177297 0.254576 0)
(0.193568 0.254992 0)
(0.21712 0.220854 0)
(0.191898 0.208461 0)
(0.257606 0.161214 0)
(0.370695 0.144373 0)
(0.408866 0.19647 0)
(0.355924 0.069247 0)
(0.195232 -0.0565756 0)
(0.278229 -0.0246266 0)
(0.415105 0.0121991 0)
(0.382894 -0.0322304 0)
(0.473897 -0.0830173 0)
(0.551529 -0.151889 0)
(0.00980641 0.363347 0)
(0.0355646 0.328847 0)
(0.0513738 0.314228 0)
(0.0728518 0.306037 0)
(0.0887783 0.299391 0)
(0.107352 0.285542 0)
(0.122682 0.280321 0)
(0.136625 0.263333 0)
(0.151466 0.253065 0)
(0.160808 0.236441 0)
(0.173769 0.236145 0)
(0.201664 0.228752 0)
(0.179842 0.205974 0)
(0.223762 0.233203 0)
(0.385622 0.162277 0)
(0.375712 0.150141 0)
(0.271261 -0.00146515 0)
(0.322441 0.0845402 0)
(0.492395 0.062734 0)
(0.389269 -0.0934537 0)
(0.285253 -0.0144512 0)
(0.342958 -0.0784336 0)
(0.562481 -0.178879 0)
(0.00855574 0.319983 0)
(0.0301536 0.288959 0)
(0.0435782 0.278301 0)
(0.0622453 0.270731 0)
(0.0753247 0.263097 0)
(0.092438 0.250658 0)
(0.105685 0.246334 0)
(0.119736 0.234618 0)
(0.133556 0.223732 0)
(0.140983 0.220708 0)
(0.161126 0.212036 0)
(0.193753 0.227097 0)
(0.206838 0.18749 0)
(0.232612 0.226445 0)
(0.289989 0.221492 0)
(0.235957 0.0924126 0)
(0.307499 0.126924 0)
(0.352119 0.0515838 0)
(0.252008 -0.0102989 0)
(0.379008 -0.136165 0)
(0.40292 -0.0364156 0)
(0.337664 -0.0280798 0)
(0.386005 -0.105525 0)
(0.00726322 0.28847 0)
(0.0272975 0.260558 0)
(0.0376921 0.251946 0)
(0.0558651 0.244661 0)
(0.0665868 0.238844 0)
(0.0824228 0.227652 0)
(0.0951579 0.222575 0)
(0.106843 0.210942 0)
(0.126767 0.203245 0)
(0.126106 0.188929 0)
(0.167051 0.180194 0)
(0.163039 0.162804 0)
(0.170097 0.123449 0)
(0.284015 0.162403 0)
(0.249608 0.163433 0)
(0.275996 0.0527133 0)
(0.288329 0.0788269 0)
(0.274992 -0.0802726 0)
(0.261588 -0.0144627 0)
(0.358323 -0.0421982 0)
(0.432127 -0.192343 0)
(0.296152 -0.121987 0)
(0.346098 -0.157907 0)
(0.00592622 0.250916 0)
(0.0226263 0.227883 0)
(0.0303885 0.220943 0)
(0.0458606 0.213728 0)
(0.0537319 0.208728 0)
(0.0672817 0.19722 0)
(0.076888 0.194228 0)
(0.087731 0.181458 0)
(0.101887 0.180077 0)
(0.104145 0.174247 0)
(0.12455 0.1641 0)
(0.130528 0.0880994 0)
(0.177522 0.1185 0)
(0.305288 0.170879 0)
(0.219137 0.0715754 0)
(0.207717 0.0684254 0)
(0.204759 -0.0536022 0)
(0.307772 0.00378351 0)
(0.277624 -0.0560317 0)
(0.275784 0.0376315 0)
(0.370989 -0.192752 0)
(0.305157 -0.08434 0)
(0.375186 -0.146829 0)
(0.00394928 0.233062 0)
(0.0211766 0.213027 0)
(0.0260372 0.206341 0)
(0.042217 0.199606 0)
(0.0472266 0.194903 0)
(0.0621172 0.182854 0)
(0.0698865 0.177616 0)
(0.0814999 0.160903 0)
(0.103616 0.159972 0)
(0.096409 0.139606 0)
(0.0723372 0.148389 0)
(0.120239 0.0881828 0)
(0.239366 0.165036 0)
(0.270825 0.137197 0)
(0.189682 0.085288 0)
(0.184411 0.00354209 0)
(0.239515 0.00782817 0)
(0.332471 0.0375482 0)
(0.341916 -0.0443462 0)
(0.251926 -0.00440088 0)
(0.302637 -0.131954 0)
(0.306373 -0.159175 0)
(0.329005 -0.250549 0)
(0.00234291 0.20031 0)
(0.0175104 0.183618 0)
(0.0199896 0.178205 0)
(0.0342193 0.172453 0)
(0.0354774 0.167548 0)
(0.049811 0.156707 0)
(0.0491932 0.151173 0)
(0.0637889 0.132473 0)
(0.061331 0.134199 0)
(0.0798651 0.0889823 0)
(0.0509938 0.132976 0)
(0.122443 0.122451 0)
(0.23034 0.206828 0)
(0.179558 0.0153062 0)
(0.135877 0.0767332 0)
(0.186077 0.029047 0)
(0.253075 0.0586777 0)
(0.292233 -0.0286814 0)
(0.277032 -0.0693863 0)
(0.14779 -0.197179 0)
(0.265895 -0.16167 0)
(0.217133 -0.220019 0)
(0.288588 -0.283961 0)
(0.00155408 0.194567 0)
(0.0153885 0.178999 0)
(0.0160774 0.173192 0)
(0.0297877 0.169847 0)
(0.0285875 0.16297 0)
(0.0444707 0.155021 0)
(0.0387325 0.148538 0)
(0.0597872 0.130815 0)
(0.0428464 0.13259 0)
(0.0795707 0.126142 0)
(0.094063 0.124836 0)
(0.182824 0.160901 0)
(0.135583 0.142372 0)
(0.160858 0.0395712 0)
(0.190647 0.0794555 0)
(0.155551 0.0689881 0)
(0.185223 0.00893283 0)
(0.184184 -0.0050592 0)
(0.164606 -0.089429 0)
(0.195069 -0.183265 0)
(0.35205 -0.138602 0)
(0.207483 -0.221883 0)
(0.25745 -0.189003 0)
(-0.000322226 0.163229 0)
(0.0100227 0.152411 0)
(0.0110277 0.147458 0)
(0.0217663 0.145236 0)
(0.0165985 0.137125 0)
(0.0328496 0.134942 0)
(0.0171307 0.122455 0)
(0.0457861 0.123567 0)
(0.050316 0.106398 0)
(0.0727513 0.120626 0)
(0.0827117 0.087706 0)
(0.150164 0.0813553 0)
(0.0513796 0.0139799 0)
(0.124799 0.0609386 0)
(0.162566 -0.00754191 0)
(0.102953 0.0479778 0)
(0.123322 0.0244153 0)
(0.133856 -0.0184288 0)
(0.136001 -0.0717438 0)
(0.153197 -0.0955508 0)
(0.316766 -0.209177 0)
(0.208666 -0.28105 0)
(0.17005 -0.216383 0)
(0.000865091 0.182242 0)
(0.00977549 0.16065 0)
(0.00824586 0.151136 0)
(0.0171105 0.168304 0)
(0.0146306 0.139278 0)
(0.0265482 0.159806 0)
(0.0209763 0.126185 0)
(0.0382763 0.153045 0)
(0.0298433 0.108169 0)
(0.0548903 0.111677 0)
(0.0614767 0.0801996 0)
(0.0979166 0.0663843 0)
(0.0648863 0.021753 0)
(0.107626 0.082199 0)
(0.156522 -0.00976292 0)
(0.106749 0.0311839 0)
(0.0636146 -0.0192562 0)
(0.134083 -0.0242921 0)
(0.148671 -0.0983058 0)