/*--------------------------------*- C++ -*----------------------------------*\
| =========                 |                                                 |
| \\      /  F ield         | foam-extend: Open Source CFD                    |
|  \\    /   O peration     | Version:     4.1                                |
|   \\  /    A nd           | Web:         http://www.foam-extend.org         |
|    \\/     M anipulation  |                                                 |
\*---------------------------------------------------------------------------*/
FoamFile
{
    version     2.0;
    format      ascii;
    class       volScalarField;
    location    "0.65";
    object      alpha1;
}
// * * * * * * * * * * * * * * * * * * * * * * * * * * * * * * * * * * * * * //

dimensions      [0 0 0 0 0 0 0];

internalField   nonuniform List<scalar> 
2268
(
0.861686
0.340526
0.83279
0.981734
0.998528
0.999903
0.999672
0.999943
0.999981
0.999673
0.999803
0.999828
0.999838
0.999862
0.999914
0.999959
0.999981
0.999993
0.999959
0.999474
0.997355
0.986309
0.574974
0.786387
0.208562
0.737449
0.947548
0.992587
0.999208
0.985671
0.998535
0.999693
0.997181
0.999031
0.99941
0.999587
0.999687
0.999825
0.999862
0.999923
0.999967
0.999987
0.999937
0.999973
0.999377
0.983968
0.728657
0.283953
0.682459
0.900091
0.971093
0.9933
0.749092
0.960105
0.996747
0.986681
0.996956
0.998745
0.99903
0.9992
0.999561
0.999723
0.999839
0.999931
0.999978
0.999974
0.999864
0.998706
0.99154
0.707318
0.310241
0.484172
0.833926
0.908198
0.897837
0.33225
0.857333
0.978046
0.931824
0.984472
0.996747
0.996783
0.997191
0.997785
0.998431
0.998766
0.99933
0.999761
0.999896
0.999813
0.998846
0.992069
0.703954
0.332864
0.317057
0.535905
0.647803
0.866671
0.294454
0.760479
0.919309
0.659254
0.914391
0.985954
0.99146
0.990329
0.992279
0.993791
0.995799
0.998289
0.999225
0.999659
0.999569
0.998242
0.992376
0.698127
0.351555
0.302713
0.466623
0.485533
0.718743
0.480137
0.683228
0.645386
0.361381
0.702468
0.969269
0.982201
0.977114
0.978922
0.980214
0.989866
0.996009
0.997836
0.998502
0.997482
0.99118
0.992172
0.601124
0.333941
0.267778
0.509286
0.373315
0.502501
0.273796
0.475484
0.259141
0.20599
0.743921
0.953916
0.969495
0.959586
0.957144
0.96192
0.978306
0.989751
0.993349
0.988141
0.976534
0.955075
0.991708
0.503557
0.288433
0.221901
0.410938
0.355868
0.253547
0.199872
0.491881
0.195257
0.161692
0.518309
0.826384
0.947853
0.942985
0.943963
0.961202
0.974153
0.982074
0.978613
0.929534
0.893857
0.872413
0.977074
0.53588
0.537555
0.535817
0.538705
0.548345
0.567285
0.591958
0.61712
0.641865
0.657296
0.661238
0.65063
0.635542
0.622618
0.625802
0.637059
0.635618
0.571329
0.381587
0.532368
0.525329
0.504105
0.494262
0.500735
0.481851
0.515758
0.608744
0.652867
0.679994
0.695045
0.696602
0.711066
0.708061
0.709782
0.710059
0.70403
0.64239
0.374226
0.522981
0.491586
0.398577
0.438443
0.394109
0.299376
0.36874
0.516867
0.595775
0.629128
0.636513
0.694332
0.702455
0.679663
0.70794
0.717726
0.706123
0.63006
0.347286
0.507297
0.45013
0.375879
0.400381
0.258137
0.180405
0.167058
0.25371
0.23535
0.465098
0.579498
0.59092
0.648796
0.56846
0.601594
0.661197
0.691177
0.610188
0.328535
0.482772
0.391731
0.330481
0.422142
0.333331
0.189368
0.0978881
0.0871011
0.0822589
0.159858
0.329457
0.259237
0.450482
0.318592
0.439402
0.576512
0.648787
0.59557
0.304452
0.447679
0.287586
0.212397
0.339542
0.445316
0.225822
0.119754
0.0649725
0.0659332
0.0726349
0.101623
0.130123
0.187103
0.223383
0.344654
0.502005
0.619136
0.588646
0.304978
0.392401
0.218486
0.0790892
0.16572
0.391124
0.167118
0.0846514
0.096844
0.119702
0.110012
0.115252
0.143997
0.197158
0.243155
0.317871
0.439418
0.581769
0.617223
0.347497
0.322567
0.163647
0.0617427
0.067958
0.176111
0.103345
0.140611
0.178019
0.241223
0.190767
0.154103
0.149218
0.171412
0.219174
0.28369
0.399145
0.549536
0.657159
0.487146
0.416775
0.228334
0.200473
0.429313
0.308978
0.154889
0.21901
0.598663
0.237243
0.168113
0.397468
0.760126
0.905973
0.890302
0.90019
0.89115
0.904648
0.897813
0.865114
0.768453
0.789806
0.765301
0.877231
0.27303
0.107466
0.222761
0.497126
0.232852
0.0677185
0.0808623
0.247254
0.0896768
0.221924
0.439521
0.768879
0.850868
0.722897
0.763796
0.712044
0.716557
0.595566
0.554783
0.518825
0.614133
0.621099
0.693929
0.221318
0.0855478
0.0538095
0.294822
0.0704997
0.0330982
0.0407356
0.0722796
0.0339241
0.0673642
0.270097
0.776548
0.768773
0.589549
0.529126
0.396347
0.27493
0.204238
0.269787
0.370095
0.499164
0.528132
0.585801
0.378129
0.21693
0.0373547
0.062771
0.0224167
0.020405
0.024812
0.0262222
0.0244723
0.131546
0.473387
0.695407
0.40158
0.276258
0.233765
0.139571
0.0850583
0.0854787
0.122342
0.181184
0.285452
0.416501
0.456876
0.279617
0.148636
0.0273386
0.022057
0.0153681
0.0146018
0.0137785
0.00971757
0.00689223
0.0212733
0.158218
0.421943
0.142013
0.0930618
0.0802631
0.0549714
0.0555955
0.0542638
0.0794082
0.0989505
0.125407
0.181102
0.241113
0.094957
0.0252605
0.0172518
0.0156352
0.0147615
0.012334
0.0103615
0.00546441
0.00338142
0.00603009
0.0430975
0.144347
0.0419375
0.0444235
0.045575
0.0288942
0.0256436
0.0175976
0.0206286
0.0263469
0.0448897
0.0834681
0.150982
0.0268701
0.00771253
0.0122091
0.0139069
0.0148228
0.0121235
0.00764771
0.00476822
0.00227129
0.00121509
0.00459595
0.0173576
0.00480752
0.0133618
0.0159972
0.0135055
0.0106708
0.00724394
0.00412288
0.00949471
0.0365801
0.0989468
0.127188
0.00217002
0.00590081
0.00888915
0.0106768
0.0130649
0.0125458
0.00931915
0.00484221
0.00121289
0.000527007
0.000707394
0.00111348
0.00147316
0.0030345
0.00605741
0.00796236
0.0070371
0.00486965
0.00245763
0.0047098
0.0162608
0.030088
0.034866
0.000758003
0.00230166
0.00482477
0.00733573
0.00962091
0.0121068
0.00873439
0.00366132
0.000866942
0.000302518
0.000338549
0.000507428
0.000878851
0.00158535
0.00330693
0.00573469
0.00520693
0.00378767
0.00151267
0.00320976
0.00812152
0.0124019
0.0170334
0.000394041
0.000836636
0.00198411
0.00494854
0.0067208
0.00951991
0.00728464
0.0035187
0.000972351
0.000276764
0.000134888
0.000301693
0.000584199
0.000949002
0.00250099
0.00318928
0.0022064
0.00122176
0.00118503
0.00344911
0.00691677
0.00780301
0.0066202
0.000201334
0.000315534
0.000738131
0.00250008
0.00281283
0.00393462
0.00402087
0.0023228
0.000678429
0.000156686
7.04342e-05
0.000199801
0.000321959
0.000572632
0.00217158
0.00147388
0.000523789
0.000575889
0.000544369
0.000928184
0.00158729
0.00139963
0.000599882
0.000106828
0.000116079
0.000169135
0.000753829
0.000666399
0.000792744
0.00137024
0.000790745
0.000227565
5.33721e-05
3.11518e-05
0.000177393
0.000206571
0.000331191
0.000841565
0.00041844
0.000281678
0.000270555
0.000225696
0.00029018
0.000375942
0.000293427
0.000125147
5.4703e-05
3.8331e-05
3.60139e-05
0.000159008
7.49502e-05
9.72719e-05
0.000128583
6.07619e-05
1.11268e-05
3.06378e-06
6.70388e-06
0.000135875
0.000123927
0.000212147
0.000341001
0.000209981
0.000127439
8.21365e-05
5.98922e-05
7.17111e-05
7.34341e-05
5.66977e-05
6.919e-05
2.31973e-05
1.01909e-05
9.28562e-06
1.6806e-05
8.08741e-06
4.24629e-07
3.05564e-06
4.28404e-07
1.39864e-07
1.59993e-06
9.03364e-06
0.00024766
7.45251e-05
9.87291e-05
0.000125621
9.62666e-05
5.48576e-05
3.22281e-05
1.02582e-05
8.46757e-06
5.64862e-06
1.06804e-05
2.82239e-05
6.27176e-06
2.0188e-06
1.98447e-06
1.01594e-06
3.03737e-07
1.95372e-08
5.50681e-09
5.44335e-09
1.1395e-07
2.67053e-06
9.76178e-06
7.28069e-05
2.11015e-05
3.87518e-05
3.27553e-05
1.85627e-05
1.72287e-05
1.94615e-05
9.27226e-06
2.20348e-06
6.65421e-07
2.20453e-06
8.71138e-06
2.06369e-06
4.27314e-07
3.43127e-07
7.26985e-08
5.52684e-09
1.19855e-09
6.37905e-10
4.92663e-09
2.98065e-07
6.52223e-06
1.4985e-05
4.96011e-05
6.72558e-06
9.75625e-06
2.13082e-06
1.13534e-06
1.55603e-06
1.58049e-06
1.85367e-06
3.19799e-07
1.57321e-07
2.43145e-07
8.03639e-07
3.79335e-07
6.6496e-08
5.73377e-08
8.89539e-09
3.316e-10
1.00599e-10
8.56569e-11
9.71753e-09
1.94462e-07
1.26771e-06
2.48629e-06
1.42601e-06
5.10293e-07
6.9106e-07
3.11187e-07
8.59963e-08
1.74617e-07
8.49177e-08
1.33638e-07
4.39976e-08
2.99385e-08
2.49694e-08
1.05585e-07
4.97076e-08
1.24281e-08
1.11116e-08
1.81974e-09
3.72457e-11
1.40442e-11
1.54822e-10
1.73589e-08
2.69479e-07
7.23086e-07
7.17846e-07
2.62263e-07
2.61022e-08
2.81327e-08
4.72969e-08
8.87295e-09
1.10123e-08
4.62579e-09
9.73764e-09
2.45463e-09
4.43455e-09
5.218e-09
1.37788e-08
2.45355e-09
9.8245e-10
1.95565e-09
3.77227e-10
4.35513e-12
2.3116e-12
3.9635e-12
2.39819e-11
1.8783e-10
4.08057e-10
7.36094e-10
6.85954e-10
7.02575e-10
1.44378e-09
3.2953e-09
3.45367e-09
9.08944e-10
3.76086e-10
2.60134e-10
2.00283e-10
5.8348e-10
9.56139e-10
2.08138e-09
6.60453e-11
4.70792e-11
4.80578e-10
9.487e-11
1.39538e-12
2.01839e-13
2.85549e-13
1.58068e-12
4.01984e-12
4.3725e-12
8.35576e-12
2.43503e-11
3.73777e-11
8.91063e-11
2.2643e-10
3.59187e-10
1.09473e-10
3.97085e-11
2.11365e-11
2.17386e-11
4.8919e-11
1.60336e-10
3.27035e-10
1.73195e-12
2.12269e-12
2.68054e-11
9.18449e-12
1.78468e-13
1.64868e-14
5.63993e-14
3.0187e-13
9.02889e-13
4.37039e-13
3.78642e-13
1.16329e-12
1.63303e-12
4.91451e-12
1.67831e-11
1.60572e-11
4.11543e-12
3.93474e-12
1.60788e-12
1.89343e-12
4.96891e-12
1.55128e-11
2.20426e-11
1.22846e-13
6.39488e-14
8.68583e-13
4.28491e-13
1.83742e-14
9.88098e-15
1.16573e-14
4.25215e-14
9.24261e-14
6.59472e-14
1.54876e-14
2.15383e-14
6.47815e-14
1.98896e-13
1.10306e-12
5.49893e-13
3.64264e-13
1.72973e-13
1.38556e-13
1.56708e-13
3.80029e-13
1.07669e-12
1.6247e-12
1.80966e-14
0
2.84772e-14
2.7145e-14
1.09357e-14
1.33227e-14
1.00475e-14
1.18794e-14
1.18794e-14
1.26565e-14
1.02696e-14
1.249e-14
1.2379e-14
1.60982e-14
5.18474e-14
3.7581e-14
3.05866e-14
1.32117e-14
1.33227e-14
1.37113e-14
3.16969e-14
8.35998e-14
1.52822e-13
8.71525e-15
0
1.31006e-14
1.249e-14
1.35447e-14
1.43774e-14
1.02696e-14
9.60343e-15
1.17129e-14
1.27121e-14
1.14353e-14
1.27121e-14
9.60343e-15
7.54952e-15
1.09912e-14
1.17129e-14
9.21485e-15
7.21645e-15
4.88498e-15
3.83027e-15
4.60743e-15
1.06026e-14
2.62568e-14
9.60343e-15
0
1.02696e-14
1.13243e-14
1.45439e-14
1.59317e-14
8.82627e-15
8.32667e-15
9.21485e-15
1.14908e-14
1.13243e-14
1.29896e-14
1.24345e-14
8.54872e-15
9.04832e-15
9.76996e-15
8.38218e-15
6.88338e-15
5.82867e-15
2.55351e-15
5.38458e-15
7.21645e-15
1.57097e-14
7.27196e-15
0
1.12133e-14
1.14353e-14
1.32117e-14
1.28786e-14
9.76996e-15
8.88178e-15
1.09912e-14
1.0103e-14
1.01585e-14
1.22125e-14
1.33782e-14
1.11022e-14
1.09912e-14
1.00475e-14
7.32747e-15
6.38378e-15
4.996e-15
4.82947e-15
6.71685e-15
3.88578e-15
7.16094e-15
1.04916e-14
0
1.29341e-14
1.26565e-14
1.06581e-14
1.45439e-14
1.2268e-14
1.11022e-14
1.12133e-14
1.29341e-14
1.09357e-14
1.36557e-14
1.18794e-14
9.27036e-15
9.32587e-15
1.14908e-14
8.60423e-15
5.05151e-15
4.82947e-15
4.4964e-15
5.05151e-15
5.60663e-15
1.34892e-14
9.99201e-15
0
1.37668e-14
1.09912e-14
1.18239e-14
1.30451e-14
1.2601e-14
1.2379e-14
1.14908e-14
1.32117e-14
1.12133e-14
1.33782e-14
1.34892e-14
1.28231e-14
1.16018e-14
1.249e-14
1.16573e-14
7.93809e-15
6.88338e-15
3.9968e-15
2.72005e-15
3.05311e-15
1.20459e-14
9.38138e-15
0
1.42109e-14
1.09357e-14
1.04361e-14
1.01585e-14
1.08247e-14
9.76996e-15
7.77156e-15
1.13243e-14
1.22125e-14
1.08802e-14
1.45994e-14
1.28231e-14
1.12133e-14
1.15463e-14
1.19349e-14
8.21565e-15
6.55032e-15
2.66454e-15
1.72085e-15
0
8.65974e-15
6.82787e-15
0
1.32672e-14
9.38138e-15
9.15934e-15
9.32587e-15
1.24345e-14
1.32672e-14
1.00475e-14
1.37668e-14
1.249e-14
1.21569e-14
1.39888e-14
1.19349e-14
1.25455e-14
1.2601e-14
1.36557e-14
1.00475e-14
4.82947e-15
2.88658e-15
4.21885e-15
1.83187e-15
1.22125e-14
4.88498e-15
0
1.04361e-14
1.11577e-14
9.71445e-15
7.82707e-15
1.29341e-14
1.33782e-14
9.54792e-15
1.36002e-14
1.23235e-14
1.12133e-14
1.37668e-14
9.76996e-15
1.42664e-14
1.09357e-14
1.5099e-14
9.99201e-15
5.66214e-15
2.66454e-15
5.32907e-15
9.4369e-16
1.31561e-14
5.44009e-15
0
8.71525e-15
1.32672e-14
9.76996e-15
1.23235e-14
1.17129e-14
1.20459e-14
9.82547e-15
1.50435e-14
1.29896e-14
1.17129e-14
1.33227e-14
1.06026e-14
1.18239e-14
1.19349e-14
1.46549e-14
9.60343e-15
7.49401e-15
4.16334e-15
3.77476e-15
1.66533e-15
1.59317e-14
2.88658e-15
0
7.38298e-15
9.71445e-15
6.93889e-15
6.99441e-15
1.11577e-14
1.04361e-14
9.10383e-15
1.37113e-14
1.11022e-14
1.06581e-14
1.18239e-14
7.43849e-15
1.0103e-14
1.24345e-14
1.07137e-14
1.16018e-14
1.13798e-14
6.32827e-15
2.33147e-15
2.33147e-15
1.7486e-14
3.05311e-15
0
7.99361e-15
6.66134e-15
5.44009e-15
1.14353e-14
8.71525e-15
8.38218e-15
8.88178e-15
9.38138e-15
1.15463e-14
1.0103e-14
8.16014e-15
3.71925e-15
3.71925e-15
1.22125e-14
9.49241e-15
1.14908e-14
8.99281e-15
7.43849e-15
2.60902e-15
1.9984e-15
1.65978e-14
3.77476e-15
0
6.38378e-15
6.21725e-15
8.16014e-15
1.31006e-14
1.04361e-14
9.15934e-15
9.21485e-15
7.32747e-15
8.99281e-15
1.12688e-14
5.9952e-15
2.55351e-15
4.82947e-15
8.88178e-15
5.16254e-15
1.21569e-14
8.16014e-15
7.93809e-15
3.21965e-15
0
9.38138e-15
3.33067e-15
0
1.08802e-14
5.60663e-15
9.71445e-15
1.06581e-14
5.16254e-15
4.05231e-15
7.16094e-15
7.04992e-15
8.27116e-15
9.88098e-15
6.88338e-15
5.44009e-15
7.04992e-15
8.04912e-15
6.05072e-15
9.49241e-15
7.04992e-15
9.38138e-15
5.05151e-15
0
1.48215e-14
1.66533e-15
0
1.46549e-14
9.04832e-15
6.93889e-15
8.04912e-15
5.38458e-15
3.83027e-15
3.05311e-15
5.66214e-15
7.93809e-15
6.21725e-15
4.60743e-15
8.9373e-15
2.33147e-15
5.55112e-15
5.77316e-15
4.88498e-15
4.71845e-15
7.60503e-15
4.71845e-15
7.77156e-16
1.51545e-14
1.33227e-15
1.66533e-16
1.77636e-14
1.01585e-14
8.27116e-15
1.13243e-14
5.9952e-15
4.38538e-15
5.60663e-15
7.10543e-15
7.32747e-15
5.32907e-15
5.55112e-15
1.16573e-14
7.32747e-15
7.93809e-15
5.60663e-15
6.66134e-15
6.66134e-15
3.33067e-15
5.60663e-15
0
1.52101e-14
6.66134e-16
4.10783e-15
2.18159e-14
1.24345e-14
1.08247e-14
1.67089e-14
5.21805e-15
7.04992e-15
1.11022e-14
6.88338e-15
9.4369e-15
5.38458e-15
8.27116e-15
1.43219e-14
9.82547e-15
9.4369e-15
7.10543e-15
1.08802e-14
8.88178e-15
4.60743e-15
6.60583e-15
1.66533e-16
1.38778e-14
1.77636e-15
8.82627e-15
2.59237e-14
1.67089e-14
1.59872e-14
1.93734e-14
1.02696e-14
7.32747e-15
1.38778e-14
6.4948e-15
1.28231e-14
6.93889e-15
8.49321e-15
1.4766e-14
1.16573e-14
1.07692e-14
1.19904e-14
1.41553e-14
9.82547e-15
1.09357e-14
1.09357e-14
4.66294e-15
9.27036e-15
0
7.93809e-15
2.57572e-14
1.83187e-14
1.13798e-14
1.57652e-14
8.32667e-15
8.99281e-15
9.4369e-15
7.54952e-15
9.27036e-15
1.07692e-14
7.77156e-15
9.27036e-15
1.08802e-14
1.09357e-14
1.03251e-14
1.43774e-14
1.21014e-14
1.16018e-14
3.55271e-15
1.03806e-14
4.21885e-15
0
1.29896e-14
2.7256e-14
2.226e-14
1.64868e-14
1.55431e-14
1.03251e-14
1.28231e-14
1.29341e-14
1.24345e-14
1.28786e-14
1.23235e-14
1.25455e-14
1.32117e-14
1.50435e-14
1.18794e-14
1.42109e-14
1.41553e-14
1.53766e-14
1.39333e-14
1.29341e-14
1.68754e-14
0
0.93326
0.958241
0.780489
0.186138
0.81691
0.897884
0.878911
0.792315
0.645516
0.683171
0.749891
0.751159
0.492362
0.50275
0.507418
0.502296
0.28839
0.312313
0.326464
0.334247
0.210343
0.245348
0.256473
0.237338
0.137464
0.137848
0.129508
0.087047
0.0369236
0.0382697
0.0474164
0.0579006
0.0254109
0.0336312
0.051547
0.0647817
0.00698683
0.0100949
0.0171037
0.0210928
0.000520527
0.00108228
0.00225843
0.00236222
0.000129175
0.000267048
0.000423241
0.000670094
0.000236582
0.000536149
0.00116192
0.00215255
9.25078e-05
0.000239382
0.000585334
0.00120057
3.49821e-05
0.000100259
0.000257678
0.000561284
4.22178e-06
1.35614e-05
4.2268e-05
0.000102929
4.99827e-07
1.54466e-06
5.45411e-06
1.32447e-05
2.85129e-08
1.33809e-07
5.57337e-07
8.68369e-07
3.84029e-09
1.40479e-08
3.03418e-08
6.82532e-08
3.25716e-10
9.81688e-10
2.53608e-09
6.87267e-09
3.75511e-11
8.65457e-11
1.77848e-10
6.94547e-10
4.91751e-12
9.10161e-12
2.86527e-11
7.75636e-11
6.15175e-13
1.52939e-12
2.99022e-12
9.55458e-12
7.78821e-14
1.32949e-13
3.52496e-13
1.37235e-12
8.49321e-15
1.83187e-14
4.10227e-14
9.08718e-14
1.83187e-15
3.88578e-15
4.55191e-15
8.9373e-15
1.72085e-15
2.22045e-15
3.83027e-15
1.9984e-15
2.05391e-15
2.55351e-15
1.16573e-15
0
1.66533e-15
2.44249e-15
2.83107e-15
0
1.4988e-15
1.83187e-15
1.11022e-15
0
2.77556e-16
9.4369e-16
1.22125e-15
0
0
3.88578e-16
2.77556e-16
0
3.88578e-16
1.11022e-15
3.88578e-16
0
8.88178e-16
2.22045e-15
8.88178e-16
0
3.88578e-16
2.9976e-15
2.05391e-15
0
0
0
1.88738e-15
0
0
0
0
0
0
0
0
0
0
2.22045e-16
5.55112e-17
2.83107e-15
2.60902e-15
3.27516e-15
3.38618e-15
2.38698e-15
0
3.33067e-16
4.60743e-15
8.99281e-15
0
0
0
0
0.266453
0.22239
0.220074
0.209885
0.204187
0.225472
0.270317
0.327473
0.474862
0.375991
0.352554
0.309221
0.312212
0.282968
0.296321
0.366228
0.509021
0.674458
0.613474
0.636225
0.767943
0.807949
0.81281
0.811706
0.81
0.77422
0.7701
0.806176
0.781012
0.778837
0.769343
0.753434
0.656304
0.552024
0.572269
0.635517
0.700982
0.691515
0.776338
0.825786
0.844357
0.889653
0.912031
0.914033
0.887063
0.872607
0.854126
0.836776
0.834433
0.794764
0.812922
0.829847
0.828176
0.822212
0.803991
0.742558
0.682825
0.562567
0.631839
0.652433
0.825109
0.881443
0.870943
0.752515
0.653953
0.443202
0.456324
0.48847
0.539843
0.563286
0.619397
0.62239
0.578073
0.585012
0.651581
0.661665
0.362944
0.324362
0.319903
0.52594
0.746528
0.75863
0.636266
0.444464
0.217844
0.225831
0.266473
0.386368
0.398752
0.376288
0.312331
0.303563
0.312538
0.494437
0.633579
0.180055
0.14269
0.152046
0.216958
0.408629
0.596933
0.527984
0.32501
0.139505
0.122202
0.145784
0.264285
0.330422
0.321645
0.266201
0.205571
0.210819
0.464427
0.622827
0.0645754
0.0806102
0.117636
0.199884
0.404051
0.477225
0.342076
0.176523
0.0751688
0.0609287
0.0836826
0.187872
0.212121
0.186779
0.170895
0.135877
0.243065
0.475534
0.613769
0.0902098
0.173555
0.269505
0.314544
0.403344
0.363828
0.189058
0.0942949
0.0414717
0.0304059
0.0492876
0.0807441
0.0863115
0.106658
0.110087
0.141649
0.290688
0.503816
0.606617
0.0693543
0.179185
0.234879
0.143477
0.295552
0.219603
0.106653
0.0436538
0.025943
0.0208477
0.0292443
0.0370922
0.0522626
0.0755285
0.109159
0.158196
0.295603
0.506189
0.602629
0.0182686
0.0713523
0.0789105
0.046648
0.109798
0.0654619
0.0245682
0.017031
0.0190719
0.0224402
0.0335624
0.0419103
0.0517122
0.0752419
0.110565
0.189756
0.343308
0.507661
0.601803
0.0029317
0.00758112
0.00780331
0.0133261
0.0213614
0.0129687
0.0123837
0.0198475
0.026459
0.0333044
0.0445255
0.0596274
0.0702256
0.0808709
0.103425
0.179092
0.330985
0.517827
0.602191
0.000985432
0.00155415
0.00321185
0.00533108
0.00799291
0.0148549
0.0232716
0.0363298
0.0474487
0.0600698
0.0725864
0.0873347
0.11193
0.136848
0.153438
0.228754
0.319783
0.494556
0.600706
0.00401797
0.00667569
0.00887672
0.0133577
0.0187845
0.0268235
0.0368957
0.0460418
0.054992
0.0673773
0.0741503
0.0765009
0.0845299
0.122942
0.150529
0.273075
0.430641
0.498615
0.600136
0.00244779
0.0049358
0.00752283
0.0112859
0.0153113
0.0171402
0.0160049
0.0119735
0.0135669
0.0215599
0.0344948
0.0373422
0.0412023
0.0896744
0.142214
0.215624
0.474297
0.518852
0.602894
0.00124223
0.00309287
0.0052005
0.00794988
0.00991589
0.00981042
0.00291741
0.0016191
0.00153624
0.00219464
0.00560735
0.0109309
0.0135148
0.0406912
0.125605
0.221503
0.393853
0.555031
0.609929
0.000220081
0.00080942
0.00156258
0.00322112
0.00489891
0.00463875
0.000797891
0.000612104
0.000681259
0.000780251
0.0012322
0.00356582
0.00463971
0.0150977
0.093812
0.314774
0.419731
0.589538
0.61575
2.97223e-05
0.000133243
0.00040997
0.000795942
0.00201352
0.00245432
0.000417534
0.000268586
0.000292077
0.000203391
0.00017498
0.000512502
0.000778538
0.00375911
0.0568095
0.314262
0.456005
0.601905
0.616556
3.93696e-06
1.59002e-05
8.79515e-05
0.000184349
0.000448822
0.000670538
0.000251672
8.98583e-05
9.31911e-05
8.59505e-05
6.45276e-05
0.000158973
0.000814576
0.00350184
0.0323924
0.30656
0.525552
0.602725
0.614462
4.41833e-07
1.73396e-06
1.52757e-05
3.74839e-05
6.24901e-05
0.000120042
5.39187e-05
2.46483e-05
2.53678e-05
3.26696e-05
4.19751e-05
0.000261141
0.00248632
0.0153804
0.112191
0.409489
0.54377
0.588634
0.603688
4.07305e-08
1.95726e-07
1.32753e-06
6.09136e-06
1.18484e-05
7.45773e-06
6.54629e-06
5.96894e-06
8.81443e-06
1.38767e-05
1.84393e-05
7.57194e-05
0.000544493
0.00266125
0.0140406
0.119216
0.310243
0.404946
0.557394
3.90398e-09
2.33906e-08
1.0937e-07
8.81524e-07
1.03397e-06
7.10202e-07
9.36918e-07
2.03484e-06
3.83636e-06
7.21468e-06
1.69036e-05
0.000121241
0.000765049
0.00266668
0.00577215
0.0118342
0.0464007
0.187883
0.512431
4.3382e-10
2.7723e-09
1.5028e-08
8.20014e-08
7.47609e-08
1.50107e-07
2.50515e-07
7.33182e-07
1.30271e-06
2.35645e-06
1.45833e-05
0.000169498
0.000941846
0.0031151
0.00759883
0.0202182
0.0356826
0.24515
0.478717
4.55378e-11
4.33176e-10
1.97015e-09
7.42228e-09
9.82705e-09
3.65485e-08
5.53697e-08
1.87532e-07
4.7897e-07
3.56836e-06
5.25966e-05
0.000326593
0.00177749
0.00671459
0.0149954
0.0512707
0.0897804
0.28518
0.449578
4.50207e-12
5.16492e-11
2.46658e-10
7.75384e-10
1.68091e-09
6.93455e-09
1.30063e-08
6.28444e-08
7.83429e-07
1.00563e-05
8.8464e-05
0.000548784
0.00285282
0.0125759
0.0285416
0.0763199
0.119876
0.28608
0.429572
4.91052e-13
5.44537e-12
2.86861e-11
7.80027e-11
2.66147e-10
1.12444e-09
2.44654e-09
1.34477e-08
3.16336e-07
4.30182e-06
5.40703e-05
0.00052425
0.00317467
0.0156626
0.0419929
0.0878129
0.17184
0.263279
0.423181
5.36238e-14
4.97435e-13
3.14526e-12
7.58316e-12
5.15105e-11
2.51201e-10
2.96357e-09
8.65242e-08
1.11655e-06
1.9411e-05
0.00017128
0.00106098
0.00497872
0.0152938
0.0449457
0.0868475
0.173795
0.304074
0.422251
6.05072e-15
5.32352e-14
2.87881e-13
9.31311e-13
1.06857e-11
4.28133e-10
1.04715e-08
1.36938e-07
1.73367e-06
1.51565e-05
0.000121265
0.00118834
0.00714819
0.0196662
0.0481493
0.0912471
0.167247
0.303432
0.421868
4.4964e-15
9.32587e-15
3.23075e-14
2.0095e-13
2.67936e-12
1.33544e-10
2.98499e-09
7.10429e-08
1.32837e-06
2.28759e-05
0.000216366
0.00193416
0.00882129
0.0205119
0.0443907
0.0868439
0.169841
0.299531
0.419114
4.21885e-15
7.99361e-15
9.82547e-15
4.35207e-14
5.26412e-13
2.57988e-11
6.87811e-10
1.0594e-08
2.30928e-07
1.41337e-05
0.000464928
0.00268541
0.00909345
0.0176872
0.0364424
0.0801574
0.177704
0.299339
0.411355
3.44169e-15
5.38458e-15
9.04832e-15
1.02141e-14
8.16569e-14
3.88023e-12
9.29004e-11
1.05342e-09
3.11112e-08
3.87591e-06
0.000115109
0.000521297
0.00348209
0.00673151
0.0188978
0.0622663
0.186957
0.306247
0.400702
4.77396e-15
7.21645e-15
5.4956e-15
8.38218e-15
5.61773e-14
8.37275e-13
1.10008e-11
1.12434e-10
4.30085e-09
3.68707e-07
1.02564e-05
0.000105975
0.000239142
0.00072306
0.00406531
0.0291954
0.1546
0.304718
0.388307
3.27516e-15
5.38458e-15
1.05471e-15
1.29896e-14
1.32228e-13
1.48975e-12
2.95185e-11
2.06562e-10
2.95231e-09
3.6998e-08
4.84642e-07
1.08799e-05
3.25462e-05
4.242e-05
0.000207007
0.00544184
0.0660722
0.226543
0.359185
2.05391e-15
4.38538e-15
5.05151e-15
2.67564e-14
3.12195e-13
4.00363e-12
4.6232e-11
6.41185e-10
7.20783e-09
3.06431e-08
1.12106e-07
8.71376e-07
5.39054e-06
1.85417e-05
7.22193e-05
0.000233711
0.00758619
0.0728434
0.224819
2.10942e-15
5.4956e-15
7.38298e-15
9.03722e-14
6.04683e-13
6.17723e-12
4.29645e-11
5.21597e-10
1.11627e-08
8.47323e-08
3.15215e-07
1.83593e-06
7.93239e-06
4.73657e-05
0.000203499
0.000264303
0.000537066
0.0170638
0.071437
0
6.93889e-15
1.06581e-14
3.92464e-14
3.22464e-13
3.7525e-12
4.2678e-11
6.29541e-10
1.35122e-08
1.3532e-07
6.35629e-07
2.48257e-06
8.26116e-06
5.42923e-05
0.000281624
0.000356376
0.000419756
0.00387256
0.0350081
2.16493e-15
7.54952e-15
1.36557e-14
5.42899e-14
6.43041e-13
4.96875e-12
8.62656e-11
1.18396e-09
1.94016e-08
1.20928e-07
8.32035e-07
4.37602e-06
1.20766e-05
8.76e-05
0.000499058
0.000448801
0.000449874
0.00197655
0.0249096
1.4988e-15
6.82787e-15
9.15934e-15
3.44169e-14
3.67206e-13
4.70096e-12
4.32406e-11
7.87383e-10
1.28506e-08
2.69777e-08
2.21552e-07
1.39734e-06
4.45955e-06
8.19278e-05
0.000472956
0.000523885
0.000506743
0.00170146
0.022931
1.88738e-15
6.99441e-15
7.66054e-15
1.18794e-14
8.99281e-14
1.21753e-12
7.40169e-12
8.92456e-11
3.08552e-10
4.17486e-09
1.06317e-07
2.39953e-07
4.07879e-07
1.04118e-05
0.000204032
0.000579553
0.000610814
0.00195119
0.0262552
9.99201e-16
6.10623e-15
1.27676e-15
8.32667e-15
4.62963e-14
5.65714e-13
5.3369e-12
4.42587e-11
1.05186e-10
1.91478e-09
7.00555e-08
5.05837e-08
5.85576e-08
8.06781e-07
3.08819e-05
0.000263971
0.000474789
0.00135506
0.0215589
5.38458e-15
7.99361e-15
0
4.77396e-15
1.08802e-14
7.68274e-14
6.02296e-13
2.66925e-12
1.05922e-11
1.77884e-10
4.71045e-09
3.15349e-09
5.79021e-09
5.35478e-08
3.36668e-06
4.05451e-05
0.000252791
0.000987718
0.0186583
1.59872e-14
4.60743e-15
0
0
0
2.77556e-16
2.22045e-16
8.40439e-14
1.86018e-13
3.85042e-12
5.39139e-11
6.65775e-10
4.57879e-09
1.4977e-08
3.07552e-08
5.97323e-07
4.53759e-05
0.000189111
0.0121647
7.66054e-15
9.21485e-15
0
5.16254e-15
6.99441e-15
7.66054e-15
4.27436e-15
0
6.14508e-14
5.29909e-12
2.91484e-11
8.7464e-10
6.5209e-09
1.67517e-08
2.69718e-08
1.61865e-07
7.54159e-06
1.33293e-05
0.00395698
)
;

boundaryField
{
    leftWall
    {
        type            zeroGradient;
    }
    rightWall
    {
        type            zeroGradient;
    }
    lowerWall
    {
        type            zeroGradient;
    }
    atmosphere
    {
        type            inletOutlet;
        inletValue      uniform 0;
        value           nonuniform List<scalar> 
46
(
0
1.29896e-14
2.7256e-14
2.226e-14
1.64868e-14
1.55431e-14
1.03251e-14
1.28231e-14
1.29341e-14
1.24345e-14
1.28786e-14
1.23235e-14
1.25455e-14
1.32117e-14
1.50435e-14
1.18794e-14
1.42109e-14
1.41553e-14
1.53766e-14
1.39333e-14
1.29341e-14
1.68754e-14
0
0
0
0
0
7.66054e-15
9.21485e-15
0
5.16254e-15
6.99441e-15
7.66054e-15
4.27436e-15
0
6.14508e-14
5.29909e-12
2.91484e-11
8.7464e-10
6.5209e-09
1.67517e-08
2.69718e-08
1.61865e-07
7.54159e-06
1.33293e-05
0.00395698
)
;
    }
    defaultFaces
    {
        type            empty;
    }
}


// ************************************************************************* //
