/*--------------------------------*- C++ -*----------------------------------*\
| =========                 |                                                 |
| \\      /  F ield         | foam-extend: Open Source CFD                    |
|  \\    /   O peration     | Version:     4.1                                |
|   \\  /    A nd           | Web:         http://www.foam-extend.org         |
|    \\/     M anipulation  |                                                 |
\*---------------------------------------------------------------------------*/
FoamFile
{
    version     2.0;
    format      ascii;
    class       volScalarField;
    location    "0.65";
    object      C;
}
// * * * * * * * * * * * * * * * * * * * * * * * * * * * * * * * * * * * * * //

dimensions      [0 0 0 0 0 0 0];

internalField   nonuniform List<scalar> 
2268
(
0.723371
-0.318949
0.665579
0.963469
0.997057
0.999806
0.999344
0.999886
0.999962
0.999346
0.999605
0.999657
0.999676
0.999723
0.999827
0.999919
0.999961
0.999986
0.999918
0.998949
0.99471
0.972618
0.149948
0.572774
-0.582877
0.474897
0.895097
0.985175
0.998416
0.971342
0.997071
0.999386
0.994362
0.998062
0.998819
0.999175
0.999374
0.99965
0.999725
0.999845
0.999934
0.999974
0.999875
0.999946
0.998754
0.967937
0.457314
-0.432093
0.364918
0.800182
0.942186
0.986599
0.498183
0.92021
0.993494
0.973362
0.993913
0.99749
0.998059
0.9984
0.999122
0.999445
0.999677
0.999861
0.999957
0.999948
0.999727
0.997411
0.98308
0.414636
-0.379518
-0.0316561
0.667852
0.816396
0.795675
-0.335501
0.714666
0.956092
0.863649
0.968944
0.993495
0.993567
0.994383
0.99557
0.996861
0.997533
0.99866
0.999522
0.999793
0.999626
0.997692
0.984138
0.407909
-0.334273
-0.365886
0.0718095
0.295606
0.733342
-0.411092
0.520958
0.838619
0.318508
0.828783
0.971908
0.982919
0.980659
0.984559
0.987582
0.991597
0.996578
0.99845
0.999318
0.999137
0.996483
0.984753
0.396254
-0.296891
-0.394574
-0.0667538
-0.0289333
0.437487
-0.0397258
0.366456
0.290772
-0.277238
0.404936
0.938538
0.964401
0.954228
0.957845
0.960428
0.979731
0.992018
0.995672
0.997005
0.994964
0.982361
0.984344
0.202249
-0.332118
-0.464443
0.0185725
-0.25337
0.00500176
-0.452407
-0.0490311
-0.481718
-0.588019
0.487842
0.907832
0.938989
0.919171
0.914288
0.923841
0.956612
0.979501
0.986698
0.976282
0.953068
0.910151
0.983415
0.00711414
-0.423135
-0.556197
-0.178124
-0.288263
-0.492907
-0.600255
-0.0162372
-0.609486
-0.676615
0.0366187
0.652768
0.895706
0.885969
0.887925
0.922405
0.948306
0.964148
0.957225
0.859069
0.787713
0.744826
0.954148
0.0717601
0.0751101
0.071633
0.0774109
0.0966891
0.134571
0.183916
0.234241
0.283729
0.314591
0.322477
0.30126
0.271084
0.245235
0.251604
0.274119
0.271236
0.142658
-0.236825
0.0647361
0.0506583
0.00820903
-0.0114763
0.00146938
-0.0362974
0.0315164
0.217488
0.305733
0.359988
0.39009
0.393203
0.422132
0.416123
0.419564
0.420118
0.408059
0.28478
-0.251547
0.0459627
-0.0168277
-0.202846
-0.123113
-0.211783
-0.401248
-0.26252
0.0337333
0.19155
0.258256
0.273025
0.388663
0.40491
0.359326
0.41588
0.435452
0.412246
0.26012
-0.305428
0.0145931
-0.0997399
-0.248242
-0.199238
-0.483726
-0.63919
-0.665884
-0.49258
-0.5293
-0.0698042
0.158997
0.18184
0.297591
0.136919
0.203188
0.322394
0.382354
0.220375
-0.342931
-0.0344566
-0.216539
-0.339037
-0.155716
-0.333338
-0.621264
-0.804224
-0.825798
-0.835482
-0.680283
-0.341087
-0.481526
-0.099037
-0.362815
-0.121195
0.153024
0.297573
0.19114
-0.391096
-0.104642
-0.424827
-0.575205
-0.320915
-0.109368
-0.548355
-0.760492
-0.870055
-0.868134
-0.85473
-0.796754
-0.739754
-0.625793
-0.553234
-0.310692
0.00400901
0.238273
0.177291
-0.390045
-0.215197
-0.563028
-0.841822
-0.66856
-0.217752
-0.665763
-0.830697
-0.806312
-0.760597
-0.779975
-0.769497
-0.712006
-0.605684
-0.513689
-0.364257
-0.121164
0.163538
0.234446
-0.305006
-0.354866
-0.672706
-0.876515
-0.864084
-0.647778
-0.793309
-0.718779
-0.643961
-0.517555
-0.618467
-0.691793
-0.701564
-0.657176
-0.561652
-0.432619
-0.20171
0.0990717
0.314318
-0.0257089
-0.166449
-0.543332
-0.599054
-0.141374
-0.382043
-0.690222
-0.561979
0.197327
-0.525515
-0.663775
-0.205064
0.520253
0.811946
0.780603
0.80038
0.7823
0.809296
0.795625
0.730228
0.536907
0.579612
0.530602
0.754461
-0.453939
-0.785069
-0.554478
-0.0057487
-0.534297
-0.864563
-0.838275
-0.505491
-0.820646
-0.556152
-0.120958
0.537759
0.701736
0.445793
0.527592
0.424088
0.433114
0.191132
0.109567
0.0376492
0.228267
0.242198
0.387859
-0.557364
-0.828904
-0.892381
-0.410355
-0.859001
-0.933804
-0.918529
-0.855441
-0.932152
-0.865272
-0.459807
0.553095
0.537545
0.179099
0.0582523
-0.207305
-0.450139
-0.591525
-0.460426
-0.25981
-0.0016716
0.0562645
0.171602
-0.243742
-0.56614
-0.925291
-0.874458
-0.955167
-0.95919
-0.950376
-0.947556
-0.951055
-0.736907
-0.0532268
0.390813
-0.196839
-0.447483
-0.53247
-0.720859
-0.829883
-0.829043
-0.755316
-0.637633
-0.429097
-0.166999
-0.0862481
-0.440766
-0.702729
-0.945323
-0.955886
-0.969264
-0.970796
-0.972443
-0.980565
-0.986216
-0.957453
-0.683564
-0.156114
-0.715974
-0.813876
-0.839474
-0.890057
-0.888809
-0.891472
-0.841184
-0.802099
-0.749186
-0.637796
-0.517774
-0.810086
-0.949479
-0.965496
-0.96873
-0.970477
-0.975332
-0.979277
-0.989071
-0.993237
-0.98794
-0.913805
-0.711305
-0.916125
-0.911153
-0.90885
-0.942212
-0.948713
-0.964805
-0.958743
-0.947306
-0.910221
-0.833064
-0.698035
-0.94626
-0.984575
-0.975582
-0.972186
-0.970354
-0.975753
-0.984705
-0.990464
-0.995457
-0.99757
-0.990808
-0.965285
-0.990385
-0.973276
-0.968006
-0.972989
-0.978658
-0.985512
-0.991754
-0.981011
-0.92684
-0.802106
-0.745624
-0.99566
-0.988198
-0.982222
-0.978646
-0.97387
-0.974908
-0.981362
-0.990316
-0.997574
-0.998946
-0.998585
-0.997773
-0.997054
-0.993931
-0.987885
-0.984075
-0.985926
-0.990261
-0.995085
-0.99058
-0.967478
-0.939824
-0.930268
-0.998484
-0.995397
-0.99035
-0.985329
-0.980758
-0.975786
-0.982531
-0.992677
-0.998266
-0.999395
-0.999323
-0.998985
-0.998242
-0.996829
-0.993386
-0.988531
-0.989586
-0.992425
-0.996975
-0.99358
-0.983757
-0.975196
-0.965933
-0.999212
-0.998327
-0.996032
-0.990103
-0.986558
-0.98096
-0.985431
-0.992963
-0.998055
-0.999446
-0.99973
-0.999397
-0.998832
-0.998102
-0.994998
-0.993621
-0.995587
-0.997556
-0.99763
-0.993102
-0.986166
-0.984394
-0.98676
-0.999597
-0.999369
-0.998524
-0.995
-0.994374
-0.992131
-0.991958
-0.995354
-0.998643
-0.999687
-0.999859
-0.9996
-0.999356
-0.998855
-0.995657
-0.997052
-0.998952
-0.998848
-0.998911
-0.998144
-0.996825
-0.997201
-0.9988
-0.999786
-0.999768
-0.999662
-0.998492
-0.998667
-0.998415
-0.99726
-0.998419
-0.999545
-0.999893
-0.999938
-0.999645
-0.999587
-0.999338
-0.998317
-0.999163
-0.999437
-0.999459
-0.999549
-0.99942
-0.999248
-0.999413
-0.99975
-0.999891
-0.999923
-0.999928
-0.999682
-0.99985
-0.999805
-0.999743
-0.999878
-0.999978
-0.999994
-0.999987
-0.999728
-0.999752
-0.999576
-0.999318
-0.99958
-0.999745
-0.999836
-0.99988
-0.999857
-0.999853
-0.999887
-0.999862
-0.999954
-0.99998
-0.999981
-0.999966
-0.999984
-0.999999
-0.999994
-0.999999
-1
-0.999997
-0.999982
-0.999505
-0.999851
-0.999803
-0.999749
-0.999807
-0.99989
-0.999936
-0.999979
-0.999983
-0.999989
-0.999979
-0.999944
-0.999987
-0.999996
-0.999996
-0.999998
-0.999999
-1
-1
-1
-1
-0.999995
-0.99998
-0.999854
-0.999958
-0.999922
-0.999934
-0.999963
-0.999966
-0.999961
-0.999981
-0.999996
-0.999999
-0.999996
-0.999983
-0.999996
-0.999999
-0.999999
-1
-1
-1
-1
-1
-0.999999
-0.999987
-0.99997
-0.999901
-0.999987
-0.99998
-0.999996
-0.999998
-0.999997
-0.999997
-0.999996
-0.999999
-1
-1
-0.999998
-0.999999
-1
-1
-1
-1
-1
-1
-1
-1
-0.999997
-0.999995
-0.999997
-0.999999
-0.999999
-0.999999
-1
-1
-1
-1
-1
-1
-1
-1
-1
-1
-1
-1
-1
-1
-1
-1
-0.999999
-0.999999
-0.999999
-0.999999
-1
-1
-1
-1
-1
-1
-1
-1
-1
-1
-1
-1
-1
-1
-1
-1
-1
-1
-1
-1
-1
-1
-1
-1
-1
-1
-1
-1
-1
-1
-1
-1
-1
-1
-1
-1
-1
-1
-1
-1
-1
-1
-1
-1
-1
-1
-1
-1
-1
-1
-1
-1
-1
-1
-1
-1
-1
-1
-1
-1
-1
-1
-1
-1
-1
-1
-1
-1
-1
-1
-1
-1
-1
-1
-1
-1
-1
-1
-1
-1
-1
-1
-1
-1
-1
-1
-1
-1
-1
-1
-1
-1
-1
-1
-1
-1
-1
-1
-1
-1
-1
-1
-1
-1
-1
-1
-1
-1
-1
-1
-1
-1
-1
-1
-1
-1
-1
-1
-1
-1
-1
-1
-1
-1
-1
-1
-1
-1
-1
-1
-1
-1
-1
-1
-1
-1
-1
-1
-1
-1
-1
-1
-1
-1
-1
-1
-1
-1
-1
-1
-1
-1
-1
-1
-1
-1
-1
-1
-1
-1
-1
-1
-1
-1
-1
-1
-1
-1
-1
-1
-1
-1
-1
-1
-1
-1
-1
-1
-1
-1
-1
-1
-1
-1
-1
-1
-1
-1
-1
-1
-1
-1
-1
-1
-1
-1
-1
-1
-1
-1
-1
-1
-1
-1
-1
-1
-1
-1
-1
-1
-1
-1
-1
-1
-1
-1
-1
-1
-1
-1
-1
-1
-1
-1
-1
-1
-1
-1
-1
-1
-1
-1
-1
-1
-1
-1
-1
-1
-1
-1
-1
-1
-1
-1
-1
-1
-1
-1
-1
-1
-1
-1
-1
-1
-1
-1
-1
-1
-1
-1
-1
-1
-1
-1
-1
-1
-1
-1
-1
-1
-1
-1
-1
-1
-1
-1
-1
-1
-1
-1
-1
-1
-1
-1
-1
-1
-1
-1
-1
-1
-1
-1
-1
-1
-1
-1
-1
-1
-1
-1
-1
-1
-1
-1
-1
-1
-1
-1
-1
-1
-1
-1
-1
-1
-1
-1
-1
-1
-1
-1
-1
-1
-1
-1
-1
-1
-1
-1
-1
-1
-1
-1
-1
-1
-1
-1
-1
-1
-1
-1
-1
-1
-1
-1
-1
-1
-1
-1
-1
-1
-1
-1
-1
-1
-1
-1
-1
-1
-1
-1
-1
-1
-1
-1
-1
-1
-1
-1
-1
-1
-1
-1
-1
-1
-1
-1
-1
-1
-1
-1
-1
-1
-1
-1
-1
-1
-1
-1
-1
-1
-1
-1
-1
-1
-1
-1
-1
-1
-1
-1
-1
-1
-1
-1
-1
-1
-1
-1
-1
-1
-1
-1
-1
-1
-1
-1
-1
-1
-1
-1
-1
-1
-1
-1
-1
-1
-1
-1
-1
-1
-1
-1
-1
-1
-1
-1
-1
-1
-1
-1
-1
-1
-1
-1
-1
-1
-1
-1
-1
-1
-1
-1
-1
-1
-1
-1
-1
-1
-1
-1
-1
-1
-1
-1
-1
-1
-1
-1
-1
-1
-1
-1
-1
-1
-1
-1
-1
-1
-1
-1
-1
-1
-1
-1
-1
-1
-1
-1
-1
-1
-1
-1
-1
-1
-1
-1
-1
-1
-1
-1
-1
-1
-1
-1
-1
-1
-1
-1
-1
-1
-1
-1
-1
-1
-1
-1
-1
-1
-1
-1
-1
-1
-1
-1
-1
-1
-1
-1
-1
-1
-1
-1
-1
-1
-1
-1
-1
-1
-1
-1
-1
-1
-1
-1
-1
-1
-1
-1
-1
-1
-1
-1
-1
-1
-1
-1
-1
-1
-1
-1
-1
-1
-1
0.86652
0.916482
0.560977
-0.627723
0.63382
0.795768
0.757821
0.58463
0.291031
0.366343
0.499781
0.502318
-0.0152755
0.00549941
0.0148365
0.0045919
-0.423219
-0.375374
-0.347071
-0.331506
-0.579313
-0.509304
-0.487054
-0.525324
-0.725071
-0.724304
-0.740984
-0.825906
-0.926153
-0.923461
-0.905167
-0.884199
-0.949178
-0.932738
-0.896906
-0.870437
-0.986026
-0.97981
-0.965793
-0.957814
-0.998959
-0.997835
-0.995483
-0.995276
-0.999742
-0.999466
-0.999154
-0.99866
-0.999527
-0.998928
-0.997676
-0.995695
-0.999815
-0.999521
-0.998829
-0.997599
-0.99993
-0.999799
-0.999485
-0.998877
-0.999992
-0.999973
-0.999915
-0.999794
-0.999999
-0.999997
-0.999989
-0.999974
-1
-1
-0.999999
-0.999998
-1
-1
-1
-1
-1
-1
-1
-1
-1
-1
-1
-1
-1
-1
-1
-1
-1
-1
-1
-1
-1
-1
-1
-1
-1
-1
-1
-1
-1
-1
-1
-1
-1
-1
-1
-1
-1
-1
-1
-1
-1
-1
-1
-1
-1
-1
-1
-1
-1
-1
-1
-1
-1
-1
-1
-1
-1
-1
-1
-1
-1
-1
-1
-1
-1
-1
-1
-1
-1
-1
-1
-1
-1
-1
-1
-1
-1
-1
-1
-1
-1
-1
-1
-1
-1
-1
-1
-1
-1
-1
-1
-1
-1
-1
-1
-1
-0.467095
-0.555221
-0.559852
-0.58023
-0.591626
-0.549056
-0.459365
-0.345054
-0.0502751
-0.248017
-0.294891
-0.381557
-0.375576
-0.434064
-0.407357
-0.267544
0.0180425
0.348916
0.226947
0.272451
0.535886
0.615898
0.625619
0.623411
0.62
0.54844
0.5402
0.612351
0.562024
0.557675
0.538685
0.506867
0.312609
0.104048
0.144537
0.271034
0.401964
0.383031
0.552676
0.651573
0.688713
0.779306
0.824063
0.828066
0.774126
0.745215
0.708252
0.673551
0.668867
0.589527
0.625845
0.659694
0.656352
0.644425
0.607983
0.485116
0.365651
0.125134
0.263677
0.304865
0.650218
0.762886
0.741886
0.505031
0.307905
-0.113595
-0.0873525
-0.0230604
0.0796859
0.126572
0.238794
0.24478
0.156145
0.170024
0.303163
0.32333
-0.274111
-0.351276
-0.360193
0.0518801
0.493056
0.517261
0.272533
-0.111072
-0.564313
-0.548338
-0.467055
-0.227263
-0.202496
-0.247424
-0.375339
-0.392875
-0.374923
-0.0111268
0.267159
-0.639891
-0.71462
-0.695908
-0.566085
-0.182741
0.193866
0.0559683
-0.349981
-0.720989
-0.755595
-0.708432
-0.47143
-0.339157
-0.356711
-0.467598
-0.588858
-0.578363
-0.0711464
0.245655
-0.870849
-0.83878
-0.764728
-0.600231
-0.191899
-0.0455503
-0.315849
-0.646954
-0.849662
-0.878143
-0.832635
-0.624256
-0.575758
-0.626442
-0.65821
-0.728247
-0.51387
-0.0489328
0.227539
-0.81958
-0.65289
-0.46099
-0.370912
-0.193313
-0.272344
-0.621884
-0.81141
-0.917057
-0.939188
-0.901425
-0.838512
-0.827377
-0.786684
-0.779827
-0.716702
-0.418623
0.00763185
0.213233
-0.861291
-0.641631
-0.530242
-0.713045
-0.408897
-0.560794
-0.786694
-0.912692
-0.948114
-0.958305
-0.941511
-0.925816
-0.895475
-0.848943
-0.781682
-0.683608
-0.408795
0.0123786
0.205259
-0.963463
-0.857295
-0.842179
-0.906704
-0.780405
-0.869076
-0.950864
-0.965938
-0.961856
-0.95512
-0.932875
-0.916179
-0.896576
-0.849516
-0.77887
-0.620488
-0.313384
0.0153225
0.203605
-0.994137
-0.984838
-0.984393
-0.973348
-0.957277
-0.974063
-0.975233
-0.960305
-0.947082
-0.933391
-0.910949
-0.880745
-0.859549
-0.838258
-0.79315
-0.641815
-0.338031
0.0356532
0.204382
-0.998029
-0.996892
-0.993576
-0.989338
-0.984014
-0.97029
-0.953457
-0.92734
-0.905103
-0.87986
-0.854827
-0.825331
-0.77614
-0.726303
-0.693124
-0.542493
-0.360433
-0.0108878
0.201411
-0.991964
-0.986649
-0.982247
-0.973285
-0.962431
-0.946353
-0.926209
-0.907916
-0.890016
-0.865245
-0.851699
-0.846998
-0.83094
-0.754116
-0.698941
-0.453849
-0.138719
-0.00276915
0.200271
-0.995104
-0.990128
-0.984954
-0.977428
-0.969377
-0.96572
-0.96799
-0.976053
-0.972866
-0.95688
-0.93101
-0.925316
-0.917595
-0.820651
-0.715571
-0.568753
-0.0514059
0.0377047
0.205788
-0.997516
-0.993814
-0.989599
-0.9841
-0.980168
-0.980379
-0.994165
-0.996762
-0.996928
-0.995611
-0.988785
-0.978138
-0.97297
-0.918618
-0.748789
-0.556994
-0.212294
0.110063
0.219857
-0.99956
-0.998381
-0.996875
-0.993558
-0.990202
-0.990722
-0.998404
-0.998776
-0.998637
-0.998439
-0.997536
-0.992868
-0.990721
-0.969805
-0.812376
-0.370451
-0.160538
0.179076
0.231501
-0.999941
-0.999734
-0.99918
-0.998408
-0.995973
-0.995091
-0.999165
-0.999463
-0.999416
-0.999593
-0.99965
-0.998975
-0.998443
-0.992482
-0.886381
-0.371477
-0.0879904
0.203811
0.233113
-0.999992
-0.999968
-0.999824
-0.999631
-0.999102
-0.998659
-0.999497
-0.99982
-0.999814
-0.999828
-0.999871
-0.999682
-0.998371
-0.992996
-0.935215
-0.38688
0.0511048
0.20545
0.228923
-0.999999
-0.999997
-0.999969
-0.999925
-0.999875
-0.99976
-0.999892
-0.999951
-0.999949
-0.999935
-0.999916
-0.999478
-0.995027
-0.969239
-0.775618
-0.181022
0.0875398
0.177268
0.207377
-1
-1
-0.999997
-0.999988
-0.999976
-0.999985
-0.999987
-0.999988
-0.999982
-0.999972
-0.999963
-0.999849
-0.998911
-0.994678
-0.971919
-0.761568
-0.379513
-0.190109
0.114789
-1
-1
-1
-0.999998
-0.999998
-0.999999
-0.999998
-0.999996
-0.999992
-0.999986
-0.999966
-0.999758
-0.99847
-0.994667
-0.988456
-0.976332
-0.907199
-0.624235
0.0248626
-1
-1
-1
-1
-1
-1
-0.999999
-0.999999
-0.999997
-0.999995
-0.999971
-0.999661
-0.998116
-0.99377
-0.984802
-0.959564
-0.928635
-0.5097
-0.0425652
-1
-1
-1
-1
-1
-1
-1
-1
-0.999999
-0.999993
-0.999895
-0.999347
-0.996445
-0.986571
-0.970009
-0.897459
-0.820439
-0.429641
-0.100845
-1
-1
-1
-1
-1
-1
-1
-1
-0.999998
-0.99998
-0.999823
-0.998902
-0.994294
-0.974848
-0.942917
-0.84736
-0.760248
-0.427841
-0.140857
-1
-1
-1
-1
-1
-1
-1
-1
-0.999999
-0.999991
-0.999892
-0.998951
-0.993651
-0.968675
-0.916014
-0.824374
-0.65632
-0.473443
-0.153638
-1
-1
-1
-1
-1
-1
-1
-1
-0.999998
-0.999961
-0.999657
-0.997878
-0.990043
-0.969412
-0.910109
-0.826305
-0.652409
-0.391851
-0.155498
-1
-1
-1
-1
-1
-1
-1
-1
-0.999997
-0.99997
-0.999757
-0.997623
-0.985704
-0.960668
-0.903701
-0.817506
-0.665505
-0.393136
-0.156264
-1
-1
-1
-1
-1
-1
-1
-1
-0.999997
-0.999954
-0.999567
-0.996132
-0.982357
-0.958976
-0.911219
-0.826312
-0.660317
-0.400938
-0.161772
-1
-1
-1
-1
-1
-1
-1
-1
-1
-0.999972
-0.99907
-0.994629
-0.981813
-0.964626
-0.927115
-0.839685
-0.644592
-0.401322
-0.177289
-1
-1
-1
-1
-1
-1
-1
-1
-1
-0.999992
-0.99977
-0.998957
-0.993036
-0.986537
-0.962204
-0.875467
-0.626086
-0.387507
-0.198597
-1
-1
-1
-1
-1
-1
-1
-1
-1
-0.999999
-0.999979
-0.999788
-0.999522
-0.998554
-0.991869
-0.941609
-0.690801
-0.390565
-0.223386
-1
-1
-1
-1
-1
-1
-1
-1
-1
-1
-0.999999
-0.999978
-0.999935
-0.999915
-0.999586
-0.989116
-0.867856
-0.546915
-0.28163
-1
-1
-1
-1
-1
-1
-1
-1
-1
-1
-1
-0.999998
-0.999989
-0.999963
-0.999856
-0.999533
-0.984828
-0.854313
-0.550361
-1
-1
-1
-1
-1
-1
-1
-1
-1
-1
-0.999999
-0.999996
-0.999984
-0.999905
-0.999593
-0.999471
-0.998926
-0.965872
-0.857126
-1
-1
-1
-1
-1
-1
-1
-1
-1
-1
-0.999999
-0.999995
-0.999983
-0.999891
-0.999437
-0.999287
-0.99916
-0.992255
-0.929984
-1
-1
-1
-1
-1
-1
-1
-1
-1
-1
-0.999998
-0.999991
-0.999976
-0.999825
-0.999002
-0.999102
-0.9991
-0.996047
-0.950181
-1
-1
-1
-1
-1
-1
-1
-1
-1
-1
-1
-0.999997
-0.999991
-0.999836
-0.999054
-0.998952
-0.998987
-0.996597
-0.954138
-1
-1
-1
-1
-1
-1
-1
-1
-1
-1
-1
-1
-0.999999
-0.999979
-0.999592
-0.998841
-0.998778
-0.996098
-0.94749
-1
-1
-1
-1
-1
-1
-1
-1
-1
-1
-1
-1
-1
-0.999998
-0.999938
-0.999472
-0.99905
-0.99729
-0.956882
-1
-1
-1
-1
-1
-1
-1
-1
-1
-1
-1
-1
-1
-1
-0.999993
-0.999919
-0.999494
-0.998025
-0.962683
-1
-1
-1
-1
-1
-1
-1
-1
-1
-1
-1
-1
-1
-1
-1
-0.999999
-0.999909
-0.999622
-0.975671
-1
-1
-1
-1
-1
-1
-1
-1
-1
-1
-1
-1
-1
-1
-1
-1
-0.999985
-0.999973
-0.992086
)
;

boundaryField
{
    leftWall
    {
        type            zeroGradient;
    }
    rightWall
    {
        type            zeroGradient;
    }
    lowerWall
    {
        type            zeroGradient;
    }
    atmosphere
    {
        type            zeroGradient;
    }
    defaultFaces
    {
        type            empty;
    }
}


// ************************************************************************* //
