/*--------------------------------*- C++ -*----------------------------------*\
| =========                 |                                                 |
| \\      /  F ield         | foam-extend: Open Source CFD                    |
|  \\    /   O peration     | Version:     4.1                                |
|   \\  /    A nd           | Web:         http://www.foam-extend.org         |
|    \\/     M anipulation  |                                                 |
\*---------------------------------------------------------------------------*/
FoamFile
{
    version     2.0;
    format      ascii;
    class       volScalarField;
    location    "0.65";
    object      C_0;
}
// * * * * * * * * * * * * * * * * * * * * * * * * * * * * * * * * * * * * * //

dimensions      [0 0 0 0 0 0 0];

internalField   nonuniform List<scalar> 
2268
(
0.773782
-0.27173
0.689718
0.967254
0.997414
0.999829
0.999435
0.999901
0.999963
0.999364
0.99961
0.999658
0.999677
0.999724
0.999828
0.999919
0.999961
0.999986
0.999924
0.998982
0.994776
0.97266
0.149802
0.561677
-0.591493
0.479708
0.899768
0.986187
0.998573
0.974688
0.997452
0.999409
0.994607
0.998113
0.998827
0.999174
0.999372
0.999648
0.999724
0.999845
0.999934
0.999975
0.999877
0.999947
0.998782
0.967935
0.45797
-0.438028
0.370421
0.804652
0.94399
0.987752
0.5386
0.929549
0.994084
0.974637
0.99429
0.997512
0.998042
0.998379
0.999111
0.999442
0.999676
0.99986
0.999957
0.999949
0.999734
0.997436
0.983078
0.413667
-0.383438
-0.0100328
0.684209
0.818179
0.835217
-0.312065
0.722503
0.95718
0.870538
0.97059
0.993475
0.993435
0.994257
0.995484
0.996817
0.997505
0.998643
0.999513
0.999794
0.99963
0.997728
0.984135
0.40756
-0.342641
-0.364287
0.0861956
0.30293
0.738288
-0.421601
0.523684
0.840374
0.345993
0.831855
0.97247
0.982583
0.98021
0.984251
0.987438
0.991485
0.996532
0.998431
0.999322
0.99915
0.996631
0.984754
0.395456
-0.304041
-0.392653
-0.0498825
-0.0320941
0.420882
-0.0576488
0.3626
0.293668
-0.267291
0.421282
0.940123
0.963819
0.953418
0.957089
0.959876
0.979288
0.991867
0.995641
0.997094
0.99513
0.983211
0.98435
0.195164
-0.343994
-0.457662
0.0273898
-0.259854
-0.00423595
-0.458325
-0.044092
-0.474689
-0.592921
0.484506
0.90553
0.938081
0.918259
0.913236
0.923271
0.955867
0.979303
0.98671
0.977563
0.953591
0.913114
0.983564
0.00906389
-0.431305
-0.551298
-0.160861
-0.290737
-0.495785
-0.601513
-0.00407503
-0.608383
-0.680272
0.00911396
0.640615
0.894606
0.884633
0.886343
0.921617
0.947582
0.964194
0.958669
0.863938
0.787717
0.747773
0.955227
0.0715335
0.0752697
0.0714826
0.0758004
0.093117
0.129158
0.178112
0.229091
0.280103
0.313675
0.321996
0.303858
0.273697
0.244286
0.247975
0.269266
0.265733
0.135712
-0.243895
0.0636153
0.0510456
0.00973519
-0.00977898
0.00092373
-0.0365172
0.0276
0.213663
0.300717
0.356148
0.389396
0.395313
0.422634
0.416113
0.419573
0.419624
0.410011
0.286841
-0.256155
0.0430785
-0.01902
-0.206889
-0.11964
-0.208349
-0.399555
-0.269295
0.0256569
0.17967
0.249521
0.264993
0.389705
0.405597
0.360716
0.419193
0.437615
0.416524
0.266131
-0.3081
0.0090563
-0.104926
-0.250554
-0.188483
-0.474682
-0.637453
-0.666653
-0.484475
-0.536975
-0.0977359
0.15537
0.188205
0.298408
0.140724
0.211936
0.328801
0.38879
0.225891
-0.344562
-0.0439334
-0.229536
-0.34332
-0.154524
-0.32006
-0.61969
-0.803896
-0.824802
-0.834236
-0.699521
-0.357027
-0.473483
-0.0921088
-0.355237
-0.111669
0.160179
0.304732
0.197566
-0.392034
-0.119757
-0.443844
-0.582695
-0.323432
-0.104349
-0.551802
-0.762441
-0.870759
-0.86935
-0.857136
-0.798053
-0.736256
-0.623008
-0.5492
-0.302154
0.0117876
0.244486
0.182794
-0.389993
-0.237403
-0.577475
-0.843481
-0.673537
-0.219256
-0.672731
-0.831837
-0.809867
-0.767056
-0.780304
-0.768475
-0.706365
-0.598689
-0.508245
-0.357195
-0.112369
0.169912
0.238034
-0.305712
-0.37257
-0.67643
-0.878057
-0.866343
-0.660163
-0.795277
-0.716297
-0.64323
-0.525879
-0.623412
-0.695602
-0.702555
-0.65407
-0.556183
-0.425698
-0.191741
0.107427
0.317077
-0.030721
-0.150763
-0.547421
-0.600597
-0.129062
-0.377237
-0.689283
-0.571114
0.198403
-0.537565
-0.666464
-0.202095
0.523922
0.80971
0.776588
0.797285
0.779832
0.807536
0.799543
0.737627
0.548585
0.580267
0.530916
0.759009
-0.444788
-0.786018
-0.563685
-0.00130509
-0.538837
-0.864251
-0.844551
-0.518013
-0.826458
-0.550772
-0.114653
0.545154
0.698389
0.438559
0.520206
0.417101
0.427677
0.195798
0.124518
0.0469534
0.22928
0.242477
0.38865
-0.56238
-0.832576
-0.895833
-0.424826
-0.862242
-0.933816
-0.919619
-0.859261
-0.931663
-0.865613
-0.446101
0.558429
0.531819
0.166214
0.045381
-0.219179
-0.453679
-0.584059
-0.446411
-0.247821
0.00160148
0.0570728
0.171259
-0.23687
-0.578797
-0.930952
-0.883038
-0.955638
-0.959578
-0.951034
-0.94804
-0.954477
-0.772502
-0.0830606
0.379478
-0.191766
-0.457873
-0.543932
-0.731051
-0.829046
-0.82591
-0.748496
-0.629111
-0.417126
-0.160825
-0.0827744
-0.413477
-0.694773
-0.945538
-0.957233
-0.969387
-0.970925
-0.972442
-0.980307
-0.986419
-0.962725
-0.701496
-0.176499
-0.70394
-0.813404
-0.842646
-0.890951
-0.885901
-0.887483
-0.835194
-0.796593
-0.743057
-0.630466
-0.506972
-0.793577
-0.946717
-0.965783
-0.968912
-0.970365
-0.97524
-0.979099
-0.988866
-0.993217
-0.9893
-0.920798
-0.732321
-0.911845
-0.909547
-0.908133
-0.942164
-0.947337
-0.963465
-0.957332
-0.945615
-0.907035
-0.825479
-0.683798
-0.942553
-0.984639
-0.975958
-0.972382
-0.970341
-0.975586
-0.984523
-0.990322
-0.995368
-0.997686
-0.992016
-0.970073
-0.989724
-0.972286
-0.967365
-0.972746
-0.978503
-0.985384
-0.991651
-0.980232
-0.92272
-0.796684
-0.744746
-0.995658
-0.98847
-0.982553
-0.978997
-0.974058
-0.974822
-0.981249
-0.990094
-0.997496
-0.998965
-0.998599
-0.997858
-0.996936
-0.993679
-0.987496
-0.983951
-0.985852
-0.990302
-0.995094
-0.990473
-0.966912
-0.939342
-0.931703
-0.998495
-0.995537
-0.990562
-0.985546
-0.981014
-0.975866
-0.982467
-0.992582
-0.998249
-0.999399
-0.99932
-0.998959
-0.998194
-0.996739
-0.993194
-0.988365
-0.989486
-0.99247
-0.997011
-0.993722
-0.983966
-0.975421
-0.966437
-0.999215
-0.998373
-0.996149
-0.990291
-0.986773
-0.981206
-0.985525
-0.992992
-0.998066
-0.999456
-0.999732
-0.999377
-0.998799
-0.998041
-0.994886
-0.993536
-0.995529
-0.997557
-0.997701
-0.993338
-0.986081
-0.984039
-0.986452
-0.999599
-0.999388
-0.998587
-0.995136
-0.994457
-0.992275
-0.992038
-0.995397
-0.998666
-0.999697
-0.999861
-0.999587
-0.999337
-0.998812
-0.99554
-0.997001
-0.998949
-0.998855
-0.998935
-0.998165
-0.996757
-0.997088
-0.998754
-0.999787
-0.999775
-0.999676
-0.998547
-0.998692
-0.998436
-0.997263
-0.998438
-0.999552
-0.999896
-0.999938
-0.999635
-0.999578
-0.99932
-0.998267
-0.99915
-0.999435
-0.999461
-0.999555
-0.999429
-0.999233
-0.999381
-0.999744
-0.999891
-0.999926
-0.999931
-0.999698
-0.999855
-0.999806
-0.999743
-0.99988
-0.999978
-0.999994
-0.999986
-0.999721
-0.999749
-0.99957
-0.99931
-0.999574
-0.999741
-0.999834
-0.999883
-0.999859
-0.99985
-0.999885
-0.999878
-0.999954
-0.99998
-0.999982
-0.999969
-0.999985
-0.999999
-0.999994
-0.999999
-1
-0.999997
-0.999981
-0.999494
-0.999851
-0.999801
-0.999746
-0.999806
-0.999889
-0.999934
-0.99998
-0.999984
-0.999989
-0.99998
-0.999951
-0.999988
-0.999996
-0.999996
-0.999998
-0.999999
-1
-1
-1
-1
-0.999995
-0.99998
-0.999852
-0.999958
-0.999922
-0.999934
-0.999963
-0.999966
-0.999961
-0.999981
-0.999996
-0.999999
-0.999996
-0.999985
-0.999996
-0.999999
-0.999999
-1
-1
-1
-1
-1
-0.999999
-0.999987
-0.99997
-0.999899
-0.999987
-0.999981
-0.999996
-0.999998
-0.999997
-0.999997
-0.999996
-0.999999
-1
-1
-0.999999
-0.999999
-1
-1
-1
-1
-1
-1
-1
-1
-0.999997
-0.999995
-0.999997
-0.999999
-0.999999
-0.999999
-1
-1
-1
-1
-1
-1
-1
-1
-1
-1
-1
-1
-1
-1
-1
-1
-0.999999
-0.999999
-0.999999
-0.999999
-1
-1
-1
-1
-1
-1
-1
-1
-1
-1
-1
-1
-1
-1
-1
-1
-1
-1
-1
-1
-1
-1
-1
-1
-1
-1
-1
-1
-1
-1
-1
-1
-1
-1
-1
-1
-1
-1
-1
-1
-1
-1
-1
-1
-1
-1
-1
-1
-1
-1
-1
-1
-1
-1
-1
-1
-1
-1
-1
-1
-1
-1
-1
-1
-1
-1
-1
-1
-1
-1
-1
-1
-1
-1
-1
-1
-1
-1
-1
-1
-1
-1
-1
-1
-1
-1
-1
-1
-1
-1
-1
-1
-1
-1
-1
-1
-1
-1
-1
-1
-1
-1
-1
-1
-1
-1
-1
-1
-1
-1
-1
-1
-1
-1
-1
-1
-1
-1
-1
-1
-1
-1
-1
-1
-1
-1
-1
-1
-1
-1
-1
-1
-1
-1
-1
-1
-1
-1
-1
-1
-1
-1
-1
-1
-1
-1
-1
-1
-1
-1
-1
-1
-1
-1
-1
-1
-1
-1
-1
-1
-1
-1
-1
-1
-1
-1
-1
-1
-1
-1
-1
-1
-1
-1
-1
-1
-1
-1
-1
-1
-1
-1
-1
-1
-1
-1
-1
-1
-1
-1
-1
-1
-1
-1
-1
-1
-1
-1
-1
-1
-1
-1
-1
-1
-1
-1
-1
-1
-1
-1
-1
-1
-1
-1
-1
-1
-1
-1
-1
-1
-1
-1
-1
-1
-1
-1
-1
-1
-1
-1
-1
-1
-1
-1
-1
-1
-1
-1
-1
-1
-1
-1
-1
-1
-1
-1
-1
-1
-1
-1
-1
-1
-1
-1
-1
-1
-1
-1
-1
-1
-1
-1
-1
-1
-1
-1
-1
-1
-1
-1
-1
-1
-1
-1
-1
-1
-1
-1
-1
-1
-1
-1
-1
-1
-1
-1
-1
-1
-1
-1
-1
-1
-1
-1
-1
-1
-1
-1
-1
-1
-1
-1
-1
-1
-1
-1
-1
-1
-1
-1
-1
-1
-1
-1
-1
-1
-1
-1
-1
-1
-1
-1
-1
-1
-1
-1
-1
-1
-1
-1
-1
-1
-1
-1
-1
-1
-1
-1
-1
-1
-1
-1
-1
-1
-1
-1
-1
-1
-1
-1
-1
-1
-1
-1
-1
-1
-1
-1
-1
-1
-1
-1
-1
-1
-1
-1
-1
-1
-1
-1
-1
-1
-1
-1
-1
-1
-1
-1
-1
-1
-1
-1
-1
-1
-1
-1
-1
-1
-1
-1
-1
-1
-1
-1
-1
-1
-1
-1
-1
-1
-1
-1
-1
-1
-1
-1
-1
-1
-1
-1
-1
-1
-1
-1
-1
-1
-1
-1
-1
-1
-1
-1
-1
-1
-1
-1
-1
-1
-1
-1
-1
-1
-1
-1
-1
-1
-1
-1
-1
-1
-1
-1
-1
-1
-1
-1
-1
-1
-1
-1
-1
-1
-1
-1
-1
-1
-1
-1
-1
-1
-1
-1
-1
-1
-1
-1
-1
-1
-1
-1
-1
-1
-1
-1
-1
-1
-1
-1
-1
-1
-1
-1
-1
-1
-1
-1
-1
-1
-1
-1
-1
-1
-1
-1
-1
-1
-1
-1
-1
-1
-1
-1
-1
-1
-1
-1
-1
-1
-1
-1
-1
-1
-1
-1
-1
-1
-1
-1
-1
-1
-1
-1
-1
-1
-1
-1
-1
-1
-1
-1
-1
-1
-1
-1
-1
-1
-1
-1
-1
-1
-1
-1
-1
-1
-1
-1
-1
-1
-1
-1
-1
-1
-1
-1
-1
-1
-1
-1
-1
-1
-1
-1
-1
0.867733
0.916909
0.569388
-0.631536
0.63179
0.798625
0.760487
0.590429
0.290865
0.368577
0.501336
0.504468
-0.0121632
0.00831114
0.0169834
0.0064558
-0.413701
-0.36883
-0.343186
-0.328447
-0.566044
-0.503898
-0.488568
-0.537171
-0.726891
-0.729008
-0.750168
-0.836978
-0.928259
-0.925777
-0.908239
-0.884903
-0.949769
-0.932846
-0.895522
-0.868346
-0.986145
-0.979348
-0.964182
-0.955577
-0.998939
-0.997708
-0.99522
-0.995029
-0.999749
-0.999482
-0.9992
-0.998772
-0.999602
-0.999126
-0.998065
-0.996284
-0.999848
-0.99962
-0.999054
-0.997983
-0.999943
-0.999839
-0.999581
-0.999066
-0.999993
-0.999979
-0.999933
-0.999834
-0.999999
-0.999998
-0.999992
-0.999979
-1
-1
-0.999999
-0.999999
-1
-1
-1
-1
-1
-1
-1
-1
-1
-1
-1
-1
-1
-1
-1
-1
-1
-1
-1
-1
-1
-1
-1
-1
-1
-1
-1
-1
-1
-1
-1
-1
-1
-1
-1
-1
-1
-1
-1
-1
-1
-1
-1
-1
-1
-1
-1
-1
-1
-1
-1
-1
-1
-1
-1
-1
-1
-1
-1
-1
-1
-1
-1
-1
-1
-1
-1
-1
-1
-1
-1
-1
-1
-1
-1
-1
-1
-1
-1
-1
-1
-1
-1
-1
-1
-1
-1
-1
-1
-1
-1
-1
-1
-1
-1
-1
-0.474439
-0.558072
-0.561253
-0.581646
-0.591065
-0.54681
-0.450711
-0.334406
-0.0529695
-0.251864
-0.30028
-0.383261
-0.380054
-0.437818
-0.405101
-0.256821
0.0306335
0.351446
0.224597
0.286525
0.538989
0.617885
0.631364
0.627203
0.61874
0.552419
0.550622
0.613667
0.559851
0.556226
0.537868
0.501631
0.290335
0.101653
0.150496
0.279724
0.404283
0.382476
0.555752
0.653202
0.691011
0.781401
0.825015
0.828249
0.772387
0.745552
0.715433
0.686102
0.680217
0.599951
0.634927
0.662096
0.656972
0.642308
0.600511
0.469943
0.361131
0.127042
0.262408
0.311991
0.658625
0.765177
0.741944
0.492933
0.300615
-0.105447
-0.0654573
0.00395792
0.0988262
0.141325
0.250128
0.241695
0.14312
0.156018
0.287772
0.318657
-0.280432
-0.359363
-0.357682
0.0799965
0.511548
0.521238
0.257367
-0.125956
-0.563819
-0.536858
-0.446096
-0.210486
-0.197918
-0.251121
-0.38406
-0.400813
-0.381207
-0.0231469
0.263994
-0.652034
-0.717368
-0.69347
-0.550225
-0.150775
0.203795
0.0512248
-0.363944
-0.722204
-0.749063
-0.695213
-0.45089
-0.333598
-0.359318
-0.478789
-0.5961
-0.580849
-0.076091
0.243362
-0.873277
-0.838687
-0.760892
-0.584947
-0.171598
-0.0446478
-0.328046
-0.650286
-0.848544
-0.873977
-0.824809
-0.614502
-0.575486
-0.630506
-0.665621
-0.731637
-0.517235
-0.0521616
0.225765
-0.817034
-0.645723
-0.453026
-0.359377
-0.187145
-0.280805
-0.62888
-0.810876
-0.915984
-0.937865
-0.899497
-0.83611
-0.829241
-0.789864
-0.783211
-0.721933
-0.429054
0.00509516
0.21213
-0.856999
-0.63432
-0.527625
-0.707058
-0.419493
-0.572473
-0.78754
-0.91189
-0.947786
-0.958536
-0.94223
-0.927131
-0.897994
-0.852735
-0.785409
-0.688531
-0.418151
0.00822511
0.204837
-0.961513
-0.852665
-0.839708
-0.903593
-0.793189
-0.874925
-0.950322
-0.966047
-0.962141
-0.956725
-0.935094
-0.918841
-0.899938
-0.854545
-0.784833
-0.628149
-0.318059
0.0130587
0.203574
-0.993984
-0.984399
-0.984402
-0.973799
-0.960352
-0.975396
-0.976187
-0.96196
-0.948775
-0.935835
-0.914221
-0.883877
-0.862387
-0.841312
-0.797801
-0.648736
-0.34586
0.0349291
0.204415
-0.998078
-0.99694
-0.993864
-0.989917
-0.985111
-0.971511
-0.95526
-0.929752
-0.907598
-0.882556
-0.857422
-0.827872
-0.778857
-0.727632
-0.694065
-0.540833
-0.358582
-0.0104641
0.201675
-0.992764
-0.987383
-0.982894
-0.97472
-0.964309
-0.948082
-0.927921
-0.909027
-0.891032
-0.86569
-0.851046
-0.845104
-0.829214
-0.753304
-0.698382
-0.45136
-0.132711
-0.000279324
0.201077
-0.995683
-0.990915
-0.985791
-0.978481
-0.970141
-0.965911
-0.967626
-0.975519
-0.972662
-0.956189
-0.928505
-0.921951
-0.914247
-0.815795
-0.713336
-0.567761
-0.0512937
0.0420797
0.207201
-0.997833
-0.994361
-0.990239
-0.984718
-0.980378
-0.980024
-0.993815
-0.996656
-0.996862
-0.995505
-0.988419
-0.977099
-0.971133
-0.913889
-0.743071
-0.551502
-0.206096
0.116589
0.22158
-0.999621
-0.998542
-0.99705
-0.993824
-0.990272
-0.990511
-0.998329
-0.998743
-0.998609
-0.998389
-0.997391
-0.992343
-0.989692
-0.967067
-0.807768
-0.36803
-0.157821
0.182772
0.232113
-0.999949
-0.999764
-0.99923
-0.998469
-0.996063
-0.995064
-0.999138
-0.999443
-0.999395
-0.999578
-0.999625
-0.998887
-0.998422
-0.992187
-0.886569
-0.37584
-0.0883324
0.204396
0.233178
-0.999993
-0.999972
-0.999836
-0.999643
-0.99912
-0.998651
-0.999492
-0.999813
-0.999806
-0.999822
-0.999869
-0.999692
-0.998536
-0.993675
-0.938173
-0.397797
0.046798
0.204459
0.22821
-0.999999
-0.999997
-0.999972
-0.999928
-0.999877
-0.999756
-0.999892
-0.999949
-0.999947
-0.999933
-0.999917
-0.999528
-0.995473
-0.97182
-0.791262
-0.199941
0.0802815
0.173457
0.204793
-1
-1
-0.999998
-0.999988
-0.999977
-0.999985
-0.999987
-0.999988
-0.999982
-0.999972
-0.999964
-0.999864
-0.998998
-0.994997
-0.973896
-0.783184
-0.394265
-0.197862
0.107719
-1
-1
-1
-0.999998
-0.999998
-0.999999
-0.999998
-0.999996
-0.999992
-0.999986
-0.99997
-0.999794
-0.99864
-0.995064
-0.989147
-0.978222
-0.914044
-0.62995
0.0198586
-1
-1
-1
-1
-1
-1
-0.999999
-0.999999
-0.999997
-0.999996
-0.999975
-0.99971
-0.998343
-0.994383
-0.986133
-0.962475
-0.935639
-0.523838
-0.0454581
-1
-1
-1
-1
-1
-1
-1
-1
-0.999999
-0.999994
-0.999909
-0.999424
-0.996826
-0.987739
-0.972564
-0.903072
-0.827723
-0.439607
-0.102231
-1
-1
-1
-1
-1
-1
-1
-1
-0.999999
-0.999983
-0.999844
-0.999019
-0.994813
-0.976537
-0.946262
-0.85171
-0.765883
-0.433241
-0.141275
-1
-1
-1
-1
-1
-1
-1
-1
-0.999999
-0.999992
-0.999903
-0.99905
-0.994139
-0.970442
-0.919225
-0.827444
-0.658427
-0.473877
-0.153698
-1
-1
-1
-1
-1
-1
-1
-1
-0.999998
-0.999965
-0.999691
-0.998064
-0.990837
-0.971102
-0.912721
-0.829232
-0.65479
-0.392931
-0.15542
-1
-1
-1
-1
-1
-1
-1
-1
-0.999997
-0.999973
-0.99978
-0.997827
-0.986614
-0.962144
-0.905923
-0.819798
-0.667877
-0.39401
-0.156274
-1
-1
-1
-1
-1
-1
-1
-1
-0.999998
-0.999958
-0.9996
-0.99641
-0.983115
-0.960133
-0.912084
-0.827469
-0.662699
-0.402327
-0.161836
-1
-1
-1
-1
-1
-1
-1
-1
-1
-0.999973
-0.999126
-0.994898
-0.98218
-0.9645
-0.926547
-0.840238
-0.648256
-0.402954
-0.177386
-1
-1
-1
-1
-1
-1
-1
-1
-1
-0.999993
-0.999787
-0.998927
-0.99272
-0.985651
-0.960512
-0.87438
-0.629479
-0.389448
-0.198646
-1
-1
-1
-1
-1
-1
-1
-1
-1
-0.999999
-0.999981
-0.999785
-0.999485
-0.998351
-0.990967
-0.939135
-0.685692
-0.389305
-0.223278
-1
-1
-1
-1
-1
-1
-1
-1
-1
-1
-0.999999
-0.999977
-0.999931
-0.999912
-0.999528
-0.987552
-0.859812
-0.536309
-0.278782
-1
-1
-1
-1
-1
-1
-1
-1
-1
-1
-1
-0.999998
-0.999989
-0.999961
-0.999853
-0.999515
-0.983133
-0.846704
-0.539293
-1
-1
-1
-1
-1
-1
-1
-1
-1
-1
-0.999999
-0.999996
-0.999984
-0.999901
-0.999588
-0.999472
-0.998889
-0.96414
-0.852658
-1
-1
-1
-1
-1
-1
-1
-1
-1
-1
-0.999999
-0.999995
-0.999983
-0.999889
-0.999436
-0.999288
-0.999158
-0.991895
-0.928414
-1
-1
-1
-1
-1
-1
-1
-1
-1
-1
-0.999998
-0.999991
-0.999975
-0.999817
-0.998989
-0.999106
-0.999102
-0.995918
-0.949554
-1
-1
-1
-1
-1
-1
-1
-1
-1
-1
-1
-0.999997
-0.99999
-0.999826
-0.999024
-0.998954
-0.998989
-0.996537
-0.953613
-1
-1
-1
-1
-1
-1
-1
-1
-1
-1
-1
-0.999999
-0.999999
-0.999977
-0.999559
-0.998828
-0.998776
-0.996031
-0.94713
-1
-1
-1
-1
-1
-1
-1
-1
-1
-1
-1
-1
-1
-0.999998
-0.999933
-0.999443
-0.999033
-0.99722
-0.956177
-1
-1
-1
-1
-1
-1
-1
-1
-1
-1
-1
-1
-1
-1
-0.999993
-0.999909
-0.999471
-0.997961
-0.96206
-1
-1
-1
-1
-1
-1
-1
-1
-1
-1
-1
-1
-1
-1
-1
-0.999999
-0.999901
-0.999595
-0.975177
-1
-1
-1
-1
-1
-1
-1
-1
-1
-1
-1
-1
-1
-1
-1
-1
-0.999984
-0.999971
-0.991895
)
;

boundaryField
{
    leftWall
    {
        type            zeroGradient;
    }
    rightWall
    {
        type            zeroGradient;
    }
    lowerWall
    {
        type            zeroGradient;
    }
    atmosphere
    {
        type            zeroGradient;
    }
    defaultFaces
    {
        type            empty;
    }
}


// ************************************************************************* //
