/*--------------------------------*- C++ -*----------------------------------*\
| =========                 |                                                 |
| \\      /  F ield         | foam-extend: Open Source CFD                    |
|  \\    /   O peration     | Version:     4.1                                |
|   \\  /    A nd           | Web:         http://www.foam-extend.org         |
|    \\/     M anipulation  |                                                 |
\*---------------------------------------------------------------------------*/
FoamFile
{
    version     2.0;
    format      ascii;
    class       volScalarField;
    location    "0.65";
    object      p;
}
// * * * * * * * * * * * * * * * * * * * * * * * * * * * * * * * * * * * * * //

dimensions      [1 -1 -2 0 0 0 0];

internalField   nonuniform List<scalar> 
2268
(
907.146
1565.32
867.069
534.918
533.872
531.049
467.288
362.515
474.153
504.588
557.567
602.281
626.791
665.787
690.978
719.973
760.056
786.488
793.883
811.367
811.116
831.719
1446.95
1213.68
894.971
1325.8
541.751
480.172
479.287
403.274
289.703
419.006
433.165
480.664
554.152
568.487
608.15
636.4
658.477
700.563
726.777
732.217
745.169
755.737
762.745
772.162
1397.54
1299.73
1566.89
669.19
465.035
431.656
1080.69
242.502
362.278
391.961
396.762
488.682
510.452
542.139
581.735
600.417
647.792
669.978
679.765
697.385
694.907
705.482
712.889
1419.04
1404.7
1943
961.128
620.522
633.006
1213.35
518.597
328.928
464.759
308.712
443.258
439.385
484.032
520.443
540.732
583.303
612.708
620.027
638.766
638.931
644.779
660.987
1379.7
1478.19
1472.38
1888.98
1616.22
611.468
1010.92
986.842
400.778
1433.79
394.603
361.476
407.419
448.809
467.176
476.853
524.603
559.782
565.83
588.781
578.51
583.609
605.188
1422.55
1515.83
1347.08
1840.18
1882.27
1286.92
1628.76
1312.54
1436.72
1482.35
1200.12
341.568
357.368
388.301
421.402
447.543
459.255
506.541
518.535
539.639
518.133
522.229
550.455
1755.08
1471.72
1137.9
1775.01
1611.89
1799.32
1106.91
1682.37
1102.26
755.191
927.97
300.466
316.793
372.213
406.28
401.177
411.411
432.843
478.818
494.508
469.255
508.486
496.104
1888.87
1275.32
885.056
1669.91
1521.51
1093.34
725.341
1540.72
710.959
524.803
1552.59
744.059
313.558
334.451
371.252
353.799
337.212
429.201
446.153
553.081
642.075
746.611
461.525
2755.48
2546.76
2383
2313.67
2317.79
2262.83
2204.47
1945.15
1846.47
2054.7
1776.59
1978
2196.72
2307.74
2318.66
2462.07
2573.86
2815.01
2622.56
2684.87
2460.85
2352.13
2255.45
2330.79
2284.88
2229.05
1989.69
1763.23
1877.88
1686.68
1618.53
1841.86
1898.34
1871.81
2095.04
2220.57
2547.08
2567.87
2462.44
2388.75
2159.38
2213.55
2107.7
1747.73
1979.99
2143.17
1946.88
1952.45
1928.9
1615.14
1797.06
1945.71
1876.33
1975.8
2130.5
2521.64
2442.18
2382.59
2248.2
2068.15
2125.11
1484.52
1094.22
1037.66
1471.61
1405.82
2081.36
2055.92
2018.71
1951.97
2283.29
2267.09
2188.97
2166.13
2535.27
2346.84
2316.89
2089.12
1871.34
2174.89
1833.05
1127.99
693.622
673.75
677.747
1054.3
1753.14
1536.04
2204.9
1890.72
2326.61
2371.05
2196.25
2496.69
2216.06
2231.25
1639.48
1255.95
1890.95
2149.12
1314.61
781.921
591.818
610.32
655.359
740.492
853.836
1213.41
1416.94
2032.27
2429.13
2275.76
2487.34
2210.42
2072.33
1263.64
626.592
1029.82
1989.81
985.369
628.822
701.492
815.587
793.286
799.475
920.089
1260.71
1520.04
1908.78
2350.76
2393.71
2447.32
2389.27
1794.58
945.795
562.399
597.431
1055.73
679.96
858.728
1093.45
1442.47
1188.07
985.19
938.585
1096.08
1384.51
1731
2248.91
2422.04
2322.34
2690.42
1757.87
932.316
723.624
1620.49
1272.34
507.405
822.831
1442.33
938.279
559.625
1537.98
1076.75
395.296
471.375
415.848
461.283
403.619
453.862
661.362
1131.51
1040.95
1210.49
664.702
1145.92
281.762
831.484
1666.08
879.168
135.041
176.519
952.738
214.782
814.868
1603.14
962.006
551.936
1183.42
963.081
1236.71
1169.43
1525.25
1698.04
1817.2
1692.43
1728.12
1466.5
815.673
190.496
107.231
1067.68
135.886
37.1883
52.3084
135.859
34.9782
91.4253
880.964
817.98
947.744
1576.69
1698.14
1545.74
1090.06
734.23
1114.03
1584
1841.33
1872.02
1812.94
1571.39
766.691
59.7575
117.382
23.3455
20.7298
25.599
29.9365
23.0934
376.018
1370.27
1131.38
1493.34
1102.7
923.011
439.779
196.226
193.972
353.55
655.05
1214.98
1686.28
1783.6
1102.91
424.909
22.4657
18.1347
13.1466
11.8235
10.4032
5.4061
4.97802
19.3489
483.25
1476.27
442.744
215.259
175.306
89.2102
89.7842
84.6883
161.256
239.591
367.165
662.965
1005.9
207.758
17.3091
9.29409
7.98087
9.8406
7.55964
5.09561
2.80766
2.05195
2.87686
48.3752
413.725
49.0388
57.4879
63.6764
27.3694
23.227
13.0796
15.921
26.2385
63.3815
177.045
488.778
19.8918
2.04436
4.35462
5.12443
8.23096
6.25217
3.37151
2.06595
1.16834
0.997758
1.36934
8.81063
-0.140249
5.9373
9.62116
7.62238
5.21468
3.72643
2.51515
4.967
37.4287
225.856
350.674
0.580944
1.4127
1.99382
4.09025
4.46744
4.71359
2.06537
0.815939
0.295583
0.333044
0.161257
0.462328
0.00999005
0.329057
1.10472
2.84915
2.18191
1.76836
1.59978
2.34656
9.04824
24.531
35.1016
-0.237091
-0.21857
0.228851
1.51445
1.99432
3.85746
2.02692
0.278371
0.0395171
-0.12692
-0.244131
-0.141264
-0.336423
-0.349263
0.379247
0.632097
0.914156
0.634684
0.421314
0.938203
1.98101
5.07917
8.12446
-0.630366
-0.647147
-0.662976
0.039511
0.593355
1.93814
0.498794
-0.405557
-0.36519
-0.422079
-0.472651
-0.493435
-0.42162
-0.414798
-0.432062
-0.259474
-0.419083
-0.393533
-0.322605
0.0185457
0.957837
1.05527
0.748653
-0.943305
-1.02583
-1.00067
-0.835226
-0.804142
-0.612705
-0.471387
-0.7514
-0.766781
-0.713599
-0.722622
-0.715767
-0.730907
-0.733641
-0.639511
-0.797217
-0.789789
-0.740612
-0.705696
-0.822695
-0.714228
-0.771892
-0.8858
-1.1545
-1.16547
-1.22406
-1.26895
-1.30279
-1.24312
-1.18798
-1.14911
-1.03447
-0.962295
-0.905155
-0.976372
-0.897677
-0.90274
-1.01248
-1.11731
-1.10127
-1.00138
-1.00888
-0.992953
-0.992608
-0.996338
-1.00758
-1.35075
-1.35764
-1.39825
-1.39884
-1.40877
-1.41131
-1.33412
-1.29472
-1.22611
-1.1979
-1.17621
-1.12552
-1.13006
-1.13751
-1.22076
-1.169
-1.18168
-1.168
-1.15523
-1.13221
-1.12614
-1.0956
-1.12042
-1.48432
-1.48739
-1.48633
-1.52698
-1.52463
-1.5197
-1.50906
-1.44607
-1.38538
-1.33085
-1.345
-1.33147
-1.29864
-1.31688
-1.34864
-1.40186
-1.40774
-1.3514
-1.33839
-1.33621
-1.29348
-1.2787
-1.28448
-1.65897
-1.64332
-1.65238
-1.65247
-1.63991
-1.63115
-1.61214
-1.58149
-1.57179
-1.52837
-1.54317
-1.50968
-1.53504
-1.52824
-1.52822
-1.52031
-1.5209
-1.52924
-1.52377
-1.50249
-1.45651
-1.48939
-1.45467
-1.7631
-1.78163
-1.77797
-1.78432
-1.78612
-1.76446
-1.77127
-1.71084
-1.72216
-1.69365
-1.68921
-1.70694
-1.68057
-1.69795
-1.69054
-1.74028
-1.67878
-1.71462
-1.68318
-1.74737
-1.68497
-1.7299
-1.64366
-1.92986
-1.91458
-1.9286
-1.9292
-1.92079
-1.91741
-1.91305
-1.88618
-1.88761
-1.87507
-1.88095
-1.84582
-1.83649
-1.86341
-1.86858
-1.85094
-1.84089
-1.84518
-1.87016
-1.88821
-1.85438
-1.94145
-1.95886
-2.0731
-2.09316
-2.05326
-2.07494
-2.05754
-2.06589
-2.0461
-2.03531
-2.02409
-2.0127
-1.98103
-2.00711
-2.01177
-1.9963
-2.044
-2.0282
-2.0326
-2.04468
-2.01968
-2.07959
-2.08265
-2.11438
-2.08826
-2.22162
-2.20741
-2.22929
-2.21886
-2.19726
-2.22005
-2.20473
-2.22855
-2.19449
-2.19411
-2.20939
-2.18121
-2.17581
-2.17511
-2.19798
-2.17042
-2.22538
-2.18203
-2.21593
-2.21979
-2.23786
-2.27831
-2.38742
-2.37128
-2.3793
-2.34922
-2.37041
-2.37014
-2.36543
-2.3579
-2.35179
-2.34942
-2.34654
-2.33651
-2.34048
-2.34107
-2.34212
-2.36324
-2.35185
-2.34336
-2.40428
-2.3495
-2.37618
-2.38848
-2.44078
-2.47198
-2.53124
-2.52571
-2.53501
-2.49933
-2.53841
-2.5048
-2.51142
-2.50495
-2.50246
-2.49923
-2.48602
-2.50534
-2.49133
-2.51122
-2.50669
-2.48758
-2.51931
-2.535
-2.5386
-2.58366
-2.54287
-2.55782
-2.59018
-2.68465
-2.68632
-2.68382
-2.70494
-2.67575
-2.6726
-2.66255
-2.66049
-2.64818
-2.65041
-2.64562
-2.66284
-2.65068
-2.65658
-2.67234
-2.6709
-2.6501
-2.68449
-2.68911
-2.70452
-2.73928
-2.76731
-2.75926
-2.84769
-2.85448
-2.85431
-2.82992
-2.82906
-2.8151
-2.81653
-2.80596
-2.81108
-2.8149
-2.82871
-2.81128
-2.83117
-2.8061
-2.82239
-2.85185
-2.84521
-2.84375
-2.88941
-2.88069
-2.89675
-2.92868
-2.95437
-2.98965
-2.98724
-2.98558
-2.98292
-2.98256
-2.95762
-2.99182
-2.97006
-2.97612
-2.97478
-2.97854
-2.98386
-2.96641
-2.97856
-2.98192
-2.98361
-3.0213
-2.9954
-3.01737
-3.02589
-3.05692
-3.07278
-3.11064
-3.13849
-3.13882
-3.137
-3.13408
-3.1333
-3.13055
-3.1325
-3.13022
-3.13035
-3.12738
-3.13052
-3.12116
-3.14623
-3.13057
-3.14316
-3.13995
-3.15042
-3.14146
-3.17104
-3.17626
-3.20444
-3.22841
-3.24369
-3.30314
-3.29363
-3.2871
-3.28411
-3.28444
-3.29648
-3.28167
-3.28354
-3.28144
-3.2876
-3.2906
-3.3028
-3.2707
-3.29961
-3.2937
-3.28207
-3.30933
-3.32776
-3.32459
-3.3323
-3.37614
-3.36775
-3.42651
-3.43178
-3.43214
-3.43244
-3.43237
-3.43119
-3.43368
-3.43357
-3.45063
-3.43456
-3.43682
-3.43266
-3.43498
-3.44788
-3.42496
-3.45188
-3.46626
-3.46094
-3.4699
-3.47421
-3.47778
-3.48671
-3.53731
-3.51777
-3.58345
-3.58191
-3.58038
-3.58012
-3.58008
-3.58137
-3.57826
-3.58058
-3.57743
-3.58374
-3.58356
-3.58902
-3.58928
-3.59669
-3.58026
-3.59169
-3.59946
-3.60369
-3.59958
-3.63684
-3.65048
-3.63401
-3.69537
-3.728
-3.72762
-3.72719
-3.7275
-3.72636
-3.72876
-3.72921
-3.73222
-3.72727
-3.72938
-3.72108
-3.73066
-3.73976
-3.73775
-3.76709
-3.75488
-3.75914
-3.77387
-3.76979
-3.80444
-3.80442
-3.80819
-3.82535
-3.8739
-3.87395
-3.87327
-3.8744
-3.87269
-3.87805
-3.87996
-3.87631
-3.87155
-3.87056
-3.85592
-3.87371
-3.88177
-3.88437
-3.88865
-3.88422
-3.90157
-3.90328
-3.92599
-3.93391
-3.92449
-3.97725
-3.96189
-4.02061
-4.02078
-4.01998
-4.02043
-4.01871
-4.01651
-4.01211
-4.0202
-4.02014
-4.02411
-4.02395
-4.02714
-4.03319
-4.03915
-4.04832
-4.06231
-4.0459
-4.08394
-4.06028
-4.09278
-4.09655
-4.10385
-4.14224
-4.16695
-4.167
-4.16656
-4.16704
-4.1639
-4.16563
-4.14801
-4.16579
-4.17109
-4.17375
-4.1902
-4.17562
-4.18114
-4.18367
-4.19306
-4.19177
-4.2029
-4.20428
-4.21506
-4.21586
-4.23397
-4.24766
-4.2562
-4.31372
-4.314
-4.31301
-4.31408
-4.31216
-4.31257
-4.31202
-4.31703
-4.31673
-4.31896
-4.3229
-4.31924
-4.32899
-4.33425
-4.33974
-4.36298
-4.32725
-4.36509
-4.34708
-4.39872
-4.3693
-4.41023
-4.3908
-4.46031
-4.46026
-4.46052
-4.46075
-4.45958
-4.46087
-4.4648
-4.46394
-4.47839
-4.47658
-4.4568
-4.46939
-4.47392
-4.47811
-4.48669
-4.49301
-4.51517
-4.50185
-4.51881
-4.51729
-4.53704
-4.53734
-4.53814
-4.60716
-4.6069
-4.6069
-4.60674
-4.60526
-4.60545
-4.60846
-4.60923
-4.61123
-4.60676
-4.62854
-4.60255
-4.62291
-4.62508
-4.63027
-4.6342
-4.63578
-4.65083
-4.66367
-4.66794
-4.65842
-4.67864
-4.68937
-4.75412
-4.75389
-4.75475
-4.75465
-4.75332
-4.75439
-4.75528
-4.74477
-4.75992
-4.75727
-4.76078
-4.76238
-4.76463
-4.76947
-4.77469
-4.77765
-4.78509
-4.79013
-4.79228
-4.7948
-4.81162
-4.82213
-4.83425
-4.9001
-4.89787
-4.90068
-4.90061
-4.88806
-4.90048
-4.90241
-4.904
-4.90628
-4.89334
-4.91071
-4.91057
-4.91363
-4.91555
-4.91837
-4.92276
-4.92892
-4.93384
-4.94387
-4.959
-4.96471
-4.95679
-4.96697
-5.05027
-5.04967
-5.05211
-5.05157
-5.05451
-5.05295
-5.05321
-5.05152
-5.05486
-5.05392
-5.05245
-5.05351
-5.04615
-5.06037
-5.06011
-5.06339
-5.07122
-5.07529
-5.08368
-5.09767
-5.08401
-5.10374
-5.10468
-5.19128
-5.18066
-5.19794
-5.20288
-5.20228
-5.20292
-5.20297
-5.20556
-5.19938
-5.20815
-5.20198
-5.21071
-5.21154
-5.20924
-5.20493
-5.20759
-5.21189
-5.21818
-5.22121
-5.22766
-5.22946
-5.23588
-5.23813
-5.35129
-5.34898
-5.35274
-5.35071
-5.35121
-5.34962
-5.35144
-5.35172
-5.35221
-5.35372
-5.35176
-5.3534
-5.35291
-5.35411
-5.35641
-5.34362
-5.36175
-5.34802
-5.36898
-5.36894
-5.36001
-5.37832
-5.38702
-5.47601
-5.48922
-5.50055
-5.50213
-5.50852
-5.50945
-5.49921
-5.52189
-5.48126
-5.52402
-5.48201
-5.50832
-5.51655
-5.50533
-5.48555
-5.50458
-5.47947
-5.51206
-5.48764
-5.51169
-5.50898
-5.51618
-5.49852
-5.66718
-5.66131
-5.64205
-5.63694
-5.64326
-5.63478
-5.65795
-5.63889
-5.66454
-5.64118
-5.65954
-5.65875
-5.64486
-5.64717
-5.66641
-5.66895
-5.67477
-5.66804
-5.67245
-5.65226
-5.66699
-5.65353
-5.6724
455.542
435.409
1173.87
1202.08
879.559
522.233
612.727
1085.15
1643.67
1508.05
1195.82
1225.72
1845.26
1845.39
1862.67
1882.4
1267.7
1383.62
1450.35
1483.03
814.986
1010.25
1083.8
978.279
406.753
418.177
389.213
216.212
42.7565
47.3716
73.6258
108.978
20.7597
34.9154
75.3249
113.232
0.770531
2.24781
7.6336
11.7338
-0.907849
-1.02392
-1.10645
-1.33808
-1.15486
-1.26023
-1.39614
-1.67107
-1.07424
-1.03558
-0.978191
-1.09432
-1.24551
-1.22365
-1.17711
-1.17387
-1.53125
-1.59672
-1.69497
-1.79088
-1.72412
-1.76004
-1.8588
-1.99611
-2.04656
-2.03575
-2.13723
-2.17751
-2.21138
-2.27196
-2.27854
-2.36535
-2.38964
-2.4039
-2.47083
-2.52176
-2.56826
-2.57492
-2.56092
-2.59233
-2.6761
-2.66582
-2.72105
-2.69098
-2.80377
-2.85365
-2.80894
-2.88934
-2.98376
-2.99195
-3.00925
-3.02115
-3.09201
-3.12824
-3.12626
-3.11941
-3.26765
-3.27298
-3.28681
-3.30033
-3.38551
-3.42196
-3.4362
-3.43599
-3.56751
-3.53919
-3.57855
-3.55474
-3.68185
-3.71601
-3.70449
-3.73318
-3.85721
-3.84267
-3.86623
-3.86237
-3.99485
-3.99348
-3.99551
-4.01131
-4.11854
-4.14787
-4.13107
-4.15755
-4.2699
-4.27469
-4.27839
-4.28895
-4.43253
-4.40737
-4.43673
-4.41541
-4.55291
-4.56303
-4.5696
-4.58378
-4.70354
-4.69874
-4.70488
-4.70641
-4.83279
-4.83462
-4.83987
-4.83838
-4.95962
-4.97217
-4.97134
-4.98647
-5.11274
-5.10433
-5.11687
-5.1091
-5.24465
-5.24545
-5.25307
-5.2488
-5.37258
-5.38993
-5.37372
-5.39527
-5.52469
-5.5087
-5.52727
-5.51284
-5.66991
-5.66445
-5.65731
-5.6693
1663.77
1285.56
1163.55
1170.08
1198.2
1267.52
1539.36
1865.56
2337.2
2054.86
1956.05
1739.47
1814.66
1707.85
1772.2
2079.49
2411.6
2232.1
2570.82
1934.56
1292.74
1092.5
1092.08
1158.2
1198.32
1401.6
1508.28
1436.52
1474.99
1514.39
1475.74
1574.74
1932.59
2201.14
2211.71
2126.1
2057.38
2235.92
1138.51
861.677
792.444
631.461
551.555
602.795
711.492
829.584
1095.71
1109.56
1059
1001.79
1162.19
1022.44
1073.94
1115.17
1213.65
1944.15
2243.21
1870.51
1644.48
1571.03
819.568
613.12
630.752
1217.91
1620.7
1763.78
1824.96
1913.9
1984.49
1892.72
1722.09
1745.11
1901.5
1782.33
1893.5
2031.98
1588.35
1423.02
1412.31
1715.96
1223.03
1150.94
1661.47
1827.57
931.57
989.599
1164.55
1708.51
1754.75
1735.52
1488.13
1448.75
1447.98
1983.59
1941.9
674.097
497.39
549.139
895.934
1701.3
1767.29
1801.98
1442.89
485.656
403.561
498.063
1122.22
1451.76
1411.43
1235.19
908.4
920.113
1850.19
1814.08
143.828
198.141
360.05
784.703
1684.37
1790.98
1484.19
673.92
194.723
141.678
196.283
676.923
827.87
702.655
674.663
502.269
1088.34
1865.64
1747.33
220.749
609.943
1108.02
1279.84
1669.1
1574.24
722.769
257.878
89.523
65.7103
92.3799
179.242
208.178
304.483
341.861
519.494
1313.15
1891.38
1758.62
126.41
613.876
896.215
419.416
1196.2
831.397
292.005
83.5345
54.3875
44.7233
45.4571
64.4263
101.606
174.875
339.153
608.499
1332.54
1891.47
1756.74
8.53951
122.701
149.122
44.8441
261.844
131.425
48.425
41.314
45.4558
43.5886
54.4693
77.4056
103.125
189.464
327.912
781.53
1553.24
1861.84
1726.7
-1.51249
-0.661108
-1.30698
1.74999
12.6481
17.4713
27.8159
36.1777
50.3084
42.8043
71.1929
129.419
163.347
215.284
311.047
694.916
1483.97
1849.67
1703.28
-2.2902
-2.62743
-1.17991
-2.96168
1.05717
11.6182
37.6911
54.6037
82.604
107.343
142.99
214.421
319.256
443.96
547.002
967.807
1416.12
1853.87
1684.54
-1.70692
-1.68958
-0.688962
1.04772
7.71621
22.9343
41.8772
62.8826
85.7138
121.742
141.794
160.665
190.12
380.136
523.65
1163.22
1723.89
1781.27
1638.8
-1.04772
-0.940149
-3.95475
-0.473761
1.90484
9.98455
6.78557
3.60101
4.948
10.6981
32.5267
39.3469
48.6597
211.059
460.028
807.953
1718.26
1678.57
1579.18
-1.95898
-1.75043
-0.553782
-2.42958
-0.879058
0.242131
-1.74258
-1.58767
-1.48735
-2.07292
-0.622894
2.50597
3.50896
39.5212
327.083
761.335
1514.33
1639.82
1509.2
-2.34142
-2.50311
-2.50041
-2.10757
-1.38051
-2.17195
-2.29905
-2.11952
-2.095
-2.09569
-1.8593
-2.29243
-2.4422
3.03006
182.133
1154.26
1514.2
1497.11
1429.79
-2.51479
-2.64453
-2.88267
-2.81579
-2.57068
-2.79843
-2.45238
-2.17029
-2.28258
-2.16642
-2.10658
-2.27235
-2.35991
-2.51621
74.8547
1065.79
1519.32
1423.25
1404.35
-2.43527
-2.56012
-2.67829
-2.71779
-2.81089
-2.77955
-2.53302
-2.36663
-2.247
-2.16864
-1.99282
-1.79428
-1.81307
-2.24111
14.6958
939.807
1491.75
1405.99
1401.7
-2.56049
-2.66321
-2.73406
-2.82062
-2.68376
-2.73397
-2.61294
-2.42588
-2.41592
-2.17136
-2.27199
-2.07289
-2.38238
2.30645
270.044
1391.02
1460.75
1471.81
1470.97
-2.63902
-2.67363
-2.78336
-2.82079
-2.8127
-2.73698
-2.63419
-2.56797
-2.4145
-2.32363
-2.17676
-2.17633
-2.63552
-2.64023
4.29372
309.901
1073.14
1495.26
1559.1
-2.77558
-2.82653
-2.84654
-2.88606
-2.84375
-2.77349
-2.72353
-2.65409
-2.5432
-2.40475
-2.26478
-2.28035
-2.07657
-0.148028
2.71674
8.26359
70.1815
606.456
1545.53
-2.85782
-2.97057
-2.94201
-2.96782
-2.94467
-2.88937
-2.84979
-2.76598
-2.66304
-2.56299
-2.49143
-2.38944
-2.09046
-0.63172
2.6147
17.7289
57.1479
877.398
1661.73
-3.03451
-3.05451
-3.06648
-3.0741
-3.04634
-3.02714
-2.97534
-2.92619
-2.83104
-2.80712
-2.56212
-2.49931
-1.68036
-0.193962
5.0905
69.5658
212.463
1136.45
1705.88
-3.16365
-3.1947
-3.198
-3.19425
-3.19194
-3.15842
-3.12806
-3.11177
-3.03156
-2.96524
-2.89101
-2.7685
-2.07711
1.83411
20.6545
152.193
338.571
1153.1
1674.22
-3.32136
-3.31805
-3.33116
-3.32521
-3.3209
-3.32137
-3.30058
-3.27557
-3.23896
-3.16129
-3.15073
-2.99504
-2.57126
2.39713
48.3267
195.589
599.837
1048.7
1688.46
-3.44529
-3.47871
-3.47194
-3.49599
-3.51109
-3.46729
-3.48778
-3.47912
-3.46605
-3.39517
-3.48011
-3.31172
-3.091
2.52694
50.1789
193.244
606.528
1266.88
1679.07
-3.60467
-3.58466
-3.61144
-3.63734
-3.64573
-3.69034
-3.70882
-3.68062
-3.7673
-3.75602
-3.75662
-3.88617
-2.7266
8.58562
61.0781
199.989
549.042
1260.43
1688.84
-3.73867
-3.79347
-3.74463
-3.82389
-3.77788
-3.81383
-3.84587
-3.87982
-3.92
-4.0691
-4.06082
-4.47553
-1.88553
6.50662
51.1721
178.253
561.492
1232.5
1675.86
-3.88483
-3.89056
-3.90541
-3.93744
-3.96222
-3.97935
-4.01429
-4.01667
-4.08754
-4.21709
-4.42603
-4.84535
-2.57849
6.98525
34.856
147.399
598.598
1226.95
1657.4
-4.02897
-4.05032
-4.06547
-4.09374
-4.12631
-4.15813
-4.2078
-4.29168
-4.40392
-4.46008
-4.80211
-5.25835
-5.3
-4.6589
3.88329
85.0298
631.586
1246.78
1617.13
-4.17122
-4.17492
-4.18906
-4.2171
-4.24713
-4.26487
-4.32232
-4.34554
-4.51125
-4.63625
-4.92891
-5.11176
-5.49554
-5.60344
-5.784
13.8899
460.968
1245.42
1574.18
-4.3101
-4.33295
-4.35636
-4.36497
-4.39903
-4.44753
-4.48893
-4.54242
-4.55545
-4.76041
-4.88483
-4.96565
-5.00472
-5.20824
-5.63039
-5.47971
95.2077
818.806
1474.79
-4.45343
-4.4749
-4.49126
-4.48954
-4.51804
-4.55137
-4.61471
-4.6375
-4.74128
-4.74759
-4.93042
-4.9696
-5.17008
-5.06411
-5.244
-5.50619
-4.68264
124.535
813.548
-4.57954
-4.60289
-4.6199
-4.65182
-4.6695
-4.68373
-4.72208
-4.77548
-4.79771
-4.93482
-4.92228
-5.05966
-5.13691
-5.06879
-5.13786
-5.24205
-5.44353
1.86527
122.539
-4.71656
-4.73771
-4.75095
-4.76874
-4.79434
-4.80881
-4.85339
-4.91515
-4.9067
-5.03695
-5.02634
-5.12146
-5.23557
-5.18241
-5.25295
-5.19991
-5.18617
-4.72929
27.6412
-4.8541
-4.8736
-4.88162
-4.89813
-4.92163
-4.9518
-4.95655
-5.02388
-5.0131
-5.10124
-5.11347
-5.168
-5.20547
-5.29269
-5.10183
-5.20831
-5.12495
-5.13138
12.1259
-4.98515
-5.00949
-5.02168
-5.03723
-5.05746
-5.06497
-5.10902
-5.13351
-5.13009
-5.19926
-5.21676
-5.25335
-5.28556
-5.22972
-5.26576
-5.21881
-5.17148
-5.05702
9.52233
-5.12333
-5.13375
-5.15014
-5.15879
-5.1707
-5.19298
-5.19325
-5.23366
-5.23844
-5.26421
-5.30803
-5.31183
-5.38605
-5.43021
-5.54796
-5.42252
-5.24892
-5.25665
13.8398
-5.25891
-5.27233
-5.28364
-5.30415
-5.29998
-5.31179
-5.33463
-5.34758
-5.35187
-5.38519
-5.40498
-5.44023
-5.45031
-5.43666
-5.52218
-5.43942
-5.40272
-5.49077
7.45916
-5.3808
-5.39885
-5.41659
-5.41188
-5.42762
-5.43681
-5.44134
-5.45504
-5.45583
-5.48326
-5.51335
-5.49229
-5.53948
-5.51102
-5.62615
-5.53673
-5.45038
-5.83894
3.77283
-5.53264
-5.51755
-5.53964
-5.53693
-5.54434
-5.55531
-5.56452
-5.57674
-5.57682
-5.58535
-5.6737
-5.61547
-5.75791
-5.705
-5.81577
-5.88946
-5.60896
-6.49033
-4.49018
-5.65129
-5.67515
-5.66297
-5.67245
-5.66947
-5.67072
-5.67968
-5.67973
-5.7037
-5.73026
-5.68326
-5.78781
-5.71742
-5.73311
-5.77314
-5.94014
-5.98293
-7.90926
-12.9199
)
;

boundaryField
{
    leftWall
    {
        type            calculated;
        value           nonuniform List<scalar> 
50
(
907.146
1213.68
1397.54
1419.04
1379.7
1422.55
1755.08
1888.87
1757.87
1145.92
815.673
1571.39
1102.91
207.758
19.8918
0.580944
-0.237091
-0.630366
-0.943305
-1.1545
-1.35075
-1.48432
-1.65897
-1.7631
-1.92986
-2.0731
-2.22162
-2.37128
-2.53124
-2.68465
-2.84769
-2.98965
-3.13849
-3.30314
-3.43178
-3.58345
-3.728
-3.8739
-4.02061
-4.16695
-4.31372
-4.46031
-4.60716
-4.75412
-4.9001
-5.05027
-5.19128
-5.35129
-5.47601
-5.66718
)
;
    }
    rightWall
    {
        type            calculated;
        value           nonuniform List<scalar> 
50
(
2622.56
2567.87
2442.18
2346.84
2216.06
2210.42
2389.27
2690.42
2570.82
2235.92
2243.21
2031.98
1941.9
1814.08
1747.33
1758.62
1756.74
1726.7
1703.28
1684.54
1638.8
1579.18
1509.2
1429.79
1404.35
1401.7
1470.97
1559.1
1545.53
1661.73
1705.88
1674.22
1688.46
1679.07
1688.84
1675.86
1657.4
1617.13
1574.18
1474.79
813.548
122.539
27.6412
12.1259
9.52233
13.8398
7.45916
3.77283
-4.49018
-12.9199
)
;
    }
    lowerWall
    {
        type            calculated;
        value           nonuniform List<scalar> 
62
(
932.509
1575.36
891.582
563.811
563.259
560.475
496.707
391.942
503.581
534.008
586.99
631.705
656.215
695.212
720.404
749.401
789.485
815.917
823.311
840.781
840.467
860.746
1463.89
1446.95
772.162
712.889
660.987
605.188
550.455
496.104
461.525
513.966
495.395
1222.74
1213.78
2755.48
2684.87
2462.44
2382.59
2316.89
2231.25
2072.33
1794.58
2771.27
2562.59
2398.78
2329.53
2333.94
2279.54
2221.91
1963.33
1865.37
2074.06
1796.06
1997.16
2215.43
2326.07
2337.09
2480.83
2592.58
2831.83
2633.81
)
;
    }
    atmosphere
    {
        type            calculated;
        value           nonuniform List<scalar> 
46
(
-5.72904
-5.72904
-5.72904
-5.72904
-5.72904
-5.72904
-5.72904
-5.72904
-5.72904
-5.72904
-5.72904
-5.72904
-5.72904
-5.72904
-5.72904
-5.72904
-5.72904
-5.72904
-5.72904
-5.72904
-5.72904
-5.72904
-5.72904
-5.72904
-5.72904
-5.72904
-5.72904
-5.72904
-5.72904
-5.72904
-5.72904
-5.72904
-5.72939
-5.73159
-5.73748
-5.74615
-5.75648
-5.77508
-5.80281
-5.83551
-5.8308
-5.88588
-5.98905
-5.90463
-5.88699
-28.376
)
;
    }
    defaultFaces
    {
        type            empty;
    }
}


// ************************************************************************* //
