/*--------------------------------*- C++ -*----------------------------------*\
| =========                 |                                                 |
| \\      /  F ield         | foam-extend: Open Source CFD                    |
|  \\    /   O peration     | Version:     4.1                                |
|   \\  /    A nd           | Web:         http://www.foam-extend.org         |
|    \\/     M anipulation  |                                                 |
\*---------------------------------------------------------------------------*/
FoamFile
{
    version     2.0;
    format      ascii;
    class       volScalarField;
    location    "0.65";
    object      pd;
}
// * * * * * * * * * * * * * * * * * * * * * * * * * * * * * * * * * * * * * //

dimensions      [1 -1 -2 0 0 0 0];

internalField   nonuniform List<scalar> 
2268
(
932.509
1575.36
891.582
563.811
563.259
560.475
496.707
391.942
503.581
534.008
586.99
631.705
656.215
695.212
720.404
749.401
789.485
815.917
823.311
840.781
840.467
860.746
1463.89
1283.13
913.454
1390.93
625.412
567.806
567.505
490.298
377.862
507.267
521.205
568.867
642.388
656.739
696.41
724.673
746.753
788.844
815.062
820.504
833.451
844.023
850.978
859.036
1504.8
1341.62
1667.36
801.65
607.933
577.818
1190.95
383.784
508.947
537.15
543.461
635.644
657.456
689.169
728.817
747.523
794.915
817.114
826.909
844.528
842.034
852.438
858.792
1564.81
1468.75
2042.85
1132.96
807.635
817.986
1281.93
695.242
530.415
656.734
511.522
648.594
644.729
689.46
725.993
746.414
789.055
818.575
825.983
844.75
844.898
850.547
865.36
1566.23
1566.53
1556.54
2031.05
1787.89
841.054
1089.1
1188.33
644.291
1608.5
636.816
622.623
670.023
711.114
729.998
740.074
788.355
824.193
830.489
853.555
843.26
848.008
868.035
1648.65
1629.85
1445.3
1991.41
2039.61
1519.68
1784.36
1533.82
1645.77
1599.54
1427.62
655.353
675.334
704.622
738.308
764.867
779.701
828.974
841.558
862.878
841.042
843.1
871.647
1985.21
1599.74
1240.62
1970.04
1754.96
1991.75
1211.93
1864.49
1201.69
834.302
1212.68
665.434
687.715
739.348
772.482
769.204
785.701
811.508
858.857
872.557
842.869
873.898
875.516
2111.38
1402.96
983.355
1851.58
1678.89
1205.6
813.926
1758.09
797.508
596.551
1781.6
1108.93
732.002
750.748
787.98
778.13
767.254
862.736
878.161
963.446
1036.71
1131.79
892.855
2771.27
2562.59
2398.78
2329.53
2333.94
2279.54
2221.91
1963.33
1865.37
2074.06
1796.06
1997.16
2215.43
2326.07
2337.09
2480.83
2592.58
2831.83
2633.81
2731.92
2507.27
2396.68
2299.13
2375.04
2327.47
2274.63
2043.47
1820.9
1937.95
1748.07
1680.05
1904.66
1960.88
1934.51
2157.75
2282.76
2603.83
2600.96
2539.47
2461.16
2218.11
2278.15
2165.78
1791.88
2034.34
2219.29
2034.61
2045.08
2022.62
1717.35
1900.47
2045.77
1980.55
2081.45
2234.45
2614.4
2493.38
2487.2
2341.04
2145.72
2207.71
1537.85
1131.55
1072.25
1524.03
1454.46
2177.29
2175.39
2140.53
2085.7
2400.48
2391.1
2325.25
2308.58
2661.05
2414.66
2444.9
2193.04
1959.05
2286.86
1921.52
1178.37
719.788
697.062
699.777
1096.86
1840.58
1604.9
2324.36
1975.28
2443.14
2523.86
2368.18
2654.54
2296.88
2376.35
1732.81
1324.96
2001.08
2293.46
1387.96
820.973
613.154
631.966
679.172
773.68
896.241
1274.24
1489.51
2144.05
2591.8
2476.31
2678.03
2309.37
2222.69
1347.53
657.202
1093.54
2139.68
1049.62
661.558
738.888
861.719
835.715
843.906
975.507
1336.45
1613.36
2030.66
2519.09
2616.45
2683.61
2522.47
1937.28
1018.4
590.069
627.841
1133.84
725.977
921.178
1172.4
1549.29
1272.64
1053.59
1004.83
1172.12
1481.61
1856.55
2425.37
2664.82
2612.59
2905.69
1980.52
1054.54
830.996
1849.82
1437.54
590.485
940.082
1761.91
1065.25
649.751
1750.34
1482.38
878.653
946.38
896.122
936.74
886.27
932.87
1122.94
1541.58
1462.39
1618.88
1132.74
1326.23
353.133
978.72
1993.85
1033.04
180.258
230.386
1116.09
274.448
961.554
1893
1468.59
1112.47
1659.75
1466.32
1705.9
1641.58
1917.8
2063.75
2159.25
2097.19
2137.46
1923.77
989.765
258.27
150.152
1299.33
191.877
63.8905
84.9912
193.243
62.3271
144.96
1093.25
1426.86
1550.53
2039.13
2113.26
1856.89
1306.13
894.947
1326.08
1874.6
2233
2286.37
2272.45
1915.69
964.603
94.5899
175.296
44.6121
40.1694
49.0409
54.6591
46.2268
496.39
1801.08
1763.82
1858.94
1354.49
1136.21
567.438
274.38
272.508
465.563
820.499
1475.12
2065.43
2199.42
1392.85
579.515
51.7465
41.9585
30.0593
27.9445
25.6736
16.4806
13.1334
42.3629
647.757
1913.26
590.508
312.445
259.269
147.042
148.26
141.789
244.336
342.862
497.771
851.115
1256.05
318.905
47.7273
30.4359
27.2503
28.098
23.0053
18.2566
10.2964
7.12802
11.0208
99.4536
582.079
98.7736
110.102
117.624
61.9964
54.089
34.6219
40.9742
57.915
116.536
274.884
664.817
55.6601
13.2269
21.3078
24.2564
28.5385
23.0955
14.4708
9.46988
5.36784
3.84177
8.55218
32.3712
7.31411
24.3698
31.4358
26.2392
20.1936
14.3076
9.09088
18.4367
85.6584
354.124
515.185
5.04706
11.1333
15.9233
20.5375
24.2781
23.7932
16.6005
9.04563
3.41366
2.48512
2.56739
3.44041
3.49465
6.01274
11.0459
15.4733
13.5029
10.0367
6.47098
10.3898
33.3601
68.3173
85.6174
2.46032
4.84602
9.1626
14.2987
18.2829
23.9581
16.956
7.42798
2.90399
1.87201
1.81005
2.17189
2.54631
3.61688
6.98541
10.9612
10.434
7.97806
4.276
7.39536
15.9703
25.6324
35.7799
1.68339
2.40068
4.288
9.90717
13.4004
19.3877
14.241
7.09063
2.90773
1.69717
1.41129
1.66716
2.20753
2.81939
5.37619
6.69035
4.90058
3.29304
3.30305
7.3993
14.0899
15.6572
13.3888
1.20121
1.32237
2.10129
5.4094
5.99831
8.1906
8.48575
5.17702
2.2287
1.35128
1.18842
1.42602
1.62876
2.07313
5.01918
3.61706
1.92987
2.07197
2.05067
2.61825
3.90232
3.50993
1.96958
0.960007
0.9667
1.00937
2.08049
1.87977
2.18059
3.338
2.27079
1.31049
1.05018
1.06491
1.27282
1.40721
1.64001
2.50442
1.59197
1.34697
1.42563
1.33251
1.47152
1.63556
1.47433
1.1419
0.796306
0.756121
0.7108
0.960347
0.779464
0.822322
0.96319
0.864658
0.83232
0.844132
0.873229
1.18662
1.15778
1.32975
1.50855
1.29385
1.1133
1.03485
1.00238
1.04943
1.059
1.05551
1.05609
0.726755
0.695606
0.694715
0.670299
0.653828
0.642211
0.658533
0.715855
0.775916
0.833597
0.835499
1.36418
1.02325
1.05725
1.08355
0.966955
0.871683
0.879172
0.844754
0.843062
0.879714
0.905355
0.937445
0.641545
0.647477
0.638341
0.636038
0.646973
0.655082
0.674064
0.704718
0.714659
0.763924
0.765314
0.942796
0.79934
0.846455
0.832776
0.808276
0.804638
0.801395
0.783594
0.788733
0.831202
0.801838
0.851417
0.653254
0.630788
0.634237
0.627242
0.625283
0.646929
0.640115
0.700556
0.689945
0.73345
0.758273
0.823935
0.747015
0.73694
0.725979
0.673839
0.736354
0.700571
0.73267
0.664787
0.726797
0.682073
0.769666
0.607677
0.622165
0.608129
0.607399
0.615791
0.619166
0.623534
0.650423
0.649462
0.66472
0.661933
0.69437
0.701384
0.674922
0.66879
0.685855
0.696135
0.691615
0.666759
0.648484
0.682273
0.595197
0.577984
0.588807
0.568647
0.60854
0.586842
0.604236
0.595883
0.615679
0.62651
0.638396
0.650999
0.682657
0.655363
0.650073
0.665548
0.617903
0.633596
0.629206
0.617105
0.64212
0.582188
0.579138
0.547407
0.573547
0.565356
0.579565
0.557688
0.56811
0.589711
0.56692
0.582242
0.55842
0.592475
0.592861
0.577577
0.605758
0.611165
0.611861
0.589
0.616558
0.561595
0.604939
0.571044
0.567179
0.549111
0.508656
0.39955
0.540886
0.532859
0.562946
0.541749
0.542022
0.546734
0.554259
0.560372
0.562747
0.565621
0.575656
0.571684
0.571092
0.570048
0.548924
0.56031
0.568803
0.507882
0.562667
0.535979
0.523679
0.471381
0.440186
0.506113
0.511651
0.502347
0.538024
0.498947
0.532559
0.525935
0.532409
0.534902
0.538123
0.551336
0.532019
0.546032
0.526137
0.530667
0.54978
0.51805
0.502353
0.498754
0.453699
0.494485
0.479541
0.447175
0.477907
0.476234
0.478737
0.457609
0.486805
0.48995
0.500007
0.502062
0.514371
0.512147
0.516928
0.499714
0.511877
0.505976
0.490208
0.491651
0.512456
0.478057
0.47344
0.45803
0.423274
0.395238
0.403293
0.440057
0.433262
0.433441
0.457826
0.458691
0.472645
0.471221
0.481784
0.476663
0.472846
0.459036
0.476463
0.456576
0.481651
0.465358
0.435897
0.442539
0.443996
0.398336
0.407054
0.390999
0.359065
0.333381
0.423294
0.425696
0.427358
0.430017
0.430386
0.455324
0.421124
0.442882
0.436824
0.438159
0.434397
0.429076
0.446531
0.434383
0.431025
0.429327
0.391638
0.417539
0.395569
0.387047
0.356018
0.340162
0.302298
0.399645
0.399316
0.401133
0.404056
0.404834
0.407583
0.40564
0.407911
0.407786
0.410756
0.407619
0.416976
0.391904
0.407566
0.394978
0.398188
0.387716
0.396673
0.367099
0.36188
0.333695
0.309726
0.294449
0.360187
0.369702
0.376232
0.379219
0.378887
0.366854
0.381658
0.379785
0.381886
0.375734
0.372725
0.360534
0.392632
0.363724
0.369629
0.381262
0.354001
0.335574
0.338741
0.331035
0.287195
0.295577
0.236821
0.35675
0.356389
0.356086
0.356152
0.357337
0.354848
0.354957
0.33789
0.353967
0.351703
0.355866
0.353544
0.340648
0.363561
0.336646
0.322261
0.327584
0.318627
0.314319
0.310748
0.301811
0.25121
0.270759
0.330265
0.331805
0.333336
0.333597
0.333638
0.332349
0.335457
0.333137
0.336291
0.329975
0.330157
0.324698
0.324443
0.317033
0.333459
0.322027
0.31426
0.310029
0.314136
0.276884
0.263236
0.279714
0.218345
0.310909
0.311292
0.311724
0.311417
0.312556
0.310155
0.309705
0.306692
0.311641
0.309538
0.31783
0.308256
0.299153
0.301166
0.27182
0.284037
0.279778
0.265044
0.269126
0.234473
0.234496
0.230723
0.213566
0.290211
0.290158
0.290837
0.289704
0.291415
0.286056
0.284151
0.287798
0.292563
0.293548
0.308193
0.290399
0.282342
0.279735
0.275462
0.279893
0.262535
0.260831
0.238121
0.230202
0.239616
0.186858
0.202218
0.268694
0.268524
0.269322
0.268875
0.27059
0.27279
0.277192
0.269101
0.26916
0.265196
0.265356
0.262167
0.256116
0.250156
0.240982
0.226998
0.243398
0.20536
0.229026
0.196525
0.192752
0.185451
0.147068
0.247551
0.2475
0.247939
0.247462
0.250596
0.248869
0.266488
0.248711
0.243404
0.24075
0.224302
0.238873
0.233357
0.230826
0.221434
0.222723
0.211595
0.210217
0.199435
0.198636
0.180523
0.166839
0.158302
0.225968
0.22569
0.226686
0.225615
0.227529
0.227125
0.227669
0.222658
0.222965
0.220729
0.216788
0.220451
0.210698
0.205442
0.199956
0.17671
0.212442
0.174604
0.192613
0.140977
0.170395
0.129461
0.14889
0.204576
0.20463
0.204362
0.204141
0.205307
0.204016
0.200088
0.200942
0.186496
0.188307
0.208084
0.195496
0.190963
0.186772
0.178195
0.171881
0.149714
0.163038
0.146073
0.147596
0.127843
0.127548
0.126746
0.182918
0.183181
0.183185
0.183346
0.184818
0.184632
0.181623
0.180847
0.178852
0.183325
0.161541
0.187534
0.167168
0.165001
0.159812
0.155878
0.154304
0.139256
0.126408
0.122144
0.131661
0.111437
0.100711
0.161155
0.161387
0.160526
0.160625
0.161956
0.160889
0.159999
0.170506
0.155353
0.158002
0.154495
0.152898
0.15065
0.145803
0.140586
0.137628
0.130184
0.125148
0.122995
0.120476
0.103658
0.0931495
0.0810239
0.140373
0.142599
0.139791
0.139865
0.152408
0.139992
0.138063
0.136467
0.134192
0.147132
0.129765
0.129903
0.126843
0.124915
0.122101
0.117714
0.111552
0.106628
0.0965983
0.0814662
0.0757608
0.0836773
0.0735008
0.115398
0.115998
0.113554
0.114094
0.111154
0.112719
0.112452
0.114149
0.110807
0.111744
0.113215
0.11215
0.119515
0.105297
0.105555
0.102271
0.0944405
0.0903704
0.0819838
0.0679972
0.0816567
0.0619261
0.0609891
0.0995822
0.110199
0.0929234
0.0879827
0.0885768
0.0879406
0.0878919
0.0853004
0.0914816
0.0827073
0.0888754
0.080149
0.0793178
0.0816171
0.0859337
0.0832646
0.0789691
0.0726834
0.0696501
0.0631974
0.061398
0.0549785
0.0527253
0.0647667
0.0670695
0.0633187
0.0653415
0.0648397
0.0664354
0.0646129
0.0643333
0.0638464
0.0623318
0.0642909
0.0626586
0.0631473
0.0619406
0.0596485
0.0724312
0.0543068
0.068031
0.0470749
0.0471107
0.0560473
0.0377303
0.029038
0.0652396
0.0520331
0.040699
0.0391231
0.0327307
0.0317946
0.0420395
0.0193561
0.0599887
0.0172235
0.0592352
0.032926
0.0246978
0.0359152
0.0556975
0.0366648
0.0617749
0.0291867
0.0536041
0.0295543
0.0322731
0.0250694
0.0427319
-0.000736343
0.0051325
0.0243957
0.0295051
0.0231876
0.0316626
0.00849257
0.0275546
0.00189831
0.0252631
0.00690723
0.00768964
0.0215805
0.0192754
2.78026e-05
-0.00250729
-0.00832799
-0.001599
-0.00601169
0.0141836
-0.000550689
0.0129173
-0.00595501
953.441
946.621
1590.35
1301.82
1417.75
1113.7
1191.71
1607.16
2149.94
2043.81
1783.82
1814.72
2293.31
2302.87
2324.39
2339.46
1566.7
1707.34
1788.69
1829.41
1059.78
1295.59
1382.02
1254.34
584.452
596.369
556.702
329.208
96.1703
102.681
141.818
191.936
61.2621
88.0234
155.907
214.109
14.0188
20.651
37.6613
48.3776
1.80599
2.69188
4.70716
4.66066
1.0023
1.16009
1.3223
1.51854
1.44271
2.09063
3.42069
5.31926
1.11519
1.45413
2.24753
3.57896
0.834841
0.918448
1.17973
1.77723
0.697434
0.684017
0.654409
0.663225
0.491288
0.504741
0.413168
0.392635
0.450474
0.390169
0.38472
0.298732
0.397338
0.383106
0.316226
0.265402
0.343907
0.337244
0.351246
0.319848
0.361259
0.371539
0.316306
0.346377
0.358778
0.308902
0.353611
0.273214
0.303984
0.295801
0.278501
0.266594
0.320933
0.284699
0.28668
0.293532
0.270486
0.26516
0.251326
0.237802
0.277817
0.241373
0.227131
0.227345
0.221016
0.249336
0.209974
0.23379
0.231865
0.197707
0.209227
0.180535
0.181705
0.196242
0.172682
0.176541
0.169256
0.170624
0.168595
0.152797
0.170762
0.141432
0.158231
0.131755
0.144597
0.139807
0.136105
0.12555
0.107163
0.132321
0.102964
0.124283
0.111977
0.10186
0.0952911
0.0811038
0.0865448
0.0913436
0.0852035
0.0836742
0.0824866
0.0806548
0.0754046
0.0768983
0.0808547
0.068296
0.0691303
0.0540001
0.0529197
0.0613298
0.0487952
0.0565667
0.0462065
0.0454124
0.0377938
0.0420613
0.0434719
0.0261192
0.0423323
0.0207832
0.0165582
0.0325525
0.0139762
0.0284043
-0.00346433
0.00199022
0.00912989
-0.00285933
1806.3
1404.61
1281.37
1282.47
1307.56
1388.21
1683.96
2040.61
2590.8
2255.77
2144.48
1904.8
1981.58
1859.19
1930.65
2275.2
2683.41
2592.07
2898.3
2353.86
1798.71
1624.79
1627.57
1692.96
1731.96
1911.7
2015.67
1967.65
1989.55
2027.53
1982.63
2071.16
2365.1
2565.04
2588.92
2544.93
2519.29
2691.59
1747.22
1509.11
1454.42
1328.91
1266.52
1319.33
1406.91
1513.68
1765.33
1765.6
1713.2
1624.93
1799.55
1673.05
1723.25
1759.81
1844.01
2526.41
2778.69
2382.31
2219.19
2164.44
1569.79
1414.5
1422.6
1902.21
2215.5
2167.18
2240.27
2358.41
2475.65
2405.18
2285.5
2311.23
2427.38
2314.51
2486.14
2633.77
1964.38
1759.18
1743.87
2260.4
1995.38
1935.8
2319.9
2287.83
1157.68
1223.96
1440.91
2108.74
2167.78
2125.34
1811.87
1763.43
1771.94
2495.48
2597.55
883.81
663.825
726.41
1148.39
2175.76
2459.86
2414.69
1820.51
648.402
546.265
668.082
1429.49
1835.64
1785.15
1544.69
1147.67
1165.46
2389.29
2536.65
227.986
302.877
512.303
1042.51
2204.19
2404.71
1924.47
901.745
292.475
221.155
304.961
919.314
1101.38
943.643
895.265
677.93
1401.56
2477.2
2536.3
349.212
855.79
1489
1724.26
2238.58
2088.07
990.452
392.095
149.342
109.944
163.207
294.374
331.151
456.112
498.319
720.405
1723.97
2602.37
2614.4
234.299
890.188
1257.93
640.971
1650.96
1169.69
457.092
152.012
95.7058
78.2281
91.8379
122.842
183.286
292.232
508.082
852.625
1787.38
2669.24
2682.4
40.4992
242.703
281.66
123.873
445.61
241.657
90.833
71.2211
78.7479
82.4671
111.795
148.576
190.553
315.918
512.95
1097.91
2124.3
2705.49
2726.48
5.50199
14.6462
14.3966
27.3042
52.5342
42.3881
51.6892
73.3636
99.2868
103.992
152.395
237.557
290.389
361.313
497.304
1016.14
2076.11
2775.07
2779.15
1.5013
2.24957
6.86115
9.12434
18.2238
41.8824
84.02
125.857
175.08
223.909
283.445
383.027
534.807
707.073
841.779
1406.34
2028.4
2799.74
2833.01
8.50049
13.923
19.4
30.2499
47.9554
79.5229
118.95
158.557
199.59
260.807
294.634
318.286
364.07
632.207
831.828
1720.63
2601.75
2797.37
2861.37
6.39765
11.8764
14.4468
26.0516
37.1203
49.1484
43.4984
31.6109
36.3978
59.4034
109.156
122.123
139.77
406.812
769.207
1275.61
2744.35
2800.85
2882.89
3.16435
7.59958
13.6099
18.0134
24.0541
24.9344
7.20668
4.3964
4.30746
5.22563
14.4699
29.7573
36.6616
134.742
616.24
1269.51
2416.14
2909.74
2904.5
0.600138
1.85815
3.67519
8.06341
12.8322
11.4141
2.03443
1.76641
1.95751
2.1953
3.52042
8.70893
11.1461
41.8113
410.535
1914.96
2527.73
2919.71
2915.53
0.0971058
0.229694
0.692789
1.73774
5.06825
5.9575
1.14225
1.0469
0.994131
0.885566
0.873408
1.56293
2.14952
9.54613
221.349
1864.68
2677.39
2951.04
2969.26
0.236976
0.14393
0.217359
0.434187
1.04435
1.66526
0.797974
0.534089
0.662578
0.72169
0.840543
1.29022
3.01475
9.73244
103.493
1757.65
2891.91
3011.36
3038.28
0.22771
0.128588
0.0954395
0.0707104
0.277191
0.387219
0.324143
0.429716
0.441673
0.706571
0.631842
1.44115
7.32695
47.9153
585.191
2533.9
2977.49
3113.46
3154.53
0.273264
0.239104
0.13266
0.109097
0.133933
0.196881
0.297016
0.36156
0.523311
0.628901
0.789043
0.956124
1.86071
8.01417
48.0535
659.643
1978.63
2676.26
3183.62
0.261791
0.210902
0.191153
0.153971
0.196744
0.266027
0.316669
0.389444
0.505803
0.654504
0.823871
1.12489
3.28219
10.9809
23.2686
47.2097
214.013
1179.59
3103.45
0.304738
0.191991
0.22059
0.194996
0.21812
0.273652
0.313554
0.398889
0.503628
0.607003
0.717197
1.30862
4.04775
12.3726
29.7849
84.7687
173.046
1655.09
3177.35
0.253236
0.233242
0.22127
0.213676
0.241437
0.260722
0.312591
0.362169
0.458284
0.492344
0.898373
1.86112
7.44549
25.1476
57.6299
241.25
510.631
2076.4
3185.78
0.249288
0.21824
0.214945
0.218697
0.221004
0.254543
0.284926
0.301386
0.38405
0.481984
0.823552
2.51554
11.0626
48.1249
121.381
415.821
750.706
2131.91
3142.27
0.216781
0.220082
0.206976
0.212923
0.217234
0.216773
0.237569
0.26261
0.300295
0.392049
0.578519
2.39611
12.188
61.2963
200.293
509.511
1210.76
1982.82
3187.77
0.218044
0.18462
0.191391
0.167339
0.15224
0.196046
0.175566
0.184527
0.201365
0.339198
0.810052
4.23446
18.7928
62.1605
218.329
514.74
1246.22
2383.35
3228.03
0.183858
0.203864
0.177085
0.151186
0.142796
0.0981871
0.0797468
0.108427
0.0277815
0.0898706
0.490859
4.39991
28.1159
86.8055
247.099
549.124
1185.82
2412.63
3289.28
0.175051
0.120253
0.169085
0.0898264
0.135843
0.0998878
0.0678639
0.0341815
-0.00108698
-0.0659448
0.698851
7.00037
36.5177
90.6181
228.645
521.71
1229.45
2407.52
3318.43
0.154088
0.148353
0.133509
0.101473
0.0766923
0.059564
0.0246258
0.0222897
-0.0476966
-0.121152
1.4888
10.0288
38.1514
82.3896
185.936
474.863
1319.65
2438.78
3321.21
0.135143
0.113786
0.0986352
0.0703724
0.0377973
0.00597469
-0.0436903
-0.127565
-0.239687
-0.279849
-0.159154
1.07433
13.3494
27.5079
86.661
348.218
1413.48
2524.91
3288.19
0.118079
0.114382
0.100238
0.0722005
0.0421753
0.0244351
-0.0330184
-0.0562387
-0.221925
-0.345363
-0.595658
-0.368353
-0.181513
1.78418
15.9252
143.282
1127.72
2555.43
3242.37
0.1044
0.081546
0.0581333
0.0495243
0.0154687
-0.0330315
-0.0744373
-0.127925
-0.140938
-0.345747
-0.468199
-0.503172
-0.446694
-0.606667
-0.302976
22.9337
391.006
1822.29
3063.24
0.0862593
0.0647962
0.0484285
0.0501558
0.021654
-0.0116828
-0.0750161
-0.0978084
-0.20155
-0.207764
-0.390223
-0.425961
-0.605941
-0.440327
-0.376784
0.0934166
34.2616
459.43
1837.68
0.0853513
0.0620014
0.0449819
0.0130665
-0.00461288
-0.0188442
-0.0571937
-0.110587
-0.132775
-0.26954
-0.255922
-0.386213
-0.435053
-0.183168
0.475376
0.654551
1.7242
86.0513
460.117
0.0735242
0.0523758
0.0391323
0.0213422
-0.00426085
-0.0187294
-0.0633087
-0.125063
-0.116557
-0.246217
-0.233213
-0.319498
-0.405961
-0.132522
0.884784
1.29553
1.61257
18.5921
199.955
0.061178
0.0416766
0.0336563
0.0171481
-0.00635665
-0.0365208
-0.0412738
-0.1086
-0.0977262
-0.185375
-0.194114
-0.231233
-0.230897
0.0527301
2.264
1.91074
1.99936
9.48949
139.357
0.0553223
0.0309837
0.0187937
0.00323973
-0.0169869
-0.0245043
-0.0685547
-0.093039
-0.0895506
-0.15865
-0.175176
-0.205842
-0.222639
0.223296
2.15625
2.45965
2.42066
8.55105
130.03
0.0423354
0.0319115
0.0155274
0.00687791
-0.00503288
-0.0273201
-0.0275897
-0.067996
-0.0727752
-0.0985207
-0.141822
-0.14493
-0.21828
-0.210818
0.670609
2.73393
3.06885
9.97815
154.495
0.0319463
0.0185317
0.00721748
-0.0132881
-0.00911666
-0.0209353
-0.0437679
-0.0567178
-0.0610096
-0.0943193
-0.113754
-0.149108
-0.159146
-0.141535
-0.0680923
1.24668
2.39767
6.96236
126.701
0.0352508
0.0172012
-0.000534664
0.00417568
-0.0115625
-0.0207518
-0.0252829
-0.0389901
-0.0397774
-0.0672014
-0.0972743
-0.0762179
-0.123393
-0.0946792
-0.191882
0.0986941
1.33343
4.9213
110.142
0.00861281
0.0237026
0.00161303
0.00431354
-0.00309217
-0.0140589
-0.0232674
-0.0354915
-0.0355711
-0.0441002
-0.132451
-0.0742133
-0.216641
-0.163673
-0.274354
-0.344908
0.183475
0.0977826
68.3915
0.0151505
-0.00871065
0.00346922
-0.00600668
-0.00302704
-0.00428148
-0.0132342
-0.0132835
-0.0372559
-0.0638221
-0.0168186
-0.121366
-0.0509421
-0.0665719
-0.106547
-0.272778
-0.273795
-2.16736
15.1462
)
;

boundaryField
{
    leftWall
    {
        type            zeroGradient;
    }
    rightWall
    {
        type            zeroGradient;
    }
    lowerWall
    {
        type            zeroGradient;
    }
    atmosphere
    {
        type            totalPressure;
        rho             rho;
        psi             none;
        gamma           1;
        p0              uniform 0;
        value           nonuniform List<scalar> 
46
(
0
0
0
0
0
0
0
0
0
0
0
0
0
0
0
0
0
0
0
0
0
0
0
0
0
0
0
0
0
0
0
0
-0.000354727
-0.00255348
-0.00843836
-0.017111
-0.0274423
-0.0460386
-0.0737642
-0.106433
-0.101664
-0.156684
-0.259081
-0.132432
-0.0816609
0
)
;
    }
    defaultFaces
    {
        type            empty;
    }
}


// ************************************************************************* //
