/*--------------------------------*- C++ -*----------------------------------*\
| =========                 |                                                 |
| \\      /  F ield         | foam-extend: Open Source CFD                    |
|  \\    /   O peration     | Version:     4.1                                |
|   \\  /    A nd           | Web:         http://www.foam-extend.org         |
|    \\/     M anipulation  |                                                 |
\*---------------------------------------------------------------------------*/
FoamFile
{
    version     2.0;
    format      ascii;
    class       surfaceScalarField;
    location    "0.65";
    object      phi;
}
// * * * * * * * * * * * * * * * * * * * * * * * * * * * * * * * * * * * * * //

dimensions      [0 3 -1 0 0 0 0];

internalField   nonuniform List<scalar> 
4432
(
-4.46007e-05
4.46007e-05
3.71773e-05
-8.1778e-05
2.16918e-05
1.54855e-05
1.83184e-05
3.37335e-06
1.84545e-05
-1.36038e-07
2.03279e-05
-1.87348e-06
2.62312e-05
-5.90331e-06
2.34277e-05
2.80355e-06
1.96486e-05
3.77914e-06
2.93833e-05
-9.73476e-06
2.29156e-05
6.46768e-06
2.04533e-05
2.46234e-06
1.60488e-05
4.40455e-06
1.07641e-05
5.28462e-06
3.09595e-06
7.6682e-06
1.68243e-06
1.41352e-06
4.88173e-07
1.19426e-06
-3.34712e-06
3.83529e-06
-9.92175e-06
6.57463e-06
-1.18573e-05
1.93557e-06
-5.9311e-06
-5.92622e-06
-3.05798e-07
-5.6253e-06
-3.05798e-07
-3.32023e-08
4.4634e-05
6.88544e-06
-8.86967e-05
1.63466e-05
6.0244e-06
1.75889e-05
2.13101e-06
1.85357e-05
-1.08285e-06
2.14462e-05
-4.784e-06
2.76635e-05
-1.21206e-05
2.39395e-05
6.52749e-06
2.20709e-05
5.64781e-06
3.54927e-05
-2.31566e-05
2.51879e-05
1.67725e-05
1.97594e-05
7.8908e-06
1.48757e-05
9.28826e-06
1.05382e-05
9.62216e-06
6.57205e-06
1.16343e-05
4.3319e-07
7.55238e-06
-7.07241e-07
2.33469e-06
-3.38198e-07
3.46625e-06
-1.07414e-06
7.31057e-06
-8.39699e-07
1.70114e-06
-8.46333e-07
-5.91959e-06
-6.06266e-07
-5.86537e-06
-9.12064e-07
-3.21863e-06
4.78526e-05
2.05377e-06
-9.3969e-05
1.32698e-05
-5.19164e-06
1.44333e-05
9.67531e-07
1.80464e-05
-4.69599e-06
1.84779e-05
-5.21546e-06
4.52071e-05
-3.88498e-05
2.29168e-05
2.88178e-05
2.23565e-05
6.20812e-06
1.9928e-05
-2.07281e-05
2.18406e-05
1.486e-05
1.42281e-05
1.55033e-05
8.64572e-06
1.48706e-05
1.58057e-06
1.66873e-05
1.06859e-06
1.21463e-05
4.02119e-08
8.58075e-06
-2.41243e-06
4.78733e-06
-4.1875e-06
5.24132e-06
-4.10959e-06
7.23266e-06
-1.6493e-06
-7.59156e-07
-5.13522e-06
-2.43367e-06
-1.3688e-06
-9.63179e-06
-2.28086e-06
9.26409e-07
4.69262e-05
8.12267e-06
-0.000101165
3.24739e-05
-2.95428e-05
2.10246e-05
1.24168e-05
1.57285e-05
6.00092e-07
-3.47957e-05
4.53087e-05
2.40273e-05
-9.76728e-05
1.92095e-05
3.36355e-05
1.99996e-05
5.41803e-06
2.19159e-05
-2.26443e-05
8.01961e-06
2.87562e-05
3.05299e-06
2.047e-05
-1.51789e-06
1.94415e-05
-2.62159e-06
1.7791e-05
-3.06468e-06
1.25894e-05
-2.88324e-06
8.39932e-06
-5.61715e-06
7.52124e-06
-4.84109e-06
4.46527e-06
-5.20566e-06
7.59722e-06
-2.13722e-06
-3.8276e-06
-2.57773e-06
-1.99315e-06
-2.00609e-06
-1.02034e-05
-4.28695e-06
3.35937e-06
4.35669e-05
1.16277e-05
-0.000109434
3.69424e-05
-5.48575e-05
3.09901e-05
1.83691e-05
2.69531e-05
4.63706e-06
-5.29936e-06
7.75612e-05
1.66353e-05
-0.000119607
8.83288e-06
4.14379e-05
1.58437e-05
-1.5928e-06
3.80932e-05
-4.48937e-05
1.86891e-05
4.81603e-05
-6.68938e-07
3.9828e-05
-3.59434e-06
2.23669e-05
-7.56538e-06
2.1762e-05
-1.24387e-05
1.74627e-05
-8.6144e-06
4.57503e-06
-7.58337e-06
6.4902e-06
-1.08568e-05
7.73871e-06
-4.50999e-06
1.2504e-06
-5.31368e-06
-3.0239e-06
-5.81472e-06
-1.49212e-06
-1.94375e-06
-1.40744e-05
-6.2307e-06
9.94779e-06
3.36191e-05
3.0602e-05
-0.000130088
4.46129e-05
-6.88684e-05
5.26798e-05
1.03022e-05
2.57923e-05
3.15245e-05
5.75995e-05
4.5754e-05
2.69952e-05
-8.90031e-05
2.17057e-05
4.67275e-05
2.43397e-05
-4.22685e-06
3.26548e-05
-5.32088e-05
1.18087e-05
6.90064e-05
-2.44392e-07
5.18811e-05
-4.29714e-06
2.64196e-05
-4.75705e-06
2.2222e-05
-6.68245e-06
1.93881e-05
-1.58537e-05
1.37463e-05
-1.78722e-05
8.50871e-06
-1.54835e-05
5.34997e-06
-1.32321e-05
-1.00096e-06
-7.90165e-06
-8.35436e-06
-7.11583e-06
-2.27794e-06
-2.9039e-06
-1.82863e-05
-9.13459e-06
3.31405e-05
4.78571e-07
2.31266e-05
-0.000120074
2.5501e-05
-7.12427e-05
4.29418e-05
-7.13866e-06
3.32251e-05
4.12411e-05
6.88148e-05
1.01642e-05
3.6045e-05
-5.62333e-05
-3.1982e-05
0.000114755
-2.8987e-05
-7.22187e-06
-1.73594e-05
-6.48364e-05
1.15617e-06
5.04908e-05
-1.61987e-06
5.46571e-05
-2.6658e-06
2.74656e-05
-3.31325e-06
2.28694e-05
-1.14019e-05
2.74767e-05
-9.00568e-06
1.13501e-05
-2.01576e-05
1.96607e-05
-1.08568e-05
-3.95082e-06
-1.32773e-05
1.41947e-06
-4.12431e-06
-1.75073e-05
-3.81015e-06
-2.5921e-06
-1.14198e-06
-2.09545e-05
-1.02766e-05
3.58688e-05
-3.53902e-05
2.35406e-05
-0.000107746
3.99248e-05
-8.7627e-05
7.94298e-06
2.48431e-05
2.50451e-06
4.66795e-05
1.17918e-05
8.76892e-07
4.61384e-06
-4.90553e-05
-6.02961e-06
0.000125398
-1.71914e-05
3.9399e-06
-1.53023e-05
-6.67256e-05
7.1015e-06
2.8087e-05
3.22135e-06
5.85373e-05
-8.08083e-07
3.1495e-05
-1.33929e-05
3.54542e-05
-2.06963e-05
3.47802e-05
-2.41015e-05
1.47552e-05
-1.58771e-05
1.14363e-05
-2.28888e-05
3.06096e-06
-7.80393e-06
-1.36654e-05
8.16158e-06
-3.34728e-05
7.46185e-06
-1.89237e-06
1.24722e-06
-1.47399e-05
-9.02936e-06
-8.97362e-05
8.97362e-05
-0.000122994
3.32581e-05
-0.00013454
1.15463e-05
-0.000136604
2.06374e-06
-0.000133348
-3.25569e-06
-0.000130132
-3.21695e-06
-0.000122545
-7.58703e-06
-7.76584e-05
-4.48862e-05
-8.07319e-05
3.07349e-06
-9.52678e-05
1.45359e-05
-7.17559e-05
-2.35119e-05
-0.000119932
4.81758e-05
-0.000106427
-1.35051e-05
-0.000102399
-4.02719e-06
-9.4453e-05
-7.94636e-06
-5.70316e-05
-3.74214e-05
-1.0921e-05
-4.61106e-05
2.452e-05
-3.5441e-05
2.452e-05
-3.57219e-05
0.000125458
-8.93619e-05
8.68981e-05
-9.33812e-05
1.55656e-05
-5.84704e-05
-3.28471e-05
-9.5298e-05
3.35719e-05
-9.48397e-05
-3.67529e-06
-5.95567e-05
-4.28701e-05
-7.04696e-05
-3.39732e-05
-7.72628e-05
9.86665e-06
-0.00010662
4.38936e-05
-0.000117517
-1.26149e-05
-7.14529e-05
2.11133e-06
-9.65287e-05
1.15706e-05
-9.09006e-05
-9.65527e-06
-4.94034e-05
-4.94436e-05
-5.80444e-05
-2.87804e-05
-3.44867e-05
-6.96684e-05
8.38673e-06
-7.83144e-05
3.29068e-05
-2.48977e-05
0.000150356
-2.68991e-05
8.88995e-05
-2.29673e-05
1.16338e-05
-4.29229e-05
-1.28916e-05
-7.23095e-05
6.29585e-05
-5.57791e-05
-2.02057e-05
-7.93674e-05
-1.92818e-05
-9.26604e-05
-2.06802e-05
-9.68231e-05
1.40293e-05
-8.34283e-05
3.04989e-05
-8.38064e-05
-1.22369e-05
-5.59828e-05
-2.57122e-05
-7.53376e-05
3.09254e-05
-6.49469e-05
-2.0046e-05
-6.78121e-05
-4.65784e-05
-5.23693e-05
-4.42231e-05
-3.50905e-05
-8.69472e-05
1.10249e-06
-0.000114507
3.40092e-05
-1.52097e-05
0.000165566
-2.05392e-05
9.4229e-05
-3.97324e-05
3.0827e-05
-6.33364e-05
1.07125e-05
-5.68295e-05
5.64516e-05
-4.68105e-05
-3.02248e-05
-4.07108e-05
-2.53815e-05
-5.2783e-05
-8.60799e-06
-2.37379e-05
-1.50157e-05
-3.66536e-05
4.34145e-05
-7.31909e-05
2.43005e-05
-8.017e-05
-1.87331e-05
-3.55447e-05
-1.36999e-05
-4.6778e-05
-8.81274e-06
-4.74345e-05
-4.59218e-05
-2.03153e-05
-7.13423e-05
-1.48053e-05
-9.24572e-05
3.97267e-07
-0.00012971
3.44065e-05
-8.69308e-06
0.000174259
-7.51037e-06
9.30463e-05
-4.90021e-06
2.82168e-05
-1.16701e-05
1.74823e-05
-1.41583e-05
5.89398e-05
-1.1114e-05
-3.32692e-05
-2.63833e-05
-1.01122e-05
-1.58492e-05
-1.91421e-05
1.53345e-06
-3.23984e-05
1.42516e-06
4.35228e-05
3.48305e-06
2.22426e-05
2.12258e-06
-1.73726e-05
-2.51559e-05
1.35786e-05
-1.34378e-07
-3.38342e-05
-7.72448e-06
-3.83317e-05
-1.88681e-05
-6.01986e-05
-2.48384e-05
-8.6487e-05
-5.56867e-06
-0.00014898
2.88379e-05
-1.30095e-06
0.00017556
2.55556e-06
8.91896e-05
1.43266e-05
1.64458e-05
2.99482e-06
2.88141e-05
6.84645e-06
5.50882e-05
1.35731e-05
-3.99959e-05
2.57986e-06
8.81052e-07
1.1276e-05
-2.78382e-05
1.33898e-05
-3.45122e-05
4.31208e-05
1.37919e-05
5.3749e-05
1.16144e-05
5.88025e-05
-2.2426e-05
6.24475e-05
9.9335e-06
2.86915e-05
-7.81981e-08
8.13659e-06
-1.77768e-05
-5.62832e-06
-4.64337e-05
-1.72877e-05
-7.48276e-05
-1.49022e-05
-0.000151365
1.39357e-05
8.87924e-06
0.00016668
-1.11322e-06
9.9182e-05
9.1186e-06
6.21396e-06
2.22568e-05
1.5676e-05
2.53834e-05
5.19615e-05
1.49043e-05
-2.95168e-05
1.37745e-05
2.01086e-06
2.40325e-05
-3.80963e-05
2.99612e-05
-4.04408e-05
5.17332e-05
-7.98008e-06
6.79952e-05
-4.64749e-06
6.08756e-05
-1.53064e-05
5.8585e-05
1.22241e-05
4.8182e-05
1.03248e-05
2.56419e-05
4.76331e-06
8.16728e-06
-2.89591e-05
-1.90474e-08
-6.66412e-05
-2.84917e-05
-0.000122893
-1.4556e-05
7.42773e-06
0.000159253
2.78555e-07
0.000106331
1.90586e-05
-1.2566e-05
5.01426e-05
-1.5408e-05
6.76951e-05
3.4409e-05
4.88614e-05
-1.06831e-05
8.14055e-05
-3.05332e-05
6.42295e-05
-2.09202e-05
5.51157e-05
-3.1327e-05
4.29025e-05
4.2332e-06
5.34761e-05
-1.52211e-05
4.59558e-05
-7.78609e-06
4.93791e-05
8.80084e-06
5.06028e-05
9.10115e-06
3.85233e-05
1.68428e-05
2.31744e-05
-1.36102e-05
9.45877e-06
-5.29256e-05
-1.4395e-05
-9.90388e-05
-2.8951e-05
9.06757e-05
-0.000126066
7.7243e-05
-9.43131e-05
2.83217e-05
-3.87056e-05
-4.82289e-05
0.000101394
-3.04525e-05
2.89031e-05
-1.0724e-05
-1.88516e-05
-2.7394e-05
-3.23852e-05
5.53869e-05
4.2617e-05
2.94914e-05
2.98354e-05
3.81543e-06
-4.10496e-05
2.35729e-05
8.32956e-06
-8.82143e-08
8.21984e-05
-2.03245e-05
5.17313e-05
-2.57657e-05
4.08955e-05
-3.57766e-05
4.4791e-05
-3.82842e-05
1.72627e-05
-4.33905e-05
1.65426e-05
-1.50463e-05
-2.52832e-05
1.27625e-05
-4.14743e-05
3.2346e-05
-5.30563e-05
3.09401e-05
-4.86482e-07
1.33402e-05
2.86008e-06
-1.38811e-05
1.81919e-05
1.25311e-05
-0.000138597
-1.87575e-05
-6.30245e-05
-3.55129e-05
-2.19502e-05
6.22635e-06
5.96545e-05
4.38633e-06
3.07431e-05
-7.31164e-06
-7.15369e-06
-3.84616e-05
-1.23534e-06
-3.56359e-05
3.97913e-05
-1.4277e-05
8.4765e-06
-4.20949e-06
-5.11171e-05
3.05635e-05
-2.64435e-05
5.69466e-06
0.000107067
6.05058e-07
5.68209e-05
8.66563e-06
3.28349e-05
1.99907e-05
3.3466e-05
5.31253e-06
3.19409e-05
-5.23874e-06
2.70938e-05
-3.39986e-05
3.47667e-06
-3.64541e-05
-3.90188e-05
-2.15678e-05
-6.79426e-05
-3.91228e-06
-1.8142e-05
5.28113e-06
-6.33334e-06
8.08329e-07
-9.40829e-06
-4.71846e-05
-9.14124e-05
-6.18053e-05
-4.84039e-05
-2.45232e-05
-5.92324e-05
-2.49214e-05
6.00527e-05
-6.8093e-06
1.2631e-05
-1.48195e-05
8.56474e-07
-4.46288e-05
2.85739e-05
-1.75582e-05
1.27207e-05
3.53823e-05
-4.44641e-05
5.60685e-05
-7.18033e-05
1.29123e-05
1.67128e-05
4.14293e-06
0.000115837
3.12565e-05
2.97073e-05
1.45654e-05
4.9526e-05
-7.68345e-06
5.57149e-05
-4.24828e-05
6.67402e-05
4.13856e-06
-1.95275e-05
7.00388e-05
-6.24235e-05
6.71205e-05
-3.61006e-05
1.33083e-05
-1.41304e-05
3.26384e-06
-8.09752e-06
1.51225e-06
-4.58175e-06
6.35364e-06
-4.03306e-06
5.36309e-05
-0.000145043
7.12543e-05
-6.60272e-05
1.05371e-05
1.48479e-06
-1.10624e-05
8.16522e-05
-4.56546e-05
4.72232e-05
-8.58167e-05
4.10187e-05
-9.50558e-05
3.7813e-05
-9.73001e-05
1.49649e-05
-9.2088e-05
-4.96765e-05
-0.000146567
-1.7324e-05
-0.000122315
-7.53915e-06
-9.32624e-05
8.67836e-05
-5.75253e-05
-6.02976e-06
-2.92338e-05
2.12344e-05
-1.63581e-05
4.28391e-05
2.39047e-05
2.64774e-05
6.54636e-05
-6.10865e-05
8.5591e-05
-8.25509e-05
7.64289e-05
-2.69385e-05
8.96899e-05
-2.73915e-05
8.16897e-05
-9.7297e-08
5.72132e-05
1.98947e-05
-4.89237e-06
6.84592e-05
-1.59472e-06
-0.000143449
-8.45747e-06
-5.91645e-05
-6.71889e-05
6.02162e-05
-4.26817e-05
5.7145e-05
-7.577e-05
8.03115e-05
-9.95959e-05
6.48445e-05
-0.000104451
4.26683e-05
-5.75281e-05
-3.19583e-05
-8.26506e-05
-2.45539e-05
-8.63705e-05
-1.36042e-05
-9.27686e-05
-1.14102e-06
-0.000112864
0.000106879
-8.99652e-05
-2.89287e-05
-3.13743e-05
-3.73565e-05
1.17713e-05
-3.06415e-07
6.03535e-05
-2.21048e-05
8.85804e-05
-8.93133e-05
9.56967e-05
-8.96672e-05
0.000107776
-3.90174e-05
0.000112805
-3.24209e-05
0.0001355
-2.27927e-05
0.000151551
3.8442e-06
-4.22224e-06
0.000150881
-5.82384e-05
-8.52102e-05
-7.5482e-05
-4.19209e-05
-5.93867e-05
4.4121e-05
-5.85966e-05
5.63549e-05
-7.78125e-05
9.95274e-05
-8.48598e-05
7.18917e-05
-5.08097e-05
8.61822e-06
-5.05242e-05
-3.22437e-05
-4.94783e-05
-2.55999e-05
-7.02323e-05
7.1496e-06
-7.89601e-05
7.58687e-06
-4.45049e-05
7.24239e-05
1.59211e-05
-8.93547e-05
1.51327e-05
-3.65682e-05
4.32872e-05
-2.84609e-05
7.91502e-05
-5.79677e-05
3.4502e-05
-4.46652e-05
2.48382e-05
-8.00035e-05
3.38755e-05
-4.80547e-05
5.51237e-05
-5.3669e-05
0.000118992
-8.66606e-05
0.000163002
-4.01665e-05
-5.55976e-06
0.00016434
-2.60587e-05
-5.91516e-05
-4.88617e-05
-1.91179e-05
-6.88187e-05
6.4078e-05
-6.71141e-05
5.46502e-05
-3.31726e-05
6.55859e-05
-4.54147e-05
8.41338e-05
-5.58944e-05
1.90979e-05
-3.27931e-05
-5.53449e-05
-4.09577e-05
-1.74353e-05
-7.34231e-05
3.96146e-05
-7.41268e-05
8.29069e-06
-1.89921e-05
1.72892e-05
4.04411e-06
-0.000112391
3.22182e-05
-6.47424e-05
5.69317e-05
-5.31744e-05
3.63013e-05
-3.73373e-05
4.98072e-05
-5.81711e-05
1.55426e-05
-4.57389e-05
8.51375e-06
-4.10259e-05
3.26634e-05
-7.78187e-05
5.57408e-05
-0.000109738
5.85711e-05
-4.29968e-05
1.14762e-05
4.15351e-05
-4.83791e-05
-1.07725e-05
-9.25457e-05
2.50488e-05
-5.77843e-05
2.93165e-05
-4.16757e-05
3.85417e-05
-3.02008e-05
5.41109e-05
-2.57877e-05
7.97208e-05
-2.32824e-05
1.65926e-05
-4.544e-05
-3.31872e-05
-4.83096e-05
-1.45654e-05
-3.87447e-05
3.00499e-05
-1.67602e-05
-1.36939e-05
4.3435e-05
-4.29062e-05
2.23968e-05
-9.13526e-05
3.59843e-05
-7.83299e-05
4.72316e-05
-6.44216e-05
4.49534e-05
-3.50592e-05
3.6832e-05
-5.00497e-05
3.45407e-05
-4.34475e-05
5.19963e-07
-7.00513e-06
-1.7546e-05
-5.97528e-05
-5.33817e-05
-7.39023e-05
-7.493e-05
-2.14485e-05
1.91234e-05
-8.25773e-05
-1.7962e-05
7.18946e-06
-2.89994e-05
3.60861e-05
-3.55039e-05
3.58211e-05
-4.11007e-05
4.41384e-05
-1.93169e-05
3.23272e-05
-1.09685e-05
7.13724e-05
-1.9197e-05
2.48211e-05
-2.11384e-05
-3.12458e-05
-1.07621e-05
-2.49414e-05
-1.65377e-05
3.58259e-05
-1.67697e-05
-1.34619e-05
4.06311e-05
-0.000100307
2.3141e-05
-7.38626e-05
1.81501e-05
-7.33389e-05
5.69611e-05
-0.000103233
6.01e-05
-3.8198e-05
5.79403e-05
-4.78901e-05
2.05921e-05
-6.09931e-06
-8.27878e-06
2.18657e-05
-4.87521e-05
-1.92794e-05
-8.43924e-05
-3.82619e-05
-7.40713e-05
-3.17696e-05
-1.60797e-05
-3.88682e-05
-5.5218e-06
1.27112e-05
-1.18403e-05
4.24046e-05
-1.57771e-05
3.97579e-05
-3.5657e-05
6.40182e-05
-2.86181e-05
2.52883e-05
1.27204e-05
3.00339e-05
1.46322e-05
2.29094e-05
6.12946e-06
-2.2743e-05
1.67996e-05
-3.56115e-05
3.60424e-05
1.65833e-05
1.48741e-05
7.70657e-06
4.5081e-06
-8.99411e-05
2.05697e-05
-8.99243e-05
4.5185e-05
-9.79542e-05
3.20164e-05
-9.00641e-05
2.48342e-05
-3.10159e-05
-4.06949e-06
-1.89863e-05
-2.87909e-05
1.86221e-05
-5.13624e-05
4.44372e-05
-6.36517e-05
-6.99016e-06
-6.74676e-05
-3.4446e-05
-5.48299e-05
-4.44073e-05
-4.37596e-05
-2.715e-05
3.89089e-06
8.82034e-06
-1.04328e-05
5.67282e-05
-1.43742e-05
4.36994e-05
-2.14231e-06
5.17863e-05
6.76345e-06
1.63825e-05
2.1238e-05
1.55593e-05
3.0202e-05
1.39454e-05
3.50645e-05
-2.76055e-05
2.64578e-05
-2.70048e-05
4.67533e-05
-3.71217e-06
5.15312e-05
2.92876e-06
4.50873e-05
-8.34972e-05
3.16296e-05
-7.64666e-05
2.3608e-05
-8.99327e-05
-8.3634e-07
-6.56197e-05
-1.11332e-05
-2.0719e-05
-2.78178e-05
-2.30172e-06
-2.32909e-05
1.40952e-05
-6.97428e-06
2.81206e-05
-2.58365e-05
1.18721e-05
-2.78622e-05
-3.24203e-05
-1.02292e-05
-6.20403e-05
-5.54779e-05
1.48909e-06
-3.712e-06
1.25323e-05
7.25023e-06
4.5766e-05
1.51666e-05
3.5783e-05
2.2303e-05
4.46499e-05
2.75818e-05
1.11037e-05
3.86773e-05
4.46376e-06
5.17863e-05
8.36422e-07
4.16786e-05
-1.74978e-05
3.40608e-05
-1.93869e-05
4.97563e-05
-1.94076e-05
3.86039e-05
1.40811e-05
4.35991e-05
-8.84923e-05
2.85028e-05
-6.13703e-05
1.52912e-05
-7.67211e-05
-2.83492e-05
-2.19793e-05
-3.20098e-05
-1.70585e-05
-2.97211e-05
-4.59045e-06
-2.51179e-05
9.492e-06
-1.82871e-05
2.12898e-05
-2.31126e-05
1.66975e-05
-3.17714e-05
-2.37615e-05
-4.62645e-05
-4.75472e-05
-6.74722e-05
-3.42702e-05
7.04036e-08
1.24619e-05
8.86633e-06
3.697e-05
1.10489e-05
3.36004e-05
2.58124e-05
2.98863e-05
1.84062e-05
1.85099e-05
3.11651e-05
-8.29522e-06
3.23538e-05
-3.5221e-07
3.10397e-05
-1.61838e-05
2.73032e-05
-1.56504e-05
3.81758e-05
-3.02802e-05
6.41539e-05
-1.1897e-05
2.37587e-05
-4.8097e-05
1.03669e-05
-4.79785e-05
-3.37978e-05
-3.25564e-05
-3.14106e-05
-2.43666e-05
-5.35403e-05
5.07124e-06
-5.82045e-05
7.3766e-08
-5.95091e-05
1.07966e-05
-5.30385e-05
1.48192e-05
-5.45159e-05
1.8175e-05
-7.35637e-05
-4.7137e-06
-0.000115614
-5.49717e-06
-1.42945e-05
-0.000168791
-2.34974e-06
1.48116e-05
2.92935e-06
3.16909e-05
9.50918e-06
2.70206e-05
2.17947e-05
1.76008e-05
2.80693e-05
1.22353e-05
2.18831e-05
-2.10905e-06
2.45582e-05
-3.02732e-06
3.25166e-05
-2.41422e-05
3.00457e-05
-1.31796e-05
2.29534e-05
-2.3188e-05
4.02218e-05
-2.91654e-05
2.63893e-05
-3.42646e-05
8.525e-07
-2.24417e-05
-2.20873e-05
-9.61657e-06
-4.17056e-05
-4.74826e-06
-3.87781e-05
2.14368e-06
-4.09853e-05
2.28094e-06
-6.01084e-05
2.99198e-05
-6.02859e-05
1.49966e-05
-7.08629e-05
2.87519e-05
-8.42697e-05
8.69305e-06
-0.000117192
2.74247e-05
2.79079e-05
-0.000159394
-5.72086e-06
2.05325e-05
1.85096e-06
2.41191e-05
6.80901e-06
2.20625e-05
1.0842e-05
1.35678e-05
1.72218e-05
5.8555e-06
1.57974e-05
-6.84688e-07
1.67086e-05
-3.93855e-06
2.1325e-05
-2.87585e-05
2.95152e-05
-2.13697e-05
1.98359e-05
-1.35087e-05
2.19849e-05
-3.13144e-05
3.91709e-06
-1.61968e-05
-1.08229e-05
-7.70173e-06
-3.80344e-05
1.75949e-05
-4.68219e-05
4.03919e-06
-4.60079e-05
1.32971e-06
-5.48538e-05
1.11268e-05
-3.99406e-05
1.50065e-05
-4.54089e-05
2.04649e-05
-4.54639e-05
2.88069e-05
-8.42421e-05
4.74712e-05
-0.000101957
4.514e-05
4.49694e-05
-0.000119019
3.66663e-06
1.68659e-05
5.5882e-06
2.21975e-05
8.73546e-06
1.89152e-05
6.33762e-06
1.59656e-05
4.19305e-06
8.00006e-06
5.16174e-06
-1.6534e-06
3.80404e-06
-2.58086e-06
-3.4491e-08
-2.492e-05
-2.08968e-06
-1.93146e-05
-2.3133e-06
-1.32851e-05
-1.84754e-05
-1.51523e-05
-2.39893e-05
-1.06829e-05
-3.16241e-05
-6.69765e-08
-2.73969e-05
1.33677e-05
-3.25232e-05
9.16543e-06
-3.46879e-05
3.49441e-06
-4.76447e-05
2.40836e-05
-5.14811e-05
1.88429e-05
-5.40677e-05
2.30515e-05
-6.63358e-05
4.1075e-05
-7.14664e-05
5.26019e-05
-5.11983e-05
2.48719e-05
4.07619e-05
-4.69908e-05
-1.05269e-06
1.79185e-05
6.88375e-06
1.4261e-05
6.43448e-06
1.93645e-05
4.093e-06
1.83071e-05
4.87351e-06
7.21954e-06
4.1707e-06
-9.50607e-07
5.87792e-06
-4.28808e-06
-4.77972e-06
-1.42624e-05
-7.11914e-06
-1.69752e-05
-9.08858e-06
-1.13157e-05
-1.88578e-05
-5.38305e-06
-4.00584e-05
1.05176e-05
-4.4522e-05
4.39662e-06
-3.20422e-05
8.87949e-07
-3.27403e-05
9.86353e-06
-5.09027e-05
2.16567e-05
-4.648e-05
1.9661e-05
-4.71964e-05
1.95593e-05
-5.76297e-05
3.34848e-05
-3.5495e-05
1.89403e-05
-2.52868e-05
4.23937e-05
-4.7541e-05
4.71261e-05
6.38902e-05
-7.06691e-05
4.1172e-06
1.38013e-05
-6.05293e-07
1.89835e-05
4.89034e-06
1.38688e-05
1.84643e-06
2.1351e-05
1.19568e-07
8.94638e-06
-4.01285e-06
3.1818e-06
-6.17442e-06
-2.12653e-06
-1.40022e-05
-6.43465e-06
-2.38422e-05
-7.13516e-06
-3.01828e-05
-4.97507e-06
-3.77395e-05
2.17368e-06
-2.62228e-05
-9.99163e-07
-2.84167e-05
6.59051e-06
-2.945e-05
1.92127e-06
-2.73881e-05
7.80161e-06
-3.40176e-05
2.82863e-05
-3.28905e-05
1.85339e-05
-4.01839e-05
2.68526e-05
-2.09236e-05
1.42244e-05
-2.57401e-05
2.37568e-05
-2.76875e-05
4.43411e-05
-2.86106e-05
4.80491e-05
4.57068e-05
-1.04272e-05
1.86851e-06
1.19328e-05
7.83433e-06
1.30176e-05
1.12382e-06
2.05793e-05
-1.23249e-06
2.37073e-05
-1.84691e-06
9.56078e-06
-5.49152e-06
6.8264e-06
-8.64386e-06
1.0258e-06
-1.11691e-05
-3.90938e-06
-1.90861e-05
7.8184e-07
-2.29191e-05
-1.14215e-06
-1.81405e-05
-2.60487e-06
-1.94753e-05
3.35614e-07
-1.87965e-05
5.91171e-06
-2.24323e-05
5.557e-06
-2.46153e-05
9.98458e-06
-1.80628e-05
2.17338e-05
-2.34242e-05
2.38953e-05
-1.93386e-05
2.2767e-05
-3.08989e-05
2.57847e-05
-3.89704e-05
3.18283e-05
-2.22637e-05
2.76344e-05
-1.61971e-05
4.19826e-05
5.61267e-05
-2.6617e-05
8.82156e-07
1.10506e-05
6.81272e-07
1.32185e-05
5.44738e-06
1.58132e-05
1.6897e-06
2.74649e-05
-1.37957e-06
1.263e-05
-5.89548e-06
1.13423e-05
-8.53285e-06
3.66316e-06
-1.23098e-05
-1.32493e-07
-1.46869e-05
3.15896e-06
-1.81947e-05
2.3657e-06
-1.85042e-05
-2.29546e-06
-2.53168e-05
7.14825e-06
-2.09606e-05
1.55551e-06
-2.07885e-05
5.38482e-06
-3.29821e-05
2.21782e-05
-3.19652e-05
2.07169e-05
-2.01564e-05
1.20865e-05
-2.7425e-05
3.00356e-05
-2.24288e-05
2.07885e-05
-1.84507e-05
2.78503e-05
-2.65298e-05
3.57134e-05
-2.23266e-05
3.77794e-05
3.43297e-05
-5.29688e-07
5.91192e-07
1.04594e-05
-3.62507e-07
1.41722e-05
-5.14682e-07
1.59654e-05
5.75876e-06
2.11915e-05
-1.21581e-06
1.96046e-05
-8.74077e-07
1.10006e-05
-3.16471e-06
5.95378e-06
-5.68679e-06
2.38958e-06
-1.12008e-05
8.67298e-06
-1.41846e-05
5.34946e-06
-2.21598e-05
5.67971e-06
-1.64223e-05
1.41073e-06
-2.47616e-05
9.89482e-06
-2.81243e-05
8.74755e-06
-3.25738e-05
2.66277e-05
-2.51953e-05
1.33383e-05
-3.20986e-05
1.89898e-05
-1.96823e-05
1.76193e-05
-1.94211e-05
2.05272e-05
-2.48113e-05
3.32405e-05
-1.51126e-05
2.60146e-05
-4.28589e-06
2.69527e-05
3.2573e-05
-2.52918e-06
7.40721e-07
9.71869e-06
1.50727e-06
1.34056e-05
3.09177e-06
1.43808e-05
-3.95435e-06
2.82376e-05
-2.77854e-06
1.84288e-05
-4.45313e-06
1.26751e-05
-4.89569e-06
6.39634e-06
-8.54149e-06
6.03537e-06
-5.89565e-06
6.02713e-06
-6.97812e-06
6.43192e-06
-8.12014e-06
6.82171e-06
-1.27899e-05
6.08053e-06
-1.20144e-05
9.1193e-06
-1.88995e-05
1.56326e-05
-1.37162e-05
2.14445e-05
-1.502e-05
1.4642e-05
-1.20218e-05
1.59916e-05
-1.43838e-05
1.99813e-05
-1.5533e-05
2.16764e-05
-1.51111e-05
3.28186e-05
-1.32708e-05
2.41743e-05
-1.25552e-05
2.62371e-05
2.35318e-05
-3.51405e-06
1.1592e-06
8.55948e-06
-2.65576e-06
1.72206e-05
-6.45376e-06
1.81788e-05
-6.03176e-07
2.2387e-05
-1.69911e-06
1.95247e-05
-2.24623e-06
1.32222e-05
-5.3603e-06
9.5104e-06
-5.41451e-06
6.08956e-06
-4.58586e-06
5.19848e-06
-4.10742e-06
5.95347e-06
-7.5546e-06
1.02689e-05
-1.00738e-05
8.59969e-06
-1.84494e-05
1.74949e-05
-1.46464e-05
1.18296e-05
-1.02935e-05
1.70916e-05
-1.32177e-05
1.75662e-05
-1.06378e-05
1.34117e-05
-9.22776e-06
1.85713e-05
-1.42912e-05
2.67398e-05
-1.31793e-05
3.17066e-05
-9.4225e-06
2.04175e-05
-4.8449e-06
2.16595e-05
2.31833e-05
-4.49637e-06
-2.97693e-06
1.15364e-05
-1.38886e-06
1.56325e-05
-1.43774e-06
1.82277e-05
-4.63519e-07
2.14128e-05
5.80172e-07
1.8481e-05
3.57872e-06
1.02237e-05
-3.10961e-06
1.61987e-05
-4.49612e-06
7.47607e-06
-6.24909e-06
6.95144e-06
-7.99705e-06
7.70143e-06
-1.16777e-05
1.39496e-05
-1.58803e-05
1.28023e-05
-1.22289e-05
1.38435e-05
-1.13579e-05
1.09585e-05
-1.2918e-05
1.86517e-05
-7.99681e-06
1.2645e-05
-1.13397e-05
1.67545e-05
-1.43504e-05
2.1582e-05
-9.74278e-06
2.21322e-05
-8.7195e-06
3.06833e-05
-6.97098e-06
1.8669e-05
-6.09042e-06
2.07789e-05
2.28542e-05
-5.76134e-06
-1.09763e-06
1.2634e-05
-1.54084e-06
1.60757e-05
-1.72599e-06
1.84128e-05
-6.66403e-07
2.03532e-05
-6.41633e-08
1.78788e-05
5.55422e-07
9.60409e-06
1.21299e-07
1.66328e-05
-1.6101e-06
9.20747e-06
-2.69178e-06
8.0331e-06
-4.12908e-06
9.13872e-06
-7.96699e-06
1.77875e-05
-7.28804e-06
1.21233e-05
-1.03716e-05
1.6927e-05
-8.92881e-06
9.51572e-06
-7.68499e-06
1.74078e-05
-9.50807e-06
1.44681e-05
-1.61305e-05
2.3377e-05
-1.09855e-05
1.6437e-05
-1.20184e-05
2.31651e-05
-5.43596e-06
2.41009e-05
-5.23903e-06
1.84721e-05
-3.11085e-06
1.86508e-05
2.40409e-05
-4.29752e-06
-4.23304e-06
1.68671e-05
-2.11496e-06
1.39576e-05
-6.167e-07
1.69146e-05
7.3395e-07
1.90025e-05
1.10365e-06
1.7509e-05
-2.41969e-06
1.31274e-05
-1.6841e-06
1.58972e-05
-3.70152e-06
1.12249e-05
-4.24467e-06
8.57624e-06
-4.30092e-06
9.19496e-06
-1.6887e-06
1.51752e-05
-7.58264e-06
1.80173e-05
-1.77425e-06
1.11186e-05
-8.8441e-06
1.65856e-05
-7.52385e-06
1.60876e-05
-6.56399e-06
1.35082e-05
-5.13744e-06
2.19504e-05
-1.01837e-05
2.14833e-05
-5.07937e-06
1.80607e-05
-1.7195e-06
2.0741e-05
-6.05415e-06
2.28067e-05
-3.21777e-06
1.58144e-05
3.18307e-05
-1.10076e-05
-5.6019e-07
1.74272e-05
-5.48213e-07
1.39456e-05
-3.15066e-07
1.66814e-05
1.25464e-08
1.86749e-05
4.95987e-07
1.70256e-05
9.76984e-07
1.26464e-05
1.40361e-06
1.54706e-05
-3.70572e-06
1.63342e-05
-3.10019e-06
7.97071e-06
-2.04291e-06
8.13768e-06
-2.73087e-06
1.58632e-05
-1.77744e-06
1.70638e-05
-8.31177e-06
1.7653e-05
-3.53942e-06
1.18132e-05
-6.50543e-06
1.90536e-05
-8.85788e-06
1.58606e-05
-8.29959e-06
2.13921e-05
-4.52641e-06
1.77101e-05
-6.35531e-06
1.98896e-05
-4.73225e-07
1.48589e-05
-6.23676e-07
2.29571e-05
-9.67858e-06
2.48693e-05
2.57504e-05
-3.5983e-06
-6.50369e-07
1.80776e-05
-7.29123e-07
1.40243e-05
-2.58376e-07
1.62107e-05
-6.66541e-07
1.9083e-05
-4.04399e-07
1.67634e-05
-3.56482e-07
1.25985e-05
-3.00234e-07
1.54143e-05
-1.69903e-06
1.7733e-05
-2.22387e-06
8.49554e-06
-1.82789e-06
7.74169e-06
2.33798e-07
1.38015e-05
-6.66765e-07
1.79644e-05
-1.90125e-06
1.88874e-05
-8.04557e-06
1.79575e-05
-4.49599e-06
1.5504e-05
-1.86103e-06
1.32257e-05
-6.62358e-06
2.61547e-05
-8.23635e-06
1.93229e-05
-3.6444e-06
1.52976e-05
-4.13524e-06
1.53497e-05
-6.80245e-06
2.56243e-05
-1.1349e-06
1.92017e-05
2.37055e-05
9.09996e-07
8.97055e-08
1.79879e-05
2.73697e-07
1.38403e-05
4.61463e-07
1.60229e-05
-3.62488e-07
1.9907e-05
-7.05269e-07
1.71062e-05
-6.0004e-08
1.19532e-05
3.60098e-08
1.53183e-05
-6.69361e-07
1.84384e-05
-8.70956e-08
7.91327e-06
2.64897e-07
7.38969e-06
1.51219e-07
1.39152e-05
-5.51204e-07
1.86668e-05
-3.72778e-07
1.8709e-05
-1.41338e-08
1.75989e-05
-4.89741e-06
2.03873e-05
-6.51574e-06
1.4844e-05
-3.24106e-06
2.288e-05
-3.29e-06
1.93718e-05
-1.37514e-06
1.33827e-05
-7.75318e-06
2.17278e-05
-7.37596e-06
2.52471e-05
-6.33865e-06
1.81644e-05
1.80613e-05
-6.94513e-07
5.37819e-08
1.79341e-05
-9.7001e-09
1.39038e-05
-1.67308e-08
1.60299e-05
-1.28891e-06
2.11792e-05
-2.07276e-06
1.78901e-05
-1.11618e-06
1.09966e-05
1.35703e-07
1.40664e-05
1.46146e-08
1.85594e-05
-1.12131e-06
9.04919e-06
-2.21508e-06
8.48346e-06
1.51414e-06
1.01859e-05
5.51904e-08
2.01257e-05
-9.85466e-07
1.97497e-05
-2.31814e-06
1.89315e-05
-3.31304e-06
2.13822e-05
-2.30217e-06
1.38331e-05
-2.18622e-06
2.2764e-05
-7.1028e-08
1.72566e-05
-6.26396e-06
1.95757e-05
-5.58358e-06
2.10474e-05
3.56787e-06
1.60957e-05
-1.86534e-06
2.35976e-05
1.8406e-05
-2.21004e-06
2.92813e-07
1.76413e-05
3.81369e-07
1.38153e-05
6.75472e-07
1.57358e-05
1.27496e-07
2.17271e-05
-3.37022e-07
1.83546e-05
-8.67193e-07
1.15268e-05
-5.33788e-07
1.3733e-05
-5.07704e-07
1.85334e-05
-1.17021e-06
9.71169e-06
-1.39577e-06
8.70901e-06
-7.61931e-07
9.55209e-06
-6.67936e-07
2.00317e-05
-5.25267e-07
1.9607e-05
-3.44631e-07
1.87509e-05
1.99081e-08
2.10176e-05
-2.93679e-07
1.41467e-05
4.87349e-08
2.24216e-05
-6.23842e-06
2.35438e-05
-3.28079e-06
1.6618e-05
-3.71475e-06
2.14813e-05
-1.81801e-06
1.41989e-05
2.83433e-09
2.17768e-05
2.1513e-05
-3.10417e-06
1.12895e-07
1.75284e-05
1.54424e-07
1.37737e-05
5.56126e-07
1.53341e-05
4.181e-07
2.18651e-05
-5.28713e-07
1.93014e-05
-2.87072e-06
1.38688e-05
1.4623e-06
9.40002e-06
2.14988e-06
1.78458e-05
1.26342e-06
1.05982e-05
2.74545e-07
9.69788e-06
-2.3857e-06
1.22123e-05
-8.92841e-07
1.85389e-05
-5.28363e-07
1.92425e-05
-1.78976e-07
1.84015e-05
-4.96302e-07
2.13349e-05
-3.47492e-07
1.39979e-05
-1.35948e-06
2.34336e-05
-2.50291e-06
2.46872e-05
-5.70289e-06
1.9818e-05
7.18668e-08
1.57066e-05
-5.93438e-07
1.48642e-05
-1.1289e-06
2.23122e-05
1.93058e-05
1.07833e-06
1.73333e-07
1.73551e-05
4.83137e-07
1.34639e-05
7.17602e-07
1.50996e-05
1.0578e-06
2.15249e-05
2.00419e-06
1.8355e-05
-7.9711e-07
1.66701e-05
-2.63428e-07
8.86633e-06
1.94919e-06
1.56331e-05
9.15663e-07
1.16317e-05
-9.18109e-08
1.07054e-05
-1.97549e-06
1.4096e-05
-4.00543e-07
1.69639e-05
1.34645e-07
1.87073e-05
1.1156e-06
1.74205e-05
9.91638e-07
2.14589e-05
-5.05116e-06
2.00407e-05
7.2912e-07
1.76533e-05
5.2863e-07
2.48877e-05
3.16431e-06
1.71823e-05
-3.05127e-06
2.19222e-05
-2.86096e-06
1.46739e-05
-2.00004e-07
1.96513e-05
1.802e-05
1.08584e-06
-1.26844e-07
1.74819e-05
-8.446e-08
1.34215e-05
-1.75479e-08
1.50327e-05
2.17063e-07
2.12903e-05
1.01377e-06
1.75583e-05
1.50882e-06
1.61751e-05
2.78608e-06
7.58907e-06
4.92124e-06
1.3498e-05
4.6944e-07
1.60835e-05
-4.40543e-06
1.55802e-05
-2.16025e-07
9.9066e-06
5.76339e-07
1.61716e-05
9.40348e-07
1.83433e-05
1.27227e-06
1.70886e-05
2.86348e-06
1.98677e-05
4.50143e-06
1.84027e-05
-1.01086e-06
2.31656e-05
-4.95313e-07
2.43721e-05
4.26111e-07
1.62609e-05
2.67816e-06
1.96701e-05
-3.85365e-06
2.12057e-05
-3.16558e-06
1.89632e-05
1.20465e-05
2.80787e-06
-1.25238e-07
1.76071e-05
-2.06222e-07
1.35025e-05
-3.83944e-07
1.52104e-05
-5.12889e-07
2.14193e-05
6.67797e-07
1.63776e-05
1.04118e-06
1.58017e-05
3.34674e-07
8.29558e-06
-5.8383e-07
1.44165e-05
-6.55562e-07
1.61552e-05
-8.92681e-07
1.58173e-05
-4.98576e-06
1.39997e-05
1.20405e-07
1.10654e-05
8.56911e-07
1.76068e-05
8.94053e-07
1.70515e-05
2.06816e-06
1.86936e-05
1.04315e-06
1.94277e-05
2.96089e-06
2.12479e-05
4.09469e-06
2.32383e-05
-2.022e-06
2.23776e-05
-3.06958e-06
2.07177e-05
2.60755e-06
1.55286e-05
1.998e-06
1.95727e-05
1.29042e-05
1.14036e-06
-3.97398e-07
1.80045e-05
-4.84916e-07
1.35901e-05
-5.7086e-07
1.52964e-05
-6.93193e-07
2.15416e-05
-3.00709e-07
1.59851e-05
-8.00902e-07
1.63019e-05
-1.36789e-06
8.86257e-06
1.96385e-06
1.10847e-05
7.00728e-07
1.74183e-05
1.4994e-07
1.63681e-05
-9.14222e-07
1.50638e-05
5.19419e-08
1.00992e-05
8.15238e-07
1.68435e-05
5.15632e-07
1.73511e-05
1.67114e-06
1.75381e-05
1.32906e-06
1.97698e-05
9.68676e-07
2.16083e-05
1.02505e-07
2.41045e-05
2.15642e-07
2.22645e-05
4.1546e-06
1.67787e-05
3.49764e-06
1.61856e-05
1.80952e-06
2.12609e-05
1.76961e-05
-2.98244e-06
-3.67312e-07
1.83719e-05
-2.32186e-07
1.34549e-05
-9.55831e-07
1.602e-05
-1.26168e-06
2.18475e-05
2.02652e-06
1.26969e-05
2.07525e-07
1.81209e-05
-7.13264e-07
9.78336e-06
-1.68292e-06
1.20544e-05
-2.62425e-06
1.83597e-05
2.83445e-06
1.09094e-05
1.21899e-06
1.66793e-05
1.88023e-06
9.43799e-06
9.3697e-07
1.77868e-05
1.06637e-07
1.81814e-05
2.83271e-07
1.73614e-05
5.4185e-07
1.95112e-05
1.61912e-06
2.0531e-05
2.30157e-06
2.34221e-05
3.33448e-06
2.12316e-05
4.20783e-06
1.59054e-05
-4.20481e-07
2.08139e-05
-2.25531e-06
2.30957e-05
1.78812e-05
-2.44036e-06
-9.56798e-07
1.93287e-05
-6.4406e-07