/*--------------------------------*- C++ -*----------------------------------*\
| =========                 |                                                 |
| \\      /  F ield         | foam-extend: Open Source CFD                    |
|  \\    /   O peration     | Version:     4.1                                |
|   \\  /    A nd           | Web:         http://www.foam-extend.org         |
|    \\/     M anipulation  |                                                 |
\*---------------------------------------------------------------------------*/
FoamFile
{
    version     2.0;
    format      ascii;
    class       surfaceScalarField;
    location    "0.65";
    object      phi_0;
}
// * * * * * * * * * * * * * * * * * * * * * * * * * * * * * * * * * * * * * //

dimensions      [0 3 -1 0 0 0 0];

internalField   nonuniform List<scalar> 
4432
(
-4.45265e-05
4.45265e-05
3.7831e-05
-8.23575e-05
2.15616e-05
1.62694e-05
1.85025e-05
3.05913e-06
1.83146e-05
1.87897e-07
1.99669e-05
-1.65235e-06
2.63123e-05
-6.34538e-06
2.36203e-05
2.69203e-06
1.97932e-05
3.82707e-06
2.9721e-05
-9.92777e-06
2.33221e-05
6.39887e-06
2.08192e-05
2.50295e-06
1.6361e-05
4.45822e-06
1.10789e-05
5.28203e-06
3.27232e-06
7.80662e-06
1.91531e-06
1.35701e-06
6.39708e-07
1.2756e-06
-3.11344e-06
3.75314e-06
-9.75204e-06
6.6386e-06
-1.18373e-05
2.08522e-06
-5.89356e-06
-5.94369e-06
-1.97284e-07
-5.69627e-06
-1.97284e-07
1.86216e-06
4.26643e-05
7.84709e-06
-8.83425e-05
1.72092e-05
6.90733e-06
1.78094e-05
2.45891e-06
1.83528e-05
-3.55517e-07
2.10582e-05
-4.35773e-06
2.79266e-05
-1.32138e-05
2.41968e-05
6.42189e-06
2.22254e-05
5.79848e-06
3.56904e-05
-2.33928e-05
2.54842e-05
1.66051e-05
2.00907e-05
7.89645e-06
1.51825e-05
9.3664e-06
1.08505e-05
9.61399e-06
6.88145e-06
1.17757e-05
6.42291e-07
7.59616e-06
-4.58303e-07
2.3762e-06
-2.61919e-07
3.55676e-06
-9.9199e-07
7.36867e-06
-6.9514e-07
1.78837e-06
-7.85909e-07
-5.85293e-06
-5.58763e-07
-5.92342e-06
-7.56048e-07
-4.23984e-06
4.69042e-05
2.0443e-06
-9.46266e-05
1.43976e-05
-5.44599e-06
1.48337e-05
2.02286e-06
1.76962e-05
-3.2181e-06
1.8673e-05
-5.33447e-06
4.67396e-05
-4.12804e-05
2.34917e-05
2.96698e-05
2.26074e-05
6.68282e-06
2.00714e-05
-2.08569e-05
2.21211e-05
1.45555e-05
1.44754e-05
1.55421e-05
8.82366e-06
1.50182e-05
1.68477e-06
1.67529e-05
1.18375e-06
1.22767e-05
2.17915e-07
8.562e-06
-2.12348e-06
4.71759e-06
-3.96778e-06
5.40107e-06
-4.00164e-06
7.40253e-06
-1.60678e-06
-6.06493e-07
-5.06284e-06
-2.39686e-06
-1.29754e-06
-9.68872e-06
-2.05359e-06
4.45857e-07
4.64584e-05
7.8305e-06
-0.000102011
3.22197e-05
-2.98352e-05
2.13803e-05
1.28622e-05
1.74925e-05
6.69727e-07
-3.445e-05
4.66081e-05
2.4089e-05
-9.98195e-05
1.91056e-05
3.46531e-05
2.04496e-05
5.33891e-06
2.19983e-05
-2.24056e-05
8.19217e-06
2.83616e-05
3.40312e-06
2.03311e-05
-1.27152e-06
1.96928e-05
-2.43947e-06
1.79208e-05
-2.79184e-06
1.26291e-05
-2.67309e-06
8.44325e-06
-5.31597e-06
7.36048e-06
-4.57128e-06
4.65638e-06
-5.03158e-06
7.86282e-06
-2.1088e-06
-3.52928e-06
-2.53791e-06
-1.96775e-06
-1.89479e-06
-1.03318e-05
-3.94839e-06
2.87001e-06
4.35884e-05
1.18771e-05
-0.000111018
3.82031e-05
-5.61612e-05
3.15242e-05
1.9541e-05
2.76072e-05
4.58669e-06
-3.1186e-06
7.73339e-05
1.66577e-05
-0.000119596
9.33768e-06
4.19731e-05
1.66432e-05
-1.9666e-06
3.86118e-05
-4.43742e-05
1.92093e-05
4.77641e-05
-2.94715e-07
3.98352e-05
-3.43966e-06
2.28378e-05
-7.25964e-06
2.17408e-05
-1.22096e-05
1.75791e-05
-8.40567e-06
4.63927e-06
-7.42675e-06
6.38156e-06
-1.06963e-05
7.92588e-06
-4.46037e-06
1.62694e-06
-5.27128e-06
-2.71837e-06
-5.74658e-06
-1.49245e-06
-1.78945e-06
-1.4289e-05
-5.73783e-06
9.83044e-06
3.37579e-05
3.12886e-05
-0.000132476
4.5305e-05
-7.01776e-05
5.28654e-05
1.19807e-05
2.60255e-05
3.14266e-05
5.90801e-05
4.42793e-05
3.08631e-05
-9.13787e-05
2.18029e-05
5.10333e-05
2.59754e-05
-6.13905e-06
3.41285e-05
-5.25273e-05
1.16353e-05
7.02573e-05
-9.49148e-08
5.15654e-05
-3.98228e-06
2.67251e-05
-4.53103e-06
2.22896e-05
-6.48991e-06
1.9538e-05
-1.54401e-05
1.35895e-05
-1.75027e-05
8.44419e-06
-1.52059e-05
5.62908e-06
-1.32089e-05
-3.70047e-07
-7.99601e-06
-7.93131e-06
-7.09607e-06
-2.39239e-06
-2.74605e-06
-1.8639e-05
-8.48389e-06
3.30897e-05
6.68231e-07
2.32681e-05
-0.000122655
2.59443e-05
-7.28538e-05
4.18868e-05
-3.96189e-06
3.25337e-05
4.07797e-05
6.85978e-05
8.21504e-06
3.5872e-05
-5.86529e-05
-3.14818e-05
0.000118387
-2.97048e-05
-7.91596e-06
-1.8962e-05
-6.32702e-05
1.61245e-06
4.96829e-05
-1.15791e-06
5.43358e-05
-2.25986e-06
2.78271e-05
-3.08357e-06
2.31133e-05
-1.11083e-05
2.75628e-05
-8.7861e-06
1.12672e-05
-1.96842e-05
1.93423e-05
-1.06756e-05
-3.37947e-06
-1.33265e-05
2.28085e-06
-4.40517e-06
-1.68527e-05
-3.87e-06
-2.92757e-06
-9.25443e-07
-2.15835e-05
-9.40933e-06
3.52739e-05
-3.46057e-05
2.34033e-05
-0.000110784
4.04489e-05
-8.98994e-05
7.67526e-06
2.88117e-05
2.2176e-06
4.62373e-05
1.08959e-05
-4.63277e-07
3.22314e-06
-5.09801e-05
-6.29404e-06
0.000127904
-1.63849e-05
2.17485e-06
-1.1311e-05
-6.8344e-05
9.62664e-06
2.87452e-05
4.14585e-06
5.98166e-05
-5.86517e-07
3.25594e-05
-1.30734e-05
3.56001e-05
-2.04709e-05
3.49603e-05
-2.37142e-05
1.45105e-05
-1.56314e-05
1.12595e-05
-2.27025e-05
3.69166e-06
-8.43973e-06
-1.1982e-05
7.62865e-06
-3.2921e-05
7.34453e-06
-2.64345e-06
1.68402e-06
-1.5923e-05
-7.72531e-06
-8.99752e-05
8.99752e-05
-0.000123661
3.36857e-05
-0.0001354
1.17387e-05
-0.000137426
2.02663e-06
-0.000133875
-3.55106e-06
-0.000130565
-3.31017e-06
-0.00012311
-7.45472e-06
-7.80561e-05
-4.50542e-05
-8.06813e-05
2.62521e-06
-9.53687e-05
1.46874e-05
-7.1601e-05
-2.37676e-05
-0.000119443
4.78416e-05
-0.000106024
-1.34186e-05
-0.000101964
-4.05959e-06
-9.41592e-05
-7.80514e-06
-5.6967e-05
-3.71922e-05
-1.07188e-05
-4.62481e-05
2.47923e-05
-3.55111e-05
2.47923e-05
-3.57112e-05
0.000125686
-8.98351e-05
8.78097e-05
-9.40487e-05
1.59523e-05
-5.8958e-05
-3.30641e-05
-9.61171e-05
3.3608e-05
-9.56735e-05
-3.75377e-06
-6.01653e-05
-4.29629e-05
-7.05861e-05
-3.46334e-05
-7.70553e-05
9.09441e-06
-0.00010615
4.37816e-05
-0.000117234
-1.26832e-05
-7.10525e-05
1.66018e-06
-9.61274e-05
1.16562e-05
-9.05203e-05
-9.66667e-06
-4.92284e-05
-4.9097e-05
-5.74663e-05
-2.89544e-05
-3.38432e-05
-6.98712e-05
8.69222e-06
-7.80466e-05
3.34845e-05
-2.46957e-05
0.000150382
-2.6584e-05
8.9698e-05
-2.27898e-05
1.21582e-05
-4.30416e-05
-1.28123e-05
-7.31959e-05
6.37623e-05
-5.63918e-05
-2.0558e-05
-7.93681e-05
-1.99867e-05
-9.24166e-05
-2.15848e-05
-9.57721e-05
1.24499e-05
-8.22007e-05
3.02102e-05
-8.30309e-05
-1.18529e-05
-5.54869e-05
-2.58838e-05
-7.48283e-05
3.09976e-05
-6.45036e-05
-1.99913e-05
-6.75225e-05
-4.60781e-05
-5.21687e-05
-4.43082e-05
-3.48477e-05
-8.71922e-05
1.24016e-06
-0.000114134
3.47247e-05
-1.49503e-05
0.000165333
-1.99152e-05
9.46628e-05
-3.92294e-05
3.14725e-05
-6.33407e-05
1.1299e-05
-5.72089e-05
5.76304e-05
-4.64015e-05
-3.13654e-05
-4.03614e-05
-2.60268e-05
-5.33662e-05
-8.58006e-06
-2.34593e-05
-1.7457e-05
-3.55864e-05
4.23373e-05
-7.25726e-05
2.51333e-05
-7.94763e-05
-1.89801e-05
-3.51775e-05
-1.33012e-05
-4.63319e-05
-8.83691e-06
-4.71511e-05
-4.5259e-05
-2.01735e-05
-7.12858e-05
-1.46017e-05
-9.2764e-05
5.52324e-07
-0.000129288
3.5277e-05
-8.20594e-06
0.000173538
-6.93756e-06
9.33944e-05
-4.32903e-06
2.88639e-05
-1.13902e-05
1.83602e-05
-1.36728e-05
5.9913e-05
-1.01636e-05
-3.48745e-05
-2.56906e-05
-1.04998e-05
-1.52714e-05
-1.89993e-05
1.67861e-06
-3.4407e-05
1.3799e-06
4.26361e-05
3.14137e-06
2.33719e-05
2.75675e-06
-1.85955e-05
-2.43503e-05
1.38059e-05
1.85647e-08
-3.32058e-05
-7.71874e-06
-3.75217e-05
-1.85613e-05
-6.04432e-05
-2.4313e-05
-8.70123e-05
-5.11787e-06
-0.000148484
3.01592e-05
-4.7218e-07
0.000174011
2.94771e-06
8.99744e-05
1.44977e-05
1.73139e-05
3.07073e-06
2.97871e-05
7.15807e-06
5.58256e-05
1.40557e-05
-4.17722e-05
3.58348e-06
-2.75936e-08
1.33756e-05
-2.87914e-05
1.40035e-05
-3.50348e-05
4.39637e-05
1.26759e-05
5.51765e-05
1.21591e-05
5.95986e-05
-2.30176e-05
6.36294e-05
9.77516e-06
2.87064e-05
1.71715e-06
8.03041e-06
-1.68457e-05
-5.6669e-06
-4.67459e-05
-1.67058e-05
-7.59733e-05
-1.45217e-05
-0.000150668
1.56375e-05
9.33477e-06
0.000164676
-9.2015e-07
0.000100229
1.02873e-05
6.10651e-06
2.32551e-05
1.68193e-05
2.58615e-05
5.32192e-05
1.57692e-05
-3.16799e-05
1.46059e-05
1.13575e-06
2.4336e-05
-3.85215e-05
3.07378e-05
-4.14365e-05
5.25644e-05
-9.15068e-06
6.8781e-05
-4.05739e-06
6.10721e-05
-1.53087e-05
5.8713e-05
1.21343e-05
4.77827e-05
1.26474e-05
2.53179e-05
5.61914e-06
8.36322e-06
-2.97912e-05
4.0678e-07
-6.80169e-05
-2.83732e-05
-0.000121888
-1.27358e-05
7.36552e-06
0.00015731
1.19278e-06
0.000106402
2.08923e-05
-1.35929e-05
5.242e-05
-1.47083e-05
7.01426e-05
3.54965e-05
5.00946e-05
-1.16319e-05
8.15341e-05
-3.03038e-05
6.37704e-05
-2.07577e-05
5.61437e-05
-3.38098e-05
4.37997e-05
3.19333e-06
5.44351e-05
-1.46928e-05
4.63813e-05
-7.25482e-06
5.01013e-05
8.41435e-06
5.0907e-05
1.18417e-05
3.85156e-05
1.80106e-05
2.3316e-05
-1.45916e-05
9.8377e-06
-5.45386e-05
-1.42174e-05
-9.78326e-05
-2.69532e-05
9.01224e-05
-0.000124728
7.62515e-05
-9.69133e-05
2.9049e-05
-4.2697e-05
-4.5487e-05
0.000103348
-2.9892e-05
3.06422e-05
-1.13684e-05
-1.89868e-05
-2.8943e-05
-3.34055e-05
5.69551e-05
4.20061e-05
3.07059e-05
2.8424e-05
5.16306e-06
-4.28012e-05
2.47562e-05
9.15201e-06
2.08081e-07
8.43647e-05
-2.02402e-05
5.30078e-05
-2.55519e-05
4.09119e-05
-3.55683e-05
4.49766e-05
-3.75168e-05
1.6459e-05
-4.29198e-05
1.66624e-05
-1.44185e-05
-2.48096e-05
1.37027e-05
-4.01031e-05
3.37056e-05
-5.2924e-05
3.18599e-05
-7.97758e-07
1.41133e-05
1.82361e-06
-1.31384e-05
1.95264e-05
1.31495e-05
-0.000137878
-2.10004e-05
-6.27635e-05
-3.8547e-05
-2.51504e-05
6.18329e-06
5.86175e-05
3.6802e-06
3.31453e-05
-8.851e-06
-6.45569e-06
-4.12724e-05
-9.84217e-07
-3.89215e-05
3.96553e-05
-1.78355e-05
7.33798e-06
-6.83515e-06
-5.38016e-05
3.04165e-05
-2.80997e-05
6.03569e-06
0.000108746
8.55992e-07
5.81875e-05
9.29474e-06
3.24731e-05
2.05372e-05
3.37341e-05
4.75359e-06
3.22427e-05
-6.28665e-06
2.77027e-05
-3.27318e-05
1.63549e-06
-3.39571e-05
-3.88778e-05
-1.94498e-05
-6.74313e-05
-2.18281e-06
-1.80647e-05
6.47629e-06
-6.83549e-06
7.77385e-07
-7.43951e-06
-4.87349e-05
-8.91426e-05
-6.20566e-05
-4.94418e-05
-2.34845e-05
-6.37225e-05
-2.5276e-05
6.04089e-05
-6.57907e-06
1.44484e-05
-1.49166e-05
1.88185e-06
-4.68895e-05
3.09886e-05
-2.22744e-05
1.50402e-05
2.86155e-05
-4.35521e-05
5.27257e-05
-7.79117e-05
1.34848e-05
1.11412e-05
4.42677e-06
0.000117804
3.05799e-05
3.20343e-05
1.44247e-05
4.86283e-05
-7.85943e-06
5.60183e-05
-4.20504e-05
6.64337e-05
7.58842e-06
-2.19362e-05
7.26085e-05
-6.33845e-05
6.62086e-05
-3.24779e-05
1.29e-05
-1.41227e-05
3.90502e-06
-9.06976e-06
2.53716e-06
-5.46762e-06
5.77222e-06
-2.45768e-06
5.29198e-05
-0.000142062
6.54017e-05
-6.19237e-05
3.48783e-06
-1.80858e-06
-1.56764e-05
7.95731e-05
-4.64233e-05
4.51953e-05
-8.62469e-05
4.17054e-05
-9.39398e-05
3.86815e-05
-9.53874e-05
1.64876e-05
-8.83267e-05
-5.06132e-05
-0.000145545
-2.06934e-05
-0.000121949
-1.24553e-05
-9.36992e-05
8.95542e-05
-5.65937e-05
-5.07115e-06
-2.83399e-05
2.03744e-05
-1.46133e-05
4.22918e-05
2.61582e-05
2.56621e-05
6.58741e-05
-6.1652e-05
8.63878e-05
-8.38982e-05
7.77628e-05
-2.38529e-05
8.9468e-05
-2.5828e-05
8.00832e-05
3.15112e-07
5.69769e-05
1.76387e-05
-6.43212e-06
6.91812e-05
1.99277e-06
-0.000144055
-2.64452e-06
-5.72865e-05
-6.34632e-05
5.90101e-05
-4.19755e-05
5.80854e-05
-7.75333e-05
8.07531e-05
-0.000101285
6.54572e-05
-0.000106326
4.3722e-05
-5.68457e-05
-3.29926e-05
-7.82841e-05
-2.91748e-05
-7.91744e-05
-1.98031e-05
-9.14516e-05
-1.78133e-07
-0.00011667
0.000114773
-8.91807e-05
-3.25604e-05
-3.13757e-05
-3.74306e-05
1.31136e-05
-2.19754e-06
6.03982e-05
-2.16225e-05
8.95772e-05
-9.0831e-05
9.50725e-05
-8.93935e-05
0.000109125
-3.79058e-05
0.000115401
-3.21034e-05
0.000137724
-2.20081e-05
0.000152649
2.71356e-06
-4.8836e-06
0.000151101
-5.92919e-05
-8.47632e-05
-7.31534e-05
-4.3425e-05
-5.89984e-05
4.4855e-05
-5.78032e-05
5.68903e-05
-7.74533e-05
0.000100403
-8.52973e-05
7.33013e-05
-5.12607e-05
9.68533e-06
-5.16542e-05
-3.25991e-05
-5.12208e-05
-2.96083e-05
-7.3072e-05
2.04802e-06
-7.99463e-05
6.69621e-06
-4.03879e-05
7.52141e-05
1.81311e-05
-9.10795e-05
1.60556e-05
-3.53551e-05
4.23951e-05
-2.8537e-05
7.92953e-05
-5.85227e-05
3.4269e-05
-4.58047e-05
2.5647e-05
-8.07716e-05
3.62485e-05
-4.85073e-05
5.99571e-05
-5.58121e-05
0.000124437
-8.64881e-05
0.000165683
-3.8532e-05
-4.58458e-06
0.000165384
-2.474e-05
-6.00232e-05
-4.86368e-05
-1.95282e-05
-6.86601e-05
6.48783e-05
-6.69316e-05
5.51618e-05
-3.28868e-05
6.63583e-05
-4.53184e-05
8.57328e-05
-5.70839e-05
2.14509e-05
-3.39816e-05
-5.57014e-05
-4.15703e-05
-2.20198e-05
-7.59524e-05
3.64297e-05
-7.55062e-05
6.25015e-06
-1.60511e-05
1.57591e-05
4.46071e-06
-0.000111591
3.4655e-05
-6.55494e-05
5.81534e-05
-5.20354e-05
3.66003e-05
-3.69697e-05
4.93982e-05
-5.86026e-05
1.51179e-05
-4.64913e-05
9.02663e-06
-4.24161e-05
3.4098e-05
-8.08835e-05
5.70213e-05
-0.000109411
5.88017e-05
-4.03124e-05
1.26505e-05
4.15666e-05
-4.72575e-05
-1.27657e-05
-9.19057e-05
2.512e-05
-5.73382e-05
3.03108e-05
-4.15273e-05
3.93508e-05
-3.00029e-05
5.4834e-05
-2.56965e-05
8.14264e-05
-2.22305e-05
1.79849e-05
-4.45545e-05
-3.33775e-05
-4.84092e-05
-1.81649e-05
-3.98469e-05
2.78676e-05
-1.66763e-05
-1.69205e-05
4.44148e-05
-4.5332e-05
2.46419e-05
-9.18182e-05
3.77286e-05
-7.86361e-05
4.92331e-05
-6.35399e-05
4.59057e-05
-3.36423e-05
3.72323e-05
-4.99292e-05
3.54134e-05
-4.46723e-05
2.23246e-06
-9.23515e-06
-1.69456e-05
-6.17054e-05
-5.28094e-05
-7.35477e-05
-7.31089e-05
-2.00128e-05
2.14089e-05
-8.18673e-05
-1.77543e-05
4.9886e-06
-2.85653e-05
3.59309e-05
-3.50943e-05
3.68399e-05
-4.06906e-05
4.4947e-05
-1.91589e-05
3.33023e-05
-1.06888e-05
7.29563e-05
-1.87871e-05
2.60832e-05
-2.13182e-05
-3.08463e-05
-1.23982e-05
-2.70847e-05
-1.72207e-05
3.26906e-05
-1.84336e-05
-1.57075e-05
4.03931e-05
-0.000104159
2.36631e-05
-7.50881e-05
1.88504e-05
-7.38234e-05
5.79682e-05
-0.000102658
6.14919e-05
-3.7166e-05
5.90151e-05
-4.74524e-05
2.11986e-05
-6.85581e-06
-6.75305e-06
1.87165e-05
-4.89002e-05
-1.95582e-05
-8.49562e-05
-3.74917e-05
-7.40646e-05
-3.09043e-05
-1.50808e-05
-3.75749e-05
-6.01821e-06
1.10068e-05
-1.17535e-05
4.16662e-05
-1.53412e-05
4.04276e-05
-3.51746e-05
6.47804e-05
-2.86131e-05
2.67408e-05
1.32581e-05
3.1085e-05
1.49251e-05
2.44162e-05
6.61575e-06
-2.2537e-05
1.68043e-05
-3.72732e-05
3.56133e-05
1.38818e-05
1.46206e-05
5.28541e-06
4.01372e-06
-9.35517e-05
1.99652e-05
-9.10396e-05
4.51884e-05
-9.90466e-05
3.22943e-05
-8.97636e-05
2.57182e-05
-3.05898e-05
-2.59036e-06
-1.91438e-05
-2.6503e-05
1.70569e-05
-5.11092e-05
4.33227e-05
-6.40835e-05
-6.58401e-06
-6.80503e-05
-3.35249e-05
-5.55004e-05
-4.34543e-05
-4.31079e-05
-2.74733e-05
3.1431e-06
7.86366e-06
-1.06254e-05
5.54348e-05
-1.40668e-05
4.38689e-05
-1.7819e-06
5.24955e-05
7.35454e-06
1.76044e-05
2.19606e-05
1.6479e-05
3.09212e-05
1.54555e-05
3.57266e-05
-2.73424e-05
2.69575e-05
-2.8504e-05
4.71512e-05
-6.31179e-06
5.12106e-05
1.22603e-06
4.45503e-05
-8.68914e-05
3.12628e-05
-7.7752e-05
2.37373e-05
-9.1521e-05
-6.80215e-07
-6.53461e-05
-1.06044e-05
-2.06656e-05
-2.69229e-05
-2.82536e-06
-2.30447e-05
1.31787e-05
-7.1655e-06
2.74435e-05
-2.60865e-05
1.2337e-05
-2.85252e-05
-3.10862e-05
-1.14246e-05
-6.05549e-05
-5.46507e-05
1.18183e-07
-4.04188e-06
1.19055e-05
6.61992e-06
4.47729e-05
1.49778e-05
3.5511e-05
2.24719e-05
4.50015e-05
2.84119e-05
1.16643e-05
3.93771e-05
5.51378e-06
5.34096e-05
1.42297e-06
4.34432e-05
-1.73759e-05
3.56864e-05
-2.07472e-05
5.0533e-05
-2.11584e-05
3.90959e-05
1.26632e-05
4.34835e-05
-9.1279e-05
2.83855e-05
-6.2654e-05
1.50399e-05
-7.81754e-05
-2.81328e-05
-2.21735e-05
-3.1924e-05
-1.68745e-05
-2.9379e-05
-5.37034e-06
-2.48399e-05
8.63958e-06
-1.81426e-05
2.07462e-05
-2.28057e-05
1.70001e-05
-3.11486e-05
-2.27434e-05
-4.48557e-05
-4.68477e-05
-6.64565e-05
-3.30499e-05
-2.07875e-07
1.21134e-05
8.30502e-06
3.626e-05
1.07632e-05
3.30528e-05
2.58744e-05
2.98902e-05
1.86618e-05
1.8877e-05
3.21736e-05
-7.99807e-06
3.36824e-05
-8.58054e-08
3.22919e-05
-1.59854e-05
2.81983e-05
-1.66536e-05
3.89502e-05
-3.19104e-05
6.52052e-05
-1.35918e-05
2.37898e-05
-4.98635e-05
1.02815e-05
-4.91457e-05
-3.42159e-05
-3.3678e-05
-3.14085e-05
-2.49809e-05
-5.32108e-05
4.92784e-06
-5.8018e-05
-5.63126e-07
-5.95305e-05
1.01521e-05
-5.29625e-05
1.41781e-05
-5.36777e-05
1.77153e-05
-7.14013e-05
-5.01973e-06
-0.000111596
-6.65328e-06
-1.54336e-05
-0.000162618
-2.4382e-06
1.45516e-05
2.7665e-06
3.10553e-05
9.2043e-06
2.6615e-05
2.15983e-05
1.74962e-05
2.825e-05
1.22252e-05
2.22701e-05
-2.01821e-06
2.53477e-05
-3.1634e-06
3.39503e-05
-2.4588e-05
3.10173e-05
-1.37207e-05
2.33919e-05
-2.42849e-05
4.02882e-05
-3.04881e-05
2.57169e-05
-3.52923e-05
6.84973e-07
-2.41138e-05
-2.25292e-05
-1.04638e-05
-4.18255e-05
-5.68464e-06
-3.86942e-05
1.79645e-06
-4.09403e-05
1.68298e-06
-5.95373e-05
2.87491e-05
-5.96668e-05
1.43076e-05
-6.97425e-05
2.7791e-05
-8.26418e-05
7.87953e-06
-0.000114259
2.49639e-05
2.40958e-05
-0.000153788
-5.678e-06
2.02296e-05
1.76554e-06
2.36117e-05
6.772e-06
2.16085e-05
1.1028e-05
1.32402e-05
1.7565e-05
5.68822e-06
1.63639e-05
-8.17057e-07
1.74128e-05
-4.21238e-06
2.22139e-05
-2.93891e-05
3.0407e-05
-2.19138e-05
2.02747e-05
-1.41527e-05
2.24027e-05
-3.26161e-05
4.04002e-06
-1.69296e-05
-1.0786e-05
-9.28784e-06
-3.7675e-05
1.64252e-05
-4.67905e-05
3.43085e-06
-4.56994e-05
7.05397e-07
-5.43254e-05
1.03089e-05
-3.98019e-05
1.42256e-05
-4.51925e-05
1.96982e-05
-4.53322e-05
2.79307e-05
-8.32123e-05
4.57596e-05
-0.000101035
4.27861e-05
4.16354e-05
-0.000118574
3.59852e-06
1.6631e-05
5.5631e-06
2.16471e-05
8.68411e-06
1.84874e-05
6.39107e-06
1.55332e-05
4.47864e-06
7.60064e-06
5.60341e-06
-1.94184e-06
4.17834e-06
-2.78733e-06
6.20371e-07
-2.58312e-05
-1.54476e-06
-1.97486e-05
-1.85998e-06
-1.38375e-05
-1.82153e-05
-1.62607e-05
-2.35301e-05
-1.16148e-05
-3.15115e-05
-1.30642e-06
-2.74487e-05
1.23623e-05
-3.26184e-05
8.60053e-06
-3.48185e-05
2.90554e-06
-4.75653e-05
2.30557e-05
-5.11494e-05
1.78098e-05
-5.36835e-05
2.22322e-05
-6.5215e-05
3.94623e-05
-6.99397e-05
5.04843e-05
-5.07793e-05
2.36257e-05
3.85757e-05
-4.77196e-05
-9.72351e-07
1.76034e-05
6.78364e-06
1.38911e-05
6.38097e-06
1.88901e-05
4.14886e-06
1.77653e-05
4.9704e-06
6.77909e-06
4.34878e-06
-1.32024e-06
6.31563e-06
-4.75419e-06
-4.6377e-06
-1.48778e-05
-6.97634e-06
-1.741e-05
-8.88811e-06
-1.19258e-05
-1.85509e-05
-6.59798e-06
-3.98296e-05
9.6639e-06
-4.46085e-05
3.4725e-06
-3.20664e-05
-1.79824e-07
-3.27412e-05
9.27527e-06
-5.05554e-05
2.07197e-05
-4.65131e-05
1.90134e-05
-4.72381e-05
1.85348e-05
-5.73417e-05
3.23359e-05
-3.58778e-05
1.79983e-05
-2.57558e-05
4.03623e-05
-4.76537e-05
4.55237e-05
6.15976e-05
-7.06755e-05
4.13413e-06
1.34692e-05
-4.61225e-07
1.84865e-05
4.94841e-06
1.34804e-05
1.85858e-06
2.08551e-05
2.28774e-07
8.40887e-06
-3.60079e-06
2.50931e-06
-5.58591e-06
-2.76908e-06
-1.35195e-05
-6.94422e-06
-2.3337e-05
-7.59254e-06
-2.97455e-05
-5.51726e-06
-3.75601e-05
1.21661e-06
-2.62982e-05
-1.59802e-06
-2.84712e-05
5.64548e-06
-2.95933e-05
9.42225e-07
-2.7585e-05
7.26694e-06
-3.40036e-05
2.71384e-05
-3.28388e-05
1.78486e-05
-4.00727e-05
2.57686e-05
-2.1189e-05
1.34521e-05
-2.57652e-05
2.25745e-05
-2.80388e-05
4.26359e-05
-2.91169e-05
4.66018e-05
4.40655e-05
-1.15848e-05
1.90159e-06
1.15676e-05
7.74024e-06
1.26478e-05
1.2773e-06
1.99434e-05
-1.04658e-06
2.3179e-05
-1.89768e-06
9.25996e-06
-5.52145e-06
6.13307e-06
-8.72414e-06
4.33598e-07
-1.10092e-05
-4.65913e-06
-1.89294e-05
3.27649e-07
-2.2841e-05
-1.60572e-06
-1.79857e-05
-3.63868e-06
-1.93249e-05
-2.5885e-07
-1.86934e-05
5.01401e-06
-2.25616e-05
4.81035e-06
-2.48058e-05
9.5111e-06
-1.81333e-05
2.04659e-05
-2.34212e-05
2.31365e-05
-1.95407e-05
2.18881e-05
-3.09659e-05
2.48773e-05
-3.91316e-05
3.07402e-05
-2.28108e-05
2.63151e-05
-1.68978e-05
4.06888e-05
5.47748e-05
-2.76071e-05
9.37812e-07
1.06298e-05
7.64141e-07
1.28214e-05
5.36493e-06
1.53426e-05
1.69994e-06
2.6844e-05
-1.27674e-06
1.22366e-05
-5.78738e-06
1.06437e-05
-8.31517e-06
2.96137e-06
-1.2218e-05
-7.56317e-07
-1.45973e-05
2.70691e-06
-1.79962e-05
1.79318e-06
-1.85974e-05
-3.03745e-06
-2.50321e-05
6.17579e-06
-2.10753e-05
1.05727e-06
-2.09516e-05
4.68659e-06
-3.27762e-05
2.13357e-05
-3.19898e-05
1.96795e-05
-2.03223e-05
1.14689e-05
-2.73001e-05
2.88659e-05
-2.2647e-05
2.02242e-05
-1.88382e-05
2.69314e-05
-2.73692e-05
3.48461e-05
-2.37551e-05
3.70747e-05
3.22832e-05
-1.26353e-06
5.95573e-07
1.00342e-05
-3.09998e-07
1.3727e-05
-4.42658e-07
1.54752e-05
5.67701e-06
2.07243e-05
-9.51919e-07
1.88655e-05
-7.91474e-07
1.04832e-05
-3.03664e-06
5.20653e-06
-5.71859e-06
1.92563e-06
-1.09131e-05
7.90139e-06
-1.40794e-05
4.95949e-06
-2.19897e-05
4.87285e-06
-1.66401e-05
8.26205e-07
-2.47487e-05
9.16582e-06
-2.80239e-05
7.96177e-06
-3.25237e-05
2.58355e-05
-2.55675e-05
1.27233e-05
-3.23469e-05
1.82483e-05
-1.97577e-05
1.62767e-05
-1.95144e-05
1.99809e-05
-2.48641e-05
3.22811e-05
-1.53967e-05
2.53786e-05
-4.67938e-06
2.63574e-05
3.11262e-05
-3.52244e-06
7.17804e-07
9.31641e-06
1.48122e-06
1.29636e-05
3.01509e-06
1.39413e-05
-3.717e-06
2.74564e-05
-2.62962e-06
1.77781e-05
-3.97732e-06
1.18309e-05
-4.75e-06
5.9792e-06
-8.27628e-06
5.4519e-06
-5.86549e-06
5.49059e-06
-6.98328e-06
6.07728e-06
-8.15945e-06
6.04901e-06
-1.27505e-05
5.41729e-06
-1.20772e-05
8.49245e-06
-1.8946e-05
1.48306e-05
-1.36554e-05
2.05449e-05
-1.49873e-05
1.40552e-05
-1.2092e-05
1.5353e-05
-1.46392e-05
1.88239e-05
-1.56816e-05
2.10232e-05
-1.53693e-05
3.19688e-05
-1.35552e-05
2.35645e-05
-1.29161e-05
2.57183e-05
2.29856e-05
-4.77552e-06
1.06793e-06
8.24847e-06
-2.56601e-06
1.65975e-05
-6.21872e-06
1.7594e-05
-4.71904e-07
2.17095e-05
-1.47321e-06
1.87794e-05
-2.18252e-06
1.25402e-05
-5.23821e-06
9.03489e-06
-5.41382e-06
5.62749e-06
-4.67917e-06
4.75594e-06
-4.14559e-06
5.54368e-06
-7.42839e-06
9.3318e-06
-1.01054e-05
8.09425e-06
-1.83322e-05
1.67193e-05
-1.48513e-05
1.13496e-05
-1.04786e-05
1.61722e-05
-1.32462e-05
1.68228e-05
-1.06898e-05
1.27967e-05
-9.48511e-06
1.76192e-05
-1.43719e-05
2.59101e-05
-1.33356e-05
3.09324e-05
-9.73768e-06
1.99666e-05
-5.29368e-06
2.12743e-05
2.27005e-05
-5.00861e-06
-2.95783e-06
1.12063e-05
-1.35227e-06
1.49919e-05
-1.37825e-06
1.762e-05
-3.78788e-07
2.07101e-05
6.35255e-07
1.77654e-05
3.45335e-06
9.72212e-06
-3.0469e-06
1.55351e-05
-4.46791e-06
7.04849e-06
-6.2835e-06
6.57152e-06
-8.03177e-06
7.29195e-06
-1.16754e-05
1.29754e-05
-1.56982e-05
1.21171e-05
-1.23233e-05
1.33444e-05
-1.14659e-05
1.04922e-05
-1.31106e-05
1.78169e-05
-8.16102e-06
1.18732e-05
-1.12847e-05
1.59203e-05
-1.44566e-05
2.0791e-05
-9.94945e-06
2.14029e-05
-8.95618e-06
2.99391e-05
-7.22979e-06
1.82402e-05
-6.38927e-06
2.04338e-05
2.25645e-05
-6.25324e-06
-1.07766e-06
1.22839e-05
-1.5033e-06
1.54175e-05
-1.66584e-06
1.77825e-05
-6.20028e-07
1.96642e-05
-4.06491e-08
1.7186e-05
5.57531e-07
9.12393e-06
1.33168e-07
1.59595e-05
-1.57819e-06
8.75984e-06
-2.66183e-06
7.65515e-06
-4.06562e-06
8.69573e-06
-7.97813e-06
1.68879e-05
-7.48e-06
1.1619e-05
-1.03852e-05
1.62496e-05
-8.95291e-06
9.05982e-06
-7.75983e-06
1.66238e-05
-9.51035e-06
1.36237e-05
-1.6294e-05
2.2704e-05
-1.13332e-05
1.58302e-05
-1.24018e-05
2.24715e-05
-5.72292e-06
2.32602e-05
-5.49021e-06
1.80075e-05
-3.41956e-06
1.83631e-05
2.36851e-05
-4.54012e-06
-4.06977e-06
1.63537e-05
-2.04389e-06
1.33916e-05
-5.68059e-07
1.63067e-05
7.43707e-07
1.83525e-05
1.05414e-06
1.68756e-05
-2.3451e-06
1.25232e-05
-1.64296e-06
1.52573e-05
-3.73648e-06
1.08534e-05
-4.33416e-06
8.25283e-06
-4.53109e-06
8.89265e-06
-1.65912e-06
1.40159e-05
-7.34633e-06
1.73062e-05
-1.75812e-06
1.06614e-05
-8.76154e-06
1.60632e-05
-7.51842e-06
1.53806e-05
-6.93073e-06
1.3036e-05
-5.48585e-06
2.12591e-05
-1.02666e-05
2.0611e-05
-5.26035e-06
1.74653e-05
-2.00152e-06
2.00014e-05
-6.39203e-06
2.2398e-05
-3.44351e-06
1.54146e-05
3.14646e-05
-1.12231e-05
-5.47395e-07
1.69011e-05
-5.25522e-07
1.33698e-05
-2.98292e-07
1.60794e-05
2.8773e-10
1.80539e-05
4.78423e-07
1.63974e-05
9.17383e-07
1.20842e-05
1.32337e-06
1.48514e-05
-3.62232e-06
1.5799e-05
-3.04269e-06
7.67318e-06
-1.95536e-06
7.80532e-06
-2.85063e-06
1.49112e-05
-2.00285e-06
1.64584e-05
-8.25936e-06
1.69179e-05
-3.69268e-06
1.14965e-05
-6.78436e-06
1.84723e-05
-8.94685e-06
1.51985e-05
-8.52936e-06
2.08416e-05
-4.56479e-06
1.66464e-05
-6.54045e-06
1.94409e-05
-1.01559e-06
1.44765e-05
-8.70484e-07
2.22529e-05
-1.01596e-05
2.47038e-05
2.50992e-05
-3.79429e-06
-6.20539e-07
1.75216e-05
-6.97021e-07
1.34462e-05
-2.42926e-07
1.56253e-05
-6.79709e-07
1.84907e-05
-4.63601e-07
1.61813e-05
-3.66184e-07
1.19868e-05
-2.96915e-07
1.47821e-05
-1.70945e-06
1.72116e-05
-2.24445e-06
8.20818e-06
-1.95158e-06
7.51245e-06
2.06397e-07
1.27532e-05
-8.07315e-07
1.74721e-05
-2.22144e-06
1.83321e-05
-7.98399e-06
1.72591e-05
-4.58514e-06
1.50734e-05
-1.94878e-06
1.25621e-05
-6.62416e-06
2.55169e-05
-8.47132e-06
1.84936e-05
-3.94011e-06
1.49097e-05
-4.33271e-06
1.48691e-05
-7.15156e-06
2.50717e-05
-1.37619e-06
1.89284e-05
2.32297e-05
4.93368e-07
1.0268e-07
1.74189e-05
2.89058e-07
1.32598e-05
4.7012e-07
1.54443e-05
-3.66675e-07
1.93274e-05
-7.25824e-07
1.65404e-05
-1.09603e-07
1.13705e-05
3.42088e-08
1.46383e-05
-6.35945e-07
1.78817e-05
-5.84246e-08
7.63065e-06
3.376e-07
7.11642e-06
-5.65815e-08
1.31474e-05
-6.94311e-07
1.81098e-05
-5.10027e-07
1.81478e-05
-2.12499e-07
1.69616e-05
-4.933e-06
1.97939e-05
-6.59935e-06
1.42285e-05
-3.35879e-06
2.22764e-05
-3.51519e-06
1.865e-05
-1.59323e-06
1.29877e-05
-7.85249e-06
2.11283e-05
-7.52737e-06
2.47466e-05
-6.23333e-06
1.76343e-05
1.78734e-05
-8.77086e-07
5.6029e-08
1.73629e-05
-9.50841e-09
1.33254e-05
-1.87611e-08
1.54535e-05
-1.31661e-06
2.06253e-05
-2.11697e-06
1.73408e-05
-1.20691e-06
1.04605e-05
2.33173e-07
1.31982e-05
5.84869e-08
1.80564e-05
-1.0617e-06
8.75084e-06
-2.1143e-06
8.16901e-06
1.29809e-06
9.73497e-06
-6.95271e-08
1.94774e-05
-1.03721e-06
1.91154e-05
-2.35675e-06
1.82811e-05
-3.35609e-06
2.07933e-05
-2.56049e-06
1.34328e-05
-2.45527e-06
2.21712e-05
-4.862e-07
1.66809e-05
-6.5077e-06
1.90092e-05
-5.87315e-06
2.04938e-05
3.07537e-06
1.57981e-05
-2.3462e-06
2.30559e-05
1.79653e-05
-2.43812e-06
2.96237e-07
1.70667e-05
3.88607e-07
1.3233e-05
6.85597e-07
1.51565e-05
1.53455e-07
2.11574e-05
-2.98239e-07
1.77925e-05
-8.04781e-07
1.0967e-05
-6.96365e-07
1.30897e-05
-5.92644e-07
1.79527e-05
-1.22712e-06
9.3853e-06
-1.43749e-06
8.37938e-06
-8.204e-07
9.11787e-06
-7.53442e-07
1.94105e-05
-6.07491e-07
1.89695e-05
-4.53041e-07
1.81266e-05
-5.23184e-08
2.03925e-05
-4.29159e-07
1.38097e-05
-9.70254e-08
2.1839e-05
-6.41794e-06
2.30018e-05
-3.42921e-06
1.60205e-05
-3.87744e-06
2.0942e-05
-1.9997e-06
1.39203e-05
-2.28873e-07
2.12851e-05
2.11833e-05
-3.44683e-06
1.12784e-07
1.69539e-05
1.54578e-07
1.31912e-05
5.64923e-07
1.47462e-05
4.34049e-07
2.12883e-05
-4.75933e-07
1.87025e-05
-2.76586e-06
1.32569e-05
1.30579e-06
9.0181e-06
2.06205e-06
1.71964e-05
1.18445e-06
1.02629e-05
1.86226e-07
9.3776e-06
-2.34047e-06
1.16446e-05
-8.95891e-07
1.79659e-05
-5.7489e-07
1.86485e-05
-2.39131e-07
1.77909e-05
-6.23698e-07
2.07771e-05
-4.39597e-07
1.36256e-05
-1.48679e-06
2.28862e-05
-2.60493e-06
2.41199e-05
-5.87137e-06
1.92869e-05
-2.70409e-07
1.5341e-05
-9.92032e-07
1.46419e-05
-1.36466e-06
2.16577e-05
1.90526e-05
7.66078e-07
1.77286e-07
1.67766e-05
4.88724e-07
1.28798e-05
7.26799e-07
1.45081e-05
1.07123e-06
2.09439e-05
2.03123e-06
1.77425e-05
-8.13845e-07
1.6102e-05
-2.95814e-07
8.50006e-06
1.87155e-06
1.5029e-05
8.34238e-07
1.13002e-05
-1.76499e-07
1.03883e-05
-2.01737e-06
1.34854e-05
-4.66207e-07
1.64147e-05
6.11651e-08
1.81211e-05
1.00131e-06
1.68507e-05
8.74822e-07
2.09036e-05
-5.0166e-06
1.9517e-05
6.15724e-07
1.72539e-05
3.39942e-07
2.43957e-05
2.78754e-06
1.68393e-05
-3.29207e-06
2.14207e-05
-2.99056e-06
1.43404e-05
-6.30854e-07
1.9298e-05
1.74953e-05
9.26394e-07
-1.28844e-07
1.69054e-05
-9.01518e-08
1.28411e-05
-2.43582e-08
1.44423e-05
2.08647e-07
2.07109e-05
9.69163e-07
1.6982e-05
1.48894e-06
1.55822e-05
2.6987e-06
7.2903e-06
4.754e-06
1.29737e-05
5.12454e-07
1.55418e-05
-4.23798e-06
1.51388e-05
-2.27897e-07
9.47535e-06
5.00148e-07
1.56867e-05
8.412e-07
1.778e-05
1.16708e-06
1.65248e-05
2.75395e-06
1.93167e-05
4.27476e-06
1.79962e-05
-1.11881e-06
2.26475e-05
-5.54159e-07
2.38311e-05
3.48453e-07
1.59367e-05
2.46531e-06
1.93038e-05
-3.98546e-06
2.07912e-05
-3.27016e-06
1.85827e-05
1.17233e-05
2.50181e-06
-1.22388e-07
1.70278e-05
-2.07215e-07
1.29259e-05
-3.78883e-07
1.4614e-05
-4.98814e-07
2.08308e-05
6.47436e-07
1.58357e-05
1.03578e-06
1.51939e-05
3.09727e-07
8.01636e-06
-6.56835e-07
1.39403e-05
-7.55771e-07
1.56407e-05
-9.33186e-07
1.53162e-05
-4.91712e-06
1.34593e-05
3.35628e-08
1.0736e-05
7.6159e-07
1.7052e-05
7.67957e-07
1.65185e-05
1.91529e-06
1.81694e-05
9.65472e-07
1.8946e-05
2.83332e-06
2.07796e-05
3.88165e-06
2.27827e-05
-2.12544e-06
2.19438e-05
-3.12609e-06
2.03045e-05
2.37835e-06
1.52867e-05
1.82799e-06
1.9133e-05
1.26891e-05
8.6226e-07
-3.99891e-07
1.74277e-05
-4.93432e-07
1.30194e-05
-5.68088e-07
1.46886e-05
-6.88195e-07
2.09509e-05
-3.05288e-07
1.54528e-05
-7.88345e-07
1.5677e-05
-1.33035e-06
8.55836e-06
1.84897e-06
1.0761e-05
6.6234e-07
1.68273e-05
1.19291e-07
1.58592e-05
-9.79647e-07
1.45582e-05
-2.71076e-08
9.78343e-06
6.78106e-07
1.63468e-05
3.90442e-07
1.68061e-05
1.53761e-06
1.70222e-05
1.19598e-06
1.92876e-05
8.9244e-07
2.10831e-05
1.34606e-08
2.36617e-05
1.72145e-07
2.17851e-05
3.94741e-06
1.65292e-05
3.33297e-06
1.59012e-05
1.56354e-06
2.09025e-05
1.72834e-05
-3.03077e-06
-3.53606e-07
1.77813e-05
-2.41431e-07
1.29073e-05
-9.3e-07
1.53772e-05
-1.17256e-06
2.11934e-05
1.9472e-06
1.2333e-05
1.65968e-07
1.74582e-05
-7.35918e-07
9.46025e-06
-1.67869e-06
1.17037e-05
-2.61963e-06
1.77683e-05
2.70125e-06
1.05384e-05
1.16219e-06
1.60973e-05
1.83502e-06
9.1106e-06
8.86562e-07
1.72953e-05
5.26548e-08
1.764e-05
1.80351e-07
1.68945e-05
4.41233e-07
1.90268e-05
1.47027e-06
2.00541e-05
2.18753e-06
2.29445e-05
3.19336e-06
2.07793e-05
4.05739e-06
1.56652e-05
-5.27119e-07
2.04857e-05
-2.30446e-06
2.26798e-05
1.76021e-05
-2.62314e-06
-9.72679e-07