/*--------------------------------*- C++ -*----------------------------------*\
| =========                 |                                                 |
| \\      /  F ield         | foam-extend: Open Source CFD                    |
|  \\    /   O peration     | Version:     4.1                                |
|   \\  /    A nd           | Web:         http://www.foam-extend.org         |
|    \\/     M anipulation  |                                                 |
\*---------------------------------------------------------------------------*/
FoamFile
{
    version     2.0;
    format      ascii;
    class       volScalarField;
    location    "0.65";
    object      psi;
}
// * * * * * * * * * * * * * * * * * * * * * * * * * * * * * * * * * * * * * //

dimensions      [1 -1 -2 0 0 0 0];

internalField   nonuniform List<scalar> 
2268
(
-2560.41
2127.17
-2752.53
-513.097
-43.5128
-2.88039
-9.73118
-1.6985
-0.565465
-9.70733
-5.86108
-5.09334
-4.80278
-4.10822
-2.56277
-1.20577
-0.572753
-0.203513
-1.21324
-15.585
-77.9277
-390.052
-1088.3
-2857.46
2857.33
-2730.74
-1321.19
-215.27
-23.4629
-407.423
-43.3078
-9.11394
-83.0191
-28.692
-17.5006
-12.2375
-9.28437
-5.20161
-4.08344
-2.30047
-0.975747
-0.381031
-1.85999
-0.808528
-18.4648
-453.443
-2685.28
2609.15
-2348.58
-2137.04
-785.482
-195.002
-2780.82
-1046.78
-95.6725
-379.892
-89.5684
-37.1305
-28.7313
-23.7042
-13.023
-8.232
-4.79247
-2.05958
-0.642965
-0.767703
-4.04945
-38.2901
-244.904
-2549.24
2411.92
234.796
-2746.89
-2021.46
-2167.5
2210.55
-2596.03
-609.685
-1629.42
-439.898
-95.6582
-94.6103
-82.7067
-65.3525
-46.3912
-36.5033
-19.8633
-7.08926
-3.07559
-5.55095
-34.1503
-229.958
-2524.64
2204.53
2352.88
-530.417
-2002.99
-2516.62
2536.37
-2818.17
-1847.49
-2124.9
-1926.74
-399.737
-247.175
-278.921
-224.007
-180.974
-123.209
-50.5519
-22.9571
-10.1196
-12.7926
-51.9468
-221.256
-2480.08
2010
2473.46
493.41
214.635
-2626.48
294.496
-2355.41
-1976.34
1900.17
-2513.52
-830.249
-500.725
-633.731
-586.945
-553.197
-291.887
-117.117
-63.8576
-44.2777
-74.215
-255.039
-227.043
-1440.19
2193.86
2704.48
-137.837
1760.41
-37.1306
2671.46
363.157
2746.61
2856.26
-2760.02
-1185.22
-824.739
-1058.65
-1113.8
-1005
-602.957
-295.098
-193.595
-339.768
-648.603
-1159.76
-240.18
-52.8169
2579.13
2852.05
1280.54
1962.4
2770.5
2850.9
120.526
2844.21
2723.76
-271.521
-2781.41
-1314.83
-1414.65
-1394.9
-1021.58
-709.12
-504.09
-594.999
-1671.11
-2219.54
-2462.17
-634.755
-530.048
-554.517
-529.118
-571.301
-711.166
-981.039
-1319.32
-1643.72
-1937
-2104.56
-2145.29
-2033.74
-1864.8
-1711.28
-1749.81
-1882.3
-1865.67
-1037.63
1659.72
-478.626
-375.152
-60.9419
85.1965
-10.9069
269.143
-233.762
-1538.38
-2057.77
-2326.4
-2455.54
-2468.02
-2575.67
-2554.57
-2566.73
-2568.68
-2525.2
-1942.9
1749.46
-340.534
124.905
1444.08
900.215
1501.88
2499.47
1814.79
-250.164
-1369.99
-1789.56
-1876
-2449.77
-2513.41
-2323.39
-2553.7
-2620.01
-2540.6
-1800.62
2056.14
-108.324
733.165
1729.52
1420.54
2751.1
2806.8
2751.78
2769.85
2828.86
515.751
-1150.64
-1305.44
-2013.82
-997.512
-1446.31
-2144.86
-2423.81
-1556.74
2246.7
255.525
1532.33
2227.88
1128.1
2199.91
2832.31
2109.12
1950.08
1873.15
2713.38
2237.82
2746.18
728.105
2339.16
886.608
-1109.54
-2013.73
-1367.29
2459.59
768.418
2584.92
2857.68
2137.29
802.315
2847.11
2380.8
1569.76
1587.82
1709.85
2160.27
2486.75
2826.7
2850.36
2084.1
-29.7651
-1668.64
-1274.95
2455.36
1523.77
2855.12
1820.91
2745.12
1540.08
2752.08
1911.6
2094.46
2380.23
2267.98
2330.28
2606.43
2847.25
2807.54
2345.63
886.388
-1181.73
-1645
2053.88
2302.95
2734.37
1507.99
1625.41
2791.35
2183.19
2579.51
2798.48
2813.34
2835.48
2678.18
2645.09
2772.01
2854.59
2610.87
1436.69
-728.35
-2103.13
190.754
1201.58
2843.15
2851.6
1028.67
2422.52
2683.23
2854.73
-1408.02
2824.22
2756.89
1458.49
-2817.19
-2054.14
-2264.13
-2135.69
-2253.65
-2073.25
-2167.83
-2530.65
-2837.2
-2857.67
-2830.39
-2413.1
2675.84
2236.33
2851.1
42.6879
2834.49
1621.01
1850.32
2794.09
1989.6
2852.03
884.93
-2838.04
-2644.48
-2652.08
-2826.81
-2582.4
-2612.48
-1367.24
-803.725
-279.137
-1606.48
-1692.74
-2446.5
2852.66
1925.79
1349.34
2533.69
1671.72
887.517
1065.96
1703.56
907.277
1614.46
2692.11
-2850.27
-2837.83
-1287.09
-431.032
1473.01
2664.91
2855.13
2693.79
1798.78
12.4128
-416.42
-1236.56
1702.18
2856.13
988.15
1527.84
621.638
569.406
682.937
718.568
674.301
2500.19
394.075
-2458.45
1404.83
2657.11
2832.51
2570.95
1918.06
1924.7
2408.59
2809.38
2599.28
1205.32
635.596
2636.75
2640.95
746.539
612.351
435.581
414.84
392.443
280.238
200.476
592.035
2703.76
1130.84
2590.84
2040.05
1840.44
1373.2
1385.93
1358.7
1826.24
2123.88
2440.35
2809.11
2813.66
2067.58
694.304
486.14
442.789
419.172
352.859
298.222
159.634
99.4067
175.858
1119.2
2609.14
1093.16
1148.69
1174.07
785.163
703.99
495.354
575.246
721.701
1158.99
1892.69
2657.38
734.825
223.778
349.42
395.942
420.833
347.06
221.941
139.59
66.995
35.9547
134.616
488.962
140.723
381.06
452.536
384.987
306.833
210.481
120.933
273.997
970.061
2123.83
2458.22
64.027
172.155
256.996
307
372.932
358.686
269.075
141.724
35.8899
15.6265
20.9639
32.9582
43.5574
89.3013
176.64
230.851
204.6
142.515
72.4507
137.904
459.619
814.528
929.677
22.4604
67.8845
141.221
213.089
277.532
346.6
252.641
107.544
25.6799
8.97617
10.0442
15.0469
26.0318
46.8589
97.2387
167.393
152.231
111.213
44.7203
94.409
235.352
354.727
480.309
11.6886
24.7845
58.5747
144.79
195.591
274.704
211.638
103.4
28.7932
8.21266
4.00435
8.95171
17.3194
28.1037
73.7192
93.8125
65.0938
36.1514
35.0686
101.376
201.175
226.341
192.722
5.9757
9.36201
21.8728
73.6928
82.8332
115.476
117.977
68.5037
20.1073
4.65115
2.09134
5.93023
9.55247
16.9771
64.073
43.5788
15.5313
17.0735
16.1405
27.4889
46.9159
41.3924
17.7835
3.1716
3.44616
5.02048
22.337
19.7515
23.4873
40.5269
23.4282
6.75373
1.58482
0.925074
5.26551
6.13104
9.8261
24.9301
12.4114
8.35834
8.02856
6.69827
8.61041
11.1523
8.70665
3.71527
1.62433
1.13824
1.06944
4.72005
2.2254
2.88798
3.81723
1.8042
0.330436
0.0909881
0.19909
4.03363
3.67907
6.29642
10.1168
6.23218
3.78329
2.43873
1.77839
2.12925
2.1804
1.68355
2.05441
0.688878
0.302643
0.275761
0.499088
0.240177
0.0126099
0.0907459
0.0127224
0.00415364
0.0475152
0.268276
7.34967
2.21279
2.93123
3.72934
2.85815
1.62892
0.957034
0.304644
0.251467
0.167752
0.31718
0.838134
0.186258
0.0599548
0.0589355
0.0301718
0.00902043
0.000580218
0.000163516
0.000161654
0.00338411
0.0793101
0.289901
2.16178
0.626642
1.15074
0.972686
0.551253
0.511638
0.577943
0.275364
0.0654395
0.0197619
0.0654705
0.258708
0.0612882
0.0126905
0.0101903
0.00215902
0.000164136
3.5595e-05
1.89447e-05
0.000146311
0.00885203
0.193697
0.445012
1.47286
0.199735
0.289737
0.0632814
0.0337176
0.0462115
0.0469378
0.0550508
0.00949751
0.0046722
0.00722102
0.0238667
0.0112657
0.00197482
0.00170284
0.000264179
9.8479e-06
2.98763e-06
2.54378e-06
0.000288594
0.00577522
0.0376489
0.0738385
0.0423497
0.0151548
0.0205233
0.00924176
0.00255395
0.00518586
0.00252191
0.00396884
0.00130666
0.000889126
0.000741551
0.0031357
0.00147624
0.000369095
0.000329997
5.40433e-05
1.10612e-06
4.17089e-07
4.59782e-06
0.000515532
0.00800311
0.0214745
0.0213189
0.0077888
0.000775189
0.000835493
0.00140465
0.000263512
0.000327049
0.000137378
0.000289192
7.28983e-05
0.000131699
0.000154966
0.000409207
7.28663e-05
2.91772e-05
5.80799e-05
1.12031e-05
1.29337e-07
6.86504e-08
1.17708e-07
7.12068e-07
5.57583e-06
1.21121e-05
2.18543e-05
2.03694e-05
2.08652e-05
4.2878e-05
9.7865e-05
0.000102569
2.69942e-05
1.11691e-05
7.7255e-06
5.94808e-06
1.73285e-05
2.83959e-05
6.18137e-05
1.96142e-06
1.39817e-06
1.42724e-05
2.81749e-06
4.14403e-08
5.99445e-09
8.48009e-09
4.69434e-08
1.19381e-07
1.29853e-07
2.48147e-07
7.23162e-07
1.11005e-06
2.64631e-06
6.72459e-06
1.06673e-05
3.25116e-06
1.17928e-06
6.27721e-07
6.456e-07
1.45282e-06
4.76174e-06
9.71243e-06
5.14359e-08
6.30401e-08
7.96076e-07
2.72765e-07
5.30044e-09
4.89305e-10
1.67529e-09
8.96488e-09
2.68146e-08
1.29794e-08
1.12449e-08
3.45479e-08
4.84985e-08
1.45953e-07
4.98431e-07
4.76871e-07
1.22221e-07
1.16855e-07
4.7751e-08
5.6232e-08
1.47569e-07
4.60704e-07
6.54629e-07
3.64797e-09
1.899e-09
2.57958e-08
1.27256e-08
5.45692e-10
2.93767e-10
3.46517e-10
1.26238e-09
2.74485e-09
1.95814e-09
4.60201e-10
6.39364e-10
1.92357e-09
5.90712e-09
3.2759e-08
1.63307e-08
1.08184e-08
5.13679e-09
4.11454e-09
4.65387e-09
1.12859e-08
3.19759e-08
4.82512e-08
5.37511e-10
-2.33741e-10
8.45823e-10
8.05809e-10
3.24689e-10
3.9563e-10
2.98314e-10
3.52884e-10
3.52883e-10
3.75621e-10
3.04681e-10
3.71074e-10
3.67435e-10
4.78392e-10
1.53977e-09
1.11595e-09
9.08582e-10
3.91991e-10
3.95629e-10
4.07452e-10
9.41324e-10
2.48291e-09
4.53836e-09
2.59206e-10
-3.89264e-10
3.89264e-10
3.71074e-10
4.01997e-10
4.26553e-10
3.04681e-10
2.85581e-10
3.47427e-10
3.7744e-10
3.39242e-10
3.7744e-10
2.85581e-10
2.24645e-10
3.26508e-10
3.47427e-10
2.73758e-10
2.14641e-10
1.45519e-10
1.13687e-10
1.36424e-10
3.14684e-10
7.79435e-10
2.85582e-10
-2.47383e-10
3.04681e-10
3.36513e-10
4.3201e-10
4.72937e-10
2.61934e-10
2.47383e-10
2.73758e-10
3.41061e-10
3.36513e-10
3.85626e-10
3.69255e-10
2.53749e-10
2.68301e-10
2.90129e-10
2.49202e-10
2.04636e-10
1.72804e-10
7.5488e-11
1.60071e-10
2.14641e-10
4.66571e-10
2.1555e-10
-3.20143e-10
3.32875e-10
3.39241e-10
3.91992e-10
3.82897e-10
2.90129e-10
2.63753e-10
3.26509e-10
3.00133e-10
3.01952e-10
3.62888e-10
3.97449e-10
3.30147e-10
3.26509e-10
2.98314e-10
2.17369e-10
1.89175e-10
1.48248e-10
1.437e-10
1.99179e-10
1.15506e-10
2.12822e-10
3.11957e-10
-3.56522e-10
3.83807e-10
3.75621e-10
3.16504e-10
4.3201e-10
3.64707e-10
3.30147e-10
3.32875e-10
3.83807e-10
3.2469e-10
4.05635e-10
3.52884e-10
2.75577e-10
2.77396e-10
3.41061e-10
2.55568e-10
1.50067e-10
1.437e-10
1.33696e-10
1.50067e-10
1.66438e-10
4.00178e-10
2.96496e-10
-4.44743e-10
4.09273e-10
3.26509e-10
3.51065e-10
3.87445e-10
3.73802e-10
3.67436e-10
3.41061e-10
3.91992e-10
3.32875e-10
3.97449e-10
4.00178e-10
3.81078e-10
3.44698e-10
3.71074e-10
3.46518e-10
2.35559e-10
2.04636e-10
1.19144e-10
8.0945e-11
9.09494e-11
3.57432e-10
2.78306e-10
-3.46518e-10
4.22006e-10
3.2469e-10
3.10138e-10
3.01952e-10
3.21052e-10
2.90129e-10
2.31012e-10
3.36513e-10
3.62888e-10
3.22871e-10
4.33829e-10
3.81078e-10
3.32875e-10
3.42879e-10
3.54703e-10
2.43745e-10
1.94632e-10
7.9126e-11
5.09317e-11
-2.0009e-11
2.57387e-10
2.02817e-10
-3.10138e-10
3.93811e-10
2.78305e-10
2.71939e-10
2.77396e-10
3.69255e-10
3.93811e-10
2.98314e-10
4.09273e-10
3.71074e-10
3.61069e-10
4.15639e-10
3.54703e-10
3.72893e-10
3.73802e-10
4.05635e-10
2.98314e-10
1.437e-10
8.54925e-11
1.2551e-10
5.45696e-11
3.62889e-10
1.45519e-10
-2.77396e-10
3.10138e-10
3.31056e-10
2.8831e-10
2.32831e-10
3.83807e-10
3.97449e-10
2.83762e-10
4.03816e-10
3.65617e-10
3.32875e-10
4.09273e-10
2.90129e-10
4.23825e-10
3.2469e-10
4.48381e-10
2.96495e-10
1.68256e-10
7.9126e-11
1.58252e-10
2.81942e-11
3.91083e-10
1.6189e-10
-2.51021e-10
2.59206e-10
3.93811e-10
2.90129e-10
3.65617e-10
3.47427e-10
3.57431e-10
2.91948e-10
4.46562e-10
3.85626e-10
3.47427e-10
3.9563e-10
3.14685e-10
3.51065e-10
3.54703e-10
4.35648e-10
2.85581e-10
2.22826e-10
1.23691e-10
1.11868e-10
4.91126e-11
4.72938e-10
8.54926e-11
-3.065e-10
2.19188e-10
2.8831e-10
2.06455e-10
2.07365e-10
3.31056e-10
3.10138e-10
2.7012e-10
4.07454e-10
3.30147e-10
3.16504e-10
3.51065e-10
2.21007e-10
3.00133e-10
3.69255e-10
3.18323e-10
3.44699e-10
3.38332e-10
1.88265e-10
6.91215e-11
6.91215e-11
5.19322e-10
9.09496e-11
-3.00134e-10
2.37378e-10
1.9827e-10
1.6189e-10
3.39242e-10
2.59206e-10
2.49202e-10
2.63753e-10
2.78305e-10
3.4288e-10
3.00133e-10
2.41926e-10
1.10049e-10
1.10049e-10
3.62889e-10
2.81943e-10
3.41061e-10
2.67391e-10
2.21007e-10
7.7307e-11
5.9117e-11
4.92947e-10
1.11868e-10
-1.88266e-10
1.89175e-10
1.84627e-10
2.41926e-10
3.89264e-10
3.10138e-10
2.71939e-10
2.73758e-10
2.17369e-10
2.67391e-10
3.34694e-10
1.78261e-10
7.5488e-11
1.437e-10
2.63754e-10
1.53704e-10
3.6107e-10
2.41926e-10
2.35559e-10
9.54969e-11
-6.3666e-12
2.78305e-10
9.9135e-11
-2.00999e-10
3.22871e-10
1.66437e-10
2.8831e-10
3.16504e-10
1.53705e-10
1.20053e-10
2.12822e-10
2.09184e-10
2.45564e-10
2.93767e-10
2.04636e-10
1.6189e-10
2.09184e-10
2.39197e-10
1.8008e-10
2.81943e-10
2.09184e-10
2.78305e-10
1.50067e-10
-3.63817e-12
4.40196e-10
4.91128e-11
-1.31877e-10
4.35648e-10
2.68301e-10
2.06455e-10
2.39197e-10
1.60071e-10
1.13687e-10
9.09494e-11
1.68256e-10
2.35559e-10
1.84627e-10
1.36424e-10
2.65573e-10
6.91214e-11
1.64619e-10
1.71895e-10
1.45519e-10
1.40062e-10
2.25555e-10
1.40062e-10
2.27372e-11
4.502e-10
4.00178e-11
4.54731e-12
5.27507e-10
3.01952e-10
2.45564e-10
3.36513e-10
1.78261e-10
1.30058e-10
1.66438e-10
2.11003e-10
2.17369e-10
1.58252e-10
1.64618e-10
3.46518e-10
2.17369e-10
2.35559e-10
1.66437e-10
1.9827e-10
1.9827e-10
9.91348e-11
1.66438e-10
-2.27376e-11
4.52019e-10
2.00088e-11
1.21872e-10
6.4756e-10
3.69255e-10
3.21052e-10
4.96584e-10
1.54614e-10
2.09184e-10
3.30147e-10
2.04636e-10
2.80124e-10
1.60071e-10
2.45564e-10
4.25644e-10
2.91948e-10
2.80124e-10
2.11003e-10
3.22871e-10
2.63753e-10
1.36424e-10
1.96451e-10
4.54726e-12
4.12001e-10
5.27507e-11
2.61934e-10
7.70342e-10
4.96584e-10
4.74756e-10
5.7571e-10
3.04681e-10
2.17369e-10
4.12001e-10
1.92813e-10
3.81078e-10
2.06455e-10
2.5193e-10
4.38377e-10
3.46517e-10
3.20142e-10
3.56522e-10
4.20187e-10
2.91948e-10
3.2469e-10
3.2469e-10
1.38243e-10
2.75577e-10
-7.27597e-11
2.35559e-10
7.64885e-10
5.43878e-10
3.38332e-10
4.6839e-10
2.47382e-10
2.67391e-10
2.80124e-10
2.24645e-10
2.75577e-10
3.20142e-10
2.31012e-10
2.75577e-10
3.22871e-10
3.2469e-10
3.065e-10
4.26553e-10
3.5925e-10
3.44699e-10
1.05501e-10
3.08319e-10
1.2551e-10
-4.00179e-11
3.85626e-10
8.0945e-10
6.61203e-10
4.89308e-10
4.62023e-10
3.065e-10
3.81078e-10
3.83807e-10
3.69255e-10
3.82897e-10
3.65617e-10
3.72893e-10
3.91992e-10
4.46562e-10
3.52884e-10
4.22006e-10
4.20187e-10
4.56566e-10
4.1382e-10
3.83807e-10
5.01132e-10
-5.27509e-11
-1602.88
-1089.13
-2854.31
2824.13
-2815.39
-2166.87
-2395.25
-2857.05
-1977.78
-2354.92
-2783.82
-2788.47
113.389
-40.8295
-110.131
-34.0949
2579.42
2394.3
2266.47
2190.82
2857.69
2800.53
2758.35
2823.98
2553.19
2556.46
2480.87
1949.25
978.096
1009.39
1214.21
1432.4
698.111
900.283
1302.27
1566.16
203.169
290.784
482.188
587.343
15.4347
32.0378
66.6181
69.6579
3.83481
7.92456
12.5536
19.8608
7.02113
15.8972
34.3872
63.5152
2.74657
7.10416
17.353
35.5268
1.0388
2.97664
7.64672
16.6412
0.125378
0.402734
1.25513
3.05589
0.014844
0.0458736
0.161976
0.393332
0.00084678
0.0039739
0.016552
0.025789
0.00011405
0.000417201
0.0009011
0.002027
9.67322e-06
2.91545e-05
7.53174e-05
0.000204107
1.11521e-06
2.57027e-06
5.28176e-06
2.06269e-05
1.46043e-07
2.70302e-07
8.50941e-07
2.30351e-06
1.82699e-08
4.54201e-08
8.88045e-08
2.83756e-07
2.31284e-09
3.9481e-09
1.04682e-08
4.07562e-08
2.51929e-10
5.43876e-10
1.21872e-09
2.69845e-09
5.45694e-11
1.15506e-10
1.35514e-10
2.65571e-10
5.09314e-11
6.6393e-11
1.13687e-10
5.91169e-11
6.09359e-11
7.54881e-11
3.45608e-11
-1.69921e-16
4.91125e-11
7.27596e-11
8.36737e-11
-2.27376e-11
4.4565e-11
5.45697e-11
3.27419e-11
-6.63934e-11
8.18508e-12
2.81943e-11
3.63799e-11
-3.638e-11
-6.36693e-12
1.18234e-11
8.1855e-12
-4.00179e-11
1.18229e-11
3.27419e-11
1.18235e-11
-4.91129e-11
2.63749e-11
6.63932e-11
2.63754e-11
-4.27464e-11
1.18231e-11
8.91307e-11
6.09363e-11
-6.63934e-11
-8.54931e-11
-3.63794e-12
5.63889e-11
-3.2742e-11
-5.91175e-11
-1.0914e-10
-2.00087e-11
-1.0914e-10
-3.27422e-11
-3.00133e-11
-3.63787e-12
-4.91129e-11
-6.36687e-12
6.36647e-12
1.81884e-12
8.36737e-11
7.73069e-11
9.7316e-11
1.00954e-10
7.09404e-11
-1.63711e-11
1.00043e-11
1.36424e-10
2.67392e-10
-1.00044e-11
-3.00134e-11
-1.36424e-11
-2.63757e-11
2711.36
2851.52
2853.84
2857.63
2855.09
2847.61
2690.91
2256.87
372.332
1728.16
1999.06
2420.48
2395.17
2615.55
2522.59
1844.22
-133.917
-2275.18
-1598.21
-1872.69
-2836.15
-2838.2
-2826.94
-2829.72
-2833.77
-2847.17
-2840.37
-2841.66
-2854.74
-2852.81
-2838.94
-2796.45
-2094.18
-764.152
-1050.71
-1864.5
-2502.22
-2426.63
-2850.02
-2783.85
-2688
-2272.08
-1963.5
-1932.38
-2303.23
-2460.24
-2620.72
-2732.11
-2744.34
-2855.82
-2826.65
-2766.39
-2773.81
-2797.64
-2845.45
-2754.16
-2351.85
-914.524
-1821.59
-2053.13
-2786.58
-2367.64
-2476.52
-2793.29
-2069.35
832.516
643.609
171.122
-587.882
-924.695
-1671.86
-1708.5
-1131.05
-1225.87
-2043.99
-2149.64
1882.26
2286.27
2327.33
-384.154
-2770.81
-2812.91
-1873.16
814.492
2855.57
2847.09
2711.26
1600.2
1441.81
1724.57
2394.15
2466.71
2392.37
82.6015
-1841.98
2805.62
2596.22
2664.61
2856.11
1311.47
-1385.28
-414.24
2280.2
2570.41
2407.12
2620.05
2722.29
2228.46
2311.45
2712.65
2856.02
2857.72
525.562
-1713.83
1562.26
1846.17
2357.38
2850.91
1372.31
337.494
2111.11
2792.93
1754.21
1492.18
1896.14
2828.68
2857.71
2825.87
2769.73
2539.41
2807.81
362.438
-1601.92
1997.66
2781.16
2695.32
2375.01
1381.64
1872.08
2831.58
2058.02
1082.65
822.309
1254.44
1848.38
1937.78
2226.1
2268.9
2587.92
2563.44
-56.6592
-1511.19
1650.98
2802.63
2829.98
2602.4
2528.31
2854.25
2226.04
1131.61
711.54
580.96
793.799
982.032
1317.24
1760.42
2257.48
2703.63
2527.93
-91.8916
-1459.76
513.176
1687.03
1817.92
1197.53
2265.35
1578.98
676.74
480.246
534.411
622.245
898.639
1092.55
1305.73
1755.47
2274.73
2833.21
2098.25
-113.737
-1449.02
86.3027
220.052
226.349
380.084
594.324
370.295
354.227
554.808
724.518
892.462
1150.95
1466.66
1666.78
1850.46
2184.24
2802.31
2222.97
-264.374
-1454.07
29.1793
45.9407
94.4698
155.802
231.715
421.703
643.628
964.195
1214.91
1475.37
1709
1953.71
2291.23
2547.88
2673.85
2842.43
2328.42
80.8283
-1434.74
117.893
194.305
256.646
380.948
526.828
733.661
977.444
1184.3
1373.62
1614.71
1736.5
1777.13
1909.67
2414.91
2654.27
2675.58
1010.12
20.5594
-1427.3
72.1628
144.422
218.4
323.911
434.047
483.162
452.741
342.924
386.666
599.477
920.866
987.861
1076.55
1989.57
2592.44
2856.79
380.663
-279.546
-1463.2
36.7551
91.0031
152.046
230.498
285.784
282.836
85.8856
47.8515
45.4138
64.7489
163.739
314.063
385.241
1064.95
2442.36
2852.47
1505.16
-807.275
-1553.45
6.53175
23.9802
46.1889
94.74
143.359
135.853
23.6394
18.1452
20.191
23.118
36.4593
104.769
135.88
428.273
2051.01
2373
1161.21
-1286.93
-1626.69
0.882625
3.95552
12.1605
23.5818
59.4378
72.3537
12.3846
7.97016
8.66664
6.03672
5.19391
15.1971
23.0674
110.384
1410.51
2377.47
648.237
-1450.36
-1636.72
0.11692
0.472188
2.61133
5.47187
13.3114
19.8739
7.46863
2.66793
2.76686
2.55194
1.916
4.71901
24.1325
102.909
870.537
2442.5
-378.441
-1461
-1610.6
0.0131217
0.0514956
0.453644
1.11309
1.85551
3.56377
1.60104
0.731961
0.753328
0.970142
1.24644
7.74941
73.29
435.915
2294.35
1299.98
-644.966
-1274.78
-1473.48
0.00120963
0.00581273
0.0394253
0.180901
0.351867
0.221477
0.194411
0.177265
0.261768
0.4121
0.547589
2.24824
16.1442
78.4049
399.583
2374.91
2411.9
1360.47
-841.033
0.000115942
0.000694663
0.0032481
0.0261798
0.030707
0.0210918
0.0278249
0.0604311
0.113933
0.21426
0.501986
3.59937
22.6687
78.5638
168.467
339.077
1192.14
2828.7
-184.479
1.28838e-05
8.2333e-05
0.000446306
0.00243531
0.00222028
0.00445794
0.0074399
0.0217743
0.0386883
0.0699823
0.433083
5.03125
27.8924
91.6509
220.555
564.521
948.975
2801.18
315.46
1.3524e-06
1.28646e-05
5.85104e-05
0.00022043
0.000291848
0.00108544
0.00164439
0.0055694
0.0142246
0.105973
1.56179
9.68982
52.5076
195.414
425.505
1296.46
1991.17
2601.09
741.12
1.33704e-07
1.5339e-06
7.32535e-06
2.30277e-05
4.99205e-05
0.000205946
0.000386268
0.00186638
0.0232665
0.298647
2.62655
16.2712
84.0007
359.512
776.443
1774.03
2382.13
2595.09
1025.06
1.45837e-08
1.61719e-07
8.5193e-07
2.31655e-06
7.90414e-06
3.3394e-05
7.26584e-05
0.000399374
0.00939466
0.127755
1.60554
15.5449
93.3866
443.527
1094.41
1961.11
2773.89
2727.22
1113.78
1.59252e-09
1.47729e-08
9.34094e-08
2.25207e-07
1.52978e-06
7.46026e-06
8.80129e-05
0.00256963
0.0331598
0.576443
5.08415
31.4094
145.659
433.576
1160.23
1946.14
2782.15
2462.63
1126.6
1.80079e-10
1.5807e-09
8.54922e-09
2.76585e-08
3.17347e-07
1.27148e-05
0.000310988
0.00406685
0.051487
0.450105
3.60007
35.1661
207.76
550.049
1230.04
2013.21
2752.71
2467.75
1131.87
1.33696e-10
2.77395e-10
9.59514e-10
5.96808e-09
7.95716e-08
3.96604e-06
8.86491e-05
0.00210986
0.0394504
0.679331
6.42156
57.1086
255.087
572.2
1147.97
1946.09
2764.98
2498.28
1169.66
1.2551e-10
2.37378e-10
2.91947e-10
1.29239e-09
1.56331e-08
7.6618e-07
2.04269e-05
0.000314624
0.0068581
0.419729
13.7884
79.1111
262.739
497.738
966.836
1838.69
2797.34
2499.76
1274.93
1.01863e-10
1.60071e-10
2.68301e-10
3.0377e-10
2.42468e-09
1.15236e-07
2.75899e-06
3.12848e-05
0.000923924
0.115106
3.41738
15.4575
102.335
195.897
529.817
1518.12
2826.34
2445.06
1416.35
1.41881e-10
2.14641e-10
1.628e-10
2.49201e-10
1.66801e-09
2.48655e-08
3.26706e-07
3.33907e-06
0.000127726
0.0109499
0.30459
3.1463
7.09702
21.4272
119.265
792.593
2681.38
2457.46
1575.79
9.7316e-11
1.60071e-10
3.09226e-11
3.85625e-10
3.92719e-09
4.42431e-08
8.76654e-07
6.13454e-06
8.76787e-05
0.00109878
0.014393
0.323106
0.966476
1.25964
6.14391
158.985
1590.43
2846.04
1925.15
6.09362e-11
1.30058e-10
1.50066e-10
7.94896e-10
9.27136e-09
1.18902e-07
1.37302e-06
1.90422e-05
0.000214062
0.000910054
0.00332937
0.0258784
0.160088
0.550628
2.14434
6.93588
220.196
1713.54
2848.52
6.27552e-11
1.628e-10
2.19188e-10
2.68392e-09
1.79579e-08
1.83454e-07
1.27598e-06
1.54906e-05
0.000331514
0.00251642
0.00936139
0.054524
0.235574
1.40649
6.03994
7.84318
15.9242
481.122
1688.55
-6.36654e-12
2.06455e-10
3.16504e-10
1.16597e-09
9.57695e-09
1.11443e-07
1.26747e-06
1.86963e-05
0.000401291
0.0040188
0.0188772
0.0737281
0.245337
1.61214
8.35675
10.5725
12.4504
113.676
933.044
6.45741e-11
2.24645e-10
4.05634e-10
1.61253e-09
1.90975e-08
1.47564e-07
2.56195e-06
3.51616e-05
0.000576196
0.00359137
0.0247101
0.12996
0.358642
2.6009
14.7991
13.3108
13.3425
58.3529
685.414
4.45652e-11
2.02817e-10
2.71939e-10
1.02227e-09
1.09057e-08
1.39611e-07
1.28417e-06
2.3384e-05
0.000381643
0.000801195
0.00657973
0.0414986
0.132439
2.43253
14.0262
15.5342
15.0266
50.2731
634.884
5.63887e-11
2.07365e-10
2.27374e-10
3.52883e-10
2.67027e-09
3.61587e-08
2.19819e-07
2.65045e-06
9.16338e-06
0.000123986
0.00315746
0.00712622
0.0121133
0.309204
6.05572
17.1819
18.107
57.6086
719.399
3.00132e-11
1.80989e-10
3.81986e-11
2.47382e-10
1.37515e-09
1.68011e-08
1.58497e-07
1.31442e-06
3.12384e-06
5.68654e-05
0.00208054
0.00150226
0.00173906
0.0239598
0.917057
7.83332
14.0804
40.0797
599.451
1.60071e-10
2.37378e-10
-1.36425e-11
1.41881e-10
3.2287e-10
2.28192e-09
1.7887e-08
7.92721e-08
3.1457e-07
5.28285e-06
0.000139893
9.36533e-05
0.00017196
0.00159026
0.0999837
1.20398
7.5018
29.2467
523.492
4.74757e-10
1.36424e-10
-2.04637e-10
-5.27508e-11
-8.27643e-11
8.18471e-12
6.36031e-12
2.49563e-09
5.52415e-09
1.1435e-07
1.60111e-06
1.97725e-05
0.000135983
0.000444793
0.00091335
0.0177389
1.34741
5.61304
348.197
2.27374e-10
2.73758e-10
-5.91172e-11
1.53705e-10
2.07365e-10
2.27374e-10
1.27329e-10
-3.63924e-12
1.82532e-09
1.57375e-07
8.65655e-07
2.59754e-05
0.000193661
0.000497499
0.000801021
0.00480708
0.223968
0.395813
116.125
)
;

boundaryField
{
    leftWall
    {
        type            zeroGradient;
    }
    rightWall
    {
        type            zeroGradient;
    }
    lowerWall
    {
        type            zeroGradient;
    }
    atmosphere
    {
        type            zeroGradient;
    }
    defaultFaces
    {
        type            empty;
    }
}


// ************************************************************************* //
