/*--------------------------------*- C++ -*----------------------------------*\
| =========                 |                                                 |
| \\      /  F ield         | foam-extend: Open Source CFD                    |
|  \\    /   O peration     | Version:     4.1                                |
|   \\  /    A nd           | Web:         http://www.foam-extend.org         |
|    \\/     M anipulation  |                                                 |
\*---------------------------------------------------------------------------*/
FoamFile
{
    version     2.0;
    format      ascii;
    class       volVectorField;
    location    "0.65";
    object      U_0;
}
// * * * * * * * * * * * * * * * * * * * * * * * * * * * * * * * * * * * * * //

dimensions      [0 1 -1 0 0 0 0];

internalField   nonuniform List<vector> 
2268
(
(-0.461146 0.0881249 0)
(-0.0558442 -0.297992 0)
(0.465341 0.0330207 0)
(0.245389 0.0052076 0)
(0.294609 -0.000252747 0)
(0.263709 -0.00185419 0)
(0.334472 -0.0208302 0)
(0.418506 0.0179442 0)
(0.323428 0.0131366 0)
(0.268848 -0.00468325 0)
(0.189927 0.0534995 0)
(0.169609 0.0168446 0)
(0.145968 0.0293751 0)
(0.104864 0.00966066 0)
(0.0592731 0.0251126 0)
(0.041798 0.00824905 0)
(0.0197896 0.0071694 0)
(0.00163508 0.0215421 0)
(-0.0626889 0.0614862 0)
(-0.0858791 -0.015255 0)
(-0.0996617 -0.0596196 0)
(0.012029 -0.0073032 0)
(-0.0159562 -0.00810689 0)
(-0.253024 0.221978 0)
(0.107629 -0.336284 0)
(0.253536 0.076151 0)
(0.232217 0.0206954 0)
(0.298387 -0.000343849 0)
(0.264272 -0.0164282 0)
(0.35792 -0.0687593 0)
(0.426509 0.0147184 0)
(0.332899 0.0157636 0)
(0.319412 -0.0738432 0)
(0.241523 0.0344146 0)
(0.155433 0.0231488 0)
(0.140967 0.0347073 0)
(0.0940657 0.0674375 0)
(0.0696702 0.0314503 0)
(0.0307282 0.00929794 0)
(-0.00779908 0.000436352 0)
(-0.000808874 0.00581723 0)
(-0.00773789 0.0301349 0)
(-0.01907 0.0261244 0)
(0.0068672 -0.0227629 0)
(-0.0301379 -0.0366656 0)
(0.0209266 0.0062431 0)
(-0.20738 0.261808 0)
(0.0419174 -0.375247 0)
(0.0758688 0.015084 0)
(0.135237 0.018609 0)
(0.299824 -0.00276114 0)
(0.247806 -0.0500898 0)
(0.28718 -0.0942007 0)
(0.4236 0.0722467 0)
(0.31543 0.0226063 0)
(0.350191 -0.0961882 0)
(0.238431 0.0895622 0)
(0.12085 0.027854 0)
(0.0934434 0.101673 0)
(0.0406776 0.0643563 0)
(0.0138403 0.0553442 0)
(0.017344 0.0462405 0)
(-0.00742286 0.0367153 0)
(-0.0296692 0.0197264 0)
(-0.038053 0.0277067 0)
(-0.0212406 0.00387609 0)
(-0.0299946 -0.0227209 0)
(-0.0465854 -0.0456267 0)
(0.0265346 -0.01452 0)
(-0.159233 0.384236 0)
(0.137517 -0.335253 0)
(0.143194 -0.0508025 0)
(0.309526 -0.000294142 0)
(0.340967 -0.0200202 0)
(-0.135396 0.0319064 0)
(-0.207213 -0.285304 0)
(0.40706 0.129514 0)
(0.235683 0.0506762 0)
(0.364495 -0.0514635 0)
(0.263276 0.112224 0)
(0.010151 0.104577 0)
(0.0267983 0.097774 0)
(-0.0433001 0.0546229 0)
(-0.026962 0.11758 0)
(-0.027506 0.0775691 0)
(-0.0410445 0.0266974 0)
(-0.0424423 0.0176451 0)
(-0.0385297 0.022737 0)
(-0.0378971 -0.0143601 0)
(-0.0276147 -0.00847974 0)
(-0.0490978 -0.0253651 0)
(0.0212361 -0.00875556 0)
(-0.247349 0.253323 0)
(0.274605 -0.419285 0)
(0.110124 -0.153466 0)
(0.478966 0.0892389 0)
(0.466207 0.0203692 0)
(-0.0549311 0.256087 0)
(0.0414257 -0.585345 0)
(0.177918 0.144384 0)
(0.124654 -0.0242169 0)
(0.3063 -0.137139 0)
(0.287168 0.118954 0)
(0.035138 0.144805 0)
(-0.0468424 0.0630311 0)
(-0.0444544 0.0962621 0)
(-0.0739679 0.0656622 0)
(-0.121573 0.0354824 0)
(-0.125695 0.0306199 0)
(-0.0959788 0.0167812 0)
(-0.0758996 0.0337116 0)
(-0.0516859 -0.0100493 0)
(-0.0354544 -0.00725098 0)
(-0.0533873 -0.0487036 0)
(0.0278305 -0.0271237 0)
(-0.200281 0.148915 0)
(0.312393 -0.490929 0)
(0.26355 -0.442416 0)
(0.461034 0.0531338 0)
(0.410022 0.053812 0)
(0.384568 0.351433 0)
(0.481762 -0.308774 0)
(0.332493 0.171011 0)
(0.262706 0.0213046 0)
(0.166403 -0.201172 0)
(0.334649 0.211411 0)
(0.0122637 0.169764 0)
(-0.015853 0.0977142 0)
(-0.0488467 0.0527797 0)
(-0.0848055 0.060603 0)
(-0.108367 0.0395877 0)
(-0.139297 0.0549765 0)
(-0.125865 0.0442697 0)
(-0.115793 -0.0165792 0)
(-0.0811222 -0.028041 0)
(-0.0482189 -0.00907332 0)
(-0.061654 -0.0547419 0)
(0.022886 -0.0216216 0)
(0.0931044 0.0741197 0)
(0.391554 -0.458934 0)
(0.312245 -0.536674 0)
(0.471603 0.000581093 0)
(0.26072 0.162684 0)
(0.697274 0.144675 0)
(0.409371 -0.354747 0)
(0.191616 0.249529 0)
(-0.67903 -0.0603465 0)
(-0.312939 -0.190426 0)
(0.0809734 0.346644 0)
(-0.019286 0.203004 0)
(-0.0199657 0.0966369 0)
(-0.0170761 0.127511 0)
(-0.0703248 0.0860345 0)
(-0.113081 0.049681 0)
(-0.145081 0.0705225 0)
(-0.168271 -0.015435 0)
(-0.146763 0.0148237 0)
(-0.0552221 -0.028408 0)
(-0.0205633 -0.0261788 0)
(-0.0382812 -0.0795046 0)
(0.0272463 -0.0533371 0)
(0.0849277 -0.05399 0)
(0.430078 -0.450879 0)
(0.242815 -0.399856 0)
(0.392851 -0.00901071 0)
(-0.170994 0.161419 0)
(0.254195 -0.0191106 0)
(-0.114894 -0.289824 0)
(0.179808 0.571068 0)
(-0.353161 -0.0773347 0)
(-0.199949 -0.310922 0)
(0.0452985 0.216246 0)
(0.0945115 0.203984 0)
(0.0294096 0.107877 0)
(-0.0504539 0.170997 0)
(-0.150884 0.114615 0)
(-0.175165 0.0452918 0)
(-0.217972 0.0666738 0)
(-0.218986 0.00412015 0)
(-0.140555 0.0134921 0)
(0.017604 -0.100315 0)
(0.0963238 -0.0147594 0)
(0.0199795 -0.0743114 0)
(0.0266884 -0.0254378 0)
(-0.588787 0.238537 0)
(-0.885073 0.0673379 0)
(-1.07875 0.0332764 0)
(-1.14695 0.00517406 0)
(-1.1339 -0.053543 0)
(-1.07337 -0.0246499 0)
(-1.03925 -0.0499766 0)
(-1.09364 -0.143133 0)
(-1.1972 -0.0262722 0)
(-0.942369 -0.0328667 0)
(-0.944115 -0.100549 0)
(-1.05794 0.113084 0)
(-0.912791 -0.0474262 0)
(-0.822425 0.00135759 0)
(-0.804495 -0.0224401 0)
(-0.618342 -0.149602 0)
(-0.264931 -0.0782497 0)
(-0.0327347 -0.0435051 0)
(0.37541 0.055693 0)
(-0.478382 0.426677 0)
(-0.637746 0.126456 0)
(-0.770294 0.0400239 0)
(-0.801274 -0.0112559 0)
(-0.848833 0.0420645 0)
(-0.712472 0.000608925 0)
(-0.797098 -0.0691673 0)
(-0.990329 -0.143779 0)
(-1.12606 0.0398827 0)
(-0.966404 0.138023 0)
(-0.928327 -0.0285281 0)
(-1.09575 0.159937 0)
(-0.872608 -0.0260874 0)
(-0.745066 -0.0215709 0)
(-0.784767 -0.097819 0)
(-0.618934 -0.0901285 0)
(-0.31112 -0.222969 0)
(-0.21257 -0.189234 0)
(0.324311 0.0992989 0)
(-0.442948 0.946238 0)
(-0.314389 0.495622 0)
(-0.118439 0.0561869 0)
(-0.547846 -0.184884 0)
(-0.727396 0.16802 0)
(-0.401292 -0.0496953 0)
(-0.519053 -0.186912 0)
(-0.745191 -0.104999 0)
(-0.77188 0.0837196 0)
(-0.77419 0.145027 0)
(-0.622755 -0.139531 0)
(-0.820275 -0.127888 0)
(-0.726075 0.0911453 0)
(-0.517431 -0.119772 0)
(-0.539983 -0.206032 0)
(-0.527454 -0.125939 0)
(-0.298079 -0.267933 0)
(-0.239692 -0.330557 0)
(0.252951 0.11622 0)
(-0.339215 1.03804 0)
(-0.14377 0.60991 0)
(-0.14893 0.10988 0)
(-0.474968 0.0972235 0)
(-0.58405 0.254926 0)
(-0.290051 -0.0933412 0)
(-0.428361 -0.0779346 0)
(-0.843391 -0.145617 0)
(-0.455919 7.83597e-05 0)
(-0.317066 0.240161 0)
(-0.606865 0.0459837 0)
(-0.61244 -0.031991 0)
(-0.649313 0.096997 0)
(-0.392627 0.0106668 0)
(-0.344337 -0.108565 0)
(-0.369795 -0.151002 0)
(-0.233692 -0.265832 0)
(-0.209203 -0.407183 0)
(0.222492 0.113621 0)
(-0.252738 1.10475 0)
(-0.0168004 0.641173 0)
(-0.0753879 0.100127 0)
(0.00873653 0.0512862 0)
(-0.369016 0.134923 0)
(0.165035 -0.310179 0)
(-0.350215 -0.0879969 0)
(-0.412195 0.0255105 0)
(-0.0331213 -0.0954693 0)
(0.113885 0.233696 0)
(-0.154294 0.12314 0)
(0.319949 -0.155331 0)
(-0.304217 -0.156323 0)
(-0.0522201 -0.153265 0)
(0.0435811 -0.195972 0)
(-0.150824 -0.360144 0)
(-0.163583 -0.496317 0)
(-0.218531 -0.506249 0)
(0.151311 0.105231 0)
(-0.163342 1.13521 0)
(0.132856 0.557906 0)
(-0.0218371 0.0836072 0)
(0.254891 0.188176 0)
(-0.220051 0.275272 0)
(0.310308 -0.155339 0)
(0.134139 -0.0620942 0)
(-0.00768588 -0.143676 0)
(0.173998 -0.157431 0)
(0.304748 0.195871 0)
(0.800905 0.154929 0)
(0.742191 -0.0554751 0)
(0.436927 0.204198 0)
(0.537803 -0.0214641 0)
(0.300488 -0.052078 0)
(-0.0452041 -0.391252 0)
(-0.0819417 -0.563252 0)
(-0.17227 -0.544044 0)
(-0.0491899 0.0963987 0)
(-0.0778521 1.08636 0)
(0.191684 0.615147 0)
(-0.192633 0.0736604 0)
(0.337001 0.193056 0)
(0.00567317 0.424226 0)
(0.35006 -0.112076 0)
(0.161419 0.0916352 0)
(0.285267 -0.112799 0)
(0.429155 -0.297327 0)
(0.539402 -0.0415682 0)
(0.986732 0.013584 0)
(0.97141 -0.108292 0)
(0.911922 -0.0539708 0)
(0.824087 0.0147663 0)
(0.604202 -0.0563685 0)
(0.160583 -0.22182 0)
(0.0934939 -0.269865 0)
(-0.0718273 -0.432963 0)
(-0.365268 -0.0038113 0)
(-0.0739703 0.911103 0)
(0.154091 0.558538 0)
(-0.0804725 -0.0494039 0)
(0.377916 -0.0873999 0)
(0.415023 0.283938 0)
(0.697147 -0.0811177 0)
(0.79136 -0.125898 0)
(0.565956 -0.14117 0)
(0.432067 -0.151163 0)
(0.487834 -0.0176195 0)
(0.810974 -0.078054 0)
(0.739949 -0.0360464 0)
(0.6956 0.119725 0)
(0.791399 0.092412 0)
(0.681923 0.0892042 0)
(0.481711 -0.134017 0)
(0.207772 -0.178057 0)
(0.126189 -0.351492 0)
(-0.347342 -0.0933381 0)
(0.172597 -0.356901 0)
(0.453043 -0.41916 0)
(0.089406 -0.302627 0)
(0.154919 0.259164 0)
(-0.467387 0.161941 0)
(0.0801654 -0.0027846 0)
(-0.285335 -0.0556303 0)
(0.121065 0.557628 0)
(0.28577 0.241037 0)
(-0.0616084 -0.166126 0)
(0.093068 0.253712 0)
(0.0913383 0.288787 0)
(-0.0866063 0.152524 0)
(-0.0632339 0.0912794 0)
(-0.132361 0.166908 0)
(-0.126645 0.0692385 0)
(-0.156495 0.116167 0)
(-0.155997 0.00419413 0)
(-0.0246604 -0.183229 0)
(0.104084 -0.168115 0)
(0.145042 0.00293634 0)
(0.0814499 -0.0114203 0)
(0.0222181 -0.0306363 0)
(0.0364876 -0.543979 0)
(0.0336077 -0.355014 0)
(-0.349843 0.0214253 0)
(0.124018 0.523619 0)
(-0.0927649 0.122742 0)
(0.148172 -0.0922755 0)
(-0.204269 -0.166423 0)
(-0.0762876 0.0508939 0)
(-0.156372 -0.0112338 0)
(-0.144575 -0.171192 0)
(0.101993 -0.124837 0)
(0.124638 0.322881 0)
(-0.0287956 0.224855 0)
(0.0287318 0.208437 0)
(0.0468457 0.153132 0)
(0.101994 0.0872992 0)
(-0.039171 0.118328 0)
(-0.0740393 -0.143631 0)
(-0.14109 -0.35176 0)
(-0.117266 -0.23512 0)
(-0.0711997 -0.019536 0)
(0.0513657 0.0209617 0)
(0.0341914 -0.0804615 0)
(-0.170138 -0.556512 0)
(-0.179126 -0.343158 0)
(-0.301881 -0.200953 0)
(-0.00565549 0.287004 0)
(-0.160361 0.104165 0)
(0.0487323 -0.0278579 0)
(-0.238782 0.138983 0)
(-0.105619 0.201317 0)
(0.00718048 0.0383583 0)
(0.261063 -0.302695 0)
(0.0574073 -0.111555 0)
(0.0864073 0.47734 0)
(-0.00773914 0.200121 0)
(0.200745 0.23601 0)
(0.0223128 0.127977 0)
(-0.14796 0.174992 0)
(-0.141228 0.0833285 0)
(0.185294 0.0949561 0)
(0.321721 -0.218889 0)
(0.168552 -0.233875 0)
(0.00804688 -0.0919384 0)
(0.053781 -0.055289 0)
(-0.0219833 0.0974331 0)
(0.0109207 -0.529767 0)
(0.344981 -0.426715 0)
(0.189291 -0.242994 0)
(-0.125925 0.204827 0)
(-0.0257143 0.113754 0)
(-0.285265 0.0754171 0)
(-0.359121 0.117978 0)
(-0.311593 0.0675582 0)
(-0.514829 -0.301527 0)
(-0.6515 -0.194337 0)
(-0.537242 0.177147 0)
(-0.326846 0.392986 0)
(-0.435522 0.0564727 0)
(-0.297222 0.1462 0)
(-0.110731 0.270709 0)
(-0.0703385 0.288215 0)
(0.248851 -0.228522 0)
(0.237747 -0.449266 0)
(0.44083 -0.116623 0)
(0.65035 0.00767752 0)
(0.617056 0.0163363 0)
(0.493706 -0.0327531 0)
(0.321665 -0.0678131 0)
(-0.0863124 -0.562738 0)
(0.0954 -0.332509 0)
(-0.125501 0.184718 0)
(-0.38428 0.352452 0)
(-0.21306 0.288197 0)
(-0.352987 0.20992 0)
(-0.366364 0.148193 0)
(-0.44063 -0.00807618 0)
(-0.350268 -0.14849 0)
(-0.322963 -0.136804 0)
(-0.308843 -0.198149 0)
(-0.453494 0.319364 0)
(-0.389564 -0.120926 0)
(-0.364272 -0.0114109 0)
(-0.0494515 0.205963 0)
(0.122337 0.0653699 0)
(0.328956 -0.244518 0)
(0.33337 -0.436216 0)
(0.378571 -0.228799 0)
(0.404504 -0.188142 0)
(0.429471 -0.0184299 0)
(0.564931 0.151778 0)
(0.550726 0.0347301 0)
(-0.117468 -0.539158 0)
(-0.332902 -0.105273 0)
(-0.382301 0.326201 0)
(-0.469445 0.472327 0)
(-0.299646 0.304128 0)
(-0.278911 0.258076 0)
(-0.354601 0.146199 0)
(-0.361569 -0.190431 0)
(-0.376415 -0.0720143 0)
(-0.310265 -0.014772 0)
(-0.261088 0.165347 0)
(-0.397231 0.508203 0)
(0.123364 -0.148572 0)
(-0.0136759 -0.23461 0)
(0.145135 -0.20849 0)
(0.338187 -0.280907 0)
(0.279075 -0.414673 0)
(0.194831 -0.500616 0)
(0.137328 -0.285547 0)
(0.145206 -0.254742 0)
(0.284103 -0.277446 0)
(0.575687 -0.131909 0)
(0.636216 -0.105069 0)
(-0.0211119 -0.582803 0)
(-0.245532 -0.237332 0)
(-0.443304 0.303144 0)
(-0.536917 0.32929 0)
(-0.352746 0.441428 0)
(-0.11913 0.281197 0)
(-0.211579 0.0185073 0)
(-0.200437 -0.187556 0)
(-0.297074 -0.109831 0)
(-0.272601 0.0689026 0)
(-0.310208 -0.0462994 0)
(-0.269418 0.4316 0)
(0.0237113 -0.530093 0)
(0.065428 -0.28746 0)
(0.176167 -0.0293926 0)
(0.245264 -0.149347 0)
(0.252858 -0.238081 0)
(0.142028 -0.151734 0)
(0.0605845 -0.0989512 0)
(0.084536 -0.200274 0)
(0.157253 -0.379307 0)
(0.245121 -0.155137 0)
(0.164691 0.0491785 0)
(-0.0666805 -0.173133 0)
(-0.328056 0.0859629 0)
(-0.393706 0.189926 0)
(-0.341401 0.199509 0)
(-0.271439 0.477061 0)
(-0.0895012 0.322181 0)
(-0.134428 0.0995932 0)
(-0.12542 -0.259836 0)
(-0.206497 -0.0551817 0)
(-0.129605 0.203028 0)
(-0.229378 0.0670804 0)
(0.151039 -0.292439 0)
(0.123893 -0.737107 0)
(0.149392 -0.548978 0)
(0.10691 -0.383905 0)
(0.278729 -0.133015 0)
(0.341525 -0.200854 0)
(0.190087 -0.197795 0)
(0.070147 -0.203326 0)
(-0.0371494 -0.356082 0)
(-0.196399 -0.401633 0)
(-0.226861 -0.127195 0)
(-0.320496 0.148274 0)
(-0.0145747 -0.0577898 0)
(-0.124257 0.239782 0)
(-0.280978 0.249503 0)
(-0.17987 0.344618 0)
(-0.145722 0.316399 0)
(-0.112088 0.283205 0)
(-0.0339828 0.188805 0)
(-0.10461 -0.156122 0)
(-0.0353441 -0.0437149 0)
(-0.0621454 0.183294 0)
(-0.199189 -0.175902 0)
(0.0969705 -0.421081 0)
(0.172179 -0.616814 0)
(0.150002 -0.583725 0)
(0.14685 -0.447524 0)
(0.245246 -0.147085 0)
(0.217846 -0.16132 0)
(0.204123 -0.123287 0)
(0.0958693 0.0481205 0)
(-0.132023 -0.114279 0)
(-0.282519 -0.198565 0)
(-0.334396 -0.128836 0)
(-0.25609 -0.0112108 0)
(-0.0528387 0.113983 0)
(-0.0275194 0.288152 0)
(-0.0805639 0.275363 0)
(-0.118697 0.299343 0)
(-0.144185 0.169242 0)
(-0.0601609 0.257676 0)
(0.146503 0.166696 0)
(0.0727836 -0.100561 0)
(0.0371649 -0.150675 0)
(0.162616 0.10659 0)
(0.0953362 0.0757539 0)
(0.0949279 -0.345062 0)
(-0.0325154 -0.42726 0)
(0.194073 -0.419529 0)
(0.121329 -0.344175 0)
(0.121648 -0.349181 0)
(0.0556667 -0.201725 0)
(-0.0750699 0.018578 0)
(-0.151581 0.098446 0)
(-0.225643 -0.171177 0)
(-0.247202 -0.321457 0)
(-0.260431 -0.335439 0)
(-0.131817 -0.194539 0)
(0.0103261 0.0325108 0)
(0.00643012 0.27654 0)
(-0.0763818 0.303204 0)
(-0.0257138 0.173048 0)
(0.00667576 0.0189058 0)
(0.040566 0.190353 0)
(0.120725 0.0383257 0)
(0.314778 -0.184945 0)
(0.201169 -0.121482 0)
(0.183435 0.0154026 0)
(0.150527 -0.037447 0)
(0.237233 -0.333208 0)
(0.0953967 -0.283197 0)
(0.141823 -0.337807 0)
(0.0264567 -0.289132 0)
(-0.0392697 -0.0835891 0)
(-0.101492 -0.0533432 0)
(-0.0973788 0.1517 0)
(-0.0633621 0.241859 0)
(-0.0518417 0.125426 0)
(-0.125576 -0.136641 0)
(-0.0855944 -0.240199 0)
(-0.0715058 -0.13133 0)
(-0.0524025 0.0807082 0)
(-0.00338179 0.161606 0)
(0.0508004 0.315945 0)
(0.0571748 0.198352 0)
(0.102596 0.0952249 0)
(0.104486 0.0530993 0)
(0.175489 0.0581913 0)
(0.207312 -0.0296644 0)
(0.114676 -0.0798182 0)
(0.136995 -0.0487705 0)
(0.245827 0.0613216 0)
(0.256788 -0.319794 0)
(0.0889055 -0.276589 0)
(0.122868 -0.315807 0)
(-0.0227977 -0.187126 0)
(-0.190982 -0.0862837 0)
(-0.258332 -0.000772393 0)
(-0.140754 0.0276952 0)
(-0.0555054 0.129768 0)
(-0.0743503 0.0613478 0)
(-0.094352 -0.108661 0)
(-0.134416 -0.236209 0)
(-0.188213 -0.29044 0)
(-0.0169549 0.0813109 0)
(0.0171324 0.16077 0)
(0.0401367 0.175012 0)
(0.0449595 0.136724 0)
(0.142635 0.0792706 0)
(0.11747 -0.0241854 0)
(0.120993 -0.0304285 0)
(0.112821 -0.0944015 0)
(0.127013 -0.0670765 0)
(0.269917 -0.11089 0)
(0.279483 0.019875 0)
(0.205512 -0.33886 0)
(0.125959 -0.190374 0)
(-0.0453371 -0.263023 0)
(-0.219133 -0.136471 0)
(-0.207328 -0.0179327 0)
(-0.192651 -0.0202934 0)
(-0.232094 0.0567486 0)
(-0.202866 0.0824492 0)
(-0.177881 0.0654256 0)
(-0.217588 -0.0584063 0)
(-0.296994 -0.0974708 0)
(-0.541754 -0.203574 0)
(-0.0168954 0.0987891 0)
(-0.00125721 0.116674 0)
(0.0435392 0.085876 0)
(0.072282 0.0763927 0)
(0.0882367 0.0522456 0)
(0.114304 -0.0347246 0)
(0.1998 0.0197333 0)
(0.168459 -0.0544809 0)
(0.0733267 -0.0471541 0)
(0.15615 -0.102825 0)
(0.164102 -0.103857 0)
(0.135108 -0.379263 0)
(0.0789434 -0.152638 0)
(-0.0754771 -0.214866 0)
(-0.0844713 -0.035243 0)
(-0.224351 0.039208 0)
(-0.324815 0.00212862 0)
(-0.241619 0.0811135 0)
(-0.201509 0.0771891 0)
(-0.24337 0.0565506 0)
(-0.265607 -0.0186793 0)
(-0.341973 0.048972 0)
(-0.501793 0.095746 0)
(-0.0599848 0.0904232 0)
(-0.0150922 0.107302 0)
(0.0256324 0.0989829 0)
(0.0229834 0.0506845 0)
(0.0574033 0.0384117 0)
(0.0655154 0.00817352 0)
(0.0489059 -0.0355374 0)
(0.0764526 -0.123569 0)
(0.0754949 -0.157199 0)
(0.151113 -0.0820926 0)
(0.125161 -0.120594 0)
(0.0470678 -0.118489 0)
(-0.024342 -0.0287084 0)
(-0.124418 0.0539969 0)
(-0.153527 -0.00826947 0)
(-0.184459 -0.00762005 0)
(-0.15171 0.0278117 0)
(-0.250371 0.136653 0)
(-0.309887 0.117141 0)
(-0.326688 0.164968 0)
(-0.298118 0.13486 0)
(-0.331088 0.144449 0)
(-0.402156 0.113771 0)
(-0.00438036 0.0760767 0)
(0.0274652 0.0684702 0)
(0.0165858 0.0677827 0)
(0.0450448 0.0481183 0)
(0.0444029 0.03585 0)
(-0.00767351 -0.0205879 0)
(0.0397205 -0.0307632 0)
(0.0297506 -0.0821502 0)
(-0.0313849 -0.154111 0)
(0.0223168 -0.118468 0)
(-0.0399565 -0.101605 0)
(-0.0997651 -0.133302 0)
(-0.06466 -0.0253925 0)
(-0.169442 0.0769075 0)
(-0.213544 0.040935 0)
(-0.265551 0.00303901 0)
(-0.201598 0.0458232 0)
(-0.16669 0.0529467 0)
(-0.195218 0.16395 0)
(-0.229244 0.193855 0)
(-0.232264 0.194266 0)
(-0.31176 0.174454 0)
(-0.365604 0.236217 0)
(-0.0305487 0.150276 0)
(0.0258225 0.0976855 0)
(0.0199088 0.0636725 0)
(0.0267841 0.0656193 0)
(0.0338763 0.0227269 0)
(0.000927345 -0.0102682 0)
(0.0589663 -0.0102736 0)
(-0.00950295 -0.10803 0)
(-0.0598607 -0.135303 0)
(-0.0356969 -0.0881096 0)
(-0.0945687 -0.0253947 0)
(-0.158907 0.0571367 0)
(-0.130641 0.0205418 0)
(-0.197343 0.0142968 0)
(-0.2572 0.0759221 0)
(-0.202813 0.0465141 0)
(-0.17149 0.132276 0)
(-0.170957 0.114195 0)
(-0.178966 0.141911 0)
(-0.251284 0.130339 0)
(-0.229655 0.206044 0)
(-0.152599 0.155584 0)
(-0.179462 0.242489 0)
(0.0240352 0.102994 0)
(0.000203861 0.079874 0)
(0.000553831 0.084989 0)
(0.0280309 0.0665299 0)
(0.00244774 0.0295928 0)
(-0.00290718 -0.00918975 0)
(-0.0224298 -0.0191832 0)
(-0.0274072 -0.100507 0)
(-0.0729749 -0.110445 0)
(-0.0991439 -0.0745784 0)
(-0.109119 -0.00488556 0)
(-0.172342 0.0167667 0)
(-0.20097 0.0162763 0)
(-0.192368 -0.00858326 0)
(-0.242144 0.0507559 0)
(-0.141235 0.0997512 0)
(-0.108411 0.130345 0)
(-0.135858 0.0975238 0)
(-0.144808 0.106795 0)
(-0.168435 0.0965058 0)
(-0.189523 0.228706 0)
(-0.211814 0.191859 0)
(-0.167751 0.270778 0)
(-0.00519736 0.0877739 0)
(0.0356749 0.0743556 0)
(0.0153576 0.0772687 0)
(0.00394811 0.0882824 0)
(-0.00892452 0.0370056 0)
(-0.0229243 0.0296276 0)
(-0.0113798 -0.00161368 0)
(-0.0647483 -0.00972027 0)
(-0.0712046 -0.00527583 0)
(-0.068146 -0.0125663 0)
(-0.103681 0.00628725 0)
(-0.143053 -0.0438044 0)
(-0.133158 0.0313547 0)
(-0.1324 0.0139459 0)
(-0.193892 0.0526201 0)
(-0.141233 0.116395 0)
(-0.131758 0.110752 0)
(-0.177222 0.118738 0)
(-0.109803 0.0666598 0)
(-0.111304 0.0831002 0)
(-0.173268 0.104588 0)
(-0.147656 0.160418 0)
(-0.108418 0.260921 0)
(0.00367215 0.0770791 0)
(0.000455602 0.0933346 0)
(0.014314 0.088284 0)
(0.019296 0.0807372 0)
(-0.00171996 0.0811609 0)
(-0.0166993 0.0279865 0)
(-0.023742 0.00770964 0)
(-0.0378035 -0.0144109 0)
(-0.0508459 0.00959342 0)
(-0.0545007 -0.00627288 0)
(-0.0748036 -0.0218722 0)
(-0.0593016 0.040207 0)
(-0.12386 0.00671742 0)
(-0.17345 0.0377928 0)
(-0.130812 0.075686 0)
(-0.106576 0.102943 0)
(-0.120238 0.0794839 0)
(-0.183392 0.143856 0)
(-0.178661 0.13419 0)
(-0.1506 0.154129 0)
(-0.112287 0.0971405 0)
(-0.0867382 0.137823 0)
(-0.0679623 0.178111 0)
(-0.00476842 0.0714064 0)
(0.0146089 0.0921218 0)
(-0.0209132 0.114098 0)
(0.0219539 0.129423 0)
(0.00947948 0.0872335 0)
(-0.0125589 0.0591582 0)
(-0.00123692 0.0181075 0)
(-0.0418074 0.00399998 0)
(-0.0390857 0.0203665 0)
(-0.0432515 0.0229575 0)
(-0.053885 0.00265971 0)
(-0.114671 0.0090952 0)
(-0.112584 0.00750773 0)
(-0.0746412 0.023723 0)
(-0.127809 0.0897217 0)
(-0.102692 0.0656027 0)
(-0.0877836 0.0616682 0)
(-0.145801 0.0920994 0)
(-0.130351 0.140965 0)
(-0.158006 0.149601 0)
(-0.175538 0.165853 0)
(-0.0446003 0.14919 0)
(-0.0226262 0.093319 0)
(-0.00172435 0.0718811 0)
(0.00658628 0.101545 0)
(0.0162291 0.110598 0)
(0.000968527 0.136434 0)
(-0.0232928 0.0600519 0)
(-0.0164937 0.0599007 0)
(-0.0187967 0.0261064 0)
(-0.018026 0.0194246 0)
(-0.040967 0.0464072 0)
(-0.0444181 0.0479107 0)
(-0.052595 0.0370749 0)
(-0.0683545 0.000143729 0)
(-0.108031 0.0610226 0)
(-0.0649174 0.0416767 0)
(-0.0747945 0.0988074 0)
(-0.118882 0.106652 0)
(-0.0852323 0.0901331 0)
(-0.0956045 0.0716405 0)
(-0.107215 0.149575 0)
(-0.115725 0.111245 0)
(-0.106139 0.183856 0)
(-0.0901577 0.205218 0)
(-0.0790144 0.143636 0)
(-0.00466317 0.0556686 0)
(0.0116282 0.0766447 0)
(-0.0332857 0.0794299 0)
(-0.00836215 0.0798701 0)
(0.000212675 0.0706989 0)
(-0.00959381 0.0366705 0)
(-0.0233517 0.0593085 0)
(-0.012533 0.0255694 0)
(-0.0282986 0.0157839 0)
(-0.037661 0.0278858 0)
(-0.0248599 0.0389668 0)
(-0.0731341 0.0521663 0)
(-0.0771486 0.0477349 0)
(-0.0483147 0.072356 0)
(-0.0606852 0.0581082 0)
(-0.0937206 0.0843763 0)
(-0.0905875 0.115257 0)
(-0.0588541 0.0713343 0)
(-0.0847304 0.132921 0)
(-0.111031 0.118471 0)
(-0.0801802 0.154499 0)
(-0.0625883 0.161021 0)
(-0.0109376 0.169673 0)
(-0.0158807 0.0637166 0)
(-0.0051413 0.0532155 0)
(-0.00939892 0.058199 0)
(-0.000231674 0.0779278 0)
(-0.0062059 0.0694552 0)
(0.0187543 0.061664 0)
(-0.00064396 0.0582191 0)
(-0.0160612 0.0499384 0)
(-0.0202071 0.0447427 0)
(-0.0235238 0.0480057 0)
(-0.0347158 0.0485456 0)
(-0.0511327 0.0506372 0)
(-0.0586534 0.0908632 0)
(-0.033511 0.0824875 0)
(-0.0479681 0.063495 0)
(-0.0427908 0.0508069 0)
(-0.0815075 0.0618291 0)
(-0.0592432 0.062828 0)
(-0.0522872 0.0713385 0)
(-0.0857072 0.114828 0)
(-0.0461506 0.128102 0)
(-0.0558364 0.144455 0)
(-0.042434 0.153899 0)
(-0.00328796 0.0963444 0)
(-0.00487333 0.057184 0)
(-0.00598176 0.0709815 0)
(-0.00611438 0.0759519 0)
(0.000801382 0.063234 0)
(-0.000871907 0.0699868 0)
(0.00415931 0.0619909 0)
(-0.0018619 0.0479925 0)
(-0.0101723 0.0479008 0)
(-0.00824738 0.0562224 0)
(-0.0232888 0.0537367 0)
(-0.0301793 0.0670577 0)
(-0.0323137 0.0682772 0)
(-0.036599 0.0688236 0)
(-0.033149 0.0688612 0)
(-0.0740323 0.0363116 0)
(-0.0649609 0.0730004 0)
(-0.0469032 0.0972003 0)
(-0.0409193 0.085908 0)
(-0.0427101 0.10518 0)
(-0.0420168 0.134372 0)
(-0.0385986 0.144776 0)
(-0.0010441 0.173225 0)
(-0.0100963 0.0714518 0)
(-0.0188259 0.0559412 0)
(-0.00979715 0.0608683 0)
(0.00186085 0.0702047 0)
(0.00585262 0.0642264 0)
(-0.000531404 0.0556687 0)
(-0.0133339 0.0569735 0)
(-0.0116575 0.0776236 0)
(-0.0139652 0.0608708 0)
(-0.0180712 0.0649526 0)
(-0.0117604 0.0717924 0)
(-0.0151253 0.0799761 0)
(-0.0308267 0.0687905 0)
(7.96938e-05 0.0507977 0)
(-0.0619028 0.0580138 0)
(-0.0395379 0.0752785 0)
(-0.0137591 0.0917446 0)
(-0.025081 0.0864033 0)
(-0.0459188 0.0808002 0)
(-0.0274526 0.0657186 0)
(-0.00665857 0.112835 0)
(-0.0305267 0.120065 0)
(-0.0287865 0.145909 0)
(-0.00354849 0.0564767 0)
(-0.000472596 0.0474845 0)
(-0.00349354 0.0614513 0)
(0.00113648 0.0660009 0)
(-0.0008625 0.0616979 0)
(0.00376792 0.0427039 0)
(0.010607 0.0556986 0)
(-0.00394049 0.0688954 0)
(-0.0184344 0.0540954 0)
(-0.00661146 0.0608948 0)
(-0.00717227 0.0558376 0)
(-0.0124499 0.0585959 0)
(-0.0178339 0.0671152 0)
(-0.0354091 0.0801362 0)
(-0.0222032 0.0539207 0)
(-0.0261783 0.0921301 0)
(-0.0353129 0.0661618 0)
(-0.0262885 0.0727805 0)
(-0.0390921 0.0473458 0)
(-0.00630448 0.0862655 0)
(0.00285006 0.0641865 0)
(-0.0204625 0.0883991 0)
(-0.039736 0.104921 0)
(-0.00322601 0.0657612 0)
(-0.00123363 0.0508274 0)
(-0.0038257 0.0579952 0)
(0.00189004 0.0678025 0)
(-0.0065991 0.059616 0)
(0.000104227 0.0466445 0)
(-0.00203657 0.0568511 0)
(-0.00289427 0.0552437 0)
(-0.00808704 0.0563102 0)
(-0.0107983 0.0501965 0)
(-0.00138651 0.0595246 0)
(0.00223996 0.0609141 0)
(-0.00625797 0.0639854 0)
(-0.0228348 0.0671245 0)
(-0.0302394 0.0946436 0)
(-0.00633285 0.0367898 0)
(-0.021581 0.0925351 0)
(-0.0273015 0.0671965 0)
(-0.0284155 0.104734 0)
(-0.0333199 0.118052 0)
(-0.0299689 0.095448 0)
(-0.0125898 0.110632 0)
(-0.0143675 0.0678914 0)
(-0.00277579 0.0648402 0)
(0.00348585 0.0500477 0)
(-0.0014048 0.0583586 0)
(0.00459638 0.0689159 0)
(-0.00682019 0.0607258 0)
(0.00082408 0.0434765 0)
(-0.00121021 0.0526205 0)
(0.00105852 0.0691855 0)
(-0.00472212 0.0587939 0)
(0.00344274 0.0555505 0)
(0.00255151 0.0561735 0)
(-0.00323269 0.069532 0)
(-0.0070399 0.0699929 0)
(0.0054714 0.0653545 0)
(-0.0109764 0.093329 0)
(-0.0199958 0.0512298 0)
(-0.0280452 0.0934167 0)
(-0.022408 0.0640332 0)
(0.00179876 0.0997483 0)
(-0.0291259 0.0885961 0)
(-0.0245415 0.0875204 0)
(-0.0283141 0.147503 0)
(-0.026581 0.109561 0)
(-0.00217192 0.0640457 0)
(0.00250842 0.0490931 0)
(-0.00249676 0.0568388 0)
(0.0020786 0.0740805 0)
(-0.0106304 0.0621222 0)
(-0.00616658 0.0404769 0)
(-0.00195766 0.0559587 0)
(0.00338641 0.0644361 0)
(-0.00219235 0.0502163 0)
(-0.0139119 0.0468358 0)
(0.00142617 0.0520462 0)
(0.00601911 0.0660669 0)
(-0.00700862 0.0664518 0)
(-0.00768764 0.0616844 0)
(-0.0269683 0.067822 0)
(-0.0140758 0.0669877 0)
(-0.0106316 0.0739615 0)
(-0.0033783 0.0877043 0)
(-0.00425732 0.0834009 0)
(-0.041599 0.0746863 0)
(0.00607686 0.107166 0)
(0.00992501 0.0991946 0)
(-0.0185755 0.148971 0)
(-0.00209085 0.0645413 0)
(0.00413158 0.0503249 0)
(0.00162105 0.0581357 0)
(0.00783659 0.0786082 0)
(-0.00544337 0.06623 0)
(0.00200569 0.0408861 0)
(-0.0071166 0.0557155 0)
(0.00103371 0.0693491 0)
(-0.00420428 0.0735009 0)
(-0.00513904 0.0666585 0)
(-0.00444284 0.080637 0)
(-0.00747135 0.0772033 0)
(-0.00379983 0.0746461 0)
(-0.0050441 0.0724021 0)
(-0.00168276 0.0812527 0)
(-0.000479178 0.10959 0)
(0.000681011 0.091718 0)
(-0.00732731 0.103639 0)
(-0.0298545 0.0612862 0)
(-0.0252047 0.0710663 0)
(-0.0271013 0.105199 0)
(0.00129875 0.0766262 0)
(-0.00866969 0.0923847 0)
(-0.00166007 0.062416 0)
(0.00244196 0.048755 0)
(-0.000130438 0.0547728 0)
(0.00380141 0.0780858 0)
(0.00303246 0.0653861 0)
(-0.0109705 0.039891 0)
(-0.00542741 0.0474196 0)
(0.0123735 0.0646093 0)
(0.0175274 0.0588011 0)
(0.000309749 0.0518676 0)
(-0.000506128 0.0430863 0)
(-0.0129326 0.0670679 0)
(-0.00134606 0.066913 0)
(-0.00635342 0.0642157 0)
(0.001914 0.0720493 0)
(-0.00472336 0.094765 0)
(-0.00289716 0.0658589 0)
(-0.00625193 0.0793121 0)
(-0.0327033 0.0536919 0)
(-0.00655087 0.0954874 0)
(0.00384838 0.0959406 0)
(-0.0091808 0.0792916 0)
(0.0011865 0.0711509 0)
(-0.0010174 0.0635419 0)
(0.00215582 0.0496764 0)
(0.00177937 0.0553583 0)
(0.00783413 0.079672 0)
(0.00794397 0.0722003 0)
(0.00632783 0.05982 0)
(-0.0116095 0.0745176 0)
(0.00658652 0.0625354 0)
(0.00864954 0.0887319 0)
(-0.00211898 0.0827098 0)
(-0.000551925 0.0495642 0)
(-0.0121357 0.0675781 0)
(0.00424186 0.0713296 0)
(-0.00340766 0.066816 0)
(0.0184799 0.0816845 0)
(-0.0154249 0.0878458 0)
(-0.0120871 0.115319 0)
(0.0123589 0.0933408 0)
(-0.00268217 0.0960391 0)
(0.0157599 0.0999102 0)
(-0.0303404 0.115557 0)
(-0.0203357 0.0746344 0)
(0.0219355 0.0673957 0)
(-0.0011315 0.0612818 0)
(0.000239981 0.0468274 0)
(-0.00157046 0.0526548 0)
(0.00113396 0.0752288 0)
(0.00209579 0.0594998 0)
(0.00515524 0.0590382 0)
(0.015092 0.045545 0)
(0.00819535 0.0496638 0)
(0.0240785 0.065882 0)
(-0.0207346 0.0602879 0)
(-0.00629593 0.0566642 0)
(0.0014801 0.0521621 0)
(0.00592417 0.0641344 0)
(0.00235195 0.0595022 0)
(0.0127543 0.0724145 0)
(0.0273576 0.0626339 0)
(0.000639796 0.108803 0)
(-0.00502491 0.0904636 0)
(-0.00542325 0.135733 0)
(0.0114584 0.0701893 0)
(0.00383501 0.0783452 0)
(-0.0303195 0.0717821 0)
(-0.0146103 0.0606098 0)
(-0.00171835 0.064372 0)
(1.95641e-05 0.0491808 0)
(-0.00151144 0.0553784 0)
(-0.00399372 0.0778055 0)
(0.000580263 0.0670559 0)
(0.00437393 0.0574836 0)
(0.00839596 0.0589197 0)
(-0.0038577 0.0463319 0)
(-0.00103097 0.0552758 0)
(-0.00228989 0.0565666 0)
(-0.0145804 0.0609624 0)
(-0.0145049 0.0690302 0)
(0.011775 0.0666329 0)
(0.000148516 0.0628506 0)
(0.00562697 0.0702551 0)
(0.00899363 0.0694453 0)
(0.00557883 0.0695288 0)
(0.0319609 0.0841744 0)
(-0.00413394 0.0926908 0)
(-0.0264095 0.066408 0)
(0.00712038 0.0838921 0)
(0.00801315 0.0635503 0)
(0.0190595 0.105243 0)
(-0.00250048 0.0621779 0)
(-0.000257989 0.0471675 0)
(-0.00698204 0.0533515 0)
(-0.00116005 0.0759711 0)
(-0.0034716 0.0491565 0)
(-0.00118827 0.0547686 0)
(-0.0108215 0.0544568 0)
(0.00351254 0.0607923 0)
(0.00724511 0.058896 0)
(0.00355577 0.0535659 0)
(-0.00301945 0.0461559 0)
(-0.00334813 0.0787482 0)
(0.00344967 0.0616922 0)
(0.0023471 0.0601284 0)
(0.00117335 0.0629786 0)
(0.0118316 0.0707099 0)
(0.00131484 0.0806239 0)
(0.00923725 0.0855126 0)
(-0.00886784 0.0724931 0)
(0.0118049 0.0904155 0)
(0.0153613 0.130555 0)
(0.0323567 0.0761287 0)
(-0.0216252 0.0744267 0)
(-0.00300143 0.0678105 0)
(0.000913133 0.0512347 0)
(-0.00487336 0.0570961 0)
(-0.0090072 0.080172 0)
(0.00265781 0.0708502 0)
(0.00906644 0.0631785 0)
(-0.00637687 0.0671671 0)
(-0.00416716 0.0879286 0)
(-0.0210123 0.0668361 0)
(0.00548995 0.0678253 0)
(0.0109412 0.0594279 0)
(0.00695323 0.06029 0)
(0.00611129 0.0571022 0)
(0.00304651 0.0642325 0)
(-0.00237065 0.0622076 0)
(0.00409445 0.0708348 0)
(0.00135287 0.0755174 0)
(0.0131228 0.0884469 0)
(0.0174556 0.0846151 0)
(0.0257574 0.137782 0)
(0.00367913 0.0923199 0)
(-0.00555004 0.0793555 0)
(-0.030257 0.0549216 0)
(-0.00601866 0.0631298 0)
(-0.000577928 0.0422955 0)
(-0.0093717 0.0566639 0)
(0.00359742 0.0765126 0)
(0.00306223 0.0982285 0)
(0.00237287 0.0660119 0)
(-0.00548925 0.0663713 0)
(0.00344417 0.079968 0)
(-0.00580099 0.0646879 0)
(0.00823345 0.0781801 0)
(-0.00593944 0.062585 0)
(-0.0177559 0.071032 0)
(-0.00728086 0.0765448 0)
(0.0105091 0.0667622 0)
(-0.0104572 0.0621535 0)
(0.000969283 0.0699084 0)
(-0.00247835 0.0719808 0)
(0.000718412 0.0810488 0)
(0.0231745 0.0698913 0)
(-0.0013744 0.0873326 0)