/*--------------------------------*- C++ -*----------------------------------*\
| =========                 |                                                 |
| \\      /  F ield         | foam-extend: Open Source CFD                    |
|  \\    /   O peration     | Version:     4.1                                |
|   \\  /    A nd           | Web:         http://www.foam-extend.org         |
|    \\/     M anipulation  |                                                 |
\*---------------------------------------------------------------------------*/
FoamFile
{
    version     2.0;
    format      ascii;
    class       regIOobject;
    location    "1/uniform";
    object      profilingInfo;
}
// * * * * * * * * * * * * * * * * * * * * * * * * * * * * * * * * * * * * * //

profilingInfo
(

    {
        id              12;
        parentId        10;
        description     "Foam::Time::writeObject - outputTime";
        calls           20;
        totalTime       0.308089;
        childTime       0;
        onStack         1;
    }

    {
        id              10;
        parentId        1;
        description     "Foam::Time::writeObject";
        calls           1102;
        totalTime       0.309171;
        childTime       0.308089;
        onStack         1;
    }

    {
        id              1;
        description     "application::main";
        calls           1;
        totalTime       11.1207;
        childTime       5.35188;
        onStack         1;
    }

    {
        id              11;
        parentId        1;
        description     "FO::DataSummary::execute";
        calls           1101;
        totalTime       0.060426;
        childTime       0;
        onStack         0;
    }

    {
        id              4;
        parentId        1;
        description     "functionObjectList::read";
        calls           1;
        totalTime       0.00813;
        childTime       0;
        onStack         0;
    }

    {
        id              5;
        parentId        1;
        description     "fvMatrix::solve_C";
        calls           4408;
        totalTime       0.583334;
        childTime       0.441994;
        onStack         0;
    }

    {
        id              2;
        parentId        1;
        description     "fvMatrix::solve_pcorr";
        calls           1;
        totalTime       0.000121;
        childTime       6.5e-05;
        onStack         0;
    }

    {
        id              7;
        parentId        1;
        description     "fvMatrix::solve_pd";
        calls           4408;
        totalTime       4.3907;
        childTime       4.23134;
        onStack         0;
    }

    {
        id              6;
        parentId        5;
        description     "lduMatrix::solver_C";
        calls           4408;
        totalTime       0.441994;
        childTime       0;
        onStack         0;
    }

    {
        id              9;
        parentId        8;
        description     "lduMatrix::solver_coarsestLevelCorr";
        calls           19317;
        totalTime       0.133482;
        childTime       0;
        onStack         0;
    }

    {
        id              3;
        parentId        2;
        description     "lduMatrix::solver_pcorr";
        calls           1;
        totalTime       6.5e-05;
        childTime       0;
        onStack         0;
    }

    {
        id              8;
        parentId        7;
        description     "lduMatrix::solver_pd";
        calls           4408;
        totalTime       4.23134;
        childTime       0.133482;
        onStack         0;
    }
);


// ************************************************************************* //
