/*--------------------------------*- C++ -*----------------------------------*\
| =========                 |                                                 |
| \\      /  F ield         | foam-extend: Open Source CFD                    |
|  \\    /   O peration     | Version:     4.1                                |
|   \\  /    A nd           | Web:         http://www.foam-extend.org         |
|    \\/     M anipulation  |                                                 |
\*---------------------------------------------------------------------------*/
FoamFile
{
    version     2.0;
    format      ascii;
    class       volScalarField;
    location    "0.7";
    object      alpha1;
}
// * * * * * * * * * * * * * * * * * * * * * * * * * * * * * * * * * * * * * //

dimensions      [0 0 0 0 0 0 0];

internalField   nonuniform List<scalar> 
2268
(
0.655419
0.301989
0.667266
0.871573
0.977678
0.996938
0.816502
0.971372
0.997963
0.998604
0.999476
0.999782
0.999826
0.99985
0.999902
0.999959
0.999981
0.999976
0.999757
0.998703
0.99612
0.983424
0.583504
0.669958
0.280991
0.671099
0.913985
0.976103
0.894609
0.423389
0.895151
0.988329
0.977378
0.993409
0.99872
0.999536
0.99972
0.999843
0.999887
0.999936
0.999972
0.999965
0.999927
0.999884
0.997802
0.981022
0.583466
0.294692
0.383976
0.76646
0.941418
0.759181
0.41007
0.757852
0.968325
0.830438
0.970812
0.996254
0.999031
0.999468
0.999697
0.999798
0.999876
0.999951
0.999978
0.999962
0.999651
0.997617
0.991674
0.638846
0.380875
0.319028
0.554147
0.770844
0.798191
0.543092
0.748774
0.913573
0.360889
0.905545
0.995432
0.998172
0.998697
0.998869
0.999148
0.999244
0.999541
0.999794
0.999862
0.999695
0.997495
0.992137
0.690172
0.486053
0.303396
0.364901
0.439438
0.759115
0.571181
0.754826
0.792608
0.280625
0.811091
0.986254
0.995278
0.996063
0.996087
0.996034
0.997745
0.99876
0.998578
0.999418
0.999053
0.994719
0.99197
0.703212
0.513871
0.302212
0.301458
0.333212
0.632149
0.506287
0.728191
0.748441
0.322443
0.710375
0.944691
0.989164
0.989515
0.989027
0.990718
0.995677
0.995684
0.989256
0.994455
0.994093
0.981642
0.987633
0.642721
0.382896
0.225821
0.258026
0.324275
0.638489
0.359773
0.633975
0.466292
0.306515
0.70286
0.945072
0.980243
0.974642
0.972802
0.976938
0.988173
0.975223
0.936926
0.957307
0.977688
0.940474
0.963878
0.349431
0.251775
0.19608
0.239522
0.313764
0.567708
0.271913
0.428723
0.240374
0.325724
0.800428
0.95576
0.967408
0.962868
0.967087
0.974901
0.979124
0.907862
0.781735
0.83215
0.915499
0.879166
0.902921
0.550299
0.577198
0.601884
0.62368
0.642241
0.654013
0.659224
0.662244
0.65501
0.65142
0.646767
0.658013
0.667261
0.669244
0.669405
0.658195
0.617962
0.589251
0.468746
0.542217
0.518162
0.484711
0.473682
0.568076
0.628415
0.672904
0.686502
0.68898
0.681718
0.677208
0.675949
0.694244
0.66225
0.64785
0.649775
0.571628
0.51146
0.429028
0.535397
0.489772
0.401577
0.368476
0.480488
0.547992
0.638524
0.641496
0.675879
0.674591
0.667892
0.671773
0.641852
0.572649
0.543246
0.603935
0.56395
0.479949
0.378494
0.525253
0.415263
0.284138
0.265883
0.302687
0.28443
0.424627
0.343103
0.622729
0.608118
0.577362
0.561899
0.511635
0.43844
0.399698
0.532181
0.56429
0.475674
0.343994
0.519149
0.412997
0.355389
0.375171
0.197363
0.139732
0.172544
0.179836
0.47838
0.431287
0.365393
0.258212
0.261338
0.218873
0.296857
0.465205
0.541701
0.500362
0.339663
0.513547
0.370218
0.236076
0.326054
0.255776
0.220847
0.131528
0.0759117
0.172611
0.180832
0.217296
0.150275
0.142759
0.159961
0.229314
0.37705
0.543987
0.582597
0.504919
0.507887
0.376302
0.134711
0.202607
0.391471
0.227559
0.11062
0.121276
0.157057
0.135464
0.129072
0.124203
0.12774
0.148829
0.20745
0.321784
0.502794
0.614945
0.636135
0.481024
0.231297
0.117826
0.12298
0.315815
0.172591
0.124564
0.163112
0.204725
0.180841
0.169664
0.180407
0.16703
0.168565
0.209117
0.302453
0.414523
0.610061
0.668822
0.235515
0.176818
0.196786
0.26357
0.25297
0.338402
0.306122
0.494772
0.317445
0.400886
0.770193
0.900978
0.933748
0.939754
0.93965
0.921182
0.909194
0.748078
0.571169
0.643447
0.809216
0.79967
0.836458
0.196711
0.134491
0.255579
0.324531
0.218127
0.114114
0.217657
0.403149
0.215363
0.187958
0.359164
0.682267
0.882504
0.840833
0.863597
0.759848
0.735161
0.586252
0.344705
0.466202
0.645766
0.680609
0.770813
0.165748
0.149332
0.20915
0.438616
0.206719
0.0594531
0.104052
0.254518
0.0614636
0.26521
0.30932
0.725101
0.668148
0.754436
0.720933
0.440849
0.264908
0.286806
0.107872
0.182322
0.512894
0.57655
0.632646
0.0993161
0.179841
0.0897929
0.232826
0.0645923
0.0403825
0.0658894
0.122806
0.320381
0.581709
0.511712
0.577644
0.317043
0.566488
0.382008
0.198103
0.0812465
0.0893306
0.0474691
0.0618964
0.188632
0.255692
0.416138
0.0231957
0.0305199
0.03293
0.0511719
0.0253801
0.0254338
0.0251364
0.0252304
0.0902414
0.273969
0.200916
0.562369
0.204336
0.292885
0.1481
0.067536
0.0339678
0.02594
0.0228251
0.0268576
0.0483432
0.0754662
0.156142
0.0122604
0.0162342
0.0193679
0.0187072
0.0150179
0.0144038
0.00898124
0.00481579
0.0168968
0.0576573
0.0446822
0.273622
0.0555612
0.11422
0.0464467
0.0250977
0.0167664
0.0105762
0.00948175
0.0131205
0.0208327
0.0392077
0.0698154
0.00800054
0.0123372
0.0152379
0.0149982
0.0128784
0.00983373
0.00571548
0.00348187
0.00458923
0.011444
0.0196325
0.0488107
0.00956974
0.0356413
0.00648104
0.0080871
0.00810355
0.0073341
0.0044254
0.00705353
0.0170339
0.0445151
0.0926908
0.0069595
0.0116366
0.0128826
0.0134721
0.0130567
0.00958623
0.00607681
0.00232076
0.00160604
0.00203669
0.000749185
0.000883922
0.00198349
0.00569493
0.00249626
0.00485759
0.00508722
0.00524041
0.00404782
0.00791256
0.0161299
0.0277782
0.0498452
0.00305577
0.00605222
0.00791142
0.0112309
0.0122671
0.0114395
0.00699585
0.0030244
0.000983766
0.000634611
0.00032323
0.000346307
0.000691689
0.000980255
0.00146868
0.00279212
0.00313082
0.00421937
0.00280698
0.00532346
0.00626997
0.00868833
0.0143171
0.00110984
0.00237909
0.00434775
0.00798899
0.00873755
0.0112551
0.00772664
0.00402184
0.00111466
0.000511365
0.000242443
0.000190661
0.000322884
0.000432707
0.00108234
0.00181325
0.00158864
0.0025398
0.00278324
0.0033174
0.0020832
0.00180653
0.00184673
0.000444014
0.00101256
0.00255471
0.00437762
0.00268655
0.00443377
0.00345454
0.0020061
0.0010551
0.000437414
0.000164612
0.000131198
0.000172402
0.000261157
0.000829379
0.000849136
0.000734752
0.0014424
0.00205903
0.000711769
0.000720933
0.000764468
0.00052621
0.000179206
0.000458164
0.000621738
0.00153646
0.000675143
0.00064867
0.000752631
0.000515033
0.000291785
0.000198971
7.67467e-05
0.000104855
0.000134576
0.000216142
0.000387369
0.000330021
0.000413091
0.00051352
0.000558733
0.000816987
0.00250223
0.00362533
0.00372393
8.00926e-05
0.000182332
0.00016933
0.000430885
0.000143337
6.49141e-05
7.3123e-05
3.49217e-05
2.48603e-05
2.39113e-05
1.99895e-05
7.16721e-05
0.000101551
0.000193426
0.000257173
0.000159609
0.000182954
0.000343676
0.00125507
0.00453718
0.00907602
0.0123822
0.0154362
3.46974e-05
5.38464e-05
4.44646e-05
7.60389e-05
3.02623e-05
2.77892e-06
2.24957e-06
5.31671e-07
6.25873e-07
2.27062e-06
6.38823e-06
0.000154098
8.66888e-05
0.000107703
0.000124397
9.04871e-05
7.38717e-05
0.000152249
0.000705882
0.00274925
0.00627526
0.00990149
0.0126854
1.13686e-05
1.25879e-05
9.21011e-06
8.19543e-06
2.29293e-06
8.2185e-08
6.85315e-09
1.75771e-08
2.4028e-07
2.25295e-06
8.11928e-06
5.72665e-05
3.62224e-05
5.51254e-05
4.41225e-05
3.61051e-05
3.47661e-05
4.28307e-05
0.000110705
0.000702015
0.00218684
0.00505785
0.00660956
4.00432e-06
2.49905e-06
1.70745e-06
8.63615e-07
1.19591e-07
2.75926e-09
4.49715e-09
9.07705e-08
1.34108e-06
8.96489e-06
2.11528e-05
3.59306e-05
1.45557e-05
2.42363e-05
9.27838e-06
1.06105e-05
1.36277e-05
1.29171e-05
1.64204e-05
0.000139967
0.000491541
0.000811676
0.00128168
9.73632e-07
4.20167e-07
2.85565e-07
9.97084e-08
7.22145e-09
1.79024e-10
1.18272e-09
3.96923e-08
3.94316e-07
2.39679e-06
5.29149e-06
5.11011e-06
3.64684e-06
6.16673e-06
1.49599e-06
2.2264e-06
3.77159e-06
4.00718e-06
2.73445e-06
2.1786e-05
9.36174e-05
0.000102647
0.000227856
1.98255e-07
5.90314e-08
4.87171e-08
1.3417e-08
4.75043e-10
5.31012e-10
1.11006e-08
1.2823e-07
5.43619e-07
8.47033e-07
9.66686e-07
7.69668e-07
5.92483e-07
6.6791e-07
2.24505e-07
4.16685e-07
5.92699e-07
9.05862e-07
5.45729e-07
2.21213e-06
1.23239e-05
1.51427e-05
3.68496e-05
2.53664e-08
9.12707e-09
7.14815e-09
1.90687e-09
3.68894e-11
7.36808e-11
1.17287e-09
6.96234e-09
4.0002e-08
9.56311e-08
1.49887e-07
5.29508e-08
6.83343e-08
5.75644e-08
3.00247e-08
6.80875e-08
7.34903e-08
1.47922e-07
8.86027e-08
1.78953e-07
1.21901e-06
1.47033e-06
5.43448e-06
2.26545e-09
8.73718e-10
1.61477e-09
4.62241e-10
4.10089e-12
4.42019e-12
4.28403e-11
2.06277e-10
2.03409e-09
6.26789e-09
9.39621e-09
3.30282e-09
5.92028e-09
3.80625e-09
4.24815e-09
9.65596e-09
8.77227e-09
1.81176e-08
1.06352e-08
1.24425e-08
9.00789e-08
1.11767e-07
6.80317e-07
1.57516e-10
7.56842e-11
2.44684e-10
9.71839e-11
3.16625e-12
2.91323e-13
1.53111e-12
6.30335e-12
7.2124e-11
2.69196e-10
5.03163e-10
2.18231e-10
2.54131e-10
2.71827e-10
6.86565e-10
1.17557e-09
7.8401e-10
1.9395e-09
7.52432e-10
9.61424e-10
5.26563e-09
7.58441e-09
4.84892e-08
8.78309e-12
5.66486e-12
2.95547e-11
1.2864e-11
4.90108e-13
2.92544e-14
6.98885e-14
2.90823e-13
2.67675e-12
7.62607e-12
2.37159e-11
1.04567e-11
1.48397e-11
2.61168e-11
8.95037e-11
8.9622e-11
6.3244e-11
1.6829e-10
4.75873e-11
7.91597e-11
2.0894e-10
3.43201e-10
3.17879e-09
4.13003e-13
3.98015e-13
2.59709e-12
1.92113e-12
5.37348e-14
1.38223e-14
1.5099e-14
3.15303e-14
8.65974e-14
2.10887e-13
1.05088e-12
4.75953e-13
8.66196e-13
2.34279e-12
1.02923e-11
6.48454e-12
3.74212e-12
1.23275e-11
3.00193e-12
6.66667e-12
9.42613e-12
1.56609e-11
1.13546e-10
2.32592e-14
2.03171e-14
2.4597e-13
2.17382e-13
1.76525e-14
1.5099e-14
1.13243e-14
1.28231e-14
1.69864e-14
1.93179e-14
5.88418e-14
2.90323e-14
6.60583e-14
1.56375e-13
9.91429e-13
5.04707e-13
2.09277e-13
7.06601e-13
2.1072e-13
5.3807e-13
4.18943e-13
6.98719e-13
3.58463e-12
1.17684e-14
0
2.86993e-14
2.90878e-14
1.45439e-14
1.63203e-14
9.27036e-15
8.88178e-15
1.05471e-14
1.34337e-14
1.44884e-14
1.50435e-14
1.39333e-14
1.46549e-14
8.34333e-14
4.06897e-14
2.28151e-14
4.25771e-14
2.00395e-14
4.4631e-14
2.41474e-14
3.78031e-14
1.52156e-13
7.71605e-15
0
1.13243e-14
1.33782e-14
1.4877e-14
1.40443e-14
1.03251e-14
9.99201e-15
9.9365e-15
1.12133e-14
1.2268e-14
1.42664e-14
1.32672e-14
1.29341e-14
1.65423e-14
1.23235e-14
9.54792e-15
8.82627e-15
6.82787e-15
6.99441e-15
7.38298e-15
6.27276e-15
1.37113e-14
1.15463e-14
0
1.31006e-14
1.40443e-14
1.21014e-14
1.63203e-14
1.22125e-14
1.08247e-14
1.16018e-14
1.33227e-14
1.26565e-14
1.44329e-14
1.19904e-14
9.76996e-15
9.99201e-15
1.11577e-14
8.88178e-15
6.10623e-15
5.71765e-15
5.38458e-15
7.04992e-15
5.05151e-15
1.18239e-14
1.12688e-14
0
1.45439e-14
1.37668e-14
1.2601e-14
1.47105e-14
1.27676e-14
1.29341e-14
1.29341e-14
1.42664e-14
1.14908e-14
1.4766e-14
1.29341e-14
1.27676e-14
1.25455e-14
1.27121e-14
1.15463e-14
7.93809e-15
8.16014e-15
5.21805e-15
5.60663e-15
4.66294e-15
1.2268e-14
1.2268e-14
0
1.62093e-14
1.14908e-14
1.18239e-14
1.16018e-14
1.18794e-14
1.11577e-14
1.01585e-14
1.32117e-14
1.18239e-14
1.29896e-14
1.47105e-14
1.36557e-14
1.25455e-14
1.33227e-14
1.24345e-14
8.21565e-15
7.71605e-15
3.71925e-15
3.44169e-15
0
1.04916e-14
1.06026e-14
0
1.47105e-14
1.12133e-14
1.17129e-14
1.14908e-14
1.24345e-14
1.31561e-14
1.02141e-14
1.4988e-14
1.31006e-14
1.40998e-14
1.47105e-14
1.33227e-14
1.33227e-14
1.39888e-14
1.44329e-14
1.18239e-14
7.10543e-15
3.71925e-15
3.55271e-15
2.27596e-15
1.21014e-14
7.43849e-15
0
1.31006e-14
1.03806e-14
1.02696e-14
8.71525e-15
1.45994e-14
1.41553e-14
1.03806e-14
1.37113e-14
1.38778e-14
1.21569e-14
1.4988e-14
1.07692e-14
1.5099e-14
1.29896e-14
1.52656e-14
1.19904e-14
6.43929e-15
3.05311e-15
5.21805e-15
2.66454e-15
1.11577e-14
7.38298e-15
0
1.08247e-14
1.34337e-14
1.12133e-14
1.18794e-14
1.44884e-14
1.37113e-14
1.07692e-14
1.49325e-14
1.40443e-14
1.33227e-14
1.51545e-14
1.17684e-14
1.4877e-14
1.29896e-14
1.4988e-14
1.00475e-14
8.49321e-15
4.10783e-15
5.32907e-15
3.38618e-15
1.36557e-14
5.93969e-15
0
8.60423e-15
1.23235e-14
1.0103e-14
8.71525e-15
1.31006e-14
1.20459e-14
9.71445e-15
1.61537e-14
1.39888e-14
1.27121e-14
1.40443e-14
1.03251e-14
1.27121e-14
1.25455e-14
1.38778e-14
1.14353e-14
1.28231e-14
6.88338e-15
3.44169e-15
2.16493e-15
1.67644e-14
5.21805e-15
0
8.77076e-15
9.54792e-15
7.43849e-15
9.49241e-15
1.16018e-14
9.88098e-15
1.01585e-14
1.19904e-14
1.28786e-14
1.14908e-14
1.21569e-14
5.93969e-15
7.27196e-15
1.33782e-14
1.21569e-14
1.28786e-14
1.03251e-14
7.66054e-15
3.33067e-15
2.22045e-15
1.79301e-14
6.82787e-15
0
7.10543e-15
8.38218e-15
8.04912e-15
1.38778e-14
1.18239e-14
9.76996e-15
9.15934e-15
8.49321e-15
1.01585e-14
1.12688e-14
8.54872e-15
2.60902e-15
5.21805e-15
1.2268e-14
7.54952e-15
1.2268e-14
9.54792e-15
8.10463e-15
4.27436e-15
7.21645e-16
1.07137e-14
5.27356e-15
0
8.9373e-15
7.60503e-15
1.00475e-14
1.29341e-14
7.16094e-15
6.66134e-15
1.00475e-14
8.60423e-15
9.15934e-15
1.16018e-14
7.93809e-15
4.32987e-15
7.04992e-15
1.08802e-14
6.82787e-15
1.22125e-14
1.0103e-14
1.05471e-14
6.38378e-15
1.66533e-15
1.29896e-14
2.44249e-15
0
1.20459e-14
8.49321e-15
8.10463e-15
9.38138e-15
6.77236e-15
5.38458e-15
5.82867e-15
6.77236e-15
1.0103e-14
8.99281e-15
7.27196e-15
7.66054e-15
5.77316e-15
7.38298e-15
6.77236e-15
7.43849e-15
7.66054e-15
9.82547e-15
6.38378e-15
1.05471e-15
1.57652e-14
3.16414e-15
0
1.67644e-14
1.00475e-14
8.54872e-15
1.07137e-14
6.88338e-15
6.32827e-15
5.10703e-15
8.10463e-15
7.99361e-15
5.77316e-15
6.05072e-15
1.13798e-14
6.66134e-15
9.27036e-15
5.4956e-15
7.27196e-15
7.32747e-15
7.43849e-15
7.04992e-15
4.996e-16
1.44329e-14
4.32987e-15
3.94129e-15
1.88738e-14
1.11022e-14
1.11577e-14
1.55431e-14
5.27356e-15
7.49401e-15
8.82627e-15
7.88258e-15
8.32667e-15
5.93969e-15
8.82627e-15
1.34892e-14
8.9373e-15
8.54872e-15
6.38378e-15
9.71445e-15
8.27116e-15
5.55112e-15
6.71685e-15
0
1.4877e-14
4.27436e-15
9.10383e-15
2.56462e-14
1.49325e-14
1.62648e-14
1.89848e-14
1.12133e-14
8.71525e-15
1.57097e-14
8.10463e-15
1.41553e-14
7.16094e-15
9.4369e-15
1.61537e-14
1.29896e-14
1.07692e-14
1.23235e-14
1.42109e-14
1.14908e-14
8.9373e-15
1.03251e-14
3.66374e-15
1.2379e-14
0
3.55271e-15
2.27596e-14
1.60427e-14
1.06581e-14
1.62093e-14
6.82787e-15
7.21645e-15
9.4369e-15
5.82867e-15
8.71525e-15
8.04912e-15
5.05151e-15
1.03806e-14
9.49241e-15
9.88098e-15
7.99361e-15
1.20459e-14
9.9365e-15
9.04832e-15
3.9968e-15
5.77316e-15
8.54872e-15
0
1.29341e-14
2.53686e-14
1.9873e-14
1.39888e-14
1.4877e-14
9.54792e-15
1.06581e-14
1.07137e-14
1.0103e-14
1.18239e-14
1.16018e-14
9.21485e-15
1.08802e-14
1.21014e-14
1.03251e-14
1.19349e-14
1.23235e-14
1.22125e-14
1.19349e-14
1.0103e-14
1.65978e-14
2.33147e-15
0.847297
0.548235
0.393364
0.381617
0.82042
0.808533
0.764578
0.6937
0.628473
0.661142
0.66336
0.6549
0.461429
0.472999
0.439184
0.397531
0.227351
0.264271
0.257389
0.217294
0.0950962
0.107612
0.108242
0.107738
0.124321
0.136742
0.157471
0.147406
0.0722554
0.0818623
0.087116
0.069036
0.0196159
0.0213344
0.0245756
0.0292957
0.00299765
0.00310205
0.00375315
0.0047276
0.000618172
0.000728602
0.0012434
0.0019552
0.00408345
0.00414478
0.00424951
0.00432919
0.0187798
0.0210356
0.0230269
0.025002
0.0141806
0.0148006
0.0152722
0.0155009
0.00668149
0.00600925
0.00544022
0.00497334
0.00184933
0.00178526
0.00150681
0.000967789
0.000344115
0.000348053
0.000417873
0.00032101
3.35786e-05
3.42001e-05
7.89364e-05
5.67173e-05
4.77665e-06
5.02846e-06
7.52938e-06
6.79346e-06
3.28534e-07
3.43121e-07
8.77383e-07
8.07028e-07
2.40901e-08
2.7341e-08
4.33504e-08
5.44991e-08
1.74921e-09
1.58453e-09
4.16933e-09
3.56662e-09
8.50113e-11
1.68349e-10
2.51561e-10
2.71211e-10
6.62376e-12
8.77176e-12
1.39078e-11
3.20061e-11
3.32012e-13
7.76879e-13
1.28503e-12
2.30754e-12
3.18634e-14
4.58522e-14
8.01581e-14
2.69562e-13
3.44169e-15
7.38298e-15
9.65894e-15
2.95319e-14
3.66374e-15
2.72005e-15
2.27596e-15
1.55431e-15
2.55351e-15
3.71925e-15
2.60902e-15
0
3.27516e-15
3.21965e-15
1.77636e-15
0
6.10623e-16
2.83107e-15
2.05391e-15
0
2.72005e-15
6.10623e-16
3.33067e-16
0
3.83027e-15
1.72085e-15
7.77156e-16
0
4.60743e-15
2.498e-15
1.72085e-15
0
2.77556e-15
3.77476e-15
2.55351e-15
0
0
3.10862e-15
2.16493e-15
0
0
0
4.996e-16
0
0
0
0
0
0
3.33067e-16
9.99201e-16
0
1.11022e-15
4.44089e-15
1.33227e-15
0
0
9.99201e-16
4.05231e-15
8.32667e-15
0
0
1.60982e-15
4.996e-16
0.517293
0.327131
0.375999
0.286761
0.266197
0.235881
0.25264
0.333966
0.3369
0.29393
0.316005
0.317771
0.305852
0.315492
0.383527
0.422772
0.383606
0.540931
0.696162
0.462696
0.649472
0.7823
0.793068
0.809001
0.818307
0.80957
0.770268
0.707133
0.687969
0.695425
0.705668
0.720866
0.731306
0.743752
0.727439
0.622904
0.674051
0.74331
0.537397
0.761405
0.81753
0.85603
0.867152
0.897584
0.901668
0.8919
0.855087
0.735005
0.665309
0.565314
0.586922
0.608162
0.6291
0.677382
0.738709
0.821738
0.82021
0.532263
0.637803
0.638639
0.656474
0.630979
0.720846
0.783047
0.787172
0.713836
0.56559
0.374736
0.282067
0.305997
0.356818
0.39826
0.47946
0.572733
0.718809
0.777504
0.266047
0.337074
0.38138
0.36059
0.328355
0.392618
0.537929
0.567744
0.457072
0.267938
0.154203
0.146816
0.163467
0.23619
0.294111
0.347966
0.361096
0.560189
0.72073
0.151312
0.253381
0.224348
0.174688
0.174952
0.262104
0.399345
0.378723
0.266672
0.13782
0.0744633
0.0772279
0.108038
0.151982
0.218134
0.301864
0.267016
0.42563
0.672973
0.135485
0.132589
0.120352
0.118149
0.142773
0.330468
0.327646
0.219333
0.0857137
0.0421587
0.0455318
0.0643396
0.136839
0.160349
0.240077
0.213552
0.268981
0.477727
0.668847
0.064277
0.0922356
0.171264
0.164189
0.175904
0.267484
0.232208
0.094217
0.0349236
0.0289749
0.0502022
0.0753154
0.108181
0.144839
0.192223
0.24921
0.362383
0.545408
0.662098
0.0247182
0.0589843
0.182389
0.106767
0.287155
0.316054
0.120804
0.0295937
0.0276871
0.0397683
0.0640785
0.093941
0.1286
0.168444
0.249288
0.371398
0.494487
0.590781
0.648403
0.00593741
0.0164541
0.0592975
0.0963008
0.166653
0.121681
0.0290153
0.0450267
0.0656248
0.0798664
0.0953949
0.117531
0.152625
0.201771
0.260411
0.392964
0.511458
0.589957
0.626653
0.00341666
0.0120143
0.0322137
0.0481561
0.0461375
0.0399544
0.0383819
0.0597467
0.0709755
0.0793011
0.0872115
0.103883
0.1269
0.163256
0.233888
0.376872
0.500471
0.580595
0.61037
0.00990553
0.0216928
0.0298349
0.0350597
0.0378747
0.0456442
0.061918
0.070293
0.0751997
0.0791397
0.0843591
0.09047
0.10901
0.115434
0.122535
0.232346
0.37738
0.559821
0.60489
0.0282158
0.0331122
0.0374083
0.0421096
0.0458819
0.0479115
0.0472945
0.0339599
0.0266522
0.0214025
0.019625
0.0163343
0.0212542
0.0378987
0.0797664
0.207255
0.344016
0.49162
0.599113
0.0155547
0.0153735
0.0145548
0.0167281
0.0164489
0.0169411
0.0102381
0.00474941
0.00456055
0.00327672
0.00366777
0.00253417
0.0036731
0.00953767
0.082569
0.314407
0.447671
0.48736
0.593692
0.00458356
0.00443065
0.00417547
0.00448188
0.00403435
0.00298636
0.000693633
0.000551381
0.000498948
0.000381711
0.000624529
0.000842994
0.00329246
0.00330488
0.0214244
0.0983431
0.322183
0.497238
0.593424
0.000645053
0.00108636
0.00172722
0.00169664
0.0012671
0.000396834
0.000203428
0.000177184
0.000156618
0.000183941
0.000755872
0.00121791
0.0102136
0.00483231
0.0391304
0.16585
0.351057
0.514019
0.595061
0.000143403
0.000252778
0.000654794
0.000886033
0.00104865
0.000349321
8.48753e-05
5.63798e-05
0.000104456
0.000501584
0.00371731
0.00688308
0.0259449
0.0324164
0.169835
0.310818
0.435536
0.551703
0.601139
2.85802e-05
3.82966e-05
0.000121945
0.000150953
0.000235383
0.000107001
4.46741e-05
5.93344e-05
0.00040736
0.00243566
0.0109644
0.027553
0.0711979
0.182449
0.405232
0.520779
0.572212
0.600756
0.610796
4.00011e-06
6.43365e-06
2.8562e-05
4.07573e-05
4.03429e-05
2.51566e-05
2.1831e-05
0.000113653
0.000935635
0.00434829
0.0163362
0.0458193
0.111192
0.287398
0.518325
0.581718
0.572613
0.573876
0.613885
5.59298e-07
1.13447e-06
3.24027e-06
8.20113e-06
1.08884e-05
5.08393e-06
2.36638e-05
0.000175152
0.000928819
0.00342954
0.009798
0.0209898
0.035249
0.0793757
0.232372
0.395429
0.368543
0.428657
0.608092
7.14393e-08
2.25283e-07
4.42199e-07
1.67579e-06
1.62706e-06
4.95701e-06
5.77525e-05
0.000420341
0.00182469
0.00518766
0.01276
0.0282167
0.0460643
0.0626401
0.0975829
0.159007
0.220988
0.425257
0.558641
1.03326e-08
2.70256e-08
1.08414e-07
3.07799e-07
2.75692e-07
7.79371e-07
1.13271e-05
0.000107609
0.000569595
0.00287942
0.00989949
0.0279615
0.052354
0.0787637
0.117218
0.180888
0.289054
0.420031
0.47448
9.27119e-10
5.09314e-09
2.00626e-08
5.25949e-08
6.47326e-08
5.36715e-07
7.22594e-06
7.74207e-05
0.000604793
0.00250265
0.00903632
0.0188575
0.0381614
0.0665208
0.103476
0.14618
0.205794
0.32686
0.4345
8.79428e-11
7.93557e-10
3.61914e-09
9.51812e-09
1.56873e-08
1.93837e-07
2.69505e-06
2.40041e-05
0.000269191
0.00134784
0.0047146
0.0139266
0.0323543
0.0618302
0.0872823
0.125591
0.188003
0.28827
0.422394
8.95595e-12
1.24573e-10
6.39636e-10
1.47362e-09
2.64759e-09
2.76348e-08
3.68434e-07
3.20522e-06
7.47973e-05
0.000481021
0.00349883
0.0110082
0.0228593
0.0527836
0.0752718
0.121789
0.201095
0.285656
0.418807
1.23596e-12
1.63862e-11
9.88329e-11
1.62997e-10
5.1526e-10
4.23047e-09
4.46582e-08
2.55653e-06
3.96353e-05
0.000624592
0.0037598
0.00873071
0.0157924
0.0356869
0.0494705
0.117893
0.210469
0.311622
0.418031
1.60649e-13
2.00251e-12
1.14376e-11
1.72419e-11
9.90629e-11
8.19199e-10
2.83057e-08
1.68935e-06
1.87843e-05
0.000222714
0.000834128
0.00386984
0.00538777
0.0219515
0.0305704
0.100177
0.216637
0.315626
0.419312
2.03726e-14
1.82965e-13
1.22219e-12
1.97714e-12
1.60976e-11
3.96587e-10
1.88175e-08
4.80043e-07
6.27261e-06
4.94284e-05
0.000254204
0.00198266
0.00131065
0.00663807
0.0112563
0.0610405
0.201838
0.322263
0.411574
5.82867e-15
2.51466e-14
8.38218e-14
2.96707e-13
1.91624e-12
1.27529e-10
5.25076e-09
1.06113e-07
1.29079e-06
1.36378e-05
0.000126019
0.000889983
0.000308876
0.00067773
0.00119408
0.0169968
0.118656
0.308396
0.391085
3.83027e-15
5.93969e-15
1.24345e-14
4.05787e-14
2.84273e-13
3.13097e-11
9.33395e-10
1.68069e-08
1.85924e-07
3.47605e-06
8.51867e-05
0.000115221
7.58106e-05
5.16073e-05
8.00942e-05
0.00224969
0.0504354
0.203081
0.322272
4.88498e-15
7.04992e-15
7.93809e-15
1.16018e-14
6.60583e-14
4.67132e-12
1.21034e-10
1.77281e-09
3.06233e-08
3.68587e-07
1.09766e-05
1.93537e-05
1.09198e-05
1.03635e-05
2.37994e-05
0.000158426
0.00642485
0.0603689
0.15855
5.10703e-15
4.60743e-15
1.55431e-15
7.16094e-15
5.79536e-14
9.0028e-13
1.55446e-11
2.2549e-10
1.56885e-09
5.14789e-08
1.78252e-07
3.78757e-07
1.0085e-06
4.36696e-06
2.31617e-05
8.96252e-05
0.000655051
0.0106953
0.0516193
3.55271e-15
4.66294e-15
5.32907e-15
1.2379e-14
1.03639e-13
1.39788e-12
1.39281e-11
1.57939e-10
1.6381e-09
7.7219e-09
4.15821e-08
2.34437e-07
1.04362e-06
4.72862e-06
4.23541e-05
0.000177149
0.000325608
0.00198457
0.0235527
4.4964e-15
4.05231e-15
5.60663e-15
5.26246e-14
3.34344e-13
3.29869e-12
2.17495e-11
1.96368e-10
3.22563e-09
2.1477e-08
9.40181e-08
5.25718e-07
1.74499e-06
1.06276e-05
9.19373e-05
0.000307487
0.000368282
0.00123405
0.0189267
1.55431e-15
3.44169e-15
9.65894e-15
3.5083e-14
2.19991e-13
2.12602e-12
2.0733e-11
2.14106e-10
4.00377e-09
3.05851e-08
1.35752e-07
5.84537e-07
1.71608e-06
1.23075e-05
0.000114331
0.000347099
0.000438838
0.000935537
0.0160558
2.44249e-15
7.66054e-15
1.33782e-14
4.29656e-14
4.19997e-13
2.73254e-12
3.85817e-11
4.45132e-10
7.04885e-09
2.73094e-08
1.93812e-07
9.74624e-07
1.70328e-06
1.25362e-05
0.000130763
0.000387743
0.000472797
0.000893761
0.015789
3.21965e-15
5.10703e-15
1.04361e-14
3.7248e-14
2.94598e-13
2.79288e-12
2.07643e-11
2.50307e-10
4.06909e-09
4.09767e-09
4.3277e-08
1.15486e-07
1.7545e-07
2.69176e-06
2.66075e-05
0.00027492
0.000464142
0.00112069
0.0170075
3.88578e-15
6.32827e-15
8.49321e-15
1.68199e-14
9.30922e-14
1.19799e-12
5.04979e-12
4.79612e-11
9.79275e-11
6.58489e-10
3.44342e-08
2.78413e-08
2.09255e-08
1.3216e-07
5.67675e-06
0.000108515
0.000286344
0.00102889
0.0175449
2.33147e-15
5.66214e-15
1.88738e-15
9.4369e-15
4.83502e-14
4.58245e-13
3.30969e-12
1.85088e-11
2.93604e-11
2.24135e-10
9.93642e-09
4.28546e-09
5.14117e-09
3.00869e-08
9.37162e-07
6.80973e-06
4.87394e-05
0.000389627
0.00992518
3.66374e-15
6.16174e-15
1.4988e-15
6.60583e-15
1.26565e-14
6.85008e-14
3.3723e-13
8.82849e-13
1.94395e-12
1.4265e-11
2.63729e-10
6.6871e-10
3.64576e-09
1.04615e-08
6.72929e-08
2.15038e-07
7.33738e-06
0.000139979
0.00748171
1.31561e-14
6.32827e-15
0
0
0
8.32667e-16
1.27676e-15
2.12608e-14
5.4734e-14
2.7201e-12
2.01679e-11
6.14947e-10
6.3119e-09
1.42171e-08
1.97582e-08
4.37365e-08
1.18887e-06
5.39346e-06
0.00476678
7.71605e-15
7.88258e-15
0
4.996e-15
6.93889e-15
8.04912e-15
6.32827e-15
0
3.45834e-14
4.12409e-12
2.13894e-11
6.50073e-10
7.11506e-09
1.65657e-08
2.23365e-08
4.99577e-08
1.19958e-06
1.59296e-06
0.00146999
)
;

boundaryField
{
    leftWall
    {
        type            zeroGradient;
    }
    rightWall
    {
        type            zeroGradient;
    }
    lowerWall
    {
        type            zeroGradient;
    }
    atmosphere
    {
        type            inletOutlet;
        inletValue      uniform 0;
        value           nonuniform List<scalar> 
46
(
0
1.29341e-14
2.53686e-14
1.9873e-14
1.39888e-14
1.4877e-14
9.54792e-15
1.06581e-14
1.07137e-14
1.0103e-14
1.18239e-14
1.16018e-14
9.21485e-15
1.08802e-14
1.21014e-14
1.03251e-14
1.19349e-14
1.23235e-14
1.22125e-14
1.19349e-14
1.0103e-14
1.65978e-14
2.33147e-15
0
0
1.60982e-15
4.996e-16
7.71605e-15
7.88258e-15
0
4.996e-15
6.93889e-15
8.04912e-15
6.32827e-15
0
3.45834e-14
4.12409e-12
2.13894e-11
6.50073e-10
7.11506e-09
1.65657e-08
2.23365e-08
4.99577e-08
1.19958e-06
1.59296e-06
0.00146999
)
;
    }
    defaultFaces
    {
        type            empty;
    }
}


// ************************************************************************* //
