/*--------------------------------*- C++ -*----------------------------------*\
| =========                 |                                                 |
| \\      /  F ield         | foam-extend: Open Source CFD                    |
|  \\    /   O peration     | Version:     4.1                                |
|   \\  /    A nd           | Web:         http://www.foam-extend.org         |
|    \\/     M anipulation  |                                                 |
\*---------------------------------------------------------------------------*/
FoamFile
{
    version     2.0;
    format      ascii;
    class       volScalarField;
    location    "0.7";
    object      C;
}
// * * * * * * * * * * * * * * * * * * * * * * * * * * * * * * * * * * * * * //

dimensions      [0 0 0 0 0 0 0];

internalField   nonuniform List<scalar> 
2268
(
0.310838
-0.396021
0.334533
0.743145
0.955355
0.993877
0.633005
0.942744
0.995927
0.997209
0.998953
0.999563
0.999653
0.999701
0.999804
0.999918
0.999962
0.999953
0.999514
0.997406
0.992241
0.966847
0.167007
0.339916
-0.438019
0.342198
0.827969
0.952207
0.789218
-0.153223
0.790302
0.976658
0.954756
0.986817
0.99744
0.999071
0.99944
0.999685
0.999774
0.999873
0.999945
0.99993
0.999854
0.999769
0.995603
0.962045
0.166931
-0.410617
-0.232047
0.53292
0.882835
0.518361
-0.179861
0.515704
0.93665
0.660876
0.941623
0.992508
0.998062
0.998935
0.999394
0.999596
0.999752
0.999902
0.999956
0.999925
0.999303
0.995234
0.983348
0.277692
-0.23825
-0.361943
0.108293
0.541689
0.596383
0.0861837
0.497548
0.827145
-0.278223
0.811091
0.990865
0.996345
0.997394
0.997738
0.998297
0.998489
0.999082
0.999589
0.999725
0.99939
0.99499
0.984274
0.380344
-0.0278932
-0.393209
-0.270199
-0.121124
0.51823
0.142362
0.509651
0.585215
-0.43875
0.622182
0.972508
0.990555
0.992126
0.992175
0.992068
0.99549
0.997519
0.997157
0.998837
0.998106
0.989437
0.983939
0.406424
0.0277411
-0.395577
-0.397084
-0.333575
0.264298
0.0125737
0.456383
0.496882
-0.355115
0.420749
0.889382
0.978328
0.979029
0.978054
0.981435
0.991354
0.991368
0.978512
0.98891
0.988186
0.963284
0.975266
0.285442
-0.234208
-0.548359
-0.483948
-0.351449
0.276978
-0.280454
0.267951
-0.0674162
-0.38697
0.405721
0.890143
0.960487
0.949285
0.945604
0.953877
0.976346
0.950445
0.873852
0.914613
0.955376
0.880947
0.927756
-0.301139
-0.49645
-0.60784
-0.520956
-0.372472
0.135417
-0.456175
-0.142554
-0.519252
-0.348552
0.600855
0.911519
0.934815
0.925736
0.934174
0.949803
0.958248
0.815724
0.56347
0.664301
0.830999
0.758333
0.805842
0.100597
0.154396
0.203768
0.24736
0.284482
0.308026
0.318447
0.324488
0.310021
0.302839
0.293535
0.316027
0.334522
0.338488
0.338811
0.31639
0.235924
0.178503
-0.0625081
0.0844335
0.036325
-0.0305781
-0.0526367
0.136153
0.256829
0.345808
0.373004
0.377961
0.363437
0.354417
0.351898
0.388489
0.3245
0.2957
0.29955
0.143255
0.0229206
-0.141944
0.0707935
-0.0204557
-0.196845
-0.263048
-0.0390239
0.0959838
0.277048
0.282991
0.351758
0.349183
0.335784
0.343546
0.283705
0.145299
0.0864929
0.20787
0.127901
-0.0401022
-0.243012
0.0505069
-0.169475
-0.431725
-0.468234
-0.394625
-0.431141
-0.150745
-0.313794
0.245458
0.216236
0.154725
0.123799
0.0232704
-0.12312
-0.200603
0.0643627
0.12858
-0.048653
-0.312012
0.0382988
-0.174007
-0.289223
-0.249657
-0.605274
-0.720537
-0.654912
-0.640328
-0.0432392
-0.137425
-0.269215
-0.483575
-0.477324
-0.562253
-0.406287
-0.0695903
0.0834023
0.000724394
-0.320675
0.0270936
-0.259564
-0.527849
-0.347891
-0.488448
-0.558307
-0.736944
-0.848177
-0.654778
-0.638335
-0.565408
-0.69945
-0.714482
-0.680079
-0.541372
-0.245899
0.0879743
0.165194
0.00983745
0.0157744
-0.247396
-0.730579
-0.594787
-0.217058
-0.544881
-0.778761
-0.757448
-0.685886
-0.729071
-0.741855
-0.751595
-0.74452
-0.702342
-0.585099
-0.356432
0.0055874
0.22989
0.27227
-0.0379521
-0.537406
-0.764348
-0.754041
-0.36837
-0.654818
-0.750872
-0.673775
-0.590551
-0.638317
-0.660672
-0.639186
-0.66594
-0.662871
-0.581766
-0.395094
-0.170954
0.220122
0.337644
-0.52897
-0.646365
-0.606428
-0.47286
-0.49406
-0.323195
-0.387755
-0.0104563
-0.36511
-0.198229
0.540386
0.801956
0.867496
0.879508
0.8793
0.842364
0.818389
0.496157
0.142339
0.286893
0.618431
0.59934
0.672917
-0.606578
-0.731018
-0.488843
-0.350939
-0.563747
-0.771771
-0.564685
-0.193703
-0.569275
-0.624084
-0.281672
0.364534
0.765008
0.681665
0.727195
0.519695
0.470321
0.172504
-0.31059
-0.0675958
0.291531
0.361218
0.541626
-0.668504
-0.701335
-0.581701
-0.122769
-0.586561
-0.881094
-0.791896
-0.490964
-0.877073
-0.469579
-0.38136
0.450203
0.336295
0.508872
0.441865
-0.118303
-0.470185
-0.426387
-0.784256
-0.635356
0.025787
0.1531
0.265293
-0.801368
-0.640318
-0.820414
-0.534347
-0.870815
-0.919235
-0.868221
-0.754388
-0.359239
0.163419
0.0234231
0.155287
-0.365915
0.132977
-0.235983
-0.603795
-0.837507
-0.821339
-0.905062
-0.876207
-0.622735
-0.488616
-0.167724
-0.953609
-0.93896
-0.93414
-0.897656
-0.94924
-0.949132
-0.949727
-0.949539
-0.819517
-0.452061
-0.598168
0.124739
-0.591328
-0.414229
-0.703801
-0.864928
-0.932064
-0.94812
-0.95435
-0.946285
-0.903314
-0.849068
-0.687717
-0.975479
-0.967532
-0.961264
-0.962586
-0.969964
-0.971192
-0.982038
-0.990368
-0.966206
-0.884685
-0.910636
-0.452757
-0.888878
-0.77156
-0.907107
-0.949805
-0.966467
-0.978848
-0.981037
-0.973759
-0.958335
-0.921585
-0.860369
-0.983999
-0.975326
-0.969524
-0.970004
-0.974243
-0.980333
-0.988569
-0.993036
-0.990822
-0.977112
-0.960735
-0.902379
-0.980861
-0.928717
-0.987038
-0.983826
-0.983793
-0.985332
-0.991149
-0.985893
-0.965932
-0.91097
-0.814618
-0.986081
-0.976727
-0.974235
-0.973056
-0.973887
-0.980828
-0.987846
-0.995358
-0.996788
-0.995927
-0.998502
-0.998232
-0.996033
-0.98861
-0.995007
-0.990285
-0.989826
-0.989519
-0.991904
-0.984175
-0.96774
-0.944444
-0.90031
-0.993888
-0.987896
-0.984177
-0.977538
-0.975466
-0.977121
-0.986008
-0.993951
-0.998032
-0.998731
-0.999354
-0.999307
-0.998617
-0.998039
-0.997063
-0.994416
-0.993738
-0.991561
-0.994386
-0.989353
-0.98746
-0.982623
-0.971366
-0.99778
-0.995242
-0.991305
-0.984022
-0.982525
-0.97749
-0.984547
-0.991956
-0.997771
-0.998977
-0.999515
-0.999619
-0.999354
-0.999135
-0.997835
-0.996373
-0.996823
-0.99492
-0.994434
-0.993365
-0.995834
-0.996387
-0.996307
-0.999112
-0.997975
-0.994891
-0.991245
-0.994627
-0.991132
-0.993091
-0.995988
-0.99789
-0.999125
-0.999671
-0.999738
-0.999655
-0.999478
-0.998341
-0.998302
-0.99853
-0.997115
-0.995882
-0.998576
-0.998558
-0.998471
-0.998948
-0.999642
-0.999084
-0.998757
-0.996927
-0.99865
-0.998703
-0.998495
-0.99897
-0.999416
-0.999602
-0.999847
-0.99979
-0.999731
-0.999568
-0.999225
-0.99934
-0.999174
-0.998973
-0.998883
-0.998366
-0.994996
-0.992749
-0.992552
-0.99984
-0.999635
-0.999661
-0.999138
-0.999713
-0.99987
-0.999854
-0.99993
-0.99995
-0.999952
-0.99996
-0.999857
-0.999797
-0.999613
-0.999486
-0.999681
-0.999634
-0.999313
-0.99749
-0.990926
-0.981848
-0.975236
-0.969128
-0.999931
-0.999892
-0.999911
-0.999848
-0.999939
-0.999994
-0.999996
-0.999999
-0.999999
-0.999995
-0.999987
-0.999692
-0.999827
-0.999785
-0.999751
-0.999819
-0.999852
-0.999696
-0.998588
-0.994501
-0.987449
-0.980197
-0.974629
-0.999977
-0.999975
-0.999982
-0.999984
-0.999995
-1
-1
-1
-1
-0.999995
-0.999984
-0.999885
-0.999928
-0.99989
-0.999912
-0.999928
-0.99993
-0.999914
-0.999779
-0.998596
-0.995626
-0.989884
-0.986781
-0.999992
-0.999995
-0.999997
-0.999998
-1
-1
-1
-1
-0.999997
-0.999982
-0.999958
-0.999928
-0.999971
-0.999952
-0.999981
-0.999979
-0.999973
-0.999974
-0.999967
-0.99972
-0.999017
-0.998377
-0.997437
-0.999998
-0.999999
-0.999999
-1
-1
-1
-1
-1
-0.999999
-0.999995
-0.999989
-0.99999
-0.999993
-0.999988
-0.999997
-0.999996
-0.999992
-0.999992
-0.999995
-0.999956
-0.999813
-0.999795
-0.999544
-1
-1
-1
-1
-1
-1
-1
-1
-0.999999
-0.999998
-0.999998
-0.999998
-0.999999
-0.999999
-1
-0.999999
-0.999999
-0.999998
-0.999999
-0.999996
-0.999975
-0.99997
-0.999926
-1
-1
-1
-1
-1
-1
-1
-1
-1
-1
-1
-1
-1
-1
-1
-1
-1
-1
-1
-1
-0.999998
-0.999997
-0.999989
-1
-1
-1
-1
-1
-1
-1
-1
-1
-1
-1
-1
-1
-1
-1
-1
-1
-1
-1
-1
-1
-1
-0.999999
-1
-1
-1
-1
-1
-1
-1
-1
-1
-1
-1
-1
-1
-1
-1
-1
-1
-1
-1
-1
-1
-1
-1
-1
-1
-1
-1
-1
-1
-1
-1
-1
-1
-1
-1
-1
-1
-1
-1
-1
-1
-1
-1
-1
-1
-1
-1
-1
-1
-1
-1
-1
-1
-1
-1
-1
-1
-1
-1
-1
-1
-1
-1
-1
-1
-1
-1
-1
-1
-1
-1
-1
-1
-1
-1
-1
-1
-1
-1
-1
-1
-1
-1
-1
-1
-1
-1
-1
-1
-1
-1
-1
-1
-1
-1
-1
-1
-1
-1
-1
-1
-1
-1
-1
-1
-1
-1
-1
-1
-1
-1
-1
-1
-1
-1
-1
-1
-1
-1
-1
-1
-1
-1
-1
-1
-1
-1
-1
-1
-1
-1
-1
-1
-1
-1
-1
-1
-1
-1
-1
-1
-1
-1
-1
-1
-1
-1
-1
-1
-1
-1
-1
-1
-1
-1
-1
-1
-1
-1
-1
-1
-1
-1
-1
-1
-1
-1
-1
-1
-1
-1
-1
-1
-1
-1
-1
-1
-1
-1
-1
-1
-1
-1
-1
-1
-1
-1
-1
-1
-1
-1
-1
-1
-1
-1
-1
-1
-1
-1
-1
-1
-1
-1
-1
-1
-1
-1
-1
-1
-1
-1
-1
-1
-1
-1
-1
-1
-1
-1
-1
-1
-1
-1
-1
-1
-1
-1
-1
-1
-1
-1
-1
-1
-1
-1
-1
-1
-1
-1
-1
-1
-1
-1
-1
-1
-1
-1
-1
-1
-1
-1
-1
-1
-1
-1
-1
-1
-1
-1
-1
-1
-1
-1
-1
-1
-1
-1
-1
-1
-1
-1
-1
-1
-1
-1
-1
-1
-1
-1
-1
-1
-1
-1
-1
-1
-1
-1
-1
-1
-1
-1
-1
-1
-1
-1
-1
-1
-1
-1
-1
-1
-1
-1
-1
-1
-1
-1
-1
-1
-1
-1
-1
-1
-1
-1
-1
-1
-1
-1
-1
-1
-1
-1
-1
-1
-1
-1
-1
-1
-1
-1
-1
-1
-1
-1
-1
-1
-1
-1
-1
-1
-1
-1
-1
-1
-1
-1
-1
-1
-1
-1
-1
-1
-1
-1
-1
-1
-1
-1
-1
-1
-1
-1
-1
-1
-1
-1
-1
-1
-1
-1
-1
-1
-1
-1
-1
-1
-1
-1
-1
-1
-1
-1
-1
-1
-1
-1
-1
-1
-1
-1
-1
-1
-1
-1
-1
-1
-1
-1
-1
-1
-1
-1
-1
-1
-1
-1
-1
-1
-1
-1
-1
-1
-1
-1
-1
-1
-1
-1
-1
-1
-1
-1
-1
-1
-1
-1
-1
-1
-1
-1
-1
-1
-1
-1
-1
-1
-1
-1
-1
-1
-1
-1
-1
-1
-1
-1
-1
-1
-1
-1
-1
-1
-1
-1
-1
-1
-1
-1
-1
-1
-1
-1
-1
-1
-1
-1
-1
-1
-1
-1
-1
-1
-1
-1
-1
-1
-1
-1
-1
-1
-1
-1
-1
-1
-1
-1
-1
-1
-1
-1
-1
-1
-1
-1
-1
-1
-1
-1
-1
-1
-1
-1
-1
-1
-1
0.694594
0.0964698
-0.213272
-0.236766
0.64084
0.617066
0.529156
0.3874
0.256946
0.322284
0.326721
0.3098
-0.0771424
-0.0540023
-0.121632
-0.204938
-0.545298
-0.471459
-0.485222
-0.565411
-0.809808
-0.784776
-0.783517
-0.784523
-0.751359
-0.726517
-0.685058
-0.705187
-0.855489
-0.836275
-0.825768
-0.861928
-0.960768
-0.957331
-0.950849
-0.941409
-0.994005
-0.993796
-0.992494
-0.990545
-0.998764
-0.998543
-0.997513
-0.99609
-0.991833
-0.99171
-0.991501
-0.991342
-0.96244
-0.957929
-0.953946
-0.949996
-0.971639
-0.970399
-0.969456
-0.968998
-0.986637
-0.987982
-0.98912
-0.990053
-0.996301
-0.996429
-0.996986
-0.998064
-0.999312
-0.999304
-0.999164
-0.999358
-0.999933
-0.999932
-0.999842
-0.999887
-0.99999
-0.99999
-0.999985
-0.999986
-0.999999
-0.999999
-0.999998
-0.999998
-1
-1
-1
-1
-1
-1
-1
-1
-1
-1
-1
-1
-1
-1
-1
-1
-1
-1
-1
-1
-1
-1
-1
-1
-1
-1
-1
-1
-1
-1
-1
-1
-1
-1
-1
-1
-1
-1
-1
-1
-1
-1
-1
-1
-1
-1
-1
-1
-1
-1
-1
-1
-1
-1
-1
-1
-1
-1
-1
-1
-1
-1
-1
-1
-1
-1
-1
-1
-1
-1
-1
-1
-1
-1
-1
-1
-1
-1
-1
-1
-1
-1
-1
-1
-1
-1
-1
-1
0.0345857
-0.345738
-0.248002
-0.426478
-0.467606
-0.528238
-0.494719
-0.332067
-0.326199
-0.412139
-0.367989
-0.364457
-0.388295
-0.369015
-0.232946
-0.154457
-0.232787
0.0818621
0.392325
-0.0746075
0.298944
0.564599
0.586135
0.618002
0.636614
0.61914
0.540537
0.414267
0.375937
0.39085
0.411335
0.441732
0.462611
0.487503
0.454878
0.245807
0.348102
0.48662
0.0747947
0.52281
0.635059
0.71206
0.734304
0.795168
0.803337
0.7838
0.710174
0.47001
0.330619
0.130628
0.173844
0.216324
0.258201
0.354764
0.477418
0.643476
0.640419
0.0645253
0.275606
0.277278
0.312948
0.261959
0.441692
0.566094
0.574344
0.427671
0.13118
-0.250528
-0.435866
-0.388007
-0.286364
-0.203481
-0.0410795
0.145466
0.437618
0.555008
-0.467907
-0.325852
-0.237241
-0.27882
-0.343289
-0.214764
0.0758571
0.135489
-0.0858558
-0.464124
-0.691593
-0.706367
-0.673066
-0.527619
-0.411778
-0.304067
-0.277808
0.120378
0.441461
-0.697376
-0.493237
-0.551303
-0.650625
-0.650095
-0.475792
-0.201309
-0.242554
-0.466656
-0.724361
-0.851073
-0.845544
-0.783924
-0.696036
-0.563732
-0.396272
-0.465969
-0.148741
0.345946
-0.729031
-0.734821
-0.759297
-0.763702
-0.714454
-0.339064
-0.344708
-0.561334
-0.828573
-0.915683
-0.908936
-0.871321
-0.726323
-0.679301
-0.519846
-0.572896
-0.462037
-0.0445455
0.337694
-0.871446
-0.815529
-0.657472
-0.671623
-0.648193
-0.465032
-0.535583
-0.811566
-0.930153
-0.94205
-0.899596
-0.849369
-0.783638
-0.710322
-0.615554
-0.50158
-0.275235
0.0908156
0.324196
-0.950564
-0.882031
-0.635222
-0.786466
-0.425689
-0.367891
-0.758392
-0.940813
-0.944626
-0.920463
-0.871843
-0.812118
-0.7428
-0.663112
-0.501425
-0.257204
-0.0110257
0.181563
0.296806
-0.988125
-0.967092
-0.881405
-0.807398
-0.666694
-0.756638
-0.941969
-0.909947
-0.86875
-0.840267
-0.80921
-0.764937
-0.694749
-0.596458
-0.479178
-0.214073
0.0229165
0.179914
0.253306
-0.993167
-0.975971
-0.935573
-0.903688
-0.907725
-0.920091
-0.923236
-0.880507
-0.858049
-0.841398
-0.825577
-0.792234
-0.7462
-0.673488
-0.532225
-0.246255
0.000941854
0.16119
0.220741
-0.980189
-0.956614
-0.94033
-0.929881
-0.924251
-0.908712
-0.876164
-0.859414
-0.849601
-0.841721
-0.831282
-0.81906
-0.781981
-0.769133
-0.754931
-0.535308
-0.245239
0.119641
0.209779
-0.943568
-0.933776
-0.925183
-0.915781
-0.908236
-0.904177
-0.905411
-0.93208
-0.946696
-0.957195
-0.96075
-0.967331
-0.957492
-0.924203
-0.840467
-0.585491
-0.311968
-0.0167608
0.198226
-0.968891
-0.969253
-0.97089
-0.966544
-0.967102
-0.966118
-0.979524
-0.990501
-0.990879
-0.993447
-0.992664
-0.994932
-0.992654
-0.980925
-0.834862
-0.371186
-0.104657
-0.0252791
0.187383
-0.990833
-0.991139
-0.991649
-0.991036
-0.991931
-0.994027
-0.998613
-0.998897
-0.999002
-0.999237
-0.998751
-0.998314
-0.993415
-0.99339
-0.957151
-0.803314
-0.355634
-0.00552376
0.186848
-0.99871
-0.997827
-0.996546
-0.996607
-0.997466
-0.999206
-0.999593
-0.999646
-0.999687
-0.999632
-0.998488
-0.997564
-0.979573
-0.990335
-0.921739
-0.668301
-0.297886
0.0280387
0.190123
-0.999713
-0.999494
-0.99869
-0.998228
-0.997903
-0.999301
-0.99983
-0.999887
-0.999791
-0.998997
-0.992565
-0.986234
-0.94811
-0.935167
-0.66033
-0.378363
-0.128928
0.103405
0.202277
-0.999943
-0.999923
-0.999756
-0.999698
-0.999529
-0.999786
-0.999911
-0.999881
-0.999185
-0.995129
-0.978071
-0.944894
-0.857604
-0.635102
-0.189536
0.0415583
0.144424
0.201511
0.221593
-0.999992
-0.999987
-0.999943
-0.999918
-0.999919
-0.99995
-0.999956
-0.999773
-0.998129
-0.991303
-0.967328
-0.908361
-0.777616
-0.425203
0.0366504
0.163436
0.145226
0.147752
0.22777
-0.999999
-0.999998
-0.999994
-0.999984
-0.999978
-0.99999
-0.999953
-0.99965
-0.998142
-0.993141
-0.980404
-0.95802
-0.929502
-0.841249
-0.535256
-0.209141
-0.262914
-0.142686
0.216184
-1
-1
-0.999999
-0.999997
-0.999997
-0.99999
-0.999884
-0.999159
-0.996351
-0.989625
-0.97448
-0.943567
-0.907871
-0.87472
-0.804834
-0.681985
-0.558025
-0.149486
0.117283
-1
-1
-1
-0.999999
-0.999999
-0.999998
-0.999977
-0.999785
-0.998861
-0.994241
-0.980201
-0.944077
-0.895292
-0.842473
-0.765564
-0.638223
-0.421892
-0.159937
-0.0510409
-1
-1
-1
-1
-1
-0.999999
-0.999986
-0.999845
-0.99879
-0.994995
-0.981927
-0.962285
-0.923677
-0.866958
-0.793048
-0.70764
-0.588411
-0.346281
-0.131001
-1
-1
-1
-1
-1
-1
-0.999995
-0.999952
-0.999462
-0.997304
-0.990571
-0.972147
-0.935291
-0.87634
-0.825435
-0.748819
-0.623995
-0.423459
-0.155211
-1
-1
-1
-1
-1
-1
-0.999999
-0.999994
-0.99985
-0.999038
-0.993002
-0.977984
-0.954281
-0.894433
-0.849456
-0.756422
-0.597811
-0.428688
-0.162385
-1
-1
-1
-1
-1
-1
-1
-0.999995
-0.999921
-0.998751
-0.99248
-0.982539
-0.968415
-0.928626
-0.901059
-0.764214
-0.579063
-0.376757
-0.163938
-1
-1
-1
-1
-1
-1
-1
-0.999997
-0.999962
-0.999555
-0.998332
-0.99226
-0.989224
-0.956097
-0.938859
-0.799646
-0.566726
-0.368747
-0.161375
-1
-1
-1
-1
-1
-1
-1
-0.999999
-0.999987
-0.999901
-0.999492
-0.996035
-0.997379
-0.986724
-0.977487
-0.877919
-0.596325
-0.355474
-0.176852
-1
-1
-1
-1
-1
-1
-1
-1
-0.999997
-0.999973
-0.999748
-0.99822
-0.999382
-0.998645
-0.997612
-0.966006
-0.762688
-0.383209
-0.21783
-1
-1
-1
-1
-1
-1
-1
-1
-1
-0.999993
-0.99983
-0.99977
-0.999848
-0.999897
-0.99984
-0.995501
-0.899129
-0.593838
-0.355455
-1
-1
-1
-1
-1
-1
-1
-1
-1
-0.999999
-0.999978
-0.999961
-0.999978
-0.999979
-0.999952
-0.999683
-0.98715
-0.879262
-0.6829
-1
-1
-1
-1
-1
-1
-1
-1
-1
-1
-1
-0.999999
-0.999998
-0.999991
-0.999954
-0.999821
-0.99869
-0.978609
-0.896761
-1
-1
-1
-1
-1
-1
-1
-1
-1
-1
-1
-1
-0.999998
-0.999991
-0.999915
-0.999646
-0.999349
-0.996031
-0.952895
-1
-1
-1
-1
-1
-1
-1
-1
-1
-1
-1
-0.999999
-0.999997
-0.999979
-0.999816
-0.999385
-0.999263
-0.997532
-0.962147
-1
-1
-1
-1
-1
-1
-1
-1
-1
-1
-1
-0.999999
-0.999997
-0.999975
-0.999771
-0.999306
-0.999122
-0.998129
-0.967888
-1
-1
-1
-1
-1
-1
-1
-1
-1
-1
-1
-0.999998
-0.999997
-0.999975
-0.999738
-0.999225
-0.999054
-0.998212
-0.968422
-1
-1
-1
-1
-1
-1
-1
-1
-1
-1
-1
-1
-1
-0.999995
-0.999947
-0.99945
-0.999072
-0.997759
-0.965985
-1
-1
-1
-1
-1
-1
-1
-1
-1
-1
-1
-1
-1
-1
-0.999989
-0.999783
-0.999427
-0.997942
-0.96491
-1
-1
-1
-1
-1
-1
-1
-1
-1
-1
-1
-1
-1
-1
-0.999998
-0.999986
-0.999903
-0.999221
-0.98015
-1
-1
-1
-1
-1
-1
-1
-1
-1
-1
-1
-1
-1
-1
-1
-1
-0.999985
-0.99972
-0.985037
-1
-1
-1
-1
-1
-1
-1
-1
-1
-1
-1
-1
-1
-1
-1
-1
-0.999998
-0.999989
-0.990466
-1
-1
-1
-1
-1
-1
-1
-1
-1
-1
-1
-1
-1
-1
-1
-1
-0.999998
-0.999997
-0.99706
)
;

boundaryField
{
    leftWall
    {
        type            zeroGradient;
    }
    rightWall
    {
        type            zeroGradient;
    }
    lowerWall
    {
        type            zeroGradient;
    }
    atmosphere
    {
        type            zeroGradient;
    }
    defaultFaces
    {
        type            empty;
    }
}


// ************************************************************************* //
