/*--------------------------------*- C++ -*----------------------------------*\
| =========                 |                                                 |
| \\      /  F ield         | foam-extend: Open Source CFD                    |
|  \\    /   O peration     | Version:     4.1                                |
|   \\  /    A nd           | Web:         http://www.foam-extend.org         |
|    \\/     M anipulation  |                                                 |
\*---------------------------------------------------------------------------*/
FoamFile
{
    version     2.0;
    format      ascii;
    class       volScalarField;
    location    "0.7";
    object      C_0;
}
// * * * * * * * * * * * * * * * * * * * * * * * * * * * * * * * * * * * * * //

dimensions      [0 0 0 0 0 0 0];

internalField   nonuniform List<scalar> 
2268
(
0.310817
-0.411599
0.324498
0.742519
0.956209
0.994231
0.681133
0.952922
0.996712
0.997407
0.998988
0.999569
0.999654
0.999701
0.999805
0.999918
0.999962
0.999954
0.999527
0.997447
0.992281
0.966762
0.166875
0.341956
-0.444504
0.352582
0.829212
0.952695
0.815471
-0.128977
0.801576
0.977879
0.958831
0.987661
0.997545
0.999081
0.999439
0.999685
0.999772
0.999872
0.999944
0.999932
0.999854
0.999777
0.995728
0.962111
0.167073
-0.407334
-0.214838
0.5585
0.883592
0.518448
-0.205952
0.51507
0.93762
0.701135
0.948231
0.992839
0.998083
0.998928
0.99939
0.999593
0.99975
0.999901
0.999956
0.999925
0.999319
0.995312
0.983337
0.282084
-0.23521
-0.360159
0.111715
0.540347
0.59823
0.0745353
0.496966
0.855238
-0.232541
0.818208
0.99109
0.996312
0.997349
0.997705
0.99827
0.998472
0.999079
0.999592
0.999725
0.9994
0.99508
0.984276
0.381534
-0.0363074
-0.398044
-0.264935
-0.111522
0.523551
0.132596
0.508204
0.579462
-0.444357
0.608739
0.971756
0.990448
0.991955
0.992062
0.991976
0.995419
0.997528
0.997279
0.998835
0.998154
0.98961
0.984036
0.40661
0.0242665
-0.40335
-0.395413
-0.324504
0.281495
0.0184824
0.451859
0.49897
-0.360089
0.410248
0.889401
0.978117
0.978576
0.97772
0.98101
0.991303
0.991756
0.979725
0.988843
0.988363
0.963522
0.976137
0.293488
-0.222254
-0.547763
-0.475879
-0.338959
0.291423
-0.273565
0.253314
-0.0809041
-0.394391
0.403327
0.892104
0.960132
0.948596
0.944988
0.953204
0.976343
0.953931
0.88088
0.914132
0.955082
0.880618
0.931785
-0.289223
-0.489718
-0.606746
-0.515602
-0.357204
0.134517
-0.461776
-0.163035
-0.523698
-0.353669
0.603586
0.911938
0.934121
0.924876
0.933305
0.949429
0.958778
0.826741
0.577744
0.663149
0.828587
0.757032
0.811462
0.0982426
0.149316
0.198495
0.242367
0.280786
0.306297
0.317574
0.323847
0.310681
0.303104
0.292983
0.313022
0.333172
0.338355
0.340184
0.320818
0.242261
0.181779
-0.0643525
0.0830699
0.0362819
-0.0304118
-0.0541522
0.124526
0.243587
0.342364
0.372943
0.378466
0.364662
0.355062
0.352583
0.391574
0.331144
0.302928
0.307479
0.153207
0.0323046
-0.14307
0.0699435
-0.0202466
-0.195862
-0.263056
-0.0567767
0.0648536
0.275857
0.285707
0.351794
0.350248
0.336487
0.346167
0.291414
0.156207
0.0957959
0.216055
0.135117
-0.032524
-0.243422
0.050702
-0.161946
-0.428403
-0.472348
-0.412376
-0.459419
-0.163654
-0.323405
0.241333
0.218634
0.156629
0.130192
0.0362323
-0.114785
-0.196923
0.0689731
0.134348
-0.0422669
-0.311853
0.0394187
-0.168608
-0.288145
-0.246469
-0.600855
-0.723849
-0.672068
-0.660852
-0.068283
-0.134656
-0.257491
-0.482487
-0.470148
-0.559773
-0.405162
-0.0679591
0.0857835
-0.00237789
-0.332264
0.0285765
-0.253467
-0.522159
-0.343532
-0.479439
-0.55501
-0.739033
-0.849435
-0.678758
-0.644868
-0.564589
-0.701705
-0.714537
-0.677889
-0.539312
-0.245292
0.0867924
0.156548
-0.0273382
0.0173157
-0.242724
-0.730642
-0.59914
-0.210857
-0.546641
-0.779796
-0.757691
-0.685673
-0.730916
-0.743255
-0.751831
-0.744187
-0.699641
-0.582016
-0.358033
0.00661117
0.227709
0.257583
-0.0305924
-0.537981
-0.773125
-0.762362
-0.371624
-0.657145
-0.74908
-0.675069
-0.589472
-0.639685
-0.659691
-0.639541
-0.666962
-0.661899
-0.580151
-0.39612
-0.167556
0.225342
0.330455
-0.523857
-0.644191
-0.605399
-0.469119
-0.496465
-0.369792
-0.388923
-0.00789317
-0.366987
-0.219638
0.526794
0.795035
0.866269
0.877799
0.8781
0.842637
0.819308
0.505927
0.15006
0.2815
0.616086
0.595835
0.673983
-0.601272
-0.732456
-0.487826
-0.338668
-0.554337
-0.7863
-0.570866
-0.199462
-0.570313
-0.625522
-0.283677
0.358693
0.764577
0.676089
0.724164
0.525195
0.476411
0.169553
-0.312113
-0.0780997
0.285584
0.353842
0.536027
-0.66141
-0.704943
-0.590381
-0.117989
-0.592212
-0.885753
-0.798715
-0.503955
-0.879486
-0.481074
-0.385385
0.452396
0.347686
0.505019
0.436136
-0.111021
-0.467609
-0.431775
-0.78416
-0.645057
0.0137285
0.146143
0.263903
-0.787261
-0.635964
-0.814461
-0.54872
-0.870817
-0.921179
-0.871133
-0.759103
-0.381817
0.166668
0.0287155
0.158933
-0.365896
0.124541
-0.233863
-0.59475
-0.836349
-0.828765
-0.904749
-0.87481
-0.629384
-0.482622
-0.161541
-0.951192
-0.93847
-0.933598
-0.902271
-0.94976
-0.950445
-0.950985
-0.951295
-0.829166
-0.46756
-0.607307
0.126679
-0.586421
-0.429825
-0.702225
-0.861518
-0.930947
-0.949106
-0.954018
-0.945465
-0.902319
-0.843365
-0.67881
-0.974912
-0.967712
-0.961128
-0.962865
-0.970211
-0.971666
-0.982077
-0.990472
-0.970796
-0.897422
-0.913177
-0.45243
-0.889262
-0.779871
-0.906392
-0.948551
-0.965936
-0.978886
-0.981093
-0.973891
-0.958272
-0.921394
-0.859276
-0.984055
-0.975609
-0.969515
-0.969955
-0.974151
-0.980373
-0.988527
-0.993061
-0.991584
-0.97904
-0.961034
-0.902125
-0.981399
-0.932267
-0.986627
-0.983502
-0.983613
-0.98536
-0.991255
-0.986102
-0.966164
-0.910878
-0.813803
-0.986486
-0.976928
-0.97427
-0.973057
-0.973764
-0.980658
-0.9877
-0.995347
-0.996952
-0.996264
-0.9985
-0.998225
-0.99623
-0.989253
-0.994924
-0.990099
-0.989725
-0.989556
-0.99206
-0.984519
-0.967706
-0.944121
-0.899858
-0.994245
-0.988086
-0.984264
-0.977654
-0.975481
-0.977043
-0.985947
-0.993971
-0.998084
-0.998797
-0.999357
-0.999314
-0.998638
-0.998045
-0.997016
-0.994312
-0.993686
-0.991609
-0.994518
-0.989335
-0.987053
-0.982055
-0.970448
-0.997904
-0.995352
-0.99143
-0.984106
-0.982512
-0.97743
-0.984488
-0.991969
-0.997778
-0.999
-0.999526
-0.999619
-0.999352
-0.999127
-0.9978
-0.996326
-0.996851
-0.995039
-0.994452
-0.993173
-0.995708
-0.996291
-0.9962
-0.999153
-0.99803
-0.994992
-0.991259
-0.994545
-0.990987
-0.992949
-0.995932
-0.997902
-0.999142
-0.999682
-0.999738
-0.999653
-0.999474
-0.998309
-0.998292
-0.998574
-0.997213
-0.995963
-0.998577
-0.998582
-0.998512
-0.998939
-0.999653
-0.999112
-0.998783
-0.996928
-0.998634
-0.998676
-0.998447
-0.998946
-0.999429
-0.999621
-0.999853
-0.99979
-0.99973
-0.99957
-0.999219
-0.999344
-0.999196
-0.998996
-0.998907
-0.998648
-0.995562
-0.993076
-0.992725
-0.999843
-0.99965
-0.999672
-0.999139
-0.999716
-0.999868
-0.999849
-0.999929
-0.999954
-0.999958
-0.999963
-0.999856
-0.999798
-0.999615
-0.999483
-0.999686
-0.999661
-0.999439
-0.998094
-0.992495
-0.983398
-0.97659
-0.970753
-0.999932
-0.999898
-0.999915
-0.99985
-0.99994
-0.999994
-0.999995
-0.999999
-0.999999
-0.999996
-0.999988
-0.99969
-0.999827
-0.999788
-0.999754
-0.999822
-0.999863
-0.999766
-0.998927
-0.995458
-0.988818
-0.981375
-0.975489
-0.999978
-0.999976
-0.999982
-0.999984
-0.999996
-1
-1
-1
-1
-0.999996
-0.999984
-0.999887
-0.99993
-0.999893
-0.999915
-0.99993
-0.999935
-0.999928
-0.999836
-0.998879
-0.996274
-0.990647
-0.986836
-0.999992
-0.999995
-0.999997
-0.999998
-1
-1
-1
-1
-0.999997
-0.999982
-0.999958
-0.999928
-0.999972
-0.999953
-0.999983
-0.99998
-0.999975
-0.999977
-0.999974
-0.999784
-0.999164
-0.998504
-0.997495
-0.999998
-0.999999
-0.999999
-1
-1
-1
-1
-1
-0.999999
-0.999995
-0.99999
-0.99999
-0.999993
-0.999989
-0.999997
-0.999996
-0.999993
-0.999993
-0.999995
-0.999968
-0.999847
-0.999813
-0.999552
-1
-1
-1
-1
-1
-1
-1
-1
-0.999999
-0.999998
-0.999998
-0.999999
-0.999999
-0.999999
-1
-0.999999
-0.999999
-0.999998
-0.999999
-0.999997
-0.999981
-0.999974
-0.999929
-1
-1
-1
-1
-1
-1
-1
-1
-1
-1
-1
-1
-1
-1
-1
-1
-1
-1
-1
-1
-0.999998
-0.999998
-0.99999
-1
-1
-1
-1
-1
-1
-1
-1
-1
-1
-1
-1
-1
-1
-1
-1
-1
-1
-1
-1
-1
-1
-0.999999
-1
-1
-1
-1
-1
-1
-1
-1
-1
-1
-1
-1
-1
-1
-1
-1
-1
-1
-1
-1
-1
-1
-1
-1
-1
-1
-1
-1
-1
-1
-1
-1
-1
-1
-1
-1
-1
-1
-1
-1
-1
-1
-1
-1
-1
-1
-1
-1
-1
-1
-1
-1
-1
-1
-1
-1
-1
-1
-1
-1
-1
-1
-1
-1
-1
-1
-1
-1
-1
-1
-1
-1
-1
-1
-1
-1
-1
-1
-1
-1
-1
-1
-1
-1
-1
-1
-1
-1
-1
-1
-1
-1
-1
-1
-1
-1
-1
-1
-1
-1
-1
-1
-1
-1
-1
-1
-1
-1
-1
-1
-1
-1
-1
-1
-1
-1
-1
-1
-1
-1
-1
-1
-1
-1
-1
-1
-1
-1
-1
-1
-1
-1
-1
-1
-1
-1
-1
-1
-1
-1
-1
-1
-1
-1
-1
-1
-1
-1
-1
-1
-1
-1
-1
-1
-1
-1
-1
-1
-1
-1
-1
-1
-1
-1
-1
-1
-1
-1
-1
-1
-1
-1
-1
-1
-1
-1
-1
-1
-1
-1
-1
-1
-1
-1
-1
-1
-1
-1
-1
-1
-1
-1
-1
-1
-1
-1
-1
-1
-1
-1
-1
-1
-1
-1
-1
-1
-1
-1
-1
-1
-1
-1
-1
-1
-1
-1
-1
-1
-1
-1
-1
-1
-1
-1
-1
-1
-1
-1
-1
-1
-1
-1
-1
-1
-1
-1
-1
-1
-1
-1
-1
-1
-1
-1
-1
-1
-1
-1
-1
-1
-1
-1
-1
-1
-1
-1
-1
-1
-1
-1
-1
-1
-1
-1
-1
-1
-1
-1
-1
-1
-1
-1
-1
-1
-1
-1
-1
-1
-1
-1
-1
-1
-1
-1
-1
-1
-1
-1
-1
-1
-1
-1
-1
-1
-1
-1
-1
-1
-1
-1
-1
-1
-1
-1
-1
-1
-1
-1
-1
-1
-1
-1
-1
-1
-1
-1
-1
-1
-1
-1
-1
-1
-1
-1
-1
-1
-1
-1
-1
-1
-1
-1
-1
-1
-1
-1
-1
-1
-1
-1
-1
-1
-1
-1
-1
-1
-1
-1
-1
-1
-1
-1
-1
-1
-1
-1
-1
-1
-1
-1
-1
-1
-1
-1
-1
-1
-1
-1
-1
-1
-1
-1
-1
-1
-1
-1
-1
-1
-1
-1
-1
-1
-1
-1
-1
-1
-1
-1
-1
-1
-1
-1
-1
-1
-1
-1
-1
-1
-1
-1
-1
-1
-1
-1
-1
-1
-1
-1
-1
-1
-1
-1
-1
-1
-1
-1
-1
-1
-1
-1
-1
-1
-1
-1
-1
-1
-1
-1
-1
-1
-1
-1
-1
-1
-1
-1
-1
-1
-1
-1
-1
-1
-1
-1
-1
-1
-1
-1
-1
-1
-1
-1
-1
-1
-1
-1
-1
-1
-1
-1
-1
-1
-1
-1
-1
-1
-1
-1
-1
-1
-1
-1
-1
-1
-1
-1
-1
-1
-1
-1
-1
-1
-1
-1
-1
-1
-1
-1
-1
-1
-1
-1
-1
-1
-1
-1
-1
-1
-1
-1
-1
-1
-1
-1
-1
-1
0.729246
0.14972
-0.21005
-0.247894
0.645384
0.624712
0.553692
0.397768
0.259379
0.327164
0.333343
0.317364
-0.0731233
-0.0522026
-0.118072
-0.198719
-0.537135
-0.472333
-0.48961
-0.566251
-0.809409
-0.786923
-0.785762
-0.784405
-0.750726
-0.725833
-0.684384
-0.705479
-0.856018
-0.836804
-0.825693
-0.861041
-0.9599
-0.956733
-0.950083
-0.939863
-0.993842
-0.993745
-0.992436
-0.990358
-0.998752
-0.998587
-0.997567
-0.996201
-0.992113
-0.991943
-0.991865
-0.992094
-0.964537
-0.959856
-0.955809
-0.951799
-0.972206
-0.970776
-0.969623
-0.968873
-0.986385
-0.9875
-0.988659
-0.989588
-0.996278
-0.996363
-0.996866
-0.997979
-0.99931
-0.999294
-0.999144
-0.999337
-0.999934
-0.999931
-0.999836
-0.999885
-0.999991
-0.99999
-0.999985
-0.999987
-0.999999
-0.999999
-0.999998
-0.999998
-1
-1
-1
-1
-1
-1
-1
-1
-1
-1
-1
-1
-1
-1
-1
-1
-1
-1
-1
-1
-1
-1
-1
-1
-1
-1
-1
-1
-1
-1
-1
-1
-1
-1
-1
-1
-1
-1
-1
-1
-1
-1
-1
-1
-1
-1
-1
-1
-1
-1
-1
-1
-1
-1
-1
-1
-1
-1
-1
-1
-1
-1
-1
-1
-1
-1
-1
-1
-1
-1
-1
-1
-1
-1
-1
-1
-1
-1
-1
-1
-1
-1
-1
-1
-1
-1
-1
-1
0.0298698
-0.351709
-0.263482
-0.428685
-0.469886
-0.528081
-0.492894
-0.340296
-0.325531
-0.411385
-0.362891
-0.360629
-0.386692
-0.363455
-0.226055
-0.167745
-0.238614
0.0907943
0.387598
-0.082502
0.301875
0.565028
0.589467
0.617712
0.635813
0.617794
0.534268
0.415167
0.37697
0.39692
0.418965
0.447244
0.469238
0.489886
0.450287
0.232408
0.341264
0.48067
0.0869986
0.528694
0.63585
0.713518
0.739613
0.798557
0.803921
0.782863
0.706746
0.46256
0.328263
0.133022
0.17874
0.222997
0.268814
0.371637
0.492646
0.650655
0.639094
0.066056
0.275915
0.278353
0.31723
0.278723
0.465096
0.578081
0.578993
0.419806
0.104798
-0.269618
-0.435949
-0.383378
-0.27708
-0.192503
-0.0232915
0.161028
0.446091
0.552989
-0.472439
-0.316648
-0.235637
-0.281087
-0.338521
-0.192566
0.0968974
0.145912
-0.0882246
-0.476103
-0.695437
-0.705287
-0.667138
-0.5134
-0.401239
-0.299661
-0.273804
0.122342
0.436891
-0.686231
-0.487414
-0.555312
-0.654142
-0.649722
-0.46447
-0.189365
-0.233501
-0.466023
-0.728178
-0.851816
-0.844072
-0.778996
-0.686242
-0.547561
-0.391768
-0.468343
-0.137131
0.347059
-0.728286
-0.736464
-0.760804
-0.764085
-0.710886
-0.328241
-0.33713
-0.557061
-0.827938
-0.915876
-0.908906
-0.870537
-0.721975
-0.678175
-0.518897
-0.57577
-0.460114
-0.0328485
0.337293
-0.86953
-0.812853
-0.654944
-0.668465
-0.64326
-0.452293
-0.530433
-0.809553
-0.929753
-0.942374
-0.900792
-0.851555
-0.785179
-0.712273
-0.620079
-0.504952
-0.271753
0.095969
0.321703
-0.949019
-0.878364
-0.633361
-0.788438
-0.421182
-0.365946
-0.761825
-0.94059
-0.94557
-0.922694
-0.875105
-0.81707
-0.748702
-0.670551
-0.512737
-0.26875
-0.0146094
0.179515
0.292625
-0.988027
-0.966787
-0.881212
-0.810934
-0.661022
-0.757253
-0.944069
-0.913355
-0.872005
-0.843296
-0.812654
-0.76962
-0.701484
-0.604946
-0.490909
-0.227946
0.0143781
0.175841
0.24936
-0.993616
-0.977535
-0.938652
-0.903821
-0.906275
-0.921879
-0.925517
-0.882991
-0.859731
-0.842497
-0.826606
-0.793692
-0.748591
-0.676797
-0.53783
-0.257575
-0.00756047
0.156869
0.219221
-0.982379
-0.959173
-0.942257
-0.931275
-0.925402
-0.910767
-0.877771
-0.859929
-0.848954
-0.839531
-0.828735
-0.816487
-0.777656
-0.763017
-0.749088
-0.537129
-0.254937
0.114786
0.209212
-0.945236
-0.934961
-0.926204
-0.916699
-0.908785
-0.903993
-0.90422
-0.929071
-0.943783
-0.954523
-0.958408
-0.965271
-0.95501
-0.91976
-0.839792
-0.583674
-0.311765
-0.0205386
0.197678
-0.96848
-0.968467
-0.96988
-0.965758
-0.966279
-0.965791
-0.978888
-0.990052
-0.990324
-0.992921
-0.992068
-0.994527
-0.992508
-0.981174
-0.846724
-0.38176
-0.101279
-0.0260757
0.187117
-0.990358
-0.990673
-0.991217
-0.990617
-0.991469
-0.993844
-0.998563
-0.998848
-0.998946
-0.999201
-0.998749
-0.998323
-0.993854
-0.993379
-0.955143
-0.800403
-0.359469
-0.00592966
0.18684
-0.998632
-0.997739
-0.996429
-0.996454
-0.99729
-0.999154
-0.999575
-0.999626
-0.999678
-0.99965
-0.998813
-0.997849
-0.980931
-0.990707
-0.919084
-0.662465
-0.297881
0.0283969
0.190396
-0.999703
-0.99949
-0.998671
-0.998176
-0.997805
-0.999241
-0.999822
-0.999886
-0.999816
-0.999239
-0.994038
-0.98805
-0.951696
-0.942544
-0.663343
-0.374267
-0.130135
0.104646
0.203015
-0.999941
-0.999922
-0.999751
-0.999693
-0.999509
-0.999766
-0.999908
-0.999911
-0.999439
-0.9963
-0.981517
-0.95139
-0.868189
-0.663042
-0.212473
0.035606
0.142007
0.201827
0.222151
-0.999992
-0.999987
-0.999942
-0.999917
-0.999917
-0.999948
-0.999962
-0.99984
-0.998578
-0.992977
-0.972044
-0.916872
-0.792488
-0.451862
0.0232248
0.165032
0.152234
0.153887
0.227852
-0.999999
-0.999998
-0.999994
-0.999984
-0.999978
-0.999991
-0.999965
-0.999733
-0.998503
-0.994122
-0.982762
-0.962047
-0.934902
-0.850347
-0.546405
-0.208389
-0.248117
-0.149917
0.216226
-1
-1
-0.999999
-0.999997
-0.999997
-0.999993
-0.999914
-0.999339
-0.996947
-0.990914
-0.976926
-0.947827
-0.913527
-0.882167
-0.813834
-0.691549
-0.569796
-0.162892
0.121181
-1
-1
-1
-0.999999
-0.999999
-0.999999
-0.999984
-0.99983
-0.999033
-0.994907
-0.981972
-0.947953
-0.900416
-0.84834
-0.772428
-0.64658
-0.42733
-0.154626
-0.0461855
-1
-1
-1
-1
-1
-0.999999
-0.999988
-0.99987
-0.998947
-0.99545
-0.983009
-0.964027
-0.925917
-0.869478
-0.79517
-0.707494
-0.586695
-0.339167
-0.129016
-1
-1
-1
-1
-1
-1
-0.999995
-0.999958
-0.999513
-0.997466
-0.991155
-0.973331
-0.936673
-0.877372
-0.825975
-0.749473
-0.625271
-0.422552
-0.154569
-1
-1
-1
-1
-1
-1
-0.999999
-0.999994
-0.999864
-0.999139
-0.993516
-0.978438
-0.953868
-0.893738
-0.847561
-0.757433
-0.600015
-0.430786
-0.162
-1
-1
-1
-1
-1
-1
-1
-0.999995
-0.999924
-0.998785
-0.992651
-0.982144
-0.966678
-0.927261
-0.898764
-0.765145
-0.582096
-0.377469
-0.163717
-1
-1
-1
-1
-1
-1
-1
-0.999997
-0.999963
-0.999559
-0.998275
-0.991743
-0.987954
-0.953672
-0.935613
-0.79732
-0.569411
-0.370062
-0.161011
-1
-1
-1
-1
-1
-1
-1
-0.999999
-0.999988
-0.9999
-0.999457
-0.995635
-0.996933
-0.985187
-0.975085
-0.870782
-0.589542
-0.357337
-0.175389
-1
-1
-1
-1
-1
-1
-1
-1
-0.999997
-0.999971
-0.999714
-0.998033
-0.999321
-0.998416
-0.997078
-0.962903
-0.752344
-0.377402
-0.212272
-1
-1
-1
-1
-1
-1
-1
-1
-1
-0.999993
-0.999813
-0.999755
-0.999841
-0.999882
-0.999811
-0.994556
-0.889212
-0.566203
-0.333105
-1
-1
-1
-1
-1
-1
-1
-1
-1
-0.999999
-0.999976
-0.999959
-0.999977
-0.999977
-0.99995
-0.999641
-0.984292
-0.861593
-0.651455
-1
-1
-1
-1
-1
-1
-1
-1
-1
-1
-1
-0.999999
-0.999998
-0.999991
-0.999953
-0.999814
-0.998514
-0.97516
-0.885966
-1
-1
-1
-1
-1
-1
-1
-1
-1
-1
-1
-1
-0.999998
-0.99999
-0.999915
-0.999654
-0.999336
-0.995667
-0.950351
-1
-1
-1
-1
-1
-1
-1
-1
-1
-1
-1
-0.999999
-0.999996
-0.999978
-0.99981
-0.999381
-0.999267
-0.997445
-0.961323
-1
-1
-1
-1
-1
-1
-1
-1
-1
-1
-1
-0.999999
-0.999996
-0.999974
-0.99976
-0.999296
-0.999122
-0.998089
-0.967419
-1
-1
-1
-1
-1
-1
-1
-1
-1
-1
-1
-0.999998
-0.999996
-0.999973
-0.999721
-0.999212
-0.99905
-0.998196
-0.968169
-1
-1
-1
-1
-1
-1
-1
-1
-1
-1
-1
-1
-1
-0.999994
-0.999942
-0.999426
-0.999059
-0.99774
-0.965776
-1
-1
-1
-1
-1
-1
-1
-1
-1
-1
-1
-1
-1
-1
-0.999988
-0.999764
-0.999396
-0.997895
-0.964268
-1
-1
-1
-1
-1
-1
-1
-1
-1
-1
-1
-1
-1
-1
-0.999998
-0.999984
-0.999891
-0.999185
-0.979655
-1
-1
-1
-1
-1
-1
-1
-1
-1
-1
-1
-1
-1
-1
-1
-1
-0.999983
-0.999699
-0.984534
-1
-1
-1
-1
-1
-1
-1
-1
-1
-1
-1
-1
-1
-1
-1
-1
-0.999997
-0.999988
-0.99017
-1
-1
-1
-1
-1
-1
-1
-1
-1
-1
-1
-1
-1
-1
-1
-1
-0.999998
-0.999997
-0.99698
)
;

boundaryField
{
    leftWall
    {
        type            zeroGradient;
    }
    rightWall
    {
        type            zeroGradient;
    }
    lowerWall
    {
        type            zeroGradient;
    }
    atmosphere
    {
        type            zeroGradient;
    }
    defaultFaces
    {
        type            empty;
    }
}


// ************************************************************************* //
