/*--------------------------------*- C++ -*----------------------------------*\
| =========                 |                                                 |
| \\      /  F ield         | foam-extend: Open Source CFD                    |
|  \\    /   O peration     | Version:     4.1                                |
|   \\  /    A nd           | Web:         http://www.foam-extend.org         |
|    \\/     M anipulation  |                                                 |
\*---------------------------------------------------------------------------*/
FoamFile
{
    version     2.0;
    format      ascii;
    class       volScalarField;
    location    "0.7";
    object      p;
}
// * * * * * * * * * * * * * * * * * * * * * * * * * * * * * * * * * * * * * //

dimensions      [1 -1 -2 0 0 0 0];

internalField   nonuniform List<scalar> 
2268
(
1747.57
1525.05
1705.25
814.436
547.044
521.067
1176.09
499.66
589.656
661.185
643.37
689.714
688.093
687.619
683.761
662.462
652.052
628.943
615.744
599.293
598.252
602.896
1278.24
1640.68
1380.84
1635.79
575.595
517.13
690.091
1726.24
663.43
551.594
617.216
565.662
641.86
632.037
630.685
628.404
604.485
592.936
571.088
554.888
533.059
537.399
535.517
542.619
1889.71
1431.46
1772.41
1230.47
533.881
1234.18
1699.35
1280.82
524.984
1047.51
521.297
588.86
574.495
573.182
568.912
545.218
533.585
511.133
494.363
478.046
479.558
472.83
476.959
1714.61
1766.76
1518.66
1922.51
1206.9
950.045
1750.65
1306.29
625.282
1368.45
625.081
565.217
516.899
520.71
513.315
487.173
471.945
449.541
430.518
413.469
408.567
415.793
417.101
1474.52
1934.59
1416.06
1709.91
1846.61
1088.5
1762.47
1209.72
1082.23
1036.29
999.445
515.497
473.811
468.363
458.82
432.456
415.671
390.562
364.135
344.995
353.76
354.251
357.448
1383.23
1876.73
1386.45
1390.23
1498.1
1612.27
1895.48
1293.49
1257.37
1273.92
1483.12
533.2
425.392
405.594
405.212
386.961
352.408
333.116
295.592
278.693
291.557
301.825
298.983
1627.1
1677.75
944.273
1119.03
1457.33
1533.04
1632.85
1645.3
1829.55
1222.04
1515.37
488.789
388.308
377.114
373.855
338.238
310.008
290.176
313.988
248.831
240.892
328.165
263.927
1568
1085.89
760.633
990.759
1282.41
1594.15
1237.42
1753.98
1051
1320.24
998.201
420.048
358.296
326.163
317.636
290.371
225.364
388.155
918.867
663.19
339.763
497.542
373.963
2478.56
2277.58
2123.17
2012.82
1957.24
1905.41
1851.9
1655.39
1720.19
1813.56
1774.73
1772.4
1853.11
1871.64
1882.97
2098.3
2316.54
2442.06
2531.07
2416.91
2296.76
2224.69
2155.58
2164.49
1957.64
1649.79
1549.41
1500.95
1680.66
1686.6
1534.88
1698.89
1842.37
1883.17
2095.03
2402.37
2506.93
2449.49
2234.23
2243.75
2046.07
1921.92
2173.67
2076.25
1780.96
1747.06
1591.09
1602.5
1721.58
1540.26
1820.91
2046.52
2170.16
2186.03
2353.43
2443.23
2293.03
2166.11
2059.32
1548.36
1445.32
1643.34
1512.57
1896.06
1704.48
1804.41
1751.15
2003.82
1918.59
2024.07
2020.82
2034.37
2266.79
2306.42
2406.39
2152.09
2089.19
1992.93
1836.06
1914.61
1054.48
735.497
907.742
932.19
1892.33
1875.84
1780.47
1309.34
1381.47
1147.01
1605.17
2185.25
2232.2
2374.13
2126.93
1994.02
1811.44
1239.03
1707.73
1366.32
1160.69
682.548
447.262
898.094
885.195
1097.07
723.258
724.904
825.605
1220.72
1950.63
2207.42
2249.32
2466.07
1913.19
1768.73
685.183
1064.81
1906.2
1176.8
576.057
623.786
809.058
661.387
611.52
584.964
648.512
746.951
1078.43
1722.99
2208.7
2115.04
2194.18
1816.58
1114.45
604.542
635.497
1591.15
849.329
640.419
823.275
1054.5
903.145
816.97
877.183
840.094
844.424
1065.97
1602.24
2085.45
2083.69
2033.44
1015.12
626.748
746.546
1108.48
997.904
1470.37
1364.82
1847.42
1451.69
1654.76
1120.33
528.915
352.271
305.299
284.522
337.315
329.698
1074.17
1747.72
1510.16
736.038
825.123
713.381
769.864
372.203
1037.04
1329.9
821.31
346.752
868.094
1652.04
903.761
699.178
1499.39
1376.69
470.124
596.582
500.197
1022.7
1041.63
1620.96
1410.19
1704.23
1441.04
1289.05
980.294
533.9
441.076
774.2
1641.49
752
118.746
282.427
1035.68
212.314
1057.97
1212.87
1139.87
1392.76
997.945
1198.59
1659.01
1031.98
1134.24
299.495
703.887
1604.57
1532.13
1498.6
224.498
598.366
197.717
850.858
118.626
57.7013
119.227
339.289
1231.91
1540.5
1578.89
1539.74
1265.04
1675.62
1511.05
716.221
180.385
215.565
80.3351
125.695
664.522
990.191
1584.62
14.1757
26.6673
29.6172
76.8223
24.0049
25.6915
24.0648
23.3198
203.942
1039.1
696.91
1461.3
711.775
1179.99
463.38
124.32
41.2833
32.1935
27.7547
36.7104
79.9826
163.057
524.122
5.50535
10.3682
12.7743
13.0464
11.03
10.6751
6.42656
4.40118
12.1542
97.0054
63.1089
958.801
83.2757
298.916
60.268
20.9692
12.455
11.2159
10.4087
14.2323
23.684
54.0856
134.55
3.89363
5.63909
8.46417
8.03309
7.24289
5.96876
3.87377
3.02526
2.96135
6.09661
12.8649
63.2599
4.21938
36.2591
3.16071
4.17762
5.6781
6.55286
6.42086
8.20848
15.1657
60.0465
210.613
3.2446
5.68876
4.71141
6.01792
6.85261
4.55497
3.04985
1.9929
1.75013
1.0437
0.591887
0.544972
0.930268
2.03314
1.0355
2.16982
2.82212
3.8599
4.01224
5.93215
12.1279
23.9484
68.894
0.520694
0.809846
1.30799
4.45631
4.51074
4.63771
2.16317
1.06051
0.593977
0.278068
0.264228
0.275255
0.346812
0.439383
0.803037
1.01809
1.42025
2.25726
2.26092
2.76409
2.77054
3.85634
7.26437
-0.887006
-0.699413
-0.254472
1.8086
2.13925
3.63787
1.85724
0.512059
0.0644974
0.035535
0.0323857
0.0545549
0.112069
0.195796
0.348661
0.579348
0.797397
1.20797
1.49267
1.58213
1.12775
1.05194
1.22261
-0.976686
-1.06639
-0.790323
-0.371899
-0.631456
-0.22868
-0.254182
-0.370801
-0.35974
-0.273717
-0.220526
-0.160201
-0.119382
-0.0311533
0.0280023
0.12051
0.462589
0.785889
1.2203
0.906926
0.835313
0.698744
0.928882
-1.10376
-1.12952
-1.18649
-1.0811
-1.08478
-1.04041
-0.945853
-0.836274
-0.724588
-0.596435
-0.486785
-0.370774
-0.319521
-0.229358
-0.11543
-0.130519
0.185207
0.668327
1.04801
1.0178
0.65452
0.6559
0.950649
-1.29215
-1.3207
-1.318
-1.27944
-1.26071
-1.17485
-1.1187
-1.05509
-0.900229
-0.779193
-0.683431
-0.618975
-0.549614
-0.470626
-0.358151
-0.154638
-0.120354
0.331032
0.573862
0.94979
2.23429
3.89126
4.48305
-1.40463
-1.40867
-1.39018
-1.40965
-1.34933
-1.31699
-1.23758
-1.16995
-1.11457
-0.998302
-0.915658
-0.861639
-0.786559
-0.708554
-0.684309
-0.601067
-0.543222
-0.47929
-0.424332
-1.26266
-0.85241
0.630285
1.76154
-1.56475
-1.54965
-1.5375
-1.51317
-1.48896
-1.43676
-1.38682
-1.33746
-1.28754
-1.20537
-1.14983
-1.13652
-1.10112
-1.00273
-0.908728
-1.02789
-0.988682
-1.09385
-1.52725
-2.3693
-2.41785
-2.49334
-2.11898
-1.64629
-1.67064
-1.65426
-1.6591
-1.6199
-1.59756
-1.5438
-1.53015
-1.44682
-1.43007
-1.33562
-1.31945
-1.3495
-1.34363
-1.31336
-1.31112
-1.37058
-1.78554
-1.9616
-2.37903
-3.03173
-3.39114
-3.23337
-1.81556
-1.79027
-1.80308
-1.78861
-1.76925
-1.72967
-1.7103
-1.66975
-1.62748
-1.61333
-1.59289
-1.59731
-1.52849
-1.49016
-1.55827
-1.65818
-1.66801
-1.83268
-2.2471
-2.48208
-2.8801
-3.01583
-3.15341
-1.95383
-1.98218
-1.92145
-1.94305
-1.92479
-1.90565
-1.87687
-1.84031
-1.82252
-1.79778
-1.83452
-1.78277
-1.77952
-1.7834
-1.82735
-1.88422
-2.04174
-2.09333
-2.23501
-2.46457
-2.73363
-2.86274
-2.95365
-2.10348
-2.07256
-2.12323
-2.08023
-2.06521
-2.0509
-2.03682
-2.02457
-2.01921
-1.97831
-1.98722
-1.98946
-2.00225
-1.99795
-2.04921
-2.12105
-2.24598
-2.3164
-2.45619
-2.61465
-2.75047
-2.86192
-2.92333
-2.25778
-2.26489
-2.22286
-2.25002
-2.2471
-2.2186
-2.21671
-2.21841
-2.18189
-2.18095
-2.18768
-2.22997
-2.18841
-2.25472
-2.34383
-2.31719
-2.33481
-2.48629
-2.55634
-2.69118
-2.81948
-2.86583
-2.98105
-2.42556
-2.419
-2.43214
-2.37985
-2.42501
-2.39591
-2.36855
-2.37012
-2.33934
-2.32628
-2.34327
-2.35808
-2.43718
-2.4646
-2.48596
-2.47654
-2.56451
-2.63006
-2.76746
-2.82998
-2.88203
-2.94711
-3.00251
-2.58228
-2.58908
-2.57544
-2.62124
-2.56689
-2.54004
-2.5195
-2.53188
-2.51032
-2.54403
-2.54703
-2.55535
-2.58449
-2.60584
-2.66206
-2.69236
-2.7187
-2.78981
-2.85502
-2.95143
-3.00371
-3.07884
-3.11684
-2.75892
-2.77085
-2.76842
-2.73586
-2.7199
-2.73075
-2.71174
-2.68922
-2.7051
-2.7008
-2.71185
-2.7112
-2.74299
-2.76099
-2.81493
-2.9066
-2.95776
-2.96586
-3.04541
-3.07869
-3.11346
-3.17535
-3.24575
-2.89199
-2.88302
-2.88379
-2.89188
-2.89292
-2.85906
-2.92026
-2.88972
-2.89497
-2.90121
-2.899
-2.94623
-2.94982
-2.98918
-2.99293
-3.00583
-3.10322
-3.10174
-3.13306
-3.19313
-3.25497
-3.31642
-3.31599
-3.05721
-3.05635
-3.0543
-3.04855
-3.05363
-3.05752
-3.04355
-3.04892
-3.05326
-3.06005
-3.06235
-3.08003
-3.09712
-3.12877
-3.14403
-3.18445
-3.21389
-3.22168
-3.28759
-3.35977
-3.39006
-3.40378
-3.47925
-3.23458
-3.21941
-3.21091
-3.21134
-3.21105
-3.23585
-3.21743
-3.22108
-3.22046
-3.22974
-3.23311
-3.24679
-3.28103
-3.32623
-3.30319
-3.3227
-3.38388
-3.44528
-3.45445
-3.49192
-3.53389
-3.57473
-3.59855
-3.35111
-3.35726
-3.36096
-3.36248
-3.36218
-3.35799
-3.36959
-3.40308
-3.3813
-3.39204
-3.39717
-3.40509
-3.41394
-3.42872
-3.47061
-3.53493
-3.52922
-3.54419
-3.57418
-3.62044
-3.64662
-3.6922
-3.71636
-3.52012
-3.51886
-3.51732
-3.51954
-3.51877
-3.52476
-3.52303
-3.52393
-3.5331
-3.54291
-3.55152
-3.57029
-3.58874
-3.65035
-3.59012
-3.63882
-3.66426
-3.69103
-3.71552
-3.75535
-3.79414
-3.82447
-3.85263
-3.66782
-3.66945
-3.66978
-3.67094
-3.6714
-3.67566
-3.68225
-3.69083
-3.69716
-3.70339
-3.71267
-3.72701
-3.73852
-3.76591
-3.81127
-3.81301
-3.82502
-3.85536
-3.90922
-3.92223
-3.94566
-3.96923
-3.99798
-3.82163
-3.82245
-3.82313
-3.82456
-3.82477
-3.82992
-3.8309
-3.83856
-3.84427
-3.85986
-3.84548
-3.87192
-3.89656
-3.90478
-3.91013
-3.93209
-3.96959
-3.98597
-4.01819
-4.03195
-4.06216
-4.10967
-4.16348
-3.97249
-3.97287
-3.97441
-3.97543
-3.97779
-3.98431
-3.98863
-3.99426
-4.00812
-4.01506
-4.02716
-4.03219
-4.04083
-4.06382
-4.0882
-4.10149
-4.11849
-4.1272
-4.16203
-4.18197
-4.22438
-4.24441
-4.27382
-4.12369
-4.12365
-4.12484
-4.12621
-4.12856
-4.13422
-4.12043
-4.14247
-4.15913
-4.17499
-4.19146
-4.18228
-4.18983
-4.21376
-4.2223
-4.24096
-4.25042
-4.28112
-4.29278
-4.30721
-4.35172
-4.35433
-4.40187
-4.27515
-4.27575
-4.27571
-4.27958
-4.28444
-4.28966
-4.30249
-4.30163
-4.30567
-4.31046
-4.31467
-4.32492
-4.33579
-4.3571
-4.37606
-4.40926
-4.37093
-4.41532
-4.43358
-4.48254
-4.49356
-4.50133
-4.54303
-4.42738
-4.42782
-4.4294
-4.43001
-4.43564
-4.43609
-4.44917
-4.44934
-4.47601
-4.48222
-4.45803
-4.473
-4.4936
-4.49531
-4.51406
-4.5299
-4.5679
-4.56693
-4.57765
-4.59654
-4.61834
-4.63706
-4.64722
-4.57666
-4.5769
-4.57822
-4.58031
-4.57964
-4.58449
-4.59188
-4.59585
-4.5963
-4.60005
-4.64521
-4.60467
-4.63237
-4.64932
-4.65471
-4.6615
-4.66676
-4.70409
-4.72036
-4.72924
-4.74021
-4.76008
-4.80561
-4.72926
-4.72956
-4.73067
-4.73324
-4.73214
-4.73579
-4.74464
-4.72825
-4.75144
-4.75615
-4.76082
-4.77289
-4.78236
-4.78459
-4.7963
-4.80853
-4.8123
-4.82818
-4.83594
-4.85754
-4.87547
-4.90633
-4.90537
-4.87566
-4.87405
-4.87599
-4.88143
-4.86283
-4.88497
-4.89442
-4.90002
-4.90376
-4.88451
-4.91022
-4.91876
-4.9235
-4.93111
-4.93895
-4.94957
-4.95465
-4.96391
-4.98677
-5.01765
-5.01867
-5.02321
-5.03241
-5.03277
-5.03292
-5.03482
-5.03942
-5.04976
-5.04435
-5.04515
-5.04751
-5.05382
-5.06187
-5.06098
-5.06399
-5.05265
-5.06786
-5.07859
-5.08701
-5.08959
-5.10195
-5.12091
-5.12854
-5.12731
-5.14813
-5.1628
-5.17129
-5.1571
-5.17721
-5.18473
-5.1849
-5.19149
-5.1957
-5.20416
-5.19585
-5.20705
-5.20626
-5.21647
-5.22749
-5.22206
-5.22026
-5.22529
-5.23068
-5.23528
-5.248
-5.25205
-5.26301
-5.27866
-5.28636
-5.34308
-5.35384
-5.3437
-5.33975
-5.34601
-5.34315
-5.3493
-5.34833
-5.35252
-5.35376
-5.3563
-5.35962
-5.35916
-5.3588
-5.37027
-5.35069
-5.37666
-5.36186
-5.38517
-5.38918
-5.3914
-5.4037
-5.41142
-5.45725
-5.4795
-5.48653
-5.49311
-5.49335
-5.50282
-5.49459
-5.53167
-5.46972
-5.53482
-5.47926
-5.50905
-5.52819
-5.51081
-5.48537
-5.52574
-5.48252
-5.52764
-5.49671
-5.52153
-5.5299
-5.53767
-5.52039
-5.68004
-5.67058
-5.64172
-5.62631
-5.66641
-5.61959
-5.67123
-5.6173
-5.68257
-5.62365
-5.67349
-5.6567
-5.63516
-5.64636
-5.67898
-5.67434
-5.69067
-5.67661
-5.69013
-5.65458
-5.68005
-5.65453
-5.68574
691.308
1730.98
1590.12
1567.09
741.32
801.129
1070.31
1426.67
1536.11
1426.68
1440.94
1502.72
1729.17
1760.51
1730.93
1633.59
903.775
1102.34
1077.73
871.028
236.138
294.598
300.896
297.179
358.47
423.48
538.278
489.841
138.28
172.447
194.72
131.703
13.7584
16.1103
20.5263
27.686
1.48527
1.68417
2.14645
2.72105
1.13407
1.33007
1.57735
1.82283
0.817013
0.111175
0.753484
1.55442
8.8645
11.9309
15.363
18.9793
4.11346
5.47913
6.85296
7.28418
-1.95903
-1.97171
-2.09392
-2.28314
-3.12614
-3.12975
-3.08755
-3.01123
-3.08598
-3.03856
-2.96947
-2.91512
-2.92378
-2.89952
-2.90383
-2.8604
-2.91779
-2.91787
-2.88743
-2.83381
-2.9421
-2.9273
-2.92061
-2.90427
-3.00246
-2.99595
-3.00909
-2.98586
-3.11807
-3.11444
-3.13797
-3.11715
-3.23954
-3.25232
-3.25624
-3.2608
-3.35096
-3.36314
-3.36307
-3.36748
-3.48822
-3.49929
-3.51324
-3.54457
-3.60891
-3.6269
-3.64204
-3.66036
-3.75098
-3.757
-3.77932
-3.78904
-3.89635
-3.90627
-3.93122
-3.94484
-4.00837
-4.04428
-4.04595
-4.07814
-4.17625
-4.18136
-4.18753
-4.19866
-4.29564
-4.30648
-4.33491
-4.33616
-4.41681
-4.42752
-4.43932
-4.44976
-4.54552
-4.56237
-4.56958
-4.58681
-4.66299
-4.67313
-4.6953
-4.69322
-4.80745
-4.81641
-4.81615
-4.82029
-4.91991
-4.93176
-4.93511
-4.94868
-5.04144
-5.04596
-5.0625
-5.06356
-5.18195
-5.1759
-5.18212
-5.19491
-5.28998
-5.29932
-5.30032
-5.30767
-5.4169
-5.4201
-5.41964
-5.42462
-5.5384
-5.53331
-5.54899
-5.53554
-5.67084
-5.6804
-5.66658
-5.68211
1954.94
1531.06
1708.2
1414.31
1317.07
1173.61
1274.2
1671.46
1725.52
1479.21
1576.61
1591.56
1563.37
1596.65
1877.65
2031.13
1986.13
2232.42
1899.81
2106.5
1696.64
1174.47
1178.54
1146.25
1106.4
1140.85
1332.87
1509.65
1557.69
1499.76
1458.46
1431.38
1385.7
1365.04
1477.77
1957.09
1850.44
1711.89
1974.13
1145.57
874.952
712.023
724.28
580.952
586.916
586.389
709.366
1261.51
1574.02
1778.92
1901.82
1856.08
1821.41
1694.11
1476.64
1192.52
1306.48
1857.59
1635.78
1630.93
1570.6
1630.64
1339.7
1093.24
977.152
1233.8
1823.34
1666.46
1312.76
1388.88
1637.34
1802.11
1955.4
1835.28
1671.95
1419.47
1182.57
1474.19
1648.83
1583.51
1498.39
1709.58
1857.6
1788.42
1800.38
1202.54
576.61
539.194
637.546
1049.7
1371.13
1624.57
1628.94
1978.86
1564.33
510.654
1076.84
930.247
656.778
645.157
1125.61
1701.1
1651.68
1099.56
470.542
213.637
223.881
339.104
518.619
908.77
1363.88
1171.92
1800.48
1661.82
423.757
409.403
358.709
365.081
484.926
1404.42
1419.4
888.901
238.28
106.594
118.623
166.232
453.474
556.471
986.14
824.981
1135.68
1778.53
1559.94
117.114
223.144
600.64
559.286
602.269
1098.76
928.849
263.673
88.2706
77.7374
120.603
194.768
312.849
466.704
709.462
1024.3
1548.24
1751.08
1545.36
21.5464
96.1915
629.544
268.392
1151.27
1276.69
367.808
75.6439
73.1474
89.9087
147.898
257.628
401.385
579.85
1044.7
1577.56
1813.82
1704.24
1591.09
3.58823
9.67892
90.0326
213.61
531.915
341.299
60.8351
99.0848
155.15
194.592
248.417
350.205
522.26
791.162
1115.46
1629.84
1826.03
1743.68
1666.64
2.39338
5.84354
25.1481
67.0126
49.5161
47.4885
61.6539
118.176
160.44
169.436
198.314
273.412
368.969
553.788
945.736
1586.23
1823.89
1763.87
1699.33
5.88749
16.1947
27.3892
16.8926
33.5045
54.6065
120.373
141.558
155.672
158.848
172.466
199.6
270.938
295.353
350.175
917.355
1599.58
1766.2
1678.55
23.0524
31.2606
38.2304
47.9374
54.6523
60.7724
60.0683
32.7688
21.1598
12.3255
10.2584
8.18936
14.5755
39.6212
140.717
717.043
1447.22
1784.28
1658.54
5.5693
5.06468
2.88456
5.7627
5.81546
8.80969
2.74245
0.294552
0.569603
0.243598
0.588406
0.372389
2.16354
3.90204
167.21
1208.63
1676.86
1742.69
1640.9
-2.16037
-1.67375
-1.99904
-1.09164
-1.14187
-0.745549
-0.963249
-0.707486
-0.560448
-0.390227
-0.213775
-0.279054
1.11401
1.06977
15.0256
235.491
1271.31
1741.24
1634.27
-2.8102
-2.56184
-2.01535
-2.06066
-1.72245
-1.39949
-0.994669
-0.894973
-0.670653
-0.433242
-0.618728
-1.69908
1.52933
-0.121031
38.4032
523.599
1423.89
1741.8
1633.16
-2.78819
-2.62933
-2.26091
-2.09206
-1.85432
-1.61636
-1.19687
-1.06378
-0.730553
-0.893058
-1.17152
-2.25405
12.5008
24.9786
520.171
1272.44
1655.09
1713.26
1627.44
-2.72279
-2.59506
-2.42899
-2.24591
-1.97484
-1.72761
-1.57115
-1.13182
-0.75959
-0.387084
1.46609
13.456
105.531
605.51
1565
1697.75
1715.93
1639.13
1632.97
-2.79464
-2.6622
-2.53021
-2.36282
-2.21119
-1.98011
-1.72011
-1.73648
-0.961451
-0.249993
4.65945
46.049
275.52
1097.58
1627.74
1678.28
1764.59
1720.23
1650.71
-2.86373
-2.79353
-2.64351
-2.51722
-2.39383
-2.31559
-2.26
-2.08972
-1.99938
-3.01426
-2.93884
12.2987
56.1069
184.335
894.826
1628.74
1588.59
1762.28
1684.69
-2.97598
-2.90722
-2.83437
-2.73173
-2.71099
-2.66045
-2.72861
-2.86423
-3.23965
-4.4722
-2.21415
26.9549
83.0939
143.005
260.712
554.343
904.393
1748.38
1820.59
-3.10002
-3.07827
-3.0201
-3.00281
-2.97441
-3.04084
-3.26429
-3.61254
-4.08354
-4.99586
-3.78985
22.095
87.8617
188.408
337.589
674.482
1281.89
1758.01
1875.27
-3.24022
-3.23812
-3.23637
-3.28484
-3.33278
-3.35619
-3.51943
-3.77022
-4.01498
-4.74985
-3.4814
13.7554
52.9651
129.611
254.813
486.961
818.281
1423.8
1785.9
-3.38692
-3.4005
-3.42842
-3.43559
-3.51363
-3.61094
-3.83414
-3.9836
-4.72872
-5.10159
-3.46418
3.97211
36.1
104.775
186.297
374.394
702.876
1232.34
1748.19
-3.55619
-3.55518
-3.5996
-3.59419
-3.68661
-3.83459
-4.03777
-4.37834
-4.76119
-5.18879
-4.70956
-0.9423
11.9195
56.1299
157.045
356.49
765.2
1211.91
1723.3
-3.68909
-3.71962
-3.79885
-3.87504
-4.02342
-4.05601
-4.37664
-4.62531
-4.93865
-5.39218
-5.80309
-4.36149
0.292186
26.2275
67.9607
313.798
795.531
1314.96
1706
-3.81631
-3.84633
-3.89858
-3.99926
-4.11622
-4.30483
-4.41526
-4.60485
-5.02746
-5.50162
-6.0301
-5.92152
-6.40646
8.61396
23.2676
232.167
802.482
1311.24
1691.54
-3.98961
-4.05241
-4.06912
-4.16702
-4.1968
-4.27543
-4.39358
-4.65159
-5.0645
-5.19007
-5.82915
-5.88361
-5.63239
-4.79484
-5.08534
82.9761
691.344
1322.1
1647.49
-4.07902
-4.14616
-4.17222
-4.29296
-4.36315
-4.47232
-4.55867
-4.71219
-4.88857
-5.08456
-5.13053
-5.13854
-4.86244
-4.85465
-6.05
-1.06448
290.263
1233.47
1573.57
-4.24099
-4.2723
-4.33209
-4.38235
-4.43508
-4.57791
-4.60767
-4.7393
-4.83688
-5.18676
-4.98867
-5.01697
-4.91121
-4.85148
-4.90372
-5.79814
54.2857
686.367
1313.13
-4.36547
-4.37799
-4.41413
-4.48748
-4.56883
-4.59721
-4.66651
-4.70744
-4.88931
-4.68051
-4.99549
-5.0342
-4.92227
-4.98581
-4.80488
-5.21067
-5.26956
77.5184
489.155
-4.47991
-4.50207
-4.58999
-4.58102
-4.6571
-4.74775
-4.75093
-4.8902
-4.82134
-5.02456
-4.93166
-4.98044
-4.94952
-4.98609
-5.02934
-4.86376
-5.18205
-3.17074
67.0604
-4.59474
-4.65793
-4.65065
-4.71123
-4.73395
-4.78306
-4.86483
-4.84596
-4.83542
-4.80244
-4.83871
-4.84455
-4.87696
-4.77135
-5.09319
-4.98243
-4.79502
-5.27422
8.87626
-4.71962
-4.73808
-4.79278
-4.79398
-4.8667
-4.87809
-4.92183
-4.96838
-4.92629
-4.99639
-4.93457
-5.00983
-5.00644
-4.88362
-4.91656
-5.05195
-4.86781
-4.59778
5.77923
-4.84001
-4.86772
-4.87783
-4.92876
-4.94289
-4.95232
-5.00533
-5.03419
-4.9782
-5.05454
-4.95414
-5.05985
-5.14504
-5.01335
-5.10804
-5.00272
-5.12945
-5.05042
1.93387
-4.95971
-4.98199
-5.00431
-5.01418
-5.05166
-5.10213
-5.0679
-5.12704
-5.07418
-5.13861
-5.09047
-5.11884
-5.05851
-5.05308
-4.97241
-5.09789
-4.90759
-4.99076
2.12962
-5.08389
-5.08094
-5.11732
-5.13324
-5.165
-5.13233
-5.19809
-5.2076
-5.15679
-5.22994
-5.22437
-5.21593
-5.21787
-5.22467
-5.11501
-5.00851
-5.06914
-5.04596
3.18008
-5.19646
-5.20495
-5.22134
-5.23186
-5.22871
-5.27686
-5.2644
-5.27379
-5.27272
-5.27564
-5.28289
-5.28445
-5.31653
-5.4119
-5.39597
-5.27506
-5.33815
-5.2957
3.26866
-5.31215
-5.32033
-5.33947
-5.34195
-5.35975
-5.36481
-5.36794
-5.38395
-5.3744
-5.39675
-5.40109
-5.41842
-5.41439
-5.43626
-5.45723
-5.48119
-5.47067
-5.45063
-2.48537
-5.42764
-5.43895
-5.43865
-5.44501
-5.44925
-5.46536
-5.46379
-5.47483
-5.46365
-5.49517
-5.48748
-5.49603
-5.55048
-5.53048
-5.60858
-5.52517
-5.55399
-5.74261
-4.23625
-5.55537
-5.55166
-5.55935
-5.56744
-5.56124
-5.58574
-5.57878
-5.60404
-5.58323
-5.59354
-5.68622
-5.59884
-5.63735
-5.72771
-5.8351
-5.89017
-5.83563
-6.07821
-5.75215
-5.66048
-5.6798
-5.67127
-5.67302
-5.67631
-5.67401
-5.69434
-5.68798
-5.73529
-5.75514
-5.73362
-5.8218
-5.87294
-5.74327
-5.77866
-5.84231
-5.94631
-6.89848
-8.53809
)
;

boundaryField
{
    leftWall
    {
        type            calculated;
        value           nonuniform List<scalar> 
50
(
1747.57
1640.68
1889.71
1714.61
1474.52
1383.23
1627.1
1568
1015.12
769.864
533.9
224.498
14.1757
5.50535
3.89363
3.2446
0.520694
-0.887006
-0.976686
-1.10376
-1.29215
-1.40463
-1.56475
-1.64629
-1.81556
-1.95383
-2.10348
-2.25778
-2.42556
-2.58228
-2.75892
-2.89199
-3.05721
-3.23458
-3.35111
-3.52012
-3.66782
-3.82163
-3.97249
-4.12369
-4.27515
-4.42738
-4.57666
-4.72926
-4.87566
-5.03277
-5.17129
-5.34308
-5.45725
-5.68004
)
;
    }
    rightWall
    {
        type            calculated;
        value           nonuniform List<scalar> 
50
(
2531.07
2449.49
2293.03
2152.09
2126.93
2466.07
2194.18
2033.44
1899.81
1711.89
1306.48
1419.47
1564.33
1661.82
1559.94
1545.36
1591.09
1666.64
1699.33
1678.55
1658.54
1640.9
1634.27
1633.16
1627.44
1632.97
1650.71
1684.69
1820.59
1875.27
1785.9
1748.19
1723.3
1706
1691.54
1647.49
1573.57
1313.13
489.155
67.0604
8.87626
5.77923
1.93387
2.12962
3.18008
3.26866
-2.48537
-4.23625
-5.75215
-8.53809
)
;
    }
    lowerWall
    {
        type            calculated;
        value           nonuniform List<scalar> 
62
(
1766.87
1533.96
1724.9
840.09
575.817
550.406
1200.13
528.248
619.025
690.574
672.784
719.137
717.517
717.044
713.188
691.89
681.481
658.372
645.166
628.684
627.567
631.838
1295.42
1278.24
542.619
476.959
417.101
357.448
298.983
263.927
373.963
744.356
1765.33
1614.78
1591.02
2478.56
2416.91
2234.23
2166.11
2089.19
1994.02
1913.19
1816.58
2494.77
2294.58
2140.9
2031.19
1976.15
1924.67
1871.31
1674.89
1739.48
1832.74
1793.77
1791.78
1872.76
1891.35
1902.68
2117.68
2334.74
2459.42
2544.88
)
;
    }
    atmosphere
    {
        type            calculated;
        value           nonuniform List<scalar> 
46
(
-5.72904
-5.72904
-5.72904
-5.72904
-5.72904
-5.72904
-5.72904
-5.72904
-5.72904
-5.72904
-5.72904
-5.72904
-5.72904
-5.72904
-5.72904
-5.72904
-5.72904
-5.72904
-5.72904
-5.72904
-5.72904
-5.72904
-5.72904
-5.72904
-5.72904
-5.72904
-5.72904
-5.72904
-5.72904
-5.72904
-5.72904
-5.72935
-5.73187
-5.73848
-5.74753
-5.76076
-5.77663
-5.81352
-5.82479
-5.86817
-5.85139
-5.92129
-6.02091
-6.04385
-5.99284
-14.1423
)
;
    }
    defaultFaces
    {
        type            empty;
    }
}


// ************************************************************************* //
