/*--------------------------------*- C++ -*----------------------------------*\
| =========                 |                                                 |
| \\      /  F ield         | foam-extend: Open Source CFD                    |
|  \\    /   O peration     | Version:     4.1                                |
|   \\  /    A nd           | Web:         http://www.foam-extend.org         |
|    \\/     M anipulation  |                                                 |
\*---------------------------------------------------------------------------*/
FoamFile
{
    version     2.0;
    format      ascii;
    class       volScalarField;
    location    "0.7";
    object      pd;
}
// * * * * * * * * * * * * * * * * * * * * * * * * * * * * * * * * * * * * * //

dimensions      [1 -1 -2 0 0 0 0];

internalField   nonuniform List<scalar> 
2268
(
1766.87
1533.96
1724.9
840.09
575.817
550.406
1200.13
528.248
619.025
690.574
672.784
719.137
717.517
717.044
713.188
691.89
681.481
658.372
645.166
628.684
627.567
631.838
1295.42
1699.85
1405.71
1695.07
656.297
603.31
769.083
1763.67
742.47
638.853
703.509
653.369
730.035
720.284
718.948
716.678
692.763
681.218
659.373
643.173
621.341
625.677
623.611
629.233
1975.63
1474.93
1829
1343.28
672.417
1345.93
1759.78
1392.37
667.475
1169.73
664.153
735.456
721.499
720.251
716.015
692.336
680.714
658.272
641.507
625.188
626.653
619.627
622.881
1846.29
1845.35
1584.53
2036.76
1365.74
1114.52
1862.62
1460.6
813.501
1442.93
811.648
770.282
722.528
726.447
719.088
693.004
677.795
655.452
636.481
619.446
614.51
621.283
621.489
1657.41
2063.46
1496.6
1806.72
1963.15
1289.62
1913.87
1409.71
1292.22
1110.81
1214.32
776.724
737.426
732.185
722.649
696.271
679.939
655.098
628.623
609.706
618.373
617.718
620.187
1610.97
2043.24
1484.51
1488.04
1606.18
1817.03
2059.53
1529.31
1499.74
1378.52
1713.18
839.036
745.611
725.926
725.386
707.682
674.733
655.443
615.841
600.623
613.37
619.611
618.706
1873.13
1824.47
1030.96
1218.03
1581.65
1777.45
1770.74
1887.99
2008.15
1339.57
1784.39
850.377
763.338
750.004
746.042
712.005
688.069
663.287
672.462
615.096
614.946
687.996
632.703
1722.54
1197.37
847.545
1096.83
1421.22
1844.95
1357.78
1943.49
1157.45
1464.33
1351.63
841.979
785.363
751.229
744.562
720.743
657.598
788.963
1264.05
1030.61
743.939
885.695
772.592
2494.77
2294.58
2140.9
2031.19
1976.15
1924.67
1871.31
1674.89
1739.48
1832.74
1793.77
1791.78
1872.76
1891.35
1902.68
2117.68
2334.74
2459.42
2544.88
2464.82
2342.55
2267.53
2197.45
2214.68
2013.16
1709.23
1610.05
1561.81
1740.88
1746.42
1594.59
1760.21
1900.87
1940.4
2152.43
2452.87
2552.13
2487.42
2313.08
2315.9
2105.25
1976.23
2244.45
2156.95
1874.97
1841.51
1690.59
1701.81
1819.91
1639.16
1915.41
2130.85
2250.17
2274.95
2436.48
2513.93
2348.81
2274.41
2144.99
1607.04
1500.25
1705.84
1571.31
1983.66
1775.3
1932.77
1876.51
2122.85
2034.43
2129.57
2111.25
2116.84
2376.52
2422.76
2504.49
2223.09
2226.83
2102.47
1930.36
2014.14
1106.97
772.734
953.662
980.039
2019.17
1990.23
1877.41
1377.92
1450.89
1205.19
1683.99
2308.61
2375.8
2506.79
2217.07
2160.43
1931.49
1315.7
1813.5
1449.37
1232.43
725.408
472.135
954.24
944
1167.67
772.181
771.396
877.66
1295.2
2072.89
2383.67
2438.06
2629.69
2107.69
1912.94
737.052
1142.63
2056.21
1264.16
618.718
670.521
869.467
713.544
661.234
632.817
697.716
804.216
1158.1
1846.36
2401.25
2350.46
2437.69
2029.15
1216.89
656.945
690.172
1730.86
925.883
695.793
895.648
1145.23
983.337
892.233
957.184
914.196
919.202
1158.63
1736.06
2268.7
2353.17
2328.84
1141.17
721.513
851.953
1249.48
1133.25
1651.25
1528.5
2111.63
1621.4
1868.94
1531.33
1009.61
850.43
806.659
785.827
828.777
814.771
1473.38
2052.65
1853.6
1167.83
1251.83
1159.69
899.959
461.357
1205.87
1544.1
965.496
422.498
1011.97
1917.97
1046.13
823.514
1736.38
1826.28
1051.47
1150.51
1069.1
1523.34
1526.02
2007.38
1637.67
2011.65
1866.61
1737.55
1488.15
664.476
558.798
938.764
1985.74
914.66
166.086
364.691
1235.77
261.228
1266.43
1455.87
1708.46
1916.76
1589.51
1763.92
2005.01
1240.2
1359.62
384.751
847.443
2006.99
1984.39
1994.79
315.6
762.596
280.171
1063.21
178.194
95.2833
179.973
451.723
1523.77
2069.68
2044.51
2065.23
1553.87
2190.98
1858.87
897.035
255.077
297.599
124.353
182.815
836.736
1223.3
1963.44
39.176
59.2351
64.6751
130.728
51.2622
53.0042
51.0702
50.4224
298.215
1323.2
905.533
2043.38
923.931
1483.64
617.432
195.133
77.4135
60.0293
52.3721
65.4942
130.966
242.063
686.483
20.8658
30.3314
36.3671
35.8741
29.5843
28.5182
17.9888
11.1387
32.8848
164.948
116.023
1276.89
148.791
432.374
115.226
51.1988
33.0346
24.6255
22.5506
30.589
48.9735
100.659
216.575
15.4458
22.7567
29.3044
28.5657
25.055
19.8735
12.4934
8.77835
10.1356
22.0679
39.3449
127.186
17.7853
83.284
12.7628
15.8408
17.3624
17.2497
13.3848
18.5453
38.3107
118.46
330.853
14.4563
23.4878
24.2653
26.4021
26.6518
19.4662
13.0184
6.67133
5.42193
5.32204
3.05688
3.19973
5.13368
11.4638
5.96111
10.4212
11.3969
12.6504
11.1231
18.4862
36.2553
64.4816
140.507
6.74171
11.6259
14.9751
23.2138
24.8572
23.715
14.4262
7.23342
3.63759
2.78626
2.29492
2.34134
2.94253
3.47762
4.59026
6.8348
7.75635
10.2626
8.10041
12.4626
13.9205
18.7148
30.7544
2.61394
4.90666
8.61674
16.719
18.2912
23.9653
16.3325
8.84273
3.57344
2.54388
2.09471
2.031
2.30781
2.57368
3.804
5.24695
5.09247
7.08059
7.76904
8.74445
6.24307
5.7084
5.94573
1.60068
2.52505
5.55173
9.22155
5.94576
9.46492
7.69283
4.99275
3.30758
2.29188
1.85849
1.85922
1.97353
2.22007
3.29272
3.42046
3.55853
5.14401
6.67825
3.96187
3.9066
3.84768
3.65286
1.14889
1.65558
1.91082
3.76214
2.11447
2.10831
2.4013
2.05737
1.74295
1.69395
1.57031
1.73997
1.84795
2.0938
2.53455
2.41
2.88428
3.55909
4.02507
4.48779
7.34113
9.48615
9.96911
0.906542
1.08592
1.06218
1.63268
1.06661
0.992976
1.06582
1.05173
1.18613
1.30524
1.39302
1.56259
1.69272
1.95856
2.20068
2.20577
2.28753
3.06579
5.16218
12.2132
22.7286
31.1096
37.9126
0.83127
0.868574
0.866807
0.915497
0.876999
0.850008
0.928276
0.992192
1.04778
1.1676
1.25913
1.63203
1.56158
1.68495
1.74524
1.75528
1.77725
2.01039
3.26055
6.83351
14.8558
24.167
31.3081
0.747402
0.765294
0.769727
0.791742
0.80247
0.849619
0.899388
0.948767
0.999198
1.08597
1.15491
1.28046
1.2678
1.40936
1.47823
1.34077
1.37691
1.29016
1.01178
1.52023
4.86289
11.3445
15.2628
0.774746
0.746763
0.761233
0.75437
0.791775
0.813832
0.867594
0.881452
0.967794
1.00291
1.12672
1.17849
1.09695
1.12614
1.12037
1.12582
1.07363
0.656959
0.489338
0.369527
0.563768
0.975551
2.26555
0.723489
0.747373
0.73422
0.748227
0.767348
0.806908
0.826283
0.866935
0.910096
0.929327
0.957101
0.952215
1.01733
1.06205
0.982101
0.88404
0.878131
0.714055
0.296409
0.109705
-0.106294
-0.219135
-0.0394306
0.708467
0.679751
0.740454
0.718759
0.736984
0.756121
0.784931
0.8218
0.840698
0.866251
0.829826
0.881049
0.883826
0.880151
0.835023
0.778659
0.621611
0.570854
0.428219
0.203085
-0.0390864
-0.160703
-0.19389
0.683554
0.71443
0.66376
0.70674
0.721759
0.736073
0.750152
0.762419
0.76787
0.808926
0.800167
0.797655
0.78491
0.789182
0.737837
0.66611
0.541191
0.470981
0.331025
0.172815
0.0398878
-0.0708568
-0.12123
0.654389
0.647272
0.689308
0.662149
0.665064
0.693565
0.695452
0.693753
0.730274
0.731228
0.724508
0.682204
0.723766
0.657456
0.568341
0.595006
0.577383
0.425926
0.355854
0.221019
0.0929452
0.0466568
-0.0669056
0.611795
0.61836
0.605222
0.657509
0.61235
0.641444
0.66881
0.667234
0.69802
0.711075
0.694091
0.679279
0.600182
0.572763
0.551397
0.560819
0.472851
0.4073
0.269901
0.207377
0.155343
0.0902676
0.0349952
0.580272
0.573468
0.58711
0.541313
0.595665
0.622515
0.643057
0.630674
0.65223
0.618524
0.615518
0.607198
0.57806
0.556711
0.500494
0.470196
0.44385
0.372746
0.307528
0.211119
0.158842
0.083714
0.0457219
0.528828
0.516893
0.519326
0.551892
0.567842
0.556994
0.576002
0.598528
0.582647
0.586949
0.575899
0.576542
0.54476
0.526754
0.472818
0.381143
0.329986
0.321884
0.242332
0.209052
0.174283
0.112399
0.0419935
0.520952
0.529919
0.529152
0.521062
0.520021
0.553878
0.492683
0.523225
0.517967
0.511734
0.513941
0.466715
0.463118
0.423763
0.420009
0.40711
0.309717
0.3112
0.279877
0.219814
0.15797
0.0965183
0.0969537
0.480921
0.481783
0.483832
0.489589
0.484503
0.480615
0.49459
0.489212
0.484879
0.478084
0.475781
0.458102
0.441016
0.409367
0.39411
0.353682
0.324241
0.316455
0.250549
0.178368
0.148074
0.134359
0.058889
0.42875
0.443925
0.452422
0.451987
0.452284
0.427481
0.445904
0.442254
0.442871
0.43359
0.430216
0.416538
0.382304
0.337098
0.360143
0.340634
0.279452
0.218053
0.208879
0.17141
0.129443
0.0885963
0.0647774
0.437418
0.431266
0.427568
0.426044
0.426348
0.43053
0.418938
0.385445
0.40722
0.396487
0.391353
0.383437
0.374589
0.359803
0.317918
0.253593
0.259309
0.244336
0.21434
0.168086
0.141908
0.0963236
0.0721645
0.393595
0.394858
0.396397
0.394181
0.394947
0.388957
0.390691
0.389791
0.380616
0.370808
0.362204
0.343434
0.324983
0.263373
0.323601
0.274896
0.249463
0.22269
0.198202
0.158373
0.119581
0.0892537
0.0610913
0.371092
0.369464
0.369132
0.367975
0.367512
0.363259
0.356664
0.348081
0.34175
0.335519
0.32624
0.311905
0.300389
0.273001
0.227639
0.225905
0.21389
0.183551
0.129693
0.116681
0.0932588
0.069683
0.0409348
0.34248
0.34166
0.340978
0.339544
0.339339
0.334188
0.333209
0.32555
0.319837
0.304246
0.31863
0.292185
0.267544
0.259326
0.253977
0.23202
0.194514
0.178141
0.145915
0.132162
0.101949
0.0544434
0.000632145
0.316817
0.316437
0.314891
0.313875
0.311509
0.304995
0.300673
0.295039
0.281178
0.274244
0.262146
0.257111
0.248473
0.225487
0.201105
0.187816
0.17081
0.162105
0.127277
0.107328
0.0649263
0.0448892
0.0154879
0.290812
0.290852
0.289658
0.288287
0.285942
0.28028
0.294064
0.272028
0.255372
0.239511
0.223037
0.232221
0.224664
0.200739
0.192202
0.173541
0.164073
0.133373
0.121714
0.107286
0.0627793
0.0601675
0.012626
0.264539
0.263944
0.263981
0.260109
0.255256
0.250031
0.237199
0.238057
0.234021
0.229235
0.225026
0.214776
0.203899
0.182594
0.16363
0.13043
0.168761
0.124375
0.106107
0.0571516
0.0461306
0.0383572
-0.00333666
0.237506
0.237066
0.235488
0.23488
0.229248
0.228794
0.215718
0.215543
0.188873
0.182663
0.206858
0.191884
0.171289
0.169578
0.150829
0.134988
0.0969855
0.0979552
0.0872354
0.0683507
0.0465497
0.0278313
0.0176672
0.21342
0.213177
0.211863
0.209767
0.21044
0.205589
0.198202
0.194227
0.193777
0.190036
0.144875
0.185413
0.157711
0.140757
0.135375
0.128579
0.123325
0.085996
0.0697202
0.0608406
0.0498678
0.0300028
-0.0155261
0.186015
0.185711
0.184607
0.182038
0.183136
0.179485
0.17064
0.187028
0.163836
0.159126
0.154458
0.14239
0.132917
0.130683
0.118975
0.10675
0.102978
0.0870973
0.0793358
0.0577352
0.039806
0.00894575
0.00990964
0.164812
0.166423
0.16448
0.159041
0.177644
0.155499
0.146048
0.140451
0.136712
0.155965
0.130255
0.121711
0.116971
0.109365
0.101522
0.0908979
0.0858246
0.0765563
0.0537014
0.0228249
0.021805
0.0172634
0.00806483
0.132899
0.132745
0.130844
0.126246
0.115901
0.121315
0.120516
0.118154
0.111846
0.103797
0.104681
0.101678
0.113012
0.0978048
0.0870711
0.0786555
0.0760711
0.0637176
0.0447545
0.0371247
0.0383594
0.0175387
0.00286045
0.119571
0.133755
0.113648
0.106125
0.105963
0.0993674
0.0951608
0.0866957
0.0950083
0.08381
0.0845966
0.0743847
0.0633717
0.0687949
0.0705999
0.065574
0.0601814
0.055575
0.0428607
0.038809
0.0278532
0.0121942
0.0045004
0.0729765
0.0622152
0.0723519
0.0763034
0.070043
0.0729009
0.0667531
0.0677236
0.0635294
0.0622969
0.0597549
0.0564334
0.0568905
0.0572536
0.0457825
0.065362
0.0393909
0.0541979
0.0308848
0.0268738
0.0246543
0.0123541
0.00463095
0.0839969
0.0617462
0.054721
0.0481394
0.0478956
0.0384273
0.046654
0.00957416
0.0715237
0.00643296
0.0619842
0.0321961
0.0130537
0.0304368
0.0558783
0.0155101
0.0587257
0.0136077
0.0445372
0.019714
0.0113467
0.00357791
0.0208545
-0.0136004
-0.00413471
0.0247254
0.0401321
3.0444e-05
0.0468541
-0.0047896
0.0491449
-0.0161232
0.0427952
-0.00704819
0.00974484
0.0312856
0.0200796
-0.0125422
-0.00789983
-0.0242318
-0.0101661
-0.0236893
0.0118609
-0.0136052
0.0119168
-0.0192984
1143.39
2023.69
1800.29
1771
1281.82
1333.8
1574.06
1883.78
2029.04
1945.19
1961.19
2016.33
2149.12
2190.97
2130.68
1995.52
1139.71
1376.43
1344.7
1096.57
347.446
420.402
427.43
423.13
519.302
600.252
741.654
680.3
241.455
289.153
318.826
230.344
45.3741
50.3614
59.7477
74.1457
8.11726
8.48932
10.0315
12.2223
4.02207
4.41504
5.58053
7.09559
10.5217
9.93291
10.7751
11.7281
49.0941
56.7482
64.2302
71.8632
36.888
39.5921
41.9841
42.9091
15.587
14.039
12.6172
11.3617
3.74023
3.58229
2.9537
1.73153
0.322601
0.380006
0.626016
0.434918
-0.17272
-0.146807
-0.0321598
-0.0478096
-0.117521
-0.1169
-0.0795008
-0.027928
-0.0289853
-0.0141346
-0.00589845
0.0102443
0.0349672
0.0414939
0.0284013
0.0516628
0.0444835
0.0481128
0.0245955
0.0454111
0.0482085
0.0354246
0.0315048
0.0269446
0.0619813
0.0498039
0.0498749
0.045463
0.0499161
0.0388502
0.0248999
-0.00643231
0.0544236
0.0364283
0.0212927
0.0029676
0.0375408
0.0315282
0.00920421
-0.000511852
0.0173673
0.00744505
-0.0174993
-0.0311233
0.0305458
-0.00536988
-0.00703609
-0.0392309
-0.0121442
-0.0172509
-0.023423
-0.0345497
-0.00633943
-0.0171811
-0.0456097
-0.0468606
-0.00230942
-0.0130202
-0.0248213
-0.0352589
-0.00582805
-0.0226787
-0.0298929
-0.0471229
0.00189789
-0.00824073
-0.0304173
-0.0283295
-0.0173662
-0.0263255
-0.0260653
-0.0302068
-0.00463306
-0.016484
-0.0198345
-0.0334084
-0.000973295
-0.00549066
-0.0220301
-0.0230876
-0.0162874
-0.01024
-0.0164574
-0.029241
0.000875359
-0.00845802
-0.00945608
-0.0168133
-0.000849123
-0.00405047
-0.00358171
-0.00856275
0.00284426
0.00794189
-0.00774424
0.00570837
-0.00440217
-0.0139617
-0.000141948
-0.0156648
2231.16
1705.93
1909.12
1567.67
1459.47
1299.85
1409.38
1849.98
1905.6
1636.39
1745.55
1761.44
1726.9
1765.32
2082.58
2256.98
2191.1
2521.23
2271.35
2411.61
2124.65
1689.88
1701.04
1679.24
1645.51
1674.21
1840.37
1975.61
2011.03
1958.01
1923.45
1906.37
1867.56
1855.09
1957.08
2367.62
2294.63
2201.65
2395.73
1742.59
1515.92
1383.14
1404.11
1284.61
1293.77
1285.59
1379.74
1837.86
2095.79
2222.39
2362.2
2333.1
2314.83
2225.33
2055.88
1836.78
1949.55
2341.87
2215.9
2211.82
2167.68
2204.57
1995.23
1805.27
1692.92
1882.97
2337.88
2007.68
1569.83
1667.68
1962.29
2164.7
2391.72
2356.32
2325.64
2126.47
1458.48
1823.5
2043.91
1957.11
1838.69
2116.27
2414.43
2376.06
2273.67
1480.41
736.969
691.921
807.476
1294.76
1676.04
1985.13
2003.06
2558.69
2310.03
687.075
1371.49
1191.26
860.275
848.96
1430.36
2164.82
2091.51
1409.6
631.335
301.046
314.492
465.402
695.817
1162.59
1714.68
1482.36
2294.64
2442.47
598.916
580.846
514.446
517.992
669.438
1829.81
1841.17
1171.67
349.565
161.983
178.341
250.087
630.37
763.541
1295.53
1100.33
1482.16
2392.9
2419.59
209.053
354.46
843.262
791.942
851.425
1476.9
1257.31
397.779
138.867
119.956
192.719
302.253
466.624
672.108
981.602
1376.7
2060.04
2520.65
2479.28
60.9865
188.178
910.771
433.652
1593.15
1762.89
554.594
122.561
117.14
152.428
247.697
403.22
600.127
839.692
1428.51
2148.63
2573.65
2611.73
2586.94
15.096
38.6292
190.041
374.991
809.979
544.774
110.619
175.424
265.652
328.715
408.295
546.798
777.058
1127.47
1549.03
2283.26
2675.97
2723.82
2707.64
10.2728
29.058
84.3908
154.69
133.594
120.538
131.898
226.527
288.819
312.665
355.652
460.485
597.097
846.761
1364.69
2260.21
2718.33
2801.22
2789.79
26.7047
59.5102
86.2455
85.7215
107.706
143.638
240.466
277.636
301.116
311.812
335.392
374.19
480.915
517.592
585.967
1362.74
2321.79
2836.64
2835.01
82.4725
100.639
116.346
135.614
150.001
160.249
158.29
103.871
77.3998
57.8889
52.2068
43.4453
59.8372
118.734
304.979
1140.59
2148.91
2786.16
2879.03
41.3103
40.4145
36.467
44.037
43.4868
47.5437
27.0059
12.7087
12.5761
9.4785
10.6675
8.00423
12.2541
26.6533
347.624
1889.54
2645.47
2796.98
2924.75
10.5942
10.7316
9.82352
11.4307
10.3584
8.36121
2.90713
2.83801
2.86529
2.76775
3.49878
3.93245
10.9199
10.904
66.243
462.383
2009.43
2879.17
2991.89
1.1551
2.46656
4.55687
4.43787
3.74134
1.96785
1.90677
1.94324
2.11802
2.42125
3.61353
3.64621
28.5449
13.9313
135.079
925.538
2271.99
2982.47
3069.06
0.111774
0.547802
1.93495
2.68977
3.33959
1.80542
1.55479
1.61567
2.07072
2.91456
10.7849
17.7246
80.7828
109.66
953.077
2062.6
2761.29
3113.84
3153.29
0.014983
0.168546
0.557053
0.817263
1.31284
1.21869
1.20942
1.68773
2.9854
8.75139
33.2834
89.3842
297.516
1093.32
2645.22
3085.22
3240.17
3239.27
3259.81
0.00346405
0.142681
0.33628
0.537621
0.688104
0.876902
1.12764
1.36692
4.4305
14.6434
52.9295
176.405
587.885
1900.54
3073.64
3300.68
3361.64
3320.79
3362.66
0.0500613
0.121931
0.278077
0.418803
0.550014
0.611363
0.721008
1.332
3.61495
9.8753
28.4782
76.2755
161.567
418.171
1573.77
2782.05
2663.68
3012.26
3456.7
0.0615914
0.13082
0.204328
0.310712
0.331302
0.39195
0.483985
1.44858
5.33439
14.3062
39.541
115.611
225.905
336.112
559.847
1039.86
1577.98
3041.78
3518.72
0.0625664
0.0843688
0.142797
0.160719
0.189014
0.124179
-0.0659463
-0.110012
0.878583
7.2639
30.6491
113.599
256.431
440.416
711.089
1249.14
2198.28
3088.21
3377.5
0.0475299
0.0496454
0.0514403
0.0030795
-0.0448238
-0.0666831
-0.207954
-0.228192
1.25918
6.75774
29.4858
78.9797
181.593
351.383
597.964
970.371
1497.49
2500.64
3216.28
0.0260206
0.01244
-0.0154694
-0.0226192
-0.100631
-0.19734
-0.412005
-0.488817
-0.397959
2.90684
16.0233
54.8683
149.826
319
487.301
806.011
1347.29
2218.62
3191.77
-0.0180516
-0.0170477
-0.0614599
-0.0560449
-0.148465
-0.296353
-0.498328
-0.828875
-0.958675
0.0495559
11.1955
41.5053
96.2561
246.237
426.639
790.504
1479.53
2225.13
3207.16
-0.0257607
-0.0562897
-0.135516
-0.21171
-0.360083
-0.392662
-0.713148
-0.952628
-1.13026
0.556943
11.6199
31.2533
61.7505
160.493
252.67
748.91
1569.44
2459.05
3239.52
-0.027787
-0.0578011
-0.110054
-0.210739
-0.3277
-0.516303
-0.626626
-0.809935
-1.16785
-0.870177
0.915376
12.5133
17.7733
95.4831
142.757
615.098
1626.18
2509.59
3282.31
-0.0758871
-0.138689
-0.1554
-0.253301
-0.283082
-0.361705
-0.479792
-0.735997
-1.12626
-1.08309
-0.921542
5.78191
3.40573
25.0725
42.8384
325.546
1484.4
2586
3260.58
-0.0401049
-0.107241
-0.133309
-0.254043
-0.324235
-0.433405
-0.519733
-0.672845
-0.844445
-0.990618
-0.583149
2.49134
0.422753
1.91882
2.80689
71.5543
773.065
2481.84
3155.59
-0.0768821
-0.108191
-0.167984
-0.218242
-0.27097
-0.413806
-0.443558
-0.575124
-0.672001
-1.00819
-0.470194
-0.373542
-0.431732
-0.472687
-0.406423
7.72456
268.258
1535.34
2657.93
-0.0761682
-0.0886898
-0.124828
-0.19818
-0.279526
-0.307903
-0.377209
-0.418134
-0.599872
-0.389624
-0.659156
-0.661966
-0.586173
-0.652102
-0.413592
-0.242513
26.5503
340.489
1172.83
-0.0654103
-0.0875697
-0.175489
-0.166525
-0.242603
-0.333251
-0.336437
-0.475699
-0.406837
-0.609837
-0.516374
-0.564277
-0.530576
-0.552331
-0.5127
-0.0540084
2.12128
48.4109
299.121
-0.0550515
-0.118235
-0.110962
-0.171537
-0.194256
-0.243372
-0.325139
-0.306268
-0.295719
-0.262718
-0.298829
-0.303797
-0.332532
-0.210216
-0.361418
0.360659
1.22135
8.26582
120.231
-0.0547342
-0.0731977
-0.127889
-0.12909
-0.201813
-0.213207
-0.256942
-0.303488
-0.261392
-0.331399
-0.269243
-0.34249
-0.333417
-0.169211
0.176777
1.04589
1.51335
5.81806
98.6467
-0.0499278
-0.0776417
-0.0877484
-0.138679
-0.152805
-0.162235
-0.21525
-0.24411
-0.188104
-0.264309
-0.163408
-0.266972
-0.346748
-0.164371
0.229152
1.44833
1.76059
4.21648
83.5557
-0.0444354
-0.0667193
-0.0890389
-0.0989006
-0.13638
-0.186855
-0.152624
-0.211767
-0.158867
-0.223203
-0.174245
-0.19878
-0.134867
-0.0762471
0.584956
1.72134
2.32929
4.3132
84.5745
-0.0434207
-0.0404743
-0.0768508
-0.0927726
-0.124534
-0.0918623
-0.157624
-0.167127
-0.116295
-0.189446
-0.183684
-0.174875
-0.176515
-0.17065
0.0594356
1.4163
2.30848
5.63769
93.8606
-0.0307955
-0.039282
-0.0556713
-0.0661986
-0.0630423
-0.111199
-0.0987335
-0.108129
-0.107057
-0.109973
-0.117051
-0.118643
-0.150755
-0.245558
-0.201007
0.450601
1.30519
5.17957
98.9747
-0.0212915
-0.0294686
-0.0486067
-0.0510902
-0.0688937
-0.0739547
-0.0770851
-0.0930873
-0.0835404
-0.105887
-0.110183
-0.127541
-0.123506
-0.145242
-0.16142
-0.154341
0.0778003
1.89963
55.2657
-0.0115858
-0.0229007
-0.0225929
-0.0289579
-0.0331971
-0.0493056
-0.0477329
-0.0587738
-0.0475928
-0.0791138
-0.0714293
-0.0799759
-0.134409
-0.11437
-0.192163
-0.107952
-0.0982354
0.430815
41.6606
-0.0141204
-0.0104121
-0.0180984
-0.0261869
-0.0199917
-0.0444931
-0.0375359
-0.0627917
-0.0419807
-0.0522944
-0.144976
-0.0575839
-0.0960699
-0.186386
-0.293745
-0.348677
-0.287803
-0.507102
26.1766
0.00596282
-0.0133565
-0.00482365
-0.00657889
-0.00986293
-0.0075655
-0.0278947
-0.0215393
-0.068845
-0.0886927
-0.0671731
-0.155354
-0.206457
-0.0767322
-0.112094
-0.175585
-0.273078
-1.22302
5.44966
)
;

boundaryField
{
    leftWall
    {
        type            zeroGradient;
    }
    rightWall
    {
        type            zeroGradient;
    }
    lowerWall
    {
        type            zeroGradient;
    }
    atmosphere
    {
        type            totalPressure;
        rho             rho;
        psi             none;
        gamma           1;
        p0              uniform 0;
        value           nonuniform List<scalar> 
46
(
0
0
0
0
0
0
0
0
0
0
0
0
0
0
0
0
0
0
0
0
0
0
0
0
0
0
0
0
0
0
0
-0.000311714
-0.0028349
-0.00943677
-0.0184896
-0.0317236
-0.0475896
-0.084477
-0.0957448
-0.139091
-0.122254
-0.192126
-0.291586
-0.30794
-0.254685
0
)
;
    }
    defaultFaces
    {
        type            empty;
    }
}


// ************************************************************************* //
