/*--------------------------------*- C++ -*----------------------------------*\
| =========                 |                                                 |
| \\      /  F ield         | foam-extend: Open Source CFD                    |
|  \\    /   O peration     | Version:     4.1                                |
|   \\  /    A nd           | Web:         http://www.foam-extend.org         |
|    \\/     M anipulation  |                                                 |
\*---------------------------------------------------------------------------*/
FoamFile
{
    version     2.0;
    format      ascii;
    class       surfaceScalarField;
    location    "0.7";
    object      phi;
}
// * * * * * * * * * * * * * * * * * * * * * * * * * * * * * * * * * * * * * //

dimensions      [0 3 -1 0 0 0 0];

internalField   nonuniform List<scalar> 
4432
(
6.98023e-07
-6.98023e-07
-2.58387e-05
2.65367e-05
-5.77594e-06
-2.00628e-05
4.90199e-06
-1.06779e-05
5.66967e-06
-7.67682e-07
6.3386e-06
-6.68916e-07
4.87192e-05
-4.23806e-05
2.53013e-05
2.34179e-05
1.65451e-05
8.7562e-06
2.31172e-05
-6.57216e-06
1.26947e-05
1.04225e-05
1.14264e-05
1.26837e-06
9.34148e-06
2.08488e-06
4.81324e-06
4.52824e-06
1.24143e-06
3.57182e-06
-9.46454e-07
2.18788e-06
-1.94101e-06
9.94552e-07
-5.81472e-06
3.87371e-06
-9.1422e-06
3.32748e-06
-9.04945e-06
-9.27452e-08
-3.79508e-06
-5.25437e-06
1.65753e-08
-3.81166e-06
1.65753e-08
-3.96986e-06
3.27184e-06
-1.27538e-05
3.53207e-05
-3.12325e-06
-2.96933e-05
-1.57038e-06
-1.22308e-05
-7.50773e-06
5.16967e-06
-4.00274e-05
3.18507e-05
2.2442e-05
-0.00010485
1.66588e-05
2.9201e-05
1.35728e-05
1.18421e-05
3.02936e-05
-2.32929e-05
1.71703e-05
2.35457e-05
1.18816e-05
6.55709e-06
9.12508e-06
4.84141e-06
5.00816e-06
8.64516e-06
1.95127e-06
6.62871e-06
-2.8167e-06
6.95585e-06
-3.26012e-06
1.43797e-06
-7.36899e-07
1.35049e-06
-5.6074e-07
3.15132e-06
-1.83215e-06
1.17867e-06
-2.03271e-06
-5.05381e-06
-2.80015e-06
-3.04422e-06
-2.78357e-06
3.19206e-07
2.95264e-06
1.47067e-05
2.09332e-05
2.99049e-05
-4.48915e-05
1.08904e-05
6.78367e-06
1.54333e-06
1.45168e-05
-6.49777e-06
3.98918e-05
4.86992e-06
-0.000116218
1.36928e-05
2.0378e-05
1.13608e-05
1.41742e-05
2.82375e-05
-4.01696e-05
1.04417e-05
4.13415e-05
8.68624e-06
8.31254e-06
5.86508e-06
7.66258e-06
3.02781e-07
1.42075e-05
-5.76496e-07
7.50798e-06
-3.62519e-06
1.00045e-05
-5.35134e-06
3.16413e-06
-4.35551e-06
3.54662e-07
-1.87123e-06
6.67039e-07
-1.36305e-06
6.70482e-07
-6.19284e-06
-2.24008e-07
-4.12033e-06
-5.11674e-06
-6.9039e-06
-6.06147e-06
9.01411e-06
1.42215e-05
6.50266e-07
3.85831e-06
-3.45284e-05
9.17498e-06
1.467e-06
2.51494e-05
-1.45772e-06
2.11549e-06
6.29258e-05
-1.46904e-06
-0.000112633
-5.12325e-06
2.40323e-05
-3.13655e-05
4.04164e-05
2.70893e-05
-9.86244e-05
3.43518e-06
6.49956e-05
-3.42617e-06
1.51739e-05
-3.89656e-06
8.13299e-06
-3.97665e-06
1.42876e-05
-6.13435e-06
9.66568e-06
-3.84938e-06
7.71956e-06
-8.33697e-06
7.65171e-06
-5.23492e-06
-2.74738e-06
-2.16332e-06
-2.40456e-06
-3.15102e-06
1.65818e-06
-3.57359e-06
1.98567e-07
-5.04784e-06
-3.64249e-06
-1.19517e-05
-8.02072e-07
9.81618e-06
3.40832e-05
-3.4235e-05
2.95806e-05
-3.00257e-05
3.43188e-05
-3.27125e-06
3.6793e-05
-3.93186e-06
3.53441e-05
6.43746e-05
-9.28653e-06
-6.80024e-05
-2.14553e-05
3.6201e-05
-7.79645e-06
2.67576e-05
3.20379e-06
-0.000109625
7.3665e-07
6.74628e-05
-6.47206e-06
2.23825e-05
-5.34461e-06
7.00555e-06
-1.1353e-05
2.02959e-05
-1.36975e-05
1.20102e-05
-9.29288e-06
3.31497e-06
-8.07143e-06
6.43027e-06
-9.40205e-06
-1.41676e-06
-2.07649e-06
-9.73013e-06
-4.41078e-06
3.99246e-06
-8.05517e-06
3.84296e-06
-6.61742e-06
-5.08024e-06
-1.85692e-05
5.5842e-06
4.23198e-06
4.61886e-05
-7.48394e-05
5.02385e-05
-3.40756e-05
6.12734e-05
-1.43061e-05
5.58665e-05
1.47497e-06
4.0648e-05
7.95932e-05
1.72248e-06
-2.90769e-05
-1.80443e-05
5.59678e-05
-5.65236e-06
1.43657e-05
-1.55499e-05
-9.97271e-05
7.77961e-06
4.41333e-05
-3.89426e-06
3.40564e-05
-9.86513e-06
1.29764e-05
-8.42653e-06
1.88573e-05
-9.57918e-06
1.31628e-05
-1.95934e-05
1.33292e-05
-1.88993e-05
5.73617e-06
-1.20919e-05
-8.22419e-06
-5.03151e-06
-1.67905e-05
-5.07207e-06
4.03303e-06
-9.70753e-06
8.47841e-06
-8.95585e-06
-5.83192e-06
-2.7525e-05
2.15557e-05
-1.73237e-05
2.907e-05
-8.23537e-05
3.48373e-05
-3.9843e-05
6.83579e-05
-4.78267e-05
3.83259e-05
3.15069e-05
2.76077e-05
9.03113e-05
2.20759e-05
-2.3545e-05
8.46188e-06
6.95818e-05
4.80042e-06
1.80271e-05
-1.28515e-05
-8.20752e-05
6.19031e-06
2.50915e-05
-1.86054e-06
4.21073e-05
-8.85038e-06
1.99663e-05
-7.02314e-06
1.70301e-05
-1.71248e-05
2.32645e-05
-1.16774e-05
7.88178e-06
-2.62965e-05
2.03553e-05
-6.62694e-06
-2.78938e-05
3.58016e-06
-2.69976e-05
1.17051e-06
6.44268e-06
-4.08225e-06
1.37312e-05
-1.01553e-05
2.41084e-07
-3.76803e-05
3.125e-05
-4.85737e-05
2.8268e-05
-7.93717e-05
5.68879e-05
-6.84629e-05
4.19528e-05
-3.28916e-05
7.43035e-05
-8.4373e-07
7.66733e-06
0.000156947
-1.19684e-06
-1.46808e-05
4.8159e-06
6.35691e-05
1.07372e-05
1.21058e-05
2.69643e-06
-7.40345e-05
-1.3773e-05
4.1561e-05
-6.87548e-06
3.52097e-05
-4.47204e-06
1.75628e-05
-1.88594e-05
3.14175e-05
-2.33775e-05
2.77826e-05
-2.48786e-05
9.3828e-06
-1.18067e-05
7.2835e-06
-6.629e-06
-3.30715e-05
4.63748e-06
-3.82641e-05
4.42323e-06
6.65692e-06
5.38289e-07
1.76161e-05
-9.39917e-06
1.01785e-05
-4.70794e-05
-7.80358e-05
7.80358e-05
-9.90219e-05
2.09861e-05
-0.000104272
5.25e-06
-0.000104407
1.35428e-07
-0.000104667
2.59432e-07
-0.00011108
6.41347e-06
-0.000115919
4.83833e-06
-7.77224e-05
-3.81961e-05
-7.68718e-05
-8.50581e-07
-7.05417e-05
-6.33011e-06
-7.34986e-05
2.95684e-06
-0.000127223
5.37245e-05
-0.0001162
-1.10226e-05
-0.000110471
-5.72986e-06
-9.58978e-05
-1.45728e-05
-5.94675e-05
-3.64303e-05
-1.82216e-05
-4.12459e-05
7.65163e-06
-2.58732e-05
7.65163e-06
-3.04654e-05
0.000108501
-6.37625e-05
5.42832e-05
-6.58282e-05
7.31572e-06
-4.22573e-05
-2.34355e-05
-7.41749e-05
3.2177e-05
-9.54249e-05
2.76635e-05
-7.21863e-05
-1.84003e-05
-7.78872e-05
-3.24952e-05
-8.09315e-05
2.19377e-06
-0.000123
3.57385e-05
-0.000119219
-8.24063e-07
-7.96546e-05
1.416e-05
-0.000108042
1.73644e-05
-0.000102835
-1.0936e-05
-5.63215e-05
-6.10868e-05
-6.63301e-05
-2.64217e-05
-4.99107e-05
-5.76653e-05
-1.04969e-06
-7.47342e-05
6.6019e-06
-2.2081e-05
0.000130582
-2.32272e-05
5.54294e-05
-2.12356e-05
5.32416e-06
-3.35354e-05
-1.11356e-05
-6.09177e-05
5.95593e-05
-8.24305e-05
4.91763e-05
-0.00010577
4.9393e-06
-0.000114018
-2.42476e-05
-0.000115012
3.18816e-06
-0.000109872
3.05982e-05
-9.88994e-05
-1.17965e-05
-7.91962e-05
-5.54314e-06
-9.18818e-05
3.00499e-05
-8.21008e-05
-2.0717e-05
-8.52531e-05
-5.79345e-05
-6.50405e-05
-4.66343e-05
-4.72588e-05
-7.54469e-05
-1.01239e-05
-0.000111869
-3.52202e-06
-2.43923e-05
0.000154974
-4.43061e-05
7.53431e-05
-5.08257e-05
1.18439e-05
-5.149e-05
-1.04713e-05
-2.75258e-05
3.55951e-05
-1.18334e-05
3.34839e-05
-5.34193e-05
4.65252e-05
-4.42549e-05
-3.3412e-05
-0.000105087
6.40202e-05
-6.21532e-05
-1.23355e-05
-8.91277e-05
1.51779e-05
-0.000100459
5.78847e-06
-4.75354e-05
-2.2874e-05
-7.02246e-05
1.9722e-06
-6.73175e-05
-6.08416e-05
-3.48746e-05
-7.90771e-05
-2.95795e-05
-8.07421e-05
-2.27604e-05
-0.000118688
-2.62823e-05
-2.19218e-05
0.000176896
-3.40183e-05
8.74396e-05
-1.75301e-05
-4.64433e-06
-7.71084e-06
-2.02905e-05
-2.70234e-05
5.49076e-05
-2.85781e-05
3.50386e-05
-1.59507e-05
3.38977e-05
-4.47955e-05
-4.56723e-06
-3.47383e-05
5.3963e-05
-6.65813e-05
1.95076e-05
-5.21018e-05
6.98314e-07
-2.27834e-05
-2.35298e-05
-4.00567e-05
-5.6008e-06
-1.55107e-05
-2.25738e-05
-3.33707e-05
-4.29816e-05
-5.02719e-05
-6.21759e-05
-5.41635e-05
-7.68504e-05
-4.28277e-05
-0.000130024
-6.91099e-05
-2.39983e-05
0.000200895
-3.30141e-05
9.64552e-05
-5.11387e-06
-3.25446e-05
-1.5343e-05
-1.00614e-05
-9.66648e-06
4.92311e-05
-6.49111e-07
2.60213e-05
-6.61249e-06
3.98611e-05
-9.28351e-06
-1.89622e-06
1.75407e-05
2.71388e-05
3.39308e-05
3.11745e-06
2.52692e-05
9.35991e-06
3.17018e-05
-2.99625e-05
2.99225e-05
-3.82155e-06
1.32817e-05
-5.93296e-06
-1.46867e-05
-1.50132e-05
-2.43958e-05
-5.24668e-05
-4.85464e-05
-5.26997e-05
-5.29573e-05
-0.000125613
-0.000122067
-3.79926e-05
0.000238887
4.98921e-06
5.34734e-05
5.1145e-06
-3.26698e-05
-1.34925e-05
8.54562e-06
5.01053e-06
3.07281e-05
6.18049e-06
2.48513e-05
1.43775e-05
3.16642e-05
2.3036e-05
-1.05548e-05
3.83095e-05
1.18654e-05
4.98996e-05
-8.4727e-06
5.2289e-05
6.97047e-06
3.8099e-05
-1.57725e-05
3.91631e-05
-4.88561e-06
2.76654e-05
5.56472e-06
3.85339e-06
8.79885e-06
-2.10681e-05
-2.75453e-05
-2.70622e-05
-4.67056e-05
-3.87899e-05
-0.000113886
-0.000160857
-3.49324e-05
0.00027382
-3.12351e-05
4.97762e-05
-1.09e-05
-5.30048e-05
-1.92922e-05
1.69378e-05
1.02574e-06
1.04101e-05
3.41266e-06
2.24644e-05
3.07231e-05
4.35377e-06
5.77898e-05
-3.76216e-05
7.80716e-05
-8.41641e-06
4.89072e-05
2.06917e-05
4.70916e-05
8.78608e-06
3.21793e-05
-8.60243e-07
2.70237e-05
2.70048e-07
1.57422e-05
1.68462e-05
2.84919e-06
2.16918e-05
-3.37684e-07
-2.43584e-05
2.61535e-06
-4.96587e-05
-5.13613e-06
-0.000106134
-0.000165993
8.97437e-05
-0.000138317
9.86155e-05
-8.82435e-05
4.24058e-05
-1.22532e-05
-4.45645e-05
5.40787e-05
-2.91531e-05
-1.62551e-05
1.77742e-05
0.00011002
-9.0499e-07
3.9984e-06
6.87236e-07
6.19769e-05
-1.49523e-05
2.77454e-05
-6.68207e-05
-2.21661e-05
-3.21258e-05
6.86617e-06
-3.19211e-05
3.5005e-05
-2.53804e-05
1.10221e-05
-3.38381e-05
3.98752e-05
-3.60309e-05
2.99754e-05
-2.07394e-05
-5.90877e-06
-8.7364e-06
-4.71945e-06
-1.13343e-05
-3.04736e-05
-3.27761e-05
-1.68224e-05
-2.16312e-05
-4.48797e-06
-1.46439e-05
1.06288e-05
-3.53014e-05
3.0836e-05
-1.07735e-05
-7.16073e-05
9.6238e-06
-0.000147941
5.02704e-06
-8.36467e-05
1.0255e-06
-8.25165e-06
-6.15304e-05
0.000116635
-4.92659e-05
-2.85196e-05
-4.72485e-06
6.54791e-05
-2.74263e-05
2.66999e-05
-3.63232e-05
7.08738e-05
-6.00678e-06
-2.57095e-06
5.16679e-06
-3.33396e-05
5.67927e-06
6.35369e-06
-1.13778e-05
5.2062e-05
1.33852e-07
-4.89524e-07
-4.17828e-06
4.41874e-05
8.07607e-06
1.7721e-05
3.76992e-05
-3.55319e-05
5.26577e-05
-1.9678e-05
-2.33534e-05
4.55375e-05
-5.16781e-05
1.15023e-05
-5.34781e-05
-2.68793e-06
-6.92921e-05
2.64428e-05
-5.37923e-05
1.53362e-05
-1.10314e-06
-6.34628e-05
-3.6708e-05
-0.000111233
-6.66036e-05
-5.37511e-05
-3.66599e-05
-3.81954e-05
3.60358e-05
4.39389e-05
1.88576e-05
-1.13415e-05
-9.6219e-06
9.39587e-05
-3.95472e-05
5.66253e-05
4.72656e-06
2.66e-05
1.28565e-05
-1.07008e-05
1.01563e-05
-3.06394e-05
-6.71916e-06
2.32291e-05
-2.41873e-05
6.95301e-05
9.72985e-06
-3.44066e-05
1.5624e-05
3.82932e-05
1.07956e-05
2.25495e-05
-3.14367e-05
6.70035e-06
-4.86716e-05
-2.44305e-06
-6.26512e-05
5.95171e-05
-2.56931e-05
-2.54557e-05
-3.66982e-05
8.3171e-06
-6.51995e-05
5.49441e-05
-5.54154e-05
5.5521e-06
1.407e-05
-7.05885e-05
1.7834e-05
-0.000129067
-1.86864e-05
-1.72306e-05
4.64033e-06
-6.15222e-05
2.31086e-06
4.62683e-05
-2.00018e-05
1.09711e-05
-2.12183e-05
9.51753e-05
-4.66915e-06
4.00761e-05
-3.42302e-06
2.53539e-05
-5.45816e-05
4.04577e-05
-0.000117957
3.27364e-05
-8.55568e-05
-9.17153e-06
-6.44455e-05
4.84189e-05
-2.89032e-05
-6.99489e-05
-5.22663e-05
6.16563e-05
-5.50162e-05
2.52993e-05
-4.22904e-05
-6.02547e-06
-1.56712e-05
-2.90622e-05
1.7945e-05
2.59009e-05
1.80539e-05
-2.55646e-05
4.02561e-05
-1.38851e-05
7.90574e-05
1.61428e-05
8.42187e-05
3.90841e-07
3.28864e-05
6.54023e-05
-1.55287e-05
-0.000113538
-1.45063e-05
-1.82529e-05
-4.89212e-05
-2.71074e-05
-2.94869e-05
2.68341e-05
-6.00491e-05
4.15334e-05
-4.97637e-05
8.48899e-05
-3.58657e-05
2.61781e-05
-1.16368e-05
1.12493e-06
-1.26583e-05
4.14792e-05
-7.46355e-05
9.47136e-05
-5.21264e-05
-3.16807e-05
-7.10018e-06
3.39268e-06
-5.445e-05
-2.25991e-05
-5.44533e-05
6.16596e-05
-5.17802e-05
2.26263e-05
-1.12665e-06
-5.66791e-05
3.44064e-05
-6.45953e-05
5.48118e-05
5.49551e-06
3.69094e-05
-7.66225e-06
3.3683e-05
-1.06588e-05
6.61032e-05
-1.62774e-05
0.00011377
-4.72764e-05
1.3384e-05
0.000133273
-4.65905e-05
-6.6948e-05
-5.20773e-05
-1.27661e-05
-7.12155e-05
-7.96916e-06
-5.96033e-05
1.52219e-05
-7.44758e-05
5.64058e-05
-5.14576e-05
6.18717e-05
-2.02909e-05
-4.98872e-06
-2.40326e-05
4.86667e-06
-5.38096e-05
7.12561e-05
-1.27058e-05
5.36098e-05
-2.09164e-05
-2.34701e-05
-2.04855e-05
2.96177e-06
-4.22863e-05
-7.98298e-07
-3.85617e-05
5.7935e-05
2.5941e-05
-4.18764e-05
3.04909e-05
-6.1229e-05
3.06756e-06
-3.7172e-05
-7.51542e-06
1.60785e-05
-3.40519e-05
1.88742e-05
-4.57331e-05
1.02245e-06
-4.50231e-06
-5.75082e-05
3.20011e-05
-8.37798e-05
-3.51904e-05
8.05753e-05
-4.72598e-05
-1.96882e-05
-5.8195e-05
-1.83093e-06
-7.17175e-05
5.55332e-06
-6.7639e-05
1.11434e-05
-4.13667e-05
3.01335e-05
-1.29854e-05
3.34904e-05
-5.9775e-06
-1.19967e-05
-2.25187e-05
2.14077e-05
-4.19237e-05
9.06611e-05
-4.74098e-05
5.90959e-05
-5.08161e-05
-2.00638e-05
-2.08774e-05
-2.69769e-05
-3.35337e-05
1.1858e-05
-9.51876e-06
3.39201e-05
6.91201e-06
-5.83071e-05
-6.54249e-08
-5.42515e-05
4.87969e-07
-3.77254e-05
-9.18813e-06
2.57546e-05
-3.91334e-05
4.88195e-05
-2.69748e-05
-1.11362e-05
-1.19047e-05
-7.25784e-05
-1.12322e-05
-8.44524e-05
-5.09881e-05
4.56563e-06
-8.21557e-05
6.24674e-05
-9.46651e-05
1.06785e-05
-6.72857e-05
-2.18261e-05
-5.86209e-05
2.47856e-06
-5.37136e-05
2.52262e-05
-3.27526e-05
1.25293e-05
-2.4815e-05
-1.99344e-05
-2.65517e-06
-7.52121e-07
1.45599e-05
7.34461e-05
9.94635e-06
6.37094e-05
-7.81396e-06
-2.30341e-06
-2.17293e-05
-1.30614e-05
-2.95746e-05
1.97033e-05
2.16508e-06
2.18043e-06
-5.79308e-06
-5.0349e-05
7.06601e-06
-6.71106e-05
1.76287e-06
-3.24223e-05
-1.67818e-05
4.42992e-05
-5.86671e-05
9.07048e-05
-5.0727e-05
-1.90763e-05
-4.97477e-05
-7.35577e-05
-7.85271e-05
-5.5673e-05
-5.98437e-05
-6.96715e-05
-2.07512e-05
8.32186e-05
-3.43202e-05
2.42476e-05
-4.43368e-05
-1.18095e-05
-4.81681e-05
6.30989e-06
-2.41311e-05
1.18915e-06
-1.35733e-05
1.97143e-06
-1.33955e-05
-2.01123e-05
1.99907e-05
-3.41383e-05
5.28263e-05
4.06106e-05
9.2709e-06
0.000107265
-3.40744e-05
4.1042e-05
-4.20554e-05
-5.08035e-06
-1.59306e-05
-6.42153e-06
-2.15254e-06
-1.15976e-05
1.98255e-05
-7.2327e-05
-2.16467e-06
-4.51204e-05
-1.70042e-05
-1.75827e-05
-2.7739e-05
5.5034e-05
-2.74699e-05
9.04357e-05
-2.04557e-05
-2.60906e-05
-3.49196e-05
-5.90938e-05
-3.21129e-05
-5.84798e-05
-4.74779e-05
-4.44787e-05
-2.44051e-06
8.56591e-05
-2.01163e-05
4.19233e-05
-3.37853e-05
1.85949e-06
-3.84886e-05
1.10132e-05
-2.30413e-05
-1.42582e-05
-3.10915e-07
-2.0759e-05
1.10305e-05
-3.14537e-05
2.37906e-06
-2.54869e-05
2.09273e-05
2.20624e-05
3.60568e-05
9.21355e-05
3.55568e-06
7.35431e-05
-8.88227e-06
7.35763e-06
-1.97167e-06
-1.33321e-05
1.18503e-05
-2.54196e-05
3.78595e-06
-6.42626e-05
-2.14658e-05
-1.98686e-05
-4.94464e-05
1.03981e-05
-5.15662e-05
5.71539e-05
-2.56509e-05
6.45206e-05
6.84227e-06
-5.85837e-05
1.17799e-05
-6.40317e-05
5.95013e-06
-5.26505e-05
-4.95372e-05
8.00923e-06
2.45542e-05
6.11049e-05
-1.39363e-05
8.04138e-05
-3.11495e-05
1.90727e-05
-2.03867e-05
2.5033e-07
-6.10615e-06
-2.85387e-05
-1.04609e-06
-2.5819e-05
4.88838e-06
-3.73882e-05
9.64764e-06
-3.02462e-05
1.26091e-05
1.9101e-05
2.34671e-05
8.12774e-05
1.84204e-05
7.85899e-05
1.41767e-05
1.16013e-05
8.35877e-06
-7.51419e-06
8.893e-06
-2.59538e-05
-1.68732e-05
-3.84963e-05
-4.5427e-05
8.68531e-06
-8.29615e-05
4.79328e-05
-5.14198e-05
2.56126e-05
5.38788e-07
1.25626e-05
6.2799e-06
-6.43244e-05
1.20607e-05
-6.98133e-05
-8.49997e-07
-3.9741e-05
-1.32878e-05
-3.71005e-05
2.17105e-05
3.93944e-05
2.70376e-05
7.50867e-05
1.66491e-05
2.94612e-05
1.23111e-05
4.58831e-06
1.39795e-06
-1.76256e-05
-4.36397e-06
-2.00571e-05
-5.8463e-06
-3.59059e-05
-2.69591e-05
-9.13336e-06
-3.08118e-05
2.29536e-05
-4.74421e-06
5.52098e-05
3.00652e-06
7.08391e-05
7.75991e-06
6.84791e-06
-3.25658e-06
3.50232e-06
-2.03226e-05
-8.88774e-06
-6.83334e-05
9.51453e-06
-7.16324e-05
1.19845e-05
-6.75126e-05
4.38136e-05
-8.40776e-05
4.21782e-05
-8.39103e-05
1.23966e-05
-0.000110902
-3.73323e-05
-0.000152597
-2.81191e-05
-0.0001714
-2.09382e-05
-3.54808e-06
-0.00018114
1.10212e-05
2.83731e-05
2.89416e-05
5.71663e-05
1.75906e-05
4.08122e-05
1.25172e-05
9.66175e-06
2.6014e-06
-7.70979e-06
-4.17263e-06
-1.32831e-05
-3.00179e-05
-1.00606e-05
-2.91061e-05
-1.00452e-05
-2.10676e-05
1.49152e-05
-6.32465e-06
4.04668e-05
6.76492e-06
5.77495e-05
4.42606e-06
9.18677e-06
-1.19801e-05
1.99085e-05
-4.08478e-05
1.998e-05
-5.47176e-05
2.33845e-05
-0.00012461
8.18778e-05
-0.000189137
0.000108341
-0.000235784
8.88255e-05
-0.00030426
8.08726e-05
-0.000362785
2.11925e-05
-0.000385414
-5.49055e-06
-0.000394859
-1.14932e-05
-1.46386e-05
-0.000383768
4.79692e-06
2.35762e-05
1.16539e-05
5.03093e-05
1.70633e-05
3.54027e-05
1.65307e-05
1.01943e-05
2.50818e-06
6.31275e-06
-8.36927e-06
-2.40569e-06
-1.63878e-05
-2.0421e-06
-2.78519e-05
1.41888e-06
-1.97801e-05
6.84334e-06
-1.0431e-05
3.11177e-05
5.70159e-06
4.16169e-05
5.144e-07
1.4374e-05
-1.25989e-05
3.30218e-05
-5.23774e-05
5.97585e-05
-8.98528e-05
6.08601e-05
-6.58326e-05
5.78582e-05
-8.60193e-05
0.00012853
-0.000188396
0.000191204
-0.000224605
0.000117081
-0.000303767
0.000100354
-0.000317567
8.30871e-06
-0.000321237
-7.82195e-06
-1.10446e-05
-0.000324832
-5.51854e-06
2.90947e-05
5.59716e-06
3.91936e-05
7.77402e-06
3.32259e-05
-6.46932e-07
1.86153e-05
-7.50351e-06
1.31693e-05
-1.69874e-05
7.0782e-06
-2.26556e-05
3.62607e-06
-2.48185e-05
3.58173e-06
-1.70768e-05
-8.98324e-07
-9.12678e-06
2.31677e-05
-3.68045e-07
3.28582e-05
-1.71166e-05
3.11225e-05
-2.64032e-05
4.23084e-05
-5.73004e-05
9.06556e-05
-5.15386e-05
5.50981e-05
-8.80411e-05
9.43611e-05
-9.46548e-05
0.000135145
-3.01149e-05
0.000126665
-4.47496e-05
0.000131716
-0.000110273
0.000165877
-0.00020797
0.000106005
-0.000248119
3.23282e-05
-7.4916e-06
-0.000251674
5.1827e-06
2.3912e-05
5.61625e-06
3.876e-05
7.77048e-06
3.10716e-05
-2.28955e-07
2.66147e-05
-7.76521e-06
2.07056e-05
-1.24437e-05
1.17567e-05
-2.42876e-05
1.54699e-05
-2.19924e-05
1.28652e-06
-2.93118e-05
6.42103e-06
-3.32299e-05
2.70859e-05
-2.92452e-05
2.88735e-05
-2.8169e-05
3.00464e-05
-5.16895e-05
6.58289e-05
-4.00159e-05
7.8982e-05
-3.80523e-05
5.31343e-05
-2.41126e-05
8.04215e-05
-7.89715e-06
0.000118929
-1.97098e-05
0.000138477
4.59102e-06
0.000107415
-4.13604e-06
0.000174604
-4.00934e-05
0.000141962
-3.89034e-05
3.11377e-05
5.48798e-06
-5.18828e-05
-4.28765e-06
2.81997e-05
8.56594e-06
2.59064e-05
4.24294e-06
3.53946e-05
-2.93296e-06
3.37906e-05
-6.50396e-06
2.42766e-05
-6.50964e-06
1.17624e-05
-1.05271e-05
1.94874e-05
-1.57345e-05
6.49389e-06
-1.72942e-05
7.98079e-06
-2.23308e-05
3.21225e-05
-2.71382e-05
3.36809e-05
-5.65365e-05
5.94447e-05
-5.77724e-05
6.70648e-05
-2.77463e-05
4.89559e-05
-2.70287e-05
5.24168e-05
-4.60071e-05
9.94001e-05
-2.74165e-06
7.56641e-05
1.59424e-05
0.000119793
8.56778e-06
0.000114789
4.86195e-05
0.000134552
7.4092e-05
0.000116489
3.45141e-05
7.07152e-05
2.2894e-05
1.71077e-05
2.2295e-06
2.59702e-05
-7.79235e-06
3.59283e-05
1.5451e-06
2.60572e-05
-2.10734e-06
3.7443e-05
-7.18518e-06
2.93544e-05
-2.08296e-05
2.54068e-05
-2.71117e-05
2.57695e-05
-3.35534e-05
1.29356e-05
-4.03072e-05
1.47346e-05
-4.4037e-05
3.58523e-05
-5.92814e-05
4.89252e-05
-3.05387e-05
3.0702e-05
-2.75036e-05
6.40296e-05
-2.62451e-05
4.76974e-05
-2.23256e-05
4.84972e-05
-1.86603e-05
9.57348e-05
-7.19498e-06
6.41988e-05
8.06655e-06
0.000104531
2.96327e-05
9.32221e-05
5.85349e-05
0.000105649
7.7164e-05
9.78599e-05
8.86382e-05
5.92407e-05
3.9257e-05
7.22751e-05
2.20897e-07
2.57493e-05
9.60569e-06
2.65434e-05
-4.36467e-06
4.00275e-05
-9.99529e-06
4.30736e-05
-5.99921e-06
2.53583e-05
-1.50466e-05
3.44542e-05
-1.22013e-05
2.29242e-05
-1.72226e-05
1.79568e-05
-3.74902e-05
3.50022e-05
-3.89311e-05
3.72932e-05
-2.33342e-05
3.33282e-05
-2.52299e-05
3.25977e-05
-2.26398e-05
6.14395e-05
-1.65311e-05
4.15887e-05
-1.60886e-05
4.80546e-05
-2.48958e-06
8.21357e-05
-1.49724e-05
7.66816e-05
8.75858e-07
8.86827e-05
1.61042e-05
7.79939e-05
4.29657e-05
7.87879e-05
6.35371e-05
7.72885e-05
7.15645e-05
5.12133e-05
4.88103e-05
6.20112e-05
-9.57309e-07
2.67066e-05
-3.70922e-06
2.92953e-05
5.021e-06
3.12973e-05
-2.49225e-06
5.05869e-05
-7.43516e-06
3.03012e-05
-1.19732e-05
3.89923e-05
-1.77922e-05
2.87432e-05
-2.72922e-05
2.74568e-05
-2.45358e-05
3.22458e-05
-2.0743e-05
3.35005e-05
-2.66001e-05
3.91852e-05
-4.17134e-05
4.7711e-05
-1.43065e-05
3.40326e-05
-1.10068e-05
3.82889e-05
-2.98737e-05
6.69215e-05
-1.89171e-05
7.1179e-05
-5.7652e-06
6.35297e-05
-1.13355e-06
8.4051e-05
2.82889e-05
4.85715e-05
2.97684e-05
7.73084e-05
4.46572e-05
6.23998e-05
4.14631e-05
5.44074e-05
3.7601e-05
5.26723e-05
-6.86938e-08
2.67753e-05
-2.54686e-06
3.17735e-05
-5.1148e-06
3.38652e-05
7.04219e-06
3.84299e-05
-9.17967e-06
4.65231e-05
-9.50948e-06
3.93221e-05
-9.74112e-06
2.89749e-05
-1.30562e-05
3.07719e-05
-1.95346e-05
3.87241e-05
-1.21646e-05
2.61305e-05
-1.52133e-05
4.22339e-05
-8.41748e-06
4.09152e-05
-2.4018e-05
4.96331e-05
-3.36357e-05
4.79067e-05
-3.07556e-05
6.40414e-05
-4.33758e-06
4.47609e-05
-3.19114e-06
6.23832e-05
2.89773e-06
7.79621e-05
6.31579e-06
4.51534e-05
1.22209e-05
7.14032e-05
3.63241e-05
3.82966e-05
5.50197e-05
3.57118e-05
4.29816e-05
4.96391e-05
1.08887e-06
2.56864e-05
1.72464e-06
3.11377e-05
3.50326e-06
3.20866e-05
-1.47221e-05
5.66552e-05
-1.11224e-05
4.29234e-05
-1.45146e-05
4.27142e-05
-1.09375e-05
2.53978e-05
-1.67756e-05
3.661e-05
-4.56444e-06
2.65129e-05
-4.92268e-06
2.64887e-05
-8.58974e-06
4.59009e-05
-1.10214e-05
4.33469e-05
-1.29364e-05
5.15481e-05
-1.55998e-05
5.05701e-05
-1.33196e-05
6.17611e-05
-1.41129e-05
4.55541e-05
3.19477e-06
4.50755e-05
1.03477e-05
7.08092e-05
1.06096e-05
4.48915e-05
1.68481e-05
6.51648e-05
1.58043e-05
3.93404e-05
1.66688e-05
3.48473e-05
2.66141e-05
3.30363e-05
5.01398e-06
2.06724e-05
-4.06458e-06
4.02162e-05
-1.45509e-05
4.25729e-05
-6.81851e-06
4.89228e-05
-1.1043e-05
4.71479e-05
-8.53644e-06
4.02076e-05
-1.41678e-05
3.10291e-05
-3.45774e-06
2.58999e-05
-4.45817e-06
2.75133e-05
-5.3494e-06
2.73799e-05
-1.12563e-05
5.18078e-05
-6.32349e-06
3.84141e-05
-1.40466e-05
5.92712e-05
1.49199e-06
3.50315e-05
3.84437e-06
5.94087e-05
-4.62818e-06
5.40267e-05
1.14685e-06
3.93005e-05
1.57952e-05
5.61608e-05
3.58536e-06
5.71014e-05
1.00807e-05
5.86694e-05
1.54132e-05
3.40078e-05
2.01162e-05
3.01443e-05
2.42784e-05
2.24519e-05
-4.22581e-06
2.48982e-05
-4.53468e-06
4.05251e-05
-5.03464e-06
4.30728e-05
-4.6416e-06
4.85297e-05
-5.30258e-06
4.78088e-05
5.22794e-06
2.96771e-05
-8.08407e-06
4.43411e-05
-8.6293e-06
2.64451e-05
-5.93026e-06
2.48143e-05
-4.42501e-06
2.58747e-05
-1.83343e-06
4.92162e-05
-1.31291e-05
4.97098e-05
-7.17864e-06
5.33207e-05
-4.27048e-06
3.21234e-05
2.01315e-06
5.31251e-05
1.10539e-05
4.49859e-05
7.40868e-07
4.96135e-05
4.58072e-06
5.2321e-05
1.17912e-05
4.98909e-05
1.09903e-05
5.94703e-05
1.40494e-05
3.09487e-05
1.83835e-05
2.58103e-05
2.96564e-05
1.30055e-05
-2.34593e-06
2.72441e-05
-3.91672e-06
4.20959e-05
-4.81625e-06
4.39723e-05
-4.70777e-06
4.84212e-05
-2.5862e-06
4.56872e-05
-2.31991e-06
2.94108e-05
-1.90473e-06
4.39259e-05
-3.58645e-06
2.81268e-05
-3.17687e-06
2.44047e-05
-3.81639e-06
2.65142e-05
-3.00697e-06
4.84068e-05
-3.23456e-06
4.99373e-05
-2.3789e-06
5.2465e-05
2.79109e-07
2.94654e-05
2.50597e-06
5.08982e-05
-1.22682e-06
4.87187e-05
-2.30313e-06
5.06898e-05
1.45037e-05
3.55142e-05
1.14827e-05
5.29118e-05
1.91624e-05
5.17906e-05
2.0358e-05
2.97531e-05
1.69192e-05
2.9249e-05
2.82984e-05
1.82772e-05
-1.00885e-05
3.73327e-05
-4.45776e-06
3.64651e-05
-2.1557e-06
4.16702e-05
9.35105e-07
4.53304e-05
3.80993e-06
4.28124e-05
-5.08829e-06
3.8309e-05
-3.0287e-06
4.18663e-05
-3.34265e-06
2.84407e-05
-2.49414e-06
2.35562e-05
-1.40854e-06
2.54286e-05
-5.08505e-07
4.75067e-05
1.75692e-06
4.76719e-05
6.13203e-06
4.80899e-05
-5.89204e-06
4.14894e-05
-1.77641e-06
4.67826e-05
1.45314e-05
3.24109e-05
1.66907e-05
4.85305e-05
4.30719e-06
4.78977e-05
1.5435e-05
4.1784e-05
2.32253e-05
4.40003e-05
1.19969e-05
4.09815e-05
1.75436e-05
2.37023e-05
3.97874e-05
6.05449e-06
-9.74479e-07
3.83071e-05
-1.75827e-06
3.72488e-05
-1.38813e-06
4.13001e-05
1.37459e-07
4.38048e-05
5.90381e-07
4.23594e-05
2.58909e-06
3.63103e-05
4.34415e-06
4.01113e-05
-6.93973e-06
3.97246e-05
-5.27963e-06
2.18961e-05
-2.25883e-06
2.24078e-05
3.46347e-07
4.49015e-05
1.55026e-06
4.6468e-05
1.42985e-06
4.82103e-05
1.11094e-05
3.18099e-05
1.26248e-05
4.52671e-05
1.82391e-06
4.32118e-05
5.1961e-06
4.51583e-05
8.66642e-06
4.44273e-05
8.3019e-06
4.21485e-05
2.49916e-05
2.73106e-05
2.57605e-05
4.02127e-05
1.06435e-05
3.88192e-05
3.68261e-05
1.36048e-05
-1.66282e-06
3.99699e-05
-1.90289e-06
3.74889e-05
-1.01918e-06
4.04163e-05
-1.88808e-07
4.29744e-05
5.05536e-07
4.16651e-05
2.26325e-07
3.65895e-05
1.48571e-07
4.0189e-05
5.7781e-08
3.98154e-05
-1.33444e-07
2.20873e-05
6.00084e-07
2.16742e-05
3.93588e-06
4.15657e-05
4.89139e-06
4.55125e-05
7.37747e-06
4.57242e-05
-5.60027e-06
4.47876e-05
6.99953e-06
3.26673e-05
1.18396e-05
3.83717e-05
7.56753e-06
4.94304e-05
4.19669e-06
4.77981e-05
1.60856e-05
3.02596e-05
1.28676e-05
3.05286e-05
9.36961e-06
4.37106e-05
2.13397e-05
2.68492e-05
4.32498e-05
1.4916e-05
-3.85989e-07
4.03559e-05
-4.09264e-07
3.75121e-05
-2.42083e-08
4.00313e-05
-1.09353e-07
4.30595e-05
3.20256e-07
4.12355e-05
1.04566e-06
3.58641e-05
2.24292e-06
3.89918e-05
6.52359e-07
4.14059e-05
1.41191e-06
2.13277e-05
1.83908e-06
2.12471e-05
5.45676e-06
3.79481e-05
7.84321e-06
4.3126e-05
7.36041e-06
4.6207e-05
1.31596e-05
3.89884e-05
1.95742e-06
4.38695e-05
4.36352e-06
3.59656e-05
6.11661e-06
4.76773e-05
1.16903e-05
4.22245e-05
1.68619e-05
2.5088e-05
6.09233e-06
4.12981e-05
9.38038e-06
4.04225e-05
6.65921e-06
2.95704e-05
2.88127e-05
2.10963e-05
-2.22643e-07
4.05785e-05
-1.22824e-07
3.74123e-05
9.98656e-08
3.98086e-05
-5.19245e-07
4.36786e-05
-3.92311e-07
4.11085e-05
2.03618e-07
3.52681e-05
2.03972e-06
3.71556e-05
1.35423e-06
4.20914e-05
-4.28485e-07
2.31104e-05
-1.49989e-06
2.23184e-05
9.43972e-06
2.70084e-05
6.34696e-06
4.62187e-05
7.94203e-06
4.46119e-05
3.8702e-06
4.30602e-05
3.09908e-06
4.46406e-05
1.33618e-05
2.57028e-05
1.57068e-05
4.53323e-05
1.62092e-05
4.1722e-05
3.44785e-06
3.78493e-05
1.00935e-05
3.46525e-05
2.5169e-05
2.5347e-05
1.26436e-05
4.20957e-05
2.66078e-05
1.48485e-05
4.54921e-08
4.0533e-05
2.97365e-07
3.71604e-05
9.4532e-07
3.91606e-05
2.03824e-07
4.44201e-05
-4.61102e-09
4.1317e-05
4.34766e-07
3.48287e-05
2.47301e-06
3.51174e-05
2.39883e-06
4.21656e-05
2.55519e-06
2.29541e-05
2.72788e-06
2.21457e-05
2.95447e-06
2.67818e-05
4.37954e-06
4.47936e-05
5.35455e-06
4.36369e-05
5.40621e-06
4.30085e-05
7.40698e-06
4.26398e-05
4.55897e-06
2.85508e-05
1.01616e-05
3.97297e-05
7.48768e-06
4.43959e-05
1.17725e-05
3.35645e-05
8.05718e-06
3.83678e-05
9.90284e-06
2.35013e-05
1.93265e-05
3.2672e-05
3.77205e-05
8.21383e-06
2.18217e-07
4.03148e-05
3.6839e-07
3.70102e-05
8.55677e-07
3.86734e-05
4.51392e-07
4.48244e-05
-1.23893e-06
4.30073e-05
-3.46518e-06
3.7055e-05
7.24861e-06
2.44036e-05
6.49886e-06
4.29153e-05
5.55127e-06
2.39016e-05
5.80989e-06
2.18871e-05
-6.02584e-07
3.31943e-05
3.11989e-06
4.10712e-05
4.84984e-06
4.19069e-05
7.63528e-06
4.02231e-05
7.2342e-06
4.30409e-05
8.48054e-06
2.73045e-05
6.22185e-06
4.19884e-05
6.32948e-06
4.42883e-05
3.553e-06
3.6341e-05
1.59602e-05
2.59606e-05
1.61641e-05
2.32974e-05
1.11086e-05
3.77275e-05
3.0562e-05
1.8267e-05
2.70642e-07
4.00442e-05
7.60931e-07
3.652e-05
1.00913e-06
3.84252e-05
1.54207e-06
4.42915e-05
2.47462e-06
4.20747e-05
1.39678e-06
3.81328e-05
2.74927e-06
2.30511e-05
5.88986e-06
3.97747e-05
4.90357e-06
2.48879e-05
3.44273e-06
2.3348e-05
1.5248e-06
3.51122e-05
5.28316e-06
3.73128e-05
5.45033e-06
4.17398e-05
7.48998e-06
3.81834e-05
9.21936e-06
4.13115e-05
-1.84377e-06
3.83676e-05
1.05259e-05
2.96187e-05
8.96979e-06
4.58444e-05
2.0004e-05
2.53068e-05
5.91823e-06
4.00463e-05
8.01876e-06
2.11969e-05
1.13343e-05
3.44119e-05
2.80053e-05
1.3891e-05
2.09358e-07
3.98348e-05
6.10377e-07
3.6119e-05
1.19093e-06
3.78446e-05
1.33751e-06
4.41449e-05
3.395e-06
4.00172e-05
3.21245e-06
3.83154e-05
7.00939e-06
1.92542e-05
1.30076e-05
3.37765e-05
2.05983e-06
3.58357e-05
-8.1013e-06
3.35091e-05
3.00333e-06
2.40076e-05
4.98102e-06
3.53351e-05
7.58763e-06
3.91331e-05
7.0452e-06
3.87258e-05
9.04654e-06
3.93102e-05
1.4322e-05
3.30922e-05
3.94631e-06
3.99943e-05
8.30817e-06
4.14825e-05
7.76774e-06
2.58472e-05
1.53385e-05
3.24755e-05
3.99431e-06
3.25411e-05
7.37247e-06
3.10338e-05
1.87306e-05
1.66472e-05
-3.44834e-08
3.98693e-05
2.34008e-07
3.58505e-05
1.98422e-07
3.78802e-05
2.03768e-07
4.41395e-05
3.04435e-06
3.71767e-05
2.81002e-06
3.85497e-05
2.33378e-06
1.97304e-05
3.67313e-06
3.24371e-05
3.32508e-06
3.61838e-05
3.88476e-06
3.29494e-05
-5.82464e-06
3.3717e-05
6.07044e-06
2.344e-05
6.09638e-06
3.91072e-05
8.03433e-06
3.67879e-05
9.46805e-06
3.78764e-05
6.04854e-06
3.65117e-05
9.44981e-06
3.6593e-05
1.4911e-05
3.60213e-05
3.82102e-06
3.69372e-05
2.93814e-06
3.33584e-05
1.43419e-05
2.11373e-05
1.12509e-05
3.41247e-05
1.61629e-05
1.38187e-05
-1.42808e-07
4.00121e-05
8.13984e-09
3.56995e-05
-1.47488e-07
3.80358e-05
-3.44672e-07
4.43367e-05
8.51556e-07
3.59804e-05
-3.65093e-07
3.97663e-05
-1.53462e-06
2.08999e-05
7.19329e-06
2.37092e-05
3.61745e-06
3.97596e-05
1.66826e-06
3.48986e-05
2.45696e-06
3.29283e-05
3.01491e-06
2.28821e-05
7.09774e-06
3.50243e-05
7.62452e-06
3.62611e-05
8.89719e-06
3.66037e-05
8.5241e-06
3.68848e-05
6.07565e-06
3.90415e-05
5.3141e-06
3.67829e-05
4.58854e-06
3.76627e-05
1.40774e-05
2.38696e-05
1.0901e-05
2.43137e-05
1.39481e-05
3.10777e-05
2.57291e-05
4.38177e-06
-6.00021e-07
4.06121e-05
4.86899e-07
3.46126e-05
-1.21159e-06
3.97343e-05
-3.32761e-06
4.64528e-05
6.06148e-06
2.65913e-05
3.0291e-06
4.27987e-05
1.76086e-06
2.21682e-05
-7.41328e-07
2.62114e-05
-1.31368e-06
4.0332e-05
8.43595e-06
2.5149e-05
4.18984e-06
3.71744e-05
5.5923e-06
2.14796e-05
6.09036e-06
3.45263e-05
5.72113e-06
3.66303e-05
7.16128e-06
3.51636e-05
7.51148e-06
3.65346e-05
9.95559e-06
3.65974e-05
8.24485e-06
3.84936e-05
9.85409e-06
3.60535e-05
1.22674e-05
2.14563e-05
4.13091e-06
3.24502e-05
4.50517e-06
3.07034e-05
2.47756e-05
5.45874e-06
-5.03598e-07
4.11157e-05
1.74202e-07
3.39348e-05
1.28025e-07
3.97805e-05
1.38007e-06
4.52007e-05
1.05512e-06
2.69163e-05
1.08542e-06