/*--------------------------------*- C++ -*----------------------------------*\
| =========                 |                                                 |
| \\      /  F ield         | foam-extend: Open Source CFD                    |
|  \\    /   O peration     | Version:     4.1                                |
|   \\  /    A nd           | Web:         http://www.foam-extend.org         |
|    \\/     M anipulation  |                                                 |
\*---------------------------------------------------------------------------*/
FoamFile
{
    version     2.0;
    format      ascii;
    class       surfaceScalarField;
    location    "0.7";
    object      phi_0;
}
// * * * * * * * * * * * * * * * * * * * * * * * * * * * * * * * * * * * * * //

dimensions      [0 3 -1 0 0 0 0];

internalField   nonuniform List<scalar> 
4432
(
8.87508e-07
-8.87508e-07
-2.55806e-05
2.64681e-05
-5.07628e-06
-2.05043e-05
5.29141e-06
-1.03677e-05
5.4298e-06
-1.38396e-07
7.03417e-06
-1.60436e-06
5.15963e-05
-4.45621e-05
2.57186e-05
2.58777e-05
1.65557e-05
9.16289e-06
2.33432e-05
-6.78755e-06
1.28225e-05
1.05208e-05
1.14519e-05
1.37058e-06
9.2897e-06
2.1622e-06
4.66198e-06
4.62772e-06
1.03259e-06
3.62939e-06
-1.17965e-06
2.21223e-06
-2.1534e-06
9.73752e-07
-6.02131e-06
3.86791e-06
-9.30246e-06
3.28114e-06
-9.17473e-06
-1.27724e-07
-3.83349e-06
-5.34125e-06
9.40678e-08
-3.92755e-06
9.40677e-08
-4.28633e-06
3.39882e-06
-1.28293e-05
3.5011e-05
-3.36981e-06
-2.99638e-05
-9.63569e-07
-1.27739e-05
-6.50818e-06
5.40621e-06
-3.95589e-05
3.14464e-05
1.92979e-05
-0.000103419
1.61315e-05
2.90441e-05
1.36366e-05
1.16578e-05
3.07482e-05
-2.38992e-05
1.72948e-05
2.39742e-05
1.18281e-05
6.83726e-06
9.04529e-06
4.94506e-06
4.83311e-06
8.8399e-06
1.73966e-06
6.72284e-06
-3.05758e-06
7.00948e-06
-3.50357e-06
1.41974e-06
-8.82595e-07
1.24694e-06
-6.42164e-07
3.04071e-06
-1.8854e-06
1.11551e-06
-2.02573e-06
-5.20092e-06
-2.84359e-06
-3.10969e-06
-2.74952e-06
-2.85376e-08
3.42736e-06
1.44962e-05
2.04863e-05
2.96696e-05
-4.51372e-05
1.06995e-05
6.1961e-06
1.50232e-06
1.46034e-05
-6.12904e-06
3.90777e-05
5.73934e-06
-0.000115287
1.39571e-05
2.08262e-05
1.13764e-05
1.42385e-05
2.78464e-05
-4.03693e-05
1.13203e-05
4.05003e-05
8.6773e-06
9.48024e-06
5.74901e-06
7.87336e-06
1.98091e-07
1.43908e-05
-6.98144e-07
7.61908e-06
-3.8744e-06
1.01857e-05
-5.60219e-06
3.14754e-06
-4.62786e-06
2.72607e-07
-2.03824e-06
4.51088e-07
-1.37555e-06
4.52827e-07
-6.2271e-06
-3.49369e-07
-4.15153e-06
-5.18526e-06
-6.90106e-06
-6.59295e-06
1.00203e-05
1.44348e-05
-5.41433e-07
4.61331e-06
-3.53157e-05
9.57055e-06
1.23886e-06
2.4739e-05
-5.64986e-07
1.45608e-06
6.23606e-05
-1.37e-06
-0.000112461
-3.03512e-06
2.24914e-05
-2.72236e-05
3.84269e-05
2.67256e-05
-9.43184e-05
2.88297e-06
6.43429e-05
-3.43602e-06
1.57992e-05
-4.14217e-06
8.57952e-06
-4.13867e-06
1.43873e-05
-6.36577e-06
9.84618e-06
-4.03037e-06
7.85032e-06
-8.61355e-06
7.73072e-06
-5.56413e-06
-2.77681e-06
-2.23932e-06
-2.87372e-06
-3.09959e-06
1.3131e-06
-3.56268e-06
1.13716e-07
-5.05429e-06
-3.69364e-06
-1.19553e-05
-1.14271e-06
1.1163e-05
3.3369e-05
-3.50531e-05
2.9342e-05
-3.12887e-05
3.39612e-05
-3.38035e-06
3.64395e-05
-3.04331e-06
3.43387e-05
6.44614e-05
-8.76091e-06
-6.93616e-05
-2.15459e-05
3.52763e-05
-7.80891e-06
2.469e-05
2.81124e-06
-0.000104938
4.65926e-07
6.66882e-05
-6.46671e-06
2.27318e-05
-5.44474e-06
7.55755e-06
-1.15832e-05
2.05257e-05
-1.39659e-05
1.22289e-05
-9.51007e-06
3.39454e-06
-8.27817e-06
6.49882e-06
-9.7973e-06
-1.25769e-06
-2.16345e-06
-1.05076e-05
-4.38359e-06
3.53324e-06
-8.01206e-06
3.74218e-06
-6.62124e-06
-5.08445e-06
-1.85766e-05
5.71868e-06
5.44434e-06
4.59298e-05
-7.52643e-05
4.97868e-05
-3.51457e-05
6.15045e-05
-1.50981e-05
5.65792e-05
1.88201e-06
4.02696e-05
8.0771e-05
1.79568e-06
-3.08877e-05
-1.72129e-05
5.42849e-05
-4.5162e-06
1.19932e-05
-1.3158e-05
-9.62967e-05
8.11791e-06
4.54123e-05
-3.96489e-06
3.48146e-05
-1.00169e-05
1.36096e-05
-8.52807e-06
1.90369e-05
-9.70202e-06
1.34028e-05
-1.99615e-05
1.3654e-05
-1.93365e-05
5.87379e-06
-1.26358e-05
-7.95838e-06
-5.19015e-06
-1.79532e-05
-5.01464e-06
3.35773e-06
-9.61223e-06
8.33977e-06
-8.92829e-06
-5.76839e-06
-2.75049e-05
2.16598e-05
-1.62155e-05
2.91534e-05
-8.27579e-05
3.48993e-05
-4.08915e-05
6.8339e-05
-4.85378e-05
3.91592e-05
3.10618e-05
3.07825e-05
8.91477e-05
2.3897e-05
-2.40022e-05
8.21091e-06
6.99711e-05
3.86769e-06
1.63364e-05
-1.1709e-05
-8.072e-05
6.54907e-06
2.71542e-05
-2.08392e-06
4.34476e-05
-9.01862e-06
2.05443e-05
-7.10656e-06
1.71248e-05
-1.72461e-05
2.35424e-05
-1.18834e-05
8.29133e-06
-2.6852e-05
2.08424e-05
-7.09215e-06
-2.77183e-05
3.33492e-06
-2.83803e-05
1.28379e-06
5.40886e-06
-3.97616e-06
1.35997e-05
-1.00487e-05
3.04163e-07
-3.75536e-05
3.10308e-05
-4.72463e-05
2.81688e-05
-7.98959e-05
5.68214e-05
-6.95441e-05
4.17996e-05
-3.35159e-05
7.41398e-05
-1.27842e-06
7.14969e-06
0.000156138
-7.06882e-07
-1.61456e-05
4.03892e-06
6.52253e-05
7.52114e-06
1.28542e-05
2.72709e-06
-7.5926e-05
-1.48158e-05
4.46971e-05
-7.29876e-06
3.59306e-05
-4.64555e-06
1.78911e-05
-1.90494e-05
3.15287e-05
-2.36961e-05
2.81891e-05
-2.5398e-05
9.99324e-06
-1.24078e-05
7.85219e-06
-7.59927e-06
-3.25268e-05
5.14338e-06
-4.11229e-05
5.20031e-06
5.35193e-06
9.03099e-07
1.78969e-05
-9.16285e-06
1.03701e-05
-4.67165e-05
-7.83629e-05
7.83629e-05
-9.93711e-05
2.10082e-05
-0.000104423
5.05179e-06
-0.000104529
1.05634e-07
-0.000104759
2.3028e-07
-0.000110822
6.06281e-06
-0.000115673
4.85097e-06
-7.76828e-05
-3.79897e-05
-7.68491e-05
-8.33705e-07
-7.04576e-05
-6.39154e-06
-7.35316e-05
3.07403e-06
-0.000127346
5.38145e-05
-0.000116292
-1.10545e-05
-0.00011074
-5.55161e-06
-9.61747e-05
-1.45653e-05
-5.94657e-05
-3.6709e-05
-1.80137e-05
-4.1452e-05
8.22376e-06
-2.62375e-05
8.22378e-06
-3.07227e-05
0.000109086
-6.44199e-05
5.47054e-05
-6.6198e-05
6.82995e-06
-4.20723e-05
-2.402e-05
-7.31929e-05
3.13509e-05
-9.40841e-05
2.6954e-05
-7.17284e-05
-1.75047e-05
-7.78992e-05
-3.1819e-05
-8.10082e-05
2.27528e-06
-0.000122936
3.55361e-05
-0.000119261
-6.01252e-07
-7.98648e-05
1.44187e-05
-0.000107967
1.70474e-05
-0.000102829
-1.06893e-05
-5.62968e-05
-6.10975e-05
-6.61121e-05
-2.68937e-05
-4.94868e-05
-5.80772e-05
-7.81096e-07
-7.49432e-05
7.44266e-06
-2.22915e-05
0.000131377
-2.35471e-05
5.59611e-05
-2.13077e-05
4.59055e-06
-3.34244e-05
-1.19033e-05
-5.92473e-05
5.71738e-05
-8.05796e-05
4.82864e-05
-0.000107037
8.95229e-06
-0.000114761
-2.40951e-05
-0.000115094
2.60831e-06
-0.000109395
2.98379e-05
-9.82615e-05
-1.17352e-05
-7.81637e-05
-5.67911e-06
-9.14497e-05
3.03334e-05
-8.18644e-05
-2.02746e-05
-8.48544e-05
-5.81075e-05
-6.4553e-05
-4.7195e-05
-4.67493e-05
-7.58809e-05
-9.24447e-06
-0.000112448
-1.80184e-06
-2.44746e-05
0.000155852
-4.46474e-05
7.61339e-05
-5.16205e-05
1.15637e-05
-5.26232e-05
-1.09006e-05
-2.8847e-05
3.33976e-05
-1.13879e-05
3.08273e-05
-5.20799e-05
4.96443e-05
-4.36986e-05
-3.24764e-05
-0.000102959
6.18688e-05
-6.24602e-05
-1.06609e-05
-8.88543e-05
1.46589e-05
-0.000100552
6.01838e-06
-4.72681e-05
-2.29503e-05
-6.97783e-05
2.2356e-06
-6.67192e-05
-6.11666e-05
-3.43194e-05
-7.95947e-05
-2.88402e-05
-8.13602e-05
-2.11438e-05
-0.000120144
-2.29455e-05
-2.16972e-05
0.000177549
-3.3735e-05
8.81716e-05
-1.77784e-05
-4.39293e-06
-8.22215e-06
-2.04569e-05
-2.81725e-05
5.3348e-05
-2.93224e-05
3.19772e-05
-1.52382e-05
3.55601e-05
-4.1341e-05
-6.37359e-06
-3.2714e-05
5.32418e-05
-6.43819e-05
2.10069e-05
-5.11483e-05
1.42533e-06
-2.24856e-05
-2.26443e-05
-4.03157e-05
-5.12024e-06
-1.5232e-05
-2.28481e-05
-3.23118e-05
-4.40869e-05
-4.90187e-05
-6.28878e-05
-5.29432e-05
-7.74356e-05
-4.05963e-05
-0.000132491
-6.35417e-05
-2.3708e-05
0.000201257
-3.28364e-05
9.73e-05
-4.93291e-06
-3.22964e-05
-1.51569e-05
-1.02329e-05
-9.77588e-06
4.7967e-05
-9.24109e-08
2.22937e-05
-5.96847e-06
4.14362e-05
-7.91472e-06
-4.42734e-06
1.97399e-05
2.55872e-05
3.5171e-05
5.57586e-06
2.55193e-05
1.1077e-05
3.22675e-05
-2.93925e-05
3.03539e-05
-3.2066e-06
1.36667e-05
-6.16087e-06
-1.35067e-05
-1.69136e-05
-2.34689e-05
-5.29255e-05
-4.78532e-05
-5.30513e-05
-5.28599e-05
-0.000127485
-0.000116402
-3.69788e-05
0.000238236
5.95511e-06
5.4366e-05
5.52316e-06
-3.18644e-05
-1.27512e-05
8.0415e-06
5.68443e-06
2.95313e-05
6.0428e-06
2.19354e-05
1.51825e-05
3.22966e-05
2.31499e-05
-1.23948e-05
3.83248e-05
1.04122e-05
4.9713e-05
-5.81233e-06
5.27879e-05
8.00217e-06
3.85792e-05
-1.51839e-05
3.96874e-05
-4.31474e-06
2.79263e-05
5.60019e-06
4.40068e-06
6.61206e-06
-1.9624e-05
-2.89008e-05
-2.67238e-05
-4.59513e-05
-3.95902e-05
-0.000114618
-0.000155992
-3.24355e-05
0.000270671
-3.1295e-05
5.32256e-05
-1.09614e-05
-5.21979e-05
-1.82768e-05
1.53569e-05
2.29372e-06
8.96083e-06
3.96224e-06
2.02669e-05
3.259e-05
3.66883e-06
5.91995e-05
-3.90043e-05
7.78049e-05
-8.19323e-06
4.91737e-05
2.28188e-05
4.70277e-05
1.01482e-05
3.22249e-05
-3.80988e-07
2.71125e-05
7.97612e-07
1.56306e-05
1.70821e-05
3.09807e-06
1.91446e-05
6.45248e-07
-2.64481e-05
2.57463e-06
-4.78808e-05
-6.83749e-06
-0.000105206
-0.000162829
9.03253e-05
-0.000137572
9.91673e-05
-8.87379e-05
4.16113e-05
-1.19881e-05
-4.98584e-05
5.79538e-05
-3.58776e-05
-1.52592e-05
1.72361e-05
0.000103024
-1.7405e-06
2.83104e-06
4.66804e-08
6.34382e-05
-1.71313e-05
3.00323e-05
-6.91007e-05
-2.39566e-05
-3.25213e-05
8.11772e-06
-3.26434e-05
3.60528e-05
-2.62007e-05
1.14483e-05
-3.41452e-05
3.94733e-05
-3.69221e-05
3.0966e-05
-2.19361e-05
-4.99277e-06
-9.80947e-06
-4.27444e-06
-1.15402e-05
-3.07961e-05
-3.30648e-05
-1.95983e-05
-2.1486e-05
-6.22689e-06
-1.38085e-05
1.02194e-05
-3.38436e-05
3.04052e-05
-1.14778e-05
-6.90823e-05
9.82848e-06
-0.0001474
5.01498e-06
-8.39244e-05
1.55956e-06
-8.53268e-06
-5.96968e-05
0.00011921
-4.48475e-05
-3.01085e-05
-4.25302e-06
6.24295e-05
-2.8202e-05
2.67801e-05
-3.55301e-05
7.07663e-05
-7.35083e-06
1.85298e-06
4.14916e-06
-3.54566e-05
7.04861e-06
5.21828e-06
-1.05165e-05
5.36178e-05
-2.85535e-07
1.2174e-06
-3.42273e-06
4.26104e-05
8.63991e-06
1.89033e-05
3.65715e-05
-3.29243e-05
5.15588e-05
-1.92617e-05
-2.60691e-05
4.68318e-05
-5.24294e-05
6.76203e-06
-5.30025e-05
-5.65381e-06
-6.74594e-05
2.46764e-05
-5.17913e-05
1.4737e-05
-5.22872e-07
-6.27463e-05
-3.77894e-05
-0.000109611
-6.83249e-05
-5.33889e-05
-3.84888e-05
-3.83688e-05
3.74367e-05
4.32846e-05
1.90142e-05
-1.16861e-05
-9.23324e-06
9.06771e-05
-3.93976e-05
5.69444e-05
4.71642e-06
2.66523e-05
1.15893e-05
-5.01984e-06
9.04395e-06
-3.29112e-05
-7.83237e-06
2.20946e-05
-2.45651e-05
7.03505e-05
1.15712e-05
-3.49189e-05
1.59227e-05
3.82589e-05
1.03245e-05
2.45015e-05
-3.18452e-05
9.24533e-06
-4.931e-05
-1.79685e-06
-6.13238e-05
5.88455e-05
-2.32563e-05
-3.13055e-05
-3.21108e-05
3.20068e-06
-6.2029e-05
5.45945e-05
-5.30643e-05
5.77232e-06
1.55438e-05
-6.9131e-05
1.72027e-05
-0.000126813
-1.83894e-05
-1.77968e-05
4.25277e-06
-6.1011e-05
2.51987e-06
4.50175e-05
-2.10893e-05
1.19231e-05
-2.47636e-05
9.43514e-05
-9.0413e-06
4.12221e-05
-7.08304e-06
2.4694e-05
-5.35143e-05
4.14114e-05
-0.000121951
3.55252e-05
-8.72051e-05
-1.26511e-05
-6.43865e-05
4.75319e-05
-2.83261e-05
-7.09792e-05
-5.33387e-05
6.32715e-05
-5.47196e-05
2.58825e-05
-4.17449e-05
-3.72944e-06
-1.48238e-05
-2.87179e-05
2.1859e-05
2.21627e-05
1.87216e-05
-2.81682e-05
4.24961e-05
-2.05738e-05
8.12832e-05
1.58074e-05
8.39857e-05
3.06979e-06
3.32073e-05
6.63223e-05
-1.50362e-05
-0.000111777
-1.3577e-05
-1.9256e-05
-4.9921e-05
-2.4667e-05
-3.20399e-05
2.71364e-05
-6.16074e-05
4.14907e-05
-5.15611e-05
8.4305e-05
-3.71842e-05
2.68453e-05
-1.14442e-05
-1.04607e-06
-1.07447e-05
4.07119e-05
-6.92239e-05
9.40045e-05
-4.80151e-05
-3.38599e-05
-6.49327e-06
6.01006e-06
-5.49835e-05
-2.24889e-05
-5.42282e-05
6.25161e-05
-5.14165e-05
2.30709e-05
-4.96734e-07
-5.46493e-05
3.68537e-05
-6.60683e-05
5.7537e-05
1.47942e-06
3.96732e-05
-1.03044e-05
3.50904e-05
-1.59911e-05
6.85133e-05
-1.76154e-05
0.000117513
-4.59303e-05
1.56179e-05
0.000135103
-4.58201e-05
-6.5957e-05
-5.3863e-05
-1.12131e-05
-7.15156e-05
-7.01437e-06
-5.98605e-05
1.54813e-05
-7.52251e-05
5.68553e-05
-5.22702e-05
6.13502e-05
-2.06476e-05
-4.77737e-06
-2.43021e-05
2.60846e-06
-5.30981e-05
6.95077e-05
-1.01902e-05
5.10966e-05
-1.7058e-05
-2.69921e-05
-1.73307e-05
6.28281e-06
-3.99328e-05
1.13157e-07
-3.73444e-05
5.99277e-05
2.76005e-05
-4.18741e-05
3.37761e-05
-6.08249e-05
4.74214e-06
-3.70343e-05
-5.48244e-06
1.1704e-05
-3.19248e-05
1.61379e-05
-4.42992e-05
-3.61667e-06
-3.50432e-06
-5.84103e-05
3.44237e-05
-8.38582e-05
-3.26659e-05
8.27073e-05
-4.68141e-05
-1.91429e-05
-5.73634e-05
-6.63791e-07
-7.14967e-05
7.11893e-06
-6.78294e-05
1.18139e-05
-4.17223e-05
3.07482e-05
-1.45693e-05
3.41971e-05
-6.98128e-06
-1.23654e-05
-2.2553e-05
1.81801e-05
-4.17377e-05
8.86924e-05
-4.81415e-05
5.75004e-05
-5.23273e-05
-2.28063e-05
-2.05522e-05
-2.54923e-05
-3.22555e-05
1.18165e-05
-8.46198e-06
3.61342e-05
8.90943e-06
-5.92455e-05
1.55238e-06
-5.34679e-05
3.60217e-06
-3.90841e-05
-6.58905e-06
2.18952e-05
-3.62722e-05
4.5821e-05
-2.62408e-05
-1.36481e-05
-1.09511e-05
-7.37001e-05
-1.04948e-05
-8.43146e-05
-4.93114e-05
6.15085e-06
-8.23148e-05
6.31719e-05
-9.48023e-05
1.18237e-05
-6.70598e-05
-2.06236e-05
-5.83565e-05
3.1106e-06
-5.34275e-05
2.58191e-05
-3.29043e-05
1.36739e-05
-2.53566e-05
-1.99133e-05
-4.68358e-06
-2.49287e-06
1.37718e-05
7.02369e-05
8.90729e-06
6.23649e-05
-9.98221e-06
-3.91669e-06
-2.17569e-05
-1.37176e-05
-2.87876e-05
1.88473e-05
4.33537e-06
3.01121e-06
-3.99637e-06
-5.09137e-05
8.63674e-06
-6.6101e-05
3.79577e-06
-3.42431e-05
-1.49515e-05
4.06425e-05
-5.73768e-05
8.82463e-05
-5.09078e-05
-2.01172e-05
-5.039e-05
-7.42179e-05
-7.97221e-05
-5.49825e-05
-5.83962e-05
-7.06374e-05
-2.0595e-05
8.3767e-05
-3.40219e-05
2.52505e-05
-4.38019e-05
-1.08436e-05
-4.78701e-05
7.17878e-06
-2.38454e-05
1.79444e-06
-1.3678e-05
3.50657e-06
-1.43556e-05
-1.92358e-05
1.83573e-05
-3.52058e-05
5.05678e-05
3.80266e-05
8.76582e-06
0.000104167
-3.41089e-05
3.89581e-05
-4.12071e-05
-6.61931e-06
-1.51186e-05
-7.2412e-06
-2.92296e-07
-1.18151e-05
2.1877e-05
-7.3083e-05
1.28328e-06
-4.55072e-05
-1.36311e-05
-1.93287e-05
-2.61658e-05
5.31772e-05
-2.7677e-05
8.97575e-05
-2.18976e-05
-2.58966e-05
-3.68341e-05
-5.92815e-05
-3.32086e-05
-5.8608e-05
-4.71596e-05
-4.44453e-05
-1.4127e-06
8.51797e-05
-1.92607e-05
4.30985e-05
-3.30871e-05
2.9828e-06
-3.83427e-05
1.24343e-05
-2.28552e-05
-1.36931e-05
-1.28159e-07
-1.92204e-05
1.1042e-05
-3.0406e-05
1.87833e-06
-2.60422e-05
2.06119e-05
1.92931e-05
3.61645e-05
8.86145e-05
3.87391e-06
7.12487e-05
-8.36903e-06
5.62364e-06
-8.14348e-07
-1.47959e-05
1.39839e-05
-2.66133e-05
6.22121e-06
-6.53203e-05
-1.84445e-05
-2.08415e-05
-4.74489e-05
9.67587e-06
-5.10968e-05
5.68252e-05
-2.62995e-05
6.49603e-05
5.14867e-06
-5.73448e-05
1.12415e-05
-6.53746e-05
7.06008e-06
-5.44273e-05
-5.00097e-05
9.90985e-06
2.50691e-05
6.01106e-05
-1.31799e-05
8.13474e-05
-3.03514e-05
2.01543e-05
-2.01142e-05
2.19706e-06
-5.89772e-06
-2.79095e-05
-8.07161e-08
-2.50375e-05
5.32438e-06
-3.58111e-05
1.06073e-05
-3.13252e-05
1.31165e-05
1.6784e-05
2.3854e-05
7.7877e-05
1.92812e-05
7.58215e-05
1.54379e-05
9.4669e-06
9.8616e-06
-9.21956e-06
1.05253e-05
-2.7277e-05
-1.53088e-05
-3.94862e-05
-4.30426e-05
6.89241e-06
-8.01522e-05
4.67857e-05
-4.98915e-05
2.65647e-05
7.20521e-07
1.43487e-05
8.40299e-06
-6.50269e-05
1.56869e-05
-7.26593e-05
6.36591e-06
-4.51072e-05
-1.33006e-05
-3.03444e-05
2.12147e-05
3.88959e-05
2.70653e-05
7.54968e-05
1.70742e-05
3.01455e-05
1.30749e-05
6.19634e-06
2.3314e-06
-1.71661e-05
-3.02723e-06
-1.96788e-05
-3.9549e-06
-3.48834e-05
-2.47568e-05
-1.05233e-05
-2.93344e-05
2.13615e-05
-3.64458e-06
5.21871e-05
4.36241e-06
6.78144e-05
9.44695e-06
4.38235e-06
-1.22479e-06
1.45218e-06
-1.73048e-05
-1.1197e-05
-6.43197e-05
7.52882e-06
-6.84449e-05
1.10178e-05
-6.38497e-05
4.2191e-05
-7.91874e-05
4.19029e-05
-7.84672e-05
1.36295e-05
-0.000102632
-4.0861e-05
-0.000143488
-3.18041e-05
-0.000166802
-2.1794e-05
-4.64213e-06
-0.000175461
1.07916e-05
2.81042e-05
2.9068e-05
5.72204e-05
1.79404e-05
4.1273e-05
1.35398e-05
1.0597e-05
3.42773e-06
-7.05407e-06
-3.16506e-06
-1.30861e-05
-2.77914e-05
-1.02571e-05
-2.72909e-05
-1.10239e-05
-1.94034e-05
1.3474e-05
-4.92147e-06
3.77052e-05
8.37195e-06
5.4521e-05
5.94972e-06
6.80456e-06
-9.93262e-06
1.73345e-05
-3.89588e-05
1.78293e-05
-5.20206e-05
2.05907e-05
-0.000117532
7.65296e-05
-0.000175756
0.000100415
-0.000219263
8.54116e-05
-0.000286719
8.10854e-05
-0.000354976
2.73954e-05
-0.000381741
-5.03914e-06
-0.000392427
-1.11081e-05
-1.34865e-05
-0.000383583
4.5795e-06
2.35247e-05
1.15744e-05
5.02255e-05
1.74359e-05
3.54114e-05
1.74713e-05
1.05616e-05
3.99292e-06
6.42426e-06
-6.32577e-06
-2.76739e-06
-1.40935e-05
-2.48944e-06
-2.55226e-05
4.05276e-07
-1.8145e-05
6.09634e-06
-8.36267e-06
2.79229e-05
7.5895e-06
3.85688e-05
2.06258e-06
1.23315e-05
-1.15265e-05
3.09236e-05
-5.00689e-05
5.63717e-05
-8.62242e-05
5.67462e-05
-6.29681e-05
5.3274e-05
-8.08018e-05
0.000118251
-0.00017513
0.000179742
-0.000211893
0.000117848
-0.000297781
0.000113282
-0.000318418
1.55972e-05
-0.00032361
-5.915e-06
-8.13647e-06
-0.00032896
-5.49577e-06
2.90205e-05
5.72726e-06
3.90025e-05
8.09197e-06
3.30467e-05
1.88159e-07
1.84654e-05
-6.15427e-06
1.27667e-05
-1.54812e-05
6.55952e-06
-2.1185e-05
3.21434e-06
-2.31008e-05
2.32109e-06
-1.52836e-05
-1.72092e-06
-7.65987e-06
2.02992e-05
5.35868e-07
3.03731e-05
-1.5884e-05
2.87514e-05
-2.53972e-05
4.04367e-05
-5.61989e-05
8.71735e-05
-5.13565e-05
5.19036e-05
-8.56552e-05
8.7573e-05
-9.38737e-05
0.00012647
-3.29468e-05
0.000118816
-4.18809e-05
0.000126783
-0.000103053
0.000174455
-0.000202182
0.000114725
-0.000245958
3.7861e-05
-2.68224e-06
-0.000251412
5.2356e-06
2.37849e-05
5.83159e-06
3.84065e-05
8.10049e-06
3.07778e-05
2.16693e-07
2.63492e-05
-7.20044e-06
2.01838e-05
-1.18055e-05
1.11646e-05
-2.30403e-05
1.44491e-05
-2.12597e-05
5.40519e-07
-2.79144e-05
4.93374e-06
-3.21789e-05
2.45637e-05
-2.90764e-05
2.72706e-05
-2.84755e-05
2.81504e-05
-5.11512e-05
6.31125e-05
-3.9879e-05
7.59013e-05
-3.87684e-05
5.07929e-05
-2.46946e-05
7.34993e-05
-1.10345e-05
0.00011281
-2.49842e-05
0.000132766
-2.57319e-06
0.000104371
-4.02669e-06
0.000175908
-3.67002e-05
0.000147398
-3.57805e-05
3.69405e-05
1.37387e-05
-5.22013e-05
-4.14183e-06
2.79267e-05
8.67206e-06
2.55926e-05
4.50978e-06
3.49401e-05
-2.46703e-06
3.3326e-05
-5.9208e-06
2.36376e-05
-6.06789e-06
1.13117e-05
-1.01888e-05
1.857e-05
-1.50704e-05
5.42207e-06
-1.69037e-05
6.76702e-06
-2.21814e-05
2.98414e-05
-2.69858e-05
3.2075e-05
-5.60918e-05
5.72564e-05
-5.73825e-05
6.44032e-05
-2.82163e-05
4.6735e-05
-2.75895e-05
5.01661e-05
-4.87842e-05
9.46941e-05
-8.54404e-06
7.25702e-05
8.69035e-06
0.000115531
1.39583e-06
0.000111665
4.49382e-05
0.000132365
7.30891e-05
0.000119246
3.37983e-05
7.62306e-05
2.92145e-05
1.8322e-05
2.34102e-06
2.55857e-05
-7.49475e-06
3.54283e-05
1.78262e-06
2.56627e-05
-1.78181e-06
3.68904e-05
-6.82399e-06
2.86797e-05
-2.00898e-05
2.45775e-05
-2.61802e-05
2.46604e-05
-3.28246e-05
1.20665e-05
-3.99164e-05
1.38588e-05
-4.39017e-05
3.38267e-05
-5.84915e-05
4.66648e-05
-3.04521e-05
2.92169e-05
-2.74419e-05
6.1393e-05
-2.6854e-05
4.61472e-05
-2.31826e-05
4.64946e-05
-2.08734e-05
9.23849e-05
-1.07509e-05
6.24476e-05
4.12511e-06
0.000100655
2.41249e-05
9.16654e-05
5.25876e-05
0.000103902
7.24735e-05
9.93603e-05
8.66385e-05
6.20654e-05
4.35832e-05
7.22696e-05
3.1682e-07
2.52688e-05
9.65484e-06
2.60903e-05
-4.0762e-06
3.93937e-05
-9.60188e-06
4.24161e-05
-5.73585e-06
2.48137e-05
-1.45936e-05
3.34353e-05
-1.19127e-05
2.19795e-05
-1.69511e-05
1.71048e-05
-3.67793e-05
3.3687e-05
-3.85397e-05
3.55871e-05
-2.30954e-05
3.12204e-05
-2.52137e-05
3.13352e-05
-2.28844e-05
5.90636e-05
-1.68192e-05
4.0082e-05
-1.61736e-05
4.58489e-05
-3.73571e-06
7.99469e-05
-1.57046e-05
7.44165e-05
-1.03379e-06
8.59843e-05
1.35078e-05
7.7124e-05
3.89223e-05
7.84878e-05
5.99544e-05
7.83282e-05
6.85261e-05
5.34937e-05
5.16321e-05
6.04771e-05
-8.88533e-07
2.61574e-05
-3.51196e-06
2.87137e-05
5.12311e-06
3.07587e-05
-2.24736e-06
4.97866e-05
-7.10426e-06
2.96706e-05
-1.16654e-05
3.79965e-05
-1.74344e-05
2.77485e-05
-2.66772e-05
2.63476e-05
-2.41577e-05
3.11675e-05
-2.0641e-05
3.20704e-05
-2.66762e-05
3.72557e-05
-4.14321e-05
4.60911e-05
-1.49331e-05
3.25646e-05
-1.1803e-05
3.69518e-05
-3.09388e-05
6.49847e-05
-2.02477e-05
6.92558e-05
-7.27077e-06
6.14395e-05
-4.232e-06
8.29455e-05
2.45658e-05
4.83262e-05
2.63624e-05
7.66913e-05
4.18853e-05
6.28053e-05
3.97989e-05
5.55802e-05
3.89348e-05
5.24962e-05
-3.34566e-08
2.61908e-05
-2.45651e-06
3.11367e-05
-4.93447e-06
3.32366e-05
7.09361e-06
3.77585e-05
-8.77879e-06
4.5543e-05
-9.23176e-06
3.84494e-05
-9.50019e-06
2.80169e-05
-1.2863e-05
2.97104e-05
-1.91514e-05
3.74559e-05
-1.23376e-05
2.52565e-05
-1.57973e-05
4.07153e-05
-8.97112e-06
3.92649e-05
-2.48142e-05
4.84077e-05
-3.4046e-05
4.61835e-05
-3.16377e-05
6.25764e-05
-5.99961e-06
4.36177e-05
-5.50319e-06
6.09431e-05
1.06009e-06
7.63822e-05
4.72194e-06
4.46644e-05
1.0175e-05
7.12382e-05
3.41687e-05
3.88116e-05
5.36687e-05
3.60802e-05
4.34758e-05
4.91277e-05
1.0883e-06
2.51025e-05
1.73536e-06
3.04896e-05
3.54375e-06
3.14282e-05
-1.43692e-05
5.56714e-05
-1.08508e-05
4.20246e-05
-1.40551e-05
4.16538e-05
-1.06804e-05
2.46422e-05
-1.65288e-05
3.55588e-05
-4.67964e-06
2.56067e-05
-5.05146e-06
2.56283e-05
-8.85304e-06
4.45169e-05
-1.12631e-05
4.16749e-05
-1.25443e-05
4.96889e-05
-1.58627e-05
4.95019e-05
-1.37417e-05
6.04554e-05
-1.48306e-05
4.47066e-05
1.96144e-06
4.4151e-05
8.76405e-06
6.95796e-05
8.89161e-06
4.45368e-05
1.53723e-05
6.47575e-05
1.4788e-05
3.93958e-05
1.59635e-05
3.49046e-05
2.68532e-05
3.25861e-05
4.87091e-06
2.02316e-05
-4.0429e-06
3.94034e-05
-1.4317e-05
4.17023e-05
-6.61256e-06
4.7967e-05
-1.07397e-05
4.61518e-05
-8.31183e-06
3.92258e-05
-1.38725e-05
3.02028e-05
-3.45914e-06
2.51455e-05
-4.48837e-06
2.66359e-05
-5.40035e-06
2.65403e-05
-1.13988e-05
5.05154e-05
-6.49233e-06
3.67684e-05
-1.47334e-05
5.793e-05
4.78323e-07
3.42902e-05
2.56816e-06
5.83655e-05
-5.21978e-06
5.24945e-05
2.65417e-07
3.86658e-05
1.45299e-05
5.53151e-05
2.73959e-06
5.63271e-05
8.99416e-06
5.8503e-05
1.45798e-05
3.38101e-05
1.94454e-05
3.00391e-05
2.45074e-05
2.17911e-05
-4.19454e-06
2.44261e-05
-4.46575e-06
3.96746e-05
-4.94568e-06
4.21822e-05
-4.51655e-06
4.75379e-05
-5.11781e-06
4.6753e-05
5.11721e-06
2.89908e-05
-7.96635e-06
4.32864e-05
-8.57395e-06
2.57531e-05
-6.05049e-06
2.41125e-05
-4.64737e-06
2.51372e-05
-2.08719e-06
4.79552e-05
-1.37847e-05
4.84658e-05
-7.78566e-06
5.1931e-05
-4.86328e-06
3.13678e-05
1.58482e-06
5.19174e-05
9.85344e-06
4.42258e-05
-2.59334e-07
4.87785e-05
3.54139e-06
5.15144e-05
1.04965e-05
4.9372e-05
1.01923e-05
5.88072e-05
1.33106e-05
3.06918e-05
1.75296e-05
2.582e-05
2.95978e-05
1.24392e-05
-2.29683e-06
2.67229e-05
-3.81997e-06
4.11978e-05
-4.72583e-06
4.3088e-05
-4.60542e-06
4.74174e-05
-2.57545e-06
4.4723e-05
-2.28213e-06
2.86974e-05
-1.97086e-06
4.29751e-05
-3.64605e-06
2.74283e-05
-3.33243e-06
2.37988e-05
-4.09084e-06
2.58956e-05
-3.28576e-06
4.71501e-05
-3.46212e-06
4.86422e-05
-2.90493e-06
5.13738e-05
-4.47414e-07
2.89103e-05
1.59266e-06
4.98773e-05
-1.83073e-06
4.76492e-05
-3.09839e-06
5.00462e-05
1.33576e-05
3.50584e-05
1.06012e-05
5.21284e-05
1.81043e-05
5.13041e-05
1.91895e-05
2.96066e-05
1.60805e-05
2.89289e-05
2.82619e-05
1.74165e-05
-9.91339e-06
3.66363e-05
-4.3967e-06
3.56811e-05
-2.11781e-06
4.08091e-05
9.06535e-07
4.4393e-05
3.67909e-06
4.19504e-05
-5.06662e-06
3.74431e-05
-3.03551e-06
4.0944e-05
-3.40863e-06
2.78014e-05
-2.60827e-06
2.29985e-05
-1.56068e-06
2.4848e-05
-9.01942e-07
4.64914e-05
1.06752e-06
4.66727e-05
5.41845e-06
4.70229e-05
-6.16075e-06
4.04895e-05
-2.14915e-06
4.58657e-05
1.35741e-05
3.19259e-05
1.57897e-05
4.78306e-05
3.71159e-06
4.71365e-05
1.4532e-05
4.13079e-05
2.22832e-05
4.35529e-05
1.13834e-05
4.05064e-05
1.67161e-05
2.35963e-05
3.94175e-05
5.56046e-06
-9.63834e-07
3.76001e-05
-1.73125e-06
3.64485e-05
-1.36871e-06
4.04465e-05
9.19949e-08
4.29323e-05
5.55371e-07
4.1487e-05
2.48098e-06
3.55175e-05
4.16306e-06
3.92619e-05
-6.9576e-06
3.8922e-05
-5.36164e-06
2.14025e-05
-2.43668e-06
2.1923e-05
1.87978e-07
4.38667e-05
1.357e-06
4.55037e-05
1.14352e-06
4.72363e-05
1.04196e-05
3.12134e-05
1.18348e-05
4.44506e-05
1.41412e-06
4.23466e-05
4.58135e-06
4.46634e-05
7.84915e-06
4.38687e-05
7.69297e-06
4.14641e-05
2.40496e-05
2.71963e-05
2.48812e-05
3.96748e-05
1.00034e-05
3.84741e-05
3.6633e-05
1.27879e-05
-1.64111e-06
3.92412e-05
-1.88566e-06
3.6693e-05
-1.02092e-06
3.95817e-05
-2.51357e-07
4.21627e-05
4.20025e-07
4.08156e-05
1.63728e-07
3.57738e-05
7.95978e-08
3.9346e-05
-8.98256e-08
3.90914e-05
-2.81935e-07
2.15946e-05
4.61185e-07
2.11799e-05
3.62895e-06
4.06989e-05
4.52618e-06
4.46065e-05
6.90082e-06
4.48617e-05
-5.89792e-06
4.40121e-05
6.3693e-06
3.21833e-05
1.11212e-05
3.75947e-05
6.90456e-06
4.888e-05
3.73793e-06
4.70353e-05
1.53145e-05
2.98874e-05
1.23573e-05
3.01535e-05
8.77864e-06
4.32534e-05
2.0449e-05
2.68037e-05
4.27136e-05
1.43684e-05
-3.84436e-07
3.96256e-05
-4.04189e-07
3.67127e-05
-2.48914e-08
3.92024e-05
-1.60232e-07
4.22981e-05
2.14462e-07
4.04409e-05
9.42908e-07
3.50454e-05
2.10467e-06
3.81842e-05
5.4403e-07
4.06521e-05
1.25891e-06
2.08797e-05
1.6929e-06
2.07459e-05
5.17184e-06
3.722e-05
7.3937e-06
4.23846e-05
7.0381e-06
4.52173e-05
1.2653e-05
3.83972e-05
1.68182e-06
4.31545e-05
3.83227e-06
3.54442e-05
5.68802e-06
4.70242e-05
1.10615e-05
4.16618e-05
1.60904e-05
2.48586e-05
5.5506e-06
4.06933e-05
8.66059e-06
4.01434e-05
6.12084e-06
2.93434e-05
2.85761e-05
2.02583e-05
-2.19049e-07
3.98447e-05
-1.41503e-07
3.66351e-05
7.64477e-08
3.89845e-05
-5.57113e-07
4.29316e-05
-4.33783e-07
4.03176e-05
1.40076e-07
3.44715e-05
1.90284e-06
3.64215e-05
1.23435e-06
4.13205e-05
-5.26316e-07
2.26404e-05
-1.64393e-06
2.18635e-05
9.08008e-06
2.64959e-05
6.0288e-06
4.54358e-05
7.47934e-06
4.37667e-05
3.49396e-06
4.23825e-05
2.7642e-06
4.38842e-05
1.27773e-05
2.54311e-05
1.50905e-05
4.4711e-05
1.55059e-05
4.12463e-05
3.00209e-06
3.73624e-05
9.36235e-06
3.4333e-05
2.43255e-05
2.51802e-05
1.20096e-05
4.16593e-05
2.65832e-05
1.40025e-05
5.05763e-08
3.97941e-05
2.8584e-07
3.63999e-05
9.04403e-07
3.83659e-05
1.74046e-07
4.3662e-05
-5.7212e-08
4.05489e-05
3.56201e-07
3.40581e-05
2.33067e-06
3.4447e-05
2.24225e-06
4.14089e-05
2.34833e-06
2.25343e-05
2.50531e-06
2.17065e-05
2.77472e-06
2.62265e-05
4.17566e-06
4.40349e-05
5.03984e-06
4.29025e-05
5.13566e-06
4.22867e-05
7.03261e-06
4.19872e-05
4.25541e-06
2.82083e-05
9.6037e-06
3.93627e-05
7.01228e-06
4.38377e-05
1.11286e-05
3.32461e-05
7.53157e-06
3.793e-05
9.43007e-06
2.32817e-05
1.85472e-05
3.25422e-05
3.73862e-05
7.74416e-06
2.1294e-07
3.95812e-05
3.56979e-07
3.62559e-05
8.13935e-07
3.7909e-05
4.13422e-07
4.40625e-05
-1.26436e-06
4.22266e-05
-3.52421e-06
3.63179e-05
7.00546e-06
2.39173e-05
6.30014e-06
4.21143e-05
5.34421e-06
2.34902e-05
5.53824e-06
2.15125e-05
-7.82561e-07
3.25473e-05
2.83987e-06
4.04124e-05
4.52848e-06
4.12139e-05
7.15338e-06
3.96618e-05
6.66221e-06
4.24784e-05
7.9991e-06
2.68714e-05
5.83555e-06
4.15263e-05
5.83149e-06
4.38418e-05
3.16238e-06
3.59152e-05
1.53064e-05
2.5786e-05
1.54768e-05
2.31114e-05
1.05813e-05
3.74376e-05
3.03462e-05
1.76213e-05
2.6222e-07
3.9319e-05
7.40818e-07
3.57773e-05
9.76773e-07
3.7673e-05
1.47674e-06
4.35626e-05
2.41336e-06
4.129e-05
1.25953e-06
3.74717e-05
2.57844e-06
2.25984e-05
5.68404e-06
3.90086e-05
4.69707e-06
2.44772e-05
3.25316e-06
2.29564e-05
1.30152e-06
3.44989e-05
4.99532e-06
3.67186e-05
5.18258e-06
4.10267e-05
7.20139e-06
3.7643e-05
8.85893e-06
4.08208e-05
-2.14388e-06
3.78742e-05
1.00438e-05
2.93386e-05
8.60231e-06
4.52833e-05
1.93411e-05
2.51764e-05
5.54764e-06
3.95794e-05
7.5061e-06
2.11529e-05
1.09344e-05
3.40092e-05
2.79805e-05
1.33001e-05
1.91671e-07
3.91273e-05
5.73162e-07
3.53958e-05
1.13277e-06
3.71134e-05
1.25574e-06
4.34396e-05
3.28592e-06
3.92598e-05
3.10653e-06
3.76511e-05
6.81862e-06
1.88863e-05
1.26945e-05
3.31328e-05
1.90206e-06
3.52696e-05
-8.09535e-06
3.29538e-05
2.82168e-06
2.35819e-05
4.76629e-06
3.4774e-05
7.24372e-06
3.85492e-05
6.81236e-06
3.80743e-05
8.80497e-06
3.88282e-05
1.39446e-05
3.27345e-05
3.69894e-06
3.95843e-05
7.90291e-06
4.10793e-05
7.40425e-06
2.5675e-05
1.48057e-05
3.21779e-05
3.63493e-06
3.23237e-05
6.81464e-06
3.08295e-05
1.86329e-05
1.61622e-05
-4.33548e-08
3.91707e-05
2.06498e-07
3.5146e-05
1.35269e-07
3.71847e-05
1.6565e-07
4.34092e-05
2.91655e-06
3.65089e-05
2.71325e-06
3.78544e-05
2.24039e-06
1.93592e-05
3.46775e-06
3.19054e-05
3.16945e-06
3.55679e-05
3.65157e-06
3.24717e-05
-5.89825e-06
3.31317e-05
5.79931e-06
2.30764e-05
5.86436e-06
3.84841e-05
7.71018e-06
3.62285e-05
9.15657e-06
3.73818e-05
5.82657e-06
3.60645e-05
9.18206e-06
3.62288e-05
1.44996e-05
3.57617e-05
3.58923e-06
3.65854e-05
2.67322e-06
3.3094e-05
1.38827e-05
2.11142e-05
1.08725e-05
3.38398e-05
1.6234e-05
1.32714e-05
-1.55939e-07
3.93266e-05
-1.7561e-08
3.50076e-05
-1.72509e-07
3.73396e-05
-3.84334e-07
4.3621e-05
7.73055e-07
3.53516e-05
-4.22188e-07
3.90497e-05
-1.58669e-06
2.05237e-05
6.9907e-06
2.33281e-05
3.48249e-06
3.90761e-05
1.56497e-06
3.43892e-05
2.2824e-06
3.24143e-05
2.86302e-06
2.24958e-05
6.83996e-06
3.45072e-05
7.32127e-06
3.57471e-05
8.59523e-06
3.61079e-05
8.23439e-06
3.64253e-05
5.83212e-06
3.86311e-05
5.08113e-06
3.65127e-05
4.34356e-06
3.73229e-05
1.36863e-05
2.37512e-05
1.06124e-05
2.41881e-05
1.3518e-05
3.09342e-05
2.57039e-05
4.04807e-06
-6.00473e-07
3.99271e-05
4.49363e-07
3.39577e-05
-1.2225e-06
3.90115e-05
-3.30171e-06
4.57003e-05
5.89791e-06
2.61519e-05
2.90685e-06
4.20407e-05
1.62831e-06
2.18022e-05
-8.13141e-07
2.57695e-05
-1.42489e-06
3.96878e-05
8.22548e-06
2.47388e-05
4.05689e-06
3.65829e-05
5.42105e-06
2.11316e-05
5.85919e-06
3.40691e-05
5.45737e-06
3.6149e-05
6.88295e-06
3.46823e-05
7.16705e-06
3.61412e-05
9.60911e-06
3.6189e-05
7.99216e-06
3.81297e-05
9.59039e-06
3.57247e-05
1.19081e-05
2.14336e-05
3.90528e-06
3.21909e-05
4.11241e-06
3.07271e-05
2.46831e-05
5.1332e-06
-5.18699e-07
4.04458e-05
1.38631e-07
3.33004e-05
9.77737e-08
3.90523e-05
1.33971e-06
4.44583e-05
1.01068e-06
2.6481e-05
9.96097e-07
4.20553e-05