/*--------------------------------*- C++ -*----------------------------------*\
| =========                 |                                                 |
| \\      /  F ield         | foam-extend: Open Source CFD                    |
|  \\    /   O peration     | Version:     4.1                                |
|   \\  /    A nd           | Web:         http://www.foam-extend.org         |
|    \\/     M anipulation  |                                                 |
\*---------------------------------------------------------------------------*/
FoamFile
{
    version     2.0;
    format      ascii;
    class       volScalarField;
    location    "0.7";
    object      psi;
}
// * * * * * * * * * * * * * * * * * * * * * * * * * * * * * * * * * * * * * //

dimensions      [1 -1 -2 0 0 0 0];

internalField   nonuniform List<scalar> 
2268
(
-2084.87
2479.17
-2205.81
-2470.41
-619.205
-90.0855
-2816.61
-778.582
-60.1146
-41.2749
-15.528
-6.47748
-5.15166
-4.44072
-2.90633
-1.21472
-0.567124
-0.704213
-7.21604
-38.3709
-113.882
-468.076
-1205.4
-2232.14
2628.16
-2243.16
-1933.13
-659.621
-2209.87
1110.89
-2202.86
-334.567
-626.923
-191.903
-37.867
-13.7748
-8.31568
-4.67288
-3.36146
-1.88819
-0.823662
-1.0324
-2.17329
-3.43253
-64.8555
-531.907
-1204.87
2534.64
1630.08
-2833
-1445.98
-2814.52
1292.18
-2810.61
-853.191
-2763.68
-792.421
-110.001
-28.6995
-15.7889
-8.99566
-5.99405
-3.6812
-1.45977
-0.65912
-1.12052
-10.3439
-70.2632
-241.132
-1902.77
1668.5
2335.24
-794.609
-2841.71
-2853.02
-635.129
-2779.61
-1939.58
1905.77
-2060.33
-133.798
-53.9782
-38.5456
-33.4729
-25.2241
-22.3933
-13.6083
-6.10187
-4.08645
-9.04954
-73.8341
-228.044
-2415.4
206.938
2468.04
1859.66
886.092
-2814.32
-1035.56
-2801.1
-2856.94
2630.45
-2831.22
-391.547
-138.265
-115.541
-114.84
-116.389
-66.5242
-36.6968
-42.0382
-17.2411
-28.0463
-154.374
-232.775
-2519.1
-205.802
2477.42
2483.34
2201.08
-1825.24
-93.3399
-2682.7
-2778.32
2304.1
-2570.88
-1380.09
-311.432
-301.672
-315.235
-268.041
-126.728
-126.528
-308.874
-161.944
-172.339
-515.547
-353.772
-1946.61
1643.52
2847.11
2751.6
2287.08
-1898.68
1918.48
-1846.59
498.262
2442.86
-2516.47
-1372.32
-552.421
-696.762
-743.023
-638.243
-338.876
-682.053
-1533.65
-1110.15
-618.938
-1464.67
-959.321
2033.08
2777.5
2845.57
2818.17
2381.79
-986.973
2682.11
1036.89
2815.77
2273.47
-2850.53
-1144.63
-875.359
-982.961
-883.074
-690.206
-581.691
-2026.45
-2855.28
-2755.63
-1909.2
-2392.51
-2097.77
-739.339
-1119.01
-1450.08
-1724.18
-1941.23
-2069.99
-2124.58
-2155.53
-2080.56
-2042.26
-1991.6
-2112.04
-2205.76
-2225.21
-2226.77
-2113.93
-1654.15
-1283.08
462.286
-622.418
-269.345
226.817
389.722
-992.143
-1781.08
-2260.46
-2384.1
-2405.33
-2341.96
-2300.87
-2289.17
-2449.06
-2155.59
-2003.49
-2024.48
-1041.79
-170.089
1032.65
-522.98
151.815
1404.87
1817.89
289.3
-706.071
-1899.08
-1932.83
-2288.52
-2276.44
-2211.97
-2249.65
-1936.86
-1056.01
-637.372
-1476.67
-934.08
297.264
1697.72
-374.037
1222.14
2607.94
2714.26
2473.66
2606.03
1093.8
2100.38
-1712.62
-1530.4
-1121.27
-905.065
-172.675
900.264
1429.46
-475.888
-938.872
360.374
2091.05
-283.936
1252.82
1967.75
1738.08
2847.54
2572.27
2776.9
2804.88
320.444
1001.06
1853.95
2750.77
2736.5
2854.83
2518.59
514.181
-614.923
-5.37983
2136.05
-201.011
1797.32
2827.12
2270.35
2761.31
2853.13
2500.01
1767.02
2777.18
2808.22
2855.91
2652.5
2596.76
2713.97
2841.44
1715.31
-648.118
-1193.03
-73.0315
-117.088
1724.41
2529.09
2853.79
1535.66
2844.44
2275.4
2397.26
2696.75
2535.78
2476.67
2428.02
2463.67
2642.33
2856.96
2310.17
-41.4806
-1616.64
-1871.64
281.374
2837.68
2359.5
2415.3
2363.88
2777.11
2431.74
2731.51
2855.48
2808.25
2764.16
2806.81
2751.65
2759.04
2857.48
2475.52
1232.17
-1555.13
-2221.09
2828.48
2794.05
2846.68
2725.8
2772.82
2148.95
2446.07
77.6304
2349.44
1413.94
-2840.54
-2124.86
-1593.79
-1478.83
-1480.86
-1816.37
-2006.61
-2776.94
-1035.4
-1954.75
-2835.52
-2851.44
-2733.81
2846.57
2527.13
2762.15
2284.69
2855.38
2317.08
2855.69
1384.21
2856.9
2828.89
1925.38
-2346.87
-2355.8
-2709.38
-2544.01
-2816.41
-2719.52
-1242.66
2083.56
499.58
-1980.54
-2331.97
-2841.66
2745.26
2645.9
2857.49
897.78
2856.64
1463.22
2192.48
2766.56
1502.58
2717.67
2419.66
-2665.1
-2214.48
-2799.82
-2640.14
866.06
2719.18
2590.21
2241.44
2813.02
-191.327
-1110.06
-1831.07
2128.91
2804.9
1991.36
2834.55
1562.58
1057.92
1587.01
2413.48
2323.01
-1180.91
-173.808
-1125.15
2353.01
-969.838
1654.51
2848.61
1856.63
1984.35
1215.35
1510.97
2830.55
2761.67
1210.26
641.681
825.094
883.478
1294.38
697.331
698.688
691.161
693.542
1998.13
2670.48
2852.09
-911.718
2855.2
2547.78
2637.1
1617.64
908.321
711.465
632.159
734.513
1234.21
1759.35
2691.11
350.833
458.904
542.207
524.785
426.115
409.465
259.586
140.962
476.657
1427.53
1154.41
2672.47
1385.23
2318.31
1193.14
690.181
473.17
304.2
273.634
374.455
580.568
1031.03
1659.35
231.931
352.948
432.065
425.582
367.818
283.487
166.842
102.329
134.422
328.29
549.165
1244.24
276.099
948.003
188.75
234.379
234.844
213.043
129.688
205.067
480.322
1150.72
2034.61
202.391
333.62
367.934
384.075
372.709
276.561
177.195
68.4439
47.4672
60.1174
22.1995
26.1811
58.5566
166.252
73.5809
142.168
148.785
153.194
118.758
229.442
456.101
757.495
1266.32
89.9216
176.491
229.41
322.387
351.017
328.165
203.426
89.0068
29.1302
18.8111
9.59014
10.2741
20.4995
29.0265
43.4255
82.2286
92.1092
123.727
82.6622
155.583
182.721
251.344
407.106
32.8509
70.1518
127.442
231.605
252.73
323.057
224.178
118.005
32.993
15.1635
7.19495
5.65911
9.57988
12.8341
32.0395
53.5583
46.9556
74.8544
81.969
97.5435
61.4816
53.3609
54.5415
13.169
29.9801
75.2904
128.306
79.1445
129.93
101.534
59.2202
31.2359
12.9735
4.88631
3.89486
5.11742
7.74988
24.57
25.1538
21.7729
42.652
60.7729
21.0933
21.3643
22.6515
15.6029
5.31929
13.5881
18.4302
45.4203
20.0101
19.227
22.3016
15.2721
8.65799
5.9056
2.27873
3.11307
3.9951
6.41493
11.4909
9.7914
12.253
15.2273
16.5657
24.2038
73.7556
106.498
109.363
2.37806
5.41202
5.02628
12.7801
4.25505
1.92747
2.17116
1.03701
0.738254
0.710078
0.593621
2.12809
3.015
5.74112
7.63176
4.73788
5.43047
10.1961
37.1334
132.919
262.249
354.186
437.422
1.03035
1.5989
1.32035
2.25772
0.898662
0.0825283
0.0668077
0.0157895
0.0185872
0.0674333
0.189716
4.57438
2.57386
3.19758
3.69303
2.6866
2.19339
4.51949
20.9192
80.9764
182.872
285.382
362.52
0.337619
0.373827
0.273519
0.243385
0.0680958
0.00244073
0.000203507
0.000522005
0.00713592
0.0669088
0.241124
1.70044
1.07563
1.63687
1.3102
1.07215
1.03239
1.27184
3.28668
20.8049
64.5205
147.939
192.419
0.118921
0.0742175
0.0507082
0.0256479
0.00355163
8.1944e-05
0.000133558
0.00269574
0.0398278
0.266237
0.628167
1.06697
0.432263
0.719729
0.275546
0.315106
0.404707
0.383604
0.487635
4.15504
14.5765
24.0468
37.9178
0.0289153
0.0124783
0.00848082
0.00296118
0.000214464
5.31664e-06
3.51246e-05
0.0011788
0.0117106
0.0711805
0.157147
0.15176
0.108304
0.183139
0.0444284
0.0661203
0.112009
0.119006
0.0812081
0.646968
2.77951
3.0475
6.76233
0.00588787
0.00175314
0.00144682
0.000398463
1.41079e-05
1.57702e-05
0.000329671
0.00380823
0.0161446
0.0251555
0.028709
0.0228579
0.0175958
0.0198358
0.00666744
0.0123749
0.0176022
0.0269026
0.0162073
0.0656963
0.365988
0.449694
1.09425
0.000753343
0.00027106
0.000212289
5.66311e-05
1.09554e-06
2.18819e-06
3.48323e-05
0.00020677
0.001188
0.00284009
0.00445142
0.00157255
0.00202942
0.00170957
0.000891685
0.00202209
0.00218255
0.00439305
0.00263136
0.00531461
0.0362025
0.0436661
0.161393
6.72802e-05
2.5948e-05
4.79561e-05
1.37279e-05
1.21786e-07
1.31272e-07
1.27228e-06
6.12604e-06
6.0409e-05
0.000186146
0.000279052
9.80883e-05
0.000175823
0.000113039
0.000126163
0.000286767
0.000260522
0.000538064
0.000315848
0.000369523
0.0026752
0.00331929
0.0202043
4.67798e-06
2.2477e-06
7.26673e-06
2.88621e-06
9.40318e-08
8.65195e-09
4.54716e-08
1.87197e-07
2.14195e-06
7.99468e-06
1.49431e-05
6.48109e-06
7.54725e-06
8.07282e-06
2.03899e-05
3.49127e-05
2.32838e-05
5.76001e-05
2.2346e-05
2.85527e-05
0.000156381
0.000225244
0.00144005
2.60843e-07
1.68237e-07
8.7773e-07
3.82042e-07
1.45554e-08
8.68561e-10
2.07545e-09
8.63649e-09
7.94947e-08
2.2648e-07
7.04322e-07
3.10546e-07
4.40715e-07
7.75626e-07
2.65812e-06
2.66163e-06
1.87824e-06
4.99796e-06
1.41326e-06
2.35091e-06
6.20515e-06
1.01925e-05
9.44048e-05
1.22654e-08
1.18206e-08
7.71295e-08
5.70543e-08
1.59614e-09
4.10182e-10
4.4838e-10
9.36777e-10
2.57203e-09
6.26271e-09
3.12091e-08
1.41353e-08
2.57249e-08
6.9577e-08
3.05664e-07
1.9258e-07
1.11134e-07
3.66106e-07
8.91527e-08
1.97989e-07
2.7994e-07
4.65102e-07
3.37211e-06
6.91213e-10
6.0299e-10
7.30504e-09
6.45558e-09
5.23867e-10
4.48381e-10
3.36513e-10
3.81078e-10
5.04769e-10
5.73889e-10
1.74713e-09
8.62196e-10
1.96177e-09
4.64385e-09
2.94439e-08
1.49893e-08
6.21545e-09
2.09847e-08
6.2582e-09
1.59798e-08
1.24418e-08
2.07509e-08
1.06457e-07
3.49246e-10
-1.8099e-10
8.52195e-10
8.64019e-10
4.3201e-10
4.84761e-10
2.75577e-10
2.63753e-10
3.12866e-10
3.99268e-10
4.30191e-10
4.46562e-10
4.1382e-10
4.35646e-10
2.47746e-09
1.20871e-09
6.77572e-10
1.26419e-09
5.94807e-10
1.32513e-09
7.17588e-10
1.12231e-09
4.51834e-09
2.29193e-10
-2.57387e-10
3.36513e-10
3.97449e-10
4.42014e-10
4.17458e-10
3.065e-10
2.96495e-10
2.94676e-10
3.32875e-10
3.64707e-10
4.23825e-10
3.93811e-10
3.83807e-10
4.91127e-10
3.65617e-10
2.83762e-10
2.61934e-10
2.02817e-10
2.07364e-10
2.19188e-10
1.86446e-10
4.07452e-10
3.4288e-10
-3.36513e-10
3.89264e-10
4.17458e-10
3.5925e-10
4.84761e-10
3.62888e-10
3.21052e-10
3.44698e-10
3.9563e-10
3.75621e-10
4.28372e-10
3.56522e-10
2.90129e-10
2.96495e-10
3.31056e-10
2.63753e-10
1.80989e-10
1.70075e-10
1.60071e-10
2.09184e-10
1.50067e-10
3.51065e-10
3.34694e-10
-3.89264e-10
4.3201e-10
4.09273e-10
3.73802e-10
4.36558e-10
3.79259e-10
3.83807e-10
3.83807e-10
4.23825e-10
3.4106e-10
4.38377e-10
3.83807e-10
3.79259e-10
3.72893e-10
3.7744e-10
3.4288e-10
2.35559e-10
2.41926e-10
1.54614e-10
1.66438e-10
1.38243e-10
3.64708e-10
3.64708e-10
-3.39242e-10
4.81123e-10
3.4106e-10
3.51065e-10
3.44698e-10
3.52884e-10
3.31056e-10
3.01952e-10
3.91992e-10
3.51065e-10
3.85626e-10
4.36557e-10
4.05635e-10
3.72893e-10
3.9563e-10
3.69255e-10
2.43745e-10
2.29193e-10
1.10049e-10
1.01863e-10
-6.36666e-12
3.11957e-10
3.14685e-10
-2.63754e-10
4.36558e-10
3.32875e-10
3.47427e-10
3.41061e-10
3.69255e-10
3.91083e-10
3.03771e-10
4.44743e-10
3.89264e-10
4.18368e-10
4.36557e-10
3.9563e-10
3.9563e-10
4.15639e-10
4.28372e-10
3.51065e-10
2.11003e-10
1.10049e-10
1.05501e-10
6.73025e-11
3.59251e-10
2.21007e-10
-2.43745e-10
3.89264e-10
3.08319e-10
3.04681e-10
2.59206e-10
4.33829e-10
4.20187e-10
3.08319e-10
4.07454e-10
4.12001e-10
3.61069e-10
4.44743e-10
3.20142e-10
4.48381e-10
3.85626e-10
4.52928e-10
3.56522e-10
1.90994e-10
9.09494e-11
1.54614e-10
7.91259e-11
3.31056e-10
2.19188e-10
-2.24645e-10
3.21052e-10
3.99268e-10
3.32875e-10
3.52884e-10
4.30191e-10
4.07454e-10
3.20142e-10
4.43833e-10
4.17458e-10
3.9563e-10
4.502e-10
3.49246e-10
4.42014e-10
3.85626e-10
4.44743e-10
2.98314e-10
2.5193e-10
1.21872e-10
1.58252e-10
1.00954e-10
4.05635e-10
1.76442e-10
-2.63754e-10
2.55568e-10
3.65617e-10
3.00133e-10
2.59206e-10
3.89264e-10
3.57431e-10
2.8831e-10
4.79304e-10
4.15639e-10
3.7744e-10
4.17458e-10
3.065e-10
3.7744e-10
3.72893e-10
4.12001e-10
3.39241e-10
3.81078e-10
2.04636e-10
1.01863e-10
6.4574e-11
4.97494e-10
1.54614e-10
-3.065e-10
2.60116e-10
2.83762e-10
2.21007e-10
2.81943e-10
3.44699e-10
2.93767e-10
3.01952e-10
3.56522e-10
3.82897e-10
3.4106e-10
3.61069e-10
1.76442e-10
2.1555e-10
3.97449e-10
3.61069e-10
3.82897e-10
3.065e-10
2.27374e-10
9.91349e-11
6.6393e-11
5.32055e-10
2.02817e-10
-2.7012e-10
2.11003e-10
2.49202e-10
2.39197e-10
4.12001e-10
3.51065e-10
2.90129e-10
2.71939e-10
2.5193e-10
3.01952e-10
3.34694e-10
2.53749e-10
7.73069e-11
1.54614e-10
3.64707e-10
2.24645e-10
3.64707e-10
2.83762e-10
2.41016e-10
1.27329e-10
2.18277e-11
3.18323e-10
1.56433e-10
-1.94632e-10
2.65573e-10
2.25555e-10
2.98314e-10
3.83807e-10
2.12822e-10
1.9827e-10
2.98314e-10
2.55568e-10
2.71939e-10
3.44699e-10
2.35559e-10
1.28239e-10
2.09184e-10
3.22871e-10
2.02817e-10
3.62888e-10
3.00133e-10
3.12866e-10
1.89175e-10
4.91126e-11
3.85626e-10
7.27596e-11
-1.28239e-10
3.57432e-10
2.5193e-10
2.41016e-10
2.78305e-10
2.00998e-10
1.60071e-10
1.72804e-10
2.00998e-10
3.00133e-10
2.67391e-10
2.1555e-10
2.27374e-10
1.71894e-10
2.19188e-10
2.00998e-10
2.21007e-10
2.27374e-10
2.91948e-10
1.89175e-10
3.09226e-11
4.6839e-10
9.3678e-11
-6.36665e-12
4.97494e-10
2.98314e-10
2.53749e-10
3.18323e-10
2.04636e-10
1.88265e-10
1.51886e-10
2.41016e-10
2.37378e-10
1.71894e-10
1.8008e-10
3.38332e-10
1.9827e-10
2.75577e-10
1.62799e-10
2.1555e-10
2.17369e-10
2.21007e-10
2.09184e-10
1.45517e-11
4.28372e-10
1.28239e-10
1.17325e-10
5.60249e-10
3.30146e-10
3.31056e-10
4.62023e-10
1.56433e-10
2.22826e-10
2.61934e-10
2.3374e-10
2.47383e-10
1.76442e-10
2.61934e-10
4.00178e-10
2.65572e-10
2.53749e-10
1.89175e-10
2.8831e-10
2.45564e-10
1.64618e-10
1.99179e-10
-2.369e-16
4.42015e-10
1.27329e-10
2.7012e-10
7.61247e-10
4.43833e-10
4.82942e-10
5.63887e-10
3.32875e-10
2.59206e-10
4.66571e-10
2.41016e-10
4.20187e-10
2.12822e-10
2.80124e-10
4.79304e-10
3.85626e-10
3.20142e-10
3.65617e-10
4.22006e-10
3.41061e-10
2.65572e-10
3.065e-10
1.09139e-10
3.67436e-10
-5.63888e-11
1.05501e-10
6.75755e-10
4.76575e-10
3.16504e-10
4.81123e-10
2.02817e-10
2.14641e-10
2.80124e-10
1.72804e-10
2.59206e-10
2.39197e-10
1.50066e-10
3.08319e-10
2.81943e-10
2.93767e-10
2.37378e-10
3.57431e-10
2.94676e-10
2.68301e-10
1.19144e-10
1.71894e-10
2.53749e-10
-5.63888e-11
3.83807e-10
7.53062e-10
5.90262e-10
4.15639e-10
4.42014e-10
2.83762e-10
3.16504e-10
3.18323e-10
3.00133e-10
3.51065e-10
3.44699e-10
2.73758e-10
3.22871e-10
3.5925e-10
3.065e-10
3.54703e-10
3.65617e-10
3.62888e-10
3.54703e-10
3.00133e-10
4.92946e-10
6.91214e-11
-2668.99
-709.594
1511.43
1659.35
-2804
-2836.98
-2828.69
-2444.62
-1781.78
-2144.3
-2166.83
-2079.38
569.346
399.779
889.713
1457.68
2844.77
2722.36
2754.4
2855.91
2069.58
2238.17
2246.07
2239.76
2429.24
2546.96
2699.28
2632.07
1703.13
1866.7
1950.32
1645.18
548.727
593.623
676.929
795.067
88.2265
91.2705
110.211
138.417
18.3247
21.591
36.7895
57.7264
119.791
121.567
124.599
126.905
526.704
585.854
637.348
687.756
403.395
420.23
432.992
439.167
194.47
175.261
158.939
145.504
54.618
52.7359
44.5479
28.6584
10.2091
10.3259
12.3946
9.52433
0.99713
1.01558
2.34374
1.68413
0.141857
0.149335
0.223606
0.201751
0.0097569
0.0101901
0.0260569
0.0239674
0.000715437
0.000811983
0.00128743
0.00161853
5.19487e-05
4.70579e-05
0.000123823
0.000105923
2.52469e-06
4.99968e-06
7.47096e-06
8.0545e-06
1.96715e-07
2.60507e-07
4.13039e-07
9.5053e-07
9.85976e-09
2.3072e-08
3.81632e-08
6.85301e-08
9.45872e-10
1.36151e-09
2.38013e-09
8.00534e-09
1.01863e-10
2.19188e-10
2.8649e-10
8.76749e-10
1.09139e-10
8.0945e-11
6.73025e-11
4.63835e-11
7.54878e-11
1.10049e-10
7.73072e-11
-4.27466e-11
9.73157e-11
9.5497e-11
5.27508e-11
-1.0914e-10
1.81895e-11
8.36737e-11
6.09363e-11
-7.54884e-11
8.09448e-11
1.81898e-11
1.00045e-11
-8.91308e-11
1.13687e-10
5.09317e-11
2.27375e-11
-7.91263e-11
1.36424e-10
7.45785e-11
5.09319e-11
-9.27689e-11
8.27638e-11
1.11868e-10
7.54882e-11
-7.91264e-11
-8.91312e-11
9.27688e-11
6.45743e-11
-7.91263e-11
-8.5493e-11
-5.63888e-11
1.45522e-11
-1.51886e-10
-6.63936e-11
-3.63787e-12
-1.36423e-11
-1.4552e-10
-6.27557e-11
1.00045e-11
3.00134e-11
-2.0009e-11
3.27414e-11
1.31877e-10
4.00177e-11
-2.27376e-11
-5.91176e-11
3.00133e-11
1.20053e-10
2.47383e-10
-6.36648e-12
-3.2742e-11
4.82034e-11
1.45516e-11
-256.475
2260.13
1728.07
2590.51
2712.66
2827.59
2774.12
2193.61
2164.2
2540.21
2362.2
2346.52
2448.27
2366.71
1635.69
1119.42
1634.69
-603.724
-2464.52
550.844
-2021.19
-2855.66
-2856.74
-2835.98
-2811.02
-2834.73
-2840.68
-2547.92
-2396.71
-2458.6
-2537.28
-2639.73
-2699.65
-2759.31
-2678.48
-1714.76
-2271.34
-2757.42
-552.218
-2820.69
-2813.48
-2606.22
-2512.23
-2170.88
-2115.3
-2244.3
-2613.46
-2718.75
-2186.39
-953.312
-1251.72
-1530.97
-1789.24
-2302.48
-2736.72
-2799.36
-2804.72
-477.078
-1890.84
-1900.4
-2095.96
-1811.48
-2639.61
-2856.12
-2857.62
-2594.53
-957.203
1743.33
2621.34
2447.1
1951.79
1448.21
304.484
-1057.17
-2626.9
-2851.4
2713.44
2162.44
1662.28
1909.2
2248.42
1520.99
-559.969
-987.484
632.748
2703.65
2678.83
2627.74
2733.41
2826.85
2538.9
2048.85
1903.43
-880.811
-2638.9
2659.64
2771.17
2849.14
2785.77
2786.83
2732.88
1434.07
1694.92
2710.23
2556.22
1741.96
1789.53
2243.53
2664.18
2855.37
2480.16
2708.46
1079.91
-2261.12
2535.96
2509.86
2387.3
2363.11
2596.87
2228.01
2255.22
2854.47
1928.4
1098.14
1173.12
1557.79
2547.8
2716.21
2816.63
2857.48
2698.12
330.077
-2221.33
1556.6
2027.89
2771.37
2737.23
2790.56
2706.03
2835.85
2056.89
931.041
787.156
1273.9
1756.74
2245.32
2612.9
2838.55
2787.14
1888.71
-668.709
-2154.05
680.553
1453.96
2813.23
2227.49
2587.85
2361.77
2392.18
802.399
755.228
1043.89
1552.83
2052.89
2472.09
2758.47
2786.85
1783.32
81.8529
-1303.6
-2009.54
173.204
464.804
1460.15
2086.78
2749.79
2401.58
788.152
1162.02
1582.04
1833.86
2073.86
2356.21
2668.48
2852.99
2740.82
1516.57
-170.056
-1292.56
-1760.03
100.432
344.049
866.228
1230.18
1186.39
1048.15
1011.99
1469.01
1680.28
1824.45
1951.8
2190.26
2455.36
2732.28
2832.23
1717.48
-6.99156
-1165.68
-1559.06
285.495
602.922
808.322
934.265
1000.24
1175.59
1511.39
1668
1754.74
1821.76
1906.95
2001.57
2255.63
2332.38
2410.63
2835.56
1711.3
-875.574
-1488.99
768.369
887.852
989.402
1097.04
1180.8
1224.91
1211.57
908.132
729.365
595.392
548.966
461.591
591.538
1000.8
1832.2
2856.88
2090.82
124.407
-1413.92
440.618
435.728
413.564
472.147
464.664
477.843
294.781
139.047
133.594
96.359
107.731
74.6895
107.886
275.2
1878.19
2376.21
768.531
187.567
-1342.4
134.259
129.84
122.456
131.321
118.368
87.8973
20.5569
16.3481
14.7958
11.3232
18.5128
24.9723
96.8175
97.1788
595.959
2115.46
2306.5
41.0111
-1338.84
19.12
32.1581
51.0303
50.1313
37.4879
11.7713
6.03782
5.25929
4.64913
5.45974
22.3973
36.0379
294.097
141.438
1029.25
2745.77
2015.44
-208.013
-1360.56
4.25702
7.50142
19.4082
26.2439
31.0455
10.3634
2.52002
1.67411
3.1012
14.8738
109.17
200.215
711.587
871.116
2764.95
2407.04
941.332
-759.534
-1440.38
0.848715
1.13722
3.62025
4.48104
6.98557
3.17673
1.32657
1.76182
12.0832
71.8077
314.993
751.885
1684.27
2813.42
1356.68
-308.02
-1049.93
-1435.39
-1564.46
0.118796
0.191066
0.848176
1.21028
1.19798
0.747056
0.648305
3.37418
27.709
127.458
461.643
1179.43
2282.34
2586.2
-271.745
-1181.03
-1055.5
-1073.05
-1603.37
0.0166102
0.0336918
0.0962301
0.243555
0.323359
0.150982
0.702729
5.199
27.5077
100.807
282.488
584.662
938.742
1825.69
2835.5
1484.88
1817.11
1037.82
-1530.07
0.00212163
0.00669056
0.0131326
0.049768
0.0483209
0.147213
1.71486
12.4677
53.8941
151.676
364.568
768.391
1184.79
1525.32
2104.85
2708.43
2852.99
1085.07
-858.802
0.000306862
0.000802617
0.00321974
0.00914114
0.00818761
0.023146
0.336385
3.19479
16.8872
84.7771
285.326
762.053
1319.15
1815.46
2352.69
2808.41
2574.85
1157.1
377.972
2.75339e-05
0.000151258
0.000595828
0.00156199
0.00192245
0.0159396
0.214594
2.29874
17.9288
73.7677
261.134
528.753
1006.89
1598.8
2184.92
2623.02
2856.15
2262.71
955.941
2.61176e-06
2.35674e-05
0.000107483
0.000282673
0.000465887
0.00575666
0.0800382
0.712832
7.98811
39.867
138.042
396.48
869.621
1509.69
1952.9
2442.21
2829
2580.24
1124.62
2.65977e-07
3.69963e-06
1.89962e-05
4.37642e-05
7.86291e-05
0.000820707
0.0109419
0.0951885
2.22086
14.2649
102.822
316.209
633.04
1328.1
1755.99
2402.73
2852.29
2597.92
1173.86
3.67061e-08
4.86645e-07
2.93518e-06
4.84076e-06
1.53024e-05
0.000125638
0.00132626
0.0759244
1.17697
18.5147
110.404
252.537
447.024
949.077
1258.34
2360.25
2857.7
2400.21
1184.46
4.77119e-09
5.94717e-08
3.39678e-07
5.12056e-07
2.94201e-06
2.43288e-05
0.000840624
0.0501708
0.557832
6.60984
24.7103
113.597
157.431
609.622
826.328
2140.7
2856.3
2365.54
1166.95
6.04812e-10
5.4333e-09
3.62969e-08
5.87177e-08
4.7807e-07
1.17779e-05
0.000558848
0.0142565
0.186283
1.46773
7.54371
58.5321
38.7714
193.232
323.091
1494.35
2853.06
2305.76
1271.99
1.72804e-10
7.46694e-10
2.48928e-09
8.81207e-09
5.69088e-08
3.78737e-06
0.000155939
0.00315137
0.0383342
0.405004
3.74114
26.3606
9.16464
20.0866
35.3353
479.331
2368.74
2427.37
1540.57
1.13687e-10
1.76442e-10
3.69254e-10
1.20508e-09
8.4426e-09
9.29845e-07
2.77203e-05
0.000499137
0.00552162
0.103232
2.52927
3.42071
2.25095
1.53242
2.37808
66.3618
1278.84
2854.21
2305.67
1.45519e-10
2.09184e-10
2.35559e-10
3.44698e-10
1.96174e-09
1.3873e-07
3.5945e-06
5.26495e-05
0.000909462
0.0109464
0.325976
0.574741
0.324289
0.307771
0.706756
4.7027
187.146
1481.23
2705.74
1.51886e-10
1.36424e-10
4.63841e-11
2.12821e-10
1.72076e-09
2.67372e-08
4.61648e-07
6.69668e-06
4.65919e-05
0.00152884
0.00529371
0.0112483
0.0299507
0.12969
0.687818
2.66101
19.4157
307.515
1303.79
1.05501e-10
1.38243e-10
1.58252e-10
3.67435e-10
3.07772e-09
4.15147e-08
4.13642e-07
4.69055e-06
4.86491e-05
0.000229328
0.00123492
0.0069624
0.0309938
0.140431
1.25769
5.25827
9.66062
58.5882
650.831
1.33696e-10
1.20053e-10
1.66437e-10
1.56251e-09
9.92985e-09
9.79661e-08
6.45926e-07
5.83182e-06
9.57963e-05
0.000637835
0.00279219
0.015613
0.0518232
0.315613
2.72964
9.12349
10.9253
36.5138
530.581
4.63842e-11
1.01863e-10
2.86491e-10
1.04228e-09
6.53379e-09
6.31397e-08
6.15736e-07
6.35859e-06
0.000118906
0.000908329
0.00403161
0.0173598
0.0509645
0.365499
3.3943
10.2976
13.0157
27.706
454.111
7.27596e-11
2.27374e-10
3.97449e-10
1.27602e-09
1.24737e-08
8.11521e-08
1.14582e-06
1.32197e-05
0.00020934
0.000811047
0.00575592
0.0289448
0.0505846
0.372292
3.88195
11.502
14.0214
26.4721
446.932
9.5497e-11
1.51886e-10
3.10138e-10
1.10594e-09
8.74932e-09
8.2944e-08
6.16666e-07
7.43372e-06
0.000120846
0.000121694
0.00128526
0.00342976
0.00521057
0.0799402
0.790137
8.15797
13.7651
33.171
479.618
1.15506e-10
1.88265e-10
2.5193e-10
4.99312e-10
2.76485e-09
3.55785e-08
1.49971e-07
1.42437e-06
2.90826e-06
1.95558e-05
0.00102264
0.000826843
0.000621454
0.00392488
0.168587
3.22169
8.49666
30.4622
493.952
6.91216e-11
1.68257e-10
5.63885e-11
2.80124e-10
1.43609e-09
1.36087e-08
9.82926e-08
5.49682e-07
8.71958e-07
6.65638e-06
0.000295097
0.000127272
0.000152685
0.000893527
0.0278321
0.202233
1.44727
11.5577
286.044
1.09139e-10
1.82808e-10
4.45652e-11
1.96451e-10
3.75621e-10
2.03454e-09
1.00153e-08
2.62188e-08
5.77317e-08
4.23646e-07
7.83227e-06
1.98596e-05
0.000108274
0.000310691
0.00199849
0.0063862
0.217903
4.15535
217.233
3.91083e-10
1.88265e-10
-2.31012e-10
-8.54926e-11
-1.19144e-10
2.45557e-11
3.81955e-11
6.31182e-10
1.62523e-09
8.07829e-08
5.98948e-07
1.8263e-05
0.000187454
0.000422226
0.000586788
0.0012989
0.0353076
0.160138
139.548
2.29193e-10
2.3374e-10
-1.31877e-10
1.48248e-10
2.06455e-10
2.39197e-10
1.88265e-10
-2.27379e-11
1.02679e-09
1.22479e-07
6.35227e-07
1.93062e-05
0.000211306
0.000491975
0.000663359
0.00148366
0.0356256
0.0472972
43.4642
)
;

boundaryField
{
    leftWall
    {
        type            zeroGradient;
    }
    rightWall
    {
        type            zeroGradient;
    }
    lowerWall
    {
        type            zeroGradient;
    }
    atmosphere
    {
        type            zeroGradient;
    }
    defaultFaces
    {
        type            empty;
    }
}


// ************************************************************************* //
