/*--------------------------------*- C++ -*----------------------------------*\
| =========                 |                                                 |
| \\      /  F ield         | foam-extend: Open Source CFD                    |
|  \\    /   O peration     | Version:     4.1                                |
|   \\  /    A nd           | Web:         http://www.foam-extend.org         |
|    \\/     M anipulation  |                                                 |
\*---------------------------------------------------------------------------*/
FoamFile
{
    version     2.0;
    format      ascii;
    class       volVectorField;
    location    "0.7";
    object      U;
}
// * * * * * * * * * * * * * * * * * * * * * * * * * * * * * * * * * * * * * //

dimensions      [0 1 -1 0 0 0 0];

internalField   nonuniform List<vector> 
2268
(
(0.0990465 -0.0399143 0)
(-0.118147 0.0321077 0)
(-0.24136 -0.0622422 0)
(0.070685 -0.0242869 0)
(0.0879251 0.0164589 0)
(0.0308767 -0.0282622 0)
(0.192322 -0.126058 0)
(0.495405 0.0576761 0)
(0.290143 0.0332829 0)
(0.214584 -0.0137096 0)
(0.124344 0.084361 0)
(0.0849301 0.0162695 0)
(0.0862789 0.0206548 0)
(0.058136 0.0146324 0)
(0.0186075 0.00465467 0)
(-0.000485212 0.0113922 0)
(-0.0102503 0.0108526 0)
(-0.0196568 0.0264164 0)
(-0.0659877 0.0316747 0)
(-0.0745177 -0.0251027 0)
(-0.0615706 -0.0515542 0)
(0.00318367 -0.00604716 0)
(-0.000711285 -0.00221123 0)
(-0.103681 0.029508 0)
(-0.0620592 0.143159 0)
(-0.072992 -0.0881294 0)
(-0.0453349 -0.0566999 0)
(0.0342324 -0.0188265 0)
(-0.30005 0.0303409 0)
(-0.15907 -0.280779 0)
(0.385494 0.104935 0)
(0.171485 0.0348947 0)
(0.239769 -0.0749399 0)
(0.211036 0.0550142 0)
(0.0836337 0.00475899 0)
(0.091757 0.0103744 0)
(0.0504175 0.0511388 0)
(0.0315698 0.0227804 0)
(-0.0030389 0.00482691 0)
(-0.0358516 -0.00352844 0)
(-0.0132599 0.00230622 0)
(-0.00914417 0.0153338 0)
(-0.0106417 0.0219921 0)
(-0.0140264 -0.0247926 0)
(-0.0483007 -0.0206986 0)
(0.0057148 0.00248529 0)
(-0.176563 -0.0171222 0)
(0.169398 0.153485 0)
(0.28075 -0.151709 0)
(0.160794 -0.0208028 0)
(0.193912 0.051702 0)
(-0.154301 0.17451 0)
(-0.0669565 -0.5115 0)
(0.250164 0.102047 0)
(0.132251 0.0527911 0)
(0.216932 -0.0909904 0)
(0.20028 0.157491 0)
(0.0506307 0.0360264 0)
(0.0725855 0.0590058 0)
(0.0202443 0.0719088 0)
(-0.0113031 0.0232121 0)
(-0.00918702 0.0449419 0)
(-0.0418055 0.0244219 0)
(-0.0393403 0.00806001 0)
(-0.0240419 0.0087556 0)
(-0.0045165 -0.00254853 0)
(-0.0336364 -0.00792929 0)
(-0.0627779 -0.0248071 0)
(0.00161305 -0.0223964 0)
(-0.227315 0.0690492 0)
(0.131279 0.0936102 0)
(0.0785888 -0.152883 0)
(-0.0199555 0.0526222 0)
(0.321213 0.0429667 0)
(0.0477548 0.18769 0)
(-0.0325108 -0.525625 0)
(0.0443794 0.0738157 0)
(-0.226192 0.165001 0)
(-0.0635656 -0.284247 0)
(0.280881 0.232216 0)
(-0.13789 0.0345454 0)
(0.0187221 0.0473816 0)
(-0.0703607 0.0325406 0)
(-0.0499009 0.0850049 0)
(-0.0459233 0.0985035 0)
(-0.0705717 0.0189196 0)
(-0.0551938 -0.0058814 0)
(-0.0213296 -0.00161215 0)
(-0.0133834 0.00748461 0)
(-0.0347764 0.00218471 0)
(-0.0706077 -0.00982742 0)
(-0.00706437 -0.0279004 0)
(-0.274804 0.063279 0)
(0.267225 -0.080041 0)
(0.248481 -0.160255 0)
(0.317841 -0.0134023 0)
(0.684839 -0.0474515 0)
(0.315985 0.267663 0)
(0.229542 -0.29007 0)
(-0.353661 0.0962948 0)
(-0.248897 0.111032 0)
(-0.0441647 -0.470809 0)
(0.161594 0.259544 0)
(-0.137821 0.0670318 0)
(-0.0701183 0.0153762 0)
(-0.0879844 0.0750967 0)
(-0.0843687 0.0544261 0)
(-0.128082 0.0122147 0)
(-0.153074 0.0390554 0)
(-0.0946044 -0.013337 0)
(-0.0462468 -0.013218 0)
(-0.0195134 0.0132339 0)
(-0.0445729 0.00276125 0)
(-0.0805854 -0.0178693 0)
(-0.0198388 -0.0580411 0)
(-0.219157 0.000514139 0)
(0.298376 -0.235467 0)
(0.421571 -0.250395 0)
(0.415936 -0.0445641 0)
(0.535833 -0.0182747 0)
(0.384794 0.229449 0)
(0.286832 -0.188634 0)
(-0.264199 0.180825 0)
(0.0159553 0.109225 0)
(-0.240677 -0.427718 0)
(0.099128 0.234218 0)
(-0.0210743 0.0951019 0)
(-0.0464266 0.0306389 0)
(-0.10476 0.0665514 0)
(-0.146239 0.0301528 0)
(-0.144887 0.0392707 0)
(-0.157013 0.0456464 0)
(-0.126338 -0.00336448 0)
(-0.0602783 -0.0532171 0)
(-0.0153548 0.0210424 0)
(-0.0591241 0.0239015 0)
(-0.0924409 -0.020046 0)
(-0.0445718 -0.0751289 0)
(0.00164318 0.0302981 0)
(0.322654 -0.284397 0)
(0.524066 -0.256433 0)
(0.519497 -0.174448 0)
(0.583133 0.081626 0)
(0.467105 0.441089 0)
(0.223511 -0.0613291 0)
(0.0840575 0.241487 0)
(0.184447 0.0721853 0)
(-0.162684 -0.36137 0)
(0.0637945 0.100229 0)
(-0.00897429 0.153274 0)
(-0.0475865 0.0629013 0)
(-0.0859382 0.088353 0)
(-0.121487 0.0715007 0)
(-0.147367 0.0511469 0)
(-0.202909 0.0468479 0)
(-0.197954 -0.0520837 0)
(-0.0138352 -0.064748 0)
(0.073993 0.0288014 0)
(-0.0334449 0.0370231 0)
(-0.0901032 -0.0184851 0)
(-0.0717175 -0.123628 0)
(0.130422 -0.274789 0)
(0.352736 -0.31035 0)
(0.48892 -0.285558 0)
(0.469526 -0.183764 0)
(0.681513 0.055334 0)
(0.496814 0.565864 0)
(-0.218493 -0.193965 0)
(0.139981 0.250408 0)
(0.0510501 0.0642201 0)
(0.0676235 -0.348147 0)
(-0.00752403 0.0970256 0)
(-0.178962 0.15546 0)
(-0.0335625 0.0791965 0)
(-0.106069 0.135325 0)
(-0.183048 0.0947281 0)
(-0.182456 0.0388378 0)
(-0.214859 0.0804109 0)
(-0.132435 -0.180031 0)
(0.0112363 -0.122689 0)
(0.0659141 0.0296323 0)
(0.0379527 0.062945 0)
(-0.0348225 0.0175713 0)
(-0.11647 -0.192657 0)
(-0.551008 0.203389 0)
(-0.744251 0.0343245 0)
(-0.855538 0.0220975 0)
(-0.882829 0.011157 0)
(-0.872272 -0.0287997 0)
(-0.856716 0.0059699 0)
(-0.912371 -0.00475353 0)
(-1.06015 -0.154431 0)
(-1.15616 -0.0828328 0)
(-1.06692 -0.146173 0)
(-1.06814 -0.0247195 0)
(-1.08762 0.0935882 0)
(-1.00085 -0.0429431 0)
(-0.896842 -0.00347495 0)
(-0.850404 -0.0744724 0)
(-0.593029 -0.148855 0)
(-0.333933 -0.0792494 0)
(-0.210948 0.000649201 0)
(0.313234 0.0240671 0)
(-0.453694 0.375188 0)
(-0.493126 0.0957308 0)
(-0.492689 0.0148255 0)
(-0.581961 -0.0250525 0)
(-0.607736 0.0443623 0)
(-0.597559 0.0820179 0)
(-0.985514 0.00870801 0)
(-1.09856 -0.102911 0)
(-1.20204 0.0553769 0)
(-1.0854 0.123343 0)
(-1.03086 0.0784863 0)
(-1.12403 0.212993 0)
(-1.00112 -0.0130951 0)
(-0.864503 -0.0337154 0)
(-0.899211 -0.141797 0)
(-0.673324 -0.0831685 0)
(-0.422483 -0.183247 0)
(-0.36526 -0.1661 0)
(0.33367 0.0246595 0)
(-0.411786 0.806698 0)
(-0.249702 0.280001 0)
(-0.134496 0.028417 0)
(-0.484811 -0.10651 0)
(-0.484461 0.157906 0)
(-0.518567 0.0939026 0)
(-0.835091 -0.0970937 0)
(-0.862114 -0.129145 0)
(-1.00005 -0.0136483 0)
(-0.961736 0.102179 0)
(-0.846549 -0.0926077 0)
(-0.943034 -0.0126914 0)
(-0.888779 0.107596 0)
(-0.667503 -0.118184 0)
(-0.696836 -0.236065 0)
(-0.674751 -0.112444 0)
(-0.410864 -0.239281 0)
(-0.368594 -0.339026 0)
(0.230138 0.0132977 0)
(-0.447319 0.928981 0)
(-0.299142 0.407727 0)
(-0.391746 0.0473053 0)
(-0.427102 0.012006 0)
(-0.363 0.249215 0)
(-0.0528564 0.22952 0)
(-0.35161 0.105178 0)
(-0.447466 -0.173603 0)
(-0.893248 0.0658388 0)
(-0.852188 0.0714694 0)
(-0.804337 0.026352 0)
(-0.793854 -0.0024121 0)
(-0.822344 0.0824344 0)
(-0.598262 -0.00555087 0)
(-0.532852 -0.18902 0)
(-0.559949 -0.189936 0)
(-0.47049 -0.248431 0)
(-0.404475 -0.413382 0)
(0.0766926 -0.0458265 0)
(-0.392661 1.08745 0)
(-0.274545 0.557476 0)
(-0.251513 0.0190417 0)
(-0.0138242 -0.158289 0)
(-0.239995 0.180937 0)
(-0.174154 0.181041 0)
(-0.275394 0.219868 0)
(-0.219978 -0.0133916 0)
(-0.543844 0.309244 0)
(-0.461353 -0.111065 0)
(-0.601052 0.0397624 0)
(-0.288311 0.0142222 0)
(-0.340875 -0.200729 0)
(-0.329094 -0.00243413 0)
(-0.124286 -0.231231 0)
(-0.393634 -0.376915 0)
(-0.459801 -0.424394 0)
(-0.44345 -0.43523 0)
(-0.234048 -0.14733 0)
(-0.418574 1.19236 0)
(-0.296049 0.547562 0)
(-0.222826 -0.0735823 0)
(0.0612671 -0.0858207 0)
(-0.283235 0.248425 0)
(0.140419 0.0983549 0)
(-0.153946 0.210013 0)
(-0.0513355 -0.0704132 0)
(-0.0671181 0.304403 0)
(0.273555 0.183761 0)
(0.275747 0.00671014 0)
(0.425704 -0.146827 0)
(0.149578 0.105344 0)
(0.298616 -0.0948912 0)
(0.0706796 -0.0530599 0)
(-0.295798 -0.41687 0)
(-0.413816 -0.471428 0)
(-0.365187 -0.437558 0)
(-0.455236 -0.330506 0)
(-0.410472 1.32777 0)
(-0.175535 0.520564 0)
(0.210002 -0.154594 0)
(-0.026298 0.0219671 0)
(-0.182272 0.309769 0)
(0.253215 0.0926277 0)
(-0.0613974 0.210539 0)
(0.270583 0.0316844 0)
(0.456445 0.0822022 0)
(0.660197 -0.108414 0)
(0.833685 0.0236671 0)
(0.695473 -0.0979093 0)
(0.512619 -0.114417 0)
(0.58155 -0.00583027 0)
(0.229333 -0.0328436 0)
(-0.10001 -0.20903 0)
(-0.239308 -0.185223 0)
(-0.19392 -0.397841 0)
(-0.373606 -0.530639 0)
(-0.398603 1.26856 0)
(-0.296591 0.229527 0)
(-0.169767 -0.214298 0)
(-0.204607 0.0626112 0)
(-0.072161 0.0885339 0)
(0.0668744 0.100508 0)
(0.069801 0.0244626 0)
(0.349136 -0.111449 0)
(0.54092 -0.0223125 0)
(0.651206 0.0348878 0)
(0.790641 0.0223483 0)
(0.612256 -0.0828846 0)
(0.395505 0.0367838 0)
(0.395275 0.0868607 0)
(0.0506595 0.115563 0)
(0.0444648 -0.161718 0)
(-0.0496381 -0.121273 0)
(0.0775454 -0.351062 0)
(-0.118806 -0.542657 0)
(0.233526 -0.47899 0)
(0.37875 -0.347617 0)
(0.424772 -0.163905 0)
(-0.0869164 0.059552 0)
(-0.381354 -0.0318792 0)
(0.206794 0.744032 0)
(-0.0813776 0.0288479 0)
(0.0614632 0.437274 0)
(-0.0267342 0.167603 0)
(-0.232119 -0.0842701 0)
(-0.239167 0.224971 0)
(-0.160997 0.0933109 0)
(-0.0890161 0.0253581 0)
(-0.0906274 0.0910599 0)
(-0.158284 0.122019 0)
(-0.0931132 0.0217697 0)
(-0.0597872 0.0185618 0)
(0.000672557 -0.213362 0)
(-0.130645 -0.179373 0)
(-0.118421 0.0128007 0)
(-0.0338001 0.0666706 0)
(-0.176046 0.101634 0)
(-0.293041 -0.0787034 0)
(0.00683825 -0.528595 0)
(0.017677 -0.318861 0)
(0.0867722 -0.0268821 0)
(-0.107537 0.291975 0)
(-0.32838 -0.190671 0)
(0.0132017 0.623799 0)
(-0.109068 0.0303202 0)
(-0.0952085 0.418766 0)
(-0.124709 0.0352358 0)
(0.00613353 -0.253232 0)
(0.0726662 -0.102879 0)
(-0.029686 0.140079 0)
(-0.0426942 0.0546713 0)
(0.0300393 0.199794 0)
(-0.0497804 0.0912121 0)
(0.163585 -0.107896 0)
(0.319771 -0.0953094 0)
(0.0888045 -0.0207911 0)
(-0.242794 -0.0538236 0)
(-0.146386 -0.0320437 0)
(-0.242421 0.0917773 0)
(-0.311742 0.116315 0)
(-0.357469 -0.0202609 0)
(-0.0587556 -0.657729 0)
(-0.21814 -0.289668 0)
(-0.265355 -0.019042 0)
(0.0156055 0.555664 0)
(0.224674 -0.0195168 0)
(0.0575672 0.346018 0)
(-0.2026 0.186266 0)
(-0.0799154 0.141186 0)
(0.159975 -0.115425 0)
(-0.0390576 -0.268533 0)
(0.0846317 0.133806 0)
(-0.107795 0.289892 0)
(-0.0869546 -0.0505766 0)
(0.160573 0.186361 0)
(0.0672507 0.0383461 0)
(-0.00194998 -0.134452 0)
(-0.204951 -0.0307456 0)
(-0.184693 0.334255 0)
(-0.274054 0.121483 0)
(-0.0608751 0.0280175 0)
(-0.222934 0.0996204 0)
(-0.323988 -0.00922502 0)
(-0.336852 0.000939919 0)
(0.0810527 -0.792812 0)
(0.014759 -0.454258 0)
(-0.0920384 -0.49961 0)
(0.0933038 0.0895499 0)
(-0.0491922 -0.113642 0)
(-0.0805966 0.372432 0)
(-0.0805537 0.200792 0)
(0.0744866 0.0501186 0)
(-0.163546 0.0643579 0)
(-0.57001 0.0818364 0)
(-0.329236 0.173134 0)
(-0.291671 0.206745 0)
(-0.213629 -0.238198 0)
(-0.127423 0.147894 0)
(-0.301576 0.129746 0)
(-0.432018 0.158253 0)
(-0.15918 -0.00217953 0)
(-0.0203992 0.175451 0)
(0.124379 -0.253874 0)
(0.164451 0.0226298 0)
(0.385375 0.292423 0)
(0.694492 0.103607 0)
(0.427772 0.117864 0)
(-0.0702126 -0.344178 0)
(-0.0341559 0.156511 0)
(-0.189323 -0.0665566 0)
(-0.136953 0.237282 0)
(-0.173675 0.171497 0)
(-0.243792 0.359115 0)
(-0.136277 0.138035 0)
(-0.171163 0.11565 0)
(0.115658 0.212686 0)
(-0.325998 0.157655 0)
(-0.233469 -0.22305 0)
(-0.145675 0.145319 0)
(0.0228623 -0.243513 0)
(-0.429692 0.278575 0)
(-0.272124 0.207393 0)
(-0.127238 -0.202192 0)
(0.110472 -0.229733 0)
(0.162387 0.00733093 0)
(0.203337 -0.118544 0)
(0.0835702 -0.0659067 0)
(0.147296 -0.0489209 0)
(0.332431 -0.108981 0)
(0.507568 0.112385 0)
(-0.153493 -0.587156 0)
(-0.166521 -0.235545 0)
(-0.460255 -0.123566 0)
(-0.529551 0.145519 0)
(-0.302422 0.16035 0)
(-0.254877 0.294395 0)
(-0.125342 0.0386559 0)
(-0.173462 -0.0915859 0)
(-0.186438 0.309034 0)
(-0.172734 0.483714 0)
(-0.0321759 -0.163365 0)
(-0.100816 -0.0595384 0)
(-0.0483418 -0.0542656 0)
(-0.345664 0.205516 0)
(0.0636562 -0.0439838 0)
(0.12142 -0.249934 0)
(0.0783347 -0.261975 0)
(-0.0136 0.0523621 0)
(-0.112207 -0.0132626 0)
(-0.263758 -0.0067677 0)
(-0.0671731 -0.192616 0)
(0.00885134 -0.261774 0)
(0.201961 -0.022983 0)
(-0.0622347 -0.34955 0)
(-0.304965 0.0309254 0)
(-0.503483 0.032731 0)
(-0.532039 0.0767449 0)
(-0.426141 0.23347 0)
(-0.15358 0.166147 0)
(-0.017903 -0.0858643 0)
(-0.0193025 0.128844 0)
(-0.144808 0.289576 0)
(-0.16784 0.264535 0)
(-0.189504 -0.0358988 0)
(-0.19315 0.0646574 0)
(-0.0918009 0.0371447 0)
(-0.170507 0.209812 0)
(0.0303287 -0.234184 0)
(0.00679712 -0.195284 0)
(0.000569281 -0.190764 0)
(-0.00717437 0.0882791 0)
(-0.116764 0.298935 0)
(-0.170483 0.0341794 0)
(-0.0481828 -0.247844 0)
(-0.110219 -0.356787 0)
(-0.0575798 -0.254048 0)
(-0.283958 0.0700667 0)
(-0.303948 -0.0311749 0)
(-0.431807 -0.00889425 0)
(-0.491602 0.00371591 0)
(-0.318974 0.216598 0)
(-0.0866621 0.0720367 0)
(-0.146685 -0.0835146 0)
(-0.0351139 0.0704426 0)
(0.0311306 0.473597 0)
(0.0521273 0.380395 0)
(0.0232184 -0.0882939 0)
(-0.0714946 -0.211894 0)
(-0.229856 0.13107 0)
(0.0221859 0.0590835 0)
(-0.0242355 -0.279414 0)
(-0.00891376 -0.219418 0)
(0.0458381 -0.112405 0)
(-0.00697393 0.154652 0)
(-0.222811 0.296842 0)
(-0.21853 -0.111115 0)
(-0.138768 -0.269754 0)
(-0.264327 -0.273758 0)
(-0.301968 -0.112157 0)
(-0.00750239 0.369928 0)
(-0.168791 0.0816317 0)
(-0.329923 -0.146369 0)
(-0.214341 0.0413251 0)
(-0.174512 0.115439 0)
(-0.14139 0.0146907 0)
(-0.0610748 -0.081848 0)
(-0.0238538 -0.0924104 0)
(0.171904 0.417396 0)
(0.204986 0.48776 0)
(-0.114454 0.0500433 0)
(-0.135562 -0.00120278 0)
(-0.172464 -0.000682296 0)
(-0.0605436 -0.0603833 0)
(0.0500198 -0.343495 0)
(0.0723073 -0.291987 0)
(-0.0949189 -0.114446 0)
(-0.0332603 0.185978 0)
(-0.16827 0.398912 0)
(-0.0342839 -0.0446512 0)
(-0.116571 -0.311774 0)
(-0.124978 -0.480364 0)
(-0.129527 -0.350346 0)
(0.0340465 0.727417 0)
(-0.0584584 0.280108 0)
(-0.234406 -0.0173486 0)
(-0.202484 0.0467358 0)
(-0.0897062 -0.0888849 0)
(-0.0783311 -0.00245168 0)
(0.0768231 -0.055677 0)
(0.0751287 -0.146343 0)
(-0.0415842 0.168695 0)
(0.190625 0.371336 0)
(0.0745423 0.266148 0)
(-0.0279356 -0.0303969 0)
(-0.0758088 -0.0777966 0)
(0.0529686 -0.0963731 0)
(0.0264867 -0.224228 0)
(-0.00892573 -0.335047 0)
(-0.165668 0.000845659 0)
(-0.201959 0.228893 0)
(-0.177169 0.290267 0)
(-0.00362576 -0.299128 0)
(0.0495255 -0.505023 0)
(0.0516167 -0.355598 0)
(0.0421336 -0.284303 0)
(0.127489 0.537117 0)
(0.0308736 0.323652 0)
(-0.123057 0.050487 0)
(-0.109463 0.0192405 0)
(-0.0359469 -0.123642 0)
(-0.0150455 -0.156451 0)
(0.00642306 -0.181815 0)
(0.0643672 -0.21369 0)
(0.0749729 0.0131696 0)
(0.111541 0.320927 0)
(0.0537607 0.289764 0)
(0.0787967 0.0907948 0)
(0.0127946 -0.0173044 0)
(0.0482806 -0.0856615 0)
(0.00444549 -0.251801 0)
(-0.247763 0.0373112 0)
(-0.358667 0.146895 0)
(-0.262745 0.195324 0)
(-0.0918001 0.198425 0)
(0.0834948 -0.170416 0)
(0.0190381 -0.393603 0)
(0.0362927 -0.386727 0)
(-0.0555201 -0.0923443 0)
(0.0528279 0.317977 0)
(0.10591 0.278618 0)
(0.0815358 0.220277 0)
(0.0441573 -0.00523654 0)
(0.0413311 -0.0819635 0)
(-0.0362224 -0.199083 0)
(-0.00107833 -0.179142 0)
(-0.0565365 -0.00580805 0)
(-0.152923 0.133777 0)
(-0.0734237 0.272134 0)
(0.00781374 0.29336 0)
(0.0448833 0.013797 0)
(-0.00270608 -0.0264705 0)
(-0.0285637 -0.091888 0)
(-0.119358 -0.00482808 0)
(-0.4392 0.0255293 0)
(-0.539267 0.212294 0)
(-0.375846 0.198901 0)
(-0.245526 0.0120097 0)
(-0.398646 -0.266807 0)
(-0.596338 -0.169222 0)
(-0.692354 -0.138675 0)
(-0.641397 -0.0841201 0)
(0.0225444 0.225834 0)
(0.121036 0.248166 0)
(0.0903964 0.196749 0)
(0.0387603 0.0311031 0)
(0.0411765 -0.0568216 0)
(0.00392259 -0.0874506 0)
(-0.0618489 -0.0912791 0)
(-0.175783 -0.0597519 0)
(-0.208742 0.0826107 0)
(-0.0836236 0.162602 0)
(-0.000186538 0.255775 0)
(0.0399495 0.0548205 0)
(0.0281587 0.0577915 0)
(-0.128219 0.0354974 0)
(-0.325703 0.0796076 0)
(-0.404655 0.175825 0)
(-0.61277 0.404726 0)
(-0.796088 0.411043 0)
(-1.04564 0.158992 0)
(-1.38637 -0.0138307 0)
(-1.56823 -0.0353039 0)
(-1.59846 -0.0129647 0)
(-1.54218 0.011456 0)
(0.000250289 0.191853 0)
(0.0611523 0.184101 0)
(0.109689 0.110778 0)
(0.0974248 0.0302366 0)
(0.0276263 0.00672637 0)
(-0.0194127 -0.0253429 0)
(-0.0456225 -0.0240611 0)
(-0.0895011 0.000248054 0)
(-0.138264 0.0932157 0)
(-0.0955101 0.137249 0)
(0.000517702 0.17601 0)
(0.0295718 0.0304572 0)
(-0.0308235 0.121673 0)
(-0.137584 0.125643 0)
(-0.2627 0.207663 0)
(-0.402957 0.404597 0)
(-0.505047 0.440503 0)
(-0.663952 0.660703 0)
(-0.746624 0.559782 0)
(-1.18803 0.127346 0)
(-1.3057 -0.0522696 0)
(-1.34014 -0.0973248 0)
(-1.34172 -0.106401 0)
(-0.0638461 0.129038 0)
(-0.0123373 0.174796 0)
(0.0507273 0.136544 0)
(0.00525717 0.0468588 0)
(-0.0137114 0.0326002 0)
(-0.0431415 0.0131385 0)
(-0.087795 0.00495168 0)
(-0.0843145 0.0128753 0)
(-0.109447 -0.00812841 0)
(-0.0685102 0.123558 0)
(-0.0046737 0.135444 0)
(-0.00263863 0.145748 0)
(-0.131027 0.310886 0)
(-0.227902 0.32243 0)
(-0.179146 0.301628 0)
(-0.253302 0.379022 0)
(-0.374438 0.575172 0)
(-0.299332 0.880988 0)
(-0.128137 1.01224 0)
(-0.550472 0.584678 0)
(-0.755398 0.146466 0)
(-0.925051 0.0198298 0)
(-1.03164 0.00358012 0)
(0.00472212 0.107815 0)
(0.0272525 0.115945 0)
(0.0255614 0.113647 0)
(0.0233534 0.0827324 0)
(-0.0225589 0.067606 0)
(-0.0904119 0.033955 0)
(-0.0693774 0.043949 0)
(-0.130532 0.0115768 0)
(-0.144485 0.00751605 0)
(-0.105357 0.104096 0)
(-0.126474 0.141913 0)
(-0.0915103 0.140237 0)
(-0.121445 0.278654 0)
(-0.261414 0.34168 0)
(-0.293257 0.383224 0)
(-0.239218 0.382907 0)
(-0.0856623 0.472993 0)
(-0.0769369 0.756635 0)
(-0.0154754 0.889298 0)
(0.0631469 0.69331 0)
(-0.138837 0.568222 0)
(-0.17514 0.217743 0)
(-0.269047 -0.0648338 0)
(-0.047195 0.216311 0)
(0.0205911 0.180108 0)
(0.0354117 0.108435 0)
(-0.00371837 0.117057 0)
(-0.0237038 0.0824883 0)
(-0.0600453 0.0686777 0)
(-0.0347135 0.0729323 0)
(-0.0956211 0.00730311 0)
(-0.122807 0.0522146 0)
(-0.12583 0.118602 0)
(-0.18515 0.248498 0)
(-0.20752 0.243588 0)
(-0.201573 0.24424 0)
(-0.219992 0.310383 0)
(-0.179678 0.373046 0)
(-0.215964 0.411253 0)
(-0.0931842 0.489184 0)
(0.097599 0.448389 0)
(0.0152945 0.586022 0)
(0.0944572 0.589274 0)
(0.240417 0.4787 0)
(0.331414 0.281621 0)
(0.123517 0.0695378 0)
(0.0332025 0.189381 0)
(-0.0241421 0.156959 0)
(-0.020723 0.168522 0)
(0.025064 0.1278 0)
(-0.0389759 0.093686 0)
(-0.0630189 0.0823144 0)
(-0.0903184 0.0725789 0)
(-0.107882 0.042403 0)
(-0.140316 0.0539989 0)
(-0.14581 0.126249 0)
(-0.194793 0.210638 0)
(-0.232823 0.219966 0)
(-0.201392 0.257291 0)
(-0.185638 0.270464 0)
(-0.191689 0.34656 0)
(-0.116255 0.374667 0)
(-0.036652 0.519844 0)
(0.00912669 0.43593 0)
(0.0723281 0.353931 0)
(0.178624 0.447885 0)
(0.252526 0.366508 0)
(0.35293 0.207637 0)
(0.290644 0.0859693 0)
(-0.0272566 0.178554 0)
(0.0355722 0.141002 0)
(0.0206358 0.160224 0)
(-0.0447215 0.156482 0)
(-0.0333725 0.129245 0)
(-0.0511742 0.111866 0)
(-0.0589125 0.125205 0)
(-0.11282 0.13731 0)
(-0.134745 0.140378 0)
(-0.13286 0.149773 0)
(-0.157409 0.180722 0)
(-0.172215 0.211503 0)
(-0.185935 0.232582 0)
(-0.120821 0.257496 0)
(-0.119495 0.344306 0)
(-0.0163481 0.344401 0)
(-0.0291262 0.382523 0)
(-0.0688528 0.346809 0)
(0.0755198 0.296296 0)
(0.137549 0.303987 0)
(0.19209 0.327111 0)
(0.286592 0.203423 0)
(0.256904 0.172315 0)
(0.00958207 0.187657 0)
(-0.0261773 0.214492 0)
(0.00669722 0.16869 0)
(0.0219129 0.156742 0)
(-0.0421708 0.224864 0)
(-0.0455629 0.141493 0)
(-0.0458323 0.12317 0)
(-0.0902922 0.106921 0)
(-0.104677 0.126982 0)
(-0.0796497 0.122848 0)
(-0.0682159 0.167483 0)
(-0.13665 0.220819 0)
(-0.151181 0.249611 0)
(-0.0609314 0.313231 0)
(-0.110452 0.297181 0)
(-0.089541 0.281709 0)
(-0.0357394 0.230775 0)
(-0.0652654 0.316613 0)
(0.0734396 0.31222 0)
(0.151656 0.292895 0)
(0.144883 0.226542 0)
(0.227154 0.170412 0)
(0.235113 0.164192 0)
(-0.00959712 0.187889 0)
(0.0102501 0.206327 0)
(-0.0518547 0.247746 0)
(0.0252763 0.240191 0)
(0.0133743 0.20023 0)
(-0.0752525 0.144556 0)
(-0.0536785 0.0961269 0)
(-0.0893158 0.106541 0)
(-0.0864745 0.116843 0)
(-0.0555284 0.148609 0)
(-0.0356716 0.142984 0)
(-0.0658204 0.159958 0)
(-0.0653481 0.198636 0)
(-0.101578 0.222525 0)
(-0.146543 0.227787 0)
(-0.0639685 0.273777 0)
(0.017031 0.228424 0)
(-0.0272287 0.305533 0)
(0.0484834 0.340011 0)
(0.0400103 0.281341 0)
(0.0724219 0.239026 0)
(0.203282 0.222775 0)
(0.201621 0.122632 0)
(0.00410411 0.194883 0)
(0.00182747 0.242834 0)
(0.0275715 0.243717 0)
(-0.0119942 0.265185 0)
(-0.0852273 0.154735 0)
(-0.0726411 0.160479 0)
(-0.0326975 0.127046 0)
(-0.0592847 0.121744 0)
(-0.0547383 0.173379 0)
(-0.0172441 0.200964 0)
(-0.0486333 0.163322 0)
(-0.0718779 0.134738 0)
(-0.0881488 0.186517 0)
(-0.0281577 0.150856 0)
(-0.0936609 0.247075 0)
(-0.0925866 0.347925 0)
(-0.00173595 0.261666 0)
(0.0355758 0.266711 0)
(0.0608446 0.32359 0)
(0.055424 0.258611 0)
(0.0916623 0.297444 0)
(0.118276 0.27699 0)
(0.11392 0.182163 0)
(0.0126159 0.161119 0)
(0.0217053 0.187687 0)
(-0.0523226 0.192117 0)
(-0.0507245 0.181105 0)
(-0.0430847 0.168563 0)
(-0.0482212 0.1479 0)
(-0.0680065 0.227843 0)
(-0.0314374 0.154897 0)
(-0.0225523 0.198947 0)
(-0.0355042 0.184358 0)
(-0.0433399 0.18613 0)
(-0.0335926 0.210044 0)
(-0.061058 0.211555 0)
(-0.0341775 0.231861 0)
(0.0501891 0.221514 0)
(-0.0243284 0.274938 0)
(-0.0451577 0.354033 0)
(0.0635219 0.248645 0)
(0.0450635 0.283782 0)
(0.00726044 0.230492 0)
(0.0824642 0.266782 0)
(0.130137 0.228726 0)
(0.137341 0.189342 0)
(-0.0184884 0.140335 0)
(-0.0104065 0.126261 0)
(-0.0231281 0.143453 0)
(-0.0157951 0.179087 0)
(-0.0515945 0.181824 0)
(0.0222057 0.170307 0)
(0.0037851 0.195991 0)
(-0.052796 0.199723 0)
(-0.0140864 0.188014 0)
(-0.0291162 0.190119 0)
(0.00235412 0.194431 0)
(-0.0345508 0.212603 0)
(-0.0510168 0.216415 0)
(-0.00714038 0.242052 0)
(-0.0174095 0.215632 0)
(0.0505163 0.157309 0)
(0.0188205 0.209428 0)
(-0.00390643 0.174483 0)
(0.0438271 0.162793 0)
(0.0460741 0.212157 0)
(0.105972 0.213398 0)
(0.0794234 0.190013 0)
(0.0790773 0.171624 0)
(-0.00800556 0.210369 0)
(-0.00938665 0.166738 0)
(-0.0201884 0.171248 0)
(-0.0138402 0.181362 0)
(-0.0223204 0.176258 0)
(-0.00541736 0.237414 0)
(-0.00857723 0.152925 0)
(-0.0118593 0.180105 0)
(-0.0135339 0.168577 0)
(-0.00941187 0.181507 0)
(-0.0153984 0.179195 0)
(-0.00836618 0.178441 0)
(-0.0121617 0.191483 0)
(-0.00545985 0.227867 0)
(0.0106419 0.18971 0)
(0.00848094 0.16403 0)
(-0.0293215 0.169453 0)
(0.0204382 0.231113 0)
(0.0844938 0.202101 0)
(0.0634047 0.219001 0)
(0.0860586 0.227369 0)
(0.0913255 0.190935 0)
(0.121582 0.231081 0)
(-0.0321845 0.166752 0)
(-0.0397793 0.146535 0)
(-0.0225812 0.157962 0)
(-0.00864631 0.175225 0)
(0.0237085 0.161642 0)
(-0.00107138 0.174138 0)
(-0.0302832 0.167148 0)
(-0.0149226 0.217202 0)
(-0.00773356 0.175582 0)
(-0.0120805 0.191891 0)
(0.00377092 0.184347 0)
(-0.00510813 0.191798 0)
(0.0198837 0.186758 0)
(0.0207117 0.164961 0)
(-0.0538592 0.19244 0)
(0.0274975 0.217073 0)
(0.0790198 0.197313 0)
(0.0415083 0.232769 0)
(0.0238413 0.188354 0)
(0.0914131 0.170691 0)
(0.0831079 0.189521 0)
(0.0821082 0.20596 0)
(0.0506376 0.175092 0)
(-0.00288697 0.12311 0)
(-0.00591296 0.131784 0)
(-0.00696347 0.15211 0)
(-0.0030433 0.1598 0)
(0.00399055 0.15601 0)
(0.0056514 0.121614 0)
(0.0309399 0.149315 0)
(-0.00504107 0.176269 0)
(-0.0377008 0.157478 0)
(-0.00520874 0.167969 0)
(-0.00962364 0.17111 0)
(0.0132934 0.167098 0)
(-0.000539039 0.183519 0)
(0.0213684 0.179174 0)
(0.0620735 0.152501 0)
(0.0249361 0.210607 0)
(0.00518511 0.167616 0)
(0.0355585 0.149011 0)
(0.0325549 0.130598 0)
(0.0742039 0.159325 0)
(0.119852 0.122915 0)
(0.0688769 0.137736 0)
(0.0835407 0.122512 0)
(-0.00536674 0.152561 0)
(-0.00680868 0.141994 0)
(-0.00663656 0.150408 0)
(-0.00175196 0.159379 0)
(0.00114443 0.15393 0)
(0.0017703 0.140929 0)
(0.00187463 0.150971 0)
(0.000411025 0.130373 0)
(-7.99626e-05 0.155497 0)
(-0.000446096 0.153124 0)
(0.00933379 0.166408 0)
(0.019547 0.178989 0)
(0.0521065 0.170444 0)
(-0.00920841 0.213421 0)
(-0.0161544 0.207217 0)
(0.0591247 0.138985 0)
(0.0353132 0.172074 0)
(0.0231951 0.178612 0)
(0.0363213 0.186758 0)
(0.0820934 0.230917 0)
(0.0665199 0.172535 0)
(0.0634374 0.150625 0)
(0.101802 0.149377 0)
(-0.00311916 0.148572 0)
(-0.000108947 0.137568 0)
(-0.00266839 0.146819 0)
(0.00223122 0.158262 0)
(-0.00260615 0.150666 0)
(0.00509619 0.134194 0)
(0.00924799 0.147106 0)
(0.0072621 0.157224 0)
(0.00171545 0.155434 0)
(0.00953302 0.15383 0)
(0.0160775 0.138121 0)
(0.0241787 0.161022 0)
(0.0386058 0.175825 0)
(0.0636354 0.138874 0)
(0.0289865 0.207116 0)
(0.00166224 0.134507 0)
(0.0350998 0.189519 0)
(0.0501454 0.171322 0)
(0.0838235 0.224516 0)
(0.0493126 0.191006 0)
(0.0335663 0.146063 0)
(0.0387002 0.2295 0)
(0.0505064 0.174914 0)
(-0.00264503 0.151122 0)
(0.000823958 0.137958 0)
(-0.00156609 0.146231 0)
(0.00217331 0.160322 0)
(-0.00532357 0.151553 0)
(-0.0010615 0.132925 0)
(0.00441627 0.145853 0)
(0.0101532 0.153906 0)
(0.0096939 0.151522 0)
(-0.0180002 0.148117 0)
(0.0118585 0.152543 0)
(0.0540069 0.163412 0)
(0.0323871 0.167019 0)
(0.0300397 0.152052 0)
(0.00605403 0.149895 0)
(0.0363725 0.145778 0)
(0.0599921 0.168505 0)
(0.0639502 0.146468 0)
(0.053428 0.144352 0)
(-0.00295077 0.125258 0)
(0.0794812 0.161927 0)
(0.107004 0.191073 0)
(0.0634193 0.224755 0)
(-0.00206042 0.149967 0)
(0.00279086 0.13696 0)
(0.000983806 0.146025 0)
(0.0063075 0.163252 0)
(-0.00331125 0.151919 0)
(0.00292577 0.129367 0)
(0.00321296 0.126496 0)
(0.0164543 0.156006 0)
(0.0141328 0.172916 0)
(0.00799095 0.169157 0)
(0.011573 0.22237 0)
(0.0305493 0.177283 0)
(0.0314372 0.16659 0)
(0.0411368 0.166027 0)
(0.032023 0.170525 0)
(0.0257053 0.209195 0)
(0.0357232 0.16758 0)
(0.046471 0.161468 0)
(0.051051 0.12811 0)
(0.0430322 0.123114 0)
(0.0523703 0.187993 0)
(0.0890533 0.117768 0)
(0.054212 0.161602 0)
(-0.00149752 0.148768 0)
(0.00332022 0.136527 0)
(0.00170237 0.14348 0)
(0.00483288 0.166138 0)
(0.00160653 0.153307 0)
(-0.0209427 0.13136 0)
(0.00050564 0.143217 0)
(0.0489378 0.158697 0)
(0.0427126 0.153722 0)
(0.03529 0.141696 0)
(0.00527248 0.154805 0)
(-0.00686132 0.155021 0)
(0.0305576 0.157498 0)
(0.0289476 0.154683 0)
(0.0355066 0.155995 0)
(0.0354851 0.202191 0)
(0.0352222 0.12817 0)
(0.0436486 0.161876 0)
(0.00826444 0.120916 0)
(0.0432504 0.170633 0)
(0.0685287 0.151056 0)
(0.0681547 0.128857 0)
(0.0745218 0.113401 0)
(-0.000644443 0.15004 0)
(0.00254209 0.137619 0)
(0.00382003 0.144347 0)
(0.0097373 0.167166 0)
(0.0118202 0.162597 0)
(0.00721122 0.141687 0)
(0.00162729 0.192433 0)
(0.0226208 0.158841 0)
(0.0209864 0.188347 0)
(0.0155759 0.175393 0)
(0.011327 0.0972157 0)
(0.00311982 0.150685 0)
(0.0380846 0.157313 0)
(0.0359211 0.142456 0)
(0.0702473 0.160871 0)
(-0.00945021 0.175019 0)
(0.00461544 0.19551 0)
(0.0645028 0.170162 0)
(0.0662692 0.147723 0)
(0.0757218 0.18259 0)
(0.00996069 0.176708 0)
(0.057482 0.141646 0)
(0.089971 0.104203 0)
(-0.000691542 0.147907 0)
(0.00251885 0.134039 0)
(0.00189834 0.141111 0)
(0.00798089 0.163309 0)
(0.00888854 0.149252 0)
(0.019073 0.140287 0)
(0.0199363 0.138707 0)
(0.0378311 0.138855 0)
(0.0536902 0.15503 0)
(-0.0390081 0.143715 0)
(-0.0137095 0.164404 0)
(0.0333451 0.12315 0)
(0.0322362 0.151063 0)
(0.0313329 0.140258 0)
(0.06402 0.148102 0)
(0.0654312 0.117681 0)
(0.0349635 0.196114 0)
(0.0242862 0.168342 0)
(0.0380919 0.211468 0)
(0.0696334 0.124515 0)
(0.0433366 0.126963 0)
(0.0114541 0.111947 0)
(0.0485658 0.111158 0)
(-0.00145636 0.149533 0)
(0.0010216 0.135606 0)
(0.00216363 0.141798 0)
(-0.000750016 0.165366 0)
(0.0040693 0.149558 0)
(0.0183911 0.142969 0)
(0.0203775 0.137007 0)
(0.0124645 0.110475 0)
(0.0162952 0.12169 0)
(0.0335591 0.116827 0)
(-0.0132546 0.158806 0)
(-0.0178606 0.145066 0)
(0.056277 0.144259 0)
(0.0286674 0.140666 0)
(0.0326686 0.141106 0)
(0.0370148 0.127467 0)
(0.0510346 0.11966 0)
(0.0712855 0.140676 0)
(0.0405054 0.153163 0)
(0.00250544 0.112534 0)
(0.039098 0.112332 0)
(0.06846 0.119739 0)
(0.0787425 0.14006 0)
(-0.00200109 0.146288 0)
(0.00106571 0.129779 0)
(-0.000989819 0.13886 0)
(-0.00151145 0.162694 0)
(-0.000263651 0.123112 0)
(0.0120517 0.142835 0)
(-0.0189766 0.142199 0)
(0.0121313 0.135565 0)
(0.0354494 0.143371 0)
(0.0169558 0.120017 0)
(0.00701999 0.104894 0)
(0.0105939 0.180136 0)
(0.0308096 0.144087 0)
(0.0241464 0.133262 0)
(0.031376 0.135862 0)
(0.0333331 0.138266 0)
(0.0330103 0.146059 0)
(0.0488805 0.129527 0)
(0.0273901 0.125338 0)
(0.0343063 0.136622 0)
(0.0716502 0.187924 0)
(0.0756543 0.124234 0)
(0.0338057 0.0995099 0)
(-0.00514566 0.15368 0)
(0.0012444 0.138473 0)
(0.00249088 0.146799 0)
(-0.0216981 0.169832 0)
(0.00258567 0.153213 0)
(0.0370066 0.154639 0)
(0.00600405 0.155089 0)
(0.00765713 0.194083 0)
(-0.0197614 0.152752 0)
(0.0146989 0.14644 0)
(0.0413207 0.135482 0)
(0.0187753 0.147058 0)
(0.0235405 0.114738 0)
(0.0216389 0.130901 0)
(0.0212805 0.130971 0)
(0.0308761 0.134169 0)
(0.027338 0.14263 0)
(0.0481459 0.141172 0)
(0.0664578 0.146481 0)
(0.0667225 0.19392 0)
(0.0280698 0.153295 0)
(0.029675 0.107912 0)
(0.00456372 0.0845617 0)
(-0.00549909 0.14546 0)
(0.00205465 0.113342 0)
(1.65119e-05 0.145783 0)
(0.00194716 0.172238 0)
(0.00644658 0.211128 0)
(0.0100464 0.162091 0)
(-0.00234566 0.159685 0)
(0.010288 0.182394 0)
(-0.000425297 0.146737 0)
(0.0125906 0.201472 0)
(0.00955048 0.138542 0)
(-0.0230298 0.158877 0)
(0.00825695 0.146859 0)
(0.0404848 0.142726 0)
(0.0160163 0.127148 0)
(0.0212762 0.136591 0)
(0.0193254 0.12879 0)
(0.0439675 0.141591 0)
(0.0669772 0.121808 0)
(0.0191784 0.118998 0)
(0.00301169 0.0912409 0)
(0.0435936 0.116895 0)
(0.0357627 0.0952786 0)
(-0.0240719 0.167131 0)
(0.0131884 0.152242 0)
(0.0295087 0.155706 0)
(0.0122186 0.163682 0)
(0.0113091 0.179881 0)
(0.0142659 0.159004 0)
(0.00604625 0.163017 0)
(-0.00228421 0.176828 0)
(-0.002044 0.15299 0)
(0.00937094 0.163342 0)
(0.00164446 0.153209 0)
(0.014105 0.168708 0)
(-0.00236455 0.197289 0)
(0.00191466 0.147814 0)
(-0.00136897 0.142332 0)
(0.00941096 0.113507 0)
(0.0105282 0.145826 0)
(0.0245267 0.115934 0)
(0.0396109 0.11994 0)
(0.0221848 0.112669 0)