/*--------------------------------*- C++ -*----------------------------------*\
| =========                 |                                                 |
| \\      /  F ield         | foam-extend: Open Source CFD                    |
|  \\    /   O peration     | Version:     4.1                                |
|   \\  /    A nd           | Web:         http://www.foam-extend.org         |
|    \\/     M anipulation  |                                                 |
\*---------------------------------------------------------------------------*/
FoamFile
{
    version     2.0;
    format      ascii;
    class       volVectorField;
    location    "0.7";
    object      U_0;
}
// * * * * * * * * * * * * * * * * * * * * * * * * * * * * * * * * * * * * * //

dimensions      [0 1 -1 0 0 0 0];

internalField   nonuniform List<vector> 
2268
(
(0.0923705 -0.0408541 0)
(-0.113286 0.0296416 0)
(-0.233384 -0.0642804 0)
(0.0798917 -0.0236649 0)
(0.0906451 0.0195735 0)
(0.0374949 -0.0298677 0)
(0.212083 -0.127442 0)
(0.507504 0.0644752 0)
(0.292913 0.0339399 0)
(0.216205 -0.0133691 0)
(0.124206 0.0842934 0)
(0.0867248 0.0164411 0)
(0.0861989 0.0210218 0)
(0.0574666 0.0147807 0)
(0.0171564 0.00506859 0)
(-0.00219857 0.011498 0)
(-0.0120472 0.0107979 0)
(-0.0212695 0.0264753 0)
(-0.0675289 0.0318208 0)
(-0.0756076 -0.0253792 0)
(-0.0624206 -0.0521409 0)
(0.00355032 -0.00615886 0)
(-0.000150981 -0.00200634 0)
(-0.112392 0.0261773 0)
(-0.0574878 0.144546 0)
(-0.0802663 -0.0891916 0)
(-0.0451133 -0.0570963 0)
(0.0390903 -0.016203 0)
(-0.276639 0.0288593 0)
(-0.178865 -0.280305 0)
(0.362635 0.108929 0)
(0.175607 0.0364612 0)
(0.242222 -0.0782503 0)
(0.212547 0.0563296 0)
(0.084577 0.00552712 0)
(0.091284 0.0108996 0)
(0.0495608 0.0522549 0)
(0.0300404 0.022958 0)
(-0.00487028 0.00487176 0)
(-0.0377382 -0.0036448 0)
(-0.0153113 0.00216375 0)
(-0.0109617 0.0148372 0)
(-0.0115739 0.0217022 0)
(-0.013723 -0.0249566 0)
(-0.0486412 -0.0213629 0)
(0.00556668 0.00274433 0)
(-0.183552 -0.0130054 0)
(0.15769 0.15019 0)
(0.281567 -0.154087 0)
(0.154866 -0.0222016 0)
(0.194644 0.0515426 0)
(-0.154401 0.169285 0)
(-0.066422 -0.51007 0)
(0.255771 0.104599 0)
(0.131455 0.0535937 0)
(0.224443 -0.0955329 0)
(0.204325 0.16556 0)
(0.0520637 0.0392073 0)
(0.0717906 0.0597989 0)
(0.0190921 0.0728424 0)
(-0.0132872 0.0236599 0)
(-0.0112463 0.0457413 0)
(-0.0436414 0.0242131 0)
(-0.0415417 0.00763672 0)
(-0.0259729 0.00799658 0)
(-0.00528033 -0.00279348 0)
(-0.0336442 -0.0091002 0)
(-0.0632931 -0.0251779 0)
(0.00177804 -0.022424 0)
(-0.230584 0.0786665 0)
(0.129155 0.0891143 0)
(0.0812098 -0.152708 0)
(-0.0109895 0.0493814 0)
(0.324123 0.0457391 0)
(0.0414313 0.187259 0)
(-0.0432956 -0.526921 0)
(0.063163 0.0733638 0)
(-0.186174 0.165755 0)
(-0.0528902 -0.269908 0)
(0.259995 0.237959 0)
(-0.136951 0.0382168 0)
(0.0159084 0.0490383 0)
(-0.071918 0.0331747 0)
(-0.0520112 0.0860277 0)
(-0.048287 0.0996402 0)
(-0.0730091 0.0191294 0)
(-0.0576096 -0.00609932 0)
(-0.0233125 -0.0030684 0)
(-0.0145352 0.00575293 0)
(-0.0344633 0.00131647 0)
(-0.0706149 -0.0099115 0)
(-0.00694996 -0.0279539 0)
(-0.275006 0.0691489 0)
(0.263945 -0.083012 0)
(0.239879 -0.168338 0)
(0.317706 -0.0115524 0)
(0.677877 -0.0415193 0)
(0.299982 0.269235 0)
(0.228906 -0.300554 0)
(-0.343334 0.090647 0)
(-0.257752 0.0988108 0)
(-0.0357621 -0.449724 0)
(0.159605 0.255062 0)
(-0.135866 0.0685555 0)
(-0.0727514 0.0173528 0)
(-0.0891204 0.0758714 0)
(-0.0864652 0.0553834 0)
(-0.130905 0.0127195 0)
(-0.156175 0.0391875 0)
(-0.0978671 -0.0130138 0)
(-0.0488413 -0.0151439 0)
(-0.0200052 0.0112009 0)
(-0.0437138 0.00295523 0)
(-0.080884 -0.0182634 0)
(-0.0193468 -0.0580971 0)
(-0.219565 0.00414432 0)
(0.301023 -0.236672 0)
(0.418199 -0.258502 0)
(0.412398 -0.0485197 0)
(0.546442 -0.0104441 0)
(0.379875 0.231073 0)
(0.286049 -0.191991 0)
(-0.253891 0.179171 0)
(0.018222 0.10098 0)
(-0.231807 -0.414763 0)
(0.117768 0.23415 0)
(-0.02189 0.0978291 0)
(-0.0485166 0.0330385 0)
(-0.105666 0.0674533 0)
(-0.147691 0.0311779 0)
(-0.147402 0.0401507 0)
(-0.160218 0.0471115 0)
(-0.13038 -0.00173195 0)
(-0.0640515 -0.0575639 0)
(-0.0152777 0.0178318 0)
(-0.057948 0.0231964 0)
(-0.0926744 -0.0195181 0)
(-0.0437058 -0.0754567 0)
(-0.000516654 0.0342463 0)
(0.326833 -0.285194 0)
(0.522477 -0.264252 0)
(0.523163 -0.181224 0)
(0.583009 0.0780763 0)
(0.473373 0.446638 0)
(0.237151 -0.067462 0)
(0.0963671 0.24034 0)
(0.166516 0.0586467 0)
(-0.165935 -0.354857 0)
(0.0794958 0.108617 0)
(-0.0158093 0.158345 0)
(-0.0500066 0.0658371 0)
(-0.086565 0.0891302 0)
(-0.122632 0.0725757 0)
(-0.14901 0.0519397 0)
(-0.206122 0.0473005 0)
(-0.205064 -0.0524874 0)
(-0.0198841 -0.0682172 0)
(0.0754185 0.0246728 0)
(-0.0307138 0.036492 0)
(-0.0900983 -0.0185148 0)
(-0.0696492 -0.123239 0)
(0.12414 -0.261529 0)
(0.354384 -0.313045 0)
(0.487535 -0.290519 0)
(0.469595 -0.186216 0)
(0.676305 0.0542491 0)
(0.486012 0.564255 0)
(-0.218043 -0.206187 0)
(0.13825 0.252366 0)
(0.0140226 0.0622278 0)
(0.0626513 -0.352633 0)
(-0.00961352 0.107982 0)
(-0.188674 0.160163 0)
(-0.0375209 0.0807562 0)
(-0.107269 0.136025 0)
(-0.185165 0.0959608 0)
(-0.185886 0.0397345 0)
(-0.220772 0.0839895 0)
(-0.144038 -0.177985 0)
(0.0108127 -0.130967 0)
(0.0719264 0.0251537 0)
(0.0425729 0.0634106 0)
(-0.0348926 0.0181707 0)
(-0.111821 -0.18986 0)
(-0.552974 0.204564 0)
(-0.748475 0.0344151 0)
(-0.860033 0.021711 0)
(-0.886301 0.0113968 0)
(-0.873693 -0.0283809 0)
(-0.855756 0.0051296 0)
(-0.907695 -0.00431706 0)
(-1.05954 -0.153539 0)
(-1.15564 -0.0823609 0)
(-1.06542 -0.146033 0)
(-1.06769 -0.0248339 0)
(-1.08886 0.0934044 0)
(-1.00272 -0.0428231 0)
(-0.89907 -0.00336062 0)
(-0.85328 -0.0740211 0)
(-0.594621 -0.149651 0)
(-0.332309 -0.079632 0)
(-0.206224 -0.000893805 0)
(0.316515 0.0252974 0)
(-0.455083 0.37684 0)
(-0.499595 0.0958873 0)
(-0.497174 0.0142063 0)
(-0.583479 -0.0257372 0)
(-0.60346 0.042568 0)
(-0.5808 0.0778358 0)
(-0.975124 0.00839124 0)
(-1.09833 -0.101761 0)
(-1.20264 0.057389 0)
(-1.08527 0.122844 0)
(-1.03111 0.0804137 0)
(-1.12504 0.214516 0)
(-1.00136 -0.0136988 0)
(-0.864296 -0.0323008 0)
(-0.898754 -0.142003 0)
(-0.672785 -0.0844966 0)
(-0.41936 -0.184663 0)
(-0.360273 -0.166598 0)
(0.335488 0.0272172 0)
(-0.413842 0.80854 0)
(-0.254259 0.282204 0)
(-0.134586 0.0250159 0)
(-0.486189 -0.109748 0)
(-0.480549 0.154885 0)
(-0.497567 0.0959154 0)
(-0.830416 -0.0895598 0)
(-0.861008 -0.125396 0)
(-0.997058 -0.0138666 0)
(-0.960389 0.100871 0)
(-0.84488 -0.0914758 0)
(-0.943294 -0.0127121 0)
(-0.88727 0.107449 0)
(-0.664478 -0.116964 0)
(-0.694226 -0.236212 0)
(-0.670206 -0.114214 0)
(-0.405659 -0.240286 0)
(-0.362942 -0.339409 0)
(0.236397 0.0182103 0)
(-0.448401 0.937268 0)
(-0.300188 0.413003 0)
(-0.396308 0.0420075 0)
(-0.437553 0.00735434 0)
(-0.373104 0.23795 0)
(-0.0508672 0.220513 0)
(-0.346053 0.119279 0)
(-0.429828 -0.168985 0)
(-0.884871 0.0614251 0)
(-0.852089 0.0727392 0)
(-0.80116 0.0248291 0)
(-0.795827 -0.00263406 0)
(-0.820542 0.0833097 0)
(-0.593914 -0.00312705 0)
(-0.529057 -0.189762 0)
(-0.552959 -0.192085 0)
(-0.461026 -0.248963 0)
(-0.393652 -0.416643 0)
(0.090766 -0.0366246 0)
(-0.390843 1.09063 0)
(-0.269847 0.562067 0)
(-0.251235 0.0214311 0)
(-0.0194007 -0.157791 0)
(-0.249758 0.169183 0)
(-0.181502 0.162385 0)
(-0.277102 0.233678 0)
(-0.201351 -0.01727 0)
(-0.500838 0.306453 0)
(-0.434464 -0.106337 0)
(-0.593785 0.0381864 0)
(-0.28098 0.0151971 0)
(-0.341808 -0.201114 0)
(-0.330373 -0.00296029 0)
(-0.11595 -0.233249 0)
(-0.383878 -0.380578 0)
(-0.448735 -0.428132 0)
(-0.431958 -0.440879 0)
(-0.20924 -0.130549 0)
(-0.41724 1.19831 0)
(-0.28958 0.551601 0)
(-0.226622 -0.0730417 0)
(0.0699744 -0.0856172 0)
(-0.290911 0.243329 0)
(0.14886 0.089228 0)
(-0.14822 0.211808 0)
(-0.0458549 -0.0897518 0)
(-0.0463565 0.28991 0)
(0.286534 0.190581 0)
(0.280251 0.015508 0)
(0.42859 -0.142072 0)
(0.15455 0.1113 0)
(0.300291 -0.0953329 0)
(0.0792241 -0.0580563 0)
(-0.28413 -0.4193 0)
(-0.403496 -0.477746 0)
(-0.357074 -0.444655 0)
(-0.453203 -0.307316 0)
(-0.405557 1.32557 0)
(-0.163996 0.524247 0)
(0.212468 -0.150678 0)
(-0.0180327 0.0192656 0)
(-0.176571 0.303714 0)
(0.254791 0.0826579 0)
(-0.0630841 0.216732 0)
(0.278249 0.019569 0)
(0.460558 0.0735356 0)
(0.652039 -0.0814251 0)
(0.836537 0.0253008 0)
(0.701068 -0.0971814 0)
(0.524557 -0.113178 0)
(0.584774 -0.00870631 0)
(0.23342 -0.0419484 0)
(-0.085548 -0.215428 0)
(-0.233173 -0.18727 0)
(-0.196208 -0.397291 0)
(-0.386574 -0.509629 0)
(-0.393557 1.26499 0)
(-0.282257 0.238537 0)
(-0.182803 -0.211794 0)
(-0.196428 0.0579832 0)
(-0.0631554 0.0792204 0)
(0.0721571 0.0927245 0)
(0.0851448 0.0248562 0)
(0.359901 -0.116238 0)
(0.547151 -0.0219642 0)
(0.649341 0.0363705 0)
(0.788022 0.028986 0)
(0.609929 -0.0785765 0)
(0.400985 0.0415374 0)
(0.391867 0.0894685 0)
(0.0518045 0.105922 0)
(0.0546794 -0.173324 0)
(-0.0470712 -0.115129 0)
(0.0749867 -0.353207 0)
(-0.140882 -0.53514 0)
(0.230059 -0.477483 0)
(0.38456 -0.349966 0)
(0.42885 -0.165863 0)
(-0.100104 0.0625753 0)
(-0.39697 -0.0266711 0)
(0.184254 0.732799 0)
(-0.0759382 0.0160456 0)
(0.0609279 0.447626 0)
(-0.0377181 0.177576 0)
(-0.251805 -0.0907411 0)
(-0.239754 0.235017 0)
(-0.162221 0.0952043 0)
(-0.0943872 0.0264645 0)
(-0.0917793 0.0894622 0)
(-0.16029 0.125009 0)
(-0.0973232 0.0265414 0)
(-0.0651444 0.0228992 0)
(-0.00198199 -0.212801 0)
(-0.130859 -0.195047 0)
(-0.120563 0.00792329 0)
(-0.0308623 0.0675971 0)
(-0.166496 0.101703 0)
(-0.282403 -0.0818234 0)
(0.000614939 -0.530641 0)
(0.025408 -0.32245 0)
(0.0827806 -0.0233851 0)
(-0.0997203 0.312129 0)
(-0.318052 -0.190307 0)
(0.0268613 0.567495 0)
(-0.11405 0.024778 0)
(-0.0922623 0.424283 0)
(-0.127953 0.0429044 0)
(-0.0111569 -0.271376 0)
(0.0749295 -0.0977489 0)
(-0.0228627 0.145199 0)
(-0.0453833 0.0590121 0)
(0.0306878 0.20345 0)
(-0.0480949 0.095462 0)
(0.156824 -0.0992495 0)
(0.314883 -0.0920346 0)
(0.0809193 -0.0225816 0)
(-0.25083 -0.0712311 0)
(-0.146738 -0.0366255 0)
(-0.238592 0.0857282 0)
(-0.299231 0.1132 0)
(-0.347461 -0.0216945 0)
(-0.063417 -0.65376 0)
(-0.223272 -0.286893 0)
(-0.277372 -0.0237108 0)
(0.0174457 0.557812 0)
(0.228753 -0.0298567 0)
(0.0597323 0.332748 0)
(-0.203115 0.190551 0)
(-0.0775087 0.137947 0)
(0.155909 -0.0769323 0)
(-0.041221 -0.281097 0)
(0.0796494 0.125115 0)
(-0.109858 0.296468 0)
(-0.0838975 -0.0459762 0)
(0.167643 0.192914 0)
(0.065431 0.0440106 0)
(-0.00294614 -0.124505 0)
(-0.207264 -0.0303846 0)
(-0.187289 0.344326 0)
(-0.260769 0.104513 0)
(-0.0382072 0.00763013 0)
(-0.211098 0.0932963 0)
(-0.310648 -0.0103754 0)
(-0.325787 0.00897851 0)
(0.074394 -0.779221 0)
(0.017613 -0.453851 0)
(-0.0931598 -0.495864 0)
(0.0904267 0.0773413 0)
(-0.0408112 -0.109937 0)
(-0.0980852 0.365038 0)
(-0.0876523 0.199752 0)
(0.0547397 0.0517383 0)
(-0.152564 0.0721708 0)
(-0.57736 0.0813921 0)
(-0.341392 0.167974 0)
(-0.292473 0.204585 0)
(-0.210607 -0.245035 0)
(-0.133786 0.152407 0)
(-0.303768 0.136617 0)
(-0.424831 0.163967 0)
(-0.156074 0.00605237 0)
(-0.00554928 0.164185 0)
(0.132335 -0.268752 0)
(0.169086 -0.00683479 0)
(0.407667 0.294189 0)
(0.696704 0.108184 0)
(0.424878 0.117149 0)
(-0.0681458 -0.335957 0)
(-0.0313824 0.145396 0)
(-0.181436 -0.0640811 0)
(-0.148318 0.240363 0)
(-0.17495 0.171362 0)
(-0.251848 0.360513 0)
(-0.142599 0.143095 0)
(-0.175638 0.109906 0)
(0.127431 0.216003 0)
(-0.310371 0.174205 0)
(-0.21106 -0.247048 0)
(-0.139543 0.144728 0)
(0.0238767 -0.242355 0)
(-0.436077 0.284187 0)
(-0.264091 0.213494 0)
(-0.131408 -0.189555 0)
(0.120282 -0.233308 0)
(0.173316 -0.00598538 0)
(0.213503 -0.136255 0)
(0.093016 -0.0822106 0)
(0.149173 -0.057016 0)
(0.350643 -0.0979443 0)
(0.504502 0.115787 0)
(-0.149243 -0.575256 0)
(-0.158507 -0.225891 0)
(-0.452149 -0.115882 0)
(-0.532516 0.144558 0)
(-0.305828 0.159517 0)
(-0.257879 0.293443 0)
(-0.132284 0.0418919 0)
(-0.17377 -0.100995 0)
(-0.191932 0.298847 0)
(-0.150638 0.467439 0)
(-0.00599592 -0.170475 0)
(-0.0949344 -0.0474939 0)
(-0.0308013 -0.048433 0)
(-0.342266 0.211063 0)
(0.0689037 -0.047253 0)
(0.128901 -0.251072 0)
(0.0933688 -0.266216 0)
(0.00185076 0.0318531 0)
(-0.101365 -0.0337743 0)
(-0.25433 -0.0249944 0)
(-0.0624671 -0.199187 0)
(0.015877 -0.261279 0)
(0.211844 -0.0105701 0)
(-0.0615231 -0.351777 0)
(-0.299592 0.0392195 0)
(-0.499511 0.0383972 0)
(-0.531097 0.07857 0)
(-0.427171 0.236128 0)
(-0.152036 0.164632 0)
(-0.0208624 -0.0879156 0)
(-0.0241028 0.117363 0)
(-0.142766 0.283488 0)
(-0.167393 0.22824 0)
(-0.196245 -0.0497898 0)
(-0.195809 0.0750983 0)
(-0.0869122 0.0393899 0)
(-0.16265 0.218185 0)
(0.0369721 -0.23259 0)
(0.0179916 -0.191501 0)
(0.0160028 -0.191636 0)
(0.00670054 0.0709414 0)
(-0.098362 0.279436 0)
(-0.165046 0.024818 0)
(-0.043594 -0.251407 0)
(-0.105194 -0.35831 0)
(-0.0508722 -0.249686 0)
(-0.280329 0.0782887 0)
(-0.306637 -0.0255143 0)
(-0.430702 -0.00488413 0)
(-0.488663 0.00758688 0)
(-0.31782 0.22253 0)
(-0.0860515 0.0764864 0)
(-0.147774 -0.0869779 0)
(-0.0416946 0.0524999 0)
(0.0272274 0.465081 0)
(0.0533414 0.374533 0)
(0.0131717 -0.102904 0)
(-0.0746702 -0.219081 0)
(-0.228753 0.133138 0)
(0.0287706 0.0679867 0)
(-0.0204935 -0.283802 0)
(-8.35153e-05 -0.215836 0)
(0.0609873 -0.121115 0)
(0.00708548 0.140797 0)
(-0.2137 0.279221 0)
(-0.2169 -0.117852 0)
(-0.14077 -0.272574 0)
(-0.267637 -0.269556 0)
(-0.306991 -0.104379 0)
(-0.00310536 0.371167 0)
(-0.168727 0.0846978 0)
(-0.326793 -0.141012 0)
(-0.212831 0.0472314 0)
(-0.173284 0.11977 0)
(-0.139706 0.0200962 0)
(-0.0639276 -0.0808473 0)
(-0.0278966 -0.101831 0)
(0.164731 0.3947 0)
(0.1991 0.477659 0)
(-0.115433 0.0407428 0)
(-0.131897 -0.00510238 0)
(-0.167826 -0.00932938 0)
(-0.0508506 -0.0639369 0)
(0.0592621 -0.346693 0)
(0.0799399 -0.290895 0)
(-0.0809669 -0.119718 0)
(-0.0235998 0.174531 0)
(-0.164656 0.394751 0)
(-0.0384248 -0.0471486 0)
(-0.123375 -0.312913 0)
(-0.130985 -0.47815 0)
(-0.129903 -0.347752 0)
(0.0370852 0.723914 0)
(-0.0518532 0.28984 0)
(-0.228452 -0.00960125 0)
(-0.200182 0.0527313 0)
(-0.0897886 -0.0831095 0)
(-0.0776906 0.00285324 0)
(0.0781272 -0.0509385 0)
(0.0738981 -0.147951 0)
(-0.0454966 0.153079 0)
(0.189998 0.358661 0)
(0.0766886 0.26096 0)
(-0.0244068 -0.0361996 0)
(-0.0711641 -0.0825476 0)
(0.0607877 -0.0988866 0)
(0.0344898 -0.229423 0)
(0.00159153 -0.339199 0)
(-0.153161 -0.00707105 0)
(-0.200086 0.225112 0)
(-0.17396 0.287761 0)
(-0.00960724 -0.296351 0)
(0.0453998 -0.509668 0)
(0.0558399 -0.362509 0)
(0.0503786 -0.282394 0)
(0.128066 0.531045 0)
(0.0341439 0.330458 0)
(-0.120247 0.0595192 0)
(-0.107586 0.0232332 0)
(-0.0355636 -0.121214 0)
(-0.0127332 -0.150051 0)
(0.0103395 -0.17993 0)
(0.0697321 -0.217812 0)
(0.0816401 0.00703299 0)
(0.112261 0.309087 0)
(0.0568024 0.279311 0)
(0.0838459 0.0820009 0)
(0.0185507 -0.0238012 0)
(0.0544406 -0.0905252 0)
(0.010663 -0.255354 0)
(-0.231114 0.0287806 0)
(-0.34466 0.14452 0)
(-0.254694 0.199417 0)
(-0.0896177 0.205863 0)
(0.0861832 -0.162793 0)
(0.0328479 -0.401358 0)
(0.0570177 -0.392499 0)
(-0.0291366 -0.0932648 0)
(0.0496953 0.313002 0)
(0.105275 0.28167 0)
(0.0827686 0.226383 0)
(0.0461608 0.00145547 0)
(0.0443143 -0.0800243 0)
(-0.0325403 -0.194057 0)
(0.00600284 -0.179781 0)
(-0.0467551 -0.0114979 0)
(-0.146415 0.126867 0)
(-0.0685064 0.26 0)
(0.0180904 0.28382 0)
(0.0527994 0.00368203 0)
(0.00384129 -0.0334008 0)
(-0.018268 -0.0986635 0)
(-0.106694 -0.00904412 0)
(-0.418953 0.0214583 0)
(-0.515631 0.207808 0)
(-0.354068 0.205573 0)
(-0.232232 0.0266685 0)
(-0.356146 -0.284602 0)
(-0.561854 -0.185198 0)
(-0.669807 -0.146521 0)
(-0.631685 -0.101089 0)
(0.0208656 0.223354 0)
(0.120172 0.248565 0)
(0.0918104 0.199995 0)
(0.0405057 0.0353373 0)
(0.0464743 -0.0547879 0)
(0.011014 -0.0867974 0)
(-0.0545803 -0.0916678 0)
(-0.163878 -0.0639242 0)
(-0.195157 0.0749639 0)
(-0.073407 0.152708 0)
(0.0080125 0.244322 0)
(0.0468437 0.0431761 0)
(0.0355984 0.0489815 0)
(-0.1165 0.0268042 0)
(-0.309074 0.0671816 0)
(-0.384311 0.163581 0)
(-0.574479 0.380473 0)
(-0.740343 0.401145 0)
(-0.958274 0.173507 0)
(-1.32541 -0.0134947 0)
(-1.537 -0.0430469 0)
(-1.6059 -0.0151495 0)
(-1.5619 0.00705363 0)
(-0.000523268 0.190639 0)
(0.0593694 0.183923 0)
(0.110122 0.111071 0)
(0.0994792 0.0326435 0)
(0.0320332 0.00834277 0)
(-0.0133115 -0.026036 0)
(-0.0374582 -0.0249718 0)
(-0.0821476 -0.00261636 0)
(-0.128568 0.0855875 0)
(-0.0856177 0.127235 0)
(0.00775956 0.162956 0)
(0.0356547 0.0185783 0)
(-0.0239221 0.109493 0)
(-0.131661 0.115258 0)
(-0.248872 0.190362 0)
(-0.391861 0.376605 0)
(-0.478198 0.405554 0)
(-0.624877 0.635054 0)
(-0.674864 0.596284 0)
(-1.14406 0.163106 0)
(-1.30466 -0.0397962 0)
(-1.34696 -0.0953065 0)
(-1.35096 -0.0990058 0)
(-0.0636897 0.12914 0)
(-0.0119855 0.174247 0)
(0.051353 0.13625 0)
(0.00705144 0.0469259 0)
(-0.00966616 0.0318506 0)
(-0.0372533 0.0116483 0)
(-0.082492 0.00187275 0)
(-0.0786199 0.00728002 0)
(-0.102482 -0.0137883 0)
(-0.0610497 0.113409 0)
(-0.00117113 0.126135 0)
(-2.81223e-05 0.136096 0)
(-0.123424 0.296898 0)
(-0.222254 0.30868 0)
(-0.177863 0.283318 0)
(-0.248246 0.349045 0)
(-0.367559 0.535732 0)
(-0.304843 0.823421 0)
(-0.153888 0.972124 0)
(-0.490012 0.6393 0)
(-0.735659 0.183595 0)
(-0.914056 0.0324504 0)
(-1.03151 0.0209758 0)
(0.00461742 0.107525 0)
(0.027764 0.115192 0)
(0.0259302 0.112639 0)
(0.0252499 0.0818614 0)
(-0.0190037 0.0663717 0)
(-0.0865665 0.0316404 0)
(-0.0649329 0.0405557 0)
(-0.12503 0.00733181 0)
(-0.139586 0.0015521 0)
(-0.0997509 0.0945692 0)
(-0.123687 0.132917 0)
(-0.0938008 0.129229 0)
(-0.119724 0.266271 0)
(-0.25828 0.328513 0)
(-0.295694 0.3648 0)
(-0.243244 0.362843 0)
(-0.0952654 0.442976 0)
(-0.0948802 0.711982 0)
(-0.0418769 0.851774 0)
(0.0508383 0.708583 0)
(-0.128555 0.596058 0)
(-0.157862 0.259178 0)
(-0.260648 -0.0365282 0)
(-0.0466671 0.214885 0)
(0.0210821 0.178149 0)
(0.035729 0.107252 0)
(-0.00225789 0.115653 0)
(-0.0204857 0.0797923 0)
(-0.0567757 0.0658394 0)
(-0.0309594 0.0690215 0)
(-0.0910288 0.00388493 0)
(-0.119572 0.0451202 0)
(-0.123542 0.110626 0)
(-0.184403 0.236263 0)
(-0.205812 0.232993 0)
(-0.198159 0.232471 0)
(-0.219518 0.29654 0)
(-0.184886 0.357905 0)
(-0.222527 0.393511 0)
(-0.105605 0.467013 0)
(0.073309 0.433434 0)
(-0.0171905 0.568011 0)
(0.0687852 0.581438 0)
(0.237511 0.493419 0)
(0.326668 0.319408 0)
(0.12119 0.0968125 0)
(0.0330077 0.186989 0)
(-0.0231727 0.154808 0)
(-0.0197669 0.166014 0)
(0.0255534 0.125774 0)
(-0.0369891 0.091511 0)
(-0.0601846 0.0787844 0)
(-0.0870471 0.0688945 0)
(-0.104632 0.0371461 0)
(-0.137729 0.0454782 0)
(-0.145685 0.117841 0)
(-0.192185 0.201048 0)
(-0.230646 0.211588 0)
(-0.201753 0.245485 0)
(-0.186932 0.254918 0)
(-0.197977 0.332495 0)
(-0.121624 0.358703 0)
(-0.0457949 0.503841 0)
(-0.0095368 0.420197 0)
(0.0543425 0.346987 0)
(0.155556 0.445574 0)
(0.234038 0.376248 0)
(0.342726 0.220334 0)
(0.286739 0.106635 0)
(-0.0265123 0.175571 0)
(0.0357684 0.138917 0)
(0.0209203 0.157483 0)
(-0.0431547 0.154173 0)
(-0.0317242 0.126424 0)
(-0.049448 0.109015 0)
(-0.056692 0.121048 0)
(-0.111545 0.130843 0)
(-0.132234 0.135144 0)
(-0.130583 0.142655 0)
(-0.156248 0.17402 0)
(-0.171376 0.200386 0)
(-0.186264 0.223066 0)
(-0.122146 0.245124 0)
(-0.125049 0.329443 0)
(-0.0242149 0.333727 0)
(-0.0391539 0.372349 0)
(-0.0824438 0.33584 0)
(0.0597589 0.290994 0)
(0.121633 0.300962 0)
(0.17679 0.332536 0)
(0.27647 0.211448 0)
(0.252036 0.184918 0)
(0.00976942 0.183979 0)
(-0.0252926 0.210534 0)
(0.00702625 0.165967 0)
(0.0223678 0.154049 0)
(-0.0405633 0.220177 0)
(-0.0438636 0.136838 0)
(-0.045329 0.119009 0)
(-0.0879257 0.10122 0)
(-0.102263 0.122953 0)
(-0.0787813 0.117019 0)
(-0.0689735 0.160617 0)
(-0.135382 0.213469 0)
(-0.151813 0.239288 0)
(-0.068205 0.30246 0)
(-0.114511 0.285412 0)
(-0.0932718 0.273911 0)
(-0.0448266 0.22346 0)
(-0.0768183 0.312344 0)
(0.0624804 0.309787 0)
(0.138366 0.294228 0)
(0.13406 0.229509 0)
(0.21902 0.177722 0)
(0.230921 0.172725 0)
(-0.00954292 0.183965 0)
(0.0106049 0.202169 0)
(-0.0508791 0.243494 0)
(0.0253639 0.236336 0)
(0.0138552 0.196188 0)
(-0.0729597 0.141095 0)
(-0.0522156 0.0928132 0)
(-0.0877302 0.103123 0)
(-0.0842428 0.112234 0)
(-0.0554156 0.143196 0)
(-0.0368741 0.136789 0)
(-0.0693123 0.154181 0)
(-0.0695495 0.189805 0)
(-0.103261 0.214248 0)
(-0.148688 0.222331 0)
(-0.0682052 0.26651 0)
(0.010763 0.220922 0)
(-0.035456 0.301448 0)
(0.0372934 0.337988 0)
(0.0289381 0.280015 0)
(0.0651924 0.242647 0)
(0.197058 0.226222 0)
(0.197552 0.124789 0)
(0.00394633 0.190606 0)
(0.00203643 0.238086 0)
(0.0274196 0.239041 0)
(-0.0114084 0.260789 0)
(-0.0835173 0.151111 0)
(-0.0704002 0.156569 0)
(-0.0318425 0.122891 0)
(-0.0580298 0.1184 0)
(-0.0545945 0.168295 0)
(-0.0188808 0.194766 0)
(-0.0493189 0.15796 0)
(-0.073865 0.128586 0)
(-0.0919578 0.183473 0)
(-0.0307317 0.146666 0)
(-0.0943717 0.242011 0)
(-0.0970061 0.340799 0)
(-0.00821254 0.25625 0)
(0.0302431 0.260986 0)
(0.0524582 0.321666 0)
(0.0480237 0.257418 0)
(0.0855663 0.300128 0)
(0.111388 0.278472 0)
(0.109701 0.183224 0)
(0.0120017 0.157446 0)
(0.0213808 0.183712 0)
(-0.0518874 0.188068 0)
(-0.0493889 0.177373 0)
(-0.0417605 0.164999 0)
(-0.0466963 0.143647 0)
(-0.0664817 0.221544 0)
(-0.0309066 0.149596 0)
(-0.0228708 0.19194 0)
(-0.0361114 0.178385 0)
(-0.043615 0.180873 0)
(-0.034245 0.204364 0)
(-0.0629128 0.20611 0)
(-0.0380772 0.227081 0)
(0.0456729 0.216608 0)
(-0.0291778 0.267728 0)
(-0.0490481 0.348319 0)
(0.0594066 0.244957 0)
(0.0385094 0.28049 0)
(0.00170608 0.229808 0)
(0.0778683 0.265557 0)
(0.123186 0.227813 0)
(0.134429 0.191976 0)
(-0.0182851 0.137661 0)
(-0.0103157 0.123641 0)
(-0.0229364 0.140293 0)
(-0.0151883 0.17572 0)
(-0.0502906 0.17775 0)
(0.0219484 0.166582 0)
(0.00353616 0.190881 0)
(-0.0518508 0.194363 0)
(-0.0145448 0.182507 0)
(-0.0292667 0.184337 0)
(0.00101815 0.189244 0)
(-0.037156 0.20625 0)
(-0.053225 0.210729 0)
(-0.00917033 0.235909 0)
(-0.0205902 0.211255 0)
(0.0457947 0.153974 0)
(0.0142408 0.205624 0)
(-0.00769104 0.171801 0)
(0.0389758 0.160592 0)
(0.0411425 0.210312 0)
(0.0999111 0.211471 0)
(0.0753557 0.190481 0)
(0.0757004 0.172172 0)
(-0.00780675 0.206547 0)
(-0.00917749 0.16305 0)
(-0.019715 0.16779 0)
(-0.0137531 0.177708 0)
(-0.0214477 0.17219 0)
(-0.00533433 0.231912 0)
(-0.00834573 0.149542 0)
(-0.011764 0.175496 0)
(-0.0141389 0.164386 0)
(-0.00965784 0.177225 0)
(-0.0169868 0.174284 0)
(-0.00949717 0.174774 0)
(-0.0132985 0.186347 0)
(-0.00788189 0.222791 0)
(0.00849499 0.185711 0)
(0.00367786 0.160612 0)
(-0.0321066 0.167165 0)
(0.0175288 0.227755 0)
(0.0785918 0.199259 0)
(0.0580989 0.216538 0)
(0.0835715 0.226187 0)
(0.0867565 0.190108 0)
(0.117899 0.230774 0)
(-0.0314373 0.163499 0)
(-0.039261 0.143327 0)
(-0.0221889 0.154568 0)
(-0.00844874 0.171454 0)
(0.0230127 0.158326 0)
(-0.00123705 0.169883 0)
(-0.0300697 0.163356 0)
(-0.0151494 0.212332 0)
(-0.00810805 0.171488 0)
(-0.0128202 0.187688 0)
(0.00338673 0.179959 0)
(-0.00760378 0.188179 0)
(0.0161062 0.183098 0)
(0.0201544 0.161294 0)
(-0.0556216 0.188426 0)
(0.0238326 0.213091 0)
(0.0757875 0.194562 0)
(0.0375784 0.229265 0)
(0.0194571 0.185813 0)
(0.0884915 0.168646 0)
(0.0788213 0.188225 0)
(0.0784713 0.204243 0)
(0.0472238 0.1744 0)
(-0.00286685 0.120727 0)
(-0.00573923 0.12883 0)
(-0.00692464 0.148956 0)
(-0.00301848 0.156491 0)
(0.00371881 0.152778 0)
(0.00532381 0.118954 0)
(0.0300158 0.145971 0)
(-0.00540721 0.17243 0)
(-0.0376218 0.153863 0)
(-0.00592351 0.164162 0)
(-0.0106942 0.167109 0)
(0.0128956 0.162506 0)
(-0.002392 0.180375 0)
(0.0182937 0.175659 0)
(0.0596056 0.149366 0)
(0.0215147 0.20729 0)
(0.00262134 0.165137 0)
(0.0330399 0.146879 0)
(0.0286294 0.128678 0)
(0.0701987 0.158347 0)
(0.117014 0.121036 0)
(0.0641965 0.137047 0)
(0.0804289 0.121206 0)
(-0.00535301 0.149701 0)
(-0.00667786 0.138892 0)
(-0.00665015 0.147226 0)
(-0.00178469 0.156256 0)
(0.000784852 0.150714 0)
(0.00146057 0.137719 0)
(0.00125536 0.147677 0)
(-7.07238e-05 0.127837 0)
(-0.000621313 0.151967 0)
(-0.00136349 0.149762 0)
(0.0084046 0.16261 0)
(0.0177281 0.175484 0)
(0.0493231 0.166083 0)
(-0.00992224 0.209428 0)
(-0.0175701 0.203799 0)
(0.0562248 0.135568 0)
(0.0331022 0.170116 0)
(0.0200878 0.176123 0)
(0.0334712 0.184002 0)
(0.078305 0.229614 0)
(0.0612245 0.170418 0)
(0.0600939 0.149612 0)
(0.0979402 0.148262 0)
(-0.00315749 0.145783 0)
(-6.07814e-05 0.134623 0)
(-0.00266875 0.14378 0)
(0.00221335 0.155317 0)
(-0.00293749 0.147658 0)
(0.00458289 0.131114 0)
(0.00860144 0.143951 0)
(0.00661324 0.1544 0)
(0.00106156 0.152168 0)
(0.00878588 0.150265 0)
(0.01492 0.135308 0)
(0.0230498 0.157918 0)
(0.0361653 0.172894 0)
(0.0616927 0.136585 0)
(0.0270435 0.203907 0)
(-0.000373312 0.132023 0)
(0.032887 0.18707 0)
(0.0465576 0.16837 0)
(0.0808653 0.222406 0)
(0.045817 0.187753 0)
(0.0303975 0.144543 0)
(0.0355722 0.229113 0)
(0.0471385 0.172279 0)
(-0.00267988 0.148314 0)
(0.000764233 0.135112 0)
(-0.00164484 0.143315 0)
(0.0021104 0.157495 0)
(-0.00564584 0.148569 0)
(-0.00151796 0.129774 0)
(0.00384545 0.142802 0)
(0.00954091 0.151002 0)
(0.00863867 0.148233 0)
(-0.0184236 0.144758 0)
(0.0112115 0.149662 0)
(0.0520179 0.160555 0)
(0.0303869 0.164047 0)
(0.0285432 0.149731 0)
(0.00395604 0.147032 0)
(0.0340067 0.144131 0)
(0.0578623 0.165712 0)
(0.0615386 0.144819 0)
(0.0503779 0.142864 0)
(-0.0060433 0.123942 0)
(0.077016 0.16118 0)
(0.102776 0.188718 0)
(0.0594483 0.224294 0)
(-0.00206208 0.147197 0)
(0.00272496 0.134213 0)
(0.000884396 0.143261 0)
(0.00620024 0.160583 0)
(-0.00370184 0.149079 0)
(0.00242571 0.126404 0)
(0.00265179 0.124013 0)
(0.0156862 0.15324 0)
(0.0130666 0.16976 0)
(0.00731136 0.16592 0)
(0.0106505 0.218199 0)
(0.028945 0.174178 0)
(0.0297273 0.164273 0)
(0.0388847 0.163231 0)
(0.0306241 0.167774 0)
(0.0239059 0.207051 0)
(0.033762 0.165798 0)
(0.0437062 0.159389 0)
(0.0479716 0.126496 0)
(0.0405638 0.121707 0)
(0.0486437 0.186581 0)
(0.0863096 0.116484 0)
(0.0507268 0.161234 0)
(-0.00148994 0.145991 0)
(0.00326516 0.133705 0)
(0.00157516 0.140712 0)
(0.00460367 0.163328 0)
(0.00134731 0.150402 0)
(-0.021009 0.128437 0)
(7.99615e-05 0.140391 0)
(0.0475952 0.15573 0)
(0.0413055 0.150902 0)
(0.0338545 0.138939 0)
(0.00475341 0.151289 0)
(-0.00745145 0.152354 0)
(0.0289051 0.154887 0)
(0.0269343 0.152027 0)
(0.0341845 0.153643 0)
(0.034136 0.199191 0)
(0.0330483 0.126802 0)
(0.0413618 0.159981 0)
(0.00599369 0.119506 0)
(0.0403661 0.169173 0)
(0.0664425 0.149272 0)
(0.0649597 0.128706 0)
(0.071245 0.111733 0)
(-0.000657393 0.147252 0)
(0.00249635 0.134755 0)
(0.00366128 0.141468 0)
(0.00939591 0.164343 0)
(0.011446 0.159705 0)
(0.00695523 0.139098 0)
(0.000982948 0.188745 0)
(0.0218377 0.155761 0)
(0.0202044 0.185364 0)
(0.0148342 0.172722 0)
(0.0106028 0.0956522 0)
(0.00236279 0.148327 0)
(0.0366341 0.15447 0)
(0.0338415 0.140518 0)
(0.0684184 0.158848 0)
(-0.0103166 0.172592 0)
(0.00355743 0.193524 0)
(0.0619991 0.168282 0)
(0.0638561 0.146388 0)
(0.0728702 0.181003 0)
(0.00792885 0.176175 0)
(0.0549736 0.139759 0)
(0.0878 0.104265 0)
(-0.000716796 0.145158 0)
(0.00241068 0.131239 0)
(0.00173849 0.138252 0)
(0.00758305 0.160534 0)
(0.00846858 0.146512 0)
(0.0184858 0.137879 0)
(0.0194689 0.135897 0)
(0.0367985 0.136048 0)
(0.0524624 0.152465 0)
(-0.0389771 0.141111 0)
(-0.0137489 0.161429 0)
(0.0319982 0.12106 0)
(0.030889 0.148522 0)
(0.0301127 0.137934 0)
(0.0619391 0.146276 0)
(0.0641946 0.11615 0)
(0.0332625 0.194223 0)
(0.0226711 0.166173 0)
(0.0361543 0.210651 0)
(0.0671709 0.122944 0)
(0.0412691 0.126421 0)
(0.00898115 0.110921 0)
(0.0464529 0.110599 0)
(-0.00148751 0.146851 0)
(0.000907032 0.132885 0)
(0.0019866 0.139085 0)
(-0.00102631 0.162588 0)
(0.00377699 0.147083 0)
(0.0177182 0.140375 0)
(0.0197737 0.134573 0)
(0.0117867 0.10843 0)
(0.0153064 0.119685 0)
(0.0323575 0.115035 0)
(-0.0135528 0.155975 0)
(-0.0182186 0.142851 0)
(0.0546747 0.142047 0)
(0.0273279 0.138559 0)
(0.0315161 0.139232 0)
(0.0358306 0.126169 0)
(0.049123 0.118337 0)
(0.0696236 0.139534 0)
(0.0387741 0.151668 0)
(0.0003855 0.111718 0)
(0.0375678 0.111851 0)
(0.0661825 0.119002 0)
(0.0765289 0.140032 0)
(-0.00203065 0.143648 0)
(0.000991401 0.12715 0)
(-0.00125645 0.136252 0)
(-0.0016079 0.159924 0)
(-0.000494271 0.120785 0)
(0.0112691 0.140158 0)
(-0.0190409 0.139464 0)
(0.0117668 0.133501 0)
(0.0344018 0.14078 0)
(0.0160869 0.11828 0)
(0.00646334 0.103144 0)
(0.00981825 0.177312 0)
(0.0296032 0.141697 0)
(0.023269 0.131392 0)
(0.0300409 0.133975 0)
(0.0324376 0.136376 0)
(0.0315692 0.144637 0)
(0.0471991 0.128731 0)
(0.0255964 0.124165 0)
(0.0330845 0.135546 0)
(0.0696653 0.18769 0)
(0.0739874 0.123106 0)
(0.0319752 0.100157 0)
(-0.00513508 0.151049 0)
(0.00123069 0.135812 0)
(0.00218974 0.144074 0)
(-0.0215329 0.167043 0)
(0.0025164 0.150675 0)
(0.0359413 0.151791 0)
(0.00543776 0.152552 0)
(0.00713726 0.190913 0)
(-0.0202044 0.150178 0)
(0.0143491 0.144267 0)
(0.040196 0.133362 0)
(0.018116 0.144473 0)
(0.0227776 0.113093 0)
(0.0207708 0.12917 0)
(0.0200886 0.129153 0)
(0.0299924 0.132596 0)
(0.0263614 0.141046 0)
(0.046528 0.140172 0)
(0.0644559 0.145125 0)
(0.0652429 0.193471 0)
(0.0266557 0.151828 0)
(0.0280802 0.107996 0)
(0.0031451 0.0840332 0)
(-0.00551788 0.142892 0)
(0.00195979 0.111081 0)
(-0.00039397 0.143039 0)
(0.00190222 0.169371 0)
(0.00621182 0.207761 0)
(0.00963684 0.15923 0)
(-0.00263053 0.157012 0)
(0.00984035 0.17934 0)
(-0.00076291 0.144326 0)
(0.0122035 0.19809 0)
(0.00869066 0.136251 0)
(-0.0231335 0.156499 0)
(0.00771099 0.144975 0)
(0.0395593 0.140793 0)
(0.0148516 0.125432 0)
(0.0205011 0.135262 0)
(0.0184042 0.127201 0)
(0.042288 0.140447 0)
(0.0656367 0.120651 0)
(0.0179406 0.118834 0)
(0.00170494 0.0909614 0)
(0.0420869 0.116884 0)
(0.034005 0.0951669 0)
(-0.0237856 0.164487 0)
(0.0129625 0.149488 0)
(0.0287287 0.152802 0)
(0.0119073 0.160918 0)
(0.0110195 0.176958 0)
(0.0137942 0.156287 0)
(0.0054657 0.160182 0)
(-0.00245182 0.174073 0)
(-0.00223815 0.150543 0)
(0.00877385 0.160567 0)
(0.00104193 0.150965 0)
(0.0134741 0.166437 0)
(-0.00275744 0.194687 0)
(0.00142765 0.145752 0)
(-0.00189408 0.140409 0)
(0.00864068 0.11235 0)
(0.00980165 0.144263 0)
(0.0232794 0.114866 0)
(0.0382286 0.119174 0)
(0.0213269 0.112012 0)
(0.0202492 0.103506 0)