/*--------------------------------*- C++ -*----------------------------------*\
| =========                 |                                                 |
| \\      /  F ield         | foam-extend: Open Source CFD                    |
|  \\    /   O peration     | Version:     4.1                                |
|   \\  /    A nd           | Web:         http://www.foam-extend.org         |
|    \\/     M anipulation  |                                                 |
\*---------------------------------------------------------------------------*/
FoamFile
{
    version     2.0;
    format      ascii;
    class       surfaceScalarField;
    location    "0.7";
    object      phi;
}
// * * * * * * * * * * * * * * * * * * * * * * * * * * * * * * * * * * * * * //

dimensions      [0 3 -1 0 0 0 0];

internalField   nonuniform List<scalar> 
4432
(
-4.14837e-06
4.14837e-06
-1.01815e-05
6.03309e-06
-1.47726e-05
4.59117e-06
-1.01108e-05
-4.66185e-06
-1.14815e-05
1.37076e-06
-1.30008e-05
1.51925e-06
-1.21923e-05
-8.0847e-07
-1.00483e-05
-2.14404e-06
-7.2945e-06
-2.75377e-06
-9.02786e-06
1.73336e-06
-7.26512e-06
-1.76274e-06
-2.81538e-06
-4.44974e-06
-3.85124e-06
1.03586e-06
-1.52479e-06
-2.32645e-06
-1.91341e-06
3.88618e-07
-1.12724e-07
-1.80069e-06
1.23241e-06
-1.34513e-06
2.29378e-06
-1.06137e-06
2.8532e-06
-5.59421e-07
2.67847e-06
1.74734e-07
1.88683e-06
7.91637e-07
1.17174e-06
7.15088e-07
1.17174e-06
-3.77585e-06
7.92422e-06
-5.06788e-06
7.32512e-06
-7.76093e-06
7.28422e-06
-1.02425e-05
-2.18033e-06
-1.1509e-05
2.6373e-06
-1.2747e-05
2.75722e-06
-1.1963e-05
-1.59244e-06
-9.4394e-06
-4.66763e-06
-1.22702e-05
7.70406e-08
-8.63479e-06
-1.90206e-06
-4.43346e-06
-5.96407e-06
-6.67679e-06
-2.20641e-06
-5.69096e-06
5.0033e-08
-3.1998e-06
-4.81761e-06
-2.66297e-06
-1.4821e-07
-1.52381e-06
-2.93985e-06
-7.28474e-07
-2.14047e-06
8.31401e-07
-2.62124e-06
1.59049e-06
-1.31851e-06
1.70642e-06
5.88053e-08
1.12191e-06
1.37615e-06
9.25828e-08
1.74441e-06
1.26433e-06
-5.44068e-06
1.33649e-05
-1.07875e-05
1.2672e-05
-1.57531e-05
1.22497e-05
-1.98098e-05
1.87642e-06
-2.29082e-05
5.73567e-06
-1.40757e-05
-6.07525e-06
-1.25575e-05
-3.11063e-06
-8.90703e-06
-8.31814e-06
-1.2199e-05
3.36906e-06
-5.38822e-06
-8.71289e-06
-8.8024e-06
-2.54989e-06
-8.20886e-06
-2.79996e-06
-4.8007e-06
-3.35813e-06
-8.19098e-06
-1.42732e-06
-4.11178e-06
-4.2274e-06
-6.74929e-06
-3.02344e-07
-2.46533e-06
-6.42444e-06
-1.20733e-06
-3.87924e-06
-2.84093e-07
-2.24174e-06
4.48041e-07
-6.73329e-07
7.52181e-07
1.07201e-06
3.53044e-07
2.14355e-06
1.61737e-06
-5.64001e-06
1.90049e-05
-9.95418e-06
1.69862e-05
-8.57523e-06
1.08708e-05
-1.08986e-05
4.1998e-06
-1.21775e-05
7.01453e-06
-1.3996e-05
-4.25671e-06
-1.20731e-05
-5.03351e-06
-1.8379e-05
-2.01225e-06
-8.72625e-06
-6.28371e-06
-1.36615e-05
-3.77768e-06
-1.43188e-05
-1.8926e-06
-1.5916e-05
-1.20269e-06
-1.64179e-05
-2.85623e-06
-1.66628e-05
-1.18244e-06
-1.60935e-05
-4.79675e-06
-1.51296e-05
-1.26618e-06
-1.32029e-05
-8.35112e-06
-1.00755e-05
-7.0067e-06
-6.35716e-06
-5.96005e-06
-2.78034e-06
-4.25015e-06
-9.4744e-07
-7.60895e-07
-3.78072e-07
1.57418e-06
1.2393e-06
-6.66236e-06
2.56673e-05
-1.14569e-05
2.17807e-05
-1.68172e-05
1.6231e-05
-2.09068e-05
8.28942e-06
-1.29044e-05
-9.87839e-07
-1.50465e-05
-2.11463e-06
-1.31077e-05
-6.97234e-06
-1.15514e-05
-3.5685e-06
-1.0625e-05
-7.21015e-06
-1.70077e-05
2.60506e-06
-1.72303e-05
-1.67001e-06
-1.84512e-05
1.82299e-08
-1.97113e-05
-1.59621e-06
-2.00712e-05
-8.22491e-07
-2.07601e-05
-4.10784e-06
-2.02448e-05
-1.78151e-06
-1.79821e-05
-1.06138e-05
-1.61311e-05
-8.85767e-06
-1.41323e-05
-7.95884e-06
-9.61465e-06
-8.7678e-06
-3.84281e-06
-6.53274e-06
-4.41595e-07
-1.82704e-06
7.97703e-07
-3.68747e-06
2.93547e-05
-1.13691e-05
2.94623e-05
-1.82431e-05
2.3105e-05
-2.34065e-05
1.34529e-05
-1.43396e-05
-1.00547e-05
-1.64461e-05
-8.16406e-09
-1.40245e-05
-9.39398e-06
-1.15375e-05
-6.05543e-06
-2.07343e-05
1.98661e-06
-2.05016e-05
2.37236e-06
-2.20475e-05
-1.24073e-07
-2.2472e-05
4.42746e-07
-2.28295e-05
-1.23872e-06
-2.24425e-05
-1.20948e-06
-2.13606e-05
-5.18978e-06
-2.10755e-05
-2.06665e-06
-2.02734e-05
-1.14158e-05
-1.85165e-05
-1.06146e-05
-1.64352e-05
-1.00402e-05
-1.51919e-05
-1.00111e-05
-5.08011e-06
-1.66445e-05
-1.53502e-06
-5.37214e-06
-7.37314e-07
-5.53485e-06
3.48896e-05
-6.07369e-06
3.00012e-05
-1.06014e-05
2.76327e-05
-1.38904e-05
1.67419e-05
-1.49281e-05
-9.01704e-06
-1.62603e-05
1.32401e-06
-2.80501e-05
2.39584e-06
-2.47951e-05
-9.31043e-06
-2.38719e-05
1.06341e-06
-2.29887e-05
1.48918e-06
-2.31991e-05
8.62971e-08
-2.30264e-05
2.70002e-07
-2.29765e-05
-1.28855e-06
-2.25269e-05
-1.65908e-06
-2.3049e-05
-4.66775e-06
-2.34344e-05
-1.68117e-06
-2.08858e-05
-1.39645e-05
-1.8988e-05
-1.25124e-05
-1.72187e-05
-1.18095e-05
-1.52959e-05
-1.19338e-05
-9.83282e-06
-2.21076e-05
-2.31962e-06
-1.28853e-05
-3.05694e-06
-4.35736e-06
3.92469e-05
-1.50136e-05
4.06574e-05
-2.46326e-05
3.72518e-05
-2.99908e-05
2.21001e-05
-3.09648e-05
-8.0431e-06
-1.88979e-05
-1.07428e-05
-1.74736e-05
9.71557e-07
-2.56198e-05
-1.16426e-06
-2.45687e-05
1.23026e-08
-2.50664e-05
1.98683e-06
-2.48267e-05
-1.53349e-07
-2.44443e-05
-1.12452e-07
-2.46448e-05
-1.08799e-06
-2.40819e-05
-2.22203e-06
-2.41305e-05
-4.61911e-06
-2.53823e-05
-4.29412e-07
-1.96885e-05
-1.96582e-05
-1.71316e-05
-1.50693e-05
-1.57776e-05
-1.31636e-05
-1.60665e-05
-1.1645e-05
-1.17927e-05
-2.63813e-05
-5.61585e-06
-1.90622e-05
-8.67278e-06
-8.22105e-05
8.22105e-05
-0.000108509
2.62989e-05
-0.000123047
1.45377e-05
-0.000124193
1.1458e-06
-0.000122716
-1.47741e-06
-0.000130358
7.64282e-06
-0.000144942
1.45836e-05
-0.000150915
5.97257e-06
-0.000157222
6.30726e-06
-0.000149892
-7.32931e-06
-0.000124992
-2.49003e-05
-0.000101145
-2.38469e-05
-8.36753e-05
-1.747e-05
-7.54224e-05
-8.25293e-06
-3.69378e-05
-3.84845e-05
-2.70967e-05
-9.84109e-06
-2.65544e-05
-5.42319e-07
-8.49588e-06
-1.80585e-05
-8.49588e-06
-7.46234e-05
0.000156834
-9.76441e-05
4.93195e-05
-0.000110307
2.72004e-05
-0.000111391
2.23002e-06
-0.000110904
-1.96415e-06
-0.000119294
1.60325e-05
-0.000137204
3.24936e-05
-0.000146769
1.55374e-05
-0.000146006
5.54482e-06
-0.000130865
-2.2471e-05
-0.000105499
-5.02659e-05
-8.07804e-05
-4.85656e-05
-7.37215e-05
-2.45289e-05
-4.00077e-05
-4.19667e-05
-3.97311e-05
-3.87612e-05
-3.9851e-05
-9.72111e-06
-2.69148e-05
-1.34786e-05
-9.42783e-06
-3.55455e-05
-1.79237e-05
-3.36451e-05
0.000190479
-7.0017e-05
8.56914e-05
-8.36437e-05
4.08271e-05
-7.75957e-05
-3.818e-06
-7.48235e-05
-4.73635e-06
-9.10649e-05
3.22739e-05
-6.06861e-05
2.11476e-06
-6.2734e-05
1.75853e-05
-0.000101327
4.4138e-05
-7.37908e-05
-5.00074e-05
-3.02042e-05
-9.38525e-05
-3.55706e-05
-4.31991e-05
-3.64137e-05
-2.36858e-05
-3.32507e-05
-4.51297e-05
-6.54643e-05
-6.54758e-06
-5.77972e-05
-1.73882e-05
-2.83238e-05
-4.2952e-05
-8.09443e-06
-5.57749e-05
-2.60181e-05
-2.69833e-05
0.000217462
-5.84854e-05
0.000117194
-3.92631e-05
2.16048e-05
-5.85636e-05
1.54825e-05
-4.38596e-05
-1.94403e-05
-5.11164e-05
3.95308e-05
-6.67652e-05
1.77635e-05
-7.18271e-05
2.26473e-05
-3.16425e-05
3.95338e-06
-1.11097e-05
-7.05401e-05
-1.16644e-06
-0.000103796
4.77167e-06
-4.91372e-05
5.68431e-06
-2.45985e-05
-2.45614e-05
-1.4884e-05
-3.38361e-05
2.72705e-06
-4.30317e-05
-8.19248e-06
3.62699e-06
-8.96107e-05
3.69109e-05
-8.90588e-05
1.08928e-05
-2.5769e-05
0.000243231
-5.22475e-05
0.000143672
-6.48408e-05
3.41981e-05
-4.51707e-05
-4.18766e-06
-8.4364e-06
-5.61746e-05
2.23036e-05
8.79076e-06
1.92165e-05
2.08506e-05
4.26885e-05
-8.24676e-07
4.66316e-05
1.02685e-08
3.32558e-05
-5.71644e-05
1.55171e-05
-8.60571e-05
2.56813e-05
-5.93014e-05
1.69042e-05
-1.58213e-05
-1.19294e-05
1.39496e-05
-4.92064e-05
4.00041e-05
-3.2571e-05
-2.48279e-05
-4.06193e-06
-0.00011812
3.74091e-05
-0.00013053
4.83019e-05
-2.18116e-05
0.000265043
-4.43497e-05
0.00016621
-4.90664e-05
3.89148e-05
-2.04283e-05
-3.28257e-05
3.47191e-06
-8.00748e-05
2.36832e-05
-1.14205e-05
3.241e-05
1.21237e-05
4.68097e-05
-1.52244e-05
8.11365e-05
-3.43166e-05
5.72864e-05
-3.33142e-05
3.74548e-05
-6.62254e-05
3.16853e-05
-5.3532e-05
2.69112e-05
-1.10472e-05
-6.47475e-06
4.73355e-05
-4.24424e-05
7.59717e-05
-2.9698e-05
-3.75724e-05
-1.47119e-05
-0.000133106
7.13354e-06
-0.000152375
5.54354e-05
-1.95184e-05
0.000284561
-3.80802e-05
0.000184772
-2.4458e-05
2.52926e-05
-1.02746e-05
-4.70092e-05
8.33887e-06
-9.86882e-05
1.94453e-05
-2.25269e-05
3.9291e-05
-7.72197e-06
3.15435e-05
-7.4769e-06
3.24596e-05
-3.52326e-05
5.47658e-05
-5.56204e-05
3.61304e-05
-4.759e-05
1.46928e-05
-3.20944e-05
1.50616e-05
-1.1416e-05
-1.4886e-05
7.72831e-05
-2.76906e-05
8.87763e-05
-4.00356e-05
-2.52274e-05
-2.42066e-05
-0.000148935
-1.28204e-05
-0.000163762
4.2615e-05
-1.69777e-05
0.000301539
-1.67794e-05
0.000184574
-9.408e-06
1.79212e-05
1.02574e-05
-6.66746e-05
1.83788e-05
-0.00010681
1.77544e-05
-2.19026e-05
1.98293e-05
-9.79687e-06
2.71007e-05
-1.47483e-05
4.18664e-05
-4.99983e-05
3.35315e-05
-4.72855e-05
2.36608e-05
-3.77192e-05
1.3961e-05
-2.23947e-05
-1.13285e-05
1.38735e-05
-2.66715e-05
9.26261e-05
-5.46661e-05
0.000116771
-4.24648e-05
-3.74286e-05
-4.84336e-05
-0.000142966
-4.58439e-05
-0.000166351
-3.22883e-06
-1.7031e-05
5.62779e-05
-2.9899e-05
5.35254e-05
-4.80933e-05
5.5446e-05
-5.13227e-05
2.53295e-05
-7.4778e-05
1.54123e-05
-6.96526e-05
-1.58683e-05
-6.32195e-05
-5.46149e-06
-5.8901e-05
-5.48275e-06
-5.61766e-05
-2.71212e-06
-5.26953e-05
-1.49452e-06
-5.10816e-05
-1.76705e-06
-4.92853e-05
-1.90868e-06
-4.86348e-05
-1.73849e-06
-4.68482e-05
-4.00867e-06
-5.19377e-05
4.70414e-07
-3.24634e-05
-1.99038e-05
-4.74291e-05
-4.6925e-06
-4.09802e-05
-2.15182e-05
-3.4737e-05
-1.94068e-05
-1.65533e-05
-2.98286e-05
-1.43248e-05
-2.86099e-05
-1.03301e-06
-3.2354e-05
-2.75329e-05
1.78271e-05
-0.000109741
0.000166019
-0.000146349
9.01338e-05
-0.000100776
9.873e-06
-7.8669e-05
3.22221e-06
-6.06582e-05
-2.59847e-06
-7.88504e-05
2.32391e-06
-6.53605e-05
-1.89514e-05
-5.62537e-05
-1.45896e-05
-5.06823e-05
-8.28347e-06
-4.80942e-05
-4.08267e-06
-4.54815e-05
-4.37971e-06
-4.31487e-05
-4.24144e-06
-3.85732e-05
-6.31401e-06
-4.05384e-05
-2.04347e-06
-2.87921e-05
-1.1276e-05
-2.62246e-05
-2.24712e-05
-1.79731e-05
-1.2944e-05
-2.18921e-05
-1.75992e-05
-2.13437e-05
-1.99552e-05
-1.61792e-05
-3.49931e-05
-1.16757e-05
-3.31134e-05
-4.99741e-06
-3.90322e-05
-4.06274e-05
8.09705e-06
-0.000183906
0.000349925
-0.000189668
9.5895e-05
-0.000177392
-2.40224e-06
-0.000147124
-2.70457e-05
-0.000134216
-1.55065e-05
-6.52906e-05
-6.66019e-05
-5.14742e-05
-3.27677e-05
-7.15586e-05
5.49473e-06
-7.21216e-05
-7.72041e-06
-7.05748e-05
-5.62956e-06
-6.23621e-05
-1.25923e-05
-5.67906e-05
-9.81302e-06
-5.49531e-05
-8.15151e-06
-5.75371e-05
5.40588e-07
-6.38032e-05
-5.00985e-06
-6.14292e-05
-2.48453e-05
-5.22696e-05
-2.21036e-05
-4.68853e-05
-2.29835e-05
-4.71446e-05
-1.9696e-05
-5.2287e-05
-2.98507e-05
-1.77131e-05
-6.76872e-05
2.30831e-05
-7.98285e-05
-6.53453e-05
4.78011e-05
-0.000103314
0.000453239
-7.89058e-05
7.14872e-05
-8.11185e-05
-1.89548e-07
-0.000103269
-4.89503e-06
-9.61432e-05
-2.26325e-05
-0.000117439
-4.53065e-05
-0.000130908
-1.92986e-05
-0.000127024
1.61117e-06
-0.000128429
-6.31521e-06
-8.49537e-05
-4.91053e-05
-8.17645e-05
-1.57815e-05
-7.39835e-05
-1.7594e-05
-0.000118264
3.61294e-05
-0.000127295
9.57128e-06
-7.49493e-05
-5.73557e-05
-6.69317e-05
-3.28629e-05
-4.90188e-05
-4.00164e-05
-7.12504e-05
-7.51925e-07
-4.91047e-05
-4.18417e-05
-1.1402e-05
-6.75534e-05
1.64555e-05
-9.55447e-05
1.61403e-06
-6.4987e-05
-2.40685e-05
-3.96628e-05
-5.62002e-05
0.000509439
-0.000127651
0.000142938
-0.000169405
4.15652e-05
-0.000152028
-2.22725e-05
-0.000195289
2.06285e-05
-0.000195396
-4.51995e-05
-0.00018953
-2.51645e-05
-0.000163612
-2.43065e-05
-0.000134714
-3.52131e-05
-0.000136104
-4.77156e-05
-9.96347e-05
-5.22509e-05
-8.00028e-05
-3.72259e-05
-4.24785e-05
-1.39487e-06
2.23986e-05
-5.53059e-05
5.48356e-05
-8.97928e-05
4.66298e-05
-2.46571e-05
-1.44289e-06
8.05638e-06
-2.77989e-05
2.56041e-05
-6.66958e-05
-2.94489e-06
-8.02907e-05
-5.39584e-05
-0.00010795
-6.78851e-05
-0.000135519
-3.74186e-05
1.95339e-05
-0.000179121
-1.04132e-05
0.000519852
-6.1304e-05
0.000193828
-0.000107884
8.81451e-05
-0.000132493
2.3365e-06
-0.000121463
9.59837e-06
-0.00019293
2.62673e-05
-0.000201813
-1.62816e-05
-0.000181481
-4.46379e-05
-0.000157934
-5.87609e-05
-0.00014174
-6.39093e-05
-9.18768e-05
-0.000102114
-5.39263e-05
-7.51764e-05
4.41324e-05
-9.94536e-05
7.83863e-05
-8.95597e-05
0.000101897
-0.000113303
0.000101887
-2.46472e-05
9.62845e-05
1.36588e-05
3.18953e-05
8.99933e-05
-7.45359e-05
0.000103486
-0.000161279
3.27852e-05
-0.000180032
-4.91322e-05
-0.000160679
-5.6772e-05
2.75467e-05
-0.000168692
6.87018e-05
0.00045115
-3.45659e-05
0.000297096
-6.21552e-05
0.000115734
-0.00011809
5.82715e-05
-0.000139389
3.08973e-05
-0.000118542
5.41959e-06
-0.000129233
-5.59001e-06
-0.000197689
2.38179e-05
-0.000230775
-2.56754e-05
-0.000195824
-9.88602e-05
-0.000187348
-0.00011059
-0.000164795
-9.77293e-05
-0.000165848
-9.84011e-05
-0.000179956
-7.54513e-05
-0.000223467
-6.97928e-05
-0.000137899
-0.000110215
-9.48826e-05
-2.93577e-05
-9.11506e-05
8.62613e-05
-5.00679e-05
6.24036e-05
-4.32383e-05
2.59556e-05
-6.79305e-05
-2.44399e-05
-0.000106534
-1.81681e-05
4.62852e-05
-0.000125273
3.89407e-05
0.000412209
4.24485e-05
0.000293588
-1.00075e-05
0.00016819
-3.69738e-05
8.52379e-05
-7.72282e-05
7.11517e-05
-7.62387e-05
4.42999e-06
-0.000112495
3.06665e-05
-0.000141195
5.25173e-05
-0.000178312
1.14425e-05
-0.000315573
3.84008e-05
-0.000467709
4.15462e-05
-0.000564428
-1.01095e-06
-0.00059265
-7.01788e-05
-0.000584266
-8.3835e-05
-0.000585014
-6.90446e-05
-0.000578819
-0.00011641
-0.000507846
-0.000100331
-0.000408723
-1.28617e-05
-0.000320131
-2.61889e-05
-0.000234948
-5.92268e-05
-0.000176419
-8.29693e-05
-0.000173083
-2.15039e-05
1.83378e-05
-0.000145136
4.7337e-05
0.000364872
5.19215e-05
0.000289004
5.17147e-06
0.00021494
-3.6893e-05
0.000127302
-0.000104273
0.000138532
-0.000178879
7.90358e-05
-0.000225471
7.72582e-05
-0.000270249
9.72955e-05
-0.00037187
0.000113064
-0.000525258
0.000191789
-0.000688252
0.00020454
-0.000748619
5.93559e-05
-0.000771287
-4.75107e-05
-0.000770087
-8.50348e-05
-0.000734591
-0.000104541
-0.000698685
-0.000152316
-0.000637561
-0.000161454
-0.000561168
-8.92549e-05
-0.000493078
-9.42785e-05
-0.000445047
-0.000107258
-0.000394304
-0.000133712
-0.000313777
-0.000102031
-0.000105783
-0.000189656
2.94505e-05
0.000335422
3.65456e-05
0.000281908
9.44402e-06
0.000242042
-1.8546e-05
0.000155292
-6.69601e-05
0.000186946
-0.000175688
0.000187764
-0.000262647
0.000164217
-0.000373786
0.000208434
-0.000545247
0.000284525
-0.000578649
0.000225191
-0.000669054
0.000294945
-0.000691245
8.15469e-05
-0.000669174
-6.95821e-05
-0.000627566
-0.000126643
-0.000597184
-0.000134923
-0.00057156
-0.00017794
-0.000588959
-0.000144055
-0.000612227
-6.59867e-05
-0.000530234
-0.000176271
-0.000464658
-0.000172834
-0.000419902
-0.000178469
-0.000351933
-0.00017
-9.67067e-05
-0.00036101
4.72694e-06
0.000330695
-2.00069e-06
0.000288636
-2.16546e-05
0.000261696
-7.10521e-06
0.000140743
-5.11401e-05
0.000230981
-0.000100557
0.000237181
-0.000212616
0.000276276
-0.000302721
0.000298539
-0.000348509
0.000330312
-0.000486717
0.000363399
-0.000496652
0.00030488
-0.000478136
6.30314e-05
-0.000435675
-0.000112043
-0.000416658
-0.00014566
-0.000382684
-0.000168896
-0.000390893
-0.000169731
-0.000382534
-0.000152415
-0.000282434
-0.000166087
-0.000307677
-0.000151029
-0.000386177
-9.43336e-05
-0.000428981
-0.000135664
-0.000472699
-0.000126282
-0.000114621
-0.000454785
2.15984e-06
0.000328535
-4.10015e-06
0.000294896
-1.50577e-05
0.000272653
-4.41957e-05
0.000169881
-8.01575e-05
0.000266942
-0.000126846
0.00028387
-0.000171662
0.000321092
-0.000220635
0.000347512
-0.000247253
0.00035693
-0.000241487
0.000357632
-0.00015066
0.000214054
-0.000151029
6.34002e-05
-0.000182574
-8.04986e-05
-0.000226247
-0.000101987
-0.000324665
-7.04783e-05
-0.000339747
-0.000154649
-0.000333912
-0.00015825
-0.00038324
-0.000116758
-0.000386735
-0.000147534
-0.000341351
-0.000139718
-0.000336909
-0.000140106
-0.000221186
-0.000242006
-0.000117557
-0.000218249
-2.73449e-06
0.00033127
-1.66452e-05
0.000308807
-2.35282e-05
0.000279536
-4.74539e-05
0.000193807
-8.45536e-05
0.000304042
-0.000119188
0.000318504
-0.000145886
0.00034779
-0.000181198
0.000382824
-6.88685e-05
0.0002446
-8.06222e-05
0.000369386
-2.1687e-05
0.000155119
-8.66523e-05
0.000128366
-0.000174498
7.3473e-06
-0.000266209
-1.02755e-05
-0.000269718
-6.69694e-05
-0.000332973
-9.13934e-05
-0.000337635
-0.000153589
-0.000291101
-0.000163293
-0.000256837
-0.000181797
-0.000273953
-0.000122602
-0.000269333
-0.000144726
-0.000273702
-0.000237636
-0.000235227
-0.000156032
-4.58063e-06
0.00033585
-2.11461e-05
0.000325372
-1.13183e-05
0.000269708
-4.38521e-05
0.00022634
-6.53934e-05
0.000325583
-7.74666e-05
0.000330578
-8.19753e-05
0.000352299
-4.25161e-05
0.000343365
-0.000112906
0.00031499
-5.90156e-05
0.000315496
-4.1431e-05
0.000137534
-4.44803e-05
0.000131415
-8.63292e-05
4.91962e-05
-0.000116992
2.03874e-05
-0.000171841
-1.21208e-05
-0.000142594
-0.00012064
-0.000173532
-0.000122651
-0.000263593
-7.32318e-05
-0.000253995
-0.000191395
-0.000175774
-0.000200822
-0.000135503
-0.000184997
-0.000244299
-0.00012884
-0.000228866
-0.00025066
-3.8259e-06
0.000339676
-1.44537e-06
0.000322991
7.0208e-06
0.000261242
-7.84752e-05
0.000311836
-5.16043e-05
0.000298712
-6.9345e-05
0.000348318
-6.89427e-05
0.000351896
-5.99644e-05
0.000334386
-6.13534e-05
0.000316379
-1.95379e-05
0.000273681
-6.13161e-05
0.000179313
-4.83603e-05
0.000118459
-2.21987e-05
2.30348e-05
-4.56134e-05
4.38021e-05
-7.46666e-05
1.69324e-05
-0.000204605
9.2989e-06
-0.000256186
-7.10704e-05
-0.000245029
-8.43887e-05
-0.000257355
-0.000179069
-0.000271225
-0.000186952
-0.00025804
-0.000198182
-0.000271236
-0.000115644
-0.000111623
-0.000388479
-1.52084e-05
0.000354884
-3.36841e-05
0.000341467
-4.89546e-07
0.000228048
-4.55675e-05
0.000356914
-6.14596e-05
0.000314604
-6.91194e-05
0.000355978
-5.44876e-05
0.000337265
-7.08945e-05
0.000350793
-9.44276e-05
0.000339912
-8.24157e-05
0.000261669
-7.40836e-05
0.00017098
-1.27335e-05
5.71091e-05
4.64186e-05
-3.61173e-05
0.000120971
-3.07507e-05
7.4907e-05
6.29969e-05
1.38779e-05
7.03281e-05
-9.25554e-05
3.53629e-05
-0.000160953
-1.59913e-05
-0.000258625
-8.13965e-05
-0.000297372
-0.000148205
-0.000452629
-4.29262e-05
-0.000631513
6.32407e-05
-2.82496e-05
-0.000714887
-1.50789e-05
0.000369963
-1.32137e-05
0.000339602
-4.58594e-05
0.000260693
-7.79184e-05
0.000388973
-2.29869e-05
0.000259673
-4.25292e-05
0.00037552
-3.9652e-05
0.000334387
-5.18075e-05
0.000362949
-8.4417e-05
0.000372522
-0.000122878
0.00030013
-6.33155e-05
0.000111418
-7.32129e-05
6.70065e-05
-6.50903e-05
-4.42398e-05
1.59234e-05
-0.000111764
5.79457e-05
2.09745e-05
2.45566e-06
0.000125818
-0.000102322
0.000140141
-0.000200249
8.19351e-05
-0.000274258
-7.3875e-06
-0.000440059
1.75959e-05
-0.000610185
0.0001272
-0.000656095
0.000109152
6.92335e-06
-0.000691268
8.10193e-06
0.000361861
2.18022e-05
0.000325901
-6.47608e-05
0.000347256
-4.83469e-05
0.000372559
-8.7802e-05
0.000299128
-8.58841e-05
0.000373602
-3.47872e-05
0.00028329
-8.75759e-05
0.000415737
-0.000116938
0.000401884
-0.000209495
0.000392687
-0.000204201
0.000106124
-0.000150596
1.34014e-05
-0.000154489
-4.03467e-05
-0.000240242
-2.60122e-05
-0.00023114
1.18727e-05
-0.000225732
0.000120411
-0.000223507
0.000137916
-0.000264074
0.000122502
-0.00036321
9.17478e-05
-0.000521694
0.00017608
-0.000593695
0.0001992
-0.000576891
9.23485e-05
1.70095e-05
-0.000586978
3.87051e-06
0.000357991
-1.15128e-06
0.000330923
-7.63957e-06
0.000353744
-2.14245e-05
0.000386344
-0.000133704
0.000411407
-2.83895e-05
0.000268288
-6.39604e-05
0.000318861
-0.000122359
0.000474136
-0.000218458
0.000497983
-0.000299576
0.000473805
-0.000321616
0.000128164
-0.00031939
1.1175e-05
-0.000350426
-9.31073e-06
-0.000356195
-2.02426e-05
-0.000327064
-1.72582e-05
-0.000307843
0.00010119
-0.000292216
0.000122288
-0.000295118
0.000125404
-0.000337935
0.000134565
-0.000446798
0.000284943
-0.000522673
0.000275076
-0.000536835
0.00010651
2.95222e-05
-0.000549347
6.99258e-06
0.000350998
-1.22165e-06
0.000339137
3.45664e-07
0.000352177
-1.2201e-05
0.000398891
-5.96917e-06
0.000405175
7.71123e-06
0.000254608
-8.77294e-05
0.000414302
-7.61898e-05
0.000462596
-0.000180147
0.000601941
-0.000275262
0.00056892
-0.000374749
0.000227651
-0.00040192
3.8346e-05
-0.000416551
5.32058e-06
-0.000386222
-5.05716e-05
-0.000389749
-1.37313e-05
-0.000402903
0.000114344
-0.000398033
0.000117419
-0.000404916
0.000132287
-0.000403023
0.000132672
-0.00025563
0.000137549
-0.000241772
0.000261218
-0.000380753
0.000245491
3.65092e-05
-0.00038774
5.48916e-06
0.000345509
4.54945e-06
0.000340077
2.48108e-06
0.000354246
6.72464e-06
0.000394647
8.49411e-06
0.000403406
1.1476e-06
0.000261954
-1.28441e-05
0.000428293
-3.47241e-05
0.000484476
-2.21811e-05
0.000589398
-8.40047e-05
0.000630743
-0.000178414
0.00032206
-0.000202134
6.2066e-05
-0.00024004
4.32265e-05
-0.000349511
5.88996e-05
-0.000390037
2.67952e-05
-0.000404435
0.000128741
-0.000387085
0.00010007
-0.000424766
0.000169968
-0.000403078
0.000110984
-0.000375555
0.000110026
-0.000321185
0.000206848
-0.000209975
0.000134281
4.00187e-05
-0.000213484
7.19222e-06
0.000338317
7.93117e-06
0.000339338
5.28879e-06
0.000356888
1.77322e-05
0.000382204
2.79066e-05
0.000393231
9.20217e-06
0.000280659
2.11883e-05
0.000416307
4.21878e-05
0.000463477
8.57922e-05
0.000545793
8.48386e-05
0.000631697
-7.13217e-05
0.00047822
-0.000143136
0.00013388
-0.000207861
0.000107951
-0.000259517
0.000110556
-0.000385567
0.000152845
-0.00038438
0.000127553
-0.000419934
0.000135624
-0.000278128
2.81617e-05
-0.000183916
1.6773e-05
-8.98616e-05
1.59718e-05
7.26728e-07
0.000116259
5.43074e-05
8.07001e-05
3.92768e-05
5.50493e-05
6.78903e-06
0.000331528
1.37551e-05
0.000332372
2.38699e-05
0.000346773
3.8531e-05
0.000367543
7.35972e-05
0.000358165
2.58732e-06
0.000351668
1.66099e-05
0.000402285
7.11889e-05
0.000408898
0.000116966
0.000500016
0.000203373
0.00054529
0.000146113
0.000535479
1.71362e-05
0.000262858
-0.000140921
0.000266008
-0.000175498
0.000145133
-0.000189896
0.000167243
-0.000254353
0.00019201
-0.000255937
0.000137207
-0.00018043
-4.73446e-05
-0.000110791
-5.28661e-05
-4.51273e-05
-4.96919e-05
6.9347e-05
1.78506e-06
0.000124415
2.56322e-05
-1.7673e-05
0.000181365
7.99866e-06
0.000323529
1.57085e-05
0.000324662
3.34184e-05
0.000329063
4.33878e-05
0.000357573
3.98052e-05
0.000361747
4.14062e-05
0.000350067
2.17856e-05
0.000421905
0.000175259
0.000255424
0.000168569
0.000506706
0.000211541
0.000502318
0.000299785
0.000447235
0.000126816
0.000435827
5.74002e-05
0.000335424
-4.14337e-05
0.000243966
-6.96994e-05
0.000195509
-1.83639e-05
0.000140675
3.3515e-05
8.53286e-05
2.33462e-05
-3.71757e-05
6.3959e-05
-9.3479e-05
0.000151917
-0.00013765
0.000208244
-5.45423e-05
0.000244776
-1.0899e-05
1.18834e-06
0.000225914
1.33587e-05
0.00031017
1.61072e-05
0.000321914
2.28165e-05
0.000322354
5.02924e-05
0.000330097
7.5805e-05
0.000336235
7.72206e-05
0.000348652
0.000102995
0.000396131
0.000112817
0.000245602
0.000165469
0.000454054
0.00019997
0.000467817
0.000256754
0.000390451
0.000332369
0.000360212
0.000361867
0.000305925
0.000316517
0.000289317
0.000363054
0.000148972
0.000304833
0.000198896
0.000327691
6.24706e-05
0.000322488
-3.19728e-05
0.000292271
-6.32623e-05
0.000214041
-5.94203e-05
0.000280073
-0.000120574
0.000304738
-3.55632e-05
-6.50438e-05
0.00037097
5.15156e-05
0.000258655
3.90858e-05
0.000334344
1.94952e-05
0.000341945
2.08319e-05
0.000328761
0.000107684
0.000249382
0.000104611
0.000351725
0.00013868
0.000362063
0.000126131
0.00025815
0.000151782
0.000428404
0.000187578
0.00043202
0.00038632
0.00019171
0.000409593
0.00033694
0.000444783
0.000270735
0.000451806
0.000282293
0.00032738
0.000273398
0.000452758
7.35177e-05
0.000469018
4.62109e-05
0.000444064
-7.01931e-06
0.000412837
-3.20357e-05
0.00042197
-6.85534e-05
0.000301263
1.32889e-07
0.000324813
-5.91136e-05
-0.000151065
0.000410835
-1.82419e-06
0.000260479
1.20351e-05
0.000320484
-1.07452e-06
0.000355054
8.23452e-05
0.000245341
5.82406e-05
0.000273487
7.8002e-05
0.000331963
0.00023312
0.000206945
0.00011568
0.000375589
0.000203055
0.000341029
0.000249899
0.000385176
0.000208633
0.000232976
0.00037481
0.000170763
0.000305983
0.000339562
0.000316835
0.000271442
0.000484183
0.000106051
0.000476207
8.14932e-05
0.000458281
6.41366e-05
0.000401342
4.992e-05
0.000384829
-1.55225e-05
0.000309897
6.37782e-06
0.000284349
2.56817e-05
0.000296782
-7.1547e-05
-0.000126144
0.000271862
-8.82123e-05
0.000348691
2.03297e-05
0.000211942
4.14184e-05
0.000333965
8.96008e-05
0.000197159
1.66232e-05
0.000346465
0.000127847
0.00022074
0.000123015
0.000211777
0.000199026
0.000299578
0.000216702
0.000323353
0.000261284
0.000340594
0.000284198
0.000210062
0.000245938
0.000209023
0.000260459
0.000325041
0.00040465
0.000127251
0.000266684
0.000244017
0.000260608
8.75686e-05
0.000274729
5.00163e-05
0.000318962
5.68695e-06
0.000280837
2.26026e-05
0.000293139
-5.92472e-06
0.000396549
-7.77279e-05
0.000475181
-0.000150179
-8.96206e-05
0.000438657
-6.36548e-06
0.000355057
8.48514e-06
0.000197092
4.5475e-05
0.000296976
4.35479e-05
0.000199086
8.14783e-05
0.000308534
0.000101384
0.000200835
0.00012169
0.000191471
0.00011248
0.000308788
0.000240996
0.000194836
0.000276113
0.000305477
0.000170168
0.000316008
0.000196454
0.000182736
0.000373241
0.000148254
0.000263188
0.000237304
0.000364876
0.000142329
0.000379243
7.3201e-05
0.000373342
5.59179e-05
0.000339433
3.95956e-05
0.000348907
1.31283e-05
0.000359661
-1.66789e-05
0.000331764
-4.98302e-05
0.000279802
-9.8217e-05
-0.000105925
0.000296106
-3.92392e-06
0.000358981
3.64373e-06
0.000189524
2.94387e-05
0.000271181
2.67551e-05
0.000201769
0.000113401
0.000221888
0.000106647
0.000207589
8.6772e-05
0.000211347
0.000202586
0.000192974
0.000209452
0.000187971
0.000175132
0.000339797
0.000332404
0.000158735
0.000280445
0.000234695
0.000214663
0.000214036
0.000358659
9.33093e-05
0.000359499
0.000141489
0.000349802
8.28974e-05
0.000362841
4.28787e-05
0.000339798
6.26392e-05
0.000341483
1.14427e-05
0.000326428
-1.62384e-06
0.000308813
-3.22148e-05
0.000235954
-2.53583e-05
-0.000138636
0.000268665
-8.39229e-06
0.000367373
-5.77206e-06
0.000186904
7.63797e-05
0.000189029
9.16543e-05
0.000186495
0.000102681
0.000210861
0.000119768
0.000190502
0.000143427
0.000187688
0.000163208
0.000173192
0.000193802
0.000157377
0.000243595
0.000290004
0.000264474
0.000137856
0.000284788
0.000214381
0.000310498
0.000188327
0.000313583
9.02239e-05
0.000322842
0.00013223
0.000334904
7.08358e-05
0.000309619
6.81634e-05
0.000289784
8.24743e-05
0.000293236
7.99049e-06
0.00029815
-6.53782e-06
0.000293944
-2.80083e-05
0.000318846
-5.026e-05
-4.43738e-05
0.000224583
1.37052e-05
0.000353668
2.69088e-05
0.0001737
3.44321e-05
0.000181506
5.12377e-05
0.000169689
8.57607e-05
0.000176338
0.000107036
0.000169226
0.00012998
0.000164745
0.000147868
0.000155304
0.000169461
0.000135784
0.000195893
0.000263572
0.000102563
0.000231185
0.000207858
0.000109086
0.000280616
0.000115569
0.00024039
0.000130451
0.000244172
0.000128447
0.000201355
0.000113652
0.000214386
5.5133e-05
0.000287942
8.91797e-06
0.000280778
1.51545e-05
0.000281867
-7.62725e-06
0.000295277
-4.14177e-05
0.000322812
-7.7795e-05
-0.000106424
0.000384862
2.7901e-05
0.000325767
3.78857e-05
0.000163715
5.25386e-05
0.000166853
6.65066e-05
0.000155721
8.6678e-05
0.000156167
0.000102649
0.000153255
0.000119633
0.000147761
0.000133526
0.00014141
0.000148907
0.000120403
0.000176984
0.000235495
0.000187112
0.000221058
0.000193046
0.000103151
0.000210597
9.80181e-05
0.000216965
0.000124082
0.000218891
0.000126522
0.00027356
5.8983e-05
0.000261959
6.67337e-05
0.000262069
8.80779e-06
0.000259387
1.78374e-05
0.000275415
-2.36558e-05
0.000288437
-5.44401e-05
0.000296383
-8.57401e-05
-0.000152713
0.000342672
3.43134e-05
0.000291454
3.8609e-05
0.00015942
5.0676e-05
0.000154786
6.18066e-05
0.00014459
7.48328e-05
0.000143141
8.72387e-05
0.000140849
0.000102118
0.000132882
0.000113267
0.000130261
0.000122
0.00011167
0.000144921
0.000212574
0.00015791
0.000208069
0.000154922
0.000106139
0.000159263
9.36777e-05
0.000200121
8.32234e-05
0.000201153
0.00012549
0.000136921
0.000123215
0.000147791
5.5864e-05
0.000147237
9.36118e-06
0.000199415
-3.43401e-05
0.000196899
-2.114e-05
0.000203066
-6.06069e-05
0.000219135
-0.000101809
-7.71066e-05
0.000143529
7.90656e-05
0.000212388
6.64417e-05
0.000172044
6.20168e-05
0.000159211
6.19248e-05
0.000144682
6.63513e-05
0.000138714
7.07311e-05
0.000136469
7.25053e-05
0.000131108
7.2811e-05
0.000129955
5.84549e-05
0.000126026
0.00014615
0.000124879
0.000155545
0.000198674
0.000152848
0.000108836
0.0001539
9.2626e-05
0.000151607
8.55163e-05
0.000153846
0.00012325
0.000202358
7.4704e-05
0.000214494
4.37275e-05
0.00019191
3.19454e-05
0.000170949
-1.33791e-05
0.000169153
-1.93442e-05
0.000181105
-7.2559e-05
0.000201013
-0.000121717
-0.000159207
0.000283114
2.1131e-05
0.000191257
3.95836e-05
0.000153591
4.67747e-05
0.00015202
5.28535e-05
0.000138604
5.77916e-05
0.000133776
6.48691e-05
0.000129392
7.20067e-05
0.00012397
8.21497e-05
0.000119812
9.59485e-05
0.000112227
0.000114567
0.00010626
0.000127677
0.000185564
0.00012885
0.000107663
0.000137737
8.37395e-05
0.000147009
7.6244e-05
0.000151246
0.000119014
0.000135708
9.02419e-05
8.05914e-05
9.88439e-05
8.48521e-05
2.76847e-05
7.57639e-05
-4.29085e-06
0.000131924
-7.55039e-05
0.000195727
-0.000136362
0.000219984
-0.000145975
-0.000149856
0.000210632
2.33139e-05
0.000167943
3.50674e-05
0.000141838
4.39853e-05
0.000143102
4.95131e-05
0.000133076
5.41668e-05
0.000129122
5.77684e-05
0.00012579
6.06269e-05
0.000121112
6.20773e-05
0.000118362
6.33344e-05
0.00011097
6.12302e-05
0.000108364
0.000143876
0.000102918
0.000101759
0.00014978
0.000109685
7.58137e-05
6.35247e-05
0.000122404
6.15922e-05
0.000120946
6.6494e-05
8.53401e-05
0.000120962
4.43764e-05
0.000129411
1.92354e-05
0.000131825