/*--------------------------------*- C++ -*----------------------------------*\
| =========                 |                                                 |
| \\      /  F ield         | foam-extend: Open Source CFD                    |
|  \\    /   O peration     | Version:     4.1                                |
|   \\  /    A nd           | Web:         http://www.foam-extend.org         |
|    \\/     M anipulation  |                                                 |
\*---------------------------------------------------------------------------*/
FoamFile
{
    version     2.0;
    format      ascii;
    class       volScalarField;
    location    "0.45";
    object      alpha1;
}
// * * * * * * * * * * * * * * * * * * * * * * * * * * * * * * * * * * * * * //

dimensions      [0 0 0 0 0 0 0];

internalField   nonuniform List<scalar> 
2268
(
1
1
1
1
1
1
1
1
1
1
1
1
1
1
1
1
1
1
1
1
1
1
0.999875
1
1
1
1
1
1
1
1
1
0.999774
0.999395
0.999521
0.999785
1
1
1
1
1
1
1
1
1
0.999889
1
1
1
1
1
1
1
1
0.999483
0.9978
0.997646
0.998134
0.998875
0.999466
0.999831
1
1
1
1
1
1
1
0.999924
0.999275
0.999032
0.99856
0.998881
0.998655
0.999063
0.99927
0.998576
0.996009
0.993826
0.994145
0.995423
0.99699
0.998163
0.998914
0.999388
0.999654
0.999762
0.999914
1
1
1
0.999984
0.996152
0.995608
0.994644
0.995244
0.994659
0.995307
0.995228
0.9929
0.987969
0.986288
0.987544
0.990285
0.993206
0.995411
0.996879
0.998005
0.998722
0.999071
0.999407
0.999869
1
1
1
0.988444
0.987397
0.985627
0.986559
0.985191
0.985794
0.984863
0.978958
0.972277
0.972154
0.97522
0.98052
0.985765
0.989882
0.992692
0.995149
0.996858
0.997737
0.998399
0.999241
0.999974
1
1
0.971405
0.969619
0.966589
0.967528
0.964572
0.963857
0.960908
0.949358
0.942715
0.945271
0.952222
0.961928
0.971394
0.97914
0.98451
0.989553
0.99331
0.995263
0.996532
0.997957
0.999182
1
1
0.936388
0.933603
0.928615
0.928042
0.922219
0.916395
0.909831
0.893505
0.888079
0.894652
0.908806
0.92659
0.944075
0.958701
0.96913
0.979044
0.986774
0.990786
0.99324
0.995626
0.997568
0.999335
0.999783
0.0490402
0.0541878
0.057727
0.066086
0.0778739
0.0934254
0.106857
0.120264
0.131027
0.141587
0.152175
0.163812
0.179771
0.205987
0.2361
0.277249
0.29927
0.312479
0.320363
0.0470567
0.0448848
0.0339367
0.0328846
0.0381084
0.056514
0.072
0.0932907
0.107165
0.117924
0.127232
0.13743
0.147171
0.170866
0.205044
0.261012
0.290463
0.313672
0.333209
0.0441538
0.0345337
0.0179163
0.0135262
0.0155061
0.0281239
0.0404809
0.0643656
0.0799636
0.0891847
0.0950792
0.107724
0.120119
0.14147
0.172123
0.22576
0.253276
0.298675
0.338174
0.0421118
0.0322899
0.0171147
0.00951548
0.0089742
0.0141094
0.0191805
0.0369848
0.0547568
0.0624977
0.0630445
0.0781532
0.0995106
0.120206
0.144046
0.181414
0.183827
0.264457
0.338223
0.0411167
0.0319842
0.0184725
0.0139612
0.0167405
0.0186668
0.0166868
0.0201342
0.0351734
0.0421324
0.0366577
0.0506709
0.0811164
0.101368
0.123757
0.147213
0.125464
0.217932
0.337299
0.0369698
0.0247063
0.0166793
0.0272916
0.0411767
0.0388842
0.0268318
0.015818
0.0235219
0.0283962
0.0202109
0.0321641
0.0668536
0.084278
0.110824
0.124486
0.0967595
0.177108
0.338502
0.0211232
0.014715
0.0384996
0.0680694
0.0805388
0.0643132
0.0395232
0.017859
0.0184309
0.0200878
0.0118773
0.0215094
0.0570704
0.0714278
0.0973939
0.109368
0.0840228
0.146003
0.341291
0.0372275
0.0529359
0.13402
0.155158
0.123152
0.0770328
0.0480931
0.0223594
0.0171875
0.0158045
0.00818525
0.015515
0.0502757
0.0632108
0.0823663
0.0990944
0.078373
0.129015
0.346155
0.834449
0.829552
0.819976
0.811085
0.799053
0.773342
0.762873
0.742099
0.740237
0.75604
0.78761
0.82696
0.866999
0.901098
0.926701
0.950067
0.968885
0.978727
0.98481
0.989686
0.993288
0.996433
0.999363
0.518465
0.509659
0.491419
0.450428
0.442363
0.398233
0.387527
0.368041
0.37019
0.392132
0.440599
0.519956
0.616645
0.708727
0.782862
0.848775
0.903784
0.935555
0.9585
0.974557
0.98235
0.987577
0.99415
0.164843
0.161584
0.153722
0.132783
0.132823
0.117246
0.111782
0.104552
0.107466
0.117441
0.138771
0.179516
0.239342
0.322253
0.425246
0.55269
0.689076
0.791259
0.874243
0.928575
0.951062
0.962657
0.977383
0.0454195
0.044836
0.042809
0.0373983
0.0374945
0.0329013
0.0308629
0.028838
0.0310495
0.0361518
0.0458329
0.0586777
0.0779385
0.113012
0.160914
0.225378
0.322256
0.450021
0.624467
0.775653
0.858027
0.889047
0.920157
0.0137231
0.0136067
0.0130746
0.0118504
0.0116021
0.0101582
0.00951844
0.00901424
0.0102737
0.012781
0.0168248
0.0204006
0.0249386
0.0381142
0.0551967
0.0769165
0.104506
0.160483
0.283403
0.465078
0.664198
0.735425
0.765689
0.00444774
0.0043972
0.00420063
0.00385299
0.00368217
0.00317872
0.00303083
0.00296866
0.00357696
0.00461411
0.00629818
0.00731198
0.00821239
0.0138434
0.0176991
0.0260489
0.0345243
0.0550862
0.108964
0.210649
0.386958
0.382934
0.388231
0.00133133
0.001304
0.00121245
0.00108401
0.00100801
0.00083167
0.000825215
0.000863976
0.00109567
0.00148434
0.00208959
0.00235038
0.00269886
0.00466238
0.00493969
0.00661967
0.0090043
0.0135869
0.0296131
0.0516189
0.101767
0.101833
0.108993
0.000284924
0.000260503
0.000218563
0.000183163
0.000152372
0.00010324
9.25584e-05
9.56433e-05
0.000114591
0.000194661
0.00032109
0.000361504
0.000489196
0.00106497
0.00118973
0.001432
0.00223831
0.00350436
0.00817465
0.0120173
0.0197815
0.0205102
0.0236147
0
0
0
0
0
0
0
0
0
0
0
0
0
5.80561e-05
8.11113e-05
0.000229913
0.000586087
0.00107871
0.00240706
0.00307944
0.00246199
0.002284
0.00380388
0
0
0
0
0
0
0
0
0
0
0
0
0
0
0
0
0.000120391
0.00026005
0.000473089
0.000353491
0
0
0.000719959
0
0
0
0
0
0
0
0
0
0
0
0
0
0
0
0
0
0
0
0
0
0
0.000335543
0
0
0
0
0
0
0
0
0
0
0
0
0
0
0
0
0
0
0
0
0
0
0
0
0
0
0
0
0
0
0
0
0
0
0
0
0
0
0
0
0
0
0
0
0
0
0
0
0
0
6.88408e-07
0
0
0
0
0
0
0
0
0
0
0
0
0
0
0
0
0
0
0
1.93804e-07
5.59665e-07
5.58285e-07
1.27183e-06
1.51091e-06
0
0
0
0
0
0
0
0
0
0
0
0
0
2.08058e-07
4.55973e-07
0
0
4.82447e-07
4.75802e-07
4.67518e-07
4.9899e-07
7.92858e-07
1.2143e-06
1.34442e-06
6.84148e-07
0
0
0
0
0
0
0
9.38951e-08
9.3296e-08
2.55886e-07
5.96792e-07
7.72114e-07
1.13724e-06
1.16371e-06
0
2.28135e-07
1.61432e-07
1.61479e-07
1.89441e-07
2.84927e-07
5.36914e-07
8.95219e-07
1.01488e-06
8.62979e-07
4.39909e-07
0
0
0
0
1.48638e-07
2.55517e-07
2.20702e-07
1.8067e-07
1.6775e-07
1.623e-07
2.42252e-07
4.21371e-07
7.83752e-07
3.6789e-08
1.50768e-08
2.20268e-08
3.46623e-08
5.50037e-08
1.43374e-07
3.43743e-07
5.07996e-07
4.56295e-07
3.96173e-07
2.56456e-07
6.78263e-08
1.05715e-07
1.29555e-07
1.12314e-07
9.1447e-08
6.02947e-08
3.18631e-08
1.42814e-08
7.6263e-09
1.27992e-08
3.58474e-08
1.62289e-07
0
0
0
0
0
1.60205e-08
8.35878e-08
1.47429e-07
1.17131e-07
1.18194e-07
1.48048e-07
1.37703e-07
1.1899e-07
7.2625e-08
3.09839e-08
1.39094e-08
5.8929e-09
2.56214e-10
0
0
0
0
1.00144e-08
0
0
0
0
0
0
3.05991e-09
1.81476e-08
8.72974e-09
1.20446e-08
4.22464e-08
6.37575e-08
4.43007e-08
1.93809e-08
3.13664e-09
0
0
0
0
0
0
0
0
0
0
0
0
0
0
0
0
0
0
3.55346e-09
1.3207e-08
8.06554e-09
1.68183e-09
0
0
0
0
0
0
0
0
7.95815e-10
0
0
0
0
0
0
0
0
0
0
0
7.71631e-10
0
0
0
0
0
0
0
0
0
3.56661e-10
1.5343e-09
0
2.49376e-11
8.02611e-11
4.88051e-11
0
0
0
0
0
0
0
0
0
0
0
0
1.36045e-11
6.03334e-12
0
0
1.82265e-11
6.60446e-10
2.39609e-09
0
2.0538e-11
4.10373e-11
5.42671e-11
6.02646e-11
3.42537e-12
0
0
0
0
0
0
0
0
0
1.61225e-11
1.14392e-11
0
0
0
1.82854e-11
9.2595e-10
3.51424e-09
3.50708e-12
6.82698e-12
1.01423e-11
1.76226e-11
3.07152e-11
3.68043e-11
2.78939e-11
9.97241e-12
2.10776e-11
4.56887e-11
0
0
0
4.47975e-14
1.12706e-11
8.84437e-12
3.60739e-12
0
0
0
0
6.21067e-10
3.61886e-09
1.48959e-12
6.2883e-13
3.49831e-13
1.87178e-12
6.11255e-12
1.11839e-11
1.51243e-11
1.45819e-11
1.61772e-11
2.02463e-11
1.40407e-11
1.7395e-12
6.63825e-12
8.00104e-12
4.6258e-12
2.60392e-12
1.33704e-12
0
0
0
0
3.1594e-10
3.26462e-09
1.05471e-15
0
0
0
0
9.30644e-13
2.47757e-12
2.94831e-12
2.9971e-12
3.46817e-12
4.34736e-12
3.55177e-12
3.57292e-12
2.19325e-12
7.74603e-13
1.19982e-12
1.18261e-12
0
0
0
0
5.23754e-11
2.2979e-09
0
0
0
0
0
0
0
0
0
0
1.61648e-13
3.5838e-13
3.74922e-13
8.49876e-14
3.23797e-13
1.81333e-12
9.50851e-13
0
0
0
0
7.66074e-11
1.74539e-09
0
0
0
0
0
0
0
0
0
0
0
0
0
0
8.32945e-13
3.08464e-12
2.28151e-13
0
0
0
1.15543e-10
6.59966e-10
2.50602e-09
8.49321e-15
1.38223e-14
1.42664e-14
1.27676e-14
3.10862e-15
0
0
0
0
0
0
0
0
2.0095e-13
1.69487e-12
4.49912e-12
0
0
0
0
6.47472e-10
2.08798e-09
5.45754e-09
2.33147e-15
9.49241e-15
6.93889e-15
9.9365e-15
9.04832e-15
6.21725e-15
4.88498e-15
5.27356e-15
6.60583e-15
7.21645e-15
1.11022e-15
0
0
5.29188e-13
3.06433e-12
5.61307e-12
0
0
0
1.68608e-11
1.57581e-09
5.003e-09
1.17787e-08
1.66533e-15
6.32827e-15
6.77236e-15
6.77236e-15
1.94289e-15
1.9984e-15
4.71845e-15
5.05151e-15
7.43849e-15
7.04992e-15
0
0
0
8.03024e-13
4.41691e-12
6.15547e-12
0
0
0
1.42181e-12
2.64374e-09
8.11527e-09
1.62531e-08
9.4369e-16
4.66294e-15
2.27596e-15
2.83107e-15
2.83107e-15
3.55271e-15
6.05072e-15
5.66214e-15
6.99441e-15
6.55032e-15
0
0
0
1.1694e-12
5.95923e-12
4.59305e-12
0
0
0
2.68388e-10
5.47616e-09
1.29625e-08
1.73989e-08
4.27436e-15
3.38618e-15
2.16493e-15
1.27676e-15
2.66454e-15
3.9968e-15
4.88498e-15
8.32667e-15
6.93889e-15
6.77236e-15
0
0
5.27356e-14
2.02527e-12
8.54805e-12
2.83146e-12
0
0
0
7.30351e-10
9.03215e-09
1.60237e-08
5.91812e-09
2.88658e-15
5.10703e-15
4.27436e-15
3.94129e-15
2.498e-15
3.10862e-15
4.21885e-15
6.43929e-15
6.82787e-15
5.71765e-15
0
0
8.01581e-14
2.55918e-12
1.01144e-11
0
0
0
0
1.83704e-09
1.4251e-08
1.46791e-08
0
2.55351e-15
6.60583e-15
5.93969e-15
3.9968e-15
4.71845e-15
5.21805e-15
4.10783e-15
8.49321e-15
7.43849e-15
6.27276e-15
0
0
1.18738e-13
2.97201e-12
1.0724e-11
0
0
0
0
4.0773e-09
1.98774e-08
1.12705e-08
0
3.05311e-15
4.71845e-15
6.27276e-15
3.27516e-15
3.88578e-15
1.60982e-15
4.10783e-15
8.32667e-15
6.88338e-15
5.27356e-15
0
0
2.70617e-13
3.8326e-12
1.13339e-11
0
0
0
2.79628e-10
8.23945e-09
2.77813e-08
2.24481e-09
0
2.72005e-15
3.71925e-15
4.4964e-15
3.94129e-15
2.9976e-15
1.88738e-15
4.88498e-15
8.32667e-15
6.99441e-15
3.27516e-15
0
0
3.79863e-13
4.56168e-12
1.20217e-11
0
0
0
1.13637e-09
1.25244e-08
3.40435e-08
0
0
1.83187e-15
3.27516e-15
3.71925e-15
4.71845e-15
4.38538e-15
5.16254e-15
2.94209e-15
8.32667e-15
7.49401e-15
2.38698e-15
0
0
6.28997e-13
5.26751e-12
8.6281e-12
0
0
0
2.83586e-09
1.83767e-08
3.8966e-08
0
0
1.55431e-15
2.10942e-15
2.72005e-15
2.27596e-15
4.996e-15
5.66214e-15
5.93969e-15
9.32587e-15
1.2601e-14
5.38458e-15
0
0
7.67997e-13
5.65398e-12
3.97937e-12
0
0
0
5.77499e-09
2.68303e-08
4.48344e-08
0
0
2.60902e-15
2.77556e-15
3.71925e-15
3.77476e-15
1.60982e-15
3.94129e-15
5.77316e-15
8.49321e-15
1.44329e-14
5.27356e-15
0
0
9.35141e-13
6.08713e-12
9.04166e-13
0
0
7.3259e-11
8.71225e-09
3.5047e-08
5.50509e-08
0
0
4.32987e-15
3.88578e-15
1.44329e-15
1.94289e-15
8.32667e-16
6.77236e-15
7.10543e-15
9.10383e-15
9.99201e-15
8.88178e-16
0
0
8.30558e-13
5.94153e-12
4.83558e-13
0
0
3.42342e-10
1.07437e-08
3.97552e-08
5.97947e-08
0
0
1
1
1
0.878985
1
1
1
1
0.98655
0.992301
0.998173
1
0.937806
0.946264
0.954654
0.962017
0.794911
0.811745
0.828481
0.844252
0.404344
0.422917
0.453899
0.501533
0.120388
0.131078
0.147264
0.177038
0.0327447
0.0398654
0.0479135
0.0584698
0.0086665
0.0120796
0.0160558
0.0208442
0.00284002
0.00393796
0.00500904
0.00575828
0.000836895
0.000987869
0.00106471
0.00109482
0.000427501
0.00115335
0.00229501
0.00386931
0
3.84443e-05
0.000387256
0.000761896
0
0
0
0
0
0
0
0
0
0
0
0
9.42466e-07
7.47301e-07
1.43712e-07
0
2.70225e-07
3.3356e-07
3.53433e-07
2.67412e-07
2.8787e-08
5.1261e-08
8.21971e-08
9.15536e-08
1.19353e-10
2.75603e-09
7.5024e-09
8.17457e-09
1.18368e-09
9.9773e-10
0
0
2.4218e-09
2.25417e-09
6.38692e-10
0
3.87042e-09
4.09215e-09
2.86485e-09
0
6.03336e-09
7.00177e-09
6.45382e-09
3.85664e-09
7.67512e-09
9.97303e-09
1.0615e-08
8.46803e-09
8.18006e-09
1.10299e-08
1.11552e-08
5.81306e-09
7.40332e-09
1.13861e-08
1.33761e-08
9.63206e-09
6.67622e-09
1.15971e-08
1.62392e-08
1.69263e-08
7.52517e-09
1.29689e-08
1.89519e-08
2.17329e-08
1.22145e-08
1.9082e-08
2.59549e-08
2.72988e-08
2.29976e-08
3.16967e-08
3.5552e-08
2.49484e-08
2.92898e-08
3.85287e-08
3.92215e-08
1.87381e-08
2.52325e-08
2.43253e-08
2.21684e-09
0
0
0
0
0
0
0
0
0
0
0
0
0
0
0
0
0
0
0
0
0
0
0
0
0
0
0
0
0
0
0
0
0
0
0
0
0
0.310986
0.339786
0.429415
0.311624
0.162824
0.0861217
0.0505121
0.0266566
0.0174017
0.0125309
0.00507932
0.00991757
0.0415931
0.0565603
0.0636124
0.0882398
0.0729425
0.112917
0.355962
0.93565
0.880592
0.796086
0.386878
0.291588
0.168729
0.0664533
0.0135035
0.0142501
0.0106634
0.00384506
0.00514147
0.0326843
0.0527987
0.0469968
0.0662732
0.0587029
0.102324
0.375241
1
0.996767
0.973231
0.865726
0.759136
0.540607
0.225969
0.0123271
0.00481746
0.00437474
0.00133355
0.00192104
0.0310638
0.0524623
0.0300176
0.0478184
0.0726122
0.170101
0.407139
0.9697
0.976524
0.980806
0.968729
0.931551
0.863557
0.658032
0.120781
0.0174228
0
0
0
0.0388057
0.0706953
0.0469103
0.103184
0.261253
0.446606
0.533179
0.87895
0.867608
0.896158
0.912142
0.914741
0.921216
0.890346
0.629282
0.321425
0.0679718
0
0
0.0391639
0.106015
0.0777239
0.125583
0.332644
0.540404
0.557315
0.63946
0.541889
0.638248
0.596031
0.646474
0.753601
0.826798
0.818577
0.736156
0.450025
0.116211
0.0381604
0.0664039
0.135118
0.175916
0.254367
0.421243
0.571291
0.575711
0.288178
0.253786
0.221309
0.17636
0.215356
0.336966
0.516397
0.625428
0.739296
0.659687
0.437858
0.25538
0.252009
0.303232
0.45327
0.620848
0.685489
0.670659
0.597231
0.0855691
0.0746881
0.057222
0.0470973
0.0617225
0.11635
0.21702
0.303082
0.564858
0.584927
0.525104
0.485181
0.476291
0.480787
0.53225
0.645281
0.694428
0.668388
0.584651
0.0255243
0.0124688
0.0089695
0.00763708
0.0190791
0.0470619
0.0900297
0.12662
0.226164
0.32883
0.369721
0.38513
0.401736
0.434759
0.513459
0.62597
0.68163
0.65679
0.555506
0.004845
0.00021413
0.00072257
0.00401608
0.0131867
0.0290852
0.0563031
0.0893272
0.133121
0.166411
0.175797
0.211457
0.240253
0.275933
0.427654
0.576507
0.66146
0.63767
0.519705
0.000977768
0.00114475
0.00444806
0.00948081
0.0175341
0.0296676
0.0494821
0.0746086
0.103519
0.131546
0.162407
0.216137
0.24129
0.244113
0.331697
0.494193
0.635255
0.623512
0.495092
0.00702693
0.0128593
0.0195074
0.0269956
0.0378777
0.0494248
0.0625923
0.0800035
0.0966423
0.117872
0.1771
0.257228
0.34065
0.388336
0.409314
0.535384
0.648067
0.626503
0.481391
0.00138393
0.00212831
0.00364434
0.00813108
0.0166458
0.0291587
0.0474119
0.0603622
0.0676238
0.0734998
0.111248
0.216095
0.363317
0.495698
0.553009
0.610483
0.661635
0.62574
0.469899
2.74653e-05
0
0.000295991
0.00183865
0.00545572
0.0140598
0.0255642
0.0308546
0.0269099
0.0241836
0.0404225
0.0891367
0.184913
0.374822
0.508455
0.568295
0.637234
0.60891
0.453252
0
0
3.5261e-05
0.000630845
0.0026166
0.00712457
0.0109812
0.0123796
0.011237
0.0129949
0.0264999
0.0543285
0.116571
0.210977
0.328684
0.414306
0.533433
0.558291
0.428297
0
0
0
8.2609e-05
0.000609298
0.00204833
0.00370034
0.00415294
0.00419426
0.00619575
0.0152331
0.0329236
0.0594601
0.098491
0.192331
0.289688
0.418586
0.486484
0.395703
0
0
0
0
5.66305e-05
0.000301445
0.000934275
0.00128903
0.00251453
0.00529287
0.0119362
0.0234432
0.0372786
0.0655164
0.128968
0.221548
0.349283
0.416566
0.35911
3.73971e-09
4.96164e-07
0
0
0
1.47584e-05
0.000175515
0.00043061
0.00132529
0.00327477
0.00779114
0.0126325
0.0205031
0.0374219
0.0801309
0.159029
0.294075
0.357987
0.326695
8.69117e-08
1.61815e-07
1.56492e-07
0
0
0
1.24037e-05
7.97255e-05
0.000340192
0.000746139
0.00249896
0.00620103
0.012682
0.0262246
0.0553658
0.124511
0.25774
0.31281
0.300992
6.09716e-09
1.42045e-09
0
3.53817e-08
0
0
0
4.65911e-06
5.11335e-05
0.000134773
0.000811796
0.00328429
0.0073251
0.0163798
0.0405113
0.11158
0.237653
0.283277
0.280223
0
0
0
4.66027e-08
1.27598e-07
0
0
0
2.20855e-06
7.31801e-05
0.000888567
0.00300824
0.00516592
0.0115994
0.0286932
0.0859029
0.207059
0.261952
0.262064
0
0
0
8.33661e-08
4.73105e-07
1.01874e-06
2.01352e-06
8.78372e-07
0
4.88044e-05
0.000660545
0.00225581
0.00350229
0.00793923
0.0204513
0.0619199
0.16643
0.244611
0.245457
0
0
0
9.66271e-08
5.70465e-07
1.87957e-06
4.8331e-06
6.99866e-06
1.68542e-06
3.25274e-05
0.000323939
0.000638681
0.0017531
0.00619177
0.0157659
0.0409313
0.119021
0.226165
0.229451
0
0
0
0
3.04071e-07
1.58273e-06
5.93069e-06
1.47819e-05
1.13744e-05
2.26275e-05
0.000122248
0.0002982
0.00160466
0.00578666
0.0137717
0.0289477
0.0846195
0.206062
0.214408
0
0
0
0
0
1.1601e-06
5.71585e-06
1.63371e-05
2.05991e-05
2.26371e-05
7.14939e-05
0.000584625
0.00305237
0.0074612
0.0135526
0.0247844
0.0667319
0.186258
0.200955
0
0
0
0
0
0
3.11318e-06
1.38029e-05
2.50717e-05
3.16698e-05
0.000104149
0.000639979
0.00275644
0.00725252
0.0136027
0.0229644
0.0572486
0.168598
0.188849
0
0
0
0
0
0
3.92179e-06
1.65689e-05
3.27474e-05
4.53952e-05
0.000132474
0.000613532
0.00247074
0.00649175
0.0123385
0.021213
0.05102
0.155457
0.178937
5.86677e-09
0
0
0
0
0
3.35976e-08
1.09396e-05
3.48948e-05
6.82015e-05
0.000199647
0.000720847
0.0021593
0.00535832
0.011362
0.0197223
0.0433434
0.135608
0.169173
1.52128e-08
0
0
0
0
0
0
1.30354e-05
3.89773e-05
9.06657e-05
0.000282915
0.000960131
0.00240173
0.00484919
0.0105485
0.0183945
0.038414
0.118937
0.160539
1.24775e-08
0
0
0
0
0
1.513e-06
2.38596e-05
5.55321e-05
0.000125878
0.00030663
0.000740668
0.00164908
0.00442414
0.0109514
0.0174306
0.0343619
0.104669
0.151738
0
0
0
0
0
0
4.14786e-07
1.5344e-05
4.75288e-05
0.000114365
0.000265312
0.000522289
0.0014018
0.00465466
0.0106793
0.0167319
0.0325652
0.0964851
0.144696
0
0
0
0
0
0
0
4.49846e-06
3.13462e-05
9.50565e-05
0.000218038
0.000411396
0.00113091
0.0037564
0.0097691
0.0175213
0.0327067
0.085941
0.136696
0
0
0
0
0
0
0
2.99888e-06
2.59071e-05
7.16672e-05
0.000158028
0.000437831
0.00163868
0.00538643
0.01216
0.0199696
0.0400923
0.0839887
0.131125
0
0
0
0
0
0
0
3.14658e-06
1.50878e-05
4.75914e-05
0.000141001
0.000489928
0.00178385
0.00549478
0.0123809
0.0175628
0.0293567
0.0673276
0.124073
0
0
0
0
0
0
3.35875e-06
7.67288e-06
1.57063e-05
3.64017e-05
0.000109978
0.00041849
0.00161931
0.00556425
0.0128103
0.0164853
0.0234165
0.0558274
0.117308
0
0
0
0
0
2.38219e-06
1.06972e-05
1.77879e-05
2.24218e-05
3.46458e-05
8.82696e-05
0.000351132
0.00131763
0.00449673
0.0112891
0.0146608
0.0191399
0.0468303
0.108691
0
0
0
0
1.88088e-06
6.8603e-06
1.71315e-05
3.17035e-05
3.77946e-05
4.6074e-05
8.53605e-05
0.000266715
0.00097462
0.00358193
0.00969056
0.0143105
0.024816
0.0666285
0.105198
0
0
0
6.11688e-06
1.23922e-05
1.82205e-05
2.94373e-05
4.88956e-05
5.70341e-05
6.81651e-05
9.53763e-05
0.000192955
0.000570895
0.00208207
0.00641497
0.0120018
0.0212776
0.0558972
0.0984028
0
0
5.35821e-06
2.61227e-05
3.5911e-05
4.98517e-05
6.55375e-05
8.07707e-05
9.02763e-05
0.000108687
0.000134353
0.000191668
0.000380044
0.00126926
0.00438189
0.010137
0.0178646
0.0438501
0.0897133
0
0
1.41284e-05
5.08954e-05
7.50175e-05
0.000107859
0.000136475
0.000133281
0.000144207
0.000181564
0.000221088
0.000246362
0.000328048
0.000580619
0.00162046
0.00660874
0.0136932
0.0335595
0.079343
0
8.85024e-07
2.61233e-05
6.65408e-05
0.000111832
0.000147694
0.000191762
0.000193563
0.000200298
0.000215537
0.000223052
0.000234094
0.000256886
0.000318009
0.000678076
0.00292091
0.00767388
0.0206051
0.064386
0
1.97174e-06
3.50856e-05
7.86962e-05
0.000136531
0.000185464
0.000217001
0.000211817
0.00020934
0.000197718
0.000185854
0.000183511
0.000191615
0.000207681
0.000221262
0.000441595
0.00170649
0.00520754
0.0343927
)
;

boundaryField
{
    leftWall
    {
        type            zeroGradient;
    }
    rightWall
    {
        type            zeroGradient;
    }
    lowerWall
    {
        type            zeroGradient;
    }
    atmosphere
    {
        type            inletOutlet;
        inletValue      uniform 0;
        value           nonuniform List<scalar> 
46
(
4.32987e-15
3.88578e-15
1.44329e-15
1.94289e-15
8.32667e-16
6.77236e-15
7.10543e-15
9.10383e-15
9.99201e-15
8.88178e-16
0
0
8.30558e-13
5.94153e-12
4.83558e-13
0
0
3.42342e-10
1.07437e-08
3.97552e-08
5.97947e-08
0
0
0
0
0
0
0
1.97174e-06
3.50856e-05
7.86962e-05
0.000136531
0.000185464
0.000217001
0.000211817
0.00020934
0.000197718
0.000185854
0.000183511
0.000191615
0.000207681
0.000221262
0.000441595
0.00170649
0.00520754
0.0343927
)
;
    }
    defaultFaces
    {
        type            empty;
    }
}


// ************************************************************************* //
