/*--------------------------------*- C++ -*----------------------------------*\
| =========                 |                                                 |
| \\      /  F ield         | foam-extend: Open Source CFD                    |
|  \\    /   O peration     | Version:     4.1                                |
|   \\  /    A nd           | Web:         http://www.foam-extend.org         |
|    \\/     M anipulation  |                                                 |
\*---------------------------------------------------------------------------*/
FoamFile
{
    version     2.0;
    format      ascii;
    class       volScalarField;
    location    "0.45";
    object      C;
}
// * * * * * * * * * * * * * * * * * * * * * * * * * * * * * * * * * * * * * //

dimensions      [0 0 0 0 0 0 0];

internalField   nonuniform List<scalar> 
2268
(
1.00092
1.00092
1.0009
1.00098
1.001
1.00109
1.00133
1.00171
1.00176
1.00091
1.0001
1.00009
1.00024
1.00047
1.00062
1.00063
1.0006
1.00057
1.00056
1.00058
1.00053
1.00026
0.99975
1.00099
1.00095
1.00083
1.00097
1.00095
1.00113
1.00146
1.00175
1.0013
0.999548
0.99879
0.999042
0.999571
1.00009
1.00041
1.0005
1.00051
1.00048
1.00051
1.00057
1.00057
1.00031
0.999779
1.0006
1.00042
1.00003
1.00034
1.0002
1.00061
1.00106
1.00093
0.998967
0.9956
0.995292
0.996268
0.997751
0.998931
0.999662
1.00001
1.00017
1.0002
1.0003
1.00051
1.00064
1.00041
0.999848
0.998551
0.998064
0.997119
0.997761
0.997309
0.998126
0.998539
0.997151
0.992018
0.987652
0.988291
0.990846
0.99398
0.996327
0.997828
0.998776
0.999308
0.999524
0.999828
1.00029
1.00068
1.00054
0.999969
0.992303
0.991217
0.989288
0.990488
0.989317
0.990613
0.990455
0.985799
0.975937
0.972575
0.975088
0.98057
0.986412
0.990823
0.993757
0.996011
0.997444
0.998142
0.998814
0.999738
1.00055
1.00069
1.00014
0.976889
0.974794
0.971255
0.973118
0.970383
0.971588
0.969727
0.957915
0.944553
0.944309
0.950441
0.961041
0.971529
0.979765
0.985383
0.990298
0.993716
0.995473
0.996798
0.998481
0.999947
1.00073
1.00026
0.94281
0.939238
0.933178
0.935055
0.929145
0.927714
0.921815
0.898716
0.88543
0.890543
0.904443
0.923855
0.942788
0.958279
0.969021
0.979107
0.98662
0.990525
0.993063
0.995914
0.998364
1.00031
1.00014
0.872776
0.867205
0.85723
0.856083
0.844438
0.832791
0.819662
0.787009
0.776159
0.789304
0.817611
0.853179
0.888151
0.917402
0.93826
0.958088
0.973547
0.981571
0.986481
0.991252
0.995136
0.99867
0.999565
-0.90192
-0.891624
-0.884546
-0.867828
-0.844252
-0.813149
-0.786285
-0.759473
-0.737947
-0.716827
-0.695649
-0.672376
-0.640459
-0.588027
-0.527799
-0.445503
-0.40146
-0.375041
-0.359274
-0.905887
-0.91023
-0.932127
-0.934231
-0.923783
-0.886972
-0.856
-0.813419
-0.78567
-0.764152
-0.745536
-0.72514
-0.705658
-0.658267
-0.589913
-0.477976
-0.419074
-0.372657
-0.333581
-0.911692
-0.930933
-0.964167
-0.972948
-0.968988
-0.943752
-0.919038
-0.871269
-0.840073
-0.821631
-0.809842
-0.784552
-0.759761
-0.717059
-0.655755
-0.54848
-0.493448
-0.402651
-0.323652
-0.915776
-0.93542
-0.965771
-0.980969
-0.982052
-0.971781
-0.961639
-0.92603
-0.890486
-0.875005
-0.873911
-0.843694
-0.800979
-0.759588
-0.711908
-0.637172
-0.632346
-0.471087
-0.323554
-0.917767
-0.936032
-0.963055
-0.972078
-0.966519
-0.962666
-0.966626
-0.959732
-0.929653
-0.915735
-0.926685
-0.898658
-0.837767
-0.797265
-0.752486
-0.705573
-0.749072
-0.564136
-0.325401
-0.92606
-0.950587
-0.966641
-0.945417
-0.917647
-0.922232
-0.946336
-0.968364
-0.952956
-0.943208
-0.959578
-0.935672
-0.866293
-0.831444
-0.778351
-0.751028
-0.806481
-0.645783
-0.322996
-0.957754
-0.97057
-0.923001
-0.863861
-0.838922
-0.871374
-0.920954
-0.964282
-0.963138
-0.959824
-0.976245
-0.956981
-0.885859
-0.857144
-0.805212
-0.781263
-0.831954
-0.707994
-0.317417
-0.925545
-0.894128
-0.731961
-0.689684
-0.753697
-0.845934
-0.903814
-0.955281
-0.965625
-0.968391
-0.98363
-0.96897
-0.899449
-0.873578
-0.835267
-0.801811
-0.843254
-0.741971
-0.30769
0.668899
0.659105
0.639953
0.622169
0.598105
0.546684
0.525747
0.484198
0.480473
0.51208
0.57522
0.653919
0.733998
0.802195
0.853402
0.900134
0.937771
0.957454
0.969619
0.979371
0.986575
0.992865
0.998727
0.0369293
0.0193184
-0.0171611
-0.0991432
-0.115273
-0.203534
-0.224945
-0.263918
-0.259621
-0.215737
-0.118802
0.0399128
0.233289
0.417453
0.565724
0.697551
0.807567
0.871111
0.917
0.949115
0.9647
0.975153
0.9883
-0.670314
-0.676833
-0.692555
-0.734434
-0.734355
-0.765507
-0.776435
-0.790896
-0.785068
-0.765117
-0.722457
-0.640967
-0.521315
-0.355495
-0.149508
0.10538
0.378151
0.582519
0.748485
0.85715
0.902124
0.925314
0.954767
-0.909161
-0.910328
-0.914382
-0.925203
-0.925011
-0.934197
-0.938274
-0.942324
-0.937901
-0.927696
-0.908334
-0.882645
-0.844123
-0.773976
-0.678171
-0.549243
-0.355488
-0.0999584
0.248934
0.551306
0.716055
0.778093
0.840315
-0.972554
-0.972787
-0.973851
-0.976299
-0.976796
-0.979684
-0.980963
-0.981972
-0.979453
-0.974438
-0.96635
-0.959199
-0.950123
-0.923772
-0.889607
-0.846167
-0.790988
-0.679034
-0.433193
-0.0698445
0.328397
0.470851
0.531378
-0.991105
-0.991206
-0.991599
-0.992294
-0.992636
-0.993643
-0.993938
-0.994063
-0.992846
-0.990772
-0.987404
-0.985376
-0.983575
-0.972313
-0.964602
-0.947902
-0.930951
-0.889828
-0.782072
-0.578701
-0.226084
-0.234132
-0.223538
-0.997337
-0.997392
-0.997575
-0.997832
-0.997984
-0.998337
-0.99835
-0.998272
-0.997809
-0.997031
-0.995821
-0.995299
-0.994602
-0.990675
-0.990121
-0.986761
-0.981991
-0.972826
-0.940774
-0.896762
-0.796466
-0.796334
-0.782013
-0.99943
-0.999479
-0.999563
-0.999634
-0.999695
-0.999794
-0.999815
-0.999809
-0.999771
-0.999611
-0.999358
-0.999277
-0.999022
-0.99787
-0.997621
-0.997136
-0.995523
-0.992991
-0.983651
-0.975965
-0.960437
-0.95898
-0.952771
-1.00006
-1.00009
-1.00011
-1.00011
-1.00012
-1.00014
-1.0002
-1.00031
-1.00041
-1.00044
-1.00044
-1.0004
-1.00028
-0.999884
-0.999838
-0.99954
-0.998828
-0.997843
-0.995186
-0.993841
-0.995076
-0.995432
-0.992392
-1.0002
-1.0002
-1.00019
-1.00019
-1.00017
-1.00017
-1.00026
-1.0004
-1.00053
-1.00058
-1.0006
-1.00059
-1.00054
-1.0004
-1.00029
-1.00003
-0.999759
-0.99948
-0.999054
-0.999293
-1.00068
-1.00066
-0.99856
-1.0002
-1.00017
-1.00013
-1.00013
-1.00009
-1.00009
-1.00018
-1.00034
-1.00046
-1.00051
-1.00053
-1.00054
-1.0005
-1.0004
-1.0003
-1.00016
-1.00012
-1.00015
-1.00028
-1.00065
-1.00101
-1.0004
-0.999329
-1.00012
-1.00008
-1.00005
-1.00005
-1.00003
-1.00004
-1.00011
-1.00024
-1.00032
-1.00036
-1.00038
-1.00039
-1.00035
-1.00027
-1.00022
-1.00019
-1.00021
-1.00028
-1.0004
-1.00051
-1.00055
-1.00048
-1.00022
-1.00005
-1.00003
-1.00001
-1.00002
-1.00001
-1.00001
-1.00006
-1.00013
-1.00018
-1.0002
-1.00023
-1.00023
-1.0002
-1.00013
-1.00011
-1.0001
-1.00011
-1.00013
-1.00014
-1.00018
-1.0002
-1.00037
-1.00053
-1.00001
-1.00001
-1
-1
-0.999999
-1
-1.00002
-1.00005
-1.00007
-1.00009
-1.00011
-1.00012
-1.00011
-1.00006
-1.00004
-1.00003
-1.00003
-1.00003
-1.00003
-1.00003
-1.00004
-1.00015
-1.00032
-1
-1
-0.999999
-0.999999
-0.999997
-0.999997
-1
-1.00001
-1.00002
-1.00003
-1.00004
-1.00005
-1.00005
-1.00002
-1.00001
-1
-1.00001
-1
-1
-1
-0.999999
-1.00002
-1.00007
-0.999999
-0.999999
-0.999999
-0.999999
-0.999998
-0.999998
-0.999997
-0.999999
-1
-1
-1.00001
-1.00001
-1.00001
-1.00001
-1
-1
-1
-0.999999
-0.999999
-0.999998
-0.999998
-0.999998
-1
-1
-1
-1
-1
-0.999999
-0.999999
-0.999998
-0.999998
-0.999998
-0.999999
-1
-1
-1
-1
-1
-0.999999
-1
-1
-1
-1
-1
-0.999999
-0.999998
-1
-1
-1
-1
-1
-1
-0.999999
-0.999999
-0.999999
-0.999999
-0.999999
-1
-1
-1
-1
-1
-1
-1
-1
-1
-1
-1
-1
-1
-1
-1
-1
-1
-1
-1
-1
-1
-1
-1
-1
-1
-1
-1
-1
-1
-1
-1
-1
-1
-1
-1
-1
-1
-1
-1
-1
-1
-1
-1
-1
-1
-1
-1
-1
-1
-1
-1
-1
-1
-1
-1
-1
-1
-1
-1
-1
-1
-1
-1
-1
-1
-1
-1
-1
-1
-1
-1
-1
-1
-1
-1
-1
-1
-1
-1
-1
-1
-1
-1
-1
-1
-1
-1
-1
-1
-1
-1
-1
-1
-1
-1
-1
-1
-1
-1
-1
-1
-1
-1
-1
-1
-1
-1
-1
-1
-1
-1
-1
-1
-1
-1
-1
-1
-1
-1
-1
-1
-1
-1
-1
-1
-1
-1
-1
-1
-1
-1
-1
-1
-1
-1
-1
-1
-1
-1
-1
-1
-1
-1
-1
-1
-1
-1
-1
-1
-1
-1
-1
-1
-1
-1
-1
-1
-1
-1
-1
-1
-1
-1
-1
-1
-1
-1
-1
-1
-1
-1
-1
-1
-1
-1
-1
-1
-1
-1
-1
-1
-1
-1
-1
-1
-1
-1
-1
-1
-1
-1
-1
-1
-1
-1
-1
-1
-1
-1
-1
-1
-1
-1
-1
-1
-1
-1
-1
-1
-1
-1
-1
-1
-1
-1
-1
-1
-1
-1
-1
-1
-1
-1
-1
-1
-1
-1
-1
-1
-1
-1
-1
-1
-1
-1
-1
-1
-1
-1
-1
-1
-1
-1
-1
-1
-1
-1
-1
-1
-1
-1
-1
-1
-1
-1
-1
-1
-1
-1
-1
-1
-1
-1
-1
-1
-1
-1
-1
-1
-1
-1
-1
-1
-1
-1
-1
-1
-1
-1
-1
-1
-1
-1
-1
-1
-1
-1
-1
-1
-1
-1
-1
-1
-1
-1
-1
-1
-1
-1
-1
-1
-1
-1
-1
-1
-1
-1
-1
-1
-1
-1
-1
-1
-1
-1
-1
-1
-1
-1
-1
-1
-1
-1
-1
-1
-1
-1
-1
-1
-1
-1
-1
-1
-1
-1
-1
-1
-1
-1
-1
-1
-1
-1
-1
-1
-1
-1
-1
-1
-1
-1
-1
-1
-1
-1
-1
-1
-1
-1
-1
-1
-1
-1
-1
-1
-1
-1
-1
-1
-1
-1
-1
-1
-1
-1
-1
-1
-1
-1
-1
-1
-1
-1
-1
-1
-1
-1
-1
-1
-1
-1
-1
-1
-1
-1
-1
-1
-1
-1
-1
-1
-1
-1
-1
-1
-1
-1
-1
-1
-1
-1
-1
-1
-1
-1
-1
-1
-1
-1
-1
-1
-1
-1
-1
-1
-1
-1
-1
-1
-1
-1
-1
-1
-1
-1
-1
-1
-1
-1
-1
-1
-1
-1
-1
-1
-1
-1
-1
-1
-1
-1
-1
-1
-1
-1
-1
-1
-1
-1
-1
-1
-1
-1
-1
-1
-1
-1
-1
-1
-1
-1
-1
-1
-1
-1
-1
-1
-1
-1
-1
-1
-1
-1
-1
-1
-1
-1
-1
-1
-1
-1
-1
-1
-1
-1
-1
-1
-1
-1
-1
-1
-1
-1
-1
-1
-1
-1
-1
-1
-1
-1
-1
-1
-1
-1
-1
-1
-1
-1
-1
-1
-1
-1
-1
-1
-1
-1
-1
-1
-1
-1
-1
-1
-1
-1
-1
-1
-1
-1
-1
-1
-1
-1
-1
-1
-1
-1
-1
-1
-1
-1
-1
-1
-1
-1
-1
-1
-1
-1
-1
-1
-1
-1
-1
1.02111
1.04238
1.00834
0.757969
1.00459
1.02151
1.03154
1.00715
0.9731
0.984602
0.996347
1.00462
0.875613
0.892529
0.909309
0.924034
0.589821
0.62349
0.656961
0.688505
-0.191311
-0.154166
-0.0922013
0.0030666
-0.759225
-0.737843
-0.705473
-0.645924
-0.934511
-0.920269
-0.904173
-0.88306
-0.982667
-0.975841
-0.967888
-0.958312
-0.99432
-0.992124
-0.989982
-0.988483
-0.998326
-0.998024
-0.997871
-0.99781
-0.999145
-0.997693
-0.99541
-0.992261
-1.00038
-0.999923
-0.999225
-0.998476
-1.00036
-1.00035
-1.00028
-1.00017
-1.0001
-1.00012
-1.00014
-1.00015
-1.00001
-1.00001
-1.00002
-1.00003
-0.999998
-0.999999
-1
-1
-0.999999
-0.999999
-0.999999
-0.999999
-1
-1
-1
-1
-1
-1
-1
-1
-1
-1
-1
-1
-1
-1
-1
-1
-1
-1
-1
-1
-1
-1
-1
-1
-1
-1
-1
-1
-1
-1
-1
-1
-1
-1
-1
-1
-1
-1
-1
-1
-1
-1
-1
-1
-1
-1
-1
-1
-1
-1
-1
-1
-1
-1
-1
-1
-1
-1
-1
-1
-1
-1
-1
-1
-1
-1
-1
-1
-1
-1
-1
-1
-1
-1
-1
-1.00001
-1
-1
-1.00001
-1.00001
-1
-1.00001
-1.00001
-1.00001
-1.00001
-1.00001
-1.00001
-1.00001
-1.00001
-1.00001
-1.00001
-1.00001
-1.00001
-1.00001
-1.00001
-1.00002
-0.378028
-0.320427
-0.141171
-0.376752
-0.674351
-0.827757
-0.898976
-0.946687
-0.965197
-0.974938
-0.989841
-0.980165
-0.916814
-0.886879
-0.872775
-0.82352
-0.854115
-0.774166
-0.288075
0.8713
0.761184
0.592172
-0.226244
-0.416824
-0.662542
-0.867093
-0.972993
-0.9715
-0.978673
-0.99231
-0.989717
-0.934631
-0.894403
-0.906006
-0.867454
-0.882594
-0.795352
-0.249519
1.00625
0.993533
0.946461
0.731453
0.518272
0.0812141
-0.548061
-0.975346
-0.990365
-0.991251
-0.997333
-0.996158
-0.937872
-0.895075
-0.939965
-0.904363
-0.854776
-0.659798
-0.185722
0.9394
0.953048
0.961611
0.937459
0.863101
0.727113
0.316065
-0.758438
-0.965154
-1.00226
-1.01366
-1.00648
-0.922389
-0.858609
-0.906179
-0.793632
-0.477493
-0.106788
0.0663581
0.757901
0.735216
0.792315
0.824283
0.829482
0.842433
0.780692
0.258564
-0.357149
-0.864056
-1.00406
-1.00128
-0.921672
-0.787969
-0.844552
-0.748833
-0.334711
0.0808074
0.114631
0.27892
0.0837788
0.276496
0.192062
0.292947
0.507202
0.653597
0.637154
0.472313
-0.0999497
-0.767577
-0.923679
-0.867192
-0.729764
-0.648168
-0.491265
-0.157514
0.142583
0.151423
-0.423644
-0.492427
-0.557381
-0.647279
-0.569289
-0.326068
0.032795
0.250857
0.478592
0.319374
-0.124285
-0.489241
-0.495981
-0.393536
-0.0934594
0.241696
0.370977
0.341318
0.194463
-0.828862
-0.850624
-0.885556
-0.905805
-0.876555
-0.7673
-0.565961
-0.393837
0.129715
0.169855
0.050209
-0.0296379
-0.0474189
-0.0384254
0.0644992
0.290563
0.388856
0.336777
0.169303
-0.948951
-0.975062
-0.982061
-0.984726
-0.961842
-0.905876
-0.819941
-0.74676
-0.547672
-0.34234
-0.260557
-0.229741
-0.196527
-0.130482
0.0269185
0.251939
0.36326
0.31358
0.111013
-0.99031
-0.999572
-0.998555
-0.991968
-0.973627
-0.94183
-0.887394
-0.821346
-0.733758
-0.667178
-0.648406
-0.577087
-0.519494
-0.448134
-0.144693
0.153014
0.32292
0.27534
0.0394097
-0.998044
-0.997711
-0.991104
-0.981038
-0.964932
-0.940665
-0.901036
-0.850783
-0.792962
-0.736908
-0.675187
-0.567726
-0.517419
-0.511773
-0.336607
-0.0116146
0.27051
0.247024
-0.00981635
-0.985946
-0.974281
-0.960985
-0.946009
-0.924245
-0.90115
-0.874815
-0.839993
-0.806715
-0.764256
-0.645799
-0.485543
-0.3187
-0.223328
-0.181371
0.0707688
0.296134
0.253007
-0.0372176
-0.997232
-0.995743
-0.992711
-0.983738
-0.966708
-0.941683
-0.905176
-0.879276
-0.864752
-0.853
-0.777505
-0.567811
-0.273365
-0.00860449
0.106018
0.220966
0.32327
0.25148
-0.0602029
-0.999945
-1.00003
-0.999408
-0.996323
-0.989089
-0.97188
-0.948872
-0.938291
-0.94618
-0.951633
-0.919155
-0.821727
-0.630173
-0.250356
0.0169102
0.13659
0.274469
0.21782
-0.0934957
-1.00014
-1.0001
-0.999929
-0.998738
-0.994767
-0.985751
-0.978038
-0.975241
-0.977526
-0.97401
-0.947
-0.891343
-0.766858
-0.578047
-0.342631
-0.171388
0.0668659
0.116583
-0.143406
-1.00005
-1.00003
-1.00002
-0.999835
-0.998781
-0.995903
-0.992599
-0.991694
-0.991611
-0.987608
-0.969534
-0.934153
-0.88108
-0.803018
-0.615338
-0.420623
-0.162829
-0.0270321
-0.208594
-1.00001
-1
-1.00001
-1.00001
-0.999887
-0.999397
-0.998131
-0.997422
-0.994971
-0.989414
-0.976128
-0.953114
-0.925443
-0.868967
-0.742064
-0.556904
-0.301433
-0.166869
-0.281781
-1
-0.999999
-1
-1.00001
-1.00001
-0.99997
-0.999649
-0.999139
-0.997349
-0.99345
-0.984418
-0.974735
-0.958994
-0.925156
-0.839738
-0.681942
-0.411851
-0.284026
-0.346609
-1
-1
-1
-1
-1.00001
-1.00002
-0.999975
-0.999841
-0.99932
-0.998508
-0.995002
-0.987598
-0.974636
-0.947551
-0.889268
-0.750979
-0.484521
-0.37438
-0.398017
-1
-1
-1
-1
-1
-1.00001
-1.00001
-0.999991
-0.999898
-0.99973
-0.998376
-0.993431
-0.98535
-0.96724
-0.918977
-0.776839
-0.524694
-0.433446
-0.439554
-1
-1
-1
-1
-1
-1
-1
-1
-0.999996
-0.999854
-0.998223
-0.993984
-0.989668
-0.976801
-0.942614
-0.828194
-0.585882
-0.476095
-0.475872
-1
-1
-1
-1
-0.999999
-0.999998
-0.999996
-0.999998
-1.00001
-0.999902
-0.998679
-0.995488
-0.992995
-0.984122
-0.959097
-0.87616
-0.66714
-0.510779
-0.509087
-1
-1
-1
-1
-0.999999
-0.999996
-0.99999
-0.999986
-0.999997
-0.999935
-0.999352
-0.998723
-0.996494
-0.987616
-0.968468
-0.918137
-0.761957
-0.547671
-0.541098
-1
-1
-1
-1
-0.999999
-0.999997
-0.999988
-0.99997
-0.999977
-0.999955
-0.999756
-0.999404
-0.996791
-0.988427
-0.972457
-0.942105
-0.830761
-0.587876
-0.571183
-1
-1
-1
-1
-1
-0.999998
-0.999989
-0.999967
-0.999959
-0.999955
-0.999857
-0.998831
-0.993895
-0.985078
-0.972895
-0.950431
-0.866536
-0.627483
-0.59809
-1
-1
-1
-1
-1
-1
-0.999994
-0.999972
-0.99995
-0.999937
-0.999792
-0.99872
-0.994487
-0.985495
-0.972795
-0.954071
-0.885503
-0.662805
-0.622302
-1
-1
-1
-1
-1.00001
-1
-0.999992
-0.999967
-0.999935
-0.999909
-0.999735
-0.998773
-0.995059
-0.987017
-0.975323
-0.957574
-0.89796
-0.689086
-0.642125
-1
-1
-1
-1
-1.00001
-1.00001
-1
-0.999978
-0.99993
-0.999864
-0.999601
-0.998558
-0.995681
-0.989283
-0.977276
-0.960555
-0.913313
-0.728783
-0.661653
-1
-1
-1
-1
-1.00001
-1.00001
-1
-0.999974
-0.999922
-0.999819
-0.999434
-0.99808
-0.995197
-0.990302
-0.978903
-0.963211
-0.923172
-0.762127
-0.678923
-1
-1
-1
-1
-1.00001
-1.00001
-0.999997
-0.999952
-0.999889
-0.999748
-0.999387
-0.998519
-0.996702
-0.991152
-0.978097
-0.965139
-0.931276
-0.790662
-0.696524
-1
-1
-1
-1
-1.00001
-1.00001
-0.999999
-0.999969
-0.999905
-0.999771
-0.999469
-0.998955
-0.997196
-0.990691
-0.978641
-0.966536
-0.93487
-0.80703
-0.710608
-1
-1
-1
-1
-1.00001
-1.00001
-1.00001
-0.999991
-0.999937
-0.99981
-0.999564
-0.999177
-0.997738
-0.992487
-0.980462
-0.964957
-0.934587
-0.828118
-0.726608
-1
-1
-1
-1.00001
-1.00001
-1.00001
-1
-0.999994
-0.999948
-0.999857
-0.999684
-0.999124
-0.996723
-0.989227
-0.97568
-0.960061
-0.919815
-0.832023
-0.737749
-1
-1
-1.00001
-1.00001
-1.00001
-1
-1
-0.999994
-0.99997
-0.999905
-0.999718
-0.99902
-0.996432
-0.98901
-0.975238
-0.964874
-0.941287
-0.865345
-0.751853
-1
-1.00001
-1.00001
-1.00001
-1.00001
-1
-0.999993
-0.999985
-0.999969
-0.999927
-0.99978
-0.999163
-0.996761
-0.988872
-0.974379
-0.967029
-0.953167
-0.888345
-0.765383
-1.00001
-1.00001
-1.00001
-1.00001
-1
-0.999995
-0.999979
-0.999964
-0.999955
-0.999931
-0.999823
-0.999298
-0.997365
-0.991007
-0.977422
-0.970678
-0.96172
-0.906339
-0.782618
-1.00001
-1.00001
-1.00001
-1
-0.999996
-0.999986
-0.999966
-0.999937
-0.999924
-0.999908
-0.999829
-0.999467
-0.998051
-0.992836
-0.980619
-0.971379
-0.950368
-0.866743
-0.789604
-1.00001
-1.00001
-1
-0.999988
-0.999975
-0.999964
-0.999941
-0.999902
-0.999886
-0.999864
-0.999809
-0.999614
-0.998858
-0.995836
-0.98717
-0.975996
-0.957445
-0.888206
-0.803194
-1.00001
-1.00001
-0.999989
-0.999948
-0.999928
-0.9999
-0.999869
-0.999838
-0.999819
-0.999783
-0.999731
-0.999617
-0.99924
-0.997461
-0.991236
-0.979726
-0.964271
-0.9123
-0.820573
-1.00001
-1
-0.999972
-0.999898
-0.99985
-0.999784
-0.999727
-0.999733
-0.999712
-0.999637
-0.999558
-0.999507
-0.999344
-0.998839
-0.996759
-0.986783
-0.972614
-0.932881
-0.841314
-1.00001
-0.999998
-0.999948
-0.999867
-0.999776
-0.999705
-0.999616
-0.999613
-0.999599
-0.999569
-0.999554
-0.999532
-0.999486
-0.999364
-0.998644
-0.994158
-0.984652
-0.95879
-0.871228
-1.00001
-0.999996
-0.99993
-0.999843
-0.999727
-0.999629
-0.999566
-0.999576
-0.999581
-0.999605
-0.999628
-0.999633
-0.999617
-0.999585
-0.999557
-0.999117
-0.996587
-0.989585
-0.931215
)
;

boundaryField
{
    leftWall
    {
        type            zeroGradient;
    }
    rightWall
    {
        type            zeroGradient;
    }
    lowerWall
    {
        type            zeroGradient;
    }
    atmosphere
    {
        type            zeroGradient;
    }
    defaultFaces
    {
        type            empty;
    }
}


// ************************************************************************* //
