/*--------------------------------*- C++ -*----------------------------------*\
| =========                 |                                                 |
| \\      /  F ield         | foam-extend: Open Source CFD                    |
|  \\    /   O peration     | Version:     4.1                                |
|   \\  /    A nd           | Web:         http://www.foam-extend.org         |
|    \\/     M anipulation  |                                                 |
\*---------------------------------------------------------------------------*/
FoamFile
{
    version     2.0;
    format      ascii;
    class       volScalarField;
    location    "0.45";
    object      C_0;
}
// * * * * * * * * * * * * * * * * * * * * * * * * * * * * * * * * * * * * * //

dimensions      [0 0 0 0 0 0 0];

internalField   nonuniform List<scalar> 
2268
(
1.0009
1.00091
1.00089
1.00097
1.00099
1.00107
1.00131
1.00169
1.00174
1.0009
1.00011
1.0001
1.00025
1.00048
1.00062
1.00063
1.0006
1.00057
1.00056
1.00058
1.00052
1.00026
0.999744
1.00098
1.00094
1.00082
1.00096
1.00094
1.00112
1.00144
1.00173
1.00129
0.999557
0.998815
0.999068
0.999592
1.0001
1.00041
1.0005
1.00051
1.00048
1.00051
1.00057
1.00056
1.00031
0.999773
1.00061
1.00043
1.00005
1.00035
1.00021
1.00061
1.00106
1.00093
0.998985
0.995652
0.995358
0.996329
0.997798
0.998961
0.999678
1.00002
1.00017
1.0002
1.00031
1.00051
1.00064
1.0004
0.999842
0.998599
0.998118
0.997189
0.997819
0.997371
0.998173
0.998572
0.997194
0.992114
0.987783
0.988424
0.990959
0.994066
0.996381
0.997862
0.998793
0.999314
0.999528
0.999833
1.0003
1.00068
1.00054
0.999962
0.99246
0.991382
0.989483
0.990655
0.989496
0.990762
0.990587
0.985967
0.976201
0.972839
0.975322
0.980751
0.986547
0.990909
0.993816
0.996044
0.997457
0.998148
0.998822
0.99975
1.00055
1.00069
1.00013
0.977291
0.975209
0.97172
0.973535
0.970814
0.971976
0.970103
0.958392
0.945129
0.94481
0.950826
0.961311
0.971725
0.979888
0.985473
0.990354
0.993741
0.995484
0.996808
0.998496
0.999961
1.00074
1.00026
0.943735
0.940176
0.934196
0.936
0.930125
0.928671
0.922778
0.899869
0.886564
0.891513
0.905086
0.92426
0.943066
0.958445
0.969148
0.979194
0.986667
0.990546
0.993074
0.995928
0.998382
1.00032
1.00014
0.874749
0.869183
0.859333
0.858124
0.846573
0.835026
0.82193
0.789473
0.778307
0.791149
0.818748
0.853834
0.888554
0.917622
0.938431
0.958216
0.973631
0.981616
0.986492
0.99126
0.995153
0.998692
0.999573
-0.902893
-0.892653
-0.885659
-0.869266
-0.846369
-0.815818
-0.789349
-0.762324
-0.740649
-0.719414
-0.69817
-0.675204
-0.644046
-0.592907
-0.532973
-0.450213
-0.405714
-0.378453
-0.362063
-0.906832
-0.911058
-0.9327
-0.934913
-0.924949
-0.889129
-0.859284
-0.816651
-0.788272
-0.766149
-0.746864
-0.726392
-0.707276
-0.662088
-0.595432
-0.482785
-0.42311
-0.375434
-0.334781
-0.912602
-0.931595
-0.96459
-0.973344
-0.969531
-0.945182
-0.921685
-0.874255
-0.842173
-0.822654
-0.809664
-0.78401
-0.759433
-0.719123
-0.660826
-0.552878
-0.496631
-0.405178
-0.323958
-0.916678
-0.936088
-0.966234
-0.9812
-0.982414
-0.972452
-0.96308
-0.928289
-0.892144
-0.875379
-0.873085
-0.842455
-0.79967
-0.759593
-0.715209
-0.640634
-0.634333
-0.473423
-0.323614
-0.918691
-0.936781
-0.963737
-0.972936
-0.96756
-0.963655
-0.967639
-0.961135
-0.93086
-0.915927
-0.926088
-0.897944
-0.836469
-0.795831
-0.753176
-0.7086
-0.750716
-0.565858
-0.325426
-0.927056
-0.951439
-0.96789
-0.947685
-0.920357
-0.924437
-0.94769
-0.969463
-0.953762
-0.943396
-0.959391
-0.93553
-0.865302
-0.829743
-0.777495
-0.753442
-0.807939
-0.647636
-0.323408
-0.957675
-0.971215
-0.925016
-0.86833
-0.843727
-0.874811
-0.922852
-0.965493
-0.963849
-0.960204
-0.976369
-0.956951
-0.884851
-0.855609
-0.80405
-0.782725
-0.833403
-0.710152
-0.318626
-0.926048
-0.89363
-0.735541
-0.697279
-0.760548
-0.850046
-0.906179
-0.956808
-0.966468
-0.969023
-0.983945
-0.968954
-0.898182
-0.872198
-0.834362
-0.802391
-0.844475
-0.743389
-0.309811
0.673776
0.663961
0.645029
0.627361
0.603564
0.552658
0.53163
0.489997
0.485285
0.515999
0.577646
0.655294
0.73472
0.802527
0.853633
0.900321
0.937934
0.957568
0.969641
0.979359
0.986582
0.992899
0.998687
0.0479173
0.0301661
-0.00619579
-0.0886244
-0.104812
-0.193657
-0.215683
-0.255656
-0.252825
-0.209927
-0.11451
0.0426145
0.234521
0.417743
0.565751
0.697567
0.807766
0.871428
0.917126
0.94912
0.964704
0.975187
0.988305
-0.664733
-0.67139
-0.687315
-0.729789
-0.729864
-0.761628
-0.773028
-0.788066
-0.78282
-0.763326
-0.721202
-0.640498
-0.521615
-0.356529
-0.151117
0.103577
0.377156
0.582772
0.74887
0.857413
0.902247
0.925409
0.954892
-0.907605
-0.908792
-0.912893
-0.92385
-0.923727
-0.933149
-0.937388
-0.941641
-0.937409
-0.927417
-0.908191
-0.882626
-0.844525
-0.774828
-0.679855
-0.551703
-0.3579
-0.100563
0.24983
0.552681
0.716676
0.778441
0.840681
-0.972106
-0.972341
-0.973413
-0.975888
-0.976421
-0.979385
-0.980722
-0.98181
-0.979374
-0.974464
-0.966404
-0.95925
-0.950376
-0.924413
-0.890838
-0.847965
-0.792769
-0.679741
-0.431825
-0.066813
0.330456
0.472846
0.533262
-0.990959
-0.991063
-0.991459
-0.992163
-0.992519
-0.993551
-0.993871
-0.994027
-0.992846
-0.990816
-0.987457
-0.985439
-0.983736
-0.972728
-0.965244
-0.948797
-0.93148
-0.889459
-0.779544
-0.574174
-0.218741
-0.227458
-0.219429
-0.997292
-0.997348
-0.997533
-0.997793
-0.99795
-0.998311
-0.998333
-0.998267
-0.997819
-0.997058
-0.995859
-0.99535
-0.994703
-0.990872
-0.990343
-0.98701
-0.981989
-0.972384
-0.939394
-0.894753
-0.792748
-0.792877
-0.779197
-0.999418
-0.999467
-0.999553
-0.999625
-0.999688
-0.999788
-0.999811
-0.999808
-0.999775
-0.999621
-0.999374
-0.999298
-0.999058
-0.997936
-0.997686
-0.99717
-0.99548
-0.992801
-0.983137
-0.975373
-0.959679
-0.958206
-0.951992
-1.00006
-1.00009
-1.00011
-1.00011
-1.00012
-1.00014
-1.0002
-1.00031
-1.00041
-1.00044
-1.00045
-1.0004
-1.00029
-0.999902
-0.999853
-0.999541
-0.998806
-0.997773
-0.99501
-0.993649
-0.994979
-0.995341
-0.992259
-1.0002
-1.0002
-1.00019
-1.00019
-1.00017
-1.00017
-1.00026
-1.0004
-1.00053
-1.00058
-1.0006
-1.00059
-1.00054
-1.0004
-1.00029
-1.00003
-0.999751
-0.999457
-0.999002
-0.999232
-1.00067
-1.00068
-0.99856
-1.0002
-1.00017
-1.00014
-1.00013
-1.00009
-1.00009
-1.00017
-1.00034
-1.00046
-1.00051
-1.00053
-1.00054
-1.0005
-1.00041
-1.0003
-1.00016
-1.00011
-1.00014
-1.00027
-1.00065
-1.00102
-1.00042
-0.999357
-1.00012
-1.00008
-1.00005
-1.00005
-1.00003
-1.00003
-1.0001
-1.00024
-1.00032
-1.00036
-1.00038
-1.00039
-1.00035
-1.00027
-1.00022
-1.00019
-1.00021
-1.00028
-1.0004
-1.00052
-1.00055
-1.00049
-1.00029
-1.00005
-1.00003
-1.00001
-1.00002
-1.00001
-1.00001
-1.00006
-1.00013
-1.00018
-1.0002
-1.00023
-1.00023
-1.0002
-1.00013
-1.00011
-1.0001
-1.00012
-1.00013
-1.00014
-1.00017
-1.0002
-1.00036
-1.00054
-1.00001
-1.00001
-1
-1
-0.999999
-1
-1.00002
-1.00005
-1.00007
-1.00009
-1.00011
-1.00012
-1.00011
-1.00006
-1.00004
-1.00003
-1.00003
-1.00003
-1.00003
-1.00003
-1.00004
-1.00014
-1.00031
-1
-1
-0.999999
-0.999999
-0.999997
-0.999997
-1
-1.00001
-1.00002
-1.00003
-1.00004
-1.00005
-1.00005
-1.00002
-1.00001
-1
-1.00001
-1
-1
-1
-0.999999
-1.00001
-1.00006
-0.999999
-0.999999
-0.999999
-0.999999
-0.999998
-0.999998
-0.999997
-0.999999
-1
-1
-1.00001
-1.00001
-1.00001
-1.00001
-1
-1
-1
-0.999999
-0.999999
-0.999998
-0.999998
-0.999998
-1
-1
-1
-1
-1
-0.999999
-0.999999
-0.999998
-0.999998
-0.999998
-0.999999
-1
-1
-1
-1
-1
-0.999999
-1
-1
-1
-1
-1
-0.999999
-0.999998
-1
-1
-1
-1
-1
-1
-0.999999
-0.999999
-0.999999
-0.999999
-0.999999
-1
-1
-1
-1
-1
-1
-1
-1
-1
-1
-1
-1
-1
-1
-1
-1
-1
-1
-1
-1
-1
-1
-1
-1
-1
-1
-1
-1
-1
-1
-1
-1
-1
-1
-1
-1
-1
-1
-1
-1
-1
-1
-1
-1
-1
-1
-1
-1
-1
-1
-1
-1
-1
-1
-1
-1
-1
-1
-1
-1
-1
-1
-1
-1
-1
-1
-1
-1
-1
-1
-1
-1
-1
-1
-1
-1
-1
-1
-1
-1
-1
-1
-1
-1
-1
-1
-1
-1
-1
-1
-1
-1
-1
-1
-1
-1
-1
-1
-1
-1
-1
-1
-1
-1
-1
-1
-1
-1
-1
-1
-1
-1
-1
-1
-1
-1
-1
-1
-1
-1
-1
-1
-1
-1
-1
-1
-1
-1
-1
-1
-1
-1
-1
-1
-1
-1
-1
-1
-1
-1
-1
-1
-1
-1
-1
-1
-1
-1
-1
-1
-1
-1
-1
-1
-1
-1
-1
-1
-1
-1
-1
-1
-1
-1
-1
-1
-1
-1
-1
-1
-1
-1
-1
-1
-1
-1
-1
-1
-1
-1
-1
-1
-1
-1
-1
-1
-1
-1
-1
-1
-1
-1
-1
-1
-1
-1
-1
-1
-1
-1
-1
-1
-1
-1
-1
-1
-1
-1
-1
-1
-1
-1
-1
-1
-1
-1
-1
-1
-1
-1
-1
-1
-1
-1
-1
-1
-1
-1
-1
-1
-1
-1
-1
-1
-1
-1
-1
-1
-1
-1
-1
-1
-1
-1
-1
-1
-1
-1
-1
-1
-1
-1
-1
-1
-1
-1
-1
-1
-1
-1
-1
-1
-1
-1
-1
-1
-1
-1
-1
-1
-1
-1
-1
-1
-1
-1
-1
-1
-1
-1
-1
-1
-1
-1
-1
-1
-1
-1
-1
-1
-1
-1
-1
-1
-1
-1
-1
-1
-1
-1
-1
-1
-1
-1
-1
-1
-1
-1
-1
-1
-1
-1
-1
-1
-1
-1
-1
-1
-1
-1
-1
-1
-1
-1
-1
-1
-1
-1
-1
-1
-1
-1
-1
-1
-1
-1
-1
-1
-1
-1
-1
-1
-1
-1
-1
-1
-1
-1
-1
-1
-1
-1
-1
-1
-1
-1
-1
-1
-1
-1
-1
-1
-1
-1
-1
-1
-1
-1
-1
-1
-1
-1
-1
-1
-1
-1
-1
-1
-1
-1
-1
-1
-1
-1
-1
-1
-1
-1
-1
-1
-1
-1
-1
-1
-1
-1
-1
-1
-1
-1
-1
-1
-1
-1
-1
-1
-1
-1
-1
-1
-1
-1
-1
-1
-1
-1
-1
-1
-1
-1
-1
-1
-1
-1
-1
-1
-1
-1
-1
-1
-1
-1
-1
-1
-1
-1
-1
-1
-1
-1
-1
-1
-1
-1
-1
-1
-1
-1
-1
-1
-1
-1
-1
-1
-1
-1
-1
-1
-1
-1
-1
-1
-1
-1
-1
-1
-1
-1
-1
-1
-1
-1
-1
-1
-1
-1
-1
-1
-1
-1
-1
-1
-1
-1
-1
-1
-1
-1
-1
-1
-1
-1
-1
-1
-1
-1
-1
-1
-1
-1
-1
-1
-1
-1
-1
-1
-1
-1
-1
-1
-1
-1
-1
-1
-1
-1
-1
-1
-1
-1
-1
-1
-1
-1
-1
-1
-1
-1
-1
-1
-1
-1
-1
-1
-1
-1
-1
-1
-1
-1
-1
-1
-1
-1
-1
-1
-1
-1
-1
-1
-1
-1
-1
-1
-1
-1
-1
-1
-1
-1
-1
-1
-1
-1
1.0207
1.04199
1.00939
0.763713
1.00439
1.02115
1.03139
1.00812
0.973166
0.984592
0.996285
1.00463
0.875967
0.892858
0.909577
0.924223
0.591382
0.624956
0.658068
0.689172
-0.188354
-0.151108
-0.0892646
0.00517207
-0.756917
-0.735724
-0.703516
-0.644385
-0.933625
-0.919279
-0.903249
-0.88241
-0.982436
-0.975607
-0.967732
-0.958237
-0.994281
-0.99211
-0.990003
-0.988495
-0.998359
-0.998062
-0.997924
-0.997905
-0.999386
-0.998121
-0.996091
-0.993169
-1.00044
-1.00007
-0.999438
-0.998749
-1.00036
-1.00036
-1.0003
-1.0002
-1.00009
-1.00012
-1.00014
-1.00014
-1.00001
-1.00001
-1.00002
-1.00003
-0.999998
-0.999998
-1
-1
-0.999999
-0.999999
-0.999999
-0.999999
-1
-1
-1
-1
-1
-1
-1
-1
-1
-1
-1
-1
-1
-1
-1
-1
-1
-1
-1
-1
-1
-1
-1
-1
-1
-1
-1
-1
-1
-1
-1
-1
-1
-1
-1
-1
-1
-1
-1
-1
-1
-1
-1
-1
-1
-1
-1
-1
-1
-1
-1
-1
-1
-1
-1
-1
-1
-1
-1
-1
-1
-1
-1
-1
-1
-1
-1
-1
-1
-1
-1
-1
-1
-1
-1
-1.00001
-1
-1
-1.00001
-1.00001
-1
-1.00001
-1.00001
-1.00001
-1.00001
-1.00001
-1.00001
-1.00001
-1.00001
-1.00001
-1.00001
-1.00001
-1.00001
-1.00001
-1.00001
-1.00002
-0.361899
-0.314281
-0.148833
-0.388402
-0.684744
-0.833531
-0.902207
-0.948775
-0.966243
-0.975747
-0.990237
-0.980214
-0.915013
-0.885718
-0.872445
-0.823577
-0.854925
-0.775232
-0.291407
0.876234
0.758
0.58367
-0.239153
-0.431435
-0.672437
-0.87147
-0.974066
-0.972445
-0.979461
-0.9928
-0.98987
-0.932538
-0.893678
-0.906714
-0.868231
-0.88265
-0.797243
-0.254246
1.00656
0.992908
0.944856
0.725623
0.50698
0.0656752
-0.556935
-0.976555
-0.990991
-0.991962
-0.997879
-0.996356
-0.935233
-0.894583
-0.940917
-0.905835
-0.857265
-0.665704
-0.191619
0.939558
0.953098
0.961645
0.936836
0.860629
0.722924
0.309116
-0.76026
-0.965554
-1.00303
-1.01392
-1.00632
-0.91872
-0.857603
-0.906794
-0.79446
-0.479759
-0.113138
0.0628715
0.75814
0.736638
0.793527
0.825761
0.82993
0.84234
0.779497
0.254841
-0.357333
-0.864182
-1.00411
-1.00072
-0.918055
-0.782506
-0.843208
-0.747459
-0.332172
0.0786789
0.11175
0.279981
0.0867682
0.277841
0.198059
0.297915
0.510563
0.654634
0.638419
0.472899
-0.0993623
-0.765877
-0.92028
-0.862269
-0.722478
-0.638713
-0.480514
-0.148169
0.144669
0.149057
-0.422371
-0.491662
-0.555726
-0.644841
-0.567071
-0.32346
0.0341485
0.249465
0.477904
0.318298
-0.122406
-0.47613
-0.480232
-0.372874
-0.0724479
0.253336
0.37346
0.340291
0.191642
-0.828557
-0.850214
-0.885105
-0.905465
-0.876487
-0.767365
-0.566372
-0.394701
0.128526
0.167131
0.048754
-0.02699
-0.042592
-0.0321066
0.0716125
0.296453
0.389082
0.335639
0.167962
-0.948978
-0.975051
-0.982084
-0.984997
-0.962485
-0.906941
-0.821296
-0.747836
-0.549059
-0.345836
-0.267654
-0.234479
-0.200097
-0.130562
0.0316055
0.256543
0.363435
0.31256
0.109051
-0.990294
-0.999641
-0.99875
-0.992504
-0.974603
-0.943382
-0.889609
-0.824065
-0.736324
-0.670689
-0.654269
-0.583053
-0.52596
-0.452768
-0.143307
0.155776
0.323434
0.274288
0.0368858
-0.99823
-0.998013
-0.991573
-0.981775
-0.965885
-0.942066
-0.903111
-0.853347
-0.796313
-0.74141
-0.681084
-0.571607
-0.51919
-0.513129
-0.335489
-0.00866252
0.271836
0.246575
-0.0123781
-0.987072
-0.975484
-0.962015
-0.947244
-0.925829
-0.902818
-0.876873
-0.842469
-0.809604
-0.767779
-0.651294
-0.490576
-0.322232
-0.224236
-0.179742
0.0735673
0.297231
0.252603
-0.0397522
-0.99749
-0.995935
-0.992967
-0.984408
-0.96803
-0.943569
-0.906978
-0.880776
-0.865848
-0.853881
-0.779973
-0.571803
-0.277632
-0.0102332
0.105915
0.221614
0.322911
0.250733
-0.0629123
-0.999983
-1.00004
-0.999463
-0.996594
-0.989755
-0.973047
-0.949909
-0.939055
-0.946414
-0.952147
-0.920411
-0.823829
-0.633071
-0.252561
0.0165414
0.137043
0.273569
0.216354
-0.0967392
-1.00014
-1.0001
-0.999947
-0.998871
-0.995162
-0.986317
-0.978402
-0.975521
-0.977689
-0.974612
-0.948083
-0.892752
-0.768336
-0.578551
-0.341142
-0.168876
0.0667876
0.114545
-0.147164
-1.00005
-1.00003
-1.00002
-0.999862
-0.9989
-0.99613
-0.992746
-0.991785
-0.991767
-0.98802
-0.970234
-0.93499
-0.88183
-0.803203
-0.614157
-0.418222
-0.162608
-0.0287621
-0.212672
-1.00001
-1
-1.00001
-1.00001
-0.999906
-0.99945
-0.998202
-0.997496
-0.995163
-0.989791
-0.976563
-0.953452
-0.925471
-0.86876
-0.741343
-0.55521
-0.300893
-0.167526
-0.285664
-1
-0.999999
-1
-1.00001
-1.00002
-0.999978
-0.999671
-0.999177
-0.997451
-0.993553
-0.984394
-0.97459
-0.958706
-0.924669
-0.839203
-0.680903
-0.410471
-0.283942
-0.349804
-1
-1
-1
-1
-1.00001
-1.00002
-0.999979
-0.99985
-0.999346
-0.998522
-0.994966
-0.987474
-0.974404
-0.947185
-0.889134
-0.751097
-0.48324
-0.374227
-0.400536
-1
-1
-1
-1
-1
-1.00001
-1.00001
-0.999992
-0.999901
-0.999733
-0.998411
-0.993443
-0.98527
-0.967116
-0.919074
-0.777355
-0.523394
-0.433378
-0.441633
-1
-1
-1
-1
-1
-1
-1
-1
-0.999996
-0.999858
-0.998249
-0.993961
-0.989592
-0.976743
-0.94252
-0.827657
-0.583719
-0.475945
-0.477695
-1
-1
-1
-1
-0.999999
-0.999998
-0.999996
-0.999998
-1.00001
-0.999904
-0.998678
-0.995416
-0.992933
-0.984069
-0.958781
-0.874678
-0.663501
-0.510385
-0.510787
-1
-1
-1
-1
-0.999999
-0.999996
-0.99999
-0.999986
-0.999997
-0.999935
-0.999347
-0.998707
-0.996492
-0.98763
-0.968229
-0.916916
-0.758427
-0.546954
-0.54272
-1
-1
-1
-1
-0.999999
-0.999997
-0.999988
-0.99997
-0.999977
-0.999955
-0.999754
-0.999404
-0.996821
-0.988481
-0.972361
-0.941569
-0.828873
-0.586997
-0.572662
-1
-1
-1
-1
-1
-0.999998
-0.999988
-0.999967
-0.999958
-0.999954
-0.999856
-0.998836
-0.993919
-0.985045
-0.972825
-0.950184
-0.865745
-0.626532
-0.599383
-1
-1
-1
-1
-1
-1
-0.999994
-0.999972
-0.999949
-0.999935
-0.999788
-0.998706
-0.994441
-0.985358
-0.972594
-0.953835
-0.88511
-0.661897
-0.623395
-1
-1
-1
-1
-1.00001
-1
-0.999992
-0.999966
-0.999933
-0.999907
-0.999729
-0.998752
-0.994977
-0.986773
-0.974988
-0.957293
-0.897709
-0.688276
-0.643103
-1
-1
-1
-1
-1.00001
-1.00001
-1
-0.999978
-0.999929
-0.99986
-0.999588
-0.998518
-0.995577
-0.989057
-0.97695
-0.960292
-0.913044
-0.727807
-0.66246
-1
-1
-1
-1
-1.00001
-1.00001
-1
-0.999973
-0.99992
-0.999814
-0.999421
-0.998042
-0.9951
-0.9901
-0.978603
-0.962949
-0.922867
-0.761248
-0.679601
-1
-1
-1
-1
-1.00001
-1.00001
-0.999997
-0.999951
-0.999886
-0.999743
-0.999374
-0.998489
-0.996629
-0.990971
-0.977812
-0.964889
-0.930965
-0.789893
-0.697067
-1
-1
-1
-1
-1.00001
-1.00001
-0.999999
-0.999968
-0.999903
-0.999767
-0.99946
-0.998936
-0.997131
-0.990492
-0.978343
-0.966327
-0.934754
-0.806434
-0.711081
-1
-1
-1
-1
-1.00001
-1.00001
-1.00001
-0.999991
-0.999936
-0.999807
-0.999557
-0.99916
-0.997684
-0.992346
-0.980266
-0.964925
-0.934708
-0.827801
-0.72699
-1
-1
-1
-1.00001
-1.00001
-1.00001
-1
-0.999994
-0.999947
-0.999854
-0.999678
-0.999103
-0.996637
-0.988986
-0.975376
-0.959927
-0.919711
-0.831844
-0.738127
-1
-1
-1.00001
-1.00001
-1.00001
-1
-1
-0.999993
-0.999969
-0.999903
-0.99971
-0.998988
-0.996326
-0.988752
-0.974912
-0.964724
-0.941212
-0.86521
-0.752175
-1
-1.00001
-1.00001
-1.00001
-1.00001
-1
-0.999993
-0.999984
-0.999968
-0.999925
-0.999773
-0.999134
-0.996665
-0.98862
-0.974077
-0.966894
-0.95316
-0.888336
-0.765666
-1.00001
-1.00001
-1.00001
-1.00001
-1
-0.999995
-0.999978
-0.999963
-0.999954
-0.999929
-0.999818
-0.999276
-0.997292
-0.990785
-0.97707
-0.970501
-0.961755
-0.906474
-0.782813
-1.00001
-1.00001
-1.00001
-1
-0.999996
-0.999986
-0.999964
-0.999935
-0.999923
-0.999906
-0.999825
-0.999453
-0.998005
-0.992675
-0.980298
-0.971218
-0.950527
-0.867132
-0.789921
-1.00001
-1.00001
-1
-0.999988
-0.999975
-0.999963
-0.999939
-0.999899
-0.999883
-0.999861
-0.999805
-0.999605
-0.998833
-0.995726
-0.986881
-0.975749
-0.957472
-0.888449
-0.803533
-1.00001
-1.00001
-0.999989
-0.999947
-0.999927
-0.999898
-0.999866
-0.999835
-0.999815
-0.999778
-0.999725
-0.999608
-0.999223
-0.997391
-0.991014
-0.979467
-0.96421
-0.91244
-0.820908
-1.00001
-1
-0.999971
-0.999897
-0.999848
-0.999781
-0.999723
-0.999728
-0.999705
-0.99963
-0.999552
-0.9995
-0.999334
-0.998813
-0.996681
-0.986599
-0.972523
-0.932937
-0.841594
-1.00001
-0.999998
-0.999947
-0.999866
-0.999775
-0.999702
-0.999613
-0.999609
-0.999595
-0.999567
-0.999553
-0.999531
-0.999485
-0.99936
-0.998625
-0.994094
-0.98455
-0.958643
-0.871267
-1.00001
-0.999996
-0.999929
-0.999841
-0.999725
-0.999627
-0.999564
-0.999576
-0.999581
-0.999606
-0.99963
-0.999634
-0.999618
-0.999585
-0.999558
-0.999117
-0.996533
-0.989423
-0.930921
)
;

boundaryField
{
    leftWall
    {
        type            zeroGradient;
    }
    rightWall
    {
        type            zeroGradient;
    }
    lowerWall
    {
        type            zeroGradient;
    }
    atmosphere
    {
        type            zeroGradient;
    }
    defaultFaces
    {
        type            empty;
    }
}


// ************************************************************************* //
