/*--------------------------------*- C++ -*----------------------------------*\
| =========                 |                                                 |
| \\      /  F ield         | foam-extend: Open Source CFD                    |
|  \\    /   O peration     | Version:     4.1                                |
|   \\  /    A nd           | Web:         http://www.foam-extend.org         |
|    \\/     M anipulation  |                                                 |
\*---------------------------------------------------------------------------*/
FoamFile
{
    version     2.0;
    format      ascii;
    class       volScalarField;
    location    "0.45";
    object      p;
}
// * * * * * * * * * * * * * * * * * * * * * * * * * * * * * * * * * * * * * //

dimensions      [1 -1 -2 0 0 0 0];

internalField   nonuniform List<scalar> 
2268
(
646.855
646.362
645.384
637.215
638.708
628.49
633.541
630.258
643.207
652.321
693.871
720.758
727.249
747.711
772.432
788.948
835.095
828.416
880.508
901.92
942.086
948.967
971.005
587.78
587.269
586.184
577.99
579.46
569.259
573.656
570.261
582.363
589.746
649.259
648.557
666.362
685.76
713.313
729.568
782.518
761.545
820.724
832.327
887.922
890.932
911.353
528.431
527.874
526.7
518.63
519.513
509.134
514.853
510.464
525.886
526.552
582.669
585.606
607.755
624.278
652.665
665.553
718.266
708.695
765.135
786.263
823.606
825.529
860.479
469.004
468.397
466.749
458.812
459.445
448.959
452.586
446.721
457.192
490.189
507.986
521.752
545.143
564.424
593.928
607.26
650.472
660.316
705.163
716.509
762.71
779.606
798.802
409.361
408.632
406.744
399.262
398.533
387.648
394.101
390.566
393.273
430.864
442.679
458.515
483.244
501.153
531.028
549.833
590.041
606.95
647.254
666.972
696.288
708.907
738.553
350.093
349.188
346.336
339.179
337.911
328.161
326.615
323.261
349.879
359.029
378.038
394.854
420.153
441.063
471.237
491.465
528.943
548.852
585.3
595.809
649.149
650.89
683.492
291.13
290.079
286.962
280.567
278.288
264.672
278.435
258.91
288.112
295.483
313.732
331.032
355.299
373.354
411.03
434.091
463.699
500.541
523.657
561.365
575.335
590.831
624.403
233.649
232.379
228.506
220.534
217.702
212.66
205.669
212.767
222.662
232.416
250.238
268.842
294.822
318.432
350.222
376.734
413.712
437.375
472.354
478.832
541.719
542.542
575.808
661.532
486.323
402.487
409.125
421.049
432.937
434.692
426.4
411.917
407.259
421.742
445.938
470.391
512.931
415.175
397.644
569.719
742.059
1163.02
630.192
393.212
360.236
398.063
412.547
433.167
432.822
420.461
410.002
400.55
404.363
419.041
434.973
485.433
433.778
410.141
442.599
653.032
1080.69
577.383
354.862
365.219
397.101
417.784
429.589
426.929
415.062
398.526
387.079
391.945
411.916
438.781
463.08
449.803
450.752
429.738
590.744
975.818
557.799
340.988
366.02
396.164
419.543
427.749
424.792
406.598
394.878
382.765
382.599
394.463
432.094
454.666
432.784
436.737
384.794
498.2
853.153
547.822
362.968
373.881
395.724
417.179
425.237
418.704
398.834
391.095
380.343
381.345
388.685
411.949
434.291
441.994
390.287
374.83
444.399
722.329
565.92
391.51
379.096
398.381
410.418
419.829
406.284
395.928
390.378
380.982
378.258
383.816
398.262
421.325
428.022
398.064
369.531
408.239
590.134
569.76
425.541
381.987
395.545
408.247
411.653
387.396
385.732
387.954
379.444
376.735
380.708
388.82
410.155
416.365
389.276
376.163
381.244
458.866
581.642
441.191
386.854
403.478
405.486
370.918
380.912
382.167
385.266
381.58
375.534
378.221
379.706
397.248
396.201
385.516
380.738
368.28
438.279
152.143
151.466
146.186
146.135
142.598
115.794
143.61
126.519
138.569
146.21
160.781
177.017
196.422
226.889
249.136
292.24
316.746
361.414
383.19
419.918
436.795
440.736
447.145
61.225
60.2637
58.2575
48.4102
55.283
44.2373
46.3033
45.8406
48.9729
54.5036
64.1869
76.7342
96.8112
117.688
146.022
172.953
204.544
235.988
258.528
306.05
319.534
352.379
371.66
17.2755
16.8886
16.5522
14.2988
15.2236
13.0408
13.6027
12.8096
13.768
15.396
18.6823
24.8198
33.7573
44.6614
58.3671
79.7553
105.332
131.922
180.826
202.654
244.259
233.885
306.698
4.93739
4.80073
4.71467
4.20501
4.40347
3.95193
4.09655
4.1247
4.69951
5.54931
7.04094
7.50514
10.8362
15.7003
20.689
31.1577
43.713
63.084
84.5379
115.999
133
165.204
198.204
1.38304
1.36045
1.337
1.21505
1.24934
1.15463
1.22313
1.2749
1.4946
1.81718
2.33804
3.19649
2.23361
6.68694
5.1667
10.4545
16.1124
26.3253
39.21
55.8212
80.2374
78.7762
88.3903
0.16735
0.162723
0.143035
0.144082
0.126967
0.135974
0.183555
0.201403
0.300294
0.347984
0.584728
0.829604
0.382514
2.14106
1.84106
3.14586
4.52635
6.57317
10.8362
19.0127
36.4103
27.7342
55.2883
-0.277563
-0.281386
-0.253353
-0.2662
-0.2536
-0.256153
-0.214039
-0.191079
-0.196036
-0.132854
-0.111868
0.0484778
-0.0327482
0.123387
0.288809
0.235298
0.579103
1.00949
2.38882
4.40082
3.31817
3.22635
6.9588
-0.501292
-0.503149
-0.502775
-0.463469
-0.50628
-0.434195
-0.483213
-0.42395
-0.474008
-0.380039
-0.466602
-0.356607
-0.420176
-0.367817
-0.281899
-0.372559
-0.173311
-0.095841
0.360572
-0.0752188
1.10399
0.0261236
0.559687
-0.634156
-0.645397
-0.633538
-0.592761
-0.644182
-0.566344
-0.610517
-0.56279
-0.593502
-0.570384
-0.629563
-0.554267
-0.582962
-0.533447
-0.592409
-0.553723
-0.502045
-0.44441
-0.500448
-0.64339
-0.454147
-0.541289
-0.552011
-0.780629
-0.778711
-0.779493
-0.760992
-0.777646
-0.746907
-0.751025
-0.74703
-0.733296
-0.737236
-0.761903
-0.702385
-0.717305
-0.741579
-0.684832
-0.708379
-0.630734
-0.660178
-0.618404
-0.78891
-0.724984
-0.782462
-0.806725
-0.910576
-0.907426
-0.906586
-0.890591
-0.911388
-0.861003
-0.923054
-0.859633
-0.881976
-0.875868
-0.878693
-0.888301
-0.849804
-0.852037
-0.846355
-0.810741
-0.833429
-0.785367
-0.87335
-0.961037
-0.736207
-0.910657
-0.759182
-1.06712
-1.06087
-1.06473
-1.05401
-1.0453
-1.06752
-1.05754
-1.0149
-1.04408
-1.06249
-1.02315
-1.03744
-1.01744
-1.03171
-0.988064
-1.04749
-0.9328
-0.950123
-1.02079
-0.880694
-0.798328
-1.07482
-0.533221
-1.19725
-1.19101
-1.1929
-1.17644
-1.20803
-1.17089
-1.22695
-1.18595
-1.22236
-1.17438
-1.18047
-1.20948
-1.19251
-1.18266
-1.20603
-1.15776
-1.20892
-1.09758
-1.26882
-1.19329
-1.23622
-1.05355
-0.948273
-1.35747
-1.35152
-1.33482
-1.35532
-1.31458
-1.3767
-1.30858
-1.35726
-1.373
-1.33036
-1.40079
-1.33571
-1.41704
-1.38183
-1.35638
-1.38026
-1.37867
-1.27529
-1.33528
-1.30263
-1.26635
-1.33033
-1.33419
-1.48106
-1.48757
-1.49301
-1.4758
-1.49588
-1.46007
-1.54228
-1.47421
-1.52216
-1.49532
-1.52206
-1.50157
-1.52764
-1.48488
-1.52438
-1.50309
-1.51695
-1.58374
-1.49345
-1.51074
-1.49232
-1.52189
-1.59888
-1.6615
-1.66499
-1.65468
-1.66809
-1.6431
-1.65835
-1.62973
-1.63763
-1.66435
-1.65168
-1.67763
-1.63872
-1.70442
-1.65888
-1.70012
-1.6827
-1.72308
-1.66174
-1.69439
-1.70568
-1.70975
-1.71635
-1.76246
-1.81954
-1.8107
-1.81622
-1.80552
-1.82231
-1.81763
-1.82549
-1.83194
-1.81165
-1.81664
-1.82688
-1.84276
-1.8609
-1.83692
-1.86394
-1.83893
-1.85757
-1.87496
-1.87202
-1.88907
-1.88758
-1.96965
-1.98018
-1.97949
-1.98999
-1.99262
-1.97622
-1.97066
-1.96757
-1.96855
-1.9644
-1.99291
-1.98434
-1.99326
-1.97045
-2.02868
-2.03216
-2.02439
-2.04813
-2.04071
-2.05626
-2.04036
-2.06001
-2.07417
-2.10817
-2.15997
-2.11557
-2.11482
-2.12344
-2.12467
-2.14651
-2.12697
-2.13947
-2.11554
-2.15291
-2.14453
-2.12312
-2.179
-2.16452
-2.16414
-2.20272
-2.20559
-2.22212
-2.21204
-2.22434
-2.23661
-2.25503
-2.29786
-2.32931
-2.28261
-2.28624
-2.27976
-2.27585
-2.27701
-2.2681
-2.27737
-2.30264
-2.31051
-2.29394
-2.33868
-2.28802
-2.34617
-2.34742
-2.35464
-2.36122
-2.36692
-2.37574
-2.38159
-2.3935
-2.42501
-2.43737
-2.50812
-2.3915
-2.41232
-2.40918
-2.42032
-2.42864
-2.42554
-2.44174
-2.42445
-2.46298
-2.47739
-2.46073
-2.51414
-2.49851
-2.50031
-2.51349
-2.51873
-2.52665
-2.53461
-2.54046
-2.55855
-2.57359
-2.5957
-2.62355
-2.60724
-2.58815
-2.59686
-2.572
-2.58706
-2.57597
-2.56925
-2.59822
-2.59645
-2.60687
-2.62112
-2.60194
-2.66613
-2.66348
-2.66929
-2.67483
-2.6784
-2.68668
-2.69591
-2.70737
-2.7338
-2.75483
-2.78194
-2.71188
-2.71269
-2.7062
-2.72295
-2.7262
-2.7313
-2.75156
-2.75532
-2.77329
-2.76765
-2.76603
-2.82449
-2.78985
-2.81458
-2.81939
-2.82707
-2.83345
-2.84449
-2.85914
-2.85591
-2.87475
-2.90435
-2.91821
-2.86428
-2.87152
-2.89047
-2.87983
-2.88193
-2.88929
-2.89133
-2.89683
-2.91159
-2.90778
-2.93642
-2.92818
-2.94584
-2.96897
-2.9631
-2.95846
-2.99845
-2.98729
-3.00741
-3.01957
-3.02711
-3.04931
-3.06828
-3.03221
-3.03026
-3.0318
-3.03718
-3.04311
-3.04375
-3.04934
-3.05388
-3.06051
-3.0529
-3.06989
-3.06617
-3.07981
-3.11514
-3.10488
-3.12423
-3.14107
-3.16148
-3.15215
-3.15522
-3.18646
-3.20835
-3.23704
-3.18854
-3.1893
-3.19124
-3.19064
-3.19197
-3.19893
-3.20247
-3.20831
-3.20142
-3.21915
-3.22576
-3.24279
-3.24437
-3.26886
-3.26647
-3.27311
-3.29785
-3.30513
-3.31065
-3.33866
-3.33907
-3.36097
-3.37577
-3.34637
-3.3464
-3.34782
-3.35272
-3.3529
-3.35794
-3.35946
-3.36657
-3.36664
-3.37775
-3.37587
-3.39164
-3.38769
-3.41505
-3.40279
-3.43735
-3.4301
-3.46862
-3.45073
-3.45338
-3.50096
-3.51228
-3.54187
-3.50402
-3.50337
-3.5064
-3.50644
-3.50863
-3.51001
-3.51346
-3.51936
-3.52182
-3.53216
-3.52969
-3.54619
-3.52907
-3.57074
-3.5537
-3.62721
-3.58425
-3.63263
-3.60925
-3.64616
-3.63972
-3.67874
-3.69642
-3.66168
-3.6624
-3.66256
-3.66439
-3.66465
-3.66847
-3.67025
-3.67507
-3.67524
-3.68349
-3.67938
-3.69742
-3.69934
-3.7142
-3.71563
-3.74474
-3.70952
-3.79061
-3.74398
-3.7657
-3.77176
-3.83819
-3.85492
-3.81842
-3.81821
-3.81896
-3.8201
-3.82209
-3.82394
-3.82686
-3.82981
-3.83224
-3.83597
-3.83332
-3.84891
-3.85909
-3.86505
-3.88526
-3.87908
-3.94581
-3.89201
-3.97649
-3.90981
-3.99967
-3.91896
-4.04726
-3.97279
-3.97414
-3.97502
-3.97654
-3.97787
-3.97999
-3.98218
-3.98474
-3.98783
-3.99117
-3.99546
-3.99964
-4.00963
-4.00718
-4.03183
-4.02508
-4.05258
-4.05224
-4.05293
-4.06285
-4.10127
-4.11708
-4.16391
-4.12824
-4.12859
-4.12911
-4.13042
-4.13204
-4.13364
-4.13639
-4.13823
-4.14248
-4.14442
-4.15078
-4.15194
-4.16505
-4.15815
-4.19702
-4.20218
-4.22181
-4.18613
-4.26325
-4.24379
-4.25404
-4.22151
-4.33698
-4.28508
-4.28541
-4.28586
-4.28677
-4.28811
-4.28935
-4.29185
-4.29318
-4.29692
-4.2983
-4.3041
-4.3052
-4.31502
-4.31399
-4.33118
-4.33136
-4.31417
-4.38166
-4.37001
-4.36073
-4.44317
-4.33014
-4.48672
-4.43699
-4.43753
-4.43792
-4.43895
-4.44028
-4.44149
-4.44386
-4.44496
-4.44876
-4.44971
-4.455
-4.4562
-4.459
-4.47539
-4.4763
-4.49184
-4.53447
-4.50812
-4.56191
-4.50893
-4.64175
-4.54244
-4.59521
-4.5947
-4.59501
-4.59531
-4.59595
-4.59688
-4.59759
-4.59923
-4.60012
-4.60244
-4.60352
-4.60578
-4.60793
-4.60585
-4.61568
-4.64225
-4.61673
-4.65806
-4.62224
-4.69164
-4.60157
-4.71831
-4.70402
-4.73267
-4.74371
-4.74403
-4.74452
-4.74506
-4.74653
-4.74688
-4.74967
-4.74924
-4.75425
-4.75087
-4.76142
-4.75085
-4.7708
-4.77139
-4.77696
-4.79165
-4.78819
-4.81776
-4.82669
-4.87982
-4.86457
-4.87559
-4.89247
-4.90412
-4.90421
-4.90459
-4.90464
-4.90573
-4.90539
-4.90747
-4.90646
-4.9097
-4.90878
-4.91282
-4.90184
-4.92073
-4.91131
-4.91921
-4.90001
-4.94568
-4.93067
-4.98101
-4.97623
-4.9406
-5.05118
-4.9778
-5.04764
-5.04776
-5.04844
-5.04847
-5.05028
-5.04983
-5.05342
-5.05173
-5.05886
-5.04745
-5.06826
-5.05591
-5.08237
-5.05384
-5.08866
-5.07105
-5.09646
-5.0962
-5.12106
-5.12448
-5.1435
-5.19734
-5.107
-5.21361
-5.21352
-5.21412
-5.21345
-5.21503
-5.21296
-5.21638
-5.21069
-5.21839
-5.21139
-5.22199
-5.20725
-5.23388
-5.19782
-5.24158
-5.19518
-5.22827
-5.22703
-5.23894
-5.23782
-5.27876
-5.33824
-5.2812
-5.34917
-5.34912
-5.34977
-5.34955
-5.35115
-5.35047
-5.35351
-5.35186
-5.35742
-5.35356
-5.36404
-5.3587
-5.37523
-5.36177
-5.38653
-5.3842
-5.39671
-5.38444
-5.41716
-5.42072
-5.40375
-5.47366
-5.47368
-5.52299
-5.523
-5.52388
-5.52331
-5.52493
-5.52379
-5.52661
-5.52458
-5.52857
-5.52396
-5.52971
-5.51829
-5.52754
-5.4961
-5.51802
-5.48998
-5.48802
-5.49119
-5.51321
-5.53849
-5.55474
-5.56103
-5.58513
-5.6505
-5.65054
-5.65047
-5.65064
-5.65082
-5.65093
-5.65126
-5.65147
-5.65239
-5.65461
-5.65568
-5.66238
-5.66382
-5.68291
-5.67746
-5.69522
-5.70715
-5.6972
-5.73031
-5.70585
-5.71585
-5.80011
-5.73836
480.82
416.682
520.718
505.509
399.132
407.477
465.721
428.249
307.483
235.178
365.655
328.035
209.188
215.508
228.485
245.296
134.252
119.174
133.952
125.733
50.3871
48.8616
57.5954
49.9411
9.00014
13.9878
18.3933
16.6773
0.216482
1.66351
2.52202
6.723
-0.622447
-0.543608
-0.335477
-0.326814
-0.758596
-0.720311
-0.384985
-0.16506
-1.82124
-1.78315
-1.02642
-0.827754
-0.68877
-0.732046
-0.877044
-0.817289
-1.55672
-1.58243
-1.70401
-1.55996
-1.63038
-1.79955
-1.98476
-2.06173
-1.69492
-1.79051
-1.87719
-1.94256
-1.93698
-1.96629
-1.99519
-2.05541
-2.05305
-2.10462
-2.15034
-2.15178
-2.21058
-2.23643
-2.27708
-2.30483
-2.3604
-2.37305
-2.39816
-2.4319
-2.54877
-2.56211
-2.57705
-2.59222
-2.66309
-2.67619
-2.76088
-2.77553
-2.80985
-2.83772
-2.82424
-2.84595
-2.96423
-2.9796
-3.03069
-3.0713
-3.09584
-3.1278
-3.13915
-3.15013
-3.26753
-3.28381
-3.30546
-3.32859
-3.40351
-3.40964
-3.41686
-3.43203
-3.56027
-3.58863
-3.61218
-3.63243
-3.70909
-3.72074
-3.72344
-3.73918
-3.86376
-3.88547
-3.89063
-3.91995
-4.02102
-4.05434
-4.06297
-4.13475
-4.15467
-4.16671
-4.17008
-4.18429
-4.32531
-4.33675
-4.38936
-4.30227
-4.43308
-4.44056
-4.442
-4.55836
-4.59442
-4.56786
-4.6498
-4.58892
-4.78754
-4.81141
-4.83004
-4.93203
-4.95835
-4.90833
-4.93208
-4.94571
-5.08436
-5.10827
-5.0377
-5.0404
-5.21919
-5.21866
-5.246
-5.21219
-5.36854
-5.35954
-5.42323
-5.36256
-5.45537
-5.54097
-5.52326
-5.58023
-5.56819
-5.63119
-5.67654
-5.70154
-5.81349
-5.83623
-5.80264
-5.82409
579.697
435.891
407.854
407.342
390.441
368.273
360.072
366.718
381.016
377.843
374.623
375.985
375.727
387.028
368.089
368.824
393.221
360.757
521.68
486.914
330.356
352.551
357.286
348.651
354.773
363.683
359.471
366.858
370.555
375.075
373.107
371.756
379.567
363.994
368.685
381.912
380.487
498.958
328.421
342.842
243.553
208.841
350.041
357.57
355.966
361.516
375.559
377.87
375.264
372.04
367.961
372.033
359.522
352.237
384.601
357.218
191.084
248.307
235.074
294.392
162.17
280.765
298.837
334.448
358.178
380.314
375.808
376.318
372.647
368.702
363.768
355.887
340.149
369.099
330.543
324.853
197.584
23.7168
179.234
125.459
177.435
251.279
193.935
308.614
365.075
371.192
372.44
363.83
354.447
350.854
334.636
310.791
303.544
480.735
593.802
89.4482
24.6013
86.0623
18.3809
134.73
109.06
172.131
216.547
316.888
331.458
349.02
348.505
345.936
343.251
328.32
320.346
383.675
483.186
642.444
20.3394
33.6896
-5.39713
31.3515
36.2518
52.8107
97.3859
112.063
154.99
218.408
222.74
296.89
288.901
284.164
306.642
337.515
395.201
539.124
558.975
10.3405
2.7982
6.35963
8.31904
14.3977
18.4855
43.4239
57.1352
106.745
122.89
239.707
247.951
342.001
312.17
360.096
285.607
420.291
522.916
550.452
1.95001
2.29612
3.29531
3.08272
5.71371
11.7886
23.4209
43.1153
51.1426
88.8973
175.146
226.55
243.175
306.42
218.548
299.736
363.077
471.145
450.975
1.11646
1.30538
2.12316
4.40132
6.23868
3.54278
21.4745
27.2101
47.6298
61.8742
142.091
147.256
203.856
192.262
245.838
332.239
357.258
396.328
429.079
0.0227806
1.35938
0.979853
2.10138
2.1609
0.683297
9.47846
13.014
65.7772
57.0575
126.685
132.624
165.072
180.055
212.866
261.71
273.493
332.622
345.698
-1.11194
-0.934223
-0.954075
-0.660456
1.55167
-1.20135
5.61996
12.2647
40.5681
-7.87662
87.5156
61.7457
98.4885
170.371
177.727
239.805
240.372
281.308
297.209
-2.26084
-3.15273
-2.04724
1.26026
6.17983
-2.52635
-5.45926
18.4079
18.5426
15.0921
-6.28779
56.4584
75.051
130.055
136.905
178.994
180.53
219.086
233.146
-2.23191
-2.23285
-1.92414
-1.31115
-0.839953
1.80682
-8.10497
-3.40564
6.55504
8.13637
5.41178
23.5091
39.3507
82.8625
104.221
134.267
147.031
167.18
180.986
-2.08084
-2.08649
-1.93044
-1.90642
-1.58434
-1.42042
-0.302802
-1.05912
0.621541
3.04189
2.38367
-4.48538
18.9987
61.341
55.345
84.5221
81.7026
113.441
133.427
-2.13263
-2.12114
-2.11472
-2.15609
-2.17401
-2.34214
-2.27252
-3.09596
-0.272023
-1.18683
-0.295818
8.93832
22.5009
17.5034
23.2431
56.2142
77.2384
78.9927
100.885
-2.21508
-2.22407
-2.2318
-2.25292
-2.46245
-2.52789
-2.64596
-2.26941
-2.07664
-2.33239
-4.30185
1.47087
6.418
15.3947
45.6018
45.8605
66.4303
65.3964
74.7337
-2.37629
-2.43552
-2.52338
-2.55061
-2.63529
-2.80175
-2.80999
-2.76879
-3.08398
-3.15869
-3.38596
-1.43243
5.19205
0.489332
-1.01806
10.3769
38.8003
39.7353
45.7598
-2.4559
-2.57895
-2.60272
-2.63598
-2.71944
-2.79871
-2.97533
-3.00951
-3.22277
-3.52331
-2.94848
-3.10405
-0.779425
5.06538
12.885
18.3121
26.1679
23.9547
28.872
-2.67701
-2.68546
-2.72902
-2.75464
-2.79962
-2.90113
-2.92729
-3.01733
-3.11964
-3.06447
-3.02982
-2.00242
-3.22121
-0.223185
6.03225
3.17615
17.5366
24.7614
16.6868
-2.79148
-2.88114
-2.95283
-2.97901
-3.03346
-3.04381
-3.10931
-3.2415
-3.13095
-3.108
-3.11851
-2.92173
-3.33539
-4.81113
-0.855268
4.83378
16.3259
20.756
17.1959
-2.9856
-2.93906
-2.95082
-2.9687
-3.03409
-3.13618
-3.21421
-3.19034
-3.29269
-3.19707
-3.33829
-3.72223
-2.90405
-1.15902
0.299698
1.71851
9.0418
15.2855
17.443
-3.05724
-3.10719
-3.17009
-3.20889
-3.20604
-3.31939
-3.32668
-3.40498
-3.34635
-3.33246
-3.62072
-3.68298
-3.67831
-2.69642
-1.42225
-1.42446
3.39164
8.97428
10.3144
-3.19748
-3.25529
-3.22455
-3.31933
-3.3249
-3.41849
-3.46279
-3.37867
-3.37058
-3.62135
-3.5293
-3.4848
-3.37013
-5.01227
-1.34039
-1.85428
2.88366
3.3651
6.71317
-3.37666
-3.37312
-3.48767
-3.41883
-3.52338
-3.57415
-3.60854
-3.64473
-3.54839
-3.67301
-3.75175
-3.50461
-3.63642
-2.22707
-1.99407
-0.919033
-0.0370499
-0.319822
8.17143
-3.47313
-3.51704
-3.55305
-3.60862
-3.6495
-3.66339
-3.67247
-3.74673
-3.78319
-3.8968
-3.8934
-3.97307
-4.07341
-4.11772
-2.20847
0.903439
-0.0670281
-3.45845
9.99955
-3.62889
-3.68255
-3.71069
-3.67981
-3.73957
-3.82253
-3.80348
-3.82019
-3.82965
-3.8912
-3.89624
-4.02825
-4.3134
-4.35862
-4.02546
-8.27383
-1.19743
-1.8891
7.1506
-3.78933
-3.80122
-3.77841
-3.84093
-3.87127
-3.9957
-3.97804
-4.10355
-4.12888
-4.19244
-4.34909
-4.41732
-4.59858
-5.465
-3.3933
-2.77614
-2.19529
-0.602607
3.86918
-3.88293
-3.99931
-3.96342
-3.98871
-4.04877
-4.05695
-4.07912
-4.09273
-4.16787
-4.06438
-4.45373
-4.37404
-4.19977
-4.54903
-7.32652
-4.80822
-4.53372
0.557149
0.684769
-3.958
-4.08584
-4.07681
-4.0843
-4.13297
-4.18269
-4.20189
-4.36859
-4.26939
-4.30335
-4.59648
-4.43536
-4.93137
-4.99927
-4.4361
-0.914295
-1.43975
-3.15328
-0.604209
-4.19361
-4.24238
-4.30833
-4.24899
-4.33125
-4.32152
-4.39692
-4.60123
-4.55959
-4.4998
-4.58483
-4.51086
-4.42541
-4.41568
-4.16068
-4.34759
-6.54381
-3.39911
-2.49605
-4.33888
-4.34748
-4.38748
-4.36479
-4.46453
-4.45795
-4.64032
-4.47972
-4.49101
-4.59714
-4.56317
-4.62099
-4.64338
-4.71539
-3.82405
-4.12438
-3.89811
-5.1743
-2.4694
-4.51295
-4.49063
-4.56607
-4.59803
-4.61247
-4.6808
-4.69738
-4.53556
-4.77643
-4.7062
-4.80759
-4.5852
-4.74632
-5.21245
-5.00233
-2.9891
-2.40485
-6.59387
-6.05869
-4.66548
-4.54674
-4.76818
-4.52956
-4.86135
-4.85752
-4.92647
-4.7659
-4.92308
-4.96805
-4.75052
-4.84625
-5.3079
-5.60756
-4.72903
-3.61028
-5.18497
-2.96836
-7.45916
-4.73379
-4.83441
-4.76013
-5.04074
-4.76209
-5.124
-5.27949
-4.77315
-5.01382
-4.90465
-5.09573
-5.23743
-4.99971
-6.13683
-5.1291
-3.30215
-4.04708
-2.70273
-5.81778
-4.87155
-5.01771
-4.91757
-4.92641
-5.21124
-5.37653
-5.28727
-5.10847
-5.14096
-5.38833
-5.38911
-5.44346
-5.29067
-6.56125
-6.6424
-3.76804
-4.74911
-4.96826
-7.33596
-5.12648
-5.29656
-5.12948
-5.22576
-5.17517
-5.72633
-5.25388
-5.30705
-5.22751
-5.8006
-5.91645
-5.49169
-5.60028
-6.0611
-5.53852
-2.66594
-4.39198
-5.80598
8.02701
-5.30417
-5.20135
-5.51499
-5.32808
-5.55266
-5.66063
-5.49078
-5.5158
-5.67452
-6.02267
-6.05737
-5.67632
-5.85382
-6.85044
-6.77883
-3.83929
-4.98435
-5.39738
-25.0395
-5.3597
-5.3968
-5.67797
-5.54343
-5.66197
-6.40334
-5.82603
-6.00908
-5.91755
-6.32463
-6.4187
-6.07914
-6.22177
-6.116
-6.60414
-5.86539
-7.5705
-2.81307
-6.27228
-5.58835
-5.72381
-5.96292
-6.17142
-6.21376
-6.02863
-6.11242
-6.25344
-6.38792
-6.23829
-6.24992
-5.96108
-6.11554
-7.02492
-6.56763
-6.90511
-7.61366
-4.20217
-13.6469
-5.75226
-5.82757
-6.19378
-6.28311
-6.60979
-6.38959
-6.40356
-6.58626
-6.40597
-6.40527
-6.42218
-6.43134
-6.49747
-6.23609
-7.09983
-7.8286
-9.18447
-19.8988
-38.5734
-5.89405
-6.28367
-6.11658
-6.32369
-6.60609
-6.90012
-6.82675
-6.6699
-6.5867
-6.78316
-6.61909
-6.684
-6.78881
-7.09143
-7.26203
-8.4028
-11.2281
-25.6042
-69.412
)
;

boundaryField
{
    leftWall
    {
        type            calculated;
        value           nonuniform List<scalar> 
50
(
646.855
587.78
528.431
469.004
409.361
350.093
291.13
233.649
152.143
61.225
17.2755
4.93739
1.38304
0.16735
-0.277563
-0.501292
-0.634156
-0.780629
-0.910576
-1.06712
-1.19725
-1.35747
-1.48106
-1.6615
-1.81954
-1.97949
-2.11557
-2.28261
-2.3915
-2.60724
-2.71188
-2.86428
-3.03221
-3.18854
-3.34637
-3.50402
-3.66168
-3.81842
-3.97279
-4.12824
-4.28508
-4.43699
-4.5947
-4.74371
-4.90412
-5.04764
-5.21361
-5.34917
-5.52299
-5.6505
)
;
    }
    rightWall
    {
        type            calculated;
        value           nonuniform List<scalar> 
50
(
1163.02
1080.69
975.818
853.153
722.329
590.134
458.866
438.279
521.68
498.958
191.084
324.853
593.802
642.444
558.975
550.452
450.975
429.079
345.698
297.209
233.146
180.986
133.427
100.885
74.7337
45.7598
28.872
16.6868
17.1959
17.443
10.3144
6.71317
8.17143
9.99955
7.1506
3.86918
0.684769
-0.604209
-2.49605
-2.4694
-6.05869
-7.45916
-5.81778
-7.33596
8.02701
-25.0395
-6.27228
-13.6469
-38.5734
-69.412
)
;
    }
    lowerWall
    {
        type            calculated;
        value           nonuniform List<scalar> 
62
(
676.284
675.792
674.813
666.644
668.138
657.919
662.971
659.687
672.637
681.751
723.3
750.188
756.678
777.14
801.861
818.378
864.525
857.845
909.938
931.349
971.515
978.396
1000.43
971.005
911.353
860.479
798.802
738.553
683.492
624.403
575.808
543.417
479.279
583.315
560.538
661.532
630.192
577.383
557.799
547.822
565.92
569.76
581.642
663.003
487.945
404.214
411.097
423.368
435.713
437.863
429.965
415.799
411.452
426.245
450.783
475.705
519.016
422.146
405.824
578.547
751.275
1172.47
)
;
    }
    atmosphere
    {
        type            calculated;
        value           nonuniform List<scalar> 
46
(
-5.73306
-5.73331
-5.73363
-5.73348
-5.73418
-5.73384
-5.73509
-5.73449
-5.73639
-5.73589
-5.73852
-5.7381
-5.74118
-5.73954
-5.74285
-5.74276
-5.74503
-5.7481
-5.76797
-5.77057
-5.77926
-5.82029
-5.80058
-5.84285
-5.868
-5.87844
-5.88842
-5.95837
-6.20697
-6.28504
-6.36179
-6.62875
-6.79051
-6.971
-6.94134
-6.92716
-6.86064
-6.79274
-6.78357
-6.82628
-6.91766
-6.9957
-8.25699
-15.4958
-35.5334
-202.569
)
;
    }
    defaultFaces
    {
        type            empty;
    }
}


// ************************************************************************* //
