/*--------------------------------*- C++ -*----------------------------------*\
| =========                 |                                                 |
| \\      /  F ield         | foam-extend: Open Source CFD                    |
|  \\    /   O peration     | Version:     4.1                                |
|   \\  /    A nd           | Web:         http://www.foam-extend.org         |
|    \\/     M anipulation  |                                                 |
\*---------------------------------------------------------------------------*/
FoamFile
{
    version     2.0;
    format      ascii;
    class       volScalarField;
    location    "0.45";
    object      pd;
}
// * * * * * * * * * * * * * * * * * * * * * * * * * * * * * * * * * * * * * //

dimensions      [1 -1 -2 0 0 0 0];

internalField   nonuniform List<scalar> 
2268
(
676.284
675.792
674.813
666.644
668.138
657.919
662.971
659.687
672.637
681.751
723.3
750.188
756.678
777.14
801.861
818.378
864.525
857.845
909.938
931.349
971.515
978.396
1000.43
676.068
675.557
674.472
666.278
667.748
657.547
661.944
658.549
670.651
678.014
737.494
736.803
754.631
774.048
801.601
817.856
870.806
849.833
909.013
920.615
976.21
979.22
999.631
675.578
675.02
673.847
665.776
666.66
656.281
662
657.611
672.957
673.376
729.47
732.478
754.736
771.346
799.787
812.7
865.413
855.842
912.281
933.41
970.753
972.676
1007.61
674.86
674.203
672.458
664.587
665.173
654.771
658.442
652.434
662.376
694.924
712.786
726.815
750.529
770.052
799.71
813.14
856.407
866.272
911.151
922.515
968.716
985.612
1004.8
673.207
672.335
670.191
662.868
661.984
651.27
657.703
653.552
654.953
692.1
704.247
720.809
746.31
764.803
795.066
814.17
854.568
871.568
911.962
931.802
961.152
973.771
1003.42
670.079
668.835
665.41
658.555
656.845
647.29
645.443
640.179
664.636
673.747
693.748
712.278
739.272
761.514
792.596
813.619
851.65
871.843
908.505
919.286
972.864
974.613
1007.22
662.782
661.049
656.774
650.737
647.329
633.44
646.075
622.136
648.799
657.148
678.053
699.062
726.947
747.963
787.692
812.681
843.724
881.312
904.913
943.166
957.605
973.412
1006.99
647.036
644.538
638.466
630.241
624.841
617.231
607.345
607.243
614.746
627.398
651.462
677.909
711.6
741.66
778.049
808.933
849.319
874.752
910.813
918.343
982.087
983.689
1017.15
663.003
487.945
404.214
411.097
423.368
435.713
437.863
429.965
415.799
411.452
426.245
450.783
475.705
519.016
422.146
405.824
578.547
751.275
1172.47
634.431
397.259
363.317
401.052
415.996
438.239
439.261
428.778
419.542
411.039
415.673
431.251
448.042
500.592
451.951
433.25
468.306
680.786
1110.17
584.021
360.085
368
399.236
420.211
433.87
433.027
424.671
410.428
400.336
406.069
427.898
456.585
484.023
475.252
484.086
467.117
634.796
1025.68
566.671
347.839
369.748
398.328
421.596
430.859
428.946
414.415
406.353
395.833
395.78
410.753
452.779
479.61
462.635
474.278
422.831
552.831
922.965
558.967
371.696
379.033
399.683
421.873
430.441
423.384
404.427
400.667
391.756
391.31
402.357
433.677
461.377
475.005
429.505
408.293
502.328
811.843
578.2
399.824
384.814
407.531
424.058
432.727
415.285
401.367
398.309
390.489
385.118
394.542
420.207
448.904
464.186
438.646
401.147
465.84
699.929
578.216
431.548
397.084
421.944
439.412
436.616
402.884
392.94
395.381
387.505
381.657
389.311
411.015
437.837
453.971
431.459
408.659
437.429
589.69
598.501
464.977
446.398
472.344
460.238
405.33
402.562
392.469
393.287
388.991
379.585
385.505
402.319
425.566
432.966
429.658
415.742
425.617
591.374
597.383
594.096
583.713
578.923
568.973
528.467
550.704
522.542
533.6
549.663
581.058
618.265
659.008
707.648
743.54
799.096
833.631
883.544
908.562
947.888
966.685
972.302
980.273
403.035
396.28
382.272
345.452
347.018
306.934
301.956
288.671
293.217
313.186
354.761
419.526
503.224
584.691
661.806
732.108
799.895
852.245
889.882
947.97
966.582
1002.87
1026.47
147.143
144.204
137.712
119.061
120.017
105.637
101.92
95.4654
98.7055
108.145
128.134
166.178
221.964
297.792
392.149
513.335
645.712
752.319
866.205
930.58
989.793
988.499
1072.84
47.0938
46.4272
44.5004
39.077
39.3628
34.74
33.0334
31.2227
33.8059
39.2893
49.5728
61.7018
82.5245
119.24
167.731
236.742
337.276
472.676
652.551
821.311
913.119
973.493
1034.75
16.5962
16.4533
15.88
14.4933
14.271
12.6844
12.0919
11.6228
13.1437
16.0569
20.7558
25.3089
29.0347
47.1012
63.2308
90.9597
125.123
193.172
333.06
537.379
767.529
839.66
880.543
6.47852
6.41535
6.16798
5.76636
5.55139
4.97727
4.85355
4.79938
5.60286
6.85186
9.03923
10.4584
11.0542
19.335
23.5011
34.4772
45.6746
71.5378
138.207
264.163
485.776
472.438
506.128
2.71563
2.67674
2.58728
2.4096
2.32467
2.0958
2.12963
2.20234
2.49473
3.05671
3.85444
4.34948
4.71546
7.39148
7.9128
10.0153
13.4194
19.7308
41.6774
71.9305
135.205
135.198
148.12
1.30983
1.27358
1.21488
1.20433
1.11815
1.12104
1.05698
1.12058
1.09721
1.30395
1.39546
1.56237
1.67865
2.54193
2.80357
3.05412
4.389
6.24959
13.2837
18.26
30.3744
30.3229
35.2289
0.900867
0.889626
0.901485
0.942262
0.890842
0.968679
0.924506
0.972233
0.941521
0.964639
0.90546
0.980756
0.952061
1.0906
1.067
1.33387
1.93174
2.74481
4.72577
5.61392
4.85632
4.49622
6.81622
0.879589
0.881507
0.880725
0.899226
0.882572
0.91331
0.909193
0.913188
0.926922
0.922982
0.898315
0.957832
0.942913
0.918639
0.975386
0.951839
1.22916
1.43135
1.82646
1.45759
0.935234
0.877756
2.04759
0.874836
0.877987
0.878827
0.894821
0.874024
0.924409
0.862358
0.92578
0.903437
0.909544
0.90672
0.897111
0.935608
0.933376
0.939057
0.974672
0.951983
1.00005
0.912062
0.824376
1.04921
0.874756
1.62471
0.843489
0.84974
0.845875
0.856595
0.865305
0.843087
0.853066
0.895708
0.866527
0.84812
0.887456
0.873166
0.893169
0.878897
0.922543
0.863118
0.977807
0.960484
0.889813
1.02991
1.11228
0.835787
1.37739
0.838551
0.844792
0.842904
0.85936
0.827774
0.864914
0.808852
0.849854
0.813437
0.861417
0.855331
0.82632
0.843296
0.853142
0.829772
0.87804
0.826878
0.938223
0.766985
0.842511
0.799579
0.982252
1.08753
0.803527
0.809477
0.826175
0.805674
0.847904
0.784291
0.852417
0.803732
0.787997
0.830631
0.760208
0.825281
0.743957
0.779162
0.804617
0.780734
0.78233
0.885702
0.825712
0.858371
0.894645
0.830662
0.826809
0.805135
0.799061
0.794462
0.811665
0.793219
0.829569
0.743913
0.811982
0.764032
0.790867
0.764133
0.784621
0.758555
0.801312
0.761813
0.783096
0.769244
0.702451
0.792737
0.77593
0.794912
0.764297
0.687309
0.751046
0.747546
0.757834
0.744497
0.77019
0.755958
0.78489
0.775404
0.747033
0.759707
0.733756
0.77266
0.706962
0.752508
0.711269
0.728906
0.688531
0.75026
0.718435
0.707566
0.704379
0.697837
0.64892
0.717616
0.72629
0.720771
0.731535
0.714987
0.720315
0.713357
0.707211
0.727118
0.721059
0.709702
0.69382
0.675676
0.699661
0.673016
0.698297
0.679572
0.662079
0.664981
0.64792
0.64961
0.568002
0.558384
0.682384
0.671828
0.669212
0.685644
0.691261
0.694588
0.694141
0.698721
0.670075
0.678485
0.669194
0.691505
0.633374
0.629959
0.63768
0.613886
0.621221
0.605598
0.621451
0.601787
0.587638
0.553698
0.502232
0.671399
0.672146
0.663528
0.662297
0.640457
0.660048
0.647731
0.671838
0.634387
0.642765
0.664257
0.60835
0.622782
0.623029
0.584332
0.581413
0.564864
0.574932
0.562626
0.550359
0.531939
0.489106
0.457683
0.629553
0.625919
0.632408
0.636311
0.635151
0.644062
0.634798
0.609573
0.601682
0.618263
0.573603
0.624332
0.566119
0.564801
0.55753
0.550939
0.545238
0.536424
0.530573
0.518665
0.487156
0.474798
0.40404
0.645861
0.625039
0.628178
0.617034
0.608719
0.611817
0.595616
0.612906
0.574377
0.559969
0.576637
0.523255
0.538869
0.537056
0.523863
0.518623
0.510707
0.502749
0.496898
0.478803
0.463764
0.441659
0.413805
0.555312
0.574398
0.565692
0.590548
0.575487
0.586585
0.593302
0.564337
0.566105
0.555681
0.541435
0.560618
0.496418
0.499075
0.493265
0.48772
0.484148
0.475872
0.466645
0.455178
0.428751
0.407724
0.380614
0.57587
0.575057
0.581552
0.564799
0.561542
0.556446
0.536188
0.532427
0.514455
0.520098
0.521712
0.463253
0.4979
0.473165
0.468353
0.460677
0.454302
0.443253
0.428604
0.431834
0.412997
0.383398
0.369545
0.548665
0.541425
0.52247
0.533111
0.531016
0.523648
0.521608
0.516111
0.50135
0.505162
0.476517
0.484766
0.467104
0.443974
0.449837
0.454486
0.414487
0.42565
0.405535
0.393367
0.385831
0.363638
0.344676
0.505925
0.507878
0.506336
0.500952
0.49503
0.494381
0.488794
0.484258
0.477624
0.48524
0.468248
0.47197
0.45833
0.422998
0.433252
0.413902
0.397066
0.376656
0.385981
0.382912
0.351676
0.329784
0.301106
0.474785
0.474028
0.472087
0.472689
0.471357
0.464405
0.460862
0.455018
0.461915
0.444177
0.437573
0.420541
0.418956
0.394467
0.396857
0.390216
0.365484
0.358196
0.352676
0.324667
0.324264
0.302358
0.287575
0.442158
0.442121
0.440703
0.435807
0.435626
0.430583
0.429063
0.421954
0.421885
0.410771
0.412655
0.396888
0.400836
0.373471
0.385731
0.351172
0.358424
0.3199
0.33779
0.33515
0.287569
0.276244
0.246666
0.409701
0.410352
0.407324
0.407275
0.405092
0.403706
0.400262
0.394363
0.391903
0.381556
0.384034
0.367526
0.384651
0.342984
0.360024
0.28651
0.329468
0.281093
0.304469
0.267564
0.273995
0.234978
0.217305
0.377235
0.376519
0.376358
0.374527
0.374261
0.370445
0.368662
0.36384
0.363672
0.355425
0.359531
0.341492
0.339575
0.324717
0.323286
0.294176
0.329394
0.248307
0.294929
0.27321
0.267151
0.200723
0.184002
0.345688
0.345895
0.345148
0.344003
0.342019
0.34017
0.33725
0.334299
0.331867
0.328136
0.33079
0.315199
0.305018
0.299061
0.278851
0.285029
0.2183
0.272093
0.187615
0.254294
0.164437
0.245158
0.116868
0.316516
0.315163
0.314288
0.312762
0.311429
0.309309
0.307128
0.304564
0.301477
0.298135
0.293843
0.28966
0.279678
0.282122
0.257474
0.264223
0.236723
0.237064
0.236369
0.226457
0.188038
0.172241
0.125447
0.286256
0.285907
0.285385
0.284079
0.282453
0.280859
0.27811
0.276272
0.272017
0.270075
0.263721
0.262556
0.249446
0.256349
0.217473
0.212314
0.19269
0.228371
0.15125
0.17071
0.160469
0.193028
0.0775864
0.254616
0.25428
0.253835
0.252923
0.251578
0.250337
0.247845
0.246511
0.242772
0.241393
0.235594
0.234493
0.224673
0.2257
0.208509
0.208333
0.225527
0.15803
0.16968
0.178965
0.0965438
0.209606
0.0530541
0.227901
0.227356
0.22697
0.225934
0.224603
0.223393
0.22103
0.219926
0.216128
0.215173
0.209891
0.20869
0.205882
0.189498
0.188589
0.173051
0.130415
0.156765
0.102975
0.155963
0.0231758
0.122522
0.0697086
0.195383
0.195068
0.194769
0.194132
0.193205
0.192494
0.190856
0.189959
0.187642
0.186562
0.184306
0.182148
0.184227
0.174397
0.147836
0.173352
0.132022
0.167838
0.0984425
0.188522
0.0718423
0.0861274
0.0574122
0.171567
0.171243
0.170756
0.170212
0.168749
0.1684
0.165606
0.16604
0.161023
0.164409
0.153854
0.164422
0.144472
0.143883
0.13832
0.123624
0.12709
0.0975115
0.0885825
0.0354726
0.0508032
0.0397399
0.0228025
0.136349
0.136255
0.135883
0.135833
0.134742
0.135078
0.133004
0.134009
0.13077
0.131693
0.127646
0.138634
0.119737
0.129158
0.121259
0.140463
0.094791
0.109797
0.0594622
0.0642788
0.100005
-0.0106981
0.06267
0.118023
0.117905
0.117227
0.117199
0.115381
0.115834
0.112242
0.113937
0.106806
0.118218
0.0974002
0.10975
0.0832995
0.111829
0.077003
0.0946156
0.0692045
0.0694667
0.0446079
0.0412476
0.0223451
-0.0316734
0.0586621
0.0772518
0.0773421
0.076741
0.0774102
0.0758299
0.0778965
0.074481
0.0801645
0.0724649
0.0794645
0.0688661
0.0836112
0.0569817
0.0930424
0.0492794
0.0956832
0.0625892
0.0638318
0.0519364
0.0531317
0.0123037
-0.0473835
0.00965678
0.0668823
0.0669294
0.0662846
0.0665055
0.0648989
0.0655851
0.0625444
0.0641904
0.0586306
0.0624914
0.0520115
0.0573509
0.040828
0.0542825
0.0295248
0.0318507
0.0193467
0.0316117
-0.00107401
-0.00452149
0.0125444
-0.0576014
-0.0576251
0.0182627
0.0182519
0.0173723
0.017937
0.0163144
0.0174594
0.0146394
0.0166661
0.0126768
0.0172888
0.0115346
0.0229619
0.0137073
0.0451531
0.0232239
0.0512716
0.0532261
0.050056
0.0280819
0.00295651
-0.0131848
-0.0197856
-0.0438856
0.0159407
0.0159015
0.0159764
0.0158009
0.0156274
0.015509
0.0151797
0.0149776
0.0140566
0.0118322
0.0107594
0.00406708
0.00262617
-0.0164707
-0.0110157
-0.0287749
-0.0407075
-0.0307577
-0.0638018
-0.0391835
-0.0490723
-0.133668
-0.0719194
1014.29
950.149
1054.18
974.482
1057.79
1066.14
1124.38
1086.91
1080.81
1013.01
1148.08
1111.89
1061.76
1075.76
1096.36
1119.85
956.596
958.912
990.981
999.058
519.891
539.878
584.497
632.017
164.784
183.492
208.669
245.163
47.7445
59.2205
71.4141
90.4828
14.2026
19.5153
25.8209
33.1725
5.61196
7.47124
9.58301
11.0456
1.45688
1.76425
2.65803
2.91041
2.03781
3.37995
5.41404
8.47865
0.47908
0.531555
1.11938
2.02536
0.530621
0.361441
0.176238
0.0992691
0.591272
0.495681
0.408999
0.34363
0.474403
0.445091
0.416197
0.355975
0.485914
0.433849
0.386607
0.384801
0.451914
0.42623
0.38563
0.357657
0.426653
0.41406
0.389042
0.355327
0.363396
0.350066
0.335135
0.319968
0.374271
0.361166
0.276476
0.261833
0.35271
0.324842
0.338314
0.316607
0.323527
0.30816
0.257065
0.216446
0.317118
0.285162
0.273814
0.262827
0.270637
0.254363
0.232717
0.209576
0.259848
0.253732
0.24651
0.231319
0.22828
0.199933
0.1764
0.156132
0.204655
0.193023
0.190346
0.174601
0.175184
0.153492
0.148364
0.119051
0.143138
0.109852
0.101251
0.0294693
0.134734
0.122724
0.119378
0.105121
0.0893145
0.0779182
0.0253063
0.112311
0.106722
0.0992462
0.0977059
-0.0186697
0.070469
0.0970263
0.0150907
0.0759713
0.00254512
-0.0213278
-0.0399587
-0.141949
-0.0430756
0.0069422
-0.0168062
-0.0304375
-0.0438862
-0.0678023
0.0027657
7.1394e-05
-0.0535276
-0.0529921
-0.0803393
-0.0465251
-0.077681
-0.0686841
-0.132372
-0.0717032
-0.0393138
-0.124915
-0.10721
-0.164176
-0.0269424
-0.0899467
-0.135289
-0.160289
-0.147044
-0.169785
-0.136195
-0.157649
745.966
617.508
637.237
573.95
477.749
414.704
387.525
381.458
390.823
385.054
377.863
381.804
398.426
417.704
402.524
416.383
432.628
421.468
711.918
1103.23
910.447
877.037
612.511
541.175
466.456
408.068
369.015
376.893
378.23
378.263
377.148
393.921
414.967
395.577
412.952
421.198
448.475
746.526
1112.28
1124.17
1006.45
887.552
945.283
781.688
533.701
371.953
380.115
382.079
377.092
374.328
393.07
413.898
383.812
390.467
442.245
491.203
510.688
1129.84
1122.8
1186.01
1042.82
1127.65
1083.98
932.944
468.773
397.045
376.717
377.227
373.556
404.852
428.878
399.398
434.764
607.263
737.034
809.964
1106.76
921.173
1106.19
1068.93
1123.59
1204.12
1114.88
959.83
698.209
442.455
373.475
364.865
395.945
461.425
415.976
441.579
648.27
1040.12
1170.66
831.282
653.421
826.492
709.911
884.687
983.101
1130.95
1165.85
1170.72
853.873
484.784
393.865
424.009
500.915
533.24
616.134
872.752
1146.06
1310.44
391.457
360.671
279.905
258.968
313.913
486.54
761.389
915.99
1105.05
1066.3
785.949
625.916
613.602
674.601
889.631
1135.56
1276.21
1401.1
1326.72
132.268
109.4
88.362
76.0616
102.739
183.765
350.488
485.411
903.711
948.122
980.684
932.699
1014.23
990.73
1111.14
1195.84
1399.75
1465.7
1375.3
42.6262
22.9519
18.5849
16.3291
36.5063
85.4924
163.015
238.821
399.497
594.689
743.645
818.677
860.769
974.653
1007.47
1261.19
1409.88
1479.86
1304.37
10.8124
3.32075
4.9818
12.7224
29.7697
53.4424
116.517
177.025
270.078
339.536
435.32
499.629
603.989
651.574
956.786
1290.07
1455.99
1455.6
1292.7
3.55217
5.18659
10.6989
20.797
35.2206
55.3847
99.5216
147.873
252.202
293.472
418.143
519.917
597.229
617.248
806.275
1144.95
1408.34
1446.52
1230.54
14.2109
25.5209
38.1903
52.7765
75.7593
95.0463
127
166.878
226.94
219.016
427.457
554.627
750.596
913.497
960.894
1263.6
1479.25
1479.02
1217.95
2.58956
3.21156
7.4003
19.8328
42.0693
58.8114
93.0013
143.206
158.109
166.609
221.999
497.98
815.989
1140.22
1263.63
1422.61
1528.18
1493.73
1190.85
-0.0116226
-0.0718573
0.875854
4.81919
13.099
34.3205
49.2449
65.3654
66.8101
62.5058
94.8383
218.101
440.709
894.203
1204.05
1363.28
1524.88
1483.88
1161.64
0.205351
0.199697
0.436283
1.82056
6.67792
17.1376
27.0633
29.5009
28.572
35.0073
65.1932
121.882
287.522
545.477
808.315
1033.04
1302.3
1390.81
1113.9
0.278754
0.290241
0.296663
0.454299
1.70516
5.00362
9.05289
9.31973
12.2432
16.15
38.8116
90.6618
168.15
257.177
488.974
756.477
1088.01
1253.33
1056.53
0.3215
0.31251
0.304784
0.28366
0.21763
0.772566
2.25811
3.53363
6.83188
13.6165
28.4815
63.4136
103.42
183.953
374.949
609.809
954.066
1123.53
987.269
0.285494
0.227572
0.138397
0.111168
0.0264809
-0.100731
0.318499
1.03803
3.10191
8.21105
19.9933
34.8205
62.3739
102.66
214.721
435.914
823.439
994.325
917.141
0.331309
0.208474
0.184683
0.150985
0.067529
-0.0117397
-0.153826
-0.000567836
0.511357
1.34104
6.79605
16.9477
37.3164
80.8664
169.82
367.759
746.549
897.662
869.674
0.235172
0.226704
0.183147
0.157623
0.112546
0.0110364
-0.0151267
-0.0916168
-0.0587144
0.239779
2.24406
10.4646
21.0015
50.342
126.802
330.703
711.841
851.797
834.837
0.245874
0.156221
0.0845319
0.0584918
0.00428726
-0.00645547
-0.0719487
-0.204138
-0.0868931
0.151409
2.61505
9.24358
15.377
33.4224
89.2465
268.528
647.647
818.641
815.42
0.176953
0.223496
0.211728
0.194114
0.129954
0.0295946
-0.0452962
-0.0250171
-0.130139
0.119673
1.91118
6.5673
11.3236
27.0866
68.076
200.51
538.021
791.268
796.098
0.230505
0.180561
0.117656
0.0791781
0.0835816
-0.0254721
-0.0230631
-0.094245
-0.0530694
0.0621242
0.730996
1.70249
5.3674
20.9279
53.6478
136.3
397.6
755.09
767.225
0.215457
0.157654
0.188391
0.0936083
0.0890791
-0.000153654
-0.0296286
0.0846706
0.081139
-0.13126
0.300444
0.944864
5.51393
18.1305
49.0277
100.257
294.809
709.352
741.157
0.161478
0.165013
0.0504702
0.119308
0.0147544
-0.0319108
-0.0502014
-0.0488467
0.0625509
-0.0548574
0.0390839
2.09994
10.6906
27.6834
49.447
90.2219
239.371
661.567
722.005
0.190198
0.146292
0.110284
0.0547076
0.013826
-5.87421e-05
0.00225278
-0.0328841
-0.0281064
-0.117567
0.151076
2.03237
9.67757
26.0874
51.236
88.6089
213.107
617.216
704.788
0.159638
0.105972
0.0778315
0.108714
0.0489506
-0.0340024
-0.000114508
0.0310463
0.0828103
0.0691375
0.393669
2.08233
8.82623
23.9995
46.4611
75.8005
195.689
590.264
688.17
0.124413
0.112504
0.135306
0.0727904
0.0424462
-0.0819789
-0.0641938
-0.147055
-0.078733
-0.0120688
0.345212
2.31477
7.75757
19.3987
44.9435
78.2478
171.183
533.514
669.218
0.156043
0.0395995
0.0754988
0.0502087
-0.00985253
-0.018038
-0.0402088
-0.00121594
0.0283169
0.340358
0.726712
3.53888
9.52981
19.0558
39.2741
73.4502
154.501
484.49
652.477
0.206164
0.0782703
0.0872952
0.079812
0.0311359
-0.018583
-0.0314923
-0.105226
0.125727
0.384401
0.843197
2.80989
6.0928
17.569
45.2853
75.76
145.668
436.428
634.782
0.0956947
0.0469261
-0.0190223
0.0403139
-0.0419475
-0.0322171
-0.105842
-0.246177
-0.0666223
0.279556
0.841343
2.01646
5.87065
19.8189
45.8897
71.6383
137.288
414.33
621.817
0.0756218
0.0670178
0.0270185
0.0497065
-0.0500339
-0.0434501
-0.22582
-0.0453836
0.0617235
0.236566
0.812889
1.6078
4.75851
16.2651
43.673
77.5604
144.756
378.247
604.785
0.0267401
0.0490612
-0.0263818
-0.0583347
-0.0727782
-0.141107
-0.157686
0.0177292
-0.119245
0.158513
0.448786
1.94012
7.22502
23.7555
54.6846
92.1156
183.959
378.847
593.154
-0.00059009
0.118146
-0.103298
0.135331
-0.196465
-0.19263
-0.261579
-0.0863514
-0.187884
-0.0813767
0.571461
2.10181
7.67014
24.6642
57.6336
82.9013
136.289
315.458
575.416
0.0562898
-0.044325
0.0299559
-0.250661
0.027994
-0.333918
-0.473341
0.0536438
-0.148581
0.0596228
0.220626
1.55524
7.53923
25.2798
60.9619
80.3751
112.798
269.238
560.327
0.0437216
-0.102434
-0.00229036
-0.0111378
-0.295968
-0.449558
-0.319466
-0.105853
-0.115589
-0.302929
-0.0404038
1.196
6.09467
20.4346
53.7066
73.1371
94.15
229.901
531.292
-0.0860102
-0.256091
-0.0890127
-0.185286
-0.125232
-0.651314
-0.127149
-0.106939
0.00327358
-0.528131
-0.446152
0.891804
4.34782
17.0159
48.2981
74.4339
125.608
334.737
542.784
-0.138501
-0.035683
-0.349324
-0.130848
-0.323043
-0.400935
-0.173202
-0.0978085
-0.214528
-0.505236
-0.39952
0.485094
2.25795
9.05974
31.4913
63.2615
109.984
288.226
487.934
-0.0688418
-0.105942
-0.358788
-0.114499
-0.181304
-0.848991
-0.188763
-0.291297
-0.149526
-0.459303
-0.417705
0.224788
1.07784
5.88362
21.8475
53.0054
92.1451
234.251
473.204
-0.172299
-0.307756
-0.470422
-0.479991
-0.391811
-0.0289901
0.0420527
-0.11625
-0.191617
0.160137
0.362358
0.787946
1.07546
1.53265
7.61615
34.2684
71.8913
182.792
421.065
-0.211007
-0.281425
-0.507916
-0.373509
-0.44947
-0.0307526
0.199221
0.0264976
0.244071
0.329125
0.353814
0.40578
0.465824
1.06556
2.19505
13.8819
38.8371
99.7064
323.39
-0.227602
-0.606061
-0.25153
-0.211769
-0.16678
-0.183807
0.0680897
0.195592
0.264775
0.00251881
0.0994339
0.0212632
-0.0376786
-0.249352
-0.34308
-0.236593
4.09835
9.54097
130.944
)
;

boundaryField
{
    leftWall
    {
        type            zeroGradient;
    }
    rightWall
    {
        type            zeroGradient;
    }
    lowerWall
    {
        type            zeroGradient;
    }
    atmosphere
    {
        type            totalPressure;
        rho             rho;
        psi             none;
        gamma           1;
        p0              uniform 0;
        value           nonuniform List<scalar> 
46
(
-0.00402412
-0.00426593
-0.00458636
-0.00444034
-0.00514475
-0.00479831
-0.00604796
-0.00544554
-0.00734598
-0.0068489
-0.00947627
-0.00906479
-0.0121444
-0.0105041
-0.0138099
-0.0137199
-0.0159851
-0.0190536
-0.0388723
-0.0413044
-0.0498753
-0.0912508
-0.0715446
-0.113808
-0.138958
-0.149398
-0.159381
-0.229333
-0.466644
-0.355193
-0.182344
-0.118303
0
0
0
0
0
0
-0.00423591
-0.000569817
0
-0.000308005
-0.000564609
0
0
0
)
;
    }
    defaultFaces
    {
        type            empty;
    }
}


// ************************************************************************* //
