/*--------------------------------*- C++ -*----------------------------------*\
| =========                 |                                                 |
| \\      /  F ield         | foam-extend: Open Source CFD                    |
|  \\    /   O peration     | Version:     4.1                                |
|   \\  /    A nd           | Web:         http://www.foam-extend.org         |
|    \\/     M anipulation  |                                                 |
\*---------------------------------------------------------------------------*/
FoamFile
{
    version     2.0;
    format      ascii;
    class       surfaceScalarField;
    location    "0.45";
    object      phi;
}
// * * * * * * * * * * * * * * * * * * * * * * * * * * * * * * * * * * * * * //

dimensions      [0 3 -1 0 0 0 0];

internalField   nonuniform List<scalar> 
4432
(
3.36556e-06
-3.36556e-06
6.0069e-06
-2.64134e-06
9.43853e-06
-3.43163e-06
1.254e-05
-3.10151e-06
1.572e-05
-3.17991e-06
1.79334e-05
-2.21348e-06
1.99844e-05
-2.05101e-06
2.15164e-05
-1.53195e-06
2.2058e-05
-5.41631e-07
1.89783e-05
3.07969e-06
3.28042e-05
-1.38259e-05
3.4609e-05
-1.80481e-06
3.55667e-05
-9.5768e-07
3.52589e-05
3.0776e-07
3.39865e-05
1.2724e-06
3.23489e-05
1.63763e-06
3.37849e-05
-1.436e-06
3.00864e-05
3.69846e-06
2.6787e-05
3.29945e-06
2.12321e-05
5.55487e-06
1.62823e-05
4.9498e-06
8.34723e-06
7.93508e-06
8.34723e-06
3.34618e-06
-6.71173e-06
6.05717e-06
-5.35234e-06
9.50694e-06
-6.88139e-06
1.24447e-05
-6.03932e-06
1.56738e-05
-6.40895e-06
1.83288e-05
-4.86852e-06
2.06553e-05
-4.37747e-06
2.25148e-05
-3.39142e-06
2.26648e-05
-6.91672e-07
3.70653e-05
-1.13208e-05
3.5514e-05
-1.22746e-05
3.70969e-05
-3.38762e-06
3.74572e-05
-1.31797e-06
3.7048e-05
7.16902e-07
3.50447e-05
3.27574e-06
3.30683e-05
3.61402e-06
1.92505e-05
1.23818e-05
1.8396e-05
4.553e-06
1.57343e-05
5.96108e-06
1.99632e-05
1.32602e-06
1.43592e-05
1.05538e-05
9.24953e-06
1.30447e-05
1.75968e-05
3.13801e-06
-9.84974e-06
6.03443e-06
-8.24876e-06
9.59756e-06
-1.04445e-05
1.22788e-05
-8.72052e-06
1.59403e-05
-1.00705e-05
1.87942e-05
-7.72242e-06
2.07634e-05
-6.34672e-06
2.29634e-05
-5.59142e-06
2.22813e-05
-9.49805e-09
3.4696e-05
-2.37356e-05
3.36749e-05
-1.12535e-05
3.42462e-05
-3.95897e-06
3.36627e-05
-7.34447e-07
3.30851e-05
1.2945e-06
3.2152e-05
4.20879e-06
3.078e-05
4.98601e-06
3.34752e-05
9.68665e-06
3.16247e-05
6.4035e-06
2.83435e-05
9.24221e-06
2.34472e-05
6.22235e-06
1.87387e-05
1.52623e-05
8.41076e-06
2.33727e-05
2.60075e-05
2.91256e-06
-1.27623e-05
6.19268e-06
-1.15289e-05
9.88749e-06
-1.41393e-05
1.25154e-05
-1.13484e-05
1.62622e-05
-1.38173e-05
1.87567e-05
-1.02169e-05
2.16169e-05
-9.20694e-06
2.23474e-05
-6.3219e-06
3.61402e-05
-1.38023e-05
3.17099e-05
-1.93053e-05
3.02491e-05
-9.79261e-06
2.84902e-05
-2.20011e-06
2.70675e-05
6.88224e-07
2.60504e-05
2.31165e-06
2.60753e-05
4.18385e-06
2.53412e-05
5.72014e-06
2.66063e-05
8.42151e-06
2.59866e-05
7.02327e-06
2.511e-05
1.01187e-05
2.0584e-05
1.07484e-05
1.63533e-05
1.9493e-05
8.58615e-06
3.11398e-05
3.45937e-05
2.72071e-06
-1.5483e-05
6.24739e-06
-1.50556e-05
1.00317e-05
-1.79237e-05
1.28691e-05
-1.41858e-05
1.61052e-05
-1.70533e-05
1.81401e-05
-1.22518e-05
2.13919e-05
-1.24588e-05
2.14268e-05
-6.35678e-06
3.26689e-05
-2.50444e-05
2.85918e-05
-1.52282e-05
2.70129e-05
-8.21373e-06
2.51614e-05
-3.48545e-07
2.41049e-05
1.74472e-06
2.28706e-05
3.54588e-06
2.17881e-05
5.26637e-06
1.97945e-05
7.71375e-06
1.91439e-05
9.07209e-06
1.70884e-05
9.07877e-06
1.73137e-05
9.89351e-06
1.79903e-05
1.00717e-05
1.62285e-05
2.12549e-05
8.25845e-06
3.91098e-05
4.28521e-05
2.92828e-06
-1.84113e-05
6.57966e-06
-1.87069e-05
1.02077e-05
-2.15517e-05
1.2679e-05
-1.66572e-05
1.56489e-05
-2.00232e-05
1.88739e-05
-1.54768e-05
1.96355e-05
-1.32204e-05
3.12821e-05
-1.80034e-05
2.77528e-05
-2.15151e-05
2.67653e-05
-1.42407e-05
2.5089e-05
-6.53738e-06
2.39195e-05
8.20947e-07
2.25482e-05
3.11603e-06
2.07723e-05
5.32176e-06
1.9621e-05
6.4176e-06
1.77664e-05
9.56838e-06
1.72576e-05
9.58087e-06
1.64952e-05
9.84123e-06
1.53116e-05
1.1077e-05
7.09007e-06
1.82933e-05
1.49278e-05
1.34172e-05
7.93508e-06
4.61025e-05
5.07872e-05
3.24467e-06
-2.1656e-05
6.62866e-06
-2.20909e-05
9.88639e-06
-2.48094e-05
1.24956e-05
-1.92664e-05
1.56688e-05
-2.31964e-05
1.71649e-05
-1.69728e-05
1.69381e-05
-1.29936e-05
2.75704e-05
-2.86357e-05
2.6752e-05
-2.06967e-05
2.618e-05
-1.36687e-05
2.48542e-05
-5.21163e-06
2.42229e-05
1.45227e-06
2.27383e-05
4.60064e-06
1.95939e-05
8.46611e-06
1.84459e-05
7.56567e-06
1.7139e-05
1.08752e-05
1.54231e-05
1.12968e-05
1.45046e-05
1.07597e-05
1.28391e-05
1.27426e-05
1.57074e-05
1.5425e-05
8.16903e-06
2.09556e-05
7.90955e-06
4.6362e-05
5.86967e-05
3.55366e-06
-2.52096e-05
6.82145e-06
-2.53587e-05
9.87172e-06
-2.78597e-05
1.2391e-05
-2.17856e-05
1.56676e-05
-2.64731e-05
1.57788e-05
-1.7084e-05
2.75179e-05
-2.47328e-05
2.65628e-05
-2.76805e-05
2.6895e-05
-2.10289e-05
2.64685e-05
-1.32422e-05
2.50192e-05
-3.7624e-06
2.36087e-05
2.86278e-06
2.17972e-05
6.41216e-06
1.98815e-05
1.03818e-05
1.86995e-05
8.7476e-06
1.73194e-05
1.22554e-05
1.65429e-05
1.20732e-05
1.67342e-05
1.05685e-05
1.5485e-05
1.39917e-05
7.19474e-06
2.37153e-05
1.57096e-05
1.24407e-05
1.40857e-05
4.79858e-05
7.27825e-05
-0.000225988
0.000225988
-0.00042734
0.000201354
-0.000447523
2.01825e-05
-0.00041475
-3.27736e-05
-0.000378639
-3.61103e-05
-0.000348304
-3.03354e-05
-0.000328755
-1.95489e-05
-0.000312984
-1.57711e-05
-0.000299799
-1.3185e-05
-0.000285333
-1.44661e-05
-0.000268393
-1.69401e-05
-0.000246292
-2.21013e-05
-0.000223768
-2.2524e-05
-0.000202795
-2.0973e-05
-0.000126507
-7.62876e-05
-0.000120002
-6.50506e-06
-0.000179669
5.96671e-05
-0.000120449
-5.92202e-05
-0.000120449
-0.000155225
0.000381213
-0.000213008
0.000259137
-0.000141434
-5.13918e-05
-0.000110671
-6.35371e-05
-4.97817e-05
-9.69991e-05
-7.44463e-05
-5.67066e-06
-9.42842e-05
2.89043e-07
-0.000128842
1.87869e-05
-0.000142048
2.11667e-08
-0.000148312
-8.20227e-06
-0.000136827
-2.84256e-05
-0.000120385
-3.85428e-05
-6.75974e-05
-7.53118e-05
-7.77192e-05
-1.08513e-05
-0.000108095
-4.59122e-05
-0.000118208
3.60843e-06
-8.94409e-05
3.08998e-05
-8.5994e-05
-6.26672e-05
-0.000206443
-8.37624e-05
0.000464974
-0.000114387
0.000289762
-9.94955e-05
-6.62838e-05
-6.28312e-05
-0.000100202
-9.4954e-05
-6.48763e-05
-8.28302e-05
-1.77943e-05
-8.81094e-05
5.56832e-06
-0.000107136
3.78138e-05
-0.000123014
1.5899e-05
-0.000127207
-4.00947e-06
-0.000112269
-4.33633e-05
-9.06265e-05
-6.01857e-05
-7.95034e-05
-8.64348e-05
-6.13768e-05
-2.8978e-05
-9.91247e-05
-8.16423e-06
-0.000110109
1.45931e-05
-8.2943e-05
3.73346e-06
-5.87246e-05
-8.68855e-05
-0.000265167
-3.83733e-05
0.000503347
3.42069e-05
0.000217182
6.51013e-05
-9.71784e-05
3.27735e-05
-6.78747e-05
3.04507e-05
-6.25536e-05
5.04763e-05
-3.78197e-05
-2.61605e-07
5.63063e-05
-2.53705e-05
6.29228e-05
-5.75662e-05
4.80947e-05
-6.7521e-05
5.94529e-06
-6.90395e-05
-4.18448e-05
-6.94306e-05
-5.97946e-05
-5.47356e-05
-0.00010113
-4.39549e-05
-3.97586e-05
-5.3787e-05
1.66791e-06
-0.000126162
8.69682e-05
-6.00283e-05
-6.24005e-05
-5.46019e-05
-9.23119e-05
-0.000319769
2.81202e-05
0.000475226
0.000176319
6.89833e-05
0.000130405
-5.12642e-05
0.000188727
-0.000126197
0.000159507
-3.33335e-05
0.000143899
-2.22116e-05
0.000110774
8.94311e-05
2.75719e-05
0.000146125
-1.03063e-05
8.59729e-05
-1.54032e-05
1.10421e-05
-9.51815e-06
-4.77299e-05
-1.59777e-05
-5.3335e-05
-4.2406e-05
-7.47016e-05
8.7934e-07
-8.3044e-05
-6.01961e-06
8.56686e-06
-2.85059e-05
0.000109455
-3.71231e-05
-5.37833e-05
-3.22662e-05
-9.71692e-05
-0.000352036
0.000109175
0.000366052
0.000136594
4.15647e-05
0.000115059
-2.97294e-05
8.96769e-05
-0.000100816
0.000153114
-9.67707e-05
0.000176736
-4.58335e-05
0.000161572
0.000104595
0.000102099
0.000205598
3.52291e-05
0.000152843
6.79958e-06
3.94718e-05
2.59339e-06
-4.35236e-05
-1.30154e-05
-3.77263e-05
-1.33703e-05
-7.43466e-05
9.99864e-06
-0.000106413
1.23337e-05
6.23178e-06
4.11592e-06
0.000117672
-2.60387e-05
-2.36286e-05
-2.78721e-05
-9.53358e-05
-0.000379907
0.000140571
0.00022548
0.000117349
6.47875e-05
0.000168053
-8.04334e-05
0.000137296
-7.00586e-05
0.000154403
-0.000113878
0.000110371
-1.80161e-06
0.000108335
0.000106632
0.000130209
0.000183724
6.81031e-05
0.000214949
1.60241e-05
9.15509e-05
1.67282e-06
-2.91722e-05
-4.13312e-06
-3.19203e-05
-4.46279e-07
-7.80334e-05
1.84802e-05
-0.000125339
2.31267e-05
1.58526e-06
2.97137e-05
0.000111085
-7.03748e-06
1.31225e-05
-1.3146e-05
-8.9226e-05
-0.000393054
8.58276e-05
0.000139653
0.000123942
2.6674e-05
0.000119771
-7.62629e-05
0.000109421
-5.97089e-05
6.68701e-05
-7.13264e-05
9.34867e-05
-2.84182e-05
0.000115725
8.43931e-05
0.000161776
0.000137673
0.000120906
0.000255819
4.62289e-05
0.000166228
8.31137e-06
8.74545e-06
9.30324e-07
-2.45393e-05
9.60403e-06
-8.67072e-05
2.74256e-05
-0.000143161
4.65003e-05
-1.74894e-05
3.57512e-05
0.000121834
2.36666e-06
4.65068e-05
-4.37033e-06
-8.24885e-05
-0.000397424
7.14627e-06
-3.23559e-05
1.3736e-05
-3.19485e-05
1.89172e-05
-3.30409e-05
2.57064e-05
-2.85748e-05
2.99077e-05
-3.06743e-05
5.05199e-05
-3.76962e-05
5.62672e-05
-3.04801e-05
5.81791e-05
-2.95924e-05
5.94606e-05
-2.23104e-05
5.93505e-05
-1.3132e-05
5.88194e-05
-3.23134e-06
5.65321e-05
5.15004e-06
5.15136e-05
1.14307e-05
4.80112e-05
1.38842e-05
4.19094e-05
1.48494e-05
3.73369e-05
1.68279e-05
3.05835e-05
1.88265e-05
2.97054e-05
1.14466e-05
3.08595e-05
1.28376e-05
4.26094e-05
1.19653e-05
3.08514e-05
2.41988e-05
5.81421e-05
2.06951e-05
6.57312e-05
6.51934e-05
6.50604e-06
-3.88619e-05
1.3826e-05
-3.92684e-05
1.97538e-05
-3.89686e-05
3.59739e-05
-4.4795e-05
4.37716e-05
-3.8472e-05
5.0782e-05
-4.47067e-05
5.74286e-05
-3.71266e-05
6.1914e-05
-3.40778e-05
6.45224e-05
-2.49188e-05
6.57495e-05
-1.43591e-05
6.59266e-05
-3.40844e-06
6.27962e-05
8.28041e-06
5.89494e-05
1.52776e-05
5.45396e-05
1.8294e-05
5.06751e-05
1.87139e-05
4.62255e-05
2.12775e-05
4.44459e-05
2.06061e-05
4.29932e-05
1.28994e-05
3.76821e-05
1.81487e-05
2.35128e-05
2.61346e-05
3.89987e-05
8.71286e-06
4.32175e-05
1.64763e-05
3.69548e-05
7.19939e-05
4.95196e-06
-4.38139e-05
9.58556e-06
-4.3902e-05
1.46446e-05
-4.40276e-05
1.88709e-05
-4.90213e-05
2.26831e-05
-4.22842e-05
2.22741e-05
-4.42977e-05
2.42339e-05
-3.90864e-05
2.51966e-05
-3.50405e-05
2.55641e-05
-2.52864e-05
2.88018e-05
-1.75968e-05
3.29691e-05
-7.57579e-06
3.8887e-05
2.36257e-06
4.707e-05
7.09458e-06
4.82898e-05
1.70742e-05
4.4768e-05
2.22356e-05
4.38639e-05
2.21817e-05
4.3102e-05
2.13679e-05
3.99543e-05
1.60472e-05
4.16053e-05
1.64976e-05
4.91473e-05
1.85927e-05
3.88312e-05
1.9029e-05
4.54658e-05
9.84168e-06
2.47491e-05
5.76716e-05
2.03144e-06
-4.58453e-05
4.16607e-06
-4.60367e-05
7.12682e-06
-4.69884e-05
7.53435e-06
-4.94288e-05
1.02288e-05
-4.49786e-05
1.02833e-05
-4.43522e-05
8.17374e-06
-3.69768e-05
3.45899e-06
-3.03258e-05
-4.18965e-06
-1.76378e-05
-1.40253e-05
-7.76113e-06
-1.97698e-05
-1.8313e-06
-9.58238e-06
-7.82482e-06
-2.10945e-06
-3.78356e-07
1.2863e-05
2.10175e-06
1.59612e-05
1.91375e-05
1.66388e-05
2.15041e-05
2.32977e-05
1.4709e-05
3.1525e-05
7.81988e-06
3.91415e-05
8.88115e-06
5.09881e-05
6.74607e-06
6.52849e-05
4.73212e-06
7.48043e-05
3.22288e-07
1.10822e-05
8.84713e-05
1.66255e-06
-4.75079e-05
3.62606e-06
-4.80002e-05
5.72437e-06
-4.90867e-05
6.78301e-06
-5.04875e-05
8.24265e-06
-4.64383e-05
7.44021e-06
-4.35498e-05
5.68248e-06
-3.52191e-05
1.44091e-06
-2.60842e-05
-6.76274e-06
-9.4341e-06
-1.7954e-05
3.43012e-06
-2.36935e-05
3.90824e-06
-3.47783e-05
3.2599e-06
-2.95744e-05
-5.58217e-06
-4.4916e-05
1.74433e-05
-3.13653e-05
5.58675e-06
-2.97719e-05
1.99107e-05
-1.78278e-05
2.76478e-06
-2.55844e-06
-7.44945e-06
2.04638e-05
-1.41411e-05
3.29642e-05
-5.75436e-06
3.583e-05
1.86635e-06
4.27317e-05
-6.57945e-06
-1.45598e-05
6.83737e-05
1.56987e-06
-4.90777e-05
2.15128e-06
-4.85816e-05
1.99845e-06
-4.89339e-05
1.38645e-06
-4.98755e-05
-1.58954e-06
-4.34623e-05
-2.5646e-06
-4.25747e-05
-7.43299e-06
-3.03507e-05
-1.23653e-05
-2.11519e-05
-1.64929e-05
-5.30651e-06
-1.18992e-05
-1.1636e-06
-1.9316e-05
1.1325e-05
-2.99252e-05
1.38692e-05
-3.53419e-05
-1.65454e-07
-6.92946e-05
5.1396e-05
-8.48752e-05
2.11674e-05
-8.02976e-05
1.53331e-05
-6.30009e-05
-1.45319e-05
-2.52239e-05
-4.52265e-05
5.92146e-06
-4.52864e-05
2.69454e-05
-2.67783e-05
4.87523e-05
-1.99405e-05
8.27796e-05
-4.06068e-05
-1.1538e-05
7.97578e-05
-1.67843e-06
-4.73993e-05
-5.92836e-06
-4.43317e-05
-1.2089e-05
-4.27733e-05
-1.55954e-05
-4.63691e-05
-2.22179e-05
-3.68397e-05
-2.29963e-05
-4.17963e-05
-2.88109e-05
-2.45361e-05
-3.66743e-05
-1.32884e-05
-3.99477e-05
-2.0331e-06
-4.1993e-05
8.81693e-07
-4.05965e-05
9.92853e-06
-3.7001e-05
1.02737e-05
-5.27665e-05
1.56001e-05
-2.72584e-05
2.58879e-05
-4.29451e-05
3.68541e-05
-3.3462e-05
5.85001e-06
-2.92202e-05
-1.87737e-05
-4.21716e-07
-7.4025e-05
1.74052e-05
-6.31134e-05
5.01343e-05
-5.95074e-05
6.70415e-05
-3.68477e-05
6.81608e-05
-4.17261e-05
-3.34977e-05
9.01204e-05
-8.09478e-06
-3.93045e-05
-1.16143e-05
-4.08122e-05
-1.27483e-05
-4.16393e-05
-2.17484e-05
-3.7369e-05
-1.74743e-05
-4.11138e-05
-2.27542e-05
-3.65165e-05
-1.9255e-05
-2.80353e-05
-2.72111e-05
-5.33234e-06
-2.81932e-05
-1.05094e-06
-3.6734e-05
9.42247e-06
-3.71555e-05
1.035e-05
-3.74349e-05
1.0553e-05
-2.8811e-05
6.9762e-06
-4.76258e-05
4.47027e-05
-3.37236e-05
2.29518e-05
-2.09678e-05
-6.90581e-06
-3.46232e-07
-3.93952e-05
9.48337e-06
-8.38546e-05
2.01235e-05
-7.37535e-05
1.0991e-05
-5.0375e-05
2.16407e-05
-4.74973e-05
1.60844e-05
-3.61698e-05
-4.72475e-05
2.98342e-05
-1.13248e-05
-2.79798e-05
-1.38817e-05
-3.82553e-05
-1.46443e-05
-4.08767e-05
-2.47211e-05
-2.72921e-05
-2.03039e-05
-4.5531e-05
-2.81265e-05
-2.8694e-05
-3.54139e-05
-2.07479e-05
-4.18741e-05
1.12785e-06
-4.49776e-05
2.05253e-06
-4.88664e-05
1.33113e-05
-3.09437e-05
-7.57259e-06
-4.13488e-05
2.09581e-05
-3.64246e-05
2.05196e-06
-1.55667e-05
2.38448e-05
1.4046e-06
5.98053e-06
2.75813e-06
-8.25933e-06
7.50471e-06
-4.41418e-05
4.40399e-06
-8.07539e-05
1.66438e-05
-8.59933e-05
1.20798e-05
-4.5811e-05
3.27899e-06
-3.86965e-05
5.49151e-06
-3.83823e-05
-6.51738e-05
2.34178e-05
-8.94718e-06
-1.90326e-05
-1.79454e-05
-2.92571e-05
-1.85282e-05
-4.02939e-05
-2.23273e-05
-2.34931e-05
-2.82398e-05
-3.96185e-05
-2.77244e-05
-2.92093e-05
-3.31786e-05
-1.52937e-05
-3.17244e-05
-3.26345e-07
-3.67062e-05
7.03429e-06
-2.73139e-05
3.91904e-06
-2.87902e-05
-6.09629e-06
-3.59347e-05
2.81027e-05
-3.23459e-05
-1.53677e-06
-1.57609e-05
7.25975e-06
-3.78254e-06
-5.9978e-06
1.47122e-06
-1.35131e-05
-9.37158e-07
-4.17334e-05
-1.98988e-05
-6.17923e-05
-4.44304e-05
-6.14617e-05
-5.26356e-05
-3.76058e-05
-2.22767e-05
-6.90555e-05
-1.33614e-05
-4.72976e-05
-7.55307e-05
-3.00455e-06
-7.42256e-06
-1.161e-05
-1.39638e-05
-2.27159e-05
-1.31931e-05
-4.10646e-05
-1.64858e-05
-2.02004e-05
-2.29614e-05
-3.31428e-05
-2.54723e-05
-2.66984e-05
-2.05389e-05
-2.02272e-05
-2.90175e-05
8.15231e-06
-3.06343e-05
8.65102e-06
-3.56456e-05
8.93041e-06
-4.79618e-05
6.21987e-06
-2.94688e-05
9.60968e-06
-3.96257e-05
8.62018e-06
-2.85841e-05
-3.78186e-06
-2.923e-05
-5.35187e-06
-3.4238e-05
-8.50508e-06
-4.07135e-05
-3.5258e-05
-5.55272e-05
-4.69785e-05
-9.64953e-05
-2.04936e-05
-6.56098e-05
-6.84913e-05
-0.00010599
-2.86751e-05
-0.000120956
-3.23313e-05
-4.98141e-05
-0.000146673
-6.04576e-06
-5.56428e-06
-7.4903e-06
-2.12714e-05
-6.18378e-06
-4.23711e-05
-1.48099e-05
-1.15743e-05
-1.85274e-05
-2.94254e-05
-1.94243e-05
-2.58015e-05
-2.38055e-05
-1.5846e-05
-2.68907e-05
1.12375e-05
-3.5397e-05
1.71573e-05
-2.78261e-05
1.35951e-06
-4.42476e-05
2.26413e-05
-4.25584e-05
7.92049e-06
-4.55652e-05
1.1627e-05
-3.99247e-05
-9.42232e-06
-3.98631e-05
-5.41355e-06
-3.29131e-05
-1.54551e-05
-5.75332e-05
-1.06379e-05
-7.72343e-05
-2.72774e-05
-6.17102e-05
-3.60178e-05
-0.000118439
-1.17622e-05
-0.000142726
-4.38877e-06
-0.000150209
-2.48487e-05
5.37178e-05
-0.00025374
-9.85356e-06
4.28927e-06
-4.71778e-06
-2.64071e-05
-9.00983e-06
-3.80791e-05
-1.41058e-05
-6.47835e-06
-1.38128e-05
-2.97184e-05
-2.75071e-05
-1.21072e-05
-3.49331e-05
-8.41992e-06
-3.87361e-05
1.50404e-05
-2.60165e-05
4.43781e-06
-3.796e-05
1.3303e-05
-3.33066e-05
1.7988e-05
-4.37638e-05
1.83777e-05
-5.03668e-05
1.823e-05
-5.49463e-05
-4.84282e-06
-5.17666e-05
-8.59325e-06
-4.49138e-05
-2.23078e-05
-4.2533e-05
-1.30187e-05
-5.23241e-05
-1.74863e-05
-5.81548e-05
-3.0187e-05
-5.65612e-05
-1.33559e-05
-5.96361e-05
-1.31401e-06
-0.000119783
3.52987e-05
9.19668e-05
-0.000158032
5.66461e-06
-1.37534e-06
5.68844e-07
-2.13114e-05
-1.87923e-05
-1.87179e-05
-1.47759e-05
-1.04948e-05
-3.23602e-05
-1.21342e-05
-2.57507e-05
-1.87166e-05
-3.83335e-05
4.16286e-06
-2.26486e-05
-6.4449e-07
-2.47368e-05
6.52601e-06
-1.91811e-05
7.74728e-06
-1.9625e-05
1.84318e-05
-2.07086e-05
1.94614e-05
-2.41091e-05
2.16305e-05
-2.4454e-05
-4.49791e-06
-4.44453e-05
1.13981e-05
-3.65158e-05
-3.02373e-05
-3.89122e-05
-1.06223e-05
-5.39122e-05
-2.48638e-06
-6.31168e-05
-2.09824e-05
-7.13243e-05
-5.14836e-06
-7.6967e-05
4.32869e-06
-8.04723e-05
3.8804e-05
6.62018e-05
-5.47069e-05
-1.75241e-06
3.77069e-07
-3.24216e-06
-1.98217e-05
-8.43089e-06
-1.35292e-05
-1.34855e-05
-5.44014e-06
-1.86564e-05
-6.96328e-06
-3.14651e-05
-5.90799e-06
-2.56132e-05
-1.68897e-06
-3.80856e-05
1.18279e-05
-3.68724e-05
5.31278e-06
-3.34439e-05
4.31877e-06
-3.03383e-05
1.53263e-05
-3.2427e-05
2.155e-05
-1.91151e-05
8.31865e-06
-2.47255e-05
1.11253e-06
-1.88977e-05
5.57027e-06
-4.14316e-05
-7.70352e-06
-4.29509e-05
-9.10304e-06
-3.2061e-05
-1.33763e-05
-4.78534e-05
-5.18998e-06
-4.21634e-05
-1.08383e-05
-4.38252e-05
5.99046e-06
-4.06121e-05
3.5591e-05
4.74303e-05
-2.18403e-05
-1.94145e-06
2.31852e-06
-4.69172e-06
-1.70714e-05
-1.00762e-05
-8.14474e-06
-1.03376e-05
-5.17873e-06
-1.44519e-05
-2.84899e-06
-1.83375e-05
-2.02232e-06
-3.06391e-05
1.06126e-05
-3.11326e-05
1.23214e-05
-3.65104e-05
1.06906e-05
-3.56065e-05
3.4149e-06
-3.48227e-05
1.45425e-05
-2.88592e-05
1.55865e-05
-3.40157e-05
1.34752e-05
-3.42373e-05
1.33408e-06
-2.08011e-05
-7.86586e-06
-3.79846e-05
9.47994e-06
-2.42204e-05
-2.28672e-05
-3.15242e-05
-6.07251e-06
-2.32841e-05
-1.34301e-05
-1.41675e-05
-1.99548e-05
-2.04977e-05
1.23206e-05
-5.31724e-06
2.04106e-05
4.5276e-05
-3.16284e-06
-5.69481e-07
2.88799e-06
-5.21191e-06
-1.2429e-05
-8.50868e-06
-4.84797e-06
-8.5491e-06
-5.13831e-06
-8.24146e-06
-3.15664e-06
-1.21207e-05
1.85691e-06
-1.60008e-05
1.44927e-05
-2.13185e-05
1.7639e-05
-1.83464e-05
7.7185e-06
-2.10613e-05
6.12973e-06
-1.88512e-05
1.23325e-05
-3.33953e-05
3.01306e-05
-2.49523e-05
5.03215e-06
-3.23064e-05
8.68819e-06
-2.27012e-05
-1.7471e-05
-1.29854e-05
-2.35815e-07
-2.3293e-05
-1.25596e-05
-2.09488e-05
-8.41669e-06
-9.14651e-06
-2.52324e-05
-9.49214e-06
-1.96092e-05
-1.34641e-07
2.96312e-06
3.22618e-07
1.99534e-05
4.40383e-05
1.56036e-06
-9.12996e-06
1.20179e-05
-4.83717e-06
-1.67218e-05
-2.96264e-06
-6.72251e-06
-6.16012e-06
-1.94083e-06
-8.75812e-06
-5.58648e-07
-9.65472e-06
2.75351e-06
-1.10124e-05
1.58504e-05
-2.07226e-05
2.73492e-05
-1.68143e-05
3.81025e-06
-1.47644e-05
4.07979e-06
-2.12032e-05
1.87714e-05
-8.29519e-06
1.72225e-05
-1.95083e-05
1.62452e-05
-2.31487e-05
1.23286e-05
-2.809e-05
-1.25297e-05
-1.74345e-05
-1.08913e-05
-2.22354e-05
-7.7588e-06
-5.09889e-06
-2.55532e-05
-2.21763e-06
-2.81137e-05
7.56177e-07
-2.2583e-05
6.76264e-06
-3.04334e-06
1.51957e-05
1.15203e-05
4.22916e-05
1.69424e-05
-5.33793e-06
1.73559e-05
-7.96892e-06
-1.40908e-05
-6.24927e-06
-8.44216e-06
-9.26845e-06
1.07835e-06
-6.24935e-06
-3.57776e-06
-1.58425e-05
1.23467e-05
-1.76948e-05
1.77027e-05
-7.46498e-06
1.71193e-05
-1.53811e-05
1.17264e-05
-9.80329e-06
-1.49805e-06
-7.96952e-06
1.69376e-05
-2.45305e-05
3.37835e-05
-1.91274e-05
1.08421e-05
-1.36398e-05
6.84094e-06
-1.6795e-05
-9.37448e-06
-1.41937e-05
-1.34925e-05
-5.80718e-06
-1.61453e-05
-5.42757e-06
-2.59328e-05
-1.02942e-07
-3.34383e-05
6.03625e-06
-2.87222e-05
9.65811e-06
-6.6652e-06
2.88682e-06
1.82916e-05
4.26514e-05
2.52707e-06
-4.3061e-06
2.1662e-05
-3.53857e-06
-1.48583e-05
-6.83901e-06
-5.14173e-06
-6.52306e-06
7.62396e-07
-7.68882e-06
-2.412e-06
-3.76206e-06
8.41991e-06
-2.08234e-06
1.6023e-05
-1.33203e-05
2.83573e-05
-1.01335e-05
8.53962e-06
-1.04381e-05
-1.1935e-06
-1.65264e-05
2.30259e-05
-6.12838e-06
2.33855e-05
-8.39778e-06
1.31116e-05
-1.05412e-05
8.98437e-06
-7.24536e-06
-1.26703e-05
-1.09103e-05
-9.82761e-06
-5.98799e-06
-2.10676e-05
-2.81439e-06
-2.91064e-05
1.92426e-06
-3.8177e-05
3.34305e-06
-3.0141e-05
7.18243e-06
-1.05046e-05
7.86017e-06
1.76139e-05
3.0563e-05
1.99486e-05
-3.68119e-07
2.20301e-05
-2.97478e-06
-1.22517e-05
-8.0401e-06
-7.64098e-08
-2.74525e-06
-4.53246e-06
-5.14297e-06
-1.42887e-08
-4.07342e-06
7.35036e-06
-5.84933e-06
1.77989e-05
3.93033e-06
1.85777e-05
-2.86947e-07
1.27569e-05
3.30271e-06
-4.78316e-06
8.63607e-06
1.76926e-05
-5.9108e-06
3.79324e-05
-9.88631e-06
1.70871e-05
-3.49727e-06
2.59533e-06
-4.97675e-06
-1.11908e-05
-1.35457e-06
-1.34498e-05
5.02637e-07
-2.29248e-05
2.41832e-06
-3.1022e-05
1.99758e-06
-3.77562e-05
3.64511e-06
-3.17885e-05
7.40135e-07
-7.5996e-06
4.61723e-06
1.37368e-05
2.43828e-05
1.07974e-05
-9.12826e-06
3.11583e-05
-9.15702e-06
-1.22229e-05
-4.57638e-06
-4.65706e-06
-5.94548e-06
-3.16336e-06
-3.59398e-06
-2.36579e-06
-3.00538e-06
6.76175e-06
4.85776e-06
9.93579e-06
7.61734e-06
1.58181e-05
7.27583e-06
1.30984e-05
2.94e-06
-4.47326e-07
1.24669e-06
1.93859e-05
1.17003e-05
2.74788e-05
1.1834e-05
1.69534e-05
6.5419e-06
7.88741e-06
3.66255e-06
-8.3115e-06
5.0343e-06
-1.48215e-05
5.0757e-06
-2.29662e-05
5.78891e-06
-3.17353e-05
5.76061e-06
-3.77279e-05
2.42203e-06
-2.84499e-05
4.74777e-06
-9.92534e-06
1.07702e-05
7.71432e-06
8.93006e-06
2.6223e-05
1.1411e-05
1.97473e-05
1.96335e-06
-2.77527e-06
-2.30515e-06
-3.88564e-07
-2.85237e-06
-2.61614e-06
-7.32915e-06
2.11098e-06
-3.05839e-06
2.49099e-06
3.68163e-07
6.50924e-06
8.09861e-06
8.08763e-06
5.23612e-06
1.59609e-05
5.66344e-06
-8.74637e-07
1.20595e-05
1.29898e-05
-5.10949e-08
3.95894e-05
8.63328e-06
8.26902e-06
5.77629e-06
1.07444e-05
4.73869e-06
-7.27389e-06
6.91058e-06
-1.69934e-05
7.00858e-06
-2.30642e-05
5.77497e-06
-3.05016e-05
6.43908e-06
-3.8392e-05
6.407e-06
-2.84178e-05
5.9369e-06
-9.45523e-06
1.55492e-05
-1.89794e-06
8.5356e-06
1.59436e-05
8.11204e-06
1.16353e-05
4.27762e-06
1.05914e-06
3.18188e-06
7.07169e-07
9.51932e-07
-3.86201e-07
1.99127e-07
2.86379e-06
1.46476e-06
1.22535e-06
2.81658e-06
5.15742e-06
5.90039e-06
5.00381e-06
1.32263e-05
8.63494e-06
8.83522e-06
3.51648e-06
1.52385e-06
2.03011e-05
1.98096e-05
2.13037e-05
1.69632e-05
1.11155e-05
2.18733e-05
5.83428e-06
2.00673e-05
-5.46793e-06
1.27623e-05
-9.6884e-06
1.56246e-05
-2.59265e-05
1.45798e-05
-2.94569e-05
1.11754e-05
-3.49876e-05
-1.81234e-07
-1.70612e-05
1.90939e-06
-1.15459e-05
6.29207e-06
-6.28061e-06
5.24053e-06
9.58714e-06
1.5291e-06
1.01062e-05
7.63053e-07
1.82519e-06
1.03322e-06
4.37003e-07
2.49089e-07
3.97922e-07
3.93027e-07
2.71985e-06
2.86172e-07
1.33221e-06
1.75348e-06
3.69011e-06
2.77614e-06
3.98116e-06
4.49937e-06
6.91171e-06
2.94971e-06
5.06613e-06
7.56094e-06
1.56899e-05
1.95848e-05
9.27976e-06
1.40853e-05
1.6615e-05
1.67594e-05
3.16021e-06
1.84048e-05
-7.11332e-06
1.46225e-05
-5.90616e-06
1.4993e-05
-2.6297e-05
1.58852e-05
-3.03491e-05
1.17651e-05
-3.08675e-05
1.02752e-05
-1.55713e-05
1.188e-05
-1.31507e-05
1.49732e-05
-9.37376e-06
1.86209e-07
2.00275e-05
2.16885e-06
7.9373e-06
3.54118e-06
4.52851e-07
3.80208e-06
1.76096e-07
4.35081e-06
-1.50806e-07
4.79211e-06
2.27854e-06
5.77214e-06
3.52177e-07
6.62768e-06
2.83457e-06
8.18351e-06
2.42532e-06
1.05995e-05
4.49576e-06
1.17869e-05
3.87875e-06
1.52946e-05
1.21821e-05
1.87436e-05
5.83083e-06
2.29482e-05
1.24104e-05
2.11679e-05
4.94057e-06
2.34551e-05
-9.40058e-06
1.62833e-05
1.26568e-06
1.70358e-05
-2.70495e-05
1.29852e-05
-2.62985e-05
1.0573e-05
-2.84553e-05
1.02144e-05
-1.52127e-05
1.47464e-05
-1.76827e-05
1.93522e-05
-1.39795e-05
-2.2171e-06
2.17555e-05
1.15624e-06
6.78105e-06
1.91852e-06
-3.09426e-07
2.64391e-06
-5.49303e-07
3.38572e-06
-8.92619e-07
4.50082e-06
1.16344e-06
5.35786e-06
-5.04864e-07
6.64352e-06
1.54891e-06
8.13937e-06
9.2948e-07
9.67036e-06
2.96476e-06
1.13678e-05
2.18132e-06
1.44286e-05
9.12138e-06
1.70839e-05
3.17545e-06
1.97423e-05
9.75196e-06
2.18594e-05
2.82351e-06
1.50816e-05
-2.62277e-06
1.65729e-05
-2.25633e-07
1.93704e-05
-2.9847e-05
2.29245e-05
-2.98525e-05
1.95465e-05
-2.50773e-05
1.9185e-05
-1.48512e-05
2.48274e-05
-2.33251e-05
2.77042e-05
-1.68563e-05
-5.77877e-06
3.12659e-05
1.45711e-06
5.32394e-06
1.97111e-06
-8.23424e-07
3.10677e-06
-1.68497e-06
3.96105e-06
-1.7469e-06
6.93673e-06
-1.81224e-06
7.96257e-06
-1.53071e-06
9.78051e-06
-2.69031e-07
1.11311e-05
-4.21097e-07
1.2738e-05
1.3578e-06
1.41979e-05
7.21478e-07
1.72516e-05
6.06771e-06
1.90406e-05
1.38639e-06
2.28417e-05
5.95089e-06
2.63683e-05
-7.03071e-07
2.0461e-05
3.28448e-06
3.83041e-05
-1.80687e-05
2.21634e-05
-1.37063e-05
3.15465e-05
-3.92356e-05
2.53371e-05
-1.8868e-05
3.17305e-05
-2.12445e-05
2.7647e-05
-1.92416e-05
3.18755e-05
-2.10849e-05
-5.10323e-06
3.12e-05
1.74344e-06
3.5805e-06
3.19597e-06
-2.27596e-06
4.64101e-06
-3.13002e-06
5.96692e-06
-3.07281e-06
7.32227e-06
-3.1676e-06
8.49539e-06
-2.70383e-06
9.79489e-06
-1.56853e-06
1.12003e-05
-1.82647e-06
1.30008e-05
-4.42759e-07
1.46095e-05
-8.87165e-07
1.82466e-05
2.4306e-06
2.03114e-05
-6.78416e-07
2.27742e-05
3.48813e-06
2.66769e-05
-4.6058e-06
2.84472e-05
1.51417e-06
3.30831e-05
-2.27047e-05
2.61716e-05
-6.79478e-06
3.01621e-05
-4.32261e-05
2.32077e-05
-1.19136e-05
4.20525e-05
-4.00893e-05
3.34289e-05
-1.0618e-05
3.43955e-05
-2.20515e-05
-5.73541e-06
3.50277e-05
2.26912e-06
1.31138e-06
4.3374e-06
-4.34425e-06
6.0357e-06
-4.82832e-06
7.72841e-06
-4.76553e-06
9.04219e-06
-4.48138e-06
1.07574e-05
-4.41904e-06
1.26035e-05
-3.41458e-06
1.42251e-05
-3.44814e-06
1.60539e-05
-2.27155e-06
1.725e-05
-2.08322e-06
2.00967e-05
-4.16091e-07
2.14777e-05
-2.05946e-06
2.39919e-05
9.7397e-07
2.65798e-05
-7.19373e-06
3.38445e-05
-5.75051e-06
2.42433e-05
-1.31035e-05
4.32443e-05
-2.57958e-05
2.24503e-05
-2.2432e-05
3.36952e-05
-2.31585e-05
2.56291e-05
-3.20233e-05
4.64535e-05
-3.14424e-05
4.16418e-05
-1.72398e-05
-1.27809e-05
4.86873e-05
2.17529e-06
-8.63917e-07
3.77413e-06
-5.94309e-06
5.24453e-06
-6.29873e-06
6.75424e-06
-6.27524e-06
8.38108e-06
-6.10821e-06
9.91155e-06
-5.94951e-06
1.1571e-05
-5.07405e-06
1.30777e-05
-4.95482e-06
1.49269e-05
-4.12076e-06
1.60136e-05
-3.16988e-06
1.80705e-05
-2.47301e-06
1.83235e-05
-2.31252e-06
2.00678e-05
-7.70311e-07
1.6602e-05
-3.72793e-06
2.05969e-05
-9.74541e-06
2.10416e-05
-1.35482e-05
3.28276e-05
-3.75818e-05
3.23446e-05
-2.19491e-05
2.48294e-05
-1.56433e-05
3.0727e-05
-3.79209e-05
3.21745e-05
-3.28898e-05
3.86627e-05
-2.3728e-05
-1.41546e-05
4.00364e-05
2.39111e-06
-3.25502e-06
4.15568e-06
-7.70767e-06
5.67617e-06
-7.81922e-06
7.30605e-06
-7.90512e-06
8.86918e-06
-7.67134e-06
1.04726e-05
-7.55297e-06
1.20878e-05
-6.68924e-06
1.36585e-05
-6.52553e-06
1.54743e-05
-5.93655e-06
1.69965e-05
-4.6921e-06
1.91156e-05
-4.59202e-06
1.98704e-05
-3.06733e-06
2.31211e-05
-4.021e-06
2.09463e-05
-1.55319e-06
2.42326e-05
-1.30317e-05
3.82307e-05
-2.75462e-05
3.66147e-05
-3.59659e-05
3.09379e-05
-1.62723e-05
3.16301e-05
-1.63354e-05
4.77682e-05
-5.4059e-05
4.82887e-05
-3.34104e-05
4.3343e-05
-1.87822e-05
-1.78095e-05
4.69979e-05
1.99109e-06
-5.24612e-06
3.47474e-06
-9.19132e-06
4.918e-06
-9.26248e-06
6.43272e-06
-9.41984e-06
8.01773e-06
-9.25636e-06
9.79192e-06
-9.32716e-06
1.16499e-05
-8.54718e-06
1.34629e-05
-8.33857e-06
1.52749e-05
-7.7486e-06
1.76803e-05
-7.09751e-06
2.01147e-05
-7.02633e-06
2.30109e-05
-5.96357e-06
2.68361e-05
-7.84622e-06
3.28354e-05
-7.55248e-06
3.29673e-05
-1.31635e-05
3.5552e-05
-3.0131e-05
2.61114e-05
-2.65253e-05
4.88854e-05
-3.90463e-05
5.43868e-05
-2.18368e-05
3.234e-05
-3.20122e-05
4.94728e-05
-5.05432e-05
4.13564e-05
-1.06658e-05
-4.48627e-05
6.84096e-05
1.99029e-06
-7.23642e-06
3.39043e-06
-1.05915e-05
4.80856e-06
-1.06806e-05
6.27725e-06
-1.08885e-05
7.67951e-06
-1.06586e-05
9.25093e-06
-1.08986e-05
1.07907e-05
-1.0087e-05
1.25827e-05
-1.01306e-05
1.36246e-05
-8.79048e-06
1.59407e-05
-9.41359e-06
1.63702e-05
-7.45583e-06
1.99473e-05
-9.54062e-06
1.61183e-05
-4.01731e-06
1.88635e-05
-1.02976e-05
2.25818e-05
-1.68818e-05
2.36737e-05
-3.12228e-05
3.92591e-05
-4.21107e-05
4.16565e-05
-4.14437e-05
4.6537e-05
-2.67173e-05
3.74042e-05
-2.28794e-05
4.96395e-05
-6.27785e-05
5.53239e-05
-1.63502e-05
-4.86227e-05
5.90839e-05
1.6875e-06
-8.92392e-06
2.81513e-06
-1.17191e-05
4.04532e-06
-1.19108e-05
5.26714e-06
-1.21103e-05
6.58267e-06
-1.19742e-05
8.07553e-06
-1.23914e-05
9.83821e-06
-1.18496e-05
1.18571e-05
-1.21495e-05
1.35505e-05
-1.04839e-05
1.55903e-05
-1.14534e-05
1.69149e-05
-8.78046e-06
2.0242e-05
-1.28677e-05
1.74645e-05
-1.23983e-06
1.96173e-05
-1.24504e-05
3.01751e-05
-2.74397e-05
3.31983e-05
-3.4246e-05
3.43662e-05
-4.32785e-05
2.42065e-05
-3.12841e-05
4.7148e-05
-4.96588e-05
3.58361e-05
-1.15674e-05
3.43551e-05
-6.12976e-05
3.85385e-05
-2.05336e-05
-6.44029e-05
5.43188e-05
1.6757e-06
-1.05996e-05
2.94271e-06
-1.29861e-05
4.24431e-06
-1.32124e-05
5.46533e-06
-1.33314e-05
6.79875e-06
-1.33076e-05
8.07925e-06
-1.36719e-05
9.76263e-06
-1.3533e-05
1.13663e-05
-1.37532e-05
1.38188e-05
-1.29363e-05
1.58707e-05
-1.35053e-05
1.84492e-05
-1.1359e-05
1.76559e-05
-1.20744e-05
1.9031e-05
-2.61494e-06
3.11324e-05
-2.45517e-05
3.14898e-05
-2.77971e-05
3.48459e-05
-3.76021e-05
2.31758e-05
-3.16085e-05
2.87176e-05
-3.68258e-05
3.08565e-05
-5.17977e-05
5.00971e-05
-3.0808e-05
2.57559e-05
-3.69563e-05
6.16424e-05
-5.64202e-05
-4.33212e-05
4.05608e-05
1.41023e-06
-1.20099e-05
2.49228e-06
-1.40681e-05
3.61608e-06
-1.43362e-05
4.60991e-06
-1.43252e-05
5.858e-06
-1.45557e-05
6.83836e-06
-1.46523e-05
8.13585e-06
-1.48305e-05
9.44659e-06
-1.50639e-05
1.12255e-05
-1.47152e-05
1.22713e-05
-1.45511e-05
1.40334e-05
-1.3121e-05
1.34862e-05
-1.15272e-05
1.61555e-05
-5.28423e-06
2.79316e-05
-3.63278e-05
2.70368e-05
-2.69023e-05
1.92461e-05
-2.98114e-05
2.04836e-05
-3.28459e-05
2.20623e-05
-3.84045e-05
2.88789e-05
-5.86143e-05
3.68296e-05
-3.87587e-05